/*--------------------------------*- C++ -*----------------------------------*\
| =========                 |                                                 |
| \\      /  F ield         | OpenFOAM: The Open Source CFD Toolbox           |
|  \\    /   O peration     | Version:  2412                                  |
|   \\  /    A nd           | Website:  www.openfoam.com                      |
|    \\/     M anipulation  |                                                 |
\*---------------------------------------------------------------------------*/
FoamFile
{
    version     2.0;
    format      ascii;
    arch        "LSB;label=32;scalar=64";
    class       volVectorField;
    location    "0.19";
    object      U;
}
// * * * * * * * * * * * * * * * * * * * * * * * * * * * * * * * * * * * * * //

dimensions      [0 1 -1 0 0 0 0];

internalField   nonuniform List<vector> 
800
(
(0.00245879 0 0)
(0.00737643 0 0)
(0.012294 0 0)
(0.0172113 0 0)
(0.0221284 0 0)
(0.0270451 0 0)
(0.0319615 0 0)
(0.0368773 0 0)
(0.0417926 0 0)
(0.0467072 0 0)
(0.0516212 0 0)
(0.0565343 0 0)
(0.0614466 0 0)
(0.0663579 0 0)
(0.0712683 0 0)
(0.0761775 0 0)
(0.0810856 0 0)
(0.0859925 0 0)
(0.090898 0 0)
(0.0958021 0 0)
(0.100705 0 0)
(0.105606 0 0)
(0.110505 0 0)
(0.115403 0 0)
(0.120299 0 0)
(0.125193 0 0)
(0.130086 0 0)
(0.134976 0 0)
(0.139864 0 0)
(0.14475 0 0)
(0.149634 0 0)
(0.154516 0 0)
(0.159395 0 0)
(0.164271 0 0)
(0.169146 0 0)
(0.174017 0 0)
(0.178886 0 0)
(0.183752 0 0)
(0.188615 0 0)
(0.193475 0 0)
(0.198333 0 0)
(0.203187 0 0)
(0.208038 0 0)
(0.212886 0 0)
(0.21773 0 0)
(0.222571 0 0)
(0.227409 0 0)
(0.232243 0 0)
(0.237073 0 0)
(0.2419 0 0)
(0.246723 0 0)
(0.251541 0 0)
(0.256356 0 0)
(0.261167 0 0)
(0.265974 0 0)
(0.270777 0 0)
(0.275575 0 0)
(0.280369 0 0)
(0.285158 0 0)
(0.289943 0 0)
(0.294723 0 0)
(0.299499 0 0)
(0.30427 0 0)
(0.309035 0 0)
(0.313796 0 0)
(0.318552 0 0)
(0.323303 0 0)
(0.328048 0 0)
(0.332788 0 0)
(0.337523 0 0)
(0.342252 0 0)
(0.346976 0 0)
(0.351694 0 0)
(0.356406 0 0)
(0.361113 0 0)
(0.365813 0 0)
(0.370508 0 0)
(0.375196 0 0)
(0.379878 0 0)
(0.384554 0 0)
(0.389223 0 0)
(0.393886 0 0)
(0.398543 0 0)
(0.403193 0 0)
(0.407836 0 0)
(0.412472 0 0)
(0.417101 0 0)
(0.421723 0 0)
(0.426338 0 0)
(0.430946 0 0)
(0.435546 0 0)
(0.44014 0 0)
(0.444725 0 0)
(0.449303 0 0)
(0.453873 0 0)
(0.458436 0 0)
(0.46299 0 0)
(0.467536 0 0)
(0.472075 0 0)
(0.476605 0 0)
(0.481127 0 0)
(0.48564 0 0)
(0.490145 0 0)
(0.494641 0 0)
(0.499128 0 0)
(0.503607 0 0)
(0.508077 0 0)
(0.512537 0 0)
(0.516989 0 0)
(0.521431 0 0)
(0.525863 0 0)
(0.530287 0 0)
(0.5347 0 0)
(0.539104 0 0)
(0.543498 0 0)
(0.547882 0 0)
(0.552256 0 0)
(0.55662 0 0)
(0.560974 0 0)
(0.565317 0 0)
(0.569649 0 0)
(0.573971 0 0)
(0.578283 0 0)
(0.582583 0 0)
(0.586872 0 0)
(0.59115 0 0)
(0.595417 0 0)
(0.599673 0 0)
(0.603917 0 0)
(0.608149 0 0)
(0.61237 0 0)
(0.616579 0 0)
(0.620776 0 0)
(0.62496 0 0)
(0.629132 0 0)
(0.633292 0 0)
(0.63744 0 0)
(0.641574 0 0)
(0.645696 0 0)
(0.649805 0 0)
(0.653901 0 0)
(0.657984 0 0)
(0.662053 0 0)
(0.666109 0 0)
(0.670151 0 0)
(0.674179 0 0)
(0.678193 0 0)
(0.682193 0 0)
(0.686179 0 0)
(0.690151 0 0)
(0.694108 0 0)
(0.69805 0 0)
(0.701978 0 0)
(0.70589 0 0)
(0.709787 0 0)
(0.713669 0 0)
(0.717536 0 0)
(0.721387 0 0)
(0.725222 0 0)
(0.729041 0 0)
(0.732843 0 0)
(0.73663 0 0)
(0.7404 0 0)
(0.744153 0 0)
(0.74789 0 0)
(0.75161 0 0)
(0.755312 0 0)
(0.758997 0 0)
(0.762664 0 0)
(0.766314 0 0)
(0.769946 0 0)
(0.77356 0 0)
(0.777155 0 0)
(0.780732 0 0)
(0.78429 0 0)
(0.78783 0 0)
(0.79135 0 0)
(0.794851 0 0)
(0.798333 0 0)
(0.801795 0 0)
(0.805237 0 0)
(0.808659 0 0)
(0.81206 0 0)
(0.815441 0 0)
(0.818802 0 0)
(0.822141 0 0)
(0.82546 0 0)
(0.828756 0 0)
(0.832032 0 0)
(0.835285 0 0)
(0.838516 0 0)
(0.841725 0 0)
(0.844912 0 0)
(0.848076 0 0)
(0.851216 0 0)
(0.854334 0 0)
(0.857427 0 0)
(0.860497 0 0)
(0.863543 0 0)
(0.866565 0 0)
(0.869562 0 0)
(0.872534 0 0)
(0.875481 0 0)
(0.878403 0 0)
(0.881299 0 0)
(0.88417 0 0)
(0.887014 0 0)
(0.889831 0 0)
(0.892622 0 0)
(0.895386 0 0)
(0.898122 0 0)
(0.90083 0 0)
(0.903511 0 0)
(0.906163 0 0)
(0.908787 0 0)
(0.911382 0 0)
(0.913947 0 0)
(0.916483 0 0)
(0.918989 0 0)
(0.921465 0 0)
(0.92391 0 0)
(0.926324 0 0)
(0.928707 0 0)
(0.931058 0 0)
(0.933377 0 0)
(0.935664 0 0)
(0.937918 0 0)
(0.940139 0 0)
(0.942326 0 0)
(0.944479 0 0)
(0.946598 0 0)
(0.948683 0 0)
(0.950732 0 0)
(0.952746 0 0)
(0.954723 0 0)
(0.956665 0 0)
(0.958569 0 0)
(0.960436 0 0)
(0.962266 0 0)
(0.964057 0 0)
(0.96581 0 0)
(0.967524 0 0)
(0.969198 0 0)
(0.970832 0 0)
(0.972425 0 0)
(0.973977 0 0)
(0.975488 0 0)
(0.976957 0 0)
(0.978383 0 0)
(0.979766 0 0)
(0.981105 0 0)
(0.9824 0 0)
(0.983651 0 0)
(0.984856 0 0)
(0.986015 0 0)
(0.987127 0 0)
(0.988192 0 0)
(0.98921 0 0)
(0.990179 0 0)
(0.991099 0 0)
(0.99197 0 0)
(0.99279 0 0)
(0.993559 0 0)
(0.994277 0 0)
(0.994942 0 0)
(0.995554 0 0)
(0.996113 0 0)
(0.996617 0 0)
(0.997066 0 0)
(0.997458 0 0)
(0.997794 0 0)
(0.998073 0 0)
(0.998293 0 0)
(0.998454 0 0)
(0.998555 0 0)
(0.998595 0 0)
(0.998573 0 0)
(0.998489 0 0)
(0.998341 0 0)
(0.998129 0 0)
(0.997852 0 0)
(0.997508 0 0)
(0.997097 0 0)
(0.996618 0 0)
(0.99607 0 0)
(0.995451 0 0)
(0.994761 0 0)
(0.993999 0 0)
(0.993163 0 0)
(0.992253 0 0)
(0.991267 0 0)
(0.990204 0 0)
(0.989063 0 0)
(0.987843 0 0)
(0.986542 0 0)
(0.985159 0 0)
(0.983694 0 0)
(0.982144 0 0)
(0.980508 0 0)
(0.978786 0 0)
(0.976974 0 0)
(0.975073 0 0)
(0.973081 0 0)
(0.970996 0 0)
(0.968816 0 0)
(0.966541 0 0)
(0.964168 0 0)
(0.961696 0 0)
(0.959123 0 0)
(0.956448 0 0)
(0.953668 0 0)
(0.950783 0 0)
(0.94779 0 0)
(0.944687 0 0)
(0.941473 0 0)
(0.938146 0 0)
(0.934703 0 0)
(0.931143 0 0)
(0.927463 0 0)
(0.923662 0 0)
(0.919737 0 0)
(0.915686 0 0)
(0.911508 0 0)
(0.907199 0 0)
(0.902757 0 0)
(0.898181 0 0)
(0.893467 0 0)
(0.888613 0 0)
(0.883616 0 0)
(0.878475 0 0)
(0.873186 0 0)
(0.867747 0 0)
(0.862154 0 0)
(0.856406 0 0)
(0.850499 0 0)
(0.844431 0 0)
(0.838198 0 0)
(0.831798 0 0)
(0.825227 0 0)
(0.818483 0 0)
(0.811562 0 0)
(0.804462 0 0)
(0.797178 0 0)
(0.789708 0 0)
(0.782049 0 0)
(0.774196 0 0)
(0.766148 0 0)
(0.757899 0 0)
(0.749448 0 0)
(0.74079 0 0)
(0.731922 0 0)
(0.722842 0 0)
(0.713544 0 0)
(0.704026 0 0)
(0.694284 0 0)
(0.684316 0 0)
(0.674117 0 0)
(0.663685 0 0)
(0.653016 0 0)
(0.642108 0 0)
(0.630956 0 0)
(0.619559 0 0)
(0.607913 0 0)
(0.596016 0 0)
(0.583866 0 0)
(0.571459 0 0)
(0.558795 0 0)
(0.545872 0 0)
(0.532687 0 0)
(0.519241 0 0)
(0.505531 0 0)
(0.491559 0 0)
(0.477322 0 0)
(0.462823 0 0)
(0.448062 0 0)
(0.43304 0 0)
(0.41776 0 0)
(0.402223 0 0)
(0.386433 0 0)
(0.370394 0 0)
(0.35411 0 0)
(0.337587 0 0)
(0.32083 0 0)
(0.303846 0 0)
(0.286642 0 0)
(0.269227 0 0)
(0.251609 0 0)
(0.233798 0 0)
(0.215805 0 0)
(0.197641 0 0)
(0.179319 0 0)
(0.16085 0 0)
(0.142248 0 0)
(0.123527 0 0)
(0.104703 0 0)
(0.085789 0 0)
(0.0668017 0 0)
(0.0477569 0 0)
(0.0286708 0 0)
(0.00955975 0 0)
(-0.00955956 0 0)
(-0.0286705 0 0)
(-0.0477566 0 0)
(-0.0668014 0 0)
(-0.0857885 0 0)
(-0.104702 0 0)
(-0.123527 0 0)
(-0.142247 0 0)
(-0.160849 0 0)
(-0.179317 0 0)
(-0.19764 0 0)
(-0.215804 0 0)
(-0.233796 0 0)
(-0.251607 0 0)
(-0.269224 0 0)
(-0.286639 0 0)
(-0.303843 0 0)
(-0.320827 0 0)
(-0.337584 0 0)
(-0.354107 0 0)
(-0.37039 0 0)
(-0.386429 0 0)
(-0.402219 0 0)
(-0.417755 0 0)
(-0.433035 0 0)
(-0.448057 0 0)
(-0.462818 0 0)
(-0.477317 0 0)
(-0.491553 0 0)
(-0.505526 0 0)
(-0.519235 0 0)
(-0.532682 0 0)
(-0.545866 0 0)
(-0.55879 0 0)
(-0.571453 0 0)
(-0.58386 0 0)
(-0.59601 0 0)
(-0.607907 0 0)
(-0.619553 0 0)
(-0.63095 0 0)
(-0.642102 0 0)
(-0.65301 0 0)
(-0.663679 0 0)
(-0.674112 0 0)
(-0.68431 0 0)
(-0.694279 0 0)
(-0.70402 0 0)
(-0.713538 0 0)
(-0.722836 0 0)
(-0.731917 0 0)
(-0.740785 0 0)
(-0.749443 0 0)
(-0.757894 0 0)
(-0.766142 0 0)
(-0.774191 0 0)
(-0.782044 0 0)
(-0.789703 0 0)
(-0.797173 0 0)
(-0.804457 0 0)
(-0.811558 0 0)
(-0.818479 0 0)
(-0.825223 0 0)
(-0.831794 0 0)
(-0.838194 0 0)
(-0.844427 0 0)
(-0.850496 0 0)
(-0.856403 0 0)
(-0.862151 0 0)
(-0.867743 0 0)
(-0.873183 0 0)
(-0.878472 0 0)
(-0.883613 0 0)
(-0.88861 0 0)
(-0.893464 0 0)
(-0.898178 0 0)
(-0.902755 0 0)
(-0.907197 0 0)
(-0.911506 0 0)
(-0.915684 0 0)
(-0.919735 0 0)
(-0.92366 0 0)
(-0.927461 0 0)
(-0.931141 0 0)
(-0.934701 0 0)
(-0.938144 0 0)
(-0.941472 0 0)
(-0.944686 0 0)
(-0.947789 0 0)
(-0.950782 0 0)
(-0.953667 0 0)
(-0.956447 0 0)
(-0.959122 0 0)
(-0.961695 0 0)
(-0.964167 0 0)
(-0.96654 0 0)
(-0.968816 0 0)
(-0.970995 0 0)
(-0.97308 0 0)
(-0.975073 0 0)
(-0.976974 0 0)
(-0.978785 0 0)
(-0.980508 0 0)
(-0.982144 0 0)
(-0.983694 0 0)
(-0.985159 0 0)
(-0.986542 0 0)
(-0.987843 0 0)
(-0.989063 0 0)
(-0.990204 0 0)
(-0.991267 0 0)
(-0.992253 0 0)
(-0.993163 0 0)
(-0.993999 0 0)
(-0.994761 0 0)
(-0.995451 0 0)
(-0.99607 0 0)
(-0.996618 0 0)
(-0.997097 0 0)
(-0.997508 0 0)
(-0.997852 0 0)
(-0.998129 0 0)
(-0.998341 0 0)
(-0.998489 0 0)
(-0.998573 0 0)
(-0.998595 0 0)
(-0.998555 0 0)
(-0.998454 0 0)
(-0.998293 0 0)
(-0.998073 0 0)
(-0.997794 0 0)
(-0.997458 0 0)
(-0.997066 0 0)
(-0.996617 0 0)
(-0.996113 0 0)
(-0.995554 0 0)
(-0.994942 0 0)
(-0.994277 0 0)
(-0.993559 0 0)
(-0.99279 0 0)
(-0.99197 0 0)
(-0.991099 0 0)
(-0.990179 0 0)
(-0.98921 0 0)
(-0.988192 0 0)
(-0.987127 0 0)
(-0.986014 0 0)
(-0.984855 0 0)
(-0.98365 0 0)
(-0.9824 0 0)
(-0.981105 0 0)
(-0.979766 0 0)
(-0.978383 0 0)
(-0.976957 0 0)
(-0.975488 0 0)
(-0.973977 0 0)
(-0.972425 0 0)
(-0.970831 0 0)
(-0.969197 0 0)
(-0.967523 0 0)
(-0.965809 0 0)
(-0.964057 0 0)
(-0.962265 0 0)
(-0.960436 0 0)
(-0.958569 0 0)
(-0.956664 0 0)
(-0.954723 0 0)
(-0.952745 0 0)
(-0.950731 0 0)
(-0.948682 0 0)
(-0.946598 0 0)
(-0.944479 0 0)
(-0.942325 0 0)
(-0.940138 0 0)
(-0.937917 0 0)
(-0.935663 0 0)
(-0.933376 0 0)
(-0.931057 0 0)
(-0.928706 0 0)
(-0.926323 0 0)
(-0.923909 0 0)
(-0.921464 0 0)
(-0.918988 0 0)
(-0.916482 0 0)
(-0.913946 0 0)
(-0.911381 0 0)
(-0.908786 0 0)
(-0.906162 0 0)
(-0.90351 0 0)
(-0.900829 0 0)
(-0.898121 0 0)
(-0.895384 0 0)
(-0.892621 0 0)
(-0.88983 0 0)
(-0.887012 0 0)
(-0.884168 0 0)
(-0.881298 0 0)
(-0.878402 0 0)
(-0.87548 0 0)
(-0.872533 0 0)
(-0.869561 0 0)
(-0.866564 0 0)
(-0.863542 0 0)
(-0.860496 0 0)
(-0.857426 0 0)
(-0.854332 0 0)
(-0.851215 0 0)
(-0.848074 0 0)
(-0.844911 0 0)
(-0.841724 0 0)
(-0.838515 0 0)
(-0.835284 0 0)
(-0.83203 0 0)
(-0.828755 0 0)
(-0.825458 0 0)
(-0.82214 0 0)
(-0.8188 0 0)
(-0.81544 0 0)
(-0.812059 0 0)
(-0.808657 0 0)
(-0.805235 0 0)
(-0.801793 0 0)
(-0.798331 0 0)
(-0.79485 0 0)
(-0.791349 0 0)
(-0.787828 0 0)
(-0.784289 0 0)
(-0.780731 0 0)
(-0.777154 0 0)
(-0.773558 0 0)
(-0.769944 0 0)
(-0.766313 0 0)
(-0.762663 0 0)
(-0.758995 0 0)
(-0.75531 0 0)
(-0.751608 0 0)
(-0.747888 0 0)
(-0.744152 0 0)
(-0.740399 0 0)
(-0.736628 0 0)
(-0.732842 0 0)
(-0.729039 0 0)
(-0.72522 0 0)
(-0.721385 0 0)
(-0.717534 0 0)
(-0.713668 0 0)
(-0.709786 0 0)
(-0.705889 0 0)
(-0.701976 0 0)
(-0.698049 0 0)
(-0.694106 0 0)
(-0.690149 0 0)
(-0.686178 0 0)
(-0.682192 0 0)
(-0.678192 0 0)
(-0.674177 0 0)
(-0.670149 0 0)
(-0.666107 0 0)
(-0.662051 0 0)
(-0.657982 0 0)
(-0.6539 0 0)
(-0.649804 0 0)
(-0.645695 0 0)
(-0.641573 0 0)
(-0.637438 0 0)
(-0.633291 0 0)
(-0.629131 0 0)
(-0.624959 0 0)
(-0.620774 0 0)
(-0.616577 0 0)
(-0.612369 0 0)
(-0.608148 0 0)
(-0.603916 0 0)
(-0.599672 0 0)
(-0.595416 0 0)
(-0.591149 0 0)
(-0.586871 0 0)
(-0.582582 0 0)
(-0.578281 0 0)
(-0.57397 0 0)
(-0.569648 0 0)
(-0.565316 0 0)
(-0.560972 0 0)
(-0.556619 0 0)
(-0.552255 0 0)
(-0.547881 0 0)
(-0.543497 0 0)
(-0.539103 0 0)
(-0.534699 0 0)
(-0.530285 0 0)
(-0.525862 0 0)
(-0.52143 0 0)
(-0.516987 0 0)
(-0.512536 0 0)
(-0.508075 0 0)
(-0.503606 0 0)
(-0.499127 0 0)
(-0.49464 0 0)
(-0.490144 0 0)
(-0.485639 0 0)
(-0.481126 0 0)
(-0.476604 0 0)
(-0.472074 0 0)
(-0.467536 0 0)
(-0.462989 0 0)
(-0.458435 0 0)
(-0.453872 0 0)
(-0.449302 0 0)
(-0.444724 0 0)
(-0.440139 0 0)
(-0.435546 0 0)
(-0.430945 0 0)
(-0.426337 0 0)
(-0.421722 0 0)
(-0.4171 0 0)
(-0.412471 0 0)
(-0.407835 0 0)
(-0.403192 0 0)
(-0.398542 0 0)
(-0.393886 0 0)
(-0.389223 0 0)
(-0.384553 0 0)
(-0.379877 0 0)
(-0.375195 0 0)
(-0.370507 0 0)
(-0.365813 0 0)
(-0.361112 0 0)
(-0.356406 0 0)
(-0.351693 0 0)
(-0.346975 0 0)
(-0.342252 0 0)
(-0.337523 0 0)
(-0.332788 0 0)
(-0.328048 0 0)
(-0.323302 0 0)
(-0.318552 0 0)
(-0.313796 0 0)
(-0.309035 0 0)
(-0.304269 0 0)
(-0.299498 0 0)
(-0.294723 0 0)
(-0.289943 0 0)
(-0.285158 0 0)
(-0.280368 0 0)
(-0.275575 0 0)
(-0.270776 0 0)
(-0.265974 0 0)
(-0.261167 0 0)
(-0.256356 0 0)
(-0.251541 0 0)
(-0.246722 0 0)
(-0.241899 0 0)
(-0.237073 0 0)
(-0.232242 0 0)
(-0.227409 0 0)
(-0.222571 0 0)
(-0.21773 0 0)
(-0.212885 0 0)
(-0.208038 0 0)
(-0.203187 0 0)
(-0.198333 0 0)
(-0.193475 0 0)
(-0.188615 0 0)
(-0.183752 0 0)
(-0.178886 0 0)
(-0.174017 0 0)
(-0.169145 0 0)
(-0.164271 0 0)
(-0.159395 0 0)
(-0.154516 0 0)
(-0.149634 0 0)
(-0.14475 0 0)
(-0.139864 0 0)
(-0.134976 0 0)
(-0.130086 0 0)
(-0.125193 0 0)
(-0.120299 0 0)
(-0.115403 0 0)
(-0.110505 0 0)
(-0.105606 0 0)
(-0.100705 0 0)
(-0.0958021 0 0)
(-0.0908979 0 0)
(-0.0859924 0 0)
(-0.0810856 0 0)
(-0.0761775 0 0)
(-0.0712683 0 0)
(-0.0663579 0 0)
(-0.0614466 0 0)
(-0.0565343 0 0)
(-0.0516212 0 0)
(-0.0467072 0 0)
(-0.0417926 0 0)
(-0.0368773 0 0)
(-0.0319615 0 0)
(-0.0270452 0 0)
(-0.0221284 0 0)
(-0.0172113 0 0)
(-0.012294 0 0)
(-0.00737648 0 0)
(-0.00245884 0 0)
)
;

boundaryField
{
    left
    {
        type            fixedValue;
        value           uniform (0 0 0);
    }
    right
    {
        type            fixedValue;
        value           uniform (0 0 0);
    }
    frontBackUpDown
    {
        type            empty;
    }
}


// ************************************************************************* //
