/*--------------------------------*- C++ -*----------------------------------*\
| =========                 |                                                 |
| \\      /  F ield         | OpenFOAM: The Open Source CFD Toolbox           |
|  \\    /   O peration     | Version:  2412                                  |
|   \\  /    A nd           | Website:  www.openfoam.com                      |
|    \\/     M anipulation  |                                                 |
\*---------------------------------------------------------------------------*/
FoamFile
{
    version     2.0;
    format      ascii;
    arch        "LSB;label=32;scalar=64";
    class       volVectorField;
    location    "0.19";
    object      U_0;
}
// * * * * * * * * * * * * * * * * * * * * * * * * * * * * * * * * * * * * * //

dimensions      [0 1 -1 0 0 0 0];

internalField   nonuniform List<vector> 
800
(
(0.00246121 0 0)
(0.00738368 0 0)
(0.0123061 0 0)
(0.0172282 0 0)
(0.0221501 0 0)
(0.0270717 0 0)
(0.0319929 0 0)
(0.0369136 0 0)
(0.0418337 0 0)
(0.0467532 0 0)
(0.0516719 0 0)
(0.0565899 0 0)
(0.061507 0 0)
(0.0664231 0 0)
(0.0713383 0 0)
(0.0762523 0 0)
(0.0811652 0 0)
(0.0860769 0 0)
(0.0909872 0 0)
(0.0958961 0 0)
(0.100804 0 0)
(0.105709 0 0)
(0.110614 0 0)
(0.115516 0 0)
(0.120417 0 0)
(0.125316 0 0)
(0.130213 0 0)
(0.135108 0 0)
(0.140001 0 0)
(0.144892 0 0)
(0.14978 0 0)
(0.154667 0 0)
(0.15955 0 0)
(0.164432 0 0)
(0.169311 0 0)
(0.174187 0 0)
(0.17906 0 0)
(0.183931 0 0)
(0.188799 0 0)
(0.193664 0 0)
(0.198525 0 0)
(0.203384 0 0)
(0.20824 0 0)
(0.213092 0 0)
(0.217941 0 0)
(0.222787 0 0)
(0.227629 0 0)
(0.232467 0 0)
(0.237302 0 0)
(0.242133 0 0)
(0.246961 0 0)
(0.251784 0 0)
(0.256603 0 0)
(0.261419 0 0)
(0.26623 0 0)
(0.271037 0 0)
(0.275839 0 0)
(0.280638 0 0)
(0.285431 0 0)
(0.290221 0 0)
(0.295005 0 0)
(0.299785 0 0)
(0.30456 0 0)
(0.30933 0 0)
(0.314095 0 0)
(0.318855 0 0)
(0.32361 0 0)
(0.32836 0 0)
(0.333104 0 0)
(0.337843 0 0)
(0.342576 0 0)
(0.347304 0 0)
(0.352026 0 0)
(0.356742 0 0)
(0.361453 0 0)
(0.366157 0 0)
(0.370855 0 0)
(0.375548 0 0)
(0.380234 0 0)
(0.384914 0 0)
(0.389587 0 0)
(0.394254 0 0)
(0.398914 0 0)
(0.403567 0 0)
(0.408214 0 0)
(0.412854 0 0)
(0.417487 0 0)
(0.422113 0 0)
(0.426732 0 0)
(0.431343 0 0)
(0.435947 0 0)
(0.440544 0 0)
(0.445133 0 0)
(0.449714 0 0)
(0.454288 0 0)
(0.458854 0 0)
(0.463412 0 0)
(0.467961 0 0)
(0.472503 0 0)
(0.477037 0 0)
(0.481562 0 0)
(0.486078 0 0)
(0.490586 0 0)
(0.495086 0 0)
(0.499576 0 0)
(0.504058 0 0)
(0.508531 0 0)
(0.512994 0 0)
(0.517449 0 0)
(0.521894 0 0)
(0.526329 0 0)
(0.530755 0 0)
(0.535172 0 0)
(0.539579 0 0)
(0.543976 0 0)
(0.548362 0 0)
(0.552739 0 0)
(0.557106 0 0)
(0.561462 0 0)
(0.565808 0 0)
(0.570143 0 0)
(0.574467 0 0)
(0.578781 0 0)
(0.583084 0 0)
(0.587375 0 0)
(0.591656 0 0)
(0.595925 0 0)
(0.600183 0 0)
(0.604429 0 0)
(0.608664 0 0)
(0.612887 0 0)
(0.617097 0 0)
(0.621296 0 0)
(0.625483 0 0)
(0.629657 0 0)
(0.633819 0 0)
(0.637968 0 0)
(0.642105 0 0)
(0.646228 0 0)
(0.650339 0 0)
(0.654436 0 0)
(0.65852 0 0)
(0.662591 0 0)
(0.666648 0 0)
(0.670692 0 0)
(0.674722 0 0)
(0.678737 0 0)
(0.682739 0 0)
(0.686726 0 0)
(0.690699 0 0)
(0.694657 0 0)
(0.6986 0 0)
(0.702529 0 0)
(0.706442 0 0)
(0.71034 0 0)
(0.714223 0 0)
(0.71809 0 0)
(0.721942 0 0)
(0.725777 0 0)
(0.729597 0 0)
(0.7334 0 0)
(0.737187 0 0)
(0.740958 0 0)
(0.744711 0 0)
(0.748448 0 0)
(0.752168 0 0)
(0.755871 0 0)
(0.759556 0 0)
(0.763223 0 0)
(0.766873 0 0)
(0.770504 0 0)
(0.774118 0 0)
(0.777713 0 0)
(0.78129 0 0)
(0.784848 0 0)
(0.788387 0 0)
(0.791906 0 0)
(0.795407 0 0)
(0.798888 0 0)
(0.802349 0 0)
(0.80579 0 0)
(0.809211 0 0)
(0.812612 0 0)
(0.815992 0 0)
(0.819351 0 0)
(0.822689 0 0)
(0.826006 0 0)
(0.829302 0 0)
(0.832576 0 0)
(0.835828 0 0)
(0.839057 0 0)
(0.842265 0 0)
(0.845449 0 0)
(0.848611 0 0)
(0.85175 0 0)
(0.854865 0 0)
(0.857957 0 0)
(0.861024 0 0)
(0.864068 0 0)
(0.867087 0 0)
(0.870082 0 0)
(0.873052 0 0)
(0.875996 0 0)
(0.878915 0 0)
(0.881808 0 0)
(0.884676 0 0)
(0.887517 0 0)
(0.890331 0 0)
(0.893119 0 0)
(0.895879 0 0)
(0.898612 0 0)
(0.901317 0 0)
(0.903994 0 0)
(0.906642 0 0)
(0.909262 0 0)
(0.911853 0 0)
(0.914414 0 0)
(0.916946 0 0)
(0.919448 0 0)
(0.921919 0 0)
(0.92436 0 0)
(0.926769 0 0)
(0.929147 0 0)
(0.931494 0 0)
(0.933808 0 0)
(0.93609 0 0)
(0.938339 0 0)
(0.940554 0 0)
(0.942736 0 0)
(0.944884 0 0)
(0.946997 0 0)
(0.949076 0 0)
(0.951119 0 0)
(0.953127 0 0)
(0.955099 0 0)
(0.957034 0 0)
(0.958932 0 0)
(0.960793 0 0)
(0.962616 0 0)
(0.9644 0 0)
(0.966146 0 0)
(0.967853 0 0)
(0.96952 0 0)
(0.971146 0 0)
(0.972732 0 0)
(0.974277 0 0)
(0.97578 0 0)
(0.977241 0 0)
(0.978659 0 0)
(0.980034 0 0)
(0.981365 0 0)
(0.982652 0 0)
(0.983894 0 0)
(0.98509 0 0)
(0.98624 0 0)
(0.987344 0 0)
(0.9884 0 0)
(0.989408 0 0)
(0.990368 0 0)
(0.991279 0 0)
(0.992139 0 0)
(0.99295 0 0)
(0.993709 0 0)
(0.994416 0 0)
(0.995071 0 0)
(0.995673 0 0)
(0.996221 0 0)
(0.996714 0 0)
(0.997152 0 0)
(0.997533 0 0)
(0.997858 0 0)
(0.998125 0 0)
(0.998333 0 0)
(0.998482 0 0)
(0.998571 0 0)
(0.998599 0 0)
(0.998565 0 0)
(0.998469 0 0)
(0.998308 0 0)
(0.998083 0 0)
(0.997793 0 0)
(0.997436 0 0)
(0.997012 0 0)
(0.996519 0 0)
(0.995957 0 0)
(0.995324 0 0)
(0.99462 0 0)
(0.993844 0 0)
(0.992993 0 0)
(0.992068 0 0)
(0.991067 0 0)
(0.98999 0 0)
(0.988833 0 0)
(0.987598 0 0)
(0.986281 0 0)
(0.984883 0 0)
(0.983401 0 0)
(0.981835 0 0)
(0.980183 0 0)
(0.978444 0 0)
(0.976617 0 0)
(0.974699 0 0)
(0.972689 0 0)
(0.970587 0 0)
(0.96839 0 0)
(0.966097 0 0)
(0.963706 0 0)
(0.961216 0 0)
(0.958626 0 0)
(0.955932 0 0)
(0.953134 0 0)
(0.950231 0 0)
(0.947219 0 0)
(0.944097 0 0)
(0.940864 0 0)
(0.937518 0 0)
(0.934056 0 0)
(0.930476 0 0)
(0.926777 0 0)
(0.922956 0 0)
(0.919012 0 0)
(0.914942 0 0)
(0.910743 0 0)
(0.906414 0 0)
(0.901953 0 0)
(0.897356 0 0)
(0.892622 0 0)
(0.887748 0 0)
(0.882731 0 0)
(0.87757 0 0)
(0.87226 0 0)
(0.866801 0 0)
(0.861189 0 0)
(0.85542 0 0)
(0.849494 0 0)
(0.843405 0 0)
(0.837153 0 0)
(0.830733 0 0)
(0.824143 0 0)
(0.81738 0 0)
(0.81044 0 0)
(0.80332 0 0)
(0.796018 0 0)
(0.78853 0 0)
(0.780853 0 0)
(0.772983 0 0)
(0.764917 0 0)
(0.756652 0 0)
(0.748185 0 0)
(0.739512 0 0)
(0.730629 0 0)
(0.721534 0 0)
(0.712223 0 0)
(0.702692 0 0)
(0.692938 0 0)
(0.682959 0 0)
(0.67275 0 0)
(0.662309 0 0)
(0.651632 0 0)
(0.640716 0 0)
(0.629559 0 0)
(0.618157 0 0)
(0.606509 0 0)
(0.59461 0 0)
(0.582459 0 0)
(0.570055 0 0)
(0.557394 0 0)
(0.544476 0 0)
(0.531298 0 0)
(0.51786 0 0)
(0.504162 0 0)
(0.490202 0 0)
(0.475981 0 0)
(0.461499 0 0)
(0.446758 0 0)
(0.431758 0 0)
(0.416502 0 0)
(0.400993 0 0)
(0.385233 0 0)
(0.369226 0 0)
(0.352977 0 0)
(0.336492 0 0)
(0.319775 0 0)
(0.302834 0 0)
(0.285675 0 0)
(0.268308 0 0)
(0.250741 0 0)
(0.232983 0 0)
(0.215046 0 0)
(0.19694 0 0)
(0.178677 0 0)
(0.16027 0 0)
(0.141732 0 0)
(0.123077 0 0)
(0.104319 0 0)
(0.085473 0 0)
(0.0665548 0 0)
(0.04758 0 0)
(0.0285644 0 0)
(0.00952425 0 0)
(-0.00952405 0 0)
(-0.0285641 0 0)
(-0.0475797 0 0)
(-0.0665545 0 0)
(-0.0854725 0 0)
(-0.104318 0 0)
(-0.123076 0 0)
(-0.141731 0 0)
(-0.160269 0 0)
(-0.178676 0 0)
(-0.196938 0 0)
(-0.215044 0 0)
(-0.232981 0 0)
(-0.250739 0 0)
(-0.268306 0 0)
(-0.285673 0 0)
(-0.302831 0 0)
(-0.319772 0 0)
(-0.336488 0 0)
(-0.352974 0 0)
(-0.369222 0 0)
(-0.385229 0 0)
(-0.400988 0 0)
(-0.416498 0 0)
(-0.431753 0 0)
(-0.446753 0 0)
(-0.461494 0 0)
(-0.475976 0 0)
(-0.490196 0 0)
(-0.504156 0 0)
(-0.517855 0 0)
(-0.531292 0 0)
(-0.54447 0 0)
(-0.557388 0 0)
(-0.570049 0 0)
(-0.582453 0 0)
(-0.594604 0 0)
(-0.606503 0 0)
(-0.618151 0 0)
(-0.629553 0 0)
(-0.64071 0 0)
(-0.651626 0 0)
(-0.662303 0 0)
(-0.672744 0 0)
(-0.682953 0 0)
(-0.692933 0 0)
(-0.702686 0 0)
(-0.712217 0 0)
(-0.721528 0 0)
(-0.730624 0 0)
(-0.739506 0 0)
(-0.74818 0 0)
(-0.756647 0 0)
(-0.764912 0 0)
(-0.772978 0 0)
(-0.780848 0 0)
(-0.788525 0 0)
(-0.796014 0 0)
(-0.803316 0 0)
(-0.810435 0 0)
(-0.817375 0 0)
(-0.824139 0 0)
(-0.830729 0 0)
(-0.837149 0 0)
(-0.843402 0 0)
(-0.84949 0 0)
(-0.855417 0 0)
(-0.861185 0 0)
(-0.866798 0 0)
(-0.872257 0 0)
(-0.877567 0 0)
(-0.882728 0 0)
(-0.887745 0 0)
(-0.892619 0 0)
(-0.897353 0 0)
(-0.90195 0 0)
(-0.906412 0 0)
(-0.910741 0 0)
(-0.914939 0 0)
(-0.91901 0 0)
(-0.922954 0 0)
(-0.926775 0 0)
(-0.930474 0 0)
(-0.934054 0 0)
(-0.937516 0 0)
(-0.940863 0 0)
(-0.944096 0 0)
(-0.947218 0 0)
(-0.950229 0 0)
(-0.953133 0 0)
(-0.955931 0 0)
(-0.958625 0 0)
(-0.961216 0 0)
(-0.963705 0 0)
(-0.966096 0 0)
(-0.968389 0 0)
(-0.970586 0 0)
(-0.972689 0 0)
(-0.974698 0 0)
(-0.976616 0 0)
(-0.978444 0 0)
(-0.980183 0 0)
(-0.981835 0 0)
(-0.983401 0 0)
(-0.984883 0 0)
(-0.986281 0 0)
(-0.987597 0 0)
(-0.988833 0 0)
(-0.989989 0 0)
(-0.991067 0 0)
(-0.992068 0 0)
(-0.992993 0 0)
(-0.993844 0 0)
(-0.99462 0 0)
(-0.995324 0 0)
(-0.995957 0 0)
(-0.996519 0 0)
(-0.997012 0 0)
(-0.997436 0 0)
(-0.997793 0 0)
(-0.998083 0 0)
(-0.998308 0 0)
(-0.998469 0 0)
(-0.998565 0 0)
(-0.998599 0 0)
(-0.998571 0 0)
(-0.998482 0 0)
(-0.998333 0 0)
(-0.998125 0 0)
(-0.997858 0 0)
(-0.997533 0 0)
(-0.997152 0 0)
(-0.996714 0 0)
(-0.996221 0 0)
(-0.995673 0 0)
(-0.995071 0 0)
(-0.994416 0 0)
(-0.993709 0 0)
(-0.99295 0 0)
(-0.992139 0 0)
(-0.991278 0 0)
(-0.990368 0 0)
(-0.989408 0 0)
(-0.9884 0 0)
(-0.987343 0 0)
(-0.98624 0 0)
(-0.98509 0 0)
(-0.983894 0 0)
(-0.982652 0 0)
(-0.981365 0 0)
(-0.980034 0 0)
(-0.978659 0 0)
(-0.977241 0 0)
(-0.97578 0 0)
(-0.974277 0 0)
(-0.972732 0 0)
(-0.971146 0 0)
(-0.969519 0 0)
(-0.967852 0 0)
(-0.966146 0 0)
(-0.9644 0 0)
(-0.962615 0 0)
(-0.960792 0 0)
(-0.958931 0 0)
(-0.957033 0 0)
(-0.955098 0 0)
(-0.953126 0 0)
(-0.951119 0 0)
(-0.949075 0 0)
(-0.946997 0 0)
(-0.944883 0 0)
(-0.942735 0 0)
(-0.940553 0 0)
(-0.938338 0 0)
(-0.936089 0 0)
(-0.933807 0 0)
(-0.931493 0 0)
(-0.929147 0 0)
(-0.926768 0 0)
(-0.924359 0 0)
(-0.921918 0 0)
(-0.919447 0 0)
(-0.916945 0 0)
(-0.914413 0 0)
(-0.911852 0 0)
(-0.909261 0 0)
(-0.906641 0 0)
(-0.903993 0 0)
(-0.901316 0 0)
(-0.898611 0 0)
(-0.895878 0 0)
(-0.893117 0 0)
(-0.89033 0 0)
(-0.887516 0 0)
(-0.884675 0 0)
(-0.881807 0 0)
(-0.878914 0 0)
(-0.875995 0 0)
(-0.87305 0 0)
(-0.870081 0 0)
(-0.867086 0 0)
(-0.864067 0 0)
(-0.861023 0 0)
(-0.857955 0 0)
(-0.854864 0 0)
(-0.851748 0 0)
(-0.84861 0 0)
(-0.845448 0 0)
(-0.842263 0 0)
(-0.839056 0 0)
(-0.835826 0 0)
(-0.832574 0 0)
(-0.8293 0 0)
(-0.826005 0 0)
(-0.822688 0 0)
(-0.81935 0 0)
(-0.81599 0 0)
(-0.81261 0 0)
(-0.80921 0 0)
(-0.805789 0 0)
(-0.802347 0 0)
(-0.798886 0 0)
(-0.795405 0 0)
(-0.791905 0 0)
(-0.788385 0 0)
(-0.784846 0 0)
(-0.781288 0 0)
(-0.777712 0 0)
(-0.774116 0 0)
(-0.770503 0 0)
(-0.766871 0 0)
(-0.763222 0 0)
(-0.759554 0 0)
(-0.755869 0 0)
(-0.752166 0 0)
(-0.748447 0 0)
(-0.74471 0 0)
(-0.740956 0 0)
(-0.737186 0 0)
(-0.733399 0 0)
(-0.729595 0 0)
(-0.725776 0 0)
(-0.72194 0 0)
(-0.718089 0 0)
(-0.714221 0 0)
(-0.710339 0 0)
(-0.70644 0 0)
(-0.702527 0 0)
(-0.698599 0 0)
(-0.694655 0 0)
(-0.690697 0 0)
(-0.686724 0 0)
(-0.682737 0 0)
(-0.678736 0 0)
(-0.67472 0 0)
(-0.67069 0 0)
(-0.666647 0 0)
(-0.66259 0 0)
(-0.658519 0 0)
(-0.654435 0 0)
(-0.650337 0 0)
(-0.646227 0 0)
(-0.642103 0 0)
(-0.637967 0 0)
(-0.633817 0 0)
(-0.629656 0 0)
(-0.625481 0 0)
(-0.621295 0 0)
(-0.617096 0 0)
(-0.612885 0 0)
(-0.608662 0 0)
(-0.604428 0 0)
(-0.600182 0 0)
(-0.595924 0 0)
(-0.591655 0 0)
(-0.587374 0 0)
(-0.583082 0 0)
(-0.57878 0 0)
(-0.574466 0 0)
(-0.570142 0 0)
(-0.565806 0 0)
(-0.561461 0 0)
(-0.557104 0 0)
(-0.552738 0 0)
(-0.548361 0 0)
(-0.543974 0 0)
(-0.539577 0 0)
(-0.535171 0 0)
(-0.530754 0 0)
(-0.526328 0 0)
(-0.521893 0 0)
(-0.517447 0 0)
(-0.512993 0 0)
(-0.508529 0 0)
(-0.504057 0 0)
(-0.499575 0 0)
(-0.495085 0 0)
(-0.490585 0 0)
(-0.486077 0 0)
(-0.481561 0 0)
(-0.477036 0 0)
(-0.472502 0 0)
(-0.46796 0 0)
(-0.463411 0 0)
(-0.458853 0 0)
(-0.454287 0 0)
(-0.449713 0 0)
(-0.445132 0 0)
(-0.440543 0 0)
(-0.435946 0 0)
(-0.431342 0 0)
(-0.426731 0 0)
(-0.422112 0 0)
(-0.417486 0 0)
(-0.412853 0 0)
(-0.408214 0 0)
(-0.403567 0 0)
(-0.398913 0 0)
(-0.394253 0 0)
(-0.389586 0 0)
(-0.384913 0 0)
(-0.380233 0 0)
(-0.375547 0 0)
(-0.370855 0 0)
(-0.366156 0 0)
(-0.361452 0 0)
(-0.356742 0 0)
(-0.352025 0 0)
(-0.347303 0 0)
(-0.342576 0 0)
(-0.337842 0 0)
(-0.333103 0 0)
(-0.328359 0 0)
(-0.323609 0 0)
(-0.318855 0 0)
(-0.314095 0 0)
(-0.30933 0 0)
(-0.304559 0 0)
(-0.299784 0 0)
(-0.295005 0 0)
(-0.29022 0 0)
(-0.285431 0 0)
(-0.280637 0 0)
(-0.275839 0 0)
(-0.271036 0 0)
(-0.266229 0 0)
(-0.261418 0 0)
(-0.256603 0 0)
(-0.251784 0 0)
(-0.24696 0 0)
(-0.242133 0 0)
(-0.237302 0 0)
(-0.232467 0 0)
(-0.227629 0 0)
(-0.222786 0 0)
(-0.217941 0 0)
(-0.213092 0 0)
(-0.20824 0 0)
(-0.203384 0 0)
(-0.198525 0 0)
(-0.193663 0 0)
(-0.188798 0 0)
(-0.183931 0 0)
(-0.17906 0 0)
(-0.174187 0 0)
(-0.16931 0 0)
(-0.164432 0 0)
(-0.15955 0 0)
(-0.154666 0 0)
(-0.14978 0 0)
(-0.144892 0 0)
(-0.140001 0 0)
(-0.135108 0 0)
(-0.130213 0 0)
(-0.125316 0 0)
(-0.120417 0 0)
(-0.115516 0 0)
(-0.110614 0 0)
(-0.105709 0 0)
(-0.100803 0 0)
(-0.0958961 0 0)
(-0.0909871 0 0)
(-0.0860768 0 0)
(-0.0811652 0 0)
(-0.0762523 0 0)
(-0.0713383 0 0)
(-0.0664231 0 0)
(-0.061507 0 0)
(-0.0565899 0 0)
(-0.0516719 0 0)
(-0.0467532 0 0)
(-0.0418337 0 0)
(-0.0369136 0 0)
(-0.0319929 0 0)
(-0.0270718 0 0)
(-0.0221502 0 0)
(-0.0172283 0 0)
(-0.0123061 0 0)
(-0.00738373 0 0)
(-0.00246126 0 0)
)
;

boundaryField
{
    left
    {
        type            fixedValue;
        value           uniform (0 0 0);
    }
    right
    {
        type            fixedValue;
        value           uniform (0 0 0);
    }
    frontBackUpDown
    {
        type            empty;
    }
}


// ************************************************************************* //
