/*--------------------------------*- C++ -*----------------------------------*\
| =========                 |                                                 |
| \\      /  F ield         | OpenFOAM: The Open Source CFD Toolbox           |
|  \\    /   O peration     | Version:  2412                                  |
|   \\  /    A nd           | Website:  www.openfoam.com                      |
|    \\/     M anipulation  |                                                 |
\*---------------------------------------------------------------------------*/
FoamFile
{
    version     2.0;
    format      ascii;
    arch        "LSB;label=32;scalar=64";
    class       volVectorField;
    location    "0.19";
    object      U_0_0_0;
}
// * * * * * * * * * * * * * * * * * * * * * * * * * * * * * * * * * * * * * //

dimensions      [0 1 -1 0 0 0 0];

internalField   nonuniform List<vector> 
800
(
(0.00246606 0 0)
(0.00739824 0 0)
(0.0123303 0 0)
(0.0172622 0 0)
(0.0221938 0 0)
(0.0271251 0 0)
(0.032056 0 0)
(0.0369863 0 0)
(0.0419161 0 0)
(0.0468453 0 0)
(0.0517737 0 0)
(0.0567013 0 0)
(0.0616281 0 0)
(0.0665539 0 0)
(0.0714787 0 0)
(0.0764024 0 0)
(0.0813249 0 0)
(0.0862462 0 0)
(0.0911661 0 0)
(0.0960846 0 0)
(0.101002 0 0)
(0.105917 0 0)
(0.110831 0 0)
(0.115743 0 0)
(0.120653 0 0)
(0.125562 0 0)
(0.130468 0 0)
(0.135373 0 0)
(0.140275 0 0)
(0.145176 0 0)
(0.150074 0 0)
(0.154969 0 0)
(0.159862 0 0)
(0.164753 0 0)
(0.169641 0 0)
(0.174527 0 0)
(0.17941 0 0)
(0.18429 0 0)
(0.189167 0 0)
(0.194041 0 0)
(0.198912 0 0)
(0.20378 0 0)
(0.208645 0 0)
(0.213506 0 0)
(0.218364 0 0)
(0.223219 0 0)
(0.22807 0 0)
(0.232918 0 0)
(0.237762 0 0)
(0.242602 0 0)
(0.247438 0 0)
(0.25227 0 0)
(0.257098 0 0)
(0.261923 0 0)
(0.266743 0 0)
(0.271558 0 0)
(0.27637 0 0)
(0.281177 0 0)
(0.285979 0 0)
(0.290777 0 0)
(0.29557 0 0)
(0.300359 0 0)
(0.305142 0 0)
(0.309921 0 0)
(0.314694 0 0)
(0.319463 0 0)
(0.324226 0 0)
(0.328984 0 0)
(0.333736 0 0)
(0.338484 0 0)
(0.343225 0 0)
(0.347961 0 0)
(0.352691 0 0)
(0.357416 0 0)
(0.362134 0 0)
(0.366847 0 0)
(0.371553 0 0)
(0.376253 0 0)
(0.380947 0 0)
(0.385635 0 0)
(0.390316 0 0)
(0.39499 0 0)
(0.399658 0 0)
(0.404319 0 0)
(0.408973 0 0)
(0.413621 0 0)
(0.418261 0 0)
(0.422894 0 0)
(0.42752 0 0)
(0.432139 0 0)
(0.43675 0 0)
(0.441354 0 0)
(0.44595 0 0)
(0.450539 0 0)
(0.455119 0 0)
(0.459692 0 0)
(0.464257 0 0)
(0.468814 0 0)
(0.473362 0 0)
(0.477902 0 0)
(0.482434 0 0)
(0.486957 0 0)
(0.491471 0 0)
(0.495977 0 0)
(0.500474 0 0)
(0.504962 0 0)
(0.509441 0 0)
(0.51391 0 0)
(0.518371 0 0)
(0.522822 0 0)
(0.527263 0 0)
(0.531695 0 0)
(0.536118 0 0)
(0.54053 0 0)
(0.544932 0 0)
(0.549325 0 0)
(0.553707 0 0)
(0.558079 0 0)
(0.56244 0 0)
(0.566791 0 0)
(0.571132 0 0)
(0.575461 0 0)
(0.57978 0 0)
(0.584087 0 0)
(0.588384 0 0)
(0.592669 0 0)
(0.596943 0 0)
(0.601205 0 0)
(0.605456 0 0)
(0.609695 0 0)
(0.613922 0 0)
(0.618137 0 0)
(0.62234 0 0)
(0.62653 0 0)
(0.630708 0 0)
(0.634874 0 0)
(0.639027 0 0)
(0.643167 0 0)
(0.647294 0 0)
(0.651408 0 0)
(0.655509 0 0)
(0.659596 0 0)
(0.66367 0 0)
(0.66773 0 0)
(0.671776 0 0)
(0.675809 0 0)
(0.679827 0 0)
(0.683831 0 0)
(0.687821 0 0)
(0.691796 0 0)
(0.695756 0 0)
(0.699701 0 0)
(0.703632 0 0)
(0.707547 0 0)
(0.711447 0 0)
(0.715331 0 0)
(0.7192 0 0)
(0.723053 0 0)
(0.72689 0 0)
(0.730711 0 0)
(0.734515 0 0)
(0.738303 0 0)
(0.742074 0 0)
(0.745829 0 0)
(0.749566 0 0)
(0.753286 0 0)
(0.756989 0 0)
(0.760674 0 0)
(0.764342 0 0)
(0.767991 0 0)
(0.771623 0 0)
(0.775236 0 0)
(0.77883 0 0)
(0.782406 0 0)
(0.785963 0 0)
(0.789501 0 0)
(0.79302 0 0)
(0.796519 0 0)
(0.799999 0 0)
(0.803458 0 0)
(0.806898 0 0)
(0.810317 0 0)
(0.813715 0 0)
(0.817093 0 0)
(0.82045 0 0)
(0.823786 0 0)
(0.8271 0 0)
(0.830393 0 0)
(0.833664 0 0)
(0.836913 0 0)
(0.840139 0 0)
(0.843343 0 0)
(0.846524 0 0)
(0.849682 0 0)
(0.852817 0 0)
(0.855928 0 0)
(0.859015 0 0)
(0.862078 0 0)
(0.865117 0 0)
(0.868132 0 0)
(0.871121 0 0)
(0.874086 0 0)
(0.877025 0 0)
(0.879938 0 0)
(0.882826 0 0)
(0.885687 0 0)
(0.888522 0 0)
(0.89133 0 0)
(0.894111 0 0)
(0.896865 0 0)
(0.899591 0 0)
(0.902288 0 0)
(0.904958 0 0)
(0.907599 0 0)
(0.910211 0 0)
(0.912794 0 0)
(0.915347 0 0)
(0.917871 0 0)
(0.920364 0 0)
(0.922826 0 0)
(0.925258 0 0)
(0.927658 0 0)
(0.930027 0 0)
(0.932363 0 0)
(0.934668 0 0)
(0.936939 0 0)
(0.939178 0 0)
(0.941383 0 0)
(0.943554 0 0)
(0.945691 0 0)
(0.947793 0 0)
(0.94986 0 0)
(0.951891 0 0)
(0.953887 0 0)
(0.955846 0 0)
(0.957769 0 0)
(0.959654 0 0)
(0.961502 0 0)
(0.963311 0 0)
(0.965082 0 0)
(0.966815 0 0)
(0.968507 0 0)
(0.97016 0 0)
(0.971772 0 0)
(0.973343 0 0)
(0.974872 0 0)
(0.97636 0 0)
(0.977805 0 0)
(0.979208 0 0)
(0.980566 0 0)
(0.981881 0 0)
(0.98315 0 0)
(0.984375 0 0)
(0.985554 0 0)
(0.986686 0 0)
(0.987772 0 0)
(0.98881 0 0)
(0.989799 0 0)
(0.99074 0 0)
(0.991631 0 0)
(0.992473 0 0)
(0.993263 0 0)
(0.994002 0 0)
(0.994689 0 0)
(0.995323 0 0)
(0.995904 0 0)
(0.99643 0 0)
(0.996901 0 0)
(0.997317 0 0)
(0.997676 0 0)
(0.997978 0 0)
(0.998222 0 0)
(0.998407 0 0)
(0.998532 0 0)
(0.998597 0 0)
(0.998601 0 0)
(0.998542 0 0)
(0.99842 0 0)
(0.998234 0 0)
(0.997983 0 0)
(0.997667 0 0)
(0.997283 0 0)
(0.996832 0 0)
(0.996312 0 0)
(0.995722 0 0)
(0.995062 0 0)
(0.994329 0 0)
(0.993524 0 0)
(0.992645 0 0)
(0.99169 0 0)
(0.99066 0 0)
(0.989552 0 0)
(0.988365 0 0)
(0.987098 0 0)
(0.985751 0 0)
(0.984321 0 0)
(0.982808 0 0)
(0.981209 0 0)
(0.979525 0 0)
(0.977752 0 0)
(0.975891 0 0)
(0.97394 0 0)
(0.971896 0 0)
(0.969759 0 0)
(0.967528 0 0)
(0.9652 0 0)
(0.962774 0 0)
(0.960248 0 0)
(0.957621 0 0)
(0.954891 0 0)
(0.952057 0 0)
(0.949116 0 0)
(0.946067 0 0)
(0.942908 0 0)
(0.939637 0 0)
(0.936253 0 0)
(0.932752 0 0)
(0.929134 0 0)
(0.925396 0 0)
(0.921536 0 0)
(0.917553 0 0)
(0.913443 0 0)
(0.909205 0 0)
(0.904836 0 0)
(0.900335 0 0)
(0.895698 0 0)
(0.890924 0 0)
(0.88601 0 0)
(0.880953 0 0)
(0.875751 0 0)
(0.870402 0 0)
(0.864903 0 0)
(0.85925 0 0)
(0.853442 0 0)
(0.847476 0 0)
(0.841348 0 0)
(0.835057 0 0)
(0.828598 0 0)
(0.821969 0 0)
(0.815168 0 0)
(0.80819 0 0)
(0.801034 0 0)
(0.793695 0 0)
(0.786171 0 0)
(0.778458 0 0)
(0.770554 0 0)
(0.762455 0 0)
(0.754157 0 0)
(0.745658 0 0)
(0.736954 0 0)
(0.728043 0 0)
(0.71892 0 0)
(0.709582 0 0)
(0.700026 0 0)
(0.69025 0 0)
(0.680249 0 0)
(0.67002 0 0)
(0.659561 0 0)
(0.648869 0 0)
(0.63794 0 0)
(0.626772 0 0)
(0.615362 0 0)
(0.603708 0 0)
(0.591807 0 0)
(0.579657 0 0)
(0.567256 0 0)
(0.554603 0 0)
(0.541695 0 0)
(0.528532 0 0)
(0.515113 0 0)
(0.501437 0 0)
(0.487503 0 0)
(0.473313 0 0)
(0.458867 0 0)
(0.444166 0 0)
(0.429211 0 0)
(0.414005 0 0)
(0.39855 0 0)
(0.38285 0 0)
(0.366908 0 0)
(0.350729 0 0)
(0.334319 0 0)
(0.317682 0 0)
(0.300827 0 0)
(0.283759 0 0)
(0.266488 0 0)
(0.249021 0 0)
(0.231369 0 0)
(0.213542 0 0)
(0.195551 0 0)
(0.177407 0 0)
(0.159122 0 0)
(0.14071 0 0)
(0.122184 0 0)
(0.103559 0 0)
(0.0848478 0 0)
(0.0660664 0 0)
(0.0472299 0 0)
(0.0283539 0 0)
(0.009454 0 0)
(-0.00945381 0 0)
(-0.0283536 0 0)
(-0.0472296 0 0)
(-0.0660661 0 0)
(-0.0848473 0 0)
(-0.103558 0 0)
(-0.122184 0 0)
(-0.140709 0 0)
(-0.159121 0 0)
(-0.177405 0 0)
(-0.195549 0 0)
(-0.213541 0 0)
(-0.231368 0 0)
(-0.249019 0 0)
(-0.266485 0 0)
(-0.283757 0 0)
(-0.300824 0 0)
(-0.317679 0 0)
(-0.334315 0 0)
(-0.350725 0 0)
(-0.366904 0 0)
(-0.382845 0 0)
(-0.398546 0 0)
(-0.414 0 0)
(-0.429206 0 0)
(-0.444161 0 0)
(-0.458862 0 0)
(-0.473308 0 0)
(-0.487498 0 0)
(-0.501431 0 0)
(-0.515107 0 0)
(-0.528527 0 0)
(-0.54169 0 0)
(-0.554597 0 0)
(-0.567251 0 0)
(-0.579651 0 0)
(-0.591801 0 0)
(-0.603702 0 0)
(-0.615356 0 0)
(-0.626766 0 0)
(-0.637934 0 0)
(-0.648863 0 0)
(-0.659555 0 0)
(-0.670014 0 0)
(-0.680243 0 0)
(-0.690244 0 0)
(-0.700021 0 0)
(-0.709576 0 0)
(-0.718914 0 0)
(-0.728037 0 0)
(-0.736949 0 0)
(-0.745653 0 0)
(-0.754152 0 0)
(-0.76245 0 0)
(-0.770549 0 0)
(-0.778453 0 0)
(-0.786166 0 0)
(-0.79369 0 0)
(-0.801029 0 0)
(-0.808186 0 0)
(-0.815163 0 0)
(-0.821965 0 0)
(-0.828594 0 0)
(-0.835053 0 0)
(-0.841345 0 0)
(-0.847472 0 0)
(-0.853439 0 0)
(-0.859247 0 0)
(-0.864899 0 0)
(-0.870399 0 0)
(-0.875748 0 0)
(-0.88095 0 0)
(-0.886007 0 0)
(-0.890921 0 0)
(-0.895696 0 0)
(-0.900332 0 0)
(-0.904834 0 0)
(-0.909203 0 0)
(-0.913441 0 0)
(-0.917551 0 0)
(-0.921534 0 0)
(-0.925394 0 0)
(-0.929132 0 0)
(-0.93275 0 0)
(-0.936251 0 0)
(-0.939636 0 0)
(-0.942907 0 0)
(-0.946066 0 0)
(-0.949115 0 0)
(-0.952056 0 0)
(-0.95489 0 0)
(-0.95762 0 0)
(-0.960247 0 0)
(-0.962773 0 0)
(-0.965199 0 0)
(-0.967527 0 0)
(-0.969759 0 0)
(-0.971896 0 0)
(-0.973939 0 0)
(-0.975891 0 0)
(-0.977752 0 0)
(-0.979524 0 0)
(-0.981209 0 0)
(-0.982807 0 0)
(-0.984321 0 0)
(-0.985751 0 0)
(-0.987098 0 0)
(-0.988365 0 0)
(-0.989551 0 0)
(-0.99066 0 0)
(-0.99169 0 0)
(-0.992645 0 0)
(-0.993524 0 0)
(-0.994329 0 0)
(-0.995062 0 0)
(-0.995722 0 0)
(-0.996312 0 0)
(-0.996832 0 0)
(-0.997283 0 0)
(-0.997667 0 0)
(-0.997983 0 0)
(-0.998234 0 0)
(-0.99842 0 0)
(-0.998542 0 0)
(-0.998601 0 0)
(-0.998597 0 0)
(-0.998532 0 0)
(-0.998407 0 0)
(-0.998222 0 0)
(-0.997978 0 0)
(-0.997676 0 0)
(-0.997317 0 0)
(-0.996901 0 0)
(-0.99643 0 0)
(-0.995904 0 0)
(-0.995323 0 0)
(-0.994689 0 0)
(-0.994002 0 0)
(-0.993263 0 0)
(-0.992473 0 0)
(-0.991631 0 0)
(-0.99074 0 0)
(-0.989799 0 0)
(-0.988809 0 0)
(-0.987772 0 0)
(-0.986686 0 0)
(-0.985554 0 0)
(-0.984375 0 0)
(-0.98315 0 0)
(-0.98188 0 0)
(-0.980566 0 0)
(-0.979207 0 0)
(-0.977805 0 0)
(-0.97636 0 0)
(-0.974872 0 0)
(-0.973342 0 0)
(-0.971771 0 0)
(-0.970159 0 0)
(-0.968507 0 0)
(-0.966814 0 0)
(-0.965082 0 0)
(-0.963311 0 0)
(-0.961501 0 0)
(-0.959654 0 0)
(-0.957768 0 0)
(-0.955846 0 0)
(-0.953886 0 0)
(-0.951891 0 0)
(-0.949859 0 0)
(-0.947792 0 0)
(-0.94569 0 0)
(-0.943553 0 0)
(-0.941382 0 0)
(-0.939177 0 0)
(-0.936939 0 0)
(-0.934667 0 0)
(-0.932363 0 0)
(-0.930026 0 0)
(-0.927657 0 0)
(-0.925257 0 0)
(-0.922825 0 0)
(-0.920363 0 0)
(-0.91787 0 0)
(-0.915346 0 0)
(-0.912793 0 0)
(-0.91021 0 0)
(-0.907598 0 0)
(-0.904957 0 0)
(-0.902287 0 0)
(-0.899589 0 0)
(-0.896863 0 0)
(-0.89411 0 0)
(-0.891329 0 0)
(-0.888521 0 0)
(-0.885686 0 0)
(-0.882825 0 0)
(-0.879937 0 0)
(-0.877024 0 0)
(-0.874085 0 0)
(-0.87112 0 0)
(-0.86813 0 0)
(-0.865116 0 0)
(-0.862077 0 0)
(-0.859014 0 0)
(-0.855926 0 0)
(-0.852815 0 0)
(-0.84968 0 0)
(-0.846522 0 0)
(-0.843341 0 0)
(-0.840138 0 0)
(-0.836911 0 0)
(-0.833662 0 0)
(-0.830392 0 0)
(-0.827099 0 0)
(-0.823785 0 0)
(-0.820449 0 0)
(-0.817092 0 0)
(-0.813714 0 0)
(-0.810315 0 0)
(-0.806896 0 0)
(-0.803457 0 0)
(-0.799997 0 0)
(-0.796518 0 0)
(-0.793018 0 0)
(-0.7895 0 0)
(-0.785962 0 0)
(-0.782405 0 0)
(-0.778829 0 0)
(-0.775234 0 0)
(-0.771621 0 0)
(-0.76799 0 0)
(-0.76434 0 0)
(-0.760673 0 0)
(-0.756987 0 0)
(-0.753285 0 0)
(-0.749564 0 0)
(-0.745827 0 0)
(-0.742073 0 0)
(-0.738301 0 0)
(-0.734514 0 0)
(-0.730709 0 0)
(-0.726888 0 0)
(-0.723052 0 0)
(-0.719199 0 0)
(-0.71533 0 0)
(-0.711446 0 0)
(-0.707546 0 0)
(-0.70363 0 0)
(-0.6997 0 0)
(-0.695755 0 0)
(-0.691794 0 0)
(-0.687819 0 0)
(-0.68383 0 0)
(-0.679826 0 0)
(-0.675807 0 0)
(-0.671775 0 0)
(-0.667729 0 0)
(-0.663668 0 0)
(-0.659595 0 0)
(-0.655507 0 0)
(-0.651407 0 0)
(-0.647293 0 0)
(-0.643165 0 0)
(-0.639025 0 0)
(-0.634873 0 0)
(-0.630707 0 0)
(-0.626529 0 0)
(-0.622338 0 0)
(-0.618135 0 0)
(-0.613921 0 0)
(-0.609693 0 0)
(-0.605455 0 0)
(-0.601204 0 0)
(-0.596942 0 0)
(-0.592668 0 0)
(-0.588383 0 0)
(-0.584086 0 0)
(-0.579779 0 0)
(-0.57546 0 0)
(-0.57113 0 0)
(-0.56679 0 0)
(-0.562439 0 0)
(-0.558078 0 0)
(-0.553706 0 0)
(-0.549324 0 0)
(-0.544931 0 0)
(-0.540529 0 0)
(-0.536117 0 0)
(-0.531694 0 0)
(-0.527262 0 0)
(-0.522821 0 0)
(-0.51837 0 0)
(-0.513909 0 0)
(-0.50944 0 0)
(-0.504961 0 0)
(-0.500473 0 0)
(-0.495976 0 0)
(-0.49147 0 0)
(-0.486956 0 0)
(-0.482433 0 0)
(-0.477901 0 0)
(-0.473361 0 0)
(-0.468813 0 0)
(-0.464256 0 0)
(-0.459691 0 0)
(-0.455119 0 0)
(-0.450538 0 0)
(-0.44595 0 0)
(-0.441353 0 0)
(-0.43675 0 0)
(-0.432138 0 0)
(-0.42752 0 0)
(-0.422894 0 0)
(-0.41826 0 0)
(-0.41362 0 0)
(-0.408973 0 0)
(-0.404318 0 0)
(-0.399657 0 0)
(-0.394989 0 0)
(-0.390315 0 0)
(-0.385634 0 0)
(-0.380946 0 0)
(-0.376252 0 0)
(-0.371552 0 0)
(-0.366846 0 0)
(-0.362134 0 0)
(-0.357415 0 0)
(-0.352691 0 0)
(-0.347961 0 0)
(-0.343225 0 0)
(-0.338483 0 0)
(-0.333736 0 0)
(-0.328983 0 0)
(-0.324225 0 0)
(-0.319462 0 0)
(-0.314694 0 0)
(-0.30992 0 0)
(-0.305142 0 0)
(-0.300358 0 0)
(-0.29557 0 0)
(-0.290777 0 0)
(-0.285979 0 0)
(-0.281176 0 0)
(-0.276369 0 0)
(-0.271558 0 0)
(-0.266742 0 0)
(-0.261922 0 0)
(-0.257098 0 0)
(-0.25227 0 0)
(-0.247438 0 0)
(-0.242601 0 0)
(-0.237761 0 0)
(-0.232917 0 0)
(-0.22807 0 0)
(-0.223219 0 0)
(-0.218364 0 0)
(-0.213506 0 0)
(-0.208644 0 0)
(-0.20378 0 0)
(-0.198912 0 0)
(-0.194041 0 0)
(-0.189166 0 0)
(-0.184289 0 0)
(-0.179409 0 0)
(-0.174527 0 0)
(-0.169641 0 0)
(-0.164753 0 0)
(-0.159862 0 0)
(-0.154969 0 0)
(-0.150073 0 0)
(-0.145175 0 0)
(-0.140275 0 0)
(-0.135373 0 0)
(-0.130468 0 0)
(-0.125562 0 0)
(-0.120653 0 0)
(-0.115743 0 0)
(-0.110831 0 0)
(-0.105917 0 0)
(-0.101002 0 0)
(-0.0960846 0 0)
(-0.0911661 0 0)
(-0.0862461 0 0)
(-0.0813249 0 0)
(-0.0764024 0 0)
(-0.0714787 0 0)
(-0.0665539 0 0)
(-0.0616281 0 0)
(-0.0567013 0 0)
(-0.0517737 0 0)
(-0.0468453 0 0)
(-0.0419161 0 0)
(-0.0369863 0 0)
(-0.032056 0 0)
(-0.0271251 0 0)
(-0.0221939 0 0)
(-0.0172622 0 0)
(-0.0123304 0 0)
(-0.00739829 0 0)
(-0.00246611 0 0)
)
;

boundaryField
{
    left
    {
        type            fixedValue;
        value           uniform (0 0 0);
    }
    right
    {
        type            fixedValue;
        value           uniform (0 0 0);
    }
    frontBackUpDown
    {
        type            empty;
    }
}


// ************************************************************************* //
