/*--------------------------------*- C++ -*----------------------------------*\
| =========                 |                                                 |
| \\      /  F ield         | OpenFOAM: The Open Source CFD Toolbox           |
|  \\    /   O peration     | Version:  2412                                  |
|   \\  /    A nd           | Website:  www.openfoam.com                      |
|    \\/     M anipulation  |                                                 |
\*---------------------------------------------------------------------------*/
FoamFile
{
    version     2.0;
    format      ascii;
    arch        "LSB;label=32;scalar=64";
    class       volScalarField;
    location    "0";
    object      T;
}
// * * * * * * * * * * * * * * * * * * * * * * * * * * * * * * * * * * * * * //

dimensions      [0 0 0 1 0 0 0];

internalField   nonuniform List<scalar> 
4000
(
1.291995828857382e-14
1.344689561227141e-14
1.399497406649512e-14
1.45650273749329e-14
1.515792155029006e-14
1.577455612114592e-14
1.641586540449267e-14
1.708281982562271e-14
1.777642728708571e-14
1.849773458850498e-14
1.924782889909766e-14
2.002783928481705e-14
2.083893829209752e-14
2.168234359025582e-14
2.255931967467364e-14
2.347117963296476e-14
2.441928697640057e-14
2.540505753896044e-14
2.642996144644141e-14
2.749552515816564e-14
2.860333358389185e-14
2.975503227865433e-14
3.095232971832232e-14
3.219699965879454e-14
3.349088358182791e-14
3.483589323061734e-14
3.623401323834322e-14
3.768730385302551e-14
3.919790376213003e-14
4.076803302050311e-14
4.23999960853258e-14
4.409618496191971e-14
4.585908246435416e-14
4.769126559496338e-14
4.959540904699977e-14
5.15742888348233e-14
5.363078605615766e-14
5.576789079111567e-14
5.798870614284975e-14
6.029645242486604e-14
6.269447150019135e-14
6.518623127779269e-14
6.777533037180189e-14
7.046550292932923e-14
7.326062363280101e-14
7.616471288301831e-14
7.918194216928401e-14
8.231663963323318e-14
8.557329583315552e-14
8.895656971591012e-14
9.247129480370115e-14
9.612248560329469e-14
9.991534424547949e-14
1.038552673628513e-13
1.079478532142851e-13
1.121989090647426e-13
1.166144588293349e-13
1.212007509909148e-13
1.259642668007298e-13
1.309117287720466e-13
1.360501094769527e-13
1.413866406569062e-13
1.469288226579815e-13
1.526844342020875e-13
1.586615425058618e-13
1.64868513759309e-13
1.713140239766848e-13
1.780070702325233e-13
1.849569822961751e-13
1.921734346786382e-13
1.996664591059557e-13
2.074464574339409e-13
2.155242150194427e-13
2.239109145639279e-13
2.326181504456847e-13
2.41657943557432e-13
2.510427566667903e-13
2.607855103175426e-13
2.708995992903363e-13
2.81398909641946e-13
2.922978363430447e-13
3.036113015349092e-13
3.15354773426332e-13
3.27544285852571e-13
3.401964585190586e-13
3.533285179531609e-13
3.669583191882556e-13
3.811043682049991e-13
3.957858451556855e-13
4.110226283982417e-13
4.268353193675101e-13
4.432452683121647e-13
4.602746009267526e-13
4.779462459091097e-13
4.96283963474665e-13
5.15312374859862e-13
5.350569928483269e-13
5.55544253354226e-13
5.768015480986391e-13
5.988572584156947e-13
6.21740790226706e-13
6.454826102215303e-13
6.701142832878628e-13
6.956685112303859e-13
7.221791728231441e-13
7.496813652398329e-13
7.782114469083233e-13
8.078070818370344e-13
8.385072854625171e-13
8.703524720690297e-13
9.033845038328174e-13
9.376467415450966e-13
9.731840970700211e-13
1.010043087595185e-12
1.048271891734646e-12
1.087920407545765e-12
1.129040312523894e-12
1.171685125640107e-12
1.215910271490335e-12
1.26177314662531e-12
1.309333188134088e-12
1.358651944555323e-12
1.40979314919352e-12
1.462822795919566e-12
1.517809217537651e-12
1.574823166802973e-12
1.63393790017795e-12
1.695229264416622e-12
1.758775786070661e-12
1.824658764012618e-12
1.892962365075801e-12
1.963773722912642e-12
2.037183040177363e-12
2.113283694141416e-12
2.192172345854366e-12
2.273949052965587e-12
2.358717386326842e-12
2.446584550498555e-12
2.537661508287313e-12
2.632063109445744e-12
2.729908223670184e-12
2.831319878035697e-12
2.936425399012766e-12
3.045356559213871e-12
3.158249729023871e-12
3.275246033271493e-12
3.396491513105859e-12
3.522137293245564e-12
3.65233975477431e-12
3.787260713661589e-12
3.927067605193347e-12
4.071933674502457e-12
4.222038173395821e-12
4.377566563679674e-12
4.538710727192865e-12
4.705669182761868e-12
4.878647310300904e-12
5.057857582284438e-12
5.243519802829478e-12
5.43586135462926e-12
5.635117453990483e-12
5.841531414231458e-12
6.055354917708206e-12
6.276848296743461e-12
6.506280823740852e-12
6.743931010777192e-12
6.990086918973389e-12
7.245046477953623e-12
7.509117815713601e-12
7.782619599226452e-12
8.065881386126677e-12
8.359243987820962e-12
8.663059844388663e-12
8.977693411641686e-12
9.303521560727933e-12
9.640933990673622e-12
9.990333654269896e-12
1.035213719772505e-11
1.072677541451242e-11
1.111469371386033e-11
1.151635260434294e-11
1.193222819304383e-11
1.236281270077907e-11
1.280861499388323e-11
1.327016113307365e-11
1.374799493992529e-11
1.424267858150542e-11
1.475479317373359e-11
1.52849394040483e-11
1.583373817397992e-11
1.640183126224757e-11
1.698988200901729e-11
1.759857602197471e-11
1.822862190488946e-11
1.888075200936372e-11
1.955572321048362e-11
2.02543177071095e-11
2.097734384756311e-11
2.172563698149555e-11
2.250006033873987e-11
2.330150593597957e-11
2.413089551208325e-11
2.498918149298601e-11
2.587734798702635e-11
2.679641181166297e-11
2.774742355253942e-11
2.873146865587698e-11
2.974966855521943e-11
3.080318183357014e-11
3.18932054220066e-11
3.302097583587455e-11
3.41877704497106e-11
3.539490881206363e-11
3.66437540014303e-11
3.793571402454406e-11
3.927224325830765e-11
4.065484393668041e-11
4.208506768388743e-11
4.356451709533778e-11
4.509484736770247e-11
4.667776797961984e-11
4.831504442456513e-11
5.000849999743771e-11
5.176001763649338e-11
5.357154182226878e-11
5.544508053521685e-11
5.738270727380096e-11
5.938656313486593e-11
6.145885895813504e-11
6.360187753675835e-11
6.581797589587044e-11
6.810958764119467e-11
7.047922537976473e-11
7.292948321492165e-11
7.546303931777528e-11
7.80826585774161e-11
8.079119533219226e-11
8.359159618446944e-11
8.648690290132263e-11
8.948025540372082e-11
9.257489484678995e-11
9.577416679386404e-11
9.908152448706404e-11
1.025005322172656e-10
1.060348687963504e-10
1.096883311347728e-10
1.134648379274998e-10
1.173684334515294e-10
1.21403291478222e-10
1.255737193038282e-10
1.298841619016451e-10
1.343392061993535e-10
1.389435854851929e-10
1.437021839467173e-10
1.486200413459746e-10
1.537023578351061e-10
1.58954498916395e-10
1.64382000550997e-10
1.699905744206172e-10
1.757861133465911e-10
1.817746968708861e-10
1.879625970037316e-10
1.943562841426459e-10
2.009624331678165e-10
2.077879297189103e-10
2.14839876658521e-10
2.221256007275976e-10
2.296526593983958e-10
2.374288479305597e-10
2.454622066362095e-10
2.537610283599326e-10
2.623338661798994e-10
2.711895413363288e-10
2.803371513938456e-10
2.897860786443487e-10
2.995459987572295e-10
3.096268896839948e-10
3.200390408244767e-10
3.307930624620454e-10
3.418998954754758e-10
3.533708213352219e-10
3.652174723922193e-10
3.7745184246738e-10
3.900862977503066e-10
4.031335880159391e-10
4.166068581680073e-10
4.305196601185653e-10
4.448859650129368e-10
4.597201758098301e-10
4.750371402265243e-10
4.908521640593502e-10
5.071810248899175e-10
5.240399861879191e-10
5.414458118214798e-10
5.594157809864793e-10
5.779677035664037e-10
5.971199359347739e-10
6.168913972124049e-10
6.37301585992044e-10
6.58370597543391e-10
6.801191415117696e-10
7.025685601240808e-10
7.257408469160006e-10
7.496586659948225e-10
7.743453718527067e-10
7.998250297454029e-10
8.26122436652051e-10
8.532631428319067e-10
8.812734739944589e-10
9.101805540996591e-10
9.400123288054821e-10
9.707975895804761e-10
1.002565998499568e-09
1.035348113741569e-09
1.069175415807556e-09
1.104080334479719e-09
1.140096276540806e-09
1.177257654274683e-09
1.215599914769317e-09
1.255159570043743e-09
1.295974228021416e-09
1.338082624372629e-09
1.381524655249664e-09
1.426341410938387e-09
1.47257521045132e-09
1.520269637087113e-09
1.56946957498265e-09
1.620221246684105e-09
1.6725722517646e-09
1.726571606515961e-09
1.782269784743756e-09
1.839718759694645e-09
1.898972047146517e-09
1.960084749692027e-09
2.023113602247679e-09
2.088117018820474e-09
2.155155140566059e-09
2.224289885171938e-09
2.295584997601358e-09
2.36910610223355e-09
2.444920756437057e-09
2.523098505614258e-09
2.603710939755569e-09
2.686831751542897e-09
2.772536796043592e-09
2.860904152035774e-09
2.952014185008652e-09
3.045949611880871e-09
3.142795567482489e-09
3.242639672845956e-09
3.34557210535385e-09
3.451685670791319e-09
3.561075877352781e-09
3.673841011653996e-09
3.790082216801109e-09
3.909903572570203e-09
4.033412177751672e-09
4.160718234716072e-09
4.291935136257921e-09
4.427179554776674e-09
4.56657153385494e-09
4.710234582295686e-09
4.858295770681455e-09
5.0108858305204e-09
5.168139256045023e-09
5.330194408732319e-09
5.497193624614155e-09
5.66928332444923e-09
5.846614126829505e-09
6.029340964296678e-09
6.217623202543643e-09
6.411624762780761e-09
6.611514247346118e-09
6.81746506864301e-09
7.029655581487825e-09
7.248269218954982e-09
7.473494631806905e-09
7.705525831600231e-09
7.944562337559312e-09
8.190809327312735e-09
8.444477791590168e-09
8.705784692977175e-09
8.974953128831671e-09
9.252212498464709e-09
9.537798674692066e-09
9.831954179866854e-09
1.013492836650338e-08
1.044697760260718e-08
1.076836546182793e-08
1.109936291855542e-08
1.144024854808004e-08
1.179130873194376e-08
1.215283786861036e-08
1.252513858958463e-08
1.290852198111718e-08
1.33033078116296e-08
1.370982476500263e-08
1.412841067987095e-08
1.455941279507114e-08
1.500318800139345e-08
1.546010309979291e-08
1.593053506621544e-08
1.641487132320203e-08
1.691351001843531e-08
1.742686031039674e-08
1.795534266130817e-08
1.849938913753484e-08
1.905944371762792e-08
1.963596260819452e-08
2.022941456778257e-08
2.084028123897392e-08
2.146905748888462e-08
2.211625175827141e-08
2.278238641945677e-08
2.346799814327751e-08
2.417363827527844e-08
2.489987322136879e-08
2.564728484317042e-08
2.641647086328479e-08
2.720804528072088e-08
2.802263879671939e-08
2.886089925122545e-08
2.97234920702597e-08
3.061110072444642e-08
3.152442719896236e-08
3.24641924751774e-08
3.343113702426257e-08
3.442602131304335e-08
3.544962632239488e-08
3.650275407846391e-08
3.758622819702542e-08
3.870089444127927e-08
3.984762129339797e-08
4.102730054015551e-08
4.224084787295428e-08
4.348920350259394e-08
4.477333278912391e-08
4.609422688712383e-08
4.745290340677722e-08
4.885040709110106e-08
5.028781050970194e-08
5.176621476944559e-08
5.32867502424271e-08
5.485057731163887e-08
5.645888713474315e-08
5.811290242637104e-08
5.981387825936108e-08
6.156310288538298e-08
6.336189857537816e-08
6.521162248028218e-08
6.71136675124747e-08
6.906946324844631e-08
7.10804768531498e-08
7.314821402653517e-08
7.527421997277158e-08
7.746008039266229e-08
7.970742249978374e-08
8.201791606087912e-08
8.439327446105705e-08
8.683525579434639e-08
8.934566398017939e-08
9.192634990638957e-08
9.457921259930518e-08
9.730620042156023e-08
1.001093122982206e-07
1.029905989718799e-07
1.059521642873464e-07
1.089961665065953e-07
1.121248196546451e-07
1.153403948970561e-07
1.186452219497282e-07
1.220416905217408e-07
1.255322517919346e-07
1.291194199199898e-07
1.328057735927637e-07
1.365939576066515e-07
1.404866844867624e-07
1.444867361437133e-07
1.48596965568867e-07
1.528202985688495e-07
1.571597355401989e-07
1.616183532850158e-07
1.661993068685107e-07
1.709058315193595e-07
1.75741244573772e-07
1.807089474642375e-07
1.858124277539016e-07
1.910552612175624e-07
1.964411139702715e-07
2.01973744644576e-07
2.076570066174398e-07
2.134948502879024e-07
2.194913254065587e-07
2.256505834579577e-07
2.319768800970637e-07
2.384745776409107e-07
2.451481476166217e-07
2.520021733669895e-07
2.590413527148375e-07
2.662705006874037e-07
2.736945523019863e-07
2.813185654141737e-07
2.891477236299524e-07
2.971873392830343e-07
3.054428564787598e-07
3.139198542059851e-07
3.226240495183497e-07
3.315613007863966e-07
3.407376110219709e-07
3.501591312764488e-07
3.598321641142661e-07
3.697631671633896e-07
3.799587567442002e-07
3.90425711578518e-07
4.011709765803326e-07
4.12201666729968e-07
4.235250710333672e-07
4.35148656568215e-07
4.470800726187627e-07
4.593271549010127e-07
4.718979298802563e-07
4.848006191827415e-07
4.98043644103381e-07
5.11635630211534e-07
5.255854120567172e-07
5.399020379763474e-07
5.545947750075345e-07
5.69673113905042e-07
5.851467742674865e-07
6.010257097740302e-07
6.173201135336662e-07
6.340404235494646e-07
6.511973282999417e-07
6.688017724400055e-07
6.868649626237086e-07
7.053983734513748e-07
7.244137535434342e-07
7.439231317435057e-07
7.639388234532933e-07
7.84473437101885e-07
8.055398807520454e-07
8.271513688461983e-07
8.493214290949062e-07
8.720639095105099e-07
8.95392985588825e-07
9.193231676417396e-07
9.438693082836778e-07
9.690466100748873e-07
9.948706333245283e-07
1.021357304056753e-06
1.048522922142808e-06
1.076384169602428e-06
1.104958119077676e-06
1.134262242482674e-06
1.164314419832369e-06
1.195132948254e-06
1.226736551184517e-06
1.259144387757586e-06
1.292376062383806e-06
1.326451634527712e-06
1.361391628685324e-06
1.397217044565958e-06
1.433949367482239e-06
1.471610578952182e-06
1.510223167517207e-06
1.54981013978032e-06
1.590395031668297e-06
1.632001919922415e-06
1.674655433821542e-06
1.718380767142227e-06
1.763203690359981e-06
1.809150563096301e-06
1.85624834681594e-06
1.904524617778955e-06
1.95400758025226e-06
2.004726079985478e-06
2.056709617955843e-06
2.109988364387071e-06
2.16459317304715e-06
2.22055559583023e-06
2.27790789762763e-06
2.336683071493264e-06
2.396914854108638e-06
2.458637741553072e-06
2.521887005384482e-06
2.586698709036155e-06
2.653109724535376e-06
2.721157749549538e-06
2.79088132476569e-06
2.862319851609162e-06
2.935513610307548e-06
3.010503778306029e-06
3.087332449040358e-06
3.166042651073552e-06
3.246678367602802e-06
3.329284556343305e-06
3.413907169795256e-06
3.500593175900884e-06
3.589390579098087e-06
3.680348441778142e-06
3.773516906153651e-06
3.868947216544442e-06
3.966691742088368e-06
4.066803999884413e-06
4.169338678575465e-06
4.274351662378212e-06
4.381900055567936e-06
4.49204220742593e-06
4.604837737657309e-06
4.720347562287276e-06
4.838633920043846e-06
4.959760399235423e-06
5.083791965131297e-06
5.210794987853742e-06
5.340837270790137e-06
5.473988079533797e-06
5.61031817136266e-06
5.749899825263963e-06
5.892806872515076e-06
6.039114727828749e-06
6.188900421072512e-06
6.342242629571829e-06
6.499221711006053e-06
6.65991973690742e-06
6.824420526772767e-06
6.992809682797953e-06
7.165174625244793e-06
7.341604628451538e-06
7.522190857496421e-06
7.707026405525199e-06
7.89620633175389e-06
8.08982770015624e-06
8.287989618848422e-06
8.490793280180792e-06
8.698342001548687e-06
8.91074126693378e-06
9.128098769186617e-06
9.350524453063455e-06
9.578130559027891e-06
9.811031667830294e-06
1.004934474587689e-05
1.029318919140022e-05
1.054268688144502e-05
1.079796221968008e-05
1.105914218505093e-05
1.132635638128491e-05
1.159973708726215e-05
1.187941930826626e-05
1.216554082812735e-05
1.245824226227196e-05
1.275766711169272e-05
1.306396181785217e-05
1.337727581853557e-05
1.369776160466541e-05
1.402557477809366e-05
1.436087411038564e-05
1.470382160261047e-05
1.505458254615315e-05
1.541332558456338e-05
1.578022277645702e-05
1.61554496594844e-05
1.65391853153833e-05
1.693161243613002e-05
1.733291739120726e-05
1.774329029600287e-05
1.816292508135703e-05
1.859201956427473e-05
1.903077551981951e-05
1.94793987542066e-05
1.993809917911131e-05
2.040709088721193e-05
2.088659222898217e-05
2.137682589075455e-05
2.187801897406854e-05
2.239040307632551e-05
2.291421437276565e-05
2.344969369978843e-05
2.39970866396326e-05
2.455664360643664e-05
2.512861993369845e-05
2.571327596315288e-05
2.631087713508756e-05
2.692169408011636e-05
2.75460027124309e-05
2.818408432454981e-05
2.883622568358629e-05
2.950271912905444e-05
3.018386267223601e-05
3.087996009712741e-05
3.159132106298929e-05
3.231826120851823e-05
3.306110225766523e-05
3.382017212711955e-05
3.459580503548349e-05
3.538834161415563e-05
3.619812901995033e-05
3.70255210494718e-05
3.787087825526896e-05
3.873456806379085e-05
3.961696489516965e-05
4.051845028485085e-05
4.143941300709786e-05
4.238024920039271e-05
4.334136249475787e-05
4.432316414102231e-05
4.532607314206009e-05
4.635051638602053e-05
4.739692878157981e-05
4.846575339523555e-05
4.955744159067503e-05
5.067245317023449e-05
5.181125651848446e-05
5.297432874795784e-05
5.416215584705691e-05
5.537523283015752e-05
5.661406388993913e-05
5.787916255197158e-05
5.917105183158021e-05
6.04902643930192e-05
6.183734271098107e-05
6.321283923446877e-05
6.46173165530577e-05
6.60513475655783e-05
6.751551565124277e-05
6.901041484325165e-05
7.053665000489929e-05
7.209483700821647e-05
7.368560291517183e-05
7.530958616146669e-05
7.696743674294871e-05
7.865981640467559e-05
8.038739883265942e-05
8.21508698483187e-05
8.395092760567347e-05
8.578828279130471e-05
8.766365882712209e-05
8.95777920759534e-05
9.153143205000343e-05
9.352534162220281e-05
9.55602972404794e-05
9.763708914498408e-05
9.975652158831064e-05
0.0001019194130587219
0.0001041265965064345
0.0001063789195729842
0.0001086772448237017
0.000111022449983337
0.0001134154281748622
0.0001158570881614821
0.0001183483545918947
0.0001208901682488195
0.0001234834863008422
0.0001261292825575944
0.0001288285477283169
0.0001315822896838205
0.0001343915337219
0.0001372573228362126
0.0001401807179886721
0.0001431627983853829
0.0001462046617561457
0.0001493074246375816
0.0001524722226598928
0.0001557002108372993
0.0001589925638621957
0.0001623504764030419
0.0001657751634060468
0.0001692678604006508
0.0001728298238088698
0.0001764623312585129
0.0001801666819003211
0.0001839441967290537
0.0001877962189085668
0.0001917241141008991
0.0001957292707994254
0.0001998131006660938
0.0002039770388727788
0.0002082225444468028
0.0002125511006206451
0.0002169642151858748
0.000221463420851342
0.0002260502756056761
0.0002307263630840955
0.0002354932929395984
0.0002403527012185309
0.000245306250740607
0.0002503556314833835
0.0002555025609712254
0.0002607487846688264
0.0002660960763792721
0.000271546238646723
0.0002771011031637139
0.0002827625311831416
0.0002885324139349195
0.0002944126730474122
0.0003004052609735857
0.0003065121614219896
0.0003127353897925665
0.0003190769936173053
0.0003255390530058189
0.0003321236810958167
0.0003388330245085706
0.0003456692638093438
0.0003526346139728557
0.0003597313248537904
0.0003669616816624016
0.0003743280054452148
0.0003818326535708827
0.0003894780202212188
0.0003972665368874164
0.0004052006728715238
0.0004132829357931543
0.0004215158721015113
0.000429902067592703
0.0004384441479324277
0.0004471447791840236
0.000456006668341904
0.0004650325638704355
0.0004742252562482511
0.0004835875785180748
0.0004931224068420062
0.0005028326610623416
0.0005127213052679846
0.0005227913483663741
0.0005330458446610557
0.0005434878944348526
0.0005541206445386809
0.000564947288986034
0.0005759710695531476
0.0005871952763848813
0.000598623248606298
0.0006102583749400238
0.000622104094329347
0.0006341638965671082
0.0006464413229303585
0.0006589399668209001
0.0006716634744115765
0.0006846155452984536
0.0006977999331588579
0.0007112204464152713
0.0007248809489051238
0.0007387853605564772
0.0007529376580696054
0.0007673418756045359
0.0007820021054744642
0.0007969224988451169
0.0008121072664401144
0.0008275606792521974
0.0008432870692604922
0.0008592908301536574
0.0008755764180590741
0.0008921483522779412
0.0009090112160263889
0.0009261696571825341
0.0009436283890395033
0.0009613921910644542
0.0009794659096635445
0.0009978544589528578
0.001016562821535316
0.001035596049283517
0.001054959264128553
0.001074657658854722
0.001094696497900216
0.001115081118163707
0.001135816929816855
0.001156909417122684
0.001178364139259861
0.001200186731152861
0.001222382904307934
0.001244958447654931
0.00126791922839497
0.001291271192853826
0.001315020367341144
0.001339172859015397
0.001363734856754498
0.001388712632032237
0.001414112539800227
0.001439941019375607
0.001466204595334278
0.001492909878409751
0.001520063566397542
0.001547672445065006
0.00157574338906671
0.001604283362865171
0.001633299421657032
0.001662798712304548
0.001692788474272373
0.001723276040569587
0.001754268838696965
0.001785774391599387
0.001817800318623288
0.001850354336479288
0.001883444260209696
0.001917078004160996
0.001951263582961225
0.001986009112502191
0.00202132281092636
0.00205721299961853
0.002093688104202095
0.002130756655539844
0.002168427290739274
0.002206708754162292
0.00224560989843933
0.002285139685487606
0.002325307187533631
0.002366121588139861
0.002407592183235273
0.002449728382149963
0.002492539708653544
0.002536035801997267
0.00258022641795993
0.002625121429897214
0.002670730829794593
0.002717064729323581
0.002764133360901214
0.002811947078752804
0.002860516359977689
0.002909851805617914
0.002959964141729856
0.003010864220458462
0.003062563021114253
0.003115071651252621
0.003168401347755747
0.003222563477916572
0.003277569540525074
0.003333431166956353
0.003390160122260804
0.003447768306255866
0.003506267754619462
0.003565670639984862
0.003625989273036873
0.003687236103609316
0.00374942372178339
0.003812564858987005
0.003876672389094823
0.003941759329528935
0.004007838842359959
0.004074924235408278
0.004143028963345552
0.004212166628796094
0.004282350983438082
0.004353595929104183
0.00442591551888188
0.004499323958212849
0.004573835605991499
0.004649464975662388
0.004726226736316343
0.004804135713785108
0.00488320689173431
0.004963455412754622
0.005044896579450816
0.005127545855528495
0.005211418866878542
0.005296531402658771
0.00538289941637279
0.005470539026945662
0.005559466519796488
0.005649698347907232
0.005741251132888071
0.005834141666038544
0.00592838690940481
0.0060240039968322
0.006121010235013458
0.006219423104531875
0.006319260260899327
0.006420539535589255
0.006523278937063819
0.006627496651795082
0.00673321104528059
0.006840440663052216
0.006949204231678582
0.007059520659760706
0.007171409038920332
0.007284888644781307
0.00739997893794287
0.007516699564945353
0.007635070359227767
0.007755111342076712
0.007876842723566643
0.008000284903491387
0.008125458472286186
0.008252384211940016
0.008381083096898598
0.008511576294956587
0.008643885168140068
0.008778031273577604
0.008914036364360781
0.009051922390393286
0.009191711499228325
0.009333426036894094
0.009477088548707064
0.009622721780072584
0.009770348677272899
0.009919992388241657
0.01007167626332509
0.01022542385602946
0.01038125892375403
0.0105392054285098
0.01069928753762355
0.01086152962442635
0.01102595626892695
0.01119259225846934
0.0113614625883738
0.01153259246256184
0.01170600729416429
0.01188173270611182
0.01205979453170848
0.01224021881518681
0.01242303181224536
0.01260825999056681
0.01279593003031801
0.01298606882462973
0.01317870348005813
0.01337386131702462
0.01357156987023645
0.01377185688908626
0.01397475033803021
0.01418027839694505
0.0143884694614631
0.01459935214328488
0.01481295527046935
0.01502930788770124
0.01524843925653457
0.01547037885561304
0.01569515638086569
0.01592280174567848
0.01615334508104099
0.01638681673566735
0.01662324727609225
0.01686266748674054
0.01710510836996994
0.01735060114608787
0.01759917725334036
0.0178508683478738
0.0181057063036685
0.01836372321244347
0.01862495138353348
0.01888942334373607
0.0191571718371291
0.0194282298248589
0.0197026304848974
0.01998040721176904
0.02026159361624622
0.02054622352501386
0.02083433098030078
0.02112595023948032
0.02142111577463697
0.02171986227210091
0.02202222463194829
0.02232823796746801
0.0226379376045944
0.02295135908130476
0.02326853814698248
0.02358951076174383
0.02391431309572983
0.02424298152836139
0.0245755526475582
0.02491206324892013
0.0252525503348718
0.0255970511137689
0.02594560299896647
0.02629824360784954
0.02665501076082321
0.02701594248026511
0.02738107698943683
0.02775045271135668
0.02812410826763065
0.02850208247724361
0.02888441435530932
0.02927114311177797
0.02966230815010368
0.03005794906586745
0.0304581056453594
0.03086281786411765
0.03127212588542299
0.03168607005875129
0.03210469091818096
0.03252802918075653
0.03295612574480685
0.03338902168821962
0.0338267582666697
0.03426937691180147
0.03471691922936578
0.03516942699731079
0.03562694216382559
0.03608950684533661
0.0365571633244584
0.03702995404789488
0.03750792162429365
0.03799110882205236
0.0384795585670767
0.03897331394048826
0.03947241817628548
0.0399769146589543
0.04048684692102866
0.04100225864060171
0.04152319363878721
0.04204969587713125
0.04258180945497136
0.04311957860674483
0.04366304769925031
0.04421226122885178
0.04476726381863522
0.04532810021551292
0.04589481528727391
0.04646745401958409
0.04704606151293449
0.04763068297953355
0.04822136374015161
0.04881814922090836
0.04942108495000817
0.05003021655442431
0.05064558975652654
0.05126725037065775
0.05189524429965466
0.05252961753131688
0.05317041613481972
0.05381768625707516
0.05447147411903616
0.05513182601194916
0.05579878829355033
0.05647240738420709
0.05715272976300771
0.05783980196379222
0.05853367057113289
0.0592343822162561
0.05994198357291147
0.06065652135318645
0.06137804230326444
0.0621065931991292
0.06284222084221464
0.06358497205499808
0.06433489367653999
0.06509203255797004
0.06585643555791361
0.0666281495378705
0.0674072213575323
0.0681936978700487
0.06898762591723931
0.06978905232474933
0.07059802389715156
0.0714145874129944
0.0722387896197951
0.07307067722897864
0.07391029691076492
0.07475769528899889
0.07561291893592945
0.07647601436693395
0.07734702803518929
0.07822600632628977
0.0791129955528147
0.08000804194883906
0.08091119166439409
0.0818224907598768
0.08274198520040488
0.08366972085012177
0.08460574346645071
0.08555009869429514
0.0865028320601926
0.08746398896641308
0.08843361468501029
0.08941175435182459
0.09039845296043171
0.09139375535604728
0.09239770622937878
0.09341035011043218
0.09443173136226869
0.09546189417471501
0.09650088255802521
0.09754874033649766
0.09860551114204566
0.09967123840771994
0.1007459653611887
0.1018297350181722
0.1029225901758326
0.1040245734061181
0.1051357270490703
0.1062560932060803
0.10738571373311
0.1085246302338677
0.1096728840529439
0.110830516268907
0.1119975676873605
0.1131740788339574
0.1143600899473804
0.1155556409722822
0.1167607715521879
0.117975521022364
0.1191999284026473
0.1204340323902422
0.1216778713524835
0.1229314833195631
0.1241949059772263
0.1254681766594355
0.1267513323410016
0.1280444096301864
0.1293474447612742
0.1306604735871132
0.1319835315716336
0.1333166537823336
0.1346598748827393
0.1360132291248438
0.1373767503415168
0.138750471938891
0.1401344268887296
0.1415286477207663
0.1429331665150304
0.1443480148941453
0.1457732240156135
0.1472088245640822
0.1486548467435903
0.1501113202697982
0.1515782743622057
0.1530557377363583
0.1545437385960299
0.156042304625407
0.1575514629812511
0.1590712402850568
0.1606016626152035
0.1621427554990903
0.1636945439052737
0.1652570522355956
0.166830304317309
0.1684143233951956
0.1700091321236914
0.1716147525589988
0.1732312061512103
0.1748585137364277
0.1764966955288845
0.1781457711130747
0.1798057594358846
0.1814766787987337
0.1831585468497192
0.1848513805757721
0.1865551962948266
0.1882700096479935
0.1899958355917519
0.1917326883901539
0.1934805816070467
0.1952395280983038
0.1970095400040843
0.1987906287411043
0.2005828049949351
0.2023860787123131
0.2042004590934874
0.2060259545845791
0.2078625728699749
0.2097103208647468
0.2115692047070951
0.2134392297508308
0.2153204005578812
0.217212720890837
0.2191161937055247
0.2210308211436214
0.2229566045253056
0.2248935443419484
0.2268416402488379
0.2288008910579568
0.2307712947307895
0.2327528483711883
0.234745548218273
0.2367493896393876
0.2387643671230986
0.2407904742722484
0.2428277037970606
0.2448760475082961
0.2469354963104659
0.249006040195099
0.2510876682340724
0.2531803685729909
0.2552841284246433
0.2573989340625029
0.2595247708143076
0.2616616230556925
0.2638094742039017
0.2659683067115575
0.2681381020605078
0.270318840755738
0.2725105023193603
0.2747130652846808
0.2769265071903295
0.2791508045744818
0.2813859329691535
0.2836318668945713
0.2858885798536341
0.2881560443264532
0.2904342317649731
0.2927231125876897
0.2950226561744424
0.2973328308613083
0.2996536039355775
0.3019849416308274
0.304326809122089
0.3066791705211014
0.3090419888716747
0.3114152261451441
0.3137988432359208
0.3161927999571547
0.3185970550364817
0.3210115661118979
0.3234362897277147
0.3258711813306395
0.3283161952659556
0.3307712847738146
0.3332364019856321
0.335711497920608
0.3381965224823505
0.3406914244556206
0.3431961515031888
0.3457106501628098
0.348234865844321
0.3507687428268543
0.3533122242561755
0.3558652521421377
0.3584277673562742
0.3609997096294976
0.3635810175499413
0.3661716285609187
0.3687714789590179
0.3713805038923229
0.3739986373587662
0.3766258122046165
0.379261960123098
0.3819070116531453
0.3845608961782961
0.3872235419257167
0.389894875965368
0.3925748242093189
0.3952633114111817
0.3979602611657038
0.4006655959085052
0.4033792369159383
0.4061011043051239
0.408831117034095
0.4115691929021248
0.4143152485501738
0.4170691994615
0.4198309599624165
0.4226004432231883
0.4253775612590991
0.4281622249316535
0.4309543439499408
0.4337538268721445
0.4365605811072196
0.4393745129167046
0.4421955274167162
0.4450235285800682
0.4478584192385752
0.4507001010855013
0.4535484746781678
0.4564034394407191
0.4592648936670584
0.462132734523923
0.4650068580541455
0.4678871591800541
0.4707735317070526
0.4736658683273459
0.476564060623841
0.4794679990742077
0.4823775730550972
0.4852926708465338
0.4882131796364627
0.4911389855254633
0.4940699735316376
0.4970060275956495
0.4999470305859303
0.5028928643040664
0.5058434094903336
0.5087985458294054
0.5117581519562249
0.5147221054620499
0.5176902829006497
0.5206625597946838
0.5236388106422338
0.5266189089235123
0.5296027271077258
0.5325901366601192
0.5355810080491651
0.5385752107539409
0.5415726132716586
0.5445730831253593
0.5475764868717747