/*--------------------------------*- C++ -*----------------------------------*\
| =========                 |                                                 |
| \\      /  F ield         | OpenFOAM: The Open Source CFD Toolbox           |
|  \\    /   O peration     | Version:  2412                                  |
|   \\  /    A nd           | Website:  www.openfoam.com                      |
|    \\/     M anipulation  |                                                 |
\*---------------------------------------------------------------------------*/
FoamFile
{
    version     2.0;
    format      ascii;
    arch        "LSB;label=32;scalar=64";
    class       volScalarField;
    location    "0";
    object      T_0_0_0;
}
// * * * * * * * * * * * * * * * * * * * * * * * * * * * * * * * * * * * * * //

dimensions      [0 0 0 1 0 0 0];

internalField   nonuniform List<scalar> 
4000
(
1.293546654828717e-14
1.346302627527257e-14
1.401175168609636e-14
1.458247745569168e-14
1.51760705841647e-14
1.579343162499952e-14
1.643549595899208e-14
1.710323511558452e-14
1.779765814332178e-14
1.851981303122171e-14
1.927078818290581e-14
2.005171394541058e-14
2.086376419466116e-14
2.17081579796663e-14
2.258616122755647e-14
2.349908851167576e-14
2.444830488500197e-14
2.543522778126187e-14
2.646132898618266e-14
2.75281366814154e-14
2.863723756374667e-14
2.979027904231539e-14
3.098897151664002e-14
3.223509073836806e-14
3.353048025975025e-14
3.487705397196283e-14
3.627679873649528e-14
3.773177711294553e-14
3.924413018667368e-14
4.081608049989387e-14
4.244993508989612e-14
4.414808863823829e-14
4.591302673486183e-14
4.774732926123848e-14
4.965367389678582e-14
5.163483975295328e-14
5.369371113950914e-14
5.583328146774622e-14
5.805665729545648e-14
6.036706251872471e-14
6.2767842715734e-14
6.526246964798578e-14
6.785454592450083e-14
7.054780983477642e-14
7.334614035645888e-14
7.625356234391663e-14
7.927425190408546e-14
8.241254196620877e-14
8.567292805228792e-14
8.906007425533186e-14
9.257881943269621e-14
9.623418362209408e-14
1.000313746880856e-13
1.039757952071384e-13
1.080730495996373e-13
1.123289515174831e-13
1.167495314962288e-13
1.213410448810203e-13
1.261099800358932e-13
1.310630668463478e-13
1.362072855253957e-13
1.415498757337022e-13
1.470983460247386e-13
1.528604836262558e-13
1.588443645698035e-13
1.6505836418034e-13
1.715111679384877e-13
1.782117827283163e-13
1.851695484840527e-13
1.923941502494856e-13
1.998956306644031e-13
2.076844028927752e-13
2.15771264007966e-13
2.241674088507303e-13
2.328844443763352e-13
2.419344045075917e-13
2.513297655112954e-13
2.610834619159895e-13
2.712089029897447e-13
2.8171998979708e-13
2.926311328550074e-13
3.039572704086285e-13
3.157138873475786e-13
3.279170347851981e-13
3.405833503231327e-13
3.537300790247037e-13
3.673750951213383e-13
3.815369244769515e-13
3.962347678361957e-13
4.114885248831755e-13
4.273188191382783e-13
4.437470237215137e-13
4.607952880118594e-13
4.784865652329383e-13
4.968446409965112e-13
5.15894162836081e-13
5.356606707642867e-13
5.561706288885125e-13
5.774514581205997e-13
5.995315700174913e-13
6.22440401790985e-13
6.462084525259388e-13
6.708673206476463e-13
6.964497426803271e-13
7.229896333402101e-13
7.505221270078488e-13
7.790836206261083e-13
8.087118180714404e-13
8.394457760478819e-13
8.713259515546197e-13
9.043942509797867e-13
9.386940808747222e-13
9.742704004648307e-13
1.01116977595479e-12
1.04944043668809e-12
1.089132333222281e-12
1.130297197383937e-12
1.172988604368811e-12
1.217262036955284e-12
1.263174951900904e-12
1.310786848594639e-12
1.360159340039154e-12
1.411356226240437e-12
1.464443570084099e-12
1.519489775780579e-12
1.576565669963752e-12
1.635744585530613e-12
1.697102448311995e-12
1.760717866667641e-12
1.826672224101549e-12
1.895049774996883e-12
1.965937743572474e-12
2.039426426166917e-12
2.115609296958744e-12
2.194583117235351e-12
2.276448048326435e-12
2.361307768321825e-12
2.449269592696834e-12
2.540444598972723e-12
2.634947755543496e-12
2.732898054804662e-12
2.834418650723518e-12
2.939637000995622e-12
3.048685013935648e-12
3.161699200256579e-12
3.278820829895041e-12
3.400196094046513e-12
3.525976272578141e-12
3.656317906993762e-12
3.791382979128817e-12
3.931339095761519e-12
4.076359679329156e-12
4.226624164947208e-12
4.382318203932933e-12
4.543633874042887e-12
4.710769896639332e-12
4.883931861007902e-12
5.063332456055088e-12
5.249191709622464e-12
5.441737235659734e-12
5.641204489509046e-12
5.847837031558114e-12
6.061886799529222e-12
6.283614389679767e-12
6.513289347196435e-12
6.751190466076362e-12
6.997606098796225e-12
7.252834476078898e-12
7.5171840370792e-12
7.790973770316835e-12
8.074533565698189e-12
8.36820457797556e-12
8.672339602006796e-12
8.987303460186093e-12
9.313473402429436e-12
9.651239519111651e-12
1.000100516735964e-11
1.036318741112429e-11
1.073821747546044e-11
1.11265412154642e-11
1.152861960032308e-11
1.194492921295449e-11
1.237596276571879e-11
1.282222963270932e-11
1.328425639913757e-11
1.376258742834459e-11
1.425778544698956e-11
1.477043214897967e-11
1.530112881872588e-11
1.585049697432197e-11
1.641917903126711e-11
1.700783898736908e-11
1.761716312948108e-11
1.824786076275226e-11
1.890066496308238e-11
1.957633335350163e-11
2.027564890521147e-11
2.099942076404628e-11
2.174848510313798e-11
2.252370600259255e-11
2.332597635700436e-11
2.415621881166485e-11
2.50153867283449e-11
2.590446518155849e-11
2.682447198623653e-11
2.777645875777662e-11
2.876151200545128e-11
2.978075426019934e-11
3.083534523784169e-11
3.192648303880672e-11
3.305540538546904e-11
3.42233908982531e-11
3.543176041166861e-11
3.668187833149941e-11
3.797515403438236e-11
3.931304331107007e-11
4.069704985468694e-11
4.212872679534866e-11
4.360967828253574e-11
4.514156111666687e-11
4.672608643134806e-11
4.83650214278297e-11
5.006019116323146e-11
5.181348039415903e-11
5.362683547736509e-11
5.550226632917323e-11
5.744184844541311e-11
5.944772498368854e-11
6.15221089098268e-11
6.366728521043985e-11
6.588561317355287e-11
6.817952873934092e-11
7.055154692304859e-11
7.300426431224706e-11
7.55403616406263e-11
7.816260644060318e-11
8.087385577706813e-11
8.367705906468767e-11
8.657526097121269e-11
8.957160440935701e-11
9.266933361983463e-11
9.587179734826722e-11
9.918245211870194e-11
1.026048656066045e-10
1.061427201142259e-10
1.097998161513764e-10
1.135800761246651e-10
1.174875481384136e-10
1.215264099104864e-10
1.257009728064149e-10
1.300156859952574e-10
1.344751407307491e-10
1.39084074761398e-10
1.438473768732776e-10
1.487700915693607e-10
1.538574238893913e-10
1.591147443743327e-10
1.645475941796257e-10
1.701616903415178e-10
1.759629312009398e-10
1.819574019894352e-10
1.881513805818611e-10
1.945513434206337e-10
2.011639716164784e-10
2.079961572307617e-10
2.150550097446173e-10
2.223478627202235e-10
2.298822806597607e-10
2.376660660676838e-10
2.457072667221599e-10
2.540141831616165e-10
2.625953763925725e-10
2.714596758250308e-10
2.806161874419549e-10
2.900743022094555e-10
2.998437047345344e-10
3.099343821774551e-10
3.20356633425912e-10
3.31121078538427e-10
3.422386684646363e-10
3.537206950502303e-10
3.655788013346369e-10
3.778249921496888e-10
3.904716450277373e-10
4.035315214279702e-10
4.170177782898204e-10
4.309439799227141e-10
4.453241102415402e-10
4.601725853575587e-10
4.755042665347096e-10
4.913344735215009e-10
5.076789982689783e-10
5.245541190455995e-10
5.4197661495998e-10
5.599637809029572e-10
5.785334429205533e-10
5.977039740298633e-10
6.174943104901448e-10
6.3792396854169e-10
6.590130616254541e-10
6.807823180967396e-10
7.032530994465876e-10
7.264474190448406e-10
7.503879614192655e-10
7.750981020855529e-10
8.00601927943249e-10
8.269242582532268e-10
8.54090666212562e-10
8.821275011433287e-10
9.110619113119759e-10
9.40921867396584e-10
9.717361866196673e-10
1.00353455756472e-09
1.036347565695087e-09
1.070206719594295e-09
1.105144477947365e-09
1.141194277283446e-09
1.178390560500105e-09
1.216768806190732e-09
1.256365558796529e-09
1.297218459605656e-09
1.339366278622058e-09
1.382848947327738e-09
1.427707592362277e-09
1.473984570144499e-09
1.521723502461339e-09
1.570969313050135e-09
1.621768265200699e-09
1.674168000404744e-09
1.728217578080365e-09
1.783967516400594e-09
1.841469834255166e-09
1.900778094376059e-09
1.961947447657271e-09
2.025034678701204e-09
2.090098252623545e-09
2.157198363150647e-09
2.226396982043083e-09
2.297757909880881e-09
2.371346828246195e-09
2.447231353340232e-09
2.525481091072532e-09
2.606167693660966e-09
2.689364917782461e-09
2.775148684315093e-09
2.863597139713231e-09
2.954790719058591e-09
3.048812210830942e-09
3.145746823443615e-09
3.245682253589504e-09
3.348708756445287e-09
3.454919217781665e-09
3.564409228029637e-09
3.677277158353293e-09
3.793624238781611e-09
3.913554638452051e-09
4.037175548020714e-09
4.164597264295794e-09
4.295933277150518e-09
4.431300358775276e-09
4.57081865532857e-09
4.714611781049074e-09
4.862806914891469e-09
5.015534899750956e-09
5.17293034434291e-09
5.335131727805504e-09
5.502281507094854e-09
5.67452622724415e-09
5.852016634559147e-09
6.034907792826041e-09
6.223359202606833e-09
6.41753492370172e-09
6.617603700857762e-09
6.823739092807842e-09
7.036119604721809e-09
7.254928824157856e-09
7.480355560601496e-09
7.712593988683268e-09
7.951843795166928e-09
8.198310329803251e-09
8.452204760147109e-09
8.713744230435789e-09
8.983152024631773e-09
9.260657733733012e-09
9.546497427457532e-09
9.84091383041191e-09
1.01441565028549e-08
1.045648202617018e-08
1.077815419316606e-08
1.110944420332131e-08
1.145063086309984e-08
1.180200079145905e-08
1.216384863068189e-08
1.253647726266156e-08
1.292019803077561e-08
1.331533096748563e-08
1.37222050278028e-08
1.41411583287654e-08
1.457253839507386e-08
1.501670241103364e-08
1.547401747896291e-08
1.594486088421924e-08
1.642962036700996e-08
1.692869440114946e-08
1.744249247993215e-08
1.79714354092958e-08
1.851595560845023e-08
1.907649741815315e-08
1.965351741681671e-08
2.024748474463625e-08
2.085888143593323e-08
2.148820275990947e-08
2.213595757001666e-08
2.280266866214783e-08
2.34888731418606e-08
2.419512280085173e-08
2.492198450290035e-08
2.567004057951101e-08
2.643988923548167e-08
2.723214496463983e-08
2.804743897598276e-08
2.888641963047369e-08
2.974975288874319e-08
3.063812276995671e-08
3.155223182210996e-08
3.249280160402425e-08
3.346057317931794e-08
3.445630762263245e-08
3.548078653840668e-08
3.653481259248937e-08
3.761921005689459e-08
3.873482536800562e-08
3.988252769854122e-08
4.106320954361078e-08
4.227778732117934e-08
4.352720198728383e-08
4.481241966634209e-08
4.61344322969038e-08
4.749425829320215e-08
4.889294322287408e-08
5.033156050121849e-08
5.18112121023784e-08
5.333302928783671e-08
5.489817335262192e-08
5.650783638962891e-08
5.816324207248168e-08
5.986564645734526e-08
6.161633880413914e-08
6.341664241757888e-08
6.526791550851321e-08
6.717155207600398e-08
6.912898281063717e-08
7.114167601953089e-08
7.321113857354512e-08
7.53389168771915e-08
7.752659786175156e-08
7.97758100021362e-08
8.208822435801587e-08
8.446555563977143e-08
8.690956329981773e-08
8.942205264987421e-08
9.200487600476776e-08
9.4659933853348e-08
9.738917605713768e-08
1.001946030773219e-07
1.030782672307184e-07
1.060422739753647e-07
1.090887832263892e-07
1.122200107028241e-07
1.154382293060633e-07
1.187457705306435e-07
1.221450259080814e-07
1.256384484844819e-07
1.29228554332664e-07
1.329179240995658e-07
1.36709204589699e-07
1.406051103854414e-07
1.446084255049724e-07
1.487220050986774e-07
1.529487771848555e-07
1.572917444255876e-07
1.617539859436279e-07
1.663386591812248e-07
1.710490018017737e-07
1.758883336352109e-07
1.808600586681139e-07
1.859676670794652e-07
1.912147373230578e-07
1.966049382575444e-07
2.021420313251524e-07
2.078298727801109e-07
2.13672415967851e-07
2.196737136560543e-07
2.258379204186608e-07
2.321692950739633e-07
2.386722031779396e-07
2.453511195739826e-07
2.522106310002206e-07
2.592554387556692e-07
2.664903614264262e-07
2.739203376731811e-07
2.815504290813403e-07
2.893858230750746e-07
2.974318358966161e-07
3.05693915652193e-07
3.141776454259655e-07
3.228887464634068e-07
3.318330814255601e-07
3.41016657715643e-07
3.504456308795009e-07
3.601263080814305e-07
3.700651516569721e-07
3.802687827441813e-07
3.907439849950748e-07
4.014977083688409e-07
4.125370730085389e-07
4.238693732029516e-07
4.355020814353504e-07
4.474428525210079e-07
4.596995278351211e-07
4.722801396331424e-07
4.851929154653078e-07
4.984462826872565e-07
5.120488730687789e-07
5.260095275025621e-07
5.403373008150203e-07
5.55041466681246e-07
5.701315226461867e-07
5.85617195254126e-07
6.015084452887179e-07
6.17815473125693e-07
6.345487242005878e-07
6.517188945936556e-07
6.693369367344422e-07
6.874140652282334e-07
7.059617628069412e-07
7.24991786406785e-07
7.445161733752856e-07
7.645472478101659e-07
7.850976270327111e-07
8.061802281982129e-07
8.278082750461992e-07
8.499953047932091e-07
8.727551751708488e-07
8.961020716119625e-07
9.200505145878181e-07
9.446153670992058e-07
9.698118423245057e-07
9.956555114275908e-07
1.022162311528881e-06
1.049348553842422e-06
1.077230931982464e-06
1.10582653044249e-06
1.13515283325028e-06
1.165227732802118e-06
1.19606953887977e-06
1.227696987853552e-06
1.260129252075072e-06
1.293385949463299e-06
1.327487153287527e-06
1.362453402151e-06
1.398305710178909e-06
1.43506557741471e-06
1.472755000428629e-06
1.511396483142222e-06
1.551013047873208e-06
1.591628246604462e-06
1.633266172481636e-06
1.67595147154332e-06
1.719709354688288e-06
1.764565609884093e-06
1.810546614621513e-06
1.857679348619423e-06
1.905991406784561e-06
1.955511012430908e-06
2.006267030763561e-06
2.058288982631813e-06
2.111607058556251e-06
2.166252133035065e-06
2.222255779134475e-06
2.279650283368554e-06
2.338468660873495e-06
2.398744670881756e-06
2.460512832501482e-06
2.523808440806672e-06
2.588667583243553e-06
2.655127156358948e-06
2.723224882856299e-06
2.792999328985261e-06
2.864489922270684e-06
2.937736969586958e-06
3.01278167558405e-06
3.089666161471244e-06
3.168433484164884e-06
3.249127655806516e-06
3.331793663658054e-06
3.416477490380452e-06
3.503226134702442e-06
3.592087632486307e-06
3.683111078197705e-06
3.776346646786093e-06
3.871845615983258e-06
3.969660389026967e-06
4.069844517817197e-06
4.172452726512135e-06
4.277540935571709e-06
4.385166286256047e-06
4.495387165586961e-06
4.608263231779968e-06
4.723855440155029e-06
4.842226069534024e-06
4.963438749133258e-06
5.0875584859592e-06
5.214651692716063e-06
5.344786216233652e-06
5.478031366424194e-06
5.614457945777298e-06
5.754138279401154e-06
5.897146245620185e-06
6.043557307137364e-06
6.193448542771043e-06
6.346898679775645e-06
6.503988126755674e-06
6.664799007182893e-06
6.829415193526576e-06
6.997922342006807e-06
7.170407927980506e-06
7.346961281971351e-06
7.527673626353141e-06
7.712638112697443e-06
7.901949859796611e-06
8.095705992372125e-06
8.294005680480269e-06
8.496950179625359e-06
8.704642871592208e-06
8.917189306009605e-06
9.134697242655289e-06
9.357276694515551e-06
9.5850399716101e-06
9.818101725594812e-06
1.005657899515496e-05
1.030059125219964e-05
1.055026044887252e-05
1.080571106538854e-05
1.106707015871214e-05
1.133446741208793e-05
1.160803518543805e-05
1.188790856663932e-05
1.217422542369331e-05
1.246712645780369e-05
1.276675525737357e-05
1.307325835293777e-05
1.338678527304416e-05
1.37074886010973e-05
1.403552403318032e-05
1.437105043686862e-05
1.471422991105079e-05
1.50652278467717e-05
1.54242129891125e-05
1.5791357500124e-05
1.616683702282718e-05
1.655083074629887e-05
1.694352147185629e-05
1.734509568035835e-05
1.77557436006388e-05
1.817565927908804e-05
1.860504065040076e-05
1.904408960950563e-05
1.949301208469427e-05
1.995201811196673e-05
2.04213219106116e-05
2.090114196003612e-05
2.139170107786801e-05
2.189322649934257e-05
2.240594995799677e-05
2.293010776768666e-05
2.346594090594791e-05
2.401369509871704e-05
2.457362090643386e-05
2.514597381154304e-05
2.573101430741463e-05
2.632900798870355e-05
2.694022564316663e-05
2.756494334495919e-05
2.820344254942933e-05
2.885601018943155e-05
2.952293877317937e-05
3.020452648365912e-05
3.090107727962505e-05
3.161290099819696e-05
3.234031345908125e-05
3.308363657043874e-05
3.384319843641909e-05
3.461933346638659e-05
3.541238248585479e-05
3.622269284915895e-05
3.705061855388255e-05
3.789652035706615e-05
3.876076589321739e-05
3.964372979414874e-05
4.054579381066387e-05
4.146734693611867e-05
4.240878553187897e-05
4.337051345470109e-05
4.435294218605588e-05
4.535649096342702e-05
4.638158691360146e-05
4.742866518798247e-05
4.849816909994501e-05
4.959055026426696e-05
5.070626873865179e-05
5.184579316737777e-05
5.300960092709095e-05
5.41981782747776e-05
5.54120204979353e-05
5.665163206696954e-05
5.791752678984901e-05
5.921022796903931e-05
6.05302685607461e-05
6.187819133649498e-05
6.325454904707496e-05
6.465990458887259e-05
6.609483117262759e-05
6.755991249463338e-05
6.905574291041829e-05
7.058292761092714e-05
7.214208280123915e-05
7.373383588184779e-05
7.535882563253332e-05
7.701770239885564e-05
7.871112828129719e-05
8.043977732709021e-05
8.220433572474769e-05
8.400550200134321e-05
8.58439872225537e-05
8.772051519551023e-05
8.963582267447507e-05
9.159065956938451e-05
9.35857891572872e-05
9.562198829670192e-05
9.770004764493416e-05
9.982077187838413e-05
0.0001019849799158657
0.0001041935051449824
0.0001064471956515853
0.0001087469144523443
0.0001110935397304648
0.0001134879650745891
0.0001159310997209013
0.000118423868798488
0.0001209672135779639
0.0001235620917234157
0.000126209477547685
0.0001289103622710304
0.0001316657542831934
0.0001344766794089158
0.0001373441811769205
0.0001402693210924149
0.0001432531789131294
0.0001462968529289317
0.0001494014602450598
0.0001525681370689919
0.0001557980390009952
0.0001590923413283923
0.0001624522393235678
0.0001658789485457634
0.0001693737051466765
0.00017293776617992
0.0001765724099143569
0.0001802789361513572
0.0001840586665460028
0.0001879129449322879
0.0001918431376523227
0.000195850633889612
0.0001999368460064146
0.0002041032098852195
0.000208351185274396
0.0002126822561380239
0.000217097931009958
0.0002215997433521455
0.0002261892519172555
0.0002308680411156172
0.0002356377213865413
0.0002404999295740247
0.0002454563293068998
0.0002505086113834456
0.0002556584941604885
0.0002609077239470591
0.0002662580754025935
0.0002717113519397544
0.0002772693861318683
0.0002829340401250565
0.0002887072060550325
0.0002945908064686729
0.0003005867947503162
0.00030669715555289
0.000312923905233861
0.000319269092296039
0.0003257347978333019
0.0003323231359812129
0.0003390362543726416
0.0003458763345983343
0.0003528455926725394
0.0003599462795036629
0.0003671806813700265
0.0003745511204007243
0.0003820599550616347
0.0003897095806466043
0.0003975024297738309
0.0004054409728874902
0.0004135277187646072
0.000421765215027239
0.0004301560486599491
0.0004387028465326546
0.0004474082759288392
0.0004562750450791442
0.0004653059037004194
0.0004745036435401931
0.0004838710989266614
0.0004934111473241452
0.000503126709894068
0.0005130207520615401
0.0005230962840874528
0.0005333563616462162
0.0005438040864091004
0.0005544426066332221
0.0005652751177561948
0.0005763048629964687
0.0005875351339593831
0.0005989692712489171
0.0006106106650852196
0.0006224627559278885
0.0006345290351050248
0.0006468130454480765
0.0006593183819325424
0.000672048692324443
0.0006850076778326812
0.0006981990937672466
0.0007116267502032969
0.0007252945126511175
0.0007392063027319913
0.0007533660988599552
0.0007677779369295073
0.0007824459110092146
0.0007973741740412498
0.0008125669385469294
0.0008280284773381192
0.0008437631242346759
0.0008597752747877851
0.0008760693870093145
0.0008926499821070996
0.0009095216452262303
0.0009266890261962862
0.0009441568402845429
0.0009619298689551637
0.0009800129606343639
0.0009984110314814937
0.001017129066166147
0.001036172118651171
0.001055545312981657
0.001075253844079845
0.001095302978545973
0.001115698055465051
0.001136444487219545
0.001157547760307925
0.001179013436169125
0.001200847152012879
0.001223054621655865
0.001245641636363717
0.00126861406569884
0.001291977858373999
0.001315739043111687
0.001339903729509266
0.001364478108909743
0.001389468455278386
0.001414881126084827
0.001440722563190941
0.001466999293744256
0.001493717931076957
0.001520885175610444
0.001548507815765345
0.001576592728877044
0.001605146882116578
0.001634177333416979
0.001663691232404914
0.001693695821337641
0.001724198436045182
0.001755206506877751
0.001786727559658314
0.001818769216640211
0.001851339197469901
0.001884445320154647
0.001918095502035132
0.001952297760762999
0.001987060215283186
0.002022391086820976
0.002058298699873811
0.00209479148320768
0.002131877970858067
0.002169566803135382
0.002207866727634815
0.002246786600250562
0.002286335386194226
0.002326522161017436
0.002367356111638632
0.002408846537373741
0.002451002850970932
0.002493834579649074
0.002537351366140012
0.002581562969734568
0.002626479267331977
0.002672110254492909
0.002718466046495814
0.002765556879396495
0.002813393111090968
0.00286198522238128
0.002911343818044306
0.002961479627903436
0.0030124035079029
0.00306412644118485
0.003116659539168725
0.003170014042633248
0.003224201322800462
0.003279232882422049
0.0033351203568675
0.003391875515214324
0.003449510261339865
0.003508036635014763
0.003567466812997878
0.003627813110132517
0.003689087980443936
0.003751304018237733
0.003814473959199215
0.003878610681493448
0.00394372720686596
0.004009836701743832
0.004076952478336954
0.004145087995739551
0.004214256861031533
0.004284472830379689
0.004355749810138335
0.004428101857949582
0.004501543183842712
0.004576088151332676
0.004651751278517477
0.00472854723917425
0.00480649086385387
0.00488559714097384
0.00496588121790942
0.005047358402082608
0.005130044162048804
0.005213954128581173
0.005299104095752219
0.005385510022012555
0.005473188031266488
0.005562154413944455
0.005652425628071797
0.00574401830033395
0.005836949227137494
0.005931235375667253
0.006026893884938773
0.006123942066846351
0.006222397407206062
0.00632227756679362
0.006423600382377226
0.006526383867744489
0.006630646214723506
0.006736405794198193
0.006843681157116995
0.006952491035495027
0.007062854343409605
0.007174790177988289
0.00728831782039006
0.007403456736778392
0.007520226579286671
0.007638647186975568
0.007758738586781699
0.007880520994457586
0.008004014815502928
0.008129240646086347
0.008256219273957444
0.008384971679349474
0.008515519035871248
0.008647882711389302
0.00878208426889863
0.008918145467382873
0.009056088262663091
0.009195934808234796
0.009337707456093032
0.009481428757545384
0.009627121464012085
0.009774808527813719
0.009924513102945311
0.0100762585458371
0.01023006841610153
0.01038596647726585
0.01054397669749033
0.01070412325027197
0.01086643051513244
0.01103092307829105
0.01119762573332185
0.01136656348179414
0.01153776153389692
0.01171124530904656
0.01188704043647665
0.0120651727558111
0.0122456683176187
0.01242855338395011
0.01261385442885533
0.01280159813888323
0.01299181141356076
0.01318452136585373
0.01337975532260608
0.01357754082495993
0.01377790562875447
0.01398087770490332
0.01418648523975119
0.014394756635408
0.01460572051006089
0.01481940569826382
0.01503584125120418
0.0152550564369456
0.01547708074064763
0.01570194386476062
0.01592967572919661
0.01616030647147532
0.01639386644684427
0.01663038622837389
0.01686989660702654
0.01711242859169836
0.0173580134092352
0.0176066825044208
0.0178584675399377
0.01811340039629986
0.0183715131717567
0.01863283818216929
0.01889740796085635
0.01916525525841101
0.0194364130424881
0.0197109144975602
0.01998879302464383
0.02027008224099376
0.02055481597976679
0.02084302828965201
0.0211347534344706
0.02143002589274133
0.02172888035721423
0.02203135173436972
0.02233747514388453
0.02264728591806319
0.02296081960123461
0.02327811194911421
0.02359919892812941
0.02392411671471069
0.02425290169454546
0.02458559046179589
0.02492221981827929
0.02526282677261133
0.02560744853931146
0.02595612253786996
0.02630888639177727
0.02666577792751316
0.02702683517349779
0.0273920963590021
0.0277615999130192
0.02813538446309422
0.02851348883411431
0.02889595204705735
0.02928281331769827
0.02967411205527521
0.03006988786111127
0.03047018052719554
0.03087503003472045
0.03128447655257545
0.03169856043579791
0.03211732222397914
0.03254080263962699
0.03296904258648239
0.03340208314779262
0.03383996558453836
0.03428273133361445
0.03473042200596577
0.03518307938467631
0.0356407454230117
0.03610346224241408
0.03657127213045148
0.03704421753871752
0.03752234108068451
0.03800568552950818
0.0384942938157843
0.03898820902525509
0.03948747439646855
0.03999213331838783
0.04050222932795016
0.04101780610757647
0.04153890748263133
0.0420655774188333
0.04259786001961237
0.04313579952341669
0.04367944030097284
0.04422882685248815
0.0447840038048057
0.04534501590850729
0.04591190803496212
0.04648472517332559
0.04706351242748568
0.04764831501295386
0.04823917825370801
0.04883614757897806
0.04943926851998
0.0500485867065983
0.05066414786401204
0.05128599780926976
0.05191418244780876
0.05254874776992235
0.05318973984717121
0.0538372048287425
0.05449118893775288
0.05515173846749901
0.0558188997776525
0.05649271929039953
0.05717324348652889
0.05786051890146145
0.05855459212122857
0.05925550977839283
0.05996331854791508
0.06067806514296772
0.06139979631069084
0.06212855882789535
0.06286439949671078
0.06360736514017722
0.06435750259778313
0.06511485872094977
0.06587948036845635
0.06665141440181685
0.06743070768059577
0.06821740705767274
0.06901155937445295
0.06981321145602096
0.07062241010624117
0.07143920210280416
0.07226363419221833
0.07309575308474717
0.07393560544929473
0.07478323790823448
0.07563869703218608
0.07650202933473865
0.07737328126712031
0.07825249921281408
0.07913972948212436
0.08003501830668566
0.08093841183392178
0.08184995612145375
0.08276969713145314
0.08369768072494564
0.08463395265606358
0.0855785585662447
0.08653154397838458
0.08749295429093362
0.08846283477194666
0.08944123055308428
0.09042818662356043
0.09142374782404521
0.09242795884051536
0.09344086419805958
0.09446250825463384
0.09549293519476999
0.09653218902323672
0.0975803135586546
0.09863735242706541
0.09970334905545351
0.1007783466652245
0.1018623882656383
0.1029555166471975
0.1040577743749909
0.1051692037819989
0.1062898469623486
0.1074197457645337
0.108558941784589
0.1097074763592251
0.1108653905589227
0.1120327251809884
0.1132095207425688
0.1143958174736282
0.1155916553098893
0.1167970738857329
0.1180121125270676
0.1192368102441558
0.1204712057244117
0.1217153373251615
0.1229692430663703
0.1242329606233367
0.1255065273193559
0.1267899801183504
0.1280833556174705
0.1293866900396664
0.1307000192262274
0.1320233786293006
0.1333568033043746
0.1347003279027398
0.1360539866639262
0.137417813408112
0.1387918415285103
0.1401761039837348
0.14157063329014
0.1429754615141448
0.1443906202645318
0.1458161406847302
0.1472520534450819
0.1486983887350876
0.150155176255636
0.151622445211222
0.1531002243021516
0.154588541716725
0.1560874251234198
0.1575969016630538
0.1591169979409424
0.1606477400190499
0.1621891534081247
0.1637412630598365
0.165304093358904
0.1668776681152207
0.1684620105559727
0.1700571433177635
0.171663088438727
0.1732798673506506
0.1749075008710945
0.1765460091955147
0.1781954118893914
0.1798557278803612
0.1815269754503582
0.1832091722277585
0.1849023351795374
0.1866064806034379
0.1883216241201456
0.1900477806654802
0.1917849644826005
0.1935331891142276
0.195292467394876
0.197062811443114
0.1988442326538352
0.2006367416905577
0.2024403484777345
0.2042550621931018
0.2060808912600392
0.2079178433399644
0.2097659253247527
0.2116251433291821
0.213495502683416
0.2153770079255098
0.2172696627939592
0.2191734702202736
0.2210884323215917
0.2230145503933339
0.2249518249018947
0.2269002554773677
0.2288598409063252
0.2308305791246262
0.2328124672102841
0.2348055013763676
0.236809676963959
0.238824988435154
0.2408514293661164
0.2428889924401853
0.2449376694410324
0.2469974512458772
0.2490683278187557
0.2511502882038527
0.2532433205188836
0.2553474119485519
0.2574625487380519
0.2595887161866507
0.2617258986413228
0.2638740794904643
0.2660332411576631
0.2682033650955494
0.2703844317797098
0.2725764207026779
0.2747793103680047
0.2769930782843906
0.2792177009599082
0.2814531538963014
0.2836994115833574
0.2859564474933705
0.2882242340756844
0.2905027427513169
0.2927919439076797
0.2950918068933727
0.2974023000130825
0.2997233905225587
0.3020550446236923
0.3043972274596842
0.3067499031103025
0.3091130345872486
0.3114865838296144
0.3138705116994358
0.3162647779773586
0.3186693413583891
0.3210841594477712
0.3235091887569445
0.3259443846996289
0.328389701588007
0.3308450926290203
0.3333105099207678
0.3357859044490305
0.338271226083898
0.3407664235765163
0.3432714445559493
0.3457862355261556
0.3483107418630914
0.3508449078119257
0.3533886764843835
0.3559419898562026
0.3585047887647305
0.3610770129066271
0.3636586008357106
0.3662494899609193
0.3688496165444117
0.3714589156997906
0.3740773213904596
0.3767047664281157
0.379341182471372
0.3819865000245163
0.3846406484364089
0.3873035558995112
0.3899751494490566
0.392655354962368
0.395344097158297
0.3980412995968201
0.4007468846787808
0.403460773645753
0.4061828865800823
0.4089131424050334
0.4116514588851228
0.4143977526265701
0.4171519390779136
0.4199139325307709
0.4226836461207414
0.425460991828477
0.4282458804808892
0.4310382217525178
0.4338379241670439
0.4366448950989729
0.4394590407754508
0.4422802662782639
0.4451084755459616
0.4479435713761654
0.4507854554280223
0.4536340282248175
0.4564891891567447
0.4593508364838463
0.4622188673390945
0.4650931777316563
0.4679736625502993
0.4708602155669763
0.4737527294405557
0.4766510957207276
0.4795552048520689
0.4824649461782672
0.4853802079465178
0.4883008773120751
0.4912268403429723
0.4941579820249145
0.4970941862663216
0.5000353359035405
0.5029813127062371
0.5059319973829348
0.5088872695867296
0.5118470079211646
0.5148110899462822
0.5177793921848248
0.5207517901286187
0.5237281582451111
0.5267083699840834
0.5296922977845202
0.5326798130816578
0.5356707863141786
0.5386650869315938
0.5416625834017774
0.5446631432186662
0.5476666329101256