/*--------------------------------*- C++ -*----------------------------------*\
| =========                 |                                                 |
| \\      /  F ield         | OpenFOAM: The Open Source CFD Toolbox           |
|  \\    /   O peration     | Version:  2412                                  |
|   \\  /    A nd           | Website:  www.openfoam.com                      |
|    \\/     M anipulation  |                                                 |
\*---------------------------------------------------------------------------*/
FoamFile
{
    version     2.0;
    format      ascii;
    arch        "LSB;label=32;scalar=64";
    class       volScalarField;
    location    "9";
    object      p;
}
// * * * * * * * * * * * * * * * * * * * * * * * * * * * * * * * * * * * * * //

dimensions      [0 2 -2 0 0 0 0];

internalField   nonuniform List<scalar> 
2200
(
0.956557
0.956746
0.958392
0.964149
0.978272
1.00787
1.06308
1.15761
1.3106
1.53906
1.79899
2.01707
2.16556
2.26027
2.31595
2.34651
2.36126
2.3676
2.36989
2.37015
0.951291
0.951591
0.953407
0.959104
0.97321
1.00358
1.0596
1.15522
1.30861
1.53693
1.79591
2.01441
2.16534
2.26125
2.31646
2.34563
2.36006
2.36576
2.36752
2.36759
0.941801
0.941984
0.944126
0.950389
0.965258
0.996065
1.05312
1.15041
1.30394
1.53446
1.79586
2.01801
2.17076
2.26502
2.31975
2.34844
2.36165
2.36687
2.36832
2.36846
0.92826
0.928456
0.930875
0.937779
0.953472
0.984728
1.04258
1.14149
1.29743
1.53276
1.79922
2.02476
2.17847
2.2736
2.32797
2.35525
2.3677
2.37288
2.37461
2.37492
0.907269
0.907252
0.909728
0.917198
0.933795
0.96648
1.02588
1.12755
1.28819
1.53078
1.80324
2.03345
2.19055
2.28567
2.33926
2.36727
2.38084
2.38661
2.38861
2.38894
0.878719
0.878509
0.880311
0.88648
0.903458
0.938277
1.00137
1.10637
1.27321
1.52577
1.80793
2.04411
2.20246
2.30122
2.35744
2.38678
2.40164
2.40832
2.41072
2.41102
0.844894
0.845237
0.84717
0.852155
0.866451
0.900006
0.965187
1.07624
1.2524
1.51662
1.80978
2.05502
2.22046
2.32233
2.38122
2.41322
2.42953
2.43767
2.44078
2.441
0.795326
0.795859
0.798173
0.804211
0.819481
0.853442
0.919062
1.03486
1.22168
1.5021
1.81222
2.06927
2.24132
2.35018
2.41394
2.44929
2.46808
2.47703
2.48027
2.48036
0.726724
0.727005
0.729688
0.736962
0.754348
0.790043
0.860267
0.982009
1.18067
1.4812
1.81256
2.08594
2.27129
2.38897
2.45874
2.49745
2.51672
2.52481
2.528
2.52851
0.643062
0.642827
0.646263
0.655766
0.675455
0.714282
0.788103
0.919116
1.13273
1.4555
1.81439
2.1136
2.31685
2.44425
2.51891
2.55923
2.5781
2.58555
2.58924
2.59031
0.550714
0.549905
0.552915
0.564059
0.587161
0.630662
0.711774
0.853031
1.08309
1.43058
1.82143
2.15244
2.37955
2.52112
2.60189
2.64434
2.66418
2.67201
2.67594
2.67741
0.451049
0.450187
0.454285
0.467075
0.492427
0.53984
0.629474
0.785727
1.03699
1.41131
1.84007
2.21292
2.46846
2.6251
2.7142
2.76088
2.78221
2.79107
2.7949
2.79632
0.337979
0.337388
0.340086
0.353361
0.384814
0.444017
0.546463
0.718501
0.993423
1.40327
1.87982
2.29687
2.58151
2.75612
2.85501
2.90515
2.92825
2.93835
2.94166
2.94267
0.196052
0.196131
0.20058
0.212774
0.245077
0.313954
0.436689
0.635051
0.946493
1.40754
1.94051
2.40157
2.71342
2.90406
3.00906
3.06266
3.08965
3.10178
3.10475
3.10525
0.0184728
0.018205
0.0225632
0.0365229
0.0732978
0.147934
0.28424
0.513585
0.880613
1.41368
2.01479
2.51715
2.85123
3.05484
3.16582
3.22434
3.25658
3.27078
3.27403
3.27422
-0.204373
-0.203528
-0.197652
-0.184257
-0.146588
-0.0607557
0.0948271
0.3572
0.78442
1.40204
2.08261
2.62932
2.98794
3.20775
3.33143
3.39533
3.4298
3.44607
3.45101
3.45165
-0.486848
-0.48673
-0.479771
-0.462936
-0.422626
-0.331628
-0.153895
0.151712
0.64982
1.35777
2.12836
2.73966
3.13488
3.3758
3.51484
3.58774
3.62219
3.63936
3.64533
3.64583
-0.819902
-0.82005
-0.813128
-0.791958
-0.74241
-0.639591
-0.445387
-0.100503
0.46967
1.27705
2.1547
2.84978
3.29731
3.56986
3.7276
3.81094
3.84532
3.86146
3.86814
3.86906
-1.21941
-1.21845
-1.20956
-1.18514
-1.12444
-1.00154
-0.776977
-0.386157
0.263191
1.17591
2.17481
2.97515
3.48857
3.79659
3.97394
4.06335
4.09891
4.11433
4.12108
4.12162
-1.68595
-1.68539
-1.67605
-1.64802
-1.57858
-1.43668
-1.17384
-0.710925
0.0435684
1.0798
2.21149
3.12417
3.71112
4.05528
4.24475
4.33892
4.37844
4.39383
4.4007
4.40102
-2.25696
-2.2551
-2.24214
-2.20491
-2.11657
-1.94605
-1.62882
-1.07334
-0.183333
1.01009
2.29565
3.31564
3.96005
4.33745
4.53642
4.63349
4.67862
4.69607
4.70395
4.70388
-2.9382
-2.9364
-2.92424
-2.88501
-2.77878
-2.5602
-2.15655
-1.47116
-0.405666
0.980096
2.43543
3.56062
4.26041
4.65111
4.84939
4.94985
4.99823
5.01783
5.02744
5.0273
-3.80568
-3.80026
-3.77495
-3.71456
-3.57809
-3.29493
-2.77554
-1.91163
-0.62732
0.989555
2.63809
3.86185
4.59895
5.00029
5.19256
5.28815
5.33941
5.3619
5.37401
5.37422
-4.86068
-4.85459
-4.83151
-4.74673
-4.5419
-4.15219
-3.47224
-2.39074
-0.850993
1.02634
2.89314
4.21728
4.98069
5.37877
5.56825
5.65972
5.70759
5.73222
5.74707
5.74784
-6.25155
-6.22369
-6.14627
-5.98543
-5.67367
-5.12712
-4.2378
-2.89691
-1.07764
1.08116
3.18023
4.6163
5.41109
5.80383
5.98411
6.05937
6.08939
6.10525
6.1164
6.11861
-7.99661
-7.93677
-7.77697
-7.4724
-6.97308
-6.20198
-5.05451
-3.4081
-1.28506
1.17243
3.50981
5.06607
5.88388
6.27242
6.43713
6.4856
6.49025
6.48883
6.48806
6.49855
-10.1657
-9.98745
-9.63127
-9.10191
-8.3515
-7.30737
-5.86205
-3.88107
-1.42134
1.371
3.9704
5.6618
6.53161
6.91763
7.05698
7.09869
7.10068
7.10108
7.09205
7.10683
-12.5346
-12.0438
-11.4378
-10.7075
-9.73179
-8.40732
-6.62232
-4.28006
-1.45429
1.71179
4.61828
6.4648
7.40446
7.80732
7.95898
8.02943
8.04073
8.05699
8.05604
8.07352
-14.7593
-14.0582
-13.2597
-12.3182
-11.0699
-9.43679
-7.29789
-4.58736
-1.38309
2.16179
5.36559
7.35366
8.32964
8.758
8.9413
9.00232
9.03556
9.05201
9.05786
9.06702
-16.4601
-15.7018
-14.8549
-13.7789
-12.3289
-10.3974
-7.89617
-4.80067
-1.21398
2.69276
6.17318
8.27982
9.27972
9.73346
9.92553
9.998
10.0341
10.0556
10.067
10.0742
-17.8931
-16.9923
-16.1476
-14.9675
-13.3403
-11.1921
-8.39192
-4.93144
-0.984466
3.2329
6.95687
9.18869
10.2049
10.7069
10.9212
11.0013
11.038
11.0557
11.0634
11.068
-18.9935
-18.003
-17.179
-15.9129
-14.1457
-11.816
-8.77659
-5.00231
-0.765515
3.70194
7.65534
10.0165
11.1362
11.6649
11.8765
11.958
11.9956
12.0123
12.0228
12.0268
-19.7857
-18.8186
-18.0222
-16.6278
-14.7613
-12.3109
-9.0819
-5.05228
-0.594778
4.08738
8.28532
10.7876
12.0072
12.5578
12.7666
12.8473
12.8965
12.9242
12.9391
12.9412
-20.3707
-19.4588
-18.6178
-17.1655
-15.2433
-12.701
-9.31888
-5.10091
-0.4562
4.45092
8.86219
11.5036
12.7892
13.3491
13.5788
13.6825
13.7367
13.7672
13.7868
13.786
-20.7986
-19.9058
-19.0134
-17.5791
-15.6159
-12.9912
-9.49522
-5.13976
-0.315069
4.811
9.38892
12.1435
13.4767
14.0726
14.3287
14.4462
14.5143
14.5498
14.5693
14.5703
-21.0905
-20.2028
-19.2951
-17.8518
-15.8859
-13.1974
-9.62511
-5.15052
-0.170103
5.13705
9.84216
12.6897
14.0834
14.7237
15.0134
15.1494
15.2234
15.2692
15.2983
15.2966
-21.2824
-20.4351
-19.4633
-18.0088
-16.0364
-13.3252
-9.69635
-5.13874
-0.0493823
5.3833
10.1962
13.135
14.6098
15.3132
15.6363
15.7906
15.8791
15.9261
15.9552
15.9542
-21.4096
-20.5845
-19.5501
-18.0712
-16.0873
-13.3729
-9.71444
-5.12057
0.0230703
5.52993
10.4476
13.493
15.0683
15.8397
16.1991
16.371
16.469
16.5289
16.5683
16.5647
-21.4958
-20.6704
-19.6002
-18.0771
-16.0712
-13.3548
-9.69637
-5.103
0.0524681
5.5976
10.6197
13.7876
15.4647
16.3009
16.7037
16.9009
17.0157
17.08
17.1277
17.1212
-21.5494
-20.7329
-19.6338
-18.064
-16.0196
-13.2976
-9.65722
-5.08077
0.0662676
5.6303
10.7472
14.0408
15.8138
16.7126
17.1501
17.3697
17.5009
17.5799
17.6378
17.6287
-21.5881
-20.778
-19.66
-18.0528
-15.9679
-13.2276
-9.60076
-5.04085
0.0945162
5.6688
10.8594
14.2631
16.1178
17.0709
17.5412
17.7878
17.946
18.0417
18.1018
18.0867
-21.6296
-20.8157
-19.6814
-18.0581
-15.9369
-13.1634
-9.53028
-4.97742
0.151115
5.73096
10.967
14.4503
16.3725
17.3794
17.8919
18.1621
18.3422
18.445
18.5101
18.4945
-21.6698
-20.852
-19.7103
-18.0807
-15.9333
-13.119
-9.45908
-4.9003
0.227779
5.8096
11.0663
14.5985
16.5722
17.6293
18.1924
18.4998
18.6986
18.8033
18.8599
18.854
-21.7139
-20.895
-19.7496
-18.1196
-15.9577
-13.1078
-9.41153
-4.83535
0.298869
5.88196
11.1471
14.7048
16.7132
17.8195
18.4457
18.8066
19.0506
19.145
19.1587
19.1735
-21.7611
-20.9514
-19.8017
-18.171
-16.0131
-13.1442
-9.41807
-4.81734
0.332087
5.92173
11.1963
14.7658
16.7953
17.949
18.6436
19.0933
19.3931
19.5387
19.4783
19.473
-21.8211
-21.0198
-19.8627
-18.2431
-16.1079
-13.2426
-9.50521
-4.87918
0.296691
5.90589
11.1999
14.7803
16.8228
18.0227
18.7877
19.3316
19.7453
20.0088
19.9556
19.7436
-21.8987
-21.0955
-19.9408
-18.3393
-16.2385
-13.3988
-9.67091
-5.02156
0.188979
5.82934
11.1472
14.7395
16.7953
18.0394
18.8686
19.5017
20.0585
20.5818
20.6971
20.52
-21.9943
-21.1821
-20.0384
-18.4497
-16.3887
-13.5896
-9.88536
-5.217
0.0245463
5.69412
11.0247
14.6228
16.6878
17.9784
18.8581
19.5616
20.1877
20.652
20.6819
20.5506
-22.0986
-21.2812
-20.1533
-18.5749
-16.5488
-13.7925
-10.1156
-5.43408
-0.171977
5.51662
10.8385
14.4295
16.4945
17.8158
18.7019
19.3824
19.9487
20.2838
20.2207
20.0893
-22.2024
-21.3948
-20.2848
-18.723
-16.723
-14.0013
-10.3497
-5.66417
-0.39408
5.301
10.5952
14.1663
16.229
17.5364
18.3884
18.9919
19.3918
19.5318
19.4725
19.4272
-22.3034
-21.5258
-20.4392
-18.9016
-16.9164
-14.2148
-10.5825
-5.90631
-0.640631
5.04842
10.3053
13.8502
15.8974
17.1412
17.9143
18.4084
18.6964
18.7662
18.6944
18.6931
-22.3993
-21.6725
-20.6103
-19.1088
-17.1284
-14.4309
-10.8142
-6.16004
-0.910824
4.76045
9.97978
13.4929
15.4941
16.6417
17.3136
17.7085
17.9169
17.8924
17.7315
17.8102
-22.4895
-21.8137
-20.7744
-19.3082
-17.3328
-14.6299
-11.0284
-6.40732
-1.18822
4.45195
9.63195
13.1004
15.0192
16.0551
16.6159
16.8929
16.9686
16.8716
16.7066
16.7894
-22.5698
-21.9192
-20.8905
-19.4567
-17.4883
-14.7807
-11.1968
-6.61859
-1.44287
4.15034
9.28021
12.6785
14.4864
15.3954
15.8394
16.007
15.9365
15.6633
15.349
15.35
-22.6311
-21.9766
-20.9452
-19.5306
-17.5723
-14.8691
-11.306
-6.77634
-1.65421
3.87594
8.93302
12.2332
13.9169
14.6931
15.0037
15.0449
14.8407
14.1672
13.2119
13.1082
-22.666
-21.9894
-20.9459
-19.5357
-17.5882
-14.8984
-11.361
-6.87905
-1.81665
3.636
8.59089
11.7658
13.3298
13.9799
14.1447
14.0285
13.6688
12.6351
10.6937
8.99608
-22.6711
-21.964
-20.9084
-19.4916
-17.5508
-14.8819
-11.376
-6.93638
-1.93459
3.4301
8.25217
11.2967
12.7519
13.2935
13.3209
13.0203
12.4497
11.46
8.47688
0.583736
-22.6444
-21.9159
-20.8418
-19.4155
-17.4782
-14.8324
-11.3604
-6.96188
-2.01972
3.24972
7.91651
10.8269
12.1815
12.6451
12.5695
12.1199
11.4551
10.7411
10.3085
7.33575
-22.6005
-21.8548
-20.7645
-19.3261
-17.3896
-14.7672
-11.3301
-6.97965
-2.10261
3.0656
7.57965
10.3518
11.6203
12.0518
11.9707
11.5694
11.0916
10.9591
11.7201
11.0004
-22.5288
-21.7844
-20.684
-19.2394
-17.3044
-14.7029
-11.3012
-7.00832
-2.20615
2.85789
7.23573
9.90222
11.1024
11.5584
11.5858
11.3832
11.1187
11.0375
11.4555
11.0374
-22.4473
-21.6984
-20.6003
-19.1563
-17.2285
-14.6502
-11.2862
-7.0583
-2.33824
2.62279
6.88742
9.48609
10.6598
11.1885
11.375
11.3762
11.2297
11.0062
11.1018
11.0536
-22.331
-21.6036
-20.5083
-19.0703
-17.1591
-14.6089
-11.288
-7.13087
-2.49387
2.37107
6.54174
9.1047
10.3183
10.9395
11.2659
11.4148
11.352
11.1072
11.1938
11.2315
-22.1989
-21.4719
-20.391
-18.973
-17.0832
-14.5673
-11.2984
-7.21715
-2.66124
2.11816
6.21433
8.77732
10.0659
10.7862
11.2075
11.4523
11.5119
11.3554
11.4471
11.481
-22.0242
-21.3178
-20.2457
-18.8444
-16.9851
-14.5126
-11.3016
-7.30102
-2.82625
1.8768
5.92099
8.50723
9.88368
10.7007
11.1847
11.5043
11.7065
11.6886
11.7635
11.7771
-21.8064
-21.1066
-20.0545
-18.6789
-16.8537
-14.4281
-11.282
-7.36715
-2.97506
1.65666
5.66847
8.28744
9.74534
10.6482
11.212
11.6032
11.9437
12.059
12.1347
12.1389
-21.5326
-20.8443
-19.8068
-18.4606
-16.6735
-14.3044
-11.2305
-7.40584
-3.09977
1.46176
5.45065
8.10438
9.63546
10.6201
11.2771
11.7603
12.1747
12.4082
12.5129
12.5166
-21.1757
-20.5166
-19.4987
-18.1784
-16.4366
-14.1336
-11.1403
-7.41381
-3.19903
1.29025
5.25684
7.94096
9.54386
10.6204
11.3772
11.9366
12.4083
12.7
12.817
12.8192
-20.7309
-20.0875
-19.0975
-17.8236
-16.1386
-13.9106
-11.0099
-7.3917
-3.27626
1.13376
5.07527
7.78443
9.4595
10.632
11.4798
12.0975
12.5822
12.9077
13.0382
13.0515
-20.1802
-19.5705
-18.6187
-17.387
-15.7727
-13.6351
-10.8411
-7.34305
-3.33748
0.983702
4.89165
7.61976
9.36648
10.6257
11.5464
12.2075
12.7181
13.0979
13.2594
13.2843
-19.4621
-18.9311
-18.0207
-16.866
-15.3476
-13.315
-10.6398
-7.27412
-3.39052
0.82883
4.69043
7.4301
9.24499
10.5812
11.5726
12.2971
12.8664
13.3125
13.5151
13.5506
-18.5804
-18.1121
-17.3035
-16.2555
-14.8527
-12.9479
-10.4086
-7.19172
-3.44352
0.659332
4.45813
7.19312
9.06964
10.4896
11.5692
12.3721
12.9953
13.4793
13.721
13.7692
-17.566
-17.1648
-16.4905
-15.5774
-14.3122
-12.5503
-10.1602
-7.10324
-3.50451
0.463674
4.17563
6.88905
8.82129
10.3226
11.4727
12.3167
12.9576
13.4478
13.7248
13.793
-16.3594
-16.1641
-15.6237
-14.8474
-13.7403
-12.1363
-9.90421
-7.01877
-3.58653
0.227837
3.82363
6.49369
8.44349
9.96732
11.1253
11.9658
12.6067
13.1069
13.4197
13.5132
-15.229
-15.1025
-14.7485
-14.1438
-13.1971
-11.7414
-9.66747
-6.95972
-3.70844
-0.0630574
3.37197
5.9487
7.84552
9.318
10.4389
11.2669
11.9103
12.4248
12.7648
12.8816
-14.4672
-14.3604
-14.0647
-13.5711
-12.7439
-11.4123
-9.4747
-6.9342
-3.87355
-0.431568
2.78791
5.2104
6.99006
8.36518
9.42604
10.2313
10.8615
11.3621
11.7162
11.8612
-14.0057
-13.9235
-13.7681
-13.327
-12.5135
-11.2075
-9.34741
-6.94662
-4.08075
-0.884778
2.07585
4.30726
5.9351
7.18021
8.14565
8.87641
9.43285
9.85958
10.1693
10.3241
-13.9204
-13.8494
-13.9801
-13.5217
-12.5525
-11.1269
-9.26036
-6.96393
-4.28452
-1.33676
1.39753
3.46197
4.95882
6.09288
6.95916
7.57237
8.00675
8.31992
8.53363
8.6387
-15.1084
-15.1688
-15.2046
-14.1512
-12.752
-11.0746
-9.14631
-6.92296
-4.41302
-1.69651
0.827487
2.72005
4.09047
5.12684
5.89568
6.40475
6.74057
6.96716
7.10494
7.16037
-15.8806
-16.2437
-15.8438
-14.3339
-12.6361
-10.8489
-8.91428
-6.7782
-4.44204
-1.95952
0.320356
1.9956
3.19813
4.09164
4.73404
5.13607
5.387
5.54798
5.64087
5.6756
-13.6684
-13.8584
-13.6242
-12.7271
-11.479
-9.97581
-8.27609
-6.38042
-4.29825
-2.08691
-0.0904665
1.34734
2.36167
3.09747
3.61501
3.93057
4.12561
4.25158
4.32472
4.35533
-9.56621
-9.65122
-9.64228
-9.44618
-8.98193
-8.15892
-7.02171
-5.58218
-3.89555
-2.05357
-0.395186
0.804395
1.6281
2.21768
2.63657
2.89429
3.05615
3.16318
3.22835
3.25341
-5.82849
-5.88042
-5.97423
-6.07837
-6.07322
-5.84192
-5.31255
-4.4288
-3.24524
-1.87059
-0.58359
0.390513
1.04074
1.50856
1.85896
2.07337
2.2089
2.30417
2.36471
2.38871
-3.044
-3.10252
-3.22515
-3.40942
-3.59333
-3.67031
-3.5559
-3.15294
-2.46583
-1.56038
-0.635176
0.127143
0.634796
1.00323
1.30464
1.47686
1.58852
1.67689
1.73028
1.75397
-1.33987
-1.37131
-1.46539
-1.6131
-1.79061
-1.95508
-2.04676
-1.96843
-1.67137
-1.15939
-0.546127
0.0168704
0.410907
0.690625
0.947377
1.07804
1.17571
1.24734
1.28904
1.3056
-0.331309
-0.365334
-0.452041
-0.574609
-0.707684
-0.836861
-0.95853
-1.01778
-0.95691
-0.723117
-0.357289
0.0334325
0.320062
0.537117
0.721653
0.831254
0.906554
0.957762
0.985391
0.994446
0.197163
0.164614
0.07675
-0.0431446
-0.157538
-0.245232
-0.332976
-0.399365
-0.416704
-0.332001
-0.132593
0.117045
0.312405
0.466694
0.59824
0.676592
0.727461
0.758717
0.773408
0.777073
0.420967
0.396842
0.316528
0.20265
0.0976033
0.0247795
-0.038721
-0.0819982
-0.0952691
-0.05327
0.0576271
0.209584
0.33815
0.441104
0.52841
0.578481
0.604933
0.617745
0.62171
0.622511
0.487089
0.470801
0.404554
0.303202
0.20626
0.131373
0.0742994
0.0464216
0.0540663
0.0984331
0.174416
0.274676
0.360376
0.424542
0.475292
0.498736
0.50859
0.51115
0.509913
0.509178
0.485097
0.474135
0.423301
0.337946
0.246219
0.164116
0.0999926
0.074952
0.0967296
0.151215
0.220092
0.299363
0.357541
0.391481
0.414452
0.41976
0.42193
0.420648
0.41743
0.41564
0.451247
0.444008
0.408268
0.34503
0.267199
0.183951
0.104485
0.0667974
0.0840542
0.141391
0.21174
0.281598
0.321411
0.333054
0.341682
0.340696
0.33822
0.334633
0.330794
0.328627
0.397775
0.39304
0.370785
0.331874
0.280534
0.215313
0.133604
0.078078
0.0704555
0.108369
0.16997
0.227243
0.253476
0.254181
0.258119
0.256701
0.253595
0.250282
0.247377
0.245925
0.337331
0.334624
0.323341
0.303338
0.279224
0.243351
0.183153
0.126251
0.0908967
0.0895466
0.120715
0.15558
0.171987
0.171564
0.174271
0.172293
0.170824
0.170719
0.17058
0.170096
0.284241
0.283025
0.279141
0.271104
0.263554
0.250614
0.219608
0.180821
0.134962
0.0997047
0.0890643
0.0961894
0.106105
0.106953
0.109655
0.104791
0.102851
0.103628
0.103127
0.102679
0.245061
0.24432
0.243822
0.241235
0.239848
0.236803
0.223417
0.206185
0.1708
0.125472
0.0867753
0.0710893
0.0731342
0.0699268
0.0701746
0.0633312
0.0575923
0.0533026
0.0491175
0.0477874
0.218954
0.217936
0.217721
0.215079
0.212528
0.208342
0.199741
0.195154
0.174531
0.139917
0.100919
0.0752848
0.0673804
0.0546756
0.0490761
0.0387893
0.0291452
0.019697
0.0113663
0.00903651
0.20139
0.199724
0.197607
0.191245
0.183424
0.172529
0.160605
0.158221
0.148368
0.133255
0.111609
0.0858518
0.0708747
0.0501611
0.0374708
0.0230005
0.0102797
-0.00182914
-0.0132077
-0.0160534
0.184473
0.182687
0.178159
0.167865
0.155552
0.138898
0.12232
0.116141
0.110135
0.111968
0.10883
0.0884791
0.0740239
0.0485815
0.0311212
0.0120496
-0.00235107
-0.0150786
-0.0285977
-0.0310747
0.162415
0.160664
0.154832
0.143936
0.132338
0.116162
0.0985477
0.0880318
0.0786449
0.0813382
0.0857537
0.0737837
0.0658874
0.0402754
0.0224948
0.00421184
-0.0106762
-0.0214713
-0.0353681
-0.0369299
0.132189
0.131319
0.126303
0.118537
0.112846
0.102867
0.0889166
0.0763618
0.0585487
0.0513381
0.0509064
0.040269
0.0395887
0.0209877
0.00953728
-0.00344486
-0.0141489
-0.0203333
-0.0315635
-0.0320024
0.095997
0.0952134
0.0924395
0.088889
0.0882352
0.0844101
0.0772184
0.0675902
0.046164
0.030829
0.0227465
0.00727141
0.0102973
-0.000127577
-0.00241392
-0.00931283
-0.0149062
-0.0163996
-0.0228277
-0.0228193
0.0591558
0.0589138
0.0570521
0.0551071
0.0559766
0.0516466
0.0491378
0.04824
0.0331394
0.0191236
0.00961626
-0.00802159
-0.00451609
-0.00977936
-0.00684401
-0.00849458
-0.0115993
-0.010848
-0.0149006
-0.0142263
0.0249958
0.0264635
0.0241224
0.0210645
0.0208994
0.0142356
0.0144175
0.0173218
0.0110321
0.00744111
0.00501453
-0.00640403
-0.00305937
-0.00665101
-0.00353563
-0.000916312
-0.00221373
-0.000436855
-0.00591936
-0.00551554
12.972
16.1864
16.8753
17.8352
18.5757
19.2136
19.7538
20.1782
20.4336
20.3164
16.2679
17.765
18.154
18.7437
19.2322
19.6339
19.9463
20.1548
20.2202
20.1174
17.8962
18.6151
18.9322
19.288
19.5868
19.8283
20.0083
20.1174
20.142
20.1293
18.7814
19.2111
19.4156
19.63
19.8062
19.9462
20.0458
20.1071
20.1318
20.1494
19.3545
19.57
19.6986
19.8298
19.9389
20.0265
20.0904
20.1321
20.1516
20.1812
19.6585
19.8141
19.8792
19.9763
20.0421
20.0973
20.1396
20.172
20.1932
20.2188
19.8762
19.9819
20.013
20.0827
20.1242
20.1632
20.1954
20.2208
20.2384
20.2643
20.0344
20.1018
20.1295
20.1681
20.201
20.2294
20.2537
20.276
20.2944
20.3166
20.1605
20.2029
20.2264
20.2495
20.274
20.2965
20.3172
20.3372
20.3535
20.3741
20.2672
20.2944
20.3141
20.3316
20.3498
20.3677
20.3841
20.4007
20.413
20.4319
20.3651
20.3836
20.4
20.4144
20.4289
20.4424
20.4544
20.4663
20.4746
20.4911
20.4566
20.4703
20.4852
20.4977
20.5091
20.5197
20.5293
20.5383
20.5425
20.5542
20.5479
20.5592
20.5735
20.5834
20.5915
20.5993
20.6069
20.6137
20.6151
20.6225
20.649
20.6539
20.6622
20.6673
20.6708
20.6751
20.6809
20.6885
20.6922
20.7018
20.7637
20.7503
20.7424
20.7362
20.7334
20.7348
20.7408
20.7533
20.768
20.7977
20.8835
20.8275
20.7971
20.7801
20.7719
20.7719
20.7809
20.8001
20.8314
20.9007
)
;

boundaryField
{
    wall-4
    {
        type            zeroGradient;
    }
    pressure-outlet-7
    {
        type            fixedValue;
        value           uniform 0;
    }
    velocity-inlet-6
    {
        type            zeroGradient;
    }
    velocity-inlet-5
    {
        type            zeroGradient;
    }
    frontAndBackPlanes
    {
        type            empty;
    }
}


// ************************************************************************* //
