/*--------------------------------*- C++ -*----------------------------------*\
| =========                 |                                                 |
| \\      /  F ield         | OpenFOAM: The Open Source CFD Toolbox           |
|  \\    /   O peration     | Version:  2412                                  |
|   \\  /    A nd           | Website:  www.openfoam.com                      |
|    \\/     M anipulation  |                                                 |
\*---------------------------------------------------------------------------*/
FoamFile
{
    version     2.0;
    format      ascii;
    arch        "LSB;label=32;scalar=64";
    class       volVectorField;
    location    "9";
    object      U;
}
// * * * * * * * * * * * * * * * * * * * * * * * * * * * * * * * * * * * * * //

dimensions      [0 1 -1 0 0 0 0];

internalField   nonuniform List<vector> 
2200
(
(0.381227 0.0003873 0)
(1.19498 0.00151922 0)
(2.12309 0.00251065 0)
(3.16914 0.00358268 0)
(4.32447 0.00479118 0)
(5.57034 0.00615565 0)
(6.86185 0.0073208 0)
(8.11813 0.00842634 0)
(9.20482 0.00841332 0)
(9.90033 0.00950168 0)
(9.9014 0.00916658 0)
(9.20655 0.00966889 0)
(8.12076 0.00885926 0)
(6.86575 0.00782395 0)
(5.57348 0.00622414 0)
(4.32607 0.00484963 0)
(3.16779 0.0037483 0)
(2.12191 0.00279898 0)
(1.19283 0.00184069 0)
(0.377574 0.00102995 0)
(0.386063 0.000935622 0)
(1.19984 0.00320196 0)
(2.12802 0.00629401 0)
(3.17322 0.00985652 0)
(4.33173 0.0135158 0)
(5.5784 0.0169948 0)
(6.87031 0.0208075 0)
(8.12709 0.0243408 0)
(9.2115 0.0291042 0)
(9.90181 0.0300279 0)
(9.8997 0.0296844 0)
(9.20492 0.0262161 0)
(8.11874 0.0234662 0)
(6.85774 0.0200552 0)
(5.56514 0.0178612 0)
(4.31817 0.0140045 0)
(3.16294 0.0106694 0)
(2.1155 0.00761392 0)
(1.18356 0.00443303 0)
(0.370733 0.0012058 0)
(0.396435 0.00174595 0)
(1.21132 0.00511926 0)
(2.13929 0.0101531 0)
(3.18429 0.0161576 0)
(4.33821 0.0228396 0)
(5.58268 0.0291899 0)
(6.87218 0.0349132 0)
(8.12583 0.0407406 0)
(9.21209 0.0451505 0)
(9.89987 0.0476278 0)
(9.89933 0.0465094 0)
(9.20109 0.0450401 0)
(8.11109 0.0407959 0)
(6.85452 0.0356769 0)
(5.55958 0.0279687 0)
(4.31103 0.0226023 0)
(3.14953 0.0167864 0)
(2.10097 0.0107006 0)
(1.16995 0.00544799 0)
(0.361303 0.000810767 0)
(0.409854 0.00259048 0)
(1.22697 0.00746828 0)
(2.15597 0.0151959 0)
(3.20065 0.0225247 0)
(4.35684 0.0314087 0)
(5.60018 0.0402255 0)
(6.88837 0.0482241 0)
(8.14049 0.0562681 0)
(9.22386 0.0648779 0)
(9.90149 0.0685198 0)
(9.89584 0.0670654 0)
(9.19412 0.0615318 0)
(8.10332 0.0544182 0)
(6.83811 0.0456023 0)
(5.54211 0.039178 0)
(4.29262 0.0297493 0)
(3.13521 0.0205477 0)
(2.0859 0.0131854 0)
(1.15397 0.00631402 0)
(0.349942 0.000750366 0)
(0.431177 0.00334321 0)
(1.25229 0.00965329 0)
(2.17793 0.019055 0)
(3.21988 0.0291951 0)
(4.37148 0.0396894 0)
(5.61211 0.0509146 0)
(6.89666 0.0620235 0)
(8.14473 0.0719686 0)
(9.22878 0.0812687 0)
(9.89932 0.0851552 0)
(9.89352 0.0837794 0)
(9.18782 0.079303 0)
(8.09064 0.0711107 0)
(6.82899 0.0614654 0)
(5.53047 0.0472757 0)
(4.27776 0.0356596 0)
(3.11439 0.0255714 0)
(2.06435 0.0156018 0)
(1.13211 0.00726947 0)
(0.337095 0.000615733 0)
(0.456988 0.00418069 0)
(1.28366 0.0118701 0)
(2.21149 0.0252605 0)
(3.25244 0.0373658 0)
(4.40518 0.0505676 0)
(5.64173 0.0629064 0)
(6.92182 0.0755851 0)
(8.16547 0.0884537 0)
(9.24522 0.100715 0)
(9.90098 0.107216 0)
(9.8896 0.103888 0)
(9.17677 0.0966151 0)
(8.07769 0.0841965 0)
(6.8057 0.069065 0)
(5.50422 0.0576792 0)
(4.25214 0.0434551 0)
(3.0899 0.0300059 0)
(2.0363 0.018091 0)
(1.10693 0.00851381 0)
(0.323129 0.00124889 0)
(0.4881 0.00410812 0)
(1.32185 0.0137632 0)
(2.24643 0.0270757 0)
(3.28542 0.0419981 0)
(4.42649 0.0580267 0)
(5.66027 0.0740634 0)
(6.93637 0.089494 0)
(8.17536 0.103606 0)
(9.2557 0.118681 0)
(9.89987 0.123905 0)
(9.88531 0.121732 0)
(9.1679 0.112749 0)
(8.06102 0.100574 0)
(6.79183 0.086264 0)
(5.48733 0.0653931 0)
(4.22799 0.0493286 0)
(3.06002 0.0347352 0)
(2.00707 0.021537 0)
(1.07596 0.0104142 0)
(0.303773 0.0025904 0)
(0.517083 0.00286358 0)
(1.35153 0.014333 0)
(2.27714 0.0289802 0)
(3.31714 0.0458608 0)
(4.47113 0.0654463 0)
(5.70152 0.0863044 0)
(6.97201 0.105015 0)
(8.20358 0.122738 0)
(9.27636 0.138831 0)
(9.9019 0.147336 0)
(9.88176 0.141652 0)
(9.1537 0.132218 0)
(8.04195 0.11405 0)
(6.76039 0.0926679 0)
(5.45187 0.0767746 0)
(4.19464 0.056976 0)
(3.02907 0.0407308 0)
(1.97153 0.0265835 0)
(1.03826 0.0116618 0)
(0.27783 0.00413233 0)
(0.552447 0.00227313 0)
(1.41131 0.0159342 0)
(2.33722 0.0311146 0)
(3.36824 0.0517367 0)
(4.50003 0.0754841 0)
(5.72668 0.0960575 0)
(6.99272 0.117717 0)
(8.21973 0.138203 0)
(9.29309 0.15896 0)
(9.90197 0.165683 0)
(9.87489 0.161834 0)
(9.14079 0.147864 0)
(8.02112 0.13101 0)
(6.74138 0.111959 0)
(5.42803 0.084791 0)
(4.15959 0.0648202 0)
(2.9836 0.0469021 0)
(1.92665 0.0303244 0)
(0.996455 0.0126612 0)
(0.246848 0.00545192 0)
(0.580281 0.0031579 0)
(1.45037 0.0196584 0)
(2.37865 0.0348475 0)
(3.41523 0.0585047 0)
(4.55938 0.0824788 0)
(5.7789 0.111111 0)
(7.03747 0.135991 0)
(8.2561 0.159344 0)
(9.31781 0.181408 0)
(9.90504 0.191444 0)
(9.87155 0.182989 0)
(9.12331 0.170006 0)
(7.99397 0.146712 0)
(6.69772 0.119363 0)
(5.37906 0.0977166 0)
(4.11546 0.0718029 0)
(2.94725 0.0495655 0)
(1.88987 0.03074 0)
(0.959322 0.0121749 0)
(0.213336 0.00591067 0)
(0.635339 0.00423228 0)
(1.53198 0.0253782 0)
(2.45529 0.045222 0)
(3.47256 0.0680299 0)
(4.59567 0.0961592 0)
(5.81192 0.121223 0)
(7.06572 0.149808 0)
(8.27796 0.177554 0)
(9.33847 0.204279 0)
(9.90488 0.213305 0)
(9.86108 0.207204 0)
(9.10237 0.18878 0)
(7.96313 0.165459 0)
(6.66977 0.14033 0)
(5.3458 0.106648 0)
(4.07037 0.0788741 0)
(2.89167 0.0522074 0)
(1.83715 0.0287951 0)
(0.921669 0.00934438 0)
(0.180673 0.00561471 0)
(0.677428 0.00645051 0)
(1.58664 0.0303404 0)
(2.50445 0.053249 0)
(3.53441 0.0798356 0)
(4.66394 0.104868 0)
(5.86951 0.138943 0)
(7.11293 0.17051 0)
(8.31926 0.201472 0)
(9.36463 0.230259 0)
(9.90719 0.242415 0)
(9.85532 0.232362 0)
(9.07953 0.215223 0)
(7.92713 0.186449 0)
(6.61106 0.150467 0)
(5.27758 0.119441 0)
(4.00625 0.0860644 0)
(2.83316 0.0538509 0)
(1.77966 0.0249265 0)
(0.891568 0.00721028 0)
(0.15485 0.00490218 0)
(0.765811 0.00783133 0)
(1.70361 0.0364264 0)
(2.58621 0.0683495 0)
(3.58906 0.0914948 0)
(4.70623 0.120723 0)
(5.91254 0.152128 0)
(7.15157 0.190019 0)
(8.3467 0.224565 0)
(9.38648 0.256956 0)
(9.90417 0.268725 0)
(9.83832 0.262001 0)
(9.04591 0.240582 0)
(7.87954 0.208916 0)
(6.56681 0.174612 0)
(5.23067 0.132588 0)
(3.94337 0.0949925 0)
(2.75764 0.0568919 0)
(1.70559 0.0248982 0)
(0.861757 0.00733597 0)
(0.130582 0.00467812 0)
(0.82548 0.0092045 0)
(1.77776 0.0366773 0)
(2.66201 0.0687035 0)
(3.67685 0.105726 0)
(4.79029 0.136335 0)
(5.97648 0.175468 0)
(7.20038 0.211339 0)
(8.39205 0.251158 0)
(9.41373 0.287208 0)
(9.9033 0.303282 0)
(9.82542 0.294188 0)
(9.01456 0.272994 0)
(7.8344 0.23626 0)
(6.4949 0.190174 0)
(5.14106 0.148279 0)
(3.85692 0.104149 0)
(2.6792 0.0632211 0)
(1.63476 0.0296432 0)
(0.831699 0.0113041 0)
(0.105479 0.00472502 0)
(0.934185 0.0107146 0)
(1.91851 0.0431239 0)
(2.74705 0.0847862 0)
(3.74566 0.111567 0)
(4.85421 0.154734 0)
(6.04458 0.196094 0)
(7.26067 0.243115 0)
(8.43692 0.282556 0)
(9.43958 0.321481 0)
(9.897 0.337616 0)
(9.80119 0.330466 0)
(8.96869 0.304743 0)
(7.77121 0.263382 0)
(6.43625 0.216599 0)
(5.08788 0.162439 0)
(3.79104 0.116078 0)
(2.59577 0.0753685 0)
(1.54817 0.0379018 0)
(0.784613 0.0167645 0)
(0.0688589 0.00513274 0)
(1.01145 0.00998144 0)
(2.02601 0.0417696 0)
(2.85637 0.08033 0)
(3.85771 0.131932 0)
(4.95487 0.172754 0)
(6.12505 0.224495 0)
(7.32723 0.268771 0)
(8.49483 0.319552 0)
(9.47279 0.363989 0)
(9.8964 0.382276 0)
(9.7834 0.370835 0)
(8.93166 0.34164 0)
(7.7214 0.293457 0)
(6.35922 0.234039 0)
(4.98629 0.177385 0)
(3.69135 0.127653 0)
(2.50335 0.0864792 0)
(1.46267 0.0431904 0)
(0.734055 0.0215629 0)
(0.028444 0.00580958 0)
(1.12049 0.0153578 0)
(2.15855 0.0480834 0)
(2.95482 0.0961795 0)
(3.95515 0.13106 0)
(5.05342 0.197477 0)
(6.21767 0.251485 0)
(7.40385 0.309179 0)
(8.5612 0.361853 0)
(9.50723 0.410964 0)
(9.8937 0.429711 0)
(9.75842 0.414937 0)
(8.87793 0.378319 0)
(7.64561 0.324126 0)
(6.28499 0.263305 0)
(4.91857 0.194274 0)
(3.61218 0.136422 0)
(2.41888 0.0961833 0)
(1.37105 0.0449361 0)
(0.664291 0.025656 0)
(-0.0263145 0.00626219 0)
(1.24335 0.01172 0)
(2.31104 0.0544724 0)
(3.10141 0.103791 0)
(4.1047 0.162608 0)
(5.18144 0.220082 0)
(6.32831 0.290709 0)
(7.50272 0.350289 0)
(8.63862 0.415366 0)
(9.54985 0.469324 0)
(9.89867 0.486796 0)
(9.73967 0.467049 0)
(8.83271 0.423179 0)
(7.58134 0.359497 0)
(6.18962 0.285401 0)
(4.79446 0.215344 0)
(3.48248 0.150053 0)
(2.30397 0.103056 0)
(1.27775 0.0450813 0)
(0.599817 0.0265008 0)
(-0.0807379 0.00724185 0)
(1.34829 0.0202349 0)
(2.45817 0.0580171 0)
(3.23611 0.127061 0)
(4.22845 0.173779 0)
(5.30094 0.253998 0)
(6.4361 0.321013 0)
(7.58942 0.39591 0)
(8.7257 0.470953 0)
(9.59228 0.531118 0)
(9.89971 0.550862 0)
(9.71112 0.524487 0)
(8.76522 0.472551 0)
(7.48564 0.399949 0)
(6.0883 0.323415 0)
(4.69784 0.240211 0)
(3.37906 0.164809 0)
(2.18989 0.104638 0)
(1.18571 0.0458838 0)
(0.526487 0.0291143 0)
(-0.144855 0.00790208 0)
(1.54024 0.0191359 0)
(2.67143 0.0744048 0)
(3.43068 0.138318 0)
(4.42688 0.210254 0)
(5.46337 0.290591 0)
(6.579 0.375017 0)
(7.71809 0.454156 0)
(8.82128 0.540539 0)
(9.63656 0.606664 0)
(9.90297 0.624363 0)
(9.68306 0.594631 0)
(8.70097 0.532088 0)
(7.39274 0.44738 0)
(5.96406 0.355659 0)
(4.54064 0.270525 0)
(3.21825 0.181461 0)
(2.04078 0.110891 0)
(1.09549 0.0493194 0)
(0.456575 0.0300977 0)
(-0.210058 0.0101653 0)
(1.66954 0.0266388 0)
(2.84208 0.0759992 0)
(3.5997 0.169935 0)
(4.58189 0.230254 0)
(5.62075 0.333188 0)
(6.72349 0.418508 0)
(7.83083 0.516699 0)
(8.92735 0.619075 0)
(9.67813 0.688281 0)
(9.8967 0.707204 0)
(9.63714 0.669742 0)
(8.60931 0.600474 0)
(7.27127 0.501216 0)
(5.82945 0.39811 0)
(4.41693 0.294967 0)
(3.08471 0.19868 0)
(1.88807 0.116049 0)
(1.00085 0.0544482 0)
(0.381494 0.034594 0)
(-0.284584 0.0118056 0)
(1.93964 0.0282426 0)
(3.15054 0.101908 0)
(3.87041 0.189953 0)
(4.8305 0.278145 0)
(5.82213 0.385462 0)
(6.89709 0.487503 0)
(7.98539 0.602078 0)
(9.04442 0.716921 0)
(9.71728 0.790539 0)
(9.88759 0.805518 0)
(9.58387 0.759867 0)
(8.51057 0.672724 0)
(7.14085 0.558078 0)
(5.67359 0.438934 0)
(4.23136 0.320389 0)
(2.89968 0.210025 0)
(1.70593 0.122732 0)
(0.900515 0.064572 0)
(0.286031 0.0387768 0)
(-0.373366 0.0159373 0)
(2.11757 0.0389524 0)
(3.34909 0.0996948 0)
(4.06818 0.211364 0)
(5.03545 0.314431 0)
(6.0437 0.449518 0)
(7.09563 0.572086 0)
(8.13865 0.702842 0)
(9.16872 0.833407 0)
(9.74878 0.905067 0)
(9.86566 0.915379 0)
(9.50919 0.855004 0)
(8.38244 0.755395 0)
(6.97539 0.618761 0)
(5.49166 0.47176 0)
(4.06424 0.340934 0)
(2.73091 0.216657 0)
(1.55336 0.129111 0)
(0.82077 0.0691595 0)
(0.195221 0.0461477 0)
(-0.474025 0.0193165 0)
(2.4971 0.0400993 0)
(3.75656 0.150096 0)
(4.45534 0.276188 0)
(5.36289 0.387646 0)
(6.30533 0.539064 0)
(7.31752 0.680902 0)
(8.33422 0.838727 0)
(9.30182 0.979484 0)
(9.77626 1.04801 0)
(9.84085 1.04739 0)
(9.42157 0.96595 0)
(8.23724 0.838658 0)
(6.80392 0.677245 0)
(5.29846 0.51182 0)
(3.84015 0.346672 0)
(2.53199 0.225898 0)
(1.37645 0.131094 0)
(0.723382 0.0857544 0)
(0.0926647 0.0561196 0)
(-0.591747 0.0255839 0)
(2.75953 0.064324 0)
(4.05462 0.147991 0)
(4.71669 0.302792 0)
(5.64099 0.473276 0)
(6.59518 0.658761 0)
(7.5698 0.831937 0)
(8.54509 1.00696 0)
(9.42608 1.15186 0)
(9.78986 1.20824 0)
(9.80265 1.19471 0)
(9.31272 1.08373 0)
(8.06486 0.927186 0)
(6.58536 0.735009 0)
(5.06207 0.535884 0)
(3.62371 0.366113 0)
(2.3184 0.232306 0)
(1.23972 0.13903 0)
(0.64723 0.108122 0)
(-0.0606746 0.0738716 0)
(-0.772213 0.0275765 0)
(3.35202 0.0844434 0)
(4.57256 0.259112 0)
(5.22051 0.454791 0)
(6.06513 0.630421 0)
(6.93904 0.836968 -1.2978e-32)
(7.84955 1.02656 4.75199e-33)
(8.78854 1.22089 0)
(9.54665 1.35737 0)
(9.7965 1.39882 0)
(9.75956 1.36521 0)
(9.18709 1.2175 0)
(7.86661 1.02247 0)
(6.36225 0.792846 0)
(4.82006 0.56902 0)
(3.35154 0.369919 0)
(2.09181 0.21954 0)
(1.10189 0.121794 0)
(0.548541 0.0882922 0)
(-0.249347 0.0667256 0)
(-0.988332 0.00214502 0)
(3.93043 0.211531 -1.46455e-18)
(5.0139 0.349555 1.21584e-18)
(5.59462 0.603409 0)
(6.43013 0.832565 -7.08666e-19)
(7.28065 1.06388 5.7248e-19)
(8.13814 1.26883 -5.04254e-33)
(9.04358 1.47602 0)
(9.63268 1.59652 -8.69309e-20)
(9.78666 1.62424 1.46492e-19)
(9.6813 1.56437 -3.3443e-21)
(9.00798 1.37677 0)
(7.59663 1.13164 -2.57393e-19)
(6.02685 0.851789 -3.28207e-19)
(4.45346 0.592883 5.67801e-19)
(3.02451 0.375184 -4.62194e-19)
(1.79282 0.18342 0)
(0.957106 0.0764637 -1.7356e-19)
(0.490321 0.0244597 0)
(-0.310327 0.00430821 -9.03761e-19)
(-1.06917 -0.0296667 1.05731e-18)
(4.28817 0.415144 1.24403e-19)
(5.46326 0.620882 -5.33217e-18)
(6.01105 0.917936 7.94982e-19)
(6.7755 1.12643 2.90931e-18)
(7.54759 1.34224 1.27446e-18)
(8.35033 1.54576 -2.02256e-18)
(9.19889 1.75867 0)
(9.65891 1.86712 0)
(9.74676 1.88689 -2.35023e-19)
(9.57498 1.80295 0)
(8.81024 1.57204 8.19196e-19)
(7.32692 1.27934 2.81371e-19)
(5.73955 0.941457 -2.75626e-20)
(4.18418 0.627497 -7.09324e-19)
(2.76951 0.357712 0)
(1.56976 0.156621 0)
(0.850142 0.0636614 -2.94831e-18)
(0.448691 -0.000608917 7.37878e-18)
(-0.18251 -0.0234161 -4.39775e-18)
(-1.05088 -0.116225 -5.21288e-18)
(4.51095 0.658634 4.95862e-18)
(5.65772 0.927689 -1.93805e-18)
(6.18028 1.16801 -6.95707e-19)
(6.93519 1.36177 -5.39857e-18)
(7.70661 1.60611 4.2435e-19)
(8.48249 1.83329 5.56135e-18)
(9.27174 2.05023 -1.59026e-18)
(9.63979 2.15156 0)
(9.67584 2.1617 4.74325e-19)
(9.44541 2.05076 8.08306e-19)
(8.61778 1.77837 -2.33449e-18)
(7.09388 1.43035 1.27763e-18)
(5.49313 1.04133 -1.0504e-18)
(3.94379 0.670137 2.25048e-18)
(2.59046 0.391088 0)
(1.4454 0.18725 -8.32861e-19)
(0.801199 0.0768689 0)
(0.447788 0.0308198 4.4666e-18)
(-0.156017 -0.0534755 -1.0602e-17)
(-0.97085 -0.154446 6.67494e-18)
(4.64083 0.897703 -2.03952e-17)
(5.9506 1.3282 1.06615e-17)
(6.44874 1.56055 1.86765e-18)
(7.15462 1.74278 0)
(7.84395 1.94802 3.66108e-18)
(8.56518 2.15715 -4.31095e-18)
(9.29021 2.35901 1.64274e-18)
(9.58473 2.44819 0)
(9.58001 2.44654 -3.33058e-19)
(9.30349 2.30821 -4.89089e-19)
(8.43193 1.99109 2.46933e-18)
(6.89025 1.58991 0)
(5.31273 1.13907 -2.31867e-18)
(3.8002 0.744908 1.23113e-18)
(2.47657 0.414308 3.22014e-18)
(1.41928 0.183239 -2.83804e-18)
(0.797463 0.0664814 4.46468e-18)
(0.479222 0.0149953 -9.98947e-18)
(-0.0246815 -0.0460671 6.3139e-18)
(-0.836935 -0.172644 -7.88949e-18)
(4.684 1.13421 1.14489e-17)
(5.96232 1.60844 -1.10479e-17)
(6.47359 1.79484 6.06324e-18)
(7.16955 1.98178 -9.34549e-18)
(7.87114 2.24248 7.21896e-18)
(8.57968 2.47711 -1.67337e-18)
(9.25811 2.67748 9.50607e-20)
(9.50017 2.75538 1.72055e-18)
(9.46004 2.73687 2.39694e-19)
(9.14901 2.56909 -1.49369e-18)
(8.25737 2.20622 -5.58564e-18)
(6.71685 1.74389 -2.18774e-18)
(5.15821 1.24351 -5.45017e-20)
(3.66082 0.800771 -4.83647e-18)
(2.4138 0.491053 -4.90945e-20)
(1.45605 0.22862 4.43193e-18)
(0.884197 0.119496 -1.39007e-18)
(0.607206 0.0907611 -7.51723e-19)
(0.116719 -0.0199462 0)
(-0.75369 -0.191877 1.80762e-17)
(4.70777 1.26198 0)
(6.08995 1.98306 3.11766e-18)
(6.59558 2.14929 0)
(7.24509 2.353 -3.41723e-19)
(7.88575 2.57507 -8.05219e-18)
(8.54913 2.79995 3.37992e-18)
(9.18968 2.99366 -2.00419e-18)
(9.3945 3.0645 -2.42317e-18)
(9.32834 3.02718 -1.66519e-19)
(8.99997 2.83062 8.98276e-20)
(8.10175 2.42372 3.14977e-18)
(6.57416 1.90828 4.93072e-18)
(5.04181 1.36174 -3.16985e-18)
(3.6188 0.911355 5.49184e-18)
(2.36915 0.528648 -4.42189e-18)
(1.43696 0.266396 0)
(0.916148 0.146586 -1.08751e-17)
(0.648518 0.11151 1.45877e-17)
(0.196585 -0.00543031 1.12325e-18)
(-0.596907 -0.175068 -2.03034e-17)
(4.5824 1.45151 -3.86037e-19)
(5.99981 2.21114 -7.4268e-18)
(6.54305 2.33725 -2.65475e-17)
(7.17744 2.58222 1.64585e-17)
(7.82228 2.86185 -5.35191e-18)
(8.47954 3.11027 3.77495e-18)
(9.09381 3.30772 -4.54441e-18)
(9.27192 3.36991 1.45003e-18)
(9.19119 3.31195 3.29854e-19)
(8.85288 3.0905 -1.84288e-19)
(7.95454 2.64362 -3.9558e-18)
(6.44814 2.08072 -5.8212e-18)
(4.93191 1.49352 3.67629e-18)
(3.52393 0.992236 -2.03886e-18)
(2.36096 0.615189 5.09102e-18)
(1.55087 0.334111 0)
(1.08378 0.210516 -7.11239e-18)
(0.836772 0.194675 1.05631e-17)
(0.407817 0.0695845 1.99878e-17)
(-0.493396 -0.151265 -2.33736e-17)
(4.55147 1.65894 -3.80476e-17)
(6.05225 2.52218 1.91309e-17)
(6.56957 2.66434 1.71259e-17)
(7.14966 2.92914 -1.76485e-17)
(7.76293 3.16392 3.61371e-19)
(8.38786 3.4075 8.55719e-18)
(8.97971 3.60794 1.9992e-18)
(9.14169 3.6663 6.04539e-19)
(9.05066 3.58821 -6.84727e-19)
(8.70184 3.34589 9.66828e-19)
(7.80928 2.86406 3.33325e-18)
(6.32691 2.25724 9.10735e-18)
(4.8515 1.63107 0)
(3.53321 1.10773 1.87358e-19)
(2.3946 0.666724 -1.46621e-17)
(1.56058 0.399967 3.4962e-18)
(1.1207 0.288175 1.61811e-17)
(0.882704 0.258788 -4.77514e-18)
(0.487039 0.1291 9.97843e-18)
(-0.414687 -0.14394 -8.0859e-19)
(4.39704 1.77217 4.08234e-19)
(5.91708 2.67303 1.69549e-17)
(6.44564 2.80914 1.24792e-17)
(7.03476 3.12739 -2.92118e-17)
(7.65471 3.41498 2.15233e-17)
(8.27174 3.68639 -9.38611e-18)
(8.84894 3.89675 -2.17891e-18)
(9.00147 3.95048 -2.98168e-18)
(8.90032 3.85459 -2.76819e-19)
(8.54162 3.59288 -2.81203e-18)
(7.6631 3.07954 0)
(6.21349 2.43206 -3.84777e-18)
(4.78444 1.77029 4.40523e-18)
(3.48685 1.20702 5.622e-18)
(2.41687 0.779308 -3.32728e-18)
(1.702 0.490312 -7.76266e-18)
(1.30397 0.373948 -2.34535e-18)
(1.05652 0.376956 -1.39631e-19)
(0.639836 0.207809 0)
(-0.335406 -0.114563 0)
(4.30575 1.91991 -1.71211e-17)
(5.88907 2.93555 0)
(6.41091 3.09355 1.35669e-17)
(6.95935 3.41302 -5.81935e-18)
(7.55633 3.67834 -2.23373e-17)
(8.14296 3.94768 6.2708e-18)
(8.70996 4.16529 -2.3977e-18)
(8.85363 4.21922 2.52646e-18)
(8.74433 4.10984 -5.11393e-19)
(8.3806 3.83078 -2.09482e-18)
(7.52146 3.28842 2.1124e-18)
(6.10811 2.60582 1.25797e-17)
(4.72711 1.91032 3.61406e-19)
(3.49195 1.3275 -6.11087e-18)
(2.44544 0.848103 1.1211e-17)
(1.70683 0.586923 3.32671e-20)
(1.34161 0.466069 2.51104e-18)
(1.14207 0.454274 -1.23354e-17)
(0.756766 0.300651 1.25563e-17)
(-0.289446 -0.103484 -1.45995e-17)
(4.13486 2.00822 -7.80433e-21)
(5.74497 3.04388 0)
(6.2701 3.1971 0)
(6.8179 3.56897 5.74614e-18)
(7.4221 3.88799 8.23298e-18)
(8.00401 4.19037 -5.54151e-18)
(8.56174 4.41911 6.41533e-18)
(8.69882 4.47357 0)
(8.58602 4.35299 8.91641e-20)
(8.22314 4.05914 4.66821e-18)
(7.38681 3.4904 7.76984e-18)
(6.01146 2.77823 -4.81871e-18)
(4.67528 2.05343 -5.8827e-18)
(3.46466 1.44233 1.3859e-17)
(2.48588 0.973107 -4.04335e-18)
(1.85307 0.689244 -4.75378e-18)
(1.50998 0.588826 -2.92216e-18)
(1.25793 0.591879 -1.37527e-17)
(0.831796 0.375301 1.95839e-18)
(-0.273182 -0.0991143 1.63977e-17)
(4.03104 2.10895 -6.60598e-18)
(5.67757 3.26337 -1.03219e-17)
(6.1905 3.44431 5.17463e-19)
(6.71307 3.80284 -2.03135e-20)
(7.29626 4.1025 3.46699e-18)
(7.85803 4.41113 -1.2559e-17)
(8.4076 4.65064 0)
(8.54382 4.70994 -7.90113e-19)
(8.43288 4.58322 6.22069e-19)
(8.076 4.27898 7.72401e-18)
(7.26173 3.68749 -1.68968e-18)
(5.91896 2.95085 2.22008e-18)
(4.61896 2.19998 0)
(3.44691 1.56713 -7.56105e-18)
(2.49219 1.06037 9.28918e-18)
(1.8429 0.804308 0)
(1.54381 0.681687 -6.39705e-18)
(1.371 0.690321 1.87856e-17)
(0.944337 0.476867 2.27215e-18)
(-0.253942 -0.10272 -2.08807e-17)
(3.86701 2.16944 -1.39886e-17)
(5.52808 3.35217 1.729e-17)
(6.04323 3.53601 0)
(6.56242 3.92793 1.32112e-17)
(7.15096 4.27134 0)
(7.70846 4.61105 1.27362e-17)
(8.25353 4.86515 0)
(8.39099 4.92931 0)
(8.2847 4.79907 -6.04214e-19)
(7.93543 4.48869 -7.80136e-18)
(7.14067 3.87873 -1.46514e-17)
(5.82457 3.12058 2.8884e-18)
(4.55923 2.34827 1.07662e-17)
(3.41959 1.69238 8.57758e-18)
(2.53376 1.19089 -3.01482e-17)
(1.97659 0.924136 -1.19152e-17)
(1.67619 0.831816 7.00252e-18)
(1.41852 0.830257 0)
(0.962209 0.537885 1.98514e-17)
(-0.254583 -0.108474 -2.32388e-17)
(3.765 2.25309 1.50121e-17)
(5.44292 3.53894 -1.85584e-17)
(5.95108 3.75343 0)
(6.44766 4.12658 -3.64372e-19)
(7.01749 4.44819 -5.43627e-18)
(7.55834 4.79243 0)
(8.10051 5.0584 -1.55134e-18)
(8.24168 5.12951 3.33844e-19)
(8.14146 4.99912 5.03763e-20)
(7.79993 4.68646 5.11044e-19)
(7.02141 4.06276 0)
(5.72747 3.28612 1.19159e-17)
(4.49086 2.49339 3.13647e-19)
(3.37852 1.81868 4.70965e-18)
(2.51126 1.3009 5.46748e-18)
(1.94719 1.04712 0)
(1.69946 0.926121 -1.17103e-17)
(1.51899 0.940748 2.30379e-17)
(1.00178 0.620194 -2.44434e-17)
(-0.264268 -0.124892 5.11631e-17)
(3.61804 2.29884 0)
(5.30919 3.61608 0)
(5.81445 3.83827 -1.01379e-17)
(6.30276 4.23824 0)
(6.87688 4.59025 0)
(7.41356 4.95643 1.44409e-17)
(7.95312 5.23568 -1.65193e-18)
(8.09557 5.31276 8.33963e-19)
(7.99978 5.18235 3.72055e-19)
(7.66375 4.86949 0)
(6.89933 4.23645 -2.53261e-18)
(5.6248 3.44422 -9.89729e-18)
(4.41672 2.63494 -1.21732e-17)
(3.33708 1.94081 -4.94672e-18)
(2.54275 1.43393 6.11293e-18)
(2.06304 1.18672 -1.4311e-17)
(1.80251 1.08978 2.564e-17)
(1.53221 1.07215 2.06487e-19)
(0.967074 0.661729 -2.33908e-17)
(-0.295343 -0.149232 -3.54657e-18)
(3.52992 2.36959 0)
(5.22294 3.77305 -1.37103e-17)
(5.72075 4.02884 1.11997e-17)
(6.19274 4.41506 0)
(6.75124 4.7443 0)
(7.27248 5.10909 -3.08916e-17)
(7.80718 5.39574 0)
(7.95154 5.47855 0)
(7.85969 5.34921 -2.22845e-19)
(7.5283 5.03729 1.90196e-18)
(6.77734 4.39878 -2.06068e-17)
(5.52237 3.59433 0)
(4.33761 2.76974 -1.35096e-17)
(3.28321 2.06094 2.35163e-19)
(2.49884 1.55022 -1.98903e-17)
(2.00218 1.31314 7.71734e-18)
(1.78844 1.19339 1.25348e-19)
(1.57705 1.17065 -2.7581e-17)
(0.911509 0.682988 1.2411e-17)
(-0.342012 -0.185894 3.78987e-18)
(3.40641 2.41645 0)
(5.10672 3.84504 -1.50973e-17)
(5.59957 4.10458 1.16526e-17)
(6.06298 4.51649 2.56864e-17)
(6.6248 4.8713 5.76971e-18)
(7.13937 5.24989 -3.57044e-18)
(7.66814 5.54379 2.88436e-18)
(7.81162 5.63039 -7.74338e-18)
(7.72173 5.50105 2.38823e-19)
(7.39356 5.19033 1.14574e-17)
(6.65567 4.54881 1.7202e-17)
(5.42096 3.73642 3.35301e-18)
(4.25804 2.9013 1.94569e-17)
(3.23069 2.18112 1.20754e-17)
(2.51332 1.68374 1.42926e-17)
(2.08991 1.47255 -8.49763e-18)
(1.85962 1.36314 -1.01667e-17)
(1.5709 1.27578 1.20295e-17)
(0.83605 0.676576 -6.84275e-18)
(-0.420007 -0.231285 1.24753e-17)
(3.33241 2.48107 2.01961e-17)
(5.02746 3.98034 2.40716e-17)
(5.51335 4.27035 6.07933e-18)
(5.96418 4.67231 4.68272e-20)
(6.51201 5.00962 -1.94806e-17)
(7.01162 5.38542 8.77969e-18)
(7.53355 5.6812 -3.08467e-18)
(7.67699 5.77005 6.93797e-20)
(7.58915 5.64094 -8.95082e-19)
(7.26444 5.33126 -1.30241e-17)
(6.53891 4.68796 1.04031e-18)
(5.32332 3.86907 0)
(4.1793 3.02648 0)
(3.17452 2.30194 -6.30387e-18)
(2.45854 1.81097 -2.34088e-17)
(2.00239 1.58574 1.83333e-17)
(1.81369 1.44844 1.11545e-17)
(1.56656 1.35112 0)
(0.744741 0.651258 2.24926e-17)
(-0.477292 -0.343633 -1.35594e-17)
(3.23279 2.52846 -1.06291e-17)
(4.93147 4.04931 8.87909e-18)
(5.41075 4.33824 -1.34318e-17)
(5.85016 4.76202 -1.53238e-17)
(6.40163 5.12462 -7.15492e-18)
(6.89446 5.5128 2.55894e-18)
(7.41017 5.81266 0)
(7.55165 5.9022 9.39465e-18)
(7.46451 5.77177 -4.46302e-19)
(7.14217 5.46256 0)
(6.42716 4.81749 0)
(5.23142 3.99463 2.35085e-18)
(4.10434 3.14826 3.2104e-18)
(3.11929 2.42481 -6.79534e-18)
(2.44902 1.9589 1.68158e-17)
(2.05224 1.75711 -1.97796e-17)
(1.83658 1.60264 -2.38087e-17)
(1.5175 1.36731 2.06006e-17)
(0.614913 0.591958 -8.24944e-18)
(-0.418203 -0.505271 4.841e-18)
(3.17858 2.58882 1.16297e-17)
(4.86572 4.16738 0)
(5.33333 4.48307 0)
(5.76415 4.89804 -5.09376e-18)
(6.3059 5.24893 4.11774e-18)
(6.78639 5.63773 -1.94613e-19)
(7.29715 5.93946 -1.05845e-17)
(7.43733 6.02921 -1.10502e-17)
(7.35067 5.8972 1.32452e-18)
(7.03022 5.58737 -1.26055e-18)
(6.32403 4.93991 2.99257e-18)
(5.14596 4.11241 -2.05008e-17)
(4.03337 3.26459 -2.09269e-17)
(3.06624 2.55027 -3.61194e-18)
(2.38253 2.1069 0)
(1.92253 1.89382 -1.88662e-19)
(1.71792 1.69375 1.28305e-17)
(1.41908 1.38549 -2.22663e-17)
(0.587326 0.375432 1.74297e-17)
(-0.334401 -0.538291 1.5785e-17)
(3.1053 2.63676 -2.48742e-17)
(4.78606 4.233 -1.02325e-17)
(5.24607 4.54439 7.33053e-20)
(5.66843 4.97764 5.93514e-18)
(6.21393 5.35337 0)
(6.68866 5.75723 2.09976e-17)
(7.19478 6.06529 1.31164e-17)
(7.33174 6.15584 -1.25078e-18)
(7.24396 6.02158 -3.66312e-19)
(6.92356 5.71084 -1.23459e-18)
(6.22483 5.06149 1.14345e-18)
(5.06523 4.23045 1.79549e-17)
(3.96444 3.38241 2.02926e-17)
(3.00876 2.683 3.49229e-18)
(2.35252 2.28194 1.75164e-17)
(1.96051 2.0911 0)
(1.66279 1.8662 0)
(1.18204 1.34837 1.47028e-17)
(0.154251 0.428367 -1.16011e-19)
(-0.199473 0.81095 -1.64996e-17)
(3.06989 2.70084 1.33067e-17)
(4.73156 4.33944 3.16363e-17)
(5.17909 4.67347 -4.89033e-17)
(5.59668 5.09865 3.05705e-17)
(6.13251 5.46594 -3.9555e-18)
(6.59659 5.87518 2.58388e-17)
(7.09744 6.18908 0)
(7.23032 6.2819 1.03742e-17)
(7.14118 6.1469 0)
(6.82059 5.83581 1.34964e-17)
(6.12985 5.18632 -1.79665e-18)
(4.9888 4.35298 2.00909e-18)
(3.89935 3.50739 2.33505e-17)
(2.95781 2.83127 -7.45757e-18)
(2.28754 2.47513 -9.01566e-18)
(1.79604 2.3245 0)
(1.4196 2.11744 0)
(0.679649 1.49384 0)
(0.263169 1.3435 -8.23077e-18)
(0.187051 2.44687 -5.11463e-18)
(3.01905 2.75506 0)
(4.66341 4.40183 0)
(5.10803 4.73056 1.73554e-17)
(5.5155 5.16961 -2.56143e-17)
(6.05213 5.55906 1.82993e-17)
(6.51015 5.98525 -2.37535e-17)
(7.00424 6.30864 -1.35914e-18)
(7.13161 6.405 1.04991e-18)
(7.04106 6.26999 4.78083e-19)
(6.71999 5.95948 -1.54171e-17)
(6.03844 5.31222 2.94669e-18)
(4.91827 4.47916 1.83769e-17)
(3.84079 3.64103 -2.32704e-17)
(2.90728 2.99471 -2.53221e-17)
(2.25545 2.70116 8.59874e-18)
(1.81861 2.58038 0)
(1.32767 2.22574 1.18561e-17)
(0.814447 1.80899 1.34809e-17)
(0.455159 2.47794 -1.70003e-17)
(0.454185 2.98934 2.02209e-17)
(2.99521 2.82069 0)
(4.62032 4.49907 2.44484e-17)
(5.05197 4.84674 -4.48363e-18)
(5.4557 5.27965 3.10589e-17)
(5.9813 5.65966 -1.92248e-17)
(6.42768 6.09179 0)
(6.91349 6.42312 0)
(7.03529 6.5243 0)
(6.9439 6.39101 -1.3043e-18)
(6.6231 6.08183 3.38259e-19)
(5.95213 5.43851 0)
(4.85382 4.60785 -1.81538e-17)
(3.7864 3.77833 0)
(2.87551 3.17186 1.81529e-17)
(2.24426 2.93313 -1.2545e-17)
(1.74397 2.83831 -9.96928e-18)
(1.14995 2.53407 -2.23842e-17)
(0.803283 2.47516 -1.36521e-17)
(0.611364 3.10619 -2.31944e-17)
(0.638994 3.30682 1.97367e-17)
(2.95826 2.86964 -8.08595e-18)
(4.56447 4.55725 1.61963e-19)
(4.99564 4.9001 -4.68142e-18)
(5.38916 5.34648 -2.46341e-17)
(5.91159 5.74496 0)
(6.34946 6.19143 0)
(6.82533 6.53268 0)
(6.94123 6.64024 -4.90099e-19)
(6.84903 6.50948 1.24717e-18)
(6.5286 6.20271 0)
(5.86849 5.56451 0)
(4.79196 4.73773 0)
(3.73754 3.91868 0)
(2.85466 3.36086 1.3899e-17)
(2.25108 3.18134 3.38748e-17)
(1.78733 3.06925 1.00415e-17)
(1.36755 2.76017 2.25091e-17)
(1.10337 2.98868 -2.00858e-17)
(0.890653 3.50818 7.67011e-18)
(0.758377 3.58851 0)
(2.94036 2.92989 7.86e-18)
(4.53327 4.64775 -4.89473e-17)
(4.94908 5.00812 -1.42318e-17)
(5.33975 5.45221 -3.59504e-18)
(5.84812 5.83982 4.53914e-18)
(6.27172 6.28982 -3.24545e-17)
(6.73676 6.63867 2.23463e-18)
(6.84819 6.754 1.35247e-17)
(6.75576 6.62723 0)
(6.43675 6.32354 -1.15333e-18)
(5.78694 5.68998 1.05263e-18)
(4.73227 4.8675 0)
(3.69656 4.06052 0)
(2.85777 3.55255 -1.73674e-17)
(2.29786 3.41238 3.40828e-18)
(1.79449 3.28297 -9.65437e-18)
(1.30136 3.12737 2.21269e-17)
(1.0022 3.53771 1.94175e-17)
(0.850429 3.80177 -3.36293e-17)
(0.741919 3.83245 1.77351e-17)
(2.90927 2.96859 1.46395e-17)
(4.48035 4.70197 4.54713e-17)
(4.89659 5.05935 1.73716e-17)
(5.27459 5.51809 0)
(5.77607 5.92504 0)
(6.18938 6.38638 2.45264e-17)
(6.64365 6.74449 -1.47212e-17)
(6.75071 6.86781 -1.24209e-17)
(6.65903 6.74513 -4.05675e-19)
(6.34243 6.44499 1.05472e-17)
(5.70331 5.81545 -2.13184e-17)
(4.67296 4.99749 0)
(3.66597 4.20646 0)
(2.87286 3.7494 -1.28237e-17)
(2.33581 3.65506 -1.59596e-17)
(1.84953 3.55402 0)
(1.51005 3.45076 -3.17389e-17)
(1.27971 3.85722 -5.84098e-18)
(1.15046 4.16773 3.39046e-17)
(0.891407 4.18425 -1.74678e-17)
(2.88362 3.02534 -2.75768e-17)
(4.44501 4.78876 -2.15205e-17)
(4.83867 5.1662 0)
(5.21233 5.62366 0)
(5.69824 6.0206 0)
(6.09641 6.48367 0)
(6.54056 6.84875 1.56301e-17)
(6.64548 6.97991 -1.44932e-17)
(6.55621 6.86197 0)
(6.24394 6.56581 -9.31838e-18)
(5.61668 5.93957 3.86991e-17)
(4.61525 5.12632 1.72625e-18)
(3.64413 4.3529 2.64322e-18)
(2.90548 3.94505 2.18866e-17)
(2.41309 3.87498 -1.44338e-17)
(1.93349 3.74241 0)
(1.60586 3.78408 1.03875e-17)
(1.3316 4.36687 4.98349e-19)
(0.973882 4.46954 -5.54636e-18)
(0.612571 4.5571 1.0613e-17)
(2.84772 3.05296 1.2983e-17)
(4.37293 4.83489 -2.0408e-17)
(4.76891 5.20703 0)
(5.12626 5.67997 -5.64949e-18)
(5.60376 6.1017 2.16037e-17)
(5.99353 6.57697 0)
(6.42805 6.95038 0)
(6.53092 7.08896 2.60688e-17)
(6.44483 6.9752 -1.55252e-19)
(6.1383 6.68344 8.9291e-18)
(5.52513 6.06047 -1.83887e-17)
(4.55905 5.25348 1.30779e-17)
(3.63136 4.49824 0)
(2.94905 4.13845 -1.20954e-17)
(2.48019 4.0966 7.36223e-18)
(2.05193 4.02085 8.13757e-18)
(1.77055 4.15262 0)
(1.50752 4.59728 5.35109e-18)
(1.12232 5.04487 9.49891e-18)
(1.00306 5.21483 2.70587e-18)
(2.80001 3.10264 -2.43025e-17)
(4.32102 4.92022 2.90372e-17)
(4.68877 5.31074 2.21253e-17)
(5.041 5.77899 -5.84875e-18)
(5.50364 6.19087 -3.26045e-17)
(5.87992 6.66881 0)
(6.3055 7.04822 1.20801e-17)
(6.40797 7.19361 -1.0611e-17)
(6.32611 7.08428 -8.48199e-19)
(6.0271 6.79723 -7.7847e-18)
(5.43179 6.1782 -8.19045e-19)
(4.50574 5.37756 -1.46082e-17)
(3.62498 4.63943 1.8134e-17)
(3.00297 4.321 5.63844e-18)
(2.58559 4.29847 -1.30875e-17)
(2.17722 4.20877 1.49523e-17)
(1.96288 4.3385 0)
(1.75519 5.13796 0)
(1.47406 5.51026 2.73162e-18)
(0.506563 5.56629 -7.64386e-18)
(2.74995 3.12798 1.14925e-17)
(4.22313 4.96313 2.69838e-17)
(4.60071 5.34566 -2.13359e-17)
(4.93434 5.82688 2.1299e-17)
(5.38846 6.26544 3.10741e-17)
(5.7588 6.75703 0)
(6.17621 7.14405 -1.29938e-17)
(6.27716 7.29427 -1.26419e-17)
(6.20034 7.18802 0)
(5.91071 6.90495 0)
(5.33831 6.29171 0)
(4.4541 5.49602 0)
(3.62391 4.77374 -2.06804e-17)
(3.06225 4.48956 -7.9367e-18)
(2.67381 4.4732 0)
(2.3371 4.4177 -7.36992e-18)
(2.22011 4.76305 0)
(2.28058 5.09588 -3.48566e-18)
(2.32412 5.00409 6.08219e-18)
(1.30588 5.04842 -3.33859e-18)
(2.67625 3.17333 -2.15085e-17)
(4.15396 5.05472 -1.69646e-17)
(4.49977 5.45288 -1.31067e-17)