/*--------------------------------*- C++ -*----------------------------------*\
| =========                 |                                                 |
| \\      /  F ield         | OpenFOAM: The Open Source CFD Toolbox           |
|  \\    /   O peration     | Version:  2412                                  |
|   \\  /    A nd           | Website:  www.openfoam.com                      |
|    \\/     M anipulation  |                                                 |
\*---------------------------------------------------------------------------*/
FoamFile
{
    version     2.0;
    format      ascii;
    arch        "LSB;label=32;scalar=64";
    class       surfaceScalarField;
    location    "0.05";
    object      phi;
}
// * * * * * * * * * * * * * * * * * * * * * * * * * * * * * * * * * * * * * //

dimensions      [0 3 -1 0 0 0 0];

oriented        oriented;

internalField   nonuniform List<scalar> 
799
(
6.78647e-05
0.000135728
0.000203585
0.000271435
0.000339273
0.000407098
0.000474907
0.000542697
0.000610465
0.000678209
0.000745926
0.000813613
0.000881267
0.000948887
0.00101647
0.00108401
0.00115151
0.00121896
0.00128636
0.00135371
0.00142101
0.00148825
0.00155543
0.00162255
0.0016896
0.00175659
0.0018235
0.00189035
0.00195711
0.0020238
0.00209041
0.00215693
0.00222336
0.00228971
0.00235597
0.00242212
0.00248819
0.00255415
0.00262
0.00268576
0.0027514
0.00281693
0.00288235
0.00294765
0.00301283
0.00307789
0.00314282
0.00320763
0.0032723
0.00333685
0.00340125
0.00346552
0.00352964
0.00359363
0.00365746
0.00372114
0.00378467
0.00384805
0.00391127
0.00397432
0.00403722
0.00409994
0.0041625
0.00422489
0.00428709
0.00434913
0.00441098
0.00447265
0.00453413
0.00459542
0.00465653
0.00471743
0.00477814
0.00483865
0.00489896
0.00495906
0.00501895
0.00507863
0.0051381
0.00519735
0.00525638
0.00531519
0.00537377
0.00543213
0.00549025
0.00554814
0.00560579
0.0056632
0.00572037
0.00577729
0.00583397
0.0058904
0.00594657
0.00600248
0.00605813
0.00611353
0.00616865
0.00622351
0.0062781
0.00633241
0.00638644
0.0064402
0.00649367
0.00654686
0.00659976
0.00665236
0.00670468
0.00675669
0.00680841
0.00685982
0.00691093
0.00696173
0.00701221
0.00706238
0.00711224
0.00716177
0.00721098
0.00725986
0.00730842
0.00735664
0.00740452
0.00745207
0.00749928
0.00754614
0.00759266
0.00763882
0.00768464
0.0077301
0.0077752
0.00781993
0.00786431
0.00790831
0.00795194
0.00799521
0.00803809
0.00808059
0.00812272
0.00816445
0.0082058
0.00824676
0.00828732
0.00832749
0.00836726
0.00840662
0.00844558
0.00848412
0.00852226
0.00855998
0.00859728
0.00863416
0.00867062
0.00870665
0.00874225
0.00877742
0.00881215
0.00884645
0.0088803
0.00891371
0.00894667
0.00897918
0.00901123
0.00904283
0.00907397
0.00910465
0.00913486
0.00916461
0.00919388
0.00922268
0.009251
0.00927884
0.0093062
0.00933307
0.00935946
0.00938535
0.00941075
0.00943565
0.00946005
0.00948394
0.00950733
0.00953021
0.00955258
0.00957444
0.00959578
0.00961659
0.00963689
0.00965665
0.00967589
0.0096946
0.00971277
0.00973041
0.0097475
0.00976406
0.00978006
0.00979552
0.00981043
0.00982478
0.00983857
0.00985181
0.00986449
0.00987659
0.00988814
0.00989911
0.00990951
0.00991933
0.00992858
0.00993725
0.00994533
0.00995283
0.00995974
0.00996606
0.00997178
0.00997691
0.00998144
0.00998537
0.0099887
0.00999142
0.00999354
0.00999504
0.00999593
0.00999621
0.00999587
0.00999491
0.00999333
0.00999112
0.00998829
0.00998483
0.00998074
0.00997602
0.00997066
0.00996466
0.00995803
0.00995076
0.00994284
0.00993428
0.00992507
0.00991521
0.00990471
0.00989355
0.00988174
0.00986927
0.00985615
0.00984236
0.00982792
0.00981281
0.00979704
0.00978061
0.00976351
0.00974574
0.0097273
0.00970819
0.00968841
0.00966795
0.00964683
0.00962502
0.00960254
0.00957938
0.00955555
0.00953103
0.00950584
0.00947996
0.0094534
0.00942616
0.00939823
0.00936962
0.00934033
0.00931035
0.00927969
0.00924834
0.0092163
0.00918358
0.00915017
0.00911607
0.00908129
0.00904582
0.00900966
0.00897282
0.00893529
0.00889708
0.00885818
0.00881859
0.00877832
0.00873736
0.00869572
0.0086534
0.0086104
0.00856671
0.00852234
0.0084773
0.00843157
0.00838517
0.0083381
0.00829034
0.00824192
0.00819282
0.00814306
0.00809262
0.00804152
0.00798975
0.00793732
0.00788423
0.00783048
0.00777608
0.00772101
0.0076653
0.00760894
0.00755193
0.00749428
0.00743598
0.00737705
0.00731748
0.00725728
0.00719645
0.00713499
0.00707291
0.0070102
0.00694689
0.00688296
0.00681842
0.00675327
0.00668752
0.00662118
0.00655425
0.00648672
0.00641861
0.00634992
0.00628065
0.00621081
0.00614041
0.00606944
0.00599792
0.00592585
0.00585323
0.00578006
0.00570636
0.00563213
0.00555738
0.0054821
0.00540631
0.00533001
0.00525321
0.00517591
0.00509812
0.00501985
0.0049411
0.00486188
0.00478219
0.00470205
0.00462145
0.00454041
0.00445893
0.00437701
0.00429468
0.00421192
0.00412876
0.00404519
0.00396123
0.00387687
0.00379214
0.00370704
0.00362157
0.00353574
0.00344956
0.00336304
0.00327619
0.00318901
0.00310152
0.00301371
0.00292561
0.00283721
0.00274853
0.00265957
0.00257034
0.00248086
0.00239113
0.00230115
0.00221095
0.00212052
0.00202987
0.00193902
0.00184798
0.00175674
0.00166533
0.00157375
0.00148201
0.00139012
0.00129809
0.00120592
0.00111363
0.00102123
0.000928722
0.000836121
0.000743434
0.000650672
0.000557842
0.000464956
0.000372022
0.00027905
0.000186049
9.30293e-05
1.1152e-11
-9.30293e-05
-0.000186049
-0.00027905
-0.000372022
-0.000464956
-0.000557842
-0.000650671
-0.000743434
-0.000836121
-0.000928722
-0.00102123
-0.00111363
-0.00120592
-0.00129808
-0.00139012
-0.00148201
-0.00157375
-0.00166533
-0.00175674
-0.00184798
-0.00193902
-0.00202987
-0.00212052
-0.00221094
-0.00230115
-0.00239113
-0.00248086
-0.00257034
-0.00265957
-0.00274852
-0.00283721
-0.0029256
-0.00301371
-0.00310151
-0.00318901
-0.00327619
-0.00336304
-0.00344956
-0.00353574
-0.00362156
-0.00370703
-0.00379214
-0.00387687
-0.00396122
-0.00404518
-0.00412875
-0.00421192
-0.00429467
-0.00437701
-0.00445892
-0.0045404
-0.00462144
-0.00470204
-0.00478219
-0.00486187
-0.0049411
-0.00501985
-0.00509812
-0.00517591
-0.0052532
-0.00533
-0.0054063
-0.00548209
-0.00555737
-0.00563212
-0.00570636
-0.00578005
-0.00585322
-0.00592584
-0.00599791
-0.00606944
-0.0061404
-0.00621081
-0.00628064
-0.00634991
-0.0064186
-0.00648671
-0.00655424
-0.00662117
-0.00668752
-0.00675326
-0.00681841
-0.00688295
-0.00694688
-0.0070102
-0.0070729
-0.00713498
-0.00719644
-0.00725727
-0.00731747
-0.00737704
-0.00743597
-0.00749427
-0.00755192
-0.00760893
-0.00766529
-0.00772101
-0.00777607
-0.00783047
-0.00788422
-0.00793732
-0.00798974
-0.00804151
-0.00809261
-0.00814305
-0.00819282
-0.00824191
-0.00829034
-0.00833809
-0.00838517
-0.00843157
-0.00847729
-0.00852234
-0.0085667
-0.00861039
-0.00865339
-0.00869572
-0.00873736
-0.00877831
-0.00881858
-0.00885817
-0.00889707
-0.00893529
-0.00897282
-0.00900966
-0.00904582
-0.00908129
-0.00911607
-0.00915016
-0.00918357
-0.0092163
-0.00924833
-0.00927968
-0.00931035
-0.00934033
-0.00936962
-0.00939823
-0.00942616
-0.0094534
-0.00947996
-0.00950583
-0.00953103
-0.00955555
-0.00957938
-0.00960254
-0.00962502
-0.00964682
-0.00966795
-0.00968841
-0.00970819
-0.0097273
-0.00974574
-0.00976351
-0.00978061
-0.00979704
-0.00981281
-0.00982792
-0.00984236
-0.00985615
-0.00986927
-0.00988174
-0.00989355
-0.00990471
-0.00991521
-0.00992507
-0.00993428
-0.00994284
-0.00995076
-0.00995803
-0.00996466
-0.00997066
-0.00997602
-0.00998074
-0.00998483
-0.00998829
-0.00999112
-0.00999333
-0.00999491
-0.00999587
-0.00999621
-0.00999593
-0.00999504
-0.00999354
-0.00999142
-0.0099887
-0.00998537
-0.00998144
-0.00997691
-0.00997178
-0.00996606
-0.00995974
-0.00995283
-0.00994533
-0.00993725
-0.00992858
-0.00991933
-0.00990951
-0.00989911
-0.00988814
-0.00987659
-0.00986448
-0.00985181
-0.00983857
-0.00982478
-0.00981043
-0.00979552
-0.00978006
-0.00976405
-0.0097475
-0.00973041
-0.00971277
-0.0096946
-0.00967589
-0.00965665
-0.00963689
-0.00961659
-0.00959577
-0.00957444
-0.00955258
-0.00953021
-0.00950733
-0.00948394
-0.00946004
-0.00943564
-0.00941074
-0.00938535
-0.00935945
-0.00933307
-0.0093062
-0.00927884
-0.009251
-0.00922267
-0.00919388
-0.0091646
-0.00913486
-0.00910465
-0.00907397
-0.00904283
-0.00901123
-0.00897917
-0.00894666
-0.0089137
-0.0088803
-0.00884644
-0.00881215
-0.00877742
-0.00874225
-0.00870665
-0.00867062
-0.00863416
-0.00859728
-0.00855997
-0.00852225
-0.00848412
-0.00844557
-0.00840661
-0.00836725
-0.00832749
-0.00828732
-0.00824676
-0.0082058
-0.00816445
-0.00812271
-0.00808059
-0.00803808
-0.0079952
-0.00795194
-0.0079083
-0.0078643
-0.00781993
-0.00777519
-0.00773009
-0.00768463
-0.00763882
-0.00759265
-0.00754614
-0.00749927
-0.00745207
-0.00740452
-0.00735663
-0.00730841
-0.00725986
-0.00721097
-0.00716176
-0.00711223
-0.00706238
-0.00701221
-0.00696172
-0.00691092
-0.00685981
-0.0068084
-0.00675669
-0.00670467
-0.00665236
-0.00659975
-0.00654685
-0.00649367
-0.00644019
-0.00638644
-0.0063324
-0.00627809
-0.0062235
-0.00616865
-0.00611352
-0.00605813
-0.00600247
-0.00594656
-0.00589039
-0.00583397
-0.00577729
-0.00572037
-0.0056632
-0.00560578
-0.00554813
-0.00549024
-0.00543212
-0.00537377
-0.00531518
-0.00525638
-0.00519735
-0.0051381
-0.00507863
-0.00501895
-0.00495906
-0.00489896
-0.00483865
-0.00477814
-0.00471743
-0.00465652
-0.00459542
-0.00453413
-0.00447264
-0.00441098
-0.00434912
-0.00428709
-0.00422488
-0.0041625
-0.00409994
-0.00403721
-0.00397432
-0.00391127
-0.00384805
-0.00378467
-0.00372114
-0.00365746
-0.00359362
-0.00352964
-0.00346552
-0.00340125
-0.00333684
-0.0032723
-0.00320763
-0.00314282
-0.00307789
-0.00301283
-0.00294765
-0.00288235
-0.00281693
-0.0027514
-0.00268575
-0.00262
-0.00255415
-0.00248818
-0.00242212
-0.00235596
-0.00228971
-0.00222336
-0.00215693
-0.00209041
-0.0020238
-0.00195711
-0.00189034
-0.0018235
-0.00175659
-0.0016896
-0.00162255
-0.00155543
-0.00148825
-0.00142101
-0.00135371
-0.00128636
-0.00121896
-0.00115151
-0.00108401
-0.00101647
-0.000948886
-0.000881267
-0.000813613
-0.000745926
-0.000678209
-0.000610465
-0.000542697
-0.000474907
-0.000407099
-0.000339274
-0.000271435
-0.000203586
-0.000135728
-6.78656e-05
)
;

boundaryField
{
    left
    {
        type            calculated;
        value           uniform 0;
    }
    right
    {
        type            calculated;
        value           uniform 0;
    }
    frontBackUpDown
    {
        type            empty;
    }
}


// ************************************************************************* //
