/*--------------------------------*- C++ -*----------------------------------*\
| =========                 |                                                 |
| \\      /  F ield         | OpenFOAM: The Open Source CFD Toolbox           |
|  \\    /   O peration     | Version:  2412                                  |
|   \\  /    A nd           | Website:  www.openfoam.com                      |
|    \\/     M anipulation  |                                                 |
\*---------------------------------------------------------------------------*/
FoamFile
{
    version     2.0;
    format      ascii;
    arch        "LSB;label=32;scalar=64";
    class       volVectorField;
    location    "0.05";
    object      U_0;
}
// * * * * * * * * * * * * * * * * * * * * * * * * * * * * * * * * * * * * * //

dimensions      [0 1 -1 0 0 0 0];

internalField   nonuniform List<vector> 
800
(
(0.00339785 0 0)
(0.0101936 0 0)
(0.0169889 0 0)
(0.0237835 0 0)
(0.0305772 0 0)
(0.0373697 0 0)
(0.0441607 0 0)
(0.0509499 0 0)
(0.057737 0 0)
(0.0645219 0 0)
(0.0713041 0 0)
(0.0780835 0 0)
(0.0848598 0 0)
(0.0916326 0 0)
(0.0984018 0 0)
(0.105167 0 0)
(0.111928 0 0)
(0.118685 0 0)
(0.125436 0 0)
(0.132183 0 0)
(0.138925 0 0)
(0.14566 0 0)
(0.15239 0 0)
(0.159114 0 0)
(0.165832 0 0)
(0.172543 0 0)
(0.179246 0 0)
(0.185943 0 0)
(0.192632 0 0)
(0.199314 0 0)
(0.205987 0 0)
(0.212652 0 0)
(0.219309 0 0)
(0.225956 0 0)
(0.232595 0 0)
(0.239224 0 0)
(0.245843 0 0)
(0.252453 0 0)
(0.259052 0 0)
(0.26564 0 0)
(0.272218 0 0)
(0.278785 0 0)
(0.285341 0 0)
(0.291884 0 0)
(0.298416 0 0)
(0.304936 0 0)
(0.311444 0 0)
(0.317938 0 0)
(0.32442 0 0)
(0.330888 0 0)
(0.337343 0 0)
(0.343784 0 0)
(0.350211 0 0)
(0.356624 0 0)
(0.363022 0 0)
(0.369405 0 0)
(0.375773 0 0)
(0.382125 0 0)
(0.388462 0 0)
(0.394782 0 0)
(0.401086 0 0)
(0.407374 0 0)
(0.413645 0 0)
(0.419898 0 0)
(0.426134 0 0)
(0.432353 0 0)
(0.438553 0 0)
(0.444735 0 0)
(0.450899 0 0)
(0.457043 0 0)
(0.463169 0 0)
(0.469275 0 0)
(0.475362 0 0)
(0.481428 0 0)
(0.487474 0 0)
(0.4935 0 0)
(0.499505 0 0)
(0.505489 0 0)
(0.511451 0 0)
(0.517392 0 0)
(0.523311 0 0)
(0.529207 0 0)
(0.535081 0 0)
(0.540933 0 0)
(0.546761 0 0)
(0.552566 0 0)
(0.558347 0 0)
(0.564104 0 0)
(0.569837 0 0)
(0.575545 0 0)
(0.581229 0 0)
(0.586888 0 0)
(0.592521 0 0)
(0.598128 0 0)
(0.60371 0 0)
(0.609265 0 0)
(0.614794 0 0)
(0.620296 0 0)
(0.625771 0 0)
(0.631219 0 0)
(0.636638 0 0)
(0.64203 0 0)
(0.647394 0 0)
(0.652729 0 0)
(0.658035 0 0)
(0.663312 0 0)
(0.66856 0 0)
(0.673778 0 0)
(0.678966 0 0)
(0.684123 0 0)
(0.689251 0 0)
(0.694347 0 0)
(0.699412 0 0)
(0.704445 0 0)
(0.709447 0 0)
(0.714417 0 0)
(0.719355 0 0)
(0.724259 0 0)
(0.729131 0 0)
(0.73397 0 0)
(0.738775 0 0)
(0.743546 0 0)
(0.748284 0 0)
(0.752986 0 0)
(0.757655 0 0)
(0.762288 0 0)
(0.766886 0 0)
(0.771448 0 0)
(0.775975 0 0)
(0.780465 0 0)
(0.784919 0 0)
(0.789336 0 0)
(0.793716 0 0)
(0.798059 0 0)
(0.802364 0 0)
(0.806631 0 0)
(0.810859 0 0)
(0.81505 0 0)
(0.819201 0 0)
(0.823314 0 0)
(0.827387 0 0)
(0.83142 0 0)
(0.835413 0 0)
(0.839366 0 0)
(0.843278 0 0)
(0.84715 0 0)
(0.85098 0 0)
(0.854768 0 0)
(0.858515 0 0)
(0.86222 0 0)
(0.865883 0 0)
(0.869502 0 0)
(0.873079 0 0)
(0.876613 0 0)
(0.880102 0 0)
(0.883548 0 0)
(0.88695 0 0)
(0.890308 0 0)
(0.89362 0 0)
(0.896888 0 0)
(0.90011 0 0)
(0.903287 0 0)
(0.906418 0 0)
(0.909502 0 0)
(0.91254 0 0)
(0.915531 0 0)
(0.918475 0 0)
(0.921372 0 0)
(0.924221 0 0)
(0.927022 0 0)
(0.929774 0 0)
(0.932478 0 0)
(0.935134 0 0)
(0.93774 0 0)
(0.940296 0 0)
(0.942803 0 0)
(0.94526 0 0)
(0.947667 0 0)
(0.950023 0 0)
(0.952328 0 0)
(0.954582 0 0)
(0.956784 0 0)
(0.958935 0 0)
(0.961033 0 0)
(0.96308 0 0)
(0.965074 0 0)
(0.967014 0 0)
(0.968902 0 0)
(0.970737 0 0)
(0.972517 0 0)
(0.974244 0 0)
(0.975916 0 0)
(0.977534 0 0)
(0.979097 0 0)
(0.980605 0 0)
(0.982058 0 0)
(0.983455 0 0)
(0.984796 0 0)
(0.986081 0 0)
(0.987309 0 0)
(0.988481 0 0)
(0.989596 0 0)
(0.990653 0 0)
(0.991653 0 0)
(0.992596 0 0)
(0.99348 0 0)
(0.994306 0 0)
(0.995074 0 0)
(0.995783 0 0)
(0.996433 0 0)
(0.997023 0 0)
(0.997554 0 0)
(0.998025 0 0)
(0.998437 0 0)
(0.998788 0 0)
(0.999078 0 0)
(0.999308 0 0)
(0.999477 0 0)
(0.999584 0 0)
(0.99963 0 0)
(0.999615 0 0)
(0.999538 0 0)
(0.999398 0 0)
(0.999196 0 0)
(0.998932 0 0)
(0.998605 0 0)
(0.998215 0 0)
(0.997762 0 0)
(0.997245 0 0)
(0.996665 0 0)
(0.996021 0 0)
(0.995313 0 0)
(0.994541 0 0)
(0.993705 0 0)
(0.992804 0 0)
(0.991838 0 0)
(0.990807 0 0)
(0.989711 0 0)
(0.98855 0 0)
(0.987324 0 0)
(0.986032 0 0)
(0.984674 0 0)
(0.98325 0 0)
(0.98176 0 0)
(0.980204 0 0)
(0.978581 0 0)
(0.976892 0 0)
(0.975136 0 0)
(0.973313 0 0)
(0.971424 0 0)
(0.969467 0 0)
(0.967443 0 0)
(0.965352 0 0)
(0.963193 0 0)
(0.960967 0 0)
(0.958673 0 0)
(0.956312 0 0)
(0.953882 0 0)
(0.951385 0 0)
(0.94882 0 0)
(0.946187 0 0)
(0.943485 0 0)
(0.940716 0 0)
(0.937878 0 0)
(0.934972 0 0)
(0.931997 0 0)
(0.928954 0 0)
(0.925843 0 0)
(0.922663 0 0)
(0.919414 0 0)
(0.916097 0 0)
(0.912712 0 0)
(0.909258 0 0)
(0.905735 0 0)
(0.902144 0 0)
(0.898484 0 0)
(0.894756 0 0)
(0.89096 0 0)
(0.887095 0 0)
(0.883161 0 0)
(0.87916 0 0)
(0.87509 0 0)
(0.870951 0 0)
(0.866745 0 0)
(0.862471 0 0)
(0.858128 0 0)
(0.853718 0 0)
(0.84924 0 0)
(0.844694 0 0)
(0.840081 0 0)
(0.8354 0 0)
(0.830651 0 0)
(0.825836 0 0)
(0.820954 0 0)
(0.816005 0 0)
(0.810989 0 0)
(0.805906 0 0)
(0.800757 0 0)
(0.795542 0 0)
(0.790261 0 0)
(0.784915 0 0)
(0.779502 0 0)
(0.774025 0 0)
(0.768482 0 0)
(0.762875 0 0)
(0.757203 0 0)
(0.751467 0 0)
(0.745666 0 0)
(0.739802 0 0)
(0.733875 0 0)
(0.727884 0 0)
(0.72183 0 0)
(0.715714 0 0)
(0.709536 0 0)
(0.703296 0 0)
(0.696994 0 0)
(0.690631 0 0)
(0.684207 0 0)
(0.677723 0 0)
(0.671179 0 0)
(0.664575 0 0)
(0.657912 0 0)
(0.65119 0 0)
(0.64441 0 0)
(0.637572 0 0)
(0.630676 0 0)
(0.623723 0 0)
(0.616714 0 0)
(0.609648 0 0)
(0.602527 0 0)
(0.595351 0 0)
(0.58812 0 0)
(0.580835 0 0)
(0.573496 0 0)
(0.566104 0 0)
(0.55866 0 0)
(0.551164 0 0)
(0.543616 0 0)
(0.536017 0 0)
(0.528369 0 0)
(0.52067 0 0)
(0.512923 0 0)
(0.505127 0 0)
(0.497283 0 0)
(0.489392 0 0)
(0.481454 0 0)
(0.473471 0 0)
(0.465442 0 0)
(0.457369 0 0)
(0.449252 0 0)
(0.441091 0 0)
(0.432888 0 0)
(0.424643 0 0)
(0.416357 0 0)
(0.408031 0 0)
(0.399665 0 0)
(0.39126 0 0)
(0.382817 0 0)
(0.374337 0 0)
(0.365819 0 0)
(0.357266 0 0)
(0.348678 0 0)
(0.340055 0 0)
(0.331399 0 0)
(0.322711 0 0)
(0.31399 0 0)
(0.305238 0 0)
(0.296456 0 0)
(0.287644 0 0)
(0.278804 0 0)
(0.269936 0 0)
(0.261041 0 0)
(0.252119 0 0)
(0.243173 0 0)
(0.234202 0 0)
(0.225208 0 0)
(0.216191 0 0)
(0.207153 0 0)
(0.198093 0 0)
(0.189014 0 0)
(0.179915 0 0)
(0.170799 0 0)
(0.161665 0 0)
(0.152515 0 0)
(0.143349 0 0)
(0.134169 0 0)
(0.124975 0 0)
(0.115769 0 0)
(0.106551 0 0)
(0.0973216 0 0)
(0.0880828 0 0)
(0.078835 0 0)
(0.0695792 0 0)
(0.0603163 0 0)
(0.0510472 0 0)
(0.041773 0 0)
(0.0324945 0 0)
(0.0232127 0 0)
(0.0139286 0 0)
(0.00464302 0 0)
(-0.00464302 0 0)
(-0.0139286 0 0)
(-0.0232127 0 0)
(-0.0324945 0 0)
(-0.041773 0 0)
(-0.0510472 0 0)
(-0.0603163 0 0)
(-0.0695791 0 0)
(-0.078835 0 0)
(-0.0880827 0 0)
(-0.0973216 0 0)
(-0.106551 0 0)
(-0.115769 0 0)
(-0.124975 0 0)
(-0.134169 0 0)
(-0.143349 0 0)
(-0.152515 0 0)
(-0.161665 0 0)
(-0.170799 0 0)
(-0.179915 0 0)
(-0.189014 0 0)
(-0.198093 0 0)
(-0.207152 0 0)
(-0.216191 0 0)
(-0.225208 0 0)
(-0.234202 0 0)
(-0.243173 0 0)
(-0.252119 0 0)
(-0.26104 0 0)
(-0.269935 0 0)
(-0.278803 0 0)
(-0.287644 0 0)
(-0.296455 0 0)
(-0.305238 0 0)
(-0.313989 0 0)
(-0.32271 0 0)
(-0.331399 0 0)
(-0.340055 0 0)
(-0.348678 0 0)
(-0.357266 0 0)
(-0.365819 0 0)
(-0.374336 0 0)
(-0.382817 0 0)
(-0.39126 0 0)
(-0.399665 0 0)
(-0.408031 0 0)
(-0.416357 0 0)
(-0.424643 0 0)
(-0.432888 0 0)
(-0.441091 0 0)
(-0.449251 0 0)
(-0.457368 0 0)
(-0.465442 0 0)
(-0.47347 0 0)
(-0.481454 0 0)
(-0.489391 0 0)
(-0.497282 0 0)
(-0.505126 0 0)
(-0.512922 0 0)
(-0.52067 0 0)
(-0.528368 0 0)
(-0.536017 0 0)
(-0.543615 0 0)
(-0.551163 0 0)
(-0.558659 0 0)
(-0.566104 0 0)
(-0.573495 0 0)
(-0.580834 0 0)
(-0.588119 0 0)
(-0.59535 0 0)
(-0.602527 0 0)
(-0.609648 0 0)
(-0.616713 0 0)
(-0.623723 0 0)
(-0.630675 0 0)
(-0.637571 0 0)
(-0.644409 0 0)
(-0.65119 0 0)
(-0.657912 0 0)
(-0.664575 0 0)
(-0.671178 0 0)
(-0.677723 0 0)
(-0.684207 0 0)
(-0.69063 0 0)
(-0.696993 0 0)
(-0.703295 0 0)
(-0.709535 0 0)
(-0.715714 0 0)
(-0.72183 0 0)
(-0.727883 0 0)
(-0.733874 0 0)
(-0.739801 0 0)
(-0.745665 0 0)
(-0.751466 0 0)
(-0.757202 0 0)
(-0.762874 0 0)
(-0.768482 0 0)
(-0.774024 0 0)
(-0.779502 0 0)
(-0.784914 0 0)
(-0.790261 0 0)
(-0.795542 0 0)
(-0.800757 0 0)
(-0.805905 0 0)
(-0.810988 0 0)
(-0.816004 0 0)
(-0.820953 0 0)
(-0.825835 0 0)
(-0.830651 0 0)
(-0.835399 0 0)
(-0.84008 0 0)
(-0.844693 0 0)
(-0.849239 0 0)
(-0.853717 0 0)
(-0.858128 0 0)
(-0.86247 0 0)
(-0.866745 0 0)
(-0.870951 0 0)
(-0.875089 0 0)
(-0.879159 0 0)
(-0.883161 0 0)
(-0.887094 0 0)
(-0.890959 0 0)
(-0.894756 0 0)
(-0.898484 0 0)
(-0.902144 0 0)
(-0.905735 0 0)
(-0.909257 0 0)
(-0.912711 0 0)
(-0.916097 0 0)
(-0.919414 0 0)
(-0.922662 0 0)
(-0.925842 0 0)
(-0.928954 0 0)
(-0.931997 0 0)
(-0.934971 0 0)
(-0.937877 0 0)
(-0.940715 0 0)
(-0.943485 0 0)
(-0.946186 0 0)
(-0.94882 0 0)
(-0.951385 0 0)
(-0.953882 0 0)
(-0.956312 0 0)
(-0.958673 0 0)
(-0.960967 0 0)
(-0.963193 0 0)
(-0.965352 0 0)
(-0.967443 0 0)
(-0.969467 0 0)
(-0.971423 0 0)
(-0.973313 0 0)
(-0.975136 0 0)
(-0.976892 0 0)
(-0.978581 0 0)
(-0.980204 0 0)
(-0.98176 0 0)
(-0.98325 0 0)
(-0.984674 0 0)
(-0.986032 0 0)
(-0.987324 0 0)
(-0.98855 0 0)
(-0.989711 0 0)
(-0.990807 0 0)
(-0.991838 0 0)
(-0.992804 0 0)
(-0.993705 0 0)
(-0.994541 0 0)
(-0.995313 0 0)
(-0.996021 0 0)
(-0.996665 0 0)
(-0.997245 0 0)
(-0.997762 0 0)
(-0.998215 0 0)
(-0.998605 0 0)
(-0.998932 0 0)
(-0.999196 0 0)
(-0.999398 0 0)
(-0.999538 0 0)
(-0.999615 0 0)
(-0.99963 0 0)
(-0.999584 0 0)
(-0.999477 0 0)
(-0.999308 0 0)
(-0.999078 0 0)
(-0.998788 0 0)
(-0.998437 0 0)
(-0.998025 0 0)
(-0.997554 0 0)
(-0.997023 0 0)
(-0.996433 0 0)
(-0.995783 0 0)
(-0.995074 0 0)
(-0.994306 0 0)
(-0.99348 0 0)
(-0.992596 0 0)
(-0.991653 0 0)
(-0.990653 0 0)
(-0.989596 0 0)
(-0.988481 0 0)
(-0.987309 0 0)
(-0.986081 0 0)
(-0.984796 0 0)
(-0.983455 0 0)
(-0.982058 0 0)
(-0.980605 0 0)
(-0.979097 0 0)
(-0.977534 0 0)
(-0.975916 0 0)
(-0.974244 0 0)
(-0.972517 0 0)
(-0.970736 0 0)
(-0.968902 0 0)
(-0.967014 0 0)
(-0.965073 0 0)
(-0.96308 0 0)
(-0.961033 0 0)
(-0.958934 0 0)
(-0.956784 0 0)
(-0.954581 0 0)
(-0.952327 0 0)
(-0.950022 0 0)
(-0.947666 0 0)
(-0.94526 0 0)
(-0.942803 0 0)
(-0.940296 0 0)
(-0.937739 0 0)
(-0.935133 0 0)
(-0.932478 0 0)
(-0.929774 0 0)
(-0.927021 0 0)
(-0.92422 0 0)
(-0.921372 0 0)
(-0.918475 0 0)
(-0.915531 0 0)
(-0.91254 0 0)
(-0.909502 0 0)
(-0.906417 0 0)
(-0.903287 0 0)
(-0.90011 0 0)
(-0.896888 0 0)
(-0.89362 0 0)
(-0.890307 0 0)
(-0.88695 0 0)
(-0.883548 0 0)
(-0.880102 0 0)
(-0.876612 0 0)
(-0.873079 0 0)
(-0.869502 0 0)
(-0.865882 0 0)
(-0.86222 0 0)
(-0.858515 0 0)
(-0.854768 0 0)
(-0.850979 0 0)
(-0.847149 0 0)
(-0.843278 0 0)
(-0.839365 0 0)
(-0.835413 0 0)
(-0.831419 0 0)
(-0.827386 0 0)
(-0.823313 0 0)
(-0.819201 0 0)
(-0.815049 0 0)
(-0.810859 0 0)
(-0.80663 0 0)
(-0.802363 0 0)
(-0.798058 0 0)
(-0.793715 0 0)
(-0.789335 0 0)
(-0.784918 0 0)
(-0.780464 0 0)
(-0.775974 0 0)
(-0.771448 0 0)
(-0.766885 0 0)
(-0.762287 0 0)
(-0.757654 0 0)
(-0.752986 0 0)
(-0.748283 0 0)
(-0.743546 0 0)
(-0.738774 0 0)
(-0.733969 0 0)
(-0.729131 0 0)
(-0.724259 0 0)
(-0.719354 0 0)
(-0.714416 0 0)
(-0.709447 0 0)
(-0.704445 0 0)
(-0.699411 0 0)
(-0.694346 0 0)
(-0.68925 0 0)
(-0.684123 0 0)
(-0.678965 0 0)
(-0.673777 0 0)
(-0.668559 0 0)
(-0.663312 0 0)
(-0.658035 0 0)
(-0.652728 0 0)
(-0.647393 0 0)
(-0.64203 0 0)
(-0.636638 0 0)
(-0.631218 0 0)
(-0.62577 0 0)
(-0.620296 0 0)
(-0.614794 0 0)
(-0.609265 0 0)
(-0.603709 0 0)
(-0.598128 0 0)
(-0.59252 0 0)
(-0.586887 0 0)
(-0.581229 0 0)
(-0.575545 0 0)
(-0.569836 0 0)
(-0.564104 0 0)
(-0.558346 0 0)
(-0.552565 0 0)
(-0.54676 0 0)
(-0.540932 0 0)
(-0.535081 0 0)
(-0.529207 0 0)
(-0.52331 0 0)
(-0.517391 0 0)
(-0.511451 0 0)
(-0.505488 0 0)
(-0.499505 0 0)
(-0.4935 0 0)
(-0.487474 0 0)
(-0.481428 0 0)
(-0.475361 0 0)
(-0.469275 0 0)
(-0.463168 0 0)
(-0.457043 0 0)
(-0.450898 0 0)
(-0.444735 0 0)
(-0.438553 0 0)
(-0.432352 0 0)
(-0.426134 0 0)
(-0.419898 0 0)
(-0.413644 0 0)
(-0.407374 0 0)
(-0.401086 0 0)
(-0.394782 0 0)
(-0.388461 0 0)
(-0.382125 0 0)
(-0.375773 0 0)
(-0.369405 0 0)
(-0.363022 0 0)
(-0.356624 0 0)
(-0.350211 0 0)
(-0.343784 0 0)
(-0.337343 0 0)
(-0.330888 0 0)
(-0.32442 0 0)
(-0.317938 0 0)
(-0.311443 0 0)
(-0.304936 0 0)
(-0.298416 0 0)
(-0.291884 0 0)
(-0.28534 0 0)
(-0.278785 0 0)
(-0.272218 0 0)
(-0.26564 0 0)
(-0.259052 0 0)
(-0.252452 0 0)
(-0.245843 0 0)
(-0.239224 0 0)
(-0.232595 0 0)
(-0.225956 0 0)
(-0.219308 0 0)
(-0.212652 0 0)
(-0.205987 0 0)
(-0.199314 0 0)
(-0.192632 0 0)
(-0.185943 0 0)
(-0.179246 0 0)
(-0.172543 0 0)
(-0.165832 0 0)
(-0.159114 0 0)
(-0.15239 0 0)
(-0.14566 0 0)
(-0.138925 0 0)
(-0.132183 0 0)
(-0.125436 0 0)
(-0.118685 0 0)
(-0.111928 0 0)
(-0.105167 0 0)
(-0.0984018 0 0)
(-0.0916326 0 0)
(-0.0848598 0 0)
(-0.0780835 0 0)
(-0.0713041 0 0)
(-0.0645218 0 0)
(-0.057737 0 0)
(-0.0509499 0 0)
(-0.0441607 0 0)
(-0.0373697 0 0)
(-0.0305773 0 0)
(-0.0237836 0 0)
(-0.016989 0 0)
(-0.0101936 0 0)
(-0.00339793 0 0)
)
;

boundaryField
{
    left
    {
        type            fixedValue;
        value           uniform (0 0 0);
    }
    right
    {
        type            fixedValue;
        value           uniform (0 0 0);
    }
    frontBackUpDown
    {
        type            empty;
    }
}


// ************************************************************************* //
