/*--------------------------------*- C++ -*----------------------------------*\
| =========                 |                                                 |
| \\      /  F ield         | OpenFOAM: The Open Source CFD Toolbox           |
|  \\    /   O peration     | Version:  2412                                  |
|   \\  /    A nd           | Website:  www.openfoam.com                      |
|    \\/     M anipulation  |                                                 |
\*---------------------------------------------------------------------------*/
FoamFile
{
    version     2.0;
    format      ascii;
    arch        "LSB;label=32;scalar=64";
    class       volVectorField;
    location    "0.05";
    object      U_0_0_0;
}
// * * * * * * * * * * * * * * * * * * * * * * * * * * * * * * * * * * * * * //

dimensions      [0 1 -1 0 0 0 0];

internalField   nonuniform List<vector> 
800
(
(0.00340712 0 0)
(0.0102214 0 0)
(0.0170352 0 0)
(0.0238484 0 0)
(0.0306606 0 0)
(0.0374716 0 0)
(0.044281 0 0)
(0.0510887 0 0)
(0.0578943 0 0)
(0.0646976 0 0)
(0.0714982 0 0)
(0.078296 0 0)
(0.0850905 0 0)
(0.0918817 0 0)
(0.0986691 0 0)
(0.105453 0 0)
(0.112232 0 0)
(0.119006 0 0)
(0.125776 0 0)
(0.132541 0 0)
(0.1393 0 0)
(0.146054 0 0)
(0.152802 0 0)
(0.159544 0 0)
(0.166279 0 0)
(0.173007 0 0)
(0.179729 0 0)
(0.186443 0 0)
(0.193149 0 0)
(0.199848 0 0)
(0.206538 0 0)
(0.213221 0 0)
(0.219894 0 0)
(0.226559 0 0)
(0.233214 0 0)
(0.23986 0 0)
(0.246496 0 0)
(0.253122 0 0)
(0.259737 0 0)
(0.266342 0 0)
(0.272936 0 0)
(0.279519 0 0)
(0.286091 0 0)
(0.29265 0 0)
(0.299198 0 0)
(0.305734 0 0)
(0.312256 0 0)
(0.318766 0 0)
(0.325263 0 0)
(0.331747 0 0)
(0.338216 0 0)
(0.344672 0 0)
(0.351114 0 0)
(0.357541 0 0)
(0.363953 0 0)
(0.37035 0 0)
(0.376732 0 0)
(0.383098 0 0)
(0.389448 0 0)
(0.395782 0 0)
(0.4021 0 0)
(0.4084 0 0)
(0.414684 0 0)
(0.42095 0 0)
(0.427199 0 0)
(0.43343 0 0)
(0.439643 0 0)
(0.445837 0 0)
(0.452012 0 0)
(0.458169 0 0)
(0.464306 0 0)
(0.470423 0 0)
(0.476521 0 0)
(0.482598 0 0)
(0.488655 0 0)
(0.494691 0 0)
(0.500707 0 0)
(0.5067 0 0)
(0.512673 0 0)
(0.518623 0 0)
(0.524551 0 0)
(0.530457 0 0)
(0.53634 0 0)
(0.5422 0 0)
(0.548037 0 0)
(0.55385 0 0)
(0.559639 0 0)
(0.565405 0 0)
(0.571145 0 0)
(0.576861 0 0)
(0.582552 0 0)
(0.588217 0 0)
(0.593857 0 0)
(0.599471 0 0)
(0.605059 0 0)
(0.61062 0 0)
(0.616155 0 0)
(0.621662 0 0)
(0.627142 0 0)
(0.632595 0 0)
(0.638019 0 0)
(0.643416 0 0)
(0.648783 0 0)
(0.654122 0 0)
(0.659432 0 0)
(0.664713 0 0)
(0.669964 0 0)
(0.675184 0 0)
(0.680375 0 0)
(0.685535 0 0)
(0.690664 0 0)
(0.695762 0 0)
(0.700829 0 0)
(0.705864 0 0)
(0.710866 0 0)
(0.715837 0 0)
(0.720775 0 0)
(0.72568 0 0)
(0.730551 0 0)
(0.73539 0 0)
(0.740194 0 0)
(0.744964 0 0)
(0.7497 0 0)
(0.754402 0 0)
(0.759068 0 0)
(0.763699 0 0)
(0.768295 0 0)
(0.772854 0 0)
(0.777378 0 0)
(0.781865 0 0)
(0.786315 0 0)
(0.790728 0 0)
(0.795104 0 0)
(0.799443 0 0)
(0.803743 0 0)
(0.808005 0 0)
(0.812229 0 0)
(0.816413 0 0)
(0.820559 0 0)
(0.824665 0 0)
(0.828732 0 0)
(0.832758 0 0)
(0.836744 0 0)
(0.84069 0 0)
(0.844594 0 0)
(0.848458 0 0)
(0.85228 0 0)
(0.85606 0 0)
(0.859798 0 0)
(0.863494 0 0)
(0.867147 0 0)
(0.870757 0 0)
(0.874324 0 0)
(0.877847 0 0)
(0.881326 0 0)
(0.884762 0 0)
(0.888152 0 0)
(0.891498 0 0)
(0.894799 0 0)
(0.898055 0 0)
(0.901265 0 0)
(0.904429 0 0)
(0.907547 0 0)
(0.910618 0 0)
(0.913643 0 0)
(0.916621 0 0)
(0.919551 0 0)
(0.922433 0 0)
(0.925268 0 0)
(0.928054 0 0)
(0.930792 0 0)
(0.93348 0 0)
(0.93612 0 0)
(0.93871 0 0)
(0.941251 0 0)
(0.943741 0 0)
(0.946182 0 0)
(0.948571 0 0)
(0.95091 0 0)
(0.953198 0 0)
(0.955434 0 0)
(0.957619 0 0)
(0.959752 0 0)
(0.961832 0 0)
(0.96386 0 0)
(0.965835 0 0)
(0.967757 0 0)
(0.969626 0 0)
(0.971441 0 0)
(0.973202 0 0)
(0.974908 0 0)
(0.976561 0 0)
(0.978158 0 0)
(0.979701 0 0)
(0.981188 0 0)
(0.98262 0 0)
(0.983995 0 0)
(0.985315 0 0)
(0.986578 0 0)
(0.987785 0 0)
(0.988935 0 0)
(0.990028 0 0)
(0.991063 0 0)
(0.992041 0 0)
(0.992961 0 0)
(0.993822 0 0)
(0.994625 0 0)
(0.99537 0 0)
(0.996055 0 0)
(0.996682 0 0)
(0.997249 0 0)
(0.997756 0 0)
(0.998204 0 0)
(0.998591 0 0)
(0.998918 0 0)
(0.999184 0 0)
(0.99939 0 0)
(0.999534 0 0)
(0.999617 0 0)
(0.999639 0 0)
(0.999599 0 0)
(0.999497 0 0)
(0.999333 0 0)
(0.999106 0 0)
(0.998817 0 0)
(0.998465 0 0)
(0.99805 0 0)
(0.997571 0 0)
(0.99703 0 0)
(0.996424 0 0)
(0.995755 0 0)
(0.995022 0 0)
(0.994225 0 0)
(0.993363 0 0)
(0.992437 0 0)
(0.991446 0 0)
(0.99039 0 0)
(0.989269 0 0)
(0.988082 0 0)
(0.986831 0 0)
(0.985513 0 0)
(0.98413 0 0)
(0.982681 0 0)
(0.981166 0 0)
(0.979585 0 0)
(0.977938 0 0)
(0.976224 0 0)
(0.974443 0 0)
(0.972596 0 0)
(0.970682 0 0)
(0.968701 0 0)
(0.966652 0 0)
(0.964537 0 0)
(0.962354 0 0)
(0.960104 0 0)
(0.957787 0 0)
(0.955402 0 0)
(0.952949 0 0)
(0.950429 0 0)
(0.94784 0 0)
(0.945184 0 0)
(0.94246 0 0)
(0.939668 0 0)
(0.936808 0 0)
(0.93388 0 0)
(0.930883 0 0)
(0.927819 0 0)
(0.924686 0 0)
(0.921485 0 0)
(0.918216 0 0)
(0.914878 0 0)
(0.911472 0 0)
(0.907998 0 0)
(0.904456 0 0)
(0.900845 0 0)
(0.897167 0 0)
(0.89342 0 0)
(0.889605 0 0)
(0.885722 0 0)
(0.881771 0 0)
(0.877751 0 0)
(0.873664 0 0)
(0.869509 0 0)
(0.865286 0 0)
(0.860996 0 0)
(0.856638 0 0)
(0.852212 0 0)
(0.847719 0 0)
(0.843159 0 0)
(0.838532 0 0)
(0.833837 0 0)
(0.829076 0 0)
(0.824248 0 0)
(0.819353 0 0)
(0.814392 0 0)
(0.809365 0 0)
(0.804271 0 0)
(0.799112 0 0)
(0.793887 0 0)
(0.788596 0 0)
(0.78324 0 0)
(0.77782 0 0)
(0.772334 0 0)
(0.766784 0 0)
(0.761169 0 0)
(0.755491 0 0)
(0.749748 0 0)
(0.743943 0 0)
(0.738074 0 0)
(0.732142 0 0)
(0.726147 0 0)
(0.72009 0 0)
(0.713971 0 0)
(0.70779 0 0)
(0.701548 0 0)
(0.695246 0 0)
(0.688882 0 0)
(0.682458 0 0)
(0.675975 0 0)
(0.669432 0 0)
(0.662829 0 0)
(0.656169 0 0)
(0.64945 0 0)
(0.642673 0 0)
(0.635838 0 0)
(0.628947 0 0)
(0.622 0 0)
(0.614996 0 0)
(0.607937 0 0)
(0.600822 0 0)
(0.593653 0 0)
(0.58643 0 0)
(0.579154 0 0)
(0.571825 0 0)
(0.564443 0 0)
(0.557009 0 0)
(0.549523 0 0)
(0.541987 0 0)
(0.534401 0 0)
(0.526765 0 0)
(0.519079 0 0)
(0.511346 0 0)
(0.503564 0 0)
(0.495735 0 0)
(0.48786 0 0)
(0.479939 0 0)
(0.471972 0 0)
(0.46396 0 0)
(0.455905 0 0)
(0.447806 0 0)
(0.439664 0 0)
(0.431481 0 0)
(0.423256 0 0)
(0.41499 0 0)
(0.406685 0 0)
(0.39834 0 0)
(0.389957 0 0)
(0.381537 0 0)
(0.373079 0 0)
(0.364585 0 0)
(0.356056 0 0)
(0.347492 0 0)
(0.338894 0 0)
(0.330264 0 0)
(0.3216 0 0)
(0.312906 0 0)
(0.30418 0 0)
(0.295425 0 0)
(0.286641 0 0)
(0.277828 0 0)
(0.268988 0 0)
(0.260122 0 0)
(0.25123 0 0)
(0.242312 0 0)
(0.233371 0 0)
(0.224407 0 0)
(0.21542 0 0)
(0.206412 0 0)
(0.197383 0 0)
(0.188335 0 0)
(0.179268 0 0)
(0.170183 0 0)
(0.161081 0 0)
(0.151963 0 0)
(0.14283 0 0)
(0.133682 0 0)
(0.124521 0 0)
(0.115348 0 0)
(0.106162 0 0)
(0.0969667 0 0)
(0.0877612 0 0)
(0.0785469 0 0)
(0.0693247 0 0)
(0.0600955 0 0)
(0.0508603 0 0)
(0.04162 0 0)
(0.0323754 0 0)
(0.0231276 0 0)
(0.0138775 0 0)
(0.004626 0 0)
(-0.00462599 0 0)
(-0.0138775 0 0)
(-0.0231276 0 0)
(-0.0323754 0 0)
(-0.04162 0 0)
(-0.0508603 0 0)
(-0.0600955 0 0)
(-0.0693247 0 0)
(-0.0785469 0 0)
(-0.0877612 0 0)
(-0.0969667 0 0)
(-0.106162 0 0)
(-0.115347 0 0)
(-0.124521 0 0)
(-0.133682 0 0)
(-0.14283 0 0)
(-0.151963 0 0)
(-0.161081 0 0)
(-0.170183 0 0)
(-0.179268 0 0)
(-0.188335 0 0)
(-0.197383 0 0)
(-0.206412 0 0)
(-0.21542 0 0)
(-0.224407 0 0)
(-0.233371 0 0)
(-0.242312 0 0)
(-0.251229 0 0)
(-0.260122 0 0)
(-0.268988 0 0)
(-0.277828 0 0)
(-0.286641 0 0)
(-0.295425 0 0)
(-0.30418 0 0)
(-0.312905 0 0)
(-0.3216 0 0)
(-0.330263 0 0)
(-0.338894 0 0)
(-0.347492 0 0)
(-0.356056 0 0)
(-0.364585 0 0)
(-0.373079 0 0)
(-0.381536 0 0)
(-0.389957 0 0)
(-0.39834 0 0)
(-0.406684 0 0)
(-0.41499 0 0)
(-0.423255 0 0)
(-0.43148 0 0)
(-0.439664 0 0)
(-0.447805 0 0)
(-0.455904 0 0)
(-0.46396 0 0)
(-0.471971 0 0)
(-0.479938 0 0)
(-0.487859 0 0)
(-0.495735 0 0)
(-0.503564 0 0)
(-0.511345 0 0)
(-0.519079 0 0)
(-0.526764 0 0)
(-0.5344 0 0)
(-0.541986 0 0)
(-0.549523 0 0)
(-0.557008 0 0)
(-0.564442 0 0)
(-0.571824 0 0)
(-0.579153 0 0)
(-0.58643 0 0)
(-0.593653 0 0)
(-0.600822 0 0)
(-0.607936 0 0)
(-0.614995 0 0)
(-0.621999 0 0)
(-0.628946 0 0)
(-0.635838 0 0)
(-0.642672 0 0)
(-0.649449 0 0)
(-0.656168 0 0)
(-0.662829 0 0)
(-0.669431 0 0)
(-0.675974 0 0)
(-0.682457 0 0)
(-0.688881 0 0)
(-0.695245 0 0)
(-0.701548 0 0)
(-0.70779 0 0)
(-0.71397 0 0)
(-0.720089 0 0)
(-0.726146 0 0)
(-0.732141 0 0)
(-0.738073 0 0)
(-0.743942 0 0)
(-0.749748 0 0)
(-0.75549 0 0)
(-0.761169 0 0)
(-0.766783 0 0)
(-0.772333 0 0)
(-0.777819 0 0)
(-0.78324 0 0)
(-0.788596 0 0)
(-0.793886 0 0)
(-0.799111 0 0)
(-0.80427 0 0)
(-0.809364 0 0)
(-0.814391 0 0)
(-0.819352 0 0)
(-0.824247 0 0)
(-0.829075 0 0)
(-0.833836 0 0)
(-0.838531 0 0)
(-0.843158 0 0)
(-0.847719 0 0)
(-0.852212 0 0)
(-0.856637 0 0)
(-0.860995 0 0)
(-0.865286 0 0)
(-0.869509 0 0)
(-0.873664 0 0)
(-0.877751 0 0)
(-0.88177 0 0)
(-0.885721 0 0)
(-0.889604 0 0)
(-0.893419 0 0)
(-0.897166 0 0)
(-0.900845 0 0)
(-0.904456 0 0)
(-0.907998 0 0)
(-0.911472 0 0)
(-0.914878 0 0)
(-0.918215 0 0)
(-0.921485 0 0)
(-0.924686 0 0)
(-0.927818 0 0)
(-0.930883 0 0)
(-0.933879 0 0)
(-0.936808 0 0)
(-0.939668 0 0)
(-0.94246 0 0)
(-0.945184 0 0)
(-0.94784 0 0)
(-0.950428 0 0)
(-0.952949 0 0)
(-0.955402 0 0)
(-0.957787 0 0)
(-0.960104 0 0)
(-0.962354 0 0)
(-0.964537 0 0)
(-0.966652 0 0)
(-0.9687 0 0)
(-0.970682 0 0)
(-0.972596 0 0)
(-0.974443 0 0)
(-0.976224 0 0)
(-0.977938 0 0)
(-0.979585 0 0)
(-0.981166 0 0)
(-0.982681 0 0)
(-0.98413 0 0)
(-0.985513 0 0)
(-0.986831 0 0)
(-0.988082 0 0)
(-0.989269 0 0)
(-0.99039 0 0)
(-0.991446 0 0)
(-0.992437 0 0)
(-0.993363 0 0)
(-0.994225 0 0)
(-0.995022 0 0)
(-0.995755 0 0)
(-0.996424 0 0)
(-0.99703 0 0)
(-0.997571 0 0)
(-0.99805 0 0)
(-0.998465 0 0)
(-0.998817 0 0)
(-0.999106 0 0)
(-0.999333 0 0)
(-0.999497 0 0)
(-0.999599 0 0)
(-0.999639 0 0)
(-0.999617 0 0)
(-0.999534 0 0)
(-0.99939 0 0)
(-0.999184 0 0)
(-0.998918 0 0)
(-0.998591 0 0)
(-0.998204 0 0)
(-0.997756 0 0)
(-0.997249 0 0)
(-0.996682 0 0)
(-0.996055 0 0)
(-0.99537 0 0)
(-0.994625 0 0)
(-0.993822 0 0)
(-0.99296 0 0)
(-0.992041 0 0)
(-0.991063 0 0)
(-0.990028 0 0)
(-0.988935 0 0)
(-0.987785 0 0)
(-0.986578 0 0)
(-0.985315 0 0)
(-0.983995 0 0)
(-0.982619 0 0)
(-0.981188 0 0)
(-0.979701 0 0)
(-0.978158 0 0)
(-0.976561 0 0)
(-0.974908 0 0)
(-0.973201 0 0)
(-0.97144 0 0)
(-0.969625 0 0)
(-0.967757 0 0)
(-0.965835 0 0)
(-0.96386 0 0)
(-0.961832 0 0)
(-0.959752 0 0)
(-0.957619 0 0)
(-0.955434 0 0)
(-0.953198 0 0)
(-0.95091 0 0)
(-0.948571 0 0)
(-0.946182 0 0)
(-0.943741 0 0)
(-0.941251 0 0)
(-0.93871 0 0)
(-0.93612 0 0)
(-0.93348 0 0)
(-0.930791 0 0)
(-0.928054 0 0)
(-0.925267 0 0)
(-0.922433 0 0)
(-0.91955 0 0)
(-0.91662 0 0)
(-0.913643 0 0)
(-0.910618 0 0)
(-0.907547 0 0)
(-0.904429 0 0)
(-0.901265 0 0)
(-0.898055 0 0)
(-0.894799 0 0)
(-0.891498 0 0)
(-0.888152 0 0)
(-0.884761 0 0)
(-0.881326 0 0)
(-0.877847 0 0)
(-0.874323 0 0)
(-0.870756 0 0)
(-0.867146 0 0)
(-0.863493 0 0)
(-0.859798 0 0)
(-0.85606 0 0)
(-0.852279 0 0)
(-0.848457 0 0)
(-0.844594 0 0)
(-0.840689 0 0)
(-0.836744 0 0)
(-0.832758 0 0)
(-0.828731 0 0)
(-0.824665 0 0)
(-0.820558 0 0)
(-0.816413 0 0)
(-0.812228 0 0)
(-0.808004 0 0)
(-0.803742 0 0)
(-0.799442 0 0)
(-0.795104 0 0)
(-0.790728 0 0)
(-0.786315 0 0)
(-0.781864 0 0)
(-0.777377 0 0)
(-0.772854 0 0)
(-0.768294 0 0)
(-0.763699 0 0)
(-0.759067 0 0)
(-0.754401 0 0)
(-0.7497 0 0)
(-0.744964 0 0)
(-0.740193 0 0)
(-0.735389 0 0)
(-0.730551 0 0)
(-0.725679 0 0)
(-0.720774 0 0)
(-0.715836 0 0)
(-0.710866 0 0)
(-0.705863 0 0)
(-0.700828 0 0)
(-0.695762 0 0)
(-0.690663 0 0)
(-0.685534 0 0)
(-0.680374 0 0)
(-0.675184 0 0)
(-0.669963 0 0)
(-0.664712 0 0)
(-0.659432 0 0)
(-0.654122 0 0)
(-0.648783 0 0)
(-0.643415 0 0)
(-0.638019 0 0)
(-0.632594 0 0)
(-0.627142 0 0)
(-0.621662 0 0)
(-0.616154 0 0)
(-0.61062 0 0)
(-0.605058 0 0)
(-0.599471 0 0)
(-0.593857 0 0)
(-0.588217 0 0)
(-0.582551 0 0)
(-0.576861 0 0)
(-0.571145 0 0)
(-0.565404 0 0)
(-0.559639 0 0)
(-0.55385 0 0)
(-0.548037 0 0)
(-0.5422 0 0)
(-0.53634 0 0)
(-0.530457 0 0)
(-0.524551 0 0)
(-0.518623 0 0)
(-0.512672 0 0)
(-0.5067 0 0)
(-0.500706 0 0)
(-0.494691 0 0)
(-0.488655 0 0)
(-0.482598 0 0)
(-0.47652 0 0)
(-0.470423 0 0)
(-0.464305 0 0)
(-0.458168 0 0)
(-0.452012 0 0)
(-0.445836 0 0)
(-0.439642 0 0)
(-0.43343 0 0)
(-0.427199 0 0)
(-0.42095 0 0)
(-0.414684 0 0)
(-0.4084 0 0)
(-0.4021 0 0)
(-0.395782 0 0)
(-0.389448 0 0)
(-0.383098 0 0)
(-0.376732 0 0)
(-0.37035 0 0)
(-0.363953 0 0)
(-0.357541 0 0)
(-0.351114 0 0)
(-0.344672 0 0)
(-0.338216 0 0)
(-0.331746 0 0)
(-0.325263 0 0)
(-0.318766 0 0)
(-0.312256 0 0)
(-0.305733 0 0)
(-0.299198 0 0)
(-0.29265 0 0)
(-0.286091 0 0)
(-0.279519 0 0)
(-0.272936 0 0)
(-0.266342 0 0)
(-0.259737 0 0)
(-0.253122 0 0)
(-0.246496 0 0)
(-0.23986 0 0)
(-0.233214 0 0)
(-0.226559 0 0)
(-0.219894 0 0)
(-0.213221 0 0)
(-0.206538 0 0)
(-0.199848 0 0)
(-0.193149 0 0)
(-0.186443 0 0)
(-0.179729 0 0)
(-0.173007 0 0)
(-0.166279 0 0)
(-0.159544 0 0)
(-0.152802 0 0)
(-0.146054 0 0)
(-0.1393 0 0)
(-0.132541 0 0)
(-0.125776 0 0)
(-0.119006 0 0)
(-0.112232 0 0)
(-0.105453 0 0)
(-0.0986691 0 0)
(-0.0918817 0 0)
(-0.0850905 0 0)
(-0.0782959 0 0)
(-0.0714982 0 0)
(-0.0646976 0 0)
(-0.0578943 0 0)
(-0.0510887 0 0)
(-0.0442811 0 0)
(-0.0374716 0 0)
(-0.0306607 0 0)
(-0.0238485 0 0)
(-0.0170353 0 0)
(-0.0102215 0 0)
(-0.0034072 0 0)
)
;

boundaryField
{
    left
    {
        type            fixedValue;
        value           uniform (0 0 0);
    }
    right
    {
        type            fixedValue;
        value           uniform (0 0 0);
    }
    frontBackUpDown
    {
        type            empty;
    }
}


// ************************************************************************* //
