/*--------------------------------*- C++ -*----------------------------------*\
| =========                 |                                                 |
| \\      /  F ield         | OpenFOAM: The Open Source CFD Toolbox           |
|  \\    /   O peration     | Version:  2412                                  |
|   \\  /    A nd           | Website:  www.openfoam.com                      |
|    \\/     M anipulation  |                                                 |
\*---------------------------------------------------------------------------*/
FoamFile
{
    version     2.0;
    format      ascii;
    arch        "LSB;label=32;scalar=64";
    class       volVectorField;
    location    "0.05";
    object      U_0_0;
}
// * * * * * * * * * * * * * * * * * * * * * * * * * * * * * * * * * * * * * //

dimensions      [0 1 -1 0 0 0 0];

internalField   nonuniform List<vector> 
800
(
(0.00340247 0 0)
(0.0102075 0 0)
(0.017012 0 0)
(0.0238159 0 0)
(0.0306189 0 0)
(0.0374206 0 0)
(0.0442208 0 0)
(0.0510192 0 0)
(0.0578156 0 0)
(0.0646096 0 0)
(0.071401 0 0)
(0.0781896 0 0)
(0.084975 0 0)
(0.091757 0 0)
(0.0985353 0 0)
(0.10531 0 0)
(0.11208 0 0)
(0.118845 0 0)
(0.125606 0 0)
(0.132362 0 0)
(0.139112 0 0)
(0.145857 0 0)
(0.152596 0 0)
(0.159329 0 0)
(0.166055 0 0)
(0.172775 0 0)
(0.179487 0 0)
(0.186193 0 0)
(0.19289 0 0)
(0.19958 0 0)
(0.206262 0 0)
(0.212936 0 0)
(0.219601 0 0)
(0.226257 0 0)
(0.232904 0 0)
(0.239541 0 0)
(0.246169 0 0)
(0.252787 0 0)
(0.259394 0 0)
(0.265991 0 0)
(0.272577 0 0)
(0.279152 0 0)
(0.285715 0 0)
(0.292267 0 0)
(0.298807 0 0)
(0.305334 0 0)
(0.311849 0 0)
(0.318352 0 0)
(0.324841 0 0)
(0.331317 0 0)
(0.337779 0 0)
(0.344228 0 0)
(0.350662 0 0)
(0.357082 0 0)
(0.363487 0 0)
(0.369877 0 0)
(0.376252 0 0)
(0.382611 0 0)
(0.388954 0 0)
(0.395282 0 0)
(0.401592 0 0)
(0.407887 0 0)
(0.414164 0 0)
(0.420424 0 0)
(0.426666 0 0)
(0.432891 0 0)
(0.439097 0 0)
(0.445285 0 0)
(0.451455 0 0)
(0.457605 0 0)
(0.463737 0 0)
(0.469849 0 0)
(0.475941 0 0)
(0.482013 0 0)
(0.488064 0 0)
(0.494095 0 0)
(0.500105 0 0)
(0.506094 0 0)
(0.512061 0 0)
(0.518007 0 0)
(0.52393 0 0)
(0.529832 0 0)
(0.53571 0 0)
(0.541566 0 0)
(0.547398 0 0)
(0.553207 0 0)
(0.558993 0 0)
(0.564754 0 0)
(0.57049 0 0)
(0.576203 0 0)
(0.58189 0 0)
(0.587552 0 0)
(0.593188 0 0)
(0.598799 0 0)
(0.604384 0 0)
(0.609942 0 0)
(0.615474 0 0)
(0.620979 0 0)
(0.626456 0 0)
(0.631906 0 0)
(0.637328 0 0)
(0.642722 0 0)
(0.648088 0 0)
(0.653425 0 0)
(0.658733 0 0)
(0.664012 0 0)
(0.669261 0 0)
(0.674481 0 0)
(0.67967 0 0)
(0.684829 0 0)
(0.689957 0 0)
(0.695054 0 0)
(0.70012 0 0)
(0.705154 0 0)
(0.710156 0 0)
(0.715127 0 0)
(0.720064 0 0)
(0.724969 0 0)
(0.729841 0 0)
(0.734679 0 0)
(0.739484 0 0)
(0.744255 0 0)
(0.748992 0 0)
(0.753694 0 0)
(0.758361 0 0)
(0.762993 0 0)
(0.76759 0 0)
(0.772151 0 0)
(0.776676 0 0)
(0.781165 0 0)
(0.785617 0 0)
(0.790032 0 0)
(0.79441 0 0)
(0.79875 0 0)
(0.803053 0 0)
(0.807318 0 0)
(0.811544 0 0)
(0.815731 0 0)
(0.81988 0 0)
(0.823989 0 0)
(0.828059 0 0)
(0.832089 0 0)
(0.836079 0 0)
(0.840028 0 0)
(0.843936 0 0)
(0.847804 0 0)
(0.85163 0 0)
(0.855414 0 0)
(0.859157 0 0)
(0.862857 0 0)
(0.866515 0 0)
(0.87013 0 0)
(0.873702 0 0)
(0.87723 0 0)
(0.880715 0 0)
(0.884155 0 0)
(0.887552 0 0)
(0.890903 0 0)
(0.89421 0 0)
(0.897472 0 0)
(0.900688 0 0)
(0.903858 0 0)
(0.906983 0 0)
(0.910061 0 0)
(0.913092 0 0)
(0.916076 0 0)
(0.919013 0 0)
(0.921903 0 0)
(0.924745 0 0)
(0.927538 0 0)
(0.930283 0 0)
(0.93298 0 0)
(0.935627 0 0)
(0.938226 0 0)
(0.940774 0 0)
(0.943273 0 0)
(0.945722 0 0)
(0.94812 0 0)
(0.950467 0 0)
(0.952764 0 0)
(0.955009 0 0)
(0.957202 0 0)
(0.959344 0 0)
(0.961434 0 0)
(0.963471 0 0)
(0.965455 0 0)
(0.967387 0 0)
(0.969265 0 0)
(0.971089 0 0)
(0.97286 0 0)
(0.974577 0 0)
(0.976239 0 0)
(0.977847 0 0)
(0.9794 0 0)
(0.980898 0 0)
(0.98234 0 0)
(0.983726 0 0)
(0.985057 0 0)
(0.986331 0 0)
(0.987548 0 0)
(0.988709 0 0)
(0.989813 0 0)
(0.990859 0 0)
(0.991848 0 0)
(0.992779 0 0)
(0.993652 0 0)
(0.994467 0 0)
(0.995223 0 0)
(0.99592 0 0)
(0.996558 0 0)
(0.997137 0 0)
(0.997656 0 0)
(0.998116 0 0)
(0.998515 0 0)
(0.998854 0 0)
(0.999132 0 0)
(0.99935 0 0)
(0.999507 0 0)
(0.999602 0 0)
(0.999636 0 0)
(0.999608 0 0)
(0.999518 0 0)
(0.999367 0 0)
(0.999153 0 0)
(0.998876 0 0)
(0.998536 0 0)
(0.998134 0 0)
(0.997668 0 0)
(0.997139 0 0)
(0.996546 0 0)
(0.99589 0 0)
(0.995169 0 0)
(0.994384 0 0)
(0.993535 0 0)
(0.992621 0 0)
(0.991643 0 0)
(0.9906 0 0)
(0.989491 0 0)
(0.988318 0 0)
(0.987078 0 0)
(0.985774 0 0)
(0.984403 0 0)
(0.982967 0 0)
(0.981464 0 0)
(0.979896 0 0)
(0.97826 0 0)
(0.976559 0 0)
(0.974791 0 0)
(0.972956 0 0)
(0.971054 0 0)
(0.969085 0 0)
(0.967049 0 0)
(0.964946 0 0)
(0.962775 0 0)
(0.960537 0 0)
(0.958231 0 0)
(0.955858 0 0)
(0.953417 0 0)
(0.950908 0 0)
(0.948331 0 0)
(0.945686 0 0)
(0.942974 0 0)
(0.940193 0 0)
(0.937344 0 0)
(0.934427 0 0)
(0.931441 0 0)
(0.928387 0 0)
(0.925265 0 0)
(0.922075 0 0)
(0.918816 0 0)
(0.915488 0 0)
(0.912093 0 0)
(0.908629 0 0)
(0.905096 0 0)
(0.901495 0 0)
(0.897826 0 0)
(0.894089 0 0)
(0.890283 0 0)
(0.886409 0 0)
(0.882466 0 0)
(0.878456 0 0)
(0.874377 0 0)
(0.870231 0 0)
(0.866016 0 0)
(0.861734 0 0)
(0.857383 0 0)
(0.852965 0 0)
(0.84848 0 0)
(0.843927 0 0)
(0.839306 0 0)
(0.834619 0 0)
(0.829864 0 0)
(0.825042 0 0)
(0.820153 0 0)
(0.815198 0 0)
(0.810177 0 0)
(0.805089 0 0)
(0.799935 0 0)
(0.794715 0 0)
(0.789429 0 0)
(0.784078 0 0)
(0.778661 0 0)
(0.773179 0 0)
(0.767633 0 0)
(0.762022 0 0)
(0.756347 0 0)
(0.750607 0 0)
(0.744804 0 0)
(0.738938 0 0)
(0.733008 0 0)
(0.727015 0 0)
(0.72096 0 0)
(0.714842 0 0)
(0.708663 0 0)
(0.702422 0 0)
(0.696119 0 0)
(0.689756 0 0)
(0.683332 0 0)
(0.676848 0 0)
(0.670305 0 0)
(0.663702 0 0)
(0.65704 0 0)
(0.650319 0 0)
(0.643541 0 0)
(0.636704 0 0)
(0.629811 0 0)
(0.622861 0 0)
(0.615854 0 0)
(0.608792 0 0)
(0.601674 0 0)
(0.594501 0 0)
(0.587274 0 0)
(0.579994 0 0)
(0.572659 0 0)
(0.565273 0 0)
(0.557833 0 0)
(0.550343 0 0)
(0.542801 0 0)
(0.535208 0 0)
(0.527566 0 0)
(0.519874 0 0)
(0.512133 0 0)
(0.504345 0 0)
(0.496508 0 0)
(0.488625 0 0)
(0.480696 0 0)
(0.47272 0 0)
(0.4647 0 0)
(0.456636 0 0)
(0.448528 0 0)
(0.440377 0 0)
(0.432183 0 0)
(0.423948 0 0)
(0.415673 0 0)
(0.407357 0 0)
(0.399002 0 0)
(0.390608 0 0)
(0.382176 0 0)
(0.373707 0 0)
(0.365201 0 0)
(0.35666 0 0)
(0.348084 0 0)
(0.339474 0 0)
(0.330831 0 0)
(0.322155 0 0)
(0.313447 0 0)
(0.304708 0 0)
(0.29594 0 0)
(0.287142 0 0)
(0.278315 0 0)
(0.269461 0 0)
(0.26058 0 0)
(0.251674 0 0)
(0.242742 0 0)
(0.233786 0 0)
(0.224807 0 0)
(0.215805 0 0)
(0.206782 0 0)
(0.197738 0 0)
(0.188674 0 0)
(0.179591 0 0)
(0.17049 0 0)
(0.161372 0 0)
(0.152238 0 0)
(0.143089 0 0)
(0.133925 0 0)
(0.124748 0 0)
(0.115558 0 0)
(0.106356 0 0)
(0.0971438 0 0)
(0.0879217 0 0)
(0.0786907 0 0)
(0.0694517 0 0)
(0.0602057 0 0)
(0.0509536 0 0)
(0.0416964 0 0)
(0.0324349 0 0)
(0.0231701 0 0)
(0.013903 0 0)
(0.00463449 0 0)
(-0.00463449 0 0)
(-0.013903 0 0)
(-0.0231701 0 0)
(-0.0324349 0 0)
(-0.0416963 0 0)
(-0.0509536 0 0)
(-0.0602057 0 0)
(-0.0694517 0 0)
(-0.0786907 0 0)
(-0.0879217 0 0)
(-0.0971438 0 0)
(-0.106356 0 0)
(-0.115558 0 0)
(-0.124748 0 0)
(-0.133925 0 0)
(-0.143089 0 0)
(-0.152238 0 0)
(-0.161372 0 0)
(-0.17049 0 0)
(-0.179591 0 0)
(-0.188674 0 0)
(-0.197737 0 0)
(-0.206781 0 0)
(-0.215805 0 0)
(-0.224807 0 0)
(-0.233786 0 0)
(-0.242742 0 0)
(-0.251673 0 0)
(-0.26058 0 0)
(-0.269461 0 0)
(-0.278315 0 0)
(-0.287141 0 0)
(-0.295939 0 0)
(-0.304708 0 0)
(-0.313447 0 0)
(-0.322154 0 0)
(-0.33083 0 0)
(-0.339474 0 0)
(-0.348084 0 0)
(-0.35666 0 0)
(-0.365201 0 0)
(-0.373706 0 0)
(-0.382175 0 0)
(-0.390607 0 0)
(-0.399001 0 0)
(-0.407356 0 0)
(-0.415672 0 0)
(-0.423948 0 0)
(-0.432183 0 0)
(-0.440376 0 0)
(-0.448527 0 0)
(-0.456635 0 0)
(-0.4647 0 0)
(-0.47272 0 0)
(-0.480695 0 0)
(-0.488624 0 0)
(-0.496508 0 0)
(-0.504344 0 0)
(-0.512133 0 0)
(-0.519873 0 0)
(-0.527565 0 0)
(-0.535207 0 0)
(-0.5428 0 0)
(-0.550342 0 0)
(-0.557833 0 0)
(-0.565272 0 0)
(-0.572659 0 0)
(-0.579993 0 0)
(-0.587274 0 0)
(-0.594501 0 0)
(-0.601673 0 0)
(-0.608791 0 0)
(-0.615853 0 0)
(-0.62286 0 0)
(-0.62981 0 0)
(-0.636704 0 0)
(-0.64354 0 0)
(-0.650319 0 0)
(-0.657039 0 0)
(-0.663701 0 0)
(-0.670304 0 0)
(-0.676848 0 0)
(-0.683332 0 0)
(-0.689755 0 0)
(-0.696118 0 0)
(-0.702421 0 0)
(-0.708662 0 0)
(-0.714841 0 0)
(-0.720959 0 0)
(-0.727014 0 0)
(-0.733007 0 0)
(-0.738937 0 0)
(-0.744803 0 0)
(-0.750606 0 0)
(-0.756346 0 0)
(-0.762021 0 0)
(-0.767632 0 0)
(-0.773179 0 0)
(-0.77866 0 0)
(-0.784077 0 0)
(-0.789428 0 0)
(-0.794714 0 0)
(-0.799934 0 0)
(-0.805088 0 0)
(-0.810176 0 0)
(-0.815198 0 0)
(-0.820153 0 0)
(-0.825041 0 0)
(-0.829863 0 0)
(-0.834618 0 0)
(-0.839306 0 0)
(-0.843926 0 0)
(-0.848479 0 0)
(-0.852965 0 0)
(-0.857383 0 0)
(-0.861733 0 0)
(-0.866016 0 0)
(-0.87023 0 0)
(-0.874377 0 0)
(-0.878455 0 0)
(-0.882466 0 0)
(-0.886408 0 0)
(-0.890282 0 0)
(-0.894088 0 0)
(-0.897826 0 0)
(-0.901495 0 0)
(-0.905096 0 0)
(-0.908628 0 0)
(-0.912092 0 0)
(-0.915488 0 0)
(-0.918815 0 0)
(-0.922074 0 0)
(-0.925265 0 0)
(-0.928387 0 0)
(-0.931441 0 0)
(-0.934426 0 0)
(-0.937343 0 0)
(-0.940192 0 0)
(-0.942973 0 0)
(-0.945686 0 0)
(-0.948331 0 0)
(-0.950908 0 0)
(-0.953417 0 0)
(-0.955858 0 0)
(-0.958231 0 0)
(-0.960537 0 0)
(-0.962775 0 0)
(-0.964945 0 0)
(-0.967049 0 0)
(-0.969085 0 0)
(-0.971054 0 0)
(-0.972955 0 0)
(-0.974791 0 0)
(-0.976559 0 0)
(-0.97826 0 0)
(-0.979895 0 0)
(-0.981464 0 0)
(-0.982967 0 0)
(-0.984403 0 0)
(-0.985774 0 0)
(-0.987078 0 0)
(-0.988317 0 0)
(-0.989491 0 0)
(-0.9906 0 0)
(-0.991643 0 0)
(-0.992621 0 0)
(-0.993535 0 0)
(-0.994384 0 0)
(-0.995169 0 0)
(-0.99589 0 0)
(-0.996546 0 0)
(-0.997139 0 0)
(-0.997668 0 0)
(-0.998134 0 0)
(-0.998536 0 0)
(-0.998876 0 0)
(-0.999153 0 0)
(-0.999367 0 0)
(-0.999518 0 0)
(-0.999608 0 0)
(-0.999636 0 0)
(-0.999602 0 0)
(-0.999507 0 0)
(-0.99935 0 0)
(-0.999132 0 0)
(-0.998854 0 0)
(-0.998515 0 0)
(-0.998116 0 0)
(-0.997656 0 0)
(-0.997137 0 0)
(-0.996558 0 0)
(-0.99592 0 0)
(-0.995223 0 0)
(-0.994467 0 0)
(-0.993652 0 0)
(-0.992779 0 0)
(-0.991848 0 0)
(-0.990859 0 0)
(-0.989813 0 0)
(-0.988709 0 0)
(-0.987548 0 0)
(-0.986331 0 0)
(-0.985056 0 0)
(-0.983726 0 0)
(-0.98234 0 0)
(-0.980897 0 0)
(-0.9794 0 0)
(-0.977847 0 0)
(-0.976239 0 0)
(-0.974577 0 0)
(-0.97286 0 0)
(-0.971089 0 0)
(-0.969265 0 0)
(-0.967386 0 0)
(-0.965455 0 0)
(-0.963471 0 0)
(-0.961433 0 0)
(-0.959344 0 0)
(-0.957202 0 0)
(-0.955009 0 0)
(-0.952763 0 0)
(-0.950467 0 0)
(-0.948119 0 0)
(-0.945721 0 0)
(-0.943273 0 0)
(-0.940774 0 0)
(-0.938225 0 0)
(-0.935627 0 0)
(-0.93298 0 0)
(-0.930283 0 0)
(-0.927538 0 0)
(-0.924744 0 0)
(-0.921903 0 0)
(-0.919013 0 0)
(-0.916076 0 0)
(-0.913092 0 0)
(-0.91006 0 0)
(-0.906982 0 0)
(-0.903858 0 0)
(-0.900688 0 0)
(-0.897471 0 0)
(-0.89421 0 0)
(-0.890903 0 0)
(-0.887551 0 0)
(-0.884155 0 0)
(-0.880714 0 0)
(-0.87723 0 0)
(-0.873701 0 0)
(-0.870129 0 0)
(-0.866514 0 0)
(-0.862857 0 0)
(-0.859156 0 0)
(-0.855414 0 0)
(-0.851629 0 0)
(-0.847803 0 0)
(-0.843936 0 0)
(-0.840027 0 0)
(-0.836078 0 0)
(-0.832088 0 0)
(-0.828059 0 0)
(-0.823989 0 0)
(-0.81988 0 0)
(-0.815731 0 0)
(-0.811543 0 0)
(-0.807317 0 0)
(-0.803053 0 0)
(-0.79875 0 0)
(-0.794409 0 0)
(-0.790031 0 0)
(-0.785616 0 0)
(-0.781164 0 0)
(-0.776675 0 0)
(-0.77215 0 0)
(-0.767589 0 0)
(-0.762993 0 0)
(-0.75836 0 0)
(-0.753693 0 0)
(-0.748991 0 0)
(-0.744254 0 0)
(-0.739484 0 0)
(-0.734679 0 0)
(-0.72984 0 0)
(-0.724969 0 0)
(-0.720064 0 0)
(-0.715126 0 0)
(-0.710156 0 0)
(-0.705154 0 0)
(-0.700119 0 0)
(-0.695053 0 0)
(-0.689956 0 0)
(-0.684828 0 0)
(-0.679669 0 0)
(-0.67448 0 0)
(-0.669261 0 0)
(-0.664011 0 0)
(-0.658733 0 0)
(-0.653425 0 0)
(-0.648088 0 0)
(-0.642722 0 0)
(-0.637328 0 0)
(-0.631906 0 0)
(-0.626456 0 0)
(-0.620978 0 0)
(-0.615473 0 0)
(-0.609942 0 0)
(-0.604383 0 0)
(-0.598799 0 0)
(-0.593188 0 0)
(-0.587551 0 0)
(-0.581889 0 0)
(-0.576202 0 0)
(-0.57049 0 0)
(-0.564753 0 0)
(-0.558992 0 0)
(-0.553207 0 0)
(-0.547398 0 0)
(-0.541565 0 0)
(-0.53571 0 0)
(-0.529831 0 0)
(-0.52393 0 0)
(-0.518006 0 0)
(-0.512061 0 0)
(-0.506094 0 0)
(-0.500105 0 0)
(-0.494095 0 0)
(-0.488064 0 0)
(-0.482012 0 0)
(-0.47594 0 0)
(-0.469848 0 0)
(-0.463736 0 0)
(-0.457605 0 0)
(-0.451454 0 0)
(-0.445285 0 0)
(-0.439097 0 0)
(-0.43289 0 0)
(-0.426666 0 0)
(-0.420423 0 0)
(-0.414163 0 0)
(-0.407886 0 0)
(-0.401592 0 0)
(-0.395281 0 0)
(-0.388954 0 0)
(-0.382611 0 0)
(-0.376252 0 0)
(-0.369877 0 0)
(-0.363487 0 0)
(-0.357082 0 0)
(-0.350662 0 0)
(-0.344228 0 0)
(-0.337779 0 0)
(-0.331317 0 0)
(-0.324841 0 0)
(-0.318352 0 0)
(-0.311849 0 0)
(-0.305334 0 0)
(-0.298807 0 0)
(-0.292267 0 0)
(-0.285715 0 0)
(-0.279152 0 0)
(-0.272577 0 0)
(-0.265991 0 0)
(-0.259394 0 0)
(-0.252787 0 0)
(-0.246169 0 0)
(-0.239541 0 0)
(-0.232904 0 0)
(-0.226257 0 0)
(-0.219601 0 0)
(-0.212936 0 0)
(-0.206262 0 0)
(-0.19958 0 0)
(-0.19289 0 0)
(-0.186192 0 0)
(-0.179487 0 0)
(-0.172775 0 0)
(-0.166055 0 0)
(-0.159329 0 0)
(-0.152596 0 0)
(-0.145857 0 0)
(-0.139112 0 0)
(-0.132362 0 0)
(-0.125606 0 0)
(-0.118845 0 0)
(-0.11208 0 0)
(-0.10531 0 0)
(-0.0985353 0 0)
(-0.091757 0 0)
(-0.084975 0 0)
(-0.0781896 0 0)
(-0.071401 0 0)
(-0.0646096 0 0)
(-0.0578155 0 0)
(-0.0510192 0 0)
(-0.0442208 0 0)
(-0.0374206 0 0)
(-0.0306189 0 0)
(-0.023816 0 0)
(-0.0170121 0 0)
(-0.0102075 0 0)
(-0.00340256 0 0)
)
;

boundaryField
{
    left
    {
        type            fixedValue;
        value           uniform (0 0 0);
    }
    right
    {
        type            fixedValue;
        value           uniform (0 0 0);
    }
    frontBackUpDown
    {
        type            empty;
    }
}


// ************************************************************************* //
