/*--------------------------------*- C++ -*----------------------------------*\
| =========                 |                                                 |
| \\      /  F ield         | OpenFOAM: The Open Source CFD Toolbox           |
|  \\    /   O peration     | Version:  2412                                  |
|   \\  /    A nd           | Website:  www.openfoam.com                      |
|    \\/     M anipulation  |                                                 |
\*---------------------------------------------------------------------------*/
FoamFile
{
    version     2.0;
    format      ascii;
    arch        "LSB;label=32;scalar=64";
    class       surfaceScalarField;
    location    "0.89";
    object      phi;
}
// * * * * * * * * * * * * * * * * * * * * * * * * * * * * * * * * * * * * * //

dimensions      [0 3 -1 0 0 0 0];

oriented        oriented;

internalField   nonuniform List<scalar> 
799
(
2.07094e-05
4.14189e-05
6.21284e-05
8.28377e-05
0.000103547
0.000124256
0.000144965
0.000165674
0.000186383
0.000207091
0.000227799
0.000248507
0.000269215
0.000289922
0.000310629
0.000331336
0.000352042
0.000372748
0.000393453
0.000414158
0.000434863
0.000455567
0.00047627
0.000496973
0.000517676
0.000538377
0.000559078
0.000579779
0.000600479
0.000621178
0.000641876
0.000662574
0.00068327
0.000703967
0.000724662
0.000745356
0.00076605
0.000786742
0.000807434
0.000828125
0.000848815
0.000869503
0.000890191
0.000910878
0.000931564
0.000952248
0.000972932
0.000993614
0.0010143
0.00103498
0.00105565
0.00107633
0.00109701
0.00111768
0.00113836
0.00115903
0.0011797
0.00120037
0.00122104
0.0012417
0.00126237
0.00128303
0.0013037
0.00132436
0.00134502
0.00136567
0.00138633
0.00140698
0.00142764
0.00144829
0.00146894
0.00148958
0.00151023
0.00153087
0.00155152
0.00157216
0.00159279
0.00161343
0.00163407
0.0016547
0.00167533
0.00169596
0.00171658
0.00173721
0.00175783
0.00177845
0.00179907
0.00181969
0.0018403
0.00186091
0.00188152
0.00190213
0.00192273
0.00194334
0.00196394
0.00198454
0.00200513
0.00202572
0.00204631
0.0020669
0.00208749
0.00210807
0.00212865
0.00214923
0.00216981
0.00219038
0.00221095
0.00223152
0.00225208
0.00227264
0.0022932
0.00231376
0.00233431
0.00235486
0.00237541
0.00239595
0.0024165
0.00243703
0.00245757
0.0024781
0.00249863
0.00251916
0.00253968
0.0025602
0.00258072
0.00260123
0.00262174
0.00264225
0.00266276
0.00268326
0.00270375
0.00272425
0.00274474
0.00276523
0.00278571
0.00280619
0.00282667
0.00284714
0.00286761
0.00288807
0.00290854
0.00292899
0.00294945
0.0029699
0.00299035
0.00301079
0.00303123
0.00305166
0.00307209
0.00309252
0.00311295
0.00313337
0.00315378
0.00317419
0.0031946
0.003215
0.0032354
0.0032558
0.00327619
0.00329657
0.00331695
0.00333733
0.0033577
0.00337807
0.00339844
0.0034188
0.00343915
0.0034595
0.00347985
0.00350019
0.00352053
0.00354086
0.00356119
0.00358151
0.00360183
0.00362214
0.00364245
0.00366275
0.00368305
0.00370334
0.00372363
0.00374391
0.00376419
0.00378446
0.00380473
0.00382499
0.00384525
0.0038655
0.00388575
0.00390599
0.00392623
0.00394646
0.00396668
0.0039869
0.00400712
0.00402732
0.00404753
0.00406772
0.00408791
0.0041081
0.00412828
0.00414845
0.00416862
0.00418878
0.00420894
0.00422909
0.00424923
0.00426937
0.0042895
0.00430963
0.00432975
0.00434986
0.00436997
0.00439007
0.00441016
0.00443025
0.00445033
0.00447041
0.00449047
0.00451054
0.00453059
0.00455064
0.00457068
0.00459071
0.00461074
0.00463076
0.00465078
0.00467078
0.00469078
0.00471078
0.00473076
0.00475074
0.00477071
0.00479067
0.00481063
0.00483058
0.00485052
0.00487046
0.00489038
0.0049103
0.00493021
0.00495012
0.00497001
0.0049899
0.00500978
0.00502965
0.00504952
0.00506938
0.00508922
0.00510906
0.0051289
0.00514872
0.00516854
0.00518834
0.00520814
0.00522793
0.00524772
0.00526749
0.00528725
0.00530701
0.00532676
0.0053465
0.00536623
0.00538595
0.00540566
0.00542536
0.00544506
0.00546474
0.00548442
0.00550408
0.00552374
0.00554339
0.00556302
0.00558265
0.00560227
0.00562188
0.00564148
0.00566107
0.00568065
0.00570022
0.00571978
0.00573933
0.00575886
0.00577839
0.00579791
0.00581742
0.00583692
0.00585641
0.00587588
0.00589535
0.0059148
0.00593425
0.00595368
0.00597311
0.00599252
0.00601192
0.00603131
0.00605069
0.00607005
0.00608941
0.00610875
0.00612808
0.0061474
0.00616671
0.00618601
0.0062053
0.00622457
0.00624383
0.00626308
0.00628231
0.00630154
0.00632075
0.00633995
0.00635914
0.00637831
0.00639747
0.00641662
0.00643575
0.00645488
0.00647398
0.00649308
0.00651216
0.00653123
0.00655029
0.00656933
0.00658835
0.00660737
0.00662637
0.00664535
0.00666432
0.00668328
0.00670222
0.00672115
0.00674007
0.00675896
0.00677785
0.00679672
0.00681557
0.00683441
0.00685323
0.00687204
0.00689083
0.00690961
0.00692837
0.00694711
0.00696584
0.00698456
0.00700325
0.00702193
0.0070406
0.00705924
0.00707787
0.00709648
0.00711508
0.00713366
0.00715222
0.00717076
0.00718929
0.0072078
0.00722629
0.00724476
0.00726322
0.00728165
0.00730007
0.00731847
0.00733685
0.00735521
0.00737355
0.00739187
0.00741017
0.00742846
0.00744672
0.00746496
0.00748319
0.00750139
0.00751957
0.00753773
0.00755587
0.00757399
0.00759209
0.00761017
0.00762822
0.00764626
0.00766427
0.00768226
0.00770023
0.00771817
0.00773609
0.00775399
0.00777187
0.00778972
0.00780755
0.00782535
0.00784313
0.00786089
0.00787861
0.0078949
0.00776296
0.00578876
6.11053e-06
-0.00578167
-0.00776196
-0.00789486
-0.00787858
-0.00786087
-0.00784311
-0.00782533
-0.00780753
-0.0077897
-0.00777184
-0.00775397
-0.00773607
-0.00771815
-0.0077002
-0.00768224
-0.00766425
-0.00764623
-0.0076282
-0.00761015
-0.00759207
-0.00757397
-0.00755585
-0.00753771
-0.00751955
-0.00750137
-0.00748316
-0.00746494
-0.0074467
-0.00742843
-0.00741015
-0.00739185
-0.00737352
-0.00735518
-0.00733682
-0.00731844
-0.00730004
-0.00728163
-0.00726319
-0.00724474
-0.00722627
-0.00720778
-0.00718927
-0.00717074
-0.0071522
-0.00713364
-0.00711506
-0.00709646
-0.00707785
-0.00705922
-0.00704057
-0.00702191
-0.00700323
-0.00698453
-0.00696582
-0.00694709
-0.00692835
-0.00690959
-0.00689081
-0.00687202
-0.00685321
-0.00683439
-0.00681555
-0.00679669
-0.00677783
-0.00675894
-0.00674004
-0.00672113
-0.0067022
-0.00668326
-0.0066643
-0.00664533
-0.00662635
-0.00660735
-0.00658833
-0.00656931
-0.00655026
-0.00653121
-0.00651214
-0.00649306
-0.00647396
-0.00645486
-0.00643573
-0.0064166
-0.00639745
-0.00637829
-0.00635912
-0.00633993
-0.00632073
-0.00630152
-0.0062823
-0.00626306
-0.00624381
-0.00622455
-0.00620528
-0.00618599
-0.00616669
-0.00614739
-0.00612807
-0.00610873
-0.00608939
-0.00607003
-0.00605067
-0.00603129
-0.0060119
-0.0059925
-0.00597309
-0.00595367
-0.00593423
-0.00591479
-0.00589533
-0.00587587
-0.00585639
-0.0058369
-0.0058174
-0.0057979
-0.00577838
-0.00575885
-0.00573931
-0.00571976
-0.0057002
-0.00568063
-0.00566105
-0.00564146
-0.00562186
-0.00560225
-0.00558264
-0.00556301
-0.00554337
-0.00552372
-0.00550407
-0.0054844
-0.00546472
-0.00544504
-0.00542535
-0.00540564
-0.00538593
-0.00536621
-0.00534648
-0.00532674
-0.005307
-0.00528724
-0.00526747
-0.0052477
-0.00522792
-0.00520813
-0.00518833
-0.00516852
-0.00514871
-0.00512888
-0.00510905
-0.00508921
-0.00506936
-0.00504951
-0.00502964
-0.00500977
-0.00498989
-0.00497
-0.0049501
-0.0049302
-0.00491029
-0.00489037
-0.00487044
-0.00485051
-0.00483057
-0.00481062
-0.00479066
-0.0047707
-0.00475073
-0.00473075
-0.00471076
-0.00469077
-0.00467077
-0.00465076
-0.00463075
-0.00461073
-0.0045907
-0.00457067
-0.00455063
-0.00453058
-0.00451052
-0.00449046
-0.00447039
-0.00445032
-0.00443024
-0.00441015
-0.00439006
-0.00436996
-0.00434985
-0.00432974
-0.00430962
-0.00428949
-0.00426936
-0.00424922
-0.00422908
-0.00420893
-0.00418877
-0.00416861
-0.00414844
-0.00412827
-0.00410809
-0.00408791
-0.00406771
-0.00404752
-0.00402731
-0.00400711
-0.00398689
-0.00396667
-0.00394645
-0.00392622
-0.00390598
-0.00388574
-0.0038655
-0.00384524
-0.00382499
-0.00380472
-0.00378446
-0.00376418
-0.00374391
-0.00372362
-0.00370333
-0.00368304
-0.00366274
-0.00364244
-0.00362213
-0.00360182
-0.0035815
-0.00356118
-0.00354085
-0.00352052
-0.00350018
-0.00347984
-0.0034595
-0.00343915
-0.00341879
-0.00339843
-0.00337807
-0.0033577
-0.00333733
-0.00331695
-0.00329657
-0.00327618
-0.00325579
-0.0032354
-0.003215
-0.00319459
-0.00317419
-0.00315378
-0.00313336
-0.00311294
-0.00309252
-0.00307209
-0.00305166
-0.00303122
-0.00301078
-0.00299034
-0.00296989
-0.00294944
-0.00292899
-0.00290853
-0.00288807
-0.0028676
-0.00284713
-0.00282666
-0.00280618
-0.0027857
-0.00276522
-0.00274473
-0.00272424
-0.00270375
-0.00268325
-0.00266275
-0.00264225
-0.00262174
-0.00260123
-0.00258072
-0.0025602
-0.00253968
-0.00251916
-0.00249863
-0.0024781
-0.00245757
-0.00243703
-0.00241649
-0.00239595
-0.00237541
-0.00235486
-0.00233431
-0.00231375
-0.0022932
-0.00227264
-0.00225208
-0.00223151
-0.00221095
-0.00219038
-0.0021698
-0.00214923
-0.00212865
-0.00210807
-0.00208749
-0.0020669
-0.00204631
-0.00202572
-0.00200513
-0.00198453
-0.00196394
-0.00194333
-0.00192273
-0.00190213
-0.00188152
-0.00186091
-0.0018403
-0.00181968
-0.00179907
-0.00177845
-0.00175783
-0.00173721
-0.00171658
-0.00169596
-0.00167533
-0.0016547
-0.00163406
-0.00161343
-0.00159279
-0.00157215
-0.00155151
-0.00153087
-0.00151023
-0.00148958
-0.00146894
-0.00144829
-0.00142764
-0.00140698
-0.00138633
-0.00136567
-0.00134501
-0.00132436
-0.00130369
-0.00128303
-0.00126237
-0.0012417
-0.00122104
-0.00120037
-0.0011797
-0.00115903
-0.00113836
-0.00111768
-0.00109701
-0.00107633
-0.00105565
-0.00103497
-0.00101429
-0.000993613
-0.000972931
-0.000952248
-0.000931563
-0.000910877
-0.000890191
-0.000869503
-0.000848814
-0.000828124
-0.000807434
-0.000786742
-0.000766049
-0.000745356
-0.000724661
-0.000703966
-0.00068327
-0.000662573
-0.000641876
-0.000621177
-0.000600478
-0.000579779
-0.000559078
-0.000538377
-0.000517675
-0.000496973
-0.00047627
-0.000455567
-0.000434863
-0.000414158
-0.000393453
-0.000372748
-0.000352042
-0.000331336
-0.000310629
-0.000289922
-0.000269215
-0.000248507
-0.000227799
-0.000207091
-0.000186383
-0.000165674
-0.000144965
-0.000124256
-0.000103547
-8.28378e-05
-6.21284e-05
-4.1419e-05
-2.07095e-05
)
;

boundaryField
{
    left
    {
        type            calculated;
        value           uniform 0;
    }
    right
    {
        type            calculated;
        value           uniform 0;
    }
    frontBackUpDown
    {
        type            empty;
    }
}


// ************************************************************************* //
