/*--------------------------------*- C++ -*----------------------------------*\
| =========                 |                                                 |
| \\      /  F ield         | OpenFOAM: The Open Source CFD Toolbox           |
|  \\    /   O peration     | Version:  2412                                  |
|   \\  /    A nd           | Website:  www.openfoam.com                      |
|    \\/     M anipulation  |                                                 |
\*---------------------------------------------------------------------------*/
FoamFile
{
    version     2.0;
    format      ascii;
    arch        "LSB;label=32;scalar=64";
    class       volVectorField;
    location    "0.89";
    object      U_0_0;
}
// * * * * * * * * * * * * * * * * * * * * * * * * * * * * * * * * * * * * * //

dimensions      [0 1 -1 0 0 0 0];

internalField   nonuniform List<vector> 
800
(
(0.00103632 0 0)
(0.00310899 0 0)
(0.00518165 0 0)
(0.0072543 0 0)
(0.00932695 0 0)
(0.0113996 0 0)
(0.0134722 0 0)
(0.0155448 0 0)
(0.0176174 0 0)
(0.01969 0 0)
(0.0217625 0 0)
(0.023835 0 0)
(0.0259075 0 0)
(0.02798 0 0)
(0.0300524 0 0)
(0.0321248 0 0)
(0.0341972 0 0)
(0.0362695 0 0)
(0.0383418 0 0)
(0.040414 0 0)
(0.0424862 0 0)
(0.0445583 0 0)
(0.0466304 0 0)
(0.0487024 0 0)
(0.0507744 0 0)
(0.0528463 0 0)
(0.0549182 0 0)
(0.05699 0 0)
(0.0590617 0 0)
(0.0611333 0 0)
(0.0632049 0 0)
(0.0652764 0 0)
(0.0673479 0 0)
(0.0694192 0 0)
(0.0714905 0 0)
(0.0735617 0 0)
(0.0756328 0 0)
(0.0777038 0 0)
(0.0797747 0 0)
(0.0818455 0 0)
(0.0839163 0 0)
(0.0859869 0 0)
(0.0880575 0 0)
(0.0901279 0 0)
(0.0921982 0 0)
(0.0942684 0 0)
(0.0963385 0 0)
(0.0984085 0 0)
(0.100478 0 0)
(0.102548 0 0)
(0.104618 0 0)
(0.106687 0 0)
(0.108757 0 0)
(0.110826 0 0)
(0.112895 0 0)
(0.114964 0 0)
(0.117033 0 0)
(0.119102 0 0)
(0.12117 0 0)
(0.123239 0 0)
(0.125307 0 0)
(0.127375 0 0)
(0.129443 0 0)
(0.131511 0 0)
(0.133579 0 0)
(0.135646 0 0)
(0.137714 0 0)
(0.139781 0 0)
(0.141848 0 0)
(0.143915 0 0)
(0.145982 0 0)
(0.148048 0 0)
(0.150114 0 0)
(0.152181 0 0)
(0.154247 0 0)
(0.156312 0 0)
(0.158378 0 0)
(0.160444 0 0)
(0.162509 0 0)
(0.164574 0 0)
(0.166639 0 0)
(0.168703 0 0)
(0.170768 0 0)
(0.172832 0 0)
(0.174896 0 0)
(0.17696 0 0)
(0.179024 0 0)
(0.181087 0 0)
(0.18315 0 0)
(0.185213 0 0)
(0.187276 0 0)
(0.189338 0 0)
(0.191401 0 0)
(0.193463 0 0)
(0.195525 0 0)
(0.197586 0 0)
(0.199648 0 0)
(0.201709 0 0)
(0.203769 0 0)
(0.20583 0 0)
(0.20789 0 0)
(0.209951 0 0)
(0.21201 0 0)
(0.21407 0 0)
(0.216129 0 0)
(0.218188 0 0)
(0.220247 0 0)
(0.222306 0 0)
(0.224364 0 0)
(0.226422 0 0)
(0.22848 0 0)
(0.230537 0 0)
(0.232594 0 0)
(0.234651 0 0)
(0.236708 0 0)
(0.238764 0 0)
(0.24082 0 0)
(0.242876 0 0)
(0.244931 0 0)
(0.246986 0 0)
(0.249041 0 0)
(0.251095 0 0)
(0.25315 0 0)
(0.255203 0 0)
(0.257257 0 0)
(0.25931 0 0)
(0.261363 0 0)
(0.263416 0 0)
(0.265468 0 0)
(0.26752 0 0)
(0.269571 0 0)
(0.271622 0 0)
(0.273673 0 0)
(0.275724 0 0)
(0.277774 0 0)
(0.279824 0 0)
(0.281873 0 0)
(0.283922 0 0)
(0.285971 0 0)
(0.288019 0 0)
(0.290067 0 0)
(0.292115 0 0)
(0.294162 0 0)
(0.296209 0 0)
(0.298256 0 0)
(0.300302 0 0)
(0.302348 0 0)
(0.304393 0 0)
(0.306438 0 0)
(0.308482 0 0)
(0.310527 0 0)
(0.31257 0 0)
(0.314614 0 0)
(0.316657 0 0)
(0.318699 0 0)
(0.320741 0 0)
(0.322783 0 0)
(0.324824 0 0)
(0.326865 0 0)
(0.328906 0 0)
(0.330946 0 0)
(0.332985 0 0)
(0.335024 0 0)
(0.337063 0 0)
(0.339101 0 0)
(0.341139 0 0)
(0.343176 0 0)
(0.345213 0 0)
(0.34725 0 0)
(0.349286 0 0)
(0.351321 0 0)
(0.353356 0 0)
(0.355391 0 0)
(0.357425 0 0)
(0.359458 0 0)
(0.361492 0 0)
(0.363524 0 0)
(0.365556 0 0)
(0.367588 0 0)
(0.369619 0 0)
(0.37165 0 0)
(0.37368 0 0)
(0.37571 0 0)
(0.377739 0 0)
(0.379767 0 0)
(0.381795 0 0)
(0.383823 0 0)
(0.38585 0 0)
(0.387876 0 0)
(0.389902 0 0)
(0.391928 0 0)
(0.393953 0 0)
(0.395977 0 0)
(0.398001 0 0)
(0.400024 0 0)
(0.402046 0 0)
(0.404069 0 0)
(0.40609 0 0)
(0.408111 0 0)
(0.410131 0 0)
(0.412151 0 0)
(0.41417 0 0)
(0.416189 0 0)
(0.418207 0 0)
(0.420224 0 0)
(0.422241 0 0)
(0.424257 0 0)
(0.426273 0 0)
(0.428288 0 0)
(0.430302 0 0)
(0.432316 0 0)
(0.434329 0 0)
(0.436342 0 0)
(0.438354 0 0)
(0.440365 0 0)
(0.442376 0 0)
(0.444385 0 0)
(0.446395 0 0)
(0.448403 0 0)
(0.450411 0 0)
(0.452419 0 0)
(0.454425 0 0)
(0.456431 0 0)
(0.458437 0 0)
(0.460441 0 0)
(0.462445 0 0)
(0.464448 0 0)
(0.466451 0 0)
(0.468452 0 0)
(0.470454 0 0)
(0.472454 0 0)
(0.474454 0 0)
(0.476453 0 0)
(0.478451 0 0)
(0.480448 0 0)
(0.482445 0 0)
(0.484441 0 0)
(0.486436 0 0)
(0.488431 0 0)
(0.490424 0 0)
(0.492417 0 0)
(0.49441 0 0)
(0.496401 0 0)
(0.498392 0 0)
(0.500382 0 0)
(0.502371 0 0)
(0.504359 0 0)
(0.506346 0 0)
(0.508333 0 0)
(0.510319 0 0)
(0.512304 0 0)
(0.514288 0 0)
(0.516272 0 0)
(0.518254 0 0)
(0.520236 0 0)
(0.522217 0 0)
(0.524197 0 0)
(0.526176 0 0)
(0.528154 0 0)
(0.530132 0 0)
(0.532108 0 0)
(0.534084 0 0)
(0.536059 0 0)
(0.538033 0 0)
(0.540006 0 0)
(0.541978 0 0)
(0.543949 0 0)
(0.545919 0 0)
(0.547888 0 0)
(0.549857 0 0)
(0.551824 0 0)
(0.553791 0 0)
(0.555756 0 0)
(0.557721 0 0)
(0.559685 0 0)
(0.561647 0 0)
(0.563609 0 0)
(0.56557 0 0)
(0.56753 0 0)
(0.569488 0 0)
(0.571446 0 0)
(0.573403 0 0)
(0.575359 0 0)
(0.577313 0 0)
(0.579267 0 0)
(0.58122 0 0)
(0.583171 0 0)
(0.585122 0 0)
(0.587071 0 0)
(0.58902 0 0)
(0.590967 0 0)
(0.592913 0 0)
(0.594858 0 0)
(0.596803 0 0)
(0.598746 0 0)
(0.600687 0 0)
(0.602628 0 0)
(0.604568 0 0)
(0.606506 0 0)
(0.608444 0 0)
(0.61038 0 0)
(0.612315 0 0)
(0.614249 0 0)
(0.616181 0 0)
(0.618113 0 0)
(0.620043 0 0)
(0.621972 0 0)
(0.6239 0 0)
(0.625827 0 0)
(0.627752 0 0)
(0.629676 0 0)
(0.631599 0 0)
(0.633521 0 0)
(0.635441 0 0)
(0.637361 0 0)
(0.639278 0 0)
(0.641195 0 0)
(0.64311 0 0)
(0.645024 0 0)
(0.646937 0 0)
(0.648848 0 0)
(0.650758 0 0)
(0.652667 0 0)
(0.654574 0 0)
(0.65648 0 0)
(0.658385 0 0)
(0.660288 0 0)
(0.66219 0 0)
(0.66409 0 0)
(0.665989 0 0)
(0.667886 0 0)
(0.669782 0 0)
(0.671677 0 0)
(0.67357 0 0)
(0.675462 0 0)
(0.677352 0 0)
(0.67924 0 0)
(0.681128 0 0)
(0.683013 0 0)
(0.684897 0 0)
(0.68678 0 0)
(0.688661 0 0)
(0.69054 0 0)
(0.692418 0 0)
(0.694294 0 0)
(0.696169 0 0)
(0.698042 0 0)
(0.699913 0 0)
(0.701783 0 0)
(0.703651 0 0)
(0.705518 0 0)
(0.707382 0 0)
(0.709245 0 0)
(0.711107 0 0)
(0.712966 0 0)
(0.714824 0 0)
(0.71668 0 0)
(0.718535 0 0)
(0.720387 0 0)
(0.722238 0 0)
(0.724087 0 0)
(0.725934 0 0)
(0.72778 0 0)
(0.729623 0 0)
(0.731465 0 0)
(0.733304 0 0)
(0.735142 0 0)
(0.736978 0 0)
(0.738812 0 0)
(0.740644 0 0)
(0.742474 0 0)
(0.744302 0 0)
(0.746128 0 0)
(0.747952 0 0)
(0.749774 0 0)
(0.751594 0 0)
(0.753412 0 0)
(0.755228 0 0)
(0.757042 0 0)
(0.758853 0 0)
(0.760663 0 0)
(0.76247 0 0)
(0.764275 0 0)
(0.766078 0 0)
(0.767879 0 0)
(0.769677 0 0)
(0.771473 0 0)
(0.773267 0 0)
(0.775059 0 0)
(0.776848 0 0)
(0.778635 0 0)
(0.78042 0 0)
(0.782202 0 0)
(0.783982 0 0)
(0.785759 0 0)
(0.787534 0 0)
(0.789304 0 0)
(0.790805 0 0)
(0.763091 0 0)
(0.39595 0 0)
(-0.394728 0 0)
(-0.762897 0 0)
(-0.7908 0 0)
(-0.789301 0 0)
(-0.787532 0 0)
(-0.785757 0 0)
(-0.783979 0 0)
(-0.7822 0 0)
(-0.780417 0 0)
(-0.778633 0 0)
(-0.776846 0 0)
(-0.775057 0 0)
(-0.773265 0 0)
(-0.771471 0 0)
(-0.769675 0 0)
(-0.767876 0 0)
(-0.766076 0 0)
(-0.764273 0 0)
(-0.762468 0 0)
(-0.76066 0 0)
(-0.758851 0 0)
(-0.757039 0 0)
(-0.755226 0 0)
(-0.75341 0 0)
(-0.751592 0 0)
(-0.749772 0 0)
(-0.74795 0 0)
(-0.746126 0 0)
(-0.7443 0 0)
(-0.742472 0 0)
(-0.740642 0 0)
(-0.73881 0 0)
(-0.736976 0 0)
(-0.73514 0 0)
(-0.733302 0 0)
(-0.731462 0 0)
(-0.729621 0 0)
(-0.727777 0 0)
(-0.725932 0 0)
(-0.724085 0 0)
(-0.722236 0 0)
(-0.720385 0 0)
(-0.718532 0 0)
(-0.716678 0 0)
(-0.714822 0 0)
(-0.712964 0 0)
(-0.711105 0 0)
(-0.709243 0 0)
(-0.70738 0 0)
(-0.705515 0 0)
(-0.703649 0 0)
(-0.701781 0 0)
(-0.699911 0 0)
(-0.69804 0 0)
(-0.696167 0 0)
(-0.694292 0 0)
(-0.692416 0 0)
(-0.690538 0 0)
(-0.688659 0 0)
(-0.686778 0 0)
(-0.684895 0 0)
(-0.683011 0 0)
(-0.681125 0 0)
(-0.679238 0 0)
(-0.67735 0 0)
(-0.675459 0 0)
(-0.673568 0 0)
(-0.671675 0 0)
(-0.66978 0 0)
(-0.667884 0 0)
(-0.665987 0 0)
(-0.664088 0 0)
(-0.662187 0 0)
(-0.660286 0 0)
(-0.658383 0 0)
(-0.656478 0 0)
(-0.654572 0 0)
(-0.652665 0 0)
(-0.650756 0 0)
(-0.648846 0 0)
(-0.646935 0 0)
(-0.645022 0 0)
(-0.643108 0 0)
(-0.641193 0 0)
(-0.639276 0 0)
(-0.637359 0 0)
(-0.635439 0 0)
(-0.633519 0 0)
(-0.631597 0 0)
(-0.629674 0 0)
(-0.62775 0 0)
(-0.625825 0 0)
(-0.623898 0 0)
(-0.62197 0 0)
(-0.620041 0 0)
(-0.618111 0 0)
(-0.616179 0 0)
(-0.614247 0 0)
(-0.612313 0 0)
(-0.610378 0 0)
(-0.608442 0 0)
(-0.606504 0 0)
(-0.604566 0 0)
(-0.602626 0 0)
(-0.600686 0 0)
(-0.598744 0 0)
(-0.596801 0 0)
(-0.594857 0 0)
(-0.592912 0 0)
(-0.590965 0 0)
(-0.589018 0 0)
(-0.58707 0 0)
(-0.58512 0 0)
(-0.58317 0 0)
(-0.581218 0 0)
(-0.579265 0 0)
(-0.577312 0 0)
(-0.575357 0 0)
(-0.573401 0 0)
(-0.571444 0 0)
(-0.569487 0 0)
(-0.567528 0 0)
(-0.565568 0 0)
(-0.563607 0 0)
(-0.561646 0 0)
(-0.559683 0 0)
(-0.557719 0 0)
(-0.555755 0 0)
(-0.553789 0 0)
(-0.551823 0 0)
(-0.549855 0 0)
(-0.547887 0 0)
(-0.545917 0 0)
(-0.543947 0 0)
(-0.541976 0 0)
(-0.540004 0 0)
(-0.538031 0 0)
(-0.536057 0 0)
(-0.534082 0 0)
(-0.532107 0 0)
(-0.53013 0 0)
(-0.528153 0 0)
(-0.526174 0 0)
(-0.524195 0 0)
(-0.522215 0 0)
(-0.520234 0 0)
(-0.518253 0 0)
(-0.51627 0 0)
(-0.514287 0 0)
(-0.512303 0 0)
(-0.510317 0 0)
(-0.508332 0 0)
(-0.506345 0 0)
(-0.504358 0 0)
(-0.502369 0 0)
(-0.50038 0 0)
(-0.49839 0 0)
(-0.4964 0 0)
(-0.494408 0 0)
(-0.492416 0 0)
(-0.490423 0 0)
(-0.488429 0 0)
(-0.486435 0 0)
(-0.48444 0 0)
(-0.482444 0 0)
(-0.480447 0 0)
(-0.47845 0 0)
(-0.476451 0 0)
(-0.474452 0 0)
(-0.472453 0 0)
(-0.470452 0 0)
(-0.468451 0 0)
(-0.466449 0 0)
(-0.464447 0 0)
(-0.462444 0 0)
(-0.46044 0 0)
(-0.458435 0 0)
(-0.45643 0 0)
(-0.454424 0 0)
(-0.452418 0 0)
(-0.45041 0 0)
(-0.448402 0 0)
(-0.446394 0 0)
(-0.444384 0 0)
(-0.442374 0 0)
(-0.440364 0 0)
(-0.438353 0 0)
(-0.436341 0 0)
(-0.434328 0 0)
(-0.432315 0 0)
(-0.430301 0 0)
(-0.428287 0 0)
(-0.426272 0 0)
(-0.424256 0 0)
(-0.42224 0 0)
(-0.420223 0 0)
(-0.418206 0 0)
(-0.416188 0 0)
(-0.414169 0 0)
(-0.41215 0 0)
(-0.41013 0 0)
(-0.40811 0 0)
(-0.406089 0 0)
(-0.404068 0 0)
(-0.402046 0 0)
(-0.400023 0 0)
(-0.398 0 0)
(-0.395976 0 0)
(-0.393952 0 0)
(-0.391927 0 0)
(-0.389901 0 0)
(-0.387875 0 0)
(-0.385849 0 0)
(-0.383822 0 0)
(-0.381794 0 0)
(-0.379766 0 0)
(-0.377738 0 0)
(-0.375709 0 0)
(-0.373679 0 0)
(-0.371649 0 0)
(-0.369618 0 0)
(-0.367587 0 0)
(-0.365556 0 0)
(-0.363523 0 0)
(-0.361491 0 0)
(-0.359458 0 0)
(-0.357424 0 0)
(-0.35539 0 0)
(-0.353356 0 0)
(-0.351321 0 0)
(-0.349285 0 0)
(-0.347249 0 0)
(-0.345213 0 0)
(-0.343176 0 0)
(-0.341138 0 0)
(-0.339101 0 0)
(-0.337062 0 0)
(-0.335024 0 0)
(-0.332985 0 0)
(-0.330945 0 0)
(-0.328905 0 0)
(-0.326865 0 0)
(-0.324824 0 0)
(-0.322783 0 0)
(-0.320741 0 0)
(-0.318699 0 0)
(-0.316656 0 0)
(-0.314613 0 0)
(-0.31257 0 0)
(-0.310526 0 0)
(-0.308482 0 0)
(-0.306437 0 0)
(-0.304392 0 0)
(-0.302347 0 0)
(-0.300301 0 0)
(-0.298255 0 0)
(-0.296209 0 0)
(-0.294162 0 0)
(-0.292115 0 0)
(-0.290067 0 0)
(-0.288019 0 0)
(-0.285971 0 0)
(-0.283922 0 0)
(-0.281873 0 0)
(-0.279823 0 0)
(-0.277773 0 0)
(-0.275723 0 0)
(-0.273673 0 0)
(-0.271622 0 0)
(-0.269571 0 0)
(-0.267519 0 0)
(-0.265467 0 0)
(-0.263415 0 0)
(-0.261363 0 0)
(-0.25931 0 0)
(-0.257256 0 0)
(-0.255203 0 0)
(-0.253149 0 0)
(-0.251095 0 0)
(-0.249041 0 0)
(-0.246986 0 0)
(-0.244931 0 0)
(-0.242875 0 0)
(-0.24082 0 0)
(-0.238764 0 0)
(-0.236707 0 0)
(-0.234651 0 0)
(-0.232594 0 0)
(-0.230537 0 0)
(-0.228479 0 0)
(-0.226422 0 0)
(-0.224364 0 0)
(-0.222305 0 0)
(-0.220247 0 0)
(-0.218188 0 0)
(-0.216129 0 0)
(-0.21407 0 0)
(-0.21201 0 0)
(-0.20995 0 0)
(-0.20789 0 0)
(-0.20583 0 0)
(-0.203769 0 0)
(-0.201708 0 0)
(-0.199647 0 0)
(-0.197586 0 0)
(-0.195524 0 0)
(-0.193463 0 0)
(-0.1914 0 0)
(-0.189338 0 0)
(-0.187276 0 0)
(-0.185213 0 0)
(-0.18315 0 0)
(-0.181087 0 0)
(-0.179023 0 0)
(-0.17696 0 0)
(-0.174896 0 0)
(-0.172832 0 0)
(-0.170768 0 0)
(-0.168703 0 0)
(-0.166639 0 0)
(-0.164574 0 0)
(-0.162509 0 0)
(-0.160443 0 0)
(-0.158378 0 0)
(-0.156312 0 0)
(-0.154246 0 0)
(-0.15218 0 0)
(-0.150114 0 0)
(-0.148048 0 0)
(-0.145981 0 0)
(-0.143915 0 0)
(-0.141848 0 0)
(-0.139781 0 0)
(-0.137714 0 0)
(-0.135646 0 0)
(-0.133579 0 0)
(-0.131511 0 0)
(-0.129443 0 0)
(-0.127375 0 0)
(-0.125307 0 0)
(-0.123239 0 0)
(-0.12117 0 0)
(-0.119102 0 0)
(-0.117033 0 0)
(-0.114964 0 0)
(-0.112895 0 0)
(-0.110826 0 0)
(-0.108757 0 0)
(-0.106687 0 0)
(-0.104618 0 0)
(-0.102548 0 0)
(-0.100478 0 0)
(-0.0984085 0 0)
(-0.0963385 0 0)
(-0.0942684 0 0)
(-0.0921982 0 0)
(-0.0901278 0 0)
(-0.0880574 0 0)
(-0.0859869 0 0)
(-0.0839162 0 0)
(-0.0818455 0 0)
(-0.0797747 0 0)
(-0.0777037 0 0)
(-0.0756327 0 0)
(-0.0735616 0 0)
(-0.0714904 0 0)
(-0.0694192 0 0)
(-0.0673478 0 0)
(-0.0652764 0 0)
(-0.0632049 0 0)
(-0.0611333 0 0)
(-0.0590617 0 0)
(-0.0569899 0 0)
(-0.0549182 0 0)
(-0.0528463 0 0)
(-0.0507744 0 0)
(-0.0487024 0 0)
(-0.0466304 0 0)
(-0.0445583 0 0)
(-0.0424862 0 0)
(-0.040414 0 0)
(-0.0383418 0 0)
(-0.0362695 0 0)
(-0.0341972 0 0)
(-0.0321248 0 0)
(-0.0300524 0 0)
(-0.02798 0 0)
(-0.0259075 0 0)
(-0.023835 0 0)
(-0.0217625 0 0)
(-0.01969 0 0)
(-0.0176174 0 0)
(-0.0155448 0 0)
(-0.0134722 0 0)
(-0.0113996 0 0)
(-0.00932696 0 0)
(-0.00725431 0 0)
(-0.00518166 0 0)
(-0.003109 0 0)
(-0.00103633 0 0)
)
;

boundaryField
{
    left
    {
        type            fixedValue;
        value           uniform (0 0 0);
    }
    right
    {
        type            fixedValue;
        value           uniform (0 0 0);
    }
    frontBackUpDown
    {
        type            empty;
    }
}


// ************************************************************************* //
