/*--------------------------------*- C++ -*----------------------------------*\
| =========                 |                                                 |
| \\      /  F ield         | OpenFOAM: The Open Source CFD Toolbox           |
|  \\    /   O peration     | Version:  2412                                  |
|   \\  /    A nd           | Website:  www.openfoam.com                      |
|    \\/     M anipulation  |                                                 |
\*---------------------------------------------------------------------------*/
FoamFile
{
    version     2.0;
    format      ascii;
    arch        "LSB;label=32;scalar=64";
    class       volVectorField;
    location    "0.11";
    object      U;
}
// * * * * * * * * * * * * * * * * * * * * * * * * * * * * * * * * * * * * * //

dimensions      [0 1 -1 0 0 0 0];

internalField   nonuniform List<vector> 
800
(
(0.0029178 0 0)
(0.00875344 0 0)
(0.0145889 0 0)
(0.0204239 0 0)
(0.0262585 0 0)
(0.0320923 0 0)
(0.0379254 0 0)
(0.0437575 0 0)
(0.0495885 0 0)
(0.0554182 0 0)
(0.0612465 0 0)
(0.0670733 0 0)
(0.0728983 0 0)
(0.0787215 0 0)
(0.0845427 0 0)
(0.0903617 0 0)
(0.0961785 0 0)
(0.101993 0 0)
(0.107804 0 0)
(0.113613 0 0)
(0.119419 0 0)
(0.125222 0 0)
(0.131022 0 0)
(0.136819 0 0)
(0.142612 0 0)
(0.148401 0 0)
(0.154186 0 0)
(0.159968 0 0)
(0.165745 0 0)
(0.171519 0 0)
(0.177287 0 0)
(0.183052 0 0)
(0.188811 0 0)
(0.194566 0 0)
(0.200316 0 0)
(0.20606 0 0)
(0.211799 0 0)
(0.217533 0 0)
(0.223261 0 0)
(0.228984 0 0)
(0.2347 0 0)
(0.24041 0 0)
(0.246114 0 0)
(0.251812 0 0)
(0.257503 0 0)
(0.263188 0 0)
(0.268865 0 0)
(0.274536 0 0)
(0.280199 0 0)
(0.285855 0 0)
(0.291504 0 0)
(0.297145 0 0)
(0.302778 0 0)
(0.308403 0 0)
(0.31402 0 0)
(0.319628 0 0)
(0.325229 0 0)
(0.33082 0 0)
(0.336403 0 0)
(0.341977 0 0)
(0.347542 0 0)
(0.353098 0 0)
(0.358644 0 0)
(0.364181 0 0)
(0.369707 0 0)
(0.375224 0 0)
(0.380731 0 0)
(0.386228 0 0)
(0.391714 0 0)
(0.39719 0 0)
(0.402655 0 0)
(0.408109 0 0)
(0.413552 0 0)
(0.418983 0 0)
(0.424404 0 0)
(0.429812 0 0)
(0.435209 0 0)
(0.440594 0 0)
(0.445967 0 0)
(0.451328 0 0)
(0.456676 0 0)
(0.462011 0 0)
(0.467334 0 0)
(0.472644 0 0)
(0.47794 0 0)
(0.483224 0 0)
(0.488493 0 0)
(0.493749 0 0)
(0.498991 0 0)
(0.50422 0 0)
(0.509433 0 0)
(0.514633 0 0)
(0.519818 0 0)
(0.524988 0 0)
(0.530143 0 0)
(0.535283 0 0)
(0.540408 0 0)
(0.545517 0 0)
(0.55061 0 0)
(0.555688 0 0)
(0.560749 0 0)
(0.565794 0 0)
(0.570823 0 0)
(0.575835 0 0)
(0.58083 0 0)
(0.585808 0 0)
(0.590769 0 0)
(0.595712 0 0)
(0.600638 0 0)
(0.605546 0 0)
(0.610436 0 0)
(0.615307 0 0)
(0.62016 0 0)
(0.624995 0 0)
(0.62981 0 0)
(0.634607 0 0)
(0.639384 0 0)
(0.644142 0 0)
(0.64888 0 0)
(0.653598 0 0)
(0.658296 0 0)
(0.662974 0 0)
(0.667631 0 0)
(0.672268 0 0)
(0.676883 0 0)
(0.681477 0 0)
(0.68605 0 0)
(0.690602 0 0)
(0.695131 0 0)
(0.699638 0 0)
(0.704123 0 0)
(0.708586 0 0)
(0.713026 0 0)
(0.717443 0 0)
(0.721836 0 0)
(0.726207 0 0)
(0.730553 0 0)
(0.734876 0 0)
(0.739174 0 0)
(0.743448 0 0)
(0.747698 0 0)
(0.751922 0 0)
(0.756122 0 0)
(0.760296 0 0)
(0.764445 0 0)
(0.768568 0 0)
(0.772665 0 0)
(0.776735 0 0)
(0.780779 0 0)
(0.784796 0 0)
(0.788786 0 0)
(0.792748 0 0)
(0.796683 0 0)
(0.80059 0 0)
(0.804469 0 0)
(0.80832 0 0)
(0.812142 0 0)
(0.815935 0 0)
(0.819699 0 0)
(0.823433 0 0)
(0.827138 0 0)
(0.830812 0 0)
(0.834457 0 0)
(0.83807 0 0)
(0.841653 0 0)
(0.845205 0 0)
(0.848726 0 0)
(0.852214 0 0)
(0.855671 0 0)
(0.859095 0 0)
(0.862487 0 0)
(0.865846 0 0)
(0.869172 0 0)
(0.872464 0 0)
(0.875723 0 0)
(0.878947 0 0)
(0.882138 0 0)
(0.885293 0 0)
(0.888414 0 0)
(0.891499 0 0)
(0.894548 0 0)
(0.897562 0 0)
(0.900539 0 0)
(0.90348 0 0)
(0.906384 0 0)
(0.90925 0 0)
(0.912079 0 0)
(0.91487 0 0)
(0.917623 0 0)
(0.920338 0 0)
(0.923013 0 0)
(0.925649 0 0)
(0.928246 0 0)
(0.930802 0 0)
(0.933319 0 0)
(0.935794 0 0)
(0.938229 0 0)
(0.940622 0 0)
(0.942974 0 0)
(0.945283 0 0)
(0.94755 0 0)
(0.949774 0 0)
(0.951955 0 0)
(0.954093 0 0)
(0.956186 0 0)
(0.958235 0 0)
(0.960239 0 0)
(0.962199 0 0)
(0.964113 0 0)
(0.96598 0 0)
(0.967802 0 0)
(0.969577 0 0)
(0.971305 0 0)
(0.972985 0 0)
(0.974618 0 0)
(0.976202 0 0)
(0.977737 0 0)
(0.979224 0 0)
(0.98066 0 0)
(0.982047 0 0)
(0.983383 0 0)
(0.984669 0 0)
(0.985903 0 0)
(0.987086 0 0)
(0.988216 0 0)
(0.989294 0 0)
(0.990319 0 0)
(0.99129 0 0)
(0.992208 0 0)
(0.993071 0 0)
(0.993879 0 0)
(0.994632 0 0)
(0.995329 0 0)
(0.99597 0 0)
(0.996554 0 0)
(0.997081 0 0)
(0.997551 0 0)
(0.997962 0 0)
(0.998315 0 0)
(0.998608 0 0)
(0.998842 0 0)
(0.999016 0 0)
(0.99913 0 0)
(0.999182 0 0)
(0.999173 0 0)
(0.999101 0 0)
(0.998967 0 0)
(0.99877 0 0)
(0.99851 0 0)
(0.998185 0 0)
(0.997795 0 0)
(0.997341 0 0)
(0.996821 0 0)
(0.996234 0 0)
(0.995581 0 0)
(0.994861 0 0)
(0.994072 0 0)
(0.993216 0 0)
(0.99229 0 0)
(0.991295 0 0)
(0.99023 0 0)
(0.989095 0 0)
(0.987889 0 0)
(0.98661 0 0)
(0.98526 0 0)
(0.983837 0 0)
(0.982341 0 0)
(0.980771 0 0)
(0.979127 0 0)
(0.977407 0 0)
(0.975612 0 0)
(0.973741 0 0)
(0.971794 0 0)
(0.969769 0 0)
(0.967666 0 0)
(0.965485 0 0)
(0.963226 0 0)
(0.960886 0 0)
(0.958467 0 0)
(0.955967 0 0)
(0.953386 0 0)
(0.950724 0 0)
(0.947979 0 0)
(0.945151 0 0)
(0.94224 0 0)
(0.939245 0 0)
(0.936165 0 0)
(0.933001 0 0)
(0.929751 0 0)
(0.926414 0 0)
(0.922991 0 0)
(0.919481 0 0)
(0.915883 0 0)
(0.912197 0 0)
(0.908422 0 0)
(0.904557 0 0)
(0.900603 0 0)
(0.896558 0 0)
(0.892423 0 0)
(0.888196 0 0)
(0.883877 0 0)
(0.879466 0 0)
(0.874962 0 0)
(0.870365 0 0)
(0.865674 0 0)
(0.860889 0 0)
(0.856009 0 0)
(0.851034 0 0)
(0.845964 0 0)
(0.840798 0 0)
(0.835536 0 0)
(0.830176 0 0)
(0.82472 0 0)
(0.819167 0 0)
(0.813516 0 0)
(0.807767 0 0)
(0.801919 0 0)
(0.795973 0 0)
(0.789928 0 0)
(0.783784 0 0)
(0.77754 0 0)
(0.771197 0 0)
(0.764754 0 0)
(0.758211 0 0)
(0.751568 0 0)
(0.744825 0 0)
(0.737981 0 0)
(0.731037 0 0)
(0.723993 0 0)
(0.716848 0 0)
(0.709602 0 0)
(0.702256 0 0)
(0.69481 0 0)
(0.687263 0 0)
(0.679616 0 0)
(0.671869 0 0)
(0.664022 0 0)
(0.656076 0 0)
(0.64803 0 0)
(0.639885 0 0)
(0.631641 0 0)
(0.623298 0 0)
(0.614858 0 0)
(0.60632 0 0)
(0.597685 0 0)
(0.588953 0 0)
(0.580124 0 0)
(0.571201 0 0)
(0.562182 0 0)
(0.55307 0 0)
(0.543864 0 0)
(0.534565 0 0)
(0.525174 0 0)
(0.515692 0 0)
(0.50612 0 0)
(0.496459 0 0)
(0.48671 0 0)
(0.476873 0 0)
(0.466951 0 0)
(0.456944 0 0)
(0.446853 0 0)
(0.436679 0 0)
(0.426424 0 0)
(0.41609 0 0)
(0.405677 0 0)
(0.395187 0 0)
(0.384621 0 0)
(0.373981 0 0)
(0.363269 0 0)
(0.352487 0 0)
(0.341635 0 0)
(0.330716 0 0)
(0.319731 0 0)
(0.308682 0 0)
(0.297572 0 0)
(0.286401 0 0)
(0.275173 0 0)
(0.263888 0 0)
(0.25255 0 0)
(0.241159 0 0)
(0.229719 0 0)
(0.218231 0 0)
(0.206698 0 0)
(0.195122 0 0)
(0.183505 0 0)
(0.171849 0 0)
(0.160157 0 0)
(0.148431 0 0)
(0.136673 0 0)
(0.124887 0 0)
(0.113074 0 0)
(0.101237 0 0)
(0.0893777 0 0)
(0.0774996 0 0)
(0.0656048 0 0)
(0.053696 0 0)
(0.0417755 0 0)
(0.0298461 0 0)
(0.0179102 0 0)
(0.00597052 0 0)
(-0.0059705 0 0)
(-0.0179102 0 0)
(-0.0298461 0 0)
(-0.0417755 0 0)
(-0.0536959 0 0)
(-0.0656047 0 0)
(-0.0774995 0 0)
(-0.0893776 0 0)
(-0.101236 0 0)
(-0.113074 0 0)
(-0.124887 0 0)
(-0.136673 0 0)
(-0.148431 0 0)
(-0.160157 0 0)
(-0.171849 0 0)
(-0.183504 0 0)
(-0.195121 0 0)
(-0.206698 0 0)
(-0.218231 0 0)
(-0.229719 0 0)
(-0.241159 0 0)
(-0.252549 0 0)
(-0.263887 0 0)
(-0.275172 0 0)
(-0.2864 0 0)
(-0.297571 0 0)
(-0.308681 0 0)
(-0.31973 0 0)
(-0.330714 0 0)
(-0.341634 0 0)
(-0.352485 0 0)
(-0.363268 0 0)
(-0.37398 0 0)
(-0.38462 0 0)
(-0.395185 0 0)
(-0.405675 0 0)
(-0.416088 0 0)
(-0.426423 0 0)
(-0.436677 0 0)
(-0.446851 0 0)
(-0.456942 0 0)
(-0.466949 0 0)
(-0.476872 0 0)
(-0.486708 0 0)
(-0.496457 0 0)
(-0.506118 0 0)
(-0.51569 0 0)
(-0.525172 0 0)
(-0.534563 0 0)
(-0.543862 0 0)
(-0.553068 0 0)
(-0.56218 0 0)
(-0.571199 0 0)
(-0.580122 0 0)
(-0.58895 0 0)
(-0.597682 0 0)
(-0.606318 0 0)
(-0.614856 0 0)
(-0.623296 0 0)
(-0.631639 0 0)
(-0.639883 0 0)
(-0.648028 0 0)
(-0.656074 0 0)
(-0.66402 0 0)
(-0.671867 0 0)
(-0.679614 0 0)
(-0.687261 0 0)
(-0.694808 0 0)
(-0.702254 0 0)
(-0.7096 0 0)
(-0.716846 0 0)
(-0.723991 0 0)
(-0.731035 0 0)
(-0.737979 0 0)
(-0.744823 0 0)
(-0.751566 0 0)
(-0.758209 0 0)
(-0.764752 0 0)
(-0.771195 0 0)
(-0.777538 0 0)
(-0.783782 0 0)
(-0.789926 0 0)
(-0.795971 0 0)
(-0.801917 0 0)
(-0.807765 0 0)
(-0.813514 0 0)
(-0.819165 0 0)
(-0.824719 0 0)
(-0.830175 0 0)
(-0.835534 0 0)
(-0.840796 0 0)
(-0.845962 0 0)
(-0.851033 0 0)
(-0.856007 0 0)
(-0.860887 0 0)
(-0.865672 0 0)
(-0.870363 0 0)
(-0.874961 0 0)
(-0.879464 0 0)
(-0.883876 0 0)
(-0.888194 0 0)
(-0.892421 0 0)
(-0.896557 0 0)
(-0.900602 0 0)
(-0.904556 0 0)
(-0.90842 0 0)
(-0.912196 0 0)
(-0.915882 0 0)
(-0.91948 0 0)
(-0.92299 0 0)
(-0.926413 0 0)
(-0.92975 0 0)
(-0.933 0 0)
(-0.936165 0 0)
(-0.939244 0 0)
(-0.942239 0 0)
(-0.94515 0 0)
(-0.947978 0 0)
(-0.950723 0 0)
(-0.953386 0 0)
(-0.955967 0 0)
(-0.958467 0 0)
(-0.960886 0 0)
(-0.963225 0 0)
(-0.965485 0 0)
(-0.967666 0 0)
(-0.969768 0 0)
(-0.971793 0 0)
(-0.973741 0 0)
(-0.975612 0 0)
(-0.977407 0 0)
(-0.979126 0 0)
(-0.980771 0 0)
(-0.982341 0 0)
(-0.983837 0 0)
(-0.98526 0 0)
(-0.98661 0 0)
(-0.987888 0 0)
(-0.989095 0 0)
(-0.99023 0 0)
(-0.991295 0 0)
(-0.99229 0 0)
(-0.993216 0 0)
(-0.994072 0 0)
(-0.99486 0 0)
(-0.995581 0 0)
(-0.996234 0 0)
(-0.996821 0 0)
(-0.997341 0 0)
(-0.997795 0 0)
(-0.998185 0 0)
(-0.99851 0 0)
(-0.99877 0 0)
(-0.998967 0 0)
(-0.999101 0 0)
(-0.999173 0 0)
(-0.999182 0 0)
(-0.99913 0 0)
(-0.999016 0 0)
(-0.998842 0 0)
(-0.998608 0 0)
(-0.998315 0 0)
(-0.997962 0 0)
(-0.997551 0 0)
(-0.997081 0 0)
(-0.996554 0 0)
(-0.99597 0 0)
(-0.995329 0 0)
(-0.994632 0 0)
(-0.993879 0 0)
(-0.993071 0 0)
(-0.992208 0 0)
(-0.99129 0 0)
(-0.990319 0 0)
(-0.989294 0 0)
(-0.988216 0 0)
(-0.987086 0 0)
(-0.985903 0 0)
(-0.984669 0 0)
(-0.983383 0 0)
(-0.982047 0 0)
(-0.98066 0 0)
(-0.979223 0 0)
(-0.977737 0 0)
(-0.976202 0 0)
(-0.974617 0 0)
(-0.972985 0 0)
(-0.971305 0 0)
(-0.969577 0 0)
(-0.967802 0 0)
(-0.96598 0 0)
(-0.964112 0 0)
(-0.962198 0 0)
(-0.960239 0 0)
(-0.958235 0 0)
(-0.956186 0 0)
(-0.954092 0 0)
(-0.951955 0 0)
(-0.949774 0 0)
(-0.94755 0 0)
(-0.945283 0 0)
(-0.942973 0 0)
(-0.940622 0 0)
(-0.938228 0 0)
(-0.935794 0 0)
(-0.933318 0 0)
(-0.930802 0 0)
(-0.928245 0 0)
(-0.925649 0 0)
(-0.923012 0 0)
(-0.920337 0 0)
(-0.917623 0 0)
(-0.91487 0 0)
(-0.912079 0 0)
(-0.90925 0 0)
(-0.906383 0 0)
(-0.903479 0 0)
(-0.900538 0 0)
(-0.897561 0 0)
(-0.894547 0 0)
(-0.891498 0 0)
(-0.888413 0 0)
(-0.885292 0 0)
(-0.882137 0 0)
(-0.878947 0 0)
(-0.875722 0 0)
(-0.872464 0 0)
(-0.869171 0 0)
(-0.865845 0 0)
(-0.862486 0 0)
(-0.859094 0 0)
(-0.85567 0 0)
(-0.852213 0 0)
(-0.848725 0 0)
(-0.845204 0 0)
(-0.841652 0 0)
(-0.838069 0 0)
(-0.834456 0 0)
(-0.830811 0 0)
(-0.827137 0 0)
(-0.823432 0 0)
(-0.819698 0 0)
(-0.815934 0 0)
(-0.812141 0 0)
(-0.808319 0 0)
(-0.804468 0 0)
(-0.800589 0 0)
(-0.796682 0 0)
(-0.792747 0 0)
(-0.788785 0 0)
(-0.784795 0 0)
(-0.780778 0 0)
(-0.776734 0 0)
(-0.772663 0 0)
(-0.768567 0 0)
(-0.764444 0 0)
(-0.760295 0 0)
(-0.756121 0 0)
(-0.751921 0 0)
(-0.747697 0 0)
(-0.743447 0 0)
(-0.739173 0 0)
(-0.734875 0 0)
(-0.730552 0 0)
(-0.726205 0 0)
(-0.721835 0 0)
(-0.717442 0 0)
(-0.713025 0 0)
(-0.708585 0 0)
(-0.704122 0 0)
(-0.699637 0 0)
(-0.69513 0 0)
(-0.6906 0 0)
(-0.686049 0 0)
(-0.681476 0 0)
(-0.676882 0 0)
(-0.672266 0 0)
(-0.66763 0 0)
(-0.662973 0 0)
(-0.658295 0 0)
(-0.653597 0 0)
(-0.648879 0 0)
(-0.644141 0 0)
(-0.639383 0 0)
(-0.634606 0 0)
(-0.629809 0 0)
(-0.624994 0 0)
(-0.620159 0 0)
(-0.615306 0 0)
(-0.610435 0 0)
(-0.605545 0 0)
(-0.600637 0 0)
(-0.595711 0 0)
(-0.590768 0 0)
(-0.585807 0 0)
(-0.580829 0 0)
(-0.575834 0 0)
(-0.570822 0 0)
(-0.565793 0 0)
(-0.560748 0 0)
(-0.555687 0 0)
(-0.550609 0 0)
(-0.545516 0 0)
(-0.540407 0 0)
(-0.535282 0 0)
(-0.530142 0 0)
(-0.524987 0 0)
(-0.519817 0 0)
(-0.514632 0 0)
(-0.509433 0 0)
(-0.504219 0 0)
(-0.498991 0 0)
(-0.493749 0 0)
(-0.488492 0 0)
(-0.483223 0 0)
(-0.47794 0 0)
(-0.472643 0 0)
(-0.467333 0 0)
(-0.462011 0 0)
(-0.456675 0 0)
(-0.451327 0 0)
(-0.445966 0 0)
(-0.440593 0 0)
(-0.435208 0 0)
(-0.429812 0 0)
(-0.424403 0 0)
(-0.418983 0 0)
(-0.413551 0 0)
(-0.408108 0 0)
(-0.402654 0 0)
(-0.397189 0 0)
(-0.391714 0 0)
(-0.386227 0 0)
(-0.380731 0 0)
(-0.375224 0 0)
(-0.369707 0 0)
(-0.36418 0 0)
(-0.358644 0 0)
(-0.353097 0 0)
(-0.347542 0 0)
(-0.341977 0 0)
(-0.336403 0 0)
(-0.33082 0 0)
(-0.325228 0 0)
(-0.319628 0 0)
(-0.314019 0 0)
(-0.308402 0 0)
(-0.302777 0 0)
(-0.297144 0 0)
(-0.291503 0 0)
(-0.285855 0 0)
(-0.280199 0 0)
(-0.274535 0 0)
(-0.268865 0 0)
(-0.263187 0 0)
(-0.257503 0 0)
(-0.251812 0 0)
(-0.246114 0 0)
(-0.24041 0 0)
(-0.2347 0 0)
(-0.228983 0 0)
(-0.223261 0 0)
(-0.217533 0 0)
(-0.211799 0 0)
(-0.20606 0 0)
(-0.200316 0 0)
(-0.194566 0 0)
(-0.188811 0 0)
(-0.183052 0 0)
(-0.177287 0 0)
(-0.171519 0 0)
(-0.165745 0 0)
(-0.159968 0 0)
(-0.154186 0 0)
(-0.148401 0 0)
(-0.142612 0 0)
(-0.136819 0 0)
(-0.131022 0 0)
(-0.125222 0 0)
(-0.119419 0 0)
(-0.113613 0 0)
(-0.107804 0 0)
(-0.101993 0 0)
(-0.0961784 0 0)
(-0.0903617 0 0)
(-0.0845427 0 0)
(-0.0787215 0 0)
(-0.0728983 0 0)
(-0.0670733 0 0)
(-0.0612465 0 0)
(-0.0554182 0 0)
(-0.0495885 0 0)
(-0.0437575 0 0)
(-0.0379254 0 0)
(-0.0320924 0 0)
(-0.0262585 0 0)
(-0.020424 0 0)
(-0.0145889 0 0)
(-0.0087535 0 0)
(-0.00291786 0 0)
)
;

boundaryField
{
    left
    {
        type            fixedValue;
        value           uniform (0 0 0);
    }
    right
    {
        type            fixedValue;
        value           uniform (0 0 0);
    }
    frontBackUpDown
    {
        type            empty;
    }
}


// ************************************************************************* //
