/*--------------------------------*- C++ -*----------------------------------*\
| =========                 |                                                 |
| \\      /  F ield         | OpenFOAM: The Open Source CFD Toolbox           |
|  \\    /   O peration     | Version:  2412                                  |
|   \\  /    A nd           | Website:  www.openfoam.com                      |
|    \\/     M anipulation  |                                                 |
\*---------------------------------------------------------------------------*/
FoamFile
{
    version     2.0;
    format      ascii;
    arch        "LSB;label=32;scalar=64";
    class       volVectorField;
    location    "0.11";
    object      U_0;
}
// * * * * * * * * * * * * * * * * * * * * * * * * * * * * * * * * * * * * * //

dimensions      [0 1 -1 0 0 0 0];

internalField   nonuniform List<vector> 
800
(
(0.00292121 0 0)
(0.00876366 0 0)
(0.0146059 0 0)
(0.0204478 0 0)
(0.0262891 0 0)
(0.0321298 0 0)
(0.0379697 0 0)
(0.0438086 0 0)
(0.0496464 0 0)
(0.0554829 0 0)
(0.061318 0 0)
(0.0671515 0 0)
(0.0729833 0 0)
(0.0788133 0 0)
(0.0846412 0 0)
(0.090467 0 0)
(0.0962905 0 0)
(0.102111 0 0)
(0.10793 0 0)
(0.113746 0 0)
(0.119558 0 0)
(0.125368 0 0)
(0.131174 0 0)
(0.136977 0 0)
(0.142777 0 0)
(0.148573 0 0)
(0.154365 0 0)
(0.160153 0 0)
(0.165937 0 0)
(0.171717 0 0)
(0.177492 0 0)
(0.183263 0 0)
(0.189029 0 0)
(0.19479 0 0)
(0.200546 0 0)
(0.206297 0 0)
(0.212043 0 0)
(0.217783 0 0)
(0.223517 0 0)
(0.229246 0 0)
(0.234969 0 0)
(0.240685 0 0)
(0.246395 0 0)
(0.252099 0 0)
(0.257797 0 0)
(0.263487 0 0)
(0.269171 0 0)
(0.274847 0 0)
(0.280517 0 0)
(0.286179 0 0)
(0.291833 0 0)
(0.29748 0 0)
(0.303119 0 0)
(0.30875 0 0)
(0.314373 0 0)
(0.319987 0 0)
(0.325593 0 0)
(0.331191 0 0)
(0.336779 0 0)
(0.342359 0 0)
(0.347929 0 0)
(0.35349 0 0)
(0.359042 0 0)
(0.364584 0 0)
(0.370116 0 0)
(0.375639 0 0)
(0.381151 0 0)
(0.386653 0 0)
(0.392144 0 0)
(0.397625 0 0)
(0.403095 0 0)
(0.408554 0 0)
(0.414002 0 0)
(0.419439 0 0)
(0.424864 0 0)
(0.430277 0 0)
(0.435679 0 0)
(0.441069 0 0)
(0.446446 0 0)
(0.451812 0 0)
(0.457164 0 0)
(0.462504 0 0)
(0.467832 0 0)
(0.473146 0 0)
(0.478447 0 0)
(0.483734 0 0)
(0.489008 0 0)
(0.494268 0 0)
(0.499515 0 0)
(0.504747 0 0)
(0.509965 0 0)
(0.515168 0 0)
(0.520357 0 0)
(0.525531 0 0)
(0.53069 0 0)
(0.535833 0 0)
(0.540961 0 0)
(0.546074 0 0)
(0.551171 0 0)
(0.556252 0 0)
(0.561317 0 0)
(0.566365 0 0)
(0.571397 0 0)
(0.576412 0 0)
(0.58141 0 0)
(0.586391 0 0)
(0.591355 0 0)
(0.596301 0 0)
(0.601229 0 0)
(0.60614 0 0)
(0.611032 0 0)
(0.615906 0 0)
(0.620762 0 0)
(0.625599 0 0)
(0.630417 0 0)
(0.635215 0 0)
(0.639995 0 0)
(0.644754 0 0)
(0.649494 0 0)
(0.654214 0 0)
(0.658914 0 0)
(0.663594 0 0)
(0.668253 0 0)
(0.67289 0 0)
(0.677507 0 0)
(0.682103 0 0)
(0.686677 0 0)
(0.69123 0 0)
(0.69576 0 0)
(0.700269 0 0)
(0.704755 0 0)
(0.709218 0 0)
(0.713658 0 0)
(0.718076 0 0)
(0.72247 0 0)
(0.726841 0 0)
(0.731187 0 0)
(0.73551 0 0)
(0.739809 0 0)
(0.744083 0 0)
(0.748333 0 0)
(0.752557 0 0)
(0.756756 0 0)
(0.76093 0 0)
(0.765078 0 0)
(0.769201 0 0)
(0.773297 0 0)
(0.777366 0 0)
(0.781409 0 0)
(0.785425 0 0)
(0.789414 0 0)
(0.793376 0 0)
(0.797309 0 0)
(0.801215 0 0)
(0.805092 0 0)
(0.808941 0 0)
(0.812761 0 0)
(0.816553 0 0)
(0.820315 0 0)
(0.824047 0 0)
(0.827749 0 0)
(0.831422 0 0)
(0.835064 0 0)
(0.838675 0 0)
(0.842255 0 0)
(0.845804 0 0)
(0.849322 0 0)
(0.852807 0 0)
(0.856261 0 0)
(0.859682 0 0)
(0.863071 0 0)
(0.866426 0 0)
(0.869749 0 0)
(0.873037 0 0)
(0.876292 0 0)
(0.879513 0 0)
(0.882699 0 0)
(0.88585 0 0)
(0.888966 0 0)
(0.892047 0 0)
(0.895092 0 0)
(0.898101 0 0)
(0.901073 0 0)
(0.904009 0 0)
(0.906908 0 0)
(0.90977 0 0)
(0.912593 0 0)
(0.915379 0 0)
(0.918126 0 0)
(0.920835 0 0)
(0.923505 0 0)
(0.926135 0 0)
(0.928725 0 0)
(0.931276 0 0)
(0.933786 0 0)
(0.936255 0 0)
(0.938683 0 0)
(0.94107 0 0)
(0.943415 0 0)
(0.945717 0 0)
(0.947977 0 0)
(0.950194 0 0)
(0.952368 0 0)
(0.954498 0 0)
(0.956584 0 0)
(0.958625 0 0)
(0.960622 0 0)
(0.962573 0 0)
(0.964479 0 0)
(0.966338 0 0)
(0.968152 0 0)
(0.969918 0 0)
(0.971637 0 0)
(0.973309 0 0)
(0.974933 0 0)
(0.976508 0 0)
(0.978034 0 0)
(0.979512 0 0)
(0.980939 0 0)
(0.982316 0 0)
(0.983643 0 0)
(0.984919 0 0)
(0.986143 0 0)
(0.987316 0 0)
(0.988436 0 0)
(0.989504 0 0)
(0.990518 0 0)
(0.991479 0 0)
(0.992386 0 0)
(0.993239 0 0)
(0.994036 0 0)
(0.994778 0 0)
(0.995464 0 0)
(0.996094 0 0)
(0.996667 0 0)
(0.997183 0 0)
(0.997641 0 0)
(0.99804 0 0)
(0.998381 0 0)
(0.998663 0 0)
(0.998885 0 0)
(0.999047 0 0)
(0.999148 0 0)
(0.999189 0 0)
(0.999167 0 0)
(0.999083 0 0)
(0.998937 0 0)
(0.998727 0 0)
(0.998454 0 0)
(0.998116 0 0)
(0.997714 0 0)
(0.997247 0 0)
(0.996713 0 0)
(0.996114 0 0)
(0.995447 0 0)
(0.994714 0 0)
(0.993912 0 0)
(0.993042 0 0)
(0.992103 0 0)
(0.991094 0 0)
(0.990016 0 0)
(0.988867 0 0)
(0.987647 0 0)
(0.986355 0 0)
(0.984991 0 0)
(0.983554 0 0)
(0.982044 0 0)
(0.98046 0 0)
(0.978801 0 0)
(0.977068 0 0)
(0.975259 0 0)
(0.973374 0 0)
(0.971412 0 0)
(0.969373 0 0)
(0.967256 0 0)
(0.965061 0 0)
(0.962787 0 0)
(0.960434 0 0)
(0.958 0 0)
(0.955487 0 0)
(0.952891 0 0)
(0.950215 0 0)
(0.947456 0 0)
(0.944614 0 0)
(0.941689 0 0)
(0.93868 0 0)
(0.935586 0 0)
(0.932408 0 0)
(0.929144 0 0)
(0.925794 0 0)
(0.922357 0 0)
(0.918834 0 0)
(0.915222 0 0)
(0.911522 0 0)
(0.907734 0 0)
(0.903857 0 0)
(0.899889 0 0)
(0.895832 0 0)
(0.891683 0 0)
(0.887444 0 0)
(0.883113 0 0)
(0.878689 0 0)
(0.874173 0 0)
(0.869564 0 0)
(0.864862 0 0)
(0.860065 0 0)
(0.855174 0 0)
(0.850188 0 0)
(0.845107 0 0)
(0.83993 0 0)
(0.834657 0 0)
(0.829288 0 0)
(0.823821 0 0)
(0.818258 0 0)
(0.812598 0 0)
(0.806839 0 0)
(0.800983 0 0)
(0.795028 0 0)
(0.788975 0 0)
(0.782823 0 0)
(0.776572 0 0)
(0.770221 0 0)
(0.763771 0 0)
(0.757222 0 0)
(0.750573 0 0)
(0.743824 0 0)
(0.736975 0 0)
(0.730026 0 0)
(0.722977 0 0)
(0.715828 0 0)
(0.708578 0 0)
(0.701229 0 0)
(0.69378 0 0)
(0.686231 0 0)
(0.678582 0 0)
(0.670834 0 0)
(0.662986 0 0)
(0.655039 0 0)
(0.646993 0 0)
(0.638848 0 0)
(0.630605 0 0)
(0.622265 0 0)
(0.613826 0 0)
(0.605291 0 0)
(0.596659 0 0)
(0.587931 0 0)
(0.579107 0 0)
(0.570189 0 0)
(0.561176 0 0)
(0.552069 0 0)
(0.54287 0 0)
(0.533578 0 0)
(0.524195 0 0)
(0.514722 0 0)
(0.505159 0 0)
(0.495508 0 0)
(0.485769 0 0)
(0.475943 0 0)
(0.466032 0 0)
(0.456037 0 0)
(0.445959 0 0)
(0.435799 0 0)
(0.425558 0 0)
(0.415238 0 0)
(0.40484 0 0)
(0.394366 0 0)
(0.383816 0 0)
(0.373194 0 0)
(0.362499 0 0)
(0.351735 0 0)
(0.340901 0 0)
(0.330001 0 0)
(0.319036 0 0)
(0.308008 0 0)
(0.296918 0 0)
(0.285769 0 0)
(0.274562 0 0)
(0.2633 0 0)
(0.251984 0 0)
(0.240617 0 0)
(0.2292 0 0)
(0.217736 0 0)
(0.206227 0 0)
(0.194676 0 0)
(0.183084 0 0)
(0.171453 0 0)
(0.159787 0 0)
(0.148087 0 0)
(0.136356 0 0)
(0.124597 0 0)
(0.11281 0 0)
(0.101 0 0)
(0.0891686 0 0)
(0.077318 0 0)
(0.065451 0 0)
(0.0535699 0 0)
(0.0416774 0 0)
(0.0297759 0 0)
(0.0178681 0 0)
(0.00595647 0 0)
(-0.00595645 0 0)
(-0.0178681 0 0)
(-0.0297759 0 0)
(-0.0416773 0 0)
(-0.0535698 0 0)
(-0.0654509 0 0)
(-0.077318 0 0)
(-0.0891685 0 0)
(-0.101 0 0)
(-0.11281 0 0)
(-0.124596 0 0)
(-0.136356 0 0)
(-0.148087 0 0)
(-0.159787 0 0)
(-0.171453 0 0)
(-0.183083 0 0)
(-0.194675 0 0)
(-0.206227 0 0)
(-0.217736 0 0)
(-0.229199 0 0)
(-0.240616 0 0)
(-0.251983 0 0)
(-0.263299 0 0)
(-0.274561 0 0)
(-0.285768 0 0)
(-0.296917 0 0)
(-0.308007 0 0)
(-0.319035 0 0)
(-0.33 0 0)
(-0.3409 0 0)
(-0.351733 0 0)
(-0.362498 0 0)
(-0.373192 0 0)
(-0.383815 0 0)
(-0.394364 0 0)
(-0.404839 0 0)
(-0.415236 0 0)
(-0.425556 0 0)
(-0.435797 0 0)
(-0.445957 0 0)
(-0.456036 0 0)
(-0.466031 0 0)
(-0.475942 0 0)
(-0.485767 0 0)
(-0.495506 0 0)
(-0.505157 0 0)
(-0.51472 0 0)
(-0.524193 0 0)
(-0.533576 0 0)
(-0.542868 0 0)
(-0.552067 0 0)
(-0.561174 0 0)
(-0.570186 0 0)
(-0.579105 0 0)
(-0.587929 0 0)
(-0.596657 0 0)
(-0.605289 0 0)
(-0.613824 0 0)
(-0.622262 0 0)
(-0.630603 0 0)
(-0.638846 0 0)
(-0.646991 0 0)
(-0.655036 0 0)
(-0.662983 0 0)
(-0.670831 0 0)
(-0.67858 0 0)
(-0.686229 0 0)
(-0.693778 0 0)
(-0.701227 0 0)
(-0.708576 0 0)
(-0.715825 0 0)
(-0.722974 0 0)
(-0.730024 0 0)
(-0.736973 0 0)
(-0.743822 0 0)
(-0.750571 0 0)
(-0.75722 0 0)
(-0.763769 0 0)
(-0.770219 0 0)
(-0.77657 0 0)
(-0.782821 0 0)
(-0.788973 0 0)
(-0.795026 0 0)
(-0.800981 0 0)
(-0.806837 0 0)
(-0.812596 0 0)
(-0.818256 0 0)
(-0.82382 0 0)
(-0.829286 0 0)
(-0.834655 0 0)
(-0.839928 0 0)
(-0.845105 0 0)
(-0.850186 0 0)
(-0.855172 0 0)
(-0.860063 0 0)
(-0.86486 0 0)
(-0.869563 0 0)
(-0.874172 0 0)
(-0.878688 0 0)
(-0.883111 0 0)
(-0.887443 0 0)
(-0.891682 0 0)
(-0.89583 0 0)
(-0.899888 0 0)
(-0.903855 0 0)
(-0.907733 0 0)
(-0.911521 0 0)
(-0.915221 0 0)
(-0.918833 0 0)
(-0.922356 0 0)
(-0.925793 0 0)
(-0.929143 0 0)
(-0.932407 0 0)
(-0.935586 0 0)
(-0.938679 0 0)
(-0.941688 0 0)
(-0.944613 0 0)
(-0.947455 0 0)
(-0.950214 0 0)
(-0.952891 0 0)
(-0.955486 0 0)
(-0.958 0 0)
(-0.960433 0 0)
(-0.962787 0 0)
(-0.965061 0 0)
(-0.967256 0 0)
(-0.969373 0 0)
(-0.971411 0 0)
(-0.973373 0 0)
(-0.975258 0 0)
(-0.977067 0 0)
(-0.978801 0 0)
(-0.980459 0 0)
(-0.982043 0 0)
(-0.983554 0 0)
(-0.98499 0 0)
(-0.986355 0 0)
(-0.987646 0 0)
(-0.988867 0 0)
(-0.990016 0 0)
(-0.991094 0 0)
(-0.992103 0 0)
(-0.993042 0 0)
(-0.993912 0 0)
(-0.994713 0 0)
(-0.995447 0 0)
(-0.996114 0 0)
(-0.996713 0 0)
(-0.997246 0 0)
(-0.997714 0 0)
(-0.998116 0 0)
(-0.998454 0 0)
(-0.998727 0 0)
(-0.998937 0 0)
(-0.999083 0 0)
(-0.999167 0 0)
(-0.999189 0 0)
(-0.999148 0 0)
(-0.999047 0 0)
(-0.998885 0 0)
(-0.998663 0 0)
(-0.998381 0 0)
(-0.99804 0 0)
(-0.997641 0 0)
(-0.997183 0 0)
(-0.996667 0 0)
(-0.996094 0 0)
(-0.995464 0 0)
(-0.994778 0 0)
(-0.994036 0 0)
(-0.993239 0 0)
(-0.992386 0 0)
(-0.991479 0 0)
(-0.990518 0 0)
(-0.989504 0 0)
(-0.988436 0 0)
(-0.987316 0 0)
(-0.986143 0 0)
(-0.984919 0 0)
(-0.983643 0 0)
(-0.982316 0 0)
(-0.980939 0 0)
(-0.979511 0 0)
(-0.978034 0 0)
(-0.976508 0 0)
(-0.974933 0 0)
(-0.973309 0 0)
(-0.971637 0 0)
(-0.969918 0 0)
(-0.968151 0 0)
(-0.966338 0 0)
(-0.964478 0 0)
(-0.962573 0 0)
(-0.960621 0 0)
(-0.958625 0 0)
(-0.956583 0 0)
(-0.954497 0 0)
(-0.952367 0 0)
(-0.950194 0 0)
(-0.947977 0 0)
(-0.945717 0 0)
(-0.943414 0 0)
(-0.941069 0 0)
(-0.938683 0 0)
(-0.936255 0 0)
(-0.933785 0 0)
(-0.931275 0 0)
(-0.928725 0 0)
(-0.926134 0 0)
(-0.923504 0 0)
(-0.920834 0 0)
(-0.918126 0 0)
(-0.915378 0 0)
(-0.912593 0 0)
(-0.909769 0 0)
(-0.906907 0 0)
(-0.904009 0 0)
(-0.901073 0 0)
(-0.8981 0 0)
(-0.895091 0 0)
(-0.892046 0 0)
(-0.888965 0 0)
(-0.885849 0 0)
(-0.882698 0 0)
(-0.879512 0 0)
(-0.876291 0 0)
(-0.873036 0 0)
(-0.869748 0 0)
(-0.866425 0 0)
(-0.86307 0 0)
(-0.859681 0 0)
(-0.85626 0 0)
(-0.852806 0 0)
(-0.849321 0 0)
(-0.845803 0 0)
(-0.842254 0 0)
(-0.838674 0 0)
(-0.835063 0 0)
(-0.831421 0 0)
(-0.827748 0 0)
(-0.824046 0 0)
(-0.820314 0 0)
(-0.816552 0 0)
(-0.81276 0 0)
(-0.80894 0 0)
(-0.805091 0 0)
(-0.801214 0 0)
(-0.797308 0 0)
(-0.793374 0 0)
(-0.789413 0 0)
(-0.785424 0 0)
(-0.781408 0 0)
(-0.777365 0 0)
(-0.773296 0 0)
(-0.7692 0 0)
(-0.765077 0 0)
(-0.760929 0 0)
(-0.756755 0 0)
(-0.752556 0 0)
(-0.748331 0 0)
(-0.744082 0 0)
(-0.739808 0 0)
(-0.735509 0 0)
(-0.731186 0 0)
(-0.72684 0 0)
(-0.722469 0 0)
(-0.718075 0 0)
(-0.713657 0 0)
(-0.709217 0 0)
(-0.704753 0 0)
(-0.700267 0 0)
(-0.695759 0 0)
(-0.691229 0 0)
(-0.686676 0 0)
(-0.682102 0 0)
(-0.677506 0 0)
(-0.672889 0 0)
(-0.668251 0 0)
(-0.663593 0 0)
(-0.658913 0 0)
(-0.654213 0 0)
(-0.649493 0 0)
(-0.644753 0 0)
(-0.639994 0 0)
(-0.635214 0 0)
(-0.630415 0 0)
(-0.625598 0 0)
(-0.620761 0 0)
(-0.615905 0 0)
(-0.611031 0 0)
(-0.606139 0 0)
(-0.601228 0 0)
(-0.5963 0 0)
(-0.591354 0 0)
(-0.58639 0 0)
(-0.581409 0 0)
(-0.576411 0 0)
(-0.571396 0 0)
(-0.566364 0 0)
(-0.561316 0 0)
(-0.556251 0 0)
(-0.55117 0 0)
(-0.546073 0 0)
(-0.540961 0 0)
(-0.535832 0 0)
(-0.530689 0 0)
(-0.52553 0 0)
(-0.520356 0 0)
(-0.515167 0 0)
(-0.509964 0 0)
(-0.504746 0 0)
(-0.499514 0 0)
(-0.494268 0 0)
(-0.489007 0 0)
(-0.483733 0 0)
(-0.478446 0 0)
(-0.473145 0 0)
(-0.467831 0 0)
(-0.462504 0 0)
(-0.457164 0 0)
(-0.451811 0 0)
(-0.446446 0 0)
(-0.441068 0 0)
(-0.435678 0 0)
(-0.430277 0 0)
(-0.424863 0 0)
(-0.419438 0 0)
(-0.414001 0 0)
(-0.408553 0 0)
(-0.403094 0 0)
(-0.397624 0 0)
(-0.392144 0 0)
(-0.386652 0 0)
(-0.38115 0 0)
(-0.375638 0 0)
(-0.370116 0 0)
(-0.364584 0 0)
(-0.359042 0 0)
(-0.35349 0 0)
(-0.347929 0 0)
(-0.342358 0 0)
(-0.336779 0 0)
(-0.33119 0 0)
(-0.325593 0 0)
(-0.319987 0 0)
(-0.314372 0 0)
(-0.30875 0 0)
(-0.303119 0 0)
(-0.29748 0 0)
(-0.291833 0 0)
(-0.286178 0 0)
(-0.280516 0 0)
(-0.274847 0 0)
(-0.26917 0 0)
(-0.263487 0 0)
(-0.257796 0 0)
(-0.252099 0 0)
(-0.246395 0 0)
(-0.240685 0 0)
(-0.234968 0 0)
(-0.229246 0 0)
(-0.223517 0 0)
(-0.217783 0 0)
(-0.212043 0 0)
(-0.206297 0 0)
(-0.200546 0 0)
(-0.19479 0 0)
(-0.189029 0 0)
(-0.183263 0 0)
(-0.177492 0 0)
(-0.171717 0 0)
(-0.165937 0 0)
(-0.160153 0 0)
(-0.154365 0 0)
(-0.148573 0 0)
(-0.142777 0 0)
(-0.136977 0 0)
(-0.131174 0 0)
(-0.125368 0 0)
(-0.119558 0 0)
(-0.113745 0 0)
(-0.10793 0 0)
(-0.102111 0 0)
(-0.0962904 0 0)
(-0.090467 0 0)
(-0.0846412 0 0)
(-0.0788133 0 0)
(-0.0729833 0 0)
(-0.0671515 0 0)
(-0.061318 0 0)
(-0.0554829 0 0)
(-0.0496464 0 0)
(-0.0438086 0 0)
(-0.0379697 0 0)
(-0.0321299 0 0)
(-0.0262892 0 0)
(-0.0204478 0 0)
(-0.014606 0 0)
(-0.00876373 0 0)
(-0.00292127 0 0)
)
;

boundaryField
{
    left
    {
        type            fixedValue;
        value           uniform (0 0 0);
    }
    right
    {
        type            fixedValue;
        value           uniform (0 0 0);
    }
    frontBackUpDown
    {
        type            empty;
    }
}


// ************************************************************************* //
