/*--------------------------------*- C++ -*----------------------------------*\
| =========                 |                                                 |
| \\      /  F ield         | OpenFOAM: The Open Source CFD Toolbox           |
|  \\    /   O peration     | Version:  2412                                  |
|   \\  /    A nd           | Website:  www.openfoam.com                      |
|    \\/     M anipulation  |                                                 |
\*---------------------------------------------------------------------------*/
FoamFile
{
    version     2.0;
    format      ascii;
    arch        "LSB;label=32;scalar=64";
    class       volVectorField;
    location    "0.11";
    object      U_0_0;
}
// * * * * * * * * * * * * * * * * * * * * * * * * * * * * * * * * * * * * * //

dimensions      [0 1 -1 0 0 0 0];

internalField   nonuniform List<vector> 
800
(
(0.00292462 0 0)
(0.00877392 0 0)
(0.014623 0 0)
(0.0204717 0 0)
(0.0263199 0 0)
(0.0321674 0 0)
(0.0380141 0 0)
(0.0438598 0 0)
(0.0497044 0 0)
(0.0555477 0 0)
(0.0613896 0 0)
(0.0672299 0 0)
(0.0730686 0 0)
(0.0789053 0 0)
(0.08474 0 0)
(0.0905725 0 0)
(0.0964027 0 0)
(0.10223 0 0)
(0.108056 0 0)
(0.113878 0 0)
(0.119697 0 0)
(0.125514 0 0)
(0.131327 0 0)
(0.137137 0 0)
(0.142943 0 0)
(0.148745 0 0)
(0.154544 0 0)
(0.160339 0 0)
(0.166129 0 0)
(0.171916 0 0)
(0.177697 0 0)
(0.183475 0 0)
(0.189247 0 0)
(0.195015 0 0)
(0.200777 0 0)
(0.206535 0 0)
(0.212287 0 0)
(0.218033 0 0)
(0.223774 0 0)
(0.229509 0 0)
(0.235238 0 0)
(0.24096 0 0)
(0.246677 0 0)
(0.252387 0 0)
(0.25809 0 0)
(0.263787 0 0)
(0.269477 0 0)
(0.27516 0 0)
(0.280835 0 0)
(0.286503 0 0)
(0.292163 0 0)
(0.297816 0 0)
(0.303461 0 0)
(0.309098 0 0)
(0.314726 0 0)
(0.320347 0 0)
(0.325958 0 0)
(0.331562 0 0)
(0.337156 0 0)
(0.342741 0 0)
(0.348317 0 0)
(0.353884 0 0)
(0.359441 0 0)
(0.364988 0 0)
(0.370526 0 0)
(0.376054 0 0)
(0.381571 0 0)
(0.387078 0 0)
(0.392575 0 0)
(0.398061 0 0)
(0.403536 0 0)
(0.409 0 0)
(0.414453 0 0)
(0.419895 0 0)
(0.425325 0 0)
(0.430743 0 0)
(0.43615 0 0)
(0.441544 0 0)
(0.446927 0 0)
(0.452296 0 0)
(0.457654 0 0)
(0.462998 0 0)
(0.46833 0 0)
(0.473649 0 0)
(0.478954 0 0)
(0.484246 0 0)
(0.489524 0 0)
(0.494788 0 0)
(0.500039 0 0)
(0.505275 0 0)
(0.510497 0 0)
(0.515704 0 0)
(0.520897 0 0)
(0.526075 0 0)
(0.531237 0 0)
(0.536384 0 0)
(0.541516 0 0)
(0.546632 0 0)
(0.551733 0 0)
(0.556817 0 0)
(0.561885 0 0)
(0.566937 0 0)
(0.571972 0 0)
(0.57699 0 0)
(0.581991 0 0)
(0.586975 0 0)
(0.591942 0 0)
(0.596891 0 0)
(0.601822 0 0)
(0.606735 0 0)
(0.61163 0 0)
(0.616506 0 0)
(0.621364 0 0)
(0.626204 0 0)
(0.631024 0 0)
(0.635825 0 0)
(0.640606 0 0)
(0.645368 0 0)
(0.65011 0 0)
(0.654832 0 0)
(0.659533 0 0)
(0.664214 0 0)
(0.668875 0 0)
(0.673514 0 0)
(0.678133 0 0)
(0.68273 0 0)
(0.687305 0 0)
(0.691859 0 0)
(0.69639 0 0)
(0.700899 0 0)
(0.705386 0 0)
(0.70985 0 0)
(0.714292 0 0)
(0.71871 0 0)
(0.723104 0 0)
(0.727475 0 0)
(0.731822 0 0)
(0.736146 0 0)
(0.740444 0 0)
(0.744718 0 0)
(0.748968 0 0)
(0.753192 0 0)
(0.757391 0 0)
(0.761565 0 0)
(0.765712 0 0)
(0.769834 0 0)
(0.773929 0 0)
(0.777998 0 0)
(0.78204 0 0)
(0.786055 0 0)
(0.790043 0 0)
(0.794003 0 0)
(0.797935 0 0)
(0.80184 0 0)
(0.805716 0 0)
(0.809563 0 0)
(0.813381 0 0)
(0.817171 0 0)
(0.82093 0 0)
(0.824661 0 0)
(0.828361 0 0)
(0.832031 0 0)
(0.83567 0 0)
(0.839279 0 0)
(0.842857 0 0)
(0.846403 0 0)
(0.849918 0 0)
(0.8534 0 0)
(0.856851 0 0)
(0.860269 0 0)
(0.863654 0 0)
(0.867006 0 0)
(0.870325 0 0)
(0.87361 0 0)
(0.876861 0 0)
(0.880077 0 0)
(0.883259 0 0)
(0.886406 0 0)
(0.889518 0 0)
(0.892595 0 0)
(0.895635 0 0)
(0.898639 0 0)
(0.901607 0 0)
(0.904538 0 0)
(0.907432 0 0)
(0.910288 0 0)
(0.913107 0 0)
(0.915887 0 0)
(0.918629 0 0)
(0.921332 0 0)
(0.923996 0 0)
(0.92662 0 0)
(0.929204 0 0)
(0.931749 0 0)
(0.934252 0 0)
(0.936715 0 0)
(0.939137 0 0)
(0.941517 0 0)
(0.943855 0 0)
(0.94615 0 0)
(0.948403 0 0)
(0.950613 0 0)
(0.952779 0 0)
(0.954902 0 0)
(0.95698 0 0)
(0.959014 0 0)
(0.961002 0 0)
(0.962946 0 0)
(0.964843 0 0)
(0.966695 0 0)
(0.9685 0 0)
(0.970258 0 0)
(0.971969 0 0)
(0.973632 0 0)
(0.975246 0 0)
(0.976813 0 0)
(0.97833 0 0)
(0.979798 0 0)
(0.981216 0 0)
(0.982584 0 0)
(0.983901 0 0)
(0.985167 0 0)
(0.986381 0 0)
(0.987544 0 0)
(0.988654 0 0)
(0.989712 0 0)
(0.990716 0 0)
(0.991667 0 0)
(0.992563 0 0)
(0.993405 0 0)
(0.994191 0 0)
(0.994922 0 0)
(0.995597 0 0)
(0.996216 0 0)
(0.996778 0 0)
(0.997282 0 0)
(0.997729 0 0)
(0.998117 0 0)
(0.998446 0 0)
(0.998716 0 0)
(0.998926 0 0)
(0.999076 0 0)
(0.999165 0 0)
(0.999193 0 0)
(0.999159 0 0)
(0.999063 0 0)
(0.998904 0 0)
(0.998682 0 0)
(0.998396 0 0)
(0.998045 0 0)
(0.99763 0 0)
(0.99715 0 0)
(0.996603 0 0)
(0.995991 0 0)
(0.995311 0 0)
(0.994564 0 0)
(0.993749 0 0)
(0.992865 0 0)
(0.991913 0 0)
(0.990891 0 0)
(0.989799 0 0)
(0.988636 0 0)
(0.987402 0 0)
(0.986096 0 0)
(0.984718 0 0)
(0.983268 0 0)
(0.981744 0 0)
(0.980146 0 0)
(0.978473 0 0)
(0.976726 0 0)
(0.974903 0 0)
(0.973003 0 0)
(0.971028 0 0)
(0.968974 0 0)
(0.966844 0 0)
(0.964634 0 0)
(0.962346 0 0)
(0.959979 0 0)
(0.957531 0 0)
(0.955003 0 0)
(0.952394 0 0)
(0.949703 0 0)
(0.94693 0 0)
(0.944075 0 0)
(0.941136 0 0)
(0.938113 0 0)
(0.935005 0 0)
(0.931813 0 0)
(0.928535 0 0)
(0.925172 0 0)
(0.921722 0 0)
(0.918184 0 0)
(0.914559 0 0)
(0.910846 0 0)
(0.907045 0 0)
(0.903154 0 0)
(0.899174 0 0)
(0.895104 0 0)
(0.890943 0 0)
(0.886691 0 0)
(0.882347 0 0)
(0.877911 0 0)
(0.873383 0 0)
(0.868762 0 0)
(0.864048 0 0)
(0.85924 0 0)
(0.854337 0 0)
(0.84934 0 0)
(0.844248 0 0)
(0.839061 0 0)
(0.833777 0 0)
(0.828398 0 0)
(0.822922 0 0)
(0.817349 0 0)
(0.811679 0 0)
(0.805912 0 0)
(0.800047 0 0)
(0.794083 0 0)
(0.788022 0 0)
(0.781862 0 0)
(0.775603 0 0)
(0.769246 0 0)
(0.762789 0 0)
(0.756233 0 0)
(0.749578 0 0)
(0.742823 0 0)
(0.735969 0 0)
(0.729015 0 0)
(0.721961 0 0)
(0.714808 0 0)
(0.707555 0 0)
(0.700203 0 0)
(0.692751 0 0)
(0.6852 0 0)
(0.677549 0 0)
(0.669799 0 0)
(0.66195 0 0)
(0.654003 0 0)
(0.645957 0 0)
(0.637814 0 0)
(0.629572 0 0)
(0.621233 0 0)
(0.612797 0 0)
(0.604264 0 0)
(0.595636 0 0)
(0.586911 0 0)
(0.578092 0 0)
(0.569179 0 0)
(0.560171 0 0)
(0.551071 0 0)
(0.541878 0 0)
(0.532594 0 0)
(0.523219 0 0)
(0.513755 0 0)
(0.504201 0 0)
(0.494559 0 0)
(0.484831 0 0)
(0.475016 0 0)
(0.465117 0 0)
(0.455134 0 0)
(0.445068 0 0)
(0.434921 0 0)
(0.424695 0 0)
(0.414389 0 0)
(0.404006 0 0)
(0.393548 0 0)
(0.383015 0 0)
(0.372409 0 0)
(0.361732 0 0)
(0.350985 0 0)
(0.340171 0 0)
(0.32929 0 0)
(0.318344 0 0)
(0.307336 0 0)
(0.296267 0 0)
(0.285139 0 0)
(0.273954 0 0)
(0.262714 0 0)
(0.25142 0 0)
(0.240076 0 0)
(0.228683 0 0)
(0.217243 0 0)
(0.205759 0 0)
(0.194232 0 0)
(0.182665 0 0)
(0.17106 0 0)
(0.159419 0 0)
(0.147745 0 0)
(0.136041 0 0)
(0.124307 0 0)
(0.112548 0 0)
(0.100765 0 0)
(0.0889606 0 0)
(0.0771373 0 0)
(0.0652978 0 0)
(0.0534444 0 0)
(0.0415797 0 0)
(0.0297061 0 0)
(0.0178262 0 0)
(0.00594249 0 0)
(-0.00594247 0 0)
(-0.0178262 0 0)
(-0.029706 0 0)
(-0.0415796 0 0)
(-0.0534443 0 0)
(-0.0652977 0 0)
(-0.0771373 0 0)
(-0.0889605 0 0)
(-0.100765 0 0)
(-0.112548 0 0)
(-0.124307 0 0)
(-0.136041 0 0)
(-0.147745 0 0)
(-0.159419 0 0)
(-0.171059 0 0)
(-0.182664 0 0)
(-0.194231 0 0)
(-0.205758 0 0)
(-0.217243 0 0)
(-0.228683 0 0)
(-0.240076 0 0)
(-0.25142 0 0)
(-0.262713 0 0)
(-0.273953 0 0)
(-0.285138 0 0)
(-0.296266 0 0)
(-0.307335 0 0)
(-0.318343 0 0)
(-0.329289 0 0)
(-0.340169 0 0)
(-0.350984 0 0)
(-0.361731 0 0)
(-0.372408 0 0)
(-0.383013 0 0)
(-0.393546 0 0)
(-0.404005 0 0)
(-0.414388 0 0)
(-0.424693 0 0)
(-0.43492 0 0)
(-0.445067 0 0)
(-0.455132 0 0)
(-0.465115 0 0)
(-0.475014 0 0)
(-0.484829 0 0)
(-0.494558 0 0)
(-0.504199 0 0)
(-0.513753 0 0)
(-0.523217 0 0)
(-0.532592 0 0)
(-0.541876 0 0)
(-0.551069 0 0)
(-0.560169 0 0)
(-0.569177 0 0)
(-0.57809 0 0)
(-0.586909 0 0)
(-0.595633 0 0)
(-0.604262 0 0)
(-0.612795 0 0)
(-0.621231 0 0)
(-0.62957 0 0)
(-0.637811 0 0)
(-0.645955 0 0)
(-0.654001 0 0)
(-0.661948 0 0)
(-0.669797 0 0)
(-0.677547 0 0)
(-0.685197 0 0)
(-0.692749 0 0)
(-0.700201 0 0)
(-0.707553 0 0)
(-0.714806 0 0)
(-0.721959 0 0)
(-0.729013 0 0)
(-0.735967 0 0)
(-0.742821 0 0)
(-0.749576 0 0)
(-0.756231 0 0)
(-0.762787 0 0)
(-0.769244 0 0)
(-0.775601 0 0)
(-0.78186 0 0)
(-0.78802 0 0)
(-0.794081 0 0)
(-0.800045 0 0)
(-0.80591 0 0)
(-0.811677 0 0)
(-0.817347 0 0)
(-0.82292 0 0)
(-0.828396 0 0)
(-0.833776 0 0)
(-0.839059 0 0)
(-0.844247 0 0)
(-0.849339 0 0)
(-0.854336 0 0)
(-0.859238 0 0)
(-0.864046 0 0)
(-0.868761 0 0)
(-0.873382 0 0)
(-0.87791 0 0)
(-0.882346 0 0)
(-0.886689 0 0)
(-0.890941 0 0)
(-0.895102 0 0)
(-0.899173 0 0)
(-0.903153 0 0)
(-0.907044 0 0)
(-0.910845 0 0)
(-0.914558 0 0)
(-0.918183 0 0)
(-0.921721 0 0)
(-0.925171 0 0)
(-0.928535 0 0)
(-0.931812 0 0)
(-0.935005 0 0)
(-0.938112 0 0)
(-0.941135 0 0)
(-0.944074 0 0)
(-0.94693 0 0)
(-0.949703 0 0)
(-0.952394 0 0)
(-0.955003 0 0)
(-0.957531 0 0)
(-0.959978 0 0)
(-0.962346 0 0)
(-0.964634 0 0)
(-0.966843 0 0)
(-0.968974 0 0)
(-0.971027 0 0)
(-0.973003 0 0)
(-0.974902 0 0)
(-0.976725 0 0)
(-0.978473 0 0)
(-0.980145 0 0)
(-0.981743 0 0)
(-0.983267 0 0)
(-0.984718 0 0)
(-0.986096 0 0)
(-0.987402 0 0)
(-0.988636 0 0)
(-0.989799 0 0)
(-0.990891 0 0)
(-0.991913 0 0)
(-0.992865 0 0)
(-0.993749 0 0)
(-0.994564 0 0)
(-0.995311 0 0)
(-0.99599 0 0)
(-0.996603 0 0)
(-0.99715 0 0)
(-0.99763 0 0)
(-0.998045 0 0)
(-0.998396 0 0)
(-0.998682 0 0)
(-0.998904 0 0)
(-0.999063 0 0)
(-0.999159 0 0)
(-0.999193 0 0)
(-0.999165 0 0)
(-0.999076 0 0)
(-0.998926 0 0)
(-0.998716 0 0)
(-0.998446 0 0)
(-0.998117 0 0)
(-0.997728 0 0)
(-0.997282 0 0)
(-0.996778 0 0)
(-0.996216 0 0)
(-0.995597 0 0)
(-0.994922 0 0)
(-0.994191 0 0)
(-0.993404 0 0)
(-0.992563 0 0)
(-0.991666 0 0)
(-0.990716 0 0)
(-0.989712 0 0)
(-0.988654 0 0)
(-0.987544 0 0)
(-0.986381 0 0)
(-0.985167 0 0)
(-0.983901 0 0)
(-0.982583 0 0)
(-0.981216 0 0)
(-0.979798 0 0)
(-0.97833 0 0)
(-0.976812 0 0)
(-0.975246 0 0)
(-0.973631 0 0)
(-0.971968 0 0)
(-0.970258 0 0)
(-0.9685 0 0)
(-0.966695 0 0)
(-0.964843 0 0)
(-0.962945 0 0)
(-0.961002 0 0)
(-0.959013 0 0)
(-0.95698 0 0)
(-0.954901 0 0)
(-0.952779 0 0)
(-0.950612 0 0)
(-0.948403 0 0)
(-0.94615 0 0)
(-0.943854 0 0)
(-0.941516 0 0)
(-0.939136 0 0)
(-0.936715 0 0)
(-0.934252 0 0)
(-0.931748 0 0)
(-0.929204 0 0)
(-0.926619 0 0)
(-0.923995 0 0)
(-0.921331 0 0)
(-0.918628 0 0)
(-0.915886 0 0)
(-0.913106 0 0)
(-0.910287 0 0)
(-0.907431 0 0)
(-0.904537 0 0)
(-0.901606 0 0)
(-0.898639 0 0)
(-0.895634 0 0)
(-0.892594 0 0)
(-0.889518 0 0)
(-0.886406 0 0)
(-0.883259 0 0)
(-0.880077 0 0)
(-0.87686 0 0)
(-0.873609 0 0)
(-0.870324 0 0)
(-0.867005 0 0)
(-0.863653 0 0)
(-0.860268 0 0)
(-0.85685 0 0)
(-0.853399 0 0)
(-0.849917 0 0)
(-0.846402 0 0)
(-0.842856 0 0)
(-0.839278 0 0)
(-0.835669 0 0)
(-0.83203 0 0)
(-0.82836 0 0)
(-0.82466 0 0)
(-0.820929 0 0)
(-0.81717 0 0)
(-0.81338 0 0)
(-0.809562 0 0)
(-0.805715 0 0)
(-0.801839 0 0)
(-0.797934 0 0)
(-0.794002 0 0)
(-0.790042 0 0)
(-0.786054 0 0)
(-0.782039 0 0)
(-0.777997 0 0)
(-0.773928 0 0)
(-0.769833 0 0)
(-0.765711 0 0)
(-0.761563 0 0)
(-0.75739 0 0)
(-0.753191 0 0)
(-0.748967 0 0)
(-0.744717 0 0)
(-0.740443 0 0)
(-0.736144 0 0)
(-0.731821 0 0)
(-0.727474 0 0)
(-0.723103 0 0)
(-0.718709 0 0)
(-0.714291 0 0)
(-0.709849 0 0)
(-0.705385 0 0)
(-0.700898 0 0)
(-0.696389 0 0)
(-0.691857 0 0)
(-0.687304 0 0)
(-0.682728 0 0)
(-0.678132 0 0)
(-0.673513 0 0)
(-0.668874 0 0)
(-0.664213 0 0)
(-0.659532 0 0)
(-0.654831 0 0)
(-0.650109 0 0)
(-0.645367 0 0)
(-0.640605 0 0)
(-0.635824 0 0)
(-0.631023 0 0)
(-0.626203 0 0)
(-0.621363 0 0)
(-0.616506 0 0)
(-0.611629 0 0)
(-0.606734 0 0)
(-0.601821 0 0)
(-0.59689 0 0)
(-0.591941 0 0)
(-0.586974 0 0)
(-0.58199 0 0)
(-0.576989 0 0)
(-0.571971 0 0)
(-0.566936 0 0)
(-0.561884 0 0)
(-0.556816 0 0)
(-0.551732 0 0)
(-0.546632 0 0)
(-0.541515 0 0)
(-0.536384 0 0)
(-0.531236 0 0)
(-0.526074 0 0)
(-0.520896 0 0)
(-0.515703 0 0)
(-0.510496 0 0)
(-0.505274 0 0)
(-0.500038 0 0)
(-0.494788 0 0)
(-0.489523 0 0)
(-0.484245 0 0)
(-0.478953 0 0)
(-0.473648 0 0)
(-0.468329 0 0)
(-0.462998 0 0)
(-0.457653 0 0)
(-0.452296 0 0)
(-0.446926 0 0)
(-0.441544 0 0)
(-0.436149 0 0)
(-0.430743 0 0)
(-0.425324 0 0)
(-0.419894 0 0)
(-0.414453 0 0)
(-0.409 0 0)
(-0.403536 0 0)
(-0.39806 0 0)
(-0.392574 0 0)
(-0.387078 0 0)
(-0.381571 0 0)
(-0.376053 0 0)
(-0.370526 0 0)
(-0.364988 0 0)
(-0.35944 0 0)
(-0.353883 0 0)
(-0.348317 0 0)
(-0.342741 0 0)
(-0.337155 0 0)
(-0.331561 0 0)
(-0.325958 0 0)
(-0.320346 0 0)
(-0.314726 0 0)
(-0.309098 0 0)
(-0.303461 0 0)
(-0.297816 0 0)
(-0.292163 0 0)
(-0.286503 0 0)
(-0.280835 0 0)
(-0.275159 0 0)
(-0.269477 0 0)
(-0.263787 0 0)
(-0.25809 0 0)
(-0.252387 0 0)
(-0.246677 0 0)
(-0.24096 0 0)
(-0.235237 0 0)
(-0.229508 0 0)
(-0.223774 0 0)
(-0.218033 0 0)
(-0.212286 0 0)
(-0.206534 0 0)
(-0.200777 0 0)
(-0.195015 0 0)
(-0.189247 0 0)
(-0.183475 0 0)
(-0.177697 0 0)
(-0.171915 0 0)
(-0.166129 0 0)
(-0.160339 0 0)
(-0.154544 0 0)
(-0.148745 0 0)
(-0.142943 0 0)
(-0.137136 0 0)
(-0.131327 0 0)
(-0.125514 0 0)
(-0.119697 0 0)
(-0.113878 0 0)
(-0.108056 0 0)
(-0.10223 0 0)
(-0.0964027 0 0)
(-0.0905725 0 0)
(-0.08474 0 0)
(-0.0789053 0 0)
(-0.0730685 0 0)
(-0.0672299 0 0)
(-0.0613896 0 0)
(-0.0555477 0 0)
(-0.0497044 0 0)
(-0.0438598 0 0)
(-0.0380141 0 0)
(-0.0321674 0 0)
(-0.0263199 0 0)
(-0.0204718 0 0)
(-0.0146231 0 0)
(-0.00877399 0 0)
(-0.00292469 0 0)
)
;

boundaryField
{
    left
    {
        type            fixedValue;
        value           uniform (0 0 0);
    }
    right
    {
        type            fixedValue;
        value           uniform (0 0 0);
    }
    frontBackUpDown
    {
        type            empty;
    }
}


// ************************************************************************* //
