/*--------------------------------*- C++ -*----------------------------------*\
| =========                 |                                                 |
| \\      /  F ield         | OpenFOAM: The Open Source CFD Toolbox           |
|  \\    /   O peration     | Version:  2412                                  |
|   \\  /    A nd           | Website:  www.openfoam.com                      |
|    \\/     M anipulation  |                                                 |
\*---------------------------------------------------------------------------*/
FoamFile
{
    version     2.0;
    format      ascii;
    arch        "LSB;label=32;scalar=64";
    class       volVectorField;
    location    "0.11";
    object      U_0_0_0;
}
// * * * * * * * * * * * * * * * * * * * * * * * * * * * * * * * * * * * * * //

dimensions      [0 1 -1 0 0 0 0];

internalField   nonuniform List<vector> 
800
(
(0.00292805 0 0)
(0.00878419 0 0)
(0.0146401 0 0)
(0.0204957 0 0)
(0.0263507 0 0)
(0.0322051 0 0)
(0.0380586 0 0)
(0.0439111 0 0)
(0.0497626 0 0)
(0.0556127 0 0)
(0.0614614 0 0)
(0.0673086 0 0)
(0.073154 0 0)
(0.0789975 0 0)
(0.084839 0 0)
(0.0906783 0 0)
(0.0965153 0 0)
(0.10235 0 0)
(0.108182 0 0)
(0.114011 0 0)
(0.119837 0 0)
(0.12566 0 0)
(0.13148 0 0)
(0.137296 0 0)
(0.143109 0 0)
(0.148918 0 0)
(0.154723 0 0)
(0.160525 0 0)
(0.166322 0 0)
(0.172115 0 0)
(0.177903 0 0)
(0.183687 0 0)
(0.189466 0 0)
(0.19524 0 0)
(0.201009 0 0)
(0.206773 0 0)
(0.212531 0 0)
(0.218284 0 0)
(0.224031 0 0)
(0.229772 0 0)
(0.235507 0 0)
(0.241236 0 0)
(0.246959 0 0)
(0.252675 0 0)
(0.258385 0 0)
(0.264088 0 0)
(0.269784 0 0)
(0.275472 0 0)
(0.281154 0 0)
(0.286828 0 0)
(0.292494 0 0)
(0.298153 0 0)
(0.303804 0 0)
(0.309447 0 0)
(0.315081 0 0)
(0.320707 0 0)
(0.326324 0 0)
(0.331933 0 0)
(0.337533 0 0)
(0.343124 0 0)
(0.348706 0 0)
(0.354278 0 0)
(0.35984 0 0)
(0.365393 0 0)
(0.370936 0 0)
(0.376469 0 0)
(0.381992 0 0)
(0.387505 0 0)
(0.393007 0 0)
(0.398498 0 0)
(0.403978 0 0)
(0.409447 0 0)
(0.414905 0 0)
(0.420352 0 0)
(0.425787 0 0)
(0.43121 0 0)
(0.436622 0 0)
(0.442021 0 0)
(0.447408 0 0)
(0.452782 0 0)
(0.458144 0 0)
(0.463493 0 0)
(0.46883 0 0)
(0.474153 0 0)
(0.479462 0 0)
(0.484758 0 0)
(0.490041 0 0)
(0.495309 0 0)
(0.500564 0 0)
(0.505804 0 0)
(0.51103 0 0)
(0.516241 0 0)
(0.521438 0 0)
(0.526619 0 0)
(0.531786 0 0)
(0.536937 0 0)
(0.542072 0 0)
(0.547192 0 0)
(0.552296 0 0)
(0.557383 0 0)
(0.562455 0 0)
(0.567509 0 0)
(0.572548 0 0)
(0.577569 0 0)
(0.582573 0 0)
(0.58756 0 0)
(0.59253 0 0)
(0.597481 0 0)
(0.602415 0 0)
(0.607331 0 0)
(0.612229 0 0)
(0.617108 0 0)
(0.621968 0 0)
(0.626809 0 0)
(0.631632 0 0)
(0.636435 0 0)
(0.641218 0 0)
(0.645982 0 0)
(0.650726 0 0)
(0.65545 0 0)
(0.660153 0 0)
(0.664836 0 0)
(0.669498 0 0)
(0.674139 0 0)
(0.678758 0 0)
(0.683357 0 0)
(0.687933 0 0)
(0.692488 0 0)
(0.697021 0 0)
(0.701531 0 0)
(0.706019 0 0)
(0.710484 0 0)
(0.714925 0 0)
(0.719344 0 0)
(0.723739 0 0)
(0.728111 0 0)
(0.732458 0 0)
(0.736781 0 0)
(0.74108 0 0)
(0.745354 0 0)
(0.749604 0 0)
(0.753828 0 0)
(0.758026 0 0)
(0.762199 0 0)
(0.766347 0 0)
(0.770468 0 0)
(0.774562 0 0)
(0.77863 0 0)
(0.782671 0 0)
(0.786685 0 0)
(0.790672 0 0)
(0.794631 0 0)
(0.798562 0 0)
(0.802465 0 0)
(0.806339 0 0)
(0.810185 0 0)
(0.814001 0 0)
(0.817789 0 0)
(0.821547 0 0)
(0.825275 0 0)
(0.828973 0 0)
(0.83264 0 0)
(0.836277 0 0)
(0.839884 0 0)
(0.843458 0 0)
(0.847002 0 0)
(0.850514 0 0)
(0.853993 0 0)
(0.857441 0 0)
(0.860855 0 0)
(0.864237 0 0)
(0.867586 0 0)
(0.870901 0 0)
(0.874182 0 0)
(0.877429 0 0)
(0.880642 0 0)
(0.88382 0 0)
(0.886963 0 0)
(0.89007 0 0)
(0.893142 0 0)
(0.896178 0 0)
(0.899177 0 0)
(0.90214 0 0)
(0.905066 0 0)
(0.907955 0 0)
(0.910806 0 0)
(0.913619 0 0)
(0.916394 0 0)
(0.91913 0 0)
(0.921828 0 0)
(0.924486 0 0)
(0.927104 0 0)
(0.929682 0 0)
(0.93222 0 0)
(0.934718 0 0)
(0.937174 0 0)
(0.939589 0 0)
(0.941962 0 0)
(0.944293 0 0)
(0.946582 0 0)
(0.948828 0 0)
(0.95103 0 0)
(0.953189 0 0)
(0.955304 0 0)
(0.957375 0 0)
(0.959401 0 0)
(0.961382 0 0)
(0.963317 0 0)
(0.965207 0 0)
(0.96705 0 0)
(0.968847 0 0)
(0.970596 0 0)
(0.972298 0 0)
(0.973952 0 0)
(0.975558 0 0)
(0.977115 0 0)
(0.978624 0 0)
(0.980082 0 0)
(0.981491 0 0)
(0.982849 0 0)
(0.984157 0 0)
(0.985413 0 0)
(0.986618 0 0)
(0.98777 0 0)
(0.988871 0 0)
(0.989918 0 0)
(0.990912 0 0)
(0.991852 0 0)
(0.992737 0 0)
(0.993568 0 0)
(0.994344 0 0)
(0.995064 0 0)
(0.995728 0 0)
(0.996336 0 0)
(0.996886 0 0)
(0.997379 0 0)
(0.997814 0 0)
(0.99819 0 0)
(0.998508 0 0)
(0.998766 0 0)
(0.998964 0 0)
(0.999102 0 0)
(0.999179 0 0)
(0.999195 0 0)
(0.999149 0 0)
(0.99904 0 0)
(0.998868 0 0)
(0.998633 0 0)
(0.998335 0 0)
(0.997972 0 0)
(0.997544 0 0)
(0.99705 0 0)
(0.996491 0 0)
(0.995865 0 0)
(0.995172 0 0)
(0.994412 0 0)
(0.993583 0 0)
(0.992686 0 0)
(0.99172 0 0)
(0.990685 0 0)
(0.989579 0 0)
(0.988402 0 0)
(0.987155 0 0)
(0.985835 0 0)
(0.984444 0 0)
(0.982979 0 0)
(0.981441 0 0)
(0.979829 0 0)
(0.978142 0 0)
(0.976381 0 0)
(0.974544 0 0)
(0.972631 0 0)
(0.970641 0 0)
(0.968573 0 0)
(0.966428 0 0)
(0.964205 0 0)
(0.961903 0 0)
(0.959521 0 0)
(0.95706 0 0)
(0.954518 0 0)
(0.951894 0 0)
(0.94919 0 0)
(0.946403 0 0)
(0.943533 0 0)
(0.94058 0 0)
(0.937543 0 0)
(0.934422 0 0)
(0.931216 0 0)
(0.927925 0 0)
(0.924547 0 0)
(0.921084 0 0)
(0.917533 0 0)
(0.913895 0 0)
(0.910169 0 0)
(0.906354 0 0)
(0.90245 0 0)
(0.898457 0 0)
(0.894374 0 0)
(0.8902 0 0)
(0.885936 0 0)
(0.88158 0 0)
(0.877132 0 0)
(0.872592 0 0)
(0.867959 0 0)
(0.863233 0 0)
(0.858413 0 0)
(0.8535 0 0)
(0.848492 0 0)
(0.843389 0 0)
(0.838191 0 0)
(0.832897 0 0)
(0.827508 0 0)
(0.822022 0 0)
(0.816439 0 0)
(0.81076 0 0)
(0.804984 0 0)
(0.79911 0 0)
(0.793138 0 0)
(0.787069 0 0)
(0.780901 0 0)
(0.774635 0 0)
(0.76827 0 0)
(0.761807 0 0)
(0.755245 0 0)
(0.748583 0 0)
(0.741823 0 0)
(0.734963 0 0)
(0.728005 0 0)
(0.720947 0 0)
(0.71379 0 0)
(0.706533 0 0)
(0.699178 0 0)
(0.691723 0 0)
(0.68417 0 0)
(0.676517 0 0)
(0.668766 0 0)
(0.660917 0 0)
(0.652969 0 0)
(0.644924 0 0)
(0.636781 0 0)
(0.62854 0 0)
(0.620203 0 0)
(0.611769 0 0)
(0.60324 0 0)
(0.594614 0 0)
(0.585894 0 0)
(0.57708 0 0)
(0.568171 0 0)
(0.559169 0 0)
(0.550075 0 0)
(0.54089 0 0)
(0.531613 0 0)
(0.522246 0 0)
(0.51279 0 0)
(0.503246 0 0)
(0.493614 0 0)
(0.483895 0 0)
(0.474092 0 0)
(0.464204 0 0)
(0.454233 0 0)
(0.44418 0 0)
(0.434047 0 0)
(0.423834 0 0)
(0.413543 0 0)
(0.403176 0 0)
(0.392733 0 0)
(0.382216 0 0)
(0.371627 0 0)
(0.360968 0 0)
(0.350239 0 0)
(0.339443 0 0)
(0.328581 0 0)
(0.317655 0 0)
(0.306667 0 0)
(0.295618 0 0)
(0.284512 0 0)
(0.273348 0 0)
(0.26213 0 0)
(0.250859 0 0)
(0.239538 0 0)
(0.228168 0 0)
(0.216752 0 0)
(0.205292 0 0)
(0.19379 0 0)
(0.182248 0 0)
(0.170668 0 0)
(0.159053 0 0)
(0.147405 0 0)
(0.135727 0 0)
(0.12402 0 0)
(0.112287 0 0)
(0.100531 0 0)
(0.0887534 0 0)
(0.0769575 0 0)
(0.0651453 0 0)
(0.0533195 0 0)
(0.0414824 0 0)
(0.0296365 0 0)
(0.0177844 0 0)
(0.00592857 0 0)
(-0.00592855 0 0)
(-0.0177844 0 0)
(-0.0296365 0 0)
(-0.0414824 0 0)
(-0.0533194 0 0)
(-0.0651453 0 0)
(-0.0769574 0 0)
(-0.0887533 0 0)
(-0.100531 0 0)
(-0.112287 0 0)
(-0.12402 0 0)
(-0.135726 0 0)
(-0.147405 0 0)
(-0.159053 0 0)
(-0.170668 0 0)
(-0.182247 0 0)
(-0.193789 0 0)
(-0.205292 0 0)
(-0.216752 0 0)
(-0.228168 0 0)
(-0.239537 0 0)
(-0.250859 0 0)
(-0.262129 0 0)
(-0.273347 0 0)
(-0.284511 0 0)
(-0.295618 0 0)
(-0.306666 0 0)
(-0.317654 0 0)
(-0.32858 0 0)
(-0.339442 0 0)
(-0.350238 0 0)
(-0.360966 0 0)
(-0.371626 0 0)
(-0.382215 0 0)
(-0.392731 0 0)
(-0.403174 0 0)
(-0.413542 0 0)
(-0.423833 0 0)
(-0.434045 0 0)
(-0.444179 0 0)
(-0.454232 0 0)
(-0.464202 0 0)
(-0.47409 0 0)
(-0.483894 0 0)
(-0.493612 0 0)
(-0.503244 0 0)
(-0.512788 0 0)
(-0.522244 0 0)
(-0.531611 0 0)
(-0.540888 0 0)
(-0.550073 0 0)
(-0.559167 0 0)
(-0.568169 0 0)
(-0.577077 0 0)
(-0.585892 0 0)
(-0.594612 0 0)
(-0.603237 0 0)
(-0.611767 0 0)
(-0.620201 0 0)
(-0.628538 0 0)
(-0.636778 0 0)
(-0.644921 0 0)
(-0.652967 0 0)
(-0.660915 0 0)
(-0.668764 0 0)
(-0.676515 0 0)
(-0.684167 0 0)
(-0.691721 0 0)
(-0.699175 0 0)
(-0.706531 0 0)
(-0.713787 0 0)
(-0.720945 0 0)
(-0.728003 0 0)
(-0.734961 0 0)
(-0.741821 0 0)
(-0.748581 0 0)
(-0.755242 0 0)
(-0.761805 0 0)
(-0.768268 0 0)
(-0.774633 0 0)
(-0.780899 0 0)
(-0.787067 0 0)
(-0.793136 0 0)
(-0.799108 0 0)
(-0.804982 0 0)
(-0.810758 0 0)
(-0.816438 0 0)
(-0.82202 0 0)
(-0.827506 0 0)
(-0.832895 0 0)
(-0.838189 0 0)
(-0.843387 0 0)
(-0.84849 0 0)
(-0.853498 0 0)
(-0.858412 0 0)
(-0.863232 0 0)
(-0.867958 0 0)
(-0.872591 0 0)
(-0.877131 0 0)
(-0.881578 0 0)
(-0.885934 0 0)
(-0.890199 0 0)
(-0.894373 0 0)
(-0.898456 0 0)
(-0.902449 0 0)
(-0.906353 0 0)
(-0.910167 0 0)
(-0.913894 0 0)
(-0.917532 0 0)
(-0.921083 0 0)
(-0.924546 0 0)
(-0.927924 0 0)
(-0.931215 0 0)
(-0.934421 0 0)
(-0.937542 0 0)
(-0.940579 0 0)
(-0.943532 0 0)
(-0.946402 0 0)
(-0.949189 0 0)
(-0.951894 0 0)
(-0.954517 0 0)
(-0.957059 0 0)
(-0.959521 0 0)
(-0.961903 0 0)
(-0.964205 0 0)
(-0.966428 0 0)
(-0.968573 0 0)
(-0.97064 0 0)
(-0.97263 0 0)
(-0.974543 0 0)
(-0.976381 0 0)
(-0.978142 0 0)
(-0.979829 0 0)
(-0.981441 0 0)
(-0.982979 0 0)
(-0.984443 0 0)
(-0.985835 0 0)
(-0.987155 0 0)
(-0.988402 0 0)
(-0.989579 0 0)
(-0.990685 0 0)
(-0.99172 0 0)
(-0.992686 0 0)
(-0.993583 0 0)
(-0.994412 0 0)
(-0.995172 0 0)
(-0.995865 0 0)
(-0.996491 0 0)
(-0.99705 0 0)
(-0.997543 0 0)
(-0.997972 0 0)
(-0.998335 0 0)
(-0.998633 0 0)
(-0.998868 0 0)
(-0.99904 0 0)
(-0.999148 0 0)
(-0.999195 0 0)
(-0.999179 0 0)
(-0.999102 0 0)
(-0.998964 0 0)
(-0.998766 0 0)
(-0.998508 0 0)
(-0.99819 0 0)
(-0.997814 0 0)
(-0.997379 0 0)
(-0.996886 0 0)
(-0.996336 0 0)
(-0.995728 0 0)
(-0.995064 0 0)
(-0.994344 0 0)
(-0.993568 0 0)
(-0.992737 0 0)
(-0.991852 0 0)
(-0.990912 0 0)
(-0.989918 0 0)
(-0.98887 0 0)
(-0.98777 0 0)
(-0.986618 0 0)
(-0.985413 0 0)
(-0.984157 0 0)
(-0.982849 0 0)
(-0.981491 0 0)
(-0.980082 0 0)
(-0.978623 0 0)
(-0.977115 0 0)
(-0.975558 0 0)
(-0.973952 0 0)
(-0.972298 0 0)
(-0.970596 0 0)
(-0.968846 0 0)
(-0.96705 0 0)
(-0.965206 0 0)
(-0.963317 0 0)
(-0.961381 0 0)
(-0.959401 0 0)
(-0.957375 0 0)
(-0.955304 0 0)
(-0.953189 0 0)
(-0.95103 0 0)
(-0.948827 0 0)
(-0.946582 0 0)
(-0.944293 0 0)
(-0.941962 0 0)
(-0.939589 0 0)
(-0.937174 0 0)
(-0.934717 0 0)
(-0.93222 0 0)
(-0.929682 0 0)
(-0.927103 0 0)
(-0.924485 0 0)
(-0.921827 0 0)
(-0.91913 0 0)
(-0.916393 0 0)
(-0.913618 0 0)
(-0.910805 0 0)
(-0.907954 0 0)
(-0.905066 0 0)
(-0.90214 0 0)
(-0.899177 0 0)
(-0.896177 0 0)
(-0.893141 0 0)
(-0.890069 0 0)
(-0.886962 0 0)
(-0.883819 0 0)
(-0.880641 0 0)
(-0.877428 0 0)
(-0.874181 0 0)
(-0.8709 0 0)
(-0.867585 0 0)
(-0.864236 0 0)
(-0.860854 0 0)
(-0.85744 0 0)
(-0.853992 0 0)
(-0.850513 0 0)
(-0.847001 0 0)
(-0.843458 0 0)
(-0.839883 0 0)
(-0.836276 0 0)
(-0.832639 0 0)
(-0.828972 0 0)
(-0.825274 0 0)
(-0.821546 0 0)
(-0.817788 0 0)
(-0.814 0 0)
(-0.810184 0 0)
(-0.806338 0 0)
(-0.802464 0 0)
(-0.798561 0 0)
(-0.79463 0 0)
(-0.790671 0 0)
(-0.786684 0 0)
(-0.78267 0 0)
(-0.778629 0 0)
(-0.774561 0 0)
(-0.770467 0 0)
(-0.766345 0 0)
(-0.762198 0 0)
(-0.758025 0 0)
(-0.753827 0 0)
(-0.749602 0 0)
(-0.745353 0 0)
(-0.741079 0 0)
(-0.73678 0 0)
(-0.732457 0 0)
(-0.728109 0 0)
(-0.723738 0 0)
(-0.719343 0 0)
(-0.714924 0 0)
(-0.710482 0 0)
(-0.706018 0 0)
(-0.70153 0 0)
(-0.69702 0 0)
(-0.692487 0 0)
(-0.687932 0 0)
(-0.683356 0 0)
(-0.678757 0 0)
(-0.674138 0 0)
(-0.669497 0 0)
(-0.664835 0 0)
(-0.660152 0 0)
(-0.655449 0 0)
(-0.650725 0 0)
(-0.645981 0 0)
(-0.641217 0 0)
(-0.636434 0 0)
(-0.631631 0 0)
(-0.626808 0 0)
(-0.621967 0 0)
(-0.617107 0 0)
(-0.612228 0 0)
(-0.60733 0 0)
(-0.602414 0 0)
(-0.59748 0 0)
(-0.592529 0 0)
(-0.587559 0 0)
(-0.582572 0 0)
(-0.577568 0 0)
(-0.572547 0 0)
(-0.567509 0 0)
(-0.562454 0 0)
(-0.557382 0 0)
(-0.552295 0 0)
(-0.547191 0 0)
(-0.542071 0 0)
(-0.536936 0 0)
(-0.531785 0 0)
(-0.526618 0 0)
(-0.521437 0 0)
(-0.516241 0 0)
(-0.511029 0 0)
(-0.505803 0 0)
(-0.500563 0 0)
(-0.495309 0 0)
(-0.49004 0 0)
(-0.484758 0 0)
(-0.479461 0 0)
(-0.474152 0 0)
(-0.468829 0 0)
(-0.463493 0 0)
(-0.458144 0 0)
(-0.452782 0 0)
(-0.447407 0 0)
(-0.44202 0 0)
(-0.436621 0 0)
(-0.43121 0 0)
(-0.425786 0 0)
(-0.420351 0 0)
(-0.414905 0 0)
(-0.409447 0 0)
(-0.403978 0 0)
(-0.398497 0 0)
(-0.393006 0 0)
(-0.387504 0 0)
(-0.381992 0 0)
(-0.376469 0 0)
(-0.370936 0 0)
(-0.365393 0 0)
(-0.35984 0 0)
(-0.354277 0 0)
(-0.348705 0 0)
(-0.343124 0 0)
(-0.337533 0 0)
(-0.331933 0 0)
(-0.326324 0 0)
(-0.320707 0 0)
(-0.315081 0 0)
(-0.309446 0 0)
(-0.303804 0 0)
(-0.298153 0 0)
(-0.292494 0 0)
(-0.286828 0 0)
(-0.281154 0 0)
(-0.275472 0 0)
(-0.269783 0 0)
(-0.264088 0 0)
(-0.258385 0 0)
(-0.252675 0 0)
(-0.246959 0 0)
(-0.241236 0 0)
(-0.235507 0 0)
(-0.229772 0 0)
(-0.224031 0 0)
(-0.218284 0 0)
(-0.212531 0 0)
(-0.206772 0 0)
(-0.201009 0 0)
(-0.19524 0 0)
(-0.189466 0 0)
(-0.183687 0 0)
(-0.177903 0 0)
(-0.172115 0 0)
(-0.166322 0 0)
(-0.160525 0 0)
(-0.154723 0 0)
(-0.148918 0 0)
(-0.143109 0 0)
(-0.137296 0 0)
(-0.13148 0 0)
(-0.12566 0 0)
(-0.119837 0 0)
(-0.114011 0 0)
(-0.108182 0 0)
(-0.10235 0 0)
(-0.0965152 0 0)
(-0.0906783 0 0)
(-0.084839 0 0)
(-0.0789975 0 0)
(-0.073154 0 0)
(-0.0673086 0 0)
(-0.0614614 0 0)
(-0.0556127 0 0)
(-0.0497626 0 0)
(-0.0439112 0 0)
(-0.0380586 0 0)
(-0.0322051 0 0)
(-0.0263508 0 0)
(-0.0204957 0 0)
(-0.0146402 0 0)
(-0.00878426 0 0)
(-0.00292811 0 0)
)
;

boundaryField
{
    left
    {
        type            fixedValue;
        value           uniform (0 0 0);
    }
    right
    {
        type            fixedValue;
        value           uniform (0 0 0);
    }
    frontBackUpDown
    {
        type            empty;
    }
}


// ************************************************************************* //
