/*--------------------------------*- C++ -*----------------------------------*\
| =========                 |                                                 |
| \\      /  F ield         | OpenFOAM: The Open Source CFD Toolbox           |
|  \\    /   O peration     | Version:  2412                                  |
|   \\  /    A nd           | Website:  www.openfoam.com                      |
|    \\/     M anipulation  |                                                 |
\*---------------------------------------------------------------------------*/
FoamFile
{
    version     2.0;
    format      ascii;
    arch        "LSB;label=32;scalar=64";
    class       volScalarField;
    location    "0.12";
    object      epsilon;
}
// * * * * * * * * * * * * * * * * * * * * * * * * * * * * * * * * * * * * * //

dimensions      [0 2 -3 0 0 0 0];

internalField   nonuniform List<scalar> 
12225
(
448.248
622.891
830.549
1004.81
1150.38
1270.18
1368.57
1449.56
1516.28
1571.27
1616.62
1653.98
1684.63
1709.6
1729.64
1745.17
1756.63
1767.03
173.744
302.083
403.1
480.174
539.338
585.689
622.125
650.845
673.553
691.516
705.694
716.841
725.546
732.275
737.431
741.255
744.528
744.28
119.436
232.402
315.511
376.253
421.16
455.026
480.626
499.954
514.526
525.453
533.559
539.471
543.678
546.565
548.461
549.625
550.477
550.079
97.6417
199.98
277.777
334.833
376.773
407.859
430.863
447.788
460.144
469.043
475.31
479.572
482.309
483.901
484.666
484.877
484.864
484.428
83.653
176.29
251.579
308.551
351.102
382.724
406.068
423.145
435.487
444.247
450.289
454.275
456.711
458
458.473
458.418
458.138
457.666
71.9923
153.974
226.313
283.827
328.2
361.841
387.041
405.707
419.354
429.156
436.019
440.646
443.582
445.26
446.038
446.219
446.089
445.744
61.3447
131.283
198.628
255.582
301.545
337.592
365.358
386.469
402.318
414.044
422.563
428.6
432.735
435.431
437.071
437.973
438.408
438.481
51.6702
108.732
168.49
222.635
268.759
306.567
336.81
360.624
379.139
393.364
404.159
412.235
418.178
422.468
425.502
427.609
429.046
429.906
43.2231
87.647
137.689
186.329
230.305
268.25
299.995
326.032
347.091
363.936
377.285
387.772
395.946
402.273
407.144
410.883
413.734
415.764
36.1703
69.2427
108.634
149.505
188.76
224.551
256.01
282.994
305.757
324.726
340.392
353.243
363.735
372.275
379.218
384.86
389.421
392.932
30.4989
54.1396
83.3307
115.318
147.82
179.121
208.077
234.108
257.045
276.966
294.091
308.705
321.12
331.638
340.54
348.07
354.405
359.52
26.3769
43.1984
64.2849
88.2425
113.652
139.263
164.051
187.317
208.669
227.941
245.127
260.321
273.675
285.369
295.589
304.503
312.229
318.671
23.1428
34.7474
49.3149
66.2717
84.88
104.393
124.089
143.362
161.772
179.036
195
209.605
222.866
234.841
245.614
255.273
263.865
271.235
20.3785
27.6951
36.7535
47.4297
59.4494
72.4894
86.1817
100.153
114.075
127.683
140.779
153.229
164.95
175.904
186.081
195.485
204.097
211.714
18.1502
22.2412
27.1499
32.9157
39.4923
46.7999
54.7229
63.1144
71.8168
80.6797
89.5677
98.3652
106.978
115.334
123.378
131.067
138.344
145.006
16.4708
18.3571
20.528
23.0294
25.8759
29.0713
32.6074
36.4599
40.5907
44.9543
49.5011
54.1811
58.9452
63.7475
68.5462
73.3016
77.9651
82.4037
15.3282
15.8732
16.4962
17.2138
18.0336
18.962
20.0052
21.1664
22.4451
23.8377
25.338
26.9376
28.626
30.3891
32.2132
34.0844
35.9851
37.873
14.7508
14.6758
14.637
14.6354
14.6699
14.7398
14.8452
14.9863
15.1634
15.3764
15.6249
15.9084
16.226
16.5784
16.9643
17.3819
17.8284
18.2995
14.8977
14.9732
15.0871
15.2432
15.4415
15.6817
15.9643
16.2891
16.6553
17.0612
17.5048
17.9834
18.4941
19.0334
19.5978
20.1837
20.7864
21.3923
15.9707
17.2603
18.726
20.3947
22.2726
24.3591
26.6473
29.1214
31.7577
34.5273
37.3993
40.3421
43.3249
46.3192
49.2991
52.2415
55.1219
57.8802
18.0494
21.9964
26.6893
32.1469
38.3067
45.0726
52.321
59.9057
67.6755
75.4905
83.2287
90.7894
98.0934
105.082
111.715
117.966
123.817
129.222
21.5629
30.6522
41.9197
55.0352
69.4932
84.7756
100.372
115.823
130.762
144.932
158.165
170.371
181.516
191.61
200.691
208.815
216.044
222.421
27.2182
45.2996
67.7847
92.9345
119.1
144.993
169.634
192.379
212.906
231.117
247.064
260.882
272.753
282.878
291.458
298.683
304.729
309.753
35.7141
67.6754
105.676
144.947
182.511
216.734
246.808
272.56
294.213
312.171
326.892
338.835
348.422
356.03
361.987
366.573
370.025
372.571
47.4074
97.6099
152.027
202.685
246.848
283.88
314.063
338.189
357.192
371.962
383.274
391.789
398.052
402.51
405.525
407.391
408.351
408.639
61.8877
131.75
198.703
254.802
299.83
335.064
362.105
382.552
397.793
408.954
416.931
422.43
426.003
428.082
429.004
429.034
428.385
427.273
78.4667
165.761
239.651
296.702
339.784
371.973
395.783
413.19
425.726
434.56
440.578
444.449
446.68
447.661
447.689
446.995
445.761
444.174
99.5995
200.964
279.478
337.82
380.456
411.806
434.889
451.766
463.982
472.693
478.748
482.778
485.256
486.546
486.924
486.606
485.758
484.551
144.791
258.315
348.614
417.599
468.468
506.751
535.877
558.056
574.959
587.835
597.594
604.92
610.337
614.251
616.977
618.765
619.81
620.31
366.941
498.484
666.588
808.036
923.459
1016.7
1091.73
1152.4
1201.69
1241.86
1274.71
1301.66
1323.84
1342.12
1357.22
1369.71
1380.02
1388.59
1.49741
1.4146
2.00908
2.49088
2.86401
3.21179
3.61441
4.04556
4.51273
5.04228
5.70258
6.60013
7.65062
8.84419
10.1763
11.6508
13.2733
15.0477
16.9753
19.0559
21.2879
23.6694
26.1991
28.8771
31.7063
34.6934
37.8504
41.1966
44.6968
48.3332
52.1014
55.9979
60.0198
64.1643
68.4292
72.8122
77.3114
81.9249
86.651
91.488
96.4339
101.487
106.645
111.906
117.267
122.726
128.28
133.925
139.658
145.475
151.372
157.344
163.387
169.495
175.663
181.886
188.157
194.471
200.821
207.201
213.604
220.022
226.45
232.879
239.303
245.714
252.106
258.471
264.804
271.101
277.36
283.585
289.789
295.999
302.161
308.225
314.191
320.059
325.822
331.474
337.01
342.422
347.704
352.849
357.849
362.7
367.395
371.928
376.293
380.486
384.5
388.331
391.975
395.427
398.682
401.738
404.59
407.236
409.671
411.894
413.901
415.691
417.262
418.611
419.738
420.64
421.318
421.77
421.996
421.996
421.771
421.32
420.644
419.745
418.624
417.283
415.723
413.947
411.959
409.76
407.354
404.745
401.937
398.934
395.742
392.364
388.807
385.076
381.177
377.117
372.901
368.537
364.033
359.395
354.631
349.751
344.756
339.67
334.488
329.233
323.957
318.851
315.332
312.639
309.932
307.148
304.285
301.347
298.338
295.266
292.137
288.957
285.733
282.472
279.181
275.868
272.54
269.204
265.867
262.538
259.223
255.93
252.665
249.436
246.248
243.108
240.019
236.988
234.015
231.101
228.244
225.438
222.671
219.921
217.147
214.275
211.144
207.371
202.157
194.741
4.4639
2.46485
2.20254
2.29731
2.55853
2.94296
3.42582
3.99379
4.64737
5.38845
6.21963
7.13947
8.13281
9.18846
10.2986
11.4578
12.6617
13.9062
15.1883
16.5054
17.8561
19.2398
20.657
22.1091
23.5976
25.1244
26.6911
28.2979
29.9425
31.6238
33.3421
35.0975
36.8904
38.7207
40.5886
42.4939
44.4365
46.4161
48.4322
50.4845
52.5722
54.6948
56.8514
59.0411
61.263
63.5159
65.7988
68.1102
70.4489
72.8134
75.2022
77.6135
80.0458
82.4972
84.9659
87.4499
89.9472
92.4557
94.9734
97.498
100.027
102.559
105.091
107.621
110.146
112.664
115.174
117.674
120.162
122.639
125.104
127.562
130.019
132.492
134.966
137.412
139.824
142.198
144.534
146.828
149.078
151.281
153.435
155.536
157.584
159.575
161.507
163.378
165.185
166.926
168.601
170.205
171.739
173.199
174.584
175.893
177.125
178.277
179.348
180.338
181.245
182.068
182.806
183.459
184.025
184.504
184.895
185.199
185.413
185.539
185.576
185.525
185.384
185.155
184.837
184.432
183.939
183.359
182.693
181.943
181.108
180.19
179.191
178.112
176.954
175.719
174.409
173.026
171.572
170.049
168.46
166.806
165.091
163.316
161.485
159.602
157.664
155.685
153.655
151.59
149.531
147.53
145.803
144.241
142.698
141.139
139.558
137.954
136.328
134.684
133.023
131.348
129.662
127.969
126.27
124.568
122.868
121.17
119.48
117.798
116.128
114.472
112.834
111.215
109.617
108.043
106.494
104.972
103.478
102.013
100.577
99.1684
97.7872
96.4305
95.0944
93.7756
92.4656
91.1857
90.0777
90.5022
7.80907
3.81162
3.26998
3.31602
3.57367
3.96323
4.46746
5.0761
5.77856
6.56156
7.41012
8.30913
9.24486
10.2076
11.1917
12.1945
13.2151
14.2539
15.3117
16.39
17.4904
18.6147
19.7645
20.9414
22.1464
23.3805
24.6437
25.9361
27.2572
28.6067
29.9843
31.3899
32.8231
34.2836
35.7712
37.2854
38.8259
40.3922
41.984
43.6008
45.2421
46.9073
48.5961
50.3076
52.0413
53.7965
55.5724
57.3683
59.1832
61.0163
62.8665
64.7328
66.6141
68.5093
70.4171
72.3363
74.2656
76.2035
78.1487
80.0998
82.0552
84.0136
85.9734
87.9333
89.892
91.8482
93.8008
95.7492
97.6928
99.6316
101.566
103.497
105.426
107.353
109.266
111.158
113.023
114.861
116.669
118.444
120.185
121.889
123.555
125.181
126.764
128.303
129.796
131.241
132.637
133.982
135.274
136.512
137.694
138.819
139.887
140.894
141.842
142.727
143.55
144.31
145.005
145.635
146.199
146.696
147.127
147.49
147.784
148.011
148.169
148.259
148.279
148.231
148.114
147.928
147.674
147.353
146.963
146.507
145.984
145.395
144.742
144.024
143.244
142.401
141.498
140.536
139.515
138.438
137.306
136.12
134.883
133.596
132.262
130.881
129.456
127.991
126.479
124.94
123.372
121.782
120.188
118.617
117.128
115.697
114.28
112.86
111.428
109.985
108.53
107.067
105.595
104.118
102.636
101.154
99.6721
98.193
96.7187
95.2515
93.7931
92.3457
90.9111
89.4911
88.0874
86.7016
85.3352
83.9896
82.666
81.3654
80.0888
78.8368
77.6101
76.409
75.2343
74.0867
72.9687
71.8868
70.8548
69.9227
69.2119
69.3609
11.2305
5.35733
4.5268
4.45453
4.65349
5.01399
5.49813
6.08591
6.76064
7.50513
8.30227
9.13688
9.99742
10.8766
11.7711
12.6803
13.6053
14.5478
15.5101
16.4942
17.5019
18.5347
19.5938
20.68
21.7935
22.9346
24.1031
25.2987
26.521
27.7697
29.0442
30.3444
31.67
33.0205
34.3957
35.7954
37.2192
38.6668
40.1381
41.6326
43.1502
44.6904
46.2529
47.8373
49.4432
51.0701
52.7174
54.3846
56.0709
57.7756
59.498
61.2372
62.9923
64.7622
66.5459
68.3424
70.1504
71.9686
73.796
75.631
77.4724
79.3189
81.1691
83.0216
84.8753
86.7289
88.5812
90.4314
92.2785
94.1219
95.9608
97.7945
99.6221
101.438
103.238
105.016
106.769
108.496
110.194
111.86
113.494
115.092
116.653
118.174
119.655
121.094
122.487
123.835
125.134
126.385
127.584
128.731
129.825
130.864
131.847
132.772
133.64
134.448
135.196
135.884
136.509
137.073
137.574
138.011
138.384
138.693
138.938
139.118
139.233
139.283
139.268
139.187
139.043
138.833
138.56
138.222
137.822
137.358
136.833
136.246
135.599
134.892
134.127
133.304
132.425
131.491
130.503
129.463
128.373
127.233
126.047
124.813
123.537
122.219
120.858
119.466
118.039
116.585
115.105
113.606
112.098
110.596
109.123
107.673
106.231
104.787
103.337
101.879
100.416
98.9471
97.4749
96.0009
94.5271
93.0554
91.5876
90.1256
88.6713
87.2265
85.7929
84.3722
82.9659
81.5756
80.2027
78.8486
77.5144
76.2014
74.9105
73.6428
72.399
71.18
69.9865
68.8196
67.6807
66.5721
65.4986
64.4699
63.5053
62.6536
62.009
61.8606
14.2091
6.86792
5.69707
5.49013
5.61733
5.92608
6.36209
6.898
7.51435
8.19418
8.92228
9.6861
10.4765
11.2881
12.1184
12.9674
13.8361
14.7262
15.6395
16.5777
17.542
18.5334
19.5525
20.5998
21.6753
22.7789
23.9106
25.0699
26.2566
27.4705
28.7112
29.9785
31.2722
32.5921
33.9381
35.3099
36.7075
38.1307
39.5794
41.0534
42.5526
44.0767
45.6255
47.1988
48.7962
50.4174
52.0618
53.729
55.4184
57.1292
58.8608
60.6123
62.3828
64.1713
65.9766
67.7977
69.6333
71.4821
73.3428
75.2139
77.0939
78.9815
80.875
82.773
84.6739
86.5763
88.4787
90.3796
92.2776
94.1714
96.0595
97.9403
99.8106
101.665
103.501
105.313
107.1
108.859
110.587
112.282
113.943
115.566
117.15
118.693
120.192
121.647
123.054
124.413
125.722
126.978
128.182
129.33
130.422
131.457
132.433
133.35
134.206
135
135.732
136.4
137.004
137.544
138.019
138.428
138.771
139.048
139.259
139.403
139.48
139.491
139.436
139.314
139.126
138.872
138.553
138.17
137.722
137.211
136.638
136.002
135.306
134.55
133.736
132.864
131.936
130.953
129.917
128.83
127.692
126.506
125.274
123.994
122.675
121.318
119.923
118.496
117.037
115.551
114.04
112.51
110.967
109.423
107.885
106.356
104.83
103.302
101.77
100.234
98.6944
97.1527
95.6104
94.0693
92.5312
90.9979
89.4713
87.9532
86.4453
84.9492
83.4667
81.9992
80.5482
79.1152
77.7014
76.308
74.9363
73.5871
72.2616
70.9606
69.6851
68.4358
67.2139
66.0207
64.8582
63.7296
62.6408
61.6028
60.6358
59.7819
59.1087
58.7507
17.8308
8.27952
6.70754
6.35423
6.40034
6.64759
7.0259
7.50192
8.05481
8.66878
9.33099
10.0313
10.7626
11.5202
12.3022
13.1081
13.9384
14.7943
15.6767
16.5869
17.5257
18.4937
19.4915
20.5192
21.577
22.6648
23.7827
24.9305
26.1082
27.3155
28.5525
29.819
31.1151
32.4406
33.7956
35.1801
36.594
38.0375
39.5104
41.0128
42.5445
44.1056
45.6958
47.315
48.9629
50.6391
52.3433
54.0749
55.8333
57.6178
59.4276
61.2619
63.1196
64.9995
66.9005
68.8213
70.7605
72.7165
74.6877
76.6726
78.6694
80.6764
82.6916
84.7132
86.7395
88.7683
90.798
92.8263
94.8516
96.8716
98.8845
100.888
102.877
104.847
106.795
108.718
110.612
112.475
114.304
116.098
117.853
119.567
121.238
122.863
124.441
125.97
127.447
128.871
130.239
131.551
132.805
133.999
135.132
136.202
137.208
138.15
139.026
139.835
140.576
141.249
141.853
142.388
142.853
143.247
143.571
143.824
144.006
144.117
144.157
144.126
144.025
143.854
143.612
143.302
142.923
142.475
141.961
141.38
140.733
140.022
139.248
138.412
137.514
136.558
135.544
134.472
133.347
132.169
130.938
129.659
128.335
126.967
125.558
124.111
122.627
121.109
119.561
117.985
116.386
114.766
113.131
111.489
109.845
108.201
106.557
104.911
103.262
101.611
99.9592
98.3073
96.6573
95.0111
93.3705
91.7373
90.1133
88.5004
86.9002
85.3144
83.7446
82.1923
80.6589
79.1457
77.654
76.1849
74.7396
73.3191
71.9243
70.5562
69.2157
67.9038
66.6219
65.3714
64.1548
62.976
61.8413
60.7621
59.7573
58.862
58.1227
57.6066
21.971
9.61288
7.55282
7.03056
6.98794
7.17151
7.49312
7.91293
8.40854
8.9649
9.5709
10.2182
10.9008
11.6148
12.3583
13.1302
13.9307
14.7602
15.6195
16.5092
17.43
18.3825
19.367
20.384
21.4337
22.5163
23.632
24.7809
25.9632
27.1791
28.4286
29.712
31.0294
32.381
33.7669
35.1874
36.6426
38.1327
39.6578
41.218
42.8133
44.4438
46.1094
47.8099
49.5451
51.3147
53.1182
54.9551
56.8248
58.7263
60.659
62.6216
64.613
66.6319
68.6768
70.7463
72.8387
74.952
77.0845
79.2342
81.399
83.5767
85.7651
87.9619
90.1648
92.3713
94.5791
96.7857
98.9887
101.185
103.373
105.549
107.706
109.841
111.95
114.031
116.079
118.092
120.067
122.001
123.893
125.738
127.535
129.28
130.973
132.61
134.19
135.71
137.169
138.565
139.895
141.159
142.356
143.483
144.539
145.524
146.437
147.276
148.04
148.729
149.343
149.881
150.342
150.726
151.034
151.264
151.417
151.493
151.492
151.415
151.262
151.033
150.728
150.35
149.898
149.372
148.775
148.107
147.369
146.564
145.69
144.751
143.748
142.683
141.557
140.369
139.127
137.831
136.483
135.085
133.64
132.15
130.619
129.047
127.439
125.798
124.125
122.424
120.699
118.953
117.191
115.418
113.638
111.855
110.07
108.282
106.493
104.703
102.913
101.127
99.3445
97.5684
95.8003
94.0423
92.2962
90.5637
88.8466
87.1465
85.4651
83.8039
82.1641
80.5472
78.9544
77.3868
75.8455
74.3316
72.8459
71.3895
69.9634
68.5688
67.2069
65.8798
64.5901
63.342
62.142
61.0012
59.9367
58.9767
58.1524
57.4993
25.6581
10.7257
8.20354
7.51736
7.38869
7.51252
7.78339
8.15496
8.60278
9.11188
9.67208
10.2761
10.9189
11.5969
12.3082
13.0516
13.8269
14.6342
15.474
16.3469
17.2534
18.1942
19.1698
20.1809
21.2279
22.3114
23.4318
24.5896
25.7852
27.0192
28.2918
29.6036
30.955
32.3465
33.7784
35.2511
36.765
38.3204
39.9177
41.557
43.2385
44.9622
46.7283
48.5365
50.3866
52.2783
54.2112
56.1845
58.1974
60.2492
62.3386
64.4645
66.6253
68.8196
71.0456
73.3014
75.585
77.8942
80.2268
82.5803
84.9521
87.3398
89.7406
92.1516
94.5702
96.9932
99.4178
101.841
104.26
106.671
109.072
111.456
113.817
116.152
118.457
120.729
122.964
125.158
127.31
129.415
131.47
133.474
135.422
137.313
139.143
140.911
142.614
144.25
145.817
147.313
148.736
150.085
151.358
152.554
153.671
154.708
155.665
156.54
157.333
158.043
158.669
159.212
159.67
160.044
160.333
160.538
160.658
160.694
160.646
160.515
160.301
160.005
159.627
159.169
158.632
158.016
157.322
156.551
155.706
154.789
153.8
152.739
151.61
150.417
149.16
147.841
146.464
145.029
143.541
142.001
140.412
138.777
137.098
135.379
133.622
131.83
130.007
128.156
126.28
124.383
122.468
120.541
118.605
116.663
114.718
112.771
110.823
108.876
106.932
104.993
103.06
101.136
99.2227
97.3221
95.436
93.5664
91.715
89.8835
88.0734
86.2863
84.5237
82.7867
81.0766
79.3946
77.7417
76.119
74.5275
72.9682
71.4422
69.9507
68.4953
67.078
65.7017
64.3708
63.0918
61.8749
60.7352
59.6949
58.7745
57.9934
28.7541
11.5991
8.6675
7.83301
7.62591
7.69636
7.92357
8.25509
8.66416
9.13531
9.65868
10.2276
10.8375
11.4852
12.1689
12.8874
13.6405
14.4281
15.2508
16.1091
17.0038
17.9356
18.9054
19.9141
20.9625
22.0515
23.1819
24.3546
25.5703
26.8299
28.1342
29.484
30.8799
32.3227
33.8131
35.3518
36.9392
38.576
40.2626
41.9994
43.7866
45.6243
47.5127
49.4516
51.4408
53.4799
55.5682
57.705
59.8893
62.1201
64.3959
66.7153
69.0765
71.4776
73.9164
76.3908
78.8981
81.4358
84.0011
86.591
89.2027
91.8329
94.4784
97.1358
99.8017
102.473
105.145
107.816
110.481
113.136
115.779
118.398
120.991
123.552
126.078
128.566
131.01
133.408
135.757
138.052
140.291
142.47
144.586
146.637
148.619
150.53
152.368
154.131
155.815
157.42
158.943
160.383
161.738
163.007
164.189
165.281
166.284
167.196
168.017
168.746
169.383
169.927
170.378
170.737
171.002
171.175
171.255
171.243
171.14
170.946
170.661
170.287
169.824
169.275
168.639
167.919
167.114
166.226
165.26
164.216
163.095
161.9
160.633
159.296
157.893
156.424
154.893
153.302
151.655
149.954
148.202
146.402
144.557
142.671
140.746
138.785
136.792
134.771
132.725
130.657
128.571
126.472
124.363
122.247
120.128
118.007
115.887
113.77
111.657
109.551
107.455
105.369
103.297
101.241
99.2019
97.1821
95.1836
93.2079
91.2568
89.3316
87.4339
85.5649
83.7258
81.9179
80.1422
78.3997
76.6915
75.0187
73.3823
71.7837
70.2246
68.7072
67.2344
65.8106
64.4421
63.1383
61.9119
60.7804
59.7566
58.8518
31.2117
12.2439
8.96739
8.00486
7.72889
7.75269
7.94263
8.24088
8.6184
9.05888
9.55237
10.0924
10.6748
11.2968
11.9566
12.6533
13.3867
14.157
14.9647
15.8108
16.6961
17.6217
18.5889
19.599
20.653
21.7525
22.8985
24.0924
25.3354
26.6287
27.9736
29.3712
30.8226
32.3288
33.8908
35.5096
37.1859
38.9206
40.7142
42.5672
44.48
46.4528
48.4856
50.5783
52.7306
54.942
57.2116
59.5385
61.9214
64.3591
66.8497
69.3914
71.9821
74.6193
77.3005
80.0228
82.7833
85.5787
88.4058
91.261
94.1408
97.0414
99.959
102.89
105.83
108.774
111.72
114.663
117.598
120.522
123.425
126.3
129.143
131.949
134.713
137.431
140.1
142.715
145.273
147.77
150.202
152.565
154.857
157.075
159.215
161.274
163.251
165.143
166.947
168.662
170.285
171.815
173.251
174.591
175.834
176.978
178.023
178.967
179.81
180.552
181.192
181.73
182.167
182.501
182.734
182.865
182.895
182.825
182.655
182.386
182.019
181.554
180.994
180.34
179.593
178.755
177.827
176.811
175.71
174.526
173.261
171.916
170.495
169.001
167.435
165.801
164.101
162.339
160.517
158.64
156.709
154.729
152.702
150.632
148.523
146.378
144.2
141.993
139.761
137.508
135.237
132.952
130.657
128.356
126.051
123.746
121.443
119.144
116.853
114.57
112.3
110.043
107.802
105.58
103.379
101.199
99.0445
96.9155
94.8142
92.7421
90.7006
88.691
86.7146
84.7725
82.8658
80.9955
79.1628
77.3687
75.6143
73.9012
72.231
70.606
69.0292
67.5049
66.0391
64.6399
63.3182
62.0876
60.9554
59.9292
33.0197
12.6796
9.12938
8.06161
7.72716
7.71076
7.86873
8.13889
8.49016
8.90532
9.37415
9.89027
10.4496
11.0497
11.6891
12.3671
13.0838
13.8396
14.6355
15.4726
16.3522
17.2759
18.2453
19.262
20.3278
21.4445
22.6138
23.8376
25.1174
26.4551
27.8522
29.3104
30.8311
32.4157
34.0656
35.7819
37.5657
39.418
41.3395
43.3307
45.3922
47.5241
49.7264
51.9988
54.3409
56.7518
59.2305
61.7758
64.3862
67.0596
69.7941
72.5872
75.4362
78.3383
81.2902
84.2886
87.3296
90.4096
93.5246
96.6703
99.8427
103.037
106.25
109.476
112.71
115.949
119.187
122.42
125.642
128.849
132.027
135.169
138.272
141.331
144.341
147.298
150.196
153.032
155.803
158.502
161.128
163.677
166.144
168.526
170.821
173.025
175.136
177.151
179.069
180.887
182.604
184.217
185.725
187.127
188.422
189.608
190.684
191.65
192.505
193.248
193.88
194.401
194.81
195.108
195.296
195.373
195.34
195.197
194.947
194.591
194.128
193.56
192.89
192.119
191.248
190.279
189.215
188.057
186.808
185.47
184.046
182.539
180.95
179.284
177.542
175.729
173.847
171.9
169.891
167.823
165.701
163.527
161.306
159.04
156.734
154.392
152.017
149.613
147.184
144.734
142.266
139.785
137.295
134.799
132.301
129.803
127.309
124.822
122.344
119.878
117.426
114.991
112.575
110.181
107.81
105.465
103.147
100.859
98.6013
96.3762
94.1851
92.0292
89.9097
87.8278
85.7847
83.7812
81.8186
79.898
78.0205
76.1876
74.4011
72.6632
70.977
69.3465
67.7773
66.2766
64.8533
63.5179
62.2742
61.128
34.1857
12.9273
9.17827
8.02958
7.64761
7.59729
7.72784
7.97395
8.30295
8.69689
9.14525
9.64161
10.1821
10.7644
11.3875
12.051
12.7553
13.5014
14.2906
15.1243
16.0046
16.9333
17.9126
18.9448
20.0322
21.1771
22.3817
23.6485
24.9797
26.3774
27.8438
29.3809
30.9906
32.6746
34.4347
36.2721
38.1883
40.1842
42.2608
44.4185
46.6577
48.9786
51.3809
53.8641
56.4274
59.0696
61.7894
64.585
67.4542
70.3947
73.4038
76.4784
79.6152
82.8107
86.0609
89.3617
92.7087
96.0971
99.5224
102.98
106.464
109.971
113.495
117.031
120.575
124.12
127.662
131.196
134.716
138.207
141.66
145.072
148.436
151.746
154.999
158.189
161.312
164.363
167.338
170.232
173.043
175.766
178.397
180.932
183.369
185.704
187.936
190.061
192.078
193.984
195.779
197.459
199.024
200.472
201.803
203.016
204.108
205.079
205.928
206.657
207.265
207.751
208.118
208.363
208.49
208.497
208.385
208.157
207.812
207.353
206.78
206.095
205.301
204.398
203.389
202.276
201.062
199.748
198.338
196.833
195.238
193.554
191.785
189.935
188.006
186.002
183.926
181.782
179.574
177.306
174.981
172.603
170.177
167.706
165.194
162.645
160.064
157.454
154.82
152.165
149.493
146.809
144.117
141.42
138.723
136.028
133.338
130.658
127.989
125.335
122.698
120.08
117.485
114.915
112.371
109.857
107.373
104.921
102.504
100.123
97.7791
95.4737
93.208
90.9833
88.8006
86.6609
84.5654
82.5151
80.5113
78.5555
76.6494
74.7953
72.996
71.2556
69.5789
67.9723
66.4431
64.9993
63.6424
62.3774
34.7253
13.0066
9.13574
7.93153
7.51361
7.43584
7.54342
7.7692
8.07958
8.45616
8.88822
9.36942
9.89603
10.4661
11.0788
11.7344
12.4337
13.178
13.9694
14.8098
15.7017
16.6478
17.6508
18.7135
19.839
21.03
22.2896
23.6207
25.026
26.5083
28.0702
29.714
31.4422
33.2566
35.1593
37.1516
39.2351
41.4107
43.6792
46.0411
48.4963
51.0448
53.6858
56.4185
59.2414
62.153
65.151
68.2331
71.3964
74.6378
77.9539
81.3407
84.7944
88.3105
91.8844
95.5113
99.1852
102.901
106.653
110.436
114.245
118.074
121.918
125.771
129.627
133.481
137.328
141.162
144.97
148.737
152.457
156.126
159.736
163.284
166.764
170.17
173.498
176.744
179.903
182.971
185.944
188.821
191.593
194.257
196.812
199.255
201.583
203.794
205.886
207.857
209.704
211.428
213.026
214.497
215.84
217.055
218.139
219.094
219.918
220.611
221.174
221.607
221.911
222.086
222.132
222.051
221.844
221.511
221.055
220.477
219.778
218.96
218.026
216.977
215.815
214.544
213.166
211.683
210.098
208.414
206.635
204.764
202.804
200.758
198.631
196.426
194.146
191.797
189.381
186.903
184.368
181.779
179.14
176.456
173.732
170.971
168.178
165.356
162.512
159.647
156.768
153.877
150.979
148.079
145.18
142.285
139.398
136.523
133.662
130.818
127.995
125.194
122.419
119.672
116.955
114.27
111.619
109.004
106.427
103.889
101.391
98.9359
96.5235
94.1552
91.8322
89.5555
87.3262
85.1454
83.0142
80.9343
78.9072
76.9353
75.0213
73.1688
71.3823
69.6672
68.0296
66.4756
65.005
63.6229
34.6529
12.9343
9.02007
7.78672
7.34531
7.24735
7.33715
7.5471
7.84342
8.20766
8.6292
9.10189
9.62232
10.1889
10.8013
11.4603
12.1673
12.9242
13.7337
14.5985
15.5219
16.5071
17.5575
18.6767
19.8681
21.1356
22.4827
23.9127
25.4292
27.0352
28.7338
30.5276
32.4191
34.4105
36.5036
38.7
41.0008
43.4068
45.9183
48.5353
51.2574
54.0836
57.0126
60.0427
63.1718
66.3973
69.7161
73.1249
76.62
80.1972
83.8522
87.5802
91.3763
95.2354
99.1524
103.123
107.137
111.189
115.274
119.386
123.519
127.668
131.825
135.986
140.145
144.296
148.433
152.547
156.616
160.632
164.591
168.487
172.314
176.066
179.739
183.327
186.826
190.231
193.537
196.742
199.841
202.83
205.705
208.462
211.1
213.615
216.004
218.267
220.4
222.402
224.271
226.006
227.606
229.069
230.395
231.584
232.633
233.543
234.315
234.947
235.44
235.796
236.013
236.094
236.039
235.849
235.525
235.069
234.482
233.766
232.924
231.956
230.865
229.655
228.326
226.882
225.326
223.661
221.889
220.015
218.041
215.972
213.81
211.561
209.227
206.812
204.322
201.76
199.13
196.437
193.686
190.881
188.026
185.126
182.185
179.209
176.201
173.167
170.11
167.035
163.947
160.849
157.746
154.643
151.542
148.449
145.366
142.298
139.246
136.215
133.208
130.226
127.273
124.351
121.463
118.61
115.794
113.018
110.283
107.59
104.942
102.338
99.7805
97.2704
94.8087
92.3965
90.0347
87.7244
85.4669
83.2636
81.1162
79.0267
76.9979
75.0331
73.1361
71.3119
69.5651
67.9007
66.3173
64.8203
33.9834
12.7259
8.848
7.61252
7.16113
7.05178
7.1309
7.33189
7.62157
7.98197
8.40296
8.87884
9.40673
9.98562
10.6158
11.2988
12.0366
12.832
13.6884
14.6096
15.5995
16.6629
17.8025
19.023
20.3287
21.724
23.213
24.7997
26.4876
28.2804
30.1809
32.192
34.3159
36.5545
38.9092
41.381
43.9704
46.6773
49.5013
52.4413
55.4958
58.663
61.9402
65.3247
68.813
72.4013
76.0856
79.8612
83.7234
87.6668
91.6861
95.7754
99.9291
104.141
108.405
112.714
117.062
121.442
125.847
130.271
134.708
139.152
143.597
148.037
152.467
156.881
161.272
165.611
169.891
174.108
178.255
182.326
186.317
190.22
194.033
197.749
201.365
204.875
208.276
211.565
214.736
217.787
220.715
223.515
226.186
228.725
231.13
233.398
235.528
237.517
239.366
241.071
242.633
244.05
245.322
246.448
247.427
248.26
248.947
249.487
249.881
250.13
250.234
250.195
250.013
249.69
249.226
248.625
247.887
247.014
246.009
244.874
243.611
242.222
240.712
239.081
237.335
235.475
233.506
231.431
229.254
226.978
224.607
222.146
219.599
216.971
214.265
211.486
208.639
205.729
202.76
199.737
196.665
193.548
190.392
187.201
183.981
180.735
177.468
174.185
170.891
167.589
164.285
160.983
157.686
154.399
151.125
147.868
144.632
141.419
138.232
135.075
131.949
128.858
125.804
122.788
119.814
116.881
113.993
111.151
108.355
105.608
102.91
100.262
97.6658
95.1219
92.6312
90.1948
87.814
85.4901
83.2248
81.02
78.8782
76.8024
74.7963
72.8638
71.0088
69.2354
67.5414
65.9327
32.7169
12.4515
8.64701
7.42594
6.97668
6.86663
6.94597
7.15011
7.44726
7.82054
8.26077
8.76318
9.32577
9.94845
10.6325
11.3801
12.1946
13.0796
14.0394
15.0785
16.2019
17.4145
18.7211
20.1264
21.6353
23.2523
24.9818
26.8277
28.7933
30.8818
33.0956
35.4365
37.906
40.5048
43.2331
46.0903
49.0756
52.1872
55.4231
58.7807
62.2566
65.8474
69.5488
73.3565
77.2655
81.2707
85.3665
89.5472
93.8067
98.1388
102.537
106.995
111.506
116.064
120.661
125.291
129.947
134.623
139.311
144.006
148.702
153.393
158.074
162.739
167.384
171.997
176.551
181.037
185.453
189.79
194.045
198.211
202.284
206.26
210.132
213.898
217.552
221.091
224.51
227.808
230.979
234.021
236.931
239.706
242.343
244.841
247.196
249.408
251.475
253.394
255.166
256.787
258.259
259.579
260.748
261.764
262.628
263.34
263.9
264.307
264.563
264.668
264.623
264.43
264.089
263.601
262.969
262.194
261.277
260.222
259.031
257.705
256.247
254.661
252.949
251.115
249.161
247.092
244.911
242.621
240.228
237.734
235.144
232.463
229.695
226.845
223.917
220.916
217.848
214.716
211.526
208.284
204.993
201.66
198.288
194.883
191.451
187.995
184.521
181.033
177.536
174.035
170.534
167.037
163.549
160.073
156.614
153.175
149.759
146.37
143.01
139.684
136.392
133.138
129.924
126.752
123.624
120.541
117.506
114.52
111.583
108.698
105.864
103.084
100.358
97.6871
95.072
92.5138
90.0137
87.5729
85.193
82.8759
80.6239
78.4398
76.3266
74.2878
72.3268
70.4467
68.6451
66.9284
31.0815
12.1328
8.45968
7.27219
6.84008
6.74565
6.84451
7.07509
7.40774
7.82739
8.32649
8.9018
9.55282
10.2809
11.0886
11.9797
12.9584
14.0297
15.1988
16.4711
17.8519
19.3466
20.9602
22.6974
24.5625
26.5591
28.6905
30.9592
33.3669
35.9148
38.6031
41.4316
44.399
47.5037
50.7432
54.1146
57.6144
61.2384
64.9823
68.8411
72.8096
76.8824
81.0535
85.3171
89.6669
94.0966
98.5996
103.17
107.8
112.484
117.214
121.985
126.79
131.622
136.474
141.341
146.216
151.093
155.966
160.831
165.681
170.513
175.322
180.105
184.841
189.507
194.098
198.61
203.037
207.374
211.617
215.762
219.803
223.738
227.561
231.269
234.858
238.324
241.665
244.877
247.956
250.901
253.709
256.376
258.901
261.282
263.516
265.602
267.539
269.325
270.958
272.438
273.764
274.935
275.951
276.812
277.516
278.065
278.458
278.695
278.778
278.707
278.483
278.107
277.58
276.904
276.08
275.111
273.998
272.744
271.351
269.821
268.158
266.364
264.442
262.397
260.23
257.947
255.551
253.046
250.436
247.725
244.919
242.021
239.036
235.969
232.826
229.61
226.328
222.984
219.584
216.132
212.633
209.094
205.52
201.914
198.283
194.631
190.963
187.285
183.6
179.914
176.23
172.555
168.89
165.242
161.612
158.006
154.427
150.877
147.36
143.878
140.435
137.033
133.673
130.358
127.091
123.871
120.702
117.584
114.518
111.506
108.549
105.647
102.801
100.013
97.2831
94.6121
92.0011
89.4514
86.9645
84.542
82.1863
79.8996
77.6849
75.5451
73.4831
71.5014
69.5977
67.7789
29.2128
11.7496
8.27733
7.15715
6.77062
6.72275
6.87747
7.17787
7.59774
8.1249
8.75449
9.48578
10.3206
11.2625
12.3158
13.4859
14.7781
16.1979
17.7508
19.4415
21.2747
23.2539
25.3821
27.6615
30.0931
32.6774
35.4136
38.3004
41.3353
44.5155
47.837
51.2957
54.8865
58.6044
62.4435
66.398
70.4617
74.6284
78.8916
83.2448
87.6817
92.1957
96.7803
101.429
106.136
110.894
115.698
120.542
125.418
130.322
135.247
140.188
145.139
150.095
155.051
160.001
164.94
169.864
174.77
179.651
184.507
189.33
194.124
198.854
203.508
208.08
212.567
216.966
221.272
225.481
229.59
233.594
237.489
241.273
244.942
248.491
251.919
255.221
258.395
261.438
264.347
267.12
269.754
272.246
274.595