/*--------------------------------*- C++ -*----------------------------------*\
| =========                 |                                                 |
| \\      /  F ield         | OpenFOAM: The Open Source CFD Toolbox           |
|  \\    /   O peration     | Version:  2412                                  |
|   \\  /    A nd           | Website:  www.openfoam.com                      |
|    \\/     M anipulation  |                                                 |
\*---------------------------------------------------------------------------*/
FoamFile
{
    version     2.0;
    format      ascii;
    arch        "LSB;label=32;scalar=64";
    class       volScalarField;
    location    "0.12";
    object      k;
}
// * * * * * * * * * * * * * * * * * * * * * * * * * * * * * * * * * * * * * //

dimensions      [0 2 -2 0 0 0 0];

internalField   nonuniform List<scalar> 
12225
(
0.316793
0.394492
0.477904
0.54261
0.593824
0.634367
0.666717
0.692769
0.713866
0.731024
0.745022
0.756455
0.765774
0.77332
0.779353
0.784012
0.787438
0.790543
0.569139
0.788913
0.95258
1.06799
1.15119
1.21269
1.25816
1.29169
1.3163
1.3341
1.34669
1.35523
1.36064
1.3636
1.36469
1.36423
1.36342
1.36128
0.670061
0.972154
1.18323
1.33202
1.43945
1.5186
1.57692
1.61968
1.65076
1.67301
1.68849
1.69878
1.70506
1.70828
1.70919
1.70837
1.70684
1.70477
0.722108
1.07674
1.32651
1.50447
1.63403
1.72971
1.80042
1.85243
1.89038
1.91766
1.93678
1.94966
1.95774
1.96218
1.9639
1.96368
1.96253
1.96104
0.742772
1.1292
1.41224
1.61818
1.77023
1.88337
1.96763
2.03016
2.07625
2.1098
2.13375
2.15033
2.16127
2.1679
2.17135
2.17256
2.17255
2.17201
0.739915
1.13776
1.44638
1.6782
1.85305
1.98506
2.08467
2.15965
2.21578
2.25743
2.28791
2.30978
2.32501
2.33517
2.34154
2.34521
2.34721
2.34821
0.719621
1.10881
1.43133
1.68403
1.88029
2.03178
2.14829
2.23767
2.30596
2.35783
2.39689
2.42597
2.44729
2.46262
2.47342
2.48087
2.486
2.48941
0.687643
1.05046
1.37184
1.63648
1.84974
2.01926
2.15294
2.25794
2.34011
2.40416
2.45385
2.49217
2.52154
2.54389
2.5608
2.57357
2.58321
2.5902
0.648988
0.972384
1.27662
1.54081
1.76295
1.94594
2.09474
2.2149
2.3115
2.38889
2.45073
2.5
2.53919
2.57032
2.59505
2.61474
2.63036
2.6423
0.607486
0.884093
1.15748
1.40741
1.62725
1.81574
1.9745
2.10679
2.21633
2.30665
2.38093
2.44194
2.49204
2.5332
2.5671
2.59507
2.61805
2.63625
0.565821
0.793326
1.02685
1.25031
1.45568
1.63918
1.79969
1.9381
2.05639
2.1569
2.24199
2.31392
2.3747
2.42612
2.46969
2.50665
2.53786
2.56328
0.528749
0.7121
0.905192
1.09648
1.2787
1.44753
1.60048
1.7368
1.85693
1.96199
2.05343
2.13278
2.20157
2.26121
2.31297
2.35789
2.39665
2.42891
0.494655
0.637277
0.790594
0.947006
1.10079
1.24807
1.38606
1.51309
1.62854
1.73248
1.82547
1.90828
1.98185
2.04713
2.10504
2.15635
2.20149
2.23982
0.460678
0.56215
0.673156
0.789695
0.907927
1.02498
1.13851
1.24674
1.3485
1.44316
1.53053
1.61068
1.6839
1.7506
1.81124
1.86622
1.91569
1.95865
0.429347
0.492753
0.562808
0.638306
0.717373
0.798348
0.879732
0.960175
1.03858
1.11413
1.18627
1.25467
1.31913
1.37962
1.43616
1.4888
1.5374
1.58075
0.403169
0.435387
0.470983
0.510063
0.552204
0.596876
0.643504
0.691443
0.74005
0.788744
0.83703
0.8845
0.930828
0.975759
1.0191
1.06068
1.10021
1.13662
0.384084
0.394611
0.406486
0.419898
0.434853
0.45131
0.469208
0.488435
0.508832
0.530215
0.55239
0.575161
0.598335
0.621699
0.645073
0.668298
0.691166
0.713138
0.374047
0.37371
0.37409
0.375207
0.377038
0.379561
0.382764
0.386633
0.391144
0.39627
0.401975
0.40822
0.414962
0.422178
0.429821
0.437837
0.446156
0.454669
0.376606
0.378923
0.381987
0.385848
0.39048
0.395847
0.401914
0.408636
0.415955
0.423804
0.432112
0.44081
0.449826
0.459091
0.468542
0.478116
0.48774
0.497194
0.394946
0.417777
0.442952
0.470548
0.500285
0.531801
0.564706
0.598567
0.632938
0.667401
0.701588
0.735191
0.767956
0.799685
0.830232
0.859486
0.887326
0.913347
0.427769
0.489061
0.556222
0.628001
0.702561
0.778261
0.853667
0.927521
0.998814
1.06682
1.13106
1.19127
1.24734
1.29926
1.34714
1.39114
1.43141
1.46797
0.475738
0.594967
0.723599
0.855963
0.987172
1.1139
1.23377
1.34518
1.44729
1.53989
1.62319
1.69766
1.7639
1.82259
1.87444
1.92014
1.9603
1.99544
0.536844
0.728688
0.928614
1.12371
1.3064
1.473
1.62179
1.75251
1.86605
1.96386
2.04762
2.11901
2.17962
2.23092
2.2742
2.31061
2.34112
2.36658
0.604139
0.873962
1.14015
1.38238
1.59445
1.77603
1.9288
2.05581
2.16059
2.24655
2.31673
2.37376
2.41986
2.45691
2.48646
2.50981
2.52801
2.54202
0.668313
1.00766
1.31641
1.57531
1.78708
1.958
2.09445
2.20263
2.28797
2.35495
2.40716
2.44752
2.47836
2.50153
2.51852
2.53054
2.53857
2.54346
0.717302
1.09919
1.41418
1.65888
1.84811
1.99398
2.1059
2.19143
2.25648
2.30555
2.34214
2.36894
2.38804
2.40107
2.40932
2.4138
2.4153
2.41458
0.735717
1.11862
1.40734
1.61983
1.77771
1.89572
1.98395
2.04966
2.09825
2.13376
2.15921
2.17688
2.18853
2.19548
2.1988
2.19927
2.19755
2.19423
0.708199
1.04716
1.29075
1.46557
1.59175
1.68428
1.75245
1.80244
1.83878
1.86479
1.88295
1.89508
1.90257
1.90648
1.90761
1.90661
1.90397
1.90016
0.616921
0.862574
1.04891
1.18265
1.27674
1.34491
1.39484
1.43127
1.45768
1.47657
1.48975
1.49856
1.50401
1.50686
1.5077
1.507
1.5051
1.50242
0.33327
0.408789
0.496177
0.564095
0.61661
0.657446
0.689408
0.714718
0.734955
0.751244
0.764435
0.775172
0.78395
0.79115
0.797073
0.801957
0.805977
0.80931
0.00989735
0.0157977
0.0199543
0.0230225
0.0252613
0.0272614
0.0294876
0.0317805
0.0341734
0.0367871
0.0399212
0.0439932
0.048529
0.053435
0.0586536
0.0641687
0.069972
0.0760509
0.0823872
0.0889595
0.0957462
0.102727
0.109887
0.117217
0.124713
0.132386
0.140254
0.148353
0.156593
0.164923
0.173333
0.181812
0.190355
0.198955
0.207608
0.216308
0.225053
0.233839
0.242662
0.251521
0.260413
0.269334
0.278282
0.287252
0.296243
0.305249
0.314268
0.323294
0.332324
0.341351
0.350372
0.35938
0.36837
0.377335
0.386271
0.39517
0.404027
0.412834
0.421586
0.430275
0.438895
0.447439
0.4559
0.464272
0.472549
0.480723
0.488789
0.496741
0.504575
0.512289
0.519885
0.527369
0.534759
0.542093
0.549306
0.55634
0.563199
0.569885
0.576395
0.582727
0.588874
0.594833
0.600599
0.606168
0.611534
0.616695
0.621645
0.626382
0.630902
0.635202
0.639279
0.643129
0.646751
0.650141
0.653299
0.656221
0.658906
0.661353
0.663559
0.665525
0.667248
0.668727
0.669963
0.670954
0.671701
0.672202
0.672458
0.67247
0.672236
0.671759
0.671038
0.670075
0.66887
0.667425
0.665741
0.66382
0.661664
0.659276
0.656657
0.65381
0.650738
0.647444
0.643933
0.640206
0.636269
0.632125
0.627779
0.623236
0.618501
0.613579
0.608476
0.603197
0.59775
0.59214
0.586373
0.58046
0.574399
0.568215
0.561901
0.555481
0.549012
0.542702
0.538152
0.534565
0.530957
0.527254
0.523453
0.519557
0.515571
0.511502
0.507357
0.503143
0.498867
0.494536
0.490158
0.485742
0.481295
0.476826
0.472344
0.467856
0.463372
0.4589
0.454449
0.450026
0.445639
0.441296
0.437004
0.432767
0.428588
0.42447
0.420411
0.416402
0.412431
0.408469
0.404468
0.400335
0.395867
0.390577
0.383462
0.373496
0.0204983
0.0328643
0.0432545
0.0516113
0.0592406
0.0665025
0.0734423
0.0805296
0.0880642
0.0961285
0.104685
0.113642
0.12288
0.132337
0.142
0.151884
0.16201
0.172399
0.183067
0.194025
0.205281
0.216841
0.228707
0.240877
0.253349
0.266114
0.279163
0.292481
0.30605
0.319853
0.333879
0.348117
0.362556
0.377187
0.391999
0.406985
0.422136
0.437446
0.452908
0.468516
0.484264
0.500146
0.516157
0.532291
0.548541
0.564902
0.581365
0.597925
0.614572
0.6313
0.648098
0.664958
0.68187
0.698824
0.715808
0.732812
0.749823
0.766831
0.783824
0.800787
0.81771
0.83458
0.851384
0.868108
0.884741
0.90127
0.917683
0.933966
0.950108
0.966096
0.981918
0.997563
1.01302
1.02818
1.04302
1.0576
1.07192
1.08599
1.0998
1.11334
1.12659
1.13955
1.15221
1.16455
1.17657
1.18825
1.1996
1.21059
1.22123
1.23149
1.24138
1.25089
1.26002
1.26874
1.27707
1.28498
1.29249
1.29957
1.30623
1.31247
1.31827
1.32364
1.32857
1.33305
1.33709
1.34068
1.34382
1.34651
1.34874
1.35052
1.35184
1.3527
1.3531
1.35305
1.35253
1.35156
1.35013
1.34825
1.34591
1.34312
1.33988
1.3362
1.33207
1.32751
1.32252
1.3171
1.31125
1.305
1.29833
1.29127
1.28381
1.27597
1.26776
1.25919
1.25025
1.24098
1.23136
1.22145
1.21121
1.20068
1.18997
1.17913
1.16839
1.15765
1.14675
1.13565
1.12436
1.11291
1.10131
1.08957
1.0777
1.06573
1.05367
1.04154
1.02935
1.01713
1.00488
0.99262
0.980375
0.968155
0.955977
0.943856
0.931807
0.919842
0.907976
0.89622
0.884584
0.873077
0.861706
0.850474
0.839382
0.828424
0.817592
0.806866
0.796216
0.785602
0.774924
0.764133
0.751878
0.738034
0.0297594
0.0524204
0.067713
0.0795357
0.0896366
0.0989134
0.108061
0.117485
0.127386
0.137802
0.148669
0.159895
0.171401
0.183157
0.195172
0.207481
0.220128
0.233155
0.246593
0.260466
0.274786
0.289555
0.304768
0.320411
0.336466
0.35291
0.369717
0.38686
0.404313
0.422054
0.440062
0.458316
0.476802
0.495503
0.514407
0.533502
0.55278
0.572231
0.591849
0.611627
0.631557
0.651636
0.671855
0.69221
0.712693
0.733299
0.754018
0.774845
0.795769
0.816781
0.837872
0.859031
0.880247
0.901507
0.9228
0.944111
0.965428
0.986737
1.00802
1.02927
1.05047
1.07159
1.09264
1.11358
1.13441
1.15512
1.17568
1.19608
1.2163
1.23635
1.25619
1.27582
1.29523
1.31431
1.3331
1.35157
1.36975
1.3876
1.40512
1.42229
1.43911
1.45555
1.47161
1.48727
1.50252
1.51734
1.53172
1.54566
1.55914
1.57215
1.58469
1.59673
1.60828
1.61932
1.62985
1.63986
1.64934
1.65829
1.66669
1.67455
1.68186
1.68861
1.6948
1.70043
1.70549
1.70997
1.71388
1.71721
1.71997
1.72214
1.72373
1.72474
1.72516
1.725
1.72425
1.72293
1.72102
1.71853
1.71547
1.71184
1.70764
1.70287
1.69755
1.69167
1.68524
1.67828
1.67078
1.66276
1.65422
1.64518
1.63564
1.62561
1.61512
1.60417
1.59276
1.58094
1.56866
1.55604
1.54306
1.52975
1.51616
1.50234
1.48841
1.47432
1.46003
1.4455
1.43075
1.4158
1.40066
1.38535
1.36989
1.35431
1.33862
1.32284
1.307
1.29111
1.2752
1.25928
1.24338
1.22751
1.21169
1.19595
1.18029
1.16474
1.14931
1.13401
1.11886
1.10388
1.08906
1.07443
1.05997
1.0457
1.03161
1.0177
1.00396
0.990396
0.977008
0.963886
0.950664
0.937022
0.0379138
0.0712939
0.091065
0.105131
0.116818
0.127528
0.138001
0.148668
0.159749
0.171321
0.183369
0.195847
0.208715
0.221965
0.235614
0.249694
0.264245
0.279298
0.294877
0.31099
0.327638
0.344808
0.362482
0.380635
0.399239
0.418262
0.437675
0.457447
0.477552
0.497964
0.518663
0.53963
0.560848
0.582303
0.603984
0.62588
0.647983
0.670285
0.69278
0.715461
0.738324
0.761361
0.784568
0.807937
0.831463
0.855138
0.878954
0.902902
0.926973
0.951157
0.975441
0.999815
1.02427
1.04878
1.07334
1.09793
1.12254
1.14715
1.17175
1.19631
1.22082
1.24527
1.26962
1.29387
1.318
1.34198
1.36581
1.38946
1.41292
1.43617
1.4592
1.48199
1.50449
1.52666
1.5485
1.56999
1.59112
1.61188
1.63225
1.65221
1.67176
1.69086
1.70951
1.72769
1.74538
1.76257
1.77925
1.79541
1.81102
1.82608
1.84057
1.8545
1.86783
1.88057
1.89271
1.90424
1.91514
1.92541
1.93505
1.94405
1.9524
1.9601
1.96714
1.97351
1.97922
1.98426
1.98863
1.99232
1.99533
1.99767
1.99932
2.00029
2.00059
2.0002
1.99913
1.99739
1.99497
1.99188
1.98812
1.98369
1.97861
1.97287
1.96649
1.95946
1.9518
1.94352
1.93462
1.92512
1.91502
1.90434
1.89309
1.88128
1.86894
1.85606
1.84265
1.82881
1.81449
1.79976
1.78462
1.7691
1.75323
1.73708
1.72071
1.7041
1.68725
1.67014
1.65278
1.6352
1.6174
1.59943
1.58129
1.563
1.5446
1.52611
1.50754
1.48893
1.47029
1.45165
1.43302
1.41443
1.39591
1.37746
1.35912
1.34089
1.3228
1.30487
1.28711
1.26953
1.25214
1.23496
1.21801
1.20127
1.18477
1.16852
1.15253
1.13686
1.12157
1.10684
1.09269
1.07914
0.0443504
0.0881554
0.111186
0.127264
0.140434
0.152292
0.163686
0.175117
0.186873
0.199096
0.211839
0.22511
0.238904
0.253226
0.268088
0.283512
0.299517
0.316117
0.333318
0.351113
0.369492
0.388431
0.407907
0.42789
0.448349
0.469255
0.490576
0.512286
0.53436
0.556774
0.57951
0.602551
0.625882
0.649489
0.673364
0.697496
0.721877
0.746501
0.77136
0.79645
0.821764
0.847296
0.873039
0.898987
0.925133
0.951468
0.977983
1.00467
1.03151
1.05851
1.08563
1.11288
1.14023
1.16768
1.19519
1.22276
1.25037
1.278
1.30562
1.33322
1.36078
1.38827
1.41567
1.44297
1.47014
1.49716
1.52401
1.55067
1.57712
1.60333
1.62929
1.65499
1.68034
1.70533
1.72995
1.75418
1.778
1.80139
1.82434
1.84683
1.86883
1.89033
1.91131
1.93176
1.95165
1.97096
1.98969
2.00782
2.02533
2.04221
2.05844
2.07402
2.08893
2.10316
2.1167
2.12954
2.14168
2.15309
2.16379
2.17375
2.18298
2.19147
2.19921
2.20619
2.21242
2.21789
2.2226
2.22654
2.22972
2.23213
2.23377
2.23464
2.23475
2.23409
2.23266
2.23047
2.22752
2.22382
2.21936
2.21416
2.20822
2.20155
2.19415
2.18604
2.17722
2.1677
2.1575
2.14662
2.13508
2.12289
2.11008
2.09663
2.0826
2.06801
2.05286
2.0372
2.02104
2.0044
1.98732
1.96981
1.95192
1.93368
1.91515
1.89633
1.87723
1.85785
1.83821
1.81832
1.7982
1.77789
1.7574
1.73676
1.716
1.69514
1.6742
1.65321
1.63219
1.61118
1.59018
1.56923
1.54835
1.52756
1.50687
1.48632
1.46592
1.44569
1.42564
1.4058
1.38618
1.3668
1.34766
1.32879
1.3102
1.29192
1.274
1.25652
1.23959
1.22345
1.20825
1.19424
0.0516049
0.101379
0.127373
0.145372
0.159923
0.172812
0.184991
0.197037
0.209305
0.222005
0.23525
0.249097
0.263571
0.278686
0.294451
0.310874
0.327958
0.345702
0.364098
0.383131
0.402781
0.423024
0.443832
0.465178
0.487032
0.509367
0.532158
0.555379
0.57901
0.603029
0.627421
0.652171
0.677264
0.70269
0.728439
0.754503
0.780873
0.807543
0.834506
0.861756
0.889286
0.91709
0.94516
0.973489
1.00207
1.03089
1.05994
1.0892
1.11868
1.14834
1.17818
1.20819
1.23833
1.2686
1.29897
1.32943
1.35994
1.3905
1.42107
1.45164
1.48217
1.51264
1.54303
1.57332
1.60347
1.63346
1.66327
1.69287
1.72223
1.75134
1.78016
1.80868
1.83681
1.86454
1.89186
1.91873
1.94515
1.97109
1.99653
2.02144
2.04581
2.06961
2.09283
2.11544
2.13743
2.15877
2.17945
2.19945
2.21876
2.23736
2.25523
2.27236
2.28875
2.30438
2.31923
2.33329
2.34657
2.35904
2.3707
2.38155
2.39157
2.40077
2.40913
2.41665
2.42333
2.42916
2.43414
2.43828
2.44156
2.44399
2.44556
2.44629
2.44616
2.44519
2.44337
2.4407
2.4372
2.43286
2.4277
2.42172
2.41492
2.40731
2.39891
2.38973
2.37976
2.36903
2.35756
2.34535
2.3324
2.31876
2.30445
2.28947
2.27386
2.25764
2.24082
2.22344
2.20551
2.18707
2.16814
2.14875
2.12894
2.10874
2.08819
2.06731
2.04612
2.02463
2.00285
1.98082
1.95855
1.93606
1.9134
1.89057
1.86762
1.84456
1.82143
1.79824
1.77503
1.75182
1.72863
1.7055
1.68243
1.65947
1.63662
1.61392
1.59138
1.56902
1.54686
1.52493
1.50323
1.4818
1.46064
1.43979
1.41927
1.39913
1.37942
1.36025
1.34177
1.32423
1.3078
1.29274
0.0593151
0.11166
0.139846
0.159412
0.175167
0.189
0.201925
0.214565
0.227325
0.240464
0.254144
0.268458
0.283457
0.299165
0.315592
0.33274
0.350604
0.369173
0.388432
0.408361
0.42894
0.450143
0.471946
0.494323
0.517251
0.540705
0.564664
0.589108
0.614018
0.639377
0.665172
0.691388
0.718016
0.745044
0.772464
0.800267
0.828447
0.856996
0.885907
0.915173
0.944787
0.974742
1.00503
1.03564
1.06656
1.09778
1.1293
1.16108
1.19313
1.22542
1.25794
1.29067
1.32358
1.35665
1.38986
1.42319
1.45661
1.4901
1.52362
1.55715
1.59066
1.62412
1.6575
1.69077
1.7239
1.75686
1.78963
1.82217
1.85445
1.88645
1.91813
1.94945
1.98035
2.0108
2.04078
2.07028
2.09927
2.12772
2.15561
2.18291
2.20961
2.23567
2.26108
2.28581
2.30984
2.33316
2.35574
2.37756
2.39861
2.41887
2.43833
2.45696
2.47477
2.49173
2.50783
2.52306
2.53742
2.55089
2.56346
2.57513
2.58589
2.59573
2.60466
2.61266
2.61973
2.62588
2.63109
2.63536
2.6387
2.6411
2.64257
2.6431
2.64271
2.64138
2.63914
2.63597
2.63188
2.62689
2.62099
2.61421
2.60653
2.59798
2.58857
2.57831
2.5672
2.55526
2.54251
2.52899
2.5147
2.49965
2.48388
2.4674
2.45024
2.43243
2.41397
2.39491
2.37527
2.35508
2.33436
2.31315
2.29147
2.26938
2.24689
2.22404
2.20085
2.17734
2.15353
2.12945
2.10512
2.08057
2.05583
2.03093
2.00589
1.98074
1.95552
1.93024
1.90494
1.87965
1.85438
1.82917
1.80403
1.779
1.7541
1.72935
1.70477
1.68039
1.65622
1.63229
1.60862
1.58523
1.56215
1.53941
1.51705
1.49512
1.4737
1.4529
1.43289
1.4139
1.39609
1.37965
0.0657815
0.119076
0.148823
0.169612
0.186378
0.201061
0.2147
0.227938
0.241203
0.254785
0.268875
0.283594
0.299012
0.315167
0.332075
0.349738
0.368149
0.387296
0.407163
0.427731
0.44898
0.47089
0.493438
0.516605
0.540371
0.564717
0.589626
0.615082
0.641071
0.667579
0.694595
0.722108
0.750109
0.778588
0.807539
0.836953
0.866823
0.897142
0.927902
0.959097
0.990718
1.02276
1.0552
1.08804
1.12127
1.15486
1.18882
1.22311
1.25772
1.29264
1.32784
1.36329
1.39898
1.43487
1.47095
1.50718
1.54352
1.57996
1.61646
1.65298
1.68949
1.72596
1.76235
1.79864
1.83477
1.87073
1.90647
1.94196
1.97717
2.01207
2.04662
2.08074
2.11439
2.14755
2.1802
2.2123
2.24384
2.27478
2.30509
2.33476
2.36375
2.39204
2.4196
2.44642
2.47246
2.4977
2.52214
2.54573
2.56848
2.59035
2.61134
2.63142
2.65059
2.66883
2.68613
2.70248
2.71786
2.73227
2.74569
2.75813
2.76958
2.78002
2.78946
2.79789
2.80531
2.81171
2.8171
2.82146
2.82481
2.82715
2.82847
2.82877
2.82807
2.82636
2.82364
2.81994
2.81524
2.80956
2.80291
2.7953
2.78673
2.77721
2.76677
2.75542
2.74318
2.73005
2.71607
2.70125
2.68561
2.66917
2.65195
2.63399
2.6153
2.59591
2.57585
2.55514
2.53382
2.5119
2.48943
2.46644
2.44295
2.41901
2.39464
2.36989
2.34477
2.31931
2.29354
2.26748
2.24117
2.21463
2.18789
2.16099
2.13394
2.10679
2.07956
2.05227
2.02497
1.99767
1.9704
1.94319
1.91607
1.88905
1.86217
1.83545
1.80891
1.78257
1.75647
1.73061
1.70504
1.67976
1.65483
1.63026
1.60611
1.58244
1.55934
1.53693
1.51538
1.49489
1.47558
1.4576
0.0709757
0.123948
0.154705
0.176392
0.193968
0.209387
0.223684
0.237501
0.25127
0.265291
0.279771
0.294848
0.310608
0.327101
0.344352
0.362369
0.381152
0.400691
0.420974
0.441986
0.463713
0.486137
0.509244
0.533019
0.557447
0.582516
0.608213
0.634527
0.661448
0.688966
0.717073
0.74576
0.775021
0.804848
0.835234
0.866172
0.897656
0.929679
0.962232
0.995307
1.02889
1.06299
1.09757
1.13263
1.16815
1.20412
1.24052
1.27732
1.31452
1.35208
1.38998
1.42819
1.46669
1.50544
1.54441
1.58356
1.62287
1.66229
1.70179
1.74133
1.78087
1.82037
1.8598
1.89911
1.93826
1.97722
2.01595
2.0544
2.09253
2.13032
2.16772
2.20462
2.24101
2.27686
2.31214
2.34682
2.38087
2.41426
2.44696
2.47894
2.51018
2.54065
2.57031
2.59915
2.62714
2.65426
2.68049
2.70579
2.73017
2.75359
2.77605
2.79751
2.81798
2.83744
2.85587
2.87327
2.88962
2.9049
2.91912
2.93227
2.94434
2.95532
2.96521
2.97402
2.98172
2.98833
2.99385
2.99826
3.00157
3.00379
3.00491
3.00495
3.00389
3.00176
2.99855
2.99427
2.98894
2.98253
2.9751
2.96664
2.95717
2.94669
2.93523
2.9228
2.90942
2.89511
2.87989
2.86378
2.8468
2.82897
2.81033
2.79089
2.77069
2.74975
2.7281
2.70578
2.6828
2.6592
2.63502
2.61028
2.58502
2.55928
2.53309
2.50649
2.4795
2.45216
2.42449
2.39653
2.3683
2.33984
2.31117
2.28233
2.25336
2.22427
2.1951
2.16589
2.13665
2.10742
2.07822
2.04909
2.02004
1.99111
1.96232
1.9337
1.90526
1.87704
1.84906
1.82135
1.79392
1.76682
1.74008
1.71373
1.68784
1.66247
1.63771
1.6137
1.59057
1.56852
1.54764
1.52802
0.0749679
0.126653
0.157957
0.180253
0.198439
0.21446
0.22933
0.243675
0.257916
0.272351
0.28719
0.302579
0.318616
0.335361
0.352852
0.371106
0.390129
0.409921
0.430477
0.451789
0.473849
0.496647
0.520175
0.544425
0.569388
0.595058
0.621428
0.648492
0.676243
0.704678
0.733789
0.763572
0.794023
0.825135
0.856904
0.889322
0.922384
0.956082
0.990407
1.02535
1.0609
1.09704
1.13377
1.17106
1.2089
1.24726
1.28613
1.32549
1.3653
1.40554
1.44618
1.48718
1.52852
1.57015
1.61204
1.65415
1.69644
1.73887
1.78139
1.82396
1.86653
1.90907
1.95153
1.99386
2.03601
2.07796
2.11964
2.16102
2.20206
2.24271
2.28289
2.32253
2.3616
2.40007
2.43792
2.4751
2.51159
2.54736
2.58237
2.61659
2.65
2.68256
2.71424
2.74502
2.77487
2.80377
2.8317
2.85863
2.88455
2.90943
2.93326
2.95602
2.97771
2.9983
3.01778
3.03614
3.05337
3.06946
3.08439
3.09817
3.11079
3.12224
3.13252
3.14163
3.14957
3.15633
3.16191
3.16631
3.16953
3.17158
3.17247
3.17218
3.17074
3.16814
3.1644
3.15952
3.15352
3.14639
3.13817
3.12886
3.11847
3.10703
3.09454
3.08103
3.06652
3.05102
3.03457
3.01717
2.99887
2.97968
2.95962
2.93874
2.91705
2.89459
2.87139
2.84747
2.82288
2.79763
2.77178
2.74534
2.71837
2.69088
2.66293
2.63454
2.60575
2.57659
2.5471
2.5173
2.48723
2.45692
2.4264
2.39571
2.36487
2.33393
2.3029
2.27183
2.24073
2.20965
2.1786
2.14762
2.11673
2.08596
2.05533
2.02487
1.99461
1.96457
1.93478
1.90526
1.87605
1.84717
1.81867
1.7906
1.763
1.73596
1.70956
1.68394
1.65922
1.63558
1.61306
1.59175
0.0778392
0.127549
0.159031
0.181691
0.200305
0.216786
0.232124
0.246918
0.261572
0.276372
0.291524
0.307177
0.323434
0.340366
0.358019
0.376423
0.395594
0.415542
0.436271
0.457782
0.480077
0.503153
0.527011
0.551649
0.577067
0.603264
0.630238
0.657991
0.686519
0.715823
0.7459
0.776749
0.808367
0.84075
0.873894
0.907793
0.94244
0.977827
1.01395
1.05078
1.08833
1.12656
1.16547
1.20503
1.24523
1.28604
1.32742
1.36937
1.41183
1.45479
1.4982
1.54203
1.58623
1.63077
1.6756
1.72068
1.76595
1.81138
1.85691
1.90248
1.94807
1.9936
2.03905
2.08434
2.12945
2.17431
2.21888
2.26311
2.30696
2.35038
2.39324
2.43551
2.47715
2.51814
2.55844
2.59801
2.63682
2.67484
2.71203
2.74836
2.7838
2.81833
2.8519
2.88449
2.91607
2.94662
2.97612
3.00455
3.03188
3.0581
3.08318
3.10712
3.12991
3.15151
3.17194
3.19116
3.20917
3.22596
3.24151
3.25583
3.26891
3.28074
3.29133
3.30067
3.30876
3.3156
3.32117
3.3255
3.32857
3.3304
3.331
3.33035
3.32848
3.3254
3.3211
3.3156
3.30891
3.30105
3.29202
3.28185
3.27055
3.25813
3.24462
3.23003
3.2144
3.19773
3.18006
3.1614
3.1418
3.12126
3.09983
3.07753
3.05439
3.03045
3.00573
2.98027
2.95411
2.92728
2.89981
2.87174
2.8431
2.81394
2.78429
2.75419
2.72367
2.69278
2.66154
2.62998
2.59815
2.56608
2.5338
2.50133
2.46873
2.43601
2.40322
2.37037
2.33751
2.30465
2.27184
2.23909
2.20644
2.1739
2.14152
2.10931
2.07729
2.04551
2.01397
1.98272
1.95178
1.9212
1.891
1.86124
1.83198
1.8033
1.77529
1.74806
1.72175
1.69649
1.67231
1.64928
0.0796644
0.126955
0.158333
0.181162
0.200044
0.216852
0.232545
0.247695
0.262686
0.277789
0.293201
0.309067
0.325496
0.342565
0.360329
0.378828
0.39809
0.418137
0.438983
0.46064
0.48312
0.506429
0.530577
0.55557
0.581416
0.608119
0.635687
0.664124
0.693434
0.72362
0.754685
0.786628
0.819449
0.853146
0.887715
0.923151
0.959445
0.996588
1.03457
1.07337
1.11298
1.15338
1.19455
1.23645
1.27908
1.32239
1.36635
1.41093
1.4561
1.50181
1.54802
1.59469
1.64177
1.68921
1.73697
1.78499
1.83321
1.88158
1.93006
1.97857
2.02708
2.07552
2.12384
2.17199
2.21992
2.26757
2.3149
2.36185
2.40838
2.45435
2.49972
2.54444
2.58848
2.6318
2.67437
2.71613
2.75708
2.79715
2.83633
2.87459
2.91188
2.94819
2.98346
3.01767
3.05081
3.08283
3.11373
3.14347
3.17205
3.19944
3.22562
3.25058
3.27431
3.29679
3.31801
3.33798
3.35664
3.374
3.39005
3.40479
3.41822
3.43033
3.44112
3.4506
3.45875
3.46558
3.47109
3.47528
3.47815
3.47971
3.47997
3.47893
3.47659
3.47298
3.4681
3.46196
3.45458
3.44596
3.43612
3.42508
3.41287
3.39949
3.38496
3.36932
3.35258
3.33476
3.3159
3.29602
3.27514
3.2533
3.23053
3.20687
3.18233
3.15696
3.13079
3.10385
3.07619
3.04783
3.01881
2.98918
2.95897
2.92821
2.89695
2.86523
2.83308
2.80054
2.76765
2.73444
2.70095
2.66721
2.63326
2.59913
2.56486
2.53047
2.49601
2.46149
2.42695
2.39243
2.35795
2.32353
2.28921
2.25501
2.22096
2.18708
2.1534
2.11996
2.08676
2.05386
2.02127
1.98904
1.9572
1.92582
1.89495
1.86467
1.83507
1.80626
1.77836
1.75148
1.72563
1.70088
0.0805038
0.12514
0.156212
0.179063
0.198084
0.215103
0.231046
0.246462
0.261712
0.277052
0.292671
0.30871
0.325277
0.342455
0.360307
0.378884
0.398225
0.418362
0.439323
0.461131
0.483807
0.507369
0.531834
0.557218
0.583536
0.610802
0.639027
0.668223
0.698397
0.729557
0.761709
0.794853
0.828992
0.864123
0.900242
0.937342
0.975412
1.01444
1.05441
1.09531
1.13711
1.17978
1.22331
1.26766
1.3128
1.35869
1.40529
1.45257
1.50047
1.54895
1.59796
1.64745
1.69738
1.74767
1.79829
1.84917
1.90024
1.95145
2.00274
2.05404
2.10531
2.15648
2.2075
2.2583
2.30885
2.35907
2.40893
2.45836
2.50728
2.55557
2.60319
2.6501
2.69627
2.74165
2.78621
2.82991
2.87271
2.91458
2.95549
2.9954
3.03428
3.07213
3.10885
3.14445
3.17888
3.21214
3.24421
3.27505
3.30466
3.33301
3.36008
3.38587
3.41035
3.43352
3.45536
3.47587
3.49501
3.5128
3.52921
3.54425
3.55791
3.57019
3.58108
3.5906
3.59873
3.60547
3.61083
3.61481
3.61742
3.61865
3.61852
3.61704
3.61421
3.61005
3.60456
3.59776
3.58966
3.58028
3.56964
3.55774
3.54462
3.53029
3.51477
3.49809
3.48028
3.46135
3.44134
3.42027
3.39818
3.3751
3.35105
3.32608
3.30021
3.27349
3.24594
3.2176
3.18852
3.15873
3.12826
3.09716
3.06547
3.03322
3.00046
2.96722
2.93355
2.89948
2.86506
2.83031
2.79527
2.75999
2.72449
2.68881
2.65298
2.61705
2.58103
2.54496
2.50887
2.4728
2.43676
2.40079
2.36491
2.32915
2.29354
2.25811
2.22287
2.18785
2.1531
2.11863
2.08447
2.05068
2.01729
1.98435
1.95193
1.9201
1.88896
1.8586
1.82913
1.80064
1.77314
1.7467
0.0803948
0.122326
0.152956
0.175728
0.194798
0.211939
0.228048
0.243652
0.259097
0.274625
0.290415
0.306607
0.323307
0.340604
0.358568
0.377258
0.396726
0.417014
0.438162
0.460206
0.483177
0.507105
0.532013
0.557926
0.584867
0.612856
0.641912
0.67205
0.703283
0.735621
0.769069
0.803632
0.839308
0.876095
0.913984
0.952966
0.993026
1.03415
1.0763
1.11948
1.16363
1.20874
1.25477
1.30168
1.34943
1.39797
1.44726
1.49724
1.54787
1.5991
1.65086
1.7031
1.75576
1.80878
1.8621
1.91568
1.96942
2.02324
2.0771
2.13094
2.18469
2.23831
2.29172
2.34487
2.3977
2.45017
2.50222
2.55377
2.60469
2.65491
2.70441
2.75314
2.80107
2.84814
2.89433
2.93959
2.9839
3.0272
3.06948
3.11069
3.15082
3.18983
3.22767
3.26432
3.29976
3.33397
3.36692
3.39859
3.42897
3.45803
3.48576
3.51214
3.53716
3.56081
3.58307
3.60394
3.6234
3.64144
3.65805
3.67324
3.68699
3.69931
3.71019
3.71963
3.72763
3.7342
3.73933
3.74302
3.7453
3.74615
3.74558
3.74362
3.74026
3.73551
3.7294
3.72192
3.71311
3.70296
3.69151
3.67878
3.66477
3.64952
3.63304
3.61537
3.59652
3.57654
3.55543
3.53325
3.51001
3.48575
3.46051
3.43431
3.4072
3.37922
3.35039
3.32076
3.29037
3.25925
3.22744
3.195
3.16194
3.12833
3.09419
3.05957
3.02451
2.98904
2.95322
2.91706
2.88062
2.84393
2.80702
2.76993
2.7327
2.69535
2.65792
2.62044
2.58293
2.54544
2.50798
2.47059
2.43328
2.3961
2.35905
2.32217
2.28549
2.24903
2.21282
2.17689
2.14128
2.10602
2.07115
2.03675
2.00285
1.96954
1.93691
1.90505
1.87404
1.84399
1.81487
1.78677
0.079359
0.118669
0.148788
0.171431
0.1905
0.207711
0.223937
0.239687
0.255296
0.270996
0.286964
0.303336
0.320221
0.337711
0.355885
0.374811
0.39455
0.415156
0.43668
0.459171
0.482674
0.507233
0.532862
0.559596
0.587467
0.616503
0.646726
0.678155
0.710803
0.74468
0.779792
0.816137
0.853712
0.892508
0.93251
0.973703
1.01606
1.05956
1.10417
1.14985
1.19657
1.24429
1.29296
1.34252
1.39295
1.44417
1.49613
1.54878
1.60205
1.6559
1.71024
1.76503
1.82019
1.87567
1.9314
1.98731
2.04333
2.09939
2.15544
2.21139
2.26721
2.32282
2.37817
2.43321
2.48787
2.54211
2.59587
2.64897
2.70138
2.75305
2.80393
2.85399
2.90318
2.95146
2.9988
3.04516
3.09051
3.1348
3.17801
3.22011
3.26107
3.30085
3.33942
3.37676
3.41284
3.44764
3.48114
3.51332
3.54416
3.57363
3.60173
3.62844
3.65374
3.67763
3.70008
3.7211
3.74066
3.75877
3.7754
3.79057
3.80426
3.81647
3.8272
3.83645
3.84421
3.8505
3.85531
3.85864
3.86051
3.86092
3.85987
3.85738
3.85345
3.8481
3.84134
3.83319
3.82366
3.81277
3.80053
3.78697
3.77212
3.75598
3.7386
3.71999
3.70018
3.6792
3.65708
3.63386
3.60956
3.58423
3.55788
3.53058
3.50234
3.4732
3.44322
3.41242
3.38084
3.34853
3.31553
3.28187
3.24761
3.21277
3.17741
3.14155
3.10526
3.06856
3.03149
2.99409
2.95641
2.91847
2.88032
2.84198
2.8035
2.7649
2.72621
2.68748
2.64872
2.60996
2.57124
2.53257
2.49399
2.45552
2.41718
2.37901
2.34102
2.30324
2.26571
2.22844
2.19148
2.15487
2.11864
2.08286
2.04758
2.01288
1.97883
1.94553
1.91305
1.88148
1.8508
1.8211
0.0773763
0.114021
0.143652
0.166207
0.185298
0.202592
0.218945
0.234862
0.250673
0.266611
0.282851
0.299533
0.31677
0.334662
0.353295
0.372745
0.393084
0.414377
0.436685
0.460063
0.484563
0.510232
0.537108
0.565226
0.594619
0.625314
0.657333
0.690692
0.725399
0.761457
0.798865
0.837613
0.877686
0.919065
0.961722
1.00563
1.05075
1.09704
1.14447
1.19298
1.24252
1.29304
1.34449
1.3968
1.44992
1.50379
1.55834
1.61351
1.66923
1.72544
1.78208
1.83908
1.89637
1.95389
2.01157
2.06934
2.12714
2.1849
2.24257
2.30007
2.35736
2.41437
2.47105
2.52735
2.58323
2.63859
2.6933
2.7473
2.80055
2.85301
2.90463
2.95538
3.00521
3.0541
3.102
3.14887
3.19469
3.23942
3.28303
3.32549
3.36677
3.40684
3.44568
3.48325
3.51954
3.55451
3.58816
3.62045
3.65137
3.68091
3.70904
3.73575
3.76103
3.78486
3.80724
3.82814
3.84757
3.8655
3.88194
3.89688
3.91032
3.92224
3.93266
3.94156
3.94895
3.95483
3.9592
3.96206
3.96343
3.96331
3.9617
3.95862
3.95408
3.94808
3.94065
3.93179
3.92153
3.90988
3.89687
3.8825
3.86682
3.84983
3.83157
3.81207
3.79135
3.76944
3.74637
3.72219
3.69691
3.67058
3.64324
3.61491
3.58565
3.55548
3.52445
3.4926
3.45997
3.4266
3.39253
3.35781
3.32247
3.28656
3.25012
3.21319
3.17581
3.13802
3.09987
3.0614
3.02263
2.9836
2.94436
2.90494
2.86537
2.82567
2.7859
2.74606
2.7062
2.66633
2.62649
2.58671
2.547
2.50739
2.4679
2.42857
2.3894
2.35044
2.31171
2.27323
2.23504
2.19718
2.1597
2.12264
2.08607
2.05005
2.01466
1.97999
1.9461
1.91308
1.8809
1.84966
0.0747801
0.109378
0.138436
0.160873
0.179983
0.197375
0.213896
0.230053
0.246181
0.262519
0.279251
0.296524
0.314461
0.33317
0.352746
0.373276
0.394838
0.417506
0.441346
0.466417
0.492774
0.520462
0.54952
0.57998
0.611867
0.645196
0.679978
0.716213
0.753896
0.793011
0.833539
0.875451
0.918715
0.963291
1.00913
1.0562
1.10443
1.15378
1.20419
1.25559
1.30793
1.36114
1.41516
1.46993
1.52539
1.58146
1.63808
1.6952
1.75274
1.81064
1.86884
1.92727
1.98587
2.04459
2.10335
2.1621
2.22078
2.27933
2.33769
2.39581
2.45363
2.51111
2.5682
2.62486
2.68098
2.73644
2.79119
2.84519
2.89841
2.95081
3.00234
3.05297
3.10267
3.1514
3.19912
3.24579
3.2914
3.33591
3.37928
3.4215
3.46252
3.50232
3.54089
3.57818
3.61418
3.64887
3.68222
3.71421
3.74483
3.77405
3.80186
3.82825
3.85319
3.87668
3.8987
3.91924
3.9383
3.95585
3.9719
3.98643
3.99945
4.01095
4.02091
4.02936
4.03627
4.04166
4.04553
4.04787
4.0487
4.04802
4.04584
4.04217
4.03702
4.0304
4.02233
4.01282
4.00189
3.98956
3.97584
3.96076
3.94435
3.92663
3.90761
3.88735
3.86585
3.84316
3.8193
3.79431