/*--------------------------------*- C++ -*----------------------------------*\
| =========                 |                                                 |
| \\      /  F ield         | OpenFOAM: The Open Source CFD Toolbox           |
|  \\    /   O peration     | Version:  2412                                  |
|   \\  /    A nd           | Website:  www.openfoam.com                      |
|    \\/     M anipulation  |                                                 |
\*---------------------------------------------------------------------------*/
FoamFile
{
    version     2.0;
    format      ascii;
    arch        "LSB;label=32;scalar=64";
    class       volScalarField;
    location    "0.12";
    object      nut;
}
// * * * * * * * * * * * * * * * * * * * * * * * * * * * * * * * * * * * * * //

dimensions      [0 2 -1 0 0 0 0];

internalField   nonuniform List<scalar> 
12225
(
2.015e-05
2.24858e-05
2.4749e-05
2.63713e-05
2.75878e-05
2.8514e-05
2.9232e-05
2.97977e-05
3.0248e-05
3.06093e-05
3.0901e-05
3.11372e-05
3.13284e-05
3.14824e-05
3.16049e-05
3.16992e-05
3.17684e-05
3.18309e-05
0.000167792
0.000185428
0.000202597
0.000213786
0.000221145
0.000225984
0.000229001
0.000230719
0.000231514
0.000231643
0.000231292
0.000230594
0.00022965
0.000228531
0.000227296
0.000225971
0.00022471
0.00022408
0.000338328
0.000365993
0.000399361
0.000424406
0.000442778
0.000456137
0.000465647
0.000472247
0.000476656
0.000479408
0.000480903
0.000481445
0.000481262
0.000480527
0.000479375
0.000477904
0.000476308
0.000475497
0.000480631
0.00052177
0.000570121
0.000608389
0.000637801
0.000660207
0.000677096
0.000689689
0.00069895
0.000705622
0.000710276
0.000713355
0.000715202
0.000716082
0.000716205
0.000715738
0.00071492
0.000714471
0.000593569
0.000650966
0.000713489
0.000763784
0.000803282
0.00083412
0.000858086
0.000876627
0.000890892
0.000901781
0.000909994
0.000916084
0.000920486
0.000923542
0.000925527
0.00092667
0.000927228
0.000927723
0.000684416
0.000756655
0.000831949
0.000893052
0.000941624
0.000980102
0.00101056
0.00103465
0.00105369
0.0010687
0.00108048
0.00108966
0.00109677
0.00110221
0.0011063
0.00110932
0.00111154
0.00111335
0.000759755
0.000842838
0.00092829
0.000998647
0.00105522
0.00110054
0.00113687
0.00116606
0.00118953
0.00120842
0.00122362
0.00123584
0.00124564
0.00125348
0.00125975
0.00126474
0.00126872
0.00127199
0.000823623
0.000913363
0.00100525
0.00108261
0.00114578
0.00119702
0.00123858
0.00127237
0.00129992
0.00132244
0.00134087
0.00135598
0.0013684
0.00137862
0.00138705
0.00139402
0.00139977
0.00140455
0.000877001
0.000970914
0.0010653
0.00114672
0.00121456
0.00127046
0.0013164
0.00135422
0.00138543
0.00141127
0.00143273
0.0014506
0.00146554
0.00147807
0.00148863
0.00149755
0.00150506
0.00151133
0.000918256
0.00101593
0.00110995
0.00119241
0.00126253
0.00132141
0.00137056
0.00141158
0.00144589
0.00147465
0.00149885
0.00151928
0.00153662
0.00155138
0.00156401
0.00157485
0.00158409
0.00159183
0.000944751
0.00104624
0.0011388
0.00122007
0.00129016
0.00135005
0.00140092
0.00144404
0.00148062
0.00151173
0.00153826
0.00156097
0.0015805
0.00159736
0.00161197
0.00162467
0.00163561
0.00164479
0.00095393
0.00105647
0.00114714
0.00122621
0.0012948
0.00135414
0.00140529
0.00144932
0.00148722
0.0015199
0.00154814
0.00157263
0.00159395
0.00161257
0.0016289
0.00164323
0.00165569
0.00166618
0.000951547
0.0010519
0.0011407
0.00121792
0.00128483
0.00134291
0.00139339
0.00143727
0.00147548
0.00150883
0.001538
0.0015636
0.00158614
0.00160606
0.00162372
0.00163936
0.00165308
0.00166465
0.000937269
0.00102694
0.00110962
0.00118334
0.00124795
0.00130436
0.00135365
0.00139679
0.00143468
0.00146806
0.00149757
0.00152377
0.00154711
0.00156798
0.00158669
0.00160345
0.00161829
0.00163083
0.000914069
0.000982523
0.00105001
0.00111403
0.00117279
0.00122569
0.00127284
0.00131466
0.00135174
0.00138468
0.00141404
0.00144032
0.00146394
0.00148526
0.00150456
0.00152202
0.00153764
0.00155089
0.000888184
0.000929371
0.000972538
0.00101674
0.00106059
0.00110293
0.00114295
0.00118016
0.00121433
0.0012455
0.00127382
0.00129954
0.00132292
0.0013442
0.00136362
0.00138133
0.00139732
0.00141101
0.000866167
0.000882908
0.000901464
0.000921836
0.000943725
0.000966738
0.000990446
0.0010144
0.00103818
0.00106141
0.00108383
0.00110525
0.00112556
0.00114468
0.00116259
0.00117931
0.00119477
0.00120854
0.000853648
0.000856465
0.000860485
0.000865726
0.00087214
0.000879661
0.00088822
0.000897728
0.00090807
0.000919117
0.000930731
0.00094277
0.000955097
0.00096759
0.000980127
0.000992588
0.00100485
0.0010167
0.000856836
0.000863037
0.000870429
0.000879019
0.000888693
0.000899297
0.000910664
0.000922608
0.000934936
0.000947461
0.000960016
0.000972463
0.000984689
0.00099661
0.00100817
0.00101932
0.00103001
0.00104001
0.000879012
0.000910087
0.000942996
0.000977087
0.00101136
0.00104491
0.00107704
0.00110728
0.00113531
0.00116106
0.00118452
0.00120582
0.00122512
0.00124257
0.00125835
0.00127264
0.00128554
0.00129713
0.000912425
0.000978626
0.00104328
0.00110414
0.00115967
0.00120943
0.00125355
0.00129247
0.00132672
0.00135685
0.00138338
0.00140679
0.00142748
0.00144579
0.00146204
0.00147648
0.00148933
0.00150087
0.00094465
0.00103936
0.00112414
0.00119815
0.00126208
0.00131724
0.0013649
0.00140607
0.00144168
0.00147251
0.00149925
0.00152247
0.00154267
0.00156028
0.00157565
0.00158908
0.00160084
0.00161118
0.000952969
0.00105495
0.00114494
0.00122285
0.00128968
0.00134679
0.00139546
0.00143683
0.00147198
0.00150187
0.00152733
0.00154905
0.0015676
0.00158348
0.00159708
0.00160874
0.00161874
0.0016273
0.000919763
0.00101577
0.00110711
0.00118655
0.00125365
0.00130982
0.00135662
0.00139555
0.00142799
0.00145506
0.00147771
0.00149667
0.00151258
0.00152593
0.00153714
0.00154655
0.00155442
0.00156096
0.000847921
0.000936213
0.00102591
0.00110193
0.00116439
0.00121544
0.00125709
0.00129112
0.00131899
0.00134186
0.00136064
0.00137608
0.00138877
0.00139919
0.00140772
0.00141468
0.00142032
0.0014248
0.000748242
0.000825345
0.000905837
0.000972006
0.00102523
0.00106796
0.00110226
0.00112982
0.00115199
0.00116982
0.00118415
0.00119563
0.00120479
0.00121206
0.00121778
0.00122223
0.00122561
0.00122806
0.000620839
0.000679398
0.000743805
0.000795903
0.000837073
0.000869524
0.000895048
0.000915074
0.000930741
0.000942943
0.00095238
0.000959604
0.000965051
0.000969068
0.000971931
0.00097386
0.000975031
0.000975559
0.000453206
0.00049108
0.000536514
0.000572229
0.00059936
0.000619978
0.000635561
0.000647222
0.000655841
0.000662101
0.000666522
0.000669503
0.000671358
0.000672328
0.000672606
0.00067234
0.00067165
0.000670633
0.00023657
0.000259231
0.000284033
0.000301437
0.000313163
0.000321244
0.000326757
0.000330376
0.000332604
0.000333806
0.000334245
0.000334114
0.00033356
0.000332691
0.000331591
0.000330324
0.00032894
0.000327502
2.7242e-05
3.0171e-05
3.32398e-05
3.54419e-05
3.70549e-05
3.82623e-05
3.91813e-05
3.9894e-05
4.04549e-05
4.09007e-05
4.12582e-05
4.1547e-05
4.17816e-05
4.1973e-05
4.21298e-05
4.22587e-05
4.23645e-05
4.2452e-05
5.8876e-06
1.58781e-05
1.78369e-05
1.91511e-05
2.0053e-05
2.08253e-05
2.16514e-05
2.2469e-05
2.32905e-05
2.4155e-05
2.51524e-05
2.63913e-05
2.77044e-05
2.9056e-05
3.04259e-05
3.18078e-05
3.31979e-05
3.45925e-05
3.59868e-05
3.73764e-05
3.87572e-05
4.01261e-05
4.14813e-05
4.2822e-05
4.41491e-05
4.5465e-05
4.67737e-05
4.80812e-05
4.93752e-05
5.06478e-05
5.18984e-05
5.31273e-05
5.43348e-05
5.55214e-05
5.66876e-05
5.78341e-05
5.89614e-05
6.00701e-05
6.11609e-05
6.22341e-05
6.32904e-05
6.43302e-05
6.53538e-05
6.63615e-05
6.73537e-05
6.83306e-05
6.92922e-05
7.02388e-05
7.11704e-05
7.20871e-05
7.29887e-05
7.38754e-05
7.47469e-05
7.56034e-05
7.64445e-05
7.72702e-05
7.80804e-05
7.88748e-05
7.96534e-05
8.0416e-05
8.11623e-05
8.18923e-05
8.26057e-05
8.33025e-05
8.39823e-05
8.46451e-05
8.52908e-05
8.59193e-05
8.65306e-05
8.71248e-05
8.77026e-05
8.82648e-05
8.88131e-05
8.93509e-05
8.98736e-05
9.03763e-05
9.08598e-05
9.13245e-05
9.17706e-05
9.21982e-05
9.26071e-05
9.29974e-05
9.33689e-05
9.37216e-05
9.40553e-05
9.43702e-05
9.46661e-05
9.49429e-05
9.52007e-05
9.54395e-05
9.56591e-05
9.58598e-05
9.60413e-05
9.62038e-05
9.63472e-05
9.64717e-05
9.65771e-05
9.66636e-05
9.67312e-05
9.678e-05
9.68098e-05
9.6821e-05
9.68134e-05
9.67871e-05
9.67422e-05
9.66788e-05
9.65969e-05
9.64966e-05
9.6378e-05
9.62411e-05
9.60861e-05
9.59129e-05
9.57218e-05
9.55128e-05
9.5286e-05
9.50415e-05
9.47794e-05
9.45e-05
9.42032e-05
9.38893e-05
9.35585e-05
9.32108e-05
9.28464e-05
9.24657e-05
9.20686e-05
9.16556e-05
9.12267e-05
9.07823e-05
9.03227e-05
8.9848e-05
8.93585e-05
8.88546e-05
8.83367e-05
8.78049e-05
8.72598e-05
8.67017e-05
8.61306e-05
8.55481e-05
8.49537e-05
8.43485e-05
8.37372e-05
8.31335e-05
8.26579e-05
8.22622e-05
8.18644e-05
8.14582e-05
8.10433e-05
8.06198e-05
8.01882e-05
7.97487e-05
7.93019e-05
7.88483e-05
7.83882e-05
7.79224e-05
7.74512e-05
7.69754e-05
7.64954e-05
7.60119e-05
7.55255e-05
7.50369e-05
7.45467e-05
7.40556e-05
7.35642e-05
7.30732e-05
7.25833e-05
7.2095e-05
7.16088e-05
7.11254e-05
7.06449e-05
7.01675e-05
6.96933e-05
6.92215e-05
6.87513e-05
6.82802e-05
6.78044e-05
6.7316e-05
6.67978e-05
6.62075e-05
6.54634e-05
6.447e-05
8.47159e-06
3.94368e-05
7.64506e-05
0.000104355
0.00012345
0.000135249
0.0001417
0.00014614
0.000150187
0.000154342
0.000158579
0.000162801
0.000167096
0.000171539
0.000176215
0.000181203
0.000186568
0.000192355
0.000198587
0.000205272
0.0002124
0.000219951
0.000227893
0.000236191
0.0002448
0.000253677
0.000262779
0.000272072
0.000281539
0.000291158
0.000300904
0.000310754
0.000320686
0.000330683
0.000340728
0.00035081
0.000360917
0.000371042
0.000381178
0.000391321
0.000401467
0.000411614
0.00042176
0.000431903
0.000442041
0.000452174
0.000462299
0.000472415
0.000482519
0.000492609
0.000502683
0.000512736
0.000522766
0.000532768
0.000542739
0.000552673
0.000562565
0.000572412
0.000582207
0.000591945
0.000601621
0.00061123
0.000620766
0.000630224
0.000639598
0.000648882
0.000658069
0.00066715
0.000676114
0.000684945
0.000693619
0.000702102
0.000710345
0.000718116
0.000725441
0.000732584
0.000739586
0.000746453
0.000753185
0.00075978
0.000766235
0.000772549
0.000778718
0.00078474
0.000790613
0.000796336
0.000801905
0.000807319
0.000812576
0.000817675
0.000822614
0.000827391
0.000832006
0.000836457
0.000840744
0.000844864
0.000848818
0.000852604
0.000856221
0.00085967
0.000862949
0.000866057
0.000868994
0.00087176
0.000874354
0.000876775
0.000879023
0.000881098
0.000882999
0.000884726
0.000886278
0.000887655
0.000888858
0.000889884
0.000890735
0.000891411
0.00089191
0.000892233
0.000892381
0.000892352
0.000892148
0.000891768
0.000891213
0.000890483
0.000889579
0.000888501
0.000887251
0.000885829
0.000884237
0.000882474
0.000880544
0.000878447
0.000876185
0.000873761
0.000871174
0.000868432
0.000865528
0.000862477
0.000859279
0.000855904
0.000852286
0.000848167
0.000842659
0.000836199
0.000829391
0.000822398
0.000815273
0.000808038
0.000800709
0.000793293
0.000785801
0.00077824
0.000770618
0.000762941
0.000755217
0.000747453
0.000739656
0.000731833
0.000723991
0.000716135
0.000708274
0.000700412
0.000692556
0.000684712
0.000676884
0.000669077
0.000661296
0.000653543
0.000645821
0.000638131
0.000630471
0.000622838
0.000615224
0.000607619
0.000599997
0.000592322
0.000584494
0.000576306
0.000564832
0.000541672
1.02069e-05
6.48834e-05
0.000126195
0.000171692
0.000202348
0.000222179
0.000235245
0.000244724
0.000252736
0.000260462
0.000268448
0.000276922
0.000286003
0.000295777
0.000306322
0.000317712
0.000330006
0.000343239
0.00035742
0.000372533
0.000388535
0.000405367
0.000422955
0.000441217
0.000460068
0.000479421
0.000499199
0.000519331
0.000539755
0.000560417
0.000581267
0.00060226
0.00062336
0.000644537
0.000665767
0.000687031
0.000708314
0.000729606
0.000750897
0.000772184
0.000793461
0.000814725
0.000835974
0.000857205
0.000878415
0.000899602
0.000920761
0.000941889
0.000962981
0.00098403
0.00100503
0.00102597
0.00104685
0.00106766
0.00108838
0.001109
0.00112952
0.00114993
0.0011702
0.00119034
0.00121032
0.00123014
0.00124977
0.00126921
0.00128844
0.00130745
0.0013262
0.0013447
0.0013629
0.00138078
0.00139831
0.00141544
0.00143214
0.00144819
0.00146379
0.00147905
0.00149401
0.00150868
0.00152305
0.00153712
0.00155089
0.00156435
0.00157749
0.00159032
0.00160282
0.00161499
0.00162683
0.00163833
0.00164949
0.0016603
0.00167077
0.00168088
0.00169064
0.00170004
0.00170908
0.00171776
0.00172608
0.00173403
0.00174161
0.00174882
0.00175566
0.00176213
0.00176823
0.00177395
0.00177929
0.00178426
0.00178886
0.00179307
0.00179691
0.00180036
0.00180344
0.00180613
0.00180844
0.00181037
0.00181192
0.00181309
0.00181387
0.00181427
0.00181429
0.00181393
0.00181318
0.00181206
0.00181055
0.00180867
0.00180641
0.00180378
0.00180078
0.0017974
0.00179366
0.00178955
0.00178508
0.00178026
0.00177508
0.00176956
0.0017637
0.0017575
0.00175098
0.00174414
0.00173697
0.00172942
0.00172137
0.00171251
0.00170226
0.00169086
0.00167877
0.00166625
0.0016534
0.00164026
0.00162688
0.00161327
0.00159946
0.00158546
0.00157129
0.00155696
0.00154249
0.00152789
0.00151318
0.00149837
0.00148347
0.00146851
0.00145349
0.00143842
0.00142333
0.00140822
0.00139311
0.00137801
0.00136292
0.00134786
0.00133284
0.00131785
0.0013029
0.00128799
0.00127308
0.00125817
0.00124319
0.00122804
0.00121247
0.00119585
0.00117521
0.00113927
1.15196e-05
8.53884e-05
0.000164875
0.000223308
0.000263927
0.000291924
0.000311742
0.000326851
0.000339729
0.000351971
0.000364501
0.000377813
0.00039216
0.000407679
0.000424449
0.000442517
0.000461902
0.000482594
0.000504555
0.000527721
0.000552007
0.000577312
0.000603526
0.000630537
0.000658234
0.000686511
0.000715272
0.000744432
0.000773914
0.000803653
0.000833593
0.000863685
0.000893892
0.000924181
0.000954528
0.000984912
0.00101532
0.00104574
0.00107616
0.00110658
0.00113698
0.00116737
0.00119774
0.00122809
0.00125841
0.00128869
0.00131893
0.00134911
0.00137924
0.0014093
0.00143927
0.00146915
0.00149893
0.00152858
0.0015581
0.00158746
0.00161666
0.00164567
0.00167448
0.00170307
0.00173141
0.0017595
0.00178731
0.00181481
0.001842
0.00186884
0.00189531
0.00192139
0.00194705
0.00197226
0.001997
0.00202123
0.00204487
0.00206788
0.00209038
0.00211243
0.00213404
0.00215523
0.002176
0.00219634
0.00221624
0.0022357
0.00225471
0.00227326
0.00229134
0.00230896
0.00232609
0.00234275
0.00235891
0.00237458
0.00238975
0.00240442
0.00241858
0.00243223
0.00244536
0.00245797
0.00247006
0.00248163
0.00249267
0.00250317
0.00251315
0.00252259
0.00253149
0.00253986
0.00254768
0.00255496
0.0025617
0.0025679
0.00257354
0.00257864
0.0025832
0.0025872
0.00259065
0.00259355
0.0025959
0.0025977
0.00259894
0.00259964
0.00259978
0.00259937
0.0025984
0.00259689
0.00259483
0.00259223
0.00258908
0.00258538
0.00258115
0.00257638
0.00257109
0.00256526
0.00255892
0.00255205
0.00254469
0.00253682
0.00252846
0.00251962
0.00251031
0.00250051
0.00249022
0.00247938
0.00246789
0.00245552
0.00244196
0.00242732
0.00241184
0.00239574
0.00237914
0.00236209
0.00234465
0.00232685
0.00230871
0.00229027
0.00227154
0.00225254
0.0022333
0.00221382
0.00219414
0.00217428
0.00215425
0.00213407
0.00211376
0.00209335
0.00207285
0.00205228
0.00203166
0.00201101
0.00199034
0.00196968
0.00194902
0.00192839
0.00190777
0.00188718
0.00186658
0.00184596
0.00182523
0.00180426
0.00178272
0.00175983
0.00173295
0.00169427
1.24587e-05
0.000101839
0.000195295
0.000265504
0.000315979
0.000352231
0.000379023
0.000400109
0.000418259
0.000435375
0.000452668
0.00047085
0.000490312
0.000511255
0.000533767
0.000557871
0.000583543
0.000610728
0.000639344
0.000669288
0.000700444
0.000732685
0.000765884
0.000799917
0.000834663
0.000870014
0.000905868
0.000942139
0.000978747
0.00101563
0.00105272
0.00108998
0.00112738
0.00116486
0.00120242
0.00124002
0.00127766
0.00131531
0.00135297
0.00139063
0.00142827
0.0014659
0.00150349
0.00154106
0.00157857
0.00161603
0.00165343
0.00169075
0.00172798
0.00176511
0.00180211
0.00183899
0.00187571
0.00191226
0.00194863
0.00198478
0.00202071
0.00205638
0.00209179
0.0021269
0.0021617
0.00219616
0.00223025
0.00226397
0.00229727
0.00233014
0.00236255
0.00239448
0.0024259
0.0024568
0.00248714
0.00251692
0.002546
0.00257446
0.00260234
0.00262969
0.00265652
0.00268284
0.00270863
0.0027339
0.00275864
0.00278284
0.00280649
0.00282959
0.00285212
0.00287408
0.00289546
0.00291625
0.00293645
0.00295605
0.00297504
0.00299342
0.00301118
0.00302832
0.00304483
0.0030607
0.00307594
0.00309054
0.0031045
0.00311781
0.00313046
0.00314247
0.00315381
0.0031645
0.00317453
0.00318389
0.00319259
0.00320062
0.00320797
0.00321466
0.00322067
0.00322601
0.00323067
0.00323465
0.00323795
0.00324057
0.00324251
0.00324377
0.00324436
0.00324426
0.00324348
0.00324202
0.00323988
0.00323707
0.00323359
0.00322943
0.00322461
0.00321913
0.00321299
0.00320619
0.00319875
0.00319068
0.00318197
0.00317264
0.0031627
0.00315216
0.00314101
0.00312926
0.00311688
0.00310385
0.00309007
0.00307542
0.00305973
0.00304303
0.00302546
0.00300715
0.00298821
0.0029687
0.00294868
0.00292817
0.00290723
0.00288586
0.0028641
0.00284197
0.0028195
0.0027967
0.00277361
0.00275023
0.00272661
0.00270276
0.0026787
0.00265446
0.00263007
0.00260554
0.0025809
0.00255617
0.00253138
0.00250654
0.00248167
0.00245678
0.00243188
0.00240698
0.00238205
0.00235708
0.00233199
0.00230664
0.00228071
0.00225343
0.00222281
0.00218481
1.34417e-05
0.000111722
0.000217688
0.000299323
0.000359635
0.000404319
0.000438372
0.000465766
0.000489495
0.000511694
0.000533796
0.000556701
0.000580928
0.000606751
0.000634283
0.000663544
0.000694488
0.000727033
0.000761071
0.000796477
0.000833118
0.00087086
0.000909569
0.000949118
0.000989389
0.00103027
0.00107167
0.0011135
0.00115568
0.00119815
0.00124084
0.00128372
0.00132675
0.00136988
0.00141309
0.00145636
0.00149966
0.00154299
0.00158632
0.00162964
0.00167295
0.00171622
0.00175945
0.00180263
0.00184574
0.00188877
0.00193171
0.00197454
0.00201725
0.00205982
0.00210223
0.00214447
0.00218651
0.00222834
0.00226993
0.00231126
0.00235231
0.00239305
0.00243347
0.00247354
0.00251323
0.00255252
0.00259139
0.00262981
0.00266776
0.00270521
0.00274214
0.00277854
0.00281437
0.00284961
0.00288426
0.00291827
0.00295158
0.00298422
0.00301626
0.0030477
0.00307856
0.00310885
0.00313855
0.00316767
0.0031962
0.00322412
0.00325143
0.00327811
0.00330416
0.00332958
0.00335434
0.00337845
0.00340189
0.00342466
0.00344675
0.00346815
0.00348885
0.00350886
0.00352816
0.00354675
0.00356463
0.00358178
0.00359821
0.0036139
0.00362886
0.00364309
0.00365657
0.00366931
0.00368129
0.00369253
0.00370301
0.00371274
0.0037217
0.0037299
0.00373734
0.00374401
0.00374991
0.00375504
0.0037594
0.00376298
0.00376579
0.00376783
0.00376908
0.00376957
0.00376927
0.00376821
0.00376637
0.00376376
0.00376038
0.00375624
0.00375133
0.00374566
0.00373924
0.00373208
0.00372417
0.00371553
0.00370616
0.00369608
0.00368529
0.0036738
0.00366161
0.00364872
0.00363513
0.0036208
0.00360567
0.00358968
0.00357274
0.00355485
0.00353607
0.0035165
0.00349622
0.00347528
0.00345372
0.0034316
0.00340893
0.00338576
0.00336209
0.00333798
0.00331342
0.00328846
0.00326312
0.00323741
0.00321137
0.00318503
0.0031584
0.00313151
0.00310439
0.00307707
0.00304956
0.00302191
0.00299412
0.00296623
0.00293826
0.00291021
0.00288212
0.00285399
0.00282582
0.00279758
0.00276922
0.00274063
0.00271151
0.00268123
0.00264838
0.0026109
1.4412e-05
0.000116731
0.000233041
0.00032531
0.000395184
0.000448288
0.000489734
0.000523629
0.000553116
0.000580495
0.000607366
0.00063478
0.000663375
0.000693506
0.000725334
0.000758896
0.000794152
0.000831015
0.000869369
0.000909086
0.000950029
0.000992064
0.00103506
0.00107889
0.00112344
0.0011686
0.00121429
0.00126042
0.00130691
0.0013537
0.00140073
0.00144795
0.00149533
0.00154282
0.0015904
0.00163804
0.00168572
0.00173341
0.00178111
0.00182878
0.00187643
0.00192402
0.00197156
0.00201902
0.00206639
0.00211366
0.0021608
0.00220781
0.00225467
0.00230135
0.00234784
0.00239412
0.00244017
0.00248597
0.00253149
0.00257671
0.00262162
0.00266617
0.00271036
0.00275416
0.00279754
0.00284048
0.00288295
0.00292493
0.0029664
0.00300733
0.00304771
0.00308751
0.00312671
0.0031653
0.00320325
0.00324051
0.00327706
0.00331295
0.0033482
0.00338283
0.00341685
0.00345025
0.00348303
0.00351519
0.00354671
0.0035776
0.00360783
0.00363739
0.00366628
0.00369449
0.003722
0.00374881
0.00377491
0.00380029
0.00382493
0.00384885
0.00387201
0.00389443
0.00391608
0.00393698
0.0039571
0.00397644
0.003995
0.00401276
0.00402974
0.00404592
0.00406129
0.00407587
0.00408963
0.00410257
0.0041147
0.004126
0.00413648
0.00414613
0.00415495
0.00416294
0.00417009
0.00417641
0.00418188
0.00418651
0.00419029
0.00419324
0.00419534
0.00419659
0.00419699
0.00419656
0.00419528
0.00419315
0.00419019
0.00418639
0.00418176
0.00417629
0.00417
0.00416289
0.00415496
0.00414624
0.00413672
0.00412641
0.00411532
0.00410346
0.00409083
0.00407744
0.00406327
0.00404832
0.00403254
0.0040159
0.00399835
0.00397989
0.00396055
0.00394039
0.00391946
0.00389781
0.00387547
0.00385249
0.0038289
0.00380472
0.00377998
0.0037547
0.00372892
0.00370265
0.00367592
0.00364876
0.00362119
0.00359323
0.00356492
0.00353627
0.00350732
0.00347809
0.00344861
0.00341891
0.00338901
0.00335894
0.00332872
0.00329839
0.00326795
0.00323743
0.00320684
0.00317617
0.0031454
0.00311442
0.00308301
0.00305071
0.0030165
0.00297934
1.51784e-05
0.000118978
0.000242987
0.000344422
0.000423119
0.0004843
0.000533014
0.000573394
0.000608652
0.000641183
0.000672704
0.000704379
0.000736956
0.00077087
0.000806346
0.000843459
0.000882196
0.000922485
0.00096422
0.00100728
0.00105153
0.00109685
0.00114312
0.0011902
0.001238
0.0012864
0.00133533
0.0013847
0.00143444
0.00148449
0.00153478
0.00158527
0.00163591
0.00168667
0.00173752
0.00178843
0.00183937
0.00189031
0.00194125
0.00199216
0.00204302
0.00209381
0.00214453
0.00219516
0.00224567
0.00229606
0.0023463
0.00239639
0.0024463
0.00249601
0.00254551
0.00259477
0.00264378
0.00269252
0.00274095
0.00278906
0.00283683
0.00288423
0.00293124
0.00297783
0.00302398
0.00306967
0.00311487
0.00315956
0.00320371
0.0032473
0.00329032
0.00333274
0.00337455
0.00341572
0.00345624
0.00349604
0.00353514
0.00357358
0.00361138
0.00364855
0.00368509
0.003721
0.00375627
0.0037909
0.00382488
0.00385819
0.00389082
0.00392277
0.00395401
0.00398455
0.00401437
0.00404345
0.0040718
0.00409939
0.00412622
0.00415228
0.00417756
0.00420206
0.00422576
0.00424866
0.00427075
0.00429202
0.00431247
0.00433209
0.00435087
0.00436881
0.00438591
0.00440215
0.00441754
0.00443207
0.00444574
0.00445853
0.00447045
0.0044815
0.00449166
0.00450095
0.00450935
0.00451686
0.00452348
0.0045292
0.00453404
0.00453799
0.00454103
0.00454317
0.00454441
0.00454477
0.00454423
0.00454278
0.00454044
0.00453721
0.00453309
0.00452809
0.00452222
0.00451547
0.00450786
0.0044994
0.00449009
0.00447993
0.00446895
0.00445714
0.00444452
0.00443107
0.00441681
0.00440173
0.0043858
0.00436901
0.00435132
0.00433275
0.00431331
0.00429302
0.00427194
0.00425008
0.0042275
0.00420422
0.00418026
0.00415566
0.00413044
0.00410462
0.00407823
0.00405129
0.00402382
0.00399585
0.0039674
0.0039385
0.00390917
0.00387944
0.00384933
0.00381887
0.00378809
0.00375702
0.00372568
0.0036941
0.00366231
0.00363034
0.00359821
0.00356596
0.0035336
0.00350115
0.0034686
0.00343588
0.00340285
0.00336915
0.00333411
0.00329715
1.57675e-05
0.000119207
0.000248518
0.000357497
0.000444027
0.000512692
0.000568318
0.000614966
0.000655838
0.00069337
0.000729343
0.000765008
0.000801198
0.000838431
0.000876995
0.000917023
0.000958539
0.0010015
0.00104583
0.00109141
0.00113814
0.00118589
0.00123455
0.001284
0.00133415
0.0013849
0.00143617
0.00148786
0.00153992
0.00159228
0.00164488
0.00169768
0.00175063
0.00180369
0.00185684
0.00191003
0.00196325
0.00201647
0.00206967
0.00212282
0.00217592
0.00222895
0.00228189
0.00233472
0.00238743
0.00244
0.00249242
0.00254467
0.00259673
0.0026486
0.00270024
0.00275164
0.00280277
0.00285363
0.00290419
0.00295441
0.00300429
0.0030538
0.00310291
0.0031516
0.00319985
0.00324762
0.0032949
0.00334167
0.0033879
0.00343356
0.00347864
0.00352312
0.00356698
0.0036102
0.00365275
0.0036946
0.00373577
0.0037763
0.0038162
0.00385547
0.00389411
0.00393211
0.00396948
0.0040062
0.00404225
0.00407763
0.00411233
0.00414633
0.00417961
0.00421217
0.00424399
0.00427507
0.00430538
0.00433492
0.00436368
0.00439165
0.00441882
0.00444518
0.00447072
0.00449543
0.0045193
0.00454233
0.0045645
0.00458581
0.00460625
0.00462582
0.00464451
0.00466232
0.00467925
0.00469528
0.0047104
0.00472462
0.00473793
0.00475033
0.00476181
0.00477238
0.00478203
0.00479074
0.00479852
0.00480537
0.00481129
0.0048163
0.00482035
0.00482346
0.00482563
0.00482687
0.00482717
0.00482654
0.00482497
0.00482248
0.00481906
0.00481473
0.00480947
0.00480332
0.00479625
0.0047883
0.00477946
0.00476974
0.00475915
0.0047477
0.00473539
0.00472223
0.00470822
0.00469336
0.00467764
0.00466105
0.00464359
0.00462524
0.00460602
0.00458595
0.00456507
0.00454338
0.00452094
0.00449775
0.00447384
0.00444924
0.00442398
0.00439806
0.00437152
0.00434437
0.00431664
0.00428835
0.00425952
0.00423018
0.00420034
0.00417003
0.00413927
0.0041081
0.00407654
0.00404461
0.00401234
0.00397977
0.00394692
0.00391383
0.00388053
0.00384705
0.00381342
0.00377968
0.00374584
0.00371187
0.00367768
0.00364302
0.00360742
0.00357058
1.6206e-05
0.000117911
0.00025041
0.000365302
0.000458543
0.000533928
0.000595938
0.00064847
0.000694659
0.000736928
0.000777086
0.000816438
0.000855884
0.000896012
0.000937177
0.00097957
0.00102326
0.00106825
0.00111448
0.00116188
0.00121034
0.00125977
0.00131005
0.00136108
0.00141278
0.00146505
0.00151781
0.00157098
0.0016245
0.00167831
0.00173235
0.00178657
0.00184094
0.00189541
0.00194996
0.00200454
0.00205915
0.00211375
0.00216832
0.00222286
0.00227733
0.00233174
0.00238605
0.00244026
0.00249436
0.00254832
0.00260215
0.00265581
0.0027093
0.0027626
0.00281569
0.00286856
0.00292118
0.00297354
0.00302561
0.00307737
0.0031288
0.00317987
0.00323057
0.00328085
0.00333071
0.00338011
0.00342902
0.00347743
0.00352531
0.00357264
0.00361938
0.00366554
0.00371107
0.00375598
0.00380021
0.00384378
0.00388672
0.00392904
0.00397075
0.00401184
0.00405231
0.00409216
0.00413137
0.00416993
0.00420784
0.00424507
0.00428161
0.00431745
0.00435257
0.00438695
0.00442059
0.00445347
0.00448558
0.00451691
0.00454744
0.00457716
0.00460607
0.00463415
0.00466139
0.00468778
0.00471332
0.00473798
0.00476177
0.00478466
0.00480667
0.00482778
0.00484799
0.0048673
0.00488569
0.00490316
0.00491969
0.00493529
0.00494995
0.00496367
0.00497645
0.00498829
0.00499919
0.0050091
0.00501806
0.00502605
0.00503309
0.00503916
0.00504427
0.0050484
0.00505157
0.00505378
0.00505502
0.0050553
0.00505462
0.00505298
0.00505039
0.00504685
0.00504238
0.00503696
0.00503062
0.00502335
0.00501518
0.00500609
0.00499611
0.00498524
0.00497348
0.00496085
0.00494734
0.00493297
0.00491772
0.0049016
0.0048846
0.00486672
0.00484798
0.00482839
0.00480796
0.00478672
0.00476468
0.00474188
0.00471833
0.00469405
0.00466906
0.00464338
0.00461703
0.00459003
0.00456239
0.00453415
0.00450531
0.00447589
0.00444593
0.00441543
0.00438443
0.00435294
0.00432099
0.00428861
0.00425582
0.00422265
0.00418915
0.00415533
0.00412124
0.00408692
0.00405242
0.00401777
0.00398301
0.00394814
0.00391312
0.00387778
0.00384179
0.00380499
1.65145e-05
0.000115476
0.000249324
0.000368543
0.00046731
0.000548542
0.000616279
0.000674189
0.000725284
0.000771933
0.000815942
0.00085864
0.000900975
0.000943591
0.000986906
0.00103116
0.00107649
0.00112291
0.00117043
0.00121898
0.00126849
0.00131887
0.00137004
0.0014219
0.00147437
0.00152736
0.0015808
0.00163463
0.00168878
0.00174319
0.00179781
0.0018526
0.00190753
0.00196255
0.00201764
0.00207278
0.00212793
0.0021831
0.00223824
0.00229336
0.00234844
0.00240347
0.00245843
0.00251332
0.00256812
0.00262282
0.00267742
0.00273189
0.00278623
0.00284042
0.00289444
0.00294828
0.00300191
0.00305531
0.00310847
0.00316136
0.00321395
0.00326623
0.00331815
0.0033697
0.00342085
0.00347157
0.00352183
0.0035716
0.00362086
0.00366959
0.00371775
0.00376533
0.00381231
0.00385866
0.00390439
0.00394951
0.00399404
0.00403798
0.00408133
0.00412409
0.00416624
0.00420778
0.0042487
0.00428897
0.0043286
0.00436755
0.00440581
0.00444337
0.00448021
0.00451631
0.00455165
0.00458623
0.00462003
0.00465304
0.00468524
0.00471662
0.00474717
0.00477688
0.00480575
0.00483375
0.00486087
0.0048871
0.00491243
0.00493686
0.00496037
0.00498297
0.00500464
0.00502539
0.00504521
0.00506409
0.00508201
0.00509896
0.00511495
0.00512997
0.00514403
0.00515712
0.00516923
0.00518036
0.0051905
0.00519966
0.00520783
0.00521502
0.00522122
0.00522643
0.00523065
0.00523389
0.00523614
0.0052374
0.00523769
0.005237
0.00523534
0.00523271
0.00522912
0.00522457
0.00521907
0.00521263
0.00520526
0.00519696
0.00518774
0.00517761
0.00516659
0.00515466
0.00514185
0.00512815
0.00511358
0.00509812
0.00508178
0.00506458
0.0050465
0.00502757
0.0050078
0.0049872
0.0049658
0.0049436
0.00492063
0.0048969
0.00487244
0.00484725
0.00482135
0.00479476
0.0047675
0.00473958
0.00471102
0.00468183
0.00465204
0.00462166
0.00459071
0.00455921
0.00452719
0.00449467
0.00446167
0.00442823
0.00439438
0.00436015
0.00432559
0.00429074
0.00425566
0.00422039
0.00418499
0.00414949
0.00411387
0.00407803
0.00404173
0.0040049
1.67081e-05
0.000112211
0.000245825
0.000367863
0.000470941
0.000557073
0.000629793
0.000692476
0.000747971
0.00079856
0.000846012
0.00089166
0.000936479
0.000981156
0.00102616
0.00107178
0.00111818
0.00116546
0.00121363
0.00126267
0.00131253
0.00136314
0.00141443
0.00146632
0.00151875
0.00157165
0.00162493
0.00167856
0.00173247
0.00178662
0.00184096
0.00189547
0.0019501
0.00200484
0.00205965
0.00211453
0.00216946
0.00222443
0.00227942
0.00233442
0.00238944
0.00244445
0.00249946
0.00255446
0.00260943
0.00266437
0.00271927
0.00277412
0.00282889
0.00288359
0.00293818
0.00299266
0.00304699
0.00310117
0.00315515
0.00320893
0.00326246
0.00331573
0.00336869
0.00342133
0.0034736
0.00352547
0.00357692
0.00362792
0.00367842
0.00372841
0.00377785
0.00382673
0.00387501
0.00392272
0.00396987
0.00401647
0.00406251
0.004108
0.00415293