/*--------------------------------*- C++ -*----------------------------------*\
| =========                 |                                                 |
| \\      /  F ield         | OpenFOAM: The Open Source CFD Toolbox           |
|  \\    /   O peration     | Version:  2412                                  |
|   \\  /    A nd           | Website:  www.openfoam.com                      |
|    \\/     M anipulation  |                                                 |
\*---------------------------------------------------------------------------*/
FoamFile
{
    version     2.0;
    format      ascii;
    arch        "LSB;label=32;scalar=64";
    class       volScalarField;
    location    "0.12";
    object      p;
}
// * * * * * * * * * * * * * * * * * * * * * * * * * * * * * * * * * * * * * //

dimensions      [0 2 -2 0 0 0 0];

internalField   nonuniform List<scalar> 
12225
(
-10.3244
-9.73201
-9.0693
-8.51286
-8.00379
-7.54733
-7.14875
-6.7977
-6.4853
-6.20595
-5.95476
-5.72722
-5.5195
-5.32827
-5.15048
-4.9827
-4.82288
-4.65722
-10.7581
-9.79019
-9.10411
-8.55383
-8.04409
-7.58758
-7.18835
-6.8359
-6.52186
-6.24082
-5.98789
-5.75863
-5.5492
-5.35628
-5.17682
-5.00748
-4.84552
-4.68769
-10.9386
-9.82446
-9.14585
-8.6047
-8.09448
-7.63884
-7.23975
-6.88624
-6.57066
-6.28783
-6.03296
-5.80167
-5.59021
-5.39529
-5.21387
-5.04282
-4.87928
-4.718
-10.9624
-9.84018
-9.17053
-8.63865
-8.13113
-7.67835
-7.28113
-6.92817
-6.61243
-6.32899
-6.0732
-5.8408
-5.62815
-5.43204
-5.24955
-5.07791
-4.91381
-4.75619
-10.8923
-9.83489
-9.17082
-8.64943
-8.14895
-7.70109
-7.30742
-6.95667
-6.64222
-6.35947
-6.10391
-5.87148
-5.65866
-5.46242
-5.27997
-5.10906
-4.94628
-4.79638
-10.7505
-9.80175
-9.14733
-8.63857
-8.14972
-7.70906
-7.32055
-6.97349
-6.66161
-6.38063
-6.1263
-5.89476
-5.68267
-5.48721
-5.30582
-5.13676
-4.97679
-4.83539
-10.5479
-9.73532
-9.10109
-8.60689
-8.13414
-7.70346
-7.32184
-6.97999
-6.67193
-6.39376
-6.14159
-5.91179
-5.70126
-5.50742
-5.32798
-5.1617
-5.00556
-4.87247
-10.295
-9.633
-9.03292
-8.55494
-8.10213
-7.68467
-7.3119
-6.97683
-6.6739
-6.39964
-6.15056
-5.92337
-5.71523
-5.52382
-5.34717
-5.18443
-5.03281
-4.90767
-10.0025
-9.49448
-8.94395
-8.48439
-8.05421
-7.65328
-7.29148
-6.96476
-6.66832
-6.39909
-6.15408
-5.93036
-5.72543
-5.53725
-5.36414
-5.20556
-5.05892
-4.94121
-9.6818
-9.32175
-8.83556
-8.39807
-7.99209
-7.61061
-7.26189
-6.94502
-6.65634
-6.39324
-6.15324
-5.93386
-5.73292
-5.5487
-5.37978
-5.22585
-5.08443
-4.97355
-9.34493
-9.1196
-8.70937
-8.29954
-7.9187
-7.5589
-7.22524
-6.9195
-6.63968
-6.38368
-6.14954
-5.93525
-5.739
-5.55936
-5.39516
-5.24624
-5.11003
-5.00551
-9.03297
-8.91386
-8.57967
-8.2014
-7.8445
-7.50605
-7.18786
-6.89334
-6.62237
-6.37358
-6.14545
-5.93638
-5.74493
-5.56992
-5.41035
-5.26621
-5.13458
-5.03579
-8.73801
-8.69953
-8.44117
-8.09922
-7.76653
-7.45008
-7.14864
-6.86614
-6.60452
-6.3634
-6.14169
-5.93822
-5.75188
-5.58174
-5.42697
-5.28757
-5.16093
-5.06558
-8.43101
-8.45516
-8.27564
-7.97979
-7.67584
-7.38494
-7.10423
-6.83678
-6.58652
-6.35462
-6.14066
-5.9439
-5.7636
-5.59914
-5.44984
-5.31571
-5.19449
-5.10174
-8.13401
-8.20102
-8.09316
-7.84918
-7.57769
-7.31437
-7.05762
-6.80854
-6.57211
-6.35126
-6.14652
-5.95765
-5.78431
-5.62617
-5.48279
-5.3542
-5.23831
-5.14778
-7.87575
-7.96909
-7.91889
-7.72596
-7.4878
-7.25086
-7.01789
-6.78835
-6.56707
-6.35842
-6.16401
-5.98404
-5.81847
-5.66721
-5.53
-5.40694
-5.2961
-5.20719
-7.68836
-7.79645
-7.78774
-7.63891
-7.43216
-7.21861
-7.00617
-6.79405
-6.58644
-6.38859
-6.20318
-6.03093
-5.87201
-5.72655
-5.5943
-5.47528
-5.36791
-5.27816
-7.61211
-7.72443
-7.73695
-7.61532
-7.43036
-7.23346
-7.03566
-6.83645
-6.63941
-6.44996
-6.2714
-6.10477
-5.95028
-5.80792
-5.67766
-5.55926
-5.45168
-5.35625
-7.71187
-7.8189
-7.82525
-7.69862
-7.51043
-7.31173
-7.11314
-6.91395
-6.71758
-6.52925
-6.35198
-6.18661
-6.03311
-5.8913
-5.76084
-5.64105
-5.53166
-5.42951
-7.98847
-8.0829
-8.04949
-7.87795
-7.65642
-7.43375
-7.21541
-7.00013
-6.79187
-6.59515
-6.41186
-6.24205
-6.08524
-5.94088
-5.80826
-5.68628
-5.57471
-5.46786
-8.38209
-8.44021
-8.33785
-8.10344
-7.83915
-7.58424
-7.33817
-7.10045
-6.87544
-6.66626
-6.47334
-6.29601
-6.13338
-5.98453
-5.84846
-5.72396
-5.6106
-5.5024
-8.88264
-8.86237
-8.65418
-8.34443
-8.03241
-7.73847
-7.45883
-7.1954
-6.95164
-6.72833
-6.52447
-6.33868
-6.16958
-6.01578
-5.87593
-5.74862
-5.63306
-5.52356
-9.44676
-9.29118
-8.9473
-8.56445
-8.20786
-7.87438
-7.56242
-7.27585
-7.01535
-6.77918
-6.56528
-6.37173
-6.19662
-6.03813
-5.89461
-5.76446
-5.64663
-5.53604
-10.0112
-9.66524
-9.18216
-8.74438
-8.35047
-7.98098
-7.6416
-7.33597
-7.06124
-6.8139
-6.59134
-6.3911
-6.21078
-6.0482
-5.90145
-5.76877
-5.64889
-5.53738
-10.5153
-9.94679
-9.35115
-8.87936
-8.4528
-8.05234
-7.69156
-7.37113
-7.08505
-6.82893
-6.59969
-6.39436
-6.2101
-6.04445
-5.89529
-5.76073
-5.63934
-5.52736
-10.9168
-10.1244
-9.45791
-8.96579
-8.51069
-8.08679
-7.71111
-7.38009
-7.08586
-6.82359
-6.58978
-6.38102
-6.19416
-6.02654
-5.87588
-5.74017
-5.61789
-5.50586
-11.1881
-10.2079
-9.50815
-9.00147
-8.52512
-8.08635
-7.70115
-7.36317
-7.06377
-6.79779
-6.56134
-6.35072
-6.16257
-5.99406
-5.84282
-5.70676
-5.58428
-5.47277
-11.2954
-10.2233
-9.5088
-8.98574
-8.49737
-8.05105
-7.66026
-7.31847
-7.01673
-6.74939
-6.51226
-6.30144
-6.11342
-5.94527
-5.79452
-5.65904
-5.53717
-5.42684
-11.1627
-10.1935
-9.47377
-8.92811
-8.43481
-7.98616
-7.59303
-7.2504
-6.94899
-6.68255
-6.44664
-6.23726
-6.05079
-5.88421
-5.73502
-5.60105
-5.48057
-5.37181
-10.6316
-10.1012
-9.43119
-8.87119
-8.37615
-7.92726
-7.53367
-7.19166
-6.89159
-6.6267
-6.39241
-6.18468
-5.99983
-5.83482
-5.68711
-5.55454
-5.43528
-5.3275
-4.7278
-4.72754
-4.72905
-4.73185
-4.73503
-4.73817
-4.7413
-4.7446
-4.74818
-4.75219
-4.75678
-4.76209
-4.76826
-4.77541
-4.78368
-4.79319
-4.80408
-4.81645
-4.83041
-4.84603
-4.86334
-4.88235
-4.90302
-4.92527
-4.949
-4.97409
-5.00038
-5.02763
-5.05559
-5.08405
-5.11282
-5.14171
-5.17051
-5.19906
-5.22719
-5.25471
-5.28149
-5.30737
-5.33221
-5.35588
-5.37825
-5.3992
-5.41859
-5.43633
-5.45228
-5.46635
-5.4784
-5.48834
-5.49605
-5.50143
-5.50437
-5.50476
-5.50251
-5.4975
-5.48965
-5.47886
-5.46503
-5.44809
-5.42794
-5.40451
-5.37772
-5.34751
-5.3138
-5.27656
-5.23571
-5.19123
-5.14307
-5.09121
-5.03562
-4.97629
-4.91328
-4.84663
-4.77633
-4.70229
-4.62432
-4.5424
-4.45668
-4.36723
-4.27409
-4.17732
-4.07695
-3.97305
-3.86565
-3.75482
-3.64063
-3.52313
-3.4024
-3.27851
-3.15156
-3.02163
-2.88881
-2.75319
-2.61487
-2.47397
-2.33058
-2.18482
-2.0368
-1.88665
-1.73447
-1.5804
-1.42456
-1.26708
-1.1081
-0.947742
-0.78615
-0.623459
-0.45981
-0.295345
-0.130208
0.0354586
0.201508
0.367794
0.53417
0.70049
0.866606
1.03237
1.19764
1.36227
1.5261
1.68902
1.85086
2.01149
2.17077
2.32858
2.48477
2.63923
2.79183
2.94245
3.09097
3.2373
3.38131
3.52292
3.66203
3.79855
3.93241
4.06352
4.19184
4.31729
4.43984
4.55945
4.67608
4.78971
4.90028
5.00769
5.11192
5.21299
5.31094
5.40577
5.49754
5.58626
5.67197
5.75472
5.83456
5.91153
5.98571
6.05714
6.12591
6.19209
6.25576
6.31701
6.37592
6.43259
6.48713
6.53963
6.59019
6.63895
6.68601
6.7315
6.77556
6.81834
6.86002
6.90082
6.94101
6.98098
7.0213
7.06287
7.10774
7.15904
7.22931
7.31883
-4.72716
-4.72791
-4.72956
-4.7319
-4.73412
-4.73575
-4.73679
-4.73761
-4.73872
-4.74049
-4.74311
-4.74665
-4.75119
-4.75685
-4.76376
-4.77208
-4.78197
-4.79356
-4.80696
-4.82223
-4.83941
-4.85847
-4.87933
-4.90189
-4.92599
-4.95147
-4.97811
-5.00569
-5.03396
-5.06273
-5.09176
-5.12087
-5.14988
-5.17859
-5.20685
-5.2345
-5.2614
-5.2874
-5.31237
-5.33619
-5.35874
-5.37988
-5.39952
-5.41753
-5.4338
-5.44822
-5.46067
-5.47106
-5.47926
-5.48518
-5.48869
-5.48971
-5.48812
-5.48383
-5.47673
-5.46674
-5.45375
-5.43768
-5.41844
-5.39597
-5.37017
-5.34099
-5.30835
-5.27221
-5.23251
-5.18921
-5.14226
-5.09164
-5.0373
-4.97924
-4.91741
-4.85177
-4.78226
-4.70877
-4.63152
-4.55066
-4.46613
-4.37793
-4.28608
-4.19059
-4.09152
-3.98889
-3.88278
-3.77322
-3.66028
-3.54403
-3.42453
-3.30186
-3.17611
-3.04736
-2.9157
-2.78122
-2.64403
-2.50422
-2.3619
-2.21718
-2.07018
-1.92101
-1.7698
-1.61666
-1.46172
-1.30511
-1.14696
-0.987401
-0.826574
-0.664614
-0.501659
-0.337852
-0.173334
-0.00824868
0.157258
0.323042
0.488957
0.654855
0.820591
0.986019
1.15099
1.31537
1.479
1.64174
1.80346
1.96401
2.12326
2.28108
2.43732
2.59188
2.74462
2.89542
3.04417
3.19076
3.33508
3.47704
3.61654
3.75349
3.88781
4.01943
4.14829
4.27433
4.3975
4.51776
4.63509
4.74943
4.8607
4.96886
5.07387
5.17575
5.27452
5.3702
5.46281
5.55239
5.63896
5.72258
5.80327
5.8811
5.95612
6.0284
6.09799
6.16498
6.22944
6.29145
6.35111
6.40849
6.46371
6.51686
6.56805
6.61739
6.66499
6.711
6.75555
6.79879
6.84091
6.88215
6.92279
6.96324
7.00412
7.04638
7.09205
7.1433
7.211
7.29086
-4.7179
-4.72145
-4.72472
-4.72753
-4.72931
-4.7301
-4.73033
-4.73049
-4.73099
-4.73216
-4.73421
-4.73731
-4.74161
-4.74725
-4.75439
-4.76314
-4.77363
-4.78592
-4.80006
-4.81604
-4.83383
-4.85335
-4.87448
-4.8971
-4.92105
-4.94615
-4.97222
-4.99906
-5.0265
-5.05433
-5.08239
-5.11051
-5.13851
-5.16624
-5.19356
-5.22033
-5.2464
-5.27164
-5.29594
-5.31917
-5.3412
-5.36192
-5.38122
-5.39897
-5.41507
-5.4294
-5.44185
-5.45231
-5.46067
-5.46682
-5.47065
-5.47205
-5.47092
-5.46715
-5.46065
-5.45131
-5.43905
-5.42377
-5.40539
-5.38383
-5.359
-5.33084
-5.29928
-5.26425
-5.22572
-5.18361
-5.1379
-5.08855
-5.03552
-4.97878
-4.91831
-4.85404
-4.78598
-4.71413
-4.6385
-4.55917
-4.47616
-4.38948
-4.29915
-4.20519
-4.10766
-4.00658
-3.902
-3.79398
-3.68257
-3.56783
-3.44985
-3.32868
-3.20441
-3.07713
-2.94691
-2.81386
-2.67807
-2.53965
-2.39869
-2.2553
-2.1096
-1.9617
-1.81172
-1.65979
-1.50602
-1.35055
-1.19349
-1.035
-0.875189
-0.714207
-0.552188
-0.389273
-0.225603
-0.0613198
0.103432
0.268509
0.433765
0.599056
0.764234
0.929156
1.09368
1.25765
1.42093
1.58339
1.74487
1.90524
2.06436
2.2221
2.37834
2.53293
2.68577
2.83672
2.98568
3.13254
3.27718
3.41951
3.55943
3.69686
3.83171
3.96391
4.09339
4.2201
4.34396
4.46495
4.58301
4.69811
4.81021
4.91928
5.02529
5.12822
5.22805
5.32482
5.41853
5.50921
5.5969
5.68162
5.76342
5.84235
5.91845
5.9918
6.06245
6.13047
6.19593
6.25892
6.31951
6.37781
6.4339
6.48787
6.53985
6.58992
6.63823
6.68488
6.73004
6.77386
6.81653
6.85829
6.89946
6.94045
6.98193
7.02479
7.07102
7.12191
7.187
7.25259
-4.70121
-4.7075
-4.71384
-4.71864
-4.72156
-4.72318
-4.72417
-4.72505
-4.72626
-4.72814
-4.73094
-4.73486
-4.74007
-4.74671
-4.75489
-4.76469
-4.77619
-4.7894
-4.80431
-4.8209
-4.83908
-4.85878
-4.87988
-4.90225
-4.92575
-4.95023
-4.97555
-5.00153
-5.02803
-5.05488
-5.08193
-5.10904
-5.13605
-5.16283
-5.18924
-5.21515
-5.24043
-5.26495
-5.2886
-5.31124
-5.33277
-5.35307
-5.37201
-5.38949
-5.40538
-5.41958
-5.43197
-5.44244
-5.45088
-5.45716
-5.4612
-5.46286
-5.46205
-5.45867
-5.4526
-5.44376
-5.43204
-5.41735
-5.39961
-5.37873
-5.35463
-5.32723
-5.29648
-5.2623
-5.22463
-5.18343
-5.13865
-5.09024
-5.03818
-4.98242
-4.92293
-4.8597
-4.79271
-4.72198
-4.64754
-4.5694
-4.48758
-4.40211
-4.31299
-4.22026
-4.12395
-4.02409
-3.92075
-3.81395
-3.70377
-3.59026
-3.47349
-3.35353
-3.23046
-3.10437
-2.97533
-2.84345
-2.70881
-2.57151
-2.43166
-2.28937
-2.14474
-1.99789
-1.84894
-1.698
-1.54521
-1.39067
-1.23454
-1.07692
-0.917969
-0.757806
-0.596573
-0.434408
-0.271452
-0.107846
0.0562676
0.220745
0.385442
0.550214
0.714916
0.879405
1.04353
1.20716
1.37014
1.53234
1.69361
1.85382
2.01282
2.1705
2.32671
2.48132
2.63423
2.7853
2.93443
3.08149
3.22639
3.36902
3.50929
3.64711
3.78239
3.91506
4.04506
4.17232
4.29678
4.4184
4.53711
4.65286
4.76563
4.87541
4.98218
5.08591
5.18658
5.2842
5.37879
5.47036
5.55894
5.64456
5.72727
5.80709
5.88409
5.95832
6.02984
6.09872
6.16502
6.22882
6.2902
6.34925
6.40607
6.46074
6.51337
6.56406
6.61294
6.66014
6.7058
6.75008
6.79318
6.83534
6.87688
6.91821
6.95995
7.00293
7.04882
7.09811
7.15835
7.21057
-4.68181
-4.69095
-4.70103
-4.70868
-4.71363
-4.71694
-4.71946
-4.72179
-4.72439
-4.72765
-4.73184
-4.73716
-4.74377
-4.75178
-4.76128
-4.77232
-4.78492
-4.79907
-4.81476
-4.83191
-4.85047
-4.87034
-4.89142
-4.91358
-4.93672
-4.9607
-4.9854
-5.01066
-5.03637
-5.06238
-5.08856
-5.11478
-5.14092
-5.16684
-5.19242
-5.21754
-5.24207
-5.2659
-5.28891
-5.31098
-5.33199
-5.35183
-5.37038
-5.38752
-5.40315
-5.41714
-5.42938
-5.43975
-5.44814
-5.45444
-5.45854
-5.46031
-5.45967
-5.45649
-5.45067
-5.44212
-5.43073
-5.41641
-5.39907
-5.37863
-5.355
-5.32811
-5.29789
-5.26427
-5.2272
-5.18661
-5.14247
-5.09472
-5.04333
-4.98828
-4.92953
-4.86706
-4.80087
-4.73097
-4.65737
-4.58008
-4.49912
-4.4145
-4.32625
-4.23438
-4.13895
-4.03997
-3.9375
-3.83159
-3.72229
-3.60966
-3.49377
-3.37468
-3.25249
-3.12726
-2.99908
-2.86804
-2.73424
-2.59778
-2.45875
-2.31726
-2.17342
-2.02735
-1.87915
-1.72896
-1.57688
-1.42306
-1.2676
-1.11065
-0.952332
-0.792784
-0.632141
-0.47054
-0.308122
-0.145026
0.0186047
0.182629
0.346902
0.511281
0.675622
0.83978
1.00361
1.16697
1.32973
1.49173
1.65283
1.81291
1.97183
2.12944
2.28563
2.44027
2.59322
2.74438
2.89362
3.04085
3.18594
3.32879
3.46932
3.60743
3.74304
3.87608
4.00647
4.13414
4.25905
4.38112
4.5003
4.61653
4.72979
4.84007
4.94736
5.05163
5.15289
5.25111
5.34632
5.43852
5.52775
5.61402
5.69737
5.77786
5.85551
5.93039
6.00255
6.07205
6.13897
6.20337
6.26534
6.32496
6.38231
6.43749
6.4906
6.54175
6.59106
6.63865
6.68466
6.72925
6.77263
6.81502
6.85672
6.89813
6.93981
6.9824
7.02723
7.07406
7.12897
7.1699
-4.6657
-4.67716
-4.69035
-4.70076
-4.70798
-4.71326
-4.71761
-4.72169
-4.72599
-4.7309
-4.73669
-4.74358
-4.75171
-4.76116
-4.77198
-4.78422
-4.79786
-4.8129
-4.82927
-4.84694
-4.86582
-4.88583
-4.90688
-4.92886
-4.95168
-4.97522
-4.99937
-5.02402
-5.04904
-5.07432
-5.09975
-5.12521
-5.15058
-5.17575
-5.2006
-5.22502
-5.24889
-5.27209
-5.29452
-5.31606
-5.33659
-5.35599
-5.37416
-5.39097
-5.40632
-5.42007
-5.43211
-5.44234
-5.45063
-5.45687
-5.46094
-5.46273
-5.46213
-5.45904
-5.45334
-5.44494
-5.43373
-5.41962
-5.40251
-5.38233
-5.35899
-5.33241
-5.30252
-5.26925
-5.23255
-5.19235
-5.14862
-5.10131
-5.05038
-4.9958
-4.93755
-4.87561
-4.80997
-4.74064
-4.66762
-4.59091
-4.51053
-4.42651
-4.33885
-4.24759
-4.15276
-4.0544
-3.95254
-3.84725
-3.73857
-3.62656
-3.5113
-3.39284
-3.27127
-3.14666
-3.01911
-2.88869
-2.7555
-2.61964
-2.48121
-2.34032
-2.19707
-2.05157
-1.90395
-1.75431
-1.60278
-1.44949
-1.29455
-1.1381
-0.980271
-0.821194
-0.661005
-0.49984
-0.337838
-0.175139
-0.0118844
0.151784
0.315725
0.479794
0.643847
0.807741
0.971334
1.13448
1.29705
1.45888
1.61985
1.77982
1.93865
2.09621
2.25237
2.407
2.55998
2.71119
2.86052
3.00784
3.15307
3.29608
3.4368
3.57513
3.71098
3.84428
3.97495
4.10292
4.22814
4.35054
4.47006
4.58664
4.70026
4.81091
4.91859
5.02327
5.12494
5.22361
5.31927
5.41194
5.50164
5.5884
5.67225
5.75322
5.83136
5.90673
5.97937
6.04935
6.11673
6.18159
6.24399
6.30403
6.36179
6.41735
6.47083
6.52231
6.57192
6.61978
6.66603
6.71083
6.75436
6.79684
6.83855
6.87984
6.92117
6.96303
7.00639
7.05044
7.10041
7.13191
-4.6568
-4.66936
-4.68452
-4.69707
-4.70625
-4.71337
-4.71948
-4.72525
-4.7312
-4.73769
-4.74501
-4.75335
-4.76284
-4.77355
-4.78553
-4.79878
-4.81329
-4.82904
-4.84598
-4.86405
-4.88317
-4.90329
-4.92431
-4.94614
-4.9687
-4.99188
-5.0156
-5.03974
-5.06422
-5.08892
-5.11374
-5.13858
-5.16334
-5.18789
-5.21214
-5.23599
-5.2593
-5.28199
-5.30393
-5.32502
-5.34513
-5.36416
-5.38198
-5.39849
-5.41356
-5.42708
-5.43893
-5.44898
-5.45713
-5.46326
-5.46725
-5.46899
-5.46837
-5.46527
-5.45958
-5.45122
-5.44007
-5.42603
-5.40903
-5.38896
-5.36574
-5.33931
-5.30958
-5.27649
-5.23999
-5.20001
-5.1565
-5.10943
-5.05877
-5.00447
-4.94651
-4.88489
-4.8196
-4.75062
-4.67795
-4.60161
-4.52161
-4.43796
-4.35069
-4.25983
-4.16539
-4.06744
-3.96599
-3.86112
-3.75286
-3.64128
-3.52644
-3.40842
-3.28729
-3.16312
-3.03601
-2.90604
-2.77329
-2.63788
-2.4999
-2.35944
-2.21663
-2.07157
-1.92437
-1.77516
-1.62404
-1.47116
-1.31662
-1.16057
-1.00312
-0.844413
-0.684582
-0.523765
-0.362097
-0.199719
-0.0367702
0.126608
0.290273
0.454084
0.617895
0.781566
0.944952
1.10791
1.27031
1.432
1.59284
1.7527
1.91144
2.06893
2.22505
2.37965
2.53263
2.68385
2.83321
2.9806
3.12591
3.26903
3.40987
3.54834
3.68435
3.81783
3.9487
4.07688
4.20232
4.32495
4.44471
4.56155
4.67545
4.78638
4.89434
4.99933
5.10132
5.20032
5.29632
5.38935
5.47941
5.56653
5.65075
5.73209
5.81061
5.88634
5.95935
6.02969
6.09743
6.16263
6.22537
6.28572
6.34378
6.39963
6.45337
6.50509
6.55492
6.60297
6.64936
6.69427
6.73785
6.78031
6.8219
6.8629
6.9037
6.9446
6.98628
7.0275
7.07305
7.09665
-4.65582
-4.66854
-4.6845
-4.69832
-4.70893
-4.7175
-4.72505
-4.73225
-4.73958
-4.74741
-4.75599
-4.76551
-4.7761
-4.78781
-4.80068
-4.81471
-4.82988
-4.84617
-4.86352
-4.88189
-4.9012
-4.92138
-4.94237
-4.96409
-4.98645
-5.00936
-5.03275
-5.05653
-5.08059
-5.10485
-5.12922
-5.15359
-5.17787
-5.20196
-5.22576
-5.24915
-5.27205
-5.29433
-5.31588
-5.33661
-5.35638
-5.3751
-5.39264
-5.40888
-5.42372
-5.43702
-5.44867
-5.45855
-5.46655
-5.47254
-5.47641
-5.47804
-5.47732
-5.47414
-5.4684
-5.45998
-5.44879
-5.43472
-5.41769
-5.39762
-5.3744
-5.34798
-5.31828
-5.28522
-5.24876
-5.20884
-5.16541
-5.11843
-5.06786
-5.01368
-4.95586
-4.89439
-4.82926
-4.76045
-4.68798
-4.61183
-4.53203
-4.44859
-4.36154
-4.27089
-4.17669
-4.07898
-3.97778
-3.87316
-3.76517
-3.65386
-3.53931
-3.42157
-3.30074
-3.17687
-3.05006
-2.9204
-2.78797
-2.65288
-2.51522
-2.37509
-2.2326
-2.08786
-1.94099
-1.7921
-1.64131
-1.48874
-1.33452
-1.17877
-1.02163
-0.863219
-0.703679
-0.543144
-0.381751
-0.219638
-0.0569451
0.106188
0.26962
0.433208
0.596809
0.760282
0.923484
1.08627
1.24851
1.41006
1.57077
1.73052
1.88917
2.04658
2.20262
2.35718
2.51013
2.66134
2.81071
2.95811
3.10345
3.24663
3.38754
3.52609
3.66221
3.7958
3.92679
4.05511
4.18069
4.30348
4.42341
4.54044
4.65453
4.76567
4.87385
4.97905
5.08128
5.18052
5.27677
5.37005
5.46038
5.54777
5.63226
5.71388
5.79267
5.86868
5.94196
6.01257
6.08057
6.14602
6.20901
6.2696
6.32788
6.38393
6.43786
6.48975
6.53971
6.58787
6.63434
6.67927
6.72282
6.76516
6.80652
6.84712
6.88723
6.92703
6.96692
7.00537
7.04699
7.06399
-4.66222
-4.67434
-4.69006
-4.70427
-4.71565
-4.72515
-4.73372
-4.74196
-4.75033
-4.75916
-4.76869
-4.77909
-4.79047
-4.8029
-4.8164
-4.83098
-4.84661
-4.86327
-4.8809
-4.89946
-4.91889
-4.93912
-4.96009
-4.98171
-5.00393
-5.02666
-5.04982
-5.07333
-5.09711
-5.12107
-5.14512
-5.16916
-5.19312
-5.21688
-5.24035
-5.26343
-5.28602
-5.308
-5.32928
-5.34973
-5.36926
-5.38773
-5.40504
-5.42107
-5.4357
-5.44881
-5.46028
-5.46999
-5.47782
-5.48365
-5.48736
-5.48884
-5.48798
-5.48467
-5.47878
-5.47023
-5.45891
-5.44473
-5.42758
-5.40739
-5.38407
-5.35755
-5.32775
-5.29461
-5.25807
-5.21808
-5.1746
-5.12757
-5.07698
-5.02278
-4.96496
-4.90351
-4.8384
-4.76963
-4.6972
-4.62111
-4.54137
-4.45801
-4.37104
-4.28049
-4.18639
-4.08878
-3.98772
-3.88323
-3.77538
-3.66423
-3.54985
-3.43229
-3.31164
-3.18797
-3.06137
-2.93192
-2.79972
-2.66485
-2.52742
-2.38753
-2.24529
-2.1008
-1.95418
-1.80554
-1.655
-1.50268
-1.34871
-1.19322
-1.03633
-0.878164
-0.718867
-0.558571
-0.397412
-0.235527
-0.073057
0.0898604
0.253084
0.416473
0.579883
0.743174
0.906204
1.06883
1.23091
1.39232
1.5529
1.71253
1.87106
2.02838
2.18435
2.33884
2.49172
2.64289
2.79223
2.93962
3.08496
3.22814
3.36907
3.50766
3.64382
3.77746
3.90852
4.03692
4.16259
4.28547
4.40551
4.52266
4.63688
4.74816
4.85649
4.96185
5.06423
5.16364
5.26007
5.35353
5.44405
5.53163
5.61631
5.69813
5.77712
5.85333
5.9268
5.9976
6.06579
6.13142
6.19458
6.25533
6.31376
6.36996
6.424
6.47599
6.52604
6.57424
6.62072
6.66561
6.70905
6.7512
6.79223
6.83232
6.87165
6.91024
6.94833
6.98414
7.02226
7.03374
-4.67447
-4.68544
-4.70014
-4.71395
-4.72547
-4.73538
-4.7445
-4.75339
-4.76243
-4.77191
-4.78207
-4.79305
-4.80496
-4.81785
-4.83176
-4.84667
-4.86259
-4.87947
-4.89727
-4.91595
-4.93544
-4.95569
-4.97664
-4.99821
-5.02034
-5.04296
-5.06598
-5.08933
-5.11294
-5.13671
-5.16056
-5.18441
-5.20816
-5.23173
-5.255
-5.27788
-5.30028
-5.32207
-5.34316
-5.36343
-5.38278
-5.40108
-5.41821
-5.43407
-5.44852
-5.46146
-5.47275
-5.48228
-5.48993
-5.49557
-5.4991
-5.50039
-5.49934
-5.49582
-5.48974
-5.48099
-5.46946
-5.45507
-5.43772
-5.41733
-5.39381
-5.36708
-5.33709
-5.30377
-5.26705
-5.22689
-5.18325
-5.13608
-5.08535
-5.03104
-4.97312
-4.91157
-4.84638
-4.77754
-4.70505
-4.6289
-4.54913
-4.46574
-4.37875
-4.2882
-4.19411
-4.09653
-3.9955
-3.89106
-3.78328
-3.6722
-3.5579
-3.44045
-3.31991
-3.19637
-3.06991
-2.94061
-2.80856
-2.67387
-2.53661
-2.39691
-2.25486
-2.11056
-1.96414
-1.81571
-1.66538
-1.51328
-1.35953
-1.20425
-1.04758
-0.889632
-0.730552
-0.57047
-0.409524
-0.247848
-0.085583
0.0771324
0.240158
0.403352
0.566574
0.729684
0.89254
1.055
1.21693
1.37818
1.53862
1.69812
1.85653
2.01373
2.16959
2.32399
2.47679
2.62789
2.77716
2.9245
3.06979
3.21294
3.35385
3.49243
3.62858
3.76224
3.89331
4.02173
4.14744
4.27036
4.39045
4.50766
4.62196
4.73333
4.84174
4.9472
5.04968
5.1492
5.24574
5.33932
5.42996
5.51767
5.60248
5.68443
5.76355
5.83989
5.9135
5.98443
6.05274
6.1185
6.18177
6.24263
6.30116
6.35743
6.41155
6.46359
6.51366
6.56186
6.6083
6.65309
6.69637
6.73826
6.77889
6.81839
6.85686
6.89421
6.9305
6.96383
6.99885
7.00572
-4.6906
-4.70008
-4.71319
-4.726
-4.7371
-4.74695
-4.75622
-4.76538
-4.77475
-4.78459
-4.79509
-4.8064
-4.8186
-4.83175
-4.84587
-4.86097
-4.87703
-4.89403
-4.91191
-4.93065
-4.95018
-4.97044
-4.99138
-5.01293
-5.03502
-5.05759
-5.08055
-5.10384
-5.12737
-5.15106
-5.17483
-5.1986
-5.22226
-5.24573
-5.26891
-5.2917
-5.31399
-5.33568
-5.35666
-5.37682
-5.39604
-5.41421
-5.43121
-5.44691
-5.46121
-5.47397
-5.48508
-5.49442
-5.50186
-5.50729
-5.51059
-5.51165
-5.51035
-5.50658
-5.50023
-5.49121
-5.47941
-5.46473
-5.4471
-5.42642
-5.40262
-5.37562
-5.34536
-5.31176
-5.27479
-5.23438
-5.1905
-5.14311
-5.09217
-5.03767
-4.97957
-4.91785
-4.85249
-4.7835
-4.71087
-4.63461
-4.55472
-4.47123
-4.38417
-4.29355
-4.19941
-4.10179
-4.00073
-3.89629
-3.78852
-3.67747
-3.56322
-3.44582
-3.32536
-3.2019
-3.07554
-2.94635
-2.81443
-2.67987
-2.54277
-2.40322
-2.26133
-2.11721
-1.97097
-1.82272
-1.67259
-1.52069
-1.36713
-1.21206
-1.05559
-0.897856
-0.738988
-0.579117
-0.418381
-0.256915
-0.0948559
0.0676553
0.230479
0.393475
0.556504
0.719424
0.882096
1.04438
1.20613
1.36721
1.52749
1.68683
1.8451
2.00216
2.15789
2.31216
2.46485
2.61584
2.76501
2.91226
3.05747
3.20055
3.3414
3.47992
3.61603
3.74964
3.88069
4.00908
4.13477
4.25769
4.37779
4.49502
4.60934
4.72074
4.82919
4.93469
5.03723
5.13679
5.2334
5.32704
5.41775
5.50553
5.59042
5.67245
5.75165
5.82807
5.90176
5.97277
6.04115
6.10698
6.17032
6.23124
6.28982
6.34614
6.40028
6.45233
6.50238
6.55054
6.59689
6.64154
6.68461
6.72618
6.76637
6.80523
6.84279
6.87887
6.91344
6.94445
6.97671
6.97974
-4.70857
-4.71639
-4.72756
-4.73893
-4.74917
-4.75857
-4.76765
-4.77676
-4.78618
-4.79612
-4.80675
-4.81819
-4.83051
-4.84376
-4.85797
-4.87314
-4.88926
-4.90629
-4.92422
-4.94298
-4.96253
-4.98281
-5.00376
-5.02532
-5.04743
-5.07
-5.09298
-5.11628
-5.13982
-5.16352
-5.1873
-5.21107
-5.23473
-5.2582
-5.28136
-5.30412
-5.32638
-5.34803
-5.36895
-5.38903
-5.40816
-5.42621
-5.44308
-5.45864
-5.47276
-5.48534
-5.49624
-5.50535
-5.51255
-5.51772
-5.52074
-5.5215
-5.51989
-5.5158
-5.50913
-5.49977
-5.48763
-5.47261
-5.45463
-5.4336
-5.40945
-5.38211
-5.35151
-5.31759
-5.2803
-5.23959
-5.19542
-5.14775
-5.09656
-5.04181
-4.98347
-4.92153
-4.85596
-4.78677
-4.71396
-4.63753
-4.55749
-4.47387
-4.38668
-4.29596
-4.20174
-4.10406
-4.00296
-3.89849
-3.79071
-3.67967
-3.56545
-3.44809
-3.32769
-3.20431
-3.07803
-2.94895
-2.81715
-2.68271
-2.54575
-2.40636
-2.26464
-2.12069
-1.97464
-1.82658
-1.67664
-1.52494
-1.3716
-1.21674
-1.06048
-0.902964
-0.744316
-0.584667
-0.424152
-0.262907
-0.10107
0.0612212
0.223826
0.386605
0.54942
0.712129
0.874592
1.03667
1.19822
1.35911
1.5192
1.67836
1.83645
1.99333
2.1489
2.30301
2.45555
2.60639
2.75542
2.90254
3.04763
3.1906
3.33134
3.46976
3.60578
3.73931
3.87028
3.99861
4.12424
4.2471
4.36716
4.48435
4.59866
4.71004
4.81849
4.92399
5.02652
5.1261
5.22272
5.31638
5.40711
5.49492
5.57984
5.6619
5.74114
5.8176
5.89132
5.96237
6.03079
6.09665
6.16002
6.22097
6.27956
6.33589
6.39002
6.44205
6.49205
6.54012
6.58636
6.63084
6.67365
6.71488
6.75458
6.79276
6.8294
6.86423
6.89713
6.926
6.95578
6.95562
-4.72649
-4.7326
-4.74165
-4.75128
-4.76036
-4.76903
-4.77763
-4.78646
-4.79572
-4.80558
-4.81617
-4.82759
-4.83991
-4.85317
-4.86738
-4.88256
-4.89868
-4.91573
-4.93367
-4.95245
-4.97202
-4.99234
-5.01334
-5.03495
-5.05711
-5.07975
-5.10279
-5.12616
-5.14978
-5.17355
-5.1974
-5.22123
-5.24494
-5.26845
-5.29164
-5.31441
-5.33666
-5.35827
-5.37914
-5.39914
-5.41816
-5.43609
-5.4528
-5.46817
-5.48209
-5.49443
-5.50507
-5.5139
-5.52079
-5.52564
-5.52832
-5.52872
-5.52674
-5.52227
-5.5152
-5.50544
-5.4929
-5.47747
-5.45909
-5.43766
-5.41312
-5.3854
-5.35442
-5.32014
-5.2825
-5.24146
-5.19698
-5.14902
-5.09755
-5.04253
-4.98393
-4.92174
-4.85595
-4.78654
-4.71353
-4.63692
-4.55673
-4.47296
-4.38566
-4.29484
-4.20054
-4.1028
-4.00166
-3.89717
-3.78939
-3.67838
-3.56419
-3.44689
-3.32656
-3.20328
-3.07711
-2.94815
-2.81648
-2.6822
-2.5454
-2.40618
-2.26465
-2.1209
-1.97505
-1.8272
-1.67749
-1.52601
-1.3729
-1.21827
-1.06226
-0.904983
-0.746581
-0.587181
-0.426917
-0.265923
-0.104337
0.0577026
0.220057
0.382588
0.545155
0.707619
0.86984
1.03168
1.19299
1.35365
1.51352
1.67245
1.83032
1.987
2.14235
2.29627
2.44861
2.59926
2.74812
2.89506
3.03999
3.1828
3.32338
3.46166
3.59754
3.73095
3.86179
3.99001
4.11554
4.23831
4.35828
4.4754
4.58963
4.70096
4.80936
4.91481
5.01731
5.11685
5.21344
5.30709
5.3978
5.4856
5.57051
5.65257
5.7318
5.80826
5.88199
5.95304
6.02146
6.08733
6.1507
6.21164
6.27022
6.32652
6.38062
6.4326
6.48253
6.5305
6.57659
6.62087
6.66341
6.70426
6.74344
6.78094
6.81664
6.85025
6.88157
6.90848
6.93602
6.93323
-4.74271
-4.74715
-4.75405
-4.7618
-4.76952
-4.77725
-4.7852
-4.79357
-4.80252
-4.81217
-4.82261
-4.83394
-4.84619
-4.8594
-4.87358
-4.88874
-4.90486
-4.92191
-4.93986
-4.95867
-4.97829
-4.99866
-5.01972
-5.04141
-5.06366
-5.08639
-5.10953
-5.133
-5.15671
-5.18057
-5.2045
-5.2284
-5.25217
-5.2757
-5.2989
-5.32166
-5.34387
-5.36541
-5.38617
-5.40604
-5.4249
-5.44263
-5.45912
-5.47424
-5.48787
-5.4999
-5.5102
-5.51867
-5.52518
-5.52963
-5.5319
-5.53188
-5.52946
-5.52455
-5.51704
-5.50683
-5.49384
-5.47798
-5.45917
-5.43732
-5.41237
-5.38425
-5.35289
-5.31825
-5.28026
-5.2389
-5.19412
-5.14588
-5.09413
-5.03885
-4.98
-4.91758
-4.85157
-4.78197
-4.70879
-4.63202
-4.55169
-4.46782
-4.38043
-4.28954
-4.1952
-4.09743
-3.9963
-3.89183
-3.78409
-3.67314
-3.55903
-3.44183
-3.32162
-3.19846
-3.07245
-2.94365
-2.81216
-2.67807
-2.54148
-2.40248
-2.26117
-2.11766
-1.97205
-1.82446
-1.67501
-1.5238
-1.37096
-1.21662
-1.06088
-0.903898
-0.745785
-0.586677
-0.426706
-0.266006
-0.104716
0.0570292
0.21909
0.381327
0.543603
0.705777
0.867711
1.02926
1.1903
1.35068
1.51027
1.66894
1.82654
1.98296
2.13807
2.29173
2.44383
2.59425
2.74288
2.8896
3.03432
3.17692
3.3173
3.45539
3.59109
3.72432
3.855
3.98306
4.10843
4.23107
4.35091
4.46791
4.58204
4.69327
4.80157
4.90694
5.00936
5.10883
5.20536
5.29895
5.38961
5.47736
5.56223
5.64425
5.72345
5.79988
5.87358
5.94461
6.01301
6.07886
6.1422
6.20311
6.26166
6.31793
6.37198
6.42388
6.47373
6.52158
6.5675
6.61157
6.65381
6.69427
6.73293
6.76973
6.80452
6.83694
6.86677
6.89188
6.91738
6.91245
-4.75578
-4.75881
-4.76362
-4.76945
-4.77571
-4.78237
-4.78955
-4.79737
-4.80591
-4.81528
-4.82553
-4.83671
-4.84886
-4.86201
-4.87616
-4.89129
-4.90741
-4.92447
-4.94244
-4.96129
-4.98095
-5.00137
-5.0225
-5.04426
-5.06658
-5.08938
-5.1126
-5.13613
-5.1599
-5.18381
-5.20776
-5.23166
-5.25541
-5.2789
-5.30203
-5.32468
-5.34675
-5.36812
-5.38868
-5.40831
-5.4269
-5.44433
-5.46048
-5.47525
-5.4885
-5.50012
-5.51001
-5.51804
-5.5241
-5.52808
-5.52988
-5.52938
-5.52649
-5.5211
-5.51312
-5.50246
-5.48902
-5.47272
-5.45347
-5.43122
-5.40588
-5.37738
-5.34568
-5.31071
-5.27244
-5.23081
-5.18577
-5.13728
-5.08529
-5.02978
-4.97073
-4.90812
-4.84194
-4.77221
-4.6989
-4.62205
-4.54165
-4.45773
-4.37031
-4.27943
-4.18511
-4.08739
-3.98632
-3.88194
-3.77431
-3.66349
-3.54953
-3.4325
-3.31247
-3.18952
-3.06372
-2.93515
-2.80391
-2.67008
-2.53375
-2.39503
-2.25401
-2.1108
-1.9655
-1.81823
-1.6691
-1.51822
-1.36571
-1.2117
-1.05631
-0.899671
-0.741905
-0.583145
-0.423524
-0.263175
-0.102235
0.0591588
0.22087
0.382759
0.544688
0.706517
0.868109
1.02932
1.19002
1.35007
1.50934
1.66768
1.82497
1.98107
2.13587
2.28923
2.44104
2.59117
2.73952
2.88597
3.03042
3.17276
3.3129
3.45075
3.58622
3.71922
3.84969
3.97755
4.10273
4.22518
4.34485
4.46169
4.57567
4.68676
4.79493
4.90018
5.00249
5.10185
5.19828
5.29178
5.38235
5.47003
5.55483
5.63679
5.71593
5.79231
5.86596
5.93694
6.0053
6.0711
6.1344
6.19527
6.25378
6.30999
6.36398
6.41581
6.46555
6.51327
6.55903
6.60286
6.64481
6.68488
6.72302
6.75913
6.79303
6.82432
6.85274
6.87622
6.89983
6.89318
-4.76536
-4.767
-4.76983
-4.77376
-4.77852
-4.78404
-4.79036
-4.79754
-4.80562
-4.81464
-4.82465
-4.83566
-4.84769
-4.86075
-4.87483
-4.88992
-4.90599
-4.92302
-4.94096
-4.95978
-4.97942
-4.99981
-5.02091
-5.04264
-5.06493
-5.08769
-5.11085
-5.13432
-5.15801
-5.18181
-5.20564
-5.22939
-5.25296
-5.27625
-5.29914
-5.32152
-5.3433
-5.36434
-5.38454
-5.4038
-5.42198
-5.43898
-5.45469
-5.46898
-5.48175
-5.49289
-5.50227
-5.50979
-5.51535
-5.51883
-5.52012
-5.51913
-5.51575
-5.50989
-5.50145
-5.49034
-5.47648
-5.45978
-5.44016
-5.41755
-5.39188
-5.36309
-5.33112
-5.29592
-5.25744
-5.21562
-5.1704
-5.12173
-5.06957
-5.01392
-4.95475
-4.89205
-4.82581
-4.75603
-4.68271
-4.60586
-4.52549
-4.44163
-4.35429
-4.26351
-4.16932
-4.07175
-3.97085
-3.86667
-3.75925
-3.64865
-3.53494
-3.41818
-3.29844
-3.17578
-3.05029
-2.92206
-2.79115
-2.65767
-2.52171
-2.38336
-2.24272
-2.0999
-1.955
-1.80813
-1.6594
-1.50894
-1.35685
-1.20326
-1.04829
-0.892076
-0.734736
-0.576404
-0.417211
-0.257291
-0.0967797
0.0641875
0.225473
0.386939
0.548446
0.709858
0.871034
1.03184
1.19213
1.35178
1.51064
1.66859
1.82549
1.98122
2.13564
2.28864
2.44009