/*--------------------------------*- C++ -*----------------------------------*\
| =========                 |                                                 |
| \\      /  F ield         | OpenFOAM: The Open Source CFD Toolbox           |
|  \\    /   O peration     | Version:  2412                                  |
|   \\  /    A nd           | Website:  www.openfoam.com                      |
|    \\/     M anipulation  |                                                 |
\*---------------------------------------------------------------------------*/
FoamFile
{
    version     2.0;
    format      ascii;
    arch        "LSB;label=32;scalar=64";
    class       surfaceScalarField;
    location    "0.12";
    object      phi;
}
// * * * * * * * * * * * * * * * * * * * * * * * * * * * * * * * * * * * * * //

dimensions      [0 3 -1 0 0 0 0];

oriented        oriented;

internalField   nonuniform List<scalar> 
24170
(
1.36706e-07
-5.71619e-08
1.9562e-07
-5.89137e-08
2.57915e-07
-6.22948e-08
3.11666e-07
-5.37513e-08
3.618e-07
-5.01338e-08
4.07904e-07
-4.61044e-08
4.49544e-07
-4.16401e-08
4.87062e-07
-3.75176e-08
5.20843e-07
-3.3781e-08
5.51225e-07
-3.03816e-08
5.78532e-07
-2.7307e-08
6.03056e-07
-2.45241e-08
6.2504e-07
-2.19845e-08
6.44663e-07
-1.96225e-08
6.62064e-07
-1.74012e-08
6.7713e-07
-1.5066e-08
6.89925e-07
-1.27954e-08
-8.41943e-09
6.98345e-07
3.26112e-07
-1.24821e-07
3.94131e-07
-1.26932e-07
4.55882e-07
-1.24046e-07
5.14177e-07
-1.12046e-07
5.67666e-07
-1.03623e-07
6.16616e-07
-9.50546e-08
6.61251e-07
-8.62747e-08
7.01794e-07
-7.80604e-08
7.38542e-07
-7.0529e-08
7.71815e-07
-6.36551e-08
8.0192e-07
-5.74116e-08
8.29129e-07
-5.17339e-08
8.53677e-07
-4.65319e-08
8.75743e-07
-4.16886e-08
8.95444e-07
-3.71026e-08
9.12787e-07
-3.24089e-08
9.27861e-07
-2.78693e-08
-2.03027e-08
9.39745e-07
5.17244e-07
-1.71609e-07
5.79149e-07
-1.88837e-07
6.38205e-07
-1.83103e-07
6.95358e-07
-1.69199e-07
7.48165e-07
-1.5643e-07
7.96763e-07
-1.43653e-07
8.41399e-07
-1.30911e-07
8.82209e-07
-1.1887e-07
9.19408e-07
-1.07728e-07
9.53261e-07
-9.75077e-08
9.84028e-07
-8.81783e-08
1.01195e-06
-7.96554e-08
1.03723e-06
-7.18177e-08
1.06006e-06
-6.45096e-08
1.08052e-06
-5.75664e-08
1.09873e-06
-5.06199e-08
1.11449e-06
-4.36301e-08
-3.37669e-08
1.12796e-06
7.43479e-07
-1.95419e-07
7.91917e-07
-2.37275e-07
8.43824e-07
-2.35009e-07
8.96351e-07
-2.21726e-07
9.46007e-07
-2.06086e-07
9.92279e-07
-1.89924e-07
1.03518e-06
-1.73815e-07
1.07472e-06
-1.58407e-07
1.111e-06
-1.44008e-07
1.1442e-06
-1.30708e-07
1.17452e-06
-1.18496e-07
1.20214e-06
-1.07282e-07
1.22726e-06
-9.69292e-08
1.25e-06
-8.72559e-08
1.27049e-06
-7.80527e-08
1.28882e-06
-6.89542e-08
1.30489e-06
-5.96993e-08
-4.81795e-08
1.3193e-06
1.01492e-06
-1.99872e-07
1.0473e-06
-2.69657e-07
1.08853e-06
-2.76231e-07
1.13338e-06
-2.66583e-07
1.1775e-06
-2.50207e-07
1.21949e-06
-2.31913e-07
1.25898e-06
-2.13299e-07
1.29576e-06
-1.9519e-07
1.32981e-06
-1.78055e-07
1.36119e-06
-1.62087e-07
1.39001e-06
-1.47319e-07
1.41641e-06
-1.33678e-07
1.4405e-06
-1.21027e-07
1.46242e-06
-1.09176e-07
1.48226e-06
-9.7894e-08
1.50014e-06
-8.68321e-08
1.51609e-06
-7.56454e-08
-6.28606e-08
1.53077e-06
1.33808e-06
-1.90512e-07
1.35426e-06
-2.85839e-07
1.38244e-06
-3.04409e-07
1.41694e-06
-3.01086e-07
1.45314e-06
-2.86406e-07
1.48881e-06
-2.67577e-07
1.52308e-06
-2.47577e-07
1.55554e-06
-2.27642e-07
1.58595e-06
-2.08466e-07
1.61425e-06
-1.9039e-07
1.64045e-06
-1.73523e-07
1.66461e-06
-1.57834e-07
1.68679e-06
-1.43206e-07
1.70707e-06
-1.2946e-07
1.72555e-06
-1.16367e-07
1.74233e-06
-1.03617e-07
1.75755e-06
-9.08698e-08
-7.71375e-08
1.77183e-06
1.71767e-06
-1.729e-07
1.7193e-06
-2.87466e-07
1.73352e-06
-3.18635e-07
1.7557e-06
-3.23266e-07
1.78181e-06
-3.12513e-07
1.80914e-06
-2.94905e-07
1.83639e-06
-2.74829e-07
1.86286e-06
-2.54114e-07
1.88814e-06
-2.3375e-07
1.91202e-06
-2.14268e-07
1.93439e-06
-1.95888e-07
1.9552e-06
-1.78646e-07
1.97446e-06
-1.62469e-07
1.99221e-06
-1.47207e-07
2.0085e-06
-1.3266e-07
2.02346e-06
-1.18571e-07
2.03724e-06
-1.04655e-07
-9.02814e-08
2.05039e-06
2.15733e-06
-1.51544e-07
2.14717e-06
-2.773e-07
2.14804e-06
-3.19503e-07
2.15703e-06
-3.32256e-07
2.17145e-06
-3.26937e-07
2.1887e-06
-3.12158e-07
2.20723e-06
-2.93352e-07
2.22611e-06
-2.72997e-07
2.24477e-06
-2.5241e-07
2.26284e-06
-2.32337e-07
2.28009e-06
-2.13139e-07
2.29639e-06
-1.94946e-07
2.31167e-06
-1.77747e-07
2.3259e-06
-1.61443e-07
2.33912e-06
-1.45881e-07
2.35142e-06
-1.30868e-07
2.36296e-06
-1.16197e-07
-1.01496e-07
2.37418e-06
2.66011e-06
-1.29464e-07
2.64126e-06
-2.58452e-07
2.63056e-06
-3.08798e-07
2.62677e-06
-3.28472e-07
2.62885e-06
-3.29016e-07
2.63488e-06
-3.18185e-07
2.64334e-06
-3.01813e-07
2.65325e-06
-2.82906e-07
2.66392e-06
-2.6308e-07
2.67487e-06
-2.43286e-07
2.68577e-06
-2.24038e-07
2.69639e-06
-2.05572e-07
2.7066e-06
-1.87957e-07
2.71632e-06
-1.71161e-07
2.72553e-06
-1.55089e-07
2.73428e-06
-1.39621e-07
2.74272e-06
-1.24634e-07
-1.09937e-07
2.75116e-06
3.22873e-06
-1.08339e-07
3.20399e-06
-2.33713e-07
3.18406e-06
-2.88865e-07
3.16902e-06
-3.13427e-07
3.15919e-06
-3.19193e-07
3.15372e-06
-3.12706e-07
3.15142e-06
-2.99522e-07
3.15144e-06
-2.82922e-07
3.15309e-06
-2.64728e-07
3.15584e-06
-2.46042e-07
3.15932e-06
-2.27511e-07
3.16322e-06
-2.09475e-07
3.16736e-06
-1.92091e-07
3.17159e-06
-1.75396e-07
3.17587e-06
-1.59366e-07
3.18019e-06
-1.43946e-07
3.18466e-06
-1.29099e-07
-1.14753e-07
3.18947e-06
3.8657e-06
-8.90136e-08
3.83717e-06
-2.05182e-07
3.81024e-06
-2.61932e-07
3.78604e-06
-2.89227e-07
3.76574e-06
-2.98896e-07
3.74946e-06
-2.96422e-07
3.73658e-06
-2.8664e-07
3.72648e-06
-2.72823e-07
3.71862e-06
-2.56874e-07
3.71255e-06
-2.39965e-07
3.70786e-06
-2.22823e-07
3.70426e-06
-2.05872e-07
3.70151e-06
-1.89343e-07
3.69945e-06
-1.73342e-07
3.69799e-06
-1.57907e-07
3.69709e-06
-1.43045e-07
3.69679e-06
-1.28794e-07
-1.1515e-07
3.69719e-06
3.81123e-06
-7.33394e-08
3.78551e-06
-1.79464e-07
3.75882e-06
-2.3524e-07
3.73298e-06
-2.63383e-07
3.70929e-06
-2.75207e-07
3.68834e-06
-2.75476e-07
3.67004e-06
-2.68339e-07
3.65412e-06
-2.56906e-07
3.64031e-06
-2.43062e-07
3.62832e-06
-2.2797e-07
3.61787e-06
-2.12377e-07
3.60875e-06
-1.96747e-07
3.60076e-06
-1.81353e-07
3.59376e-06
-1.66348e-07
3.58767e-06
-1.51812e-07
3.58242e-06
-1.37797e-07
3.57796e-06
-1.24339e-07
-1.1168e-07
3.57449e-06
5.03713e-06
-5.77063e-08
5.00706e-06
-1.49401e-07
4.97359e-06
-2.01772e-07
4.9395e-06
-2.29288e-07
4.90649e-06
-2.42199e-07
4.87571e-06
-2.44693e-07
4.84745e-06
-2.40084e-07
4.8217e-06
-2.31153e-07
4.79834e-06
-2.19698e-07
4.77719e-06
-2.06826e-07
4.75807e-06
-1.93255e-07
4.74078e-06
-1.79454e-07
4.72514e-06
-1.65719e-07
4.71103e-06
-1.52233e-07
4.69832e-06
-1.39107e-07
4.68695e-06
-1.26426e-07
4.67687e-06
-1.14253e-07
-1.02928e-07
4.66812e-06
6.66244e-06
-4.26701e-08
6.62912e-06
-1.16086e-07
6.58916e-06
-1.6181e-07
6.54668e-06
-1.8681e-07
6.50382e-06
-1.99342e-07
6.46225e-06
-2.03119e-07
6.42276e-06
-2.00591e-07
6.38561e-06
-1.94009e-07
6.35091e-06
-1.84994e-07
6.31864e-06
-1.74558e-07
6.28873e-06
-1.63348e-07
6.26108e-06
-1.51802e-07
6.23557e-06
-1.40209e-07
6.2121e-06
-1.28759e-07
6.19057e-06
-1.17577e-07
6.1709e-06
-1.06762e-07
6.15304e-06
-9.63943e-08
-8.68384e-08
6.13695e-06
8.79086e-06
-2.88662e-08
8.75645e-06
-8.16793e-08
8.71174e-06
-1.17096e-07
8.66205e-06
-1.37125e-07
8.6101e-06
-1.47389e-07
8.558e-06
-1.51019e-07
8.50712e-06
-1.49714e-07
8.45815e-06
-1.45037e-07
8.41143e-06
-1.38273e-07
8.36715e-06
-1.30272e-07
8.32537e-06
-1.21575e-07
8.28612e-06
-1.12547e-07
8.24935e-06
-1.03444e-07
8.21503e-06
-9.44396e-08
8.18311e-06
-8.56528e-08
8.15352e-06
-7.71768e-08
8.12621e-06
-6.908e-08
-6.17404e-08
8.10111e-06
1.15181e-05
-1.6591e-08
1.14847e-05
-4.83735e-08
1.14383e-05
-7.06853e-08
1.13845e-05
-8.32887e-08
1.13264e-05
-8.92937e-08
1.12664e-05
-9.10139e-08
1.12063e-05
-8.95931e-08
1.11472e-05
-8.59448e-08
1.10898e-05
-8.08999e-08
1.10346e-05
-7.50514e-08
1.09818e-05
-6.87744e-08
1.09316e-05
-6.23194e-08
1.0884e-05
-5.58657e-08
1.08391e-05
-4.954e-08
1.07969e-05
-4.34373e-08
1.07573e-05
-3.76343e-08
1.07204e-05
-3.21585e-08
-2.73938e-08
1.06861e-05
1.48842e-05
-5.38305e-09
1.48525e-05
-1.66537e-08
1.48063e-05
-2.44526e-08
1.4751e-05
-2.80552e-08
1.46904e-05
-2.86237e-08
1.46267e-05
-2.73268e-08
1.45618e-05
-2.47526e-08
1.44972e-05
-2.12977e-08
1.44336e-05
-1.7342e-08
1.43718e-05
-1.31789e-08
1.4312e-05
-8.99285e-09
1.42546e-05
-4.90189e-09
1.41997e-05
-1.00019e-09
1.41475e-05
2.67924e-09
1.4098e-05
6.06851e-09
1.40512e-05
9.12724e-09
1.40072e-05
1.18848e-08
1.39906e-08
1.39658e-05
1.8769e-05
6.29271e-09
1.87365e-05
1.58806e-08
1.86883e-05
2.3739e-08
1.86301e-05
3.01367e-08
1.85661e-05
3.54152e-08
1.84989e-05
3.984e-08
1.84306e-05
4.35786e-08
1.83625e-05
4.67543e-08
1.82957e-05
4.9462e-08
1.82308e-05
5.17683e-08
1.81681e-05
5.37177e-08
1.81078e-05
5.534e-08
1.80502e-05
5.66553e-08
1.79952e-05
5.76751e-08
1.79428e-05
5.84037e-08
1.78931e-05
5.88292e-08
1.7846e-05
5.90104e-08
5.86872e-08
1.78013e-05
2.26768e-05
1.70216e-08
2.26399e-05
5.28301e-08
2.25835e-05
8.01322e-08
2.25149e-05
9.87256e-08
2.24392e-05
1.11105e-07
2.23597e-05
1.19277e-07
2.2279e-05
1.24301e-07
2.21988e-05
1.26953e-07
2.21204e-05
1.27933e-07
2.20444e-05
1.27761e-07
2.19713e-05
1.2678e-07
2.19014e-05
1.25214e-07
2.18349e-05
1.23226e-07
2.17716e-05
1.20926e-07
2.17116e-05
1.18393e-07
2.16548e-05
1.15673e-07
2.1601e-05
1.12828e-07
1.09716e-07
2.15499e-05
1.5604e-05
3.26645e-08
1.55641e-05
9.26823e-08
1.55091e-05
1.35134e-07
1.54457e-05
1.62144e-07
1.53778e-05
1.79013e-07
1.53081e-05
1.88956e-07
1.52387e-05
1.93693e-07
1.5171e-05
1.94682e-07
1.51057e-05
1.93168e-07
1.50435e-05
1.90015e-07
1.49845e-05
1.85787e-07
1.49288e-05
1.80869e-07
1.48765e-05
1.75536e-07
1.48275e-05
1.69979e-07
1.47815e-05
1.64327e-07
1.47385e-05
1.58675e-07
1.46983e-05
1.53082e-07
1.47491e-07
1.46605e-05
1.23902e-05
5.12535e-08
1.23448e-05
1.38148e-07
1.22864e-05
1.93482e-07
1.22226e-05
2.26012e-07
1.21567e-05
2.44889e-07
1.20914e-05
2.54228e-07
1.20285e-05
2.56563e-07
1.1969e-05
2.54223e-07
1.19132e-05
2.48965e-07
1.18613e-05
2.4191e-07
1.18133e-05
2.33785e-07
1.17691e-05
2.25089e-07
1.17285e-05
2.16164e-07
1.16912e-05
2.07237e-07
1.16571e-05
1.98454e-07
1.16258e-05
1.89914e-07
1.15973e-05
1.81662e-07
1.73686e-07
1.15711e-05
9.55929e-06
7.5558e-08
9.50979e-06
1.87643e-07
9.45373e-06
2.49538e-07
9.39694e-06
2.82809e-07
9.34176e-06
3.00062e-07
9.29021e-06
3.05782e-07
9.24322e-06
3.03549e-07
9.20094e-06
2.96504e-07
9.16322e-06
2.8669e-07
9.12979e-06
2.75338e-07
9.10033e-06
2.63246e-07
9.07447e-06
2.50948e-07
9.05185e-06
2.38783e-07
9.03213e-06
2.26961e-07
9.01498e-06
2.15603e-07
9.00012e-06
2.04778e-07
8.98727e-06
1.94505e-07
1.84786e-07
8.97617e-06
7.18003e-06
1.04974e-07
7.13265e-06
2.35027e-07
7.08702e-06
2.95168e-07
7.04546e-06
3.24368e-07
7.00925e-06
3.36267e-07
6.97934e-06
3.35695e-07
6.95539e-06
3.27498e-07
6.93664e-06
3.15256e-07
6.92235e-06
3.00978e-07
6.91186e-06
2.85834e-07
6.90454e-06
2.70563e-07
6.89987e-06
2.5562e-07
6.89739e-06
2.41266e-07
6.89671e-06
2.27634e-07
6.89753e-06
2.14784e-07
6.89958e-06
2.02733e-07
6.90263e-06
1.91457e-07
1.80954e-07
6.90646e-06
5.24556e-06
1.38129e-07
5.20787e-06
2.72719e-07
5.18045e-06
3.2259e-07
5.16165e-06
3.43169e-07
5.1514e-06
3.46518e-07
5.14864e-06
3.3845e-07
5.15155e-06
3.24587e-07
5.15863e-06
3.08179e-07
5.16877e-06
2.90834e-07
5.18113e-06
2.73475e-07
5.19504e-06
2.5665e-07
5.21001e-06
2.40656e-07
5.22565e-06
2.25626e-07
5.24168e-06
2.11604e-07
5.25788e-06
1.98578e-07
5.27411e-06
1.8651e-07
5.29022e-06
1.75342e-07
1.6506e-07
5.30612e-06
3.71461e-06
1.71649e-07
3.69608e-06
2.91256e-07
3.69444e-06
3.24229e-07
3.70437e-06
3.33237e-07
3.72346e-06
3.27428e-07
3.74845e-06
3.1346e-07
3.77677e-06
2.96264e-07
3.80688e-06
2.7807e-07
3.83778e-06
2.59936e-07
3.86879e-06
2.42468e-07
3.89944e-06
2.25991e-07
3.92946e-06
2.10642e-07
3.95864e-06
1.96446e-07
3.98687e-06
1.83372e-07
4.01409e-06
1.71356e-07
4.04028e-06
1.60324e-07
4.06542e-06
1.50197e-07
1.40961e-07
4.08952e-06
2.5354e-06
1.96848e-07
2.54625e-06
2.80406e-07
2.57487e-06
2.95606e-07
2.6142e-06
2.93908e-07
2.65967e-06
2.81961e-07
2.70729e-06
2.65843e-07
2.75502e-06
2.48527e-07
2.80188e-06
2.31213e-07
2.84727e-06
2.14551e-07
2.89084e-06
1.98893e-07
2.93244e-06
1.84388e-07
2.97202e-06
1.71063e-07
3.00959e-06
1.58878e-07
3.0452e-06
1.4776e-07
3.07894e-06
1.37622e-07
3.11089e-06
1.28376e-07
3.14114e-06
1.19938e-07
1.1231e-07
3.16979e-06
1.6547e-06
1.99259e-07
1.70057e-06
2.34535e-07
1.75709e-06
2.39087e-07
1.81983e-06
2.3116e-07
1.88379e-06
2.18002e-07
1.946e-06
2.03636e-07
2.00559e-06
1.88939e-07
2.06219e-06
1.74612e-07
2.11562e-06
1.61121e-07
2.16587e-06
1.48645e-07
2.21303e-06
1.37226e-07
2.25725e-06
1.26838e-07
2.29871e-06
1.17417e-07
2.3376e-06
1.08879e-07
2.37408e-06
1.0114e-07
2.40834e-06
9.41151e-08
2.44055e-06
8.77269e-08
8.20124e-08
2.47085e-06
1.01827e-06
1.63847e-07
1.09488e-06
1.57926e-07
1.17024e-06
1.63725e-07
1.2467e-06
1.54704e-07
1.3201e-06
1.44606e-07
1.38908e-06
1.34651e-07
1.45372e-06
1.24303e-07
1.51406e-06
1.14273e-07
1.5702e-06
1.04974e-07
1.62238e-06
9.64686e-08
1.67086e-06
8.87467e-08
1.71592e-06
8.17726e-08
1.75785e-06
7.5487e-08
1.79691e-06
6.98208e-08
1.83335e-06
6.47061e-08
1.86738e-06
6.00823e-08
1.89924e-06
5.58699e-08
5.21446e-08
1.9291e-06
5.69237e-07
8.45265e-08
6.58983e-07
6.81801e-08
7.40766e-07
8.19423e-08
8.20863e-07
7.46066e-08
8.95864e-07
6.96045e-08
9.6542e-07
6.50953e-08
1.02984e-06
5.98799e-08
1.08935e-06
5.47646e-08
1.14423e-06
5.00991e-08
1.19482e-06
4.58726e-08
1.24151e-06
4.20558e-08
1.28466e-06
3.86283e-08
1.32459e-06
3.55561e-08
1.36161e-06
3.27993e-08
1.396e-06
3.03197e-08
1.42799e-06
2.80888e-08
1.45783e-06
2.60344e-08
2.42054e-08
1.48577e-06
2.22451e-07
2.90631e-07
3.72573e-07
4.4718e-07
5.16784e-07
5.81879e-07
6.41759e-07
6.96524e-07
7.46623e-07
7.92496e-07
8.34551e-07
8.7318e-07
9.08736e-07
9.41535e-07
9.71855e-07
9.99944e-07
1.02598e-06
1.05018e-06
2.52929e-08
-2.52929e-08
5.39364e-08
-2.86435e-08
7.65386e-08
-2.26023e-08
9.06698e-08
-1.41312e-08
9.56966e-08
-5.02684e-09
9.20164e-08
3.68023e-09
8.10009e-08
1.10155e-08
6.43341e-08
1.66669e-08
4.35656e-08
2.07685e-08
1.97841e-08
2.37814e-08
-6.44739e-09
2.62315e-08
-3.50266e-08
2.85792e-08
-6.61047e-08
3.10781e-08
-9.98744e-08
3.37697e-08
-1.36481e-07
3.66065e-08
-1.75971e-07
3.94899e-08
-2.18284e-07
4.23131e-08
-2.63263e-07
4.49789e-08
-3.1067e-07
4.7407e-08
-3.60205e-07
4.95352e-08
-4.11526e-07
5.13211e-08
-4.64267e-07
5.27406e-08
-5.18054e-07
5.37874e-08
-5.72524e-07
5.44699e-08
-6.27333e-07
5.48092e-08
-6.82171e-07
5.48375e-08
-7.36769e-07
5.45987e-08
-7.90915e-07
5.41452e-08
-8.44438e-07
5.35235e-08
-8.972e-07
5.2762e-08
-9.49086e-07
5.1886e-08
-1.00001e-06
5.09196e-08
-1.04989e-06
4.98845e-08
-1.09869e-06
4.87992e-08
-1.14637e-06
4.76793e-08
-1.19291e-06
4.65372e-08
-1.23829e-06
4.53825e-08
-1.28251e-06
4.42223e-08
-1.32557e-06
4.30614e-08
-1.36747e-06
4.19031e-08
-1.40822e-06
4.07489e-08
-1.44782e-06
3.95994e-08
-1.48628e-06
3.84543e-08
-1.52359e-06
3.73126e-08
-1.55976e-06
3.61729e-08
-1.5948e-06
3.50338e-08
-1.62869e-06
3.38937e-08
-1.66144e-06
3.27507e-08
-1.69304e-06
3.16035e-08
-1.7235e-06
3.04505e-08
-1.75279e-06
2.92905e-08
-1.78091e-06
2.81225e-08
-1.80785e-06
2.69456e-08
-1.83361e-06
2.57592e-08
-1.85818e-06
2.45628e-08
-1.88153e-06
2.33562e-08
-1.90367e-06
2.21391e-08
-1.92458e-06
2.09116e-08
-1.94426e-06
1.96738e-08
-1.96268e-06
1.84256e-08
-1.97985e-06
1.71672e-08
-1.99575e-06
1.58985e-08
-2.01037e-06
1.46192e-08
-2.0237e-06
1.33288e-08
-2.03572e-06
1.20261e-08
-2.04643e-06
1.07097e-08
-2.05581e-06
9.37604e-09
-2.06383e-06
8.02153e-09
-2.07047e-06
6.64131e-09
-2.0757e-06
5.22825e-09
-2.07947e-06
3.77432e-09
-2.08175e-06
2.27617e-09
-2.08246e-06
7.13512e-10
-2.08175e-06
-7.17149e-10
-2.07977e-06
-1.97245e-09
-2.0766e-06
-3.16889e-09
-2.07228e-06
-4.32744e-09
-2.06681e-06
-5.4656e-09
-2.06022e-06
-6.59211e-09
-2.05251e-06
-7.71025e-09
-2.04369e-06
-8.82113e-09
-2.03376e-06
-9.92484e-09
-2.02274e-06
-1.1021e-08
-2.01063e-06
-1.21091e-08
-1.99744e-06
-1.31886e-08
-1.98319e-06
-1.42589e-08
-1.96787e-06
-1.53193e-08
-1.9515e-06
-1.63694e-08
-1.93409e-06
-1.74086e-08
-1.91565e-06
-1.84365e-08
-1.8962e-06
-1.94525e-08
-1.87574e-06
-2.04561e-08
-1.8543e-06
-2.14471e-08
-1.83187e-06
-2.24249e-08
-1.80848e-06
-2.33891e-08
-1.78414e-06
-2.43393e-08
-1.75887e-06
-2.52751e-08
-1.73267e-06
-2.61961e-08
-1.70557e-06
-2.71018e-08
-1.67758e-06
-2.79918e-08
-1.64871e-06
-2.88658e-08
-1.61899e-06
-2.97233e-08
-1.58843e-06
-3.05638e-08
-1.55704e-06
-3.13869e-08
-1.52485e-06
-3.21921e-08
-1.49187e-06
-3.29788e-08
-1.45812e-06
-3.37464e-08
-1.42363e-06
-3.44945e-08
-1.3884e-06
-3.52225e-08
-1.35247e-06
-3.59296e-08
-1.31586e-06
-3.66153e-08
-1.27858e-06
-3.7279e-08
-1.24066e-06
-3.79198e-08
-1.20212e-06
-3.85372e-08
-1.16299e-06
-3.91303e-08
-1.12329e-06
-3.96985e-08
-1.08305e-06
-4.0241e-08
-1.0423e-06
-4.0757e-08
-1.00105e-06
-4.12458e-08
-9.59344e-07
-4.17065e-08
-9.17206e-07
-4.21385e-08
-8.74665e-07
-4.25409e-08
-8.31752e-07
-4.29131e-08
-7.88498e-07
-4.32541e-08
-7.44934e-07
-4.35634e-08
-7.01094e-07
-4.38402e-08
-6.5701e-07
-4.40838e-08
-6.12717e-07
-4.42934e-08
-5.68248e-07
-4.44686e-08
-5.2364e-07
-4.46086e-08
-4.78927e-07
-4.47127e-08
-4.34147e-07
-4.47802e-08
-3.89336e-07
-4.48106e-08
-3.44533e-07
-4.48029e-08
-2.99777e-07
-4.47562e-08
-2.55108e-07
-4.46694e-08
-2.10566e-07
-4.45415e-08
-1.66196e-07
-4.43699e-08
-1.22042e-07
-4.41539e-08
-7.81462e-08
-4.38961e-08
-3.45538e-08
-4.35923e-08
8.68418e-09
-4.3238e-08
5.15177e-08
-4.28335e-08
9.39064e-08
-4.23887e-08
1.35821e-07
-4.19144e-08
1.77246e-07
-4.14247e-08
2.18164e-07
-4.09186e-08
2.58558e-07
-4.03939e-08
2.98407e-07
-3.98494e-08
3.37693e-07
-3.92853e-08
3.76395e-07
-3.87021e-08
4.14496e-07
-3.81017e-08
4.51982e-07
-3.74859e-08
4.8884e-07
-3.68575e-08
5.25059e-07
-3.62193e-08
5.60634e-07
-3.55747e-08
5.95561e-07
-3.49272e-08
6.29842e-07
-3.42807e-08
6.63481e-07
-3.36392e-08
6.96488e-07
-3.3007e-08
7.28876e-07
-3.23883e-08
7.60664e-07
-3.17874e-08
7.91872e-07
-3.12085e-08
8.22528e-07
-3.06552e-08
8.52658e-07
-3.01309e-08
8.82296e-07
-2.96377e-08
9.11473e-07
-2.91765e-08
9.40219e-07
-2.87459e-08
9.6856e-07
-2.83411e-08
9.96512e-07
-2.79526e-08
1.02407e-06
-2.75627e-08
1.05122e-06
-2.71413e-08
1.07785e-06
-2.6636e-08
1.10381e-06
-2.59563e-08
1.12873e-06
-2.49234e-08
1.15194e-06
-2.32062e-08
1.17175e-06
-1.98149e-08
1.18454e-06
-1.27823e-08
1.17761e-06
6.92473e-09
5.31793e-08
1.12443e-06
2.03854e-08
-4.56783e-08
2.84485e-08
-3.67065e-08
2.70715e-08
-2.12253e-08
1.90797e-08
-6.13935e-09
6.12048e-09
7.93237e-09
-1.09504e-08
2.07511e-08
-3.20421e-08
3.21071e-08
-5.7247e-08
4.18719e-08
-8.66188e-08
5.01403e-08
-1.20065e-07
5.72276e-08
-1.57364e-07
6.35304e-08
-1.98171e-07
6.93864e-08
-2.42088e-07
7.4995e-08
-2.88723e-07
8.04052e-08
-3.37677e-07
8.55605e-08
-3.88541e-07
9.03538e-08
-4.40898e-07
9.46696e-08
-4.94328e-07
9.84088e-08
-5.48421e-07
1.01501e-07
-6.02793e-07
1.03907e-07
-6.57091e-07
1.05619e-07
-7.11008e-07
1.06658e-07
-7.64285e-07
1.07064e-07
-8.16713e-07
1.06898e-07
-8.68134e-07
1.0623e-07
-9.18431e-07
1.05135e-07
-9.67525e-07
1.03693e-07
-1.01536e-06
1.0198e-07
-1.0619e-06
1.00061e-07
-1.10712e-06
9.7986e-08
-1.15104e-06
9.58005e-08
-1.19366e-06
9.35405e-08
-1.23501e-06
9.12354e-08
-1.27512e-06
8.89084e-08
-1.31401e-06
8.65768e-08
-1.35173e-06
8.42529e-08
-1.38829e-06
8.1945e-08
-1.42373e-06
7.9658e-08
-1.45806e-06
7.73937e-08
-1.49131e-06
7.51523e-08
-1.52349e-06
7.2932e-08
-1.55462e-06
7.07303e-08
-1.58471e-06
6.85436e-08
-1.61377e-06
6.63683e-08
-1.6418e-06
6.42003e-08
-1.6688e-06
6.20358e-08
-1.69478e-06
5.9871e-08
-1.71973e-06
5.77025e-08
-1.74365e-06
5.55272e-08
-1.76654e-06
5.33424e-08
-1.7884e-06
5.11458e-08
-1.80921e-06
4.89355e-08
-1.82898e-06
4.67101e-08
-1.84769e-06
4.44685e-08
-1.86533e-06
4.22101e-08
-1.88191e-06
3.99344e-08
-1.89741e-06
3.76413e-08
-1.91183e-06
3.53311e-08
-1.92516e-06
3.30041e-08
-1.9374e-06
3.06608e-08
-1.94853e-06
2.83017e-08
-1.95856e-06
2.59276e-08
-1.96748e-06
2.3539e-08
-1.97529e-06
2.11366e-08
-1.98198e-06
1.87209e-08
-1.98757e-06
1.62926e-08
-1.99204e-06
1.38523e-08
-1.99542e-06
1.14015e-08
-1.99772e-06
8.94227e-09
-1.99897e-06
6.4791e-09
-1.99922e-06
4.0204e-09
-1.99853e-06
1.58512e-09
-1.99701e-06
-8.09359e-10
-1.99458e-06
-3.14777e-09
-1.99112e-06
-5.42914e-09
-1.9866e-06
-7.69262e-09
-1.98098e-06
-9.9414e-09
-1.97427e-06
-1.21771e-08
-1.96646e-06
-1.4401e-08
-1.95756e-06
-1.66132e-08
-1.94757e-06
-1.88133e-08
-1.93649e-06
-2.10002e-08
-1.92434e-06
-2.31728e-08
-1.91112e-06
-2.53299e-08
-1.89684e-06
-2.74702e-08
-1.8815e-06
-2.95925e-08
-1.86513e-06
-3.16956e-08
-1.84772e-06
-3.37784e-08
-1.82929e-06
-3.58397e-08
-1.80984e-06
-3.78787e-08
-1.7894e-06
-3.98942e-08
-1.76797e-06
-4.18855e-08
-1.74557e-06
-4.38516e-08
-1.7222e-06
-4.57916e-08
-1.69789e-06
-4.77048e-08
-1.67264e-06
-4.95903e-08
-1.64646e-06
-5.14471e-08
-1.61939e-06
-5.32746e-08
-1.59142e-06
-5.50717e-08
-1.56257e-06
-5.68378e-08
-1.53286e-06
-5.85718e-08
-1.50231e-06
-6.0273e-08
-1.47094e-06
-6.19405e-08
-1.43875e-06
-6.35732e-08
-1.40577e-06
-6.51702e-08
-1.37202e-06
-6.67304e-08
-1.33751e-06
-6.82528e-08
-1.30227e-06
-6.97361e-08
-1.26632e-06
-7.11792e-08
-1.22966e-06
-7.25808e-08
-1.19234e-06
-7.39397e-08
-1.15436e-06
-7.52546e-08
-1.11576e-06
-7.65242e-08
-1.07655e-06
-7.77469e-08
-1.03676e-06
-7.89213e-08
-9.96412e-07
-8.00459e-08
-9.55534e-07
-8.11194e-08
-9.14151e-07
-8.21402e-08
-8.7229e-07
-8.31067e-08
-8.29979e-07
-8.40174e-08
-7.87247e-07
-8.48707e-08
-7.44122e-07
-8.56653e-08
-7.00636e-07
-8.63995e-08
-6.56818e-07
-8.7072e-08
-6.127e-07
-8.76812e-08
-5.68315e-07
-8.82257e-08
-5.23694e-07
-8.87043e-08
-4.78872e-07
-8.91155e-08
-4.33883e-07
-8.94581e-08
-3.8876e-07
-8.97307e-08
-3.43541e-07
-8.99322e-08
-2.9826e-07
-9.00613e-08
-2.52954e-07
-9.01166e-08
-2.0766e-07
-9.00967e-08
-1.62416e-07
-9e-08
-1.17261e-07
-8.98243e-08
-7.22344e-08
-8.95685e-08
-2.73748e-08
-8.92295e-08
1.72762e-08
-8.88049e-08
6.16765e-08
-8.82964e-08
1.05787e-07
-8.77031e-08
1.49577e-07
-8.70276e-08
1.93014e-07
-8.62712e-08
2.36067e-07
-8.54413e-08
2.78706e-07
-8.4553e-08
3.20899e-07
-8.36183e-08
3.62621e-07
-8.26402e-08
4.03846e-07
-8.16189e-08
4.44551e-07
-8.05549e-08
4.84716e-07
-7.94494e-08
5.24319e-07
-7.83051e-08
5.63342e-07
-7.71254e-08
6.01771e-07
-7.59148e-08
6.39592e-07
-7.46784e-08
6.76795e-07
-7.3422e-08
7.13372e-07
-7.21524e-08
7.49322e-07
-7.08764e-08
7.84643e-07
-6.96018e-08
8.1934e-07
-6.83364e-08
8.53422e-07
-6.70887e-08
8.869e-07
-6.58671e-08
9.19793e-07
-6.468e-08
9.5212e-07
-6.35355e-08
9.83906e-07
-6.24411e-08
1.01518e-06
-6.14032e-08
1.04597e-06
-6.04262e-08
1.0763e-06
-5.95116e-08
1.10621e-06
-5.86567e-08
1.13572e-06
-5.78523e-08
1.16485e-06
-5.70793e-08
1.19359e-06
-5.63032e-08
1.22191e-06
-5.54648e-08
1.24974e-06
-5.44626e-08
1.27691e-06
-5.31218e-08
1.3031e-06
-5.11132e-08
1.32772e-06
-4.78317e-08
1.34971e-06
-4.18035e-08
1.36739e-06
-3.04577e-08
1.37909e-06
-4.77542e-09
5.03946e-08
1.38187e-06
-3.98066e-10
-4.52802e-08
-1.16423e-08
-2.54622e-08
-2.79967e-08
-4.87095e-09
-4.76637e-08
1.35276e-08
-7.00838e-08
3.03525e-08
-9.51074e-08
4.57748e-08
-1.22807e-07
5.98072e-08
-1.53364e-07
7.24286e-08
-1.86925e-07
8.37008e-08
-2.23486e-07
9.37885e-08
-2.62855e-07
1.029e-07
-3.04679e-07
1.11211e-07
-3.48504e-07
1.1882e-07
-3.93842e-07
1.25743e-07
-4.40221e-07
1.3194e-07
-4.87209e-07
1.37341e-07
-5.34424e-07
1.41885e-07
-5.81544e-07
1.45528e-07
-6.28303e-07
1.4826e-07
-6.74494e-07
1.50098e-07
-7.19963e-07
1.51088e-07
-7.64603e-07
1.51298e-07
-8.08349e-07
1.5081e-07
-8.51164e-07
1.49714e-07
-8.93038e-07
1.48103e-07
-9.33973e-07
1.4607e-07
-9.73981e-07
1.43701e-07
-1.01307e-06
1.41072e-07
-1.05126e-06
1.38251e-07
-1.08857e-06
1.35292e-07
-1.12501e-06
1.3224e-07
-1.1606e-06
1.29131e-07
-1.19536e-06
1.25992e-07
-1.22929e-06
1.22845e-07
-1.26242e-06
1.19704e-07
-1.29474e-06
1.16579e-07
-1.32627e-06
1.13475e-07
-1.35701e-06
1.10395e-07
-1.38696e-06
1.07338e-07
-1.41611e-06
1.04303e-07
-1.44446e-06
1.01286e-07
-1.47201e-06
9.82816e-08
-1.49875e-06
9.5286e-08
-1.52468e-06
9.22938e-08
-1.54978e-06
8.92998e-08
-1.57404e-06
8.62991e-08
-1.59746e-06
8.3287e-08
-1.62002e-06
8.02596e-08
-1.6417e-06
7.7213e-08
-1.6625e-06
7.41443e-08
-1.68241e-06
7.10508e-08
-1.7014e-06
6.79305e-08
-1.71948e-06
6.47822e-08
-1.73661e-06
6.16047e-08
-1.7528e-06
5.83977e-08
-1.76803e-06
5.51612e-08
-1.78228e-06
5.18956e-08
-1.79555e-06
4.86018e-08
-1.80783e-06
4.52808e-08
-1.8191e-06
4.1934e-08
-1.82936e-06
3.85632e-08
-1.8386e-06
3.51701e-08
-1.84682e-06
3.17569e-08
-1.85401e-06
2.83257e-08
-1.86017e-06
2.48791e-08
-1.8653e-06
2.14201e-08
-1.8694e-06
1.79521e-08
-1.87248e-06
1.44794e-08
-1.87454e-06
1.10073e-08
-1.8756e-06
7.54274e-09
-1.87568e-06
4.09468e-09
-1.87477e-06
6.72351e-10
-1.87286e-06
-2.71456e-09
-1.86994e-06
-6.07176e-09
-1.86596e-06
-9.40637e-09
-1.86092e-06
-1.27274e-08
-1.85483e-06
-1.60368e-08
-1.84767e-06
-1.93346e-08
-1.83945e-06
-2.26194e-08
-1.83018e-06
-2.58897e-08
-1.81985e-06
-2.91436e-08
-1.80847e-06
-3.23792e-08
-1.79605e-06
-3.55944e-08
-1.78259e-06
-3.87872e-08
-1.7681e-06
-4.19557e-08
-1.7526e-06
-4.5098e-08
-1.73608e-06
-4.82123e-08
-1.71856e-06
-5.12969e-08
-1.70005e-06
-5.43501e-08
-1.68056e-06
-5.73705e-08
-1.6601e-06
-6.03565e-08
-1.63868e-06
-6.33067e-08
-1.61631e-06
-6.62199e-08
-1.59301e-06
-6.90948e-08
-1.56878e-06
-7.19299e-08
-1.54365e-06
-7.47242e-08
-1.51762e-06
-7.74762e-08
-1.49071e-06
-8.01847e-08
-1.46293e-06
-8.28485e-08
-1.4343e-06
-8.54661e-08
-1.40484e-06
-8.80364e-08
-1.37455e-06
-9.05579e-08
-1.34346e-06
-9.30293e-08
-1.31159e-06
-9.54492e-08
-1.27894e-06
-9.78162e-08
-1.24554e-06
-1.00129e-07
-1.21141e-06
-1.02385e-07
-1.17657e-06
-1.04583e-07
-1.14102e-06
-1.06721e-07
-1.10481e-06
-1.08798e-07
-1.06794e-06
-1.10811e-07
-1.03043e-06
-1.12759e-07
-9.92316e-07
-1.14639e-07
-9.53613e-07
-1.1645e-07
-9.14345e-07
-1.18189e-07
-8.74537e-07
-1.19854e-07
-8.34213e-07
-1.21443e-07
-7.93399e-07
-1.22954e-07
-7.52121e-07
-1.24384e-07
-7.10407e-07
-1.25731e-07
-6.68284e-07
-1.26994e-07
-6.25781e-07
-1.28168e-07
-5.82927e-07
-1.29254e-07
-5.39752e-07
-1.30247e-07
-4.96286e-07
-1.31147e-07
-4.52562e-07
-1.3195e-07
-4.0861e-07
-1.32656e-07
-3.64463e-07
-1.33262e-07
-3.20155e-07
-1.33766e-07
-2.75719e-07
-1.34167e-07
-2.3119e-07
-1.34462e-07
-1.86602e-07
-1.34649e-07
-1.4199e-07
-1.34728e-07
-9.73914e-08
-1.34696e-07
-5.2841e-08
-1.3455e-07
-8.37524e-09
-1.3429e-07
3.59679e-08
-1.33912e-07
8.01506e-08
-1.33412e-07
1.24137e-07
-1.32791e-07
1.67889e-07
-1.32049e-07
2.11376e-07
-1.3119e-07
2.54571e-07
-1.30222e-07
2.97451e-07
-1.29151e-07
3.39987e-07
-1.27977e-07
3.82143e-07
-1.2671e-07
4.23886e-07
-1.25361e-07
4.65183e-07
-1.23938e-07
5.06008e-07
-1.22443e-07
5.46335e-07
-1.20882e-07
5.86142e-07
-1.19256e-07
6.25408e-07
-1.17571e-07
6.64116e-07
-1.15833e-07
7.02249e-07
-1.14048e-07
7.39796e-07
-1.12225e-07
7.76745e-07
-1.10371e-07
8.1309e-07
-1.08497e-07
8.48828e-07
-1.06614e-07
8.83958e-07
-1.04732e-07
9.18484e-07
-1.02862e-07
9.52414e-07
-1.01019e-07
9.85759e-07
-9.9213e-08
1.01854e-06
-9.74574e-08
1.05077e-06
-9.57642e-08
1.08247e-06
-9.41443e-08
1.11367e-06
-9.2607e-08
1.14441e-06
-9.11588e-08
1.1747e-06
-8.98021e-08
1.20457e-06
-8.85329e-08
1.23406e-06
-8.73377e-08
1.26317e-06
-8.61888e-08
1.2919e-06
-8.50359e-08
1.32023e-06
-8.37939e-08
1.34808e-06
-8.23183e-08
1.37533e-06
-8.0364e-08
1.4017e-06
-7.74898e-08
1.42678e-06
-7.29051e-08
1.44992e-06
-6.49422e-08
1.47021e-06
-5.075e-08
1.48818e-06
-2.27476e-08
3.08317e-08
1.50774e-06
-1.8362e-08
-2.69182e-08
-4.26644e-08
-1.15987e-09
-6.83841e-08
2.08487e-08
-9.53675e-08
4.0511e-08
-1.23605e-07
5.85898e-08
-1.53212e-07
7.53818e-08
-1.84339e-07
9.09339e-08
-2.17132e-07
1.05222e-07
-2.51674e-07
1.18242e-07
-2.87918e-07
1.30033e-07
-3.25682e-07
1.40664e-07
-3.64673e-07
1.50202e-07
-4.04536e-07
1.58683e-07
-4.44908e-07
1.66115e-07
-4.85454e-07
1.72486e-07
-5.25892e-07
1.7778e-07
-5.66001e-07
1.81994e-07
-6.05619e-07
1.85146e-07
-6.44637e-07
1.87278e-07
-6.82993e-07
1.88454e-07
-7.2066e-07
1.88755e-07
-7.57637e-07
1.88275e-07
-7.93938e-07
1.87112e-07
-8.29591e-07
1.85366e-07
-8.64621e-07
1.83134e-07
-8.99056e-07
1.80505e-07
-9.32917e-07
1.77562e-07
-9.66221e-07
1.74376e-07
-9.98977e-07
1.71007e-07
-1.03119e-06
1.67508e-07
-1.06287e-06
1.63917e-07
-1.09401e-06
1.60268e-07
-1.1246e-06
1.56585e-07
-1.15464e-06
1.52887e-07
-1.18412e-06
1.49186e-07
-1.21303e-06
1.45489e-07
-1.24136e-06
1.41802e-07
-1.26909e-06
1.38125e-07
-1.29621e-06
1.34457e-07
-1.3227e-06
1.30795e-07
-1.34855e-06
1.27135e-07
-1.37374e-06
1.23472e-07
-1.39826e-06
1.19801e-07
-1.42208e-06
1.16116e-07
-1.44519e-06
1.12411e-07
-1.46758e-06
1.08683e-07
-1.48921e-06
1.04926e-07
-1.51009e-06
1.01135e-07
-1.53018e-06
9.73079e-08
-1.54948e-06
9.3441e-08
-1.56796e-06
8.95321e-08
-1.58561e-06
8.55796e-08
-1.60241e-06
8.15823e-08
-1.61835e-06
7.75399e-08
-1.6334e-06
7.34524e-08
-1.64756e-06
6.93206e-08
-1.66081e-06
6.51457e-08
-1.67314e-06
6.09293e-08
-1.68453e-06
5.66735e-08
-1.69498e-06
5.23809e-08
-1.70447e-06
4.80541e-08
-1.71299e-06
4.36965e-08
-1.72055e-06
3.93113e-08
-1.72713e-06
3.49023e-08
-1.73272e-06
3.04736e-08
-1.73733e-06
2.60296e-08
-1.74095e-06
2.15753e-08
-1.74359e-06
1.7116e-08
-1.74524e-06
1.26577e-08
-1.7459e-06
8.20675e-09
-1.74558e-06
3.76947e-09
-1.74426e-06
-6.48959e-10
-1.74193e-06
-5.04513e-09
-1.73858e-06
-9.42128e-09
-1.7342e-06
-1.37822e-08
-1.7288e-06
-1.81311e-08
-1.72237e-06
-2.24684e-08
-1.71491e-06
-2.67928e-08
-1.70643e-06
-3.11021e-08
-1.69692e-06
-3.53938e-08
-1.6864e-06
-3.9665e-08
-1.67487e-06
-4.39131e-08
-1.66233e-06
-4.81352e-08
-1.64878e-06
-5.23286e-08
-1.63425e-06
-5.64906e-08
-1.61873e-06
-6.06186e-08
-1.60223e-06
-6.47104e-08
-1.58476e-06
-6.87636e-08
-1.56634e-06
-7.2776e-08
-1.54696e-06
-7.67456e-08
-1.52665e-06
-8.06704e-08
-1.50541e-06
-8.45486e-08
-1.48325e-06
-8.83784e-08
-1.46018e-06
-9.2158e-08
-1.43623e-06
-9.58857e-08
-1.41139e-06
-9.95598e-08
-1.38569e-06
-1.03179e-07
-1.35914e-06
-1.0674e-07
-1.33174e-06
-1.10243e-07
-1.30352e-06
-1.13686e-07
-1.27449e-06
-1.17066e-07
-1.24467e-06
-1.20382e-07