/*--------------------------------*- C++ -*----------------------------------*\
| =========                 |                                                 |
| \\      /  F ield         | OpenFOAM: The Open Source CFD Toolbox           |
|  \\    /   O peration     | Version:  2412                                  |
|   \\  /    A nd           | Website:  www.openfoam.com                      |
|    \\/     M anipulation  |                                                 |
\*---------------------------------------------------------------------------*/
FoamFile
{
    version     2.0;
    format      ascii;
    arch        "LSB;label=32;scalar=64";
    class       volVectorField;
    location    "0.12";
    object      U;
}
// * * * * * * * * * * * * * * * * * * * * * * * * * * * * * * * * * * * * * //

dimensions      [0 1 -1 0 0 0 0];

internalField   nonuniform List<vector> 
12225
(
(0.377183 -0.200896 0)
(0.54396 -0.0519264 0)
(0.71104 -0.0340135 0)
(0.893964 -0.0304753 0)
(1.05909 -0.0297452 0)
(1.20881 -0.0284503 0)
(1.34611 -0.0265157 0)
(1.4704 -0.0245726 0)
(1.58212 -0.0227629 0)
(1.68257 -0.02107 0)
(1.77291 -0.0194914 0)
(1.85409 -0.0180189 0)
(1.92694 -0.0166314 0)
(1.99215 -0.015288 0)
(2.05007 -0.0139669 0)
(2.1016 -0.0125222 0)
(2.14298 -0.0104343 0)
(2.19102 -0.0130722 0)
(0.933503 -0.0317782 0)
(1.0567 -0.0587089 0)
(1.23663 -0.0688977 0)
(1.42154 -0.0644811 0)
(1.58549 -0.061808 0)
(1.73437 -0.0589608 0)
(1.87125 -0.0555577 0)
(1.99595 -0.0521692 0)
(2.10893 -0.048926 0)
(2.21125 -0.0458353 0)
(2.30387 -0.0429116 0)
(2.38764 -0.0401412 0)
(2.46329 -0.0374826 0)
(2.53146 -0.0348585 0)
(2.59254 -0.0322132 0)
(2.64692 -0.0291153 0)
(2.69413 -0.0262215 0)
(2.73604 -0.0164333 0)
(1.39962 -0.0846815 0)
(1.49179 -0.105675 0)
(1.65465 -0.107233 0)
(1.82258 -0.101934 0)
(1.97264 -0.0979805 0)
(2.11033 -0.0936412 0)
(2.23768 -0.0887273 0)
(2.3544 -0.0837821 0)
(2.46083 -0.0789782 0)
(2.55773 -0.074362 0)
(2.64587 -0.0699592 0)
(2.72591 -0.0657513 0)
(2.79849 -0.06168 0)
(2.86413 -0.0576409 0)
(2.92323 -0.0535088 0)
(2.97601 -0.0488809 0)
(3.02266 -0.0437753 0)
(3.06239 -0.0345185 0)
(1.89741 -0.115424 0)
(1.94623 -0.143305 0)
(2.07519 -0.144976 0)
(2.21745 -0.140756 0)
(2.34794 -0.135765 0)
(2.46968 -0.130028 0)
(2.58345 -0.123675 0)
(2.68857 -0.117185 0)
(2.78512 -0.110795 0)
(2.87358 -0.104606 0)
(2.95444 -0.0986631 0)
(3.0282 -0.0929468 0)
(3.09534 -0.0873879 0)
(3.15627 -0.0818595 0)
(3.21134 -0.0761866 0)
(3.26073 -0.0699607 0)
(3.30494 -0.0629171 0)
(3.34237 -0.0520769 0)
(2.43108 -0.125829 0)
(2.4405 -0.169887 0)
(2.52879 -0.177402 0)
(2.64 -0.176158 0)
(2.74677 -0.171212 0)
(2.84897 -0.164708 0)
(2.94609 -0.157351 0)
(3.03692 -0.149647 0)
(3.12114 -0.141928 0)
(3.19889 -0.134366 0)
(3.27044 -0.127036 0)
(3.33604 -0.119931 0)
(3.39604 -0.112981 0)
(3.45071 -0.106048 0)
(3.50036 -0.0989267 0)
(3.54509 -0.0912196 0)
(3.58571 -0.0825037 0)
(3.6201 -0.0705048 0)
(2.99683 -0.123682 0)
(2.97697 -0.185363 0)
(3.02468 -0.201448 0)
(3.102 -0.204935 0)
(3.18206 -0.201552 0)
(3.26191 -0.195229 0)
(3.33987 -0.18752 0)
(3.41414 -0.179123 0)
(3.48395 -0.170497 0)
(3.54911 -0.161907 0)
(3.60958 -0.153475 0)
(3.66544 -0.145222 0)
(3.71682 -0.137089 0)
(3.7639 -0.128943 0)
(3.80689 -0.120573 0)
(3.84587 -0.111613 0)
(3.88181 -0.101613 0)
(3.91215 -0.0889759 0)
(3.58832 -0.114506 0)
(3.55089 -0.190575 0)
(3.56319 -0.215878 0)
(3.60676 -0.225296 0)
(3.6587 -0.224979 0)
(3.71438 -0.219924 0)
(3.77133 -0.212643 0)
(3.82725 -0.204178 0)
(3.88097 -0.19516 0)
(3.93194 -0.18597 0)
(3.97985 -0.176801 0)
(4.02457 -0.167714 0)
(4.06605 -0.158678 0)
(4.10435 -0.149578 0)
(4.13959 -0.14022 0)
(4.17178 -0.130298 0)
(4.20201 -0.119414 0)
(4.2272 -0.106517 0)
(4.1988 -0.101764 0)
(4.15396 -0.187066 0)
(4.13917 -0.220689 0)
(4.15215 -0.236284 0)
(4.17664 -0.240106 0)
(4.20771 -0.237351 0)
(4.24274 -0.231312 0)
(4.27923 -0.223459 0)
(4.3157 -0.214624 0)
(4.3513 -0.205326 0)
(4.38549 -0.195844 0)
(4.41795 -0.186296 0)
(4.44848 -0.176693 0)
(4.47699 -0.166955 0)
(4.50352 -0.156926 0)
(4.52802 -0.14637 0)
(4.55157 -0.134986 0)
(4.57059 -0.122126 0)
(4.82185 -0.0878057 0)
(4.77661 -0.176864 0)
(4.74388 -0.216822 0)
(4.73187 -0.237798 0)
(4.73174 -0.246085 0)
(4.73949 -0.246358 0)
(4.75296 -0.242272 0)
(4.76988 -0.235681 0)
(4.78866 -0.227616 0)
(4.8083 -0.218728 0)
(4.8281 -0.209395 0)
(4.84757 -0.199804 0)
(4.8664 -0.190017 0)
(4.88438 -0.180002 0)
(4.90146 -0.169657 0)
(4.91751 -0.158822 0)
(4.93359 -0.147307 0)
(4.94558 -0.134755 0)
(5.45146 -0.0741051 0)
(5.40949 -0.161996 0)
(5.3668 -0.205803 0)
(5.3365 -0.23061 0)
(5.31631 -0.242853 0)
(5.30377 -0.24636 0)
(5.29751 -0.24466 0)
(5.2959 -0.23983 0)
(5.29752 -0.233042 0)
(5.30139 -0.225051 0)
(5.30675 -0.216322 0)
(5.31305 -0.207113 0)
(5.31987 -0.197543 0)
(5.32695 -0.187637 0)
(5.33414 -0.17735 0)
(5.34126 -0.166601 0)
(5.34929 -0.155308 0)
(5.35363 -0.143312 0)
(6.08167 -0.0613898 0)
(6.0441 -0.144155 0)
(5.99712 -0.18929 0)
(5.9549 -0.216119 0)
(5.92001 -0.231192 0)
(5.89149 -0.237555 0)
(5.86874 -0.23826 0)
(5.85088 -0.235399 0)
(5.83697 -0.230204 0)
(5.82619 -0.223473 0)
(5.81786 -0.215725 0)
(5.81145 -0.207276 0)
(5.80654 -0.198299 0)
(5.80281 -0.188872 0)
(5.8001 -0.179009 0)
(5.79815 -0.168695 0)
(5.7979 -0.157947 0)
(5.79429 -0.146738 0)
(6.65461 -0.0505971 0)
(6.62054 -0.126178 0)
(6.57303 -0.170539 0)
(6.52475 -0.197708 0)
(6.48109 -0.214151 0)
(6.44225 -0.222393 0)
(6.40807 -0.22493 0)
(6.37831 -0.223733 0)
(6.3525 -0.220021 0)
(6.33012 -0.214574 0)
(6.31065 -0.20792 0)
(6.29368 -0.200402 0)
(6.27882 -0.192229 0)
(6.26581 -0.183514 0)
(6.25445 -0.174319 0)
(6.24446 -0.164681 0)
(6.23678 -0.154656 0)
(6.22596 -0.144413 0)
(7.20973 -0.0406488 0)
(7.18016 -0.107362 0)
(7.13446 -0.149557 0)
(7.0834 -0.176069 0)
(7.03441 -0.192889 0)
(6.98875 -0.202248 0)
(6.94652 -0.206109 0)
(6.90788 -0.206242 0)
(6.87278 -0.203822 0)
(6.84102 -0.199589 0)
(6.81229 -0.194047 0)
(6.78631 -0.18754 0)
(6.76282 -0.180293 0)
(6.74159 -0.172446 0)
(6.72246 -0.16409 0)
(6.70516 -0.155302 0)
(6.69057 -0.146148 0)
(6.67312 -0.137011 0)
(7.81811 -0.0310589 0)
(7.79338 -0.0860942 0)
(7.75172 -0.123789 0)
(7.70081 -0.148226 0)
(7.64922 -0.164242 0)
(7.59948 -0.173853 0)
(7.55192 -0.178486 0)
(7.50688 -0.179582 0)
(7.46469 -0.178226 0)
(7.42541 -0.175107 0)
(7.38897 -0.170683 0)
(7.35524 -0.165276 0)
(7.32409 -0.159108 0)
(7.29538 -0.152331 0)
(7.26903 -0.145051 0)
(7.24479 -0.137366 0)
(7.22349 -0.129366 0)
(7.19966 -0.121518 0)
(8.45855 -0.022284 0)
(8.43892 -0.06373 0)
(8.40341 -0.0941911 0)
(8.35607 -0.114587 0)
(8.30532 -0.128208 0)
(8.25478 -0.136795 0)
(8.2052 -0.141315 0)
(8.15706 -0.14277 0)
(8.11091 -0.142035 0)
(8.06708 -0.139713 0)
(8.02567 -0.136202 0)
(7.98669 -0.131785 0)
(7.95012 -0.126667 0)
(7.91593 -0.121 0)
(7.88409 -0.114895 0)
(7.85441 -0.108453 0)
(7.82767 -0.101771 0)
(7.7988 -0.0953362 0)
(9.08866 -0.0143585 0)
(9.07382 -0.0416984 0)
(9.0456 -0.0627828 0)
(9.00495 -0.0771041 0)
(8.95894 -0.0865081 0)
(8.91164 -0.0923647 0)
(8.86415 -0.0953655 0)
(8.817 -0.096121 0)
(8.77089 -0.095225 0)
(8.72636 -0.0931241 0)
(8.68368 -0.0901151 0)
(8.643 -0.0864076 0)
(8.6044 -0.0821617 0)
(8.56789 -0.0775013 0)
(8.53353 -0.0725278 0)
(8.50117 -0.0673371 0)
(8.47154 -0.061998 0)
(8.4403 -0.057019 0)
(9.63295 -0.00705968 0)
(9.6217 -0.0206671 0)
(9.59987 -0.0313321 0)
(9.56659 -0.0382907 0)
(9.52746 -0.042304 0)
(9.48642 -0.0442032 0)
(9.4447 -0.0444388 0)
(9.40272 -0.0433491 0)
(9.36108 -0.041277 0)
(9.32035 -0.0385056 0)
(9.28091 -0.0352303 0)
(9.24293 -0.0315881 0)
(9.20656 -0.0276868 0)
(9.17188 -0.0236174 0)
(9.13895 -0.019453 0)
(9.1077 -0.0152741 0)
(9.07869 -0.0110953 0)
(9.04892 -0.00741108 0)
(9.96404 0.000121561 0)
(9.95459 0.000205187 0)
(9.93649 0.000691924 0)
(9.90812 0.00196466 0)
(9.87423 0.00393572 0)
(9.83859 0.00641392 0)
(9.80247 0.00929501 0)
(9.76622 0.0125075 0)
(9.7303 0.0159674 0)
(9.6952 0.0195939 0)
(9.66124 0.0233247 0)
(9.62857 0.0271098 0)
(9.59725 0.0309035 0)
(9.56732 0.0346568 0)
(9.53882 0.0383277 0)
(9.5117 0.0418522 0)
(9.48612 0.0452543 0)
(9.46108 0.0481181 0)
(9.87499 0.00748761 0)
(9.86688 0.0218402 0)
(9.84987 0.034281 0)
(9.8225 0.0445074 0)
(9.78961 0.0529438 0)
(9.755 0.0600728 0)
(9.71996 0.0661914 0)
(9.68488 0.0715148 0)
(9.6502 0.0762398 0)
(9.61644 0.0805253 0)
(9.5839 0.084479 0)
(9.55274 0.0881689 0)
(9.52301 0.0916372 0)
(9.49473 0.0949068 0)
(9.46788 0.0979861 0)
(9.44247 0.100856 0)
(9.41822 0.103554 0)
(9.39619 0.105798 0)
(9.28437 0.0159316 0)
(9.27065 0.0462364 0)
(9.24579 0.071246 0)
(9.20982 0.0904926 0)
(9.169 0.105336 0)
(9.1273 0.116978 0)
(9.08582 0.126101 0)
(9.04495 0.133246 0)
(9.00525 0.138928 0)
(8.96721 0.143549 0)
(8.93108 0.147389 0)
(8.89694 0.150637 0)
(8.86482 0.153432 0)
(8.83466 0.155874 0)
(8.8064 0.158033 0)
(8.78001 0.159959 0)
(8.75499 0.161699 0)
(8.73335 0.163109 0)
(8.47101 0.0261018 0)
(8.45237 0.0738421 0)
(8.41971 0.110403 0)
(8.37627 0.136958 0)
(8.32999 0.156627 0)
(8.28458 0.171257 0)
(8.24075 0.181881 0)
(8.19884 0.189457 0)
(8.1593 0.194845 0)
(8.12243 0.198671 0)
(8.08827 0.201361 0)
(8.05677 0.203223 0)
(8.02778 0.204486 0)
(8.00119 0.205321 0)
(7.97681 0.205852 0)
(7.95454 0.206176 0)
(7.93386 0.206354 0)
(7.91679 0.206342 0)
(7.51239 0.0385332 0)
(7.4866 0.104532 0)
(7.44646 0.150275 0)
(7.39956 0.181421 0)
(7.35397 0.203416 0)
(7.31186 0.218558 0)
(7.27321 0.228375 0)
(7.23811 0.234405 0)
(7.20665 0.237862 0)
(7.17874 0.239546 0)
(7.15409 0.239998 0)
(7.13242 0.23961 0)
(7.11344 0.238665 0)
(7.09686 0.237367 0)
(7.08243 0.235859 0)
(7.06993 0.234247 0)
(7.05886 0.232588 0)
(7.05095 0.230904 0)
(6.48931 0.054233 0)
(6.45656 0.136926 0)
(6.41296 0.186989 0)
(6.37065 0.218606 0)
(6.33491 0.239456 0)
(6.3053 0.252116 0)
(6.2811 0.25883 0)
(6.26189 0.261677 0)
(6.24709 0.262046 0)
(6.23603 0.260791 0)
(6.2281 0.258492 0)
(6.22278 0.255562 0)
(6.21963 0.252286 0)
(6.21827 0.248854 0)
(6.21838 0.245395 0)
(6.21973 0.241999 0)
(6.22188 0.238712 0)
(6.22622 0.235587 0)
(5.45712 0.0733958 0)
(5.41829 0.166508 0)
(5.37869 0.214147 0)
(5.35278 0.241983 0)
(5.33866 0.258382 0)
(5.3325 0.266148 0)
(5.33275 0.268332 0)
(5.33814 0.267263 0)
(5.3473 0.264256 0)
(5.35913 0.260097 0)
(5.37286 0.255316 0)
(5.38791 0.250267 0)
(5.40384 0.245175 0)
(5.4203 0.240179 0)
(5.43704 0.235365 0)
(5.45389 0.230785 0)
(5.47051 0.226462 0)
(5.48805 0.222458 0)
(4.45282 0.0947818 0)
(4.41206 0.187425 0)
(4.39049 0.225957 0)
(4.39662 0.246425 0)
(4.41651 0.255957 0)
(4.44338 0.257867 0)
(4.47531 0.255625 0)
(4.51041 0.251245 0)
(4.54698 0.245708 0)
(4.58397 0.239609 0)
(4.62076 0.233344 0)
(4.65693 0.227157 0)
(4.6922 0.221187 0)
(4.72639 0.21551 0)
(4.7594 0.210165 0)
(4.79121 0.205166 0)
(4.82163 0.200516 0)
(4.85163 0.196278 0)
(3.50293 0.114455 0)
(3.47301 0.19293 0)
(3.48914 0.217664 0)
(3.54121 0.22891 0)
(3.60263 0.231491 0)
(3.66653 0.228862 0)
(3.73183 0.223862 0)
(3.7968 0.217758 0)
(3.86006 0.211152 0)
(3.92094 0.204443 0)
(3.9792 0.197885 0)
(4.03471 0.191619 0)
(4.08745 0.185714 0)
(4.13746 0.180198 0)
(4.18485 0.175075 0)
(4.22973 0.170336 0)
(4.27214 0.165966 0)
(4.31288 0.162039 0)
(2.62982 0.122985 0)
(2.63208 0.176395 0)
(2.70179 0.187981 0)
(2.80471 0.191101 0)
(2.90736 0.189132 0)
(3.00608 0.184618 0)
(3.10166 0.178948 0)
(3.19312 0.172768 0)
(3.27962 0.166478 0)
(3.36102 0.160332 0)
(3.43748 0.154477 0)
(3.5092 0.148986 0)
(3.57643 0.143884 0)
(3.63947 0.139171 0)
(3.69859 0.134831 0)
(3.7541 0.130842 0)
(3.80617 0.127183 0)
(3.85556 0.123946 0)
(1.85178 0.104827 0)
(1.90639 0.134443 0)
(2.03034 0.141905 0)
(2.17815 0.140525 0)
(2.3159 0.137051 0)
(2.44347 0.132938 0)
(2.56372 0.128122 0)
(2.67657 0.123012 0)
(2.78165 0.117968 0)
(2.87928 0.113143 0)
(2.96997 0.10861 0)
(3.05426 0.104405 0)
(3.13264 0.100533 0)
(3.2056 0.0969808 0)
(3.27361 0.0937275 0)
(3.33711 0.0907498 0)
(3.39641 0.0880124 0)
(3.45225 0.0856223 0)
(1.17533 0.0416903 0)
(1.28238 0.0661081 0)
(1.43869 0.0889914 0)
(1.61661 0.0891836 0)
(1.78037 0.0862386 0)
(1.9292 0.0833413 0)
(2.06748 0.0798454 0)
(2.19592 0.0761306 0)
(2.31442 0.0725422 0)
(2.42356 0.0691647 0)
(2.52421 0.0660233 0)
(2.61716 0.0631335 0)
(2.70311 0.0604921 0)
(2.78274 0.0580827 0)
(2.85662 0.055885 0)
(2.92532 0.0538819 0)
(2.98925 0.0520117 0)
(3.04913 0.0503738 0)
(0.469484 0.226529 0)
(0.642366 0.0691641 0)
(0.788947 0.0480279 0)
(0.972472 0.0444133 0)
(1.14916 0.0429759 0)
(1.3092 0.0416838 0)
(1.45693 0.0396516 0)
(1.59333 0.0373369 0)
(1.71818 0.0351193 0)
(1.83225 0.0330718 0)
(1.93671 0.0311899 0)
(2.03259 0.0294718 0)
(2.12075 0.0279107 0)
(2.20198 0.0264938 0)
(2.27699 0.0252053 0)
(2.34641 0.0240379 0)
(2.41075 0.0229386 0)
(2.47032 0.0219862 0)
(0.012391 -0.0261577 -2.68368e-20)
(0.0360254 -0.0392067 2.60574e-20)
(0.0584158 -0.0373487 0)
(0.0754534 -0.0286219 0)
(0.0845993 -0.0169674 0)
(0.0853758 -0.00489458 -2.4471e-20)
(0.078405 0.00559283 0)
(0.0657326 0.0132737 0)
(0.0488558 0.0181005 0)
(0.0288853 0.0208383 0)
(0.00653257 0.0224868 2.42046e-20)
(-0.0178858 0.0239268 0)
(-0.044428 0.0257071 0)
(-0.0733199 0.0279826 0)
(-0.104728 0.0306768 0)
(-0.138744 0.0336249 2.20641e-20)
(-0.175365 0.0366571 0)
(-0.214492 0.0396228 0)
(-0.255949 0.0423955 0)
(-0.299494 0.0448745 0)
(-0.344838 0.046986 0)
(-0.391663 0.0486828 0)
(-0.439635 0.049943 0)
(-0.488424 0.0507676 1.87114e-20)
(-0.537717 0.0511782 -1.83695e-20)
(-0.587229 0.0512173 1.80471e-20)
(-0.636693 0.0509446 1.77436e-20)
(-0.68585 0.0504257 0)
(-0.734586 0.0497217 0)
(-0.782755 0.0488627 -1.69325e-20)
(-0.830237 0.0478776 -1.66925e-20)
(-0.876942 0.0467954 0)
(-0.922796 0.0456421 0)
(-0.967747 0.0444403 -1.6047e-20)
(-1.01176 0.0432086 0)
(-1.0548 0.0419621 0)
(-1.09686 0.0407121 1.54896e-20)
(-1.13793 0.0394671 0)
(-1.178 0.038233 1.51535e-20)
(-1.21707 0.0370135 2.99873e-20)
(-1.25515 0.0358108 0)
(-1.29224 0.0346257 0)
(-1.32835 0.033458 0)
(-1.36346 0.032307 0)
(-1.3976 0.0311715 0)
(-1.43075 0.0300501 2.82143e-20)
(-1.46291 0.0289411 2.7933e-20)
(-1.49408 0.0278431 2.76534e-20)
(-1.52427 0.0267546 0)
(-1.55345 0.0256742 -2.70962e-20)
(-1.58162 0.0246009 0)
(-1.60878 0.0235337 2.65372e-20)
(-1.63492 0.0224718 2.62555e-20)
(-1.66002 0.0214145 0)
(-1.68408 0.0203614 0)
(-1.70708 0.0193122 0)
(-1.72901 0.0182665 2.51017e-20)
(-1.74987 0.0172242 0)
(-1.76963 0.0161849 0)
(-1.7883 0.0151482 0)
(-1.80585 0.0141136 0)
(-1.82228 0.0130801 0)
(-1.83758 0.0120466 0)
(-1.85172 0.011011 0)
(-1.86471 0.00997103 0)
(-1.87652 0.00892359 -2.22352e-20)
(-1.88715 0.00786501 0)
(-1.89656 0.00679083 0)
(-1.90474 0.00569656 2.11687e-20)
(-1.91165 0.00457969 2.07995e-20)
(-1.91727 0.00344502 0)
(-1.92156 0.00231293 -2.00407e-20)
(-1.92446 0.00122251 1.96512e-20)
(-1.92589 0.000220787 0)
(-1.92611 -0.000651583 -1.88431e-20)
(-1.92526 -0.0014293 0)
(-1.92333 -0.00216531 0)
(-1.92034 -0.00287759 1.75677e-20)
(-1.91631 -0.00357366 0)
(-1.91123 -0.00425645 -1.66759e-20)
(-1.90513 -0.00492716 0)
(-1.898 -0.00558619 1.57511e-20)
(-1.88984 -0.00623362 1.52764e-20)
(-1.88067 -0.00686942 1.47936e-20)
(-1.87047 -0.00749347 2.86055e-20)
(-1.85927 -0.00810569 -2.76082e-20)
(-1.84707 -0.00870596 0)
(-1.83387 -0.0092942 0)
(-1.81968 -0.00987033 0)
(-1.80451 -0.0104343 -2.34658e-20)
(-1.78836 -0.0109861 -2.23935e-20)
(-1.77125 -0.0115256 2.13072e-20)
(-1.75319 -0.0120529 0)
(-1.73418 -0.0125679 -1.9094e-20)
(-1.71422 -0.0130706 -1.7968e-20)
(-1.69335 -0.013561 -1.68297e-20)
(-1.67155 -0.0140391 0)
(-1.64885 -0.0145049 0)
(-1.62525 -0.0149582 0)
(-1.60077 -0.0153993 -1.21625e-20)
(-1.57542 -0.0158279 0)
(-1.54921 -0.016244 0)
(-1.52216 -0.0166477 8.55751e-21)
(-1.49427 -0.0170389 0)
(-1.46556 -0.0174174 0)
(-1.43604 -0.0177831 4.88056e-21)
(-1.40574 -0.0181361 0)
(-1.37466 -0.0184761 0)
(-1.34282 -0.018803 -1.14942e-21)
(-1.31024 -0.0191167 1.03034e-22)
(-1.27693 -0.019417 0)
(-1.24292 -0.0197037 -2.61654e-21)
(-1.20821 -0.0199767 0)
(-1.17284 -0.0202358 5.13626e-21)
(-1.13681 -0.0204806 0)
(-1.10016 -0.0207111 7.65562e-21)
(-1.06289 -0.020927 8.91304e-21)
(-1.02504 -0.021128 0)
(-0.986626 -0.021314 0)
(-0.947672 -0.0214846 0)
(-0.908203 -0.0216397 0)
(-0.868245 -0.021779 0)
(-0.827823 -0.0219023 0)
(-0.786965 -0.0220094 0)
(-0.745699 -0.0220999 1.88004e-20)
(-0.704053 -0.0221739 -2.0001e-20)
(-0.662057 -0.0222309 0)
(-0.619741 -0.0222708 0)
(-0.577136 -0.0222935 0)
(-0.534274 -0.0222987 0)
(-0.491188 -0.0222862 -5.16403e-20)
(-0.447911 -0.0222559 0)
(-0.404477 -0.0222074 5.60897e-20)
(-0.360922 -0.0221406 -5.82629e-20)
(-0.317281 -0.0220551 0)
(-0.273591 -0.0219504 0)
(-0.229893 -0.0218259 0)
(-0.186225 -0.02168 6.6574e-20)
(-0.14263 -0.0215092 6.85483e-20)
(-0.0991491 -0.0213109 0)
(-0.0558229 -0.0210823 7.23641e-20)
(-0.0126895 -0.0208025 7.4101e-20)
(0.0301562 -0.0204271 -7.5308e-20)
(0.0727009 -0.0199959 0)
(0.114922 -0.0195635 0)
(0.156791 -0.019137 -7.74445e-20)
(0.198287 -0.0187141 0)
(0.239392 -0.0182927 0)
(0.280087 -0.0178718 0)
(0.320351 -0.0174511 0)
(0.360165 -0.0170309 7.99411e-20)
(0.399509 -0.0166118 8.03011e-20)
(0.438366 -0.0161948 0)
(0.47672 -0.015781 8.08991e-20)
(0.514561 -0.0153714 0)
(0.551877 -0.0149675 0)
(0.588663 -0.0145706 8.15221e-20)
(0.624918 -0.0141822 0)
(0.660642 -0.0138036 8.17771e-20)
(0.695843 -0.0134363 0)
(0.73053 -0.0130817 0)
(0.764718 -0.0127413 8.19547e-20)
(0.798426 -0.0124162 0)
(0.831679 -0.0121074 8.19556e-20)
(0.864504 -0.0118158 0)
(0.896931 -0.0115417 0)
(0.928992 -0.011285 0)
(0.96072 -0.0110449 -8.17311e-20)
(0.992144 -0.0108191 0)
(1.02329 -0.0106041 8.15317e-20)
(1.05416 -0.0103934 0)
(1.08475 -0.0101766 0)
(1.11499 -0.00993633 0)
(1.14476 -0.0096431 0)
(1.17382 -0.0092378 0)
(1.20149 -0.00861904 0)
(1.2272 -0.00744567 0)
(1.24599 -0.00506999 -1.62053e-19)
(1.26217 0.0020177 0)
(1.21757 0.0173689 0)
(0.0121025 -0.076464 7.87976e-20)
(0.0242754 -0.0737361 -7.38117e-20)
(0.0258054 -0.0504263 0)
(0.0213821 -0.0259523 4.36523e-20)
(0.0120525 -0.00276407 0)
(-0.00121006 0.0180342 2.05929e-20)
(-0.0180353 0.035624 -4.01938e-20)
(-0.0386429 0.0497071 -3.93225e-20)
(-0.0630068 0.0607058 0)
(-0.0910687 0.0694847 -3.76831e-20)
(-0.122681 0.0769723 -1.84773e-20)
(-0.157595 0.0838913 0)
(-0.19549 0.0906563 0)
(-0.236024 0.0973789 0)
(-0.278848 0.103959 0)
(-0.323606 0.110205 -1.65026e-20)
(-0.369929 0.11591 0)
(-0.417444 0.120898 3.14337e-20)
(-0.465779 0.12504 0)
(-0.514577 0.128259 0)
(-0.563507 0.130524 -2.94454e-20)
(-0.612272 0.13185 0)
(-0.66062 0.132287 2.8284e-20)
(-0.708339 0.131912 -1.39166e-20)
(-0.755267 0.130821 1.36664e-20)
(-0.801282 0.129122 -1.34319e-20)
(-0.846298 0.126933 -1.32122e-20)
(-0.890252 0.124369 0)
(-0.933105 0.121528 0)
(-0.974829 0.118482 1.26299e-20)
(-1.01542 0.115293 -1.23832e-20)
(-1.05489 0.112014 0)
(-1.09325 0.108687 0)
(-1.13053 0.105348 1.19914e-20)
(-1.16675 0.102022 0)
(-1.20194 0.0987306 0)
(-1.23612 0.095486 -1.15842e-20)
(-1.26931 0.0922972 0)
(-1.30155 0.0891689 1.12586e-20)
(-1.33284 0.0861025 -2.24337e-20)
(-1.3632 0.0830973 0)
(-1.39265 0.0801508 0)
(-1.4212 0.0772596 -4.33491e-20)
(-1.44884 0.0744195 -4.29095e-20)
(-1.47559 0.0716259 -4.24751e-20)
(-1.50146 0.0688745 2.09509e-20)
(-1.52643 0.0661608 -2.08781e-20)
(-1.55051 0.0634809 -6.18533e-20)
(-1.57369 0.0608311 4.07643e-20)
(-1.59598 0.0582083 2.02327e-20)
(-1.61736 0.0556098 0)
(-1.63783 0.0530333 -1.9799e-20)
(-1.65739 0.0504772 1.94672e-20)
(-1.67602 0.0479401 0)
(-1.69372 0.0454211 0)
(-1.71047 0.0429197 0)
(-1.72628 0.0404356 -1.86796e-20)
(-1.74114 0.0379687 0)
(-1.75503 0.0355193 3.63465e-20)
(-1.76795 0.0330874 0)
(-1.77989 0.0306734 3.53937e-20)
(-1.79084 0.0282774 0)
(-1.80081 0.0258996 -3.44084e-20)
(-1.80978 0.0235397 0)
(-1.81775 0.0211971 3.33877e-20)
(-1.82472 0.0188711 -1.64196e-20)
(-1.83068 0.0165604 0)
(-1.83566 0.0142639 -3.17858e-20)
(-1.83964 0.0119797 -1.56162e-20)
(-1.84266 0.00970621 -1.53303e-20)
(-1.84475 0.00744459 0)
(-1.84594 0.00520749 -1.47663e-20)
(-1.84632 0.00302794 -1.44418e-20)
(-1.84596 0.000949586 0)
(-1.84473 -0.00100894 1.38165e-20)
(-1.84251 -0.00287411 -2.70424e-20)
(-1.83929 -0.00467871 0)
(-1.83506 -0.00643731 -1.28399e-20)
(-1.82981 -0.0081574 0)
(-1.82355 -0.00984204 3.65679e-20)
(-1.81627 -0.0114924 0)
(-1.80799 -0.0131087 -3.44874e-20)
(-1.79869 -0.0146908 -1.11065e-20)
(-1.78839 -0.0162384 1.08562e-20)
(-1.77709 -0.017751 2.0993e-20)
(-1.7648 -0.0192284 -2.02636e-20)
(-1.75152 -0.0206703 0)
(-1.73725 -0.0220764 0)
(-1.72201 -0.0234465 0)
(-1.7058 -0.0247805 5.11291e-20)
(-1.68863 -0.0260784 1.61497e-20)
(-1.67051 -0.0273401 -1.53512e-20)
(-1.65145 -0.0285655 0)
(-1.63144 -0.0297547 -1.40923e-20)
(-1.61052 -0.0309078 1.2908e-20)
(-1.58868 -0.0320248 1.20787e-20)
(-1.56593 -0.0331057 0)
(-1.54229 -0.0341506 0)
(-1.51776 -0.0351596 0)
(-1.49236 -0.0361328 8.69658e-21)
(-1.4661 -0.0370701 0)
(-1.43899 -0.0379718 -1.4396e-20)
(-1.41105 -0.0388378 -1.87692e-20)
(-1.38228 -0.0396682 1.09291e-20)
(-1.3527 -0.040463 0)
(-1.32233 -0.0412221 3.9603e-21)
(-1.29118 -0.0419455 0)
(-1.25926 -0.0426332 3.91038e-21)
(-1.22659 -0.043285 -1.32797e-21)
(-1.19319 -0.0439008 -4.465e-22)
(-1.15907 -0.0444806 0)
(-1.12425 -0.0450242 5.02305e-21)
(-1.08876 -0.0455315 -4.94401e-21)
(-1.0526 -0.0460022 -3.62942e-21)
(-1.0158 -0.0464362 0)
(-0.978374 -0.0468333 -5.4017e-21)
(-0.940352 -0.0471934 -1.8297e-20)
(-0.901752 -0.0475162 0)
(-0.862596 -0.0478015 -1.5518e-20)
(-0.822908 -0.0480492 -1.72597e-20)
(-0.782712 -0.0482592 -1.89925e-20)
(-0.742034 -0.0484312 0)
(-0.7009 -0.0485651 0)
(-0.659336 -0.048661 0)
(-0.61737 -0.0487186 1.26209e-20)
(-0.575031 -0.0487379 1.40269e-20)
(-0.532347 -0.048719 0)
(-0.489348 -0.0486618 3.07787e-20)
(-0.446065 -0.0485664 3.24e-20)
(-0.402529 -0.0484328 0)
(-0.358773 -0.0482611 3.61455e-20)
(-0.314829 -0.0480514 7.42935e-20)
(-0.27073 -0.0478036 -3.92396e-20)
(-0.226512 -0.0475178 -3.96546e-20)
(-0.182209 -0.0471935 0)
(-0.137857 -0.0468304 0)
(-0.0934929 -0.0464271 0)
(-0.0491547 -0.0459819 -4.65504e-20)
(-0.00488111 -0.0454932 4.68043e-20)
(0.0392882 -0.0449597 9.67325e-20)
(0.0833147 -0.0443846 -4.9734e-20)
(0.127164 -0.0437723 4.95884e-20)
(0.170797 -0.043109 5.13641e-20)
(0.214194 -0.0423982 0)
(0.257322 -0.0416639 0)
(0.30015 -0.0409185 -5.27242e-20)
(0.342648 -0.0401644 0)
(0.384791 -0.0394014 0)
(0.426556 -0.0386295 1.10228e-19)
(0.467919 -0.0378493 0)
(0.508858 -0.0370622 5.58701e-20)
(0.549355 -0.0362697 -5.71279e-20)
(0.589392 -0.0354743 0)
(0.628953 -0.0346783 5.73687e-20)
(0.668026 -0.0338846 0)
(0.7066 -0.0330961 0)
(0.744671 -0.032316 -5.92233e-20)
(0.782235 -0.0315476 1.18532e-19)
(0.819293 -0.0307943 -5.98781e-20)
(0.855852 -0.0300594 0)
(0.89192 -0.0293463 0)
(0.927513 -0.0286583 6.01719e-20)
(0.962647 -0.0279982 0)
(0.997346 -0.0273688 6.0644e-20)
(1.03164 -0.0267721 0)
(1.06555 -0.0262092 0)
(1.09911 -0.0256802 0)
(1.13235 -0.0251832 6.17982e-20)
(1.1653 -0.0247138 0)
(1.19799 -0.0242637 -6.20476e-20)
(1.23042 -0.0238186 0)
(1.26258 -0.0233548 0)
(1.29441 -0.0228321 1.24339e-19)
(1.32579 -0.0221821 -1.24549e-19)
(1.35651 -0.0212732 0)
(1.38604 -0.0198672 0)
(1.41384 -0.0173083 0)
(1.43719 -0.0124825 3.78535e-19)
(1.45854 -0.000544464 0)
(1.46269 0.02452 -2.56675e-19)
(0.00208523 -0.0948897 -1.42405e-22)
(-0.00373245 -0.0644429 9.40988e-20)
(-0.0170817 -0.0287981 0)
(-0.0329795 0.00341758 -7.74553e-20)
(-0.0516124 0.032376 0)
(-0.0726883 0.0582928 0)
(-0.0961253 0.0812058 4.49289e-23)
(-0.122048 0.101124 3.28054e-20)
(-0.150618 0.118265 3.19661e-20)
(-0.181918 0.133092 3.12569e-20)
(-0.215866 0.146165 0)
(-0.252214 0.157951 0)
(-0.290594 0.168718 -2.90581e-20)
(-0.330577 0.178533 -5.67259e-20)
(-0.371732 0.187324 5.53682e-20)
(-0.413653 0.194956 0)
(-0.455977 0.201294 5.27714e-20)
(-0.498389 0.20624 -2.57816e-20)
(-0.540626 0.209754 0)
(-0.582479 0.211848 4.92289e-20)
(-0.623787 0.212588 2.40763e-20)
(-0.664434 0.21208 -4.71255e-20)
(-0.704345 0.21046 -2.30748e-20)
(-0.743475 0.20788 0)
(-0.781806 0.204498 4.43567e-20)
(-0.819334 0.200473 4.35308e-20)
(-0.856066 0.195953 0)
(-0.892012 0.191073 4.20099e-20)
(-0.927185 0.185945 0)
(-0.961596 0.180662 4.06444e-20)
(-0.995262 0.175298 2.00258e-20)
(-1.0282 0.169912 0)
(-1.06042 0.164548 0)
(-1.09193 0.159241 0)
(-1.12276 0.154015 0)
(-1.1529 0.148882 0)
(-1.18235 0.143854 0)
(-1.21113 0.138932 3.631e-20)
(-1.23924 0.134115 -5.38255e-20)
(-1.26666 0.129401 0)
(-1.29341 0.124783 0)
(-1.31947 0.120255 0)
(-1.34484 0.11581 8.74002e-23)
(-1.36951 0.111438 3.3847e-20)
(-1.39347 0.107134 6.68152e-20)
(-1.41672 0.10289 -6.60342e-20)
(-1.43923 0.0986999 -3.25876e-20)
(-1.46101 0.0945571 3.22895e-20)
(-1.48204 0.090457 -8.27885e-23)
(-1.5023 0.0863952 3.1446e-20)
(-1.52179 0.0823681 0)
(-1.54048 0.0783731 3.06907e-20)
(-1.55838 0.0744079 -7.22832e-23)
(-1.57546 0.0704712 0)
(-1.5917 0.0665621 0)
(-1.60711 0.0626802 -2.91698e-20)
(-1.62167 0.0588257 0)
(-1.63535 0.0549989 0)
(-1.64816 0.0512007 2.79545e-20)
(-1.66009 0.0474321 5.52143e-20)
(-1.67111 0.0436941 -2.72462e-20)
(-1.68123 0.0399882 0)
(-1.69044 0.0363159 2.64216e-20)
(-1.69872 0.0326785 0)
(-1.70608 0.029078 2.55375e-20)
(-1.71251 0.0255164 2.51449e-20)
(-1.71802 0.0219964 -4.93985e-20)
(-1.7226 0.0185217 -2.42584e-20)
(-1.72625 0.0150979 0)
(-1.729 0.0117324 4.67375e-20)
(-1.73084 0.00843583 0)
(-1.73178 0.00522097 6.73357e-20)
(-1.73182 0.00209845 4.39533e-20)
(-1.73095 -0.000933317 4.29864e-20)
(-1.72913 -0.00389716 -4.20089e-20)
(-1.72633 -0.00680651 6.14865e-20)
(-1.72255 -0.00966154 0)
(-1.7178 -0.0124627 0)
(-1.71206 -0.0152099 -3.79691e-20)
(-1.70534 -0.017903 -5.53229e-20)
(-1.69763 -0.0205415 0)
(-1.68895 -0.0231245 1.73224e-20)
(-1.67929 -0.0256515 0)
(-1.66865 -0.0281216 -4.88371e-20)
(-1.65704 -0.0305342 1.85505e-22)
(-1.64447 -0.0328886 -1.96246e-22)
(-1.63094 -0.0351843 2.92489e-20)
(-1.61645 -0.037421 0)
(-1.60101 -0.0395982 -2.69431e-20)
(-1.58463 -0.0417159 2.37693e-22)
(-1.56732 -0.0437739 0)
(-1.54908 -0.045772 0)
(-1.52993 -0.0477104 0)
(-1.50986 -0.0495891 2.07087e-20)
(-1.48889 -0.051408 0)
(-1.46703 -0.0531675 0)
(-1.44429 -0.0548674 0)
(-1.42068 -0.056508 0)
(-1.39621 -0.0580894 0)
(-1.37088 -0.0596116 1.35311e-20)
(-1.34472 -0.0610749 0)
(-1.31773 -0.0624795 1.06468e-20)
(-1.28993 -0.0638253 9.36094e-21)
(-1.26132 -0.0651125 -8.07071e-21)
(-1.23193 -0.0663412 0)
(-1.20176 -0.0675113 -5.47982e-21)
(-1.17082 -0.0686229 0)
(-1.13915 -0.0696758 -2.87933e-21)
(-1.10674 -0.0706699 1.57716e-21)
(-1.07361 -0.0716053 1.61014e-21)
(-1.03979 -0.0724817 0)
(-1.00529 -0.0732991 -6.1809e-21)
(-0.970122 -0.0740573 -2.81415e-21)
(-0.93431 -0.074756 0)
(-0.897873 -0.075395 -1.16085e-20)
(-0.860829 -0.0759742 -1.41814e-20)
(-0.8232 -0.0764934 2.55396e-20)
(-0.785007 -0.0769523 0)
(-0.746272 -0.0773508 1.13471e-20)
(-0.707019 -0.0776886 1.26138e-20)
(-0.667271 -0.0779658 4.07596e-20)
(-0.627052 -0.0781821 0)
(-0.586388 -0.0783374 0)
(-0.545305 -0.0784319 0)
(-0.50383 -0.0784654 1.79535e-20)
(-0.46199 -0.078438 0)
(-0.419814 -0.0783499 0)
(-0.37733 -0.0782013 -2.24113e-20)
(-0.334568 -0.0779922 -2.35834e-20)
(-0.29156 -0.0777231 0)
(-0.248335 -0.0773941 0)
(-0.204926 -0.0770055 -5.40267e-20)
(-0.161365 -0.0765575 0)
(-0.117685 -0.0760502 5.8444e-20)
(-0.0739201 -0.0754834 5.97748e-20)
(-0.0301043 -0.0748571 0)
(0.0137276 -0.0741711 0)
(0.0575396 -0.0734247 -6.54741e-20)
(0.101297 -0.0726175 -7.81361e-22)
(0.144963 -0.0717503 -7.6664e-22)
(0.188505 -0.0708272 0)
(0.231892 -0.0698556 -1.43535e-19)
(0.275105 -0.068841 0)
(0.31812 -0.0677849 0)
(0.360902 -0.0666947 0)
(0.403417 -0.065578 7.73685e-20)
(0.445632 -0.064439 0)
(0.487517 -0.0632797 -1.58153e-19)
(0.529047 -0.0621018 -8.08227e-20)
(0.570197 -0.0609075 0)
(0.610945 -0.0596992 -8.28982e-20)
(0.651273 -0.0584802 0)
(0.691161 -0.0572541 0)
(0.730596 -0.0560252 -2.55988e-19)
(0.769564 -0.0547977 1.72029e-19)
(0.808057 -0.0535766 0)
(0.846067 -0.0523668 1.75258e-19)
(0.883594 -0.0511735 -8.88593e-20)
(0.920637 -0.0500021 0)
(0.957201 -0.048858 0)
(0.993296 -0.0477466 0)
(1.02894 -0.0466729 -2.73545e-19)
(1.06414 -0.0456419 0)
(1.09892 -0.0446577 -9.25787e-20)
(1.13331 -0.0437237 0)
(1.16734 -0.0428417 0)
(1.20103 -0.0420119 0)
(1.23442 -0.0412315 0)
(1.26753 -0.0404937 0)
(1.30038 -0.0397854 0)
(1.33299 -0.0390845 -1.90695e-19)
(1.36534 -0.0383539 0)
(1.39739 -0.0375321 -9.64172e-20)
(1.42902 -0.036515 2.89729e-19)
(1.46007 -0.0351135 0)
(1.49012 -0.0329858 0)
(1.5188 -0.0293731 -1.95634e-19)
(1.54451 -0.0229536 -1.97594e-19)
(1.56933 -0.00991038 1.99172e-19)
(1.58585 0.0161771 2.02324e-19)
(-0.0102135 -0.071896 -1.53111e-19)
(-0.0276239 -0.0285735 -1.34871e-19)
(-0.0492106 0.0120493 -7.7908e-20)
(-0.0722578 0.0477685 -3.49517e-20)
(-0.0967845 0.0800108 0)
(-0.122527 0.109292 6.17996e-20)
(-0.149552 0.135748 -2.96898e-20)
(-0.178018 0.15942 0)
(-0.208048 0.180419 -2.80418e-20)
(-0.239668 0.198965 0)
(-0.272777 0.215327 5.32574e-20)
(-0.307157 0.229739 0)
(-0.342511 0.242347 2.53198e-20)
(-0.37851 0.253201 4.93697e-20)
(-0.41484 0.262289 -4.81332e-20)
(-0.451221 0.269582 0)
(-0.487431 0.275065 -4.57751e-20)
(-0.523297 0.278764 0)
(-0.558701 0.280749 0)
(-0.593569 0.281136 -4.25656e-20)
(-0.627863 0.280072 0)
(-0.661571 0.277727 -7.11365e-23)
(-0.694702 0.274282 0)
(-0.727275 0.269922 0)
(-0.759314 0.264822 6.07363e-23)
(-0.790845 0.259145 -3.73968e-20)
(-0.82189 0.253039 -3.67343e-20)
(-0.852464 0.246629 -3.6012e-20)
(-0.882579 0.240021 0)
(-0.912242 0.233304 -6.95617e-20)
(-0.941457 0.226544 0)
(-0.970224 0.219795 -3.36562e-20)
(-0.99854 0.213096 0)
(-1.0264 0.206476 0)
(-1.05379 0.199954 3.21357e-20)
(-1.08072 0.19354 0)
(-1.10715 0.187239 -3.12233e-20)
(-1.13309 0.181053 -1.6796e-23)
(-1.15852 0.174977 6.07698e-20)
(-1.18342 0.169007 -5.99413e-20)
(-1.20779 0.163135 0)
(-1.2316 0.157353 0)
(-1.25484 0.151653 -2.87926e-20)
(-1.2775 0.146026 0)
(-1.29955 0.140465 -2.81278e-20)
(-1.32099 0.134961 2.77749e-20)
(-1.34179 0.129507 2.74265e-20)
(-1.36194 0.124099 0)
(-1.38141 0.11873 -2.67404e-20)
(-1.40021 0.113397 -2.64011e-20)
(-1.41829 0.108096 5.20691e-20)
(-1.43566 0.102825 -2.57268e-20)
(-1.4523 0.0975828 -2.53907e-20)
(-1.46818 0.0923679 0)
(-1.48329 0.0871805 0)
(-1.49762 0.0820211 2.43802e-20)
(-1.51116 0.076891 0)
(-1.52388 0.0717915 0)