/*--------------------------------*- C++ -*----------------------------------*\
| =========                 |                                                 |
| \\      /  F ield         | OpenFOAM: The Open Source CFD Toolbox           |
|  \\    /   O peration     | Version:  2412                                  |
|   \\  /    A nd           | Website:  www.openfoam.com                      |
|    \\/     M anipulation  |                                                 |
\*---------------------------------------------------------------------------*/
FoamFile
{
    version     2.0;
    format      ascii;
    arch        "LSB;label=32;scalar=64";
    class       surfaceScalarField;
    location    "0.93";
    object      phi;
}
// * * * * * * * * * * * * * * * * * * * * * * * * * * * * * * * * * * * * * //

dimensions      [0 3 -1 0 0 0 0];

oriented        oriented;

internalField   nonuniform List<scalar> 
799
(
2.00467e-05
4.00934e-05
6.014e-05
8.01867e-05
0.000100233
0.00012028
0.000140326
0.000160372
0.000180418
0.000200464
0.000220509
0.000240555
0.0002606
0.000280645
0.000300689
0.000320733
0.000340777
0.000360821
0.000380864
0.000400907
0.000420949
0.000440991
0.000461032
0.000481073
0.000501114
0.000521154
0.000541193
0.000561232
0.00058127
0.000601307
0.000621344
0.000641381
0.000661416
0.000681451
0.000701485
0.000721519
0.000741552
0.000761583
0.000781614
0.000801645
0.000821674
0.000841703
0.00086173
0.000881757
0.000901783
0.000921808
0.000941832
0.000961854
0.000981876
0.0010019
0.00102192
0.00104194
0.00106195
0.00108197
0.00110198
0.001122
0.00114201
0.00116202
0.00118203
0.00120204
0.00122205
0.00124206
0.00126206
0.00128207
0.00130207
0.00132207
0.00134207
0.00136207
0.00138207
0.00140206
0.00142205
0.00144205
0.00146204
0.00148203
0.00150201
0.001522
0.00154198
0.00156197
0.00158195
0.00160193
0.00162191
0.00164188
0.00166185
0.00168183
0.0017018
0.00172177
0.00174173
0.0017617
0.00178166
0.00180162
0.00182158
0.00184154
0.00186149
0.00188145
0.0019014
0.00192134
0.00194129
0.00196124
0.00198118
0.00200112
0.00202106
0.00204099
0.00206093
0.00208086
0.00210079
0.00212071
0.00214064
0.00216056
0.00218048
0.0022004
0.00222031
0.00224022
0.00226013
0.00228004
0.00229994
0.00231985
0.00233975
0.00235964
0.00237954
0.00239943
0.00241932
0.0024392
0.00245909
0.00247897
0.00249885
0.00251872
0.00253859
0.00255846
0.00257833
0.00259819
0.00261805
0.00263791
0.00265777
0.00267762
0.00269747
0.00271731
0.00273715
0.00275699
0.00277683
0.00279666
0.00281649
0.00283632
0.00285614
0.00287596
0.00289578
0.00291559
0.0029354
0.00295521
0.00297501
0.00299481
0.00301461
0.0030344
0.00305419
0.00307397
0.00309376
0.00311353
0.00313331
0.00315308
0.00317285
0.00319261
0.00321237
0.00323213
0.00325188
0.00327163
0.00329137
0.00331111
0.00333085
0.00335058
0.00337031
0.00339003
0.00340975
0.00342947
0.00344918
0.00346889
0.00348859
0.00350829
0.00352799
0.00354768
0.00356737
0.00358705
0.00360673
0.0036264
0.00364607
0.00366573
0.00368539
0.00370505
0.0037247
0.00374435
0.00376399
0.00378362
0.00380326
0.00382288
0.00384251
0.00386213
0.00388174
0.00390135
0.00392095
0.00394055
0.00396014
0.00397973
0.00399931
0.00401889
0.00403847
0.00405803
0.0040776
0.00409715
0.00411671
0.00413625
0.0041558
0.00417533
0.00419486
0.00421439
0.00423391
0.00425342
0.00427293
0.00429244
0.00431193
0.00433143
0.00435091
0.00437039
0.00438987
0.00440934
0.0044288
0.00444826
0.00446771
0.00448716
0.0045066
0.00452603
0.00454546
0.00456488
0.00458429
0.0046037
0.0046231
0.0046425
0.00466189
0.00468127
0.00470065
0.00472002
0.00473938
0.00475874
0.00477809
0.00479744
0.00481678
0.00483611
0.00485543
0.00487475
0.00489406
0.00491336
0.00493266
0.00495195
0.00497123
0.0049905
0.00500977
0.00502903
0.00504829
0.00506753
0.00508677
0.005106
0.00512523
0.00514445
0.00516366
0.00518286
0.00520205
0.00522124
0.00524042
0.00525959
0.00527875
0.0052979
0.00531705
0.00533619
0.00535532
0.00537444
0.00539356
0.00541267
0.00543176
0.00545085
0.00546994
0.00548901
0.00550807
0.00552713
0.00554618
0.00556522
0.00558425
0.00560327
0.00562228
0.00564129
0.00566028
0.00567927
0.00569824
0.00571721
0.00573617
0.00575512
0.00577406
0.00579299
0.00581191
0.00583082
0.00584972
0.00586861
0.0058875
0.00590637
0.00592523
0.00594408
0.00596293
0.00598176
0.00600058
0.0060194
0.0060382
0.00605699
0.00607577
0.00609454
0.0061133
0.00613205
0.00615079
0.00616952
0.00618824
0.00620695
0.00622564
0.00624433
0.006263
0.00628166
0.00630032
0.00631896
0.00633758
0.0063562
0.00637481
0.0063934
0.00641198
0.00643055
0.00644911
0.00646765
0.00648619
0.00650471
0.00652322
0.00654172
0.0065602
0.00657867
0.00659713
0.00661558
0.00663401
0.00665243
0.00667084
0.00668923
0.00670762
0.00672598
0.00674434
0.00676268
0.00678101
0.00679932
0.00681762
0.00683591
0.00685418
0.00687244
0.00689068
0.00690891
0.00692712
0.00694532
0.00696351
0.00698168
0.00699984
0.00701798
0.0070361
0.00705421
0.00707231
0.00709039
0.00710845
0.0071265
0.00714453
0.00716255
0.00718055
0.00719853
0.0072165
0.00723445
0.00725238
0.0072703
0.0072882
0.00730609
0.00732395
0.0073418
0.00735963
0.00737745
0.00739524
0.00741302
0.00743078
0.00744852
0.00746625
0.00748395
0.00750164
0.00751931
0.00753696
0.00755459
0.0075722
0.00758979
0.00760736
0.00762491
0.00764244
0.00765986
0.00767285
0.0075065
0.00553708
6.03193e-06
-0.00552996
-0.00750536
-0.00767279
-0.00765983
-0.00764241
-0.00762489
-0.00760733
-0.00758976
-0.00757217
-0.00755456
-0.00753693
-0.00751928
-0.00750162
-0.00748393
-0.00746622
-0.0074485
-0.00743076
-0.007413
-0.00739522
-0.00737742
-0.00735961
-0.00734178
-0.00732393
-0.00730606
-0.00728818
-0.00727028
-0.00725236
-0.00723443
-0.00721648
-0.00719851
-0.00718052
-0.00716252
-0.00714451
-0.00712648
-0.00710843
-0.00709036
-0.00707228
-0.00705419
-0.00703608
-0.00701795
-0.00699981
-0.00698166
-0.00696349
-0.0069453
-0.0069271
-0.00690889
-0.00689066
-0.00687241
-0.00685416
-0.00683588
-0.0068176
-0.0067993
-0.00678099
-0.00676266
-0.00674432
-0.00672596
-0.00670759
-0.00668921
-0.00667082
-0.00665241
-0.00663399
-0.00661556
-0.00659711
-0.00657865
-0.00656018
-0.0065417
-0.0065232
-0.00650469
-0.00648617
-0.00646763
-0.00644909
-0.00643053
-0.00641196
-0.00639338
-0.00637479
-0.00635618
-0.00633756
-0.00631894
-0.0063003
-0.00628164
-0.00626298
-0.00624431
-0.00622562
-0.00620693
-0.00618822
-0.0061695
-0.00615078
-0.00613204
-0.00611329
-0.00609453
-0.00607575
-0.00605697
-0.00603818
-0.00601938
-0.00600057
-0.00598174
-0.00596291
-0.00594407
-0.00592521
-0.00590635
-0.00588748
-0.0058686
-0.0058497
-0.0058308
-0.00581189
-0.00579297
-0.00577404
-0.0057551
-0.00573615
-0.00571719
-0.00569823
-0.00567925
-0.00566026
-0.00564127
-0.00562226
-0.00560325
-0.00558423
-0.0055652
-0.00554616
-0.00552711
-0.00550806
-0.00548899
-0.00546992
-0.00545084
-0.00543175
-0.00541265
-0.00539354
-0.00537443
-0.00535531
-0.00533618
-0.00531704
-0.00529789
-0.00527873
-0.00525957
-0.0052404
-0.00522122
-0.00520204
-0.00518284
-0.00516364
-0.00514443
-0.00512521
-0.00510599
-0.00508676
-0.00506752
-0.00504827
-0.00502902
-0.00500976
-0.00499049
-0.00497122
-0.00495193
-0.00493264
-0.00491335
-0.00489404
-0.00487473
-0.00485542
-0.00483609
-0.00481676
-0.00479742
-0.00477808
-0.00475873
-0.00473937
-0.00472001
-0.00470064
-0.00468126
-0.00466188
-0.00464249
-0.00462309
-0.00460369
-0.00458428
-0.00456487
-0.00454544
-0.00452602
-0.00450658
-0.00448714
-0.0044677
-0.00444825
-0.00442879
-0.00440933
-0.00438986
-0.00437038
-0.0043509
-0.00433142
-0.00431192
-0.00429243
-0.00427292
-0.00425341
-0.0042339
-0.00421438
-0.00419485
-0.00417532
-0.00415579
-0.00413624
-0.0041167
-0.00409715
-0.00407759
-0.00405802
-0.00403846
-0.00401888
-0.00399931
-0.00397972
-0.00396013
-0.00394054
-0.00392094
-0.00390134
-0.00388173
-0.00386212
-0.0038425
-0.00382288
-0.00380325
-0.00378362
-0.00376398
-0.00374434
-0.00372469
-0.00370504
-0.00368538
-0.00366572
-0.00364606
-0.00362639
-0.00360672
-0.00358704
-0.00356736
-0.00354767
-0.00352798
-0.00350829
-0.00348859
-0.00346888
-0.00344917
-0.00342946
-0.00340975
-0.00339003
-0.0033703
-0.00335057
-0.00333084
-0.0033111
-0.00329136
-0.00327162
-0.00325187
-0.00323212
-0.00321236
-0.0031926
-0.00317284
-0.00315307
-0.0031333
-0.00311353
-0.00309375
-0.00307397
-0.00305418
-0.00303439
-0.0030146
-0.00299481
-0.00297501
-0.0029552
-0.0029354
-0.00291559
-0.00289577
-0.00287596
-0.00285614
-0.00283631
-0.00281649
-0.00279666
-0.00277683
-0.00275699
-0.00273715
-0.00271731
-0.00269746
-0.00267761
-0.00265776
-0.00263791
-0.00261805
-0.00259819
-0.00257833
-0.00255846
-0.00253859
-0.00251872
-0.00249884
-0.00247897
-0.00245908
-0.0024392
-0.00241931
-0.00239943
-0.00237953
-0.00235964
-0.00233974
-0.00231984
-0.00229994
-0.00228004
-0.00226013
-0.00224022
-0.00222031
-0.00220039
-0.00218048
-0.00216056
-0.00214063
-0.00212071
-0.00210078
-0.00208085
-0.00206092
-0.00204099
-0.00202105
-0.00200112
-0.00198118
-0.00196123
-0.00194129
-0.00192134
-0.00190139
-0.00188144
-0.00186149
-0.00184154
-0.00182158
-0.00180162
-0.00178166
-0.0017617
-0.00174173
-0.00172176
-0.0017018
-0.00168183
-0.00166185
-0.00164188
-0.0016219
-0.00160193
-0.00158195
-0.00156197
-0.00154198
-0.001522
-0.00150201
-0.00148203
-0.00146204
-0.00144205
-0.00142205
-0.00140206
-0.00138206
-0.00136207
-0.00134207
-0.00132207
-0.00130207
-0.00128207
-0.00126206
-0.00124206
-0.00122205
-0.00120204
-0.00118203
-0.00116202
-0.00114201
-0.001122
-0.00110198
-0.00108197
-0.00106195
-0.00104193
-0.00102192
-0.0010019
-0.000981876
-0.000961854
-0.000941831
-0.000921807
-0.000901782
-0.000881757
-0.00086173
-0.000841702
-0.000821674
-0.000801644
-0.000781614
-0.000761583
-0.000741551
-0.000721518
-0.000701485
-0.000681451
-0.000661416
-0.00064138
-0.000621344
-0.000601307
-0.00058127
-0.000561232
-0.000541193
-0.000521153
-0.000501114
-0.000481073
-0.000461032
-0.000440991
-0.000420949
-0.000400907
-0.000380864
-0.000360821
-0.000340777
-0.000320733
-0.000300689
-0.000280645
-0.0002606
-0.000240555
-0.000220509
-0.000200464
-0.000180418
-0.000160372
-0.000140326
-0.00012028
-0.000100233
-8.01867e-05
-6.01401e-05
-4.00935e-05
-2.00467e-05
)
;

boundaryField
{
    left
    {
        type            calculated;
        value           uniform 0;
    }
    right
    {
        type            calculated;
        value           uniform 0;
    }
    frontBackUpDown
    {
        type            empty;
    }
}


// ************************************************************************* //
