/*--------------------------------*- C++ -*----------------------------------*\
| =========                 |                                                 |
| \\      /  F ield         | OpenFOAM: The Open Source CFD Toolbox           |
|  \\    /   O peration     | Version:  2412                                  |
|   \\  /    A nd           | Website:  www.openfoam.com                      |
|    \\/     M anipulation  |                                                 |
\*---------------------------------------------------------------------------*/
FoamFile
{
    version     2.0;
    format      ascii;
    arch        "LSB;label=32;scalar=64";
    class       volVectorField;
    location    "0.93";
    object      U;
}
// * * * * * * * * * * * * * * * * * * * * * * * * * * * * * * * * * * * * * //

dimensions      [0 1 -1 0 0 0 0];

internalField   nonuniform List<vector> 
800
(
(0.00100233 0 0)
(0.003007 0 0)
(0.00501167 0 0)
(0.00701634 0 0)
(0.009021 0 0)
(0.0110256 0 0)
(0.0130303 0 0)
(0.0150349 0 0)
(0.0170395 0 0)
(0.0190441 0 0)
(0.0210487 0 0)
(0.0230532 0 0)
(0.0250577 0 0)
(0.0270622 0 0)
(0.0290667 0 0)
(0.0310711 0 0)
(0.0330756 0 0)
(0.0350799 0 0)
(0.0370843 0 0)
(0.0390886 0 0)
(0.0410928 0 0)
(0.043097 0 0)
(0.0451012 0 0)
(0.0471053 0 0)
(0.0491094 0 0)
(0.0511134 0 0)
(0.0531173 0 0)
(0.0551212 0 0)
(0.0571251 0 0)
(0.0591289 0 0)
(0.0611326 0 0)
(0.0631363 0 0)
(0.0651399 0 0)
(0.0671434 0 0)
(0.0691468 0 0)
(0.0711502 0 0)
(0.0731535 0 0)
(0.0751568 0 0)
(0.0771599 0 0)
(0.079163 0 0)
(0.081166 0 0)
(0.0831689 0 0)
(0.0851717 0 0)
(0.0871744 0 0)
(0.089177 0 0)
(0.0911796 0 0)
(0.093182 0 0)
(0.0951843 0 0)
(0.0971866 0 0)
(0.0991887 0 0)
(0.101191 0 0)
(0.103193 0 0)
(0.105194 0 0)
(0.107196 0 0)
(0.109198 0 0)
(0.111199 0 0)
(0.113201 0 0)
(0.115202 0 0)
(0.117203 0 0)
(0.119204 0 0)
(0.121205 0 0)
(0.123205 0 0)
(0.125206 0 0)
(0.127207 0 0)
(0.129207 0 0)
(0.131207 0 0)
(0.133207 0 0)
(0.135207 0 0)
(0.137207 0 0)
(0.139206 0 0)
(0.141206 0 0)
(0.143205 0 0)
(0.145204 0 0)
(0.147203 0 0)
(0.149202 0 0)
(0.151201 0 0)
(0.153199 0 0)
(0.155198 0 0)
(0.157196 0 0)
(0.159194 0 0)
(0.161192 0 0)
(0.163189 0 0)
(0.165187 0 0)
(0.167184 0 0)
(0.169181 0 0)
(0.171178 0 0)
(0.173175 0 0)
(0.175172 0 0)
(0.177168 0 0)
(0.179164 0 0)
(0.18116 0 0)
(0.183156 0 0)
(0.185152 0 0)
(0.187147 0 0)
(0.189142 0 0)
(0.191137 0 0)
(0.193132 0 0)
(0.195126 0 0)
(0.197121 0 0)
(0.199115 0 0)
(0.201109 0 0)
(0.203103 0 0)
(0.205096 0 0)
(0.207089 0 0)
(0.209082 0 0)
(0.211075 0 0)
(0.213068 0 0)
(0.21506 0 0)
(0.217052 0 0)
(0.219044 0 0)
(0.221035 0 0)
(0.223027 0 0)
(0.225018 0 0)
(0.227009 0 0)
(0.228999 0 0)
(0.23099 0 0)
(0.23298 0 0)
(0.23497 0 0)
(0.236959 0 0)
(0.238948 0 0)
(0.240937 0 0)
(0.242926 0 0)
(0.244915 0 0)
(0.246903 0 0)
(0.248891 0 0)
(0.250878 0 0)
(0.252866 0 0)
(0.254853 0 0)
(0.25684 0 0)
(0.258826 0 0)
(0.260812 0 0)
(0.262798 0 0)
(0.264784 0 0)
(0.266769 0 0)
(0.268754 0 0)
(0.270739 0 0)
(0.272723 0 0)
(0.274708 0 0)
(0.276691 0 0)
(0.278675 0 0)
(0.280658 0 0)
(0.282641 0 0)
(0.284623 0 0)
(0.286605 0 0)
(0.288587 0 0)
(0.290569 0 0)
(0.29255 0 0)
(0.294531 0 0)
(0.296511 0 0)
(0.298491 0 0)
(0.300471 0 0)
(0.30245 0 0)
(0.30443 0 0)
(0.306408 0 0)
(0.308387 0 0)
(0.310365 0 0)
(0.312342 0 0)
(0.31432 0 0)
(0.316296 0 0)
(0.318273 0 0)
(0.320249 0 0)
(0.322225 0 0)
(0.3242 0 0)
(0.326175 0 0)
(0.32815 0 0)
(0.330124 0 0)
(0.332098 0 0)
(0.334071 0 0)
(0.336044 0 0)
(0.338017 0 0)
(0.339989 0 0)
(0.341961 0 0)
(0.343933 0 0)
(0.345904 0 0)
(0.347874 0 0)
(0.349844 0 0)
(0.351814 0 0)
(0.353783 0 0)
(0.355752 0 0)
(0.357721 0 0)
(0.359689 0 0)
(0.361656 0 0)
(0.363623 0 0)
(0.36559 0 0)
(0.367556 0 0)
(0.369522 0 0)
(0.371487 0 0)
(0.373452 0 0)
(0.375417 0 0)
(0.377381 0 0)
(0.379344 0 0)
(0.381307 0 0)
(0.38327 0 0)
(0.385232 0 0)
(0.387193 0 0)
(0.389154 0 0)
(0.391115 0 0)
(0.393075 0 0)
(0.395035 0 0)
(0.396994 0 0)
(0.398952 0 0)
(0.40091 0 0)
(0.402868 0 0)
(0.404825 0 0)
(0.406782 0 0)
(0.408738 0 0)
(0.410693 0 0)
(0.412648 0 0)
(0.414603 0 0)
(0.416557 0 0)
(0.41851 0 0)
(0.420463 0 0)
(0.422415 0 0)
(0.424367 0 0)
(0.426318 0 0)
(0.428269 0 0)
(0.430219 0 0)
(0.432168 0 0)
(0.434117 0 0)
(0.436066 0 0)
(0.438013 0 0)
(0.439961 0 0)
(0.441907 0 0)
(0.443853 0 0)
(0.445799 0 0)
(0.447743 0 0)
(0.449688 0 0)
(0.451631 0 0)
(0.453574 0 0)
(0.455517 0 0)
(0.457459 0 0)
(0.4594 0 0)
(0.46134 0 0)
(0.46328 0 0)
(0.46522 0 0)
(0.467158 0 0)
(0.469096 0 0)
(0.471034 0 0)
(0.47297 0 0)
(0.474907 0 0)
(0.476842 0 0)
(0.478777 0 0)
(0.480711 0 0)
(0.482644 0 0)
(0.484577 0 0)
(0.486509 0 0)
(0.48844 0 0)
(0.490371 0 0)
(0.492301 0 0)
(0.49423 0 0)
(0.496159 0 0)
(0.498087 0 0)
(0.500014 0 0)
(0.501941 0 0)
(0.503866 0 0)
(0.505791 0 0)
(0.507716 0 0)
(0.509639 0 0)
(0.511562 0 0)
(0.513484 0 0)
(0.515405 0 0)
(0.517326 0 0)
(0.519246 0 0)
(0.521165 0 0)
(0.523083 0 0)
(0.525 0 0)
(0.526917 0 0)
(0.528833 0 0)
(0.530748 0 0)
(0.532662 0 0)
(0.534576 0 0)
(0.536489 0 0)
(0.5384 0 0)
(0.540312 0 0)
(0.542222 0 0)
(0.544131 0 0)
(0.54604 0 0)
(0.547948 0 0)
(0.549854 0 0)
(0.55176 0 0)
(0.553666 0 0)
(0.55557 0 0)
(0.557473 0 0)
(0.559376 0 0)
(0.561278 0 0)
(0.563179 0 0)
(0.565078 0 0)
(0.566977 0 0)
(0.568876 0 0)
(0.570773 0 0)
(0.572669 0 0)
(0.574564 0 0)
(0.576459 0 0)
(0.578352 0 0)
(0.580245 0 0)
(0.582137 0 0)
(0.584027 0 0)
(0.585917 0 0)
(0.587806 0 0)
(0.589694 0 0)
(0.59158 0 0)
(0.593466 0 0)
(0.595351 0 0)
(0.597235 0 0)
(0.599117 0 0)
(0.600999 0 0)
(0.60288 0 0)
(0.60476 0 0)
(0.606638 0 0)
(0.608516 0 0)
(0.610393 0 0)
(0.612268 0 0)
(0.614143 0 0)
(0.616016 0 0)
(0.617888 0 0)
(0.61976 0 0)
(0.62163 0 0)
(0.623499 0 0)
(0.625367 0 0)
(0.627234 0 0)
(0.629099 0 0)
(0.630964 0 0)
(0.632827 0 0)
(0.63469 0 0)
(0.636551 0 0)
(0.638411 0 0)
(0.640269 0 0)
(0.642127 0 0)
(0.643983 0 0)
(0.645838 0 0)
(0.647692 0 0)
(0.649545 0 0)
(0.651397 0 0)
(0.653247 0 0)
(0.655096 0 0)
(0.656944 0 0)
(0.658791 0 0)
(0.660636 0 0)
(0.66248 0 0)
(0.664323 0 0)
(0.666164 0 0)
(0.668004 0 0)
(0.669843 0 0)
(0.67168 0 0)
(0.673516 0 0)
(0.675351 0 0)
(0.677185 0 0)
(0.679017 0 0)
(0.680847 0 0)
(0.682677 0 0)
(0.684505 0 0)
(0.686331 0 0)
(0.688156 0 0)
(0.68998 0 0)
(0.691802 0 0)
(0.693623 0 0)
(0.695442 0 0)
(0.69726 0 0)
(0.699076 0 0)
(0.700891 0 0)
(0.702704 0 0)
(0.704516 0 0)
(0.706326 0 0)
(0.708135 0 0)
(0.709942 0 0)
(0.711748 0 0)
(0.713552 0 0)
(0.715354 0 0)
(0.717155 0 0)
(0.718954 0 0)
(0.720752 0 0)
(0.722548 0 0)
(0.724342 0 0)
(0.726135 0 0)
(0.727926 0 0)
(0.729715 0 0)
(0.731502 0 0)
(0.733288 0 0)
(0.735072 0 0)
(0.736854 0 0)
(0.738635 0 0)
(0.740414 0 0)
(0.742191 0 0)
(0.743966 0 0)
(0.745739 0 0)
(0.74751 0 0)
(0.74928 0 0)
(0.751048 0 0)
(0.752814 0 0)
(0.754578 0 0)
(0.75634 0 0)
(0.7581 0 0)
(0.759858 0 0)
(0.761614 0 0)
(0.763368 0 0)
(0.76512 0 0)
(0.766852 0 0)
(0.767717 0 0)
(0.733582 0 0)
(0.373835 0 0)
(-0.372628 0 0)
(-0.733363 0 0)
(-0.767708 0 0)
(-0.766849 0 0)
(-0.765117 0 0)
(-0.763366 0 0)
(-0.761611 0 0)
(-0.759855 0 0)
(-0.758097 0 0)
(-0.756337 0 0)
(-0.754575 0 0)
(-0.752811 0 0)
(-0.751045 0 0)
(-0.749278 0 0)
(-0.747508 0 0)
(-0.745737 0 0)
(-0.743963 0 0)
(-0.742188 0 0)
(-0.740411 0 0)
(-0.738633 0 0)
(-0.736852 0 0)
(-0.73507 0 0)
(-0.733286 0 0)
(-0.7315 0 0)
(-0.729712 0 0)
(-0.727923 0 0)
(-0.726132 0 0)
(-0.72434 0 0)
(-0.722545 0 0)
(-0.72075 0 0)
(-0.718952 0 0)
(-0.717153 0 0)
(-0.715352 0 0)
(-0.71355 0 0)
(-0.711746 0 0)
(-0.70994 0 0)
(-0.708133 0 0)
(-0.706324 0 0)
(-0.704514 0 0)
(-0.702702 0 0)
(-0.700889 0 0)
(-0.699074 0 0)
(-0.697258 0 0)
(-0.69544 0 0)
(-0.693621 0 0)
(-0.6918 0 0)
(-0.689978 0 0)
(-0.688154 0 0)
(-0.686329 0 0)
(-0.684502 0 0)
(-0.682675 0 0)
(-0.680845 0 0)
(-0.679015 0 0)
(-0.677183 0 0)
(-0.675349 0 0)
(-0.673514 0 0)
(-0.671678 0 0)
(-0.669841 0 0)
(-0.668002 0 0)
(-0.666162 0 0)
(-0.66432 0 0)
(-0.662478 0 0)
(-0.660634 0 0)
(-0.658788 0 0)
(-0.656942 0 0)
(-0.655094 0 0)
(-0.653245 0 0)
(-0.651395 0 0)
(-0.649543 0 0)
(-0.64769 0 0)
(-0.645836 0 0)
(-0.643981 0 0)
(-0.642125 0 0)
(-0.640267 0 0)
(-0.638409 0 0)
(-0.636549 0 0)
(-0.634688 0 0)
(-0.632825 0 0)
(-0.630962 0 0)
(-0.629097 0 0)
(-0.627232 0 0)
(-0.625365 0 0)
(-0.623497 0 0)
(-0.621628 0 0)
(-0.619758 0 0)
(-0.617887 0 0)
(-0.616014 0 0)
(-0.614141 0 0)
(-0.612266 0 0)
(-0.610391 0 0)
(-0.608514 0 0)
(-0.606637 0 0)
(-0.604758 0 0)
(-0.602878 0 0)
(-0.600997 0 0)
(-0.599116 0 0)
(-0.597233 0 0)
(-0.595349 0 0)
(-0.593464 0 0)
(-0.591579 0 0)
(-0.589692 0 0)
(-0.587804 0 0)
(-0.585915 0 0)
(-0.584026 0 0)
(-0.582135 0 0)
(-0.580243 0 0)
(-0.578351 0 0)
(-0.576457 0 0)
(-0.574563 0 0)
(-0.572667 0 0)
(-0.570771 0 0)
(-0.568874 0 0)
(-0.566976 0 0)
(-0.565077 0 0)
(-0.563177 0 0)
(-0.561276 0 0)
(-0.559374 0 0)
(-0.557472 0 0)
(-0.555568 0 0)
(-0.553664 0 0)
(-0.551759 0 0)
(-0.549853 0 0)
(-0.547946 0 0)
(-0.546038 0 0)
(-0.54413 0 0)
(-0.54222 0 0)
(-0.54031 0 0)
(-0.538399 0 0)
(-0.536487 0 0)
(-0.534574 0 0)
(-0.532661 0 0)
(-0.530747 0 0)
(-0.528831 0 0)
(-0.526916 0 0)
(-0.524999 0 0)
(-0.523081 0 0)
(-0.521163 0 0)
(-0.519244 0 0)
(-0.517324 0 0)
(-0.515404 0 0)
(-0.513483 0 0)
(-0.51156 0 0)
(-0.509638 0 0)
(-0.507714 0 0)
(-0.50579 0 0)
(-0.503865 0 0)
(-0.501939 0 0)
(-0.500013 0 0)
(-0.498086 0 0)
(-0.496158 0 0)
(-0.494229 0 0)
(-0.4923 0 0)
(-0.49037 0 0)
(-0.488439 0 0)
(-0.486508 0 0)
(-0.484576 0 0)
(-0.482643 0 0)
(-0.48071 0 0)
(-0.478775 0 0)
(-0.476841 0 0)
(-0.474905 0 0)
(-0.472969 0 0)
(-0.471032 0 0)
(-0.469095 0 0)
(-0.467157 0 0)
(-0.465218 0 0)
(-0.463279 0 0)
(-0.461339 0 0)
(-0.459399 0 0)
(-0.457457 0 0)
(-0.455516 0 0)
(-0.453573 0 0)
(-0.45163 0 0)
(-0.449687 0 0)
(-0.447742 0 0)
(-0.445798 0 0)
(-0.443852 0 0)
(-0.441906 0 0)
(-0.439959 0 0)
(-0.438012 0 0)
(-0.436064 0 0)
(-0.434116 0 0)
(-0.432167 0 0)
(-0.430218 0 0)
(-0.428268 0 0)
(-0.426317 0 0)
(-0.424366 0 0)
(-0.422414 0 0)
(-0.420462 0 0)
(-0.418509 0 0)
(-0.416556 0 0)
(-0.414602 0 0)
(-0.412647 0 0)
(-0.410692 0 0)
(-0.408737 0 0)
(-0.406781 0 0)
(-0.404824 0 0)
(-0.402867 0 0)
(-0.40091 0 0)
(-0.398951 0 0)
(-0.396993 0 0)
(-0.395034 0 0)
(-0.393074 0 0)
(-0.391114 0 0)
(-0.389154 0 0)
(-0.387192 0 0)
(-0.385231 0 0)
(-0.383269 0 0)
(-0.381306 0 0)
(-0.379343 0 0)
(-0.37738 0 0)
(-0.375416 0 0)
(-0.373452 0 0)
(-0.371487 0 0)
(-0.369521 0 0)
(-0.367556 0 0)
(-0.365589 0 0)
(-0.363623 0 0)
(-0.361656 0 0)
(-0.359688 0 0)
(-0.35772 0 0)
(-0.355752 0 0)
(-0.353783 0 0)
(-0.351813 0 0)
(-0.349844 0 0)
(-0.347873 0 0)
(-0.345903 0 0)
(-0.343932 0 0)
(-0.341961 0 0)
(-0.339989 0 0)
(-0.338016 0 0)
(-0.336044 0 0)
(-0.334071 0 0)
(-0.332097 0 0)
(-0.330124 0 0)
(-0.328149 0 0)
(-0.326175 0 0)
(-0.3242 0 0)
(-0.322224 0 0)
(-0.320249 0 0)
(-0.318272 0 0)
(-0.316296 0 0)
(-0.314319 0 0)
(-0.312342 0 0)
(-0.310364 0 0)
(-0.308386 0 0)
(-0.306408 0 0)
(-0.304429 0 0)
(-0.30245 0 0)
(-0.30047 0 0)
(-0.298491 0 0)
(-0.296511 0 0)
(-0.29453 0 0)
(-0.292549 0 0)
(-0.290568 0 0)
(-0.288587 0 0)
(-0.286605 0 0)
(-0.284623 0 0)
(-0.28264 0 0)
(-0.280657 0 0)
(-0.278674 0 0)
(-0.276691 0 0)
(-0.274707 0 0)
(-0.272723 0 0)
(-0.270739 0 0)
(-0.268754 0 0)
(-0.266769 0 0)
(-0.264784 0 0)
(-0.262798 0 0)
(-0.260812 0 0)
(-0.258826 0 0)
(-0.256839 0 0)
(-0.254853 0 0)
(-0.252865 0 0)
(-0.250878 0 0)
(-0.24889 0 0)
(-0.246903 0 0)
(-0.244914 0 0)
(-0.242926 0 0)
(-0.240937 0 0)
(-0.238948 0 0)
(-0.236959 0 0)
(-0.234969 0 0)
(-0.232979 0 0)
(-0.230989 0 0)
(-0.228999 0 0)
(-0.227008 0 0)
(-0.225018 0 0)
(-0.223026 0 0)
(-0.221035 0 0)
(-0.219044 0 0)
(-0.217052 0 0)
(-0.21506 0 0)
(-0.213067 0 0)
(-0.211075 0 0)
(-0.209082 0 0)
(-0.207089 0 0)
(-0.205096 0 0)
(-0.203102 0 0)
(-0.201109 0 0)
(-0.199115 0 0)
(-0.197121 0 0)
(-0.195126 0 0)
(-0.193132 0 0)
(-0.191137 0 0)
(-0.189142 0 0)
(-0.187147 0 0)
(-0.185151 0 0)
(-0.183156 0 0)
(-0.18116 0 0)
(-0.179164 0 0)
(-0.177168 0 0)
(-0.175171 0 0)
(-0.173175 0 0)
(-0.171178 0 0)
(-0.169181 0 0)
(-0.167184 0 0)
(-0.165187 0 0)
(-0.163189 0 0)
(-0.161192 0 0)
(-0.159194 0 0)
(-0.157196 0 0)
(-0.155197 0 0)
(-0.153199 0 0)
(-0.151201 0 0)
(-0.149202 0 0)
(-0.147203 0 0)
(-0.145204 0 0)
(-0.143205 0 0)
(-0.141206 0 0)
(-0.139206 0 0)
(-0.137207 0 0)
(-0.135207 0 0)
(-0.133207 0 0)
(-0.131207 0 0)
(-0.129207 0 0)
(-0.127206 0 0)
(-0.125206 0 0)
(-0.123205 0 0)
(-0.121205 0 0)
(-0.119204 0 0)
(-0.117203 0 0)
(-0.115202 0 0)
(-0.1132 0 0)
(-0.111199 0 0)
(-0.109198 0 0)
(-0.107196 0 0)
(-0.105194 0 0)
(-0.103193 0 0)
(-0.101191 0 0)
(-0.0991886 0 0)
(-0.0971865 0 0)
(-0.0951843 0 0)
(-0.0931819 0 0)
(-0.0911795 0 0)
(-0.089177 0 0)
(-0.0871743 0 0)
(-0.0851716 0 0)
(-0.0831688 0 0)
(-0.0811659 0 0)
(-0.0791629 0 0)
(-0.0771599 0 0)
(-0.0751567 0 0)
(-0.0731535 0 0)
(-0.0711502 0 0)
(-0.0691468 0 0)
(-0.0671434 0 0)
(-0.0651398 0 0)
(-0.0631362 0 0)
(-0.0611326 0 0)
(-0.0591289 0 0)
(-0.0571251 0 0)
(-0.0551212 0 0)
(-0.0531173 0 0)
(-0.0511134 0 0)
(-0.0491094 0 0)
(-0.0471053 0 0)
(-0.0451012 0 0)
(-0.043097 0 0)
(-0.0410928 0 0)
(-0.0390885 0 0)
(-0.0370843 0 0)
(-0.0350799 0 0)
(-0.0330755 0 0)
(-0.0310711 0 0)
(-0.0290667 0 0)
(-0.0270622 0 0)
(-0.0250577 0 0)
(-0.0230532 0 0)
(-0.0210487 0 0)
(-0.0190441 0 0)
(-0.0170395 0 0)
(-0.0150349 0 0)
(-0.0130303 0 0)
(-0.0110257 0 0)
(-0.009021 0 0)
(-0.00701635 0 0)
(-0.00501168 0 0)
(-0.00300701 0 0)
(-0.00100234 0 0)
)
;

boundaryField
{
    left
    {
        type            fixedValue;
        value           uniform (0 0 0);
    }
    right
    {
        type            fixedValue;
        value           uniform (0 0 0);
    }
    frontBackUpDown
    {
        type            empty;
    }
}


// ************************************************************************* //
