/*--------------------------------*- C++ -*----------------------------------*\
| =========                 |                                                 |
| \\      /  F ield         | OpenFOAM: The Open Source CFD Toolbox           |
|  \\    /   O peration     | Version:  2412                                  |
|   \\  /    A nd           | Website:  www.openfoam.com                      |
|    \\/     M anipulation  |                                                 |
\*---------------------------------------------------------------------------*/
FoamFile
{
    version     2.0;
    format      ascii;
    arch        "LSB;label=32;scalar=64";
    class       surfaceScalarField;
    location    "0.58";
    object      phi;
}
// * * * * * * * * * * * * * * * * * * * * * * * * * * * * * * * * * * * * * //

dimensions      [0 3 -1 0 0 0 0];

oriented        oriented;

internalField   nonuniform List<scalar> 
799
(
2.78452e-05
5.56904e-05
8.35355e-05
0.00011138
0.000139225
0.000167069
0.000194913
0.000222756
0.000250598
0.00027844
0.000306281
0.000334121
0.000361961
0.000389799
0.000417636
0.000445472
0.000473307
0.00050114
0.000528972
0.000556803
0.000584632
0.000612459
0.000640285
0.000668109
0.000695931
0.000723751
0.000751568
0.000779384
0.000807198
0.000835009
0.000862818
0.000890625
0.000918429
0.000946231
0.00097403
0.00100183
0.00102962
0.00105741
0.0010852
0.00111298
0.00114076
0.00116854
0.00119631
0.00122409
0.00125185
0.00127962
0.00130738
0.00133514
0.00136289
0.00139064
0.00141838
0.00144612
0.00147386
0.00150159
0.00152932
0.00155705
0.00158477
0.00161248
0.00164019
0.0016679
0.0016956
0.0017233
0.00175099
0.00177867
0.00180636
0.00183403
0.0018617
0.00188937
0.00191703
0.00194468
0.00197233
0.00199997
0.00202761
0.00205524
0.00208287
0.00211049
0.0021381
0.00216571
0.00219331
0.0022209
0.00224849
0.00227607
0.00230364
0.00233121
0.00235877
0.00238633
0.00241387
0.00244141
0.00246894
0.00249647
0.00252399
0.0025515
0.002579
0.00260649
0.00263398
0.00266146
0.00268893
0.00271639
0.00274385
0.0027713
0.00279873
0.00282616
0.00285359
0.002881
0.0029084
0.0029358
0.00296318
0.00299056
0.00301793
0.00304529
0.00307264
0.00309998
0.00312731
0.00315463
0.00318194
0.00320924
0.00323653
0.00326381
0.00329108
0.00331835
0.0033456
0.00337284
0.00340007
0.00342728
0.00345449
0.00348169
0.00350888
0.00353605
0.00356322
0.00359037
0.00361751
0.00364464
0.00367176
0.00369886
0.00372596
0.00375304
0.00378011
0.00380717
0.00383422
0.00386125
0.00388827
0.00391528
0.00394227
0.00396926
0.00399623
0.00402318
0.00405012
0.00407705
0.00410397
0.00413087
0.00415776
0.00418464
0.0042115
0.00423834
0.00426518
0.004292
0.0043188
0.00434559
0.00437236
0.00439912
0.00442587
0.00445259
0.00447931
0.00450601
0.00453269
0.00455936
0.00458601
0.00461264
0.00463926
0.00466586
0.00469245
0.00471902
0.00474557
0.00477211
0.00479863
0.00482513
0.00485162
0.00487809
0.00490454
0.00493097
0.00495738
0.00498378
0.00501016
0.00503652
0.00506286
0.00508918
0.00511549
0.00514177
0.00516804
0.00519428
0.00522051
0.00524672
0.00527291
0.00529907
0.00532522
0.00535135
0.00537746
0.00540354
0.00542961
0.00545565
0.00548168
0.00550768
0.00553366
0.00555962
0.00558556
0.00561147
0.00563736
0.00566323
0.00568908
0.00571491
0.00574071
0.00576649
0.00579224
0.00581798
0.00584368
0.00586937
0.00589503
0.00592066
0.00594627
0.00597186
0.00599742
0.00602295
0.00604846
0.00607395
0.00609941
0.00612484
0.00615025
0.00617562
0.00620098
0.0062263
0.0062516
0.00627687
0.00630211
0.00632733
0.00635252
0.00637767
0.0064028
0.0064279
0.00645298
0.00647802
0.00650303
0.00652801
0.00655296
0.00657788
0.00660277
0.00662763
0.00665246
0.00667726
0.00670202
0.00672675
0.00675145
0.00677612
0.00680075
0.00682535
0.00684992
0.00687445
0.00689895
0.00692341
0.00694784
0.00697224
0.00699659
0.00702092
0.0070452
0.00706945
0.00709366
0.00711784
0.00714198
0.00716607
0.00719014
0.00721416
0.00723814
0.00726209
0.00728599
0.00730985
0.00733368
0.00735746
0.0073812
0.0074049
0.00742856
0.00745217
0.00747574
0.00749927
0.00752276
0.0075462
0.00756959
0.00759295
0.00761625
0.00763951
0.00766272
0.00768589
0.00770901
0.00773208
0.0077551
0.00777807
0.007801
0.00782387
0.00784669
0.00786946
0.00789219
0.00791485
0.00793747
0.00796003
0.00798254
0.008005
0.0080274
0.00804974
0.00807203
0.00809426
0.00811644
0.00813855
0.00816061
0.00818261
0.00820455
0.00822643
0.00824824
0.00827
0.00829169
0.00831332
0.00833488
0.00835638
0.00837782
0.00839918
0.00842048
0.00844172
0.00846288
0.00848397
0.008505
0.00852595
0.00854683
0.00856764
0.00858837
0.00860903
0.00862961
0.00865011
0.00867054
0.00869089
0.00871116
0.00873134
0.00875145
0.00877147
0.00879141
0.00881126
0.00883103
0.00885071
0.00887029
0.00888979
0.0089092
0.00892852
0.00894774
0.00896687
0.0089859
0.00900483
0.00902366
0.00904239
0.00906102
0.00907955
0.00909797
0.00911628
0.00913449
0.00915258
0.00917056
0.00918843
0.00920619
0.00922382
0.00924134
0.00925873
0.009276
0.00929315
0.00931017
0.00932706
0.00934382
0.00936044
0.00937693
0.00939328
0.00940948
0.00942555
0.00944147
0.00945723
0.00947285
0.00948831
0.00950362
0.00951876
0.00953374
0.00954855
0.0095632
0.00957767
0.00959196
0.00960607
0.00962
0.00963374
0.00964728
0.00966063
0.00967378
0.00968673
0.00969937
0.00971287
0.00971533
0.00982323
0.00794884
7.00737e-06
-0.00794182
-0.0098232
-0.00971533
-0.00971287
-0.00969936
-0.00968672
-0.00967377
-0.00966062
-0.00964727
-0.00963373
-0.00961999
-0.00960606
-0.00959195
-0.00957766
-0.00956319
-0.00954854
-0.00953373
-0.00951875
-0.0095036
-0.0094883
-0.00947284
-0.00945722
-0.00944145
-0.00942553
-0.00940947
-0.00939326
-0.00937691
-0.00936043
-0.0093438
-0.00932704
-0.00931015
-0.00929313
-0.00927599
-0.00925872
-0.00924132
-0.0092238
-0.00920617
-0.00918842
-0.00917055
-0.00915256
-0.00913447
-0.00911626
-0.00909795
-0.00907953
-0.009061
-0.00904237
-0.00902364
-0.00900481
-0.00898588
-0.00896685
-0.00894772
-0.0089285
-0.00890918
-0.00888977
-0.00887027
-0.00885068
-0.00883101
-0.00881124
-0.00879139
-0.00877145
-0.00875143
-0.00873132
-0.00871113
-0.00869087
-0.00867052
-0.00865009
-0.00862959
-0.008609
-0.00858835
-0.00856761
-0.00854681
-0.00852593
-0.00850498
-0.00848395
-0.00846286
-0.00844169
-0.00842046
-0.00839916
-0.00837779
-0.00835636
-0.00833486
-0.0083133
-0.00829167
-0.00826997
-0.00824822
-0.0082264
-0.00820452
-0.00818259
-0.00816059
-0.00813853
-0.00811641
-0.00809424
-0.00807201
-0.00804972
-0.00802737
-0.00800497
-0.00798252
-0.00796001
-0.00793745
-0.00791483
-0.00789216
-0.00786944
-0.00784667
-0.00782385
-0.00780097
-0.00777805
-0.00775508
-0.00773205
-0.00770898
-0.00768586
-0.0076627
-0.00763949
-0.00761623
-0.00759292
-0.00756957
-0.00754618
-0.00752274
-0.00749925
-0.00747572
-0.00745215
-0.00742854
-0.00740488
-0.00738118
-0.00735744
-0.00733365
-0.00730983
-0.00728597
-0.00726206
-0.00723812
-0.00721414
-0.00719011
-0.00716605
-0.00714195
-0.00711782
-0.00709364
-0.00706943
-0.00704518
-0.00702089
-0.00699657
-0.00697221
-0.00694782
-0.00692339
-0.00689893
-0.00687443
-0.0068499
-0.00682533
-0.00680073
-0.0067761
-0.00675143
-0.00672673
-0.006702
-0.00667724
-0.00665244
-0.00662761
-0.00660275
-0.00657786
-0.00655294
-0.00652799
-0.00650301
-0.006478
-0.00645295
-0.00642788
-0.00640278
-0.00637765
-0.0063525
-0.00632731
-0.00630209
-0.00627685
-0.00625158
-0.00622628
-0.00620096
-0.00617561
-0.00615023
-0.00612482
-0.00609939
-0.00607393
-0.00604845
-0.00602294
-0.0059974
-0.00597184
-0.00594625
-0.00592064
-0.00589501
-0.00586935
-0.00584367
-0.00581796
-0.00579223
-0.00576647
-0.00574069
-0.00571489
-0.00568907
-0.00566322
-0.00563735
-0.00561146
-0.00558554
-0.0055596
-0.00553364
-0.00550766
-0.00548166
-0.00545564
-0.00542959
-0.00540353
-0.00537744
-0.00535133
-0.00532521
-0.00529906
-0.00527289
-0.0052467
-0.0052205
-0.00519427
-0.00516802
-0.00514176
-0.00511547
-0.00508917
-0.00506284
-0.0050365
-0.00501014
-0.00498377
-0.00495737
-0.00493095
-0.00490452
-0.00487807
-0.0048516
-0.00482512
-0.00479862
-0.0047721
-0.00474556
-0.00471901
-0.00469244
-0.00466585
-0.00463925
-0.00461263
-0.004586
-0.00455934
-0.00453268
-0.00450599
-0.0044793
-0.00445258
-0.00442585
-0.00439911
-0.00437235
-0.00434558
-0.00431879
-0.00429198
-0.00426517
-0.00423833
-0.00421149
-0.00418463
-0.00415775
-0.00413086
-0.00410396
-0.00407704
-0.00405012
-0.00402317
-0.00399622
-0.00396925
-0.00394226
-0.00391527
-0.00388826
-0.00386124
-0.00383421
-0.00380716
-0.0037801
-0.00375303
-0.00372595
-0.00369886
-0.00367175
-0.00364463
-0.0036175
-0.00359036
-0.00356321
-0.00353604
-0.00350887
-0.00348168
-0.00345449
-0.00342728
-0.00340006
-0.00337283
-0.00334559
-0.00331834
-0.00329108
-0.00326381
-0.00323653
-0.00320923
-0.00318193
-0.00315462
-0.0031273
-0.00309997
-0.00307263
-0.00304528
-0.00301792
-0.00299055
-0.00296318
-0.00293579
-0.0029084
-0.00288099
-0.00285358
-0.00282616
-0.00279873
-0.00277129
-0.00274384
-0.00271639
-0.00268893
-0.00266146
-0.00263398
-0.00260649
-0.002579
-0.00255149
-0.00252398
-0.00249647
-0.00246894
-0.00244141
-0.00241387
-0.00238632
-0.00235877
-0.00233121
-0.00230364
-0.00227607
-0.00224849
-0.0022209
-0.0021933
-0.0021657
-0.0021381
-0.00211048
-0.00208286
-0.00205524
-0.00202761
-0.00199997
-0.00197233
-0.00194468
-0.00191703
-0.00188937
-0.0018617
-0.00183403
-0.00180635
-0.00177867
-0.00175099
-0.0017233
-0.0016956
-0.0016679
-0.00164019
-0.00161248
-0.00158477
-0.00155705
-0.00152932
-0.00150159
-0.00147386
-0.00144612
-0.00141838
-0.00139064
-0.00136289
-0.00133513
-0.00130738
-0.00127962
-0.00125185
-0.00122409
-0.00119631
-0.00116854
-0.00114076
-0.00111298
-0.0010852
-0.00105741
-0.00102962
-0.00100183
-0.000974029
-0.00094623
-0.000918429
-0.000890625
-0.000862818
-0.000835009
-0.000807198
-0.000779384
-0.000751568
-0.00072375
-0.00069593
-0.000668108
-0.000640285
-0.000612459
-0.000584632
-0.000556803
-0.000528972
-0.00050114
-0.000473307
-0.000445472
-0.000417636
-0.000389799
-0.000361961
-0.000334121
-0.000306281
-0.00027844
-0.000250598
-0.000222756
-0.000194913
-0.000167069
-0.000139225
-0.00011138
-8.35356e-05
-5.56905e-05
-2.78453e-05
)
;

boundaryField
{
    left
    {
        type            calculated;
        value           uniform 0;
    }
    right
    {
        type            calculated;
        value           uniform 0;
    }
    frontBackUpDown
    {
        type            empty;
    }
}


// ************************************************************************* //
