/*--------------------------------*- C++ -*----------------------------------*\
| =========                 |                                                 |
| \\      /  F ield         | OpenFOAM: The Open Source CFD Toolbox           |
|  \\    /   O peration     | Version:  2412                                  |
|   \\  /    A nd           | Website:  www.openfoam.com                      |
|    \\/     M anipulation  |                                                 |
\*---------------------------------------------------------------------------*/
FoamFile
{
    version     2.0;
    format      ascii;
    arch        "LSB;label=32;scalar=64";
    class       volVectorField;
    location    "0.58";
    object      U_0;
}
// * * * * * * * * * * * * * * * * * * * * * * * * * * * * * * * * * * * * * //

dimensions      [0 1 -1 0 0 0 0];

internalField   nonuniform List<vector> 
800
(
(0.00139303 0 0)
(0.0041791 0 0)
(0.00696517 0 0)
(0.00975122 0 0)
(0.0125372 0 0)
(0.0153232 0 0)
(0.0181092 0 0)
(0.0208951 0 0)
(0.0236809 0 0)
(0.0264667 0 0)
(0.0292524 0 0)
(0.032038 0 0)
(0.0348235 0 0)
(0.0376089 0 0)
(0.0403942 0 0)
(0.0431794 0 0)
(0.0459645 0 0)
(0.0487495 0 0)
(0.0515343 0 0)
(0.054319 0 0)
(0.0571035 0 0)
(0.0598879 0 0)
(0.0626721 0 0)
(0.0654561 0 0)
(0.0682399 0 0)
(0.0710235 0 0)
(0.073807 0 0)
(0.0765902 0 0)
(0.0793732 0 0)
(0.082156 0 0)
(0.0849386 0 0)
(0.0877209 0 0)
(0.090503 0 0)
(0.0932848 0 0)
(0.0960664 0 0)
(0.0988477 0 0)
(0.101629 0 0)
(0.104409 0 0)
(0.10719 0 0)
(0.10997 0 0)
(0.11275 0 0)
(0.115529 0 0)
(0.118308 0 0)
(0.121087 0 0)
(0.123866 0 0)
(0.126644 0 0)
(0.129422 0 0)
(0.132199 0 0)
(0.134976 0 0)
(0.137753 0 0)
(0.140529 0 0)
(0.143305 0 0)
(0.14608 0 0)
(0.148855 0 0)
(0.15163 0 0)
(0.154404 0 0)
(0.157178 0 0)
(0.159951 0 0)
(0.162724 0 0)
(0.165496 0 0)
(0.168268 0 0)
(0.17104 0 0)
(0.17381 0 0)
(0.176581 0 0)
(0.179351 0 0)
(0.18212 0 0)
(0.184889 0 0)
(0.187657 0 0)
(0.190425 0 0)
(0.193192 0 0)
(0.195959 0 0)
(0.198725 0 0)
(0.201491 0 0)
(0.204255 0 0)
(0.20702 0 0)
(0.209784 0 0)
(0.212547 0 0)
(0.215309 0 0)
(0.218071 0 0)
(0.220832 0 0)
(0.223593 0 0)
(0.226353 0 0)
(0.229112 0 0)
(0.231871 0 0)
(0.234628 0 0)
(0.237386 0 0)
(0.240142 0 0)
(0.242898 0 0)
(0.245653 0 0)
(0.248407 0 0)
(0.251161 0 0)
(0.253914 0 0)
(0.256666 0 0)
(0.259417 0 0)
(0.262168 0 0)
(0.264918 0 0)
(0.267667 0 0)
(0.270415 0 0)
(0.273162 0 0)
(0.275909 0 0)
(0.278654 0 0)
(0.281399 0 0)
(0.284143 0 0)
(0.286886 0 0)
(0.289629 0 0)
(0.29237 0 0)
(0.295111 0 0)
(0.29785 0 0)
(0.300589 0 0)
(0.303327 0 0)
(0.306064 0 0)
(0.308799 0 0)
(0.311534 0 0)
(0.314268 0 0)
(0.317001 0 0)
(0.319734 0 0)
(0.322465 0 0)
(0.325195 0 0)
(0.327924 0 0)
(0.330652 0 0)
(0.333379 0 0)
(0.336105 0 0)
(0.33883 0 0)
(0.341553 0 0)
(0.344276 0 0)
(0.346998 0 0)
(0.349718 0 0)
(0.352438 0 0)
(0.355156 0 0)
(0.357874 0 0)
(0.36059 0 0)
(0.363305 0 0)
(0.366018 0 0)
(0.368731 0 0)
(0.371442 0 0)
(0.374153 0 0)
(0.376862 0 0)
(0.379569 0 0)
(0.382276 0 0)
(0.384981 0 0)
(0.387685 0 0)
(0.390388 0 0)
(0.39309 0 0)
(0.39579 0 0)
(0.398489 0 0)
(0.401187 0 0)
(0.403883 0 0)
(0.406578 0 0)
(0.409272 0 0)
(0.411964 0 0)
(0.414655 0 0)
(0.417344 0 0)
(0.420032 0 0)
(0.422719 0 0)
(0.425404 0 0)
(0.428088 0 0)
(0.430771 0 0)
(0.433452 0 0)
(0.436131 0 0)
(0.438809 0 0)
(0.441485 0 0)
(0.44416 0 0)
(0.446834 0 0)
(0.449506 0 0)
(0.452176 0 0)
(0.454845 0 0)
(0.457512 0 0)
(0.460178 0 0)
(0.462842 0 0)
(0.465504 0 0)
(0.468165 0 0)
(0.470824 0 0)
(0.473481 0 0)
(0.476137 0 0)
(0.478791 0 0)
(0.481443 0 0)
(0.484094 0 0)
(0.486743 0 0)
(0.48939 0 0)
(0.492035 0 0)
(0.494679 0 0)
(0.497321 0 0)
(0.499961 0 0)
(0.502599 0 0)
(0.505235 0 0)
(0.507869 0 0)
(0.510502 0 0)
(0.513133 0 0)
(0.515761 0 0)
(0.518388 0 0)
(0.521013 0 0)
(0.523636 0 0)
(0.526257 0 0)
(0.528876 0 0)
(0.531493 0 0)
(0.534108 0 0)
(0.536721 0 0)
(0.539332 0 0)
(0.54194 0 0)
(0.544547 0 0)
(0.547151 0 0)
(0.549754 0 0)
(0.552354 0 0)
(0.554952 0 0)
(0.557548 0 0)
(0.560142 0 0)
(0.562733 0 0)
(0.565323 0 0)
(0.56791 0 0)
(0.570494 0 0)
(0.573077 0 0)
(0.575657 0 0)
(0.578235 0 0)
(0.58081 0 0)
(0.583383 0 0)
(0.585954 0 0)
(0.588522 0 0)
(0.591088 0 0)
(0.593651 0 0)
(0.596212 0 0)
(0.59877 0 0)
(0.601326 0 0)
(0.603879 0 0)
(0.60643 0 0)
(0.608978 0 0)
(0.611524 0 0)
(0.614067 0 0)
(0.616607 0 0)
(0.619144 0 0)
(0.621679 0 0)
(0.624211 0 0)
(0.626741 0 0)
(0.629267 0 0)
(0.631791 0 0)
(0.634312 0 0)
(0.63683 0 0)
(0.639346 0 0)
(0.641858 0 0)
(0.644367 0 0)
(0.646874 0 0)
(0.649377 0 0)
(0.651878 0 0)
(0.654376 0 0)
(0.65687 0 0)
(0.659361 0 0)
(0.66185 0 0)
(0.664335 0 0)
(0.666817 0 0)
(0.669296 0 0)
(0.671771 0 0)
(0.674244 0 0)
(0.676713 0 0)
(0.679179 0 0)
(0.681641 0 0)
(0.6841 0 0)
(0.686556 0 0)
(0.689008 0 0)
(0.691457 0 0)
(0.693902 0 0)
(0.696344 0 0)
(0.698782 0 0)
(0.701217 0 0)
(0.703648 0 0)
(0.706076 0 0)
(0.708499 0 0)
(0.710919 0 0)
(0.713336 0 0)
(0.715748 0 0)
(0.718157 0 0)
(0.720561 0 0)
(0.722962 0 0)
(0.725359 0 0)
(0.727752 0 0)
(0.730141 0 0)
(0.732526 0 0)
(0.734907 0 0)
(0.737284 0 0)
(0.739656 0 0)
(0.742025 0 0)
(0.744389 0 0)
(0.746749 0 0)
(0.749104 0 0)
(0.751455 0 0)
(0.753802 0 0)
(0.756144 0 0)
(0.758482 0 0)
(0.760815 0 0)
(0.763144 0 0)
(0.765468 0 0)
(0.767787 0 0)
(0.770102 0 0)
(0.772411 0 0)
(0.774716 0 0)
(0.777016 0 0)
(0.779312 0 0)
(0.781602 0 0)
(0.783887 0 0)
(0.786167 0 0)
(0.788442 0 0)
(0.790711 0 0)
(0.792976 0 0)
(0.795235 0 0)
(0.797489 0 0)
(0.799737 0 0)
(0.80198 0 0)
(0.804217 0 0)
(0.806449 0 0)
(0.808675 0 0)
(0.810896 0 0)
(0.81311 0 0)
(0.815319 0 0)
(0.817522 0 0)
(0.819719 0 0)
(0.82191 0 0)
(0.824094 0 0)
(0.826273 0 0)
(0.828445 0 0)
(0.830611 0 0)
(0.832771 0 0)
(0.834924 0 0)
(0.83707 0 0)
(0.83921 0 0)
(0.841343 0 0)
(0.84347 0 0)
(0.845589 0 0)
(0.847702 0 0)
(0.849808 0 0)
(0.851906 0 0)
(0.853997 0 0)
(0.856081 0 0)
(0.858158 0 0)
(0.860227 0 0)
(0.862288 0 0)
(0.864342 0 0)
(0.866388 0 0)
(0.868427 0 0)
(0.870457 0 0)
(0.872479 0 0)
(0.874493 0 0)
(0.876499 0 0)
(0.878496 0 0)
(0.880485 0 0)
(0.882465 0 0)
(0.884437 0 0)
(0.886399 0 0)
(0.888353 0 0)
(0.890298 0 0)
(0.892233 0 0)
(0.894159 0 0)
(0.896075 0 0)
(0.897982 0 0)
(0.899879 0 0)
(0.901767 0 0)
(0.903644 0 0)
(0.905511 0 0)
(0.907367 0 0)
(0.909214 0 0)
(0.911049 0 0)
(0.912874 0 0)
(0.914687 0 0)
(0.91649 0 0)
(0.918281 0 0)
(0.920061 0 0)
(0.921829 0 0)
(0.923585 0 0)
(0.925329 0 0)
(0.92706 0 0)
(0.92878 0 0)
(0.930486 0 0)
(0.93218 0 0)
(0.93386 0 0)
(0.935527 0 0)
(0.937181 0 0)
(0.938821 0 0)
(0.940447 0 0)
(0.942058 0 0)
(0.943655 0 0)
(0.945237 0 0)
(0.946804 0 0)
(0.948356 0 0)
(0.949891 0 0)
(0.951411 0 0)
(0.952915 0 0)
(0.954402 0 0)
(0.955872 0 0)
(0.957325 0 0)
(0.95876 0 0)
(0.960178 0 0)
(0.961576 0 0)
(0.962957 0 0)
(0.964318 0 0)
(0.965659 0 0)
(0.966981 0 0)
(0.968282 0 0)
(0.969564 0 0)
(0.970801 0 0)
(0.972258 0 0)
(0.971277 0 0)
(0.993878 0 0)
(0.596447 0 0)
(-0.595045 0 0)
(-0.993875 0 0)
(-0.971277 0 0)
(-0.972257 0 0)
(-0.9708 0 0)
(-0.969563 0 0)
(-0.968281 0 0)
(-0.96698 0 0)
(-0.965658 0 0)
(-0.964317 0 0)
(-0.962955 0 0)
(-0.961575 0 0)
(-0.960176 0 0)
(-0.958759 0 0)
(-0.957324 0 0)
(-0.955871 0 0)
(-0.954401 0 0)
(-0.952914 0 0)
(-0.95141 0 0)
(-0.94989 0 0)
(-0.948354 0 0)
(-0.946803 0 0)
(-0.945236 0 0)
(-0.943654 0 0)
(-0.942057 0 0)
(-0.940445 0 0)
(-0.938819 0 0)
(-0.93718 0 0)
(-0.935526 0 0)
(-0.933859 0 0)
(-0.932178 0 0)
(-0.930484 0 0)
(-0.928778 0 0)
(-0.927059 0 0)
(-0.925327 0 0)
(-0.923583 0 0)
(-0.921827 0 0)
(-0.920059 0 0)
(-0.918279 0 0)
(-0.916488 0 0)
(-0.914685 0 0)
(-0.912872 0 0)
(-0.911047 0 0)
(-0.909212 0 0)
(-0.907366 0 0)
(-0.905509 0 0)
(-0.903642 0 0)
(-0.901765 0 0)
(-0.899878 0 0)
(-0.89798 0 0)
(-0.896073 0 0)
(-0.894157 0 0)
(-0.892231 0 0)
(-0.890296 0 0)
(-0.888351 0 0)
(-0.886397 0 0)
(-0.884435 0 0)
(-0.882463 0 0)
(-0.880483 0 0)
(-0.878494 0 0)
(-0.876497 0 0)
(-0.874491 0 0)
(-0.872477 0 0)
(-0.870455 0 0)
(-0.868424 0 0)
(-0.866386 0 0)
(-0.86434 0 0)
(-0.862286 0 0)
(-0.860225 0 0)
(-0.858156 0 0)
(-0.856079 0 0)
(-0.853995 0 0)
(-0.851904 0 0)
(-0.849805 0 0)
(-0.8477 0 0)
(-0.845587 0 0)
(-0.843467 0 0)
(-0.841341 0 0)
(-0.839208 0 0)
(-0.837068 0 0)
(-0.834921 0 0)
(-0.832768 0 0)
(-0.830609 0 0)
(-0.828443 0 0)
(-0.826271 0 0)
(-0.824092 0 0)
(-0.821907 0 0)
(-0.819716 0 0)
(-0.81752 0 0)
(-0.815317 0 0)
(-0.813108 0 0)
(-0.810893 0 0)
(-0.808673 0 0)
(-0.806447 0 0)
(-0.804215 0 0)
(-0.801978 0 0)
(-0.799735 0 0)
(-0.797486 0 0)
(-0.795233 0 0)
(-0.792974 0 0)
(-0.790709 0 0)
(-0.788439 0 0)
(-0.786164 0 0)
(-0.783884 0 0)
(-0.781599 0 0)
(-0.779309 0 0)
(-0.777014 0 0)
(-0.774714 0 0)
(-0.772409 0 0)
(-0.770099 0 0)
(-0.767785 0 0)
(-0.765465 0 0)
(-0.763141 0 0)
(-0.760813 0 0)
(-0.75848 0 0)
(-0.756142 0 0)
(-0.7538 0 0)
(-0.751453 0 0)
(-0.749102 0 0)
(-0.746746 0 0)
(-0.744387 0 0)
(-0.742022 0 0)
(-0.739654 0 0)
(-0.737282 0 0)
(-0.734905 0 0)
(-0.732524 0 0)
(-0.730139 0 0)
(-0.72775 0 0)
(-0.725357 0 0)
(-0.72296 0 0)
(-0.720559 0 0)
(-0.718154 0 0)
(-0.715746 0 0)
(-0.713333 0 0)
(-0.710917 0 0)
(-0.708497 0 0)
(-0.706073 0 0)
(-0.703646 0 0)
(-0.701215 0 0)
(-0.69878 0 0)
(-0.696342 0 0)
(-0.6939 0 0)
(-0.691455 0 0)
(-0.689006 0 0)
(-0.686554 0 0)
(-0.684098 0 0)
(-0.681639 0 0)
(-0.679176 0 0)
(-0.676711 0 0)
(-0.674242 0 0)
(-0.671769 0 0)
(-0.669294 0 0)
(-0.666815 0 0)
(-0.664333 0 0)
(-0.661848 0 0)
(-0.659359 0 0)
(-0.656868 0 0)
(-0.654373 0 0)
(-0.651876 0 0)
(-0.649375 0 0)
(-0.646872 0 0)
(-0.644365 0 0)
(-0.641856 0 0)
(-0.639344 0 0)
(-0.636828 0 0)
(-0.63431 0 0)
(-0.631789 0 0)
(-0.629265 0 0)
(-0.626739 0 0)
(-0.624209 0 0)
(-0.621677 0 0)
(-0.619142 0 0)
(-0.616605 0 0)
(-0.614065 0 0)
(-0.611522 0 0)
(-0.608976 0 0)
(-0.606428 0 0)
(-0.603877 0 0)
(-0.601324 0 0)
(-0.598768 0 0)
(-0.59621 0 0)
(-0.593649 0 0)
(-0.591086 0 0)
(-0.58852 0 0)
(-0.585952 0 0)
(-0.583381 0 0)
(-0.580808 0 0)
(-0.578233 0 0)
(-0.575655 0 0)
(-0.573075 0 0)
(-0.570493 0 0)
(-0.567908 0 0)
(-0.565321 0 0)
(-0.562732 0 0)
(-0.56014 0 0)
(-0.557546 0 0)
(-0.554951 0 0)
(-0.552353 0 0)
(-0.549752 0 0)
(-0.54715 0 0)
(-0.544545 0 0)
(-0.541939 0 0)
(-0.53933 0 0)
(-0.536719 0 0)
(-0.534106 0 0)
(-0.531491 0 0)
(-0.528874 0 0)
(-0.526255 0 0)
(-0.523635 0 0)
(-0.521012 0 0)
(-0.518387 0 0)
(-0.51576 0 0)
(-0.513131 0 0)
(-0.510501 0 0)
(-0.507868 0 0)
(-0.505234 0 0)
(-0.502597 0 0)
(-0.499959 0 0)
(-0.497319 0 0)
(-0.494678 0 0)
(-0.492034 0 0)
(-0.489389 0 0)
(-0.486742 0 0)
(-0.484093 0 0)
(-0.481442 0 0)
(-0.47879 0 0)
(-0.476136 0 0)
(-0.47348 0 0)
(-0.470823 0 0)
(-0.468164 0 0)
(-0.465503 0 0)
(-0.46284 0 0)
(-0.460176 0 0)
(-0.457511 0 0)
(-0.454844 0 0)
(-0.452175 0 0)
(-0.449505 0 0)
(-0.446833 0 0)
(-0.444159 0 0)
(-0.441484 0 0)
(-0.438808 0 0)
(-0.43613 0 0)
(-0.43345 0 0)
(-0.43077 0 0)
(-0.428087 0 0)
(-0.425403 0 0)
(-0.422718 0 0)
(-0.420031 0 0)
(-0.417343 0 0)
(-0.414654 0 0)
(-0.411963 0 0)
(-0.409271 0 0)
(-0.406577 0 0)
(-0.403882 0 0)
(-0.401186 0 0)
(-0.398488 0 0)
(-0.395789 0 0)
(-0.393089 0 0)
(-0.390387 0 0)
(-0.387685 0 0)
(-0.38498 0 0)
(-0.382275 0 0)
(-0.379569 0 0)
(-0.376861 0 0)
(-0.374152 0 0)
(-0.371442 0 0)
(-0.36873 0 0)
(-0.366018 0 0)
(-0.363304 0 0)
(-0.360589 0 0)
(-0.357873 0 0)
(-0.355156 0 0)
(-0.352437 0 0)
(-0.349718 0 0)
(-0.346997 0 0)
(-0.344275 0 0)
(-0.341553 0 0)
(-0.338829 0 0)
(-0.336104 0 0)
(-0.333378 0 0)
(-0.330651 0 0)
(-0.327923 0 0)
(-0.325194 0 0)
(-0.322464 0 0)
(-0.319733 0 0)
(-0.317001 0 0)
(-0.314268 0 0)
(-0.311534 0 0)
(-0.308799 0 0)
(-0.306063 0 0)
(-0.303326 0 0)
(-0.300588 0 0)
(-0.29785 0 0)
(-0.29511 0 0)
(-0.29237 0 0)
(-0.289628 0 0)
(-0.286886 0 0)
(-0.284143 0 0)
(-0.281399 0 0)
(-0.278654 0 0)
(-0.275908 0 0)
(-0.273162 0 0)
(-0.270414 0 0)
(-0.267666 0 0)
(-0.264917 0 0)
(-0.262167 0 0)
(-0.259417 0 0)
(-0.256666 0 0)
(-0.253913 0 0)
(-0.251161 0 0)
(-0.248407 0 0)
(-0.245653 0 0)
(-0.242898 0 0)
(-0.240142 0 0)
(-0.237385 0 0)
(-0.234628 0 0)
(-0.23187 0 0)
(-0.229112 0 0)
(-0.226352 0 0)
(-0.223592 0 0)
(-0.220832 0 0)
(-0.218071 0 0)
(-0.215309 0 0)
(-0.212546 0 0)
(-0.209783 0 0)
(-0.20702 0 0)
(-0.204255 0 0)
(-0.20149 0 0)
(-0.198725 0 0)
(-0.195959 0 0)
(-0.193192 0 0)
(-0.190425 0 0)
(-0.187657 0 0)
(-0.184889 0 0)
(-0.18212 0 0)
(-0.179351 0 0)
(-0.176581 0 0)
(-0.17381 0 0)
(-0.171039 0 0)
(-0.168268 0 0)
(-0.165496 0 0)
(-0.162724 0 0)
(-0.159951 0 0)
(-0.157178 0 0)
(-0.154404 0 0)
(-0.15163 0 0)
(-0.148855 0 0)
(-0.14608 0 0)
(-0.143305 0 0)
(-0.140529 0 0)
(-0.137753 0 0)
(-0.134976 0 0)
(-0.132199 0 0)
(-0.129422 0 0)
(-0.126644 0 0)
(-0.123866 0 0)
(-0.121087 0 0)
(-0.118308 0 0)
(-0.115529 0 0)
(-0.11275 0 0)
(-0.10997 0 0)
(-0.10719 0 0)
(-0.104409 0 0)
(-0.101629 0 0)
(-0.0988476 0 0)
(-0.0960663 0 0)
(-0.0932848 0 0)
(-0.090503 0 0)
(-0.0877209 0 0)
(-0.0849386 0 0)
(-0.082156 0 0)
(-0.0793732 0 0)
(-0.0765902 0 0)
(-0.073807 0 0)
(-0.0710235 0 0)
(-0.0682399 0 0)
(-0.065456 0 0)
(-0.062672 0 0)
(-0.0598878 0 0)
(-0.0571035 0 0)
(-0.054319 0 0)
(-0.0515343 0 0)
(-0.0487495 0 0)
(-0.0459645 0 0)
(-0.0431794 0 0)
(-0.0403942 0 0)
(-0.0376089 0 0)
(-0.0348235 0 0)
(-0.032038 0 0)
(-0.0292524 0 0)
(-0.0264667 0 0)
(-0.0236809 0 0)
(-0.0208951 0 0)
(-0.0181092 0 0)
(-0.0153232 0 0)
(-0.0125373 0 0)
(-0.00975123 0 0)
(-0.00696519 0 0)
(-0.00417912 0 0)
(-0.00139304 0 0)
)
;

boundaryField
{
    left
    {
        type            fixedValue;
        value           uniform (0 0 0);
    }
    right
    {
        type            fixedValue;
        value           uniform (0 0 0);
    }
    frontBackUpDown
    {
        type            empty;
    }
}


// ************************************************************************* //
