/*--------------------------------*- C++ -*----------------------------------*\
| =========                 |                                                 |
| \\      /  F ield         | OpenFOAM: The Open Source CFD Toolbox           |
|  \\    /   O peration     | Version:  2412                                  |
|   \\  /    A nd           | Website:  www.openfoam.com                      |
|    \\/     M anipulation  |                                                 |
\*---------------------------------------------------------------------------*/
FoamFile
{
    version     2.0;
    format      ascii;
    arch        "LSB;label=32;scalar=64";
    class       volVectorField;
    location    "0.58";
    object      U_0_0_0;
}
// * * * * * * * * * * * * * * * * * * * * * * * * * * * * * * * * * * * * * //

dimensions      [0 1 -1 0 0 0 0];

internalField   nonuniform List<vector> 
800
(
(0.00139458 0 0)
(0.00418376 0 0)
(0.00697292 0 0)
(0.00976207 0 0)
(0.0125512 0 0)
(0.0153403 0 0)
(0.0181293 0 0)
(0.0209183 0 0)
(0.0237073 0 0)
(0.0264961 0 0)
(0.0292849 0 0)
(0.0320736 0 0)
(0.0348623 0 0)
(0.0376508 0 0)
(0.0404392 0 0)
(0.0432275 0 0)
(0.0460157 0 0)
(0.0488037 0 0)
(0.0515917 0 0)
(0.0543794 0 0)
(0.057167 0 0)
(0.0599545 0 0)
(0.0627418 0 0)
(0.0655289 0 0)
(0.0683158 0 0)
(0.0711026 0 0)
(0.0738891 0 0)
(0.0766754 0 0)
(0.0794615 0 0)
(0.0822474 0 0)
(0.0850331 0 0)
(0.0878185 0 0)
(0.0906036 0 0)
(0.0933885 0 0)
(0.0961732 0 0)
(0.0989576 0 0)
(0.101742 0 0)
(0.104525 0 0)
(0.107309 0 0)
(0.110092 0 0)
(0.112875 0 0)
(0.115658 0 0)
(0.11844 0 0)
(0.121222 0 0)
(0.124003 0 0)
(0.126785 0 0)
(0.129565 0 0)
(0.132346 0 0)
(0.135126 0 0)
(0.137906 0 0)
(0.140685 0 0)
(0.143464 0 0)
(0.146242 0 0)
(0.14902 0 0)
(0.151798 0 0)
(0.154575 0 0)
(0.157352 0 0)
(0.160128 0 0)
(0.162904 0 0)
(0.16568 0 0)
(0.168455 0 0)
(0.171229 0 0)
(0.174003 0 0)
(0.176776 0 0)
(0.179549 0 0)
(0.182322 0 0)
(0.185094 0 0)
(0.187865 0 0)
(0.190636 0 0)
(0.193406 0 0)
(0.196176 0 0)
(0.198945 0 0)
(0.201713 0 0)
(0.204481 0 0)
(0.207249 0 0)
(0.210015 0 0)
(0.212781 0 0)
(0.215547 0 0)
(0.218312 0 0)
(0.221076 0 0)
(0.223839 0 0)
(0.226602 0 0)
(0.229365 0 0)
(0.232126 0 0)
(0.234887 0 0)
(0.237647 0 0)
(0.240407 0 0)
(0.243165 0 0)
(0.245924 0 0)
(0.248681 0 0)
(0.251437 0 0)
(0.254193 0 0)
(0.256948 0 0)
(0.259703 0 0)
(0.262456 0 0)
(0.265209 0 0)
(0.267961 0 0)
(0.270712 0 0)
(0.273462 0 0)
(0.276212 0 0)
(0.27896 0 0)
(0.281708 0 0)
(0.284455 0 0)
(0.287201 0 0)
(0.289946 0 0)
(0.29269 0 0)
(0.295434 0 0)
(0.298176 0 0)
(0.300918 0 0)
(0.303659 0 0)
(0.306398 0 0)
(0.309137 0 0)
(0.311875 0 0)
(0.314612 0 0)
(0.317348 0 0)
(0.320083 0 0)
(0.322817 0 0)
(0.325549 0 0)
(0.328281 0 0)
(0.331012 0 0)
(0.333742 0 0)
(0.336471 0 0)
(0.339199 0 0)
(0.341925 0 0)
(0.344651 0 0)
(0.347375 0 0)
(0.350099 0 0)
(0.352821 0 0)
(0.355542 0 0)
(0.358262 0 0)
(0.360981 0 0)
(0.363699 0 0)
(0.366415 0 0)
(0.369131 0 0)
(0.371845 0 0)
(0.374558 0 0)
(0.37727 0 0)
(0.37998 0 0)
(0.38269 0 0)
(0.385398 0 0)
(0.388104 0 0)
(0.39081 0 0)
(0.393514 0 0)
(0.396217 0 0)
(0.398919 0 0)
(0.401619 0 0)
(0.404318 0 0)
(0.407016 0 0)
(0.409712 0 0)
(0.412407 0 0)
(0.415101 0 0)
(0.417793 0 0)
(0.420484 0 0)
(0.423173 0 0)
(0.425861 0 0)
(0.428547 0 0)
(0.431232 0 0)
(0.433916 0 0)
(0.436598 0 0)
(0.439279 0 0)
(0.441958 0 0)
(0.444635 0 0)
(0.447311 0 0)
(0.449986 0 0)
(0.452659 0 0)
(0.45533 0 0)
(0.458 0 0)
(0.460668 0 0)
(0.463334 0 0)
(0.465999 0 0)
(0.468663 0 0)
(0.471324 0 0)
(0.473984 0 0)
(0.476642 0 0)
(0.479299 0 0)
(0.481954 0 0)
(0.484607 0 0)
(0.487258 0 0)
(0.489908 0 0)
(0.492556 0 0)
(0.495202 0 0)
(0.497846 0 0)
(0.500488 0 0)
(0.503129 0 0)
(0.505767 0 0)
(0.508404 0 0)
(0.511039 0 0)
(0.513672 0 0)
(0.516303 0 0)
(0.518932 0 0)
(0.52156 0 0)
(0.524185 0 0)
(0.526808 0 0)
(0.529429 0 0)
(0.532049 0 0)
(0.534666 0 0)
(0.537281 0 0)
(0.539894 0 0)
(0.542505 0 0)
(0.545114 0 0)
(0.547721 0 0)
(0.550326 0 0)
(0.552928 0 0)
(0.555528 0 0)
(0.558127 0 0)
(0.560722 0 0)
(0.563316 0 0)
(0.565908 0 0)
(0.568497 0 0)
(0.571084 0 0)
(0.573668 0 0)
(0.57625 0 0)
(0.57883 0 0)
(0.581408 0 0)
(0.583983 0 0)
(0.586556 0 0)
(0.589126 0 0)
(0.591694 0 0)
(0.594259 0 0)
(0.596822 0 0)
(0.599382 0 0)
(0.60194 0 0)
(0.604495 0 0)
(0.607048 0 0)
(0.609598 0 0)
(0.612146 0 0)
(0.614691 0 0)
(0.617233 0 0)
(0.619772 0 0)
(0.622309 0 0)
(0.624843 0 0)
(0.627374 0 0)
(0.629903 0 0)
(0.632428 0 0)
(0.634951 0 0)
(0.637471 0 0)
(0.639988 0 0)
(0.642502 0 0)
(0.645014 0 0)
(0.647522 0 0)
(0.650027 0 0)
(0.652529 0 0)
(0.655029 0 0)
(0.657525 0 0)
(0.660018 0 0)
(0.662508 0 0)
(0.664995 0 0)
(0.667478 0 0)
(0.669959 0 0)
(0.672436 0 0)
(0.67491 0 0)
(0.67738 0 0)
(0.679848 0 0)
(0.682312 0 0)
(0.684772 0 0)
(0.68723 0 0)
(0.689683 0 0)
(0.692134 0 0)
(0.69458 0 0)
(0.697024 0 0)
(0.699463 0 0)
(0.701899 0 0)
(0.704332 0 0)
(0.70676 0 0)
(0.709185 0 0)
(0.711607 0 0)
(0.714024 0 0)
(0.716438 0 0)
(0.718848 0 0)
(0.721254 0 0)
(0.723656 0 0)
(0.726054 0 0)
(0.728448 0 0)
(0.730838 0 0)
(0.733224 0 0)
(0.735606 0 0)
(0.737984 0 0)
(0.740358 0 0)
(0.742727 0 0)
(0.745092 0 0)
(0.747453 0 0)
(0.749809 0 0)
(0.752161 0 0)
(0.754509 0 0)
(0.756852 0 0)
(0.75919 0 0)
(0.761524 0 0)
(0.763854 0 0)
(0.766178 0 0)
(0.768498 0 0)
(0.770814 0 0)
(0.773124 0 0)
(0.77543 0 0)
(0.77773 0 0)
(0.780026 0 0)
(0.782317 0 0)
(0.784602 0 0)
(0.786883 0 0)
(0.789158 0 0)
(0.791428 0 0)
(0.793693 0 0)
(0.795953 0 0)
(0.798207 0 0)
(0.800455 0 0)
(0.802699 0 0)
(0.804936 0 0)
(0.807168 0 0)
(0.809394 0 0)
(0.811615 0 0)
(0.81383 0 0)
(0.816038 0 0)
(0.818241 0 0)
(0.820438 0 0)
(0.822629 0 0)
(0.824813 0 0)
(0.826992 0 0)
(0.829164 0 0)
(0.83133 0 0)
(0.833489 0 0)
(0.835642 0 0)
(0.837788 0 0)
(0.839927 0 0)
(0.84206 0 0)
(0.844186 0 0)
(0.846305 0 0)
(0.848417 0 0)
(0.850522 0 0)
(0.85262 0 0)
(0.85471 0 0)
(0.856793 0 0)
(0.858869 0 0)
(0.860937 0 0)
(0.862998 0 0)
(0.865051 0 0)
(0.867096 0 0)
(0.869133 0 0)
(0.871162 0 0)
(0.873183 0 0)
(0.875196 0 0)
(0.877201 0 0)
(0.879197 0 0)
(0.881184 0 0)
(0.883163 0 0)
(0.885133 0 0)
(0.887094 0 0)
(0.889046 0 0)
(0.890989 0 0)
(0.892922 0 0)
(0.894846 0 0)
(0.896761 0 0)
(0.898666 0 0)
(0.900561 0 0)
(0.902446 0 0)
(0.904321 0 0)
(0.906185 0 0)
(0.90804 0 0)
(0.909883 0 0)
(0.911716 0 0)
(0.913538 0 0)
(0.915349 0 0)
(0.917149 0 0)
(0.918937 0 0)
(0.920714 0 0)
(0.922478 0 0)
(0.924231 0 0)
(0.925972 0 0)
(0.9277 0 0)
(0.929416 0 0)
(0.931119 0 0)
(0.932809 0 0)
(0.934486 0 0)
(0.936149 0 0)
(0.937799 0 0)
(0.939434 0 0)
(0.941056 0 0)
(0.942663 0 0)
(0.944255 0 0)
(0.945833 0 0)
(0.947395 0 0)
(0.948941 0 0)
(0.950472 0 0)
(0.951987 0 0)
(0.953485 0 0)
(0.954967 0 0)
(0.956431 0 0)
(0.957878 0 0)
(0.959308 0 0)
(0.960719 0 0)
(0.962111 0 0)
(0.963485 0 0)
(0.964839 0 0)
(0.966174 0 0)
(0.967488 0 0)
(0.968782 0 0)
(0.970057 0 0)
(0.971286 0 0)
(0.972737 0 0)
(0.971732 0 0)
(0.99444 0 0)
(0.596993 0 0)
(-0.59559 0 0)
(-0.994437 0 0)
(-0.971731 0 0)
(-0.972737 0 0)
(-0.971285 0 0)
(-0.970056 0 0)
(-0.968781 0 0)
(-0.967487 0 0)
(-0.966173 0 0)
(-0.964838 0 0)
(-0.963484 0 0)
(-0.96211 0 0)
(-0.960718 0 0)
(-0.959306 0 0)
(-0.957877 0 0)
(-0.95643 0 0)
(-0.954966 0 0)
(-0.953484 0 0)
(-0.951986 0 0)
(-0.950471 0 0)
(-0.94894 0 0)
(-0.947393 0 0)
(-0.945831 0 0)
(-0.944254 0 0)
(-0.942661 0 0)
(-0.941054 0 0)
(-0.939433 0 0)
(-0.937797 0 0)
(-0.936147 0 0)
(-0.934484 0 0)
(-0.932807 0 0)
(-0.931117 0 0)
(-0.929414 0 0)
(-0.927699 0 0)
(-0.92597 0 0)
(-0.92423 0 0)
(-0.922477 0 0)
(-0.920712 0 0)
(-0.918935 0 0)
(-0.917147 0 0)
(-0.915347 0 0)
(-0.913536 0 0)
(-0.911714 0 0)
(-0.909881 0 0)
(-0.908038 0 0)
(-0.906183 0 0)
(-0.904319 0 0)
(-0.902444 0 0)
(-0.900559 0 0)
(-0.898664 0 0)
(-0.896759 0 0)
(-0.894844 0 0)
(-0.89292 0 0)
(-0.890987 0 0)
(-0.889044 0 0)
(-0.887092 0 0)
(-0.885131 0 0)
(-0.883161 0 0)
(-0.881182 0 0)
(-0.879194 0 0)
(-0.877198 0 0)
(-0.875194 0 0)
(-0.873181 0 0)
(-0.87116 0 0)
(-0.869131 0 0)
(-0.867094 0 0)
(-0.865049 0 0)
(-0.862996 0 0)
(-0.860935 0 0)
(-0.858867 0 0)
(-0.856791 0 0)
(-0.854708 0 0)
(-0.852618 0 0)
(-0.85052 0 0)
(-0.848415 0 0)
(-0.846303 0 0)
(-0.844184 0 0)
(-0.842058 0 0)
(-0.839925 0 0)
(-0.837785 0 0)
(-0.835639 0 0)
(-0.833487 0 0)
(-0.831327 0 0)
(-0.829162 0 0)
(-0.826989 0 0)
(-0.824811 0 0)
(-0.822626 0 0)
(-0.820436 0 0)
(-0.818239 0 0)
(-0.816036 0 0)
(-0.813827 0 0)
(-0.811613 0 0)
(-0.809392 0 0)
(-0.807166 0 0)
(-0.804934 0 0)
(-0.802696 0 0)
(-0.800453 0 0)
(-0.798204 0 0)
(-0.79595 0 0)
(-0.793691 0 0)
(-0.791426 0 0)
(-0.789156 0 0)
(-0.786881 0 0)
(-0.7846 0 0)
(-0.782314 0 0)
(-0.780024 0 0)
(-0.777728 0 0)
(-0.775427 0 0)
(-0.773122 0 0)
(-0.770811 0 0)
(-0.768496 0 0)
(-0.766176 0 0)
(-0.763851 0 0)
(-0.761522 0 0)
(-0.759188 0 0)
(-0.75685 0 0)
(-0.754506 0 0)
(-0.752159 0 0)
(-0.749807 0 0)
(-0.74745 0 0)
(-0.74509 0 0)
(-0.742725 0 0)
(-0.740355 0 0)
(-0.737982 0 0)
(-0.735604 0 0)
(-0.733222 0 0)
(-0.730836 0 0)
(-0.728446 0 0)
(-0.726052 0 0)
(-0.723654 0 0)
(-0.721252 0 0)
(-0.718846 0 0)
(-0.716436 0 0)
(-0.714022 0 0)
(-0.711604 0 0)
(-0.709183 0 0)
(-0.706758 0 0)
(-0.704329 0 0)
(-0.701897 0 0)
(-0.699461 0 0)
(-0.697021 0 0)
(-0.694578 0 0)
(-0.692131 0 0)
(-0.689681 0 0)
(-0.687227 0 0)
(-0.68477 0 0)
(-0.68231 0 0)
(-0.679846 0 0)
(-0.677378 0 0)
(-0.674908 0 0)
(-0.672434 0 0)
(-0.669957 0 0)
(-0.667476 0 0)
(-0.664993 0 0)
(-0.662506 0 0)
(-0.660016 0 0)
(-0.657523 0 0)
(-0.655027 0 0)
(-0.652527 0 0)
(-0.650025 0 0)
(-0.64752 0 0)
(-0.645012 0 0)
(-0.6425 0 0)
(-0.639986 0 0)
(-0.637469 0 0)
(-0.634949 0 0)
(-0.632426 0 0)
(-0.629901 0 0)
(-0.627372 0 0)
(-0.624841 0 0)
(-0.622307 0 0)
(-0.61977 0 0)
(-0.617231 0 0)
(-0.614689 0 0)
(-0.612144 0 0)
(-0.609596 0 0)
(-0.607046 0 0)
(-0.604494 0 0)
(-0.601938 0 0)
(-0.599381 0 0)
(-0.59682 0 0)
(-0.594257 0 0)
(-0.591692 0 0)
(-0.589124 0 0)
(-0.586554 0 0)
(-0.583981 0 0)
(-0.581406 0 0)
(-0.578829 0 0)
(-0.576249 0 0)
(-0.573666 0 0)
(-0.571082 0 0)
(-0.568495 0 0)
(-0.565906 0 0)
(-0.563314 0 0)
(-0.560721 0 0)
(-0.558125 0 0)
(-0.555527 0 0)
(-0.552926 0 0)
(-0.550324 0 0)
(-0.547719 0 0)
(-0.545113 0 0)
(-0.542504 0 0)
(-0.539893 0 0)
(-0.53728 0 0)
(-0.534664 0 0)
(-0.532047 0 0)
(-0.529428 0 0)
(-0.526807 0 0)
(-0.524183 0 0)
(-0.521558 0 0)
(-0.518931 0 0)
(-0.516302 0 0)
(-0.513671 0 0)
(-0.511038 0 0)
(-0.508403 0 0)
(-0.505766 0 0)
(-0.503127 0 0)
(-0.500487 0 0)
(-0.497844 0 0)
(-0.4952 0 0)
(-0.492554 0 0)
(-0.489906 0 0)
(-0.487257 0 0)
(-0.484605 0 0)
(-0.481952 0 0)
(-0.479298 0 0)
(-0.476641 0 0)
(-0.473983 0 0)
(-0.471323 0 0)
(-0.468661 0 0)
(-0.465998 0 0)
(-0.463333 0 0)
(-0.460667 0 0)
(-0.457999 0 0)
(-0.455329 0 0)
(-0.452657 0 0)
(-0.449985 0 0)
(-0.44731 0 0)
(-0.444634 0 0)
(-0.441957 0 0)
(-0.439278 0 0)
(-0.436597 0 0)
(-0.433915 0 0)
(-0.431231 0 0)
(-0.428546 0 0)
(-0.42586 0 0)
(-0.423172 0 0)
(-0.420483 0 0)
(-0.417792 0 0)
(-0.4151 0 0)
(-0.412406 0 0)
(-0.409711 0 0)
(-0.407015 0 0)
(-0.404317 0 0)
(-0.401618 0 0)
(-0.398918 0 0)
(-0.396216 0 0)
(-0.393513 0 0)
(-0.390809 0 0)
(-0.388104 0 0)
(-0.385397 0 0)
(-0.382689 0 0)
(-0.379979 0 0)
(-0.377269 0 0)
(-0.374557 0 0)
(-0.371844 0 0)
(-0.36913 0 0)
(-0.366415 0 0)
(-0.363698 0 0)
(-0.36098 0 0)
(-0.358261 0 0)
(-0.355541 0 0)
(-0.35282 0 0)
(-0.350098 0 0)
(-0.347375 0 0)
(-0.34465 0 0)
(-0.341925 0 0)
(-0.339198 0 0)
(-0.33647 0 0)
(-0.333741 0 0)
(-0.331012 0 0)
(-0.328281 0 0)
(-0.325549 0 0)
(-0.322816 0 0)
(-0.320082 0 0)
(-0.317347 0 0)
(-0.314611 0 0)
(-0.311874 0 0)
(-0.309137 0 0)
(-0.306398 0 0)
(-0.303658 0 0)
(-0.300917 0 0)
(-0.298176 0 0)
(-0.295433 0 0)
(-0.29269 0 0)
(-0.289946 0 0)
(-0.2872 0 0)
(-0.284454 0 0)
(-0.281707 0 0)
(-0.27896 0 0)
(-0.276211 0 0)
(-0.273462 0 0)
(-0.270711 0 0)
(-0.26796 0 0)
(-0.265208 0 0)
(-0.262456 0 0)
(-0.259702 0 0)
(-0.256948 0 0)
(-0.254193 0 0)
(-0.251437 0 0)
(-0.24868 0 0)
(-0.245923 0 0)
(-0.243165 0 0)
(-0.240406 0 0)
(-0.237647 0 0)
(-0.234887 0 0)
(-0.232126 0 0)
(-0.229364 0 0)
(-0.226602 0 0)
(-0.223839 0 0)
(-0.221076 0 0)
(-0.218311 0 0)
(-0.215547 0 0)
(-0.212781 0 0)
(-0.210015 0 0)
(-0.207248 0 0)
(-0.204481 0 0)
(-0.201713 0 0)
(-0.198944 0 0)
(-0.196175 0 0)
(-0.193406 0 0)
(-0.190635 0 0)
(-0.187865 0 0)
(-0.185093 0 0)
(-0.182321 0 0)
(-0.179549 0 0)
(-0.176776 0 0)
(-0.174003 0 0)
(-0.171229 0 0)
(-0.168454 0 0)
(-0.165679 0 0)
(-0.162904 0 0)
(-0.160128 0 0)
(-0.157352 0 0)
(-0.154575 0 0)
(-0.151798 0 0)
(-0.14902 0 0)
(-0.146242 0 0)
(-0.143464 0 0)
(-0.140685 0 0)
(-0.137906 0 0)
(-0.135126 0 0)
(-0.132346 0 0)
(-0.129565 0 0)
(-0.126784 0 0)
(-0.124003 0 0)
(-0.121222 0 0)
(-0.11844 0 0)
(-0.115658 0 0)
(-0.112875 0 0)
(-0.110092 0 0)
(-0.107309 0 0)
(-0.104525 0 0)
(-0.101742 0 0)
(-0.0989575 0 0)
(-0.0961731 0 0)
(-0.0933885 0 0)
(-0.0906036 0 0)
(-0.0878184 0 0)
(-0.085033 0 0)
(-0.0822474 0 0)
(-0.0794615 0 0)
(-0.0766754 0 0)
(-0.0738891 0 0)
(-0.0711025 0 0)
(-0.0683158 0 0)
(-0.0655289 0 0)
(-0.0627418 0 0)
(-0.0599545 0 0)
(-0.057167 0 0)
(-0.0543794 0 0)
(-0.0515916 0 0)
(-0.0488037 0 0)
(-0.0460157 0 0)
(-0.0432275 0 0)
(-0.0404392 0 0)
(-0.0376508 0 0)
(-0.0348623 0 0)
(-0.0320736 0 0)
(-0.0292849 0 0)
(-0.0264961 0 0)
(-0.0237073 0 0)
(-0.0209183 0 0)
(-0.0181293 0 0)
(-0.0153403 0 0)
(-0.0125512 0 0)
(-0.00976209 0 0)
(-0.00697294 0 0)
(-0.00418377 0 0)
(-0.00139459 0 0)
)
;

boundaryField
{
    left
    {
        type            fixedValue;
        value           uniform (0 0 0);
    }
    right
    {
        type            fixedValue;
        value           uniform (0 0 0);
    }
    frontBackUpDown
    {
        type            empty;
    }
}


// ************************************************************************* //
