/*--------------------------------*- C++ -*----------------------------------*\
| =========                 |                                                 |
| \\      /  F ield         | OpenFOAM: The Open Source CFD Toolbox           |
|  \\    /   O peration     | Version:  2412                                  |
|   \\  /    A nd           | Website:  www.openfoam.com                      |
|    \\/     M anipulation  |                                                 |
\*---------------------------------------------------------------------------*/
FoamFile
{
    version     2.0;
    format      ascii;
    arch        "LSB;label=32;scalar=64";
    class       surfaceScalarField;
    location    "0.71";
    object      phi;
}
// * * * * * * * * * * * * * * * * * * * * * * * * * * * * * * * * * * * * * //

dimensions      [0 3 -1 0 0 0 0];

oriented        oriented;

internalField   nonuniform List<scalar> 
799
(
2.43294e-05
4.86588e-05
7.29882e-05
9.73174e-05
0.000121646
0.000145975
0.000170304
0.000194632
0.00021896
0.000243287
0.000267614
0.000291941
0.000316267
0.000340592
0.000364917
0.000389241
0.000413564
0.000437887
0.000462208
0.000486529
0.000510849
0.000535168
0.000559486
0.000583803
0.000608119
0.000632434
0.000656747
0.000681059
0.00070537
0.00072968
0.000753988
0.000778295
0.000802601
0.000826905
0.000851207
0.000875508
0.000899807
0.000924104
0.0009484
0.000972694
0.000996986
0.00102128
0.00104556
0.00106985
0.00109413
0.00111842
0.0011427
0.00116697
0.00119125
0.00121552
0.00123979
0.00126406
0.00128833
0.00131259
0.00133686
0.00136111
0.00138537
0.00140962
0.00143387
0.00145812
0.00148237
0.00150661
0.00153085
0.00155509
0.00157932
0.00160355
0.00162778
0.001652
0.00167623
0.00170044
0.00172466
0.00174887
0.00177308
0.00179728
0.00182148
0.00184568
0.00186988
0.00189407
0.00191825
0.00194244
0.00196662
0.00199079
0.00201496
0.00203913
0.0020633
0.00208746
0.00211161
0.00213576
0.00215991
0.00218405
0.00220819
0.00223233
0.00225646
0.00228058
0.0023047
0.00232882
0.00235293
0.00237704
0.00240114
0.00242524
0.00244933
0.00247342
0.0024975
0.00252158
0.00254566
0.00256972
0.00259379
0.00261784
0.0026419
0.00266594
0.00268999
0.00271402
0.00273805
0.00276208
0.0027861
0.00281011
0.00283412
0.00285812
0.00288212
0.00290611
0.0029301
0.00295408
0.00297805
0.00300202
0.00302598
0.00304993
0.00307388
0.00309782
0.00312176
0.00314568
0.00316961
0.00319352
0.00321743
0.00324133
0.00326523
0.00328912
0.003313
0.00333688
0.00336074
0.0033846
0.00340846
0.0034323
0.00345614
0.00347998
0.0035038
0.00352762
0.00355143
0.00357523
0.00359902
0.00362281
0.00364659
0.00367036
0.00369412
0.00371788
0.00374162
0.00376536
0.00378909
0.00381281
0.00383653
0.00386023
0.00388393
0.00390762
0.0039313
0.00395497
0.00397863
0.00400228
0.00402593
0.00404956
0.00407319
0.00409681
0.00412042
0.00414401
0.0041676
0.00419118
0.00421475
0.00423831
0.00426187
0.00428541
0.00430894
0.00433246
0.00435597
0.00437947
0.00440297
0.00442645
0.00444992
0.00447338
0.00449683
0.00452027
0.0045437
0.00456712
0.00459052
0.00461392
0.0046373
0.00466068
0.00468404
0.00470739
0.00473074
0.00475407
0.00477738
0.00480069
0.00482398
0.00484727
0.00487054
0.0048938
0.00491705
0.00494028
0.0049635
0.00498671
0.00500991
0.0050331
0.00505627
0.00507943
0.00510258
0.00512571
0.00514884
0.00517194
0.00519504
0.00521812
0.00524119
0.00526425
0.00528729
0.00531032
0.00533333
0.00535633
0.00537932
0.00540229
0.00542525
0.00544819
0.00547112
0.00549403
0.00551693
0.00553982
0.00556269
0.00558554
0.00560838
0.00563121
0.00565402
0.00567681
0.00569959
0.00572235
0.0057451
0.00576783
0.00579054
0.00581324
0.00583592
0.00585859
0.00588124
0.00590387
0.00592648
0.00594908
0.00597166
0.00599423
0.00601677
0.0060393
0.00606181
0.00608431
0.00610678
0.00612924
0.00615168
0.0061741
0.0061965
0.00621888
0.00624125
0.00626359
0.00628592
0.00630823
0.00633052
0.00635278
0.00637503
0.00639726
0.00641947
0.00644166
0.00646382
0.00648597
0.0065081
0.0065302
0.00655229
0.00657435
0.00659639
0.00661841
0.00664041
0.00666239
0.00668434
0.00670627
0.00672818
0.00675007
0.00677193
0.00679378
0.00681559
0.00683739
0.00685916
0.0068809
0.00690263
0.00692433
0.006946
0.00696765
0.00698927
0.00701087
0.00703245
0.00705399
0.00707552
0.00709701
0.00711848
0.00713993
0.00716134
0.00718273
0.0072041
0.00722543
0.00724674
0.00726802
0.00728927
0.0073105
0.00733169
0.00735286
0.007374
0.0073951
0.00741618
0.00743723
0.00745825
0.00747923
0.00750019
0.00752111
0.00754201
0.00756287
0.0075837
0.0076045
0.00762526
0.007646
0.0076667
0.00768736
0.00770799
0.00772859
0.00774915
0.00776968
0.00779017
0.00781063
0.00783105
0.00785144
0.00787179
0.0078921
0.00791237
0.00793261
0.00795281
0.00797297
0.00799309
0.00801317
0.00803321
0.00805322
0.00807318
0.0080931
0.00811298
0.00813281
0.00815261
0.00817236
0.00819207
0.00821173
0.00823135
0.00825093
0.00827046
0.00828995
0.00830939
0.00832878
0.00834812
0.00836742
0.00838667
0.00840587
0.00842502
0.00844412
0.00846317
0.00848217
0.00850112
0.00852001
0.00853886
0.00855764
0.00857638
0.00859506
0.00861368
0.00863225
0.00865076
0.00866921
0.0086876
0.00870594
0.00872421
0.00874243
0.00876058
0.00877867
0.00879669
0.00881466
0.00883255
0.00885038
0.00886815
0.00888585
0.00890348
0.00892103
0.00893852
0.00895599
0.00897272
0.00899623
0.00705467
6.54484e-06
-0.00704772
-0.00899583
-0.00897272
-0.00895596
-0.0089385
-0.00892101
-0.00890345
-0.00888582
-0.00886813
-0.00885036
-0.00883253
-0.00881463
-0.00879667
-0.00877864
-0.00876056
-0.0087424
-0.00872419
-0.00870592
-0.00868758
-0.00866919
-0.00865074
-0.00863223
-0.00861366
-0.00859503
-0.00857636
-0.00855762
-0.00853883
-0.00851999
-0.0085011
-0.00848215
-0.00846315
-0.0084441
-0.008425
-0.00840585
-0.00838665
-0.0083674
-0.0083481
-0.00832875
-0.00830936
-0.00828992
-0.00827044
-0.00825091
-0.00823133
-0.00821171
-0.00819204
-0.00817234
-0.00815258
-0.00813279
-0.00811295
-0.00809307
-0.00807315
-0.00805319
-0.00803319
-0.00801315
-0.00799307
-0.00797294
-0.00795278
-0.00793259
-0.00791235
-0.00789208
-0.00787176
-0.00785142
-0.00783103
-0.00781061
-0.00779015
-0.00776966
-0.00774913
-0.00772857
-0.00770797
-0.00768734
-0.00766667
-0.00764597
-0.00762524
-0.00760447
-0.00758368
-0.00756285
-0.00754198
-0.00752109
-0.00750017
-0.00747921
-0.00745822
-0.00743721
-0.00741616
-0.00739508
-0.00737397
-0.00735283
-0.00733167
-0.00731047
-0.00728925
-0.007268
-0.00724672
-0.00722541
-0.00720407
-0.00718271
-0.00716132
-0.0071399
-0.00711846
-0.00709699
-0.00707549
-0.00705397
-0.00703242
-0.00701085
-0.00698925
-0.00696763
-0.00694598
-0.0069243
-0.0069026
-0.00688088
-0.00685914
-0.00683737
-0.00681557
-0.00679375
-0.00677191
-0.00675005
-0.00672816
-0.00670625
-0.00668432
-0.00666237
-0.00664039
-0.00661839
-0.00659637
-0.00657433
-0.00655227
-0.00653018
-0.00650808
-0.00648595
-0.0064638
-0.00644164
-0.00641945
-0.00639724
-0.00637501
-0.00635276
-0.0063305
-0.00630821
-0.0062859
-0.00626357
-0.00624123
-0.00621886
-0.00619648
-0.00617408
-0.00615166
-0.00612922
-0.00610676
-0.00608429
-0.00606179
-0.00603928
-0.00601675
-0.00599421
-0.00597164
-0.00594906
-0.00592647
-0.00590385
-0.00588122
-0.00585857
-0.0058359
-0.00581322
-0.00579052
-0.00576781
-0.00574508
-0.00572233
-0.00569957
-0.00567679
-0.005654
-0.00563119
-0.00560837
-0.00558553
-0.00556267
-0.0055398
-0.00551692
-0.00549402
-0.0054711
-0.00544817
-0.00542523
-0.00540227
-0.0053793
-0.00535631
-0.00533331
-0.0053103
-0.00528727
-0.00526423
-0.00524118
-0.00521811
-0.00519502
-0.00517193
-0.00514882
-0.0051257
-0.00510256
-0.00507942
-0.00505626
-0.00503308
-0.0050099
-0.0049867
-0.00496349
-0.00494027
-0.00491703
-0.00489378
-0.00487053
-0.00484725
-0.00482397
-0.00480068
-0.00477737
-0.00475405
-0.00473072
-0.00470738
-0.00468403
-0.00466067
-0.00463729
-0.00461391
-0.00459051
-0.0045671
-0.00454368
-0.00452026
-0.00449682
-0.00447337
-0.00444991
-0.00442644
-0.00440295
-0.00437946
-0.00435596
-0.00433245
-0.00430893
-0.0042854
-0.00426186
-0.0042383
-0.00421474
-0.00419117
-0.00416759
-0.004144
-0.00412041
-0.0040968
-0.00407318
-0.00404955
-0.00402592
-0.00400227
-0.00397862
-0.00395496
-0.00393129
-0.00390761
-0.00388392
-0.00386022
-0.00383652
-0.00381281
-0.00378908
-0.00376535
-0.00374161
-0.00371787
-0.00369411
-0.00367035
-0.00364658
-0.0036228
-0.00359902
-0.00357522
-0.00355142
-0.00352761
-0.00350379
-0.00347997
-0.00345614
-0.0034323
-0.00340845
-0.0033846
-0.00336074
-0.00333687
-0.00331299
-0.00328911
-0.00326522
-0.00324133
-0.00321743
-0.00319352
-0.0031696
-0.00314568
-0.00312175
-0.00309781
-0.00307387
-0.00304992
-0.00302597
-0.00300201
-0.00297804
-0.00295407
-0.00293009
-0.00290611
-0.00288212
-0.00285812
-0.00283412
-0.00281011
-0.00278609
-0.00276207
-0.00273805
-0.00271402
-0.00268998
-0.00266594
-0.00264189
-0.00261784
-0.00259378
-0.00256972
-0.00254565
-0.00252158
-0.0024975
-0.00247342
-0.00244933
-0.00242524
-0.00240114
-0.00237704
-0.00235293
-0.00232882
-0.0023047
-0.00228058
-0.00225645
-0.00223232
-0.00220819
-0.00218405
-0.00215991
-0.00213576
-0.00211161
-0.00208745
-0.00206329
-0.00203913
-0.00201496
-0.00199079
-0.00196661
-0.00194243
-0.00191825
-0.00189406
-0.00186987
-0.00184568
-0.00182148
-0.00179728
-0.00177308
-0.00174887
-0.00172466
-0.00170044
-0.00167622
-0.001652
-0.00162778
-0.00160355
-0.00157932
-0.00155509
-0.00153085
-0.00150661
-0.00148237
-0.00145812
-0.00143387
-0.00140962
-0.00138537
-0.00136111
-0.00133685
-0.00131259
-0.00128833
-0.00126406
-0.00123979
-0.00121552
-0.00119125
-0.00116697
-0.0011427
-0.00111842
-0.00109413
-0.00106985
-0.00104556
-0.00102128
-0.000996985
-0.000972693
-0.000948399
-0.000924104
-0.000899806
-0.000875507
-0.000851206
-0.000826904
-0.0008026
-0.000778295
-0.000753988
-0.00072968
-0.00070537
-0.000681059
-0.000656747
-0.000632433
-0.000608119
-0.000583803
-0.000559486
-0.000535168
-0.000510849
-0.000486529
-0.000462208
-0.000437887
-0.000413564
-0.000389241
-0.000364917
-0.000340592
-0.000316267
-0.000291941
-0.000267614
-0.000243287
-0.00021896
-0.000194632
-0.000170304
-0.000145975
-0.000121647
-9.73175e-05
-7.29883e-05
-4.86589e-05
-2.43295e-05
)
;

boundaryField
{
    left
    {
        type            calculated;
        value           uniform 0;
    }
    right
    {
        type            calculated;
        value           uniform 0;
    }
    frontBackUpDown
    {
        type            empty;
    }
}


// ************************************************************************* //
