/*--------------------------------*- C++ -*----------------------------------*\
| =========                 |                                                 |
| \\      /  F ield         | OpenFOAM: The Open Source CFD Toolbox           |
|  \\    /   O peration     | Version:  2412                                  |
|   \\  /    A nd           | Website:  www.openfoam.com                      |
|    \\/     M anipulation  |                                                 |
\*---------------------------------------------------------------------------*/
FoamFile
{
    version     2.0;
    format      ascii;
    arch        "LSB;label=32;scalar=64";
    class       volVectorField;
    location    "0.71";
    object      U_0;
}
// * * * * * * * * * * * * * * * * * * * * * * * * * * * * * * * * * * * * * //

dimensions      [0 1 -1 0 0 0 0];

internalField   nonuniform List<vector> 
800
(
(0.00121705 0 0)
(0.00365118 0 0)
(0.00608531 0 0)
(0.00851942 0 0)
(0.0109535 0 0)
(0.0133876 0 0)
(0.0158216 0 0)
(0.0182557 0 0)
(0.0206896 0 0)
(0.0231236 0 0)
(0.0255575 0 0)
(0.0279914 0 0)
(0.0304252 0 0)
(0.0328589 0 0)
(0.0352926 0 0)
(0.0377262 0 0)
(0.0401598 0 0)
(0.0425932 0 0)
(0.0450266 0 0)
(0.0474599 0 0)
(0.0498932 0 0)
(0.0523263 0 0)
(0.0547593 0 0)
(0.0571922 0 0)
(0.0596251 0 0)
(0.0620578 0 0)
(0.0644904 0 0)
(0.0669228 0 0)
(0.0693552 0 0)
(0.0717874 0 0)
(0.0742195 0 0)
(0.0766514 0 0)
(0.0790832 0 0)
(0.0815148 0 0)
(0.0839463 0 0)
(0.0863777 0 0)
(0.0888088 0 0)
(0.0912398 0 0)
(0.0936707 0 0)
(0.0961013 0 0)
(0.0985318 0 0)
(0.100962 0 0)
(0.103392 0 0)
(0.105822 0 0)
(0.108252 0 0)
(0.110681 0 0)
(0.113111 0 0)
(0.11554 0 0)
(0.117968 0 0)
(0.120397 0 0)
(0.122825 0 0)
(0.125254 0 0)
(0.127682 0 0)
(0.130109 0 0)
(0.132537 0 0)
(0.134964 0 0)
(0.137391 0 0)
(0.139817 0 0)
(0.142244 0 0)
(0.14467 0 0)
(0.147096 0 0)
(0.149521 0 0)
(0.151947 0 0)
(0.154372 0 0)
(0.156796 0 0)
(0.159221 0 0)
(0.161645 0 0)
(0.164069 0 0)
(0.166492 0 0)
(0.168915 0 0)
(0.171338 0 0)
(0.173761 0 0)
(0.176183 0 0)
(0.178604 0 0)
(0.181026 0 0)
(0.183447 0 0)
(0.185868 0 0)
(0.188288 0 0)
(0.190708 0 0)
(0.193128 0 0)
(0.195547 0 0)
(0.197966 0 0)
(0.200385 0 0)
(0.202803 0 0)
(0.20522 0 0)
(0.207638 0 0)
(0.210055 0 0)
(0.212471 0 0)
(0.214887 0 0)
(0.217303 0 0)
(0.219718 0 0)
(0.222133 0 0)
(0.224547 0 0)
(0.226961 0 0)
(0.229375 0 0)
(0.231788 0 0)
(0.2342 0 0)
(0.236613 0 0)
(0.239024 0 0)
(0.241435 0 0)
(0.243846 0 0)
(0.246256 0 0)
(0.248666 0 0)
(0.251075 0 0)
(0.253484 0 0)
(0.255892 0 0)
(0.2583 0 0)
(0.260707 0 0)
(0.263114 0 0)
(0.26552 0 0)
(0.267925 0 0)
(0.27033 0 0)
(0.272735 0 0)
(0.275139 0 0)
(0.277542 0 0)
(0.279945 0 0)
(0.282347 0 0)
(0.284749 0 0)
(0.28715 0 0)
(0.28955 0 0)
(0.29195 0 0)
(0.29435 0 0)
(0.296748 0 0)
(0.299146 0 0)
(0.301544 0 0)
(0.303941 0 0)
(0.306337 0 0)
(0.308733 0 0)
(0.311128 0 0)
(0.313522 0 0)
(0.315916 0 0)
(0.318309 0 0)
(0.320701 0 0)
(0.323093 0 0)
(0.325484 0 0)
(0.327874 0 0)
(0.330264 0 0)
(0.332653 0 0)
(0.335041 0 0)
(0.337428 0 0)
(0.339815 0 0)
(0.342201 0 0)
(0.344587 0 0)
(0.346971 0 0)
(0.349355 0 0)
(0.351738 0 0)
(0.354121 0 0)
(0.356502 0 0)
(0.358883 0 0)
(0.361263 0 0)
(0.363643 0 0)
(0.366021 0 0)
(0.368399 0 0)
(0.370776 0 0)
(0.373152 0 0)
(0.375527 0 0)
(0.377902 0 0)
(0.380276 0 0)
(0.382648 0 0)
(0.38502 0 0)
(0.387392 0 0)
(0.389762 0 0)
(0.392131 0 0)
(0.3945 0 0)
(0.396868 0 0)
(0.399234 0 0)
(0.4016 0 0)
(0.403965 0 0)
(0.40633 0 0)
(0.408693 0 0)
(0.411055 0 0)
(0.413416 0 0)
(0.415777 0 0)
(0.418136 0 0)
(0.420495 0 0)
(0.422853 0 0)
(0.425209 0 0)
(0.427565 0 0)
(0.429919 0 0)
(0.432273 0 0)
(0.434626 0 0)
(0.436978 0 0)
(0.439328 0 0)
(0.441678 0 0)
(0.444027 0 0)
(0.446374 0 0)
(0.448721 0 0)
(0.451066 0 0)
(0.453411 0 0)
(0.455754 0 0)
(0.458096 0 0)
(0.460437 0 0)
(0.462778 0 0)
(0.465117 0 0)
(0.467454 0 0)
(0.469791 0 0)
(0.472127 0 0)
(0.474461 0 0)
(0.476795 0 0)
(0.479127 0 0)
(0.481458 0 0)
(0.483788 0 0)
(0.486116 0 0)
(0.488444 0 0)
(0.49077 0 0)
(0.493095 0 0)
(0.495419 0 0)
(0.497742 0 0)
(0.500063 0 0)
(0.502383 0 0)
(0.504702 0 0)
(0.50702 0 0)
(0.509336 0 0)
(0.511651 0 0)
(0.513965 0 0)
(0.516277 0 0)
(0.518589 0 0)
(0.520898 0 0)
(0.523207 0 0)
(0.525514 0 0)
(0.52782 0 0)
(0.530124 0 0)
(0.532427 0 0)
(0.534729 0 0)
(0.537029 0 0)
(0.539328 0 0)
(0.541625 0 0)
(0.543921 0 0)
(0.546216 0 0)
(0.548509 0 0)
(0.5508 0 0)
(0.553091 0 0)
(0.555379 0 0)
(0.557666 0 0)
(0.559952 0 0)
(0.562236 0 0)
(0.564519 0 0)
(0.5668 0 0)
(0.569079 0 0)
(0.571357 0 0)
(0.573633 0 0)
(0.575908 0 0)
(0.578181 0 0)
(0.580453 0 0)
(0.582722 0 0)
(0.584991 0 0)
(0.587257 0 0)
(0.589522 0 0)
(0.591785 0 0)
(0.594047 0 0)
(0.596307 0 0)
(0.598565 0 0)
(0.600821 0 0)
(0.603075 0 0)
(0.605328 0 0)
(0.607579 0 0)
(0.609829 0 0)
(0.612076 0 0)
(0.614322 0 0)
(0.616565 0 0)
(0.618807 0 0)
(0.621047 0 0)
(0.623285 0 0)
(0.625522 0 0)
(0.627756 0 0)
(0.629989 0 0)
(0.632219 0 0)
(0.634448 0 0)
(0.636674 0 0)
(0.638899 0 0)
(0.641121 0 0)
(0.643342 0 0)
(0.64556 0 0)
(0.647777 0 0)
(0.649991 0 0)
(0.652204 0 0)
(0.654414 0 0)
(0.656622 0 0)
(0.658828 0 0)
(0.661032 0 0)
(0.663233 0 0)
(0.665433 0 0)
(0.66763 0 0)
(0.669825 0 0)
(0.672018 0 0)
(0.674208 0 0)
(0.676396 0 0)
(0.678582 0 0)
(0.680766 0 0)
(0.682947 0 0)
(0.685126 0 0)
(0.687302 0 0)
(0.689476 0 0)
(0.691648 0 0)
(0.693817 0 0)
(0.695984 0 0)
(0.698148 0 0)
(0.70031 0 0)
(0.702469 0 0)
(0.704626 0 0)
(0.70678 0 0)
(0.708931 0 0)
(0.71108 0 0)
(0.713227 0 0)
(0.71537 0 0)
(0.717511 0 0)
(0.719649 0 0)
(0.721785 0 0)
(0.723918 0 0)
(0.726047 0 0)
(0.728175 0 0)
(0.730299 0 0)
(0.73242 0 0)
(0.734539 0 0)
(0.736654 0 0)
(0.738767 0 0)
(0.740877 0 0)
(0.742984 0 0)
(0.745087 0 0)
(0.747188 0 0)
(0.749286 0 0)
(0.75138 0 0)
(0.753471 0 0)
(0.75556 0 0)
(0.757645 0 0)
(0.759726 0 0)
(0.761805 0 0)
(0.76388 0 0)
(0.765952 0 0)
(0.768021 0 0)
(0.770086 0 0)
(0.772148 0 0)
(0.774206 0 0)
(0.776261 0 0)
(0.778312 0 0)
(0.78036 0 0)
(0.782404 0 0)
(0.784445 0 0)
(0.786482 0 0)
(0.788515 0 0)
(0.790545 0 0)
(0.792571 0 0)
(0.794593 0 0)
(0.796611 0 0)
(0.798625 0 0)
(0.800635 0 0)
(0.802642 0 0)
(0.804644 0 0)
(0.806642 0 0)
(0.808637 0 0)
(0.810627 0 0)
(0.812613 0 0)
(0.814594 0 0)
(0.816572 0 0)
(0.818545 0 0)
(0.820514 0 0)
(0.822478 0 0)
(0.824438 0 0)
(0.826393 0 0)
(0.828344 0 0)
(0.83029 0 0)
(0.832232 0 0)
(0.834169 0 0)
(0.836101 0 0)
(0.838028 0 0)
(0.839951 0 0)
(0.841868 0 0)
(0.843781 0 0)
(0.845688 0 0)
(0.84759 0 0)
(0.849488 0 0)
(0.851379 0 0)
(0.853266 0 0)
(0.855148 0 0)
(0.857023 0 0)
(0.858894 0 0)
(0.860759 0 0)
(0.862618 0 0)
(0.864472 0 0)
(0.866319 0 0)
(0.868161 0 0)
(0.869997 0 0)
(0.871827 0 0)
(0.873651 0 0)
(0.875469 0 0)
(0.877281 0 0)
(0.879086 0 0)
(0.880885 0 0)
(0.882678 0 0)
(0.884464 0 0)
(0.886243 0 0)
(0.888016 0 0)
(0.889781 0 0)
(0.89154 0 0)
(0.893292 0 0)
(0.895036 0 0)
(0.896785 0 0)
(0.898377 0 0)
(0.901566 0 0)
(0.510109 0 0)
(-0.5088 0 0)
(-0.901484 0 0)
(-0.898379 0 0)
(-0.896782 0 0)
(-0.895034 0 0)
(-0.89329 0 0)
(-0.891538 0 0)
(-0.889779 0 0)
(-0.888013 0 0)
(-0.886241 0 0)
(-0.884462 0 0)
(-0.882676 0 0)
(-0.880883 0 0)
(-0.879084 0 0)
(-0.877279 0 0)
(-0.875467 0 0)
(-0.873649 0 0)
(-0.871825 0 0)
(-0.869995 0 0)
(-0.868159 0 0)
(-0.866317 0 0)
(-0.864469 0 0)
(-0.862616 0 0)
(-0.860756 0 0)
(-0.858892 0 0)
(-0.857021 0 0)
(-0.855145 0 0)
(-0.853264 0 0)
(-0.851377 0 0)
(-0.849485 0 0)
(-0.847588 0 0)
(-0.845686 0 0)
(-0.843778 0 0)
(-0.841866 0 0)
(-0.839948 0 0)
(-0.838026 0 0)
(-0.836098 0 0)
(-0.834166 0 0)
(-0.832229 0 0)
(-0.830288 0 0)
(-0.828342 0 0)
(-0.826391 0 0)
(-0.824435 0 0)
(-0.822476 0 0)
(-0.820511 0 0)
(-0.818542 0 0)
(-0.816569 0 0)
(-0.814592 0 0)
(-0.81261 0 0)
(-0.810624 0 0)
(-0.808634 0 0)
(-0.80664 0 0)
(-0.804642 0 0)
(-0.802639 0 0)
(-0.800633 0 0)
(-0.798623 0 0)
(-0.796608 0 0)
(-0.79459 0 0)
(-0.792568 0 0)
(-0.790542 0 0)
(-0.788513 0 0)
(-0.78648 0 0)
(-0.784443 0 0)
(-0.782402 0 0)
(-0.780358 0 0)
(-0.77831 0 0)
(-0.776259 0 0)
(-0.774204 0 0)
(-0.772145 0 0)
(-0.770084 0 0)
(-0.768018 0 0)
(-0.76595 0 0)
(-0.763878 0 0)
(-0.761803 0 0)
(-0.759724 0 0)
(-0.757642 0 0)
(-0.755557 0 0)
(-0.753469 0 0)
(-0.751378 0 0)
(-0.749283 0 0)
(-0.747186 0 0)
(-0.745085 0 0)
(-0.742981 0 0)
(-0.740874 0 0)
(-0.738765 0 0)
(-0.736652 0 0)
(-0.734536 0 0)
(-0.732418 0 0)
(-0.730297 0 0)
(-0.728172 0 0)
(-0.726045 0 0)
(-0.723915 0 0)
(-0.721782 0 0)
(-0.719647 0 0)
(-0.717509 0 0)
(-0.715368 0 0)
(-0.713224 0 0)
(-0.711078 0 0)
(-0.708929 0 0)
(-0.706778 0 0)
(-0.704624 0 0)
(-0.702467 0 0)
(-0.700308 0 0)
(-0.698146 0 0)
(-0.695982 0 0)
(-0.693815 0 0)
(-0.691646 0 0)
(-0.689474 0 0)
(-0.6873 0 0)
(-0.685124 0 0)
(-0.682945 0 0)
(-0.680763 0 0)
(-0.67858 0 0)
(-0.676394 0 0)
(-0.674206 0 0)
(-0.672015 0 0)
(-0.669823 0 0)
(-0.667628 0 0)
(-0.66543 0 0)
(-0.663231 0 0)
(-0.661029 0 0)
(-0.658826 0 0)
(-0.65662 0 0)
(-0.654412 0 0)
(-0.652201 0 0)
(-0.649989 0 0)
(-0.647775 0 0)
(-0.645558 0 0)
(-0.64334 0 0)
(-0.641119 0 0)
(-0.638897 0 0)
(-0.636672 0 0)
(-0.634446 0 0)
(-0.632217 0 0)
(-0.629987 0 0)
(-0.627754 0 0)
(-0.62552 0 0)
(-0.623283 0 0)
(-0.621045 0 0)
(-0.618805 0 0)
(-0.616563 0 0)
(-0.61432 0 0)
(-0.612074 0 0)
(-0.609827 0 0)
(-0.607577 0 0)
(-0.605326 0 0)
(-0.603074 0 0)
(-0.600819 0 0)
(-0.598563 0 0)
(-0.596305 0 0)
(-0.594045 0 0)
(-0.591783 0 0)
(-0.58952 0 0)
(-0.587255 0 0)
(-0.584989 0 0)
(-0.582721 0 0)
(-0.580451 0 0)
(-0.578179 0 0)
(-0.575906 0 0)
(-0.573632 0 0)
(-0.571355 0 0)
(-0.569077 0 0)
(-0.566798 0 0)
(-0.564517 0 0)
(-0.562234 0 0)
(-0.55995 0 0)
(-0.557665 0 0)
(-0.555378 0 0)
(-0.553089 0 0)
(-0.550799 0 0)
(-0.548507 0 0)
(-0.546214 0 0)
(-0.54392 0 0)
(-0.541624 0 0)
(-0.539326 0 0)
(-0.537028 0 0)
(-0.534727 0 0)
(-0.532426 0 0)
(-0.530123 0 0)
(-0.527818 0 0)
(-0.525513 0 0)
(-0.523205 0 0)
(-0.520897 0 0)
(-0.518587 0 0)
(-0.516276 0 0)
(-0.513964 0 0)
(-0.51165 0 0)
(-0.509335 0 0)
(-0.507018 0 0)
(-0.504701 0 0)
(-0.502382 0 0)
(-0.500062 0 0)
(-0.49774 0 0)
(-0.495418 0 0)
(-0.493094 0 0)
(-0.490769 0 0)
(-0.488443 0 0)
(-0.486115 0 0)
(-0.483786 0 0)
(-0.481457 0 0)
(-0.479126 0 0)
(-0.476793 0 0)
(-0.47446 0 0)
(-0.472126 0 0)
(-0.46979 0 0)
(-0.467453 0 0)
(-0.465115 0 0)
(-0.462776 0 0)
(-0.460436 0 0)
(-0.458095 0 0)
(-0.455753 0 0)
(-0.453409 0 0)
(-0.451065 0 0)
(-0.448719 0 0)
(-0.446373 0 0)
(-0.444025 0 0)
(-0.441677 0 0)
(-0.439327 0 0)
(-0.436976 0 0)
(-0.434625 0 0)
(-0.432272 0 0)
(-0.429918 0 0)
(-0.427564 0 0)
(-0.425208 0 0)
(-0.422852 0 0)
(-0.420494 0 0)
(-0.418135 0 0)
(-0.415776 0 0)
(-0.413415 0 0)
(-0.411054 0 0)
(-0.408692 0 0)
(-0.406329 0 0)
(-0.403964 0 0)
(-0.401599 0 0)
(-0.399234 0 0)
(-0.396867 0 0)
(-0.394499 0 0)
(-0.39213 0 0)
(-0.389761 0 0)
(-0.387391 0 0)
(-0.38502 0 0)
(-0.382648 0 0)
(-0.380275 0 0)
(-0.377901 0 0)
(-0.375527 0 0)
(-0.373151 0 0)
(-0.370775 0 0)
(-0.368398 0 0)
(-0.36602 0 0)
(-0.363642 0 0)
(-0.361263 0 0)
(-0.358882 0 0)
(-0.356502 0 0)
(-0.35412 0 0)
(-0.351738 0 0)
(-0.349354 0 0)
(-0.346971 0 0)
(-0.344586 0 0)
(-0.342201 0 0)
(-0.339814 0 0)
(-0.337428 0 0)
(-0.33504 0 0)
(-0.332652 0 0)
(-0.330263 0 0)
(-0.327873 0 0)
(-0.325483 0 0)
(-0.323092 0 0)
(-0.3207 0 0)
(-0.318308 0 0)
(-0.315915 0 0)
(-0.313521 0 0)
(-0.311127 0 0)
(-0.308732 0 0)
(-0.306336 0 0)
(-0.30394 0 0)
(-0.301543 0 0)
(-0.299146 0 0)
(-0.296748 0 0)
(-0.294349 0 0)
(-0.29195 0 0)
(-0.28955 0 0)
(-0.287149 0 0)
(-0.284748 0 0)
(-0.282347 0 0)
(-0.279944 0 0)
(-0.277542 0 0)
(-0.275138 0 0)
(-0.272734 0 0)
(-0.27033 0 0)
(-0.267925 0 0)
(-0.265519 0 0)
(-0.263113 0 0)
(-0.260706 0 0)
(-0.258299 0 0)
(-0.255892 0 0)
(-0.253483 0 0)
(-0.251075 0 0)
(-0.248666 0 0)
(-0.246256 0 0)
(-0.243846 0 0)
(-0.241435 0 0)
(-0.239024 0 0)
(-0.236612 0 0)
(-0.2342 0 0)
(-0.231787 0 0)
(-0.229374 0 0)
(-0.226961 0 0)
(-0.224547 0 0)
(-0.222133 0 0)
(-0.219718 0 0)
(-0.217303 0 0)
(-0.214887 0 0)
(-0.212471 0 0)
(-0.210054 0 0)
(-0.207637 0 0)
(-0.20522 0 0)
(-0.202802 0 0)
(-0.200384 0 0)
(-0.197966 0 0)
(-0.195547 0 0)
(-0.193128 0 0)
(-0.190708 0 0)
(-0.188288 0 0)
(-0.185868 0 0)
(-0.183447 0 0)
(-0.181026 0 0)
(-0.178604 0 0)
(-0.176182 0 0)
(-0.17376 0 0)
(-0.171338 0 0)
(-0.168915 0 0)
(-0.166492 0 0)
(-0.164068 0 0)
(-0.161645 0 0)
(-0.159221 0 0)
(-0.156796 0 0)
(-0.154372 0 0)
(-0.151947 0 0)
(-0.149521 0 0)
(-0.147096 0 0)
(-0.14467 0 0)
(-0.142244 0 0)
(-0.139817 0 0)
(-0.137391 0 0)
(-0.134964 0 0)
(-0.132537 0 0)
(-0.130109 0 0)
(-0.127681 0 0)
(-0.125254 0 0)
(-0.122825 0 0)
(-0.120397 0 0)
(-0.117968 0 0)
(-0.11554 0 0)
(-0.11311 0 0)
(-0.110681 0 0)
(-0.108252 0 0)
(-0.105822 0 0)
(-0.103392 0 0)
(-0.100962 0 0)
(-0.0985317 0 0)
(-0.0961013 0 0)
(-0.0936706 0 0)
(-0.0912398 0 0)
(-0.0888088 0 0)
(-0.0863776 0 0)
(-0.0839463 0 0)
(-0.0815148 0 0)
(-0.0790832 0 0)
(-0.0766514 0 0)
(-0.0742194 0 0)
(-0.0717874 0 0)
(-0.0693551 0 0)
(-0.0669228 0 0)
(-0.0644903 0 0)
(-0.0620577 0 0)
(-0.059625 0 0)
(-0.0571922 0 0)
(-0.0547593 0 0)
(-0.0523263 0 0)
(-0.0498932 0 0)
(-0.0474599 0 0)
(-0.0450266 0 0)
(-0.0425932 0 0)
(-0.0401598 0 0)
(-0.0377262 0 0)
(-0.0352926 0 0)
(-0.0328589 0 0)
(-0.0304252 0 0)
(-0.0279914 0 0)
(-0.0255575 0 0)
(-0.0231236 0 0)
(-0.0206897 0 0)
(-0.0182557 0 0)
(-0.0158216 0 0)
(-0.0133876 0 0)
(-0.0109535 0 0)
(-0.00851943 0 0)
(-0.00608532 0 0)
(-0.0036512 0 0)
(-0.00121707 0 0)
)
;

boundaryField
{
    left
    {
        type            fixedValue;
        value           uniform (0 0 0);
    }
    right
    {
        type            fixedValue;
        value           uniform (0 0 0);
    }
    frontBackUpDown
    {
        type            empty;
    }
}


// ************************************************************************* //
