/*--------------------------------*- C++ -*----------------------------------*\
| =========                 |                                                 |
| \\      /  F ield         | OpenFOAM: The Open Source CFD Toolbox           |
|  \\    /   O peration     | Version:  2412                                  |
|   \\  /    A nd           | Website:  www.openfoam.com                      |
|    \\/     M anipulation  |                                                 |
\*---------------------------------------------------------------------------*/
FoamFile
{
    version     2.0;
    format      ascii;
    arch        "LSB;label=32;scalar=64";
    class       volVectorField;
    location    "0.71";
    object      U_0_0;
}
// * * * * * * * * * * * * * * * * * * * * * * * * * * * * * * * * * * * * * //

dimensions      [0 1 -1 0 0 0 0];

internalField   nonuniform List<vector> 
800
(
(0.00121765 0 0)
(0.00365296 0 0)
(0.00608826 0 0)
(0.00852356 0 0)
(0.0109588 0 0)
(0.0133941 0 0)
(0.0158293 0 0)
(0.0182645 0 0)
(0.0206997 0 0)
(0.0231348 0 0)
(0.0255699 0 0)
(0.028005 0 0)
(0.0304399 0 0)
(0.0328749 0 0)
(0.0353097 0 0)
(0.0377445 0 0)
(0.0401793 0 0)
(0.0426139 0 0)
(0.0450485 0 0)
(0.047483 0 0)
(0.0499174 0 0)
(0.0523517 0 0)
(0.0547859 0 0)
(0.05722 0 0)
(0.059654 0 0)
(0.0620879 0 0)
(0.0645217 0 0)
(0.0669553 0 0)
(0.0693889 0 0)
(0.0718223 0 0)
(0.0742555 0 0)
(0.0766886 0 0)
(0.0791216 0 0)
(0.0815544 0 0)
(0.0839871 0 0)
(0.0864196 0 0)
(0.0888519 0 0)
(0.0912841 0 0)
(0.0937161 0 0)
(0.096148 0 0)
(0.0985796 0 0)
(0.101011 0 0)
(0.103442 0 0)
(0.105873 0 0)
(0.108304 0 0)
(0.110735 0 0)
(0.113165 0 0)
(0.115596 0 0)
(0.118026 0 0)
(0.120455 0 0)
(0.122885 0 0)
(0.125314 0 0)
(0.127743 0 0)
(0.130172 0 0)
(0.132601 0 0)
(0.135029 0 0)
(0.137457 0 0)
(0.139885 0 0)
(0.142313 0 0)
(0.14474 0 0)
(0.147167 0 0)
(0.149594 0 0)
(0.15202 0 0)
(0.154446 0 0)
(0.156872 0 0)
(0.159298 0 0)
(0.161723 0 0)
(0.164148 0 0)
(0.166573 0 0)
(0.168997 0 0)
(0.171421 0 0)
(0.173845 0 0)
(0.176268 0 0)
(0.178691 0 0)
(0.181113 0 0)
(0.183536 0 0)
(0.185958 0 0)
(0.188379 0 0)
(0.1908 0 0)
(0.193221 0 0)
(0.195642 0 0)
(0.198062 0 0)
(0.200481 0 0)
(0.202901 0 0)
(0.20532 0 0)
(0.207738 0 0)
(0.210156 0 0)
(0.212574 0 0)
(0.214991 0 0)
(0.217408 0 0)
(0.219824 0 0)
(0.22224 0 0)
(0.224656 0 0)
(0.227071 0 0)
(0.229485 0 0)
(0.2319 0 0)
(0.234313 0 0)
(0.236726 0 0)
(0.239139 0 0)
(0.241552 0 0)
(0.243963 0 0)
(0.246375 0 0)
(0.248786 0 0)
(0.251196 0 0)
(0.253606 0 0)
(0.256015 0 0)
(0.258424 0 0)
(0.260832 0 0)
(0.26324 0 0)
(0.265647 0 0)
(0.268054 0 0)
(0.27046 0 0)
(0.272866 0 0)
(0.275271 0 0)
(0.277675 0 0)
(0.280079 0 0)
(0.282483 0 0)
(0.284885 0 0)
(0.287288 0 0)
(0.289689 0 0)
(0.29209 0 0)
(0.294491 0 0)
(0.29689 0 0)
(0.29929 0 0)
(0.301688 0 0)
(0.304086 0 0)
(0.306484 0 0)
(0.30888 0 0)
(0.311276 0 0)
(0.313672 0 0)
(0.316067 0 0)
(0.318461 0 0)
(0.320854 0 0)
(0.323247 0 0)
(0.325639 0 0)
(0.32803 0 0)
(0.330421 0 0)
(0.332811 0 0)
(0.335201 0 0)
(0.337589 0 0)
(0.339977 0 0)
(0.342364 0 0)
(0.344751 0 0)
(0.347136 0 0)
(0.349521 0 0)
(0.351906 0 0)
(0.354289 0 0)
(0.356672 0 0)
(0.359054 0 0)
(0.361435 0 0)
(0.363815 0 0)
(0.366195 0 0)
(0.368574 0 0)
(0.370952 0 0)
(0.373329 0 0)
(0.375705 0 0)
(0.378081 0 0)
(0.380456 0 0)
(0.38283 0 0)
(0.385203 0 0)
(0.387575 0 0)
(0.389946 0 0)
(0.392317 0 0)
(0.394687 0 0)
(0.397055 0 0)
(0.399423 0 0)
(0.40179 0 0)
(0.404156 0 0)
(0.406521 0 0)
(0.408886 0 0)
(0.411249 0 0)
(0.413611 0 0)
(0.415973 0 0)
(0.418333 0 0)
(0.420693 0 0)
(0.423052 0 0)
(0.425409 0 0)
(0.427766 0 0)
(0.430122 0 0)
(0.432476 0 0)
(0.43483 0 0)
(0.437183 0 0)
(0.439534 0 0)
(0.441885 0 0)
(0.444235 0 0)
(0.446583 0 0)
(0.448931 0 0)
(0.451277 0 0)
(0.453623 0 0)
(0.455967 0 0)
(0.45831 0 0)
(0.460653 0 0)
(0.462994 0 0)
(0.465334 0 0)
(0.467673 0 0)
(0.47001 0 0)
(0.472347 0 0)
(0.474683 0 0)
(0.477017 0 0)
(0.47935 0 0)
(0.481682 0 0)
(0.484013 0 0)
(0.486343 0 0)
(0.488671 0 0)
(0.490998 0 0)
(0.493324 0 0)
(0.495649 0 0)
(0.497973 0 0)
(0.500295 0 0)
(0.502616 0 0)
(0.504936 0 0)
(0.507255 0 0)
(0.509572 0 0)
(0.511888 0 0)
(0.514203 0 0)
(0.516516 0 0)
(0.518828 0 0)
(0.521139 0 0)
(0.523448 0 0)
(0.525756 0 0)
(0.528063 0 0)
(0.530368 0 0)
(0.532672 0 0)
(0.534975 0 0)
(0.537276 0 0)
(0.539575 0 0)
(0.541874 0 0)
(0.544171 0 0)
(0.546466 0 0)
(0.54876 0 0)
(0.551053 0 0)
(0.553344 0 0)
(0.555633 0 0)
(0.557921 0 0)
(0.560208 0 0)
(0.562493 0 0)
(0.564776 0 0)
(0.567058 0 0)
(0.569338 0 0)
(0.571617 0 0)
(0.573894 0 0)
(0.57617 0 0)
(0.578444 0 0)
(0.580716 0 0)
(0.582987 0 0)
(0.585256 0 0)
(0.587523 0 0)
(0.589789 0 0)
(0.592053 0 0)
(0.594315 0 0)
(0.596576 0 0)
(0.598834 0 0)
(0.601092 0 0)
(0.603347 0 0)
(0.605601 0 0)
(0.607852 0 0)
(0.610102 0 0)
(0.612351 0 0)
(0.614597 0 0)
(0.616842 0 0)
(0.619084 0 0)
(0.621325 0 0)
(0.623564 0 0)
(0.625801 0 0)
(0.628036 0 0)
(0.630269 0 0)
(0.632501 0 0)
(0.63473 0 0)
(0.636957 0 0)
(0.639183 0 0)
(0.641406 0 0)
(0.643627 0 0)
(0.645846 0 0)
(0.648064 0 0)
(0.650279 0 0)
(0.652492 0 0)
(0.654703 0 0)
(0.656911 0 0)
(0.659118 0 0)
(0.661322 0 0)
(0.663525 0 0)
(0.665725 0 0)
(0.667923 0 0)
(0.670118 0 0)
(0.672312 0 0)
(0.674503 0 0)
(0.676692 0 0)
(0.678878 0 0)
(0.681062 0 0)
(0.683244 0 0)
(0.685424 0 0)
(0.687601 0 0)
(0.689776 0 0)
(0.691948 0 0)
(0.694118 0 0)
(0.696285 0 0)
(0.69845 0 0)
(0.700612 0 0)
(0.702772 0 0)
(0.704929 0 0)
(0.707084 0 0)
(0.709236 0 0)
(0.711386 0 0)
(0.713532 0 0)
(0.715676 0 0)
(0.717818 0 0)
(0.719957 0 0)
(0.722093 0 0)
(0.724226 0 0)
(0.726356 0 0)
(0.728484 0 0)
(0.730609 0 0)
(0.732731 0 0)
(0.73485 0 0)
(0.736966 0 0)
(0.739079 0 0)
(0.741189 0 0)
(0.743296 0 0)
(0.7454 0 0)
(0.747501 0 0)
(0.749599 0 0)
(0.751694 0 0)
(0.753786 0 0)
(0.755875 0 0)
(0.75796 0 0)
(0.760042 0 0)
(0.762121 0 0)
(0.764197 0 0)
(0.766269 0 0)
(0.768338 0 0)
(0.770404 0 0)
(0.772466 0 0)
(0.774524 0 0)
(0.77658 0 0)
(0.778631 0 0)
(0.780679 0 0)
(0.782724 0 0)
(0.784765 0 0)
(0.786802 0 0)
(0.788835 0 0)
(0.790865 0 0)
(0.792891 0 0)
(0.794913 0 0)
(0.796932 0 0)
(0.798946 0 0)
(0.800957 0 0)
(0.802963 0 0)
(0.804966 0 0)
(0.806964 0 0)
(0.808959 0 0)
(0.810949 0 0)
(0.812935 0 0)
(0.814917 0 0)
(0.816894 0 0)
(0.818867 0 0)
(0.820836 0 0)
(0.8228 0 0)
(0.82476 0 0)
(0.826716 0 0)
(0.828667 0 0)
(0.830613 0 0)
(0.832554 0 0)
(0.834491 0 0)
(0.836423 0 0)
(0.838351 0 0)
(0.840273 0 0)
(0.84219 0 0)
(0.844103 0 0)
(0.84601 0 0)
(0.847912 0 0)
(0.849809 0 0)
(0.851701 0 0)
(0.853588 0 0)
(0.855469 0 0)
(0.857344 0 0)
(0.859215 0 0)
(0.861079 0 0)
(0.862938 0 0)
(0.864791 0 0)
(0.866639 0 0)
(0.868481 0 0)
(0.870316 0 0)
(0.872146 0 0)
(0.87397 0 0)
(0.875787 0 0)
(0.877598 0 0)
(0.879403 0 0)
(0.881202 0 0)
(0.882994 0 0)
(0.884779 0 0)
(0.886558 0 0)
(0.88833 0 0)
(0.890095 0 0)
(0.891853 0 0)
(0.893604 0 0)
(0.895347 0 0)
(0.897096 0 0)
(0.898682 0 0)
(0.901957 0 0)
(0.510458 0 0)
(-0.509148 0 0)
(-0.901876 0 0)
(-0.898684 0 0)
(-0.897093 0 0)
(-0.895345 0 0)
(-0.893602 0 0)
(-0.891851 0 0)
(-0.890093 0 0)
(-0.888328 0 0)
(-0.886556 0 0)
(-0.884777 0 0)
(-0.882991 0 0)
(-0.881199 0 0)
(-0.879401 0 0)
(-0.877596 0 0)
(-0.875785 0 0)
(-0.873967 0 0)
(-0.872144 0 0)
(-0.870314 0 0)
(-0.868478 0 0)
(-0.866637 0 0)
(-0.864789 0 0)
(-0.862936 0 0)
(-0.861077 0 0)
(-0.859212 0 0)
(-0.857342 0 0)
(-0.855466 0 0)
(-0.853585 0 0)
(-0.851699 0 0)
(-0.849807 0 0)
(-0.84791 0 0)
(-0.846008 0 0)
(-0.8441 0 0)
(-0.842188 0 0)
(-0.840271 0 0)
(-0.838348 0 0)
(-0.836421 0 0)
(-0.834489 0 0)
(-0.832552 0 0)
(-0.830611 0 0)
(-0.828664 0 0)
(-0.826713 0 0)
(-0.824758 0 0)
(-0.822798 0 0)
(-0.820834 0 0)
(-0.818865 0 0)
(-0.816892 0 0)
(-0.814914 0 0)
(-0.812932 0 0)
(-0.810946 0 0)
(-0.808956 0 0)
(-0.806962 0 0)
(-0.804963 0 0)
(-0.802961 0 0)
(-0.800954 0 0)
(-0.798944 0 0)
(-0.796929 0 0)
(-0.794911 0 0)
(-0.792889 0 0)
(-0.790863 0 0)
(-0.788833 0 0)
(-0.786799 0 0)
(-0.784762 0 0)
(-0.782721 0 0)
(-0.780677 0 0)
(-0.778629 0 0)
(-0.776577 0 0)
(-0.774522 0 0)
(-0.772463 0 0)
(-0.770401 0 0)
(-0.768336 0 0)
(-0.766267 0 0)
(-0.764194 0 0)
(-0.762119 0 0)
(-0.76004 0 0)
(-0.757958 0 0)
(-0.755872 0 0)
(-0.753784 0 0)
(-0.751692 0 0)
(-0.749597 0 0)
(-0.747499 0 0)
(-0.745398 0 0)
(-0.743294 0 0)
(-0.741187 0 0)
(-0.739076 0 0)
(-0.736963 0 0)
(-0.734847 0 0)
(-0.732728 0 0)
(-0.730606 0 0)
(-0.728482 0 0)
(-0.726354 0 0)
(-0.724224 0 0)
(-0.72209 0 0)
(-0.719954 0 0)
(-0.717816 0 0)
(-0.715674 0 0)
(-0.71353 0 0)
(-0.711383 0 0)
(-0.709234 0 0)
(-0.707082 0 0)
(-0.704927 0 0)
(-0.70277 0 0)
(-0.70061 0 0)
(-0.698448 0 0)
(-0.696283 0 0)
(-0.694115 0 0)
(-0.691946 0 0)
(-0.689773 0 0)
(-0.687599 0 0)
(-0.685422 0 0)
(-0.683242 0 0)
(-0.68106 0 0)
(-0.678876 0 0)
(-0.67669 0 0)
(-0.674501 0 0)
(-0.67231 0 0)
(-0.670116 0 0)
(-0.667921 0 0)
(-0.665723 0 0)
(-0.663523 0 0)
(-0.66132 0 0)
(-0.659116 0 0)
(-0.656909 0 0)
(-0.6547 0 0)
(-0.65249 0 0)
(-0.650277 0 0)
(-0.648061 0 0)
(-0.645844 0 0)
(-0.643625 0 0)
(-0.641404 0 0)
(-0.63918 0 0)
(-0.636955 0 0)
(-0.634728 0 0)
(-0.632499 0 0)
(-0.630267 0 0)
(-0.628034 0 0)
(-0.625799 0 0)
(-0.623562 0 0)
(-0.621323 0 0)
(-0.619082 0 0)
(-0.61684 0 0)
(-0.614595 0 0)
(-0.612349 0 0)
(-0.610101 0 0)
(-0.607851 0 0)
(-0.605599 0 0)
(-0.603345 0 0)
(-0.60109 0 0)
(-0.598833 0 0)
(-0.596574 0 0)
(-0.594313 0 0)
(-0.592051 0 0)
(-0.589787 0 0)
(-0.587521 0 0)
(-0.585254 0 0)
(-0.582985 0 0)
(-0.580714 0 0)
(-0.578442 0 0)
(-0.576168 0 0)
(-0.573892 0 0)
(-0.571615 0 0)
(-0.569336 0 0)
(-0.567056 0 0)
(-0.564774 0 0)
(-0.562491 0 0)
(-0.560206 0 0)
(-0.557919 0 0)
(-0.555631 0 0)
(-0.553342 0 0)
(-0.551051 0 0)
(-0.548758 0 0)
(-0.546464 0 0)
(-0.544169 0 0)
(-0.541872 0 0)
(-0.539574 0 0)
(-0.537274 0 0)
(-0.534973 0 0)
(-0.532671 0 0)
(-0.530367 0 0)
(-0.528061 0 0)
(-0.525755 0 0)
(-0.523447 0 0)
(-0.521137 0 0)
(-0.518826 0 0)
(-0.516514 0 0)
(-0.514201 0 0)
(-0.511886 0 0)
(-0.50957 0 0)
(-0.507253 0 0)
(-0.504935 0 0)
(-0.502615 0 0)
(-0.500294 0 0)
(-0.497971 0 0)
(-0.495648 0 0)
(-0.493323 0 0)
(-0.490997 0 0)
(-0.48867 0 0)
(-0.486341 0 0)
(-0.484012 0 0)
(-0.481681 0 0)
(-0.479349 0 0)
(-0.477016 0 0)
(-0.474681 0 0)
(-0.472346 0 0)
(-0.470009 0 0)
(-0.467671 0 0)
(-0.465333 0 0)
(-0.462993 0 0)
(-0.460651 0 0)
(-0.458309 0 0)
(-0.455966 0 0)
(-0.453622 0 0)
(-0.451276 0 0)
(-0.44893 0 0)
(-0.446582 0 0)
(-0.444234 0 0)
(-0.441884 0 0)
(-0.439533 0 0)
(-0.437182 0 0)
(-0.434829 0 0)
(-0.432475 0 0)
(-0.430121 0 0)
(-0.427765 0 0)
(-0.425408 0 0)
(-0.423051 0 0)
(-0.420692 0 0)
(-0.418332 0 0)
(-0.415972 0 0)
(-0.41361 0 0)
(-0.411248 0 0)
(-0.408885 0 0)
(-0.40652 0 0)
(-0.404155 0 0)
(-0.401789 0 0)
(-0.399422 0 0)
(-0.397054 0 0)
(-0.394686 0 0)
(-0.392316 0 0)
(-0.389945 0 0)
(-0.387574 0 0)
(-0.385202 0 0)
(-0.382829 0 0)
(-0.380455 0 0)
(-0.37808 0 0)
(-0.375705 0 0)
(-0.373328 0 0)
(-0.370951 0 0)
(-0.368573 0 0)
(-0.366194 0 0)
(-0.363815 0 0)
(-0.361434 0 0)
(-0.359053 0 0)
(-0.356671 0 0)
(-0.354288 0 0)
(-0.351905 0 0)
(-0.349521 0 0)
(-0.347136 0 0)
(-0.34475 0 0)
(-0.342364 0 0)
(-0.339976 0 0)
(-0.337589 0 0)
(-0.3352 0 0)
(-0.332811 0 0)
(-0.330421 0 0)
(-0.32803 0 0)
(-0.325638 0 0)
(-0.323246 0 0)
(-0.320854 0 0)
(-0.31846 0 0)
(-0.316066 0 0)
(-0.313671 0 0)
(-0.311276 0 0)
(-0.30888 0 0)
(-0.306483 0 0)
(-0.304086 0 0)
(-0.301688 0 0)
(-0.299289 0 0)
(-0.29689 0 0)
(-0.29449 0 0)
(-0.29209 0 0)
(-0.289689 0 0)
(-0.287287 0 0)
(-0.284885 0 0)
(-0.282482 0 0)
(-0.280079 0 0)
(-0.277675 0 0)
(-0.27527 0 0)
(-0.272865 0 0)
(-0.27046 0 0)
(-0.268053 0 0)
(-0.265647 0 0)
(-0.26324 0 0)
(-0.260832 0 0)
(-0.258423 0 0)
(-0.256015 0 0)
(-0.253605 0 0)
(-0.251195 0 0)
(-0.248785 0 0)
(-0.246374 0 0)
(-0.243963 0 0)
(-0.241551 0 0)
(-0.239139 0 0)
(-0.236726 0 0)
(-0.234313 0 0)
(-0.231899 0 0)
(-0.229485 0 0)
(-0.22707 0 0)
(-0.224655 0 0)
(-0.22224 0 0)
(-0.219824 0 0)
(-0.217407 0 0)
(-0.214991 0 0)
(-0.212573 0 0)
(-0.210156 0 0)
(-0.207738 0 0)
(-0.205319 0 0)
(-0.2029 0 0)
(-0.200481 0 0)
(-0.198061 0 0)
(-0.195641 0 0)
(-0.193221 0 0)
(-0.1908 0 0)
(-0.188379 0 0)
(-0.185957 0 0)
(-0.183536 0 0)
(-0.181113 0 0)
(-0.178691 0 0)
(-0.176268 0 0)
(-0.173844 0 0)
(-0.171421 0 0)
(-0.168997 0 0)
(-0.166572 0 0)
(-0.164148 0 0)
(-0.161723 0 0)
(-0.159298 0 0)
(-0.156872 0 0)
(-0.154446 0 0)
(-0.15202 0 0)
(-0.149594 0 0)
(-0.147167 0 0)
(-0.14474 0 0)
(-0.142313 0 0)
(-0.139885 0 0)
(-0.137457 0 0)
(-0.135029 0 0)
(-0.132601 0 0)
(-0.130172 0 0)
(-0.127743 0 0)
(-0.125314 0 0)
(-0.122885 0 0)
(-0.120455 0 0)
(-0.118026 0 0)
(-0.115596 0 0)
(-0.113165 0 0)
(-0.110735 0 0)
(-0.108304 0 0)
(-0.105873 0 0)
(-0.103442 0 0)
(-0.101011 0 0)
(-0.0985795 0 0)
(-0.0961479 0 0)
(-0.0937161 0 0)
(-0.0912841 0 0)
(-0.0888519 0 0)
(-0.0864195 0 0)
(-0.083987 0 0)
(-0.0815544 0 0)
(-0.0791216 0 0)
(-0.0766886 0 0)
(-0.0742555 0 0)
(-0.0718222 0 0)
(-0.0693888 0 0)
(-0.0669553 0 0)
(-0.0645217 0 0)
(-0.0620879 0 0)
(-0.059654 0 0)
(-0.05722 0 0)
(-0.0547859 0 0)
(-0.0523517 0 0)
(-0.0499174 0 0)
(-0.047483 0 0)
(-0.0450485 0 0)
(-0.0426139 0 0)
(-0.0401793 0 0)
(-0.0377445 0 0)
(-0.0353097 0 0)
(-0.0328749 0 0)
(-0.0304399 0 0)
(-0.028005 0 0)
(-0.0255699 0 0)
(-0.0231348 0 0)
(-0.0206997 0 0)
(-0.0182645 0 0)
(-0.0158293 0 0)
(-0.0133941 0 0)
(-0.0109588 0 0)
(-0.00852357 0 0)
(-0.00608828 0 0)
(-0.00365297 0 0)
(-0.00121766 0 0)
)
;

boundaryField
{
    left
    {
        type            fixedValue;
        value           uniform (0 0 0);
    }
    right
    {
        type            fixedValue;
        value           uniform (0 0 0);
    }
    frontBackUpDown
    {
        type            empty;
    }
}


// ************************************************************************* //
