/*--------------------------------*- C++ -*----------------------------------*\
| =========                 |                                                 |
| \\      /  F ield         | OpenFOAM: The Open Source CFD Toolbox           |
|  \\    /   O peration     | Version:  2412                                  |
|   \\  /    A nd           | Website:  www.openfoam.com                      |
|    \\/     M anipulation  |                                                 |
\*---------------------------------------------------------------------------*/
FoamFile
{
    version     2.0;
    format      ascii;
    arch        "LSB;label=32;scalar=64";
    class       surfaceScalarField;
    location    "0.82";
    object      phi;
}
// * * * * * * * * * * * * * * * * * * * * * * * * * * * * * * * * * * * * * //

dimensions      [0 3 -1 0 0 0 0];

oriented        oriented;

internalField   nonuniform List<scalar> 
799
(
2.19813e-05
4.39626e-05
6.59438e-05
8.7925e-05
0.000109906
0.000131887
0.000153868
0.000175848
0.000197828
0.000219808
0.000241788
0.000263768
0.000285746
0.000307725
0.000329703
0.000351681
0.000373658
0.000395635
0.000417611
0.000439587
0.000461562
0.000483536
0.00050551
0.000527483
0.000549455
0.000571426
0.000593397
0.000615367
0.000637336
0.000659304
0.000681271
0.000703237
0.000725203
0.000747167
0.00076913
0.000791092
0.000813054
0.000835013
0.000856972
0.00087893
0.000900886
0.000922841
0.000944795
0.000966748
0.000988699
0.00101065
0.0010326
0.00105454
0.00107649
0.00109843
0.00112038
0.00114232
0.00116426
0.00118619
0.00120813
0.00123006
0.001252
0.00127393
0.00129586
0.00131778
0.00133971
0.00136163
0.00138355
0.00140547
0.00142739
0.00144931
0.00147122
0.00149313
0.00151504
0.00153695
0.00155885
0.00158075
0.00160265
0.00162455
0.00164645
0.00166834
0.00169023
0.00171212
0.00173401
0.00175589
0.00177777
0.00179965
0.00182153
0.0018434
0.00186527
0.00188714
0.00190901
0.00193087
0.00195273
0.00197459
0.00199644
0.00201829
0.00204014
0.00206199
0.00208383
0.00210567
0.00212751
0.00214934
0.00217117
0.002193
0.00221482
0.00223664
0.00225846
0.00228028
0.00230209
0.00232389
0.0023457
0.0023675
0.0023893
0.00241109
0.00243288
0.00245467
0.00247645
0.00249823
0.00252
0.00254178
0.00256354
0.00258531
0.00260707
0.00262883
0.00265058
0.00267233
0.00269407
0.00271581
0.00273755
0.00275928
0.00278101
0.00280273
0.00282445
0.00284617
0.00286788
0.00288959
0.00291129
0.00293299
0.00295468
0.00297637
0.00299806
0.00301974
0.00304141
0.00306308
0.00308475
0.00310641
0.00312807
0.00314972
0.00317137
0.00319301
0.00321465
0.00323628
0.00325791
0.00327953
0.00330114
0.00332276
0.00334436
0.00336596
0.00338756
0.00340915
0.00343074
0.00345232
0.00347389
0.00349546
0.00351702
0.00353858
0.00356013
0.00358168
0.00360322
0.00362476
0.00364629
0.00366781
0.00368933
0.00371084
0.00373235
0.00375384
0.00377534
0.00379683
0.00381831
0.00383978
0.00386125
0.00388271
0.00390417
0.00392562
0.00394706
0.0039685
0.00398993
0.00401135
0.00403277
0.00405418
0.00407558
0.00409698
0.00411837
0.00413975
0.00416113
0.0041825
0.00420386
0.00422521
0.00424656
0.0042679
0.00428923
0.00431056
0.00433188
0.00435319
0.00437449
0.00439578
0.00441707
0.00443835
0.00445963
0.00448089
0.00450215
0.0045234
0.00454464
0.00456587
0.0045871
0.00460831
0.00462952
0.00465072
0.00467191
0.0046931
0.00471427
0.00473544
0.0047566
0.00477775
0.00479889
0.00482002
0.00484115
0.00486226
0.00488337
0.00490446
0.00492555
0.00494663
0.0049677
0.00498876
0.00500981
0.00503085
0.00505189
0.00507291
0.00509392
0.00511493
0.00513592
0.00515691
0.00517788
0.00519884
0.0052198
0.00524074
0.00526168
0.0052826
0.00530352
0.00532442
0.00534531
0.00536619
0.00538707
0.00540793
0.00542878
0.00544962
0.00547045
0.00549127
0.00551207
0.00553287
0.00555365
0.00557443
0.00559519
0.00561594
0.00563668
0.00565741
0.00567812
0.00569883
0.00571952
0.0057402
0.00576087
0.00578152
0.00580217
0.0058228
0.00584342
0.00586403
0.00588462
0.0059052
0.00592577
0.00594633
0.00596687
0.0059874
0.00600792
0.00602842
0.00604892
0.00606939
0.00608986
0.00611031
0.00613074
0.00615117
0.00617158
0.00619197
0.00621235
0.00623272
0.00625307
0.00627341
0.00629373
0.00631404
0.00633433
0.00635461
0.00637488
0.00639513
0.00641536
0.00643558
0.00645578
0.00647597
0.00649614
0.0065163
0.00653644
0.00655656
0.00657667
0.00659676
0.00661684
0.0066369
0.00665694
0.00667696
0.00669697
0.00671696
0.00673694
0.0067569
0.00677684
0.00679676
0.00681666
0.00683655
0.00685642
0.00687627
0.0068961
0.00691591
0.00693571
0.00695548
0.00697524
0.00699498
0.0070147
0.0070344
0.00705408
0.00707374
0.00709338
0.007113
0.0071326
0.00715218
0.00717174
0.00719128
0.00721079
0.00723029
0.00724977
0.00726922
0.00728865
0.00730806
0.00732745
0.00734682
0.00736617
0.00738549
0.00740479
0.00742406
0.00744332
0.00746255
0.00748175
0.00750094
0.00752009
0.00753923
0.00755834
0.00757743
0.00759649
0.00761552
0.00763453
0.00765352
0.00767248
0.00769141
0.00771032
0.0077292
0.00774805
0.00776688
0.00778568
0.00780445
0.0078232
0.00784191
0.0078606
0.00787926
0.00789789
0.0079165
0.00793507
0.00795361
0.00797213
0.00799061
0.00800906
0.00802748
0.00804587
0.00806423
0.00808256
0.00810086
0.00811912
0.00813735
0.00815555
0.00817371
0.00819184
0.00820994
0.008228
0.00824602
0.00826401
0.00828194
0.00830129
0.00823083
0.00625829
6.25893e-06
-0.00625126
-0.00823006
-0.00830128
-0.00828191
-0.00826399
-0.008246
-0.00822797
-0.00820991
-0.00819182
-0.00817369
-0.00815552
-0.00813733
-0.00811909
-0.00810083
-0.00808254
-0.00806421
-0.00804585
-0.00802746
-0.00800904
-0.00799059
-0.0079721
-0.00795359
-0.00793505
-0.00791647
-0.00789787
-0.00787924
-0.00786058
-0.00784189
-0.00782317
-0.00780443
-0.00778566
-0.00776686
-0.00774803
-0.00772917
-0.00771029
-0.00769139
-0.00767245
-0.00765349
-0.00763451
-0.0076155
-0.00759646
-0.0075774
-0.00755832
-0.00753921
-0.00752007
-0.00750091
-0.00748173
-0.00746252
-0.00744329
-0.00742404
-0.00740476
-0.00738546
-0.00736614
-0.0073468
-0.00732743
-0.00730804
-0.00728863
-0.0072692
-0.00724974
-0.00723027
-0.00721077
-0.00719125
-0.00717171
-0.00715215
-0.00713257
-0.00711297
-0.00709335
-0.00707371
-0.00705405
-0.00703437
-0.00701467
-0.00699496
-0.00697522
-0.00695546
-0.00693568
-0.00691589
-0.00689608
-0.00687624
-0.00685639
-0.00683653
-0.00681664
-0.00679674
-0.00677681
-0.00675687
-0.00673692
-0.00671694
-0.00669695
-0.00667694
-0.00665692
-0.00663688
-0.00661682
-0.00659674
-0.00657665
-0.00655654
-0.00653642
-0.00651628
-0.00649612
-0.00647595
-0.00645576
-0.00643556
-0.00641534
-0.00639511
-0.00637486
-0.00635459
-0.00633431
-0.00631402
-0.00629371
-0.00627339
-0.00625305
-0.0062327
-0.00621233
-0.00619195
-0.00617156
-0.00615115
-0.00613072
-0.00611029
-0.00608984
-0.00606937
-0.0060489
-0.00602841
-0.0060079
-0.00598738
-0.00596685
-0.00594631
-0.00592575
-0.00590519
-0.0058846
-0.00586401
-0.0058434
-0.00582278
-0.00580215
-0.00578151
-0.00576085
-0.00574018
-0.0057195
-0.00569881
-0.00567811
-0.00565739
-0.00563666
-0.00561592
-0.00559517
-0.00557441
-0.00555364
-0.00553285
-0.00551206
-0.00549125
-0.00547043
-0.0054496
-0.00542876
-0.00540791
-0.00538705
-0.00536618
-0.0053453
-0.0053244
-0.0053035
-0.00528259
-0.00526166
-0.00524073
-0.00521978
-0.00519883
-0.00517786
-0.00515689
-0.00513591
-0.00511491
-0.00509391
-0.0050729
-0.00505187
-0.00503084
-0.0050098
-0.00498875
-0.00496769
-0.00494662
-0.00492554
-0.00490445
-0.00488335
-0.00486225
-0.00484113
-0.00482001
-0.00479888
-0.00477774
-0.00475659
-0.00473543
-0.00471426
-0.00469309
-0.0046719
-0.00465071
-0.00462951
-0.0046083
-0.00458708
-0.00456586
-0.00454463
-0.00452339
-0.00450214
-0.00448088
-0.00445961
-0.00443834
-0.00441706
-0.00439577
-0.00437448
-0.00435318
-0.00433186
-0.00431055
-0.00428922
-0.00426789
-0.00424655
-0.0042252
-0.00420385
-0.00418249
-0.00416112
-0.00413974
-0.00411836
-0.00409697
-0.00407557
-0.00405417
-0.00403276
-0.00401134
-0.00398992
-0.00396849
-0.00394705
-0.00392561
-0.00390416
-0.0038827
-0.00386124
-0.00383977
-0.0038183
-0.00379682
-0.00377533
-0.00375384
-0.00373234
-0.00371083
-0.00368932
-0.0036678
-0.00364628
-0.00362475
-0.00360321
-0.00358167
-0.00356013
-0.00353858
-0.00351702
-0.00349545
-0.00347388
-0.00345231
-0.00343073
-0.00340914
-0.00338755
-0.00336596
-0.00334436
-0.00332275
-0.00330114
-0.00327952
-0.0032579
-0.00323627
-0.00321464
-0.003193
-0.00317136
-0.00314971
-0.00312806
-0.00310641
-0.00308474
-0.00306308
-0.00304141
-0.00301973
-0.00299805
-0.00297637
-0.00295468
-0.00293298
-0.00291129
-0.00288958
-0.00286788
-0.00284616
-0.00282445
-0.00280273
-0.00278101
-0.00275928
-0.00273754
-0.00271581
-0.00269407
-0.00267232
-0.00265057
-0.00262882
-0.00260706
-0.0025853
-0.00256354
-0.00254177
-0.00252
-0.00249822
-0.00247645
-0.00245466
-0.00243288
-0.00241109
-0.00238929
-0.00236749
-0.00234569
-0.00232389
-0.00230208
-0.00228027
-0.00225846
-0.00223664
-0.00221482
-0.002193
-0.00217117
-0.00214934
-0.0021275
-0.00210567
-0.00208383
-0.00206199
-0.00204014
-0.00201829
-0.00199644
-0.00197459
-0.00195273
-0.00193087
-0.00190901
-0.00188714
-0.00186527
-0.0018434
-0.00182153
-0.00179965
-0.00177777
-0.00175589
-0.00173401
-0.00171212
-0.00169023
-0.00166834
-0.00164645
-0.00162455
-0.00160265
-0.00158075
-0.00155885
-0.00153694
-0.00151504
-0.00149313
-0.00147122
-0.0014493
-0.00142739
-0.00140547
-0.00138355
-0.00136163
-0.00133971
-0.00131778
-0.00129585
-0.00127393
-0.00125199
-0.00123006
-0.00120813
-0.00118619
-0.00116425
-0.00114232
-0.00112037
-0.00109843
-0.00107649
-0.00105454
-0.0010326
-0.00101065
-0.000988698
-0.000966747
-0.000944794
-0.000922841
-0.000900886
-0.000878929
-0.000856972
-0.000835013
-0.000813053
-0.000791092
-0.00076913
-0.000747167
-0.000725202
-0.000703237
-0.000681271
-0.000659304
-0.000637336
-0.000615367
-0.000593397
-0.000571426
-0.000549455
-0.000527482
-0.00050551
-0.000483536
-0.000461562
-0.000439587
-0.000417611
-0.000395635
-0.000373658
-0.000351681
-0.000329703
-0.000307725
-0.000285747
-0.000263768
-0.000241788
-0.000219808
-0.000197829
-0.000175848
-0.000153868
-0.000131887
-0.000109906
-8.79251e-05
-6.59439e-05
-4.39627e-05
-2.19814e-05
)
;

boundaryField
{
    left
    {
        type            calculated;
        value           uniform 0;
    }
    right
    {
        type            calculated;
        value           uniform 0;
    }
    frontBackUpDown
    {
        type            empty;
    }
}


// ************************************************************************* //
