/*--------------------------------*- C++ -*----------------------------------*\
| =========                 |                                                 |
| \\      /  F ield         | OpenFOAM: The Open Source CFD Toolbox           |
|  \\    /   O peration     | Version:  2412                                  |
|   \\  /    A nd           | Website:  www.openfoam.com                      |
|    \\/     M anipulation  |                                                 |
\*---------------------------------------------------------------------------*/
FoamFile
{
    version     2.0;
    format      ascii;
    arch        "LSB;label=32;scalar=64";
    class       volVectorField;
    location    "0.82";
    object      U;
}
// * * * * * * * * * * * * * * * * * * * * * * * * * * * * * * * * * * * * * //

dimensions      [0 1 -1 0 0 0 0];

internalField   nonuniform List<vector> 
800
(
(0.00109906 0 0)
(0.00329719 0 0)
(0.00549532 0 0)
(0.00769344 0 0)
(0.00989156 0 0)
(0.0120897 0 0)
(0.0142877 0 0)
(0.0164858 0 0)
(0.0186838 0 0)
(0.0208819 0 0)
(0.0230798 0 0)
(0.0252778 0 0)
(0.0274757 0 0)
(0.0296736 0 0)
(0.0318714 0 0)
(0.0340692 0 0)
(0.036267 0 0)
(0.0384647 0 0)
(0.0406623 0 0)
(0.0428599 0 0)
(0.0450574 0 0)
(0.0472549 0 0)
(0.0494523 0 0)
(0.0516496 0 0)
(0.0538469 0 0)
(0.0560441 0 0)
(0.0582412 0 0)
(0.0604382 0 0)
(0.0626352 0 0)
(0.064832 0 0)
(0.0670288 0 0)
(0.0692255 0 0)
(0.071422 0 0)
(0.0736185 0 0)
(0.0758149 0 0)
(0.0780112 0 0)
(0.0802073 0 0)
(0.0824034 0 0)
(0.0845993 0 0)
(0.0867951 0 0)
(0.0889908 0 0)
(0.0911864 0 0)
(0.0933818 0 0)
(0.0955772 0 0)
(0.0977723 0 0)
(0.0999674 0 0)
(0.102162 0 0)
(0.104357 0 0)
(0.106552 0 0)
(0.108746 0 0)
(0.11094 0 0)
(0.113135 0 0)
(0.115329 0 0)
(0.117522 0 0)
(0.119716 0 0)
(0.12191 0 0)
(0.124103 0 0)
(0.126296 0 0)
(0.128489 0 0)
(0.130682 0 0)
(0.132875 0 0)
(0.135067 0 0)
(0.137259 0 0)
(0.139451 0 0)
(0.141643 0 0)
(0.143835 0 0)
(0.146026 0 0)
(0.148217 0 0)
(0.150409 0 0)
(0.152599 0 0)
(0.15479 0 0)
(0.15698 0 0)
(0.159171 0 0)
(0.16136 0 0)
(0.16355 0 0)
(0.16574 0 0)
(0.167929 0 0)
(0.170118 0 0)
(0.172307 0 0)
(0.174495 0 0)
(0.176683 0 0)
(0.178871 0 0)
(0.181059 0 0)
(0.183247 0 0)
(0.185434 0 0)
(0.187621 0 0)
(0.189808 0 0)
(0.191994 0 0)
(0.19418 0 0)
(0.196366 0 0)
(0.198552 0 0)
(0.200737 0 0)
(0.202922 0 0)
(0.205107 0 0)
(0.207291 0 0)
(0.209475 0 0)
(0.211659 0 0)
(0.213842 0 0)
(0.216026 0 0)
(0.218209 0 0)
(0.220391 0 0)
(0.222573 0 0)
(0.224755 0 0)
(0.226937 0 0)
(0.229118 0 0)
(0.231299 0 0)
(0.23348 0 0)
(0.23566 0 0)
(0.23784 0 0)
(0.240019 0 0)
(0.242199 0 0)
(0.244377 0 0)
(0.246556 0 0)
(0.248734 0 0)
(0.250912 0 0)
(0.253089 0 0)
(0.255266 0 0)
(0.257443 0 0)
(0.259619 0 0)
(0.261795 0 0)
(0.26397 0 0)
(0.266145 0 0)
(0.26832 0 0)
(0.270494 0 0)
(0.272668 0 0)
(0.274842 0 0)
(0.277015 0 0)
(0.279187 0 0)
(0.28136 0 0)
(0.283531 0 0)
(0.285703 0 0)
(0.287874 0 0)
(0.290044 0 0)
(0.292214 0 0)
(0.294384 0 0)
(0.296553 0 0)
(0.298722 0 0)
(0.30089 0 0)
(0.303058 0 0)
(0.305225 0 0)
(0.307392 0 0)
(0.309558 0 0)
(0.311724 0 0)
(0.31389 0 0)
(0.316054 0 0)
(0.318219 0 0)
(0.320383 0 0)
(0.322546 0 0)
(0.324709 0 0)
(0.326872 0 0)
(0.329034 0 0)
(0.331195 0 0)
(0.333356 0 0)
(0.335517 0 0)
(0.337676 0 0)
(0.339836 0 0)
(0.341995 0 0)
(0.344153 0 0)
(0.346311 0 0)
(0.348468 0 0)
(0.350624 0 0)
(0.35278 0 0)
(0.354936 0 0)
(0.357091 0 0)
(0.359245 0 0)
(0.361399 0 0)
(0.363552 0 0)
(0.365705 0 0)
(0.367857 0 0)
(0.370009 0 0)
(0.372159 0 0)
(0.37431 0 0)
(0.376459 0 0)
(0.378608 0 0)
(0.380757 0 0)
(0.382905 0 0)
(0.385052 0 0)
(0.387198 0 0)
(0.389344 0 0)
(0.39149 0 0)
(0.393634 0 0)
(0.395778 0 0)
(0.397922 0 0)
(0.400064 0 0)
(0.402206 0 0)
(0.404348 0 0)
(0.406488 0 0)
(0.408628 0 0)
(0.410768 0 0)
(0.412906 0 0)
(0.415044 0 0)
(0.417181 0 0)
(0.419318 0 0)
(0.421454 0 0)
(0.423589 0 0)
(0.425723 0 0)
(0.427857 0 0)
(0.42999 0 0)
(0.432122 0 0)
(0.434253 0 0)
(0.436384 0 0)
(0.438514 0 0)
(0.440643 0 0)
(0.442771 0 0)
(0.444899 0 0)
(0.447026 0 0)
(0.449152 0 0)
(0.451277 0 0)
(0.453402 0 0)
(0.455526 0 0)
(0.457649 0 0)
(0.459771 0 0)
(0.461892 0 0)
(0.464012 0 0)
(0.466132 0 0)
(0.468251 0 0)
(0.470369 0 0)
(0.472486 0 0)
(0.474602 0 0)
(0.476718 0 0)
(0.478832 0 0)
(0.480946 0 0)
(0.483059 0 0)
(0.485171 0 0)
(0.487282 0 0)
(0.489392 0 0)
(0.491501 0 0)
(0.493609 0 0)
(0.495717 0 0)
(0.497823 0 0)
(0.499929 0 0)
(0.502034 0 0)
(0.504137 0 0)
(0.50624 0 0)
(0.508342 0 0)
(0.510443 0 0)
(0.512543 0 0)
(0.514642 0 0)
(0.516739 0 0)
(0.518836 0 0)
(0.520932 0 0)
(0.523027 0 0)
(0.525121 0 0)
(0.527214 0 0)
(0.529306 0 0)
(0.531397 0 0)
(0.533487 0 0)
(0.535576 0 0)
(0.537663 0 0)
(0.53975 0 0)
(0.541836 0 0)
(0.54392 0 0)
(0.546004 0 0)
(0.548086 0 0)
(0.550167 0 0)
(0.552247 0 0)
(0.554326 0 0)
(0.556404 0 0)
(0.558481 0 0)
(0.560557 0 0)
(0.562631 0 0)
(0.564705 0 0)
(0.566777 0 0)
(0.568848 0 0)
(0.570918 0 0)
(0.572986 0 0)
(0.575054 0 0)
(0.57712 0 0)
(0.579185 0 0)
(0.581249 0 0)
(0.583311 0 0)
(0.585373 0 0)
(0.587433 0 0)
(0.589492 0 0)
(0.591549 0 0)
(0.593605 0 0)
(0.59566 0 0)
(0.597714 0 0)
(0.599766 0 0)
(0.601818 0 0)
(0.603867 0 0)
(0.605916 0 0)
(0.607963 0 0)
(0.610009 0 0)
(0.612053 0 0)
(0.614096 0 0)
(0.616137 0 0)
(0.618178 0 0)
(0.620216 0 0)
(0.622254 0 0)
(0.62429 0 0)
(0.626324 0 0)
(0.628357 0 0)
(0.630389 0 0)
(0.632419 0 0)
(0.634448 0 0)
(0.636475 0 0)
(0.638501 0 0)
(0.640525 0 0)
(0.642547 0 0)
(0.644568 0 0)
(0.646588 0 0)
(0.648606 0 0)
(0.650622 0 0)
(0.652637 0 0)
(0.65465 0 0)
(0.656662 0 0)
(0.658672 0 0)
(0.66068 0 0)
(0.662687 0 0)
(0.664692 0 0)
(0.666696 0 0)
(0.668697 0 0)
(0.670697 0 0)
(0.672696 0 0)
(0.674692 0 0)
(0.676687 0 0)
(0.67868 0 0)
(0.680671 0 0)
(0.682661 0 0)
(0.684649 0 0)
(0.686635 0 0)
(0.688619 0 0)
(0.690601 0 0)
(0.692581 0 0)
(0.69456 0 0)
(0.696537 0 0)
(0.698511 0 0)
(0.700484 0 0)
(0.702455 0 0)
(0.704424 0 0)
(0.706391 0 0)
(0.708356 0 0)
(0.710319 0 0)
(0.71228 0 0)
(0.714239 0 0)
(0.716196 0 0)
(0.718151 0 0)
(0.720104 0 0)
(0.722055 0 0)
(0.724003 0 0)
(0.72595 0 0)
(0.727894 0 0)
(0.729836 0 0)
(0.731776 0 0)
(0.733714 0 0)
(0.73565 0 0)
(0.737583 0 0)
(0.739514 0 0)
(0.741443 0 0)
(0.74337 0 0)
(0.745294 0 0)
(0.747216 0 0)
(0.749135 0 0)
(0.751052 0 0)
(0.752967 0 0)
(0.754879 0 0)
(0.756789 0 0)
(0.758696 0 0)
(0.760601 0 0)
(0.762503 0 0)
(0.764403 0 0)
(0.7663 0 0)
(0.768195 0 0)
(0.770087 0 0)
(0.771977 0 0)
(0.773863 0 0)
(0.775747 0 0)
(0.777629 0 0)
(0.779507 0 0)
(0.781383 0 0)
(0.783256 0 0)
(0.785127 0 0)
(0.786994 0 0)
(0.788859 0 0)
(0.79072 0 0)
(0.792579 0 0)
(0.794435 0 0)
(0.796288 0 0)
(0.798138 0 0)
(0.799984 0 0)
(0.801828 0 0)
(0.803669 0 0)
(0.805506 0 0)
(0.807341 0 0)
(0.809172 0 0)
(0.811 0 0)
(0.812824 0 0)
(0.814646 0 0)
(0.816464 0 0)
(0.818278 0 0)
(0.82009 0 0)
(0.821897 0 0)
(0.823702 0 0)
(0.825503 0 0)
(0.8273 0 0)
(0.829088 0 0)
(0.831171 0 0)
(0.814994 0 0)
(0.436663 0 0)
(-0.435411 0 0)
(-0.814842 0 0)
(-0.831171 0 0)
(-0.829085 0 0)
(-0.827298 0 0)
(-0.8255 0 0)
(-0.823699 0 0)
(-0.821895 0 0)
(-0.820087 0 0)
(-0.818276 0 0)
(-0.816461 0 0)
(-0.814643 0 0)
(-0.812822 0 0)
(-0.810997 0 0)
(-0.809169 0 0)
(-0.807338 0 0)
(-0.805504 0 0)
(-0.803666 0 0)
(-0.801826 0 0)
(-0.799982 0 0)
(-0.798135 0 0)
(-0.796285 0 0)
(-0.794432 0 0)
(-0.792577 0 0)
(-0.790718 0 0)
(-0.788856 0 0)
(-0.786992 0 0)
(-0.785124 0 0)
(-0.783254 0 0)
(-0.781381 0 0)
(-0.779505 0 0)
(-0.777626 0 0)
(-0.775745 0 0)
(-0.773861 0 0)
(-0.771974 0 0)
(-0.770085 0 0)
(-0.768193 0 0)
(-0.766298 0 0)
(-0.764401 0 0)
(-0.762501 0 0)
(-0.760599 0 0)
(-0.758694 0 0)
(-0.756786 0 0)
(-0.754877 0 0)
(-0.752964 0 0)
(-0.75105 0 0)
(-0.749133 0 0)
(-0.747213 0 0)
(-0.745291 0 0)
(-0.743367 0 0)
(-0.741441 0 0)
(-0.739512 0 0)
(-0.737581 0 0)
(-0.735647 0 0)
(-0.733712 0 0)
(-0.731774 0 0)
(-0.729834 0 0)
(-0.727892 0 0)
(-0.725948 0 0)
(-0.724001 0 0)
(-0.722052 0 0)
(-0.720102 0 0)
(-0.718149 0 0)
(-0.716194 0 0)
(-0.714237 0 0)
(-0.712278 0 0)
(-0.710317 0 0)
(-0.708354 0 0)
(-0.706389 0 0)
(-0.704422 0 0)
(-0.702453 0 0)
(-0.700482 0 0)
(-0.698509 0 0)
(-0.696534 0 0)
(-0.694558 0 0)
(-0.692579 0 0)
(-0.690599 0 0)
(-0.688616 0 0)
(-0.686632 0 0)
(-0.684646 0 0)
(-0.682659 0 0)
(-0.680669 0 0)
(-0.678678 0 0)
(-0.676685 0 0)
(-0.67469 0 0)
(-0.672693 0 0)
(-0.670695 0 0)
(-0.668695 0 0)
(-0.666693 0 0)
(-0.66469 0 0)
(-0.662685 0 0)
(-0.660678 0 0)
(-0.65867 0 0)
(-0.65666 0 0)
(-0.654648 0 0)
(-0.652635 0 0)
(-0.65062 0 0)
(-0.648604 0 0)
(-0.646586 0 0)
(-0.644566 0 0)
(-0.642545 0 0)
(-0.640523 0 0)
(-0.638499 0 0)
(-0.636473 0 0)
(-0.634446 0 0)
(-0.632417 0 0)
(-0.630387 0 0)
(-0.628355 0 0)
(-0.626322 0 0)
(-0.624288 0 0)
(-0.622252 0 0)
(-0.620214 0 0)
(-0.618176 0 0)
(-0.616136 0 0)
(-0.614094 0 0)
(-0.612051 0 0)
(-0.610007 0 0)
(-0.607961 0 0)
(-0.605914 0 0)
(-0.603865 0 0)
(-0.601816 0 0)
(-0.599765 0 0)
(-0.597712 0 0)
(-0.595659 0 0)
(-0.593604 0 0)
(-0.591547 0 0)
(-0.58949 0 0)
(-0.587431 0 0)
(-0.585371 0 0)
(-0.58331 0 0)
(-0.581247 0 0)
(-0.579183 0 0)
(-0.577118 0 0)
(-0.575052 0 0)
(-0.572985 0 0)
(-0.570916 0 0)
(-0.568846 0 0)
(-0.566775 0 0)
(-0.564703 0 0)
(-0.56263 0 0)
(-0.560555 0 0)
(-0.558479 0 0)
(-0.556403 0 0)
(-0.554325 0 0)
(-0.552246 0 0)
(-0.550166 0 0)
(-0.548084 0 0)
(-0.546002 0 0)
(-0.543919 0 0)
(-0.541834 0 0)
(-0.539748 0 0)
(-0.537662 0 0)
(-0.535574 0 0)
(-0.533485 0 0)
(-0.531395 0 0)
(-0.529305 0 0)
(-0.527213 0 0)
(-0.52512 0 0)
(-0.523026 0 0)
(-0.520931 0 0)
(-0.518835 0 0)
(-0.516738 0 0)
(-0.51464 0 0)
(-0.512541 0 0)
(-0.510441 0 0)
(-0.50834 0 0)
(-0.506239 0 0)
(-0.504136 0 0)
(-0.502032 0 0)
(-0.499928 0 0)
(-0.497822 0 0)
(-0.495716 0 0)
(-0.493608 0 0)
(-0.4915 0 0)
(-0.489391 0 0)
(-0.48728 0 0)
(-0.485169 0 0)
(-0.483057 0 0)
(-0.480945 0 0)
(-0.478831 0 0)
(-0.476716 0 0)
(-0.474601 0 0)
(-0.472485 0 0)
(-0.470368 0 0)
(-0.46825 0 0)
(-0.466131 0 0)
(-0.464011 0 0)
(-0.461891 0 0)
(-0.459769 0 0)
(-0.457647 0 0)
(-0.455524 0 0)
(-0.453401 0 0)
(-0.451276 0 0)
(-0.449151 0 0)
(-0.447025 0 0)
(-0.444898 0 0)
(-0.44277 0 0)
(-0.440642 0 0)
(-0.438513 0 0)
(-0.436383 0 0)
(-0.434252 0 0)
(-0.432121 0 0)
(-0.429989 0 0)
(-0.427856 0 0)
(-0.425722 0 0)
(-0.423588 0 0)
(-0.421453 0 0)
(-0.419317 0 0)
(-0.41718 0 0)
(-0.415043 0 0)
(-0.412905 0 0)
(-0.410767 0 0)
(-0.408627 0 0)
(-0.406487 0 0)
(-0.404347 0 0)
(-0.402205 0 0)
(-0.400063 0 0)
(-0.397921 0 0)
(-0.395777 0 0)
(-0.393633 0 0)
(-0.391489 0 0)
(-0.389343 0 0)
(-0.387197 0 0)
(-0.385051 0 0)
(-0.382904 0 0)
(-0.380756 0 0)
(-0.378608 0 0)
(-0.376459 0 0)
(-0.374309 0 0)
(-0.372159 0 0)
(-0.370008 0 0)
(-0.367856 0 0)
(-0.365704 0 0)
(-0.363552 0 0)
(-0.361398 0 0)
(-0.359245 0 0)
(-0.35709 0 0)
(-0.354935 0 0)
(-0.35278 0 0)
(-0.350624 0 0)
(-0.348467 0 0)
(-0.34631 0 0)
(-0.344152 0 0)
(-0.341994 0 0)
(-0.339835 0 0)
(-0.337676 0 0)
(-0.335516 0 0)
(-0.333355 0 0)
(-0.331195 0 0)
(-0.329033 0 0)
(-0.326871 0 0)
(-0.324709 0 0)
(-0.322546 0 0)
(-0.320382 0 0)
(-0.318218 0 0)
(-0.316054 0 0)
(-0.313889 0 0)
(-0.311724 0 0)
(-0.309558 0 0)
(-0.307391 0 0)
(-0.305224 0 0)
(-0.303057 0 0)
(-0.300889 0 0)
(-0.298721 0 0)
(-0.296552 0 0)
(-0.294383 0 0)
(-0.292214 0 0)
(-0.290044 0 0)
(-0.287873 0 0)
(-0.285702 0 0)
(-0.283531 0 0)
(-0.281359 0 0)
(-0.279187 0 0)
(-0.277014 0 0)
(-0.274841 0 0)
(-0.272668 0 0)
(-0.270494 0 0)
(-0.26832 0 0)
(-0.266145 0 0)
(-0.26397 0 0)
(-0.261794 0 0)
(-0.259619 0 0)
(-0.257442 0 0)
(-0.255266 0 0)
(-0.253089 0 0)
(-0.250911 0 0)
(-0.248734 0 0)
(-0.246555 0 0)
(-0.244377 0 0)
(-0.242198 0 0)
(-0.240019 0 0)
(-0.237839 0 0)
(-0.23566 0 0)
(-0.233479 0 0)
(-0.231299 0 0)
(-0.229118 0 0)
(-0.226937 0 0)
(-0.224755 0 0)
(-0.222573 0 0)
(-0.220391 0 0)
(-0.218208 0 0)
(-0.216025 0 0)
(-0.213842 0 0)
(-0.211659 0 0)
(-0.209475 0 0)
(-0.207291 0 0)
(-0.205106 0 0)
(-0.202922 0 0)
(-0.200737 0 0)
(-0.198551 0 0)
(-0.196366 0 0)
(-0.19418 0 0)
(-0.191994 0 0)
(-0.189807 0 0)
(-0.187621 0 0)
(-0.185434 0 0)
(-0.183246 0 0)
(-0.181059 0 0)
(-0.178871 0 0)
(-0.176683 0 0)
(-0.174495 0 0)
(-0.172306 0 0)
(-0.170118 0 0)
(-0.167929 0 0)
(-0.165739 0 0)
(-0.16355 0 0)
(-0.16136 0 0)
(-0.15917 0 0)
(-0.15698 0 0)
(-0.15479 0 0)
(-0.152599 0 0)
(-0.150408 0 0)
(-0.148217 0 0)
(-0.146026 0 0)
(-0.143835 0 0)
(-0.141643 0 0)
(-0.139451 0 0)
(-0.137259 0 0)
(-0.135067 0 0)
(-0.132874 0 0)
(-0.130682 0 0)
(-0.128489 0 0)
(-0.126296 0 0)
(-0.124103 0 0)
(-0.12191 0 0)
(-0.119716 0 0)
(-0.117522 0 0)
(-0.115329 0 0)
(-0.113135 0 0)
(-0.11094 0 0)
(-0.108746 0 0)
(-0.106552 0 0)
(-0.104357 0 0)
(-0.102162 0 0)
(-0.0999673 0 0)
(-0.0977723 0 0)
(-0.0955771 0 0)
(-0.0933818 0 0)
(-0.0911863 0 0)
(-0.0889908 0 0)
(-0.0867951 0 0)
(-0.0845993 0 0)
(-0.0824033 0 0)
(-0.0802073 0 0)
(-0.0780111 0 0)
(-0.0758149 0 0)
(-0.0736185 0 0)
(-0.071422 0 0)
(-0.0692254 0 0)
(-0.0670288 0 0)
(-0.064832 0 0)
(-0.0626351 0 0)
(-0.0604382 0 0)
(-0.0582412 0 0)
(-0.0560441 0 0)
(-0.0538469 0 0)
(-0.0516496 0 0)
(-0.0494523 0 0)
(-0.0472549 0 0)
(-0.0450574 0 0)
(-0.0428599 0 0)
(-0.0406623 0 0)
(-0.0384647 0 0)
(-0.036267 0 0)
(-0.0340692 0 0)
(-0.0318714 0 0)
(-0.0296736 0 0)
(-0.0274757 0 0)
(-0.0252778 0 0)
(-0.0230798 0 0)
(-0.0208819 0 0)
(-0.0186838 0 0)
(-0.0164858 0 0)
(-0.0142877 0 0)
(-0.0120897 0 0)
(-0.00989157 0 0)
(-0.00769345 0 0)
(-0.00549533 0 0)
(-0.0032972 0 0)
(-0.00109907 0 0)
)
;

boundaryField
{
    left
    {
        type            fixedValue;
        value           uniform (0 0 0);
    }
    right
    {
        type            fixedValue;
        value           uniform (0 0 0);
    }
    frontBackUpDown
    {
        type            empty;
    }
}


// ************************************************************************* //
