/*--------------------------------*- C++ -*----------------------------------*\
| =========                 |                                                 |
| \\      /  F ield         | OpenFOAM: The Open Source CFD Toolbox           |
|  \\    /   O peration     | Version:  2412                                  |
|   \\  /    A nd           | Website:  www.openfoam.com                      |
|    \\/     M anipulation  |                                                 |
\*---------------------------------------------------------------------------*/
FoamFile
{
    version     2.0;
    format      ascii;
    arch        "LSB;label=32;scalar=64";
    class       volVectorField;
    location    "0.81";
    object      U;
}
// * * * * * * * * * * * * * * * * * * * * * * * * * * * * * * * * * * * * * //

dimensions      [0 1 -1 0 0 0 0];

internalField   nonuniform List<vector> 
800
(
(0.00110879 0 0)
(0.00332638 0 0)
(0.00554396 0 0)
(0.00776154 0 0)
(0.00997911 0 0)
(0.0121967 0 0)
(0.0144142 0 0)
(0.0166317 0 0)
(0.0188492 0 0)
(0.0210667 0 0)
(0.0232841 0 0)
(0.0255015 0 0)
(0.0277189 0 0)
(0.0299362 0 0)
(0.0321535 0 0)
(0.0343707 0 0)
(0.0365879 0 0)
(0.0388051 0 0)
(0.0410221 0 0)
(0.0432392 0 0)
(0.0454561 0 0)
(0.047673 0 0)
(0.0498899 0 0)
(0.0521066 0 0)
(0.0543233 0 0)
(0.0565399 0 0)
(0.0587564 0 0)
(0.0609729 0 0)
(0.0631892 0 0)
(0.0654055 0 0)
(0.0676217 0 0)
(0.0698378 0 0)
(0.0720537 0 0)
(0.0742696 0 0)
(0.0764854 0 0)
(0.0787011 0 0)
(0.0809166 0 0)
(0.083132 0 0)
(0.0853473 0 0)
(0.0875625 0 0)
(0.0897776 0 0)
(0.0919925 0 0)
(0.0942074 0 0)
(0.096422 0 0)
(0.0986366 0 0)
(0.100851 0 0)
(0.103065 0 0)
(0.105279 0 0)
(0.107493 0 0)
(0.109707 0 0)
(0.111921 0 0)
(0.114134 0 0)
(0.116347 0 0)
(0.118561 0 0)
(0.120774 0 0)
(0.122986 0 0)
(0.125199 0 0)
(0.127411 0 0)
(0.129624 0 0)
(0.131836 0 0)
(0.134048 0 0)
(0.136259 0 0)
(0.138471 0 0)
(0.140682 0 0)
(0.142893 0 0)
(0.145104 0 0)
(0.147315 0 0)
(0.149525 0 0)
(0.151735 0 0)
(0.153945 0 0)
(0.156155 0 0)
(0.158365 0 0)
(0.160574 0 0)
(0.162783 0 0)
(0.164992 0 0)
(0.167201 0 0)
(0.169409 0 0)
(0.171617 0 0)
(0.173825 0 0)
(0.176033 0 0)
(0.17824 0 0)
(0.180447 0 0)
(0.182654 0 0)
(0.184861 0 0)
(0.187067 0 0)
(0.189273 0 0)
(0.191479 0 0)
(0.193684 0 0)
(0.195889 0 0)
(0.198094 0 0)
(0.200299 0 0)
(0.202503 0 0)
(0.204707 0 0)
(0.206911 0 0)
(0.209114 0 0)
(0.211317 0 0)
(0.21352 0 0)
(0.215722 0 0)
(0.217925 0 0)
(0.220126 0 0)
(0.222328 0 0)
(0.224529 0 0)
(0.22673 0 0)
(0.22893 0 0)
(0.23113 0 0)
(0.23333 0 0)
(0.235529 0 0)
(0.237728 0 0)
(0.239927 0 0)
(0.242126 0 0)
(0.244323 0 0)
(0.246521 0 0)
(0.248718 0 0)
(0.250915 0 0)
(0.253112 0 0)
(0.255308 0 0)
(0.257503 0 0)
(0.259699 0 0)
(0.261894 0 0)
(0.264088 0 0)
(0.266282 0 0)
(0.268476 0 0)
(0.270669 0 0)
(0.272862 0 0)
(0.275055 0 0)
(0.277247 0 0)
(0.279438 0 0)
(0.281629 0 0)
(0.28382 0 0)
(0.28601 0 0)
(0.2882 0 0)
(0.29039 0 0)
(0.292578 0 0)
(0.294767 0 0)
(0.296955 0 0)
(0.299143 0 0)
(0.30133 0 0)
(0.303516 0 0)
(0.305702 0 0)
(0.307888 0 0)
(0.310073 0 0)
(0.312258 0 0)
(0.314442 0 0)
(0.316626 0 0)
(0.318809 0 0)
(0.320992 0 0)
(0.323174 0 0)
(0.325356 0 0)
(0.327537 0 0)
(0.329717 0 0)
(0.331897 0 0)
(0.334077 0 0)
(0.336256 0 0)
(0.338434 0 0)
(0.340612 0 0)
(0.34279 0 0)
(0.344967 0 0)
(0.347143 0 0)
(0.349319 0 0)
(0.351494 0 0)
(0.353668 0 0)
(0.355842 0 0)
(0.358016 0 0)
(0.360189 0 0)
(0.362361 0 0)
(0.364532 0 0)
(0.366703 0 0)
(0.368874 0 0)
(0.371044 0 0)
(0.373213 0 0)
(0.375381 0 0)
(0.377549 0 0)
(0.379717 0 0)
(0.381883 0 0)
(0.38405 0 0)
(0.386215 0 0)
(0.38838 0 0)
(0.390544 0 0)
(0.392707 0 0)
(0.39487 0 0)
(0.397032 0 0)
(0.399194 0 0)
(0.401354 0 0)
(0.403515 0 0)
(0.405674 0 0)
(0.407833 0 0)
(0.409991 0 0)
(0.412148 0 0)
(0.414304 0 0)
(0.41646 0 0)
(0.418615 0 0)
(0.42077 0 0)
(0.422924 0 0)
(0.425077 0 0)
(0.427229 0 0)
(0.42938 0 0)
(0.431531 0 0)
(0.433681 0 0)
(0.43583 0 0)
(0.437978 0 0)
(0.440126 0 0)
(0.442273 0 0)
(0.444419 0 0)
(0.446564 0 0)
(0.448709 0 0)
(0.450852 0 0)
(0.452995 0 0)
(0.455137 0 0)
(0.457279 0 0)
(0.459419 0 0)
(0.461559 0 0)
(0.463697 0 0)
(0.465835 0 0)
(0.467972 0 0)
(0.470108 0 0)
(0.472244 0 0)
(0.474378 0 0)
(0.476511 0 0)
(0.478644 0 0)
(0.480776 0 0)
(0.482907 0 0)
(0.485037 0 0)
(0.487166 0 0)
(0.489294 0 0)
(0.491421 0 0)
(0.493547 0 0)
(0.495673 0 0)
(0.497797 0 0)
(0.499921 0 0)
(0.502043 0 0)
(0.504165 0 0)
(0.506285 0 0)
(0.508405 0 0)
(0.510523 0 0)
(0.512641 0 0)
(0.514758 0 0)
(0.516873 0 0)
(0.518988 0 0)
(0.521101 0 0)
(0.523214 0 0)
(0.525326 0 0)
(0.527436 0 0)
(0.529545 0 0)
(0.531654 0 0)
(0.533761 0 0)
(0.535867 0 0)
(0.537972 0 0)
(0.540076 0 0)
(0.542179 0 0)
(0.544281 0 0)
(0.546382 0 0)
(0.548482 0 0)
(0.55058 0 0)
(0.552678 0 0)
(0.554774 0 0)
(0.556869 0 0)
(0.558963 0 0)
(0.561055 0 0)
(0.563147 0 0)
(0.565237 0 0)
(0.567327 0 0)
(0.569415 0 0)
(0.571501 0 0)
(0.573587 0 0)
(0.575671 0 0)
(0.577754 0 0)
(0.579836 0 0)
(0.581917 0 0)
(0.583996 0 0)
(0.586074 0 0)
(0.588151 0 0)
(0.590226 0 0)
(0.5923 0 0)
(0.594373 0 0)
(0.596445 0 0)
(0.598515 0 0)
(0.600584 0 0)
(0.602651 0 0)
(0.604717 0 0)
(0.606782 0 0)
(0.608846 0 0)
(0.610907 0 0)
(0.612968 0 0)
(0.615027 0 0)
(0.617085 0 0)
(0.619141 0 0)
(0.621196 0 0)
(0.62325 0 0)
(0.625302 0 0)
(0.627352 0 0)
(0.629401 0 0)
(0.631448 0 0)
(0.633494 0 0)
(0.635539 0 0)
(0.637582 0 0)
(0.639623 0 0)
(0.641663 0 0)
(0.643701 0 0)
(0.645738 0 0)
(0.647773 0 0)
(0.649806 0 0)
(0.651838 0 0)
(0.653868 0 0)
(0.655897 0 0)
(0.657924 0 0)
(0.659949 0 0)
(0.661973 0 0)
(0.663995 0 0)
(0.666015 0 0)
(0.668033 0 0)
(0.67005 0 0)
(0.672065 0 0)
(0.674078 0 0)
(0.676089 0 0)
(0.678099 0 0)
(0.680107 0 0)
(0.682113 0 0)
(0.684117 0 0)
(0.686119 0 0)
(0.68812 0 0)
(0.690118 0 0)
(0.692115 0 0)
(0.69411 0 0)
(0.696103 0 0)
(0.698094 0 0)
(0.700083 0 0)
(0.70207 0 0)
(0.704055 0 0)
(0.706038 0 0)
(0.708019 0 0)
(0.709997 0 0)
(0.711974 0 0)
(0.713949 0 0)
(0.715922 0 0)
(0.717893 0 0)
(0.719861 0 0)
(0.721827 0 0)
(0.723792 0 0)
(0.725754 0 0)
(0.727713 0 0)
(0.729671 0 0)
(0.731626 0 0)
(0.73358 0 0)
(0.73553 0 0)
(0.737479 0 0)
(0.739425 0 0)
(0.741369 0 0)
(0.743311 0 0)
(0.74525 0 0)
(0.747187 0 0)
(0.749121 0 0)
(0.751053 0 0)
(0.752982 0 0)
(0.754909 0 0)
(0.756834 0 0)
(0.758756 0 0)
(0.760675 0 0)
(0.762592 0 0)
(0.764506 0 0)
(0.766418 0 0)
(0.768327 0 0)
(0.770233 0 0)
(0.772137 0 0)
(0.774038 0 0)
(0.775936 0 0)
(0.777831 0 0)
(0.779724 0 0)
(0.781614 0 0)
(0.7835 0 0)
(0.785384 0 0)
(0.787266 0 0)
(0.789144 0 0)
(0.791019 0 0)
(0.792891 0 0)
(0.79476 0 0)
(0.796627 0 0)
(0.79849 0 0)
(0.80035 0 0)
(0.802206 0 0)
(0.80406 0 0)
(0.805911 0 0)
(0.807758 0 0)
(0.809602 0 0)
(0.811442 0 0)
(0.81328 0 0)
(0.815114 0 0)
(0.816944 0 0)
(0.818771 0 0)
(0.820595 0 0)
(0.822415 0 0)
(0.824231 0 0)
(0.826044 0 0)
(0.827853 0 0)
(0.829659 0 0)
(0.831461 0 0)
(0.833259 0 0)
(0.835046 0 0)
(0.837158 0 0)
(0.822713 0 0)
(0.442923 0 0)
(-0.441667 0 0)
(-0.822567 0 0)
(-0.837159 0 0)
(-0.835043 0 0)
(-0.833257 0 0)
(-0.831459 0 0)
(-0.829657 0 0)
(-0.827851 0 0)
(-0.826042 0 0)
(-0.824229 0 0)
(-0.822412 0 0)
(-0.820592 0 0)
(-0.818769 0 0)
(-0.816942 0 0)
(-0.815111 0 0)
(-0.813277 0 0)
(-0.81144 0 0)
(-0.809599 0 0)
(-0.807755 0 0)
(-0.805908 0 0)
(-0.804058 0 0)
(-0.802204 0 0)
(-0.800347 0 0)
(-0.798487 0 0)
(-0.796624 0 0)
(-0.794758 0 0)
(-0.792889 0 0)
(-0.791017 0 0)
(-0.789141 0 0)
(-0.787263 0 0)
(-0.785382 0 0)
(-0.783498 0 0)
(-0.781611 0 0)
(-0.779721 0 0)
(-0.777829 0 0)
(-0.775933 0 0)
(-0.774035 0 0)
(-0.772134 0 0)
(-0.770231 0 0)
(-0.768324 0 0)
(-0.766415 0 0)
(-0.764504 0 0)
(-0.76259 0 0)
(-0.760673 0 0)
(-0.758753 0 0)
(-0.756831 0 0)
(-0.754907 0 0)
(-0.75298 0 0)
(-0.751051 0 0)
(-0.749119 0 0)
(-0.747184 0 0)
(-0.745247 0 0)
(-0.743308 0 0)
(-0.741367 0 0)
(-0.739423 0 0)
(-0.737477 0 0)
(-0.735528 0 0)
(-0.733577 0 0)
(-0.731624 0 0)
(-0.729669 0 0)
(-0.727711 0 0)
(-0.725751 0 0)
(-0.723789 0 0)
(-0.721825 0 0)
(-0.719859 0 0)
(-0.71789 0 0)
(-0.71592 0 0)
(-0.713947 0 0)
(-0.711972 0 0)
(-0.709995 0 0)
(-0.708016 0 0)
(-0.706035 0 0)
(-0.704052 0 0)
(-0.702067 0 0)
(-0.70008 0 0)
(-0.698091 0 0)
(-0.6961 0 0)
(-0.694108 0 0)
(-0.692113 0 0)
(-0.690116 0 0)
(-0.688118 0 0)
(-0.686117 0 0)
(-0.684115 0 0)
(-0.682111 0 0)
(-0.680105 0 0)
(-0.678097 0 0)
(-0.676087 0 0)
(-0.674076 0 0)
(-0.672063 0 0)
(-0.670048 0 0)
(-0.668031 0 0)
(-0.666013 0 0)
(-0.663992 0 0)
(-0.661971 0 0)
(-0.659947 0 0)
(-0.657922 0 0)
(-0.655895 0 0)
(-0.653866 0 0)
(-0.651836 0 0)
(-0.649804 0 0)
(-0.647771 0 0)
(-0.645736 0 0)
(-0.643699 0 0)
(-0.641661 0 0)
(-0.639621 0 0)
(-0.63758 0 0)
(-0.635537 0 0)
(-0.633492 0 0)
(-0.631446 0 0)
(-0.629399 0 0)
(-0.62735 0 0)
(-0.6253 0 0)
(-0.623248 0 0)
(-0.621194 0 0)
(-0.619139 0 0)
(-0.617083 0 0)
(-0.615025 0 0)
(-0.612966 0 0)
(-0.610906 0 0)
(-0.608844 0 0)
(-0.60678 0 0)
(-0.604716 0 0)
(-0.602649 0 0)
(-0.600582 0 0)
(-0.598513 0 0)
(-0.596443 0 0)
(-0.594371 0 0)
(-0.592299 0 0)
(-0.590224 0 0)
(-0.588149 0 0)
(-0.586072 0 0)
(-0.583994 0 0)
(-0.581915 0 0)
(-0.579834 0 0)
(-0.577753 0 0)
(-0.575669 0 0)
(-0.573585 0 0)
(-0.5715 0 0)
(-0.569413 0 0)
(-0.567325 0 0)
(-0.565236 0 0)
(-0.563145 0 0)
(-0.561054 0 0)
(-0.558961 0 0)
(-0.556867 0 0)
(-0.554772 0 0)
(-0.552676 0 0)
(-0.550579 0 0)
(-0.54848 0 0)
(-0.54638 0 0)
(-0.54428 0 0)
(-0.542178 0 0)
(-0.540075 0 0)
(-0.537971 0 0)
(-0.535866 0 0)
(-0.53376 0 0)
(-0.531652 0 0)
(-0.529544 0 0)
(-0.527434 0 0)
(-0.525324 0 0)
(-0.523213 0 0)
(-0.5211 0 0)
(-0.518986 0 0)
(-0.516872 0 0)
(-0.514756 0 0)
(-0.51264 0 0)
(-0.510522 0 0)
(-0.508403 0 0)
(-0.506284 0 0)
(-0.504163 0 0)
(-0.502042 0 0)
(-0.499919 0 0)
(-0.497796 0 0)
(-0.495671 0 0)
(-0.493546 0 0)
(-0.49142 0 0)
(-0.489293 0 0)
(-0.487164 0 0)
(-0.485035 0 0)
(-0.482905 0 0)
(-0.480775 0 0)
(-0.478643 0 0)
(-0.47651 0 0)
(-0.474377 0 0)
(-0.472242 0 0)
(-0.470107 0 0)
(-0.467971 0 0)
(-0.465834 0 0)
(-0.463696 0 0)
(-0.461557 0 0)
(-0.459418 0 0)
(-0.457277 0 0)
(-0.455136 0 0)
(-0.452994 0 0)
(-0.450851 0 0)
(-0.448708 0 0)
(-0.446563 0 0)
(-0.444418 0 0)
(-0.442272 0 0)
(-0.440125 0 0)
(-0.437977 0 0)
(-0.435829 0 0)
(-0.43368 0 0)
(-0.43153 0 0)
(-0.429379 0 0)
(-0.427228 0 0)
(-0.425076 0 0)
(-0.422923 0 0)
(-0.420769 0 0)
(-0.418614 0 0)
(-0.416459 0 0)
(-0.414303 0 0)
(-0.412147 0 0)
(-0.40999 0 0)
(-0.407832 0 0)
(-0.405673 0 0)
(-0.403514 0 0)
(-0.401354 0 0)
(-0.399193 0 0)
(-0.397031 0 0)
(-0.394869 0 0)
(-0.392706 0 0)
(-0.390543 0 0)
(-0.388379 0 0)
(-0.386214 0 0)
(-0.384049 0 0)
(-0.381883 0 0)
(-0.379716 0 0)
(-0.377549 0 0)
(-0.375381 0 0)
(-0.373212 0 0)
(-0.371043 0 0)
(-0.368873 0 0)
(-0.366703 0 0)
(-0.364532 0 0)
(-0.36236 0 0)
(-0.360188 0 0)
(-0.358015 0 0)
(-0.355842 0 0)
(-0.353668 0 0)
(-0.351493 0 0)
(-0.349318 0 0)
(-0.347142 0 0)
(-0.344966 0 0)
(-0.342789 0 0)
(-0.340612 0 0)
(-0.338434 0 0)
(-0.336255 0 0)
(-0.334076 0 0)
(-0.331897 0 0)
(-0.329717 0 0)
(-0.327536 0 0)
(-0.325355 0 0)
(-0.323173 0 0)
(-0.320991 0 0)
(-0.318808 0 0)
(-0.316625 0 0)
(-0.314442 0 0)
(-0.312257 0 0)
(-0.310073 0 0)
(-0.307887 0 0)
(-0.305702 0 0)
(-0.303516 0 0)
(-0.301329 0 0)
(-0.299142 0 0)
(-0.296954 0 0)
(-0.294766 0 0)
(-0.292578 0 0)
(-0.290389 0 0)
(-0.2882 0 0)
(-0.28601 0 0)
(-0.28382 0 0)
(-0.281629 0 0)
(-0.279438 0 0)
(-0.277246 0 0)
(-0.275054 0 0)
(-0.272862 0 0)
(-0.270669 0 0)
(-0.268475 0 0)
(-0.266282 0 0)
(-0.264088 0 0)
(-0.261893 0 0)
(-0.259698 0 0)
(-0.257503 0 0)
(-0.255307 0 0)
(-0.253111 0 0)
(-0.250915 0 0)
(-0.248718 0 0)
(-0.246521 0 0)
(-0.244323 0 0)
(-0.242125 0 0)
(-0.239927 0 0)
(-0.237728 0 0)
(-0.235529 0 0)
(-0.23333 0 0)
(-0.23113 0 0)
(-0.22893 0 0)
(-0.226729 0 0)
(-0.224529 0 0)
(-0.222327 0 0)
(-0.220126 0 0)
(-0.217924 0 0)
(-0.215722 0 0)
(-0.21352 0 0)
(-0.211317 0 0)
(-0.209114 0 0)
(-0.20691 0 0)
(-0.204707 0 0)
(-0.202503 0 0)
(-0.200299 0 0)
(-0.198094 0 0)
(-0.195889 0 0)
(-0.193684 0 0)
(-0.191478 0 0)
(-0.189273 0 0)
(-0.187067 0 0)
(-0.18486 0 0)
(-0.182654 0 0)
(-0.180447 0 0)
(-0.17824 0 0)
(-0.176033 0 0)
(-0.173825 0 0)
(-0.171617 0 0)
(-0.169409 0 0)
(-0.167201 0 0)
(-0.164992 0 0)
(-0.162783 0 0)
(-0.160574 0 0)
(-0.158365 0 0)
(-0.156155 0 0)
(-0.153945 0 0)
(-0.151735 0 0)
(-0.149525 0 0)
(-0.147315 0 0)
(-0.145104 0 0)
(-0.142893 0 0)
(-0.140682 0 0)
(-0.138471 0 0)
(-0.136259 0 0)
(-0.134048 0 0)
(-0.131836 0 0)
(-0.129624 0 0)
(-0.127411 0 0)
(-0.125199 0 0)
(-0.122986 0 0)
(-0.120773 0 0)
(-0.118561 0 0)
(-0.116347 0 0)
(-0.114134 0 0)
(-0.111921 0 0)
(-0.109707 0 0)
(-0.107493 0 0)
(-0.105279 0 0)
(-0.103065 0 0)
(-0.100851 0 0)
(-0.0986365 0 0)
(-0.096422 0 0)
(-0.0942073 0 0)
(-0.0919925 0 0)
(-0.0897776 0 0)
(-0.0875625 0 0)
(-0.0853473 0 0)
(-0.083132 0 0)
(-0.0809166 0 0)
(-0.078701 0 0)
(-0.0764854 0 0)
(-0.0742696 0 0)
(-0.0720537 0 0)
(-0.0698377 0 0)
(-0.0676217 0 0)
(-0.0654055 0 0)
(-0.0631892 0 0)
(-0.0609729 0 0)
(-0.0587564 0 0)
(-0.0565399 0 0)
(-0.0543233 0 0)
(-0.0521066 0 0)
(-0.0498898 0 0)
(-0.047673 0 0)
(-0.0454561 0 0)
(-0.0432392 0 0)
(-0.0410221 0 0)
(-0.0388051 0 0)
(-0.0365879 0 0)
(-0.0343707 0 0)
(-0.0321535 0 0)
(-0.0299362 0 0)
(-0.0277189 0 0)
(-0.0255015 0 0)
(-0.0232841 0 0)
(-0.0210667 0 0)
(-0.0188492 0 0)
(-0.0166317 0 0)
(-0.0144142 0 0)
(-0.0121967 0 0)
(-0.00997912 0 0)
(-0.00776155 0 0)
(-0.00554397 0 0)
(-0.00332639 0 0)
(-0.0011088 0 0)
)
;

boundaryField
{
    left
    {
        type            fixedValue;
        value           uniform (0 0 0);
    }
    right
    {
        type            fixedValue;
        value           uniform (0 0 0);
    }
    frontBackUpDown
    {
        type            empty;
    }
}


// ************************************************************************* //
