/*--------------------------------*- C++ -*----------------------------------*\
| =========                 |                                                 |
| \\      /  F ield         | OpenFOAM: The Open Source CFD Toolbox           |
|  \\    /   O peration     | Version:  2412                                  |
|   \\  /    A nd           | Website:  www.openfoam.com                      |
|    \\/     M anipulation  |                                                 |
\*---------------------------------------------------------------------------*/
FoamFile
{
    version     2.0;
    format      ascii;
    arch        "LSB;label=32;scalar=64";
    class       volVectorField;
    location    "0.81";
    object      U_0;
}
// * * * * * * * * * * * * * * * * * * * * * * * * * * * * * * * * * * * * * //

dimensions      [0 1 -1 0 0 0 0];

internalField   nonuniform List<vector> 
800
(
(0.00110928 0 0)
(0.00332785 0 0)
(0.00554642 0 0)
(0.00776498 0 0)
(0.00998353 0 0)
(0.0122021 0 0)
(0.0144206 0 0)
(0.0166391 0 0)
(0.0188576 0 0)
(0.021076 0 0)
(0.0232944 0 0)
(0.0255128 0 0)
(0.0277311 0 0)
(0.0299495 0 0)
(0.0321677 0 0)
(0.0343859 0 0)
(0.0366041 0 0)
(0.0388222 0 0)
(0.0410403 0 0)
(0.0432583 0 0)
(0.0454762 0 0)
(0.0476941 0 0)
(0.0499119 0 0)
(0.0521297 0 0)
(0.0543473 0 0)
(0.0565649 0 0)
(0.0587824 0 0)
(0.0609999 0 0)
(0.0632172 0 0)
(0.0654345 0 0)
(0.0676516 0 0)
(0.0698687 0 0)
(0.0720856 0 0)
(0.0743025 0 0)
(0.0765192 0 0)
(0.0787359 0 0)
(0.0809524 0 0)
(0.0831688 0 0)
(0.0853851 0 0)
(0.0876013 0 0)
(0.0898173 0 0)
(0.0920332 0 0)
(0.094249 0 0)
(0.0964647 0 0)
(0.0986802 0 0)
(0.100896 0 0)
(0.103111 0 0)
(0.105326 0 0)
(0.107541 0 0)
(0.109756 0 0)
(0.11197 0 0)
(0.114185 0 0)
(0.116399 0 0)
(0.118613 0 0)
(0.120827 0 0)
(0.123041 0 0)
(0.125254 0 0)
(0.127468 0 0)
(0.129681 0 0)
(0.131894 0 0)
(0.134107 0 0)
(0.13632 0 0)
(0.138532 0 0)
(0.140744 0 0)
(0.142956 0 0)
(0.145168 0 0)
(0.14738 0 0)
(0.149591 0 0)
(0.151802 0 0)
(0.154013 0 0)
(0.156224 0 0)
(0.158435 0 0)
(0.160645 0 0)
(0.162855 0 0)
(0.165065 0 0)
(0.167274 0 0)
(0.169484 0 0)
(0.171693 0 0)
(0.173902 0 0)
(0.17611 0 0)
(0.178319 0 0)
(0.180527 0 0)
(0.182735 0 0)
(0.184942 0 0)
(0.187149 0 0)
(0.189356 0 0)
(0.191563 0 0)
(0.193769 0 0)
(0.195976 0 0)
(0.198181 0 0)
(0.200387 0 0)
(0.202592 0 0)
(0.204797 0 0)
(0.207002 0 0)
(0.209206 0 0)
(0.21141 0 0)
(0.213614 0 0)
(0.215817 0 0)
(0.21802 0 0)
(0.220223 0 0)
(0.222425 0 0)
(0.224628 0 0)
(0.226829 0 0)
(0.229031 0 0)
(0.231232 0 0)
(0.233432 0 0)
(0.235633 0 0)
(0.237833 0 0)
(0.240033 0 0)
(0.242232 0 0)
(0.244431 0 0)
(0.246629 0 0)
(0.248827 0 0)
(0.251025 0 0)
(0.253223 0 0)
(0.25542 0 0)
(0.257616 0 0)
(0.259813 0 0)
(0.262008 0 0)
(0.264204 0 0)
(0.266399 0 0)
(0.268594 0 0)
(0.270788 0 0)
(0.272982 0 0)
(0.275175 0 0)
(0.277368 0 0)
(0.27956 0 0)
(0.281752 0 0)
(0.283944 0 0)
(0.286135 0 0)
(0.288326 0 0)
(0.290516 0 0)
(0.292706 0 0)
(0.294896 0 0)
(0.297085 0 0)
(0.299273 0 0)
(0.301461 0 0)
(0.303649 0 0)
(0.305836 0 0)
(0.308022 0 0)
(0.310209 0 0)
(0.312394 0 0)
(0.314579 0 0)
(0.316764 0 0)
(0.318948 0 0)
(0.321132 0 0)
(0.323315 0 0)
(0.325497 0 0)
(0.327679 0 0)
(0.329861 0 0)
(0.332042 0 0)
(0.334222 0 0)
(0.336402 0 0)
(0.338582 0 0)
(0.340761 0 0)
(0.342939 0 0)
(0.345117 0 0)
(0.347294 0 0)
(0.34947 0 0)
(0.351646 0 0)
(0.353822 0 0)
(0.355997 0 0)
(0.358171 0 0)
(0.360345 0 0)
(0.362518 0 0)
(0.36469 0 0)
(0.366862 0 0)
(0.369034 0 0)
(0.371204 0 0)
(0.373375 0 0)
(0.375544 0 0)
(0.377713 0 0)
(0.379881 0 0)
(0.382049 0 0)
(0.384216 0 0)
(0.386382 0 0)
(0.388548 0 0)
(0.390713 0 0)
(0.392877 0 0)
(0.395041 0 0)
(0.397204 0 0)
(0.399366 0 0)
(0.401528 0 0)
(0.403689 0 0)
(0.405849 0 0)
(0.408008 0 0)
(0.410167 0 0)
(0.412325 0 0)
(0.414483 0 0)
(0.41664 0 0)
(0.418796 0 0)
(0.420951 0 0)
(0.423105 0 0)
(0.425259 0 0)
(0.427412 0 0)
(0.429565 0 0)
(0.431716 0 0)
(0.433867 0 0)
(0.436017 0 0)
(0.438166 0 0)
(0.440315 0 0)
(0.442463 0 0)
(0.444609 0 0)
(0.446756 0 0)
(0.448901 0 0)
(0.451045 0 0)
(0.453189 0 0)
(0.455332 0 0)
(0.457474 0 0)
(0.459615 0 0)
(0.461756 0 0)
(0.463895 0 0)
(0.466034 0 0)
(0.468172 0 0)
(0.470309 0 0)
(0.472445 0 0)
(0.47458 0 0)
(0.476714 0 0)
(0.478848 0 0)
(0.480981 0 0)
(0.483112 0 0)
(0.485243 0 0)
(0.487373 0 0)
(0.489502 0 0)
(0.49163 0 0)
(0.493757 0 0)
(0.495883 0 0)
(0.498008 0 0)
(0.500133 0 0)
(0.502256 0 0)
(0.504378 0 0)
(0.5065 0 0)
(0.50862 0 0)
(0.510739 0 0)
(0.512858 0 0)
(0.514975 0 0)
(0.517092 0 0)
(0.519207 0 0)
(0.521321 0 0)
(0.523435 0 0)
(0.525547 0 0)
(0.527658 0 0)
(0.529768 0 0)
(0.531878 0 0)
(0.533986 0 0)
(0.536093 0 0)
(0.538199 0 0)
(0.540303 0 0)
(0.542407 0 0)
(0.54451 0 0)
(0.546611 0 0)
(0.548712 0 0)
(0.550811 0 0)
(0.552909 0 0)
(0.555006 0 0)
(0.557102 0 0)
(0.559196 0 0)
(0.56129 0 0)
(0.563382 0 0)
(0.565473 0 0)
(0.567563 0 0)
(0.569652 0 0)
(0.571739 0 0)
(0.573826 0 0)
(0.575911 0 0)
(0.577995 0 0)
(0.580077 0 0)
(0.582158 0 0)
(0.584238 0 0)
(0.586317 0 0)
(0.588395 0 0)
(0.590471 0 0)
(0.592546 0 0)
(0.594619 0 0)
(0.596691 0 0)
(0.598762 0 0)
(0.600832 0 0)
(0.6029 0 0)
(0.604967 0 0)
(0.607032 0 0)
(0.609096 0 0)
(0.611159 0 0)
(0.61322 0 0)
(0.61528 0 0)
(0.617339 0 0)
(0.619396 0 0)
(0.621451 0 0)
(0.623505 0 0)
(0.625558 0 0)
(0.627609 0 0)
(0.629658 0 0)
(0.631707 0 0)
(0.633753 0 0)
(0.635798 0 0)
(0.637842 0 0)
(0.639884 0 0)
(0.641924 0 0)
(0.643963 0 0)
(0.646 0 0)
(0.648036 0 0)
(0.65007 0 0)
(0.652103 0 0)
(0.654133 0 0)
(0.656163 0 0)
(0.65819 0 0)
(0.660216 0 0)
(0.66224 0 0)
(0.664263 0 0)
(0.666283 0 0)
(0.668302 0 0)
(0.67032 0 0)
(0.672335 0 0)
(0.674349 0 0)
(0.676361 0 0)
(0.678371 0 0)
(0.68038 0 0)
(0.682386 0 0)
(0.684391 0 0)
(0.686394 0 0)
(0.688395 0 0)
(0.690394 0 0)
(0.692391 0 0)
(0.694386 0 0)
(0.69638 0 0)
(0.698371 0 0)
(0.700361 0 0)
(0.702348 0 0)
(0.704334 0 0)
(0.706317 0 0)
(0.708299 0 0)
(0.710278 0 0)
(0.712255 0 0)
(0.714231 0 0)
(0.716204 0 0)
(0.718175 0 0)
(0.720144 0 0)
(0.722111 0 0)
(0.724075 0 0)
(0.726038 0 0)
(0.727998 0 0)
(0.729956 0 0)
(0.731912 0 0)
(0.733866 0 0)
(0.735817 0 0)
(0.737766 0 0)
(0.739713 0 0)
(0.741657 0 0)
(0.743599 0 0)
(0.745538 0 0)
(0.747476 0 0)
(0.74941 0 0)
(0.751343 0 0)
(0.753272 0 0)
(0.7552 0 0)
(0.757125 0 0)
(0.759047 0 0)
(0.760967 0 0)
(0.762884 0 0)
(0.764798 0 0)
(0.76671 0 0)
(0.76862 0 0)
(0.770526 0 0)
(0.77243 0 0)
(0.774331 0 0)
(0.77623 0 0)
(0.778126 0 0)
(0.780018 0 0)
(0.781908 0 0)
(0.783796 0 0)
(0.78568 0 0)
(0.787561 0 0)
(0.78944 0 0)
(0.791315 0 0)
(0.793188 0 0)
(0.795057 0 0)
(0.796923 0 0)
(0.798787 0 0)
(0.800647 0 0)
(0.802504 0 0)
(0.804358 0 0)
(0.806208 0 0)
(0.808056 0 0)
(0.8099 0 0)
(0.811741 0 0)
(0.813578 0 0)
(0.815412 0 0)
(0.817243 0 0)
(0.81907 0 0)
(0.820893 0 0)
(0.822714 0 0)
(0.82453 0 0)
(0.826343 0 0)
(0.828153 0 0)
(0.829958 0 0)
(0.83176 0 0)
(0.833558 0 0)
(0.835345 0 0)
(0.837459 0 0)
(0.8231 0 0)
(0.443238 0 0)
(-0.441982 0 0)
(-0.822954 0 0)
(-0.837459 0 0)
(-0.835343 0 0)
(-0.833556 0 0)
(-0.831758 0 0)
(-0.829956 0 0)
(-0.82815 0 0)
(-0.826341 0 0)
(-0.824528 0 0)
(-0.822711 0 0)
(-0.820891 0 0)
(-0.819067 0 0)
(-0.81724 0 0)
(-0.81541 0 0)
(-0.813576 0 0)
(-0.811738 0 0)
(-0.809897 0 0)
(-0.808053 0 0)
(-0.806206 0 0)
(-0.804355 0 0)
(-0.802501 0 0)
(-0.800644 0 0)
(-0.798784 0 0)
(-0.796921 0 0)
(-0.795055 0 0)
(-0.793185 0 0)
(-0.791313 0 0)
(-0.789437 0 0)
(-0.787559 0 0)
(-0.785677 0 0)
(-0.783793 0 0)
(-0.781906 0 0)
(-0.780016 0 0)
(-0.778123 0 0)
(-0.776227 0 0)
(-0.774329 0 0)
(-0.772428 0 0)
(-0.770524 0 0)
(-0.768617 0 0)
(-0.766708 0 0)
(-0.764796 0 0)
(-0.762882 0 0)
(-0.760964 0 0)
(-0.759045 0 0)
(-0.757122 0 0)
(-0.755197 0 0)
(-0.75327 0 0)
(-0.75134 0 0)
(-0.749408 0 0)
(-0.747473 0 0)
(-0.745536 0 0)
(-0.743596 0 0)
(-0.741654 0 0)
(-0.73971 0 0)
(-0.737764 0 0)
(-0.735815 0 0)
(-0.733863 0 0)
(-0.73191 0 0)
(-0.729954 0 0)
(-0.727996 0 0)
(-0.726036 0 0)
(-0.724073 0 0)
(-0.722109 0 0)
(-0.720142 0 0)
(-0.718173 0 0)
(-0.716202 0 0)
(-0.714228 0 0)
(-0.712253 0 0)
(-0.710276 0 0)
(-0.708296 0 0)
(-0.706315 0 0)
(-0.704331 0 0)
(-0.702346 0 0)
(-0.700358 0 0)
(-0.698369 0 0)
(-0.696377 0 0)
(-0.694384 0 0)
(-0.692389 0 0)
(-0.690392 0 0)
(-0.688392 0 0)
(-0.686391 0 0)
(-0.684389 0 0)
(-0.682384 0 0)
(-0.680377 0 0)
(-0.678369 0 0)
(-0.676359 0 0)
(-0.674347 0 0)
(-0.672333 0 0)
(-0.670318 0 0)
(-0.6683 0 0)
(-0.666281 0 0)
(-0.664261 0 0)
(-0.662238 0 0)
(-0.660214 0 0)
(-0.658188 0 0)
(-0.656161 0 0)
(-0.654131 0 0)
(-0.652101 0 0)
(-0.650068 0 0)
(-0.648034 0 0)
(-0.645998 0 0)
(-0.643961 0 0)
(-0.641922 0 0)
(-0.639882 0 0)
(-0.63784 0 0)
(-0.635796 0 0)
(-0.633751 0 0)
(-0.631705 0 0)
(-0.629657 0 0)
(-0.627607 0 0)
(-0.625556 0 0)
(-0.623503 0 0)
(-0.621449 0 0)
(-0.619394 0 0)
(-0.617337 0 0)
(-0.615278 0 0)
(-0.613218 0 0)
(-0.611157 0 0)
(-0.609094 0 0)
(-0.60703 0 0)
(-0.604965 0 0)
(-0.602898 0 0)
(-0.60083 0 0)
(-0.59876 0 0)
(-0.59669 0 0)
(-0.594617 0 0)
(-0.592544 0 0)
(-0.590469 0 0)
(-0.588393 0 0)
(-0.586315 0 0)
(-0.584237 0 0)
(-0.582157 0 0)
(-0.580075 0 0)
(-0.577993 0 0)
(-0.575909 0 0)
(-0.573824 0 0)
(-0.571738 0 0)
(-0.56965 0 0)
(-0.567562 0 0)
(-0.565472 0 0)
(-0.563381 0 0)
(-0.561288 0 0)
(-0.559195 0 0)
(-0.5571 0 0)
(-0.555004 0 0)
(-0.552907 0 0)
(-0.550809 0 0)
(-0.54871 0 0)
(-0.54661 0 0)
(-0.544508 0 0)
(-0.542406 0 0)
(-0.540302 0 0)
(-0.538197 0 0)
(-0.536091 0 0)
(-0.533984 0 0)
(-0.531876 0 0)
(-0.529767 0 0)
(-0.527657 0 0)
(-0.525546 0 0)
(-0.523433 0 0)
(-0.52132 0 0)
(-0.519206 0 0)
(-0.51709 0 0)
(-0.514974 0 0)
(-0.512856 0 0)
(-0.510738 0 0)
(-0.508619 0 0)
(-0.506498 0 0)
(-0.504377 0 0)
(-0.502255 0 0)
(-0.500131 0 0)
(-0.498007 0 0)
(-0.495882 0 0)
(-0.493756 0 0)
(-0.491629 0 0)
(-0.489501 0 0)
(-0.487372 0 0)
(-0.485242 0 0)
(-0.483111 0 0)
(-0.480979 0 0)
(-0.478847 0 0)
(-0.476713 0 0)
(-0.474579 0 0)
(-0.472444 0 0)
(-0.470308 0 0)
(-0.468171 0 0)
(-0.466033 0 0)
(-0.463894 0 0)
(-0.461754 0 0)
(-0.459614 0 0)
(-0.457473 0 0)
(-0.455331 0 0)
(-0.453188 0 0)
(-0.451044 0 0)
(-0.4489 0 0)
(-0.446754 0 0)
(-0.444608 0 0)
(-0.442461 0 0)
(-0.440314 0 0)
(-0.438165 0 0)
(-0.436016 0 0)
(-0.433866 0 0)
(-0.431715 0 0)
(-0.429564 0 0)
(-0.427411 0 0)
(-0.425258 0 0)
(-0.423104 0 0)
(-0.42095 0 0)
(-0.418795 0 0)
(-0.416639 0 0)
(-0.414482 0 0)
(-0.412324 0 0)
(-0.410166 0 0)
(-0.408007 0 0)
(-0.405848 0 0)
(-0.403688 0 0)
(-0.401527 0 0)
(-0.399365 0 0)
(-0.397203 0 0)
(-0.39504 0 0)
(-0.392876 0 0)
(-0.390712 0 0)
(-0.388547 0 0)
(-0.386381 0 0)
(-0.384215 0 0)
(-0.382048 0 0)
(-0.37988 0 0)
(-0.377712 0 0)
(-0.375543 0 0)
(-0.373374 0 0)
(-0.371204 0 0)
(-0.369033 0 0)
(-0.366862 0 0)
(-0.36469 0 0)
(-0.362517 0 0)
(-0.360344 0 0)
(-0.35817 0 0)
(-0.355996 0 0)
(-0.353821 0 0)
(-0.351646 0 0)
(-0.34947 0 0)
(-0.347293 0 0)
(-0.345116 0 0)
(-0.342938 0 0)
(-0.34076 0 0)
(-0.338581 0 0)
(-0.336402 0 0)
(-0.334222 0 0)
(-0.332041 0 0)
(-0.32986 0 0)
(-0.327679 0 0)
(-0.325497 0 0)
(-0.323314 0 0)
(-0.321131 0 0)
(-0.318947 0 0)
(-0.316763 0 0)
(-0.314579 0 0)
(-0.312394 0 0)
(-0.310208 0 0)
(-0.308022 0 0)
(-0.305835 0 0)
(-0.303648 0 0)
(-0.301461 0 0)
(-0.299273 0 0)
(-0.297084 0 0)
(-0.294895 0 0)
(-0.292706 0 0)
(-0.290516 0 0)
(-0.288326 0 0)
(-0.286135 0 0)
(-0.283944 0 0)
(-0.281752 0 0)
(-0.27956 0 0)
(-0.277367 0 0)
(-0.275174 0 0)
(-0.272981 0 0)
(-0.270787 0 0)
(-0.268593 0 0)
(-0.266398 0 0)
(-0.264203 0 0)
(-0.262008 0 0)
(-0.259812 0 0)
(-0.257616 0 0)
(-0.255419 0 0)
(-0.253222 0 0)
(-0.251025 0 0)
(-0.248827 0 0)
(-0.246629 0 0)
(-0.24443 0 0)
(-0.242231 0 0)
(-0.240032 0 0)
(-0.237833 0 0)
(-0.235633 0 0)
(-0.233432 0 0)
(-0.231231 0 0)
(-0.22903 0 0)
(-0.226829 0 0)
(-0.224627 0 0)
(-0.222425 0 0)
(-0.220223 0 0)
(-0.21802 0 0)
(-0.215817 0 0)
(-0.213614 0 0)
(-0.21141 0 0)
(-0.209206 0 0)
(-0.207002 0 0)
(-0.204797 0 0)
(-0.202592 0 0)
(-0.200387 0 0)
(-0.198181 0 0)
(-0.195975 0 0)
(-0.193769 0 0)
(-0.191563 0 0)
(-0.189356 0 0)
(-0.187149 0 0)
(-0.184942 0 0)
(-0.182734 0 0)
(-0.180526 0 0)
(-0.178318 0 0)
(-0.17611 0 0)
(-0.173902 0 0)
(-0.171693 0 0)
(-0.169484 0 0)
(-0.167274 0 0)
(-0.165065 0 0)
(-0.162855 0 0)
(-0.160645 0 0)
(-0.158434 0 0)
(-0.156224 0 0)
(-0.154013 0 0)
(-0.151802 0 0)
(-0.149591 0 0)
(-0.14738 0 0)
(-0.145168 0 0)
(-0.142956 0 0)
(-0.140744 0 0)
(-0.138532 0 0)
(-0.136319 0 0)
(-0.134107 0 0)
(-0.131894 0 0)
(-0.129681 0 0)
(-0.127468 0 0)
(-0.125254 0 0)
(-0.123041 0 0)
(-0.120827 0 0)
(-0.118613 0 0)
(-0.116399 0 0)
(-0.114185 0 0)
(-0.11197 0 0)
(-0.109755 0 0)
(-0.107541 0 0)
(-0.105326 0 0)
(-0.103111 0 0)
(-0.100895 0 0)
(-0.0986801 0 0)
(-0.0964646 0 0)
(-0.0942489 0 0)
(-0.0920332 0 0)
(-0.0898173 0 0)
(-0.0876012 0 0)
(-0.085385 0 0)
(-0.0831688 0 0)
(-0.0809523 0 0)
(-0.0787358 0 0)
(-0.0765192 0 0)
(-0.0743024 0 0)
(-0.0720856 0 0)
(-0.0698686 0 0)
(-0.0676516 0 0)
(-0.0654344 0 0)
(-0.0632172 0 0)
(-0.0609998 0 0)
(-0.0587824 0 0)
(-0.0565649 0 0)
(-0.0543473 0 0)
(-0.0521297 0 0)
(-0.0499119 0 0)
(-0.0476941 0 0)
(-0.0454762 0 0)
(-0.0432583 0 0)
(-0.0410403 0 0)
(-0.0388222 0 0)
(-0.0366041 0 0)
(-0.0343859 0 0)
(-0.0321677 0 0)
(-0.0299495 0 0)
(-0.0277312 0 0)
(-0.0255128 0 0)
(-0.0232944 0 0)
(-0.021076 0 0)
(-0.0188576 0 0)
(-0.0166391 0 0)
(-0.0144206 0 0)
(-0.0122021 0 0)
(-0.00998354 0 0)
(-0.00776499 0 0)
(-0.00554643 0 0)
(-0.00332786 0 0)
(-0.00110929 0 0)
)
;

boundaryField
{
    left
    {
        type            fixedValue;
        value           uniform (0 0 0);
    }
    right
    {
        type            fixedValue;
        value           uniform (0 0 0);
    }
    frontBackUpDown
    {
        type            empty;
    }
}


// ************************************************************************* //
