/*--------------------------------*- C++ -*----------------------------------*\
| =========                 |                                                 |
| \\      /  F ield         | OpenFOAM: The Open Source CFD Toolbox           |
|  \\    /   O peration     | Version:  2412                                  |
|   \\  /    A nd           | Website:  www.openfoam.com                      |
|    \\/     M anipulation  |                                                 |
\*---------------------------------------------------------------------------*/
FoamFile
{
    version     2.0;
    format      ascii;
    arch        "LSB;label=32;scalar=64";
    class       volVectorField;
    location    "0.81";
    object      U_0_0_0;
}
// * * * * * * * * * * * * * * * * * * * * * * * * * * * * * * * * * * * * * //

dimensions      [0 1 -1 0 0 0 0];

internalField   nonuniform List<vector> 
800
(
(0.00111026 0 0)
(0.0033308 0 0)
(0.00555133 0 0)
(0.00777186 0 0)
(0.00999238 0 0)
(0.0122129 0 0)
(0.0144334 0 0)
(0.0166538 0 0)
(0.0188743 0 0)
(0.0210947 0 0)
(0.0233151 0 0)
(0.0255354 0 0)
(0.0277557 0 0)
(0.029976 0 0)
(0.0321962 0 0)
(0.0344164 0 0)
(0.0366366 0 0)
(0.0388566 0 0)
(0.0410767 0 0)
(0.0432966 0 0)
(0.0455165 0 0)
(0.0477364 0 0)
(0.0499562 0 0)
(0.0521759 0 0)
(0.0543955 0 0)
(0.056615 0 0)
(0.0588345 0 0)
(0.0610539 0 0)
(0.0632732 0 0)
(0.0654924 0 0)
(0.0677115 0 0)
(0.0699305 0 0)
(0.0721495 0 0)
(0.0743683 0 0)
(0.076587 0 0)
(0.0788056 0 0)
(0.0810241 0 0)
(0.0832424 0 0)
(0.0854607 0 0)
(0.0876788 0 0)
(0.0898968 0 0)
(0.0921147 0 0)
(0.0943324 0 0)
(0.09655 0 0)
(0.0987675 0 0)
(0.100985 0 0)
(0.103202 0 0)
(0.105419 0 0)
(0.107636 0 0)
(0.109853 0 0)
(0.112069 0 0)
(0.114286 0 0)
(0.116502 0 0)
(0.118718 0 0)
(0.120934 0 0)
(0.12315 0 0)
(0.125365 0 0)
(0.12758 0 0)
(0.129796 0 0)
(0.132011 0 0)
(0.134225 0 0)
(0.13644 0 0)
(0.138654 0 0)
(0.140869 0 0)
(0.143083 0 0)
(0.145296 0 0)
(0.14751 0 0)
(0.149723 0 0)
(0.151936 0 0)
(0.154149 0 0)
(0.156362 0 0)
(0.158575 0 0)
(0.160787 0 0)
(0.162999 0 0)
(0.165211 0 0)
(0.167422 0 0)
(0.169633 0 0)
(0.171844 0 0)
(0.174055 0 0)
(0.176266 0 0)
(0.178476 0 0)
(0.180686 0 0)
(0.182896 0 0)
(0.185105 0 0)
(0.187314 0 0)
(0.189523 0 0)
(0.191732 0 0)
(0.19394 0 0)
(0.196148 0 0)
(0.198356 0 0)
(0.200563 0 0)
(0.202771 0 0)
(0.204978 0 0)
(0.207184 0 0)
(0.20939 0 0)
(0.211596 0 0)
(0.213802 0 0)
(0.216007 0 0)
(0.218212 0 0)
(0.220417 0 0)
(0.222621 0 0)
(0.224825 0 0)
(0.227029 0 0)
(0.229232 0 0)
(0.231435 0 0)
(0.233638 0 0)
(0.23584 0 0)
(0.238042 0 0)
(0.240243 0 0)
(0.242445 0 0)
(0.244645 0 0)
(0.246846 0 0)
(0.249046 0 0)
(0.251246 0 0)
(0.253445 0 0)
(0.255644 0 0)
(0.257842 0 0)
(0.26004 0 0)
(0.262238 0 0)
(0.264436 0 0)
(0.266632 0 0)
(0.268829 0 0)
(0.271025 0 0)
(0.273221 0 0)
(0.275416 0 0)
(0.277611 0 0)
(0.279805 0 0)
(0.281999 0 0)
(0.284193 0 0)
(0.286386 0 0)
(0.288578 0 0)
(0.290771 0 0)
(0.292962 0 0)
(0.295154 0 0)
(0.297344 0 0)
(0.299535 0 0)
(0.301725 0 0)
(0.303914 0 0)
(0.306103 0 0)
(0.308291 0 0)
(0.310479 0 0)
(0.312667 0 0)
(0.314854 0 0)
(0.31704 0 0)
(0.319226 0 0)
(0.321412 0 0)
(0.323597 0 0)
(0.325781 0 0)
(0.327965 0 0)
(0.330148 0 0)
(0.332331 0 0)
(0.334513 0 0)
(0.336695 0 0)
(0.338876 0 0)
(0.341057 0 0)
(0.343237 0 0)
(0.345417 0 0)
(0.347596 0 0)
(0.349774 0 0)
(0.351952 0 0)
(0.354129 0 0)
(0.356306 0 0)
(0.358482 0 0)
(0.360658 0 0)
(0.362833 0 0)
(0.365007 0 0)
(0.367181 0 0)
(0.369354 0 0)
(0.371526 0 0)
(0.373698 0 0)
(0.37587 0 0)
(0.37804 0 0)
(0.38021 0 0)
(0.38238 0 0)
(0.384548 0 0)
(0.386716 0 0)
(0.388884 0 0)
(0.391051 0 0)
(0.393217 0 0)
(0.395382 0 0)
(0.397547 0 0)
(0.399711 0 0)
(0.401874 0 0)
(0.404037 0 0)
(0.406199 0 0)
(0.40836 0 0)
(0.410521 0 0)
(0.412681 0 0)
(0.41484 0 0)
(0.416999 0 0)
(0.419156 0 0)
(0.421313 0 0)
(0.42347 0 0)
(0.425625 0 0)
(0.42778 0 0)
(0.429934 0 0)
(0.432087 0 0)
(0.43424 0 0)
(0.436392 0 0)
(0.438543 0 0)
(0.440693 0 0)
(0.442842 0 0)
(0.444991 0 0)
(0.447139 0 0)
(0.449286 0 0)
(0.451432 0 0)
(0.453577 0 0)
(0.455722 0 0)
(0.457866 0 0)
(0.460008 0 0)
(0.462151 0 0)
(0.464292 0 0)
(0.466432 0 0)
(0.468572 0 0)
(0.47071 0 0)
(0.472848 0 0)
(0.474985 0 0)
(0.477121 0 0)
(0.479256 0 0)
(0.48139 0 0)
(0.483524 0 0)
(0.485656 0 0)
(0.487788 0 0)
(0.489918 0 0)
(0.492048 0 0)
(0.494177 0 0)
(0.496304 0 0)
(0.498431 0 0)
(0.500557 0 0)
(0.502682 0 0)
(0.504806 0 0)
(0.506929 0 0)
(0.509051 0 0)
(0.511172 0 0)
(0.513292 0 0)
(0.515411 0 0)
(0.517529 0 0)
(0.519646 0 0)
(0.521762 0 0)
(0.523877 0 0)
(0.52599 0 0)
(0.528103 0 0)
(0.530215 0 0)
(0.532326 0 0)
(0.534435 0 0)
(0.536544 0 0)
(0.538651 0 0)
(0.540758 0 0)
(0.542863 0 0)
(0.544967 0 0)
(0.54707 0 0)
(0.549172 0 0)
(0.551273 0 0)
(0.553372 0 0)
(0.555471 0 0)
(0.557568 0 0)
(0.559664 0 0)
(0.561759 0 0)
(0.563853 0 0)
(0.565946 0 0)
(0.568037 0 0)
(0.570127 0 0)
(0.572216 0 0)
(0.574304 0 0)
(0.576391 0 0)
(0.578476 0 0)
(0.58056 0 0)
(0.582643 0 0)
(0.584724 0 0)
(0.586804 0 0)
(0.588883 0 0)
(0.590961 0 0)
(0.593037 0 0)
(0.595112 0 0)
(0.597185 0 0)
(0.599258 0 0)
(0.601329 0 0)
(0.603398 0 0)
(0.605466 0 0)
(0.607533 0 0)
(0.609599 0 0)
(0.611663 0 0)
(0.613725 0 0)
(0.615786 0 0)
(0.617846 0 0)
(0.619905 0 0)
(0.621961 0 0)
(0.624017 0 0)
(0.626071 0 0)
(0.628123 0 0)
(0.630174 0 0)
(0.632224 0 0)
(0.634271 0 0)
(0.636318 0 0)
(0.638363 0 0)
(0.640406 0 0)
(0.642448 0 0)
(0.644488 0 0)
(0.646526 0 0)
(0.648563 0 0)
(0.650598 0 0)
(0.652632 0 0)
(0.654664 0 0)
(0.656695 0 0)
(0.658723 0 0)
(0.66075 0 0)
(0.662776 0 0)
(0.664799 0 0)
(0.666821 0 0)
(0.668841 0 0)
(0.67086 0 0)
(0.672877 0 0)
(0.674891 0 0)
(0.676905 0 0)
(0.678916 0 0)
(0.680925 0 0)
(0.682933 0 0)
(0.684939 0 0)
(0.686943 0 0)
(0.688945 0 0)
(0.690945 0 0)
(0.692943 0 0)
(0.69494 0 0)
(0.696934 0 0)
(0.698927 0 0)
(0.700917 0 0)
(0.702906 0 0)
(0.704892 0 0)
(0.706877 0 0)
(0.708859 0 0)
(0.71084 0 0)
(0.712818 0 0)
(0.714794 0 0)
(0.716769 0 0)
(0.718741 0 0)
(0.72071 0 0)
(0.722678 0 0)
(0.724644 0 0)
(0.726607 0 0)
(0.728568 0 0)
(0.730527 0 0)
(0.732484 0 0)
(0.734438 0 0)
(0.73639 0 0)
(0.73834 0 0)
(0.740288 0 0)
(0.742233 0 0)
(0.744176 0 0)
(0.746116 0 0)
(0.748054 0 0)
(0.74999 0 0)
(0.751923 0 0)
(0.753853 0 0)
(0.755781 0 0)
(0.757707 0 0)
(0.75963 0 0)
(0.76155 0 0)
(0.763468 0 0)
(0.765383 0 0)
(0.767296 0 0)
(0.769206 0 0)
(0.771113 0 0)
(0.773018 0 0)
(0.77492 0 0)
(0.776819 0 0)
(0.778715 0 0)
(0.780608 0 0)
(0.782499 0 0)
(0.784386 0 0)
(0.786271 0 0)
(0.788153 0 0)
(0.790032 0 0)
(0.791908 0 0)
(0.793781 0 0)
(0.795651 0 0)
(0.797518 0 0)
(0.799381 0 0)
(0.801242 0 0)
(0.803099 0 0)
(0.804953 0 0)
(0.806804 0 0)
(0.808652 0 0)
(0.810496 0 0)
(0.812337 0 0)
(0.814175 0 0)
(0.816009 0 0)
(0.81784 0 0)
(0.819668 0 0)
(0.821491 0 0)
(0.823312 0 0)
(0.825128 0 0)
(0.826942 0 0)
(0.828751 0 0)
(0.830557 0 0)
(0.832359 0 0)
(0.834157 0 0)
(0.835943 0 0)
(0.838059 0 0)
(0.823874 0 0)
(0.44387 0 0)
(-0.442613 0 0)
(-0.823729 0 0)
(-0.83806 0 0)
(-0.835941 0 0)
(-0.834155 0 0)
(-0.832356 0 0)
(-0.830554 0 0)
(-0.828749 0 0)
(-0.826939 0 0)
(-0.825126 0 0)
(-0.823309 0 0)
(-0.821489 0 0)
(-0.819665 0 0)
(-0.817838 0 0)
(-0.816007 0 0)
(-0.814173 0 0)
(-0.812335 0 0)
(-0.810494 0 0)
(-0.80865 0 0)
(-0.806802 0 0)
(-0.804951 0 0)
(-0.803097 0 0)
(-0.801239 0 0)
(-0.799379 0 0)
(-0.797515 0 0)
(-0.795648 0 0)
(-0.793778 0 0)
(-0.791906 0 0)
(-0.79003 0 0)
(-0.788151 0 0)
(-0.786269 0 0)
(-0.784384 0 0)
(-0.782496 0 0)
(-0.780606 0 0)
(-0.778712 0 0)
(-0.776816 0 0)
(-0.774917 0 0)
(-0.773015 0 0)
(-0.771111 0 0)
(-0.769204 0 0)
(-0.767294 0 0)
(-0.765381 0 0)
(-0.763466 0 0)
(-0.761548 0 0)
(-0.759627 0 0)
(-0.757704 0 0)
(-0.755779 0 0)
(-0.753851 0 0)
(-0.75192 0 0)
(-0.749987 0 0)
(-0.748052 0 0)
(-0.746114 0 0)
(-0.744173 0 0)
(-0.742231 0 0)
(-0.740285 0 0)
(-0.738338 0 0)
(-0.736388 0 0)
(-0.734436 0 0)
(-0.732482 0 0)
(-0.730525 0 0)
(-0.728566 0 0)
(-0.726605 0 0)
(-0.724641 0 0)
(-0.722676 0 0)
(-0.720708 0 0)
(-0.718738 0 0)
(-0.716766 0 0)
(-0.714792 0 0)
(-0.712816 0 0)
(-0.710837 0 0)
(-0.708857 0 0)
(-0.706875 0 0)
(-0.70489 0 0)
(-0.702904 0 0)
(-0.700915 0 0)
(-0.698925 0 0)
(-0.696932 0 0)
(-0.694938 0 0)
(-0.692941 0 0)
(-0.690943 0 0)
(-0.688943 0 0)
(-0.686941 0 0)
(-0.684937 0 0)
(-0.682931 0 0)
(-0.680923 0 0)
(-0.678914 0 0)
(-0.676902 0 0)
(-0.674889 0 0)
(-0.672874 0 0)
(-0.670858 0 0)
(-0.668839 0 0)
(-0.666819 0 0)
(-0.664797 0 0)
(-0.662774 0 0)
(-0.660748 0 0)
(-0.658721 0 0)
(-0.656693 0 0)
(-0.654662 0 0)
(-0.65263 0 0)
(-0.650596 0 0)
(-0.648561 0 0)
(-0.646524 0 0)
(-0.644486 0 0)
(-0.642446 0 0)
(-0.640404 0 0)
(-0.638361 0 0)
(-0.636316 0 0)
(-0.634269 0 0)
(-0.632222 0 0)
(-0.630172 0 0)
(-0.628121 0 0)
(-0.626069 0 0)
(-0.624015 0 0)
(-0.621959 0 0)
(-0.619903 0 0)
(-0.617844 0 0)
(-0.615785 0 0)
(-0.613723 0 0)
(-0.611661 0 0)
(-0.609597 0 0)
(-0.607531 0 0)
(-0.605465 0 0)
(-0.603396 0 0)
(-0.601327 0 0)
(-0.599256 0 0)
(-0.597184 0 0)
(-0.59511 0 0)
(-0.593035 0 0)
(-0.590959 0 0)
(-0.588881 0 0)
(-0.586802 0 0)
(-0.584722 0 0)
(-0.582641 0 0)
(-0.580558 0 0)
(-0.578474 0 0)
(-0.576389 0 0)
(-0.574302 0 0)
(-0.572215 0 0)
(-0.570126 0 0)
(-0.568035 0 0)
(-0.565944 0 0)
(-0.563851 0 0)
(-0.561758 0 0)
(-0.559663 0 0)
(-0.557567 0 0)
(-0.555469 0 0)
(-0.553371 0 0)
(-0.551271 0 0)
(-0.54917 0 0)
(-0.547069 0 0)
(-0.544966 0 0)
(-0.542861 0 0)
(-0.540756 0 0)
(-0.53865 0 0)
(-0.536542 0 0)
(-0.534434 0 0)
(-0.532324 0 0)
(-0.530214 0 0)
(-0.528102 0 0)
(-0.525989 0 0)
(-0.523875 0 0)
(-0.52176 0 0)
(-0.519644 0 0)
(-0.517527 0 0)
(-0.515409 0 0)
(-0.51329 0 0)
(-0.51117 0 0)
(-0.509049 0 0)
(-0.506927 0 0)
(-0.504805 0 0)
(-0.502681 0 0)
(-0.500556 0 0)
(-0.49843 0 0)
(-0.496303 0 0)
(-0.494175 0 0)
(-0.492047 0 0)
(-0.489917 0 0)
(-0.487786 0 0)
(-0.485655 0 0)
(-0.483522 0 0)
(-0.481389 0 0)
(-0.479255 0 0)
(-0.47712 0 0)
(-0.474984 0 0)
(-0.472847 0 0)
(-0.470709 0 0)
(-0.46857 0 0)
(-0.466431 0 0)
(-0.464291 0 0)
(-0.462149 0 0)
(-0.460007 0 0)
(-0.457864 0 0)
(-0.455721 0 0)
(-0.453576 0 0)
(-0.451431 0 0)
(-0.449284 0 0)
(-0.447137 0 0)
(-0.44499 0 0)
(-0.442841 0 0)
(-0.440692 0 0)
(-0.438541 0 0)
(-0.436391 0 0)
(-0.434239 0 0)
(-0.432086 0 0)
(-0.429933 0 0)
(-0.427779 0 0)
(-0.425624 0 0)
(-0.423469 0 0)
(-0.421312 0 0)
(-0.419155 0 0)
(-0.416998 0 0)
(-0.414839 0 0)
(-0.41268 0 0)
(-0.41052 0 0)
(-0.408359 0 0)
(-0.406198 0 0)
(-0.404036 0 0)
(-0.401873 0 0)
(-0.39971 0 0)
(-0.397546 0 0)
(-0.395381 0 0)
(-0.393216 0 0)
(-0.39105 0 0)
(-0.388883 0 0)
(-0.386715 0 0)
(-0.384547 0 0)
(-0.382379 0 0)
(-0.380209 0 0)
(-0.378039 0 0)
(-0.375869 0 0)
(-0.373697 0 0)
(-0.371526 0 0)
(-0.369353 0 0)
(-0.36718 0 0)
(-0.365006 0 0)
(-0.362832 0 0)
(-0.360657 0 0)
(-0.358481 0 0)
(-0.356305 0 0)
(-0.354129 0 0)
(-0.351951 0 0)
(-0.349774 0 0)
(-0.347595 0 0)
(-0.345416 0 0)
(-0.343237 0 0)
(-0.341056 0 0)
(-0.338876 0 0)
(-0.336695 0 0)
(-0.334513 0 0)
(-0.332331 0 0)
(-0.330148 0 0)
(-0.327964 0 0)
(-0.32578 0 0)
(-0.323596 0 0)
(-0.321411 0 0)
(-0.319226 0 0)
(-0.31704 0 0)
(-0.314853 0 0)
(-0.312666 0 0)
(-0.310479 0 0)
(-0.308291 0 0)
(-0.306102 0 0)
(-0.303914 0 0)
(-0.301724 0 0)
(-0.299534 0 0)
(-0.297344 0 0)
(-0.295153 0 0)
(-0.292962 0 0)
(-0.29077 0 0)
(-0.288578 0 0)
(-0.286385 0 0)
(-0.284192 0 0)
(-0.281999 0 0)
(-0.279805 0 0)
(-0.27761 0 0)
(-0.275416 0 0)
(-0.27322 0 0)
(-0.271025 0 0)
(-0.268829 0 0)
(-0.266632 0 0)
(-0.264435 0 0)
(-0.262238 0 0)
(-0.26004 0 0)
(-0.257842 0 0)
(-0.255643 0 0)
(-0.253445 0 0)
(-0.251245 0 0)
(-0.249046 0 0)
(-0.246845 0 0)
(-0.244645 0 0)
(-0.242444 0 0)
(-0.240243 0 0)
(-0.238042 0 0)
(-0.23584 0 0)
(-0.233637 0 0)
(-0.231435 0 0)
(-0.229232 0 0)
(-0.227029 0 0)
(-0.224825 0 0)
(-0.222621 0 0)
(-0.220417 0 0)
(-0.218212 0 0)
(-0.216007 0 0)
(-0.213802 0 0)
(-0.211596 0 0)
(-0.20939 0 0)
(-0.207184 0 0)
(-0.204977 0 0)
(-0.20277 0 0)
(-0.200563 0 0)
(-0.198356 0 0)
(-0.196148 0 0)
(-0.19394 0 0)
(-0.191732 0 0)
(-0.189523 0 0)
(-0.187314 0 0)
(-0.185105 0 0)
(-0.182895 0 0)
(-0.180686 0 0)
(-0.178476 0 0)
(-0.176265 0 0)
(-0.174055 0 0)
(-0.171844 0 0)
(-0.169633 0 0)
(-0.167422 0 0)
(-0.16521 0 0)
(-0.162999 0 0)
(-0.160787 0 0)
(-0.158574 0 0)
(-0.156362 0 0)
(-0.154149 0 0)
(-0.151936 0 0)
(-0.149723 0 0)
(-0.14751 0 0)
(-0.145296 0 0)
(-0.143082 0 0)
(-0.140868 0 0)
(-0.138654 0 0)
(-0.13644 0 0)
(-0.134225 0 0)
(-0.13201 0 0)
(-0.129795 0 0)
(-0.12758 0 0)
(-0.125365 0 0)
(-0.123149 0 0)
(-0.120934 0 0)
(-0.118718 0 0)
(-0.116502 0 0)
(-0.114286 0 0)
(-0.112069 0 0)
(-0.109853 0 0)
(-0.107636 0 0)
(-0.105419 0 0)
(-0.103202 0 0)
(-0.100985 0 0)
(-0.0987674 0 0)
(-0.09655 0 0)
(-0.0943324 0 0)
(-0.0921146 0 0)
(-0.0898968 0 0)
(-0.0876788 0 0)
(-0.0854606 0 0)
(-0.0832424 0 0)
(-0.081024 0 0)
(-0.0788055 0 0)
(-0.076587 0 0)
(-0.0743682 0 0)
(-0.0721494 0 0)
(-0.0699305 0 0)
(-0.0677115 0 0)
(-0.0654924 0 0)
(-0.0632732 0 0)
(-0.0610539 0 0)
(-0.0588345 0 0)
(-0.056615 0 0)
(-0.0543955 0 0)
(-0.0521759 0 0)
(-0.0499561 0 0)
(-0.0477364 0 0)
(-0.0455165 0 0)
(-0.0432966 0 0)
(-0.0410767 0 0)
(-0.0388566 0 0)
(-0.0366365 0 0)
(-0.0344164 0 0)
(-0.0321962 0 0)
(-0.029976 0 0)
(-0.0277557 0 0)
(-0.0255354 0 0)
(-0.0233151 0 0)
(-0.0210947 0 0)
(-0.0188743 0 0)
(-0.0166538 0 0)
(-0.0144334 0 0)
(-0.0122129 0 0)
(-0.00999238 0 0)
(-0.00777187 0 0)
(-0.00555134 0 0)
(-0.00333081 0 0)
(-0.00111027 0 0)
)
;

boundaryField
{
    left
    {
        type            fixedValue;
        value           uniform (0 0 0);
    }
    right
    {
        type            fixedValue;
        value           uniform (0 0 0);
    }
    frontBackUpDown
    {
        type            empty;
    }
}


// ************************************************************************* //
