/*--------------------------------*- C++ -*----------------------------------*\
| =========                 |                                                 |
| \\      /  F ield         | OpenFOAM: The Open Source CFD Toolbox           |
|  \\    /   O peration     | Version:  2412                                  |
|   \\  /    A nd           | Website:  www.openfoam.com                      |
|    \\/     M anipulation  |                                                 |
\*---------------------------------------------------------------------------*/
FoamFile
{
    version     2.0;
    format      ascii;
    arch        "LSB;label=32;scalar=64";
    class       surfaceScalarField;
    location    "0.6";
    object      phi;
}
// * * * * * * * * * * * * * * * * * * * * * * * * * * * * * * * * * * * * * //

dimensions      [0 3 -1 0 0 0 0];

oriented        oriented;

internalField   nonuniform List<scalar> 
799
(
2.72395e-05
5.44791e-05
8.17186e-05
0.000108958
0.000136197
0.000163435
0.000190674
0.000217911
0.000245148
0.000272385
0.000299621
0.000326856
0.00035409
0.000381323
0.000408555
0.000435786
0.000463016
0.000490245
0.000517473
0.000544699
0.000571923
0.000599147
0.000626368
0.000653588
0.000680806
0.000708023
0.000735238
0.00076245
0.000789661
0.00081687
0.000844076
0.00087128
0.000898482
0.000925682
0.000952879
0.000980073
0.00100727
0.00103445
0.00106164
0.00108883
0.00111601
0.00114318
0.00117036
0.00119753
0.0012247
0.00125187
0.00127903
0.00130619
0.00133334
0.00136049
0.00138764
0.00141479
0.00144193
0.00146906
0.0014962
0.00152332
0.00155045
0.00157757
0.00160469
0.0016318
0.00165891
0.00168601
0.00171311
0.0017402
0.00176729
0.00179438
0.00182146
0.00184853
0.0018756
0.00190266
0.00192972
0.00195678
0.00198383
0.00201087
0.00203791
0.00206494
0.00209197
0.00211899
0.00214601
0.00217302
0.00220002
0.00222702
0.00225401
0.00228099
0.00230797
0.00233495
0.00236191
0.00238887
0.00241582
0.00244277
0.00246971
0.00249664
0.00252357
0.00255049
0.0025774
0.0026043
0.0026312
0.00265809
0.00268497
0.00271185
0.00273872
0.00276557
0.00279243
0.00281927
0.00284611
0.00287293
0.00289975
0.00292656
0.00295337
0.00298016
0.00300695
0.00303372
0.00306049
0.00308725
0.003114
0.00314075
0.00316748
0.0031942
0.00322092
0.00324762
0.00327432
0.003301
0.00332768
0.00335435
0.003381
0.00340765
0.00343429
0.00346092
0.00348753
0.00351414
0.00354073
0.00356732
0.00359389
0.00362046
0.00364701
0.00367355
0.00370008
0.0037266
0.00375311
0.00377961
0.0038061
0.00383257
0.00385903
0.00388548
0.00391192
0.00393835
0.00396477
0.00399117
0.00401756
0.00404394
0.0040703
0.00409665
0.004123
0.00414932
0.00417564
0.00420194
0.00422823
0.0042545
0.00428076
0.00430701
0.00433324
0.00435946
0.00438567
0.00441186
0.00443804
0.0044642
0.00449035
0.00451649
0.00454261
0.00456871
0.0045948
0.00462088
0.00464694
0.00467298
0.00469901
0.00472502
0.00475102
0.004777
0.00480297
0.00482892
0.00485485
0.00488077
0.00490667
0.00493256
0.00495842
0.00498427
0.00501011
0.00503592
0.00506172
0.0050875
0.00511327
0.00513901
0.00516474
0.00519045
0.00521614
0.00524182
0.00526747
0.00529311
0.00531872
0.00534432
0.0053699
0.00539546
0.005421
0.00544652
0.00547202
0.0054975
0.00552296
0.0055484
0.00557382
0.00559922
0.0056246
0.00564995
0.00567529
0.0057006
0.0057259
0.00575117
0.00577642
0.00580164
0.00582685
0.00585203
0.00587719
0.00590233
0.00592744
0.00595253
0.0059776
0.00600264
0.00602766
0.00605266
0.00607763
0.00610257
0.0061275
0.00615239
0.00617727
0.00620211
0.00622694
0.00625173
0.0062765
0.00630124
0.00632596
0.00635065
0.00637532
0.00639995
0.00642456
0.00644915
0.0064737
0.00649823
0.00652272
0.00654719
0.00657163
0.00659605
0.00662043
0.00664478
0.0066691
0.0066934
0.00671766
0.00674189
0.0067661
0.00679027
0.0068144
0.00683851
0.00686259
0.00688663
0.00691064
0.00693462
0.00695856
0.00698248
0.00700635
0.0070302
0.00705401
0.00707778
0.00710152
0.00712522
0.00714889
0.00717253
0.00719612
0.00721968
0.00724321
0.00726669
0.00729014
0.00731355
0.00733692
0.00736025
0.00738355
0.0074068
0.00743002
0.00745319
0.00747632
0.00749942
0.00752247
0.00754548
0.00756844
0.00759137
0.00761425
0.00763708
0.00765988
0.00768263
0.00770533
0.00772799
0.0077506
0.00777317
0.00779569
0.00781816
0.00784059
0.00786297
0.0078853
0.00790757
0.0079298
0.00795198
0.00797411
0.00799619
0.00801822
0.00804019
0.00806211
0.00808398
0.00810579
0.00812755
0.00814925
0.0081709
0.00819249
0.00821402
0.00823549
0.00825691
0.00827827
0.00829956
0.0083208
0.00834198
0.00836309
0.00838414
0.00840513
0.00842605
0.00844691
0.00846771
0.00848843
0.00850909
0.00852968
0.0085502
0.00857066
0.00859104
0.00861135
0.00863159
0.00865175
0.00867184
0.00869186
0.0087118
0.00873166
0.00875144
0.00877114
0.00879077
0.00881031
0.00882977
0.00884915
0.00886844
0.00888764
0.00890676
0.00892579
0.00894473
0.00896358
0.00898234
0.009001
0.00901957
0.00903805
0.00905642
0.0090747
0.00909287
0.00911095
0.00912892
0.00914678
0.00916454
0.00918219
0.00919973
0.00921716
0.00923447
0.00925167
0.00926875
0.00928571
0.00930254
0.00931926
0.00933585
0.00935231
0.00936864
0.00938484
0.0094009
0.00941683
0.00943262
0.00944826
0.00946376
0.00947912
0.00949432
0.00950937
0.00952426
0.00953899
0.00955356
0.00956797
0.00958221
0.0095962
0.00961088
0.00961625
0.00971484
0.00783055
6.93138e-06
-0.00782355
-0.00971477
-0.00961625
-0.00961087
-0.00959619
-0.0095822
-0.00956796
-0.00955355
-0.00953898
-0.00952425
-0.00950935
-0.0094943
-0.0094791
-0.00946375
-0.00944825
-0.0094326
-0.00941682
-0.00940089
-0.00938482
-0.00936863
-0.00935229
-0.00933583
-0.00931924
-0.00930253
-0.00928569
-0.00926873
-0.00925165
-0.00923445
-0.00921714
-0.00919971
-0.00918217
-0.00916452
-0.00914676
-0.0091289
-0.00911093
-0.00909285
-0.00907468
-0.0090564
-0.00903803
-0.00901955
-0.00900098
-0.00898232
-0.00896356
-0.00894471
-0.00892577
-0.00890674
-0.00888762
-0.00886842
-0.00884912
-0.00882975
-0.00881029
-0.00879075
-0.00877112
-0.00875142
-0.00873163
-0.00871177
-0.00869183
-0.00867182
-0.00865173
-0.00863156
-0.00861133
-0.00859102
-0.00857063
-0.00855018
-0.00852966
-0.00850907
-0.00848841
-0.00846768
-0.00844689
-0.00842603
-0.00840511
-0.00838412
-0.00836307
-0.00834195
-0.00832078
-0.00829954
-0.00827824
-0.00825689
-0.00823547
-0.00821399
-0.00819246
-0.00817087
-0.00814923
-0.00812752
-0.00810576
-0.00808395
-0.00806209
-0.00804017
-0.00801819
-0.00799617
-0.00797409
-0.00795196
-0.00792978
-0.00790755
-0.00788527
-0.00786294
-0.00784057
-0.00781814
-0.00779567
-0.00777315
-0.00775058
-0.00772797
-0.00770531
-0.0076826
-0.00765985
-0.00763706
-0.00761422
-0.00759134
-0.00756842
-0.00754545
-0.00752244
-0.00749939
-0.0074763
-0.00745317
-0.00742999
-0.00740678
-0.00738352
-0.00736023
-0.0073369
-0.00731353
-0.00729012
-0.00726667
-0.00724318
-0.00721966
-0.0071961
-0.0071725
-0.00714887
-0.0071252
-0.0071015
-0.00707776
-0.00705398
-0.00703017
-0.00700633
-0.00698245
-0.00695854
-0.0069346
-0.00691062
-0.00688661
-0.00686257
-0.00683849
-0.00681438
-0.00679024
-0.00676607
-0.00674187
-0.00671764
-0.00669338
-0.00666908
-0.00664476
-0.00662041
-0.00659603
-0.00657161
-0.00654717
-0.0065227
-0.00649821
-0.00647368
-0.00644912
-0.00642454
-0.00639993
-0.0063753
-0.00635063
-0.00632594
-0.00630122
-0.00627648
-0.00625171
-0.00622692
-0.00620209
-0.00617725
-0.00615238
-0.00612748
-0.00610256
-0.00607761
-0.00605264
-0.00602764
-0.00600262
-0.00597758
-0.00595251
-0.00592742
-0.00590231
-0.00587717
-0.00585201
-0.00582683
-0.00580163
-0.0057764
-0.00575115
-0.00572588
-0.00570059
-0.00567527
-0.00564994
-0.00562458
-0.0055992
-0.0055738
-0.00554838
-0.00552294
-0.00549748
-0.005472
-0.0054465
-0.00542098
-0.00539544
-0.00536988
-0.00534431
-0.00531871
-0.00529309
-0.00526746
-0.0052418
-0.00521613
-0.00519044
-0.00516473
-0.005139
-0.00511325
-0.00508749
-0.00506171
-0.00503591
-0.00501009
-0.00498426
-0.00495841
-0.00493254
-0.00490666
-0.00488076
-0.00485484
-0.00482891
-0.00480296
-0.00477699
-0.00475101
-0.00472501
-0.004699
-0.00467297
-0.00464692
-0.00462086
-0.00459479
-0.0045687
-0.00454259
-0.00451647
-0.00449034
-0.00446419
-0.00443803
-0.00441185
-0.00438566
-0.00435945
-0.00433323
-0.004307
-0.00428075
-0.00425449
-0.00422822
-0.00420193
-0.00417563
-0.00414931
-0.00412299
-0.00409665
-0.00407029
-0.00404393
-0.00401755
-0.00399116
-0.00396476
-0.00393834
-0.00391191
-0.00388548
-0.00385902
-0.00383256
-0.00380609
-0.0037796
-0.0037531
-0.0037266
-0.00370008
-0.00367354
-0.003647
-0.00362045
-0.00359389
-0.00356731
-0.00354073
-0.00351413
-0.00348752
-0.00346091
-0.00343428
-0.00340764
-0.003381
-0.00335434
-0.00332767
-0.003301
-0.00327431
-0.00324762
-0.00322091
-0.0031942
-0.00316747
-0.00314074
-0.003114
-0.00308725
-0.00306049
-0.00303372
-0.00300694
-0.00298016
-0.00295336
-0.00292656
-0.00289975
-0.00287293
-0.0028461
-0.00281927
-0.00279242
-0.00276557
-0.00273871
-0.00271184
-0.00268497
-0.00265809
-0.0026312
-0.0026043
-0.0025774
-0.00255048
-0.00252357
-0.00249664
-0.00246971
-0.00244277
-0.00241582
-0.00238887
-0.00236191
-0.00233494
-0.00230797
-0.00228099
-0.00225401
-0.00222701
-0.00220002
-0.00217301
-0.002146
-0.00211899
-0.00209197
-0.00206494
-0.00203791
-0.00201087
-0.00198383
-0.00195678
-0.00192972
-0.00190266
-0.0018756
-0.00184853
-0.00182145
-0.00179437
-0.00176729
-0.0017402
-0.00171311
-0.00168601
-0.0016589
-0.0016318
-0.00160468
-0.00157757
-0.00155045
-0.00152332
-0.00149619
-0.00146906
-0.00144192
-0.00141478
-0.00138764
-0.00136049
-0.00133334
-0.00130618
-0.00127903
-0.00125186
-0.0012247
-0.00119753
-0.00117036
-0.00114318
-0.00111601
-0.00108882
-0.00106164
-0.00103445
-0.00100726
-0.000980073
-0.000952878
-0.000925681
-0.000898482
-0.00087128
-0.000844076
-0.000816869
-0.000789661
-0.00076245
-0.000735237
-0.000708023
-0.000680806
-0.000653588
-0.000626368
-0.000599146
-0.000571923
-0.000544699
-0.000517472
-0.000490245
-0.000463016
-0.000435786
-0.000408555
-0.000381323
-0.00035409
-0.000326856
-0.000299621
-0.000272385
-0.000245148
-0.000217911
-0.000190674
-0.000163436
-0.000136197
-0.000108958
-8.17187e-05
-5.44793e-05
-2.72397e-05
)
;

boundaryField
{
    left
    {
        type            calculated;
        value           uniform 0;
    }
    right
    {
        type            calculated;
        value           uniform 0;
    }
    frontBackUpDown
    {
        type            empty;
    }
}


// ************************************************************************* //
