/*--------------------------------*- C++ -*----------------------------------*\
| =========                 |                                                 |
| \\      /  F ield         | OpenFOAM: The Open Source CFD Toolbox           |
|  \\    /   O peration     | Version:  2412                                  |
|   \\  /    A nd           | Website:  www.openfoam.com                      |
|    \\/     M anipulation  |                                                 |
\*---------------------------------------------------------------------------*/
FoamFile
{
    version     2.0;
    format      ascii;
    arch        "LSB;label=32;scalar=64";
    class       volVectorField;
    location    "0.6";
    object      U;
}
// * * * * * * * * * * * * * * * * * * * * * * * * * * * * * * * * * * * * * //

dimensions      [0 1 -1 0 0 0 0];

internalField   nonuniform List<vector> 
800
(
(0.00136197 0 0)
(0.00408593 0 0)
(0.00680989 0 0)
(0.00953383 0 0)
(0.0122577 0 0)
(0.0149816 0 0)
(0.0177055 0 0)
(0.0204293 0 0)
(0.023153 0 0)
(0.0258767 0 0)
(0.0286003 0 0)
(0.0313238 0 0)
(0.0340473 0 0)
(0.0367707 0 0)
(0.0394939 0 0)
(0.0422171 0 0)
(0.0449402 0 0)
(0.0476631 0 0)
(0.0503859 0 0)
(0.0531086 0 0)
(0.0558311 0 0)
(0.0585535 0 0)
(0.0612758 0 0)
(0.0639979 0 0)
(0.0667198 0 0)
(0.0694415 0 0)
(0.0721631 0 0)
(0.0748844 0 0)
(0.0776056 0 0)
(0.0803266 0 0)
(0.0830473 0 0)
(0.0857679 0 0)
(0.0884882 0 0)
(0.0912083 0 0)
(0.0939281 0 0)
(0.0966477 0 0)
(0.099367 0 0)
(0.102086 0 0)
(0.104805 0 0)
(0.107523 0 0)
(0.110242 0 0)
(0.11296 0 0)
(0.115677 0 0)
(0.118395 0 0)
(0.121112 0 0)
(0.123828 0 0)
(0.126545 0 0)
(0.129261 0 0)
(0.131976 0 0)
(0.134692 0 0)
(0.137407 0 0)
(0.140121 0 0)
(0.142836 0 0)
(0.14555 0 0)
(0.148263 0 0)
(0.150976 0 0)
(0.153689 0 0)
(0.156401 0 0)
(0.159113 0 0)
(0.161824 0 0)
(0.164535 0 0)
(0.167246 0 0)
(0.169956 0 0)
(0.172666 0 0)
(0.175375 0 0)
(0.178083 0 0)
(0.180792 0 0)
(0.183499 0 0)
(0.186207 0 0)
(0.188913 0 0)
(0.19162 0 0)
(0.194325 0 0)
(0.19703 0 0)
(0.199735 0 0)
(0.202439 0 0)
(0.205143 0 0)
(0.207846 0 0)
(0.210548 0 0)
(0.21325 0 0)
(0.215951 0 0)
(0.218652 0 0)
(0.221352 0 0)
(0.224051 0 0)
(0.22675 0 0)
(0.229448 0 0)
(0.232146 0 0)
(0.234843 0 0)
(0.237539 0 0)
(0.240235 0 0)
(0.24293 0 0)
(0.245624 0 0)
(0.248318 0 0)
(0.251011 0 0)
(0.253703 0 0)
(0.256395 0 0)
(0.259085 0 0)
(0.261775 0 0)
(0.264465 0 0)
(0.267153 0 0)
(0.269841 0 0)
(0.272528 0 0)
(0.275215 0 0)
(0.2779 0 0)
(0.280585 0 0)
(0.283269 0 0)
(0.285952 0 0)
(0.288635 0 0)
(0.291316 0 0)
(0.293997 0 0)
(0.296677 0 0)
(0.299356 0 0)
(0.302034 0 0)
(0.304711 0 0)
(0.307388 0 0)
(0.310063 0 0)
(0.312738 0 0)
(0.315412 0 0)
(0.318084 0 0)
(0.320756 0 0)
(0.323427 0 0)
(0.326097 0 0)
(0.328766 0 0)
(0.331435 0 0)
(0.334102 0 0)
(0.336768 0 0)
(0.339433 0 0)
(0.342097 0 0)
(0.34476 0 0)
(0.347423 0 0)
(0.350084 0 0)
(0.352744 0 0)
(0.355403 0 0)
(0.358061 0 0)
(0.360718 0 0)
(0.363374 0 0)
(0.366028 0 0)
(0.368682 0 0)
(0.371335 0 0)
(0.373986 0 0)
(0.376636 0 0)
(0.379286 0 0)
(0.381934 0 0)
(0.38458 0 0)
(0.387226 0 0)
(0.389871 0 0)
(0.392514 0 0)
(0.395156 0 0)
(0.397797 0 0)
(0.400437 0 0)
(0.403075 0 0)
(0.405712 0 0)
(0.408348 0 0)
(0.410983 0 0)
(0.413616 0 0)
(0.416248 0 0)
(0.418879 0 0)
(0.421508 0 0)
(0.424137 0 0)
(0.426763 0 0)
(0.429389 0 0)
(0.432013 0 0)
(0.434636 0 0)
(0.437257 0 0)
(0.439877 0 0)
(0.442495 0 0)
(0.445112 0 0)
(0.447728 0 0)
(0.450342 0 0)
(0.452955 0 0)
(0.455566 0 0)
(0.458176 0 0)
(0.460784 0 0)
(0.463391 0 0)
(0.465996 0 0)
(0.4686 0 0)
(0.471202 0 0)
(0.473803 0 0)
(0.476402 0 0)
(0.478999 0 0)
(0.481595 0 0)
(0.484189 0 0)
(0.486782 0 0)
(0.489373 0 0)
(0.491962 0 0)
(0.494549 0 0)
(0.497135 0 0)
(0.499719 0 0)
(0.502302 0 0)
(0.504883 0 0)
(0.507462 0 0)
(0.510039 0 0)
(0.512614 0 0)
(0.515188 0 0)
(0.51776 0 0)
(0.52033 0 0)
(0.522898 0 0)
(0.525465 0 0)
(0.528029 0 0)
(0.530592 0 0)
(0.533153 0 0)
(0.535712 0 0)
(0.538268 0 0)
(0.540823 0 0)
(0.543376 0 0)
(0.545927 0 0)
(0.548477 0 0)
(0.551024 0 0)
(0.553569 0 0)
(0.556112 0 0)
(0.558652 0 0)
(0.561191 0 0)
(0.563728 0 0)
(0.566263 0 0)
(0.568795 0 0)
(0.571326 0 0)
(0.573854 0 0)
(0.57638 0 0)
(0.578904 0 0)
(0.581425 0 0)
(0.583944 0 0)
(0.586462 0 0)
(0.588976 0 0)
(0.591489 0 0)
(0.593999 0 0)
(0.596507 0 0)
(0.599013 0 0)
(0.601516 0 0)
(0.604016 0 0)
(0.606515 0 0)
(0.609011 0 0)
(0.611504 0 0)
(0.613995 0 0)
(0.616484 0 0)
(0.61897 0 0)
(0.621453 0 0)
(0.623934 0 0)
(0.626412 0 0)
(0.628888 0 0)
(0.631361 0 0)
(0.633831 0 0)
(0.636299 0 0)
(0.638764 0 0)
(0.641227 0 0)
(0.643686 0 0)
(0.646143 0 0)
(0.648597 0 0)
(0.651048 0 0)
(0.653497 0 0)
(0.655942 0 0)
(0.658385 0 0)
(0.660824 0 0)
(0.663261 0 0)
(0.665695 0 0)
(0.668126 0 0)
(0.670554 0 0)
(0.672979 0 0)
(0.6754 0 0)
(0.677819 0 0)
(0.680234 0 0)
(0.682647 0 0)
(0.685056 0 0)
(0.687462 0 0)
(0.689864 0 0)
(0.692264 0 0)
(0.69466 0 0)
(0.697053 0 0)
(0.699442 0 0)
(0.701828 0 0)
(0.704211 0 0)
(0.70659 0 0)
(0.708966 0 0)
(0.711338 0 0)
(0.713707 0 0)
(0.716072 0 0)
(0.718433 0 0)
(0.720791 0 0)
(0.723145 0 0)
(0.725496 0 0)
(0.727842 0 0)
(0.730185 0 0)
(0.732524 0 0)
(0.73486 0 0)
(0.737191 0 0)
(0.739518 0 0)
(0.741842 0 0)
(0.744161 0 0)
(0.746477 0 0)
(0.748788 0 0)
(0.751095 0 0)
(0.753398 0 0)
(0.755697 0 0)
(0.757991 0 0)
(0.760282 0 0)
(0.762568 0 0)
(0.764849 0 0)
(0.767126 0 0)
(0.769399 0 0)
(0.771667 0 0)
(0.773931 0 0)
(0.77619 0 0)
(0.778444 0 0)
(0.780694 0 0)
(0.782939 0 0)
(0.785179 0 0)
(0.787414 0 0)
(0.789645 0 0)
(0.79187 0 0)
(0.794091 0 0)
(0.796306 0 0)
(0.798516 0 0)
(0.800722 0 0)
(0.802922 0 0)
(0.805116 0 0)
(0.807306 0 0)
(0.80949 0 0)
(0.811668 0 0)
(0.813841 0 0)
(0.816009 0 0)
(0.81817 0 0)
(0.820327 0 0)
(0.822477 0 0)
(0.824622 0 0)
(0.82676 0 0)
(0.828893 0 0)
(0.83102 0 0)
(0.83314 0 0)
(0.835255 0 0)
(0.837363 0 0)
(0.839465 0 0)
(0.841561 0 0)
(0.84365 0 0)
(0.845733 0 0)
(0.847809 0 0)
(0.849878 0 0)
(0.85194 0 0)
(0.853996 0 0)
(0.856045 0 0)
(0.858087 0 0)
(0.860121 0 0)
(0.862149 0 0)
(0.864169 0 0)
(0.866182 0 0)
(0.868187 0 0)
(0.870184 0 0)
(0.872175 0 0)
(0.874157 0 0)
(0.876131 0 0)
(0.878098 0 0)
(0.880056 0 0)
(0.882006 0 0)
(0.883948 0 0)
(0.885881 0 0)
(0.887806 0 0)
(0.889722 0 0)
(0.89163 0 0)
(0.893528 0 0)
(0.895418 0 0)
(0.897298 0 0)
(0.899169 0 0)
(0.901031 0 0)
(0.902883 0 0)
(0.904726 0 0)
(0.906558 0 0)
(0.908381 0 0)
(0.910194 0 0)
(0.911996 0 0)
(0.913788 0 0)
(0.915569 0 0)
(0.917339 0 0)
(0.919099 0 0)
(0.920847 0 0)
(0.922584 0 0)
(0.92431 0 0)
(0.926024 0 0)
(0.927726 0 0)
(0.929416 0 0)
(0.931093 0 0)
(0.932759 0 0)
(0.934411 0 0)
(0.936051 0 0)
(0.937677 0 0)
(0.939291 0 0)
(0.94089 0 0)
(0.942476 0 0)
(0.944048 0 0)
(0.945605 0 0)
(0.947148 0 0)
(0.948676 0 0)
(0.950188 0 0)
(0.951685 0 0)
(0.953167 0 0)
(0.954632 0 0)
(0.956081 0 0)
(0.957513 0 0)
(0.958929 0 0)
(0.96031 0 0)
(0.961867 0 0)
(0.961384 0 0)
(0.981585 0 0)
(0.584524 0 0)
(-0.583138 0 0)
(-0.981571 0 0)
(-0.961384 0 0)
(-0.961866 0 0)
(-0.960309 0 0)
(-0.958928 0 0)
(-0.957512 0 0)
(-0.95608 0 0)
(-0.954631 0 0)
(-0.953165 0 0)
(-0.951684 0 0)
(-0.950187 0 0)
(-0.948674 0 0)
(-0.947146 0 0)
(-0.945604 0 0)
(-0.944046 0 0)
(-0.942475 0 0)
(-0.940889 0 0)
(-0.939289 0 0)
(-0.937676 0 0)
(-0.936049 0 0)
(-0.93441 0 0)
(-0.932757 0 0)
(-0.931092 0 0)
(-0.929414 0 0)
(-0.927724 0 0)
(-0.926022 0 0)
(-0.924308 0 0)
(-0.922582 0 0)
(-0.920845 0 0)
(-0.919097 0 0)
(-0.917337 0 0)
(-0.915567 0 0)
(-0.913786 0 0)
(-0.911994 0 0)
(-0.910192 0 0)
(-0.908379 0 0)
(-0.906557 0 0)
(-0.904724 0 0)
(-0.902881 0 0)
(-0.901029 0 0)
(-0.899167 0 0)
(-0.897296 0 0)
(-0.895416 0 0)
(-0.893526 0 0)
(-0.891628 0 0)
(-0.88972 0 0)
(-0.887804 0 0)
(-0.885879 0 0)
(-0.883946 0 0)
(-0.882004 0 0)
(-0.880054 0 0)
(-0.878095 0 0)
(-0.876129 0 0)
(-0.874155 0 0)
(-0.872172 0 0)
(-0.870182 0 0)
(-0.868185 0 0)
(-0.866179 0 0)
(-0.864167 0 0)
(-0.862146 0 0)
(-0.860119 0 0)
(-0.858084 0 0)
(-0.856043 0 0)
(-0.853994 0 0)
(-0.851938 0 0)
(-0.849876 0 0)
(-0.847806 0 0)
(-0.84573 0 0)
(-0.843648 0 0)
(-0.841559 0 0)
(-0.839463 0 0)
(-0.837361 0 0)
(-0.835253 0 0)
(-0.833138 0 0)
(-0.831018 0 0)
(-0.828891 0 0)
(-0.826758 0 0)
(-0.824619 0 0)
(-0.822475 0 0)
(-0.820324 0 0)
(-0.818168 0 0)
(-0.816006 0 0)
(-0.813839 0 0)
(-0.811666 0 0)
(-0.809487 0 0)
(-0.807303 0 0)
(-0.805114 0 0)
(-0.802919 0 0)
(-0.800719 0 0)
(-0.798514 0 0)
(-0.796304 0 0)
(-0.794088 0 0)
(-0.791868 0 0)
(-0.789642 0 0)
(-0.787412 0 0)
(-0.785177 0 0)
(-0.782937 0 0)
(-0.780692 0 0)
(-0.778442 0 0)
(-0.776188 0 0)
(-0.773929 0 0)
(-0.771665 0 0)
(-0.769397 0 0)
(-0.767124 0 0)
(-0.764847 0 0)
(-0.762565 0 0)
(-0.760279 0 0)
(-0.757989 0 0)
(-0.755695 0 0)
(-0.753396 0 0)
(-0.751093 0 0)
(-0.748786 0 0)
(-0.746474 0 0)
(-0.744159 0 0)
(-0.74184 0 0)
(-0.739516 0 0)
(-0.737189 0 0)
(-0.734857 0 0)
(-0.732522 0 0)
(-0.730183 0 0)
(-0.72784 0 0)
(-0.725493 0 0)
(-0.723143 0 0)
(-0.720789 0 0)
(-0.718431 0 0)
(-0.71607 0 0)
(-0.713705 0 0)
(-0.711336 0 0)
(-0.708964 0 0)
(-0.706588 0 0)
(-0.704209 0 0)
(-0.701826 0 0)
(-0.69944 0 0)
(-0.697051 0 0)
(-0.694658 0 0)
(-0.692262 0 0)
(-0.689862 0 0)
(-0.68746 0 0)
(-0.685054 0 0)
(-0.682644 0 0)
(-0.680232 0 0)
(-0.677817 0 0)
(-0.675398 0 0)
(-0.672976 0 0)
(-0.670552 0 0)
(-0.668124 0 0)
(-0.665693 0 0)
(-0.663259 0 0)
(-0.660822 0 0)
(-0.658383 0 0)
(-0.65594 0 0)
(-0.653495 0 0)
(-0.651046 0 0)
(-0.648595 0 0)
(-0.646141 0 0)
(-0.643684 0 0)
(-0.641225 0 0)
(-0.638762 0 0)
(-0.636297 0 0)
(-0.633829 0 0)
(-0.631359 0 0)
(-0.628886 0 0)
(-0.62641 0 0)
(-0.623932 0 0)
(-0.621451 0 0)
(-0.618968 0 0)
(-0.616482 0 0)
(-0.613993 0 0)
(-0.611502 0 0)
(-0.609009 0 0)
(-0.606513 0 0)
(-0.604015 0 0)
(-0.601514 0 0)
(-0.599011 0 0)
(-0.596505 0 0)
(-0.593997 0 0)
(-0.591487 0 0)
(-0.588975 0 0)
(-0.58646 0 0)
(-0.583943 0 0)
(-0.581423 0 0)
(-0.578902 0 0)
(-0.576378 0 0)
(-0.573852 0 0)
(-0.571324 0 0)
(-0.568793 0 0)
(-0.566261 0 0)
(-0.563726 0 0)
(-0.56119 0 0)
(-0.558651 0 0)
(-0.55611 0 0)
(-0.553567 0 0)
(-0.551022 0 0)
(-0.548475 0 0)
(-0.545926 0 0)
(-0.543375 0 0)
(-0.540822 0 0)
(-0.538267 0 0)
(-0.53571 0 0)
(-0.533151 0 0)
(-0.53059 0 0)
(-0.528028 0 0)
(-0.525463 0 0)
(-0.522897 0 0)
(-0.520329 0 0)
(-0.517759 0 0)
(-0.515187 0 0)
(-0.512613 0 0)
(-0.510038 0 0)
(-0.50746 0 0)
(-0.504881 0 0)
(-0.502301 0 0)
(-0.499718 0 0)
(-0.497134 0 0)
(-0.494548 0 0)
(-0.49196 0 0)
(-0.489371 0 0)
(-0.48678 0 0)
(-0.484188 0 0)
(-0.481594 0 0)
(-0.478998 0 0)
(-0.4764 0 0)
(-0.473801 0 0)
(-0.471201 0 0)
(-0.468599 0 0)
(-0.465995 0 0)
(-0.46339 0 0)
(-0.460783 0 0)
(-0.458175 0 0)
(-0.455565 0 0)
(-0.452954 0 0)
(-0.450341 0 0)
(-0.447727 0 0)
(-0.445111 0 0)
(-0.442494 0 0)
(-0.439876 0 0)
(-0.437256 0 0)
(-0.434634 0 0)
(-0.432012 0 0)
(-0.429388 0 0)
(-0.426762 0 0)
(-0.424136 0 0)
(-0.421507 0 0)
(-0.418878 0 0)
(-0.416247 0 0)
(-0.413615 0 0)
(-0.410982 0 0)
(-0.408347 0 0)
(-0.405711 0 0)
(-0.403074 0 0)
(-0.400436 0 0)
(-0.397796 0 0)
(-0.395155 0 0)
(-0.392513 0 0)
(-0.38987 0 0)
(-0.387225 0 0)
(-0.38458 0 0)
(-0.381933 0 0)
(-0.379285 0 0)
(-0.376636 0 0)
(-0.373985 0 0)
(-0.371334 0 0)
(-0.368681 0 0)
(-0.366028 0 0)
(-0.363373 0 0)
(-0.360717 0 0)
(-0.35806 0 0)
(-0.355402 0 0)
(-0.352743 0 0)
(-0.350083 0 0)
(-0.347422 0 0)
(-0.34476 0 0)
(-0.342097 0 0)
(-0.339432 0 0)
(-0.336767 0 0)
(-0.334101 0 0)
(-0.331434 0 0)
(-0.328766 0 0)
(-0.326097 0 0)
(-0.323427 0 0)
(-0.320756 0 0)
(-0.318084 0 0)
(-0.315411 0 0)
(-0.312737 0 0)
(-0.310063 0 0)
(-0.307387 0 0)
(-0.304711 0 0)
(-0.302033 0 0)
(-0.299355 0 0)
(-0.296676 0 0)
(-0.293996 0 0)
(-0.291316 0 0)
(-0.288634 0 0)
(-0.285952 0 0)
(-0.283269 0 0)
(-0.280585 0 0)
(-0.2779 0 0)
(-0.275214 0 0)
(-0.272528 0 0)
(-0.269841 0 0)
(-0.267153 0 0)
(-0.264464 0 0)
(-0.261775 0 0)
(-0.259085 0 0)
(-0.256394 0 0)
(-0.253703 0 0)
(-0.25101 0 0)
(-0.248317 0 0)
(-0.245624 0 0)
(-0.24293 0 0)
(-0.240235 0 0)
(-0.237539 0 0)
(-0.234843 0 0)
(-0.232146 0 0)
(-0.229448 0 0)
(-0.22675 0 0)
(-0.224051 0 0)
(-0.221352 0 0)
(-0.218652 0 0)
(-0.215951 0 0)
(-0.21325 0 0)
(-0.210548 0 0)
(-0.207845 0 0)
(-0.205142 0 0)
(-0.202439 0 0)
(-0.199735 0 0)
(-0.19703 0 0)
(-0.194325 0 0)
(-0.191619 0 0)
(-0.188913 0 0)
(-0.186206 0 0)
(-0.183499 0 0)
(-0.180791 0 0)
(-0.178083 0 0)
(-0.175375 0 0)
(-0.172665 0 0)
(-0.169956 0 0)
(-0.167246 0 0)
(-0.164535 0 0)
(-0.161824 0 0)
(-0.159113 0 0)
(-0.156401 0 0)
(-0.153689 0 0)
(-0.150976 0 0)
(-0.148263 0 0)
(-0.145549 0 0)
(-0.142836 0 0)
(-0.140121 0 0)
(-0.137407 0 0)
(-0.134692 0 0)
(-0.131976 0 0)
(-0.129261 0 0)
(-0.126545 0 0)
(-0.123828 0 0)
(-0.121112 0 0)
(-0.118394 0 0)
(-0.115677 0 0)
(-0.11296 0 0)
(-0.110242 0 0)
(-0.107523 0 0)
(-0.104805 0 0)
(-0.102086 0 0)
(-0.0993669 0 0)
(-0.0966476 0 0)
(-0.093928 0 0)
(-0.0912082 0 0)
(-0.0884881 0 0)
(-0.0857678 0 0)
(-0.0830473 0 0)
(-0.0803265 0 0)
(-0.0776056 0 0)
(-0.0748844 0 0)
(-0.072163 0 0)
(-0.0694415 0 0)
(-0.0667198 0 0)
(-0.0639978 0 0)
(-0.0612758 0 0)
(-0.0585535 0 0)
(-0.0558311 0 0)
(-0.0531086 0 0)
(-0.0503859 0 0)
(-0.0476631 0 0)
(-0.0449402 0 0)
(-0.0422171 0 0)
(-0.0394939 0 0)
(-0.0367707 0 0)
(-0.0340473 0 0)
(-0.0313238 0 0)
(-0.0286003 0 0)
(-0.0258767 0 0)
(-0.023153 0 0)
(-0.0204293 0 0)
(-0.0177055 0 0)
(-0.0149816 0 0)
(-0.0122578 0 0)
(-0.00953384 0 0)
(-0.0068099 0 0)
(-0.00408595 0 0)
(-0.00136198 0 0)
)
;

boundaryField
{
    left
    {
        type            fixedValue;
        value           uniform (0 0 0);
    }
    right
    {
        type            fixedValue;
        value           uniform (0 0 0);
    }
    frontBackUpDown
    {
        type            empty;
    }
}


// ************************************************************************* //
