/*--------------------------------*- C++ -*----------------------------------*\
| =========                 |                                                 |
| \\      /  F ield         | OpenFOAM: The Open Source CFD Toolbox           |
|  \\    /   O peration     | Version:  2412                                  |
|   \\  /    A nd           | Website:  www.openfoam.com                      |
|    \\/     M anipulation  |                                                 |
\*---------------------------------------------------------------------------*/
FoamFile
{
    version     2.0;
    format      ascii;
    arch        "LSB;label=32;scalar=64";
    class       volVectorField;
    location    "0.6";
    object      U_0;
}
// * * * * * * * * * * * * * * * * * * * * * * * * * * * * * * * * * * * * * //

dimensions      [0 1 -1 0 0 0 0];

internalField   nonuniform List<vector> 
800
(
(0.00136271 0 0)
(0.00408816 0 0)
(0.00681359 0 0)
(0.00953901 0 0)
(0.0122644 0 0)
(0.0149898 0 0)
(0.0177151 0 0)
(0.0204404 0 0)
(0.0231656 0 0)
(0.0258908 0 0)
(0.0286159 0 0)
(0.0313409 0 0)
(0.0340658 0 0)
(0.0367907 0 0)
(0.0395154 0 0)
(0.0422401 0 0)
(0.0449646 0 0)
(0.047689 0 0)
(0.0504133 0 0)
(0.0531375 0 0)
(0.0558615 0 0)
(0.0585854 0 0)
(0.0613091 0 0)
(0.0640327 0 0)
(0.066756 0 0)
(0.0694793 0 0)
(0.0722023 0 0)
(0.0749251 0 0)
(0.0776478 0 0)
(0.0803702 0 0)
(0.0830925 0 0)
(0.0858145 0 0)
(0.0885363 0 0)
(0.0912578 0 0)
(0.0939791 0 0)
(0.0967002 0 0)
(0.099421 0 0)
(0.102142 0 0)
(0.104862 0 0)
(0.107582 0 0)
(0.110301 0 0)
(0.113021 0 0)
(0.11574 0 0)
(0.118459 0 0)
(0.121177 0 0)
(0.123896 0 0)
(0.126613 0 0)
(0.129331 0 0)
(0.132048 0 0)
(0.134765 0 0)
(0.137481 0 0)
(0.140197 0 0)
(0.142913 0 0)
(0.145628 0 0)
(0.148343 0 0)
(0.151058 0 0)
(0.153772 0 0)
(0.156486 0 0)
(0.159199 0 0)
(0.161912 0 0)
(0.164624 0 0)
(0.167336 0 0)
(0.170048 0 0)
(0.172759 0 0)
(0.17547 0 0)
(0.17818 0 0)
(0.180889 0 0)
(0.183599 0 0)
(0.186307 0 0)
(0.189015 0 0)
(0.191723 0 0)
(0.19443 0 0)
(0.197137 0 0)
(0.199843 0 0)
(0.202549 0 0)
(0.205253 0 0)
(0.207958 0 0)
(0.210662 0 0)
(0.213365 0 0)
(0.216068 0 0)
(0.21877 0 0)
(0.221471 0 0)
(0.224172 0 0)
(0.226872 0 0)
(0.229572 0 0)
(0.232271 0 0)
(0.23497 0 0)
(0.237667 0 0)
(0.240364 0 0)
(0.243061 0 0)
(0.245756 0 0)
(0.248451 0 0)
(0.251146 0 0)
(0.253839 0 0)
(0.256532 0 0)
(0.259225 0 0)
(0.261916 0 0)
(0.264607 0 0)
(0.267297 0 0)
(0.269986 0 0)
(0.272675 0 0)
(0.275362 0 0)
(0.278049 0 0)
(0.280735 0 0)
(0.283421 0 0)
(0.286105 0 0)
(0.288789 0 0)
(0.291472 0 0)
(0.294154 0 0)
(0.296835 0 0)
(0.299516 0 0)
(0.302195 0 0)
(0.304874 0 0)
(0.307552 0 0)
(0.310229 0 0)
(0.312905 0 0)
(0.31558 0 0)
(0.318254 0 0)
(0.320927 0 0)
(0.3236 0 0)
(0.326271 0 0)
(0.328942 0 0)
(0.331611 0 0)
(0.33428 0 0)
(0.336947 0 0)
(0.339614 0 0)
(0.342279 0 0)
(0.344944 0 0)
(0.347607 0 0)
(0.35027 0 0)
(0.352931 0 0)
(0.355592 0 0)
(0.358251 0 0)
(0.360909 0 0)
(0.363566 0 0)
(0.366223 0 0)
(0.368878 0 0)
(0.371531 0 0)
(0.374184 0 0)
(0.376836 0 0)
(0.379486 0 0)
(0.382136 0 0)
(0.384784 0 0)
(0.387431 0 0)
(0.390077 0 0)
(0.392721 0 0)
(0.395365 0 0)
(0.398007 0 0)
(0.400648 0 0)
(0.403287 0 0)
(0.405926 0 0)
(0.408563 0 0)
(0.411199 0 0)
(0.413834 0 0)
(0.416467 0 0)
(0.419099 0 0)
(0.42173 0 0)
(0.424359 0 0)
(0.426987 0 0)
(0.429614 0 0)
(0.432239 0 0)
(0.434863 0 0)
(0.437486 0 0)
(0.440107 0 0)
(0.442727 0 0)
(0.445345 0 0)
(0.447962 0 0)
(0.450577 0 0)
(0.453191 0 0)
(0.455804 0 0)
(0.458415 0 0)
(0.461024 0 0)
(0.463632 0 0)
(0.466239 0 0)
(0.468844 0 0)
(0.471447 0 0)
(0.474049 0 0)
(0.476649 0 0)
(0.479248 0 0)
(0.481845 0 0)
(0.48444 0 0)
(0.487034 0 0)
(0.489626 0 0)
(0.492216 0 0)
(0.494805 0 0)
(0.497392 0 0)
(0.499977 0 0)
(0.502561 0 0)
(0.505143 0 0)
(0.507723 0 0)
(0.510302 0 0)
(0.512878 0 0)
(0.515453 0 0)
(0.518026 0 0)
(0.520597 0 0)
(0.523167 0 0)
(0.525734 0 0)
(0.5283 0 0)
(0.530863 0 0)
(0.533425 0 0)
(0.535985 0 0)
(0.538543 0 0)
(0.541099 0 0)
(0.543653 0 0)
(0.546206 0 0)
(0.548756 0 0)
(0.551304 0 0)
(0.55385 0 0)
(0.556394 0 0)
(0.558936 0 0)
(0.561476 0 0)
(0.564014 0 0)
(0.566549 0 0)
(0.569083 0 0)
(0.571614 0 0)
(0.574143 0 0)
(0.576671 0 0)
(0.579195 0 0)
(0.581718 0 0)
(0.584238 0 0)
(0.586756 0 0)
(0.589272 0 0)
(0.591786 0 0)
(0.594297 0 0)
(0.596806 0 0)
(0.599312 0 0)
(0.601816 0 0)
(0.604318 0 0)
(0.606817 0 0)
(0.609314 0 0)
(0.611809 0 0)
(0.614301 0 0)
(0.61679 0 0)
(0.619277 0 0)
(0.621761 0 0)
(0.624243 0 0)
(0.626722 0 0)
(0.629199 0 0)
(0.631673 0 0)
(0.634144 0 0)
(0.636613 0 0)
(0.639079 0 0)
(0.641542 0 0)
(0.644002 0 0)
(0.64646 0 0)
(0.648915 0 0)
(0.651367 0 0)
(0.653816 0 0)
(0.656262 0 0)
(0.658706 0 0)
(0.661146 0 0)
(0.663584 0 0)
(0.666019 0 0)
(0.66845 0 0)
(0.670879 0 0)
(0.673304 0 0)
(0.675727 0 0)
(0.678146 0 0)
(0.680562 0 0)
(0.682976 0 0)
(0.685385 0 0)
(0.687792 0 0)
(0.690195 0 0)
(0.692596 0 0)
(0.694992 0 0)
(0.697386 0 0)
(0.699776 0 0)
(0.702163 0 0)
(0.704546 0 0)
(0.706926 0 0)
(0.709302 0 0)
(0.711675 0 0)
(0.714044 0 0)
(0.71641 0 0)
(0.718772 0 0)
(0.721131 0 0)
(0.723485 0 0)
(0.725836 0 0)
(0.728184 0 0)
(0.730527 0 0)
(0.732867 0 0)
(0.735202 0 0)
(0.737534 0 0)
(0.739862 0 0)
(0.742186 0 0)
(0.744506 0 0)
(0.746822 0 0)
(0.749134 0 0)
(0.751441 0 0)
(0.753745 0 0)
(0.756044 0 0)
(0.758339 0 0)
(0.760629 0 0)
(0.762916 0 0)
(0.765198 0 0)
(0.767475 0 0)
(0.769748 0 0)
(0.772017 0 0)
(0.774281 0 0)
(0.77654 0 0)
(0.778795 0 0)
(0.781045 0 0)
(0.78329 0 0)
(0.78553 0 0)
(0.787766 0 0)
(0.789996 0 0)
(0.792222 0 0)
(0.794443 0 0)
(0.796658 0 0)
(0.798869 0 0)
(0.801074 0 0)
(0.803274 0 0)
(0.805469 0 0)
(0.807659 0 0)
(0.809843 0 0)
(0.812021 0 0)
(0.814194 0 0)
(0.816362 0 0)
(0.818524 0 0)
(0.82068 0 0)
(0.82283 0 0)
(0.824975 0 0)
(0.827113 0 0)
(0.829246 0 0)
(0.831373 0 0)
(0.833493 0 0)
(0.835608 0 0)
(0.837716 0 0)
(0.839817 0 0)
(0.841913 0 0)
(0.844002 0 0)
(0.846084 0 0)
(0.84816 0 0)
(0.850229 0 0)
(0.852291 0 0)
(0.854347 0 0)
(0.856395 0 0)
(0.858436 0 0)
(0.860471 0 0)
(0.862498 0 0)
(0.864517 0 0)
(0.86653 0 0)
(0.868534 0 0)
(0.870531 0 0)
(0.872521 0 0)
(0.874503 0 0)
(0.876476 0 0)
(0.878442 0 0)
(0.8804 0 0)
(0.882349 0 0)
(0.88429 0 0)
(0.886223 0 0)
(0.888147 0 0)
(0.890063 0 0)
(0.891969 0 0)
(0.893867 0 0)
(0.895756 0 0)
(0.897635 0 0)
(0.899505 0 0)
(0.901366 0 0)
(0.903217 0 0)
(0.905058 0 0)
(0.90689 0 0)
(0.908711 0 0)
(0.910523 0 0)
(0.912324 0 0)
(0.914114 0 0)
(0.915894 0 0)
(0.917663 0 0)
(0.919421 0 0)
(0.921168 0 0)
(0.922904 0 0)
(0.924628 0 0)
(0.92634 0 0)
(0.92804 0 0)
(0.929729 0 0)
(0.931405 0 0)
(0.933068 0 0)
(0.934719 0 0)
(0.936357 0 0)
(0.937981 0 0)
(0.939593 0 0)
(0.94119 0 0)
(0.942774 0 0)
(0.944343 0 0)
(0.945898 0 0)
(0.947439 0 0)
(0.948964 0 0)
(0.950474 0 0)
(0.951969 0 0)
(0.953448 0 0)
(0.95491 0 0)
(0.956357 0 0)
(0.957786 0 0)
(0.9592 0 0)
(0.960577 0 0)
(0.962132 0 0)
(0.961637 0 0)
(0.981901 0 0)
(0.58483 0 0)
(-0.583443 0 0)
(-0.981888 0 0)
(-0.961637 0 0)
(-0.962131 0 0)
(-0.960576 0 0)
(-0.959198 0 0)
(-0.957785 0 0)
(-0.956355 0 0)
(-0.954909 0 0)
(-0.953447 0 0)
(-0.951968 0 0)
(-0.950473 0 0)
(-0.948963 0 0)
(-0.947437 0 0)
(-0.945897 0 0)
(-0.944342 0 0)
(-0.942772 0 0)
(-0.941189 0 0)
(-0.939591 0 0)
(-0.93798 0 0)
(-0.936355 0 0)
(-0.934717 0 0)
(-0.933067 0 0)
(-0.931403 0 0)
(-0.929727 0 0)
(-0.928039 0 0)
(-0.926338 0 0)
(-0.924626 0 0)
(-0.922902 0 0)
(-0.921166 0 0)
(-0.919419 0 0)
(-0.917661 0 0)
(-0.915892 0 0)
(-0.914112 0 0)
(-0.912322 0 0)
(-0.910521 0 0)
(-0.908709 0 0)
(-0.906888 0 0)
(-0.905056 0 0)
(-0.903215 0 0)
(-0.901364 0 0)
(-0.899503 0 0)
(-0.897633 0 0)
(-0.895754 0 0)
(-0.893865 0 0)
(-0.891967 0 0)
(-0.890061 0 0)
(-0.888145 0 0)
(-0.886221 0 0)
(-0.884288 0 0)
(-0.882347 0 0)
(-0.880398 0 0)
(-0.87844 0 0)
(-0.876474 0 0)
(-0.8745 0 0)
(-0.872519 0 0)
(-0.870529 0 0)
(-0.868532 0 0)
(-0.866527 0 0)
(-0.864515 0 0)
(-0.862495 0 0)
(-0.860468 0 0)
(-0.858434 0 0)
(-0.856393 0 0)
(-0.854344 0 0)
(-0.852289 0 0)
(-0.850227 0 0)
(-0.848158 0 0)
(-0.846082 0 0)
(-0.844 0 0)
(-0.841911 0 0)
(-0.839815 0 0)
(-0.837713 0 0)
(-0.835605 0 0)
(-0.833491 0 0)
(-0.83137 0 0)
(-0.829244 0 0)
(-0.827111 0 0)
(-0.824972 0 0)
(-0.822828 0 0)
(-0.820677 0 0)
(-0.818521 0 0)
(-0.816359 0 0)
(-0.814192 0 0)
(-0.812019 0 0)
(-0.80984 0 0)
(-0.807656 0 0)
(-0.805467 0 0)
(-0.803272 0 0)
(-0.801072 0 0)
(-0.798866 0 0)
(-0.796656 0 0)
(-0.79444 0 0)
(-0.79222 0 0)
(-0.789994 0 0)
(-0.787763 0 0)
(-0.785528 0 0)
(-0.783287 0 0)
(-0.781042 0 0)
(-0.778792 0 0)
(-0.776538 0 0)
(-0.774278 0 0)
(-0.772014 0 0)
(-0.769746 0 0)
(-0.767473 0 0)
(-0.765195 0 0)
(-0.762913 0 0)
(-0.760627 0 0)
(-0.758336 0 0)
(-0.756042 0 0)
(-0.753742 0 0)
(-0.751439 0 0)
(-0.749131 0 0)
(-0.746819 0 0)
(-0.744504 0 0)
(-0.742184 0 0)
(-0.73986 0 0)
(-0.737532 0 0)
(-0.7352 0 0)
(-0.732864 0 0)
(-0.730525 0 0)
(-0.728181 0 0)
(-0.725834 0 0)
(-0.723483 0 0)
(-0.721128 0 0)
(-0.71877 0 0)
(-0.716408 0 0)
(-0.714042 0 0)
(-0.711673 0 0)
(-0.7093 0 0)
(-0.706924 0 0)
(-0.704544 0 0)
(-0.702161 0 0)
(-0.699774 0 0)
(-0.697384 0 0)
(-0.69499 0 0)
(-0.692593 0 0)
(-0.690193 0 0)
(-0.68779 0 0)
(-0.685383 0 0)
(-0.682973 0 0)
(-0.68056 0 0)
(-0.678144 0 0)
(-0.675725 0 0)
(-0.673302 0 0)
(-0.670877 0 0)
(-0.668448 0 0)
(-0.666017 0 0)
(-0.663582 0 0)
(-0.661144 0 0)
(-0.658704 0 0)
(-0.65626 0 0)
(-0.653814 0 0)
(-0.651365 0 0)
(-0.648913 0 0)
(-0.646458 0 0)
(-0.644 0 0)
(-0.64154 0 0)
(-0.639077 0 0)
(-0.636611 0 0)
(-0.634142 0 0)
(-0.631671 0 0)
(-0.629197 0 0)
(-0.62672 0 0)
(-0.624241 0 0)
(-0.621759 0 0)
(-0.619275 0 0)
(-0.616788 0 0)
(-0.614299 0 0)
(-0.611807 0 0)
(-0.609312 0 0)
(-0.606816 0 0)
(-0.604316 0 0)
(-0.601815 0 0)
(-0.59931 0 0)
(-0.596804 0 0)
(-0.594295 0 0)
(-0.591784 0 0)
(-0.58927 0 0)
(-0.586755 0 0)
(-0.584237 0 0)
(-0.581716 0 0)
(-0.579194 0 0)
(-0.576669 0 0)
(-0.574142 0 0)
(-0.571613 0 0)
(-0.569081 0 0)
(-0.566548 0 0)
(-0.564012 0 0)
(-0.561474 0 0)
(-0.558934 0 0)
(-0.556392 0 0)
(-0.553848 0 0)
(-0.551302 0 0)
(-0.548754 0 0)
(-0.546204 0 0)
(-0.543652 0 0)
(-0.541098 0 0)
(-0.538542 0 0)
(-0.535984 0 0)
(-0.533424 0 0)
(-0.530862 0 0)
(-0.528298 0 0)
(-0.525733 0 0)
(-0.523165 0 0)
(-0.520596 0 0)
(-0.518025 0 0)
(-0.515452 0 0)
(-0.512877 0 0)
(-0.5103 0 0)
(-0.507722 0 0)
(-0.505142 0 0)
(-0.50256 0 0)
(-0.499976 0 0)
(-0.497391 0 0)
(-0.494804 0 0)
(-0.492215 0 0)
(-0.489624 0 0)
(-0.487032 0 0)
(-0.484439 0 0)
(-0.481843 0 0)
(-0.479246 0 0)
(-0.476648 0 0)
(-0.474047 0 0)
(-0.471446 0 0)
(-0.468842 0 0)
(-0.466237 0 0)
(-0.463631 0 0)
(-0.461023 0 0)
(-0.458414 0 0)
(-0.455803 0 0)
(-0.45319 0 0)
(-0.450576 0 0)
(-0.447961 0 0)
(-0.445344 0 0)
(-0.442726 0 0)
(-0.440106 0 0)
(-0.437485 0 0)
(-0.434862 0 0)
(-0.432238 0 0)
(-0.429613 0 0)
(-0.426986 0 0)
(-0.424358 0 0)
(-0.421729 0 0)
(-0.419098 0 0)
(-0.416466 0 0)
(-0.413833 0 0)
(-0.411198 0 0)
(-0.408562 0 0)
(-0.405925 0 0)
(-0.403287 0 0)
(-0.400647 0 0)
(-0.398006 0 0)
(-0.395364 0 0)
(-0.39272 0 0)
(-0.390076 0 0)
(-0.38743 0 0)
(-0.384783 0 0)
(-0.382135 0 0)
(-0.379485 0 0)
(-0.376835 0 0)
(-0.374183 0 0)
(-0.371531 0 0)
(-0.368877 0 0)
(-0.366222 0 0)
(-0.363566 0 0)
(-0.360908 0 0)
(-0.35825 0 0)
(-0.355591 0 0)
(-0.352931 0 0)
(-0.350269 0 0)
(-0.347607 0 0)
(-0.344943 0 0)
(-0.342279 0 0)
(-0.339613 0 0)
(-0.336946 0 0)
(-0.334279 0 0)
(-0.33161 0 0)
(-0.328941 0 0)
(-0.326271 0 0)
(-0.323599 0 0)
(-0.320927 0 0)
(-0.318254 0 0)
(-0.315579 0 0)
(-0.312904 0 0)
(-0.310228 0 0)
(-0.307551 0 0)
(-0.304874 0 0)
(-0.302195 0 0)
(-0.299515 0 0)
(-0.296835 0 0)
(-0.294154 0 0)
(-0.291472 0 0)
(-0.288789 0 0)
(-0.286105 0 0)
(-0.28342 0 0)
(-0.280735 0 0)
(-0.278049 0 0)
(-0.275362 0 0)
(-0.272674 0 0)
(-0.269986 0 0)
(-0.267296 0 0)
(-0.264606 0 0)
(-0.261916 0 0)
(-0.259224 0 0)
(-0.256532 0 0)
(-0.253839 0 0)
(-0.251145 0 0)
(-0.248451 0 0)
(-0.245756 0 0)
(-0.24306 0 0)
(-0.240364 0 0)
(-0.237667 0 0)
(-0.234969 0 0)
(-0.232271 0 0)
(-0.229572 0 0)
(-0.226872 0 0)
(-0.224172 0 0)
(-0.221471 0 0)
(-0.21877 0 0)
(-0.216067 0 0)
(-0.213365 0 0)
(-0.210661 0 0)
(-0.207958 0 0)
(-0.205253 0 0)
(-0.202548 0 0)
(-0.199843 0 0)
(-0.197137 0 0)
(-0.19443 0 0)
(-0.191723 0 0)
(-0.189015 0 0)
(-0.186307 0 0)
(-0.183598 0 0)
(-0.180889 0 0)
(-0.17818 0 0)
(-0.175469 0 0)
(-0.172759 0 0)
(-0.170048 0 0)
(-0.167336 0 0)
(-0.164624 0 0)
(-0.161912 0 0)
(-0.159199 0 0)
(-0.156486 0 0)
(-0.153772 0 0)
(-0.151058 0 0)
(-0.148343 0 0)
(-0.145628 0 0)
(-0.142913 0 0)
(-0.140197 0 0)
(-0.137481 0 0)
(-0.134765 0 0)
(-0.132048 0 0)
(-0.129331 0 0)
(-0.126613 0 0)
(-0.123895 0 0)
(-0.121177 0 0)
(-0.118459 0 0)
(-0.11574 0 0)
(-0.113021 0 0)
(-0.110301 0 0)
(-0.107582 0 0)
(-0.104862 0 0)
(-0.102141 0 0)
(-0.0994209 0 0)
(-0.0967001 0 0)
(-0.0939791 0 0)
(-0.0912577 0 0)
(-0.0885362 0 0)
(-0.0858144 0 0)
(-0.0830924 0 0)
(-0.0803702 0 0)
(-0.0776477 0 0)
(-0.0749251 0 0)
(-0.0722023 0 0)
(-0.0694792 0 0)
(-0.066756 0 0)
(-0.0640326 0 0)
(-0.0613091 0 0)
(-0.0585854 0 0)
(-0.0558615 0 0)
(-0.0531375 0 0)
(-0.0504133 0 0)
(-0.047689 0 0)
(-0.0449646 0 0)
(-0.0422401 0 0)
(-0.0395154 0 0)
(-0.0367907 0 0)
(-0.0340658 0 0)
(-0.0313409 0 0)
(-0.0286159 0 0)
(-0.0258908 0 0)
(-0.0231656 0 0)
(-0.0204404 0 0)
(-0.0177151 0 0)
(-0.0149898 0 0)
(-0.0122644 0 0)
(-0.00953903 0 0)
(-0.00681361 0 0)
(-0.00408817 0 0)
(-0.00136273 0 0)
)
;

boundaryField
{
    left
    {
        type            fixedValue;
        value           uniform (0 0 0);
    }
    right
    {
        type            fixedValue;
        value           uniform (0 0 0);
    }
    frontBackUpDown
    {
        type            empty;
    }
}


// ************************************************************************* //
