/*--------------------------------*- C++ -*----------------------------------*\
| =========                 |                                                 |
| \\      /  F ield         | OpenFOAM: The Open Source CFD Toolbox           |
|  \\    /   O peration     | Version:  2412                                  |
|   \\  /    A nd           | Website:  www.openfoam.com                      |
|    \\/     M anipulation  |                                                 |
\*---------------------------------------------------------------------------*/
FoamFile
{
    version     2.0;
    format      ascii;
    arch        "LSB;label=32;scalar=64";
    class       volVectorField;
    location    "0.6";
    object      U_0_0;
}
// * * * * * * * * * * * * * * * * * * * * * * * * * * * * * * * * * * * * * //

dimensions      [0 1 -1 0 0 0 0];

internalField   nonuniform List<vector> 
800
(
(0.00136345 0 0)
(0.00409038 0 0)
(0.0068173 0 0)
(0.00954421 0 0)
(0.0122711 0 0)
(0.0149979 0 0)
(0.0177247 0 0)
(0.0204515 0 0)
(0.0231782 0 0)
(0.0259049 0 0)
(0.0286314 0 0)
(0.0313579 0 0)
(0.0340844 0 0)
(0.0368107 0 0)
(0.0395369 0 0)
(0.042263 0 0)
(0.0449891 0 0)
(0.047715 0 0)
(0.0504407 0 0)
(0.0531664 0 0)
(0.0558919 0 0)
(0.0586172 0 0)
(0.0613424 0 0)
(0.0640675 0 0)
(0.0667924 0 0)
(0.0695171 0 0)
(0.0722416 0 0)
(0.0749659 0 0)
(0.07769 0 0)
(0.0804139 0 0)
(0.0831376 0 0)
(0.0858611 0 0)
(0.0885844 0 0)
(0.0913074 0 0)
(0.0940302 0 0)
(0.0967527 0 0)
(0.099475 0 0)
(0.102197 0 0)
(0.104919 0 0)
(0.10764 0 0)
(0.110361 0 0)
(0.113082 0 0)
(0.115803 0 0)
(0.118523 0 0)
(0.121243 0 0)
(0.123963 0 0)
(0.126682 0 0)
(0.129401 0 0)
(0.13212 0 0)
(0.134838 0 0)
(0.137556 0 0)
(0.140273 0 0)
(0.142991 0 0)
(0.145707 0 0)
(0.148424 0 0)
(0.15114 0 0)
(0.153855 0 0)
(0.156571 0 0)
(0.159285 0 0)
(0.162 0 0)
(0.164714 0 0)
(0.167427 0 0)
(0.17014 0 0)
(0.172853 0 0)
(0.175565 0 0)
(0.178276 0 0)
(0.180987 0 0)
(0.183698 0 0)
(0.186408 0 0)
(0.189118 0 0)
(0.191827 0 0)
(0.194535 0 0)
(0.197243 0 0)
(0.199951 0 0)
(0.202658 0 0)
(0.205364 0 0)
(0.20807 0 0)
(0.210776 0 0)
(0.21348 0 0)
(0.216184 0 0)
(0.218888 0 0)
(0.221591 0 0)
(0.224293 0 0)
(0.226995 0 0)
(0.229696 0 0)
(0.232396 0 0)
(0.235096 0 0)
(0.237795 0 0)
(0.240494 0 0)
(0.243192 0 0)
(0.245889 0 0)
(0.248585 0 0)
(0.251281 0 0)
(0.253976 0 0)
(0.25667 0 0)
(0.259364 0 0)
(0.262057 0 0)
(0.264749 0 0)
(0.26744 0 0)
(0.270131 0 0)
(0.272821 0 0)
(0.27551 0 0)
(0.278199 0 0)
(0.280886 0 0)
(0.283573 0 0)
(0.286259 0 0)
(0.288944 0 0)
(0.291628 0 0)
(0.294312 0 0)
(0.296994 0 0)
(0.299676 0 0)
(0.302357 0 0)
(0.305037 0 0)
(0.307716 0 0)
(0.310395 0 0)
(0.313072 0 0)
(0.315749 0 0)
(0.318424 0 0)
(0.321099 0 0)
(0.323772 0 0)
(0.326445 0 0)
(0.329117 0 0)
(0.331788 0 0)
(0.334458 0 0)
(0.337127 0 0)
(0.339795 0 0)
(0.342461 0 0)
(0.345127 0 0)
(0.347792 0 0)
(0.350456 0 0)
(0.353119 0 0)
(0.355781 0 0)
(0.358441 0 0)
(0.361101 0 0)
(0.363759 0 0)
(0.366417 0 0)
(0.369073 0 0)
(0.371728 0 0)
(0.374382 0 0)
(0.377035 0 0)
(0.379687 0 0)
(0.382338 0 0)
(0.384987 0 0)
(0.387636 0 0)
(0.390283 0 0)
(0.392929 0 0)
(0.395573 0 0)
(0.398217 0 0)
(0.400859 0 0)
(0.4035 0 0)
(0.40614 0 0)
(0.408778 0 0)
(0.411416 0 0)
(0.414051 0 0)
(0.416686 0 0)
(0.419319 0 0)
(0.421951 0 0)
(0.424582 0 0)
(0.427211 0 0)
(0.429839 0 0)
(0.432466 0 0)
(0.435091 0 0)
(0.437715 0 0)
(0.440337 0 0)
(0.442958 0 0)
(0.445578 0 0)
(0.448196 0 0)
(0.450813 0 0)
(0.453428 0 0)
(0.456042 0 0)
(0.458654 0 0)
(0.461265 0 0)
(0.463874 0 0)
(0.466481 0 0)
(0.469087 0 0)
(0.471692 0 0)
(0.474295 0 0)
(0.476896 0 0)
(0.479496 0 0)
(0.482094 0 0)
(0.484691 0 0)
(0.487286 0 0)
(0.489879 0 0)
(0.492471 0 0)
(0.495061 0 0)
(0.497649 0 0)
(0.500236 0 0)
(0.50282 0 0)
(0.505403 0 0)
(0.507985 0 0)
(0.510564 0 0)
(0.513142 0 0)
(0.515718 0 0)
(0.518292 0 0)
(0.520865 0 0)
(0.523435 0 0)
(0.526004 0 0)
(0.52857 0 0)
(0.531135 0 0)
(0.533698 0 0)
(0.536259 0 0)
(0.538818 0 0)
(0.541376 0 0)
(0.543931 0 0)
(0.546484 0 0)
(0.549035 0 0)
(0.551584 0 0)
(0.554132 0 0)
(0.556677 0 0)
(0.55922 0 0)
(0.561761 0 0)
(0.5643 0 0)
(0.566836 0 0)
(0.569371 0 0)
(0.571903 0 0)
(0.574433 0 0)
(0.576962 0 0)
(0.579487 0 0)
(0.582011 0 0)
(0.584532 0 0)
(0.587051 0 0)
(0.589568 0 0)
(0.592083 0 0)
(0.594595 0 0)
(0.597105 0 0)
(0.599612 0 0)
(0.602117 0 0)
(0.60462 0 0)
(0.60712 0 0)
(0.609618 0 0)
(0.612113 0 0)
(0.614606 0 0)
(0.617097 0 0)
(0.619585 0 0)
(0.62207 0 0)
(0.624552 0 0)
(0.627033 0 0)
(0.62951 0 0)
(0.631985 0 0)
(0.634457 0 0)
(0.636927 0 0)
(0.639393 0 0)
(0.641857 0 0)
(0.644319 0 0)
(0.646777 0 0)
(0.649233 0 0)
(0.651686 0 0)
(0.654136 0 0)
(0.656583 0 0)
(0.659027 0 0)
(0.661469 0 0)
(0.663907 0 0)
(0.666342 0 0)
(0.668775 0 0)
(0.671204 0 0)
(0.673631 0 0)
(0.676054 0 0)
(0.678474 0 0)
(0.680891 0 0)
(0.683305 0 0)
(0.685715 0 0)
(0.688123 0 0)
(0.690527 0 0)
(0.692928 0 0)
(0.695325 0 0)
(0.697719 0 0)
(0.70011 0 0)
(0.702497 0 0)
(0.704881 0 0)
(0.707262 0 0)
(0.709639 0 0)
(0.712012 0 0)
(0.714382 0 0)
(0.716749 0 0)
(0.719111 0 0)
(0.72147 0 0)
(0.723826 0 0)
(0.726177 0 0)
(0.728525 0 0)
(0.730869 0 0)
(0.733209 0 0)
(0.735545 0 0)
(0.737878 0 0)
(0.740206 0 0)
(0.74253 0 0)
(0.744851 0 0)
(0.747167 0 0)
(0.749479 0 0)
(0.751787 0 0)
(0.754091 0 0)
(0.756391 0 0)
(0.758686 0 0)
(0.760977 0 0)
(0.763264 0 0)
(0.765546 0 0)
(0.767824 0 0)
(0.770098 0 0)
(0.772366 0 0)
(0.774631 0 0)
(0.77689 0 0)
(0.779145 0 0)
(0.781396 0 0)
(0.783641 0 0)
(0.785882 0 0)
(0.788117 0 0)
(0.790348 0 0)
(0.792574 0 0)
(0.794795 0 0)
(0.797011 0 0)
(0.799221 0 0)
(0.801427 0 0)
(0.803627 0 0)
(0.805822 0 0)
(0.808012 0 0)
(0.810196 0 0)
(0.812374 0 0)
(0.814548 0 0)
(0.816715 0 0)
(0.818877 0 0)
(0.821033 0 0)
(0.823183 0 0)
(0.825328 0 0)
(0.827467 0 0)
(0.829599 0 0)
(0.831726 0 0)
(0.833846 0 0)
(0.83596 0 0)
(0.838068 0 0)
(0.84017 0 0)
(0.842265 0 0)
(0.844354 0 0)
(0.846436 0 0)
(0.848511 0 0)
(0.85058 0 0)
(0.852642 0 0)
(0.854697 0 0)
(0.856745 0 0)
(0.858786 0 0)
(0.86082 0 0)
(0.862847 0 0)
(0.864866 0 0)
(0.866878 0 0)
(0.868882 0 0)
(0.870878 0 0)
(0.872867 0 0)
(0.874849 0 0)
(0.876822 0 0)
(0.878787 0 0)
(0.880744 0 0)
(0.882693 0 0)
(0.884633 0 0)
(0.886565 0 0)
(0.888488 0 0)
(0.890403 0 0)
(0.892309 0 0)
(0.894205 0 0)
(0.896093 0 0)
(0.897972 0 0)
(0.899841 0 0)
(0.9017 0 0)
(0.903551 0 0)
(0.905391 0 0)
(0.907221 0 0)
(0.909042 0 0)
(0.910852 0 0)
(0.912651 0 0)
(0.914441 0 0)
(0.916219 0 0)
(0.917987 0 0)
(0.919744 0 0)
(0.921489 0 0)
(0.923223 0 0)
(0.924946 0 0)
(0.926656 0 0)
(0.928355 0 0)
(0.930042 0 0)
(0.931716 0 0)
(0.933378 0 0)
(0.935027 0 0)
(0.936663 0 0)
(0.938285 0 0)
(0.939894 0 0)
(0.94149 0 0)
(0.943071 0 0)
(0.944639 0 0)
(0.946192 0 0)
(0.94773 0 0)
(0.949253 0 0)
(0.95076 0 0)
(0.952252 0 0)
(0.953729 0 0)
(0.955189 0 0)
(0.956632 0 0)
(0.958058 0 0)
(0.959469 0 0)
(0.960844 0 0)
(0.962396 0 0)
(0.961889 0 0)
(0.982217 0 0)
(0.585135 0 0)
(-0.583748 0 0)
(-0.982203 0 0)
(-0.961889 0 0)
(-0.962395 0 0)
(-0.960842 0 0)
(-0.959468 0 0)
(-0.958057 0 0)
(-0.956631 0 0)
(-0.955187 0 0)
(-0.953727 0 0)
(-0.952251 0 0)
(-0.950759 0 0)
(-0.949251 0 0)
(-0.947728 0 0)
(-0.94619 0 0)
(-0.944637 0 0)
(-0.94307 0 0)
(-0.941488 0 0)
(-0.939893 0 0)
(-0.938284 0 0)
(-0.936661 0 0)
(-0.935025 0 0)
(-0.933376 0 0)
(-0.931714 0 0)
(-0.93004 0 0)
(-0.928353 0 0)
(-0.926655 0 0)
(-0.924944 0 0)
(-0.923221 0 0)
(-0.921487 0 0)
(-0.919742 0 0)
(-0.917985 0 0)
(-0.916217 0 0)
(-0.914439 0 0)
(-0.91265 0 0)
(-0.91085 0 0)
(-0.90904 0 0)
(-0.907219 0 0)
(-0.905389 0 0)
(-0.903549 0 0)
(-0.901699 0 0)
(-0.899839 0 0)
(-0.89797 0 0)
(-0.896091 0 0)
(-0.894203 0 0)
(-0.892307 0 0)
(-0.890401 0 0)
(-0.888486 0 0)
(-0.886563 0 0)
(-0.884631 0 0)
(-0.88269 0 0)
(-0.880742 0 0)
(-0.878785 0 0)
(-0.87682 0 0)
(-0.874846 0 0)
(-0.872865 0 0)
(-0.870876 0 0)
(-0.86888 0 0)
(-0.866875 0 0)
(-0.864864 0 0)
(-0.862844 0 0)
(-0.860818 0 0)
(-0.858784 0 0)
(-0.856743 0 0)
(-0.854695 0 0)
(-0.85264 0 0)
(-0.850578 0 0)
(-0.848509 0 0)
(-0.846434 0 0)
(-0.844351 0 0)
(-0.842263 0 0)
(-0.840168 0 0)
(-0.838066 0 0)
(-0.835958 0 0)
(-0.833844 0 0)
(-0.831723 0 0)
(-0.829597 0 0)
(-0.827464 0 0)
(-0.825326 0 0)
(-0.823181 0 0)
(-0.821031 0 0)
(-0.818875 0 0)
(-0.816713 0 0)
(-0.814545 0 0)
(-0.812372 0 0)
(-0.810193 0 0)
(-0.808009 0 0)
(-0.80582 0 0)
(-0.803625 0 0)
(-0.801425 0 0)
(-0.799219 0 0)
(-0.797008 0 0)
(-0.794793 0 0)
(-0.792572 0 0)
(-0.790346 0 0)
(-0.788115 0 0)
(-0.785879 0 0)
(-0.783639 0 0)
(-0.781393 0 0)
(-0.779143 0 0)
(-0.776888 0 0)
(-0.774628 0 0)
(-0.772364 0 0)
(-0.770095 0 0)
(-0.767822 0 0)
(-0.765544 0 0)
(-0.763262 0 0)
(-0.760975 0 0)
(-0.758684 0 0)
(-0.756389 0 0)
(-0.754089 0 0)
(-0.751785 0 0)
(-0.749477 0 0)
(-0.747165 0 0)
(-0.744849 0 0)
(-0.742528 0 0)
(-0.740204 0 0)
(-0.737875 0 0)
(-0.735543 0 0)
(-0.733207 0 0)
(-0.730867 0 0)
(-0.728523 0 0)
(-0.726175 0 0)
(-0.723823 0 0)
(-0.721468 0 0)
(-0.719109 0 0)
(-0.716746 0 0)
(-0.71438 0 0)
(-0.71201 0 0)
(-0.709637 0 0)
(-0.70726 0 0)
(-0.704879 0 0)
(-0.702495 0 0)
(-0.700108 0 0)
(-0.697717 0 0)
(-0.695323 0 0)
(-0.692925 0 0)
(-0.690525 0 0)
(-0.68812 0 0)
(-0.685713 0 0)
(-0.683302 0 0)
(-0.680889 0 0)
(-0.678472 0 0)
(-0.676052 0 0)
(-0.673628 0 0)
(-0.671202 0 0)
(-0.668773 0 0)
(-0.66634 0 0)
(-0.663905 0 0)
(-0.661467 0 0)
(-0.659025 0 0)
(-0.656581 0 0)
(-0.654134 0 0)
(-0.651684 0 0)
(-0.649231 0 0)
(-0.646775 0 0)
(-0.644317 0 0)
(-0.641855 0 0)
(-0.639391 0 0)
(-0.636925 0 0)
(-0.634455 0 0)
(-0.631983 0 0)
(-0.629508 0 0)
(-0.627031 0 0)
(-0.624551 0 0)
(-0.622068 0 0)
(-0.619583 0 0)
(-0.617095 0 0)
(-0.614604 0 0)
(-0.612112 0 0)
(-0.609616 0 0)
(-0.607118 0 0)
(-0.604618 0 0)
(-0.602116 0 0)
(-0.59961 0 0)
(-0.597103 0 0)
(-0.594593 0 0)
(-0.592081 0 0)
(-0.589566 0 0)
(-0.58705 0 0)
(-0.584531 0 0)
(-0.582009 0 0)
(-0.579486 0 0)
(-0.57696 0 0)
(-0.574432 0 0)
(-0.571902 0 0)
(-0.569369 0 0)
(-0.566835 0 0)
(-0.564298 0 0)
(-0.561759 0 0)
(-0.559218 0 0)
(-0.556675 0 0)
(-0.55413 0 0)
(-0.551583 0 0)
(-0.549034 0 0)
(-0.546482 0 0)
(-0.543929 0 0)
(-0.541374 0 0)
(-0.538817 0 0)
(-0.536258 0 0)
(-0.533697 0 0)
(-0.531134 0 0)
(-0.528569 0 0)
(-0.526002 0 0)
(-0.523434 0 0)
(-0.520863 0 0)
(-0.518291 0 0)
(-0.515717 0 0)
(-0.513141 0 0)
(-0.510563 0 0)
(-0.507983 0 0)
(-0.505402 0 0)
(-0.502819 0 0)
(-0.500234 0 0)
(-0.497648 0 0)
(-0.495059 0 0)
(-0.492469 0 0)
(-0.489878 0 0)
(-0.487285 0 0)
(-0.48469 0 0)
(-0.482093 0 0)
(-0.479495 0 0)
(-0.476895 0 0)
(-0.474294 0 0)
(-0.471691 0 0)
(-0.469086 0 0)
(-0.46648 0 0)
(-0.463872 0 0)
(-0.461263 0 0)
(-0.458653 0 0)
(-0.45604 0 0)
(-0.453427 0 0)
(-0.450812 0 0)
(-0.448195 0 0)
(-0.445577 0 0)
(-0.442957 0 0)
(-0.440336 0 0)
(-0.437714 0 0)
(-0.43509 0 0)
(-0.432465 0 0)
(-0.429838 0 0)
(-0.42721 0 0)
(-0.424581 0 0)
(-0.42195 0 0)
(-0.419318 0 0)
(-0.416685 0 0)
(-0.41405 0 0)
(-0.411415 0 0)
(-0.408777 0 0)
(-0.406139 0 0)
(-0.403499 0 0)
(-0.400858 0 0)
(-0.398216 0 0)
(-0.395572 0 0)
(-0.392928 0 0)
(-0.390282 0 0)
(-0.387635 0 0)
(-0.384986 0 0)
(-0.382337 0 0)
(-0.379686 0 0)
(-0.377035 0 0)
(-0.374382 0 0)
(-0.371728 0 0)
(-0.369072 0 0)
(-0.366416 0 0)
(-0.363759 0 0)
(-0.3611 0 0)
(-0.35844 0 0)
(-0.35578 0 0)
(-0.353118 0 0)
(-0.350455 0 0)
(-0.347792 0 0)
(-0.345127 0 0)
(-0.342461 0 0)
(-0.339794 0 0)
(-0.337126 0 0)
(-0.334457 0 0)
(-0.331787 0 0)
(-0.329116 0 0)
(-0.326445 0 0)
(-0.323772 0 0)
(-0.321098 0 0)
(-0.318423 0 0)
(-0.315748 0 0)
(-0.313071 0 0)
(-0.310394 0 0)
(-0.307716 0 0)
(-0.305037 0 0)
(-0.302357 0 0)
(-0.299676 0 0)
(-0.296994 0 0)
(-0.294311 0 0)
(-0.291628 0 0)
(-0.288943 0 0)
(-0.286258 0 0)
(-0.283572 0 0)
(-0.280886 0 0)
(-0.278198 0 0)
(-0.27551 0 0)
(-0.272821 0 0)
(-0.270131 0 0)
(-0.26744 0 0)
(-0.264749 0 0)
(-0.262056 0 0)
(-0.259364 0 0)
(-0.25667 0 0)
(-0.253976 0 0)
(-0.251281 0 0)
(-0.248585 0 0)
(-0.245888 0 0)
(-0.243191 0 0)
(-0.240493 0 0)
(-0.237795 0 0)
(-0.235096 0 0)
(-0.232396 0 0)
(-0.229696 0 0)
(-0.226995 0 0)
(-0.224293 0 0)
(-0.221591 0 0)
(-0.218888 0 0)
(-0.216184 0 0)
(-0.21348 0 0)
(-0.210775 0 0)
(-0.20807 0 0)
(-0.205364 0 0)
(-0.202658 0 0)
(-0.199951 0 0)
(-0.197243 0 0)
(-0.194535 0 0)
(-0.191827 0 0)
(-0.189117 0 0)
(-0.186408 0 0)
(-0.183698 0 0)
(-0.180987 0 0)
(-0.178276 0 0)
(-0.175564 0 0)
(-0.172852 0 0)
(-0.17014 0 0)
(-0.167427 0 0)
(-0.164713 0 0)
(-0.161999 0 0)
(-0.159285 0 0)
(-0.15657 0 0)
(-0.153855 0 0)
(-0.15114 0 0)
(-0.148424 0 0)
(-0.145707 0 0)
(-0.14299 0 0)
(-0.140273 0 0)
(-0.137556 0 0)
(-0.134838 0 0)
(-0.13212 0 0)
(-0.129401 0 0)
(-0.126682 0 0)
(-0.123963 0 0)
(-0.121243 0 0)
(-0.118523 0 0)
(-0.115803 0 0)
(-0.113082 0 0)
(-0.110361 0 0)
(-0.10764 0 0)
(-0.104919 0 0)
(-0.102197 0 0)
(-0.0994749 0 0)
(-0.0967527 0 0)
(-0.0940301 0 0)
(-0.0913073 0 0)
(-0.0885843 0 0)
(-0.0858611 0 0)
(-0.0831376 0 0)
(-0.0804139 0 0)
(-0.07769 0 0)
(-0.0749659 0 0)
(-0.0722415 0 0)
(-0.069517 0 0)
(-0.0667923 0 0)
(-0.0640675 0 0)
(-0.0613424 0 0)
(-0.0586172 0 0)
(-0.0558919 0 0)
(-0.0531664 0 0)
(-0.0504407 0 0)
(-0.047715 0 0)
(-0.0449891 0 0)
(-0.042263 0 0)
(-0.0395369 0 0)
(-0.0368107 0 0)
(-0.0340844 0 0)
(-0.0313579 0 0)
(-0.0286314 0 0)
(-0.0259049 0 0)
(-0.0231782 0 0)
(-0.0204515 0 0)
(-0.0177247 0 0)
(-0.0149979 0 0)
(-0.0122711 0 0)
(-0.00954422 0 0)
(-0.00681732 0 0)
(-0.0040904 0 0)
(-0.00136347 0 0)
)
;

boundaryField
{
    left
    {
        type            fixedValue;
        value           uniform (0 0 0);
    }
    right
    {
        type            fixedValue;
        value           uniform (0 0 0);
    }
    frontBackUpDown
    {
        type            empty;
    }
}


// ************************************************************************* //
