/*--------------------------------*- C++ -*----------------------------------*\
| =========                 |                                                 |
| \\      /  F ield         | OpenFOAM: The Open Source CFD Toolbox           |
|  \\    /   O peration     | Version:  2412                                  |
|   \\  /    A nd           | Website:  www.openfoam.com                      |
|    \\/     M anipulation  |                                                 |
\*---------------------------------------------------------------------------*/
FoamFile
{
    version     2.0;
    format      ascii;
    arch        "LSB;label=32;scalar=64";
    class       volScalarField;
    location    "0.23";
    object      epsilon;
}
// * * * * * * * * * * * * * * * * * * * * * * * * * * * * * * * * * * * * * //

dimensions      [0 2 -3 0 0 0 0];

internalField   nonuniform List<scalar> 
12225
(
448.248
622.894
830.557
1004.83
1150.4
1270.22
1368.62
1449.63
1516.36
1571.37
1616.74
1654.11
1684.79
1709.77
1729.82
1745.34
1756.67
1766.61
173.744
302.084
403.102
480.178
539.344
585.697
622.137
650.86
673.572
691.538
705.722
716.873
725.584
732.32
737.486
741.329
744.645
744.482
119.435
232.402
315.512
376.254
421.161
455.029
480.63
499.959
514.533
525.461
533.568
539.483
543.693
546.585
548.49
549.672
550.561
550.226
97.6414
199.979
277.776
334.832
376.772
407.859
430.863
447.788
460.145
469.044
475.312
479.575
482.314
483.909
484.682
484.906
484.92
484.516
83.6526
176.289
251.577
308.548
351.099
382.721
406.064
423.141
435.483
444.242
450.285
454.271
456.709
458
458.478
458.433
458.168
457.71
71.9917
153.972
226.31
283.823
328.195
361.835
387.034
405.7
419.346
429.147
436.01
440.636
443.572
445.252
446.032
446.219
446.095
445.752
61.3441
131.281
198.624
255.577
301.538
337.584
365.348
386.458
402.305
414.03
422.547
428.583
432.717
435.414
437.053
437.957
438.391
438.457
51.6696
108.73
168.486
222.629
268.751
306.557
336.798
360.608
379.121
393.344
404.137
412.211
418.152
422.44
425.472
427.576
429.007
429.854
43.2225
87.645
137.685
186.323
230.296
268.238
299.98
326.014
347.07
363.912
377.257
387.741
395.912
402.235
407.101
410.834
413.675
415.689
36.1697
69.2408
108.631
149.499
188.751
224.538
255.993
282.974
305.733
324.698
340.359
353.206
363.693
372.228
379.163
384.797
389.346
392.84
30.4984
54.1381
83.3275
115.312
147.811
179.109
208.061
234.088
257.02
276.936
294.055
308.664
321.073
331.583
340.477
347.997
354.318
359.417
26.3765
43.1971
64.2822
88.2377
113.645
139.252
164.036
187.298
208.644
227.911
245.092
260.279
273.626
285.312
295.522
304.426
312.138
318.564
23.1424
34.7463
49.3127
66.2678
84.8738
104.384
124.076
143.345
161.75
179.009
194.966
209.565
222.819
234.785
245.549
255.196
263.776
271.131
20.3782
27.6943
36.7518
47.4268
59.4447
72.4825
86.1718
100.14
114.057
127.66
140.751
153.195
164.909
175.855
186.023
195.416
204.018
211.622
18.1499
22.2406
27.1487
32.9137
39.4892
46.7953
54.7163
63.1053
71.8047
80.664
89.5478
98.3404
106.948
115.297
123.335
131.016
138.284
144.936
16.4706
18.3567
20.5273
23.0283
25.8742
29.0687
32.6038
36.4549
40.584
44.9455
49.4899
54.1669
58.9276
63.7261
68.5204
73.2709
77.9291
82.3622
15.3282
15.873
16.4959
17.2133
18.0328
18.9609
20.0037
21.1644
22.4424
23.8342
25.3335
26.932
28.6191
30.381
32.2037
34.0734
35.9723
37.8583
14.7508
14.6757
14.6369
14.6352
14.6697
14.7396
14.8449
14.986
15.163
15.3758
15.6242
15.9075
16.225
16.5768
16.9623
17.3793
17.8251
18.2956
14.8977
14.9733
15.0873
15.2435
15.4418
15.6822
15.9649
16.2899
16.6563
17.0624
17.5062
17.9852
18.4961
19.0358
19.6006
20.1868
20.79
21.3963
15.9708
17.2606
18.7265
20.3955
22.2738
24.3608
26.6496
29.1245
31.7617
34.5324
37.4056
40.3497
43.334
46.3298
49.3113
52.2554
55.1373
57.8971
18.0496
21.997
26.6903
32.1486
38.3092
45.0763
52.3261
59.9124
67.6842
75.5012
83.2418
90.8049
98.1113
105.102
111.737
117.991
123.844
129.251
21.5632
30.653
41.9214
55.038
69.4976
84.7819
100.381
115.834
130.776
144.948
158.185
170.393
181.541
191.638
200.721
208.847
216.077
222.455
27.2186
45.3008
67.7871
92.9386
119.106
145.002
169.645
192.393
212.923
231.137
247.086
260.906
272.78
282.906
291.487
298.714
304.76
309.784
35.7146
67.6769
105.679
144.952
182.518
216.744
246.82
272.574
294.229
312.189
326.912
338.856
348.444
356.053
362.011
366.596
370.048
372.594
47.408
97.6116
152.03
202.69
246.855
283.889
314.073
338.2
357.205
371.975
383.288
391.803
398.067
402.525
405.54
407.405
408.364
408.652
61.8882
131.752
198.705
254.806
299.835
335.07
362.112
382.56
397.801
408.962
416.939
422.438
426.011
428.09
429.011
429.04
428.39
427.277
78.4671
165.762
239.653
296.704
339.787
371.976
395.787
413.193
425.729
434.563
440.58
444.45
446.681
447.661
447.689
446.993
445.758
444.17
99.5998
200.965
279.478
337.821
380.456
411.806
434.888
451.764
463.98
472.69
478.744
482.773
485.25
486.539
486.916
486.596
485.747
484.539
144.792
258.315
348.614
417.597
468.465
506.746
535.871
558.048
574.949
587.823
597.58
604.904
610.319
614.23
616.954
618.74
619.782
620.281
366.941
498.482
666.583
808.026
923.443
1016.68
1091.7
1152.37
1201.65
1241.81
1274.65
1301.6
1323.76
1342.03
1357.12
1369.61
1379.91
1388.48
0.872236
0.833363
1.22242
1.56377
1.84717
2.0902
2.36267
2.67278
3.01119
3.38191
3.79466
4.27301
4.89271
5.66948
6.56577
7.58026
8.7191
9.99215
11.4093
12.9789
14.7069
16.597
18.651
20.8692
23.2511
25.7966
28.5066
31.3843
34.4369
37.6769
41.1247
44.7557
48.5403
52.4719
56.5456
60.7572
65.1027
69.5782
74.1804
78.9058
83.7513
88.7141
93.791
98.9792
104.276
109.677
115.181
120.783
126.479
132.267
138.141
144.098
150.132
156.239
162.413
168.649
174.941
181.282
187.667
194.089
200.542
207.017
213.509
220.01
226.513
233.01
239.494
245.958
252.395
258.798
265.163
271.489
277.777
284.041
290.307
296.527
302.645
308.663
314.579
320.388
326.084
331.66
337.109
342.425
347.6
352.629
357.504
362.219
366.769
371.148
375.35
379.37
383.204
386.847
390.294
393.542
396.586
399.423
402.051
404.465
406.664
408.646
410.407
411.946
413.263
414.355
415.221
415.862
416.276
416.464
416.426
416.162
415.674
414.962
414.029
412.874
411.502
409.915
408.114
406.104
403.887
401.468
398.85
396.038
393.037
389.851
386.486
382.947
379.241
375.373
371.35
367.179
362.865
358.417
353.842
349.146
344.339
339.428
334.417
329.327
324.149
318.92
313.685
308.728
305.497
302.809
300.091
297.306
294.453
291.535
288.558
285.527
282.446
279.322
276.159
272.963
269.738
266.491
263.226
259.947
256.661
253.371
250.082
246.798
243.524
240.262
237.014
233.784
230.572
227.377
224.196
221.023
217.845
214.641
211.372
207.966
204.263
199.859
194.075
186.218
2.70879
1.50516
1.34654
1.40581
1.56211
1.79688
2.10301
2.47793
2.914
3.41529
3.98609
4.63186
5.35867
6.16539
7.04554
7.99404
9.00667
10.0795
11.2086
12.3898
13.6193
14.8938
16.2107
17.5682
18.9656
20.4031
21.8815
23.4024
24.9673
26.5777
28.2336
29.9327
31.6728
33.4535
35.2746
37.1359
39.0372
40.9781
42.9583
44.9772
47.0342
49.1287
51.2598
53.4267
55.6283
57.8637
60.1315
62.4307
64.7598
67.1173
69.5018
71.9117
74.3452
76.8006
79.276
81.7694
84.2789
86.8023
89.3376
91.8825
94.4348
96.9921
99.5522
102.113
104.671
107.225
109.772
112.31
114.838
117.354
119.857
122.349
124.832
127.313
129.808
132.307
134.776
137.211
139.608
141.964
144.278
146.547
148.767
150.937
153.054
155.116
157.119
159.062
160.942
162.757
164.505
166.184
167.793
169.328
170.789
172.173
173.48
174.708
175.855
176.92
177.902
178.8
179.613
180.34
180.98
181.533
181.997
182.374
182.662
182.861
182.97
182.991
182.922
182.765
182.519
182.185
181.764
181.255
180.661
179.982
179.218
178.372
177.444
176.436
175.349
174.185
172.947
171.634
170.251
168.798
167.279
165.695
164.048
162.342
160.579
158.761
156.892
154.974
153.007
151.003
148.946
146.87
144.802
142.81
141.111
139.541
137.983
136.41
134.818
133.204
131.571
129.921
128.255
126.577
124.887
123.188
121.482
119.772
118.06
116.347
114.636
112.929
111.227
109.533
107.847
106.172
104.51
102.86
101.225
99.604
97.9988
96.4086
94.8324
93.2687
91.7142
90.1655
88.6142
87.0719
85.7326
85.7713
4.87129
2.3746
2.01309
2.03964
2.22018
2.48848
2.8367
3.26334
3.76614
4.34182
4.98553
5.69144
6.45324
7.26393
8.11666
9.00578
9.92704
10.8774
11.855
12.8586
13.8879
14.9433
16.0257
17.1361
18.2759
19.4463
20.6487
21.8837
23.1519
24.4533
25.7874
27.1534
28.5506
29.9783
31.436
32.9232
34.4393
35.9836
37.5556
39.1547
40.7803
42.4317
44.1083
45.8095
47.5345
49.2827
51.0532
52.8453
54.6582
56.4909
58.3424
60.2117
62.0979
63.9996
65.9158
67.8451
69.7863
71.7379
73.6987
75.6671
77.6416
79.6208
81.6031
83.587
85.5711
87.5539
89.5341
91.5106
93.4826
95.4496
97.4114
99.3685
101.322
103.273
105.221
107.156
109.068
110.954
112.812
114.638
116.431
118.189
119.91
121.591
123.23
124.827
126.378
127.881
129.336
130.74
132.092
133.39
134.632
135.818
136.946
138.014
139.022
139.967
140.85
141.67
142.424
143.114
143.737
144.293
144.781
145.202
145.555
145.839
146.054
146.199
146.276
146.284
146.222
146.091
145.892
145.625
145.29
144.887
144.417
143.882
143.281
142.617
141.888
141.098
140.247
139.335
138.366
137.339
136.257
135.122
133.933
132.695
131.408
130.074
128.696
127.274
125.812
124.311
122.767
121.202
119.608
117.997
116.384
114.801
113.305
111.86
110.428
108.99
107.543
106.085
104.617
103.139
101.654
100.162
98.6657
97.1666
95.6664
94.1666
92.669
91.1749
89.6862
88.204
86.7301
85.2656
83.8119
82.3702
80.9418
79.5276
78.1288
76.7462
75.3807
74.0332
72.7047
71.3967
70.1119
68.8565
67.6433
66.5162
65.5979
65.4761
7.11299
3.35859
2.82681
2.81434
2.98035
3.25767
3.62529
4.07425
4.59787
5.18877
5.83834
6.53752
7.27769
8.05146
8.85311
9.67887
10.5267
11.3959
12.287
13.201
14.1393
15.1035
16.0952
17.1158
18.1663
19.2476
20.36
21.5038
22.6786
23.884
25.1195
26.3843
27.6778
28.9993
30.3483
31.7242
33.1265
34.5548
36.0086
37.4874
38.9908
40.5185
42.07
43.6448
45.2424
46.8625
48.5044
50.1676
51.8515
53.5553
55.2782
57.0196
58.7784
60.5538
62.3447
64.15
65.9685
67.7991
69.6405
71.4913
73.3502
75.2158
77.0867
78.9616
80.8389
82.7174
84.5958
86.4729
88.3477
90.2192
92.0868
93.9496
95.807
97.658
99.4975
101.32
103.12
104.895
106.642
108.36
110.046
111.697
113.313
114.89
116.427
117.922
119.374
120.779
122.137
123.447
124.705
125.912
127.065
128.163
129.206
130.191
131.118
131.985
132.792
133.538
134.222
134.844
135.402
135.896
136.326
136.691
136.991
137.226
137.396
137.5
137.539
137.512
137.42
137.263
137.041
136.755
136.405
135.991
135.516
134.978
134.38
133.721
133.004
132.228
131.396
130.508
129.566
128.571
127.524
126.428
125.284
124.094
122.858
121.579
120.26
118.899
117.503
116.076
114.618
113.134
111.627
110.103
108.573
107.053
105.563
104.097
102.637
101.175
99.7081
98.2344
96.7545
95.2694
93.7805
92.2892
90.797
89.3054
87.8159
86.3301
84.8495
83.3754
81.9092
80.4524
79.0061
77.5716
76.1502
74.7429
73.3509
71.9752
70.6169
69.2771
67.9569
66.6577
65.3812
64.1303
62.9097
61.7289
60.6054
59.5832
58.7507
58.377
9.1383
4.36597
3.64769
3.56211
3.70184
3.96964
4.33247
4.77498
5.28685
5.85869
6.48118
7.14541
7.84368
8.57
9.32037
10.0927
10.8865
11.7024
12.5416
13.4058
14.2967
15.2159
16.1647
17.1441
18.1548
19.1972
20.2713
21.3772
22.5145
23.6826
24.8813
26.1099
27.3679
28.655
29.9707
31.3146
32.6865
34.0859
35.5127
36.9666
38.4473
39.9545
41.488
43.0475
44.6326
46.243
47.8783
49.5379
51.2213
52.9279
54.6569
56.4077
58.1792
59.9706
61.7808
63.6087
65.4531
67.3128
69.1862
71.0721
72.9689
74.8752
76.7893
78.7097
80.6348
82.563
84.4927
86.4224
88.3507
90.2759
92.1967
94.1116
96.019
97.9156
99.7964
101.657
103.494
105.305
107.087
108.838
110.555
112.236
113.878
115.481
117.041
118.556
120.026
121.447
122.818
124.138
125.405
126.617
127.773
128.871
129.911
130.891
131.81
132.667
133.461
134.191
134.857
135.458
135.994
136.463
136.866
137.202
137.471
137.673
137.808
137.875
137.876
137.809
137.676
137.477
137.211
136.88
136.485
136.025
135.502
134.917
134.27
133.563
132.797
131.972
131.09
130.154
129.162
128.119
127.024
125.881
124.688
123.452
122.171
120.844
119.483
118.085
116.654
115.191
113.699
112.182
110.643
109.087
107.521
105.955
104.398
102.851
101.306
99.7602
98.2108
96.6576
95.1011
93.5423
91.9826
90.4233
88.866
87.3122
85.7634
84.221
82.6865
81.1613
79.6468
78.1442
76.6548
75.1798
73.7203
72.2776
70.8527
69.4467
68.0606
66.6958
65.3536
64.0357
62.7443
61.4831
60.2577
59.0788
57.9646
56.9531
56.1057
55.5484
11.071
5.30098
4.37606
4.21749
4.322
4.56691
4.90908
5.32828
5.81186
6.34986
6.93353
7.55526
8.20887
8.88992
9.59576
10.3253
11.0786
11.8568
12.6611
13.4931
14.3544
15.2461
16.1695
17.1252
18.1139
19.1357
20.1909
21.2794
22.4011
23.5558
24.7432
25.9631
27.2153
28.4996
29.8159
31.1639
32.5436
33.9548
35.3975
36.8715
38.3768
39.9133
41.4807
43.0788
44.7075
46.3664
48.0551
49.7732
51.5201
53.2952
55.0978
56.9269
58.7817
60.6611
62.5639
64.4888
66.4346
68.3996
70.3823
72.3812
74.3943
76.42
78.4564
80.5015
82.5535
84.6103
86.67
88.7305
90.7898
92.8458
94.8966
96.9399
98.9737
100.992
102.992
104.969
106.919
108.841
110.73
112.585
114.403
116.181
117.917
119.609
121.254
122.851
124.397
125.89
127.328
128.71
130.034
131.298
132.501
133.641
134.718
135.729
136.675
137.553
138.363
139.105
139.776
140.378
140.91
141.37
141.759
142.076
142.322
142.496
142.599
142.63
142.589
142.478
142.296
142.044
141.722
141.332
140.873
140.347
139.755
139.098
138.376
137.591
136.745
135.837
134.872
133.849
132.77
131.636
130.452
129.217
127.929
126.6
125.228
123.813
122.361
120.872
119.35
117.797
116.215
114.609
112.98
111.333
109.675
108.01
106.346
104.683
103.02
101.357
99.6907
98.023
96.3543
94.6857
93.0188
91.3549
89.6957
88.0427
86.3974
84.7613
83.1359
81.5226
79.9228
78.3377
76.7686
75.2168
73.6834
72.1696
70.6764
69.2051
67.7569
66.3329
64.9349
63.5648
62.2252
60.9202
59.656
58.4432
57.2992
56.255
55.3523
54.6526
14.043
6.2987
5.03454
4.76568
4.81789
5.02861
5.34107
5.72953
6.17923
6.67999
7.22385
7.8045
8.41713
9.05848
9.72674
10.4213
11.1425
11.8913
12.6688
13.4765
14.3156
15.1872
16.0923
17.0317
18.006
19.0155
20.0607
21.1418
22.259
23.4123
24.6018
25.8278
27.0902
28.3892
29.725
31.0975
32.507
33.9535
35.4372
36.9581
38.5163
40.1118
41.7445
43.4144
45.1212
46.8647
48.6445
50.4601
52.311
54.1964
56.1155
58.0673
60.0507
62.0646
64.1074
66.1777
68.2739
70.3942
72.5367
74.6994
76.8803
79.0771
81.2876
83.5094
85.7402
87.9774
90.2187
92.4614
94.703
96.9409
99.1725
101.395
103.605
105.796
107.965
110.106
112.219
114.298
116.341
118.345
120.307
122.224
124.095
125.915
127.684
129.398
131.055
132.653
134.189
135.663
137.073
138.416
139.691
140.897
142.032
143.095
144.085
145.001
145.842
146.608
147.297
147.909
148.445
148.902
149.282
149.584
149.808
149.954
150.023
150.014
149.928
149.765
149.526
149.212
148.823
148.361
147.825
147.218
146.539
145.791
144.976
144.093
143.145
142.132
141.059
139.925
138.732
137.481
136.179
134.825
133.421
131.971
130.476
128.94
127.364
125.752
124.105
122.427
120.721
118.989
117.236
115.463
113.677
111.882
110.082
108.28
106.477
104.673
102.867
101.062
99.2574
97.4554
95.6575
93.8652
92.0802
90.3042
88.5387
86.7853
85.0454
83.3207
81.6123
79.9218
78.2503
76.5991
74.9695
73.3625
71.7794
70.2214
68.6897
67.1859
65.7116
64.2689
62.8609
61.4918
60.168
58.8997
57.7025
56.601
55.6228
54.7996
16.8515
7.17924
5.57255
5.18664
5.18058
5.3525
5.63223
5.9886
6.40483
6.8704
7.37796
7.92213
8.49911
9.10642
9.74276
10.4078
11.1019
11.8258
12.5807
13.3678
14.1882
15.0431
15.9334
16.8601
17.824
18.8259
19.8663
20.9459
22.0652
23.2247
24.425
25.6665
26.9497
28.2751
29.643
31.054
32.5084
34.0067
35.549
37.1358
38.7672
40.4434
42.1645
43.9303
45.7409
47.5958
49.4948
51.4374
53.4227
55.4501
57.5184
59.6267
61.7734
63.9572
66.1764
68.4291
70.7134
73.0271
75.3679
77.7334
80.1211
82.5284
84.9524
87.3904
89.8394
92.2964
94.7584
97.2223
99.6849
102.143
104.594
107.034
109.456
111.856
114.229
116.571
118.878
121.148
123.376
125.56
127.696
129.782
131.813
133.789
135.705
137.559
139.349
141.073
142.728
144.312
145.824
147.261
148.623
149.907
151.112
152.237
153.281
154.243
155.122
155.918
156.628
157.255
157.796
158.251
158.622
158.907
159.106
159.221
159.25
159.195
159.056
158.834
158.529
158.143
157.676
157.129
156.504
155.801
155.022
154.168
153.242
152.245
151.177
150.04
148.84
147.577
146.252
144.868
143.429
141.935
140.391
138.797
137.158
135.476
133.753
131.993
130.198
128.371
126.515
124.634
122.73
120.807
118.87
116.922
114.966
113.007
111.046
109.084
107.122
105.161
103.204
101.252
99.3057
97.368
95.4404
93.5245
91.6221
89.7347
87.8641
86.0116
84.1787
82.3668
80.5772
78.8112
77.07
75.3549
73.6671
72.0079
70.3786
68.7808
67.2163
65.6874
64.1973
62.7503
61.3529
60.0144
58.7481
57.5737
56.5086
55.57
19.3193
7.90226
5.9783
5.48032
5.41635
5.54923
5.79668
6.12259
6.50825
6.94262
7.41859
7.93139
8.47781
9.05591
9.66471
10.304
10.9743
11.6762
12.4109
13.1796
13.9834
14.8236
15.7015
16.6181
17.5747
18.5723
19.612
20.6948
21.8217
22.9936
24.2116
25.4766
26.7893
28.1508
29.5618
31.0231
32.5354
34.0994
35.7156
37.3847
39.1069
40.8826
42.7119
44.5949
46.5315
48.5215
50.5642
52.6593
54.8058
57.0027
59.2488
61.5427
63.8828
66.2672
68.694
71.1608
73.6652
76.2047
78.7765
81.3775
84.0049
86.6553
89.3255
92.012
94.7114
97.4201
100.134
102.851
105.565
108.274
110.974
113.66
116.323
118.958
121.562
124.129
126.656
129.139
131.575
133.96
136.29
138.561
140.772
142.918
144.997
147.006
148.943
150.804
152.587
154.291
155.914
157.453
158.908
160.275
161.555
162.746
163.847
164.856
165.774
166.598
167.329
167.967
168.511
168.961
169.317
169.58
169.748
169.824
169.807
169.698
169.497
169.206
168.825
168.354
167.797
167.154
166.426
165.615
164.72
163.746
162.696
161.569
160.368
159.095
157.753
156.345
154.872
153.337
151.744
150.094
148.39
146.636
144.834
142.988
141.099
139.172
137.21
135.215
133.191
131.142
129.069
126.978
124.871
122.753
120.627
118.496
116.363
114.23
112.098
109.97
107.847
105.731
103.625
101.529
99.4463
97.3783
95.3268
93.2936
91.2802
89.2883
87.3193
85.3747
83.4558
81.564
79.7006
77.8667
76.0638
74.2931
72.5561
70.8544
69.1899
67.5651
65.9832
64.4486
62.9673
61.548
60.2018
58.9438
57.7849
56.7348
21.3702
8.46176
6.25879
5.65919
5.54093
5.63668
5.85379
6.15186
6.51035
6.91759
7.36644
7.8524
8.37262
8.92547
9.51023
10.1269
10.7758
11.4581
12.1746
12.9268
13.7161
14.544
15.4119
16.3214
17.2741
18.2715
19.315
20.4063
21.5469
22.7381
23.9815
25.2784
26.6302
28.0383
29.5039
31.028
32.6119
34.2565
35.9626
37.7309
39.5622
41.4567
43.4148
45.4366
47.5218
49.6703
51.8814
54.1543
56.4881
58.8814
61.3328
63.8405
66.4024
69.0164
71.6799
74.3901
77.1441
79.9387
82.7706
85.6361
88.5318
91.4536
94.3978
97.3603
100.337
103.324
106.316
109.31
112.301
115.285
118.257
121.209
124.132
127.022
129.874
132.683
135.446
138.157
140.813
143.411
145.945
148.413
150.812
153.137
155.385
157.554
159.641
161.643
163.558
165.384
167.118
168.76
170.306
171.756
173.109
174.362
175.516
176.568
177.519
178.367
179.113
179.755
180.295
180.731
181.065
181.296
181.425
181.452
181.378
181.203
180.93
180.558
180.088
179.522
178.862
178.11
177.267
176.335
175.314
174.208
173.02
171.75
170.403
168.979
167.481
165.914
164.278
162.578
160.815
158.993
157.116
155.186
153.206
151.181
149.112
147.004
144.859
142.682
140.475
138.242
135.987
133.713
131.423
129.123
126.814
124.501
122.186
119.872
117.561
115.255
112.957
110.669
108.392
106.129
103.882
101.654
99.4443
97.2566
95.0921
92.9525
90.8394
88.7541
86.6982
84.6729
82.6797
80.7197
78.7944
76.9051
75.0533
73.2408
71.4695
69.742
68.0614
66.432
64.8596
63.3517
61.9177
60.5691
59.312
58.1528
22.9685
8.86429
6.42857
5.74113
5.57405
5.63561
5.82478
6.09763
6.43203
6.81563
7.24111
7.70402
8.20172
8.73276
9.29662
9.89345
10.5239
11.189
11.8901
12.6287
13.4066
14.2256
15.0876
15.9946
16.9486
17.9517
19.0059
20.1133
21.276
22.496
23.7752
25.1157
26.5192
27.9876
29.5226
31.1257
32.7983
34.5418
36.3572
38.2456
40.2075
42.2437
44.3544
46.5395
48.799
51.1324
53.5388
56.0173
58.5665
61.1847
63.8701
66.6204
69.4331
72.3053
75.234
78.2158
81.2472
84.3242
87.4428
90.5987
93.7877
97.0052
100.247
103.508
106.783
110.068
113.358
116.648
119.934
123.209
126.469
129.699
132.893
136.048
139.157
142.216
145.22
148.164
151.045
153.857
156.598
159.263
161.849
164.351
166.767
169.093
171.326
173.465
175.506
177.447
179.286
181.022
182.653
184.177
185.593
186.9
188.097
189.182
190.156
191.017
191.766
192.402
192.925
193.336
193.635
193.823
193.899
193.864
193.72
193.468
193.109
192.643
192.073
191.399
190.625
189.751
188.78
187.714
186.554
185.303
183.965
182.54
181.032
179.444
177.779
176.039
174.228
172.348
170.404
168.399
166.335
164.216
162.047
159.83
157.569
155.267
152.929
150.558
148.157
145.731
143.282
140.815
138.333
135.84
133.34
130.836
128.332
125.83
123.333
120.843
118.363
115.896
113.443
111.007
108.591
106.195
103.822
101.475
99.1537
96.8611
94.5986
92.3676
90.1696
88.006
85.8782
83.7874
81.7351
79.7226
77.7516
75.8238
73.9412
72.1063
70.3224
68.5934
66.9248
65.3229
63.7957
62.3519
60.9943
59.728
24.1027
9.12162
6.50444
5.74507
5.53585
5.56678
5.73058
5.98065
6.2936
6.65651
7.06183
7.50509
7.98372
8.49647
9.04299
9.62364
10.2393
10.8914
11.5814
12.3113
13.0833
13.8996
14.7627
15.675
16.6392
17.6579
18.7338
19.8695
21.0678
22.3312
23.6622
25.0635
26.5373
28.086
29.7115
31.4161
33.2012
35.0686
37.0196
39.0552
41.1762
43.3832
45.6764
48.0556
50.5205
53.0703
55.7039
58.4198
61.2162
64.0909
67.0414
70.065
73.1583
76.3179
79.5401
82.8209
86.1557
89.54
92.9689
96.4373
99.9401
103.472
107.029
110.604
114.193
117.79
121.389
124.987
128.576
132.153
135.7
139.21
142.677
146.095
149.459
152.764
156.004
159.176
162.273
165.293
168.231
171.083
173.845
176.513
179.084
181.553
183.92
186.18
188.333
190.374
192.303
194.118
195.818
197.4
198.863
200.208
201.433
202.536
203.516
204.374
205.109
205.722
206.213
206.583
206.831
206.96
206.968
206.858
206.63
206.285
205.826
205.253
204.568
203.774
202.871
201.863
200.751
199.538
198.226
196.817
195.316
193.723
192.044
190.28
188.434
186.511
184.513
182.444
180.307
178.107
175.847
173.53
171.161
168.744
166.281
163.778
161.237
158.664
156.061
153.433
150.784
148.117
145.436
142.745
140.048
137.349
134.65
131.956
129.269
126.591
123.927
121.277
118.645
116.033
113.443
110.878
108.339
105.829
103.349
100.9
98.4861
96.107
93.7646
91.4604
89.1956
86.9718
84.7902
82.6523
80.5598
78.5143
76.518
74.5733
72.6834
70.852
69.0839
67.3849
65.7613
64.2197
62.7608
61.3894
24.7758
9.24711
6.50274
5.6888
5.44506
5.44953
5.59083
5.82065
6.11479
6.45995
6.84843
7.27576
7.73949
8.23852
8.77276
9.34284
9.94999
10.5959
11.2827
12.0128
12.7887
13.6134
14.49
15.4214
16.4111
17.4623
18.5784
19.7626
21.0183
22.3487
23.7569
25.2459
26.8185
28.4776
30.2256
32.0647
33.9969
36.024
38.1472
40.3677
42.6862
45.1029
47.6178
50.2304
52.9399
55.745
58.644
61.6347
64.7148
67.8813
71.1309
74.46
77.8646
81.3404
84.8829
88.4872
92.1483
95.8607
99.6181
103.415
107.245
111.103
114.983
118.879
122.786
126.698
130.609
134.513
138.405
142.272
146.098
149.877
153.603
157.27
160.873
164.406
167.864
171.242
174.536
177.741
180.854
183.87
186.787
189.598
192.299
194.888
197.363
199.721
201.96
204.077
206.072
207.942
209.686
211.302
212.79
214.148
215.376
216.473
217.438
218.272
218.973
219.544
219.984
220.293
220.473
220.524
220.447
220.243
219.914
219.461
218.886
218.19
217.376
216.445
215.4
214.243
212.977
211.604
210.127
208.548
206.872
205.101
203.238
201.287
199.252
197.135
194.941
192.674
190.337
187.934
185.469
182.947
180.372
177.747
175.077
172.366
169.618
166.837
164.028
161.194
158.34
155.469
152.586
149.694
146.798
143.901
141.007
138.119
135.241
132.375
129.524
126.692
123.88
121.092
118.329
115.594
112.889
110.216
107.577
104.974
102.408
99.8807
97.394
94.9493
92.5478
90.1909
87.8801
85.6168
83.4026
81.2393
79.1289
77.0738
75.0771
73.1422
71.2735
69.4759
67.7545
66.1143
64.5547
63.0807
24.9978
9.25373
6.43811
5.58806
5.31839
5.3014
5.42386
5.63674
5.91553
6.24688
6.62315
7.03999
7.49517
7.98788
8.51835
9.08762
9.69737
10.3498
11.0476
11.7937
12.5915
13.4445
14.3564
15.3312
16.3729
17.4854
18.6731
19.9397
21.2892
22.7251
24.251
25.8705
27.5869
29.403
31.3216
33.3449
35.475
37.7134
40.0612
42.5192
45.0875
47.766
50.554
53.4504
56.4534
59.5611
62.7707
66.0794
69.4836
72.9796
76.563
80.2293
83.9735
87.7904
91.6746
95.6207
99.6231
103.677
107.771
111.9
116.059
120.241
124.44
128.65
132.865
137.079
141.286
145.481
149.655
153.783
157.859
161.877
165.83
169.713
173.521
177.247
180.887
184.436
187.89
191.243
194.492
197.633
200.663
203.577
206.371
209.043
211.591
214.011
216.302
218.462
220.489
222.381
224.137
225.756
227.238
228.58
229.783
230.846
231.77
232.552
233.195
233.699
234.063
234.289
234.377
234.33
234.146
233.83
233.38
232.801
232.092
231.256
230.296
229.214
228.011
226.692
225.258
223.712
222.058
220.298
218.436
216.476
214.421
212.274
210.04
207.723
205.325
202.853
200.309
197.698
195.024
192.292
189.506
186.67
183.789
180.868
177.91
174.92
171.903
168.862
165.803
162.728
159.643
156.551
153.456
150.363
147.275
144.196
141.129
138.077
135.043
132.031
129.042
126.08
123.147
120.246
117.377
114.545
111.75
108.994
106.279
103.607
100.979
98.396
95.8602
93.3728
90.9351
88.5485
86.2146
83.9352
81.7123
79.5482
77.4457
75.4081
73.4393
71.5435
69.7248
67.9869
66.3286
64.7551
24.7837
9.15311
6.32306
5.45644
5.17072
5.13877
5.24775
5.44896
5.71824
6.04258
6.41469
6.83067
7.28873
7.78856
8.33098
8.91756
9.55053
10.2328
10.9678
11.7594
12.6115
13.5287
14.5154
15.5764
16.7165
17.9405
19.2533
20.6601
22.1644
23.7694
25.4792
27.2977
29.2283
31.2736
33.4362
35.718
38.1203
40.6442
43.2899
46.0572
48.9456
51.9537
55.0797
58.3213
61.6758
65.1398
68.7095
72.3808
76.149
80.0092
83.9559
87.9836
92.0863
96.2578
100.492
104.782
109.122
113.504
117.922
122.368
126.835
131.318
135.809
140.304
144.795
149.277
153.745
158.192
162.588
166.926
171.2
175.403
179.53
183.574
187.531
191.395
195.162
198.826
202.383
205.83
209.161
212.374
215.465
218.431
221.268
223.973
226.544
228.979
231.276
233.433
235.448
237.32
239.048
240.63
242.067
243.357
244.499
245.495
246.342
247.043
247.596
248.003
248.264
248.379
248.351
248.18
247.868
247.416
246.825
246.099
245.238
244.245
243.122
241.872
240.497
239.001
237.386
235.656
233.814
231.862
229.806
227.648
225.392
223.043
220.604
218.08
215.475
212.793
210.039
207.217
204.333
201.389
198.392
195.345
192.254
189.123
185.957
182.76
179.537
176.292
173.03
169.755
166.471
163.183
159.895
156.611
153.334
150.069
146.818
143.586
140.375
137.188
134.029
130.899
127.802
124.739
121.714
118.728
115.782
112.88
110.021
107.209
104.445
101.73
99.0647
96.4515
93.8914
91.3858
88.9364
86.5448
84.2129
81.943
79.7377
77.6001
75.5335
73.5416
71.6276
69.7947
68.0408
66.3719
24.1128
8.95041
6.16448
5.30229
5.01224
4.97432
5.07847
5.27755
5.5485
5.87923
6.26335
6.69782
7.18179
7.71598
8.30248
8.94341
9.64147
10.4008
11.2258
12.1214
13.0926
14.1447
15.2831
16.5133
17.8404
19.27
20.8069
22.4559
24.221
26.1059
28.1139
30.2481
32.5108
34.9039
37.4285
40.0852
42.8741
45.7944
48.845
52.024
55.329
58.757
62.3046
65.968
69.7426
73.6237
77.606
81.6842
85.8523
90.1043
94.4337
98.8341
103.299
107.821
112.394
117.01
121.663
126.345
131.05
135.771
140.502
145.235
149.966
154.688
159.396
164.086
168.749
173.353
177.89
182.356
186.744
191.049
195.266
199.388
203.411
207.331
211.142
214.841
218.424
221.885
225.223
228.434
231.513
234.46
237.269
239.94
242.469
244.855
247.095
249.189
251.134
252.93
254.575
256.069
257.41
258.599
259.635
260.517
261.247
261.823
262.247
262.519
262.64
262.611
262.433
262.107
261.636
261.019
260.26
259.361
258.323
257.149
255.842
254.404
252.838
251.147
249.335
247.404
245.359
243.202
240.939
238.572
236.106
233.545
230.893
228.155
225.336
222.439
219.47
216.434
213.335
210.178
206.968
203.709
200.408
197.068
193.694
190.292
186.865
183.419
179.958
176.486
173.008
169.529
166.052
162.581
159.121
155.676
152.248
148.841
145.46
142.105
138.782
135.491
132.237
129.02
125.844
122.711
119.621
116.579
113.584
110.638
107.744
104.902
102.113
99.3798
96.7027
94.0835
91.5234
89.0242
86.5878
84.2162
81.9119
79.6776
77.5164
75.4315
73.4254
71.5006
69.655
67.8951
23.1683
8.7477
6.01571
5.166
4.88253
4.85211
4.96783
5.18469
5.48145
5.84767
6.27858
6.77272
7.3308
7.95503
8.64875
9.41594
10.2612
11.1898
12.2073
13.3197
14.5327
15.8521
17.2838
18.833
20.5046
22.3034
24.2331
26.2971
28.4979
30.8376
33.3172
35.9374
38.6981
41.5983
44.6368
47.8113
51.1193
54.5574
58.1221
61.8091
65.6139
69.5314
73.5565
77.6835
81.9067
86.22
90.6171
95.0918
99.6376
104.248
108.916
113.635
118.398
123.199
128.031
132.888
137.762
142.648
147.539
152.43
157.314
162.188
167.045
171.882
176.695
181.467
186.171
190.8
195.351
199.818
204.195
208.479
212.665
216.747
220.722
224.585
228.332
231.96
235.464
238.842
242.09
245.206
248.185
251.026
253.726
256.282
258.693
260.957
263.072
265.036
266.848
268.507
270.012
271.362
272.556
273.595
274.477
275.203
275.773
276.186
276.445
276.548
276.498
276.294
275.939
275.433
274.779
273.977
273.03
271.941
270.71
269.341
267.837
266.2
264.434
262.541
260.524
258.389
256.137
253.774
251.302
248.727
246.052
243.282
240.421
237.474
234.446
231.342
228.166
224.924
221.62
218.259
214.847
211.388
207.888
204.352
200.784
197.189
193.573
189.939
186.293
182.64
178.983
175.327
171.677
168.035
164.408
160.798
157.208
153.643
150.106
146.6
143.127
139.691
136.293
132.937
129.625
126.358
123.139
119.969
116.85
113.784
110.771
107.814
104.914
102.071
99.2877
96.5647
93.9036
91.306
88.7736
86.3084
83.9127
81.589
79.3399
77.1682
75.0761
73.0657
71.1348
69.2907
22.0349
8.49937
5.8748
5.06143
4.80561
4.80676
4.96326
5.23369
5.59988
6.05434
6.59521
7.22394
7.94403
8.76037
9.67866
10.7051
11.846
13.1079
14.4968
16.0184
17.6779
19.4795
21.4269
23.5227
25.7686
28.1653
30.7128
33.4101
36.2552
39.2457
42.3782
45.6491
49.054
52.5884
56.2471
60.0249
63.9163
67.9156
72.0171
76.2147
80.5027
84.875
89.3257
93.8486
98.438
103.088
107.792
112.545
117.341
122.173
127.037
131.926
136.835
141.758
146.69
151.626
156.56
161.487
166.402
171.302
176.183
181.04
185.87
190.672
195.419
200.091
204.684
209.195
213.618
217.949
222.186
226.323
230.356
234.282
238.096
241.796
245.377
248.836
252.169
255.375
258.449
261.389
264.193
266.857
269.379