/*--------------------------------*- C++ -*----------------------------------*\
| =========                 |                                                 |
| \\      /  F ield         | OpenFOAM: The Open Source CFD Toolbox           |
|  \\    /   O peration     | Version:  2412                                  |
|   \\  /    A nd           | Website:  www.openfoam.com                      |
|    \\/     M anipulation  |                                                 |
\*---------------------------------------------------------------------------*/
FoamFile
{
    version     2.0;
    format      ascii;
    arch        "LSB;label=32;scalar=64";
    class       volScalarField;
    location    "0.23";
    object      k;
}
// * * * * * * * * * * * * * * * * * * * * * * * * * * * * * * * * * * * * * //

dimensions      [0 2 -2 0 0 0 0];

internalField   nonuniform List<scalar> 
12225
(
0.316793
0.394493
0.477907
0.542616
0.593832
0.634379
0.666733
0.692789
0.713891
0.731054
0.745058
0.756496
0.765821
0.773372
0.779408
0.784062
0.78745
0.790419
0.569139
0.788915
0.952583
1.068
1.1512
1.2127
1.25817
1.29171
1.31631
1.33413
1.34671
1.35526
1.36068
1.36365
1.36474
1.3643
1.36352
1.36144
0.670061
0.972154
1.18323
1.33202
1.43945
1.51861
1.57693
1.61969
1.65078
1.67303
1.68851
1.6988
1.70509
1.70831
1.70923
1.70844
1.70695
1.70493
0.722108
1.07674
1.32651
1.50447
1.63403
1.72972
1.80042
1.85243
1.89038
1.91766
1.93679
1.94967
1.95776
1.9622
1.96393
1.96375
1.96263
1.96116
0.74277
1.1292
1.41224
1.61818
1.77022
1.88337
1.96762
2.03016
2.07624
2.10979
2.13375
2.15033
2.16127
2.16791
2.17137
2.1726
2.17261
2.17207
0.739913
1.13776
1.44637
1.67819
1.85304
1.98504
2.08466
2.15963
2.21576
2.2574
2.28789
2.30975
2.32498
2.33514
2.34152
2.34521
2.34721
2.34819
0.719619
1.1088
1.43132
1.68401
1.88027
2.03176
2.14827
2.23764
2.30592
2.35778
2.39684
2.42592
2.44723
2.46257
2.47336
2.48081
2.48593
2.48929
0.68764
1.05045
1.37182
1.63646
1.84971
2.01922
2.1529
2.25789
2.34005
2.40409
2.45377
2.49209
2.52145
2.54379
2.56069
2.57345
2.58305
2.58998
0.648984
0.972373
1.27661
1.54078
1.76291
1.94589
2.09468
2.21483
2.31142
2.3888
2.45062
2.49988
2.53906
2.57017
2.59488
2.61454
2.63012
2.64198
0.607482
0.884082
1.15746
1.40738
1.62721
1.81569
1.97442
2.1067
2.21623
2.30653
2.3808
2.44179
2.49186
2.533
2.56687
2.5948
2.61773
2.63584
0.565817
0.793315
1.02683
1.25028
1.45564
1.63912
1.79961
1.938
2.05627
2.15676
2.24183
2.31373
2.37449
2.42587
2.4694
2.50632
2.53747
2.5628
0.528744
0.712089
0.905171
1.09645
1.27866
1.44747
1.6004
1.73669
1.8568
1.96184
2.05325
2.13257
2.20133
2.26093
2.31264
2.35751
2.39621
2.42838
0.49465
0.637266
0.790574
0.946975
1.10074
1.24801
1.38597
1.51298
1.62841
1.73232
1.82528
1.90806
1.98159
2.04683
2.10469
2.15594
2.20102
2.23927
0.460673
0.56214
0.673138
0.789667
0.907885
1.02492
1.13844
1.24664
1.34837
1.44301
1.53034
1.61046
1.68364
1.75029
1.81088
1.86581
1.91521
1.95811
0.429344
0.492744
0.562793
0.638282
0.717339
0.798299
0.879667
0.96009
1.03847
1.11399
1.18611
1.25447
1.3189
1.37934
1.43584
1.48843
1.53697
1.58026
0.403167
0.435381
0.470972
0.510047
0.55218
0.596842
0.643458
0.691383
0.739972
0.788646
0.836909
0.884353
0.930651
0.97555
1.01886
1.06039
1.09989
1.13626
0.384082
0.394607
0.40648
0.419889
0.43484
0.451293
0.469184
0.488404
0.508791
0.530163
0.552325
0.575082
0.59824
0.621591
0.644951
0.668159
0.69101
0.712963
0.374047
0.373709
0.374088
0.375205
0.377035
0.379558
0.38276
0.386627
0.391136
0.39626
0.401963
0.408205
0.414944
0.422152
0.429788
0.437795
0.446106
0.454611
0.376606
0.378925
0.38199
0.385852
0.390486
0.395855
0.401924
0.408649
0.415971
0.423823
0.432136
0.440838
0.449859
0.459129
0.468585
0.478165
0.487794
0.497253
0.394948
0.417781
0.44296
0.470561
0.500303
0.531825
0.564738
0.598609
0.632991
0.667465
0.701665
0.735281
0.768061
0.799805
0.830366
0.859635
0.887489
0.913522
0.427772
0.489069
0.556235
0.628021
0.70259
0.7783
0.853718
0.927586
0.998895
1.06692
1.13118
1.1914
1.24748
1.29942
1.34732
1.39133
1.43161
1.46819
0.475742
0.594976
0.723615
0.855988
0.987209
1.11395
1.23384
1.34526
1.44738
1.54
1.62332
1.6978
1.76405
1.82276
1.87462
1.92033
1.9605
1.99564
0.536848
0.728699
0.928632
1.12374
1.30644
1.47305
1.62185
1.75259
1.86614
1.96397
2.04774
2.11913
2.17975
2.23106
2.27435
2.31076
2.34127
2.36673
0.604143
0.873972
1.14017
1.3824
1.59449
1.77607
1.92885
2.05587
2.16066
2.24663
2.31681
2.37385
2.41995
2.45701
2.48656
2.5099
2.52811
2.54212
0.668316
1.00767
1.31643
1.57533
1.78711
1.95803
2.09449
2.20267
2.28802
2.35499
2.40721
2.44758
2.47841
2.50158
2.51857
2.53059
2.53862
2.54351
0.717304
1.0992
1.41419
1.65889
1.84812
1.99399
2.10592
2.19145
2.2565
2.30558
2.34217
2.36896
2.38806
2.40109
2.40934
2.41381
2.41532
2.41459
0.735719
1.11862
1.40734
1.61983
1.77772
1.89573
1.98396
2.04967
2.09826
2.13377
2.15921
2.17688
2.18853
2.19548
2.19879
2.19926
2.19754
2.19421
0.7082
1.04716
1.29075
1.46557
1.59175
1.68427
1.75245
1.80244
1.83877
1.86478
1.88294
1.89507
1.90256
1.90646
1.90759
1.90658
1.90394
1.90013
0.616922
0.862574
1.0489
1.18265
1.27674
1.3449
1.39483
1.43126
1.45766
1.47655
1.48973
1.49854
1.50398
1.50683
1.50767
1.50696
1.50507
1.50238
0.33327
0.408788
0.496175
0.56409
0.616603
0.657437
0.689395
0.714703
0.734936
0.751223
0.76441
0.775144
0.783919
0.791116
0.797036
0.801917
0.805934
0.809265
0.00691186
0.0111184
0.0143501
0.0169061
0.0188865
0.0205031
0.0222414
0.0241402
0.0261295
0.028224
0.0304669
0.032966
0.0360685
0.0397792
0.0438548
0.0482482
0.0529505
0.0579684
0.0633072
0.0689656
0.0749342
0.0811978
0.0877368
0.0945305
0.101559
0.108805
0.116258
0.123913
0.131776
0.139867
0.148222
0.156766
0.165424
0.174175
0.183009
0.191916
0.200884
0.209908
0.218981
0.228096
0.237248
0.246432
0.255644
0.26488
0.274136
0.283407
0.292689
0.301977
0.311268
0.320557
0.329838
0.339106
0.348356
0.357583
0.366779
0.37594
0.385059
0.39413
0.403147
0.412102
0.420989
0.429801
0.438532
0.447175
0.455724
0.464171
0.472511
0.480737
0.488843
0.496826
0.504683
0.512415
0.520029
0.527542
0.534991
0.542318
0.549458
0.556418
0.563198
0.569798
0.576212
0.582438
0.588469
0.594301
0.599931
0.605353
0.610563
0.615558
0.620334
0.624888
0.629216
0.633316
0.637184
0.640819
0.644218
0.647378
0.650299
0.652979
0.655415
0.657608
0.659555
0.661256
0.662711
0.663919
0.664879
0.665592
0.666057
0.666276
0.666248
0.665974
0.665455
0.664692
0.663687
0.66244
0.660954
0.65923
0.65727
0.655078
0.652655
0.650004
0.647128
0.644031
0.640716
0.637187
0.633448
0.629503
0.625358
0.621015
0.616482
0.611762
0.606862
0.601787
0.596543
0.591136
0.585573
0.57986
0.574005
0.568014
0.561889
0.555656
0.549299
0.54286
0.536389
0.53021
0.52599
0.522385
0.518739
0.515008
0.511189
0.507288
0.503309
0.499258
0.49514
0.490961
0.486727
0.482442
0.478113
0.473746
0.469346
0.464919
0.46047
0.456005
0.451529
0.447046
0.442562
0.43808
0.433604
0.429135
0.424676
0.420225
0.415778
0.411327
0.406857
0.402342
0.397731
0.392933
0.387742
0.38164
0.373737
0.363086
0.0147135
0.0231867
0.030871
0.0371657
0.0428722
0.0486043
0.0542775
0.0601039
0.0662324
0.0728007
0.0798337
0.0873064
0.0951847
0.103415
0.111942
0.120741
0.129806
0.139143
0.148765
0.158685
0.168917
0.179472
0.190362
0.201597
0.213182
0.225123
0.237419
0.250069
0.263065
0.276397
0.29005
0.304
0.318229
0.33272
0.347459
0.36243
0.37762
0.393015
0.408601
0.424368
0.440304
0.456399
0.472643
0.489027
0.505543
0.522182
0.538936
0.555795
0.572752
0.589797
0.606922
0.624116
0.64137
0.658673
0.676015
0.693384
0.710768
0.728157
0.745537
0.762896
0.780222
0.797501
0.814721
0.831869
0.848932
0.865896
0.882749
0.899478
0.91607
0.932513
0.948795
0.964902
0.980823
0.996544
1.01198
1.02706
1.04187
1.05642
1.0707
1.08471
1.09844
1.11188
1.12501
1.13783
1.15033
1.16249
1.17431
1.18578
1.19688
1.20761
1.21797
1.22794
1.23752
1.24669
1.25547
1.26383
1.27177
1.27929
1.28638
1.29303
1.29925
1.30503
1.31037
1.31525
1.31969
1.32367
1.3272
1.33026
1.33287
1.33502
1.33671
1.33793
1.3387
1.339
1.33884
1.33821
1.33713
1.3356
1.3336
1.33116
1.32826
1.32492
1.32114
1.31692
1.31227
1.3072
1.3017
1.29579
1.28948
1.28276
1.27566
1.26817
1.26031
1.25209
1.24351
1.23459
1.22534
1.21577
1.20588
1.19572
1.18523
1.17452
1.16364
1.15265
1.14182
1.13096
1.11994
1.10874
1.09737
1.08584
1.07417
1.06237
1.05046
1.03845
1.02634
1.01416
1.00192
0.98963
0.9773
0.964945
0.952577
0.940207
0.927847
0.915507
0.903198
0.890929
0.878709
0.866545
0.854444
0.84241
0.830444
0.818545
0.806705
0.794911
0.783136
0.771339
0.75942
0.74726
0.733361
0.718121
0.0217596
0.0369319
0.0485217
0.0576086
0.0658175
0.0734646
0.0810667
0.0889385
0.0972504
0.106069
0.115383
0.125134
0.13526
0.145704
0.156435
0.167446
0.178755
0.190394
0.202401
0.214815
0.227676
0.241012
0.254847
0.269194
0.284059
0.299437
0.315314
0.331673
0.348488
0.365729
0.383367
0.401371
0.41971
0.438359
0.457292
0.476488
0.495925
0.515586
0.535455
0.555516
0.575759
0.59617
0.616741
0.637461
0.658322
0.679315
0.700431
0.721661
0.742997
0.764429
0.785946
0.807539
0.829196
0.850905
0.872655
0.894432
0.916223
0.938015
0.959792
0.98154
1.00324
1.02489
1.04646
1.06794
1.08931
1.11056
1.13168
1.15264
1.17343
1.19404
1.21446
1.23467
1.25465
1.27441
1.29383
1.31293
1.33172
1.35018
1.36832
1.38611
1.40355
1.42061
1.43729
1.45357
1.46944
1.48488
1.49989
1.51445
1.52854
1.54216
1.55531
1.56795
1.5801
1.59174
1.60286
1.61345
1.62351
1.63302
1.64199
1.65041
1.65827
1.66556
1.67229
1.67844
1.68402
1.68903
1.69344
1.69728
1.70053
1.70319
1.70527
1.70675
1.70765
1.70795
1.70767
1.70681
1.70536
1.70332
1.70071
1.69752
1.69377
1.68944
1.68455
1.67911
1.67312
1.66659
1.65953
1.65194
1.64384
1.63522
1.62612
1.61653
1.60646
1.59594
1.58497
1.57355
1.56173
1.5495
1.53684
1.52388
1.51059
1.49699
1.48313
1.46908
1.45494
1.44066
1.42618
1.41149
1.39659
1.3815
1.36623
1.35081
1.33525
1.31957
1.30377
1.28789
1.27194
1.25593
1.23987
1.22379
1.2077
1.19162
1.17555
1.15951
1.14353
1.12759
1.11173
1.09595
1.08026
1.06467
1.04919
1.03382
1.01856
1.00341
0.988379
0.973458
0.958638
0.94396
0.928974
0.913444
0.0280072
0.0513077
0.0662515
0.0775594
0.0871943
0.096205
0.105134
0.1143
0.123878
0.133939
0.144483
0.15547
0.166854
0.178604
0.190709
0.203185
0.216066
0.229395
0.243218
0.25758
0.272513
0.288042
0.30418
0.320926
0.338271
0.356196
0.374675
0.393677
0.413169
0.433116
0.453482
0.474235
0.495346
0.516785
0.538529
0.560555
0.582846
0.605383
0.628152
0.65114
0.674335
0.697728
0.721308
0.745067
0.768995
0.793085
0.817326
0.841711
0.866228
0.890868
0.91562
0.940471
0.965409
0.99042
1.01549
1.04061
1.06575
1.09091
1.11606
1.14119
1.16629
1.19132
1.21628
1.24115
1.2659
1.29052
1.31499
1.33929
1.36341
1.38732
1.41102
1.43448
1.45769
1.48061
1.50318
1.5254
1.54726
1.56876
1.58986
1.61056
1.63084
1.65069
1.67008
1.689
1.70744
1.72538
1.7428
1.75969
1.77604
1.79183
1.80706
1.82171
1.83577
1.84922
1.86207
1.87429
1.88589
1.89686
1.90718
1.91685
1.92586
1.93421
1.9419
1.94892
1.95526
1.96092
1.9659
1.9702
1.97382
1.97674
1.97898
1.98053
1.9814
1.98157
1.98107
1.97987
1.978
1.97545
1.97223
1.96833
1.96377
1.95856
1.95269
1.94618
1.93903
1.93126
1.92286
1.91386
1.90426
1.89408
1.88332
1.872
1.86014
1.84774
1.83483
1.82141
1.80751
1.79318
1.77842
1.76326
1.74773
1.73184
1.71564
1.69918
1.68252
1.66565
1.64855
1.63122
1.61365
1.59588
1.5779
1.55976
1.54146
1.52302
1.50447
1.48582
1.46709
1.4483
1.42947
1.41062
1.39176
1.37291
1.35409
1.33532
1.31661
1.29797
1.27942
1.26098
1.24265
1.22446
1.2064
1.1885
1.17077
1.15322
1.13587
1.11877
1.10197
1.08562
1.06963
1.054
0.0330996
0.0645668
0.0825318
0.0954981
0.106461
0.11658
0.126463
0.136469
0.146804
0.157574
0.168815
0.180524
0.192691
0.205309
0.218389
0.231956
0.246046
0.2607
0.275958
0.29185
0.3084
0.325617
0.343501
0.362042
0.381221
0.401011
0.421383
0.442304
0.46374
0.485658
0.508024
0.53081
0.553986
0.577529
0.601415
0.625626
0.650144
0.674954
0.700042
0.725395
0.751004
0.776857
0.802945
0.829259
0.855789
0.882526
0.90946
0.93658
0.963875
0.991333
1.01894
1.04669
1.07455
1.10252
1.13058
1.15872
1.1869
1.21512
1.24335
1.27158
1.29978
1.32793
1.35601
1.384
1.41187
1.43961
1.46718
1.49458
1.52177
1.54874
1.57547
1.60194
1.62812
1.65395
1.6794
1.70447
1.72913
1.75337
1.77717
1.80051
1.82336
1.84572
1.86757
1.88887
1.90962
1.9298
1.94939
1.96837
1.98674
2.00447
2.02155
2.03797
2.05372
2.06878
2.08314
2.0968
2.10975
2.12197
2.13346
2.1442
2.15421
2.16346
2.17196
2.17969
2.18666
2.19286
2.19829
2.20294
2.20682
2.20992
2.21224
2.21379
2.21456
2.21456
2.21378
2.21223
2.20992
2.20684
2.20301
2.19842
2.19309
2.18702
2.18022
2.17269
2.16445
2.15551
2.14588
2.13556
2.12459
2.11295
2.10067
2.08778
2.07427
2.06015
2.0455
2.03031
2.01459
1.99839
1.98171
1.96459
1.94704
1.9291
1.9108
1.89219
1.87331
1.85417
1.83477
1.81511
1.7952
1.77506
1.75472
1.73418
1.71348
1.69264
1.67168
1.65061
1.62947
1.60826
1.58702
1.56576
1.5445
1.52326
1.50206
1.48092
1.45985
1.43888
1.41802
1.39729
1.3767
1.35627
1.33602
1.31597
1.29614
1.27656
1.25728
1.23837
1.21993
1.20214
1.1851
1.16893
0.0376144
0.0756502
0.0961202
0.110743
0.122931
0.133998
0.144635
0.155252
0.1661
0.177329
0.189017
0.201206
0.213916
0.227165
0.240976
0.255377
0.270399
0.286076
0.302433
0.31949
0.337258
0.355736
0.374916
0.394783
0.415315
0.436486
0.458267
0.480629
0.50354
0.526972
0.550896
0.575286
0.600119
0.625372
0.651026
0.677064
0.70347
0.730229
0.757329
0.784758
0.812506
0.84056
0.868913
0.897552
0.926467
0.955649
0.985084
1.01476
1.04467
1.07479
1.1051
1.13561
1.16627
1.19708
1.22802
1.25907
1.2902
1.32139
1.35262
1.38386
1.41509
1.44629
1.47742
1.50846
1.53939
1.57017
1.60079
1.63122
1.66142
1.69138
1.72107
1.75046
1.77954
1.80821
1.83647
1.8643
1.89167
1.91856
1.94496
1.97084
1.99618
2.02096
2.04515
2.06874
2.09171
2.11403
2.13569
2.15667
2.17695
2.19652
2.21536
2.23345
2.25079
2.26736
2.28316
2.29816
2.31236
2.32575
2.33832
2.35006
2.36097
2.37104
2.38027
2.38865
2.39617
2.40284
2.40865
2.4136
2.41769
2.42091
2.42327
2.42477
2.42541
2.42519
2.42411
2.42218
2.4194
2.41578
2.41133
2.40604
2.39993
2.39301
2.38528
2.37676
2.36745
2.35737
2.34653
2.33494
2.32263
2.3096
2.29584
2.28144
2.26638
2.25069
2.23439
2.21751
2.20006
2.18207
2.16357
2.14459
2.12514
2.10526
2.08499
2.06435
2.0434
2.02214
2.0006
1.97877
1.95668
1.93435
1.9118
1.88905
1.86613
1.84306
1.81986
1.79656
1.77318
1.74975
1.72628
1.7028
1.67933
1.65589
1.6325
1.60918
1.58596
1.56285
1.53987
1.51704
1.49439
1.47192
1.44968
1.42768
1.40595
1.38454
1.36352
1.34297
1.32303
1.3039
1.28569
1.2686
0.0440765
0.0846951
0.107088
0.123061
0.136278
0.148151
0.159425
0.170548
0.181809
0.193397
0.20543
0.217983
0.231106
0.244834
0.259198
0.274229
0.289952
0.306389
0.32356
0.341472
0.36013
0.379529
0.399657
0.420499
0.442033
0.464239
0.487089
0.510561
0.534628
0.559266
0.584452
0.610166
0.636386
0.663094
0.690274
0.71791
0.745989
0.774496
0.803421
0.83275
0.862474
0.892581
0.923059
0.953898
0.985085
1.01661
1.04845
1.0806
1.11305
1.14577
1.17874
1.21195
1.24538
1.27901
1.3128
1.34674
1.3808
1.41495
1.44917
1.48342
1.51768
1.55192
1.5861
1.6202
1.65419
1.68803
1.72169
1.75514
1.78835
1.8213
1.85395
1.88626
1.91821
1.94971
1.98075
2.01131
2.04136
2.07089
2.09985
2.12824
2.15603
2.18318
2.20969
2.23552
2.26065
2.28507
2.30875
2.33167
2.35381
2.37516
2.3957
2.41542
2.4343
2.45232
2.46948
2.48577
2.50117
2.51567
2.52926
2.54195
2.55371
2.56455
2.57445
2.58342
2.59145
2.59854
2.60469
2.60988
2.61413
2.61744
2.61979
2.62121
2.62167
2.6212
2.6198
2.61746
2.6142
2.61001
2.60492
2.59892
2.59202
2.58424
2.57558
2.56605
2.55568
2.54447
2.53243
2.51957
2.50595
2.49156
2.47641
2.46055
2.44399
2.42674
2.40884
2.39032
2.37118
2.35147
2.33121
2.31042
2.28913
2.26738
2.2452
2.22262
2.19968
2.17641
2.15281
2.12892
2.10476
2.08033
2.05568
2.03082
2.00579
1.9806
1.95528
1.92986
1.90437
1.87882
1.85325
1.82767
1.8021
1.77659
1.75113
1.72576
1.70051
1.67538
1.65041
1.62561
1.60102
1.57664
1.55253
1.5287
1.5052
1.48209
1.45943
1.43734
1.41596
1.39549
1.37603
1.35772
0.0497739
0.0915648
0.115368
0.132392
0.146446
0.159003
0.170834
0.182412
0.194052
0.205965
0.218302
0.231162
0.244615
0.258713
0.273493
0.288986
0.305214
0.322197
0.339944
0.358463
0.377752
0.397807
0.418617
0.440169
0.462447
0.485432
0.509106
0.533449
0.558443
0.584069
0.610309
0.637147
0.664566
0.692551
0.72109
0.750168
0.779774
0.809895
0.84052
0.871638
0.903237
0.935304
0.967829
1.0008
1.0342
1.06801
1.10222
1.13682
1.17178
1.20708
1.2427
1.27862
1.31481
1.35125
1.38791
1.42476
1.46176
1.4989
1.53613
1.57342
1.61073
1.64803
1.6853
1.72247
1.75954
1.79645
1.83317
1.86966
1.9059
1.94184
1.97745
2.01271
2.04751
2.08183
2.11565
2.14893
2.18164
2.21377
2.24528
2.27615
2.30635
2.33586
2.36464
2.39267
2.41994
2.4464
2.47206
2.49687
2.52083
2.54392
2.56611
2.5874
2.60776
2.62719
2.64566
2.66318
2.67972
2.69529
2.70985
2.72342
2.73599
2.74754
2.75807
2.76759
2.77607
2.78354
2.78997
2.79537
2.79975
2.80309
2.8054
2.80669
2.80696
2.80621
2.80444
2.80167
2.79789
2.79312
2.78736
2.78063
2.77293
2.76428
2.75468
2.74413
2.73269
2.72036
2.70715
2.69307
2.67816
2.66243
2.6459
2.62861
2.61056
2.59179
2.57232
2.55218
2.5314
2.51
2.48801
2.46546
2.44239
2.41881
2.39478
2.37031
2.34546
2.32023
2.29467
2.26879
2.24263
2.21619
2.18952
2.16264
2.13558
2.10836
2.08101
2.05356
2.02603
1.99846
1.97087
1.94329
1.91573
1.88822
1.8608
1.83347
1.80627
1.77923
1.75236
1.72569
1.69924
1.67306
1.64717
1.6216
1.59642
1.57168
1.54747
1.5239
1.50111
1.47928
1.4585
1.43885
0.0545227
0.0963624
0.121105
0.138899
0.153606
0.166727
0.179045
0.19104
0.203035
0.21526
0.227878
0.241008
0.254733
0.269115
0.284199
0.300018
0.316595
0.333947
0.352084
0.371012
0.390733
0.411241
0.432532
0.454596
0.477423
0.501001
0.525317
0.55036
0.576116
0.602572
0.629716
0.657537
0.686023
0.715163
0.744946
0.775362
0.806399
0.838048
0.870297
0.903135
0.93655
0.97053
1.00506
1.04013
1.07571
1.1118
1.14837
1.18541
1.22288
1.26077
1.29906
1.3377
1.37668
1.41596
1.45551
1.49529
1.53527
1.57542
1.61568
1.65603
1.69642
1.73682
1.77717
1.81745
1.8576
1.89759
1.93738
1.97692
2.01618
2.05511
2.09368
2.13184
2.16949
2.20661
2.24317
2.27914
2.31449
2.34918
2.3832
2.41651
2.44907
2.48087
2.51188
2.54206
2.5714
2.59986
2.62743
2.65408
2.67979
2.70454
2.72832
2.75111
2.7729
2.79366
2.81339
2.83208
2.84971
2.86627
2.88175
2.89614
2.90945
2.92166
2.93276
2.94277
2.95166
2.95945
2.96612
2.97168
2.97613
2.97947
2.9817
2.98283
2.98286
2.98179
2.97964
2.9764
2.97208
2.9667
2.96026
2.95277
2.94426
2.93473
2.92419
2.91266
2.90016
2.88672
2.87234
2.85705
2.84086
2.82382
2.80592
2.78721
2.76771
2.74744
2.72643
2.70471
2.68231
2.65926
2.63559
2.61132
2.5865
2.56116
2.53532
2.50903
2.48232
2.45521
2.42775
2.39996
2.37187
2.3435
2.31489
2.28606
2.25704
2.22787
2.19857
2.16917
2.1397
2.11019
2.08067
2.05116
2.02169
1.99228
1.96297
1.93377
1.90472
1.87583
1.84715
1.81869
1.79048
1.76256
1.73497
1.70775
1.68096
1.65466
1.62895
1.60394
1.57976
1.55657
1.53442
1.51338
0.0583168
0.0993089
0.124579
0.142886
0.158068
0.171632
0.184358
0.196721
0.209045
0.221559
0.234435
0.2478
0.261746
0.276342
0.29164
0.307676
0.324478
0.342063
0.360446
0.379636
0.399635
0.420447
0.442071
0.464503
0.487741
0.511778
0.536611
0.562233
0.588638
0.61582
0.643771
0.672486
0.701957
0.732177
0.763139
0.794833
0.827253
0.860387
0.894226
0.928758
0.963971
0.999851
1.03638
1.07355
1.11133
1.1497
1.18865
1.22814
1.26816
1.30867
1.34963
1.39103
1.43282
1.47497
1.51743
1.56018
1.60315
1.64632
1.68964
1.73306
1.77653
1.82001
1.86346
1.90682
1.95005
1.9931
2.03593
2.07849
2.12073
2.16262
2.20412
2.24511
2.28556
2.32541
2.36465
2.40324
2.44115
2.47834
2.51478
2.55044
2.58529
2.6193
2.65244
2.68469
2.716
2.74637
2.77576
2.80415
2.83152
2.85786
2.88314
2.90734
2.93046
2.95247
2.97337
2.99314
3.01177
3.02925
3.04557
3.06071
3.07469
3.08748
3.09909
3.10952
3.11876
3.12681
3.13367
3.13933
3.14381
3.14709
3.1492
3.15013
3.14988
3.14846
3.14587
3.14214
3.13727
3.13126
3.12413
3.11589
3.10656
3.09615
3.08468
3.07216
3.05862
3.04407
3.02854
3.01205
2.99461
2.97627
2.95703
2.93693
2.916
2.89427
2.87175
2.84849
2.82452
2.79986
2.77456
2.74863
2.72212
2.69506
2.66748
2.63942
2.61092
2.58201
2.55273
2.5231
2.49316
2.46293
2.43246
2.40177
2.37088
2.33984
2.30868
2.27742
2.24609
2.21473
2.18336
2.15201
2.12071
2.08949
2.05838
2.02739
1.99657
1.96594
1.93552
1.90535
1.87546
1.84589
1.81668
1.78787
1.75954
1.73174
1.70458
1.67816
1.65261
1.62806
1.60453
1.58208
0.06119
0.100661
0.126116
0.144713
0.160207
0.174095
0.187141
0.19981
0.212416
0.225185
0.238286
0.251848
0.265968
0.280721
0.296162
0.312333
0.329267
0.346987
0.365513
0.384858
0.405033
0.426047
0.447905
0.470613
0.494174
0.518592
0.543868
0.570003
0.596999
0.624855
0.65357
0.683142
0.71357
0.744849
0.776976
0.809943
0.843745
0.878372
0.913814
0.950059
0.987093
1.0249
1.06346
1.10276
1.14277
1.18347
1.22483
1.26683
1.30942
1.35258
1.39626
1.44044
1.48507
1.5301
1.5755
1.6212
1.66718
1.71337
1.75972
1.80619
1.85271
1.89925
1.94574
1.99213
2.03838
2.08442
2.13022
2.17572
2.22087
2.26562
2.30992
2.35365
2.39677
2.43925
2.48105
2.52213
2.56247
2.60202
2.64075
2.67863
2.71564
2.75172
2.78687
2.82104
2.8542
2.88634
2.91741
2.94742
2.97632
3.0041
3.03075
3.05625
3.08058
3.10372
3.12567
3.14642
3.16595
3.18425
3.2013
3.2171
3.23165
3.24494
3.25698
3.26774
3.27725
3.28549
3.29248
3.29818
3.30262
3.30581
3.30773
3.30841
3.30785
3.30604
3.30302
3.29877
3.29332
3.28667
3.27884
3.26985
3.2597
3.24842
3.23602
3.22252
3.20795
3.19232
3.17566
3.15799
3.13933
3.11972
3.09917
3.07773
3.05541
3.03225
3.00828
2.98354
2.95804
2.93184
2.90496
2.87743
2.84929
2.82059
2.79134
2.7616
2.73139
2.70076
2.66974
2.63836
2.60666
2.57467
2.54243
2.50996
2.47731
2.44449
2.41156
2.37853
2.34544
2.31232
2.2792
2.24611
2.21309
2.18015
2.14732
2.11465
2.08215
2.04985
2.01779
1.986
1.95452
1.92338
1.89262
1.86231
1.8325
1.80327
1.77471
1.74692
1.72003
1.69413
1.66923
1.64539
0.0631887
0.100672
0.126043
0.144748
0.160411
0.174507
0.187782
0.200685
0.213517
0.226493
0.239779
0.253499
0.267752
0.282615
0.298149
0.314401
0.331409
0.349205
0.367814
0.387257
0.407553
0.428719
0.45077
0.473717
0.497575
0.522352
0.54806
0.574707
0.602299
0.630844
0.660344
0.690805
0.722227
0.75461
0.787952
0.822249
0.857494
0.89368
0.930794
0.968823
1.00775
1.04756
1.08823
1.12973
1.17204
1.21513
1.25897
1.30351
1.34873
1.39457
1.44101
1.48798
1.53545
1.58337
1.63168
1.68033
1.72926
1.77843
1.82776
1.8772
1.92669
1.97618
2.02561
2.07492
2.12405
2.17296
2.22158
2.26987
2.31777
2.36524
2.41214
2.45842
2.50403
2.54893
2.5931
2.63648
2.67905
2.72076
2.76159
2.8015
2.84045
2.87842
2.91538
2.95128
2.9861
3.01982
3.0524
3.08383
3.11408
3.14315
3.171
3.19762
3.22301
3.24713
3.26999
3.29157
3.31187
3.33086
3.34852
3.36486
3.37987
3.39355
3.4059
3.41692
3.4266
3.43495
3.44197
3.44765
3.452
3.45503
3.45673
3.45712
3.45621
3.45399
3.45049
3.44571
3.43967
3.43238
3.42385
3.41409
3.40313
3.39099
3.37768
3.36322
3.34763
3.33095
3.31318
3.29437
3.27453
3.25369
3.23189
3.20915
3.1855
3.16098
3.13562
3.10945
3.08251
3.05483
3.02645
2.9974
2.96773
2.93746
2.90664
2.8753
2.84348
2.81122
2.77857
2.74555
2.71219
2.67855
2.64464
2.61051
2.5762
2.54172
2.50713
2.47244
2.4377
2.40293
2.36818
2.33346
2.29881
2.26426
2.22983
2.19557
2.1615
2.12764
2.09404
2.06073
2.02774
1.99512
1.96291
1.93117
1.89996
1.86936
1.83946
1.81036
1.78215
1.75494
1.7287
1.7035
0.0643602
0.0995778
0.124662
0.143332
0.159049
0.173251
0.186668
0.199731
0.212727
0.225861
0.239289
0.253133
0.26749
0.282438
0.298042
0.314355
0.331422
0.349282
0.367968
0.38751
0.407937
0.429274
0.451544
0.47477
0.498972
0.52417
0.550381
0.577621
0.605902
0.635237
0.665634
0.6971
0.72964
0.763257
0.797949
0.833713
0.870542
0.908426
0.947351
0.987301
1.02826
1.07019
1.11308
1.1569
1.20161
1.24717
1.29355
1.3407
1.38858
1.43714
1.48633
1.5361
1.58639
1.63714
1.6883
1.73981
1.79161
1.84363
1.89581
1.94808
2.00037
2.05264
2.10481
2.15683
2.20864
2.26017
2.31139
2.36222
2.41263
2.46251
2.51174
2.56029
2.60811
2.65517
2.70141
2.74681
2.79133
2.83493
2.87757
2.91922
2.95985
2.99944
3.03795
3.07534
3.11156
3.14661
3.18045
3.21307
3.24445
3.27457
3.30341
3.33096
3.3572
3.38211
3.40569
3.42792
3.4488
3.46831
3.48643
3.50317
3.51852
3.53247
3.54503
3.5562
3.56597
3.57434
3.58131
3.5869
3.59109
3.5939
3.59533
3.59539
3.59409
3.59143
3.58744
3.58211
3.57546
3.56752
3.55828
3.54777
3.53601
3.52302
3.50882
3.49343
3.47686
3.45916
3.44034
3.42043
3.39946
3.37746
3.35446
3.33049
3.30559
3.27978
3.25311
3.2256
3.1973
3.16824
3.13846
3.10799
3.07687
3.04515
3.01286
2.98004
2.94673
2.91297
2.87879
2.84425
2.80937
2.77419
2.73875
2.70309
2.66723
2.63123
2.5951
2.55888
2.52262
2.48634
2.45007
2.41384
2.37769
2.34165
2.30575
2.27002
2.23449
2.19919
2.16416
2.12943
2.09505
2.06105
2.02748
1.99441
1.96189
1.93
1.89883
1.86846
1.839
1.81051
1.78299
1.75648
0.0647444
0.0975835
0.122238
0.140772
0.156452
0.170681
0.184166
0.197325
0.210431
0.223681
0.237224
0.251175
0.265633
0.280675
0.29637
0.312777
0.329948
0.347928
0.366762
0.386488
0.407143
0.428764
0.451382
0.47503
0.499736
0.525529
0.552433
0.58047
0.609658
0.640008
0.671533
0.704243
0.738144
0.77324
0.809527
0.847002
0.885652
0.925465
0.966423
1.0085
1.05168
1.09592
1.14119
1.18746
1.23468
1.28281
1.3318
1.3816
1.43216
1.48342
1.53532
1.5878
1.64081
1.69428
1.74814
1.80233
1.8568
1.91148
1.96626
2.02109
2.07591
2.13065
2.18525
2.23965
2.29379
2.34762
2.40107
2.45409
2.50662
2.55849
2.60966
2.66009
2.70973
2.75854
2.80648
2.85351
2.8996
2.9447
2.98879
3.03182
3.07377
3.1146
3.15429
3.1928
3.2301
3.26617
3.30098
3.3345
3.36673
3.39765
3.42722
3.45545
3.48231
3.50779
3.53188
3.55457
3.57584
3.59569
3.61411
3.63109
3.64663
3.66072
3.67336
3.68456
3.6943
3.7026
3.70944
3.71485
3.71881
3.72134
3.72245
3.72213
3.7204
3.71727
3.71276
3.70686
3.69961
3.691
3.68107
3.66983
3.65729
3.64348
3.62842
3.61213
3.59464
3.57597
3.55615
3.53521
3.51318
3.4901
3.46598
3.44087
3.41479
3.3878
3.35991
3.33117
3.30162
3.27129
3.24022
3.20845
3.17602
3.14297
3.10934
3.07517
3.04051
3.00538
2.96983
2.93391
2.89765
2.86108
2.82426
2.7872
2.74996
2.71257
2.67506
2.63746
2.59982
2.56216
2.52453
2.48694
2.44944
2.41205
2.37481
2.33774
2.30089
2.26428
2.22795
2.19193
2.15627
2.12101
2.08619
2.05189
2.01815
1.98506
1.9527
1.92115
1.8905
1.86081
1.83205
1.80431
0.0643747
0.0948597
0.118994
0.137325
0.152913
0.167114
0.18062
0.193834
0.207023
0.220376
0.234037
0.248122
0.262727
0.277934
0.293816
0.310437
0.327854
0.346122
0.365293
0.385416
0.406539
0.428704
0.451956
0.476331
0.501869
0.528604
0.556568
0.585797
0.616295
0.648065
0.681125
0.715487
0.751155
0.788128
0.826399
0.865957
0.906785
0.948862
0.99216
1.03665
1.08229
1.12905
1.17688
1.22574
1.27557
1.32632
1.37794
1.43036
1.48352
1.53737
1.59183
1.64685
1.70235
1.75827
1.81453
1.87108
1.92783
1.98473
2.04169
2.09865
2.15554
2.21229
2.26885
2.32515
2.38113
2.43674
2.49193
2.54663
2.60068
2.65401
2.7066
2.75838
2.80932
2.85937
2.90851
2.95668
3.00385
3.04998
3.09504
3.139
3.18183
3.22349
3.26396
3.3032
3.34119
3.3779
3.41332
3.44741
3.48016
3.51155
3.54156
3.57018
3.59739
3.62318
3.64753
3.67045
3.6919
3.7119
3.73042
3.74746
3.76302
3.77709
3.78967
3.80076
3.81036
3.81847
3.8251
3.83024
3.8339
3.83608
3.8368
3.83606
3.83387
3.83024
3.82519
3.81872
3.81085
3.8016
3.79099
3.77903
3.76575
3.75116
3.73528
3.71816
3.6998
3.68023
3.65949
3.63761
3.61461
3.59053
3.56539
3.53925
3.51212
3.48405
3.45507
3.42523
3.39456
3.36309
3.33088
3.29795
3.26436
3.23013
3.19532
3.15996
3.12409
3.08776
3.05101
3.01387
2.97639
2.93861
2.90057
2.86229
2.82383
2.78522
2.7465
2.70769
2.66884
2.62997
2.59113
2.55235
2.51365
2.47507
2.43665
2.3984
2.36038
2.3226
2.28511
2.24795
2.21115
2.17475
2.13882
2.1034
2.06856
2.03437
2.00092
1.96827
1.93651
1.90569
1.87579
1.8469
0.0632071
0.0913886
0.114966
0.133073
0.148551
0.162712
0.176231
0.189509
0.202807
0.216314
0.230175
0.244509
0.259415
0.274984
0.291304
0.308434
0.32643
0.34536
0.365287
0.386269
0.408361
0.431616
0.45608
0.481798
0.508809
0.53715
0.56685
0.597932
0.630412
0.664295
0.699588
0.736291
0.774397
0.813894
0.854764
0.896983
0.940522
0.985345
1.03141
1.07869
1.12711
1.17664
1.22722
1.27879
1.33129
1.38466
1.43883
1.49375
1.54934
1.60553
1.66227
1.71947
1.77708
1.83501
1.89321
1.9516
2.01012
2.06869
2.12725
2.18572
2.24406
2.30218
2.36004
2.41758
2.47475
2.53149
2.58773
2.64331
2.69818
2.75229
2.8056
2.85807
2.90964
2.96029
3.00998
3.05867
3.10631
3.15289
3.19836
3.24269
3.28586
3.32783
3.36858
3.40807
3.44629
3.4832
3.51879
3.55303
3.58591
3.6174
3.64749
3.67616
3.70339
3.72918
3.75351
3.77638
3.79776
3.81765
3.83604
3.85292
3.8683
3.88216
3.89451
3.90534
3.91465
3.92244
3.92871
3.93347
3.93673
3.93848
3.93873
3.9375
3.93479
3.93062
3.92499
3.91792
3.90942
3.89952
3.88823
3.87556
3.86155
3.84621
3.82956
3.81164
3.79246
3.77206
3.75047
3.72771
3.70381
3.67882
3.65277
3.62569
3.59761
3.56858
3.53863
3.5078
3.47613
3.44367
3.41044
3.3765
3.34188
3.30663
3.27078
3.23438
3.19747
3.16009
3.12229
3.08411
3.04558
3.00674
2.96764
2.92832
2.88881
2.84915
2.80937
2.76951
2.72962
2.68971
2.64983
2.61
2.57027
2.53066
2.4912
2.45193
2.41288
2.37409
2.33558
2.2974
2.25959
2.22219
2.18525
2.14883
2.113
2.07781
2.04335
2.0097
1.97691
1.94505
1.91409
1.88412
0.0615476
0.087707
0.110727
0.128632
0.144023
0.158176
0.171763
0.185187
0.198715
0.212544
0.226827
0.241689
0.257241
0.27358
0.290795
0.308964
0.328161
0.348456
0.369916
0.392604
0.416575
0.441882
0.468569
0.496675
0.52623
0.557259
0.589779
0.623796
0.659312
0.696317
0.734797
0.774733
0.816097
0.858857
0.902976
0.948411
0.995116
1.04304
1.09213
1.14233
1.19357
1.24581
1.29897
1.353
1.40783
1.46339
1.51961
1.57645
1.63381
1.69165
1.7499
1.80849
1.86735
1.92642
1.98563
2.04493
2.10425
2.16352
2.22269
2.2817
2.34049
2.399
2.45718
2.51499
2.57237
2.62924
2.68545
2.74095
2.79571
2.84969
2.90283
2.95511
3.00648
3.05692
3.10637
3.15481
3.2022
3.24851
3.2937
3.33776
3.38064
3.42232
3.46278
3.50198
3.5399
3.57651
3.61181
3.64575
3.67833
3.70951
3.7393
3.76766
3.79459
3.82007
3.84408
3.86662
3.88767
3.90722
3.92527
3.94181
3.95683
3.97032
3.98228
3.99272
4.00163
4.009
4.01485
4.01917
4.02196
4.02324
4.02301
4.02128
4.01805
4.01335
4.00717
3.99954
3.99047