/*--------------------------------*- C++ -*----------------------------------*\
| =========                 |                                                 |
| \\      /  F ield         | OpenFOAM: The Open Source CFD Toolbox           |
|  \\    /   O peration     | Version:  2412                                  |
|   \\  /    A nd           | Website:  www.openfoam.com                      |
|    \\/     M anipulation  |                                                 |
\*---------------------------------------------------------------------------*/
FoamFile
{
    version     2.0;
    format      ascii;
    arch        "LSB;label=32;scalar=64";
    class       volScalarField;
    location    "0.23";
    object      nut;
}
// * * * * * * * * * * * * * * * * * * * * * * * * * * * * * * * * * * * * * //

dimensions      [0 2 -1 0 0 0 0];

internalField   nonuniform List<scalar> 
12225
(
2.015e-05
2.24858e-05
2.47491e-05
2.63715e-05
2.7588e-05
2.85143e-05
2.92324e-05
2.97981e-05
3.02485e-05
3.061e-05
3.09017e-05
3.11381e-05
3.13294e-05
3.14835e-05
3.16061e-05
3.17003e-05
3.17687e-05
3.18285e-05
0.000167792
0.000185428
0.000202597
0.000213787
0.000221146
0.000225984
0.000229002
0.00023072
0.000231514
0.000231643
0.000231292
0.000230594
0.00022965
0.000228531
0.000227295
0.00022597
0.000224708
0.000224072
0.000338328
0.000365994
0.000399361
0.000424407
0.00044278
0.000456139
0.000465649
0.000472249
0.000476658
0.00047941
0.000480906
0.000481448
0.000481265
0.00048053
0.000479377
0.000477904
0.000476299
0.000475462
0.000480632
0.000521771
0.000570122
0.000608391
0.000637802
0.00066021
0.000677099
0.000689692
0.000698953
0.000705625
0.00071028
0.00071336
0.000715207
0.000716087
0.000716209
0.000715739
0.00071491
0.000714432
0.00059357
0.000650967
0.00071349
0.000763785
0.000803284
0.000834123
0.000858089
0.00087663
0.000890895
0.000901784
0.000909997
0.000916088
0.00092049
0.000923546
0.000925531
0.00092667
0.000927218
0.000927686
0.000684418
0.000756656
0.000831951
0.000893054
0.000941626
0.000980103
0.00101056
0.00103466
0.00105369
0.0010687
0.00108048
0.00108966
0.00109677
0.00110221
0.0011063
0.00110932
0.00111153
0.00111331
0.000759757
0.00084284
0.000928292
0.000998648
0.00105522
0.00110054
0.00113687
0.00116606
0.00118953
0.00120842
0.00122362
0.00123583
0.00124563
0.00125348
0.00125974
0.00126473
0.0012687
0.00127194
0.000823625
0.000913365
0.00100525
0.00108261
0.00114578
0.00119702
0.00123857
0.00127237
0.00129992
0.00132243
0.00134086
0.00135597
0.00136839
0.0013786
0.00138703
0.00139399
0.00139973
0.00140448
0.000877003
0.000970916
0.0010653
0.00114672
0.00121456
0.00127046
0.0013164
0.00135421
0.00138542
0.00141126
0.00143271
0.00145058
0.00146551
0.00147804
0.00148859
0.0014975
0.00150499
0.00151124
0.000918258
0.00101593
0.00110995
0.00119241
0.00126253
0.0013214
0.00137055
0.00141157
0.00144587
0.00147463
0.00149882
0.00151925
0.00153658
0.00155133
0.00156396
0.00157477
0.001584
0.00159172
0.000944751
0.00104624
0.0011388
0.00122006
0.00129015
0.00135004
0.0014009
0.00144402
0.0014806
0.0015117
0.00153822
0.00156093
0.00158044
0.00159729
0.0016119
0.00162457
0.0016355
0.00164465
0.000953929
0.00105647
0.00114713
0.00122621
0.00129479
0.00135413
0.00140528
0.00144929
0.00148719
0.00151986
0.00154809
0.00157257
0.00159388
0.00161249
0.00162881
0.00164312
0.00165556
0.00166602
0.000951545
0.0010519
0.00114069
0.00121791
0.00128482
0.0013429
0.00139336
0.00143724
0.00147545
0.00150878
0.00153794
0.00156353
0.00158606
0.00160596
0.0016236
0.00163923
0.00165293
0.00166447
0.000937266
0.00102693
0.00110961
0.00118333
0.00124793
0.00130434
0.00135362
0.00139676
0.00143463
0.001468
0.00149751
0.00152369
0.00154702
0.00156787
0.00158656
0.0016033
0.00161811
0.00163063
0.000914066
0.000982516
0.00105
0.00111401
0.00117277
0.00122567
0.00127281
0.00131462
0.00135169
0.00138461
0.00141396
0.00144023
0.00146384
0.00148514
0.00150442
0.00152186
0.00153746
0.00155068
0.000888181
0.000929365
0.000972527
0.00101672
0.00106056
0.0011029
0.00114292
0.00118011
0.00121428
0.00124543
0.00127374
0.00129945
0.00132281
0.00134408
0.00136348
0.00138117
0.00139714
0.00141081
0.000866165
0.000882903
0.000901457
0.000921825
0.00094371
0.000966718
0.000990419
0.00101437
0.00103813
0.00106136
0.00108377
0.00110518
0.00112548
0.00114459
0.00116249
0.0011792
0.00119465
0.00120841
0.000853647
0.000856463
0.000860483
0.000865723
0.000872136
0.000879656
0.000888214
0.000897719
0.000908059
0.000919104
0.000930715
0.000942751
0.000955075
0.000967564
0.000980095
0.000992552
0.00100481
0.00101666
0.000856837
0.00086304
0.000870433
0.000879025
0.000888701
0.000899307
0.000910676
0.000922624
0.000934955
0.000947484
0.000960043
0.000972494
0.000984724
0.000996649
0.00100821
0.00101936
0.00103006
0.00104006
0.000879014
0.000910092
0.000943005
0.0009771
0.00101138
0.00104493
0.00107708
0.00110731
0.00113536
0.00116111
0.00118458
0.00120589
0.00122519
0.00124265
0.00125845
0.00127274
0.00128565
0.00129725
0.000912428
0.000978633
0.00104329
0.00110415
0.00115969
0.00120945
0.00125358
0.00129251
0.00132677
0.0013569
0.00138344
0.00140686
0.00142755
0.00144588
0.00146213
0.00147658
0.00148943
0.00150098
0.000944652
0.00103937
0.00112414
0.00119816
0.00126209
0.00131726
0.00136492
0.0014061
0.00144172
0.00147255
0.00149929
0.00152252
0.00154273
0.00156034
0.00157571
0.00158915
0.00160091
0.00161125
0.000952969
0.00105495
0.00114494
0.00122286
0.00128968
0.00134681
0.00139548
0.00143685
0.001472
0.0015019
0.00152736
0.00154908
0.00156764
0.00158352
0.00159712
0.00160878
0.00161878
0.00162735
0.000919762
0.00101577
0.00110711
0.00118655
0.00125366
0.00130983
0.00135663
0.00139556
0.001428
0.00145508
0.00147772
0.00149669
0.0015126
0.00152595
0.00153716
0.00154657
0.00155445
0.00156098
0.000847919
0.000936212
0.00102591
0.00110193
0.0011644
0.00121544
0.00125709
0.00129112
0.00131899
0.00134186
0.00136065
0.00137609
0.00138878
0.0013992
0.00140773
0.00141469
0.00142033
0.00142481
0.000748241
0.000825344
0.000905836
0.000972006
0.00102523
0.00106796
0.00110226
0.00112982
0.00115199
0.00116982
0.00118415
0.00119563
0.00120479
0.00121206
0.00121778
0.00122223
0.00122561
0.00122806
0.000620838
0.000679397
0.000743804
0.000795902
0.000837071
0.000869522
0.000895046
0.000915072
0.000930738
0.000942939
0.000952376
0.0009596
0.000965047
0.000969063
0.000971926
0.000973855
0.000975026
0.000975553
0.000453206
0.00049108
0.000536513
0.000572228
0.000599359
0.000619976
0.000635559
0.000647219
0.000655839
0.000662098
0.000666518
0.000669499
0.000671354
0.000672324
0.000672602
0.000672336
0.000671645
0.000670628
0.00023657
0.000259231
0.000284033
0.000301436
0.000313162
0.000321244
0.000326756
0.000330375
0.000332602
0.000333804
0.000334243
0.000334113
0.000333558
0.000332689
0.00033159
0.000330323
0.000328939
0.000327501
2.7242e-05
3.0171e-05
3.32397e-05
3.54417e-05
3.70547e-05
3.8262e-05
3.91809e-05
3.98936e-05
4.04544e-05
4.09001e-05
4.12576e-05
4.15462e-05
4.17807e-05
4.19721e-05
4.21288e-05
4.22576e-05
4.23633e-05
4.24508e-05
4.92945e-06
1.33503e-05
1.51611e-05
1.64496e-05
1.73795e-05
1.81006e-05
1.88436e-05
1.96228e-05
2.04064e-05
2.11991e-05
2.20154e-05
2.28898e-05
2.39303e-05
2.51195e-05
2.63627e-05
2.76389e-05
2.89409e-05
3.02668e-05
3.16147e-05
3.29814e-05
3.43623e-05
3.5752e-05
3.71453e-05
3.85373e-05
3.9924e-05
4.13026e-05
4.26717e-05
4.40312e-05
4.53829e-05
4.67305e-05
4.808e-05
4.94196e-05
5.07381e-05
5.20342e-05
5.33078e-05
5.45588e-05
5.57874e-05
5.6994e-05
5.8179e-05
5.93428e-05
6.0486e-05
6.1609e-05
6.27124e-05
6.37966e-05
6.4862e-05
6.59091e-05
6.69382e-05
6.79495e-05
6.89433e-05
6.99199e-05
7.08793e-05
7.18217e-05
7.27471e-05
7.36556e-05
7.45472e-05
7.54218e-05
7.62795e-05
7.71201e-05
7.79436e-05
7.87498e-05
7.95387e-05
8.03102e-05
8.10641e-05
8.18003e-05
8.25187e-05
8.32192e-05
8.39016e-05
8.4566e-05
8.52121e-05
8.58402e-05
8.64504e-05
8.70432e-05
8.76195e-05
8.81812e-05
8.87316e-05
8.92661e-05
8.97798e-05
9.02735e-05
9.07478e-05
9.12029e-05
9.16387e-05
9.20552e-05
9.24525e-05
9.28305e-05
9.3189e-05
9.3528e-05
9.38476e-05
9.41477e-05
9.44282e-05
9.46892e-05
9.49306e-05
9.51524e-05
9.53548e-05
9.55376e-05
9.57009e-05
9.58448e-05
9.59692e-05
9.60743e-05
9.616e-05
9.62265e-05
9.62738e-05
9.6302e-05
9.6311e-05
9.63011e-05
9.62723e-05
9.62246e-05
9.61582e-05
9.60731e-05
9.59694e-05
9.58472e-05
9.57067e-05
9.55479e-05
9.53709e-05
9.51759e-05
9.4963e-05
9.47323e-05
9.4484e-05
9.42182e-05
9.3935e-05
9.36347e-05
9.33174e-05
9.29833e-05
9.26326e-05
9.22655e-05
9.18822e-05
9.14829e-05
9.1068e-05
9.06375e-05
9.01919e-05
8.97314e-05
8.92563e-05
8.87668e-05
8.82634e-05
8.77462e-05
8.72158e-05
8.66724e-05
8.61165e-05
8.55484e-05
8.49682e-05
8.43776e-05
8.37752e-05
8.31643e-05
8.25485e-05
8.19526e-05
8.15062e-05
8.11065e-05
8.07026e-05
8.02909e-05
7.98713e-05
7.94441e-05
7.90096e-05
7.85682e-05
7.81202e-05
7.76662e-05
7.72064e-05
7.67413e-05
7.62714e-05
7.57969e-05
7.53184e-05
7.48363e-05
7.43509e-05
7.38627e-05
7.33721e-05
7.28795e-05
7.23852e-05
7.18895e-05
7.13927e-05
7.0895e-05
7.03965e-05
6.9897e-05
6.93964e-05
6.88938e-05
6.8388e-05
6.78767e-05
6.73557e-05
6.68169e-05
6.62428e-05
6.55881e-05
6.47745e-05
6.37147e-05
7.19286e-06
3.21467e-05
6.36979e-05
8.84302e-05
0.000105897
0.000118324
0.000126078
0.000131208
0.000135486
0.000139664
0.000143902
0.000148108
0.000152167
0.000156116
0.000160072
0.000164129
0.00016837
0.000172873
0.000177704
0.000182917
0.000188553
0.00019464
0.000201189
0.000208201
0.000215664
0.000223555
0.000231845
0.000240493
0.000249459
0.000258698
0.000268176
0.000277871
0.000287763
0.000297823
0.000308026
0.000318345
0.000328757
0.000339241
0.00034978
0.000360359
0.000370966
0.000381589
0.000392222
0.000402857
0.000413488
0.000424112
0.000434724
0.000445322
0.000455901
0.000466459
0.000476993
0.000487499
0.000497974
0.000508414
0.000518816
0.000529174
0.000539486
0.000549744
0.000559946
0.000570086
0.000580158
0.000590159
0.000600081
0.000609921
0.000619672
0.00062933
0.000638889
0.000648341
0.00065768
0.000666892
0.000675964
0.000684872
0.000693581
0.000702042
0.000710037
0.000717546
0.000724858
0.000732022
0.000739044
0.000745923
0.000752659
0.000759247
0.000765687
0.000771976
0.000778112
0.000784092
0.000789914
0.000795576
0.000801077
0.000806414
0.000811587
0.000816594
0.000821432
0.000826102
0.000830602
0.000834932
0.000839089
0.000843073
0.000846884
0.000850521
0.000853983
0.00085727
0.000860381
0.000863315
0.000866073
0.000868654
0.000871058
0.000873283
0.000875331
0.000877201
0.000878892
0.000880405
0.000881739
0.000882894
0.000883871
0.00088467
0.00088529
0.000885731
0.000885995
0.000886081
0.000885991
0.000885723
0.00088528
0.000884662
0.000883869
0.000882904
0.000881767
0.000880458
0.000878981
0.000877336
0.000875526
0.000873551
0.000871415
0.000869119
0.000866667
0.000864059
0.000861302
0.000858397
0.000855341
0.000852153
0.000848828
0.000845333
0.000841596
0.000837301
0.000831535
0.000824967
0.000818095
0.000811056
0.000803893
0.000796628
0.000789274
0.000781839
0.00077433
0.000766756
0.000759122
0.000751434
0.000743699
0.000735921
0.000728108
0.000720264
0.000712395
0.000704506
0.000696602
0.000688688
0.000680768
0.000672848
0.000664931
0.00065702
0.000649119
0.000641228
0.000633348
0.000625478
0.000617612
0.000609739
0.000601839
0.000593872
0.000585737
0.000577175
0.000564589
0.000541123
8.7478e-06
5.16958e-05
0.000105257
0.000146441
0.000175605
0.000195193
0.000208504
0.000218153
0.00022601
0.000233212
0.000240332
0.000247613
0.000255153
0.000263035
0.000271351
0.000280202
0.000289695
0.000299932
0.000311004
0.000322984
0.000335922
0.000349841
0.00036474
0.000380594
0.000397358
0.000414968
0.000433349
0.00045242
0.000472096
0.000492294
0.000512938
0.00053396
0.000555298
0.000576892
0.000598691
0.000620646
0.000642719
0.000664876
0.000687089
0.000709336
0.000731599
0.000753863
0.000776118
0.000798353
0.00082056
0.000842734
0.000864869
0.000886958
0.000908995
0.000930976
0.000952893
0.000974739
0.000996506
0.00101819
0.00103977
0.00106125
0.00108262
0.00110386
0.00112496
0.00114591
0.00116671
0.00118732
0.00120776
0.00122799
0.00124801
0.00126781
0.00128736
0.00130664
0.00132564
0.00134434
0.0013627
0.00138068
0.00139826
0.00141538
0.00143183
0.0014478
0.00146342
0.00147871
0.0014937
0.00150838
0.00152275
0.0015368
0.00155053
0.00156392
0.00157699
0.00158972
0.00160211
0.00161415
0.00162584
0.00163717
0.00164815
0.00165877
0.00166902
0.00167891
0.00168843
0.00169757
0.00170635
0.00171475
0.00172277
0.00173041
0.00173767
0.00174455
0.00175105
0.00175716
0.00176289
0.00176824
0.0017732
0.00177778
0.00178196
0.00178576
0.00178918
0.0017922
0.00179484
0.00179709
0.00179895
0.00180043
0.00180152
0.00180222
0.00180254
0.00180247
0.00180202
0.00180119
0.00179997
0.00179838
0.00179641
0.00179407
0.00179136
0.00178828
0.00178484
0.00178104
0.00177688
0.00177237
0.00176751
0.00176231
0.00175678
0.00175092
0.00174475
0.00173826
0.00173148
0.00172439
0.00171701
0.00170926
0.00170102
0.00169195
0.00168145
0.0016699
0.00165773
0.00164516
0.00163228
0.00161915
0.0016058
0.00159224
0.0015785
0.0015646
0.00155054
0.00153633
0.001522
0.00150756
0.00149301
0.00147837
0.00146365
0.00144887
0.00143402
0.00141913
0.0014042
0.00138924
0.00137427
0.00135928
0.00134429
0.00132929
0.00131429
0.00129929
0.00128426
0.00126918
0.001254
0.0012386
0.00122272
0.00120565
0.00118402
0.00114689
9.92498e-06
7.05424e-05
0.000139745
0.000192368
0.000229589
0.0002557
0.000274402
0.000288594
0.000300381
0.000311166
0.000321799
0.000332752
0.000344289
0.000356573
0.000369734
0.000383887
0.000399139
0.000415585
0.000433301
0.000452335
0.000472704
0.000494399
0.000517376
0.000541571
0.000566898
0.000593258
0.000620544
0.000648647
0.000677458
0.000706874
0.000736803
0.000767158
0.000797862
0.000828848
0.000860055
0.000891434
0.000922941
0.00095454
0.000986202
0.0010179
0.00104962
0.00108134
0.00111304
0.00114472
0.00117637
0.00120797
0.00123952
0.001271
0.00130241
0.00133373
0.00136496
0.00139608
0.00142708
0.00145794
0.00148866
0.00151922
0.00154959
0.00157978
0.00160975
0.00163949
0.00166898
0.00169821
0.00172715
0.00175579
0.0017841
0.00181207
0.00183966
0.00186686
0.00189365
0.00191999
0.00194586
0.00197123
0.00199607
0.00202029
0.00204386
0.00206689
0.00208944
0.00211154
0.00213319
0.0021544
0.00217517
0.00219548
0.00221532
0.0022347
0.00225361
0.00227203
0.00228996
0.0023074
0.00232434
0.00234077
0.0023567
0.0023721
0.00238699
0.00240135
0.00241519
0.0024285
0.00244127
0.0024535
0.00246519
0.00247635
0.00248695
0.00249701
0.00250653
0.00251549
0.0025239
0.00253176
0.00253906
0.00254581
0.00255201
0.00255764
0.00256272
0.00256724
0.0025712
0.00257461
0.00257745
0.00257974
0.00258146
0.00258263
0.00258325
0.0025833
0.00258281
0.00258176
0.00258016
0.00257801
0.00257532
0.00257209
0.00256832
0.00256402
0.00255919
0.00255384
0.00254797
0.0025416
0.00253472
0.00252735
0.00251949
0.00251117
0.00250238
0.00249315
0.00248347
0.00247334
0.00246275
0.00245165
0.00243991
0.0024273
0.00241352
0.0023987
0.00238312
0.00236697
0.00235035
0.00233334
0.00231597
0.00229828
0.00228031
0.00226206
0.00224356
0.00222482
0.00220588
0.00218674
0.00216742
0.00214795
0.00212833
0.00210858
0.00208872
0.00206876
0.00204873
0.00202862
0.00200846
0.00198827
0.00196803
0.00194778
0.00192749
0.00190718
0.00188683
0.00186639
0.0018458
0.00182489
0.00180332
0.00178021
0.00175266
0.00171269
1.079e-05
8.5937e-05
0.000168061
0.000230423
0.000275554
0.000308133
0.000332227
0.000351024
0.000366879
0.000381428
0.000395739
0.000410475
0.000426036
0.00044267
0.000460544
0.000479783
0.000500479
0.000522698
0.000546481
0.000571833
0.000598734
0.000627131
0.000656949
0.000688092
0.000720451
0.000753907
0.000788341
0.000823632
0.000859668
0.000896341
0.000933552
0.000971215
0.00100925
0.00104759
0.00108616
0.00112493
0.00116384
0.00120286
0.00124196
0.0012811
0.00132027
0.00135944
0.00139859
0.00143772
0.00147681
0.00151583
0.00155479
0.00159366
0.00163243
0.00167108
0.0017096
0.00174798
0.0017862
0.00182423
0.00186206
0.00189968
0.00193705
0.00197417
0.002011
0.00204754
0.00208375
0.00211961
0.00215511
0.00219021
0.0022249
0.00225915
0.00229294
0.00232623
0.00235902
0.00239127
0.00242297
0.00245408
0.0024846
0.0025144
0.00254354
0.00257207
0.00260005
0.00262748
0.00265437
0.00268072
0.00270653
0.00273178
0.00275647
0.0027806
0.00280415
0.00282711
0.00284948
0.00287125
0.00289242
0.00291297
0.0029329
0.00295221
0.00297088
0.00298892
0.00300632
0.00302307
0.00303918
0.00305463
0.00306942
0.00308355
0.00309702
0.00310982
0.00312195
0.00313341
0.00314419
0.0031543
0.00316373
0.00317248
0.00318055
0.00318793
0.00319463
0.00320065
0.00320597
0.00321062
0.00321457
0.00321783
0.00322041
0.0032223
0.0032235
0.00322402
0.00322385
0.003223
0.00322147
0.00321926
0.00321638
0.00321283
0.00320861
0.00320373
0.00319819
0.003192
0.00318517
0.00317771
0.00316963
0.00316093
0.00315163
0.00314173
0.00313126
0.00312021
0.0031086
0.00309642
0.00308366
0.00307028
0.00305619
0.00304125
0.00302531
0.0030084
0.00299068
0.00297228
0.00295331
0.00293382
0.00291387
0.00289351
0.00287275
0.00285162
0.00283016
0.00280839
0.00278632
0.00276399
0.0027414
0.00271859
0.00269556
0.00267235
0.00264898
0.00262545
0.0026018
0.00257803
0.00255418
0.00253024
0.00250624
0.00248219
0.0024581
0.00243395
0.00240975
0.00238546
0.00236099
0.0023362
0.00231072
0.0022837
0.00225292
0.00221385
1.15018e-05
9.71641e-05
0.000190015
0.00026171
0.000314686
0.000353848
0.000383521
0.000407126
0.000427235
0.000445693
0.000463758
0.000482254
0.000501702
0.00052243
0.000544641
0.000568463
0.000593974
0.00062121
0.000650175
0.000680841
0.000713152
0.000747028
0.000782373
0.000819074
0.000857012
0.000896064
0.000936105
0.000977017
0.00101869
0.00106101
0.00110389
0.00114724
0.00119098
0.00123504
0.00127936
0.00132389
0.00136857
0.00141338
0.00145827
0.00150322
0.0015482
0.00159317
0.00163813
0.00168305
0.00172792
0.0017727
0.0018174
0.00186198
0.00190643
0.00195073
0.00199487
0.00203882
0.00208257
0.00212609
0.00216936
0.00221237
0.00225508
0.00229748
0.00233954
0.00238123
0.00242255
0.00246345
0.00250392
0.00254393
0.00258346
0.00262249
0.00266099
0.00269893
0.0027363
0.00277308
0.00280924
0.00284476
0.00287963
0.00291375
0.00294718
0.00297997
0.00301214
0.0030437
0.00307466
0.00310502
0.00313477
0.0031639
0.0031924
0.00322027
0.00324749
0.00327406
0.00329997
0.00332521
0.00334977
0.00337364
0.00339682
0.0034193
0.00344108
0.00346214
0.00348248
0.0035021
0.00352099
0.00353914
0.00355655
0.00357322
0.00358914
0.0036043
0.00361871
0.00363237
0.00364526
0.00365739
0.00366875
0.00367934
0.00368915
0.00369819
0.00370646
0.00371394
0.00372065
0.00372657
0.00373171
0.00373607
0.00373965
0.00374244
0.00374444
0.00374567
0.00374611
0.00374577
0.00374465
0.00374276
0.00374009
0.00373666
0.00373246
0.0037275
0.00372179
0.00371533
0.00370814
0.0037002
0.00369155
0.00368219
0.00367213
0.00366139
0.00364996
0.00363787
0.00362512
0.00361171
0.00359763
0.00358285
0.00356733
0.00355097
0.0035337
0.00351553
0.00349654
0.00347682
0.00345644
0.00343546
0.00341394
0.00339192
0.00336942
0.00334648
0.00332313
0.00329939
0.00327528
0.00325084
0.00322609
0.00320104
0.00317572
0.00315017
0.00312439
0.00309841
0.00307225
0.00304595
0.0030195
0.00299295
0.0029663
0.00293957
0.00291278
0.00288593
0.00285901
0.00283201
0.00280486
0.00277742
0.00274936
0.00271999
0.00268771
0.00265022
1.24508e-05
0.000102496
0.000205005
0.000285994
0.000346923
0.000392831
0.000428278
0.000456895
0.000481439
0.000503926
0.000525777
0.000547953
0.000571084
0.000595565
0.000621642
0.000649452
0.000679064
0.000710497
0.00074373
0.000778712
0.000815366
0.000853599
0.000893302
0.000934358
0.000976644
0.00102004
0.00106442
0.00110967
0.00115569
0.00120236
0.00124961
0.00129733
0.00134546
0.00139392
0.00144266
0.00149162
0.00154075
0.00159
0.00163934
0.00168874
0.00173816
0.00178758
0.00183697
0.00188631
0.00193557
0.00198474
0.00203379
0.00208271
0.00213146
0.00218004
0.00222842
0.00227659
0.0023245
0.00237216
0.00241953
0.00246659
0.00251332
0.00255969
0.00260569
0.00265127
0.00269643
0.00274114
0.00278536
0.00282909
0.00287229
0.00291494
0.00295702
0.00299851
0.00303938
0.00307962
0.00311921
0.00315813
0.00319634
0.0032338
0.00327056
0.00330665
0.0033421
0.0033769
0.00341106
0.00344458
0.00347745
0.00350966
0.00354121
0.00357208
0.00360226
0.00363174
0.00366053
0.00368859
0.00371593
0.00374254
0.0037684
0.00379352
0.00381788
0.00384147
0.00386429
0.00388634
0.0039076
0.00392807
0.00394774
0.00396661
0.00398467
0.00400191
0.00401835
0.00403396
0.00404875
0.00406271
0.00407584
0.00408813
0.00409959
0.0041102
0.00411997
0.00412889
0.00413697
0.00414419
0.00415057
0.00415608
0.00416075
0.00416456
0.00416751
0.00416961
0.00417085
0.00417124
0.00417077
0.00416947
0.0041673
0.0041643
0.00416046
0.00415579
0.00415028
0.00414395
0.0041368
0.00412885
0.00412011
0.00411058
0.00410028
0.00408921
0.00407739
0.00406483
0.00405154
0.00403752
0.00402276
0.00400726
0.00399097
0.00397387
0.00395589
0.00393706
0.0039174
0.00389699
0.00387586
0.00385408
0.0038317
0.00380874
0.00378524
0.00376124
0.00373676
0.00371183
0.00368648
0.00366073
0.00363461
0.00360814
0.00358135
0.00355426
0.0035269
0.0034993
0.00347148
0.00344346
0.00341527
0.00338693
0.00335847
0.00332991
0.00330126
0.00327255
0.00324378
0.00321494
0.00318599
0.00315683
0.00312718
0.0030965
0.00306369
0.00302752
1.32315e-05
0.000105104
0.000214959
0.000304143
0.00037258
0.000425104
0.000466348
0.000500065
0.000529138
0.000555711
0.000581328
0.000607061
0.000633631
0.000661503
0.000690962
0.000722167
0.000755192
0.000790049
0.000826709
0.000865111
0.00090517
0.000946786
0.000989849
0.00103424
0.00107984
0.00112653
0.0011742
0.00122273
0.00127202
0.00132197
0.00137249
0.00142349
0.00147491
0.00152666
0.0015787
0.00163096
0.00168339
0.00173595
0.00178859
0.00184129
0.001894
0.00194671
0.00199937
0.00205197
0.00210447
0.00215687
0.00220913
0.00226123
0.00231316
0.00236488
0.00241639
0.00246765
0.00251865
0.00256936
0.00261976
0.00266983
0.00271954
0.00276887
0.0028178
0.0028663
0.00291434
0.00296191
0.00300898
0.00305552
0.00310151
0.00314692
0.00319175
0.00323596
0.00327954
0.00332246
0.00336472
0.0034063
0.00344711
0.00348719
0.00352658
0.0035653
0.00360336
0.00364076
0.00367751
0.00371359
0.00374901
0.00378375
0.00381779
0.00385114
0.00388378
0.0039157
0.00394689
0.00397733
0.00400702
0.00403595
0.0040641
0.00409147
0.00411805
0.00414384
0.00416881
0.00419297
0.00421631
0.00423882
0.0042605
0.00428132
0.0043013
0.00432043
0.00433869
0.00435609
0.00437262
0.00438828
0.00440306
0.00441696
0.00442996
0.00444208
0.0044533
0.00446363
0.00447306
0.00448159
0.00448922
0.00449593
0.00450174
0.00450664
0.00451064
0.00451372
0.00451589
0.00451714
0.0045175
0.00451696
0.0045155
0.00451314
0.00450988
0.00450574
0.0045007
0.00449479
0.004488
0.00448036
0.00447186
0.00446252
0.00445234
0.00444135
0.00442955
0.00441694
0.00440355
0.00438937
0.00437441
0.00435866
0.00434211
0.00432473
0.00430651
0.00428745
0.00426757
0.0042469
0.0042255
0.00420341
0.00418065
0.00415728
0.00413331
0.00410879
0.00408373
0.00405818
0.00403215
0.00400567
0.00397877
0.00395147
0.00392381
0.0038958
0.00386748
0.00383887
0.00380999
0.00378089
0.00375157
0.00372208
0.00369244
0.00366268
0.00363281
0.00360288
0.0035729
0.00354288
0.00351279
0.00348258
0.00345203
0.00342075
0.00338797
0.003353
1.38486e-05
0.000105756
0.000220795
0.000316836
0.000392059
0.000450839
0.000497721
0.00053648
0.000570061
0.000600685
0.00062998
0.000659105
0.000688856
0.000719759
0.000752141
0.000786193
0.000822004
0.000859595
0.00089894
0.000939979
0.000982628
0.00102679
0.00107235
0.00111921
0.00116724
0.00121634
0.00126638
0.00131727
0.00136891
0.00142119
0.00147404
0.00152736
0.0015811
0.00163517
0.00168951
0.00174408
0.00179882
0.00185368
0.00190862
0.00196361
0.00201861
0.00207359
0.00212852
0.00218338
0.00223814
0.00229278
0.00234728
0.00240161
0.00245576
0.0025097
0.00256342
0.00261688
0.00267008
0.00272299
0.00277558
0.00282783
0.00287973
0.00293124
0.00298234
0.00303301
0.00308323
0.00313296
0.00318218
0.00323088
0.00327902
0.00332658
0.00337355
0.00341989
0.0034656
0.00351064
0.00355501
0.00359868
0.00364161
0.00368384
0.00372539
0.00376627
0.0038065
0.00384607
0.00388499
0.00392323
0.00396081
0.00399769
0.00403388
0.00406937
0.00410413
0.00413815
0.00417143
0.00420395
0.0042357
0.00426667
0.00429684
0.00432621
0.00435478
0.00438252
0.00440942
0.00443549
0.00446072
0.00448508
0.00450858
0.0045312
0.00455294
0.0045738
0.00459376
0.00461283
0.00463099
0.00464825
0.0046646
0.00468003
0.00469453
0.0047081
0.00472073
0.00473244
0.00474322
0.00475305
0.00476194
0.00476987
0.00477686
0.0047829
0.004788
0.00479215
0.00479533
0.00479755
0.00479883
0.00479916
0.00479854
0.00479698
0.00479447
0.00479103
0.00478667
0.00478138
0.00477517
0.00476806
0.00476006
0.00475116
0.00474139
0.00473076
0.00471927
0.00470693
0.00469376
0.00467976
0.00466494
0.00464931
0.00463284
0.00461555
0.00459741
0.00457844
0.00455865
0.00453807
0.00451673
0.00449466
0.0044719
0.00444848
0.00442443
0.00439978
0.00437455
0.00434878
0.00432249
0.00429571
0.00426847
0.00424079
0.00421269
0.00418422
0.00415539
0.00412623
0.00409678
0.00406705
0.00403709
0.00400692
0.00397657
0.00394608
0.00391549
0.00388482
0.00385411
0.00382339
0.00379266
0.00376188
0.00373092
0.00369949
0.00366705
0.00363318
1.43226e-05
0.000104896
0.000223174
0.000324687
0.000405831
0.000470346
0.000522553
0.00056616
0.00060411
0.000638656
0.000671476
0.000703788
0.000736445
0.000770027
0.000804908
0.000841309
0.000879348
0.000919061
0.000960437
0.00100342
0.00104794
0.00109391
0.00114122
0.00118976
0.00123944
0.00129013
0.00134173
0.00139415
0.00144729
0.00150105
0.00155536
0.00161012
0.00166528
0.00172077
0.00177652
0.00183249
0.00188861
0.00194486
0.00200118
0.00205755
0.00211393
0.00217029
0.00222661
0.00228286
0.00233901
0.00239506
0.00245097
0.00250673
0.00256232
0.00261771
0.00267289
0.00272785
0.00278255
0.00283698
0.00289111
0.00294493
0.0029984
0.00305151
0.00310423
0.00315654
0.0032084
0.0032598
0.0033107
0.00336109
0.00341093
0.0034602
0.00350888
0.00355695
0.00360439
0.00365117
0.00369729
0.0037427
0.00378741
0.00383146
0.00387486
0.00391762
0.00395973
0.0040012
0.00404201
0.00408217
0.00412165
0.00416045
0.00419856
0.00423595
0.00427262
0.00430854
0.00434372
0.00437812
0.00441174
0.00444457
0.0044766
0.00450781
0.00453819
0.00456774
0.00459644
0.00462428
0.00465125
0.00467735
0.00470255
0.00472686
0.00475027
0.00477276
0.00479433
0.00481499
0.00483471
0.00485351
0.00487137
0.00488828
0.00490423
0.00491922
0.00493325
0.00494631
0.00495842
0.00496958
0.00497973
0.0049889
0.00499709
0.00500429
0.00501052
0.00501577
0.00502002
0.00502329
0.00502557
0.00502688
0.0050272
0.00502655
0.00502492
0.00502233
0.00501877
0.00501426
0.0050088
0.0050024
0.00499507
0.00498682
0.00497765
0.00496759
0.00495663
0.00494479
0.00493209
0.00491852
0.0049041
0.00488884
0.00487273
0.00485577
0.00483798
0.00481935
0.00479989
0.00477964
0.00475861
0.00473683
0.00471433
0.00469115
0.00466729
0.0046428
0.00461771
0.00459203
0.0045658
0.00453904
0.00451178
0.00448405
0.00445586
0.00442726
0.00439827
0.00436892
0.00433924
0.00430925
0.004279
0.00424851
0.00421783
0.00418698
0.00415602
0.00412499
0.00409392
0.00406287
0.00403185
0.00400086
0.00396981
0.00393852
0.00390658
0.00387372
1.46714e-05
0.000102877
0.000222674
0.000328292
0.000414414
0.000484029
0.000541129
0.000589273
0.000631349
0.0006696
0.000705725
0.000740973
0.000776243
0.000812158
0.000849132
0.000887422
0.000927175
0.000968453
0.00101126
0.00105556
0.0011013
0.00114838
0.00119672
0.00124623
0.00129679
0.00134831
0.00140069
0.00145383
0.00150765
0.00156205
0.00161697
0.00167232
0.00172804
0.00178407
0.00184036
0.00189685
0.0019535
0.00201027
0.00206713
0.00212404
0.00218098
0.00223792
0.00229483
0.00235171
0.00240853
0.00246526
0.0025219
0.00257843
0.00263482
0.00269106
0.00274714
0.00280303
0.00285871
0.00291416
0.00296936
0.00302429
0.00307892
0.00313322
0.00318718
0.00324075
0.00329392
0.00334665
0.00339892
0.00345069
0.00350194
0.00355265
0.00360278
0.00365232
0.00370123
0.0037495
0.00379711
0.00384407
0.00389038
0.00393607
0.00398114
0.0040256
0.00406943
0.00411263
0.0041552
0.00419712
0.00423837
0.00427895
0.00431884
0.00435801
0.00439646
0.00443416
0.00447111
0.00450728
0.00454266
0.00457725
0.00461102
0.00464396
0.00467607
0.00470732
0.00473772
0.00476724
0.00479589
0.00482364
0.00485049
0.00487641
0.00490141
0.00492548
0.00494861
0.0049708
0.00499204
0.00501233
0.00503168
0.00505004
0.00506741
0.0050838
0.0050992
0.00511362
0.00512704
0.00513948
0.00515091
0.00516133
0.00517074
0.00517915
0.00518655
0.00519294
0.00519833
0.0052027
0.00520606
0.00520841
0.00520976
0.00521011
0.00520946
0.00520782
0.00520518
0.00520157
0.00519698
0.00519143
0.00518491
0.00517745
0.00516904
0.00515971
0.00514946
0.0051383
0.00512624
0.0051133
0.00509948
0.00508479
0.00506924
0.00505284
0.00503558
0.00501748
0.00499856
0.00497883
0.0049583
0.00493702
0.00491499
0.00489224
0.00486881
0.00484471
0.00481998
0.00479463
0.00476871
0.00474222
0.0047152
0.00468767
0.00465966
0.00463121
0.00460233
0.00457305
0.00454342
0.00451345
0.00448319
0.00445267
0.00442194
0.00439102
0.00435998
0.00432885
0.00429771
0.00426659
0.00423555
0.0042046
0.0041737
0.00414271
0.00411135
0.00407943
1.49093e-05
9.99976e-05
0.000219821
0.000328223
0.000418339
0.000492339
0.000553801
0.000606074
0.000651939
0.000693596
0.000732734
0.000770617
0.000808169
0.000846048
0.000884701
0.000924422
0.000965384
0.00100768
0.00105133
0.00109632
0.0011426
0.00119011
0.00123876
0.00128847
0.00133914
0.00139069
0.00144302
0.00149605
0.0015497
0.00160389
0.00165855
0.00171361
0.00176902
0.00182473
0.00188069
0.00193686
0.0019932
0.00204969
0.00210629
0.00216298
0.00221975
0.00227657
0.00233342
0.00239029
0.00244716
0.00250402
0.00256086
0.00261765
0.00267439
0.00273104
0.00278761
0.00284406
0.00290037
0.00295652
0.0030125
0.00306826
0.00312379
0.00317905
0.00323402
0.00328865
0.00334293
0.00339682
0.00345027
0.00350327
0.00355578
0.00360777
0.0036592
0.00371005
0.0037603
0.00380992
0.00385893
0.00390734
0.00395517