/*--------------------------------*- C++ -*----------------------------------*\
| =========                 |                                                 |
| \\      /  F ield         | OpenFOAM: The Open Source CFD Toolbox           |
|  \\    /   O peration     | Version:  2412                                  |
|   \\  /    A nd           | Website:  www.openfoam.com                      |
|    \\/     M anipulation  |                                                 |
\*---------------------------------------------------------------------------*/
FoamFile
{
    version     2.0;
    format      ascii;
    arch        "LSB;label=32;scalar=64";
    class       volScalarField;
    location    "0.23";
    object      p;
}
// * * * * * * * * * * * * * * * * * * * * * * * * * * * * * * * * * * * * * //

dimensions      [0 2 -2 0 0 0 0];

internalField   nonuniform List<scalar> 
12225
(
-10.3296
-9.73726
-9.07455
-8.51812
-8.00907
-7.55263
-7.15408
-6.80308
-6.49073
-6.21146
-5.96035
-5.7329
-5.52528
-5.33414
-5.15643
-4.98864
-4.82855
-4.66171
-10.7634
-9.79544
-9.10936
-8.55909
-8.04936
-7.59288
-7.19369
-6.84129
-6.52731
-6.24633
-5.99349
-5.76432
-5.55499
-5.36217
-5.18279
-5.01345
-4.85134
-4.69321
-10.9438
-9.82971
-9.15111
-8.60996
-8.09976
-7.64415
-7.2451
-6.89164
-6.57612
-6.29336
-6.03858
-5.80738
-5.59603
-5.40121
-5.21989
-5.04889
-4.88536
-4.72425
-10.9677
-9.84543
-9.17579
-8.64392
-8.13642
-7.68367
-7.28649
-6.93358
-6.6179
-6.33454
-6.07883
-5.84653
-5.63399
-5.438
-5.25562
-5.0841
-4.92019
-4.76303
-10.8976
-9.84014
-9.17608
-8.6547
-8.15424
-7.70641
-7.31279
-6.96209
-6.64771
-6.36503
-6.10957
-5.87723
-5.66453
-5.46842
-5.28612
-5.1154
-4.95292
-4.80363
-10.7558
-9.80701
-9.15259
-8.64384
-8.15501
-7.71438
-7.32592
-6.97892
-6.6671
-6.3862
-6.13196
-5.90052
-5.68856
-5.49324
-5.31202
-5.1432
-4.98362
-4.84287
-10.5531
-9.74057
-9.10634
-8.61216
-8.13943
-7.70878
-7.32721
-6.98542
-6.67742
-6.39933
-6.14725
-5.91756
-5.70716
-5.51347
-5.33423
-5.16822
-5.01249
-4.88003
-10.3002
-9.63823
-9.03816
-8.5602
-8.10741
-7.68998
-7.31727
-6.98225
-6.67938
-6.4052
-6.15622
-5.92913
-5.72112
-5.52988
-5.35344
-5.19097
-5.03975
-4.91516
-10.0077
-9.49969
-8.94918
-8.48963
-8.05949
-7.65859
-7.29683
-6.97017
-6.67379
-6.40464
-6.15972
-5.93611
-5.73131
-5.54329
-5.37038
-5.21206
-5.06578
-4.94852
-9.68699
-9.32695
-8.84076
-8.4033
-7.99734
-7.6159
-7.26722
-6.9504
-6.66179
-6.39876
-6.15885
-5.93957
-5.73875
-5.55469
-5.38595
-5.23226
-5.09112
-4.98056
-9.35008
-9.12476
-8.71454
-8.30473
-7.92392
-7.56415
-7.23054
-6.92485
-6.64508
-6.38915
-6.1551
-5.9409
-5.74476
-5.56526
-5.4012
-5.25247
-5.11646
-5.01214
-9.03808
-8.91898
-8.5848
-8.20655
-7.84968
-7.51125
-7.1931
-6.89863
-6.62772
-6.379
-6.15093
-5.94195
-5.75059
-5.57569
-5.41624
-5.27222
-5.14071
-5.042
-8.74307
-8.70459
-8.44624
-8.10431
-7.77165
-7.45523
-7.15382
-6.87137
-6.6098
-6.36873
-6.14708
-5.94368
-5.75741
-5.58735
-5.43264
-5.29331
-5.16671
-5.07133
-8.43598
-8.46014
-8.28063
-7.98479
-7.68087
-7.38999
-7.10931
-6.8419
-6.59169
-6.35983
-6.14591
-5.94919
-5.76893
-5.6045
-5.45521
-5.32108
-5.19981
-5.10693
-8.13886
-8.20587
-8.09802
-7.85405
-7.58258
-7.31928
-7.06256
-6.8135
-6.57709
-6.35627
-6.15155
-5.96269
-5.78935
-5.63119
-5.48776
-5.35909
-5.24305
-5.1523
-7.88042
-7.97377
-7.92357
-7.73064
-7.4925
-7.25557
-7.02261
-6.79307
-6.5718
-6.36315
-6.16873
-5.98873
-5.82311
-5.67178
-5.53445
-5.41123
-5.30017
-5.21096
-7.69277
-7.80086
-7.79215
-7.64332
-7.43657
-7.22302
-7.01058
-6.79844
-6.59081
-6.39293
-6.20747
-6.03515
-5.87614
-5.73053
-5.59811
-5.47889
-5.37125
-5.28117
-7.61616
-7.72849
-7.741
-7.61936
-7.43438
-7.23747
-7.03964
-6.84039
-6.6433
-6.45379
-6.27514
-6.10841
-5.95378
-5.81128
-5.68082
-5.56217
-5.45432
-5.35856
-7.71548
-7.82251
-7.82885
-7.7022
-7.51398
-7.31524
-7.1166
-6.91736
-6.72092
-6.5325
-6.35513
-6.18964
-6.036
-5.89402
-5.76337
-5.64336
-5.53372
-5.43131
-7.99171
-8.08613
-8.0527
-7.88114
-7.65957
-7.43686
-7.21847
-7.00312
-6.79478
-6.59798
-6.4146
-6.24467
-6.08774
-5.94323
-5.81046
-5.68832
-5.57656
-5.46953
-8.38509
-8.4432
-8.34082
-8.10639
-7.84206
-7.58711
-7.34099
-7.10321
-6.87813
-6.66886
-6.47586
-6.29842
-6.13568
-5.98671
-5.85052
-5.72588
-5.61236
-5.50402
-8.88547
-8.86521
-8.657
-8.34722
-8.03518
-7.74119
-7.46151
-7.19802
-6.95419
-6.73081
-6.52687
-6.34098
-6.17179
-6.01788
-5.87792
-5.75049
-5.63481
-5.52518
-9.4495
-9.29392
-8.95002
-8.56715
-8.21053
-7.87701
-7.56502
-7.27839
-7.01783
-6.78158
-6.56761
-6.37398
-6.19878
-6.0402
-5.89658
-5.76633
-5.6484
-5.53769
-10.0139
-9.66793
-9.18483
-8.74703
-8.3531
-7.98358
-7.64415
-7.33847
-7.06368
-6.81628
-6.59364
-6.39332
-6.21293
-6.05026
-5.90341
-5.77064
-5.65066
-5.53907
-10.5179
-9.94945
-9.35379
-8.88198
-8.4554
-8.05491
-7.69409
-7.37361
-7.08748
-6.8313
-6.60199
-6.39658
-6.21224
-6.04651
-5.89727
-5.76262
-5.64114
-5.52907
-10.9194
-10.127
-9.46054
-8.96841
-8.51329
-8.08936
-7.71364
-7.38257
-7.08829
-6.82596
-6.59208
-6.38324
-6.19631
-6.02861
-5.87787
-5.74207
-5.61971
-5.5076
-11.1908
-10.2105
-9.51077
-9.00408
-8.52771
-8.08892
-7.70368
-7.36566
-7.0662
-6.80017
-6.56365
-6.35296
-6.16473
-5.99615
-5.84483
-5.70869
-5.58613
-5.47453
-11.298
-10.2259
-9.51142
-8.98835
-8.49996
-8.05362
-7.6628
-7.32097
-7.01918
-6.75178
-6.51459
-6.30369
-6.1156
-5.94737
-5.79655
-5.66099
-5.53904
-5.42863
-11.1653
-10.1961
-9.4764
-8.93073
-8.43742
-7.98875
-7.59558
-7.25291
-6.95146
-6.68496
-6.44899
-6.23953
-6.05299
-5.88634
-5.73707
-5.60303
-5.48246
-5.37362
-10.6342
-10.1039
-9.43383
-8.87382
-8.37876
-7.92985
-7.53623
-7.19419
-6.89407
-6.62912
-6.39477
-6.18697
-6.00205
-5.83696
-5.68917
-5.55653
-5.43719
-5.32933
-4.71877
-4.71846
-4.71942
-4.72144
-4.72399
-4.72671
-4.7295
-4.73243
-4.73557
-4.73896
-4.7427
-4.74688
-4.75158
-4.75692
-4.763
-4.7699
-4.77775
-4.78668
-4.7968
-4.80823
-4.8211
-4.8355
-4.85151
-4.86919
-4.88856
-4.90959
-4.93223
-4.95638
-4.98195
-5.00875
-5.03658
-5.06515
-5.09423
-5.12361
-5.15308
-5.18243
-5.21144
-5.23994
-5.26772
-5.29462
-5.32046
-5.34509
-5.36835
-5.3901
-5.41021
-5.42853
-5.44494
-5.45931
-5.47153
-5.48148
-5.48903
-5.49408
-5.49652
-5.49624
-5.49314
-5.48711
-5.47807
-5.46591
-5.45054
-5.4319
-5.40988
-5.38443
-5.35547
-5.32294
-5.28678
-5.24695
-5.2034
-5.15609
-5.10501
-5.05013
-4.99145
-4.92901
-4.86287
-4.79305
-4.71943
-4.64184
-4.56026
-4.47482
-4.38561
-4.29269
-4.19611
-4.09593
-3.99219
-3.88495
-3.77428
-3.66024
-3.54291
-3.42236
-3.29868
-3.17196
-3.0423
-2.90977
-2.7745
-2.63658
-2.49613
-2.35326
-2.20807
-2.06071
-1.91127
-1.7599
-1.60672
-1.45186
-1.29546
-1.13764
-0.978542
-0.818312
-0.657085
-0.495003
-0.332208
-0.168843
-0.00505226
0.159021
0.323232
0.487437
0.651492
0.815256
0.978585
1.14134
1.30338
1.46457
1.62478
1.78386
1.94171
2.09817
2.25315
2.4065
2.55813
2.70792
2.85576
3.00155
3.14521
3.28662
3.42572
3.56242
3.69665
3.82834
3.95743
4.08387
4.20761
4.32861
4.44686
4.56231
4.67497
4.78481
4.89177
4.99578
5.09681
5.19491
5.2901
5.38241
5.47185
5.55847
5.64228
5.72332
5.80162
5.8772
5.95011
6.02037
6.08804
6.15314
6.21572
6.27582
6.33348
6.38873
6.44163
6.49222
6.54054
6.58664
6.6306
6.67247
6.71236
6.75039
6.78677
6.82177
6.8559
6.88998
6.92593
6.96687
7.02468
7.09979
-4.71848
-4.71876
-4.7198
-4.72156
-4.72352
-4.72534
-4.72689
-4.72824
-4.72964
-4.73131
-4.73342
-4.73606
-4.73929
-4.74318
-4.74783
-4.75335
-4.75987
-4.76756
-4.77656
-4.78703
-4.79911
-4.81293
-4.82856
-4.84607
-4.86545
-4.88665
-4.90958
-4.93412
-4.96008
-4.98727
-5.01545
-5.04437
-5.07379
-5.10348
-5.13322
-5.1628
-5.19202
-5.22069
-5.24864
-5.27568
-5.30168
-5.32647
-5.34991
-5.37186
-5.3922
-5.41079
-5.42751
-5.44223
-5.45485
-5.46523
-5.47327
-5.47886
-5.48188
-5.48223
-5.4798
-5.4745
-5.46621
-5.45486
-5.44035
-5.42259
-5.40151
-5.37703
-5.34908
-5.3176
-5.28253
-5.24383
-5.20144
-5.15534
-5.10549
-5.05187
-4.99444
-4.93319
-4.86807
-4.79902
-4.72595
-4.64904
-4.56848
-4.48423
-4.39627
-4.30462
-4.20932
-4.11042
-4.00795
-3.90198
-3.79256
-3.67976
-3.56366
-3.44433
-3.32185
-3.19631
-3.0678
-2.93641
-2.80225
-2.66542
-2.52603
-2.3842
-2.24002
-2.09364
-1.94515
-1.7947
-1.64241
-1.48841
-1.33282
-1.17579
-1.01745
-0.857935
-0.697389
-0.535951
-0.373762
-0.210966
-0.0477041
0.115879
0.279639
0.443433
0.607117
0.77055
0.933589
1.09609
1.25793
1.41895
1.57903
1.73803
1.89582
2.05229
2.20729
2.36072
2.51246
2.6624
2.81043
2.95644
3.10035
3.24206
3.38149
3.51855
3.65317
3.78528
3.91482
4.04174
4.166
4.28755
4.40636
4.52241
4.63568
4.74615
4.85373
4.95839
5.06011
5.15891
5.25482
5.34785
5.43802
5.52537
5.60991
5.69168
5.77071
5.84702
5.92065
5.99163
6.06001
6.12582
6.18909
6.24987
6.30821
6.36413
6.41768
6.46891
6.51787
6.5646
6.60918
6.65168
6.69221
6.7309
6.76797
6.80374
6.83874
6.87382
6.9109
6.95212
7.00809
7.07429
-4.71249
-4.7143
-4.71649
-4.71869
-4.72041
-4.72158
-4.72233
-4.72293
-4.7236
-4.72455
-4.72594
-4.72787
-4.73048
-4.73387
-4.7382
-4.74359
-4.75021
-4.75819
-4.76769
-4.77881
-4.79166
-4.80628
-4.82271
-4.84091
-4.86085
-4.88242
-4.90551
-4.92997
-4.95562
-4.98229
-5.00976
-5.03784
-5.06633
-5.09502
-5.12373
-5.15228
-5.18048
-5.20817
-5.23519
-5.26139
-5.2866
-5.3107
-5.33354
-5.35499
-5.37491
-5.39318
-5.40968
-5.42427
-5.43685
-5.44728
-5.45546
-5.46127
-5.4646
-5.46534
-5.46337
-5.45861
-5.45094
-5.44028
-5.42652
-5.40958
-5.38939
-5.36585
-5.3389
-5.30848
-5.27452
-5.23696
-5.19577
-5.1509
-5.10231
-5.04998
-4.99388
-4.93397
-4.87023
-4.80262
-4.73117
-4.65589
-4.57686
-4.49412
-4.40767
-4.31754
-4.22377
-4.12639
-4.02545
-3.921
-3.81311
-3.70183
-3.58723
-3.46938
-3.34838
-3.2243
-3.09723
-2.96726
-2.8345
-2.69904
-2.561
-2.42048
-2.2776
-2.13247
-1.98521
-1.83596
-1.68482
-1.53194
-1.37743
-1.22144
-1.06411
-0.905555
-0.745928
-0.585365
-0.424007
-0.261996
-0.0994732
0.0634177
0.226534
0.389733
0.552872
0.715808
0.878402
1.04051
1.202
1.36273
1.52257
1.68138
1.83903
1.99541
2.15038
2.30382
2.45562
2.60567
2.75386
2.90009
3.04426
3.18627
3.32604
3.4635
3.59855
3.73114
3.86121
3.98869
4.11353
4.2357
4.35515
4.47186
4.5858
4.69693
4.80525
4.91072
5.01332
5.11303
5.20987
5.30384
5.39496
5.48325
5.56875
5.65146
5.73143
5.80868
5.88325
5.95516
6.02445
6.09116
6.15533
6.21699
6.27618
6.33295
6.38734
6.43939
6.48916
6.53669
6.58206
6.62534
6.66666
6.70617
6.74408
6.78075
6.81672
6.85283
6.89091
6.93226
6.98609
7.03927
-4.70074
-4.70459
-4.70871
-4.71214
-4.71447
-4.71595
-4.71693
-4.71771
-4.71857
-4.71972
-4.72134
-4.7236
-4.72664
-4.7306
-4.73563
-4.74185
-4.74941
-4.75841
-4.76895
-4.78111
-4.79491
-4.81038
-4.82749
-4.84619
-4.8664
-4.88803
-4.91096
-4.93505
-4.96016
-4.98612
-5.01276
-5.03992
-5.06743
-5.09512
-5.12282
-5.15036
-5.1776
-5.20437
-5.23052
-5.25592
-5.28041
-5.30385
-5.32612
-5.34707
-5.36658
-5.38453
-5.40077
-5.4152
-5.42768
-5.4381
-5.44633
-5.45227
-5.45579
-5.45679
-5.45515
-5.45077
-5.44355
-5.43338
-5.42018
-5.40385
-5.38431
-5.36147
-5.33527
-5.30563
-5.27249
-5.2358
-5.19549
-5.15154
-5.10389
-5.05251
-4.99737
-4.93845
-4.87572
-4.80917
-4.73884
-4.66474
-4.5869
-4.50534
-4.42009
-4.33116
-4.2386
-4.14243
-4.04271
-3.93948
-3.8328
-3.72273
-3.60934
-3.49269
-3.37288
-3.24997
-3.12407
-2.99526
-2.86363
-2.7293
-2.59236
-2.45292
-2.31109
-2.167
-2.02076
-1.87248
-1.7223
-1.57035
-1.41675
-1.26163
-1.10513
-0.947381
-0.788524
-0.628697
-0.468039
-0.306691
-0.144794
0.0175098
0.180078
0.342768
0.505439
0.667948
0.830156
0.991922
1.15311
1.31358
1.4732
1.63184
1.78936
1.94565
2.10057
2.25401
2.40585
2.55598
2.7043
2.85069
2.99506
3.13731
3.27737
3.41514
3.55055
3.68353
3.81402
3.94195
4.06728
4.18997
4.30997
4.42725
4.54177
4.65349
4.76239
4.86848
4.97174
5.07215
5.16971
5.26442
5.3563
5.44536
5.53162
5.61511
5.69585
5.77387
5.8492
5.92188
5.99194
6.0594
6.12432
6.18672
6.24664
6.30413
6.35923
6.41197
6.46242
6.51063
6.55667
6.60062
6.6426
6.68277
6.72135
6.75868
6.79529
6.83191
6.87011
6.91034
6.95989
7.00076
-4.68593
-4.69193
-4.69865
-4.70401
-4.70763
-4.71008
-4.7119
-4.71347
-4.7151
-4.71705
-4.71953
-4.72273
-4.7268
-4.73187
-4.73808
-4.74554
-4.75434
-4.76457
-4.77629
-4.78952
-4.80427
-4.82053
-4.83826
-4.85739
-4.87785
-4.89953
-4.92233
-4.94612
-4.97078
-4.99616
-5.02212
-5.04853
-5.07521
-5.10204
-5.12887
-5.15554
-5.18192
-5.20785
-5.23321
-5.25786
-5.28165
-5.30446
-5.32616
-5.3466
-5.36567
-5.38323
-5.39916
-5.41333
-5.42563
-5.43592
-5.44409
-5.45001
-5.45358
-5.45468
-5.45319
-5.449
-5.44203
-5.43215
-5.41928
-5.40332
-5.38419
-5.3618
-5.33608
-5.30695
-5.27436
-5.23823
-5.19853
-5.15519
-5.10819
-5.05748
-5.00303
-4.94483
-4.88285
-4.8171
-4.74758
-4.67432
-4.59731
-4.5166
-4.4322
-4.34412
-4.25242
-4.15712
-4.05826
-3.9559
-3.85008
-3.74088
-3.62835
-3.51257
-3.39361
-3.27156
-3.1465
-3.01852
-2.88772
-2.7542
-2.61807
-2.47942
-2.33837
-2.19504
-2.04954
-1.902
-1.75253
-1.60126
-1.44833
-1.29386
-1.13799
-0.980842
-0.822563
-0.663289
-0.503158
-0.34231
-0.180887
-0.0190283
0.143123
0.305426
0.467739
0.629921
0.791832
0.953332
1.11428
1.27455
1.434
1.5925
1.74992
1.90613
2.06101
2.21444
2.3663
2.51649
2.66488
2.81139
2.9559
3.09834
3.2386
3.3766
3.51227
3.64554
3.77634
3.90462
4.03032
4.1534
4.2738
4.3915
4.50644
4.61857
4.72789
4.83442
4.93813
5.03902
5.13707
5.2323
5.32471
5.41431
5.50113
5.58518
5.66648
5.74507
5.82098
5.89422
5.96485
6.03288
6.09836
6.16132
6.2218
6.27984
6.33548
6.38876
6.43973
6.48846
6.535
6.57945
6.62191
6.66255
6.70156
6.73927
6.77613
6.81272
6.85026
6.8885
6.93326
6.96365
-4.67195
-4.67989
-4.6891
-4.69651
-4.70169
-4.70545
-4.70845
-4.71117
-4.71393
-4.71704
-4.72073
-4.72518
-4.73055
-4.73697
-4.74453
-4.75333
-4.76345
-4.77491
-4.78777
-4.80202
-4.81764
-4.83462
-4.85289
-4.87239
-4.89304
-4.91476
-4.93744
-4.96097
-4.98524
-5.01013
-5.03551
-5.06126
-5.08725
-5.11334
-5.13941
-5.16533
-5.19096
-5.21617
-5.24083
-5.26482
-5.28799
-5.31022
-5.33138
-5.35135
-5.36999
-5.38717
-5.40278
-5.41668
-5.42874
-5.43886
-5.44689
-5.45273
-5.45625
-5.45734
-5.45589
-5.45178
-5.44491
-5.43517
-5.42247
-5.40671
-5.38781
-5.36568
-5.34024
-5.31142
-5.27916
-5.24339
-5.20406
-5.16112
-5.11454
-5.06427
-5.01028
-4.95257
-4.89111
-4.8259
-4.75693
-4.68423
-4.6078
-4.52767
-4.44384
-4.35636
-4.26524
-4.17054
-4.07228
-3.97052
-3.86531
-3.75671
-3.64479
-3.52962
-3.41127
-3.28983
-3.16538
-3.038
-2.9078
-2.77488
-2.63933
-2.50126
-2.36079
-2.21802
-2.07308
-1.92607
-1.77714
-1.62639
-1.47396
-1.31999
-1.16459
-1.0079
-0.850067
-0.691218
-0.531495
-0.371036
-0.209982
-0.0484728
0.11335
0.275346
0.437373
0.599292
0.760961
0.922243
1.083
1.2431
1.4024
1.56077
1.71809
1.87423
2.02906
2.18246
2.33432
2.48453
2.63297
2.77955
2.92416
3.0667
3.2071
3.34526
3.48112
3.6146
3.74563
3.87415
4.00011
4.12346
4.24415
4.36213
4.47737
4.58981
4.69945
4.80629
4.91033
5.01157
5.10999
5.2056
5.29841
5.38841
5.47564
5.56012
5.64185
5.72088
5.79722
5.87091
5.94198
6.01045
6.07637
6.13977
6.20069
6.25916
6.31522
6.36893
6.42031
6.46944
6.51638
6.5612
6.60401
6.64496
6.68423
6.72208
6.7589
6.7951
6.83154
6.86743
6.90773
6.92935
-4.66219
-4.67129
-4.68236
-4.69156
-4.69826
-4.70336
-4.70763
-4.71158
-4.71559
-4.71996
-4.72492
-4.73067
-4.73736
-4.74508
-4.75394
-4.76399
-4.77529
-4.78786
-4.8017
-4.81682
-4.83317
-4.85074
-4.86945
-4.88925
-4.91007
-4.93181
-4.95439
-4.97772
-5.00168
-5.02618
-5.05111
-5.07634
-5.10178
-5.12729
-5.15276
-5.17807
-5.2031
-5.22772
-5.25181
-5.27525
-5.2979
-5.31964
-5.34035
-5.3599
-5.37816
-5.395
-5.4103
-5.42393
-5.43576
-5.44568
-5.45354
-5.45925
-5.46266
-5.46368
-5.46217
-5.45804
-5.45117
-5.44145
-5.4288
-5.41311
-5.39429
-5.37226
-5.34695
-5.31827
-5.28617
-5.25057
-5.21143
-5.16871
-5.12235
-5.07233
-5.01861
-4.96118
-4.90003
-4.83514
-4.76652
-4.69417
-4.6181
-4.53833
-4.45487
-4.36776
-4.27703
-4.18271
-4.08485
-3.98348
-3.87868
-3.77049
-3.65899
-3.54423
-3.4263
-3.30528
-3.18126
-3.05431
-2.92454
-2.79204
-2.65692
-2.51928
-2.37923
-2.23688
-2.09235
-1.94576
-1.79722
-1.64687
-1.49484
-1.34124
-1.18621
-1.02989
-0.872401
-0.713892
-0.554495
-0.39435
-0.233597
-0.072375
0.0891752
0.250914
0.412699
0.574392
0.735852
0.896941
1.05752
1.21746
1.37662
1.53488
1.69209
1.84814
2.0029
2.15626
2.30809
2.45828
2.60673
2.75333
2.89798
3.04059
3.18107
3.31933
3.45531
3.58892
3.7201
3.84878
3.97491
4.09845
4.21933
4.33751
4.45296
4.56563
4.6755
4.78258
4.88688
4.98838
5.08707
5.18297
5.27608
5.3664
5.45395
5.53875
5.62082
5.70018
5.77687
5.85091
5.92233
5.99116
6.05744
6.12119
6.18246
6.24128
6.29769
6.35173
6.40345
6.4529
6.50014
6.54524
6.5883
6.62944
6.66882
6.70665
6.74322
6.77878
6.81388
6.84734
6.88369
6.89796
-4.65803
-4.6676
-4.67968
-4.69014
-4.69807
-4.70434
-4.70977
-4.71487
-4.72004
-4.72558
-4.73172
-4.73864
-4.74648
-4.75535
-4.7653
-4.7764
-4.78868
-4.80214
-4.81678
-4.83259
-4.84953
-4.86756
-4.88663
-4.90667
-4.92761
-4.94939
-4.97191
-4.99509
-5.01884
-5.04306
-5.06765
-5.09251
-5.11754
-5.14262
-5.16764
-5.1925
-5.21707
-5.24124
-5.26489
-5.28789
-5.31014
-5.33149
-5.35184
-5.37104
-5.38898
-5.40552
-5.42055
-5.43393
-5.44554
-5.45524
-5.46292
-5.46846
-5.47173
-5.47261
-5.47099
-5.46675
-5.4598
-5.45001
-5.4373
-5.42156
-5.40271
-5.38066
-5.35534
-5.32666
-5.29457
-5.25901
-5.21991
-5.17724
-5.13096
-5.08102
-5.02741
-4.97011
-4.90909
-4.84436
-4.7759
-4.70373
-4.62784
-4.54826
-4.465
-4.3781
-4.28758
-4.19348
-4.09584
-3.99472
-3.89016
-3.78223
-3.67098
-3.5565
-3.43885
-3.31811
-3.19437
-3.06772
-2.93824
-2.80605
-2.67123
-2.5339
-2.39416
-2.25212
-2.1079
-1.96162
-1.81339
-1.66335
-1.51161
-1.35831
-1.20358
-1.04754
-0.890343
-0.732109
-0.572981
-0.413097
-0.252596
-0.0916177
0.0696988
0.231214
0.392788
0.554279
0.715549
0.87646
1.03688
1.19666
1.35568
1.51381
1.67091
1.82686
1.98153
2.13482
2.28659
2.43674
2.58516
2.73174
2.87639
3.01902
3.15953
3.29784
3.43387
3.56755
3.69881
3.82759
3.95383
4.07748
4.19848
4.3168
4.43239
4.54521
4.65525
4.76252
4.86699
4.96868
5.06758
5.16369
5.25702
5.34758
5.43537
5.52042
5.60276
5.68239
5.75935
5.83366
5.90536
5.97448
6.04104
6.10508
6.16663
6.22574
6.28243
6.33675
6.38873
6.43843
6.4859
6.5312
6.57442
6.61565
6.65504
6.69271
6.72888
6.76362
6.79729
6.82836
6.8612
6.86934
-4.65968
-4.66908
-4.68138
-4.69245
-4.7012
-4.70835
-4.71469
-4.72075
-4.72688
-4.73339
-4.74049
-4.74837
-4.75714
-4.76691
-4.77773
-4.78964
-4.80266
-4.8168
-4.83204
-4.84837
-4.86575
-4.88413
-4.90346
-4.92369
-4.94475
-4.96656
-4.98906
-5.01215
-5.03576
-5.05979
-5.08416
-5.10877
-5.13351
-5.1583
-5.18301
-5.20755
-5.2318
-5.25565
-5.27898
-5.30168
-5.32362
-5.34468
-5.36474
-5.38367
-5.40135
-5.41765
-5.43244
-5.4456
-5.45698
-5.46648
-5.47397
-5.47931
-5.4824
-5.4831
-5.48131
-5.47692
-5.4698
-5.45986
-5.447
-5.43112
-5.41214
-5.38996
-5.36452
-5.33573
-5.30354
-5.26788
-5.22871
-5.18597
-5.13963
-5.08965
-5.03601
-4.9787
-4.91769
-4.85297
-4.78454
-4.7124
-4.63656
-4.55703
-4.47384
-4.38701
-4.29658
-4.20258
-4.10505
-4.00404
-3.8996
-3.79181
-3.68071
-3.56638
-3.4489
-3.32834
-3.20479
-3.07833
-2.94906
-2.81708
-2.68248
-2.54537
-2.40586
-2.26405
-2.12007
-1.97403
-1.82604
-1.67624
-1.52475
-1.37169
-1.2172
-1.0614
-0.90444
-0.74644
-0.587542
-0.427884
-0.267603
-0.106841
0.0542662
0.215578
0.376956
0.538259
0.699349
0.860088
1.02034
1.17997
1.33884
1.49683
1.6538
1.80964
1.96421
2.11739
2.26908
2.41916
2.56752
2.71405
2.85867
3.00127
3.14176
3.28007
3.41611
3.54981
3.68109
3.80991
3.9362
4.0599
4.18097
4.29936
4.41504
4.52796
4.63811
4.74549
4.85009
4.95192
5.05096
5.14723
5.24072
5.33144
5.41942
5.50466
5.58719
5.66703
5.7442
5.81873
5.89065
5.95999
6.02678
6.09105
6.15284
6.21217
6.26909
6.32363
6.37582
6.42571
6.47335
6.5188
6.56211
6.60336
6.64264
6.68006
6.71571
6.74955
6.78173
6.81052
6.84028
6.8433
-4.66641
-4.67517
-4.68701
-4.69809
-4.70718
-4.71485
-4.72182
-4.72855
-4.73539
-4.74262
-4.75045
-4.75904
-4.7685
-4.77892
-4.79036
-4.80284
-4.8164
-4.83101
-4.84668
-4.86337
-4.88106
-4.89969
-4.91922
-4.93959
-4.96073
-4.98259
-5.00508
-5.02814
-5.05167
-5.0756
-5.09985
-5.1243
-5.14888
-5.17349
-5.19801
-5.22235
-5.2464
-5.27004
-5.29316
-5.31565
-5.33738
-5.35824
-5.37809
-5.39682
-5.41429
-5.43038
-5.44496
-5.45791
-5.46909
-5.47838
-5.48565
-5.49078
-5.49365
-5.49414
-5.49212
-5.4875
-5.48016
-5.47
-5.45692
-5.44082
-5.42161
-5.39922
-5.37356
-5.34457
-5.31217
-5.27632
-5.23697
-5.19406
-5.14756
-5.09744
-5.04368
-4.98625
-4.92514
-4.86033
-4.79183
-4.71962
-4.64372
-4.56415
-4.48093
-4.39408
-4.30363
-4.20963
-4.11212
-4.01114
-3.90675
-3.79901
-3.68798
-3.57374
-3.45635
-3.3359
-3.21246
-3.08614
-2.95701
-2.82518
-2.69074
-2.5538
-2.41447
-2.27284
-2.12905
-1.9832
-1.83542
-1.68582
-1.53453
-1.38169
-1.22741
-1.07182
-0.915072
-0.757284
-0.598597
-0.439148
-0.279075
-0.118515
0.042391
0.203505
0.364687
0.5258
0.686705
0.847266
1.00735
1.16681
1.32552
1.48336
1.64019
1.79589
1.95033
2.10339
2.25497
2.40494
2.55321
2.69966
2.8442
2.98673
3.12717
3.26542
3.40142
3.53509
3.66636
3.79517
3.92145
4.04516
4.16625
4.28466
4.40037
4.51334
4.62355
4.731
4.83568
4.93759
5.03672
5.13309
5.22669
5.31754
5.40564
5.49102
5.5737
5.65369
5.73102
5.80572
5.87782
5.94734
6.01431
6.07877
6.14075
6.20027
6.25737
6.31208
6.36444
6.41449
6.46225
6.50778
6.55113
6.59233
6.63145
6.66853
6.70358
6.73646
6.76717
6.79383
6.82087
6.81962
-4.67699
-4.68478
-4.69564
-4.70621
-4.7152
-4.72303
-4.7303
-4.73743
-4.74472
-4.75242
-4.76073
-4.76979
-4.77971
-4.79056
-4.80241
-4.81527
-4.82916
-4.84408
-4.86002
-4.87694
-4.89483
-4.91362
-4.93328
-4.95375
-4.97497
-4.99687
-5.01939
-5.04244
-5.06596
-5.08986
-5.11405
-5.13845
-5.16295
-5.18747
-5.2119
-5.23614
-5.26008
-5.28361
-5.30661
-5.32897
-5.35057
-5.37128
-5.39098
-5.40954
-5.42684
-5.44275
-5.45713
-5.46987
-5.48084
-5.4899
-5.49694
-5.50182
-5.50443
-5.50465
-5.50237
-5.49746
-5.48984
-5.47938
-5.46601
-5.44961
-5.43011
-5.40742
-5.38147
-5.3522
-5.31953
-5.28341
-5.2438
-5.20064
-5.15391
-5.10358
-5.04962
-4.99201
-4.93072
-4.86574
-4.79708
-4.72473
-4.64871
-4.56902
-4.4857
-4.39876
-4.30825
-4.21419
-4.11664
-4.01564
-3.91124
-3.80351
-3.6925
-3.5783
-3.46096
-3.34058
-3.21723
-3.091
-2.96198
-2.83027
-2.69596
-2.55917
-2.41998
-2.27852
-2.1349
-1.98923
-1.84163
-1.69222
-1.54113
-1.38848
-1.2344
-1.07902
-0.922476
-0.764898
-0.606423
-0.447185
-0.287322
-0.126972
0.0337272
0.194635
0.355614
0.516527
0.677235
0.837602
0.997493
1.15677
1.31531
1.47297
1.62963
1.78516
1.93944
2.09236
2.24379
2.39362
2.54176
2.68809
2.83251
2.97494
3.11527
3.25344
3.38936
3.52296
3.65416
3.78291
3.90915
4.03281
4.15387
4.27226
4.38796
4.50093
4.61116
4.71863
4.82334
4.92529
5.02447
5.1209
5.21457
5.30549
5.39368
5.47916
5.56194
5.64205
5.7195
5.79433
5.86656
5.93622
6.00335
6.06796
6.13008
6.18976
6.24701
6.30187
6.35436
6.40452
6.45238
6.49795
6.54128
6.58239
6.62129
6.65797
6.69238
6.72429
6.75357
6.77825
6.8029
6.79811
-4.68996
-4.69657
-4.7061
-4.71574
-4.72427
-4.73194
-4.73922
-4.74648
-4.75397
-4.76192
-4.7705
-4.77982
-4.79
-4.80109
-4.81316
-4.82623
-4.84031
-4.8554
-4.87148
-4.88854
-4.90653
-4.92542
-4.94517
-4.9657
-4.98698
-5.00893
-5.03148
-5.05457
-5.07811
-5.10202
-5.12622
-5.15062
-5.17512
-5.19963
-5.22404
-5.24825
-5.27214
-5.29562
-5.31855
-5.34083
-5.36232
-5.38292
-5.40249
-5.4209
-5.43803
-5.45375
-5.46793
-5.48045
-5.49117
-5.49997
-5.50673
-5.51132
-5.51362
-5.51352
-5.51091
-5.50566
-5.49769
-5.48688
-5.47315
-5.45639
-5.43654
-5.4135
-5.3872
-5.35758
-5.32458
-5.28814
-5.24822
-5.20477
-5.15777
-5.10717
-5.05297
-4.99512
-4.93361
-4.86842
-4.79956
-4.72703
-4.65084
-4.571
-4.48754
-4.40049
-4.30987
-4.21574
-4.11812
-4.01707
-3.91264
-3.8049
-3.6939
-3.57972
-3.46243
-3.34211
-3.21883
-3.09269
-2.96377
-2.83218
-2.698
-2.56135
-2.42232
-2.28102
-2.13757
-1.99208
-1.84467
-1.69546
-1.54457
-1.39213
-1.23827
-1.08311
-0.926781
-0.769427
-0.611177
-0.452165
-0.292529
-0.132405
0.0280667
0.188748
0.349502
0.51019
0.670676
0.830823
0.990496
1.14956
1.30788
1.46534
1.6218
1.77713
1.93122
2.08395
2.2352
2.38486
2.53282
2.67899
2.82326
2.96553
3.10573
3.24377
3.37956
3.51304
3.64413
3.77278
3.89892
4.02251
4.14349
4.26182
4.37746
4.49039
4.60059
4.70805
4.81275
4.9147
5.0139
5.11034
5.20404
5.295
5.38324
5.46878
5.55163
5.63182
5.70936
5.78429
5.85663
5.9264
5.99364
6.05837
6.12063
6.18043
6.23781
6.29278
6.34538
6.39563
6.44354
6.48913
6.53241
6.57339
6.61203
6.64828
6.68203
6.71297
6.74089
6.76376
6.78629
6.77857
-4.70384
-4.70918
-4.71717
-4.7256
-4.73336
-4.74059
-4.74765
-4.75481
-4.76231
-4.77031
-4.77896
-4.78838
-4.79866
-4.80985
-4.82201
-4.83516
-4.84931
-4.86446
-4.8806
-4.89771
-4.91575
-4.93468
-4.95447
-4.97505
-4.99636
-5.01836
-5.04096
-5.06409
-5.08767
-5.11163
-5.13586
-5.1603
-5.18483
-5.20935
-5.23377
-5.25797
-5.28185
-5.30528
-5.32816
-5.35035
-5.37175
-5.39222
-5.41163
-5.42987
-5.4468
-5.46229
-5.47623
-5.48847
-5.49889
-5.50738
-5.5138
-5.51804
-5.51997
-5.51949
-5.51649
-5.51085
-5.50247
-5.49126
-5.47712
-5.45996
-5.4397
-5.41626
-5.38958
-5.35958
-5.32622
-5.28943
-5.24918
-5.20542
-5.15813
-5.10726
-5.05279
-4.99469
-4.93293
-4.86752
-4.79845
-4.72572
-4.64936
-4.56937
-4.48577
-4.3986
-4.30789
-4.21368
-4.116
-4.01492
-3.91048
-3.80274
-3.69177
-3.57763
-3.4604
-3.34016
-3.21698
-3.09094
-2.96215
-2.8307
-2.69667
-2.56018
-2.42133
-2.28022
-2.13697
-1.99169
-1.8445
-1.69551
-1.54485
-1.39264
-1.23902
-1.0841
-0.928023
-0.770922
-0.612926
-0.454172
-0.294795
-0.134932
0.0252796
0.185701
0.346194
0.506622
0.66685
0.82674
0.986157
1.14497
1.30304
1.46025
1.61647
1.77156
1.92542
2.07792
2.22894
2.37838
2.52613
2.67209
2.81616
2.95825
3.09826
3.23612
3.37174
3.50506
3.636
3.7645
3.89051
4.01397
4.13483
4.25306
4.36861
4.48146
4.59159
4.69899
4.80365
4.90557
5.00474
5.10116
5.19486
5.28583
5.37409
5.45966
5.54255
5.62279
5.70039
5.77539
5.84781
5.91767
5.985
6.04984
6.11219
6.1721
6.22958
6.28466
6.33734
6.38766
6.4356
6.48119
6.5244
6.56522
6.60358
6.63938
6.67247
6.70245
6.72909
6.75031
6.77095
6.76083
-4.71729
-4.72136
-4.72772
-4.73476
-4.74155
-4.74814
-4.75477
-4.76166
-4.76898
-4.77688
-4.78548
-4.79486
-4.80512
-4.8163
-4.82845
-4.84159
-4.85573
-4.87087
-4.88699
-4.90409
-4.92212
-4.94105
-4.96084
-4.98143
-5.00276
-5.02477
-5.04739
-5.07055
-5.09417
-5.11815
-5.14242
-5.16687
-5.19141
-5.21593
-5.24033
-5.26449
-5.28831
-5.31166
-5.33443
-5.3565
-5.37773
-5.39801
-5.41721
-5.4352
-5.45185
-5.46705
-5.48066
-5.49255
-5.50261
-5.51071
-5.51672
-5.52054
-5.52205
-5.52114
-5.51769
-5.5116
-5.50278
-5.49112
-5.47655
-5.45896
-5.43828
-5.41444
-5.38736
-5.357
-5.32327
-5.28615
-5.24559
-5.20154
-5.15398
-5.10285
-5.04812
-4.98977
-4.92779
-4.86217
-4.79292
-4.72003
-4.64352
-4.5634
-4.47971
-4.39246
-4.30169
-4.20744
-4.10975
-4.00867
-3.90426
-3.79657
-3.68567
-3.57162
-3.45449
-3.33437
-3.21133
-3.08545
-2.95683
-2.82556
-2.69173
-2.55545
-2.41682
-2.27594
-2.13294
-1.98791
-1.84097
-1.69225
-1.54187
-1.38994
-1.2366
-1.08198
-0.926195
-0.76939
-0.611695
-0.453244
-0.294171
-0.134614
0.0252902
0.185404
0.345591
0.505713
0.665636
0.825222
0.984338
1.14285
1.30063
1.45754
1.61347
1.76828
1.92185
2.07407
2.22482
2.374
2.52149
2.6672
2.81102
2.95286
3.09265
3.23028
3.36569
3.4988
3.62954
3.75785
3.88368
4.00697
4.12768
4.24576
4.36118
4.47391
4.58394
4.69125
4.79583
4.89767
4.99678
5.09317
5.18683
5.27778
5.36603
5.4516
5.53451
5.61477
5.69241
5.76746
5.83993
5.90986
5.97727
6.04219
6.10464
6.16463
6.2222
6.27736
6.33012
6.38049
6.42846
6.47402
6.51714
6.55778
6.59585
6.63121
6.66363
6.69271
6.71815
6.73788
6.75682
6.74477
-4.72917
-4.73204
-4.73678
-4.74233
-4.74803
-4.75383
-4.7599
-4.76638
-4.77341
-4.78109
-4.78953
-4.79879
-4.80894
-4.82003
-4.8321
-4.84516
-4.85922
-4.87428
-4.89033
-4.90735
-4.92531
-4.94417
-4.96389
-4.98442
-5.0057
-5.02767
-5.05025
-5.07336
-5.09693
-5.12087
-5.14508
-5.16946
-5.19392
-5.21835
-5.24263
-5.26665
-5.29031
-5.31347
-5.33603
-5.35785
-5.37881
-5.39879
-5.41767
-5.43531
-5.4516
-5.4664
-5.47959
-5.49106
-5.50067
-5.50832
-5.51387
-5.51722
-5.51826
-5.51687
-5.51295
-5.5064
-5.49713
-5.48503
-5.47002
-5.45202
-5.43094
-5.40672
-5.37929
-5.34858
-5.31455
-5.27715
-5.23633
-5.19205
-5.14425
-5.0929
-5.03796
-4.97942
-4.91727
-4.85151
-4.78213
-4.70914
-4.63255
-4.55237
-4.46865
-4.38139
-4.29063
-4.19642
-4.09879
-3.99779
-3.89348
-3.78591
-3.67515
-3.56125
-3.44431
-3.32437
-3.20154
-3.07589
-2.94751
-2.81649
-2.68293
-2.54693
-2.40859
-2.26801
-2.12531
-1.9806
-1.83399
-1.6856
-1.53555
-1.38396
-1.23097
-1.0767
-0.921268
-0.764821
-0.607485
-0.449395
-0.290685
-0.131491
0.0280489
0.187799
0.347622
0.507382
0.666943
0.82617
0.984928
1.14309
1.30051
1.45708
1.61266
1.76712
1.92036
2.07225
2.22268
2.37154
2.51872
2.66412
2.80764
2.9492
3.0887
3.22606
3.36121
3.49406
3.62456
3.75264
3.87825
4.00133
4.12184
4.23974
4.35499
4.46757
4.57745
4.68463
4.7891
4.89084
4.98987
5.08617
5.17978
5.27068
5.35889
5.44444
5.52734
5.60761
5.68527
5.76035
5.83286
5.90285
5.97032
6.0353
6.09783
6.1579
6.21555
6.27079
6.32361
6.37402
6.422
6.46753
6.51057
6.55103
6.5888
6.62371
6.65551
6.68372
6.70806
6.72643
6.74383
6.73026
-4.73895
-4.74084
-4.74399
-4.74802
-4.75252
-4.75742
-4.7628
-4.76875
-4.77537
-4.78274
-4.79092
-4.79997
-4.80993
-4.82084
-4.83273
-4.84561
-4.85949
-4.87436
-4.89021
-4.90702
-4.92477
-4.94342
-4.96292
-4.98324
-5.0043
-5.02605
-5.04842
-5.07131
-5.09466
-5.11837
-5.14235
-5.16649
-5.19069
-5.21484
-5.23882
-5.26254
-5.28586
-5.30867
-5.33085
-5.35227
-5.37282
-5.39236
-5.41079
-5.42796
-5.44377
-5.45808
-5.47078
-5.48174
-5.49085
-5.49799
-5.50305
-5.5059
-5.50646
-5.50459
-5.50022
-5.49322
-5.48352
-5.47101
-5.45562
-5.43726
-5.41585
-5.39132
-5.36362
-5.33267
-5.29843
-5.26085
-5.21987
-5.17542
-5.12747
-5.07597
-5.02091
-4.96228
-4.90006
-4.83425
-4.76485
-4.69186
-4.6153
-4.53518
-4.45152
-4.36436
-4.27373
-4.17966
-4.08219
-3.98139
-3.87728
-3.76994
-3.65942
-3.54579
-3.42913
-3.30949
-3.18697
-3.06165
-2.9336
-2.80294
-2.66974
-2.53411
-2.39615
-2.25597
-2.11366
-1.96936
-1.82316
-1.67519
-1.52557
-1.37441
-1.22185
-1.06801
-0.913019
-0.75701
-0.600115
-0.442466
-0.284198
-0.125447
0.0336511
0.19296
0.352344
0.511666
0.670791
0.829584
0.987912
1.14564
1.30265
1.45879
1.61396
1.76802