/*--------------------------------*- C++ -*----------------------------------*\
| =========                 |                                                 |
| \\      /  F ield         | OpenFOAM: The Open Source CFD Toolbox           |
|  \\    /   O peration     | Version:  2412                                  |
|   \\  /    A nd           | Website:  www.openfoam.com                      |
|    \\/     M anipulation  |                                                 |
\*---------------------------------------------------------------------------*/
FoamFile
{
    version     2.0;
    format      ascii;
    arch        "LSB;label=32;scalar=64";
    class       surfaceScalarField;
    location    "0.23";
    object      phi;
}
// * * * * * * * * * * * * * * * * * * * * * * * * * * * * * * * * * * * * * //

dimensions      [0 3 -1 0 0 0 0];

oriented        oriented;

internalField   nonuniform List<scalar> 
24170
(
1.36706e-07
-5.71619e-08
1.95622e-07
-5.89155e-08
2.5792e-07
-6.22982e-08
3.11676e-07
-5.37561e-08
3.61816e-07
-5.01399e-08
4.07927e-07
-4.61115e-08
4.49576e-07
-4.16483e-08
4.87103e-07
-3.75268e-08
5.20894e-07
-3.37912e-08
5.51286e-07
-3.03927e-08
5.78605e-07
-2.73188e-08
6.03142e-07
-2.45364e-08
6.25138e-07
-2.19965e-08
6.44771e-07
-1.96324e-08
6.62175e-07
-1.74042e-08
6.77222e-07
-1.50469e-08
6.8991e-07
-1.26881e-08
-8.03919e-09
6.97949e-07
3.26112e-07
-1.24822e-07
3.94133e-07
-1.26936e-07
4.55889e-07
-1.24054e-07
5.14189e-07
-1.12056e-07
5.67685e-07
-1.03636e-07
6.16644e-07
-9.50699e-08
6.61288e-07
-8.62922e-08
7.01841e-07
-7.80801e-08
7.38601e-07
-7.05508e-08
7.71887e-07
-6.36789e-08
8.02005e-07
-5.7437e-08
8.29229e-07
-5.17604e-08
8.5379e-07
-4.65581e-08
8.75869e-07
-4.1711e-08
8.95578e-07
-3.71126e-08
9.12913e-07
-3.23825e-08
9.27966e-07
-2.77411e-08
-1.99404e-08
9.39867e-07
5.17245e-07
-1.71611e-07
5.79152e-07
-1.88844e-07
6.38213e-07
-1.83115e-07
6.95372e-07
-1.69215e-07
7.48186e-07
-1.56451e-07
7.96793e-07
-1.43677e-07
8.4144e-07
-1.30939e-07
8.82261e-07
-1.18901e-07
9.19473e-07
-1.07763e-07
9.53339e-07
-9.75452e-08
9.84121e-07
-8.82186e-08
1.01206e-06
-7.96976e-08
1.03736e-06
-7.18599e-08
1.0602e-06
-6.45474e-08
1.08067e-06
-5.75897e-08
1.0989e-06
-5.06048e-08
1.11468e-06
-4.35269e-08
-3.34976e-08
1.12824e-06
7.4348e-07
-1.95421e-07
7.91922e-07
-2.37285e-07
8.43833e-07
-2.35026e-07
8.96367e-07
-2.21749e-07
9.46031e-07
-2.06115e-07
9.92313e-07
-1.89958e-07
1.03523e-06
-1.73854e-07
1.07478e-06
-1.58451e-07
1.11107e-06
-1.44056e-07
1.14429e-06
-1.3076e-07
1.17462e-06
-1.18552e-07
1.20226e-06
-1.07341e-07
1.22739e-06
-9.69894e-08
1.25016e-06
-8.73123e-08
1.27066e-06
-7.80959e-08
1.28902e-06
-6.8965e-08
1.30514e-06
-5.9645e-08
-4.8024e-08
1.31967e-06
1.01492e-06
-1.99876e-07
1.04731e-06
-2.6967e-07
1.08854e-06
-2.76253e-07
1.1334e-06
-2.66613e-07
1.17753e-06
-2.50245e-07
1.21953e-06
-2.31958e-07
1.25903e-06
-2.13349e-07
1.29582e-06
-1.95247e-07
1.32988e-06
-1.78117e-07
1.36128e-06
-1.62156e-07
1.39012e-06
-1.47393e-07
1.41653e-06
-1.33756e-07
1.44065e-06
-1.21108e-07
1.46259e-06
-1.09255e-07
1.48246e-06
-9.79635e-08
1.50038e-06
-8.68794e-08
1.51639e-06
-7.56535e-08
-6.28214e-08
1.53118e-06
1.33808e-06
-1.90517e-07
1.35427e-06
-2.85856e-07
1.38245e-06
-3.04438e-07
1.41696e-06
-3.01124e-07
1.45317e-06
-2.86453e-07
1.48885e-06
-2.67633e-07
1.52314e-06
-2.47641e-07
1.5556e-06
-2.27713e-07
1.58603e-06
-2.08544e-07
1.61435e-06
-1.90476e-07
1.64057e-06
-1.73615e-07
1.66475e-06
-1.57932e-07
1.68695e-06
-1.43309e-07
1.70726e-06
-1.29564e-07
1.72576e-06
-1.16468e-07
1.74259e-06
-1.03708e-07
1.75789e-06
-9.09462e-08
-7.72075e-08
1.77227e-06
1.71767e-06
-1.72907e-07
1.7193e-06
-2.87488e-07
1.73353e-06
-3.1867e-07
1.75572e-06
-3.23312e-07
1.78184e-06
-3.12571e-07
1.80918e-06
-2.94973e-07
1.83644e-06
-2.74906e-07
1.86293e-06
-2.542e-07
1.88823e-06
-2.33845e-07
1.91213e-06
-2.14372e-07
1.93451e-06
-1.96e-07
1.95535e-06
-1.78766e-07
1.97464e-06
-1.62596e-07
1.99241e-06
-1.47341e-07
2.00874e-06
-1.32797e-07
2.02374e-06
-1.18711e-07
2.0376e-06
-1.048e-07
-9.04487e-08
2.05084e-06
2.15734e-06
-1.51552e-07
2.14717e-06
-2.77326e-07
2.14805e-06
-3.19545e-07
2.15705e-06
-3.32312e-07
2.17148e-06
-3.27006e-07
2.18875e-06
-3.12239e-07
2.20729e-06
-2.93444e-07
2.22619e-06
-2.73099e-07
2.24487e-06
-2.52523e-07
2.26295e-06
-2.3246e-07
2.28023e-06
-2.13273e-07
2.29655e-06
-1.9509e-07
2.31186e-06
-1.77901e-07
2.32612e-06
-1.61608e-07
2.33938e-06
-1.46056e-07
2.35173e-06
-1.31056e-07
2.36333e-06
-1.16408e-07
-1.01747e-07
2.37463e-06
2.66011e-06
-1.29475e-07
2.64127e-06
-2.58484e-07
2.63057e-06
-3.08848e-07
2.6268e-06
-3.28538e-07
2.62889e-06
-3.29097e-07
2.63493e-06
-3.18279e-07
2.64341e-06
-3.01921e-07
2.65333e-06
-2.83026e-07
2.66402e-06
-2.63212e-07
2.67499e-06
-2.4343e-07
2.68591e-06
-2.24195e-07
2.69656e-06
-2.05741e-07
2.7068e-06
-1.8814e-07
2.71655e-06
-1.71358e-07
2.7258e-06
-1.55304e-07
2.7346e-06
-1.39858e-07
2.7431e-06
-1.24904e-07
-1.10258e-07
2.75161e-06
3.22874e-06
-1.08352e-07
3.204e-06
-2.3375e-07
3.18408e-06
-2.88923e-07
3.16904e-06
-3.13504e-07
3.15923e-06
-3.19287e-07
3.15377e-06
-3.12815e-07
3.15149e-06
-2.99646e-07
3.15153e-06
-2.8306e-07
3.1532e-06
-2.6488e-07
3.15598e-06
-2.46209e-07
3.15947e-06
-2.27692e-07
3.1634e-06
-2.09671e-07
3.16757e-06
-1.92303e-07
3.17184e-06
-1.75628e-07
3.17615e-06
-1.5962e-07
3.18052e-06
-1.44228e-07
3.18504e-06
-1.29421e-07
-1.1513e-07
3.18991e-06
3.8657e-06
-8.90282e-08
3.83718e-06
-2.05224e-07
3.81025e-06
-2.61999e-07
3.78607e-06
-2.89315e-07
3.76578e-06
-2.99004e-07
3.74951e-06
-2.96548e-07
3.73665e-06
-2.86782e-07
3.72657e-06
-2.7298e-07
3.71874e-06
-2.57048e-07
3.71268e-06
-2.40155e-07
3.70802e-06
-2.23029e-07
3.70444e-06
-2.06096e-07
3.70173e-06
-1.89586e-07
3.69971e-06
-1.73607e-07
3.69828e-06
-1.58199e-07
3.69743e-06
-1.43369e-07
3.69716e-06
-1.29161e-07
-1.15571e-07
3.69761e-06
3.81123e-06
-7.33558e-08
3.78552e-06
-1.79511e-07
3.75883e-06
-2.35314e-07
3.733e-06
-2.6348e-07
3.70932e-06
-2.75326e-07
3.68839e-06
-2.75614e-07
3.6701e-06
-2.68497e-07
3.6542e-06
-2.57081e-07
3.64041e-06
-2.43254e-07
3.62843e-06
-2.28179e-07
3.61801e-06
-2.12604e-07
3.60891e-06
-1.96994e-07
3.60094e-06
-1.81621e-07
3.59398e-06
-1.6664e-07
3.58791e-06
-1.52132e-07
3.58269e-06
-1.38152e-07
3.57827e-06
-1.24736e-07
-1.12128e-07
3.57483e-06
5.03713e-06
-5.77245e-08
5.00707e-06
-1.49454e-07
4.97361e-06
-2.01855e-07
4.93953e-06
-2.29397e-07
4.90653e-06
-2.42331e-07
4.87577e-06
-2.44847e-07
4.84753e-06
-2.40259e-07
4.82179e-06
-2.31347e-07
4.79845e-06
-2.19911e-07
4.77733e-06
-2.07058e-07
4.75823e-06
-1.93507e-07
4.74097e-06
-1.79727e-07
4.72536e-06
-1.66015e-07
4.71127e-06
-1.52554e-07
4.6986e-06
-1.39457e-07
4.68726e-06
-1.26811e-07
4.6772e-06
-1.14678e-07
-1.03399e-07
4.66847e-06
6.66244e-06
-4.26905e-08
6.62913e-06
-1.16144e-07
6.58917e-06
-1.61901e-07
6.54671e-06
-1.86931e-07
6.50387e-06
-1.9949e-07
6.46231e-06
-2.03291e-07
6.42284e-06
-2.00786e-07
6.38572e-06
-1.94225e-07
6.35104e-06
-1.85231e-07
6.31879e-06
-1.74815e-07
6.28891e-06
-1.63627e-07
6.26129e-06
-1.52103e-07
6.23581e-06
-1.40534e-07
6.21236e-06
-1.29109e-07
6.19086e-06
-1.17956e-07
6.17122e-06
-1.07173e-07
6.15339e-06
-9.68403e-08
-8.7323e-08
6.13731e-06
8.79086e-06
-2.8889e-08
8.75646e-06
-8.17439e-08
8.71176e-06
-1.17197e-07
8.66208e-06
-1.37259e-07
8.61015e-06
-1.47553e-07
8.55807e-06
-1.5121e-07
8.50721e-06
-1.4993e-07
8.45826e-06
-1.45276e-07
8.41157e-06
-1.38535e-07
8.36731e-06
-1.30556e-07
8.32556e-06
-1.2188e-07
8.28633e-06
-1.12875e-07
8.2496e-06
-1.03796e-07
8.2153e-06
-9.48157e-08
8.1834e-06
-8.60548e-08
8.15383e-06
-7.76062e-08
8.12653e-06
-6.95382e-08
-6.2228e-08
8.10144e-06
1.15181e-05
-1.66162e-08
1.14848e-05
-4.84443e-08
1.14384e-05
-7.07961e-08
1.13845e-05
-8.34353e-08
1.13265e-05
-8.94726e-08
1.12665e-05
-9.12222e-08
1.12064e-05
-8.98284e-08
1.11473e-05
-8.62054e-08
1.10899e-05
-8.11842e-08
1.10347e-05
-7.53585e-08
1.0982e-05
-6.91035e-08
1.09318e-05
-6.26701e-08
1.08842e-05
-5.62378e-08
1.08393e-05
-4.99341e-08
1.07971e-05
-4.38527e-08
1.07576e-05
-3.80707e-08
1.07207e-05
-3.26152e-08
-2.78695e-08
1.06863e-05
1.48842e-05
-5.40993e-09
1.48525e-05
-1.67289e-08
1.48063e-05
-2.45703e-08
1.47511e-05
-2.82107e-08
1.46904e-05
-2.88134e-08
1.46267e-05
-2.75474e-08
1.45619e-05
-2.50014e-08
1.44973e-05
-2.15724e-08
1.44337e-05
-1.76406e-08
1.43719e-05
-1.34998e-08
1.43121e-05
-9.33455e-09
1.42547e-05
-5.26287e-09
1.41998e-05
-1.3754e-09
1.41476e-05
2.28364e-09
1.40981e-05
5.65862e-09
1.40513e-05
8.70377e-09
1.40073e-05
1.14497e-08
1.35461e-08
1.39658e-05
1.8769e-05
6.2654e-09
1.87365e-05
1.58049e-08
1.86883e-05
2.36208e-08
1.86301e-05
2.99807e-08
1.85661e-05
3.52254e-08
1.84989e-05
3.96198e-08
1.84306e-05
4.33312e-08
1.83625e-05
4.64825e-08
1.82957e-05
4.91683e-08
1.82308e-05
5.14549e-08
1.8168e-05
5.33869e-08
1.81078e-05
5.49942e-08
1.80501e-05
5.62965e-08
1.79951e-05
5.73049e-08
1.79427e-05
5.80254e-08
1.7893e-05
5.84452e-08
1.78458e-05
5.86233e-08
5.82998e-08
1.7801e-05
2.26768e-05
1.69964e-08
2.26398e-05
5.27599e-08
2.25834e-05
8.00229e-08
2.25148e-05
9.85818e-08
2.24391e-05
1.10931e-07
2.23597e-05
1.19076e-07
2.22789e-05
1.24076e-07
2.21987e-05
1.26709e-07
2.21202e-05
1.27671e-07
2.20442e-05
1.27485e-07
2.19711e-05
1.26491e-07
2.19012e-05
1.24916e-07
2.18345e-05
1.22921e-07
2.17712e-05
1.20617e-07
2.17112e-05
1.18082e-07
2.16542e-05
1.15363e-07
2.16003e-05
1.12522e-07
1.09417e-07
2.15492e-05
1.5604e-05
3.26427e-08
1.55641e-05
9.26209e-08
1.55091e-05
1.35038e-07
1.54456e-05
1.62018e-07
1.53777e-05
1.78861e-07
1.5308e-05
1.88782e-07
1.52386e-05
1.93499e-07
1.51708e-05
1.94473e-07
1.51055e-05
1.92945e-07
1.50432e-05
1.89781e-07
1.49842e-05
1.85544e-07
1.49285e-05
1.80621e-07
1.48761e-05
1.75284e-07
1.4827e-05
1.69725e-07
1.4781e-05
1.64075e-07
1.4738e-05
1.58426e-07
1.46976e-05
1.52839e-07
1.47254e-07
1.46598e-05
1.23902e-05
5.12352e-08
1.23448e-05
1.38096e-07
1.22864e-05
1.93401e-07
1.22225e-05
2.25906e-07
1.21566e-05
2.44762e-07
1.20913e-05
2.54082e-07
1.20284e-05
2.56401e-07
1.19688e-05
2.54049e-07
1.1913e-05
2.48781e-07
1.18611e-05
2.41717e-07
1.1813e-05
2.33587e-07
1.17688e-05
2.24887e-07
1.17281e-05
2.1596e-07
1.16908e-05
2.07033e-07
1.16566e-05
1.98252e-07
1.16253e-05
1.89716e-07
1.15967e-05
1.8147e-07
1.73502e-07
1.15704e-05
9.55928e-06
7.55432e-08
9.50978e-06
1.87601e-07
9.45371e-06
2.49472e-07
9.39689e-06
2.82722e-07
9.3417e-06
2.99957e-07
9.29012e-06
3.05662e-07
9.2431e-06
3.03417e-07
9.20079e-06
2.96363e-07
9.16303e-06
2.86541e-07
9.12956e-06
2.75182e-07
9.10006e-06
2.63086e-07
9.07416e-06
2.50785e-07
9.0515e-06
2.3862e-07
9.03174e-06
2.26798e-07
9.01455e-06
2.15442e-07
8.99964e-06
2.04622e-07
8.98676e-06
1.94354e-07
1.84642e-07
8.97562e-06
7.18003e-06
1.04962e-07
7.13264e-06
2.34994e-07
7.08699e-06
2.95115e-07
7.04542e-06
3.24298e-07
7.00919e-06
3.36184e-07
6.97925e-06
3.356e-07
6.95528e-06
3.27393e-07
6.9365e-06
3.15143e-07
6.92218e-06
3.00859e-07
6.91165e-06
2.8571e-07
6.9043e-06
2.70435e-07
6.8996e-06
2.55491e-07
6.89708e-06
2.41136e-07
6.89637e-06
2.27505e-07
6.89716e-06
2.14658e-07
6.89917e-06
2.0261e-07
6.90218e-06
1.91339e-07
1.80841e-07
6.90598e-06
5.24556e-06
1.38121e-07
5.20786e-06
2.72693e-07
5.18043e-06
3.22549e-07
5.16161e-06
3.43115e-07
5.15134e-06
3.46452e-07
5.14856e-06
3.38375e-07
5.15145e-06
3.24505e-07
5.1585e-06
3.08091e-07
5.16862e-06
2.90741e-07
5.18095e-06
2.73378e-07
5.19484e-06
2.56551e-07
5.20977e-06
2.40555e-07
5.22539e-06
2.25525e-07
5.24139e-06
2.11504e-07
5.25756e-06
1.9848e-07
5.27376e-06
1.86414e-07
5.28985e-06
1.7525e-07
1.64973e-07
5.30572e-06
3.71461e-06
1.71643e-07
3.69607e-06
2.91237e-07
3.69442e-06
3.24198e-07
3.70434e-06
3.33196e-07
3.72341e-06
3.27379e-07
3.74838e-06
3.13404e-07
3.77668e-06
2.96202e-07
3.80677e-06
2.78003e-07
3.83765e-06
2.59864e-07
3.86863e-06
2.42394e-07
3.89927e-06
2.25916e-07
3.92926e-06
2.10565e-07
3.95841e-06
1.96369e-07
3.98662e-06
1.83296e-07
4.01382e-06
1.71282e-07
4.03998e-06
1.60251e-07
4.06511e-06
1.50128e-07
1.40895e-07
4.08918e-06
2.5354e-06
1.96844e-07
2.54624e-06
2.80393e-07
2.57486e-06
2.95584e-07
2.61417e-06
2.93878e-07
2.65963e-06
2.81925e-07
2.70723e-06
2.65802e-07
2.75495e-06
2.48481e-07
2.80179e-06
2.31163e-07
2.84716e-06
2.14499e-07
2.89071e-06
1.98839e-07
2.93229e-06
1.84332e-07
2.97185e-06
1.71007e-07
3.0094e-06
1.58821e-07
3.04499e-06
1.47704e-07
3.07871e-06
1.37567e-07
3.11064e-06
1.28323e-07
3.14088e-06
1.19887e-07
1.12262e-07
3.16951e-06
1.65469e-06
1.99257e-07
1.70056e-06
2.34526e-07
1.75707e-06
2.39072e-07
1.81981e-06
2.3114e-07
1.88376e-06
2.17978e-07
1.94595e-06
2.03607e-07
2.00553e-06
1.88908e-07
2.06211e-06
1.74578e-07
2.11552e-06
1.61085e-07
2.16576e-06
1.48608e-07
2.2129e-06
1.37187e-07
2.25711e-06
1.26799e-07
2.29855e-06
1.17378e-07
2.33742e-06
1.08841e-07
2.37388e-06
1.01102e-07
2.40812e-06
9.40787e-08
2.44032e-06
8.7692e-08
8.19794e-08
2.4706e-06
1.01827e-06
1.63846e-07
1.09488e-06
1.57921e-07
1.17023e-06
1.63716e-07
1.24668e-06
1.54692e-07
1.32007e-06
1.44591e-07
1.38904e-06
1.34633e-07
1.45367e-06
1.24284e-07
1.51399e-06
1.14253e-07
1.57012e-06
1.04952e-07
1.62229e-06
9.64456e-08
1.67075e-06
8.87232e-08
1.7158e-06
8.17489e-08
1.75772e-06
7.54633e-08
1.79676e-06
6.97973e-08
1.83318e-06
6.46831e-08
1.8672e-06
6.00601e-08
1.89904e-06
5.58487e-08
5.21246e-08
1.92889e-06
5.69236e-07
8.45264e-08
6.58979e-07
6.81779e-08
7.40757e-07
8.19383e-08
8.20848e-07
7.4601e-08
8.95841e-07
6.95977e-08
9.65387e-07
6.50874e-08
1.0298e-06
5.98711e-08
1.0893e-06
5.47551e-08
1.14416e-06
5.00891e-08
1.19474e-06
4.58621e-08
1.24142e-06
4.20452e-08
1.28455e-06
3.86175e-08
1.32447e-06
3.55453e-08
1.36148e-06
3.27886e-08
1.39585e-06
3.03093e-08
1.42783e-06
2.80788e-08
1.45766e-06
2.60249e-08
2.41964e-08
1.48559e-06
2.22451e-07
2.90628e-07
3.72567e-07
4.47168e-07
5.16765e-07
5.81853e-07
6.41724e-07
6.96479e-07
7.46568e-07
7.9243e-07
8.34475e-07
8.73093e-07
9.08638e-07
9.41427e-07
9.71736e-07
9.99815e-07
1.02584e-06
1.05004e-06
1.87349e-08
-1.87349e-08
4.21956e-08
-2.34607e-08
6.24796e-08
-2.0284e-08
7.71269e-08
-1.46473e-08
8.52743e-08
-8.14737e-09
8.6922e-08
-1.64773e-09
8.26828e-08
4.23921e-09
7.36151e-08
9.06769e-09
6.08316e-08
1.27835e-08
4.52101e-08
1.56215e-08
2.72769e-08
1.79332e-08
7.23846e-09
2.00385e-08
-1.4942e-08
2.21805e-08
-3.94537e-08
2.45117e-08
-6.65325e-08
2.70788e-08
-9.64007e-08
2.98682e-08
-1.29233e-07
3.28328e-08
-1.65136e-07
3.59025e-08
-2.04133e-07
3.89966e-08
-2.46163e-07
4.20302e-08
-2.91083e-07
4.49198e-08
-3.38671e-07
4.75885e-08
-3.88642e-07
4.99707e-08
-4.40657e-07
5.20152e-08
-4.94345e-07
5.36878e-08
-5.49316e-07
5.49714e-08
-6.05181e-07
5.58652e-08
-6.61564e-07
5.6383e-08
-7.18116e-07
5.65518e-08
-7.74529e-07
5.64128e-08
-8.30549e-07
5.60196e-08
-8.85972e-07
5.54233e-08
-9.40628e-07
5.46563e-08
-9.94373e-07
5.37451e-08
-1.04709e-06
5.27168e-08
-1.09869e-06
5.15962e-08
-1.14909e-06
5.04055e-08
-1.19826e-06
4.9164e-08
-1.24614e-06
4.78873e-08
-1.29273e-06
4.65882e-08
-1.33801e-06
4.52765e-08
-1.38197e-06
4.39594e-08
-1.42461e-06
4.26419e-08
-1.46594e-06
4.13274e-08
-1.50595e-06
4.00177e-08
-1.54467e-06
3.87136e-08
-1.58208e-06
3.7415e-08
-1.6182e-06
3.61212e-08
-1.65304e-06
3.48311e-08
-1.68658e-06
3.35436e-08
-1.71884e-06
3.22573e-08
-1.74981e-06
3.09709e-08
-1.77949e-06
2.96831e-08
-1.80788e-06
2.83928e-08
-1.83498e-06
2.70992e-08
-1.86078e-06
2.58013e-08
-1.88528e-06
2.44986e-08
-1.90847e-06
2.31907e-08
-1.93035e-06
2.18772e-08
-1.95091e-06
2.05578e-08
-1.97014e-06
1.92325e-08
-1.98804e-06
1.7901e-08
-2.0046e-06
1.6563e-08
-2.01982e-06
1.52181e-08
-2.03369e-06
1.38656e-08
-2.04619e-06
1.25042e-08
-2.05732e-06
1.1132e-08
-2.06707e-06
9.74544e-09
-2.07541e-06
8.34063e-09
-2.08232e-06
6.9123e-09
-2.08778e-06
5.4531e-09
-2.09173e-06
3.95398e-09
-2.09414e-06
2.41057e-09
-2.09495e-06
8.06912e-10
-2.09426e-06
-6.85619e-10
-2.09229e-06
-1.97315e-09
-2.08909e-06
-3.19653e-09
-2.08471e-06
-4.37773e-09
-2.07918e-06
-5.53535e-09
-2.0725e-06
-6.67906e-09
-2.06469e-06
-7.81251e-09
-2.05575e-06
-8.93693e-09
-2.0457e-06
-1.00524e-08
-2.03454e-06
-1.11586e-08
-2.02228e-06
-1.2255e-08
-2.00894e-06
-1.33411e-08
-1.99453e-06
-1.4416e-08
-1.97905e-06
-1.54794e-08
-1.96252e-06
-1.65306e-08
-1.94495e-06
-1.7569e-08
-1.92635e-06
-1.85942e-08
-1.90675e-06
-1.96056e-08
-1.88615e-06
-2.06028e-08
-1.86456e-06
-2.15853e-08
-1.84201e-06
-2.25528e-08
-1.8185e-06
-2.35048e-08
-1.79406e-06
-2.44408e-08
-1.7687e-06
-2.53606e-08
-1.74244e-06
-2.62636e-08
-1.71529e-06
-2.71495e-08
-1.68727e-06
-2.80178e-08
-1.6584e-06
-2.88682e-08
-1.6287e-06
-2.97003e-08
-1.59819e-06
-3.05136e-08
-1.56688e-06
-3.13078e-08
-1.5348e-06
-3.20824e-08
-1.50196e-06
-3.2837e-08
-1.46839e-06
-3.35711e-08
-1.43411e-06
-3.42841e-08
-1.39913e-06
-3.49757e-08
-1.36348e-06
-3.56453e-08
-1.32719e-06
-3.62924e-08
-1.29028e-06
-3.69165e-08
-1.25276e-06
-3.75171e-08
-1.21467e-06
-3.80937e-08
-1.17602e-06
-3.86457e-08
-1.13685e-06
-3.91726e-08
-1.09717e-06
-3.9674e-08
-1.05702e-06
-4.01492e-08
-1.01643e-06
-4.05978e-08
-9.75407e-07
-4.10193e-08
-9.33993e-07
-4.14133e-08
-8.92214e-07
-4.17793e-08
-8.50097e-07
-4.2117e-08
-8.07671e-07
-4.2426e-08
-7.64965e-07
-4.27059e-08
-7.22009e-07
-4.29564e-08
-6.78832e-07
-4.31772e-08
-6.35463e-07
-4.33683e-08
-5.91934e-07
-4.35292e-08
-5.48274e-07
-4.36599e-08
-5.04514e-07
-4.37602e-08
-4.60684e-07
-4.38301e-08
-4.16815e-07
-4.38691e-08
-3.72937e-07
-4.38774e-08
-3.29083e-07
-4.38544e-08
-2.85283e-07
-4.37998e-08
-2.4157e-07
-4.37128e-08
-1.97978e-07
-4.35929e-08
-1.5454e-07
-4.34374e-08
-1.11293e-07
-4.32474e-08
-6.82684e-08
-4.30244e-08
-2.55058e-08
-4.27625e-08
1.69578e-08
-4.24636e-08
5.90812e-08
-4.21235e-08
1.00834e-07
-4.17532e-08
1.42202e-07
-4.13677e-08
1.8318e-07
-4.09776e-08
2.23761e-07
-4.05813e-08
2.63937e-07
-4.01762e-08
3.03698e-07
-3.97607e-08
3.43032e-07
-3.93341e-08
3.81928e-07
-3.88963e-08
4.20376e-07
-3.84477e-08
4.58365e-07
-3.79891e-08
4.95887e-07
-3.75214e-08
5.32932e-07
-3.70458e-08
5.69496e-07
-3.65633e-08
6.05571e-07
-3.60753e-08
6.41154e-07
-3.55829e-08
6.76241e-07
-3.5087e-08
7.10829e-07
-3.45886e-08
7.44917e-07
-3.40881e-08
7.78503e-07
-3.35857e-08
8.11584e-07
-3.30807e-08
8.44155e-07
-3.25717e-08
8.76211e-07
-3.20557e-08
9.07739e-07
-3.15277e-08
9.38718e-07
-3.09796e-08
9.69117e-07
-3.03987e-08
9.98882e-07
-2.97647e-08
1.02793e-06
-2.90453e-08
1.05611e-06
-2.81869e-08
1.08321e-06
-2.70978e-08
1.10881e-06
-2.56007e-08
1.13217e-06
-2.33532e-08
1.15156e-06
-1.93973e-08
1.16314e-06
-1.1572e-08
1.15426e-06
8.8796e-09
5.4157e-08
1.1001e-06
1.76518e-08
-3.63867e-08
2.77882e-08
-3.35971e-08
3.0226e-08
-2.27217e-08
2.70144e-08
-1.14357e-08
1.94874e-08
-6.20444e-10
8.39606e-09
9.44365e-09
-5.95449e-09
1.85898e-08
-2.36103e-08
2.67234e-08
-4.4692e-08
3.38652e-08
-6.92641e-08
4.01937e-08
-9.73162e-08
4.59853e-08
-1.28795e-07
5.15171e-08
-1.63611e-07
5.6997e-08
-2.01639e-07
6.25394e-08
-2.42728e-07
6.81678e-08
-2.86693e-07
7.38328e-08
-3.33297e-07
7.94366e-08
-3.8225e-07
8.48558e-08
-4.33213e-07
8.996e-08
-4.85809e-07
9.46256e-08
-5.39634e-07
9.87457e-08
-5.94283e-07
1.02237e-07
-6.49359e-07
1.05046e-07
-7.04489e-07
1.07146e-07
-7.59342e-07
1.0854e-07
-8.13627e-07
1.09257e-07
-8.67106e-07
1.09344e-07
-9.19589e-07
1.08866e-07
-9.70935e-07
1.07897e-07
-1.02104e-06
1.06518e-07
-1.06983e-06
1.04808e-07
-1.11724e-06
1.02839e-07
-1.16326e-06
1.00669e-07
-1.20786e-06
9.8348e-08
-1.25106e-06
9.59186e-08
-1.29288e-06
9.34164e-08
-1.33334e-06
9.08699e-08
-1.37248e-06
8.83019e-08
-1.41032e-06
8.57291e-08
-1.4469e-06
8.31638e-08
-1.48224e-06
8.06139e-08
-1.51636e-06
7.80843e-08
-1.5493e-06
7.55771e-08
-1.58106e-06
7.30924e-08
-1.61167e-06
7.06289e-08
-1.64114e-06
6.81842e-08
-1.66948e-06
6.57555e-08
-1.6967e-06
6.33394e-08
-1.7228e-06
6.09326e-08
-1.74779e-06
5.85317e-08
-1.77167e-06
5.61335e-08
-1.79443e-06
5.37354e-08
-1.81608e-06
5.13347e-08
-1.83662e-06
4.89294e-08
-1.85604e-06
4.65177e-08
-1.87434e-06
4.40984e-08
-1.89151e-06
4.16703e-08
-1.90755e-06
3.9233e-08
-1.92246e-06
3.67859e-08
-1.93623e-06
3.43291e-08
-1.94886e-06
3.18625e-08
-1.96035e-06
2.93865e-08
-1.97068e-06
2.69012e-08
-1.97987e-06
2.4407e-08
-1.98791e-06
2.19042e-08
-1.9948e-06
1.93932e-08
-2.00054e-06
1.68743e-08
-2.00515e-06
1.43478e-08
-2.00862e-06
1.18148e-08
-2.01099e-06
9.27739e-09
-2.01227e-06
6.73961e-09
-2.01253e-06
4.20968e-09
-2.01182e-06
1.70623e-09
-2.01027e-06
-7.48785e-10
-2.00781e-06
-3.14788e-09
-2.0043e-06
-5.47694e-09
-1.99971e-06
-7.78352e-09
-1.99402e-06
-1.00718e-08
-1.98721e-06
-1.23432e-08
-1.97929e-06
-1.45994e-08
-1.97026e-06
-1.68406e-08
-1.96013e-06
-1.90662e-08
-1.94891e-06
-2.12754e-08
-1.9366e-06
-2.3467e-08
-1.92322e-06
-2.56396e-08
-1.90877e-06
-2.7792e-08
-1.89326e-06
-2.99228e-08
-1.87671e-06
-3.20309e-08
-1.85913e-06
-3.4115e-08
-1.84052e-06
-3.61741e-08
-1.82091e-06
-3.82071e-08
-1.8003e-06
-4.02129e-08
-1.77871e-06
-4.21907e-08
-1.75616e-06
-4.41396e-08
-1.73265e-06
-4.60586e-08
-1.70821e-06
-4.79469e-08
-1.68285e-06
-4.98037e-08
-1.65658e-06
-5.16282e-08
-1.62942e-06
-5.34194e-08
-1.6014e-06
-5.51766e-08
-1.57251e-06
-5.68989e-08
-1.5428e-06
-5.85856e-08
-1.51226e-06
-6.02358e-08
-1.48093e-06
-6.18487e-08
-1.44881e-06
-6.34234e-08
-1.41593e-06
-6.49591e-08
-1.38232e-06
-6.64549e-08
-1.34798e-06
-6.79097e-08
-1.31294e-06
-6.93227e-08
-1.27722e-06
-7.06927e-08
-1.24085e-06
-7.20189e-08
-1.20384e-06
-7.33003e-08
-1.16622e-06
-7.45357e-08
-1.12801e-06
-7.57242e-08
-1.08924e-06
-7.68647e-08
-1.04993e-06
-7.79562e-08
-1.01011e-06
-7.89975e-08
-9.69795e-07
-7.99877e-08
-9.29018e-07
-8.09258e-08
-8.87805e-07
-8.18108e-08
-8.46183e-07
-8.26416e-08
-8.04178e-07
-8.34175e-08
-7.6182e-07
-8.41376e-08
-7.19136e-07
-8.4801e-08
-6.76155e-07
-8.54072e-08
-6.32906e-07
-8.59552e-08
-5.89417e-07
-8.64446e-08
-5.4572e-07
-8.68748e-08
-5.01843e-07
-8.72455e-08
-4.57816e-07
-8.75561e-08
-4.13669e-07
-8.78064e-08
-3.69433e-07
-8.79962e-08
-3.25138e-07
-8.81251e-08
-2.80815e-07
-8.81928e-08
-2.36493e-07
-8.81992e-08
-1.92203e-07
-8.81437e-08
-1.47978e-07
-8.80256e-08
-1.03847e-07
-8.78437e-08
-5.98417e-08
-8.75978e-08
-1.59942e-08
-8.72849e-08
2.76629e-08
-8.69045e-08
7.10967e-08
-8.64581e-08
1.14279e-07
-8.59448e-08
1.57186e-07
-8.53702e-08
1.99797e-07
-8.47349e-08
2.42092e-07
-8.40478e-08
2.8405e-07
-8.33255e-08
3.2565e-07
-8.25784e-08
3.66878e-07
-8.18084e-08
4.07716e-07
-8.10149e-08
4.48153e-07
-8.01973e-08
4.88174e-07
-7.93555e-08
5.27768e-07
-7.84902e-08
5.66923e-07
-7.76029e-08
6.05629e-07
-7.66952e-08
6.43877e-07
-7.57694e-08
6.81659e-07
-7.48276e-08
7.18968e-07
-7.38725e-08
7.55799e-07
-7.29062e-08
7.92148e-07
-7.19313e-08
8.2801e-07
-7.09497e-08
8.63385e-07
-6.99632e-08
8.9827e-07
-6.89728e-08
9.32663e-07
-6.79787e-08
9.66562e-07
-6.69798e-08
9.99963e-07
-6.5973e-08
1.03286e-06
-6.49524e-08
1.06524e-06
-6.3908e-08
1.09708e-06
-6.28237e-08
1.12836e-06
-6.16741e-08
1.15901e-06
-6.04194e-08
1.18896e-06
-5.89959e-08
1.21808e-06
-5.72992e-08
1.24613e-06
-5.51529e-08
1.27276e-06
-5.22297e-08
1.29733e-06
-4.79202e-08
1.31872e-06
-4.07853e-08
1.33534e-06
-2.81988e-08
1.34562e-06
-1.39443e-09
5.36213e-08
1.34615e-06
4.10983e-09
-4.04966e-08
-1.48218e-09
-2.80051e-08
-1.19249e-08
-1.2279e-08
-2.5629e-08
2.2684e-09
-4.19809e-08
1.57315e-08
-6.08094e-08
2.82721e-08
-8.21388e-08
3.99191e-08
-1.0611e-07
5.06945e-08
-1.32903e-07
6.06585e-08
-1.62647e-07
6.99377e-08
-1.95363e-07
7.87013e-08
-2.30957e-07
8.71105e-08
-2.69234e-07
9.52742e-08
-3.09924e-07
1.03229e-07
-3.52699e-07
1.10943e-07
-3.97198e-07
1.18332e-07
-4.43041e-07
1.25279e-07
-4.89843e-07
1.31658e-07
-5.37233e-07
1.3735e-07
-5.84864e-07
1.42257e-07
-6.32428e-07
1.46309e-07
-6.79658e-07
1.49468e-07
-7.2634e-07
1.51728e-07
-7.72309e-07
1.53114e-07
-8.17444e-07
1.53676e-07
-8.61669e-07
1.53481e-07
-9.04937e-07
1.52613e-07
-9.47231e-07
1.5116e-07
-9.88548e-07
1.49214e-07
-1.02889e-06
1.46864e-07
-1.06828e-06
1.44194e-07
-1.10672e-06
1.41275e-07
-1.14422e-06
1.3817e-07
-1.1808e-06
1.34929e-07
-1.21648e-06
1.31595e-07
-1.25126e-06
1.28203e-07
-1.28517e-06
1.24779e-07
-1.31821e-06
1.21342e-07
-1.35039e-06
1.17907e-07
-1.38171e-06
1.14483e-07
-1.41217e-06
1.11075e-07
-1.44177e-06
1.07687e-07
-1.47051e-06
1.04319e-07
-1.49839e-06
1.00967e-07
-1.52539e-06
9.76311e-08
-1.55151e-06
9.4306e-08
-1.57675e-06
9.0988e-08
-1.60108e-06
8.76729e-08
-1.6245e-06
8.43566e-08
-1.64701e-06
8.10352e-08
-1.66858e-06
7.77051e-08
-1.68921e-06
7.43631e-08
-1.70888e-06
7.10067e-08
-1.72758e-06
6.76338e-08
-1.74531e-06
6.42427e-08
-1.76204e-06
6.08323e-08
-1.77777e-06
5.74021e-08
-1.79249e-06
5.39519e-08
-1.80619e-06
5.0482e-08
-1.81885e-06
4.6993e-08
-1.83048e-06
4.34859e-08
-1.84105e-06
3.9962e-08
-1.85057e-06
3.64227e-08
-1.85904e-06
3.28699e-08
-1.86644e-06
2.93056e-08
-1.87278e-06
2.5732e-08
-1.87805e-06
2.21519e-08
-1.88227e-06
1.85684e-08
-1.88544e-06
1.49859e-08
-1.88758e-06
1.14094e-08
-1.88868e-06
7.84604e-09
-1.88878e-06
4.30462e-09
-1.88787e-06
7.95158e-10
-1.88594e-06
-2.67218e-09
-1.88299e-06
-6.10303e-09
-1.87896e-06
-9.50406e-09
-1.87386e-06
-1.2886e-08
-1.86768e-06
-1.62514e-08
-1.86042e-06
-1.96003e-08
-1.85209e-06
-2.29315e-08
-1.84269e-06
-2.62435e-08
-1.83222e-06
-2.95343e-08
-1.82069e-06
-3.2802e-08
-1.80811e-06
-3.60444e-08
-1.7945e-06
-3.92595e-08
-1.77984e-06
-4.24452e-08
-1.76417e-06
-4.55996e-08
-1.74748e-06
-4.87208e-08
-1.72978e-06
-5.18069e-08
-1.7111e-06
-5.48562e-08
-1.69144e-06
-5.78673e-08
-1.67082e-06
-6.08386e-08
-1.64924e-06
-6.37685e-08
-1.62672e-06
-6.66558e-08
-1.60328e-06
-6.94992e-08
-1.57893e-06
-7.22972e-08
-1.55369e-06
-7.50487e-08
-1.52756e-06
-7.77524e-08
-1.50057e-06
-8.04069e-08
-1.47274e-06
-8.30111e-08
-1.44407e-06
-8.55637e-08
-1.4146e-06
-8.80633e-08
-1.38432e-06
-9.05089e-08
-1.35327e-06
-9.28991e-08
-1.32146e-06
-9.52326e-08
-1.28892e-06
-9.75082e-08
-1.25565e-06
-9.97245e-08
-1.22168e-06
-1.0188e-07
-1.18702e-06
-1.03973e-07
-1.15172e-06
-1.06002e-07
-1.11577e-06
-1.07967e-07
-1.0792e-06
-1.09864e-07
-1.04205e-06
-1.11693e-07
-1.00432e-06
-1.13452e-07
-9.66043e-07
-1.1514e-07
-9.27245e-07
-1.16755e-07
-8.87947e-07
-1.18295e-07
-8.48176e-07
-1.19759e-07
-8.07957e-07
-1.21145e-07
-7.67315e-07
-1.22453e-07
-7.26277e-07
-1.23679e-07
-6.8487e-07
-1.24824e-07
-6.43122e-07
-1.25886e-07
-6.01059e-07
-1.26864e-07
-5.5871e-07
-1.27756e-07
-5.16104e-07
-1.28561e-07
-4.73269e-07
-1.2928e-07
-4.30233e-07
-1.2991e-07
-3.87027e-07
-1.30452e-07
-3.43679e-07
-1.30904e-07
-3.00219e-07
-1.31266e-07
-2.56677e-07
-1.31539e-07
-2.13081e-07
-1.31721e-07
-1.69462e-07
-1.31812e-07
-1.25849e-07
-1.31812e-07
-8.22723e-08
-1.3172e-07
-3.87613e-08
-1.31537e-07
4.65477e-09
-1.3126e-07
4.79451e-08
-1.30888e-07
9.10804e-08
-1.3042e-07
1.34032e-07
-1.29856e-07
1.76772e-07
-1.29198e-07
2.19278e-07
-1.28451e-07
2.61532e-07
-1.27625e-07
3.03523e-07
-1.26725e-07
3.45228e-07
-1.25753e-07
3.86622e-07
-1.2472e-07
4.27681e-07
-1.23637e-07
4.68382e-07
-1.2251e-07
5.08708e-07
-1.21341e-07
5.48643e-07
-1.20132e-07
5.88172e-07
-1.18885e-07
6.27284e-07
-1.17602e-07
6.65965e-07
-1.16285e-07
7.04207e-07
-1.14937e-07
7.41999e-07
-1.13562e-07
7.79335e-07
-1.12163e-07
8.16206e-07
-1.10744e-07
8.52609e-07
-1.09309e-07
8.8854e-07
-1.07862e-07
9.23995e-07
-1.06404e-07
9.58971e-07
-1.0494e-07
9.93469e-07
-1.0347e-07
1.02749e-06
-1.01995e-07
1.06102e-06
-1.00514e-07
1.09407e-06
-9.90205e-08
1.12662e-06
-9.75073e-08
1.15867e-06
-9.59593e-08
1.1902e-06
-9.43529e-08
1.22118e-06
-9.26506e-08
1.25155e-06
-9.07944e-08
1.28125e-06
-8.86921e-08
1.31015e-06
-8.61952e-08
1.33805e-06
-8.30563e-08
1.36466e-06
-7.88368e-08
1.38949e-06
-7.27499e-08
1.41186e-06
-6.31619e-08
1.43092e-06
-4.72512e-08
1.44717e-06
-1.76457e-08
3.65706e-08
1.46422e-06
-1.05888e-08
-2.99078e-08
-2.74969e-08
-1.10971e-08
-4.66195e-08
6.84368e-09
-6.73377e-08
2.29866e-08
-8.96268e-08
3.80206e-08
-1.1356e-07
5.22056e-08
-1.39274e-07
6.56325e-08
-1.66915e-07
7.83362e-08
-1.96609e-07
9.03518e-08
-2.28406e-07
1.01735e-07
-2.62259e-07
1.12554e-07
-2.98014e-07
1.22866e-07
-3.35431e-07
1.32691e-07
-3.74211e-07
1.42009e-07
-4.14022e-07
1.50755e-07
-4.54529e-07
1.58838e-07
-4.95408e-07
1.66158e-07
-5.36369e-07
1.72619e-07
-5.77163e-07
1.78143e-07
-6.17586e-07
1.82681e-07
-6.57487e-07
1.8621e-07
-6.96761e-07
1.88741e-07
-7.35344e-07
1.90311e-07
-7.73208e-07
1.90979e-07
-8.10353e-07
1.9082e-07
-8.46794e-07
1.89922e-07
-8.82558e-07
1.88377e-07
-9.17675e-07
1.86277e-07
-9.52174e-07
1.83713e-07
-9.86078e-07
1.80769e-07
-1.0194e-06
1.7752e-07
-1.05216e-06
1.74034e-07
-1.08436e-06
1.70366e-07
-1.11599e-06
1.66563e-07
-1.14706e-06
1.62665e-07
-1.17756e-06
1.587e-07
-1.20747e-06
1.54692e-07
-1.23679e-06
1.5066e-07
-1.2655e-06
1.46614e-07
-1.29358e-06
1.42563e-07
-1.32101e-06
1.38511e-07
-1.34779e-06
1.34461e-07
-1.37388e-06
1.30411e-07
-1.39927e-06
1.2636e-07
-1.42395e-06
1.22304e-07
-1.44788e-06
1.18241e-07
-1.47106e-06
1.14166e-07
-1.49346e-06
1.10074e-07
-1.51507e-06
1.05963e-07
-1.53586e-06
1.01828e-07
-1.55582e-06
9.76656e-08
-1.57493e-06
9.34742e-08
-1.59317e-06
8.9251e-08
-1.61053e-06
8.49946e-08
-1.627e-06
8.0704e-08
-1.64254e-06
7.63787e-08
-1.65716e-06
7.20189e-08
-1.67083e-06
6.76254e-08
-1.68355e-06
6.31994e-08
-1.6953e-06
5.87425e-08
-1.70607e-06
5.42569e-08
-1.71585e-06
4.97451e-08
-1.72464e-06
4.52099e-08
-1.73243e-06
4.06546e-08
-1.7392e-06
3.60828e-08
-1.74497e-06
3.14982e-08
-1.74972e-06
2.69054e-08
-1.75346e-06
2.23089e-08
-1.75619e-06
1.77144e-08
-1.75791e-06
1.31277e-08
-1.75862e-06
8.55518e-09
-1.75832e-06
4.00349e-09
-1.757e-06
-5.2188e-10
-1.75466e-06
-5.01742e-09
-1.75127e-06
-9.48529e-09
-1.74685e-06
-1.39307e-08
-1.74137e-06
-1.83576e-08
-1.73486e-06
-2.27667e-08
-1.7273e-06
-2.71568e-08
-1.71871e-06
-3.15259e-08
-1.70908e-06
-3.58712e-08
-1.69843e-06
-4.01901e-08
-1.68675e-06
-4.44795e-08
-1.67406e-06
-4.87365e-08
-1.66036e-06
-5.29585e-08
-1.64566e-06
-5.71424e-08
-1.62997e-06
-6.12858e-08
-1.61331e-06
-6.53861e-08
-1.59567e-06
-6.94409e-08
-1.57708e-06
-7.34479e-08
-1.55754e-06
-7.7405e-08
-1.53707e-06
-8.13101e-08
-1.51568e-06
-8.51613e-08
-1.49338e-06
-8.89568e-08
-1.47018e-06
-9.26948e-08
-1.44611e-06
-9.63735e-08
-1.42116e-06
-9.99912e-08
-1.39537e-06
-1.03546e-07
-1.36874e-06
-1.07037e-07
-1.34129e-06
-1.10461e-07
-1.31304e-06
-1.13818e-07