/*--------------------------------*- C++ -*----------------------------------*\
| =========                 |                                                 |
| \\      /  F ield         | OpenFOAM: The Open Source CFD Toolbox           |
|  \\    /   O peration     | Version:  2412                                  |
|   \\  /    A nd           | Website:  www.openfoam.com                      |
|    \\/     M anipulation  |                                                 |
\*---------------------------------------------------------------------------*/
FoamFile
{
    version     2.0;
    format      ascii;
    arch        "LSB;label=32;scalar=64";
    class       volVectorField;
    location    "0.23";
    object      U;
}
// * * * * * * * * * * * * * * * * * * * * * * * * * * * * * * * * * * * * * //

dimensions      [0 1 -1 0 0 0 0];

internalField   nonuniform List<vector> 
12225
(
(0.377183 -0.200896 0)
(0.543962 -0.0519273 0)
(0.71105 -0.0340154 0)
(0.893987 -0.0304779 0)
(1.05913 -0.0297486 0)
(1.20887 -0.0284545 0)
(1.3462 -0.0265206 0)
(1.47051 -0.0245782 0)
(1.58226 -0.0227693 0)
(1.68274 -0.0210772 0)
(1.77312 -0.0194993 0)
(1.85434 -0.0180274 0)
(1.92723 -0.01664 0)
(1.99248 -0.0152952 0)
(2.05042 -0.013969 0)
(2.10193 -0.0125094 0)
(2.14314 -0.0103445 0)
(2.19073 -0.0128345 0)
(0.933503 -0.0317784 0)
(1.0567 -0.0587109 0)
(1.23664 -0.0689017 0)
(1.42156 -0.0644869 0)
(1.58554 -0.0618155 0)
(1.73444 -0.05897 0)
(1.87135 -0.0555687 0)
(1.99607 -0.0521821 0)
(2.10909 -0.0489407 0)
(2.21144 -0.0458519 0)
(2.3041 -0.0429302 0)
(2.38791 -0.0401613 0)
(2.46361 -0.0375031 0)
(2.53181 -0.0348763 0)
(2.59292 -0.03222 0)
(2.64731 -0.0290849 0)
(2.69447 -0.0260701 0)
(2.73636 -0.0159001 0)
(1.39962 -0.084682 0)
(1.49179 -0.105679 0)
(1.65466 -0.107239 0)
(1.82261 -0.101944 0)
(1.97269 -0.097993 0)
(2.1104 -0.0936566 0)
(2.23778 -0.0887457 0)
(2.35453 -0.0838036 0)
(2.46099 -0.0790029 0)
(2.55792 -0.07439 0)
(2.6461 -0.0699906 0)
(2.72619 -0.0657855 0)
(2.79881 -0.0617154 0)
(2.86449 -0.057673 0)
(2.92363 -0.0535267 0)
(2.97644 -0.0488549 0)
(3.02313 -0.0436312 0)
(3.06298 -0.0341057 0)
(1.89741 -0.115425 0)
(1.94623 -0.14331 0)
(2.07521 -0.144986 0)
(2.21748 -0.14077 0)
(2.34799 -0.135783 0)
(2.46975 -0.130051 0)
(2.58355 -0.123702 0)
(2.6887 -0.117216 0)
(2.78529 -0.110831 0)
(2.87378 -0.104647 0)
(2.95467 -0.0987089 0)
(3.02848 -0.0929969 0)
(3.09566 -0.0874405 0)
(3.15664 -0.0819096 0)
(3.21176 -0.0762228 0)
(3.2612 -0.0699564 0)
(3.3055 -0.0628185 0)
(3.3431 -0.0518065 0)
(2.43108 -0.125831 0)
(2.44051 -0.169894 0)
(2.52881 -0.177416 0)
(2.64003 -0.176177 0)
(2.74682 -0.171237 0)
(2.84905 -0.164739 0)
(2.94619 -0.157387 0)
(3.03705 -0.149689 0)
(3.1213 -0.141976 0)
(3.19909 -0.134421 0)
(3.27067 -0.127098 0)
(3.33633 -0.119999 0)
(3.39637 -0.113053 0)
(3.45109 -0.10612 0)
(3.50079 -0.0989889 0)
(3.54559 -0.091252 0)
(3.58632 -0.0824742 0)
(3.62091 -0.0703838 0)
(2.99683 -0.123685 0)
(2.97698 -0.185373 0)
(3.02469 -0.201465 0)
(3.10204 -0.204959 0)
(3.18211 -0.201583 0)
(3.26199 -0.195267 0)
(3.33998 -0.187566 0)
(3.41427 -0.179177 0)
(3.48411 -0.170558 0)
(3.54931 -0.161977 0)
(3.60982 -0.153554 0)
(3.66572 -0.145309 0)
(3.71715 -0.137183 0)
(3.76429 -0.129041 0)
(3.80734 -0.120667 0)
(3.84639 -0.111693 0)
(3.88246 -0.101664 0)
(3.91298 -0.0889993 0)
(3.58832 -0.11451 0)
(3.55089 -0.190588 0)
(3.56321 -0.2159 0)
(3.60679 -0.225327 0)
(3.65876 -0.225018 0)
(3.71445 -0.219972 0)
(3.77143 -0.2127 0)
(3.82739 -0.204244 0)
(3.88114 -0.195235 0)
(3.93214 -0.186056 0)
(3.98009 -0.176898 0)
(4.02485 -0.167822 0)
(4.06639 -0.158796 0)
(4.10474 -0.149705 0)
(4.14004 -0.140353 0)
(4.17232 -0.130433 0)
(4.20267 -0.11955 0)
(4.22802 -0.106672 0)
(4.1988 -0.101769 0)
(4.15397 -0.187081 0)
(4.13919 -0.220715 0)
(4.15219 -0.236321 0)
(4.1767 -0.240153 0)
(4.20779 -0.237409 0)
(4.24284 -0.23138 0)
(4.27937 -0.223538 0)
(4.31587 -0.214715 0)
(4.3515 -0.20543 0)
(4.38574 -0.195961 0)
(4.41824 -0.186427 0)
(4.44882 -0.176839 0)
(4.47738 -0.167115 0)
(4.50398 -0.157101 0)
(4.52856 -0.146562 0)
(4.55222 -0.135204 0)
(4.57138 -0.122396 0)
(4.82185 -0.0878119 0)
(4.77662 -0.176883 0)
(4.7439 -0.216854 0)
(4.73191 -0.237842 0)
(4.73179 -0.246141 0)
(4.73957 -0.246426 0)
(4.75306 -0.242352 0)
(4.77001 -0.235775 0)
(4.78883 -0.227724 0)
(4.8085 -0.218851 0)
(4.82834 -0.209533 0)
(4.84786 -0.199959 0)
(4.86674 -0.190191 0)
(4.88477 -0.180197 0)
(4.90191 -0.169875 0)
(4.91805 -0.159071 0)
(4.93422 -0.147601 0)
(4.94632 -0.135121 0)
(5.45146 -0.0741126 0)
(5.4095 -0.162019 0)
(5.36682 -0.20584 0)
(5.33654 -0.230661 0)
(5.31636 -0.242918 0)
(5.30385 -0.246439 0)
(5.29762 -0.244754 0)
(5.29603 -0.239938 0)
(5.29769 -0.233167 0)
(5.30159 -0.225193 0)
(5.30699 -0.216482 0)
(5.31333 -0.207294 0)
(5.3202 -0.197748 0)
(5.32733 -0.187868 0)
(5.33458 -0.177613 0)
(5.34177 -0.166906 0)
(5.34989 -0.155671 0)
(5.35431 -0.143758 0)
(6.08167 -0.0613984 0)
(6.04411 -0.144181 0)
(5.99714 -0.189333 0)
(5.95494 -0.216178 0)
(5.92006 -0.231267 0)
(5.89157 -0.237646 0)
(5.86884 -0.238367 0)
(5.85101 -0.235523 0)
(5.83714 -0.230347 0)
(5.82638 -0.223635 0)
(5.81809 -0.215909 0)
(5.81172 -0.207484 0)
(5.80686 -0.198534 0)
(5.80318 -0.189139 0)
(5.80053 -0.179315 0)
(5.79863 -0.16905 0)
(5.79845 -0.158368 0)
(5.79491 -0.147246 0)
(6.65461 -0.0506069 0)
(6.62055 -0.126207 0)
(6.57304 -0.170587 0)
(6.52478 -0.197775 0)
(6.48114 -0.214236 0)
(6.44232 -0.222495 0)
(6.40816 -0.225051 0)
(6.37844 -0.223873 0)
(6.35266 -0.220181 0)
(6.33031 -0.214756 0)
(6.31088 -0.208126 0)
(6.29394 -0.200635 0)
(6.27913 -0.192492 0)
(6.26616 -0.183814 0)
(6.25485 -0.174663 0)
(6.24491 -0.165078 0)
(6.23729 -0.155121 0)
(6.22652 -0.144964 0)
(7.20973 -0.0406598 0)
(7.18016 -0.107395 0)
(7.13447 -0.149611 0)
(7.08343 -0.176143 0)
(7.03445 -0.192982 0)
(6.98882 -0.202362 0)
(6.94661 -0.206243 0)
(6.908 -0.206398 0)
(6.87293 -0.204 0)
(6.8412 -0.199791 0)
(6.8125 -0.194275 0)
(6.78656 -0.187798 0)
(6.76311 -0.180584 0)
(6.74191 -0.172776 0)
(6.72283 -0.164467 0)
(6.70557 -0.155735 0)
(6.69103 -0.146649 0)
(6.67361 -0.137595 0)
(7.81811 -0.0310712 0)
(7.79338 -0.0861306 0)
(7.75173 -0.123849 0)
(7.70083 -0.148308 0)
(7.64927 -0.164347 0)
(7.59955 -0.17398 0)
(7.552 -0.178635 0)
(7.50699 -0.179755 0)
(7.46483 -0.178424 0)
(7.42558 -0.175331 0)
(7.38917 -0.170936 0)
(7.35547 -0.165561 0)
(7.32435 -0.159429 0)
(7.29568 -0.152692 0)
(7.26936 -0.145461 0)
(7.24515 -0.137831 0)
(7.22388 -0.129897 0)
(7.20007 -0.122125 0)
(8.45855 -0.0222976 0)
(8.43893 -0.0637705 0)
(8.40342 -0.0942574 0)
(8.3561 -0.114678 0)
(8.30536 -0.128325 0)
(8.25484 -0.136936 0)
(8.20528 -0.141482 0)
(8.15716 -0.142962 0)
(8.11103 -0.142255 0)
(8.06722 -0.139961 0)
(8.02583 -0.136481 0)
(7.98688 -0.132097 0)
(7.95034 -0.127017 0)
(7.91617 -0.121392 0)
(7.88436 -0.115334 0)
(7.8547 -0.108946 0)
(7.82798 -0.102323 0)
(7.79911 -0.0959542 0)
(9.08866 -0.0143735 0)
(9.07383 -0.0417431 0)
(9.04561 -0.0628558 0)
(9.00497 -0.0772049 0)
(8.95897 -0.0866362 0)
(8.91168 -0.0925202 0)
(8.8642 -0.0955486 0)
(8.81708 -0.0963324 0)
(8.77098 -0.0954657 0)
(8.72647 -0.0933954 0)
(8.68381 -0.0904188 0)
(8.64315 -0.0867459 0)
(8.60456 -0.0825374 0)
(8.56807 -0.0779178 0)
(8.53372 -0.0729887 0)
(8.50137 -0.0678455 0)
(8.47174 -0.0625573 0)
(8.4405 -0.0576319 0)
(9.63295 -0.00707591 0)
(9.6217 -0.0207153 0)
(9.59988 -0.0314109 0)
(9.5666 -0.0383994 0)
(9.52747 -0.0424423 0)
(9.48645 -0.044371 0)
(9.44473 -0.0446362 0)
(9.40276 -0.0435766 0)
(9.36113 -0.0415352 0)
(9.32042 -0.0387954 0)
(9.28098 -0.0355528 0)
(9.24301 -0.0319448 0)
(9.20664 -0.0280789 0)
(9.17196 -0.0240462 0)
(9.13904 -0.0199198 0)
(9.10778 -0.0157802 0)
(9.07876 -0.0116415 0)
(9.04897 -0.00799743 0)
(9.96404 0.000104867 0)
(9.95459 0.000155483 0)
(9.93649 0.000610518 0)
(9.90812 0.00185233 0)
(9.87423 0.00379294 0)
(9.83859 0.00624096 0)
(9.80247 0.00909198 0)
(9.76622 0.0122743 0)
(9.7303 0.0157039 0)
(9.6952 0.0193 0)
(9.66123 0.0229999 0)
(9.62855 0.026754 0)
(9.59722 0.0305165 0)
(9.56729 0.0342392 0)
(9.53877 0.03788 0)
(9.51163 0.041375 0)
(9.48602 0.044749 0)
(9.46096 0.0475865 0)
(9.87499 0.00747148 0)
(9.86688 0.0217922 0)
(9.84987 0.0342024 0)
(9.82249 0.0443991 0)
(9.78959 0.0528066 0)
(9.75498 0.0599072 0)
(9.71993 0.0659979 0)
(9.68483 0.0712939 0)
(9.65014 0.075992 0)
(9.61637 0.0802512 0)
(9.58381 0.0841793 0)
(9.55263 0.0878444 0)
(9.52288 0.0912889 0)
(9.49457 0.0945359 0)
(9.46769 0.0975943 0)
(9.44225 0.100446 0)
(9.41797 0.103128 0)
(9.39591 0.105359 0)
(9.28437 0.0159169 0)
(9.27065 0.0461929 0)
(9.24578 0.0711751 0)
(9.2098 0.0903954 0)
(9.16896 0.105213 0)
(9.12725 0.116831 0)
(9.08575 0.12593 0)
(9.04487 0.133053 0)
(9.00515 0.138713 0)
(8.96708 0.143314 0)
(8.93092 0.147134 0)
(8.89676 0.150364 0)
(8.8646 0.153143 0)
(8.83442 0.15557 0)
(8.80612 0.157717 0)
(8.77969 0.159632 0)
(8.75464 0.161365 0)
(8.73296 0.162771 0)
(8.47101 0.0260891 0)
(8.45236 0.0738047 0)
(8.4197 0.110342 0)
(8.37625 0.136875 0)
(8.32995 0.156523 0)
(8.28453 0.171132 0)
(8.24068 0.181737 0)
(8.19874 0.189295 0)
(8.15917 0.194666 0)
(8.12227 0.198476 0)
(8.08809 0.201151 0)
(8.05655 0.203 0)
(8.02754 0.204251 0)
(8.00091 0.205075 0)
(7.9765 0.205598 0)
(7.95419 0.205917 0)
(7.93347 0.206091 0)
(7.91637 0.206077 0)
(7.51239 0.0385226 0)
(7.4866 0.104501 0)
(7.44644 0.150224 0)
(7.39953 0.181352 0)
(7.35393 0.203329 0)
(7.3118 0.218455 0)
(7.27312 0.228256 0)
(7.23799 0.234272 0)
(7.20652 0.237715 0)
(7.17857 0.239387 0)
(7.1539 0.239827 0)
(7.1322 0.239429 0)
(7.11318 0.238476 0)
(7.09657 0.237171 0)
(7.0821 0.235657 0)
(7.06957 0.234041 0)
(7.05847 0.23238 0)
(7.05053 0.230697 0)
(6.48931 0.0542245 0)
(6.45655 0.136901 0)
(6.41294 0.186947 0)
(6.37062 0.21855 0)
(6.33486 0.239385 0)
(6.30523 0.252033 0)
(6.28101 0.258734 0)
(6.26177 0.26157 0)
(6.24695 0.261928 0)
(6.23586 0.260663 0)
(6.2279 0.258356 0)
(6.22255 0.255418 0)
(6.21936 0.252135 0)
(6.21798 0.248698 0)
(6.21806 0.245235 0)
(6.21938 0.241837 0)
(6.2215 0.238549 0)
(6.22581 0.235426 0)
(5.45712 0.0733892 0)
(5.41829 0.166488 0)
(5.37867 0.214114 0)
(5.35275 0.241939 0)
(5.33861 0.258326 0)
(5.33243 0.266082 0)
(5.33266 0.268256 0)
(5.33802 0.267178 0)
(5.34715 0.264164 0)
(5.35896 0.259996 0)
(5.37266 0.255208 0)
(5.38768 0.250153 0)
(5.40358 0.245056 0)
(5.42002 0.240057 0)
(5.43672 0.23524 0)
(5.45354 0.230659 0)
(5.47014 0.226335 0)
(5.48765 0.222332 0)
(4.45282 0.094777 0)
(4.41205 0.18741 0)
(4.39047 0.225932 0)
(4.39658 0.246391 0)
(4.41646 0.255914 0)
(4.44332 0.257816 0)
(4.47522 0.255567 0)
(4.51029 0.25118 0)
(4.54684 0.245636 0)
(4.5838 0.239531 0)
(4.62056 0.233261 0)
(4.65671 0.22707 0)
(4.69195 0.221095 0)
(4.72611 0.215416 0)
(4.7591 0.210068 0)
(4.79087 0.205069 0)
(4.82127 0.200419 0)
(4.85124 0.196182 0)
(3.50293 0.114452 0)
(3.47301 0.19292 0)
(3.48912 0.217646 0)
(3.54118 0.228884 0)
(3.60258 0.231459 0)
(3.66646 0.228824 0)
(3.73174 0.223819 0)
(3.79669 0.217709 0)
(3.85992 0.211098 0)
(3.92078 0.204385 0)
(3.97901 0.197823 0)
(4.0345 0.191553 0)
(4.0872 0.185645 0)
(4.13719 0.180127 0)
(4.18454 0.175003 0)
(4.22941 0.170263 0)
(4.27178 0.165893 0)
(4.3125 0.161967 0)
(2.62982 0.122983 0)
(2.63207 0.176388 0)
(2.70177 0.187968 0)
(2.80469 0.191083 0)
(2.90732 0.18911 0)
(3.00602 0.184591 0)
(3.10158 0.178917 0)
(3.19301 0.172733 0)
(3.27948 0.166439 0)
(3.36086 0.160291 0)
(3.43729 0.154433 0)
(3.50899 0.148939 0)
(3.57619 0.143835 0)
(3.6392 0.13912 0)
(3.6983 0.134779 0)
(3.75378 0.13079 0)
(3.80582 0.127131 0)
(3.85519 0.123895 0)
(1.85178 0.104826 0)
(1.90638 0.134438 0)
(2.03033 0.141897 0)
(2.17812 0.140513 0)
(2.31585 0.137036 0)
(2.44341 0.13292 0)
(2.56364 0.128101 0)
(2.67646 0.122989 0)
(2.78152 0.117942 0)
(2.87912 0.113115 0)
(2.96979 0.108581 0)
(3.05405 0.104374 0)
(3.1324 0.100501 0)
(3.20534 0.0969475 0)
(3.27332 0.0936936 0)
(3.3368 0.0907157 0)
(3.39607 0.0879784 0)
(3.45188 0.0855888 0)
(1.17533 0.04169 0)
(1.28238 0.0661056 0)
(1.43868 0.0889867 0)
(1.61658 0.0891769 0)
(1.78033 0.0862299 0)
(1.92914 0.083331 0)
(2.0674 0.0798336 0)
(2.19582 0.0761173 0)
(2.31429 0.0725276 0)
(2.42341 0.0691489 0)
(2.52403 0.0660064 0)
(2.61695 0.0631158 0)
(2.70288 0.0604737 0)
(2.78248 0.0580638 0)
(2.85633 0.0558658 0)
(2.92501 0.0538626 0)
(2.98891 0.0519926 0)
(3.04877 0.0503551 0)
(0.469485 0.226529 0)
(0.642364 0.069163 0)
(0.788937 0.0480257 0)
(0.972451 0.0444102 0)
(1.14912 0.0429719 0)
(1.30915 0.0416791 0)
(1.45686 0.0396462 0)
(1.59323 0.0373309 0)
(1.71806 0.0351128 0)
(1.83211 0.0330648 0)
(1.93655 0.0311826 0)
(2.03239 0.0294642 0)
(2.12053 0.0279029 0)
(2.20174 0.0264859 0)
(2.27672 0.0251973 0)
(2.34612 0.02403 0)
(2.41043 0.0229309 0)
(2.46998 0.0219786 0)
(0.00863115 -0.0179143 -2.69145e-20)
(0.027415 -0.0294728 2.62688e-20)
(0.046761 -0.0302967 0)
(0.0628202 -0.0254246 0)
(0.0732615 -0.0177748 0)
(0.0779198 -0.00923656 -2.46609e-20)
(0.0766245 -0.00120007 0)
(0.0704257 0.00526226 0)
(0.0605283 0.00977409 0)
(0.0477876 0.0126288 0)
(0.0328062 0.0144428 2.41272e-20)
(0.0158944 0.0158096 0)
(-0.00288901 0.0171477 0)
(-0.0236543 0.0187274 0)
(-0.0466192 0.020684 0)
(-0.072007 0.0230357 2.2791e-20)
(-0.100003 0.0257336 0)
(-0.130741 0.0286968 0)
(-0.164284 0.0318286 0)
(-0.200619 0.0350215 0)
(-0.23966 0.0381634 0)
(-0.281243 0.0411443 0)
(-0.325143 0.043865 0)
(-0.371079 0.0462432 1.93955e-20)
(-0.418733 0.0482181 -1.90102e-20)
(-0.467762 0.049753 1.86412e-20)
(-0.517813 0.0508349 1.82899e-20)
(-0.568547 0.0514742 0)
(-0.619647 0.0517046 0)
(-0.670814 0.0515814 -1.73451e-20)
(-0.721752 0.051172 -1.70648e-20)
(-0.772295 0.0505408 0)
(-0.822289 0.0497231 0)
(-0.871579 0.048747 -1.63158e-20)
(-0.920049 0.0476444 0)
(-0.967603 0.0464452 0)
(-1.01417 0.0451759 1.56837e-20)
(-1.05969 0.0438594 0)
(-1.10413 0.0425143 1.53122e-20)
(-1.14746 0.0411556 3.02764e-20)
(-1.18967 0.0397948 0)
(-1.23074 0.0384405 0)
(-1.27068 0.0370986 0)
(-1.30947 0.035773 0)
(-1.34713 0.0344659 0)
(-1.38366 0.0331785 2.84102e-20)
(-1.41906 0.0319108 2.81229e-20)
(-1.45333 0.0306622 2.78391e-20)
(-1.48648 0.0294319 0)
(-1.51851 0.0282186 -2.72787e-20)
(-1.54942 0.0270212 0)
(-1.5792 0.0258382 2.67221e-20)
(-1.60786 0.0246685 2.64433e-20)
(-1.63539 0.0235109 0)
(-1.66179 0.0223646 0)
(-1.68705 0.0212286 0)
(-1.71116 0.0201022 2.53097e-20)
(-1.73412 0.0189848 0)
(-1.75593 0.0178757 0)
(-1.77657 0.0167745 0)
(-1.79603 0.0156803 0)
(-1.81432 0.0145924 0)
(-1.83142 0.0135097 0)
(-1.84732 0.0124305 0)
(-1.86201 0.011353 0)
(-1.87549 0.0102743 -2.25188e-20)
(-1.88775 0.00919122 0)
(-1.89876 0.00809973 0)
(-1.90852 0.00699488 2.14815e-20)
(-1.91699 0.0058716 2.1122e-20)
(-1.92416 0.00472658 0)
(-1.92999 0.00356356 -2.03824e-20)
(-1.93445 0.00240229 2.00024e-20)
(-1.93747 0.00128271 0)
(-1.939 0.000254225 -1.92193e-20)
(-1.93924 -0.000640265 0)
(-1.9384 -0.00142921 0)
(-1.93645 -0.00217295 1.79767e-20)
(-1.93343 -0.00289069 0)
(-1.92934 -0.00359077 -1.7107e-20)
(-1.9242 -0.00427636 0)
(-1.91801 -0.00494874 1.6204e-20)
(-1.91078 -0.00560839 1.57403e-20)
(-1.90252 -0.00625539 1.52684e-20)
(-1.89322 -0.00688972 2.9577e-20)
(-1.88291 -0.00751129 -2.86013e-20)
(-1.87158 -0.00811998 0)
(-1.85924 -0.00871571 0)
(-1.8459 -0.00929838 0)
(-1.83157 -0.00986793 -2.45457e-20)
(-1.81626 -0.0104243 -2.3495e-20)
(-1.79997 -0.0109675 2.24304e-20)
(-1.78273 -0.0114974 0)
(-1.76454 -0.0120141 -2.02607e-20)
(-1.7454 -0.0125176 -1.91566e-20)
(-1.72534 -0.0130078 -1.80401e-20)
(-1.70436 -0.0134847 0)
(-1.68248 -0.0139484 0)
(-1.65971 -0.0143988 0)
(-1.63606 -0.014836 -1.34616e-20)
(-1.61154 -0.0152599 0)
(-1.58618 -0.0156705 0)
(-1.55997 -0.0160679 9.92459e-21)
(-1.53295 -0.016452 0)
(-1.50511 -0.0168228 0)
(-1.47649 -0.0171803 6.31735e-21)
(-1.44708 -0.0175244 0)
(-1.41692 -0.0178551 0)
(-1.38602 -0.0181723 -2.65781e-21)
(-1.35439 -0.0184759 -1.42965e-21)
(-1.32205 -0.0187659 0)
(-1.28902 -0.0190422 -1.03467e-21)
(-1.25532 -0.0193048 0)
(-1.22097 -0.0195534 3.50446e-21)
(-1.18598 -0.0197881 0)
(-1.15039 -0.0200087 5.97333e-21)
(-1.1142 -0.0202151 7.20536e-21)
(-1.07745 -0.0204073 0)
(-1.04015 -0.0205852 0)
(-1.00232 -0.0207486 0)
(-0.963997 -0.0208975 0)
(-0.925195 -0.0210318 0)
(-0.885939 -0.0211515 0)
(-0.846255 -0.0212566 0)
(-0.806168 -0.021347 1.68921e-20)
(-0.765704 -0.0214226 -1.80688e-20)
(-0.724888 -0.0214835 0)
(-0.683747 -0.0215296 0)
(-0.642308 -0.0215611 0)
(-0.600598 -0.0215779 0)
(-0.558643 -0.0215802 -4.75585e-20)
(-0.516472 -0.0215678 0)
(-0.474112 -0.021541 5.19345e-20)
(-0.431592 -0.0214996 -5.40751e-20)
(-0.38894 -0.0214439 0)
(-0.346185 -0.0213736 0)
(-0.303356 -0.0212887 0)
(-0.260482 -0.0211887 6.22876e-20)
(-0.217596 -0.0210735 6.42467e-20)
(-0.174729 -0.0209412 0)
(-0.131914 -0.0207882 6.80438e-20)
(-0.0891846 -0.0206123 6.988e-20)
(-0.0465706 -0.0204104 -7.16739e-20)
(-0.00410098 -0.0201564 0)
(0.0381351 -0.0198146 0)
(0.0801439 -0.0194332 -7.50236e-20)
(0.12191 -0.0190562 0)
(0.163417 -0.0186887 0)
(0.204656 -0.0183279 0)
(0.24562 -0.0179715 0)
(0.2863 -0.0176182 7.78582e-20)
(0.326684 -0.0172671 7.82807e-20)
(0.366763 -0.0169182 0)
(0.406524 -0.0165715 7.89971e-20)
(0.445957 -0.0162272 0)
(0.485052 -0.0158856 0)
(0.5238 -0.0155472 7.97767e-20)
(0.562194 -0.0152123 0)
(0.600227 -0.0148813 8.01193e-20)
(0.637893 -0.0145546 0)
(0.675189 -0.0142326 0)
(0.712111 -0.0139154 8.03974e-20)
(0.748656 -0.0136031 0)
(0.784823 -0.0132957 8.04415e-20)
(0.820607 -0.0129929 0)
(0.856006 -0.0126941 0)
(0.891014 -0.012398 0)
(0.925621 -0.012103 -8.02352e-20)
(0.95981 -0.0118062 0)
(0.993554 -0.0115033 8.00059e-20)
(1.02681 -0.0111877 0)
(1.0595 -0.0108488 0)
(1.09152 -0.0104692 0)
(1.12267 -0.0100199 0)
(1.15265 -0.00944323 0)
(1.18074 -0.00863219 0)
(1.20623 -0.00726512 0)
(1.22447 -0.00456496 -1.58117e-19)
(1.2383 0.00258903 0)
(1.19228 0.0177061 0)
(0.00986272 -0.0579352 7.93401e-20)
(0.0223283 -0.0628408 -7.49895e-20)
(0.0268212 -0.0481046 0)
(0.0261823 -0.0306149 4.46946e-20)
(0.0213997 -0.0132948 0)
(0.0130736 0.00280389 2.11552e-20)
(0.00185949 0.0169865 -4.15336e-20)
(-0.0123143 0.0288675 -4.07831e-20)
(-0.0295582 0.0385285 0)
(-0.0499117 0.046462 -3.92157e-20)
(-0.0733835 0.0533237 -1.92531e-20)
(-0.0999473 0.0597122 0)
(-0.129547 0.0660479 0)
(-0.162098 0.0725625 0)
(-0.197486 0.0793312 0)
(-0.235569 0.086301 -1.73422e-20)
(-0.276163 0.0933333 0)
(-0.319039 0.100246 3.30882e-20)
(-0.363917 0.106842 0)
(-0.410477 0.112933 0)
(-0.458368 0.118352 -3.09466e-20)
(-0.507228 0.122965 0)
(-0.556694 0.12668 2.96341e-20)
(-0.60642 0.129445 -1.45528e-20)
(-0.65609 0.131251 1.42598e-20)
(-0.705422 0.132128 -1.39827e-20)
(-0.754179 0.132135 -1.37214e-20)
(-0.802171 0.131357 0)
(-0.849248 0.129896 0)
(-0.895303 0.127867 1.30292e-20)
(-0.940253 0.125392 -1.27578e-20)
(-0.984041 0.122576 0)
(-1.02663 0.119498 0)
(-1.068 0.116228 1.2285e-20)
(-1.10815 0.112824 0)
(-1.14709 0.109338 0)
(-1.18485 0.105811 -1.18239e-20)
(-1.22144 0.102276 0)
(-1.2569 0.0987602 1.14779e-20)
(-1.29126 0.095281 -2.28392e-20)
(-1.32452 0.0918519 0)
(-1.35672 0.0884814 0)
(-1.38789 0.085174 -4.40686e-20)
(-1.41803 0.0819313 -4.36038e-20)
(-1.44715 0.0787527 -4.31477e-20)
(-1.47529 0.0756363 2.12795e-20)
(-1.50243 0.0725789 -2.11964e-20)
(-1.5286 0.0695769 -6.27917e-20)
(-1.55379 0.0666263 4.13799e-20)
(-1.578 0.0637234 2.05367e-20)
(-1.60124 0.0608642 0)
(-1.62351 0.0580455 -2.00982e-20)
(-1.6448 0.055264 1.97622e-20)
(-1.66512 0.0525172 0)
(-1.68445 0.0498027 0)
(-1.70279 0.0471189 0)
(-1.72014 0.0444641 -1.89787e-20)
(-1.73649 0.0418375 0)
(-1.75184 0.039238 3.69457e-20)
(-1.76619 0.0366653 0)
(-1.77951 0.0341188 3.60018e-20)
(-1.79182 0.0315983 0)
(-1.80311 0.0291035 -3.50278e-20)
(-1.81336 0.0266338 0)
(-1.82259 0.0241887 3.40202e-20)
(-1.83078 0.0217673 -1.67356e-20)
(-1.83793 0.0193682 0)
(-1.84406 0.01699 -3.24404e-20)
(-1.84916 0.0146309 -1.59515e-20)
(-1.85324 0.0122888 -1.56696e-20)
(-1.85633 0.00996146 0)
(-1.85845 0.00764914 -1.51061e-20)
(-1.85967 0.00536344 -1.47941e-20)
(-1.86005 0.00313752 0)
(-1.85968 0.00101759 1.41804e-20)
(-1.85844 -0.000975142 -2.77701e-20)
(-1.85618 -0.00286513 0)
(-1.85291 -0.00468963 -1.32167e-20)
(-1.84862 -0.00646409 0)
(-1.8433 -0.00819684 3.7717e-20)
(-1.83694 -0.00989127 0)
(-1.82956 -0.0115487 -3.56645e-20)
(-1.82116 -0.0131695 -1.15065e-20)
(-1.81174 -0.0147534 1.12523e-20)
(-1.8013 -0.0163003 2.17948e-20)
(-1.78986 -0.0178098 -2.1075e-20)
(-1.77742 -0.0192815 0)
(-1.76398 -0.0207152 0)
(-1.74956 -0.0221107 0)
(-1.73417 -0.0234677 5.37151e-20)
(-1.71781 -0.0247863 1.70274e-20)
(-1.70048 -0.0260664 -1.6239e-20)
(-1.68222 -0.0273079 0)
(-1.66301 -0.0285109 -1.49832e-20)
(-1.64288 -0.0296755 1.38266e-20)
(-1.62183 -0.0308018 1.30079e-20)
(-1.59987 -0.0318898 0)
(-1.57703 -0.0329397 0)
(-1.5533 -0.0339516 0)
(-1.52871 -0.0349255 9.66898e-21)
(-1.50327 -0.0358618 0)
(-1.47698 -0.0367604 -1.63672e-20)
(-1.44987 -0.0376217 -2.17694e-20)
(-1.42194 -0.0384456 1.29461e-20)
(-1.39322 -0.0392325 0)
(-1.36372 -0.0399823 4.98258e-21)
(-1.33345 -0.0406952 0)
(-1.30243 -0.0413712 6.02249e-21)
(-1.27067 -0.0420105 -2.38628e-21)
(-1.2382 -0.0426131 -1.5171e-21)
(-1.20504 -0.0431792 0)
(-1.17119 -0.0437086 1.69482e-21)
(-1.13668 -0.0442017 -2.70651e-21)
(-1.10153 -0.0446583 -2.4872e-21)
(-1.06576 -0.0450787 0)
(-1.02938 -0.0454627 -4.23326e-21)
(-0.992422 -0.0458105 -1.47738e-20)
(-0.954905 -0.0461222 0)
(-0.916851 -0.0463979 -1.31239e-20)
(-0.878282 -0.0466377 -1.48394e-20)
(-0.83922 -0.0468418 -1.65461e-20)
(-0.799691 -0.0470104 0)
(-0.759717 -0.0471436 0)
(-0.719324 -0.0472417 0)
(-0.678536 -0.047305 1.13578e-20)
(-0.63738 -0.0473338 1.27298e-20)
(-0.59588 -0.0473285 0)
(-0.554063 -0.0472894 2.81596e-20)
(-0.511957 -0.0472169 2.97587e-20)
(-0.469586 -0.0471116 0)
(-0.42698 -0.0469738 3.3443e-20)
(-0.384166 -0.0468042 6.88903e-20)
(-0.34117 -0.0466031 -3.65017e-20)
(-0.298021 -0.0463712 -3.6937e-20)
(-0.254747 -0.0461087 0)
(-0.211376 -0.0458161 0)
(-0.167938 -0.0454934 0)
(-0.12446 -0.0451403 -4.37524e-20)
(-0.0809734 -0.0447556 4.41147e-20)
(-0.0375071 -0.0443382 9.19557e-20)
(0.00590815 -0.0438862 -4.7665e-20)
(0.049241 -0.0433988 4.76307e-20)
(0.0924631 -0.0428804 4.94149e-20)
(0.135548 -0.0423337 0)
(0.178468 -0.0417454 0)
(0.221213 -0.0411228 -5.08299e-20)
(0.263761 -0.0404885 0)
(0.306092 -0.0398525 0)
(0.348186 -0.0392163 1.06676e-19)
(0.390029 -0.038579 0)
(0.431608 -0.0379399 5.41605e-20)
(0.472908 -0.0372989 -5.54806e-20)
(0.513917 -0.036656 0)
(0.554624 -0.036012 5.57688e-20)
(0.595018 -0.0353677 0)
(0.635088 -0.0347241 0)
(0.674826 -0.0340822 -5.77614e-20)
(0.714225 -0.0334432 1.15637e-19)
(0.753278 -0.0328081 -5.84804e-20)
(0.79198 -0.0321779 0)
(0.830328 -0.0315535 0)
(0.868317 -0.0309355 5.88136e-20)
(0.905947 -0.0303244 0)
(0.943214 -0.02972 5.93252e-20)
(0.980117 -0.029122 0)
(1.01665 -0.0285289 0)
(1.05281 -0.0279383 0)
(1.08859 -0.0273461 6.05496e-20)
(1.12398 -0.0267459 0)
(1.15893 -0.0261277 -6.07866e-20)
(1.19342 -0.025476 0)
(1.22737 -0.0247662 0)
(1.26068 -0.0239578 1.21681e-19)
(1.29315 -0.0229829 -1.21829e-19)
(1.32452 -0.0217114 0)
(1.3542 -0.0199012 0)
(1.38159 -0.0169162 0)
(1.40397 -0.0115761 3.69147e-19)
(1.42395 0.000753148 0)
(1.42635 0.0256144 -2.49709e-19)
(0.00351487 -0.0797878 -9.82708e-23)
(0.00244996 -0.0636409 9.64452e-20)
(-0.00541745 -0.0368783 0)
(-0.0161245 -0.0118413 -8.11165e-20)
(-0.0294403 0.0110831 0)
(-0.0450589 0.0319012 0)
(-0.0628987 0.0506816 3.74252e-23)
(-0.0830336 0.0674908 3.45702e-20)
(-0.105622 0.0824809 3.3723e-20)
(-0.130815 0.0959634 3.30105e-20)
(-0.158687 0.108354 0)
(-0.18921 0.120055 0)
(-0.222258 0.131357 -3.08099e-20)
(-0.257624 0.142395 -6.02133e-20)
(-0.29504 0.153158 5.88255e-20)
(-0.334198 0.163525 0)
(-0.374766 0.17331 5.61213e-20)
(-0.416403 0.182299 -2.74329e-20)
(-0.45877 0.190287 0)
(-0.501544 0.197099 5.23042e-20)
(-0.544431 0.202604 2.55665e-20)
(-0.587172 0.206728 -4.99615e-20)
(-0.629552 0.20945 -2.44321e-20)
(-0.671401 0.210802 0)
(-0.712592 0.210859 4.67975e-20)
(-0.753037 0.209735 4.58394e-20)
(-0.792684 0.207564 0)
(-0.831504 0.204498 4.40643e-20)
(-0.869489 0.200692 0)
(-0.906643 0.196298 4.24668e-20)
(-0.942972 0.191458 2.08701e-20)
(-0.978485 0.186293 0)
(-1.01319 0.180907 0)
(-1.04711 0.175384 0)
(-1.08024 0.169792 0)
(-1.11261 0.164186 0)
(-1.14423 0.158608 0)
(-1.1751 0.15309 3.74639e-20)
(-1.20523 0.147653 -5.54631e-20)
(-1.23462 0.14231 0)
(-1.26328 0.137071 0)
(-1.2912 0.131937 0)
(-1.31839 0.12691 7.82858e-23)
(-1.34483 0.121984 3.47223e-20)
(-1.37052 0.117156 6.8512e-20)
(-1.39546 0.112419 -6.76757e-20)
(-1.41963 0.107768 -3.33853e-20)
(-1.44302 0.103195 3.30621e-20)
(-1.46563 0.0986943 -8.1469e-23)
(-1.48745 0.0942597 3.21823e-20)
(-1.50846 0.0898858 0)
(-1.52865 0.0855679 3.13962e-20)
(-1.548 0.0813018 -7.40801e-23)
(-1.56652 0.0770842 0)
(-1.58418 0.0729123 0)
(-1.60097 0.068784 -2.98324e-20)
(-1.61688 0.0646979 0)
(-1.6319 0.0606531 0)
(-1.64602 0.0566489 2.85927e-20)
(-1.65923 0.0526854 5.64902e-20)
(-1.67152 0.0487626 -2.78852e-20)
(-1.68287 0.0448811 0)
(-1.69329 0.0410416 2.70549e-20)
(-1.70276 0.0372448 0)
(-1.71128 0.0334918 2.61561e-20)
(-1.71884 0.0297839 2.57737e-20)
(-1.72545 0.0261226 -5.06433e-20)
(-1.7311 0.0225101 -2.48746e-20)
(-1.7358 0.0189498 0)
(-1.73955 0.0154468 4.79821e-20)
(-1.74237 0.0120084 0)
(-1.74426 0.00864494 6.92122e-20)
(-1.74523 0.00536952 4.52155e-20)
(-1.74529 0.00219362 4.42564e-20)
(-1.74441 -0.000882893 -4.3279e-20)
(-1.74257 -0.00388337 6.34019e-20)
(-1.73974 -0.00682453 0)
(-1.73591 -0.00970654 0)
(-1.73109 -0.0125301 -3.92551e-20)
(-1.72527 -0.0152953 -5.72665e-20)
(-1.71845 -0.0180022 0)
(-1.71064 -0.0206502 1.79804e-20)
(-1.70184 -0.0232387 0)
(-1.69205 -0.0257671 -5.08181e-20)
(-1.68127 -0.0282346 1.72784e-22)
(-1.66952 -0.0306405 -1.83528e-22)
(-1.6568 -0.0329844 3.05868e-20)
(-1.64312 -0.0352657 0)
(-1.62848 -0.037484 -2.82966e-20)
(-1.61289 -0.0396391 2.24927e-22)
(-1.59636 -0.0417308 0)
(-1.57889 -0.0437591 0)
(-1.56051 -0.0457239 0)
(-1.54121 -0.0476254 2.21185e-20)
(-1.52102 -0.0494635 0)
(-1.49993 -0.0512386 0)
(-1.47796 -0.0529507 0)
(-1.45512 -0.0546002 0)
(-1.43142 -0.0561871 0)
(-1.40688 -0.0577117 1.49882e-20)
(-1.38151 -0.0591742 0)
(-1.35532 -0.060575 1.21399e-20)
(-1.32832 -0.0619144 1.08657e-20)
(-1.30053 -0.0631925 -9.58746e-21)
(-1.27197 -0.0644097 0)
(-1.24264 -0.0655662 -7.02138e-21)
(-1.21257 -0.0666622 0)
(-1.18176 -0.0676979 -4.44682e-21)
(-1.15024 -0.0686735 3.15801e-21)
(-1.11802 -0.0695891 6.36381e-21)
(-1.08513 -0.0704449 0)
(-1.05156 -0.0712412 -1.34409e-21)
(-1.01736 -0.0719781 -1.20811e-21)
(-0.982527 -0.0726557 0)
(-0.947089 -0.0732743 -8.30822e-21)
(-0.911064 -0.073834 -1.0852e-20)
(-0.874473 -0.074335 2.04855e-20)
(-0.837337 -0.0747775 0)
(-0.799678 -0.0751619 9.62212e-21)
(-0.761517 -0.0754884 1.08739e-20)
(-0.722878 -0.0757573 3.55274e-20)
(-0.683783 -0.075969 0)
(-0.644255 -0.076124 0)
(-0.60432 -0.0762228 0)
(-0.564002 -0.0762659 1.61726e-20)
(-0.523325 -0.0762539 0)
(-0.482316 -0.0761874 0)
(-0.440999 -0.0760673 -2.05588e-20)
(-0.3994 -0.0758942 -2.17185e-20)
(-0.357547 -0.0756691 0)
(-0.315466 -0.0753929 0)
(-0.273183 -0.0750664 -5.023e-20)
(-0.230726 -0.0746906 0)
(-0.188121 -0.0742664 5.46105e-20)
(-0.145396 -0.0737945 5.59502e-20)
(-0.102579 -0.0732757 0)
(-0.0596977 -0.0727102 0)
(-0.0167791 -0.0720986 -6.21758e-20)
(0.0261485 -0.0714411 -7.71781e-22)
(0.0690569 -0.0707373 -7.58549e-22)
(0.111918 -0.0699869 0)
(0.154706 -0.0691912 -1.37576e-19)
(0.197394 -0.0683549 0)
(0.239963 -0.067486 0)
(0.282404 -0.0665893 0)
(0.3247 -0.0656665 7.44505e-20)
(0.366826 -0.0647252 0)
(0.408758 -0.0637724 -1.52467e-19)
(0.450472 -0.0628111 -7.80327e-20)
(0.49195 -0.0618422 0)
(0.533175 -0.0608665 -8.02001e-20)
(0.574133 -0.0598846 0)
(0.61481 -0.0588977 0)
(0.655193 -0.057907 -2.48267e-19)
(0.695272 -0.0569141 1.66954e-19)
(0.735037 -0.0559209 0)
(0.77448 -0.0549291 1.7035e-19)
(0.813593 -0.0539405 -8.64704e-20)
(0.85237 -0.052957 0)
(0.890806 -0.05198 0)
(0.928899 -0.0510112 0)
(0.966644 -0.0500515 -2.66731e-19)
(1.00404 -0.0491017 0)
(1.04109 -0.0481617 -9.03733e-20)
(1.07778 -0.0472308 0)
(1.11412 -0.0463068 0)
(1.15009 -0.0453859 0)
(1.1857 -0.0444615 0)
(1.22093 -0.0435237 0)
(1.25574 -0.0425564 0)
(1.29011 -0.0415354 -1.86228e-19)
(1.32397 -0.0404222 0)
(1.35721 -0.0391545 -9.41197e-20)
(1.38967 -0.0376289 2.82674e-19)
(1.42112 -0.0356586 0)
(1.4511 -0.0329033 0)
(1.47918 -0.0286202 -1.9049e-19)
(1.50374 -0.0214941 -1.92205e-19)
(1.52686 -0.0077997 1.93618e-19)
(1.54141 0.0183948 1.963e-19)
(-0.00508631 -0.0704581 -1.54669e-19)
(-0.016869 -0.0400199 -1.38856e-19)
(-0.0327595 -0.00790271 -8.16706e-20)
(-0.0501785 0.020989 -3.70041e-20)
(-0.0692487 0.0474146 0)
(-0.0898016 0.071785 6.57099e-20)
(-0.11188 0.0942819 -3.15972e-20)
(-0.135622 0.115017 0)
(-0.161165 0.134127 -2.98892e-20)
(-0.188598 0.151809 0)
(-0.21793 0.168295 5.68538e-20)
(-0.249071 0.183785 0)
(-0.281845 0.198401 2.7096e-20)
(-0.316008 0.212161 5.28783e-20)
(-0.351276 0.22499 -5.15887e-20)
(-0.387348 0.236747 0)
(-0.423928 0.247263 -4.90918e-20)
(-0.46074 0.25637 0)
(-0.49754 0.263934 0)
(-0.534127 0.269863 -4.55944e-20)
(-0.570342 0.274121 0)
(-0.60607 0.276727 -6.43964e-23)
(-0.641238 0.27775 0)
(-0.675807 0.2773 0)
(-0.709764 0.275515 7.08928e-23)
(-0.743117 0.272557 -3.96916e-20)
(-0.775888 0.268594 -3.89245e-20)
(-0.808101 0.263795 -3.80656e-20)
(-0.839786 0.258323 0)
(-0.870964 0.252328 -7.32477e-20)
(-0.901654 0.245944 0)
(-0.931868 0.239286 -3.53119e-20)
(-0.961612 0.23245 0)
(-0.990887 0.225514 0)
(-1.01969 0.21854 3.35359e-20)
(-1.04802 0.211577 0)
(-1.07587 0.204662 -3.24812e-20)
(-1.10322 0.197819 -9.81207e-25)
(-1.13007 0.191068 6.30287e-20)
(-1.15639 0.184418 -6.21075e-20)
(-1.18218 0.177875 0)
(-1.20741 0.17144 0)
(-1.23207 0.16511 -2.97489e-20)
(-1.25613 0.158882 0)
(-1.27959 0.15275 -2.89976e-20)
(-1.30243 0.146707 2.86144e-20)
(-1.32462 0.140746 2.82385e-20)
(-1.34615 0.134862 0)
(-1.367 0.129047 -2.75042e-20)
(-1.38715 0.123297 -2.7144e-20)
(-1.40658 0.117604 5.35189e-20)
(-1.42528 0.111967 -2.64335e-20)
(-1.44323 0.10638 -2.60817e-20)
(-1.46042 0.100841 0)
(-1.47682 0.0953481 0)
(-1.49242 0.0899002 2.50322e-20)
(-1.50721 0.0844966 0)
(-1.52117 0.0791374 0)