/*--------------------------------*- C++ -*----------------------------------*\
| =========                 |                                                 |
| \\      /  F ield         | OpenFOAM: The Open Source CFD Toolbox           |
|  \\    /   O peration     | Version:  2412                                  |
|   \\  /    A nd           | Website:  www.openfoam.com                      |
|    \\/     M anipulation  |                                                 |
\*---------------------------------------------------------------------------*/
FoamFile
{
    version     2.0;
    format      ascii;
    arch        "LSB;label=32;scalar=64";
    class       volScalarField;
    location    "7.75";
    object      p;
}
// * * * * * * * * * * * * * * * * * * * * * * * * * * * * * * * * * * * * * //

dimensions      [0 2 -2 0 0 0 0];

internalField   nonuniform List<scalar> 
2200
(
0.279725
0.279881
0.281107
0.285476
0.296637
0.320545
0.364699
0.440894
0.562767
0.74317
0.946989
1.1175
1.23474
1.30957
1.35334
1.37701
1.3889
1.39399
1.39594
1.39621
0.274201
0.274481
0.276041
0.280825
0.292292
0.316582
0.362168
0.439473
0.561546
0.742024
0.946828
1.11912
1.2365
1.31025
1.35343
1.37641
1.38751
1.39195
1.39328
1.39336
0.265466
0.265666
0.267711
0.273431
0.286208
0.311464
0.357535
0.435272
0.558849
0.743799
0.950935
1.12412
1.24231
1.31578
1.35771
1.37942
1.38923
1.39306
1.39408
1.3943
0.252926
0.252948
0.255321
0.262043
0.276462
0.303839
0.351688
0.431604
0.556818
0.745347
0.955964
1.13222
1.25222
1.32516
1.36571
1.38589
1.39562
1.39973
1.40107
1.40147
0.235853
0.235637
0.237605
0.243672
0.258149
0.287296
0.338909
0.423798
0.554274
0.747605
0.963546
1.14403
1.26473
1.33717
1.37819
1.39902
1.40895
1.41373
1.41549
1.41587
0.215183
0.215439
0.216823
0.220951
0.234203
0.263615
0.317463
0.407057
0.545414
0.748762
0.971866
1.15644
1.27984
1.35559
1.3968
1.41779
1.42875
1.43454
1.43697
1.43735
0.182569
0.18309
0.184477
0.188653
0.201396
0.231008
0.287627
0.381187
0.527532
0.74459
0.980416
1.17277
1.29918
1.3767
1.41985
1.44402
1.45716
1.4641
1.46719
1.4676
0.133874
0.133676
0.135167
0.140701
0.155032
0.184935
0.243052
0.343535
0.502885
0.736413
0.986916
1.18937
1.32315
1.40587
1.45483
1.48281
1.49758
1.50442
1.50757
1.50836
0.0825305
0.0816363
0.0834936
0.0909416
0.10542
0.133542
0.192085
0.298416
0.470599
0.722615
0.993113
1.21285
1.36025
1.4523
1.50743
1.53937
1.55505
1.56089
1.56435
1.56581
0.0340342
0.0329442
0.0355119
0.0450027
0.0613995
0.0908279
0.150295
0.259336
0.437559
0.70729
1.00373
1.2493
1.41799
1.52555
1.58937
1.62457
1.64143
1.64783
1.65128
1.65301
-0.0157475
-0.0166476
-0.0138597
-0.00364481
0.0152458
0.0497736
0.115659
0.230095
0.414171
0.700609
1.02842
1.30978
1.5058
1.6298
1.70262
1.74161
1.75926
1.76678
1.76985
1.77129
-0.0825224
-0.0829515
-0.0792688
-0.0689248
-0.0460569
-0.000694055
0.0765559
0.200625
0.401828
0.714956
1.07938
1.39689
1.61868
1.76003
1.83879
1.87698
1.89584
1.90554
1.90806
1.90931
-0.173666
-0.174144
-0.171697
-0.162723
-0.135681
-0.0789572
0.0150645
0.163161
0.39807
0.750451
1.15757
1.5131
1.75661
1.90489
1.98408
2.02166
2.04262
2.05437
2.05761
2.05923
-0.296941
-0.296949
-0.292965
-0.284044
-0.254682
-0.188859
-0.0777974
0.104473
0.38931
0.797845
1.25896
1.64905
1.90282
2.05442
2.13565
2.17651
2.20124
2.21532
2.21977
2.22148
-0.451487
-0.452419
-0.449345
-0.439656
-0.407365
-0.335387
-0.205139
0.0150625
0.358872
0.840307
1.36436
1.78701
2.05681
2.21484
2.3058
2.35559
2.38193
2.39648
2.40155
2.40342
-0.635109
-0.635042
-0.630144
-0.61881
-0.586563
-0.513231
-0.368858
-0.112792
0.292499
0.85671
1.45787
1.92726
2.22262
2.39654
2.50215
2.5634
2.591
2.60559
2.61177
2.61375
-0.855127
-0.85549
-0.849943
-0.832453
-0.789927
-0.711034
-0.556124
-0.27342
0.187781
0.83968
1.52916
2.06418
2.40421
2.6073
2.73132
2.80284
2.83368
2.84886
2.85627
2.85806
-1.11747
-1.11777
-1.11344
-1.09603
-1.04882
-0.955224
-0.778163
-0.460031
0.057575
0.798545
1.59138
2.21501
2.61897
2.86213
3.00348
3.08014
3.11428
3.13052
3.13891
3.14104
-1.42748
-1.42689
-1.42175
-1.40152
-1.34681
-1.24051
-1.03364
-0.672867
-0.0842997
0.7597
1.67388
2.39941
2.87588
3.16342
3.31774
3.39657
3.43621
3.45551
3.46518
3.46751
-1.79541
-1.79583
-1.791
-1.7675
-1.70281
-1.57123
-1.32151
-0.899422
-0.20869
0.760151
1.80977
2.64958
3.19509
3.5162
3.68391
3.76586
3.80971
3.83064
3.84122
3.84363
-2.24487
-2.24353
-2.23681
-2.21341
-2.1383
-1.97273
-1.6635
-1.14236
-0.304784
0.824676
2.0315
2.98063
3.57995
3.92693
4.10288
4.18846
4.23581
4.25781
4.26869
4.27062
-2.786
-2.78532
-2.77553
-2.74281
-2.65392
-2.45029
-2.06423
-1.41126
-0.384003
0.947675
2.32966
3.37984
4.01807
4.38333
4.56783
4.65784
4.70646
4.72852
4.74025
4.74146
-3.4791
-3.47485
-3.45802
-3.4109
-3.28852
-3.02232
-2.53028
-1.71427
-0.467623
1.09331
2.66471
3.82416
4.5051
4.87059
5.06744
5.16676
5.21564
5.24006
5.2524
5.25355
-4.34725
-4.34181
-4.31803
-4.2468
-4.06998
-3.71056
-3.08261
-2.06221
-0.576155
1.233
3.0174
4.28795
5.0112
5.39416
5.60207
5.70682
5.75624
5.78443
5.79961
5.80047
-5.50568
-5.48354
-5.42007
-5.27534
-4.99604
-4.50649
-3.6972
-2.43835
-0.692094
1.37756
3.38531
4.77574
5.55685
5.97016
6.17863
6.2747
6.3164
6.34242
6.36036
6.36199
-6.9904
-6.93603
-6.7994
-6.53404
-6.08139
-5.38047
-4.32865
-2.79385
-0.779941
1.56103
3.80467
5.33722
6.20222
6.62328
6.80004
6.88355
6.91157
6.92338
6.92939
6.93412
-8.85843
-8.68156
-8.35145
-7.89064
-7.22881
-6.27529
-4.94236
-3.08909
-0.75829
1.91196
4.4508
6.15939
7.07873
7.51069
7.67295
7.74452
7.76694
7.77043
7.76058
7.7652
-10.9346
-10.4775
-9.92478
-9.27864
-8.38689
-7.16038
-5.50253
-3.27542
-0.55537
2.50875
5.37297
7.24697
8.21812
8.67148
8.89395
8.98223
9.02548
9.05777
9.0701
9.07381
-12.8241
-12.177
-11.4572
-10.6281
-9.50899
-8.00477
-6.00001
-3.38471
-0.270323
3.17328
6.31389
8.32004
9.36239
9.87865
10.1425
10.2668
10.3354
10.3677
10.385
10.3883
-14.3163
-13.5878
-12.8059
-11.8433
-10.5285
-8.7688
-6.44305
-3.47804
-0.0176914
3.75312
7.16952
9.34882
10.4536
11.0491
11.3435
11.4835
11.5614
11.6119
11.6444
11.6465
-15.5515
-14.715
-13.9201
-12.8539
-11.3898
-9.42312
-6.83342
-3.55662
0.205588
4.2541
7.95052
10.3069
11.5158
12.1646
12.4744
12.6378
12.7335
12.7862
12.8188
12.82
-16.5234
-15.6228
-14.8123
-13.6684
-12.0845
-9.96074
-7.15441
-3.58825
0.458239
4.7646
8.72125
11.228
12.5336
13.2111
13.5437
13.7182
13.8186
13.8789
13.9197
13.9233
-17.2402
-16.321
-15.5291
-14.318
-12.6316
-10.3786
-7.3866
-3.56399
0.754798
5.31412
9.45542
12.0858
13.4535
14.1543
14.4995
14.6938
14.8247
14.9147
14.9765
14.9888
-17.7704
-16.8479
-16.0718
-14.81
-13.0469
-10.6841
-7.53426
-3.50991
1.04213
5.81297
10.0974
12.8282
14.2591
14.9906
15.3754
15.602
15.7434
15.839
15.9127
15.9178
-18.1772
-17.2532
-16.4726
-15.1647
-13.3448
-10.8936
-7.6232
-3.45586
1.252
6.18375
10.6114
13.4483
14.9596
15.742
16.1553
16.4074
16.5763
16.6854
16.7611
16.7709
-18.4464
-17.5214
-16.7254
-15.3687
-13.5345
-11.038
-7.68243
-3.41486
1.36488
6.42676
11.0074
13.9632
15.5592
16.3948
16.853
17.1307
17.3148
17.4461
17.5427
17.5508
-18.6684
-17.7318
-16.869
-15.4424
-13.6204
-11.1122
-7.71427
-3.39777
1.43217
6.59059
11.3137
14.3867
16.0673
16.9639
17.466
17.7768
17.9864
18.1243
18.2338
18.2398
-18.8009
-17.8772
-16.9545
-15.4637
-13.6274
-11.1145
-7.70673
-3.37883
1.48921
6.71765
11.5516
14.726
16.4921
17.4513
18.0082
18.3527
18.58
18.7376
18.8664
18.8684
-18.9112
-17.9871
-16.9935
-15.4452
-13.5814
-11.0517
-7.65319
-3.33887
1.55032
6.82356
11.7327
14.9915
16.8477
17.8758
18.4772
18.8626
19.1269
19.2912
19.437
19.4384
-18.9924
-18.0592
-17.0001
-15.4357
-13.5189
-10.9582
-7.5646
-3.27777
1.61455
6.907
11.8674
15.2012
17.1399
18.2338
18.882
19.3029
19.6114
19.813
19.9645
19.9578
-19.0525
-18.1205
-17.0019
-15.4238
-13.4673
-10.8702
-7.46295
-3.19087
1.66562
6.96691
11.966
15.3679
17.3666
18.5214
19.2278
19.6954
20.0543
20.2858
20.4368
20.4281
-19.1078
-18.1668
-17.0115
-15.4397
-13.4466
-10.813
-7.37609
-3.10613
1.72076
7.01046
12.0355
15.4953
17.531
18.7326
19.5125
20.0369
20.4414
20.7021
20.8802
20.8621
-19.1578
-18.2116
-17.0401
-15.4736
-13.4597
-10.7965
-7.32225
-3.03575
1.78138
7.0446
12.0766
15.5708
17.632
18.8719
19.7412
20.3454
20.7902
21.0817
21.2734
21.2603
-19.2184
-18.2642
-17.0856
-15.527
-13.5019
-10.8194
-7.31025
-2.99305
1.83431
7.06899
12.0831
15.5839
17.6667
18.9534
19.9133
20.6068
21.1219
21.4418
21.6243
21.621
-19.2949
-18.3383
-17.1548
-15.5968
-13.5694
-10.8797
-7.34461
-2.99608
1.85544
7.07236
12.042
15.5359
17.6303
18.9833
20.0285
20.8227
21.4469
21.8207
21.9452
21.9314
-19.3925
-18.4316
-17.2472
-15.693
-13.6693
-10.9813
-7.43197
-3.06328
1.81408
7.03785
11.9399
15.4263
17.5275
18.9735
20.0878
20.9837
21.734
22.2405
22.3889
22.2108
-19.5151
-18.5459
-17.3643
-15.8117
-13.7978
-11.1202
-7.5663
-3.19141
1.70447
6.9437
11.7761
15.247
17.3869
18.893
20.067
21.0644
21.9559
22.6874
22.9361
22.8362
-19.6576
-18.676
-17.5011
-15.9462
-13.9453
-11.2828
-7.73122
-3.3629
1.53524
6.77485
11.5553
15.0043
17.1865
18.7161
19.9317
20.9953
21.9498
22.7419
22.9737
22.8307
-19.8123
-18.8178
-17.6507
-16.0866
-14.1029
-11.455
-7.90881
-3.55663
1.32825
6.55016
11.3018
14.7246
16.9043
18.4321
19.6449
20.6986
21.6406
22.2349
22.3516
22.2873
-19.9693
-18.9735
-17.814
-16.2425
-14.2735
-11.6324
-8.09397
-3.76592
1.0961
6.2941
11.022
14.4079
16.5403
18.0395
19.2101
20.1824
21.0032
21.3536
21.3769
21.3744
-20.1246
-19.1442
-17.9989
-16.4292
-14.4612
-11.8168
-8.28548
-3.98659
0.84837
6.02233
10.7162
14.0439
16.1013
17.537
18.618
19.4429
20.0451
20.3406
20.3696
20.431
-20.2765
-19.3232
-18.1945
-16.6373
-14.6654
-12.0078
-8.48041
-4.2142
0.591154
5.73719
10.3811
13.6265
15.5895
16.9199
17.8726
18.5593
19.0144
19.188
19.1207
19.3012
-20.4259
-19.4931
-18.3757
-16.8338
-14.8641
-12.1859
-8.66393
-4.43325
0.337479
5.44351
10.0176
13.1587
15.0084
16.1986
17.0005
17.5332
17.7976
17.8674
17.8193
18.0304
-20.5648
-19.6351
-18.5255
-16.9958
-15.0238
-12.3255
-8.81457
-4.62151
0.105896
5.1528
9.6338
12.6519
14.3729
15.4013
16.0402
16.4202
16.5396
16.3865
16.1544
16.2645
-20.6888
-19.7433
-18.6314
-17.1026
-15.1246
-12.4189
-8.92266
-4.77017
-0.0965221
4.87045
9.23707
12.1199
13.7072
14.571
15.0294
15.2385
15.19
14.5679
13.5942
13.5828
-20.7876
-19.8149
-18.6835
-17.1465
-15.1695
-12.4666
-8.99016
-4.88422
-0.27417
4.5957
8.83244
11.576
13.0331
13.7463
14.0087
13.9866
13.7347
12.6772
10.5451
8.66311
-20.8632
-19.8581
-18.6995
-17.1469
-15.1708
-12.4742
-9.02758
-4.97331
-0.433648
4.33053
8.4308
11.0374
12.3815
12.9741
13.0475
12.7457
12.1973
11.1924
7.71214
-1.48987
-20.9213
-19.8826
-18.7001
-17.1289
-15.1468
-12.4575
-9.04528
-5.04504
-0.579596
4.07496
8.03208
10.5027
11.7517
12.2562
12.1896
11.6834
10.9637
10.2879
9.73687
6.1921
-20.9673
-19.9043
-18.6975
-17.1034
-15.1151
-12.4379
-9.06122
-5.11773
-0.728573
3.81361
7.62666
9.96889
11.1439
11.6043
11.5226
11.0943
10.5492
10.5012
11.3328
10.4837
-20.9987
-19.9223
-18.6996
-17.0849
-15.0922
-12.4273
-9.08792
-5.20279
-0.889705
3.54192
7.22242
9.45671
10.5903
11.0674
11.1033
10.9277
10.6978
10.5846
11.0267
10.5705
-21.023
-19.9372
-18.7038
-17.0747
-15.0805
-12.4275
-9.12801
-5.30234
-1.06459
3.26231
6.8291
8.98376
10.1168
10.6721
10.8862
10.9086
10.77
10.5377
10.6349
10.5813
-21.0353
-19.9429
-18.7061
-17.0682
-15.0753
-12.4346
-9.17585
-5.41142
-1.24878
2.9823
6.45651
8.56456
9.73946
10.4022
10.7714
10.9261
10.8492
10.6269
10.7314
10.771
-21.0439
-19.9351
-18.6952
-17.0507
-15.0638
-12.4374
-9.22215
-5.52244
-1.43424
2.71119
6.1126
8.20722
9.45746
10.2212
10.6852
10.9373
10.9858
10.874
10.9879
11.0232
-21.023
-19.9106
-18.6679
-17.0122
-15.035
-12.4259
-9.25845
-5.6269
-1.61309
2.45424
5.80205
7.91343
9.25079
10.0983
10.6241
10.9659
11.1688
11.1949
11.2884
11.297
-20.9601
-19.8442
-18.5982
-16.934
-14.9805
-12.3901
-9.27595
-5.7184
-1.77898
2.21274
5.52494
7.67707
9.09787
10.0289
10.6226
11.0536
11.4003
11.5227
11.6061
11.6073
-20.8461
-19.722
-18.4823
-16.8036
-14.8914
-12.3211
-9.27079
-5.79413
-1.92904
1.98287
5.27397
7.49858
8.99107
10.0142
10.6979
11.1946
11.6284
11.8011
11.8837
11.8942
-20.6483
-19.5311
-18.301
-16.6061
-14.7607
-12.2123
-9.2382
-5.84656
-2.06254
1.7714
5.05441
7.34784
8.92241
10.0326
10.8077
11.3672
11.8221
12.0604
12.1503
12.1654
-20.347
-19.2567
-18.027
-16.361
-14.5643
-12.0589
-9.17316
-5.86037
-2.19558
1.58027
4.85836
7.21451
8.87614
10.078
10.9337
11.5553
12.0478
12.373
12.5087
12.5364
-19.8907
-18.8796
-17.6438
-16.0506
-14.2743
-11.8753
-9.07765
-5.8606
-2.30111
1.41058
4.67662
7.08736
8.83613
10.1335
11.0814
11.783
12.3467
12.7717
12.9634
13.0001
-19.2841
-18.3384
-17.1529
-15.6657
-13.9291
-11.6346
-8.94957
-5.8423
-2.38595
1.25579
4.49753
6.95164
8.78423
10.1861
11.2368
12.0272
12.6545
13.1348
13.3674
13.4105
-18.4379
-17.6242
-16.5605
-15.1921
-13.5113
-11.3521
-8.79529
-5.80391
-2.45561
1.10422
4.30462
6.79033
8.69554
10.1884
11.3185
12.1569
12.8019
13.2874
13.553
13.6148
-17.4268
-16.7737
-15.8447
-14.6148
-13.0525
-11.0396
-8.62238
-5.75467
-2.51792
0.933651
4.07508
6.56898
8.50172
10.0283
11.1798
12.0145
12.6503
13.1404
13.4404
13.5239
-16.1578
-15.7915
-15.0826
-14.0014
-12.581
-10.7137
-8.43258
-5.69422
-2.59186
0.714828
3.76974
6.22489
8.12133
9.61057
10.7324
11.5531
12.1887
12.692
13.0178
13.1217
-15.0766
-14.9287
-14.4138
-13.4703
-12.1677
-10.4166
-8.24749
-5.64282
-2.70334
0.429979
3.35441
5.70412
7.49406
8.89382
9.97178
10.7867
11.4226
11.9226
12.2593
12.3837
-14.824
-14.8013
-14.1818
-13.1738
-11.8719
-10.1816
-8.09815
-5.62736
-2.86396
0.0758565
2.8086
4.98573
6.63559
7.93604
8.9622
9.7503
10.3606
10.8337
11.1724
11.3253
-14.9704
-14.8781
-14.311
-13.2091
-11.7968
-10.0541
-7.99409
-5.64413
-3.05667
-0.340588
2.15967
4.1485
5.66985
6.8678
7.7953
8.49191
9.01918
9.42548
9.72421
9.88277
-14.9761
-14.9089
-14.5528
-13.3653
-11.8004
-9.95759
-7.90231
-5.65864
-3.22951
-0.731507
1.5828
3.43854
4.84653
5.93428
6.7435
7.31356
7.72301
8.02438
8.23
8.33419
-14.9396
-15.0326
-14.7079
-13.1845
-11.4668
-9.62265
-7.66343
-5.5571
-3.31061
-1.01715
1.12606
2.83577
4.10432
5.06093
5.75983
6.22622
6.54287
6.7575
6.88415
6.93835
-14.0508
-14.2982
-13.8241
-12.2561
-10.6352
-8.93235
-7.16379
-5.26845
-3.26042
-1.20002
0.718191
2.2135
3.28409
4.07427
4.64957
5.01984
5.25808
5.41033
5.4975
5.53257
-11.3301
-11.5151
-11.2011
-10.2882
-9.15386
-7.82083
-6.36282
-4.7645
-3.05791
-1.28261
0.362282
1.61843
2.48991
3.12595
3.59309
3.89039
4.0772
4.1941
4.26005
4.28898
-7.5185
-7.58918
-7.5243
-7.27998
-6.84999
-6.14214
-5.19027
-4.02897
-2.69616
-1.26292
0.077156
1.10694
1.81266
2.32477
2.70178
2.93898
3.08697
3.1806
3.23473
3.25919
-4.24062
-4.27741
-4.29942
-4.37037
-4.3688
-4.1734
-3.74784
-3.08112
-2.18736
-1.12625
-0.100779
0.726862
1.2962
1.70409
2.00423
2.19091
2.31063
2.39399
2.44771
2.47579
-1.96311
-2.00277
-2.08892
-2.2259
-2.37034
-2.43184
-2.35231
-2.075
-1.57586
-0.889632
-0.147689
0.49672
0.943598
1.25783
1.49903
1.65137
1.75479
1.83241
1.87917
1.89935
-0.613589
-0.657009
-0.758904
-0.898413
-1.0515
-1.17652
-1.24238
-1.19438
-0.978931
-0.588622
-0.0809243
0.394162
0.732761
0.967581
1.16569
1.2921
1.3769
1.44298
1.47559
1.48932
0.0502813
0.015381
-0.0752265
-0.198814
-0.321324
-0.414216
-0.494782
-0.534969
-0.476196
-0.277979
0.0369983
0.373048
0.629753
0.800096
0.963095
1.0642
1.12684
1.16978
1.19116
1.19902
0.341712
0.310726
0.225029
0.110566
0.0131913
-0.0432011
-0.0946883
-0.131041
-0.116862
-0.0207322
0.163032
0.393693
0.599814
0.71133
0.843
0.915934
0.959381
0.986221
0.99941
1.00356
0.42634
0.404031
0.327732
0.217192
0.124111
0.0717782
0.0409499
0.0433476
0.0755268
0.145779
0.266661
0.423938
0.604609
0.65609
0.7657
0.813351
0.837405
0.851762
0.858157
0.859607
0.405392
0.391283
0.332386
0.239402
0.150153
0.0855694
0.0486351
0.0697502
0.12785
0.212893
0.323895
0.444238
0.596601
0.603225
0.696975
0.718061
0.727584
0.732563
0.733919
0.73337
0.344397
0.335047
0.296849
0.235598
0.168857
0.103405
0.0481213
0.053736
0.110964
0.208286
0.326131
0.430175
0.542011
0.539752
0.601197
0.606515
0.609827
0.610795
0.609314
0.608515
0.286158
0.2803
0.258411
0.225276
0.18838
0.13988
0.0848207
0.0665688
0.0932266
0.176141
0.286244
0.36743
0.445857
0.438937
0.483917
0.480567
0.485196
0.48855
0.485881
0.486302
0.24837
0.245493
0.233755
0.217108
0.202542
0.176276
0.139289
0.115561
0.111899
0.156184
0.232308
0.279889
0.330771
0.328402
0.363914
0.359498
0.366832
0.373755
0.373454
0.374617
0.226975
0.22595
0.221236
0.214601
0.21408
0.205547
0.187712
0.173789
0.153519
0.158446
0.18928
0.204984
0.247491
0.253198
0.273026
0.269751
0.273616
0.277323
0.277283
0.277866
0.218602
0.217976
0.216654
0.215328
0.219346
0.219768
0.216018
0.212508
0.186339
0.168442
0.168957
0.168435
0.198686
0.203128
0.215196
0.211372
0.210105
0.20748
0.203374
0.202671
0.220396
0.219274
0.21683
0.213338
0.212695
0.2101
0.210397
0.211957
0.19553
0.177899
0.168519
0.156841
0.170056
0.168431
0.175506
0.171022
0.165548
0.158666
0.150077
0.148396
0.223632
0.221915
0.215682
0.205556
0.196079
0.183103
0.176155
0.1793
0.179832
0.180819
0.176373
0.15815
0.162174
0.151015
0.150278
0.140157
0.129969
0.120945
0.109378
0.106856
0.218017
0.216345
0.207021
0.192252
0.177476
0.158164
0.14361
0.142505
0.146968
0.160745
0.167821
0.15472
0.155787
0.137067
0.12769
0.116519
0.0997494
0.0899315
0.0764008
0.0738517
0.196119
0.195001
0.186041
0.173535
0.16208
0.14474
0.129745
0.120601
0.113251
0.120654
0.132767
0.127985
0.12874
0.111489
0.09908
0.08986
0.0706296
0.0653603
0.0522527
0.0504132
0.161516
0.16071
0.154333
0.147841
0.144017
0.134203
0.123773
0.111025
0.0909581
0.085056
0.0906157
0.0861739
0.0868702
0.0751296
0.0660399
0.0618814
0.0465772
0.0464781
0.0360745
0.034788
0.123702
0.123618
0.119755
0.117182
0.117015
0.111415
0.107267
0.0990945
0.0802114
0.0671771
0.0614457
0.0518644
0.0516911
0.0443706
0.0395042
0.0394521
0.0269575
0.0297673
0.0220136
0.0215758
0.0895953
0.0890463
0.0862131
0.084432
0.0836308
0.0780111
0.077358
0.0761629
0.0681761
0.0593835
0.0480795
0.0345636
0.0330829
0.028045
0.0189929
0.0264481
0.0142213
0.0167801
0.0105905
0.00972077
0.0571514
0.0569283
0.0539738
0.0518766
0.0503826
0.0432534
0.0440729
0.0447812
0.04349
0.0432166
0.036724
0.025425
0.0234341
0.0218201
0.0103554
0.0160061
0.00589949
0.00849401
0.00275889
0.00241091
0.0245263
0.0258201
0.0231506
0.0211383
0.018346
0.012256
0.0133838
0.0135834
0.0115598
0.0150566
0.0137513
0.0109385
0.00925536
0.00981031
0.00424045
0.0079841
0.000819164
0.00352302
-0.000944836
-0.000845011
13.5372
17.3456
18.2491
19.4334
20.3736
21.1913
21.8823
22.4331
22.7649
22.8118
17.5622
19.3701
19.9144
20.6472
21.2677
21.7868
22.2008
22.4956
22.6334
22.5816
19.637
20.5162
20.9379
21.3853
21.7677
22.0834
22.325
22.4875
22.5601
22.5636
20.7688
21.3035
21.5718
21.845
22.0705
22.2546
22.3932
22.4861
22.5347
22.5585
21.5051
21.7745
21.9396
22.1044
22.244
22.3585
22.4455
22.5059
22.539
22.569
21.8982
22.0827
22.1724
22.284
22.3706
22.4416
22.4978
22.5403
22.5678
22.5927
22.1623
22.2858
22.3303
22.4061
22.4641
22.5129
22.5527
22.5837
22.6044
22.6287
22.3469
22.4232
22.4607
22.5072
22.5472
22.5813
22.6093
22.6335
22.6518
22.673
22.4887
22.5403
22.5668
22.594
22.6219
22.647
22.6682
22.6888
22.7057
22.726
22.6063
22.6366
22.6575
22.6763
22.6959
22.7152
22.7334
22.7517
22.7656
22.7847
22.708
22.7275
22.7449
22.7599
22.7757
22.7911
22.8044
22.818
22.8269
22.8433
22.8028
22.817
22.833
22.847
22.8594
22.8702
22.8797
22.8881
22.8917
22.9031
22.8966
22.9084
22.9229
22.9327
22.9405
22.9481
22.9554
22.9621
22.9637
22.9717
22.9962
23.0009
23.0096
23.0152
23.019
23.0237
23.03
23.0379
23.0421
23.0516
23.1116
23.0985
23.0908
23.085
23.0824
23.0837
23.0904
23.1033
23.1174
23.1469
23.2332
23.1773
23.1468
23.129
23.1208
23.121
23.1296
23.1485
23.18
23.2494
)
;

boundaryField
{
    wall-4
    {
        type            zeroGradient;
    }
    pressure-outlet-7
    {
        type            fixedValue;
        value           uniform 0;
    }
    velocity-inlet-6
    {
        type            zeroGradient;
    }
    velocity-inlet-5
    {
        type            zeroGradient;
    }
    frontAndBackPlanes
    {
        type            empty;
    }
}


// ************************************************************************* //
