/*--------------------------------*- C++ -*----------------------------------*\
| =========                 |                                                 |
| \\      /  F ield         | OpenFOAM: The Open Source CFD Toolbox           |
|  \\    /   O peration     | Version:  2412                                  |
|   \\  /    A nd           | Website:  www.openfoam.com                      |
|    \\/     M anipulation  |                                                 |
\*---------------------------------------------------------------------------*/
FoamFile
{
    version     2.0;
    format      ascii;
    arch        "LSB;label=32;scalar=64";
    class       surfaceScalarField;
    location    "7.75";
    object      phi;
}
// * * * * * * * * * * * * * * * * * * * * * * * * * * * * * * * * * * * * * //

dimensions      [0 3 -1 0 0 0 0];

oriented        oriented;

internalField   nonuniform List<scalar> 
4262
(
-0.00109438
0.221607
-0.0029043
0.830463
-0.00489069
1.76913
-0.00699184
3.16727
-0.00973914
5.18735
-0.012585
8.01721
-0.014971
11.8495
-0.0170885
16.8219
-0.0197086
22.8844
-0.0198269
29.5285
-0.0193269
29.5279
-0.017543
22.88
-0.0147705
16.817
-0.0121608
11.8445
-0.0096187
8.01182
-0.00750495
5.18249
-0.00576449
3.16343
-0.00444891
1.76583
-0.00282723
0.827032
0.217685
-0.00299511
0.224602
-0.00727081
0.834739
-0.0128793
1.77474
-0.0195592
3.17395
-0.0275929
5.19538
-0.035229
8.02485
-0.0419652
11.8563
-0.0499614
16.8299
-0.0578288
22.8923
-0.0570212
29.5277
-0.052993
29.5238
-0.0470482
22.8741
-0.0415994
16.8115
-0.033764
11.8367
-0.0272496
8.00531
-0.0215071
5.17675
-0.0152934
3.15721
-0.0103731
1.76091
-0.00462727
0.821286
0.213058
-0.0057929
0.230395
-0.0132248
0.842171
-0.0227701
1.78428
-0.0337833
3.18496
-0.0461242
5.20773
-0.0582551
8.03698
-0.0716325
11.8696
-0.0812673
16.8395
-0.0924715
22.9035
-0.0924628
29.5277
-0.0889102
29.5203
-0.0799148
22.8651
-0.0672352
16.7988
-0.0556233
11.8251
-0.0430253
7.99271
-0.0318581
5.16558
-0.0222562
3.14761
-0.0123964
1.75105
-0.00396602
0.812855
0.209092
-0.00905684
0.239452
-0.0204157
0.853529
-0.034545
1.79841
-0.0510109
3.20143
-0.0666401
5.22335
-0.0803677
8.05071
-0.0972073
11.8865
-0.111508
16.8538
-0.128807
22.9208
-0.127067
29.5259
-0.118768
29.512
-0.106246
22.8526
-0.0890903
16.7817
-0.0725963
11.8086
-0.0553438
7.97546
-0.0407696
5.15101
-0.0268964
3.13374
-0.0140646
1.73822
-0.00359656
0.802387
0.205496
-0.0134329
0.252885
-0.0288066
0.868903
-0.0468513
1.81646
-0.0664809
3.22106
-0.0867574
5.24363
-0.105846
8.06979
-0.125264
11.9059
-0.141535
16.8701
-0.161055
22.9403
-0.160869
29.5257
-0.153671
29.5048
-0.137424
22.8363
-0.113608
16.7579
-0.0901076
11.7851
-0.0678846
7.95323
-0.0488741
5.132
-0.0321997
3.11706
-0.0171599
1.72318
-0.0040837
0.789311
0.201412
-0.016116
0.269001
-0.0347365
0.887524
-0.0564071
1.83813
-0.0809818
3.24563
-0.108614
5.27126
-0.132403
8.09358
-0.154014
11.9275
-0.175998
16.892
-0.198605
22.9629
-0.195512
29.5226
-0.183085
29.4923
-0.159924
22.8132
-0.132683
16.7306
-0.104458
11.7569
-0.07913
7.92791
-0.0563782
5.10924
-0.036732
3.09742
-0.0207526
1.7072
-0.0059773
0.774536
0.195434
-0.013721
0.282722
-0.0328279
0.90663
-0.0586124
1.86391
-0.0895571
3.27658
-0.122477
5.30418
-0.157087
8.12819
-0.183259
11.9537
-0.208959
16.9177
-0.232658
22.9866
-0.229335
29.5193
-0.216347
29.4794
-0.188666
22.7855
-0.156351
16.6983
-0.119172
11.7197
-0.0895744
7.89831
-0.0656151
5.08528
-0.0436873
3.07549
-0.0249846
1.68849
-0.00902674
0.758578
0.186408
-0.0134079
0.29613
-0.0397706
0.932993
-0.0713427
1.89548
-0.105738
3.31097
-0.143777
5.34222
-0.183133
8.16755
-0.216445
11.987
-0.246979
16.9483
-0.27432
23.014
-0.267182
29.5122
-0.246232
29.4584
-0.209986
22.7492
-0.172887
16.6612
-0.136843
11.6836
-0.10632
7.86779
-0.0756504
5.05462
-0.0495676
3.04941
-0.0277538
1.66668
-0.0118682
0.742692
0.17454
-0.0191241
0.315254
-0.0527709
0.96664
-0.0874008
1.93011
-0.122141
3.34571
-0.158775
5.37886
-0.202904
8.21168
-0.245007
12.0291
-0.282795
16.9861
-0.312773
23.044
-0.304104
29.5035
-0.278828
29.4331
-0.241421
22.7118
-0.203565
16.6234
-0.158298
11.6384
-0.116623
7.82611
-0.0791699
5.01716
-0.0477762
3.01801
-0.0229666
1.64187
-0.0109726
0.730698
0.163567
-0.0270427
0.342296
-0.0709119
1.01051
-0.106635
1.96584
-0.143303
3.38238
-0.184011
5.41956
-0.230074
8.25774
-0.278276
12.0773
-0.323154
17.0309
-0.361124
23.0819
-0.348641
29.491
-0.316959
29.4015
-0.273824
22.6687
-0.225331
16.5749
-0.177876
11.5909
-0.129884
7.77812
-0.0835186
4.9708
-0.0432173
2.97771
-0.0123568
1.61101
-0.00635802
0.724699
0.157209
-0.033881
0.376177
-0.0866165
1.06324
-0.124062
2.00328
-0.163411
3.42173
-0.206408
5.46256
-0.254045
8.30538
-0.305916
12.1292
-0.355138
17.0802
-0.401912
23.1287
-0.39225
29.4814
-0.362359
29.3716
-0.318225
22.6246
-0.26547
16.5221
-0.204945
11.5304
-0.14401
7.71718
-0.0917222
4.91851
-0.0457108
2.9317
-0.00631708
1.57162
-0.00319784
0.72158
0.154011
-0.036742
0.412919
-0.0925449
1.11905
-0.133209
2.04395
-0.180417
3.46894
-0.234198
5.51634
-0.289763
8.36094
-0.346158
12.1856
-0.402249
17.1363
-0.45173
23.1782
-0.446334
29.476
-0.41544
29.3407
-0.360485
22.5696
-0.293063
16.4547
-0.226655
11.464
-0.164157
7.65469
-0.104306
4.85866
-0.0516284
2.87902
-0.00829692
1.52828
-0.00455556
0.717839
0.149456
-0.0409895
0.453909
-0.10437
1.18243
-0.149811
2.08939
-0.204806
3.52393
-0.264863
5.5764
-0.325964
8.42204
-0.387396
12.247
-0.447963
17.1968
-0.500271
23.2305
-0.498378
29.4741
-0.471263
29.3136
-0.412184
22.5105
-0.335787
16.3783
-0.253517
11.3817
-0.178171
7.57934
-0.117563
4.79805
-0.0645265
2.82599
-0.017465
1.48122
-0.00893379
0.709308
0.140522
-0.0395248
0.493434
-0.102661
1.24556
-0.156005
2.14273
-0.225272
3.5932
-0.299679
5.65081
-0.376267
8.49863
-0.446693
12.3174
-0.51368
17.2638
-0.567932
23.2847
-0.568618
29.4748
-0.535525
29.2805
-0.456334
22.4313
-0.361067
16.283
-0.273065
11.2937
-0.197809
7.50408
-0.128343
4.72858
-0.0745664
2.77221
-0.0270197
1.43368
-0.013575
0.695863
0.126947
-0.0472859
0.54072
-0.119788
1.31807
-0.182628
2.20557
-0.2606
3.67117
-0.339778
5.72998
-0.42332
8.58217
-0.507692
12.4018
-0.585943
17.3421
-0.643473
23.3423
-0.63757
29.4689
-0.590287
29.2332
-0.501693
22.3427
-0.402895
16.1842
-0.30365
11.1945
-0.215396
7.41583
-0.139907
4.6531
-0.0822612
2.71456
-0.0344055
1.38582
-0.0170198
0.678477
0.109927
-0.0472948
0.588014
-0.120974
1.39175
-0.201545
2.28614
-0.300593
3.77022
-0.395536
5.82493
-0.494326
8.68096
-0.592035
12.4995
-0.679942
17.43
-0.741637
23.404
-0.727666
29.4549
-0.657121
29.1626
-0.5525
22.2381
-0.436999
16.0687
-0.332758
11.0902
-0.239001
7.32207
-0.152449
4.56654
-0.0814349
2.64355
-0.0361886
1.34057
-0.0183816
0.66067
0.0915455
-0.0620226
0.650037
-0.152386
1.48211
-0.238151
2.37191
-0.332852
3.86492
-0.437481
5.92955
-0.551054
8.79454
-0.66714
12.6156
-0.780016
17.5428
-0.847473
23.4714
-0.821449
29.4289
-0.738148
29.0793
-0.618996
22.119
-0.498227
15.948
-0.376786
10.9688
-0.262653
7.20794
-0.167938
4.47183
-0.0835988
2.55921
-0.0399597
1.29694
-0.0207725
0.641483
0.0707729
-0.0628681
0.712905
-0.162337
1.58158
-0.271232
2.4808
-0.388327
3.98201
-0.509737
6.05096
-0.637492
8.92229
-0.767593
12.7457
-0.897146
17.6724
-0.972792
23.5471
-0.93916
29.3952
-0.840509
28.9807
-0.703583
21.982
-0.552721
15.7971
-0.410799
10.8269
-0.288074
7.08521
-0.181942
4.3657
-0.0834872
2.46075
-0.0399855
1.25343
-0.0213937
0.622891
0.0493793
-0.083271
0.796176
-0.197625
1.69593
-0.313667
2.59684
-0.434475
4.10282
-0.58079
6.19728
-0.732719
9.07422
-0.878473
12.8914
-1.03
17.8239
-1.10535
23.6224
-1.06767
29.3575
-0.956457
28.8695
-0.795566
21.8212
-0.624744
15.6263
-0.458795
10.6609
-0.307752
6.93417
-0.189603
4.24755
-0.0816217
2.35277
-0.0426913
1.2145
-0.0243125
0.604512
0.0250667
-0.0913389
0.887515
-0.222035
1.82663
-0.363052
2.73786
-0.508092
4.24786
-0.668525
6.35771
-0.837814
9.24351
-1.01041
13.064
-1.18724
18.0008
-1.26555
23.7007
-1.22404
29.316
-1.09561
28.741
-0.905908
21.6315
-0.692556
15.4129
-0.497475
10.4658
-0.327074
6.76377
-0.197302
4.11778
-0.085564
2.24104
-0.044299
1.17324
-0.0263302
0.586543
-0.00126346
-0.110083
0.997598
-0.25812
1.97467
-0.419471
2.89921
-0.585847
4.41424
-0.781639
6.5535
-0.979688
9.44156
-1.18062
13.265
-1.37493
18.1951
-1.44731
23.7731
-1.3989
29.2676
-1.24851
28.5907
-1.01739
21.4003
-0.781048
15.1766
-0.556406
10.2412
-0.353645
6.56101
-0.199827
3.96396
-0.0885085
2.12972
-0.055106
1.13984
-0.0332115
0.564649
-0.034475
-0.129633
1.12723
-0.299558
2.14459
-0.487649
3.0873
-0.690746
4.61734
-0.918403
6.78116
-1.15083
9.67399
-1.38645
13.5006
-1.60572
18.4143
-1.67357
23.8409
-1.60865
29.2027
-1.4196
28.4016
-1.14842
21.1292
-0.860938
14.8891
-0.602134
9.98239
-0.384473
6.34335
-0.213723
3.79321
-0.103981
2.01997
-0.0694143
1.10527
-0.0423485
0.537583
-0.0768235
-0.148552
1.27578
-0.343806
2.33984
-0.565253
3.30875
-0.801929
4.85401
-1.07931
7.05855
-1.36799
9.96267
-1.65015
13.7828
-1.88451
18.6487
-1.93497
23.8914
-1.84093
29.1087
-1.60023
28.1609
-1.28097
20.8099
-0.959473
14.5676
-0.668208
9.69113
-0.422945
6.09808
-0.228695
3.59896
-0.11701
1.90829
-0.0830583
1.07132
-0.0541282
0.508653
-0.130952
-0.185861
1.46164
-0.41544
2.56942
-0.678836
3.57215
-0.986555
5.16173
-1.32737
7.39936
-1.65929
10.2946
-1.97211
14.0956
-2.21225
18.8888
-2.24199
23.9212
-2.11452
28.9812
-1.81105
27.8574
-1.42889
20.4277
-1.04612
14.1848
-0.721832
9.36684
-0.462728
5.83898
-0.252007
3.38824
-0.154419
1.8107
-0.12043
1.03733
-0.0698624
0.458086
-0.200814
-0.227793
1.68944
-0.486686
2.82832
-0.837379
3.92284
-1.22933
5.55368
-1.6249
7.79494
-2.00285
10.6725
-2.36017
14.4529
-2.59254
19.1212
-2.58578
23.9144
-2.41498
28.8104
-2.03344
27.4759
-1.57391
19.9682
-1.14486
13.7558
-0.777518
8.9995
-0.495382
5.55684
-0.278421
3.17128
-0.189872
1.72215
-0.171566
1.01902
-0.106483
0.393004
-0.307297
-0.358703
2.04814
-0.770624
3.24024
-1.18461
4.33682
-1.59733
5.9664
-2.02687
8.22448
-2.44886
11.0945
-2.83163
14.8357
-3.02324
19.3128
-2.97275
23.8639
-2.73981
28.5775
-2.27024
27.0063
-1.74114
19.4391
-1.24896
13.2636
-0.818162
8.5687
-0.500401
5.23908
-0.265804
2.93668
-0.183607
1.63996
-0.166407
1.00182
-0.102496
0.329093
-0.409793
-0.27345
2.32159
-0.612428
3.57921
-0.967806
4.6922
-1.38656
6.38516
-1.8405
8.67842
-2.3074
11.5614
-2.77468
15.3029
-3.04746
19.5856
-3.14204
23.9585
-3.0261
28.4615
-2.58164
26.5619
-1.96933
18.8268
-1.35336
12.6476
-0.821038
8.03638
-0.418342
4.83639
-0.153409
2.67175
-0.0639893
1.55054
-0.0301963
0.968029
-0.0446878
0.343584
-0.454481
-0.162563
2.48415
-0.406636
3.82329
-0.689885
4.97545
-0.994976
6.69025
-1.3128
8.99624
-1.63979
11.8884
-1.96493
15.6281
-2.12439
19.745
-2.15405
23.9881
-1.98648
28.294
-1.55544
26.1308
-1.02931
18.3006
-0.542332
12.1606
-0.16373
7.65777
0.11548
4.55718
0.2161
2.57113
0.224373
1.54226
0.162647
1.02975
0.0654743
0.440757
-0.389006
-0.109081
2.59323
-0.245632
3.95984
-0.449763
5.17958
-0.679698
6.92019
-0.91837
9.23491
-1.14475
12.1148
-1.34848
15.8318
-1.4315
19.8281
-1.39903
23.9557
-1.18084
28.0758
-0.790079
25.7401
-0.388797
17.8994
-0.0508865
11.8227
0.186647
7.42024
0.319718
4.42411
0.306389
2.58445
0.240014
1.60864
0.171215
1.09855
0.0921888
0.519784
-0.296818
-0.0848202
2.67805
-0.214088
4.08911
-0.359829
5.32532
-0.499057
7.05941
-0.64295
9.3788
-0.785841
12.2577
-0.901276
15.9472
-0.926826
19.8536
-0.844382
23.8732
-0.596947
27.8283
-0.248968
25.3921
0.0540921
17.5963
0.299981
11.5768
0.44963
7.27059
0.518592
4.35514
0.490975
2.61207
0.381592
1.71802
0.238866
1.24128
0.0921968
0.666453
-0.204621
-0.0477027
2.72576
-0.142801
4.18421
-0.244161
5.42668
-0.346011
7.16127
-0.444639
9.47743
-0.533948
12.347
-0.585301
15.9986
-0.564574
19.8329
-0.442757
23.7514
-0.181755
27.5673
0.111997
25.0983
0.367338
17.341
0.504687
11.4395
0.57612
7.19916
0.557538
4.37373
0.446932
2.72268
0.302547
1.86241
0.187533
1.35629
0.093496
0.76049
-0.111125
-0.0272624
2.75302
-0.119921
4.27686
-0.198859
5.50562
-0.249585
7.21199
-0.302116
9.52996
-0.353049
12.3979
-0.362897
16.0084
-0.310161
19.7802
-0.173907
23.6152
0.0797885
27.3136
0.350793
24.8273
0.547492
17.1443
0.655316
11.3317
0.693604
7.16087
0.638386
4.42894
0.521324
2.83974
0.3794
2.00433
0.240035
1.49566
0.108133
0.892392
-0.00299219
-0.00526697
2.75829
-0.0894131
4.36101
-0.155399
5.57161
-0.18825
7.24484
-0.21818
9.55989
-0.233724
12.4135
-0.217058
15.9918
-0.14744
19.7105
-0.000108815
23.4678
0.225157
27.0884
0.487864
24.5646
0.656621
16.9755
0.740418
11.2479
0.746486
7.1548
0.683187
4.49224
0.552054
2.97087
0.381667
2.17472
0.230942
1.64639
0.0812761
1.04206
0.078284
0.00517852
2.75311
-0.0605463
4.42674
-0.12037
5.63143
-0.149476
7.27395
-0.15875
9.56917
-0.158132
12.4129
-0.127285
15.9609
-0.0515321
19.6348
0.0891412
23.3272
0.314972
26.8625
0.563834
24.3158
0.721954
16.8174
0.805816
11.164
0.80703
7.15359
0.689842
4.60943
0.508438
3.15228
0.333456
2.3497
0.172956
1.80689
0.0560534
1.15896
0.134337
0.00447774
2.74863
-0.0350239
4.46624
-0.0707161
5.66712
-0.114431
7.31766
-0.124697
9.57943
-0.117793
12.4059
-0.0783592
15.9215
0.00484741
19.5516
0.137668
23.1943
0.358278
26.6419
0.595721
24.0783
0.737862
16.6752
0.802551
11.0993
0.773611
7.18253
0.666092
4.71695
0.503325
3.31504
0.319841
2.53318
0.160776
1.96595
0.0449003
1.27484
0.179238
0.0132443
2.73539
-0.0219508
4.50143
-0.0580917
5.70326
-0.099432
7.359
-0.109518
9.58952
-0.0979227
12.3944
-0.0548232
15.8784
0.0227925
19.474
0.155538
23.0616
0.364977
26.4325
0.590713
23.8526
0.721369
16.5446
0.789494
11.0312
0.761709
7.21031
0.61379
4.86487
0.429793
3.49904
0.266108
2.69687
0.124528
2.10753
0.023431
1.37593
0.202669
0.0212212
2.71416
0.00687952
4.51577
-0.0178572
5.728
-0.0566135
7.39776
-0.0916999
9.62461
-0.0885376
12.3912
-0.0464141
15.8363
0.0278293
19.3997
0.153155
22.9363
0.346271
26.2394
0.557536
23.6413
0.671782
16.4303
0.72068
10.9823
0.67414
7.25685
0.553818
4.98519
0.388132
3.66473
0.210593
2.87441
0.0742786
2.24384
0.00217119
1.44804
0.20484
0.0124033
2.70176
-0.0101546
4.53833
-0.0350832
5.75293
-0.0568888
7.41956
-0.0825155
9.65023
-0.0830116
12.3917
-0.0450134
15.7983
0.0247484
19.33
0.138088
22.8229
0.312488
26.065
0.506436
23.4474
0.605712
16.3311
0.653769
10.9342
0.608943
7.30168
0.462666
5.13147
0.300092
3.8273
0.170255
3.00424
0.051155
2.36294
-0.00780455
1.507
0.197035
0.0232088
2.67855
0.00978653
4.55175
-0.0110743
5.77379
-0.0451988
7.45369
-0.0695988
9.67463
-0.0779273
12.4
-0.0472911
15.7676
0.0169118
19.2658
0.115932
22.7239
0.270991
25.9099
0.442421
23.2759
0.522984
16.2505
0.550016
10.9072
0.496354
7.35534
0.38757
5.24025
0.242843
3.97203
0.0967911
3.1503
0.00213738
2.4576
-0.0222395
1.53138
0.174796
0.0080308
2.67052
-0.01709
4.57687
-0.0422333
5.79893
-0.0571821
7.46864
-0.0704856
9.68794
-0.0756682
12.4052
-0.0503091
15.7423
0.00792645
19.2075
0.0922622
22.6396
0.226638
25.7755
0.369973
23.1326
0.437318
16.1832
0.457986
10.8865
0.400191
7.41314
0.277448
5.363
0.151515
4.09796
0.059789
3.24202
-0.024122
2.54151
-0.0361872
1.54344
0.138609
0.0103946
2.66013
-0.00823015
4.5955
-0.028208
5.81891
-0.0542592
7.49469
-0.0678119
9.70149
-0.0747667
12.4122
-0.0537789
15.7213
-0.00574029
19.1595
0.0690035
22.5648
0.18192
25.6626
0.296043
23.0185
0.350994
16.1282
0.353037
10.8845
0.284886
7.48129
0.189793
5.45809
0.0707165
4.21704
-0.0396505
3.35239
-0.0898083
2.59167
-0.0511427
1.50478
0.0874661
-0.00161999
2.66175
-0.0330293
4.62691
-0.0543958
5.84028
-0.0678897
7.50818
-0.0739777
9.70758
-0.0776076
12.4158
-0.0575747
15.7013
-0.0160368
19.1179
0.0486567
22.5001
0.139425
25.5718
0.227748
22.9302
0.269841
16.0861
0.260203
10.8941
0.177776
7.56371
0.0719103
5.56395
-0.0170869
4.30603
-0.0732528
3.40856
-0.111367
2.62978
-0.0617682
1.45518
0.025698
-0.00459244
2.66634
-0.0248596
4.64718
-0.0424699
5.85789
-0.0663218
7.53203
-0.0747373
9.71599
-0.0802846
12.4213
-0.06188
15.6828
-0.0254481
19.0815
0.0301651
22.4445
0.10082
25.5012
0.167416
22.8636
0.194369
16.0592
0.166444
10.9221
0.0752408
7.65492
-0.0202855
5.65948
-0.110995
4.39674
-0.175431
3.47299
-0.166085
2.62044
-0.0766814
1.36577
-0.0509834
-0.012425
2.67876
-0.0435974
4.67835
-0.0613899
5.87568
-0.0760548
7.5467
-0.0809783
9.72092
-0.0847099
12.4251
-0.0672145
15.6654
-0.0342421
19.0485
0.0125204
22.3978
0.0677378
25.446
0.11536
22.816
0.126728
16.0478
0.0784832
10.9703
-0.029403
7.7628
-0.137995
5.76807
-0.203505
4.46225
-0.214472
3.48396
-0.190582
2.59655
-0.0877559
1.26295
-0.138739
-0.0150103
2.69377
-0.0345749
4.69791
-0.0499303
5.89104
-0.0719401
7.56871
-0.0808792
9.72985
-0.0873472
12.4315
-0.0724674
15.6505
-0.0423184
19.0184
-0.0033031
22.3587
0.040645
25.402
0.0710015
22.7856
0.0659658
16.0528
-0.00365421
11.0399
-0.114358
7.87351
-0.226269
5.87998
-0.301942
4.53793
-0.321051
3.50307
-0.221058
2.49655
-0.0565328
1.09842
-0.195272
-0.0183049
2.71208
-0.0468464
4.72645
-0.0637765
5.90797
-0.0775806
7.58251
-0.0830155
9.73529
-0.089452
12.438
-0.0763821
15.6374
-0.0493336
18.9913
-0.0174677
22.3269
0.0196435
25.3649
0.0349744
22.7703
0.00857913
16.0792
-0.0661312
11.1146
-0.193503
8.00088
-0.328529
6.01501
-0.400915
4.61031
-0.368751
3.4709
-0.20549
2.33329
0.103859
0.789073
-0.0914134
-0.0212126
2.73329
-0.0381932
4.74344
-0.0544696
5.92424
-0.0742837
7.60233
-0.0838996
9.74491
-0.0951564
12.4492
-0.0855013
15.6277
-0.0619603
18.9678
-0.0349736
22.2999
-0.00475322
25.3347
0.00384761
22.7617
-0.0327518
16.1158
-0.139284
11.2212
-0.291752
8.15335
-0.431489
6.15475
-0.536776
4.7156
-0.567624
3.50175
-0.370861
2.13653
-0.309495
0.727707
0.574032
-0.97494
-0.0249087
2.7582
-0.0456203
4.76415
-0.0663833
5.94501
-0.0770207
7.61296
-0.0862046
9.75409
-0.0990501
12.4621
-0.0918968
15.6206
-0.0718189
18.9477
-0.0482409
22.2763
-0.0248966
25.3113
-0.0259986
22.7628
-0.0803165
16.1701
-0.213171
11.354
-0.400108
8.34028
-0.589762
6.3444
-0.738722
4.86456
-0.774012
3.53704
-0.686249
2.04877
-1.1216
1.16306
1.18354
-1.73111
-0.025817
2.78402
-0.0368583
4.77519
-0.057833
5.96598
-0.0704755
7.62561
-0.0842522
9.76787
-0.100385
12.4782
-0.0961564
15.6164
-0.0797988
18.9314
-0.0604801
22.257
-0.0442972
25.2952
-0.0554157
22.7739
-0.127374
16.2421
-0.287899
11.5146
-0.503796
8.55618
-0.718121
6.55872
-0.908669
5.05511
-0.9197
3.54807
-1.0195
2.14857
-1.50458
1.64814
1.5237
-1.84474
-0.0271306
2.81115
-0.0416047
4.78966
-0.0665167
5.99089
-0.0711621
7.63025
-0.0845688
9.78127
-0.100723
12.4944
-0.0983584
15.614
-0.0854212
18.9184
-0.0707159
22.2423
-0.0618562
25.2863
-0.0827547
22.7948
-0.170856
16.3302
-0.361237
11.7049
-0.613725
8.80867
-0.892641
6.83764
-1.11612
5.27859
-1.15542
3.58737
-1.43059
2.42374
-1.79282
2.01037
1.73512
-2.00424
-0.0256175
2.83677
-0.0348801
4.79892
-0.0555836
6.0116
-0.0656906
7.64036
-0.0808259
9.79641
-0.0979231
12.5115
-0.0977188
15.6138
-0.0887007
18.9094
-0.0791473
22.2327
-0.0776926
25.2849
-0.107191
22.8243
-0.210618
16.4336
-0.429849
11.9242
-0.724171
9.10299
-0.998735
7.1122
-1.13504
5.4149
-1.19923
3.65155
-1.52924
2.75376
-1.87033
2.35146
1.94828
-2.0835
-0.0238327
2.8606
-0.0410857
4.81618
-0.0608974
6.03141
-0.0704656
7.64993
-0.0819276
9.80787
-0.0970726
12.5266
-0.0979404
15.6147
-0.0920743
18.9035
-0.0867949
22.2275
-0.0924707
25.2905
-0.129749
22.8616
-0.248307
16.5522
-0.491842
12.1677
-0.798524
9.40967
-1.0753
7.38898
-1.27079
5.61039
-1.54258
3.92334
-1.86701
3.07818
-2.13319
2.61764
2.08775
-2.27266
-0.0212833
2.88188
-0.0359181
4.83081
-0.0533192
6.04881
-0.0708353
7.66744
-0.0855401
9.82258
-0.101243
12.5423
-0.103199
15.6166
-0.0994922
18.8998
-0.0970494
22.225
-0.108093
25.3016
-0.152409
22.9059
-0.28483
16.6846
-0.541562
12.4244
-0.859887
9.728
-1.14623
7.67533
-1.28955
5.75371
-1.53325
4.16705
-1.85975
3.40468
-2.10416
2.86205
2.28456
-2.30097
-0.0175402
2.89942
-0.0420076
4.85528
-0.0628986
6.0697
-0.0777396
7.68228
-0.0921909
9.83703
-0.107284
12.5574
-0.109733
15.6191
-0.107833
18.8979
-0.107652
22.2248
-0.122712
25.3166
-0.173111
22.9563
-0.316101
16.8276
-0.574577
12.6829
-0.88776
10.0412
-1.17153
7.9591
-1.36585
5.94802
-1.71042
4.51161
-2.19542
3.88968
-2.55972
3.22635
2.5778
-2.85296
-0.0143678
2.91379
-0.0332826
4.87419
-0.0539285
6.09035
-0.0774692
7.70583
-0.0977705
9.85733
-0.114866
12.5745
-0.117668
15.6219
-0.117168
18.8974
-0.118466
22.2261
-0.136444
25.3346
-0.194163
23.014
-0.348562
16.982
-0.596751
12.9311
-0.889227
10.3337
-1.18909
8.25897
-1.48495
6.24388
-1.80676
4.83343
-2.24454
4.32746
-2.72159
3.7034
2.77724
-2.92103
-0.0126248
2.92642
-0.0411677
4.90274
-0.066685
6.11586
-0.0863736
7.72551
-0.106373
9.87733
-0.123119
12.5912
-0.125921
15.6247
-0.126278
18.8978
-0.128097
22.2279
-0.147538
25.3541
-0.212345
23.0788
-0.372295
17.1419
-0.623957
13.1828
-0.894246
10.6039
-1.14018
8.5049
-1.44187
6.54557
-1.97834
5.3699
-2.36047
4.70959
-2.82908
4.17202
3.46773
-3.51957
-0.011796
2.93821
-0.0325778
4.92352
-0.0568444
6.14013
-0.08617
7.75484
-0.1124
9.90356
-0.130716
12.6096
-0.133074
15.627
-0.132918
18.8976
-0.134229
22.2293
-0.153296
25.3731
-0.213169
23.1387
-0.366263
17.295
-0.602718
13.4192
-0.84212
10.8433
-1.029
8.69178
-1.30864
6.8252
-1.7008
5.76206
-1.88368
4.89247
-1.37275
3.6611
2.09498
-0.0114868
2.9497
-0.0443599
4.95639
-0.073903
6.16967
-0.0978783
7.77882
-0.121642
9.92732
-0.139204
12.6271
-0.141552
15.6294
-0.141632
18.8977
-0.143532
22.2312
-0.163105
25.3927
-0.221745
23.1973
-0.378127
17.4514
-0.611828
13.6529
-0.829396
11.0609
-0.956279
8.81866
-1.07327
6.94219
-1.09799
5.78678
-0.977627
4.7721
-0.679742
3.36321
1.41523
-0.0127416
2.96244
-0.0349578
4.97861
-0.0624662
6.19718
-0.098056
7.8144
-0.129732
9.959
-0.149718
12.6471
-0.151387
15.6311
-0.150678
18.897
-0.151064
22.2315
-0.167313
25.4089
-0.223456
23.2535
-0.378141
17.6061
-0.593522
13.8683
-0.760794
11.2282
-0.842086
8.89995
-0.908315
7.00842
-0.974881
5.85334
-0.956957
4.75418
-0.790085
3.19634
0.625149
-0.013212
2.97565
-0.0510487
5.01645
-0.0845544
6.23069
-0.111142
7.84099
-0.138877
9.98673
-0.156985
12.6652
-0.158063
15.6321
-0.156372
18.8953
-0.154037
22.2292
-0.163862
25.4188
-0.213751
23.3033
-0.359785
17.7521
-0.54399
14.0525
-0.663853
11.348
-0.745158
8.98126
-0.851307
7.11457
-0.902817
5.90485
-0.846059
4.69742
-0.393354
2.74364
0.231795
-0.0128187
2.98847
-0.0374504
5.04108
-0.0681477
6.26138
-0.108996
7.88184
-0.144453
10.0222
-0.164088
12.6848
-0.16401
15.6321
-0.159705
18.891
-0.15269
22.2222
-0.152988
25.4191
-0.191954
23.3423
-0.32113
17.8813
-0.467198
14.1986
-0.591493
11.4723
-0.68413
9.07389
-0.754665
7.18511
-0.758629
5.90882
-0.574453
4.51325
-0.158844
2.32803
0.0729509
-0.0140078
3.00248
-0.0547718
5.08184
-0.0921279
6.29874
-0.120369
7.91008
-0.14882
10.0506
-0.164659
12.7007
-0.163278
15.6307
-0.156493
18.8842
-0.144011
22.2097
-0.132541
25.4076
-0.158688
23.3685
-0.268936
17.9916
-0.404056
14.3337
-0.52218
11.5905
-0.58437
9.13608
-0.617837
7.21857
-0.577782
5.86876
-0.414698
4.35016
-0.142586
2.05591
-0.0696349
-0.00295465
3.00543
-0.0327173
5.1116
-0.066362
6.33239
-0.111696
7.95542
-0.147335
10.0863
-0.163975
12.7173
-0.159947
15.6266
-0.148185
18.8725
-0.128462
22.19
-0.103451
25.3826
-0.117913
23.3829
-0.216744
18.0904
-0.339149
14.4561
-0.428581
11.6799
-0.457189
9.16469
-0.463989
7.22537
-0.418934
5.82371
-0.300199
4.23143
-0.0664408
1.82216
-0.136076
-0.00970576
3.01514
-0.0506046
5.1525
-0.0898049
6.37159
-0.117098
7.98271
-0.143583
10.1128
-0.154081
12.7278
-0.146041
15.6186
-0.129535
18.856
-0.102047
22.1625
-0.0631301
25.3437
-0.0679756
23.3878
-0.156441
18.1789
-0.256154
14.5558
-0.305279
11.729
-0.320172
9.17958
-0.315252
7.22045
-0.272384
5.78084
-0.169166
4.12821
0.0143652
1.63863
-0.121711
0.0112969
3.00384
-0.0185162
5.18232
-0.0530666
6.40614
-0.0979482
8.02759
-0.131054
10.1459
-0.139744
12.7365
-0.126206
15.6051
-0.102326
18.8321
-0.0649408
22.1251
-0.0149902
25.2937
-0.0121725
23.3849
-0.0823719
18.2491
-0.154352
14.6278
-0.177819
11.7525
-0.172534
9.1743
-0.165933
7.21385
-0.13725
5.75216
-0.0595305
4.05049
0.0527252
1.52637
-0.0689854
0.00657048
2.99727
-0.0332336
5.22212
-0.0737461
6.44665
-0.0913676
8.04521
-0.115833
10.1703
-0.112709
12.7334
-0.0914336
15.5838
-0.0597013
18.8003
-0.0109709
22.0764
0.0502518
25.2325
0.0638786
23.3713
0.00999958
18.3029
-0.0393203
14.6771
-0.0532007
11.7664
-0.0378141
9.15891
-0.00537566
7.18141
0.0102864
5.7365
0.0518822
4.00889
0.0593445
1.51891
-0.00964093
0.0339151
2.96336
0.0176144
5.23842
-0.0119857
6.47625
-0.055017
8.08824
-0.0804297
10.1957
-0.0703022
12.7233
-0.0437286
15.5572
0.00436635
18.7523
0.0579637
22.0228
0.137058
25.1534
0.158661
23.3497
0.118319
18.3433
0.0921492
14.7033
0.0883382
11.7702
0.106482
9.14077
0.131027
7.15687
0.182805
5.68472
0.203675
3.98802
0.0880019
1.63458
0.078361
0.039877
2.92348
0.0077413
5.27056
-0.00753539
6.49153
-0.0322348
8.11294
-0.0282434
10.1918
-0.0103716
12.7054
0.0254672
15.5214
0.0786466
18.6991
0.146978
21.9545
0.241984
25.0584
0.268062
23.3236
0.241527
18.3698
0.228346
14.7165
0.241121
11.7574
0.257173
9.12472
0.287197
7.12684
0.333046
5.63887
0.327646
3.99342
0.136853
1.82537
0.215214
0.0789345
2.84454
0.0994346
5.25006
0.0681874
6.52277
0.0399938
8.14114
0.0505044
10.1812
0.071017
12.6849
0.112357
15.48
0.179363
18.6321
0.262998
21.8708
0.365256
24.9561
0.392462
23.2964
0.375598
18.3867
0.374449
14.7176
0.389228
11.7426
0.404851
9.1091
0.427653
7.10404
0.451563
5.61496
0.404863
4.04013
0.186761
2.04348
0.401974
0.107905
2.73664
0.116539
5.24142
0.114034
6.52528
0.128475
8.1267
0.137548
10.1722
0.180865
12.6416
0.231313
15.4296
0.310637
18.5527
0.408521
21.7729
0.514776
24.8499
0.53845
23.2728
0.523074
18.4021
0.515074
14.7256
0.510079
11.7476
0.499344
9.11983
0.49176
7.11163
0.487394
5.61932
0.431815
4.0957
0.224806
2.25049
0.62678
0.184714
2.55193
0.260257
5.16588
0.274143
6.51139
0.269275
8.13156
0.286523
10.1549
0.336114
12.592
0.396634
15.3691
0.484389
18.465
0.591068
21.6663
0.692754
24.7482
0.705337
23.2602
0.673277
18.4341
0.637762
14.7611
0.59944
11.7859
0.558316
9.16095
0.535921
7.13402
0.519805
5.63544
0.451569
4.16394
0.234529
2.46753
0.861309
0.282007
2.26992
0.414339
5.03355
0.436401
6.48933
0.445305
8.12266
0.478678
10.1216
0.532766
12.5379
0.605041
15.2968
0.705793
18.3642
0.82177
21.5503
0.909995
24.66
0.897953
23.2722
0.832244
18.4998
0.761698
14.8317
0.693462
11.8542
0.623227
9.23119
0.57262
7.18463
0.526887
5.68117
0.435376
4.25545
0.221996
2.68091
1.0833
0.521962
1.74796
0.706632
4.84888
0.727802
6.46816
0.72566
8.1248
0.753046
10.0942
0.80887
12.4821
0.885977
15.2197
0.990065
18.2601
1.10584
21.4345
1.17593
24.5899
1.13625
23.3119
1.04041
18.5957
0.93676
14.9353
0.834392
11.9566
0.724818
9.34076
0.628351
7.2811
0.538334
5.77119
0.415651
4.37813
0.20544
2.89112
1.28874
0.880299
0.867658
1.14454
4.58464
1.12982
6.48288
1.10603
8.14859
1.12392
10.0763
1.17261
12.4334
1.25426
15.138
1.36455
18.1499
1.47723
21.3218
1.52886
24.5383
1.45951
23.3812
1.33635
18.7188
1.2039
15.0678
1.04798
12.1125
0.859403
9.52934
0.682931
7.45757
0.53078
5.92334
0.372576
4.53634
0.168134
3.09556
1.45688
0.794547
0.0731115
1.57964
3.79955
1.71547
6.34705
1.65593
8.20814
1.61727
10.1149
1.64164
12.409
1.72662
15.0531
1.83948
18.037
1.95014
21.2112
1.99865
24.4897
1.92865
23.4512
1.78809
18.8594
1.61164
15.2442
1.39373
12.3304
1.1281
9.79498
0.881212
7.70445
0.667629
6.13693
0.451561
4.75241
0.202865
3.34425
1.65974
0.626893
-0.553782
1.79605
2.63039
2.18562
5.95747
2.21473
8.17902
2.21028
10.1194
2.25783
12.3614
2.35362
14.9573
2.47829
17.9123
2.60768
21.0818
2.67863
24.4188
2.61497
23.5149
2.44171
19.0327
2.20524
15.4807
1.93493
12.6007
1.62002
10.1099
1.28534
8.03913
0.955135
6.46713
0.628027
5.07951
0.286649
3.68563
1.94639
0.424743
-0.978525
1.70979
1.34534
2.17294
5.49433
2.24793
8.10403
2.22507
10.1423
2.21599
12.3705
2.23119
14.9421
2.25845
17.8851
2.27455
21.0657
2.20893
24.4844
2.04271
23.6811
1.83751
19.2378
1.60929
15.7089
1.35446
12.8555
1.10168
10.3627
0.875402
8.26541
0.66535
6.67718
0.450547
5.29432
0.211989
3.92419
2.15838
0.176925
-1.15545
0.73431
0.787957
1.22182
5.00682
1.41269
7.91316
1.42524
10.1297
1.44333
12.3524
1.51253
14.8729
1.61051
17.7871
1.6893
20.9869
1.67564
24.4981
1.55595
23.8008
1.39701
19.3968
1.22277
15.8831
1.04241
13.0359
0.838445
10.5666
0.641821
8.46203
0.470658
6.84834
0.307117
5.45786
0.14158
4.08973
2.29996
0.052513
-1.20796
-0.0699
0.91037
0.185239
4.75168
0.386091
7.71231
0.550696
9.9651
0.712128
12.191
0.863314
14.7217
1.03206
17.6183
1.16848
20.8505
1.21283
24.4537
1.14867
23.865
1.04548
19.5
0.919497
16.0091
0.779564
13.1758
0.623791
10.7224
0.473909
8.61191
0.342755
6.9795
0.217928
5.58268
0.0895328
4.21812
2.38949
-0.281298
-0.926665
-0.709273
1.33834
-0.821683
4.86409
-0.579218
7.46984
-0.260272
9.64615
0.025989
11.9047
0.276746
14.4709
0.512947
17.3821
0.706876
20.6565
0.814396
24.3462
0.816511
23.8629
0.762105
19.5544
0.676092
16.0951
0.574568
13.2773
0.45809
10.8389
0.341162
8.72884
0.239474
7.08119
0.144076
5.67808
0.0510547
4.31114
2.44055
-0.415013
-0.511651
-0.908141
1.83147
-1.0291
4.98504
-0.922209
7.36295
-0.720705
9.44465
-0.458614
11.6426
-0.166072
14.1784
0.10678
17.1093
0.342265
20.4211
0.499201
24.1893
0.552769
23.8093
0.537154
19.57
0.485013
16.1473
0.413847
13.3485
0.32666
10.9261
0.237606
8.8179
0.163647
7.15515
0.0908517
5.75088
0.0198307
4.38216
2.46038
-0.419534
-0.0921176
-0.863847
2.27579
-0.923332
5.04453
-0.901427
7.34105
-0.806803
9.35002
-0.644151
11.48
-0.408219
13.9425
-0.142842
16.8439
0.0887731
20.1894
0.267638
24.0104
0.348293
23.7286
0.358729
19.5596
0.334597
16.1714
0.290377
13.3927
0.22904
10.9874
0.159019
8.88792
0.0983823
7.21578
0.0390835
5.81018
-0.0123944
4.43364
2.44799
-0.417942
0.325824
-0.73576
2.59361
-0.818695
5.12747
-0.776666
7.29902
-0.702165
9.27552
-0.615473
11.3933
-0.471768
13.7987
-0.266383
16.6385
-0.0517231
19.9748
0.112097
23.8466
0.201674
23.6391
0.227439
19.5338
0.223509
16.1753
0.197477
13.4188
0.15155
11.0333
0.0924975
8.94697
0.0404453
7.26784
-0.00664594
5.85727
-0.0383092
4.46531
2.40968
-0.305373
0.631197
-0.566804
2.85504
-0.673169
5.23383
-0.650632
7.27648
-0.590594
9.21548
-0.5181
11.3208
-0.425493
13.7061
-0.288028
16.5011
-0.124603
19.8114