/*--------------------------------*- C++ -*----------------------------------*\
| =========                 |                                                 |
| \\      /  F ield         | OpenFOAM: The Open Source CFD Toolbox           |
|  \\    /   O peration     | Version:  2412                                  |
|   \\  /    A nd           | Website:  www.openfoam.com                      |
|    \\/     M anipulation  |                                                 |
\*---------------------------------------------------------------------------*/
FoamFile
{
    version     2.0;
    format      ascii;
    arch        "LSB;label=32;scalar=64";
    class       volVectorField;
    location    "0.06";
    object      U;
}
// * * * * * * * * * * * * * * * * * * * * * * * * * * * * * * * * * * * * * //

dimensions      [0 1 -1 0 0 0 0];

internalField   nonuniform List<vector> 
800
(
(0.00330349 0 0)
(0.00991049 0 0)
(0.0165171 0 0)
(0.0231232 0 0)
(0.0297284 0 0)
(0.0363325 0 0)
(0.0429353 0 0)
(0.0495364 0 0)
(0.0561358 0 0)
(0.0627331 0 0)
(0.069328 0 0)
(0.0759205 0 0)
(0.0825101 0 0)
(0.0890967 0 0)
(0.0956799 0 0)
(0.10226 0 0)
(0.108836 0 0)
(0.115408 0 0)
(0.121975 0 0)
(0.128539 0 0)
(0.135097 0 0)
(0.141651 0 0)
(0.148199 0 0)
(0.154742 0 0)
(0.161279 0 0)
(0.16781 0 0)
(0.174335 0 0)
(0.180853 0 0)
(0.187365 0 0)
(0.19387 0 0)
(0.200367 0 0)
(0.206857 0 0)
(0.21334 0 0)
(0.219814 0 0)
(0.226281 0 0)
(0.232738 0 0)
(0.239188 0 0)
(0.245628 0 0)
(0.252059 0 0)
(0.258481 0 0)
(0.264893 0 0)
(0.271295 0 0)
(0.277687 0 0)
(0.284069 0 0)
(0.29044 0 0)
(0.2968 0 0)
(0.303149 0 0)
(0.309486 0 0)
(0.315812 0 0)
(0.322126 0 0)
(0.328428 0 0)
(0.334717 0 0)
(0.340994 0 0)
(0.347258 0 0)
(0.353508 0 0)
(0.359746 0 0)
(0.365969 0 0)
(0.372179 0 0)
(0.378374 0 0)
(0.384556 0 0)
(0.390722 0 0)
(0.396873 0 0)
(0.40301 0 0)
(0.409131 0 0)
(0.415236 0 0)
(0.421325 0 0)
(0.427398 0 0)
(0.433455 0 0)
(0.439495 0 0)
(0.445518 0 0)
(0.451523 0 0)
(0.457512 0 0)
(0.463482 0 0)
(0.469435 0 0)
(0.475369 0 0)
(0.481285 0 0)
(0.487182 0 0)
(0.493059 0 0)
(0.498918 0 0)
(0.504757 0 0)
(0.510576 0 0)
(0.516375 0 0)
(0.522154 0 0)
(0.527912 0 0)
(0.53365 0 0)
(0.539366 0 0)
(0.545061 0 0)
(0.550734 0 0)
(0.556385 0 0)
(0.562014 0 0)
(0.56762 0 0)
(0.573204 0 0)
(0.578765 0 0)
(0.584303 0 0)
(0.589817 0 0)
(0.595307 0 0)
(0.600773 0 0)
(0.606215 0 0)
(0.611632 0 0)
(0.617024 0 0)
(0.622392 0 0)
(0.627733 0 0)
(0.633049 0 0)
(0.63834 0 0)
(0.643603 0 0)
(0.648841 0 0)
(0.654051 0 0)
(0.659235 0 0)
(0.664391 0 0)
(0.66952 0 0)
(0.67462 0 0)
(0.679693 0 0)
(0.684737 0 0)
(0.689752 0 0)
(0.694738 0 0)
(0.699696 0 0)
(0.704623 0 0)
(0.709521 0 0)
(0.714388 0 0)
(0.719225 0 0)
(0.724032 0 0)
(0.728807 0 0)
(0.733552 0 0)
(0.738264 0 0)
(0.742945 0 0)
(0.747594 0 0)
(0.75221 0 0)
(0.756794 0 0)
(0.761345 0 0)
(0.765862 0 0)
(0.770346 0 0)
(0.774796 0 0)
(0.779212 0 0)
(0.783594 0 0)
(0.787941 0 0)
(0.792253 0 0)
(0.79653 0 0)
(0.800771 0 0)
(0.804976 0 0)
(0.809145 0 0)
(0.813278 0 0)
(0.817374 0 0)
(0.821433 0 0)
(0.825454 0 0)
(0.829438 0 0)
(0.833384 0 0)
(0.837292 0 0)
(0.841161 0 0)
(0.844992 0 0)
(0.848783 0 0)
(0.852535 0 0)
(0.856248 0 0)
(0.85992 0 0)
(0.863552 0 0)
(0.867143 0 0)
(0.870694 0 0)
(0.874203 0 0)
(0.877671 0 0)
(0.881097 0 0)
(0.884481 0 0)
(0.887823 0 0)
(0.891122 0 0)
(0.894377 0 0)
(0.89759 0 0)
(0.900759 0 0)
(0.903884 0 0)
(0.906965 0 0)
(0.910001 0 0)
(0.912992 0 0)
(0.915939 0 0)
(0.918839 0 0)
(0.921695 0 0)
(0.924504 0 0)
(0.927266 0 0)
(0.929982 0 0)
(0.932651 0 0)
(0.935273 0 0)
(0.937847 0 0)
(0.940374 0 0)
(0.942852 0 0)
(0.945281 0 0)
(0.947662 0 0)
(0.949994 0 0)
(0.952276 0 0)
(0.954508 0 0)
(0.956691 0 0)
(0.958823 0 0)
(0.960904 0 0)
(0.962935 0 0)
(0.964914 0 0)
(0.966842 0 0)
(0.968718 0 0)
(0.970541 0 0)
(0.972312 0 0)
(0.974031 0 0)
(0.975696 0 0)
(0.977308 0 0)
(0.978866 0 0)
(0.98037 0 0)
(0.98182 0 0)
(0.983215 0 0)
(0.984555 0 0)
(0.985841 0 0)
(0.98707 0 0)
(0.988244 0 0)
(0.989361 0 0)
(0.990423 0 0)
(0.991427 0 0)
(0.992375 0 0)
(0.993265 0 0)
(0.994098 0 0)
(0.994873 0 0)
(0.995589 0 0)
(0.996247 0 0)
(0.996847 0 0)
(0.997387 0 0)
(0.997868 0 0)
(0.998289 0 0)
(0.99865 0 0)
(0.998952 0 0)
(0.999192 0 0)
(0.999372 0 0)
(0.999491 0 0)
(0.999549 0 0)
(0.999545 0 0)
(0.999479 0 0)
(0.999351 0 0)
(0.999161 0 0)
(0.998908 0 0)
(0.998592 0 0)
(0.998212 0 0)
(0.99777 0 0)
(0.997263 0 0)
(0.996693 0 0)
(0.996058 0 0)
(0.995359 0 0)
(0.994595 0 0)
(0.993766 0 0)
(0.992872 0 0)
(0.991912 0 0)
(0.990887 0 0)
(0.989796 0 0)
(0.988638 0 0)
(0.987414 0 0)
(0.986124 0 0)
(0.984766 0 0)
(0.983342 0 0)
(0.98185 0 0)
(0.980291 0 0)
(0.978663 0 0)
(0.976968 0 0)
(0.975205 0 0)
(0.973374 0 0)
(0.971474 0 0)
(0.969505 0 0)
(0.967467 0 0)
(0.965361 0 0)
(0.963185 0 0)
(0.960939 0 0)
(0.958624 0 0)
(0.95624 0 0)
(0.953785 0 0)
(0.95126 0 0)
(0.948665 0 0)
(0.946 0 0)
(0.943264 0 0)
(0.940458 0 0)
(0.937581 0 0)
(0.934633 0 0)
(0.931614 0 0)
(0.928524 0 0)
(0.925362 0 0)
(0.92213 0 0)
(0.918826 0 0)
(0.915451 0 0)
(0.912004 0 0)
(0.908485 0 0)
(0.904895 0 0)
(0.901233 0 0)
(0.8975 0 0)
(0.893695 0 0)
(0.889818 0 0)
(0.885869 0 0)
(0.881848 0 0)
(0.877755 0 0)
(0.87359 0 0)
(0.869354 0 0)
(0.865046 0 0)
(0.860666 0 0)
(0.856214 0 0)
(0.85169 0 0)
(0.847095 0 0)
(0.842428 0 0)
(0.837689 0 0)
(0.832879 0 0)
(0.827998 0 0)
(0.823045 0 0)
(0.818021 0 0)
(0.812926 0 0)
(0.807759 0 0)
(0.802522 0 0)
(0.797215 0 0)
(0.791837 0 0)
(0.786388 0 0)
(0.780869 0 0)
(0.77528 0 0)
(0.769621 0 0)
(0.763893 0 0)
(0.758095 0 0)
(0.752229 0 0)
(0.746293 0 0)
(0.740288 0 0)
(0.734216 0 0)
(0.728074 0 0)
(0.721866 0 0)
(0.715589 0 0)
(0.709245 0 0)
(0.702835 0 0)
(0.696358 0 0)
(0.689814 0 0)
(0.683205 0 0)
(0.67653 0 0)
(0.66979 0 0)
(0.662985 0 0)
(0.656116 0 0)
(0.649183 0 0)
(0.642186 0 0)
(0.635127 0 0)
(0.628004 0 0)
(0.62082 0 0)
(0.613574 0 0)
(0.606267 0 0)
(0.598899 0 0)
(0.591471 0 0)
(0.583984 0 0)
(0.576437 0 0)
(0.568832 0 0)
(0.561169 0 0)
(0.553449 0 0)
(0.545672 0 0)
(0.537839 0 0)
(0.52995 0 0)
(0.522006 0 0)
(0.514009 0 0)
(0.505957 0 0)
(0.497853 0 0)
(0.489697 0 0)
(0.481489 0 0)
(0.47323 0 0)
(0.464921 0 0)
(0.456563 0 0)
(0.448156 0 0)
(0.439702 0 0)
(0.4312 0 0)
(0.422652 0 0)
(0.414059 0 0)
(0.405421 0 0)
(0.396739 0 0)
(0.388014 0 0)
(0.379247 0 0)
(0.370438 0 0)
(0.361589 0 0)
(0.352701 0 0)
(0.343774 0 0)
(0.334809 0 0)
(0.325807 0 0)
(0.316769 0 0)
(0.307696 0 0)
(0.298589 0 0)
(0.289449 0 0)
(0.280277 0 0)
(0.271073 0 0)
(0.261839 0 0)
(0.252576 0 0)
(0.243284 0 0)
(0.233965 0 0)
(0.22462 0 0)
(0.21525 0 0)
(0.205855 0 0)
(0.196437 0 0)
(0.186997 0 0)
(0.177535 0 0)
(0.168054 0 0)
(0.158553 0 0)
(0.149035 0 0)
(0.139499 0 0)
(0.129948 0 0)
(0.120382 0 0)
(0.110802 0 0)
(0.10121 0 0)
(0.0916055 0 0)
(0.0819909 0 0)
(0.072367 0 0)
(0.0627349 0 0)
(0.0530955 0 0)
(0.0434501 0 0)
(0.0337997 0 0)
(0.0241454 0 0)
(0.0144883 0 0)
(0.00482963 0 0)
(-0.00482963 0 0)
(-0.0144883 0 0)
(-0.0241454 0 0)
(-0.0337997 0 0)
(-0.0434501 0 0)
(-0.0530955 0 0)
(-0.0627348 0 0)
(-0.072367 0 0)
(-0.0819909 0 0)
(-0.0916054 0 0)
(-0.101209 0 0)
(-0.110802 0 0)
(-0.120382 0 0)
(-0.129948 0 0)
(-0.139499 0 0)
(-0.149035 0 0)
(-0.158553 0 0)
(-0.168054 0 0)
(-0.177535 0 0)
(-0.186997 0 0)
(-0.196437 0 0)
(-0.205855 0 0)
(-0.215249 0 0)
(-0.22462 0 0)
(-0.233965 0 0)
(-0.243284 0 0)
(-0.252575 0 0)
(-0.261839 0 0)
(-0.271073 0 0)
(-0.280276 0 0)
(-0.289449 0 0)
(-0.298589 0 0)
(-0.307696 0 0)
(-0.316769 0 0)
(-0.325806 0 0)
(-0.334808 0 0)
(-0.343773 0 0)
(-0.3527 0 0)
(-0.361589 0 0)
(-0.370438 0 0)
(-0.379246 0 0)
(-0.388013 0 0)
(-0.396738 0 0)
(-0.40542 0 0)
(-0.414058 0 0)
(-0.422651 0 0)
(-0.431199 0 0)
(-0.439701 0 0)
(-0.448155 0 0)
(-0.456562 0 0)
(-0.46492 0 0)
(-0.473229 0 0)
(-0.481488 0 0)
(-0.489696 0 0)
(-0.497852 0 0)
(-0.505956 0 0)
(-0.514008 0 0)
(-0.522005 0 0)
(-0.529949 0 0)
(-0.537838 0 0)
(-0.545671 0 0)
(-0.553448 0 0)
(-0.561168 0 0)
(-0.568831 0 0)
(-0.576436 0 0)
(-0.583983 0 0)
(-0.59147 0 0)
(-0.598898 0 0)
(-0.606266 0 0)
(-0.613573 0 0)
(-0.620819 0 0)
(-0.628003 0 0)
(-0.635126 0 0)
(-0.642185 0 0)
(-0.649182 0 0)
(-0.656115 0 0)
(-0.662984 0 0)
(-0.669789 0 0)
(-0.676529 0 0)
(-0.683204 0 0)
(-0.689813 0 0)
(-0.696357 0 0)
(-0.702834 0 0)
(-0.709244 0 0)
(-0.715588 0 0)
(-0.721865 0 0)
(-0.728073 0 0)
(-0.734215 0 0)
(-0.740287 0 0)
(-0.746292 0 0)
(-0.752228 0 0)
(-0.758094 0 0)
(-0.763892 0 0)
(-0.76962 0 0)
(-0.775279 0 0)
(-0.780868 0 0)
(-0.786387 0 0)
(-0.791836 0 0)
(-0.797214 0 0)
(-0.802522 0 0)
(-0.807759 0 0)
(-0.812925 0 0)
(-0.81802 0 0)
(-0.823044 0 0)
(-0.827997 0 0)
(-0.832878 0 0)
(-0.837688 0 0)
(-0.842427 0 0)
(-0.847094 0 0)
(-0.851689 0 0)
(-0.856213 0 0)
(-0.860665 0 0)
(-0.865045 0 0)
(-0.869353 0 0)
(-0.87359 0 0)
(-0.877754 0 0)
(-0.881847 0 0)
(-0.885868 0 0)
(-0.889817 0 0)
(-0.893694 0 0)
(-0.897499 0 0)
(-0.901233 0 0)
(-0.904895 0 0)
(-0.908485 0 0)
(-0.912003 0 0)
(-0.91545 0 0)
(-0.918825 0 0)
(-0.922129 0 0)
(-0.925362 0 0)
(-0.928523 0 0)
(-0.931613 0 0)
(-0.934632 0 0)
(-0.93758 0 0)
(-0.940457 0 0)
(-0.943264 0 0)
(-0.946 0 0)
(-0.948665 0 0)
(-0.95126 0 0)
(-0.953785 0 0)
(-0.956239 0 0)
(-0.958624 0 0)
(-0.960939 0 0)
(-0.963184 0 0)
(-0.96536 0 0)
(-0.967467 0 0)
(-0.969505 0 0)
(-0.971474 0 0)
(-0.973374 0 0)
(-0.975205 0 0)
(-0.976968 0 0)
(-0.978663 0 0)
(-0.98029 0 0)
(-0.98185 0 0)
(-0.983342 0 0)
(-0.984766 0 0)
(-0.986124 0 0)
(-0.987414 0 0)
(-0.988638 0 0)
(-0.989796 0 0)
(-0.990887 0 0)
(-0.991912 0 0)
(-0.992872 0 0)
(-0.993766 0 0)
(-0.994595 0 0)
(-0.995359 0 0)
(-0.996058 0 0)
(-0.996693 0 0)
(-0.997263 0 0)
(-0.99777 0 0)
(-0.998212 0 0)
(-0.998592 0 0)
(-0.998908 0 0)
(-0.999161 0 0)
(-0.999351 0 0)
(-0.999479 0 0)
(-0.999545 0 0)
(-0.999549 0 0)
(-0.999491 0 0)
(-0.999372 0 0)
(-0.999192 0 0)
(-0.998952 0 0)
(-0.99865 0 0)
(-0.998289 0 0)
(-0.997868 0 0)
(-0.997387 0 0)
(-0.996847 0 0)
(-0.996247 0 0)
(-0.995589 0 0)
(-0.994872 0 0)
(-0.994098 0 0)
(-0.993265 0 0)
(-0.992375 0 0)
(-0.991427 0 0)
(-0.990423 0 0)
(-0.989361 0 0)
(-0.988244 0 0)
(-0.98707 0 0)
(-0.98584 0 0)
(-0.984555 0 0)
(-0.983215 0 0)
(-0.98182 0 0)
(-0.98037 0 0)
(-0.978866 0 0)
(-0.977308 0 0)
(-0.975696 0 0)
(-0.974031 0 0)
(-0.972312 0 0)
(-0.970541 0 0)
(-0.968717 0 0)
(-0.966842 0 0)
(-0.964914 0 0)
(-0.962935 0 0)
(-0.960904 0 0)
(-0.958823 0 0)
(-0.956691 0 0)
(-0.954508 0 0)
(-0.952276 0 0)
(-0.949993 0 0)
(-0.947662 0 0)
(-0.945281 0 0)
(-0.942851 0 0)
(-0.940373 0 0)
(-0.937847 0 0)
(-0.935273 0 0)
(-0.932651 0 0)
(-0.929982 0 0)
(-0.927266 0 0)
(-0.924503 0 0)
(-0.921694 0 0)
(-0.918839 0 0)
(-0.915938 0 0)
(-0.912992 0 0)
(-0.91 0 0)
(-0.906964 0 0)
(-0.903883 0 0)
(-0.900758 0 0)
(-0.897589 0 0)
(-0.894377 0 0)
(-0.891121 0 0)
(-0.887822 0 0)
(-0.884481 0 0)
(-0.881097 0 0)
(-0.877671 0 0)
(-0.874203 0 0)
(-0.870693 0 0)
(-0.867143 0 0)
(-0.863551 0 0)
(-0.859919 0 0)
(-0.856247 0 0)
(-0.852535 0 0)
(-0.848783 0 0)
(-0.844991 0 0)
(-0.841161 0 0)
(-0.837291 0 0)
(-0.833384 0 0)
(-0.829438 0 0)
(-0.825454 0 0)
(-0.821432 0 0)
(-0.817373 0 0)
(-0.813277 0 0)
(-0.809144 0 0)
(-0.804975 0 0)
(-0.80077 0 0)
(-0.796529 0 0)
(-0.792252 0 0)
(-0.78794 0 0)
(-0.783593 0 0)
(-0.779212 0 0)
(-0.774796 0 0)
(-0.770346 0 0)
(-0.765862 0 0)
(-0.761344 0 0)
(-0.756793 0 0)
(-0.75221 0 0)
(-0.747593 0 0)
(-0.742944 0 0)
(-0.738264 0 0)
(-0.733551 0 0)
(-0.728807 0 0)
(-0.724031 0 0)
(-0.719225 0 0)
(-0.714388 0 0)
(-0.70952 0 0)
(-0.704622 0 0)
(-0.699695 0 0)
(-0.694738 0 0)
(-0.689751 0 0)
(-0.684736 0 0)
(-0.679692 0 0)
(-0.67462 0 0)
(-0.669519 0 0)
(-0.66439 0 0)
(-0.659234 0 0)
(-0.654051 0 0)
(-0.64884 0 0)
(-0.643603 0 0)
(-0.638339 0 0)
(-0.633049 0 0)
(-0.627733 0 0)
(-0.622391 0 0)
(-0.617024 0 0)
(-0.611631 0 0)
(-0.606214 0 0)
(-0.600772 0 0)
(-0.595306 0 0)
(-0.589816 0 0)
(-0.584302 0 0)
(-0.578765 0 0)
(-0.573204 0 0)
(-0.56762 0 0)
(-0.562013 0 0)
(-0.556384 0 0)
(-0.550733 0 0)
(-0.54506 0 0)
(-0.539365 0 0)
(-0.533649 0 0)
(-0.527912 0 0)
(-0.522154 0 0)
(-0.516375 0 0)
(-0.510576 0 0)
(-0.504757 0 0)
(-0.498918 0 0)
(-0.493059 0 0)
(-0.487181 0 0)
(-0.481284 0 0)
(-0.475368 0 0)
(-0.469434 0 0)
(-0.463482 0 0)
(-0.457511 0 0)
(-0.451523 0 0)
(-0.445517 0 0)
(-0.439494 0 0)
(-0.433454 0 0)
(-0.427398 0 0)
(-0.421325 0 0)
(-0.415236 0 0)
(-0.40913 0 0)
(-0.403009 0 0)
(-0.396873 0 0)
(-0.390722 0 0)
(-0.384555 0 0)
(-0.378374 0 0)
(-0.372179 0 0)
(-0.365969 0 0)
(-0.359745 0 0)
(-0.353508 0 0)
(-0.347257 0 0)
(-0.340994 0 0)
(-0.334717 0 0)
(-0.328427 0 0)
(-0.322126 0 0)
(-0.315812 0 0)
(-0.309486 0 0)
(-0.303148 0 0)
(-0.2968 0 0)
(-0.29044 0 0)
(-0.284069 0 0)
(-0.277687 0 0)
(-0.271295 0 0)
(-0.264893 0 0)
(-0.258481 0 0)
(-0.252059 0 0)
(-0.245628 0 0)
(-0.239188 0 0)
(-0.232738 0 0)
(-0.22628 0 0)
(-0.219814 0 0)
(-0.21334 0 0)
(-0.206857 0 0)
(-0.200367 0 0)
(-0.193869 0 0)
(-0.187365 0 0)
(-0.180853 0 0)
(-0.174335 0 0)
(-0.16781 0 0)
(-0.161279 0 0)
(-0.154742 0 0)
(-0.148199 0 0)
(-0.141651 0 0)
(-0.135097 0 0)
(-0.128539 0 0)
(-0.121975 0 0)
(-0.115408 0 0)
(-0.108836 0 0)
(-0.10226 0 0)
(-0.0956799 0 0)
(-0.0890966 0 0)
(-0.0825101 0 0)
(-0.0759204 0 0)
(-0.069328 0 0)
(-0.0627331 0 0)
(-0.0561358 0 0)
(-0.0495364 0 0)
(-0.0429353 0 0)
(-0.0363325 0 0)
(-0.0297284 0 0)
(-0.0231232 0 0)
(-0.0165172 0 0)
(-0.00991057 0 0)
(-0.00330356 0 0)
)
;

boundaryField
{
    left
    {
        type            fixedValue;
        value           uniform (0 0 0);
    }
    right
    {
        type            fixedValue;
        value           uniform (0 0 0);
    }
    frontBackUpDown
    {
        type            empty;
    }
}


// ************************************************************************* //
