/*--------------------------------*- C++ -*----------------------------------*\
| =========                 |                                                 |
| \\      /  F ield         | OpenFOAM: The Open Source CFD Toolbox           |
|  \\    /   O peration     | Version:  2412                                  |
|   \\  /    A nd           | Website:  www.openfoam.com                      |
|    \\/     M anipulation  |                                                 |
\*---------------------------------------------------------------------------*/
FoamFile
{
    version     2.0;
    format      ascii;
    arch        "LSB;label=32;scalar=64";
    class       volVectorField;
    location    "0.06";
    object      U_0;
}
// * * * * * * * * * * * * * * * * * * * * * * * * * * * * * * * * * * * * * //

dimensions      [0 1 -1 0 0 0 0];

internalField   nonuniform List<vector> 
800
(
(0.00330786 0 0)
(0.00992361 0 0)
(0.016539 0 0)
(0.0231538 0 0)
(0.0297677 0 0)
(0.0363806 0 0)
(0.0429921 0 0)
(0.049602 0 0)
(0.05621 0 0)
(0.062816 0 0)
(0.0694196 0 0)
(0.0760207 0 0)
(0.082619 0 0)
(0.0892142 0 0)
(0.0958061 0 0)
(0.102395 0 0)
(0.108979 0 0)
(0.11556 0 0)
(0.122136 0 0)
(0.128708 0 0)
(0.135275 0 0)
(0.141837 0 0)
(0.148393 0 0)
(0.154944 0 0)
(0.16149 0 0)
(0.168029 0 0)
(0.174562 0 0)
(0.181089 0 0)
(0.187609 0 0)
(0.194122 0 0)
(0.200628 0 0)
(0.207126 0 0)
(0.213617 0 0)
(0.220099 0 0)
(0.226574 0 0)
(0.233039 0 0)
(0.239497 0 0)
(0.245945 0 0)
(0.252384 0 0)
(0.258813 0 0)
(0.265233 0 0)
(0.271643 0 0)
(0.278043 0 0)
(0.284432 0 0)
(0.29081 0 0)
(0.297178 0 0)
(0.303534 0 0)
(0.309879 0 0)
(0.316212 0 0)
(0.322533 0 0)
(0.328842 0 0)
(0.335139 0 0)
(0.341422 0 0)
(0.347693 0 0)
(0.353951 0 0)
(0.360195 0 0)
(0.366425 0 0)
(0.372642 0 0)
(0.378844 0 0)
(0.385031 0 0)
(0.391204 0 0)
(0.397362 0 0)
(0.403505 0 0)
(0.409632 0 0)
(0.415743 0 0)
(0.421839 0 0)
(0.427918 0 0)
(0.43398 0 0)
(0.440026 0 0)
(0.446055 0 0)
(0.452066 0 0)
(0.45806 0 0)
(0.464036 0 0)
(0.469994 0 0)
(0.475933 0 0)
(0.481854 0 0)
(0.487756 0 0)
(0.493639 0 0)
(0.499503 0 0)
(0.505347 0 0)
(0.511171 0 0)
(0.516975 0 0)
(0.522758 0 0)
(0.52852 0 0)
(0.534262 0 0)
(0.539983 0 0)
(0.545682 0 0)
(0.551359 0 0)
(0.557014 0 0)
(0.562647 0 0)
(0.568257 0 0)
(0.573844 0 0)
(0.579409 0 0)
(0.58495 0 0)
(0.590467 0 0)
(0.595961 0 0)
(0.60143 0 0)
(0.606875 0 0)
(0.612295 0 0)
(0.61769 0 0)
(0.62306 0 0)
(0.628404 0 0)
(0.633722 0 0)
(0.639015 0 0)
(0.644281 0 0)
(0.64952 0 0)
(0.654733 0 0)
(0.659918 0 0)
(0.665076 0 0)
(0.670206 0 0)
(0.675308 0 0)
(0.680382 0 0)
(0.685427 0 0)
(0.690444 0 0)
(0.695431 0 0)
(0.700389 0 0)
(0.705317 0 0)
(0.710215 0 0)
(0.715083 0 0)
(0.719921 0 0)
(0.724727 0 0)
(0.729503 0 0)
(0.734247 0 0)
(0.738959 0 0)
(0.74364 0 0)
(0.748288 0 0)
(0.752904 0 0)
(0.757487 0 0)
(0.762037 0 0)
(0.766553 0 0)
(0.771036 0 0)
(0.775485 0 0)
(0.7799 0 0)
(0.78428 0 0)
(0.788625 0 0)
(0.792935 0 0)
(0.79721 0 0)
(0.801449 0 0)
(0.805652 0 0)
(0.809819 0 0)
(0.813949 0 0)
(0.818042 0 0)
(0.822098 0 0)
(0.826117 0 0)
(0.830098 0 0)
(0.83404 0 0)
(0.837945 0 0)
(0.841811 0 0)
(0.845638 0 0)
(0.849425 0 0)
(0.853173 0 0)
(0.856882 0 0)
(0.86055 0 0)
(0.864177 0 0)
(0.867764 0 0)
(0.87131 0 0)
(0.874815 0 0)
(0.878278 0 0)
(0.881699 0 0)
(0.885078 0 0)
(0.888414 0 0)
(0.891707 0 0)
(0.894958 0 0)
(0.898164 0 0)
(0.901327 0 0)
(0.904446 0 0)
(0.907521 0 0)
(0.910551 0 0)
(0.913536 0 0)
(0.916476 0 0)
(0.91937 0 0)
(0.922218 0 0)
(0.92502 0 0)
(0.927776 0 0)
(0.930485 0 0)
(0.933146 0 0)
(0.935761 0 0)
(0.938327 0 0)
(0.940846 0 0)
(0.943316 0 0)
(0.945738 0 0)
(0.94811 0 0)
(0.950434 0 0)
(0.952707 0 0)
(0.954931 0 0)
(0.957105 0 0)
(0.959229 0 0)
(0.961301 0 0)
(0.963323 0 0)
(0.965293 0 0)
(0.967211 0 0)
(0.969078 0 0)
(0.970892 0 0)
(0.972653 0 0)
(0.974362 0 0)
(0.976018 0 0)
(0.97762 0 0)
(0.979168 0 0)
(0.980662 0 0)
(0.982101 0 0)
(0.983486 0 0)
(0.984816 0 0)
(0.98609 0 0)
(0.987309 0 0)
(0.988472 0 0)
(0.989579 0 0)
(0.990629 0 0)
(0.991623 0 0)
(0.992559 0 0)
(0.993438 0 0)
(0.99426 0 0)
(0.995023 0 0)
(0.995728 0 0)
(0.996375 0 0)
(0.996962 0 0)
(0.997491 0 0)
(0.99796 0 0)
(0.99837 0 0)
(0.998719 0 0)
(0.999008 0 0)
(0.999237 0 0)
(0.999405 0 0)
(0.999511 0 0)
(0.999557 0 0)
(0.99954 0 0)
(0.999462 0 0)
(0.999322 0 0)
(0.999119 0 0)
(0.998853 0 0)
(0.998525 0 0)
(0.998133 0 0)
(0.997678 0 0)
(0.997159 0 0)
(0.996576 0 0)
(0.995928 0 0)
(0.995216 0 0)
(0.99444 0 0)
(0.993598 0 0)
(0.992691 0 0)
(0.991718 0 0)
(0.99068 0 0)
(0.989576 0 0)
(0.988406 0 0)
(0.987169 0 0)
(0.985866 0 0)
(0.984496 0 0)
(0.983058 0 0)
(0.981554 0 0)
(0.979982 0 0)
(0.978342 0 0)
(0.976634 0 0)
(0.974858 0 0)
(0.973014 0 0)
(0.971102 0 0)
(0.96912 0 0)
(0.96707 0 0)
(0.964951 0 0)
(0.962763 0 0)
(0.960505 0 0)
(0.958178 0 0)
(0.955781 0 0)
(0.953314 0 0)
(0.950778 0 0)
(0.948171 0 0)
(0.945494 0 0)
(0.942746 0 0)
(0.939928 0 0)
(0.937039 0 0)
(0.93408 0 0)
(0.93105 0 0)
(0.927948 0 0)
(0.924776 0 0)
(0.921532 0 0)
(0.918218 0 0)
(0.914831 0 0)
(0.911374 0 0)
(0.907845 0 0)
(0.904245 0 0)
(0.900573 0 0)
(0.896829 0 0)
(0.893014 0 0)
(0.889127 0 0)
(0.885169 0 0)
(0.881138 0 0)
(0.877036 0 0)
(0.872863 0 0)
(0.868617 0 0)
(0.864301 0 0)
(0.859912 0 0)
(0.855452 0 0)
(0.85092 0 0)
(0.846317 0 0)
(0.841642 0 0)
(0.836896 0 0)
(0.832079 0 0)
(0.82719 0 0)
(0.822231 0 0)
(0.8172 0 0)
(0.812099 0 0)
(0.806926 0 0)
(0.801684 0 0)
(0.79637 0 0)
(0.790987 0 0)
(0.785533 0 0)
(0.780009 0 0)
(0.774416 0 0)
(0.768753 0 0)
(0.763021 0 0)
(0.757219 0 0)
(0.751349 0 0)
(0.74541 0 0)
(0.739402 0 0)
(0.733327 0 0)
(0.727184 0 0)
(0.720973 0 0)
(0.714694 0 0)
(0.708349 0 0)
(0.701937 0 0)
(0.695459 0 0)
(0.688915 0 0)
(0.682306 0 0)
(0.675631 0 0)
(0.668891 0 0)
(0.662087 0 0)
(0.655219 0 0)
(0.648287 0 0)
(0.641292 0 0)
(0.634235 0 0)
(0.627115 0 0)
(0.619933 0 0)
(0.61269 0 0)
(0.605386 0 0)
(0.598022 0 0)
(0.590598 0 0)
(0.583114 0 0)
(0.575572 0 0)
(0.567972 0 0)
(0.560314 0 0)
(0.5526 0 0)
(0.544829 0 0)
(0.537002 0 0)
(0.529119 0 0)
(0.521183 0 0)
(0.513192 0 0)
(0.505148 0 0)
(0.497052 0 0)
(0.488903 0 0)
(0.480704 0 0)
(0.472454 0 0)
(0.464154 0 0)
(0.455805 0 0)
(0.447408 0 0)
(0.438964 0 0)
(0.430472 0 0)
(0.421935 0 0)
(0.413353 0 0)
(0.404726 0 0)
(0.396056 0 0)
(0.387342 0 0)
(0.378587 0 0)
(0.369791 0 0)
(0.360955 0 0)
(0.352079 0 0)
(0.343165 0 0)
(0.334214 0 0)
(0.325226 0 0)
(0.316202 0 0)
(0.307143 0 0)
(0.29805 0 0)
(0.288925 0 0)
(0.279767 0 0)
(0.270579 0 0)
(0.26136 0 0)
(0.252112 0 0)
(0.242836 0 0)
(0.233533 0 0)
(0.224204 0 0)
(0.21485 0 0)
(0.205472 0 0)
(0.196071 0 0)
(0.186647 0 0)
(0.177203 0 0)
(0.167739 0 0)
(0.158255 0 0)
(0.148754 0 0)
(0.139236 0 0)
(0.129702 0 0)
(0.120154 0 0)
(0.110592 0 0)
(0.101017 0 0)
(0.0914314 0 0)
(0.081835 0 0)
(0.0722293 0 0)
(0.0626153 0 0)
(0.0529943 0 0)
(0.0433672 0 0)
(0.0337352 0 0)
(0.0240993 0 0)
(0.0144607 0 0)
(0.00482041 0 0)
(-0.0048204 0 0)
(-0.0144607 0 0)
(-0.0240993 0 0)
(-0.0337352 0 0)
(-0.0433672 0 0)
(-0.0529943 0 0)
(-0.0626153 0 0)
(-0.0722292 0 0)
(-0.081835 0 0)
(-0.0914314 0 0)
(-0.101017 0 0)
(-0.110592 0 0)
(-0.120154 0 0)
(-0.129702 0 0)
(-0.139236 0 0)
(-0.148754 0 0)
(-0.158255 0 0)
(-0.167738 0 0)
(-0.177203 0 0)
(-0.186647 0 0)
(-0.19607 0 0)
(-0.205472 0 0)
(-0.21485 0 0)
(-0.224204 0 0)
(-0.233533 0 0)
(-0.242836 0 0)
(-0.252112 0 0)
(-0.26136 0 0)
(-0.270578 0 0)
(-0.279767 0 0)
(-0.288924 0 0)
(-0.29805 0 0)
(-0.307143 0 0)
(-0.316201 0 0)
(-0.325225 0 0)
(-0.334213 0 0)
(-0.343165 0 0)
(-0.352079 0 0)
(-0.360954 0 0)
(-0.369791 0 0)
(-0.378587 0 0)
(-0.387342 0 0)
(-0.396055 0 0)
(-0.404725 0 0)
(-0.413352 0 0)
(-0.421935 0 0)
(-0.430472 0 0)
(-0.438963 0 0)
(-0.447408 0 0)
(-0.455805 0 0)
(-0.464153 0 0)
(-0.472453 0 0)
(-0.480703 0 0)
(-0.488903 0 0)
(-0.497051 0 0)
(-0.505147 0 0)
(-0.513191 0 0)
(-0.521182 0 0)
(-0.529118 0 0)
(-0.537001 0 0)
(-0.544828 0 0)
(-0.552599 0 0)
(-0.560314 0 0)
(-0.567971 0 0)
(-0.575572 0 0)
(-0.583114 0 0)
(-0.590597 0 0)
(-0.598021 0 0)
(-0.605385 0 0)
(-0.612689 0 0)
(-0.619932 0 0)
(-0.627114 0 0)
(-0.634234 0 0)
(-0.641291 0 0)
(-0.648286 0 0)
(-0.655218 0 0)
(-0.662086 0 0)
(-0.66889 0 0)
(-0.67563 0 0)
(-0.682305 0 0)
(-0.688914 0 0)
(-0.695458 0 0)
(-0.701936 0 0)
(-0.708348 0 0)
(-0.714693 0 0)
(-0.720972 0 0)
(-0.727183 0 0)
(-0.733326 0 0)
(-0.739401 0 0)
(-0.745409 0 0)
(-0.751348 0 0)
(-0.757218 0 0)
(-0.76302 0 0)
(-0.768752 0 0)
(-0.774415 0 0)
(-0.780008 0 0)
(-0.785532 0 0)
(-0.790986 0 0)
(-0.796369 0 0)
(-0.801683 0 0)
(-0.806926 0 0)
(-0.812098 0 0)
(-0.817199 0 0)
(-0.82223 0 0)
(-0.827189 0 0)
(-0.832078 0 0)
(-0.836895 0 0)
(-0.841641 0 0)
(-0.846316 0 0)
(-0.850919 0 0)
(-0.855451 0 0)
(-0.859911 0 0)
(-0.8643 0 0)
(-0.868617 0 0)
(-0.872862 0 0)
(-0.877036 0 0)
(-0.881138 0 0)
(-0.885168 0 0)
(-0.889126 0 0)
(-0.893013 0 0)
(-0.896829 0 0)
(-0.900572 0 0)
(-0.904244 0 0)
(-0.907845 0 0)
(-0.911373 0 0)
(-0.914831 0 0)
(-0.918217 0 0)
(-0.921532 0 0)
(-0.924775 0 0)
(-0.927948 0 0)
(-0.931049 0 0)
(-0.934079 0 0)
(-0.937039 0 0)
(-0.939928 0 0)
(-0.942746 0 0)
(-0.945493 0 0)
(-0.94817 0 0)
(-0.950777 0 0)
(-0.953314 0 0)
(-0.955781 0 0)
(-0.958178 0 0)
(-0.960505 0 0)
(-0.962763 0 0)
(-0.964951 0 0)
(-0.96707 0 0)
(-0.96912 0 0)
(-0.971102 0 0)
(-0.973014 0 0)
(-0.974858 0 0)
(-0.976634 0 0)
(-0.978342 0 0)
(-0.979982 0 0)
(-0.981554 0 0)
(-0.983058 0 0)
(-0.984496 0 0)
(-0.985866 0 0)
(-0.987169 0 0)
(-0.988406 0 0)
(-0.989576 0 0)
(-0.99068 0 0)
(-0.991718 0 0)
(-0.992691 0 0)
(-0.993598 0 0)
(-0.99444 0 0)
(-0.995216 0 0)
(-0.995928 0 0)
(-0.996576 0 0)
(-0.997159 0 0)
(-0.997678 0 0)
(-0.998133 0 0)
(-0.998525 0 0)
(-0.998853 0 0)
(-0.999119 0 0)
(-0.999322 0 0)
(-0.999462 0 0)
(-0.99954 0 0)
(-0.999557 0 0)
(-0.999511 0 0)
(-0.999405 0 0)
(-0.999237 0 0)
(-0.999008 0 0)
(-0.998719 0 0)
(-0.99837 0 0)
(-0.99796 0 0)
(-0.997491 0 0)
(-0.996962 0 0)
(-0.996375 0 0)
(-0.995728 0 0)
(-0.995023 0 0)
(-0.99426 0 0)
(-0.993438 0 0)
(-0.992559 0 0)
(-0.991623 0 0)
(-0.990629 0 0)
(-0.989579 0 0)
(-0.988472 0 0)
(-0.987309 0 0)
(-0.98609 0 0)
(-0.984816 0 0)
(-0.983486 0 0)
(-0.982101 0 0)
(-0.980662 0 0)
(-0.979168 0 0)
(-0.977619 0 0)
(-0.976017 0 0)
(-0.974362 0 0)
(-0.972653 0 0)
(-0.970892 0 0)
(-0.969078 0 0)
(-0.967211 0 0)
(-0.965293 0 0)
(-0.963323 0 0)
(-0.961301 0 0)
(-0.959228 0 0)
(-0.957105 0 0)
(-0.954931 0 0)
(-0.952707 0 0)
(-0.950433 0 0)
(-0.94811 0 0)
(-0.945737 0 0)
(-0.943316 0 0)
(-0.940846 0 0)
(-0.938327 0 0)
(-0.93576 0 0)
(-0.933146 0 0)
(-0.930484 0 0)
(-0.927776 0 0)
(-0.92502 0 0)
(-0.922218 0 0)
(-0.91937 0 0)
(-0.916475 0 0)
(-0.913536 0 0)
(-0.910551 0 0)
(-0.907521 0 0)
(-0.904446 0 0)
(-0.901327 0 0)
(-0.898164 0 0)
(-0.894957 0 0)
(-0.891707 0 0)
(-0.888413 0 0)
(-0.885077 0 0)
(-0.881698 0 0)
(-0.878277 0 0)
(-0.874814 0 0)
(-0.87131 0 0)
(-0.867764 0 0)
(-0.864177 0 0)
(-0.860549 0 0)
(-0.856881 0 0)
(-0.853173 0 0)
(-0.849425 0 0)
(-0.845637 0 0)
(-0.84181 0 0)
(-0.837944 0 0)
(-0.83404 0 0)
(-0.830097 0 0)
(-0.826116 0 0)
(-0.822097 0 0)
(-0.818041 0 0)
(-0.813948 0 0)
(-0.809818 0 0)
(-0.805651 0 0)
(-0.801448 0 0)
(-0.797209 0 0)
(-0.792934 0 0)
(-0.788624 0 0)
(-0.784279 0 0)
(-0.779899 0 0)
(-0.775484 0 0)
(-0.771035 0 0)
(-0.766553 0 0)
(-0.762036 0 0)
(-0.757486 0 0)
(-0.752903 0 0)
(-0.748287 0 0)
(-0.743639 0 0)
(-0.738959 0 0)
(-0.734246 0 0)
(-0.729502 0 0)
(-0.724727 0 0)
(-0.71992 0 0)
(-0.715082 0 0)
(-0.710214 0 0)
(-0.705316 0 0)
(-0.700388 0 0)
(-0.69543 0 0)
(-0.690443 0 0)
(-0.685426 0 0)
(-0.680381 0 0)
(-0.675307 0 0)
(-0.670205 0 0)
(-0.665075 0 0)
(-0.659917 0 0)
(-0.654732 0 0)
(-0.649519 0 0)
(-0.64428 0 0)
(-0.639014 0 0)
(-0.633722 0 0)
(-0.628403 0 0)
(-0.623059 0 0)
(-0.617689 0 0)
(-0.612294 0 0)
(-0.606874 0 0)
(-0.601429 0 0)
(-0.59596 0 0)
(-0.590467 0 0)
(-0.584949 0 0)
(-0.579408 0 0)
(-0.573844 0 0)
(-0.568256 0 0)
(-0.562646 0 0)
(-0.557013 0 0)
(-0.551358 0 0)
(-0.545681 0 0)
(-0.539982 0 0)
(-0.534262 0 0)
(-0.52852 0 0)
(-0.522757 0 0)
(-0.516974 0 0)
(-0.51117 0 0)
(-0.505346 0 0)
(-0.499502 0 0)
(-0.493639 0 0)
(-0.487756 0 0)
(-0.481854 0 0)
(-0.475933 0 0)
(-0.469993 0 0)
(-0.464036 0 0)
(-0.45806 0 0)
(-0.452066 0 0)
(-0.446054 0 0)
(-0.440026 0 0)
(-0.43398 0 0)
(-0.427917 0 0)
(-0.421838 0 0)
(-0.415743 0 0)
(-0.409632 0 0)
(-0.403504 0 0)
(-0.397362 0 0)
(-0.391204 0 0)
(-0.385031 0 0)
(-0.378843 0 0)
(-0.372641 0 0)
(-0.366425 0 0)
(-0.360195 0 0)
(-0.35395 0 0)
(-0.347693 0 0)
(-0.341422 0 0)
(-0.335138 0 0)
(-0.328842 0 0)
(-0.322533 0 0)
(-0.316212 0 0)
(-0.309879 0 0)
(-0.303534 0 0)
(-0.297178 0 0)
(-0.29081 0 0)
(-0.284432 0 0)
(-0.278042 0 0)
(-0.271643 0 0)
(-0.265233 0 0)
(-0.258813 0 0)
(-0.252384 0 0)
(-0.245945 0 0)
(-0.239497 0 0)
(-0.233039 0 0)
(-0.226573 0 0)
(-0.220099 0 0)
(-0.213617 0 0)
(-0.207126 0 0)
(-0.200628 0 0)
(-0.194122 0 0)
(-0.187609 0 0)
(-0.181089 0 0)
(-0.174562 0 0)
(-0.168029 0 0)
(-0.16149 0 0)
(-0.154944 0 0)
(-0.148393 0 0)
(-0.141837 0 0)
(-0.135275 0 0)
(-0.128708 0 0)
(-0.122136 0 0)
(-0.11556 0 0)
(-0.108979 0 0)
(-0.102394 0 0)
(-0.0958061 0 0)
(-0.0892142 0 0)
(-0.082619 0 0)
(-0.0760207 0 0)
(-0.0694196 0 0)
(-0.062816 0 0)
(-0.05621 0 0)
(-0.049602 0 0)
(-0.0429921 0 0)
(-0.0363806 0 0)
(-0.0297678 0 0)
(-0.0231539 0 0)
(-0.0165391 0 0)
(-0.00992369 0 0)
(-0.00330794 0 0)
)
;

boundaryField
{
    left
    {
        type            fixedValue;
        value           uniform (0 0 0);
    }
    right
    {
        type            fixedValue;
        value           uniform (0 0 0);
    }
    frontBackUpDown
    {
        type            empty;
    }
}


// ************************************************************************* //
