/*--------------------------------*- C++ -*----------------------------------*\
| =========                 |                                                 |
| \\      /  F ield         | OpenFOAM: The Open Source CFD Toolbox           |
|  \\    /   O peration     | Version:  2412                                  |
|   \\  /    A nd           | Website:  www.openfoam.com                      |
|    \\/     M anipulation  |                                                 |
\*---------------------------------------------------------------------------*/
FoamFile
{
    version     2.0;
    format      ascii;
    arch        "LSB;label=32;scalar=64";
    class       volVectorField;
    location    "0.06";
    object      U_0_0;
}
// * * * * * * * * * * * * * * * * * * * * * * * * * * * * * * * * * * * * * //

dimensions      [0 1 -1 0 0 0 0];

internalField   nonuniform List<vector> 
800
(
(0.00331225 0 0)
(0.00993677 0 0)
(0.0165609 0 0)
(0.0231845 0 0)
(0.0298072 0 0)
(0.0364288 0 0)
(0.043049 0 0)
(0.0496676 0 0)
(0.0562844 0 0)
(0.0628991 0 0)
(0.0695115 0 0)
(0.0761213 0 0)
(0.0827282 0 0)
(0.0893321 0 0)
(0.0959327 0 0)
(0.10253 0 0)
(0.109123 0 0)
(0.115712 0 0)
(0.122297 0 0)
(0.128877 0 0)
(0.135453 0 0)
(0.142023 0 0)
(0.148588 0 0)
(0.155148 0 0)
(0.161702 0 0)
(0.168249 0 0)
(0.174791 0 0)
(0.181326 0 0)
(0.187854 0 0)
(0.194375 0 0)
(0.200889 0 0)
(0.207396 0 0)
(0.213894 0 0)
(0.220385 0 0)
(0.226867 0 0)
(0.233341 0 0)
(0.239806 0 0)
(0.246262 0 0)
(0.252709 0 0)
(0.259147 0 0)
(0.265574 0 0)
(0.271992 0 0)
(0.278399 0 0)
(0.284796 0 0)
(0.291182 0 0)
(0.297557 0 0)
(0.30392 0 0)
(0.310273 0 0)
(0.316613 0 0)
(0.322941 0 0)
(0.329257 0 0)
(0.335561 0 0)
(0.341852 0 0)
(0.34813 0 0)
(0.354394 0 0)
(0.360645 0 0)
(0.366882 0 0)
(0.373105 0 0)
(0.379314 0 0)
(0.385508 0 0)
(0.391688 0 0)
(0.397852 0 0)
(0.404001 0 0)
(0.410134 0 0)
(0.416252 0 0)
(0.422353 0 0)
(0.428438 0 0)
(0.434507 0 0)
(0.440558 0 0)
(0.446593 0 0)
(0.45261 0 0)
(0.458609 0 0)
(0.464591 0 0)
(0.470554 0 0)
(0.476499 0 0)
(0.482425 0 0)
(0.488332 0 0)
(0.49422 0 0)
(0.500089 0 0)
(0.505938 0 0)
(0.511766 0 0)
(0.517575 0 0)
(0.523363 0 0)
(0.52913 0 0)
(0.534876 0 0)
(0.540601 0 0)
(0.546304 0 0)
(0.551985 0 0)
(0.557644 0 0)
(0.563281 0 0)
(0.568895 0 0)
(0.574486 0 0)
(0.580054 0 0)
(0.585598 0 0)
(0.591119 0 0)
(0.596615 0 0)
(0.602088 0 0)
(0.607535 0 0)
(0.612958 0 0)
(0.618356 0 0)
(0.623729 0 0)
(0.629075 0 0)
(0.634396 0 0)
(0.639691 0 0)
(0.644959 0 0)
(0.650201 0 0)
(0.655415 0 0)
(0.660602 0 0)
(0.665762 0 0)
(0.670893 0 0)
(0.675997 0 0)
(0.681072 0 0)
(0.686118 0 0)
(0.691136 0 0)
(0.696124 0 0)
(0.701083 0 0)
(0.706012 0 0)
(0.71091 0 0)
(0.715779 0 0)
(0.720616 0 0)
(0.725423 0 0)
(0.730199 0 0)
(0.734943 0 0)
(0.739655 0 0)
(0.744335 0 0)
(0.748983 0 0)
(0.753598 0 0)
(0.75818 0 0)
(0.762729 0 0)
(0.767245 0 0)
(0.771726 0 0)
(0.776174 0 0)
(0.780587 0 0)
(0.784966 0 0)
(0.789309 0 0)
(0.793617 0 0)
(0.79789 0 0)
(0.802127 0 0)
(0.806328 0 0)
(0.810492 0 0)
(0.81462 0 0)
(0.81871 0 0)
(0.822764 0 0)
(0.826779 0 0)
(0.830757 0 0)
(0.834697 0 0)
(0.838598 0 0)
(0.84246 0 0)
(0.846283 0 0)
(0.850067 0 0)
(0.853811 0 0)
(0.857515 0 0)
(0.861179 0 0)
(0.864803 0 0)
(0.868385 0 0)
(0.871926 0 0)
(0.875426 0 0)
(0.878884 0 0)
(0.8823 0 0)
(0.885674 0 0)
(0.889005 0 0)
(0.892293 0 0)
(0.895537 0 0)
(0.898738 0 0)
(0.901895 0 0)
(0.905008 0 0)
(0.908077 0 0)
(0.9111 0 0)
(0.914079 0 0)
(0.917012 0 0)
(0.9199 0 0)
(0.922741 0 0)
(0.925536 0 0)
(0.928285 0 0)
(0.930986 0 0)
(0.933641 0 0)
(0.936247 0 0)
(0.938806 0 0)
(0.941317 0 0)
(0.943779 0 0)
(0.946193 0 0)
(0.948557 0 0)
(0.950872 0 0)
(0.953138 0 0)
(0.955353 0 0)
(0.957518 0 0)
(0.959633 0 0)
(0.961697 0 0)
(0.963709 0 0)
(0.96567 0 0)
(0.967579 0 0)
(0.969436 0 0)
(0.971241 0 0)
(0.972993 0 0)
(0.974692 0 0)
(0.976337 0 0)
(0.977929 0 0)
(0.979467 0 0)
(0.980951 0 0)
(0.982381 0 0)
(0.983755 0 0)
(0.985074 0 0)
(0.986338 0 0)
(0.987546 0 0)
(0.988699 0 0)
(0.989795 0 0)
(0.990834 0 0)
(0.991816 0 0)
(0.992742 0 0)
(0.993609 0 0)
(0.994419 0 0)
(0.995171 0 0)
(0.995865 0 0)
(0.9965 0 0)
(0.997076 0 0)
(0.997593 0 0)
(0.99805 0 0)
(0.998448 0 0)
(0.998785 0 0)
(0.999062 0 0)
(0.999279 0 0)
(0.999434 0 0)
(0.999529 0 0)
(0.999562 0 0)
(0.999533 0 0)
(0.999443 0 0)
(0.99929 0 0)
(0.999075 0 0)
(0.998797 0 0)
(0.998456 0 0)
(0.998051 0 0)
(0.997583 0 0)
(0.997052 0 0)
(0.996456 0 0)
(0.995796 0 0)
(0.995071 0 0)
(0.994282 0 0)
(0.993427 0 0)
(0.992507 0 0)
(0.991522 0 0)
(0.990471 0 0)
(0.989354 0 0)
(0.988171 0 0)
(0.986922 0 0)
(0.985606 0 0)
(0.984223 0 0)
(0.982773 0 0)
(0.981255 0 0)
(0.979671 0 0)
(0.978018 0 0)
(0.976298 0 0)
(0.974509 0 0)
(0.972653 0 0)
(0.970727 0 0)
(0.968734 0 0)
(0.966671 0 0)
(0.96454 0 0)
(0.962339 0 0)
(0.960069 0 0)
(0.95773 0 0)
(0.955321 0 0)
(0.952842 0 0)
(0.950293 0 0)
(0.947674 0 0)
(0.944985 0 0)
(0.942226 0 0)
(0.939396 0 0)
(0.936496 0 0)
(0.933525 0 0)
(0.930484 0 0)
(0.927371 0 0)
(0.924188 0 0)
(0.920933 0 0)
(0.917608 0 0)
(0.914211 0 0)
(0.910743 0 0)
(0.907203 0 0)
(0.903593 0 0)
(0.899911 0 0)
(0.896157 0 0)
(0.892332 0 0)
(0.888435 0 0)
(0.884467 0 0)
(0.880428 0 0)
(0.876317 0 0)
(0.872134 0 0)
(0.86788 0 0)
(0.863555 0 0)
(0.859158 0 0)
(0.854689 0 0)
(0.850149 0 0)
(0.845538 0 0)
(0.840856 0 0)
(0.836103 0 0)
(0.831278 0 0)
(0.826383 0 0)
(0.821416 0 0)
(0.816379 0 0)
(0.811272 0 0)
(0.806093 0 0)
(0.800845 0 0)
(0.795526 0 0)
(0.790137 0 0)
(0.784678 0 0)
(0.77915 0 0)
(0.773552 0 0)
(0.767885 0 0)
(0.762148 0 0)
(0.756343 0 0)
(0.750469 0 0)
(0.744527 0 0)
(0.738517 0 0)
(0.732439 0 0)
(0.726293 0 0)
(0.72008 0 0)
(0.713801 0 0)
(0.707454 0 0)
(0.701041 0 0)
(0.694562 0 0)
(0.688018 0 0)
(0.681408 0 0)
(0.674733 0 0)
(0.667994 0 0)
(0.66119 0 0)
(0.654323 0 0)
(0.647393 0 0)
(0.6404 0 0)
(0.633344 0 0)
(0.626226 0 0)
(0.619047 0 0)
(0.611807 0 0)
(0.604507 0 0)
(0.597146 0 0)
(0.589726 0 0)
(0.582247 0 0)
(0.57471 0 0)
(0.567114 0 0)
(0.559462 0 0)
(0.551753 0 0)
(0.543987 0 0)
(0.536166 0 0)
(0.528291 0 0)
(0.520361 0 0)
(0.512378 0 0)
(0.504341 0 0)
(0.496253 0 0)
(0.488112 0 0)
(0.479921 0 0)
(0.47168 0 0)
(0.46339 0 0)
(0.45505 0 0)
(0.446663 0 0)
(0.438228 0 0)
(0.429747 0 0)
(0.42122 0 0)
(0.412649 0 0)
(0.404033 0 0)
(0.395374 0 0)
(0.386673 0 0)
(0.37793 0 0)
(0.369146 0 0)
(0.360323 0 0)
(0.35146 0 0)
(0.342559 0 0)
(0.333621 0 0)
(0.324646 0 0)
(0.315636 0 0)
(0.306592 0 0)
(0.297513 0 0)
(0.288402 0 0)
(0.27926 0 0)
(0.270086 0 0)
(0.260883 0 0)
(0.25165 0 0)
(0.24239 0 0)
(0.233103 0 0)
(0.22379 0 0)
(0.214452 0 0)
(0.20509 0 0)
(0.195706 0 0)
(0.186299 0 0)
(0.176872 0 0)
(0.167424 0 0)
(0.157958 0 0)
(0.148474 0 0)
(0.138974 0 0)
(0.129458 0 0)
(0.119927 0 0)
(0.110383 0 0)
(0.100826 0 0)
(0.091258 0 0)
(0.0816796 0 0)
(0.072092 0 0)
(0.0624963 0 0)
(0.0528934 0 0)
(0.0432846 0 0)
(0.0336709 0 0)
(0.0240534 0 0)
(0.0144331 0 0)
(0.00481122 0 0)
(-0.00481122 0 0)
(-0.0144331 0 0)
(-0.0240534 0 0)
(-0.0336709 0 0)
(-0.0432846 0 0)
(-0.0528934 0 0)
(-0.0624962 0 0)
(-0.072092 0 0)
(-0.0816796 0 0)
(-0.091258 0 0)
(-0.100826 0 0)
(-0.110383 0 0)
(-0.119927 0 0)
(-0.129458 0 0)
(-0.138974 0 0)
(-0.148474 0 0)
(-0.157958 0 0)
(-0.167424 0 0)
(-0.176871 0 0)
(-0.186299 0 0)
(-0.195705 0 0)
(-0.20509 0 0)
(-0.214452 0 0)
(-0.22379 0 0)
(-0.233103 0 0)
(-0.24239 0 0)
(-0.25165 0 0)
(-0.260882 0 0)
(-0.270086 0 0)
(-0.279259 0 0)
(-0.288402 0 0)
(-0.297513 0 0)
(-0.306591 0 0)
(-0.315636 0 0)
(-0.324646 0 0)
(-0.33362 0 0)
(-0.342558 0 0)
(-0.351459 0 0)
(-0.360322 0 0)
(-0.369146 0 0)
(-0.377929 0 0)
(-0.386672 0 0)
(-0.395374 0 0)
(-0.404033 0 0)
(-0.412648 0 0)
(-0.42122 0 0)
(-0.429747 0 0)
(-0.438228 0 0)
(-0.446662 0 0)
(-0.455049 0 0)
(-0.463389 0 0)
(-0.471679 0 0)
(-0.479921 0 0)
(-0.488112 0 0)
(-0.496252 0 0)
(-0.50434 0 0)
(-0.512377 0 0)
(-0.52036 0 0)
(-0.52829 0 0)
(-0.536166 0 0)
(-0.543986 0 0)
(-0.551752 0 0)
(-0.559461 0 0)
(-0.567113 0 0)
(-0.574709 0 0)
(-0.582246 0 0)
(-0.589725 0 0)
(-0.597145 0 0)
(-0.604506 0 0)
(-0.611806 0 0)
(-0.619046 0 0)
(-0.626225 0 0)
(-0.633343 0 0)
(-0.640399 0 0)
(-0.647392 0 0)
(-0.654322 0 0)
(-0.661189 0 0)
(-0.667993 0 0)
(-0.674732 0 0)
(-0.681407 0 0)
(-0.688017 0 0)
(-0.694561 0 0)
(-0.70104 0 0)
(-0.707453 0 0)
(-0.7138 0 0)
(-0.720079 0 0)
(-0.726292 0 0)
(-0.732438 0 0)
(-0.738516 0 0)
(-0.744526 0 0)
(-0.750469 0 0)
(-0.756342 0 0)
(-0.762147 0 0)
(-0.767884 0 0)
(-0.773551 0 0)
(-0.779149 0 0)
(-0.784677 0 0)
(-0.790136 0 0)
(-0.795525 0 0)
(-0.800844 0 0)
(-0.806092 0 0)
(-0.811271 0 0)
(-0.816378 0 0)
(-0.821416 0 0)
(-0.826382 0 0)
(-0.831277 0 0)
(-0.836102 0 0)
(-0.840855 0 0)
(-0.845538 0 0)
(-0.850149 0 0)
(-0.854688 0 0)
(-0.859157 0 0)
(-0.863554 0 0)
(-0.867879 0 0)
(-0.872134 0 0)
(-0.876316 0 0)
(-0.880427 0 0)
(-0.884467 0 0)
(-0.888435 0 0)
(-0.892331 0 0)
(-0.896156 0 0)
(-0.89991 0 0)
(-0.903592 0 0)
(-0.907203 0 0)
(-0.910742 0 0)
(-0.91421 0 0)
(-0.917607 0 0)
(-0.920933 0 0)
(-0.924187 0 0)
(-0.927371 0 0)
(-0.930483 0 0)
(-0.933525 0 0)
(-0.936496 0 0)
(-0.939396 0 0)
(-0.942226 0 0)
(-0.944985 0 0)
(-0.947674 0 0)
(-0.950293 0 0)
(-0.952841 0 0)
(-0.95532 0 0)
(-0.957729 0 0)
(-0.960069 0 0)
(-0.962339 0 0)
(-0.964539 0 0)
(-0.966671 0 0)
(-0.968734 0 0)
(-0.970727 0 0)
(-0.972652 0 0)
(-0.974509 0 0)
(-0.976298 0 0)
(-0.978018 0 0)
(-0.97967 0 0)
(-0.981255 0 0)
(-0.982773 0 0)
(-0.984223 0 0)
(-0.985606 0 0)
(-0.986922 0 0)
(-0.988171 0 0)
(-0.989354 0 0)
(-0.990471 0 0)
(-0.991522 0 0)
(-0.992507 0 0)
(-0.993427 0 0)
(-0.994282 0 0)
(-0.995071 0 0)
(-0.995796 0 0)
(-0.996456 0 0)
(-0.997052 0 0)
(-0.997583 0 0)
(-0.998051 0 0)
(-0.998456 0 0)
(-0.998797 0 0)
(-0.999075 0 0)
(-0.99929 0 0)
(-0.999443 0 0)
(-0.999533 0 0)
(-0.999562 0 0)
(-0.999529 0 0)
(-0.999434 0 0)
(-0.999279 0 0)
(-0.999062 0 0)
(-0.998785 0 0)
(-0.998448 0 0)
(-0.99805 0 0)
(-0.997593 0 0)
(-0.997076 0 0)
(-0.9965 0 0)
(-0.995865 0 0)
(-0.995171 0 0)
(-0.994419 0 0)
(-0.993609 0 0)
(-0.992742 0 0)
(-0.991816 0 0)
(-0.990834 0 0)
(-0.989795 0 0)
(-0.988699 0 0)
(-0.987546 0 0)
(-0.986338 0 0)
(-0.985074 0 0)
(-0.983755 0 0)
(-0.98238 0 0)
(-0.980951 0 0)
(-0.979467 0 0)
(-0.977929 0 0)
(-0.976337 0 0)
(-0.974692 0 0)
(-0.972993 0 0)
(-0.971241 0 0)
(-0.969436 0 0)
(-0.967579 0 0)
(-0.96567 0 0)
(-0.963709 0 0)
(-0.961696 0 0)
(-0.959633 0 0)
(-0.957518 0 0)
(-0.955353 0 0)
(-0.953138 0 0)
(-0.950872 0 0)
(-0.948557 0 0)
(-0.946193 0 0)
(-0.943779 0 0)
(-0.941317 0 0)
(-0.938806 0 0)
(-0.936247 0 0)
(-0.93364 0 0)
(-0.930986 0 0)
(-0.928284 0 0)
(-0.925536 0 0)
(-0.922741 0 0)
(-0.919899 0 0)
(-0.917012 0 0)
(-0.914079 0 0)
(-0.9111 0 0)
(-0.908076 0 0)
(-0.905008 0 0)
(-0.901895 0 0)
(-0.898738 0 0)
(-0.895537 0 0)
(-0.892292 0 0)
(-0.889004 0 0)
(-0.885673 0 0)
(-0.8823 0 0)
(-0.878884 0 0)
(-0.875426 0 0)
(-0.871926 0 0)
(-0.868384 0 0)
(-0.864802 0 0)
(-0.861179 0 0)
(-0.857515 0 0)
(-0.853811 0 0)
(-0.850066 0 0)
(-0.846283 0 0)
(-0.842459 0 0)
(-0.838597 0 0)
(-0.834696 0 0)
(-0.830756 0 0)
(-0.826779 0 0)
(-0.822763 0 0)
(-0.81871 0 0)
(-0.814619 0 0)
(-0.810491 0 0)
(-0.806327 0 0)
(-0.802126 0 0)
(-0.79789 0 0)
(-0.793617 0 0)
(-0.789309 0 0)
(-0.784965 0 0)
(-0.780586 0 0)
(-0.776173 0 0)
(-0.771726 0 0)
(-0.767244 0 0)
(-0.762729 0 0)
(-0.75818 0 0)
(-0.753597 0 0)
(-0.748982 0 0)
(-0.744334 0 0)
(-0.739654 0 0)
(-0.734942 0 0)
(-0.730198 0 0)
(-0.725423 0 0)
(-0.720616 0 0)
(-0.715778 0 0)
(-0.71091 0 0)
(-0.706011 0 0)
(-0.701082 0 0)
(-0.696123 0 0)
(-0.691135 0 0)
(-0.686118 0 0)
(-0.681071 0 0)
(-0.675996 0 0)
(-0.670893 0 0)
(-0.665761 0 0)
(-0.660601 0 0)
(-0.655414 0 0)
(-0.6502 0 0)
(-0.644958 0 0)
(-0.63969 0 0)
(-0.634396 0 0)
(-0.629075 0 0)
(-0.623728 0 0)
(-0.618355 0 0)
(-0.612958 0 0)
(-0.607535 0 0)
(-0.602087 0 0)
(-0.596615 0 0)
(-0.591118 0 0)
(-0.585597 0 0)
(-0.580053 0 0)
(-0.574485 0 0)
(-0.568894 0 0)
(-0.56328 0 0)
(-0.557643 0 0)
(-0.551984 0 0)
(-0.546303 0 0)
(-0.5406 0 0)
(-0.534875 0 0)
(-0.529129 0 0)
(-0.523362 0 0)
(-0.517574 0 0)
(-0.511766 0 0)
(-0.505937 0 0)
(-0.500088 0 0)
(-0.49422 0 0)
(-0.488332 0 0)
(-0.482425 0 0)
(-0.476499 0 0)
(-0.470554 0 0)
(-0.46459 0 0)
(-0.458609 0 0)
(-0.45261 0 0)
(-0.446593 0 0)
(-0.440558 0 0)
(-0.434506 0 0)
(-0.428438 0 0)
(-0.422353 0 0)
(-0.416252 0 0)
(-0.410134 0 0)
(-0.404001 0 0)
(-0.397852 0 0)
(-0.391687 0 0)
(-0.385508 0 0)
(-0.379314 0 0)
(-0.373105 0 0)
(-0.366882 0 0)
(-0.360645 0 0)
(-0.354394 0 0)
(-0.348129 0 0)
(-0.341852 0 0)
(-0.335561 0 0)
(-0.329257 0 0)
(-0.322941 0 0)
(-0.316613 0 0)
(-0.310272 0 0)
(-0.30392 0 0)
(-0.297556 0 0)
(-0.291181 0 0)
(-0.284796 0 0)
(-0.278399 0 0)
(-0.271992 0 0)
(-0.265574 0 0)
(-0.259146 0 0)
(-0.252709 0 0)
(-0.246262 0 0)
(-0.239806 0 0)
(-0.233341 0 0)
(-0.226867 0 0)
(-0.220385 0 0)
(-0.213894 0 0)
(-0.207396 0 0)
(-0.200889 0 0)
(-0.194375 0 0)
(-0.187854 0 0)
(-0.181326 0 0)
(-0.174791 0 0)
(-0.168249 0 0)
(-0.161702 0 0)
(-0.155148 0 0)
(-0.148588 0 0)
(-0.142023 0 0)
(-0.135453 0 0)
(-0.128877 0 0)
(-0.122297 0 0)
(-0.115712 0 0)
(-0.109123 0 0)
(-0.10253 0 0)
(-0.0959327 0 0)
(-0.0893321 0 0)
(-0.0827282 0 0)
(-0.0761213 0 0)
(-0.0695115 0 0)
(-0.0628991 0 0)
(-0.0562844 0 0)
(-0.0496677 0 0)
(-0.043049 0 0)
(-0.0364288 0 0)
(-0.0298072 0 0)
(-0.0231845 0 0)
(-0.016561 0 0)
(-0.00993685 0 0)
(-0.00331232 0 0)
)
;

boundaryField
{
    left
    {
        type            fixedValue;
        value           uniform (0 0 0);
    }
    right
    {
        type            fixedValue;
        value           uniform (0 0 0);
    }
    frontBackUpDown
    {
        type            empty;
    }
}


// ************************************************************************* //
