/*--------------------------------*- C++ -*----------------------------------*\
| =========                 |                                                 |
| \\      /  F ield         | OpenFOAM: The Open Source CFD Toolbox           |
|  \\    /   O peration     | Version:  2412                                  |
|   \\  /    A nd           | Website:  www.openfoam.com                      |
|    \\/     M anipulation  |                                                 |
\*---------------------------------------------------------------------------*/
FoamFile
{
    version     2.0;
    format      ascii;
    arch        "LSB;label=32;scalar=64";
    class       volScalarField;
    location    "0";
    object      T_0;
}
// * * * * * * * * * * * * * * * * * * * * * * * * * * * * * * * * * * * * * //

dimensions      [0 0 0 1 0 0 0];

internalField   nonuniform List<scalar> 
1000
(
1.374017983189734e-14
1.611773752064214e-14
1.889913917837635e-14
2.215165861908953e-14
2.59535493022088e-14
3.039579799199076e-14
3.558415216756448e-14
4.164146288736205e-14
4.871039100123244e-14
5.695653168628275e-14
6.65720203834317e-14
7.77796924727285e-14
9.083787960779326e-14
1.060459377159008e-13
1.237506154674401e-13
1.443533877612849e-13
1.68318896726837e-13
1.961846632097868e-13
2.285722550273537e-13
2.662001248344349e-13
3.098983606695908e-13
3.606256266399717e-13
4.19488610311562e-13
4.877643378207258e-13
5.669257682203724e-13
6.586711359136523e-13
7.6495757510581e-13
8.880396340281126e-13
1.030513370391612e-12
1.195366814388085e-12
1.386037693005448e-12
1.606479431075617e-12
1.861236582134192e-12
2.155530997872376e-12
2.495360220980377e-12
2.887609785069844e-12
3.340181329981452e-12
3.862138694334011e-12
4.463874433238406e-12
5.157299531692054e-12
5.956059447768701e-12
6.875780029331683e-12
7.93434730921952e-12
9.152225702919226e-12
1.055281971661639e-11
1.216288492995591e-11
1.401299475550216e-11
1.613807030538621e-11
1.857798162568376e-11
2.137822960259473e-11
2.459071901474588e-11
2.827463451763017e-11
3.249743281566454e-11
3.733596592274026e-11
4.287775225355324e-11
4.922241434774139e-11
5.648330433161188e-11
6.478934079534014e-11
7.42870836372443e-11
8.514307663448777e-11
9.754649107834792e-11
1.117121078027937e-10
1.278836793826471e-10
1.463377192317035e-10
1.673877698467559e-10
1.913892085807459e-10
2.187446561538924e-10
2.499100606986133e-10
2.854015385629595e-10
3.258030624563984e-10
3.717750979083733e-10
4.240643005305218e-10
4.835143993449299e-10
5.510784055912835e-10
6.278323020956844e-10
7.149903856273403e-10
8.13922453853745e-10
9.261730497151189e-10
1.053482999475084e-09
1.197813506586566e-09
1.361373092078797e-09
1.546647703685019e-09
1.756434350673977e-09
1.993878659633192e-09
2.262516788614277e-09
2.566322183456886e-09
2.909757711157512e-09
3.297833761273958e-09
3.736172968026088e-09
4.231082273476983e-09
4.78963312650842e-09
5.419750693836053e-09
6.130313048692722e-09
6.931261400736445e-09
7.8337225379732e-09
8.850144768834207e-09
9.994448780895806e-09
1.128219497301896e-08
1.273076897094478e-08
1.435958720369949e-08
1.619032460072269e-08
1.824716666871342e-08
2.055708842412911e-08
2.315016289356111e-08
2.605990215139124e-08
2.93236341438909e-08
3.298291885305435e-08
3.708400768386766e-08
4.167835031746213e-08
4.682315366185844e-08
5.258199795411597e-08
5.90255155251159e-08
6.623213823360764e-08
7.428892011226548e-08
8.32924423484087e-08
9.33498083487897e-08
1.045797373148664e-07
1.171137654857604e-07
1.310975649943858e-07
1.466923911320205e-07
1.640766697319468e-07
1.834477373682749e-07
2.050237481260794e-07
2.290457618385696e-07
2.557800299112314e-07
2.855204961669521e-07
3.185915315558364e-07
3.553509230844775e-07
3.961931389379996e-07
4.41552893500582e-07
4.919090378331078e-07
5.477888031467631e-07
6.097724269261945e-07
6.784981936125102e-07
7.546679241623283e-07
8.390529513629252e-07
9.32500620512229e-07
1.03594135797532e-06
1.150396353214341e-06
1.276985903164826e-06
1.416938471307249e-06
1.571600517468408e-06
1.742447158289425e-06
1.931093722428422e-06
2.139308268932556e-06
2.369025141827293e-06
2.62235963883903e-06
2.901623877299981e-06
3.209343945690499e-06
3.548278434962834e-06
3.921438449770744e-06
4.332109206008668e-06
4.783873327652544e-06
5.280635962796424e-06
5.826651846005285e-06
6.42655444165844e-06
7.085387310847281e-06
7.808637852620352e-06
8.602273578941067e-06
9.472781091643811e-06
1.042720793894249e-05
1.147320753866372e-05
1.261908736534313e-05
1.387386060863837e-05
1.524730152116586e-05
1.675000468486171e-05
1.839344843629022e-05
2.019006270295949e-05
2.215330151465503e-05
2.429772046603781e-05
2.663905941926614e-05
2.919433074816992e-05
3.198191343850019e-05
3.502165337198036e-05
3.833497013526086e-05
4.194497070839126e-05
4.587657040104864e-05
5.015662141843196e-05
5.481404945243411e-05
5.987999870736109e-05
6.538798578303604e-05
7.137406285155295e-05
7.787699057715215e-05
8.493842124161472e-05
9.260309255014361e-05
0.0001009190326048348
0.0001099377765444457
0.000119714595360176
0.0001303087374074367
0.0001417836831430921
0.0001542074136261743
0.000167652693327608
0.0001821973678008337
0.0001979246767702878
0.0002149235831983872
0.000233289118893732
0.0002531227472237147
0.0002745327434932662
0.0002976345935480398
0.0003225514111548292
0.0003494143747040402
0.0003783631837687549
0.0004095465360418405
0.0004431226251567502
0.0004792596598788126
0.0005181364051317354
0.000559942745298717
0.0006048802702085793
0.0006531628841846815
0.000705017438497835
0.0007606843875237624
0.0008204184688607481
0.0008844894076137675
0.0009531826449974631
0.001026800091351616
0.001105660903599099
0.001190102287107673
0.001280480321842971
0.001377170812620959
0.001480570163183218
0.001591096273728452
0.001709189461437566
0.001835313403428094
0.001969956101466623
0.002113630867654512
0.002266877330183461
0.002430262458132822
0.002604381604150087
0.002789859563719931
0.002987351649585412
0.00319754477973836
0.00342115857724264
0.003658946479997417
0.003911696858384886
0.004180234138579345
0.004465419929124384
0.004768154148208325
0.00508937614889027
0.005430065839346202
0.00579124479502034
0.006173977359379494
0.006579371729779587
0.007008581024763794
0.007462804328920986
0.007943287711243871
0.008451325212735925
0.008988259798830247
0.00955548427199668
0.01015444213973356
0.01078662843296247
0.01145359046967133
0.01215692855848682
0.01289829663669622
0.01367940283709033
0.01450200997785413
0.01536793596960546
0.0162790541335565
0.01723729342467134
0.01824463855359528
0.01930313000105441
0.02041486391836292
0.02158199190762766
0.02280672067521581
0.02409131155204223
0.02543807987424581
0.02684939421786588
0.02832767548117832
0.02987539580844447
0.03149507734892517
0.03318929084515207
0.0349606540446084
0.03681182992915636
0.03874552475677585
0.04076448591041567
0.04287149954904396
0.04506938805629511
0.04736100728243797
0.04974924357578286
0.05223701060002599
0.05482724593448322
0.05752290745462781
0.0603269694908396
0.06324241876382272
0.0662722500956885
0.06941946189632206
0.07268705142525178
0.07607800982991043
0.07959531696185312
0.08324193597320868
0.08702080769637772
0.09093484481074823
0.09498692580099007
0.09917988871228189
0.1035165247086584
0.1079995714415052
0.1126317062360684
0.1174155391047375
0.1223536055967108
0.1274483594945519
0.1327021653690219
0.1381172910044693
0.1436958997079205
0.149440042515926
0.1553516503140432
0.1614325258847344
0.1676843359002552
0.174108602877953
0.1807066971161822
0.1874798286297906
0.194429039104894
0.2015551938933132
0.2088589740677327
0.2163408685592468
0.224001166399506
0.2318399490902053
0.2398570831231052
0.24805221267418
0.2564247524958021
0.2649738810311723
0.2736985337753741
0.28259739690757
0.2916689012189103
0.3009112163606977
0.3103222454372272
0.3198996199675552
0.3296406952401567
0.3395425460840704
0.3496019630796954
0.3598154492318334
0.370179217126975
0.3806891865960909
0.3913409829033734
0.40212993548049
0.4130510772249089
0.4240991443797882
0.4352685770117357
0.4465535201015423
0.4579478252615856
0.469445053092275
0.48103847618835
0.4927210828043121
0.5044855811866367
0.516324404578702
0.5282297169026264
0.5401934191203661
0.5522071562745839
0.5642623252078846
0.5763500829570093
0.588461355816693
0.6005868490657836
0.6127170573462296
0.6248422756835005
0.636952611134959
0.6490379950505997
0.6610881959286088
0.6730928328461147
0.6850413894435159
0.6969232284388029
0.7087276066463709
0.7204436904729202
0.7320605718612181
0.7435672846507632
0.754952821322619
0.766206150094166
0.777316232327924
0.7882720402171551
0.7990625747096546
0.8096768836298519
0.8201040799582546
0.8303333602262246
0.8403540229832013
0.8501554872927263
0.8597273112129613
0.8690592102169339
0.8781410755073519
0.8869629921806085
0.8955152571945394
0.9037883970945589
0.9117731854530026
0.91946065997686
0.9268421392396385
0.9339092389936915
0.9406538880201937
0.9470683434748682
0.9531452056886719
0.9588774323838645
0.9642583522672696
0.9692816779639958
0.9739415182565481
0.978232389595985
0.9821492268536431
0.9856873932839186
0.9888426896706879
0.9916113626321053
0.9939901120607906
0.9959760976787608
0.9975669446888844
0.9987607485071126
0.9995560785622917
0.9999519811529417
0.9999479813530168
0.9995440839613168
0.9987407734918934
0.9975390132054758
0.9959402431846291
0.9939463774580284
0.9915598001818838
0.9887833608891887
0.9856203688200329
0.9820745863487774
0.9781502215263667
0.9738519197584627
0.9691847546424468
0.9641542179885774
0.9587662090527862
0.9530270230106436
0.9469433387040266
0.9405222056938495
0.9337710306539898
0.9266975631431456
0.9193098807928557
0.9116163739512817
0.9036257298235774
0.8953469161507412
0.8867891644698137
0.877961952999067
0.868874989192488
0.8595381920083703
0.8499616739371862
0.8401557228341158
0.8301307836016832
0.8198974397678638
0.8094663950048169
0.7988484546330054
0.7880545071550005
0.7770955058625857
0.7659824505600605
0.754726369445702
0.7433383011923547
0.7318292772669823
0.7202103045277723
0.7084923481360392
0.6966863148187333
0.6848030365158058
0.672853254445109
0.6608476036157501
0.6487965978191103
0.6367106151248829
0.6245998839075819
0.6124744694270986
0.6003442609848535
0.5882189596751317
0.5761080667491286
0.5640208726072399
0.5519664464330087
0.5399536264801814
0.52799101102218
0.516086949971344
0.5042495371732486
0.492486603379429
0.480805709899861
0.4692141429347115
0.4577189085828942
0.4463267285232688
0.4350440363624698
0.4238769746416889
0.4128313924931465
0.4019128439353225
0.3911265867946421
0.380477582239807
0.3699704949137148
0.3596096936465809
0.3493992527327943
0.3393429537528708
0.3294442879209897
0.3197064589375999
0.3101323863258347
0.3007247092297397
0.291485790651682
0.2824177221057808
0.2735223286637601
0.2648011743692313
0.2562555679961826
0.2478865691272184
0.2396949945270329
0.2316814247865205
0.2238462112130374
0.2161894829424045
0.2087111542484844
0.2014109320263979
0.1942883234258062
0.1873426436110771
0.1805730236256081
0.1739784183380889
0.1675576144490601
0.1613092385367231
0.1552317651216398
0.1493235247306071
0.1435827119407888
0.1380073933858854
0.1325955157069747
0.1273449134314276
0.122253316764163
0.1173183592763604
0.1125375854776144
0.107908458258381
0.1034283661904691
0.09909463067420093
0.09490451292175937
0.09085522076711743
0.08694391529382361
0.08316771727278252
0.07952371340302258
0.07600896234928543
0.07262050057109154
0.06935534793874025
0.06621051313249304
0.06318299882193339
0.06026980662324304
0.05746794183285468
0.0547744179365883
0.05218626089407553
0.04970051319886361
0.04731423771521389
0.04502452129314802
0.04282847816384602
0.04072325311798614
0.03870602447009501
0.03677400681240214
0.03492445356210593
0.03315465930631846
0.03146196194930827
0.02984374466695626
0.02829743767362778
0.02682051980690629
0.02541051993584771
0.02406501819861125
0.02278164707548121
0.02155809230341983
0.02039209363840943
0.01928144547192168
0.01822399730790184
0.0172176541067055
0.01626037650242276
0.01535018090003217
0.01448513945878679
0.01366337996820042
0.01288308562292818
0.01214249470276725
0.01143990016390441
0.01077364914742703
0.01014214241100148
0.009543833689485236
0.008977228990100007
0.008440885827641971
0.007933412405045087
0.007453466744448821
0.006999755773748292
0.006571034373427275
0.006166104388292717
0.005783813608546195
0.005423054724437313
0.005082764258556634
0.004761921479636383
0.004459547301534239
0.004174703170888461
0.003906489946742524
0.0036540467752496
0.003416549962384816
0.003193211847409088
0.002983279679650222
0.002786034500991571
0.002600790036288212
0.002426891593762002
0.00226371497726645
0.002110665412153239
0.001967176486321485
0.001832709107882688
0.001706750480733331
0.001588813099191046
0.001478433762719955
0.001375172611646012
0.001278612184645083
0.001188356498672438
0.001104030151896224
0.0010252774500953
0.000951761556886479
0.0008831636680555916
0.0008191822101830345
0.0007595320636744624
0.0007039438102340999
0.0006521630047493273
0.0006039494714914403
0.0005590766244794732
0.000517330811799502
0.0004785106836228669
0.0004424265836219911
0.0004088999634417561
0.0003777628198480472
0.000348857154142304
0.0003220344534022907
0.0002971551930838297
0.0002740883604962235
0.0002527109986455212
0.0002329077699237397
0.000214570539109367
0.0001975979751341168
0.0001818951710629739
0.0001673732817291942
0.0001539491784624535
0.0001415451203469336
0.0001300884414466836
0.0001195112534376704
0.0001097501630896091
0.0001007460040458472
9.244358235588318e-05
8.479143522266201e-05
7.774160243538982e-05
7.124940996804833e-05
6.52732652341217e-05
5.977446349906245e-05
5.471700496361472e-05
5.006742204330298e-05
4.579461638189816e-05
4.186970514970252e-05
3.826587619061322e-05
3.495825159542746e-05
3.192375929236785e-05
2.914101225950852e-05
2.659019497745629e-05
2.425295675432459e-05
2.211231156865598e-05
2.015254408945925e-05
1.835912154590873e-05
1.671861113243222e-05
1.521860264792743e-05
1.38476360805934e-05
1.259513386238288e-05
1.145133752930371e-05
1.040724853574584e-05
9.45457298264117e-06
8.585670030578975e-06
7.79350377998335e-06
7.071598411114549e-06
6.413996386951897e-06
5.815219531986889e-06
5.270232809558211e-06
4.774410629626388e-06
4.323505527796881e-06
3.913619064967109e-06
3.541174805193557e-06
3.202893237260633e-06
2.895768512976852e-06
2.617046882447346e-06
2.364206713463086e-06
2.134939988734083e-06
1.927135180962579e-06
1.738861411730362e-06
1.568353805855203e-06
1.413999958272716e-06
1.274327435627935e-06
1.147992239623025e-06
1.033768163776116e-06
9.305369796088631e-07
8.372793924049796e-07
7.530667105822144e-07
6.770531763994158e-07
6.084689091940113e-07
5.46613415615747e-07
4.90849624405595e-07
4.405984061668213e-07
3.953335413012036e-07
3.545771018437732e-07
3.178952153325358e-07
2.848941811030012e-07
2.552169115097382e-07
2.285396725544872e-07
2.045691002511058e-07
1.830394707872771e-07
1.637102041596216e-07
1.463635824676196e-07
1.308026654595283e-07
1.168493872357121e-07
1.043428192372908e-07
9.31375857858771e-08
8.310241949878534e-08
7.411884488803031e-08
6.607997936544484e-08
5.888944172485273e-08
5.246035895918208e-08
4.67144630002175e-08
4.15812696445824e-08
3.699733255533882e-08
3.290556580760123e-08
2.925462898184845e-08
2.599836930318835e-08
2.309531578156837e-08
2.050822072930431e-08
1.820364442095497e-08
1.615157901872281e-08
1.432510821640967e-08
1.270009935860856e-08
1.125492507107422e-08
9.970211694984944e-09
8.828612053672654e-09
7.814600296987186e-09
6.914286767187377e-09
6.115251012493405e-09
5.406391241469004e-09
4.77778866438254e-09
4.220585307738545e-09
3.726874016295879e-09
3.289599474018529e-09
2.902469182453432e-09
2.559873432773594e-09
2.256813396947951e-09
1.988836544878064e-09
1.751978668535123e-09
1.542711861728072e-09
1.357897865686736e-09
1.194746246663285e-09
1.050776922706942e-09
9.237866030867645e-10
8.118187459154304e-10
7.131366777401438e-10
6.261995535422544e-10
5.496408670385332e-10
4.822492496884054e-10
4.22951322642225e-10
3.707963892550156e-10
3.249427769578617e-10
2.846456564254281e-10
2.49246183285565e-10
2.181618232560928e-10
1.908777357144984e-10
1.669391034521348e-10
1.459443078608197e-10
1.275388591650895e-10
1.114100006525677e-10
9.728191426653303e-11
8.491146249541062e-11
7.408440830531172e-11
6.461206098581192e-11
5.63283012830401e-11
4.908694413749588e-11
4.275940178202259e-11
3.723261393723443e-11
3.240721541273003e-11
2.819591462311823e-11
2.452205939525894e-11
2.13183690105601e-11
1.852581372379814e-11
1.609262505504474e-11
1.397342198859986e-11
1.212843985449826e-11
1.052285013428856e-11
9.126160741517073e-12
7.911687494895612e-12
6.856088543296057e-12
5.938954429603205e-12
5.142447307044961e-12
4.450983557568328e-12
3.850954716726117e-12
3.330482192055487e-12
2.879201779766117e-12
2.488074444690092e-12
2.149220237082864e-12
1.85577258259775e-12
1.601750503576743e-12
1.381946615176937e-12
1.191828992791943e-12
1.02745523130051e-12
8.853972150784114e-13
7.626752932984763e-13
6.567007103618056e-13
5.652252786267719e-13
4.862974019496482e-13
4.182236657361302e-13
3.595353038243289e-13
3.089589360147996e-13
2.653910437006705e-13
2.278757159642916e-13
1.955852557015711e-13
1.678032857034251e-13
1.439100389605604e-13
1.233695564643443e-13
1.057185500786044e-13
9.055671820634828e-14
7.753832846248551e-14
6.636490482154521e-14
5.677887712220824e-14
4.855806871782676e-14
4.15109137632835e-14
3.547230938943636e-14
3.030002007058699e-14
2.587156204445621e-14
2.208150488060066e-14
1.883913537240659e-14
1.606643599151293e-14
1.369633631641181e-14
1.16712012387248e-14
9.941524458055494e-15
8.46479988405661e-15
7.204547147265685e-15
6.12947054388679e-15
5.212733461561321e-15
4.431332703904191e-15
3.765559195448515e-15
3.198533344544628e-15
2.715804903729278e-15
2.305008524970946e-15
1.955567387099022e-15
1.658438297494065e-15
1.40589255972551e-15
1.191327670750755e-15
1.009105580764624e-15
8.544138291628234e-16
7.231463729585072e-16
6.118013595288238e-16
5.173934725956877e-16
4.373788065808342e-16
3.69590506622635e-16
3.121836554502062e-16
2.635880990619799e-16
2.224680851728679e-16
1.876877455234316e-16
1.58281588723787e-16
1.334292872373266e-16
1.124341429117125e-16
9.470470232220647e-17
7.973906799951485e-17
6.711151601341512e-17
5.6461085796514e-17
4.748185575177281e-17
3.991465915909085e-17
3.354003010208913e-17
2.817219937422275e-17
2.365398628219601e-17
1.985245453992313e-17
1.665521955177428e-17
1.396731076319067e-17
1.170850679248843e-17
9.811073079581606e-18
8.217842079758148e-18
6.880584838255152e-18
5.758630314982003e-18
4.817695269692643e-18
4.028893022137631e-18
3.367894103367907e-18
2.814215828571079e-18
2.350621247583725e-18
1.962610851446737e-18
1.637992904956039e-18
1.366520398590347e-18
1.139584422060777e-18
9.499553019179478e-19
7.915641564879651e-19
6.593186365354619e-19
5.489475682635128e-19
4.568700211728523e-19
3.800850079656803e-19
3.160786050699232e-19
2.627457758331858e-19
2.183245970979946e-19
1.813409449030235e-19
1.505619959928584e-19
1.24957156790426e-19
1.036652474137641e-19
8.596695110124497e-20
7.126169406254509e-20
5.904825156906203e-20
4.890848666602533e-20
4.049372131662265e-20
3.351331869734877e-20
2.772512198024768e-20
2.292745115127163e-20
1.895240682834853e-20
1.566027001693844e-20
1.293482042770688e-20
1.067942435649642e-20
8.813767017815303e-21
7.271124329397851e-21
5.996086059014797e-21
4.942656466271518e-21
4.072670524768732e-21
3.354473851285179e-21
2.761822900404314e-21
2.272969060144969e-21
1.869896221635681e-21
1.53768637501648e-21
1.26399195738358e-21
1.038597175475985e-21
8.530534543785391e-22
7.003766150467714e-22
5.747954347566273e-22
4.715429602199781e-22
3.866833773786638e-22
3.169684404107095e-22
2.597184635573398e-22
2.127237151707159e-22
1.741627508668795e-22
1.425348044808101e-22
1.166038406271371e-22
9.53522769671363e-23
7.794272108461398e-23
6.368634732235558e-23
5.201677235467545e-23
4.246848246919428e-23
3.465902702322146e-23
2.827432677616281e-23
2.30565573302007e-23
1.879416053708428e-23
1.531361361988503e-23
1.247264955994255e-23
1.015467521604921e-23
8.264177512954747e-24
6.722944390062916e-24
5.466957313525705e-24
4.443837086300701e-24
3.610745323569001e-24
2.932661028909907e-24
2.380965819448514e-24
1.932283012487832e-24
1.567525422441816e-24
1.271114674347737e-24
1.030341408473948e-24
8.348411697082561e-25
6.761652445955669e-25
5.47429393012103e-25
4.430264571018297e-25
3.583913303151435e-25
2.898088277185495e-25
2.342566925526822e-25
1.892773672488166e-25
1.528733026126076e-25
1.234215202903036e-25
9.960391697139286e-26
8.035043378315949e-26
6.479273551599776e-26
5.222647189863016e-26
4.208054377851909e-26
3.389208447601979e-26
2.728610206889313e-26
2.19589212238851e-26
1.766472107234978e-26
1.420459481572674e-26
1.141766241237778e-26
9.173854085610577e-27
7.368052990008799e-27
5.91534304096082e-27
4.747154998109572e-27
3.808142322509457e-27
3.05364967756109e-27
2.44766250817727e-27
1.96114696995583e-27
1.570706457117673e-27
1.257494803829029e-27
1.006337488273579e-27
8.050213266667983e-28
6.437205927834488e-28
5.145335539786972e-28
4.111083355142136e-28
3.283410221092403e-28
2.621321510246344e-28
2.091903848933007e-28
1.668742892253067e-28
1.330648721486457e-28
1.06062948308782e-28
8.450652664826674e-29
6.730434322252631e-29
5.35824061016944e-29
4.264102294432869e-29
3.39202699668842e-29
2.697225566742637e-29
2.143885156754649e-29
1.70338198340817e-29
1.352847562883043e-29
1.07401898928338e-29
8.523173685860794e-30
6.761094395799738e-30
5.361162145768457e-30
4.249395637236801e-30
3.366833774109659e-30
2.666505383036648e-30
2.111006335025993e-30
1.670563124387296e-30
1.32148587952966e-30
1.044933001350735e-30
8.259250647827021e-31
6.525580160974476e-31
5.153756482269894e-31
4.068693183723839e-31
3.210792729280644e-31
2.532770753093589e-31
1.997127429403869e-31
1.574134917761066e-31
1.240236221663577e-31
9.767718871248382e-32
7.689678351652514e-32
6.051311078828495e-32
)
;

boundaryField
{
    left
    {
        type            zeroGradient;
    }
    right
    {
        type            zeroGradient;
    }
    frontBackUpDown
    {
        type            empty;
    }
}


// ************************************************************************* //
