/*--------------------------------*- C++ -*----------------------------------*\
| =========                 |                                                 |
| \\      /  F ield         | OpenFOAM: The Open Source CFD Toolbox           |
|  \\    /   O peration     | Version:  2412                                  |
|   \\  /    A nd           | Website:  www.openfoam.com                      |
|    \\/     M anipulation  |                                                 |
\*---------------------------------------------------------------------------*/
FoamFile
{
    version     2.0;
    format      ascii;
    arch        "LSB;label=32;scalar=64";
    class       volScalarField;
    location    "0";
    object      T_0_0;
}
// * * * * * * * * * * * * * * * * * * * * * * * * * * * * * * * * * * * * * //

dimensions      [0 0 0 1 0 0 0];

internalField   nonuniform List<scalar> 
1000
(
1.376215336637714e-14
1.614344871279107e-14
1.89292115760406e-14
2.218681769328163e-14
2.599463875194514e-14
3.044379859855301e-14
3.564020358724156e-14
4.170688882957126e-14
4.87867283051362e-14
5.704556388476012e-14
6.667581642987998e-14
7.79006514051714e-14
9.097878203786117e-14
1.062100051593889e-13
1.239415786805264e-13
1.445755654146165e-13
1.685772859413937e-13
1.964850436968879e-13
2.289213088240339e-13
2.666055739087447e-13
3.103691249927925e-13
3.611720056893579e-13
4.201224913845757e-13
4.88499435014834e-13
5.677778964712587e-13
6.596585250952355e-13
7.66101229888673e-13
8.893637459791637e-13
1.032045789688812e-12
1.197139589533761e-12
1.388087688065148e-12
1.608849031263517e-12
1.863974500030266e-12
2.15869319421217e-12
2.499010955829278e-12
2.891822817307729e-12
3.345041285410041e-12
3.86774262541263e-12
4.470333596492289e-12
5.164741412262008e-12
5.964630064430512e-12
6.885646557661132e-12
7.945701065471399e-12
9.165285536694921e-12
1.056783586658627e-11
1.218014340386219e-11
1.403282230348508e-11
1.616084006445761e-11
1.860411952302281e-11
2.140822161639344e-11
2.462511940372305e-11
2.831407514421686e-11
3.25426337034163e-11
3.738774720593853e-11
4.293704769643794e-11
4.929028663259667e-11
5.656096233927049e-11
6.487815912887252e-11
7.438862466995897e-11
8.525911539725934e-11
9.767904333908264e-11
1.118634617329816e-10
1.280564312528885e-10
1.465348136303898e-10
1.6761254497426e-10
1.916454472362243e-10
2.190366431037613e-10
2.502426471957606e-10
2.857802148745555e-10
3.262340393568233e-10
3.722653982031276e-10
4.246218617983704e-10
4.841481892199344e-10
5.517985510553166e-10
6.286502344169404e-10
7.159190027627582e-10
8.149763023350028e-10
9.273685282609013e-10
1.054838586818617e-09
1.199350016279394e-09
1.363113957331839e-09
1.548619295638935e-09
1.758666333855664e-09
1.996404388757026e-09
2.26537375132913e-09
2.569552494126877e-09
2.913408661299671e-09
3.301958432864517e-09
3.740830916533497e-09
4.236340288189264e-09
4.795566076501436e-09
5.426442468782508e-09
6.137857604648331e-09
6.939763922063703e-09
7.843300727686029e-09
8.86093028087398e-09
1.000658880919101e-08
1.129585401364806e-08
1.27461307753231e-08
1.437685694245901e-08
1.620973125986065e-08
1.82689657016651e-08
2.058156468568174e-08
2.317763388399655e-08
2.609072160192285e-08
2.935819597738114e-08
3.302166155716838e-08
3.712741913726358e-08
4.172697311335437e-08
4.687759097734678e-08
5.264292001806711e-08
5.909366674214636e-08
6.630834502687025e-08
7.437409955332175e-08
8.338761164849738e-08
9.345609529231501e-08
1.046983917229732e-07
1.17246171805444e-07
1.312452561167842e-07
1.468570635523414e-07
1.64260200173003e-07
1.836522009998051e-07
2.052514385230391e-07
2.292992128333814e-07
2.560620395076832e-07
2.858341526970301e-07
3.189402422753937e-07
3.557384454192679e-07
3.966236146083693e-07
4.42030885771027e-07
4.924395721520611e-07
5.4837741146245e-07
6.104251959862517e-07
6.792218175783591e-07
7.554697618941409e-07
8.39941088757492e-07
9.334839383041704e-07
1.037029605442013e-06
1.151600228256804e-06
1.27831713927041e-06
1.41840993193598e-06
1.573226298442596e-06
1.744242698806409e-06
1.933075925358786e-06
2.141495631110997e-06
2.371437895090853e-06
2.62501990261725e-06
2.904555823614345e-06
3.21257397747594e-06
3.551835378682506e-06
3.925353763356386e-06
4.336417203223598e-06
4.788611420041166e-06
5.285844920455471e-06
5.832376078485422e-06
6.432842300382261e-06
7.092291414510408e-06
7.816215437126187e-06
8.610586873507372e-06
9.48189772281019e-06
1.043720136430225e-05
1.148415751224166e-05
1.263108043664215e-05
1.388699065748263e-05
1.526167033057646e-05
1.676572255431278e-05
1.841063483780745e-05
2.020884698264225e-05
2.217382364232271e-05
2.432013183582597e-05
2.666352370412437e-05
2.922102481134181e-05
3.201102830519641e-05
3.505339526459028e-05
3.836956157558138e-05
4.198265169048776e-05
4.591759963849887e-05
5.020127766984192e-05
5.486263292925089e-05
5.993283256814402e-05
6.544541771848219e-05
7.143646676470738e-05
7.794476836336383e-05
8.501200467292477e-05
9.268294526891851e-05
0.0001010056522315759
0.0001100316969048168
0.0001198163888364021
0.0001304190174193189
0.0001419031067639843
0.0001543366843393345
0.0001677925639284196
0.000182348643450439
0.000198088218206229
0.0002151003101078693
0.0002334800134551453
0.0002533288578220408
0.0002747551886149712
0.0002978745658610168
0.0003228101817788793
0.0003496932976772901
0.000378663700715302
0.0004098701810457584
0.0004434710298474226
0.0004796345587323603
0.0005185396409930589
0.000560376275128411
0.0006053461710586568
0.000653663359406721
0.0007055548241867505
0.0007612611591999917
0.0008210372483931698
0.000885152970385145
0.0009538939273136565
0.001027562198095171
0.001106477116127197
0.001190976071393667
0.001281415336860009
0.001378170918965351
0.001481639431934323
0.001592238995540977
0.0017104101558611
0.001836616828447756
0.001971347263257495
0.00211511503054146
0.002268460026796676
0.002431949499748145
0.002606179091201858
0.002791773896472709
0.002989389538949491
0.003199713258212429
0.003423465009965522
0.003661398575889071
0.003914302681355325
0.004183002118782373
0.004468358874231297
0.004771273254675085
0.005092685013189628
0.005433574469134628
0.005794963620207655
0.006177917243067213
0.006583543979032076
0.007012997401174559
0.007467477058934364
0.00794822949619056
0.008456549238538892
0.008993779745335729
0.009561314321883096
0.01016059698694943
0.0107931232906426
0.01146044107747885
0.01216415118932719
0.01290590810274745
0.01368742049509255
0.01451045173360006
0.01537682028157206
0.01628840001561712
0.01724712044782657
0.0182549668466597
0.01931398025023618
0.02042625736567194
0.02159395034804841
0.02281926645258013
0.0241044675535379
0.02545186952349658
0.02686384146651949
0.02834280479893924
0.02989123217148966
0.03151164622664189
0.03320661818513828
0.03497876625587869
0.03683075386349697
0.03876528768819664
0.04078511551264753
0.04289302387103476
0.04509183549565904
0.04738440655681814
0.04977362369208981
0.0522624008215195
0.05485367574566893
0.05755040652394584
0.06035556763112608
0.06327214589053251
0.06630313618287109
0.06945153693035072
0.07272034535631106
0.07611255252125415
0.07963113813685238
0.08327906516021615
0.08705927417144202
0.09097467753822043
0.09502815337207128
0.09922253928157079
0.103560625928763
0.1080451503957951
0.1126787893696498
0.1174641521537432
0.1224037735160051
0.1275001063839608
0.1327555143982065
0.1381722643365701
0.1437525184221074
0.1494983265290002
0.1554116183012436
0.1614941951999104
0.1677477224955758
0.1741737212233315
0.1807735601186004
0.187548447552718
0.1944994234880012
0.201627351472687
0.2089329106968078
0.2164165881306712
0.224078670768168
0.2319192379976493
0.2399381541235713
0.248135061062506
0.2565093712374268
0.2650602606944847
0.2737866624666521
0.282687260208755
0.2917604821284622
0.3010044952377776
0.3104171999494474
0.3199962250425425
0.3297389230211625
0.3396423658898646
0.3497033413689712
0.3599183495723475
0.370283600169638
0.3807950100542183
0.3914482015372958
0.4022385010877144
0.4131609386360106
0.4242102474602024
0.435380864669607
0.4466669323017745
0.4580622990462243
0.4695605226073367
0.4811548727171992
0.4928383348076722
0.5046036143493001
0.5164431418629932
0.5283490786086475
0.5403133229530418
0.5523275174174997
0.564383056403895
0.5764710945955724
0.5885825560278674
0.6007081438208031
0.6128383505645545
0.6249634693462162
0.63707360540438
0.649158688395912
0.6612084852573644
0.6732126136413726
0.6851605559064025
0.6970416736362472
0.7088452226637488
0.720560368571326
0.7321762026390599
0.743681758209366
0.7550660274354982
0.7663179783796223
0.777426572424592
0.7883807819621285
0.7991696083187919
0.8097820998798625
0.8202073703701452
0.8304346172496858
0.8404531401814982
0.8502523595276548
0.8598218348294241
0.8691512832266854
0.8782305977714614
0.8870498655901841
0.8955993858492612
0.9038696874785674
0.911851546607691
0.9195360036701274
0.9269143801311619
0.9339782947957842
0.9407196796538284
0.9471307952204484
0.9532042453311511
0.9589329913518245
0.9643103657655824
0.9693300850997095
0.9739862621576563
0.9782734175227542
0.9821864903021932
0.9857208480817714
0.988872296064022
0.9916370853644744
0.9940119204430863
0.9959939656502285
0.9975808508690193
0.9987706762382935
0.9995620159430324
0.9999539210616669
0.9999459214622969
0.9995380267425213
0.9987307262102501
0.9975249879055482
0.995922256666256
0.9939244512427887
0.9915339604701841
0.9887536385080899
0.9855867991619655
0.9820372093013107
0.9781090813932323
0.9738070651720477
0.9691362384679995
0.96410209722039
0.9587105447026403
0.9529678799888225
0.9468807856932205
0.940456315016296
0.9337018781322091
0.9266252279546456
0.9192344453191976
0.9115379236219056
0.9035443529548048
0.895262703780378
0.8867022101877838
0.8778723527745211
0.8687828411978288
0.8594435964406475
0.849864732837313
0.8400565399043615
0.8300294640218965
0.8197940900108787
0.8093611226514921
0.7987413681873422
0.7879457158597786
0.7769851195159507
0.7658705793334863
0.7546131237037436
0.7432237913145955
0.731713613472568
0.7200935967029112
0.7083747056648325
0.696567846417689
0.6846838500723669
0.672733456860518
0.6607273006525469
0.648675893953549
0.63658961340453
0.6244786858143423
0.6123531747458927
0.6002229676781544
0.5880977637635447
0.5759870621981803
0.5639001512205205
0.5518460977517933
0.5398337376896304
0.5278716668642068
0.515968232664209
0.5041315263379247
0.4923693759727603
0.4806893401545212
0.469098702305944
0.4576044657020036
0.4462133491578107
0.434931783383071
0.4237659079954125
0.4127215691833026
0.4018043180076048
0.391019409329464
0.3803718013506878
0.3698661557515631
0.3595068384097022
0.3492979206824443
0.3392431812341625
0.3293461083889545
0.3196099029881923
0.3100374817316667
0.3006314809803183
0.2913942609979236
0.2823279106085673
0.2734342522462974
0.2647148473729715
0.2561710022400641
0.2478037739699808
0.2396139769323587
0.2316021893907603
0.2237687603952728
0.2161138168966063
0.2086372710575243
0.2013388277376776
0.1942179921282697
0.1872740775133754
0.1805062131351927
0.1739133521410149
0.1674942795902842
0.1612476205006906
0.1551718479129599
0.1492652909546222
0.1435261428838547
0.1379524690951809
0.1325422150696746
0.1272932142530742
0.1222031958460848
0.1172697924919936
0.1124905478475905
0.1078629240242538
0.1033843088869638
0.09905202319987506
0.09486332760797582
0.0908154294452377
0.08690548936053857
0.08313062775350621
0.07948793101328351
0.07597445755405756
0.07258724364201587
0.06932330900919555
0.06617966225048195
0.06315330600075764
0.06024124188994889
0.05744047527443658
0.05474801974394534
0.05216090140372153
0.04967616293239849
0.04729086741656856
0.04500210196362182
0.04280698109495989
0.04070264992217962
0.03868628710930083
0.03675510762453466
0.03490636528550439
0.03313735510219046
0.03144541542221984
0.02982792988342047
0.0282823291788443
0.02680609263970787
0.02539674964191126
0.02405188084199265
0.02276911924853501
0.02154615113516555
0.02038071680140769
0.01927061118772386
0.01821368435113728
0.0172078418078707
0.01625104474943712
0.01534131013862431
0.01447671069177547
0.01365537475373339
0.01287548607174161
0.01213528347452733
0.01143306046269212
0.01076716471642548
0.01013599752644434
0.009538013153923124
0.008971718125040424
0.008435670465616696
0.00792847888115744
0.007448801887451349
0.00699534689669988
0.006566869263976654
0.006162171298633765
0.005780101245088272
0.005419552237232315
0.005079461230522239
0.004758807915613254
0.004456613617213015
0.004171940181640399
0.003903888856385885
0.003651599164781892
0.003414247778709306
0.003191047392082057
0.002981245597673757
0.00278412376967493
0.002598995954199109
0.002425207769787469
0.002262135319801412
0.002109184118433361
0.001965788031915296
0.001831408236356623
0.001705532193501917
0.00158767264556311
0.001477366630150482
0.00137417451620204
0.00127767906169288
0.001187484493792133
0.001103215612028938
0.001024516914926947
0.0009510517504713587
0.0008825014906821558
0.0008185647304832542
0.0007589565109775755
0.0007034075671647213
0.000651663600069307
0.000603484573184193
0.0005586440330749802
0.0005169284539376509
0.0004781366058523301
0.0004420789464314153
0.0004085770355196546
0.0003774629725674398
0.000348578856265842
0.0003217762660033285
0.0002969157646786863
0.000273866422382651
0.0002525053604422385
0.0002327173153057496
0.0002143942217336477
0.000197434814750189
0.0001817442498027974
0.0001672337405707743
0.0001538202138615364
0.0001414259810311604
0.0001299784253665786
0.0001194097048688764
0.0001096564698808271
0.0001006595950069874
9.23639247810153e-05
8.471803254242389e-05
7.767399199361074e-05
7.118716091743752e-05
6.521597654598385e-05
5.972176208211141e-05
5.466854388707801e-05
5.002287885963287e-05
4.575369154453196e-05
4.183212052144748e-05
3.823137363836254e-05
3.492659166705018e-05
3.189471997175256e-05
2.911438779587497e-05
2.656579478518936e-05
2.423060437971869e-05
2.209184372009543e-05
2.013380972769416e-05
1.834198103121841e-05
1.670293542559964e-05
1.520427256207712e-05
1.383454158107078e-05
1.258317341197799e-05
1.144041747624173e-05
1.039728254198599e-05
9.445481490139363e-06
8.577379763281836e-06
7.785947279428568e-06
7.064713603618375e-06
6.407726180464596e-06
5.809511440796093e-06
5.265038605113517e-06
4.76968601584991e-06
4.319209839331699e-06
3.90971498689929e-06
3.537628112864295e-06
3.199672554861875e-06
2.892845089697637e-06
2.614394385008811e-06
2.361801033947194e-06
2.132759066675647e-06
1.925158838735043e-06
1.737071202314436e-06
1.566732872134515e-06
1.412532903053441e-06
1.273000201629198e-06
1.146791998732284e-06
1.032683214908454e-06
9.295566545516155e-07
8.363939690691593e-07
7.522673331201263e-07
6.763317816835292e-07
6.078181591859088e-07
5.460266351856742e-07
4.903207441930314e-07
4.401219101006027e-07
3.949044184241133e-07
3.541908021113313e-07
3.175476090789703e-07
2.845815218892021e-07
2.54935802088415e-07
2.28287033706879e-07
2.043421422674761e-07
1.828356673801425e-07
1.635272686142729e-07
1.46199445849064e-07
1.306554567085591e-07
1.167174149994895e-07
1.042245552915864e-07
9.303164991711864e-08
8.300756572423302e-08
7.403394890189712e-08
6.600402710757408e-08
5.882151897673784e-08
5.239964187968192e-08
4.666020952034802e-08
4.153281164725767e-08
3.695406877195615e-08
3.286695536893007e-08
2.922018556581886e-08
2.59676558269319e-08
2.306793958944491e-08
2.048382923269406e-08
1.818192114932361e-08
1.613224004490224e-08
1.43078989222013e-08
1.26847915097238e-08
1.12413141731051e-08
9.958114604557175e-09
8.817864821190341e-09
7.805056219453702e-09
6.905814631488236e-09
6.10773351126961e-09
5.399723545308318e-09
4.771877135517513e-09
4.215346341779767e-09
3.722232999752154e-09
3.285489846475687e-09
2.898831593304742e-09
2.556654983328501e-09
2.25396695959738e-09
1.986320151770516e-09
1.74975496292605e-09
1.540747605809169e-09
1.356163499288757e-09
1.193215491759774e-09
1.049426429131748e-09
9.225956313192768e-10
8.107688831882766e-10
7.122115840876627e-10
6.253847347381726e-10
5.489234716704029e-10
4.816178878875784e-10
4.223959042336723e-10
3.703079793137055e-10
3.245134669594745e-10
2.842684493611428e-10
2.489148912749894e-10
2.178709763409128e-10
1.906225006494453e-10
1.667152114308232e-10
1.457479902230823e-10
1.273667902307126e-10
1.112592469149207e-10
9.714988925927622e-11
8.479588671724457e-11
7.398327365223153e-11
6.452359919835315e-11
5.625095596810011e-11
4.901934597112e-11
4.270034654153859e-11
3.718104304878969e-11
3.236219873406421e-11
2.815663521166823e-11
2.448780003879887e-11
2.128850032184484e-11
1.849978362238438e-11
1.606994947887816e-11
1.395367669530752e-11
1.211125318782048e-11
1.050789664492612e-11
9.113155564015765e-12
7.900381393205337e-12
6.846263547460196e-12
5.930419994781588e-12
5.135036933866922e-12
4.444551819745235e-12
3.845374648024561e-12
3.325642990216853e-12
2.875006789835798e-12
2.484439388550105e-12
2.14607165982762e-12
1.853046489805897e-12
1.599391166558811e-12
1.379905523962145e-12
1.190063938995786e-12
1.02592950512059e-12
8.840789025304292e-13
7.615366614537245e-13
6.557176698063523e-13
5.643769136518105e-13
4.85565560121649e-13
4.175925995013064e-13
3.589913576896732e-13
3.084902736312053e-13
2.649874098640771e-13
2.275282291594811e-13
1.952862273492309e-13
1.675460627431309e-13
1.436888668176505e-13
1.231794598139926e-13
1.055552291415857e-13
9.041645859321667e-14
7.741792283077603e-14
6.626158482821453e-14
5.669025434447873e-14
4.84820833830569e-14
4.144579027528994e-14
3.541651776731874e-14
3.025224252874316e-14
2.583066404108601e-14
2.204651004825765e-14
1.880920381960504e-14
1.604084553034031e-14
1.367446622870846e-14
1.165251824370373e-14
9.925570588149787e-15
8.45118201409096e-15
7.192927955456043e-15
6.119560712291706e-15
5.204284948972241e-15
4.424132946253035e-15
3.75942610803462e-15
3.193311017107859e-15
2.71135989393895e-15
2.301226668539801e-15
1.952351053710896e-15
1.655704031268943e-15
1.403569051219154e-15
1.189354014665249e-15
1.007429779769733e-15
8.529915096224517e-16
7.21939683029644e-16
6.107780241462962e-16
5.165259833581197e-16
4.366437275822417e-16
3.689678798935488e-16
3.116564919359383e-16
2.631419430211325e-16
2.220906415677964e-16
1.873685614315803e-16
1.580117810560059e-16
1.33201310133212e-16
1.122415891162372e-16
9.454213365268703e-17
7.9601870704967e-17
6.69957774246934e-17
5.636348917876584e-17
4.739959071185926e-17
3.98453453398303e-17
3.348165222089904e-17
2.812305194345144e-17
2.361262658849168e-17
1.981766266595042e-17
1.662596440018007e-17
1.394272119409753e-17
1.168784711546681e-17
9.793722252099399e-18
8.203276059155656e-18
6.868361615609583e-18
5.748377228763746e-18
4.809098256555275e-18
4.021687512965339e-18
3.361857316071291e-18
2.8091602461407e-18
2.346389101494185e-18
1.959069457440029e-18
1.635030721192414e-18
1.364043695719082e-18
1.137514471423784e-18
9.482260022827985e-19
7.901200317748363e-19
6.581131472667711e-19
5.479416881906295e-19
4.560310379486921e-19
3.793855130295206e-19
3.154956432570486e-19
2.622601297588546e-19
2.179201852132956e-19
1.810043153827075e-19
1.502819013800175e-19
1.247241966648118e-19
1.034715683333792e-19
8.580599474490676e-20
7.112798592065054e-20
5.893722373001446e-20
4.88163292601813e-20
4.041725803656684e-20
3.344990253690196e-20
2.767254794534188e-20
2.288388321108815e-20
1.89163168095864e-20
1.563038651032061e-20
1.29100860843791e-20
1.065896021181774e-20
8.796842698769639e-21
7.257133185888091e-21
5.984524414079005e-21
4.933106310370538e-21
4.064785088623876e-21
3.347965583566286e-21
2.756453453658091e-21
2.268540953040059e-21
1.866245899860228e-21
1.534678438653977e-21
1.261514360715169e-21
1.036557237090895e-21
8.513745422120666e-22
6.989953933418719e-22
5.736595786650608e-22
4.706092594114304e-22
3.859161631091587e-22
3.16338281431244e-22
2.59201085370908e-22
2.122991047641776e-22
1.738144154004792e-22
1.422491577189964e-22
1.163696953131454e-22
9.516042502570067e-23
7.778558660363476e-23
6.355769981720921e-23
5.191148994313387e-23
4.238235635184322e-23
3.458860013325604e-23
2.821676068323432e-23
2.300952249705897e-23
1.875574586973402e-23
1.528225195078275e-23
1.244705628344847e-23
1.013379777605503e-23
8.247153841020864e-24
6.709068722492939e-24
5.455652089152614e-24
4.434629853031101e-24
3.603249768945351e-24
2.926561404783174e-24
2.376004158851305e-24
1.928248642560956e-24
1.56424636462583e-24
1.268450595170284e-24
1.0281778437809e-24
8.330847942795882e-25
6.747399995646191e-25
5.462733168672393e-25
4.420890935306684e-25
3.576316087811641e-25
2.891933312853027e-25
2.337582427945483e-25
1.888738686886672e-25
1.525467994852384e-25
1.231574269414295e-25
9.939039019192768e-26
8.017786111677179e-26
6.465331828657785e-26
5.211388556640892e-26
4.198966140001699e-26
3.381875163785513e-26
2.722695379110441e-26
2.191123306884724e-26
1.762628811980268e-26
1.41736333297578e-26
1.139272997911092e-26
9.153784779245868e-27
7.35190476123489e-27
5.902355041466435e-27
4.73671297917001e-27
3.799750591791482e-27
3.046908380633882e-27
2.442249231395527e-27
1.956801848958591e-27
1.567220127978304e-27
1.254698658294521e-27
1.004095795777872e-27
8.032248681669472e-28
6.42281518441601e-28
5.133812311498318e-28
4.101859977268988e-28
3.27603065643535e-28
2.615419548469808e-28
2.087185533652177e-28
1.664972361896933e-28
1.327636805524629e-28
1.058224521260029e-28
8.431457207710342e-29
6.715119439774131e-29
5.346026725312185e-29
4.254365434505107e-29
3.384267939088984e-29
2.691045061394532e-29
2.138964036711553e-29
1.699465205937525e-29
1.349731409631304e-29
1.071540804456846e-29
8.503473353228194e-30
6.745439924336339e-30
5.348727648008321e-30
4.239522774907331e-30
3.358997981884068e-30
2.660288857176645e-30
2.106076440994096e-30
1.666655143465439e-30
1.318389228252298e-30
1.042480229311142e-30
8.239830743025523e-31
6.510210579739132e-31
5.141597366167529e-31
4.059077791312956e-31
3.203191968552019e-31
2.526764935266192e-31
1.992383783122297e-31
1.570389696380812e-31
1.237280471325641e-31
9.744401313363971e-32
7.671290819507828e-32
6.036817057494973e-32
)
;

boundaryField
{
    left
    {
        type            zeroGradient;
    }
    right
    {
        type            zeroGradient;
    }
    frontBackUpDown
    {
        type            empty;
    }
}


// ************************************************************************* //
