/*--------------------------------*- C++ -*----------------------------------*\
| =========                 |                                                 |
| \\      /  F ield         | OpenFOAM: The Open Source CFD Toolbox           |
|  \\    /   O peration     | Version:  2412                                  |
|   \\  /    A nd           | Website:  www.openfoam.com                      |
|    \\/     M anipulation  |                                                 |
\*---------------------------------------------------------------------------*/
FoamFile
{
    version     2.0;
    format      ascii;
    arch        "LSB;label=32;scalar=64";
    class       volScalarField;
    location    "0";
    object      T_0_0_0;
}
// * * * * * * * * * * * * * * * * * * * * * * * * * * * * * * * * * * * * * //

dimensions      [0 0 0 1 0 0 0];

internalField   nonuniform List<scalar> 
1000
(
1.37841614899488e-14
1.616920027294827e-14
1.895933106666965e-14
2.222203168301388e-14
2.603579221273452e-14
3.049187378730697e-14
3.569634187010034e-14
4.177241589635749e-14
4.88631832877951e-14
5.713473296946078e-14
6.677977163918014e-14
7.802179532578204e-14
9.111989938277795e-14
1.063743221824833e-13
1.241328316092466e-13
1.447980792348123e-13
1.688360650602045e-13
1.967858762284057e-13
2.292708864916197e-13
2.670116298415628e-13
3.108405920169912e-13
3.617191980815418e-13
4.207573134726436e-13
4.892356204857476e-13
5.686312827840014e-13
6.606473680089799e-13
7.672465638101637e-13
8.906897966204219e-13
1.033580446418555e-12
1.198914945816829e-12
1.390140659528926e-12
1.611222062226255e-12
1.866716370792082e-12
2.161859943067046e-12
2.502666931629973e-12
2.896041880531913e-12
3.349908178065182e-12
3.873354532814317e-12
4.476801926992041e-12
5.172193824429685e-12
5.973212775061168e-12
6.89552696832763e-12
7.957070750243782e-12
9.178363639158901e-12
1.058287296049339e-11
1.219742587870957e-11
1.405267734415316e-11
1.618364130282028e-11
1.863029344931042e-11
2.143825484915309e-11
2.465956692962602e-11
2.835356965286331e-11
3.258789615785656e-11
3.743959880705871e-11
4.299642341885593e-11
4.935825053152253e-11
5.663872485215423e-11
6.496709662289071e-11
7.449030151678986e-11
8.537530889051805e-11
9.781177180763091e-11
1.12015016245498e-10
1.282294113560892e-10
1.46732167615627e-10
1.678376152254718e-10
1.919020212770129e-10
2.193290110334364e-10
2.505756662842253e-10
2.861593821748704e-10
3.266655732929628e-10
3.727563301999995e-10
4.251801391425725e-10
4.847827904743418e-10
5.525196154996901e-10
6.29469207151752e-10
7.168487972960785e-10
8.160314826742958e-10
9.285655127546813e-10
1.056195876239608e-09
1.200888448912982e-09
1.364856994134068e-09
1.550593338859515e-09
1.760901082886598e-09
1.998933237369769e-09
2.268234230905928e-09
2.572786767979298e-09
2.917064075703179e-09
3.306088131026967e-09
3.745494522362369e-09
4.241604667432832e-09
4.801506183618251e-09
5.433142288748597e-09
6.14541119984746e-09
6.948276595432747e-09
7.852890314410013e-09
8.871728582153849e-09
1.001874318295106e-08
1.130952913851771e-08
1.276151060583003e-08
1.439414687512168e-08
1.622916053177585e-08
1.829079004526575e-08
2.060606926560965e-08
2.320513654449882e-08
2.612157645586824e-08
2.939279737091282e-08
3.30604484471812e-08
3.717087992234145e-08
4.177565096254505e-08
4.693208970520797e-08
5.270391055881503e-08
5.916189428050776e-08
6.638463684839253e-08
7.445937368248098e-08
8.34828863489758e-08
9.356249951034648e-08
1.048171765616847e-07
1.17378723125733e-07
1.313931083684519e-07
1.470219149480396e-07
1.644439293270521e-07
1.838568851641796e-07
2.054793735638068e-07
2.295529351027223e-07
2.563443497792953e-07
2.861481423463531e-07
3.192893219007093e-07
3.561263761153601e-07
3.970545421212184e-07
4.425093777799196e-07
4.929706589446862e-07
5.489666302890394e-07
6.110786394006581e-07
6.799461860973325e-07
7.562724213308948e-07
8.408301326121172e-07
9.344682556216462e-07
1.038118954578529e-06
1.152805317026846e-06
1.279649711981015e-06
1.419882863850121e-06
1.574853698251911e-06
1.746040019733448e-06
1.93506008555155e-06
2.143685144037508e-06
2.373853010688813e-06
2.62768276000394e-06
2.907490616214694e-06
3.215807131482058e-06
3.55539574581648e-06
3.929272828969415e-06
4.340729310828789e-06
4.793354013445199e-06
5.291058804724483e-06
5.838105701054753e-06
6.439136053696938e-06
7.099201961663738e-06
7.82380006204796e-06
8.618907857340726e-06
9.491022748207165e-06
1.044720394946245e-05
1.149511747661654e-05
1.264308440032886e-05
1.390013257643626e-05
1.52760520698777e-05
1.678145450184004e-05
1.842783656077678e-05
2.022764792959693e-05
2.219436389327491e-05
2.434256290337732e-05
2.668800938851809e-05
2.924774211252818e-05
3.20401683951248e-05
3.508516452307351e-05
3.840418269321268e-05
4.202036484222642e-05
4.595866373167785e-05
5.024597167048641e-05
5.491125727073497e-05
5.998571064634727e-05
6.550289747774583e-05
7.149892237901896e-05
7.80126020173334e-05
8.508564844724181e-05
9.276286313510303e-05
0.0001010923421609536
0.0001101256930967667
0.0001199182640710228
0.0001305293855397696
0.0001420226252938346
0.0001544660572403503
0.0001679325445042691
0.0001825000374018697
0.0001982518868433063
0.0002152771737248946
0.0002336710548738889
0.0002535351261089156
0.0002749778029777483
0.0002981147197306491
0.0003230691470819091
0.0003499724293042606
0.0003789644411904362
0.0004101940654030529
0.000443819690718123
0.000480009731648571
0.0005189431699120125
0.0005608101181816499
0.0006058124065300702
0.0006541641919430286
0.0007060925912436457
0.0007618383377267245
0.0008216564617578833
0.0008858169955427524
0.0009546057022174895
0.001028324829353023
0.001107293886901704
0.001191850449546281
0.001282350983337029
0.001379171696423662
0.001482709413603654
0.001593382474318474
0.001711631653633122
0.001837921105632685
0.001972739328562273
0.002116600150923423
0.00227004373762099
0.002433637615129919
0.002607977714520653
0.002793689431045785
0.002991428698848653
0.003201883079207904
0.003425772860578664
0.003663852168534162
0.003916910083549057
0.004185771764397894
0.004471299574772028
0.004774394210541634
0.005095995824911436
0.005437085148536111
0.005798684601476649
0.00618185939369183
0.006587718610570056
0.007017416279817284
0.007472152415825867
0.007953174037459997
0.008461776155002931
0.00899930272182557
0.00956714754614894
0.01016675515809338
0.01079962162702939
0.01146729532407191
0.01217137762439602
0.01291352354389079
0.01369544230452022
0.01451889782261512
0.01538570911419359
0.01629775061128288
0.01725695238311364
0.01826530025596063
0.019324835825327
0.02043765635410843
0.02160591455032613
0.022831818217994
0.02411762977467678
0.02546566562930863
0.02687829541388499
0.02835794106268746
0.0299070757327982
0.03152822255975724
0.03322395324235883
0.03499688645074205
0.03684968605211666
0.03878505914869436
0.04080575392263106
0.04291455728307336
0.04511429231071251
0.04740781549557812
0.04979801376419691
0.05228780129262336
0.05488011610230302
0.05757791643619359
0.06038417691306042
0.06330188445841578
0.06633403401110885
0.06948362400519827
0.07275365162733849
0.07614710785058224
0.07966697224617857
0.08331620757565719
0.08709775416622703
0.0910145240732765
0.09506939503455104
0.09926520422137965
0.1036047417931525
0.1080907442620968
0.1127258876762331
0.1175127806292884
0.1224539571071936
0.1275518691816911
0.1328088795624545
0.1382272540200216
0.1438091536926981
0.1495566272915089
0.1554716032180913
0.1615558816113277
0.1678111263393086
0.1742388569540629
0.1808404406272758
0.1876170840859655
0.1945698255678494
0.2016995268167865
0.2090068651393701
0.2164923255443459
0.2241561929870816
0.231998544741836
0.240019242925031
0.2482179271931254
0.2565940076390048
0.2651466579111067
0.2738748085796558
0.2827771407745343
0.2918520801193549
0.3010977909862813
0.3105121710960082
0.320092846487156
0.3298371668790266
0.3397422014513167
0.3498047350639401
0.3600212649395409
0.3703879978306847
0.380900847692971
0.3915554338844964
0.4023470799112111
0.4132708127367081
0.4243213626739143
0.4354931638749653
0.4467803554343432
0.4581767831189452
0.469676001737423
0.4812712781595802
0.4929555949950692
0.5047216549390053
0.516561885790399
0.5284684461475611
0.5404332317827978
0.552447882696866
0.5645037908517486
0.5765921085783013
0.5887037576534326
0.6008294390393808
0.6129596432756491
0.6250846615121232
0.6371945971698508
0.6492793782138557
0.6613287700204002
0.6733323888190256
0.6852797156877173
0.6971601110775738
0.7089628298414344
0.7206770367390311
0.7322918223893957
0.7437962196395356
0.7551792203166053
0.7664297923292972
0.7775368970825685
0.7884895071683917
0.7992766242939056
0.8098872974070684
0.8203106409788232
0.8305358533997466
0.8405522354482767
0.8503492087868656
0.8599163344417304
0.8692433312214345
0.8783200940291312
0.8871367120230889
0.89568348658006
0.9039509490161231
0.9119298780198306
0.9196113167528567
0.9269865895738953
0.9340473183421582
0.9407854382576727
0.9471932131965032
0.9532632505001282
0.9589885151794231
0.9643623434950844
0.9693784558777968
0.9740309691531071
0.9783144080376938
0.9822237158755958
0.9857542645849279
0.9889018637877097
0.9916627690975882
0.9940336895425148
0.9960117941017778
0.9975947173392181
0.9987805641169332
0.9995679133763239
0.9999558209759218
0.9999438215780666
0.9995319295791546
0.9987206390808554
0.9975109229023773
0.9959042306365464
0.9939024857551357
0.9915080817715343
0.9887238774714767
0.9855531912251326
0.9819997943963947
0.9780679038676986
0.9737621737010997
0.9690876859587026
0.9640499407077767
0.9586548452380782
0.9529087025209546
0.9468181989418012
0.9403903913392653
0.9336326933863659
0.9265528613502951
0.9191589792691607
0.9114594435852957
0.9034629472759845
0.8951784635235185
0.886615228967463
0.8777827265827978
0.8686906682282401
0.8593489769095801
0.8497677688031996
0.8399573350851587
0.8299281236112974
0.8196907204937133
0.8092558316187654
0.7986342641513543
0.7878369080697691
0.776874717774697
0.7657586938152818
0.754499864774171
0.7431092693524975
0.7315979386946101
0.7199768789911116
0.7082570543974298
0.6964493703036925
0.6845646569901281
0.6726136537006392
0.6606069931654271
0.6485551866018516
0.6364686092208338
0.6243574862642225
0.6122318795966567
0.6001016748734374
0.5879765693039511
0.5758660600281355
0.5637794331214778
0.5517257532419194
0.5397138539300738
0.5277523285720311
0.5158495220320549
0.5040135229604432
0.4922521567798399
0.4805729793513134
0.4689832713196719
0.4574900331355205
0.446099980749856
0.4348195419751566
0.4236548535052536
0.412611758584691
0.4016958053166096
0.3909122455968273
0.3802660346602722
0.3697618312246919
0.3594039982152244
0.349196604052342
0.3391434244845106
0.3292479449460318
0.3195133634195356
0.3099425937818501
0.300538269611236
0.2913027484333449
0.2822381163827316
0.2733461932563106
0.264628537934762
0.2560864541476551
0.2477209965578341
0.2395329771405443
0.2315229718327057
0.223691327427848
0.2160381686923017
0.20856340567848
0.2012667412113276
0.1941476785243663
0.1872055290221647
0.1804394201465163
0.1738483033241187
0.1674309619741208
0.1611860195545076
0.155111947626975
0.1492070739205916
0.1434695903753479
0.1378975611473864
0.132488930558564
0.1272415309737661
0.1221530905902532
0.1172212411241772
0.1124435253802672
0.1078174046915542
0.1033402662169043
0.09900943008500275
0.09482215637432402
0.09077565191950095
0.08686707693538455
0.08309355145094957
0.07945216154605693
0.075939965384922
0.07255399904096076
0.06929128210848771
0.06614882309752994
0.06312362460876447
0.06021268828633545
0.05741301954702252
0.05472163208488311
0.05213555215118417
0.04965182261002853
0.04726750677070085
0.04497969199829893
0.04278549310476345
0.0406820555229063
0.03866655826651551
0.03673621668003822
0.03488828498175707
0.03312005860473516
0.03142887634015321
0.02981212228796262
0.02826722762006014
0.02679167216143607
0.02538298579495816
0.02403874969565067
0.02275659740048646
0.02153421571983372
0.02036934549681851
0.01925978222094147
0.01820337650233798
0.01719803441311954
0.01624171770223153
0.01533244389026916
0.01446828625065324
0.01364737368353289
0.01286789048870785
0.0121280760437944
0.01142622439375958
0.01076068375783808
0.01012985595973335
0.009532195786866178
0.008966210284295423
0.008430457988783802
0.007923548108321375
0.007444139652254639
0.006990940516995973
0.006562706532109979
0.006158240471391911
0.005776391033369746
0.005416051795471321
0.005076160145910088
0.004755696197154117
0.00445368168464975
0.004169178854284429
0.003901289341883063
0.003649153047844582
0.003411947009842945
0.003188884276332768
0.002979212783421696
0.002782214237496476
0.002597203005819111
0.002423525017141321
0.002260556674225008
0.002107703779997426
0.001964400478919195
0.001830108214995196
0.001704314707717573
0.001586532947094042
0.001476300208784622
0.001373177090245141
0.001276746568657942
0.001186613081316322
0.001102401629023083
0.001023756902961697
0.0009503424354032228
0.0008818397745216671
0.0008179476835068005
0.0007583813640835781
0.0007028717044741993
0.0006511645517701519
0.0006030200086179285
0.0005582117540641542
0.000516526388351543
0.0004777628014081748
0.0004417315647278922
0.0004082543462990537
0.0003771633482025235
0.0003483007664671512
0.000321518272742396
0.0002966765173223809
0.0002736446530336817
0.0002522998794806763
0.0002325270071262734
0.0002142180406731075
0.0001972717812000033
0.0001815934465006061
0.0001670943090657571
0.0001536913511477617
0.0001413069363433345
0.0001298684971325733
0.0001193082378134497
0.0001095628522749913
0.0001005732560575358
9.228433215479259e-05
8.46446900200028e-05
7.760643724713138e-05
7.11249634074613e-05
6.515873553232381e-05
5.966910474371216e-05
5.462012354613989e-05
4.99783733052952e-05
4.571280145156199e-05
4.179456795950919e-05
3.819690066757454e-05
3.489495901567762e-05
3.186570579201145e-05
2.90877864939681e-05
2.654141592182674e-05
2.42082716375133e-05
2.207139393436109e-05
2.011509197730559e-05
1.832485578632794e-05
1.668727374913475e-05
1.518995536207237e-05
1.382145891101386e-05
1.25712238164735e-05
1.142950737941695e-05
1.038732567618074e-05
9.436398362536867e-06
8.569097158249078e-06
7.77839779444255e-06
7.057835216759298e-06
6.401461847558898e-06
5.803808720389299e-06
5.259849309547684e-06
4.764965886811088e-06
4.314918246320144e-06
3.905814647159206e-06
3.534084831390107e-06
3.19645498317529e-06
2.889924502163605e-06
2.611744471528712e-06
2.359397707935245e-06
2.130580287288493e-06
1.923184446385854e-06
1.735282766560917e-06
1.565113551085703e-06
1.411067313492665e-06
1.271674299100589e-06
1.145592966885366e-06
1.031599363440297e-06
9.285773251283108e-07
8.355094486485443e-07
7.514687741354389e-07
6.756111285834715e-07
6.071680808602089e-07
5.45440462837039e-07
4.897924142461501e-07
4.3964591176703e-07
3.944757455681983e-07
3.538049090871579e-07
3.172003702315284e-07
2.842691944347908e-07
2.54654992109697e-07
2.280346650171308e-07
2.041154279164284e-07
1.826320835905231e-07
1.633445309537628e-07
1.460354874569369e-07
1.30508408409844e-07
1.165855871521545e-07
1.041064212240156e-07
9.292583082412534e-08
8.291281690003523e-08
7.394914719796022e-08
6.592815951202162e-08
5.87536722201885e-08
5.233899297994525e-08
4.660601718541984e-08
4.148440846255753e-08
3.691085410375841e-08
3.282838892149496e-08
2.918578153487745e-08
2.593697759691927e-08
2.304059492625628e-08
2.045946592778447e-08
1.816022307469296e-08
1.611292358194234e-08
1.429070973054059e-08
1.266950160511442e-08
1.122771928606961e-08
9.946031793970246e-09
8.807130319227401e-09
7.795523486410942e-09
6.897352600876554e-09
6.10022500732955e-09
5.393063856687174e-09
4.765972730312347e-09
4.210113710487074e-09
3.717597613888159e-09
3.281385221748859e-09
2.895198447243999e-09
2.553440478202428e-09
2.251124022310627e-09
1.983806863199427e-09
1.74753400986245e-09
1.538785789325195e-09
1.354431293921967e-09
1.191686650450936e-09
1.048077629332874e-09
9.214061581299762e-10
8.097203457790087e-10
7.112876620317132e-10
6.245709512038228e-10
5.482069907237934e-10
4.809873334275452e-10
4.218411983252631e-10
3.698201979091307e-10
3.240847111962608e-10
2.838917308088894e-10
2.485840296663981e-10
2.17580508471052e-10
1.903675992611341e-10
1.664916130248364e-10
1.455519308408156e-10
1.271949483551835e-10
1.111086927243931e-10
9.701803954748629e-11
8.468046486584472e-11
7.388227410554332e-11
6.443525594845499e-11
5.617371461033323e-11
4.895183893684339e-11
4.264137115691125e-11
3.712954210599399e-11
3.231724329512123e-11
2.811740939522812e-11
2.445358756736584e-11
2.125867263113287e-11
1.847378935618466e-11
1.604730521221043e-11
1.393395874595465e-11
1.209409039183164e-11
1.049296398549152e-11
9.100168555453451e-12
7.889091132799894e-12
6.836452357701975e-12
5.921897587293019e-12
5.127637034084792e-12
4.438129198354385e-12
3.839802511301627e-12
3.320810686922366e-12
2.870817797162845e-12
2.480809543964651e-12
2.142927609476425e-12
1.850324327576862e-12
1.597035240901818e-12
1.377867392259489e-12
1.188301451645681e-12
1.024406003601224e-12
8.827625175739602e-13
7.60399699107078e-13
6.547360746126835e-13
5.635297994741984e-13
4.848348002683948e-13
4.169624688167199e-13
3.584482201610252e-13
3.080223098445942e-13
2.645843793317242e-13
2.271812631487169e-13
1.94987648378858e-13
1.672892273842109e-13
1.434680288505745e-13
1.229896511585931e-13
1.053921562977571e-13
9.02764126114322e-14
7.729770107941381e-14
6.615842304195399e-14
5.660176762871058e-14
4.840621501650241e-14
4.138076729962406e-14
3.536081248104909e-14
3.020453911508738e-14
2.578982965806298e-14
2.20115697953627e-14
1.877931907077798e-14
1.601529518879088e-14
1.365263051670142e-14
1.163386469064414e-14
9.909641924165953e-15
8.437585714568337e-15
7.181327215339156e-15
6.109666658046524e-15
5.195849921435166e-15
4.416944709648851e-15
3.753302859645444e-15
3.188097088775202e-15
2.706922051104244e-15
2.297450925149945e-15
1.949139932279983e-15
1.652974206907941e-15
1.401249326708601e-15
1.187383580813167e-15
1.005756721513008e-15
8.515715237160109e-16
7.207349778341079e-16
6.097563760652088e-16
5.156599279724574e-16
4.359098665549331e-16
3.683462873321338e-16
3.111302061619866e-16
2.626965316476942e-16
2.217138294722063e-16
1.870499126661325e-16
1.577424269941657e-16
1.329737172315304e-16
1.120493606048456e-16
9.437984027091121e-17
7.946490629048426e-17
6.688023576020246e-17
5.626605901240639e-17
4.731746630814976e-17
3.977615029646749e-17
3.342337461201537e-17
2.80739891292085e-17
2.357133827058036e-17
1.978293097420387e-17
1.659675997184328e-17
1.391817435842256e-17
1.16672234257861e-17
9.776401718401828e-18
8.188735529090148e-18
6.856159833030503e-18
5.738142168363755e-18
4.80051639247443e-18
4.014494729969572e-18
3.355831215190752e-18
2.804113633618827e-18
2.342164481431619e-18
1.955534375409734e-18
1.632073829026595e-18
1.361571427199863e-18
1.135448235244462e-18
9.464998128065625e-19
7.886785101667e-19
6.569098358219517e-19
5.469376293939091e-19
4.55193577201932e-19
3.786872902714829e-19
3.149137440373717e-19
2.617753708572823e-19
2.175165137371774e-19
1.806683035327798e-19
1.500023218347798e-19
1.244916658717519e-19
1.032782469749176e-19
8.564533632215415e-20
7.099452581523457e-20
5.882640230245083e-20
4.872434355595134e-20
4.034093752657141e-20
3.338660504132412e-20
2.76200724996636e-20
2.28403971473645e-20
1.888029475983663e-20
1.560055940449348e-20
1.288539852337282e-20
1.063853485543585e-20
8.779950526840909e-21
7.243168674498705e-21
5.972984823371828e-21
4.923574410251063e-21
4.056914757851227e-21
3.341469809369701e-21
2.751094335972801e-21
2.264121382030855e-21
1.86260262956389e-21
1.531676324981882e-21
1.259041570112559e-21
1.034521264026228e-21
8.49698900359438e-22
6.976168676573431e-22
5.725259442432789e-22
4.69677388633977e-22
3.851504556550966e-22
3.157093626305917e-22
2.586847274923005e-22
2.118753334326885e-22
1.734667696862762e-22
1.419640777287883e-22
1.16136015527149e-22
9.496895529797236e-23
7.762876580456234e-23
6.34293096450403e-23
5.180641855187752e-23
4.229640320647443e-23
3.451831496948529e-23
2.815931066761121e-23
2.296258269536473e-23
1.871740897204825e-23
1.525095389908849e-23
1.242151502626555e-23
1.01129628543827e-23
8.230164907545352e-24
6.695221425481481e-24
5.444370025292004e-24
4.425441519308406e-24
3.595769630530271e-24
2.920474350409284e-24
2.371052742945523e-24
1.924222618934783e-24
1.560974103730267e-24
1.265792048899783e-24
1.026018781213256e-24
8.313320807372342e-25
6.733177317828963e-25
5.451196603503603e-25
4.411536956045492e-25
3.56873483437576e-25
2.885791305011676e-25
2.332608443039084e-25
1.884712227616522e-25
1.522209876065685e-25
1.228938937751474e-25
9.917731719529606e-26
8.000565589315234e-26
6.451419846645471e-26
5.200153986020651e-26
4.189897362644994e-26
3.374557612128751e-26
2.716793264274225e-26
2.186364760355623e-26
1.758793808191934e-26
1.414273876424362e-26
1.136785153539453e-26
9.133759012421396e-27
7.335791630372649e-27
5.889395323445975e-27
4.726293739832514e-27
3.791377201674966e-27
3.040181844318847e-27
2.4368478292012e-27
1.95246627692117e-27
1.563741474521249e-27
1.251908680148632e-27
1.00185905674658e-27
8.014323865261605e-28
6.408456355992442e-28
5.122314685145308e-28
4.092657128702157e-28
3.268667546828386e-28
2.609530770706003e-28
2.082477777291399e-28
1.661210284618864e-28
1.324631654032553e-28
1.055824970414992e-28
8.412305016127742e-29
6.699839137814739e-29
5.333840468140051e-29
4.244650638413989e-29
3.376526494805837e-29
2.684878610850769e-29
2.134054127351065e-29
1.695557366930887e-29
1.346622380271702e-29
1.069068295016071e-29
8.483818216288949e-30
6.729821429658056e-30
5.336321776947997e-30
4.229672681573129e-30
3.351180292222928e-30
2.654086717977485e-30
2.101157975839772e-30
1.662756238049393e-30
1.315299780777334e-30
1.040033173063931e-30
8.220456171260616e-31
6.494876938406386e-31
5.129466731555247e-31
4.049484960624719e-31
3.195609072927499e-31
2.52077325786834e-31
1.987651324607789e-31
1.566653323059328e-31
1.234331715804846e-31
9.721139030450067e-32
7.652946949448398e-32
6.022357511158066e-32
)
;

boundaryField
{
    left
    {
        type            zeroGradient;
    }
    right
    {
        type            zeroGradient;
    }
    frontBackUpDown
    {
        type            empty;
    }
}


// ************************************************************************* //
