/*--------------------------------*- C++ -*----------------------------------*\
| =========                 |                                                 |
| \\      /  F ield         | OpenFOAM: The Open Source CFD Toolbox           |
|  \\    /   O peration     | Version:  2412                                  |
|   \\  /    A nd           | Website:  www.openfoam.com                      |
|    \\/     M anipulation  |                                                 |
\*---------------------------------------------------------------------------*/
FoamFile
{
    version     2.0;
    format      ascii;
    arch        "LSB;label=32;scalar=64";
    class       volScalarField;
    location    "0.25";
    object      p;
}
// * * * * * * * * * * * * * * * * * * * * * * * * * * * * * * * * * * * * * //

dimensions      [0 2 -2 0 0 0 0];

internalField   nonuniform List<scalar> 
2200
(
8.61368
8.0582
7.07706
5.88129
4.84965
4.59783
5.41784
7.33257
9.79034
11.2317
11.2475
9.83263
7.39045
5.48258
4.66416
4.91487
5.94443
7.1383
8.11822
8.67315
10.7575
10.4835
9.92631
9.16192
8.39602
7.89512
8.00061
8.95599
10.7241
12.114
12.1297
10.7637
9.00912
8.05958
7.95534
8.45564
9.2207
9.98441
10.5408
10.8144
11.4073
11.2872
11.0409
10.7059
10.2859
9.62977
8.93377
8.72751
9.44113
10.8099
10.8235
9.47953
8.78013
8.99268
9.69079
10.347
10.7662
11.1001
11.346
11.4659
11.4312
11.3812
11.2671
11.0649
10.733
10.3248
10.0158
9.72083
9.48132
9.56808
9.5847
9.52298
9.77718
10.0796
10.3917
10.8004
11.132
11.3339
11.4477
11.4977
11.4087
11.3852
11.3359
11.2475
11.11
10.9343
10.7792
10.6925
10.5833
10.4284
10.4456
10.6278
10.7539
10.8503
11.01
11.1877
11.3261
11.4148
11.4643
11.4878
11.346
11.3332
11.3105
11.2736
11.2224
11.1621
11.1108
11.106
11.1534
11.2425
11.2599
11.2026
11.1763
11.1936
11.2518
11.3159
11.3691
11.4071
11.4303
11.4432
11.2513
11.2441
11.233
11.216
11.1939
11.1701
11.1534
11.1566
11.1981
11.2685
11.2898
11.2588
11.2414
11.2543
11.2802
11.3093
11.3344
11.353
11.365
11.3726
11.152
11.1478
11.142
11.1337
11.1233
11.1123
11.1058
11.1099
11.1334
11.1726
11.1985
11.2042
11.2135
11.2306
11.2496
11.268
11.2832
11.2943
11.3017
11.3062
11.0562
11.0538
11.0511
11.0478
11.0444
11.0421
11.0436
11.0595
11.0891
11.1358
11.1685
11.1784
11.1875
11.2008
11.2144
11.2266
11.2363
11.2442
11.2499
11.2549
10.9614
10.9602
10.9593
10.9589
10.9597
10.9631
10.9695
10.9864
11.0203
11.0833
11.1264
11.143
11.1557
11.1685
11.1791
11.1871
11.193
11.1974
11.1989
11.1985
10.8641
10.8636
10.864
10.8657
10.8696
10.8775
10.8919
10.9018
10.9591
11.0086
11.0716
11.0992
11.1202
11.1368
11.1492
11.1583
11.1619
11.1621
11.172
11.177
10.7597
10.7599
10.7613
10.7647
10.7713
10.7831
10.8066
10.8397
10.8744
10.9537
11.0189
11.0545
11.086
11.1094
11.1261
11.1365
11.1461
11.1572
11.1588
11.156
10.643
10.6436
10.6458
10.6505
10.6589
10.6719
10.6941
10.7703
10.7371
10.9017
10.95
11.0088
11.0538
11.0852
11.1058
11.1173
11.1239
11.1235
11.1213
11.1211
10.5121
10.5132
10.5165
10.5235
10.5366
10.5561
10.5734
10.6357
10.625
10.8105
10.883
10.9702
11.0285
11.0665
11.0915
11.1088
11.1258
11.1341
11.1206
11.1047
10.3632
10.3646
10.3686
10.3766
10.3903
10.4153
10.4565
10.5228
10.6178
10.7302
10.8377
10.9464
11.0209
11.0727
11.1082
11.1313
11.1433
11.1558
11.1695
11.1833
10.1911
10.1931
10.1986
10.2098
10.2294
10.262
10.316
10.3941
10.5419
10.643
10.8002
10.9333
11.0289
11.0965
11.1423
11.1728
11.1903
11.2002
11.2122
11.2204
9.98426
9.98684
9.99404
10.0084
10.0337
10.0751
10.1391
10.2311
10.3829
10.546
10.7638
10.929
11.0507
11.1348
11.19
11.2228
11.241
11.2518
11.2601
11.263
9.73264
9.73601
9.74534
9.76391
9.79653
9.84978
9.93205
10.0521
10.2334
10.4549
10.7228
10.9384
11.0944
11.2011
11.2709
11.3148
11.342
11.3575
11.3643
11.3666
9.42399
9.42854
9.44099
9.46571
9.50904
9.57963
9.68866
9.84865
10.078
10.3667
10.697
10.9715
11.1697
11.3063
11.3973
11.4563
11.4927
11.5122
11.5216
11.5249
9.03926
9.0454
9.06218
9.09532
9.1533
9.24742
9.3919
9.60252
9.89614
10.2713
10.6864
11.033
11.2828
11.4554
11.5702
11.6439
11.6888
11.714
11.7265
11.7309
8.54814
8.55673
8.57979
8.62546
8.70483
8.83269
9.02676
9.30574
9.6862
10.1697
10.6924
11.1271
11.44
11.6565
11.8009
11.8933
11.9496
11.9815
11.9974
12.003
7.90996
7.92222
7.95584
8.02088
8.1333
8.31196
8.57811
8.95214
9.44884
10.0677
10.7224
11.2631
11.6527
11.924
12.1063
12.2238
12.2958
12.3368
12.3572
12.3645
7.05139
7.07113
7.12292
7.2238
7.393
7.65311
8.02681
8.53297
9.18154
9.96641
10.7774
11.4418
11.9225
12.2614
12.493
12.6452
12.7398
12.7944
12.8218
12.8314
5.84543
5.89683
5.99681
6.16973
6.44119
6.83337
7.36597
8.0516
8.89209
9.87405
10.8639
11.6684
12.2545
12.6752
12.9707
13.1715
13.3012
13.3781
13.4199
13.4331
4.16587
4.2563
4.44293
4.76616
5.22591
5.83334
6.59822
7.52287
8.60007
9.81044
10.9984
11.956
12.6598
13.1772
13.5553
13.8277
14.0189
14.1456
14.2174
14.2549
1.65673
1.85002
2.33333
2.97342
3.74982
4.67328
5.74626
6.96346
8.31232
9.77137
11.1658
12.2801
13.106
13.7271
14.198
14.5563
14.8293
15.0383
15.1916
15.2599
-1.93436
-1.11618
-0.0505041
1.03223
2.19875
3.48369
4.8908
6.41574
8.04823
9.77145
11.3932
12.6889
13.6641
14.4176
15.0126
15.4912
15.883
16.2108
16.5044
16.7274
-5.59677
-3.79546
-2.27967
-0.827945
0.714463
2.35509
4.08941
5.91606
7.82965
9.82025
11.6826
13.1746
14.3077
15.196
15.9103
16.496
16.9831
17.3903
17.7415
18.1737
-8.07763
-5.72419
-4.21797
-2.51437
-0.643584
1.31441
3.34702
5.45178
7.62392
9.85612
11.9263
13.5761
14.8241
15.798
16.5749
17.204
17.7183
18.1382
18.4623
18.8982
-9.77355
-7.01702
-5.7315
-3.84012
-1.75559
0.423474
2.68583
5.0195
7.41249
9.85321
12.0977
13.8703
15.1981
16.2218
17.0267
17.668
18.184
18.5995
18.9009
19.3257
-11.3341
-8.15666
-6.84794
-4.81689
-2.61926
-0.297282
2.13248
4.64529
7.21942
9.83516
12.2248
14.0948
15.4807
16.5366
17.3567
18.0029
18.5176
18.929
19.2148
19.6327
-12.1018
-9.29453
-7.79273
-5.62343
-3.32669
-0.889377
1.67111
4.32635
7.04869
9.8107
12.3223
14.2727
15.7048
16.785
17.6161
18.2653
18.7788
19.1873
19.4575
19.878
-12.8047
-10.0887
-8.48022
-6.27788
-3.91626
-1.3902
1.27369
4.0442
6.88932
9.77539
12.3927
14.4139
15.8869
16.9888
17.8295
18.4812
18.993
19.3981
19.6654
20.0614
-13.467
-10.7642
-9.10347
-6.85699
-4.43252
-1.8309
0.918754
3.7853
6.73433
9.72808
12.4405
14.528
16.041
17.165
18.0161
18.671
19.1817
19.583
19.8406
20.241
-14.0594
-11.3535
-9.65802
-7.37514
-4.89484
-2.22916
0.592975
3.54093
6.57921
9.66805
12.4686
14.6215
16.1765
17.3254
18.1897
18.8502
19.3619
19.7619
20.01
20.4193
-14.5682
-11.8565
-10.1473
-7.83428
-5.3105
-2.59354
0.288842
3.30552
6.42062
9.59407
12.4778
14.6974
16.2989
17.4778
18.3595
19.0287
19.5438
19.9443
20.1885
20.6057
-15.0411
-12.317
-10.5923
-8.25178
-5.69266
-2.93273
0.000149129
3.07482
6.25587
9.50457
12.4672
14.7563
16.4106
17.6265
18.5318
19.2143
19.7358
20.1393
20.3872
20.7974
-15.4988
-12.7497
-10.9974
-8.63857
-6.04803
-3.2519
-0.276598
2.8469
6.08398
9.39878
12.4357
14.7965
16.5111
17.7733
18.7105
19.4125
19.9439
20.3516
20.612
21.0085
-15.9108
-13.1383
-11.3911
-9.0001
-6.3824
-3.55523
-0.544158
2.61999
5.90388
9.27558
12.3809
14.8149
16.5973
17.9168
18.8972
19.6279
20.1759
20.5913
20.8678
21.2335
-16.3068
-13.5235
-11.7395
-9.34015
-6.69946
-3.84542
-0.804134
2.39389
5.71638
9.13567
12.302
14.8078
16.6642
18.053
19.0907
19.8625
20.436
20.865
21.1492
21.5135
-16.6842
-13.8602
-12.0791
-9.65693
-6.99747
-4.12223
-1.05623
2.16915
5.52215
8.9792
12.1972
14.7704
16.7042
18.1735
19.2854
20.1167
20.7302
21.1823
21.4941
21.8143
-17.0143
-14.1877
-12.3997
-9.95883
-7.27929
-4.38447
-1.29814
1.94847
5.32438
8.8094
12.0681
14.7007
16.7105
18.2682
19.4715
20.3855
21.0615
21.5485
21.8825
22.2009
-17.3469
-14.4986
-12.671
-10.2219
-7.53202
-4.6239
-1.52262
1.73895
5.12959
8.63149
11.9172
14.5965
16.6753
18.3229
19.6311
20.6545
21.4298
21.9869
22.3582
22.7039
-17.6476
-14.7626
-12.9593
-10.496
-7.79666
-4.87802
-1.76504
1.50906
4.91176
8.42607
11.7305
14.4458
16.5841
18.3176
19.7362
20.8895
21.8056
22.4924
22.9544
23.336
-17.9221
-15.0679
-13.2275
-10.7669
-8.06264
-5.13229
-2.00396
1.28499
4.69972
8.22218
11.5343
14.2691
16.4492
18.2539
19.7753
21.0642
22.1534
23.0511
23.7086
24.2087
-18.2492
-15.3349
-13.4647
-10.9847
-8.25502
-5.30239
-2.16065
1.13342
4.54526
8.05675
11.3527
14.0808
16.2769
18.1271
19.7277
21.1322
22.3806
23.5257
24.5942
25.6237
-18.5063
-15.5238
-13.6836
-11.1824
-8.42947
-5.46856
-2.32633
0.961596
4.36263
7.85734
11.1286
13.8359
16.0287
17.9012
19.554
21.0425
22.4033
23.6873
25.0162
26.6846
-18.6533
-15.5644
-13.8156
-11.3472
-8.62596
-5.68866
-2.55922
0.722606
4.11984
7.60545
10.8542
13.5311
15.699
17.562
19.2249
20.7352
22.1014
23.3045
24.3447
25.4049
-18.8509
-15.6055
-14.0415
-11.5544
-8.83482
-5.89913
-2.76847
0.514775
3.90821
7.37679
10.5877
13.2097
15.3185
17.1267
18.7431
20.2102
21.5199
22.6321
23.5382
24.3539
-19.3889
-16.1035
-14.4586
-11.9101
-9.15114
-6.14885
-2.97805
0.321582
3.71073
7.15286
10.3109
12.8563
14.8742
16.584
18.1028
19.4785
20.7009
21.6979
22.3991
23.0016
-19.508
-16.4396
-14.7984
-12.1657
-9.34682
-6.31203
-3.14003
0.148605
3.51475
6.91808
10.0132
12.4666
14.3681
15.938
17.3052
18.5345
19.6268
20.4777
20.9826
21.5205
-19.4617
-16.2946
-14.5786
-11.9678
-9.23034
-6.30996
-3.21887
0.011706
3.32973
6.68109
9.70451
12.0533
13.8162
15.2115
16.3839
17.423
18.3347
18.9806
19.2589
19.7755
-19.5246
-16.4184
-14.6158
-12.0283
-9.3259
-6.45954
-3.39942
-0.189686
3.10627
6.42131
9.37838
11.6177
13.2271
14.417
15.3331
16.1106
16.7614
17.1935
17.3552
17.8488
-19.989
-16.9831
-15.1548
-12.5314
-9.76008
-6.80495
-3.67866
-0.43284
2.87036
6.16072
9.05155
11.1761
12.6224
13.5944
14.2285
14.7193
15.0389
14.9607
14.6728
14.8934
-20.1933
-17.3755
-15.4946
-12.8318
-10.0279
-7.03309
-3.88586
-0.63874
2.6471
5.89733
8.71409
10.7227
12.0054
12.7599
13.0572
13.1236
12.9915
12.1519
10.7971
11.0623
-20.2328
-17.3762
-15.407
-12.8189
-10.0907
-7.1532
-4.05057
-0.838412
2.41451
5.62184
8.36914
10.2717
11.3996
11.9552
11.9527
11.5282
10.8876
9.35095
5.86301
2.07965
-20.3676
-17.4975
-15.4675
-12.9079
-10.2041
-7.28918
-4.20501
-1.01061
2.2192
5.38797
8.06951
9.87673
10.8648
11.2518
11.0569
10.1573
8.8631
7.16313
0.438523
-18.0398
-20.682
-17.8051
-15.7413
-13.1541
-10.416
-7.47906
-4.38591
-1.19631
2.01524
5.1479
7.76896
9.49652
10.3809
10.6083
10.2734
9.19897
7.19645
4.88712
3.70814
-4.58826
-20.9772
-18.1072
-16.0258
-13.4362
-10.6885
-7.74294
-4.64651
-1.46053
1.73975
4.84902
7.42907
9.10547
9.95875
10.1667
9.82296
8.90235
7.62856
6.29291
7.7669
5.84193
-21.2054
-18.344
-16.2497
-13.6734
-10.9303
-7.98614
-4.89193
-1.71075
1.47914
4.56874
7.1191
8.7676
9.64934
9.94035
9.85623
9.46361
9.21787
9.07905
10.0478
9.78417
-21.4191
-18.5512
-16.44
-13.8671
-11.1194
-8.17471
-5.08636
-1.91656
1.25546
4.32153
6.85173
8.49792
9.44243
9.89321
10.026
10.22
10.3326
10.4341
10.9367
10.9936
-21.636
-18.7596
-16.6425
-14.0727
-11.3191
-8.37481
-5.29374
-2.13615
1.01985
4.07034
6.6019
8.28558
9.29619
10.0031
10.2491
10.6885
10.933
11.1717
11.6314
11.862
-21.8543
-18.9675
-16.8577
-14.2925
-11.5358
-8.59238
-5.51653
-2.36729
0.779277
3.82554
6.37706
8.13096
9.24055
10.0601
10.6219
11.1074
11.4814
11.864
12.2899
12.6842
-22.0632
-19.1655
-17.0514
-14.4949
-11.7365
-8.79514
-5.72509
-2.58419
0.554701
3.60235
6.18317
8.01253
9.23664
10.1363
10.8959
11.4493
11.9628
12.3966
12.8143
13.2327
-22.2464
-19.3357
-17.2163
-14.6701
-11.9103
-8.97392
-5.91302
-2.78265
0.348096
3.39969
6.01573
7.91733
9.2466
10.236
11.0564
11.7068
12.2667
12.7256
13.1289
13.6301
-22.3926
-19.4702
-17.3505
-14.8138
-12.0543
-9.12742
-6.07957
-2.96223
0.159601
3.21465
5.86896
7.84061
9.25883
10.3375
11.2101
11.9047
12.4847
12.9613
13.3578
13.8629
-22.488
-19.5598
-17.4442
-14.9145
-12.1578
-9.24665
-6.21669
-3.11705
-0.0070166
3.04648
5.73619
7.77046
9.25807
10.3999
11.3117
12.0389
12.6356
13.1221
13.5172
14.0203
-22.5102
-19.5788
-17.4856
-14.9535
-12.2135
-9.32152
-6.31454
-3.24063
-0.14985
2.89391
5.6094
7.69186
9.23041
10.4153
11.3554
12.1077
12.7195
13.2156
13.601
14.1124
-22.4436
-19.5111
-17.4337
-14.911
-12.1973
-9.33701
-6.36681
-3.33186
-0.275983
2.75954
5.48095
7.59289
9.16592
10.3807
11.3424
12.1126
12.7369
13.2453
13.5984
14.1756
-22.2555
-19.33
-17.2521
-14.7569
-12.0852
-9.27377
-6.35814
-3.3795
-0.374983
2.62708
5.33737
7.46094
9.05317
10.2867
11.2629
12.0455
12.6791
13.1965
13.5827
14.0623
-21.9005
-18.9971
-16.9035
-14.4582
-11.8488
-9.10904
-6.27243
-3.37495
-0.446715
2.49263
5.16748
7.28154
8.87683
10.1175
11.1006
11.8886
12.5249
13.0415
13.4552
13.9227
-21.2887
-18.4241
-16.3505
-13.9765
-11.4546
-8.81726
-6.09341
-3.31116
-0.492692
2.35068
4.95825
7.0367
8.61629
9.85172
10.835
11.626
12.2667
12.7878
13.2094
13.6823
-20.3407
-17.5316
-15.5186
-13.2521
-10.8596
-8.3694
-5.80295
-3.17874
-0.510622
2.19665
4.69822
6.70856
8.24808
9.4614
10.4346
11.2235
11.8668
12.3932
12.8215
13.306
-18.9087
-16.212
-14.313
-12.2187
-10.0186
-7.73532
-5.38071
-2.96437
-0.493284
2.03134
4.38116
6.28235
7.74782
8.91197
9.85509
10.6285
11.2673
11.7963
12.2308
12.7277
-16.763
-14.2508
-12.5916
-10.7818
-8.87612
-6.8877
-4.81899
-2.67358
-0.455653
1.83227
3.97734
5.71911
7.06384
8.13507
9.00834
9.73248
10.3403
10.8546
11.2855
11.8014
-13.5395
-11.5739
-10.3613
-8.98237
-7.47351
-5.8591
-4.14042
-2.31977
-0.403637
1.59856
3.48584
5.01301
6.1813
7.1002
7.83889
8.44357
8.94633
9.37044
9.72741
10.1272
-9.17632
-8.26493
-7.67623
-6.85637
-5.84791
-4.67966
-3.35745
-1.88957
-0.289897
1.42193
3.05629
4.37588
5.3688
6.12761
6.71279
7.1658
7.51603
7.78507
7.98615
8.17901
-5.45571
-5.23721
-5.06085
-4.69486
-4.14788
-3.41707
-2.49518
-1.3867
-0.106263
1.32141
2.71956
3.85616
4.70215
5.33163
5.79627
6.13304
6.369
6.52451
6.61251
6.67451
-3.36152
-3.29754
-3.22314
-3.04491
-2.7486
-2.30557
-1.68925
-0.886727
0.100055
1.25178
2.41359
3.36622
4.06686
4.57306
4.92941
5.17092
5.3259
5.41786
5.4632
5.48706
-2.16852
-2.13483
-2.07674
-1.95886
-1.7658
-1.46937
-1.04008
-0.454168
0.300177
1.21498
2.16243
2.94578
3.5171
3.92148
4.19827
4.38033
4.49433
4.56143
4.59588
4.6118
-1.35676
-1.33635
-1.29299
-1.20957
-1.07182
-0.858292
-0.544522
-0.106482
0.473111
1.19509
1.95846
2.59461
3.05688
3.38088
3.60022
3.74328
3.83251
3.88494
3.91229
3.92425
-0.761182
-0.747915
-0.717217
-0.65855
-0.55962
-0.403773
-0.171094
0.159426
0.605238
1.17153
1.78022
2.29152
2.66305
2.92237
3.097
3.21031
3.2806
3.32163
3.34304
3.35224
-0.330331
-0.320903
-0.298521
-0.255963
-0.183478
-0.0680752
0.106337
0.35747
0.701225
1.14441
1.62699
2.03535
2.33253
2.53959
2.67858
2.76843
2.82398
2.85629
2.87318
2.8804
-0.0213308
-0.0143187
0.0024322
0.0341999
0.0885371
0.175484
0.30779
0.500018
0.765959
1.11263
1.49396
1.81868
2.05548
2.22042
2.33099
2.40236
2.44643
2.47204
2.48543
2.49115
0.198746
0.204022
0.216704
0.240795
0.282078
0.348336
0.449603
0.597625
0.803931
1.07505
1.37564
1.63299
1.8211
1.9522
2.04007
2.09676
2.13176
2.15208
2.16272
2.16725
0.35224
0.356255
0.36597
0.384443
0.416064
0.46693
0.544927
0.659409
0.819785
1.03182
1.26837
1.47184
1.62091
1.72489
1.79459
1.83955
1.8673
1.88342
1.89186
1.89545
0.455221
0.458325
0.465826
0.480066
0.504437
0.543706
0.604046
0.692858
0.817736
0.983606
1.16956
1.33014
1.44802
1.53032
1.5855
1.6211
1.64309
1.65586
1.66256
1.66541
0.519601
0.522011
0.527798
0.538785
0.557653
0.588084
0.634902
0.703954
0.801339
0.931154
1.07723
1.20374
1.29677
1.36178
1.40541
1.4336
1.45101
1.46114
1.46645
1.46871
0.554096
0.555956
0.560438
0.568969
0.583633
0.607282
0.643692
0.697486
0.773529
0.875151
0.989808
1.08934
1.16264
1.21394
1.24841
1.2707
1.28447
1.29247
1.29666
1.29844
0.565496
0.566935
0.570432
0.577095
0.588502
0.606914
0.635287
0.677261
0.736681
0.816215
0.906133
0.984353
1.04207
1.08251
1.10969
1.12725
1.13809
1.14439
1.14768
1.14908
0.559128
0.560265
0.562999
0.568176
0.577044
0.591379
0.613503
0.64627
0.692691
0.7549
0.82536
0.886774
0.93215
0.963954
0.98532
0.999109
1.00762
1.01256
1.01515
1.01625
0.53891
0.539801
0.541919
0.545929
0.552842
0.564017
0.581275
0.606838
0.643072
0.691687
0.746839
0.794978
0.83056
0.85549
0.872236
0.883053
0.88974
0.893632
0.895683
0.896562
0.50785
0.508534
0.510171
0.513289
0.518683
0.527399
0.540849
0.560766
0.589011
0.62695
0.670039
0.707671
0.735489
0.754991
0.768115
0.776615
0.781884
0.784954
0.786575
0.787271
0.468391
0.468921
0.470201
0.47264
0.47684
0.483615
0.494059
0.509527
0.531483
0.561002
0.59455
0.623868
0.645564
0.660806
0.671089
0.677762
0.681899
0.684306
0.685571
0.68611
0.422423
0.422836
0.423832
0.425724
0.428969
0.4342
0.44227
0.454233
0.47123
0.4941
0.520114
0.542862
0.559712
0.571566
0.579566
0.584746
0.587947
0.589804
0.590773
0.591181
0.371642
0.371963
0.372726
0.374167
0.376638
0.38063
0.386801
0.395964
0.408996
0.426547
0.446535
0.464049
0.477022
0.486142
0.492285
0.496254
0.498704
0.500127
0.50087
0.501181
0.317142
0.317376
0.317942
0.319022
0.320883
0.323897
0.328556
0.335479
0.345335
0.358633
0.37382
0.387171
0.396946
0.403799
0.408407
0.411386
0.413232
0.414314
0.414894
0.415151
0.26192
0.262096
0.262514
0.263304
0.264661
0.266852
0.270228
0.275231
0.28234
0.29189
0.30276
0.312311
0.319469
0.324578
0.328047
0.330306
0.331715
0.332547
0.332999
0.333211
0.207578
0.207799
0.208187
0.208811
0.20979
0.211297
0.213574
0.21692
0.221643
0.227906
0.234957
0.241454
0.247014
0.251064
0.253838
0.255637
0.256726
0.257321
0.257593
0.257689
0.124551
0.124554
0.12458
0.124787
0.125262
0.126151
0.127677
0.130135
0.133854
0.139103
0.145339
0.151081
0.155321
0.158405
0.160601
0.162115
0.163123
0.16377
0.164169
0.164397
0.0846286
0.0846204
0.0845415
0.084437
0.0843929
0.084535
0.0851165
0.086356
0.0884687
0.091613
0.0954468
0.0989974
0.101733
0.103849
0.105499
0.106776
0.107721
0.10835
0.10872
0.108835
0.0454023
0.0454369
0.0453311
0.0450251
0.0447347
0.0445991
0.0447014
0.0450963
0.0458301
0.0469339
0.0482828
0.0495533
0.0505716
0.0513986
0.0521165
0.0527829
0.0534027
0.0538991
0.0541061
0.0540319
10.7169
18.407
19.1823
21.1301
22.5137
23.8011
24.8902
25.8022
26.449
27.8387
17.9298
21.8353
21.7596
23.1647
24.1953
25.1341
25.9516
26.6822
26.8369
27.5406
21.6116
24.1362
23.7191
24.6293
25.2896
25.8982
26.4489
26.9762
26.6864
27.4213
23.7075
25.5886
25.0183
25.6728
26.0849
26.4572
26.7671
27.1136
26.6452
27.4229
25.0824
26.5363
25.7155
26.2782
26.5401
26.7602
26.9286
27.2319
26.685
27.4526
25.8993
27.0235
26.1729
26.714
26.8598
26.9772
27.059
27.3562
26.8112
27.5133
26.39
27.3072
26.503
27.0161
27.0815
27.1441
27.1927
27.4395
26.9373
27.5742
26.732
27.5124
26.7928
27.205
27.2241
27.2703
27.2907
27.5119
27.0654
27.636
26.979
27.6462
27.0096
27.3441
27.3304
27.3634
27.3904
27.5838
27.1968
27.6982
27.1699
27.7319
27.1769
27.4525
27.4425
27.4649
27.4817
27.659
27.335
27.7588
27.3312
27.7927
27.3264
27.5494
27.5496
27.5667
27.5819
27.7331
27.4637
27.8084
27.4462
27.8049
27.4309
27.607
27.6152
27.6286
27.645
27.7713
27.5538
27.832
27.4296
27.7013
27.4292
27.5715
27.5865
27.6065
27.6298
27.7371
27.5733
27.7996
27.4556
27.6856
27.5083
27.6308
27.665
27.7045
27.7491
27.8266
27.7326
27.941
28.3492
28.4936
28.4571
28.5038
28.5449
28.5847
28.6289
28.6733
28.6704
28.8071
29.9961
29.9753
29.9345
29.9127
29.8968
29.8878
29.8871
29.8979
29.9061
30.0262
)
;

boundaryField
{
    wall-4
    {
        type            zeroGradient;
    }
    pressure-outlet-7
    {
        type            fixedValue;
        value           uniform 0;
    }
    velocity-inlet-6
    {
        type            zeroGradient;
    }
    velocity-inlet-5
    {
        type            zeroGradient;
    }
    frontAndBackPlanes
    {
        type            empty;
    }
}


// ************************************************************************* //
