/*--------------------------------*- C++ -*----------------------------------*\
| =========                 |                                                 |
| \\      /  F ield         | OpenFOAM: The Open Source CFD Toolbox           |
|  \\    /   O peration     | Version:  2412                                  |
|   \\  /    A nd           | Website:  www.openfoam.com                      |
|    \\/     M anipulation  |                                                 |
\*---------------------------------------------------------------------------*/
FoamFile
{
    version     2.0;
    format      ascii;
    arch        "LSB;label=32;scalar=64";
    class       surfaceScalarField;
    location    "0.25";
    object      phi;
}
// * * * * * * * * * * * * * * * * * * * * * * * * * * * * * * * * * * * * * //

dimensions      [0 3 -1 0 0 0 0];

oriented        oriented;

internalField   nonuniform List<scalar> 
4262
(
-1.07037
1.29088
-1.97894
1.73723
-2.60283
2.39103
-2.9118
3.47414
-2.95354
5.22635
-2.71692
7.77774
-2.26068
11.3909
-1.58876
16.1478
-0.781415
22.0745
-0.00276368
28.7497
0.776123
28.7495
1.58387
22.0741
2.25649
16.1471
2.71348
11.3902
2.95086
7.77698
2.90977
5.22569
2.6014
3.47354
1.97813
2.39041
1.07002
1.73676
1.29053
-0.933175
2.22406
-1.96826
2.77232
-2.948
3.37076
-3.8284
4.35454
-4.42998
5.82794
-4.62431
7.97206
-4.33567
11.1023
-3.52957
15.3417
-2.04318
20.5881
-0.00751978
26.714
2.02825
26.7137
3.51604
20.5863
4.32464
15.3385
4.6157
11.0991
4.42351
7.96918
3.82377
5.82543
2.94482
4.35249
1.96626
3.36897
0.932274
2.77075
2.22281
-0.536467
2.76052
-1.23605
3.4719
-2.07513
4.20984
-2.93532
5.21474
-3.67619
6.5688
-4.13846
8.43433
-4.0977
11.0615
-3.41626
14.6603
-2.07977
19.2516
-0.010407
24.6447
2.06064
24.6427
3.4002
19.2467
4.0841
14.6546
4.12731
11.0559
3.66744
8.42905
2.92884
6.56403
2.07073
5.2106
1.23339
4.20631
0.535253
3.46888
2.75806
-0.33793
3.09845
-0.772095
3.90607
-1.28182
4.71956
-1.82181
5.75472
-2.34129
7.08829
-2.74629
8.83933
-2.86122
11.1764
-2.47405
14.2731
-1.53183
18.3094
-0.0127517
23.1256
1.50803
23.1219
2.45383
18.3009
2.84411
14.2644
2.73247
11.1675
2.33065
8.83086
1.81401
7.08067
1.27652
5.7481
0.768903
4.71392
0.336505
3.90128
3.09457
-0.214545
3.313
-0.485995
4.17752
-0.801732
5.0353
-1.14336
6.09635
-1.48153
7.42646
-1.75923
9.11704
-1.87279
11.29
-1.68434
14.0846
-1.09333
17.7184
-0.0144992
22.0468
1.06553
22.0418
1.65963
17.7068
1.85201
14.072
1.74254
11.277
1.46869
9.10471
1.13395
7.4154
0.795314
6.08674
0.482129
5.02711
0.212813
4.1706
3.30738
-0.136132
3.44913
-0.308906
4.35029
-0.509949
5.23634
-0.730424
6.31682
-0.952821
7.64886
-1.14304
9.30725
-1.24288
11.3898
-1.17095
14.0127
-0.780841
17.3283
-0.016684
21.2826
0.748455
21.2767
1.14097
17.3143
1.21752
13.9954
1.12268
11.3718
0.937145
9.29025
0.718915
7.63364
0.50206
6.30359
0.304114
5.22506
0.133982
4.34073
3.44136
-0.0867322
3.53586
-0.197368
4.46093
-0.325617
5.36459
-0.467119
6.45832
-0.611275
7.79301
-0.736546
9.43252
-0.805398
11.4587
-0.761895
13.9692
-0.510971
17.0773
-0.0207479
20.7924
0.471228
20.7847
0.725738
17.0598
0.774566
13.9466
0.711743
11.4347
0.592166
9.40982
0.45312
7.77268
0.316139
6.44057
0.191826
5.34937
0.0842575
4.4483
3.52562
-0.0553796
3.59124
-0.126356
4.5319
-0.208355
5.44659
-0.298968
6.54894
-0.391589
7.88563
-0.47254
9.51347
-0.517983
11.5041
-0.490168
13.9414
-0.327675
16.9148
-0.0252453
20.49
0.280879
20.4786
0.442996
16.8977
0.478694
13.9109
0.44139
11.472
0.367383
9.48383
0.280704
7.85936
0.195118
6.52616
0.11741
5.42708
0.0512078
4.5145
3.57683
-0.0357062
3.62695
-0.0816259
4.57782
-0.134728
5.49969
-0.19351
6.60772
-0.253798
7.94592
-0.306738
9.56641
-0.336884
11.5343
-0.322134
13.9266
-0.221324
16.814
-0.0344937
20.3031
0.160503
20.2836
0.264192
16.794
0.289532
13.8856
0.268357
11.4931
0.223953
9.52823
0.171723
7.91159
0.120547
6.57734
0.0749254
5.4727
0.0326065
4.55682
3.60943
-0.0236133
3.65056
-0.0540257
4.60824
-0.0893475
5.53501
-0.128667
6.64704
-0.169495
7.98675
-0.206507
9.60343
-0.229331
11.5571
-0.230269
13.9276
-0.145491
16.7293
-0.0371171
20.1948
0.0826028
20.1639
0.148701
16.7279
0.167395
13.8669
0.156271
11.5043
0.129647
9.55486
0.0968907
7.94435
0.0628609
6.61137
0.0294054
5.50615
0.00874176
4.57748
3.61817
-0.0162299
3.66679
-0.0371277
4.62913
-0.0615852
5.55947
-0.0891907
6.67464
-0.11881
8.01637
-0.147991
9.63261
-0.172577
11.5817
-0.168165
13.9232
-0.116001
16.6771
-0.0475864
20.1263
0.0250133
20.0913
0.0705595
16.6823
0.0862395
13.8512
0.081818
11.5087
0.0655636
9.57111
0.0440769
7.96583
0.0212572
6.63419
0.00119159
5.52622
-0.00114282
4.57982
3.61703
-0.0114507
3.67824
-0.0261026
4.64379
-0.0431778
5.57655
-0.0622222
6.69369
-0.0820194
8.03617
-0.100928
9.65152
-0.114116
11.5949
-0.0945473
13.9036
-0.139474
16.722
-0.0740372
20.0609
-0.0199558
20.0372
0.0156863
16.6467
0.0333201
13.8335
0.0383749
11.5036
0.0369478
9.57254
0.0331605
7.96962
0.0277396
6.63961
0.0298561
5.5241
0.0243448
4.58533
3.64138
-0.0087017
3.68694
-0.019665
4.65475
-0.0322538
5.58913
-0.0458119
6.70725
-0.0586922
8.04905
-0.0679074
9.66073
-0.0667916
11.5938
-0.0526047
13.8894
-0.176323
16.8457
-0.116796
20.0014
-0.0622275
19.9826
-0.0259377
16.6104
-0.00249907
13.8101
0.0145471
11.4866
0.0285626
9.55852
0.0412023
7.95698
0.056328
6.62448
0.0720754
5.50835
0.0491148
4.60829
3.69049
-0.00846472
3.69541
-0.0189701
4.66525
-0.031151
5.60131
-0.0446393
6.72073
-0.0584825
8.06289
-0.0682444
9.67049
-0.0679965
11.5935
-0.0870498
13.9085
-0.158027
16.9167
-0.134086
19.9774
-0.0915023
19.9401
-0.0607147
16.5796
-0.0363563
13.7858
-0.0151583
11.4654
0.00517815
9.53819
0.0246377
7.93752
0.0418735
6.60725
0.0430556
5.50717
0.0207085
4.63063
3.7112
-0.0102053
3.70561
-0.0228418
4.67789
-0.0378235
5.6163
-0.0552838
6.7382
-0.0751717
8.08278
-0.0968161
9.69214
-0.122442
11.6191
-0.165479
13.9515
-0.124728
16.876
-0.131678
19.9844
-0.115772
19.9241
-0.0947873
16.5586
-0.0748504
13.7658
-0.05895
11.4495
-0.0480143
9.52725
-0.0409163
7.93042
-0.0354246
6.60175
-0.036576
5.50832
-0.0269853
4.62104
3.68421
-0.0126749
3.71829
-0.0283817
4.6936
-0.0471688
5.63508
-0.0695166
6.76054
-0.0960296
8.10929
-0.128223
9.72433
-0.166706
11.6576
-0.198622
13.9834
-0.136454
16.8138
-0.153291
20.0012
-0.149929
19.9208
-0.13215
16.5409
-0.112187
13.7459
-0.094987
11.4323
-0.0821947
9.51446
-0.0734315
7.92166
-0.0687908
6.59711
-0.0635662
5.5031
-0.0383118
4.59579
3.6459
-0.0152763
3.73357
-0.0341589
4.71248
-0.0566316
5.65756
-0.0830801
6.78699
-0.113765
8.13998
-0.148769
9.75933
-0.186821
11.6957
-0.215983
14.0126
-0.194443
16.7923
-0.207419
20.0142
-0.198448
19.9118
-0.175303
16.5177
-0.14843
13.719
-0.122383
11.4062
-0.0989456
9.49102
-0.0796571
7.90237
-0.0653945
6.58285
-0.0487373
5.48644
-0.0246181
4.57167
3.62128
-0.0185791
3.75214
-0.0414992
4.7354
-0.0687135
5.68477
-0.100565
6.81884
-0.137101
8.17651
-0.177677
9.79991
-0.220062
11.7381
-0.25618
14.0487
-0.264519
16.8006
-0.275575
20.0253
-0.258849
19.8951
-0.227063
16.4859
-0.190358
13.6823
-0.154008
11.3699
-0.120508
9.45752
-0.0910022
7.87287
-0.0656896
6.55754
-0.0419717
5.46272
-0.0195353
4.54923
3.60175
-0.0233228
3.77547
-0.0519533
4.76403
-0.0858997
5.71872
-0.125556
6.8585
-0.170885
8.22184
-0.220852
9.84988
-0.272478
11.7897
-0.318633
14.0949
-0.344521
16.8265
-0.355327
20.0361
-0.332227
19.872
-0.29046
16.4442
-0.242389
13.6342
-0.194752
11.3222
-0.150822
9.41359
-0.111517
7.83356
-0.0766521
6.52267
-0.0468791
5.43295
-0.0211041
4.52346
3.58064
-0.0296182
3.80509
-0.0662041
4.80062
-0.109583
5.7621
-0.160173
6.90909
-0.217792
8.27946
-0.280908
9.91299
-0.345642
11.8544
-0.404255
14.1535
-0.443295
16.8655
-0.454144
20.0469
-0.423012
19.8409
-0.368924
16.3901
-0.307066
13.5723
-0.245762
11.2609
-0.18911
9.35694
-0.138682
7.78313
-0.0947909
6.47878
-0.0574054
5.39556
-0.0256569
4.49171
3.55499
-0.0394838
3.84457
-0.0868852
4.84802
-0.142935
5.81814
-0.208241
6.9744
-0.282314
8.35353
-0.362819
9.9935
-0.444451
11.9361
-0.517683
14.2267
-0.567588
16.9154
-0.577549
20.0569
-0.535751
19.7991
-0.466322
16.3206
-0.387653
13.4937
-0.309808
11.1831
-0.237881
9.28501
-0.174026
7.71928
-0.11874
6.4235
-0.0716774
5.3485
-0.031911
4.45194
3.52308
-0.0489219
3.89349
-0.112391
4.91149
-0.187541
5.89329
-0.274285
7.06114
-0.371309
8.45056
-0.474783
10.097
-0.577247
12.0385
-0.66658
14.316
-0.725297
16.9741
-0.731767
20.0633
-0.675674
19.743
-0.587373
16.2323
-0.488477
13.3948
-0.390743
11.0854
-0.300283
9.19455
-0.21986
7.63886
-0.150242
6.35388
-0.0909931
5.28925
-0.0408945
4.40185
3.48218
-0.0770062
3.9705
-0.16107
4.99555
-0.259767
5.99199
-0.373294
7.17467
-0.498683
8.57595
-0.629502
10.2278
-0.755032
12.1641
-0.859864
14.4209
-0.923792
17.0381
-0.922047
20.0616
-0.847029
19.6679
-0.736161
16.1215
-0.613664
13.2723
-0.492556
10.9643
-0.379744
9.08174
-0.278556
7.53767
-0.190148
6.26547
-0.114411
5.21352
-0.0499916
4.33743
3.43219
-0.0940687
4.06457
-0.216573
5.11806
-0.35845
6.13387
-0.51546
7.33168
-0.681159
8.74165
-0.845611
10.3922
-0.995042
12.3135
-1.11186
14.5377
-1.17467
17.1009
-1.15776
20.0447
-1.05809
19.5683
-0.920652
15.984
-0.771363
13.123
-0.623727
10.8166
-0.484998
8.94301
-0.35903
7.4117
-0.247646
6.15408
-0.151449
5.11732
-0.0704646
4.25644
3.36173
-0.164013
4.22858
-0.347406
5.30145
-0.546609
6.33307
-0.754855
7.53992
-0.961937
8.94873
-1.1548
10.5851
-1.31802
12.4767
-1.4339
14.6536
-1.48198
17.149
-1.43788
20.0006
-1.3062
19.4366
-1.1391
15.8169
-0.962045
12.9459
-0.787986
10.6426
-0.623746
8.77877
-0.472976
7.26093
-0.337447
6.01855
-0.217307
4.99718
-0.111244
4.15038
3.25048
-0.307968
4.53655
-0.599666
5.59315
-0.875888
6.60929
-1.13589
7.79993
-1.37277
9.18561
-1.57606
10.7884
-1.73329
12.6339
-1.82976
14.75
-1.84778
17.167
-1.76541
19.9182
-1.59622
19.2674
-1.39794
15.6186
-1.19315
12.7412
-0.992359
10.4418
-0.800037
8.58645
-0.617756
7.07865
-0.44581
5.84661
-0.284265
4.83563
-0.133195
3.99931
3.11729
-0.292056
4.8286
-0.548444
5.84954
-0.804281
6.86513
-1.06162
8.05727
-1.31364
9.43763
-1.55329
11.028
-1.77049
12.8512
-1.94959
14.9291
-2.06632
17.2837
-2.08294
19.9348
-1.97425
19.1587
-1.78568
15.4301
-1.55364
12.5091
-1.30087
10.189
-1.0423
8.32789
-0.788297
6.82464
-0.546219
5.60453
-0.321446
4.61086
-0.120891
3.79876
2.9964
-0.215592
5.0442
-0.347575
5.98152
-0.52474
7.0423
-0.722113
8.25464
-0.924824
9.64034
-1.12272
11.2259
-1.30341
13.0318
-1.45029
15.076
-1.53988
17.3733
-1.53798
19.9329
-1.42667
19.0474
-1.25321
15.2566
-1.05322
12.3091
-0.848598
9.98436
-0.652961
8.13225
-0.474291
6.64597
-0.316445
5.44668
-0.180322
4.47474
-0.0669409
3.68537
2.92945
-0.158708
5.2029
-0.263941
6.08675
-0.396618
7.17497
-0.537919
8.39594
-0.688215
9.79064
-0.840703
11.3784
-0.983298
13.1744
-1.09963
15.1923
-1.16776
17.4414
-1.15789
19.9231
-1.05819
18.9477
-0.91312
15.1116
-0.753952
12.15
-0.598398
9.82881
-0.455796
7.98965
-0.330148
6.52033
-0.222209
5.33874
-0.130883
4.38341
-0.0544423
3.60893
2.87501
-0.102158
5.30506
-0.205305
6.1899
-0.30238
7.27205
-0.407356
8.50092
-0.523143
9.90642
-0.643086
11.4984
-0.756973
13.2883
-0.850621
15.286
-0.904761
17.4956
-0.893833
19.9121
-0.809757
18.8636
-0.691733
14.9935
-0.56578
12.024
-0.445561
9.70859
-0.337414
7.8815
-0.243459
6.42637
-0.163577
5.25886
-0.0965775
4.31641
-0.0408971
3.55325
2.83412
-0.0425121
5.34757
-0.129069
6.27645
-0.209587
7.35257
-0.300952
8.59228
-0.399734
10.0052
-0.500457
11.5991
-0.595736
13.3836
-0.674308
15.3646
-0.720095
17.5414
-0.711489
19.9035
-0.642209
18.7943
-0.54588
14.8972
-0.444297
11.9224
-0.348407
9.6127
-0.262922
7.79602
-0.189144
6.35259
-0.126668
5.19639
-0.0743419
4.26409
-0.0310089
3.50992
2.80311
0.00190159
5.34567
-0.068771
6.34713
-0.141147
7.42494
-0.223983
8.67512
-0.311158
10.0924
-0.398874
11.6868
-0.481496
13.4662
-0.549998
15.4331
-0.591035
17.5824
-0.586188
19.8987
-0.529605
18.7378
-0.449848
14.8174
-0.365714
11.8383
-0.286514
9.5335
-0.216129
7.72563
-0.15553
6.29199
-0.104274
5.14513
-0.0613346
4.22115
-0.025329
3.47391
2.77778
0.0389116
5.30676
-0.0253816
6.41142
-0.0979477
7.49751
-0.173579
8.75075
-0.250955
10.1698
-0.328207
11.764
-0.401182
13.5392
-0.462583
15.4945
-0.501147
17.621
-0.500756
19.8983
-0.454945
18.692
-0.387755
14.7503
-0.315989
11.7665
-0.248152
9.46566
-0.187877
7.66536
-0.136143
6.24026
-0.0926344
5.10162
-0.0565027
4.18502
-0.0265716
3.44398
2.75121
0.021145
5.28562
-0.0277717
6.46034
-0.0845667
7.5543
-0.147054
8.81324
-0.212838
10.2355
-0.28011
11.8313
-0.34499
13.6041
-0.401156
15.5506
-0.438792
17.6586
-0.443344
19.9028
-0.406949
18.6556
-0.349445
14.6927
-0.286324
11.7034
-0.225882
9.40522
-0.171897
7.61137
-0.125541
6.19391
-0.0866347
5.06272
-0.0543814
4.15276
-0.0275658
3.41717
2.72364
0.00498398
5.28063
-0.0322923
6.49761
-0.0801924
7.6022
-0.131966
8.86501
-0.188071
10.2916
-0.246946
11.8902
-0.30529
13.6624
-0.357719
15.6031
-0.395612
17.6965
-0.405596
19.9128
-0.377889
18.6279
-0.328194
14.6431
-0.271047
11.6463
-0.21492
9.3491
-0.164058
7.56051
-0.120038
6.14988
-0.08295
5.02563
-0.0521819
4.122
-0.0264048
3.39139
2.69724
-0.00868496
5.28932
-0.0400091
6.52894
-0.0775048
7.6397
-0.121302
8.90881
-0.170321
10.3407
-0.222881
11.9428
-0.276403
13.716
-0.32643
15.6531
-0.365554
17.7356
-0.381509
19.9288
-0.36236
18.6087
-0.319542
14.6002
-0.26669
11.5934
-0.212673
9.29508
-0.162485
7.51032
-0.118356
6.10575
-0.0808059
4.98808
-0.0494408
4.09063
-0.0233491
3.3653
2.67389
-0.0139188
5.30324
-0.0408637
6.55588
-0.0742856
7.67312
-0.112951
8.94747
-0.156574
10.3843
-0.204436
11.9906
-0.254481
13.766
-0.303143
15.7017
-0.344236
17.7767
-0.366686
19.9512
-0.356443
18.5985
-0.32044
14.5642
-0.271194
11.5442
-0.217982
9.24187
-0.166784
7.45912
-0.120747
6.05972
-0.0810602
4.94839
-0.0477435
4.05731
-0.0197234
3.33728
2.65416
-0.0125695
5.3158
-0.0370378
6.58035
-0.069384
7.70547
-0.104857
8.98295
-0.145123
10.4246
-0.189629
12.0351
-0.23713
13.8135
-0.285075
15.7497
-0.328543
17.8202
-0.35786
19.9805
-0.357143
18.5977
-0.328616
14.5357
-0.283207
11.4987
-0.230336
9.189
-0.177062
7.40585
-0.12769
6.01035
-0.0842691
4.90497
-0.0474042
4.02045
-0.0170904
3.30697
2.63707
-0.0209713
5.33678
-0.0442479
6.60363
-0.0675298
7.72875
-0.0986955
9.01411
-0.135468
10.4613
-0.177018
12.0767
-0.222517
13.859
-0.270115
15.7973
-0.316131
17.8662
-0.352515
20.0169
-0.362039
18.6073
-0.342185
14.5158
-0.301683
11.4582
-0.249521
9.13683
-0.193669
7.35
-0.139825
5.9565
-0.0911995
4.85634
-0.0488893
3.97814
-0.0140749
3.27215
2.623
-0.0120826
5.34886
-0.0323293
6.62387
-0.0621643
7.75858
-0.0925753
9.04452
-0.126834
10.4956
-0.166084
12.1159
-0.209881
13.9028
-0.257216
15.8446
-0.305622
17.9146
-0.348911
20.0602
-0.369193
18.6275
-0.359454
14.5061
-0.325663
11.4245
-0.275556
9.08673
-0.217401
7.29184
-0.158244
5.89735
-0.102825
4.80093
-0.0533444
3.92866
-0.0101661
3.22897
2.61283
-0.0168389
5.3657
-0.0375499
6.64458
-0.0583216
7.77935
-0.085955
9.07216
-0.118602
10.5282
-0.155855
12.1532
-0.198073
13.945
-0.245046
15.8916
-0.295534
17.9651
-0.345381
20.1101
-0.376742
18.6589
-0.378638
14.508
-0.353941
11.3998
-0.308365
9.04115
-0.249602
7.23308
-0.185762
5.83351
-0.123658
4.73882
-0.0678271
3.87283
-0.021597
3.18274
2.59123
-0.0169029
5.3826
-0.0356047
6.66329
-0.057497
7.80125
-0.0816539
9.09631
-0.111084
10.5577
-0.146215
12.1883
-0.186996
13.9858
-0.233585
15.9382
-0.285785
18.0173
-0.34152
20.1658
-0.383747
18.7011
-0.39837
14.5226
-0.385221
11.3866
-0.347386
9.00332
-0.290832
7.17652
-0.223411
5.76608
-0.153266
4.66868
-0.0876959
3.80726
-0.0324517
3.1275
2.55878
-0.00924887
5.39185
-0.024458
6.6785
-0.0470359
7.82383
-0.0739665
9.12324
-0.103521
10.5872
-0.137173
12.222
-0.176416
14.025
-0.222168
15.9839
-0.275326
18.0705
-0.335894
20.2264
-0.38835
18.7536
-0.416391
14.5507
-0.417174
11.3874
-0.390903
8.97705
-0.341086
7.12671
-0.273886
5.69889
-0.196778
4.59157
-0.11787
3.72835
-0.0464324
3.05606
2.51235
-0.017442
5.40929
-0.0379704
6.69902
-0.053171
7.83903
-0.0715903
9.14166
-0.0968384
10.6125
-0.128245
12.2534
-0.165756
14.0625
-0.210549
16.0287
-0.264322
18.1242
-0.328933
20.291
-0.390787
18.8154
-0.432325
14.5922
-0.448707
11.4038
-0.437336
8.96567
-0.398828
7.0882
-0.336249
5.63631
-0.253811
4.50913
-0.158341
3.63288
-0.0685568
2.96628
2.44379
-0.00801927
5.41731
-0.0196134
6.71062
-0.0386832
7.8581
-0.0635903
9.16657
-0.0898782
10.6387
-0.119781
12.2833
-0.155779
14.0985
-0.199534
16.0725
-0.253368
18.1781
-0.320719
20.3583
-0.390293
18.885
-0.444406
14.6463
-0.47706
11.4364
-0.483539
8.97215
-0.462486
7.06715
-0.41578
5.5896
-0.347027
4.44038
-0.253032
3.53889
-0.118205
2.83145
2.32559
-0.0130123
5.43032
-0.0311459
6.72875
-0.0449866
7.87194
-0.0613339
9.18292
-0.0831949
10.6606
-0.111386
12.3115
-0.145646
14.1328
-0.187857
16.1147
-0.240828
18.231
-0.309355
20.4269
-0.384692
18.9604
-0.45002
14.7116
-0.49897
11.4854
-0.525252
8.99844
-0.524814
7.06671
-0.495775
5.56056
-0.437366
4.38197
-0.34487
3.44639
-0.20706
2.69364
2.11853
-0.0103251
5.44065
-0.0177268
6.73615
-0.0343024
7.88851
-0.0557152
9.20433
-0.0804129
10.6853
-0.108733
12.3398
-0.14375
14.1678
-0.187963
16.1589
-0.245114
18.2882
-0.32204
20.5038
-0.411843
19.0502
-0.497126
14.7969
-0.571111
11.5594
-0.626247
9.05357
-0.657317
7.09778
-0.664134
5.56738
-0.656181
4.37401
-0.660439
3.45065
-0.730379
2.76358
2.17104
-0.782887
-0.0174037
5.45805
-0.0183502
6.7371
-0.0381687
7.90833
-0.0540319
9.22019
-0.0753588
10.7066
-0.103132
12.3676
-0.138033
14.2027
-0.183054
16.2039
-0.242619
18.3477
-0.325285
20.5864
-0.42625
19.1511
-0.528942
14.8996
-0.627568
11.658
-0.714709
9.14071
-0.784262
7.16733
-0.833544
5.61666
-0.863052
4.40352
-0.881049
3.46864
-0.859232
2.74176
2.02891
-0.717105
-0.00380037
5.46185
-0.0197265
6.75303
-0.0319742
7.92058
-0.047493
9.23571
-0.0696944
10.7288
-0.0967036
12.3946
-0.131716
14.2377
-0.177555
16.2498
-0.239167
18.4094
-0.326742
20.674
-0.437549
19.2619
-0.556523
15.0186
-0.679624
11.7811
-0.800082
9.26117
-0.910104
7.27736
-1.00364
5.7102
-1.07806
4.47794
-1.13964
3.53023
-1.16619
2.76831
2.05841
-1.19569
0.00723622
5.45462
-0.00754729
6.76781
-0.0200409
7.93307
-0.0395804
9.25525
-0.0620032
10.7513
-0.0890591
12.4216
-0.124667
14.2733
-0.171112
16.2962
-0.234212
18.4725
-0.325712
20.7655
-0.444923
19.3811
-0.578663
15.1523
-0.725272
11.9277
-0.879808
9.41571
-1.03368
7.43123
-1.17742
5.85393
-1.30386
4.60439
-1.41581
3.64217
-1.49675
2.84925
2.16376
-1.6021
-0.0044844
5.4591
-0.0176207
6.78095
-0.0243957
7.93985
-0.0378692
9.26873
-0.0565585
10.7699
-0.0832357
12.4483
-0.118131
14.3082
-0.164205
16.3423
-0.227934
18.5362
-0.3223
20.8599
-0.448292
19.5071
-0.594393
15.2984
-0.761156
12.0945
-0.945208
9.59976
-1.13731
7.62334
-1.32576
6.04238
-1.50459
4.78321
-1.66841
3.806
-1.80077
2.98161
2.29632
-1.93333
-0.000431771
5.45953
-0.0109121
6.79143
-0.017557
7.94649
-0.034744
9.28591
-0.054681
10.7899
-0.0811631
12.4748
-0.115303
14.3424
-0.161186
16.3882
-0.225561
18.6006
-0.322272
20.9566
-0.453364
19.6382
-0.608707
15.4538
-0.792055
12.2778
-1.00428
9.81198
-1.24163
7.86069
-1.49039
6.29114
-1.73281
5.02564
-1.9507
4.02388
-2.13634
3.16725
2.45016
-2.29018
-0.00380711
5.46334
-0.00836195
6.79598
-0.0222946
7.96042
-0.0353786
9.299
-0.0552779
10.8098
-0.0826631
12.5022
-0.117887
14.3776
-0.164716
16.435
-0.230069
18.6659
-0.32842
21.0549
-0.462474
19.7723
-0.622961
15.6143
-0.815318
12.4702
-1.04038
10.037
-1.29344
8.11375
-1.55101
6.54871
-1.81424
5.28887
-2.10611
4.31576
-2.33664
3.39778
2.63693
-2.5234
0.000532018
5.46281
-0.0156721
6.81219
-0.0278139
7.97257
-0.0413192
9.3125
-0.0622505
10.8307
-0.0895658
12.5295
-0.124853
14.4129
-0.171365
16.4815
-0.236172
18.7307
-0.333978
21.1528
-0.467733
19.906
-0.628409
15.7749
-0.824334
12.6661
-1.06117
10.2739
-1.35723
8.40981
-1.72811
6.91958
-2.14637
5.70714
-2.58538
4.75476
-2.97012
3.78251
2.96259
-3.29577
-0.00735209
5.47016
-0.0226921
6.82753
-0.0356904
7.98556
-0.0531534
9.32997
-0.0742473
10.8518
-0.100165
12.5554
-0.133725
14.4464
-0.178482
16.5263
-0.241535
18.7938
-0.337251
21.2485
-0.468218
20.037
-0.624537
15.9313
-0.815567
12.8571
-1.04493
10.5032
-1.32068
8.68556
-1.64909
7.24799
-1.98226
6.04031
-2.38054
5.15304
-3.02842
4.4304
3.29271
-3.35854
-0.00873185
5.47889
-0.0244611
6.84325
-0.0404881
8.00159
-0.0608543
9.35033
-0.0822018
10.8732
-0.107621
12.5808
-0.140091
14.4789
-0.183613
16.5698
-0.245081
18.8552
-0.3381
21.3415
-0.464136
20.163
-0.610912
16.078
-0.785377
13.0316
-0.990978
10.7088
-1.21899
8.91358
-1.5601
7.5891
-2.10043
6.58063
-2.7447
5.79731
-3.61171
5.29741
4.4877
-4.8067
-0.0131681
5.49206
-0.028731
6.85882
-0.0451182
8.01798
-0.0646947
9.36991
-0.0862759
10.8947
-0.111593
12.6061
-0.142937
14.5103
-0.18422
16.6111
-0.241635
18.9127
-0.327035
21.4269
-0.440062
20.2761
-0.567223
16.2052
-0.712033
13.1764
-0.897484
10.8943
-1.07332
9.08941
-1.31485
7.83062
-1.70569
6.97148
-2.06814
6.15976
-1.59527
4.82454
2.89242
-0.0160427
5.5081
-0.032071
6.87485
-0.0508434
8.03675
-0.0697704
9.38883
-0.0913458
10.9163
-0.116837
12.6316
-0.148577
14.542
-0.190493
16.653
-0.248621
18.9708
-0.333927
21.5122
-0.44382
20.386
-0.563659
16.325
-0.678089
13.2908
-0.786678
11.0029
-0.877092
9.17983
-0.881587
7.83512
-0.620145
6.71004
-0.218761
5.75838
-0.0204094
4.62619
2.87201
-0.0177538
5.52586
-0.0336929
6.89079
-0.0531108
8.05617
-0.0723351
9.40806
-0.0938626
10.9378
-0.119299
12.6571
-0.151333
14.574
-0.193768
16.6954
-0.25232
19.0293
-0.33637
21.5962
-0.439304
20.4889
-0.543887
16.4296
-0.63007
13.377
-0.673166
11.046
-0.625104
9.13177
-0.514772
7.72479
-0.25469
6.44996
0.0318326
5.47185
0.146705
4.51132
3.01872
-0.0166105
5.54247
-0.0313899
6.90556
-0.0499746
8.07475
-0.0696352
9.42772
-0.0915872
10.9598
-0.117511
12.683
-0.15012
14.6066
-0.192994
16.7383
-0.25138
19.0877
-0.332521
21.6774
-0.423263
20.5796
-0.497027
16.5034
-0.544955
13.4249
-0.537163
11.0382
-0.520939
9.11554
-0.402782
7.60663
-0.275845
6.32302
-0.10972
5.30573
0.032264
4.36933
3.05098
-0.0151862
5.55765
-0.0276102
6.91799
-0.0451907
8.09233
-0.0646006
9.44713
-0.0865129
10.9817
-0.112615
12.7091
-0.145367
14.6394
-0.188046
16.781
-0.245184
19.1449
-0.321582
21.7538
-0.398736
20.6568
-0.44267
16.5473
-0.454388
13.4367
-0.426616
11.0104
-0.501729
9.19065
-0.357019
7.46192
-0.221263
6.18726
-0.0423553
5.12682
0.105958
4.22102
3.15694
-0.0137552
5.57141
-0.0244509
6.92868
-0.0406307
8.10851
-0.0588206
9.46532
-0.0798958
11.0028
-0.105338
12.7345
-0.13733
14.6714
-0.178857
16.8225
-0.233573
19.1996
-0.303979
21.8242
-0.370152
20.723
-0.401593
16.5788
-0.385109
13.4202
-0.358323
10.9836
-0.362806
9.19514
-0.250528
7.34964
-0.124495
6.06123
0.0110074
4.99132
0.116755
4.11527
3.27369
-0.0118036
5.58321
-0.0219916
6.93887
-0.0353211
8.12184
-0.05174
9.48174
-0.0712498
11.0223
-0.0951928
12.7585
-0.12546
14.7017
-0.164767
16.8618
-0.215964
19.2508
-0.279813
21.888
-0.33697
20.7801
-0.36658
16.6084
-0.363768
13.4174
-0.325299
10.9452
-0.210894
9.08073
-0.157437
7.29618
-0.0840747
5.98787
-0.0129028
4.92015
0.0491686
4.0532
3.32286
-0.00912186
5.59233
-0.0170484
6.9468
-0.0286329
8.13343
-0.0428944
9.496
-0.0599578
11.0394
-0.0813409
12.7799
-0.10876
14.7291
-0.144631
16.8977
-0.191222
19.2974
-0.248165
21.945
-0.296377
20.8283
-0.319023
16.631
-0.315446
13.4138
-0.278763
10.9085
-0.154931
8.9569
-0.118149
7.2594
-0.0772093
5.94693
-0.0379537
4.88089
-0.00580947
4.02106
3.31705
-0.00641592
5.59875
-0.0122723
6.95265
-0.0208211
8.14198
-0.0317923
9.50697
-0.0452141
11.0528
-0.0627796
12.7974
-0.0860726
14.7524
-0.117223
16.9288
-0.158105
19.3382
-0.207819
21.9947
-0.247506
20.868
-0.262251
16.6458
-0.254322
13.4058
-0.22097
10.8751
-0.144969
8.8809
-0.110568
7.225
-0.0784507
5.91481
-0.0510518
4.85349
-0.0284594
3.99846
3.28859
-0.00334182
5.60209
-0.00629751
6.95561
-0.0116794
8.14736
-0.0178347
9.51313
-0.0260763
11.061
-0.0383736
12.8097
-0.0560176
14.77
-0.0810883
16.9539
-0.115119
19.3723
-0.157889
22.0375
-0.191177
20.9013
-0.202327
16.6569
-0.194796
13.3983
-0.169854
10.8502
-0.123825
8.83487
-0.0990156
7.20019
-0.0782439
5.89404
-0.0624635
4.83771
-0.0478955
3.9839
3.2407
0.000534099
5.60156
0.00151826
6.95463
-0.000364622
8.14924
-0.000357357
9.51312
-0.00296831
11.0636
-0.00794442
12.8147
-0.0176993
14.7798
-0.0348435
16.9711
-0.060696
19.3981
-0.0972614
22.074
-0.126774
20.9308
-0.138509
16.6686
-0.135348
13.3952
-0.120734
10.8356
-0.0964107
8.81055
-0.0819655
7.18574
-0.0707402
5.88281
-0.0628982
4.82987
-0.0549903
3.97599
3.18571
0.00576132
5.59579
0.013313
6.94707
0.0195911
8.14296
0.0264963
9.50621
0.0324165
11.0577
0.0357722
12.8113
0.0340998
14.7814
0.0242528
16.9809
0.00225862
19.4201
-0.0239627
22.1003
-0.0520215
20.9589
-0.0678161
16.6844
-0.0721982
13.3995
-0.0686773
10.8321
-0.0600981
8.80197
-0.0543551
7.18
-0.0496192
5.87808
-0.0459244
4.82618
-0.0419451
3.97201
3.14376
0.0122336
5.58356
0.0267226
6.93259
0.042336
8.12735
0.0593811
9.48917
0.0763994
11.0407
0.0915479
12.7962
0.101988
14.771
0.103952
16.9789
0.0939788
19.4301
0.067429
22.1268
0.0365823
20.9897
0.013613
16.7074
-0.00123127
13.4144
-0.00998319
10.8408
-0.0142335
8.80622
-0.0173519
7.18312
-0.0193144
5.88004
-0.0207197
4.82758
-0.0191012
3.97039
3.12466
0.0206498
5.56291
0.0446586
6.90858
0.0723563
8.09965
0.102639
9.45889
0.134138
11.0092
0.164317
12.766
0.189503
14.7458
0.204617
16.9638
0.203795
19.4309
0.18113
22.1495
0.144444
21.0264
0.109467
16.7424
0.0802711
13.4436
0.0570309
10.864
0.0387586
8.82449
0.0239452
7.19793
0.0120581
5.89193
0.00247663
4.83716
-0.00560886
3.97848
3.11905
0.0327493
5.53016
0.0714211
6.8699
0.11383
8.05724
0.16095
9.41177
0.210884
10.9593
0.260263
12.7166
0.303871
14.7022
0.334939
16.9328
0.34507
19.4208
0.324883
22.1697
0.279121
21.0722
0.228013
16.7935
0.179802
13.4918
0.137394
10.9065
0.101451
8.86043
0.0715322
7.22785
0.0470492
5.91641
0.0272528
4.85696
0.0109859
3.99474
3.13004
0.0475704
5.48259
0.105604
6.81187
0.16924
7.99361
0.240007
9.341
0.314916
10.8843
0.389248
12.6423
0.456115
14.6353
0.506733
16.8821
0.529793
19.3977
0.511366
22.1881
0.452766
21.1308
0.38001
16.8663
0.306631
13.5652
0.23901
10.9741
0.179716
8.91973
0.12922
7.27835
0.086968
5.95866
0.0519551
4.89197
0.0228954
4.0238
3.15294
0.071828
5.41076
0.155445
6.72825
0.24854
7.90051
0.351038
9.2385
0.458402
10.777
0.564338
12.5364
0.660334
14.5393
0.735186
16.8073
0.77428
19.3586
0.75815
22.2042
0.68366
21.2053
0.583456
16.9665
0.477391
13.6712
0.37619
11.0753
0.285152
9.01077
0.206212
7.35729
0.139341
6.02554
0.0834814
4.94783
0.0370735
4.07021
3.19001
0.0998323
5.31093
0.226206
6.60188
0.363274
7.76344
0.510599
9.09118
0.661301
10.6263
0.807637
12.39
0.939695
14.4073
1.04423
16.7028
1.10341
19.2994
1.09173
22.2159
1.00017
21.2968
0.867669
17.099
0.720752
13.8182
0.575193
11.2208
0.440105
9.14585
0.320102
7.47729
0.216777
6.12886
0.129801
5.03481
0.0576079
4.1424
3.24762
0.17768
5.13325
0.368018
6.41154
0.560974
7.57049
0.759994
8.89216
0.959938
10.4263
1.1526
12.1974
1.32694
14.2329
1.46786
16.5618
1.55411
19.2132
1.5537
22.2163
1.44952
21.401
1.28479
17.2637
1.09222
14.0107
0.892474
11.4206
0.698861
9.33947
0.519577
7.65657
0.359092
6.28935
0.219168
5.17473
0.0995122
4.26206
3.34713
0.287944
4.84531
0.567918
6.13157
0.846868
7.29154
1.12086
8.61816
1.38476
10.1624
1.63317
11.949
1.85727
14.0089
2.04241
16.3767
2.16525
19.0904
2.18904
22.1925
2.086
21.504
1.89937
17.4503
1.66623
14.2439
1.40991
11.6769
1.14604
9.60334
0.88543
7.91719
0.635683
6.53909
0.401978
5.40844
0.187346
4.47669
3.53447
0.247113
4.59819
0.533925
5.84476
0.832902
6.99256
1.12259
8.32848
1.38916
9.89586
1.61853
11.7196
1.79666
13.8307
1.90865
16.2647
1.93721
19.0618
1.86149
22.2682
1.69273
21.6728
1.48914
17.6539
1.27586
14.4572
1.06477
11.888
0.861345
9.80676
0.667767
8.11076
0.484489
6.72237
0.311233
5.58169
0.14826
4.63966
3.68273
0.126148
4.47205
0.30332
5.66758
0.506572
6.78931
0.724238
8.11081
0.94701
9.67309
1.15919
11.5074
1.34201
13.6479
1.47506
16.1316
1.53626
19.0006
1.5008
22.3037
1.37092
21.8027
1.19922
17.8256
1.01314
14.6432
0.826946
12.0742
0.648443
9.98526
0.48238
8.27683
0.332013
6.87274
0.199671
5.71403
0.0872107
4.75212
3.76995
0.0963384
4.37571
0.223799
5.54012
0.367619
6.64549
0.525065
7.95337
0.693192
9.50497
0.863385
11.3372
1.02143
13.4899
1.14811
16.005
1.21989
18.9288
1.20894
22.3147
1.1098
21.9018
0.968062
17.9673
0.811543
14.7998
0.655544
12.2302
0.508651
10.1322
0.375504
8.40997
0.258039
6.9902
0.156197
5.81588
0.068789
4.83953
3.83873
0.0684181
4.30729
0.160342
5.4482
0.266937
6.53889
0.386276
7.83403
0.516145
9.3751
0.651105
11.2023
0.781472
13.3595
0.892185
15.8943
0.962348
18.8587
0.96504
22.312
0.890274
21.9766
0.775902
18.0817
0.647973
14.9277
0.520886
12.3573
0.402299
10.2507
0.295786
8.51649
0.202433
7.08355
0.12194
5.89637
0.0533206
4.90815
3.89205
0.0500689
4.25722
0.116847
5.38142
0.19583
6.45991
0.286183
7.74367
0.386685
9.2746
0.493498
11.0954
0.599471
13.2535
0.692851
15.8009
0.756226
18.7953
0.765748
22.3024
0.709715
22.0326
0.61868
18.1727
0.515588
15.0308
0.41312
12.4597
0.317844
10.346
0.232705
8.60162
0.158567
7.15769
0.0951402
5.9598
0.0415052
4.96179
3.93356
0.0379595
4.21926
0.087895
5.33149
0.147265
6.40054
0.215873
7.67506
0.293283
9.19719
0.37704
11.0117
0.461939
13.1686
0.538849
15.724
0.593563
18.7406
0.605767
22.2902
0.56374
22.0746
0.491765
18.2447
0.40935
15.1132
0.327323
12.5418
0.251238
10.4221
0.183524
8.66934
0.124815
7.2164
0.074772
6.00984
0.0325932
5.00397
3.96615
0.0291598
4.1901
0.0670668
5.29358
0.112246
6.35536
0.164858
7.62245
0.224669
9.13737
0.290122
10.9462
0.357495
13.1012
0.419814
15.6616
0.465703
18.6947
0.478273
22.2777
0.446664
22.1062
0.390007
18.3014
0.324519
15.1787
0.259235
12.607
0.198752
10.4826
0.145033
8.72306
0.0985458
7.26289
0.0589775
6.04941
0.0256907
5.03725
3.99184
0.0225138
4.16759
0.0515284
5.26456
0.0861822
6.32071
0.126819
7.58182
0.173228
9.09097
0.224383
10.8951
0.277599
13.048
0.32758
15.6117
0.365335
18.6569
0.377084
22.2659
0.353235
22.1301
0.308767
18.3458
0.256943
15.2305
0.205177
12.6588
0.157223
10.5305
0.114664
8.76562
0.0778656
7.29969
0.0465677
6.0807
0.020273
5.06355
4.01212
0.0174741
4.15011
0.0398008
5.24224
0.0665107
6.294
0.0980515
7.55028