/*--------------------------------*- C++ -*----------------------------------*\
| =========                 |                                                 |
| \\      /  F ield         | OpenFOAM: The Open Source CFD Toolbox           |
|  \\    /   O peration     | Version:  2412                                  |
|   \\  /    A nd           | Website:  www.openfoam.com                      |
|    \\/     M anipulation  |                                                 |
\*---------------------------------------------------------------------------*/
FoamFile
{
    version     2.0;
    format      ascii;
    arch        "LSB;label=32;scalar=64";
    class       volScalarField;
    location    "0.26";
    object      epsilon;
}
// * * * * * * * * * * * * * * * * * * * * * * * * * * * * * * * * * * * * * //

dimensions      [0 2 -3 0 0 0 0];

internalField   nonuniform List<scalar> 
12225
(
448.248
622.894
830.557
1004.83
1150.4
1270.22
1368.62
1449.63
1516.36
1571.37
1616.74
1654.12
1684.8
1709.78
1729.83
1745.35
1756.67
1766.6
173.744
302.084
403.102
480.178
539.345
585.698
622.138
650.861
673.574
691.54
705.724
716.876
725.587
732.323
737.49
741.334
744.652
744.492
119.435
232.402
315.512
376.255
421.162
455.029
480.63
499.96
514.534
525.462
533.569
539.484
543.694
546.586
548.492
549.674
550.566
550.233
97.6414
199.979
277.776
334.832
376.772
407.859
430.863
447.789
460.145
469.044
475.313
479.575
482.315
483.91
484.683
484.908
484.922
484.52
83.6526
176.289
251.577
308.548
351.099
382.721
406.064
423.141
435.483
444.243
450.285
454.271
456.709
458.001
458.479
458.434
458.169
457.712
71.9917
153.972
226.31
283.823
328.194
361.835
387.033
405.699
419.345
429.146
436.009
440.635
443.571
445.251
446.032
446.219
446.095
445.751
61.3441
131.281
198.624
255.576
301.538
337.583
365.348
386.457
402.304
414.029
422.546
428.582
432.716
435.413
437.052
437.956
438.39
438.455
51.6696
108.73
168.486
222.629
268.751
306.556
336.797
360.608
379.12
393.343
404.136
412.209
418.15
422.439
425.47
427.574
429.004
429.85
43.2224
87.6449
137.684
186.322
230.295
268.238
299.979
326.013
347.069
363.911
377.255
387.739
395.91
402.233
407.099
410.831
413.671
415.685
36.1697
69.2407
108.63
149.499
188.75
224.538
255.993
282.973
305.731
324.696
340.357
353.204
363.691
372.225
379.16
384.793
389.341
392.834
30.4983
54.138
83.3273
115.312
147.811
179.109
208.06
234.087
257.019
276.935
294.053
308.662
321.07
331.58
340.474
347.993
354.313
359.411
26.3765
43.197
64.282
88.2374
113.644
139.251
164.035
187.297
208.643
227.91
245.089
260.277
273.623
285.309
295.518
304.421
312.132
318.557
23.1424
34.7463
49.3126
66.2676
84.8734
104.383
124.075
143.344
161.749
179.007
194.964
209.563
222.816
234.782
245.545
255.192
263.77
271.125
20.3782
27.6942
36.7517
47.4266
59.4445
72.4821
86.1713
100.139
114.056
127.659
140.749
153.193
164.907
175.852
186.019
195.413
204.013
211.617
18.1499
22.2405
27.1487
32.9136
39.489
46.795
54.716
63.1048
71.8041
80.6631
89.5466
98.339
106.946
115.295
123.332
131.013
138.28
144.933
16.4706
18.3567
20.5272
23.0282
25.8741
29.0686
32.6036
36.4546
40.5837
44.945
49.4893
54.1661
58.9266
63.7249
68.519
73.2692
77.9272
82.3599
15.3281
15.873
16.4958
17.2132
18.0328
18.9608
20.0036
21.1643
22.4422
23.834
25.3333
26.9317
28.6187
30.3805
32.2032
34.0728
35.9716
37.8575
14.7508
14.6757
14.6369
14.6352
14.6697
14.7396
14.8449
14.986
15.163
15.3758
15.6241
15.9075
16.2249
16.5767
16.9621
17.3791
17.8249
18.2954
14.8977
14.9733
15.0873
15.2435
15.4418
15.6822
15.9649
16.2899
16.6563
17.0625
17.5063
17.9853
18.4962
19.0359
19.6007
20.187
20.7902
21.3965
15.9708
17.2606
18.7266
20.3956
22.2739
24.3609
26.6497
29.1247
31.7619
34.5327
37.4059
40.3501
43.3345
46.3304
49.312
52.2562
55.1382
57.8981
18.0497
21.997
26.6903
32.1487
38.3094
45.0765
52.3264
59.9128
67.6846
75.5018
83.2425
90.8058
98.1124
105.104
111.739
117.993
123.845
129.252
21.5632
30.653
41.9215
55.0382
69.4978
84.7823
100.381
115.834
130.777
144.949
158.186
170.395
181.543
191.639
200.723
208.849
216.079
222.457
27.2186
45.3008
67.7872
92.9388
119.107
145.003
169.646
192.394
212.923
231.138
247.087
260.908
272.781
282.908
291.489
298.716
304.761
309.786
35.7147
67.677
105.679
144.952
182.519
216.745
246.821
272.575
294.23
312.19
326.913
338.857
348.445
356.054
362.012
366.597
370.05
372.595
47.408
97.6117
152.03
202.691
246.855
283.889
314.074
338.201
357.206
371.976
383.289
391.804
398.068
402.526
405.541
407.406
408.365
408.652
61.8882
131.752
198.706
254.807
299.835
335.071
362.112
382.56
397.801
408.962
416.94
422.438
426.011
428.09
429.011
429.04
428.39
427.277
78.4671
165.762
239.653
296.704
339.787
371.976
395.787
413.193
425.729
434.563
440.58
444.45
446.681
447.661
447.688
446.993
445.758
444.17
99.5998
200.965
279.478
337.821
380.456
411.806
434.888
451.764
463.979
472.69
478.744
482.772
485.249
486.538
486.915
486.595
485.746
484.537
144.792
258.314
348.613
417.597
468.464
506.746
535.87
558.047
574.949
587.822
597.579
604.903
610.317
614.228
616.952
618.738
619.78
620.278
366.941
498.482
666.582
808.025
923.442
1016.68
1091.7
1152.36
1201.64
1241.81
1274.65
1301.59
1323.75
1342.03
1357.12
1369.6
1379.91
1388.47
0.836649
0.803157
1.18351
1.51992
1.80149
2.04321
2.30584
2.60922
2.94191
3.30678
3.71214
4.17714
4.7646
5.52144
6.39965
7.39693
8.51824
9.77326
11.1722
12.7238
14.4345
16.3083
18.3474
20.5521
22.9219
25.4565
28.1564
31.0247
34.0677
37.2972
40.7325
44.3587
48.14
52.069
56.1408
60.3511
64.6956
69.1705
73.7722
78.4974
83.3428
88.3054
93.3822
98.5704
103.867
109.268
114.772
120.374
126.07
131.858
137.732
143.689
149.723
155.83
162.004
168.24
174.532
180.874
187.26
193.682
200.135
206.612
213.104
219.606
226.11
232.607
239.092
245.557
251.994
258.397
264.763
271.089
277.377
283.641
289.906
296.127
302.246
308.264
314.18
319.989
325.685
331.261
336.71
342.026
347.201
352.229
357.104
361.818
366.368
370.746
374.948
378.967
382.801
386.443
389.89
393.137
396.182
399.019
401.647
404.062
406.262
408.244
410.007
411.548
412.866
413.96
414.829
415.473
415.891
416.083
416.049
415.79
415.307
414.601
413.673
412.526
411.161
409.581
407.789
405.788
403.581
401.172
398.565
395.765
392.776
389.602
386.251
382.726
379.034
375.181
371.173
367.018
362.721
358.289
353.731
349.053
344.264
339.371
334.377
329.306
324.146
318.935
313.716
308.751
305.491
302.815
300.113
297.343
294.505
291.603
288.641
285.624
282.558
279.448
276.299
273.116
269.905
266.67
263.417
260.15
256.875
253.596
250.317
247.042
243.776
240.522
237.282
234.059
230.853
227.664
224.488
221.319
218.145
214.944
211.679
208.275
204.574
200.171
194.383
186.517
2.6216
1.45688
1.30277
1.35991
1.51116
1.73768
2.03358
2.39999
2.82696
3.31879
3.87983
4.51541
5.23181
6.03022
6.90393
7.84746
8.85631
9.92637
11.0535
12.2336
13.4626
14.7371
16.0543
17.4122
18.81
20.2476
21.7259
23.2464
24.8106
26.4201
28.0752
29.7738
31.5135
33.2937
35.1142
36.9749
38.8756
40.8158
42.7954
44.8136
46.87
48.9638
51.0942
53.2604
55.4614
57.6961
59.9634
62.262
64.5905
66.9476
69.3316
71.741
74.174
76.629
79.104
81.5971
84.1062
86.6293
89.1643
91.709
94.261
96.8181
99.3779
101.938
104.496
107.05
109.597
112.135
114.663
117.178
119.681
122.173
124.656
127.137
129.631
132.13
134.6
137.034
139.431
141.788
144.102
146.371
148.592
150.762
152.879
154.941
156.944
158.888
160.768
162.584
164.333
166.012
167.621
169.157
170.619
172.004
173.312
174.54
175.688
176.755
177.738
178.637
179.452
180.18
180.822
181.377
181.844
182.223
182.513
182.714
182.827
182.85
182.785
182.631
182.388
182.058
181.64
181.136
180.546
179.871
179.112
178.271
177.348
176.345
175.264
174.105
172.872
171.566
170.189
168.742
167.229
165.652
164.012
162.312
160.556
158.745
156.883
154.972
153.012
151.015
148.966
146.896
144.833
142.842
141.14
139.574
138.022
136.455
134.868
133.26
131.632
129.988
128.327
126.653
124.968
123.274
121.573
119.867
118.158
116.449
114.742
113.038
111.339
109.647
107.964
106.291
104.63
102.982
101.348
99.729
98.1247
96.5353
94.9597
93.3963
91.842
90.2933
88.7418
87.199
85.8571
85.8948
4.73854
2.30665
1.95099
1.97528
2.15184
2.41517
2.75648
3.17531
3.66999
4.23783
4.87451
5.57459
6.33199
7.13995
7.99137
8.88023
9.80188
10.753
11.7314
12.7357
13.7657
14.8215
15.9039
17.0142
18.1535
19.3234
20.5249
21.7591
23.0264
24.3269
25.6602
27.0256
28.4222
29.8493
31.3066
32.7933
34.309
35.8529
37.4246
39.0233
40.6485
42.2996
43.9759
45.6767
47.4013
49.1491
50.9193
52.7111
54.5236
56.3559
58.2071
60.0761
61.9619
63.8633
65.7792
67.7082
69.6492
71.6006
73.5611
75.5293
77.5037
79.4827
81.4649
83.4487
85.4327
87.4154
89.3956
91.3721
93.3441
95.3111
97.273
99.2302
101.184
103.135
105.083
107.018
108.931
110.818
112.675
114.502
116.296
118.054
119.775
121.457
123.097
124.694
126.246
127.75
129.205
130.61
131.963
133.262
134.505
135.692
136.821
137.89
138.899
139.846
140.73
141.551
142.307
142.998
143.622
144.18
144.671
145.094
145.448
145.734
145.951
146.099
146.179
146.189
146.13
146.002
145.806
145.541
145.209
144.81
144.344
143.812
143.215
142.554
141.829
141.043
140.195
139.288
138.323
137.301
136.224
135.092
133.909
132.675
131.393
130.064
128.69
127.273
125.816
124.321
122.781
121.221
119.632
118.025
116.416
114.835
113.34
111.898
110.469
109.035
107.592
106.138
104.673
103.199
101.716
100.228
98.7347
97.2385
95.741
94.2437
92.7484
91.2565
89.7697
88.2893
86.8169
85.3538
83.9013
82.4607
81.0331
79.6197
78.2214
76.8392
75.4739
74.1265
72.798
71.4898
70.2047
68.949
67.7353
66.6076
65.6885
65.5663
6.94049
3.26763
2.7468
2.73718
2.90192
3.17587
3.53876
3.98227
4.50032
5.08609
5.73144
6.42757
7.16591
7.93894
8.74066
9.56693
10.4154
11.2852
12.1765
13.0905
14.0284
14.9921
15.9829
17.0025
18.0519
19.132
20.2433
21.386
22.5599
23.7645
24.9993
26.2635
27.5564
28.8775
30.2261
31.6017
33.0037
34.4317
35.8852
37.3637
38.8669
40.3943
41.9454
43.5199
45.1173
46.737
48.3786
50.0415
51.725
53.4285
55.1511
56.8922
58.6507
60.4258
62.2164
64.0215
65.8398
67.6702
69.5114
71.3622
73.221
75.0866
76.9575
78.8323
80.7097
82.5883
84.4669
86.3442
88.2192
90.0911
91.9589
93.8221
95.6798
97.5312
99.3712
101.194
102.995
104.77
106.519
108.237
109.923
111.576
113.192
114.77
116.308
117.804
119.256
120.663
122.022
123.332
124.592
125.8
126.954
128.054
129.097
130.084
131.012
131.881
132.689
133.437
134.122
134.745
135.305
135.801
136.233
136.6
136.903
137.14
137.312
137.418
137.459
137.435
137.345
137.19
136.971
136.688
136.341
135.931
135.458
134.924
134.329
133.673
132.959
132.187
131.358
130.474
129.536
128.545
127.502
126.41
125.27
124.083
122.852
121.577
120.262
118.906
117.514
116.091
114.636
113.157
111.654
110.133
108.606
107.088
105.601
104.137
102.68
101.221
99.7571
98.2863
96.8093
95.3269
93.8406
92.3518
90.8619
89.3724
87.885
86.401
84.922
83.4495
81.9847
80.529
79.0838
77.6502
76.2295
74.8228
73.4312
72.0558
70.6977
69.358
68.0377
66.7383
65.4615
64.2103
62.9893
61.808
60.6839
59.6612
58.8282
58.4541
8.93857
4.25659
3.55668
3.47641
3.61704
3.8836
4.24395
4.68336
5.19197
5.76084
6.38092
7.04348
7.74076
8.46664
9.2169
9.98922
10.7829
11.5984
12.4369
13.3002
14.19
15.1079
16.0552
17.0331
18.0423
19.0833
20.1562
21.2609
22.3971
23.5644
24.7622
25.9901
27.2475
28.5341
29.8492
31.1927
32.5642
33.9632
35.3896
36.8431
38.3234
39.8303
41.3634
42.9225
44.5073
46.1173
47.7521
49.4113
51.0944
52.8006
54.5293
56.2797
58.0509
59.8421
61.652
63.4797
65.324
67.1835
69.0568
70.9427
72.8395
74.7458
76.6601
78.5807
80.506
82.4345
84.3645
86.2946
88.2233
90.149
92.0704
93.9858
95.8938
97.791
99.6725
101.534
103.372
105.184
106.967
108.718
110.436
112.118
113.762
115.365
116.926
118.443
119.913
121.336
122.708
124.029
125.297
126.511
127.668
128.768
129.809
130.79
131.711
132.569
133.365
134.097
134.765
135.368
135.905
136.377
136.782
137.12
137.391
137.595
137.732
137.802
137.805
137.741
137.61
137.413
137.15
136.822
136.43
135.973
135.453
134.871
134.227
133.523
132.76
131.939
131.06
130.127
129.14
128.099
127.009
125.869
124.68
123.447
122.17
120.847
119.49
118.096
116.668
115.209
113.721
112.208
110.672
109.119
107.556
105.993
104.438
102.893
101.351
99.8078
98.2611
96.7105
95.1564
93.6
92.0424
90.4852
88.9299
87.3779
85.8307
84.2898
82.7566
81.2326
79.7191
78.2174
76.7288
75.2544
73.7954
72.353
70.9282
69.5223
68.1363
66.7713
65.4289
64.1106
62.8188
61.5571
60.3313
59.1518
58.037
57.0249
56.1771
55.6194
10.777
5.17063
4.2753
4.12624
4.2342
4.47995
4.82157
5.23948
5.72145
6.25783
6.84006
7.46062
8.11331
8.79361
9.49873
10.2275
10.9798
11.7568
12.5597
13.3901
14.2497
15.1397
16.0612
17.0151
18.002
19.0222
20.0759
21.163
22.2834
23.4369
24.6232
25.8422
27.0935
28.377
29.6925
31.0398
32.4188
33.8294
35.2715
36.745
38.2497
39.7855
41.3523
42.9499
44.5781
46.2364
47.9246
49.6422
51.3886
53.1633
54.9654
56.7941
58.6486
60.5276
62.4302
64.3549
66.3005
68.2654
70.2482
72.247
74.2603
76.2862
78.3228
80.3682
82.4206
84.4778
86.538
88.599
90.6589
92.7157
94.7671
96.8112
98.8458
100.866
102.866
104.844
106.795
108.718
110.609
112.465
114.284
116.063
117.8
119.493
121.14
122.738
124.285
125.779
127.219
128.603
129.928
131.193
132.398
133.54
134.618
135.631
136.578
137.458
138.27
139.014
139.687
140.291
140.824
141.287
141.678
141.998
142.246
142.422
142.527
142.56
142.522
142.414
142.234
141.985
141.666
141.278
140.822
140.3
139.71
139.056
138.337
137.556
136.712
135.809
134.846
133.827
132.751
131.622
130.441
129.209
127.925
126.6
125.231
123.82
122.371
120.886
119.368
117.818
116.24
114.637
113.011
111.368
109.712
108.05
106.388
104.728
103.068
101.406
99.7429
98.0776
96.4111
94.7447
93.0797
91.4177
89.7602
88.1088
86.4649
84.8301
83.2058
81.5935
79.9945
78.4101
76.8416
75.2902
73.7571
72.2434
70.7503
69.279
67.8305
66.4063
65.008
63.6374
62.2973
60.9917
59.7269
58.5136
57.3689
56.3241
55.4209
54.7208
13.675
6.15259
4.9279
4.67215
4.72995
4.94312
5.25644
5.64482
6.09393
6.5938
7.13664
7.71621
8.32772
8.96788
9.63482
10.3279
11.0475
11.7944
12.57
13.3756
14.2125
15.082
15.985
16.9222
17.8945
18.9021
19.9454
21.0248
22.1403
23.292
24.4802
25.7048
26.966
28.2638
29.5984
30.9698
32.3783
33.8238
35.3065
36.8265
38.3838
39.9784
41.6103
43.2794
44.9854
46.7281
48.5072
50.3221
52.1723
54.0571
55.9757
57.927
59.91
61.9235
63.966
66.0361
68.1322
70.2524
72.3949
74.5577
76.7388
78.9358
81.1467
83.3689
85.6002
87.8381
90.08
92.3235
94.5659
96.8047
99.0372
101.261
103.472
105.664
107.834
109.977
112.09
114.17
116.215
118.22
120.184
122.103
123.975
125.797
127.567
129.282
130.941
132.54
134.079
135.554
136.965
138.31
139.587
140.794
141.931
142.996
143.988
144.906
145.749
146.517
147.208
147.823
148.36
148.82
149.202
149.506
149.733
149.881
149.952
149.946
149.862
149.702
149.466
149.155
148.769
148.309
147.777
147.172
146.497
145.752
144.94
144.06
143.115
142.106
141.036
139.906
138.717
137.469
136.171
134.82
133.42
131.973
130.482
128.949
127.377
125.769
124.126
122.451
120.749
119.02
117.27
115.5
113.717
111.925
110.127
108.328
106.527
104.725
102.922
101.119
99.3165
97.5166
95.7205
93.9299
92.1465
90.3719
88.6077
86.8554
85.1166
83.3927
81.685
79.995
78.324
76.6731
75.0436
73.4367
71.8535
70.2953
68.7634
67.2592
65.7844
64.3412
62.9326
61.5628
60.2384
58.9695
57.7715
56.6694
55.6907
54.867
16.4468
7.02527
5.46379
5.0934
5.09441
5.26992
5.55142
5.90847
6.32467
6.78973
7.29641
7.83943
8.41503
9.02076
9.65531
10.3184
11.0103
11.732
12.4845
13.2691
14.087
14.9393
15.8271
16.7514
17.7129
18.7124
19.7506
20.828
21.9453
23.1028
24.3012
25.5409
26.8224
28.146
29.5124
30.9218
32.3748
33.8716
35.4126
36.998
38.6281
40.3031
42.0229
43.7876
45.5971
47.451
49.349
51.2906
53.2751
55.3016
57.3693
59.4769
61.6231
63.8065
66.0253
68.2777
70.5619
72.8755
75.2164
77.5821
79.9701
82.3777
84.8022
87.2408
89.6904
92.1482
94.6111
97.0759
99.5395
101.999
104.451
106.892
109.316
111.717
114.091
116.434
118.743
121.014
123.244
125.43
127.568
129.655
131.688
133.665
135.583
137.439
139.231
140.956
142.613
144.199
145.713
147.152
148.516
149.802
151.009
152.136
153.182
154.146
155.027
155.825
156.538
157.166
157.71
158.168
158.541
158.828
159.03
159.147
159.179
159.127
158.991
158.772
158.47
158.086
157.622
157.078
156.456
155.757
154.981
154.13
153.208
152.214
151.15
150.016
148.819
147.56
146.239
144.858
143.423
141.933
140.392
138.803
137.167
135.489
133.77
132.013
130.221
128.398
126.546
124.668
122.767
120.847
118.913
116.967
115.015
113.058
111.099
109.14
107.18
105.222
103.266
101.316
99.3715
97.4355
95.5093
93.5948
91.6935
89.8072
87.9375
86.0857
84.2534
82.442
80.6527
78.8869
77.1458
75.4306
73.7427
72.0832
70.4535
68.8552
67.2902
65.7607
64.2699
62.8223
61.4241
60.0848
58.8179
57.6428
56.5771
55.6378
18.8904
7.74419
5.8695
5.38876
5.33291
5.47015
5.71996
6.04702
6.43296
6.86698
7.34211
7.85365
8.39849
8.97471
9.5814
10.2184
10.8861
11.5854
12.3174
13.0832
13.8842
14.7215
15.5965
16.5103
17.4641
18.459
19.4959
20.5761
21.7004
22.8699
24.0854
25.348
26.6584
28.0177
29.4265
30.8857
32.396
33.958
35.5724
37.2396
38.96
40.734
42.5617
44.4432
46.3783
48.3669
50.4083
52.5022
54.6475
56.8434
59.0886
61.3817
63.7212
66.105
68.5314
70.9979
73.5022
76.0416
78.6135
81.2148
83.8426
86.4935
89.1643
91.8516
94.5518
97.2615
99.9769
102.694
105.41
108.12
110.821
113.509
116.173
118.81
121.415
123.984
126.513
128.999
131.436
133.823
136.154
138.428
140.641
142.789
144.87
146.881
148.819
150.682
152.468
154.174
155.798
157.34
158.796
160.166
161.448
162.641
163.744
164.756
165.675
166.502
167.236
167.876
168.423
168.875
169.234
169.499
169.671
169.749
169.735
169.628
169.431
169.142
168.764
168.297
167.743
167.104
166.379
165.571
164.68
163.709
162.662
161.539
160.342
159.072
157.734
156.33
154.861
153.33
151.74
150.094
148.394
146.643
144.845
143.003
141.118
139.195
137.236
135.245
133.225
131.178
129.109
127.021
124.917
122.802
120.678
118.55
116.42
114.289
112.16
110.034
107.913
105.799
103.694
101.6
99.5185
97.4518
95.4014
93.3691
91.3566
89.3653
87.3968
85.4526
83.534
81.6423
79.7788
77.9449
76.1417
74.3706
72.6331
70.9309
69.2658
67.6404
66.0577
64.5223
63.0403
61.6201
60.2731
59.0144
57.8548
56.804
20.9266
8.30195
6.15105
5.56991
5.46052
5.56115
5.78101
6.08051
6.43947
6.84645
7.29446
7.77909
8.29758
8.84836
9.43077
10.0448
10.691
11.3703
12.0838
12.8329
13.619
14.4437
15.3083
16.2146
17.164
18.1581
19.1985
20.2866
21.424
22.6121
23.8524
25.1464
26.4953
27.9005
29.3633
30.8847
32.4659
34.1079
35.8115
37.5775
39.4064
41.2988
43.2547
45.2745
47.3578
49.5045
51.7139
53.9853
56.3177
58.7098
61.1601
63.6668
66.2279
68.8412
71.5042
74.2141
76.968
79.7626
82.5947
85.4606
88.3568
91.2793
94.2243
97.1877
100.165
103.153
106.147
109.142
112.135
115.12
118.094
121.048
123.973
126.865
129.719
132.53
135.294
138.008
140.666
143.266
145.802
148.273
150.673
153
155.251
157.422
159.511
161.515
163.433
165.261
166.997
168.641
170.189
171.642
172.997
174.253
175.409
176.464
177.417
178.268
179.016
179.661
180.203
180.642
180.979
181.213
181.344
181.374
181.303
181.132
180.862
180.493
180.027
179.464
178.808
178.059
177.219
176.29
175.273
174.171
172.987
171.721
170.377
168.957
167.464
165.9
164.268
162.572
160.813
158.995
157.122
155.196
153.22
151.198
149.133
147.029
144.888
142.714
140.511
138.282
136.03
133.759
131.473
129.175
126.869
124.559
122.246
119.935
117.626
115.323
113.026
110.74
108.465
106.204
103.958
101.731
99.5225
97.3357
95.172
93.033
90.9203
88.8354
86.7796
84.7544
82.7611
80.8009
78.8752
76.9855
75.1332
73.3201
71.5481
69.8198
68.1384
66.5082
64.9349
63.4261
61.9912
60.6419
59.3839
58.224
22.5181
8.70439
6.32245
5.65426
5.49656
5.56335
5.75553
6.03
6.36499
6.74839
7.17305
7.63459
8.13047
8.65932
9.22068
9.81474
10.4422
11.1041
11.8019
12.5371
13.3115
14.1269
14.9852
15.8885
16.8387
17.8381
18.8885
19.9921
21.151
22.3673
23.6428
24.9796
26.3795
27.8443
29.3758
30.9754
32.6447
34.3849
36.1972
38.0825
40.0416
42.075
44.183
46.3656
48.6227
50.9539
53.3583
55.8349
58.3824
60.9991
63.6832
66.4323
69.2441
72.1156
75.0438
78.0253
81.0566
84.1338
87.2527
90.4092
93.5989
96.8173
100.06
103.322
106.599
109.885
113.177
116.469
119.756
123.033
126.295
129.527
132.724
135.881
138.992
142.053
145.059
148.006
150.889
153.704
156.447
159.115
161.703
164.207
166.625
168.954
171.19
173.33
175.374
177.317
179.159
180.897
182.53
184.057
185.475
186.785
187.985
189.073
190.049
190.913
191.664
192.303
192.829
193.243
193.545
193.736
193.815
193.784
193.643
193.394
193.038
192.576
192.01
191.34
190.569
189.699
188.732
187.669
186.513
185.267
183.932
182.511
181.007
179.423
177.762
176.026
174.219
172.344
170.404
168.403
166.343
164.229
162.063
159.85
157.593
155.296
152.961
150.594
148.197
145.774
143.329
140.865
138.386
135.896
133.399
130.898
128.396
125.897
123.402
120.915
118.437
115.971
113.52
111.086
108.671
106.276
103.905
101.558
99.2375
96.9456
94.6834
92.4527
90.2548
88.0912
85.9632
83.8721
81.8194
79.8064
77.8348
75.9063
74.0229
72.1872
70.4024
68.6726
67.0029
65.4002
63.8721
62.4273
61.0688
59.8017
23.6527
8.96296
6.40024
5.66052
5.46097
5.49735
5.66433
5.91614
6.22978
6.59255
6.99707
7.43895
7.91573
8.42621
8.97011
9.54784
10.1604
10.809
11.4955
12.2217
12.9898
13.8021
14.661
15.5691
16.529
17.5433
18.6148
19.7461
20.9399
22.1988
23.5254
24.9222
26.3917
27.936
29.5573
31.2576
33.0386
34.902
36.8491
38.881
40.9984
43.202
45.4919
47.8681
50.3302
52.8773
55.5085
58.2222
61.0166
63.8896
66.8387
69.861
72.9533
76.1123
79.334
82.6146
85.9495
89.3341
92.7635
96.2327
99.7366
103.27
106.828
110.404
113.995
117.594
121.196
124.795
128.387
131.965
135.515
139.028
142.498
145.918
149.285
152.592
155.835
159.009
162.109
165.132
168.072
170.926
173.691
176.362
178.935
181.408
183.776
186.04
188.194
190.238
192.17
193.988
195.69
197.274
198.741
200.088
201.315
202.421
203.404
204.265
205.003
205.619
206.114
206.486
206.738
206.87
206.881
206.774
206.55
206.209
205.753
205.184
204.503
203.712
202.814
201.809
200.702
199.492
198.184
196.78
195.283
193.695
192.019
190.26
188.418
186.499
184.506
182.441
180.309
178.113
175.857
173.545
171.18
168.767
166.309
163.809
161.273
158.703
156.105
153.48
150.834
148.171
145.493
142.805
140.112
137.415
134.719
132.027
129.343
126.667
124.005
121.357
118.726
116.116
113.528
110.963
108.426
105.916
103.437
100.989
98.5752
96.1962
93.8539
91.5495
89.2846
87.0604
84.8783
82.7399
80.6466
78.6004
76.6032
74.6577
72.7668
70.9344
69.1653
67.4653
65.8407
64.298
62.8382
61.4658
24.3329
9.09085
6.40061
5.60638
5.37241
5.38243
5.527
5.75863
6.05352
6.39859
6.78629
7.21224
7.67408
8.17078
8.70229
9.26931
9.8731
10.5154
11.1983
11.9243
12.696
13.5162
14.3881
15.3148
16.2995
17.3457
18.4567
19.6357
20.8862
22.2113
23.6142
25.0979
26.6654
28.3192
30.0621
31.8961
33.8234
35.8457
37.9643
40.1804
42.4945
44.9072
47.4183
50.0273
52.7335
55.5355
58.4318
61.4201
64.498
67.6626
70.9107
74.2386
77.6423
81.1175
84.6597
88.264
91.9254
95.6385
99.3968
103.195
107.026
110.886
114.768
118.666
122.575
126.489
130.402
134.309
138.203
142.074
145.903
149.685
153.413
157.083
160.689
164.225
167.686
171.068
174.364
177.572
180.688
183.706
186.626
189.44
192.143
194.735
197.213
199.574
201.815
203.936
205.933
207.806
209.552
211.171
212.661
214.022
215.253
216.353
217.322
218.158
218.863
219.437
219.88
220.193
220.376
220.43
220.357
220.157
219.831
219.382
218.811
218.119
217.309
216.382
215.341
214.189
212.927
211.558
210.085
208.511
206.84
205.073
203.215
201.268
199.237
197.125
194.936
192.673
190.341
187.942
185.482
182.965
180.394
177.773
175.107
172.4
169.657
166.88
164.075
161.245
158.394
155.527
152.647
149.759
146.866
143.972
141.08
138.195
135.319
132.456
129.607
126.777
123.967
121.18
118.418
115.684
112.98
110.308
107.67
105.067
102.501
99.9742
97.4876
95.0426
92.6409
90.2836
87.9722
85.7083
83.4933
81.3292
79.2178
77.1618
75.164
73.2281
71.3583
69.5596
67.8371
66.1958
64.6352
63.1601
24.5689
9.10103
6.33821
5.50755
5.24757
5.23611
5.36185
5.57655
5.85611
6.18738
6.56285
6.97829
7.43152
7.92179
8.4494
9.01543
9.62158
10.2701
10.9636
11.7053
12.4983
13.3463
14.253
15.2224
16.2584
17.3652
18.5469
19.8075
21.1509
22.5806
24.1004
25.7138
27.4239
29.234
31.1465
33.1639
35.2883
37.521
39.8635
42.3162
44.8797
47.5535
50.3372
53.2295
56.2289
59.3332
62.5399
65.846
69.248
72.7421
76.3241
79.9893
83.7329
87.5495
91.4337
95.3801
99.3831
103.438
107.533
111.664
115.825
120.009
124.21
128.423
132.641
136.858
141.068
145.265
149.443
153.574
157.654
161.675
165.631
169.518
173.329
177.058
180.702
184.254
187.711
191.067
194.319
197.463
200.496
203.412
206.21
208.885
211.435
213.858
216.152
218.314
220.344
222.239
223.998
225.62
227.104
228.45
229.656
230.722
231.649
232.435
233.081
233.588
233.955
234.185
234.277
234.233
234.054
233.741
233.295
232.719
232.015
231.184
230.228
229.15
227.952
226.637
225.207
223.666
222.016
220.261
218.404
216.449
214.398
212.257
210.027
207.714
205.322
202.854
200.315
197.709
195.04
192.312
189.531
186.7
183.823
180.906
177.953
174.967
171.954
168.917
165.861
162.79
159.709
156.62
153.529
150.439
147.353
144.277
141.212
138.162
135.131
132.12
129.133
126.173
123.241
120.34
117.473
114.641
111.847
109.091
106.377
103.705
101.076
98.4936
95.9575
93.4696
91.0313
88.644
86.3093
84.0289
81.805
79.6399
77.5363
75.4976
73.5276
71.6306
69.8107
68.0717
66.4122
64.8376
24.3761
9.00507
6.22548
5.3776
5.1013
5.07475
5.18692
5.3899
5.65989
5.98409
6.35534
6.7698
7.22575
7.72296
8.26227
8.84536
9.47445
10.1525
10.8828
11.6694
12.5162
13.4277
14.4086
15.4634
16.597
17.8143
19.1202
20.5198
22.0173
23.6153
25.3181
27.1295
29.0529
31.0912
33.2469
35.5219
37.9177
40.4351
43.0748
45.8363
48.7192
51.7222
54.8435
58.0809
61.4315
64.8921
68.4588
72.1276
75.8938
79.7524
83.698
87.7249
91.8274
95.9991
100.234
104.525
108.866
113.25
117.67
122.118
126.588
131.073
135.568
140.065
144.559
149.045
153.516
157.967
162.367
166.709
170.987
175.193
179.324
183.372
187.333
191.2
194.97
198.638
202.198
205.648
208.983
212.199
215.293
218.261
221.101
223.809
226.383
228.821
231.121
233.281
235.299
237.174
238.904
240.49
241.929
243.222
244.368
245.367
246.218
246.921
247.478
247.888
248.153
248.272
248.248
248.081
247.773
247.324
246.738
246.016
245.159
244.17
243.052
241.807
240.437
238.945
237.335
235.61
233.772
231.826
229.775
227.622
225.371
223.027
220.593
218.074
215.474
212.797
210.048
207.232
204.352
201.413
198.42
195.379
192.292
189.166
186.004
182.811
179.592
176.351
173.093
169.822
166.542
163.257
159.972
156.691
153.417
150.154
146.906
143.676
140.467
137.282
134.125
130.996
127.9
124.839
121.814
118.829
115.884
112.982
110.124
107.312
104.547
101.832
99.1662
96.5524
93.9916
91.4853
89.035
86.6424
84.3094
82.0384
79.8319
77.6931
75.6252
73.6321
71.7169
69.8827
68.1276
66.4575
23.7361
8.80469
6.06873
5.2247
4.9437
4.91094
5.01811
5.21879
5.49029
5.82071
6.20377
6.63649
7.11804
7.64918
8.23193
8.86922
9.56305
10.3176
11.1375
12.0274
12.9926
14.0384
15.1701
16.3931
17.713
19.1349
20.664
22.3051
24.0622
25.9391
27.9391
30.0652
32.3199
34.7051
37.2219
39.8712
42.6528
45.5662
48.6103
51.7831
55.0823
58.5051
62.0479
65.707
69.4778
73.3557
77.3354
81.4114
85.5779
89.8288
94.1576
98.5579
103.023
107.546
112.12
116.738
121.393
126.078
130.785
135.509
140.243
144.979
149.713
154.439
159.151
163.845
168.512
173.12
177.662
182.132
186.525
190.834
195.054
199.181
203.208
207.131
210.946
214.649
218.234
221.699
225.04
228.254
231.337
234.286
237.098
239.772
242.304
244.693
246.936
249.033
250.981
252.78
254.428
255.925
257.269
258.461
259.5
260.386
261.118
261.698
262.126
262.402
262.526
262.501
262.327
262.006
261.538
260.926
260.172
259.277
258.243
257.074
255.772
254.338
252.777
251.092
249.284
247.359
245.318
243.167
240.909
238.547
236.086
233.531
230.884
228.152
225.338
222.446
219.483
216.452
213.358
210.206
207
203.747
200.45
197.115
193.746
190.347
186.925
183.483
180.026
176.558
173.084
169.607
166.134
162.666
159.209
155.766
152.341
148.937
145.557
142.204
138.882
135.593
132.34
129.124
125.949
122.816
119.728
116.685
113.69
110.745
107.85
105.008
102.219
99.4848
96.807
94.1869
91.6258
89.1256
86.688
84.3152
82.0097
79.7741
77.6116
75.5253
73.5179
71.5918
69.7449
67.9837
22.8248
8.60702
5.92078
5.08855
4.81382
4.7883
4.90678
5.12497
5.42199
5.78758
6.21708
6.70909
7.26437
7.88518
8.57492
9.33771
10.1781
11.1013
12.113
13.219
14.4252
15.7376
17.1617
18.7031
20.3666
22.1569
24.0781
26.1333
28.3254
30.6563
33.1271
35.7386
38.4907
41.3826
44.4129
47.5796
50.8801
54.3112
57.8693
61.5502
65.3494
69.2619
73.2824
77.4056
81.6254
85.936
90.331
94.8041
99.3489
103.959
108.627
113.346
118.111
122.913
127.747
132.606
137.483
142.372
147.266
152.161
157.049
161.926
166.787
171.628
176.445
181.222
185.93
190.565
195.12
199.591
203.973
208.261
212.451
216.537
220.516
224.382
228.133
231.765
235.273
238.654
241.905
245.023
248.006
250.85
253.552
256.112
258.526
260.792
262.91
264.877
266.692
268.354
269.861
271.214
272.412
273.454
274.339
275.069
275.642
276.059
276.321
276.429
276.382
276.182
275.831
275.33
274.68
273.883
272.941
271.856
270.63
269.266
267.767
266.135
264.374
262.486
260.475
258.345
256.099
253.741
251.275
248.705
246.035
243.271
240.416
237.474
234.452
231.353
228.183
224.946
221.647
218.291
214.884
211.431
207.935
204.404
200.84
197.25
193.638
190.009
186.367
182.717
179.063
175.411
171.764
168.126
164.501
160.893
157.306
153.744
150.208
146.704
143.232
139.797
136.401
133.046
129.734
126.468
123.249
120.08
116.961
113.894
110.882
107.924
105.023
102.18
99.3957
96.6718
94.0097
91.411
88.8774
86.4109
84.0139
81.6887
79.4383
77.2651
75.1717
73.1599
71.2276
69.3821
21.7283
8.36468
5.78125
4.98408
4.73635
4.74188
4.90066
5.17193
5.53787
5.99117
6.53011
7.15619
7.87299
8.68545
9.59932
10.6209
11.7565
13.0125
14.3952
15.9102
17.5626
19.3569
21.2966
23.3843
25.6219
28.0101
30.5489
33.2373
36.0736
39.0552
42.179
45.4412
48.8377
52.3638
56.0145
59.7847
63.6689
67.6615
71.7566
75.9485
80.2313
84.5989
89.0455
93.565
98.1516
102.799
107.502
112.254
117.049
121.881
126.746
131.636
136.546
141.471
146.406
151.344
156.28
161.211
166.13
171.033
175.917
180.778
185.612
190.419
195.171
199.848
204.446
208.961
213.388
217.724
221.965
226.106
230.143
234.072
237.891
241.594
245.178
248.64
251.977
255.186
258.263
261.206
264.012
266.679
269.205
271.586
273.822
275.91
277.848