/*--------------------------------*- C++ -*----------------------------------*\
| =========                 |                                                 |
| \\      /  F ield         | OpenFOAM: The Open Source CFD Toolbox           |
|  \\    /   O peration     | Version:  2412                                  |
|   \\  /    A nd           | Website:  www.openfoam.com                      |
|    \\/     M anipulation  |                                                 |
\*---------------------------------------------------------------------------*/
FoamFile
{
    version     2.0;
    format      ascii;
    arch        "LSB;label=32;scalar=64";
    class       volScalarField;
    location    "0.26";
    object      k;
}
// * * * * * * * * * * * * * * * * * * * * * * * * * * * * * * * * * * * * * //

dimensions      [0 2 -2 0 0 0 0];

internalField   nonuniform List<scalar> 
12225
(
0.316793
0.394494
0.477907
0.542616
0.593833
0.63438
0.666734
0.69279
0.713892
0.731055
0.74506
0.756498
0.765824
0.773375
0.779411
0.784066
0.787452
0.790416
0.569139
0.788915
0.952583
1.068
1.1512
1.2127
1.25818
1.29171
1.31632
1.33413
1.34672
1.35527
1.36068
1.36365
1.36475
1.3643
1.36353
1.36145
0.670061
0.972155
1.18323
1.33202
1.43945
1.51861
1.57693
1.61969
1.65078
1.67303
1.68851
1.6988
1.70509
1.70832
1.70924
1.70845
1.70696
1.70494
0.722108
1.07674
1.32651
1.50447
1.63404
1.72972
1.80042
1.85243
1.89038
1.91767
1.93679
1.94967
1.95776
1.9622
1.96394
1.96375
1.96264
1.96117
0.74277
1.1292
1.41224
1.61818
1.77022
1.88337
1.96762
2.03016
2.07624
2.10979
2.13375
2.15033
2.16127
2.16791
2.17137
2.1726
2.17261
2.17208
0.739913
1.13776
1.44637
1.67819
1.85303
1.98504
2.08466
2.15963
2.21576
2.2574
2.28789
2.30975
2.32498
2.33514
2.34152
2.34521
2.34721
2.34818
0.719619
1.1088
1.43132
1.68401
1.88027
2.03176
2.14826
2.23764
2.30592
2.35778
2.39684
2.42591
2.44723
2.46256
2.47335
2.4808
2.48592
2.48928
0.68764
1.05045
1.37182
1.63646
1.84971
2.01922
2.1529
2.25789
2.34005
2.40409
2.45377
2.49209
2.52144
2.54379
2.56069
2.57344
2.58304
2.58997
0.648984
0.972373
1.2766
1.54078
1.76291
1.94589
2.09468
2.21482
2.31141
2.3888
2.45062
2.49988
2.53905
2.57016
2.59487
2.61453
2.63011
2.64196
0.607482
0.884082
1.15746
1.40738
1.62721
1.81568
1.97442
2.1067
2.21622
2.30652
2.38079
2.44178
2.49185
2.53299
2.56686
2.59478
2.61771
2.63582
0.565816
0.793314
1.02683
1.25028
1.45563
1.63912
1.7996
1.938
2.05627
2.15675
2.24182
2.31372
2.37448
2.42586
2.46938
2.5063
2.53744
2.56278
0.528744
0.712088
0.90517
1.09644
1.27865
1.44746
1.6004
1.73669
1.85679
1.96183
2.05324
2.13256
2.20132
2.26092
2.31263
2.35749
2.39618
2.42835
0.49465
0.637265
0.790573
0.946973
1.10074
1.248
1.38597
1.51298
1.6284
1.73232
1.82527
1.90804
1.98158
2.04681
2.10467
2.15592
2.20099
2.23924
0.460673
0.562139
0.673137
0.789665
0.907883
1.02492
1.13843
1.24664
1.34837
1.443
1.53033
1.61045
1.68363
1.75028
1.81086
1.86578
1.91519
1.95808
0.429343
0.492744
0.562792
0.638281
0.717337
0.798297
0.879664
0.960086
1.03846
1.11399
1.1861
1.25446
1.31889
1.37933
1.43582
1.48841
1.53695
1.58024
0.403167
0.435381
0.470972
0.510046
0.552179
0.596841
0.643455
0.69138
0.739968
0.788641
0.836903
0.884345
0.930642
0.975539
1.01884
1.06038
1.09987
1.13624
0.384082
0.394607
0.406479
0.419889
0.43484
0.451292
0.469183
0.488402
0.508789
0.530161
0.552322
0.575078
0.598236
0.621586
0.644945
0.668153
0.691002
0.712955
0.374047
0.373709
0.374088
0.375205
0.377035
0.379557
0.382759
0.386626
0.391136
0.396259
0.401962
0.408205
0.414943
0.422151
0.429787
0.437793
0.446103
0.454608
0.376607
0.378925
0.381991
0.385853
0.390487
0.395855
0.401925
0.40865
0.415972
0.423824
0.432137
0.44084
0.44986
0.459131
0.468587
0.478167
0.487796
0.497256
0.394948
0.417782
0.442961
0.470561
0.500304
0.531826
0.56474
0.598611
0.632993
0.667468
0.701669
0.735286
0.768066
0.799811
0.830373
0.859643
0.887497
0.913531
0.427772
0.489069
0.556235
0.628022
0.702592
0.778302
0.853721
0.92759
0.998899
1.06692
1.13118
1.19141
1.24749
1.29943
1.34733
1.39134
1.43162
1.4682
0.475742
0.594977
0.723616
0.85599
0.987211
1.11396
1.23384
1.34526
1.44738
1.54001
1.62333
1.69781
1.76406
1.82277
1.87463
1.92034
1.96051
1.99565
0.536848
0.728699
0.928633
1.12374
1.30644
1.47306
1.62185
1.75259
1.86614
1.96397
2.04774
2.11914
2.17976
2.23107
2.27436
2.31077
2.34128
2.36674
0.604143
0.873972
1.14017
1.3824
1.59449
1.77607
1.92886
2.05587
2.16066
2.24663
2.31682
2.37385
2.41996
2.45701
2.48656
2.50991
2.52811
2.54212
0.668316
1.00767
1.31643
1.57533
1.78711
1.95804
2.09449
2.20267
2.28802
2.355
2.40722
2.44758
2.47841
2.50158
2.51858
2.5306
2.53862
2.54351
0.717304
1.0992
1.41419
1.65889
1.84812
1.99399
2.10592
2.19146
2.2565
2.30558
2.34217
2.36896
2.38806
2.40109
2.40934
2.41381
2.41532
2.41459
0.735719
1.11862
1.40734
1.61983
1.77772
1.89573
1.98395
2.04967
2.09826
2.13377
2.15921
2.17688
2.18852
2.19548
2.19879
2.19926
2.19754
2.19421
0.7082
1.04716
1.29075
1.46557
1.59175
1.68427
1.75245
1.80244
1.83877
1.86478
1.88294
1.89507
1.90255
1.90645
1.90759
1.90658
1.90394
1.90013
0.616922
0.862574
1.0489
1.18265
1.27674
1.3449
1.39483
1.43126
1.45766
1.47655
1.48973
1.49854
1.50398
1.50683
1.50766
1.50696
1.50506
1.50238
0.33327
0.408788
0.496175
0.56409
0.616602
0.657436
0.689395
0.714702
0.734935
0.751222
0.764409
0.775143
0.783917
0.791115
0.797034
0.801915
0.805932
0.809263
0.00672383
0.0108501
0.0140464
0.0165912
0.0185765
0.0201974
0.0218862
0.023759
0.0257301
0.0278074
0.0300265
0.0324742
0.0354399
0.0390876
0.0431159
0.0474711
0.0521383
0.0571229
0.0624312
0.068063
0.0740102
0.0802577
0.0867863
0.0935747
0.100602
0.107851
0.115308
0.122968
0.130836
0.13893
0.147282
0.155841
0.164516
0.173286
0.182138
0.191062
0.200049
0.20909
0.21818
0.22731
0.236478
0.245677
0.254903
0.264152
0.273421
0.282704
0.291997
0.301297
0.310598
0.319897
0.329188
0.338465
0.347725
0.35696
0.366165
0.375334
0.384462
0.393541
0.402565
0.411527
0.420421
0.429241
0.437979
0.446629
0.455184
0.463637
0.471983
0.480215
0.488327
0.496315
0.504177
0.511913
0.519532
0.527049
0.534501
0.541832
0.548977
0.55594
0.562724
0.569327
0.575745
0.581973
0.588006
0.593841
0.599473
0.604897
0.610109
0.615106
0.619884
0.624439
0.628768
0.632869
0.636738
0.640374
0.643774
0.646936
0.649858
0.652539
0.654977
0.657171
0.65912
0.660823
0.66228
0.66349
0.664453
0.665169
0.665638
0.66586
0.665836
0.665566
0.665052
0.664294
0.663294
0.662053
0.660574
0.658857
0.656905
0.65472
0.652306
0.649664
0.646798
0.643711
0.640408
0.63689
0.633164
0.629232
0.6251
0.620772
0.616253
0.611549
0.606665
0.601606
0.596379
0.59099
0.585446
0.579751
0.573915
0.567944
0.56184
0.555627
0.549291
0.542871
0.536419
0.530231
0.525978
0.522388
0.51876
0.515046
0.511246
0.507362
0.503401
0.499368
0.495267
0.491105
0.486887
0.482619
0.478307
0.473955
0.46957
0.465158
0.460723
0.456272
0.451808
0.447338
0.442865
0.438394
0.433928
0.42947
0.425019
0.420577
0.416137
0.411694
0.40723
0.40272
0.398115
0.393322
0.388135
0.382036
0.374132
0.363475
0.0143985
0.0226591
0.0301998
0.0363894
0.0420054
0.0476341
0.0532444
0.0590277
0.0650997
0.0716087
0.0785869
0.0860118
0.0938501
0.102055
0.110567
0.119356
0.128411
0.137737
0.147346
0.157252
0.167468
0.178006
0.188879
0.200097
0.211666
0.223592
0.235875
0.248514
0.261502
0.274829
0.288479
0.302431
0.316665
0.331163
0.34591
0.360891
0.376093
0.391499
0.407099
0.422878
0.438827
0.454935
0.471193
0.48759
0.504119
0.52077
0.537535
0.554407
0.571375
0.588432
0.605568
0.622773
0.640037
0.657351
0.674703
0.692083
0.709478
0.726877
0.744268
0.761637
0.778974
0.796264
0.813494
0.830652
0.847725
0.864699
0.881563
0.898302
0.914904
0.931356
0.947647
0.963764
0.979693
0.995423
1.01087
1.02596
1.04077
1.05533
1.06962
1.08364
1.09738
1.11082
1.12396
1.13679
1.14929
1.16146
1.17328
1.18476
1.19586
1.2066
1.21697
1.22694
1.23652
1.24571
1.25448
1.26285
1.2708
1.27832
1.28542
1.29208
1.29831
1.30409
1.30943
1.31433
1.31877
1.32276
1.3263
1.32938
1.332
1.33416
1.33586
1.33709
1.33787
1.33818
1.33804
1.33743
1.33637
1.33485
1.33288
1.33045
1.32758
1.32426
1.3205
1.31631
1.31168
1.30663
1.30117
1.29528
1.289
1.28232
1.27524
1.26779
1.25996
1.25177
1.24324
1.23435
1.22514
1.21561
1.20576
1.19564
1.18519
1.17452
1.16368
1.15273
1.14193
1.1311
1.12012
1.10896
1.09763
1.08614
1.07451
1.06275
1.05088
1.0389
1.02683
1.01469
1.00248
0.99022
0.977922
0.965597
0.953257
0.940914
0.92858
0.916264
0.903977
0.891729
0.879528
0.867382
0.855297
0.843278
0.831325
0.819437
0.807608
0.795823
0.784054
0.772264
0.760349
0.748193
0.7343
0.719046
0.0213654
0.0360869
0.047484
0.0564191
0.0645333
0.0721259
0.0796682
0.0874793
0.0957308
0.104494
0.113762
0.123479
0.133581
0.14401
0.15473
0.16573
0.177024
0.188642
0.200622
0.213005
0.225831
0.23913
0.252929
0.267242
0.282076
0.297427
0.313284
0.329628
0.346433
0.363672
0.381312
0.399322
0.417672
0.436334
0.455284
0.474497
0.493954
0.513635
0.533523
0.553605
0.573867
0.594298
0.614887
0.635625
0.656503
0.677513
0.698645
0.719891
0.741241
0.762687
0.784219
0.805825
0.827495
0.849218
0.870981
0.892771
0.914575
0.936379
0.958169
0.97993
1.00165
1.0233
1.04489
1.06638
1.08776
1.10903
1.13015
1.15113
1.17193
1.19256
1.21299
1.23321
1.2532
1.27297
1.2924
1.31152
1.33031
1.34879
1.36694
1.38474
1.40219
1.41926
1.43595
1.45224
1.46812
1.48357
1.49858
1.51315
1.52725
1.54088
1.55403
1.56669
1.57884
1.59049
1.60161
1.61221
1.62228
1.63181
1.64078
1.64921
1.65708
1.66438
1.67112
1.67729
1.68288
1.6879
1.69233
1.69618
1.69944
1.70212
1.70421
1.70571
1.70663
1.70696
1.7067
1.70585
1.70442
1.70241
1.69983
1.69667
1.69294
1.68864
1.68378
1.67837
1.67242
1.66592
1.65889
1.65134
1.64327
1.6347
1.62564
1.61609
1.60607
1.59558
1.58466
1.5733
1.56152
1.54934
1.53672
1.52382
1.51057
1.49702
1.48322
1.46921
1.45512
1.44088
1.42645
1.41181
1.39696
1.38192
1.3667
1.35133
1.33581
1.32017
1.30442
1.28859
1.27267
1.2567
1.24068
1.22464
1.20858
1.19253
1.17649
1.16049
1.14452
1.12862
1.11278
1.09702
1.08135
1.06577
1.05031
1.03495
1.0197
1.00456
0.989536
0.974621
0.959806
0.945132
0.930147
0.914614
0.0275558
0.0502875
0.0649749
0.0761556
0.0856964
0.094634
0.1035
0.112608
0.122133
0.132147
0.142651
0.153607
0.164965
0.176692
0.188774
0.201223
0.214071
0.227361
0.241141
0.255455
0.270341
0.285823
0.301917
0.318625
0.335938
0.353837
0.372298
0.391289
0.410777
0.430725
0.451098
0.471863
0.492988
0.514445
0.536209
0.558257
0.580569
0.603128
0.625919
0.648929
0.672145
0.695559
0.719159
0.742937
0.766883
0.790991
0.815249
0.83965
0.864183
0.888839
0.913605
0.938471
0.963423
0.988449
1.01353
1.03866
1.06382
1.089
1.11416
1.13931
1.16442
1.18947
1.21444
1.23932
1.26409
1.28872
1.31321
1.33753
1.36166
1.38559
1.4093
1.43277
1.456
1.47893
1.50152
1.52375
1.54563
1.56714
1.58825
1.60897
1.62926
1.64912
1.66852
1.68746
1.70591
1.72385
1.74129
1.75819
1.77455
1.79036
1.80559
1.82025
1.83432
1.84779
1.86064
1.87288
1.88449
1.89546
1.9058
1.91548
1.92451
1.93287
1.94057
1.9476
1.95396
1.95964
1.96464
1.96896
1.97259
1.97554
1.9778
1.97937
1.98025
1.98046
1.97997
1.97881
1.97696
1.97444
1.97124
1.96738
1.96286
1.95768
1.95184
1.94537
1.93826
1.93052
1.92217
1.91321
1.90366
1.89352
1.88281
1.87154
1.85973
1.84737
1.83452
1.82115
1.8073
1.79303
1.77832
1.76323
1.74775
1.73191
1.71577
1.69936
1.68276
1.66595
1.6489
1.63162
1.61411
1.59639
1.57847
1.56038
1.54213
1.52374
1.50523
1.48663
1.46795
1.4492
1.43041
1.4116
1.39278
1.37397
1.35518
1.33644
1.31776
1.29914
1.28062
1.2622
1.24389
1.22571
1.20768
1.18979
1.17207
1.15453
1.13719
1.1201
1.1033
1.08695
1.07096
1.05533
0.0326188
0.0634181
0.0811438
0.0939612
0.104821
0.114863
0.124684
0.134635
0.144923
0.155649
0.166849
0.178521
0.190652
0.203233
0.216272
0.229794
0.243835
0.258436
0.273638
0.289475
0.305971
0.323138
0.340978
0.359481
0.378629
0.398395
0.418752
0.439664
0.461097
0.483017
0.505392
0.528188
0.55138
0.574939
0.598845
0.623076
0.647614
0.672445
0.697553
0.722928
0.748556
0.774429
0.800536
0.826869
0.853417
0.880171
0.907122
0.934258
0.961569
0.989043
1.01667
1.04443
1.07231
1.10029
1.12837
1.15652
1.18472
1.21295
1.2412
1.26945
1.29766
1.32583
1.35393
1.38193
1.40982
1.43758
1.46517
1.49258
1.5198
1.54678
1.57353
1.60001
1.62621
1.65206
1.67753
1.70262
1.7273
1.75155
1.77537
1.79872
1.82159
1.84397
1.86582
1.88714
1.90791
1.9281
1.94771
1.9667
1.98508
2.00282
2.01992
2.03635
2.05211
2.06719
2.08157
2.09524
2.1082
2.12043
2.13193
2.1427
2.15272
2.16199
2.1705
2.17825
2.18524
2.19146
2.1969
2.20158
2.20548
2.2086
2.21095
2.21252
2.21332
2.21334
2.2126
2.21108
2.2088
2.20575
2.20195
2.1974
2.19211
2.18607
2.17931
2.17183
2.16363
2.15474
2.14515
2.13488
2.12395
2.11237
2.10014
2.0873
2.07386
2.05979
2.04519
2.03006
2.0144
1.99826
1.98164
1.96458
1.94709
1.92921
1.91098
1.89243
1.87361
1.85453
1.83518
1.81558
1.79573
1.77566
1.75537
1.73489
1.71425
1.69346
1.67254
1.65153
1.63043
1.60927
1.58808
1.56686
1.54564
1.52443
1.50327
1.48216
1.46113
1.44018
1.41935
1.39863
1.37807
1.35766
1.33742
1.31739
1.29757
1.278
1.25873
1.23982
1.22138
1.20361
1.18656
1.1704
0.0369499
0.0744579
0.0946703
0.109135
0.121214
0.132201
0.142775
0.153337
0.164136
0.175317
0.186959
0.199101
0.211762
0.22496
0.238715
0.253058
0.26802
0.283634
0.299929
0.316926
0.334637
0.353063
0.372199
0.392028
0.41253
0.433677
0.455441
0.477792
0.500698
0.52413
0.548059
0.572457
0.597301
0.622567
0.648236
0.67429
0.700713
0.72749
0.754608
0.782055
0.809819
0.837892
0.866261
0.894917
0.923848
0.953046
0.982497
1.01219
1.04211
1.07224
1.10258
1.1331
1.16378
1.19461
1.22556
1.25662
1.28777
1.31898
1.35023
1.38149
1.41274
1.44395
1.4751
1.50616
1.53711
1.56792
1.59856
1.629
1.65923
1.68921
1.71892
1.74834
1.77743
1.80613
1.83441
1.86225
1.88964
1.91656
1.94298
1.96888
1.99424
2.01903
2.04325
2.06685
2.08984
2.11217
2.13385
2.15484
2.17514
2.19472
2.21358
2.23169
2.24905
2.26563
2.28144
2.29646
2.31067
2.32408
2.33667
2.34843
2.35936
2.36945
2.37869
2.38709
2.39464
2.40133
2.40716
2.41213
2.41625
2.4195
2.42188
2.42341
2.42408
2.42389
2.42284
2.42095
2.41821
2.41462
2.41021
2.40496
2.39889
2.39201
2.38433
2.37585
2.36659
2.35656
2.34577
2.33423
2.32198
2.309
2.2953
2.28096
2.26596
2.25033
2.23409
2.21727
2.19989
2.18197
2.16353
2.14461
2.12523
2.10542
2.08521
2.06464
2.04375
2.02256
2.00108
1.97931
1.95729
1.93502
1.91253
1.88984
1.86698
1.84396
1.82082
1.79757
1.77424
1.75086
1.72744
1.704
1.68057
1.65717
1.63382
1.61053
1.58734
1.56426
1.54131
1.5185
1.49587
1.47342
1.4512
1.42921
1.40749
1.3861
1.36508
1.34454
1.3246
1.30547
1.28727
1.27017
0.0433077
0.0834813
0.10562
0.121431
0.134535
0.146324
0.157529
0.168593
0.179799
0.191333
0.20331
0.215806
0.228868
0.242533
0.256831
0.271794
0.287447
0.303816
0.32092
0.338769
0.357369
0.376715
0.396796
0.417598
0.4391
0.461278
0.484109
0.507565
0.531622
0.556256
0.581441
0.607156
0.633382
0.660097
0.687286
0.714933
0.743023
0.771543
0.800481
0.829824
0.859561
0.889681
0.920174
0.951026
0.982227
1.01376
1.04562
1.07779
1.11025
1.14298
1.17597
1.2092
1.24264
1.27628
1.31009
1.34405
1.37813
1.4123
1.44654
1.48081
1.51509
1.54935
1.58356
1.61768
1.65169
1.68555
1.71924
1.75272
1.78596
1.81893
1.8516
1.88394
1.91591
1.94744
1.9785
2.00909
2.03916
2.06871
2.0977
2.12611
2.15392
2.18109
2.20762
2.23347
2.25863
2.28306
2.30676
2.3297
2.35186
2.37323
2.39379
2.41352
2.43242
2.45046
2.46764
2.48394
2.49936
2.51388
2.5275
2.5402
2.55198
2.56284
2.57277
2.58176
2.58981
2.59693
2.6031
2.60832
2.6126
2.61593
2.61832
2.61976
2.62026
2.61983
2.61846
2.61616
2.61293
2.60879
2.60374
2.59778
2.59093
2.58319
2.57458
2.5651
2.55478
2.54363
2.53165
2.51884
2.50528
2.49095
2.47586
2.46007
2.44357
2.42639
2.40855
2.39009
2.37103
2.35139
2.33119
2.31047
2.28926
2.26758
2.24546
2.22295
2.20008
2.17688
2.15335
2.12953
2.10543
2.08107
2.05648
2.03169
2.00672
1.98159
1.95633
1.93096
1.90552
1.88002
1.8545
1.82896
1.80344
1.77796
1.75255
1.72722
1.70199
1.67689
1.65195
1.62717
1.6026
1.57825
1.55415
1.53033
1.50685
1.48374
1.46109
1.43901
1.41764
1.39716
1.3777
1.3594
0.0489785
0.0903627
0.113914
0.130775
0.144712
0.157178
0.168934
0.180446
0.192022
0.203873
0.216145
0.228938
0.242321
0.256347
0.271053
0.28647
0.302624
0.319533
0.337211
0.355663
0.374891
0.394891
0.415651
0.437159
0.459399
0.482353
0.506001
0.530323
0.5553
0.580914
0.607145
0.633977
0.661394
0.689379
0.71792
0.747002
0.776613
0.80674
0.837372
0.868498
0.900105
0.932182
0.964716
0.997695
1.0311
1.06493
1.09915
1.13376
1.16873
1.20405
1.23968
1.27562
1.31183
1.34828
1.38496
1.42183
1.45885
1.49601
1.53326
1.57057
1.60791
1.64524
1.68253
1.71973
1.75682
1.79376
1.83051
1.86703
1.9033
1.93927
1.97491
2.01019
2.04502
2.07937
2.11322
2.14652
2.17927
2.21142
2.24296
2.27386
2.30408
2.33361
2.36242
2.39047
2.41776
2.44425
2.46993
2.49476
2.51874
2.54185
2.56406
2.58537
2.60575
2.6252
2.6437
2.66123
2.6778
2.69338
2.70797
2.72156
2.73415
2.74572
2.75628
2.76582
2.77433
2.78182
2.78829
2.79372
2.79812
2.8015
2.80384
2.80517
2.80547
2.80476
2.80303
2.8003
2.79657
2.79184
2.78613
2.77944
2.77179
2.76319
2.75364
2.74315
2.73177
2.7195
2.70634
2.69232
2.67748
2.66181
2.64535
2.62812
2.61014
2.59144
2.57205
2.55198
2.53127
2.50994
2.48802
2.46555
2.44255
2.41905
2.39509
2.3707
2.34591
2.32076
2.29527
2.26946
2.24337
2.217
2.1904
2.16358
2.13658
2.10942
2.08213
2.05474
2.02727
1.99975
1.97221
1.94467
1.91716
1.88969
1.86231
1.83502
1.80785
1.78084
1.75399
1.72735
1.70093
1.67476
1.64888
1.62333
1.59816
1.57343
1.54923
1.52566
1.50288
1.48105
1.46027
1.44062
0.0537174
0.0951874
0.119683
0.137313
0.151898
0.164923
0.177159
0.189079
0.201004
0.213158
0.225703
0.238758
0.252406
0.266709
0.281713
0.297452
0.31395
0.331225
0.349289
0.368148
0.387803
0.408252
0.429488
0.451504
0.474287
0.497827
0.52211
0.547123
0.572854
0.59929
0.626417
0.654224
0.682699
0.71183
0.741606
0.772017
0.803052
0.8347
0.866949
0.899788
0.933206
0.967189
1.00172
1.0368
1.07239
1.10848
1.14507
1.18211
1.2196
1.2575
1.2958
1.33445
1.37345
1.41275
1.45231
1.49212
1.53212
1.57229
1.61258
1.65295
1.69337
1.73379
1.77418
1.81448
1.85466
1.89469
1.93451
1.97408
2.01337
2.05234
2.09094
2.12913
2.16682
2.20397
2.24057
2.27657
2.31194
2.34667
2.38072
2.41405
2.44665
2.47848
2.50951
2.53972
2.56908
2.59757
2.62516
2.65183
2.67757
2.70235
2.72615
2.74896
2.77077
2.79155
2.81131
2.83001
2.84766
2.86425
2.87975
2.89417
2.9075
2.91974
2.93087
2.9409
2.94982
2.95764
2.96434
2.96994
2.97442
2.97779
2.98006
2.98123
2.98129
2.98027
2.97815
2.97496
2.97069
2.96536
2.95897
2.95153
2.94307
2.93359
2.92311
2.91164
2.89921
2.88582
2.87151
2.85628
2.84017
2.82319
2.80536
2.78672
2.76729
2.7471
2.72616
2.70452
2.6822
2.65922
2.63563
2.61144
2.5867
2.56143
2.53567
2.50946
2.48282
2.4558
2.42841
2.40069
2.37267
2.34437
2.31583
2.28707
2.25812
2.22901
2.19977
2.17043
2.14102
2.11157
2.08209
2.05263
2.02321
1.99384
1.96457
1.93541
1.90639
1.87754
1.84888
1.82044
1.79226
1.76436
1.73678
1.70958
1.6828
1.65651
1.6308
1.60579
1.58162
1.55843
1.53628
1.51523
0.0575116
0.0981675
0.123196
0.141338
0.156396
0.169859
0.182497
0.194779
0.207024
0.21946
0.232258
0.245541
0.259405
0.273917
0.289131
0.305083
0.321802
0.339308
0.357614
0.37673
0.396661
0.417408
0.438972
0.461349
0.484536
0.508528
0.533319
0.558903
0.585274
0.612425
0.64035
0.669041
0.698491
0.728693
0.759639
0.79132
0.823728
0.856853
0.890685
0.925211
0.960419
0.996296
1.03283
1.06999
1.10777
1.14615
1.1851
1.22461
1.26463
1.30515
1.34613
1.38754
1.42934
1.47151
1.51399
1.55676
1.59976
1.64295
1.6863
1.72974
1.77325
1.81676
1.86024
1.90363
1.9469
1.98999
2.03285
2.07545
2.11773
2.15966
2.20119
2.24222
2.28271
2.3226
2.36188
2.4005
2.43844
2.47566
2.51214
2.54783
2.58272
2.61676
2.64993
2.6822
2.71355
2.74394
2.77336
2.80178
2.82917
2.85553
2.88084
2.90507
2.92821
2.95024
2.97117
2.99096
3.00962
3.02712
3.04346
3.05864
3.07264
3.08546
3.0971
3.10755
3.11682
3.1249
3.1318
3.1375
3.14201
3.14533
3.14748
3.14844
3.14824
3.14686
3.14432
3.14064
3.13581
3.12986
3.12278
3.1146
3.10532
3.09497
3.08356
3.07111
3.05763
3.04315
3.02769
3.01126
2.9939
2.97563
2.95647
2.93645
2.91559
2.89393
2.8715
2.84832
2.82443
2.79985
2.77463
2.74878
2.72235
2.69537
2.66788
2.6399
2.61148
2.58265
2.55344
2.52389
2.49403
2.46388
2.43347
2.40285
2.37203
2.34106
2.30996
2.27876
2.24749
2.21618
2.18487
2.15357
2.12232
2.09114
2.06006
2.02912
1.99833
1.96773
1.93734
1.90719
1.87733
1.84777
1.81858
1.78979
1.76146
1.73367
1.70652
1.6801
1.65456
1.63001
1.60648
1.58402
0.060392
0.099555
0.124773
0.143205
0.158573
0.172355
0.185309
0.197891
0.210414
0.223099
0.236117
0.249593
0.263627
0.278292
0.293646
0.30973
0.326579
0.344216
0.362662
0.38193
0.402031
0.422975
0.444767
0.467412
0.490915
0.515278
0.540504
0.566592
0.593544
0.62136
0.650038
0.679576
0.709973
0.741224
0.773325
0.806269
0.84005
0.874658
0.910084
0.946315
0.983337
1.02114
1.05969
1.09898
1.13899
1.17969
1.22105
1.26305
1.30565
1.34881
1.39251
1.4367
1.48135
1.5264
1.57181
1.61754
1.66354
1.70976
1.75614
1.80264
1.8492
1.89577
1.9423
1.98873
2.03501
2.0811
2.12694
2.17248
2.21767
2.26246
2.30681
2.35058
2.39375
2.43626
2.4781
2.51923
2.5596
2.59919
2.63796
2.67588
2.71292
2.74904
2.78422
2.81842
2.85162
2.88378
2.91489
2.94492
2.97385
3.00166
3.02834
3.05386
3.07821
3.10138
3.12336
3.14413
3.16369
3.18201
3.19909
3.21492
3.2295
3.24282
3.25488
3.26568
3.27522
3.2835
3.29052
3.29626
3.30074
3.30396
3.30593
3.30665
3.30613
3.30438
3.3014
3.29721
3.29181
3.28522
3.27744
3.26851
3.25842
3.2472
3.23487
3.22144
3.20693
3.19138
3.17479
3.15719
3.13861
3.11907
3.09861
3.07724
3.05501
3.03193
3.00804
2.98338
2.95797
2.93185
2.90506
2.87762
2.84957
2.82094
2.79178
2.76212
2.732
2.70145
2.67051
2.63921
2.60759
2.57568
2.54351
2.51111
2.47853
2.44578
2.41291
2.37995
2.34692
2.31386
2.28079
2.24775
2.21477
2.18188
2.1491
2.11646
2.08399
2.05173
2.0197
1.98793
1.95647
1.92534
1.89461
1.86431
1.83451
1.80528
1.77673
1.74895
1.72205
1.69616
1.67126
1.64741
0.0624042
0.0996027
0.124739
0.143278
0.158814
0.172801
0.18598
0.198792
0.211536
0.224426
0.237624
0.251256
0.26542
0.280194
0.295638
0.311801
0.328721
0.346431
0.364956
0.384318
0.404536
0.425626
0.447603
0.470482
0.494272
0.518987
0.544635
0.571224
0.598763
0.627257
0.65671
0.687126
0.718506
0.75085
0.784156
0.818419
0.853634
0.889791
0.92688
0.964887
1.0038
1.04359
1.08424
1.12574
1.16804
1.21112
1.25495
1.2995
1.34472
1.39057
1.43701
1.484
1.53149
1.57942
1.62775
1.67643
1.72539
1.77458
1.82395
1.87342
1.92296
1.97248
2.02195
2.07131
2.12048
2.16944
2.2181
2.26644
2.31439
2.3619
2.40885
2.45518
2.50083
2.54579
2.59
2.63342
2.67604
2.71779
2.75866
2.79861
2.8376
2.87561
2.9126
2.94854
2.98339
3.01714
3.04975
3.08121
3.1115
3.14059
3.16847
3.19512
3.22053
3.24469
3.26757
3.28918
3.3095
3.32852
3.34621
3.36258
3.37762
3.39134
3.40372
3.41477
3.42449
3.43287
3.43993
3.44565
3.45004
3.4531
3.45485
3.45529
3.45442
3.45226
3.44881
3.44409
3.4381
3.43087
3.4224
3.41271
3.40181
3.38973
3.37649
3.3621
3.34659
3.32998
3.31229
3.29356
3.2738
3.25304
3.23132
3.20867
3.1851
3.16067
3.1354
3.10931
3.08246
3.05487
3.02658
2.99762
2.96803
2.93785
2.90712
2.87587
2.84414
2.81197
2.77939
2.74645
2.71318
2.67962
2.64579
2.61173
2.57749
2.54308
2.50855
2.47393
2.43925
2.40455
2.36984
2.33518
2.30057
2.26607
2.23169
2.19746
2.16342
2.1296
2.09603
2.06274
2.02977
1.99717
1.96497
1.93325
1.90205
1.87146
1.84156
1.81246
1.78426
1.75704
1.7308
1.7056
0.0635952
0.0985447
0.123396
0.1419
0.157486
0.171577
0.184895
0.197864
0.21077
0.223814
0.237153
0.250907
0.265173
0.280031
0.295544
0.311766
0.328743
0.346514
0.365112
0.384569
0.404912
0.426167
0.448358
0.471507
0.495634
0.52076
0.546901
0.574074
0.602292
0.631565
0.661903
0.693314
0.725802
0.759368
0.794014
0.829734
0.866522
0.904368
0.943259
0.983178
1.02411
1.06602
1.10889
1.15269
1.19738
1.24294
1.28931
1.33646
1.38434
1.4329
1.4821
1.53188
1.58218
1.63296
1.68414
1.73568
1.78751
1.83956
1.89178
1.94408
1.99642
2.04873
2.10095
2.15301
2.20487
2.25646
2.30772
2.35861
2.40907
2.459
2.50829
2.55689
2.60476
2.65187
2.69817
2.74362
2.78818
2.83182
2.87451
2.9162
2.95688
2.9965
3.03505
3.07248
3.10874
3.14382
3.17769
3.21035
3.24176
3.27191
3.30078
3.32836
3.35462
3.37957
3.40317
3.42543
3.44634
3.46588
3.48403
3.5008
3.51618
3.53017
3.54276
3.55396
3.56376
3.57217
3.57919
3.58481
3.58905
3.5919
3.59338
3.59349
3.59224
3.58964
3.58569
3.58042
3.57384
3.56595
3.55678
3.54634
3.53465
3.52173
3.5076
3.49228
3.4758
3.45817
3.43944
3.41961
3.39872
3.37681
3.35389
3.33001
3.3052
3.27948
3.2529
3.22548
3.19727
3.16831
3.13861
3.10824
3.07722
3.04559
3.01339
2.98065
2.94743
2.91376
2.87967
2.84521
2.81042
2.77532
2.73996
2.70437
2.66859
2.63266
2.5966
2.56045
2.52425
2.48802
2.45181
2.41563
2.37954
2.34354
2.30768
2.27199
2.23649
2.20123
2.16622
2.13152
2.09716
2.06318
2.02963
1.99656
1.96405
1.93217
1.90101
1.87065
1.84118
1.8127
1.78516
1.75866
0.0640059
0.0965878
0.12101
0.139375
0.154922
0.169037
0.18242
0.195483
0.208497
0.221656
0.235108
0.248969
0.263334
0.278285
0.293888
0.310203
0.327282
0.345171
0.363914
0.38355
0.404117
0.42565
0.448182
0.471745
0.496368
0.52208
0.548904
0.576865
0.605978
0.636257
0.667713
0.700357
0.734195
0.76923
0.805461
0.842881
0.881481
0.921247
0.962161
1.0042
1.04734
1.09155
1.1368
1.18304
1.23025
1.27836
1.32734
1.37714
1.42769
1.47896
1.53087
1.58336
1.63639
1.68987
1.74376
1.79798
1.85248
1.9072
1.96202
2.0169
2.07176
2.12655
2.1812
2.23565
2.28985
2.34373
2.39723
2.45031
2.5029
2.55483
2.60606
2.65654
2.70624
2.7551
2.8031
2.85019
2.89632
2.94147
2.98561
3.02868
3.07068
3.11155
3.15128
3.18984
3.22717
3.26328
3.29812
3.33168
3.36394
3.39489
3.42449
3.45275
3.47964
3.50515
3.52927
3.55199
3.57329
3.59317
3.61162
3.62864
3.6442
3.65833
3.67101
3.68224
3.69202
3.70035
3.70724
3.71269
3.7167
3.71928
3.72043
3.72016
3.71849
3.71542
3.71096
3.70512
3.69793
3.6894
3.67953
3.66835
3.65589
3.64215
3.62717
3.61096
3.59355
3.57496
3.55523
3.53438
3.51244
3.48944
3.46541
3.44039
3.41441
3.38751
3.35972
3.33108
3.30162
3.27138
3.24041
3.20874
3.17641
3.14345
3.10991
3.07584
3.04126
3.00622
2.97077
2.93493
2.89875
2.86227
2.82553
2.78855
2.75139
2.71406
2.67662
2.63909
2.60152
2.56392
2.52634
2.4888
2.45135
2.41401
2.37681
2.33978
2.30297
2.26639
2.23008
2.19409
2.15845
2.12321
2.08841
2.05412
2.02039
1.98731
1.95495
1.92341
1.89275
1.86306
1.8343
1.80655
0.0636709
0.0939051
0.117805
0.135965
0.151415
0.1655
0.1789
0.192016
0.205111
0.218372
0.231942
0.245935
0.260447
0.275561
0.29135
0.307878
0.325203
0.343378
0.362456
0.382486
0.403515
0.425589
0.448748
0.473032
0.498478
0.525123
0.552997
0.582135
0.612554
0.644245
0.677227
0.711513
0.747108
0.78401
0.822215
0.86171
0.902478
0.944499
0.987746
1.03219
1.07779
1.12451
1.17231
1.22114
1.27095
1.32168
1.37328
1.4257
1.47886
1.53271
1.58719
1.64222
1.69773
1.75367
1.80997
1.86654
1.92334
1.98027
2.03728
2.09429
2.15122
2.20803
2.26464
2.32099
2.37703
2.4327
2.48795
2.54271
2.59682
2.65022
2.70286
2.75471
2.80571
2.85582
2.90501
2.95323
3.00046
3.04664
3.09176
3.13576
3.17864
3.22034
3.26085
3.30014
3.33817
3.37492
3.41037
3.44449
3.47728
3.5087
3.53874
3.56739
3.59463
3.62045
3.64484
3.66778
3.68927
3.70929
3.72785
3.74492
3.76051
3.77462
3.78724
3.79837
3.80801
3.81616
3.82282
3.82801
3.83172
3.83395
3.83472
3.83403
3.8319
3.82833
3.82334
3.81693
3.80913
3.79995
3.78941
3.77752
3.76431
3.7498
3.73401
3.71696
3.69869
3.67921
3.65856
3.63677
3.61386
3.58987
3.56483
3.53878
3.51175
3.48378
3.4549
3.42515
3.39458
3.36322
3.3311
3.29827
3.26478
3.23065
3.19593
3.16067
3.12489
3.08866
3.05199
3.01495
2.97755
2.93986
2.9019
2.8637
2.82532
2.78678
2.74813
2.70939
2.6706
2.6318
2.59301
2.55428
2.51563
2.4771
2.43872
2.40052
2.36253
2.32478
2.28732
2.25018
2.2134
2.17702
2.1411
2.1057
2.07087
2.03669
2.00323
1.97059
1.93883
1.90801
1.8781
1.8492
0.0625507
0.0904942
0.113824
0.131752
0.147088
0.161127
0.174538
0.187715
0.200918
0.214332
0.228101
0.242341
0.257154
0.272627
0.288847
0.30589
0.323795
0.342632
0.362464
0.383351
0.405347
0.428505
0.452872
0.478493
0.505407
0.533651
0.563255
0.594243
0.626632
0.660426
0.695632
0.73225
0.770275
0.809693
0.850489
0.892637
0.936109
0.980871
1.02688
1.0741
1.12248
1.17197
1.22251
1.27405
1.32652
1.37987
1.43403
1.48894
1.54453
1.60073
1.65747
1.71469
1.77232
1.83028
1.8885
1.94693
2.00548
2.06409
2.1227
2.18122
2.23961
2.29779
2.35571
2.4133
2.47053
2.52733
2.58364
2.63928
2.69422
2.74839
2.80177
2.85429
2.90593
2.95664
3.00639
3.05513
3.10283
3.14946
3.19498
3.23936
3.28258
3.3246
3.36539
3.40492
3.44318
3.48013
3.51576
3.55004
3.58295
3.61447
3.64459
3.67329
3.70056
3.72638
3.75074
3.77364
3.79505
3.81497
3.83339
3.85031
3.86573
3.87962
3.89201
3.90287
3.91222
3.92006
3.92637
3.93118
3.93449
3.93629
3.9366
3.93542
3.93277
3.92866
3.92309
3.91609
3.90766
3.89783
3.88661
3.87402
3.86009
3.84483
3.82827
3.81043
3.79134
3.77103
3.74953
3.72686
3.70306
3.67817
3.65221
3.62523
3.59725
3.56832
3.53847
3.50775
3.47618
3.44382
3.4107
3.37686
3.34234
3.30719
3.27144
3.23514
3.19832
3.16104
3.12333
3.08524
3.04679
3.00805
2.96903
2.92979
2.89035
2.85077
2.81106
2.77128
2.73144
2.6916
2.65177
2.612
2.57232
2.53275
2.49334
2.45411
2.4151
2.37633
2.33785
2.2997
2.26191
2.22452
2.1876
2.15119
2.11537
2.08019
2.04573
2.01208
1.97929
1.94743
1.91646
1.88649
0.0609411
0.0868476
0.109626
0.127348
0.142591
0.156619
0.170094
0.183415
0.196846
0.210581
0.224771
0.239541
0.255001
0.271247
0.288369
0.306447
0.325552
0.345754
0.367119
0.389711
0.413586
0.438795
0.465383
0.493389
0.522845
0.553775
0.586195
0.620115
0.655535
0.692446
0.730836
0.770682
0.811961
0.854639
0.898679
0.944039
0.990673
1.03853
1.08756
1.1377
1.1889
1.24109
1.29421
1.34821
1.40301
1.45855
1.51476
1.57158
1.62895
1.68679
1.74504
1.80364
1.86252
1.92161
1.98086
2.04019
2.09955
2.15886
2.21808
2.27713
2.33597
2.39453
2.45277
2.51064
2.56808
2.62501
2.68129
2.73685
2.79168
2.84572
2.89893
2.95127
3.0027
3.05319
3.1027
3.1512
3.19864
3.24501
3.29026
3.33436
3.37729
3.41902
3.45952
3.49876
3.53672
3.57338
3.60871
3.64268
3.6753
3.70652
3.73634
3.76473
3.79169
3.8172
3.84125
3.86382
3.8849
3.90448
3.92257
3.93914
3.95419
3.96772
3.97972
3.9902
3.99915
4.00657
4.01246
4.01682
4.01967
4.021
4.02083
4.01915
4.01599
4.01135