/*--------------------------------*- C++ -*----------------------------------*\
| =========                 |                                                 |
| \\      /  F ield         | OpenFOAM: The Open Source CFD Toolbox           |
|  \\    /   O peration     | Version:  2412                                  |
|   \\  /    A nd           | Website:  www.openfoam.com                      |
|    \\/     M anipulation  |                                                 |
\*---------------------------------------------------------------------------*/
FoamFile
{
    version     2.0;
    format      ascii;
    arch        "LSB;label=32;scalar=64";
    class       volScalarField;
    location    "0.26";
    object      nut;
}
// * * * * * * * * * * * * * * * * * * * * * * * * * * * * * * * * * * * * * //

dimensions      [0 2 -1 0 0 0 0];

internalField   nonuniform List<scalar> 
12225
(
2.015e-05
2.24858e-05
2.47491e-05
2.63715e-05
2.7588e-05
2.85143e-05
2.92324e-05
2.97981e-05
3.02485e-05
3.061e-05
3.09018e-05
3.11381e-05
3.13294e-05
3.14835e-05
3.16061e-05
3.17004e-05
3.17688e-05
3.18285e-05
0.000167792
0.000185428
0.000202597
0.000213787
0.000221146
0.000225984
0.000229002
0.00023072
0.000231514
0.000231644
0.000231292
0.000230594
0.00022965
0.000228531
0.000227295
0.00022597
0.000224708
0.000224072
0.000338328
0.000365994
0.000399362
0.000424407
0.00044278
0.000456139
0.000465649
0.000472249
0.000476658
0.00047941
0.000480906
0.000481448
0.000481265
0.00048053
0.000479377
0.000477904
0.000476299
0.000475461
0.000480632
0.000521771
0.000570122
0.000608391
0.000637803
0.00066021
0.000677099
0.000689692
0.000698953
0.000705626
0.00071028
0.00071336
0.000715207
0.000716087
0.000716209
0.00071574
0.00071491
0.000714431
0.00059357
0.000650967
0.00071349
0.000763785
0.000803284
0.000834123
0.000858089
0.00087663
0.000890896
0.000901784
0.000909998
0.000916089
0.00092049
0.000923547
0.000925532
0.000926671
0.000927218
0.000927685
0.000684418
0.000756656
0.000831951
0.000893054
0.000941626
0.000980104
0.00101056
0.00103466
0.0010537
0.0010687
0.00108048
0.00108967
0.00109677
0.00110221
0.0011063
0.00110932
0.00111153
0.0011133
0.000759757
0.00084284
0.000928292
0.000998648
0.00105522
0.00110054
0.00113687
0.00116606
0.00118953
0.00120842
0.00122362
0.00123583
0.00124563
0.00125348
0.00125974
0.00126473
0.0012687
0.00127194
0.000823625
0.000913365
0.00100525
0.00108261
0.00114578
0.00119702
0.00123857
0.00127237
0.00129992
0.00132243
0.00134086
0.00135597
0.00136839
0.00137861
0.00138703
0.00139399
0.00139973
0.00140448
0.000877003
0.000970916
0.0010653
0.00114672
0.00121456
0.00127046
0.0013164
0.00135421
0.00138542
0.00141126
0.00143271
0.00145058
0.00146551
0.00147804
0.00148859
0.0014975
0.00150499
0.00151123
0.000918258
0.00101593
0.00110995
0.00119241
0.00126253
0.0013214
0.00137055
0.00141157
0.00144587
0.00147463
0.00149882
0.00151925
0.00153658
0.00155133
0.00156395
0.00157477
0.001584
0.00159171
0.000944751
0.00104624
0.0011388
0.00122006
0.00129015
0.00135004
0.0014009
0.00144402
0.0014806
0.0015117
0.00153822
0.00156093
0.00158044
0.00159729
0.00161189
0.00162457
0.00163549
0.00164465
0.000953929
0.00105647
0.00114713
0.00122621
0.00129479
0.00135413
0.00140528
0.00144929
0.00148719
0.00151986
0.00154809
0.00157257
0.00159388
0.00161249
0.00162881
0.00164312
0.00165555
0.00166601
0.000951545
0.0010519
0.00114069
0.00121791
0.00128482
0.0013429
0.00139336
0.00143724
0.00147545
0.00150878
0.00153794
0.00156353
0.00158605
0.00160596
0.0016236
0.00163923
0.00165292
0.00166447
0.000937266
0.00102693
0.00110961
0.00118333
0.00124793
0.00130433
0.00135362
0.00139676
0.00143463
0.001468
0.00149751
0.00152369
0.00154702
0.00156787
0.00158655
0.00160329
0.00161811
0.00163062
0.000914065
0.000982516
0.00105
0.00111401
0.00117277
0.00122566
0.0012728
0.00131462
0.00135169
0.00138461
0.00141396
0.00144023
0.00146383
0.00148514
0.00150441
0.00152185
0.00153745
0.00155067
0.000888181
0.000929364
0.000972527
0.00101672
0.00106056
0.0011029
0.00114291
0.00118011
0.00121428
0.00124543
0.00127374
0.00129945
0.00132281
0.00134407
0.00136347
0.00138116
0.00139713
0.00141081
0.000866165
0.000882903
0.000901456
0.000921824
0.00094371
0.000966717
0.000990418
0.00101437
0.00103813
0.00106136
0.00108377
0.00110518
0.00112548
0.00114459
0.00116249
0.0011792
0.00119465
0.00120841
0.000853647
0.000856463
0.000860483
0.000865723
0.000872136
0.000879656
0.000888213
0.000897719
0.000908059
0.000919104
0.000930715
0.000942751
0.000955074
0.000967563
0.000980094
0.000992551
0.00100481
0.00101666
0.000856837
0.00086304
0.000870433
0.000879025
0.000888701
0.000899307
0.000910677
0.000922624
0.000934956
0.000947484
0.000960044
0.000972495
0.000984725
0.00099665
0.00100821
0.00101937
0.00103006
0.00104006
0.000879014
0.000910093
0.000943006
0.0009771
0.00101138
0.00104494
0.00107708
0.00110731
0.00113536
0.00116111
0.00118459
0.0012059
0.0012252
0.00124266
0.00125845
0.00127274
0.00128565
0.00129725
0.000912428
0.000978633
0.00104329
0.00110415
0.00115969
0.00120945
0.00125358
0.00129251
0.00132677
0.0013569
0.00138345
0.00140686
0.00142755
0.00144588
0.00146213
0.00147658
0.00148943
0.00150098
0.000944652
0.00103937
0.00112415
0.00119816
0.00126209
0.00131726
0.00136492
0.0014061
0.00144172
0.00147255
0.00149929
0.00152252
0.00154273
0.00156034
0.00157572
0.00158915
0.00160091
0.00161125
0.000952969
0.00105495
0.00114494
0.00122286
0.00128968
0.00134681
0.00139548
0.00143685
0.001472
0.0015019
0.00152736
0.00154908
0.00156764
0.00158352
0.00159712
0.00160878
0.00161878
0.00162735
0.000919762
0.00101577
0.00110711
0.00118655
0.00125366
0.00130983
0.00135663
0.00139556
0.001428
0.00145508
0.00147772
0.00149669
0.0015126
0.00152595
0.00153716
0.00154657
0.00155445
0.00156098
0.000847919
0.000936212
0.00102591
0.00110193
0.0011644
0.00121544
0.00125709
0.00129112
0.00131899
0.00134186
0.00136065
0.00137609
0.00138878
0.00139919
0.00140773
0.00141469
0.00142033
0.00142481
0.00074824
0.000825344
0.000905836
0.000972006
0.00102523
0.00106796
0.00110226
0.00112982
0.00115199
0.00116982
0.00118414
0.00119563
0.00120479
0.00121206
0.00121778
0.00122223
0.00122561
0.00122806
0.000620838
0.000679397
0.000743804
0.000795902
0.000837071
0.000869522
0.000895045
0.000915071
0.000930738
0.000942939
0.000952376
0.000959599
0.000965046
0.000969063
0.000971925
0.000973855
0.000975025
0.000975553
0.000453206
0.00049108
0.000536513
0.000572228
0.000599359
0.000619976
0.000635559
0.000647219
0.000655838
0.000662098
0.000666518
0.000669499
0.000671353
0.000672324
0.000672601
0.000672335
0.000671645
0.000670628
0.00023657
0.00025923
0.000284033
0.000301436
0.000313162
0.000321243
0.000326756
0.000330375
0.000332602
0.000333804
0.000334243
0.000334113
0.000333558
0.000332689
0.000331589
0.000330323
0.000328939
0.000327501
2.7242e-05
3.0171e-05
3.32397e-05
3.54417e-05
3.70547e-05
3.8262e-05
3.91809e-05
3.98936e-05
4.04543e-05
4.09001e-05
4.12575e-05
4.15462e-05
4.17807e-05
4.1972e-05
4.21288e-05
4.22576e-05
4.23633e-05
4.24507e-05
4.86332e-06
1.31919e-05
1.50038e-05
1.62997e-05
1.72401e-05
1.79687e-05
1.86963e-05
1.9471e-05
2.02534e-05
2.10454e-05
2.18589e-05
2.27217e-05
2.37248e-05
2.49039e-05
2.61433e-05
2.74189e-05
2.87214e-05
3.00485e-05
3.13984e-05
3.2768e-05
3.41527e-05
3.55473e-05
3.69462e-05
3.83445e-05
3.97379e-05
4.11234e-05
4.24992e-05
4.38651e-05
4.52227e-05
4.65755e-05
4.79291e-05
4.92753e-05
5.06003e-05
5.19027e-05
5.31821e-05
5.44386e-05
5.56725e-05
5.6884e-05
5.80735e-05
5.92416e-05
6.03887e-05
6.15154e-05
6.26223e-05
6.37097e-05
6.47781e-05
6.5828e-05
6.68597e-05
6.78735e-05
6.88697e-05
6.98484e-05
7.08099e-05
7.17543e-05
7.26816e-05
7.35919e-05
7.44852e-05
7.53615e-05
7.62207e-05
7.70628e-05
7.78877e-05
7.86953e-05
7.94856e-05
8.02583e-05
8.10134e-05
8.17508e-05
8.24703e-05
8.31718e-05
8.38552e-05
8.45205e-05
8.51676e-05
8.57965e-05
8.64075e-05
8.7001e-05
8.75781e-05
8.81404e-05
8.86913e-05
8.92266e-05
8.97409e-05
9.02352e-05
9.07101e-05
9.11656e-05
9.16019e-05
9.20189e-05
9.24166e-05
9.27949e-05
9.31538e-05
9.34932e-05
9.38131e-05
9.41135e-05
9.43942e-05
9.46555e-05
9.48971e-05
9.51192e-05
9.53217e-05
9.55047e-05
9.56682e-05
9.58122e-05
9.59369e-05
9.60421e-05
9.6128e-05
9.61947e-05
9.62422e-05
9.62705e-05
9.62798e-05
9.627e-05
9.62414e-05
9.6194e-05
9.61278e-05
9.60429e-05
9.59395e-05
9.58176e-05
9.56774e-05
9.5519e-05
9.53424e-05
9.51478e-05
9.49353e-05
9.47051e-05
9.44572e-05
9.41919e-05
9.39094e-05
9.36097e-05
9.3293e-05
9.29596e-05
9.26096e-05
9.22432e-05
9.18608e-05
9.14624e-05
9.10483e-05
9.06188e-05
9.01742e-05
8.97148e-05
8.92407e-05
8.87524e-05
8.82502e-05
8.77343e-05
8.72052e-05
8.66631e-05
8.61086e-05
8.5542e-05
8.49632e-05
8.43741e-05
8.37733e-05
8.31639e-05
8.25495e-05
8.1953e-05
8.15042e-05
8.11057e-05
8.07031e-05
8.02928e-05
7.98746e-05
7.94488e-05
7.90158e-05
7.85758e-05
7.81292e-05
7.76766e-05
7.72182e-05
7.67545e-05
7.62859e-05
7.58128e-05
7.53356e-05
7.48547e-05
7.43706e-05
7.38836e-05
7.33941e-05
7.29026e-05
7.24094e-05
7.19147e-05
7.14189e-05
7.09221e-05
7.04245e-05
6.99259e-05
6.9426e-05
6.89242e-05
6.84191e-05
6.79084e-05
6.7388e-05
6.68499e-05
6.62763e-05
6.56221e-05
6.48088e-05
6.37489e-05
7.11719e-06
3.17178e-05
6.30059e-05
8.76362e-05
0.000105085
0.00011752
0.000125467
0.000130661
0.000134921
0.000139058
0.000143262
0.000147456
0.000151517
0.000155446
0.000159368
0.00016338
0.000167568
0.00017201
0.000176775
0.00018192
0.000187488
0.000193508
0.000199995
0.000206952
0.000214366
0.000222218
0.000230477
0.000239105
0.000248059
0.000257295
0.000266777
0.000276479
0.000286381
0.000296458
0.00030668
0.000317021
0.000327458
0.000337968
0.000348534
0.00035914
0.000369773
0.000380424
0.000391082
0.000401742
0.000412398
0.000423046
0.000433681
0.0004443
0.000454901
0.000465479
0.000476032
0.000486558
0.000497051
0.000507509
0.000517929
0.000528304
0.000538632
0.000548908
0.000559126
0.000569282
0.00057937
0.000589386
0.000599324
0.000609179
0.000618945
0.000628618
0.000638191
0.000647657
0.000657009
0.000666235
0.00067532
0.00068424
0.000692962
0.000701435
0.000709447
0.000716966
0.000724288
0.00073146
0.00073849
0.000745377
0.00075212
0.000758716
0.000765162
0.000771458
0.000777599
0.000783584
0.000789411
0.000795078
0.000800583
0.000805925
0.000811102
0.000816112
0.000820954
0.000825627
0.00083013
0.000834462
0.000838622
0.000842609
0.000846422
0.000850061
0.000853526
0.000856815
0.000859928
0.000862865
0.000865625
0.000868208
0.000870614
0.000872842
0.000874893
0.000876765
0.000878459
0.000879975
0.000881312
0.000882471
0.000883452
0.000884254
0.000884879
0.000885325
0.000885594
0.000885685
0.0008856
0.000885339
0.000884902
0.000884291
0.000883506
0.000882548
0.000881419
0.00088012
0.000878652
0.000877017
0.000875217
0.000873254
0.000871129
0.000868845
0.000866406
0.000863813
0.000861069
0.00085818
0.000855139
0.000851967
0.000848659
0.000845184
0.000841471
0.00083722
0.000831514
0.00082498
0.000818135
0.00081112
0.000803981
0.000796741
0.00078941
0.000781998
0.000774514
0.000766963
0.000759352
0.000751687
0.000743974
0.000736219
0.000728428
0.000720605
0.000712757
0.000704888
0.000697003
0.000689108
0.000681207
0.000673304
0.000665403
0.000657508
0.000649621
0.000641744
0.000633878
0.00062602
0.000618165
0.000610303
0.000602412
0.000594454
0.000586328
0.000577774
0.000565214
0.000541738
8.66999e-06
5.08112e-05
0.000104012
0.000145033
0.000174181
0.000193855
0.000207232
0.000216903
0.00022474
0.000231892
0.000238948
0.000246158
0.000253623
0.000261416
0.000269631
0.000278369
0.000287738
0.000297844
0.000308781
0.000320626
0.000333434
0.000347231
0.000362021
0.000377782
0.00039447
0.000412023
0.000430367
0.000449418
0.00046909
0.0004893
0.000509968
0.000531023
0.000552403
0.000574046
0.000595897
0.000617909
0.000640041
0.000662257
0.000684529
0.000706835
0.000729155
0.000751474
0.000773782
0.000796068
0.000818325
0.000840546
0.000862726
0.000884858
0.000906937
0.000928958
0.000950913
0.000972797
0.000994601
0.00101632
0.00103794
0.00105945
0.00108085
0.00110212
0.00112325
0.00114424
0.00116506
0.00118571
0.00120618
0.00122644
0.00124649
0.00126631
0.00128589
0.0013052
0.00132423
0.00134294
0.00136133
0.00137934
0.00139694
0.00141408
0.00143055
0.00144654
0.00146218
0.00147749
0.00149249
0.00150719
0.00152157
0.00153563
0.00154937
0.00156278
0.00157585
0.00158859
0.00160099
0.00161304
0.00162473
0.00163608
0.00164706
0.00165768
0.00166794
0.00167783
0.00168735
0.0016965
0.00170528
0.00171368
0.0017217
0.00172935
0.00173661
0.00174349
0.00175
0.00175611
0.00176185
0.0017672
0.00177216
0.00177674
0.00178093
0.00178474
0.00178816
0.00179119
0.00179383
0.00179609
0.00179796
0.00179945
0.00180054
0.00180126
0.00180159
0.00180153
0.00180109
0.00180027
0.00179908
0.0017975
0.00179555
0.00179323
0.00179054
0.00178748
0.00178406
0.00178029
0.00177615
0.00177167
0.00176684
0.00176167
0.00175618
0.00175035
0.00174421
0.00173777
0.00173102
0.00172397
0.00171664
0.00170894
0.00170075
0.00169175
0.00168134
0.00166985
0.00165774
0.00164523
0.00163241
0.00161934
0.00160604
0.00159254
0.00157885
0.001565
0.001551
0.00153685
0.00152257
0.00150818
0.00149368
0.00147909
0.00146442
0.00144968
0.00143488
0.00142003
0.00140515
0.00139023
0.0013753
0.00136035
0.00134539
0.00133043
0.00131546
0.00130048
0.00128549
0.00127043
0.00125528
0.0012399
0.00122404
0.00120699
0.00118538
0.00114825
9.84639e-06
6.96513e-05
0.000138327
0.000190696
0.000227762
0.00025379
0.00027244
0.000286583
0.000298307
0.000309011
0.000319544
0.000330382
0.000341788
0.000353928
0.000366931
0.000380914
0.000395989
0.000412256
0.000429795
0.000448659
0.000468873
0.000490429
0.000513289
0.00053739
0.000562648
0.000588963
0.000616228
0.000644329
0.000673158
0.000702609
0.000732585
0.000762997
0.000793767
0.000824825
0.000856109
0.000887566
0.000919153
0.000950831
0.000982571
0.00101435
0.00104614
0.00107793
0.0011097
0.00114145
0.00117316
0.00120483
0.00123643
0.00126797
0.00129943
0.00133081
0.00136209
0.00139326
0.00142431
0.00145522
0.00148599
0.00151659
0.00154701
0.00157724
0.00160725
0.00163704
0.00166657
0.00169584
0.00172482
0.0017535
0.00178185
0.00180985
0.00183748
0.00186472
0.00189154
0.00191791
0.00194381
0.00196921
0.00199408
0.00201834
0.00204194
0.00206499
0.00208756
0.00210968
0.00213136
0.00215259
0.00217337
0.00219369
0.00221356
0.00223295
0.00225187
0.0022703
0.00228824
0.00230569
0.00232264
0.00233908
0.00235501
0.00237042
0.00238531
0.00239968
0.00241352
0.00242683
0.00243961
0.00245184
0.00246354
0.0024747
0.00248531
0.00249537
0.00250489
0.00251385
0.00252227
0.00253013
0.00253744
0.0025442
0.0025504
0.00255605
0.00256113
0.00256566
0.00256964
0.00257305
0.00257591
0.00257821
0.00257995
0.00258114
0.00258177
0.00258185
0.00258138
0.00258035
0.00257878
0.00257666
0.002574
0.0025708
0.00256707
0.0025628
0.00255801
0.0025527
0.00254688
0.00254055
0.00253372
0.00252639
0.00251859
0.00251032
0.00250159
0.00249242
0.0024828
0.00247274
0.00246222
0.00245119
0.00243953
0.00242702
0.00241334
0.00239862
0.00238313
0.00236706
0.00235053
0.0023336
0.00231632
0.00229872
0.00228082
0.00226266
0.00224424
0.00222559
0.00220673
0.00218767
0.00216843
0.00214903
0.00212949
0.00210981
0.00209002
0.00207014
0.00205017
0.00203013
0.00201003
0.00198989
0.00196971
0.00194951
0.00192928
0.00190901
0.0018887
0.0018683
0.00184774
0.00182687
0.00180534
0.00178225
0.00175472
0.00171475
1.0713e-05
8.50369e-05
0.000166612
0.000228565
0.000273392
0.000305749
0.000329679
0.00034834
0.000364067
0.000378483
0.00039265
0.000407225
0.00042261
0.000439055
0.000456729
0.000475761
0.000496249
0.000518265
0.000541854
0.00056703
0.000593773
0.000622037
0.000651748
0.000682811
0.000715115
0.000748543
0.000782972
0.00081828
0.000854349
0.000891071
0.000928345
0.000966079
0.00100419
0.00104261
0.00108128
0.00112014
0.00115914
0.00119825
0.00123743
0.00127666
0.00131591
0.00135517
0.0013944
0.00143361
0.00147277
0.00151187
0.00155089
0.00158983
0.00162866
0.00166738
0.00170596
0.0017444
0.00178267
0.00182076
0.00185865
0.00189632
0.00193375
0.00197092
0.00200781
0.00204439
0.00208066
0.00211657
0.00215211
0.00218726
0.002222
0.00225629
0.00229012
0.00232347
0.00235629
0.00238859
0.00242032
0.00245147
0.00248203
0.00251186
0.00254103
0.0025696
0.0025976
0.00262506
0.00265197
0.00267835
0.00270417
0.00272945
0.00275416
0.0027783
0.00280186
0.00282484
0.00284722
0.002869
0.00289018
0.00291074
0.00293068
0.00294999
0.00296867
0.00298672
0.00300412
0.00302088
0.00303699
0.00305244
0.00306724
0.00308137
0.00309484
0.00310765
0.00311978
0.00313125
0.00314204
0.00315216
0.0031616
0.00317036
0.00317844
0.00318583
0.00319255
0.00319858
0.00320392
0.00320858
0.00321255
0.00321584
0.00321844
0.00322035
0.00322159
0.00322213
0.003222
0.00322118
0.00321969
0.00321752
0.00321468
0.00321117
0.00320699
0.00320216
0.00319668
0.00319055
0.00318378
0.00317638
0.00316836
0.00315973
0.0031505
0.00314068
0.00313028
0.00311932
0.00310779
0.00309569
0.00308303
0.00306974
0.00305575
0.00304093
0.0030251
0.00300831
0.0029907
0.00297242
0.00295355
0.00293418
0.00291434
0.00289408
0.00287343
0.00285242
0.00283107
0.0028094
0.00278744
0.00276521
0.00274272
0.00272001
0.00269709
0.00267397
0.00265069
0.00262725
0.00260369
0.00258001
0.00255623
0.00253237
0.00250844
0.00248446
0.00246043
0.00243635
0.0024122
0.00238796
0.00236354
0.0023388
0.00231335
0.00228637
0.00225562
0.00221657
1.14017e-05
9.64985e-05
0.00018867
0.000259786
0.000312303
0.000351108
0.000380501
0.000403876
0.000423782
0.000442046
0.000459914
0.000478206
0.000497441
0.000517947
0.000539931
0.000563526
0.000588816
0.000615842
0.000644613
0.000675106
0.000707269
0.000741024
0.000776275
0.00081291
0.000850807
0.000889843
0.000929891
0.000970829
0.00101254
0.00105492
0.00109787
0.0011413
0.00118512
0.00122927
0.00127369
0.00131831
0.00136309
0.001408
0.00145298
0.00149802
0.00154309
0.00158816
0.0016332
0.00167821
0.00172315
0.00176801
0.00181278
0.00185744
0.00190197
0.00194634
0.00199055
0.00203457
0.00207838
0.00212197
0.0021653
0.00220837
0.00225114
0.0022936
0.00233572
0.00237748
0.00241885
0.00245981
0.00250034
0.00254041
0.00257999
0.00261907
0.00265762
0.00269561
0.00273303
0.00276985
0.00280606
0.00284162
0.00287654
0.00291069
0.00294416
0.00297699
0.00300919
0.00304078
0.00307178
0.00310216
0.00313193
0.00316108
0.00318961
0.0032175
0.00324474
0.00327132
0.00329725
0.0033225
0.00334707
0.00337095
0.00339414
0.00341663
0.00343841
0.00345948
0.00347983
0.00349945
0.00351834
0.0035365
0.00355392
0.00357059
0.00358652
0.00360169
0.00361611
0.00362977
0.00364267
0.00365481
0.00366618
0.00367679
0.00368662
0.00369567
0.00370395
0.00371146
0.00371819
0.00372414
0.0037293
0.00373369
0.00373729
0.00374012
0.00374216
0.00374342
0.00374391
0.00374361
0.00374254
0.0037407
0.00373808
0.0037347
0.00373056
0.00372567
0.00372002
0.00371363
0.00370651
0.00369866
0.00369009
0.00368081
0.00367084
0.00366018
0.00364885
0.00363686
0.00362421
0.0036109
0.00359693
0.00358227
0.00356687
0.00355064
0.0035335
0.00351547
0.00349661
0.00347701
0.00345676
0.00343592
0.00341453
0.00339264
0.00337027
0.00334746
0.00332423
0.00330062
0.00327664
0.00325233
0.00322769
0.00320277
0.00317757
0.00315213
0.00312646
0.00310059
0.00307454
0.00304833
0.00302198
0.00299552
0.00296896
0.00294231
0.0029156
0.00288882
0.00286197
0.00283503
0.00280794
0.00278055
0.00275254
0.00272321
0.00269095
0.00265348
1.23437e-05
0.000101944
0.000203737
0.000284045
0.000344396
0.000389829
0.000424887
0.00045318
0.000477442
0.000499672
0.000521276
0.000543207
0.000566092
0.000590329
0.000616162
0.000643737
0.000673125
0.00070435
0.000737396
0.000772214
0.000808731
0.000846855
0.000886475
0.000927475
0.00096973
0.00101312
0.00105751
0.0011028
0.00114886
0.00119559
0.00124291
0.00129071
0.00133893
0.00138748
0.00143632
0.00148537
0.0015346
0.00158395
0.00163339
0.00168288
0.0017324
0.00178191
0.00183139
0.00188082
0.00193017
0.00197942
0.00202855
0.00207755
0.00212638
0.00217504
0.0022235
0.00227173
0.00231972
0.00236745
0.00241489
0.00246202
0.00250882
0.00255526
0.00260132
0.00264698
0.0026922
0.00273697
0.00278126
0.00282505
0.00286831
0.00291102
0.00295316
0.0029947
0.00303563
0.00307593
0.00311557
0.00315453
0.00319279
0.0032303
0.0032671
0.00330323
0.00333872
0.00337355
0.00340775
0.0034413
0.0034742
0.00350644
0.00353801
0.0035689
0.0035991
0.00362861
0.00365741
0.00368549
0.00371284
0.00373946
0.00376534
0.00379046
0.00381483
0.00383843
0.00386126
0.00388331
0.00390458
0.00392505
0.00394473
0.00396361
0.00398168
0.00399893
0.00401538
0.004031
0.0040458
0.00405978
0.00407292
0.00408523
0.0040967
0.00410734
0.00411713
0.00412607
0.00413418
0.00414143
0.00414784
0.00415339
0.00415809
0.00416194
0.00416493
0.00416708
0.00416837
0.00416881
0.0041684
0.00416715
0.00416505
0.00416211
0.00415834
0.00415375
0.00414832
0.00414207
0.00413501
0.00412715
0.0041185
0.00410906
0.00409886
0.0040879
0.00407619
0.00406375
0.00405057
0.00403667
0.00402204
0.00400666
0.00399051
0.00397355
0.00395572
0.00393703
0.00391752
0.00389725
0.00387628
0.00385465
0.00383241
0.0038096
0.00378625
0.00376239
0.00373806
0.00371327
0.00368806
0.00366245
0.00363647
0.00361013
0.00358348
0.00355652
0.00352929
0.00350181
0.0034741
0.0034462
0.00341812
0.00338988
0.00336152
0.00333305
0.00330449
0.00327586
0.00324717
0.0032184
0.00318952
0.00316041
0.00313082
0.00310019
0.00306741
0.00303126
1.31272e-05
0.000104606
0.000213747
0.000302192
0.000369961
0.000421912
0.000462671
0.000495976
0.000524692
0.000550945
0.000576265
0.000601717
0.000628016
0.000655626
0.000684832
0.000715798
0.000748601
0.000783256
0.000819737
0.000857985
0.000897917
0.000939433
0.000982421
0.00102676
0.00107234
0.00111903
0.00116671
0.00121528
0.00126461
0.00131462
0.00136521
0.0014163
0.0014678
0.00151964
0.00157177
0.00162413
0.00167666
0.00172932
0.00178206
0.00183485
0.00188767
0.00194046
0.00199322
0.00204591
0.00209851
0.00215099
0.00220334
0.00225552
0.00230753
0.00235934
0.00241092
0.00246227
0.00251334
0.00256413
0.00261461
0.00266475
0.00271454
0.00276395
0.00281295
0.00286152
0.00290963
0.00295727
0.00300441
0.00305102
0.00309708
0.00314256
0.00318745
0.00323173
0.00327537
0.00331835
0.00336066
0.0034023
0.00344316
0.0034833
0.00352274
0.0035615
0.00359961
0.00363705
0.00367383
0.00370995
0.0037454
0.00378017
0.00381425
0.00384762
0.00388029
0.00391223
0.00394343
0.00397389
0.0040036
0.00403254
0.00406071
0.00408809
0.00411468
0.00414048
0.00416546
0.00418963
0.00421298
0.0042355
0.00425718
0.00427802
0.004298
0.00431714
0.00433541
0.00435283
0.00436937
0.00438505
0.00439985
0.00441376
0.00442679
0.00443893
0.00445018
0.00446054
0.00447
0.00447856
0.00448623
0.00449298
0.00449883
0.00450378
0.00450782
0.00451096
0.00451318
0.0045145
0.00451492
0.00451445
0.00451306
0.00451078
0.0045076
0.00450354
0.00449859
0.00449277
0.00448608
0.00447853
0.00447014
0.00446091
0.00445085
0.00443997
0.00442829
0.00441581
0.00440255
0.0043885
0.00437368
0.00435807
0.00434167
0.00432444
0.00430638
0.00428747
0.00426775
0.00424724
0.00422601
0.00420407
0.00418148
0.00415826
0.00413446
0.00411009
0.0040852
0.0040598
0.00403392
0.0040076
0.00398085
0.0039537
0.00392618
0.00389832
0.00387013
0.00384165
0.00381291
0.00378393
0.00375473
0.00372536
0.00369582
0.00366616
0.00363639
0.00360655
0.00357666
0.00354671
0.0035167
0.00348655
0.00345606
0.00342483
0.00339209
0.00335714
1.37477e-05
0.000105299
0.000219637
0.000314902
0.000389389
0.000447514
0.000493828
0.000532096
0.00056525
0.000595496
0.00062445
0.00065326
0.000682716
0.000713343
0.000745467
0.000779279
0.000814871
0.000852267
0.000891441
0.000932335
0.000974865
0.00101893
0.00106443
0.00111124
0.00115925
0.00120835
0.00125841
0.00130933
0.00136101
0.00141336
0.00146627
0.00151968
0.0015735
0.00162766
0.0016821
0.00173676
0.00179159
0.00184655
0.00190159
0.00195668
0.00201177
0.00206685
0.00212187
0.00217683
0.00223168
0.00228641
0.002341
0.00239542
0.00244965
0.00250368
0.00255748
0.00261103
0.0026643
0.00271729
0.00276997
0.0028223
0.00287428
0.00292587
0.00297705
0.0030278
0.00307809
0.0031279
0.0031772
0.00322597
0.00327419
0.00332182
0.00336886
0.00341528
0.00346105
0.00350616
0.0035506
0.00359433
0.00363732
0.00367961
0.00372121
0.00376215
0.00380242
0.00384204
0.003881
0.00391929
0.0039569
0.00399382
0.00403004
0.00406555
0.00410034
0.00413439
0.00416769
0.00420023
0.004232
0.00426299
0.00429318
0.00432256
0.00435114
0.00437889
0.00440581
0.00443189
0.00445712
0.0044815
0.004505
0.00452764
0.00454939
0.00457026
0.00459023
0.00460932
0.0046275
0.00464478
0.00466114
0.00467659
0.00469112
0.00470471
0.00471738
0.00472912
0.00473993
0.00474981
0.00475873
0.00476671
0.00477375
0.00477984
0.004785
0.0047892
0.00479244
0.00479474
0.00479608
0.00479649
0.00479595
0.00479447
0.00479205
0.00478871
0.00478444
0.00477925
0.00477315
0.00476615
0.00475826
0.00474949
0.00473984
0.00472933
0.00471797
0.00470577
0.00469274
0.00467889
0.00466422
0.00464873
0.00463243
0.00461529
0.00459732
0.00457851
0.0045589
0.00453849
0.00451732
0.00449542
0.00447283
0.00444959
0.00442571
0.00440122
0.00437617
0.00435056
0.00432444
0.00429783
0.00427074
0.00424322
0.00421528
0.00418696
0.00415827
0.00412926
0.00409994
0.00407035
0.00404051
0.00401046
0.00398023
0.00394985
0.00391936
0.00388879
0.00385817
0.00382753
0.00379688
0.00376617
0.00373528
0.0037039
0.00367151
0.00363767
1.42251e-05
0.000104471
0.000222067
0.000322782
0.000403141
0.000466934
0.000518501
0.000561549
0.00059901
0.000633126
0.000665563
0.000697529
0.000729871
0.000763165
0.000797782
0.000833945
0.000871768
0.000911292
0.000952504
0.000995353
0.00103976
0.00108564
0.00113289
0.0011814
0.00123105
0.00128174
0.00133337
0.00138582
0.001439
0.00149282
0.00154719
0.00160204
0.00165728
0.00171285
0.00176869
0.00182475
0.00188097
0.00193731
0.00199373
0.0020502
0.00210667
0.00216313
0.00221954
0.00227588
0.00233213
0.00238826
0.00244426
0.00250011
0.00255578
0.00261127
0.00266653
0.00272157
0.00277636
0.00283087
0.00288509
0.00293899
0.00299255
0.00304574
0.00309855
0.00315094
0.00320288
0.00325436
0.00330535
0.00335582
0.00340574
0.00345509
0.00350385
0.003552
0.00359951
0.00364637
0.00369255
0.00373803
0.00378282
0.00382693
0.00387039
0.0039132
0.00395537
0.00399689
0.00403775
0.00407795
0.00411748
0.00415632
0.00419446
0.00423189
0.00426859
0.00430454
0.00433974
0.00437417
0.00440781
0.00444067
0.00447271
0.00450393
0.00453433
0.00456389
0.0045926
0.00462045
0.00464744
0.00467355
0.00469877
0.00472309
0.0047465
0.00476901
0.0047906
0.00481127
0.00483102
0.00484983
0.00486772
0.00488465
0.00490062
0.00491564
0.00492971
0.00494281
0.00495496
0.00496615
0.00497635
0.00498557
0.00499381
0.00500107
0.00500736
0.00501267
0.00501699
0.00502033
0.0050227
0.00502408
0.00502449
0.00502393
0.0050224
0.00501991
0.00501646
0.00501206
0.00500671
0.00500043
0.00499322
0.00498509
0.00497606
0.00496613
0.00495531
0.00494362
0.00493107
0.00491765
0.00490339
0.00488829
0.00487234
0.00485556
0.00483794
0.00481948
0.0048002
0.00478013
0.00475928
0.00473768
0.00471536
0.00469236
0.00466868
0.00464437
0.00461946
0.00459395
0.0045679
0.00454131
0.00451422
0.00448665
0.00445863
0.00443019
0.00440136
0.00437215
0.00434261
0.00431277
0.00428265
0.00425229
0.00422172
0.00419099
0.00416014
0.00412921
0.00409823
0.00406727
0.00403633
0.00400541
0.00397444
0.0039432
0.00391131
0.00387849
1.45771e-05
0.000102478
0.000221614
0.000326424
0.000411725
0.000480567
0.000536967
0.000584493
0.000626026
0.000663802
0.000699507
0.000734383
0.00076932
0.000804936
0.000841641
0.000879693
0.000919235
0.00096033
0.00100298
0.00104715
0.00109278
0.00113979
0.00118807
0.00123754
0.00128809
0.00133961
0.00139201
0.00144519
0.00149905
0.00155352
0.0016085
0.00166393
0.00171973
0.00177584
0.00183222
0.0018888
0.00194554
0.0020024
0.00205935
0.00211635
0.00217338
0.00223041
0.00228742
0.00234439
0.00240129
0.00245811
0.00251484
0.00257145
0.00262793
0.00268425
0.00274041
0.00279639
0.00285215
0.00290769
0.00296298
0.00301799
0.00307271
0.0031271
0.00318114
0.0032348
0.00328806
0.00334088
0.00339323
0.0034451
0.00349644
0.00354723
0.00359744
0.00364706
0.00369605
0.00374441
0.0037921
0.00383913
0.00388551
0.00393127
0.00397641
0.00402093
0.00406482
0.00410809
0.00415071
0.00419267
0.00423398
0.0042746
0.00431452
0.00435374
0.00439222
0.00442996
0.00446693
0.00450313
0.00453854
0.00457314
0.00460693
0.0046399
0.00467202
0.00470329
0.0047337
0.00476324
0.0047919
0.00481967
0.00484652
0.00487246
0.00489747
0.00492155
0.0049447
0.00496691
0.00498817
0.00500849
0.00502786
0.00504624
0.00506364
0.00508006
0.0050955
0.00510995
0.00512342
0.0051359
0.00514738
0.00515785
0.00516733
0.0051758
0.00518326
0.00518972
0.00519518
0.00519963
0.00520307
0.00520551
0.00520696
0.0052074
0.00520685
0.00520532
0.0052028
0.0051993
0.00519483
0.0051894
0.00518302
0.00517569
0.00516742
0.00515823
0.00514813
0.00513712
0.00512523
0.00511244
0.00509879
0.00508427
0.00506889
0.00505266
0.00503559
0.00501767
0.00499893
0.00497938
0.00495905
0.00493795
0.00491611
0.00489355
0.0048703
0.00484639
0.00482184
0.00479668
0.00477093
0.00474462
0.00471778
0.00469042
0.00466259
0.00463429
0.00460557
0.00457646
0.00454697
0.00451715
0.00448703
0.00445664
0.00442602
0.00439523
0.0043643
0.00433328
0.00430223
0.00427121
0.00424025
0.00420937
0.00417854
0.00414762
0.00411631
0.00408444
1.4818e-05
9.9617e-05
0.000218802
0.000326398
0.000415669
0.000488857
0.000549573
0.000601179
0.000646456
0.000687598
0.000726285
0.000763772
0.000800976
0.000838547
0.00087693
0.000916414
0.000957171
0.000999288
0.00104279
0.00108766
0.00113385
0.00118129
0.00122989
0.00127957
0.00133024
0.00138179
0.00143415
0.00148722
0.00154091
0.00159516
0.00164988
0.00170501
0.0017605
0.00181629
0.00187233
0.00192859
0.00198501
0.00204159
0.00209828
0.00215506
0.00221191
0.00226881
0.00232574
0.0023827
0.00243965
0.00249659
0.00255351
0.00261038
0.0026672
0.00272394
0.00278058
0.00283711
0.00289351
0.00294975
0.0030058
0.00306165
0.00311727
0.00317262
0.00322768
0.0032824
0.00333677
0.00339075
0.0034443
0.00349739
0.00354999
0.00360207
0.00365359
0.00370453
0.00375487
0.00380457
0.00385366
0.00390216
0.00395007
0.00399739