/*--------------------------------*- C++ -*----------------------------------*\
| =========                 |                                                 |
| \\      /  F ield         | OpenFOAM: The Open Source CFD Toolbox           |
|  \\    /   O peration     | Version:  2412                                  |
|   \\  /    A nd           | Website:  www.openfoam.com                      |
|    \\/     M anipulation  |                                                 |
\*---------------------------------------------------------------------------*/
FoamFile
{
    version     2.0;
    format      ascii;
    arch        "LSB;label=32;scalar=64";
    class       volScalarField;
    location    "0.26";
    object      p;
}
// * * * * * * * * * * * * * * * * * * * * * * * * * * * * * * * * * * * * * //

dimensions      [0 2 -2 0 0 0 0];

internalField   nonuniform List<scalar> 
12225
(
-10.328
-9.73563
-9.07292
-8.51649
-8.00744
-7.551
-7.15245
-6.80145
-6.48911
-6.20983
-5.95872
-5.73128
-5.52366
-5.33252
-5.15481
-4.98702
-4.82692
-4.66003
-10.7618
-9.79381
-9.10773
-8.55747
-8.04774
-7.59125
-7.19206
-6.83966
-6.52568
-6.24471
-5.99187
-5.7627
-5.55337
-5.36055
-5.18117
-5.01184
-4.84972
-4.69157
-10.9422
-9.82809
-9.14948
-8.60834
-8.09814
-7.64252
-7.24347
-6.89002
-6.57449
-6.29174
-6.03695
-5.80576
-5.59441
-5.39959
-5.21827
-5.04728
-4.88375
-4.72265
-10.9661
-9.8438
-9.17416
-8.64229
-8.13479
-7.68204
-7.28486
-6.93196
-6.61628
-6.33292
-6.07721
-5.84491
-5.63237
-5.43639
-5.25401
-5.0825
-4.91859
-4.76145
-10.896
-9.83852
-9.17445
-8.65308
-8.15261
-7.70478
-7.31116
-6.96046
-6.64608
-6.36341
-6.10794
-5.87561
-5.66292
-5.46681
-5.28451
-5.11379
-4.95133
-4.80206
-10.7542
-9.80538
-9.15096
-8.64222
-8.15339
-7.71276
-7.32429
-6.97729
-6.66548
-6.38458
-6.13034
-5.8989
-5.68694
-5.49163
-5.31041
-5.1416
-4.98203
-4.84131
-10.5515
-9.73894
-9.10472
-8.61053
-8.13781
-7.70716
-7.32559
-6.98379
-6.6758
-6.39771
-6.14563
-5.91594
-5.70554
-5.51186
-5.33263
-5.16662
-5.01091
-4.87847
-10.2986
-9.6366
-9.03654
-8.55858
-8.10579
-7.68836
-7.31564
-6.98062
-6.67776
-6.40358
-6.1546
-5.92751
-5.71951
-5.52827
-5.35183
-5.18937
-5.03816
-4.91359
-10.0061
-9.49807
-8.94755
-8.48801
-8.05786
-7.65696
-7.2952
-6.96854
-6.67217
-6.40301
-6.1581
-5.93449
-5.72969
-5.54168
-5.36877
-5.21046
-5.06418
-4.94693
-9.68536
-9.32532
-8.83913
-8.40167
-7.99572
-7.61427
-7.2656
-6.94877
-6.66016
-6.39714
-6.15723
-5.93795
-5.73714
-5.55307
-5.38434
-5.23065
-5.08951
-4.97896
-9.34846
-9.12313
-8.71291
-8.3031
-7.92229
-7.56252
-7.22891
-6.92322
-6.64345
-6.38753
-6.15347
-5.93928
-5.74314
-5.56364
-5.39958
-5.25085
-5.11484
-5.01052
-9.03645
-8.91734
-8.58317
-8.20492
-7.84805
-7.50962
-7.19147
-6.897
-6.62609
-6.37737
-6.1493
-5.94032
-5.74896
-5.57406
-5.41461
-5.27059
-5.13908
-5.04036
-8.74144
-8.70295
-8.4446
-8.10268
-7.77002
-7.45359
-7.15219
-6.86974
-6.60816
-6.36709
-6.14545
-5.94205
-5.75577
-5.58571
-5.43101
-5.29166
-5.16506
-5.06967
-8.43434
-8.4585
-8.27899
-7.98315
-7.67923
-7.38835
-7.10768
-6.84026
-6.59005
-6.35819
-6.14427
-5.94755
-5.76729
-5.60285
-5.45356
-5.31942
-5.19814
-5.10525
-8.13722
-8.20423
-8.09638
-7.85241
-7.58094
-7.31764
-7.06092
-6.81186
-6.57545
-6.35462
-6.1499
-5.96104
-5.78769
-5.62953
-5.48609
-5.35741
-5.24136
-5.15059
-7.87877
-7.97211
-7.92191
-7.72899
-7.49085
-7.25392
-7.02096
-6.79142
-6.57015
-6.3615
-6.16707
-5.98707
-5.82144
-5.6701
-5.53276
-5.40953
-5.29845
-5.20923
-7.69111
-7.7992
-7.79048
-7.64166
-7.43491
-7.22136
-7.00891
-6.79677
-6.58914
-6.39125
-6.20579
-6.03347
-5.87445
-5.72883
-5.5964
-5.47716
-5.3695
-5.27941
-7.61448
-7.72681
-7.73931
-7.61768
-7.4327
-7.23578
-7.03795
-6.83871
-6.64161
-6.45209
-6.27344
-6.1067
-5.95207
-5.80956
-5.67909
-5.56043
-5.45256
-5.35678
-7.71378
-7.82081
-7.82715
-7.70049
-7.51227
-7.31354
-7.11489
-6.91565
-6.71921
-6.53078
-6.35341
-6.18791
-6.03426
-5.89228
-5.76162
-5.6416
-5.53195
-5.42952
-7.98999
-8.08441
-8.05098
-7.87942
-7.65785
-7.43513
-7.21674
-7.00139
-6.79305
-6.59625
-6.41286
-6.24292
-6.08599
-5.94148
-5.8087
-5.68655
-5.57478
-5.46775
-8.38336
-8.44147
-8.33909
-8.10466
-7.84033
-7.58537
-7.33925
-7.10147
-6.87639
-6.66712
-6.47411
-6.29667
-6.13393
-5.98495
-5.84876
-5.72411
-5.6106
-5.50224
-8.88374
-8.86347
-8.65526
-8.34548
-8.03344
-7.73945
-7.45977
-7.19627
-6.95245
-6.72906
-6.52512
-6.33923
-6.17003
-6.01612
-5.87616
-5.74873
-5.63305
-5.52342
-9.44776
-9.29218
-8.94828
-8.56541
-8.20879
-7.87527
-7.56327
-7.27664
-7.01608
-6.77984
-6.56586
-6.37223
-6.19703
-6.03844
-5.89482
-5.76457
-5.64663
-5.53593
-10.0122
-9.66618
-9.18309
-8.74529
-8.35135
-7.98183
-7.6424
-7.33672
-7.06193
-6.81453
-6.59189
-6.39157
-6.21117
-6.0485
-5.90166
-5.76888
-5.64891
-5.53731
-10.5162
-9.9477
-9.35205
-8.88024
-8.45365
-8.05317
-7.69235
-7.37186
-7.08573
-6.82955
-6.60024
-6.39483
-6.21049
-6.04476
-5.89552
-5.76086
-5.63938
-5.52731
-10.9177
-10.1253
-9.4588
-8.96666
-8.51154
-8.08761
-7.71189
-7.38082
-7.08654
-6.82421
-6.59033
-6.38149
-6.19456
-6.02686
-5.87611
-5.74032
-5.61796
-5.50585
-11.189
-10.2088
-9.50903
-9.00233
-8.52597
-8.08717
-7.70194
-7.36391
-7.06446
-6.79842
-6.56191
-6.35121
-6.16298
-5.9944
-5.84308
-5.70694
-5.58438
-5.47278
-11.2963
-10.2242
-9.50968
-8.98661
-8.49822
-8.05187
-7.66105
-7.31922
-7.01743
-6.75003
-6.51284
-6.30194
-6.11385
-5.94563
-5.7948
-5.65924
-5.53729
-5.42688
-11.1636
-10.1944
-9.47466
-8.92898
-8.43567
-7.987
-7.59383
-7.25117
-6.94971
-6.68321
-6.44724
-6.23779
-6.05124
-5.88459
-5.73532
-5.60128
-5.48071
-5.37187
-10.6325
-10.1021
-9.43208
-8.87207
-8.37702
-7.9281
-7.53448
-7.19244
-6.89232
-6.62737
-6.39303
-6.18522
-6.0003
-5.83521
-5.68743
-5.55478
-5.43544
-5.32758
-4.71711
-4.71679
-4.7177
-4.71967
-4.72218
-4.72489
-4.72766
-4.73056
-4.73365
-4.73698
-4.74065
-4.74473
-4.74933
-4.75454
-4.76047
-4.76722
-4.7749
-4.78363
-4.79355
-4.80477
-4.81742
-4.83159
-4.84739
-4.86486
-4.88403
-4.90489
-4.92739
-4.95143
-4.97691
-5.00367
-5.03149
-5.0601
-5.08925
-5.11873
-5.14832
-5.17781
-5.20699
-5.23566
-5.26363
-5.29073
-5.31677
-5.34161
-5.36508
-5.38705
-5.40737
-5.4259
-5.44253
-5.45712
-5.46955
-5.4797
-5.48746
-5.49272
-5.49536
-5.49527
-5.49236
-5.48652
-5.47766
-5.46568
-5.45049
-5.43201
-5.41015
-5.38486
-5.35604
-5.32365
-5.28762
-5.24791
-5.20448
-5.15728
-5.1063
-5.05151
-4.99291
-4.93054
-4.86447
-4.7947
-4.72113
-4.64359
-4.56204
-4.47663
-4.38744
-4.29453
-4.19796
-4.09777
-3.99402
-3.88677
-3.77608
-3.66202
-3.54466
-3.42409
-3.30038
-3.17363
-3.04393
-2.91137
-2.77607
-2.63812
-2.49763
-2.35473
-2.20952
-2.06212
-1.91267
-1.76128
-1.60808
-1.45321
-1.2968
-1.13898
-0.979887
-0.819667
-0.658456
-0.496396
-0.33363
-0.1703
-0.00655085
0.157474
0.32163
0.485773
0.649761
0.813449
0.976698
1.13937
1.30131
1.46241
1.62251
1.78149
1.93922
2.09557
2.25043
2.40367
2.55517
2.70484
2.85255
2.99822
3.14175
3.28304
3.42202
3.5586
3.69272
3.82429
3.95328
4.07962
4.20326
4.32418
4.44233
4.55772
4.67031
4.78009
4.88699
4.99096
5.09196
5.19004
5.28521
5.37751
5.46696
5.55359
5.63743
5.7185
5.79683
5.87246
5.94542
6.01575
6.08349
6.14867
6.21133
6.27152
6.32927
6.38462
6.43762
6.48831
6.53674
6.58296
6.62702
6.669
6.70901
6.74715
6.78363
6.81874
6.85297
6.88715
6.92318
6.96419
7.02204
7.09717
-4.71688
-4.71713
-4.71812
-4.71985
-4.7218
-4.72363
-4.72521
-4.72658
-4.72796
-4.72958
-4.73161
-4.73415
-4.73726
-4.74102
-4.74551
-4.75086
-4.75719
-4.76466
-4.77343
-4.78365
-4.79548
-4.80904
-4.82443
-4.8417
-4.86087
-4.88189
-4.90468
-4.9291
-4.955
-4.98216
-5.01035
-5.03931
-5.06881
-5.09861
-5.12849
-5.15822
-5.18761
-5.21646
-5.24459
-5.27184
-5.29804
-5.32303
-5.34668
-5.36885
-5.38939
-5.4082
-5.42512
-5.44006
-5.45288
-5.46347
-5.47172
-5.4775
-5.48072
-5.48126
-5.47903
-5.47391
-5.4658
-5.45463
-5.44029
-5.4227
-5.40178
-5.37745
-5.34965
-5.31831
-5.28337
-5.24479
-5.20252
-5.15653
-5.10678
-5.05325
-4.9959
-4.93472
-4.86967
-4.80069
-4.72767
-4.65079
-4.57027
-4.48604
-4.3981
-4.30646
-4.21117
-4.11226
-4.00979
-3.9038
-3.79437
-3.68155
-3.56543
-3.44607
-3.32356
-3.19799
-3.06944
-2.93802
-2.80383
-2.66697
-2.52755
-2.38568
-2.24147
-2.09506
-1.94655
-1.79608
-1.64377
-1.48975
-1.33416
-1.17713
-1.01879
-0.859285
-0.698753
-0.537334
-0.375172
-0.212408
-0.0491861
0.114351
0.278058
0.441793
0.605412
0.768773
0.931734
1.09416
1.2559
1.41683
1.5768
1.7357
1.89339
2.04974
2.20463
2.35794
2.50956
2.65937
2.80727
2.95317
3.09695
3.23854
3.37785
3.51479
3.64929
3.78129
3.91073
4.03755
4.16171
4.28316
4.40189
4.51786
4.63107
4.74147
4.849
4.95361
5.0553
5.15408
5.24997
5.34299
5.43316
5.52052
5.60508
5.68688
5.76594
5.84229
5.91597
5.98702
6.05546
6.12134
6.1847
6.24557
6.30399
6.36001
6.41366
6.46499
6.51406
6.5609
6.60559
6.6482
6.68883
6.72764
6.76482
6.80069
6.83579
6.87096
6.90813
6.94942
7.00545
7.07169
-4.71113
-4.71283
-4.71497
-4.71712
-4.71884
-4.72002
-4.72079
-4.72138
-4.72202
-4.72292
-4.72422
-4.72605
-4.72852
-4.73175
-4.73589
-4.74108
-4.74748
-4.75523
-4.76448
-4.77535
-4.78795
-4.80233
-4.81854
-4.83655
-4.85631
-4.87775
-4.90073
-4.92511
-4.95073
-4.97739
-5.00489
-5.03303
-5.0616
-5.0904
-5.11923
-5.14791
-5.17627
-5.20413
-5.23132
-5.2577
-5.2831
-5.30739
-5.33042
-5.35207
-5.37219
-5.39066
-5.40735
-5.42215
-5.43492
-5.44555
-5.45393
-5.45994
-5.46346
-5.46438
-5.4626
-5.45802
-5.45054
-5.44004
-5.42646
-5.40969
-5.38965
-5.36626
-5.33946
-5.30918
-5.27535
-5.23792
-5.19684
-5.15208
-5.10359
-5.05135
-4.99533
-4.93551
-4.87183
-4.80427
-4.73288
-4.65764
-4.57865
-4.49593
-4.4095
-4.31939
-4.22562
-4.12824
-4.0273
-3.92284
-3.81493
-3.70362
-3.589
-3.47113
-3.3501
-3.22598
-3.09888
-2.96888
-2.83608
-2.70059
-2.56252
-2.42196
-2.27905
-2.13389
-1.98661
-1.83733
-1.68618
-1.53328
-1.37876
-1.22277
-1.06543
-0.906887
-0.747272
-0.586726
-0.425392
-0.26341
-0.100924
0.061924
0.224991
0.388134
0.55121
0.714078
0.876596
1.03862
1.20003
1.36066
1.5204
1.67911
1.83666
1.99293
2.14778
2.30111
2.45279
2.60272
2.75079
2.89689
3.04094
3.18283
3.32248
3.45982
3.59476
3.72724
3.85719
3.98457
4.10932
4.23139
4.35076
4.46738
4.58125
4.69232
4.80057
4.906
5.00856
5.10824
5.20506
5.29902
5.39013
5.47844
5.56394
5.64669
5.72669
5.80398
5.87859
5.95055
6.01991
6.08669
6.15093
6.21268
6.27196
6.32882
6.38331
6.43546
6.48533
6.53296
6.57844
6.62184
6.66326
6.70288
6.7409
6.77767
6.81374
6.84994
6.88811
6.92953
6.98344
7.03668
-4.69968
-4.70339
-4.70738
-4.71072
-4.71301
-4.71447
-4.71543
-4.71618
-4.71699
-4.71806
-4.71958
-4.72171
-4.7246
-4.72838
-4.73321
-4.73923
-4.74656
-4.75533
-4.76564
-4.77757
-4.79116
-4.80643
-4.82336
-4.8419
-4.86199
-4.88352
-4.90637
-4.93041
-4.9555
-4.98147
-5.00814
-5.03536
-5.06295
-5.09073
-5.11854
-5.14621
-5.17359
-5.20051
-5.22682
-5.25238
-5.27704
-5.30066
-5.32311
-5.34425
-5.36395
-5.38208
-5.39852
-5.41313
-5.42581
-5.43641
-5.44484
-5.45097
-5.45467
-5.45586
-5.4544
-5.4502
-5.44315
-5.43316
-5.42013
-5.40396
-5.38457
-5.36189
-5.33583
-5.30633
-5.27333
-5.23676
-5.19657
-5.15272
-5.10517
-5.05389
-4.99883
-4.93999
-4.87733
-4.81084
-4.74055
-4.6665
-4.58869
-4.50716
-4.42193
-4.33301
-4.24046
-4.14429
-4.04456
-3.94132
-3.83463
-3.72453
-3.61112
-3.49444
-3.3746
-3.25166
-3.12572
-2.99688
-2.86522
-2.73085
-2.59387
-2.4544
-2.31254
-2.16842
-2.02214
-1.87385
-1.72365
-1.57168
-1.41806
-1.26294
-1.10643
-0.948688
-0.789841
-0.630029
-0.469391
-0.30807
-0.146207
0.0160559
0.178577
0.341214
0.503825
0.666268
0.828403
0.99009
1.15119
1.31157
1.4711
1.62963
1.78705
1.94323
2.09804
2.25137
2.40309
2.5531
2.70129
2.84756
2.99181
3.13394
3.27388
3.41153
3.54683
3.6797
3.81007
3.9379
4.06313
4.18573
4.30564
4.42284
4.53728
4.64893
4.75777
4.86381
4.96703
5.06741
5.16495
5.25964
5.35151
5.44057
5.52684
5.61035
5.69112
5.76918
5.84456
5.91729
5.9874
6.05494
6.11992
6.1824
6.24241
6.29999
6.35518
6.40803
6.45857
6.50689
6.55303
6.59709
6.63917
6.67945
6.71814
6.75557
6.79228
6.82899
6.86728
6.90759
6.95723
6.99817
-4.68508
-4.69092
-4.69744
-4.70267
-4.70621
-4.7086
-4.71036
-4.71186
-4.71341
-4.71526
-4.71762
-4.72068
-4.72458
-4.72948
-4.73549
-4.74275
-4.75134
-4.76137
-4.77288
-4.78592
-4.80049
-4.81659
-4.83418
-4.85319
-4.87355
-4.89516
-4.9179
-4.94167
-4.96632
-4.99172
-5.01773
-5.04418
-5.07095
-5.09787
-5.12479
-5.15158
-5.17809
-5.20416
-5.22967
-5.25447
-5.27843
-5.3014
-5.32326
-5.34388
-5.36313
-5.38087
-5.39698
-5.41134
-5.42382
-5.43429
-5.44265
-5.44876
-5.45251
-5.45378
-5.45247
-5.44847
-5.44166
-5.43196
-5.41925
-5.40346
-5.38448
-5.36224
-5.33666
-5.30768
-5.27521
-5.23921
-5.19962
-5.15639
-5.10949
-5.05887
-5.00451
-4.94639
-4.88448
-4.81878
-4.74932
-4.67609
-4.59912
-4.51843
-4.43405
-4.34599
-4.25429
-4.15898
-4.06012
-3.95774
-3.85191
-3.74269
-3.63013
-3.51432
-3.39533
-3.27325
-3.14815
-3.02014
-2.8893
-2.75575
-2.61957
-2.48089
-2.33981
-2.19645
-2.05092
-1.90335
-1.75386
-1.60257
-1.44962
-1.29515
-1.13927
-0.982122
-0.82385
-0.664589
-0.504477
-0.343654
-0.182262
-0.0204418
0.141665
0.303916
0.466172
0.628289
0.790129
0.951553
1.11242
1.2726
1.43196
1.59036
1.74767
1.90377
2.05854
2.21186
2.36361
2.51367
2.66195
2.80833
2.95272
3.09503
3.23517
3.37306
3.50861
3.64177
3.77246
3.90063
4.02623
4.14921
4.26953
4.38714
4.502
4.61407
4.72333
4.8298
4.93346
5.03432
5.13235
5.22756
5.31996
5.40956
5.49638
5.58045
5.66178
5.7404
5.81635
5.88964
5.96032
6.02842
6.09397
6.15701
6.21757
6.27569
6.33142
6.3848
6.43587
6.4847
6.53135
6.5759
6.61847
6.65921
6.69833
6.73613
6.7731
6.80978
6.84742
6.88574
6.9306
6.96106
-4.67113
-4.67889
-4.68789
-4.69514
-4.7002
-4.70386
-4.70678
-4.7094
-4.71206
-4.71505
-4.71861
-4.72291
-4.72812
-4.73436
-4.74174
-4.75036
-4.76029
-4.77158
-4.78426
-4.79835
-4.81384
-4.83068
-4.84885
-4.86826
-4.88884
-4.91051
-4.93316
-4.95668
-4.98096
-5.00587
-5.0313
-5.05711
-5.08317
-5.10935
-5.13552
-5.16155
-5.1873
-5.21264
-5.23743
-5.26156
-5.28488
-5.30727
-5.3286
-5.34873
-5.36753
-5.38489
-5.40067
-5.41475
-5.427
-5.43729
-5.4455
-5.45152
-5.45523
-5.4565
-5.45522
-5.45128
-5.44458
-5.43502
-5.42248
-5.40688
-5.38814
-5.36616
-5.34086
-5.31218
-5.28005
-5.2444
-5.20518
-5.16235
-5.11587
-5.06569
-5.01179
-4.95415
-4.89275
-4.8276
-4.75869
-4.68603
-4.60963
-4.52952
-4.44571
-4.35824
-4.26713
-4.17242
-4.07415
-3.97238
-3.86715
-3.75853
-3.64659
-3.53138
-3.413
-3.29152
-3.16703
-3.03962
-2.90938
-2.77642
-2.64083
-2.50272
-2.36221
-2.21941
-2.07444
-1.92741
-1.77844
-1.62768
-1.47523
-1.32124
-1.16584
-1.00915
-0.851323
-0.692485
-0.532778
-0.372343
-0.211318
-0.0498457
0.111934
0.27388
0.435851
0.597707
0.759307
0.920514
1.08119
1.2412
1.40041
1.55869
1.7159
1.87193
2.02665
2.17994
2.33168
2.48177
2.63009
2.77655
2.92103
3.06346
3.20373
3.34178
3.47752
3.61088
3.7418
3.87022
3.99608
4.11933
4.23992
4.35782
4.47298
4.58535
4.69493
4.80171
4.90571
5.00691
5.1053
5.20089
5.29368
5.38368
5.47092
5.55541
5.63716
5.71622
5.7926
5.86634
5.93746
6.006
6.07199
6.13546
6.19646
6.25501
6.31117
6.36496
6.41645
6.46568
6.51271
6.55764
6.60055
6.6416
6.68098
6.71893
6.75586
6.79215
6.82868
6.86466
6.90507
6.92677
-4.66119
-4.67014
-4.68101
-4.69003
-4.69659
-4.70157
-4.70573
-4.70957
-4.71347
-4.71771
-4.72254
-4.72815
-4.73468
-4.74224
-4.75094
-4.76083
-4.77198
-4.78439
-4.7981
-4.81309
-4.82934
-4.84681
-4.86544
-4.88518
-4.90595
-4.92766
-4.95023
-4.97356
-4.99754
-5.02207
-5.04704
-5.07234
-5.09785
-5.12344
-5.14901
-5.17443
-5.19957
-5.22431
-5.24853
-5.27211
-5.2949
-5.3168
-5.33766
-5.35737
-5.37579
-5.3928
-5.40827
-5.42207
-5.43408
-5.44417
-5.45221
-5.45809
-5.46169
-5.46288
-5.46155
-5.45759
-5.45089
-5.44134
-5.42885
-5.41332
-5.39466
-5.37278
-5.34761
-5.31907
-5.28709
-5.25162
-5.2126
-5.16998
-5.12372
-5.07379
-5.02015
-4.9628
-4.90171
-4.83688
-4.7683
-4.69599
-4.61995
-4.5402
-4.45677
-4.36966
-4.27893
-4.18461
-4.08673
-3.98536
-3.88053
-3.77232
-3.66078
-3.546
-3.42803
-3.30698
-3.18291
-3.05592
-2.92611
-2.79357
-2.65841
-2.52073
-2.38064
-2.23826
-2.09369
-1.94707
-1.79851
-1.64814
-1.49608
-1.34247
-1.18743
-1.03111
-0.873624
-0.715124
-0.555742
-0.395619
-0.234894
-0.0737066
0.0878021
0.249492
0.411223
0.572854
0.734246
0.895261
1.05576
1.21561
1.37468
1.53284
1.68995
1.8459
2.00055
2.15379
2.3055
2.45558
2.6039
2.75038
2.89491
3.0374
3.17775
3.3159
3.45176
3.58525
3.71632
3.84489
3.97092
4.09436
4.21515
4.33325
4.44861
4.56121
4.67102
4.77804
4.88229
4.98375
5.08241
5.17829
5.27138
5.36169
5.44924
5.53406
5.61615
5.69554
5.77227
5.84635
5.91782
5.98671
6.05306
6.11688
6.17823
6.23713
6.29363
6.34777
6.39958
6.44913
6.49646
6.54167
6.58483
6.62607
6.66556
6.70349
6.74017
6.77582
6.81102
6.84458
6.88102
6.89538
-4.65674
-4.66618
-4.67809
-4.68837
-4.69616
-4.70231
-4.70761
-4.7126
-4.71765
-4.72306
-4.72907
-4.73586
-4.74356
-4.75229
-4.76211
-4.77307
-4.78522
-4.79856
-4.81309
-4.8288
-4.84566
-4.86362
-4.88263
-4.90263
-4.92355
-4.94531
-4.96783
-4.99102
-5.0148
-5.03906
-5.0637
-5.08862
-5.11372
-5.13888
-5.164
-5.18896
-5.21364
-5.23793
-5.2617
-5.28484
-5.30723
-5.32873
-5.34922
-5.36858
-5.38668
-5.40339
-5.41858
-5.43213
-5.44391
-5.45379
-5.46165
-5.46736
-5.4708
-5.47186
-5.47042
-5.46635
-5.45957
-5.44995
-5.4374
-5.42182
-5.40312
-5.38122
-5.35604
-5.3275
-5.29554
-5.2601
-5.22112
-5.17855
-5.13237
-5.08252
-5.02899
-4.97175
-4.9108
-4.84612
-4.77771
-4.70557
-4.62972
-4.55016
-4.46692
-4.38002
-4.2895
-4.1954
-4.09775
-3.99661
-3.89202
-3.78406
-3.67279
-3.55827
-3.44058
-3.3198
-3.19602
-3.06932
-2.93981
-2.80757
-2.67271
-2.53534
-2.39556
-2.25348
-2.10922
-1.96291
-1.81465
-1.66459
-1.51283
-1.35951
-1.20477
-1.04873
-0.891532
-0.733305
-0.574191
-0.414326
-0.253852
-0.0929068
0.0683696
0.229838
0.391358
0.552789
0.713992
0.874829
1.03517
1.19487
1.3538
1.51183
1.66882
1.82467
1.97923
2.1324
2.28405
2.43409
2.58238
2.72885
2.87338
3.01588
3.15627
3.29446
3.43037
3.56393
3.69508
3.82375
3.94989
4.07343
4.19435
4.31258
4.42808
4.54083
4.65081
4.75801
4.86244
4.96409
5.06295
5.15904
5.25235
5.3429
5.43069
5.51576
5.59811
5.67777
5.75476
5.82912
5.90087
5.97004
6.03667
6.10078
6.16241
6.22159
6.27837
6.33278
6.38486
6.43465
6.48222
6.52762
6.57095
6.61229
6.65177
6.68955
6.72581
6.76066
6.79442
6.82559
6.85854
6.86676
-4.65801
-4.66732
-4.67947
-4.6904
-4.69901
-4.70603
-4.71226
-4.7182
-4.72421
-4.7306
-4.73759
-4.74535
-4.754
-4.76364
-4.77435
-4.78614
-4.79906
-4.81311
-4.82827
-4.84452
-4.86183
-4.88016
-4.89946
-4.91966
-4.94071
-4.96252
-4.98503
-5.00814
-5.03178
-5.05586
-5.08029
-5.10496
-5.12978
-5.15464
-5.17945
-5.20409
-5.22844
-5.25241
-5.27586
-5.29869
-5.32077
-5.34197
-5.36218
-5.38127
-5.39911
-5.41557
-5.43052
-5.44384
-5.45541
-5.46508
-5.47274
-5.47826
-5.48152
-5.4824
-5.48079
-5.47656
-5.46962
-5.45985
-5.44715
-5.43143
-5.4126
-5.39057
-5.36527
-5.33662
-5.30455
-5.26902
-5.22995
-5.18732
-5.14108
-5.09119
-5.03763
-4.98038
-4.91943
-4.85477
-4.78638
-4.71428
-4.63847
-4.55896
-4.47578
-4.38896
-4.29852
-4.20451
-4.10696
-4.00594
-3.90148
-3.79365
-3.68252
-3.56816
-3.45064
-3.33003
-3.20644
-3.07994
-2.95062
-2.81859
-2.68395
-2.5468
-2.40724
-2.26539
-2.12137
-1.97529
-1.82728
-1.67745
-1.52594
-1.37286
-1.21836
-1.06256
-0.905592
-0.747597
-0.588711
-0.429072
-0.268817
-0.108086
0.0529821
0.214249
0.375574
0.536817
0.697841
0.858507
1.01868
1.17822
1.33701
1.4949
1.65177
1.8075
1.96196
2.11503
2.2666
2.41656
2.5648
2.71121
2.8557
2.99818
3.13855
3.27673
3.41265
3.54623
3.67741
3.80612
3.9323
4.0559
4.17688
4.29518
4.41077
4.52362
4.6337
4.74102
4.84557
4.94735
5.04636
5.1426
5.23607
5.32679
5.41476
5.50001
5.58256
5.66242
5.73963
5.8142
5.88617
5.95556
6.02242
6.08676
6.14862
6.20803
6.26504
6.31966
6.37195
6.42194
6.46968
6.51522
6.55863
6.59999
6.63938
6.67689
6.71264
6.74659
6.77887
6.80776
6.83762
6.84073
-4.66436
-4.67305
-4.68478
-4.69574
-4.70471
-4.71226
-4.71912
-4.72574
-4.73248
-4.7396
-4.74732
-4.7558
-4.76516
-4.77548
-4.78682
-4.79921
-4.81268
-4.82722
-4.84282
-4.85946
-4.8771
-4.89569
-4.9152
-4.93555
-4.9567
-4.97856
-5.00107
-5.02416
-5.04773
-5.07171
-5.09601
-5.12053
-5.14519
-5.16987
-5.19449
-5.21893
-5.24309
-5.26684
-5.29009
-5.31271
-5.33457
-5.35557
-5.37557
-5.39445
-5.41208
-5.42833
-5.44308
-5.4562
-5.46755
-5.47701
-5.48446
-5.48977
-5.49282
-5.49348
-5.49164
-5.4872
-5.48003
-5.47003
-5.45711
-5.44117
-5.42212
-5.39988
-5.37436
-5.3455
-5.31324
-5.27751
-5.23826
-5.19546
-5.14905
-5.09902
-5.04534
-4.98798
-4.92693
-4.86217
-4.7937
-4.72153
-4.64566
-4.5661
-4.48289
-4.39604
-4.30559
-4.21158
-4.11405
-4.01305
-3.90863
-3.80086
-3.6898
-3.57551
-3.45808
-3.33759
-3.21411
-3.08773
-2.95856
-2.82668
-2.69219
-2.55521
-2.41583
-2.27416
-2.13033
-1.98444
-1.83663
-1.687
-1.53569
-1.38283
-1.22853
-1.07294
-0.916187
-0.758403
-0.599726
-0.440294
-0.280244
-0.119715
0.0411535
0.202223
0.363354
0.524408
0.685248
0.845736
1.00574
1.16512
1.32374
1.48148
1.63821
1.7938
1.94813
2.10108
2.25254
2.4024
2.55054
2.69687
2.84128
2.98369
3.124
3.26214
3.39802
3.53157
3.66272
3.79142
3.9176
4.0412
4.16219
4.28052
4.39614
4.50904
4.61918
4.72657
4.83119
4.93305
5.03215
5.12849
5.22207
5.31291
5.40101
5.4864
5.56909
5.64911
5.72647
5.80121
5.87335
5.94293
6.00996
6.07449
6.13654
6.19614
6.25332
6.30812
6.36058
6.41072
6.45858
6.50421
6.54765
6.58896
6.62818
6.66536
6.70052
6.7335
6.76432
6.79107
6.81823
6.81706
-4.67457
-4.68231
-4.6931
-4.70357
-4.71247
-4.7202
-4.72737
-4.7344
-4.7416
-4.74921
-4.75742
-4.76638
-4.77621
-4.78698
-4.79874
-4.81152
-4.82534
-4.8402
-4.85609
-4.87297
-4.89082
-4.90959
-4.92923
-4.9497
-4.97092
-4.99283
-5.01537
-5.03846
-5.06202
-5.08597
-5.11022
-5.13468
-5.15927
-5.18387
-5.2084
-5.23274
-5.25679
-5.28043
-5.30355
-5.32604
-5.34777
-5.36863
-5.38847
-5.40719
-5.42465
-5.44072
-5.45528
-5.46819
-5.47933
-5.48857
-5.49578
-5.50084
-5.50363
-5.50403
-5.50192
-5.4972
-5.48974
-5.47946
-5.46625
-5.45001
-5.43066
-5.40813
-5.38232
-5.35318
-5.32064
-5.28464
-5.24513
-5.20208
-5.15545
-5.1052
-5.05131
-4.99377
-4.93254
-4.86761
-4.79899
-4.72667
-4.65067
-4.571
-4.48768
-4.40075
-4.31023
-4.21616
-4.11859
-4.01756
-3.91313
-3.80536
-3.69432
-3.58007
-3.46269
-3.34226
-3.21886
-3.09259
-2.96352
-2.83176
-2.6974
-2.56055
-2.42133
-2.27982
-2.13615
-1.99044
-1.84281
-1.69337
-1.54225
-1.38958
-1.23549
-1.0801
-0.923551
-0.765976
-0.607509
-0.448287
-0.288446
-0.128125
0.0325378
0.193403
0.354331
0.515186
0.67583
0.836126
0.995938
1.15513
1.31358
1.47114
1.6277
1.78313
1.9373
2.0901
2.24142
2.39113
2.53914
2.68535
2.82965
2.97195
3.11216
3.25021
3.386
3.51948
3.65057
3.7792
3.90533
4.0289
4.14985
4.26816
4.38377
4.49666
4.60682
4.71423
4.81889
4.92079
5.01993
5.11633
5.20998
5.30089
5.38908
5.47456
5.55735
5.63748
5.71497
5.78984
5.86211
5.93183
5.99901
6.06369
6.12589
6.18564
6.24297
6.29792
6.3505
6.40076
6.44871
6.49438
6.53781
6.57902
6.61803
6.65481
6.68933
6.72133
6.75072
6.7755
6.80027
6.79556
-4.68723
-4.69381
-4.7033
-4.71287
-4.72132
-4.72891
-4.73611
-4.74328
-4.75069
-4.75856
-4.76704
-4.77628
-4.78638
-4.7974
-4.8094
-4.8224
-4.83642
-4.85145
-4.86749
-4.88451
-4.90247
-4.92135
-4.94108
-4.96161
-4.9829
-5.00486
-5.02744
-5.05056
-5.07415
-5.09811
-5.12237
-5.14684
-5.17142
-5.19601
-5.22051
-5.24482
-5.26883
-5.29242
-5.31548
-5.33789
-5.35952
-5.38026
-5.39998
-5.41855
-5.43585
-5.45173
-5.46609
-5.47878
-5.48967
-5.49865
-5.50559
-5.51036
-5.51285
-5.51293
-5.5105
-5.50543
-5.49763
-5.487
-5.47343
-5.45684
-5.43713
-5.41424
-5.38809
-5.3586
-5.32573
-5.28941
-5.24959
-5.20625
-5.15934
-5.10883
-5.0547
-4.99691
-4.93545
-4.87032
-4.80149
-4.72899
-4.65282
-4.573
-4.48954
-4.40249
-4.31186
-4.21771
-4.12007
-4.019
-3.91454
-3.80676
-3.69572
-3.5815
-3.46416
-3.34379
-3.22046
-3.09427
-2.9653
-2.83365
-2.69942
-2.56272
-2.42364
-2.2823
-2.1388
-1.99327
-1.84583
-1.69658
-1.54567
-1.3932
-1.23932
-1.08415
-0.927816
-0.770462
-0.612219
-0.453221
-0.293605
-0.13351
0.0269269
0.187566
0.34827
0.508902
0.669324
0.8294
0.988996
1.14798
1.30621
1.46357
1.61993
1.77515
1.92913
2.08175
2.23288
2.38242
2.53026
2.6763
2.82044
2.9626
3.10267
3.24058
3.37625
3.50961
3.64059
3.76912
3.89515
4.01864
4.13952
4.25775
4.37331
4.48617
4.59629
4.70368
4.80833
4.91023
5.00939
5.1058
5.19948
5.29043
5.37867
5.46421
5.54707
5.62728
5.70485
5.77981
5.8522
5.92202
5.98932
6.05412
6.11644
6.17632
6.23378
6.28884
6.34153
6.39187
6.43988
6.48557
6.52895
6.57003
6.60877
6.64513
6.67898
6.71002
6.73805
6.76102
6.78367
6.77603
-4.70086
-4.70619
-4.71416
-4.72255
-4.73026
-4.73743
-4.74441
-4.7515
-4.75892
-4.76684
-4.77542
-4.78477
-4.79497
-4.80609
-4.81818
-4.83127
-4.84536
-4.86046
-4.87656
-4.89363
-4.91164
-4.93056
-4.95033
-4.97091
-4.99223
-5.01424
-5.03687
-5.06003
-5.08366
-5.10766
-5.13196
-5.15647
-5.18107
-5.20569
-5.2302
-5.25451
-5.27849
-5.30205
-5.32505
-5.34738
-5.36892
-5.38954
-5.40911
-5.42751
-5.4446
-5.46027
-5.47438
-5.4868
-5.4974
-5.50607
-5.51268
-5.5171
-5.51922
-5.51893
-5.5161
-5.51064
-5.50244
-5.4914
-5.47743
-5.46043
-5.44033
-5.41704
-5.3905
-5.36064
-5.3274
-5.29073
-5.25059
-5.20693
-5.15973
-5.10895
-5.05455
-4.9965
-4.9348
-4.86944
-4.8004
-4.72771
-4.65136
-4.57138
-4.48779
-4.40061
-4.30989
-4.21566
-4.11796
-4.01685
-3.91238
-3.8046
-3.69359
-3.5794
-3.46212
-3.34183
-3.21859
-3.09251
-2.96366
-2.83215
-2.69808
-2.56153
-2.42263
-2.28147
-2.13817
-1.99285
-1.84562
-1.69659
-1.54591
-1.39367
-1.24003
-1.0851
-0.929015
-0.771913
-0.613923
-0.455181
-0.295823
-0.135987
0.0241905
0.18457
0.345015
0.505387
0.665552
0.825372
0.984713
1.14344
1.30143
1.45854
1.61465
1.76964
1.92339
2.07577
2.22668
2.376
2.52363
2.66946
2.81341
2.95536
3.09525
3.23298
3.36848
3.50168
3.6325
3.76089
3.88679
4.01014
4.1309
4.24903
4.3645
4.47727
4.58733
4.69467
4.79927
4.90113
5.00026
5.09666
5.19033
5.28129
5.36954
5.45511
5.53801
5.61827
5.6959
5.77093
5.84339
5.91331
5.9807
6.0456
6.10802
6.16801
6.22557
6.28073
6.3335
6.38391
6.43195
6.47764
6.52095
6.56186
6.60033
6.63624
6.66942
6.69951
6.72626
6.74759
6.76835
6.75831
-4.71414
-4.71821
-4.72458
-4.7316
-4.73836
-4.7449
-4.75148
-4.7583
-4.76556
-4.77338
-4.78191
-4.79122
-4.80141
-4.81252
-4.8246
-4.83767
-4.85175
-4.86684
-4.88292
-4.89997
-4.91797
-4.93688
-4.95665
-4.97723
-4.99857
-5.02059
-5.04324
-5.06643
-5.09009
-5.11412
-5.13845
-5.16297
-5.18758
-5.2122
-5.23669
-5.26096
-5.2849
-5.30837
-5.33127
-5.35348
-5.37486
-5.39529
-5.41465
-5.43281
-5.44963
-5.46501
-5.47879
-5.49087
-5.50111
-5.5094
-5.51561
-5.51961
-5.52131
-5.52058
-5.51732
-5.51142
-5.50277
-5.49129
-5.47688
-5.45945
-5.43893
-5.41524
-5.38831
-5.35807
-5.32448
-5.28747
-5.24702
-5.20307
-5.15559
-5.10454
-5.04989
-4.9916
-4.92968
-4.8641
-4.79488
-4.72202
-4.64553
-4.56542
-4.48173
-4.39447
-4.30369
-4.20942
-4.11171
-4.0106
-3.90615
-3.79842
-3.68748
-3.57338
-3.4562
-3.33602
-3.21293
-3.087
-2.95832
-2.82699
-2.69311
-2.55678
-2.41809
-2.27717
-2.13411
-1.98904
-1.84206
-1.69331
-1.54289
-1.39094
-1.23758
-1.08293
-0.927144
-0.770337
-0.612646
-0.454205
-0.295151
-0.135619
0.0242523
0.184326
0.344465
0.504533
0.664393
0.82391
0.98295
1.14138
1.29907
1.45589
1.61171
1.76641
1.91988
2.07198
2.22262
2.37167
2.51904
2.66462
2.80832
2.95003
3.08969
3.22719
3.36248
3.49547
3.62609
3.75429
3.88001
4.00319
4.1238
4.24178
4.35711
4.46977
4.57972
4.68696
4.79148
4.89327
4.99234
5.08869
5.18233
5.27327
5.36151
5.44708
5.53
5.61028
5.68794
5.76303
5.83554
5.90552
5.97299
6.03797
6.10048
6.16056
6.21821
6.27345
6.32629
6.37675
6.42482
6.47047
6.5137
6.55444
6.59262
6.62807
6.6606
6.68979
6.71534
6.73517
6.75423
6.74226
-4.72594
-4.72883
-4.73359
-4.73914
-4.74482
-4.75059
-4.75662
-4.76304
-4.77001
-4.77762
-4.78598
-4.79517
-4.80524
-4.81626
-4.82825
-4.84124
-4.85523
-4.87023
-4.88623
-4.9032
-4.92112
-4.93995
-4.95965
-4.98017
-5.00144
-5.02342
-5.04601
-5.06916
-5.09276
-5.11675
-5.14102
-5.16547
-5.19001
-5.21453
-5.23891
-5.26305
-5.28682
-5.31011
-5.3328
-5.35477
-5.37589
-5.39603
-5.41507
-5.43288
-5.44934
-5.46432
-5.4777
-5.48936
-5.49916
-5.507
-5.51274
-5.51629
-5.51752
-5.51632
-5.51259
-5.50622
-5.49713
-5.4852
-5.47036
-5.45252
-5.4316
-5.40753
-5.38024
-5.34967
-5.31577
-5.27848
-5.23777
-5.19359
-5.14588
-5.0946
-5.03973
-4.98126
-4.91916
-4.85344
-4.78409
-4.71113
-4.63455
-4.55439
-4.47066
-4.3834
-4.29263
-4.19839
-4.10073
-3.99971
-3.89536
-3.78775
-3.67694
-3.563
-3.446
-3.32601
-3.20313
-3.07742
-2.94898
-2.8179
-2.68429
-2.54823
-2.40983
-2.2692
-2.12645
-1.98169
-1.83504
-1.68661
-1.53653
-1.38492
-1.2319
-1.07761
-0.922174
-0.765722
-0.608389
-0.450308
-0.291615
-0.132446
0.0270624
0.186773
0.34655
0.506256
0.665755
0.824913
0.983596
1.14167
1.29901
1.45548
1.61096
1.76532
1.91845
2.07022
2.22053
2.36927
2.51632
2.6616
2.80499
2.94642
3.08579
3.22303
3.35805
3.49078
3.62116
3.74913
3.87462
3.99759
4.118
4.2358
4.35096
4.46346
4.57327
4.68038
4.78479
4.88648
4.98546
5.08173
5.17531
5.26619
5.3544
5.43995
5.52286
5.60314
5.68083
5.75594
5.8285
5.89853
5.96605
6.0311
6.09369
6.15384
6.21157
6.26689
6.3198
6.37029
6.41837
6.464
6.50713
6.5477
6.58558
6.62059
6.65249
6.68081
6.70525
6.72374
6.74125
6.72777
-4.73572
-4.73765
-4.74083
-4.74488
-4.74937
-4.75425
-4.75959
-4.7655
-4.77206
-4.77935
-4.78745
-4.79642
-4.8063
-4.81713
-4.82893
-4.84173
-4.85553
-4.87032
-4.8861
-4.90285
-4.92055
-4.93915
-4.95863
-4.97892
-4.99997
-5.02172
-5.04409
-5.06701
-5.0904
-5.11416
-5.13819
-5.1624
-5.18668
-5.21092
-5.23501
-5.25884
-5.28229
-5.30523
-5.32755
-5.34912
-5.36982
-5.38954
-5.40813
-5.42548
-5.44147
-5.45597
-5.46886
-5.48001
-5.48932
-5.49665
-5.5019
-5.50496
-5.5057
-5.50403
-5.49984
-5.49304
-5.48351
-5.47118
-5.45596
-5.43776
-5.41651
-5.39213
-5.36457
-5.33375
-5.29964
-5.26217
-5.2213
-5.17695
-5.12908
-5.07767
-5.02268
-4.96411
-4.90194
-4.83617
-4.7668
-4.69384
-4.61729
-4.53718
-4.45352
-4.36636
-4.27571
-4.18162
-4.08413
-3.98328
-3.87914
-3.77176
-3.6612
-3.54752
-3.4308
-3.31111
-3.18853
-3.06315
-2.93505
-2.80432
-2.67107
-2.53538
-2.39737
-2.25713
-2.11478
-1.97042
-1.82418
-1.67617
-1.52651
-1.37533
-1.22274
-1.06888
-0.91388
-0.757866
-0.600972
-0.443332
-0.28508
-0.126352
0.032716
0.191987
0.351325
0.510593
0.669658
0.828383
0.986636
1.14428
1.3012
1.45725
1.61232
1.76627