/*--------------------------------*- C++ -*----------------------------------*\
| =========                 |                                                 |
| \\      /  F ield         | OpenFOAM: The Open Source CFD Toolbox           |
|  \\    /   O peration     | Version:  2412                                  |
|   \\  /    A nd           | Website:  www.openfoam.com                      |
|    \\/     M anipulation  |                                                 |
\*---------------------------------------------------------------------------*/
FoamFile
{
    version     2.0;
    format      ascii;
    arch        "LSB;label=32;scalar=64";
    class       surfaceScalarField;
    location    "0.26";
    object      phi;
}
// * * * * * * * * * * * * * * * * * * * * * * * * * * * * * * * * * * * * * //

dimensions      [0 3 -1 0 0 0 0];

oriented        oriented;

internalField   nonuniform List<scalar> 
24170
(
1.36706e-07
-5.71619e-08
1.95622e-07
-5.89156e-08
2.5792e-07
-6.22984e-08
3.11676e-07
-5.37563e-08
3.61817e-07
-5.01401e-08
4.07928e-07
-4.61118e-08
4.49577e-07
-4.16486e-08
4.87104e-07
-3.75272e-08
5.20896e-07
-3.37916e-08
5.51289e-07
-3.03932e-08
5.78609e-07
-2.73194e-08
6.03146e-07
-2.4537e-08
6.25143e-07
-2.19971e-08
6.44776e-07
-1.9633e-08
6.6218e-07
-1.74046e-08
6.77227e-07
-1.50465e-08
6.89911e-07
-1.26842e-08
-8.02422e-09
6.97935e-07
3.26112e-07
-1.24822e-07
3.94133e-07
-1.26937e-07
4.55889e-07
-1.24054e-07
5.1419e-07
-1.12057e-07
5.67686e-07
-1.03637e-07
6.16645e-07
-9.50706e-08
6.61289e-07
-8.62931e-08
7.01843e-07
-7.8081e-08
7.38603e-07
-7.05518e-08
7.7189e-07
-6.368e-08
8.02009e-07
-5.74383e-08
8.29234e-07
-5.17617e-08
8.53796e-07
-4.65595e-08
8.75875e-07
-4.17123e-08
8.95584e-07
-3.71135e-08
9.1292e-07
-3.23822e-08
9.27973e-07
-2.77369e-08
-1.99273e-08
9.39876e-07
5.17245e-07
-1.71611e-07
5.79152e-07
-1.88844e-07
6.38213e-07
-1.83115e-07
6.95372e-07
-1.69216e-07
7.48187e-07
-1.56452e-07
7.96795e-07
-1.43678e-07
8.41442e-07
-1.3094e-07
8.82264e-07
-1.18903e-07
9.19476e-07
-1.07764e-07
9.53343e-07
-9.7547e-08
9.84126e-07
-8.82205e-08
1.01206e-06
-7.96997e-08
1.03737e-06
-7.18622e-08
1.0602e-06
-6.45496e-08
1.08068e-06
-5.75915e-08
1.0989e-06
-5.06054e-08
1.11469e-06
-4.35244e-08
-3.34893e-08
1.12825e-06
7.4348e-07
-1.95421e-07
7.91922e-07
-2.37286e-07
8.43833e-07
-2.35027e-07
8.96368e-07
-2.2175e-07
9.46033e-07
-2.06116e-07
9.92314e-07
-1.8996e-07
1.03523e-06
-1.73856e-07
1.07478e-06
-1.58453e-07
1.11107e-06
-1.44058e-07
1.14429e-06
-1.30763e-07
1.17462e-06
-1.18555e-07
1.20227e-06
-1.07344e-07
1.2274e-06
-9.69926e-08
1.25017e-06
-8.73155e-08
1.27067e-06
-7.80989e-08
1.28903e-06
-6.89671e-08
1.30516e-06
-5.96452e-08
-4.80212e-08
1.31969e-06
1.01492e-06
-1.99876e-07
1.04731e-06
-2.69671e-07
1.08854e-06
-2.76254e-07
1.1334e-06
-2.66615e-07
1.17753e-06
-2.50247e-07
1.21953e-06
-2.3196e-07
1.25903e-06
-2.13352e-07
1.29582e-06
-1.9525e-07
1.32989e-06
-1.7812e-07
1.36128e-06
-1.62159e-07
1.39012e-06
-1.47396e-07
1.41654e-06
-1.3376e-07
1.44066e-06
-1.21112e-07
1.4626e-06
-1.09259e-07
1.48247e-06
-9.79679e-08
1.50039e-06
-8.68835e-08
1.5164e-06
-7.56568e-08
-6.2824e-08
1.5312e-06
1.33808e-06
-1.90517e-07
1.35427e-06
-2.85857e-07
1.38245e-06
-3.04439e-07
1.41696e-06
-3.01126e-07
1.45317e-06
-2.86455e-07
1.48885e-06
-2.67636e-07
1.52314e-06
-2.47644e-07
1.55561e-06
-2.27716e-07
1.58603e-06
-2.08548e-07
1.61435e-06
-1.9048e-07
1.64058e-06
-1.7362e-07
1.66476e-06
-1.57938e-07
1.68696e-06
-1.43315e-07
1.70727e-06
-1.2957e-07
1.72578e-06
-1.16474e-07
1.74261e-06
-1.03714e-07
1.7579e-06
-9.09527e-08
-7.7215e-08
1.77229e-06
1.71767e-06
-1.72907e-07
1.7193e-06
-2.87489e-07
1.73353e-06
-3.18671e-07
1.75572e-06
-3.23315e-07
1.78184e-06
-3.12574e-07
1.80918e-06
-2.94976e-07
1.83645e-06
-2.7491e-07
1.86294e-06
-2.54204e-07
1.88824e-06
-2.3385e-07
1.91214e-06
-2.14377e-07
1.93452e-06
-1.96006e-07
1.95536e-06
-1.78773e-07
1.97465e-06
-1.62603e-07
1.99242e-06
-1.47348e-07
2.00875e-06
-1.32805e-07
2.02376e-06
-1.18719e-07
2.03762e-06
-1.0481e-07
-9.04605e-08
2.05086e-06
2.15734e-06
-1.51553e-07
2.14717e-06
-2.77327e-07
2.14805e-06
-3.19547e-07
2.15705e-06
-3.32315e-07
2.17149e-06
-3.27009e-07
2.18875e-06
-3.12243e-07
2.20729e-06
-2.93449e-07
2.22619e-06
-2.73105e-07
2.24487e-06
-2.52529e-07
2.26296e-06
-2.32467e-07
2.28023e-06
-2.1328e-07
2.29656e-06
-1.95098e-07
2.31187e-06
-1.7791e-07
2.32613e-06
-1.61617e-07
2.3394e-06
-1.46066e-07
2.35174e-06
-1.31067e-07
2.36335e-06
-1.1642e-07
-1.01762e-07
2.37466e-06
2.66011e-06
-1.29476e-07
2.64127e-06
-2.58486e-07
2.63057e-06
-3.0885e-07
2.6268e-06
-3.28542e-07
2.62889e-06
-3.29101e-07
2.63493e-06
-3.18284e-07
2.64341e-06
-3.01926e-07
2.65334e-06
-2.83032e-07
2.66403e-06
-2.63219e-07
2.675e-06
-2.43438e-07
2.68592e-06
-2.24203e-07
2.69657e-06
-2.0575e-07
2.70681e-06
-1.8815e-07
2.71656e-06
-1.71369e-07
2.72581e-06
-1.55316e-07
2.73462e-06
-1.39871e-07
2.74312e-06
-1.24919e-07
-1.10276e-07
2.75163e-06
3.22874e-06
-1.08353e-07
3.204e-06
-2.33752e-07
3.18408e-06
-2.88926e-07
3.16904e-06
-3.13508e-07
3.15924e-06
-3.19292e-07
3.15377e-06
-3.12821e-07
3.1515e-06
-2.99653e-07
3.15153e-06
-2.83068e-07
3.1532e-06
-2.64888e-07
3.15598e-06
-2.46217e-07
3.15948e-06
-2.27701e-07
3.16341e-06
-2.09682e-07
3.16758e-06
-1.92315e-07
3.17185e-06
-1.7564e-07
3.17617e-06
-1.59634e-07
3.18054e-06
-1.44244e-07
3.18506e-06
-1.29439e-07
-1.1515e-07
3.18993e-06
3.8657e-06
-8.90289e-08
3.83718e-06
-2.05226e-07
3.81026e-06
-2.62002e-07
3.78607e-06
-2.8932e-07
3.76578e-06
-2.99009e-07
3.74952e-06
-2.96554e-07
3.73665e-06
-2.86789e-07
3.72658e-06
-2.72989e-07
3.71874e-06
-2.57057e-07
3.71269e-06
-2.40165e-07
3.70803e-06
-2.23039e-07
3.70445e-06
-2.06107e-07
3.70174e-06
-1.89598e-07
3.69972e-06
-1.73621e-07
3.6983e-06
-1.58214e-07
3.69744e-06
-1.43386e-07
3.69718e-06
-1.2918e-07
-1.15593e-07
3.69763e-06
3.81123e-06
-7.33566e-08
3.78552e-06
-1.79514e-07
3.75884e-06
-2.35318e-07
3.733e-06
-2.63485e-07
3.70932e-06
-2.75332e-07
3.68839e-06
-2.75622e-07
3.67011e-06
-2.68505e-07
3.65421e-06
-2.5709e-07
3.64042e-06
-2.43264e-07
3.62844e-06
-2.2819e-07
3.61802e-06
-2.12616e-07
3.60892e-06
-1.97007e-07
3.60095e-06
-1.81635e-07
3.59399e-06
-1.66656e-07
3.58792e-06
-1.52149e-07
3.58271e-06
-1.3817e-07
3.57828e-06
-1.24756e-07
-1.12151e-07
3.57484e-06
5.03713e-06
-5.77254e-08
5.00707e-06
-1.49456e-07
4.97361e-06
-2.01859e-07
4.93953e-06
-2.29402e-07
4.90653e-06
-2.42338e-07
4.87577e-06
-2.44855e-07
4.84753e-06
-2.40269e-07
4.8218e-06
-2.31357e-07
4.79846e-06
-2.19922e-07
4.77734e-06
-2.0707e-07
4.75824e-06
-1.9352e-07
4.74098e-06
-1.79741e-07
4.72537e-06
-1.6603e-07
4.71128e-06
-1.5257e-07
4.69861e-06
-1.39475e-07
4.68727e-06
-1.2683e-07
4.67721e-06
-1.14699e-07
-1.03422e-07
4.66849e-06
6.66244e-06
-4.26915e-08
6.62913e-06
-1.16147e-07
6.58918e-06
-1.61906e-07
6.54671e-06
-1.86938e-07
6.50387e-06
-1.99498e-07
6.46231e-06
-2.033e-07
6.42284e-06
-2.00796e-07
6.38572e-06
-1.94236e-07
6.35104e-06
-1.85244e-07
6.3188e-06
-1.74829e-07
6.28892e-06
-1.63641e-07
6.2613e-06
-1.52118e-07
6.23582e-06
-1.4055e-07
6.21238e-06
-1.29127e-07
6.19088e-06
-1.17975e-07
6.17124e-06
-1.07193e-07
6.1534e-06
-9.68625e-08
-8.73468e-08
6.13733e-06
8.79086e-06
-2.88901e-08
8.75646e-06
-8.17472e-08
8.71176e-06
-1.17202e-07
8.66209e-06
-1.37266e-07
8.61015e-06
-1.47562e-07
8.55807e-06
-1.5122e-07
8.50722e-06
-1.49941e-07
8.45827e-06
-1.45289e-07
8.41157e-06
-1.38549e-07
8.36732e-06
-1.30571e-07
8.32557e-06
-1.21896e-07
8.28634e-06
-1.12892e-07
8.24961e-06
-1.03814e-07
8.21532e-06
-9.48347e-08
8.18342e-06
-8.6075e-08
8.15385e-06
-7.76276e-08
8.12655e-06
-6.95607e-08
-6.22515e-08
8.10145e-06
1.15181e-05
-1.66173e-08
1.14848e-05
-4.84479e-08
1.14384e-05
-7.08019e-08
1.13845e-05
-8.34429e-08
1.13265e-05
-8.94819e-08
1.12665e-05
-9.1233e-08
1.12064e-05
-8.98406e-08
1.11473e-05
-8.62189e-08
1.10899e-05
-8.11989e-08
1.10347e-05
-7.53743e-08
1.0982e-05
-6.91204e-08
1.09318e-05
-6.2688e-08
1.08842e-05
-5.62567e-08
1.08393e-05
-4.99539e-08
1.07971e-05
-4.38734e-08
1.07576e-05
-3.80922e-08
1.07207e-05
-3.26374e-08
-2.78922e-08
1.06863e-05
1.48842e-05
-5.41118e-09
1.48525e-05
-1.67328e-08
1.48063e-05
-2.45763e-08
1.47511e-05
-2.82187e-08
1.46904e-05
-2.88232e-08
1.46267e-05
-2.75588e-08
1.45619e-05
-2.50142e-08
1.44973e-05
-2.15866e-08
1.44337e-05
-1.7656e-08
1.43719e-05
-1.35163e-08
1.43121e-05
-9.35198e-09
1.42547e-05
-5.28117e-09
1.41998e-05
-1.39433e-09
1.41476e-05
2.26389e-09
1.40981e-05
5.63837e-09
1.40513e-05
8.68309e-09
1.40073e-05
1.14287e-08
1.3525e-08
1.39658e-05
1.8769e-05
6.26414e-09
1.87365e-05
1.58011e-08
1.86883e-05
2.36147e-08
1.86301e-05
2.99727e-08
1.85661e-05
3.52156e-08
1.84989e-05
3.96085e-08
1.84306e-05
4.33185e-08
1.83625e-05
4.64685e-08
1.82957e-05
4.91532e-08
1.82308e-05
5.14389e-08
1.8168e-05
5.33701e-08
1.81078e-05
5.49767e-08
1.80501e-05
5.62785e-08
1.79951e-05
5.72865e-08
1.79427e-05
5.80067e-08
1.7893e-05
5.84265e-08
1.78458e-05
5.86047e-08
5.82814e-08
1.7801e-05
2.26768e-05
1.69952e-08
2.26398e-05
5.27564e-08
2.25834e-05
8.00173e-08
2.25148e-05
9.85745e-08
2.24391e-05
1.10922e-07
2.23597e-05
1.19066e-07
2.22789e-05
1.24065e-07
2.21987e-05
1.26696e-07
2.21202e-05
1.27658e-07
2.20442e-05
1.27471e-07
2.19711e-05
1.26476e-07
2.19011e-05
1.24901e-07
2.18345e-05
1.22905e-07
2.17712e-05
1.20601e-07
2.17111e-05
1.18066e-07
2.16542e-05
1.15348e-07
2.16003e-05
1.12507e-07
1.09402e-07
2.15492e-05
1.5604e-05
3.26417e-08
1.55641e-05
9.26178e-08
1.55091e-05
1.35034e-07
1.54456e-05
1.62012e-07
1.53777e-05
1.78853e-07
1.5308e-05
1.88773e-07
1.52386e-05
1.93489e-07
1.51708e-05
1.94462e-07
1.51055e-05
1.92934e-07
1.50432e-05
1.89769e-07
1.49842e-05
1.85532e-07
1.49285e-05
1.80608e-07
1.48761e-05
1.75271e-07
1.4827e-05
1.69712e-07
1.4781e-05
1.64062e-07
1.47379e-05
1.58413e-07
1.46976e-05
1.52827e-07
1.47243e-07
1.46598e-05
1.23902e-05
5.12343e-08
1.23448e-05
1.38093e-07
1.22864e-05
1.93396e-07
1.22225e-05
2.259e-07
1.21566e-05
2.44755e-07
1.20913e-05
2.54075e-07
1.20284e-05
2.56393e-07
1.19688e-05
2.5404e-07
1.1913e-05
2.48771e-07
1.18611e-05
2.41708e-07
1.1813e-05
2.33576e-07
1.17687e-05
2.24877e-07
1.17281e-05
2.1595e-07
1.16907e-05
2.07023e-07
1.16566e-05
1.98242e-07
1.16253e-05
1.89707e-07
1.15966e-05
1.81461e-07
1.73493e-07
1.15704e-05
9.55928e-06
7.55425e-08
9.50978e-06
1.87598e-07
9.45371e-06
2.49468e-07
9.39689e-06
2.82718e-07
9.34169e-06
2.99952e-07
9.29011e-06
3.05656e-07
9.24309e-06
3.03411e-07
9.20078e-06
2.96355e-07
9.16302e-06
2.86533e-07
9.12955e-06
2.75174e-07
9.10005e-06
2.63078e-07
9.07415e-06
2.50777e-07
9.05148e-06
2.38612e-07
9.03172e-06
2.2679e-07
9.01452e-06
2.15435e-07
8.99962e-06
2.04614e-07
8.98673e-06
1.94347e-07
1.84635e-07
8.97559e-06
7.18003e-06
1.04962e-07
7.13264e-06
2.34992e-07
7.08699e-06
2.95112e-07
7.04542e-06
3.24295e-07
7.00919e-06
3.3618e-07
6.97925e-06
3.35595e-07
6.95527e-06
3.27387e-07
6.93649e-06
3.15137e-07
6.92217e-06
3.00853e-07
6.91164e-06
2.85703e-07
6.90429e-06
2.70429e-07
6.89958e-06
2.55485e-07
6.89706e-06
2.4113e-07
6.89636e-06
2.27499e-07
6.89714e-06
2.14652e-07
6.89915e-06
2.02604e-07
6.90216e-06
1.91334e-07
1.80836e-07
6.90596e-06
5.24556e-06
1.3812e-07
5.20786e-06
2.72692e-07
5.18042e-06
3.22546e-07
5.16161e-06
3.43112e-07
5.15134e-06
3.46449e-07
5.14856e-06
3.38372e-07
5.15145e-06
3.24501e-07
5.1585e-06
3.08086e-07
5.16861e-06
2.90737e-07
5.18094e-06
2.73373e-07
5.19483e-06
2.56546e-07
5.20976e-06
2.4055e-07
5.22537e-06
2.25521e-07
5.24137e-06
2.115e-07
5.25755e-06
1.98476e-07
5.27374e-06
1.8641e-07
5.28983e-06
1.75246e-07
1.64969e-07
5.3057e-06
3.71461e-06
1.71643e-07
3.69607e-06
2.91236e-07
3.69442e-06
3.24196e-07
3.70433e-06
3.33194e-07
3.72341e-06
3.27377e-07
3.74838e-06
3.13401e-07
3.77668e-06
2.96199e-07
3.80677e-06
2.78e-07
3.83764e-06
2.59861e-07
3.86862e-06
2.4239e-07
3.89926e-06
2.25912e-07
3.92925e-06
2.10562e-07
3.9584e-06
1.96366e-07
3.98661e-06
1.83292e-07
4.01381e-06
1.71278e-07
4.03997e-06
1.60248e-07
4.06509e-06
1.50125e-07
1.40892e-07
4.08917e-06
2.5354e-06
1.96843e-07
2.54624e-06
2.80392e-07
2.57485e-06
2.95583e-07
2.61417e-06
2.93877e-07
2.65963e-06
2.81923e-07
2.70723e-06
2.658e-07
2.75495e-06
2.48479e-07
2.80179e-06
2.31161e-07
2.84715e-06
2.14496e-07
2.8907e-06
1.98836e-07
2.93229e-06
1.8433e-07
2.97184e-06
1.71004e-07
3.00939e-06
1.58819e-07
3.04498e-06
1.47701e-07
3.07869e-06
1.37565e-07
3.11062e-06
1.2832e-07
3.14086e-06
1.19885e-07
1.1226e-07
3.16949e-06
1.65469e-06
1.99257e-07
1.70056e-06
2.34526e-07
1.75707e-06
2.39071e-07
1.81981e-06
2.31139e-07
1.88376e-06
2.17976e-07
1.94595e-06
2.03606e-07
2.00552e-06
1.88906e-07
2.06211e-06
1.74577e-07
2.11552e-06
1.61083e-07
2.16575e-06
1.48606e-07
2.21289e-06
1.37185e-07
2.2571e-06
1.26797e-07
2.29854e-06
1.17376e-07
2.33741e-06
1.08839e-07
2.37387e-06
1.011e-07
2.40811e-06
9.40772e-08
2.44031e-06
8.76907e-08
8.19782e-08
2.47059e-06
1.01827e-06
1.63846e-07
1.09488e-06
1.57921e-07
1.17023e-06
1.63716e-07
1.24668e-06
1.54691e-07
1.32007e-06
1.4459e-07
1.38904e-06
1.34633e-07
1.45366e-06
1.24283e-07
1.51399e-06
1.14252e-07
1.57012e-06
1.04951e-07
1.62228e-06
9.64446e-08
1.67075e-06
8.87222e-08
1.71579e-06
8.17478e-08
1.75771e-06
7.54623e-08
1.79675e-06
6.97963e-08
1.83317e-06
6.46822e-08
1.86719e-06
6.00592e-08
1.89903e-06
5.58479e-08
5.2124e-08
1.92888e-06
5.69236e-07
8.45264e-08
6.58979e-07
6.81779e-08
7.40757e-07
8.19381e-08
8.20847e-07
7.46008e-08
8.9584e-07
6.95974e-08
9.65385e-07
6.5087e-08
1.0298e-06
5.98707e-08
1.08929e-06
5.47547e-08
1.14416e-06
5.00886e-08
1.19474e-06
4.58617e-08
1.24142e-06
4.20447e-08
1.28455e-06
3.86171e-08
1.32447e-06
3.55448e-08
1.36147e-06
3.27882e-08
1.39585e-06
3.03089e-08
1.42783e-06
2.80784e-08
1.45765e-06
2.60246e-08
2.41961e-08
1.48558e-06
2.22451e-07
2.90628e-07
3.72567e-07
4.47167e-07
5.16765e-07
5.81852e-07
6.41722e-07
6.96477e-07
7.46566e-07
7.92427e-07
8.34472e-07
8.73089e-07
9.08634e-07
9.41422e-07
9.71731e-07
9.9981e-07
1.02583e-06
1.05003e-06
1.82969e-08
-1.82969e-08
4.15218e-08
-2.3225e-08
6.18312e-08
-2.03094e-08
7.67234e-08
-1.48923e-08
8.52903e-08
-8.56682e-09
8.74834e-08
-2.19314e-09
8.38466e-08
3.63685e-09
7.53654e-08
8.48114e-09
6.3115e-08
1.22504e-08
4.79674e-08
1.51476e-08
3.04623e-08
1.75051e-08
1.08237e-08
1.96386e-08
-1.09628e-08
2.17865e-08
-3.50718e-08
2.4109e-08
-6.17396e-08
2.66678e-08
-9.11935e-08
2.94539e-08
-1.2362e-07
3.24268e-08
-1.59139e-07
3.55191e-08
-1.9779e-07
3.86503e-08
-2.39524e-07
4.17344e-08
-2.8421e-07
4.46854e-08
-3.31633e-07
4.74235e-08
-3.81512e-07
4.98793e-08
-4.33511e-07
5.19984e-08
-4.87254e-07
5.3743e-08
-5.42347e-07
5.50933e-08
-5.98393e-07
5.60463e-08
-6.55008e-07
5.66144e-08
-7.11831e-07
5.68234e-08
-7.68545e-07
5.67137e-08
-8.24883e-07
5.63384e-08
-8.80634e-07
5.57512e-08
-9.35622e-07
5.49879e-08
-9.89697e-07
5.40752e-08
-1.04274e-06
5.3041e-08
-1.09465e-06
5.19112e-08
-1.14536e-06
5.0709e-08
-1.19481e-06
4.9454e-08
-1.24298e-06
4.81629e-08
-1.28982e-06
4.68488e-08
-1.33535e-06
4.55221e-08
-1.37954e-06
4.41903e-08
-1.4224e-06
4.28586e-08
-1.46393e-06
4.15307e-08
-1.50413e-06
4.02084e-08
-1.54303e-06
3.88925e-08
-1.58061e-06
3.7583e-08
-1.61689e-06
3.62791e-08
-1.65187e-06
3.49797e-08
-1.68555e-06
3.36837e-08
-1.71794e-06
3.23895e-08
-1.74904e-06
3.10957e-08
-1.77884e-06
2.98012e-08
-1.80734e-06
2.85046e-08
-1.83455e-06
2.7205e-08
-1.86045e-06
2.59015e-08
-1.88504e-06
2.45936e-08
-1.90832e-06
2.32805e-08
-1.93029e-06
2.19621e-08
-1.95092e-06
2.0638e-08
-1.97023e-06
1.9308e-08
-1.9882e-06
1.7972e-08
-2.00483e-06
1.66296e-08
-2.02011e-06
1.52803e-08
-2.03404e-06
1.39235e-08
-2.0466e-06
1.25579e-08
-2.05778e-06
1.11815e-08
-2.06757e-06
9.79087e-09
-2.07595e-06
8.38206e-09
-2.0829e-06
6.94983e-09
-2.08839e-06
5.48686e-09
-2.09237e-06
3.98409e-09
-2.09481e-06
2.43708e-09
-2.09564e-06
8.3102e-10
-2.09497e-06
-6.70153e-10
-2.09301e-06
-1.9613e-09
-2.08982e-06
-3.18826e-09
-2.08545e-06
-4.37256e-09
-2.07991e-06
-5.53295e-09
-2.07323e-06
-6.67923e-09
-2.06542e-06
-7.81508e-09
-2.05648e-06
-8.94176e-09
-2.04642e-06
-1.00594e-08
-2.03525e-06
-1.11676e-08
-2.02298e-06
-1.22658e-08
-2.00963e-06
-1.33536e-08
-1.9952e-06
-1.44301e-08
-1.97971e-06
-1.54949e-08
-1.96316e-06
-1.65474e-08
-1.94557e-06
-1.75869e-08
-1.92696e-06
-1.8613e-08
-1.90733e-06
-1.96253e-08
-1.88671e-06
-2.06232e-08
-1.8651e-06
-2.16062e-08
-1.84253e-06
-2.25741e-08
-1.819e-06
-2.35263e-08
-1.79454e-06
-2.44624e-08
-1.76916e-06
-2.5382e-08
-1.74287e-06
-2.62848e-08
-1.7157e-06
-2.71703e-08
-1.68767e-06
-2.80381e-08
-1.65878e-06
-2.88879e-08
-1.62906e-06
-2.97191e-08
-1.59853e-06
-3.05315e-08
-1.5672e-06
-3.13247e-08
-1.5351e-06
-3.20981e-08
-1.50225e-06
-3.28513e-08
-1.46867e-06
-3.35839e-08
-1.43437e-06
-3.42954e-08
-1.39939e-06
-3.49852e-08
-1.36374e-06
-3.5653e-08
-1.32744e-06
-3.62982e-08
-1.29052e-06
-3.69203e-08
-1.253e-06
-3.75188e-08
-1.21491e-06
-3.80932e-08
-1.17626e-06
-3.8643e-08
-1.13709e-06
-3.91676e-08
-1.09743e-06
-3.96665e-08
-1.05729e-06
-4.01393e-08
-1.0167e-06
-4.05855e-08
-9.75699e-07
-4.10045e-08
-9.34303e-07
-4.1396e-08
-8.92543e-07
-4.17596e-08
-8.50449e-07
-4.20948e-08
-8.08047e-07
-4.24014e-08
-7.65368e-07
-4.26789e-08
-7.22441e-07
-4.2927e-08
-6.79296e-07
-4.31457e-08
-6.35961e-07
-4.33345e-08
-5.92468e-07
-4.34934e-08
-5.48846e-07
-4.36221e-08
-5.05125e-07
-4.37207e-08
-4.61336e-07
-4.37888e-08
-4.1751e-07
-4.38264e-08
-3.73676e-07
-4.38333e-08
-3.29867e-07
-4.38092e-08
-2.86114e-07
-4.37536e-08
-2.42448e-07
-4.36659e-08
-1.98902e-07
-4.35455e-08
-1.55512e-07
-4.33899e-08
-1.12313e-07
-4.31999e-08
-6.93355e-08
-4.2977e-08
-2.66196e-08
-4.27159e-08
1.57982e-08
-4.24178e-08
5.78771e-08
-4.20789e-08
9.95867e-08
-4.17096e-08
1.40911e-07
-4.13247e-08
1.81847e-07
-4.09354e-08
2.22387e-07
-4.05401e-08
2.62523e-07
-4.01364e-08
3.02246e-07
-3.97225e-08
3.41543e-07
-3.92977e-08
3.80405e-07
-3.88618e-08
4.18821e-07
-3.84154e-08
4.5678e-07
-3.7959e-08
4.94273e-07
-3.74938e-08
5.31294e-07
-3.70206e-08
5.67835e-07
-3.65408e-08
6.0389e-07
-3.60555e-08
6.39456e-07
-3.55658e-08
6.74529e-07
-3.50728e-08
7.09106e-07
-3.45772e-08
7.43186e-07
-3.40796e-08
7.76766e-07
-3.358e-08
8.09844e-07
-3.3078e-08
8.42416e-07
-3.25719e-08
8.74474e-07
-3.20587e-08
9.06008e-07
-3.15336e-08
9.36996e-07
-3.09883e-08
9.67407e-07
-3.04102e-08
9.97186e-07
-2.97791e-08
1.02625e-06
-2.90627e-08
1.05446e-06
-2.82072e-08
1.08158e-06
-2.71214e-08
1.1072e-06
-2.56278e-08
1.13059e-06
-2.33844e-08
1.15002e-06
-1.94342e-08
1.16164e-06
-1.16206e-08
1.15284e-06
8.80392e-09
5.40615e-08
1.09878e-06
1.76904e-08
-3.59873e-08
2.82151e-08
-3.37496e-08
3.10848e-08
-2.31791e-08
2.83168e-08
-1.21242e-08
2.12301e-08
-1.48016e-09
1.05685e-08
8.4685e-09
-3.34524e-09
1.75506e-08
-2.05362e-08
2.56721e-08
-4.11267e-08
3.28409e-08
-6.51949e-08
3.92158e-08
-9.27466e-08
4.50568e-08
-1.23742e-07
5.06337e-08
-1.58109e-07
5.61543e-08
-1.95738e-07
6.17377e-08
-2.36485e-07
6.74148e-08
-2.80174e-07
7.3143e-08
-3.26576e-07
7.88282e-08
-3.75404e-07
8.43477e-08
-4.26323e-07
8.95688e-08
-4.78952e-07
9.43633e-08
-5.32885e-07
9.86188e-08
-5.87708e-07
1.02247e-07
-6.43015e-07
1.05186e-07
-6.98424e-07
1.07407e-07
-7.53589e-07
1.08908e-07
-8.08211e-07
1.09715e-07
-8.6204e-07
1.09875e-07
-9.14876e-07
1.09451e-07
-9.66571e-07
1.08518e-07
-1.01702e-06
1.07158e-07
-1.06613e-06
1.05454e-07
-1.11386e-06
1.0348e-07
-1.16017e-06
1.01296e-07
-1.20505e-06
9.89551e-08
-1.24851e-06
9.6501e-08
-1.29057e-06
9.39709e-08
-1.33125e-06
9.1395e-08
-1.3706e-06
8.87967e-08
-1.40863e-06
8.6194e-08
-1.44538e-06
8.35995e-08
-1.48088e-06
8.10217e-08
-1.51515e-06
7.84657e-08
-1.54823e-06
7.59338e-08
-1.58012e-06
7.34262e-08
-1.61086e-06
7.09415e-08
-1.64044e-06
6.84775e-08
-1.66889e-06
6.60309e-08
-1.69621e-06
6.35985e-08
-1.72241e-06
6.11767e-08
-1.74749e-06
5.8762e-08
-1.77145e-06
5.63512e-08
-1.79429e-06
5.39413e-08
-1.81602e-06
5.15297e-08
-1.83663e-06
4.91141e-08
-1.85612e-06
4.66927e-08
-1.87448e-06
4.42642e-08
-1.89171e-06
4.18273e-08
-1.90782e-06
3.93814e-08
-1.92278e-06
3.69262e-08
-1.9366e-06
3.44613e-08
-1.94928e-06
3.19869e-08
-1.96081e-06
2.95032e-08
-1.97119e-06
2.70103e-08
-1.98042e-06
2.45087e-08
-1.9885e-06
2.19986e-08
-1.99542e-06
1.94803e-08
-2.00119e-06
1.69542e-08
-2.00582e-06
1.44207e-08
-2.00932e-06
1.18808e-08
-2.01171e-06
9.33654e-09
-2.01301e-06
6.79202e-09
-2.01328e-06
4.25543e-09
-2.01259e-06
1.74515e-09
-2.01105e-06
-7.15726e-10
-2.00859e-06
-3.12241e-09
-2.0051e-06
-5.45717e-09
-2.00052e-06
-7.76925e-09
-1.99483e-06
-1.00628e-08
-1.98802e-06
-1.23393e-08
-1.9801e-06
-1.46003e-08
-1.97107e-06
-1.68461e-08
-1.96093e-06
-1.90761e-08
-1.9497e-06
-2.12894e-08
-1.93739e-06
-2.34847e-08
-1.92399e-06
-2.56609e-08
-1.90953e-06
-2.78166e-08
-1.89401e-06
-2.99504e-08
-1.87744e-06
-3.20613e-08
-1.85984e-06
-3.41478e-08
-1.84122e-06
-3.6209e-08
-1.82159e-06
-3.82439e-08
-1.80096e-06
-4.02513e-08
-1.77935e-06
-4.22304e-08
-1.75678e-06
-4.41802e-08
-1.73325e-06
-4.60999e-08
-1.70879e-06
-4.79886e-08
-1.68341e-06
-4.98455e-08
-1.65712e-06
-5.16698e-08
-1.62995e-06
-5.34605e-08
-1.6019e-06
-5.52169e-08
-1.573e-06
-5.69382e-08
-1.54326e-06
-5.86236e-08
-1.51271e-06
-6.02722e-08
-1.48136e-06
-6.18832e-08
-1.44923e-06
-6.34558e-08
-1.41634e-06
-6.49891e-08
-1.38271e-06
-6.64822e-08
-1.34836e-06
-6.79342e-08
-1.31331e-06
-6.93441e-08
-1.27758e-06
-7.07108e-08
-1.2412e-06
-7.20334e-08
-1.20419e-06
-7.3311e-08
-1.16657e-06
-7.45425e-08
-1.12836e-06
-7.57269e-08
-1.08959e-06
-7.68631e-08
-1.05028e-06
-7.79502e-08
-1.01046e-06
-7.89869e-08
-9.70155e-07
-7.99725e-08
-9.29389e-07
-8.09058e-08
-8.88188e-07
-8.1786e-08
-8.46581e-07
-8.26121e-08
-8.04593e-07
-8.33831e-08
-7.62255e-07
-8.40983e-08
-7.19593e-07
-8.4757e-08
-6.76636e-07
-8.53584e-08
-6.33413e-07
-8.59017e-08
-5.89953e-07
-8.63866e-08
-5.46286e-07
-8.68124e-08
-5.02442e-07
-8.71789e-08
-4.5845e-07
-8.74854e-08
-4.1434e-07
-8.7732e-08
-3.70143e-07
-8.79182e-08
-3.25888e-07
-8.80438e-08
-2.81605e-07
-8.81086e-08
-2.37326e-07
-8.81124e-08
-1.93081e-07
-8.80546e-08
-1.489e-07
-8.79347e-08
-1.04814e-07
-8.77514e-08
-6.08552e-08
-8.75045e-08
-1.70539e-08
-8.71912e-08
2.6557e-08
-8.68108e-08
6.99447e-08
-8.63647e-08
1.13081e-07
-8.58523e-08
1.55942e-07
-8.52789e-08
1.98509e-07
-8.46453e-08
2.40759e-07
-8.39599e-08
2.82674e-07
-8.32393e-08
3.24232e-07
-8.24941e-08
3.65418e-07
-8.17264e-08
4.06218e-07
-8.09356e-08
4.46616e-07
-8.01212e-08
4.86602e-07
-7.92829e-08
5.26161e-07
-7.84216e-08
5.65284e-07
-7.75385e-08
6.03961e-07
-7.66353e-08
6.42181e-07
-7.57143e-08
6.79938e-07
-7.47775e-08
7.17225e-07
-7.38275e-08
7.54036e-07
-7.28666e-08
7.90367e-07
-7.18971e-08
8.26215e-07
-7.0921e-08
8.61578e-07
-6.99401e-08
8.96454e-07
-6.89554e-08
9.30841e-07
-6.7967e-08
9.64737e-07
-6.69738e-08
9.98138e-07
-6.59726e-08
1.03104e-06
-6.49576e-08
1.06342e-06
-6.39188e-08
1.09527e-06
-6.28401e-08
1.12656e-06
-6.16961e-08
1.15723e-06
-6.04469e-08
1.18719e-06
-5.90291e-08
1.21632e-06
-5.73383e-08
1.2444e-06
-5.51982e-08
1.27106e-06
-5.22817e-08
1.29565e-06
-4.79799e-08
1.31707e-06
-4.08545e-08
1.33373e-06
-2.82818e-08
1.34404e-06
-1.50101e-09
5.34741e-08
1.34462e-06
4.65158e-09
-4.06389e-08
-4.04923e-10
-2.86931e-08
-1.03407e-08
-1.32433e-08
-2.36018e-08
1.1369e-09
-3.95359e-08
1.44539e-08
-5.79702e-08
2.69028e-08
-7.89185e-08
3.84989e-08
-1.02512e-07
4.92652e-08
-1.28927e-07
5.92563e-08
-1.583e-07
6.85888e-08
-1.90666e-07
7.74228e-08
-2.25947e-07
8.59145e-08
-2.63964e-07
9.4172e-08
-3.04461e-07
1.02234e-07
-3.47116e-07
1.1007e-07
-3.91571e-07
1.17598e-07
-4.37443e-07
1.247e-07
-4.84342e-07
1.31246e-07
-5.31887e-07
1.37114e-07
-5.79721e-07
1.42197e-07
-6.27523e-07
1.46421e-07
-6.75016e-07
1.4974e-07
-7.21975e-07
1.52145e-07
-7.68225e-07
1.53657e-07
-8.13638e-07
1.54322e-07
-8.58132e-07
1.54209e-07
-9.01657e-07
1.534e-07
-9.44193e-07
1.51987e-07
-9.85737e-07
1.50062e-07
-1.0263e-06
1.47717e-07
-1.06588e-06
1.45038e-07
-1.1045e-06
1.42101e-07
-1.14217e-06
1.38969e-07
-1.17892e-06
1.35697e-07
-1.21474e-06
1.32329e-07
-1.24967e-06
1.28899e-07
-1.28371e-06
1.25437e-07
-1.31688e-06
1.21963e-07
-1.34918e-06
1.18491e-07
-1.38061e-06
1.15031e-07
-1.41118e-06
1.11591e-07
-1.44088e-06
1.08171e-07
-1.46972e-06
1.04773e-07
-1.49769e-06
1.01395e-07
-1.52478e-06
9.80338e-08
-1.55099e-06
9.46857e-08
-1.57631e-06
9.13465e-08
-1.60072e-06
8.8012e-08
-1.62422e-06
8.46777e-08
-1.6468e-06
8.13396e-08
-1.66844e-06
7.7994e-08
-1.68914e-06
7.46376e-08
-1.70888e-06
7.12677e-08
-1.72764e-06
6.78819e-08
-1.74543e-06
6.44785e-08
-1.76222e-06
6.10564e-08
-1.77801e-06
5.76148e-08
-1.79278e-06
5.41536e-08
-1.80653e-06
5.06729e-08
-1.81924e-06
4.71734e-08
-1.83091e-06
4.36559e-08
-1.84153e-06
4.01217e-08
-1.85109e-06
3.65723e-08
-1.85959e-06
3.30094e-08
-1.86703e-06
2.94351e-08
-1.8734e-06
2.58517e-08
-1.87871e-06
2.22617e-08
-1.88295e-06
1.86687e-08
-1.88615e-06
1.50765e-08
-1.8883e-06
1.14906e-08
-1.88943e-06
7.91789e-09
-1.88954e-06
4.36725e-09
-1.88865e-06
8.48764e-10
-1.88673e-06
-2.6274e-09
-1.88379e-06
-6.06689e-09
-1.87977e-06
-9.47607e-09
-1.87467e-06
-1.28658e-08
-1.8685e-06
-1.62388e-08
-1.86124e-06
-1.95949e-08
-1.85291e-06
-2.29331e-08
-1.8435e-06
-2.62517e-08
-1.83303e-06
-2.95488e-08
-1.8215e-06
-3.28224e-08
-1.80891e-06
-3.60703e-08
-1.79528e-06
-3.92905e-08
-1.78062e-06
-4.2481e-08
-1.76493e-06
-4.56398e-08
-1.74823e-06
-4.87648e-08
-1.73052e-06
-5.18545e-08
-1.71182e-06
-5.4907e-08
-1.69214e-06
-5.79207e-08
-1.6715e-06
-6.08942e-08
-1.64991e-06
-6.3826e-08
-1.62737e-06
-6.67147e-08
-1.60391e-06
-6.9559e-08
-1.57954e-06
-7.23576e-08
-1.55428e-06
-7.51092e-08
-1.52814e-06
-7.78126e-08
-1.50113e-06
-8.04664e-08
-1.47328e-06
-8.30694e-08
-1.4446e-06
-8.56204e-08
-1.4151e-06
-8.81181e-08
-1.38481e-06
-9.05613e-08
-1.35375e-06
-9.29488e-08
-1.32192e-06
-9.52792e-08
-1.28936e-06
-9.75513e-08
-1.25608e-06
-9.97636e-08
-1.2221e-06
-1.01915e-07
-1.18744e-06
-1.04003e-07
-1.15212e-06
-1.06028e-07
-1.11617e-06
-1.07987e-07
-1.0796e-06
-1.09879e-07
-1.04244e-06
-1.11702e-07
-1.00472e-06
-1.13455e-07
-9.66442e-07
-1.15137e-07
-9.27647e-07
-1.16745e-07
-8.88356e-07
-1.18278e-07
-8.48593e-07
-1.19735e-07
-8.08383e-07
-1.21115e-07
-7.67754e-07
-1.22415e-07
-7.26731e-07
-1.23635e-07
-6.85342e-07
-1.24773e-07
-6.43612e-07
-1.25828e-07
-6.01571e-07
-1.26798e-07
-5.59246e-07
-1.27683e-07
-5.16666e-07
-1.28482e-07
-4.73859e-07
-1.29194e-07
-4.30854e-07
-1.29818e-07
-3.8768e-07
-1.30353e-07
-3.44366e-07
-1.30799e-07
-3.00941e-07
-1.31156e-07
-2.57436e-07
-1.31424e-07
-2.13879e-07
-1.31601e-07
-1.703e-07
-1.31688e-07
-1.26729e-07
-1.31684e-07
-8.31946e-08
-1.31589e-07
-3.9727e-08
-1.31402e-07
3.64505e-09
-1.31123e-07
4.68909e-08
-1.3075e-07
8.99813e-08
-1.30282e-07
1.32888e-07
-1.29717e-07
1.75583e-07
-1.2906e-07
2.18044e-07
-1.28313e-07
2.60254e-07
-1.27489e-07
3.022e-07
-1.26591e-07
3.43862e-07
-1.25622e-07
3.85214e-07
-1.24591e-07
4.26231e-07
-1.23511e-07
4.66892e-07
-1.22388e-07
5.0718e-07
-1.21223e-07
5.47078e-07
-1.20019e-07
5.86573e-07
-1.18778e-07
6.25652e-07
-1.175e-07
6.64303e-07
-1.16189e-07
7.02515e-07
-1.14848e-07
7.40281e-07
-1.1348e-07
7.77593e-07
-1.12089e-07
8.14443e-07
-1.10678e-07
8.50827e-07
-1.09251e-07
8.86741e-07
-1.07811e-07
9.22182e-07
-1.06362e-07
9.57148e-07
-1.04906e-07
9.91637e-07
-1.03444e-07
1.02565e-06
-1.01978e-07
1.05918e-06
-1.00504e-07
1.09223e-06
-9.90196e-08
1.12478e-06
-9.75147e-08
1.15684e-06
-9.5975e-08
1.18838e-06
-9.43767e-08
1.21936e-06
-9.26826e-08
1.24975e-06
-9.08345e-08
1.27946e-06
-8.87406e-08
1.30837e-06
-8.62522e-08
1.3363e-06
-8.31222e-08
1.36293e-06
-7.89122e-08
1.38779e-06
-7.28361e-08
1.41019e-06
-6.32609e-08
1.42928e-06
-4.73662e-08
1.44556e-06
-1.77851e-08
3.63882e-08
1.46265e-06
-9.92541e-09
-3.07135e-08
-2.6274e-08
-1.23445e-08
-4.49281e-08
5.41082e-09
-6.5212e-08
2.14207e-08
-8.71207e-08
3.63626e-08
-1.1071e-07
5.04918e-08
-1.36111e-07
6.39e-08
-1.63468e-07
7.6622e-08
-1.92902e-07
8.86908e-08
-2.24471e-07
1.00158e-07
-2.58134e-07
1.11086e-07
-2.93747e-07
1.21527e-07
-3.31077e-07
1.31502e-07
-3.69829e-07
1.40986e-07
-4.09672e-07
1.49914e-07
-4.50265e-07
1.58191e-07
-4.91279e-07
1.65713e-07
-5.32411e-07
1.72379e-07
-5.73401e-07
1.78104e-07
-6.14037e-07
1.82833e-07
-6.54156e-07
1.8654e-07
-6.93646e-07
1.8923e-07
-7.32437e-07
1.90936e-07
-7.70498e-07
1.91717e-07
-8.07824e-07
1.91648e-07
-8.44432e-07
1.90817e-07
-8.80348e-07
1.89316e-07
-9.15604e-07
1.87243e-07
-9.50231e-07
1.84688e-07
-9.84254e-07
1.8174e-07
-1.01769e-06
1.78476e-07
-1.05055e-06
1.74965e-07
-1.08285e-06
1.71266e-07
-1.11458e-06
1.67428e-07
-1.14574e-06
1.63491e-07
-1.17633e-06
1.59486e-07
-1.20633e-06
1.55439e-07
-1.23574e-06
1.51366e-07
-1.26453e-06
1.47282e-07
-1.29269e-06
1.43194e-07
-1.32021e-06
1.39108e-07
-1.34706e-06
1.35024e-07
-1.37323e-06
1.30944e-07
-1.3987e-06
1.26864e-07
-1.42345e-06
1.22782e-07
-1.44746e-06
1.18694e-07
-1.4707e-06
1.14595e-07
-1.49318e-06
1.10483e-07
-1.51485e-06
1.06352e-07
-1.53571e-06
1.02198e-07
-1.55573e-06
9.80188e-08
-1.57491e-06
9.38111e-08
-1.59321e-06
8.95725e-08
-1.61063e-06
8.53013e-08
-1.62715e-06
8.09964e-08
-1.64275e-06
7.66573e-08
-1.65742e-06
7.22841e-08
-1.67114e-06
6.78774e-08
-1.68391e-06
6.34385e-08
-1.6957e-06
5.89688e-08
-1.70652e-06
5.44705e-08
-1.71634e-06
4.99461e-08
-1.72517e-06
4.53985e-08
-1.73299e-06
4.08307e-08
-1.7398e-06
3.62464e-08
-1.7456e-06
3.16495e-08
-1.75038e-06
2.70444e-08
-1.75415e-06
2.24358e-08
-1.7569e-06
1.78293e-08
-1.75864e-06
1.32306e-08
-1.75937e-06
8.64635e-09
-1.75909e-06
4.08307e-09
-1.75778e-06
-4.53672e-10
-1.75545e-06
-4.96031e-09
-1.75208e-06
-9.43897e-09
-1.74766e-06
-1.38948e-08
-1.74219e-06
-1.83318e-08
-1.73568e-06
-2.27506e-08
-1.72813e-06
-2.715e-08
-1.71953e-06
-3.1528e-08
-1.7099e-06
-3.58819e-08
-1.69924e-06
-4.02088e-08
-1.68756e-06
-4.45058e-08
-1.67486e-06
-4.877e-08
-1.66115e-06
-5.29986e-08
-1.64644e-06
-5.71886e-08
-1.63074e-06
-6.13377e-08
-1.61407e-06
-6.5443e-08
-1.59642e-06
-6.95023e-08
-1.57781e-06
-7.35133e-08
-1.55826e-06
-7.74739e-08
-1.53777e-06
-8.13819e-08
-1.51636e-06
-8.52354e-08
-1.49404e-06
-8.90327e-08
-1.47083e-06
-9.27719e-08
-1.44674e-06
-9.64513e-08
-1.42178e-06
-1.00069e-07
-1.39597e-06
-1.03624e-07
-1.36932e-06
-1.07113e-07
-1.34185e-06
-1.10536e-07
-1.31358e-06
-1.13891e-07
-1.28452e-06
-1.17176e-07
-1.2547e-06