/*--------------------------------*- C++ -*----------------------------------*\
| =========                 |                                                 |
| \\      /  F ield         | OpenFOAM: The Open Source CFD Toolbox           |
|  \\    /   O peration     | Version:  2412                                  |
|   \\  /    A nd           | Website:  www.openfoam.com                      |
|    \\/     M anipulation  |                                                 |
\*---------------------------------------------------------------------------*/
FoamFile
{
    version     2.0;
    format      ascii;
    arch        "LSB;label=32;scalar=64";
    class       volVectorField;
    location    "0.26";
    object      U;
}
// * * * * * * * * * * * * * * * * * * * * * * * * * * * * * * * * * * * * * //

dimensions      [0 1 -1 0 0 0 0];

internalField   nonuniform List<vector> 
12225
(
(0.377183 -0.200896 0)
(0.543962 -0.0519273 0)
(0.71105 -0.0340154 0)
(0.893988 -0.0304781 0)
(1.05913 -0.0297487 0)
(1.20888 -0.0284547 0)
(1.3462 -0.0265208 0)
(1.47051 -0.0245785 0)
(1.58227 -0.0227696 0)
(1.68275 -0.0210776 0)
(1.77313 -0.0194997 0)
(1.85435 -0.0180278 0)
(1.92724 -0.0166404 0)
(1.99249 -0.0152956 0)
(2.05043 -0.0139693 0)
(2.10194 -0.0125091 0)
(2.14315 -0.0103412 0)
(2.19072 -0.0128254 0)
(0.933503 -0.0317784 0)
(1.0567 -0.058711 0)
(1.23665 -0.0689019 0)
(1.42156 -0.0644871 0)
(1.58554 -0.0618158 0)
(1.73444 -0.0589704 0)
(1.87135 -0.0555692 0)
(1.99608 -0.0521827 0)
(2.1091 -0.0489414 0)
(2.21145 -0.0458527 0)
(2.30411 -0.0429311 0)
(2.38792 -0.0401623 0)
(2.46362 -0.0375042 0)
(2.53183 -0.0348774 0)
(2.59294 -0.0322208 0)
(2.64733 -0.0290843 0)
(2.69449 -0.0260649 0)
(2.73638 -0.0158797 0)
(1.39962 -0.084682 0)
(1.49179 -0.105679 0)
(1.65466 -0.107239 0)
(1.82261 -0.101944 0)
(1.97269 -0.0979936 0)
(2.1104 -0.0936573 0)
(2.23778 -0.0887466 0)
(2.35453 -0.0838046 0)
(2.46099 -0.0790041 0)
(2.55793 -0.0743914 0)
(2.64611 -0.0699921 0)
(2.7262 -0.0657872 0)
(2.79883 -0.0617172 0)
(2.86451 -0.0576749 0)
(2.92365 -0.0535282 0)
(2.97647 -0.0488549 0)
(3.02316 -0.043627 0)
(3.06301 -0.0340917 0)
(1.89741 -0.115425 0)
(1.94623 -0.14331 0)
(2.07521 -0.144986 0)
(2.21748 -0.140771 0)
(2.34799 -0.135784 0)
(2.46975 -0.130052 0)
(2.58355 -0.123703 0)
(2.68871 -0.117218 0)
(2.78529 -0.110832 0)
(2.87379 -0.104649 0)
(2.95469 -0.0987112 0)
(3.02849 -0.0929995 0)
(3.09568 -0.0874432 0)
(3.15666 -0.0819125 0)
(3.21179 -0.0762254 0)
(3.26123 -0.0699578 0)
(3.30553 -0.062817 0)
(3.34314 -0.0517995 0)
(2.43108 -0.125831 0)
(2.44051 -0.169894 0)
(2.52881 -0.177416 0)
(2.64003 -0.176178 0)
(2.74682 -0.171238 0)
(2.84905 -0.16474 0)
(2.9462 -0.157388 0)
(3.03705 -0.149691 0)
(3.12131 -0.141979 0)
(3.1991 -0.134424 0)
(3.27069 -0.127101 0)
(3.33634 -0.120002 0)
(3.39638 -0.113057 0)
(3.45111 -0.106124 0)
(3.50081 -0.0989929 0)
(3.54562 -0.0912555 0)
(3.58635 -0.0824762 0)
(3.62095 -0.0703838 0)
(2.99683 -0.123685 0)
(2.97698 -0.185374 0)
(3.02469 -0.201466 0)
(3.10204 -0.204961 0)
(3.18212 -0.201585 0)
(3.26199 -0.195269 0)
(3.33998 -0.187569 0)
(3.41428 -0.17918 0)
(3.48412 -0.170562 0)
(3.54932 -0.16198 0)
(3.60984 -0.153558 0)
(3.66574 -0.145313 0)
(3.71717 -0.137188 0)
(3.76431 -0.129047 0)
(3.80736 -0.120673 0)
(3.84642 -0.111699 0)
(3.88249 -0.10167 0)
(3.91302 -0.0890059 0)
(3.58832 -0.11451 0)
(3.5509 -0.190589 0)
(3.56321 -0.215901 0)
(3.60679 -0.225328 0)
(3.65876 -0.22502 0)
(3.71446 -0.219974 0)
(3.77143 -0.212703 0)
(3.82739 -0.204248 0)
(3.88115 -0.195239 0)
(3.93215 -0.186061 0)
(3.98011 -0.176903 0)
(4.02487 -0.167828 0)
(4.06641 -0.158803 0)
(4.10476 -0.149712 0)
(4.14007 -0.140361 0)
(4.17235 -0.130441 0)
(4.2027 -0.11956 0)
(4.22806 -0.106684 0)
(4.1988 -0.101769 0)
(4.15397 -0.187082 0)
(4.13919 -0.220716 0)
(4.15219 -0.236323 0)
(4.1767 -0.240156 0)
(4.20779 -0.237412 0)
(4.24285 -0.231384 0)
(4.27938 -0.223542 0)
(4.31587 -0.21472 0)
(4.35151 -0.205435 0)
(4.38575 -0.195967 0)
(4.41825 -0.186434 0)
(4.44883 -0.176846 0)
(4.4774 -0.167124 0)
(4.504 -0.157111 0)
(4.52859 -0.146573 0)
(4.55226 -0.135217 0)
(4.57142 -0.122413 0)
(4.82185 -0.0878122 0)
(4.77662 -0.176884 0)
(4.7439 -0.216856 0)
(4.73191 -0.237844 0)
(4.7318 -0.246144 0)
(4.73958 -0.246429 0)
(4.75307 -0.242356 0)
(4.77002 -0.235779 0)
(4.78884 -0.227729 0)
(4.80851 -0.218857 0)
(4.82836 -0.20954 0)
(4.84788 -0.199967 0)
(4.86675 -0.1902 0)
(4.88479 -0.180208 0)
(4.90194 -0.169888 0)
(4.91807 -0.159085 0)
(4.93425 -0.147618 0)
(4.94636 -0.135142 0)
(5.45146 -0.0741129 0)
(5.4095 -0.16202 0)
(5.36682 -0.205842 0)
(5.33654 -0.230664 0)
(5.31637 -0.242922 0)
(5.30385 -0.246443 0)
(5.29762 -0.244759 0)
(5.29604 -0.239944 0)
(5.2977 -0.233173 0)
(5.3016 -0.225201 0)
(5.30701 -0.216491 0)
(5.31335 -0.207303 0)
(5.32022 -0.197758 0)
(5.32735 -0.18788 0)
(5.33461 -0.177628 0)
(5.3418 -0.166922 0)
(5.34992 -0.155691 0)
(5.35435 -0.143782 0)
(6.08167 -0.0613988 0)
(6.04411 -0.144182 0)
(5.99714 -0.189335 0)
(5.95494 -0.216181 0)
(5.92006 -0.231271 0)
(5.89157 -0.237651 0)
(5.86884 -0.238373 0)
(5.85102 -0.23553 0)
(5.83714 -0.230354 0)
(5.8264 -0.223644 0)
(5.81811 -0.215918 0)
(5.81174 -0.207494 0)
(5.80687 -0.198547 0)
(5.8032 -0.189153 0)
(5.80055 -0.179331 0)
(5.79866 -0.169069 0)
(5.79848 -0.15839 0)
(5.79494 -0.147273 0)
(6.65461 -0.0506074 0)
(6.62055 -0.126208 0)
(6.57305 -0.17059 0)
(6.52478 -0.197778 0)
(6.48114 -0.21424 0)
(6.44232 -0.2225 0)
(6.40817 -0.225057 0)
(6.37844 -0.223881 0)
(6.35267 -0.22019 0)
(6.33032 -0.214766 0)
(6.31089 -0.208137 0)
(6.29395 -0.200648 0)
(6.27915 -0.192506 0)
(6.26618 -0.18383 0)
(6.25487 -0.17468 0)
(6.24494 -0.165099 0)
(6.23732 -0.155145 0)
(6.22655 -0.144993 0)
(7.20973 -0.0406604 0)
(7.18016 -0.107397 0)
(7.13447 -0.149614 0)
(7.08343 -0.176147 0)
(7.03446 -0.192987 0)
(6.98882 -0.202368 0)
(6.94662 -0.206251 0)
(6.908 -0.206406 0)
(6.87294 -0.204009 0)
(6.84121 -0.199802 0)
(6.81251 -0.194287 0)
(6.78657 -0.187811 0)
(6.76312 -0.180599 0)
(6.74193 -0.172794 0)
(6.72285 -0.164486 0)
(6.70559 -0.155757 0)
(6.69105 -0.146674 0)
(6.67363 -0.137625 0)
(7.81811 -0.0310718 0)
(7.79338 -0.0861325 0)
(7.75173 -0.123852 0)
(7.70083 -0.148312 0)
(7.64927 -0.164352 0)
(7.59955 -0.173987 0)
(7.55201 -0.178643 0)
(7.507 -0.179764 0)
(7.46483 -0.178434 0)
(7.42558 -0.175343 0)
(7.38918 -0.170949 0)
(7.35548 -0.165576 0)
(7.32437 -0.159445 0)
(7.29569 -0.152711 0)
(7.26938 -0.145482 0)
(7.24517 -0.137855 0)
(7.2239 -0.129923 0)
(7.20009 -0.122155 0)
(8.45855 -0.0222983 0)
(8.43893 -0.0637726 0)
(8.40342 -0.0942608 0)
(8.3561 -0.114683 0)
(8.30536 -0.128331 0)
(8.25484 -0.136943 0)
(8.20528 -0.14149 0)
(8.15716 -0.142972 0)
(8.11104 -0.142266 0)
(8.06723 -0.139974 0)
(8.02584 -0.136496 0)
(7.98689 -0.132114 0)
(7.95035 -0.127035 0)
(7.91618 -0.121412 0)
(7.88437 -0.115356 0)
(7.85471 -0.10897 0)
(7.828 -0.10235 0)
(7.79913 -0.0959842 0)
(9.08866 -0.0143742 0)
(9.07383 -0.0417454 0)
(9.04561 -0.0628596 0)
(9.00497 -0.0772101 0)
(8.95897 -0.0866429 0)
(8.91169 -0.0925283 0)
(8.86421 -0.0955582 0)
(8.81708 -0.0963434 0)
(8.77099 -0.0954782 0)
(8.72647 -0.0934094 0)
(8.68382 -0.0904345 0)
(8.64316 -0.0867633 0)
(8.60457 -0.0825565 0)
(8.56808 -0.0779389 0)
(8.53373 -0.0730117 0)
(8.50138 -0.0678707 0)
(8.47175 -0.0625846 0)
(8.44051 -0.0576613 0)
(9.63295 -0.00707667 0)
(9.6217 -0.0207178 0)
(9.59988 -0.031415 0)
(9.5666 -0.0384051 0)
(9.52747 -0.0424494 0)
(9.48645 -0.0443797 0)
(9.44473 -0.0446464 0)
(9.40277 -0.0435883 0)
(9.36114 -0.0415485 0)
(9.32042 -0.0388103 0)
(9.28098 -0.0355693 0)
(9.24301 -0.0319629 0)
(9.20665 -0.0280987 0)
(9.17196 -0.0240676 0)
(9.13904 -0.0199429 0)
(9.10778 -0.015805 0)
(9.07876 -0.0116679 0)
(9.04897 -0.00802531 0)
(9.96404 0.000104093 0)
(9.95459 0.000152948 0)
(9.93649 0.000606336 0)
(9.90812 0.00184654 0)
(9.87423 0.00378558 0)
(9.83859 0.00623204 0)
(9.80247 0.00908151 0)
(9.76622 0.0122623 0)
(9.7303 0.0156904 0)
(9.6952 0.0192849 0)
(9.66123 0.0229834 0)
(9.62855 0.026736 0)
(9.59722 0.0304971 0)
(9.56728 0.0342184 0)
(9.53877 0.037858 0)
(9.51162 0.0413518 0)
(9.48602 0.0447247 0)
(9.46095 0.0475613 0)
(9.87499 0.00747074 0)
(9.86688 0.0217898 0)
(9.84987 0.0341984 0)
(9.82249 0.0443936 0)
(9.78959 0.0527996 0)
(9.75498 0.0598987 0)
(9.71993 0.065988 0)
(9.68483 0.0712826 0)
(9.65014 0.0759793 0)
(9.61636 0.0802372 0)
(9.58381 0.084164 0)
(9.55263 0.087828 0)
(9.52287 0.0912714 0)
(9.49456 0.0945175 0)
(9.46768 0.097575 0)
(9.44224 0.100426 0)
(9.41796 0.103107 0)
(9.39589 0.105339 0)
(9.28437 0.0159162 0)
(9.27065 0.0461907 0)
(9.24578 0.0711715 0)
(9.2098 0.0903905 0)
(9.16896 0.105207 0)
(9.12725 0.116824 0)
(9.08575 0.125922 0)
(9.04486 0.133044 0)
(9.00514 0.138702 0)
(8.96707 0.143302 0)
(8.93091 0.147121 0)
(8.89675 0.15035 0)
(8.86459 0.153128 0)
(8.8344 0.155555 0)
(8.80611 0.157701 0)
(8.77967 0.159616 0)
(8.75462 0.161349 0)
(8.73294 0.162755 0)
(8.47101 0.0260885 0)
(8.45236 0.0738028 0)
(8.4197 0.110339 0)
(8.37625 0.136871 0)
(8.32995 0.156517 0)
(8.28452 0.171126 0)
(8.24067 0.18173 0)
(8.19873 0.189286 0)
(8.15916 0.194657 0)
(8.12226 0.198466 0)
(8.08808 0.201141 0)
(8.05654 0.202988 0)
(8.02753 0.204239 0)
(8.0009 0.205063 0)
(7.97648 0.205586 0)
(7.95417 0.205904 0)
(7.93345 0.206078 0)
(7.91635 0.206065 0)
(7.51239 0.0385222 0)
(7.4866 0.1045 0)
(7.44644 0.150222 0)
(7.39953 0.181348 0)
(7.35392 0.203325 0)
(7.31179 0.21845 0)
(7.27312 0.22825 0)
(7.23799 0.234265 0)
(7.20651 0.237708 0)
(7.17856 0.239378 0)
(7.15389 0.239819 0)
(7.13219 0.23942 0)
(7.11317 0.238466 0)
(7.09656 0.237161 0)
(7.08209 0.235647 0)
(7.06955 0.234031 0)
(7.05845 0.232371 0)
(7.05051 0.230687 0)
(6.48931 0.0542241 0)
(6.45655 0.136899 0)
(6.41294 0.186945 0)
(6.37062 0.218547 0)
(6.33486 0.239382 0)
(6.30523 0.252029 0)
(6.281 0.25873 0)
(6.26176 0.261565 0)
(6.24694 0.261922 0)
(6.23585 0.260657 0)
(6.22789 0.258349 0)
(6.22254 0.255411 0)
(6.21935 0.252128 0)
(6.21796 0.24869 0)
(6.21804 0.245228 0)
(6.21936 0.24183 0)
(6.22148 0.238542 0)
(6.22579 0.235418 0)
(5.45712 0.0733889 0)
(5.41829 0.166487 0)
(5.37867 0.214113 0)
(5.35275 0.241936 0)
(5.33861 0.258324 0)
(5.33242 0.266079 0)
(5.33265 0.268253 0)
(5.33802 0.267174 0)
(5.34715 0.264159 0)
(5.35895 0.259991 0)
(5.37265 0.255203 0)
(5.38767 0.250148 0)
(5.40357 0.24505 0)
(5.42 0.240051 0)
(5.43671 0.235234 0)
(5.45352 0.230653 0)
(5.47012 0.22633 0)
(5.48763 0.222327 0)
(4.45282 0.0947768 0)
(4.41205 0.187409 0)
(4.39047 0.225931 0)
(4.39658 0.24639 0)
(4.41646 0.255912 0)
(4.44331 0.257814 0)
(4.47522 0.255564 0)
(4.51029 0.251177 0)
(4.54683 0.245632 0)
(4.58379 0.239527 0)
(4.62055 0.233257 0)
(4.65669 0.227065 0)
(4.69193 0.221091 0)
(4.7261 0.215411 0)
(4.75908 0.210064 0)
(4.79085 0.205065 0)
(4.82125 0.200415 0)
(4.85122 0.196178 0)
(3.50293 0.114452 0)
(3.47301 0.192919 0)
(3.48912 0.217645 0)
(3.54118 0.228883 0)
(3.60258 0.231457 0)
(3.66646 0.228822 0)
(3.73173 0.223816 0)
(3.79669 0.217706 0)
(3.85991 0.211096 0)
(3.92077 0.204382 0)
(3.979 0.19782 0)
(4.03449 0.19155 0)
(4.08719 0.185642 0)
(4.13718 0.180124 0)
(4.18453 0.175 0)
(4.22939 0.17026 0)
(4.27176 0.16589 0)
(4.31248 0.161964 0)
(2.62982 0.122983 0)
(2.63207 0.176388 0)
(2.70177 0.187968 0)
(2.80468 0.191083 0)
(2.90732 0.189109 0)
(3.00602 0.18459 0)
(3.10157 0.178916 0)
(3.19301 0.172731 0)
(3.27948 0.166437 0)
(3.36085 0.160289 0)
(3.43728 0.154431 0)
(3.50897 0.148937 0)
(3.57618 0.143833 0)
(3.63919 0.139118 0)
(3.69828 0.134777 0)
(3.75377 0.130788 0)
(3.80581 0.127129 0)
(3.85517 0.123893 0)
(1.85178 0.104826 0)
(1.90638 0.134438 0)
(2.03033 0.141897 0)
(2.17812 0.140513 0)
(2.31585 0.137036 0)
(2.4434 0.132919 0)
(2.56364 0.1281 0)
(2.67646 0.122988 0)
(2.78152 0.117941 0)
(2.87912 0.113114 0)
(2.96978 0.108579 0)
(3.05404 0.104373 0)
(3.13239 0.100499 0)
(3.20533 0.0969461 0)
(3.27331 0.0936922 0)
(3.33678 0.0907143 0)
(3.39605 0.0879772 0)
(3.45187 0.0855877 0)
(1.17533 0.04169 0)
(1.28238 0.0661055 0)
(1.43868 0.0889865 0)
(1.61658 0.0891766 0)
(1.78033 0.0862296 0)
(1.92914 0.0833306 0)
(2.0674 0.079833 0)
(2.19581 0.0761167 0)
(2.31428 0.0725269 0)
(2.4234 0.0691482 0)
(2.52402 0.0660057 0)
(2.61694 0.0631151 0)
(2.70287 0.0604729 0)
(2.78247 0.058063 0)
(2.85632 0.055865 0)
(2.92499 0.0538619 0)
(2.9889 0.051992 0)
(3.04876 0.0503545 0)
(0.469485 0.226529 0)
(0.642364 0.069163 0)
(0.788937 0.0480256 0)
(0.972451 0.0444101 0)
(1.14912 0.0429717 0)
(1.30915 0.0416789 0)
(1.45686 0.039646 0)
(1.59323 0.0373306 0)
(1.71806 0.0351125 0)
(1.83211 0.0330645 0)
(1.93654 0.0311823 0)
(2.03239 0.0294638 0)
(2.12052 0.0279026 0)
(2.20173 0.0264856 0)
(2.27671 0.025197 0)
(2.3461 0.0240297 0)
(2.41042 0.0229306 0)
(2.46997 0.0219785 0)
(0.00835505 -0.0172208 -2.69137e-20)
(0.0268761 -0.0288012 2.62754e-20)
(0.0461541 -0.0299616 0)
(0.0623241 -0.0254606 0)
(0.0730514 -0.0181368 0)
(0.078113 -0.00985156 -2.46541e-20)
(0.0773958 -0.00194587 0)
(0.0717342 0.00452963 0)
(0.0623317 0.00914523 0)
(0.0500395 0.0121227 0)
(0.0354583 0.0140322 2.4099e-20)
(0.0189171 0.015455 0)
(0.000485656 0.016807 0)
(-0.0199289 0.0183641 0)
(-0.0425278 0.0202801 0)
(-0.0675429 0.0225926 2.28321e-20)
(-0.0951679 0.0252648 0)
(-0.125547 0.0282213 0)
(-0.158758 0.0313672 0)
(-0.194801 0.0345949 0)
(-0.2336 0.0377899 0)
(-0.275 0.040839 0)
(-0.318782 0.0436384 0)
(-0.364667 0.0461008 1.94278e-20)
(-0.412337 0.0481606 -1.90395e-20)
(-0.461444 0.0497768 1.86676e-20)
(-0.511631 0.0509328 1.83132e-20)
(-0.562549 0.0516361 0)
(-0.613873 0.0519181 0)
(-0.665296 0.0518327 -1.736e-20)
(-0.716519 0.0514474 -1.70775e-20)
(-0.767346 0.0508292 0)
(-0.817636 0.0500192 0)
(-0.867222 0.0490445 -1.63228e-20)
(-0.915985 0.0479383 0)
(-0.963826 0.0467315 0)
(-1.01067 0.0454516 1.56872e-20)
(-1.05646 0.0441223 0)
(-1.10115 0.0427631 1.5314e-20)
(-1.14472 0.0413897 3.0279e-20)
(-1.18716 0.0400142 0)
(-1.22844 0.0386453 0)
(-1.26858 0.0372895 0)
(-1.30756 0.0359506 0)
(-1.3454 0.0346312 0)
(-1.38209 0.0333323 2.84098e-20)
(-1.41765 0.032054 2.81223e-20)
(-1.45207 0.0307957 2.78386e-20)
(-1.48536 0.0295565 0)
(-1.51752 0.0283351 -2.72785e-20)
(-1.54855 0.0271302 0)
(-1.57845 0.0259403 2.67222e-20)
(-1.60722 0.0247643 2.64436e-20)
(-1.63485 0.023601 0)
(-1.66135 0.0224492 0)
(-1.6867 0.0213081 0)
(-1.7109 0.020177 2.53112e-20)
(-1.73395 0.019055 0)
(-1.75583 0.0179417 0)
(-1.77655 0.0168363 0)
(-1.79608 0.0157382 0)
(-1.81444 0.0146464 0)
(-1.8316 0.01356 0)
(-1.84756 0.0124772 0)
(-1.86231 0.0113961 0)
(-1.87584 0.010314 -2.25231e-20)
(-1.88814 0.00922761 0)
(-1.8992 0.00813289 0)
(-1.909 0.00702492 2.14865e-20)
(-1.91751 0.00589865 2.11272e-20)
(-1.92471 0.00475072 0)
(-1.93057 0.00358479 -2.0388e-20)
(-1.93506 0.00242048 2.00082e-20)
(-1.9381 0.00129759 0)
(-1.93965 0.000265431 -1.92254e-20)
(-1.9399 -0.000633198 0)
(-1.93907 -0.00142467 0)
(-1.93713 -0.00217041 1.7983e-20)
(-1.93411 -0.00288987 0)
(-1.93002 -0.00359152 -1.71133e-20)
(-1.92488 -0.00427854 0)
(-1.91869 -0.00495225 1.62104e-20)
(-1.91146 -0.00561313 1.57466e-20)
(-1.90319 -0.00626126 1.52747e-20)
(-1.89388 -0.00689663 2.95895e-20)
(-1.88356 -0.00751913 -2.86138e-20)
(-1.87221 -0.00812867 0)
(-1.85986 -0.00872514 0)
(-1.84651 -0.00930847 0)
(-1.83216 -0.00987858 -2.45575e-20)
(-1.81683 -0.0104354 -2.35067e-20)
(-1.80053 -0.010979 2.24419e-20)
(-1.78327 -0.0115092 0)
(-1.76506 -0.0120261 -2.02718e-20)
(-1.74591 -0.0125296 -1.91675e-20)
(-1.72582 -0.0130198 -1.80509e-20)
(-1.70483 -0.0134967 0)
(-1.68293 -0.0139602 0)
(-1.66013 -0.0144104 0)
(-1.63646 -0.0148472 -1.34718e-20)
(-1.61193 -0.0152707 0)
(-1.58654 -0.0156809 0)
(-1.56032 -0.0160777 9.93467e-21)
(-1.53328 -0.0164612 0)
(-1.50543 -0.0168313 0)
(-1.47678 -0.0171881 6.32756e-21)
(-1.44737 -0.0175314 0)
(-1.41719 -0.0178612 0)
(-1.38628 -0.0181774 -2.66849e-21)
(-1.35464 -0.01848 -1.44057e-21)
(-1.32229 -0.018769 0)
(-1.28925 -0.0190442 -1.02311e-21)
(-1.25555 -0.0193056 0)
(-1.2212 -0.019553 3.49207e-21)
(-1.18621 -0.0197865 0)
(-1.15062 -0.0200058 5.9599e-21)
(-1.11444 -0.020211 7.19134e-21)
(-1.07769 -0.0204019 0)
(-1.0404 -0.0205784 0)
(-1.00258 -0.0207405 0)
(-0.964273 -0.0208881 0)
(-0.925486 -0.0210212 0)
(-0.886249 -0.0211396 0)
(-0.846586 -0.0212433 0)
(-0.806522 -0.0213324 1.68715e-20)
(-0.766083 -0.0214068 -1.80473e-20)
(-0.725295 -0.0214665 0)
(-0.684185 -0.0215115 0)
(-0.642778 -0.0215419 0)
(-0.601102 -0.0215577 0)
(-0.559184 -0.0215589 -4.75042e-20)
(-0.517052 -0.0215457 0)
(-0.474733 -0.021518 5.18755e-20)
(-0.432255 -0.0214759 -5.40137e-20)
(-0.389646 -0.0214195 0)
(-0.346936 -0.0213487 0)
(-0.304153 -0.0212633 0)
(-0.261327 -0.0211631 6.22166e-20)
(-0.218489 -0.0210476 6.41734e-20)
(-0.17567 -0.0209153 0)
(-0.132904 -0.0207625 6.79659e-20)
(-0.0902229 -0.020587 6.98e-20)
(-0.0476575 -0.0203859 -7.15918e-20)
(-0.00523561 -0.0201343 0)
(0.0369548 -0.0197953 0)
(0.0789172 -0.0194146 -7.49648e-20)
(0.120638 -0.019038 0)
(0.1621 -0.0186709 0)
(0.203295 -0.0183108 0)
(0.244216 -0.0179551 0)
(0.284855 -0.0176026 7.78028e-20)
(0.325199 -0.0172525 7.82263e-20)
(0.36524 -0.0169046 0)
(0.404964 -0.0165589 7.89447e-20)
(0.444363 -0.0162157 0)
(0.483426 -0.0158753 0)
(0.522145 -0.015538 7.97278e-20)
(0.560511 -0.0152042 0)
(0.59852 -0.0148744 8.0073e-20)
(0.636165 -0.0145489 0)
(0.673442 -0.014228 0)
(0.710348 -0.013912 8.03552e-20)
(0.74688 -0.0136008 0)
(0.783035 -0.0132946 8.0402e-20)
(0.818812 -0.0129928 0)
(0.854207 -0.012695 0)
(0.889213 -0.0124 0)
(0.923822 -0.012106 -8.02012e-20)
(0.958015 -0.0118102 0)
(0.991766 -0.0115083 7.99745e-20)
(1.02503 -0.0111936 0)
(1.05774 -0.0108556 0)
(1.08977 -0.010477 0)
(1.12094 -0.0100286 0)
(1.15095 -0.009453 0)
(1.17907 -0.00864316 0)
(1.20458 -0.00727757 0)
(1.22286 -0.00458149 -1.58069e-19)
(1.23675 0.00256799 0)
(1.19083 0.0176849 0)
(0.00981834 -0.056885 7.93495e-20)
(0.0225262 -0.0625817 -7.50268e-20)
(0.0273986 -0.0485025 0)
(0.0271385 -0.0314832 4.47212e-20)
(0.0227491 -0.014502 0)
(0.0148132 0.00137139 2.1164e-20)
(0.00396196 0.015456 -4.15828e-20)
(-0.00979817 0.0273555 -4.08613e-20)
(-0.0266076 0.0370995 0)
(-0.0465131 0.0451321 -3.92999e-20)
(-0.0695339 0.0520782 -1.92961e-20)
(-0.0956554 0.0585267 0)
(-0.124836 0.0649027 0)
(-0.157004 0.0714467 0)
(-0.192058 0.0782479 0)
(-0.22986 0.0852687 -1.73858e-20)
(-0.270237 0.0923799 0)
(-0.312963 0.0994019 3.31716e-20)
(-0.357762 0.106136 0)
(-0.404314 0.112388 0)
(-0.452267 0.117982 -3.1018e-20)
(-0.501252 0.122777 0)
(-0.550899 0.126671 2.96951e-20)
(-0.600853 0.129605 -1.45808e-20)
(-0.650788 0.131564 1.42851e-20)
(-0.700411 0.132573 -1.40053e-20)
(-0.749476 0.132688 -1.37416e-20)
(-0.797783 0.131994 0)
(-0.845175 0.130592 0)
(-0.891538 0.128599 1.30429e-20)
(-0.936788 0.126139 -1.27703e-20)
(-0.980862 0.123322 0)
(-1.02372 0.120232 0)
(-1.06535 0.11694 1.22932e-20)
(-1.10574 0.113508 0)
(-1.1449 0.109989 0)
(-1.18287 0.106427 -1.18298e-20)
(-1.21965 0.102855 0)
(-1.25529 0.0993016 1.14831e-20)
(-1.28981 0.0957859 -2.28481e-20)
(-1.32322 0.0923218 0)
(-1.35557 0.0889181 0)
(-1.38686 0.0855795 -4.40839e-20)
(-1.41712 0.0823079 -4.36184e-20)
(-1.44636 0.0791027 -4.31618e-20)
(-1.4746 0.0759618 2.12865e-20)
(-1.50185 0.0728821 -2.1203e-20)
(-1.52811 0.0698597 -6.28115e-20)
(-1.55338 0.0668905 4.1393e-20)
(-1.57768 0.0639705 2.05432e-20)
(-1.601 0.0610958 0)
(-1.62335 0.0582627 -2.01048e-20)
(-1.64471 0.055468 1.97689e-20)
(-1.66509 0.0527089 0)
(-1.68449 0.049983 0)
(-1.70289 0.0472884 0)
(-1.7203 0.0446235 -1.89858e-20)
(-1.73671 0.0419871 0)
(-1.75211 0.0393785 3.69602e-20)
(-1.7665 0.0367968 0)
(-1.77988 0.0342418 3.60168e-20)
(-1.79223 0.0317131 0)
(-1.80355 0.0292102 -3.50431e-20)
(-1.81385 0.0267327 0)
(-1.82311 0.0242801 3.40359e-20)
(-1.83133 0.0218512 -1.67434e-20)
(-1.83852 0.019445 0)
(-1.84467 0.0170599 -3.24563e-20)
(-1.84979 0.014694 -1.59595e-20)
(-1.8539 0.0123453 -1.56776e-20)
(-1.857 0.0100117 0)
(-1.85914 0.00769316 -1.51141e-20)
(-1.86037 0.00540125 -1.48021e-20)
(-1.86077 0.00316897 0)
(-1.8604 0.00104276 1.41883e-20)
(-1.85917 -0.000956172 -2.77859e-20)
(-1.85692 -0.00285133 0)
(-1.85366 -0.0046805 -1.32244e-20)
(-1.84937 -0.0064592 0)
(-1.84405 -0.00819589 3.77395e-20)
(-1.83769 -0.00989397 0)
(-1.83031 -0.0115548 -3.56862e-20)
(-1.8219 -0.0131787 -1.15135e-20)
(-1.81247 -0.0147656 1.12593e-20)
(-1.80203 -0.0163151 2.18085e-20)
(-1.79057 -0.017827 -2.10884e-20)
(-1.77812 -0.0193009 0)
(-1.76467 -0.0207365 0)
(-1.75024 -0.0221337 0)
(-1.73483 -0.0234922 5.3751e-20)
(-1.71845 -0.024812 1.7039e-20)
(-1.70112 -0.026093 -1.62503e-20)
(-1.68283 -0.0273353 0)
(-1.66361 -0.0285389 -1.49939e-20)
(-1.64345 -0.0297038 1.38369e-20)
(-1.62239 -0.0308301 1.30179e-20)
(-1.60042 -0.031918 0)
(-1.57755 -0.0329676 0)
(-1.55381 -0.0339789 0)
(-1.5292 -0.0349522 9.6779e-21)
(-1.50373 -0.0358876 0)
(-1.47743 -0.0367852 -1.63842e-20)
(-1.4503 -0.0376452 -2.17944e-20)
(-1.42236 -0.0384677 1.29624e-20)
(-1.39362 -0.039253 0)
(-1.36411 -0.0400011 4.9905e-21)
(-1.33382 -0.0407121 0)
(-1.30279 -0.0413862 6.03815e-21)
(-1.27103 -0.0420234 -2.39404e-21)
(-1.23855 -0.0426238 -1.52488e-21)
(-1.20538 -0.0431875 0)
(-1.17152 -0.0437145 1.67068e-21)
(-1.13701 -0.0442051 -2.69022e-21)
(-1.10186 -0.0446591 -2.47875e-21)
(-1.06608 -0.0450768 0)
(-1.02971 -0.0454581 -4.22432e-21)
(-0.992759 -0.0458031 -1.47464e-20)
(-0.955249 -0.0461121 0)
(-0.917204 -0.046385 -1.31045e-20)
(-0.878646 -0.046622 -1.48191e-20)
(-0.839598 -0.0468234 -1.6525e-20)
(-0.800084 -0.0469892 0)
(-0.760129 -0.0471197 0)
(-0.719756 -0.0472151 0)
(-0.678991 -0.0472759 1.13454e-20)
(-0.63786 -0.0473022 1.27162e-20)
(-0.596388 -0.0472944 0)
(-0.554601 -0.047253 2.81304e-20)
(-0.512526 -0.0471784 2.97282e-20)
(-0.47019 -0.047071 0)
(-0.42762 -0.0469314 3.34088e-20)
(-0.384843 -0.04676 6.88203e-20)
(-0.341886 -0.0465574 -3.64644e-20)
(-0.298778 -0.0463241 -3.68995e-20)
(-0.255547 -0.0460605 0)
(-0.21222 -0.045767 0)
(-0.168826 -0.0454435 0)
(-0.125395 -0.04509 -4.37071e-20)
(-0.0819545 -0.0447052 4.40692e-20)
(-0.0385354 -0.0442879 9.186e-20)
(0.00483246 -0.0438363 -4.76205e-20)
(0.0481178 -0.0433496 4.75921e-20)
(0.0912924 -0.0428319 4.93745e-20)
(0.13433 -0.0422865 0)
(0.177203 -0.0417 0)
(0.219901 -0.0410787 -5.07878e-20)
(0.262404 -0.0404455 0)
(0.304689 -0.0398107 0)
(0.34674 -0.0391759 1.06589e-19)
(0.38854 -0.0385401 0)
(0.430077 -0.0379028 5.41169e-20)
(0.471338 -0.0372637 -5.54363e-20)
(0.512309 -0.0366229 0)
(0.55298 -0.0359811 5.57251e-20)
(0.593339 -0.035339 0)
(0.633377 -0.0346977 0)
(0.673086 -0.0340583 -5.77179e-20)
(0.712458 -0.0334217 1.1555e-19)
(0.751486 -0.0327891 -5.84375e-20)
(0.790167 -0.0321614 0)
(0.828495 -0.0315395 0)
(0.866468 -0.030924 5.8772e-20)
(0.904084 -0.0303154 0)
(0.94134 -0.0297135 5.92845e-20)
(0.978235 -0.0291179 0)
(1.01476 -0.0285272 0)
(1.05092 -0.0279389 0)
(1.0867 -0.0273489 6.05114e-20)
(1.12209 -0.026751 0)
(1.15705 -0.026135 -6.07496e-20)
(1.19155 -0.0254855 0)
(1.22551 -0.0247779 0)
(1.25883 -0.0239717 1.21611e-19)
(1.29132 -0.0229991 -1.2176e-19)
(1.32271 -0.0217301 0)
(1.35242 -0.0199228 0)
(1.37983 -0.0169414 0)
(1.40225 -0.0116075 3.68946e-19)
(1.42226 0.000710242 0)
(1.42469 0.0255561 -2.49579e-19)
(0.00375068 -0.0794894 -9.53464e-23)
(0.00321941 -0.0644925 9.6566e-20)
(-0.0041939 -0.0382406 0)
(-0.0145181 -0.0135655 -8.13395e-20)
(-0.027456 0.0091004 0)
(-0.0427132 0.0297461 0)
(-0.0602077 0.0484325 3.68495e-23)
(-0.0800033 0.0652265 3.46688e-20)
(-0.102253 0.0802674 3.38206e-20)
(-0.127108 0.0938418 3.31077e-20)
(-0.154655 0.106343 0)
(-0.184878 0.118163 0)
(-0.217666 0.129589 -3.09047e-20)
(-0.252825 0.140765 -6.03996e-20)
(-0.290097 0.151687 5.90075e-20)
(-0.32918 0.16224 0)
(-0.36974 0.172241 5.62917e-20)
(-0.411433 0.181471 -2.75152e-20)
(-0.453912 0.189718 0)
(-0.496846 0.196797 5.24517e-20)
(-0.539931 0.202567 2.56364e-20)
(-0.582896 0.206943 -5.00918e-20)
(-0.625518 0.209895 -2.44929e-20)
(-0.667617 0.211449 0)
(-0.709058 0.211675 4.69021e-20)
(-0.749749 0.210684 4.59358e-20)
(-0.78963 0.208613 0)
(-0.828673 0.205613 4.41459e-20)
(-0.866867 0.201843 0)
(-0.904216 0.197459 4.25355e-20)
(-0.940728 0.192607 2.09006e-20)
(-0.976411 0.187414 0)
(-1.01128 0.181988 0)
(-1.04534 0.176416 0)
(-1.07862 0.17077 0)
(-1.11112 0.165107 0)
(-1.14286 0.159472 0)
(-1.17384 0.153897 3.75003e-20)
(-1.20408 0.148404 -5.55136e-20)
(-1.23358 0.14301 0)
(-1.26234 0.137721 0)
(-1.29035 0.132541 0)
(-1.31763 0.127471 7.76676e-23)
(-1.34416 0.122506 3.47478e-20)
(-1.36993 0.117642 6.85615e-20)
(-1.39495 0.112873 -6.77235e-20)
(-1.41919 0.108192 -3.34086e-20)
(-1.44266 0.103591 3.30844e-20)
(-1.46534 0.0990657 -8.12724e-23)
(-1.48723 0.0946083 3.22038e-20)
(-1.5083 0.0902134 0)
(-1.52856 0.085876 3.14169e-20)
(-1.54797 0.0815918 -7.40174e-23)
(-1.56655 0.0773573 0)
(-1.58426 0.0731695 0)
(-1.60111 0.0690263 -2.9852e-20)
(-1.61708 0.0649259 0)
(-1.63215 0.0608674 0)
(-1.64631 0.0568501 2.86118e-20)
(-1.65957 0.0528738 5.6528e-20)
(-1.6719 0.0489388 -2.7904e-20)
(-1.68329 0.0450453 0)
(-1.69374 0.0411942 2.70734e-20)
(-1.70325 0.037386 0)
(-1.7118 0.033622 2.61742e-20)
(-1.7194 0.0299033 2.57918e-20)
(-1.72604 0.0262315 -5.06791e-20)
(-1.73172 0.0226087 -2.48924e-20)
(-1.73644 0.0190385 0)
(-1.74021 0.0155257 4.80168e-20)
(-1.74305 0.0120779 0)
(-1.74496 0.00870526 6.9263e-20)
(-1.74595 0.00542083 4.52489e-20)
(-1.74601 0.00223618 4.42896e-20)
(-1.74515 -0.000848529 -4.33116e-20)
(-1.74332 -0.00385645 6.34499e-20)
(-1.74049 -0.00680478 0)
(-1.73667 -0.00969363 0)
(-1.73185 -0.0125236 -3.92852e-20)
(-1.72603 -0.015295 -5.73106e-20)
(-1.71921 -0.0180075 0)
(-1.7114 -0.0206609 1.79944e-20)
(-1.70259 -0.0232544 0)
(-1.6928 -0.0257873 -5.0858e-20)
(-1.68201 -0.0282589 1.72897e-22)
(-1.67026 -0.0306687 -1.83643e-22)
(-1.65752 -0.0330159 3.06113e-20)
(-1.64383 -0.0353002 0)
(-1.62917 -0.0375211 -2.83196e-20)
(-1.61357 -0.0396785 2.25039e-22)
(-1.59702 -0.0417721 0)
(-1.57955 -0.0438018 0)
(-1.56115 -0.0457678 0)
(-1.54183 -0.04767 2.21377e-20)
(-1.52162 -0.0495086 0)
(-1.50051 -0.0512838 0)
(-1.47852 -0.0529957 0)
(-1.45567 -0.0546446 0)
(-1.43196 -0.0562306 0)
(-1.4074 -0.0577541 1.50036e-20)
(-1.38201 -0.0592152 0)
(-1.3558 -0.0606143 1.21542e-20)
(-1.32879 -0.0619516 1.08795e-20)
(-1.30099 -0.0632275 -9.60086e-21)
(-1.27241 -0.0644422 0)
(-1.24307 -0.065596 -7.03406e-21)
(-1.21299 -0.066689 0)
(-1.18217 -0.0677216 -4.45897e-21)
(-1.15064 -0.0686938 3.16996e-21)
(-1.11842 -0.0696059 6.39899e-21)
(-1.08551 -0.070458 0)
(-1.05195 -0.0712505 -1.30933e-21)
(-1.01774 -0.0719834 -1.19678e-21)
(-0.982907 -0.072657 0)
(-0.94747 -0.0732714 -8.28476e-21)
(-0.911449 -0.0738268 -1.08281e-20)
(-0.874863 -0.0743235 2.04487e-20)
(-0.837735 -0.0747616 0)
(-0.800085 -0.0751417 9.60896e-21)
(-0.761936 -0.0754638 1.08603e-20)
(-0.72331 -0.0757284 3.54858e-20)
(-0.684231 -0.0759359 0)
(-0.644722 -0.0760866 0)
(-0.604807 -0.0761813 0)
(-0.564512 -0.0762204 1.61568e-20)
(-0.52386 -0.0762045 0)
(-0.482877 -0.0761343 0)
(-0.441589 -0.0760106 -2.05396e-20)
(-0.400022 -0.0758343 -2.16984e-20)
(-0.358202 -0.0756061 0)
(-0.316156 -0.075327 0)
(-0.27391 -0.0749979 -5.01838e-20)
(-0.231491 -0.0746197 0)
(-0.188926 -0.0741935 5.45599e-20)
(-0.146243 -0.0737199 5.58984e-20)
(-0.103468 -0.0731997 0)
(-0.0606302 -0.0726332 0)
(-0.0177561 -0.0720209 -6.21218e-20)
(0.0251263 -0.0713631 -7.70827e-22)
(0.0679889 -0.0706594 -7.57616e-22)
(0.110804 -0.0699095 0)
(0.153545 -0.0691146 -1.37464e-19)
(0.196187 -0.0682794 0)
(0.23871 -0.0674117 0)
(0.281104 -0.0665165 0)
(0.323354 -0.0655954 7.43871e-20)
(0.365435 -0.0646559 0)
(0.407323 -0.0637051 -1.52336e-19)
(0.448995 -0.0627459 -7.79654e-20)
(0.490431 -0.0617796 0)
(0.531616 -0.0608066 -8.01308e-20)
(0.572535 -0.0598277 0)
(0.613175 -0.058844 0)
(0.653523 -0.0578567 -2.48053e-19)
(0.69357 -0.0568674 1.6681e-19)
(0.733304 -0.0558778 0)
(0.772718 -0.0548897 1.70203e-19)
(0.811805 -0.053905 -8.63963e-20)
(0.850558 -0.0529253 0)
(0.888974 -0.0519523 0)
(0.927047 -0.0509874 0)
(0.964777 -0.0500316 -2.66506e-19)
(1.00216 -0.0490857 0)
(1.03919 -0.0481496 -9.02982e-20)
(1.07588 -0.0472225 0)
(1.11221 -0.0463022 0)
(1.14819 -0.0453849 0)
(1.1838 -0.0444642 0)
(1.21902 -0.0435298 0)
(1.25385 -0.0425661 0)
(1.28822 -0.0415485 -1.8608e-19)
(1.32209 -0.0404387 0)
(1.35534 -0.0391746 -9.40466e-20)
(1.38782 -0.0376525 2.82455e-19)
(1.41929 -0.0356861 0)
(1.44929 -0.0329352 0)
(1.4774 -0.0286573 -1.90344e-19)
(1.50199 -0.0215381 -1.92059e-19)
(1.52514 -0.0078555 1.9347e-19)
(1.53972 0.0183196 1.96155e-19)
(-0.00465853 -0.0714367 -1.54699e-19)
(-0.0159754 -0.0418648 -1.39053e-19)
(-0.031456 -0.0101648 -8.18925e-20)
(-0.0484817 0.0184554 -3.71294e-20)
(-0.0671882 0.0446906 0)
(-0.0874171 0.0689413 6.59409e-20)
(-0.109203 0.0913895 -3.17085e-20)
(-0.132679 0.112146 0)
(-0.157978 0.13134 -2.9995e-20)
(-0.185191 0.149158 0)
(-0.214333 0.165816 5.70554e-20)
(-0.245322 0.181509 0)
(-0.277991 0.196355 2.71927e-20)
(-0.312101 0.210371 5.30664e-20)
(-0.34737 0.223481 -5.17708e-20)
(-0.383494 0.235541 0)
(-0.420173 0.246376 -4.92603e-20)
(-0.457121 0.255811 0)
(-0.494087 0.2637 0)
(-0.530857 0.269942 -4.57399e-20)
(-0.567265 0.274491 0)
(-0.603188 0.277358 -6.46723e-23)
(-0.638546 0.278606 0)
(-0.673295 0.278341 0)
(-0.70742 0.276702 7.21284e-23)
(-0.740928 0.27385 -3.97892e-20)
(-0.77384 0.269957 -3.90166e-20)
(-0.806184 0.265197 -3.81493e-20)
(-0.837986 0.259735 0)
(-0.869274 0.253728 -7.33926e-20)
(-0.900066 0.247313 0)
(-0.930376 0.24061 -3.53749e-20)
(-0.96021 0.23372 0)
(-0.989574 0.226723 0)
(-1.01846 0.219685 3.35863e-20)
(-1.04688 0.212656 0)
(-1.0748 0.205675 -3.2525e-20)
(-1.10223 0.198769 1.0938e-25)
(-1.12916 0.191956 6.3105e-20)
(-1.15555 0.185248 -6.21802e-20)
(-1.18141 0.178651 0)
(-1.20671 0.172165 0)
(-1.23144 0.165788 -2.97806e-20)
(-1.25558 0.159516 0)
(-1.27911 0.153344 -2.90256e-20)
(-1.30201 0.147265 2.86413e-20)
(-1.32427 0.141271 2.82645e-20)
(-1.34586 0.135355 0)
(-1.36677 0.129512 -2.75286e-20)
(-1.38698 0.123735 -2.71678e-20)
(-1.40647 0.118018 5.35656e-20)
(-1.42523 0.112358 -2.64561e-20)
(-1.44324 0.106749 -2.61038e-20)
(-1.46048 0.10119 0)
(-1.47693 0.0956785 0)
(-1.49258 0.0902123 2.50532e-20)
(-1.50742 0.0847911 0)
(-1.52143 0.079415 0)
(-1.53459 0.0740845 -4.80008e-20)