/*--------------------------------*- C++ -*----------------------------------*\
| =========                 |                                                 |
| \\      /  F ield         | OpenFOAM: The Open Source CFD Toolbox           |
|  \\    /   O peration     | Version:  2412                                  |
|   \\  /    A nd           | Website:  www.openfoam.com                      |
|    \\/     M anipulation  |                                                 |
\*---------------------------------------------------------------------------*/
FoamFile
{
    version     2.0;
    format      ascii;
    arch        "LSB;label=32;scalar=64";
    class       volScalarField;
    location    "0.06";
    object      epsilon;
}
// * * * * * * * * * * * * * * * * * * * * * * * * * * * * * * * * * * * * * //

dimensions      [0 2 -3 0 0 0 0];

internalField   nonuniform List<scalar> 
12225
(
448.248
622.823
830.336
1004.4
1149.71
1269.22
1367.28
1447.9
1514.22
1568.79
1613.69
1650.59
1680.78
1705.3
1724.95
1740.27
1752.13
1764.8
173.744
302.062
403.036
480.053
539.147
585.416
621.762
650.382
672.982
690.83
704.887
715.906
724.476
731.06
736.05
739.662
742.588
741.759
119.438
232.398
315.491
376.207
421.081
454.91
480.467
499.748
514.27
525.142
533.189
539.038
543.174
545.978
547.764
548.758
549.316
548.451
97.6471
199.991
277.786
334.834
376.761
407.83
430.813
447.714
460.043
468.912
475.146
479.369
482.06
483.593
484.272
484.346
484.113
483.372
83.6618
176.315
251.615
308.594
351.149
382.769
406.108
423.178
435.509
444.255
450.28
454.243
456.649
457.893
458.298
458.137
457.7
457.04
72.004
154.01
226.374
283.911
328.302
361.959
387.17
405.845
419.496
429.299
436.159
440.777
443.696
445.345
446.074
446.18
445.948
445.501
61.3584
131.327
198.709
255.7
301.7
337.78
365.576
386.712
402.583
414.327
422.858
428.903
433.037
435.722
437.335
438.195
438.579
438.614
51.6848
108.779
168.583
222.779
268.956
306.816
337.108
360.967
379.524
393.787
404.615
412.718
418.68
422.982
426.017
428.116
429.547
430.422
43.2376
87.6941
137.785
186.485
230.528
268.542
300.356
326.461
347.584
364.49
377.894
388.432
396.651
403.016
407.92
411.69
414.578
416.666
36.184
69.2863
108.726
149.659
188.989
224.862
256.407
283.479
306.329
325.383
341.13
354.06
364.625
373.235
380.244
385.956
390.596
394.202
30.5114
54.1779
83.4113
115.458
148.035
179.424
208.477
234.611
257.653
277.681
294.912
309.632
322.15
332.77
341.775
349.411
355.862
361.107
26.388
43.2313
64.354
88.3643
113.844
139.539
164.426
187.801
209.269
228.663
245.974
261.295
274.777
286.601
296.953
306.005
313.877
320.475
23.1524
34.7748
49.3715
66.3719
85.0398
104.629
124.416
143.795
162.322
179.713
195.811
210.556
223.962
236.086
247.014
256.834
265.596
273.141
20.3864
27.7164
36.7965
47.5052
59.5703
72.6703
86.4379
100.5
114.526
128.251
141.476
154.065
165.935
177.045
187.386
196.963
205.757
213.56
18.1562
22.2566
27.1797
32.9668
39.5735
46.9216
54.8969
63.3535
72.1342
81.0886
90.0809
98.9951
107.737
116.232
124.426
132.276
139.722
146.557
16.475
18.3672
20.5464
23.0597
25.9227
29.1404
32.7058
36.5954
40.7722
45.1912
49.8035
54.5591
59.4089
64.307
69.2113
74.0818
78.8691
83.4362
15.3307
15.8787
16.5056
17.2285
18.0552
18.9929
20.0479
21.2242
22.5217
23.9372
25.4646
27.093
28.8119
30.6094
32.4728
34.3882
36.3378
38.2796
14.7514
14.6771
14.6391
14.6385
14.6743
14.7458
14.8532
14.9968
15.1768
15.3934
15.6466
15.9383
16.2679
16.6344
17.0363
17.4717
17.9378
18.4289
14.8963
14.9703
15.0824
15.2362
15.4317
15.6684
15.9467
16.2663
16.6261
17.0246
17.4594
17.928
18.4273
18.954
19.5046
20.0753
20.6617
21.2492
15.9672
17.2521
18.7114
20.3713
22.2372
24.3079
26.5757
29.0243
31.6293
34.3616
37.19
40.0829
43.0097
45.9421
48.8545
51.7245
54.5285
57.2108
18.0436
21.9816
26.6608
32.0987
38.231
44.9605
52.1625
59.6902
67.3926
75.1298
82.7808
90.2456
97.4462
104.325
110.843
116.975
122.704
127.987
21.5543
30.6285
41.8719
54.9517
69.361
84.5807
100.101
115.462
130.302
144.362
157.479
169.564
180.584
190.551
199.505
207.503
214.607
220.864
27.2069
45.266
67.7147
92.8125
118.911
144.723
169.27
191.915
212.335
230.437
246.272
259.98
271.743
281.762
290.24
297.366
303.317
308.254
35.7006
67.6329
105.588
144.798
182.29
216.433
246.423
272.089
293.657
311.531
326.173
338.039
347.553
355.094
360.986
365.511
368.908
371.404
47.393
97.5632
151.934
202.537
246.641
283.613
313.738
337.808
356.76
371.481
382.748
391.222
397.448
401.873
404.858
406.696
407.632
407.899
61.8744
131.708
198.624
254.687
299.68
334.881
361.893
382.315
397.534
408.676
416.639
422.125
425.689
427.76
428.677
428.703
428.053
426.941
78.4568
165.731
239.603
296.639
339.711
371.892
395.699
413.106
425.644
434.484
440.509
444.389
446.632
447.626
447.668
446.989
445.772
444.202
99.5942
200.953
279.468
337.817
380.465
411.832
434.934
451.834
464.076
472.815
478.901
482.963
485.475
486.799
487.214
486.932
486.122
484.953
144.789
258.324
348.649
417.67
468.583
506.917
536.099
558.34
575.311
588.257
598.091
605.495
610.992
614.988
617.798
619.673
620.804
621.392
366.941
498.535
666.744
808.337
923.936
1017.38
1092.64
1153.55
1203.11
1243.56
1276.71
1303.97
1326.46
1345.07
1360.51
1373.35
1384.01
1392.93
4.46498
5.39792
7.96841
9.96856
11.4375
12.4477
13.069
13.3799
13.5982
13.9727
14.4756
15.1693
16.1701
17.5832
19.4219
21.6428
24.3293
28.0247
32.4278
37.6722
43.8795
51.0402
59.0809
67.8842
77.315
87.2393
97.5325
108.083
118.795
129.586
140.386
151.142
161.811
172.362
182.774
193.033
203.135
213.079
222.87
232.515
242.021
251.4
260.661
269.814
278.869
287.833
296.715
305.522
314.259
322.931
331.542
340.095
348.593
357.037
365.428
373.767
382.054
390.289
398.47
406.597
414.669
422.684
430.64
438.536
446.371
454.143
461.85
469.491
477.064
484.568
492.002
499.363
506.652
513.868
521.009
528.076
535.069
541.992
548.85
555.654
562.424
569.197
575.998
582.729
589.404
596.035
602.627
609.183
615.706
622.198
628.659
635.091
641.493
647.864
654.203
660.507
666.772
672.993
679.163
685.274
691.316
697.275
703.138
708.887
714.501
719.957
725.228
730.284
735.089
739.605
743.787
747.587
750.952
753.822
756.133
757.815
758.793
758.988
758.315
756.687
754.013
750.205
745.179
738.885
731.387
723.286
718.148
720.458
724.026
726.672
728.026
727.953
726.383
723.284
718.652
712.511
704.909
695.916
685.623
674.136
661.575
648.069
633.75
618.753
603.21
587.248
570.985
554.529
537.978
521.415
504.913
488.531
472.316
456.302
440.509
424.947
409.611
394.429
379.217
364.035
349.063
334.18
319.364
304.635
290.028
275.588
261.367
247.417
233.797
220.562
207.758
195.421
183.561
172.164
161.19
150.562
140.187
129.885
119.601
108.543
14.8335
9.96765
8.92799
8.61224
8.60156
8.79526
9.17377
9.77248
10.6524
11.8365
13.3665
15.3483
17.9657
21.1824
24.802
28.7094
32.7937
36.9863
41.2046
45.4231
49.6377
53.8387
58.0118
62.1425
66.2214
70.246
74.2189
78.1458
82.0331
85.8865
89.7107
93.5087
97.2826
101.034
104.762
108.47
112.156
115.822
119.467
123.094
126.702
130.293
133.867
137.425
140.967
144.495
148.009
151.508
154.993
158.465
161.922
165.364
168.792
172.205
175.602
178.982
182.345
185.689
189.014
192.319
195.603
198.865
202.103
205.317
208.506
211.668
214.803
217.909
220.986
224.033
227.049
230.032
232.983
235.901
238.786
241.638
244.457
247.246
250.008
252.75
255.481
258.218
260.992
263.75
266.488
269.206
271.907
274.592
277.263
279.92
282.565
285.198
287.82
290.431
293.033
295.624
298.205
300.775
303.332
305.875
308.402
310.91
313.394
315.851
318.274
320.657
322.991
325.268
327.475
329.602
331.633
333.552
335.34
336.978
338.441
339.706
340.743
341.525
342.018
342.189
342.006
341.436
340.454
339.06
337.306
335.404
334.011
333.362
332.613
331.404
329.63
327.25
324.253
320.637
316.415
311.609
306.25
300.377
294.038
287.282
280.168
272.752
265.094
257.253
249.286
241.246
233.182
225.14
217.16
209.277
201.519
193.912
186.475
179.223
172.166
165.313
158.667
152.228
146.007
140.16
135.026
130.279
125.841
121.677
117.775
114.125
110.717
107.538
104.57
101.785
99.1495
96.6208
94.1514
91.693
89.2052
86.6704
84.1085
81.6593
79.4694
79.1905
27.3194
14.713
12.038
11.1559
10.9484
11.1611
11.7559
12.7341
14.0823
15.8397
18.0665
20.795
23.9968
27.5437
31.2391
34.9039
38.4155
41.7229
44.8323
47.7889
50.6489
53.46
56.256
59.0582
61.8791
64.7254
67.5991
70.4989
73.4211
76.36
79.3093
82.2625
85.2139
88.1588
91.0935
94.0153
96.9227
99.8148
102.691
105.553
108.399
111.232
114.051
116.857
119.651
122.433
125.203
127.963
130.711
133.449
136.175
138.89
141.593
144.284
146.962
149.627
152.277
154.913
157.533
160.136
162.722
165.289
167.837
170.364
172.87
175.353
177.813
180.248
182.659
185.044
187.402
189.733
192.038
194.315
196.566
198.791
200.992
203.171
205.33
207.475
209.61
211.742
213.863
215.965
218.046
220.105
222.145
224.165
226.167
228.151
230.119
232.072
234.01
235.935
237.847
239.747
241.635
243.513
245.38
247.237
249.082
250.916
252.736
254.542
256.33
258.097
259.84
261.553
263.23
264.864
266.446
267.966
269.412
270.769
272.023
273.156
274.147
274.975
275.617
276.046
276.237
276.166
275.812
275.166
274.245
273.152
272.025
270.84
269.383
267.524
265.205
262.402
259.109
255.33
251.078
246.375
241.251
235.742
229.888
223.735
217.333
210.732
203.982
197.132
190.231
183.323
176.447
169.641
162.937
156.361
149.935
143.679
137.605
131.724
126.043
120.565
115.293
110.227
105.373
100.746
96.3931
92.3541
88.5667
85.0135
81.6829
78.566
75.6558
72.9458
70.4283
68.0942
65.9313
63.9242
62.0537
60.2981
58.6362
57.0534
55.5525
54.1874
53.0628
52.7306
39.6797
19.2244
15.5005
14.4287
14.2756
14.6788
15.5042
16.6843
18.2497
20.2218
22.5997
25.3407
28.349
31.4833
34.5916
37.5571
40.3246
42.9004
45.3323
47.6847
50.0168
52.3716
54.7744
57.2364
59.7597
62.3406
64.9724
67.6468
70.3549
73.0878
75.8373
78.5962
81.3583
84.1187
86.8736
89.6202
92.3567
95.0818
97.795
100.496
103.185
105.862
108.528
111.183
113.827
116.46
119.083
121.697
124.3
126.893
129.477
132.049
134.611
137.162
139.701
142.227
144.741
147.24
149.724
152.193
154.644
157.078
159.493
161.888
164.262
166.614
168.943
171.248
173.529
175.784
178.013
180.215
182.39
184.539
186.661
188.758
190.829
192.877
194.902
196.908
198.895
200.862
202.805
204.721
206.611
208.474
210.31
212.121
213.907
215.669
217.408
219.125
220.821
222.497
224.154
225.794
227.416
229.023
230.616
232.194
233.758
235.309
236.846
238.369
239.876
241.366
242.837
244.285
245.706
247.095
248.444
249.747
250.993
252.171
253.269
254.27
255.158
255.913
256.514
256.939
257.162
257.158
256.907
256.388
255.615
254.611
253.393
251.927
250.128
247.934
245.309
242.237
238.714
234.745
230.347
225.541
220.356
214.829
209.001
202.917
196.625
190.173
183.611
176.987
170.345
163.728
157.174
150.718
144.387
138.207
132.198
126.374
120.747
115.324
110.111
105.108
100.316
95.7335
91.358
87.1891
83.2318
79.5036
75.9887
72.6735
69.5474
66.6019
63.8295
61.2238
58.7785
56.4875
54.3442
52.3412
50.4702
48.722
47.0876
45.561
44.1439
42.8596
41.7563
40.997
52.0898
24.1513
19.4918
18.2062
18.0579
18.49
19.3051
20.4784
22.002
23.8604
26.0155
28.4
30.9202
33.4722
35.9658
38.3472
40.6072
42.773
44.8915
47.0109
49.1695
51.3912
53.6871
56.0587
58.502
61.0099
63.5741
66.1859
68.8368
71.5187
74.2242
76.9467
79.6806
82.4211
85.1641
87.9066
90.646
93.3805
96.1088
98.8299
101.543
104.248
106.945
109.634
112.314
114.986
117.649
120.303
122.949
125.586
128.214
130.833
133.441
136.039
138.626
141.201
143.763
146.312
148.846
151.364
153.866
156.349
158.813
161.257
163.68
166.08
168.456
170.807
173.132
175.43
177.701
179.943
182.156
184.34
186.495
188.62
190.717
192.785
194.824
196.836
198.817
200.767
202.685
204.568
206.416
208.231
210.011
211.758
213.472
215.154
216.805
218.425
220.016
221.579
223.115
224.624
226.109
227.571
229.01
230.427
231.824
233.201
234.559
235.897
237.215
238.511
239.785
241.034
242.254
243.442
244.591
245.694
246.744
247.73
248.64
249.46
250.174
250.764
251.209
251.487
251.573
251.443
251.072
250.446
249.555
248.394
246.95
245.193
243.077
240.568
237.641
234.284
230.497
226.288
221.672
216.673
211.322
205.656
199.716
193.547
187.198
180.718
174.154
167.555
160.964
154.424
147.97
141.635
135.447
129.429
123.598
117.968
112.548
107.345
102.36
97.5947
93.0457
88.7097
84.5818
80.6564
76.9292
73.4009
70.065
66.9096
63.9248
61.1018
58.4326
55.9098
53.5266
51.2768
49.1544
47.1534
45.2682
43.4931
41.8231
40.2546
38.7884
37.434
36.2097
35.1585
62.6296
28.9643
23.4495
21.9476
21.6655
21.9557
22.6444
23.664
24.9775
26.5499
28.3356
30.2753
32.3025
34.3546
36.3862
38.3781
40.3368
42.2866
44.2584
46.28
48.371
50.5419
52.7956
55.1297
57.5389
60.0167
62.5556
65.1486
67.7884
70.4682
73.1817
75.9228
78.6863
81.4671
84.2612
87.0646
89.8744
92.688
95.503
98.318
101.131
103.942
106.749
109.552
112.351
115.144
117.932
120.713
123.488
126.257
129.017
131.77
134.515
137.249
139.974
142.687
145.389
148.077
150.75
153.408
156.049
158.671
161.274
163.856
166.415
168.95
171.459
173.942
176.397
178.822
181.217
183.581
185.912
188.209
190.474
192.703
194.899
197.059
199.183
201.269
203.315
205.32
207.283
209.203
211.081
212.916
214.708
216.457
218.164
219.829
221.453
223.037
224.582
226.088
227.556
228.989
230.386
231.749
233.08
234.379
235.647
236.885
238.093
239.272
240.422
241.541
242.629
243.683
244.7
245.677
246.608
247.487
248.306
249.056
249.724
250.299
250.764
251.101
251.291
251.313
251.139
250.75
250.122
249.236
248.075
246.62
244.854
242.749
240.278
237.417
234.148
230.466
226.373
221.877
216.998
211.76
206.196
200.342
194.242
187.94
181.486
174.928
168.314
161.69
155.1
148.584
142.177
135.91
129.809
123.894
118.183
112.685
107.41
102.36
97.5379
92.9406
88.5647
84.4048
80.4537
76.7038
73.1471
69.777
66.5869
63.5655
60.7031
57.9904
55.4188
52.9802
50.6671
48.4727
46.3904
44.4145
42.5393
40.76
39.072
37.4721
35.9589
34.5348
33.2037
31.9697
70.3004
32.9491
26.8366
25.0493
24.5749
24.718
25.2469
26.0654
27.1226
28.3809
29.803
31.3489
32.9795
34.6619
36.3756
38.1148
39.8865
41.7052
43.587
45.5451
47.5877
49.7179
51.9353
54.2365
56.6168
59.0711
61.5935
64.1785
66.8202
69.513
72.2512
75.0296
77.8428
80.686
83.5546
86.4446
89.3521
92.2738
95.2069
98.1489
101.097
104.051
107.008
109.966
112.925
115.884
118.842
121.797
124.75
127.699
130.643
133.581
136.513
139.437
142.352
145.257
148.151
151.032
153.899
156.751
159.585
162.4
165.195
167.968
170.716
173.439
176.134
178.8
181.435
184.037
186.606
189.139
191.635
194.093
196.512
198.89
201.227
203.522
205.77
207.971
210.122
212.223
214.273
216.27
218.216
220.108
221.948
223.734
225.468
227.148
228.777
230.354
231.88
233.355
234.78
236.157
237.487
238.769
240.007
241.199
242.347
243.452
244.515
245.534
246.511
247.444
248.331
249.172
249.963
250.7
251.378
251.992
252.532
252.992
253.358
253.619
253.759
253.762
253.607
253.275
252.744
251.993
250.998
249.74
248.197
246.349
244.178
241.661
238.779
235.515
231.859
227.808
223.369
218.552
213.379
207.877
202.078
196.022
189.751
183.312
176.752
170.12
163.461
156.822
150.243
143.764
137.416
131.228
125.225
119.424
113.839
108.48
103.352
98.4579
93.7957
89.3623
85.1525
81.1591
77.3737
73.7869
70.389
67.1701
64.121
61.2315
58.4917
55.892
53.4234
51.0771
48.8452
46.72
44.6948
42.7631
40.9192
39.1579
37.4745
35.8651
34.3268
32.8576
31.4552
30.1119
75.0833
35.8239
29.1938
27.1974
26.6027
26.6334
27.0251
27.6664
28.5022
29.4995
30.6331
31.8813
33.2246
34.6484
36.1441
37.71
39.3494
41.0686
42.8739
44.7699
46.7589
48.8407
51.0136
53.2747
55.6205
58.047
60.5501
63.1255
65.7688
68.4751
71.2398
74.0579
76.9245
79.8348
82.7841
85.7679
88.7821
91.8228
94.8863
97.9696
101.07
104.184
107.31
110.446
113.589
116.739
119.894
123.052
126.211
129.371
132.531
135.687
138.84
141.988
145.129
148.261
151.384
154.495
157.592
160.673
163.737
166.782
169.805
172.804
175.777
178.723
181.638
184.522
187.371
190.184
192.958
195.693
198.385
201.033
203.637
206.193
208.7
211.154
213.551
215.892
218.174
220.396
222.557
224.655
226.69
228.662
230.569
232.412
234.19
235.903
237.551
239.134
240.653
242.108
243.499
244.827
246.093
247.298
248.442
249.525
250.549
251.513
252.419
253.265
254.051
254.776
255.439
256.038
256.569
257.028
257.412
257.713
257.923
258.035
258.037
257.916
257.659
257.25
256.671
255.904
254.928
253.724
252.27
250.545
248.53
246.207
243.557
240.564
237.215
233.498
229.41
224.952
220.134
214.971
209.486
203.709
197.674
191.42
184.992
178.434
171.793
165.116
158.448
151.831
145.304
138.903
132.656
126.591
120.727
115.08
109.66
104.475
99.5276
94.8177
90.3423
86.0964
82.0728
78.2632
74.6578
71.2461
68.0171
64.9593
62.0615
59.3143
56.7077
54.2318
51.8773
49.6353
47.4972
45.4551
43.5018
41.6306
39.8352
38.1102
36.4505
34.8516
33.3093
31.8198
30.3779
28.974
81.4441
37.9792
30.6749
28.472
27.7779
27.7276
28.0236
28.5417
29.2239
30.0412
30.978
32.0243
33.1734
34.4207
35.7635
37.2013
38.7347
40.3652
42.0939
43.9213
45.8469
47.8697
49.9878
52.1993
54.5017
56.8926
59.3692
61.9284
64.5671
67.2813
70.0671
72.9202
75.8361
78.8102
81.8378
84.9144
88.0353
91.1964
94.3936
97.6229
100.881
104.164
107.47
110.795
114.136
117.493
120.861
124.239
127.626
131.018
134.414
137.812
141.21
144.606
147.997
151.383
154.76
158.126
161.479
164.817
168.137
171.437
174.714
177.966
181.189
184.383
187.543
190.668
193.754
196.8
199.803
202.76
205.669
208.529
211.336
214.088
216.78
219.409
221.973
224.47
226.898
229.255
231.541
233.753
235.89
237.952
239.937
241.844
243.674
245.425
247.097
248.691
250.205
251.64
252.995
254.272
255.47
256.59
257.631
258.595
259.481
260.289
261.019
261.67
262.242
262.733
263.141
263.463
263.697
263.838
263.881
263.821
263.647
263.354
262.93
262.365
261.645
260.755
259.679
258.402
256.904
255.167
253.172
250.903
248.34
245.469
242.276
238.75
234.883
230.67
226.112
221.217
215.998
210.474
204.672
198.623
192.362
185.931
179.373
172.73
166.05
159.375
152.748
146.207
139.788
133.522
127.435
121.549
115.879
110.439
105.236
100.273
95.5514
91.0679
86.8178
82.7941
78.9881
75.3902
71.9897
68.7751
65.7347
62.8555
60.1258
57.5367
55.0782
52.7404
50.5138
48.3893
46.3583
44.4126
42.5447
40.7478
39.0154
37.3416
35.7213
34.1493
32.621
31.1317
29.6755
28.244
87.07
39.4265
31.4202
29.0035
28.2206
28.116
28.3587
28.8102
29.4078
30.1232
30.9448
31.869
32.8956
34.0254
35.259
36.597
38.0393
39.5857
41.2355
42.9878
44.8418
46.7964
48.8505
51.0033
53.2537
55.6006
58.0424
60.5773
63.2032
65.9174
68.7166
71.5973
74.5555
77.587
80.6872
83.8517
87.0757
90.3547
93.6843
97.06
100.478
103.934
107.424
110.945
114.493
118.065
121.658
125.27
128.896
132.536
136.185
139.841
143.501
147.163
150.824
154.482
158.132
161.773
165.402
169.016
172.611
176.185
179.735
183.257
186.749
190.207
193.629
197.011
200.351
203.645
206.89
210.084
213.224
216.306
219.329
222.285
225.171
227.984
230.722
233.383
235.964
238.464
240.879
243.209
245.452
247.606
249.671
251.644
253.525
255.313
257.007
258.606
260.11
261.518
262.83
264.045
265.163
266.184
267.109
267.936
268.665
269.295
269.826
270.257
270.586
270.811
270.93
270.94
270.836
270.616
270.274
269.803
269.196
268.445
267.541
266.472
265.228
263.794
262.156
260.3
258.211
255.873
253.269
250.387
247.213
243.736
239.946
235.84
231.414
226.67
221.617
216.266
210.636
204.751
198.639
192.334
185.874
179.298
172.65
165.971
159.303
152.688
146.162
139.76
133.513
127.446
121.582
115.937
110.522
105.347
100.414
95.725
91.2763
87.0632
83.0786
79.3137
75.7585
72.4022
69.2333
66.2398
63.409
60.727
58.1837
55.7696
53.4747
51.2894
49.2041
47.2099
45.2981
43.4606
41.6899
39.9789
38.3212
36.7109
35.1425
33.6108
32.111
30.6382
29.1869
27.7509
90.3311
40.0089
31.5026
28.9242
28.0785
27.9467
28.1721
28.6038
29.1725
29.8476
30.6173
31.4797
32.437
33.4924
34.6488
35.9082
37.2712
38.7382
40.3089
41.9829
43.7602
45.6406
47.6244
49.7119
51.9035
54.1993
56.5992
59.1027
61.7087
64.4155
67.221
70.1223
73.1161
76.1986
79.3658
82.6132
85.9362
89.3301
92.7902
96.3117
99.8898
103.52
107.198
110.919
114.68
118.476
122.302
126.156
130.034
133.932
137.846
141.773
145.709
149.651
153.596
157.539
161.477
165.407
169.326
173.229
177.112
180.973
184.808
188.613
192.384
196.118
199.812
203.461
207.062
210.612
214.108
217.546
220.922
224.233
227.472
230.633
233.715
236.714
239.627
242.452
245.185
247.825
250.369
252.814
255.159
257.401
259.539
261.571
263.495
265.311
267.017
268.611
270.093
271.461
272.714
273.852
274.873
275.777
276.564
277.231
277.78
278.207
278.512
278.693
278.747
278.672
278.466
278.126
277.647
277.025
276.253
275.327
274.239
272.981
271.544
269.919
268.094
266.059
263.801
261.309
258.57
255.571
252.303
248.754
244.918
240.788
236.362
231.641
226.629
221.336
215.776
209.966
203.931
197.698
191.299
184.771
178.15
171.477
164.792
158.134
151.542
145.05
138.692
132.497
126.488
120.687
115.109
109.766
104.664
99.8075
95.1963
90.8272
86.6948
82.7914
79.108
75.6341
72.3586
69.2698
66.3555
63.6033
61.0003
58.5319
56.19
53.9648
51.8465
49.8255
47.8926
46.0389
44.256
42.536
40.8714
39.2554
37.6816
36.144
34.6372
33.1563
31.6963
30.2527
28.8209
27.3969
91.3541
39.8335
31.0563
28.384
27.5061
27.3706
27.6053
28.0496
28.6282
29.306
30.0685
30.9124
31.8395
32.8537
33.959
35.1589
36.4558
37.8516
39.3477
40.9454
42.6461
44.4515
46.3632
48.3832
50.5132
52.7549
55.1096
57.5781
60.1604
62.8561
65.664
68.5821
71.6079
74.7383
77.9696
81.2976
84.718
88.2259
91.8164
95.4844
99.2248
103.032
106.902
110.829
114.807
118.832
122.9
127.005
131.142
135.307
139.496
143.704
147.926
152.158
156.395
160.634
164.87
169.098
173.314
177.514
181.694
185.849
189.975
194.067
198.122
202.136
206.104
210.022
213.887
217.695
221.441
225.122
228.733
232.265
235.714
239.077
242.349
245.527
248.608
251.589
254.467
257.238
259.9
262.449
264.884
267.202
269.4
271.477
273.43
275.258
276.958
278.531
279.973
281.281
282.454
283.492
284.393
285.156
285.779
286.261
286.6
286.795
286.843
286.741
286.488
286.08
285.514
284.787
283.893
282.828
281.586
280.161
278.547
276.735
274.718
272.487
270.033
267.348
264.42
261.242
257.805
254.101
250.123
245.868
241.334
236.521
231.435
226.082
220.476
214.632
208.572
202.319
195.903
189.356
182.712
176.008
169.282
162.572
155.914
149.345
142.897
136.6
130.48
124.559
118.854
113.381
108.148
103.161
98.4231
93.932
89.6841
85.6731
81.8907
78.327
74.9712
71.8115
68.8359
66.032
63.3874
60.8896
58.5258
56.2815
54.1505
52.1229
50.1891
48.3397
46.5658
44.859
43.211
41.6143
40.0617
38.5465
37.0625
35.6041
34.1659
32.743
31.3312
29.9262
28.5245
27.1241
90.4165
39.0446
30.2197
27.5241
26.6444
26.5241
26.7852
27.2623
27.8747
28.5828
29.3682
30.2244
31.1513
32.1521
33.231
34.3925
35.6407
36.9797
38.4131
39.9445
41.5774
43.315
45.1607
47.1182
49.1912
51.3828
53.6958
56.1324
58.694
61.3813
64.1941
67.1316
70.192
73.3728
76.6709
80.0826
83.6036
87.229
90.9539
94.7728
98.6802
102.67
106.737
110.875
115.078
119.34
123.655
128.017
132.422
136.861
141.332
145.826
150.34
154.868
159.404
163.943
168.48
173.009
177.525
182.024
186.5
190.948
195.363
199.741
204.077
208.366
212.603
216.785
220.906
224.963
228.951
232.867
236.696
240.436
244.082
247.631
251.079
254.421
257.654
260.775
263.779
266.663
269.424
272.059
274.564
276.936
279.174
281.274
283.233
285.049
286.721
288.245
289.62
290.842
291.91
292.822
293.575
294.168
294.599
294.865
294.964
294.894
294.652
294.235
293.64
292.862
291.899
290.746
289.398
287.851
286.097
284.132
281.949
279.542
276.902
274.023
270.898
267.521
263.884
259.982
255.811
251.368
246.653
241.668
236.417
230.91
225.158
219.177
212.988
206.614
200.083
193.425
186.675
179.867
173.039
166.226
159.467
152.794
146.241
139.837
133.609
127.579
121.766
116.184
110.845
105.755
100.917
96.3313
91.9954
87.9036
84.0483
80.4201
77.0083
73.8012
70.7867
67.9521
65.2848
62.7723
60.4022
58.1622
56.0398
54.0219
52.1037
50.2754
48.5275
46.851
45.2373
43.6784
42.1666
40.6947
39.2559
37.8437
36.4523
35.0762
33.7103
32.3503
30.992
29.6321
28.2678
26.899
87.806
37.7747
29.1116
26.4624
25.6109
25.5216
25.8209
26.3426
27.0035
27.7599
28.5895
29.4823
30.4356
31.4508
32.531
33.6811
34.9065
36.2131
37.6069
39.0941
40.6817
42.3723
44.1704
46.0827
48.1147
50.2715
52.5575
54.9764
57.5308
60.2227
63.0531
66.0221
69.1288
72.3714
75.7474
79.2534
82.8852
86.6383
90.5073
94.4865
98.5699
102.751
107.023
111.38
115.815
120.32
124.888
129.514
134.189
138.907
143.661
148.445
153.252
158.074
162.907
167.743
172.576
177.401
182.211
187
191.763
196.494
201.187
205.838
210.44
214.989
219.481
223.908
228.268
232.556
236.763
240.881
244.904
248.828
252.647
256.358
259.956
263.437
266.796
270.029
273.133
276.102
278.935
281.626
284.173
286.572
288.82
290.913
292.848
294.624
296.235
297.681
298.958
300.062
300.992
301.745
302.317
302.707
302.911
302.926
302.751
302.381
301.812
301.043
300.067
298.883
297.484
295.867
294.026
291.957
289.653
287.109
284.318
281.276
277.977
274.414
270.584
266.482
262.105
257.453
252.527
247.328
241.864
236.143
230.177
223.985
217.585
211.003
204.267
197.408
190.461
183.462
176.448
169.457
162.526
155.691
148.984
142.436
136.073
129.918
123.987
118.297
112.858
107.675
102.752
98.09
93.6848
89.5316
85.6227
81.9489
78.4997
75.2632
72.2271
69.3784
66.7042
64.1915
61.8276
59.6002
57.4974
55.5076
53.6188
51.8204
50.1083
48.4728
46.9045
45.3951
43.9364
42.5209
41.1414
39.7911
38.4634
37.1526
35.8527
34.5589
33.2662
31.9705
30.6684
29.3571
28.0347
26.7024
83.7823
36.1307
27.824
25.2903
24.4987
24.4572
24.8063
25.3835
26.1055
26.9265
27.8211
28.7762
29.7866
30.8529
31.9727
33.1507
34.3933
35.7075
37.1009
38.5811
40.1559
41.8323
43.6176
45.5191
47.5442
49.6995
51.9907
54.423
57.0004
59.7261
62.6022
65.6296
68.8083
72.1372
75.6141
79.2359
82.9988
86.898
90.928
95.0828
99.3557
103.74
108.228
112.812
117.484
122.237
127.061
131.95
136.895
141.888
146.921
151.986
157.076
162.183
167.299
172.417
177.531
182.633
187.717
192.775
197.802
202.792
207.738
212.635
217.476
222.258
226.973
231.618
236.185
240.664
245.049
249.335
253.517
257.587
261.543
265.378
269.088
272.669
276.115
279.422
282.587
285.603
288.469
291.178
293.728
296.114
298.333
300.381
302.254
303.949
305.462
306.791
307.931
308.879
309.632
310.186
310.538
310.685
310.623
310.349
309.859
309.148
308.214
307.052
305.658
304.026
302.152
300.032
297.66
295.03
292.138
288.979
285.546
281.837
277.846
273.571
269.01
264.162
259.029
253.615
247.925
241.971
235.764
229.322
222.666
215.822
208.819
201.689
194.47
187.199
179.918
172.666
165.484
158.41
151.48
144.725
138.173
131.848
125.767
119.945
114.39
109.108
104.101
99.3662
94.9002
90.6963
86.746
83.0392
79.5648
76.3106
73.2637
70.411
67.7391
65.2345
62.8843
60.6757
58.5966
56.6353
54.7807
53.0223
51.349
49.7538
48.2322
46.7744
45.372
44.0168
42.7014
41.4188
40.1622
38.9253
37.702
36.4867
35.274
34.0589
32.8371
31.6047
30.3587
29.0968
27.8181
26.5248
78.295
34.1201
26.3834
24.044
23.3521
23.3841
23.8044
24.4597
25.2679
26.1829
27.1772
28.2349
29.3471
30.5102
31.7231
32.9887
34.3118
35.6993
37.159
38.6995
40.3298
42.0589
43.896
45.8502
47.93
50.1436
52.4982
55.0003
57.6551
60.4669
63.4388
66.5724
69.8685
73.3264
76.9443
80.7193
84.6475
88.724
92.943
97.2981
101.782
106.387
111.105
115.927
120.845
125.849
130.93
136.08
141.288
146.547
151.846
157.177
162.532
167.901
173.277
178.651
184.016
189.364
194.688
199.98
205.235
210.445
215.603
220.705
225.744
230.713
235.609
240.42
245.137
249.755
254.268
258.671
262.957
267.122
271.16
275.066
278.834
282.461
285.94
289.268
292.439
295.449
298.293
300.968
303.467
305.787
307.924
309.874
311.632
313.194
314.557
315.715
316.666
317.406
317.929
318.232
318.312
318.164
317.783
317.167
316.31
315.207
313.855
312.249
310.384
308.254
305.856
303.183
300.231
296.995
293.47
289.652
285.538
281.124
276.408
271.392
266.075
260.463
254.561
248.379
241.93
235.232
228.306
221.177
213.875
206.436
198.897
191.3
183.689
176.108
168.603
161.216
153.988
146.955
140.148
133.594
127.312
121.317
115.617
110.215
105.112
100.302
95.7782
91.5315
87.5505
83.823
80.336
77.0759
74.0289
71.1811
68.5187
66.0279
63.6954
61.5081
59.4538
57.5205
55.697
53.973
52.3387
50.7846
49.3005
47.8861
46.5327
45.2317
43.9753
42.7561
41.5673
40.4025
39.2554
38.1201
36.9908
35.8621
34.7289
33.5865
32.4307
31.258
30.0657
28.852
27.6165
26.3622
72.7962
32.3551
25.1165
22.9666
22.3898
22.5183
23.0371
23.802
24.7358
25.793
26.9449
28.1726
29.4642
30.8125
32.2141
33.669
35.1798
36.7515
38.391
40.1062
41.9064
43.8012
45.8006
47.9144
50.1523
52.5234
55.0361
57.6976
60.5141
63.4907
66.6311
69.9377
73.4113
77.0518
80.8574
84.8253
88.9515
93.2308
97.6571
102.224
106.922
111.745
116.683
121.727
126.867
132.094
137.397
142.767
148.194
153.668
159.178
164.717
170.274
175.84
181.407
186.965
192.508
198.027
203.515
208.963
214.366
219.717
225.008
230.235
235.391
240.467
245.451
250.337
255.12
259.793
264.352
268.789
273.101
277.28
281.322
285.221
288.973
292.571
296.011
299.288
302.397
305.332
308.088
310.662
313.047
315.24
317.234
319.026
320.611
321.984
323.14
324.075
324.785
325.263
325.507
325.511
325.27
324.779
324.035
323.032
321.764
320.228
318.417
316.328
313.953
311.29
308.331
305.073
301.511
297.639
293.456
288.957
284.141
279.007
273.557
267.793
261.722
255.353
248.698
241.773
234.599
227.201
219.61
211.861
203.993
196.05
188.079
180.13
172.252
164.495
156.906
149.527
142.397
135.548
129.002
122.778
116.885
111.326
106.1
101.197
96.6074
92.3171
88.3103
84.5707
81.0814
77.826
74.7883
71.9526
69.304
66.8284
64.512
62.3418
60.3056
58.3917
56.5889
54.8869
53.2762
51.7478
50.2935
48.906
47.5782
46.3097
45.092
43.9174
42.7788
41.6697
40.5838
39.5153
38.4583
37.4073
36.3568
35.3015
34.2364
33.157
32.0592
30.9396
29.7957
28.6263
27.4312
26.214
67.2994
30.6628
24.0116
22.1002
21.6879
21.97
22.6542
23.6062
24.7533
26.0507
27.4682
28.9838
30.5817
32.2502
33.9815
35.7711
37.6178
39.5231
41.491
43.5277
45.6409
47.8393
50.1327
52.5308
55.0437
57.6806
60.4506
63.3613
66.4196
69.6309
72.9994
76.5279
80.2177
84.0686
88.0793
92.247
96.5677
101.036
105.647
110.391
115.263
120.254
125.353
130.553
135.842
141.212
146.652
152.152
157.702
163.292
168.912
174.552
180.204
185.858
191.506
197.139
202.748
208.327
213.868
219.363
224.806
230.19
235.51
240.756
245.917
250.984
255.951
260.813
265.564
270.199
274.71
279.093
283.342
287.452
291.417
295.231
298.889
302.386
305.717
308.875
311.855
314.653
317.262
319.678
321.895
323.907
325.71
327.297