/*--------------------------------*- C++ -*----------------------------------*\
| =========                 |                                                 |
| \\      /  F ield         | OpenFOAM: The Open Source CFD Toolbox           |
|  \\    /   O peration     | Version:  2412                                  |
|   \\  /    A nd           | Website:  www.openfoam.com                      |
|    \\/     M anipulation  |                                                 |
\*---------------------------------------------------------------------------*/
FoamFile
{
    version     2.0;
    format      ascii;
    arch        "LSB;label=32;scalar=64";
    class       volScalarField;
    location    "0.06";
    object      k;
}
// * * * * * * * * * * * * * * * * * * * * * * * * * * * * * * * * * * * * * //

dimensions      [0 2 -2 0 0 0 0];

internalField   nonuniform List<scalar> 
12225
(
0.316793
0.394464
0.477825
0.542465
0.593601
0.634057
0.66631
0.692256
0.71324
0.730278
0.744151
0.755454
0.764643
0.772065
0.77799
0.782593
0.786149
0.789934
0.569136
0.788871
0.952477
1.06782
1.15094
1.21235
1.25773
1.29117
1.31567
1.33338
1.34586
1.3543
1.3596
1.36244
1.3634
1.36277
1.36169
1.35916
0.670061
0.972127
1.18315
1.33187
1.43923
1.51831
1.57655
1.61922
1.65022
1.67238
1.68776
1.69795
1.70412
1.70721
1.70796
1.70691
1.70502
1.7025
0.722116
1.07675
1.32649
1.5044
1.63392
1.72954
1.80018
1.85213
1.89001
1.91721
1.93626
1.94905
1.95703
1.96134
1.96288
1.96241
1.9609
1.95901
0.742793
1.12925
1.4123
1.61823
1.77026
1.88337
1.9676
2.0301
2.07614
2.10965
2.13355
2.15006
2.16091
2.16744
2.17072
2.17169
2.17136
2.17054
0.739951
1.13786
1.44652
1.67838
1.85326
1.98529
2.08492
2.1599
2.21603
2.25767
2.28814
2.30998
2.32516
2.33523
2.34148
2.34496
2.34674
2.34759
0.719673
1.10895
1.43157
1.68436
1.88071
2.03228
2.14887
2.23831
2.30665
2.35857
2.39767
2.42677
2.4481
2.4634
2.47413
2.48148
2.48652
2.48993
0.687711
1.05064
1.37217
1.63696
1.85038
2.02005
2.15388
2.25901
2.34131
2.40549
2.45528
2.49371
2.52315
2.54555
2.5625
2.57528
2.58496
2.59211
0.649071
0.972606
1.27703
1.54142
1.76379
1.94701
2.09604
2.21642
2.31324
2.39086
2.45289
2.50236
2.54172
2.57301
2.5979
2.61774
2.63357
2.64581
0.607582
0.884343
1.15794
1.40812
1.62826
1.81705
1.97612
2.10874
2.2186
2.30925
2.38384
2.44516
2.49555
2.53701
2.57121
2.59949
2.62285
2.6415
0.565927
0.793593
1.02734
1.25108
1.45679
1.64066
1.80157
1.9404
2.05912
2.16006
2.2456
2.31796
2.37918
2.43104
2.47506
2.51251
2.54427
2.57029
0.52886
0.712375
0.905692
1.09727
1.27986
1.4491
1.60251
1.73932
1.85997
1.96557
2.05756
2.13748
2.20684
2.26707
2.31944
2.365
2.40445
2.43745
0.494766
0.637547
0.791084
0.947785
1.10193
1.24964
1.38812
1.5157
1.63173
1.7363
1.82993
1.91342
1.98769
2.05369
2.11235
2.16444
2.21042
2.24962
0.460782
0.562401
0.673609
0.790415
0.908985
1.02645
1.14047
1.24926
1.35163
1.44697
1.53505
1.61596
1.68998
1.75752
1.81903
1.87493
1.92536
1.9693
0.429437
0.492965
0.563189
0.638911
0.718266
0.7996
0.881417
0.962366
1.04135
1.11755
1.19041
1.25957
1.32487
1.38623
1.4437
1.49732
1.54694
1.59132
0.403237
0.435545
0.47126
0.5105
0.552849
0.597785
0.644737
0.693067
0.742132
0.791352
0.840233
0.888361
0.935406
0.981111
1.02528
1.06774
1.10819
1.14554
0.384125
0.394704
0.406644
0.420142
0.435208
0.451806
0.469881
0.489324
0.50998
0.531668
0.554189
0.577306
0.600828
0.624574
0.648373
0.672062
0.695434
0.717952
0.374058
0.373733
0.374128
0.375264
0.377118
0.37967
0.382908
0.38682
0.391384
0.396573
0.402357
0.408732
0.415657
0.423083
0.430957
0.439221
0.447806
0.456579
0.376583
0.378873
0.381905
0.385726
0.390309
0.395615
0.40161
0.408245
0.415462
0.423193
0.431367
0.439915
0.448765
0.457852
0.46711
0.47648
0.485888
0.495104
0.394888
0.417644
0.442721
0.470189
0.49976
0.531066
0.563715
0.597269
0.631281
0.665331
0.699056
0.732148
0.764358
0.795492
0.825408
0.854002
0.881164
0.906535
0.427681
0.488854
0.555852
0.627418
0.701706
0.777069
0.852072
0.925459
0.996222
1.06364
1.12725
1.18678
1.24213
1.29331
1.34043
1.38365
1.42313
1.45892
0.47563
0.594707
0.72313
0.855222
0.98609
1.11241
1.23181
1.34269
1.44422
1.53622
1.61889
1.6927
1.75827
1.81628
1.86746
1.91249
1.95199
1.98649
0.536733
0.728415
0.928116
1.12292
1.30526
1.47147
1.61981
1.75007
1.86312
1.96044
2.04369
2.11458
2.17469
2.2255
2.2683
2.30424
2.33429
2.35932
0.604042
0.873711
1.13969
1.38166
1.59344
1.7747
1.92714
2.05382
2.15827
2.2439
2.31375
2.37046
2.41626
2.45301
2.48228
2.50535
2.5233
2.53706
0.668238
1.00745
1.31604
1.57476
1.78633
1.95706
2.09332
2.20131
2.28647
2.35327
2.40532
2.44552
2.47621
2.49923
2.51609
2.52799
2.5359
2.54069
0.717251
1.09905
1.41394
1.65855
1.84768
1.99347
2.10532
2.19078
2.25576
2.30478
2.34132
2.36807
2.38713
2.40012
2.40834
2.41279
2.41428
2.41355
0.73569
1.11855
1.40724
1.61971
1.77759
1.8956
1.98383
2.04955
2.09815
2.13368
2.15915
2.17685
2.18853
2.19552
2.19886
2.19938
2.1977
2.19442
0.708191
1.04716
1.29077
1.46562
1.59184
1.68442
1.75265
1.8027
1.83909
1.86517
1.8834
1.8956
1.90316
1.90714
1.90835
1.90742
1.90486
1.90114
0.616921
0.862604
1.04898
1.18279
1.27695
1.3452
1.3952
1.43171
1.4582
1.47718
1.49046
1.49936
1.5049
1.50785
1.50879
1.50818
1.50639
1.50381
0.33327
0.408816
0.496253
0.564231
0.616816
0.65773
0.689777
0.71518
0.735515
0.751909
0.765208
0.776059
0.784954
0.792276
0.798323
0.803334
0.807483
0.810946
0.0203921
0.038353
0.0497121
0.0577052
0.063229
0.0668816
0.069069
0.070142
0.0709146
0.072213
0.0739366
0.0762852
0.0796155
0.0841897
0.0899494
0.0966658
0.104564
0.114936
0.126675
0.139962
0.15489
0.171232
0.188666
0.206841
0.225436
0.244183
0.262871
0.281339
0.299467
0.31717
0.33439
0.351091
0.367256
0.382883
0.397982
0.412569
0.426669
0.440311
0.453524
0.466339
0.478788
0.490898
0.502697
0.51421
0.52546
0.536467
0.547248
0.55782
0.568196
0.578388
0.588406
0.598259
0.607953
0.617496
0.626893
0.636146
0.64526
0.654238
0.663082
0.671793
0.680374
0.688825
0.697146
0.70534
0.713406
0.721344
0.729157
0.736843
0.744403
0.751839
0.75915
0.766337
0.773401
0.780343
0.787164
0.793864
0.800448
0.806918
0.813281
0.819549
0.825742
0.831895
0.838034
0.844065
0.850003
0.85586
0.861643
0.867355
0.873
0.87858
0.884096
0.889551
0.894944
0.900276
0.905546
0.910752
0.915892
0.920961
0.925955
0.930867
0.93569
0.940413
0.945024
0.94951
0.953855
0.958039
0.962042
0.965838
0.9694
0.972698
0.975694
0.978352
0.980628
0.982474
0.983839
0.984667
0.984896
0.984462
0.983294
0.981319
0.978462
0.974643
0.969788
0.963838
0.956804
0.949014
0.942656
0.942777
0.9452
0.946974
0.947667
0.947141
0.94533
0.942198
0.937736
0.931951
0.924872
0.916546
0.907034
0.896411
0.884766
0.872192
0.858792
0.844671
0.829932
0.814678
0.799007
0.783011
0.766775
0.750373
0.733871
0.717325
0.70078
0.684272
0.667823
0.651445
0.635139
0.618862
0.602444
0.585767
0.569168
0.552481
0.535656
0.518695
0.501627
0.484489
0.467328
0.450201
0.43317
0.416302
0.399663
0.383305
0.36726
0.351529
0.336075
0.320808
0.3056
0.29018
0.274434
0.25707
0.0454003
0.0740553
0.095744
0.11114
0.122588
0.131728
0.139769
0.14785
0.156289
0.164976
0.175159
0.188073
0.204842
0.224905
0.246703
0.269127
0.29133
0.312982
0.334135
0.355217
0.376708
0.398953
0.42214
0.446319
0.471456
0.497458
0.524198
0.551518
0.579244
0.607195
0.635195
0.663082
0.690713
0.717973
0.744776
0.771061
0.79679
0.821949
0.846538
0.870568
0.894062
0.917045
0.939545
0.961592
0.983216
1.00444
1.0253
1.04581
1.06599
1.08586
1.10543
1.12472
1.14374
1.16251
1.18101
1.19927
1.21728
1.23506
1.2526
1.2699
1.28697
1.3038
1.3204
1.33677
1.3529
1.36881
1.38448
1.39991
1.41512
1.4301
1.44485
1.45938
1.47368
1.48777
1.50164
1.5153
1.52875
1.542
1.55506
1.56793
1.58062
1.5931
1.60522
1.61716
1.62894
1.64059
1.65212
1.66355
1.67489
1.68616
1.69736
1.70852
1.71963
1.73071
1.74177
1.75283
1.76389
1.77496
1.78605
1.79715
1.80827
1.81942
1.83058
1.84175
1.85291
1.86405
1.87514
1.88617
1.89708
1.90784
1.9184
1.9287
1.93866
1.94821
1.95725
1.96568
1.97338
1.98023
1.98607
1.99075
1.99411
1.99596
1.99614
1.99446
1.99082
1.98521
1.97812
1.96984
1.95956
1.94673
1.93116
1.91278
1.89153
1.86744
1.84056
1.81099
1.77886
1.74433
1.70762
1.66894
1.62855
1.58671
1.54368
1.49975
1.45516
1.41019
1.36506
1.32001
1.27523
1.2309
1.18719
1.14421
1.10209
1.06091
1.02073
0.981616
0.943594
0.906676
0.870818
0.835858
0.801638
0.769022
0.738108
0.70894
0.681529
0.655871
0.631949
0.609729
0.589152
0.570123
0.552504
0.53611
0.520714
0.506059
0.49188
0.47795
0.464087
0.450485
0.436708
0.428955
0.0682154
0.10923
0.139439
0.160299
0.176189
0.189645
0.202472
0.215446
0.228668
0.243104
0.259806
0.279447
0.302065
0.326892
0.352702
0.378433
0.403513
0.427957
0.452227
0.476988
0.502859
0.530261
0.559383
0.590212
0.622589
0.656264
0.690937
0.726295
0.762029
0.797862
0.83355
0.868897
0.903751
0.938004
0.971586
1.00446
1.03661
1.06805
1.0988
1.12888
1.15834
1.18721
1.21552
1.24331
1.27062
1.29748
1.3239
1.34993
1.37557
1.40086
1.42579
1.45039
1.47467
1.49862
1.52227
1.54562
1.56866
1.5914
1.61385
1.63599
1.65783
1.67937
1.7006
1.72153
1.74214
1.76245
1.78244
1.80211
1.82146
1.84049
1.85921
1.87759
1.89566
1.91341
1.93085
1.94797
1.96478
1.9813
1.99752
2.01346
2.02912
2.0444
2.05937
2.07405
2.08848
2.10267
2.11663
2.13039
2.14395
2.15733
2.17054
2.1836
2.19653
2.20932
2.22201
2.2346
2.24711
2.25954
2.27191
2.28422
2.29649
2.30871
2.32088
2.33301
2.34507
2.35707
2.36897
2.38075
2.39238
2.40381
2.41498
2.42585
2.43632
2.44631
2.45571
2.46442
2.47228
2.47916
2.48489
2.48927
2.49212
2.49322
2.49236
2.48932
2.48391
2.47616
2.46612
2.45362
2.43824
2.41968
2.39776
2.37239
2.34354
2.31124
2.27556
2.23662
2.19459
2.14971
2.10222
2.05241
2.0006
1.94712
1.89232
1.83653
1.78009
1.72332
1.66652
1.60996
1.55389
1.49852
1.44406
1.39064
1.33841
1.28746
1.23787
1.18969
1.14295
1.09767
1.05381
1.01124
0.969742
0.929268
0.890188
0.852557
0.816421
0.781815
0.748768
0.717304
0.687442
0.659193
0.632551
0.607485
0.583931
0.561791
0.54093
0.521197
0.502429
0.484626
0.467502
0.453448
0.0874854
0.148684
0.187214
0.212597
0.232085
0.248975
0.264624
0.279657
0.295295
0.312455
0.331776
0.353499
0.377373
0.402744
0.428833
0.455086
0.481367
0.507954
0.535374
0.564181
0.594794
0.627406
0.661994
0.698366
0.736231
0.775246
0.815067
0.855364
0.895848
0.936268
0.976424
1.01616
1.05535
1.09393
1.13183
1.16905
1.20556
1.24139
1.27654
1.31105
1.34494
1.37824
1.41099
1.44321
1.47494
1.5062
1.53701
1.56739
1.59737
1.62695
1.65616
1.685
1.71347
1.7416
1.76938
1.7968
1.82389
1.85063
1.87702
1.90306
1.92875
1.95408
1.97905
2.00365
2.02788
2.05173
2.0752
2.09828
2.12097
2.14326
2.16515
2.18664
2.20772
2.2284
2.24867
2.26854
2.28802
2.3071
2.32579
2.34411
2.36196
2.37937
2.39638
2.413
2.42924
2.44514
2.46069
2.47591
2.49082
2.50542
2.51974
2.53379
2.54758
2.56112
2.57444
2.58754
2.60044
2.61316
2.62571
2.63809
2.65033
2.66241
2.67435
2.68615
2.69779
2.70928
2.72059
2.7317
2.74258
2.75318
2.76346
2.77335
2.78278
2.79164
2.79985
2.80727
2.81377
2.81918
2.82333
2.82602
2.82704
2.82615
2.82313
2.8177
2.80977
2.79919
2.78583
2.76945
2.74976
2.72654
2.69963
2.66894
2.63445
2.59618
2.55423
2.50875
2.45993
2.40803
2.35334
2.29619
2.23694
2.17597
2.11366
2.05039
1.98655
1.92249
1.85854
1.795
1.73216
1.67025
1.60947
1.54999
1.49195
1.43544
1.38054
1.32731
1.27576
1.22589
1.17769
1.13106
1.08585
1.04189
0.999295
0.95808
0.918252
0.879819
0.842783
0.807151
0.772928
0.740123
0.708742
0.678787
0.650248
0.623101
0.597302
0.572791
0.549484
0.527354
0.506188
0.48677
0.104891
0.188105
0.233697
0.263811
0.286937
0.306104
0.322831
0.338796
0.355185
0.372835
0.392256
0.413617
0.436767
0.461364
0.48706
0.513688
0.541331
0.57027
0.600859
0.633387
0.667994
0.704647
0.743169
0.783288
0.824688
0.867043
0.910048
0.953427
0.996941
1.04039
1.08362
1.1265
1.16893
1.21084
1.25219
1.29295
1.33311
1.37266
1.41161
1.44997
1.48777
1.52501
1.56173
1.59794
1.63365
1.6689
1.7037
1.73807
1.77201
1.80555
1.83868
1.87142
1.90378
1.93575
1.96735
1.99856
2.02939
2.05984
2.0899
2.11957
2.14884
2.1777
2.20615
2.23417
2.26177
2.28893
2.31564
2.3419
2.36769
2.39302
2.41787
2.44224
2.46612
2.48951
2.51241
2.53481
2.55673
2.57815
2.59908
2.61947
2.6393
2.65858
2.67735
2.6956
2.71336
2.73064
2.74745
2.7638
2.7797
2.79517
2.81021
2.82485
2.83908
2.85294
2.86643
2.87957
2.89238
2.90486
2.91703
2.92891
2.9405
2.95181
2.96286
2.97362
2.98412
2.99433
3.00425
3.01385
3.02311
3.03198
3.04042
3.04836
3.05573
3.06244
3.06839
3.07345
3.07749
3.08033
3.08181
3.08171
3.07982
3.07589
3.06969
3.06103
3.0497
3.03551
3.01826
2.99772
2.97365
2.94587
2.91423
2.87866
2.83914
2.79572
2.74849
2.69764
2.64337
2.58596
2.52573
2.46304
2.39828
2.33185
2.26417
2.19564
2.12667
2.05762
1.98887
1.92072
1.85346
1.78733
1.72255
1.65928
1.59766
1.53778
1.47972
1.42351
1.36918
1.3167
1.26604
1.21714
1.16986
1.12405
1.07967
1.03669
0.995083
0.95482
0.915878
0.878235
0.841872
0.806778
0.772941
0.740354
0.709011
0.678899
0.650001
0.622288
0.595715
0.570241
0.545695
0.522356
0.118578
0.222353
0.275855
0.310894
0.336702
0.357058
0.374526
0.390783
0.407032
0.424141
0.442682
0.462956
0.485037
0.508877
0.534408
0.561641
0.590678
0.621673
0.654762
0.689999
0.727329
0.766591
0.807553
0.849939
0.893465
0.937855
0.982861
1.02826
1.07386
1.1195
1.16505
1.2104
1.25545
1.30015
1.34443
1.38827
1.43164
1.47451
1.51689
1.55877
1.60015
1.64104
1.68146
1.7214
1.76088
1.79991
1.8385
1.87666
1.9144
1.95173
1.98865
2.02516
2.06127
2.09697
2.13227
2.16717
2.20165
2.23571
2.26935
2.30256
2.33533
2.36765
2.39951
2.43089
2.46179
2.49219
2.52208
2.55145
2.5803
2.6086
2.63635
2.66354
2.69015
2.71619
2.74165
2.76652
2.79079
2.81446
2.83752
2.85988
2.88158
2.90263
2.92302
2.94278
2.96191
2.98042
2.99833
3.01563
3.03233
3.04846
3.06401
3.079
3.09345
3.10735
3.12073
3.13361
3.14599
3.15788
3.16931
3.18028
3.1908
3.20089
3.21054
3.21977
3.22856
3.23692
3.24482
3.25226
3.2592
3.26561
3.27144
3.27664
3.28113
3.28482
3.28761
3.28939
3.29002
3.28933
3.28714
3.28327
3.27747
3.26957
3.25933
3.24653
3.23096
3.21239
3.19063
3.16546
3.13668
3.10413
3.06768
3.02729
2.98295
2.93471
2.88271
2.82712
2.76818
2.7062
2.64149
2.57445
2.50548
2.43499
2.36342
2.29119
2.2187
2.14634
2.07447
2.00341
1.93344
1.86482
1.79773
1.73235
1.66879
1.60715
1.54749
1.48982
1.43416
1.38048
1.32874
1.27885
1.23071
1.18418
1.13912
1.09548
1.05322
1.01227
0.972589
0.934131
0.896855
0.860726
0.825713
0.791793
0.758946
0.727153
0.696395
0.666646
0.637867
0.610004
0.582911
0.556723
0.128051
0.250281
0.310829
0.349407
0.377311
0.399154
0.417503
0.434077
0.450147
0.466678
0.484383
0.503741
0.525041
0.548438
0.574013
0.601822
0.631911
0.664301
0.698965
0.735811
0.774685
0.815379
0.857655
0.901267
0.945975
0.991554
1.0378
1.08454
1.13161
1.17888
1.22624
1.27357
1.3208
1.36785
1.41467
1.46121
1.50743
1.5533
1.5988
1.64391
1.68862
1.73292
1.77681
1.82029
1.86335
1.906
1.94825
1.99008
2.03151
2.07253
2.11314
2.15335
2.19315
2.23253
2.27149
2.31002
2.34812
2.38577
2.42297
2.4597
2.49595
2.53171
2.56696
2.60169
2.63589
2.66952
2.70259
2.73508
2.76696
2.79823
2.82887
2.85887
2.88821
2.91689
2.94488
2.97219
2.99879
3.02468
3.04978
3.07409
3.09761
3.12035
3.14231
3.1635
3.18392
3.20358
3.22247
3.24062
3.25801
3.27466
3.29058
3.30576
3.32023
3.334
3.34706
3.35944
3.37114
3.38219
3.39258
3.40232
3.41144
3.41993
3.4278
3.43506
3.44169
3.4477
3.45308
3.4578
3.46184
3.46517
3.46773
3.46949
3.47036
3.47027
3.46912
3.46679
3.46315
3.45806
3.45132
3.44279
3.43227
3.41954
3.40441
3.38664
3.36604
3.34239
3.3155
3.28518
3.25126
3.21362
3.17216
3.12684
3.0777
3.02481
2.96831
2.9084
2.84535
2.77945
2.71107
2.64059
2.56842
2.49499
2.42073
2.34606
2.27138
2.19708
2.12351
2.05097
1.97974
1.91005
1.84208
1.77599
1.71188
1.64983
1.58987
1.53201
1.47625
1.42255
1.37084
1.32104
1.27305
1.22671
1.18187
1.13845
1.09638
1.05559
1.01601
0.977575
0.940225
0.903908
0.868574
0.834184
0.800702
0.768096
0.736338
0.705393
0.675217
0.645746
0.616856
0.588645
0.13381
0.270345
0.335476
0.377175
0.407487
0.431122
0.450703
0.467994
0.484332
0.500773
0.518151
0.537094
0.558041
0.581269
0.606934
0.635096
0.66575
0.698831
0.734223
0.771769
0.811276
0.852533
0.895323
0.939435
0.98467
1.03084
1.0778
1.12538
1.17345
1.22191
1.27064
1.31956
1.36857
1.41761
1.4666
1.5155
1.56425
1.6128
1.66113
1.7092
1.75699
1.80447
1.85164
1.89847
1.94495
1.99108
2.03684
2.08223
2.12725
2.17188
2.21612
2.25996
2.30339
2.3464
2.38899
2.43114
2.47283
2.51406
2.55481
2.59506
2.63479
2.67399
2.71264
2.75072
2.78821
2.82509
2.86134
2.89694
2.93187
2.96611
2.99965
3.03246
3.06452
3.09582
3.12635
3.15608
3.185
3.21303
3.24016
3.26638
3.29169
3.31609
3.33958
3.36215
3.3838
3.40453
3.42435
3.44325
3.46123
3.47831
3.49447
3.50973
3.52409
3.53755
3.55013
3.56182
3.57265
3.58261
3.59172
3.59998
3.6074
3.61398
3.61973
3.62466
3.62874
3.63199
3.63438
3.6359
3.63652
3.63622
3.63495
3.63265
3.62926
3.62472
3.61892
3.61173
3.60308
3.59283
3.58081
3.56687
3.55083
3.5325
3.5117
3.48822
3.46187
3.43247
3.39986
3.36387
3.32439
3.28131
3.23458
3.1842
3.13021
3.07274
3.01193
2.94802
2.88129
2.81204
2.74065
2.66751
2.59303
2.51762
2.44172
2.36573
2.29005
2.21502
2.141
2.06825
1.99704
1.92756
1.85998
1.79443
1.73099
1.66972
1.61062
1.5537
1.49891
1.44622
1.39553
1.34676
1.29979
1.25447
1.21063
1.16817
1.12701
1.08706
1.04826
1.0105
0.973733
0.937873
0.90286
0.86864
0.835162
0.802384
0.770262
0.738755
0.707809
0.677355
0.647289
0.617714
0.141412
0.282186
0.350582
0.394916
0.427483
0.453026
0.474157
0.492639
0.509818
0.52679
0.544451
0.563511
0.584492
0.607745
0.633463
0.66172
0.692489
0.725677
0.76114
0.798705
0.838182
0.879378
0.922106
0.966189
1.01146
1.05778
1.10501
1.15303
1.20172
1.25099
1.30073
1.35087
1.40131
1.45198
1.50281
1.55374
1.6047
1.65564
1.70652
1.75729
1.80791
1.85834
1.90857
1.95856
2.00829
2.05774
2.10688
2.15572
2.20421
2.25236
2.30015
2.34756
2.39457
2.44117
2.48734
2.53307
2.57833
2.62311
2.66739
2.71114
2.75435
2.79698
2.83902
2.88045
2.92123
2.96135
3.00077
3.03948
3.07745
3.11466
3.15108
3.18668
3.22146
3.25537
3.28841
3.32055
3.35171
3.38186
3.41099
3.4391
3.46616
3.49218
3.51714
3.54104
3.56387
3.58562
3.60628
3.62587
3.64436
3.66176
3.67807
3.69328
3.7074
3.72042
3.73236
3.74321
3.75297
3.76166
3.76927
3.77581
3.78128
3.78569
3.78903
3.79129
3.79249
3.79261
3.79162
3.78952
3.78628
3.78187
3.77625
3.76937
3.76114
3.75154
3.74049
3.72787
3.71358
3.69752
3.67954
3.6595
3.63726
3.61264
3.58548
3.55562
3.5229
3.48718
3.44831
3.40619
3.36074
3.3119
3.25967
3.20408
3.14521
3.08321
3.01828
2.95066
2.88064
2.80856
2.73478
2.6597
2.58371
2.50723
2.43066
2.35438
2.27876
2.20413
2.13079
2.05899
1.98896
1.92085
1.85482
1.79093
1.72927
1.66984
1.61264
1.55764
1.50479
1.45401
1.40521
1.3583
1.31312
1.26955
1.22738
1.18653
1.1469
1.1084
1.07093
1.03441
0.998749
0.963865
0.929683
0.896136
0.863163
0.830707
0.798718
0.767142
0.735922
0.704988
0.674255
0.643844
0.147871
0.287734
0.357792
0.403945
0.438393
0.465789
0.48866
0.508697
0.527199
0.545236
0.5637
0.583317
0.604641
0.628056
0.65379
0.681936
0.712487
0.745358
0.780422
0.817523
0.856497
0.897181
0.939421
0.983074
1.02801
1.07411
1.12126
1.16937
1.21834
1.26807
1.31849
1.36951
1.42105
1.47302
1.52537
1.57801
1.63089
1.68393
1.73707
1.79027
1.84348
1.89664
1.94971
2.00266
2.05546
2.10806
2.16045
2.21258
2.26445
2.31601
2.36725
2.41813
2.46865
2.51877
2.56848
2.61773
2.66652
2.71481
2.76258
2.8098
2.85644
2.90248
2.94788
2.99262
3.03666
3.07998
3.12256
3.16434
3.20532
3.24546
3.28473
3.3231
3.36055
3.39704
3.43255
3.467
3.50035
3.53258
3.56368
3.59362
3.62238
3.64996
3.67634
3.7015
3.72544
3.74813
3.76957
3.78975
3.80866
3.82629
3.84264
3.85769
3.87145
3.88391
3.89506
3.9049
3.91344
3.92067
3.92659
3.9312
3.9345
3.93648
3.93714
3.93648
3.93449
3.93115
3.92645
3.92036
3.91285
3.90391
3.89352
3.8816
3.8681
3.85299
3.83617
3.81758
3.79711
3.77467
3.75016
3.72344
3.6944
3.6629
3.62882
3.59203
3.55241
3.50986
3.4643
3.41567
3.36393
3.30908
3.25117
3.19028
3.12654
3.06014
2.99129
2.92027
2.84739
2.77299
2.69744
2.62112
2.54441
2.46771
2.39139
2.31579
2.24125
2.16805
2.09645
2.02666
1.95886
1.89318
1.82971
1.7685
1.70958
1.65294
1.59855
1.54635
1.49626
1.44819
1.40203
1.35767
1.31497
1.27375
1.23385
1.19516
1.15759
1.12103
1.08538
1.05055
1.01644
0.982953
0.950014
0.917543
0.885469
0.85373
0.822264
0.791013
0.759917
0.728908
0.697922
0.667099
0.151564
0.287893
0.358438
0.405719
0.441658
0.470757
0.495413
0.517205
0.537337
0.556799
0.576429
0.596919
0.618814
0.642507
0.668251
0.696172
0.726297
0.758584
0.792941
0.829254
0.867396
0.907244
0.948679
0.991592
1.03588
1.08146
1.12824
1.17613
1.22507
1.27497
1.32576
1.37735
1.42967
1.48265
1.53621
1.59027
1.64477
1.69962
1.75476
1.81014
1.86568
1.92133
1.97703
2.03274
2.08841
2.144
2.19946
2.25475
2.30983
2.36468
2.41925
2.47352
2.52744
2.58099
2.63413
2.68684
2.73907
2.7908
2.84199
2.8926
2.94262
2.99199
3.04068
3.08867
3.13591
3.18238
3.22803
3.27283
3.31675
3.35975
3.4018
3.44287
3.48292
3.52191
3.55977
3.59645
3.63193
3.66617
3.69915
3.73085
3.76124
3.7903
3.81801
3.84435
3.86931
3.89285
3.91497
3.93565
3.95487
3.97262
3.98889
4.00367
4.01695
4.0287
4.03892
4.04761
4.05476
4.06036
4.06441
4.0669
4.06781
4.06715
4.0649
4.06106
4.0556
4.04853
4.03981
4.02943
4.01736
4.00358
3.98805
3.97073
3.95158
3.93053
3.90753
3.88252
3.85542
3.82615
3.79462
3.76075
3.72444
3.68559
3.64413
3.59998
3.55306
3.50332
3.45074
3.39532
3.33708
3.27609
3.21244
3.14627
3.07777
3.00715
2.93468
2.86065
2.78539
2.70924
2.63257
2.55574
2.47911
2.40303
2.32785
2.25386
2.18134
2.11053
2.04164
1.97482
1.9102
1.84786
1.78786
1.7302
1.67488
1.62184
1.57102
1.52234
1.4757
1.431
1.3881
1.34687
1.30718
1.26883
1.23167
1.19561
1.16052
1.12631
1.09287
1.06009
1.02787
0.99612
0.964747
0.933667
0.902805
0.87209
0.841456
0.810841
0.780184
0.749425
0.71852
0.687621
0.152735
0.283757
0.353908
0.401762
0.438823
0.469413
0.495777
0.519362
0.541249
0.562322
0.583328
0.604893
0.627523
0.651604
0.6774
0.705071
0.734688
0.766258
0.799744
0.835079
0.872187
0.910984
0.951391
0.993334
1.03674
1.08156
1.12771
1.17514
1.22378
1.27357
1.32445
1.37634
1.42917
1.48287
1.53736
1.59256
1.6484
1.7048
1.76168
1.81897
1.8766
1.93451
1.99262
2.05087
2.10922
2.16759
2.22594
2.28421
2.34236
2.40034
2.4581
2.5156
2.57279
2.62964
2.6861
2.74213
2.79769
2.85274
2.90723
2.96113
3.0144
3.067
3.11887
3.17
3.22032
3.26982
3.31843
3.36613
3.41287
3.45863
3.50335
3.547
3.58954
3.63087
3.67095
3.70975
3.74724
3.78338
3.81813
3.85148
3.88338
3.91381
3.94274
3.97014
3.996
4.02027
4.04295
4.06401
4.08342
4.10117
4.11723
4.13161
4.14426
4.15516
4.16431
4.17169
4.17729
4.18109
4.18309
4.18327
4.18162
4.17812
4.17276
4.16552
4.1564
4.14536
4.13239
4.11747
4.10057
4.08166
4.06072
4.03769
4.01255
3.98525
3.95574
3.92396
3.88987
3.8534
3.81451
3.77312
3.72919
3.68266
3.63351
3.58169
3.5272
3.47005
3.41028
3.34795
3.28315
3.21602
3.14672
3.07544
3.00242
2.92793
2.85226
2.77573
2.69867
2.62143
2.54436
2.46779
2.39205
2.31746
2.24429
2.17279
2.10318
2.03565
1.97033
1.90733
1.84671
1.78852
1.73274
1.67935
1.62829
1.57949
1.53285
1.48827
1.44561
1.40477
1.36559
1.32794
1.29165
1.25655
1.2225
1.18939
1.15711
1.12555
1.0946
1.06414
1.03408
1.00431
0.974741
0.945289
0.915871
0.886411
0.856843
0.827103
0.797132
0.766877
0.736313
0.705604
0.151723
0.276343
0.345482
0.393489
0.431352
0.463192
0.491105
0.5164
0.540031
0.562761
0.585232
0.607989
0.631482
0.656069
0.682014
0.7095
0.738641
0.769495
0.802078
0.836382
0.872379
0.910027
0.949285
0.990116
1.03249
1.07636
1.1217
1.16846
1.21659
1.26606
1.3168
1.36875
1.42184
1.47601
1.53117
1.58726
1.64418
1.70187
1.76024
1.8192
1.87868
1.9386
1.99889
2.05946
2.12026
2.18121
2.24224
2.30329
2.3643
2.42522
2.48598
2.54652
2.60681
2.66677
2.72637
2.78555
2.84426
2.90245
2.96008
3.01709
3.07344
3.12908
3.18397
3.23805
3.29129
3.34363
3.39503
3.44545
3.49485
3.54318
3.5904
3.63647
3.68127
3.72476
3.76691
3.80767
3.84701
3.88488
3.92126
3.95609
3.98934
4.02099
4.05098
4.0793
4.1059
4.13076
4.15384
4.17512
4.19457
4.21217
4.22788
4.24168
4.25355
4.26345
4.27137
4.27729
4.28119
4.28304
4.28283
4.28055
4.27616
4.26965
4.261
4.25019
4.2372
4.222
4.20458
4.18491
4.16296
4.1387
4.1121
4.08314
4.05177
4.01796
3.98168
3.94289
3.90156
3.85765
3.81114
3.76201
3.71025
3.65585
3.59883
3.53921
3.47706
3.41245
3.34548
3.27631
3.20508
3.13202
3.05734
2.98131
2.90421
2.82636
2.74808
2.6697
2.59156
2.514
2.43734
2.36188
2.2879
2.21565
2.14536
2.0772
2.01133
1.94786
1.88688
1.82841
1.77247
1.71905
1.66808
1.6195
1.57321
1.52911
1.48707
1.44696
1.40864
1.37197
1.3368
1.30299
1.27037
1.23874
1.20802
1.17809
1.14881
1.12009
1.0918
1.06383
1.03608
1.00845
0.980845
0.953174
0.925355
0.897312
0.868974
0.84028
0.811175
0.781616
0.751591
0.721273
0.148828
0.266506
0.334247
0.382119
0.420527
0.45339
0.482659
0.509518
0.534798
0.55915
0.583109
0.607134
0.631612
0.656858
0.683119
0.710586
0.739402
0.769672
0.801463
0.834827
0.869805
0.906353
0.944462
0.984149
1.02542
1.06827
1.11268
1.15865
1.20614
1.25511
1.30554
1.35735
1.41051
1.46493
1.52055
1.57729
1.63508
1.69382
1.75342
1.81381
1.87489
1.93658
1.99879
2.06143
2.12443
2.1877
2.25116
2.31474
2.37837
2.44197
2.50548
2.56882
2.63194
2.69478
2.75726
2.81933
2.88094
2.94203
3.00253
3.0624
3.12157
3.18001
3.23764
3.29443
3.35032
3.40526
3.4592
3.51209
3.56389
3.61454
3.66398
3.71214
3.75896
3.80438
3.84837
3.89088
3.93185
3.97125
4.00903
4.04514
4.07955
4.1122
4.14307
4.1721
4.19927
4.22453
4.24784
4.26918
4.28849
4.30576
4.32095
4.33402
4.34494
4.35369
4.36022
4.36452
4.36656
4.3663
4.36373
4.35882
4.35153
4.34185
4.32975
4.3152
4.29818
4.27866
4.25662
4.23202
4.20484
4.17506
4.14264
4.10756
4.06979
4.02931
3.9861
3.94014
3.89142
3.83995
3.78572
3.72875
3.66908
3.60677
3.54188
3.47451
3.40479
3.33287
3.25893
3.18319
3.1059
3.02733
2.94778
2.86758
2.78707
2.70659
2.62649
2.5471
2.46877
2.3918
2.31647
2.24303
2.17171
2.10268
2.0361
1.97208
1.91069
1.85197
1.79594
1.74257
1.69182
1.64361
1.59784
1.55441
1.51319
1.47403
1.4368
1.40135
1.36752
1.33516
1.30411
1.27423
1.24535
1.21729
1.18998
1.16328
1.13708
1.11125
1.08568
1.06027
1.0349
1.00947
0.983895
0.95808
0.931941
0.905402
0.878394
0.850855
0.822736
0.794003
0.764657
0.734877
0.14429
0.254927
0.321066
0.368642
0.407427
0.441135
0.471592
0.499871
0.526698
0.55262
0.578081
0.603459
0.629085
0.655256
0.682108
0.70984
0.738621
0.768584
0.799836
0.832463
0.866533
0.90209
0.939175
0.977829
1.01809
1.05997
1.1035
1.14867
1.19549
1.24392
1.29395
1.34554
1.39863
1.45317
1.50908
1.5663
1.62473
1.6843
1.74491
1.80648
1.8689
1.93208
1.99592
2.06034
2.12523
2.19051
2.25608
2.32186
2.38777
2.45372
2.51963
2.58543
2.65104
2.71638
2.7814
2.84601
2.91016
2.97377
3.03679
3.09915
3.16079
3.22166
3.28169
3.34083
3.39902
3.45621
3.51234
3.56737
3.62122
3.67383
3.72514
3.77509
3.82362
3.87068
3.91621
3.96017
4.00249
4.04313
4.08204
4.11917
4.15447
4.18789
4.21938
4.2489
4.2764
4.30183
4.32516
4.34633
4.36531
4.38206
4.39653
4.40868
4.41848
4.42589
4.43086
4.43337
4.43338
4.43085
4.42575
4.41805
4.40772
4.39471
4.37901
4.36058
4.33939
4.3154
4.2886
4.25895
4.22642
4.19098
4.15262
4.11132
4.06706
4.01982
3.96961
3.91643
3.86029
3.80124
3.7393
3.67456
3.60709
3.537
3.46443
3.38956
3.31258
3.23372
3.15326
3.0715
2.98875
2.90538
2.82174
2.73823
2.65521
2.57307
2.49217
2.41282
2.33535
2.26
2.18703
2.1166
2.04886
1.98393
1.92185
1.86268
1.8064
1.75298
1.70237
1.65448
1.60922
1.56646
1.52608
1.48792
1.45183
1.41765
1.38523
1.35441
1.32501
1.29689
1.26988
1.24385
1.21862
1.19405
1.17008
1.14655
1.12335
1.10036
1.07746
1.05455
1.03152
1.00827
0.984708
0.960745
0.936296
0.911283
0.885638
0.859304
0.832233
0.804402
0.775823
0.746674
0.137967
0.241618
0.306118
0.353379
0.392502
0.427006
0.458621
0.488319
0.516708
0.544264
0.571349
0.598262
0.625253
0.652538
0.680292
0.708681
0.737858
0.767964
0.799124
0.831454
0.865054
0.900015
0.936419
0.974341
1.01384
1.05498
1.09779
1.14231
1.18855
1.23651
1.28617
1.33751
1.39049
1.44506
1.50115
1.5587
1.61762
1.67782
1.73921
1.80171
1.86519
1.92957
1.99474
2.0606
2.12704
2.19396
2.26127
2.32887
2.39666
2.46454
2.53244
2.60026
2.66793
2.73535
2.80245
2.86916
2.9354
3.0011
3.06619
3.1306
3.19426
3.25712
3.31911
3.38017
3.44023
3.49924
3.55715
3.61387
3.66934
3.7235
3.77629
3.82765
3.87752
3.92585
3.97256
4.01761
4.06094
4.10248
4.1422
4.18002
4.21589
4.24976
4.28158
4.31128
4.33883
4.36416
4.38722
4.40797
4.42635
4.44231
4.45581
4.4668
4.47523
4.48106
4.48423
4.48472
4.48247
4.47744
4.46959
4.45888
4.44527
4.42873
4.40922
4.38669
4.36112
4.33247
4.30072
4.26582
4.22777
4.18652
4.14208
4.09442
4.04354
3.98945
3.93217
3.87173
3.80817
3.74158
3.67202
3.59963
3.52455
3.44695
3.36704
3.28508
3.20134
3.11615
3.02986
2.94286
2.85554
2.76834
2.68169
2.596
2.51168
2.42913
2.34868
2.27064
2.19527
2.12277
2.05329
1.98694
1.92378
1.86381
1.80702
1.75335
1.70272
1.65504
1.61018
1.56801
1.52838
1.49114
1.45613
1.42318
1.39213
1.36279
1.335
1.3086
1.28342
1.25932
1.23613
1.21372
1.19192
1.17067
1.14984
1.1293
1.10893
1.08862
1.06824
1.04769
1.02688
1.0057
0.984069
0.961885
0.939069
0.915543
0.891239
0.866101
0.840088
0.813182
0.785404
0.756931
0.131481
0.228483
0.291517
0.338536
0.377983
0.41321
0.445856
0.476848
0.506763
0.536
0.564851
0.593543
0.622262
0.651165
0.680394
0.710083
0.740363
0.771362
0.803207
0.836023
0.869928
0.905038
0.941458
0.97929
1.01862
1.05953
1.10209
1.14633
1.1923
1.24002
1.28947
1.34066
1.39356
1.44811
1.50427
1.56197
1.62113
1.68166
1.74349
1.8065
1.87059
1.93566
2.00161
2.06833
2.1357
2.20362
2.27198
2.34069
2.40964
2.47873
2.54786
2.61695
2.68591
2.75464
2.82306
2.89109
2.95865
3.02567
3.09207
3.15778
3.22273
3.28685
3.35008
3.41235
3.4736
3.53376
3.59275
3.65051
3.70697
3.76209
3.81578
3.86799
3.91866
3.96771
4.0151
4.06075
4.1046
4.1466
4.18667
4.22476
4.26081
4.29475
4.32653
4.35607
4.38333
4.40825
4.43075
4.45079
4.46831
4.48325
4.49555
4.50516
4.51202
4.51609
4.5173
4.5156
4.51095
4.50329
4.49257
4.47876
4.46179
4.44164
4.41825
4.39158
4.3616
4.32827
4.29156
4.25144
4.20789
4.16088
4.11042
4.0565
3.99914
3.93835
3.87419
3.80672
3.73602
3.66219
3.5854
3.5058
3.42361
3.33908
3.2525
3.1642
3.07456
2.98399
2.89292
2.80183
2.71119
2.62149
2.53321
2.4468
2.36267
2.2812
2.20269
2.12739
2.05549
1.9871
1.92229