/*--------------------------------*- C++ -*----------------------------------*\
| =========                 |                                                 |
| \\      /  F ield         | OpenFOAM: The Open Source CFD Toolbox           |
|  \\    /   O peration     | Version:  2412                                  |
|   \\  /    A nd           | Website:  www.openfoam.com                      |
|    \\/     M anipulation  |                                                 |
\*---------------------------------------------------------------------------*/
FoamFile
{
    version     2.0;
    format      ascii;
    arch        "LSB;label=32;scalar=64";
    class       volScalarField;
    location    "0.06";
    object      nut;
}
// * * * * * * * * * * * * * * * * * * * * * * * * * * * * * * * * * * * * * //

dimensions      [0 2 -1 0 0 0 0];

internalField   nonuniform List<scalar> 
12225
(
2.01501e-05
2.2485e-05
2.47472e-05
2.63681e-05
2.75831e-05
2.85077e-05
2.92239e-05
2.97877e-05
3.0236e-05
3.05952e-05
3.08847e-05
3.11186e-05
3.13075e-05
3.14594e-05
3.15802e-05
3.16737e-05
3.17458e-05
3.18221e-05
0.00016779
0.000185421
0.000202585
0.00021377
0.000221125
0.000225962
0.000228978
0.000230696
0.000231491
0.000231622
0.000231272
0.000230577
0.000229636
0.00022852
0.000227289
0.000225972
0.000224725
0.000224139
0.000338321
0.000365979
0.000399335
0.000424368
0.00044273
0.00045608
0.000465582
0.000472176
0.00047658
0.000479328
0.000480821
0.000481361
0.000481177
0.000480442
0.000479294
0.00047784
0.000476296
0.000475641
0.000480615
0.000521745
0.000570082
0.000608334
0.00063773
0.000660123
0.000676999
0.000689579
0.00069883
0.000705493
0.000710139
0.000713211
0.000715051
0.000715925
0.000716047
0.000715594
0.000714834
0.000714553
0.00059354
0.000650929
0.000713439
0.000763718
0.0008032
0.000834024
0.000857975
0.000876504
0.000890758
0.000901636
0.000909839
0.00091592
0.000920313
0.00092336
0.00092534
0.000926491
0.000927099
0.000927736
0.000684372
0.000756604
0.00083189
0.000892982
0.000941542
0.000980009
0.00101046
0.00103454
0.00105358
0.00106857
0.00108035
0.00108953
0.00109663
0.00110206
0.00110615
0.00110918
0.00111145
0.00111337
0.000759695
0.000842774
0.000928225
0.000998578
0.00105515
0.00110046
0.0011368
0.00116599
0.00118947
0.00120836
0.00122356
0.00123578
0.00124559
0.00125344
0.00125972
0.00126473
0.00126876
0.00127214
0.000823553
0.000913289
0.00100518
0.00108255
0.00114573
0.00119698
0.00123855
0.00127237
0.00129994
0.00132247
0.00134093
0.00135606
0.00136851
0.00137875
0.00138721
0.00139421
0.00140004
0.00140493
0.00087693
0.000970837
0.00106523
0.00114668
0.00121454
0.00127048
0.00131645
0.0013543
0.00138556
0.00141144
0.00143294
0.00145086
0.00146585
0.00147844
0.00148906
0.00149804
0.00150566
0.00151207
0.000918197
0.00101587
0.0011099
0.00119239
0.00126256
0.00132148
0.00137069
0.00141178
0.00144615
0.00147499
0.00149926
0.00151978
0.0015372
0.00155205
0.00156478
0.00157573
0.00158511
0.00159303
0.000944718
0.0010462
0.00113879
0.00122009
0.00129024
0.0013502
0.00140115
0.00144437
0.00148105
0.00151227
0.00153891
0.00156175
0.0015814
0.00159839
0.00161315
0.00162601
0.00163714
0.00164654
0.000953929
0.00105648
0.00114717
0.00122629
0.00129496
0.00135438
0.00140564
0.00144978
0.00148781
0.00152063
0.00154903
0.00157368
0.00159516
0.00161397
0.0016305
0.00164504
0.00165773
0.00166848
0.00095158
0.00105197
0.00114081
0.00121809
0.00128507
0.00134326
0.00139385
0.00143788
0.00147625
0.00150977
0.00153913
0.00156493
0.00158769
0.00160784
0.00162574
0.00164165
0.00165566
0.00166753
0.000937331
0.00102706
0.00110982
0.00118362
0.00124832
0.00130485
0.00135428
0.00139759
0.00143567
0.00146926
0.00149901
0.00152545
0.00154906
0.00157021
0.00158922
0.0016063
0.00162147
0.00163437
0.000914147
0.000982692
0.00105028
0.00111441
0.0011733
0.00122635
0.00127367
0.00131569
0.00135298
0.00138616
0.00141579
0.00144237
0.0014663
0.00148795
0.0015076
0.00152544
0.00154144
0.00155508
0.000888257
0.000929535
0.000972811
0.00101714
0.00106114
0.00110367
0.00114389
0.00118132
0.00121574
0.00124718
0.0012758
0.00130183
0.00132553
0.00134716
0.00136694
0.00138503
0.00140141
0.0014155
0.000866217
0.00088302
0.000901654
0.000922123
0.000944133
0.000967291
0.00099117
0.00101532
0.00103932
0.0010628
0.00108548
0.00110713
0.00112764
0.00114698
0.00116512
0.00118209
0.00119783
0.0012119
0.000853661
0.000856495
0.000860536
0.000865802
0.000872246
0.000879806
0.000888411
0.000897973
0.00090838
0.000919502
0.000931205
0.000943365
0.000955834
0.000968471
0.000981146
0.000993741
0.00100613
0.00101806
0.000856808
0.000862974
0.000870324
0.000878864
0.000888477
0.000899009
0.000910291
0.00092214
0.00093436
0.000946767
0.000959197
0.000971511
0.000983601
0.000995385
0.0010068
0.00101782
0.00102837
0.00103823
0.000878946
0.000909939
0.000942748
0.000976716
0.00101084
0.00104422
0.00107616
0.00110617
0.00113396
0.00115943
0.00118261
0.0012036
0.00122256
0.00123966
0.00125509
0.00126901
0.00128154
0.00129281
0.000912346
0.000978457
0.00104301
0.00110374
0.00115914
0.00120873
0.00125267
0.00129138
0.00132539
0.00135526
0.00138151
0.00140461
0.00142499
0.00144298
0.00145889
0.00147299
0.00148549
0.0014967
0.000944597
0.00103925
0.00112396
0.00119789
0.00126171
0.00131675
0.00136425
0.00140525
0.00144066
0.00147128
0.00149779
0.00152078
0.00154075
0.00155811
0.00157323
0.00158641
0.00159791
0.00160801
0.000952974
0.00105494
0.00114489
0.00122275
0.00128948
0.0013465
0.00139506
0.0014363
0.00147131
0.00150106
0.00152636
0.00154792
0.00156632
0.00158203
0.00159546
0.00160696
0.0016168
0.00162521
0.000919817
0.00101583
0.00110713
0.00118653
0.00125358
0.00130969
0.00135641
0.00139527
0.00142762
0.00145461
0.00147716
0.00149604
0.00151185
0.00152511
0.00153622
0.00154553
0.00155332
0.00155976
0.000847989
0.000936281
0.00102596
0.00110196
0.0011644
0.00121541
0.00125703
0.00129102
0.00131885
0.00134168
0.00136042
0.00137582
0.00138847
0.00139884
0.00140732
0.00141424
0.00141983
0.00142427
0.000748298
0.000825401
0.000905891
0.000972057
0.00102528
0.001068
0.00110229
0.00112985
0.00115201
0.00116983
0.00118414
0.00119561
0.00120476
0.00121202
0.00121772
0.00122215
0.00122552
0.00122796
0.000620872
0.000679435
0.00074385
0.000795958
0.000837137
0.000869596
0.000895128
0.00091516
0.000930832
0.000943037
0.000952477
0.000959704
0.000965153
0.000969172
0.000972036
0.000973968
0.000975141
0.000975672
0.00045322
0.000491101
0.000536546
0.000572273
0.000599416
0.000620044
0.000635636
0.000647304
0.000655931
0.000662198
0.000666623
0.00066961
0.000671469
0.000672444
0.000672726
0.000672464
0.000671777
0.000670764
0.000236573
0.000259239
0.000284048
0.000301458
0.000313189
0.000321275
0.00032679
0.000330412
0.000332641
0.000333844
0.000334284
0.000334154
0.000333599
0.000332729
0.000331629
0.000330361
0.000328976
0.000327537
2.7242e-05
3.01719e-05
3.32421e-05
3.54457e-05
3.70605e-05
3.82697e-05
3.91908e-05
3.99057e-05
4.04688e-05
4.09171e-05
4.12772e-05
4.15685e-05
4.18058e-05
4.20001e-05
4.21598e-05
4.22916e-05
4.24004e-05
4.24909e-05
8.38198e-06
2.45253e-05
2.79122e-05
3.00636e-05
3.14589e-05
3.23421e-05
3.28523e-05
3.30937e-05
3.32838e-05
3.35888e-05
3.39879e-05
3.45269e-05
3.52796e-05
3.62797e-05
3.74928e-05
3.88574e-05
4.0446e-05
4.24245e-05
4.45357e-05
4.67995e-05
4.92069e-05
5.17012e-05
5.42229e-05
5.67214e-05
5.91595e-05
6.1512e-05
6.37643e-05
6.59087e-05
6.79426e-05
6.98668e-05
7.16844e-05
7.34e-05
7.50192e-05
7.6548e-05
7.79929e-05
7.93603e-05
8.06567e-05
8.18879e-05
8.30598e-05
8.41776e-05
8.52462e-05
8.62699e-05
8.72527e-05
8.81981e-05
8.91091e-05
8.99885e-05
9.08387e-05
9.16617e-05
9.24594e-05
9.32333e-05
9.39849e-05
9.47153e-05
9.54255e-05
9.61165e-05
9.67891e-05
9.74439e-05
9.80815e-05
9.87025e-05
9.93073e-05
9.98964e-05
0.00010047
0.000101029
0.000101572
0.000102102
0.000102617
0.000103118
0.000103605
0.000104079
0.00010454
0.000104987
0.000105422
0.000105844
0.000106253
0.00010665
0.000107035
0.000107409
0.00010777
0.00010812
0.00010846
0.00010879
0.000109111
0.000109425
0.000109735
0.000110034
0.000110324
0.000110605
0.000110879
0.000111145
0.000111403
0.000111655
0.000111899
0.000112137
0.000112368
0.000112593
0.000112811
0.000113023
0.000113228
0.000113426
0.000113618
0.000113803
0.00011398
0.00011415
0.000114311
0.000114463
0.000114605
0.000114737
0.000114857
0.000114963
0.000115056
0.000115133
0.000115192
0.000115231
0.000115249
0.000115243
0.000115211
0.000115148
0.000115053
0.000114922
0.000114752
0.000114537
0.000114275
0.00011396
0.000113589
0.000113155
0.000112653
0.000112067
0.000111362
0.000111033
0.000111054
0.000111066
0.000111021
0.000110909
0.000110724
0.000110463
0.000110125
0.000109708
0.000109213
0.000108641
0.000107995
0.000107278
0.000106493
0.000105644
0.000104737
0.000103777
0.000102768
0.000101717
0.000100628
9.95071e-05
9.8359e-05
9.71881e-05
9.59986e-05
9.47941e-05
9.35778e-05
9.23522e-05
9.11192e-05
8.988e-05
8.86357e-05
8.739e-05
8.61368e-05
8.48299e-05
8.35258e-05
8.22047e-05
8.08588e-05
7.94854e-05
7.80843e-05
7.66564e-05
7.52032e-05
7.37268e-05
7.22305e-05
7.07181e-05
6.91945e-05
6.76643e-05
6.61316e-05
6.45984e-05
6.30635e-05
6.15202e-05
5.99572e-05
5.83469e-05
5.6674e-05
5.47953e-05
1.25059e-05
4.95178e-05
9.24084e-05
0.000129082
0.00015724
0.000177562
0.000191655
0.000201318
0.000206373
0.000206947
0.00020658
0.000207412
0.000210202
0.000214915
0.000220854
0.000227056
0.000232929
0.000238364
0.00024386
0.000250008
0.0002573
0.000266068
0.000276464
0.000288499
0.000302083
0.000317055
0.000333211
0.000350313
0.000368109
0.000386344
0.000404774
0.000423179
0.000441369
0.000459191
0.000476528
0.0004933
0.000509458
0.00052498
0.000539866
0.00055413
0.000567798
0.000580902
0.000593478
0.000605564
0.000617194
0.000628406
0.000639229
0.000649696
0.000659831
0.00066966
0.000679203
0.00068848
0.000697505
0.000706295
0.000714861
0.000723214
0.000731364
0.000739318
0.000747085
0.00075467
0.00076208
0.000769318
0.000776391
0.000783302
0.000790055
0.000796656
0.000803107
0.000809413
0.000815578
0.000821608
0.000827506
0.000833279
0.00083893
0.000844466
0.000849892
0.00085521
0.000860422
0.00086553
0.000870526
0.000875397
0.00088012
0.000884586
0.000888559
0.000892388
0.000896136
0.00089982
0.000903452
0.00090704
0.000910596
0.000914127
0.000917645
0.000921158
0.000924677
0.000928212
0.000931773
0.00093537
0.000939013
0.000942712
0.000946476
0.000950313
0.000954231
0.000958237
0.000962339
0.000966539
0.000970843
0.000975251
0.000979763
0.000984378
0.000989089
0.000993889
0.000998767
0.00100371
0.0010087
0.00101371
0.00101871
0.00102368
0.00102858
0.00103336
0.00103796
0.00104234
0.00104642
0.00105012
0.00105333
0.00105589
0.00105751
0.00105751
0.00105436
0.00104759
0.00103901
0.00102919
0.00101825
0.00100621
0.000993083
0.000978866
0.000963578
0.000947251
0.000929926
0.000911662
0.000892527
0.000872602
0.000851976
0.000830747
0.000809018
0.000786894
0.000764481
0.000741884
0.000719204
0.000696535
0.000673968
0.000651583
0.000629455
0.000607646
0.000586212
0.000565201
0.00054465
0.000524589
0.000505042
0.000486018
0.000467439
0.000448625
0.000428332
0.00040855
0.000389639
0.000371751
0.000354942
0.000339234
0.000324633
0.000311138
0.000298738
0.000287405
0.000277091
0.000267719
0.000259187
0.000251367
0.000244102
0.000237212
0.000230463
0.000223665
0.000215986
0.000209119
1.53298e-05
7.29833e-05
0.000145364
0.0002073
0.00025518
0.000290011
0.000313845
0.000328058
0.00033418
0.0003358
0.000336253
0.000337974
0.000342207
0.000349163
0.000358394
0.000369272
0.000381461
0.000395065
0.000410549
0.00042848
0.000449329
0.000473361
0.000500601
0.000530858
0.000563769
0.000598859
0.000635593
0.000673419
0.000711811
0.000750295
0.000788464
0.000825995
0.00086264
0.000898227
0.000932649
0.000965849
0.000997816
0.00102857
0.00105815
0.00108661
0.00111401
0.00114042
0.00116592
0.00119055
0.00121439
0.0012375
0.00125991
0.00128169
0.00130286
0.00132348
0.00134356
0.00136315
0.00138226
0.00140091
0.00141913
0.00143694
0.00145434
0.00147135
0.00148797
0.00150422
0.00152011
0.00153564
0.00155081
0.00156564
0.00158013
0.00159427
0.00160808
0.00162156
0.00163471
0.00164755
0.00166006
0.00167226
0.00168414
0.00169572
0.00170699
0.00171795
0.0017286
0.00173893
0.00174893
0.00175858
0.00176785
0.00177651
0.00178474
0.00179266
0.00180034
0.00180781
0.00181508
0.00182218
0.00182912
0.00183592
0.00184258
0.00184913
0.00185558
0.00186195
0.00186826
0.00187452
0.00188074
0.00188695
0.00189315
0.00189936
0.00190559
0.00191185
0.00191815
0.00192449
0.00193089
0.00193733
0.00194382
0.00195034
0.00195689
0.00196344
0.00196998
0.00197646
0.00198286
0.00198914
0.00199522
0.00200106
0.00200657
0.00201168
0.00201628
0.00202026
0.00202348
0.00202579
0.00202699
0.00202679
0.00202476
0.0020202
0.00201216
0.00200052
0.00198621
0.00196968
0.00195107
0.0019304
0.00190768
0.00188292
0.00185613
0.00182738
0.00179672
0.00176427
0.00173014
0.00169447
0.00165743
0.00161919
0.00157994
0.00153986
0.00149915
0.001458
0.0014166
0.00137511
0.00133371
0.00129253
0.00125172
0.00121138
0.00117162
0.00113253
0.00109415
0.00105655
0.00101976
0.00098377
0.000948501
0.000913531
0.000878028
0.000841528
0.000805259
0.000769487
0.000734412
0.000700191
0.000666952
0.000634817
0.000603903
0.000574325
0.000546187
0.000519575
0.000494537
0.000471073
0.000449117
0.000428514
0.000408967
0.000390083
0.000370696
0.000350942
1.73598e-05
0.000103494
0.000203504
0.000281921
0.000339581
0.000380071
0.00040649
0.000421877
0.000430031
0.000434507
0.000438361
0.000443813
0.000452113
0.000463683
0.000478464
0.000496291
0.000517159
0.000541291
0.000569048
0.00060076
0.00063659
0.000676463
0.000720067
0.000766896
0.000816322
0.000867663
0.000920237
0.000973414
0.00102664
0.00107944
0.00113145
0.00118239
0.00123207
0.00128034
0.00132715
0.00137247
0.0014163
0.00145868
0.00149967
0.00153933
0.00157772
0.00161492
0.001651
0.00168603
0.00172008
0.00175319
0.00178543
0.00181685
0.00184748
0.00187738
0.00190658
0.0019351
0.00196298
0.00199024
0.00201689
0.00204296
0.00206847
0.00209341
0.00211782
0.00214168
0.00216501
0.00218782
0.00221011
0.00223189
0.00225315
0.00227391
0.00229415
0.0023139
0.00233313
0.00235187
0.00237011
0.00238784
0.00240507
0.00242181
0.00243803
0.00245376
0.00246897
0.00248367
0.00249785
0.0025115
0.00252442
0.0025367
0.00254844
0.00255972
0.00257058
0.00258106
0.00259116
0.00260093
0.00261037
0.00261949
0.00262833
0.00263689
0.00264519
0.00265325
0.0026611
0.00266873
0.00267618
0.00268346
0.00269059
0.00269757
0.00270442
0.00271115
0.00271777
0.00272429
0.0027307
0.002737
0.00274318
0.00274924
0.00275515
0.00276089
0.00276644
0.00277174
0.00277675
0.00278142
0.00278568
0.00278944
0.00279261
0.00279509
0.00279675
0.00279746
0.00279705
0.00279533
0.00279208
0.00278698
0.00277969
0.00276969
0.00275648
0.00274002
0.00272064
0.00269856
0.00267386
0.00264655
0.00261664
0.00258413
0.00254906
0.00251149
0.00247151
0.00242925
0.00238486
0.00233851
0.00229041
0.00224077
0.00218984
0.00213785
0.00208503
0.00203164
0.0019779
0.00192402
0.00187022
0.00181667
0.00176354
0.00171098
0.0016591
0.00160802
0.0015578
0.00150851
0.00146018
0.00141281
0.00136634
0.00132054
0.00127495
0.00122885
0.00118272
0.00113676
0.00109115
0.00104603
0.0010015
0.000957705
0.00091475
0.000872767
0.000831891
0.000792256
0.00075399
0.000717191
0.000681906
0.000648099
0.000615577
0.000583982
0.00055226
0.000520162
1.90092e-05
0.000131857
0.000252171
0.00034404
0.000410345
0.000456081
0.000485869
0.000504458
0.000516047
0.000524322
0.000532292
0.000542152
0.000555265
0.000572328
0.000593634
0.00061931
0.000649479
0.000684278
0.000723807
0.000768037
0.000816755
0.000869554
0.000925864
0.000985014
0.00104629
0.00110898
0.00117244
0.00123609
0.00129945
0.00136213
0.00142381
0.00148427
0.00154335
0.00160095
0.00165702
0.00171154
0.00176452
0.00181598
0.00186599
0.00191459
0.00196183
0.0020078
0.00205254
0.00209612
0.0021386
0.00218003
0.00222046
0.00225995
0.00229853
0.00233624
0.00237311
0.00240918
0.00244447
0.00247901
0.00251281
0.00254589
0.00257826
0.00260994
0.00264094
0.00267126
0.0027009
0.00272988
0.00275819
0.00278585
0.00281284
0.00283917
0.00286483
0.00288984
0.00291418
0.00293786
0.00296087
0.00298321
0.00300488
0.00302587
0.00304619
0.00306582
0.00308477
0.00310303
0.0031206
0.00313736
0.00315329
0.00316847
0.00318296
0.00319681
0.00321007
0.00322276
0.00323489
0.0032465
0.0032576
0.0032682
0.00327832
0.00328798
0.00329719
0.00330598
0.00331435
0.00332233
0.00332992
0.00333716
0.00334404
0.00335059
0.00335681
0.00336271
0.0033683
0.00337359
0.00337857
0.00338325
0.0033876
0.00339163
0.0033953
0.0033986
0.00340148
0.00340392
0.00340585
0.00340722
0.00340795
0.00340797
0.00340717
0.00340544
0.00340266
0.00339869
0.00339335
0.00338645
0.00337781
0.00336717
0.00335422
0.00333861
0.00332007
0.0032985
0.003274
0.00324662
0.0032164
0.00318332
0.00314739
0.00310862
0.00306705
0.00302276
0.00297585
0.00292647
0.00287477
0.00282097
0.00276529
0.00270797
0.00264927
0.00258946
0.00252878
0.00246752
0.00240592
0.00234422
0.00228263
0.00222137
0.0021606
0.00210048
0.00204113
0.00198267
0.00192518
0.0018687
0.00181328
0.00175891
0.00170554
0.00165303
0.00160111
0.00154923
0.00149736
0.00144562
0.00139409
0.00134286
0.001292
0.00124158
0.00119169
0.00114243
0.00109389
0.00104618
0.000999435
0.000953745
0.00090919
0.000865784
0.000823413
0.000781797
0.000740147
0.000698464
2.02057e-05
0.000153627
0.00029206
0.000396351
0.000470938
0.000522603
0.000557501
0.0005808
0.000596968
0.000609817
0.000622436
0.000637136
0.000655475
0.000678396
0.000706403
0.000739736
0.00077847
0.000822551
0.000871793
0.000925862
0.00098428
0.00104645
0.0011117
0.00117932
0.00124863
0.00131899
0.00138983
0.00146064
0.00153103
0.00160066
0.00166928
0.0017367
0.00180278
0.00186744
0.00193061
0.00199228
0.00205245
0.00211114
0.00216837
0.0022242
0.00227866
0.0023318
0.00238368
0.00243435
0.00248385
0.00253222
0.00257952
0.00262579
0.00267106
0.00271536
0.00275873
0.00280119
0.00284276
0.00288348
0.00292334
0.00296238
0.0030006
0.003038
0.00307461
0.00311041
0.00314542
0.00317965
0.00321308
0.00324572
0.00327756
0.00330862
0.00333887
0.00336832
0.00339697
0.00342481
0.00345183
0.00347803
0.00350341
0.00352795
0.00355167
0.00357454
0.00359657
0.00361775
0.00363803
0.00365732
0.00367567
0.00369312
0.00370974
0.00372554
0.00374056
0.00375483
0.00376836
0.00378117
0.00379327
0.00380468
0.00381541
0.00382548
0.00383489
0.00384367
0.00385183
0.00385938
0.00386634
0.00387272
0.00387853
0.00388378
0.00388849
0.00389266
0.0038963
0.00389941
0.00390199
0.00390403
0.00390554
0.0039065
0.00390688
0.00390667
0.00390583
0.00390433
0.00390212
0.00389914
0.00389532
0.00389058
0.00388485
0.003878
0.00386991
0.00386048
0.0038495
0.00383692
0.00382249
0.00380601
0.00378723
0.00376592
0.00374187
0.00371499
0.00368526
0.00365267
0.0036172
0.00357885
0.0035376
0.0034935
0.00344658
0.00339693
0.00334467
0.00328995
0.00323295
0.0031739
0.00311301
0.00305056
0.0029868
0.002922
0.00285645
0.0027904
0.00272412
0.00265785
0.0025918
0.00252618
0.00246115
0.00239688
0.00233348
0.00227104
0.00220965
0.00214935
0.00209015
0.00203206
0.00197503
0.00191895
0.00186362
0.00180869
0.00175384
0.00169915
0.00164463
0.0015903
0.00153619
0.00148233
0.00142877
0.00137555
0.00132273
0.0012704
0.00121863
0.00116751
0.00111709
0.00106739
0.00101835
0.000969729
0.000921004
0.000872533
2.09918e-05
0.000171102
0.00032401
0.000438642
0.000521375
0.00058011
0.000621375
0.000650597
0.000672387
0.00069064
0.000708533
0.000728507
0.00075229
0.00078099
0.000815222
0.000855234
0.000901007
0.000952317
0.00100878
0.00106988
0.00113501
0.00120351
0.00127469
0.0013479
0.00142251
0.00149796
0.00157376
0.00164948
0.00172477
0.00179937
0.00187303
0.0019456
0.00201695
0.002087
0.00215567
0.00222295
0.00228882
0.00235328
0.00241636
0.00247806
0.00253842
0.00259748
0.00265527
0.00271183
0.0027672
0.00282141
0.00287449
0.00292648
0.00297742
0.00302732
0.00307621
0.00312412
0.00317106
0.00321705
0.00326212
0.00330625
0.00334948
0.0033918
0.00343322
0.00347374
0.00351337
0.00355209
0.00358992
0.00362685
0.00366287
0.00369798
0.00373217
0.00376544
0.00379777
0.00382917
0.00385962
0.00388912
0.00391766
0.00394523
0.00397182
0.00399743
0.00402205
0.00404567
0.00406815
0.00408952
0.00410983
0.00412911
0.00414738
0.00416467
0.00418101
0.0041964
0.00421086
0.00422441
0.00423705
0.00424879
0.00425965
0.00426964
0.00427876
0.00428703
0.00429446
0.00430105
0.00430683
0.0043118
0.00431597
0.00431935
0.00432195
0.00432377
0.00432483
0.00432512
0.00432465
0.00432341
0.00432139
0.0043186
0.004315
0.00431059
0.00430533
0.0042992
0.00429215
0.00428413
0.0042751
0.00426496
0.00425367
0.00424111
0.00422717
0.00421183
0.00419491
0.00417629
0.0041558
0.00413327
0.00410851
0.00408136
0.00405166
0.00401932
0.00398428
0.0039465
0.00390596
0.00386265
0.00381657
0.00376776
0.00371628
0.00366223
0.00360573
0.00354696
0.00348609
0.00342336
0.00335899
0.00329326
0.00322641
0.00315873
0.00309049
0.00302194
0.00295334
0.00288491
0.00281687
0.00274941
0.00268268
0.00261682
0.00255193
0.00248811
0.00242539
0.00236381
0.00230339
0.00224409
0.00218586
0.00212861
0.00207218
0.00201628
0.00196057
0.00190501
0.00184958
0.00179425
0.00173903
0.0016839
0.00162886
0.00157394
0.00151915
0.00146453
0.00141012
0.00135598
0.00130215
0.00124863
0.00119535
0.00114217
0.00108872
0.00103565
2.14622e-05
0.000183614
0.000346957
0.00047076
0.000561752
0.000628082
0.00067648
0.000712478
0.000740714
0.000765086
0.000788795
0.000814344
0.000843557
0.000877635
0.000917248
0.000962642
0.00101374
0.00107023
0.00113163
0.00119738
0.00126682
0.00133932
0.00141422
0.00149092
0.00156888
0.00164759
0.00172664
0.00180564
0.00188432
0.0019624
0.0020397
0.00211606
0.00219135
0.00226549
0.00233841
0.00241006
0.00248043
0.00254949
0.00261726
0.00268373
0.00274891
0.00281283
0.00287551
0.00293697
0.00299723
0.00305633
0.00311429
0.00317112
0.00322686
0.00328152
0.00333513
0.0033877
0.00343924
0.00348977
0.0035393
0.00358785
0.0036354
0.00368197
0.00372757
0.00377218
0.00381581
0.00385846
0.00390011
0.00394077
0.00398043
0.00401908
0.00405671
0.0040933
0.00412886
0.00416337
0.00419682
0.00422919
0.00426048
0.00429068
0.00431977
0.00434775
0.00437461
0.00440022
0.00442459
0.00444774
0.0044697
0.00449047
0.00451008
0.00452855
0.00454588
0.00456208
0.00457717
0.00459114
0.00460401
0.00461579
0.00462646
0.00463605
0.00464456
0.00465199
0.00465836
0.00466366
0.00466791
0.00467112
0.00467329
0.00467442
0.00467453
0.00467362
0.00467169
0.00466876
0.00466481
0.00465986
0.00465389
0.00464689
0.00463887
0.0046298
0.00461967
0.00460845
0.00459609
0.0045826
0.00456791
0.00455193
0.00453467
0.00451607
0.00449602
0.00447446
0.00445128
0.00442636
0.00439959
0.00437083
0.00433995
0.00430682
0.00427134
0.00423342
0.004193
0.00415005
0.00410455
0.00405651
0.00400593
0.00395288
0.00389742
0.00383968
0.00377978
0.00371791
0.00365425
0.00358903
0.0035225
0.00345489
0.00338648
0.00331752
0.00324828
0.00317899
0.0031099
0.0030412
0.0029731
0.00290576
0.00283931
0.00277386
0.00270951
0.0026463
0.00258427
0.00252342
0.00246375
0.0024052
0.00234772
0.00229119
0.00223547
0.00218033
0.0021254
0.00207058
0.00201583
0.00196109
0.00190634
0.00185152
0.00179661
0.00174159
0.00168646
0.00163121
0.00157586
0.00152043
0.00146493
0.00140936
0.00135366
0.00129771
0.00124131
0.00118525
2.20982e-05
0.000188698
0.00036061
0.000492986
0.00059208
0.000666157
0.000722043
0.00076528
0.000800451
0.000831381
0.000861208
0.000892417
0.000926851
0.000965751
0.00100982
0.00105933
0.00111421
0.00117415
0.00123866
0.00130719
0.00137914
0.0014539
0.00153088
0.00160954
0.00168941
0.00177003
0.00185104
0.00193211
0.00201298
0.00209341
0.00217322
0.00225226
0.00233041
0.00240757
0.00248368
0.00255868
0.00263252
0.00270519
0.00277666
0.00284692
0.00291598
0.00298385
0.00305051
0.003116
0.00318032
0.00324348
0.0033055
0.0033664
0.00342619
0.00348489
0.00354251
0.00359905
0.00365454
0.00370897
0.00376236
0.0038147
0.00386601
0.00391628
0.00396551
0.0040137
0.00406084
0.00410693
0.00415196
0.00419591
0.00423878
0.00428056
0.00432123
0.00436079
0.00439921
0.00443648
0.00447259
0.00450752
0.00454127
0.00457381
0.00460512
0.00463521
0.00466396
0.00469136
0.00471742
0.00474213
0.00476552
0.00478759
0.00480834
0.00482778
0.00484591
0.00486274
0.00487827
0.0048925
0.00490542
0.00491704
0.00492735
0.00493636
0.00494408
0.00495049
0.0049556
0.00495943
0.00496196
0.0049632
0.00496316
0.00496184
0.00495924
0.00495537
0.00495023
0.00494383
0.00493616
0.00492724
0.00491706
0.00490559
0.00489286
0.00487886
0.00486357
0.00484698
0.00482901
0.00480975
0.00478914
0.00476713
0.0047437
0.00471879
0.00469237
0.00466435
0.00463468
0.00460328
0.00457005
0.00453491
0.00449777
0.00445855
0.00441717
0.00437358
0.00432774
0.00427964
0.00422927
0.00417666
0.00412185
0.00406491
0.00400593
0.00394505
0.0038824
0.00381819
0.0037526
0.00368585
0.00361819
0.00354985
0.00348109
0.00341214
0.00334326
0.00327465
0.00320653
0.00313908
0.00307247
0.00300683
0.00294225
0.00287884
0.00281663
0.00275566
0.00269593
0.00263741
0.00258007
0.00252384
0.00246864
0.00241435
0.0023608
0.00230779
0.00225497
0.00220218
0.00214937
0.00209647
0.00204341
0.00199012
0.00193655
0.00188265
0.00182838
0.00177373
0.00171867
0.0016632
0.00160732
0.001551
0.0014942
0.00143682
0.00137877
0.00132093
2.26018e-05
0.000188989
0.000366687
0.000506334
0.000612919
0.000694493
0.000757827
0.000808378
0.000850609
0.000888201
0.000924171
0.000960913
0.00100023
0.00104337
0.00109106
0.00114363
0.00120106
0.00126309
0.00132932
0.00139926
0.00147235
0.00154807
0.0016259
0.00170536
0.00178602
0.0018675
0.00194945
0.00203159
0.00211367
0.00219548
0.00227685
0.00235763
0.00243769
0.00251694
0.00259531
0.00267271
0.00274912
0.00282447
0.00289876
0.00297194
0.00304402
0.00311498
0.00318481
0.00325352
0.0033211
0.00338758
0.00345293
0.00351719
0.00358035
0.00364242
0.0037034
0.00376331
0.00382214
0.00387991
0.00393661
0.00399224
0.0040468
0.00410029
0.0041527
0.00420403
0.00425426
0.00430339
0.00435141
0.00439829
0.00444403
0.00448862
0.00453203
0.00457424
0.00461525
0.00465502
0.00469355
0.00473082
0.00476679
0.00480146
0.00483481
0.00486675
0.00489725
0.00492631
0.00495392
0.00498008
0.00500479
0.00502803
0.00504981
0.00507013
0.00508897
0.00510634
0.00512223
0.00513662
0.00514952
0.00516091
0.00517079
0.00517916
0.00518601
0.00519133
0.00519513
0.00519739
0.00519813
0.00519733
0.005195
0.00519114
0.00518575
0.00517882
0.00517036
0.00516038
0.00514889
0.00513589
0.00512136
0.0051053
0.0050877
0.00506862
0.00504804
0.00502594
0.0050023
0.00497716
0.00495049
0.00492227
0.00489249
0.00486113
0.00482815
0.00479353
0.00475723
0.0047192
0.0046794
0.00463777
0.00459428
0.00454887
0.00450153
0.00445222
0.00440095
0.00434773
0.00429259
0.00423557
0.00417675
0.00411622
0.00405411
0.00399055
0.00392571
0.00385978
0.00379297
0.00372549
0.00365757
0.00358945
0.00352135
0.00345349
0.00338609
0.00331934
0.00325342
0.00318848
0.00312463
0.00306198
0.00300061
0.00294054
0.0028818
0.00282439
0.00276826
0.00271337
0.00265965
0.002607
0.00255532
0.00250446
0.00245427
0.00240454
0.00235487
0.00230515
0.00225529
0.00220521
0.0021548
0.00210399
0.00205269
0.00200084
0.00194837
0.00189524
0.00184141
0.00178685
0.00173154
0.00167545
0.00161853
0.00156072
0.001502
0.00144326
2.28873e-05
0.000186444
0.000367049
0.000512192
0.000625232
0.000713685
0.000784075
0.000841676
0.000890761
0.000934826
0.000976715
0.00101869
0.00106248
0.00110931
0.00115993
0.00121474
0.00127379
0.00133693
0.00140386
0.00147416
0.00154739
0.00162308
0.00170079
0.00178012
0.00186066
0.00194209
0.00202411
0.00210644
0.00218886
0.00227118
0.00235323
0.00243486
0.00251596
0.00259642
0.00267616
0.0027551
0.00283318
0.00291036
0.0029866
0.00306186
0.00313613
0.00320937
0.00328158
0.00335274
0.00342285
0.0034919
0.0035599
0.00362684
0.00369272
0.00375754
0.0038213
0.003884
0.00394564
0.00400622
0.00406573
0.00412418
0.00418155
0.00423783
0.00429303
0.00434711
0.00440008
0.00445192
0.00450261
0.00455213
0.00460046
0.00464759
0.00469349
0.00473815
0.00478153
0.00482361
0.00486438
0.0049038
0.00494186
0.00497852
0.00501371
0.00504742
0.0050796
0.00511026
0.00513937
0.00516692
0.00519289
0.00521728
0.00524007
0.00526124
0.00528078
0.00529868
0.00531492
0.00532948
0.00534237
0.00535355
0.00536302
0.00537076
0.00537676
0.00538101
0.00538351
0.00538424
0.0053832
0.00538039
0.00537579
0.00536941
0.00536123
0.00535125
0.00533947
0.00532593
0.0053106
0.00529351
0.00527463
0.00525399
0.00523157
0.00520741
0.00518152
0.00515389
0.00512453
0.00509345
0.00506066
0.00502617
0.00498998
0.00495209
0.0049125
0.0048712
0.00482821
0.00478349
0.00473706
0.00468891
0.00463902
0.00458741
0.00453409
0.00447908
0.00442242
0.00436416
0.00430436
0.00424312
0.00418052
0.00411671
0.00405182
0.00398601
0.00391947
0.0038524
0.003785
0.00371748
0.00365007
0.00358298
0.00351642
0.00345057
0.00338562
0.00332173
0.00325904
0.00319765
0.00313764
0.00307907
0.00302197
0.00296634
0.00291216
0.00285937
0.00280791
0.0027577
0.00270863
0.00266057
0.0026134
0.00256695
0.00252104
0.00247546
0.00242982
0.00238401
0.00233791
0.00229143
0.00224444
0.00219685
0.00214856
0.00209947
0.00204951
0.00199861
0.00194671
0.00189378
0.00183976
0.00178463
0.00172834
0.00167084
0.00161218
0.00155324
2.29823e-05
0.000181923
0.000362973
0.000511806
0.000630076
0.000724549
0.000801352
0.000865478
0.000920963
0.000971083
0.00101849
0.00106529
0.0011131
0.00116312
0.00121612
0.00127254
0.00133254
0.00139607
0.00146294
0.00153283
0.00160539
0.00168026
0.00175706
0.00183543
0.00191505
0.00199562
0.00207686
0.00215855
0.00224047
0.00232244
0.0024043
0.00248591
0.00256715
0.00264793
0.00272815
0.00280774
0.00288663
0.00296477
0.00304211
0.0031186
0.00319423
0.00326895
0.00334276
0.00341562
0.00348752
0.00355846
0.00362842
0.00369739
0.00376538
0.00383236
0.00389834
0.0039633
0.00402725
0.00409017
0.00415205
0.0042129
0.00427268
0.00433139
0.00438902
0.00444555
0.00450095
0.00455522
0.00460832
0.00466024
0.00471095
0.00476042
0.00480863
0.00485555
0.00490115
0.0049454
0.00498828
0.00502976
0.00506979
0.00510833
0.00514533
0.00518078
0.00521464
0.0052469