/*--------------------------------*- C++ -*----------------------------------*\
| =========                 |                                                 |
| \\      /  F ield         | OpenFOAM: The Open Source CFD Toolbox           |
|  \\    /   O peration     | Version:  2412                                  |
|   \\  /    A nd           | Website:  www.openfoam.com                      |
|    \\/     M anipulation  |                                                 |
\*---------------------------------------------------------------------------*/
FoamFile
{
    version     2.0;
    format      ascii;
    arch        "LSB;label=32;scalar=64";
    class       volScalarField;
    location    "0.06";
    object      p;
}
// * * * * * * * * * * * * * * * * * * * * * * * * * * * * * * * * * * * * * //

dimensions      [0 2 -2 0 0 0 0];

internalField   nonuniform List<scalar> 
12225
(
-10.4582
-9.86588
-9.2032
-8.6467
-8.13745
-7.68065
-7.28155
-6.92984
-6.6166
-6.33626
-6.08395
-5.8552
-5.6462
-5.45371
-5.27486
-5.10664
-4.94801
-4.78864
-10.8919
-9.92404
-9.23796
-8.68758
-8.17762
-7.72073
-7.32097
-6.96781
-6.6529
-6.37084
-6.11677
-5.88626
-5.67553
-5.48133
-5.30079
-5.13092
-4.96964
-4.814
-11.0724
-9.95829
-9.27963
-8.73832
-8.22784
-7.77177
-7.3721
-7.01784
-6.70134
-6.41744
-6.16138
-5.9288
-5.716
-5.51975
-5.33716
-5.16531
-5.00153
-4.83982
-11.0962
-9.97399
-9.30425
-8.77218
-8.26434
-7.81108
-7.41323
-7.05947
-6.74276
-6.45822
-6.20118
-5.96743
-5.75337
-5.55584
-5.37198
-5.1991
-5.03376
-4.87387
-11.0261
-9.96873
-9.30452
-8.78289
-8.28205
-7.83367
-7.43933
-7.08773
-6.77227
-6.48836
-6.23152
-5.99767
-5.78336
-5.58556
-5.4015
-5.22887
-5.06393
-4.91046
-10.8844
-9.93566
-9.28107
-8.77202
-8.28277
-7.84155
-7.45232
-7.10438
-6.79145
-6.50926
-6.25359
-6.02057
-5.8069
-5.60973
-5.42646
-5.25522
-5.09238
-4.94659
-10.6819
-9.86936
-9.23492
-8.7404
-8.26721
-7.83593
-7.45355
-7.11078
-6.80162
-6.52222
-6.26865
-6.03731
-5.82509
-5.62938
-5.44782
-5.27897
-5.11946
-4.98158
-10.4293
-9.76728
-9.16695
-8.6886
-8.23531
-7.81721
-7.44365
-7.10761
-6.80356
-6.52802
-6.2775
-6.0487
-5.83877
-5.64535
-5.46637
-5.30077
-5.14549
-5.01548
-10.1373
-9.62914
-9.07832
-8.61834
-8.18764
-7.78603
-7.4234
-7.09569
-6.79809
-6.52754
-6.28104
-6.05566
-5.84885
-5.65854
-5.48294
-5.32134
-5.17094
-5.04851
-9.81713
-9.457
-8.97046
-8.53251
-8.12595
-7.74376
-7.39418
-7.07628
-6.78642
-6.52197
-6.28044
-6.05934
-5.85647
-5.67004
-5.49855
-5.34156
-5.19645
-5.08117
-9.4811
-9.25568
-8.84507
-8.43472
-8.05326
-7.69271
-7.35815
-7.05136
-6.77033
-6.51296
-6.27728
-6.06125
-5.86304
-5.68117
-5.51438
-5.36247
-5.22279
-5.11434
-9.17019
-9.05099
-8.7164
-8.33756
-7.98
-7.64077
-7.32166
-7.02607
-6.75388
-6.50372
-6.27404
-6.06324
-5.86984
-5.69263
-5.53057
-5.3836
-5.2488
-5.14656
-8.87657
-8.83801
-8.57923
-8.23669
-7.90331
-7.58605
-7.28368
-7.0001
-6.73726
-6.49478
-6.27154
-6.06638
-5.87814
-5.7059
-5.54877
-5.40678
-5.27736
-5.17909
-8.57155
-8.59564
-8.41572
-8.11925
-7.81459
-7.52288
-7.24124
-6.97273
-6.72128
-6.48806
-6.27263
-6.07426
-5.8922
-5.7258
-5.5744
-5.43805
-5.31454
-5.21953
-8.27753
-8.34448
-8.23624
-7.99167
-7.71949
-7.45539
-7.19776
-6.94767
-6.71013
-6.48806
-6.282
-6.09169
-5.9168
-5.75702
-5.61192
-5.48161
-5.36405
-5.27202
-8.02371
-8.117
-8.06646
-7.87301
-7.63424
-7.39662
-7.16288
-6.93247
-6.71026
-6.50061
-6.30513
-6.12407
-5.9573
-5.80482
-5.66642
-5.54227
-5.4305
-5.34093
-7.84282
-7.95085
-7.94189
-7.79269
-7.5855
-7.37146
-7.15848
-6.94577
-6.73753
-6.53902
-6.35293
-6.18029
-6.02084
-5.87476
-5.74201
-5.62267
-5.51514
-5.42548
-7.77568
-7.88794
-7.90036
-7.77863
-7.59355
-7.39653
-7.1986
-6.99929
-6.80216
-6.61266
-6.43409
-6.26728
-6.11285
-5.97081
-5.84099
-5.72318
-5.61639
-5.52201
-7.88694
-7.99402
-8.00052
-7.87413
-7.68625
-7.48791
-7.28973
-7.09105
-6.89526
-6.70759
-6.53109
-6.36661
-6.21418
-6.07361
-5.94458
-5.82642
-5.71891
-5.619
-8.17349
-8.268
-8.23492
-8.0639
-7.84299
-7.62104
-7.40352
-7.18916
-6.98194
-6.78639
-6.60439
-6.43598
-6.28071
-6.138
-6.00715
-5.88704
-5.7774
-5.67253
-8.57343
-8.63162
-8.52963
-8.29584
-8.03226
-7.77817
-7.53305
-7.2964
-7.0726
-6.86476
-6.67332
-6.49758
-6.33669
-6.18972
-6.05566
-5.9333
-5.82221
-5.71645
-9.07808
-9.05791
-8.85011
-8.54097
-8.22969
-7.93658
-7.65792
-7.39561
-7.15311
-6.93121
-6.7289
-6.5448
-6.37753
-6.22569
-6.08793
-5.96283
-5.84961
-5.74253
-9.64475
-9.48927
-9.14577
-8.76349
-8.40756
-8.07487
-7.76386
-7.47837
-7.21912
-6.98436
-6.77202
-6.58018
-6.40692
-6.25041
-6.109
-5.98108
-5.8656
-5.75744
-10.2107
-9.86483
-9.38207
-8.94477
-8.55145
-8.18268
-7.84418
-7.5396
-7.26609
-7.02014
-6.79911
-6.60057
-6.42209
-6.26149
-6.11684
-5.98638
-5.86883
-5.75975
-10.7156
-10.1472
-9.55179
-9.08039
-8.65435
-8.25455
-7.8946
-7.57517
-7.29027
-7.0355
-6.80777
-6.6041
-6.42166
-6.25796
-6.11088
-5.97851
-5.85942
-5.74983
-11.1176
-10.3252
-9.65887
-9.16708
-8.71242
-8.28912
-7.91421
-7.58415
-7.29105
-7.03009
-6.79774
-6.5906
-6.40553
-6.23982
-6.0912
-5.95765
-5.83764
-5.72796
-11.389
-10.4088
-9.7092
-9.20278
-8.72682
-8.28859
-7.90411
-7.56703
-7.2687
-7.00398
-6.76895
-6.5599
-6.37348
-6.20685
-6.05761
-5.92366
-5.8034
-5.69419
-11.4964
-10.4242
-9.70983
-9.18696
-8.69891
-8.25307
-7.86293
-7.52198
-7.22126
-6.95511
-6.71934
-6.51004
-6.32369
-6.15736
-6.00855
-5.87513
-5.75542
-5.64735
-11.3637
-10.3944
-9.67472
-9.12917
-8.63613
-8.18789
-7.79534
-7.45348
-7.15303
-6.88772
-6.65311
-6.44518
-6.26032
-6.0955
-5.94819
-5.81623
-5.69785
-5.59129
-10.8325
-10.3021
-9.63206
-9.07213
-8.57729
-8.12876
-7.7357
-7.39442
-7.09525
-6.83144
-6.5984
-6.39208
-6.2088
-6.04549
-5.89962
-5.76902
-5.65182
-5.54619
-5.10219
-5.09809
-5.09852
-5.10396
-5.11271
-5.12277
-5.13228
-5.13964
-5.14418
-5.14625
-5.14666
-5.1463
-5.14604
-5.1467
-5.14893
-5.15322
-5.16002
-5.16975
-5.18296
-5.20038
-5.2228
-5.25105
-5.28577
-5.32733
-5.37571
-5.43045
-5.49071
-5.55535
-5.62306
-5.69245
-5.76218
-5.83104
-5.89799
-5.96222
-6.02308
-6.08014
-6.13312
-6.18186
-6.22633
-6.26655
-6.30259
-6.33458
-6.36263
-6.38688
-6.40746
-6.42451
-6.43813
-6.44845
-6.45556
-6.45954
-6.46047
-6.45842
-6.45344
-6.44559
-6.4349
-6.4214
-6.40512
-6.38608
-6.36429
-6.33977
-6.31251
-6.28252
-6.24979
-6.2143
-6.17605
-6.135
-6.09114
-6.04443
-5.99482
-5.94228
-5.88674
-5.82815
-5.76643
-5.70151
-5.6333
-5.56171
-5.48663
-5.40796
-5.32558
-5.23944
-5.14941
-5.05522
-4.95661
-4.85315
-4.74477
-4.63128
-4.51244
-4.38799
-4.25763
-4.12105
-3.97791
-3.82787
-3.67057
-3.50564
-3.33267
-3.15128
-2.96105
-2.76158
-2.55245
-2.33325
-2.10359
-1.86308
-1.61135
-1.34806
-1.07293
-0.785706
-0.48619
-0.174268
0.150096
0.486838
0.835781
1.19662
1.5689
1.95201
2.34517
2.74739
3.15748
3.57406
3.99549
4.41993
4.8453
5.2693
5.68943
6.10295
6.50692
6.8983
7.27402
7.63144
7.96768
8.27956
8.56437
8.81972
9.04357
9.23428
9.39066
9.51205
9.59833
9.64994
9.66785
9.65357
9.6091
9.53684
9.43957
9.32033
9.18236
9.02901
8.86369
8.68972
8.51036
8.32869
8.14759
7.96968
7.79737
7.63276
7.47771
7.33381
7.20247
7.08498
6.98344
6.89933
6.82615
6.76537
6.71805
6.68482
6.6654
6.6592
6.66556
6.68375
6.71306
6.75287
6.80267
6.86215
6.93123
7.0102
7.09991
7.20178
7.31935
7.45506
7.62689
7.80577
-5.11647
-5.11396
-5.1166
-5.12409
-5.13343
-5.14213
-5.14883
-5.15278
-5.15308
-5.14919
-5.14205
-5.13338
-5.12486
-5.11794
-5.11359
-5.11235
-5.11445
-5.12007
-5.12977
-5.14458
-5.1657
-5.19425
-5.231
-5.27615
-5.32934
-5.38962
-5.4556
-5.52568
-5.59817
-5.67145
-5.74411
-5.81496
-5.88307
-5.94777
-6.0086
-6.06527
-6.11764
-6.16569
-6.20943
-6.24898
-6.28443
-6.31592
-6.34358
-6.36756
-6.38798
-6.40495
-6.4186
-6.42901
-6.43627
-6.44048
-6.44168
-6.43994
-6.43531
-6.42784
-6.41756
-6.40449
-6.38867
-6.37012
-6.34883
-6.32484
-6.29812
-6.2687
-6.23655
-6.20168
-6.16406
-6.12369
-6.08052
-6.03454
-5.9857
-5.93397
-5.87929
-5.82162
-5.76088
-5.69701
-5.62991
-5.55951
-5.48568
-5.40831
-5.32726
-5.24235
-5.15339
-5.06015
-4.96241
-4.86033
-4.75359
-4.64191
-4.52502
-4.40265
-4.2745
-4.14026
-3.99962
-3.85223
-3.69773
-3.53576
-3.36594
-3.18787
-3.00116
-2.8054
-2.60019
-2.38512
-2.1598
-1.92384
-1.67689
-1.41862
-1.14872
-0.86695
-0.573116
-0.267094
0.0511596
0.381592
0.724042
1.07822
1.4437
1.8199
2.20607
2.60126
3.00434
3.41395
3.82855
4.24633
4.66532
5.08328
5.49784
5.9064
6.30627
6.69453
7.06789
7.4228
7.75652
8.06671
8.35077
8.60635
8.83144
9.02441
9.18406
9.3097
9.40118
9.45885
9.48363
9.47692
9.44062
9.37703
9.2888
9.17886
9.05035
8.9065
8.75061
8.58594
8.41566
8.24277
8.0701
7.90025
7.73557
7.57814
7.42981
7.29217
7.16652
7.05403
6.95534
6.86993
6.8001
6.74394
6.70148
6.67262
6.657
6.65415
6.6635
6.68441
6.71617
6.75812
6.80972
6.87058
6.94054
7.01978
7.109
7.2093
7.32379
7.45328
7.6132
7.76782
-5.124
-5.12638
-5.13133
-5.13846
-5.14544
-5.15044
-5.15263
-5.15168
-5.14752
-5.14042
-5.13125
-5.12121
-5.11163
-5.1037
-5.09839
-5.09648
-5.09877
-5.10616
-5.11961
-5.14003
-5.16808
-5.20402
-5.24766
-5.29839
-5.35522
-5.41695
-5.48226
-5.54981
-5.61836
-5.68678
-5.75411
-5.81957
-5.88252
-5.94248
-5.9991
-6.05217
-6.10152
-6.1471
-6.18888
-6.22689
-6.26119
-6.29184
-6.31894
-6.34256
-6.36281
-6.37976
-6.3935
-6.4041
-6.41164
-6.41618
-6.41777
-6.41647
-6.41233
-6.40536
-6.39562
-6.38313
-6.36791
-6.34997
-6.32932
-6.30599
-6.27996
-6.25125
-6.21983
-6.18572
-6.14889
-6.10932
-6.067
-6.02189
-5.97397
-5.92319
-5.8695
-5.81286
-5.7532
-5.69045
-5.62454
-5.55537
-5.48285
-5.40685
-5.32725
-5.24384
-5.15654
-5.06516
-4.96948
-4.86941
-4.76477
-4.65531
-4.54077
-4.4209
-4.2954
-4.16398
-4.02632
-3.88208
-3.73093
-3.5725
-3.40643
-3.23231
-3.04978
-2.85842
-2.65785
-2.44766
-2.22747
-1.99691
-1.75561
-1.50324
-1.23953
-0.964204
-0.67708
-0.378025
-0.0669909
0.255982
0.590747
0.937034
1.29444
1.66241
2.04023
2.427
2.82162
3.22281
3.62906
4.03867
4.4497
4.86004
5.26737
5.66921
6.06279
6.44518
6.81357
7.16512
7.49702
7.80654
8.09107
8.34825
8.57605
8.77284
8.9374
9.06899
9.16739
9.23289
9.26629
9.26892
9.24253
9.18932
9.11181
9.01282
8.89536
8.76256
8.61762
8.46369
8.30387
8.1411
7.97815
7.81757
7.66167
7.51253
7.37196
7.24152
7.12248
7.01591
6.92258
6.8427
6.77726
6.72498
6.68614
6.66047
6.64768
6.64733
6.65887
6.68165
6.71499
6.75825
6.81084
6.87233
6.94248
7.02127
7.10915
7.20673
7.31607
7.4361
7.57607
7.69448
-5.11105
-5.11985
-5.12802
-5.13555
-5.14116
-5.14421
-5.14446
-5.14188
-5.13676
-5.12972
-5.12167
-5.11373
-5.10707
-5.10276
-5.10176
-5.10496
-5.11319
-5.12722
-5.14768
-5.17496
-5.20911
-5.24983
-5.29657
-5.3485
-5.40472
-5.46421
-5.52599
-5.58907
-5.65257
-5.71568
-5.77769
-5.83799
-5.89609
-5.9516
-6.00422
-6.05373
-6.09997
-6.14287
-6.18236
-6.21845
-6.25115
-6.2805
-6.30654
-6.32933
-6.34893
-6.3654
-6.3788
-6.38919
-6.39662
-6.40114
-6.40279
-6.40162
-6.39766
-6.39094
-6.38148
-6.36932
-6.35447
-6.33694
-6.31674
-6.29389
-6.26837
-6.2402
-6.20937
-6.17587
-6.13969
-6.10081
-6.05921
-6.01486
-5.96774
-5.91781
-5.86501
-5.80931
-5.75064
-5.68894
-5.62412
-5.55611
-5.48479
-5.41005
-5.33179
-5.24987
-5.16407
-5.07432
-4.98046
-4.88232
-4.77969
-4.67236
-4.56008
-4.44259
-4.31962
-4.19086
-4.05602
-3.91476
-3.76675
-3.61163
-3.44904
-3.27859
-3.09991
-2.91259
-2.71625
-2.5105
-2.29494
-2.06921
-1.83294
-1.58581
-1.32752
-1.05781
-0.776483
-0.483401
-0.178499
0.138195
0.466552
0.806326
1.15714
1.51846
1.88961
2.26972
2.65775
3.05244
3.45234
3.8558
4.26094
4.66567
5.06772
5.46457
5.8536
6.2321
6.59729
6.94649
7.27691
7.58576
7.87044
8.12861
8.35824
8.55768
8.7257
8.86154
8.96494
9.03613
9.07587
9.08542
9.06646
9.0211
8.9518
8.86128
8.75248
8.62844
8.49229
8.34711
8.19592
8.04161
7.88689
7.73427
7.58602
7.44418
7.31052
7.18659
7.07363
6.97267
6.88438
6.80899
6.74709
6.69848
6.66311
6.64071
6.63094
6.63332
6.64728
6.67216
6.70728
6.75196
6.80561
6.86769
6.93785
7.01588
7.10185
7.19583
7.29868
7.40765
7.52646
7.61534
-5.07248
-5.08744
-5.10176
-5.11289
-5.12013
-5.12398
-5.12492
-5.1234
-5.12002
-5.11556
-5.11101
-5.10746
-5.106
-5.10761
-5.11318
-5.12343
-5.13894
-5.16013
-5.18719
-5.22013
-5.25867
-5.30237
-5.35059
-5.4026
-5.4576
-5.51479
-5.57338
-5.63263
-5.69185
-5.75043
-5.80784
-5.86361
-5.91737
-5.96879
-6.01763
-6.06371
-6.10688
-6.14705
-6.18417
-6.21819
-6.24912
-6.27696
-6.30173
-6.32347
-6.3422
-6.35797
-6.37081
-6.38077
-6.38788
-6.39218
-6.3937
-6.39246
-6.38851
-6.38186
-6.37253
-6.36054
-6.34591
-6.32864
-6.30875
-6.28623
-6.2611
-6.23335
-6.20297
-6.16996
-6.13431
-6.09601
-6.05502
-6.01133
-5.96491
-5.91572
-5.86373
-5.80887
-5.7511
-5.69035
-5.62655
-5.55961
-5.48944
-5.41592
-5.33895
-5.2584
-5.17414
-5.086
-4.99385
-4.89751
-4.79678
-4.69144
-4.58126
-4.46599
-4.34536
-4.21907
-4.08682
-3.94829
-3.80314
-3.65103
-3.49159
-3.32444
-3.1492
-2.96549
-2.7729
-2.57105
-2.35954
-2.13801
-1.90608
-1.66343
-1.40975
-1.14478
-0.868297
-0.580158
-0.280283
0.0313171
0.354535
0.689147
1.0348
1.39099
1.75706
2.13219
2.51536
2.90536
3.30076
3.69995
4.10107
4.50206
4.90063
5.2944
5.68076
6.05698
6.4203
6.76802
7.0974
7.40574
7.69046
7.94924
8.18004
8.38122
8.55153
8.6902
8.79695
8.87201
8.9161
8.93044
8.91668
8.8769
8.8135
8.72917
8.62677
8.50931
8.37986
8.24144
8.09702
7.94944
7.80136
7.65523
7.5133
7.37755
7.24974
7.13135
7.02362
6.92752
6.84367
6.7724
6.71418
6.66901
6.63681
6.61736
6.61028
6.6151
6.63122
6.658
6.69473
6.74072
6.79529
6.85783
6.92783
7.00486
7.08863
7.17861
7.2746
7.37265
7.47294
7.54067
-5.01821
-5.03959
-5.0617
-5.07827
-5.08895
-5.09544
-5.09895
-5.10034
-5.10046
-5.10028
-5.10083
-5.10316
-5.10824
-5.11687
-5.12973
-5.14729
-5.16983
-5.19748
-5.23015
-5.26762
-5.30949
-5.35523
-5.40425
-5.4559
-5.50953
-5.56449
-5.62017
-5.67601
-5.73148
-5.78613
-5.83955
-5.89139
-5.94134
-5.98917
-6.03465
-6.07764
-6.118
-6.15564
-6.1905
-6.22253
-6.25171
-6.27802
-6.30148
-6.32209
-6.33987
-6.35484
-6.36701
-6.37643
-6.3831
-6.38706
-6.38832
-6.38692
-6.38286
-6.37616
-6.36685
-6.35493
-6.34041
-6.32331
-6.30362
-6.28136
-6.25652
-6.2291
-6.1991
-6.16651
-6.13133
-6.09352
-6.05309
-6.00999
-5.96422
-5.91573
-5.86448
-5.81043
-5.75352
-5.69369
-5.63087
-5.56498
-5.49593
-5.42362
-5.34794
-5.26878
-5.186
-5.09944
-5.00895
-4.91435
-4.81546
-4.71206
-4.60392
-4.49079
-4.37241
-4.24848
-4.11871
-3.98278
-3.84035
-3.69108
-3.5346
-3.37055
-3.19853
-3.01816
-2.82904
-2.63078
-2.42298
-2.20527
-1.97727
-1.73865
-1.48909
-1.22832
-0.956105
-0.672289
-0.376776
-0.0695566
0.249281
0.579535
0.920871
1.27282
1.63476
2.00587
2.38517
2.77149
3.16342
3.55936
3.95745
4.35569
4.75184
5.14349
5.52803
5.90275
6.26491
6.61178
6.94065
7.24882
7.53376
7.79313
8.02491
8.22744
8.39949
8.54028
8.64951
8.72741
8.7747
8.79258
8.7827
8.74712
8.68822
8.60865
8.51126
8.39901
8.27493
8.14202
8.00318
7.86121
7.71873
7.57815
7.44167
7.31123
7.18854
7.07507
6.97199
6.88025
6.80049
6.7331
6.67844
6.63655
6.60737
6.59068
6.58613
6.59321
6.61134
6.63986
6.67805
6.72517
6.78049
6.8433
6.91293
6.98874
7.07007
7.1559
7.24513
7.33316
7.41806
7.47039
-4.96371
-4.99056
-5.0195
-5.04136
-5.05598
-5.06597
-5.07305
-5.07835
-5.0829
-5.08777
-5.09399
-5.10252
-5.11416
-5.12956
-5.14914
-5.17315
-5.20163
-5.2345
-5.27152
-5.31232
-5.35648
-5.40348
-5.45278
-5.50384
-5.55613
-5.60912
-5.66235
-5.71538
-5.7678
-5.81926
-5.86943
-5.91805
-5.96488
-6.0097
-6.05235
-6.0927
-6.13062
-6.16604
-6.19888
-6.2291
-6.25666
-6.28155
-6.30376
-6.32327
-6.3401
-6.35425
-6.36574
-6.37457
-6.38076
-6.38433
-6.38528
-6.38364
-6.37941
-6.37261
-6.36324
-6.35133
-6.33686
-6.31986
-6.30032
-6.27825
-6.25365
-6.22651
-6.19683
-6.16461
-6.12984
-6.0925
-6.05257
-6.01004
-5.96488
-5.91706
-5.86653
-5.81326
-5.7572
-5.69829
-5.63645
-5.57161
-5.50368
-5.43258
-5.35819
-5.28042
-5.1991
-5.1141
-5.02525
-4.93239
-4.83532
-4.73383
-4.6277
-4.51668
-4.40051
-4.2789
-4.15155
-4.01815
-3.87836
-3.73184
-3.57823
-3.41715
-3.24822
-3.07104
-2.88521
-2.69034
-2.48603
-2.2719
-2.04756
-1.81268
-1.56692
-1.31
-1.04168
-0.761774
-0.470186
-0.166881
0.148073
0.474494
0.812067
1.16035
1.51874
1.88645
2.26252
2.64579
3.03486
3.42815
3.82387
4.21999
4.6143
5.00437
5.38761
5.76134
6.12279
6.46923
6.79791
7.10616
7.39141
7.65136
7.88398
8.0876
8.26099
8.40336
8.51444
8.59446
8.64413
8.66468
8.65776
8.62542
8.57003
8.49425
8.40092
8.29296
8.17337
8.04512
7.91108
7.77401
7.63646
7.50082
7.36924
7.24361
7.12561
7.01666
6.9179
6.83027
6.75439
6.69068
6.63943
6.60073
6.5745
6.56053
6.55844
6.56774
6.58784
6.61806
6.65765
6.70583
6.76181
6.82478
6.89393
6.96839
7.04721
7.12894
7.21185
7.29103
7.36336
7.4044
-4.92029
-4.95035
-4.98398
-5.0099
-5.02803
-5.04146
-5.05222
-5.06155
-5.07057
-5.08035
-5.09185
-5.10593
-5.12324
-5.14425
-5.16922
-5.19822
-5.23116
-5.26782
-5.30788
-5.35093
-5.39654
-5.44423
-5.49353
-5.54396
-5.59509
-5.64649
-5.69778
-5.7486
-5.79864
-5.8476
-5.89524
-5.94132
-5.98565
-6.02806
-6.06842
-6.10661
-6.14251
-6.17607
-6.2072
-6.23587
-6.26204
-6.28567
-6.30676
-6.3253
-6.34126
-6.35466
-6.3655
-6.37378
-6.3795
-6.38268
-6.38332
-6.38143
-6.37701
-6.37008
-6.36064
-6.34869
-6.33425
-6.31732
-6.2979
-6.27598
-6.25158
-6.2247
-6.19532
-6.16344
-6.12906
-6.09216
-6.05272
-6.01074
-5.96617
-5.91901
-5.8692
-5.81671
-5.76149
-5.70349
-5.64263
-5.57885
-5.51206
-5.44218
-5.3691
-5.29271
-5.21286
-5.12942
-5.04222
-4.95108
-4.85583
-4.75626
-4.65213
-4.54321
-4.42923
-4.30992
-4.18496
-4.05406
-3.91687
-3.77304
-3.62223
-3.46404
-3.29809
-3.12399
-2.94134
-2.74972
-2.54875
-2.33801
-2.11715
-1.88579
-1.64359
-1.39026
-1.12555
-0.849261
-0.561274
-0.261538
0.0499004
0.372881
0.707101
1.05214
1.40743
1.77219
2.14545
2.52611
2.9128
3.30394
3.69774
4.09218
4.48506
4.87394
5.25625
5.6293
5.99032
6.33654
6.66518
6.97356
7.25911
7.51952
7.75274
7.95712
8.13142
8.27488
8.38722
8.46871
8.52007
8.54256
8.53783
8.50796
8.45534
8.38261
8.29261
8.18826
8.07253
7.94836
7.81858
7.6859
7.55285
7.42176
7.29472
7.17361
7.06003
6.95537
6.86076
6.77708
6.70496
6.64484
6.59696
6.56142
6.53813
6.52686
6.52726
6.53881
6.5609
6.59284
6.63385
6.68311
6.73975
6.80287
6.87153
6.94466
7.02105
7.09895
7.17615
7.24775
7.31001
7.34295
-4.89339
-4.9243
-4.95992
-4.98816
-5.00877
-5.02494
-5.03878
-5.05158
-5.06442
-5.07831
-5.09412
-5.11258
-5.13421
-5.15936
-5.18818
-5.22064
-5.25657
-5.29568
-5.33764
-5.38202
-5.4284
-5.47635
-5.52543
-5.57524
-5.62539
-5.67551
-5.72529
-5.77442
-5.82264
-5.8697
-5.9154
-5.95954
-6.00196
-6.04252
-6.0811
-6.1176
-6.15192
-6.184
-6.21377
-6.24119
-6.26622
-6.28884
-6.30901
-6.32672
-6.34196
-6.35473
-6.36501
-6.37282
-6.37813
-6.38097
-6.38133
-6.37922
-6.37463
-6.36758
-6.35806
-6.34609
-6.33167
-6.3148
-6.29548
-6.27371
-6.24951
-6.22286
-6.19376
-6.16222
-6.12821
-6.09174
-6.05279
-6.01135
-5.96739
-5.92088
-5.87179
-5.82009
-5.76573
-5.70865
-5.64879
-5.58608
-5.52045
-5.45181
-5.38005
-5.30506
-5.22669
-5.14481
-5.05926
-4.96987
-4.87645
-4.77879
-4.67667
-4.56985
-4.45806
-4.34103
-4.21845
-4.09001
-3.95539
-3.81422
-3.66615
-3.5108
-3.34777
-3.17667
-2.99709
-2.80862
-2.61086
-2.40339
-2.18584
-1.95783
-1.71902
-1.46908
-1.20776
-0.934849
-0.650209
-0.353773
-0.0455667
0.274273
0.605449
0.947553
1.30005
1.66218
2.03301
2.41141
2.79605
3.18537
3.57756
3.97063
4.36234
4.75029
5.13189
5.50443
5.86513
6.21117
6.53977
6.84819
7.13388
7.3945
7.62801
7.83276
8.00752
8.15155
8.26461
8.34696
8.39939
8.42316
8.41999
8.39196
8.34149
8.27124
8.18403
8.08279
7.97047
7.84996
7.72408
7.59548
7.46666
7.33988
7.21719
7.10042
6.99113
6.89067
6.80012
6.72034
6.65196
6.5954
6.55091
6.51855
6.49824
6.48974
6.49268
6.50654
6.5307
6.56443
6.60694
6.65734
6.71471
6.77806
6.8463
6.91823
6.99241
7.06687
7.13912
7.20441
7.25874
7.28606
-4.88376
-4.91336
-4.94824
-4.97687
-4.99866
-5.01653
-5.0325
-5.04781
-5.06347
-5.08036
-5.09926
-5.12076
-5.14531
-5.17316
-5.20438
-5.23891
-5.27654
-5.31699
-5.35988
-5.40484
-5.45145
-5.4993
-5.548
-5.59717
-5.64647
-5.69557
-5.74418
-5.79204
-5.83891
-5.88457
-5.92885
-5.97158
-6.01261
-6.05182
-6.0891
-6.12435
-6.15751
-6.1885
-6.21726
-6.24375
-6.26793
-6.28978
-6.30926
-6.32635
-6.34104
-6.35332
-6.36318
-6.37062
-6.37562
-6.37819
-6.37834
-6.37605
-6.37134
-6.3642
-6.35464
-6.34266
-6.32826
-6.31146
-6.29225
-6.27064
-6.24663
-6.22022
-6.19141
-6.1602
-6.12658
-6.09055
-6.05209
-6.01119
-5.96783
-5.92199
-5.87364
-5.82274
-5.76925
-5.71311
-5.65426
-5.59266
-5.52821
-5.46083
-5.3904
-5.31682
-5.23995
-5.15965
-5.07577
-4.98813
-4.89654
-4.80081
-4.7007
-4.59598
-4.48638
-4.37162
-4.25141
-4.12543
-3.99334
-3.8548
-3.70943
-3.55686
-3.39669
-3.22852
-3.05194
-2.86652
-2.67186
-2.46755
-2.25318
-2.02839
-1.79279
-1.54608
-1.28797
-1.01824
-0.736738
-0.443392
-0.138203
0.178705
0.507075
0.846507
1.19646
1.55621
1.92484
2.30124
2.68406
3.07176
3.46254
3.8544
4.24511
4.63224
5.0132
5.38525
5.74558
6.09136
6.41975
6.72801
7.01356
7.27405
7.50746
7.71213
7.88686
8.03092
8.14411
8.22675
8.27967
8.30416
8.30199
8.27528
8.22647
8.15824
8.07342
7.97493
7.86569
7.74859
7.62639
7.5017
7.37695
7.25438
7.13596
7.02348
6.91844
6.82216
6.73568
6.65983
6.59523
6.54228
6.50122
6.47212
6.45486
6.44922
6.4548
6.47108
6.49741
6.53305
6.57716
6.62882
6.68704
6.75073
6.81872
6.88966
6.96194
7.03345
7.10153
7.16171
7.20996
7.23356
-4.88868
-4.91525
-4.94724
-4.97448
-4.99607
-5.01449
-5.0315
-5.04824
-5.06559
-5.08432
-5.10508
-5.12838
-5.15457
-5.18385
-5.21627
-5.25173
-5.29004
-5.33091
-5.374
-5.41894
-5.46534
-5.51281
-5.56099
-5.60951
-5.65806
-5.70634
-5.75406
-5.80099
-5.84689
-5.89159
-5.93489
-5.97666
-6.01675
-6.05506
-6.09147
-6.12591
-6.15829
-6.18856
-6.21666
-6.24254
-6.26616
-6.28749
-6.30651
-6.3232
-6.33753
-6.34948
-6.35906
-6.36626
-6.37106
-6.37346
-6.37346
-6.37107
-6.36629
-6.3591
-6.34953
-6.33758
-6.32324
-6.30654
-6.28746
-6.26601
-6.24221
-6.21605
-6.18753
-6.15666
-6.12344
-6.08785
-6.0499
-6.00956
-5.96682
-5.92167
-5.87407
-5.82399
-5.77138
-5.71621
-5.65841
-5.59793
-5.53468
-5.46857
-5.39949
-5.32734
-5.25198
-5.17327
-5.09107
-5.00519
-4.91545
-4.82165
-4.72356
-4.62093
-4.51351
-4.40102
-4.28316
-4.1596
-4.03002
-3.89407
-3.75136
-3.60152
-3.44415
-3.27883
-3.10516
-2.92271
-2.73105
-2.52977
-2.31846
-2.09674
-1.86423
-1.62059
-1.36554
-1.09883
-0.820293
-0.529844
-0.227478
0.0866965
0.412444
0.749387
1.09699
1.45454
1.82115
2.19568
2.57683
2.96303
3.3525
3.74322
4.13295
4.51925
4.89949
5.27094
5.63074
5.97602
6.30393
6.61169
6.8967
7.15663
7.38944
7.5935
7.76763
7.91115
8.02391
8.10626
8.1591
8.18378
8.18211
8.15627
8.10872
8.04216
7.95944
7.86346
7.75713
7.64328
7.52465
7.4038
7.28309
7.16471
7.05057
6.9424
6.84166
6.74961
6.66726
6.59542
6.53468
6.48544
6.44791
6.42216
6.40808
6.40541
6.41375
6.43257
6.4612
6.49889
6.54475
6.59781
6.65703
6.72125
6.7892
6.85941
6.93017
6.99926
7.06398
7.12017
7.16386
7.18522
-4.90343
-4.92593
-4.95356
-4.978
-4.9982
-5.01608
-5.03311
-5.05024
-5.06824
-5.08775
-5.10931
-5.13334
-5.16013
-5.18984
-5.2225
-5.25803
-5.29624
-5.33686
-5.37959
-5.42407
-5.46993
-5.51682
-5.56437
-5.61225
-5.66014
-5.70775
-5.75481
-5.80108
-5.84635
-5.89043
-5.93314
-5.97434
-6.01389
-6.05168
-6.08761
-6.1216
-6.15357
-6.18346
-6.21121
-6.23677
-6.26011
-6.28119
-6.29998
-6.31646
-6.3306
-6.34241
-6.35185
-6.35893
-6.36363
-6.36596
-6.36591
-6.36348
-6.35868
-6.35151
-6.34197
-6.33008
-6.31583
-6.29924
-6.28032
-6.25906
-6.23548
-6.20959
-6.18139
-6.15088
-6.11807
-6.08294
-6.04551
-6.00575
-5.96366
-5.91922
-5.87239
-5.82315
-5.77146
-5.71728
-5.66055
-5.60121
-5.53917
-5.47434
-5.40663
-5.33592
-5.26209
-5.18499
-5.10447
-5.02035
-4.93246
-4.84059
-4.7445
-4.64397
-4.53872
-4.42847
-4.31293
-4.19177
-4.06465
-3.93123
-3.79113
-3.64395
-3.4893
-3.32676
-3.15591
-2.97632
-2.78756
-2.58919
-2.38082
-2.16203
-1.93245
-1.69174
-1.43958
-1.17573
-0.899994
-0.61228
-0.312569
-0.000957905
0.322333
0.656939
1.00234
1.35783
1.72251
2.09528
2.47482
2.85957
3.24773
3.63726
4.02593
4.41127
4.79062
5.16123
5.5202
5.86463
6.19163
6.49842
6.78239
7.04119
7.27282
7.47565
7.64857
7.79093
7.90264
7.98412
8.03633
8.06071
8.05911
8.03374
7.98713
7.92199
7.84116
7.74754
7.64401
7.53338
7.41831
7.30131
7.18469
7.07055
6.96078
6.85701
6.76066
6.67294
6.59484
6.52712
6.47035
6.42493
6.39106
6.36879
6.358
6.35844
6.36968
6.39119
6.42228
6.46217
6.50994
6.56458
6.625
6.68996
6.75811
6.82791
6.89755
6.96479
7.02692
7.08012
7.12056
7.14082
-4.92297
-4.94086
-4.9633
-4.98397
-5.00186
-5.01832
-5.03451
-5.05118
-5.06896
-5.08838
-5.10988
-5.13381
-5.1604
-5.1898
-5.22202
-5.257
-5.29456
-5.33447
-5.37645
-5.42017
-5.46528
-5.51145
-5.55831
-5.60556
-5.65286
-5.69994
-5.74653
-5.79238
-5.83728
-5.88103
-5.92345
-5.96441
-6.00375
-6.04137
-6.07715
-6.11102
-6.14289
-6.17269
-6.20037
-6.22588
-6.24917
-6.27021
-6.28897
-6.30543
-6.31956
-6.33135
-6.34079
-6.34786
-6.35257
-6.35491
-6.35488
-6.35248
-6.34773
-6.34061
-6.33115
-6.31935
-6.30523
-6.28879
-6.27004
-6.249
-6.22567
-6.20007
-6.1722
-6.14208
-6.1097
-6.07507
-6.03818
-5.99903
-5.95761
-5.9139
-5.86787
-5.81951
-5.76877
-5.7156
-5.65996
-5.60176
-5.54095
-5.47743
-5.41109
-5.34184
-5.26954
-5.19405
-5.11521
-5.03287
-4.94682
-4.85687
-4.76278
-4.66431
-4.5612
-4.45316
-4.3399
-4.22109
-4.09638
-3.96543
-3.82785
-3.68326
-3.53123
-3.37137
-3.20323
-3.02638
-2.84038
-2.6448
-2.43922
-2.22322
-1.99643
-1.75847
-1.50904
-1.24787
-0.974779
-0.689636
-0.392421
-0.0832194
0.237759
0.57016
0.913467
1.26698
1.62982
2.00087
2.37881
2.76206
3.14883
3.53706
3.92449
4.30862
4.6868
5.05619
5.41391
5.757
6.08256
6.38779
6.67009
6.9271
7.15685
7.35777
7.52877
7.6693
7.77932
7.85935
7.91041
7.93401
7.93207
7.90686
7.86093
7.79702
7.71797
7.62665
7.52592
7.41852
7.30707
7.19401
7.08159
6.97183
6.86653
6.76729
6.67547
6.59223
6.5185
6.45503
6.40237
6.36091
6.33083
6.31217
6.30482
6.30851
6.32281
6.34716
6.38087
6.42312
6.47298
6.5294
6.59122
6.65715
6.72579
6.79552
6.86448
6.93043
6.9907
7.04181
7.08007
7.10015
-4.94271
-4.95588
-4.9728
-4.98917
-5.00413
-5.01854
-5.03324
-5.0488
-5.0657
-5.08439
-5.1052
-5.12843
-5.15427
-5.18284
-5.21416
-5.24817
-5.28473
-5.32363
-5.36462
-5.40739
-5.45162
-5.49699
-5.54315
-5.58979
-5.63659
-5.68325
-5.72952
-5.77514
-5.81987
-5.86353
-5.90593
-5.9469
-5.9863
-6.024
-6.05991
-6.09391
-6.12592
-6.15588
-6.18371
-6.20938
-6.23282
-6.254
-6.2729
-6.28947
-6.30372
-6.31561
-6.32514
-6.33231
-6.3371
-6.33952
-6.33957
-6.33725
-6.33259
-6.32557
-6.31623
-6.30456
-6.29059
-6.27433
-6.25579
-6.23499
-6.21194
-6.18666
-6.15916
-6.12945
-6.09754
-6.06343
-6.02712
-5.98862
-5.9479
-5.90496
-5.85977
-5.81231
-5.76254
-5.7104
-5.65586
-5.59884
-5.53927
-5.47706
-5.41212
-5.34433
-5.27356
-5.19968
-5.12254
-5.04195
-4.95773
-4.86967
-4.77755
-4.68111
-4.5801
-4.47423
-4.36319
-4.24665
-4.12429
-3.99572
-3.86058
-3.71846
-3.56896
-3.41164
-3.24608
-3.07183
-2.88846
-2.69551
-2.49255
-2.27918
-2.05499
-1.81961
-1.57273
-1.31408
-1.04345
-0.760704
-0.465823
-0.15888
0.159922
0.490233
0.831541
1.18315
1.54417
1.91349
2.28977
2.67144
3.05666
3.44338
3.82929
4.21189
4.58846
4.95617
5.31209
5.65323
5.97669
6.27965
6.55951
6.81396
7.04105
7.23928
7.40763
7.54561
7.65329
7.73127
7.78066
7.80305
7.80042
7.77511
7.72968
7.66689
7.58957
7.50057
7.40269
7.29863
7.19093
7.08196
6.97389
6.86866
6.768
6.67345
6.58631
6.50768
6.43847
6.37939
6.33099
6.29361
6.26746
6.25256
6.24879
6.25586
6.27337
6.30072
6.33722
6.38202
6.43415
6.49255
6.55599
6.62315
6.69257
6.76259
6.8313
6.8965
6.95559
7.00541
7.04239
7.06301
-4.95891
-4.96758
-4.97903
-4.99091
-5.0026
-5.01457
-5.02736
-5.04136
-5.05695
-5.07445
-5.09416
-5.11629
-5.14102
-5.16844
-5.19858
-5.2314
-5.26676
-5.30449
-5.34435
-5.38608
-5.42937
-5.4739
-5.51936
-5.56542
-5.61176
-5.65811
-5.70416
-5.74968
-5.79441
-5.83814
-5.88068
-5.92185
-5.9615
-5.99949
-6.0357
-6.07002
-6.10235
-6.13263
-6.16078
-6.18674
-6.21046
-6.2319
-6.25104
-6.26784
-6.28229
-6.29436
-6.30406
-6.31137
-6.3163
-6.31885
-6.31902
-6.31684
-6.3123
-6.30542
-6.29623
-6.28473
-6.27094
-6.2549
-6.2366
-6.21608
-6.19336
-6.16844
-6.14135
-6.1121
-6.08071
-6.04717
-6.01149
-5.97367
-5.93371
-5.89158
-5.84726
-5.80073
-5.75194
-5.70087
-5.64745
-5.59163
-5.53332
-5.47245
-5.40891
-5.34259
-5.27336
-5.20109
-5.12562
-5.04678
-4.96436
-4.87818
-4.78798
-4.69353
-4.59457
-4.49079
-4.3819
-4.26757
-4.14744
-4.02116
-3.88834
-3.74857
-3.60145
-3.44654
-3.2834
-3.11159
-2.93066
-2.74015
-2.53964
-2.32869
-2.10691
-1.87391
-1.62939
-1.37305
-1.10468
-0.824161
-0.531445
-0.226608
0.0901476
0.418475
0.757859
1.1076
1.4668
1.83434
2.20886
2.58878
2.97223
3.35714
3.74117
4.12177
4.49623
4.86166
5.21509
5.55356
5.87411
6.17396
6.45053
6.70154
6.92511
7.1198
7.28469
7.4194
7.52407
7.59943
7.64667
7.66746
7.66386
7.63825
7.59321
7.53151
7.45596
7.36936
7.27447
7.1739
7.07013
6.96544
6.8619
6.76138
6.66555
6.57586
6.49355
6.41968
6.35513
6.30058
6.25655
6.22339
6.2013
6.19028
6.19021
6.20082
6.22167
6.25218
6.29162
6.33914
6.39374
6.45431
6.51961
6.58827
6.65876
6.72942
6.79832
6.86329
6.92181
6.97104
7.00751
7.02923
-4.96936
-4.97421
-4.98039
-4.98775
-4.99597
-5.00522
-5.01575
-5.02785
-5.04176
-5.05774
-5.076
-5.09672
-5.12005
-5.14607
-5.1748
-5.2062
-5.24018
-5.27657
-5.31518
-5.35574
-5.39799
-5.44162
-5.48632
-5.53177
-5.57767
-5.6237
-5.66959
-5.71506
-5.75987
-5.80377
-5.84655
-5.88804
-5.92805
-5.96644
-6.00306
-6.03781
-6.07058
-6.10128
-6.12984
-6.15618
-6.18027
-6.20206
-6.22151
-6.2386
-6.25331
-6.26562
-6.27554
-6.28306
-6.28818
-6.29091
-6.29126
-6.28926
-6.2849
-6.27822
-6.26923
-6.25796
-6.24444
-6.22867
-6.2107
-6.19054
-6.16821
-6.14374
-6.11714
-6.08844
-6.05764
-6.02477
-5.98981
-5.95277
-5.91363
-5.87238
-5.829
-5.78346
-5.73575
-5.6858
-5.63358
-5.57901
-5.52203
-5.46255
-5.40046
-5.33566
-5.26802
-5.19739
-5.12363
-5.04654
-4.96594
-4.88162
-4.79335
-4.70088
-4.60392
-4.50221
-4.39541
-4.28321
-4.16526
-4.04117
-3.91057
-3.77305
-3.62818
-3.47554
-3.31468
-3.14515
-2.96649
-2.77826
-2.58
-2.37129
-2.15172
-1.92092
-1.67856
-1.42434
-1.15806
-0.879591
-0.588884
-0.286018
0.0288047
0.355229
0.692735
1.04061
1.39795
1.76361
2.13621
2.51414
2.89553
3.27824
3.65992
4.03799
4.40968
4.7721
5.12227
5.45718
5.77391
6.06969
6.34198
6.58857
6.80765
6.99789
7.15847
7.28912
7.39012
7.46228
7.50692
7.52578
7.52098
7.49495