/*--------------------------------*- C++ -*----------------------------------*\
| =========                 |                                                 |
| \\      /  F ield         | OpenFOAM: The Open Source CFD Toolbox           |
|  \\    /   O peration     | Version:  2412                                  |
|   \\  /    A nd           | Website:  www.openfoam.com                      |
|    \\/     M anipulation  |                                                 |
\*---------------------------------------------------------------------------*/
FoamFile
{
    version     2.0;
    format      ascii;
    arch        "LSB;label=32;scalar=64";
    class       surfaceScalarField;
    location    "0.06";
    object      phi;
}
// * * * * * * * * * * * * * * * * * * * * * * * * * * * * * * * * * * * * * //

dimensions      [0 3 -1 0 0 0 0];

oriented        oriented;

internalField   nonuniform List<scalar> 
24170
(
1.36709e-07
-5.71645e-08
1.95588e-07
-5.88787e-08
2.5781e-07
-6.22228e-08
3.11457e-07
-5.36465e-08
3.61457e-07
-5.00004e-08
4.07403e-07
-4.59459e-08
4.48863e-07
-4.14594e-08
4.8618e-07
-3.73172e-08
5.19743e-07
-3.35633e-08
5.49892e-07
-3.01494e-08
5.76956e-07
-2.70637e-08
6.01231e-07
-2.42747e-08
6.22968e-07
-2.1737e-08
6.42361e-07
-1.93928e-08
6.59584e-07
-1.7223e-08
6.74614e-07
-1.50307e-08
6.87867e-07
-1.32524e-08
-1.03695e-08
6.98236e-07
3.26105e-07
-1.24817e-07
3.94078e-07
-1.26852e-07
4.55743e-07
-1.23888e-07
5.13915e-07
-1.11818e-07
5.67249e-07
-1.03334e-07
6.16014e-07
-9.47117e-08
6.60439e-07
-8.58839e-08
7.00749e-07
-7.7627e-08
7.37244e-07
-7.00582e-08
7.70247e-07
-6.31525e-08
8.00067e-07
-5.68842e-08
8.26984e-07
-5.11917e-08
8.51238e-07
-4.59911e-08
8.73025e-07
-4.11797e-08
8.9249e-07
-3.66878e-08
9.09699e-07
-3.22399e-08
9.24776e-07
-2.83286e-08
-2.2182e-08
9.36588e-07
5.17229e-07
-1.71591e-07
5.79077e-07
-1.887e-07
6.38035e-07
-1.82845e-07
6.9505e-07
-1.68833e-07
7.47685e-07
-1.55969e-07
7.96079e-07
-1.43106e-07
8.40485e-07
-1.30289e-07
8.81038e-07
-1.1818e-07
9.17959e-07
-1.06979e-07
9.51514e-07
-9.67077e-08
9.81968e-07
-8.7338e-08
1.00957e-06
-7.87894e-08
1.03452e-06
-7.09494e-08
1.05702e-06
-6.36803e-08
1.07719e-06
-5.68548e-08
1.09514e-06
-5.01898e-08
1.11062e-06
-4.38087e-08
-3.50923e-08
1.12353e-06
7.43456e-07
-1.95377e-07
7.91827e-07
-2.37071e-07
8.43621e-07
-2.34639e-07
8.95996e-07
-2.21208e-07
9.45463e-07
-2.05436e-07
9.91513e-07
-1.89156e-07
1.03416e-06
-1.72941e-07
1.07342e-06
-1.57439e-07
1.1094e-06
-1.42956e-07
1.14228e-06
-1.29584e-07
1.17225e-06
-1.17314e-07
1.19952e-06
-1.06062e-07
1.22427e-06
-9.56986e-08
1.24666e-06
-8.60624e-08
1.26678e-06
-7.69795e-08
1.28474e-06
-6.81507e-08
1.30035e-06
-5.94154e-08
-4.87417e-08
1.314e-06
1.01489e-06
-1.998e-07
1.0472e-06
-2.69372e-07
1.08829e-06
-2.75735e-07
1.13298e-06
-2.65896e-07
1.17689e-06
-2.49349e-07
1.21864e-06
-2.30902e-07
1.25785e-06
-2.1215e-07
1.29433e-06
-1.93918e-07
1.32804e-06
-1.76674e-07
1.35907e-06
-1.60612e-07
1.38752e-06
-1.45767e-07
1.41353e-06
-1.32071e-07
1.43723e-06
-1.19396e-07
1.45874e-06
-1.07571e-07
1.47815e-06
-9.63919e-08
1.49556e-06
-8.55558e-08
1.51091e-06
-7.47672e-08
-6.25496e-08
1.52472e-06
1.33804e-06
-1.90404e-07
1.35413e-06
-2.85462e-07
1.38217e-06
-3.03771e-07
1.41649e-06
-3.00212e-07
1.45246e-06
-2.85319e-07
1.48785e-06
-2.663e-07
1.52183e-06
-2.46129e-07
1.55396e-06
-2.26041e-07
1.58401e-06
-2.06728e-07
1.61193e-06
-1.88534e-07
1.63773e-06
-1.71567e-07
1.66146e-06
-1.55803e-07
1.6832e-06
-1.41133e-07
1.70302e-06
-1.2739e-07
1.721e-06
-1.14369e-07
1.73722e-06
-1.0178e-07
1.75175e-06
-8.92992e-08
-7.58974e-08
1.7651e-06
1.71763e-06
-1.72752e-07
1.71915e-06
-2.86986e-07
1.73322e-06
-3.17837e-07
1.75519e-06
-3.22184e-07
1.78105e-06
-3.11176e-07
1.80808e-06
-2.93338e-07
1.83501e-06
-2.73055e-07
1.86112e-06
-2.52154e-07
1.88602e-06
-2.31625e-07
1.90948e-06
-2.11997e-07
1.93141e-06
-1.93492e-07
1.95176e-06
-1.76151e-07
1.97053e-06
-1.59907e-07
1.98776e-06
-1.4462e-07
2.00349e-06
-1.30099e-07
2.01781e-06
-1.16097e-07
2.03083e-06
-1.0232e-07
-8.80856e-08
2.04302e-06
2.15729e-06
-1.51351e-07
2.14701e-06
-2.76704e-07
2.1477e-06
-3.18531e-07
2.15646e-06
-3.30946e-07
2.17061e-06
-3.25325e-07
2.18755e-06
-3.10273e-07
2.20572e-06
-2.91223e-07
2.22421e-06
-2.70647e-07
2.24245e-06
-2.49862e-07
2.26006e-06
-2.29614e-07
2.27683e-06
-2.10264e-07
2.29263e-06
-1.91944e-07
2.30737e-06
-1.74648e-07
2.32103e-06
-1.58282e-07
2.33363e-06
-1.42694e-07
2.34522e-06
-1.27691e-07
2.35594e-06
-1.13045e-07
-9.83334e-08
2.36619e-06
2.66006e-06
-1.29226e-07
2.64109e-06
-2.57734e-07
2.6302e-06
-3.07635e-07
2.62616e-06
-3.26912e-07
2.62794e-06
-3.27102e-07
2.63362e-06
-3.15954e-07
2.6417e-06
-2.99296e-07
2.65118e-06
-2.80131e-07
2.66139e-06
-2.60073e-07
2.67185e-06
-2.40072e-07
2.68222e-06
-2.2064e-07
2.6923e-06
-2.02016e-07
2.70192e-06
-1.8427e-07
2.71101e-06
-1.67369e-07
2.71953e-06
-1.51218e-07
2.72752e-06
-1.35684e-07
2.7351e-06
-1.20624e-07
-1.05805e-07
2.74257e-06
3.22869e-06
-1.08054e-07
3.20382e-06
-2.32866e-07
3.18368e-06
-2.87499e-07
3.16837e-06
-3.11599e-07
3.15822e-06
-3.16955e-07
3.15237e-06
-3.10099e-07
3.14965e-06
-2.96585e-07
3.14921e-06
-2.79686e-07
3.15036e-06
-2.61223e-07
3.15258e-06
-2.42295e-07
3.15549e-06
-2.23546e-07
3.15879e-06
-2.05318e-07
3.16228e-06
-1.87764e-07
3.16584e-06
-1.7092e-07
3.16937e-06
-1.54755e-07
3.17289e-06
-1.39202e-07
3.17647e-06
-1.24203e-07
-1.09654e-07
3.18032e-06
3.86565e-06
-8.86794e-08
3.83699e-06
-2.042e-07
3.80984e-06
-2.60354e-07
3.78536e-06
-2.87115e-07
3.76471e-06
-2.96311e-07
3.74803e-06
-2.93414e-07
3.7347e-06
-2.83251e-07
3.7241e-06
-2.69091e-07
3.71571e-06
-2.52832e-07
3.70906e-06
-2.35642e-07
3.70375e-06
-2.18245e-07
3.6995e-06
-2.01064e-07
3.69606e-06
-1.84325e-07
3.69327e-06
-1.6813e-07
3.69103e-06
-1.52509e-07
3.68928e-06
-1.37455e-07
3.68807e-06
-1.2299e-07
-1.09087e-07
3.6875e-06
3.81119e-06
-7.29627e-08
3.78535e-06
-1.78366e-07
3.75848e-06
-2.33476e-07
3.73238e-06
-2.61022e-07
3.70839e-06
-2.72315e-07
3.68708e-06
-2.72109e-07
3.66838e-06
-2.64547e-07
3.65202e-06
-2.5273e-07
3.63772e-06
-2.38538e-07
3.62521e-06
-2.2313e-07
3.61422e-06
-2.07249e-07
3.60451e-06
-1.91354e-07
3.5959e-06
-1.75716e-07
3.58825e-06
-1.60479e-07
3.58145e-06
-1.45716e-07
3.57547e-06
-1.31468e-07
3.57023e-06
-1.17754e-07
-1.04805e-07
3.56595e-06
5.03708e-06
-5.72792e-08
5.00688e-06
-1.48166e-07
4.97319e-06
-1.99791e-07
4.93881e-06
-2.26636e-07
4.90544e-06
-2.38947e-07
4.87423e-06
-2.40904e-07
4.8455e-06
-2.35813e-07
4.81921e-06
-2.26446e-07
4.79527e-06
-2.14596e-07
4.77351e-06
-2.01364e-07
4.75372e-06
-1.87464e-07
4.73572e-06
-1.73358e-07
4.71934e-06
-1.59337e-07
4.70444e-06
-1.45578e-07
4.69091e-06
-1.32184e-07
4.67867e-06
-1.19231e-07
4.66769e-06
-1.0677e-07
-9.51327e-08
4.65802e-06
6.66238e-06
-4.21841e-08
6.6289e-06
-1.14692e-07
6.58869e-06
-1.59581e-07
6.54588e-06
-1.83825e-07
6.50261e-06
-1.95678e-07
6.46055e-06
-1.98844e-07
6.4205e-06
-1.95765e-07
6.38274e-06
-1.88684e-07
6.34736e-06
-1.79217e-07
6.31436e-06
-1.68366e-07
6.28368e-06
-1.56777e-07
6.2552e-06
-1.44877e-07
6.22881e-06
-1.32952e-07
6.20442e-06
-1.21185e-07
6.18193e-06
-1.09695e-07
6.16127e-06
-9.85726e-08
6.14239e-06
-8.7892e-08
-7.80137e-08
6.12527e-06
8.79079e-06
-2.83142e-08
8.75621e-06
-8.01099e-08
8.71122e-06
-1.14592e-07
8.66117e-06
-1.33773e-07
8.60876e-06
-1.4327e-07
8.55612e-06
-1.46206e-07
8.50463e-06
-1.44272e-07
8.45497e-06
-1.39023e-07
8.40749e-06
-1.31739e-07
8.36239e-06
-1.23261e-07
8.31973e-06
-1.14123e-07
8.27954e-06
-1.04686e-07
8.24179e-06
-9.51986e-08
8.20644e-06
-8.58322e-08
8.17344e-06
-7.66997e-08
8.14276e-06
-6.78883e-08
8.11433e-06
-5.94633e-08
-5.18012e-08
8.08812e-06
1.1518e-05
-1.59717e-08
1.14845e-05
-4.66268e-08
1.14378e-05
-6.79035e-08
1.13836e-05
-7.95627e-08
1.1325e-05
-8.47089e-08
1.12645e-05
-8.56482e-08
1.12037e-05
-8.35164e-08
1.11439e-05
-7.92193e-08
1.10858e-05
-7.35809e-08
1.10297e-05
-6.71882e-08
1.0976e-05
-6.04106e-08
1.09248e-05
-5.34799e-08
1.08762e-05
-4.65898e-08
1.08302e-05
-3.98626e-08
1.07869e-05
-3.33832e-08
1.07462e-05
-2.72252e-08
1.07082e-05
-2.14164e-08
-1.63413e-08
1.06727e-05
1.48842e-05
-4.7064e-09
1.48523e-05
-1.47614e-08
1.48058e-05
-2.14431e-08
1.47503e-05
-2.40226e-08
1.46892e-05
-2.36555e-08
1.46251e-05
-2.15029e-08
1.45597e-05
-1.81453e-08
1.44945e-05
-1.39722e-08
1.44303e-05
-9.35713e-09
1.43677e-05
-4.59054e-09
1.43072e-05
1.00396e-10
1.42489e-05
4.74066e-09
1.41932e-05
9.11651e-09
1.41401e-05
1.32202e-08
1.40898e-05
1.70091e-08
1.40421e-05
2.04368e-08
1.39971e-05
2.3532e-08
2.59463e-08
1.39549e-05
1.8769e-05
6.99475e-09
1.87364e-05
1.78208e-08
1.86882e-05
2.68221e-08
1.86299e-05
3.42678e-08
1.85657e-05
4.05069e-08
1.84984e-05
4.58122e-08
1.84299e-05
5.03581e-08
1.83616e-05
5.42748e-08
1.82946e-05
5.76627e-08
1.82294e-05
6.05934e-08
1.81664e-05
6.3116e-08
1.81059e-05
6.52719e-08
1.80479e-05
6.70675e-08
1.79926e-05
6.85196e-08
1.794e-05
6.96403e-08
1.789e-05
7.04191e-08
1.78426e-05
7.09146e-08
7.08683e-08
1.77977e-05
2.26768e-05
1.76783e-08
2.264e-05
5.46575e-08
2.25838e-05
8.30349e-08
2.25155e-05
1.02612e-07
2.24401e-05
1.15888e-07
2.2361e-05
1.24876e-07
2.22807e-05
1.30643e-07
2.2201e-05
1.33973e-07
2.21231e-05
1.35569e-07
2.20478e-05
1.35958e-07
2.19754e-05
1.35484e-07
2.19063e-05
1.34376e-07
2.18406e-05
1.32799e-07
2.17782e-05
1.30863e-07
2.17192e-05
1.28648e-07
2.16634e-05
1.26201e-07
2.16108e-05
1.23582e-07
1.20651e-07
2.1561e-05
1.5604e-05
3.32358e-08
1.55644e-05
9.42905e-08
1.55098e-05
1.37694e-07
1.54468e-05
1.65569e-07
1.53795e-05
1.83221e-07
1.53105e-05
1.93872e-07
1.52419e-05
1.99248e-07
1.5175e-05
2.00815e-07
1.51108e-05
1.99823e-07
1.50496e-05
1.9714e-07
1.49917e-05
1.93334e-07
1.49373e-05
1.88794e-07
1.48863e-05
1.83798e-07
1.48386e-05
1.78538e-07
1.47941e-05
1.73145e-07
1.47526e-05
1.67716e-07
1.47139e-05
1.62314e-07
1.56881e-07
1.46777e-05
1.23903e-05
5.17298e-08
1.23451e-05
1.39507e-07
1.22872e-05
1.95652e-07
1.22238e-05
2.28915e-07
1.21586e-05
2.4845e-07
1.20941e-05
2.58379e-07
1.20321e-05
2.61243e-07
1.19735e-05
2.59379e-07
1.19188e-05
2.54548e-07
1.18681e-05
2.47876e-07
1.18213e-05
2.40094e-07
1.17784e-05
2.31704e-07
1.17391e-05
2.23049e-07
1.17033e-05
2.1436e-07
1.16707e-05
2.05783e-07
1.1641e-05
1.97418e-07
1.1614e-05
1.89312e-07
1.81455e-07
1.15894e-05
9.55938e-06
7.59419e-08
9.51013e-06
1.88755e-07
9.45446e-06
2.51321e-07
9.39818e-06
2.85194e-07
9.34365e-06
3.02982e-07
9.29285e-06
3.0918e-07
9.24672e-06
3.07376e-07
9.20538e-06
3.00715e-07
9.16868e-06
2.91246e-07
9.13635e-06
2.80203e-07
9.10806e-06
2.68388e-07
9.08343e-06
2.56337e-07
9.06209e-06
2.44391e-07
9.04369e-06
2.3276e-07
9.0279e-06
2.21567e-07
9.01444e-06
2.10883e-07
9.00302e-06
2.00726e-07
1.91101e-07
8.99338e-06
7.18012e-06
1.05273e-07
7.13296e-06
2.35909e-07
7.0877e-06
2.96588e-07
7.04662e-06
3.26268e-07
7.01101e-06
3.38594e-07
6.98179e-06
3.38403e-07
6.95862e-06
3.30548e-07
6.94072e-06
3.18614e-07
6.92735e-06
3.04613e-07
6.91784e-06
2.89717e-07
6.91156e-06
2.7467e-07
6.90797e-06
2.59926e-07
6.90661e-06
2.45748e-07
6.9071e-06
2.32271e-07
6.90911e-06
2.19555e-07
6.91238e-06
2.07616e-07
6.91667e-06
1.96433e-07
1.86004e-07
6.92177e-06
5.24564e-06
1.38351e-07
5.20816e-06
2.73391e-07
5.18106e-06
3.23681e-07
5.16269e-06
3.44637e-07
5.15297e-06
3.4832e-07
5.15082e-06
3.40553e-07
5.1544e-06
3.26961e-07
5.16222e-06
3.10797e-07
5.17316e-06
2.93673e-07
5.18637e-06
2.76511e-07
5.20117e-06
2.59864e-07
5.21707e-06
2.44028e-07
5.23368e-06
2.29139e-07
5.25071e-06
2.1524e-07
5.26794e-06
2.0232e-07
5.28522e-06
1.90342e-07
5.3024e-06
1.79247e-07
1.69024e-07
5.31938e-06
3.71468e-06
1.71801e-07
3.69633e-06
2.91743e-07
3.69498e-06
3.25037e-07
3.70528e-06
3.34334e-07
3.72481e-06
3.28784e-07
3.75032e-06
3.15049e-07
3.77922e-06
2.98063e-07
3.80995e-06
2.80059e-07
3.84153e-06
2.62094e-07
3.87326e-06
2.4478e-07
3.90469e-06
2.28442e-07
3.9355e-06
2.13215e-07
3.96551e-06
1.99128e-07
3.9946e-06
1.86149e-07
4.02271e-06
1.74216e-07
4.04979e-06
1.63253e-07
4.07586e-06
1.53184e-07
1.43993e-07
4.10089e-06
2.53546e-06
1.96938e-07
2.54646e-06
2.80738e-07
2.57532e-06
2.96178e-07
2.61496e-06
2.94696e-07
2.6608e-06
2.82942e-07
2.70885e-06
2.66999e-07
2.75708e-06
2.49839e-07
2.80447e-06
2.32666e-07
2.85044e-06
2.16131e-07
2.89463e-06
2.00587e-07
2.93689e-06
1.86185e-07
2.97715e-06
1.72951e-07
3.01543e-06
1.60847e-07
3.05178e-06
1.498e-07
3.08627e-06
1.39723e-07
3.119e-06
1.30529e-07
3.15005e-06
1.22134e-07
1.1454e-07
3.1795e-06
1.65474e-06
1.99303e-07
1.70074e-06
2.34745e-07
1.75745e-06
2.39466e-07
1.82045e-06
2.31691e-07
1.88472e-06
2.1867e-07
1.9473e-06
2.04425e-07
2.0073e-06
1.89838e-07
2.06436e-06
1.75609e-07
2.11828e-06
1.62206e-07
2.16906e-06
1.4981e-07
2.21678e-06
1.38461e-07
2.2616e-06
1.28137e-07
2.30367e-06
1.18773e-07
2.34319e-06
1.10285e-07
2.38032e-06
1.02587e-07
2.41525e-06
9.55991e-08
2.44815e-06
8.92404e-08
8.35496e-08
2.47914e-06
1.0183e-06
1.6386e-07
1.09501e-06
1.58042e-07
1.17052e-06
1.63949e-07
1.24719e-06
1.55023e-07
1.32085e-06
1.4501e-07
1.39015e-06
1.3513e-07
1.45514e-06
1.24849e-07
1.51587e-06
1.1488e-07
1.57244e-06
1.05634e-07
1.62507e-06
9.71784e-08
1.67403e-06
8.95004e-08
1.7196e-06
8.25654e-08
1.76206e-06
7.63145e-08
1.80167e-06
7.06786e-08
1.83866e-06
6.559e-08
1.87327e-06
6.09883e-08
1.90572e-06
5.67938e-08
5.30827e-08
1.93619e-06
5.69252e-07
8.45249e-08
6.59066e-07
6.82274e-08
7.40974e-07
8.20407e-08
8.21248e-07
7.4749e-08
8.96472e-07
6.97861e-08
9.6629e-07
6.53112e-08
1.03101e-06
6.01264e-08
1.09085e-06
5.50386e-08
1.14609e-06
5.03979e-08
1.19708e-06
4.61936e-08
1.24418e-06
4.23968e-08
1.28776e-06
3.8987e-08
1.32814e-06
3.59304e-08
1.36563e-06
3.31874e-08
1.4005e-06
3.07196e-08
1.43299e-06
2.84987e-08
1.46333e-06
2.64521e-08
2.46279e-08
1.49179e-06
2.22449e-07
2.90676e-07
3.72717e-07
4.47466e-07
5.17252e-07
5.82564e-07
6.4269e-07
6.97729e-07
7.48126e-07
7.9432e-07
8.36717e-07
8.75704e-07
9.11634e-07
9.44822e-07
9.75541e-07
1.00404e-06
1.03049e-06
1.05512e-06
3.43173e-08
-3.43173e-08
9.46314e-08
-6.03141e-08
1.58507e-07
-6.38752e-08
2.16195e-07
-5.76881e-08
2.63251e-07
-4.70562e-08
2.97665e-07
-3.4414e-08
3.18633e-07
-2.09676e-08
3.26044e-07
-7.41179e-09
3.19823e-07
6.22102e-09
3.00703e-07
1.91199e-08
2.71256e-07
2.94472e-08
2.34141e-07
3.71154e-08
1.91477e-07
4.26644e-08
1.44659e-07
4.6817e-08
9.40947e-08
5.05648e-08
3.92422e-08
5.48525e-08
-2.1118e-08
6.03602e-08
-8.85673e-08
6.74493e-08
-1.64365e-07
7.57978e-08
-2.48956e-07
8.45904e-08
-3.41945e-07
9.29893e-08
-4.42192e-07
1.00247e-07
-5.48e-07
1.05808e-07
-6.57376e-07
1.09376e-07
-7.68263e-07
1.10887e-07
-8.78721e-07
1.10458e-07
-9.87049e-07
1.08328e-07
-1.09186e-06
1.04809e-07
-1.1921e-06
1.00238e-07
-1.28704e-06
9.49442e-08
-1.37627e-06
8.92262e-08
-1.4596e-06
8.33379e-08
-1.53709e-06
7.74823e-08
-1.6089e-06
7.18122e-08
-1.67533e-06
6.64341e-08
-1.73675e-06
6.14146e-08
-1.79354e-06
5.67885e-08
-1.8461e-06
5.25657e-08
-1.89484e-06
4.87384e-08
-1.94013e-06
4.52869e-08
-1.98231e-06
4.21839e-08
-2.02171e-06
3.93986e-08
-2.05861e-06
3.68989e-08
-2.09326e-06
3.46533e-08
-2.12589e-06
3.26318e-08
-2.1567e-06
3.0807e-08
-2.18585e-06
2.91541e-08
-2.21351e-06
2.76507e-08
-2.23978e-06
2.62773e-08
-2.2648e-06
2.50167e-08
-2.28865e-06
2.38541e-08
-2.31143e-06
2.27763e-08
-2.3332e-06
2.17722e-08
-2.35403e-06
2.08321e-08
-2.37398e-06
1.99473e-08
-2.39309e-06
1.91107e-08
-2.41141e-06
1.83159e-08
-2.42896e-06
1.75571e-08
-2.44579e-06
1.68295e-08
-2.46192e-06
1.61287e-08
-2.47737e-06
1.54507e-08
-2.49217e-06
1.47919e-08
-2.50631e-06
1.4149e-08
-2.51983e-06
1.35188e-08
-2.53273e-06
1.28984e-08
-2.54502e-06
1.22846e-08
-2.55669e-06
1.16746e-08
-2.56776e-06
1.10652e-08
-2.57821e-06
1.04533e-08
-2.58804e-06
9.83528e-09
-2.59725e-06
9.20739e-09
-2.60582e-06
8.56527e-09
-2.61372e-06
7.90403e-09
-2.62094e-06
7.218e-09
-2.62744e-06
6.50051e-09
-2.63318e-06
5.74415e-09
-2.63812e-06
4.94071e-09
-2.6422e-06
4.07877e-09
-2.64535e-06
3.14498e-09
-2.64748e-06
2.12838e-09
-2.6485e-06
1.02679e-09
-2.64833e-06
-1.76664e-10
-2.64712e-06
-1.21148e-09
-2.64486e-06
-2.25635e-09
-2.64153e-06
-3.32785e-09
-2.63708e-06
-4.45006e-09
-2.63144e-06
-5.638e-09
-2.62454e-06
-6.90068e-09
-2.6163e-06
-8.24517e-09
-2.60662e-06
-9.67794e-09
-2.59541e-06
-1.12054e-08
-2.58258e-06
-1.28337e-08
-2.56801e-06
-1.45696e-08
-2.55159e-06
-1.64194e-08
-2.5332e-06
-1.839e-08
-2.51271e-06
-2.04882e-08
-2.48999e-06
-2.27208e-08
-2.4649e-06
-2.50946e-08
-2.43728e-06
-2.76165e-08
-2.40699e-06
-3.02931e-08
-2.37386e-06
-3.31309e-08
-2.33772e-06
-3.61362e-08
-2.29841e-06
-3.93145e-08
-2.25574e-06
-4.26714e-08
-2.20952e-06
-4.62113e-08
-2.15959e-06
-4.99382e-08
-2.10573e-06
-5.38548e-08
-2.04777e-06
-5.79628e-08
-1.98551e-06
-6.22626e-08
-1.91875e-06
-6.67528e-08
-1.84732e-06
-7.14302e-08
-1.77103e-06
-7.62894e-08
-1.68971e-06
-8.13225e-08
-1.60319e-06
-8.65187e-08
-1.51133e-06
-9.18642e-08
-1.41399e-06
-9.73418e-08
-1.31106e-06
-1.0293e-07
-1.20245e-06
-1.08605e-07
-1.08811e-06
-1.14336e-07
-9.68024e-07
-1.20091e-07
-8.42195e-07
-1.2583e-07
-7.10686e-07
-1.31509e-07
-5.73609e-07
-1.37077e-07
-4.31136e-07
-1.42473e-07
-2.83529e-07
-1.47606e-07
-1.31197e-07
-1.52333e-07
2.55048e-08
-1.56701e-07
1.86339e-07
-1.60834e-07
3.50878e-07
-1.64539e-07
5.18553e-07
-1.67676e-07
6.88801e-07
-1.70247e-07
8.61001e-07
-1.72201e-07
1.03449e-06
-1.73485e-07
1.20854e-06
-1.74058e-07
1.38243e-06
-1.73887e-07
1.55538e-06
-1.72951e-07
1.72662e-06
-1.71239e-07
1.89538e-06
-1.68754e-07
2.06088e-06
-1.65508e-07
2.22241e-06
-1.61527e-07
2.37926e-06
-1.56845e-07
2.53076e-06
-1.51507e-07
2.67633e-06
-1.45563e-07
2.8154e-06
-1.39073e-07
2.9475e-06
-1.32098e-07
3.0722e-06
-1.24703e-07
3.18915e-06
-1.16953e-07
3.29807e-06
-1.08914e-07
3.39871e-06
-1.00646e-07
3.49092e-06
-9.22084e-08
3.57458e-06
-8.36533e-08
3.6496e-06
-7.50274e-08
3.71598e-06
-6.63721e-08
3.7737e-06
-5.77228e-08
3.82278e-06
-4.90868e-08
3.86323e-06
-4.04409e-08
3.89511e-06
-3.18802e-08
3.91845e-06
-2.33406e-08
3.93147e-06
-1.30217e-08
3.9308e-06
6.68815e-10
3.91526e-06
1.55375e-08
3.88688e-06
2.83769e-08
3.84718e-06
3.97038e-08
3.79728e-06
4.99025e-08
3.73805e-06
5.92289e-08
3.67028e-06
6.77688e-08
3.59476e-06
7.55194e-08
3.51234e-06
8.24261e-08
3.42392e-06
8.84201e-08
3.33045e-06
9.34619e-08
3.23288e-06
9.75739e-08
3.13201e-06
1.00871e-07
3.02842e-06
1.0359e-07
2.92229e-06
1.06127e-07
2.81318e-06
1.09108e-07
2.6997e-06
1.13487e-07
2.57861e-06
1.21084e-07
2.4445e-06
1.34116e-07
2.28061e-06
1.6389e-07
2.03329e-07
2.07728e-06
6.42605e-08
-9.85778e-08
1.19477e-07
-1.1553e-07
1.55354e-07
-9.97529e-08
1.76289e-07
-7.86228e-08
1.85624e-07
-5.63909e-08
1.8526e-07
-3.40505e-08
1.76309e-07
-1.2016e-08
1.59423e-07
9.47355e-09
1.35422e-07
3.02227e-08
1.04546e-07
4.99955e-08
6.57031e-08
6.82901e-08
1.80626e-08
8.47559e-08
-3.87579e-08
9.94848e-08
-1.04964e-07
1.13023e-07
-1.80586e-07
1.26187e-07
-2.65401e-07
1.39668e-07
-3.58731e-07
1.53691e-07
-4.592e-07
1.67918e-07
-5.64947e-07
1.81544e-07
-6.73897e-07
1.93541e-07
-7.8386e-07
2.02952e-07
-8.92719e-07
2.09107e-07
-9.98618e-07
2.11707e-07
-1.10006e-06
2.10813e-07
-1.19594e-06
2.0677e-07
-1.28559e-06
2.00107e-07
-1.3687e-06
1.91436e-07
-1.44526e-06
1.81378e-07
-1.51553e-06
1.70504e-07
-1.57989e-06
1.59302e-07
-1.63883e-06
1.48163e-07
-1.69286e-06
1.37377e-07
-1.74253e-06
1.27146e-07
-1.78831e-06
1.17595e-07
-1.83066e-06
1.08787e-07
-1.86999e-06
1.00739e-07
-1.90663e-06
9.34343e-08
-1.9409e-06
8.68355e-08
-1.97306e-06
8.08912e-08
-2.00331e-06
7.55434e-08
-2.03186e-06
7.07324e-08
-2.05886e-06
6.63998e-08
-2.08445e-06
6.24901e-08
-2.10875e-06
5.89525e-08
-2.13186e-06
5.57408e-08
-2.15387e-06
5.28138e-08
-2.17485e-06
5.0135e-08
-2.19487e-06
4.76723e-08
-2.21399e-06
4.53979e-08
-2.23226e-06
4.32872e-08
-2.24973e-06
4.1319e-08
-2.26643e-06
3.94749e-08
-2.28239e-06
3.77388e-08
-2.29766e-06
3.60968e-08
-2.31225e-06
3.45365e-08
-2.32618e-06
3.30473e-08
-2.33949e-06
3.16198e-08
-2.35218e-06
3.02455e-08
-2.36426e-06
2.8917e-08
-2.37576e-06
2.76274e-08
-2.38668e-06
2.63706e-08
-2.39703e-06
2.51408e-08
-2.40681e-06
2.39325e-08
-2.41604e-06
2.27406e-08
-2.4247e-06
2.15599e-08
-2.4328e-06
2.03854e-08
-2.44034e-06
1.92121e-08
-2.44731e-06
1.80346e-08
-2.4537e-06
1.68474e-08
-2.45951e-06
1.5645e-08
-2.46472e-06
1.44213e-08
-2.46933e-06
1.31698e-08
-2.47331e-06
1.18838e-08
-2.47665e-06
1.0556e-08
-2.47932e-06
9.17904e-09
-2.48133e-06
7.7456e-09
-2.48263e-06
6.24888e-09
-2.48324e-06
4.68296e-09
-2.48314e-06
3.04417e-09
-2.48234e-06
1.33444e-09
-2.48089e-06
-4.24817e-10
-2.47881e-06
-2.2598e-09
-2.47589e-06
-4.12829e-09
-2.47205e-06
-6.09973e-09
-2.46719e-06
-8.18823e-09
-2.46123e-06
-1.04053e-08
-2.45411e-06
-1.27637e-08
-2.44573e-06
-1.52757e-08
-2.43602e-06
-1.79531e-08
-2.42489e-06
-2.08082e-08
-2.41225e-06
-2.38531e-08
-2.39798e-06
-2.71007e-08
-2.38198e-06
-3.05636e-08
-2.36415e-06
-3.42552e-08
-2.34435e-06
-3.81887e-08
-2.32246e-06
-4.23777e-08
-2.29835e-06
-4.68358e-08
-2.27186e-06
-5.15764e-08
-2.24287e-06
-5.66131e-08
-2.2112e-06
-6.19588e-08
-2.17671e-06
-6.76265e-08
-2.13921e-06
-7.3628e-08
-2.09855e-06
-7.99747e-08
-2.05455e-06
-8.66768e-08
-2.00702e-06
-9.37432e-08
-1.95577e-06
-1.01181e-07
-1.90063e-06
-1.08996e-07
-1.84141e-06
-1.1719e-07
-1.7779e-06
-1.25764e-07
-1.70994e-06
-1.34714e-07
-1.63734e-06
-1.44034e-07
-1.55992e-06
-1.53712e-07
-1.47751e-06
-1.63732e-07
-1.38995e-06
-1.74072e-07
-1.29711e-06
-1.84705e-07
-1.19886e-06
-1.95594e-07
-1.09509e-06
-2.06697e-07
-9.85733e-07
-2.17965e-07
-8.70731e-07
-2.29339e-07
-7.50072e-07
-2.40749e-07
-6.23781e-07
-2.52121e-07
-4.91925e-07
-2.63364e-07
-3.54621e-07
-2.7438e-07
-2.12038e-07
-2.85057e-07
-6.43728e-08
-2.95272e-07
8.82268e-08
-3.04932e-07
2.45477e-07
-3.13952e-07
4.0686e-07
-3.22218e-07
5.71925e-07
-3.29604e-07
7.40225e-07
-3.35975e-07
9.11204e-07
-3.41227e-07
1.08426e-06
-3.45253e-07
1.25873e-06
-3.47955e-07
1.43392e-06
-3.4925e-07
1.60911e-06
-3.49076e-07
1.78355e-06
-3.47392e-07
1.95649e-06
-3.44178e-07
2.12717e-06
-3.39438e-07
2.29486e-06
-3.33199e-07
2.45884e-06
-3.25509e-07
2.61843e-06
-3.16435e-07
2.77299e-06
-3.06065e-07
2.92193e-06
-2.945e-07
3.06471e-06
-2.81854e-07
3.20086e-06
-2.68248e-07
3.32997e-06
-2.5381e-07
3.45168e-06
-2.38668e-07
3.56572e-06
-2.22948e-07
3.67184e-06
-2.06771e-07
3.76988e-06
-1.90252e-07
3.85973e-06
-1.73495e-07
3.94129e-06
-1.56592e-07
4.01454e-06
-1.39623e-07
4.07947e-06
-1.22653e-07
4.1361e-06
-1.05717e-07
4.18448e-06
-8.88245e-08
4.22462e-06
-7.20116e-08
4.25647e-06
-5.51956e-08
4.28137e-06
-3.79158e-08
4.30156e-06
-1.95229e-08
4.31714e-06
-4.59044e-11
4.32607e-06
1.94519e-08
4.32721e-06
3.85552e-08
4.32003e-06
5.70875e-08
4.30424e-06
7.50202e-08
4.27969e-06
9.23201e-08
4.24628e-06
1.08928e-07
4.20396e-06
1.24747e-07
4.15273e-06
1.39652e-07
4.09266e-06
1.53523e-07
4.02396e-06
1.66279e-07
3.9469e-06
1.77928e-07
3.86187e-06
1.8862e-07
3.76928e-06
1.98714e-07
3.66947e-06
2.08922e-07
3.56257e-06
2.20389e-07
3.44802e-06
2.35635e-07
3.32479e-06
2.57347e-07
3.18866e-06
3.00014e-07
3.61135e-07
3.03086e-06
4.71009e-08
-1.45679e-07
6.77589e-08
-1.36188e-07
7.31132e-08
-1.05107e-07
6.87894e-08
-7.4299e-08
5.69744e-08
-4.45758e-08
3.85922e-08
-1.56683e-08
1.39966e-08
1.25796e-08
-1.6752e-08
4.02222e-08
-5.37656e-08
6.72363e-08
-9.72581e-08
9.3488e-08
-1.47694e-07
1.18726e-07
-2.05649e-07
1.42711e-07
-2.7155e-07
1.65386e-07
-3.45416e-07
1.86888e-07
-4.26627e-07
2.07398e-07
-5.13869e-07
2.26909e-07
-6.0524e-07
2.45062e-07
-6.98494e-07
2.61171e-07
-7.91344e-07
2.74394e-07
-8.81771e-07
2.83968e-07
-9.68215e-07
2.89396e-07
-1.04965e-06
2.90546e-07
-1.12558e-06
2.87634e-07
-1.19592e-06
2.81149e-07
-1.26089e-06
2.71743e-07
-1.32092e-06
2.60136e-07
-1.37651e-06
2.47028e-07
-1.42819e-06
2.33055e-07
-1.47643e-06
2.1875e-07
-1.52167e-06
2.0454e-07
-1.56426e-06
1.90746e-07
-1.60447e-06
1.77591e-07
-1.64254e-06
1.65219e-07
-1.67866e-06
1.53709e-07
-1.71296e-06
1.43088e-07
-1.74557e-06
1.33349e-07
-1.77659e-06
1.24457e-07
-1.80612e-06
1.16362e-07
-1.83423e-06
1.09004e-07
-1.86101e-06
1.02319e-07
-1.88652e-06
9.6243e-08
-1.91083e-06
9.07124e-08
-1.93401e-06
8.56684e-08
-1.95611e-06
8.10564e-08
-1.9772e-06
7.68265e-08
-1.99732e-06
7.29337e-08
-2.01652e-06
6.93378e-08
-2.03485e-06
6.60029e-08
-2.05235e-06
6.28975e-08
-2.06906e-06
5.99935e-08
-2.085e-06
5.72664e-08
-2.10022e-06
5.46944e-08
-2.11474e-06
5.22586e-08
-2.12859e-06
4.9942e-08
-2.14178e-06
4.77299e-08
-2.15434e-06
4.56089e-08
-2.16629e-06
4.35674e-08
-2.17764e-06
4.15948e-08
-2.18841e-06
3.96816e-08
-2.1986e-06
3.78191e-08
-2.20823e-06
3.59992e-08
-2.2173e-06
3.42143e-08
-2.22582e-06
3.24574e-08
-2.23381e-06
3.07216e-08
-2.24125e-06
2.89999e-08
-2.24815e-06
2.72858e-08
-2.25451e-06
2.55723e-08
-2.26032e-06
2.38525e-08
-2.2656e-06
2.21194e-08
-2.27032e-06
2.03653e-08
-2.27448e-06
1.85827e-08
-2.27807e-06
1.67635e-08
-2.28109e-06
1.48993e-08
-2.28351e-06
1.29816e-08
-2.28534e-06
1.10021e-08
-2.28654e-06
8.95241e-09
-2.28712e-06
6.82492e-09
-2.28705e-06
4.61283e-09
-2.28632e-06
2.31189e-09
-2.28489e-06
-9.4238e-11
-2.28273e-06
-2.57779e-09
-2.27981e-06
-5.18574e-09
-2.27601e-06
-7.92327e-09
-2.27129e-06
-1.0821e-08
-2.26558e-06
-1.38984e-08
-2.25881e-06
-1.71725e-08
-2.25092e-06
-2.06598e-08
-2.24182e-06
-2.4377e-08
-2.23143e-06
-2.83411e-08
-2.21967e-06
-3.257e-08
-2.20644e-06
-3.70818e-08
-2.19164e-06
-4.18954e-08
-2.17518e-06
-4.70299e-08
-2.15693e-06
-5.25051e-08
-2.13678e-06
-5.8341e-08
-2.1146e-06
-6.45576e-08
-2.09026e-06
-7.11753e-08
-2.06362e-06
-7.82143e-08
-2.03454e-06
-8.56945e-08
-2.00286e-06
-9.36355e-08
-1.96843e-06
-1.02056e-07
-1.93108e-06
-1.10974e-07
-1.89065e-06
-1.20407e-07
-1.84696e-06
-1.30368e-07
-1.79983e-06
-1.40872e-07
-1.74908e-06
-1.5193e-07
-1.69453e-06
-1.63547e-07
-1.63599e-06
-1.7573e-07
-1.57328e-06
-1.88477e-07
-1.50621e-06
-2.01783e-07
-1.43461e-06
-2.15638e-07
-1.35829e-06
-2.30025e-07
-1.27711e-06
-2.44919e-07
-1.19089e-06
-2.60287e-07
-1.09951e-06
-2.76087e-07
-1.00284e-06
-2.92267e-07
-9.00772e-07
-3.08763e-07
-7.93236e-07
-3.25501e-07
-6.80183e-07
-3.42391e-07
-5.61598e-07
-3.59335e-07
-4.37502e-07
-3.76217e-07
-3.07958e-07
-3.92908e-07
-1.73069e-07
-4.09269e-07
-3.29716e-08
-4.25154e-07
1.12168e-07
-4.40412e-07
2.62135e-07
-4.549e-07
4.16635e-07
-4.68451e-07
5.75276e-07
-4.80859e-07
7.37604e-07
-4.91932e-07
9.03125e-07
-5.01496e-07
1.07129e-06
-5.09387e-07
1.24148e-06
-5.15449e-07
1.41307e-06
-5.1954e-07
1.58536e-06
-5.21544e-07
1.75765e-06
-5.2137e-07
1.92922e-06
-5.18958e-07
2.09932e-06
-5.14281e-07
2.26723e-06
-5.07346e-07
2.43222e-06
-4.98192e-07
2.5936e-06
-4.8689e-07
2.75071e-06
-4.73544e-07
2.90293e-06
-4.5828e-07
3.04968e-06
-4.4125e-07
3.19044e-06
-4.22621e-07
3.32477e-06
-4.02575e-07
3.45226e-06
-3.81298e-07
3.57257e-06
-3.58982e-07
3.68544e-06
-3.35813e-07
3.79064e-06
-3.11971e-07
3.88801e-06
-2.87625e-07
3.97745e-06
-2.62928e-07
4.05887e-06
-2.38019e-07
4.13227e-06
-2.13017e-07
4.19763e-06
-1.88017e-07
4.255e-06
-1.63087e-07
4.30445e-06
-1.3827e-07
4.34602e-06
-1.13586e-07
4.3798e-06
-8.89768e-08
4.40621e-06
-6.43202e-08
4.4261e-06
-3.94132e-08
4.44015e-06
-1.41021e-08
4.44825e-06
1.13524e-08
4.45014e-06
3.66631e-08
4.44558e-06
6.16558e-08
4.43438e-06
8.6218e-08
4.41643e-06
1.10268e-07
4.39163e-06
1.33726e-07
4.35988e-06
1.56499e-07
4.32106e-06
1.78475e-07
4.27503e-06
1.99546e-07
4.22168e-06
2.19631e-07
4.16089e-06
2.38723e-07
4.09256e-06
2.56944e-07
4.01665e-06
2.74625e-07
3.93311e-06
2.92468e-07
3.84184e-06
3.11653e-07
3.74272e-06
3.34751e-07
3.63534e-06
3.64728e-07
3.52181e-06
4.13551e-07
4.80503e-07
3.40244e-06
1.0601e-08
-1.5628e-07
2.05996e-10
-1.25793e-07
-1.64793e-08
-8.84219e-08
-3.76501e-08
-5.31281e-08
-6.31787e-08
-1.90472e-08
-9.32043e-08
1.43572e-08
-1.27969e-07
4.73447e-08
-1.67748e-07
8.00006e-08
-2.12768e-07
1.12257e-07
-2.63188e-07
1.43908e-07
-3.19102e-07
1.74639e-07
-3.80489e-07
2.04099e-07
-4.47067e-07
2.31964e-07
-5.18126e-07
2.57947e-07
-5.92456e-07
2.81728e-07
-6.68424e-07
3.02877e-07
-7.44199e-07
3.20838e-07
-8.18035e-07
3.35007e-07
-8.88517e-07
3.44876e-07
-9.54712e-07
3.50163e-07
-1.0162e-06
3.50885e-07
-1.07301e-06
3.47352e-07
-1.12547e-06
3.401e-07
-1.17412e-06
3.29795e-07
-1.21953e-06
3.17153e-07
-1.26226e-06
3.02865e-07
-1.30278e-06
2.87555e-07
-1.34149e-06
2.71757e-07
-1.37864e-06
2.55904e-07
-1.41443e-06
2.40333e-07
-1.44898e-06
2.25294e-07
-1.48235e-06
2.1096e-07
-1.51457e-06
1.9744e-07
-1.54565e-06
1.84793e-07
-1.57561e-06
1.73039e-07
-1.60442e-06
1.62168e-07
-1.63212e-06
1.52149e-07
-1.65869e-06
1.42936e-07
-1.68416e-06
1.34476e-07
-1.70855e-06
1.26711e-07
-1.73189e-06
1.19581e-07
-1.7542e-06
1.13027e-07
-1.77553e-06
1.06993e-07
-1.7959e-06
1.01427e-07
-1.81535e-06
9.62779e-08
-1.83392e-06
9.15018e-08
-1.85164e-06
8.70573e-08
-1.86854e-06
8.29075e-08
-1.88466e-06
7.90189e-08
-1.90003e-06
7.53619e-08
-1.91468e-06
7.19098e-08
-1.92862e-06
6.86388e-08
-1.94189e-06
6.5528e-08
-1.95451e-06
6.25583e-08
-1.96649e-06
5.9713e-08
-1.97786e-06
5.6977e-08
-1.98863e-06
5.43368e-08
-1.99881e-06
5.178e-08
-2.00843e-06
4.92955e-08
-2.01748e-06
4.6873e-08
-2.02598e-06
4.45028e-08
-2.03394e-06
4.2176e-08
-2.04137e-06
3.98838e-08
-2.04827e-06
3.7618e-08
-2.05464e-06
3.53702e-08
-2.06048e-06
3.31323e-08
-2.06581e-06
3.08959e-08
-2.07061e-06
2.86525e-08
-2.07488e-06
2.63934e-08
-2.07863e-06
2.41094e-08
-2.08183e-06
2.17913e-08
-2.0845e-06
1.94292e-08
-2.08661e-06
1.70132e-08
-2.08816e-06
1.45326e-08
-2.08914e-06
1.19771e-08
-2.08952e-06
9.33588e-09
-2.0893e-06
6.59844e-09
-2.08844e-06
3.75403e-09
-2.08692e-06
7.91493e-10
-2.08471e-06
-2.30207e-09
-2.08175e-06
-5.53516e-09
-2.07801e-06
-8.93188e-09
-2.07341e-06
-1.25162e-08
-2.06792e-06
-1.63145e-08
-2.06147e-06
-2.035e-08
-2.054e-06
-2.46447e-08
-2.04544e-06
-2.92202e-08
-2.03571e-06
-3.40986e-08
-2.02475e-06
-3.93025e-08
-2.01247e-06
-4.48555e-08
-1.99877e-06
-5.07816e-08
-1.98356e-06
-5.71058e-08
-1.96673e-06
-6.38537e-08
-1.94819e-06
-7.10514e-08
-1.9278e-06
-7.87253e-08
-1.90546e-06
-8.69025e-08
-1.88102e-06
-9.56097e-08
-1.85436e-06
-1.04874e-07
-1.82534e-06
-1.14721e-07
-1.79379e-06
-1.25178e-07
-1.75958e-06
-1.36269e-07
-1.72254e-06
-1.48018e-07
-1.6825e-06
-1.60447e-07
-1.63929e-06
-1.73576e-07
-1.59274e-06
-1.87423e-07
-1.54267e-06
-2.02001e-07
-1.4889e-06
-2.17321e-07