/*--------------------------------*- C++ -*----------------------------------*\
| =========                 |                                                 |
| \\      /  F ield         | OpenFOAM: The Open Source CFD Toolbox           |
|  \\    /   O peration     | Version:  2412                                  |
|   \\  /    A nd           | Website:  www.openfoam.com                      |
|    \\/     M anipulation  |                                                 |
\*---------------------------------------------------------------------------*/
FoamFile
{
    version     2.0;
    format      ascii;
    arch        "LSB;label=32;scalar=64";
    class       volVectorField;
    location    "0.06";
    object      U;
}
// * * * * * * * * * * * * * * * * * * * * * * * * * * * * * * * * * * * * * //

dimensions      [0 1 -1 0 0 0 0];

internalField   nonuniform List<vector> 
12225
(
(0.377199 -0.200904 0)
(0.543944 -0.0519095 0)
(0.710851 -0.0339748 0)
(0.893496 -0.0304171 0)
(1.05824 -0.0296688 0)
(1.20751 -0.0283569 0)
(1.34428 -0.0264061 0)
(1.46796 -0.0244476 0)
(1.57903 -0.0226233 0)
(1.67877 -0.0209169 0)
(1.76836 -0.0193262 0)
(1.84877 -0.0178446 0)
(1.92084 -0.0164533 0)
(1.9853 -0.0151176 0)
(2.04257 -0.0138311 0)
(2.09372 -0.0124841 0)
(2.13562 -0.0108211 0)
(2.18582 -0.0142778 0)
(0.933514 -0.0317761 0)
(1.05665 -0.0586683 0)
(1.23638 -0.0688138 0)
(1.42098 -0.0643548 0)
(1.58452 -0.0616411 0)
(1.73291 -0.0587547 0)
(1.86921 -0.0553135 0)
(1.99326 -0.0518878 0)
(2.10553 -0.0486082 0)
(2.20707 -0.0454828 0)
(2.29888 -0.0425274 0)
(2.3818 -0.0397311 0)
(2.4566 -0.0370586 0)
(2.52391 -0.0344468 0)
(2.58422 -0.0318727 0)
(2.63801 -0.0290087 0)
(2.685 -0.0268202 0)
(2.72689 -0.0191475 0)
(1.39963 -0.0846741 0)
(1.4917 -0.105604 0)
(1.65435 -0.10709 0)
(1.82195 -0.101722 0)
(1.9716 -0.0977007 0)
(2.10876 -0.0932955 0)
(2.23553 -0.0883171 0)
(2.35158 -0.0833082 0)
(2.45727 -0.0784419 0)
(2.55339 -0.0737655 0)
(2.64069 -0.0693069 0)
(2.71986 -0.065052 0)
(2.79155 -0.0609516 0)
(2.8563 -0.0569215 0)
(2.91454 -0.0528815 0)
(2.96655 -0.0485425 0)
(3.01249 -0.0441866 0)
(3.0513 -0.0366213 0)
(1.8974 -0.115405 0)
(1.94611 -0.143193 0)
(2.07485 -0.144762 0)
(2.21677 -0.140442 0)
(2.34682 -0.135353 0)
(2.46803 -0.12952 0)
(2.5812 -0.123073 0)
(2.68565 -0.11649 0)
(2.78146 -0.110008 0)
(2.86911 -0.103731 0)
(2.94912 -0.0977051 0)
(3.02199 -0.0919173 0)
(3.08822 -0.0863096 0)
(3.14822 -0.0807787 0)
(3.20237 -0.0751972 0)
(3.25083 -0.0692576 0)
(3.29403 -0.062879 0)
(3.33006 -0.0532988 0)
(2.43108 -0.125793 0)
(2.44037 -0.169726 0)
(2.52841 -0.177106 0)
(2.63926 -0.175729 0)
(2.74559 -0.170652 0)
(2.84725 -0.16402 0)
(2.94376 -0.156536 0)
(3.03389 -0.148707 0)
(3.11736 -0.140865 0)
(3.19431 -0.133183 0)
(3.26499 -0.12574 0)
(3.3297 -0.118535 0)
(3.38875 -0.11151 0)
(3.44246 -0.104551 0)
(3.49111 -0.097496 0)
(3.53479 -0.0900232 0)
(3.57419 -0.0818185 0)
(3.60696 -0.0706733 0)
(2.99682 -0.123625 0)
(2.97682 -0.185146 0)
(3.02426 -0.20106 0)
(3.10122 -0.204378 0)
(3.18082 -0.200829 0)
(3.26012 -0.194343 0)
(3.33746 -0.186474 0)
(3.41102 -0.177917 0)
(3.48007 -0.169133 0)
(3.54441 -0.160389 0)
(3.60402 -0.15181 0)
(3.65895 -0.143424 0)
(3.70938 -0.135184 0)
(3.75545 -0.126976 0)
(3.79739 -0.118623 0)
(3.83521 -0.109811 0)
(3.86981 -0.100138 0)
(3.89841 -0.0879933 0)
(3.58831 -0.114425 0)
(3.55073 -0.190293 0)
(3.56276 -0.215386 0)
(3.60594 -0.224599 0)
(3.65741 -0.224078 0)
(3.71252 -0.218823 0)
(3.76884 -0.211344 0)
(3.82405 -0.202683 0)
(3.877 -0.19347 0)
(3.92714 -0.184089 0)
(3.97416 -0.174736 0)
(4.01794 -0.165477 0)
(4.05845 -0.156292 0)
(4.09571 -0.147083 0)
(4.12984 -0.137678 0)
(4.16081 -0.127795 0)
(4.18962 -0.117048 0)
(4.21306 -0.104335 0)
(4.19879 -0.101655 0)
(4.15381 -0.186711 0)
(4.13873 -0.220082 0)
(4.15131 -0.235431 0)
(4.17532 -0.23901 0)
(4.20581 -0.236015 0)
(4.24019 -0.229738 0)
(4.27596 -0.221649 0)
(4.31164 -0.21258 0)
(4.3464 -0.20305 0)
(4.3797 -0.193342 0)
(4.4112 -0.183579 0)
(4.44073 -0.173779 0)
(4.46817 -0.163873 0)
(4.49355 -0.153717 0)
(4.51678 -0.143082 0)
(4.53889 -0.131655 0)
(4.55619 -0.118725 0)
(4.82184 -0.0876687 0)
(4.77646 -0.17643 0)
(4.74344 -0.21609 0)
(4.73103 -0.236773 0)
(4.7304 -0.244774 0)
(4.73757 -0.244764 0)
(4.75037 -0.240397 0)
(4.76656 -0.233528 0)
(4.78454 -0.225185 0)
(4.80333 -0.216022 0)
(4.82221 -0.206417 0)
(4.84072 -0.196561 0)
(4.85852 -0.186522 0)
(4.87541 -0.176272 0)
(4.89131 -0.165712 0)
(4.90608 -0.154679 0)
(4.92071 -0.142955 0)
(4.93105 -0.130128 0)
(5.45145 -0.0739388 0)
(5.40934 -0.16148 0)
(5.36637 -0.204935 0)
(5.33567 -0.2294 0)
(5.31497 -0.241309 0)
(5.30185 -0.244486 0)
(5.29492 -0.24246 0)
(5.29256 -0.237304 0)
(5.29338 -0.230192 0)
(5.29638 -0.221878 0)
(5.30082 -0.212826 0)
(5.30613 -0.203298 0)
(5.31192 -0.193414 0)
(5.31788 -0.1832 0)
(5.32388 -0.172608 0)
(5.32971 -0.161543 0)
(5.33632 -0.149896 0)
(5.3391 -0.13746 0)
(6.08165 -0.0611931 0)
(6.04396 -0.143552 0)
(5.9967 -0.18828 0)
(5.95409 -0.214711 0)
(5.9187 -0.229397 0)
(5.88959 -0.235379 0)
(5.86616 -0.235707 0)
(5.84757 -0.23247 0)
(5.83285 -0.226901 0)
(5.82119 -0.219793 0)
(5.81193 -0.211668 0)
(5.80453 -0.202841 0)
(5.79857 -0.193484 0)
(5.79372 -0.183671 0)
(5.78982 -0.173411 0)
(5.78659 -0.162672 0)
(5.78497 -0.151445 0)
(5.77989 -0.139666 0)
(6.6546 -0.0503719 0)
(6.6204 -0.125492 0)
(6.57262 -0.169392 0)
(6.52396 -0.196109 0)
(6.47981 -0.212112 0)
(6.44039 -0.219921 0)
(6.40555 -0.222031 0)
(6.37506 -0.220408 0)
(6.34844 -0.21627 0)
(6.32518 -0.210394 0)
(6.30479 -0.203309 0)
(6.28683 -0.195355 0)
(6.27093 -0.186736 0)
(6.2568 -0.177564 0)
(6.24427 -0.167889 0)
(6.23303 -0.157733 0)
(6.22403 -0.14713 0)
(6.21181 -0.136223 0)
(7.20972 -0.040393 0)
(7.18002 -0.106592 0)
(7.13407 -0.14827 0)
(7.08264 -0.174275 0)
(7.03319 -0.190599 0)
(6.98697 -0.199472 0)
(6.94409 -0.202851 0)
(6.90473 -0.202504 0)
(6.86884 -0.199603 0)
(6.83622 -0.194887 0)
(6.80657 -0.188856 0)
(6.77962 -0.181851 0)
(6.75509 -0.174093 0)
(6.73276 -0.165717 0)
(6.71249 -0.156803 0)
(6.69398 -0.147413 0)
(6.67813 -0.137598 0)
(6.65936 -0.127721 0)
(7.8181 -0.0307684 0)
(7.79324 -0.0852256 0)
(7.75135 -0.122342 0)
(7.70009 -0.146208 0)
(7.64807 -0.161663 0)
(7.59781 -0.170722 0)
(7.54963 -0.174806 0)
(7.50391 -0.175356 0)
(7.46096 -0.173453 0)
(7.42085 -0.169783 0)
(7.38353 -0.1648 0)
(7.34885 -0.158822 0)
(7.3167 -0.152066 0)
(7.28694 -0.144679 0)
(7.25949 -0.136757 0)
(7.2341 -0.128385 0)
(7.21162 -0.119643 0)
(7.18658 -0.110987 0)
(8.45853 -0.0219551 0)
(8.4388 -0.0627512 0)
(8.40308 -0.0925628 0)
(8.35543 -0.112316 0)
(8.30428 -0.125303 0)
(8.25326 -0.133262 0)
(8.20312 -0.137158 0)
(8.15436 -0.137989 0)
(8.10751 -0.136627 0)
(8.06292 -0.133673 0)
(8.02069 -0.12952 0)
(7.98084 -0.124444 0)
(7.94334 -0.118651 0)
(7.90818 -0.112285 0)
(7.87533 -0.10545 0)
(7.8446 -0.098238 0)
(7.8168 -0.0907382 0)
(7.78684 -0.0834341 0)
(9.08864 -0.0139898 0)
(9.07372 -0.0406038 0)
(9.04532 -0.0609625 0)
(9.00441 -0.0745633 0)
(8.95807 -0.0832526 0)
(8.91037 -0.0883989 0)
(8.86241 -0.0906908 0)
(8.81473 -0.0907363 0)
(8.76803 -0.0891261 0)
(8.72285 -0.0863037 0)
(8.67948 -0.0825621 0)
(8.63806 -0.0780994 0)
(8.59866 -0.0730777 0)
(8.56132 -0.0676223 0)
(8.5261 -0.0618288 0)
(8.49286 -0.0557872 0)
(8.46234 -0.0495639 0)
(8.43021 -0.0436676 0)
(9.63294 -0.00665451 0)
(9.62163 -0.0194657 0)
(9.59968 -0.0293336 0)
(9.56623 -0.0354978 0)
(9.52687 -0.0387186 0)
(9.48556 -0.0398259 0)
(9.44352 -0.0392676 0)
(9.40118 -0.0373794 0)
(9.35913 -0.0345016 0)
(9.31795 -0.030915 0)
(9.27803 -0.0268138 0)
(9.23956 -0.0223379 0)
(9.20266 -0.0175875 0)
(9.16742 -0.0126458 0)
(9.13393 -0.00758471 0)
(9.1021 -0.00248509 0)
(9.0725 0.00263685 0)
(9.04214 0.00728623 0)
(9.96404 0.000546272 0)
(9.95456 0.00146717 0)
(9.93643 0.00279581 0)
(9.90802 0.00491025 0)
(9.87407 0.00772367 0)
(9.83836 0.0110468 0)
(9.80215 0.0147776 0)
(9.76581 0.018847 0)
(9.72978 0.0231734 0)
(9.69456 0.0276778 0)
(9.66046 0.0322994 0)
(9.62762 0.036981 0)
(9.59614 0.0416828 0)
(9.56606 0.0463631 0)
(9.5374 0.0509791 0)
(9.51012 0.0554654 0)
(9.4844 0.0598443 0)
(9.45922 0.0637015 0)
(9.875 0.00790451 0)
(9.86692 0.0230797 0)
(9.84997 0.0363493 0)
(9.82269 0.0474051 0)
(9.78992 0.0566714 0)
(9.75546 0.064632 0)
(9.7206 0.0715858 0)
(9.68572 0.0777498 0)
(9.65127 0.0833221 0)
(9.61777 0.0884626 0)
(9.58552 0.0932797 0)
(9.55468 0.0978462 0)
(9.5253 0.102201 0)
(9.4974 0.106361 0)
(9.47095 0.110334 0)
(9.44599 0.114098 0)
(9.42223 0.117687 0)
(9.40069 0.120817 0)
(9.28438 0.0163148 0)
(9.27075 0.0473728 0)
(9.24605 0.0731366 0)
(9.21032 0.0931332 0)
(9.16981 0.108722 0)
(9.12848 0.121105 0)
(9.08744 0.130967 0)
(9.04707 0.138851 0)
(9.00793 0.145271 0)
(8.97049 0.150632 0)
(8.93503 0.155214 0)
(8.90161 0.159205 0)
(8.87024 0.162744 0)
(8.84088 0.165929 0)
(8.81346 0.168828 0)
(8.78794 0.171488 0)
(8.76382 0.173955 0)
(8.7431 0.176079 0)
(8.47103 0.0264324 0)
(8.45249 0.0748232 0)
(8.42005 0.112034 0)
(8.37693 0.139231 0)
(8.33104 0.159533 0)
(8.28612 0.174789 0)
(8.24285 0.186033 0)
(8.20157 0.194225 0)
(8.16273 0.200227 0)
(8.12662 0.204667 0)
(8.09329 0.20797 0)
(8.06265 0.210444 0)
(8.03459 0.212319 0)
(8.00896 0.213765 0)
(7.98558 0.214907 0)
(7.96434 0.21584 0)
(7.94473 0.216624 0)
(7.92876 0.217218 0)
(7.51241 0.0388075 0)
(7.48674 0.10535 0)
(7.44684 0.151636 0)
(7.4003 0.183317 0)
(7.35517 0.205837 0)
(7.31361 0.221496 0)
(7.27559 0.231822 0)
(7.24119 0.238357 0)
(7.21052 0.242315 0)
(7.18344 0.2445 0)
(7.15968 0.245452 0)
(7.13895 0.245563 0)
(7.12095 0.245117 0)
(7.1054 0.244317 0)
(7.09201 0.243304 0)
(7.0806 0.242184 0)
(7.07064 0.241013 0)
(7.06387 0.239811 0)
(6.48932 0.0544519 0)
(6.4567 0.137586 0)
(6.41337 0.188091 0)
(6.37145 0.220142 0)
(6.3362 0.241414 0)
(6.30717 0.254489 0)
(6.28363 0.261611 0)
(6.26515 0.264864 0)
(6.25116 0.265637 0)
(6.24095 0.264784 0)
(6.23393 0.262888 0)
(6.22957 0.260361 0)
(6.22741 0.257487 0)
(6.22709 0.254456 0)
(6.22826 0.251397 0)
(6.23071 0.248398 0)
(6.23397 0.245502 0)
(6.23944 0.242766 0)
(5.45713 0.0735631 0)
(5.41844 0.167023 0)
(5.37912 0.215012 0)
(5.35361 0.243189 0)
(5.33999 0.25992 0)
(5.33441 0.268014 0)
(5.33533 0.270522 0)
(5.34145 0.269775 0)
(5.35141 0.26709 0)
(5.36409 0.263252 0)
(5.37872 0.258792 0)
(5.39472 0.254064 0)
(5.41164 0.249293 0)
(5.42912 0.244618 0)
(5.44691 0.240122 0)
(5.46483 0.235858 0)
(5.48256 0.231847 0)
(5.50122 0.22815 0)
(4.45283 0.0949022 0)
(4.41222 0.187809 0)
(4.39093 0.22661 0)
(4.39745 0.247342 0)
(4.41783 0.257132 0)
(4.44528 0.259297 0)
(4.47786 0.257308 0)
(4.51367 0.25318 0)
(4.55102 0.247894 0)
(4.58885 0.242046 0)
(4.62652 0.236033 0)
(4.66362 0.230097 0)
(4.69986 0.224377 0)
(4.73506 0.21895 0)
(4.76911 0.213853 0)
(4.80197 0.209101 0)
(4.83348 0.204694 0)
(4.86459 0.200695 0)
(3.50294 0.114534 0)
(3.47317 0.193201 0)
(3.48957 0.218137 0)
(3.54201 0.229582 0)
(3.6039 0.232359 0)
(3.66835 0.229924 0)
(3.73428 0.225116 0)
(3.79995 0.219202 0)
(3.86397 0.212787 0)
(3.92568 0.206268 0)
(3.98481 0.1999 0)
(4.04123 0.193823 0)
(4.09493 0.188108 0)
(4.14593 0.182781 0)
(4.19433 0.177846 0)
(4.24027 0.173292 0)
(4.28375 0.169106 0)
(4.32558 0.16536 0)
(2.62983 0.123029 0)
(2.63221 0.176573 0)
(2.70218 0.188306 0)
(2.80546 0.19157 0)
(2.90856 0.189743 0)
(3.00781 0.185369 0)
(3.104 0.179837 0)
(3.19614 0.173794 0)
(3.28339 0.167641 0)
(3.3656 0.161632 0)
(3.44291 0.155914 0)
(3.51553 0.150559 0)
(3.58371 0.145593 0)
(3.64773 0.141016 0)
(3.70786 0.136811 0)
(3.76442 0.132956 0)
(3.81754 0.129428 0)
(3.86801 0.126322 0)
(1.85178 0.104845 0)
(1.9065 0.13455 0)
(2.03068 0.142112 0)
(2.17882 0.140828 0)
(2.317 0.137449 0)
(2.44509 0.133429 0)
(2.56594 0.128704 0)
(2.67945 0.123686 0)
(2.78528 0.118732 0)
(2.8837 0.113997 0)
(2.97523 0.109555 0)
(3.06041 0.10544 0)
(3.13973 0.101658 0)
(3.21366 0.0981955 0)
(3.28268 0.0950314 0)
(3.34721 0.092142 0)
(3.40756 0.0894915 0)
(3.46447 0.0871867 0)
(1.17532 0.0416955 0)
(1.28245 0.0661655 0)
(1.43897 0.0891079 0)
(1.6172 0.0893575 0)
(1.78138 0.086468 0)
(1.93071 0.0836246 0)
(2.06957 0.0801813 0)
(2.19866 0.0765184 0)
(2.31788 0.0729815 0)
(2.4278 0.0696551 0)
(2.52928 0.0665645 0)
(2.62311 0.0637253 0)
(2.70999 0.0611342 0)
(2.79056 0.0587746 0)
(2.86544 0.0566262 0)
(2.93515 0.0546718 0)
(3.00012 0.052849 0)
(3.06106 0.0512565 0)
(0.469471 0.226522 0)
(0.642388 0.069188 0)
(0.789148 0.0480823 0)
(0.972961 0.0444949 0)
(1.15003 0.043083 0)
(1.31055 0.0418149 0)
(1.45883 0.0398055 0)
(1.59585 0.0375127 0)
(1.72138 0.0353163 0)
(1.83619 0.0332893 0)
(1.94144 0.0314274 0)
(2.03815 0.0297287 0)
(2.12718 0.0281865 0)
(2.20933 0.0267881 0)
(2.28527 0.0255174 0)
(2.35566 0.0243673 0)
(2.42098 0.0232844 0)
(2.48155 0.0223473 0)
(0.0136737 -0.012441 -2.87188e-20)
(0.0566687 -0.0551305 2.72415e-20)
(0.111777 -0.0767313 0)
(0.166968 -0.080849 0)
(0.214389 -0.0740195 0)
(0.251109 -0.0612053 -2.3976e-20)
(0.276134 -0.045382 0)
(0.28943 -0.0280287 0)
(0.290647 -0.0100997 0)
(0.27901 0.00690173 0)
(0.256906 0.0213147 2.32134e-20)
(0.226843 0.0320547 0)
(0.190959 0.0388231 0)
(0.150882 0.042183 0)
(0.107486 0.0434859 0)
(0.0607358 0.044547 2.39985e-20)
(0.00966929 0.047058 0)
(-0.0470296 0.0521172 0)
(-0.110789 0.0598505 0)
(-0.182588 0.0695753 0)
(-0.262366 0.0800052 0)
(-0.349423 0.0898773 0)
(-0.442404 0.0981359 0)
(-0.539582 0.104136 1.93217e-20)
(-0.639091 0.107618 -1.87524e-20)
(-0.739109 0.108623 1.8249e-20)
(-0.837986 0.107404 1.78092e-20)
(-0.934335 0.10434 0)
(-1.02706 0.0998667 0)
(-1.11538 0.0944151 -1.68127e-20)
(-1.19878 0.088378 -1.65653e-20)
(-1.27701 0.0820866 0)
(-1.35001 0.0758027 0)
(-1.41789 0.0697193 -1.59872e-20)
(-1.48086 0.0639677 0)
(-1.53921 0.0586278 0)
(-1.59329 0.0537383 1.55577e-20)
(-1.64345 0.0493079 0)
(-1.69005 0.0453244 1.53123e-20)
(-1.73344 0.0417618 3.03921e-20)
(-1.77393 0.0385863 0)
(-1.81182 0.0357605 0)
(-1.84738 0.0332466 0)
(-1.88085 0.031008 0)
(-1.91244 0.0290106 0)
(-1.94235 0.0272235 2.90483e-20)
(-1.97073 0.0256191 2.88218e-20)
(-1.99772 0.0241729 2.85928e-20)
(-2.02346 0.0228638 0)
(-2.04805 0.0216733 -2.81255e-20)
(-2.07158 0.0205856 0)
(-2.09413 0.019587 2.76437e-20)
(-2.11577 0.0186657 2.7397e-20)
(-2.13658 0.0178118 0)
(-2.15659 0.0170165 0)
(-2.17585 0.0162724 0)
(-2.19441 0.0155731 2.6367e-20)
(-2.21229 0.014913 0)
(-2.22954 0.0142872 0)
(-2.24616 0.0136914 0)
(-2.26219 0.0131217 0)
(-2.27765 0.0125748 0)
(-2.29254 0.0120475 0)
(-2.30688 0.0115367 0)
(-2.32068 0.0110398 0)
(-2.33395 0.0105537 -2.37747e-20)
(-2.34669 0.0100759 0)
(-2.35891 0.00960326 0)
(-2.37059 0.00913276 2.28185e-20)
(-2.38173 0.00866092 2.24886e-20)
(-2.39234 0.00818386 0)
(-2.40239 0.00769709 -2.18115e-20)
(-2.41187 0.00719536 2.14639e-20)
(-2.42075 0.00667251 0)
(-2.42902 0.00612151 -2.07495e-20)
(-2.43663 0.00553489 0)
(-2.44355 0.00490566 0)
(-2.44973 0.00422833 1.9627e-20)
(-2.4551 0.00350081 0)
(-2.4596 0.00273095 -1.88417e-20)
(-2.46314 0.00194306 0)
(-2.46561 0.00116959 1.80235e-20)
(-2.46697 0.00043798 1.7598e-20)
(-2.46748 -0.000233506 1.71621e-20)
(-2.467 -0.000912476 3.34298e-20)
(-2.46553 -0.001617 -3.25113e-20)
(-2.46299 -0.00235644 0)
(-2.45931 -0.00313589 0)
(-2.45443 -0.00395923 0)
(-2.44825 -0.00482987 -2.85624e-20)
(-2.44069 -0.0057511 -2.74968e-20)
(-2.43165 -0.00672619 2.63954e-20)
(-2.42104 -0.00775847 0)
(-2.40874 -0.0088513 -2.40759e-20)
(-2.39463 -0.0100081 -2.28524e-20)
(-2.3786 -0.0112324 -2.15826e-20)
(-2.36052 -0.0125277 0)
(-2.34024 -0.0138976 0)
(-2.31763 -0.0153456 0)
(-2.29253 -0.0168752 -1.59786e-20)
(-2.26479 -0.0184899 0)
(-2.23424 -0.0201931 0)
(-2.20072 -0.0219881 1.11277e-20)
(-2.16404 -0.023878 0)
(-2.12402 -0.0258655 0)
(-2.08048 -0.0279532 5.60835e-21)
(-2.03322 -0.0301434 0)
(-1.98206 -0.0324378 0)
(-1.92678 -0.0348377 6.87734e-22)
(-1.86719 -0.0373435 2.97765e-21)
(-1.80311 -0.039955 0)
(-1.73432 -0.0426712 -7.86675e-21)
(-1.66066 -0.0454899 0)
(-1.58192 -0.0484077 1.319e-20)
(-1.49796 -0.05142 0)
(-1.4086 -0.0545205 1.89679e-20)
(-1.31371 -0.0577014 2.20315e-20)
(-1.21317 -0.060953 0)
(-1.10689 -0.0642635 0)
(-0.994808 -0.0676189 0)
(-0.876894 -0.071002 0)
(-0.753156 -0.0743905 0)
(-0.623652 -0.0777525 0)
(-0.488513 -0.0810326 0)
(-0.347963 -0.0841079 5.05874e-20)
(-0.202293 -0.086714 -5.46008e-20)
(-0.0518892 -0.0884677 0)
(0.103043 -0.0892772 0)
(0.262215 -0.0895227 0)
(0.425176 -0.0894609 0)
(0.591386 -0.0891135 -1.23423e-19)
(0.760269 -0.0884691 0)
(0.931208 -0.0875201 1.23294e-19)
(1.10354 -0.0862632 -1.22596e-19)
(1.27655 -0.0847 0)
(1.4495 -0.0828368 0)
(1.62163 -0.0806846 0)
(1.79218 -0.0782587 1.16269e-19)
(1.96038 -0.0755783 1.13977e-19)
(2.12549 -0.0726658 0)
(2.28677 -0.0695467 1.08803e-19)
(2.44355 -0.0662486 1.05997e-19)
(2.59518 -0.0628005 -1.03095e-19)
(2.74105 -0.0592319 0)
(2.88065 -0.0555727 0)
(3.01349 -0.0518518 -9.41653e-20)
(3.13915 -0.0480967 0)
(3.25729 -0.0443332 0)
(3.36762 -0.0405846 0)
(3.4699 -0.0368715 0)
(3.56395 -0.0332118 8.0292e-20)
(3.64966 -0.0296196 7.78728e-20)
(3.72693 -0.0261074 0)
(3.79572 -0.0226861 7.35117e-20)
(3.85601 -0.0193478 0)
(3.90776 -0.016069 0)
(3.95089 -0.0129402 6.82967e-20)
(3.98558 -0.00996923 0)
(4.01202 -0.00602189 6.57978e-20)
(4.02579 -0.000344367 0)
(4.02371 0.00563072 0)
(4.00763 0.0110041 6.35481e-20)
(3.97928 0.0155061 0)
(3.93986 0.0192313 6.30096e-20)
(3.89029 0.0223409 0)
(3.83138 0.024936 0)
(3.76386 0.0270561 0)
(3.68852 0.028704 -6.40164e-20)
(3.60624 0.0298753 0)
(3.51796 0.0305788 6.54208e-20)
(3.42463 0.0308525 0)
(3.32717 0.0307765 0)
(3.22632 0.03048 0)
(3.12247 0.030148 0)
(3.01559 0.0300349 0)
(2.9045 0.0304907 0)
(2.78807 0.0321257 0)
(2.65756 0.0355752 -1.52866e-19)
(2.5224 0.0448097 0)
(2.28676 0.0542877 0)
(0.0357275 -0.131079 8.27673e-20)
(0.0867493 -0.182891 -7.46172e-20)
(0.124441 -0.171417 0)
(0.149032 -0.14261 4.23593e-20)
(0.162459 -0.108689 0)
(0.16646 -0.0734731 1.95725e-20)
(0.162289 -0.0385555 -3.85821e-20)
(0.150609 -0.00474657 -3.81793e-20)
(0.132512 0.0272023 0)
(0.108717 0.0561373 -3.77737e-20)
(0.0780107 0.0809131 -1.89303e-20)
(0.0396169 0.101113 0)
(-0.00694224 0.117325 0)
(-0.0618965 0.131132 0)
(-0.125292 0.144612 0)
(-0.197061 0.159474 -1.72384e-20)
(-0.276873 0.176456 0)
(-0.363839 0.195151 3.19542e-20)
(-0.456547 0.214289 0)
(-0.553234 0.232168 0)
(-0.651935 0.247122 -2.88929e-20)
(-0.750676 0.257909 0)
(-0.847632 0.263862 2.72399e-20)
(-0.941264 0.264894 -1.33086e-20)
(-1.03039 0.261375 1.29916e-20)
(-1.11422 0.253977 -1.2716e-20)
(-1.19231 0.243529 -1.24774e-20)
(-1.26455 0.230892 0)
(-1.33105 0.21688 0)
(-1.39211 0.202201 1.19349e-20)
(-1.44814 0.187433 -1.17794e-20)
(-1.49959 0.173019 0)
(-1.54695 0.159275 0)
(-1.59066 0.146404 1.14529e-20)
(-1.63114 0.134521 0)
(-1.66879 0.123668 0)
(-1.70393 0.113838 -1.1173e-20)
(-1.73685 0.104986 0)
(-1.76779 0.0970479 1.09369e-20)
(-1.79698 0.0899448 -2.18419e-20)
(-1.82458 0.0835944 0)
(-1.85077 0.0779147 0)
(-1.87566 0.0728276 -4.25683e-20)
(-1.89936 0.0682608 -4.22467e-20)
(-1.92199 0.0641487 -4.19251e-20)
(-1.94361 0.0604329 2.07285e-20)
(-1.96431 0.0570617 -2.07111e-20)
(-1.98415 0.0539901 -6.14986e-20)
(-2.00317 0.0511789 4.06224e-20)
(-2.02144 0.0485943 2.02126e-20)
(-2.03899 0.0462069 0)
(-2.05585 0.0439915 -1.98703e-20)
(-2.07207 0.0419265 1.957e-20)
(-2.08767 0.0399932 0)
(-2.10267 0.0381752 0)
(-2.11709 0.0364588 0)
(-2.13096 0.0348316 -1.89711e-20)
(-2.1443 0.033283 0)
(-2.1571 0.0318036 3.70816e-20)
(-2.16939 0.0303852 0)
(-2.18117 0.0290203 3.63069e-20)
(-2.19246 0.0277022 0)
(-2.20325 0.0264247 -3.55068e-20)
(-2.21356 0.025182 0)
(-2.22338 0.0239688 3.46797e-20)
(-2.23271 0.0227798 -1.70918e-20)
(-2.24154 0.0216098 0)
(-2.24989 0.020454 -3.33853e-20)
(-2.25773 0.019307 -1.6498e-20)
(-2.26507 0.0181637 -1.62681e-20)
(-2.27188 0.0170186 0)
(-2.27817 0.0158659 -1.57539e-20)
(-2.28391 0.0146994 -1.55521e-20)
(-2.28908 0.0135123 0)
(-2.29367 0.0122975 1.50511e-20)
(-2.29767 0.011047 -2.95689e-20)
(-2.30105 0.00975307 0)
(-2.3038 0.00840718 -1.42596e-20)
(-2.30592 0.0070013 0)
(-2.3074 0.0055342 4.11182e-20)
(-2.30826 0.00402258 0)
(-2.30854 0.00249291 -3.93725e-20)
(-2.30823 0.000966113 -1.28097e-20)
(-2.30706 -0.000561275 1.25378e-20)
(-2.305 -0.00213532 2.44492e-20)
(-2.30197 -0.00377487 -2.38054e-20)
(-2.29788 -0.00549331 0)
(-2.29268 -0.00729956 0)
(-2.28627 -0.00920115 0)
(-2.27857 -0.011205 6.26551e-20)
(-2.2695 -0.0133176 2.0035e-20)
(-2.25896 -0.0155458 -1.92297e-20)
(-2.24684 -0.0178961 0)
(-2.23304 -0.020375 -1.78634e-20)
(-2.21744 -0.022989 1.66328e-20)
(-2.19992 -0.0257447 1.57006e-20)
(-2.18035 -0.0286482 0)
(-2.15858 -0.0317058 0)
(-2.13449 -0.0349232 0)
(-2.10791 -0.0383061 1.15864e-20)
(-2.07869 -0.0418594 0)
(-2.04667 -0.0455879 -1.91929e-20)
(-2.01168 -0.0494955 -2.4818e-20)
(-1.97354 -0.0535853 1.42681e-20)
(-1.93207 -0.0578596 0)
(-1.88708 -0.0623197 4.89928e-21)
(-1.83839 -0.0669654 0)
(-1.7858 -0.0717953 3.14392e-21)
(-1.72913 -0.0768064 -5.67666e-22)
(-1.66817 -0.0819936 9.91766e-22)
(-1.60274 -0.0873498 0)
(-1.53264 -0.0928654 1.54077e-20)
(-1.4577 -0.0985282 -1.34036e-20)
(-1.37773 -0.104323 -9.25104e-21)
(-1.29258 -0.110231 0)
(-1.2021 -0.116231 -1.31905e-20)
(-1.10616 -0.122297 -4.40855e-20)
(-1.00464 -0.128398 0)
(-0.89746 -0.134502 -3.72354e-20)
(-0.78457 -0.14057 -4.15858e-20)
(-0.66595 -0.14656 -4.60256e-20)
(-0.541619 -0.152423 0)
(-0.411641 -0.158105 0)
(-0.276132 -0.163542 0)
(-0.13525 -0.168652 3.10829e-20)
(0.0108215 -0.173313 3.53687e-20)
(0.161958 -0.177356 0)
(0.317788 -0.180646 7.33721e-20)
(0.477849 -0.18323 7.53891e-20)
(0.641712 -0.18518 0)
(0.808911 -0.186479 8.08495e-20)
(0.978895 -0.187092 1.59515e-19)
(1.15106 -0.186983 -8.2808e-20)
(1.32474 -0.186128 -7.91391e-20)
(1.49927 -0.184514 0)
(1.67391 -0.182138 0)
(1.84793 -0.17901 0)
(2.02059 -0.175152 -8.28427e-20)
(2.19115 -0.170596 7.86753e-20)
(2.35887 -0.165386 1.59124e-19)
(2.52306 -0.159571 -8.00928e-20)
(2.68305 -0.153211 7.59396e-20)
(2.83821 -0.146369 7.7451e-20)
(2.98796 -0.139115 0)
(3.13178 -0.131517 0)
(3.26921 -0.123645 -7.06036e-20)
(3.39984 -0.115568 0)
(3.52332 -0.10735 0)
(3.63936 -0.0990529 1.33931e-19)
(3.74775 -0.0907307 0)
(3.84829 -0.0824324 6.32557e-20)
(3.94086 -0.0741997 -6.31052e-20)
(4.02537 -0.0660675 0)
(4.10176 -0.0580627 5.94098e-20)
(4.17002 -0.0501949 0)
(4.23012 -0.0424584 0)
(4.28212 -0.0348837 -5.70738e-20)
(4.32593 -0.0273914 1.11919e-19)
(4.36139 -0.0192178 -5.55448e-20)
(4.39134 -0.00992217 0)
(4.4177 -0.000481827 0)
(4.43824 0.0085117 5.38022e-20)
(4.45131 0.0168479 0)
(4.45608 0.0245911 5.35361e-20)
(4.45213 0.0318247 0)
(4.43925 0.0385736 0)
(4.41724 0.0448227 0)
(4.38598 0.0505325 5.45169e-20)
(4.34538 0.0556558 0)
(4.29544 0.0601545 -5.56384e-20)
(4.23622 0.0640182 0)
(4.16793 0.0672846 0)
(4.09087 0.0700615 1.16434e-19)
(4.00541 0.0725519 -1.18576e-19)
(3.91199 0.0751067 0)
(3.81059 0.0782546 0)
(3.70197 0.0831035 0)
(3.58207 0.090704 3.89204e-19)
(3.46073 0.107717 0)
(3.2951 0.13028 -2.73461e-19)
(0.0281196 -0.252789 -2.83115e-23)
(0.0554254 -0.258205 9.47417e-20)
(0.0642417 -0.205076 0)
(0.0642105 -0.151156 -7.70618e-20)
(0.0571066 -0.100023 0)
(0.0437386 -0.0513229 0)
(0.0246627 -0.00478095 1.44639e-23)
(0.000122698 0.039691 3.34132e-20)
(-0.0299014 0.0821052 3.26528e-20)
(-0.0655833 0.122314 3.20144e-20)
(-0.107272 0.159862 0)
(-0.155478 0.194376 0)
(-0.210709 0.226021 -2.97457e-20)
(-0.273208 0.255518 -5.7726e-20)
(-0.342727 0.283773 5.58778e-20)
(-0.418406 0.311312 0)
(-0.498799 0.337902 5.22129e-20)
(-0.582009 0.362528 -2.52288e-20)
(-0.665945 0.383688 0)
(-0.748625 0.399848 4.7379e-20)
(-0.82841 0.409862 2.29011e-20)
(-0.904129 0.413201 -4.47236e-20)
(-0.975102 0.409978 -2.16451e-20)
(-1.04109 0.40084 0)
(-1.10217 0.386787 4.15334e-20)
(-1.15866 0.368986 4.06515e-20)
(-1.21099 0.348622 0)
(-1.25964 0.326783 3.91107e-20)
(-1.30506 0.304401 0)
(-1.34766 0.282217 3.78179e-20)
(-1.38778 0.260787 1.857e-20)
(-1.42571 0.240491 0)
(-1.46167 0.221563 0)
(-1.49584 0.204121 0)
(-1.52837 0.188191 0)
(-1.55937 0.173741 0)
(-1.58894 0.160692 0)
(-1.61716 0.148944 3.42245e-20)
(-1.6441 0.138382 -5.08602e-20)
(-1.66985 0.128889 0)
(-1.69446 0.120349 0)
(-1.71799 0.112655 0)
(-1.74051 0.105706 9.57048e-23)
(-1.76206 0.099411 3.24229e-20)
(-1.7827 0.0936903 6.41645e-20)
(-1.80247 0.0884719 -6.35866e-20)
(-1.82142 0.0836932 -3.14575e-20)
(-1.8396 0.0792991 3.12695e-20)
(-1.85703 0.075242 -9.56345e-23)
(-1.87376 0.0714803 3.06044e-20)
(-1.88981 0.067978 0)
(-1.90522 0.0647038 3.00353e-20)
(-1.92 0.0616306 -8.74504e-23)
(-1.93419 0.0587346 0)
(-1.94781 0.0559954 0)
(-1.96087 0.0533948 -2.88806e-20)
(-1.97338 0.0509169 0)
(-1.98537 0.0485479 0)
(-1.99685 0.0462752 2.79195e-20)
(-2.00783 0.0440877 5.53761e-20)
(-2.01831 0.0419751 -2.74472e-20)
(-2.0283 0.0399283 0)
(-2.03782 0.0379385 2.68186e-20)
(-2.04686 0.0359977 0)
(-2.05542 0.0340982 2.60708e-20)
(-2.06351 0.0322325 2.58459e-20)
(-2.07113 0.0303934 -5.09364e-20)
(-2.07828 0.0285735 -2.5093e-20)
(-2.08495 0.0267655 0)
(-2.09113 0.0249623 4.89024e-20)
(-2.09682 0.0231563 0)
(-2.10202 0.0213401 7.12655e-20)
(-2.10671 0.0195061 4.67717e-20)
(-2.11087 0.0176469 4.60373e-20)
(-2.11451 0.0157552 -4.52897e-20)
(-2.1176 0.0138247 6.67991e-20)
(-2.12013 0.0118502 0)
(-2.12208 0.00982827 0)
(-2.12345 0.00775813 -4.21521e-20)
(-2.12419 0.0056407 -6.19748e-20)
(-2.1243 0.00347389 0)
(-2.12373 0.00125823 1.97719e-20)
(-2.12242 -0.00102816 0)
(-2.12027 -0.00341911 -5.66387e-20)
(-2.11724 -0.00592415 1.00759e-22)
(-2.11326 -0.0085538 -1.1712e-22)
(-2.10827 -0.0113184 3.48799e-20)
(-2.1022 -0.0142283 0)
(-2.09496 -0.0172937 -3.27916e-20)
(-2.08648 -0.0205249 1.91969e-22)
(-2.07667 -0.0239322 0)
(-2.06543 -0.027526 0)
(-2.05266 -0.0313164 0)
(-2.03826 -0.0353138 2.6636e-20)
(-2.02212 -0.0395283 0)
(-2.00411 -0.0439697 0)
(-1.9841 -0.0486478 0)
(-1.96197 -0.0535716 0)
(-1.93757 -0.0587499 0)
(-1.91075 -0.0641906 1.8289e-20)
(-1.88137 -0.0699009 0)
(-1.84925 -0.0758872 1.4399e-20)
(-1.81424 -0.0821544 1.25806e-20)
(-1.77615 -0.0887063 -1.0689e-20)
(-1.73482 -0.0955449 0)
(-1.69006 -0.102671 -6.6769e-21)
(-1.64168 -0.110081 0)
(-1.5895 -0.117772 -2.34616e-21)
(-1.53332 -0.125736 5.75172e-23)
(-1.47296 -0.133962 -5.17647e-21)
(-1.40822 -0.142437 0)
(-1.33892 -0.151143 -1.99566e-20)
(-1.26489 -0.160056 -7.85277e-21)
(-1.18595 -0.16915 0)
(-1.10193 -0.178392 -2.85347e-20)
(-1.0127 -0.187742 -3.41373e-20)
(-0.918125 -0.197158 6.10841e-20)
(-0.818096 -0.206587 0)
(-0.71253 -0.215974 2.72538e-20)
(-0.601375 -0.225253 3.0364e-20)
(-0.484611 -0.234355 9.75878e-20)
(-0.362256 -0.2432 0)
(-0.234365 -0.251706 0)
(-0.101033 -0.259783 0)
(0.0375956 -0.267347 4.26021e-20)
(0.181392 -0.27431 0)
(0.330135 -0.280595 0)
(0.483508 -0.286116 -5.2164e-20)
(0.641106 -0.290777 -5.3927e-20)
(0.802486 -0.294488 0)
(0.967159 -0.297174 0)
(1.13457 -0.298765 -1.16259e-19)
(1.30412 -0.299203 0)
(1.47517 -0.298445 1.19944e-19)
(1.64705 -0.296465 1.18138e-19)
(1.81905 -0.293256 0)
(1.99045 -0.28883 0)
(2.16053 -0.283215 -1.1997e-19)
(2.32856 -0.276461 -2.6654e-21)
(2.49385 -0.26863 -2.54943e-21)
(2.65571 -0.259801 0)
(2.81348 -0.250065 -2.38194e-19)
(2.96657 -0.239521 0)
(3.1144 -0.228277 0)
(3.25649 -0.216442 0)
(3.39237 -0.204129 1.14158e-19)
(3.52166 -0.191445 0)
(3.64403 -0.178495 -2.17765e-19)
(3.7592 -0.165378 -1.08514e-19)
(3.86696 -0.152183 0)
(3.96714 -0.138991 -1.04739e-19)
(4.05961 -0.12587 0)
(4.14431 -0.112878 0)
(4.22118 -0.100061 -2.9715e-19)
(4.29021 -0.0874475 1.94793e-19)
(4.35143 -0.0750491 0)
(4.40486 -0.062867 1.90306e-19)
(4.45054 -0.0508503 -9.48507e-20)
(4.4885 -0.0389301 0)
(4.5195 -0.0269831 0)
(4.54452 -0.0148278 0)
(4.56376 -0.00266127 -2.7885e-19)
(4.57687 0.00929364 0)
(4.58355 0.0209181 -9.32908e-20)
(4.58354 0.0321454 0)
(4.57667 0.0429325 0)
(4.5628 0.0532434 0)
(4.54178 0.063034 0)
(4.51345 0.0722507 0)
(4.47766 0.0808406 0)
(4.43422 0.0887685 -2.00474e-19)
(4.38295 0.0960385 0)
(4.3237 0.102723 -1.0395e-19)
(4.25633 0.108998 3.18137e-19)
(4.1808 0.115212 0)
(4.09685 0.121934 0)
(4.00488 0.130391 -2.26947e-19)
(3.90273 0.141926 -2.33372e-19)
(3.79734 0.162662 2.38774e-19)
(3.67007 0.192452 2.46239e-19)
(0.00675456 -0.302764 -1.5678e-19)
(0.00688943 -0.255949 -1.3652e-19)
(-0.00653484 -0.18775 -7.86769e-20)
(-0.0232127 -0.123911 -3.51401e-20)
(-0.043839 -0.0633986 0)
(-0.0684511 -0.00533873 6.19413e-20)
(-0.0971797 0.0507409 -2.95769e-20)
(-0.130264 0.105057 0)
(-0.167957 0.15765 -2.79611e-20)
(-0.210442 0.208336 0)
(-0.257846 0.256745 5.32177e-20)
(-0.310233 0.302482 0)
(-0.367507 0.345286 2.52692e-20)
(-0.429255 0.385023 4.90189e-20)
(-0.494622 0.421511 -4.74609e-20)
(-0.562313 0.454285 0)
(-0.630731 0.482503 -4.44008e-20)
(-0.698218 0.505074 0)
(-0.763315 0.520945 0)
(-0.824944 0.529404 -4.03255e-20)
(-0.8825 0.530279 0)
(-0.935823 0.523965 -3.57924e-22)
(-0.985104 0.511318 0)
(-1.03075 0.49349 0)
(-1.07329 0.471749 3.3536e-22)
(-1.11324 0.44734 -3.44637e-20)
(-1.15106 0.421389 -3.40268e-20)
(-1.18714 0.394848 -3.30916e-20)
(-1.22178 0.368476 0)
(-1.25517 0.342848 -6.40543e-20)
(-1.28744 0.318369 0)
(-1.31868 0.295303 -3.10755e-20)
(-1.34891 0.2738 0)
(-1.37817 0.253918 0)
(-1.40643 0.235653 2.97773e-20)
(-1.43372 0.218951 0)
(-1.46002 0.203728 -2.90417e-20)
(-1.48535 0.189881 -1.05088e-25)
(-1.50971 0.177298 5.67709e-20)
(-1.53312 0.165866 -5.61411e-20)
(-1.55559 0.155471 0)
(-1.57716 0.146006 0)
(-1.59786 0.137373 -2.71665e-20)
(-1.6177 0.129478 0)
(-1.63673 0.12224 -2.6705e-20)
(-1.65497 0.115582 2.64432e-20)
(-1.67246 0.109439 2.61845e-20)
(-1.68922 0.103752 0)
(-1.70528 0.0984671 -2.56735e-20)
(-1.72068 0.0935394 -2.54201e-20)
(-1.73543 0.088928 5.02403e-20)
(-1.74957 0.0845972 -2.49152e-20)
(-1.7631 0.0805156 -2.46629e-20)
(-1.77606 0.0766556 0)
(-1.78846 0.0729929 0)
(-1.80031 0.069506 2.39031e-20)
(-1.81164 0.0661757 0)
(-1.82245 0.062985 0)
(-1.83275 0.0599186 -4.62666e-20)
(-1.84257 0.0569628 -4.57469e-20)
(-1.8519 0.0541049 0)
(-1.86075 0.0513333 0)
(-1.86913 0.0486371 0)
(-1.87705 0.0460062 0)
(-1.8845 0.0434307 -4.30829e-20)
(-1.89149 0.0409013 4.24881e-20)
(-1.89802 0.0384085 4.198e-20)
(-1.90409 0.0359433 8.28017e-20)
(-1.9097 0.0334966 0)
(-1.91484 0.031059 -2.5387e-23)
(-1.91951 0.0286214 0)
(-1.9237 0.0261745 -3.91022e-20)