/*--------------------------------*- C++ -*----------------------------------*\
| =========                 |                                                 |
| \\      /  F ield         | OpenFOAM: The Open Source CFD Toolbox           |
|  \\    /   O peration     | Version:  2412                                  |
|   \\  /    A nd           | Website:  www.openfoam.com                      |
|    \\/     M anipulation  |                                                 |
\*---------------------------------------------------------------------------*/
FoamFile
{
    version     2.0;
    format      ascii;
    arch        "LSB;label=32;scalar=64";
    class       surfaceScalarField;
    location    "0.7";
    object      phi;
}
// * * * * * * * * * * * * * * * * * * * * * * * * * * * * * * * * * * * * * //

dimensions      [0 3 -1 0 0 0 0];

oriented        oriented;

internalField   nonuniform List<scalar> 
799
(
2.4568e-05
4.9136e-05
7.37039e-05
9.82718e-05
0.000122839
0.000147407
0.000171974
0.000196541
0.000221107
0.000245673
0.000270238
0.000294803
0.000319368
0.000343932
0.000368495
0.000393057
0.000417619
0.00044218
0.00046674
0.000491299
0.000515857
0.000540414
0.00056497
0.000589525
0.000614079
0.000638632
0.000663183
0.000687734
0.000712283
0.00073683
0.000761376
0.000785921
0.000810464
0.000835005
0.000859545
0.000884083
0.00090862
0.000933155
0.000957687
0.000982219
0.00100675
0.00103127
0.0010558
0.00108032
0.00110484
0.00112936
0.00115388
0.00117839
0.00120291
0.00122742
0.00125192
0.00127643
0.00130093
0.00132543
0.00134993
0.00137442
0.00139891
0.0014234
0.00144789
0.00147237
0.00149685
0.00152133
0.00154581
0.00157028
0.00159475
0.00161921
0.00164367
0.00166813
0.00169259
0.00171704
0.00174149
0.00176594
0.00179038
0.00181482
0.00183925
0.00186368
0.00188811
0.00191253
0.00193695
0.00196137
0.00198578
0.00201019
0.00203459
0.00205899
0.00208339
0.00210778
0.00213217
0.00215655
0.00218093
0.0022053
0.00222967
0.00225404
0.0022784
0.00230276
0.00232711
0.00235145
0.0023758
0.00240013
0.00242447
0.00244879
0.00247311
0.00249743
0.00252174
0.00254605
0.00257035
0.00259465
0.00261894
0.00264322
0.0026675
0.00269178
0.00271605
0.00274031
0.00276457
0.00278882
0.00281307
0.00283731
0.00286154
0.00288577
0.00290999
0.00293421
0.00295842
0.00298262
0.00300682
0.00303101
0.00305519
0.00307937
0.00310354
0.00312771
0.00315187
0.00317602
0.00320016
0.0032243
0.00324843
0.00327255
0.00329667
0.00332078
0.00334488
0.00336898
0.00339307
0.00341715
0.00344122
0.00346528
0.00348934
0.00351339
0.00353744
0.00356147
0.0035855
0.00360952
0.00363353
0.00365753
0.00368152
0.00370551
0.00372949
0.00375346
0.00377742
0.00380137
0.00382532
0.00384925
0.00387318
0.0038971
0.00392101
0.00394491
0.0039688
0.00399269
0.00401656
0.00404042
0.00406428
0.00408812
0.00411196
0.00413579
0.0041596
0.00418341
0.00420721
0.004231
0.00425477
0.00427854
0.0043023
0.00432605
0.00434978
0.00437351
0.00439723
0.00442093
0.00444463
0.00446831
0.00449199
0.00451565
0.0045393
0.00456295
0.00458658
0.0046102
0.0046338
0.0046574
0.00468099
0.00470456
0.00472812
0.00475167
0.00477521
0.00479874
0.00482225
0.00484575
0.00486924
0.00489272
0.00491619
0.00493964
0.00496308
0.00498651
0.00500993
0.00503333
0.00505672
0.00508009
0.00510346
0.00512681
0.00515014
0.00517347
0.00519678
0.00522007
0.00524335
0.00526662
0.00528988
0.00531312
0.00533634
0.00535956
0.00538275
0.00540594
0.0054291
0.00545226
0.0054754
0.00549852
0.00552163
0.00554472
0.0055678
0.00559086
0.00561391
0.00563694
0.00565995
0.00568295
0.00570593
0.0057289
0.00575185
0.00577479
0.0057977
0.0058206
0.00584349
0.00586636
0.00588921
0.00591204
0.00593485
0.00595765
0.00598043
0.00600319
0.00602594
0.00604866
0.00607137
0.00609406
0.00611673
0.00613939
0.00616202
0.00618463
0.00620723
0.00622981
0.00625236
0.0062749
0.00629742
0.00631991
0.00634239
0.00636485
0.00638729
0.0064097
0.0064321
0.00645447
0.00647683
0.00649916
0.00652147
0.00654376
0.00656603
0.00658828
0.0066105
0.0066327
0.00665488
0.00667704
0.00669917
0.00672128
0.00674337
0.00676543
0.00678747
0.00680949
0.00683148
0.00685345
0.00687539
0.00689731
0.00691921
0.00694108
0.00696292
0.00698474
0.00700653
0.0070283
0.00705004
0.00707175
0.00709344
0.0071151
0.00713674
0.00715834
0.00717992
0.00720147
0.007223
0.00724449
0.00726596
0.00728739
0.0073088
0.00733018
0.00735153
0.00737285
0.00739414
0.0074154
0.00743662
0.00745782
0.00747899
0.00750012
0.00752122
0.00754229
0.00756333
0.00758433
0.00760531
0.00762624
0.00764715
0.00766802
0.00768885
0.00770966
0.00773042
0.00775115
0.00777185
0.00779251
0.00781313
0.00783371
0.00785426
0.00787477
0.00789525
0.00791568
0.00793608
0.00795643
0.00797675
0.00799703
0.00801726
0.00803746
0.00805761
0.00807773
0.0080978
0.00811783
0.00813781
0.00815776
0.00817765
0.00819751
0.00821732
0.00823708
0.0082568
0.00827647
0.00829609
0.00831567
0.0083352
0.00835468
0.00837411
0.00839349
0.00841283
0.00843211
0.00845134
0.00847051
0.00848964
0.00850871
0.00852773
0.00854669
0.0085656
0.00858445
0.00860325
0.00862199
0.00864067
0.00865929
0.00867785
0.00869636
0.0087148
0.00873318
0.0087515
0.00876975
0.00878794
0.00880607
0.00882412
0.00884212
0.00886004
0.0088779
0.00889568
0.0089134
0.00893104
0.00894862
0.00896611
0.00898354
0.00900088
0.00901824
0.00903429
0.00906575
0.00712867
6.57558e-06
-0.00712172
-0.00906538
-0.00903429
-0.00901822
-0.00900086
-0.00898352
-0.00896609
-0.00894859
-0.00893102
-0.00891338
-0.00889566
-0.00887788
-0.00886002
-0.0088421
-0.0088241
-0.00880604
-0.00878792
-0.00876973
-0.00875147
-0.00873316
-0.00871478
-0.00869633
-0.00867783
-0.00865927
-0.00864065
-0.00862197
-0.00860323
-0.00858443
-0.00856558
-0.00854667
-0.00852771
-0.00850869
-0.00848962
-0.00847049
-0.00845131
-0.00843208
-0.0084128
-0.00839347
-0.00837409
-0.00835466
-0.00833518
-0.00831565
-0.00829607
-0.00827645
-0.00825677
-0.00823706
-0.00821729
-0.00819748
-0.00817763
-0.00815773
-0.00813779
-0.0081178
-0.00809777
-0.0080777
-0.00805759
-0.00803744
-0.00801724
-0.007997
-0.00797673
-0.00795641
-0.00793605
-0.00791566
-0.00789522
-0.00787475
-0.00785424
-0.00783369
-0.0078131
-0.00779248
-0.00777182
-0.00775113
-0.0077304
-0.00770963
-0.00768883
-0.00766799
-0.00764712
-0.00762622
-0.00760528
-0.00758431
-0.00756331
-0.00754227
-0.0075212
-0.0075001
-0.00747896
-0.0074578
-0.0074366
-0.00741537
-0.00739411
-0.00737282
-0.00735151
-0.00733016
-0.00730878
-0.00728737
-0.00726593
-0.00724447
-0.00722297
-0.00720145
-0.0071799
-0.00715832
-0.00713671
-0.00711508
-0.00709342
-0.00707173
-0.00705002
-0.00702828
-0.00700651
-0.00698472
-0.0069629
-0.00694106
-0.00691919
-0.00689729
-0.00687537
-0.00685343
-0.00683146
-0.00680947
-0.00678745
-0.00676541
-0.00674335
-0.00672126
-0.00669915
-0.00667702
-0.00665486
-0.00663268
-0.00661048
-0.00658825
-0.00656601
-0.00654374
-0.00652145
-0.00649914
-0.00647681
-0.00645445
-0.00643208
-0.00640968
-0.00638727
-0.00636483
-0.00634237
-0.00631989
-0.0062974
-0.00627488
-0.00625234
-0.00622979
-0.00620721
-0.00618461
-0.006162
-0.00613937
-0.00611671
-0.00609404
-0.00607135
-0.00604865
-0.00602592
-0.00600317
-0.00598041
-0.00595763
-0.00593484
-0.00591202
-0.00588919
-0.00586634
-0.00584347
-0.00582059
-0.00579769
-0.00577477
-0.00575183
-0.00572888
-0.00570592
-0.00568293
-0.00565994
-0.00563692
-0.00561389
-0.00559084
-0.00556778
-0.0055447
-0.00552161
-0.0054985
-0.00547538
-0.00545224
-0.00542909
-0.00540592
-0.00538274
-0.00535954
-0.00533633
-0.0053131
-0.00528986
-0.00526661
-0.00524334
-0.00522006
-0.00519676
-0.00517345
-0.00515013
-0.00512679
-0.00510344
-0.00508008
-0.0050567
-0.00503331
-0.00500991
-0.0049865
-0.00496307
-0.00493963
-0.00491617
-0.00489271
-0.00486923
-0.00484574
-0.00482224
-0.00479872
-0.0047752
-0.00475166
-0.00472811
-0.00470455
-0.00468097
-0.00465739
-0.00463379
-0.00461018
-0.00458656
-0.00456293
-0.00453929
-0.00451564
-0.00449198
-0.0044683
-0.00444462
-0.00442092
-0.00439722
-0.0043735
-0.00434977
-0.00432604
-0.00430229
-0.00427853
-0.00425476
-0.00423099
-0.0042072
-0.0041834
-0.00415959
-0.00413578
-0.00411195
-0.00408811
-0.00406427
-0.00404041
-0.00401655
-0.00399268
-0.00396879
-0.0039449
-0.003921
-0.00389709
-0.00387317
-0.00384925
-0.00382531
-0.00380137
-0.00377741
-0.00375345
-0.00372948
-0.0037055
-0.00368152
-0.00365752
-0.00363352
-0.00360951
-0.00358549
-0.00356146
-0.00353743
-0.00351339
-0.00348934
-0.00346528
-0.00344121
-0.00341714
-0.00339306
-0.00336897
-0.00334488
-0.00332077
-0.00329666
-0.00327255
-0.00324842
-0.00322429
-0.00320016
-0.00317601
-0.00315186
-0.0031277
-0.00310354
-0.00307937
-0.00305519
-0.003031
-0.00300681
-0.00298262
-0.00295841
-0.0029342
-0.00290999
-0.00288576
-0.00286154
-0.0028373
-0.00281306
-0.00278882
-0.00276456
-0.00274031
-0.00271604
-0.00269177
-0.0026675
-0.00264322
-0.00261894
-0.00259464
-0.00257035
-0.00254605
-0.00252174
-0.00249743
-0.00247311
-0.00244879
-0.00242446
-0.00240013
-0.00237579
-0.00235145
-0.0023271
-0.00230275
-0.0022784
-0.00225404
-0.00222967
-0.0022053
-0.00218093
-0.00215655
-0.00213217
-0.00210778
-0.00208339
-0.00205899
-0.00203459
-0.00201019
-0.00198578
-0.00196137
-0.00193695
-0.00191253
-0.00188811
-0.00186368
-0.00183925
-0.00181481
-0.00179038
-0.00176593
-0.00174149
-0.00171704
-0.00169259
-0.00166813
-0.00164367
-0.00161921
-0.00159475
-0.00157028
-0.00154581
-0.00152133
-0.00149685
-0.00147237
-0.00144789
-0.0014234
-0.00139891
-0.00137442
-0.00134993
-0.00132543
-0.00130093
-0.00127643
-0.00125192
-0.00122742
-0.00120291
-0.00117839
-0.00115388
-0.00112936
-0.00110484
-0.00108032
-0.0010558
-0.00103127
-0.00100675
-0.000982218
-0.000957687
-0.000933154
-0.000908619
-0.000884083
-0.000859545
-0.000835005
-0.000810463
-0.00078592
-0.000761376
-0.00073683
-0.000712282
-0.000687733
-0.000663183
-0.000638632
-0.000614079
-0.000589525
-0.00056497
-0.000540414
-0.000515857
-0.000491299
-0.00046674
-0.00044218
-0.000417619
-0.000393057
-0.000368495
-0.000343932
-0.000319368
-0.000294803
-0.000270239
-0.000245673
-0.000221107
-0.000196541
-0.000171974
-0.000147407
-0.000122839
-9.82719e-05
-7.37041e-05
-4.91361e-05
-2.45681e-05
)
;

boundaryField
{
    left
    {
        type            calculated;
        value           uniform 0;
    }
    right
    {
        type            calculated;
        value           uniform 0;
    }
    frontBackUpDown
    {
        type            empty;
    }
}


// ************************************************************************* //
