/*--------------------------------*- C++ -*----------------------------------*\
| =========                 |                                                 |
| \\      /  F ield         | OpenFOAM: The Open Source CFD Toolbox           |
|  \\    /   O peration     | Version:  2412                                  |
|   \\  /    A nd           | Website:  www.openfoam.com                      |
|    \\/     M anipulation  |                                                 |
\*---------------------------------------------------------------------------*/
FoamFile
{
    version     2.0;
    format      ascii;
    arch        "LSB;label=32;scalar=64";
    class       volVectorField;
    location    "0.7";
    object      U;
}
// * * * * * * * * * * * * * * * * * * * * * * * * * * * * * * * * * * * * * //

dimensions      [0 1 -1 0 0 0 0];

internalField   nonuniform List<vector> 
800
(
(0.00122839 0 0)
(0.0036852 0 0)
(0.006142 0 0)
(0.00859879 0 0)
(0.0110556 0 0)
(0.0135123 0 0)
(0.015969 0 0)
(0.0184257 0 0)
(0.0208824 0 0)
(0.023339 0 0)
(0.0257956 0 0)
(0.0282521 0 0)
(0.0307086 0 0)
(0.033165 0 0)
(0.0356213 0 0)
(0.0380776 0 0)
(0.0405338 0 0)
(0.04299 0 0)
(0.045446 0 0)
(0.047902 0 0)
(0.0503578 0 0)
(0.0528136 0 0)
(0.0552693 0 0)
(0.0577248 0 0)
(0.0601803 0 0)
(0.0626356 0 0)
(0.0650908 0 0)
(0.0675459 0 0)
(0.0700008 0 0)
(0.0724557 0 0)
(0.0749103 0 0)
(0.0773649 0 0)
(0.0798193 0 0)
(0.0822735 0 0)
(0.0847276 0 0)
(0.0871815 0 0)
(0.0896352 0 0)
(0.0920888 0 0)
(0.0945421 0 0)
(0.0969953 0 0)
(0.0994484 0 0)
(0.101901 0 0)
(0.104354 0 0)
(0.106806 0 0)
(0.109258 0 0)
(0.11171 0 0)
(0.114162 0 0)
(0.116614 0 0)
(0.119065 0 0)
(0.121516 0 0)
(0.123967 0 0)
(0.126418 0 0)
(0.128868 0 0)
(0.131318 0 0)
(0.133768 0 0)
(0.136218 0 0)
(0.138667 0 0)
(0.141116 0 0)
(0.143565 0 0)
(0.146013 0 0)
(0.148461 0 0)
(0.150909 0 0)
(0.153357 0 0)
(0.155804 0 0)
(0.158251 0 0)
(0.160698 0 0)
(0.163144 0 0)
(0.165591 0 0)
(0.168036 0 0)
(0.170482 0 0)
(0.172927 0 0)
(0.175371 0 0)
(0.177816 0 0)
(0.18026 0 0)
(0.182704 0 0)
(0.185147 0 0)
(0.18759 0 0)
(0.190032 0 0)
(0.192474 0 0)
(0.194916 0 0)
(0.197358 0 0)
(0.199799 0 0)
(0.202239 0 0)
(0.204679 0 0)
(0.207119 0 0)
(0.209559 0 0)
(0.211998 0 0)
(0.214436 0 0)
(0.216874 0 0)
(0.219312 0 0)
(0.221749 0 0)
(0.224186 0 0)
(0.226622 0 0)
(0.229058 0 0)
(0.231493 0 0)
(0.233928 0 0)
(0.236363 0 0)
(0.238797 0 0)
(0.24123 0 0)
(0.243663 0 0)
(0.246095 0 0)
(0.248527 0 0)
(0.250959 0 0)
(0.25339 0 0)
(0.25582 0 0)
(0.25825 0 0)
(0.26068 0 0)
(0.263108 0 0)
(0.265537 0 0)
(0.267964 0 0)
(0.270392 0 0)
(0.272818 0 0)
(0.275244 0 0)
(0.27767 0 0)
(0.280095 0 0)
(0.282519 0 0)
(0.284943 0 0)
(0.287366 0 0)
(0.289788 0 0)
(0.29221 0 0)
(0.294631 0 0)
(0.297052 0 0)
(0.299472 0 0)
(0.301891 0 0)
(0.30431 0 0)
(0.306728 0 0)
(0.309146 0 0)
(0.311563 0 0)
(0.313979 0 0)
(0.316394 0 0)
(0.318809 0 0)
(0.321223 0 0)
(0.323637 0 0)
(0.326049 0 0)
(0.328461 0 0)
(0.330873 0 0)
(0.333283 0 0)
(0.335693 0 0)
(0.338102 0 0)
(0.340511 0 0)
(0.342918 0 0)
(0.345325 0 0)
(0.347732 0 0)
(0.350137 0 0)
(0.352542 0 0)
(0.354945 0 0)
(0.357349 0 0)
(0.359751 0 0)
(0.362152 0 0)
(0.364553 0 0)
(0.366953 0 0)
(0.369352 0 0)
(0.37175 0 0)
(0.374148 0 0)
(0.376544 0 0)
(0.37894 0 0)
(0.381335 0 0)
(0.383729 0 0)
(0.386122 0 0)
(0.388514 0 0)
(0.390906 0 0)
(0.393296 0 0)
(0.395686 0 0)
(0.398075 0 0)
(0.400462 0 0)
(0.402849 0 0)
(0.405235 0 0)
(0.40762 0 0)
(0.410004 0 0)
(0.412388 0 0)
(0.41477 0 0)
(0.417151 0 0)
(0.419531 0 0)
(0.42191 0 0)
(0.424289 0 0)
(0.426666 0 0)
(0.429042 0 0)
(0.431418 0 0)
(0.433792 0 0)
(0.436165 0 0)
(0.438537 0 0)
(0.440908 0 0)
(0.443278 0 0)
(0.445648 0 0)
(0.448015 0 0)
(0.450382 0 0)
(0.452748 0 0)
(0.455113 0 0)
(0.457476 0 0)
(0.459839 0 0)
(0.4622 0 0)
(0.464561 0 0)
(0.46692 0 0)
(0.469278 0 0)
(0.471634 0 0)
(0.47399 0 0)
(0.476344 0 0)
(0.478698 0 0)
(0.48105 0 0)
(0.483401 0 0)
(0.48575 0 0)
(0.488099 0 0)
(0.490446 0 0)
(0.492792 0 0)
(0.495136 0 0)
(0.49748 0 0)
(0.499822 0 0)
(0.502163 0 0)
(0.504503 0 0)
(0.506841 0 0)
(0.509178 0 0)
(0.511514 0 0)
(0.513848 0 0)
(0.516181 0 0)
(0.518513 0 0)
(0.520843 0 0)
(0.523172 0 0)
(0.525499 0 0)
(0.527825 0 0)
(0.53015 0 0)
(0.532473 0 0)
(0.534795 0 0)
(0.537116 0 0)
(0.539435 0 0)
(0.541752 0 0)
(0.544068 0 0)
(0.546383 0 0)
(0.548696 0 0)
(0.551008 0 0)
(0.553318 0 0)
(0.555626 0 0)
(0.557933 0 0)
(0.560239 0 0)
(0.562543 0 0)
(0.564845 0 0)
(0.567146 0 0)
(0.569445 0 0)
(0.571742 0 0)
(0.574038 0 0)
(0.576332 0 0)
(0.578625 0 0)
(0.580916 0 0)
(0.583205 0 0)
(0.585493 0 0)
(0.587778 0 0)
(0.590063 0 0)
(0.592345 0 0)
(0.594626 0 0)
(0.596905 0 0)
(0.599182 0 0)
(0.601457 0 0)
(0.603731 0 0)
(0.606002 0 0)
(0.608272 0 0)
(0.61054 0 0)
(0.612806 0 0)
(0.615071 0 0)
(0.617333 0 0)
(0.619594 0 0)
(0.621852 0 0)
(0.624109 0 0)
(0.626364 0 0)
(0.628616 0 0)
(0.630867 0 0)
(0.633116 0 0)
(0.635363 0 0)
(0.637607 0 0)
(0.63985 0 0)
(0.642091 0 0)
(0.644329 0 0)
(0.646566 0 0)
(0.6488 0 0)
(0.651032 0 0)
(0.653262 0 0)
(0.65549 0 0)
(0.657716 0 0)
(0.659939 0 0)
(0.662161 0 0)
(0.66438 0 0)
(0.666596 0 0)
(0.668811 0 0)
(0.671023 0 0)
(0.673233 0 0)
(0.675441 0 0)
(0.677646 0 0)
(0.679849 0 0)
(0.682049 0 0)
(0.684247 0 0)
(0.686443 0 0)
(0.688636 0 0)
(0.690827 0 0)
(0.693015 0 0)
(0.695201 0 0)
(0.697384 0 0)
(0.699564 0 0)
(0.701742 0 0)
(0.703918 0 0)
(0.70609 0 0)
(0.70826 0 0)
(0.710428 0 0)
(0.712593 0 0)
(0.714755 0 0)
(0.716914 0 0)
(0.71907 0 0)
(0.721224 0 0)
(0.723375 0 0)
(0.725523 0 0)
(0.727668 0 0)
(0.72981 0 0)
(0.73195 0 0)
(0.734086 0 0)
(0.73622 0 0)
(0.73835 0 0)
(0.740477 0 0)
(0.742602 0 0)
(0.744723 0 0)
(0.746841 0 0)
(0.748956 0 0)
(0.751068 0 0)
(0.753177 0 0)
(0.755282 0 0)
(0.757384 0 0)
(0.759483 0 0)
(0.761578 0 0)
(0.76367 0 0)
(0.765759 0 0)
(0.767845 0 0)
(0.769926 0 0)
(0.772005 0 0)
(0.77408 0 0)
(0.776151 0 0)
(0.778219 0 0)
(0.780283 0 0)
(0.782343 0 0)
(0.7844 0 0)
(0.786453 0 0)
(0.788502 0 0)
(0.790547 0 0)
(0.792589 0 0)
(0.794626 0 0)
(0.79666 0 0)
(0.79869 0 0)
(0.800716 0 0)
(0.802737 0 0)
(0.804755 0 0)
(0.806768 0 0)
(0.808777 0 0)
(0.810782 0 0)
(0.812783 0 0)
(0.814779 0 0)
(0.816772 0 0)
(0.818759 0 0)
(0.820742 0 0)
(0.822721 0 0)
(0.824695 0 0)
(0.826665 0 0)
(0.828629 0 0)
(0.830589 0 0)
(0.832545 0 0)
(0.834495 0 0)
(0.836441 0 0)
(0.838382 0 0)
(0.840317 0 0)
(0.842248 0 0)
(0.844173 0 0)
(0.846094 0 0)
(0.848009 0 0)
(0.849919 0 0)
(0.851823 0 0)
(0.853723 0 0)
(0.855616 0 0)
(0.857504 0 0)
(0.859387 0 0)
(0.861263 0 0)
(0.863134 0 0)
(0.865 0 0)
(0.866859 0 0)
(0.868712 0 0)
(0.870559 0 0)
(0.8724 0 0)
(0.874235 0 0)
(0.876064 0 0)
(0.877886 0 0)
(0.879702 0 0)
(0.881511 0 0)
(0.883314 0 0)
(0.88511 0 0)
(0.886899 0 0)
(0.888681 0 0)
(0.890456 0 0)
(0.892224 0 0)
(0.893985 0 0)
(0.895738 0 0)
(0.897484 0 0)
(0.899223 0 0)
(0.900953 0 0)
(0.902695 0 0)
(0.904162 0 0)
(0.908987 0 0)
(0.516746 0 0)
(-0.515431 0 0)
(-0.908912 0 0)
(-0.904165 0 0)
(-0.902693 0 0)
(-0.900951 0 0)
(-0.899221 0 0)
(-0.897482 0 0)
(-0.895736 0 0)
(-0.893983 0 0)
(-0.892222 0 0)
(-0.890454 0 0)
(-0.888679 0 0)
(-0.886896 0 0)
(-0.885107 0 0)
(-0.883312 0 0)
(-0.881509 0 0)
(-0.8797 0 0)
(-0.877884 0 0)
(-0.876062 0 0)
(-0.874233 0 0)
(-0.872398 0 0)
(-0.870557 0 0)
(-0.86871 0 0)
(-0.866857 0 0)
(-0.864997 0 0)
(-0.863132 0 0)
(-0.861261 0 0)
(-0.859384 0 0)
(-0.857502 0 0)
(-0.855614 0 0)
(-0.85372 0 0)
(-0.851821 0 0)
(-0.849917 0 0)
(-0.848007 0 0)
(-0.846092 0 0)
(-0.844171 0 0)
(-0.842246 0 0)
(-0.840315 0 0)
(-0.838379 0 0)
(-0.836439 0 0)
(-0.834493 0 0)
(-0.832542 0 0)
(-0.830587 0 0)
(-0.828627 0 0)
(-0.826662 0 0)
(-0.824693 0 0)
(-0.822719 0 0)
(-0.82074 0 0)
(-0.818757 0 0)
(-0.816769 0 0)
(-0.814777 0 0)
(-0.812781 0 0)
(-0.81078 0 0)
(-0.808775 0 0)
(-0.806766 0 0)
(-0.804752 0 0)
(-0.802735 0 0)
(-0.800713 0 0)
(-0.798687 0 0)
(-0.796658 0 0)
(-0.794624 0 0)
(-0.792586 0 0)
(-0.790545 0 0)
(-0.788499 0 0)
(-0.78645 0 0)
(-0.784397 0 0)
(-0.782341 0 0)
(-0.78028 0 0)
(-0.778216 0 0)
(-0.776148 0 0)
(-0.774077 0 0)
(-0.772002 0 0)
(-0.769924 0 0)
(-0.767842 0 0)
(-0.765757 0 0)
(-0.763668 0 0)
(-0.761576 0 0)
(-0.75948 0 0)
(-0.757382 0 0)
(-0.75528 0 0)
(-0.753174 0 0)
(-0.751066 0 0)
(-0.748954 0 0)
(-0.746839 0 0)
(-0.744721 0 0)
(-0.742599 0 0)
(-0.740475 0 0)
(-0.738348 0 0)
(-0.736217 0 0)
(-0.734084 0 0)
(-0.731947 0 0)
(-0.729808 0 0)
(-0.727666 0 0)
(-0.725521 0 0)
(-0.723373 0 0)
(-0.721222 0 0)
(-0.719068 0 0)
(-0.716912 0 0)
(-0.714752 0 0)
(-0.71259 0 0)
(-0.710426 0 0)
(-0.708258 0 0)
(-0.706088 0 0)
(-0.703915 0 0)
(-0.70174 0 0)
(-0.699562 0 0)
(-0.697381 0 0)
(-0.695198 0 0)
(-0.693013 0 0)
(-0.690824 0 0)
(-0.688634 0 0)
(-0.686441 0 0)
(-0.684245 0 0)
(-0.682047 0 0)
(-0.679847 0 0)
(-0.677644 0 0)
(-0.675439 0 0)
(-0.673231 0 0)
(-0.671021 0 0)
(-0.668809 0 0)
(-0.666594 0 0)
(-0.664378 0 0)
(-0.662159 0 0)
(-0.659937 0 0)
(-0.657714 0 0)
(-0.655488 0 0)
(-0.65326 0 0)
(-0.65103 0 0)
(-0.648798 0 0)
(-0.646564 0 0)
(-0.644327 0 0)
(-0.642089 0 0)
(-0.639848 0 0)
(-0.637605 0 0)
(-0.635361 0 0)
(-0.633114 0 0)
(-0.630865 0 0)
(-0.628614 0 0)
(-0.626362 0 0)
(-0.624107 0 0)
(-0.62185 0 0)
(-0.619592 0 0)
(-0.617331 0 0)
(-0.615069 0 0)
(-0.612804 0 0)
(-0.610538 0 0)
(-0.60827 0 0)
(-0.606 0 0)
(-0.603729 0 0)
(-0.601455 0 0)
(-0.59918 0 0)
(-0.596903 0 0)
(-0.594624 0 0)
(-0.592343 0 0)
(-0.590061 0 0)
(-0.587777 0 0)
(-0.585491 0 0)
(-0.583203 0 0)
(-0.580914 0 0)
(-0.578623 0 0)
(-0.576331 0 0)
(-0.574036 0 0)
(-0.571741 0 0)
(-0.569443 0 0)
(-0.567144 0 0)
(-0.564843 0 0)
(-0.562541 0 0)
(-0.560237 0 0)
(-0.557932 0 0)
(-0.555625 0 0)
(-0.553316 0 0)
(-0.551006 0 0)
(-0.548694 0 0)
(-0.546381 0 0)
(-0.544067 0 0)
(-0.541751 0 0)
(-0.539433 0 0)
(-0.537114 0 0)
(-0.534794 0 0)
(-0.532472 0 0)
(-0.530149 0 0)
(-0.527824 0 0)
(-0.525498 0 0)
(-0.52317 0 0)
(-0.520841 0 0)
(-0.518511 0 0)
(-0.516179 0 0)
(-0.513846 0 0)
(-0.511512 0 0)
(-0.509176 0 0)
(-0.506839 0 0)
(-0.504501 0 0)
(-0.502162 0 0)
(-0.499821 0 0)
(-0.497479 0 0)
(-0.495135 0 0)
(-0.49279 0 0)
(-0.490444 0 0)
(-0.488097 0 0)
(-0.485749 0 0)
(-0.483399 0 0)
(-0.481048 0 0)
(-0.478696 0 0)
(-0.476343 0 0)
(-0.473989 0 0)
(-0.471633 0 0)
(-0.469276 0 0)
(-0.466918 0 0)
(-0.464559 0 0)
(-0.462199 0 0)
(-0.459838 0 0)
(-0.457475 0 0)
(-0.455112 0 0)
(-0.452747 0 0)
(-0.450381 0 0)
(-0.448014 0 0)
(-0.445646 0 0)
(-0.443277 0 0)
(-0.440907 0 0)
(-0.438536 0 0)
(-0.436164 0 0)
(-0.433791 0 0)
(-0.431417 0 0)
(-0.429041 0 0)
(-0.426665 0 0)
(-0.424288 0 0)
(-0.421909 0 0)
(-0.41953 0 0)
(-0.41715 0 0)
(-0.414769 0 0)
(-0.412387 0 0)
(-0.410003 0 0)
(-0.407619 0 0)
(-0.405234 0 0)
(-0.402848 0 0)
(-0.400461 0 0)
(-0.398074 0 0)
(-0.395685 0 0)
(-0.393295 0 0)
(-0.390905 0 0)
(-0.388513 0 0)
(-0.386121 0 0)
(-0.383728 0 0)
(-0.381334 0 0)
(-0.378939 0 0)
(-0.376543 0 0)
(-0.374147 0 0)
(-0.371749 0 0)
(-0.369351 0 0)
(-0.366952 0 0)
(-0.364552 0 0)
(-0.362152 0 0)
(-0.35975 0 0)
(-0.357348 0 0)
(-0.354945 0 0)
(-0.352541 0 0)
(-0.350136 0 0)
(-0.347731 0 0)
(-0.345325 0 0)
(-0.342918 0 0)
(-0.34051 0 0)
(-0.338102 0 0)
(-0.335693 0 0)
(-0.333283 0 0)
(-0.330872 0 0)
(-0.328461 0 0)
(-0.326049 0 0)
(-0.323636 0 0)
(-0.321223 0 0)
(-0.318808 0 0)
(-0.316394 0 0)
(-0.313978 0 0)
(-0.311562 0 0)
(-0.309145 0 0)
(-0.306728 0 0)
(-0.30431 0 0)
(-0.301891 0 0)
(-0.299472 0 0)
(-0.297051 0 0)
(-0.294631 0 0)
(-0.29221 0 0)
(-0.289788 0 0)
(-0.287365 0 0)
(-0.284942 0 0)
(-0.282518 0 0)
(-0.280094 0 0)
(-0.277669 0 0)
(-0.275244 0 0)
(-0.272818 0 0)
(-0.270391 0 0)
(-0.267964 0 0)
(-0.265536 0 0)
(-0.263108 0 0)
(-0.260679 0 0)
(-0.25825 0 0)
(-0.25582 0 0)
(-0.253389 0 0)
(-0.250959 0 0)
(-0.248527 0 0)
(-0.246095 0 0)
(-0.243663 0 0)
(-0.24123 0 0)
(-0.238796 0 0)
(-0.236362 0 0)
(-0.233928 0 0)
(-0.231493 0 0)
(-0.229058 0 0)
(-0.226622 0 0)
(-0.224185 0 0)
(-0.221749 0 0)
(-0.219312 0 0)
(-0.216874 0 0)
(-0.214436 0 0)
(-0.211997 0 0)
(-0.209558 0 0)
(-0.207119 0 0)
(-0.204679 0 0)
(-0.202239 0 0)
(-0.199798 0 0)
(-0.197357 0 0)
(-0.194916 0 0)
(-0.192474 0 0)
(-0.190032 0 0)
(-0.187589 0 0)
(-0.185147 0 0)
(-0.182703 0 0)
(-0.18026 0 0)
(-0.177816 0 0)
(-0.175371 0 0)
(-0.172927 0 0)
(-0.170481 0 0)
(-0.168036 0 0)
(-0.16559 0 0)
(-0.163144 0 0)
(-0.160698 0 0)
(-0.158251 0 0)
(-0.155804 0 0)
(-0.153357 0 0)
(-0.150909 0 0)
(-0.148461 0 0)
(-0.146013 0 0)
(-0.143565 0 0)
(-0.141116 0 0)
(-0.138667 0 0)
(-0.136217 0 0)
(-0.133768 0 0)
(-0.131318 0 0)
(-0.128868 0 0)
(-0.126418 0 0)
(-0.123967 0 0)
(-0.121516 0 0)
(-0.119065 0 0)
(-0.116614 0 0)
(-0.114162 0 0)
(-0.11171 0 0)
(-0.109258 0 0)
(-0.106806 0 0)
(-0.104354 0 0)
(-0.101901 0 0)
(-0.0994483 0 0)
(-0.0969953 0 0)
(-0.0945421 0 0)
(-0.0920887 0 0)
(-0.0896351 0 0)
(-0.0871814 0 0)
(-0.0847275 0 0)
(-0.0822734 0 0)
(-0.0798192 0 0)
(-0.0773648 0 0)
(-0.0749103 0 0)
(-0.0724556 0 0)
(-0.0700008 0 0)
(-0.0675459 0 0)
(-0.0650908 0 0)
(-0.0626356 0 0)
(-0.0601802 0 0)
(-0.0577248 0 0)
(-0.0552692 0 0)
(-0.0528136 0 0)
(-0.0503578 0 0)
(-0.0479019 0 0)
(-0.045446 0 0)
(-0.0429899 0 0)
(-0.0405338 0 0)
(-0.0380776 0 0)
(-0.0356213 0 0)
(-0.033165 0 0)
(-0.0307086 0 0)
(-0.0282521 0 0)
(-0.0257956 0 0)
(-0.023339 0 0)
(-0.0208824 0 0)
(-0.0184257 0 0)
(-0.015969 0 0)
(-0.0135123 0 0)
(-0.0110556 0 0)
(-0.0085988 0 0)
(-0.00614201 0 0)
(-0.00368521 0 0)
(-0.0012284 0 0)
)
;

boundaryField
{
    left
    {
        type            fixedValue;
        value           uniform (0 0 0);
    }
    right
    {
        type            fixedValue;
        value           uniform (0 0 0);
    }
    frontBackUpDown
    {
        type            empty;
    }
}


// ************************************************************************* //
