/*--------------------------------*- C++ -*----------------------------------*\
| =========                 |                                                 |
| \\      /  F ield         | OpenFOAM: The Open Source CFD Toolbox           |
|  \\    /   O peration     | Version:  2412                                  |
|   \\  /    A nd           | Website:  www.openfoam.com                      |
|    \\/     M anipulation  |                                                 |
\*---------------------------------------------------------------------------*/
FoamFile
{
    version     2.0;
    format      ascii;
    arch        "LSB;label=32;scalar=64";
    class       volVectorField;
    location    "0.7";
    object      U_0_0_0;
}
// * * * * * * * * * * * * * * * * * * * * * * * * * * * * * * * * * * * * * //

dimensions      [0 1 -1 0 0 0 0];

internalField   nonuniform List<vector> 
800
(
(0.0012302 0 0)
(0.00369063 0 0)
(0.00615105 0 0)
(0.00861146 0 0)
(0.0110718 0 0)
(0.0135322 0 0)
(0.0159926 0 0)
(0.0184529 0 0)
(0.0209132 0 0)
(0.0233734 0 0)
(0.0258336 0 0)
(0.0282937 0 0)
(0.0307538 0 0)
(0.0332138 0 0)
(0.0356738 0 0)
(0.0381337 0 0)
(0.0405935 0 0)
(0.0430533 0 0)
(0.0455129 0 0)
(0.0479725 0 0)
(0.050432 0 0)
(0.0528914 0 0)
(0.0553506 0 0)
(0.0578098 0 0)
(0.0602689 0 0)
(0.0627278 0 0)
(0.0651866 0 0)
(0.0676453 0 0)
(0.0701039 0 0)
(0.0725623 0 0)
(0.0750206 0 0)
(0.0774787 0 0)
(0.0799367 0 0)
(0.0823946 0 0)
(0.0848522 0 0)
(0.0873097 0 0)
(0.0897671 0 0)
(0.0922242 0 0)
(0.0946812 0 0)
(0.097138 0 0)
(0.0995946 0 0)
(0.102051 0 0)
(0.104507 0 0)
(0.106963 0 0)
(0.109419 0 0)
(0.111875 0 0)
(0.11433 0 0)
(0.116785 0 0)
(0.11924 0 0)
(0.121695 0 0)
(0.124149 0 0)
(0.126603 0 0)
(0.129057 0 0)
(0.131511 0 0)
(0.133965 0 0)
(0.136418 0 0)
(0.138871 0 0)
(0.141323 0 0)
(0.143776 0 0)
(0.146228 0 0)
(0.148679 0 0)
(0.151131 0 0)
(0.153582 0 0)
(0.156033 0 0)
(0.158484 0 0)
(0.160934 0 0)
(0.163384 0 0)
(0.165833 0 0)
(0.168283 0 0)
(0.170732 0 0)
(0.17318 0 0)
(0.175629 0 0)
(0.178076 0 0)
(0.180524 0 0)
(0.182971 0 0)
(0.185418 0 0)
(0.187865 0 0)
(0.190311 0 0)
(0.192756 0 0)
(0.195202 0 0)
(0.197647 0 0)
(0.200091 0 0)
(0.202535 0 0)
(0.204979 0 0)
(0.207422 0 0)
(0.209865 0 0)
(0.212308 0 0)
(0.21475 0 0)
(0.217191 0 0)
(0.219632 0 0)
(0.222073 0 0)
(0.224513 0 0)
(0.226953 0 0)
(0.229392 0 0)
(0.231831 0 0)
(0.23427 0 0)
(0.236708 0 0)
(0.239145 0 0)
(0.241582 0 0)
(0.244018 0 0)
(0.246454 0 0)
(0.24889 0 0)
(0.251325 0 0)
(0.253759 0 0)
(0.256193 0 0)
(0.258626 0 0)
(0.261059 0 0)
(0.263492 0 0)
(0.265923 0 0)
(0.268354 0 0)
(0.270785 0 0)
(0.273215 0 0)
(0.275645 0 0)
(0.278073 0 0)
(0.280502 0 0)
(0.28293 0 0)
(0.285357 0 0)
(0.287783 0 0)
(0.290209 0 0)
(0.292634 0 0)
(0.295059 0 0)
(0.297483 0 0)
(0.299907 0 0)
(0.302329 0 0)
(0.304752 0 0)
(0.307173 0 0)
(0.309594 0 0)
(0.312014 0 0)
(0.314434 0 0)
(0.316853 0 0)
(0.319271 0 0)
(0.321688 0 0)
(0.324105 0 0)
(0.326521 0 0)
(0.328936 0 0)
(0.331351 0 0)
(0.333765 0 0)
(0.336178 0 0)
(0.338591 0 0)
(0.341002 0 0)
(0.343413 0 0)
(0.345824 0 0)
(0.348233 0 0)
(0.350642 0 0)
(0.35305 0 0)
(0.355457 0 0)
(0.357863 0 0)
(0.360269 0 0)
(0.362674 0 0)
(0.365078 0 0)
(0.367481 0 0)
(0.369883 0 0)
(0.372285 0 0)
(0.374686 0 0)
(0.377085 0 0)
(0.379484 0 0)
(0.381882 0 0)
(0.38428 0 0)
(0.386676 0 0)
(0.389072 0 0)
(0.391466 0 0)
(0.39386 0 0)
(0.396253 0 0)
(0.398645 0 0)
(0.401036 0 0)
(0.403426 0 0)
(0.405815 0 0)
(0.408203 0 0)
(0.410591 0 0)
(0.412977 0 0)
(0.415362 0 0)
(0.417747 0 0)
(0.42013 0 0)
(0.422512 0 0)
(0.424894 0 0)
(0.427274 0 0)
(0.429654 0 0)
(0.432032 0 0)
(0.434409 0 0)
(0.436786 0 0)
(0.439161 0 0)
(0.441535 0 0)
(0.443908 0 0)
(0.446281 0 0)
(0.448652 0 0)
(0.451022 0 0)
(0.45339 0 0)
(0.455758 0 0)
(0.458125 0 0)
(0.46049 0 0)
(0.462855 0 0)
(0.465218 0 0)
(0.46758 0 0)
(0.469941 0 0)
(0.472301 0 0)
(0.474659 0 0)
(0.477017 0 0)
(0.479373 0 0)
(0.481728 0 0)
(0.484082 0 0)
(0.486435 0 0)
(0.488786 0 0)
(0.491136 0 0)
(0.493485 0 0)
(0.495833 0 0)
(0.498179 0 0)
(0.500524 0 0)
(0.502868 0 0)
(0.50521 0 0)
(0.507551 0 0)
(0.509891 0 0)
(0.51223 0 0)
(0.514567 0 0)
(0.516903 0 0)
(0.519237 0 0)
(0.521571 0 0)
(0.523902 0 0)
(0.526233 0 0)
(0.528562 0 0)
(0.530889 0 0)
(0.533215 0 0)
(0.53554 0 0)
(0.537863 0 0)
(0.540185 0 0)
(0.542505 0 0)
(0.544824 0 0)
(0.547141 0 0)
(0.549457 0 0)
(0.551771 0 0)
(0.554084 0 0)
(0.556395 0 0)
(0.558705 0 0)
(0.561013 0 0)
(0.56332 0 0)
(0.565625 0 0)
(0.567928 0 0)
(0.57023 0 0)
(0.57253 0 0)
(0.574828 0 0)
(0.577125 0 0)
(0.57942 0 0)
(0.581714 0 0)
(0.584006 0 0)
(0.586296 0 0)
(0.588584 0 0)
(0.590871 0 0)
(0.593156 0 0)
(0.595439 0 0)
(0.59772 0 0)
(0.6 0 0)
(0.602278 0 0)
(0.604554 0 0)
(0.606828 0 0)
(0.6091 0 0)
(0.61137 0 0)
(0.613639 0 0)
(0.615906 0 0)
(0.61817 0 0)
(0.620433 0 0)
(0.622694 0 0)
(0.624953 0 0)
(0.62721 0 0)
(0.629465 0 0)
(0.631718 0 0)
(0.63397 0 0)
(0.636219 0 0)
(0.638465 0 0)
(0.64071 0 0)
(0.642953 0 0)
(0.645194 0 0)
(0.647433 0 0)
(0.649669 0 0)
(0.651903 0 0)
(0.654136 0 0)
(0.656366 0 0)
(0.658594 0 0)
(0.660819 0 0)
(0.663042 0 0)
(0.665264 0 0)
(0.667482 0 0)
(0.669699 0 0)
(0.671913 0 0)
(0.674125 0 0)
(0.676335 0 0)
(0.678542 0 0)
(0.680747 0 0)
(0.682949 0 0)
(0.685149 0 0)
(0.687346 0 0)
(0.689541 0 0)
(0.691734 0 0)
(0.693924 0 0)
(0.696112 0 0)
(0.698296 0 0)
(0.700479 0 0)
(0.702659 0 0)
(0.704836 0 0)
(0.70701 0 0)
(0.709182 0 0)
(0.711351 0 0)
(0.713517 0 0)
(0.715681 0 0)
(0.717842 0 0)
(0.72 0 0)
(0.722155 0 0)
(0.724308 0 0)
(0.726457 0 0)
(0.728604 0 0)
(0.730748 0 0)
(0.732888 0 0)
(0.735026 0 0)
(0.737161 0 0)
(0.739293 0 0)
(0.741422 0 0)
(0.743547 0 0)
(0.74567 0 0)
(0.747789 0 0)
(0.749906 0 0)
(0.752019 0 0)
(0.754129 0 0)
(0.756235 0 0)
(0.758338 0 0)
(0.760438 0 0)
(0.762535 0 0)
(0.764628 0 0)
(0.766718 0 0)
(0.768804 0 0)
(0.770887 0 0)
(0.772966 0 0)
(0.775042 0 0)
(0.777114 0 0)
(0.779183 0 0)
(0.781248 0 0)
(0.783309 0 0)
(0.785367 0 0)
(0.78742 0 0)
(0.78947 0 0)
(0.791516 0 0)
(0.793559 0 0)
(0.795597 0 0)
(0.797631 0 0)
(0.799661 0 0)
(0.801688 0 0)
(0.80371 0 0)
(0.805728 0 0)
(0.807742 0 0)
(0.809751 0 0)
(0.811757 0 0)
(0.813758 0 0)
(0.815754 0 0)
(0.817747 0 0)
(0.819734 0 0)
(0.821718 0 0)
(0.823696 0 0)
(0.825671 0 0)
(0.82764 0 0)
(0.829605 0 0)
(0.831565 0 0)
(0.83352 0 0)
(0.835471 0 0)
(0.837416 0 0)
(0.839356 0 0)
(0.841292 0 0)
(0.843222 0 0)
(0.845147 0 0)
(0.847067 0 0)
(0.848982 0 0)
(0.850891 0 0)
(0.852795 0 0)
(0.854694 0 0)
(0.856587 0 0)
(0.858474 0 0)
(0.860356 0 0)
(0.862232 0 0)
(0.864102 0 0)
(0.865966 0 0)
(0.867824 0 0)
(0.869676 0 0)
(0.871522 0 0)
(0.873362 0 0)
(0.875196 0 0)
(0.877023 0 0)
(0.878844 0 0)
(0.880658 0 0)
(0.882466 0 0)
(0.884267 0 0)
(0.886061 0 0)
(0.887849 0 0)
(0.889629 0 0)
(0.891402 0 0)
(0.893168 0 0)
(0.894927 0 0)
(0.896679 0 0)
(0.898423 0 0)
(0.900159 0 0)
(0.901886 0 0)
(0.903627 0 0)
(0.905074 0 0)
(0.910156 0 0)
(0.517796 0 0)
(-0.51648 0 0)
(-0.910082 0 0)
(-0.905076 0 0)
(-0.903625 0 0)
(-0.901884 0 0)
(-0.900157 0 0)
(-0.89842 0 0)
(-0.896676 0 0)
(-0.894925 0 0)
(-0.893166 0 0)
(-0.8914 0 0)
(-0.889627 0 0)
(-0.887847 0 0)
(-0.886059 0 0)
(-0.884265 0 0)
(-0.882464 0 0)
(-0.880656 0 0)
(-0.878842 0 0)
(-0.877021 0 0)
(-0.875194 0 0)
(-0.87336 0 0)
(-0.87152 0 0)
(-0.869674 0 0)
(-0.867822 0 0)
(-0.865964 0 0)
(-0.864099 0 0)
(-0.862229 0 0)
(-0.860353 0 0)
(-0.858472 0 0)
(-0.856584 0 0)
(-0.854691 0 0)
(-0.852793 0 0)
(-0.850889 0 0)
(-0.84898 0 0)
(-0.847065 0 0)
(-0.845145 0 0)
(-0.84322 0 0)
(-0.841289 0 0)
(-0.839354 0 0)
(-0.837414 0 0)
(-0.835468 0 0)
(-0.833518 0 0)
(-0.831563 0 0)
(-0.829602 0 0)
(-0.827638 0 0)
(-0.825668 0 0)
(-0.823694 0 0)
(-0.821715 0 0)
(-0.819732 0 0)
(-0.817744 0 0)
(-0.815752 0 0)
(-0.813755 0 0)
(-0.811754 0 0)
(-0.809749 0 0)
(-0.807739 0 0)
(-0.805725 0 0)
(-0.803707 0 0)
(-0.801685 0 0)
(-0.799659 0 0)
(-0.797629 0 0)
(-0.795594 0 0)
(-0.793556 0 0)
(-0.791514 0 0)
(-0.789468 0 0)
(-0.787418 0 0)
(-0.785364 0 0)
(-0.783307 0 0)
(-0.781246 0 0)
(-0.779181 0 0)
(-0.777112 0 0)
(-0.77504 0 0)
(-0.772964 0 0)
(-0.770885 0 0)
(-0.768802 0 0)
(-0.766716 0 0)
(-0.764626 0 0)
(-0.762533 0 0)
(-0.760436 0 0)
(-0.758336 0 0)
(-0.756233 0 0)
(-0.754126 0 0)
(-0.752016 0 0)
(-0.749903 0 0)
(-0.747787 0 0)
(-0.745668 0 0)
(-0.743545 0 0)
(-0.741419 0 0)
(-0.739291 0 0)
(-0.737159 0 0)
(-0.735024 0 0)
(-0.732886 0 0)
(-0.730745 0 0)
(-0.728602 0 0)
(-0.726455 0 0)
(-0.724305 0 0)
(-0.722153 0 0)
(-0.719998 0 0)
(-0.71784 0 0)
(-0.715679 0 0)
(-0.713515 0 0)
(-0.711349 0 0)
(-0.70918 0 0)
(-0.707008 0 0)
(-0.704833 0 0)
(-0.702656 0 0)
(-0.700477 0 0)
(-0.698294 0 0)
(-0.696109 0 0)
(-0.693922 0 0)
(-0.691732 0 0)
(-0.689539 0 0)
(-0.687344 0 0)
(-0.685147 0 0)
(-0.682947 0 0)
(-0.680744 0 0)
(-0.67854 0 0)
(-0.676332 0 0)
(-0.674123 0 0)
(-0.671911 0 0)
(-0.669697 0 0)
(-0.66748 0 0)
(-0.665261 0 0)
(-0.66304 0 0)
(-0.660817 0 0)
(-0.658591 0 0)
(-0.656364 0 0)
(-0.654134 0 0)
(-0.651901 0 0)
(-0.649667 0 0)
(-0.647431 0 0)
(-0.645192 0 0)
(-0.642951 0 0)
(-0.640708 0 0)
(-0.638463 0 0)
(-0.636217 0 0)
(-0.633968 0 0)
(-0.631716 0 0)
(-0.629463 0 0)
(-0.627208 0 0)
(-0.624951 0 0)
(-0.622692 0 0)
(-0.620431 0 0)
(-0.618169 0 0)
(-0.615904 0 0)
(-0.613637 0 0)
(-0.611369 0 0)
(-0.609098 0 0)
(-0.606826 0 0)
(-0.604552 0 0)
(-0.602276 0 0)
(-0.599998 0 0)
(-0.597718 0 0)
(-0.595437 0 0)
(-0.593154 0 0)
(-0.590869 0 0)
(-0.588582 0 0)
(-0.586294 0 0)
(-0.584004 0 0)
(-0.581712 0 0)
(-0.579419 0 0)
(-0.577123 0 0)
(-0.574827 0 0)
(-0.572528 0 0)
(-0.570228 0 0)
(-0.567926 0 0)
(-0.565623 0 0)
(-0.563318 0 0)
(-0.561011 0 0)
(-0.558703 0 0)
(-0.556394 0 0)
(-0.554082 0 0)
(-0.55177 0 0)
(-0.549455 0 0)
(-0.54714 0 0)
(-0.544822 0 0)
(-0.542504 0 0)
(-0.540183 0 0)
(-0.537862 0 0)
(-0.535538 0 0)
(-0.533214 0 0)
(-0.530888 0 0)
(-0.52856 0 0)
(-0.526231 0 0)
(-0.523901 0 0)
(-0.521569 0 0)
(-0.519236 0 0)
(-0.516901 0 0)
(-0.514566 0 0)
(-0.512228 0 0)
(-0.50989 0 0)
(-0.50755 0 0)
(-0.505209 0 0)
(-0.502866 0 0)
(-0.500523 0 0)
(-0.498178 0 0)
(-0.495831 0 0)
(-0.493484 0 0)
(-0.491135 0 0)
(-0.488785 0 0)
(-0.486433 0 0)
(-0.484081 0 0)
(-0.481727 0 0)
(-0.479372 0 0)
(-0.477016 0 0)
(-0.474658 0 0)
(-0.4723 0 0)
(-0.46994 0 0)
(-0.467579 0 0)
(-0.465217 0 0)
(-0.462853 0 0)
(-0.460489 0 0)
(-0.458124 0 0)
(-0.455757 0 0)
(-0.453389 0 0)
(-0.45102 0 0)
(-0.44865 0 0)
(-0.446279 0 0)
(-0.443907 0 0)
(-0.441534 0 0)
(-0.43916 0 0)
(-0.436785 0 0)
(-0.434408 0 0)
(-0.432031 0 0)
(-0.429653 0 0)
(-0.427273 0 0)
(-0.424893 0 0)
(-0.422511 0 0)
(-0.420129 0 0)
(-0.417746 0 0)
(-0.415361 0 0)
(-0.412976 0 0)
(-0.41059 0 0)
(-0.408202 0 0)
(-0.405814 0 0)
(-0.403425 0 0)
(-0.401035 0 0)
(-0.398644 0 0)
(-0.396252 0 0)
(-0.393859 0 0)
(-0.391465 0 0)
(-0.389071 0 0)
(-0.386675 0 0)
(-0.384279 0 0)
(-0.381882 0 0)
(-0.379484 0 0)
(-0.377085 0 0)
(-0.374685 0 0)
(-0.372284 0 0)
(-0.369883 0 0)
(-0.36748 0 0)
(-0.365077 0 0)
(-0.362673 0 0)
(-0.360268 0 0)
(-0.357863 0 0)
(-0.355456 0 0)
(-0.353049 0 0)
(-0.350641 0 0)
(-0.348233 0 0)
(-0.345823 0 0)
(-0.343413 0 0)
(-0.341002 0 0)
(-0.33859 0 0)
(-0.336178 0 0)
(-0.333764 0 0)
(-0.33135 0 0)
(-0.328936 0 0)
(-0.32652 0 0)
(-0.324104 0 0)
(-0.321688 0 0)
(-0.31927 0 0)
(-0.316852 0 0)
(-0.314433 0 0)
(-0.312014 0 0)
(-0.309593 0 0)
(-0.307173 0 0)
(-0.304751 0 0)
(-0.302329 0 0)
(-0.299906 0 0)
(-0.297483 0 0)
(-0.295059 0 0)
(-0.292634 0 0)
(-0.290209 0 0)
(-0.287783 0 0)
(-0.285356 0 0)
(-0.282929 0 0)
(-0.280501 0 0)
(-0.278073 0 0)
(-0.275644 0 0)
(-0.273215 0 0)
(-0.270785 0 0)
(-0.268354 0 0)
(-0.265923 0 0)
(-0.263491 0 0)
(-0.261059 0 0)
(-0.258626 0 0)
(-0.256193 0 0)
(-0.253759 0 0)
(-0.251324 0 0)
(-0.248889 0 0)
(-0.246454 0 0)
(-0.244018 0 0)
(-0.241582 0 0)
(-0.239145 0 0)
(-0.236707 0 0)
(-0.234269 0 0)
(-0.231831 0 0)
(-0.229392 0 0)
(-0.226953 0 0)
(-0.224513 0 0)
(-0.222073 0 0)
(-0.219632 0 0)
(-0.217191 0 0)
(-0.214749 0 0)
(-0.212307 0 0)
(-0.209865 0 0)
(-0.207422 0 0)
(-0.204979 0 0)
(-0.202535 0 0)
(-0.200091 0 0)
(-0.197646 0 0)
(-0.195201 0 0)
(-0.192756 0 0)
(-0.19031 0 0)
(-0.187864 0 0)
(-0.185418 0 0)
(-0.182971 0 0)
(-0.180524 0 0)
(-0.178076 0 0)
(-0.175628 0 0)
(-0.17318 0 0)
(-0.170731 0 0)
(-0.168283 0 0)
(-0.165833 0 0)
(-0.163384 0 0)
(-0.160934 0 0)
(-0.158483 0 0)
(-0.156033 0 0)
(-0.153582 0 0)
(-0.151131 0 0)
(-0.148679 0 0)
(-0.146228 0 0)
(-0.143775 0 0)
(-0.141323 0 0)
(-0.13887 0 0)
(-0.136418 0 0)
(-0.133964 0 0)
(-0.131511 0 0)
(-0.129057 0 0)
(-0.126603 0 0)
(-0.124149 0 0)
(-0.121695 0 0)
(-0.11924 0 0)
(-0.116785 0 0)
(-0.11433 0 0)
(-0.111875 0 0)
(-0.109419 0 0)
(-0.106963 0 0)
(-0.104507 0 0)
(-0.102051 0 0)
(-0.0995946 0 0)
(-0.097138 0 0)
(-0.0946812 0 0)
(-0.0922242 0 0)
(-0.089767 0 0)
(-0.0873097 0 0)
(-0.0848522 0 0)
(-0.0823945 0 0)
(-0.0799367 0 0)
(-0.0774787 0 0)
(-0.0750206 0 0)
(-0.0725623 0 0)
(-0.0701039 0 0)
(-0.0676453 0 0)
(-0.0651866 0 0)
(-0.0627278 0 0)
(-0.0602688 0 0)
(-0.0578098 0 0)
(-0.0553506 0 0)
(-0.0528913 0 0)
(-0.050432 0 0)
(-0.0479725 0 0)
(-0.0455129 0 0)
(-0.0430533 0 0)
(-0.0405935 0 0)
(-0.0381337 0 0)
(-0.0356738 0 0)
(-0.0332138 0 0)
(-0.0307538 0 0)
(-0.0282937 0 0)
(-0.0258336 0 0)
(-0.0233734 0 0)
(-0.0209132 0 0)
(-0.0184529 0 0)
(-0.0159926 0 0)
(-0.0135322 0 0)
(-0.0110719 0 0)
(-0.00861147 0 0)
(-0.00615106 0 0)
(-0.00369064 0 0)
(-0.00123021 0 0)
)
;

boundaryField
{
    left
    {
        type            fixedValue;
        value           uniform (0 0 0);
    }
    right
    {
        type            fixedValue;
        value           uniform (0 0 0);
    }
    frontBackUpDown
    {
        type            empty;
    }
}


// ************************************************************************* //
