/*--------------------------------*- C++ -*----------------------------------*\
| =========                 |                                                 |
| \\      /  F ield         | OpenFOAM: The Open Source CFD Toolbox           |
|  \\    /   O peration     | Version:  2412                                  |
|   \\  /    A nd           | Website:  www.openfoam.com                      |
|    \\/     M anipulation  |                                                 |
\*---------------------------------------------------------------------------*/
FoamFile
{
    version     2.0;
    format      ascii;
    arch        "LSB;label=32;scalar=64";
    class       volVectorField;
    location    "0.48";
    object      U_0;
}
// * * * * * * * * * * * * * * * * * * * * * * * * * * * * * * * * * * * * * //

dimensions      [0 1 -1 0 0 0 0];

internalField   nonuniform List<vector> 
800
(
(0.00156738 0 0)
(0.00470218 0 0)
(0.00783695 0 0)
(0.0109717 0 0)
(0.0141064 0 0)
(0.0172411 0 0)
(0.0203756 0 0)
(0.0235101 0 0)
(0.0266445 0 0)
(0.0297788 0 0)
(0.032913 0 0)
(0.0360471 0 0)
(0.039181 0 0)
(0.0423147 0 0)
(0.0454483 0 0)
(0.0485817 0 0)
(0.0517149 0 0)
(0.0548479 0 0)
(0.0579807 0 0)
(0.0611133 0 0)
(0.0642456 0 0)
(0.0673776 0 0)
(0.0705094 0 0)
(0.0736409 0 0)
(0.0767721 0 0)
(0.079903 0 0)
(0.0830336 0 0)
(0.0861638 0 0)
(0.0892937 0 0)
(0.0924233 0 0)
(0.0955525 0 0)
(0.0986813 0 0)
(0.10181 0 0)
(0.104938 0 0)
(0.108065 0 0)
(0.111192 0 0)
(0.114319 0 0)
(0.117445 0 0)
(0.120571 0 0)
(0.123696 0 0)
(0.126821 0 0)
(0.129945 0 0)
(0.133069 0 0)
(0.136192 0 0)
(0.139315 0 0)
(0.142437 0 0)
(0.145558 0 0)
(0.148679 0 0)
(0.1518 0 0)
(0.154919 0 0)
(0.158039 0 0)
(0.161157 0 0)
(0.164275 0 0)
(0.167392 0 0)
(0.170508 0 0)
(0.173624 0 0)
(0.176739 0 0)
(0.179853 0 0)
(0.182967 0 0)
(0.18608 0 0)
(0.189192 0 0)
(0.192303 0 0)
(0.195413 0 0)
(0.198523 0 0)
(0.201632 0 0)
(0.20474 0 0)
(0.207847 0 0)
(0.210953 0 0)
(0.214059 0 0)
(0.217164 0 0)
(0.220267 0 0)
(0.22337 0 0)
(0.226472 0 0)
(0.229573 0 0)
(0.232673 0 0)
(0.235771 0 0)
(0.238869 0 0)
(0.241966 0 0)
(0.245062 0 0)
(0.248157 0 0)
(0.251251 0 0)
(0.254344 0 0)
(0.257436 0 0)
(0.260526 0 0)
(0.263616 0 0)
(0.266704 0 0)
(0.269792 0 0)
(0.272878 0 0)
(0.275963 0 0)
(0.279047 0 0)
(0.282129 0 0)
(0.285211 0 0)
(0.288291 0 0)
(0.29137 0 0)
(0.294448 0 0)
(0.297524 0 0)
(0.300599 0 0)
(0.303673 0 0)
(0.306746 0 0)
(0.309817 0 0)
(0.312887 0 0)
(0.315955 0 0)
(0.319022 0 0)
(0.322088 0 0)
(0.325152 0 0)
(0.328215 0 0)
(0.331277 0 0)
(0.334337 0 0)
(0.337395 0 0)
(0.340452 0 0)
(0.343508 0 0)
(0.346562 0 0)
(0.349614 0 0)
(0.352665 0 0)
(0.355715 0 0)
(0.358762 0 0)
(0.361808 0 0)
(0.364853 0 0)
(0.367896 0 0)
(0.370937 0 0)
(0.373976 0 0)
(0.377014 0 0)
(0.38005 0 0)
(0.383085 0 0)
(0.386117 0 0)
(0.389148 0 0)
(0.392177 0 0)
(0.395205 0 0)
(0.39823 0 0)
(0.401254 0 0)
(0.404275 0 0)
(0.407295 0 0)
(0.410313 0 0)
(0.413329 0 0)
(0.416343 0 0)
(0.419355 0 0)
(0.422366 0 0)
(0.425374 0 0)
(0.42838 0 0)
(0.431384 0 0)
(0.434386 0 0)
(0.437386 0 0)
(0.440384 0 0)
(0.44338 0 0)
(0.446374 0 0)
(0.449365 0 0)
(0.452355 0 0)
(0.455342 0 0)
(0.458327 0 0)
(0.461309 0 0)
(0.46429 0 0)
(0.467268 0 0)
(0.470244 0 0)
(0.473217 0 0)
(0.476189 0 0)
(0.479157 0 0)
(0.482124 0 0)
(0.485088 0 0)
(0.48805 0 0)
(0.491009 0 0)
(0.493965 0 0)
(0.49692 0 0)
(0.499871 0 0)
(0.50282 0 0)
(0.505767 0 0)
(0.508711 0 0)
(0.511652 0 0)
(0.514591 0 0)
(0.517527 0 0)
(0.52046 0 0)
(0.52339 0 0)
(0.526318 0 0)
(0.529243 0 0)
(0.532166 0 0)
(0.535085 0 0)
(0.538002 0 0)
(0.540915 0 0)
(0.543826 0 0)
(0.546734 0 0)
(0.549639 0 0)
(0.552541 0 0)
(0.55544 0 0)
(0.558336 0 0)
(0.561229 0 0)
(0.564119 0 0)
(0.567005 0 0)
(0.569889 0 0)
(0.572769 0 0)
(0.575646 0 0)
(0.57852 0 0)
(0.581391 0 0)
(0.584258 0 0)
(0.587122 0 0)
(0.589983 0 0)
(0.59284 0 0)
(0.595694 0 0)
(0.598545 0 0)
(0.601392 0 0)
(0.604235 0 0)
(0.607075 0 0)
(0.609912 0 0)
(0.612744 0 0)
(0.615574 0 0)
(0.618399 0 0)
(0.621221 0 0)
(0.624039 0 0)
(0.626853 0 0)
(0.629663 0 0)
(0.63247 0 0)
(0.635273 0 0)
(0.638072 0 0)
(0.640866 0 0)
(0.643657 0 0)
(0.646444 0 0)
(0.649227 0 0)
(0.652006 0 0)
(0.65478 0 0)
(0.65755 0 0)
(0.660317 0 0)
(0.663078 0 0)
(0.665836 0 0)
(0.668589 0 0)
(0.671338 0 0)
(0.674083 0 0)
(0.676823 0 0)
(0.679558 0 0)
(0.682289 0 0)
(0.685015 0 0)
(0.687737 0 0)
(0.690454 0 0)
(0.693166 0 0)
(0.695874 0 0)
(0.698577 0 0)
(0.701275 0 0)
(0.703968 0 0)
(0.706656 0 0)
(0.709339 0 0)
(0.712017 0 0)
(0.714689 0 0)
(0.717357 0 0)
(0.72002 0 0)
(0.722677 0 0)
(0.725329 0 0)
(0.727976 0 0)
(0.730617 0 0)
(0.733252 0 0)
(0.735883 0 0)
(0.738507 0 0)
(0.741126 0 0)
(0.74374 0 0)
(0.746347 0 0)
(0.748949 0 0)
(0.751545 0 0)
(0.754135 0 0)
(0.756719 0 0)
(0.759297 0 0)
(0.761869 0 0)
(0.764434 0 0)
(0.766994 0 0)
(0.769547 0 0)
(0.772093 0 0)
(0.774634 0 0)
(0.777168 0 0)
(0.779695 0 0)
(0.782215 0 0)
(0.784729 0 0)
(0.787236 0 0)
(0.789737 0 0)
(0.79223 0 0)
(0.794716 0 0)
(0.797196 0 0)
(0.799668 0 0)
(0.802132 0 0)
(0.80459 0 0)
(0.80704 0 0)
(0.809483 0 0)
(0.811918 0 0)
(0.814345 0 0)
(0.816765 0 0)
(0.819176 0 0)
(0.82158 0 0)
(0.823976 0 0)
(0.826364 0 0)
(0.828744 0 0)
(0.831115 0 0)
(0.833478 0 0)
(0.835832 0 0)
(0.838178 0 0)
(0.840515 0 0)
(0.842843 0 0)
(0.845163 0 0)
(0.847473 0 0)
(0.849775 0 0)
(0.852067 0 0)
(0.854349 0 0)
(0.856623 0 0)
(0.858886 0 0)
(0.86114 0 0)
(0.863384 0 0)
(0.865619 0 0)
(0.867843 0 0)
(0.870057 0 0)
(0.87226 0 0)
(0.874453 0 0)
(0.876636 0 0)
(0.878808 0 0)
(0.880968 0 0)
(0.883118 0 0)
(0.885257 0 0)
(0.887384 0 0)
(0.8895 0 0)
(0.891604 0 0)
(0.893697 0 0)
(0.895777 0 0)
(0.897845 0 0)
(0.899901 0 0)
(0.901945 0 0)
(0.903975 0 0)
(0.905993 0 0)
(0.907998 0 0)
(0.90999 0 0)
(0.911968 0 0)
(0.913933 0 0)
(0.915884 0 0)
(0.917821 0 0)
(0.919743 0 0)
(0.921651 0 0)
(0.923544 0 0)
(0.925423 0 0)
(0.927286 0 0)
(0.929134 0 0)
(0.930966 0 0)
(0.932783 0 0)
(0.934583 0 0)
(0.936367 0 0)
(0.938134 0 0)
(0.939884 0 0)
(0.941617 0 0)
(0.943332 0 0)
(0.945029 0 0)
(0.946708 0 0)
(0.948369 0 0)
(0.950011 0 0)
(0.951634 0 0)
(0.953237 0 0)
(0.95482 0 0)
(0.956383 0 0)
(0.957926 0 0)
(0.959447 0 0)
(0.960947 0 0)
(0.962425 0 0)
(0.963881 0 0)
(0.965315 0 0)
(0.966725 0 0)
(0.968111 0 0)
(0.969474 0 0)
(0.970811 0 0)
(0.972124 0 0)
(0.973411 0 0)
(0.974672 0 0)
(0.975906 0 0)
(0.977112 0 0)
(0.978291 0 0)
(0.979441 0 0)
(0.980562 0 0)
(0.981652 0 0)
(0.982712 0 0)
(0.983741 0 0)
(0.984737 0 0)
(0.985701 0 0)
(0.98663 0 0)
(0.987525 0 0)
(0.988384 0 0)
(0.989207 0 0)
(0.989993 0 0)
(0.990739 0 0)
(0.991446 0 0)
(0.992113 0 0)
(0.992738 0 0)
(0.993319 0 0)
(0.993856 0 0)
(0.994347 0 0)
(0.994792 0 0)
(0.995187 0 0)
(0.995533 0 0)
(0.995826 0 0)
(0.996066 0 0)
(0.996251 0 0)
(0.996378 0 0)
(0.996446 0 0)
(0.996452 0 0)
(0.996395 0 0)
(0.996271 0 0)
(0.996078 0 0)
(0.995816 0 0)
(0.995446 0 0)
(0.995325 0 0)
(0.992035 0 0)
(1.01707 0 0)
(0.616718 0 0)
(-0.61529 0 0)
(-1.01708 0 0)
(-0.992033 0 0)
(-0.995324 0 0)
(-0.995446 0 0)
(-0.995816 0 0)
(-0.996078 0 0)
(-0.996271 0 0)
(-0.996395 0 0)
(-0.996452 0 0)
(-0.996446 0 0)
(-0.996378 0 0)
(-0.996251 0 0)
(-0.996066 0 0)
(-0.995826 0 0)
(-0.995533 0 0)
(-0.995187 0 0)
(-0.994792 0 0)
(-0.994347 0 0)
(-0.993856 0 0)
(-0.993319 0 0)
(-0.992737 0 0)
(-0.992113 0 0)
(-0.991446 0 0)
(-0.990739 0 0)
(-0.989992 0 0)
(-0.989207 0 0)
(-0.988384 0 0)
(-0.987525 0 0)
(-0.98663 0 0)
(-0.9857 0 0)
(-0.984737 0 0)
(-0.98374 0 0)
(-0.982712 0 0)
(-0.981652 0 0)
(-0.980561 0 0)
(-0.97944 0 0)
(-0.97829 0 0)
(-0.977112 0 0)
(-0.975905 0 0)
(-0.974671 0 0)
(-0.97341 0 0)
(-0.972123 0 0)
(-0.970811 0 0)
(-0.969473 0 0)
(-0.96811 0 0)
(-0.966724 0 0)
(-0.965314 0 0)
(-0.96388 0 0)
(-0.962424 0 0)
(-0.960946 0 0)
(-0.959446 0 0)
(-0.957925 0 0)
(-0.956382 0 0)
(-0.954819 0 0)
(-0.953236 0 0)
(-0.951632 0 0)
(-0.95001 0 0)
(-0.948368 0 0)
(-0.946707 0 0)
(-0.945028 0 0)
(-0.94333 0 0)
(-0.941615 0 0)
(-0.939882 0 0)
(-0.938132 0 0)
(-0.936365 0 0)
(-0.934581 0 0)
(-0.932781 0 0)
(-0.930965 0 0)
(-0.929133 0 0)
(-0.927285 0 0)
(-0.925421 0 0)
(-0.923543 0 0)
(-0.921649 0 0)
(-0.919741 0 0)
(-0.917819 0 0)
(-0.915882 0 0)
(-0.913931 0 0)
(-0.911967 0 0)
(-0.909988 0 0)
(-0.907997 0 0)
(-0.905992 0 0)
(-0.903974 0 0)
(-0.901943 0 0)
(-0.899899 0 0)
(-0.897843 0 0)
(-0.895775 0 0)
(-0.893695 0 0)
(-0.891602 0 0)
(-0.889498 0 0)
(-0.887382 0 0)
(-0.885255 0 0)
(-0.883116 0 0)
(-0.880966 0 0)
(-0.878806 0 0)
(-0.876634 0 0)
(-0.874451 0 0)
(-0.872258 0 0)
(-0.870055 0 0)
(-0.867841 0 0)
(-0.865616 0 0)
(-0.863382 0 0)
(-0.861138 0 0)
(-0.858884 0 0)
(-0.85662 0 0)
(-0.854347 0 0)
(-0.852064 0 0)
(-0.849772 0 0)
(-0.847471 0 0)
(-0.845161 0 0)
(-0.842841 0 0)
(-0.840513 0 0)
(-0.838176 0 0)
(-0.83583 0 0)
(-0.833476 0 0)
(-0.831113 0 0)
(-0.828741 0 0)
(-0.826362 0 0)
(-0.823974 0 0)
(-0.821578 0 0)
(-0.819174 0 0)
(-0.816762 0 0)
(-0.814343 0 0)
(-0.811915 0 0)
(-0.80948 0 0)
(-0.807038 0 0)
(-0.804588 0 0)
(-0.80213 0 0)
(-0.799665 0 0)
(-0.797193 0 0)
(-0.794714 0 0)
(-0.792228 0 0)
(-0.789734 0 0)
(-0.787234 0 0)
(-0.784727 0 0)
(-0.782213 0 0)
(-0.779693 0 0)
(-0.777165 0 0)
(-0.774632 0 0)
(-0.772091 0 0)
(-0.769544 0 0)
(-0.766991 0 0)
(-0.764432 0 0)
(-0.761866 0 0)
(-0.759294 0 0)
(-0.756716 0 0)
(-0.754133 0 0)
(-0.751543 0 0)
(-0.748947 0 0)
(-0.746345 0 0)
(-0.743737 0 0)
(-0.741124 0 0)
(-0.738505 0 0)
(-0.73588 0 0)
(-0.73325 0 0)
(-0.730615 0 0)
(-0.727973 0 0)
(-0.725327 0 0)
(-0.722675 0 0)
(-0.720018 0 0)
(-0.717355 0 0)
(-0.714687 0 0)
(-0.712014 0 0)
(-0.709336 0 0)
(-0.706653 0 0)
(-0.703965 0 0)
(-0.701272 0 0)
(-0.698575 0 0)
(-0.695872 0 0)
(-0.693164 0 0)
(-0.690452 0 0)
(-0.687735 0 0)
(-0.685013 0 0)
(-0.682287 0 0)
(-0.679556 0 0)
(-0.676821 0 0)
(-0.674081 0 0)
(-0.671336 0 0)
(-0.668587 0 0)
(-0.665834 0 0)
(-0.663076 0 0)
(-0.660315 0 0)
(-0.657548 0 0)
(-0.654778 0 0)
(-0.652004 0 0)
(-0.649225 0 0)
(-0.646442 0 0)
(-0.643655 0 0)
(-0.640864 0 0)
(-0.63807 0 0)
(-0.635271 0 0)
(-0.632468 0 0)
(-0.629662 0 0)
(-0.626851 0 0)
(-0.624037 0 0)
(-0.621219 0 0)
(-0.618397 0 0)
(-0.615572 0 0)
(-0.612743 0 0)
(-0.60991 0 0)
(-0.607073 0 0)
(-0.604234 0 0)
(-0.60139 0 0)
(-0.598543 0 0)
(-0.595693 0 0)
(-0.592839 0 0)
(-0.589981 0 0)
(-0.587121 0 0)
(-0.584257 0 0)
(-0.581389 0 0)
(-0.578519 0 0)
(-0.575645 0 0)
(-0.572768 0 0)
(-0.569887 0 0)
(-0.567004 0 0)
(-0.564117 0 0)
(-0.561227 0 0)
(-0.558334 0 0)
(-0.555438 0 0)
(-0.55254 0 0)
(-0.549638 0 0)
(-0.546733 0 0)
(-0.543825 0 0)
(-0.540914 0 0)
(-0.538 0 0)
(-0.535084 0 0)
(-0.532164 0 0)
(-0.529242 0 0)
(-0.526317 0 0)
(-0.523389 0 0)
(-0.520458 0 0)
(-0.517525 0 0)
(-0.514589 0 0)
(-0.511651 0 0)
(-0.508709 0 0)
(-0.505765 0 0)
(-0.502819 0 0)
(-0.49987 0 0)
(-0.496918 0 0)
(-0.493964 0 0)
(-0.491007 0 0)
(-0.488048 0 0)
(-0.485087 0 0)
(-0.482123 0 0)
(-0.479156 0 0)
(-0.476187 0 0)
(-0.473216 0 0)
(-0.470243 0 0)
(-0.467267 0 0)
(-0.464289 0 0)
(-0.461308 0 0)
(-0.458326 0 0)
(-0.455341 0 0)
(-0.452353 0 0)
(-0.449364 0 0)
(-0.446373 0 0)
(-0.443379 0 0)
(-0.440383 0 0)
(-0.437385 0 0)
(-0.434385 0 0)
(-0.431383 0 0)
(-0.428379 0 0)
(-0.425373 0 0)
(-0.422365 0 0)
(-0.419354 0 0)
(-0.416342 0 0)
(-0.413328 0 0)
(-0.410312 0 0)
(-0.407294 0 0)
(-0.404274 0 0)
(-0.401253 0 0)
(-0.398229 0 0)
(-0.395204 0 0)
(-0.392176 0 0)
(-0.389147 0 0)
(-0.386116 0 0)
(-0.383084 0 0)
(-0.38005 0 0)
(-0.377013 0 0)
(-0.373976 0 0)
(-0.370936 0 0)
(-0.367895 0 0)
(-0.364852 0 0)
(-0.361808 0 0)
(-0.358761 0 0)
(-0.355714 0 0)
(-0.352664 0 0)
(-0.349614 0 0)
(-0.346561 0 0)
(-0.343507 0 0)
(-0.340452 0 0)
(-0.337395 0 0)
(-0.334336 0 0)
(-0.331276 0 0)
(-0.328215 0 0)
(-0.325152 0 0)
(-0.322087 0 0)
(-0.319022 0 0)
(-0.315955 0 0)
(-0.312886 0 0)
(-0.309816 0 0)
(-0.306745 0 0)
(-0.303672 0 0)
(-0.300599 0 0)
(-0.297523 0 0)
(-0.294447 0 0)
(-0.291369 0 0)
(-0.28829 0 0)
(-0.28521 0 0)
(-0.282129 0 0)
(-0.279046 0 0)
(-0.275962 0 0)
(-0.272877 0 0)
(-0.269791 0 0)
(-0.266704 0 0)
(-0.263615 0 0)
(-0.260526 0 0)
(-0.257435 0 0)
(-0.254344 0 0)
(-0.251251 0 0)
(-0.248157 0 0)
(-0.245062 0 0)
(-0.241966 0 0)
(-0.238869 0 0)
(-0.235771 0 0)
(-0.232672 0 0)
(-0.229572 0 0)
(-0.226471 0 0)
(-0.22337 0 0)
(-0.220267 0 0)
(-0.217163 0 0)
(-0.214059 0 0)
(-0.210953 0 0)
(-0.207847 0 0)
(-0.20474 0 0)
(-0.201632 0 0)
(-0.198523 0 0)
(-0.195413 0 0)
(-0.192303 0 0)
(-0.189191 0 0)
(-0.186079 0 0)
(-0.182967 0 0)
(-0.179853 0 0)
(-0.176739 0 0)
(-0.173624 0 0)
(-0.170508 0 0)
(-0.167392 0 0)
(-0.164275 0 0)
(-0.161157 0 0)
(-0.158038 0 0)
(-0.154919 0 0)
(-0.1518 0 0)
(-0.148679 0 0)
(-0.145558 0 0)
(-0.142437 0 0)
(-0.139315 0 0)
(-0.136192 0 0)
(-0.133069 0 0)
(-0.129945 0 0)
(-0.126821 0 0)
(-0.123696 0 0)
(-0.120571 0 0)
(-0.117445 0 0)
(-0.114319 0 0)
(-0.111192 0 0)
(-0.108065 0 0)
(-0.104938 0 0)
(-0.10181 0 0)
(-0.0986812 0 0)
(-0.0955524 0 0)
(-0.0924232 0 0)
(-0.0892937 0 0)
(-0.0861638 0 0)
(-0.0830335 0 0)
(-0.079903 0 0)
(-0.0767721 0 0)
(-0.0736409 0 0)
(-0.0705094 0 0)
(-0.0673776 0 0)
(-0.0642455 0 0)
(-0.0611132 0 0)
(-0.0579807 0 0)
(-0.0548479 0 0)
(-0.0517149 0 0)
(-0.0485817 0 0)
(-0.0454483 0 0)
(-0.0423147 0 0)
(-0.039181 0 0)
(-0.0360471 0 0)
(-0.032913 0 0)
(-0.0297788 0 0)
(-0.0266445 0 0)
(-0.0235101 0 0)
(-0.0203756 0 0)
(-0.0172411 0 0)
(-0.0141064 0 0)
(-0.0109717 0 0)
(-0.00783697 0 0)
(-0.0047022 0 0)
(-0.0015674 0 0)
)
;

boundaryField
{
    left
    {
        type            fixedValue;
        value           uniform (0 0 0);
    }
    right
    {
        type            fixedValue;
        value           uniform (0 0 0);
    }
    frontBackUpDown
    {
        type            empty;
    }
}


// ************************************************************************* //
