/*--------------------------------*- C++ -*----------------------------------*\
| =========                 |                                                 |
| \\      /  F ield         | OpenFOAM: The Open Source CFD Toolbox           |
|  \\    /   O peration     | Version:  2412                                  |
|   \\  /    A nd           | Website:  www.openfoam.com                      |
|    \\/     M anipulation  |                                                 |
\*---------------------------------------------------------------------------*/
FoamFile
{
    version     2.0;
    format      ascii;
    arch        "LSB;label=32;scalar=64";
    class       volScalarField;
    location    "2";
    object      p;
}
// * * * * * * * * * * * * * * * * * * * * * * * * * * * * * * * * * * * * * //

dimensions      [0 2 -2 0 0 0 0];

internalField   nonuniform List<scalar> 
2200
(
0.829312
0.826649
0.829935
0.833037
0.845222
0.873973
0.931399
1.02148
1.14156
1.25741
1.28397
1.20991
1.11445
1.0408
0.99303
0.969762
0.960206
0.956773
0.953514
0.956314
0.834853
0.827712
0.830024
0.845556
0.875121
0.923433
0.994795
1.10269
1.23954
1.36466
1.38924
1.30358
1.19458
1.10457
1.04241
0.999218
0.972228
0.958048
0.956352
0.963579
0.906778
0.891353
0.880423
0.898066
0.939587
1.00754
1.12196
1.26535
1.41918
1.56989
1.59397
1.48162
1.35621
1.23127
1.1278
1.065
1.02653
1.01068
1.02221
1.03783
1.07273
1.05149
1.01596
0.98309
1.01264
1.10005
1.24277
1.45163
1.67606
1.85453
1.8784
1.74238
1.54881
1.35552
1.22392
1.14355
1.11749
1.15187
1.18817
1.20952
1.37353
1.34055
1.27413
1.1766
1.13762
1.18462
1.31695
1.5777
1.90021
2.16125
2.18601
1.97259
1.68481
1.44402
1.32216
1.281
1.32196
1.42027
1.48704
1.52024
1.93097
1.88734
1.79668
1.66048
1.55345
1.52273
1.55948
1.72754
2.02808
2.39595
2.42634
2.11473
1.84883
1.70074
1.67494
1.71141
1.8203
1.95823
2.04957
2.09323
2.81179
2.76726
2.65883
2.49121
2.32864
2.25111
2.23081
2.2756
2.41269
2.68527
2.72334
2.51034
2.41215
2.38953
2.42067
2.50426
2.6708
2.83943
2.94751
2.99184
3.91397
3.87174
3.75861
3.56767
3.34717
3.19033
3.20544
3.28092
3.38366
3.50132
3.54051
3.49431
3.43951
3.38807
3.38825
3.55071
3.77286
3.96348
4.07634
4.11849
5.1046
5.0666
4.96146
4.76959
4.52031
4.29406
4.2659
4.40953
4.74091
4.94743
4.99529
4.87033
4.59544
4.48149
4.52618
4.75778
5.00798
5.19977
5.30477
5.3428
6.26181
6.23094
6.14497
5.97734
5.73928
5.48233
5.34441
5.47004
5.8322
6.185
6.243
5.98574
5.68961
5.60462
5.75583
6.01934
6.25848
6.42534
6.5106
6.54122
7.26193
7.23913
7.17644
7.04729
6.85142
6.62323
6.40897
6.39127
6.53427
6.78961
6.86233
6.72554
6.66015
6.72853
6.95377
7.18521
7.38129
7.50931
7.57142
7.59373
8.01411
7.99791
7.95544
7.86501
7.7216
7.53136
7.34768
7.27027
7.26685
7.36137
7.45457
7.502
7.59975
7.71966
7.92613
8.12503
8.26933
8.3605
8.40358
8.42021
8.50679
8.49541
8.46888
8.41252
8.32484
8.19624
8.09526
8.02717
8.0614
8.13095
8.23738
8.34441
8.41595
8.54151
8.68031
8.82035
8.91425
8.97494
9.00387
9.01685
8.76745
8.7602
8.7463
8.7164
8.67725
8.62726
8.54796
8.49892
8.60393
8.72022
8.84973
8.95822
8.98308
9.10934
9.22773
9.29913
9.35277
9.39028
9.40964
9.42037
8.8393
8.83316
8.82548
8.80831
8.78686
8.76335
8.72688
8.73744
8.84006
8.97668
9.14678
9.27803
9.34175
9.4353
9.52306
9.58006
9.62092
9.64873
9.66379
9.67383
8.77015
8.76576
8.76411
8.75828
8.75245
8.75229
8.75741
8.79465
8.90817
9.06375
9.2737
9.43652
9.5443
9.64202
9.71449
9.76345
9.79755
9.81937
9.83039
9.83988
8.61039
8.60756
8.60919
8.61445
8.6237
8.64433
8.68406
8.75432
8.89998
9.10124
9.34849
9.54734
9.69049
9.79595
9.86744
9.91532
9.94606
9.96586
9.97572
9.98419
8.36934
8.37097
8.38043
8.39515
8.41999
8.46235
8.53348
8.64037
8.829
9.09549
9.39134
9.64062
9.81876
9.93935
10.0203
10.0748
10.1096
10.1314
10.1436
10.1514
8.06174
8.06476
8.07577
8.09908
8.14005
8.20402
8.30998
8.46598
8.7015
9.04456
9.41531
9.72739
9.95248
10.0997
10.1993
10.2642
10.3063
10.3327
10.3425
10.345
7.65095
7.65886
7.68098
7.71774
7.775
7.86758
8.0163
8.24205
8.54228
8.96792
9.43665
9.82682
10.1004
10.2854
10.4095
10.4903
10.5416
10.5726
10.5885
10.5941
7.13544
7.14475
7.17024
7.21844
7.30558
7.44079
7.64376
7.94989
8.36396
8.89652
9.47059
9.94912
10.2855
10.5176
10.6736
10.7751
10.8395
10.8776
10.901
10.913
6.45469
6.4718
6.51491
6.59235
6.7159
6.90743
7.19439
7.59842
8.14632
8.83232
9.53025
10.1125
10.526
10.8159
11.0136
11.1428
11.2249
11.2785
11.3128
11.3257
5.56358
5.5902
5.65599
5.77245
5.96104
6.25334
6.66207
7.2091
7.90619
8.75726
9.61207
10.3145
10.8178
11.1756
11.4249
11.5962
11.7073
11.7754
11.8137
11.8289
4.35967
4.41322
4.52587
4.71714
5.02207
5.4571
6.03503
6.77007
7.66102
8.69905
9.72841
10.5637
11.1673
11.6034
11.9133
12.1296
12.278
12.3722
12.4253
12.447
2.72043
2.82361
3.02935
3.3829
3.88069
4.52934
5.33527
6.29758
7.41547
8.66861
9.88485
10.8608
11.5711
12.0917
12.4739
12.7531
12.9515
13.0903
13.1765
13.2113
0.538529
0.6865
1.1056
1.74887
2.54632
3.49097
4.57893
5.80652
7.17963
8.6655
10.0764
11.1991
12.0237
12.6381
13.1001
13.4532
13.7249
13.9233
14.0529
14.0953
-2.65084
-2.01905
-1.04296
0.0173404
1.15387
2.41751
3.80498
5.3217
6.97127
8.71094
10.3432
11.6413
12.6101
13.3523
13.9301
14.3847
14.7539
15.0746
15.3327
15.4386
-6.34486
-4.71604
-3.12603
-1.7054
-0.223055
1.36469
3.05726
4.87035
6.79357
8.7938
10.6654
12.1597
13.2898
14.1729
14.8853
15.47
15.9452
16.3348
16.705
16.9776
-8.83377
-6.91162
-5.12213
-3.38425
-1.55802
0.354253
2.3581
4.45313
6.62848
8.87189
10.9604
12.6279
13.8943
14.8839
15.6756
16.3264
16.8618
17.2771
17.6178
17.899
-10.6714
-8.61659
-6.8446
-4.88743
-2.78144
-0.569386
1.7155
4.0595
6.46779
8.93675
11.2164
13.0248
14.3881
15.4406
16.2618
16.9113
17.4452
17.8799
18.1863
18.4331
-12.0248
-9.86293
-8.2375
-6.14251
-3.82035
-1.37461
1.1352
3.69387
6.31199
8.97658
11.4101
13.3183
14.7355
15.8137
16.6427
17.2822
17.7895
18.2351
18.5421
18.7906
-13.035
-10.8059
-9.29513
-7.04744
-4.60564
-2.03926
0.621149
3.35264
6.14763
8.97075
11.5262
13.5102
14.9646
16.0601
16.9016
17.5504
18.0473
18.4939
18.8009
19.0519
-13.8673
-11.6224
-10.0552
-7.64111
-5.16016
-2.56057
0.181507
3.03679
5.9708
8.92334
11.5886
13.647
15.1438
16.2628
17.1215
17.7857
18.2836
18.7191
19.0364
19.2554
-14.4609
-12.2622
-10.6027
-8.05102
-5.59062
-2.98141
-0.185701
2.75912
5.80018
8.86196
11.6328
13.7682
15.3123
16.457
17.3291
18.0048
18.5048
18.9329
19.2502
19.4674
-15.05
-12.7615
-11.0115
-8.39176
-5.97219
-3.33781
-0.491409
2.52857
5.65002
8.80179
11.6697
13.8801
15.4725
16.6453
17.5311
18.2139
18.7138
19.1356
19.446
19.6792
-15.5287
-13.2753
-11.4686
-8.78734
-6.35453
-3.6716
-0.761843
2.3297
5.50963
8.73639
11.6918
13.9738
15.6153
16.8169
17.7148
18.4067
18.9153
19.3432
19.649
19.8849
-16.0043
-13.7565
-11.9327
-9.24697
-6.77407
-4.0136
-1.02414
2.1332
5.35968
8.65401
11.6872
14.0397
15.7369
16.9803
17.9082
18.6168
19.1309
19.5507
19.8525
20.0876
-16.487
-14.2207
-12.3912
-9.69711
-7.19886
-4.35664
-1.28736
1.92076
5.1888
8.54675
11.651
14.0784
15.8407
17.1328
18.0862
18.8084
19.3405
19.7776
20.0798
20.3086
-16.9445
-14.6877
-12.8297
-10.1131
-7.58895
-4.67865
-1.54738
1.69084
4.99909
8.41761
11.5866
14.0873
15.9185
17.2737
18.2838
19.0475
19.5966
20.0252
20.3303
20.5623
-17.3665
-15.1167
-13.2242
-10.4935
-7.9329
-4.97182
-1.80214
1.45292
4.8024
8.27321
11.4942
14.0631
15.9713
17.403
18.4677
19.2676
19.8515
20.3045
20.6138
20.8302
-17.7141
-15.4489
-13.562
-10.7991
-8.22989
-5.23616
-2.05081
1.21823
4.60625
8.11465
11.3754
14.0063
15.9889
17.4968
18.6399
19.5039
20.1291
20.6052
20.9292
21.1598
-18.1077
-15.8128
-13.8326
-11.0768
-8.49094
-5.47788
-2.29115
0.991935
4.41031
7.94313
11.2339
13.9135
15.9654
17.555
18.7876
19.7443
20.4529
20.9728
21.3106
21.521
-18.3681
-16.1156
-14.1293
-11.343
-8.73875
-5.70987
-2.5226
0.773465
4.21346
7.76172
11.0729
13.7885
15.9019
17.5752
18.9015
19.9517
20.7476
21.3537
21.7355
21.9533
-18.6662
-16.3625
-14.3759
-11.6034
-8.98613
-5.93751
-2.74577
0.561425
4.01647
7.5733
10.8952
13.6335
15.7901
17.532
18.9573
20.1166
21.0304
21.7694
22.2193
22.4528
-18.9809
-16.7209
-14.6791
-11.8821
-9.22965
-6.15687
-2.96078
0.355621
3.82101
7.38046
10.7031
13.4503
15.6362
17.4361
18.9419
20.2089
21.2684
22.1543
22.7482
23.0568
-19.2305
-16.9478
-14.9311
-12.1232
-9.45669
-6.36668
-3.16691
0.156948
3.62871
7.18601
10.5017
13.2465
15.4475
17.2819
18.8486
20.2066
21.3928
22.4748
23.2946
23.6829
-19.4249
-17.0638
-15.0498
-12.2903
-9.67249
-6.56884
-3.36602
-0.0370862
3.43669
6.98771
10.2864
13.0091
15.2045
17.056
18.6648
20.0836
21.3605
22.5831
23.6933
24.1669
-19.6567
-17.3357
-15.3376
-12.5203
-9.88724
-6.76179
-3.56363
-0.233822
3.23637
6.77508
10.0441
12.7267
14.8987
16.7433
18.3539
19.7836
21.0656
22.2188
23.0368
23.3659
-19.9912
-17.7828
-15.7707
-12.8524
-10.0944
-6.94905
-3.75879
-0.432733
3.02934
6.54836
9.77907
12.4072
14.5232
16.3206
17.8901
19.267
20.4332
21.3774
21.9378
22.2305
-20.2085
-17.9256
-15.8725
-12.9799
-10.2913
-7.14035
-3.95337
-0.635866
2.81386
6.30614
9.49402
12.049
14.0728
15.7854
17.2604
18.5209
19.5376
20.2567
20.5908
20.9086
-20.2554
-17.7683
-15.7509
-12.9876
-10.4835
-7.32306
-4.15223
-0.844777
2.5876
6.04983
9.18834
11.6579
13.5655
15.1409
16.4577
17.5506
18.4334
19.0439
19.3077
19.6542
-20.429
-18.0617
-16.1668
-13.2686
-10.6843
-7.50507
-4.36226
-1.06361
2.34746
5.77762
8.86044
11.2384
13.0032
14.3939
15.5272
16.4457
17.2019
17.7174
17.8998
18.28
-20.7937
-18.6105
-16.6882
-13.6734
-10.9113
-7.72031
-4.58207
-1.29476
2.09522
5.48931
8.51324
10.7908
12.4018
13.591
14.5235
15.2441
15.7765
16.1346
16.3423
16.75
-21.0446
-18.654
-16.6419
-13.7322
-11.1348
-7.94316
-4.80277
-1.53098
1.8397
5.19296
8.15464
10.3225
11.7802
12.7706
13.482
13.9862
14.2334
14.2589
14.2165
14.5417
-21.1002
-18.6534
-16.6287
-13.7854
-11.3275
-8.13067
-5.02027
-1.76134
1.58752
4.89753
7.79183
9.84942
11.1605
11.9513
12.4268
12.6877
12.6231
11.9672
11.0085
11.1971
-21.3194
-19.013
-17.0524
-14.1251
-11.528
-8.31725
-5.23201
-1.9819
1.34318
4.60883
7.42994
9.38483
10.5606
11.1562
11.352
11.3118
10.9432
9.63078
7.28903
5.05693
-21.6225
-19.3431
-17.3131
-14.3596
-11.7411
-8.51841
-5.43398
-2.19324
1.11362
4.33225
7.07992
8.94434
9.99784
10.4128
10.3258
9.89735
9.19502
7.84312
3.56067
-7.92616
-21.765
-19.417
-17.3606
-14.4289
-11.9256
-8.69331
-5.6271
-2.39451
0.897442
4.06756
6.74028
8.51629
9.46023
9.7258
9.41551
8.68555
7.74197
6.79916
5.91476
1.36299
-21.9148
-19.5883
-17.573
-14.6188
-12.1104
-8.85479
-5.82397
-2.59367
0.679673
3.80451
6.39796
8.09234
8.95646
9.14271
8.75786
8.02085
7.254
6.97039
7.82072
6.64437
-22.1643
-19.8617
-17.8281
-14.8637
-12.3261
-9.03333
-6.03236
-2.79815
0.454693
3.53778
6.06165
7.70194
8.53551
8.7304
8.44055
7.88198
7.3117
7.01161
7.47946
6.82568
-22.3726
-20.0539
-17.9925
-15.0391
-12.544
-9.21271
-6.25696
-3.00844
0.22067
3.26739
5.75569
7.37388
8.22429
8.53007
8.44368
8.11443
7.64282
7.02764
6.92278
6.84257
-22.5515
-20.2299
-18.1691
-15.2176
-12.7577
-9.38612
-6.49803
-3.2141
-0.0200254
3.00591
5.49866
7.12723
8.05769
8.50924
8.65092
8.6121
8.3339
7.74399
7.56207
7.64127
-22.7506
-20.4347
-18.3708
-15.4197
-12.9689
-9.55906
-6.74585
-3.40472
-0.255989
2.76771
5.29521
6.97978
8.03881
8.6687
8.99681
9.26369
9.44203
9.23364
9.24878
9.36684
-22.9292
-20.6152
-18.5453
-15.5963
-13.1542
-9.72906
-6.98451
-3.57142
-0.471138
2.5624
5.14026
6.93532
8.13091
8.97668
9.53649
10.0342
10.5522
10.8461
11.0713
11.2435
-23.063
-20.7575
-18.6899
-15.7504
-13.2955
-9.8929
-7.18102
-3.71313
-0.661762
2.39624
5.02983
6.96673
8.30464
9.36033
10.1658
10.8042
11.4386
11.9704
12.3883
12.6025
-23.1597
-20.8622
-18.7917
-15.8867
-13.3812
-10.0475
-7.30835
-3.85308
-0.830612
2.27645
4.97164
7.02738
8.50062
9.67591
10.6177
11.3561
12.0317
12.5809
13.0211
13.2585
-23.1948
-20.9163
-18.8099
-15.9784
-13.3977
-10.1889
-7.37698
-3.99612
-0.960547
2.19545
4.95049
7.07104
8.63594
9.85763
10.8577
11.6612
12.3701
12.9004
13.327
13.5967
-23.1363
-20.891
-18.7423
-15.9954
-13.3753
-10.2804
-7.39955
-4.10682
-1.04851
2.12127
4.91513
7.08181
8.69978
9.96956
11.0093
11.8295
12.5546
13.0905
13.5229
13.8215
-22.9543
-20.7611
-18.5995
-15.9273
-13.2876
-10.2856
-7.36503
-4.17271
-1.11432
2.03742
4.84452
7.05559
8.72397
10.0345
11.0925
11.9067
12.6208
13.1713
13.5923
13.9098
-22.631
-20.4868
-18.3322
-15.7296
-13.0997
-10.1867
-7.28626
-4.19459
-1.16624
1.95118
4.75123
6.9841
8.67679
9.99719
11.0545
11.8614
12.5528
13.1073
13.5104
13.8459
-22.0938
-20.0262
-17.9089
-15.3878
-12.8035
-9.99507
-7.1661
-4.16285
-1.19311
1.86249
4.63058
6.84632
8.52395
9.8275
10.884
11.6909
12.3565
12.9194
13.3073
13.6571
-21.321
-19.3429
-17.2927
-14.8792
-12.3765
-9.68904
-6.96493
-4.06627
-1.19639
1.75585
4.45526
6.62029
8.2647
9.54077
10.5892
11.4015
12.0451
12.6087
12.9967
13.3577
-20.2034
-18.3963
-16.4356
-14.1473
-11.764
-9.23001
-6.65387
-3.91075
-1.19025
1.61987
4.21071
6.29612
7.89248
9.13205
10.1531
10.9664
11.6032
12.1593
12.5616
12.9242
-18.6851
-17.0581
-15.2328
-13.1317
-10.9367
-8.61189
-6.22856
-3.69684
-1.16761
1.46245
3.90208
5.87201
7.38921
8.57463
9.54583
10.3409
10.9691
11.5145
11.9287
12.2885
-16.652
-15.2645
-13.6537
-11.8086
-9.86885
-7.80828
-5.67692
-3.414
-1.11967
1.28291
3.5232
5.33423
6.7292
7.82469
8.71572
9.45824
10.057
10.577
10.9979
11.3609
-14.0423
-12.9416
-11.6542
-10.1713
-8.55879
-6.82416
-5.00444
-3.05696
-1.04093
1.08931
3.08528
4.69462
5.92347
6.88245
7.64967
8.2864
8.79655
9.22935
9.5941
9.91758
-10.6641
-10.0074
-9.24588
-8.20147
-6.99948
-5.66239
-4.22697
-2.63172
-0.911859
0.933774
2.68099
4.09221
5.15672
5.97093
6.60027
7.10197
7.48949
7.79063
8.02242
8.22993
-7.25085
-6.97133
-6.797
-6.07648
-5.31003
-4.42077
-3.39099
-2.13649
-0.722172
0.827843
2.32629
3.54787
4.46291
5.14953
5.65887
6.04831
6.33121
6.53552
6.62741
6.72492
-4.6746
-4.55131
-4.64998
-4.09959
-3.79758
-3.28302
-2.55933
-1.59751
-0.492708
0.753054
1.99445
3.01391
3.76837
4.32153
4.7111
4.98311
5.15623
5.27801
5.28841
5.3302
-3.02328
-2.90406
-2.97339
-2.53359
-2.58492
-2.25086
-1.7438
-1.05963
-0.245207
0.729262
1.7331
2.56064
3.16351
3.59175
3.87687
4.05548
4.1477
4.23037
4.22889
4.25922
-1.9384
-1.87709
-1.89122
-1.54505
-1.70111
-1.36774
-1.01465
-0.571288
0.00325585
0.750733
1.54341
2.1986
2.66839
2.99187
3.20191
3.33195
3.39574
3.47836
3.48731
3.52085
-1.21415
-1.2102
-1.24106
-0.98976
-1.1462
-0.749377
-0.516771
-0.21761
0.207423
0.779583
1.39408
1.90578
2.27248
2.52577
2.69744
2.81478
2.87303
2.95551
2.96139
2.97844
-0.737621
-0.750201
-0.793086
-0.64581
-0.781048
-0.386931
-0.268527
-0.0262211
0.330714
0.785679
1.26937
1.67605
1.97268
2.18333
2.3318
2.43916
2.48327
2.5515
2.5477
2.55609
-0.385462
-0.398538
-0.432726
-0.344763
-0.459811
-0.144664
-0.128701
0.0890541
0.39457
0.767906
1.16267
1.49577
1.74081
1.91512
2.03518
2.12098
2.14683
2.19523
2.19282
2.19668
-0.104135
-0.114208
-0.133939
-0.0726531
-0.159871
0.0660028
0.0248767
0.207318
0.443825
0.742054
1.06491
1.33732
1.53526
1.67214
1.76166
1.82469
1.84112
1.8753
1.87593
1.87843
0.0995801
0.0911599
0.0806305
0.125465
0.0662204
0.230855
0.184584
0.325098
0.49319
0.719619
0.974379
1.19017
1.34486
1.44964
1.51638
1.56411
1.5783
1.60345
1.60752
1.60924
0.224887
0.216857
0.210243
0.241609
0.201847
0.325893
0.29763
0.406293
0.527974
0.698383
0.894472
1.0617
1.18166
1.26344
1.31581
1.35373
1.36728
1.38548
1.38935
1.39048
0.296573
0.289747
0.285522
0.306805
0.279763
0.369336
0.358916
0.444092
0.538452
0.671337
0.823849
0.954267
1.04843
1.11339
1.15514
1.1848
1.19661
1.2093
1.21227
1.21292
0.340445
0.335706
0.333632
0.347976
0.329894
0.390413
0.392105
0.456209
0.530818
0.636653
0.757412
0.860529
0.934978
0.986318
1.0191
1.04164
1.05145
1.06025
1.0625
1.06297
0.366744
0.364027
0.363621
0.373153
0.362732
0.400121
0.409044
0.455948
0.513953
0.597359
0.692938
0.774513
0.833101
0.873252
0.898766
0.915872
0.923941
0.930289
0.9321
0.932529
0.376451
0.374948
0.37509
0.381011
0.377902
0.400697
0.412074
0.44652
0.491317
0.556135
0.630949
0.694902
0.740721
0.772057
0.79204
0.805203
0.811826
0.816516
0.817945
0.818339
0.371876
0.371083
0.371459
0.375255
0.375651
0.390171
0.401598
0.427562
0.462553
0.512948
0.5713
0.621275
0.657083
0.681579
0.697277
0.70744
0.712771
0.716272
0.717363
0.717698
0.357242
0.35685
0.357275
0.359848
0.361558
0.371325
0.38148
0.401343
0.428852
0.468184
0.513731
0.552734
0.580671
0.599771
0.612034
0.619834
0.624022
0.626635
0.627442
0.627711
0.334884
0.334688
0.335067
0.336892
0.338957
0.345756
0.35423
0.369433
0.390947
0.421589
0.457121
0.487562
0.509363
0.524222
0.533764
0.539764
0.543054
0.545053
0.545671
0.545887
0.306634
0.306563
0.306923
0.308268
0.31024
0.315166
0.32199
0.333593
0.350269
0.374007
0.401634
0.425285
0.442146
0.453599
0.460964
0.465558
0.468107
0.469621
0.470063
0.470227
0.274018
0.27398
0.274202
0.275195
0.276859
0.280497
0.285879
0.294724
0.307584
0.325831
0.347041
0.365167
0.378114
0.386929
0.392624
0.396162
0.39813
0.399261
0.399583
0.399697
0.237147
0.237164
0.237437
0.238214
0.23955
0.242234
0.246374
0.253038
0.262793
0.276636
0.292793
0.306633
0.316504
0.323194
0.327509
0.330163
0.331625
0.332444
0.332649
0.332729
0.19796
0.1979
0.198034
0.198757
0.199803
0.201784
0.204887
0.209843
0.21715
0.22749
0.23953
0.249777
0.257065
0.261991
0.265144
0.267052
0.268084
0.268641
0.268762
0.268807
0.156529
0.15651
0.156619
0.157021
0.157776
0.159183
0.161436
0.164994
0.170239
0.177638
0.186255
0.193557
0.198725
0.20223
0.204455
0.20579
0.206523
0.206928
0.207014
0.207037
0.113189
0.113227
0.11335
0.113644
0.11415
0.115068
0.116566
0.118907
0.122333
0.127243
0.132991
0.137864
0.141258
0.143499
0.144902
0.14573
0.146171
0.146407
0.146428
0.146457
0.0685649
0.0685502
0.0686096
0.0687527
0.0690421
0.0695793
0.0704483
0.0718141
0.0738239
0.0766843
0.0800353
0.0828354
0.0847555
0.0859557
0.0866881
0.0871102
0.0873104
0.0874235
0.087374
0.0873805
0.0229618
0.022834
0.0227224
0.0227242
0.0228031
0.0229872
0.0232924
0.0237811
0.0245064
0.0254981
0.0267268
0.0277625
0.0284355
0.0288532
0.0291072
0.0292479
0.0292887
0.0293033
0.0292028
0.0291454
11.2284
15.9911
17.1751
18.6468
19.8478
20.9486
21.975
22.9582
23.7695
24.2211
16.424
18.759
19.4918
20.4383
21.3031
22.0842
22.7696
23.3394
23.7299
23.865
19.2751
20.4508
21.0154
21.6206
22.1826
22.6912
23.1193
23.4514
23.6303
23.668
20.8951
21.5948
21.9683
22.3687
22.7238
23.0261
23.2619
23.4386
23.5389
23.5503
21.9342
22.3148
22.5479
22.788
22.9965
23.1787
23.3187
23.4233
23.4722
23.4779
22.5303
22.77
22.9009
23.0535
23.1732
23.2795
23.353
23.4096
23.4311
23.4457
22.9122
23.0452
23.1139
23.2104
23.2763
23.347
23.3836
23.4237
23.4325
23.4545
23.1453
23.2371
23.2659
23.3412
23.3597
23.4231
23.43
23.4662
23.4703
23.4927
23.3094
23.3761
23.3772
23.436
23.4356
23.4841
23.4824
23.5162
23.5171
23.537
23.4192
23.4586
23.4632
23.4976
23.5033
23.5288
23.5303
23.5532
23.5523
23.5669
23.4886
23.5106
23.5212
23.534
23.5463
23.5589
23.5667
23.5857
23.5884
23.6029
23.5496
23.5651
23.5778
23.5916
23.6087
23.621
23.6351
23.6472
23.6529
23.6692
23.6508
23.6688
23.687
23.7001
23.7144
23.7252
23.7353
23.7418
23.7446
23.756
23.7898
23.7931
23.8052
23.8107
23.8128
23.8168
23.8215
23.8278
23.8313
23.8432
23.9039
23.8892
23.8825
23.8762
23.8715
23.8717
23.8774
23.8887
23.9029
23.931
24.0138
23.96
23.9289
23.9102
23.9028
23.9032
23.9121
23.9313
23.9615
24.0292
)
;

boundaryField
{
    wall-4
    {
        type            zeroGradient;
    }
    pressure-outlet-7
    {
        type            fixedValue;
        value           uniform 0;
    }
    velocity-inlet-6
    {
        type            zeroGradient;
    }
    velocity-inlet-5
    {
        type            zeroGradient;
    }
    frontAndBackPlanes
    {
        type            empty;
    }
}


// ************************************************************************* //
