/*--------------------------------*- C++ -*----------------------------------*\
| =========                 |                                                 |
| \\      /  F ield         | OpenFOAM: The Open Source CFD Toolbox           |
|  \\    /   O peration     | Version:  2412                                  |
|   \\  /    A nd           | Website:  www.openfoam.com                      |
|    \\/     M anipulation  |                                                 |
\*---------------------------------------------------------------------------*/
FoamFile
{
    version     2.0;
    format      ascii;
    arch        "LSB;label=32;scalar=64";
    class       surfaceScalarField;
    location    "2";
    object      phi;
}
// * * * * * * * * * * * * * * * * * * * * * * * * * * * * * * * * * * * * * //

dimensions      [0 3 -1 0 0 0 0];

oriented        oriented;

internalField   nonuniform List<scalar> 
4262
(
-0.00343496
0.223948
0.00567612
0.819542
0.000961488
1.77186
-0.0050314
3.17116
-0.0107267
5.1903
-0.0175918
8.02123
-0.0202622
11.8498
-0.022321
16.8218
-0.0198667
22.8794
-0.00329949
29.5118
0.0148272
29.5102
0.0189873
22.8777
0.0165219
16.8222
0.0145336
11.8491
0.00864986
8.02025
0.00361142
5.18964
-0.00201789
3.1708
-0.00660824
1.77173
0.00298296
0.819062
0.223496
-0.0436395
0.267587
-0.0442925
0.820195
-0.0395435
1.76711
-0.0448024
3.17642
-0.0498058
5.1953
-0.0556732
8.0271
-0.063217
11.8574
-0.0616542
16.8202
-0.0436691
22.8614
-0.00723444
29.4754
0.0297966
29.4732
0.0510434
22.8564
0.0549222
16.8183
0.0491264
11.8549
0.0444297
8.02495
0.0405644
5.19351
0.0368263
3.17453
0.0429037
1.76566
0.0430377
0.818928
0.266533
-0.0911454
0.358733
-0.128154
0.857203
-0.114173
1.75313
-0.118542
3.18079
-0.139307
5.21607
-0.137164
8.02495
-0.123369
11.8436
-0.102736
16.7996
-0.0693511
22.828
-0.0100059
29.416
0.0497325
29.4135
0.0840313
22.8221
0.107935
16.7944
0.125021
11.8378
0.129452
8.02051
0.111639
5.21132
0.109581
3.17659
0.126055
1.74918
0.0905978
0.854385
0.357131
-0.113781
0.472514
-0.208685
0.952108
-0.201446
1.74589
-0.192082
3.17142
-0.227792
5.25178
-0.258482
8.05565
-0.25213
11.8372
-0.197656
16.7451
-0.130838
22.7612
-0.0129184
29.2981
0.103968
29.2966
0.174479
22.7516
0.232717
16.7362
0.242471
11.8281
0.216005
8.04698
0.183757
5.24357
0.196599
3.16375
0.205593
1.74019
0.111839
0.948139
0.46897
-0.135498
0.608012
-0.301316
1.11793
-0.339609
1.78418
-0.339085
3.1709
-0.356112
5.2688
-0.384088
8.08362
-0.389326
11.8424
-0.312166
16.668
-0.199676
22.6487
-0.0180281
29.1164
0.162612
29.1159
0.280482
22.6337
0.363989
16.6527
0.364472
11.8276
0.34195
8.0695
0.330315
5.2552
0.334289
3.15978
0.298779
1.7757
0.135067
1.11185
0.604037
-0.180779
0.788791
-0.412962
1.35011
-0.56636
1.93758
-0.614738
3.21928
-0.593605
5.24767
-0.589345
8.07936
-0.582875
11.836
-0.490441
16.5755
-0.312378
22.4706
-0.0211606
28.8252
0.269718
28.8251
0.451065
22.4524
0.550057
16.5537
0.565168
11.8125
0.578478
8.05619
0.606077
5.2276
0.56216
3.20369
0.411633
1.92622
0.180469
1.34302
0.784506
-0.233885
1.02268
-0.526347
1.64257
-0.797207
2.20844
-0.925929
3.348
-0.899756
5.2215
-0.828388
8.00799
-0.727121
11.7347
-0.655689
16.5041
-0.440462
22.2554
-0.0286726
28.4134
0.387531
28.4088
0.612815
22.2271
0.694694
16.4718
0.803581
11.7036
0.884212
7.97556
0.914996
5.19682
0.789406
3.32928
0.519784
2.19585
0.229739
1.63306
1.01425
-0.26699
1.28967
-0.608735
1.98432
-0.95622
2.55593
-1.18847
3.58025
-1.23833
5.27135
-1.14687
7.91653
-0.920176
11.508
-0.743678
16.3276
-0.474919
21.9866
-0.0335267
27.972
0.410019
27.9653
0.685221
21.9519
0.877909
16.2791
1.11887
11.4626
1.21986
7.87457
1.17788
5.2388
0.949872
3.55729
0.604503
2.54122
0.265338
1.97223
1.27958
-0.279991
1.56966
-0.657025
2.36135
-1.06406
2.96296
-1.40095
3.91715
-1.57729
5.44769
-1.55013
7.88937
-1.32166
11.2795
-0.967833
15.9738
-0.56891
21.5877
-0.0399798
27.4431
0.493906
27.4314
0.902164
21.5436
1.27126
15.91
1.5182
11.2157
1.55381
7.83896
1.38412
5.40849
1.0521
3.88931
0.650355
2.94296
0.277128
2.34545
1.55671
-0.274509
1.84417
-0.668173
2.75501
-1.1126
3.40738
-1.53024
4.33479
-1.82657
5.74402
-1.8935
7.9563
-1.76709
11.1531
-1.3414
15.5481
-0.773407
21.0197
-0.0491585
26.7189
0.68382
26.6984
1.26986
20.9576
1.71125
15.4686
1.85497
11.072
1.79591
7.89801
1.50653
5.69787
1.09517
4.30068
0.656532
3.3816
0.267448
2.73454
1.82416
-0.247506
2.09167
-0.631624
3.13913
-1.07841
3.85417
-1.53143
4.78781
-1.90926
6.12185
-2.07071
8.11775
-2.01741
11.0998
-1.61792
15.1486
-0.935846
20.3377
-0.0603061
25.8433
0.822172
25.816
1.52981
20.25
1.94522
15.0532
2.01148
11.0057
1.86628
8.04322
1.49829
6.06585
1.05407
4.74491
0.615205
3.82046
0.23838
3.11136
2.06254
-0.2033
2.29497
-0.552462
3.48829
-0.96727
4.26898
-1.40879
5.22932
-1.81835
6.53141
-2.07392
8.37332
-2.06816
11.0941
-1.72604
14.8065
-1.00234
19.6139
-0.0720157
24.913
0.867944
24.876
1.61149
19.5064
1.97558
14.6891
1.99587
10.9854
1.75922
8.27987
1.36344
6.46162
0.934047
5.1743
0.529983
4.22452
0.192548
3.4488
2.25509
-0.155749
2.45072
-0.455436
3.78798
-0.818064
4.63161
-1.2167
5.62796
-1.61354
6.92825
-1.92656
8.68635
-1.98791
11.1554
-1.70628
14.5248
-1.02961
18.9373
-0.0852219
23.9686
0.869437
23.9213
1.56718
18.8087
1.87083
14.3855
1.82646
11.0298
1.52959
8.57675
1.15215
6.83907
0.772194
5.55426
0.426623
4.57009
0.142307
3.73311
2.39739
-0.112051
2.56277
-0.355878
4.03181
-0.654588
4.93032
-0.989011
5.96238
-1.33519
7.27444
-1.63106
8.98222
-1.75166
11.276
-1.57312
14.3463
-1.0109
18.3751
-0.111107
23.0688
0.804805
23.0054
1.39401
18.2195
1.59753
14.182
1.50357
11.1238
1.23127
8.84904
0.909763
7.16058
0.598425
5.8656
0.320792
4.84772
0.0923914
3.96151
2.48979
-0.0798363
2.64261
-0.271022
4.22299
-0.506645
5.16594
-0.773883
6.22962
-1.05436
7.55491
-1.30591
9.23377
-1.44144
11.4116
-1.35618
14.261
-0.922301
17.9412
-0.145053
22.2916
0.656709
22.2037
1.11792
17.7583
1.24227
14.0576
1.14102
11.225
0.922613
9.06745
0.672937
7.41025
0.433698
6.10484
0.222219
5.0592
0.0489043
4.13483
2.53869
-0.0542025
2.69681
-0.199997
4.36879
-0.380214
5.34616
-0.586788
6.43619
-0.808257
7.77638
-1.01578
9.44129
-1.14705
11.5428
-1.11651
14.2305
-0.795524
17.6202
-0.178978
21.675
0.456378
21.5683
0.801947
17.4127
0.882251
13.9773
0.800072
11.3072
0.639961
9.22756
0.460665
7.58955
0.288676
6.27682
0.138334
5.20954
0.023247
4.24992
2.56194
-0.0438282
2.74064
-0.154725
4.47968
-0.292587
5.48402
-0.452104
6.59571
-0.622842
7.94712
-0.787684
9.60613
-0.905014
11.6602
-0.900767
14.2263
-0.678447
17.3979
-0.219885
21.2165
0.250942
21.0975
0.503643
17.16
0.562278
13.9187
0.507226
11.3622
0.401886
9.3329
0.285181
7.70625
0.174532
6.38747
0.0779052
5.30617
0.00901184
4.31881
2.57095
-0.035022
2.77566
-0.120519
4.56518
-0.227969
5.59147
-0.35218
6.71992
-0.487408
8.08235
-0.621477
9.7402
-0.72483
11.7635
-0.738228
14.2396
-0.604648
17.2643
-0.284201
20.896
0.0548377
20.7584
0.244495
16.9703
0.298052
13.8651
0.275897
11.3844
0.220175
9.38862
0.153945
7.77248
0.0896855
6.45173
0.0363649
5.35949
0.000813299
4.35436
2.57176
-0.0424998
2.81816
-0.115087
4.63777
-0.201796
5.67818
-0.301686
6.81981
-0.411777
8.19244
-0.52218
9.8506
-0.616462
11.8578
-0.653389
14.2766
-0.595346
17.2063
-0.37514
20.6758
-0.132545
20.5159
0.019184
16.8186
0.0791045
13.8052
0.0877607
11.3757
0.069929
9.40646
0.0441468
7.79827
0.0188284
6.47705
0.00116289
5.37716
-0.00662446
4.36215
2.56514
-0.0396126
2.85777
-0.102032
4.70019
-0.182652
5.7588
-0.277625
6.91478
-0.381304
8.29612
-0.487878
9.95718
-0.584505
11.9544
-0.642044
14.3341
-0.638721
17.2029
-0.492863
20.5299
-0.308515
20.3315
-0.178721
16.6888
-0.105545
13.732
-0.064584
11.3348
-0.0420448
9.38392
-0.030683
7.7869
-0.0240931
6.47046
-0.0192592
5.37232
-0.0140012
4.35689
2.55114
-0.0623014
2.92007
-0.133544
4.77143
-0.209609
5.83486
-0.295362
7.00054
-0.395444
8.3962
-0.503373
10.0651
-0.602149
12.0532
-0.677616
14.4096
-0.713167
17.2385
-0.624041
20.4408
-0.476053
20.1835
-0.355644
16.5684
-0.266423
13.6428
-0.19968
11.268
-0.148787
9.33302
-0.108655
7.74677
-0.0785192
6.44032
-0.0566367
5.35044
-0.0351238
4.33538
2.51601
-0.0610724
2.98115
-0.132213
4.84257
-0.224734
5.92738
-0.335586
7.11139
-0.457678
8.51829
-0.580533
10.188
-0.694274
12.1669
-0.786541
14.5018
-0.846981
17.2989
-0.787872
20.3817
-0.657907
20.0535
-0.536022
16.4465
-0.428302
13.5351
-0.335062
11.1748
-0.254633
9.2526
-0.184482
7.67662
-0.12371
6.37955
-0.0788753
5.30561
-0.0454978
4.302
2.47052
-0.108881
3.09003
-0.21129
4.94498
-0.315806
6.0319
-0.436036
7.23162
-0.574753
8.65701
-0.72308
10.3363
-0.85668
12.3005
-0.965562
14.6107
-1.02702
17.3604
-0.976299
20.331
-0.852258
19.9295
-0.719579
16.3138
-0.591238
13.4067
-0.474274
11.0578
-0.370569
9.14889
-0.28342
7.58947
-0.211199
6.30733
-0.14663
5.24104
-0.0749648
4.23033
2.39555
-0.140767
3.23079
-0.259467
5.06368
-0.411792
6.18422
-0.594408
7.41423
-0.77982
8.84242
-0.950069
10.5065
-1.09905
12.4495
-1.21459
14.7263
-1.25971
17.4055
-1.20819
20.2795
-1.07859
19.7999
-0.928007
16.1633
-0.777455
13.2562
-0.636649
10.917
-0.50581
9.01805
-0.382521
7.46618
-0.270524
6.19534
-0.174315
5.14483
-0.0874454
4.14346
2.30811
-0.25137
3.48216
-0.422566
5.23488
-0.644248
6.40591
-0.860223
7.63021
-1.06399
9.04618
-1.25653
10.6991
-1.41943
12.6124
-1.53117
14.838
-1.55028
17.4246
-1.48265
20.2118
-1.33355
19.6508
-1.15774
15.9875
-0.97971
13.0782
-0.809261
10.7466
-0.653685
8.86247
-0.516413
7.32891
-0.390885
6.06981
-0.268799
5.02274
-0.133367
4.00803
2.17474
-0.366709
3.84887
-0.731655
5.59982
-1.03766
6.71192
-1.27234
7.86488
-1.49215
9.26599
-1.68583
10.8928
-1.83713
12.7637
-1.92026
14.9211
-1.90136
17.4057
-1.80199
20.1125
-1.62145
19.4703
-1.41784
15.7838
-1.21643
12.8767
-1.02439
10.5545
-0.842698
8.68078
-0.673726
7.15994
-0.519823
5.91591
-0.363756
4.86667
-0.17185
3.81613
2.00289
-0.250435
4.09931
-0.533859
5.88325
-0.78024
6.9583
-1.07296
8.1576
-1.36259
9.55562
-1.62419
11.1544
-1.84658
12.9861
-2.01539
15.09
-2.10366
17.494
-2.11172
20.1205
-1.99262
19.3512
-1.79671
15.5879
-1.56221
12.6422
-1.3097
10.302
-1.05083
8.42191
-0.792211
6.90132
-0.546314
5.67001
-0.330844
4.6512
-0.137956
3.62324
1.86493
-0.100686
4.19999
-0.201972
5.98453
-0.424428
7.18075
-0.665794
8.39897
-0.898398
9.78822
-1.11217
11.3681
-1.30124
13.1752
-1.45308
15.2418
-1.53376
17.5747
-1.5294
20.1162
-1.40579
19.2276
-1.21827
15.4004
-1.00188
12.4258
-0.781366
10.0815
-0.576697
8.21724
-0.395673
6.7203
-0.231768
5.5061
-0.0866445
4.50608
-0.0163526
3.55295
1.84858
-0.0812265
4.28122
-0.163803
6.06711
-0.269845
7.2868
-0.435749
8.56487
-0.608749
9.96122
-0.776435
11.5358
-0.938428
13.3372
-1.06983
15.3732
-1.1384
17.6432
-1.12969
20.1075
-1.02165
19.1195
-0.867076
15.2458
-0.698726
12.2575
-0.534914
9.91771
-0.385993
8.06831
-0.259194
6.5935
-0.15279
5.3997
-0.0554097
4.4087
0.0164513
3.48109
1.86503
-0.0435271
4.32475
-0.141835
6.16542
-0.253905
7.39886
-0.338025
8.64899
-0.434636
10.0578
-0.567573
11.6688
-0.702931
13.4725
-0.813023
15.4833
-0.87205
17.7023
-0.867094
20.1025
-0.78271
19.0351
-0.663349
15.1265
-0.536044
12.1302
-0.412253
9.79392
-0.294985
7.95105
-0.186655
6.48517
-0.0959981
5.30904
-0.0178569
4.33056
0.0219106
3.44132
1.88694
-0.0100926
4.33484
-0.125649
6.28097
-0.210175
7.48339
-0.273395
8.71221
-0.347593
10.132
-0.447386
11.7686
-0.553057
13.5782
-0.644329
15.5746
-0.697245
17.7552
-0.697195
20.1025
-0.630025
18.968
-0.53267
15.0291
-0.427993
12.0255
-0.326537
9.69246
-0.231533
7.85604
-0.145099
6.39874
-0.0710669
5.23501
-0.0111147
4.27061
0.0184441
3.41176
1.90539
0.00972577
4.32511
-0.073784
6.36448
-0.143709
7.55332
-0.203597
8.7721
-0.293474
10.2219
-0.379318
11.8544
-0.463372
13.6623
-0.536757
15.6479
-0.580789
17.7992
-0.581467
20.1031
-0.525015
18.9115
-0.441788
14.9459
-0.351794
11.9355
-0.266297
9.60696
-0.18938
7.77912
-0.121414
6.33077
-0.0662984
5.17989
-0.0227683
4.22708
0.00411451
3.38488
1.9095
-0.00606663
4.33118
-0.0430191
6.40143
-0.0961188
7.60642
-0.169034
8.84501
-0.252688
10.3056
-0.330447
11.9322
-0.402795
13.7346
-0.462752
15.7079
-0.500683
17.8371
-0.504535
20.107
-0.457572
18.8645
-0.385243
14.8736
-0.306978
11.8573
-0.233825
9.53381
-0.169883
7.71518
-0.113538
6.27442
-0.0679856
5.13434
-0.0326748
4.19177
-0.0105045
3.36271
1.899
0.0107499
4.32043
-0.0356671
6.44785
-0.0859065
7.65666
-0.154526
8.91363
-0.22137
10.3724
-0.291291
12.0021
-0.357372
13.8007
-0.410739
15.7613
-0.448421
17.8748
-0.456565
20.1151
-0.417562
18.8255
-0.354803
14.8108
-0.285799
11.7882
-0.219726
9.46774
-0.161691
7.65715
-0.112539
6.22527
-0.070571
5.09237
-0.0355079
4.1567
-0.0124401
3.33964
1.88656
0.0254023
4.29503
-0.0143826
6.48764
-0.0682171
7.71049
-0.133088
8.9785
-0.196275
10.4356
-0.260112
12.0659
-0.320353
13.8609
-0.371589
15.8125
-0.412093
17.9153
-0.42628
20.1293
-0.397548
18.7968
-0.343381
14.7566
-0.280419
11.7253
-0.219699
9.40702
-0.165726
7.60317
-0.116566
6.17611
-0.0743703
5.05018
-0.0411968
4.12353
-0.014732
3.31317
1.87182
-0.00775967
4.30279
-0.0412683
6.52115
-0.0678389
7.73706
-0.117732
9.0284
-0.177214
10.4951
-0.234097
12.1228
-0.288995
13.9158
-0.340367
15.8639
-0.386605
17.9616
-0.409739
20.1524
-0.392755
18.7798
-0.347153
14.711
-0.289093
11.6672
-0.228333
9.34626
-0.171138
7.54598
-0.122946
6.12792
-0.080181
5.00741
-0.0461254
4.08947
-0.0166695
3.28372
1.85515
0.0197566
4.28303
-0.0233121
6.56421
-0.0688009
7.78255
-0.110154
9.06975
-0.158461
10.5434
-0.210751
12.1751
-0.263654
13.9687
-0.316554
15.9168
-0.368055
18.0131
-0.399283
20.1837
-0.393915
18.7745
-0.355662
14.6728
-0.299547
11.6111
-0.239787
9.2865
-0.186554
7.49275
-0.140089
6.08146
-0.0968661
4.96419
-0.0597104
4.05232
-0.0242139
3.24822
1.83094
-0.00582089
4.28885
-0.0365057
6.5949
-0.0583973
7.80444
-0.101191
9.11254
-0.144616
10.5868
-0.192967
12.2234
-0.243835
14.0196
-0.298378
15.9713
-0.352951
18.0676
-0.392654
20.2234
-0.402402
18.7842
-0.37901
14.6494
-0.334623
11.5667
-0.277586
9.22946
-0.213411
7.42857
-0.14972
6.01776
-0.0951116
4.90958
-0.0607115
4.01792
-0.0291013
3.21661
1.80184
0.00994291
4.27891
-0.0181622
6.623
-0.0520343
7.83831
-0.0921744
9.15268
-0.132923
10.6276
-0.179066
12.2696
-0.227831
14.0684
-0.283997
16.0275
-0.340521
18.1242
-0.389044
20.2719
-0.41303
18.8082
-0.398812
14.6352
-0.352939
11.5209
-0.287652
9.16417
-0.227525
7.36845
-0.184022
5.97426
-0.139722
4.86528
-0.0837195
3.96192
-0.0349075
3.1678
1.76693
0.00171264
4.2772
-0.0298036
6.65452
-0.0519584
7.86047
-0.0871928
9.18792
-0.125131
10.6655
-0.16781
12.3123
-0.214567
14.1151
-0.27146
16.0844
-0.329159
18.1819
-0.385389
20.3281
-0.422556
18.8454
-0.425005
14.6376
-0.401586
11.4974
-0.359669
9.12225
-0.287666
7.29644
-0.197163
5.88376
-0.122076
4.79019
-0.0879351
3.92778
-0.0476152
3.12748
1.71932
0.000541014
4.27666
-0.0217702
6.67683
-0.043817
7.88251
-0.0815172
9.22562
-0.117475
10.7015
-0.157231
12.352
-0.203144
14.161
-0.259738
16.141
-0.318319
18.2404
-0.381683
20.3915
-0.431566
18.8952
-0.448248
14.6543
-0.42611
11.4753
-0.371051
9.0672
-0.315132
7.24052
-0.264952
5.83358
-0.205491
4.73073
-0.119249
3.84153
-0.0514604
3.05969
1.66786
0.00958762
4.26707
-0.0142019
6.70062
-0.0424405
7.91075
-0.0755472
9.25872
-0.109203
10.7351
-0.147223
12.39
-0.192445
14.2063
-0.247795
16.1963
-0.307247
18.2999
-0.376505
20.4608
-0.436169
18.9549
-0.468189
14.6863
-0.472858
11.48
-0.451263
9.0456
-0.381573
7.17084
-0.281738
5.73374
-0.184692
4.63369
-0.13184
3.78868
-0.070641
2.99849
1.59721
-0.00966888
4.27674
-0.0331907
6.72414
-0.0403599
7.91792
-0.0711374
9.2895
-0.101615
10.7656
-0.137412
12.4258
-0.181822
14.2507
-0.235695
16.2502
-0.29592
18.3601
-0.3697
20.5345
-0.438618
19.0238
-0.484447
14.7322
-0.497915
11.4934
-0.474897
9.02258
-0.440396
7.13633
-0.391646
5.68499
-0.310589
4.55263
-0.185751
3.66384
-0.0776856
2.89043
1.51953
0.010378
4.26636
-0.0073005
6.74182
-0.0378392
7.94846
-0.0665294
9.31819
-0.0947018
10.7938
-0.128295
12.4594
-0.17124
14.2936
-0.223304
16.3023
-0.283926
18.4207
-0.361163
20.6118
-0.438282
19.1009
-0.49674
14.7906
-0.533699
11.5304
-0.549366
9.03825
-0.521417
7.10838
-0.446802
5.61038
-0.344421
4.45025
-0.230345
3.54977
-0.104757
2.76484
1.41477
-0.0071845
4.27354
-0.0268202
6.76146
-0.0339834
7.95562
-0.0620779
9.34629
-0.0874519
10.8191
-0.119656
12.4916
-0.16084
14.3348
-0.210937
16.3524
-0.271538
18.4813
-0.350836
20.6911
-0.434148
19.1843
-0.503519
14.86
-0.549942
11.5768
-0.563023
9.05133
-0.556023
7.10138
-0.541456
5.59581
-0.487303
4.3961
-0.353617
3.41608
-0.162473
2.57369
1.2523
0.00279171
4.27075
-0.0156771
6.77993
-0.0330883
7.97304
-0.0569762
9.37018
-0.0812075
10.8434
-0.112206
12.5226
-0.151686
14.3743
-0.200106
16.4008
-0.260635
18.5419
-0.341354
20.7718
-0.430509
19.2734
-0.511933
14.9414
-0.577501
11.6424
-0.623723
9.09755
-0.643515
7.12118
-0.622641
5.57494
-0.575904
4.34936
-0.476268
3.31645
-0.214928
2.31235
1.03737
-0.00329475
4.27405
-0.0159139
6.79255
-0.0331964
7.99032
-0.0574584
9.39444
-0.0810098
10.8669
-0.11067
12.5523
-0.151154
14.4148
-0.201606
16.4512
-0.267285
18.6075
-0.357027
20.8615
-0.46104
19.3774
-0.562586
15.043
-0.652813
11.7326
-0.717986
9.16273
-0.747883
7.15107
-0.765115
5.59217
-0.784775
4.36902
-0.851593
3.38326
-0.767234
2.22799
1.20167
-0.931532
-0.00707437
4.28112
-0.0198917
6.80536
-0.0310764
8.0015
-0.0527251
9.41609
-0.0763842
10.8906
-0.1057
12.5816
-0.145768
14.4548
-0.196199
16.5017
-0.263954
18.6753
-0.35836
20.9559
-0.472741
19.4918
-0.592878
15.1631
-0.712562
11.8523
-0.825575
9.27574
-0.940687
7.26618
-1.04426
5.69574
-1.1341
4.45887
-1.08973
3.33889
-0.941498
2.07977
1.4221
-1.16192
-0.000446715
4.28157
-0.0158663
6.82078
-0.0284453
8.01408
-0.0472359
9.43488
-0.0708663
10.9142
-0.100817
12.6116
-0.140099
14.4941
-0.190579
16.5521
-0.260028
18.7448
-0.359054
21.055
-0.483902
19.6167
-0.620757
15.3
-0.767956
11.9995
-0.918901
9.42669
-1.05969
7.40697
-1.18778
5.82383
-1.26036
4.53145
-1.19187
3.2704
-1.28911
2.17701
1.71211
-1.57912
0.000735059
4.28083
-0.0139061
6.83542
-0.0279711
8.02815
-0.0478123
9.45472
-0.0706153
10.937
-0.095296
12.6362
-0.133685
14.5325
-0.183824
16.6023
-0.254477
18.8154
-0.357525
21.158
-0.491485
19.7506
-0.64407
15.4525
-0.817344
12.1728
-1.0075
9.61685
-1.21302
7.61248
-1.39044
6.00125
-1.46468
4.60569
-1.4712
3.27692
-1.65978
2.36559
1.92622
-1.87389
-0.0029364
4.28377
-0.0147397
6.84723
-0.0304014
8.04381
-0.0456049
9.46992
-0.0672299
10.9586
-0.0898612
12.6589
-0.127765
14.5704
-0.176755
16.6513
-0.248217
18.8869
-0.354421
21.2642
-0.496313
19.8925
-0.66302
15.6192
-0.857605
12.3673
-1.06965
9.82889
-1.26885
7.81168
-1.42378
6.15619
-1.51186
4.69377
-1.59969
3.36474
-1.82835
2.59426
2.13485
-2.03698
-0.00536149
4.28913
-0.00797982
6.84985
-0.016836
8.05267
-0.0371028
9.49019
-0.0575779
10.9791
-0.0874503
12.6887
-0.125286
14.6082
-0.174215
16.7002
-0.246554
18.9592
-0.355716
21.3734
-0.504326
20.0411
-0.680813
15.7957
-0.886584
12.5731
-1.11182
10.0541
-1.34242
8.04228
-1.58335
6.39711
-1.76714
4.87756
-1.94165
3.53925
-2.16143
2.81404
2.29632
-2.3229
0.00162343
4.28751
-0.0204469
6.87192
-0.0234703
8.05569
-0.0408462
9.50756
-0.0579479
10.9962
-0.0888512
12.7196
-0.126133
14.6455
-0.176038
16.7501
-0.249203
19.0324
-0.361538
21.4857
-0.514508
20.1941
-0.695712
15.9769
-0.91061
12.788
-1.15478
10.2983
-1.39691
8.28441
-1.578
6.5782
-1.73474
5.0343
-1.9898
3.79432
-2.23509
3.05933
2.49567
-2.43445
0.0088054
4.2787
-0.00950142
6.89022
-0.0265071
8.07269
-0.0477944
9.52885
-0.0650009
11.0134
-0.0904004
12.745
-0.127377
14.6825
-0.177284
16.8
-0.250804
19.1059
-0.365152
21.6001
-0.52114
20.3501
-0.702791
16.1586
-0.915449
13.0007
-1.17078
10.5536
-1.44624
8.55987
-1.68913
6.82109
-1.93982
5.285
-2.32454
4.17903
-2.7427
3.47749
2.78474
-3.03177
-0.00486526
4.28357
-0.0126
6.89796
-0.0210642
8.08116
-0.041753
9.54954
-0.0640618
11.0357
-0.0916536
12.7726
-0.129034
14.7199
-0.1785
16.8495
-0.251792
19.1792
-0.366319
21.7146
-0.524318
20.5081
-0.708169
16.3424
-0.915894
13.2084
-1.16911
10.8068
-1.47255
8.86331
-1.751
7.09954
-1.9513
5.48529
-2.38021
4.60795
-2.91245
4.00973
3.00159
-3.1293
-0.00283721
4.28641
-0.0124327
6.90755
-0.021685
8.09041
-0.0403865
9.56824
-0.0620057
11.0573
-0.0920297
12.8027
-0.129441
14.7573
-0.178802
16.8988
-0.250817
19.2512
-0.363399
21.8272
-0.520969
20.6656
-0.701641
16.5231
-0.905581
13.4123
-1.13124
11.0325
-1.40381
9.13589
-1.72163
7.41736
-2.16244
5.9261
-2.58786
5.03336
-3.16166
4.58354
3.84377
-4.00385
0.00633377
4.28007
-0.0104929
6.92438
-0.0274713
8.10739
-0.0477929
9.58856
-0.0672676
11.0768
-0.0938098
12.8292
-0.129304
14.7928
-0.177085
16.9466
-0.244947
19.3191
-0.349811
21.932
-0.493794
20.8096
-0.65678
16.6861
-0.844517
13.6001
-1.0413
11.2293
-1.24851
9.34309
-1.49216
7.66102
-1.87983
6.31377
-2.11476
5.26829
-1.56162
4.0304
2.28216
0.000750852
4.27932
-0.0129208
6.93805
-0.0243703
8.11884
-0.0454687
9.60966
-0.0670645
11.0984
-0.0948499
12.857
-0.131137
14.8291
-0.180371
16.9958
-0.249647
19.3883
-0.35476
22.0371
-0.495319
20.9502
-0.64822
16.839
-0.818729
13.7706
-0.991383
11.4019
-1.12583
9.47754
-1.18485
7.72004
-1.12256
6.25148
-1.02217
5.1679
-0.709409
3.71764
1.57275
0.000559078
4.27876
-0.0119423
6.95055
-0.0209936
8.12789
-0.0414342
9.6301
-0.0642387
11.1212
-0.0936475
12.8864
-0.131068
14.8665
-0.180313
17.0451
-0.249002
19.457
-0.351212
22.1394
-0.48416
21.0831
-0.620985
16.9758
-0.762316
13.9119
-0.876089
11.5157
-0.92173
9.52318
-0.901393
7.6997
-0.902902
6.25298
-0.905409
5.17041
-0.802712
3.61494
0.770036
0.00535559
4.27341
-0.010293
6.9662
-0.0199138
8.13751
-0.0419162
9.6521
-0.0624002
11.1417
-0.0900352
12.914
-0.128282
14.9047
-0.176105
17.0929
-0.242227
19.5231
-0.338832
22.236
-0.456761
21.2011
-0.564371
17.0834
-0.639265
13.9868
-0.713392
11.5898
-0.721
9.53079
-0.730528
7.70923
-0.768166
6.29062
-0.754124
5.15636
-0.389184
3.25
0.380852
0.00713962
4.26627
-0.00942625
6.98277
-0.017031
8.14512
-0.0386891
9.67376
-0.0594936
11.1625
-0.0853316
12.9399
-0.124233
14.9436
-0.167145
17.1358
-0.228498
19.5845
-0.315985
22.3235
-0.410856
21.2959
-0.483235
17.1558
-0.508198
14.0118
-0.531241
11.6129
-0.535162
9.53471
-0.57223
7.7463
-0.514037
6.23243
-0.331963
4.97429
-0.102472
3.02051
0.27838
0.00806201
4.2582
-0.00667377
6.9975
-0.0126155
8.15106
-0.0332914
9.69444
-0.0512969
11.1805
-0.0753451
12.9639
-0.114829
14.9831
-0.150101
17.1711
-0.206894
19.6413
-0.281673
22.3982
-0.344465
21.3587
-0.378775
17.1901
-0.376278
14.0093
-0.330117
11.5667
-0.270846
9.47544
-0.21479
7.69024
-0.174788
6.19243
0.0146775
4.78482
0.0816074
2.95358
0.359988
0.0124965
4.24571
-0.00144518
7.01144
-0.0067499
8.15636
-0.0273652
9.71505
-0.039748
11.1929
-0.063932
12.9881
-0.101297
15.0205
-0.126797
17.1966
-0.17816
19.6927
-0.235837
22.4559
-0.271206
21.3941
-0.269345
17.1883
-0.237173
13.9771
-0.129728
11.4593
-0.022585
9.3683
0.1047
7.56295
0.22247
6.07466
0.279536
4.72776
0.277716
2.9554
0.637704
0.0153982
4.23031
0.00454419
7.0223
0.00211044
8.1588
-0.0152094
9.73237
-0.0212609
11.1989
-0.048066
13.0149
-0.0761337
15.0486
-0.0961739
17.2166
-0.141341
19.7378
-0.180649
22.4952
-0.19506
21.4085
-0.162613
17.1558
-0.0907618
13.9053
0.0331912
11.3353
0.161065
9.24042
0.270236
7.45378
0.402244
5.94265
0.471239
4.65876
0.365503
3.06114
1.00321
0.0204741
4.20984
0.0127844
7.02999
0.0135421
8.15804
-0.000561029
9.74648
-0.00227552
11.2007
-0.0306701
13.0433
-0.0399704
15.0579
-0.0640988
17.2408
-0.0980587
19.7718
-0.118197
22.5154
-0.115409
21.4057
-0.0666821
17.1071
0.0153111
13.8233
0.132798
11.2178
0.263501
9.10972
0.349821
7.36746
0.410773
5.8817
0.446312
4.62322
0.332025
3.17542
1.33523
0.025889
4.18395
0.022435
7.03344
0.0303587
8.15011
0.0157347
9.7611
0.0258648
11.1905
-0.00301735
13.0722
0.0103168
15.0445
-0.026181
17.2773
-0.0430182
19.7886
-0.0523613
22.5247
-0.0405667
21.3939
0.0054489
17.0611
0.0980182
13.7307
0.203799
11.1121
0.324606
8.98891
0.386838
7.30523
0.414065
5.85447
0.401464
4.63583
0.279584
3.2973
1.61482
0.0343658
4.14958
0.0345359
7.03327
0.0481303
8.13652
0.0364085
9.77282
0.0521206
11.1748
0.0378165
13.0865
0.0509484
15.0314
0.0275981
17.3006
0.0217994
19.7944
0.0160411
22.5305
0.0373455
21.3726
0.0866087
17.0118
0.165788
13.6515
0.25227
11.0256
0.348274
8.89291
0.399859
7.25365
0.420614
5.83371
0.384649
4.67179
0.241165
3.44079
1.85598
0.0425316
4.10705
0.0502112
7.02559
0.0694608
8.11727
0.0757203
9.76656
0.0930374
11.1575
0.100853
13.0787
0.108792
15.0235
0.109296
17.3001
0.109272
19.7944
0.110839
22.5289
0.128519
21.3549
0.16496
16.9754
0.212274
13.6042
0.266499
10.9713
0.326338
8.83307
0.368968
7.21102
0.373037
5.82965
0.331627
4.7132
0.195971
3.57644
2.05195
0.0537999
4.05325
0.0761707
7.00322
0.102507
8.09093
0.120176
9.74889
0.146058
11.1316
0.164783
13.0599
0.185748
15.0025
0.198312
17.2875
0.21027
19.7825
0.213238
22.5259
0.221516
21.3467
0.239073
16.9578
0.258067
13.5852
0.280779
10.9486
0.290544
8.8233
0.311936
7.18963
0.296496
5.84509
0.258723
4.75097
0.14164
3.69352
2.19359
0.0701057
3.98314
0.103789
6.96954
0.140895
8.05383
0.176971
9.71282
0.215013
11.0936
0.247718
13.0272
0.288283
14.9619
0.31163
17.2642
0.333779
19.7603
0.334728
22.525
0.323974
21.3574
0.314661
16.9671
0.309704
13.5902
0.29961
10.9587
0.25766
8.86525
0.252791
7.1945
0.225029
5.87285
0.188214
4.78779
0.093812
3.78793
2.2874
0.0850501
3.89809
0.142366
6.91222
0.194043
8.00215
0.248608
9.65825
0.304369
11.0378
0.358475
12.9731
0.416111
14.9043
0.456197
17.2241
0.482178
19.7344
0.4763
22.5309
0.446587
21.3871
0.411307
17.0024
0.380451
13.621
0.341103
10.9981
0.267638
8.93872
0.232744
7.22939
0.185346
5.92024
0.140526
4.83261
0.0525599
3.87589
2.33996
0.118702
3.77939
0.197064
6.83386
0.265844
7.93337
0.349587
9.57451
0.426433
10.961
0.50695
12.8926
0.579249
14.832
0.639069
17.1643
0.67009
19.7033
0.659089
22.5419
0.609806
21.4364
0.54147
17.0707
0.468659
13.6938
0.392034
11.0747
0.299862
9.03089
0.228127
7.30112
0.162071
5.9863
0.108128
4.88655
0.0344409
3.94958
2.3744
0.148572
3.63082
0.267809
6.71462
0.368707
7.83247
0.484028
9.45919
0.585201
10.8598
0.696804
12.781
0.795231
14.7336
0.875081
17.0844
0.914349
19.6641
0.899841
22.5564
0.827215
21.509
0.722131
17.1758
0.605007
13.811
0.492665
11.187
0.387108
9.13645
0.285903
7.40233
0.197957
6.07425
0.120329
4.96418
0.046015
4.02389
2.42042
0.211292
3.41953
0.373459
6.55246
0.50965
7.69628
0.6701
9.29874
0.806728
10.7232
0.957831
12.6299
1.0882
14.6032
1.19032
16.9823
1.24294
19.6114
1.2276
22.5717
1.13087
21.6058
0.986964
17.3197
0.820771
13.9771
0.658079
11.3497
0.513952
9.28058
0.367833
7.54845
0.250303
6.19178
0.144138
5.07035
0.0621209
4.10591
2.48254
0.290267
3.12926
0.536765
6.30596
0.73523
7.49782
0.943551
9.09042
1.11628
10.5504
1.3045
12.4417
1.47057
14.4371
1.60246
16.8504
1.67856
19.5353
1.67357
22.5767
1.56389
21.7154
1.39019
17.4934
1.18428
14.1831
0.97553
11.5585
0.785151
9.47095
0.591434
7.74217
0.418735
6.36448
0.262448
5.22663
0.124834
4.24353
2.60737
0.455266
2.67399
0.818842
5.94238
1.06123
7.25543
1.32072
8.83092
1.54904
10.3221
1.79748
12.1933
2.00412
14.2305
2.175
16.6796
2.29018
19.4202
2.31153
22.5553
2.20166
21.8253
2.00781
17.6873
1.76769
14.4232
1.50714
11.819
1.24613
9.73196
0.972403
8.01589
0.710709
6.62617
0.467327
5.47002
0.240032
4.47082
2.84741
0.361776
2.31222
0.720202
5.58396
0.983955
6.99168
1.29183
8.52304
1.53288
10.0811
1.74585
11.9803
1.89063
14.0857
1.99687
16.5733
2.02521
19.3918
1.94432
22.6362
1.76384
22.0058
1.54885
17.9023
1.32491
14.6471
1.1063
12.0376
0.901923
9.93634
0.704348
8.21347
0.519076
6.81144
0.351547
5.63754
0.177788
4.64458
3.02519
0.0659831
2.24623
0.210458
5.43948
0.449403
6.75274
0.720913
8.25153
0.929577
9.87242
1.13604
11.7738
1.32473
13.897
1.48093
16.4171
1.55617
19.3166
1.52332
22.6691
1.38866
22.1405
1.20976
18.0812
1.01498
14.8419
0.820848
12.2318
0.639463
10.1177
0.466231
8.3867
0.31176
6.96591
0.172303
5.777
0.0685194
4.74836
3.09371
-0.0191452
2.26538
0.0912784
5.32906
0.201061
6.64295
0.365136
8.08746
0.529392
9.70816
0.735324
11.5679
0.926493
13.7058
1.08351
16.2601
1.17548
19.2246
1.17906
22.6655
1.08348
22.236
0.93748
18.2272
0.773518
15.0059
0.608882
12.3964
0.457251
10.2694
0.322069
8.52188
0.207518
7.08046
0.11077
5.87375
0.0356474
4.82349
3.12936
-0.0916386
2.35702
0.00403165
5.23339
0.103508
6.54348
0.22727
7.9637
0.351539
9.58389
0.504178
11.4152
0.6566
13.5534
0.791894
16.1248
0.882408
19.1341
0.903689
22.6442
0.837737
22.302
0.723549
18.3414
0.592802
15.1366
0.463323
12.5259
0.347547
10.3851
0.248134
8.62129
0.162986
7.16561
0.0865456
5.95019
0.0211402
4.88889
3.1505
-0.147583
2.5046
-0.0655599
5.15137
0.0413492
6.43657
0.156228
7.84882
0.26694
9.47318
0.393303
11.2889
0.499514
13.4472
0.595153
16.0292
0.669984
19.0593
0.695243
22.619
0.649806
22.3474
0.564285
18.4269
0.46603
15.2349
0.369262
12.6227
0.280123
10.4743
0.198922
8.7025
0.123886
7.24065
0.0532415
6.02083
-0.00189277
4.94403
3.14861
-0.127194
2.6318
-0.0879907
5.11216
-0.017699
6.36628
0.0730467
7.75807
0.185368
9.36086
0.301039
11.1732
0.388324
13.3599
0.463952
15.9535
0.522641
19.0006
0.543135
22.5985
0.510298
22.3803
0.446419
18.4908
0.371141
15.3101
0.293609
12.7002
0.217636
10.5502
0.146252
8.77388
0.0815641
7.30534
0.022732
6.07966
-0.0158776
4.98264
3.13273
-0.0946259
2.72642
-0.0815198
5.09906
-0.0433803
6.32814
0.0143
7.70039
0.109708
9.26545
0.201116
11.0818
0.280986
13.28
0.356474
15.8781
0.40979
18.9473
0.427674
22.5806
0.402425
22.4055
0.35109
18.5421
0.288284
15.373
0.222184
12.7663
0.157722
10.6147
0.0988212
8.83278
0.0489716
7.35519
0.0048642
6.12377
-0.0213427
5.00884
3.11139
-0.0697025
2.79612
-0.0648443
5.0942
-0.0423351
6.30563
-0.00561672
7.66367
0.0613338
9.1985
0.123187
11.02
0.191758
13.2115
0.260068
15.8098
0.309952
18.8974
0.329731
22.5608
0.311402
22.4238
0.269133
18.5844
0.216717
15.4254
0.162852
12.8202
0.112511
10.665
0.0679693
8.87732
0.031391
7.39176
-0.000666783
6.15583
-0.0196011
5.02778
3.09179
-0.0526752
2.8488
-0.0509857
5.09251
-0.0361892
6.29083
-0.00911844
7.6366
0.0395423
9.14984
0.0809418
10.9786
0.133171
13.1592
0.185072
15.7579
0.226596
18.8559
0.246853
22.5405
0.235311
22.4354
0.202878
18.6168
0.162307
15.4659
0.121367
12.8611
0.0836962