/*--------------------------------*- C++ -*----------------------------------*\
| =========                 |                                                 |
| \\      /  F ield         | OpenFOAM: The Open Source CFD Toolbox           |
|  \\    /   O peration     | Version:  2412                                  |
|   \\  /    A nd           | Website:  www.openfoam.com                      |
|    \\/     M anipulation  |                                                 |
\*---------------------------------------------------------------------------*/
FoamFile
{
    version     2.0;
    format      ascii;
    arch        "LSB;label=32;scalar=64";
    class       surfaceScalarField;
    location    "0.77";
    object      phi;
}
// * * * * * * * * * * * * * * * * * * * * * * * * * * * * * * * * * * * * * //

dimensions      [0 3 -1 0 0 0 0];

oriented        oriented;

internalField   nonuniform List<scalar> 
799
(
2.29898e-05
4.59796e-05
6.89694e-05
9.19591e-05
0.000114949
0.000137938
0.000160927
0.000183916
0.000206905
0.000229893
0.000252881
0.000275868
0.000298855
0.000321842
0.000344828
0.000367814
0.000390799
0.000413783
0.000436767
0.00045975
0.000482732
0.000505713
0.000528694
0.000551674
0.000574653
0.000597631
0.000620608
0.000643584
0.000666559
0.000689533
0.000712506
0.000735478
0.000758449
0.000781418
0.000804387
0.000827354
0.000850319
0.000873284
0.000896246
0.000919208
0.000942168
0.000965126
0.000988083
0.00101104
0.00103399
0.00105694
0.0010799
0.00110284
0.00112579
0.00114874
0.00117168
0.00119462
0.00121756
0.0012405
0.00126343
0.00128637
0.0013093
0.00133223
0.00135515
0.00137808
0.001401
0.00142392
0.00144684
0.00146976
0.00149267
0.00151558
0.00153849
0.0015614
0.0015843
0.0016072
0.0016301
0.001653
0.00167589
0.00169878
0.00172167
0.00174455
0.00176743
0.00179031
0.00181319
0.00183606
0.00185893
0.0018818
0.00190466
0.00192753
0.00195038
0.00197324
0.00199609
0.00201894
0.00204178
0.00206462
0.00208746
0.0021103
0.00213313
0.00215595
0.00217878
0.0022016
0.00222442
0.00224723
0.00227004
0.00229284
0.00231564
0.00233844
0.00236124
0.00238403
0.00240681
0.00242959
0.00245237
0.00247514
0.00249791
0.00252068
0.00254344
0.0025662
0.00258895
0.0026117
0.00263444
0.00265718
0.00267991
0.00270264
0.00272537
0.00274809
0.0027708
0.00279352
0.00281622
0.00283892
0.00286162
0.00288431
0.002907
0.00292968
0.00295236
0.00297503
0.00299769
0.00302036
0.00304301
0.00306566
0.00308831
0.00311095
0.00313358
0.00315621
0.00317883
0.00320145
0.00322406
0.00324667
0.00326927
0.00329186
0.00331445
0.00333703
0.00335961
0.00338218
0.00340475
0.00342731
0.00344986
0.0034724
0.00349494
0.00351748
0.00354001
0.00356253
0.00358504
0.00360755
0.00363005
0.00365255
0.00367503
0.00369752
0.00371999
0.00374246
0.00376492
0.00378737
0.00380982
0.00383226
0.00385469
0.00387712
0.00389953
0.00392195
0.00394435
0.00396675
0.00398913
0.00401151
0.00403389
0.00405625
0.00407861
0.00410096
0.00412331
0.00414564
0.00416797
0.00419029
0.0042126
0.0042349
0.00425719
0.00427948
0.00430176
0.00432403
0.00434629
0.00436854
0.00439078
0.00441302
0.00443524
0.00445746
0.00447967
0.00450187
0.00452406
0.00454624
0.00456842
0.00459058
0.00461273
0.00463488
0.00465701
0.00467914
0.00470126
0.00472336
0.00474546
0.00476755
0.00478963
0.00481169
0.00483375
0.0048558
0.00487784
0.00489987
0.00492188
0.00494389
0.00496589
0.00498787
0.00500985
0.00503181
0.00505377
0.00507571
0.00509764
0.00511957
0.00514148
0.00516338
0.00518526
0.00520714
0.00522901
0.00525086
0.0052727
0.00529453
0.00531635
0.00533816
0.00535996
0.00538174
0.00540351
0.00542527
0.00544702
0.00546875
0.00549048
0.00551219
0.00553388
0.00555557
0.00557724
0.0055989
0.00562055
0.00564218
0.0056638
0.0056854
0.005707
0.00572858
0.00575014
0.0057717
0.00579323
0.00581476
0.00583627
0.00585777
0.00587925
0.00590072
0.00592217
0.00594361
0.00596504
0.00598645
0.00600784
0.00602922
0.00605059
0.00607194
0.00609327
0.00611459
0.00613589
0.00615718
0.00617845
0.00619971
0.00622095
0.00624218
0.00626338
0.00628458
0.00630575
0.00632691
0.00634805
0.00636918
0.00639028
0.00641138
0.00643245
0.0064535
0.00647454
0.00649556
0.00651657
0.00653755
0.00655852
0.00657947
0.0066004
0.00662131
0.0066422
0.00666308
0.00668393
0.00670477
0.00672558
0.00674638
0.00676716
0.00678792
0.00680865
0.00682937
0.00685007
0.00687075
0.0068914
0.00691204
0.00693265
0.00695325
0.00697382
0.00699437
0.0070149
0.00703541
0.00705589
0.00707635
0.0070968
0.00711721
0.00713761
0.00715798
0.00717833
0.00719866
0.00721896
0.00723924
0.00725949
0.00727972
0.00729993
0.00732011
0.00734027
0.0073604
0.00738051
0.00740059
0.00742064
0.00744067
0.00746067
0.00748065
0.0075006
0.00752052
0.00754042
0.00756029
0.00758013
0.00759994
0.00761973
0.00763949
0.00765921
0.00767891
0.00769858
0.00771822
0.00773783
0.00775741
0.00777696
0.00779648
0.00781597
0.00783543
0.00785486
0.00787425
0.00789361
0.00791294
0.00793224
0.0079515
0.00797073
0.00798993
0.00800909
0.00802822
0.00804731
0.00806637
0.00808539
0.00810438
0.00812333
0.00814224
0.00816112
0.00817996
0.00819876
0.00821752
0.00823624
0.00825493
0.00827357
0.00829218
0.00831075
0.00832927
0.00834775
0.00836619
0.00838459
0.00840295
0.00842126
0.00843953
0.00845776
0.00847594
0.00849407
0.00851216
0.00853021
0.0085482
0.00856615
0.00858401
0.00860331
0.00857656
0.00661376
6.37847e-06
-0.00660678
-0.00857596
-0.00860331
-0.00858398
-0.00856613
-0.00854818
-0.00853018
-0.00851214
-0.00849405
-0.00847591
-0.00845773
-0.00843951
-0.00842124
-0.00840293
-0.00838457
-0.00836617
-0.00834773
-0.00832925
-0.00831072
-0.00829216
-0.00827355
-0.0082549
-0.00823622
-0.0082175
-0.00819873
-0.00817993
-0.00816109
-0.00814222
-0.0081233
-0.00810435
-0.00808537
-0.00806634
-0.00804729
-0.00802819
-0.00800907
-0.0079899
-0.00797071
-0.00795148
-0.00793221
-0.00791292
-0.00789359
-0.00787423
-0.00785483
-0.00783541
-0.00781595
-0.00779646
-0.00777694
-0.00775739
-0.00773781
-0.0077182
-0.00769856
-0.00767889
-0.00765919
-0.00763946
-0.0076197
-0.00759992
-0.00758011
-0.00756027
-0.0075404
-0.0075205
-0.00750058
-0.00748063
-0.00746065
-0.00744065
-0.00742062
-0.00740056
-0.00738048
-0.00736038
-0.00734024
-0.00732009
-0.00729991
-0.0072797
-0.00725947
-0.00723921
-0.00721894
-0.00719863
-0.00717831
-0.00715796
-0.00713759
-0.00711719
-0.00709677
-0.00707633
-0.00705587
-0.00703538
-0.00701488
-0.00699435
-0.0069738
-0.00695322
-0.00693263
-0.00691202
-0.00689138
-0.00687072
-0.00685005
-0.00682935
-0.00680863
-0.00678789
-0.00676714
-0.00674636
-0.00672556
-0.00670475
-0.00668391
-0.00666305
-0.00664218
-0.00662129
-0.00660038
-0.00657945
-0.0065585
-0.00653753
-0.00651655
-0.00649554
-0.00647452
-0.00645348
-0.00643243
-0.00641135
-0.00639026
-0.00636916
-0.00634803
-0.00632689
-0.00630573
-0.00628456
-0.00626336
-0.00624216
-0.00622093
-0.00619969
-0.00617844
-0.00615716
-0.00613588
-0.00611457
-0.00609325
-0.00607192
-0.00605057
-0.0060292
-0.00600782
-0.00598643
-0.00596502
-0.00594359
-0.00592215
-0.0059007
-0.00587923
-0.00585775
-0.00583625
-0.00581474
-0.00579322
-0.00577168
-0.00575013
-0.00572856
-0.00570698
-0.00568539
-0.00566378
-0.00564216
-0.00562053
-0.00559888
-0.00557722
-0.00555555
-0.00553387
-0.00551217
-0.00549046
-0.00546874
-0.005447
-0.00542526
-0.0054035
-0.00538172
-0.00535994
-0.00533815
-0.00531634
-0.00529452
-0.00527269
-0.00525085
-0.00522899
-0.00520713
-0.00518525
-0.00516336
-0.00514146
-0.00511955
-0.00509763
-0.0050757
-0.00505375
-0.0050318
-0.00500984
-0.00498786
-0.00496587
-0.00494388
-0.00492187
-0.00489985
-0.00487783
-0.00485579
-0.00483374
-0.00481168
-0.00478961
-0.00476754
-0.00474545
-0.00472335
-0.00470124
-0.00467913
-0.004657
-0.00463487
-0.00461272
-0.00459057
-0.0045684
-0.00454623
-0.00452405
-0.00450186
-0.00447966
-0.00445745
-0.00443523
-0.00441301
-0.00439077
-0.00436853
-0.00434628
-0.00432401
-0.00430175
-0.00427947
-0.00425718
-0.00423489
-0.00421259
-0.00419028
-0.00416796
-0.00414563
-0.0041233
-0.00410095
-0.0040786
-0.00405624
-0.00403388
-0.00401151
-0.00398912
-0.00396674
-0.00394434
-0.00392194
-0.00389953
-0.00387711
-0.00385468
-0.00383225
-0.00380981
-0.00378736
-0.00376491
-0.00374245
-0.00371998
-0.00369751
-0.00367503
-0.00365254
-0.00363004
-0.00360754
-0.00358503
-0.00356252
-0.00354
-0.00351747
-0.00349494
-0.0034724
-0.00344985
-0.0034273
-0.00340474
-0.00338218
-0.0033596
-0.00333703
-0.00331445
-0.00329186
-0.00326926
-0.00324666
-0.00322406
-0.00320144
-0.00317883
-0.0031562
-0.00313357
-0.00311094
-0.0030883
-0.00306566
-0.00304301
-0.00302035
-0.00299769
-0.00297502
-0.00295235
-0.00292968
-0.00290699
-0.00288431
-0.00286162
-0.00283892
-0.00281622
-0.00279351
-0.0027708
-0.00274808
-0.00272536
-0.00270264
-0.00267991
-0.00265717
-0.00263444
-0.00261169
-0.00258894
-0.00256619
-0.00254344
-0.00252068
-0.00249791
-0.00247514
-0.00245237
-0.00242959
-0.00240681
-0.00238402
-0.00236123
-0.00233844
-0.00231564
-0.00229284
-0.00227003
-0.00224723
-0.00222441
-0.0022016
-0.00217878
-0.00215595
-0.00213312
-0.00211029
-0.00208746
-0.00206462
-0.00204178
-0.00201893
-0.00199609
-0.00197324
-0.00195038
-0.00192752
-0.00190466
-0.0018818
-0.00185893
-0.00183606
-0.00181319
-0.00179031
-0.00176743
-0.00174455
-0.00172167
-0.00169878
-0.00167589
-0.00165299
-0.0016301
-0.0016072
-0.0015843
-0.0015614
-0.00153849
-0.00151558
-0.00149267
-0.00146976
-0.00144684
-0.00142392
-0.001401
-0.00137808
-0.00135515
-0.00133223
-0.0013093
-0.00128637
-0.00126343
-0.0012405
-0.00121756
-0.00119462
-0.00117168
-0.00114873
-0.00112579
-0.00110284
-0.00107989
-0.00105694
-0.00103399
-0.00101104
-0.000988083
-0.000965126
-0.000942167
-0.000919207
-0.000896246
-0.000873283
-0.000850319
-0.000827353
-0.000804386
-0.000781418
-0.000758449
-0.000735478
-0.000712506
-0.000689533
-0.000666559
-0.000643584
-0.000620608
-0.000597631
-0.000574653
-0.000551674
-0.000528694
-0.000505713
-0.000482732
-0.000459749
-0.000436766
-0.000413783
-0.000390798
-0.000367814
-0.000344828
-0.000321842
-0.000298855
-0.000275868
-0.000252881
-0.000229893
-0.000206905
-0.000183916
-0.000160927
-0.000137938
-0.000114949
-9.19592e-05
-6.89695e-05
-4.59797e-05
-2.29899e-05
)
;

boundaryField
{
    left
    {
        type            calculated;
        value           uniform 0;
    }
    right
    {
        type            calculated;
        value           uniform 0;
    }
    frontBackUpDown
    {
        type            empty;
    }
}


// ************************************************************************* //
