/*--------------------------------*- C++ -*----------------------------------*\
| =========                 |                                                 |
| \\      /  F ield         | OpenFOAM: The Open Source CFD Toolbox           |
|  \\    /   O peration     | Version:  2412                                  |
|   \\  /    A nd           | Website:  www.openfoam.com                      |
|    \\/     M anipulation  |                                                 |
\*---------------------------------------------------------------------------*/
FoamFile
{
    version     2.0;
    format      ascii;
    arch        "LSB;label=32;scalar=64";
    class       volVectorField;
    location    "0.72";
    object      U;
}
// * * * * * * * * * * * * * * * * * * * * * * * * * * * * * * * * * * * * * //

dimensions      [0 1 -1 0 0 0 0];

internalField   nonuniform List<vector> 
800
(
(0.00120476 0 0)
(0.00361431 0 0)
(0.00602385 0 0)
(0.00843338 0 0)
(0.0108429 0 0)
(0.0132524 0 0)
(0.0156619 0 0)
(0.0180713 0 0)
(0.0204807 0 0)
(0.0228901 0 0)
(0.0252994 0 0)
(0.0277087 0 0)
(0.0301179 0 0)
(0.0325271 0 0)
(0.0349362 0 0)
(0.0373453 0 0)
(0.0397543 0 0)
(0.0421632 0 0)
(0.044572 0 0)
(0.0469808 0 0)
(0.0493895 0 0)
(0.0517981 0 0)
(0.0542065 0 0)
(0.0566149 0 0)
(0.0590232 0 0)
(0.0614314 0 0)
(0.0638395 0 0)
(0.0662474 0 0)
(0.0686553 0 0)
(0.071063 0 0)
(0.0734705 0 0)
(0.075878 0 0)
(0.0782853 0 0)
(0.0806924 0 0)
(0.0830995 0 0)
(0.0855063 0 0)
(0.087913 0 0)
(0.0903196 0 0)
(0.0927259 0 0)
(0.0951322 0 0)
(0.0975382 0 0)
(0.099944 0 0)
(0.10235 0 0)
(0.104755 0 0)
(0.10716 0 0)
(0.109566 0 0)
(0.11197 0 0)
(0.114375 0 0)
(0.11678 0 0)
(0.119184 0 0)
(0.121588 0 0)
(0.123992 0 0)
(0.126395 0 0)
(0.128799 0 0)
(0.131202 0 0)
(0.133605 0 0)
(0.136007 0 0)
(0.13841 0 0)
(0.140812 0 0)
(0.143214 0 0)
(0.145615 0 0)
(0.148017 0 0)
(0.150418 0 0)
(0.152818 0 0)
(0.155219 0 0)
(0.157619 0 0)
(0.160019 0 0)
(0.162419 0 0)
(0.164818 0 0)
(0.167217 0 0)
(0.169616 0 0)
(0.172014 0 0)
(0.174412 0 0)
(0.17681 0 0)
(0.179207 0 0)
(0.181604 0 0)
(0.184001 0 0)
(0.186397 0 0)
(0.188793 0 0)
(0.191189 0 0)
(0.193584 0 0)
(0.195979 0 0)
(0.198374 0 0)
(0.200768 0 0)
(0.203162 0 0)
(0.205555 0 0)
(0.207948 0 0)
(0.210341 0 0)
(0.212733 0 0)
(0.215125 0 0)
(0.217516 0 0)
(0.219907 0 0)
(0.222298 0 0)
(0.224688 0 0)
(0.227078 0 0)
(0.229467 0 0)
(0.231856 0 0)
(0.234244 0 0)
(0.236632 0 0)
(0.23902 0 0)
(0.241407 0 0)
(0.243793 0 0)
(0.246179 0 0)
(0.248565 0 0)
(0.25095 0 0)
(0.253335 0 0)
(0.255719 0 0)
(0.258103 0 0)
(0.260486 0 0)
(0.262868 0 0)
(0.265251 0 0)
(0.267632 0 0)
(0.270013 0 0)
(0.272394 0 0)
(0.274774 0 0)
(0.277153 0 0)
(0.279532 0 0)
(0.281911 0 0)
(0.284289 0 0)
(0.286666 0 0)
(0.289042 0 0)
(0.291419 0 0)
(0.293794 0 0)
(0.296169 0 0)
(0.298544 0 0)
(0.300917 0 0)
(0.30329 0 0)
(0.305663 0 0)
(0.308035 0 0)
(0.310406 0 0)
(0.312777 0 0)
(0.315147 0 0)
(0.317517 0 0)
(0.319885 0 0)
(0.322254 0 0)
(0.324621 0 0)
(0.326988 0 0)
(0.329354 0 0)
(0.33172 0 0)
(0.334084 0 0)
(0.336449 0 0)
(0.338812 0 0)
(0.341175 0 0)
(0.343537 0 0)
(0.345898 0 0)
(0.348259 0 0)
(0.350619 0 0)
(0.352978 0 0)
(0.355336 0 0)
(0.357694 0 0)
(0.360051 0 0)
(0.362407 0 0)
(0.364763 0 0)
(0.367117 0 0)
(0.369471 0 0)
(0.371824 0 0)
(0.374177 0 0)
(0.376528 0 0)
(0.378879 0 0)
(0.381229 0 0)
(0.383578 0 0)
(0.385927 0 0)
(0.388274 0 0)
(0.390621 0 0)
(0.392967 0 0)
(0.395312 0 0)
(0.397656 0 0)
(0.399999 0 0)
(0.402341 0 0)
(0.404683 0 0)
(0.407024 0 0)
(0.409363 0 0)
(0.411702 0 0)
(0.41404 0 0)
(0.416377 0 0)
(0.418713 0 0)
(0.421049 0 0)
(0.423383 0 0)
(0.425716 0 0)
(0.428049 0 0)
(0.43038 0 0)
(0.432711 0 0)
(0.43504 0 0)
(0.437369 0 0)
(0.439696 0 0)
(0.442023 0 0)
(0.444348 0 0)
(0.446673 0 0)
(0.448996 0 0)
(0.451319 0 0)
(0.45364 0 0)
(0.455961 0 0)
(0.45828 0 0)
(0.460599 0 0)
(0.462916 0 0)
(0.465232 0 0)
(0.467547 0 0)
(0.469861 0 0)
(0.472174 0 0)
(0.474486 0 0)
(0.476797 0 0)
(0.479107 0 0)
(0.481415 0 0)
(0.483722 0 0)
(0.486029 0 0)
(0.488334 0 0)
(0.490637 0 0)
(0.49294 0 0)
(0.495242 0 0)
(0.497542 0 0)
(0.499841 0 0)
(0.502139 0 0)
(0.504436 0 0)
(0.506731 0 0)
(0.509025 0 0)
(0.511318 0 0)
(0.51361 0 0)
(0.5159 0 0)
(0.51819 0 0)
(0.520477 0 0)
(0.522764 0 0)
(0.525049 0 0)
(0.527333 0 0)
(0.529616 0 0)
(0.531897 0 0)
(0.534177 0 0)
(0.536456 0 0)
(0.538733 0 0)
(0.541009 0 0)
(0.543283 0 0)
(0.545556 0 0)
(0.547828 0 0)
(0.550098 0 0)
(0.552367 0 0)
(0.554634 0 0)
(0.5569 0 0)
(0.559164 0 0)
(0.561427 0 0)
(0.563689 0 0)
(0.565949 0 0)
(0.568207 0 0)
(0.570464 0 0)
(0.572719 0 0)
(0.574973 0 0)
(0.577225 0 0)
(0.579476 0 0)
(0.581725 0 0)
(0.583973 0 0)
(0.586219 0 0)
(0.588463 0 0)
(0.590706 0 0)
(0.592947 0 0)
(0.595186 0 0)
(0.597424 0 0)
(0.59966 0 0)
(0.601894 0 0)
(0.604127 0 0)
(0.606358 0 0)
(0.608587 0 0)
(0.610814 0 0)
(0.61304 0 0)
(0.615264 0 0)
(0.617486 0 0)
(0.619706 0 0)
(0.621924 0 0)
(0.624141 0 0)
(0.626356 0 0)
(0.628569 0 0)
(0.63078 0 0)
(0.632989 0 0)
(0.635196 0 0)
(0.637401 0 0)
(0.639605 0 0)
(0.641806 0 0)
(0.644006 0 0)
(0.646203 0 0)
(0.648398 0 0)
(0.650592 0 0)
(0.652783 0 0)
(0.654973 0 0)
(0.65716 0 0)
(0.659345 0 0)
(0.661528 0 0)
(0.663709 0 0)
(0.665888 0 0)
(0.668065 0 0)
(0.670239 0 0)
(0.672411 0 0)
(0.674582 0 0)
(0.676749 0 0)
(0.678915 0 0)
(0.681078 0 0)
(0.68324 0 0)
(0.685398 0 0)
(0.687555 0 0)
(0.689709 0 0)
(0.691861 0 0)
(0.69401 0 0)
(0.696157 0 0)
(0.698302 0 0)
(0.700444 0 0)
(0.702583 0 0)
(0.704721 0 0)
(0.706855 0 0)
(0.708987 0 0)
(0.711117 0 0)
(0.713244 0 0)
(0.715369 0 0)
(0.71749 0 0)
(0.71961 0 0)
(0.721726 0 0)
(0.72384 0 0)
(0.725951 0 0)
(0.728059 0 0)
(0.730165 0 0)
(0.732268 0 0)
(0.734368 0 0)
(0.736465 0 0)
(0.73856 0 0)
(0.740651 0 0)
(0.74274 0 0)
(0.744825 0 0)
(0.746908 0 0)
(0.748988 0 0)
(0.751064 0 0)
(0.753138 0 0)
(0.755208 0 0)
(0.757276 0 0)
(0.75934 0 0)
(0.761401 0 0)
(0.763459 0 0)
(0.765514 0 0)
(0.767565 0 0)
(0.769613 0 0)
(0.771658 0 0)
(0.7737 0 0)
(0.775738 0 0)
(0.777773 0 0)
(0.779804 0 0)
(0.781832 0 0)
(0.783856 0 0)
(0.785877 0 0)
(0.787894 0 0)
(0.789907 0 0)
(0.791917 0 0)
(0.793923 0 0)
(0.795926 0 0)
(0.797924 0 0)
(0.799919 0 0)
(0.80191 0 0)
(0.803897 0 0)
(0.80588 0 0)
(0.807859 0 0)
(0.809834 0 0)
(0.811806 0 0)
(0.813772 0 0)
(0.815735 0 0)
(0.817694 0 0)
(0.819648 0 0)
(0.821599 0 0)
(0.823544 0 0)
(0.825486 0 0)
(0.827423 0 0)
(0.829355 0 0)
(0.831283 0 0)
(0.833207 0 0)
(0.835126 0 0)
(0.83704 0 0)
(0.838949 0 0)
(0.840854 0 0)
(0.842754 0 0)
(0.844649 0 0)
(0.846539 0 0)
(0.848424 0 0)
(0.850303 0 0)
(0.852178 0 0)
(0.854048 0 0)
(0.855912 0 0)
(0.857771 0 0)
(0.859625 0 0)
(0.861473 0 0)
(0.863315 0 0)
(0.865152 0 0)
(0.866984 0 0)
(0.868809 0 0)
(0.870629 0 0)
(0.872443 0 0)
(0.874251 0 0)
(0.876053 0 0)
(0.877849 0 0)
(0.879639 0 0)
(0.881422 0 0)
(0.883199 0 0)
(0.88497 0 0)
(0.886734 0 0)
(0.888491 0 0)
(0.890246 0 0)
(0.891962 0 0)
(0.893327 0 0)
(0.502806 0 0)
(-0.501503 0 0)
(-0.893239 0 0)
(-0.891964 0 0)
(-0.890244 0 0)
(-0.888489 0 0)
(-0.886732 0 0)
(-0.884968 0 0)
(-0.883197 0 0)
(-0.88142 0 0)
(-0.879637 0 0)
(-0.877847 0 0)
(-0.876051 0 0)
(-0.874249 0 0)
(-0.872441 0 0)
(-0.870627 0 0)
(-0.868807 0 0)
(-0.866982 0 0)
(-0.86515 0 0)
(-0.863313 0 0)
(-0.86147 0 0)
(-0.859622 0 0)
(-0.857769 0 0)
(-0.85591 0 0)
(-0.854045 0 0)
(-0.852176 0 0)
(-0.850301 0 0)
(-0.848421 0 0)
(-0.846536 0 0)
(-0.844646 0 0)
(-0.842751 0 0)
(-0.840852 0 0)
(-0.838947 0 0)
(-0.837038 0 0)
(-0.835123 0 0)
(-0.833205 0 0)
(-0.831281 0 0)
(-0.829353 0 0)
(-0.82742 0 0)
(-0.825483 0 0)
(-0.823542 0 0)
(-0.821596 0 0)
(-0.819646 0 0)
(-0.817692 0 0)
(-0.815733 0 0)
(-0.81377 0 0)
(-0.811803 0 0)
(-0.809832 0 0)
(-0.807857 0 0)
(-0.805878 0 0)
(-0.803895 0 0)
(-0.801907 0 0)
(-0.799917 0 0)
(-0.797922 0 0)
(-0.795923 0 0)
(-0.793921 0 0)
(-0.791915 0 0)
(-0.789905 0 0)
(-0.787891 0 0)
(-0.785874 0 0)
(-0.783853 0 0)
(-0.781829 0 0)
(-0.779801 0 0)
(-0.77777 0 0)
(-0.775735 0 0)
(-0.773697 0 0)
(-0.771656 0 0)
(-0.769611 0 0)
(-0.767563 0 0)
(-0.765511 0 0)
(-0.763457 0 0)
(-0.761399 0 0)
(-0.759338 0 0)
(-0.757273 0 0)
(-0.755206 0 0)
(-0.753135 0 0)
(-0.751062 0 0)
(-0.748985 0 0)
(-0.746906 0 0)
(-0.744823 0 0)
(-0.742737 0 0)
(-0.740649 0 0)
(-0.738557 0 0)
(-0.736463 0 0)
(-0.734366 0 0)
(-0.732266 0 0)
(-0.730163 0 0)
(-0.728057 0 0)
(-0.725949 0 0)
(-0.723838 0 0)
(-0.721724 0 0)
(-0.719607 0 0)
(-0.717488 0 0)
(-0.715366 0 0)
(-0.713242 0 0)
(-0.711115 0 0)
(-0.708985 0 0)
(-0.706853 0 0)
(-0.704718 0 0)
(-0.702581 0 0)
(-0.700442 0 0)
(-0.698299 0 0)
(-0.696155 0 0)
(-0.694008 0 0)
(-0.691858 0 0)
(-0.689707 0 0)
(-0.687553 0 0)
(-0.685396 0 0)
(-0.683237 0 0)
(-0.681076 0 0)
(-0.678913 0 0)
(-0.676747 0 0)
(-0.674579 0 0)
(-0.672409 0 0)
(-0.670237 0 0)
(-0.668062 0 0)
(-0.665886 0 0)
(-0.663707 0 0)
(-0.661526 0 0)
(-0.659343 0 0)
(-0.657158 0 0)
(-0.654971 0 0)
(-0.652781 0 0)
(-0.65059 0 0)
(-0.648396 0 0)
(-0.646201 0 0)
(-0.644004 0 0)
(-0.641804 0 0)
(-0.639603 0 0)
(-0.637399 0 0)
(-0.635194 0 0)
(-0.632987 0 0)
(-0.630778 0 0)
(-0.628567 0 0)
(-0.626354 0 0)
(-0.624139 0 0)
(-0.621922 0 0)
(-0.619704 0 0)
(-0.617484 0 0)
(-0.615262 0 0)
(-0.613038 0 0)
(-0.610812 0 0)
(-0.608585 0 0)
(-0.606356 0 0)
(-0.604125 0 0)
(-0.601892 0 0)
(-0.599658 0 0)
(-0.597422 0 0)
(-0.595184 0 0)
(-0.592945 0 0)
(-0.590704 0 0)
(-0.588461 0 0)
(-0.586217 0 0)
(-0.583971 0 0)
(-0.581724 0 0)
(-0.579474 0 0)
(-0.577224 0 0)
(-0.574971 0 0)
(-0.572718 0 0)
(-0.570462 0 0)
(-0.568205 0 0)
(-0.565947 0 0)
(-0.563687 0 0)
(-0.561426 0 0)
(-0.559163 0 0)
(-0.556898 0 0)
(-0.554632 0 0)
(-0.552365 0 0)
(-0.550096 0 0)
(-0.547826 0 0)
(-0.545554 0 0)
(-0.543281 0 0)
(-0.541007 0 0)
(-0.538731 0 0)
(-0.536454 0 0)
(-0.534175 0 0)
(-0.531896 0 0)
(-0.529614 0 0)
(-0.527332 0 0)
(-0.525048 0 0)
(-0.522762 0 0)
(-0.520476 0 0)
(-0.518188 0 0)
(-0.515899 0 0)
(-0.513608 0 0)
(-0.511317 0 0)
(-0.509024 0 0)
(-0.50673 0 0)
(-0.504434 0 0)
(-0.502138 0 0)
(-0.49984 0 0)
(-0.497541 0 0)
(-0.49524 0 0)
(-0.492939 0 0)
(-0.490636 0 0)
(-0.488332 0 0)
(-0.486027 0 0)
(-0.483721 0 0)
(-0.481414 0 0)
(-0.479105 0 0)
(-0.476796 0 0)
(-0.474485 0 0)
(-0.472173 0 0)
(-0.46986 0 0)
(-0.467546 0 0)
(-0.465231 0 0)
(-0.462915 0 0)
(-0.460597 0 0)
(-0.458279 0 0)
(-0.45596 0 0)
(-0.453639 0 0)
(-0.451318 0 0)
(-0.448995 0 0)
(-0.446672 0 0)
(-0.444347 0 0)
(-0.442022 0 0)
(-0.439695 0 0)
(-0.437368 0 0)
(-0.435039 0 0)
(-0.43271 0 0)
(-0.430379 0 0)
(-0.428048 0 0)
(-0.425715 0 0)
(-0.423382 0 0)
(-0.421048 0 0)
(-0.418712 0 0)
(-0.416376 0 0)
(-0.414039 0 0)
(-0.411701 0 0)
(-0.409362 0 0)
(-0.407023 0 0)
(-0.404682 0 0)
(-0.40234 0 0)
(-0.399998 0 0)
(-0.397655 0 0)
(-0.395311 0 0)
(-0.392966 0 0)
(-0.39062 0 0)
(-0.388273 0 0)
(-0.385926 0 0)
(-0.383577 0 0)
(-0.381228 0 0)
(-0.378878 0 0)
(-0.376528 0 0)
(-0.374176 0 0)
(-0.371824 0 0)
(-0.369471 0 0)
(-0.367117 0 0)
(-0.364762 0 0)
(-0.362407 0 0)
(-0.36005 0 0)
(-0.357693 0 0)
(-0.355336 0 0)
(-0.352977 0 0)
(-0.350618 0 0)
(-0.348258 0 0)
(-0.345898 0 0)
(-0.343536 0 0)
(-0.341174 0 0)
(-0.338811 0 0)
(-0.336448 0 0)
(-0.334084 0 0)
(-0.331719 0 0)
(-0.329353 0 0)
(-0.326987 0 0)
(-0.32462 0 0)
(-0.322253 0 0)
(-0.319885 0 0)
(-0.317516 0 0)
(-0.315147 0 0)
(-0.312776 0 0)
(-0.310406 0 0)
(-0.308034 0 0)
(-0.305663 0 0)
(-0.30329 0 0)
(-0.300917 0 0)
(-0.298543 0 0)
(-0.296169 0 0)
(-0.293794 0 0)
(-0.291418 0 0)
(-0.289042 0 0)
(-0.286665 0 0)
(-0.284288 0 0)
(-0.28191 0 0)
(-0.279532 0 0)
(-0.277153 0 0)
(-0.274773 0 0)
(-0.272393 0 0)
(-0.270013 0 0)
(-0.267632 0 0)
(-0.26525 0 0)
(-0.262868 0 0)
(-0.260485 0 0)
(-0.258102 0 0)
(-0.255718 0 0)
(-0.253334 0 0)
(-0.25095 0 0)
(-0.248565 0 0)
(-0.246179 0 0)
(-0.243793 0 0)
(-0.241406 0 0)
(-0.239019 0 0)
(-0.236632 0 0)
(-0.234244 0 0)
(-0.231855 0 0)
(-0.229467 0 0)
(-0.227077 0 0)
(-0.224688 0 0)
(-0.222297 0 0)
(-0.219907 0 0)
(-0.217516 0 0)
(-0.215124 0 0)
(-0.212733 0 0)
(-0.21034 0 0)
(-0.207948 0 0)
(-0.205555 0 0)
(-0.203161 0 0)
(-0.200768 0 0)
(-0.198373 0 0)
(-0.195979 0 0)
(-0.193584 0 0)
(-0.191189 0 0)
(-0.188793 0 0)
(-0.186397 0 0)
(-0.184001 0 0)
(-0.181604 0 0)
(-0.179207 0 0)
(-0.176809 0 0)
(-0.174412 0 0)
(-0.172014 0 0)
(-0.169615 0 0)
(-0.167217 0 0)
(-0.164818 0 0)
(-0.162418 0 0)
(-0.160019 0 0)
(-0.157619 0 0)
(-0.155219 0 0)
(-0.152818 0 0)
(-0.150417 0 0)
(-0.148016 0 0)
(-0.145615 0 0)
(-0.143214 0 0)
(-0.140812 0 0)
(-0.13841 0 0)
(-0.136007 0 0)
(-0.133605 0 0)
(-0.131202 0 0)
(-0.128799 0 0)
(-0.126395 0 0)
(-0.123992 0 0)
(-0.121588 0 0)
(-0.119184 0 0)
(-0.11678 0 0)
(-0.114375 0 0)
(-0.11197 0 0)
(-0.109566 0 0)
(-0.10716 0 0)
(-0.104755 0 0)
(-0.10235 0 0)
(-0.099944 0 0)
(-0.0975381 0 0)
(-0.0951321 0 0)
(-0.0927259 0 0)
(-0.0903195 0 0)
(-0.087913 0 0)
(-0.0855063 0 0)
(-0.0830994 0 0)
(-0.0806924 0 0)
(-0.0782852 0 0)
(-0.0758779 0 0)
(-0.0734705 0 0)
(-0.0710629 0 0)
(-0.0686552 0 0)
(-0.0662474 0 0)
(-0.0638394 0 0)
(-0.0614314 0 0)
(-0.0590232 0 0)
(-0.0566149 0 0)
(-0.0542065 0 0)
(-0.051798 0 0)
(-0.0493895 0 0)
(-0.0469808 0 0)
(-0.044572 0 0)
(-0.0421632 0 0)
(-0.0397543 0 0)
(-0.0373453 0 0)
(-0.0349362 0 0)
(-0.0325271 0 0)
(-0.0301179 0 0)
(-0.0277087 0 0)
(-0.0252994 0 0)
(-0.0228901 0 0)
(-0.0204807 0 0)
(-0.0180713 0 0)
(-0.0156619 0 0)
(-0.0132524 0 0)
(-0.0108429 0 0)
(-0.00843339 0 0)
(-0.00602386 0 0)
(-0.00361432 0 0)
(-0.00120477 0 0)
)
;

boundaryField
{
    left
    {
        type            fixedValue;
        value           uniform (0 0 0);
    }
    right
    {
        type            fixedValue;
        value           uniform (0 0 0);
    }
    frontBackUpDown
    {
        type            empty;
    }
}


// ************************************************************************* //
