/*--------------------------------*- C++ -*----------------------------------*\
| =========                 |                                                 |
| \\      /  F ield         | OpenFOAM: The Open Source CFD Toolbox           |
|  \\    /   O peration     | Version:  2412                                  |
|   \\  /    A nd           | Website:  www.openfoam.com                      |
|    \\/     M anipulation  |                                                 |
\*---------------------------------------------------------------------------*/
FoamFile
{
    version     2.0;
    format      ascii;
    arch        "LSB;label=32;scalar=64";
    class       volVectorField;
    location    "0.72";
    object      U_0;
}
// * * * * * * * * * * * * * * * * * * * * * * * * * * * * * * * * * * * * * //

dimensions      [0 1 -1 0 0 0 0];

internalField   nonuniform List<vector> 
800
(
(0.00120534 0 0)
(0.00361605 0 0)
(0.00602675 0 0)
(0.00843744 0 0)
(0.0108481 0 0)
(0.0132588 0 0)
(0.0156694 0 0)
(0.01808 0 0)
(0.0204906 0 0)
(0.0229011 0 0)
(0.0253116 0 0)
(0.027722 0 0)
(0.0301324 0 0)
(0.0325428 0 0)
(0.034953 0 0)
(0.0373633 0 0)
(0.0397734 0 0)
(0.0421835 0 0)
(0.0445935 0 0)
(0.0470034 0 0)
(0.0494132 0 0)
(0.051823 0 0)
(0.0542326 0 0)
(0.0566422 0 0)
(0.0590516 0 0)
(0.0614609 0 0)
(0.0638702 0 0)
(0.0662793 0 0)
(0.0686883 0 0)
(0.0710971 0 0)
(0.0735059 0 0)
(0.0759145 0 0)
(0.0783229 0 0)
(0.0807312 0 0)
(0.0831394 0 0)
(0.0855474 0 0)
(0.0879553 0 0)
(0.090363 0 0)
(0.0927705 0 0)
(0.0951779 0 0)
(0.097585 0 0)
(0.0999921 0 0)
(0.102399 0 0)
(0.104806 0 0)
(0.107212 0 0)
(0.109618 0 0)
(0.112024 0 0)
(0.11443 0 0)
(0.116836 0 0)
(0.119241 0 0)
(0.121646 0 0)
(0.124051 0 0)
(0.126456 0 0)
(0.128861 0 0)
(0.131265 0 0)
(0.133669 0 0)
(0.136073 0 0)
(0.138476 0 0)
(0.140879 0 0)
(0.143282 0 0)
(0.145685 0 0)
(0.148088 0 0)
(0.15049 0 0)
(0.152892 0 0)
(0.155293 0 0)
(0.157695 0 0)
(0.160096 0 0)
(0.162496 0 0)
(0.164897 0 0)
(0.167297 0 0)
(0.169697 0 0)
(0.172096 0 0)
(0.174495 0 0)
(0.176894 0 0)
(0.179293 0 0)
(0.181691 0 0)
(0.184089 0 0)
(0.186486 0 0)
(0.188884 0 0)
(0.19128 0 0)
(0.193677 0 0)
(0.196073 0 0)
(0.198468 0 0)
(0.200864 0 0)
(0.203259 0 0)
(0.205653 0 0)
(0.208047 0 0)
(0.210441 0 0)
(0.212835 0 0)
(0.215227 0 0)
(0.21762 0 0)
(0.220012 0 0)
(0.222404 0 0)
(0.224795 0 0)
(0.227186 0 0)
(0.229576 0 0)
(0.231966 0 0)
(0.234356 0 0)
(0.236745 0 0)
(0.239134 0 0)
(0.241522 0 0)
(0.243909 0 0)
(0.246297 0 0)
(0.248683 0 0)
(0.25107 0 0)
(0.253455 0 0)
(0.255841 0 0)
(0.258225 0 0)
(0.26061 0 0)
(0.262993 0 0)
(0.265377 0 0)
(0.267759 0 0)
(0.270142 0 0)
(0.272523 0 0)
(0.274904 0 0)
(0.277285 0 0)
(0.279665 0 0)
(0.282045 0 0)
(0.284423 0 0)
(0.286802 0 0)
(0.28918 0 0)
(0.291557 0 0)
(0.293934 0 0)
(0.29631 0 0)
(0.298685 0 0)
(0.30106 0 0)
(0.303434 0 0)
(0.305808 0 0)
(0.308181 0 0)
(0.310553 0 0)
(0.312925 0 0)
(0.315296 0 0)
(0.317667 0 0)
(0.320037 0 0)
(0.322406 0 0)
(0.324775 0 0)
(0.327142 0 0)
(0.32951 0 0)
(0.331876 0 0)
(0.334242 0 0)
(0.336607 0 0)
(0.338972 0 0)
(0.341336 0 0)
(0.343699 0 0)
(0.346061 0 0)
(0.348423 0 0)
(0.350784 0 0)
(0.353144 0 0)
(0.355504 0 0)
(0.357863 0 0)
(0.360221 0 0)
(0.362578 0 0)
(0.364934 0 0)
(0.36729 0 0)
(0.369645 0 0)
(0.371999 0 0)
(0.374353 0 0)
(0.376705 0 0)
(0.379057 0 0)
(0.381408 0 0)
(0.383758 0 0)
(0.386108 0 0)
(0.388456 0 0)
(0.390804 0 0)
(0.393151 0 0)
(0.395497 0 0)
(0.397842 0 0)
(0.400186 0 0)
(0.40253 0 0)
(0.404872 0 0)
(0.407214 0 0)
(0.409555 0 0)
(0.411895 0 0)
(0.414234 0 0)
(0.416572 0 0)
(0.418909 0 0)
(0.421245 0 0)
(0.42358 0 0)
(0.425915 0 0)
(0.428248 0 0)
(0.43058 0 0)
(0.432912 0 0)
(0.435242 0 0)
(0.437572 0 0)
(0.439901 0 0)
(0.442228 0 0)
(0.444555 0 0)
(0.44688 0 0)
(0.449205 0 0)
(0.451528 0 0)
(0.453851 0 0)
(0.456172 0 0)
(0.458493 0 0)
(0.460812 0 0)
(0.46313 0 0)
(0.465447 0 0)
(0.467763 0 0)
(0.470079 0 0)
(0.472392 0 0)
(0.474705 0 0)
(0.477017 0 0)
(0.479327 0 0)
(0.481637 0 0)
(0.483945 0 0)
(0.486252 0 0)
(0.488558 0 0)
(0.490863 0 0)
(0.493167 0 0)
(0.495469 0 0)
(0.49777 0 0)
(0.500071 0 0)
(0.502369 0 0)
(0.504667 0 0)
(0.506963 0 0)
(0.509258 0 0)
(0.511552 0 0)
(0.513845 0 0)
(0.516136 0 0)
(0.518426 0 0)
(0.520715 0 0)
(0.523003 0 0)
(0.525289 0 0)
(0.527574 0 0)
(0.529857 0 0)
(0.532139 0 0)
(0.53442 0 0)
(0.5367 0 0)
(0.538978 0 0)
(0.541254 0 0)
(0.54353 0 0)
(0.545804 0 0)
(0.548076 0 0)
(0.550347 0 0)
(0.552617 0 0)
(0.554885 0 0)
(0.557152 0 0)
(0.559417 0 0)
(0.561681 0 0)
(0.563943 0 0)
(0.566204 0 0)
(0.568463 0 0)
(0.570721 0 0)
(0.572977 0 0)
(0.575232 0 0)
(0.577485 0 0)
(0.579737 0 0)
(0.581987 0 0)
(0.584235 0 0)
(0.586482 0 0)
(0.588727 0 0)
(0.59097 0 0)
(0.593212 0 0)
(0.595452 0 0)
(0.597691 0 0)
(0.599928 0 0)
(0.602163 0 0)
(0.604396 0 0)
(0.606628 0 0)
(0.608858 0 0)
(0.611086 0 0)
(0.613312 0 0)
(0.615537 0 0)
(0.61776 0 0)
(0.619981 0 0)
(0.6222 0 0)
(0.624417 0 0)
(0.626633 0 0)
(0.628846 0 0)
(0.631058 0 0)
(0.633268 0 0)
(0.635476 0 0)
(0.637682 0 0)
(0.639886 0 0)
(0.642088 0 0)
(0.644288 0 0)
(0.646487 0 0)
(0.648683 0 0)
(0.650877 0 0)
(0.653069 0 0)
(0.655259 0 0)
(0.657447 0 0)
(0.659633 0 0)
(0.661817 0 0)
(0.663998 0 0)
(0.666178 0 0)
(0.668355 0 0)
(0.67053 0 0)
(0.672703 0 0)
(0.674874 0 0)
(0.677042 0 0)
(0.679209 0 0)
(0.681373 0 0)
(0.683534 0 0)
(0.685694 0 0)
(0.687851 0 0)
(0.690006 0 0)
(0.692158 0 0)
(0.694308 0 0)
(0.696456 0 0)
(0.698601 0 0)
(0.700743 0 0)
(0.702884 0 0)
(0.705021 0 0)
(0.707157 0 0)
(0.709289 0 0)
(0.711419 0 0)
(0.713547 0 0)
(0.715672 0 0)
(0.717794 0 0)
(0.719914 0 0)
(0.722031 0 0)
(0.724145 0 0)
(0.726257 0 0)
(0.728366 0 0)
(0.730472 0 0)
(0.732575 0 0)
(0.734676 0 0)
(0.736774 0 0)
(0.738868 0 0)
(0.74096 0 0)
(0.743049 0 0)
(0.745135 0 0)
(0.747219 0 0)
(0.749299 0 0)
(0.751376 0 0)
(0.75345 0 0)
(0.755521 0 0)
(0.757588 0 0)
(0.759653 0 0)
(0.761715 0 0)
(0.763773 0 0)
(0.765828 0 0)
(0.76788 0 0)
(0.769928 0 0)
(0.771973 0 0)
(0.774015 0 0)
(0.776054 0 0)
(0.778089 0 0)
(0.78012 0 0)
(0.782148 0 0)
(0.784173 0 0)
(0.786194 0 0)
(0.788211 0 0)
(0.790225 0 0)
(0.792235 0 0)
(0.794241 0 0)
(0.796244 0 0)
(0.798243 0 0)
(0.800238 0 0)
(0.802229 0 0)
(0.804216 0 0)
(0.806199 0 0)
(0.808179 0 0)
(0.810154 0 0)
(0.812125 0 0)
(0.814092 0 0)
(0.816055 0 0)
(0.818014 0 0)
(0.819968 0 0)
(0.821918 0 0)
(0.823864 0 0)
(0.825806 0 0)
(0.827743 0 0)
(0.829675 0 0)
(0.831603 0 0)
(0.833527 0 0)
(0.835446 0 0)
(0.83736 0 0)
(0.839269 0 0)
(0.841174 0 0)
(0.843073 0 0)
(0.844968 0 0)
(0.846858 0 0)
(0.848743 0 0)
(0.850623 0 0)
(0.852497 0 0)
(0.854367 0 0)
(0.856231 0 0)
(0.858089 0 0)
(0.859943 0 0)
(0.861791 0 0)
(0.863633 0 0)
(0.86547 0 0)
(0.867301 0 0)
(0.869126 0 0)
(0.870946 0 0)
(0.872759 0 0)
(0.874567 0 0)
(0.876368 0 0)
(0.878164 0 0)
(0.879953 0 0)
(0.881736 0 0)
(0.883513 0 0)
(0.885283 0 0)
(0.887046 0 0)
(0.888803 0 0)
(0.890558 0 0)
(0.892268 0 0)
(0.89372 0 0)
(0.503153 0 0)
(-0.501849 0 0)
(-0.893632 0 0)
(-0.89227 0 0)
(-0.890555 0 0)
(-0.888801 0 0)
(-0.887044 0 0)
(-0.885281 0 0)
(-0.883511 0 0)
(-0.881734 0 0)
(-0.879951 0 0)
(-0.878162 0 0)
(-0.876366 0 0)
(-0.874565 0 0)
(-0.872757 0 0)
(-0.870943 0 0)
(-0.869124 0 0)
(-0.867298 0 0)
(-0.865467 0 0)
(-0.863631 0 0)
(-0.861788 0 0)
(-0.85994 0 0)
(-0.858087 0 0)
(-0.856228 0 0)
(-0.854364 0 0)
(-0.852495 0 0)
(-0.85062 0 0)
(-0.84874 0 0)
(-0.846856 0 0)
(-0.844966 0 0)
(-0.843071 0 0)
(-0.841171 0 0)
(-0.839267 0 0)
(-0.837357 0 0)
(-0.835443 0 0)
(-0.833524 0 0)
(-0.831601 0 0)
(-0.829673 0 0)
(-0.82774 0 0)
(-0.825803 0 0)
(-0.823862 0 0)
(-0.821916 0 0)
(-0.819966 0 0)
(-0.818011 0 0)
(-0.816053 0 0)
(-0.81409 0 0)
(-0.812123 0 0)
(-0.810151 0 0)
(-0.808176 0 0)
(-0.806197 0 0)
(-0.804213 0 0)
(-0.802226 0 0)
(-0.800235 0 0)
(-0.79824 0 0)
(-0.796241 0 0)
(-0.794239 0 0)
(-0.792232 0 0)
(-0.790222 0 0)
(-0.788209 0 0)
(-0.786191 0 0)
(-0.78417 0 0)
(-0.782146 0 0)
(-0.780118 0 0)
(-0.778086 0 0)
(-0.776051 0 0)
(-0.774013 0 0)
(-0.771971 0 0)
(-0.769926 0 0)
(-0.767877 0 0)
(-0.765826 0 0)
(-0.76377 0 0)
(-0.761712 0 0)
(-0.759651 0 0)
(-0.757586 0 0)
(-0.755518 0 0)
(-0.753447 0 0)
(-0.751373 0 0)
(-0.749296 0 0)
(-0.747216 0 0)
(-0.745133 0 0)
(-0.743047 0 0)
(-0.740958 0 0)
(-0.738866 0 0)
(-0.736771 0 0)
(-0.734674 0 0)
(-0.732573 0 0)
(-0.73047 0 0)
(-0.728364 0 0)
(-0.726255 0 0)
(-0.724143 0 0)
(-0.722029 0 0)
(-0.719912 0 0)
(-0.717792 0 0)
(-0.71567 0 0)
(-0.713545 0 0)
(-0.711417 0 0)
(-0.709287 0 0)
(-0.707154 0 0)
(-0.705019 0 0)
(-0.702881 0 0)
(-0.700741 0 0)
(-0.698598 0 0)
(-0.696453 0 0)
(-0.694306 0 0)
(-0.692156 0 0)
(-0.690003 0 0)
(-0.687849 0 0)
(-0.685692 0 0)
(-0.683532 0 0)
(-0.68137 0 0)
(-0.679206 0 0)
(-0.67704 0 0)
(-0.674872 0 0)
(-0.672701 0 0)
(-0.670528 0 0)
(-0.668353 0 0)
(-0.666176 0 0)
(-0.663996 0 0)
(-0.661814 0 0)
(-0.659631 0 0)
(-0.657445 0 0)
(-0.655257 0 0)
(-0.653067 0 0)
(-0.650875 0 0)
(-0.648681 0 0)
(-0.646485 0 0)
(-0.644286 0 0)
(-0.642086 0 0)
(-0.639884 0 0)
(-0.63768 0 0)
(-0.635474 0 0)
(-0.633266 0 0)
(-0.631056 0 0)
(-0.628844 0 0)
(-0.626631 0 0)
(-0.624415 0 0)
(-0.622198 0 0)
(-0.619979 0 0)
(-0.617758 0 0)
(-0.615535 0 0)
(-0.61331 0 0)
(-0.611084 0 0)
(-0.608856 0 0)
(-0.606626 0 0)
(-0.604394 0 0)
(-0.602161 0 0)
(-0.599926 0 0)
(-0.597689 0 0)
(-0.59545 0 0)
(-0.59321 0 0)
(-0.590968 0 0)
(-0.588725 0 0)
(-0.58648 0 0)
(-0.584233 0 0)
(-0.581985 0 0)
(-0.579735 0 0)
(-0.577483 0 0)
(-0.57523 0 0)
(-0.572976 0 0)
(-0.570719 0 0)
(-0.568462 0 0)
(-0.566202 0 0)
(-0.563942 0 0)
(-0.561679 0 0)
(-0.559415 0 0)
(-0.55715 0 0)
(-0.554883 0 0)
(-0.552615 0 0)
(-0.550346 0 0)
(-0.548075 0 0)
(-0.545802 0 0)
(-0.543528 0 0)
(-0.541253 0 0)
(-0.538976 0 0)
(-0.536698 0 0)
(-0.534419 0 0)
(-0.532138 0 0)
(-0.529856 0 0)
(-0.527572 0 0)
(-0.525287 0 0)
(-0.523001 0 0)
(-0.520714 0 0)
(-0.518425 0 0)
(-0.516135 0 0)
(-0.513844 0 0)
(-0.511551 0 0)
(-0.509257 0 0)
(-0.506962 0 0)
(-0.504666 0 0)
(-0.502368 0 0)
(-0.500069 0 0)
(-0.497769 0 0)
(-0.495468 0 0)
(-0.493165 0 0)
(-0.490862 0 0)
(-0.488557 0 0)
(-0.486251 0 0)
(-0.483944 0 0)
(-0.481636 0 0)
(-0.479326 0 0)
(-0.477016 0 0)
(-0.474704 0 0)
(-0.472391 0 0)
(-0.470077 0 0)
(-0.467762 0 0)
(-0.465446 0 0)
(-0.463129 0 0)
(-0.460811 0 0)
(-0.458491 0 0)
(-0.456171 0 0)
(-0.45385 0 0)
(-0.451527 0 0)
(-0.449204 0 0)
(-0.446879 0 0)
(-0.444554 0 0)
(-0.442227 0 0)
(-0.439899 0 0)
(-0.437571 0 0)
(-0.435241 0 0)
(-0.432911 0 0)
(-0.430579 0 0)
(-0.428247 0 0)
(-0.425914 0 0)
(-0.423579 0 0)
(-0.421244 0 0)
(-0.418908 0 0)
(-0.416571 0 0)
(-0.414233 0 0)
(-0.411894 0 0)
(-0.409554 0 0)
(-0.407213 0 0)
(-0.404871 0 0)
(-0.402529 0 0)
(-0.400185 0 0)
(-0.397841 0 0)
(-0.395496 0 0)
(-0.39315 0 0)
(-0.390803 0 0)
(-0.388455 0 0)
(-0.386107 0 0)
(-0.383757 0 0)
(-0.381407 0 0)
(-0.379056 0 0)
(-0.376704 0 0)
(-0.374352 0 0)
(-0.371998 0 0)
(-0.369644 0 0)
(-0.367289 0 0)
(-0.364934 0 0)
(-0.362577 0 0)
(-0.36022 0 0)
(-0.357862 0 0)
(-0.355503 0 0)
(-0.353144 0 0)
(-0.350783 0 0)
(-0.348422 0 0)
(-0.346061 0 0)
(-0.343698 0 0)
(-0.341335 0 0)
(-0.338971 0 0)
(-0.336607 0 0)
(-0.334242 0 0)
(-0.331876 0 0)
(-0.329509 0 0)
(-0.327142 0 0)
(-0.324774 0 0)
(-0.322405 0 0)
(-0.320036 0 0)
(-0.317666 0 0)
(-0.315296 0 0)
(-0.312925 0 0)
(-0.310553 0 0)
(-0.30818 0 0)
(-0.305807 0 0)
(-0.303434 0 0)
(-0.301059 0 0)
(-0.298685 0 0)
(-0.296309 0 0)
(-0.293933 0 0)
(-0.291556 0 0)
(-0.289179 0 0)
(-0.286801 0 0)
(-0.284423 0 0)
(-0.282044 0 0)
(-0.279665 0 0)
(-0.277285 0 0)
(-0.274904 0 0)
(-0.272523 0 0)
(-0.270141 0 0)
(-0.267759 0 0)
(-0.265376 0 0)
(-0.262993 0 0)
(-0.260609 0 0)
(-0.258225 0 0)
(-0.25584 0 0)
(-0.253455 0 0)
(-0.251069 0 0)
(-0.248683 0 0)
(-0.246296 0 0)
(-0.243909 0 0)
(-0.241521 0 0)
(-0.239133 0 0)
(-0.236745 0 0)
(-0.234356 0 0)
(-0.231966 0 0)
(-0.229576 0 0)
(-0.227186 0 0)
(-0.224795 0 0)
(-0.222404 0 0)
(-0.220012 0 0)
(-0.21762 0 0)
(-0.215227 0 0)
(-0.212834 0 0)
(-0.210441 0 0)
(-0.208047 0 0)
(-0.205653 0 0)
(-0.203258 0 0)
(-0.200864 0 0)
(-0.198468 0 0)
(-0.196073 0 0)
(-0.193676 0 0)
(-0.19128 0 0)
(-0.188883 0 0)
(-0.186486 0 0)
(-0.184089 0 0)
(-0.181691 0 0)
(-0.179293 0 0)
(-0.176894 0 0)
(-0.174495 0 0)
(-0.172096 0 0)
(-0.169697 0 0)
(-0.167297 0 0)
(-0.164897 0 0)
(-0.162496 0 0)
(-0.160096 0 0)
(-0.157694 0 0)
(-0.155293 0 0)
(-0.152892 0 0)
(-0.15049 0 0)
(-0.148087 0 0)
(-0.145685 0 0)
(-0.143282 0 0)
(-0.140879 0 0)
(-0.138476 0 0)
(-0.136072 0 0)
(-0.133669 0 0)
(-0.131265 0 0)
(-0.12886 0 0)
(-0.126456 0 0)
(-0.124051 0 0)
(-0.121646 0 0)
(-0.119241 0 0)
(-0.116836 0 0)
(-0.11443 0 0)
(-0.112024 0 0)
(-0.109618 0 0)
(-0.107212 0 0)
(-0.104805 0 0)
(-0.102399 0 0)
(-0.099992 0 0)
(-0.097585 0 0)
(-0.0951778 0 0)
(-0.0927704 0 0)
(-0.0903629 0 0)
(-0.0879552 0 0)
(-0.0855474 0 0)
(-0.0831394 0 0)
(-0.0807312 0 0)
(-0.0783229 0 0)
(-0.0759144 0 0)
(-0.0735058 0 0)
(-0.0710971 0 0)
(-0.0686882 0 0)
(-0.0662793 0 0)
(-0.0638701 0 0)
(-0.0614609 0 0)
(-0.0590516 0 0)
(-0.0566421 0 0)
(-0.0542326 0 0)
(-0.051823 0 0)
(-0.0494132 0 0)
(-0.0470034 0 0)
(-0.0445935 0 0)
(-0.0421835 0 0)
(-0.0397734 0 0)
(-0.0373633 0 0)
(-0.034953 0 0)
(-0.0325428 0 0)
(-0.0301324 0 0)
(-0.027722 0 0)
(-0.0253116 0 0)
(-0.0229011 0 0)
(-0.0204906 0 0)
(-0.01808 0 0)
(-0.0156694 0 0)
(-0.0132588 0 0)
(-0.0108481 0 0)
(-0.00843745 0 0)
(-0.00602676 0 0)
(-0.00361606 0 0)
(-0.00120535 0 0)
)
;

boundaryField
{
    left
    {
        type            fixedValue;
        value           uniform (0 0 0);
    }
    right
    {
        type            fixedValue;
        value           uniform (0 0 0);
    }
    frontBackUpDown
    {
        type            empty;
    }
}


// ************************************************************************* //
