/*--------------------------------*- C++ -*----------------------------------*\
| =========                 |                                                 |
| \\      /  F ield         | OpenFOAM: The Open Source CFD Toolbox           |
|  \\    /   O peration     | Version:  2412                                  |
|   \\  /    A nd           | Website:  www.openfoam.com                      |
|    \\/     M anipulation  |                                                 |
\*---------------------------------------------------------------------------*/
FoamFile
{
    version     2.0;
    format      ascii;
    arch        "LSB;label=32;scalar=64";
    class       volVectorField;
    location    "0.72";
    object      U_0_0;
}
// * * * * * * * * * * * * * * * * * * * * * * * * * * * * * * * * * * * * * //

dimensions      [0 1 -1 0 0 0 0];

internalField   nonuniform List<vector> 
800
(
(0.00120592 0 0)
(0.00361779 0 0)
(0.00602965 0 0)
(0.0084415 0 0)
(0.0108533 0 0)
(0.0132651 0 0)
(0.0156769 0 0)
(0.0180887 0 0)
(0.0205004 0 0)
(0.0229121 0 0)
(0.0253238 0 0)
(0.0277354 0 0)
(0.0301469 0 0)
(0.0325584 0 0)
(0.0349699 0 0)
(0.0373812 0 0)
(0.0397925 0 0)
(0.0422038 0 0)
(0.0446149 0 0)
(0.047026 0 0)
(0.049437 0 0)
(0.0518479 0 0)
(0.0542587 0 0)
(0.0566694 0 0)
(0.05908 0 0)
(0.0614905 0 0)
(0.0639009 0 0)
(0.0663112 0 0)
(0.0687213 0 0)
(0.0711313 0 0)
(0.0735412 0 0)
(0.075951 0 0)
(0.0783606 0 0)
(0.0807701 0 0)
(0.0831794 0 0)
(0.0855885 0 0)
(0.0879976 0 0)
(0.0904064 0 0)
(0.0928151 0 0)
(0.0952236 0 0)
(0.097632 0 0)
(0.10004 0 0)
(0.102448 0 0)
(0.104856 0 0)
(0.107263 0 0)
(0.109671 0 0)
(0.112078 0 0)
(0.114485 0 0)
(0.116892 0 0)
(0.119298 0 0)
(0.121705 0 0)
(0.124111 0 0)
(0.126517 0 0)
(0.128922 0 0)
(0.131328 0 0)
(0.133733 0 0)
(0.136138 0 0)
(0.138543 0 0)
(0.140947 0 0)
(0.143351 0 0)
(0.145755 0 0)
(0.148159 0 0)
(0.150562 0 0)
(0.152965 0 0)
(0.155368 0 0)
(0.15777 0 0)
(0.160172 0 0)
(0.162574 0 0)
(0.164976 0 0)
(0.167377 0 0)
(0.169778 0 0)
(0.172179 0 0)
(0.174579 0 0)
(0.176979 0 0)
(0.179379 0 0)
(0.181778 0 0)
(0.184177 0 0)
(0.186576 0 0)
(0.188974 0 0)
(0.191372 0 0)
(0.193769 0 0)
(0.196167 0 0)
(0.198563 0 0)
(0.20096 0 0)
(0.203356 0 0)
(0.205752 0 0)
(0.208147 0 0)
(0.210542 0 0)
(0.212936 0 0)
(0.21533 0 0)
(0.217724 0 0)
(0.220117 0 0)
(0.22251 0 0)
(0.224902 0 0)
(0.227294 0 0)
(0.229686 0 0)
(0.232077 0 0)
(0.234468 0 0)
(0.236858 0 0)
(0.239248 0 0)
(0.241637 0 0)
(0.244026 0 0)
(0.246414 0 0)
(0.248802 0 0)
(0.251189 0 0)
(0.253576 0 0)
(0.255962 0 0)
(0.258348 0 0)
(0.260734 0 0)
(0.263119 0 0)
(0.265503 0 0)
(0.267887 0 0)
(0.27027 0 0)
(0.272653 0 0)
(0.275035 0 0)
(0.277417 0 0)
(0.279798 0 0)
(0.282179 0 0)
(0.284559 0 0)
(0.286938 0 0)
(0.289317 0 0)
(0.291695 0 0)
(0.294073 0 0)
(0.29645 0 0)
(0.298827 0 0)
(0.301203 0 0)
(0.303578 0 0)
(0.305953 0 0)
(0.308327 0 0)
(0.3107 0 0)
(0.313073 0 0)
(0.315446 0 0)
(0.317817 0 0)
(0.320188 0 0)
(0.322559 0 0)
(0.324928 0 0)
(0.327297 0 0)
(0.329665 0 0)
(0.332033 0 0)
(0.3344 0 0)
(0.336766 0 0)
(0.339132 0 0)
(0.341497 0 0)
(0.343861 0 0)
(0.346225 0 0)
(0.348587 0 0)
(0.350949 0 0)
(0.353311 0 0)
(0.355671 0 0)
(0.358031 0 0)
(0.36039 0 0)
(0.362748 0 0)
(0.365106 0 0)
(0.367463 0 0)
(0.369819 0 0)
(0.372174 0 0)
(0.374529 0 0)
(0.376882 0 0)
(0.379235 0 0)
(0.381587 0 0)
(0.383938 0 0)
(0.386289 0 0)
(0.388638 0 0)
(0.390987 0 0)
(0.393335 0 0)
(0.395682 0 0)
(0.398028 0 0)
(0.400374 0 0)
(0.402718 0 0)
(0.405062 0 0)
(0.407404 0 0)
(0.409746 0 0)
(0.412087 0 0)
(0.414427 0 0)
(0.416766 0 0)
(0.419104 0 0)
(0.421441 0 0)
(0.423778 0 0)
(0.426113 0 0)
(0.428448 0 0)
(0.430781 0 0)
(0.433114 0 0)
(0.435445 0 0)
(0.437776 0 0)
(0.440105 0 0)
(0.442434 0 0)
(0.444761 0 0)
(0.447088 0 0)
(0.449413 0 0)
(0.451738 0 0)
(0.454061 0 0)
(0.456384 0 0)
(0.458705 0 0)
(0.461025 0 0)
(0.463345 0 0)
(0.465663 0 0)
(0.46798 0 0)
(0.470296 0 0)
(0.472611 0 0)
(0.474924 0 0)
(0.477237 0 0)
(0.479549 0 0)
(0.481859 0 0)
(0.484168 0 0)
(0.486476 0 0)
(0.488783 0 0)
(0.491089 0 0)
(0.493394 0 0)
(0.495697 0 0)
(0.497999 0 0)
(0.5003 0 0)
(0.5026 0 0)
(0.504899 0 0)
(0.507196 0 0)
(0.509492 0 0)
(0.511787 0 0)
(0.51408 0 0)
(0.516372 0 0)
(0.518663 0 0)
(0.520953 0 0)
(0.523242 0 0)
(0.525529 0 0)
(0.527814 0 0)
(0.530099 0 0)
(0.532382 0 0)
(0.534664 0 0)
(0.536944 0 0)
(0.539223 0 0)
(0.541501 0 0)
(0.543777 0 0)
(0.546052 0 0)
(0.548325 0 0)
(0.550597 0 0)
(0.552867 0 0)
(0.555136 0 0)
(0.557404 0 0)
(0.55967 0 0)
(0.561935 0 0)
(0.564198 0 0)
(0.56646 0 0)
(0.56872 0 0)
(0.570978 0 0)
(0.573235 0 0)
(0.575491 0 0)
(0.577745 0 0)
(0.579997 0 0)
(0.582248 0 0)
(0.584497 0 0)
(0.586745 0 0)
(0.588991 0 0)
(0.591235 0 0)
(0.593478 0 0)
(0.595719 0 0)
(0.597958 0 0)
(0.600196 0 0)
(0.602431 0 0)
(0.604666 0 0)
(0.606898 0 0)
(0.609129 0 0)
(0.611358 0 0)
(0.613585 0 0)
(0.61581 0 0)
(0.618034 0 0)
(0.620256 0 0)
(0.622476 0 0)
(0.624694 0 0)
(0.62691 0 0)
(0.629124 0 0)
(0.631337 0 0)
(0.633548 0 0)
(0.635756 0 0)
(0.637963 0 0)
(0.640168 0 0)
(0.642371 0 0)
(0.644571 0 0)
(0.64677 0 0)
(0.648967 0 0)
(0.651162 0 0)
(0.653355 0 0)
(0.655546 0 0)
(0.657734 0 0)
(0.659921 0 0)
(0.662105 0 0)
(0.664287 0 0)
(0.666468 0 0)
(0.668646 0 0)
(0.670821 0 0)
(0.672995 0 0)
(0.675166 0 0)
(0.677336 0 0)
(0.679502 0 0)
(0.681667 0 0)
(0.683829 0 0)
(0.685989 0 0)
(0.688147 0 0)
(0.690303 0 0)
(0.692455 0 0)
(0.694606 0 0)
(0.696754 0 0)
(0.6989 0 0)
(0.701043 0 0)
(0.703184 0 0)
(0.705322 0 0)
(0.707458 0 0)
(0.709591 0 0)
(0.711722 0 0)
(0.71385 0 0)
(0.715976 0 0)
(0.718099 0 0)
(0.720219 0 0)
(0.722336 0 0)
(0.724451 0 0)
(0.726563 0 0)
(0.728673 0 0)
(0.730779 0 0)
(0.732883 0 0)
(0.734984 0 0)
(0.737082 0 0)
(0.739178 0 0)
(0.74127 0 0)
(0.743359 0 0)
(0.745446 0 0)
(0.747529 0 0)
(0.74961 0 0)
(0.751687 0 0)
(0.753762 0 0)
(0.755833 0 0)
(0.757901 0 0)
(0.759966 0 0)
(0.762028 0 0)
(0.764087 0 0)
(0.766142 0 0)
(0.768194 0 0)
(0.770243 0 0)
(0.772289 0 0)
(0.774331 0 0)
(0.776369 0 0)
(0.778405 0 0)
(0.780437 0 0)
(0.782465 0 0)
(0.78449 0 0)
(0.786511 0 0)
(0.788529 0 0)
(0.790542 0 0)
(0.792553 0 0)
(0.794559 0 0)
(0.796562 0 0)
(0.798561 0 0)
(0.800556 0 0)
(0.802548 0 0)
(0.804535 0 0)
(0.806518 0 0)
(0.808498 0 0)
(0.810473 0 0)
(0.812445 0 0)
(0.814412 0 0)
(0.816375 0 0)
(0.818334 0 0)
(0.820288 0 0)
(0.822239 0 0)
(0.824184 0 0)
(0.826126 0 0)
(0.828063 0 0)
(0.829996 0 0)
(0.831924 0 0)
(0.833847 0 0)
(0.835766 0 0)
(0.83768 0 0)
(0.839589 0 0)
(0.841494 0 0)
(0.843393 0 0)
(0.845288 0 0)
(0.847178 0 0)
(0.849062 0 0)
(0.850942 0 0)
(0.852816 0 0)
(0.854685 0 0)
(0.856549 0 0)
(0.858408 0 0)
(0.860261 0 0)
(0.862108 0 0)
(0.863951 0 0)
(0.865787 0 0)
(0.867618 0 0)
(0.869443 0 0)
(0.871262 0 0)
(0.873075 0 0)
(0.874882 0 0)
(0.876684 0 0)
(0.878479 0 0)
(0.880267 0 0)
(0.88205 0 0)
(0.883826 0 0)
(0.885596 0 0)
(0.887359 0 0)
(0.889115 0 0)
(0.890869 0 0)
(0.892573 0 0)
(0.894113 0 0)
(0.5035 0 0)
(-0.502196 0 0)
(-0.894025 0 0)
(-0.892576 0 0)
(-0.890867 0 0)
(-0.889112 0 0)
(-0.887356 0 0)
(-0.885593 0 0)
(-0.883824 0 0)
(-0.882048 0 0)
(-0.880265 0 0)
(-0.878476 0 0)
(-0.876681 0 0)
(-0.87488 0 0)
(-0.873073 0 0)
(-0.87126 0 0)
(-0.86944 0 0)
(-0.867615 0 0)
(-0.865785 0 0)
(-0.863948 0 0)
(-0.862106 0 0)
(-0.860259 0 0)
(-0.858405 0 0)
(-0.856547 0 0)
(-0.854683 0 0)
(-0.852814 0 0)
(-0.850939 0 0)
(-0.84906 0 0)
(-0.847175 0 0)
(-0.845285 0 0)
(-0.843391 0 0)
(-0.841491 0 0)
(-0.839587 0 0)
(-0.837677 0 0)
(-0.835763 0 0)
(-0.833845 0 0)
(-0.831921 0 0)
(-0.829993 0 0)
(-0.828061 0 0)
(-0.826124 0 0)
(-0.824182 0 0)
(-0.822236 0 0)
(-0.820286 0 0)
(-0.818331 0 0)
(-0.816372 0 0)
(-0.814409 0 0)
(-0.812442 0 0)
(-0.810471 0 0)
(-0.808495 0 0)
(-0.806516 0 0)
(-0.804533 0 0)
(-0.802545 0 0)
(-0.800554 0 0)
(-0.798559 0 0)
(-0.79656 0 0)
(-0.794557 0 0)
(-0.79255 0 0)
(-0.79054 0 0)
(-0.788526 0 0)
(-0.786508 0 0)
(-0.784487 0 0)
(-0.782462 0 0)
(-0.780434 0 0)
(-0.778402 0 0)
(-0.776367 0 0)
(-0.774328 0 0)
(-0.772286 0 0)
(-0.770241 0 0)
(-0.768192 0 0)
(-0.76614 0 0)
(-0.764084 0 0)
(-0.762026 0 0)
(-0.759964 0 0)
(-0.757899 0 0)
(-0.755831 0 0)
(-0.753759 0 0)
(-0.751685 0 0)
(-0.749607 0 0)
(-0.747527 0 0)
(-0.745443 0 0)
(-0.743357 0 0)
(-0.741268 0 0)
(-0.739175 0 0)
(-0.73708 0 0)
(-0.734982 0 0)
(-0.732881 0 0)
(-0.730777 0 0)
(-0.72867 0 0)
(-0.726561 0 0)
(-0.724449 0 0)
(-0.722334 0 0)
(-0.720217 0 0)
(-0.718096 0 0)
(-0.715973 0 0)
(-0.713848 0 0)
(-0.71172 0 0)
(-0.709589 0 0)
(-0.707456 0 0)
(-0.70532 0 0)
(-0.703182 0 0)
(-0.701041 0 0)
(-0.698898 0 0)
(-0.696752 0 0)
(-0.694604 0 0)
(-0.692453 0 0)
(-0.6903 0 0)
(-0.688145 0 0)
(-0.685987 0 0)
(-0.683827 0 0)
(-0.681665 0 0)
(-0.6795 0 0)
(-0.677333 0 0)
(-0.675164 0 0)
(-0.672993 0 0)
(-0.670819 0 0)
(-0.668643 0 0)
(-0.666465 0 0)
(-0.664285 0 0)
(-0.662103 0 0)
(-0.659919 0 0)
(-0.657732 0 0)
(-0.655543 0 0)
(-0.653353 0 0)
(-0.65116 0 0)
(-0.648965 0 0)
(-0.646768 0 0)
(-0.644569 0 0)
(-0.642369 0 0)
(-0.640166 0 0)
(-0.637961 0 0)
(-0.635754 0 0)
(-0.633546 0 0)
(-0.631335 0 0)
(-0.629122 0 0)
(-0.626908 0 0)
(-0.624692 0 0)
(-0.622474 0 0)
(-0.620254 0 0)
(-0.618032 0 0)
(-0.615808 0 0)
(-0.613583 0 0)
(-0.611356 0 0)
(-0.609127 0 0)
(-0.606896 0 0)
(-0.604664 0 0)
(-0.60243 0 0)
(-0.600194 0 0)
(-0.597956 0 0)
(-0.595717 0 0)
(-0.593476 0 0)
(-0.591233 0 0)
(-0.588989 0 0)
(-0.586743 0 0)
(-0.584495 0 0)
(-0.582246 0 0)
(-0.579996 0 0)
(-0.577743 0 0)
(-0.575489 0 0)
(-0.573234 0 0)
(-0.570977 0 0)
(-0.568718 0 0)
(-0.566458 0 0)
(-0.564196 0 0)
(-0.561933 0 0)
(-0.559669 0 0)
(-0.557402 0 0)
(-0.555135 0 0)
(-0.552866 0 0)
(-0.550595 0 0)
(-0.548323 0 0)
(-0.54605 0 0)
(-0.543775 0 0)
(-0.541499 0 0)
(-0.539221 0 0)
(-0.536942 0 0)
(-0.534662 0 0)
(-0.53238 0 0)
(-0.530097 0 0)
(-0.527813 0 0)
(-0.525527 0 0)
(-0.52324 0 0)
(-0.520952 0 0)
(-0.518662 0 0)
(-0.516371 0 0)
(-0.514079 0 0)
(-0.511785 0 0)
(-0.50949 0 0)
(-0.507194 0 0)
(-0.504897 0 0)
(-0.502599 0 0)
(-0.500299 0 0)
(-0.497998 0 0)
(-0.495696 0 0)
(-0.493392 0 0)
(-0.491088 0 0)
(-0.488782 0 0)
(-0.486475 0 0)
(-0.484167 0 0)
(-0.481858 0 0)
(-0.479547 0 0)
(-0.477236 0 0)
(-0.474923 0 0)
(-0.472609 0 0)
(-0.470295 0 0)
(-0.467979 0 0)
(-0.465662 0 0)
(-0.463343 0 0)
(-0.461024 0 0)
(-0.458704 0 0)
(-0.456383 0 0)
(-0.45406 0 0)
(-0.451737 0 0)
(-0.449412 0 0)
(-0.447087 0 0)
(-0.44476 0 0)
(-0.442433 0 0)
(-0.440104 0 0)
(-0.437774 0 0)
(-0.435444 0 0)
(-0.433112 0 0)
(-0.43078 0 0)
(-0.428447 0 0)
(-0.426112 0 0)
(-0.423777 0 0)
(-0.42144 0 0)
(-0.419103 0 0)
(-0.416765 0 0)
(-0.414426 0 0)
(-0.412086 0 0)
(-0.409745 0 0)
(-0.407403 0 0)
(-0.405061 0 0)
(-0.402717 0 0)
(-0.400373 0 0)
(-0.398027 0 0)
(-0.395681 0 0)
(-0.393334 0 0)
(-0.390986 0 0)
(-0.388637 0 0)
(-0.386288 0 0)
(-0.383937 0 0)
(-0.381586 0 0)
(-0.379234 0 0)
(-0.376881 0 0)
(-0.374528 0 0)
(-0.372173 0 0)
(-0.369818 0 0)
(-0.367462 0 0)
(-0.365105 0 0)
(-0.362748 0 0)
(-0.360389 0 0)
(-0.35803 0 0)
(-0.35567 0 0)
(-0.35331 0 0)
(-0.350949 0 0)
(-0.348587 0 0)
(-0.346224 0 0)
(-0.34386 0 0)
(-0.341496 0 0)
(-0.339131 0 0)
(-0.336766 0 0)
(-0.334399 0 0)
(-0.332032 0 0)
(-0.329665 0 0)
(-0.327297 0 0)
(-0.324928 0 0)
(-0.322558 0 0)
(-0.320188 0 0)
(-0.317817 0 0)
(-0.315445 0 0)
(-0.313073 0 0)
(-0.3107 0 0)
(-0.308326 0 0)
(-0.305952 0 0)
(-0.303578 0 0)
(-0.301202 0 0)
(-0.298826 0 0)
(-0.29645 0 0)
(-0.294073 0 0)
(-0.291695 0 0)
(-0.289316 0 0)
(-0.286938 0 0)
(-0.284558 0 0)
(-0.282178 0 0)
(-0.279797 0 0)
(-0.277416 0 0)
(-0.275035 0 0)
(-0.272652 0 0)
(-0.27027 0 0)
(-0.267886 0 0)
(-0.265503 0 0)
(-0.263118 0 0)
(-0.260733 0 0)
(-0.258348 0 0)
(-0.255962 0 0)
(-0.253576 0 0)
(-0.251189 0 0)
(-0.248801 0 0)
(-0.246414 0 0)
(-0.244025 0 0)
(-0.241636 0 0)
(-0.239247 0 0)
(-0.236858 0 0)
(-0.234467 0 0)
(-0.232077 0 0)
(-0.229686 0 0)
(-0.227294 0 0)
(-0.224902 0 0)
(-0.22251 0 0)
(-0.220117 0 0)
(-0.217724 0 0)
(-0.21533 0 0)
(-0.212936 0 0)
(-0.210541 0 0)
(-0.208147 0 0)
(-0.205751 0 0)
(-0.203356 0 0)
(-0.20096 0 0)
(-0.198563 0 0)
(-0.196166 0 0)
(-0.193769 0 0)
(-0.191372 0 0)
(-0.188974 0 0)
(-0.186575 0 0)
(-0.184177 0 0)
(-0.181778 0 0)
(-0.179379 0 0)
(-0.176979 0 0)
(-0.174579 0 0)
(-0.172179 0 0)
(-0.169778 0 0)
(-0.167377 0 0)
(-0.164976 0 0)
(-0.162574 0 0)
(-0.160172 0 0)
(-0.15777 0 0)
(-0.155368 0 0)
(-0.152965 0 0)
(-0.150562 0 0)
(-0.148158 0 0)
(-0.145755 0 0)
(-0.143351 0 0)
(-0.140947 0 0)
(-0.138542 0 0)
(-0.136138 0 0)
(-0.133733 0 0)
(-0.131328 0 0)
(-0.128922 0 0)
(-0.126517 0 0)
(-0.124111 0 0)
(-0.121705 0 0)
(-0.119298 0 0)
(-0.116892 0 0)
(-0.114485 0 0)
(-0.112078 0 0)
(-0.109671 0 0)
(-0.107263 0 0)
(-0.104856 0 0)
(-0.102448 0 0)
(-0.10004 0 0)
(-0.0976319 0 0)
(-0.0952235 0 0)
(-0.092815 0 0)
(-0.0904064 0 0)
(-0.0879975 0 0)
(-0.0855885 0 0)
(-0.0831793 0 0)
(-0.08077 0 0)
(-0.0783605 0 0)
(-0.0759509 0 0)
(-0.0735412 0 0)
(-0.0711313 0 0)
(-0.0687213 0 0)
(-0.0663111 0 0)
(-0.0639009 0 0)
(-0.0614905 0 0)
(-0.05908 0 0)
(-0.0566694 0 0)
(-0.0542587 0 0)
(-0.0518479 0 0)
(-0.049437 0 0)
(-0.047026 0 0)
(-0.0446149 0 0)
(-0.0422038 0 0)
(-0.0397925 0 0)
(-0.0373812 0 0)
(-0.0349699 0 0)
(-0.0325584 0 0)
(-0.0301469 0 0)
(-0.0277354 0 0)
(-0.0253238 0 0)
(-0.0229121 0 0)
(-0.0205004 0 0)
(-0.0180887 0 0)
(-0.0156769 0 0)
(-0.0132652 0 0)
(-0.0108533 0 0)
(-0.00844151 0 0)
(-0.00602966 0 0)
(-0.0036178 0 0)
(-0.00120593 0 0)
)
;

boundaryField
{
    left
    {
        type            fixedValue;
        value           uniform (0 0 0);
    }
    right
    {
        type            fixedValue;
        value           uniform (0 0 0);
    }
    frontBackUpDown
    {
        type            empty;
    }
}


// ************************************************************************* //
