/*--------------------------------*- C++ -*----------------------------------*\
| =========                 |                                                 |
| \\      /  F ield         | OpenFOAM: The Open Source CFD Toolbox           |
|  \\    /   O peration     | Version:  2412                                  |
|   \\  /    A nd           | Website:  www.openfoam.com                      |
|    \\/     M anipulation  |                                                 |
\*---------------------------------------------------------------------------*/
FoamFile
{
    version     2.0;
    format      ascii;
    arch        "LSB;label=32;scalar=64";
    class       surfaceScalarField;
    location    "0.94";
    object      phi;
}
// * * * * * * * * * * * * * * * * * * * * * * * * * * * * * * * * * * * * * //

dimensions      [0 3 -1 0 0 0 0];

oriented        oriented;

internalField   nonuniform List<scalar> 
799
(
1.98875e-05
3.97751e-05
5.96627e-05
7.95502e-05
9.94376e-05
0.000119325
0.000139212
0.000159099
0.000178986
0.000198873
0.000218759
0.000238646
0.000258532
0.000278417
0.000298303
0.000318188
0.000338073
0.000357957
0.000377842
0.000397725
0.000417609
0.000437492
0.000457374
0.000477256
0.000497138
0.000517019
0.000536899
0.000556779
0.000576658
0.000596537
0.000616415
0.000636293
0.000656169
0.000676046
0.000695921
0.000715796
0.00073567
0.000755543
0.000775415
0.000795287
0.000815158
0.000835028
0.000854897
0.000874765
0.000894633
0.000914499
0.000934365
0.000954229
0.000974093
0.000993955
0.00101382
0.00103368
0.00105354
0.00107339
0.00109325
0.00111311
0.00113296
0.00115282
0.00117267
0.00119252
0.00121237
0.00123222
0.00125207
0.00127191
0.00129176
0.0013116
0.00133144
0.00135128
0.00137112
0.00139096
0.0014108
0.00143063
0.00145047
0.0014703
0.00149013
0.00150996
0.00152978
0.00154961
0.00156943
0.00158925
0.00160908
0.00162889
0.00164871
0.00166853
0.00168834
0.00170815
0.00172796
0.00174777
0.00176758
0.00178738
0.00180718
0.00182699
0.00184678
0.00186658
0.00188638
0.00190617
0.00192596
0.00194575
0.00196553
0.00198532
0.0020051
0.00202488
0.00204466
0.00206443
0.00208421
0.00210398
0.00212375
0.00214352
0.00216328
0.00218304
0.0022028
0.00222256
0.00224231
0.00226207
0.00228182
0.00230156
0.00232131
0.00234105
0.00236079
0.00238053
0.00240026
0.00242
0.00243973
0.00245945
0.00247918
0.0024989
0.00251862
0.00253833
0.00255805
0.00257776
0.00259746
0.00261717
0.00263687
0.00265657
0.00267626
0.00269596
0.00271565
0.00273533
0.00275502
0.0027747
0.00279438
0.00281405
0.00283372
0.00285339
0.00287305
0.00289272
0.00291237
0.00293203
0.00295168
0.00297133
0.00299097
0.00301061
0.00303025
0.00304989
0.00306952
0.00308915
0.00310877
0.00312839
0.00314801
0.00316762
0.00318723
0.00320684
0.00322644
0.00324604
0.00326563
0.00328522
0.00330481
0.00332439
0.00334397
0.00336355
0.00338312
0.00340269
0.00342225
0.00344181
0.00346137
0.00348092
0.00350047
0.00352001
0.00353955
0.00355908
0.00357861
0.00359814
0.00361766
0.00363718
0.00365669
0.0036762
0.00369571
0.00371521
0.0037347
0.00375419
0.00377368
0.00379316
0.00381264
0.00383211
0.00385158
0.00387104
0.0038905
0.00390996
0.00392941
0.00394885
0.00396829
0.00398772
0.00400715
0.00402658
0.004046
0.00406541
0.00408482
0.00410423
0.00412363
0.00414302
0.00416241
0.00418179
0.00420117
0.00422054
0.00423991
0.00425927
0.00427863
0.00429798
0.00431733
0.00433667
0.004356
0.00437533
0.00439465
0.00441397
0.00443328
0.00445259
0.00447189
0.00449118
0.00451047
0.00452975
0.00454903
0.0045683
0.00458756
0.00460682
0.00462608
0.00464532
0.00466456
0.0046838
0.00470302
0.00472224
0.00474146
0.00476067
0.00477987
0.00479906
0.00481825
0.00483744
0.00485661
0.00487578
0.00489494
0.0049141
0.00493325
0.00495239
0.00497152
0.00499065
0.00500977
0.00502889
0.00504799
0.00506709
0.00508618
0.00510527
0.00512435
0.00514342
0.00516248
0.00518154
0.00520059
0.00521963
0.00523866
0.00525769
0.0052767
0.00529571
0.00531472
0.00533371
0.0053527
0.00537168
0.00539065
0.00540961
0.00542857
0.00544751
0.00546645
0.00548538
0.00550431
0.00552322
0.00554213
0.00556102
0.00557991
0.00559879
0.00561766
0.00563653
0.00565538
0.00567422
0.00569306
0.00571189
0.00573071
0.00574952
0.00576832
0.00578711
0.00580589
0.00582466
0.00584342
0.00586218
0.00588092
0.00589966
0.00591838
0.0059371
0.0059558
0.0059745
0.00599319
0.00601186
0.00603053
0.00604918
0.00606783
0.00608647
0.00610509
0.00612371
0.00614231
0.00616091
0.00617949
0.00619806
0.00621663
0.00623518
0.00625372
0.00627225
0.00629077
0.00630927
0.00632777
0.00634626
0.00636473
0.00638319
0.00640164
0.00642008
0.00643851
0.00645693
0.00647533
0.00649372
0.00651211
0.00653047
0.00654883
0.00656717
0.00658551
0.00660383
0.00662213
0.00664043
0.00665871
0.00667698
0.00669523
0.00671348
0.00673171
0.00674992
0.00676813
0.00678632
0.00680449
0.00682265
0.0068408
0.00685894
0.00687706
0.00689517
0.00691326
0.00693134
0.00694941
0.00696746
0.0069855
0.00700352
0.00702152
0.00703952
0.00705749
0.00707546
0.0070934
0.00711133
0.00712925
0.00714715
0.00716504
0.00718291
0.00720076
0.0072186
0.00723642
0.00725422
0.00727201
0.00728978
0.00730754
0.00732528
0.007343
0.0073607
0.00737839
0.00739606
0.00741371
0.00743134
0.00744896
0.00746656
0.00748414
0.0075017
0.00751924
0.00753677
0.00755428
0.00757176
0.00758923
0.00760655
0.00761855
0.00744373
0.00547611
6.01275e-06
-0.00546897
-0.00744255
-0.00761848
-0.00760652
-0.0075892
-0.00757174
-0.00755425
-0.00753675
-0.00751922
-0.00750168
-0.00748412
-0.00746654
-0.00744894
-0.00743132
-0.00741369
-0.00739603
-0.00737836
-0.00736068
-0.00734297
-0.00732525
-0.00730751
-0.00728976
-0.00727199
-0.0072542
-0.00723639
-0.00721857
-0.00720074
-0.00718288
-0.00716501
-0.00714713
-0.00712923
-0.00711131
-0.00709338
-0.00707543
-0.00705747
-0.00703949
-0.0070215
-0.00700349
-0.00698547
-0.00696744
-0.00694939
-0.00693132
-0.00691324
-0.00689515
-0.00687704
-0.00685892
-0.00684078
-0.00682263
-0.00680447
-0.00678629
-0.0067681
-0.0067499
-0.00673168
-0.00671345
-0.00669521
-0.00667696
-0.00665869
-0.00664041
-0.00662211
-0.0066038
-0.00658549
-0.00656715
-0.00654881
-0.00653045
-0.00651208
-0.0064937
-0.00647531
-0.00645691
-0.00643849
-0.00642006
-0.00640162
-0.00638317
-0.00636471
-0.00634624
-0.00632775
-0.00630925
-0.00629075
-0.00627223
-0.0062537
-0.00623516
-0.00621661
-0.00619804
-0.00617947
-0.00616089
-0.00614229
-0.00612369
-0.00610507
-0.00608645
-0.00606781
-0.00604917
-0.00603051
-0.00601184
-0.00599317
-0.00597448
-0.00595579
-0.00593708
-0.00591836
-0.00589964
-0.0058809
-0.00586216
-0.00584341
-0.00582464
-0.00580587
-0.00578709
-0.0057683
-0.0057495
-0.00573069
-0.00571187
-0.00569304
-0.00567421
-0.00565536
-0.00563651
-0.00561765
-0.00559877
-0.0055799
-0.00556101
-0.00554211
-0.0055232
-0.00550429
-0.00548537
-0.00546644
-0.0054475
-0.00542855
-0.0054096
-0.00539063
-0.00537166
-0.00535268
-0.0053337
-0.0053147
-0.0052957
-0.00527669
-0.00525767
-0.00523865
-0.00521961
-0.00520057
-0.00518152
-0.00516247
-0.0051434
-0.00512433
-0.00510526
-0.00508617
-0.00506708
-0.00504798
-0.00502887
-0.00500976
-0.00499064
-0.00497151
-0.00495237
-0.00493323
-0.00491408
-0.00489493
-0.00487577
-0.0048566
-0.00483742
-0.00481824
-0.00479905
-0.00477986
-0.00476065
-0.00474145
-0.00472223
-0.00470301
-0.00468378
-0.00466455
-0.00464531
-0.00462606
-0.00460681
-0.00458755
-0.00456829
-0.00454902
-0.00452974
-0.00451046
-0.00449117
-0.00447188
-0.00445258
-0.00443327
-0.00441396
-0.00439464
-0.00437532
-0.00435599
-0.00433665
-0.00431731
-0.00429797
-0.00427862
-0.00425926
-0.0042399
-0.00422053
-0.00420116
-0.00418178
-0.0041624
-0.00414301
-0.00412362
-0.00410422
-0.00408481
-0.0040654
-0.00404599
-0.00402657
-0.00400714
-0.00398772
-0.00396828
-0.00394884
-0.0039294
-0.00390995
-0.0038905
-0.00387104
-0.00385157
-0.00383211
-0.00381263
-0.00379316
-0.00377367
-0.00375419
-0.0037347
-0.0037152
-0.0036957
-0.0036762
-0.00365669
-0.00363717
-0.00361766
-0.00359813
-0.00357861
-0.00355908
-0.00353954
-0.00352
-0.00350046
-0.00348091
-0.00346136
-0.00344181
-0.00342225
-0.00340268
-0.00338311
-0.00336354
-0.00334397
-0.00332439
-0.0033048
-0.00328522
-0.00326563
-0.00324603
-0.00322643
-0.00320683
-0.00318723
-0.00316762
-0.003148
-0.00312839
-0.00310876
-0.00308914
-0.00306951
-0.00304988
-0.00303025
-0.00301061
-0.00299097
-0.00297132
-0.00295167
-0.00293202
-0.00291237
-0.00289271
-0.00287305
-0.00285338
-0.00283372
-0.00281404
-0.00279437
-0.00277469
-0.00275501
-0.00273533
-0.00271564
-0.00269595
-0.00267626
-0.00265656
-0.00263687
-0.00261716
-0.00259746
-0.00257775
-0.00255804
-0.00253833
-0.00251861
-0.00249889
-0.00247917
-0.00245945
-0.00243972
-0.00241999
-0.00240026
-0.00238053
-0.00236079
-0.00234105
-0.00232131
-0.00230156
-0.00228181
-0.00226206
-0.00224231
-0.00222256
-0.0022028
-0.00218304
-0.00216328
-0.00214351
-0.00212375
-0.00210398
-0.00208421
-0.00206443
-0.00204466
-0.00202488
-0.0020051
-0.00198532
-0.00196553
-0.00194575
-0.00192596
-0.00190617
-0.00188637
-0.00186658
-0.00184678
-0.00182698
-0.00180718
-0.00178738
-0.00176758
-0.00174777
-0.00172796
-0.00170815
-0.00168834
-0.00166853
-0.00164871
-0.00162889
-0.00160907
-0.00158925
-0.00156943
-0.00154961
-0.00152978
-0.00150995
-0.00149013
-0.0014703
-0.00145046
-0.00143063
-0.0014108
-0.00139096
-0.00137112
-0.00135128
-0.00133144
-0.0013116
-0.00129176
-0.00127191
-0.00125207
-0.00123222
-0.00121237
-0.00119252
-0.00117267
-0.00115282
-0.00113296
-0.00111311
-0.00109325
-0.00107339
-0.00105354
-0.00103368
-0.00101382
-0.000993954
-0.000974092
-0.000954228
-0.000934364
-0.000914499
-0.000894632
-0.000874765
-0.000854897
-0.000835028
-0.000815158
-0.000795287
-0.000775415
-0.000755543
-0.000735669
-0.000715795
-0.000695921
-0.000676045
-0.000656169
-0.000636292
-0.000616415
-0.000596537
-0.000576658
-0.000556779
-0.000536899
-0.000517018
-0.000497137
-0.000477256
-0.000457374
-0.000437491
-0.000417609
-0.000397725
-0.000377842
-0.000357957
-0.000338073
-0.000318188
-0.000298303
-0.000278417
-0.000258532
-0.000238646
-0.000218759
-0.000198873
-0.000178986
-0.000159099
-0.000139212
-0.000119325
-9.94377e-05
-7.95503e-05
-5.96628e-05
-3.97752e-05
-1.98876e-05
)
;

boundaryField
{
    left
    {
        type            calculated;
        value           uniform 0;
    }
    right
    {
        type            calculated;
        value           uniform 0;
    }
    frontBackUpDown
    {
        type            empty;
    }
}


// ************************************************************************* //
