/*--------------------------------*- C++ -*----------------------------------*\
| =========                 |                                                 |
| \\      /  F ield         | OpenFOAM: The Open Source CFD Toolbox           |
|  \\    /   O peration     | Version:  2412                                  |
|   \\  /    A nd           | Website:  www.openfoam.com                      |
|    \\/     M anipulation  |                                                 |
\*---------------------------------------------------------------------------*/
FoamFile
{
    version     2.0;
    format      ascii;
    arch        "LSB;label=32;scalar=64";
    class       volVectorField;
    location    "0.94";
    object      U_0;
}
// * * * * * * * * * * * * * * * * * * * * * * * * * * * * * * * * * * * * * //

dimensions      [0 1 -1 0 0 0 0];

internalField   nonuniform List<vector> 
800
(
(0.000994769 0 0)
(0.00298432 0 0)
(0.00497387 0 0)
(0.00696341 0 0)
(0.00895295 0 0)
(0.0109425 0 0)
(0.012932 0 0)
(0.0149215 0 0)
(0.016911 0 0)
(0.0189005 0 0)
(0.0208899 0 0)
(0.0228793 0 0)
(0.0248687 0 0)
(0.0268581 0 0)
(0.0288475 0 0)
(0.0308368 0 0)
(0.0328261 0 0)
(0.0348153 0 0)
(0.0368046 0 0)
(0.0387937 0 0)
(0.0407829 0 0)
(0.042772 0 0)
(0.0447611 0 0)
(0.0467501 0 0)
(0.048739 0 0)
(0.0507279 0 0)
(0.0527168 0 0)
(0.0547056 0 0)
(0.0566944 0 0)
(0.0586831 0 0)
(0.0606717 0 0)
(0.0626603 0 0)
(0.0646488 0 0)
(0.0666372 0 0)
(0.0686256 0 0)
(0.0706139 0 0)
(0.0726021 0 0)
(0.0745902 0 0)
(0.0765783 0 0)
(0.0785663 0 0)
(0.0805542 0 0)
(0.082542 0 0)
(0.0845298 0 0)
(0.0865174 0 0)
(0.088505 0 0)
(0.0904925 0 0)
(0.0924799 0 0)
(0.0944672 0 0)
(0.0964543 0 0)
(0.0984414 0 0)
(0.100428 0 0)
(0.102415 0 0)
(0.104402 0 0)
(0.106389 0 0)
(0.108375 0 0)
(0.110362 0 0)
(0.112348 0 0)
(0.114334 0 0)
(0.11632 0 0)
(0.118306 0 0)
(0.120292 0 0)
(0.122278 0 0)
(0.124263 0 0)
(0.126249 0 0)
(0.128234 0 0)
(0.130219 0 0)
(0.132205 0 0)
(0.134189 0 0)
(0.136174 0 0)
(0.138159 0 0)
(0.140143 0 0)
(0.142128 0 0)
(0.144112 0 0)
(0.146096 0 0)
(0.14808 0 0)
(0.150064 0 0)
(0.152047 0 0)
(0.154031 0 0)
(0.156014 0 0)
(0.157997 0 0)
(0.15998 0 0)
(0.161963 0 0)
(0.163945 0 0)
(0.165928 0 0)
(0.16791 0 0)
(0.169892 0 0)
(0.171874 0 0)
(0.173855 0 0)
(0.175837 0 0)
(0.177818 0 0)
(0.179799 0 0)
(0.18178 0 0)
(0.183761 0 0)
(0.185742 0 0)
(0.187722 0 0)
(0.189702 0 0)
(0.191682 0 0)
(0.193662 0 0)
(0.195641 0 0)
(0.197621 0 0)
(0.1996 0 0)
(0.201579 0 0)
(0.203557 0 0)
(0.205536 0 0)
(0.207514 0 0)
(0.209492 0 0)
(0.21147 0 0)
(0.213447 0 0)
(0.215425 0 0)
(0.217402 0 0)
(0.219379 0 0)
(0.221355 0 0)
(0.223332 0 0)
(0.225308 0 0)
(0.227284 0 0)
(0.229259 0 0)
(0.231235 0 0)
(0.23321 0 0)
(0.235185 0 0)
(0.23716 0 0)
(0.239134 0 0)
(0.241108 0 0)
(0.243082 0 0)
(0.245055 0 0)
(0.247029 0 0)
(0.249002 0 0)
(0.250975 0 0)
(0.252947 0 0)
(0.254919 0 0)
(0.256891 0 0)
(0.258863 0 0)
(0.260834 0 0)
(0.262805 0 0)
(0.264776 0 0)
(0.266747 0 0)
(0.268717 0 0)
(0.270687 0 0)
(0.272656 0 0)
(0.274625 0 0)
(0.276594 0 0)
(0.278563 0 0)
(0.280531 0 0)
(0.2825 0 0)
(0.284467 0 0)
(0.286435 0 0)
(0.288402 0 0)
(0.290368 0 0)
(0.292335 0 0)
(0.294301 0 0)
(0.296267 0 0)
(0.298232 0 0)
(0.300197 0 0)
(0.302162 0 0)
(0.304126 0 0)
(0.30609 0 0)
(0.308054 0 0)
(0.310017 0 0)
(0.31198 0 0)
(0.313943 0 0)
(0.315905 0 0)
(0.317867 0 0)
(0.319829 0 0)
(0.32179 0 0)
(0.323751 0 0)
(0.325711 0 0)
(0.327671 0 0)
(0.329631 0 0)
(0.33159 0 0)
(0.333549 0 0)
(0.335507 0 0)
(0.337465 0 0)
(0.339423 0 0)
(0.34138 0 0)
(0.343337 0 0)
(0.345294 0 0)
(0.34725 0 0)
(0.349206 0 0)
(0.351161 0 0)
(0.353116 0 0)
(0.35507 0 0)
(0.357024 0 0)
(0.358978 0 0)
(0.360931 0 0)
(0.362884 0 0)
(0.364836 0 0)
(0.366788 0 0)
(0.368739 0 0)
(0.37069 0 0)
(0.372641 0 0)
(0.374591 0 0)
(0.37654 0 0)
(0.37849 0 0)
(0.380438 0 0)
(0.382386 0 0)
(0.384334 0 0)
(0.386282 0 0)
(0.388228 0 0)
(0.390175 0 0)
(0.392121 0 0)
(0.394066 0 0)
(0.396011 0 0)
(0.397955 0 0)
(0.399899 0 0)
(0.401843 0 0)
(0.403785 0 0)
(0.405728 0 0)
(0.40767 0 0)
(0.409611 0 0)
(0.411552 0 0)
(0.413492 0 0)
(0.415432 0 0)
(0.417372 0 0)
(0.41931 0 0)
(0.421249 0 0)
(0.423186 0 0)
(0.425123 0 0)
(0.42706 0 0)
(0.428996 0 0)
(0.430932 0 0)
(0.432867 0 0)
(0.434801 0 0)
(0.436735 0 0)
(0.438668 0 0)
(0.440601 0 0)
(0.442533 0 0)
(0.444465 0 0)
(0.446396 0 0)
(0.448326 0 0)
(0.450256 0 0)
(0.452185 0 0)
(0.454114 0 0)
(0.456042 0 0)
(0.457969 0 0)
(0.459896 0 0)
(0.461823 0 0)
(0.463748 0 0)
(0.465673 0 0)
(0.467598 0 0)
(0.469521 0 0)
(0.471444 0 0)
(0.473367 0 0)
(0.475289 0 0)
(0.47721 0 0)
(0.47913 0 0)
(0.48105 0 0)
(0.482969 0 0)
(0.484888 0 0)
(0.486806 0 0)
(0.488723 0 0)
(0.49064 0 0)
(0.492556 0 0)
(0.494471 0 0)
(0.496385 0 0)
(0.498299 0 0)
(0.500212 0 0)
(0.502125 0 0)
(0.504036 0 0)
(0.505947 0 0)
(0.507858 0 0)
(0.509767 0 0)
(0.511676 0 0)
(0.513584 0 0)
(0.515491 0 0)
(0.517398 0 0)
(0.519304 0 0)
(0.521209 0 0)
(0.523113 0 0)
(0.525017 0 0)
(0.52692 0 0)
(0.528822 0 0)
(0.530723 0 0)
(0.532624 0 0)
(0.534523 0 0)
(0.536422 0 0)
(0.53832 0 0)
(0.540218 0 0)
(0.542114 0 0)
(0.54401 0 0)
(0.545905 0 0)
(0.547799 0 0)
(0.549692 0 0)
(0.551585 0 0)
(0.553476 0 0)
(0.555367 0 0)
(0.557257 0 0)
(0.559146 0 0)
(0.561034 0 0)
(0.562922 0 0)
(0.564808 0 0)
(0.566694 0 0)
(0.568578 0 0)
(0.570462 0 0)
(0.572345 0 0)
(0.574227 0 0)
(0.576108 0 0)
(0.577988 0 0)
(0.579867 0 0)
(0.581746 0 0)
(0.583623 0 0)
(0.5855 0 0)
(0.587375 0 0)
(0.58925 0 0)
(0.591123 0 0)
(0.592996 0 0)
(0.594867 0 0)
(0.596738 0 0)
(0.598608 0 0)
(0.600477 0 0)
(0.602344 0 0)
(0.604211 0 0)
(0.606077 0 0)
(0.607941 0 0)
(0.609805 0 0)
(0.611668 0 0)
(0.613529 0 0)
(0.61539 0 0)
(0.617249 0 0)
(0.619108 0 0)
(0.620965 0 0)
(0.622821 0 0)
(0.624676 0 0)
(0.62653 0 0)
(0.628383 0 0)
(0.630235 0 0)
(0.632086 0 0)
(0.633936 0 0)
(0.635784 0 0)
(0.637631 0 0)
(0.639478 0 0)
(0.641323 0 0)
(0.643167 0 0)
(0.645009 0 0)
(0.646851 0 0)
(0.648691 0 0)
(0.650531 0 0)
(0.652369 0 0)
(0.654205 0 0)
(0.656041 0 0)
(0.657875 0 0)
(0.659708 0 0)
(0.66154 0 0)
(0.663371 0 0)
(0.6652 0 0)
(0.667028 0 0)
(0.668855 0 0)
(0.67068 0 0)
(0.672504 0 0)
(0.674327 0 0)
(0.676148 0 0)
(0.677969 0 0)
(0.679787 0 0)
(0.681605 0 0)
(0.683421 0 0)
(0.685236 0 0)
(0.687049 0 0)
(0.688861 0 0)
(0.690672 0 0)
(0.692481 0 0)
(0.694288 0 0)
(0.696095 0 0)
(0.697899 0 0)
(0.699703 0 0)
(0.701505 0 0)
(0.703305 0 0)
(0.705104 0 0)
(0.706901 0 0)
(0.708697 0 0)
(0.710492 0 0)
(0.712284 0 0)
(0.714076 0 0)
(0.715865 0 0)
(0.717654 0 0)
(0.71944 0 0)
(0.721225 0 0)
(0.723008 0 0)
(0.72479 0 0)
(0.72657 0 0)
(0.728349 0 0)
(0.730125 0 0)
(0.7319 0 0)
(0.733674 0 0)
(0.735445 0 0)
(0.737215 0 0)
(0.738983 0 0)
(0.74075 0 0)
(0.742515 0 0)
(0.744277 0 0)
(0.746039 0 0)
(0.747798 0 0)
(0.749555 0 0)
(0.751311 0 0)
(0.753065 0 0)
(0.754817 0 0)
(0.756567 0 0)
(0.758315 0 0)
(0.76006 0 0)
(0.76178 0 0)
(0.762471 0 0)
(0.7269 0 0)
(0.368927 0 0)
(-0.367725 0 0)
(-0.726676 0 0)
(-0.762461 0 0)
(-0.761777 0 0)
(-0.760058 0 0)
(-0.758312 0 0)
(-0.756564 0 0)
(-0.754814 0 0)
(-0.753062 0 0)
(-0.751309 0 0)
(-0.749553 0 0)
(-0.747796 0 0)
(-0.746036 0 0)
(-0.744275 0 0)
(-0.742512 0 0)
(-0.740748 0 0)
(-0.738981 0 0)
(-0.737213 0 0)
(-0.735443 0 0)
(-0.733671 0 0)
(-0.731898 0 0)
(-0.730123 0 0)
(-0.728346 0 0)
(-0.726568 0 0)
(-0.724788 0 0)
(-0.723006 0 0)
(-0.721223 0 0)
(-0.719438 0 0)
(-0.717651 0 0)
(-0.715863 0 0)
(-0.714073 0 0)
(-0.712282 0 0)
(-0.710489 0 0)
(-0.708695 0 0)
(-0.706899 0 0)
(-0.705102 0 0)
(-0.703303 0 0)
(-0.701502 0 0)
(-0.699701 0 0)
(-0.697897 0 0)
(-0.696092 0 0)
(-0.694286 0 0)
(-0.692478 0 0)
(-0.690669 0 0)
(-0.688859 0 0)
(-0.687047 0 0)
(-0.685234 0 0)
(-0.683419 0 0)
(-0.681603 0 0)
(-0.679785 0 0)
(-0.677966 0 0)
(-0.676146 0 0)
(-0.674325 0 0)
(-0.672502 0 0)
(-0.670678 0 0)
(-0.668852 0 0)
(-0.667026 0 0)
(-0.665198 0 0)
(-0.663368 0 0)
(-0.661538 0 0)
(-0.659706 0 0)
(-0.657873 0 0)
(-0.656039 0 0)
(-0.654203 0 0)
(-0.652366 0 0)
(-0.650529 0 0)
(-0.648689 0 0)
(-0.646849 0 0)
(-0.645007 0 0)
(-0.643165 0 0)
(-0.641321 0 0)
(-0.639476 0 0)
(-0.63763 0 0)
(-0.635782 0 0)
(-0.633934 0 0)
(-0.632084 0 0)
(-0.630233 0 0)
(-0.628381 0 0)
(-0.626528 0 0)
(-0.624674 0 0)
(-0.622819 0 0)
(-0.620963 0 0)
(-0.619106 0 0)
(-0.617247 0 0)
(-0.615388 0 0)
(-0.613527 0 0)
(-0.611666 0 0)
(-0.609803 0 0)
(-0.607939 0 0)
(-0.606075 0 0)
(-0.604209 0 0)
(-0.602342 0 0)
(-0.600475 0 0)
(-0.598606 0 0)
(-0.596736 0 0)
(-0.594866 0 0)
(-0.592994 0 0)
(-0.591121 0 0)
(-0.589248 0 0)
(-0.587373 0 0)
(-0.585498 0 0)
(-0.583621 0 0)
(-0.581744 0 0)
(-0.579866 0 0)
(-0.577986 0 0)
(-0.576106 0 0)
(-0.574225 0 0)
(-0.572343 0 0)
(-0.57046 0 0)
(-0.568577 0 0)
(-0.566692 0 0)
(-0.564806 0 0)
(-0.56292 0 0)
(-0.561033 0 0)
(-0.559144 0 0)
(-0.557255 0 0)
(-0.555366 0 0)
(-0.553475 0 0)
(-0.551583 0 0)
(-0.549691 0 0)
(-0.547798 0 0)
(-0.545903 0 0)
(-0.544009 0 0)
(-0.542113 0 0)
(-0.540216 0 0)
(-0.538319 0 0)
(-0.536421 0 0)
(-0.534522 0 0)
(-0.532622 0 0)
(-0.530722 0 0)
(-0.52882 0 0)
(-0.526918 0 0)
(-0.525015 0 0)
(-0.523112 0 0)
(-0.521208 0 0)
(-0.519302 0 0)
(-0.517397 0 0)
(-0.51549 0 0)
(-0.513583 0 0)
(-0.511674 0 0)
(-0.509766 0 0)
(-0.507856 0 0)
(-0.505946 0 0)
(-0.504035 0 0)
(-0.502123 0 0)
(-0.500211 0 0)
(-0.498298 0 0)
(-0.496384 0 0)
(-0.494469 0 0)
(-0.492554 0 0)
(-0.490638 0 0)
(-0.488722 0 0)
(-0.486805 0 0)
(-0.484887 0 0)
(-0.482968 0 0)
(-0.481049 0 0)
(-0.479129 0 0)
(-0.477209 0 0)
(-0.475287 0 0)
(-0.473366 0 0)
(-0.471443 0 0)
(-0.46952 0 0)
(-0.467596 0 0)
(-0.465672 0 0)
(-0.463747 0 0)
(-0.461821 0 0)
(-0.459895 0 0)
(-0.457968 0 0)
(-0.456041 0 0)
(-0.454113 0 0)
(-0.452184 0 0)
(-0.450255 0 0)
(-0.448325 0 0)
(-0.446395 0 0)
(-0.444464 0 0)
(-0.442532 0 0)
(-0.4406 0 0)
(-0.438667 0 0)
(-0.436734 0 0)
(-0.4348 0 0)
(-0.432866 0 0)
(-0.430931 0 0)
(-0.428995 0 0)
(-0.427059 0 0)
(-0.425122 0 0)
(-0.423185 0 0)
(-0.421248 0 0)
(-0.419309 0 0)
(-0.417371 0 0)
(-0.415431 0 0)
(-0.413491 0 0)
(-0.411551 0 0)
(-0.40961 0 0)
(-0.407669 0 0)
(-0.405727 0 0)
(-0.403785 0 0)
(-0.401842 0 0)
(-0.399898 0 0)
(-0.397954 0 0)
(-0.39601 0 0)
(-0.394065 0 0)
(-0.39212 0 0)
(-0.390174 0 0)
(-0.388227 0 0)
(-0.386281 0 0)
(-0.384333 0 0)
(-0.382386 0 0)
(-0.380437 0 0)
(-0.378489 0 0)
(-0.37654 0 0)
(-0.37459 0 0)
(-0.37264 0 0)
(-0.370689 0 0)
(-0.368738 0 0)
(-0.366787 0 0)
(-0.364835 0 0)
(-0.362883 0 0)
(-0.36093 0 0)
(-0.358977 0 0)
(-0.357023 0 0)
(-0.355069 0 0)
(-0.353115 0 0)
(-0.35116 0 0)
(-0.349205 0 0)
(-0.347249 0 0)
(-0.345293 0 0)
(-0.343337 0 0)
(-0.34138 0 0)
(-0.339422 0 0)
(-0.337465 0 0)
(-0.335507 0 0)
(-0.333548 0 0)
(-0.331589 0 0)
(-0.32963 0 0)
(-0.32767 0 0)
(-0.32571 0 0)
(-0.32375 0 0)
(-0.321789 0 0)
(-0.319828 0 0)
(-0.317867 0 0)
(-0.315905 0 0)
(-0.313942 0 0)
(-0.31198 0 0)
(-0.310017 0 0)
(-0.308053 0 0)
(-0.30609 0 0)
(-0.304126 0 0)
(-0.302161 0 0)
(-0.300197 0 0)
(-0.298232 0 0)
(-0.296266 0 0)
(-0.2943 0 0)
(-0.292334 0 0)
(-0.290368 0 0)
(-0.288401 0 0)
(-0.286434 0 0)
(-0.284467 0 0)
(-0.282499 0 0)
(-0.280531 0 0)
(-0.278563 0 0)
(-0.276594 0 0)
(-0.274625 0 0)
(-0.272656 0 0)
(-0.270686 0 0)
(-0.268716 0 0)
(-0.266746 0 0)
(-0.264776 0 0)
(-0.262805 0 0)
(-0.260834 0 0)
(-0.258862 0 0)
(-0.256891 0 0)
(-0.254919 0 0)
(-0.252947 0 0)
(-0.250974 0 0)
(-0.249001 0 0)
(-0.247028 0 0)
(-0.245055 0 0)
(-0.243082 0 0)
(-0.241108 0 0)
(-0.239134 0 0)
(-0.237159 0 0)
(-0.235185 0 0)
(-0.23321 0 0)
(-0.231235 0 0)
(-0.229259 0 0)
(-0.227284 0 0)
(-0.225308 0 0)
(-0.223331 0 0)
(-0.221355 0 0)
(-0.219378 0 0)
(-0.217402 0 0)
(-0.215425 0 0)
(-0.213447 0 0)
(-0.21147 0 0)
(-0.209492 0 0)
(-0.207514 0 0)
(-0.205536 0 0)
(-0.203557 0 0)
(-0.201578 0 0)
(-0.1996 0 0)
(-0.19762 0 0)
(-0.195641 0 0)
(-0.193662 0 0)
(-0.191682 0 0)
(-0.189702 0 0)
(-0.187722 0 0)
(-0.185741 0 0)
(-0.183761 0 0)
(-0.18178 0 0)
(-0.179799 0 0)
(-0.177818 0 0)
(-0.175837 0 0)
(-0.173855 0 0)
(-0.171874 0 0)
(-0.169892 0 0)
(-0.16791 0 0)
(-0.165927 0 0)
(-0.163945 0 0)
(-0.161962 0 0)
(-0.15998 0 0)
(-0.157997 0 0)
(-0.156014 0 0)
(-0.15403 0 0)
(-0.152047 0 0)
(-0.150063 0 0)
(-0.14808 0 0)
(-0.146096 0 0)
(-0.144112 0 0)
(-0.142128 0 0)
(-0.140143 0 0)
(-0.138159 0 0)
(-0.136174 0 0)
(-0.134189 0 0)
(-0.132204 0 0)
(-0.130219 0 0)
(-0.128234 0 0)
(-0.126249 0 0)
(-0.124263 0 0)
(-0.122278 0 0)
(-0.120292 0 0)
(-0.118306 0 0)
(-0.11632 0 0)
(-0.114334 0 0)
(-0.112348 0 0)
(-0.110362 0 0)
(-0.108375 0 0)
(-0.106389 0 0)
(-0.104402 0 0)
(-0.102415 0 0)
(-0.100428 0 0)
(-0.0984414 0 0)
(-0.0964543 0 0)
(-0.0944671 0 0)
(-0.0924798 0 0)
(-0.0904924 0 0)
(-0.088505 0 0)
(-0.0865174 0 0)
(-0.0845297 0 0)
(-0.082542 0 0)
(-0.0805542 0 0)
(-0.0785663 0 0)
(-0.0765783 0 0)
(-0.0745902 0 0)
(-0.0726021 0 0)
(-0.0706138 0 0)
(-0.0686255 0 0)
(-0.0666372 0 0)
(-0.0646487 0 0)
(-0.0626602 0 0)
(-0.0606717 0 0)
(-0.058683 0 0)
(-0.0566943 0 0)
(-0.0547056 0 0)
(-0.0527168 0 0)
(-0.0507279 0 0)
(-0.048739 0 0)
(-0.0467501 0 0)
(-0.044761 0 0)
(-0.042772 0 0)
(-0.0407829 0 0)
(-0.0387937 0 0)
(-0.0368046 0 0)
(-0.0348153 0 0)
(-0.0328261 0 0)
(-0.0308368 0 0)
(-0.0288475 0 0)
(-0.0268581 0 0)
(-0.0248687 0 0)
(-0.0228793 0 0)
(-0.0208899 0 0)
(-0.0189005 0 0)
(-0.016911 0 0)
(-0.0149215 0 0)
(-0.012932 0 0)
(-0.0109425 0 0)
(-0.00895295 0 0)
(-0.00696342 0 0)
(-0.00497388 0 0)
(-0.00298433 0 0)
(-0.000994776 0 0)
)
;

boundaryField
{
    left
    {
        type            fixedValue;
        value           uniform (0 0 0);
    }
    right
    {
        type            fixedValue;
        value           uniform (0 0 0);
    }
    frontBackUpDown
    {
        type            empty;
    }
}


// ************************************************************************* //
