/*--------------------------------*- C++ -*----------------------------------*\
| =========                 |                                                 |
| \\      /  F ield         | OpenFOAM: The Open Source CFD Toolbox           |
|  \\    /   O peration     | Version:  2412                                  |
|   \\  /    A nd           | Website:  www.openfoam.com                      |
|    \\/     M anipulation  |                                                 |
\*---------------------------------------------------------------------------*/
FoamFile
{
    version     2.0;
    format      ascii;
    arch        "LSB;label=32;scalar=64";
    class       volVectorField;
    location    "0.94";
    object      U_0_0_0;
}
// * * * * * * * * * * * * * * * * * * * * * * * * * * * * * * * * * * * * * //

dimensions      [0 1 -1 0 0 0 0];

internalField   nonuniform List<vector> 
800
(
(0.000995559 0 0)
(0.00298669 0 0)
(0.00497782 0 0)
(0.00696894 0 0)
(0.00896006 0 0)
(0.0109512 0 0)
(0.0129423 0 0)
(0.0149334 0 0)
(0.0169244 0 0)
(0.0189155 0 0)
(0.0209065 0 0)
(0.0228975 0 0)
(0.0248885 0 0)
(0.0268795 0 0)
(0.0288704 0 0)
(0.0308613 0 0)
(0.0328522 0 0)
(0.034843 0 0)
(0.0368338 0 0)
(0.0388246 0 0)
(0.0408153 0 0)
(0.042806 0 0)
(0.0447966 0 0)
(0.0467872 0 0)
(0.0487777 0 0)
(0.0507682 0 0)
(0.0527587 0 0)
(0.0547491 0 0)
(0.0567394 0 0)
(0.0587297 0 0)
(0.0607199 0 0)
(0.06271 0 0)
(0.0647001 0 0)
(0.0666901 0 0)
(0.0686801 0 0)
(0.0706699 0 0)
(0.0726597 0 0)
(0.0746495 0 0)
(0.0766391 0 0)
(0.0786287 0 0)
(0.0806182 0 0)
(0.0826076 0 0)
(0.0845969 0 0)
(0.0865861 0 0)
(0.0885753 0 0)
(0.0905643 0 0)
(0.0925533 0 0)
(0.0945421 0 0)
(0.0965309 0 0)
(0.0985196 0 0)
(0.100508 0 0)
(0.102497 0 0)
(0.104485 0 0)
(0.106473 0 0)
(0.108461 0 0)
(0.110449 0 0)
(0.112437 0 0)
(0.114425 0 0)
(0.116413 0 0)
(0.1184 0 0)
(0.120388 0 0)
(0.122375 0 0)
(0.124362 0 0)
(0.126349 0 0)
(0.128336 0 0)
(0.130323 0 0)
(0.132309 0 0)
(0.134296 0 0)
(0.136282 0 0)
(0.138268 0 0)
(0.140254 0 0)
(0.14224 0 0)
(0.144226 0 0)
(0.146212 0 0)
(0.148197 0 0)
(0.150182 0 0)
(0.152168 0 0)
(0.154153 0 0)
(0.156137 0 0)
(0.158122 0 0)
(0.160107 0 0)
(0.162091 0 0)
(0.164075 0 0)
(0.166059 0 0)
(0.168043 0 0)
(0.170026 0 0)
(0.17201 0 0)
(0.173993 0 0)
(0.175976 0 0)
(0.177959 0 0)
(0.179942 0 0)
(0.181924 0 0)
(0.183906 0 0)
(0.185889 0 0)
(0.18787 0 0)
(0.189852 0 0)
(0.191834 0 0)
(0.193815 0 0)
(0.195796 0 0)
(0.197777 0 0)
(0.199758 0 0)
(0.201738 0 0)
(0.203718 0 0)
(0.205698 0 0)
(0.207678 0 0)
(0.209658 0 0)
(0.211637 0 0)
(0.213616 0 0)
(0.215595 0 0)
(0.217574 0 0)
(0.219552 0 0)
(0.22153 0 0)
(0.223508 0 0)
(0.225486 0 0)
(0.227463 0 0)
(0.22944 0 0)
(0.231417 0 0)
(0.233394 0 0)
(0.23537 0 0)
(0.237347 0 0)
(0.239323 0 0)
(0.241298 0 0)
(0.243274 0 0)
(0.245249 0 0)
(0.247223 0 0)
(0.249198 0 0)
(0.251172 0 0)
(0.253146 0 0)
(0.25512 0 0)
(0.257094 0 0)
(0.259067 0 0)
(0.26104 0 0)
(0.263012 0 0)
(0.264985 0 0)
(0.266957 0 0)
(0.268928 0 0)
(0.2709 0 0)
(0.272871 0 0)
(0.274842 0 0)
(0.276812 0 0)
(0.278782 0 0)
(0.280752 0 0)
(0.282722 0 0)
(0.284691 0 0)
(0.28666 0 0)
(0.288628 0 0)
(0.290597 0 0)
(0.292564 0 0)
(0.294532 0 0)
(0.296499 0 0)
(0.298466 0 0)
(0.300433 0 0)
(0.302399 0 0)
(0.304365 0 0)
(0.30633 0 0)
(0.308296 0 0)
(0.31026 0 0)
(0.312225 0 0)
(0.314189 0 0)
(0.316153 0 0)
(0.318116 0 0)
(0.320079 0 0)
(0.322042 0 0)
(0.324004 0 0)
(0.325966 0 0)
(0.327928 0 0)
(0.329889 0 0)
(0.331849 0 0)
(0.33381 0 0)
(0.33577 0 0)
(0.337729 0 0)
(0.339689 0 0)
(0.341647 0 0)
(0.343606 0 0)
(0.345564 0 0)
(0.347521 0 0)
(0.349478 0 0)
(0.351435 0 0)
(0.353391 0 0)
(0.355347 0 0)
(0.357303 0 0)
(0.359258 0 0)
(0.361213 0 0)
(0.363167 0 0)
(0.36512 0 0)
(0.367074 0 0)
(0.369027 0 0)
(0.370979 0 0)
(0.372931 0 0)
(0.374883 0 0)
(0.376834 0 0)
(0.378784 0 0)
(0.380734 0 0)
(0.382684 0 0)
(0.384633 0 0)
(0.386582 0 0)
(0.38853 0 0)
(0.390478 0 0)
(0.392425 0 0)
(0.394372 0 0)
(0.396318 0 0)
(0.398264 0 0)
(0.40021 0 0)
(0.402154 0 0)
(0.404099 0 0)
(0.406043 0 0)
(0.407986 0 0)
(0.409929 0 0)
(0.411871 0 0)
(0.413813 0 0)
(0.415754 0 0)
(0.417695 0 0)
(0.419635 0 0)
(0.421575 0 0)
(0.423514 0 0)
(0.425452 0 0)
(0.42739 0 0)
(0.429328 0 0)
(0.431265 0 0)
(0.433201 0 0)
(0.435137 0 0)
(0.437072 0 0)
(0.439007 0 0)
(0.440941 0 0)
(0.442875 0 0)
(0.444808 0 0)
(0.44674 0 0)
(0.448672 0 0)
(0.450603 0 0)
(0.452534 0 0)
(0.454464 0 0)
(0.456393 0 0)
(0.458322 0 0)
(0.46025 0 0)
(0.462178 0 0)
(0.464105 0 0)
(0.466031 0 0)
(0.467957 0 0)
(0.469882 0 0)
(0.471807 0 0)
(0.47373 0 0)
(0.475654 0 0)
(0.477576 0 0)
(0.479498 0 0)
(0.481419 0 0)
(0.48334 0 0)
(0.48526 0 0)
(0.487179 0 0)
(0.489097 0 0)
(0.491015 0 0)
(0.492933 0 0)
(0.494849 0 0)
(0.496765 0 0)
(0.49868 0 0)
(0.500594 0 0)
(0.502508 0 0)
(0.504421 0 0)
(0.506333 0 0)
(0.508245 0 0)
(0.510156 0 0)
(0.512066 0 0)
(0.513975 0 0)
(0.515884 0 0)
(0.517792 0 0)
(0.519699 0 0)
(0.521606 0 0)
(0.523511 0 0)
(0.525416 0 0)
(0.52732 0 0)
(0.529224 0 0)
(0.531126 0 0)
(0.533028 0 0)
(0.534929 0 0)
(0.536829 0 0)
(0.538729 0 0)
(0.540627 0 0)
(0.542525 0 0)
(0.544422 0 0)
(0.546318 0 0)
(0.548214 0 0)
(0.550108 0 0)
(0.552002 0 0)
(0.553895 0 0)
(0.555787 0 0)
(0.557678 0 0)
(0.559568 0 0)
(0.561457 0 0)
(0.563346 0 0)
(0.565234 0 0)
(0.56712 0 0)
(0.569006 0 0)
(0.570891 0 0)
(0.572775 0 0)
(0.574659 0 0)
(0.576541 0 0)
(0.578422 0 0)
(0.580303 0 0)
(0.582182 0 0)
(0.584061 0 0)
(0.585938 0 0)
(0.587815 0 0)
(0.589691 0 0)
(0.591566 0 0)
(0.593439 0 0)
(0.595312 0 0)
(0.597184 0 0)
(0.599055 0 0)
(0.600925 0 0)
(0.602794 0 0)
(0.604661 0 0)
(0.606528 0 0)
(0.608394 0 0)
(0.610259 0 0)
(0.612123 0 0)
(0.613985 0 0)
(0.615847 0 0)
(0.617708 0 0)
(0.619567 0 0)
(0.621426 0 0)
(0.623283 0 0)
(0.625139 0 0)
(0.626994 0 0)
(0.628848 0 0)
(0.630701 0 0)
(0.632553 0 0)
(0.634404 0 0)
(0.636254 0 0)
(0.638102 0 0)
(0.639949 0 0)
(0.641795 0 0)
(0.64364 0 0)
(0.645484 0 0)
(0.647327 0 0)
(0.649168 0 0)
(0.651008 0 0)
(0.652847 0 0)
(0.654685 0 0)
(0.656522 0 0)
(0.658357 0 0)
(0.660191 0 0)
(0.662024 0 0)
(0.663856 0 0)
(0.665686 0 0)
(0.667515 0 0)
(0.669343 0 0)
(0.671169 0 0)
(0.672994 0 0)
(0.674818 0 0)
(0.67664 0 0)
(0.678462 0 0)
(0.680281 0 0)
(0.6821 0 0)
(0.683917 0 0)
(0.685732 0 0)
(0.687547 0 0)
(0.68936 0 0)
(0.691171 0 0)
(0.692981 0 0)
(0.69479 0 0)
(0.696597 0 0)
(0.698403 0 0)
(0.700207 0 0)
(0.70201 0 0)
(0.703811 0 0)
(0.705611 0 0)
(0.707409 0 0)
(0.709206 0 0)
(0.711001 0 0)
(0.712795 0 0)
(0.714587 0 0)
(0.716377 0 0)
(0.718166 0 0)
(0.719954 0 0)
(0.721739 0 0)
(0.723523 0 0)
(0.725306 0 0)
(0.727087 0 0)
(0.728866 0 0)
(0.730643 0 0)
(0.732419 0 0)
(0.734193 0 0)
(0.735966 0 0)
(0.737736 0 0)
(0.739505 0 0)
(0.741273 0 0)
(0.743038 0 0)
(0.744802 0 0)
(0.746563 0 0)
(0.748323 0 0)
(0.750082 0 0)
(0.751838 0 0)
(0.753592 0 0)
(0.755345 0 0)
(0.757096 0 0)
(0.758844 0 0)
(0.760591 0 0)
(0.762311 0 0)
(0.763021 0 0)
(0.727601 0 0)
(0.36944 0 0)
(-0.368237 0 0)
(-0.727377 0 0)
(-0.763011 0 0)
(-0.762309 0 0)
(-0.760588 0 0)
(-0.758842 0 0)
(-0.757093 0 0)
(-0.755343 0 0)
(-0.75359 0 0)
(-0.751836 0 0)
(-0.750079 0 0)
(-0.748321 0 0)
(-0.746561 0 0)
(-0.744799 0 0)
(-0.743036 0 0)
(-0.74127 0 0)
(-0.739503 0 0)
(-0.737734 0 0)
(-0.735963 0 0)
(-0.734191 0 0)
(-0.732417 0 0)
(-0.730641 0 0)
(-0.728864 0 0)
(-0.727084 0 0)
(-0.725304 0 0)
(-0.723521 0 0)
(-0.721737 0 0)
(-0.719951 0 0)
(-0.718164 0 0)
(-0.716375 0 0)
(-0.714584 0 0)
(-0.712792 0 0)
(-0.710999 0 0)
(-0.709203 0 0)
(-0.707407 0 0)
(-0.705608 0 0)
(-0.703809 0 0)
(-0.702007 0 0)
(-0.700205 0 0)
(-0.6984 0 0)
(-0.696595 0 0)
(-0.694788 0 0)
(-0.692979 0 0)
(-0.691169 0 0)
(-0.689357 0 0)
(-0.687545 0 0)
(-0.68573 0 0)
(-0.683915 0 0)
(-0.682098 0 0)
(-0.680279 0 0)
(-0.678459 0 0)
(-0.676638 0 0)
(-0.674816 0 0)
(-0.672992 0 0)
(-0.671167 0 0)
(-0.669341 0 0)
(-0.667513 0 0)
(-0.665684 0 0)
(-0.663854 0 0)
(-0.662022 0 0)
(-0.660189 0 0)
(-0.658355 0 0)
(-0.65652 0 0)
(-0.654683 0 0)
(-0.652845 0 0)
(-0.651006 0 0)
(-0.649166 0 0)
(-0.647325 0 0)
(-0.645482 0 0)
(-0.643638 0 0)
(-0.641793 0 0)
(-0.639947 0 0)
(-0.6381 0 0)
(-0.636252 0 0)
(-0.634402 0 0)
(-0.632551 0 0)
(-0.630699 0 0)
(-0.628847 0 0)
(-0.626992 0 0)
(-0.625137 0 0)
(-0.623281 0 0)
(-0.621424 0 0)
(-0.619565 0 0)
(-0.617706 0 0)
(-0.615845 0 0)
(-0.613983 0 0)
(-0.612121 0 0)
(-0.610257 0 0)
(-0.608392 0 0)
(-0.606526 0 0)
(-0.60466 0 0)
(-0.602792 0 0)
(-0.600923 0 0)
(-0.599053 0 0)
(-0.597182 0 0)
(-0.59531 0 0)
(-0.593438 0 0)
(-0.591564 0 0)
(-0.589689 0 0)
(-0.587813 0 0)
(-0.585937 0 0)
(-0.584059 0 0)
(-0.58218 0 0)
(-0.580301 0 0)
(-0.578421 0 0)
(-0.576539 0 0)
(-0.574657 0 0)
(-0.572774 0 0)
(-0.57089 0 0)
(-0.569005 0 0)
(-0.567119 0 0)
(-0.565232 0 0)
(-0.563344 0 0)
(-0.561456 0 0)
(-0.559566 0 0)
(-0.557676 0 0)
(-0.555785 0 0)
(-0.553893 0 0)
(-0.552 0 0)
(-0.550107 0 0)
(-0.548212 0 0)
(-0.546317 0 0)
(-0.544421 0 0)
(-0.542524 0 0)
(-0.540626 0 0)
(-0.538727 0 0)
(-0.536828 0 0)
(-0.534928 0 0)
(-0.533027 0 0)
(-0.531125 0 0)
(-0.529222 0 0)
(-0.527319 0 0)
(-0.525415 0 0)
(-0.52351 0 0)
(-0.521604 0 0)
(-0.519698 0 0)
(-0.517791 0 0)
(-0.515883 0 0)
(-0.513974 0 0)
(-0.512065 0 0)
(-0.510155 0 0)
(-0.508244 0 0)
(-0.506332 0 0)
(-0.50442 0 0)
(-0.502507 0 0)
(-0.500593 0 0)
(-0.498679 0 0)
(-0.496764 0 0)
(-0.494848 0 0)
(-0.492931 0 0)
(-0.491014 0 0)
(-0.489096 0 0)
(-0.487178 0 0)
(-0.485258 0 0)
(-0.483338 0 0)
(-0.481418 0 0)
(-0.479497 0 0)
(-0.477575 0 0)
(-0.475652 0 0)
(-0.473729 0 0)
(-0.471805 0 0)
(-0.469881 0 0)
(-0.467956 0 0)
(-0.46603 0 0)
(-0.464104 0 0)
(-0.462177 0 0)
(-0.460249 0 0)
(-0.458321 0 0)
(-0.456392 0 0)
(-0.454463 0 0)
(-0.452533 0 0)
(-0.450602 0 0)
(-0.448671 0 0)
(-0.446739 0 0)
(-0.444807 0 0)
(-0.442874 0 0)
(-0.44094 0 0)
(-0.439006 0 0)
(-0.437071 0 0)
(-0.435136 0 0)
(-0.4332 0 0)
(-0.431264 0 0)
(-0.429327 0 0)
(-0.427389 0 0)
(-0.425451 0 0)
(-0.423513 0 0)
(-0.421574 0 0)
(-0.419634 0 0)
(-0.417694 0 0)
(-0.415753 0 0)
(-0.413812 0 0)
(-0.41187 0 0)
(-0.409928 0 0)
(-0.407985 0 0)
(-0.406042 0 0)
(-0.404098 0 0)
(-0.402154 0 0)
(-0.400209 0 0)
(-0.398263 0 0)
(-0.396318 0 0)
(-0.394371 0 0)
(-0.392424 0 0)
(-0.390477 0 0)
(-0.388529 0 0)
(-0.386581 0 0)
(-0.384632 0 0)
(-0.382683 0 0)
(-0.380734 0 0)
(-0.378783 0 0)
(-0.376833 0 0)
(-0.374882 0 0)
(-0.37293 0 0)
(-0.370978 0 0)
(-0.369026 0 0)
(-0.367073 0 0)
(-0.36512 0 0)
(-0.363166 0 0)
(-0.361212 0 0)
(-0.359257 0 0)
(-0.357302 0 0)
(-0.355347 0 0)
(-0.353391 0 0)
(-0.351434 0 0)
(-0.349478 0 0)
(-0.347521 0 0)
(-0.345563 0 0)
(-0.343605 0 0)
(-0.341647 0 0)
(-0.339688 0 0)
(-0.337729 0 0)
(-0.335769 0 0)
(-0.333809 0 0)
(-0.331849 0 0)
(-0.329888 0 0)
(-0.327927 0 0)
(-0.325965 0 0)
(-0.324004 0 0)
(-0.322041 0 0)
(-0.320079 0 0)
(-0.318116 0 0)
(-0.316152 0 0)
(-0.314188 0 0)
(-0.312224 0 0)
(-0.31026 0 0)
(-0.308295 0 0)
(-0.30633 0 0)
(-0.304364 0 0)
(-0.302398 0 0)
(-0.300432 0 0)
(-0.298466 0 0)
(-0.296499 0 0)
(-0.294532 0 0)
(-0.292564 0 0)
(-0.290596 0 0)
(-0.288628 0 0)
(-0.286659 0 0)
(-0.28469 0 0)
(-0.282721 0 0)
(-0.280752 0 0)
(-0.278782 0 0)
(-0.276812 0 0)
(-0.274841 0 0)
(-0.27287 0 0)
(-0.270899 0 0)
(-0.268928 0 0)
(-0.266956 0 0)
(-0.264984 0 0)
(-0.263012 0 0)
(-0.261039 0 0)
(-0.259066 0 0)
(-0.257093 0 0)
(-0.25512 0 0)
(-0.253146 0 0)
(-0.251172 0 0)
(-0.249198 0 0)
(-0.247223 0 0)
(-0.245248 0 0)
(-0.243273 0 0)
(-0.241298 0 0)
(-0.239322 0 0)
(-0.237346 0 0)
(-0.23537 0 0)
(-0.233394 0 0)
(-0.231417 0 0)
(-0.22944 0 0)
(-0.227463 0 0)
(-0.225485 0 0)
(-0.223508 0 0)
(-0.22153 0 0)
(-0.219552 0 0)
(-0.217573 0 0)
(-0.215595 0 0)
(-0.213616 0 0)
(-0.211637 0 0)
(-0.209657 0 0)
(-0.207678 0 0)
(-0.205698 0 0)
(-0.203718 0 0)
(-0.201738 0 0)
(-0.199757 0 0)
(-0.197777 0 0)
(-0.195796 0 0)
(-0.193815 0 0)
(-0.191833 0 0)
(-0.189852 0 0)
(-0.18787 0 0)
(-0.185888 0 0)
(-0.183906 0 0)
(-0.181924 0 0)
(-0.179941 0 0)
(-0.177959 0 0)
(-0.175976 0 0)
(-0.173993 0 0)
(-0.17201 0 0)
(-0.170026 0 0)
(-0.168043 0 0)
(-0.166059 0 0)
(-0.164075 0 0)
(-0.162091 0 0)
(-0.160106 0 0)
(-0.158122 0 0)
(-0.156137 0 0)
(-0.154152 0 0)
(-0.152167 0 0)
(-0.150182 0 0)
(-0.148197 0 0)
(-0.146212 0 0)
(-0.144226 0 0)
(-0.14224 0 0)
(-0.140254 0 0)
(-0.138268 0 0)
(-0.136282 0 0)
(-0.134296 0 0)
(-0.132309 0 0)
(-0.130323 0 0)
(-0.128336 0 0)
(-0.126349 0 0)
(-0.124362 0 0)
(-0.122375 0 0)
(-0.120387 0 0)
(-0.1184 0 0)
(-0.116413 0 0)
(-0.114425 0 0)
(-0.112437 0 0)
(-0.110449 0 0)
(-0.108461 0 0)
(-0.106473 0 0)
(-0.104485 0 0)
(-0.102497 0 0)
(-0.100508 0 0)
(-0.0985195 0 0)
(-0.0965308 0 0)
(-0.0945421 0 0)
(-0.0925532 0 0)
(-0.0905643 0 0)
(-0.0885752 0 0)
(-0.0865861 0 0)
(-0.0845969 0 0)
(-0.0826075 0 0)
(-0.0806181 0 0)
(-0.0786287 0 0)
(-0.0766391 0 0)
(-0.0746494 0 0)
(-0.0726597 0 0)
(-0.0706699 0 0)
(-0.06868 0 0)
(-0.0666901 0 0)
(-0.0647001 0 0)
(-0.06271 0 0)
(-0.0607199 0 0)
(-0.0587296 0 0)
(-0.0567394 0 0)
(-0.054749 0 0)
(-0.0527587 0 0)
(-0.0507682 0 0)
(-0.0487777 0 0)
(-0.0467872 0 0)
(-0.0447966 0 0)
(-0.042806 0 0)
(-0.0408153 0 0)
(-0.0388246 0 0)
(-0.0368338 0 0)
(-0.034843 0 0)
(-0.0328522 0 0)
(-0.0308613 0 0)
(-0.0288704 0 0)
(-0.0268795 0 0)
(-0.0248885 0 0)
(-0.0228975 0 0)
(-0.0209065 0 0)
(-0.0189155 0 0)
(-0.0169244 0 0)
(-0.0149334 0 0)
(-0.0129423 0 0)
(-0.0109512 0 0)
(-0.00896007 0 0)
(-0.00696895 0 0)
(-0.00497783 0 0)
(-0.0029867 0 0)
(-0.000995567 0 0)
)
;

boundaryField
{
    left
    {
        type            fixedValue;
        value           uniform (0 0 0);
    }
    right
    {
        type            fixedValue;
        value           uniform (0 0 0);
    }
    frontBackUpDown
    {
        type            empty;
    }
}


// ************************************************************************* //
