/*--------------------------------*- C++ -*----------------------------------*\
| =========                 |                                                 |
| \\      /  F ield         | OpenFOAM: The Open Source CFD Toolbox           |
|  \\    /   O peration     | Version:  2412                                  |
|   \\  /    A nd           | Website:  www.openfoam.com                      |
|    \\/     M anipulation  |                                                 |
\*---------------------------------------------------------------------------*/
FoamFile
{
    version     2.0;
    format      ascii;
    arch        "LSB;label=32;scalar=64";
    class       volScalarField;
    location    "0.75";
    object      p;
}
// * * * * * * * * * * * * * * * * * * * * * * * * * * * * * * * * * * * * * //

dimensions      [0 2 -2 0 0 0 0];

internalField   nonuniform List<scalar> 
2200
(
1.92133
1.77584
1.65243
1.56918
1.501
1.54628
1.81657
2.3946
3.13162
3.76319
3.77982
3.17496
2.45362
1.88396
1.61767
1.57413
1.64301
1.7265
1.84992
1.99545
2.89438
2.68604
2.30439
1.90095
1.71204
1.89415
2.33619
2.94488
3.75596
4.54519
4.56035
3.79623
3.00261
2.40353
1.96655
1.78654
1.97599
2.37948
2.76098
2.9692
5.12915
4.96203
4.58476
3.99134
3.35909
2.93953
3.04275
3.82283
4.93655
5.8985
5.91372
4.9794
3.88406
3.11507
3.01675
3.4365
4.06819
4.66057
5.03711
5.2039
7.35635
7.25197
7.01101
6.58033
6.01455
5.40782
5.10559
5.25072
5.86969
6.56353
6.58224
5.91771
5.31843
5.18289
5.48714
6.09321
6.6578
7.0874
7.32763
7.4317
8.93523
8.87894
8.73742
8.49267
8.12267
7.67811
7.26972
7.02162
6.98846
7.03941
7.06019
7.04305
7.09335
7.34924
7.75988
8.20566
8.57496
8.81881
8.95979
9.01597
9.88321
9.85388
9.78846
9.66398
9.4837
9.25453
8.91839
8.69043
8.65984
8.64686
8.66951
8.71783
8.76943
9.00728
9.34813
9.57818
9.75805
9.88203
9.94719
9.97629
10.3282
10.3085
10.2737
10.2072
10.109
9.98521
9.90448
9.88897
9.98383
10.1425
10.169
10.0512
9.98117
10.0096
10.0961
10.2217
10.3206
10.3872
10.4223
10.4423
10.4709
10.4567
10.4363
10.4002
10.3505
10.2912
10.2504
10.257
10.3358
10.4777
10.5076
10.4167
10.3671
10.3777
10.4267
10.4901
10.542
10.5798
10.6009
10.6153
10.4692
10.4588
10.4458
10.4246
10.3962
10.3614
10.329
10.3119
10.3358
10.3979
10.4342
10.4281
10.4451
10.4841
10.5305
10.5725
10.605
10.6279
10.6423
10.6532
10.4102
10.403
10.3949
10.383
10.3684
10.3504
10.3354
10.3342
10.3442
10.397
10.4407
10.4658
10.4961
10.5304
10.5635
10.5912
10.613
10.6294
10.64
10.6478
10.3269
10.3224
10.3181
10.3125
10.3076
10.3038
10.3015
10.3216
10.3508
10.4126
10.462
10.4957
10.5226
10.5493
10.5732
10.5924
10.6073
10.6195
10.6262
10.633
10.2285
10.2259
10.2244
10.2232
10.2241
10.2304
10.2398
10.256
10.3146
10.3648
10.4385
10.4839
10.5183
10.5474
10.5697
10.586
10.5966
10.6023
10.6065
10.6105
10.115
10.1137
10.1141
10.1161
10.1205
10.1312
10.1532
10.1687
10.2237
10.2928
10.395
10.4542
10.5037
10.54
10.5643
10.5809
10.5913
10.5965
10.5986
10.5982
9.98322
9.98298
9.98478
9.9895
9.99817
10.012
10.0434
10.0849
10.148
10.2479
10.347
10.4275
10.4934
10.5384
10.5687
10.59
10.6009
10.6078
10.6122
10.6137
9.83284
9.83375
9.83744
9.84536
9.86036
9.88267
9.92063
9.98711
10.06
10.1947
10.3012
10.4119
10.4937
10.5493
10.5894
10.6134
10.6266
10.6348
10.6425
10.6491
9.6596
9.66167
9.66767
9.67934
9.70066
9.73598
9.78743
9.87188
9.94649
10.117
10.2626
10.4085
10.5103
10.5804
10.6279
10.6598
10.6869
10.706
10.7155
10.7188
9.45114
9.45397
9.46168
9.47665
9.50238
9.54516
9.60585
9.71211
9.8505
10.0335
10.231
10.4164
10.545
10.6356
10.697
10.7374
10.7631
10.7791
10.7847
10.7854
9.1954
9.19923
9.20921
9.22841
9.26131
9.31464
9.39627
9.5194
9.70869
9.9435
10.2061
10.4374
10.5997
10.713
10.788
10.8356
10.8631
10.878
10.8864
10.8913
8.88142
8.88624
8.89914
8.92471
8.96857
9.03982
9.14833
9.30845
9.5452
9.85117
10.1952
10.4783
10.6829
10.8244
10.9182
10.9786
11.0156
11.0373
11.0498
11.0555
8.48844
8.49576
8.51418
8.5488
8.60861
8.70488
8.85236
9.06689
9.37243
9.75945
10.1924
10.5483
10.8063
10.9845
11.1032
11.1798
11.2269
11.2537
11.2676
11.2724
7.99074
7.99957
8.02332
8.0714
8.15305
8.28481
8.48521
8.77256
9.16978
9.66593
10.2074
10.6533
10.9758
11.1991
11.3484
11.4446
11.5034
11.5371
11.5535
11.5594
7.33231
7.34786
7.38621
7.45412
7.57119
7.75629
8.03228
8.41885
8.93486
9.57004
10.2442
10.7968
11.196
11.4745
11.6623
11.7844
11.8601
11.9035
11.9272
11.9355
6.46387
6.48506
6.53723
6.6444
6.82097
7.09279
7.48296
8.00741
8.67795
9.48201
10.3123
10.9887
11.4787
11.8252
12.0636
12.2216
12.3216
12.3803
12.4083
12.4189
5.23811
5.28689
5.39874
5.57809
5.86085
6.2738
6.82916
7.53711
8.40083
9.40236
10.4089
11.2234
11.8166
12.2433
12.545
12.7529
12.8894
12.9749
13.0256
13.0462
3.56086
3.66271
3.85513
4.18365
4.6695
5.30095
6.08385
7.02643
8.12144
9.34638
10.5464
11.5104
12.2174
12.7362
13.1152
13.3895
13.5841
13.7111
13.7835
13.8148
1.19513
1.36516
1.8097
2.46729
3.26344
4.19063
5.27137
6.50051
7.86115
9.32974
10.7322
11.8499
12.6756
13.294
13.7599
14.1105
14.376
14.58
14.7221
14.7771
-2.35093
-1.55503
-0.495906
0.592161
1.74108
3.01627
4.43223
5.97012
7.61459
9.34828
10.9769
12.2749
13.2496
14.0008
14.5924
15.0664
15.451
15.7743
16.0664
16.2787
-6.13898
-4.3029
-2.7218
-1.28817
0.23433
1.88403
3.63631
5.47448
7.39933
9.40299
11.2755
12.7747
13.9139
14.8083
15.5296
16.1243
16.6198
17.022
17.3543
17.7382
-8.54473
-6.41557
-4.76032
-3.02196
-1.13419
0.869798
2.9253
5.03866
7.22266
9.47008
11.5544
13.2163
14.4751
15.4588
16.2444
16.8822
17.4096
17.8516
18.1233
18.5154
-10.1623
-7.88416
-6.34196
-4.41135
-2.24925
-0.00148603
2.28149
4.62985
7.04145
9.49998
11.7597
13.5441
14.8807
15.9104
16.7183
17.3602
17.8823
18.3467
18.5811
18.9758
-11.3647
-8.92834
-7.51831
-5.38188
-3.07464
-0.721684
1.71349
4.24949
6.8491
9.4864
11.8931
13.7746
15.1672
16.2263
17.047
17.6911
18.2056
18.6816
18.8978
19.3061
-12.3482
-9.74827
-8.40794
-6.05173
-3.71215
-1.31554
1.23916
3.92108
6.67017
9.45695
11.989
13.9527
15.3923
16.4765
17.3096
17.9582
18.4654
18.9479
19.1577
19.5599
-13.152
-10.4777
-9.15892
-6.57894
-4.28021
-1.82489
0.844139
3.64129
6.51051
9.42238
12.0625
14.0988
15.5809
16.6884
17.533
18.1864
18.6893
19.1674
19.3823
19.7669
-13.875
-11.1027
-9.83195
-7.07272
-4.81859
-2.28151
0.494503
3.38627
6.35733
9.37712
12.1139
14.2185
15.7421
16.8729
17.729
18.3874
18.8913
19.3578
19.5833
19.9501
-14.5282
-11.68
-10.4306
-7.54766
-5.31582
-2.68893
0.170993
3.14108
6.20112
9.31652
12.1433
14.3155
15.8829
17.0398
17.9095
18.5739
19.0808
19.5396
19.7682
20.1277
-15.0423
-12.2155
-10.9331
-8.01375
-5.76831
-3.0557
-0.135123
2.90097
6.0384
9.23912
12.1514
14.3931
16.009
17.1971
18.0848
18.7577
19.2687
19.7254
19.9505
20.3124
-15.5238
-12.6774
-11.3805
-8.42271
-6.16749
-3.39184
-0.426184
2.66657
5.8699
9.14539
12.1381
14.4515
16.1227
17.3498
18.262
18.9483
19.4663
19.923
20.1463
20.5073
-15.9895
-13.1163
-11.7801
-8.80754
-6.5255
-3.70258
-0.702775
2.43662
5.69384
9.03324
12.1006
14.4879
16.2224
17.4988
18.4449
19.1515
19.6811
20.1396
20.3644
20.7227
-16.3836
-13.5168
-12.164
-9.17374
-6.86172
-4.00164
-0.970899
2.20816
5.51011
8.90373
12.0386
14.4999
16.3048
17.6424
18.6352
19.3723
19.9205
20.3814
20.6155
20.9645
-16.7944
-13.904
-12.5159
-9.50513
-7.17528
-4.28594
-1.22809
1.98386
5.3212
8.75742
11.9496
14.4821
16.3622
17.7732
18.8291
19.6116
20.1882
20.6567
20.91
21.2408
-17.1776
-14.2886
-12.8422
-9.83608
-7.47163
-4.55692
-1.47834
1.75904
5.12363
8.59336
11.8333
14.4319
16.3887
17.8825
19.0197
19.8699
20.4916
20.9746
21.2482
21.567
-17.4881
-14.6079
-13.1756
-10.1478
-7.75349
-4.82037
-1.72138
1.53834
4.92531
8.41975
11.6941
14.3473
16.3764
17.9566
19.189
20.1334
20.8296
21.3584
21.676
21.9959
-17.8084
-14.9276
-13.4311
-10.4198
-8.01287
-5.06471
-1.94981
1.3252
4.72556
8.23305
11.528
14.2231
16.3171
17.9825
19.3182
20.3804
21.1906
21.7911
22.1542
22.4661
-18.1249
-15.2206
-13.7053
-10.6853
-8.25746
-5.29777
-2.17448
1.11021
4.52013
8.03701
11.3444
14.067
16.2125
17.9536
19.387
20.573
21.5337
22.2899
22.781
23.1192
-18.4061
-15.5312
-13.9986
-10.9612
-8.49922
-5.52747
-2.39221
0.90498
4.32486
7.84522
11.15
13.879
16.0553
17.8563
19.3764
20.6844
21.8163
22.7627
23.4506
23.935
-18.64
-15.7853
-14.2264
-11.1866
-8.70903
-5.72967
-2.58545
0.718033
4.13721
7.64813
10.9372
13.6578
15.8477
17.6918
19.2794
20.6665
21.928
23.1094
24.1268
24.9556
-18.8219
-15.895
-14.3486
-11.341
-8.88222
-5.91318
-2.77209
0.527382
3.94028
7.44193
10.7131
13.4124
15.5924
17.4493
19.0809
20.5365
21.876
23.1841
24.4413
25.4293
-19.1058
-16.157
-14.5675
-11.5491
-9.09855
-6.12208
-2.97562
0.327693
3.74286
7.23695
10.4782
13.1321
15.2708
17.1039
18.735
20.1911
21.4694
22.5941
23.5172
24.0522
-19.4699
-16.5978
-14.9717
-11.8505
-9.33103
-6.32338
-3.16376
0.146308
3.5551
7.02211
10.2126
12.8014
14.8706
16.6339
18.1941
19.5779
20.7568
21.6809
22.3659
22.8809
-19.6741
-16.6835
-15.0781
-11.9738
-9.46387
-6.48598
-3.33459
-0.0378225
3.34454
6.77397
9.91379
12.4333
14.4129
16.0733
17.5231
18.7761
19.8309
20.7148
21.3375
21.7605
-19.6916
-16.5314
-14.9954
-11.9827
-9.61223
-6.67017
-3.52757
-0.248292
3.11302
6.51731
9.61184
12.0519
13.9152
15.431
16.7251
17.8638
18.8125
19.5887
20.1433
20.6156
-19.9548
-16.804
-15.343
-12.2669
-9.88341
-6.88214
-3.73564
-0.46272
2.88916
6.2699
9.30791
11.6517
13.3764
14.7259
15.8501
16.839
17.6893
18.3222
18.6925
19.2134
-20.2655
-17.345
-15.8599
-12.6169
-10.099
-7.06839
-3.93352
-0.662967
2.67771
6.02331
8.99147
11.2304
12.8094
13.9743
14.8927
15.6141
16.2208
16.6958
16.9482
17.4971
-20.3639
-17.3773
-15.848
-12.6546
-10.2102
-7.24864
-4.11599
-0.847005
2.47145
5.76881
8.65973
10.7902
12.2192
13.1641
13.8432
14.3193
14.5718
14.6306
14.563
14.9845
-20.3815
-17.3247
-15.8328
-12.7449
-10.4136
-7.44116
-4.28404
-1.03204
2.25053
5.49866
8.31873
10.3427
11.6329
12.3583
12.7795
12.9796
12.8219
12.0542
10.9147
11.2485
-20.6749
-17.7383
-16.2515
-13.0848
-10.6529
-7.60535
-4.46041
-1.24007
2.01532
5.23072
7.98936
9.90435
11.0689
11.5884
11.6803
11.5224
10.9677
9.33008
6.41287
3.85341
-20.95
-18.0771
-16.4976
-13.2719
-10.7993
-7.77633
-4.66895
-1.45717
1.79054
4.97682
7.67173
9.47727
10.5203
10.8884
10.6302
10.0611
9.13849
7.15413
1.53424
-12.362
-21.0512
-18.0798
-16.4911
-13.3588
-10.9951
-8.00526
-4.88457
-1.66007
1.57635
4.72439
7.35848
9.07184
9.99711
10.2854
9.80936
8.79028
7.45015
5.79579
3.77515
-2.42157
-21.2494
-18.2823
-16.7278
-13.629
-11.2741
-8.22363
-5.06742
-1.84846
1.36349
4.4734
7.05741
8.71169
9.5263
9.76522
9.32417
8.23375
6.82268
5.58414
6.28333
5.08955
-21.5616
-18.6166
-17.0278
-13.8717
-11.4614
-8.36652
-5.22582
-2.03818
1.14513
4.22049
6.76129
8.39796
9.18157
9.41723
9.21336
8.68789
7.96312
6.86325
7.96872
7.42871
-21.7445
-18.7653
-17.1421
-13.9734
-11.5964
-8.5186
-5.4204
-2.26083
0.900544
3.95182
6.46927
8.12937
9.01395
9.37595
9.47833
9.48994
9.85038
9.11823
9.42752
9.22017
-21.8943
-18.9207
-17.3206
-14.17
-11.8371
-8.74782
-5.65973
-2.50474
0.649875
3.69682
6.22244
7.93093
8.98114
9.5806
9.99184
10.2619
11.0059
10.9595
11.1554
11.2664
-22.1531
-19.2022
-17.6172
-14.4558
-12.1122
-8.97202
-5.87543
-2.71836
0.433514
3.48272
6.03949
7.81133
9.01755
9.84025
10.4508
10.8725
11.5091
11.8133
12.3284
12.7554
-22.3807
-19.4216
-17.8215
-14.6442
-12.2929
-9.11626
-6.04045
-2.89787
0.243679
3.29298
5.89268
7.74764
9.04668
10.0315
10.7622
11.3078
11.9179
12.3716
12.9114
13.3983
-22.5038
-19.533
-17.9301
-14.7607
-12.4155
-9.22267
-6.19822
-3.07487
0.0589552
3.11487
5.75852
7.70615
9.07218
10.1419
10.9815
11.6336
12.2953
12.7872
13.2336
13.7076
-22.6056
-19.6378
-18.0444
-14.8886
-12.552
-9.33777
-6.36772
-3.24681
-0.112761
2.95671
5.63628
7.66192
9.10941
10.2321
11.1594
11.8671
12.5252
13.0394
13.4035
13.8773
-22.6971
-19.7288
-18.1414
-14.9937
-12.642
-9.46225
-6.51576
-3.38985
-0.260869
2.82021
5.52664
7.60829
9.13327
10.306
11.2815
12.013
12.6254
13.1848
13.5156
13.9833
-22.7035
-19.7338
-18.1556
-15.0303
-12.653
-9.55863
-6.6043
-3.49799
-0.387788
2.69419
5.42152
7.54245
9.11802
10.3249
11.3172
12.0826
12.6696
13.2523
13.5848
13.9974
-22.5942
-19.6229
-18.0647
-14.9939
-12.5714
-9.59276
-6.64112
-3.57482
-0.497336
2.5646
5.30997
7.45359
9.05502
10.2862
11.2796
12.0607
12.649
13.2482
13.5349
14.0121
-22.3502
-19.3917
-17.8494
-14.8727
-12.4184
-9.52551
-6.61777
-3.61362
-0.588101
2.43897
5.17552
7.3241
8.93749
10.1836
11.1776
11.9723
12.5508
13.1922
13.4157
13.977
-21.9311
-18.991
-17.4551
-14.6055
-12.1581
-9.35081
-6.51913
-3.6021
-0.654481
2.30997
5.00738
7.1419
8.75432
10.0061
11.0004
11.8013
12.3983
13.0162
13.2863
13.801
-21.2618
-18.3744
-16.8521
-14.1266
-11.7386
-9.05244
-6.32987
-3.53002
-0.692843
2.17293
4.7997
6.89546
8.48894
9.7337
10.7241
11.5242
12.1467
12.7309
13.0475
13.5287
-20.2726
-17.4714
-15.9545
-13.4047
-11.1221
-8.60318
-6.03494
-3.39367
-0.706981
2.02061
4.53977
6.56495
8.11541
9.33585
10.3137
11.1085
11.7441
12.3119
12.6582
13.1393
-18.8082
-16.1408
-14.715
-12.3997
-10.2801
-7.97988
-5.61905
-3.18524
-0.694431
1.85162
4.21997
6.13551
7.61065
8.78033
9.72602
10.5018
11.1354
11.6913
12.0499
12.5359
-16.6964
-14.2941
-13.048
-11.0562
-9.18278
-7.16443
-5.06864
-2.89323
-0.646046
1.67016
3.83827
5.59693
6.95267
8.03
8.90577
9.63086
10.2348
10.7625
11.131
11.614
-13.7668
-11.8058
-10.9299
-9.36486
-7.80922
-6.13794
-4.37736
-2.51946
-0.569687
1.46238
3.37592
4.92481
6.10883
7.03929
7.78654
8.39774
8.90209
9.33503
9.64538
10.0604
-9.69854
-8.56537
-8.37494
-7.26221
-6.15796
-4.93892
-3.58164
-2.083
-0.456786
1.27758
2.93438
4.27555
5.28684
6.06239
6.66334
7.1317
7.49509
7.78264
7.95837
8.19927
-5.82371
-5.44329
-5.67238
-4.97344
-4.38975
-3.65441
-2.71252
-1.57846
-0.273506
1.17609
2.59432
3.74936
4.61251
5.25833
5.73815
6.08892
6.33589
6.51268
6.56705
6.66242
-3.47029
-3.33204
-3.49365
-3.13684
-2.87425
-2.45918
-1.84697
-1.03853
-0.0399372
1.12686
2.30288
3.26731
3.97785
4.49127
4.85137
5.0934
5.24486
5.3421
5.35893
5.39088
-2.22792
-2.14499
-2.18437
-1.97205
-1.81283
-1.54238
-1.13037
-0.55891
0.186767
1.09968
2.04914
2.83469
3.40641
3.8082
4.07955
4.2548
4.36118
4.43021
4.45183
4.47306
-1.47967
-1.43368
-1.42586
-1.28575
-1.15406
-0.939536
-0.627805
-0.198138
0.371596
1.08614
1.84522
2.4783
2.93736
3.25769
3.4737
3.61484
3.70273
3.75994
3.78409
3.79984
-0.912463
-0.892946
-0.87713
-0.791323
-0.689647
-0.521277
-0.277627
0.0588142
0.506245
1.07184
1.67887
2.18815
2.55826
2.81731
2.99297
3.10836
3.18016
3.2248
3.24521
3.25601
-0.467276
-0.456373
-0.440933
-0.388585
-0.315949
-0.19298
-0.00977426
0.249804
0.600293
1.04799
1.53266
1.94137
2.23899
2.44721
2.58781
2.67933
2.73565
2.76944
2.78575
2.79374
-0.140202
-0.132401
-0.118302
-0.0829177
-0.029255
0.0605696
0.196804
0.394184
0.665809
1.01797
1.40329
1.72987
1.96775
2.13363
2.24498
2.31699
2.36124
2.38741
2.4006
2.40693
0.0893976
0.0952022
0.107158
0.133011
0.174503
0.242592
0.346197
0.497532
0.708161
0.984499
1.28978
1.54973
1.73913
1.87099
1.95936
2.01644
2.05162
2.07229
2.08293
2.08796
0.249871
0.25423
0.263838
0.283262
0.315561
0.36803
0.448107
0.565461
0.729689
0.946698
1.18813
1.39453
1.54508
1.64991
1.72017
1.76555
1.79356
1.80994
1.81844
1.82242
0.360568
0.363907
0.371494
0.386314
0.411343
0.451839
0.513933
0.605264
0.733619
0.904114
1.09483
1.25844
1.37794
1.46119
1.51697
1.55297
1.5752
1.58817
1.59493
1.59809
0.433117
0.435708
0.441662
0.453073
0.472469
0.503821
0.552041
0.623173
0.723533
0.857464
1.00797
1.13747
1.23216
1.29813
1.34233
1.37086
1.38849
1.39877
1.40414
1.40664
0.475839
0.477851
0.482492
0.491315
0.506397
0.530773
0.568306
0.623789
0.702325
0.807538
0.926209
1.02855
1.10344
1.15564
1.19065
1.21326
1.22724
1.23538
1.23964
1.24162
0.495264
0.496823
0.50044
0.507314
0.519088
0.538092
0.567377
0.610736
0.672257
0.754899
0.848367
0.929126
0.988294
1.02957
1.05727
1.07517
1.08622
1.09265
1.09602
1.09758
0.496603
0.497823
0.50066
0.506039
0.515222
0.53005
0.552938
0.58687
0.635085
0.699965
0.773508
0.837176
0.883882
0.916489
0.938363
0.952476
0.961186
0.966247
0.968895
0.970126
0.484067
0.485028
0.487251
0.491444
0.498597
0.510177
0.528066
0.55461
0.592361
0.643231
0.701013
0.751129
0.787926
0.813612
0.830828
0.841926
0.848778
0.852767
0.85486
0.855836
0.460522
0.461267
0.462987
0.466239
0.471822
0.480873
0.494849
0.515591
0.545105
0.584936
0.630271
0.669645
0.698558
0.718729
0.732251
0.74098
0.746382
0.749534
0.751194
0.751969
0.42858
0.429161
0.430496
0.433028
0.437392
0.44445
0.455339
0.471497
0.494507
0.525601
0.561038
0.591833
0.614449
0.630245
0.640856
0.647728
0.651987
0.65447
0.655774
0.656377
0.389851
0.390299
0.391337
0.393311
0.396708
0.402181
0.410622
0.423149
0.441001
0.465152
0.492717
0.516724
0.534399
0.546772
0.555105
0.560504
0.563845
0.565785
0.566801
0.567272
0.34623
0.346581
0.34739
0.348915
0.351526
0.355729
0.36222
0.371865
0.385628
0.404267
0.425561
0.444135
0.457801
0.467373
0.473802
0.477947
0.480507
0.48199
0.482761
0.483117
0.298963
0.29923
0.299849
0.301014
0.303
0.306192
0.311121
0.318455
0.328934
0.34306
0.359153
0.373269
0.383709
0.391038
0.395969
0.399145
0.401092
0.402223
0.402816
0.403093
0.24806
0.248297
0.248791
0.249663
0.251116
0.253447
0.257054
0.262473
0.270302
0.280875
0.293104
0.303822
0.311654
0.317086
0.320714
0.323048
0.324475
0.325299
0.32572
0.325909
0.195234
0.195458
0.195825
0.196423
0.197371
0.19894
0.201355
0.205231
0.211061
0.21889
0.22768
0.235109
0.240531
0.244271
0.24675
0.248352
0.249352
0.249926
0.250234
0.250395
0.136969
0.137015
0.137193
0.137647
0.138649
0.140118
0.142327
0.14531
0.149034
0.154063
0.159647
0.16442
0.167924
0.170418
0.17214
0.17329
0.174046
0.174524
0.174799
0.17495
0.0795237
0.0795569
0.0796499
0.0798705
0.0801848
0.0807616
0.0817449
0.0831862
0.0852976
0.088334
0.0918198
0.0948478
0.0970691
0.0986843
0.0998465
0.100661
0.101239
0.101658
0.101897
0.102016
0.0255487
0.025523
0.0255226
0.0255743
0.0256715
0.0258884
0.0262483
0.0267954
0.0276137
0.0288495
0.0303586
0.0317206
0.0327382
0.0334702
0.0339931
0.0343502
0.0345532
0.0346402
0.034656
0.034653
11.3367
16.9669
18.1361
19.7344
20.9325
21.9789
22.9474
23.9617
24.7597
25.5529
17.3467
19.8473
20.5453
21.5763
22.4231
23.1901
23.8792
24.5603
24.9147
25.1744
20.3538
21.6532
22.1429
22.7665
23.3206
23.8323
24.2503
24.6579
24.7985
24.8848
22.0823
22.8056
23.1026
23.5687
23.8968
24.2259
24.4319
24.6706
24.6923
24.725
23.1302
23.5757
23.7093
24.0235
24.1762
24.3969
24.4916
24.652
24.6285
24.6798
23.7618
24.0478
24.071
24.3322
24.3624
24.5471
24.5357
24.6875
24.611
24.6818
24.1436
24.3532
24.2865
24.5287
24.4514
24.6477
24.5665
24.7243
24.6281
24.7085
24.376
24.5524
24.4252
24.667
24.5347
24.7158
24.6172
24.7572
24.6691
24.7487
24.5419
24.6762
24.5506
24.7517
24.6222
24.7728
24.6814
24.8019
24.7287
24.7985
24.6865
24.7804
24.6727
24.8315
24.7196
24.8408
24.7628
24.8607
24.8009
24.8557
24.7866
24.8591
24.7763
24.8923
24.8002
24.8962
24.8302
24.8979
24.8477
24.8795
24.8022
24.8516
24.7893
24.8682
24.8101
24.871
24.8263
24.8786
24.8417
24.8647
24.8037
24.8188
24.7944
24.8344
24.8167
24.8462
24.8355
24.8734
24.8528
24.8909
24.9446
24.9803
24.9832
25.0081
25.0209
25.0322
25.0447
25.0591
25.057
25.0811
25.2562
25.258
25.2538
25.2615
25.2671
25.2721
25.2792
25.2897
25.2886
25.3324
25.4669
25.4144
25.3864
25.3587
25.3434
25.3403
25.3503
25.3809
25.4083
25.4759
)
;

boundaryField
{
    wall-4
    {
        type            zeroGradient;
    }
    pressure-outlet-7
    {
        type            fixedValue;
        value           uniform 0;
    }
    velocity-inlet-6
    {
        type            zeroGradient;
    }
    velocity-inlet-5
    {
        type            zeroGradient;
    }
    frontAndBackPlanes
    {
        type            empty;
    }
}


// ************************************************************************* //
