/*--------------------------------*- C++ -*----------------------------------*\
| =========                 |                                                 |
| \\      /  F ield         | OpenFOAM: The Open Source CFD Toolbox           |
|  \\    /   O peration     | Version:  2412                                  |
|   \\  /    A nd           | Website:  www.openfoam.com                      |
|    \\/     M anipulation  |                                                 |
\*---------------------------------------------------------------------------*/
FoamFile
{
    version     2.0;
    format      ascii;
    arch        "LSB;label=32;scalar=64";
    class       surfaceScalarField;
    location    "0.75";
    object      phi;
}
// * * * * * * * * * * * * * * * * * * * * * * * * * * * * * * * * * * * * * //

dimensions      [0 3 -1 0 0 0 0];

oriented        oriented;

internalField   nonuniform List<scalar> 
4262
(
-0.137274
0.357786
-0.152058
0.843438
-0.113495
1.72858
-0.0524384
3.10411
-0.0406552
5.17282
-0.0666934
8.0404
-0.10393
11.8844
-0.114055
16.8299
-0.0956844
22.8635
-0.0020929
29.4348
0.0926088
29.4337
0.112326
22.8621
0.10263
16.8294
0.0657661
11.884
0.0400765
8.04005
0.0522685
5.17241
0.113537
3.1039
0.152221
1.72846
0.137389
0.843485
0.357902
-0.467929
0.825715
-0.867511
1.24302
-1.05156
1.91263
-1.07622
3.12877
-0.951734
5.04833
-0.740186
7.82886
-0.551666
11.6959
-0.414294
16.6925
-0.242312
22.6915
-0.00432831
29.1968
0.234035
29.1953
0.407652
22.6885
0.54712
16.69
0.737453
11.6937
0.950594
7.82691
1.0757
5.0473
1.05129
3.12831
0.867395
1.91235
0.467878
1.243
0.82578
-0.594352
1.42007
-1.27985
1.92852
-1.84643
2.47921
-2.26785
3.55019
-2.44727
5.22776
-2.35902
7.74061
-1.92063
11.2575
-1.29135
16.0632
-0.653751
22.0539
-0.00699569
28.55
0.639771
28.5485
1.27885
22.0494
1.91033
16.0585
2.35161
11.2524
2.44221
7.73631
2.26431
5.2252
1.84427
3.54836
1.27857
2.47805
0.593738
1.92783
1.41952
-0.536499
1.95657
-1.24284
2.63487
-1.98958
3.22594
-2.62413
4.18474
-3.02141
5.62503
-3.13502
7.85423
-2.9333
11.0557
-2.32716
15.4571
-1.32365
21.0504
-0.0103296
27.2367
1.30384
27.2343
2.30852
21.0447
2.91774
15.4493
3.12269
11.0474
3.01159
7.8474
2.61722
5.61958
1.98479
4.18079
1.23961
3.22324
0.535005
2.63243
1.95452
-0.435995
2.39256
-1.01864
3.21751
-1.69756
3.90486
-2.3754
4.86258
-2.93224
6.18187
-3.18749
8.10948
-3.12843
10.9967
-2.62376
14.9524
-1.54082
19.9674
-0.015544
25.7114
1.51157
25.7072
2.60092
19.9554
3.11018
14.94
3.17242
10.9852
2.92014
8.09969
2.36647
6.17324
1.69147
4.8558
1.01539
3.89932
0.434533
3.21329
2.38906
-0.323613
2.71617
-0.771643
3.66554
-1.30169
4.43491
-1.86657
5.42745
-2.417
6.73231
-2.81427
8.50675
-2.86266
11.0451
-2.42767
14.5174
-1.45613
18.9959
-0.0179655
24.2733
1.42237
24.2669
2.39678
18.981
2.8373
14.4995
2.79369
11.0288
2.4009
8.49248
1.854
6.72014
1.29239
5.41741
0.76486
4.42685
0.320294
3.65785
2.70935
-0.225027
2.9412
-0.550744
3.99126
-0.938482
4.82265
-1.36395
5.85292
-1.79514
7.1635
-2.16179
8.8734
-2.29162
11.1749
-2.02585
14.2517
-1.28145
18.2515
-0.0235638
23.0154
1.23648
23.0068
1.98817
18.2293
2.25899
14.2287
2.13529
11.1525
1.77454
8.85323
1.34889
7.14579
0.928639
5.83766
0.546281
4.8092
0.223477
3.98066
2.93283
-0.149825
3.09103
-0.377048
4.21848
-0.647696
5.09329
-0.949002
6.15423
-1.26153
7.47602
-1.53886
9.15072
-1.6758
11.3118
-1.54148
14.1173
-1.01119
17.7212
-0.0277105
22.0319
0.95915
22.02
1.49567
17.6928
1.63749
14.0868
1.50753
11.2825
1.23747
9.12328
0.931302
7.45196
0.635449
6.13352
0.368388
5.07626
0.144783
4.20426
3.07761
-0.0969613
3.18799
-0.250667
4.37219
-0.433193
5.27582
-0.637324
6.35836
-0.850268
7.68897
-1.04203
9.34248
-1.15326
11.4231
-1.08751
14.0516
-0.724375
17.358
-0.0325804
21.3401
0.662092
21.3253
1.02286
17.332
1.09921
14.0105
1.00067
11.381
0.817931
9.30602
0.612144
7.65775
0.414003
6.33166
0.237451
5.25282
0.0917887
4.34992
3.1694
-0.0623626
3.25035
-0.164777
4.4746
-0.285997
5.39704
-0.421701
6.49406
-0.563279
7.83055
-0.690343
9.46955
-0.76389
11.4966
-0.724941
14.0126
-0.505332
17.1384
-0.0459172
20.8807
0.422375
20.857
0.660703
17.0937
0.707187
13.964
0.642103
11.4461
0.525777
9.42235
0.396307
7.78722
0.271624
6.45634
0.160306
5.36413
0.061223
4.44901
3.23062
-0.0407156
3.29107
-0.10891
4.5428
-0.189472
5.4776
-0.279739
6.58433
-0.374267
7.92507
-0.460473
9.55575
-0.511772
11.5479
-0.498771
13.9996
-0.354216
16.9939
-0.0558401
20.5823
0.252319
20.5489
0.408109
16.9379
0.440085
13.932
0.400737
11.4855
0.327397
9.49569
0.244384
7.87023
0.165158
6.53557
0.0928582
5.43643
0.0302405
4.51162
3.26086
-0.0279011
3.31897
-0.074604
4.5895
-0.129885
5.53288
-0.192251
6.6467
-0.25862
7.99144
-0.322437
9.61957
-0.369696
11.5952
-0.370018
14
-0.245009
16.8689
-0.0576922
20.395
0.13342
20.3578
0.233874
16.8374
0.257914
13.908
0.236325
11.507
0.192759
9.53925
0.140854
7.92214
0.0878408
6.58858
0.0396875
5.48459
0.00961175
4.5417
3.27047
-0.0199756
3.33894
-0.0529291
4.62245
-0.0919028
5.57186
-0.135966
6.69076
-0.182464
8.03794
-0.227199
9.66431
-0.262999
11.631
-0.254302
13.9913
-0.194118
16.8087
-0.0746414
20.2755
0.0427278
20.2404
0.112526
16.7676
0.133595
13.8869
0.124194
11.5164
0.100281
9.56317
0.0723876
7.95003
0.0441865
6.61678
0.0205678
5.50821
0.00859623
4.55367
3.27907
-0.0149142
3.35386
-0.0387016
4.64624
-0.066699
5.59985
-0.0982311
6.72229
-0.131401
8.07111
-0.163105
9.69601
-0.186488
11.6543
-0.180351
13.9851
-0.200836
16.8292
-0.114948
20.1896
-0.0308858
20.1563
0.025293
16.7115
0.0494434
13.8628
0.0541507
11.5117
0.0483532
9.56896
0.0403745
7.95801
0.0340914
6.62307
0.0315293
5.51077
0.0217555
4.56345
3.30083
-0.0131107
3.36697
-0.0322976
4.66543
-0.0548552
5.62241
-0.0802762
6.74771
-0.107467
8.0983
-0.132621
9.72117
-0.15057
11.6723
-0.158297
13.9929
-0.220999
16.8919
-0.162217
20.1308
-0.0909816
20.0851
-0.0414579
16.6619
-0.010892
13.8322
0.00877031
11.4921
0.0212047
9.55653
0.0278724
7.95134
0.0329002
6.61804
0.0378398
5.50583
0.0229162
4.57837
3.32374
-0.0139587
3.38093
-0.0325266
4.684
-0.0544556
5.64434
-0.0795064
6.77276
-0.106862
8.12566
-0.132677
9.74698
-0.150225
11.6898
-0.172592
14.0152
-0.225689
16.945
-0.198199
20.1034
-0.14175
20.0286
-0.098898
16.6191
-0.065954
13.7992
-0.0396672
11.4658
-0.0172682
9.53413
-0.000246196
7.93432
0.0122782
6.60551
0.0161004
5.50201
0.00630357
4.58817
3.33005
-0.0167337
3.39766
-0.0373861
4.70465
-0.0617412
5.6687
-0.0898892
6.80091
-0.121297
8.15707
-0.153697
9.77938
-0.181033
11.7172
-0.219506
14.0537
-0.238127
16.9636
-0.231702
20.0969
-0.192543
19.9895
-0.155871
16.5824
-0.122224
13.7656
-0.093848
11.4374
-0.0705053
9.51079
-0.0502635
7.91408
-0.0324237
6.58767
-0.0219835
5.49157
-0.0137416
4.57992
3.3163
-0.0195661
3.41723
-0.0440417
4.72912
-0.0731021
5.69776
-0.106978
6.83479
-0.145671
8.19576
-0.188668
9.82238
-0.234572
11.7631
-0.279581
14.0987
-0.274655
16.9587
-0.277366
20.0996
-0.252599
19.9647
-0.216041
16.5459
-0.177379
13.7269
-0.142117
11.4021
-0.111781
9.48045
-0.0864527
7.88875
-0.0661034
6.56732
-0.0499829
5.47544
-0.0286624
4.5586
3.28764
-0.0259118
3.44314
-0.0559511
4.75916
-0.0913299
5.73314
-0.13275
6.87621
-0.180309
8.24332
-0.233905
9.87597
-0.292509
11.8217
-0.342794
14.149
-0.338664
16.9545
-0.347421
20.1084
-0.327376
19.9447
-0.284353
16.5028
-0.236231
13.6788
-0.190382
11.3563
-0.149791
9.43986
-0.115486
7.85444
-0.088122
6.53996
-0.0634735
5.4508
-0.0324166
4.52755
3.25522
-0.0297812
3.47292
-0.0674906
4.79687
-0.112591
5.77824
-0.1652
6.92882
-0.225774
8.30389
-0.29321
9.94341
-0.36452
11.893
-0.425514
14.21
-0.440004
16.969
-0.452543
20.1209
-0.422799
19.9149
-0.367873
16.4479
-0.306312
13.6173
-0.246494
11.2965
-0.192321
9.38569
-0.145108
7.80723
-0.105091
6.49994
-0.0690047
5.41471
-0.0324622
4.491
3.22276
-0.0436444
3.51656
-0.092507
4.84574
-0.149321
5.83505
-0.216025
6.99552
-0.292019
8.37989
-0.375681
10.0271
-0.461692
11.979
-0.535955
14.2842
-0.569319
17.0024
-0.580447
20.1321
-0.538644
19.8731
-0.46863
16.3779
-0.39026
13.5389
-0.313404
11.2196
-0.242935
9.31522
-0.180586
7.74488
-0.126276
6.44563
-0.0788561
5.36729
-0.0354241
4.44757
3.18734
-0.0513506
3.56791
-0.113469
4.90785
-0.189465
5.91105
-0.277536
7.08359
-0.377719
8.48007
-0.485492
10.1348
-0.592264
12.0858
-0.683165
14.3751
-0.732924
17.0522
-0.740004
20.1392
-0.682836
19.8159
-0.593614
16.2887
-0.494114
13.4394
-0.395744
11.1213
-0.304463
9.22394
-0.223179
7.6636
-0.152716
6.37517
-0.092055
5.30663
-0.0402592
4.39578
3.14708
-0.0804463
3.64836
-0.16854
4.99595
-0.267577
6.01008
-0.383354
7.19937
-0.512417
8.60913
-0.646376
10.2688
-0.774197
12.2136
-0.879093
14.48
-0.936877
17.1099
-0.933719
20.136
-0.856427
19.7387
-0.744426
16.1767
-0.621609
13.3166
-0.500779
11.0004
-0.388612
9.11177
-0.288019
7.563
-0.200439
6.28759
-0.125594
5.23178
-0.057664
4.32785
3.08942
-0.105847
3.75421
-0.222451
5.11255
-0.367297
6.15493
-0.531904
7.36397
-0.701574
8.7788
-0.867436
10.4347
-1.01685
12.363
-1.13165
14.5948
-1.18905
17.1673
-1.16932
20.1163
-1.06703
19.6364
-0.928589
16.0382
-0.778875
13.1669
-0.630445
10.852
-0.489947
8.97127
-0.3607
7.43376
-0.243871
6.17076
-0.142755
5.13067
-0.0617074
4.2468
3.02771
-0.216563
3.97077
-0.384749
5.28074
-0.584611
6.35479
-0.785669
7.56503
-0.985411
8.97854
-1.17521
10.6245
-1.33667
12.5245
-1.45067
14.7088
-1.49582
17.2125
-1.45051
20.071
-1.3174
19.5033
-1.14953
15.8704
-0.972505
12.9898
-0.799072
10.6786
-0.636115
8.80832
-0.48766
7.2853
-0.354797
6.0379
-0.232617
5.00849
-0.114536
4.12872
2.91317
-0.325957
4.29673
-0.660389
5.61517
-0.93771
6.63211
-1.18259
7.80992
-1.41209
9.20804
-1.61109
10.8235
-1.76413
12.6775
-1.85635
14.8011
-1.86982
17.226
-1.78328
19.9844
-1.61053
19.3305
-1.41062
15.6704
-1.20607
12.7853
-1.00715
10.4796
-0.817697
8.61887
-0.638444
7.10605
-0.47024
5.86969
-0.314023
4.85227
-0.155728
3.97042
2.75744
-0.214102
4.51083
-0.500511
5.90158
-0.763759
6.89536
-1.04969
8.09585
-1.32467
9.48302
-1.57454
11.0733
-1.79366
12.8966
-1.97165
14.9791
-2.08524
17.3395
-2.09602
19.9952
-1.98181
19.2163
-1.78969
15.4783
-1.5539
12.5495
-1.2967
10.2224
-1.03312
8.35529
-0.773962
6.84689
-0.527146
5.62288
-0.301906
4.62703
-0.118477
3.78699
2.63897
-0.0894545
4.60028
-0.200188
6.01231
-0.412438
7.10761
-0.648112
8.33152
-0.880463
9.71537
-1.09577
11.2886
-1.2883
13.0892
-1.44322
15.134
-1.53628
17.4326
-1.53298
19.9919
-1.41783
19.1011
-1.23994
15.3004
-1.03453
12.3441
-0.824262
10.0122
-0.623911
8.15494
-0.442319
6.6653
-0.282682
5.46324
-0.142716
4.48707
-0.0392042
3.68348
2.59976
-0.0774911
4.67778
-0.185676
6.1205
-0.315212
7.23715
-0.466113
8.48242
-0.622988
9.87225
-0.785951
11.4516
-0.944195
13.2474
-1.07389
15.2637
-1.15083
17.5096
-1.1455
19.9866
-1.0463
19.0019
-0.899813
15.154
-0.739121
12.1834
-0.582677
9.85573
-0.439755
8.01201
-0.313898
6.53944
-0.205086
5.35443
-0.110281
4.39226
-0.03191
3.60511
2.56785
-0.058812
4.73659
-0.161616
6.2233
-0.280428
7.35596
-0.380531
8.58252
-0.48245
9.97417
-0.603846
11.573
-0.726081
13.3697
-0.827777
15.3654
-0.888928
17.5707
-0.883453
19.9811
-0.801837
18.9203
-0.68428
15.0364
-0.558242
12.0573
-0.437583
9.73508
-0.328353
7.90278
-0.232494
6.44359
-0.150215
5.27215
-0.0816396
4.32368
-0.0258671
3.54934
2.54199
-0.0492265
4.78581
-0.130287
6.30436
-0.217646
7.44332
-0.294278
8.65916
-0.386246
10.0661
-0.488314
11.6751
-0.58349
13.4648
-0.662816
15.4447
-0.711339
17.6192
-0.706108
19.9759
-0.638753
18.853
-0.542685
14.9403
-0.440515
11.9552
-0.3435
9.63806
-0.256556
7.81584
-0.181295
6.36832
-0.118114
5.20897
-0.0647858
4.27036
-0.0223145
3.50687
2.51967
-0.0433106
4.82912
-0.100863
6.36191
-0.168451
7.5109
-0.229988
8.72069
-0.317011
10.1532
-0.403936
11.762
-0.482219
13.5431
-0.548509
15.511
-0.589707
17.6604
-0.586232
19.9724
-0.530395
18.7971
-0.450164
14.8601
-0.364906
11.8699
-0.284329
9.55749
-0.212573
7.74408
-0.150654
6.3064
-0.09849
5.15681
-0.0571931
4.22906
-0.0196101
3.46928
2.50006
-0.0391974
4.86832
-0.0838395
6.40656
-0.133433
7.5605
-0.193042
8.7803
-0.266997
10.2271
-0.339597
11.8346
-0.407592
13.6111
-0.466969
15.5704
-0.505197
17.6987
-0.50545
19.9726
-0.459719
18.7514
-0.391563
14.7919
-0.318294
11.7966
-0.248782
9.48797
-0.186893
7.68219
-0.1336
6.25311
-0.0882482
5.11145
-0.0518198
4.19263
-0.0209896
3.43845
2.47907
-0.0244918
4.89281
-0.0764841
6.45855
-0.118423
7.60244
-0.171547
8.83343
-0.233257
10.2888
-0.293037
11.8944
-0.353697
13.6718
-0.408766
15.6254
-0.446518
17.7364
-0.45192
19.978
-0.415544
18.715
-0.356887
14.7333
-0.291997
11.7318
-0.229539
9.42552
-0.173525
7.62618
-0.12526
6.20485
-0.0843238
5.07052
-0.0498343
4.15814
-0.0225897
3.41121
2.45648
-0.0199062
4.91272
-0.0694176
6.50806
-0.092068
7.62509
-0.150272
8.89163
-0.205185
10.3437
-0.258608
11.9478
-0.314829
13.728
-0.366839
15.6774
-0.405497
17.7751
-0.417147
19.9897
-0.390086
18.688
-0.339491
14.6827
-0.280536
11.6728
-0.222212
9.36719
-0.169061
7.57303
-0.122841
6.15862
-0.0835394
5.03122
-0.0501673
4.12477
-0.0233971
3.38444
2.43309
-0.023933
4.93665
-0.0725936
6.55672
-0.100076
7.65257
-0.140323
8.93188
-0.184114
10.3875
-0.232473
11.9961
-0.285278
13.7808
-0.335854
15.728
-0.376915
17.8161
-0.3958
20.0086
-0.378331
18.6705
-0.335148
14.6395
-0.280563
11.6182
-0.224192
9.31082
-0.171496
7.52033
-0.124965
6.11209
-0.0851064
4.99136
-0.0518006
4.09146
-0.0237363
3.35637
2.40935
-0.0100459
4.9467
-0.0475424
6.59422
-0.0679195
7.67295
-0.12239
8.98635
-0.165922
10.4311
-0.212588
12.0428
-0.263237
13.8314
-0.313059
15.7778
-0.35665
17.8597
-0.382914
20.0348
-0.375604
18.6632
-0.34025
14.6042
-0.289727
11.5677
-0.234229
9.25532
-0.18052
7.46663
-0.132052
6.06363
-0.0900092
4.94931
-0.0554918
4.05695
-0.024907
3.32579
2.38444
-0.0095631
4.95626
-0.047729
6.63238
-0.0752799
7.7005
-0.111047
9.02212
-0.149337
10.4693
-0.195178
12.0887
-0.244142
13.8804
-0.293835
15.8275
-0.340612
17.9065
-0.375163
20.0694
-0.379219
18.6672
-0.352822
14.5778
-0.306943
11.5218
-0.251773
9.20015
-0.195566
7.41042
-0.143403
6.01146
-0.0971413
4.90305
-0.0589996
4.0188
-0.0265101
3.2933
2.35793
-0.00384468
4.96011
-0.0308275
6.65937
-0.0577997
7.72747
-0.0996245
9.06394
-0.137756
10.5075
-0.180898
12.1318
-0.228413
13.9279
-0.278611
15.8777
-0.328564
17.9564
-0.37086
20.1117
-0.386384
18.6828
-0.370157
14.5615
-0.330632
11.4823
-0.276976
9.1465
-0.218291
7.35173
-0.161974
5.95515
-0.111455
4.85253
-0.0676004
3.97495
-0.0268884
3.25259
2.33104
0.00122073
4.95889
-0.0297566
6.69034
-0.0552758
7.75299
-0.0904659
9.09913
-0.126272
10.5433
-0.16855
12.1741
-0.214839
13.9742
-0.264669
15.9276
-0.316746
18.0085
-0.366189
20.1611
-0.39403
18.7106
-0.390101
14.5576
-0.359547
11.4517
-0.3093
9.09625
-0.24762
7.29005
-0.183553
5.89108
-0.124974
4.79395
-0.0762608
3.92624
-0.0313887
3.20772
2.29965
-0.00215677
4.96104
-0.0193997
6.70759
-0.0485927
7.78218
-0.0822168
9.13275
-0.116691
10.5778
-0.157154
12.2145
-0.201772
14.0188
-0.251416
15.9772
-0.305833
18.0629
-0.362335
20.2176
-0.402472
18.7507
-0.41187
14.567
-0.392613
11.4325
-0.349575
9.05321
-0.289585
7.23006
-0.22097
5.82246
-0.154483
4.72747
-0.0944444
3.8662
-0.0418638
3.15514
2.25779
0.00221936
4.95882
-0.0271106
6.73692
-0.0489979
7.80407
-0.0765064
9.16026
-0.10894
10.6102
-0.146973
12.2526
-0.190121
14.062
-0.239399
16.0265
-0.295204
18.1187
-0.356854
20.2793
-0.40776
18.8016
-0.431284
14.5905
-0.426017
11.4272
-0.39358
9.02077
-0.337444
7.17393
-0.262952
5.74797
-0.179994
4.64451
-0.102778
3.78898
-0.0429128
3.09527
2.21488
-0.00465581
4.96348
-0.0141753
6.74644
-0.0408981
7.83079
-0.0707597
9.19012
-0.101528
10.641
-0.137546
12.2886
-0.179057
14.1035
-0.22723
16.0746
-0.283459
18.175
-0.34929
20.3451
-0.410462
18.8628
-0.448857
14.6289
-0.459656
11.438
-0.442426
9.00354
-0.400208
7.13171
-0.335059
5.68282
-0.251157
4.56061
-0.157103
3.69493
-0.0680025
3.00617
2.14688
0.00442087
4.95906
-0.020881
6.77174
-0.042694
7.85261
-0.0657225
9.21315
-0.0946293
10.6699
-0.128733
12.3227
-0.168228
14.143
-0.215091
16.1215
-0.271494
18.2314
-0.340844
20.4145
-0.410768
18.9327
-0.463076
14.6812
-0.491465
11.4664
-0.491529
9.00361
-0.462695
7.10288
-0.40327
5.6234
-0.307425
4.46476
-0.188274
3.57578
-0.0756799
2.89357
2.0712
-0.00809159
4.96715
-0.0176874
6.78134
-0.0366482
7.87157
-0.0610419
9.23755
-0.0879605
10.6968
-0.119609
12.3543
-0.157401
14.1808
-0.203124
16.1672
-0.259386
18.2876
-0.330817
20.4859
-0.407048
19.009
-0.470767
14.745
-0.515225
11.5109
-0.534054
9.02244
-0.527305
7.09613
-0.504109
5.6002
-0.455795
4.41645
-0.339403
3.45938
-0.146368
2.70054
1.92483
0.00151819
4.96563
-0.016367
6.79922
-0.0354833
7.89068
-0.0565745
9.25864
-0.0816294
10.7218
-0.112079
12.3848
-0.14846
14.2172
-0.192823
16.2116
-0.248161
18.343
-0.320144
20.5579
-0.400978
19.0898
-0.475233
14.8192
-0.537629
11.5733
-0.581685
9.06649
-0.598191
7.11263
-0.57898
5.58099
-0.534338
4.37181
-0.467753
3.3928
-0.297181
2.52997
1.62765
-0.00495728
4.97059
-0.017869
6.81213
-0.0369803
7.90979
-0.0563689
9.27803
-0.0808815
10.7464
-0.110925
12.4148
-0.147749
14.254
-0.193757
16.2576
-0.253086
18.4023
-0.333448
20.6382
-0.428678
19.185
-0.522104
14.9126
-0.606612
11.6578
-0.673731
9.13361
-0.719938
7.15884
-0.754031
5.61508
-0.801275
4.41905
-0.89816
3.48968
-1.03962
2.67142
1.6441
-1.05607
-0.00412146
4.97471
-0.0132836
6.82129
-0.0319146
7.92842
-0.052865
9.29898
-0.0762537
10.7697
-0.105398
12.444
-0.142085
14.2907
-0.18861
16.3041
-0.250118
18.4638
-0.335559
20.7237
-0.440702
19.2902
-0.550291
15.0222
-0.661708
11.7692
-0.773564
9.24547
-0.887851
7.27313
-1.00347
5.7307
-1.10919
4.52478
-1.17277
3.55326
-1.11285
2.6115
1.62971
-1.09846
-0.00652227
4.98123
-0.0188481
6.83362
-0.0297864
7.93936
-0.0475265
9.31672
-0.0700743
10.7923
-0.100396
12.4743
-0.13696
14.3272
-0.183636
16.3508
-0.246365
18.5265
-0.335494
20.8128
-0.449359
19.404
-0.573853
15.1467
-0.70641
11.9017
-0.838304
9.37736
-0.960471
7.39529
-1.07988
5.85011
-1.20181
4.64671
-1.28082
3.63227
-1.28617
2.61685
1.77222
-1.42868
-0.00434556
4.98558
-0.0124289
6.8417
-0.0325455
7.95948
-0.0464973
9.33067
-0.0687016
10.8145
-0.0966504
12.5022
-0.131188
14.3618
-0.177181
16.3968
-0.24061
18.59
-0.333236
20.9054
-0.455246
19.5261
-0.592941
15.2844
-0.747274
12.0561
-0.918265
9.54835
-1.10158
7.57861
-1.26139
6.00992
-1.38012
4.76545
-1.45786
3.71001
-1.50332
2.6623
1.93891
-1.67001
-0.000540644
4.98612
-0.0130933
6.85426
-0.0310399
7.97743
-0.0454277
9.34506
-0.0663205
10.8354
-0.090576
12.5265
-0.124325
14.3955
-0.169974
16.4424
-0.233968
18.654
-0.32935
21.0008
-0.458046
19.6547
-0.60721
15.4336
-0.778881
12.2277
-0.960628
9.7301
-1.13036
7.74834
-1.29009
6.16964
-1.42679
4.90216
-1.52342
3.80664
-1.63369
2.77258
2.14086
-1.83564
0.00178901
4.98433
-0.0139414
6.86999
-0.0231386
7.98662
-0.0393802
9.3613
-0.0603348
10.8563
-0.0867831
12.5529
-0.121561
14.4303
-0.167043
16.4879
-0.231461
18.7184
-0.329175
21.0985
-0.463028
19.7886
-0.619026
15.5896
-0.798329
12.407
-1.00352
9.93529
-1.2318
7.97662
-1.47957
6.41741
-1.69017
5.11275
-1.8445
3.96097
-2.02483
2.95291
2.33885
-2.22283
-0.00166266
4.98599
-0.0174662
6.88579
-0.023178
7.99233
-0.040348
9.37847
-0.0615564
10.8775
-0.0894834
12.5809
-0.123097
14.4639
-0.168486
16.5333
-0.233727
18.7836
-0.333635
21.1984
-0.471263
19.9262
-0.633973
15.7523
-0.825656
12.5987
-1.05289
10.1625
-1.28456
8.20829
-1.47755
6.61041
-1.67235
5.30755
-1.88512
4.17374
-2.12055
3.18834
2.60751
-2.38921
-0.000908897
4.9869
-0.0150875
6.89997
-0.0306936
8.00794
-0.0473641
9.39514
-0.0662341
10.8964
-0.0913752
12.606
-0.12378
14.4963
-0.169773
16.5793
-0.235463
18.8493
-0.336117
21.2991
-0.474587
20.0647
-0.639866
15.9176
-0.828329
12.7872
-1.05411
10.3883
-1.31509
8.46927
-1.60781
6.90313
-1.94992
5.64965
-2.34272
4.56654
-2.77143
3.61705
2.94608
-3.11
-0.00857217
4.99547
-0.01543
6.90683
-0.0279789
8.02049
-0.0449207
9.41208
-0.0649975
10.9165
-0.0908276
12.6318
-0.125014
14.5305
-0.171235
16.6255
-0.236499
18.9146
-0.33686
21.3995
-0.4741
20.2019
-0.639973
16.0834
-0.82674
12.974
-1.04777
10.6093
-1.34132
8.76281
-1.65574
7.21756
-1.92846
5.92237
-2.363
5.00108
-3.00903
4.26308
3.21302
-3.27597
-0.00865361
5.00413
-0.0164237
6.9146
-0.025706
8.02977
-0.0424252
9.4288
-0.0655927
10.9397
-0.092582
12.6588
-0.126714
14.5646
-0.171623
16.6704
-0.236011
18.979
-0.33528
21.4987
-0.468541
20.3352
-0.629728
16.2446
-0.821733
13.166
-1.03032
10.8179
-1.30588
9.03837
-1.70042
7.6121
-2.19538
6.41733
-2.71176
5.51746
-3.47875
5.03008
4.15312
-4.41886
-0.00117008
5.0053
-0.016981
6.93041
-0.0324822
8.04527
-0.0491483
9.44547
-0.0704015
10.9609
-0.0947556
12.6832
-0.126225
14.5961
-0.169226
16.7134
-0.230768
19.0405
-0.324003
21.592
-0.445867
20.4571
-0.585765
16.3845
-0.757518
13.3377
-0.939059
10.9995
-1.13753
9.23684
-1.46229
7.93686
-1.98248
6.93752
-2.3734
5.90839
-1.68031
4.33698
2.47281
-0.00371505
5.00901
-0.0174183
6.94411
-0.0331555
8.06101
-0.0500027
9.46231
-0.0694516
10.9804
-0.0942527
12.708
-0.127104
14.629
-0.172288
16.7586
-0.23566
19.1039
-0.330093
21.6864
-0.451566
20.5785
-0.578322
16.5113
-0.735399
13.4948
-0.900712
11.1648
-1.0572
9.39333
-1.12975
8.0094
-1.06375
6.87152
-0.971798
5.81643
-0.742519
4.1077
1.73029
-0.00635415
5.01537
-0.0154413
6.9532
-0.027933
8.0735
-0.0447661
9.47915
-0.0665338
11.0021
-0.0929976
12.7345
-0.127245
14.6632
-0.173357
16.8047
-0.237195
19.1677
-0.329957
21.7792
-0.446097
20.6947
-0.553212
16.6184
-0.650086
13.5917
-0.751495
11.2662
-0.807463
9.4493
-0.737215
7.93916
-0.541797
6.6761
-0.36628
5.64091
-0.289549
4.03097
1.44075
-0.00122732
5.01659
-0.0126472
6.96462
-0.0268498
8.0877
-0.0448559
9.49715
-0.0672497
11.0245
-0.092538
12.7597
-0.126272
14.6969
-0.171874
16.8503
-0.234824
19.2307
-0.322405
21.8667
-0.424202
20.7965
-0.506282
16.7005
-0.541585
13.627
-0.550947
11.2756
-0.471819
9.37017
-0.395595
7.86293
-0.268125
6.54863
-0.113461
5.48625
0.00362691
3.91388
1.44437
-0.00224636
5.01884
-0.0137752
6.97615
-0.0273985
8.10133
-0.0442941
9.51405
-0.0640471
11.0443
-0.0881221
12.7838
-0.121469
14.7303
-0.166365
16.8952
-0.227258
19.2916
-0.307064
21.9465
-0.387047
20.8765
-0.441655
16.7551
-0.436148
13.6215
-0.377729
11.2171
-0.227123
9.21956
-0.0826099
7.71842
0.0264803
6.43954
0.185736
5.327
0.287782
3.81184
1.73215
-0.00548934
5.02433
-0.0141879
6.98485
-0.0242221
8.11136
-0.038898
9.52872
-0.0563228
11.0617
-0.0806668
12.8082
-0.113773
14.7634
-0.157453
16.9389
-0.214528
19.3486
-0.284691
22.0167
-0.341078
20.9328
-0.367358
16.7814
-0.346594
13.6007
-0.256543
11.1271
-0.133665
9.09669
0.0255169
7.55924
0.221655
6.24341
0.428823
5.11983
0.388208
3.85245
2.12036
-0.00274356
5.02707
-0.0105689
6.99267
-0.0192819
8.12008
-0.0344075
9.54385
-0.0512372
11.0785
-0.0741686
12.8311
-0.105145
14.7944
-0.145705
16.9795
-0.196341
19.3993
-0.254765
22.0751
-0.29375
20.9718
-0.294375
16.782
-0.26516
13.5715
-0.182924
11.0448
-0.109958
9.02372
0.0524254
7.39685
0.221999
6.07383
0.37957
4.96226
0.322242
3.90978
2.4426
-0.00115652
5.02823
-0.00851109
7.00003
-0.0168267
8.12839
-0.0319074
9.55893
-0.0472235
11.0938
-0.0662253
12.8501
-0.0934173
14.8216
-0.128429
17.0145
-0.170674
19.4415
-0.216843
22.1213
-0.244496
20.9995
-0.229211
16.7667
-0.183036
13.5253
-0.115431
10.9772
-0.0759368
8.98423
0.0508327
7.27008
0.156737
5.96793
0.246672
4.87232
0.220274
3.93618
2.66288
-0.000960265
5.02919
-0.00705733
7.00612
-0.0127009
8.13403
-0.0243739
9.5706
-0.0376823
11.1072
-0.0514586
12.8639
-0.0747913
14.8449
-0.103283
17.043
-0.137054
19.4753
-0.17251
22.1568
-0.191162
21.0181
-0.172591
16.7481
-0.121954
13.4747
-0.0692296
10.9245
-0.0409406
8.95594
0.0308955
7.19825
0.0957098
5.90311
0.148502
4.81953
0.143801
3.94088
2.80668
-0.000389845
5.02958
-0.00409401
7.00983
-0.00779652
8.13774
-0.0131902
9.576
-0.0188266
11.1128
-0.0310788
12.8761
-0.0492386
14.863
-0.0694833
17.0632
-0.0948846
19.5007
-0.121546
22.1834
-0.134577
21.0312
-0.122015
16.7356
-0.0856233
13.4383
-0.049302
10.8882
-0.0133643
8.92
0.0173224
7.16756
0.0511329
5.8693
0.0756371
4.79502
0.0769552
3.93956
2.88363
0.00444352
5.02514
0.00397775
7.01029
0.0030746
8.13864
0.00151881
9.57755
0.00420664
11.1101
-0.00969849
12.89
-0.015264
14.8686
-0.0268016
17.0748
-0.0441487
19.518
-0.063422
22.2027
-0.075276
21.043
-0.07309
16.7334
-0.0580734
13.4233
-0.0352788
10.8654
0.00618309
8.87854
0.013185
7.16056
0.0222621
5.86023
0.0222354
4.79505
0.01596
3.94584
2.89959
0.00738075
5.01776
0.0129201
7.00475
0.0169757
8.13459
0.0200186
9.57451
0.0315437
11.0986
0.0352441
12.8863
0.0380595
14.8658
0.0335661
17.0793
0.0198894
19.5317
-0.000547586
22.2231
-0.0118228
21.0543
-0.0191428
16.7407
-0.0220688
13.4262
-0.0126032
10.8559
0.0186798
8.84725
0.0120933
7.16715
0.00409005
5.86823
-0.00228699
4.80143
-0.0127117
3.95626
2.88688
0.0167982
5.00096
0.031298
6.99025
0.0455391
8.12034
0.0586756
9.56137
0.0744577
11.0828
0.0948827
12.8659
0.110639
14.85
0.118062
17.0718
0.114871
19.5349
0.0976419
22.2404
0.0726399
21.0793
0.0506534
16.7627
0.0314327
13.4454
0.0237534
10.8636
0.0338173
8.83719
0.0181577
7.18281
0.00622379
5.88016
-0.00718968
4.81484
-0.0154226
3.9645
2.87146
0.0235461
4.97741
0.0513085
6.96249
0.0780036
8.09365
0.106414
9.53296
0.138837
11.0504
0.173081
12.8317
0.202883
14.8202
0.223284
17.0514
0.228263
19.5299
0.211699
22.2569
0.177418
21.1136
0.140611
16.7995
0.105714
13.4803
0.0786397
10.8907
0.0652639
8.85057
0.0404365
7.20763
0.0234735
5.89713
-0.00186901
4.84018
-0.00655507
3.96918
2.86491
0.0412815
4.93613
0.0835386
6.92024
0.124616
8.05257
0.175045
9.48253
0.22427
11.0012
0.276576
12.7794
0.323372
14.7734
0.358267
17.0165
0.372025
19.5162
0.355358
22.2736
0.309017
21.1599
0.25418
16.8543
0.199875
13.5346
0.152458
10.9381
0.11581
8.88721
0.078094
7.24535
0.0462874
5.92893
0.0168249
4.86965
-0.00564719
3.99165
2.85926
0.0508478
4.88528
0.110722
6.86036
0.182334
7.98096
0.258699
9.40617
0.334189
10.9257
0.411817
12.7017
0.480875
14.7044
0.533405
16.964
0.557963
19.4916
0.540173
22.2914
0.478934
21.2212
0.401443
16.9318
0.322147
13.6139
0.249126
11.0111
0.186917
8.94942
0.131553
7.30071
0.0848287
5.97566
0.0469946
4.90748
0.0161899
4.02246
2.87545
0.0863999
4.79888
0.182066
6.7647
0.273499
7.88953
0.378799
9.30087
0.483488
10.821
0.590365
12.5948
0.687427
14.6073
0.763738
16.8877
0.804025
19.4513
0.787682
22.3077
0.710373
21.2985
0.605888
17.0363
0.494981
13.7248
0.389196
11.1169
0.294904
9.04371
0.212572
7.38305
0.142583
6.04564
0.0854113
4.96465
0.0362092
4.07166
2.91166
0.114201
4.68468
0.24813
6.63077
0.394808
7.74285
0.551241
9.14444
0.700005
10.6722
0.845473
12.4494
0.975799
14.477
1.07878
16.7847
1.13626
19.3938
1.12164
22.3223
1.02562
21.3945
0.88802
17.1739
0.735519
13.8773
0.584174
11.2683
0.443903
9.18398
0.319537
7.50741
0.213284
6.1519
0.126427
5.05151
0.0551194
4.14297
2.96678
0.201749
4.48293
0.40994
6.42258
0.596368
7.55642
0.790445
8.95036
0.984604
10.478
1.17623
12.2578
1.34922
14.304
1.48886
16.6451
1.57433
19.3084
1.57328
22.3234
1.46872
21.499
1.3043
17.3383
1.1124
14.0692
0.913281
11.4674
0.719725
9.37754
0.539266
7.68787
0.375842
6.31532
0.232306
5.19504
0.108625
4.26665
3.0754
0.344045
4.13889
0.655278
6.11134
0.903218
7.30848
1.17222
8.68135
1.4282
10.2221
1.66919
12.0168
1.88775
14.0855
2.07056
16.4623
2.19356
19.1854
2.21669
22.3002
2.11223
21.6035
1.92585
17.5247
1.69418
14.3009
1.43968
11.7219
1.17709
9.64013
0.91653
7.94843
0.665012
6.56684
0.426936
5.43312
0.206478
4.48711
3.28188
0.236704
3.90218
0.529391
5.81866
0.819083
7.01879
1.13165
8.36878
1.40957
9.94416
1.64509
11.7812
1.82606
13.9045
1.93925
16.3491
1.96787
19.1568
1.88931
22.3788
1.71547
21.7773
1.50716
17.733
1.29017
14.5179
1.0762
11.9358
0.870632
9.8457
0.675404
8.14366
0.490762
6.75148
0.31616
5.60772
0.151164
4.6521
3.43304
0.050696
3.85149
0.206312
5.66304
0.418263
6.80684
0.646441
8.14061
0.881611
9.70899
1.11275
11.5501
1.31419
13.703
1.46154
16.2017
1.53183
19.0865
1.50095
22.4097
1.37105
21.9072
1.1961
17.908
1.00517
14.7088
0.81302
12.128
0.628034
10.0307
0.456059
8.31563
0.302187
6.90535
0.169722
5.74019
0.0656435
4.75618
3.49869
0.037938
3.81355
0.161321
5.53966
0.296247
6.67191
0.448824
7.98803
0.615718
9.54209
0.790227
11.3756
0.958276
13.535
1.09758
16.0624
1.18114
19.0029
1.17989
22.4109
1.08564
22.0015
0.943959
18.0497
0.785154
14.8676
0.62647
12.2867
0.478169
10.179
0.345963
8.44784
0.231779
7.01954
0.134076
5.83789
0.0508015
4.83946
3.54949
0.0172112
3.79634
0.115426
5.44144
0.226083
6.56125
0.346132
7.86798
0.473768
9.41446
0.604784
11.2446
0.733075
13.4067
0.845459
15.95
0.920434
18.9279
0.930055
22.4013
0.860942
22.0706
0.74953
18.1611
0.623502
14.9936
0.498644
12.4115
0.382978
10.2947
0.279467
8.55135
0.188123
7.11088
0.107791
5.91822
0.0383926
4.90886
3.58788
0.00710648
3.78923
0.0774077
5.37114
0.160287
6.47838
0.255514
7.77275
0.359473
9.3105
0.4665
11.1375
0.570494
13.3027
0.661872
15.8587
0.724969
18.8648
0.737232
22.389
0.685467
22.1224
0.5982
18.2483
0.498398
15.0934
0.398804
12.5111
0.3056
10.3879
0.221349
8.6356
0.14691
7.18532
0.0824498
5.98268
0.0280105
4.9633
3.61589
0.00811445
3.78112
0.0581829
5.32107
0.117332
6.41923
0.188183
7.7019
0.268532
9.23015
0.354418
11.0517
0.440177
13.217
0.51685
15.782
0.571201
18.8105
0.584688
22.3756
0.545621
22.1614
0.476616
18.3173
0.396577
15.1735
0.316144
12.5916
0.240825
10.4632
0.173222
8.7032
0.11425
7.24429
0.0639505
6.03298
0.0217249
5.00552
3.63762
0.00994682
3.77117
0.0471558
5.28386
0.0914551
6.37493
0.144455
7.6489
0.205072
9.16953
0.271442
10.9853
0.339719
13.1487
0.402662
15.719
0.448978
18.7642
0.462695
22.3618
0.433139
22.191
0.378402
18.3721
0.314309
15.2376
0.249893
12.656
0.189871
10.5232
0.136342
8.75673
0.0898605
7.29077
0.0503133
6.07253
0.0171114
5.03872
3.65473
0.00984652
3.76132
0.0379307
5.25578
0.0721919
6.34067
0.11296
7.60814
0.159519
9.12297
0.210825
10.934
0.264292
13.0952
0.314598
15.6687
0.352786
18.726
0.365439
22.3492
0.342958
22.2135
0.299707
18.4153
0.248776
15.2885
0.197612
12.7071
0.150018
10.5708
0.107623
8.79913
0.0708208
7.32758
0.0395282
6.10382
0.0133549
5.0649
3.66808
0.00879057
3.75253
0.0300379
5.23453
0.0565681
6.31414
0.0881338
7.57657
0.124304
9.0868
0.16437
10.8939
0.206384
13.0532
0.246331
15.6288
0.277243
18.6951