/*--------------------------------*- C++ -*----------------------------------*\
| =========                 |                                                 |
| \\      /  F ield         | OpenFOAM: The Open Source CFD Toolbox           |
|  \\    /   O peration     | Version:  2412                                  |
|   \\  /    A nd           | Website:  www.openfoam.com                      |
|    \\/     M anipulation  |                                                 |
\*---------------------------------------------------------------------------*/
FoamFile
{
    version     2.0;
    format      ascii;
    arch        "LSB;label=32;scalar=64";
    class       volVectorField;
    location    "0.75";
    object      U;
}
// * * * * * * * * * * * * * * * * * * * * * * * * * * * * * * * * * * * * * //

dimensions      [0 1 -1 0 0 0 0];

internalField   nonuniform List<vector> 
2200
(
(0.397261 0.0734696 0)
(1.13754 0.0952078 0)
(2.06966 0.0600248 0)
(3.07163 0.0319588 0)
(4.25115 0.0102592 0)
(5.53833 0.0173619 0)
(6.84126 0.0330197 0)
(8.11294 0.0381589 0)
(9.2105 0.0426272 0)
(9.88889 0.0246981 0)
(9.88854 -0.0230382 0)
(9.21013 -0.0418721 0)
(8.11282 -0.0375635 0)
(6.84115 -0.0325494 0)
(5.53827 -0.0170416 0)
(4.25103 -0.0100666 0)
(3.07147 -0.0318906 0)
(2.06953 -0.0600868 0)
(1.1376 -0.0952746 0)
(0.397338 -0.073533 0)
(0.923212 0.13359 0)
(1.37737 0.354213 0)
(2.13059 0.490878 0)
(3.06682 0.514736 0)
(4.21437 0.438959 0)
(5.47277 0.3325 0)
(6.79899 0.225485 0)
(8.04638 0.177863 0)
(9.11693 0.119537 0)
(9.7943 0.0435456 0)
(9.79416 -0.0400009 0)
(9.11631 -0.116601 0)
(8.04605 -0.175702 0)
(6.79868 -0.223955 0)
(5.47235 -0.331638 0)
(4.21384 -0.438585 0)
(3.06646 -0.514504 0)
(2.13029 -0.490729 0)
(1.37731 -0.354149 0)
(0.923412 -0.133559 0)
(1.88055 0.135393 0)
(2.14834 0.441189 0)
(2.46873 0.732929 0)
(3.25619 0.955256 0)
(4.27527 1.07335 0)
(5.41656 1.0697 0)
(6.66374 0.917953 0)
(7.90978 0.633544 0)
(8.95581 0.341114 0)
(9.5687 0.121712 0)
(9.56886 -0.116001 0)
(8.95531 -0.335642 0)
(7.90809 -0.628696 0)
(6.66164 -0.914017 0)
(5.41419 -1.06694 0)
(4.27393 -1.07137 0)
(3.25519 -0.953914 0)
(2.4679 -0.732085 0)
(2.1479 -0.440749 0)
(1.88012 -0.135212 0)
(2.90637 0.111212 0)
(3.27267 0.394298 0)
(3.3672 0.729619 0)
(3.7773 1.04126 0)
(4.46232 1.28098 0)
(5.43671 1.36838 0)
(6.47597 1.3457 0)
(7.63354 1.14054 0)
(8.69656 0.7484 0)
(9.36406 0.269369 0)
(9.36344 -0.261168 0)
(8.69335 -0.740255 0)
(7.63051 -1.13295 0)
(6.47177 -1.33957 0)
(5.43245 -1.36344 0)
(4.45903 -1.27724 0)
(3.77425 -1.03863 0)
(3.36488 -0.727798 0)
(3.2708 -0.393153 0)
(2.9046 -0.11095 0)
(3.78213 0.0950386 0)
(4.23226 0.308941 0)
(4.28641 0.603001 0)
(4.50708 0.904594 0)
(4.86618 1.188 0)
(5.4997 1.37168 0)
(6.39581 1.39626 0)
(7.4112 1.28681 0)
(8.40926 0.907441 0)
(9.08651 0.329221 0)
(9.08544 -0.316511 0)
(8.40853 -0.896335 0)
(7.40649 -1.2779 0)
(6.3901 -1.38914 0)
(5.49419 -1.36563 0)
(4.86017 -1.18329 0)
(4.50183 -0.901128 0)
(4.2818 -0.600926 0)
(4.2267 -0.308019 0)
(3.7765 -0.0946917 0)
(4.44094 0.0725531 0)
(4.98037 0.229858 0)
(5.0219 0.45697 0)
(5.14958 0.697897 0)
(5.37009 0.946133 0)
(5.72999 1.16691 0)
(6.34344 1.27896 0)
(7.09198 1.17767 0)
(7.84597 0.858996 0)
(8.43115 0.321826 0)
(8.42906 -0.307278 0)
(7.83535 -0.845381 0)
(7.08427 -1.16542 0)
(6.33547 -1.26893 0)
(5.72157 -1.1589 0)
(5.36135 -0.939702 0)
(5.14096 -0.693128 0)
(5.01292 -0.453424 0)
(4.9735 -0.227534 0)
(4.43411 -0.0717268 0)
(4.91278 0.049973 0)
(5.53911 0.162607 0)
(5.57828 0.327171 0)
(5.65687 0.504612 0)
(5.79636 0.69593 0)
(6.02759 0.87858 0)
(6.39252 1.00021 0)
(6.871 0.967042 0)
(7.39603 0.743944 0)
(7.82974 0.294015 0)
(7.8275 -0.274667 0)
(7.39586 -0.72623 0)
(6.86082 -0.95212 0)
(6.38102 -0.987223 0)
(6.0156 -0.868096 0)
(5.78421 -0.688045 0)
(5.6447 -0.499068 0)
(5.56714 -0.323913 0)
(5.52302 -0.161671 0)
(4.89549 -0.0497191 0)
(5.23524 0.0322891 0)
(5.9379 0.110625 0)
(5.97581 0.224641 0)
(6.02663 0.349066 0)
(6.11778 0.485642 0)
(6.26835 0.619557 0)
(6.5028 0.720459 0)
(6.82025 0.724409 0)
(7.20484 0.58346 0)
(7.49996 0.240911 0)
(7.49558 -0.218165 0)
(7.18511 -0.562609 0)
(6.80767 -0.706794 0)
(6.48773 -0.704824 0)
(6.25165 -0.607377 0)
(6.09977 -0.476365 0)
(6.00778 -0.342552 0)
(5.95451 -0.22045 0)
(5.92334 -0.107536 0)
(5.22308 -0.0305748 0)
(5.44547 0.0201094 0)
(6.20995 0.0732018 0)
(6.24599 0.149714 0)
(6.27932 0.233743 0)
(6.33942 0.326402 0)
(6.43812 0.418266 0)
(6.58891 0.489494 0)
(6.79873 0.507497 0)
(7.04308 0.417882 0)
(7.26078 0.177019 0)
(7.25763 -0.150929 0)
(7.03997 -0.391009 0)
(6.78083 -0.480272 0)
(6.56898 -0.469376 0)
(6.4158 -0.4019 0)
(6.31612 -0.314006 0)
(6.25529 -0.224122 0)
(6.22448 -0.141906 0)
(6.18191 -0.0692436 0)
(5.41051 -0.0196363 0)
(5.57931 0.0124459 0)
(6.3904 0.0479738 0)
(6.42434 0.0986276 0)
(6.44597 0.154497 0)
(6.48483 0.215809 0)
(6.54822 0.276821 0)
(6.64498 0.325969 0)
(6.77379 0.334536 0)
(6.93799 0.285415 0)
(7.06943 0.130455 0)
(7.06289 -0.0925315 0)
(6.91972 -0.253065 0)
(6.75222 -0.310127 0)
(6.61664 -0.301361 0)
(6.51837 -0.257879 0)
(6.45378 -0.20199 0)
(6.41448 -0.1457 0)
(6.38964 -0.095083 0)
(6.35382 -0.0471358 0)
(5.55019 -0.0117416 0)
(5.6651 0.00789286 0)
(6.50942 0.0316792 0)
(6.54155 0.0652367 0)
(6.5553 0.102515 0)
(6.57973 0.143266 0)
(6.61891 0.183056 0)
(6.67761 0.217846 0)
(6.75591 0.22835 0)
(6.86299 0.197179 0)
(6.93718 0.0960391 0)
(6.93036 -0.0506587 0)
(6.83886 -0.155107 0)
(6.73215 -0.193037 0)
(6.645 -0.187858 0)
(6.58106 -0.161421 0)
(6.53723 -0.125989 0)
(6.50922 -0.0890744 0)
(6.49357 -0.0559172 0)
(6.47086 -0.0258094 0)
(5.62643 -0.00483793 0)
(5.72222 0.00535017 0)
(6.58921 0.0217541 0)
(6.62012 0.0445823 0)
(6.62879 0.070301 0)
(6.6441 0.0989835 0)
(6.66863 0.127023 0)
(6.70529 0.151134 0)
(6.7631 0.172551 0)
(6.80269 0.138695 0)
(6.86191 0.0655842 0)
(6.84962 -0.0185851 0)
(6.78978 -0.0877043 0)
(6.71938 -0.113026 0)
(6.66164 -0.110835 0)
(6.61974 -0.0953293 0)
(6.59219 -0.0740167 0)
(6.5749 -0.0503106 0)
(6.5676 -0.0272285 0)
(6.53633 -0.00955859 0)
(5.6534 0.000173053 0)
(5.76255 0.00382172 0)
(6.64506 0.0155482 0)
(6.67529 0.0315379 0)
(6.681 0.0494871 0)
(6.69098 0.0700419 0)
(6.70675 0.0909627 0)
(6.73016 0.105846 0)
(6.76049 0.12083 0)
(6.76845 0.0998607 0)
(6.82057 0.0579238 0)
(6.80193 0.00864497 0)
(6.75835 -0.0400773 0)
(6.7095 -0.0572935 0)
(6.67055 -0.0585214 0)
(6.64272 -0.0499383 0)
(6.62577 -0.0379813 0)
(6.61758 -0.0256387 0)
(6.61162 -0.0145508 0)
(6.55971 -0.0037226 0)
(5.66377 -0.00328118 0)
(5.79231 0.00288841 0)
(6.6854 0.0114755 0)
(6.7151 0.0230393 0)
(6.71865 0.0358785 0)
(6.72438 0.0497356 0)
(6.73447 0.065902 0)
(6.74821 0.0778471 0)
(6.75225 0.0776264 0)
(6.76385 0.0859585 0)
(6.78186 0.0767907 0)
(6.77172 0.0303009 0)
(6.73504 -0.0036478 0)
(6.69973 -0.0180789 0)
(6.67306 -0.0239513 0)
(6.65413 -0.0233582 0)
(6.63979 -0.0189156 0)
(6.63169 -0.0161566 0)
(6.6233 -0.0135446 0)
(6.57014 -0.013315 0)
(5.68271 -0.0070606 0)
(5.81582 0.0026653 0)
(6.71548 0.00973076 0)
(6.74452 0.0189898 0)
(6.7461 0.0296447 0)
(6.74806 0.0403913 0)
(6.75324 0.052472 0)
(6.7601 0.0660668 0)
(6.75482 0.0588165 0)
(6.7824 0.0858159 0)
(6.75612 0.0968131 0)
(6.74651 0.0488863 0)
(6.71392 0.0258909 0)
(6.68655 0.0102994 0)
(6.66578 2.34712e-05 0)
(6.65137 -0.00736848 0)
(6.63905 -0.0101633 0)
(6.63043 -0.0139071 0)
(6.61877 -0.0145353 0)
(6.59047 -0.0175648 0)
(5.74014 -0.00459618 0)
(5.83861 0.00299298 0)
(6.74164 0.00997665 0)
(6.77008 0.0188196 0)
(6.77004 0.0292134 0)
(6.76928 0.0406714 0)
(6.76768 0.0511353 0)
(6.76813 0.0665641 0)
(6.75881 0.0601056 0)
(6.81048 0.0910845 0)
(6.74282 0.104217 0)
(6.72378 0.0666112 0)
(6.69424 0.0512843 0)
(6.66988 0.0347126 0)
(6.65004 0.02225 0)
(6.63534 0.0125076 0)
(6.62694 0.00347721 0)
(6.62071 -0.00237715 0)
(6.61153 -0.00856232 0)
(6.61037 -0.00578983 0)
(5.76111 2.22751e-05 0)
(5.86453 0.00372743 0)
(6.76939 0.0117162 0)
(6.79743 0.0213843 0)
(6.79631 0.0328001 0)
(6.79365 0.0459839 0)
(6.78829 0.0592215 0)
(6.77853 0.0748074 0)
(6.77417 0.0823195 0)
(6.82361 0.100512 0)
(6.7386 0.109147 0)
(6.70669 0.0869602 0)
(6.6774 0.0753813 0)
(6.65266 0.0590033 0)
(6.6327 0.0459613 0)
(6.61782 0.0351959 0)
(6.60778 0.0257634 0)
(6.60095 0.0188866 0)
(6.60197 0.0103391 0)
(6.61032 0.0088245 0)
(5.75553 0.00306835 0)
(5.89788 0.00434789 0)
(6.8028 0.0136379 0)
(6.83041 0.0253744 0)
(6.82834 0.0388579 0)
(6.82405 0.0546827 0)
(6.81638 0.0718389 0)
(6.80377 0.0915559 0)
(6.80019 0.113449 0)
(6.82826 0.118505 0)
(6.73903 0.11824 0)
(6.69698 0.113756 0)
(6.66371 0.101031 0)
(6.63617 0.0840207 0)
(6.61571 0.0685286 0)
(6.60143 0.0546012 0)
(6.59206 0.0423959 0)
(6.58508 0.0333082 0)
(6.5895 0.0255033 0)
(6.59283 0.0180203 0)
(5.7171 0.00702312 0)
(5.93501 0.00591048 0)
(6.84283 0.017891 0)
(6.87004 0.0316609 0)
(6.86702 0.0484646 0)
(6.86097 0.0675427 0)
(6.85077 0.0889598 0)
(6.83515 0.112993 0)
(6.82208 0.140322 0)
(6.82408 0.146786 0)
(6.7408 0.140871 0)
(6.68981 0.147797 0)
(6.64763 0.131314 0)
(6.61497 0.111754 0)
(6.59203 0.0918172 0)
(6.57662 0.073313 0)
(6.56705 0.0569042 0)
(6.56161 0.0438023 0)
(6.56429 0.0334738 0)
(6.54875 0.022091 0)
(5.65575 0.00764159 0)
(5.99105 0.0066845 0)
(6.89354 0.0204263 0)
(6.91999 0.0392295 0)
(6.91549 0.0598073 0)
(6.90719 0.0843208 0)
(6.89361 0.111559 0)
(6.87302 0.14099 0)
(6.84804 0.17265 0)
(6.8245 0.185391 0)
(6.74519 0.187261 0)
(6.68315 0.190159 0)
(6.62953 0.169715 0)
(6.59007 0.145082 0)
(6.56274 0.119079 0)
(6.54457 0.0946584 0)
(6.53344 0.0727148 0)
(6.52772 0.0538473 0)
(6.5267 0.0383727 0)
(6.49954 0.0225891 0)
(5.60169 0.00759392 0)
(6.04434 0.00973859 0)
(6.95729 0.0304052 0)
(6.98285 0.0514299 0)
(6.97638 0.0790376 0)
(6.96482 0.109222 0)
(6.94608 0.143333 0)
(6.91782 0.179404 0)
(6.8794 0.215972 0)
(6.83264 0.236598 0)
(6.74722 0.244591 0)
(6.66901 0.241989 0)
(6.60196 0.216578 0)
(6.55371 0.185004 0)
(6.52038 0.15162 0)
(6.49838 0.120023 0)
(6.48487 0.0914431 0)
(6.47765 0.0664449 0)
(6.47388 0.0443677 0)
(6.43964 0.0255759 0)
(5.53991 0.00743176 0)
(6.14777 0.0126783 0)
(7.04241 0.0326511 0)
(7.06649 0.0668454 0)
(7.05692 0.100004 0)
(7.04005 0.140593 0)
(7.0135 0.184971 0)
(6.97417 0.230759 0)
(6.91999 0.274626 0)
(6.85095 0.303626 0)
(6.75186 0.315712 0)
(6.65474 0.307305 0)
(6.57317 0.275017 0)
(6.5145 0.234514 0)
(6.47359 0.191826 0)
(6.4461 0.151054 0)
(6.42853 0.113901 0)
(6.41795 0.0810215 0)
(6.4112 0.0536929 0)
(6.3735 0.0272703 0)
(5.47841 0.0101626 0)
(6.24199 0.0155212 0)
(7.15346 0.0581466 0)
(7.17404 0.0907266 0)
(7.15896 0.139402 0)
(7.13429 0.19128 0)
(7.09563 0.247463 0)
(7.04001 0.304 0)
(6.96528 0.355297 0)
(6.87109 0.390244 0)
(6.7508 0.402714 0)
(6.62993 0.386871 0)
(6.52984 0.345528 0)
(6.45768 0.294701 0)
(6.40675 0.241885 0)
(6.37191 0.191487 0)
(6.34923 0.145809 0)
(6.33553 0.10531 0)
(6.32651 0.0691517 0)
(6.28505 0.0427629 0)
(5.39475 0.0107231 0)
(6.43325 0.0288837 0)
(7.30794 0.0585652 0)
(7.32414 0.128575 0)
(7.2985 0.191633 0)
(7.25755 0.261929 0)
(7.19799 0.335163 0)
(7.11841 0.403916 0)
(7.01684 0.462148 0)
(6.89349 0.500137 0)
(6.74673 0.509514 0)
(6.60092 0.484151 0)
(6.48199 0.431588 0)
(6.39541 0.368912 0)
(6.33316 0.304147 0)
(6.28926 0.241463 0)
(6.25907 0.182802 0)
(6.23925 0.130461 0)
(6.22592 0.0841777 0)
(6.17698 0.0380771 0)
(5.27854 0.0174594 0)
(6.62185 0.0398271 0)
(7.52669 0.13344 0)
(7.51928 0.201647 0)
(7.47346 0.28418 0)
(7.40462 0.376588 0)
(7.31632 0.46358 0)
(7.20584 0.540195 0)
(7.07202 0.601472 0)
(6.91613 0.637312 0)
(6.73901 0.638649 0)
(6.56499 0.600642 0)
(6.42372 0.534701 0)
(6.31973 0.459216 0)
(6.24298 0.382702 0)
(6.18668 0.309494 0)
(6.14583 0.241453 0)
(6.11655 0.178327 0)
(6.09599 0.124617 0)
(6.04814 0.0791794 0)
(5.17969 0.0193361 0)
(7.19651 0.107855 0)
(7.78587 0.18937 0)
(7.77388 0.315793 0)
(7.68009 0.450983 0)
(7.5725 0.562249 4.15756e-33)
(7.44481 0.652323 -2.51234e-33)
(7.29333 0.730046 0)
(7.11959 0.785426 0)
(6.92589 0.809963 0)
(6.71424 0.795539 0)
(6.51067 0.739357 0)
(6.34699 0.657008 0)
(6.22551 0.568138 0)
(6.13409 0.480011 0)
(6.06506 0.39549 0)
(6.01319 0.316168 0)
(5.9742 0.241297 0)
(5.94091 0.163124 0)
(5.85716 0.0905698 0)
(4.89172 0.0458939 0)
(7.59124 0.2814 -2.66356e-19)
(8.18883 0.360715 2.38576e-19)
(8.046 0.593462 0)
(7.90064 0.731034 9.00277e-20)
(7.74814 0.818447 -7.25217e-20)
(7.57271 0.904583 2.66447e-33)
(7.37581 0.973239 0)
(7.16039 1.01409 2.20672e-19)
(6.92798 1.02155 -7.77668e-19)
(6.68006 0.988206 1.68847e-19)
(6.44514 0.913523 0)
(6.25555 0.816527 -5.32537e-19)
(6.11106 0.716471 -6.6536e-19)
(5.99801 0.619066 1.17084e-18)
(5.90751 0.526608 -9.40697e-19)
(5.83354 0.440525 0)
(5.77204 0.364667 -3.63267e-19)
(5.71734 0.302104 0)
(5.61112 0.200539 -2.03456e-18)
(4.645 0.153945 2.18341e-18)
(7.86337 0.635726 -1.23587e-19)
(8.47282 0.853487 -1.93472e-18)
(8.28907 0.998515 5.21761e-19)
(8.10518 1.0533 5.45886e-19)
(7.90217 1.12886 -1.36433e-19)
(7.67697 1.2052 2.61805e-19)
(7.4365 1.25802 0)
(7.18174 1.28201 0)
(6.91142 1.27357 1.23519e-18)
(6.62581 1.22468 0)
(6.35433 1.13661 1.86417e-18)
(6.1318 1.03138 5.79752e-19)
(5.95826 0.928493 2.07153e-20)
(5.81831 0.833364 -1.32688e-18)
(5.70218 0.748329 0)
(5.60373 0.673538 0)
(5.51918 0.606807 -6.25465e-18)
(5.44519 0.556845 1.58656e-17)
(5.35151 0.535068 -9.43249e-18)
(4.5052 0.355017 -1.02019e-17)
(7.9877 1.01129 2.49567e-18)
(8.64529 1.44515 -8.72468e-19)
(8.47353 1.45298 -2.14622e-19)
(8.26079 1.44716 -1.00251e-18)
(8.01216 1.5011 5.78479e-19)
(7.74425 1.54918 -5.38447e-19)
(7.46767 1.57202 3.43726e-19)
(7.17813 1.57161 0)
(6.87373 1.54279 -2.57739e-18)
(6.555 1.47589 2.75183e-18)
(6.25232 1.37404 -5.0894e-18)
(6.00365 1.26163 2.46699e-18)
(5.80966 1.15786 -1.79749e-18)
(5.65359 1.06669 3.95015e-18)
(5.52531 0.988914 0)
(5.41855 0.923967 -1.5391e-18)
(5.32891 0.867192 0)
(5.25367 0.7977 8.97339e-18)
(5.16654 0.836263 -2.14301e-17)
(4.42432 0.567892 1.19326e-17)
(8.04139 1.36244 -1.07932e-17)
(8.69885 1.99988 5.96755e-18)
(8.57264 1.87132 8.46414e-19)
(8.33565 1.87215 0)
(8.05906 1.9087 3.94205e-19)
(7.77064 1.91768 -3.64532e-19)
(7.47275 1.90383 -4.07031e-19)
(7.15707 1.87571 0)
(6.82619 1.82279 1.82377e-18)
(6.4817 1.73502 -1.89598e-18)
(6.15562 1.61762 4.42566e-18)
(5.88905 1.49667 0)
(5.68307 1.39008 -3.75741e-18)
(5.51964 1.29944 2.08555e-18)
(5.38776 1.22374 5.60427e-18)
(5.28013 1.16228 -4.9184e-18)
(5.19026 1.11544 8.19111e-18)
(5.12164 1.02913 -1.82686e-17)
(5.03068 1.09307 1.16607e-17)
(4.34891 0.778545 -1.30982e-17)
(8.06501 1.7083 6.42331e-18)
(8.69131 2.50425 -6.50991e-18)
(8.60271 2.25283 2.50118e-18)
(8.33479 2.29562 -3.39944e-18)
(8.04683 2.30821 2.06595e-18)
(7.75949 2.27822 -2.31181e-19)
(7.45061 2.2356 1.13904e-19)
(7.11772 2.18243 -1.41859e-18)
(6.76848 2.10481 -1.85027e-18)
(6.40468 1.99506 -4.05298e-18)
(6.06076 1.86056 -9.5212e-18)
(5.7812 1.72904 -3.14824e-18)
(5.56735 1.617 1.19387e-19)
(5.39967 1.52379 -7.35163e-18)
(5.26598 1.44704 -2.54838e-19)
(5.15794 1.3855 7.16363e-18)
(5.06757 1.34429 -2.21645e-18)
(5.00431 1.25013 -1.31979e-18)
(4.90874 1.32119 0)
(4.26885 0.974359 2.77939e-17)
(8.06877 2.04238 0)
(8.63018 2.96334 1.72019e-18)
(8.58973 2.60975 0)
(8.27642 2.70444 -4.67998e-19)
(8.00116 2.6792 -2.45247e-18)
(7.72027 2.61653 3.02532e-19)
(7.40183 2.55625 3.44655e-19)
(7.0582 2.48123 2.47897e-18)
(6.69666 2.38059 -1.09791e-18)
(6.31859 2.24956 1.8294e-18)
(5.96116 2.0974 5.12085e-18)
(5.672 1.95384 6.95095e-18)
(5.45259 1.8344 -4.3029e-18)
(5.2821 1.7366 7.94658e-18)
(5.14733 1.65687 -6.36895e-18)
(5.03932 1.59288 0)
(4.94801 1.55529 -1.70112e-17)
(4.8912 1.45331 2.28604e-17)
(4.78986 1.52908 1.74181e-18)
(4.18707 1.15393 -2.95736e-17)
(8.05988 2.351 -8.62186e-19)
(8.54829 3.41227 -5.3136e-18)
(8.55962 2.94579 -1.34679e-17)
(8.19395 3.10071 7.06934e-18)
(7.94632 3.01512 -1.24413e-18)
(7.66128 2.93639 5.45413e-19)
(7.33305 2.86225 3.7287e-19)
(6.98289 2.76664 -4.19434e-19)
(6.61287 2.64539 -4.0374e-18)
(6.22452 2.49469 1.96652e-20)
(5.85718 2.32523 -5.54939e-18)
(5.561 2.16893 -7.36874e-18)
(5.33775 2.04083 4.83057e-18)
(5.1656 1.93698 -2.85145e-18)
(5.0306 1.85295 6.90495e-18)
(4.92338 1.78503 0)
(4.83184 1.74685 -1.04969e-17)
(4.78099 1.64336 1.5526e-17)
(4.67457 1.71219 3.03397e-17)
(4.09944 1.32511 -3.17684e-17)
(8.04152 2.6121 -2.1761e-17)
(8.45091 3.83341 1.1976e-17)
(8.49409 3.26728 8.49172e-18)
(8.09825 3.47656 -7.47112e-18)
(7.88265 3.32584 4.11114e-19)
(7.5864 3.2424 1.53603e-18)
(7.25207 3.15324 -4.83869e-19)
(6.89834 3.03802 -1.00779e-18)
(6.52219 2.89834 -2.48875e-18)
(6.12619 2.72944 4.14355e-18)
(5.75112 2.54325 5.32157e-18)
(5.44934 2.3738 1.15794e-17)
(5.22315 2.23605 0)
(5.05004 2.12496 2.04933e-19)
(4.91539 2.03552 -1.91097e-17)
(4.80935 1.9632 4.37627e-18)
(4.71874 1.92051 2.24144e-17)
(4.67105 1.81983 -6.53314e-18)
(4.56422 1.87681 1.46167e-17)
(4.00554 1.4809 -7.75189e-19)
(7.99886 2.86439 1.24812e-18)
(8.35322 4.22463 1.10901e-17)
(8.42676 3.56745 6.22288e-18)
(8.00867 3.8214 -1.29049e-17)
(7.81087 3.61404 7.72702e-18)
(7.50017 3.53316 -1.94082e-18)
(7.16417 3.42834 4.35151e-19)
(6.80828 3.29511 2.52445e-18)
(6.42733 3.13868 4.51795e-18)
(6.02529 2.95295 -5.21578e-18)
(5.6437 2.75089 0)
(5.33699 2.56827 -4.52168e-18)
(5.10822 2.42016 5.18723e-18)
(4.93444 2.30079 6.93311e-18)
(4.80046 2.20486 -3.96803e-18)
(4.69588 2.1276 -1.00392e-17)
(4.60684 2.07954 -3.04209e-18)
(4.56187 1.97842 -3.44022e-20)
(4.45581 2.02964 0)
(3.90989 1.61505 0)
(7.92701 3.15668 -1.23907e-17)
(8.26685 4.56275 0)
(8.31295 3.87089 7.0154e-18)
(7.90979 4.14165 -3.40259e-18)
(7.72543 3.88965 -7.74998e-18)
(7.40526 3.80713 2.20034e-18)
(7.071 3.68551 3.60497e-19)
(6.71387 3.53702 -1.47725e-18)
(6.32985 3.36616 3.14673e-18)
(5.92331 3.16551 -2.03786e-18)
(5.53606 2.94869 3.00805e-18)
(5.22448 2.75301 1.40815e-17)
(4.99288 2.59389 5.07123e-19)
(4.81824 2.46522 -7.0573e-18)
(4.68492 2.3616 1.35987e-17)
(4.58191 2.27836 1.80475e-19)
(4.49446 2.22497 3.2555e-18)
(4.45361 2.11945 -1.5931e-17)
(4.3455 2.17036 1.64516e-17)
(3.81576 1.72959 -1.65341e-17)
(7.8484 3.41926 2.40557e-21)
(8.16492 4.84416 0)
(8.22054 4.13901 0)
(7.81143 4.41795 2.75155e-18)
(7.63162 4.14637 3.08766e-18)
(7.30676 4.06318 -1.47343e-18)
(6.97587 3.92726 1.88997e-19)
(6.6181 3.76568 0)
(6.23185 3.58143 -4.91334e-18)
(5.82141 3.36687 7.63802e-18)
(5.42868 3.13636 8.97854e-18)
(5.11186 2.92815 -5.282e-18)
(4.87675 2.75783 -6.58019e-18)
(4.70062 2.61906 1.55198e-17)
(4.56762 2.5067 -4.80345e-18)
(4.46612 2.4164 -5.83701e-18)
(4.38044 2.35703 -3.55608e-18)
(4.34499 2.2462 -1.72179e-17)
(4.23295 2.29688 2.24206e-18)
(3.72137 1.83008 1.74893e-17)
(7.75094 3.66976 -4.94808e-18)
(8.06648 5.12084 -6.46574e-18)
(8.10356 4.41223 8.71233e-19)
(7.71222 4.68078 2.02776e-19)
(7.53412 4.38786 7.54689e-19)
(7.20657 4.30056 -4.18299e-18)
(6.87793 4.151 0)
(6.51985 3.9779 1.09621e-18)
(6.13286 3.78226 -8.6267e-19)
(5.72008 3.55654 1.23813e-17)
(5.32279 3.31481 -2.22686e-18)
(5.00041 3.0954 2.44954e-18)
(4.76069 2.91392 0)
(4.58188 2.76416 -8.46095e-18)
(4.44832 2.64158 1.049e-17)
(4.3479 2.54244 0)
(4.26398 2.47513 -7.83996e-18)
(4.23394 2.359 2.28603e-17)
(4.11707 2.4056 2.78405e-18)
(3.6255 1.91924 -2.15759e-17)
(7.647 3.90819 -1.01554e-17)
(7.96321 5.35215 1.21801e-17)
(8.005 4.65704 0)
(7.61101 4.91403 6.72544e-18)
(7.43318 4.61684 0)
(7.10714 4.5217 3.67351e-18)
(6.78145 4.36076 0)
(6.42439 4.17839 0)
(6.03736 3.97304 -1.66587e-18)
(5.6223 3.73726 -1.19594e-17)
(5.21985 3.48514 -1.66907e-17)
(4.89064 3.25524 3.03093e-18)
(4.64464 3.06295 1.11966e-17)
(4.46128 2.90175 9.44846e-18)
(4.32559 2.76792 -3.35793e-17)
(4.22534 2.65886 -1.39499e-17)
(4.14377 2.58159 8.06964e-18)
(4.11823 2.46273 0)
(4.00035 2.50108 2.42398e-17)
(3.53097 1.99595 -2.2934e-17)
(7.5372 4.09924 1.11719e-17)
(7.85269 5.58681 -1.3293e-17)
(7.90309 4.89308 0)
(7.50954 5.13511 -3.50878e-19)
(7.33457 4.82929 -2.68797e-18)
(7.00905 4.72748 0)
(6.68497 4.55628 4.45641e-20)
(6.3284 4.36423 1.08847e-18)
(5.94149 4.14921 -2.62555e-18)
(5.52522 3.90486 1.35927e-18)
(5.11894 3.64532 0)
(4.78311 3.40792 1.2123e-17)
(4.52971 3.20671 3.98642e-20)
(4.3399 3.03441 5.1024e-18)
(4.20015 2.88772 6.19625e-18)
(4.0989 2.76568 0)
(4.01937 2.67476 -1.37234e-17)
(3.99623 2.55081 2.68963e-17)
(3.87545 2.57614 -2.94857e-17)
(3.43349 2.06342 4.93851e-17)
(7.42606 4.32863 0)
(7.75859 5.77996 0)
(7.79525 5.10891 -6.74533e-18)
(7.41069 5.33577 0)
(7.23479 5.02798 0)
(6.91078 4.91733 5.13323e-18)
(6.58978 4.73685 -4.31153e-21)
(6.23572 4.53723 5.68718e-19)
(5.85096 4.31532 -4.44691e-19)
(5.43465 4.06521 0)
(5.02437 3.80042 -2.62436e-18)
(4.68055 3.55691 -1.00078e-17)
(4.41756 3.34776 -1.24298e-17)
(4.21812 3.16487 -5.11962e-18)
(4.07043 3.00493 6.75515e-18)
(3.96437 2.86851 -1.60357e-17)
(3.88569 2.76275 2.96144e-17)
(3.86205 2.6368 5.13467e-19)
(3.7502 2.63985 -2.81404e-17)
(3.32648 2.11867 -3.3634e-18)
(7.32415 4.47043 0)
(7.63396 5.99601 -9.54852e-18)
(7.705 5.32234 7.59275e-18)
(7.31253 5.52632 0)
(7.13748 5.21524 0)
(6.81798 5.09537 -1.13007e-17)
(6.4993 4.90693 0)
(6.14698 4.69993 0)
(5.7629 4.47064 -5.61498e-18)
(5.34556 4.21417 2.28043e-18)
(4.93156 3.94478 -2.18459e-17)
(4.58034 3.69754 0)
(4.3072 3.48362 -1.32632e-17)
(4.0964 3.29312 4.43543e-19)
(3.93833 3.12085 -2.12016e-17)
(3.82531 2.96594 8.69325e-18)
(3.74563 2.83877 2.30409e-19)
(3.7203 2.70056 -3.208e-17)
(3.61407 2.6707 1.53483e-17)
(3.21371 2.16015 3.56077e-18)
(7.1981 4.67721 0)
(7.54726 6.15232 -1.10608e-17)
(7.60286 5.50159 7.9327e-18)
(7.21326 5.6993 1.47499e-17)
(7.04257 5.38744 2.72096e-18)
(6.72471 5.25877 -1.44934e-18)
(6.4079 5.06262 9.16407e-19)
(6.05792 4.84841 1.92597e-18)
(5.67655 4.61302 6.01576e-18)
(5.26132 4.35282 1.58288e-17)
(4.84626 4.08269 1.81613e-17)
(4.48848 3.83568 3.34154e-18)
(4.20419 3.62015 1.92804e-17)
(3.97897 3.42451 1.22536e-17)
(3.80447 3.24305 1.52916e-17)
(3.67491 3.07387 -9.52074e-18)
(3.58224 2.92384 -1.17616e-17)
(3.53856 2.77352 1.38755e-17)
(3.4481 2.7169 -8.57035e-18)
(3.08702 2.1764 1.16119e-17)
(7.12917 4.79458 1.73282e-17)
(7.42355 6.32915 1.75778e-17)
(7.5048 5.68231 4.21003e-18)
(7.11579 5.85905 2.81413e-19)
(6.94766 5.54617 -9.74228e-18)
(6.63369 5.41007 3.3285e-18)
(6.32152 5.20801 -1.0437e-18)
(5.97593 4.98845 -3.569e-19)
(5.59818 4.74834 -6.92629e-18)
(5.18423 4.48503 -1.74221e-17)
(4.76641 4.21428 1.1777e-18)
(4.40097 3.96828 0)
(4.10438 3.75341 0)
(3.86326 3.55681 -6.27856e-18)
(3.67118 3.3705 -2.44287e-17)
(3.52406 3.18707 2.04455e-17)
(3.42114 3.00908 1.26752e-17)
(3.38326 2.82511 0)
(3.29539 2.72874 2.79014e-17)
(2.93554 2.168 -1.28766e-17)
(7.00044 4.96758 -8.64756e-18)
(7.32806 6.48371 7.20772e-18)
(7.4151 5.84084 -9.49852e-18)
(7.0233 6.00764 -9.3219e-18)
(6.85806 5.6946 -3.82827e-18)
(6.54908 5.55085 9.8067e-19)
(6.23987 5.34296 0)
(5.89665 5.11756 -2.38578e-18)
(5.52036 4.87208 7.11543e-19)
(5.10705 4.60536 0)
(4.68861 4.33506 0)
(4.31915 4.09305 2.22153e-18)
(4.0133 3.88264 3.212e-18)
(3.757 3.6877 -6.65368e-18)
(3.54327 3.50125 1.76234e-17)
(3.36687 3.31837 -2.19733e-17)
(3.21872 3.13261 -2.75078e-17)
(3.1108 2.92877 2.4908e-17)
(3.01082 2.7402 -1.03705e-17)
(2.76596 2.13056 5.26274e-18)
(6.93818 5.08931 1.02423e-17)
(7.2362 6.62628 0)
(7.33322 5.99818 0)
(6.93878 6.15049 -2.98613e-18)
(6.77548 5.83396 2.40819e-18)
(6.46705 5.68192 -2.92608e-19)
(6.15923 5.46771 -3.09762e-18)
(5.81834 5.23656 1.60875e-18)
(5.44552 4.98659 1.20769e-17)
(5.03652 4.71802 -1.36696e-18)
(4.62063 4.45019 2.98478e-18)
(4.24811 4.21461 -1.8802e-17)
(3.93172 4.01275 -1.94447e-17)
(3.65768 3.8276 -3.47778e-18)
(3.42024 3.65055 0)
(3.21568 3.47474 -3.81125e-19)
(3.04708 3.27699 1.41196e-17)
(2.92906 3.04147 -2.7143e-17)
(2.79113 2.85413 2.07521e-17)
(2.55365 2.14405 1.7778e-17)
(6.84386 5.20764 -2.20131e-17)
(7.13941 6.77148 -8.08243e-18)
(7.24465 6.13989 2.84594e-19)
(6.8449 6.27879 4.03572e-18)
(6.68423 5.95969 0)
(6.38101 5.80128 9.18101e-18)
(6.0779 5.58284 3.53035e-18)
(5.7424 5.34814 -5.38097e-19)
(5.37518 5.09577 -6.11058e-18)
(4.97008 4.82674 -1.32203e-18)
(4.55453 4.56208 1.22343e-18)
(4.17806 4.33409 1.64344e-17)
(3.85327 4.14228 1.8887e-17)
(3.56611 3.96497 3.30724e-18)
(3.311 3.79048 1.74885e-17)
(3.08274 3.62488 0)
(2.8591 3.48028 0)
(2.60101 3.32073 1.76092e-17)
(2.18597 3.03829 2.20735e-19)
(1.39875 2.28364 -1.71333e-17)
(6.74727 5.31556 1.18515e-17)
(7.01035 6.84386 2.42986e-17)
(7.13422 6.24181 -3.5796e-17)
(6.74261 6.38344 1.9782e-17)
(6.59718 6.0748 -2.03661e-18)
(6.3022 5.9155 1.19315e-17)
(6.00379 5.69592 0)
(5.67196 5.45897 -8.62577e-19)
(5.30647 5.20395 0)
(4.90156 4.93319 1.71333e-17)
(4.48621 4.67132 -1.64632e-18)
(4.10877 4.45259 1.841e-18)
(3.77774 4.27581 2.11639e-17)
(3.47542 4.12147 -7.25239e-18)
(3.19081 3.97916 -9.25276e-18)
(2.91181 3.84507 0)
(2.63798 3.72 0)
(2.37398 3.57401 0)
(2.06589 3.26528 -1.03362e-17)
(1.38258 2.64077 -5.86234e-18)
(6.6893 5.44235 0)
(6.94364 7.00876 0)
(7.08007 6.38325 1.28935e-17)
(6.67933 6.50807 -1.63125e-17)
(6.53316 6.19622 1.03823e-17)
(6.23084 6.02923 -1.08021e-17)
(5.93047 5.80443 -2.83872e-19)
(5.59787 5.56242 2.19834e-19)
(5.23337 5.30373 1.02874e-18)
(4.83261 5.03306 -1.96239e-17)
(4.42328 4.77766 2.83984e-18)
(4.0492 4.57193 1.61572e-17)
(3.71654 4.41345 -2.10221e-17)
(3.409 4.27826 -2.35802e-17)
(3.1273 4.14985 8.1967e-18)
(2.88497 4.03054 0)
(2.66786 3.94488 1.29276e-17)
(2.43656 3.86448 1.59783e-17)
(2.01285 3.54264 -1.81796e-17)
(1.29511 3.03927 2.41644e-17)
(6.64896 5.55082 0)
(6.89769 7.13557 1.93182e-17)
(7.03347 6.53083 -3.16693e-18)
(6.6156 6.63756 2.01468e-17)
(6.45116 6.30635 -1.09102e-17)
(6.14992 6.13167 0)
(5.85272 5.90307 0)
(5.52461 5.65979 0)
(5.16697 5.40246 4.33394e-18)
(4.77351 5.13571 7.65342e-19)
(4.36907 4.8869 0)
(3.99658 4.69215 -1.59825e-17)
(3.66289 4.5513 0)
(3.35059 4.44325 1.68001e-17)
(3.04997 4.3556 -1.15236e-17)
(2.75498 4.27755 -9.38602e-18)
(2.50673 4.17569 -2.46454e-17)
(2.24606 3.99204 -1.46152e-17)
(1.72572 3.63434 -2.42766e-17)
(1.20714 3.34096 1.99251e-17)
(6.5242 5.6412 -4.72394e-18)
(6.75789 7.19909 7.47853e-20)
(6.90076 6.59118 -3.24241e-18)
(6.49057 6.70339 -1.55287e-17)
(6.35702 6.39242 0)
(6.07466 6.22563 0)
(5.78272 5.99994 0)
(5.45957 5.75793 1.73634e-19)
(5.1058 5.50105 -5.57693e-18)
(4.71466 5.23445 0)
(4.31259 4.98891 0)
(3.94362 4.80492 0)
(3.61281 4.68388 0)
(3.30052 4.60199 1.23799e-17)
(3.01359 4.53288 3.15826e-17)
(2.7847 4.45363 1.00389e-17)
(2.56407 4.38692 2.36258e-17)
(2.27917 4.23246 -2.03778e-17)
(1.73249 3.90725 7.96108e-18)
(1.33345 3.77758 0)
(6.45618 5.71405 4.57683e-18)
(6.629 7.26433 -3.75492e-17)
(6.82005 6.67147 -1.0833e-17)
(6.41964 6.78715 -2.50228e-18)
(6.3052 6.4941 2.43207e-18)
(6.01045 6.32434 -1.56527e-17)
(5.71559 6.09693 9.57666e-19)
(5.39345 5.85248 1.21633e-18)
(5.04155 5.5939 0)
(4.6539 5.32787 -1.22508e-18)
(4.2582 5.08826 1.11536e-18)
(3.89804 4.91678 0)
(3.57893 4.81583 0)
(3.28069 4.76015 -1.54967e-17)
(2.98753 4.72894 2.75441e-18)
(2.67886 4.68997 -9.46315e-18)
(2.37474 4.62304 2.05944e-17)
(2.01342 4.47416 1.88173e-17)
(1.39016 4.25419 -3.40695e-17)
(1.15845 4.17211 1.84457e-17)
(6.43541 5.8353 1.27948e-17)
(6.62094 7.4395 3.30862e-17)
(6.82006 6.84125 1.28557e-17)
(6.38212 6.93145 0)
(6.23901 6.60668 0)
(5.93197 6.42363 1.17947e-17)
(5.64235 6.19241 -5.35674e-18)
(5.32353 5.9459 -1.27455e-18)
(4.97516 5.68643 8.36593e-20)
(4.59269 5.42156 1.45119e-17)
(4.2049 5.18699 -1.99127e-17)
(3.85468 5.02569 0)
(3.544 4.94119 0)
(3.2453 4.91294 -1.10372e-17)
(2.94822 4.90921 -1.44264e-17)
(2.69763 4.91368 0)
(2.4993 4.8227 -3.04984e-17)
(2.1491 4.75499 -5.5186e-18)
(1.62555 4.77095 3.29973e-17)
(1.40638 4.8258 -1.73556e-17)
(6.34851 5.92649 -2.4126e-17)
(6.54489 7.53137 -1.5807e-17)
(6.70683 6.93434 0)
(6.25984 7.02268 0)
(6.13176 6.6951 0)
(5.8477 6.51892 0)
(5.56436 6.28709 5.58043e-18)
(5.24753 6.03817 -2.21876e-18)
(4.90314 5.77656 0)
(4.52849 5.5124 -1.31165e-17)
(4.15238 5.28284 3.60712e-17)
(3.81752 5.13144 1.52154e-18)
(3.52688 5.06378 2.24153e-18)
(3.25728 5.06605 1.87009e-17)
(2.9958 5.10622 -1.243e-17)
(2.73823 5.12071 0)
(2.4361 5.16178 9.74474e-18)
(1.95533 5.22809 8.22124e-19)
(1.24029 5.28695 -4.86028e-18)
(0.870984 5.38528 1.05448e-17)
(6.22593 6.00334 1.08183e-17)
(6.37261 7.5767 -1.59106e-17)
(6.56253 6.9912 0)
(6.14421 7.09352 -3.50837e-18)
(6.05039 6.79089 1.3033e-17)
(5.76713 6.61894 0)
(5.47871 6.3825 0)
(5.16648 6.13077 4.0267e-18)
(4.83085 5.86889 -7.03841e-19)
(4.46725 5.60658 1.31741e-17)
(4.10342 5.38056 -1.72357e-17)
(3.78417 5.23638 1.09621e-17)
(3.51258 5.17726 0)
(3.26721 5.19972 -1.02353e-17)
(3.01149 5.25589 6.37835e-18)
(2.77334 5.32006 6.9636e-18)
(2.5664 5.3686 0)
(2.14795 5.52415 4.74648e-18)
(1.49324 6.07185 7.60142e-18)
(1.41602 6.44741 2.32872e-18)
(6.15217 6.13323 -2.01229e-17)
(6.28643 7.72276 2.33133e-17)
(6.50765 7.14325 1.66548e-17)
(6.07853 7.22983 -4.23027e-18)
(5.97198 6.90959 -1.96689e-17)
(5.67076 6.72248 0)
(5.38761 6.48096 4.97781e-18)
(5.0859 6.2275 -1.83583e-18)
(4.75866 5.96391 4.12001e-20)
(4.40273 5.69881 -1.14482e-17)
(4.05018 5.47163 -8.87507e-19)
(3.75011 5.3323 -1.23036e-17)
(3.5028 5.27788 1.49827e-17)
(3.28003 5.31587 4.65679e-18)
(3.06943 5.43699 -1.07871e-17)
(2.89104 5.5409 1.21068e-17)
(2.72673 5.6763 0)
(2.31273 6.21052 0)
(1.86188 7.10295 4.49109e-19)
(0.353668 7.21704 -3.67308e-18)
(6.07914 6.25267 1.02833e-17)
(6.21153 7.86659 2.16474e-17)
(6.40877 7.28456 -1.65934e-17)
(5.95949 7.35339 1.44337e-17)
(5.8537 7.0149 1.90924e-17)
(5.56494 6.82419 0)
(5.29714 6.58215 -5.23953e-18)
(5.00228 6.32444 -2.85269e-18)
(4.68044 6.05534 0)
(4.33396 5.78628 0)
(3.99794 5.55833 0)
(3.72153 5.42321 0)
(3.50714 5.3754 -1.70662e-17)
(3.34076 5.41987 -6.44871e-18)
(3.19042 5.56415 0)
(3.0769 5.70958 -5.97602e-18)
(3.02399 5.89488 0)
(2.9671 6.35083 -2.42011e-18)
(2.87692 6.66071 -3.18535e-18)
(1.58361 6.5986 4.37344e-18)
(5.94857 6.33847 -1.95504e-17)
(6.05003 7.94844 -1.36911e-17)
(6.24974 7.37329 -1.0282e-17)
(5.8169 7.44464 -1.34618e-17)
(5.74238 7.11927 -8.95262e-18)
(5.46641 6.93385 0)
(5.20221 6.68683 -9.12959e-19)
(4.91098 6.42205 3.95557e-19)
(4.59778 6.14793 -1.98064e-18)
(4.26477 5.87622 0)
(3.94682 5.64551 1.02856e-18)
(3.69321 5.50917 -1.16944e-18)
(3.50978 5.46024 0)
(3.37215 5.47625 7.96275e-18)