/*--------------------------------*- C++ -*----------------------------------*\
| =========                 |                                                 |
| \\      /  F ield         | OpenFOAM: The Open Source CFD Toolbox           |
|  \\    /   O peration     | Version:  2412                                  |
|   \\  /    A nd           | Website:  www.openfoam.com                      |
|    \\/     M anipulation  |                                                 |
\*---------------------------------------------------------------------------*/
FoamFile
{
    version     2.0;
    format      ascii;
    arch        "LSB;label=32;scalar=64";
    class       volScalarField;
    location    "4.25";
    object      p;
}
// * * * * * * * * * * * * * * * * * * * * * * * * * * * * * * * * * * * * * //

dimensions      [0 2 -2 0 0 0 0];

internalField   nonuniform List<scalar> 
2200
(
0.265136
0.264516
0.265659
0.266752
0.27077
0.283051
0.305733
0.342123
0.39709
0.470003
0.539663
0.585503
0.608962
0.620888
0.625788
0.628443
0.630189
0.630889
0.630938
0.631737
0.259758
0.259739
0.26113
0.263775
0.271243
0.286613
0.312909
0.352983
0.410533
0.485375
0.554214
0.597507
0.617423
0.625985
0.628286
0.62842
0.628796
0.629329
0.627883
0.62832
0.257356
0.256799
0.25818
0.264179
0.27912
0.29957
0.330702
0.37686
0.438968
0.51652
0.583089
0.623006
0.639351
0.641492
0.640704
0.636145
0.631324
0.631174
0.631341
0.631827
0.264524
0.263179
0.262928
0.271611
0.289482
0.316981
0.356632
0.410264
0.477546
0.556788
0.623549
0.663285
0.677246
0.671101
0.66375
0.654553
0.646981
0.642366
0.645283
0.647316
0.288674
0.286157
0.282957
0.286384
0.29727
0.328174
0.374672
0.440443
0.517169
0.605788
0.676251
0.711899
0.71779
0.705154
0.692604
0.681117
0.680125
0.680537
0.685069
0.687847
0.331267
0.32786
0.324986
0.322989
0.323078
0.344328
0.386769
0.458748
0.548885
0.652143
0.728668
0.762683
0.75669
0.744109
0.733969
0.73577
0.74295
0.747786
0.75246
0.756157
0.389259
0.38516
0.384481
0.382538
0.379474
0.384997
0.411999
0.471389
0.571641
0.693359
0.778337
0.811335
0.800647
0.805488
0.814045
0.827418
0.83794
0.843612
0.845882
0.850473
0.45324
0.449346
0.44806
0.445174
0.446018
0.440512
0.45536
0.498283
0.596333
0.736866
0.831999
0.864035
0.866559
0.890445
0.913704
0.934591
0.94419
0.954925
0.95811
0.962564
0.519929
0.515729
0.510785
0.50518
0.516168
0.517656
0.534598
0.572806
0.659473
0.795743
0.902935
0.957667
0.987619
1.02131
1.04204
1.05958
1.06219
1.07899
1.08541
1.09034
0.599913
0.593655
0.58245
0.569725
0.588328
0.625336
0.665528
0.721851
0.808717
0.93486
1.055
1.14299
1.19169
1.21442
1.21978
1.21231
1.20935
1.22964
1.24385
1.25065
0.730412
0.722307
0.70782
0.691726
0.698767
0.754655
0.83425
0.940058
1.0531
1.19166
1.32577
1.4305
1.47701
1.46524
1.44409
1.42332
1.43089
1.45224
1.46947
1.47836
0.927036
0.919603
0.903645
0.885107
0.880577
0.926402
1.02816
1.19054
1.36474
1.55319
1.71031
1.80402
1.81163
1.76126
1.72957
1.72331
1.74636
1.77278
1.79222
1.80079
1.1732
1.16528
1.14691
1.12214
1.11064
1.13035
1.22413
1.4172
1.68094
1.97249
2.1608
2.19642
2.14347
2.09053
2.07984
2.10228
2.13385
2.16786
2.18903
2.19762
1.44654
1.43818
1.41741
1.3834
1.36356
1.36778
1.42978
1.59683
1.89834
2.28419
2.51461
2.49855
2.46649
2.46436
2.49379
2.53665
2.57875
2.62338
2.64882
2.6586
1.75909
1.74889
1.72358
1.68102
1.65277
1.65532
1.69637
1.8021
2.03975
2.4097
2.67875
2.76954
2.85787
2.93641
2.99398
3.04702
3.10296
3.15481
3.1826
3.19323
2.09641
2.08827
2.06473
2.02103
1.9812
1.97938
2.03608
2.12753
2.2971
2.60219
2.91835
3.18859
3.39879
3.51796
3.5807
3.64373
3.71178
3.76899
3.79915
3.81023
2.44811
2.4375
2.4109
2.36497
2.31846
2.31282
2.39543
2.54872
2.80134
3.16608
3.54455
3.87201
4.06568
4.16335
4.22837
4.3128
4.39443
4.45395
4.48482
4.49546
2.78708
2.77944
2.75324
2.70328
2.64862
2.63007
2.71958
2.95136
3.3764
3.90643
4.35933
4.65239
4.76486
4.85364
4.94112
5.0447
5.13665
5.20171
5.23544
5.24674
3.1065
3.09667
3.0692
3.01919
2.95838
2.92893
3.01306
3.26571
3.77818
4.42313
4.96608
5.31716
5.4605
5.59234
5.71928
5.84434
5.9471
6.01645
6.05195
6.06336
3.37685
3.36942
3.34277
3.29062
3.22903
3.20121
3.2815
3.54143
4.06974
4.76117
5.42599
5.90814
6.19106
6.39126
6.56256
6.70928
6.8212
6.89266
6.92933
6.94143
3.55664
3.5519
3.53181
3.48845
3.43489
3.41261
3.51542
3.83578
4.42605
5.20044
6.0034
6.62477
7.01471
7.25988
7.45804
7.62474
7.73947
7.81061
7.84675
7.85785
3.59816
3.59674
3.58494
3.55691
3.52498
3.53738
3.69735
4.11678
4.84925
5.77676
6.73815
7.46772
7.90712
8.1887
8.40298
8.57157
8.68793
8.75571
8.78976
8.80023
3.41114
3.41911
3.4264
3.42564
3.44304
3.52606
3.77114
4.31544
5.22224
6.31993
7.46079
8.30952
8.80007
9.13578
9.38372
9.54758
9.66345
9.73508
9.76774
9.7813
2.90577
2.92475
2.9629
3.02275
3.12884
3.32601
3.7069
4.40522
5.48551
6.7623
8.1085
9.09954
9.66963
10.0615
10.342
10.5306
10.6542
10.7352
10.7828
10.8053
1.90124
1.96936
2.09012
2.27001
2.54095
2.93191
3.51787
4.40403
5.67367
7.16678
8.72123
9.85659
10.5202
10.9687
11.2691
11.4801
11.6303
11.7409
11.8036
11.8172
0.264505
0.399563
0.709257
1.14869
1.6812
2.34307
3.19638
4.33049
5.82218
7.56535
9.30977
10.5741
11.329
11.8201
12.1542
12.4082
12.5829
12.7135
12.7898
12.8079
-2.13533
-1.70882
-0.987923
-0.204891
0.636827
1.59553
2.74868
4.19106
5.95168
7.97955
9.92872
11.3452
12.2115
12.7912
13.2049
13.5124
13.767
13.9929
14.1201
14.1403
-5.22345
-4.04646
-2.8121
-1.66538
-0.498681
0.759665
2.21838
3.97873
6.03131
8.33119
10.4935
12.0728
13.0855
13.7469
14.3033
14.7475
15.1174
15.4361
15.736
15.8113
-7.75337
-6.25783
-4.71835
-3.23136
-1.70678
-0.0893635
1.69825
3.74289
6.05314
8.57831
10.9179
12.6339
13.7918
14.6
15.2781
15.8218
16.2602
16.6099
16.9489
17.0208
-9.84735
-8.13679
-6.43692
-4.71606
-2.88017
-0.921581
1.18138
3.49501
6.02818
8.74739
11.238
13.0802
14.3611
15.3076
16.0581
16.6726
17.1731
17.5282
17.8453
17.9213
-11.5203
-9.6547
-7.9053
-6.00714
-3.93929
-1.72039
0.654457
3.21946
5.95984
8.85155
11.474
13.4351
14.8229
15.8616
16.6648
17.2509
17.7836
18.142
18.456
18.5501
-12.7314
-10.8159
-9.11137
-7.11051
-4.8771
-2.44294
0.163756
2.93336
5.85456
8.89491
11.6367
13.704
15.1718
16.2484
17.058
17.6484
18.1775
18.5745
18.9083
19.019
-13.7004
-11.7472
-10.116
-8.04165
-5.67143
-3.0585
-0.277173
2.64783
5.71888
8.88321
11.7304
13.8743
15.3832
16.4853
17.3185
17.9422
18.4705
18.8466
19.1949
19.3201
-14.5046
-12.5571
-10.9506
-8.76261
-6.27751
-3.5602
-0.676772
2.36635
5.55877
8.82657
11.7621
13.9674
15.5182
16.6585
17.5186
18.1593
18.6964
19.1039
19.4401
19.538
-15.2184
-13.2553
-11.5887
-9.25562
-6.7029
-3.9598
-1.02729
2.10124
5.38498
8.73624
11.7465
14.0169
15.6218
16.8038
17.6949
18.3729
18.9117
19.2993
19.6462
19.7495
-15.8191
-13.8404
-12.0478
-9.57073
-7.00871
-4.27334
-1.31566
1.8644
5.20874
8.6232
11.7
14.0477
15.7204
16.9583
17.8903
18.5833
19.1251
19.5095
19.8397
19.9567
-16.3011
-14.2942
-12.3713
-9.8042
-7.25913
-4.52539
-1.55001
1.65658
5.03942
8.50086
11.6451
14.0852
15.8374
17.1214
18.0762
18.7851
19.3328
19.7407
20.0678
20.1908
-16.6807
-14.6846
-12.6403
-10.0121
-7.48639
-4.74178
-1.75101
1.47299
4.88247
8.38111
11.591
14.1136
15.935
17.2707
18.2625
18.9929
19.5572
19.9685
20.2821
20.4044
-17.0057
-15.0269
-12.9263
-10.284
-7.73173
-4.95497
-1.93801
1.30665
4.73849
8.26667
11.5294
14.1189
16.0028
17.3903
18.4234
19.1928
19.7772
20.209
20.5353
20.6594
-17.3109
-15.334
-13.2189
-10.5988
-8.01329
-5.19041
-2.12686
1.14823
4.60086
8.14875
11.446
14.0861
16.0265
17.4765
18.5794
19.4048
20.0183
20.4598
20.7932
20.9175
-17.6507
-15.6855
-13.5539
-10.9572
-8.33232
-5.45226
-2.32898
0.984052
4.45537
8.01422
11.3307
14.011
16.0159
17.5426
18.711
19.5934
20.2647
20.743
21.0832
21.2099
-17.9979
-16.079
-13.9598
-11.3688
-8.68449
-5.73556
-2.55009
0.801415
4.28801
7.85419
11.185
13.9012
15.9697
17.5711
18.821
19.781
20.5062
21.0269
21.3918
21.5162
-18.37
-16.4313
-14.3135
-11.7359
-9.02228
-6.02074
-2.78487
0.595507
4.09373
7.67031
11.0171
13.7637
15.8877
17.5622
18.894
19.9407
20.7503
21.3382
21.7309
21.8668
-18.726
-16.7895
-14.6569
-12.043
-9.31827
-6.28519
-3.02115
0.372135
3.87978
7.47242
10.8357
13.604
15.7702
17.5116
18.9277
20.0694
20.9688
21.6395
22.0781
22.218
-19.1196
-17.1677
-14.9954
-12.3325
-9.5753
-6.5214
-3.25026
0.142525
3.65989
7.27156
10.6466
13.4236
15.6161
17.4103
18.903
20.1429
21.158
21.9335
22.4303
22.5365
-19.4681
-17.5023
-15.3262
-12.6084
-9.79892
-6.73706
-3.47171
-0.083777
3.44557
7.07419
10.4514
13.2249
15.4302
17.2593
18.813
20.1488
21.2822
22.1923
22.7929
22.7596
-19.7279
-17.7398
-15.5134
-12.7661
-9.99422
-6.94204
-3.68782
-0.302463
3.2389
6.87614
10.2419
12.9981
15.2008
17.0472
18.6398
20.0449
21.2938
22.3532
23.1736
23.2417
-19.967
-17.8696
-15.5524
-12.8766
-10.1909
-7.1445
-3.90217
-0.515466
3.03213
6.66437
10.0045
12.7295
14.9109
16.75
18.3522
19.7832
21.0858
22.2352
22.9151
22.8685
-20.1743
-18.1606
-15.9243
-13.1887
-10.4139
-7.3512
-4.11314
-0.722657
2.82238
6.43706
9.74084
12.4197
14.5567
16.3592
17.9309
19.3206
20.5376
21.5204
21.9622
22.0077
-20.4219
-18.6091
-16.4312
-13.556
-10.6476
-7.57514
-4.32527
-0.932898
2.60165
6.19024
9.45097
12.0702
14.1385
15.8659
17.353
18.6371
19.691
20.345
20.6029
20.7885
-20.6628
-18.7649
-16.4719
-13.6375
-10.8891
-7.81141
-4.54627
-1.15611
2.36355
5.92227
9.13664
11.6829
13.6539
15.265
16.6133
17.7322
18.6143
19.1361
19.3091
19.5618
-20.8127
-18.758
-16.4354
-13.786
-11.1687
-8.05229
-4.78795
-1.40063
2.10273
5.63118
8.79758
11.2584
13.1063
14.563
15.7323
16.6626
17.3741
17.7749
17.872
18.209
-21.0404
-19.1732
-17.0162
-14.2973
-11.4781
-8.31857
-5.05181
-1.6653
1.82136
5.31968
8.43513
10.7995
12.5027
13.774
14.7436
15.4708
15.9462
16.2056
16.3372
16.6938
-21.3984
-19.6615
-17.4974
-14.6852
-11.7626
-8.60565
-5.31927
-1.93703
1.5322
4.99798
8.05652
10.3149
11.8604
12.9286
13.6857
14.2191
14.4754
14.4814
14.3935
14.6211
-21.6563
-19.7705
-17.4503
-14.7158
-11.9935
-8.85357
-5.57054
-2.20122
1.24759
4.67528
7.66949
9.81803
11.2069
12.0687
12.5948
12.9188
12.9324
12.3726
11.438
11.5434
-21.7849
-19.843
-17.5649
-14.8917
-12.1989
-9.05175
-5.79959
-2.44827
0.974404
4.35701
7.28015
9.3218
10.5669
11.2369
11.5137
11.5422
11.3146
10.2263
7.96874
5.91029
-22.0014
-20.1621
-17.9536
-15.1939
-12.3923
-9.24162
-6.00709
-2.67483
0.71789
4.05088
6.89963
8.8448
9.96858
10.4782
10.5193
10.1976
9.63426
8.56896
4.66394
-5.78365
-22.2462
-20.3986
-18.0962
-15.3114
-12.5568
-9.41788
-6.196
-2.88551
0.476325
3.75666
6.52713
8.38392
9.40803
9.78971
9.64422
9.07132
8.30523
7.59298
6.96211
2.87341
-22.3949
-20.4999
-18.1748
-15.4112
-12.7183
-9.57604
-6.38247
-3.09494
0.235893
3.46219
6.15487
7.93289
8.88287
9.18686
8.98308
8.45345
7.85495
7.8094
8.70879
7.75004
-22.5632
-20.696
-18.4136
-15.6352
-12.912
-9.7466
-6.58092
-3.31203
-0.00964979
3.16621
5.79034
7.5074
8.41993
8.72051
8.60188
8.30253
7.94453
7.86842
8.35181
7.84605
-22.7815
-20.9357
-18.6358
-15.8542
-13.1251
-9.93703
-6.79538
-3.54018
-0.261564
2.87115
5.44324
7.12398
8.04106
8.42408
8.49473
8.3572
8.09032
7.81733
7.92956
7.87109
-22.9639
-21.1191
-18.8001
-16.0526
-13.3357
-10.1318
-7.01993
-3.7758
-0.516722
2.58251
5.12363
6.80116
7.76213
8.26176
8.4999
8.49618
8.28264
7.95761
8.00965
8.05278
-23.1222
-21.2937
-18.9774
-16.266
-13.5314
-10.3274
-7.2459
-4.01127
-0.768468
2.30811
4.84182
6.5522
7.58891
8.20276
8.55017
8.69467
8.58613
8.27481
8.28846
8.33048
-23.2634
-21.4624
-19.144
-16.4618
-13.6983
-10.5213
-7.46403
-4.23659
-1.0085
2.05635
4.60704
6.38499
7.51737
8.23236
8.67145
8.93975
9.00915
8.79683
8.80101
8.85569
-23.3583
-21.5891
-19.2713
-16.6153
-13.8281
-10.7066
-7.66308
-4.44231
-1.22828
1.83567
4.42422
6.29377
7.53967
8.3612
8.88905
9.27844
9.58243
9.63103
9.66918
9.72395
-23.3837
-21.665
-19.3577
-16.7243
-13.9266
-10.8723
-7.82934
-4.62063
-1.42073
1.65312
4.29668
6.26263
7.64059
8.60207
9.25801
9.78756
10.2915
10.6078
10.7637
10.8378
-23.3317
-21.6823
-19.3809
-16.7709
-13.9871
-10.994
-7.95629
-4.76617
-1.58214
1.5113
4.22408
6.28457
7.79131
8.91354
9.76549
10.4632
11.0799
11.5575
11.8265
11.9101
-23.174
-21.6004
-19.3158
-16.7425
-13.9932
-11.0519
-8.03366
-4.8729
-1.71054
1.4047
4.19072
6.34429
7.96888
9.26323
10.2972
11.1062
11.746
12.2359
12.5463
12.6399
-22.8856
-21.4011
-19.1423
-16.617
-13.9178
-11.0325
-8.05275
-4.93492
-1.80333
1.32536
4.16788
6.40781
8.13683
9.53208
10.6243
11.4291
12.0424
12.5152
12.841
12.9492
-22.4213
-21.0345
-18.831
-16.3747
-13.7427
-10.9272
-8.0067
-4.95037
-1.86138
1.25941
4.12685
6.41993
8.18004
9.55922
10.6184
11.4102
12.0264
12.4967
12.8299
12.9539
-21.7526
-20.4911
-18.3568
-15.9877
-13.4493
-10.7306
-7.89448
-4.91878
-1.89142
1.1876
4.03594
6.31214
8.03381
9.37853
10.4375
11.2522
11.8852
12.3539
12.6849
12.8291
-20.8138
-19.7032
-17.6943
-15.4534
-13.0379
-10.4415
-7.7144
-4.84528
-1.91044
1.09015
3.86994
6.09132
7.78975
9.14442
10.2283
11.0592
11.6951
12.1653
12.4965
12.664
-19.6088
-18.6983
-16.8387
-14.7583
-12.4986
-10.052
-7.46568
-4.73514
-1.92674
0.95768
3.64154
5.81331
7.50096
8.84954
9.9229
10.7513
11.3917
11.8787
12.2281
12.4217
-18.1178
-17.427
-15.8029
-13.9311
-11.8455
-9.56869
-7.14624
-4.58286
-1.93579
0.802251
3.37299
5.46302
7.08212
8.37213
9.4061
10.2211
10.8702
11.3737
11.743
11.9646
-16.4913
-16.0657
-14.6715
-12.9729
-11.0614
-8.96948
-6.74126
-4.38124
-1.92383
0.633902
3.03869
4.98333
6.47588
7.66843
8.63826
9.40725
10.0351
10.5361
10.9207
11.1718
-15.0457
-14.8003
-13.4985
-11.9225
-10.1606
-8.25995
-6.25095
-4.1161
-1.88037
0.444358
2.61992
4.37759
5.71686
6.77301
7.62416
8.28926
8.83387
9.27321
9.62221
9.86652
-13.4933
-13.304
-12.0823
-10.6237
-9.05273
-7.40648
-5.65322
-3.78366
-1.80216
0.267688
2.21475
3.79652
4.98779
5.90469
6.62294
7.16038
7.58469
7.90723
8.14373
8.3057
-11.4386
-11.3217
-10.1878
-9.0188
-7.75381
-6.39972
-4.94318
-3.36568
-1.65602
0.146388
1.86666
3.27111
4.31391
5.09793
5.70486
6.13899
6.45052
6.66664
6.80629
6.88787
-8.44453
-8.32269
-7.75807
-7.13009
-6.25169
-5.2514
-4.12203
-2.84314
-1.43793
0.0688962
1.53689
2.7317
3.60434
4.23407
4.71192
5.04003
5.25134
5.38045
5.44986
5.49065
-5.2353
-5.20989
-5.10906
-4.95763
-4.52043
-3.93304
-3.18133
-2.24371
-1.16927
0.0453999
1.25354
2.22982
2.93993
3.42513
3.78011
4.01593
4.15825
4.2408
4.27995
4.30481
-2.99894
-2.9962
-3.00234
-3.01524
-2.86942
-2.63162
-2.23291
-1.61841
-0.848358
0.0893468
1.03633
1.80095
2.36605
2.73427
2.99094
3.15805
3.25943
3.32936
3.36785
3.40825
-1.63044
-1.64188
-1.65192
-1.67221
-1.63872
-1.58005
-1.4019
-1.01692
-0.499136
0.179427
0.884917
1.46413
1.90408
2.18716
2.37989
2.5109
2.59375
2.66566
2.70229
2.72809
-0.859596
-0.881407
-0.90462
-0.925613
-0.89847
-0.869926
-0.75794
-0.510938
-0.18809
0.277169
0.796471
1.23444
1.57296
1.79762
1.9549
2.07201
2.14076
2.2104
2.23647
2.25302
-0.454358
-0.476432
-0.520914
-0.549605
-0.512794
-0.453111
-0.338842
-0.170337
0.0309921
0.365257
0.763657
1.10219
1.36393
1.5455
1.67799
1.78933
1.83383
1.89031
1.90528
1.91219
-0.239714
-0.257291
-0.297811
-0.325207
-0.298347
-0.238162
-0.137534
-0.00267137
0.157885
0.435973
0.753482
1.01974
1.22738
1.37565
1.47831
1.58156
1.5998
1.63099
1.6376
1.64191
-0.0874865
-0.0992378
-0.125867
-0.146964
-0.144221
-0.12767
-0.0753904
0.0543187
0.214689
0.466289
0.722792
0.93721
1.1092
1.23532
1.29504
1.37887
1.38463
1.39986
1.39996
1.40172
0.043495
0.0351144
0.0169569
0.00270409
-0.0142928
-0.0290438
-0.0196943
0.0933066
0.225628
0.445759
0.658451
0.838907
0.98099
1.09005
1.10647
1.16488
1.16824
1.18073
1.17966
1.17996
0.144062
0.137583
0.123715
0.11938
0.105062
0.104385
0.10299
0.17622
0.232955
0.414689
0.5798
0.73594
0.836514
0.926683
0.92675
0.962294
0.966857
0.979265
0.979101
0.979876
0.222319
0.217154
0.208431
0.21254
0.206284
0.231913
0.238137
0.281278
0.274533
0.413766
0.508096
0.645845
0.690601
0.766412
0.771407
0.798001
0.801259
0.811125
0.810615
0.811287
0.285984
0.280467
0.273201
0.276669
0.269438
0.297103
0.302167
0.343436
0.331966
0.427544
0.458934
0.570264
0.582331
0.640336
0.651568
0.674356
0.674925
0.680881
0.678062
0.677411
0.320702
0.313723
0.303192
0.302225
0.287139
0.302995
0.293429
0.339841
0.346956
0.421565
0.42893
0.509764
0.517199
0.559795
0.566861
0.582576
0.578579
0.580576
0.575038
0.572433
0.323904
0.316444
0.305144
0.301703
0.279745
0.289242
0.266646
0.308188
0.317504
0.387038
0.397751
0.460959
0.468456
0.499366
0.497786
0.50698
0.498874
0.498318
0.491452
0.487529
0.307691
0.300945
0.29246
0.291212
0.272544
0.284224
0.258035
0.288045
0.281868
0.344554
0.355241
0.411481
0.413985
0.437204
0.429919
0.436592
0.427165
0.426134
0.419941
0.415699
0.287394
0.281258
0.277539
0.279162
0.265037
0.27938
0.256124
0.282315
0.262766
0.310264
0.310457
0.356615
0.35358
0.371569
0.3633
0.370034
0.361699
0.361368
0.356972
0.352976
0.266967
0.26048
0.259964
0.261111
0.24947
0.263223
0.242604
0.269309
0.246641
0.282112
0.270549
0.305401
0.298555
0.313452
0.305101
0.311472
0.304407
0.304648
0.301192
0.297568
0.240951
0.233856
0.234935
0.234496
0.224007
0.235275
0.215824
0.241178
0.219272
0.251379
0.235226
0.263481
0.253193
0.266743
0.257029
0.262894
0.255609
0.255645
0.252925
0.249592
0.20835
0.200974
0.203244
0.201916
0.192879
0.20199
0.183006
0.205905
0.184157
0.21537
0.199718
0.222659
0.212675
0.223934
0.21442
0.219147
0.212725
0.211959
0.20996
0.206954
0.172616
0.165917
0.16906
0.167467
0.160426
0.168184
0.151655
0.170859
0.14894
0.177295
0.161811
0.181632
0.172008
0.180869
0.173403
0.1765
0.171812
0.17088
0.169496
0.167062
0.136591
0.130677
0.134175
0.132292
0.126939
0.133639
0.119214
0.136319
0.11577
0.139891
0.123813
0.140667
0.131654
0.138859
0.132817
0.135245
0.131743
0.13102
0.130181
0.128259
0.0995779
0.094904
0.0978912
0.0959532
0.0920609
0.0979053
0.0859578
0.100762
0.0822163
0.102457
0.0865946
0.100554
0.0922909
0.0982054
0.0934172
0.0954197
0.0928376
0.0922884
0.0917563
0.0903648
0.0612868
0.0574646
0.0604716
0.0585586
0.0544758
0.0601685
0.0500499
0.0631405
0.0478141
0.0638889
0.0506291
0.0615053
0.0544542
0.0593068
0.0552562
0.0570844
0.0550776
0.0548066
0.0545005
0.0534425
0.0212788
0.01899
0.0211885
0.0199858
0.0176333
0.0219212
0.0146627
0.0228941
0.0139865
0.0227098
0.0153808
0.0214444
0.01721
0.0203512
0.0178921
0.0193175
0.0180664
0.0181322
0.0179949
0.0173907
11.5941
15.9827
17.0884
18.4974
19.6528
20.6905
21.6143
22.4258
23.0376
23.2285
16.3738
18.5153
19.2228
20.1247
20.9181
21.6099
22.196
22.6663
22.9359
22.9517
18.981
20.0397
20.5796
21.1402
21.6429
22.0807
22.4384
22.707
22.8517
22.8713
20.4216
21.0706
21.4256
21.7818
22.0898
22.3521
22.5596
22.7047
22.7869
22.8139
21.3612
21.7046
21.9251
22.1424
22.3346
22.4988
22.627
22.7143
22.7591
22.7862
21.8884
22.1152
22.2467
22.3882
22.5072
22.6062
22.6832
22.7363
22.7684
22.7888
22.2389
22.3784
22.4544
22.5456
22.6217
22.684
22.7326
22.7679
22.7893
22.8113
22.4601
22.5513
22.6042
22.6602
22.7075
22.7456
22.7773
22.802
22.8213
22.8402
22.6257
22.6835
22.7113
22.7423
22.7732
22.7995
22.8235
22.8469
22.8635
22.885
22.7462
22.7781
22.8
22.8215
22.845
22.8686
22.8882
22.909
22.9244
22.9435
22.8529
22.8771
22.8979
22.9144
22.9324
22.9508
22.966
22.9807
22.9896
23.0056
22.962
22.9782
22.9949
23.0092
23.0213
23.0318
23.0414
23.0498
23.0542
23.0663
23.0614
23.0701
23.0832
23.0935
23.1014
23.1081
23.116
23.1229
23.1255
23.1347
23.155
23.1597
23.1693
23.1758
23.1802
23.1855
23.1918
23.1993
23.2031
23.2133
23.2686
23.2573
23.2511
23.246
23.2437
23.2454
23.2518
23.264
23.2782
23.3059
23.3948
23.3392
23.3075
23.2887
23.2801
23.28
23.2891
23.309
23.3405
23.4101
)
;

boundaryField
{
    wall-4
    {
        type            zeroGradient;
    }
    pressure-outlet-7
    {
        type            fixedValue;
        value           uniform 0;
    }
    velocity-inlet-6
    {
        type            zeroGradient;
    }
    velocity-inlet-5
    {
        type            zeroGradient;
    }
    frontAndBackPlanes
    {
        type            empty;
    }
}


// ************************************************************************* //
