/*--------------------------------*- C++ -*----------------------------------*\
| =========                 |                                                 |
| \\      /  F ield         | OpenFOAM: The Open Source CFD Toolbox           |
|  \\    /   O peration     | Version:  2412                                  |
|   \\  /    A nd           | Website:  www.openfoam.com                      |
|    \\/     M anipulation  |                                                 |
\*---------------------------------------------------------------------------*/
FoamFile
{
    version     2.0;
    format      ascii;
    arch        "LSB;label=32;scalar=64";
    class       surfaceScalarField;
    location    "4.25";
    object      phi;
}
// * * * * * * * * * * * * * * * * * * * * * * * * * * * * * * * * * * * * * //

dimensions      [0 3 -1 0 0 0 0];

oriented        oriented;

internalField   nonuniform List<scalar> 
4262
(
0.00245071
0.218062
0.00108743
0.830016
-0.000909897
1.76914
-0.0021918
3.16645
-0.00439161
5.1868
-0.00546192
8.01544
-0.00670635
11.8484
-0.00819023
16.8212
-0.00861803
22.8822
-0.00636713
29.5261
-0.00404075
29.526
-0.00268626
22.8805
-0.00232615
16.8194
-0.00151419
11.8463
-0.00160118
8.01445
-0.00166623
5.18467
-0.00169652
3.1652
-0.00333622
1.76878
-0.00375828
0.829075
0.216754
-0.00431204
0.222374
-0.00293473
0.828639
-0.00566724
1.77187
-0.00967999
3.17046
-0.0150474
5.19217
-0.0205182
8.02091
-0.0212136
11.8491
-0.0223578
16.8224
-0.0226421
22.8825
-0.019365
29.5228
-0.0144546
29.5211
-0.00882944
22.8748
-0.00578188
16.8163
-0.0027517
11.8433
-0.00126075
8.01296
-0.00106266
5.18447
-0.000993222
3.16513
-0.00152761
1.76932
0.0023728
0.825175
0.219127
-0.0135466
0.235921
-0.0140511
0.829144
-0.0196034
1.77743
-0.0261211
3.17698
-0.0307535
5.1968
-0.0339839
8.02414
-0.0393955
11.8545
-0.0402273
16.8232
-0.0389518
22.8813
-0.029493
29.5134
-0.0189721
29.5106
-0.0107689
22.8666
-0.00387781
16.8094
-3.30216e-06
11.8394
0.00411859
8.00884
0.0050509
5.18354
0.00541566
3.16476
0.00680974
1.76792
0.0110705
0.820914
0.230198
-0.0240407
0.259961
-0.0321148
0.837218
-0.0449527
1.79026
-0.0521585
3.18419
-0.0568326
5.20148
-0.0560939
8.0234
-0.0593438
11.8577
-0.0565034
16.8204
-0.0541892
22.8789
-0.0397535
29.4989
-0.0237711
29.4946
-0.0121616
22.855
0.000725852
16.7966
0.00814326
11.832
0.0166841
8.0003
0.0202269
5.18
0.0218178
3.16317
0.0192096
1.77053
0.0184804
0.821643
0.248678
-0.0319831
0.291944
-0.0527731
0.858008
-0.0648565
1.80235
-0.0758721
3.1952
-0.0866061
5.21221
-0.0859677
8.02276
-0.0826702
11.8544
-0.0741398
16.8118
-0.0672562
22.8721
-0.0489367
29.4806
-0.0296664
29.4753
-0.0109629
22.8363
0.008584
16.777
0.0230561
11.8175
0.0346316
7.98872
0.0378693
5.17676
0.0392574
3.16178
0.0385826
1.77121
0.0262775
0.833949
0.274956
-0.0343591
0.326304
-0.0753832
0.899032
-0.0784181
1.80538
-0.0957292
3.21251
-0.111888
5.22837
-0.122035
8.03291
-0.116743
11.8492
-0.106049
16.8011
-0.0908169
22.8568
-0.0604516
29.4502
-0.028669
29.4436
-0.000422776
22.8081
0.0259949
16.7506
0.0489858
11.7945
0.0535574
7.98415
0.0544573
5.17586
0.0518417
3.1644
0.060644
1.7624
0.0290483
0.865544
0.304004
-0.0355971
0.361901
-0.090012
0.953447
-0.0884179
1.80379
-0.110471
3.23456
-0.125201
5.2431
-0.142234
8.04994
-0.141131
11.848
-0.134093
16.7941
-0.111297
22.834
-0.0707102
29.4097
-0.0287483
29.4016
0.0100466
22.7693
0.0354952
16.7251
0.0541413
11.7759
0.0576869
7.98061
0.060882
5.17266
0.059034
3.16625
0.0736156
1.74782
0.0283842
0.910776
0.332388
-0.038477
0.400378
-0.0950589
1.01003
-0.0957296
1.80446
-0.114028
3.25286
-0.129767
5.25884
-0.149125
8.0693
-0.160766
11.8597
-0.163964
16.7973
-0.140928
22.811
-0.0847275
29.3535
-0.0267483
29.3436
0.0196644
22.7229
0.0409412
16.7039
0.0525573
11.7643
0.057901
7.97526
0.0607332
5.16983
0.062123
3.16486
0.0765713
1.73337
0.0303219
0.957025
0.36271
-0.0425031
0.442881
-0.101698
1.06922
-0.110276
1.81304
-0.12119
3.26378
-0.147347
5.285
-0.168498
8.09045
-0.18629
11.8775
-0.189747
16.8008
-0.169072
22.7903
-0.0960683
29.2805
-0.0208376
29.2684
0.0285711
22.6735
0.0513144
16.6811
0.0641371
11.7515
0.0718735
7.96753
0.0686332
5.17307
0.0743953
3.1591
0.0809113
1.72686
0.0333936
1.00454
0.396104
-0.0494578
0.492338
-0.117942
1.13771
-0.145166
1.84026
-0.153372
3.27198
-0.194936
5.32656
-0.20838
8.10389
-0.218891
11.888
-0.209889
16.7917
-0.190854
22.7713
-0.111953
29.2016
-0.0288914
29.1853
0.0231983
22.6214
0.0624417
16.6419
0.0856674
11.7282
0.102894
7.9503
0.0914931
5.18447
0.105767
3.14482
0.0945222
1.7381
0.0393988
1.05967
0.435502
-0.0650959
0.557434
-0.153938
1.22655
-0.21977
1.90609
-0.236807
3.28902
-0.272993
5.36275
-0.282425
8.11332
-0.273192
11.8788
-0.247248
16.7658
-0.214761
22.7388
-0.126957
29.1138
-0.0350465
29.0934
0.0340883
22.5522
0.0942332
16.5817
0.140619
11.6818
0.165155
7.92576
0.160553
5.18907
0.173216
3.13216
0.128067
1.78325
0.0539251
1.13381
0.489427
-0.0808878
0.638322
-0.189312
1.33497
-0.283241
2.00002
-0.314447
3.32023
-0.343003
5.3913
-0.367265
8.13759
-0.355003
11.8665
-0.312977
16.7238
-0.255171
22.681
-0.148813
29.0074
-0.036618
28.9812
0.0621011
22.4535
0.147673
16.4962
0.20763
11.6219
0.226515
7.90688
0.238885
5.1767
0.237605
3.13344
0.161839
1.85902
0.0687521
1.2269
0.55818
-0.093639
0.731961
-0.218129
1.45946
-0.333283
2.11518
-0.388015
3.37496
-0.412216
5.4155
-0.449756
8.17513
-0.444119
11.8609
-0.398149
16.6778
-0.31827
22.6011
-0.176578
28.8657
-0.025474
28.8301
0.10731
22.3207
0.211101
16.3924
0.26807
11.5649
0.276675
7.89827
0.296759
5.15662
0.275694
3.1545
0.182687
1.95202
0.0768341
1.33275
0.635014
-0.102208
0.834169
-0.240993
1.59825
-0.377806
2.25199
-0.45852
3.45567
-0.495388
5.45237
-0.546711
8.22645
-0.551724
11.8659
-0.509746
16.6358
-0.408624
22.5
-0.203926
28.661
0.0109161
28.6153
0.168125
22.1635
0.280733
16.2798
0.339205
11.5064
0.346076
7.8914
0.361455
5.14124
0.315901
3.20006
0.204151
2.06378
0.0840567
1.45284
0.71907
-0.116061
0.950231
-0.277166
1.75935
-0.436083
2.41091
-0.543613
3.5632
-0.595765
5.50452
-0.650392
8.28108
-0.656745
11.8722
-0.61474
16.5938
-0.49965
22.3849
-0.235512
28.3969
0.0444178
28.3353
0.218725
21.9892
0.344431
16.1541
0.407438
11.4434
0.42154
7.8773
0.424386
5.1384
0.353002
3.27144
0.223065
2.19371
0.0896268
1.58628
0.808697
-0.119384
1.06961
-0.291821
1.93179
-0.477003
2.59609
-0.619259
3.70546
-0.691068
5.57633
-0.732375
8.32238
-0.736587
11.8764
-0.687458
16.5447
-0.556128
22.2536
-0.278133
28.1189
0.0117005
28.0455
0.212604
21.7883
0.360656
16.006
0.447257
11.3568
0.487971
7.83659
0.485947
5.14042
0.395023
3.36237
0.244372
2.34436
0.0950574
1.73559
0.903754
-0.137523
1.20714
-0.332056
2.12632
-0.532655
2.79669
-0.690352
3.86315
-0.776471
5.66245
-0.812489
8.3584
-0.816822
11.8808
-0.760693
16.4886
-0.610113
22.103
-0.330399
27.8392
-0.0316571
27.7468
0.201512
21.5551
0.374579
15.8329
0.487745
11.2437
0.554221
7.77011
0.533264
5.16138
0.41427
3.48136
0.247334
2.5113
0.0920154
1.89091
0.99577
-0.132887
1.34002
-0.336385
2.32982
-0.565996
3.0263
-0.769552
4.06671
-0.896995
5.78989
-0.940098
8.4015
-0.949968
11.8906
-0.912408
16.451
-0.730277
21.9209
-0.398802
27.5077
-0.0386954
27.3867
0.244842
21.2716
0.431895
15.6459
0.554703
11.1209
0.625198
7.69961
0.585246
5.20133
0.446973
3.61963
0.262618
2.69566
0.0926197
2.06091
1.08839
-0.159054
1.49908
-0.387637
2.5584
-0.635506
3.27417
-0.859576
4.29078
-1.01956
5.94988
-1.09525
8.47719
-1.13193
11.9273
-1.10625
16.4253
-0.887899
21.7025
-0.479137
27.0989
-0.0238203
26.9313
0.302668
20.9451
0.511009
15.4375
0.649567
10.9823
0.710418
7.63876
0.632181
5.27957
0.460951
3.79086
0.259174
2.89743
0.081038
2.23905
1.16943
-0.151535
1.65061
-0.39585
2.80272
-0.678511
3.55683
-0.951082
4.56335
-1.16555
6.16435
-1.28137
8.59301
-1.32943
11.9754
-1.29014
16.386
-1.03958
21.452
-0.578813
26.6381
-0.0532395
26.4058
0.317143
20.5747
0.569154
15.1855
0.725849
10.8256
0.768222
7.59639
0.665055
5.38273
0.474419
3.9815
0.254287
3.11756
0.0661779
2.42716
1.23561
-0.176362
1.82698
-0.440796
3.06715
-0.743798
3.85983
-1.04627
4.86582
-1.30357
6.42165
-1.46342
8.75286
-1.52833
12.0403
-1.47114
16.3289
-1.18755
21.1684
-0.701077
26.1517
-0.136915
25.8416
0.292769
20.1451
0.602031
14.8763
0.776809
10.6508
0.795441
7.57776
0.655545
5.52263
0.440528
4.19652
0.216578
3.34151
0.0364292
2.6073
1.27203
-0.17914
2.00612
-0.463898
3.35191
-0.798443
4.19438
-1.14455
5.21193
-1.45955
6.73665
-1.6767
8.97001
-1.76392
12.1275
-1.68018
16.2451
-1.36721
20.8554
-0.85795
25.6424
-0.248676
25.2323
0.259854
19.6365
0.624154
14.512
0.799106
10.4759
0.791864
7.585
0.635428
5.67907
0.414918
4.41703
0.19271
3.56372
0.012014
2.788
1.28405
-0.211641
2.21776
-0.518158
3.65843
-0.877913
4.55413
-1.26411
5.59812
-1.63868
7.11122
-1.91744
9.24878
-2.02554
12.2356
-1.92392
16.1435
-1.5891
20.5206
-1.04984
25.1032
-0.380865
24.5634
0.208054
19.0476
0.618192
14.1018
0.786791
10.3073
0.744822
7.62697
0.573356
5.85053
0.359739
4.63064
0.154906
3.76855
-0.00870211
2.95161
1.27535
-0.244722
2.46248
-0.573156
3.98686
-0.966884
4.94786
-1.41456
6.0458
-1.8429
7.53956
-2.16747
9.57335
-2.30029
12.3684
-2.20692
16.0501
-1.85464
20.1683
-1.26851
24.517
-0.5341
23.829
0.103423
18.4101
0.525511
13.6797
0.669353
10.1634
0.599653
7.69667
0.431656
6.01853
0.234105
4.82819
0.0641367
3.93852
-0.0337608
3.04951
1.24159
-0.321352
2.78383
-0.673976
4.33948
-1.14496
5.41884
-1.63119
6.53204
-2.08298
7.99135
-2.43835
9.92872
-2.60709
12.5372
-2.52619
15.9692
-2.16226
19.8044
-1.52512
23.8799
-0.739404
23.0432
-0.0811701
17.7519
0.315992
13.2826
0.429425
10.05
0.3562
7.76989
0.214392
6.16034
0.0531311
4.98945
-0.103975
4.09563
-0.11458
3.06011
1.12701
-0.467461
3.25129
-0.983771
4.85579
-1.49256
5.92763
-1.96339
7.00286
-2.41627
8.44424
-2.78298
10.2954
-2.97046
12.7246
-2.86383
15.8626
-2.48601
19.4265
-1.79937
23.1932
-0.977644
22.2215
-0.331259
17.1055
0.0144917
12.9368
0.101626
9.96287
0.0386973
7.83282
-0.088428
6.28746
-0.207719
5.10875
-0.252815
4.14072
-0.184655
2.99195
0.942351
-0.348447
3.59974
-0.782337
5.28968
-1.19603
6.34133
-1.65723
7.46406
-2.1309
8.91791
-2.56517
10.7297
-2.86335
13.0228
-2.88108
15.8803
-2.62111
19.1666
-1.97844
22.5506
-1.11283
21.3559
-0.437186
16.4298
-0.106962
12.6066
-0.0238215
9.87973
-0.0584652
7.86747
-0.124565
6.35356
-0.206357
5.19054
-0.232028
4.1664
-0.146943
2.90687
0.795408
-0.171602
3.77134
-0.401577
5.51966
-0.752439
6.69219
-1.15436
7.86598
-1.54835
9.31189
-1.88921
11.0706
-2.11425
13.2479
-2.11942
15.8855
-1.86359
18.9107
-1.30467
21.9917
-0.629602
20.6808
-0.159986
15.9602
0.0520143
12.3946
0.117037
9.81471
0.103248
7.88126
0.0702549
6.38655
0.0655932
5.1952
0.0452707
4.18672
0.0515627
2.90057
0.84697
-0.143063
3.91441
-0.31286
5.68946
-0.534498
6.91383
-0.815585
8.14707
-1.11162
9.60793
-1.38164
11.3406
-1.56727
13.4335
-1.57878
15.897
-1.36532
18.6973
-0.912231
21.5386
-0.414135
20.1827
-0.096208
15.6423
0.0403119
12.2581
0.0926082
9.76241
0.105978
7.86789
0.0939424
6.39859
0.0852716
5.20387
0.0998717
4.17212
0.0825899
2.91786
0.92956
-0.0851335
3.99954
-0.215049
5.81937
-0.399629
7.09841
-0.611777
8.35922
-0.828338
9.82449
-1.03676
11.549
-1.18004
13.5768
-1.1941
15.9111
-1.03396
18.5371
-0.684511
21.1891
-0.326907
19.8251
-0.105979
15.4214
0.000970197
12.1511
0.0555346
9.70785
0.0889194
7.8345
0.104152
6.38336
0.098456
5.20957
0.0984485
4.17213
0.0876829
2.92862
1.01724
-0.0153693
4.01491
-0.204766
6.00877
-0.350406
7.24405
-0.489227
8.49804
-0.638367
9.97363
-0.79918
11.7098
-0.910399
13.688
-0.929469
15.9301
-0.815882
18.4236
-0.555829
20.9291
-0.300154
19.5695
-0.145148
15.2663
-0.0699297
12.0759
-0.0377147
9.67564
-0.0256511
7.82244
-0.00141565
6.35912
0.0509304
5.15722
0.0913065
4.13175
0.0820154
2.93791
1.09926
-0.0242357
4.03914
-0.15943
6.14396
-0.290599
7.37522
-0.399833
8.60727
-0.518263
10.0921
-0.634545
11.8261
-0.723991
13.7774
-0.749419
15.9556
-0.673594
18.3477
-0.486837
20.7423
-0.306141
19.3888
-0.195495
15.1557
-0.128437
12.0089
-0.0683057
9.6155
0.0061626
7.74797
0.0792594
6.28602
0.105199
5.13128
0.103961
4.13299
0.0756968
2.96618
1.17496
-0.022277
4.06142
-0.122445
6.24413
-0.223443
7.47622
-0.324496
8.70832
-0.430546
10.1981
-0.523944
11.9195
-0.597215
13.8507
-0.625426
15.9838
-0.580035
18.3023
-0.451136
20.6134
-0.319135
19.2568
-0.224438
15.061
-0.150503
11.9349
-0.0984725
9.56347
-0.0851519
7.73465
-0.0853646
6.28624
-0.0442768
5.09019
0.00255661
4.08615
0.0244975
2.94424
1.19945
0.00726482
4.05416
-0.072996
6.32439
-0.158771
7.56199
-0.259891
8.80944
-0.362402
10.3006
-0.447746
12.0048
-0.509905
13.9129
-0.538897
16.0128
-0.517372
18.2808
-0.430152
20.5262
-0.328465
19.1551
-0.247912
14.9804
-0.184683
11.8717
-0.125137
9.50393
-0.0487036
7.65822
0.0235347
6.214
0.0414879
5.07224
0.0317389
4.0959
-0.00557997
2.98155
1.19387
0.00830134
4.04585
-0.0386417
6.37134
-0.110521
7.63387
-0.211609
8.91053
-0.308486
10.3975
-0.389303
12.0857
-0.446495
13.9701
-0.478883
16.0452
-0.474451
18.2764
-0.418123
20.4699
-0.343034
19.08
-0.272168
14.9096
-0.204088
11.8036
-0.146494
9.44633
-0.126132
7.63785
-0.121441
6.20931
-0.0899733
5.04077
-0.0445315
4.05046
-0.00898038
2.946
1.18489
0.0270456
4.01881
-0.0197772
6.41816
-0.0868026
7.7009
-0.177678
9.00141
-0.265165
10.485
-0.340182
12.1607
-0.396334
14.0262
-0.43388
16.0827
-0.441872
18.2844
-0.409952
20.4379
-0.355586
19.0256
-0.294307
14.8483
-0.23793
11.7472
-0.189704
9.39811
-0.11965
7.5678
-0.0515244
6.14118
-0.0192076
5.00845
-0.00910186
4.04036
-0.0180363
2.95494
1.16686
0.022971
3.99584
-0.0141002
6.45523
-0.0784997
7.76529
-0.153712
9.07662
-0.228767
10.56
-0.297236
12.2291
-0.354227
14.0832
-0.397575
16.126
-0.416066
18.3029
-0.406682
20.4286
-0.377971
18.9969
-0.333989
14.8043
-0.277346
11.6906
-0.215993
9.33676
-0.178305
7.53011
-0.151583
6.11446
-0.109971
4.96684
-0.0563226
3.98671
-0.0200326
2.91865
1.14682
0.0179719
3.97787
-0.0184834
6.49168
-0.0629142
7.80973
-0.128502
9.14221
-0.194685
10.6262
-0.25898
12.2934
-0.31732
14.1415
-0.365216
16.1739
-0.393984
18.3316
-0.406263
20.4408
-0.398819
18.9895
-0.363398
14.7689
-0.314033
11.6412
-0.261402
9.28412
-0.194467
7.46318
-0.124125
6.04412
-0.0836442
4.92636
-0.0663129
3.96938
-0.0397345
2.89207
1.10709
0.0211588
3.95671
-0.0212074
6.53405
-0.0731716
7.86169
-0.115109
9.18415
-0.16767
10.6788
-0.226784
12.3525
-0.28508
14.1998
-0.336784
16.2256
-0.37565
18.3705
-0.406211
20.4714
-0.419849
19.0031
-0.406222
14.7553
-0.367
11.602
-0.301576
9.2187
-0.241748
7.40335
-0.192661
5.99503
-0.135385
4.86909
-0.0717999
3.90579
-0.0378349
2.85811
1.06925
0.00481638
3.95189
-0.0278046
6.56667
-0.059176
7.89306
-0.103594
9.22856
-0.150159
10.7254
-0.201746
12.4041
-0.257271
14.2554
-0.311109
16.2795
-0.35834
18.4177
-0.403937
20.517
-0.43299
19.0322
-0.429865
14.7522
-0.395808
11.568
-0.35016
9.17305
-0.285147
7.33833
-0.212023
5.92191
-0.157533
4.8146
-0.121026
3.86928
-0.0626965
2.79978
1.00656
0.0142888
3.9376
-0.0167204
6.59768
-0.0542667
7.93061
-0.0921414
9.26644
-0.133659
10.7669
-0.181823
12.4523
-0.234396
14.3079
-0.288738
16.3338
-0.342378
18.4714
-0.399464
20.5741
-0.441811
19.0745
-0.46227
14.7726
-0.449065
11.5547
-0.401975
9.12596
-0.333667
7.27003
-0.267658
5.8559
-0.199226
4.74616
-0.119604
3.78966
-0.0647226
2.74489
0.941835
0.00179156
3.93581
-0.0280453
6.62752
-0.0462545
7.94882
-0.0851901
9.30537
-0.122019
10.8037
-0.166022
12.4963
-0.214953
14.3569
-0.268633
16.3875
-0.326222
18.529
-0.392134
20.64
-0.446001
19.1284
-0.477273
14.8039
-0.475856
11.5533
-0.450119
9.10023
-0.405289
7.2252
-0.336924
5.78753
-0.261512
4.67075
-0.190955
3.71911
-0.0939253
2.64786
0.84791
0.0131083
3.9227
-0.0110594
6.65169
-0.0392422
7.977
-0.0760104
9.34214
-0.112079
10.8398
-0.153449
12.5377
-0.198939
14.4024
-0.251239
16.4398
-0.311127
18.5888
-0.383752
20.7126
-0.448184
19.1928
-0.49331
14.849
-0.520533
11.5806
-0.504042
9.08374
-0.449495
7.17065
-0.382939
5.72098
-0.306357
4.59417
-0.194971
3.60772
-0.100719
2.55361
0.747191
0.00261639
3.92009
-0.0161195
6.67042
-0.0327801
7.99366
-0.0689259
9.37829
-0.103469
10.8743
-0.141781
12.576
-0.184228
14.4448
-0.235341
16.4909
-0.296178
18.6497
-0.373366
20.7898
-0.447058
19.2665
-0.501756
14.9037
-0.532966
11.6118
-0.548902
9.09967
-0.537581
7.15933
-0.488746
5.67214
-0.403195
4.50862
-0.293268
3.49779
-0.142378
2.40272
0.604813
0.00983621
3.91025
-0.00882854
6.68909
-0.0285943
8.01343
-0.0617487
9.41144
-0.0940406
10.9066
-0.130671
12.6126
-0.171089
14.4852
-0.22111
16.5409
-0.282074
18.7106
-0.362254
20.87
-0.443574
19.3478
-0.51129
14.9714
-0.559573
11.66
-0.580198
9.1203
-0.572384
7.15151
-0.529857
5.62961
-0.459235
4.438
-0.325226
3.36378
-0.159714
2.23721
0.445099
0.00654083
3.90371
-0.00674539
6.70237
-0.0291319
8.03581
-0.055932
9.43824
-0.0854286
10.9361
-0.120516
12.6477
-0.159496
14.5242
-0.209021
16.5905
-0.269948
18.7716
-0.352027
20.9521
-0.439871
19.4357
-0.518154
15.0497
-0.577545
11.7194
-0.615957
9.15871
-0.643642
7.1792
-0.64103
5.627
-0.590922
4.38789
-0.468947
3.24181
-0.153734
1.922
0.291365
-0.000312684
3.90402
-0.0112973
6.71336
-0.0257273
8.05024
-0.0530445
9.46556
-0.0832474
10.9663
-0.116944
12.6814
-0.157817
14.5651
-0.210378
16.643
-0.276424
18.8376
-0.368191
21.0438
-0.471848
19.5393
-0.57141
15.1493
-0.659287
11.8073
-0.724448
9.22387
-0.752471
7.20722
-0.747898
5.62243
-0.698288
4.33828
-0.550629
3.09415
-0.329781
1.70115
0.739132
-0.777548
0.00458389
3.89944
-0.00354539
6.72149
-0.0279716
8.07467
-0.0515827
9.48917
-0.0793603
10.9941
-0.109759
12.7118
-0.151048
14.6064
-0.204247
16.6962
-0.272463
18.9058
-0.369573
21.1409
-0.484547
19.6543
-0.601729
15.2664
-0.712445
11.918
-0.809064
9.32049
-0.894051
7.29221
-0.985526
5.7139
-1.06451
4.41726
-0.968262
2.9979
-0.913779
1.64667
1.21556
-1.3902
-0.00824228
3.90768
-0.012079
6.72532
-0.0251877
8.08778
-0.0452682
9.50925
-0.0706648
11.0195
-0.102846
12.744
-0.144505
14.648
-0.198154
16.7499
-0.268374
18.9761
-0.370781
21.2434
-0.496556
19.7801
-0.630994
15.4009
-0.769684
12.0567
-0.909996
9.4608
-1.04402
7.42623
-1.13803
5.80791
-1.14272
4.42195
-1.01873
2.87392
-1.28549
1.91342
1.61229
-1.68222
-0.000180567
3.90786
-0.0111217
6.73626
-0.0273959
8.10405
-0.0399017
9.52176
-0.0656003
11.0452
-0.0960315
12.7744
-0.136713
14.6887
-0.190596
16.8038
-0.262493
19.0479
-0.369599
21.3505
-0.505108
19.9156
-0.656751
15.5525
-0.822167
12.2221
-0.999323
9.63796
-1.19059
7.6175
-1.35866
5.97598
-1.35267
4.41596
-1.38721
2.90846
-1.68801
2.21422
1.87351
-1.94923
0.00836372
3.8995
-0.00306463
6.74769
-0.022022
8.12301
-0.0405821
9.54032
-0.0648118
11.0694
-0.0898845
12.7995
-0.129907
14.7287
-0.183209
16.8571
-0.25629
19.121
-0.367629
21.4618
-0.511639
20.0596
-0.677764
15.7187
-0.869163
12.4135
-1.08026
9.84906
-1.28099
7.81822
-1.39363
6.08862
-1.37655
4.39888
-1.56758
3.09949
-1.87327
2.51991
2.08818
-2.08794
1.85304e-05
3.89948
-0.00938007
6.75709
-0.0243292
8.13796
-0.0384377
9.55442
-0.0589474
11.0899
-0.0867531
12.8273
-0.127058
14.769
-0.180261
16.9103
-0.254947
19.1957
-0.370417
21.5773
-0.521455
20.2106
-0.699674
15.8969
-0.909769
12.6236
-1.13071
10.07
-1.32903
8.01654
-1.50883
6.26843
-1.65435
4.54441
-1.91783
3.36296
-2.18922
2.79131
2.23061
-2.33166
-0.00421299
3.90369
-0.00919695
6.76207
-0.016387
8.14515
-0.0333885
9.57143
-0.0531343
11.1097
-0.0873797
12.8615
-0.128032
14.8097
-0.182175
16.9644
-0.258747
19.2723
-0.378588
21.6971
-0.535973
20.368
-0.721176
16.0821
-0.937802
12.8403
-1.18039
10.3126
-1.40913
8.24528
-1.53048
6.38978
-1.65701
4.67094
-1.94941
3.65536
-2.19199
3.03389
2.42567
-2.38705
0.0116666
3.89202
-0.00348757
6.77723
-0.0190114
8.16067
-0.0395267
9.59194
-0.0587539
11.1289
-0.0891645
12.8919
-0.128751
14.8493
-0.183502
17.0192
-0.261474
19.3503
-0.385044
21.8207
-0.548058
20.531
-0.735524
16.2695
-0.950285
13.055
-1.1967
10.559
-1.43356
8.48213
-1.58961
6.54583
-1.85559
4.93692
-2.32528
4.12505
-2.70816
3.41677
2.72268
-3.00516
0.0126916
3.87933
0.00026816
6.78965
-0.0182364
8.17918
-0.0406995
9.6144
-0.0629775
11.1512
-0.0907298
12.9197
-0.130935
14.8895
-0.185464
17.0737
-0.264137
19.4289
-0.39028
21.9468
-0.560493
20.7012
-0.750225
16.4593
-0.949945
13.2547
-1.1817
10.7907
-1.45062
8.75106
-1.69955
6.79475
-1.96338
5.20075
-2.38962
4.55129
-2.88342
3.91056
2.93098
-3.09172
0.00353143
3.8758
-0.0047237
6.79791
-0.0155282
8.18998
-0.0344571
9.63333
-0.059875
11.1766
-0.0907822
12.9506
-0.131482
14.9302
-0.186047
17.1282
-0.264685
19.5076
-0.391349
22.0735
-0.563118
20.873
-0.750253
16.6464
-0.953926
13.4584
-1.16516
11.002
-1.38668
8.97258
-1.63205
7.04013
-2.14235
5.71106
-2.53472
4.94366
-3.04126
4.4171
3.69271
-3.80299
0.00857461
3.86723
0.000874207
6.80561
-0.0141065
8.20496
-0.0357195
9.65495
-0.0602324
11.2011
-0.0914152
12.9818
-0.131203
14.97
-0.184666
17.1817
-0.26045
19.5834
-0.380869
22.1939
-0.538175
21.0303
-0.708948
16.8172
-0.896213
13.6457
-1.08848
11.1943
-1.2519
9.136
-1.49083
7.27906
-1.85982
6.08005
-2.04419
5.12802
-1.49212
3.86503
2.20059
0.0173775
3.84985
0.00419689
6.81879
-0.0150589
8.22422
-0.0374073
9.67729
-0.0619882
11.2257
-0.0918906
13.0117
-0.132595
15.0107
-0.18829
17.2374
-0.267072
19.6621
-0.390274
22.3171
-0.546264
21.1863
-0.714104
16.985
-0.893506
13.8251
-1.0624
11.3631
-1.15518
9.22878
-1.23309
7.35697
-1.19961
6.04657
-1.06511
4.99352
-0.736087
3.536
1.46451
0.0112485
3.8386
0.00439329
6.82564
-0.00768402
8.2363
-0.0304403
9.70005
-0.0577321
11.253
-0.0886763
13.0426
-0.131444
15.0534
-0.188517
17.2945
-0.268201
19.7418
-0.391333
22.4402
-0.54534
21.3403
-0.704427
17.1441
-0.858804
13.9795
-0.973581
11.4779
-1.0106
9.2658
-1.02014
7.36651
-1.05314
6.07957
-1.02381
4.96418
-0.826776
3.33897
0.637732
0.0151757
3.82343
0.00761453
6.8332
-0.00517554
8.24909
-0.0262928
9.72117
-0.0532424
11.2799
-0.0829903
13.0724
-0.126415
15.0969
-0.183939
17.352
-0.262994
19.8209
-0.383133
22.5604
-0.529522
21.4867
-0.669987
17.2846
-0.786935
14.0964
-0.843498
11.5345
-0.889134
9.31143
-0.917479
7.39486
-0.96035
6.12244
-0.887582
4.89142
-0.404059
2.85545
0.233672
0.0197867
3.80364
0.0160094
6.83698
0.00188834
8.26321
-0.0217143
9.74477
-0.0468413
11.305
-0.0750265
13.1006
-0.119204
15.141
-0.174901
17.4077
-0.251221
19.8972
-0.364672
22.6738
-0.497224
21.6192
-0.609599
17.397
-0.682389
14.1692
-0.73957
11.5917
-0.783055
9.35492
-0.814251
7.42605
-0.802715
6.11091
-0.607662
4.69636
-0.178598
2.42639
0.0550748
0.0244805
3.77916
0.018763
6.8427
0.0079359
8.27403
-0.014909
9.76762
-0.036001
11.3261
-0.0635094
13.1281
-0.108229
15.1858
-0.158441
17.4579
-0.230389
19.9691
-0.333313
22.7768
-0.444125
21.7301
-0.525159
17.478
-0.57568
14.2197
-0.623282
11.6393
-0.630784
9.36242
-0.651498
7.44677
-0.576198
6.03561
-0.409347
4.52951
-0.160222
2.17726
-0.105147
0.0286844
3.75047
0.0309974
6.84039
0.019315
8.28572
-0.00383261
9.79076
-0.0179777
11.3403
-0.0487043
13.1588
-0.0914576
15.2285
-0.135116
17.5016
-0.200588
20.0346
-0.289583
22.8657
-0.375516
21.816
-0.431325
17.5338
-0.469851
14.2582
-0.477553
11.647
-0.459713
9.34458
-0.437232
7.42429
-0.355267
5.95364
-0.218737
4.39298
-0.0462026
2.00473
-0.15135
0.0366337
3.71384
0.0381036
6.83892
0.0300664
8.29375
0.0118477
9.80898
0.0046283
11.3475
-0.0296728
13.1931
-0.0628934
15.2617
-0.101681
17.5404
-0.159103
20.092
-0.231832
22.9385
-0.296381
21.8805
-0.333807
17.5712
-0.34522
14.2696
-0.305587
11.6073
-0.243275
9.28227
-0.148978
7.32999
-0.0630376
5.8677
0.041193
4.28875
0.0785683
1.96735
-0.0727813
0.0448969
3.66894
0.0566146
6.8272
0.0516631
8.2987
0.039242
9.8214
0.0250102
11.3617
-0.00675861
13.2249
-0.0228251
15.2778
-0.0594336
17.577
-0.106847
20.1395
-0.162496
22.9941
-0.20487
21.9229
-0.21967
17.586
-0.196917
14.2469
-0.128865
11.5393
-0.0315077
9.18491
0.0944485
7.20403
0.224774
5.73738
0.287262
4.22626
0.159478
2.09514
0.086697
0.0561484
3.61279
0.0689143
6.81443
0.0719973
8.29562
0.0668039
9.8266
0.0572769
11.3713
0.0424421
13.2397
0.0283708
15.2919
-0.00703117
17.6124
-0.0420689
20.1745
-0.0804326
23.0325
-0.101203
21.9437
-0.0915852
17.5764
-0.0412854
14.1966
0.0445179
11.4535
0.149227
9.0802
0.255972
7.09729
0.360878
5.63247
0.420965
4.16618
0.247701
2.2684
0.334398
0.0702604
3.54253
0.0989383
6.78575
0.107642
8.28692
0.104959
9.82928
0.10331
11.3729
0.100255
13.2428
0.0897882
15.3023
0.0708862
17.6313
0.0428726
20.2025
0.0128405
23.0625
0.00727158
21.9493
0.0412759
17.5424
0.113912
14.124
0.200903
11.3665
0.273742
9.00736
0.343959
7.02707
0.421251
5.55518
0.450886
4.13654
0.292121
2.42716
0.626519
0.0849898
3.45754
0.12112
6.74962
0.142607
8.26543
0.154312
9.81758
0.165117
11.3621
0.172123
13.2357
0.16998
15.3045
0.167744
17.6335
0.154662
20.2156
0.138497
23.0787
0.143732
21.944
0.178778
17.5074
0.227336
14.0754
0.270462
11.3234
0.300304
8.97752
0.3412
6.98617
0.393421
5.50296
0.407564
4.1224
0.272082
2.56265
0.898602
0.110224
3.34732
0.171081
6.68877
0.202332
8.23418
0.221737
9.79817
0.243098
11.3407
0.260768
13.2181
0.271478
15.2938
0.283501
17.6215
0.28191
20.2172
0.275245
23.0854
0.281219
21.938
0.295266
17.4933
0.306494
14.0642
0.321668
11.3082
0.336668
8.96252
0.358195
6.96465
0.383741
5.47741
0.361209
4.14493
0.217396
2.70646
1.116
0.137098
3.21022
0.21416
6.61171
0.264943
8.1834
0.307072
9.75604
0.34414
11.3037
0.374535
13.1877
0.403865
15.2644
0.425984
17.5994
0.434429
20.2087
0.431002
23.0888
0.421853
21.9472
0.412537
17.5026
0.412668
14.064
0.416428
11.3044
0.403799
8.97515
0.377998
6.99045
0.362171
5.49324
0.307004
4.2001
0.168563
2.8449
1.28456
0.183523
3.0267
0.300457
6.49477
0.367561
8.11629
0.421105
9.7025
0.4694
11.2554
0.516404
13.1407
0.56565
15.2152
0.598384
17.5666
0.615889
20.1912
0.611811
23.0929
0.592414
21.9666
0.578526
17.5165
0.570401
14.0722
0.551513
11.3233
0.499387
9.02728
0.429718
7.06012
0.377303
5.54565
0.295989
4.28141
0.150319
2.99057
1.43488
0.230641
2.79606
0.381915
6.3435
0.481137
8.01707
0.565847
9.61779
0.63455
11.1867
0.700409
13.0748
0.766063
15.1495
0.815307
17.5174
0.844083
20.1625
0.844179
23.0928
0.821482
21.9893
0.791738
17.5463
0.753245
14.1107
0.702961
11.3736
0.618996
9.11124
0.510899
7.16822
0.421699
5.63485
0.313257
4.38985
0.154267
3.14956
1.58915
0.323825
2.47223
0.538937
6.12839
0.665333
7.89067
0.765688
9.51743
0.845821
11.1065
0.932943
12.9877
1.02008
15.0624
1.08826
17.4492
1.12958
20.1211
1.13556
23.0868
1.09746
22.0274
1.03577
17.6079
0.965109
14.1813
0.89475
11.444
0.803085
9.2029
0.66443
7.30687
0.526308
5.77298
0.368785
4.54738
0.169168
3.34918
1.75831
0.419989
2.05224
0.712793
5.83558
0.878443
7.72502
1.01394
9.38193
1.12319
10.9973
1.23917
12.8717
1.35086
14.9507
1.44068
17.3594
1.49841
20.0634
1.50244
23.0827
1.43553
22.0943
1.33927
17.7042
1.2319
14.2887
1.11315
11.5627
0.98701
9.32904
0.794753
7.49913
0.594082
5.97365
0.384497
4.75696
0.161637
3.57204
1.91995
0.656709
1.39553
1.02191
5.47038
1.21789
7.52904
1.36912
9.23071
1.49392
10.8725
1.63429
12.7314
1.77402
14.811
1.88933
17.2441
1.96372
19.989
1.97258
23.0739
1.88993
22.177
1.75862
17.8355
1.60103
14.4463
1.41417
11.7496
1.23231
9.51089
0.995394
7.73605
0.740328
6.22871
0.477052
5.02024
0.202723
3.84637
2.12267
0.759229
0.636306
1.31771
4.9119
1.58708
7.25967
1.79514
9.02265
1.97369
10.694
2.15405
12.551
2.33153
14.6335
2.48181
17.0938
2.59125
19.8796
2.62358
23.0416
2.53437
22.2662
2.36631
18.0036
2.15864
14.654
1.90519
12.003
1.64329
9.77279
1.33242
8.04692
0.986284
6.57485
0.639941
5.36658
0.290648
4.19566
2.41332
0.534468
0.101838
1.18285
4.26352
1.56241
6.88011
1.79067
8.79439
1.94514
10.5395
2.07128
12.4249
2.17858
14.5262
2.2548
17.0176
2.26634
19.868
2.17345
23.1344
1.99048
22.4491
1.77863
18.2154
1.56135
14.8712
1.32938
12.235
1.09404
10.0081
0.884607
8.25635
0.659802
6.79965
0.44231
5.58407
0.210096
4.42787
2.62342
0.00838807
0.0934496
0.324874
3.94704
0.64973
6.55525
0.916006
8.52812
1.16388
10.2916
1.36122
12.2275
1.53562
14.3518
1.67326
16.8799
1.7371
19.8042
1.69342
23.1781
1.5553
22.5873
1.37292
18.3978
1.18454
15.0596
0.992985
12.4265
0.791327
10.2098
0.604059
8.44362
0.4316
6.97211
0.26777
5.7479
0.110518
4.58513
2.73394
-0.319462
0.412911
-0.324427
3.952
-0.0943866
6.32521
0.217302
8.21643
0.522499
9.9864
0.783964
11.9661
1.00803
14.1277
1.17617
16.7118
1.27443
19.7059
1.28346
23.1691
1.19445
22.6763
1.04885
18.5434
0.890567
15.2179
0.736273
12.5808
0.569851
10.3762
0.426148
8.58732
0.288634
7.10963
0.162471
5.87406
0.0537636
4.69383
2.7877
-0.359165
0.772076
-0.390225
3.98306
-0.268288
6.20327
-0.0704786
8.01862
0.152024
9.7639
0.386673
11.7314
0.609334
13.9051
0.788154
16.533
0.910508
19.5836
0.951329
23.1283
0.901886
22.7257
0.793151
18.6521
0.666393
15.3447
0.546258
12.701
0.414332
10.5081
0.305218
8.69644
0.204535
7.21031
0.115711
5.96289
0.0300668
4.77948
2.81777
-0.311518
1.08359
-0.343817
4.01536
-0.274181
6.13364
-0.168923
7.91336
-0.00883125
9.60381
0.17878
11.5438
0.358924
13.7249
0.51548
16.3764
0.639538
19.4595
0.697352
23.0705
0.67257
22.7505
0.594723
18.73
0.498178
15.4412
0.410176
12.789
0.30979
10.6085
0.223768
8.78246
0.14131
7.29277
0.065032
6.03916
-0.00635969
4.85087
2.81141
-0.248419
1.33201
-0.318471
4.08541
-0.26401
6.07918
-0.159488
7.80884
-0.0363067
9.48063
0.0952924
11.4122
0.222258
13.598
0.340635
16.2581
0.448946
19.3512
0.508426
23.011
0.498875
22.76
0.446262
18.7826
0.374436
15.513
0.308965
12.8544
0.2297
10.6878
0.15573
8.85643
0.0815892
7.36691
0.0112101
6.10954
-0.0362823
4.89836
2.77512
-0.189084
1.5211
-0.276206
4.17253
-0.238908
6.04188
-0.145853
7.71579
-0.0343794
9.36915
0.060341
11.3175
0.148362
13.5099
0.23976
16.1667
0.324326
19.2666
0.373774
22.9615
0.370684
22.7631
0.335563
18.8177
0.280015
15.5686
0.223174
12.9113
0.156431
10.7545
0.0940875
8.91877
0.0312318
7.42976
-0.0229139
6.16369
-0.0555546
4.931
2.71957
-0.140854
1.66195
-0.214524
4.2462
-0.20324
6.03059
-0.143057
7.6556
-0.0568132
9.28291
0.0199646
11.2407
0.100454
13.4294
0.178518
16.0886
0.243399
19.2018
0.277893
22.927
0.275094
22.7659
0.248464
18.8443
0.203233
15.6138
0.152575
12.9619
0.0935578
10.8135
0.0393561
8.97298
-0.00813676
7.47726
-0.0485671
6.20412
-0.0601575
4.94259
2.65941
-0.102531
1.76448
-0.166457
4.31013
-0.170391
6.03453
-0.140984
7.62619
-0.094253
9.23618