/*--------------------------------*- C++ -*----------------------------------*\
| =========                 |                                                 |
| \\      /  F ield         | OpenFOAM: The Open Source CFD Toolbox           |
|  \\    /   O peration     | Version:  2412                                  |
|   \\  /    A nd           | Website:  www.openfoam.com                      |
|    \\/     M anipulation  |                                                 |
\*---------------------------------------------------------------------------*/
FoamFile
{
    version     2.0;
    format      ascii;
    arch        "LSB;label=32;scalar=64";
    class       volVectorField;
    location    "4.25";
    object      U;
}
// * * * * * * * * * * * * * * * * * * * * * * * * * * * * * * * * * * * * * //

dimensions      [0 1 -1 0 0 0 0];

internalField   nonuniform List<vector> 
2200
(
(0.371621 -0.000194472 0)
(1.19212 -0.00148416 0)
(2.1218 0.000341846 0)
(3.16838 0.000759389 0)
(4.3251 0.00159568 0)
(5.57196 0.00185242 0)
(6.86529 0.00259002 0)
(8.12201 0.00302182 0)
(9.20694 0.00355915 0)
(9.90075 0.00299182 0)
(9.90093 0.00202297 0)
(9.20706 0.00134611 0)
(8.12137 0.00125585 0)
(6.86423 0.000810134 0)
(5.57197 0.000735361 0)
(4.32521 0.000756099 0)
(3.16801 0.000569693 0)
(2.12167 0.000783585 0)
(1.19149 0.00245364 0)
(0.370305 0.000398547 0)
(0.37379 0.00394934 0)
(1.18533 -5.5885e-06 0)
(2.12175 0.00245497 0)
(3.16913 0.00316838 0)
(4.3263 0.00498287 0)
(5.57123 0.00822443 0)
(6.86275 0.00842024 0)
(8.12003 0.00886891 0)
(9.20619 0.0088065 0)
(9.89951 0.00837719 0)
(9.89917 0.0071385 0)
(9.20471 0.00536336 0)
(8.11887 0.00321582 0)
(6.86193 0.00199741 0)
(5.57015 0.00077183 0)
(4.32372 0.000484165 0)
(3.16689 0.000520214 0)
(2.11766 9.55211e-05 0)
(1.18141 0.00161152 0)
(0.370199 -0.00376836 0)
(0.386298 0.00723287 0)
(1.18519 0.00575719 0)
(2.12449 0.00774731 0)
(3.1725 0.0084888 0)
(4.3268 0.0122638 0)
(5.57439 0.0137278 0)
(6.86348 0.0157413 0)
(8.11846 0.0162914 0)
(9.20356 0.0163162 0)
(9.8953 0.0141243 0)
(9.89549 0.0103918 0)
(9.20101 0.00642009 0)
(8.1156 0.00317002 0)
(6.85935 0.000904957 0)
(5.56808 -0.000996108 0)
(4.32145 -0.00178932 0)
(3.16547 -0.00154132 0)
(2.11636 -0.00321067 0)
(1.17518 -0.00328334 0)
(0.378723 -0.00689466 0)
(0.421944 0.00884259 0)
(1.19311 0.0147174 0)
(2.13614 0.0164202 0)
(3.17844 0.0205022 0)
(4.33063 0.0232708 0)
(5.57409 0.0229383 0)
(6.86322 0.0240578 0)
(8.11732 0.0239596 0)
(9.20165 0.0234336 0)
(9.89047 0.019676 0)
(9.89047 0.0139365 0)
(9.19557 0.00751603 0)
(8.10988 0.00263098 0)
(6.854 -0.00201362 0)
(5.56269 -0.0046272 0)
(4.31905 -0.0077871 0)
(3.16502 -0.00854038 0)
(2.12071 -0.00789516 0)
(1.17571 -0.0111646 0)
(0.408534 -0.00706347 0)
(0.474794 0.00637924 0)
(1.21298 0.0257824 0)
(2.15743 0.0231621 0)
(3.19292 0.0364167 0)
(4.34647 0.0330398 0)
(5.58111 0.036939 0)
(6.86584 0.0333083 0)
(8.11537 0.0326227 0)
(9.19819 0.0291486 0)
(9.88413 0.0241368 0)
(9.883 0.0170798 0)
(9.18797 0.00972417 0)
(8.10338 0.000306851 0)
(6.84984 -0.00517349 0)
(5.56098 -0.0120953 0)
(4.32169 -0.0140038 0)
(3.16427 -0.0210969 0)
(2.12626 -0.0144547 0)
(1.18522 -0.0213686 0)
(0.448211 -0.00511954 0)
(0.53514 0.00254384 0)
(1.25917 0.0334134 0)
(2.16785 0.0301196 0)
(3.20593 0.0425229 0)
(4.36191 0.047095 0)
(5.59622 0.0513196 0)
(6.87512 0.0486839 0)
(8.11879 0.0452995 0)
(9.19835 0.0402146 0)
(9.87746 0.0316404 0)
(9.87647 0.0190822 0)
(9.18151 0.00667586 0)
(8.09834 -0.00428218 0)
(6.84744 -0.0144392 0)
(5.56326 -0.0230117 0)
(4.32323 -0.0251818 0)
(3.16759 -0.0254301 0)
(2.12331 -0.0215237 0)
(1.21719 -0.0292229 0)
(0.50268 -0.00143201 0)
(0.595244 0.00196186 0)
(1.33575 0.0362385 0)
(2.16601 0.0400842 0)
(3.22416 0.0403873 0)
(4.3695 0.0567968 0)
(5.60527 0.0583724 0)
(6.88126 0.0610075 0)
(8.1228 0.0564821 0)
(9.19828 0.049106 0)
(9.8707 0.0371006 0)
(9.86773 0.0217792 0)
(9.17376 0.00546733 0)
(8.0937 -0.00907418 0)
(6.84282 -0.0193595 0)
(5.55984 -0.024321 0)
(4.31729 -0.0289938 0)
(3.16875 -0.0236476 0)
(2.10723 -0.0296163 0)
(1.27991 -0.0308055 0)
(0.549763 -0.000318109 0)
(0.657078 0.00552314 0)
(1.41349 0.0344407 0)
(2.16152 0.051156 0)
(3.24398 0.0366887 0)
(4.37631 0.0568242 0)
(5.6158 0.061964 0)
(6.88903 0.0683019 0)
(8.12833 0.0686089 0)
(9.20041 0.0617759 0)
(9.86249 0.045952 0)
(9.85925 0.0244183 0)
(9.16678 0.00290898 0)
(8.08763 -0.0132898 0)
(6.83752 -0.0213504 0)
(5.55447 -0.0244626 0)
(4.31186 -0.0288928 0)
(3.1673 -0.0202003 0)
(2.08304 -0.0376523 0)
(1.34304 -0.0284534 0)
(0.598046 -0.003673 0)
(0.727245 0.00936459 0)
(1.49632 0.0331858 0)
(2.1667 0.0623317 0)
(3.26063 0.0407343 0)
(4.39168 0.0573774 0)
(5.62473 0.0676079 0)
(6.89455 0.0786814 0)
(8.12894 0.080207 0)
(9.19907 0.0757101 0)
(9.85294 0.0559515 0)
(9.8478 0.0245026 0)
(9.15498 -0.00251859 0)
(8.07584 -0.0167996 0)
(6.82772 -0.0264018 0)
(5.5467 -0.027756 0)
(4.3097 -0.0326476 0)
(3.16329 -0.0213185 0)
(2.07053 -0.0490735 0)
(1.41056 -0.0260145 0)
(0.653755 -0.00774547 0)
(0.806307 0.0131475 0)
(1.58766 0.0356703 0)
(2.18651 0.0775185 0)
(3.27088 0.0601153 0)
(4.42148 0.0754879 0)
(5.6304 0.0837445 0)
(6.89426 0.0906543 0)
(8.11883 0.0915873 0)
(9.1876 0.0876796 0)
(9.83315 0.0653071 0)
(9.82753 0.0294107 0)
(9.1311 -0.00196351 0)
(8.05077 -0.0182151 0)
(6.80961 -0.0302787 0)
(5.53471 -0.0382454 0)
(4.31682 -0.0428209 0)
(3.15803 -0.0360552 0)
(2.07402 -0.0639255 0)
(1.48531 -0.0277805 0)
(0.717075 -0.0111614 0)
(0.909057 0.0174533 0)
(1.70613 0.0454114 0)
(2.24561 0.10114 0)
(3.29095 0.105542 0)
(4.47074 0.115186 0)
(5.64028 0.118788 0)
(6.88709 0.110484 0)
(8.09676 0.109264 0)
(9.16165 0.100674 0)
(9.79344 0.0744822 0)
(9.78643 0.0333582 0)
(9.09315 -0.00234791 0)
(8.01559 -0.0265671 0)
(6.78337 -0.042513 0)
(5.51887 -0.0658266 0)
(4.33307 -0.0740378 0)
(3.14185 -0.0766728 0)
(2.10584 -0.0857434 0)
(1.5779 -0.0367956 0)
(0.797485 -0.015251 0)
(1.02938 0.0219628 0)
(1.84174 0.0527786 0)
(2.34507 0.126005 0)
(3.30629 0.138038 0)
(4.49309 0.152905 0)
(5.6515 0.157628 0)
(6.87911 0.14514 0)
(8.07477 0.137081 0)
(9.12834 0.118319 0)
(9.74534 0.0866809 0)
(9.73726 0.037739 0)
(9.04344 -0.00438614 0)
(7.97091 -0.0403228 0)
(6.74989 -0.0675003 0)
(5.50551 -0.0977544 0)
(4.33078 -0.107896 0)
(3.13359 -0.113063 0)
(2.18418 -0.108713 0)
(1.69991 -0.0447469 0)
(0.905049 -0.0187709 0)
(1.19195 0.023952 0)
(2.02066 0.0615654 0)
(2.47147 0.141747 0)
(3.35118 0.170395 0)
(4.51144 0.182261 0)
(5.67451 0.196223 0)
(6.87799 0.190708 0)
(8.05324 0.172128 0)
(9.08648 0.143998 0)
(9.67596 0.103079 0)
(9.6635 0.0421545 0)
(8.98233 -0.0131726 0)
(7.93007 -0.0614307 0)
(6.72096 -0.101516 0)
(5.4943 -0.124405 0)
(4.30791 -0.130625 0)
(3.14001 -0.137933 0)
(2.28349 -0.121293 0)
(1.84026 -0.0491761 0)
(1.02985 -0.019725 0)
(1.34497 0.0266864 0)
(2.19387 0.0638221 0)
(2.61966 0.157004 0)
(3.41617 0.198324 0)
(4.53635 0.217888 0)
(5.70862 0.228876 0)
(6.88781 0.245949 0)
(8.04794 0.2221 0)
(9.06082 0.185664 0)
(9.61506 0.126411 0)
(9.60028 0.0415389 0)
(8.93731 -0.0349696 0)
(7.89016 -0.0905811 0)
(6.69474 -0.140057 0)
(5.49086 -0.147489 0)
(4.29252 -0.163294 0)
(3.17442 -0.164015 0)
(2.40657 -0.133994 0)
(2.00429 -0.0534475 0)
(1.17057 -0.0209321 0)
(1.55871 0.0269593 0)
(2.43229 0.0769012 0)
(2.80604 0.175882 0)
(3.51726 0.232106 0)
(4.57502 0.263357 0)
(5.74614 0.268756 0)
(6.8948 0.289216 0)
(8.04197 0.270861 0)
(9.04839 0.233883 0)
(9.57511 0.157259 0)
(9.55744 0.039604 0)
(8.8995 -0.0571016 0)
(7.84646 -0.119051 0)
(6.6642 -0.167151 0)
(5.48547 -0.17249 0)
(4.28577 -0.20153 0)
(3.23315 -0.186771 0)
(2.55139 -0.144292 0)
(2.18526 -0.0574404 0)
(1.31955 -0.0218197 0)
(1.73404 0.0285057 0)
(2.65034 0.0752009 0)
(3.0042 0.187067 0)
(3.63823 0.255704 0)
(4.62854 0.313556 0)
(5.78365 0.307581 0)
(6.89387 0.31874 0)
(8.02065 0.302499 0)
(9.01713 0.264695 0)
(9.52336 0.185953 0)
(9.4999 0.0479706 0)
(8.84277 -0.0519567 0)
(7.77666 -0.118883 0)
(6.61462 -0.172957 0)
(5.46336 -0.199831 0)
(4.28218 -0.236774 0)
(3.31326 -0.207945 0)
(2.71884 -0.159096 0)
(2.39077 -0.0622345 0)
(1.48378 -0.0209629 0)
(1.98862 0.0307088 0)
(2.94054 0.0922577 0)
(3.24778 0.207428 0)
(3.79288 0.282223 0)
(4.6915 0.348172 0)
(5.80603 0.353978 0)
(6.88663 0.354398 0)
(7.97705 0.329911 0)
(8.94047 0.285477 0)
(9.4112 0.21174 0)
(9.38225 0.0654293 0)
(8.72961 -0.0325877 0)
(7.68105 -0.115943 0)
(6.55021 -0.182932 0)
(5.4247 -0.232515 0)
(4.287 -0.267845 0)
(3.41336 -0.220063 0)
(2.90713 -0.16071 0)
(2.60533 -0.0620487 0)
(1.63956 -0.0181368 0)
(2.19473 0.0286312 0)
(3.20571 0.0855203 0)
(3.49976 0.215128 0)
(3.97395 0.304869 0)
(4.78413 0.396591 0)
(5.83476 0.415978 0)
(6.89094 0.409834 0)
(7.9434 0.391246 0)
(8.83956 0.340763 0)
(9.25553 0.25127 0)
(9.21783 0.0803021 0)
(8.59312 -0.0389316 0)
(7.58522 -0.136434 0)
(6.47688 -0.213243 0)
(5.36926 -0.269937 0)
(4.30901 -0.291307 0)
(3.54122 -0.237547 0)
(3.11721 -0.171386 0)
(2.84297 -0.0661131 0)
(1.80742 -0.0150277 0)
(2.46967 0.0349173 0)
(3.54007 0.107086 0)
(3.79418 0.238708 0)
(4.19114 0.337145 0)
(4.90217 0.439951 0)
(5.87658 0.477275 0)
(6.90597 0.48948 0)
(7.93725 0.475144 0)
(8.76354 0.420973 0)
(9.13027 0.302886 0)
(9.08017 0.0950727 0)
(8.47765 -0.0612832 0)
(7.49858 -0.165209 0)
(6.4024 -0.252725 0)
(5.32226 -0.312357 0)
(4.35624 -0.322002 0)
(3.69466 -0.247205 0)
(3.34786 -0.170943 0)
(3.09011 -0.0622552 0)
(1.95524 -0.00934885 0)
(2.7367 0.0295244 0)
(3.86746 0.101918 0)
(4.11691 0.249881 0)
(4.44633 0.367595 0)
(5.06749 0.488171 0)
(5.94346 0.556207 0)
(6.93441 0.574473 0)
(7.93393 0.557912 0)
(8.69155 0.497666 0)
(9.01652 0.35955 0)
(8.94785 0.121619 0)
(8.35991 -0.0614561 0)
(7.39667 -0.181739 0)
(6.3181 -0.28623 0)
(5.28633 -0.345129 0)
(4.43142 -0.334918 0)
(3.87451 -0.25846 0)
(3.59968 -0.170051 0)
(3.36054 -0.0590272 0)
(2.08946 -0.00117633 0)
(3.01034 0.0360963 0)
(4.25674 0.119144 0)
(4.47436 0.269767 0)
(4.73961 0.397087 0)
(5.26407 0.539927 0)
(6.04168 0.624817 0)
(6.96755 0.660475 0)
(7.90602 0.641306 0)
(8.58769 0.564369 0)
(8.8671 0.422278 0)
(8.77706 0.158734 0)
(8.2064 -0.0307967 0)
(7.26182 -0.188847 0)
(6.21786 -0.309855 0)
(5.26631 -0.363532 0)
(4.52974 -0.337563 0)
(4.07528 -0.245245 0)
(3.86908 -0.152802 0)
(3.62137 -0.0420256 0)
(2.176 0.00788904 0)
(3.35695 0.0354199 0)
(4.64422 0.122759 0)
(4.86814 0.285116 0)
(5.07107 0.431236 0)
(5.50672 0.58771 0)
(6.16892 0.703268 0)
(7.00335 0.764713 0)
(7.86622 0.738154 0)
(8.45488 0.638909 0)
(8.67988 0.502929 0)
(8.56159 0.205484 0)
(8.00129 0.0119771 0)
(7.09026 -0.196321 0)
(6.11061 -0.329463 0)
(5.26168 -0.364215 0)
(4.65673 -0.328894 0)
(4.29861 -0.235981 0)
(4.13788 -0.138348 0)
(3.88363 -0.0342855 0)
(2.21904 0.0194922 0)
(3.64322 0.0449796 0)
(5.09183 0.139483 0)
(5.28814 0.311846 0)
(5.43991 0.468103 0)
(5.78799 0.645763 0)
(6.32864 0.790682 0)
(7.0497 0.875673 0)
(7.81241 0.848214 0)
(8.30983 0.735265 0)
(8.49248 0.596573 0)
(8.3409 0.267898 0)
(7.78024 0.0582123 0)
(6.9062 -0.193395 0)
(6.01376 -0.333628 0)
(5.27731 -0.351769 0)
(4.80211 -0.297303 0)
(4.52354 -0.209332 0)
(4.40469 -0.119947 0)
(4.14475 -0.0213025 0)
(2.21791 0.0239499 0)
(4.11411 0.0494834 0)
(5.54795 0.162702 0)
(5.75361 0.33389 0)
(5.84828 0.515318 0)
(6.11035 0.714896 0)
(6.53334 0.879815 0)
(7.11471 0.990771 0)
(7.76108 0.97198 0)
(8.17143 0.859043 0)
(8.31005 0.695874 0)
(8.10842 0.34957 0)
(7.53251 0.108686 0)
(6.7008 -0.158124 0)
(5.92073 -0.288229 0)
(5.31882 -0.291023 0)
(4.94912 -0.234286 0)
(4.73674 -0.147165 0)
(4.63316 -0.0659221 0)
(4.36449 0.000802278 0)
(2.19613 0.0270004 0)
(4.45617 0.0747585 0)
(6.05853 0.188101 0)
(6.22291 0.394612 0)
(6.27242 0.589725 0)
(6.44889 0.804453 0)
(6.74714 0.987827 0)
(7.1839 1.1174 0)
(7.71131 1.11553 0)
(8.02566 1.00194 0)
(8.10847 0.810981 0)
(7.85768 0.457196 0)
(7.27782 0.183051 0)
(6.5103 -0.0764628 0)
(5.85853 -0.188101 0)
(5.38729 -0.182234 0)
(5.09533 -0.130963 0)
(4.92991 -0.0576623 0)
(4.83992 0.00103125 0)
(4.43707 0.073009 0)
(2.11184 0.0377555 0)
(5.26165 0.127228 0)
(6.5905 0.293573 0)
(6.73485 0.501239 0)
(6.70962 0.729113 0)
(6.80154 0.955038 1.91716e-33)
(6.98001 1.14331 -1.37558e-33)
(7.28082 1.27782 0)
(7.66679 1.27528 0)
(7.87854 1.15828 0)
(7.88806 0.943842 0)
(7.58863 0.582448 0)
(7.00945 0.280778 0)
(6.32207 0.04593 0)
(5.79508 -0.0461031 0)
(5.4285 -0.0373964 0)
(5.20627 -0.000408291 0)
(5.08351 0.0651815 0)
(4.99245 0.0968063 0)
(4.3727 0.111696 0)
(1.75943 0.0595491 0)
(5.94552 0.300225 -2.81993e-19)
(7.13586 0.425137 2.35311e-19)
(7.18202 0.728178 0)
(7.09586 0.968026 1.42276e-20)
(7.11536 1.1686 -1.14705e-20)
(7.20574 1.344 1.45835e-33)
(7.38289 1.46235 0)
(7.59638 1.46084 1.6397e-19)
(7.71486 1.33856 -6.15987e-19)
(7.63147 1.10749 1.37971e-19)
(7.2789 0.755012 0)
(6.7257 0.45339 -4.98106e-19)
(6.16072 0.260588 -6.11131e-19)
(5.76951 0.187268 1.06793e-18)
(5.50655 0.181395 -8.57388e-19)
(5.33493 0.195965 0)
(5.21295 0.203259 -3.28203e-19)
(5.02189 0.202887 0)
(4.23321 0.192846 -1.6305e-18)
(1.44764 0.07889 2.05358e-18)
(6.34556 0.600398 -6.96016e-20)
(7.55522 0.766204 -1.77748e-18)
(7.5609 1.0564 4.55353e-19)
(7.42481 1.2435 6.09543e-19)
(7.37307 1.41632 -9.67835e-21)
(7.38621 1.57573 4.28899e-20)
(7.44466 1.66981 0)
(7.51325 1.67901 0)
(7.53072 1.5613 1.01117e-18)
(7.36805 1.32338 0)
(6.97856 0.998165 1.75061e-18)
(6.4748 0.719889 5.42912e-19)
(6.01773 0.556046 -6.71042e-22)
(5.70135 0.48155 -1.24597e-18)
(5.47587 0.459779 0)
(5.33048 0.452898 0)
(5.23287 0.462766 -5.68595e-18)
(5.04605 0.435836 1.43935e-17)
(4.1793 0.353678 -7.96634e-18)
(1.39071 0.129382 -1.0029e-17)
(6.60522 0.946539 2.40661e-18)
(7.91172 1.29485 -8.59405e-19)
(7.87755 1.46156 -2.15922e-19)
(7.69491 1.58033 -1.16807e-18)
(7.58458 1.69921 4.67115e-19)
(7.50347 1.83257 2.35114e-20)
(7.46362 1.90898 1.36159e-19)
(7.42913 1.91028 0)
(7.35522 1.79875 -2.16881e-18)
(7.13252 1.56373 2.5295e-18)
(6.73063 1.2648 -4.79691e-18)
(6.27914 1.01766 2.34917e-18)
(5.90621 0.876113 -1.70796e-18)
(5.65256 0.80504 3.74913e-18)
(5.47694 0.772092 0)
(5.33387 0.747888 -1.46241e-18)
(5.19238 0.732883 0)
(4.96182 0.71638 8.3728e-18)
(4.13157 0.527501 -1.95154e-17)
(1.47772 0.254029 1.25095e-17)
(6.74228 1.29398 -1.07697e-17)
(8.12998 1.76816 5.92739e-18)
(8.10203 1.89165 8.76246e-19)
(7.90142 1.95439 0)
(7.74065 2.03266 6.37969e-19)
(7.58988 2.1263 -6.83894e-19)
(7.47027 2.17177 -1.86382e-19)
(7.34808 2.15473 0)
(7.1972 2.04407 1.54691e-18)
(6.92238 1.81728 -1.73336e-18)
(6.5194 1.53758 4.2532e-18)
(6.10163 1.31617 0)
(5.76525 1.18055 -3.623e-18)
(5.50892 1.09679 1.99567e-18)
(5.30503 1.0393 5.38693e-18)
(5.17039 1.00164 -4.74587e-18)
(5.06468 0.966265 7.86399e-18)
(4.90384 0.976309 -1.75159e-17)
(4.14548 0.744385 1.11394e-17)
(1.62925 0.361763 -1.40761e-17)
(6.79161 1.49005 7.20921e-18)
(8.28349 2.30627 -6.81747e-18)
(8.26077 2.31634 2.7385e-18)
(8.03795 2.33827 -3.7417e-18)
(7.83875 2.38314 2.49314e-18)
(7.64237 2.437 -3.92203e-19)
(7.45948 2.45165 1.11537e-19)
(7.26673 2.41212 -1.06921e-18)
(7.05358 2.29447 -1.61863e-18)
(6.7345 2.07539 -3.79968e-18)
(6.33652 1.80759 -9.18446e-18)
(5.94638 1.60406 -3.08381e-18)
(5.64975 1.4723 9.98834e-20)
(5.44048 1.39442 -7.20822e-18)
(5.29052 1.3396 -2.41096e-19)
(5.15218 1.3225 6.99666e-18)
(5.02184 1.23771 -2.17897e-18)
(4.79126 1.20387 -1.27383e-18)
(4.06553 0.932306 0)
(1.75295 0.473499 3.03249e-17)
(6.74059 1.796 0)
(8.31848 2.73853 1.91561e-18)
(8.34412 2.71296 0)
(8.11355 2.72169 -4.4637e-19)
(7.89304 2.73783 -3.04686e-18)
(7.66306 2.75541 6.16363e-19)
(7.42898 2.74109 9.41679e-20)
(7.18668 2.67663 1.93604e-18)
(6.92351 2.5475 -1.00911e-18)
(6.5672 2.3315 1.648e-18)
(6.17328 2.0702 4.95815e-18)
(5.79675 1.8764 6.82649e-18)
(5.50565 1.73635 -4.25534e-18)
(5.2757 1.63813 7.83463e-18)
(5.09637 1.54862 -6.28141e-18)
(4.97986 1.48449 0)
(4.88352 1.40503 -1.67498e-17)
(4.72658 1.40565 2.24746e-17)
(4.10719 1.13744 1.71663e-18)
(1.88128 0.598129 -3.22293e-17)
(6.7271 2.08424 -7.41937e-19)
(8.35416 3.16751 -5.58405e-18)
(8.39054 3.07858 -1.51623e-17)
(8.14765 3.08913 8.35113e-18)
(7.90452 3.08658 -1.76314e-18)
(7.64429 3.07476 9.38672e-19)
(7.37801 3.03021 -1.92048e-19)
(7.10173 2.9401 -2.07598e-19)
(6.8006 2.79772 -3.54072e-18)
(6.4167 2.58066 1.71425e-20)
(6.02514 2.3221 -5.39427e-18)
(5.6632 2.12924 -7.24761e-18)
(5.39901 1.9813 4.77248e-18)
(5.21846 1.87913 -2.82022e-18)
(5.09384 1.79988 6.8229e-18)
(4.95913 1.78839 0)
(4.85396 1.68715 -1.0363e-17)
(4.64783 1.66422 1.53297e-17)
(4.01707 1.336 2.98055e-17)
(1.93379 0.701507 -3.49667e-17)
(6.61442 2.3131 -2.66957e-17)
(8.31016 3.51362 1.30431e-17)
(8.39828 3.40557 9.73927e-18)
(8.13076 3.43752 -9.00674e-18)
(7.87288 3.42266 4.80198e-19)
(7.59809 3.38526 2.39197e-18)
(7.31537 3.31175 -1.87068e-19)
(7.01536 3.19912 -8.04102e-19)
(6.68689 3.04286 -2.25099e-18)
(6.28056 2.82104 3.79727e-18)
(5.89135 2.5608 5.11694e-18)
(5.54407 2.36292 1.13675e-17)
(5.28746 2.20576 0)
(5.07742 2.08337 2.03762e-19)
(4.90733 1.97386 -1.8884e-17)
(4.79048 1.90107 4.31433e-18)
(4.70246 1.8022 2.2203e-17)
(4.54068 1.78902 -6.42811e-18)
(3.99735 1.51445 1.42968e-17)
(1.91022 0.803359 -1.06773e-18)
(6.53115 2.58699 9.03753e-19)
(8.296 3.8545 1.20404e-17)
(8.37216 3.71406 7.22538e-18)
(8.07641 3.76564 -1.55366e-17)
(7.80727 3.73274 9.66649e-18)
(7.52973 3.67329 -2.85299e-18)
(7.23961 3.57878 1.10308e-19)
(6.92263 3.44955 1.83788e-18)
(6.5756 3.27955 3.93921e-18)
(6.15327 3.05034 -4.88113e-18)
(5.76532 2.78697 0)
(5.4231 2.58001 -4.43984e-18)
(5.17163 2.41125 5.0933e-18)
(4.99727 2.28694 6.84597e-18)
(4.8861 2.19079 -3.91439e-18)
(4.75639 2.15963 -9.91999e-18)
(4.65311 2.062 -3.0226e-18)
(4.46482 2.02473 -3.80585e-20)
(3.91665 1.656 0)
(1.86882 0.87081 0)
(6.40383 2.77813 -1.29814e-17)
(8.19812 4.15571 0)
(8.3046 4.00874 8.03846e-18)
(7.98743 4.07288 -3.71672e-18)
(7.7238 4.0153 -9.54247e-18)
(7.45004 3.93763 2.69509e-18)
(7.15302 3.82904 2.02892e-20)
(6.826 3.68748 -9.69662e-19)
(6.46829 3.50491 2.64997e-18)
(6.03466 3.26839 -1.96887e-18)
(5.64828 3.00033 2.85825e-18)
(5.31308 2.78249 1.37566e-17)
(5.06565 2.60685 5.26655e-19)
(4.86026 2.46442 -6.94764e-18)
(4.68445 2.33584 1.34637e-17)
(4.56799 2.2442 1.83808e-19)
(4.49277 2.14081 3.22725e-18)
(4.34529 2.10999 -1.58477e-17)
(3.84543 1.80333 1.62991e-17)
(1.81914 0.919612 -1.76745e-17)
(6.27813 2.99121 -1.06564e-20)
(8.13358 4.45321 0)
(8.21741 4.29993 0)
(7.88138 4.35737 3.17458e-18)
(7.63194 4.27106 3.69128e-18)
(7.35869 4.17858 -1.92483e-18)
(7.05688 4.06022 9.5156e-19)
(6.72533 3.90977 0)
(6.36069 3.71702 -4.23079e-18)
(5.91992 3.4736 7.14233e-18)
(5.53123 3.20147 8.58954e-18)
(5.18737 2.97283 -5.18443e-18)
(4.92872 2.78531 -6.48134e-18)
(4.7475 2.64036 1.53029e-17)
(4.63589 2.52323 -4.75368e-18)
(4.5209 2.46181 -5.78491e-18)
(4.42993 2.36403 -3.52959e-18)
(4.2584 2.28864 -1.71547e-17)
(3.76411 1.91602 2.3115e-18)
(1.76059 0.963403 1.90146e-17)
(6.13748 3.16358 -5.14914e-18)
(7.99926 4.72084 -7.12254e-18)
(8.11129 4.55278 9.75093e-19)
(7.77654 4.61443 8.85085e-20)
(7.53939 4.50181 1.004e-18)
(7.26449 4.40085 -5.03162e-18)
(6.95927 4.27458 0)
(6.62442 4.11675 8.4539e-19)
(6.25517 3.91507 -6.65224e-19)
(5.80917 3.66632 1.14959e-17)
(5.41495 3.39098 -2.16706e-18)
(5.06914 3.15314 2.37003e-18)
(4.81451 2.9542 0)
(4.61433 2.79152 -8.35065e-18)
(4.44386 2.64481 1.03788e-17)
(4.33084 2.53077 0)
(4.25451 2.41818 -7.79482e-18)
(4.10653 2.36121 2.27464e-17)
(3.65093 2.02441 2.76991e-18)
(1.68319 0.990681 -2.34576e-17)
(6.00348 3.31902 -1.07701e-17)
(7.9112 4.97147 1.3149e-17)
(8.00306 4.82634 0)
(7.67439 4.8631 7.58003e-18)
(7.44787 4.7187 0)
(7.16935 4.60719 4.62438e-18)
(6.86008 4.47308 0)
(6.5226 4.30878 0)
(6.14964 4.09964 -1.49845e-18)
(5.69952 3.84646 -1.11424e-17)
(5.2999 3.56886 -1.59901e-17)
(4.94675 3.32441 2.96498e-18)
(4.68229 3.11805 1.09859e-17)
(4.49335 2.95074 9.32874e-18)
(4.38033 2.80739 -3.31794e-17)
(4.27408 2.70999 -1.38103e-17)
(4.18641 2.61227 8.02044e-18)
(4.03452 2.4892 0)
(3.55605 2.10252 2.38376e-17)
(1.59949 1.01085 -2.52588e-17)
(5.87144 3.4697 1.17566e-17)
(7.77941 5.21864 -1.42747e-17)
(7.9044 5.0524 0)
(7.5763 5.09061 -4.00866e-19)
(7.35837 4.92416 -3.00121e-18)
(7.07764 4.80301 0)
(6.76412 4.65968 -1.32621e-19)
(6.42317 4.48804 9.76812e-19)
(6.04709 4.27134 -2.25826e-18)
(5.59486 4.01471 1.22708e-18)
(5.19047 3.73664 0)
(4.8348 3.48694 1.17812e-17)
(4.57361 3.27021 5.74112e-21)
(4.37278 3.08476 5.02676e-18)
(4.20054 2.91764 6.1336e-18)
(4.07719 2.77811 0)
(3.99579 2.65666 -1.364e-17)
(3.85949 2.55935 2.67453e-17)
(3.42334 2.18725 -2.89645e-17)
(1.49176 1.00903 5.46744e-17)
(5.7598 3.60724 0)
(7.68844 5.40471 0)
(7.79871 5.27098 -7.1644e-18)
(7.48515 5.30321 0)
(7.27523 5.11663 0)
(6.98829 4.98802 6.12854e-18)
(6.66921 4.8354 -1.82488e-19)
(6.32571 4.65564 5.84638e-19)
(5.94811 4.4319 -3.46158e-19)
(5.49552 4.17261 0)
(5.08828 3.89531 -2.53418e-18)
(4.72761 3.64354 -9.74446e-18)
(4.45397 3.42328 -1.21555e-17)
(4.24669 3.23755 -5.01342e-18)
(4.11276 3.07215 6.65317e-18)
(4.01152 2.93561 -1.57233e-17)
(3.92166 2.81261 2.92983e-17)
(3.76961 2.65167 5.32702e-19)
(3.29761 2.2231 -2.75969e-17)
(1.37321 0.995569 -3.73733e-18)
(5.65737 3.73751 0)
(7.57833 5.64408 -1.03345e-17)
(7.71988 5.4827 8.22319e-18)
(7.40314 5.50898 0)
(7.19441 5.30418 0)
(6.90295 5.16626 -1.34711e-17)
(6.58009 5.00314 0)
(6.23441 4.81426 0)
(5.85657 4.58308 -4.87961e-18)
(5.40487 4.32113 2.1593e-18)
(4.99424 4.04529 -2.08717e-17)
(4.62778 3.79276 0)
(4.34791 3.56594 -1.29109e-17)
(4.12735 3.36465 4.4962e-19)
(3.94219 3.17867 -2.07628e-17)
(3.80222 3.01797 8.51676e-18)
(3.71598 2.87603 2.0403e-19)
(3.58076 2.70823 -3.15181e-17)
(3.13107 2.2883 1.49588e-17)
(1.23231 0.953369 4.05568e-18)
(5.56428 3.85711 0)
(7.50554 5.79407 -1.21891e-17)
(7.62571 5.66895 8.46552e-18)
(7.32129 5.695 1.66717e-17)
(7.11387 5.48006 3.07393e-18)
(6.81806 5.33491 -1.77926e-18)
(6.49259 5.16209 1.14311e-18)
(6.14766 4.96416 7.62142e-19)
(5.77158 4.72614 5.22811e-18)
(5.32078 4.46179 1.47388e-17)
(4.90596 4.1873 1.7349e-17)
(4.53269 3.93645 3.2177e-18)
(4.23907 3.71148 1.87868e-17)
(4.00696 3.51592 1.19576e-17)
(3.84354 3.33077 1.49731e-17)
(3.72724 3.15553 -9.24535e-18)
(3.62589 3.00409 -1.14685e-17)
(3.46686 2.78477 1.35128e-17)
(2.97263 2.27241 -8.29201e-18)
(1.07167 0.904654 1.36882e-17)
(5.47234 3.97267 1.77503e-17)
(7.39175 5.98655 1.92967e-17)
(7.54962 5.84535 4.44081e-18)
(7.23312 5.86779 3.10606e-19)
(7.0305 5.64342 -1.10539e-17)
(6.73358 5.49248 3.96442e-18)
(6.40987 5.31157 -1.29283e-18)
(6.0677 5.10592 -3.85546e-19)
(5.69372 4.86141 -5.95675e-18)
(5.24299 4.59407 -1.62643e-17)
(4.82336 4.32053 1.11272e-18)
(4.44288 4.07227 0)
(4.13972 3.84636 0)
(3.89035 3.64005 -6.12782e-18)
(3.67896 3.44359 -2.38337e-17)
(3.5073 3.2629 1.9819e-17)
(3.39777 3.08898 1.22578e-17)
(3.24328 2.82787 0)
(2.7548 2.31765 2.67781e-17)
(0.888515 0.810223 -1.54083e-17)
(5.40841 4.08313 -9.11083e-18)
(7.32188 6.13533 7.69708e-18)
(7.45573 5.99946 -1.02148e-17)
(7.14309 6.02121 -1.05318e-17)
(6.947 5.79071 -4.34499e-18)
(6.64914 5.637 1.15476e-18)
(6.32849 5.45 0)
(5.99118 5.23822 -8.55376e-19)
(5.61948 4.98826 6.20203e-19)
(5.16859 4.71833 0)
(4.74484 4.44595 0)
(4.35904 4.20226 2.15604e-18)
(4.04445 3.98377 3.13797e-18)
(3.78051 3.78913 -6.48033e-18)
(3.57566 3.59772 1.71964e-17)
(3.4279 3.39377 -2.1387e-17)
(3.29034 3.20481 -2.64731e-17)
(3.09701 2.90113 2.38618e-17)
(2.53977 2.24665 -9.83534e-18)
(0.648111 0.731846 5.66585e-18)
(5.31436 4.17616 1.05945e-17)
(7.22776 6.27692 0)
(7.36934 6.15898 0)
(7.06275 6.17012 -3.37442e-18)
(6.86486 5.9281 2.7147e-18)
(6.5683 5.7711 -3.19562e-19)
(6.2525 5.57836 -4.06921e-18)
(5.91972 5.36157 -2.46148e-19)
(5.54908 5.10658 1.01444e-17)
(5.09813 4.8339 -1.28923e-18)
(4.67177 4.5627 2.84923e-18)
(4.2811 4.32427 -1.82023e-17)
(3.95637 4.11107 -1.89408e-17)
(3.67492 3.91501 -3.38942e-18)
(3.4281 3.72075 0)
(3.21105 3.53012 -3.47885e-19)
(3.03582 3.32736 1.36259e-17)
(2.8129 2.94058 -2.59634e-17)
(2.23819 2.23905 2.01774e-17)
(0.297173 0.395836 1.7888e-17)
(5.25026 4.2771 -2.2778e-17)
(7.14409 6.4478 -9.05796e-18)
(7.31171 6.30929 2.39753e-20)
(6.98065 6.3131 4.44738e-18)
(6.78272 6.05677 0)
(6.48897 5.89612 1.07939e-17)
(6.17691 5.6992 4.78912e-18)
(5.84807 5.47805 -6.85285e-19)
(5.47806 5.21913 -5.05837e-18)
(5.0281 4.94505 -1.24646e-18)
(4.60087 4.67664 1.15328e-18)
(4.20722 4.44561 1.59172e-17)
(3.87295 4.24388 1.83911e-17)
(3.57684 4.06582 3.22712e-18)
(3.32497 3.88964 1.71027e-17)
(3.11854 3.68442 0)
(2.91379 3.45001 0)
(2.61329 3.01328 1.67065e-17)
(1.85209 1.96921 1.77844e-19)
(0.279068 0.826782 -1.76228e-17)
(5.15728 4.34942 1.22578e-17)
(7.0756 6.52821 2.68734e-17)
(7.18994 6.42267 -3.8688e-17)
(6.87672 6.43239 2.19795e-17)
(6.70146 6.17784 -2.31713e-18)
(6.41095 6.01416 1.38624e-17)
(6.10419 5.81468 0)
(5.77752 5.59022 8.32968e-19)
(5.40754 5.32865 0)
(4.95971 5.05443 1.57462e-17)
(4.5328 4.78994 -1.58625e-18)
(4.13595 4.56798 1.77352e-18)
(3.79128 4.37834 2.06871e-17)
(3.47785 4.20903 -7.10182e-18)
(3.18913 4.03922 -9.03928e-18)
(2.91166 3.86962 0)
(2.61916 3.66834 0)
(2.16172 3.12687 0)
(1.11458 2.077 -8.57693e-18)
(0.545628 1.94472 -5.48712e-18)
(5.08769 4.44043 0)
(6.93067 6.66365 0)
(7.08366 6.51717 1.37987e-17)
(6.79225 6.53354 -1.82297e-17)
(6.63039 6.28666 1.16455e-17)
(6.33541 6.12545 -1.25908e-17)
(6.03204 5.92435 -4.38679e-19)
(5.70631 5.69712 3.39694e-19)
(5.3375 5.43426 8.94886e-19)
(4.89332 5.16146 -1.80224e-17)
(4.46819 4.90247 2.70614e-18)
(4.0704 4.6916 1.57013e-17)
(3.71944 4.51874 -2.05308e-17)
(3.39332 4.37421 -2.32083e-17)
(3.09333 4.23895 8.06687e-18)
(2.81605 4.07619 0)
(2.49476 3.79672 1.2811e-17)
(1.88317 3.03189 1.53849e-17)
(1.17613 2.42184 -1.60226e-17)
(0.766324 2.86209 2.14883e-17)
(5.01485 4.50599 0)
(6.89262 6.79038 2.17756e-17)
(7.06411 6.6965 -3.52318e-18)
(6.75802 6.67881 2.28795e-17)
(6.56101 6.39819 -1.22381e-17)
(6.26631 6.23563 0)
(5.96327 6.02939 0)
(5.63812 5.80021 0)
(5.27069 5.53697 3.23898e-18)
(4.83088 5.26626 6.60131e-19)
(4.40798 5.01275 0)
(4.01012 4.81367 -1.55087e-17)
(3.6526 4.65891 0)
(3.31494 4.53363 1.65586e-17)
(2.99395 4.41023 -1.1413e-17)
(2.67053 4.26714 -9.29791e-18)
(2.26514 3.9761 -2.44317e-17)
(1.55744 3.23868 -1.30412e-17)
(1.13339 3.08806 -2.37094e-17)
(0.925445 3.43326 1.72599e-17)
(4.98296 4.56694 -7.57888e-18)
(6.8742 6.91662 8.62138e-20)
(7.01204 6.801 -3.62904e-18)
(6.66852 6.802 -1.77258e-17)
(6.48648 6.51099 0)
(6.19993 6.34197 0)
(5.89464 6.13134 0)
(5.57144 5.90028 5.78717e-20)
(5.2061 5.63738 -4.23103e-18)
(4.77113 5.36944 0)
(4.35135 5.12207 0)
(3.95587 4.93583 0)
(3.59892 4.80164 0)
(3.25999 4.70525 1.22383e-17)
(2.93762 4.62272 3.13153e-17)
(2.61911 4.48011 9.95553e-18)
(2.19622 4.05282 2.29427e-17)
(1.6876 3.51664 -1.78899e-17)
(1.25744 3.7345 7.88144e-18)
(1.09987 3.87602 0)
(4.88657 4.63223 7.2353e-18)
(6.74217 6.96045 -3.90497e-17)
(6.85341 6.87386 -9.16091e-18)
(6.55569 6.86338 -2.73425e-18)
(6.4266 6.611 2.78203e-18)
(6.12995 6.44233 -1.83417e-17)
(5.82935 6.23223 1.1529e-18)
(5.50807 5.99962 3.31707e-18)
(5.14468 5.7374 0)
(4.71465 5.47201 -1.13422e-18)
(4.29839 5.2298 1.03253e-18)
(3.90805 5.05596 0)
(3.55463 4.94318 0)
(3.21789 4.87267 -1.53242e-17)
(2.89669 4.80154 2.70244e-18)
(2.55484 4.63832 -9.32153e-18)
(2.02914 4.22084 2.04526e-17)
(1.45902 3.89568 1.80446e-17)
(1.1014 4.16374 -3.27074e-17)
(1.02183 4.236 1.71941e-17)
(4.82084 4.71375 1.35435e-17)
(6.64658 7.07948 3.65387e-17)
(6.80971 6.98525 1.11038e-17)
(6.53037 6.98617 0)
(6.36929 6.71342 0)
(6.05918 6.5475 1.38285e-17)
(5.76275 6.33523 -6.89688e-18)
(5.44238 6.10073 -3.16647e-18)
(5.08215 5.83878 -1.04518e-20)
(4.65781 5.57539 1.26967e-17)
(4.2472 5.33802 -1.86009e-17)
(3.86566 5.17614 0)
(3.52277 5.08399 0)
(3.2 5.04074 -1.08533e-17)
(2.89025 5.00078 -1.42907e-17)
(2.53579 4.83869 0)
(2.01798 4.36729 -3.00777e-17)
(1.68631 4.25954 -5.5532e-18)
(1.42143 4.67849 3.34184e-17)
(1.13111 4.66803 -1.74236e-17)
(4.78745 4.77183 -2.56786e-17)
(6.62822 7.21703 -1.87256e-17)
(6.79565 7.15627 0)
(6.47509 7.1459 0)
(6.28511 6.83597 0)
(5.98766 6.66331 0)
(5.69147 6.4413 7.24715e-18)
(5.37447 6.20416 -4.63136e-18)
(5.01774 5.94149 0)
(4.60027 5.67922 -1.14439e-17)
(4.19728 5.44528 3.35566e-17)
(3.82868 5.29356 1.43809e-18)
(3.50185 5.22054 2.18897e-18)
(3.19573 5.20283 1.83591e-17)
(2.89386 5.16875 -1.22608e-17)
(2.53208 4.95543 0)
(2.0476 4.62099 9.63306e-18)
(1.60954 4.81698 7.09236e-19)
(1.13088 5.07633 -5.0522e-18)
(0.740553 5.12822 1.04915e-17)
(4.71148 4.8444 1.21687e-17)
(6.54234 7.30653 -1.8034e-17)
(6.65778 7.22578 0)
(6.34208 7.22771 -4.0479e-18)
(6.19562 6.94508 1.49686e-17)
(5.90367 6.7731 0)
(5.61109 6.5483 0)
(5.3002 6.30788 8.52567e-18)
(4.94847 6.044 -5.28483e-19)
(4.53976 5.78232 1.10401e-17)
(4.14766 5.55134 -1.59449e-17)
(3.79586 5.40807 1.03685e-17)
(3.48937 5.35045 0)
(3.20668 5.35162 -1.00183e-17)
(2.9218 5.33057 6.26986e-18)
(2.56647 5.14731 6.80156e-18)
(2.0793 4.87888 0)
(1.7412 5.12654 4.76206e-18)
(1.29334 5.73721 8.00396e-18)
(1.17745 5.92387 2.40671e-18)
(4.59521 4.89011 -2.2755e-17)
(6.38911 7.39649 2.60158e-17)
(6.5287 7.32464 1.81998e-17)
(6.24897 7.32585 -4.67087e-18)
(6.11095 7.04997 -2.25476e-17)
(5.80881 6.87947 0)
(5.52671 6.6541 6.3757e-18)
(5.22141 6.4107 -3.65706e-18)
(4.87575 6.14563 -1.68783e-19)
(4.47764 5.88402 -9.60191e-18)
(4.09865 5.65477 -7.80694e-19)
(3.76607 5.51664 -1.16268e-17)
(3.48417 5.46952 1.42439e-17)
(3.22849 5.48564 4.55357e-18)
(2.96209 5.4728 -1.06332e-17)
(2.58458 5.24041 1.13791e-17)
(2.29046 5.07759 0)
(1.94225 5.76762 0)
(1.69359 6.36795 1.36559e-18)
(0.475362 6.42332 -5.20674e-18)
(4.52052 4.97775 1.09407e-17)
(6.30117 7.52962 2.42262e-17)
(6.46005 7.47724 -1.81606e-17)
(6.16225 7.46857 1.65461e-17)
(6.00756 7.16575 2.18499e-17)
(5.70965 6.99105 0)
(5.43498 6.75923 -6.77161e-18)
(5.13603 6.51183 -5.09006e-18)
(4.79852 6.24469 0)
(4.41304 5.98236 0)
(4.05004 5.75395 0)
(3.73916 5.61841 0)
(3.48301 5.57693 -1.6229e-17)
(3.25737 5.59559 -6.17238e-18)
(3.01824 5.57243 0)
(2.69344 5.38746 -5.90156e-18)
(2.51699 5.47913 0)
(2.54756 5.80937 -2.48077e-18)
(2.60661 5.80546 1.20115e-18)
(1.42386 5.83945 7.86263e-19)
(4.41817 5.02781 -2.08898e-17)
(6.19166 7.64955 -1.541e-17)
(6.33271 7.60031 -1.12596e-17)