/*--------------------------------*- C++ -*----------------------------------*\
| =========                 |                                                 |
| \\      /  F ield         | OpenFOAM: The Open Source CFD Toolbox           |
|  \\    /   O peration     | Version:  2412                                  |
|   \\  /    A nd           | Website:  www.openfoam.com                      |
|    \\/     M anipulation  |                                                 |
\*---------------------------------------------------------------------------*/
FoamFile
{
    version     2.0;
    format      ascii;
    arch        "LSB;label=32;scalar=64";
    class       volScalarField;
    location    "0.22";
    object      epsilon;
}
// * * * * * * * * * * * * * * * * * * * * * * * * * * * * * * * * * * * * * //

dimensions      [0 2 -3 0 0 0 0];

internalField   nonuniform List<scalar> 
12225
(
448.248
622.894
830.556
1004.83
1150.4
1270.21
1368.62
1449.62
1516.36
1571.36
1616.73
1654.1
1684.78
1709.76
1729.81
1745.33
1756.66
1766.61
173.744
302.084
403.102
480.178
539.344
585.697
622.136
650.859
673.571
691.537
705.72
716.871
725.582
732.318
737.483
741.326
744.641
744.476
119.435
232.402
315.512
376.254
421.161
455.028
480.63
499.959
514.532
525.461
533.568
539.482
543.692
546.583
548.488
549.67
550.559
550.222
97.6414
199.979
277.776
334.832
376.772
407.859
430.863
447.788
460.144
469.044
475.312
479.574
482.313
483.909
484.681
484.905
484.918
484.514
83.6526
176.289
251.577
308.548
351.099
382.721
406.064
423.141
435.483
444.242
450.285
454.271
456.709
458
458.478
458.433
458.167
457.71
71.9918
153.972
226.31
283.823
328.195
361.836
387.034
405.7
419.346
429.147
436.01
440.636
443.572
445.252
446.033
446.22
446.096
445.752
61.3441
131.282
198.624
255.577
301.538
337.584
365.349
386.458
402.305
414.031
422.548
428.584
432.718
435.414
437.054
437.958
438.393
438.458
51.6696
108.73
168.487
222.629
268.751
306.557
336.798
360.609
379.122
393.345
404.138
412.212
418.153
422.442
425.474
427.577
429.009
429.856
43.2225
87.6451
137.685
186.323
230.296
268.239
299.98
326.015
347.071
363.913
377.258
387.742
395.913
402.237
407.103
410.836
413.677
415.693
36.1697
69.2409
108.631
149.499
188.751
224.539
255.994
282.975
305.734
324.699
340.361
353.208
363.695
372.23
379.166
384.8
389.349
392.844
30.4984
54.1381
83.3276
115.312
147.812
179.11
208.062
234.089
257.021
276.938
294.057
308.666
321.075
331.586
340.48
348
354.322
359.421
26.3765
43.1971
64.2823
88.2379
113.645
139.252
164.037
187.299
208.645
227.913
245.093
260.281
273.628
285.315
295.525
304.429
312.142
318.568
23.1425
34.7464
49.3128
66.268
84.8741
104.384
124.077
143.345
161.751
179.01
194.968
209.567
222.821
234.788
245.552
255.2
263.78
271.135
20.3782
27.6943
36.7519
47.4269
59.445
72.4828
86.1723
100.14
114.058
127.661
140.752
153.196
164.911
175.857
186.025
195.42
204.021
211.626
18.1499
22.2406
27.1488
32.9138
39.4894
46.7955
54.7167
63.1057
71.8053
80.6648
89.5487
98.3416
106.949
115.299
123.337
131.018
138.286
144.94
16.4706
18.3568
20.5273
23.0283
25.8743
29.0688
32.604
36.4552
40.5844
44.9459
49.4904
54.1676
58.9284
63.7271
68.5216
73.2724
77.9308
82.3641
15.3282
15.873
16.4959
17.2133
18.0328
18.961
20.0038
21.1645
22.4425
23.8343
25.3337
26.9323
28.6194
30.3814
32.2042
34.0739
35.973
37.8591
14.7508
14.6758
14.6369
14.6352
14.6697
14.7396
14.8449
14.986
15.163
15.3758
15.6242
15.9076
16.2251
16.5769
16.9624
17.3794
17.8253
18.2958
14.8977
14.9733
15.0873
15.2435
15.4418
15.6822
15.9649
16.2899
16.6562
17.0624
17.5062
17.9851
18.496
19.0356
19.6004
20.1867
20.7898
21.3961
15.9708
17.2606
18.7265
20.3955
22.2738
24.3607
26.6495
29.1244
31.7615
34.5321
37.4052
40.3493
43.3335
46.3292
49.3106
52.2546
55.1364
57.8961
18.0496
21.9969
26.6902
32.1485
38.3091
45.0761
52.3258
59.912
67.6837
75.5006
83.241
90.804
98.1103
105.101
111.736
117.99
123.842
129.249
21.5632
30.653
41.9213
55.0379
69.4973
84.7816
100.38
115.833
130.775
144.947
158.183
170.392
181.54
191.636
200.719
208.845
216.075
222.453
27.2186
45.3007
67.787
92.9384
119.106
145.002
169.644
192.393
212.922
231.136
247.085
260.905
272.778
282.905
291.486
298.712
304.757
309.782
35.7146
67.6768
105.679
144.952
182.518
216.744
246.819
272.573
294.229
312.188
326.911
338.855
348.443
356.052
362.009
366.594
370.047
372.592
47.408
97.6115
152.03
202.69
246.855
283.888
314.073
338.2
357.205
371.975
383.288
391.803
398.066
402.524
405.539
407.405
408.363
408.651
61.8882
131.752
198.705
254.806
299.835
335.07
362.112
382.559
397.8
408.961
416.939
422.438
426.011
428.089
429.011
429.039
428.39
427.276
78.4671
165.762
239.653
296.704
339.787
371.976
395.787
413.193
425.728
434.563
440.58
444.45
446.681
447.661
447.689
446.994
445.759
444.171
99.5998
200.965
279.478
337.821
380.456
411.806
434.888
451.764
463.98
472.69
478.745
482.773
485.251
486.539
486.917
486.597
485.748
484.54
144.792
258.315
348.614
417.597
468.465
506.747
535.871
558.048
574.95
587.824
597.581
604.905
610.32
614.231
616.955
618.742
619.784
620.283
366.941
498.482
666.583
808.026
923.444
1016.68
1091.71
1152.37
1201.65
1241.81
1274.66
1301.6
1323.76
1342.04
1357.13
1369.61
1379.92
1388.48
0.891139
0.850241
1.24493
1.58987
1.87503
2.11928
2.39718
2.71082
3.05201
3.42542
3.8416
4.32656
4.96246
5.74754
6.65158
7.67352
8.81994
10.1008
11.5258
13.1031
14.8385
16.7355
18.7958
21.0196
23.4065
25.9564
28.6704
31.5519
34.6084
37.8527
41.3056
44.9383
48.7239
52.6561
56.7303
60.9421
65.2876
69.763
74.365
79.0903
83.9357
88.8982
93.9751
99.1632
104.46
109.861
115.365
120.967
126.664
132.452
138.326
144.283
150.318
156.425
162.599
168.835
175.127
181.469
187.854
194.276
200.729
207.205
213.697
220.198
226.701
233.198
239.682
246.145
252.581
258.984
265.349
271.674
277.962
284.225
290.49
296.709
302.826
308.842
314.757
320.564
326.259
331.833
337.281
342.594
347.768
352.794
357.666
362.379
366.926
371.302
375.501
379.518
383.349
386.988
390.432
393.676
396.716
399.549
402.173
404.583
406.778
408.754
410.511
412.046
413.357
414.444
415.305
415.94
416.349
416.531
416.488
416.218
415.724
415.006
414.066
412.905
411.527
409.933
408.126
406.109
403.886
401.46
398.836
396.017
393.009
389.817
386.446
382.901
379.188
375.314
371.285
367.108
362.789
358.335
353.754
349.053
344.242
339.326
334.31
329.216
324.033
318.802
313.566
308.624
305.419
302.731
300.011
297.223
294.368
291.448
288.469
285.436
282.355
279.229
276.065
272.868
269.644
266.396
263.13
259.852
256.566
253.276
249.988
246.705
243.431
240.169
236.923
233.694
230.483
227.289
224.11
220.937
217.76
214.557
211.29
207.885
204.183
199.78
193.998
186.143
2.75826
1.53097
1.3689
1.4289
1.58763
1.82643
2.13763
2.51678
2.9574
3.46338
4.03901
4.68977
5.4216
6.23209
7.11508
8.06565
9.07977
10.1536
11.2832
12.4647
13.6942
14.9685
16.285
17.6422
19.0393
20.4766
21.955
23.4759
25.0411
26.6517
28.308
30.0073
31.7476
33.5284
35.3497
37.2113
39.1129
41.0541
43.0346
45.0538
47.1112
49.206
51.3374
53.5046
55.7066
57.9423
60.2104
62.5099
64.8393
67.1971
69.5819
71.992
74.4257
76.8812
79.3568
81.8503
84.3599
86.8834
89.4188
91.9637
94.5159
97.0732
99.6331
102.193
104.751
107.305
109.852
112.39
114.917
117.433
119.935
122.427
124.91
127.39
129.884
132.382
134.851
137.285
139.681
142.036
144.349
146.617
148.836
151.005
153.121
155.181
157.183
159.125
161.004
162.818
164.564
166.242
167.849
169.382
170.842
172.225
173.53
174.755
175.9
176.964
177.944
178.84
179.65
180.375
181.013
181.564
182.027
182.401
182.687
182.883
182.991
183.009
182.938
182.778
182.53
182.194
181.77
181.259
180.662
179.98
179.214
178.366
177.435
176.425
175.336
174.17
172.928
171.614
170.228
168.773
167.252
165.665
164.017
162.309
160.544
158.724
156.853
154.933
152.965
150.959
148.901
146.824
144.756
142.767
141.073
139.503
137.945
136.372
134.779
133.165
131.532
129.881
128.215
126.536
124.846
123.147
121.442
119.732
118.019
116.307
114.596
112.889
111.188
109.494
107.809
106.134
104.472
102.823
101.188
99.5681
97.9633
96.3736
94.798
93.2348
91.6808
90.1326
88.5818
87.0399
85.7018
85.7413
4.94716
2.41054
2.04388
2.07055
2.25249
2.52293
2.87436
3.30473
3.81149
4.39103
5.03825
5.74713
6.51117
7.32326
8.17664
9.06588
9.98689
10.9368
11.9139
12.917
13.9459
15.001
16.0832
17.1936
18.3335
19.5042
20.7068
21.9422
23.2108
24.5125
25.8469
27.2132
28.6106
30.0385
31.4964
32.9838
34.5
36.0445
37.6167
39.216
40.8417
42.4932
44.17
45.8713
47.5965
49.3448
51.1155
52.9078
54.7207
56.5535
58.4051
60.2746
62.1607
64.0625
65.9787
67.908
69.8491
71.8007
73.7614
75.7297
77.7041
79.6831
81.6652
83.6489
85.6326
87.6151
89.595
91.5711
93.5427
95.5093
97.4706
99.4272
101.38
103.33
105.278
107.212
109.124
111.009
112.866
114.692
116.484
118.241
119.961
121.641
123.279
124.875
126.424
127.927
129.381
130.784
132.134
133.431
134.672
135.857
136.983
138.05
139.056
140.001
140.882
141.7
142.453
143.141
143.763
144.317
144.804
145.224
145.574
145.857
146.07
146.214
146.289
146.295
146.232
146.1
145.899
145.63
145.292
144.888
144.417
143.88
143.278
142.611
141.881
141.089
140.236
139.323
138.352
137.324
136.24
135.103
133.913
132.674
131.385
130.05
128.67
127.247
125.784
124.282
122.737
121.171
119.576
117.965
116.352
114.77
113.275
111.831
110.398
108.961
107.513
106.055
104.586
103.109
101.623
100.131
98.6351
97.1361
95.636
94.1364
92.6389
91.1451
89.6566
88.1748
86.7011
85.237
83.7836
82.3424
80.9143
79.5006
78.1021
76.7199
75.3549
74.0078
72.6797
71.372
70.0875
68.8325
67.6196
66.4929
65.5751
65.4537
7.21118
3.4063
2.86616
2.85098
3.01687
3.29538
3.665
4.11644
4.6427
5.23613
5.88788
6.58873
7.33
8.10434
8.90614
9.73177
10.5793
11.4484
12.3393
13.2532
14.1916
15.156
16.148
17.169
18.2199
19.3016
20.4145
21.5586
22.7338
23.9396
25.1754
26.4404
27.734
29.0557
30.4048
31.7808
33.1833
34.6117
36.0656
37.5445
39.048
40.5758
42.1273
43.7022
45.3
46.9202
48.5622
50.2254
51.9093
53.6132
55.3362
57.0776
58.8364
60.6117
62.4026
64.2078
66.0263
67.8567
69.698
71.5486
73.4073
75.2727
77.1434
79.0179
80.8949
82.7731
84.6511
86.5278
88.4022
90.2733
92.1403
94.0026
95.8595
97.7099
99.5487
101.37
103.17
104.944
106.691
108.408
110.093
111.743
113.358
114.934
116.471
117.965
119.415
120.819
122.177
123.485
124.742
125.948
127.1
128.197
129.238
130.222
131.147
132.014
132.819
133.564
134.247
134.867
135.424
135.917
136.345
136.709
137.008
137.241
137.41
137.512
137.549
137.521
137.427
137.269
137.045
136.758
136.406
135.992
135.515
134.976
134.376
133.716
132.996
132.219
131.386
130.496
129.553
128.557
127.509
126.412
125.266
124.075
122.838
121.558
120.238
118.876
117.479
116.051
114.592
113.108
111.6
110.076
108.545
107.025
105.537
104.07
102.61
101.148
99.6811
98.2073
96.7273
95.2422
93.7533
92.262
90.7698
89.2783
87.789
86.3034
84.8229
83.3491
81.8832
80.4266
78.9806
77.5465
76.1254
74.7184
73.3268
71.9515
70.5936
69.2541
67.9343
66.6354
65.3592
64.1087
62.8884
61.7079
60.5847
59.5627
58.7305
58.357
9.25131
4.42295
3.69235
3.60269
3.74112
4.00898
4.37264
4.81645
5.3298
5.9031
6.52686
7.1921
7.89106
8.61782
9.36847
10.141
10.935
11.751
12.5906
13.4552
14.3466
15.2663
16.2157
17.1957
18.2069
19.2499
20.3246
21.4309
22.5686
23.7371
24.9361
26.1649
27.4232
28.7105
30.0264
31.3704
32.7424
34.142
35.569
37.023
38.5038
40.0111
41.5447
43.1043
44.6896
46.3001
47.9354
49.5951
51.2786
52.9852
54.7143
56.465
58.2365
60.0279
61.8381
63.6659
65.5102
67.3697
69.243
71.1286
73.0252
74.9312
76.8451
78.7652
80.6899
82.6178
84.5471
86.4764
88.4042
90.329
92.2492
94.1636
96.0704
97.9663
99.8464
101.707
103.543
105.353
107.134
108.884
110.6
112.28
113.922
115.523
117.082
118.597
120.065
121.486
122.856
124.175
125.44
126.651
127.806
128.903
129.942
130.92
131.838
132.694
133.487
134.216
134.88
135.48
136.014
136.482
136.884
137.219
137.486
137.687
137.82
137.886
137.885
137.817
137.683
137.482
137.215
136.883
136.486
136.025
135.501
134.914
134.266
133.557
132.79
131.963
131.081
130.142
129.15
128.105
127.01
125.865
124.671
123.433
122.151
120.824
119.462
118.063
116.631
115.167
113.675
112.157
110.618
109.061
107.495
105.929
104.372
102.825
101.28
99.7341
98.1846
96.6314
95.0748
93.516
91.9563
90.3971
88.8398
87.2862
85.7375
84.1953
82.661
81.1361
79.6218
78.1195
76.6304
75.1557
73.6966
72.2542
70.8296
69.424
68.0383
66.6739
65.332
64.0144
62.7233
61.4624
60.2374
59.0587
57.9448
56.9335
56.0864
55.5293
11.2326
5.36867
4.42551
4.26069
4.36259
4.6065
4.94855
5.36812
5.85236
6.39113
6.97557
7.59799
8.25222
8.93382
9.64017
10.3702
11.1241
11.9029
12.7079
13.5406
14.4027
15.2952
16.2194
17.1758
18.1652
19.1878
20.2436
21.3327
22.4549
23.61
24.7979
26.0182
27.2707
28.5554
29.8719
31.2202
32.6001
34.0116
35.4545
36.9288
38.4343
39.9709
41.5385
43.1368
44.7657
46.4247
48.1136
49.8318
51.5788
53.354
55.1566
56.9857
58.8405
60.7199
62.6226
64.5475
66.4931
68.458
70.4406
72.4392
74.4522
76.4776
78.5137
80.5585
82.6101
84.6666
86.7258
88.7858
90.8446
92.9002
94.9503
96.9931
99.0262
101.044
103.043
105.019
106.969
108.89
110.778
112.632
114.449
116.226
117.962
119.652
121.297
122.892
124.437
125.929
127.366
128.747
130.069
131.332
132.534
133.673
134.749
135.759
136.703
137.58
138.389
139.129
139.799
140.4
140.93
141.389
141.776
142.093
142.337
142.51
142.611
142.64
142.599
142.486
142.303
142.049
141.726
141.334
140.874
140.347
139.753
139.094
138.371
137.585
136.737
135.829
134.862
133.838
132.757
131.623
130.437
129.201
127.912
126.582
125.208
123.793
122.339
120.85
119.327
117.773
116.191
114.584
112.955
111.308
109.648
107.984
106.319
104.656
102.994
101.33
99.6641
97.9963
96.3276
94.6591
92.9922
91.3284
89.6693
88.0164
86.3712
84.7354
83.1102
81.4972
79.8976
78.3129
76.7441
75.1926
73.6596
72.1461
70.6533
69.1823
67.7344
66.3109
64.9132
63.5434
62.2041
60.8994
59.6355
58.4231
57.2793
56.2353
55.3328
54.6333
14.2365
6.37342
5.08665
4.80986
4.85847
5.06741
5.37907
5.7673
6.21715
6.71827
7.26264
7.84388
8.45715
9.0992
9.76819
10.4635
11.1856
11.9352
12.7137
13.5224
14.3624
15.235
16.1411
17.0814
18.0566
19.067
20.113
21.1948
22.3126
23.4666
24.6568
25.8833
27.1463
28.4458
29.7819
31.1549
32.5648
34.0117
35.4958
37.0171
38.5756
40.1714
41.8044
43.4746
45.1817
46.9254
48.7054
50.5212
52.3722
54.2578
56.177
58.1289
60.1124
62.1262
64.169
66.2393
68.3354
70.4556
72.5979
74.7605
76.9411
79.1376
81.3478
83.5693
85.7997
88.0366
90.2774
92.5197
94.7608
96.9981
99.2291
101.451
103.66
105.851
108.018
110.159
112.271
114.349
116.391
118.394
120.355
122.272
124.141
125.961
127.728
129.441
131.096
132.693
134.229
135.702
137.11
138.452
139.725
140.93
142.063
143.125
144.114
145.029
145.868
146.633
147.32
147.932
148.465
148.922
149.3
149.601
149.823
149.968
150.035
150.025
149.937
149.773
149.533
149.217
148.827
148.363
147.826
147.217
146.537
145.788
144.97
144.087
143.137
142.123
141.048
139.913
138.719
137.467
136.163
134.808
133.403
131.952
130.456
128.919
127.342
125.729
124.082
122.403
120.696
118.964
117.21
115.437
113.65
111.855
110.055
108.253
106.45
104.645
102.84
101.034
99.2296
97.4277
95.6298
93.8376
92.0528
90.2769
88.5116
86.7584
85.0188
83.2943
81.5863
79.896
78.2249
76.5741
74.9447
73.3381
71.7554
70.1978
68.6665
67.163
65.6891
64.2468
62.8391
61.4703
60.1469
58.8789
57.6819
56.5806
55.6027
54.7797
17.062
7.2575
5.62555
5.23062
5.22026
5.38989
5.66839
6.02416
6.44024
6.90597
7.41391
7.95864
8.53631
9.14442
9.78166
10.4477
11.1428
11.8678
12.6239
13.4121
14.2336
15.0896
15.9811
16.9089
17.8739
18.8767
19.9181
20.9987
22.1189
23.2793
24.4804
25.7227
27.0066
28.3327
29.7013
31.113
32.568
34.0668
35.6097
37.1971
38.829
40.5056
42.2271
43.9934
45.8043
47.6597
49.559
51.5018
53.4874
55.515
57.5835
59.6919
61.8388
64.0227
66.2419
68.4946
70.7788
73.0924
75.4331
77.7985
80.186
82.593
85.0167
87.4544
89.903
92.3596
94.8211
97.2845
99.7465
102.204
104.654
107.094
109.515
111.914
114.286
116.627
118.934
121.202
123.43
125.613
127.748
129.832
131.863
133.837
135.752
137.605
139.394
141.116
142.77
144.353
145.863
147.299
148.659
149.942
151.146
152.27
153.312
154.273
155.15
155.944
156.653
157.278
157.817
158.272
158.64
158.924
159.122
159.235
159.263
159.206
159.066
158.842
158.536
158.148
157.679
157.131
156.504
155.8
155.019
154.164
153.236
152.238
151.169
150.03
148.828
147.564
146.238
144.853
143.412
141.918
140.372
138.777
137.137
135.454
133.73
131.969
130.173
128.346
126.489
124.607
122.703
120.78
118.842
116.893
114.938
112.978
111.017
109.055
107.093
105.132
103.175
101.222
99.2765
97.3389
95.4114
93.4957
91.5935
89.7064
87.836
85.9838
84.1512
82.3396
80.5504
78.7848
77.044
75.3293
73.6419
71.983
70.3541
68.7567
67.1926
65.6641
64.1743
62.7277
61.3306
59.9924
58.7265
57.5523
56.4875
55.5491
19.5404
7.98217
6.03116
5.5234
5.45468
5.58493
5.83088
6.156
6.54134
6.97575
7.45206
7.9654
8.51256
9.09154
9.70135
10.3418
11.0132
11.7164
12.4523
13.2223
14.0274
14.8689
15.748
16.666
17.6238
18.6226
19.6635
20.7474
21.8755
23.0485
24.2676
25.5335
26.8473
28.2097
29.6216
31.0838
32.5969
34.1617
35.7788
37.4486
39.1715
40.9478
42.7778
44.6614
46.5985
48.589
50.6322
52.7277
54.8745
57.0717
59.3181
61.6123
63.9526
66.3371
68.764
71.2308
73.7353
76.2747
78.8464
81.4473
84.0745
86.7247
89.3946
92.0808
94.7798
97.4881
100.202
102.918
105.632
108.34
111.039
113.724
116.386
119.021
121.623
124.19
126.716
129.198
131.633
134.016
136.345
138.616
140.825
142.97
145.048
147.055
148.99
150.85
152.632
154.335
155.956
157.494
158.947
160.313
161.591
162.781
163.88
164.887
165.803
166.626
167.356
167.992
168.534
168.982
169.337
169.598
169.765
169.839
169.82
169.709
169.507
169.214
168.831
168.359
167.801
167.156
166.426
165.613
164.717
163.742
162.689
161.561
160.359
159.084
157.741
156.331
154.857
153.321
151.726
150.075
148.37
146.615
144.812
142.964
141.075
139.147
137.184
135.188
133.164
131.113
129.04
126.948
124.841
122.722
120.596
118.465
116.332
114.199
112.067
109.939
107.816
105.7
103.594
101.498
99.4154
97.3476
95.2963
93.2633
91.2502
89.2586
87.29
85.3458
83.4273
81.5359
79.6728
77.8394
76.0369
74.2666
72.53
70.8287
69.1647
67.5403
65.9588
64.4246
62.9437
61.5246
60.1788
58.9212
57.7625
56.7126
21.5969
8.54206
6.3109
5.70105
5.57775
5.67066
5.88611
6.18326
6.54135
6.94858
7.39773
7.88424
8.40523
8.95901
9.54483
10.1626
10.8129
11.4964
12.2144
12.968
13.7587
14.588
15.4574
16.3684
17.3225
18.3213
19.3663
20.459
21.6009
22.7934
24.0381
25.3363
26.6895
28.0987
29.5655
31.0908
32.6758
34.3214
36.0285
37.7978
39.63
41.5254
43.4843
45.5068
47.5928
49.7419
51.9536
54.2271
56.5614
58.9551
61.4069
63.9149
66.4771
69.0913
71.7549
74.4652
77.2193
80.0139
82.8457
85.7112
88.6066
91.5283
94.4722
97.4343
100.411
103.397
106.389
109.382
112.372
115.356
118.328
121.278
124.201
127.09
129.94
132.749
135.51
138.221
140.876
143.472
146.005
148.472
150.869
153.193
155.44
157.607
159.693
161.693
163.607
165.431
167.164
168.803
170.348
171.797
173.147
174.399
175.551
176.602
177.551
178.397
179.141
179.782
180.319
180.754
181.086
181.315
181.442
181.467
181.391
181.215
180.94
180.566
180.095
179.527
178.866
178.112
177.267
176.333
175.31
174.203
173.013
171.742
170.392
168.967
167.468
165.899
164.262
162.56
160.796
158.973
157.094
155.163
153.182
151.156
149.086
146.977
144.831
142.653
140.445
138.212
135.956
133.681
131.391
129.09
126.781
124.468
122.153
119.838
117.527
115.222
112.924
110.635
108.359
106.096
103.849
101.621
99.4116
97.2242
95.0601
92.9208
90.808
88.7232
86.6676
84.6428
82.6499
80.6904
78.7656
76.8767
75.0254
73.2133
71.4425
69.7154
68.0353
66.4063
64.8343
63.3268
61.8931
60.5449
59.2881
58.1292
23.1966
8.94402
6.47958
5.78165
5.60937
5.66797
5.85539
6.12726
6.4612
6.84476
7.27052
7.73399
8.23245
8.76445
9.32942
9.92747
10.5592
11.2258
11.9283
12.6685
13.448
14.2685
15.1322
16.0408
16.9964
18.0011
19.057
20.1661
21.3304
22.552
23.8328
25.1748
26.5799
28.0498
29.5862
31.1907
32.8647
34.6095
36.4262
38.3157
40.2789
42.3161
44.4278
46.6139
48.8743
51.2085
53.6157
56.0948
58.6446
61.2634
63.9493
66.7
69.513
72.3855
75.3144
78.2964
81.3279
84.4049
87.5235
90.6793
93.8682
97.0855
100.327
103.587
106.862
110.147
113.437
116.726
120.011
123.286
126.545
129.774
132.967
136.121
139.229
142.287
145.289
148.233
151.112
153.923
156.663
159.326
161.911
164.411
166.826
169.15
171.382
173.519
175.558
177.497
179.335
181.069
182.698
184.22
185.634
186.939
188.135
189.218
190.19
191.049
191.796
192.43
192.951
193.36
193.658
193.843
193.917
193.881
193.735
193.481
193.119
192.652
192.08
191.405
190.628
189.753
188.78
187.712
186.55
185.298
183.957
182.531
181.021
179.431
177.764
176.023
174.21
172.329
170.384
168.377
166.312
164.192
162.021
159.803
157.541
155.238
152.899
150.527
148.126
145.698
143.249
140.781
138.299
135.805
133.305
130.801
128.296
125.794
123.297
120.807
118.327
115.86
113.408
110.972
108.555
106.16
103.787
101.44
99.1193
96.8272
94.565
92.3345
90.1369
87.9738
85.8464
83.7561
81.7042
79.6923
77.7217
75.7944
73.9123
72.0779
70.2944
68.5659
66.8977
65.2963
63.7695
62.3261
60.9688
59.7028
24.3286
9.20002
6.55414
5.78424
5.56976
5.5977
5.7597
6.00875
6.32122
6.68407
7.08966
7.53346
8.01287
8.52659
9.07424
9.65616
10.2732
10.9267
11.6183
12.3499
13.1236
13.9417
14.8065
15.7207
16.6867
17.7073
18.7851
19.9227
21.1229
22.3881
23.7211
25.1242
26.5998
28.1502
29.7775
31.4837
33.2705
35.1395
37.092
39.129
41.2514
43.4596
45.754
48.1344
50.6004
53.1511
55.7856
58.5023
61.2994
64.1747
67.1258
70.1498
73.2436
76.4036
79.626
82.9069
86.2419
89.6263
93.0552
96.5235
100.026
103.558
107.114
110.689
114.278
117.874
121.473
125.07
128.659
132.235
135.782
139.291
142.757
146.174
149.537
152.84
156.079
159.249
162.346
165.364
168.3
171.151
173.911
176.578
179.147
181.615
183.98
186.238
188.389
190.429
192.356
194.169
195.866
197.446
198.908
200.25
201.473
202.574
203.552
204.408
205.141
205.752
206.241
206.609
206.856
206.982
206.988
206.875
206.645
206.299
205.837
205.262
204.576
203.779
202.874
201.864
200.75
199.535
198.221
196.811
195.307
193.713
192.032
190.266
188.419
186.493
184.494
182.423
180.285
178.084
175.822
173.504
171.134
168.715
166.251
163.747
161.206
158.631
156.028
153.399
150.749
148.081
145.399
142.708
140.011
137.311
134.612
131.918
129.231
126.553
123.888
121.239
118.607
115.995
113.405
110.84
108.302
105.792
103.312
100.864
98.4502
96.0716
93.7296
91.4258
89.1616
86.9382
84.7572
82.6198
80.5278
78.4829
76.4871
74.5429
72.6535
70.8226
69.055
67.3565
65.7333
64.192
62.7335
61.3625
24.996
9.32353
6.55098
5.72665
5.47771
5.47919
5.6187
5.8475
6.14114
6.48622
6.87497
7.30285
7.76736
8.26737
8.80277
9.37416
9.98276
10.6303
11.3187
12.0505
12.8283
13.6549
14.5334
15.4669
16.4587
17.512
18.6302
19.8166
21.0745
22.407
23.8174
25.3085
26.8832
28.5444
30.2943
32.1354
34.0695
36.0983
38.2233
40.4455
42.7654
45.1836
47.6999
50.3138
53.0244
55.8306
58.7305
61.7222
64.803
67.9702
71.2204
74.55
77.955
81.4312
84.974
88.5785
92.2398
95.9523
99.7096
103.506
107.336
111.194
115.074
118.97
122.877
126.788
130.698
134.602
138.493
142.36
146.185
149.963
153.688
157.354
160.955
164.487
167.944
171.321
174.614
177.817
180.928
183.943
186.858
189.667
192.367
194.954
197.427
199.783
202.02
204.136
206.128
207.996
209.738
211.352
212.837
214.193
215.419
216.514
217.477
218.308
219.008
219.576
220.014
220.321
220.498
220.547
220.468
220.262
219.93
219.475
218.898
218.2
217.383
216.451
215.403
214.244
212.976
211.601
210.121
208.541
206.863
205.09
203.225
201.272
199.235
197.117
194.921
192.652
190.313
187.909
185.443
182.919
180.342
177.716
175.045
172.333
169.584
166.802
163.992
161.157
158.302
155.431
152.547
149.655
146.758
143.861
140.967
138.079
135.2
132.334
129.484
126.651
123.84
121.051
118.289
115.554
112.849
110.177
107.538
104.935
102.369
99.8429
97.3567
94.9124
92.5115
90.1552
87.8449
85.5822
83.3685
81.2057
79.0959
77.0414
75.0452
73.1108
71.2426
69.4455
67.7246
66.0849
64.5257
63.0521
25.2089
9.32757
6.48479
5.62465
5.34992
5.33002
5.45073
5.66259
5.94091
6.27219
6.64872
7.06612
7.5221
8.01583
8.5475
9.11814
9.72941
10.3835
11.083
11.8311
12.6308
13.4859
14.4
15.3771
16.4211
17.5361
18.7261
19.9952
21.3471
22.7854
24.3137
25.9356
27.6543
29.4727
31.3936
33.4191
35.5513
37.7916
40.1413
42.6011
45.1711
47.8512
50.6406
53.5383
56.5425
59.6513
62.8619
66.1714
69.5765
73.0731
76.6571
80.3239
84.0685
87.8858
91.7703
95.7166
99.7192
103.773
107.867
111.996
116.154
120.336
124.535
128.745
132.96
137.174
141.38
145.575
149.748
153.875
157.95
161.967
165.919
169.801
173.608
177.333
180.972
184.52
187.972
191.323
194.571
197.71
200.738
203.65
206.443
209.113
211.659
214.077
216.366
218.524
220.548
222.438
224.193
225.81
227.289
228.629
229.83
230.89
231.811
232.592
233.232
233.733
234.095
234.318
234.404
234.354
234.169
233.849
233.398
232.815
232.104
231.267
230.304
229.219
228.015
226.693
225.256
223.708
222.052
220.29
218.426
216.464
214.407
212.258
210.022
207.703
205.304
202.829
200.283
197.671
194.995
192.262
189.474
186.637
183.755
180.833
177.874
174.883
171.865
168.823
165.763
162.688
159.602
156.509
153.414
150.321
147.233
144.153
141.086
138.034
135
131.988
128.999
126.037
123.104
120.203
117.335
114.503
111.708
108.953
106.238
103.567
100.939
98.3568
95.8217
93.3348
90.8976
88.5116
86.1784
83.8995
81.6772
79.5137
77.4118
75.3748
73.4065
71.5112
69.693
67.9557
66.2978
64.7247
24.9822
9.2238
6.3681
5.49188
5.20131
5.16657
5.27387
5.47412
5.74296
6.06725
6.43967
6.85624
7.31515
7.81607
8.35978
8.9478
9.5824
10.2665
11.0034
11.797
12.6514
13.5708
14.56
15.6235
16.7661
17.9928
19.3084
20.718
22.2249
23.8324
25.5449
27.3661
29.2991
31.347
33.512
35.7961
38.2006
40.7266
43.3742
46.1434
49.0334
52.043
55.1704
58.4133
61.7689
65.2339
68.8046
72.4766
76.2455
80.1063
84.0535
88.0816
92.1846
96.3565
100.591
104.881
109.221
113.604
118.021
122.467
126.934
131.417
135.908
140.403
144.894
149.375
153.843
158.289
162.685
167.022
171.295
175.497
179.623
183.667
187.622
191.485
195.251
198.914
202.469
205.914
209.244
212.456
215.545
218.509
221.343
224.047
226.616
229.049
231.344
233.498
235.511
237.381
239.106
240.687
242.121
243.408
244.548
245.541
246.386
247.084
247.635
248.039
248.297
248.411
248.38
248.206
247.891
247.437
246.844
246.114
245.251
244.255
243.13
241.877
240.5
239.002
237.385
235.652
233.807
231.853
229.795
227.635
225.377
223.026
220.585
218.059
215.452
212.768
210.012
207.189
204.302
201.357
198.359
195.311
192.218
189.086
185.919
182.721
179.496
176.251
172.988
169.712
166.428
163.139
159.851
156.566
153.289
150.023
146.773
143.54
140.329
137.143
133.983
130.854
127.757
124.695
121.669
118.683
115.738
112.836
109.978
107.167
104.403
101.688
99.0239
96.4113
93.8518
91.3469
88.898
86.507
84.1758
81.9065
79.7018
77.5648
75.4988
73.5074
71.5941
69.7617
68.0082
66.3398
24.294
9.01944
6.20815
5.33677
5.04212
5.00156
5.10415
5.30235
5.57293
5.90369
6.28818
6.72334
7.20827
7.74371
8.33176
8.97415
9.67394
10.4352
11.2623
12.1602
13.1338
14.1885
15.3295
16.5624
17.8925
19.3249
20.8648
22.5167
24.2848
26.1725
28.1834
30.3204
32.5857
34.9814
37.5084
40.1674
42.9585
45.8808
48.9332
52.1138
55.4203
58.8497
62.3985
66.0629
69.8384
73.7203
77.7033
81.7821
85.9507
90.203
94.5328
98.9335
103.398
107.921
112.494
117.11
121.763
126.446
131.151
135.872
140.602
145.336
150.066
154.788
159.496
164.186
168.849
173.452
177.989
182.454
186.842
191.146
195.362
199.483
203.505
207.424
211.234
214.932
218.513
221.973
225.309
228.518
231.596
234.54
237.348
240.017
242.544
244.928
247.166
249.257
251.2
252.994
254.637
256.128
257.467
258.653
259.686
260.566
261.292
261.866
262.287
262.557
262.675
262.643
262.463
262.134
261.66
261.041
260.279
259.377
258.336
257.16
255.85
254.409
252.841
251.147
249.332
247.399
245.351
243.192
240.927
238.557
236.089
233.526
230.872
228.132
225.311
222.412
219.442
216.404
213.303
210.144
206.932
203.673
200.37
197.029
193.654
190.25
186.823
183.375
179.913
176.441
172.963
169.482
166.005
162.534
159.074
155.628
152.2
148.794
145.412
142.058
138.734
135.444
132.189
128.973
125.797
122.664
119.575
116.533
113.538
110.594
107.7
104.858
102.07
99.3375
96.6611
94.0424
91.483
88.9845
86.5487
84.1778
81.8741
79.6405
77.4799
75.3955
73.39
71.4658
69.6207
67.8614
23.3311
8.8132
6.05848
5.20005
4.9122
4.87929
4.99357
5.20968
5.50618
5.87255
6.30395
6.7989
7.35808
7.98368
8.67899
9.44793
10.2951
11.2259
12.2457
13.3605
14.5762
15.8984
17.3329
18.8851
20.5598
22.3616
24.2944
26.3615
28.5653
30.9079
33.3904
36.0133
38.7764
41.6791
44.7197
47.8963
51.2061
54.6459
58.2121
61.9004
65.7062
69.6247
73.6506
77.7783
82.002
86.3157
90.7132
95.1882
99.7342
104.345
109.013
113.732
118.495
123.297
128.129
132.986
137.86
142.746
147.638
152.529
157.413
162.287
167.144
171.981
176.794
181.567
186.27
190.899
195.45
199.916
204.293
208.577
212.762
216.843
220.817
224.679
228.425
232.052
235.555
238.932
242.178
245.292
248.27
251.109
253.807
256.361
258.77
261.032
263.144
265.106
266.916
268.572
270.075
271.422
272.614
273.65
274.529
275.253
275.82
276.231
276.486
276.587
276.533
276.327
275.969
275.46
274.803
273.999
273.049
271.956
270.723
269.352
267.845
266.205
264.436
262.54
260.521
258.383
256.129
253.763
251.289
248.711
246.034
243.261
240.398
237.45
234.42
231.313
228.136
224.891
221.586
218.224
214.81
211.35
207.848
204.311
200.741
197.146
193.528
189.894
186.247
182.593
178.935
175.279
171.628
167.986
164.358
160.748
157.158
153.593
150.056
146.55
143.077
139.641
136.244
132.888
129.576
126.309
123.091
119.921
116.803
113.737
110.725
107.769
104.869
102.027
99.2441
96.5218
93.8614
91.2644
88.7327
86.2682
83.8732
81.5501
79.3016
77.1305
75.0391
73.0293
71.099
69.2554
22.1783
8.56123
5.91649
5.09512
4.83527
4.83417
4.98944
5.25931
5.62542
6.08021
6.62176
7.25147
7.97281
8.79063
9.71061
10.7389
11.8819
13.146
14.5372
16.0613
17.7234
19.5278
21.4781
23.5767
25.8255
28.2252
30.7756
33.4757
36.3235
39.3166
42.4516
45.7248
49.1319
52.6682
56.3286
60.108
64.0007
68.0012
72.1036
76.3021
80.5907
84.9635
89.4146
93.9379
98.5275
103.178
107.882
112.635
117.431
122.264
127.128
132.017
136.926
141.85
146.782
151.718
156.652
161.58
166.496
171.397
176.277
181.135
185.965
190.768
195.515
200.188
204.781
209.292
213.715
218.046
222.283
226.419
230.452
234.377
238.191
241.89
245.47
248.928
252.261
255.465
258.538
261.476
264.278
266.941
269.461
271.838
274.069
276.152
278.085