/*--------------------------------*- C++ -*----------------------------------*\
| =========                 |                                                 |
| \\      /  F ield         | OpenFOAM: The Open Source CFD Toolbox           |
|  \\    /   O peration     | Version:  2412                                  |
|   \\  /    A nd           | Website:  www.openfoam.com                      |
|    \\/     M anipulation  |                                                 |
\*---------------------------------------------------------------------------*/
FoamFile
{
    version     2.0;
    format      ascii;
    arch        "LSB;label=32;scalar=64";
    class       volScalarField;
    location    "0.22";
    object      k;
}
// * * * * * * * * * * * * * * * * * * * * * * * * * * * * * * * * * * * * * //

dimensions      [0 2 -2 0 0 0 0];

internalField   nonuniform List<scalar> 
12225
(
0.316793
0.394493
0.477907
0.542615
0.593832
0.634379
0.666732
0.692788
0.71389
0.731052
0.745056
0.756494
0.765819
0.77337
0.779405
0.784059
0.787448
0.790419
0.569139
0.788914
0.952583
1.068
1.1512
1.2127
1.25817
1.29171
1.31631
1.33412
1.34671
1.35526
1.36068
1.36364
1.36474
1.3643
1.36352
1.36144
0.670061
0.972154
1.18323
1.33202
1.43945
1.51861
1.57693
1.61969
1.65078
1.67302
1.68851
1.6988
1.70509
1.70831
1.70923
1.70844
1.70695
1.70493
0.722108
1.07674
1.32651
1.50447
1.63403
1.72971
1.80042
1.85243
1.89038
1.91766
1.93679
1.94967
1.95776
1.9622
1.96393
1.96374
1.96263
1.96116
0.74277
1.1292
1.41224
1.61818
1.77022
1.88337
1.96762
2.03016
2.07624
2.10979
2.13375
2.15033
2.16126
2.16791
2.17137
2.1726
2.17261
2.17207
0.739913
1.13776
1.44637
1.67819
1.85304
1.98504
2.08466
2.15963
2.21576
2.2574
2.28789
2.30975
2.32498
2.33514
2.34152
2.34521
2.34721
2.34819
0.719619
1.1088
1.43132
1.68401
1.88027
2.03176
2.14827
2.23764
2.30592
2.35778
2.39684
2.42592
2.44724
2.46257
2.47336
2.48081
2.48593
2.4893
0.68764
1.05045
1.37182
1.63646
1.84971
2.01922
2.1529
2.25789
2.34005
2.4041
2.45377
2.49209
2.52145
2.54379
2.5607
2.57345
2.58306
2.58999
0.648984
0.972374
1.27661
1.54078
1.76291
1.9459
2.09468
2.21483
2.31142
2.3888
2.45063
2.49989
2.53906
2.57018
2.59489
2.61455
2.63013
2.64199
0.607482
0.884083
1.15746
1.40738
1.62721
1.81569
1.97443
2.10671
2.21623
2.30654
2.3808
2.44179
2.49187
2.53301
2.56688
2.59481
2.61774
2.63586
0.565817
0.793315
1.02683
1.25028
1.45564
1.63912
1.79961
1.93801
2.05628
2.15676
2.24184
2.31374
2.3745
2.42588
2.46941
2.50633
2.53748
2.56282
0.528744
0.712089
0.905172
1.09645
1.27866
1.44747
1.6004
1.7367
1.8568
1.96184
2.05326
2.13258
2.20134
2.26094
2.31266
2.35753
2.39622
2.4284
0.49465
0.637266
0.790575
0.946976
1.10075
1.24801
1.38598
1.51299
1.62841
1.73233
1.82528
1.90807
1.9816
2.04684
2.1047
2.15595
2.20104
2.23929
0.460674
0.56214
0.673139
0.789668
0.907887
1.02492
1.13844
1.24665
1.34838
1.44302
1.53035
1.61047
1.68365
1.75031
1.81089
1.86582
1.91523
1.95813
0.429344
0.492745
0.562793
0.638283
0.71734
0.798302
0.87967
0.960094
1.03847
1.114
1.18612
1.25448
1.31891
1.37935
1.43585
1.48844
1.53699
1.58028
0.403167
0.435381
0.470973
0.510048
0.552181
0.596844
0.64346
0.691385
0.739976
0.788651
0.836914
0.884359
0.930659
0.975559
1.01887
1.06041
1.0999
1.13627
0.384082
0.394607
0.40648
0.41989
0.434841
0.451293
0.469185
0.488405
0.508793
0.530166
0.552329
0.575086
0.598245
0.621596
0.644957
0.668166
0.691017
0.712971
0.374047
0.373709
0.374088
0.375205
0.377035
0.379558
0.38276
0.386627
0.391137
0.39626
0.401963
0.408206
0.414945
0.422153
0.42979
0.437797
0.446108
0.454613
0.376606
0.378924
0.38199
0.385852
0.390486
0.395854
0.401924
0.408648
0.41597
0.423822
0.432135
0.440837
0.449857
0.459127
0.468583
0.478162
0.487791
0.49725
0.394948
0.417781
0.44296
0.47056
0.500302
0.531824
0.564736
0.598607
0.632988
0.667462
0.701661
0.735277
0.768055
0.799799
0.830359
0.859627
0.88748
0.913512
0.427772
0.489069
0.556234
0.62802
0.702589
0.778298
0.853716
0.927583
0.998891
1.06691
1.13117
1.1914
1.24747
1.29941
1.34731
1.39132
1.4316
1.46818
0.475741
0.594976
0.723614
0.855987
0.987207
1.11395
1.23383
1.34525
1.44737
1.53999
1.62331
1.69779
1.76404
1.82275
1.87461
1.92032
1.96049
1.99563
0.536848
0.728698
0.928631
1.12374
1.30643
1.47305
1.62185
1.75258
1.86613
1.96396
2.04773
2.11913
2.17975
2.23105
2.27434
2.31075
2.34126
2.36672
0.604142
0.873971
1.14017
1.3824
1.59449
1.77607
1.92885
2.05587
2.16066
2.24662
2.31681
2.37384
2.41995
2.457
2.48655
2.5099
2.5281
2.54211
0.668316
1.00767
1.31643
1.57533
1.7871
1.95803
2.09449
2.20267
2.28801
2.35499
2.40721
2.44757
2.47841
2.50158
2.51857
2.53059
2.53861
2.54351
0.717304
1.0992
1.41419
1.65889
1.84812
1.99399
2.10592
2.19145
2.2565
2.30558
2.34216
2.36896
2.38806
2.40109
2.40934
2.41381
2.41532
2.41459
0.735719
1.11862
1.40734
1.61983
1.77772
1.89573
1.98396
2.04967
2.09826
2.13377
2.15921
2.17688
2.18853
2.19548
2.19879
2.19926
2.19754
2.19422
0.7082
1.04716
1.29075
1.46557
1.59175
1.68427
1.75245
1.80244
1.83877
1.86478
1.88294
1.89507
1.90256
1.90646
1.90759
1.90659
1.90394
1.90013
0.616922
0.862574
1.0489
1.18265
1.27674
1.3449
1.39483
1.43126
1.45766
1.47655
1.48973
1.49854
1.50399
1.50683
1.50767
1.50696
1.50507
1.50238
0.33327
0.408788
0.496175
0.564091
0.616603
0.657437
0.689396
0.714704
0.734937
0.751224
0.764412
0.775146
0.783921
0.791118
0.797038
0.801919
0.805937
0.809268
0.00701088
0.0112672
0.0145247
0.0170925
0.0190746
0.0206914
0.0224559
0.0243671
0.0263634
0.0284638
0.0307158
0.0332388
0.0364081
0.0401411
0.0442336
0.0486407
0.0533556
0.0583853
0.0637349
0.0694024
0.0753781
0.0816463
0.0881878
0.0949817
0.102008
0.109252
0.1167
0.124351
0.132211
0.1403
0.148654
0.15719
0.165838
0.174581
0.183406
0.192303
0.201263
0.210278
0.219342
0.228449
0.237594
0.246771
0.255977
0.265207
0.274456
0.283722
0.292998
0.302282
0.311569
0.320853
0.33013
0.339395
0.348641
0.357864
0.367057
0.376215
0.385331
0.394399
0.403413
0.412365
0.421249
0.430059
0.438787
0.447428
0.455974
0.464419
0.472756
0.480979
0.489083
0.497063
0.504918
0.512647
0.520258
0.527769
0.535215
0.542539
0.549676
0.556633
0.56341
0.570007
0.576418
0.58264
0.588668
0.594497
0.600123
0.605541
0.610748
0.615739
0.620512
0.625061
0.629385
0.633481
0.637345
0.640975
0.644369
0.647526
0.650442
0.653117
0.655548
0.657736
0.659678
0.661374
0.662823
0.664026
0.664981
0.665688
0.666148
0.666361
0.666327
0.666047
0.665522
0.664753
0.663741
0.662488
0.660995
0.659264
0.657298
0.655099
0.652669
0.650011
0.647128
0.644024
0.640702
0.637166
0.63342
0.629468
0.625316
0.620966
0.616426
0.6117
0.606792
0.601711
0.59646
0.591047
0.585478
0.579758
0.573897
0.5679
0.561771
0.555532
0.54917
0.542727
0.536254
0.530091
0.525902
0.522296
0.518647
0.514912
0.511091
0.507188
0.503206
0.499153
0.495033
0.490853
0.486617
0.482331
0.478001
0.473633
0.469233
0.464805
0.460356
0.455891
0.451415
0.446933
0.442449
0.437968
0.433492
0.429024
0.424566
0.420116
0.41567
0.41122
0.406752
0.402237
0.397627
0.39283
0.38764
0.381538
0.373637
0.362988
0.0148911
0.0234968
0.0312638
0.0376164
0.0433704
0.0491527
0.0548533
0.0606964
0.0668469
0.0734378
0.0804909
0.0879804
0.0958717
0.104107
0.112636
0.121434
0.130498
0.139836
0.14946
0.159383
0.169618
0.180179
0.191074
0.202314
0.213905
0.22585
0.23815
0.250803
0.263801
0.277133
0.290784
0.304731
0.318956
0.333442
0.348175
0.36314
0.378323
0.39371
0.409289
0.425048
0.440976
0.457063
0.4733
0.489677
0.506185
0.522817
0.539564
0.556417
0.573367
0.590407
0.607525
0.624713
0.641961
0.659259
0.676595
0.693958
0.711337
0.72872
0.746095
0.763449
0.780769
0.798043
0.815257
0.8324
0.849457
0.866415
0.883263
0.899986
0.916573
0.93301
0.949285
0.965387
0.981302
0.997016
1.01244
1.02752
1.04232
1.05686
1.07114
1.08515
1.09887
1.1123
1.12543
1.13824
1.15073
1.16288
1.17469
1.18615
1.19724
1.20797
1.21832
1.22828
1.23785
1.24701
1.25578
1.26413
1.27206
1.27957
1.28665
1.2933
1.29951
1.30527
1.3106
1.31547
1.3199
1.32387
1.32738
1.33044
1.33304
1.33518
1.33685
1.33807
1.33882
1.3391
1.33893
1.3383
1.33721
1.33565
1.33365
1.33119
1.32828
1.32493
1.32114
1.31691
1.31224
1.30715
1.30164
1.29572
1.28939
1.28267
1.27555
1.26805
1.26018
1.25194
1.24335
1.23442
1.22516
1.21558
1.20568
1.19551
1.18501
1.17429
1.1634
1.15241
1.14158
1.13071
1.11968
1.10847
1.0971
1.08557
1.07389
1.06209
1.05018
1.03816
1.02605
1.01387
1.00163
0.989335
0.977004
0.964649
0.952281
0.939912
0.927553
0.915214
0.902907
0.89064
0.878422
0.86626
0.854162
0.84213
0.830167
0.81827
0.806433
0.794642
0.782869
0.771075
0.759158
0.747
0.733103
0.717869
0.0219835
0.0374072
0.0490988
0.0582611
0.0665149
0.0741865
0.0818143
0.0897111
0.0980471
0.106887
0.116217
0.12598
0.136112
0.146558
0.157289
0.168301
0.179613
0.191257
0.203272
0.215698
0.228571
0.24192
0.255769
0.270129
0.285005
0.300391
0.316275
0.332638
0.349454
0.366694
0.384328
0.402326
0.420658
0.439298
0.458222
0.477407
0.496833
0.516483
0.536341
0.556391
0.576623
0.597024
0.617584
0.638295
0.659146
0.68013
0.701237
0.722459
0.743787
0.765211
0.78672
0.808305
0.829955
0.851657
0.8734
0.89517
0.916954
0.938738
0.960508
0.98225
1.00395
1.02558
1.04715
1.06862
1.08999
1.11123
1.13234
1.15329
1.17408
1.19468
1.21509
1.23529
1.25527
1.27501
1.29442
1.31352
1.3323
1.35075
1.36888
1.38667
1.40409
1.42115
1.43782
1.45409
1.46994
1.48538
1.50037
1.51492
1.529
1.54261
1.55574
1.56838
1.58051
1.59214
1.60324
1.61382
1.62387
1.63337
1.64233
1.65073
1.65858
1.66586
1.67257
1.67872
1.68428
1.68927
1.69368
1.6975
1.70073
1.70338
1.70544
1.70691
1.70779
1.70808
1.70779
1.7069
1.70544
1.70339
1.70076
1.69756
1.69378
1.68944
1.68454
1.67908
1.67308
1.66653
1.65945
1.65184
1.64372
1.6351
1.62597
1.61637
1.60629
1.59575
1.58476
1.57334
1.5615
1.54925
1.53658
1.52361
1.51031
1.4967
1.48283
1.46877
1.45463
1.44034
1.42585
1.41115
1.39624
1.38115
1.36588
1.35045
1.33489
1.3192
1.30341
1.28752
1.27157
1.25555
1.2395
1.22342
1.20733
1.19124
1.17518
1.15914
1.14316
1.12723
1.11137
1.09559
1.07991
1.06432
1.04884
1.03347
1.01821
1.00307
0.98804
0.973122
0.958306
0.943631
0.928647
0.913122
0.0282627
0.051868
0.0669418
0.0783113
0.08799
0.0970333
0.105989
0.115178
0.124777
0.134856
0.145414
0.156412
0.167805
0.179562
0.191674
0.20416
0.217052
0.230395
0.244234
0.258613
0.273565
0.289112
0.305266
0.322026
0.339382
0.357315
0.375798
0.394802
0.414293
0.434236
0.454596
0.475341
0.496442
0.51787
0.539603
0.561618
0.583896
0.606421
0.629177
0.652153
0.675337
0.698718
0.722288
0.746036
0.769954
0.794034
0.818266
0.842641
0.86715
0.891781
0.916524
0.941366
0.966296
0.991299
1.01636
1.04147
1.06661
1.09176
1.1169
1.14202
1.16711
1.19214
1.21709
1.24194
1.26669
1.2913
1.31576
1.34005
1.36416
1.38807
1.41175
1.4352
1.4584
1.48131
1.50387
1.52609
1.54794
1.56942
1.59051
1.6112
1.63147
1.6513
1.67068
1.68959
1.70802
1.72594
1.74335
1.76023
1.77657
1.79235
1.80756
1.8222
1.83624
1.84968
1.86251
1.87472
1.88631
1.89726
1.90756
1.91722
1.92621
1.93455
1.94222
1.94922
1.95555
1.9612
1.96616
1.97044
1.97404
1.97695
1.97917
1.98071
1.98155
1.98171
1.98119
1.97998
1.97808
1.97552
1.97227
1.96836
1.96379
1.95855
1.95267
1.94614
1.93897
1.93118
1.92276
1.91374
1.90413
1.89393
1.88315
1.87182
1.85994
1.84752
1.83459
1.82115
1.80724
1.7929
1.77812
1.76295
1.7474
1.73151
1.71529
1.69883
1.68216
1.66528
1.64817
1.63083
1.61326
1.59547
1.5775
1.55935
1.54104
1.5226
1.50404
1.48539
1.46666
1.44787
1.42904
1.41019
1.39133
1.37248
1.35367
1.33489
1.31618
1.29755
1.279
1.26056
1.24224
1.22405
1.206
1.1881
1.17037
1.15283
1.13548
1.11839
1.10159
1.08524
1.06926
1.05362
0.0333701
0.065187
0.0832735
0.0963114
0.107322
0.117474
0.127384
0.137411
0.147765
0.158551
0.169807
0.181531
0.193711
0.206344
0.219439
0.233023
0.247132
0.261808
0.277087
0.293001
0.309571
0.326807
0.344708
0.363263
0.382451
0.402248
0.422624
0.443546
0.46498
0.486893
0.509253
0.53203
0.555197
0.578729
0.602605
0.626805
0.651311
0.676109
0.701184
0.726526
0.752123
0.777965
0.804043
0.830346
0.856866
0.883593
0.910517
0.937628
0.964913
0.992362
1.01996
1.0477
1.07555
1.10351
1.13157
1.15969
1.18787
1.21608
1.2443
1.27252
1.30071
1.32885
1.35692
1.3849
1.41276
1.44049
1.46805
1.49544
1.52262
1.54958
1.5763
1.60275
1.62892
1.65474
1.68018
1.70524
1.72989
1.75411
1.7779
1.80122
1.82407
1.84642
1.86824
1.88953
1.91027
1.93043
1.95001
1.96898
1.98733
2.00504
2.02211
2.03851
2.05424
2.06929
2.08364
2.09728
2.11021
2.12241
2.13388
2.14461
2.1546
2.16383
2.17231
2.18003
2.18698
2.19316
2.19857
2.2032
2.20706
2.21014
2.21245
2.21398
2.21473
2.2147
2.21391
2.21234
2.21001
2.20691
2.20305
2.19845
2.19309
2.187
2.18018
2.17263
2.16438
2.15541
2.14576
2.13543
2.12443
2.11278
2.10048
2.08756
2.07404
2.0599
2.04523
2.03002
2.01429
1.99807
1.98138
1.96424
1.94668
1.92873
1.91042
1.8918
1.87291
1.85376
1.83434
1.81467
1.79476
1.77461
1.75426
1.73372
1.71302
1.69217
1.67121
1.65014
1.62899
1.60778
1.58654
1.56528
1.54402
1.52278
1.50159
1.48045
1.45938
1.43841
1.41756
1.39683
1.37624
1.35582
1.33557
1.31553
1.2957
1.27613
1.25685
1.23794
1.2195
1.20173
1.18469
1.16852
0.0379772
0.0762903
0.0968896
0.111588
0.123825
0.134927
0.145591
0.156229
0.167096
0.178343
0.19005
0.202257
0.214986
0.228256
0.242089
0.256514
0.271562
0.287263
0.303646
0.320727
0.338516
0.357013
0.376211
0.396091
0.416634
0.437812
0.459597
0.48196
0.50487
0.528298
0.552217
0.576601
0.601425
0.62667
0.652315
0.678343
0.704738
0.731487
0.758576
0.785995
0.813732
0.841776
0.870118
0.898747
0.927653
0.956824
0.986249
1.01592
1.04581
1.07592
1.10623
1.13672
1.16738
1.19818
1.22911
1.26015
1.29127
1.32245
1.35367
1.3849
1.41612
1.4473
1.47842
1.50945
1.54037
1.57115
1.60175
1.63216
1.66236
1.69231
1.72198
1.75136
1.78043
1.80909
1.83733
1.86514
1.8925
1.91938
1.94577
1.97163
1.99696
2.02172
2.0459
2.06948
2.09243
2.11473
2.13637
2.15733
2.1776
2.19715
2.21597
2.23405
2.25137
2.26792
2.2837
2.29868
2.31286
2.32623
2.33878
2.3505
2.36139
2.37145
2.38065
2.38901
2.39652
2.40316
2.40895
2.41388
2.41795
2.42115
2.42349
2.42496
2.42558
2.42534
2.42424
2.42229
2.41949
2.41585
2.41137
2.40606
2.39993
2.39299
2.38523
2.37669
2.36736
2.35726
2.3464
2.33478
2.32245
2.3094
2.29562
2.2812
2.26612
2.25041
2.23409
2.21719
2.19973
2.18172
2.16321
2.14421
2.12474
2.10485
2.08456
2.06392
2.04296
2.02169
2.00013
1.9783
1.9562
1.93386
1.9113
1.88855
1.86562
1.84255
1.81934
1.79604
1.77266
1.74923
1.72576
1.70228
1.67881
1.65537
1.63198
1.60867
1.58545
1.56234
1.53936
1.51654
1.49389
1.47143
1.44919
1.42719
1.40547
1.38407
1.36305
1.34251
1.32257
1.30344
1.28524
1.26815
0.0444782
0.0853415
0.107863
0.123912
0.137181
0.149092
0.160394
0.171541
0.182824
0.194433
0.206488
0.219064
0.232211
0.245965
0.260357
0.275415
0.291167
0.307633
0.32483
0.342768
0.361449
0.380868
0.401014
0.42187
0.443416
0.46563
0.488486
0.511961
0.536029
0.560667
0.585851
0.61156
0.637775
0.664477
0.69165
0.719278
0.747349
0.775848
0.804763
0.834084
0.863798
0.893896
0.924365
0.955194
0.986372
1.01789
1.04972
1.08186
1.1143
1.14701
1.17997
1.21317
1.24659
1.2802
1.31399
1.34792
1.38196
1.41611
1.45031
1.48456
1.51881
1.55303
1.5872
1.62129
1.65526
1.68909
1.72274
1.75618
1.78938
1.82231
1.85495
1.88725
1.91918
1.95067
1.9817
2.01224
2.04228
2.07179
2.10074
2.12911
2.15688
2.18402
2.21051
2.23632
2.26144
2.28583
2.30949
2.33239
2.35452
2.37585
2.39637
2.41607
2.43492
2.45293
2.47007
2.48633
2.50171
2.51619
2.52976
2.54243
2.55417
2.56498
2.57486
2.58381
2.59182
2.59888
2.60501
2.61018
2.61441
2.61769
2.62002
2.62141
2.62186
2.62136
2.61993
2.61757
2.61428
2.61008
2.60496
2.59893
2.59201
2.5842
2.57552
2.56597
2.55557
2.54434
2.53228
2.5194
2.50575
2.49134
2.47617
2.46029
2.4437
2.42644
2.40852
2.38997
2.37082
2.35109
2.33081
2.31
2.2887
2.26694
2.24474
2.22215
2.1992
2.17591
2.15231
2.12841
2.10423
2.0798
2.05514
2.03028
2.00524
1.98005
1.95473
1.9293
1.90381
1.87826
1.85268
1.8271
1.80154
1.77602
1.75057
1.72521
1.69995
1.67483
1.64986
1.62507
1.60048
1.57611
1.552
1.52818
1.50468
1.48157
1.45892
1.43684
1.41547
1.39499
1.37554
1.35724
0.0501852
0.0922021
0.116132
0.133234
0.147341
0.159938
0.171801
0.183407
0.195071
0.20701
0.219372
0.232259
0.245742
0.259869
0.27468
0.290204
0.306463
0.323476
0.341252
0.359797
0.379111
0.399188
0.420017
0.441585
0.463877
0.486873
0.510555
0.534905
0.559903
0.585531
0.611772
0.638609
0.666026
0.694008
0.722543
0.751616
0.781216
0.811331
0.84195
0.873061
0.904652
0.936712
0.969228
1.00219
1.03558
1.06938
1.10359
1.13817
1.17312
1.20841
1.24402
1.27993
1.31612
1.35255
1.38919
1.42603
1.46303
1.50015
1.53737
1.57464
1.61195
1.64924
1.68649
1.72365
1.7607
1.7976
1.83431
1.87079
1.90701
1.94294
1.97854
2.01378
2.04857
2.08287
2.11667
2.14993
2.18263
2.21475
2.24624
2.27709
2.30728
2.33676
2.36552
2.39354
2.42078
2.44723
2.47286
2.49766
2.5216
2.54466
2.56683
2.5881
2.60844
2.62784
2.6463
2.66379
2.68031
2.69585
2.71039
2.72394
2.73648
2.748
2.75851
2.768
2.77647
2.7839
2.79031
2.79569
2.80004
2.80335
2.80564
2.80691
2.80715
2.80637
2.80458
2.80178
2.79798
2.79318
2.7874
2.78064
2.77291
2.76424
2.75461
2.74404
2.73257
2.72022
2.70698
2.69288
2.67794
2.66219
2.64564
2.62832
2.61025
2.59146
2.57197
2.55181
2.53101
2.50959
2.48758
2.46501
2.44192
2.41833
2.39428
2.36981
2.34494
2.3197
2.29413
2.26824
2.24207
2.21562
2.18895
2.16206
2.13499
2.10776
2.08041
2.05296
2.02543
1.99786
1.97027
1.94268
1.91512
1.88762
1.8602
1.83287
1.80568
1.77864
1.75177
1.7251
1.69867
1.67249
1.6466
1.62104
1.59587
1.57113
1.54693
1.52336
1.50058
1.47875
1.45797
1.43833
0.0549355
0.0969828
0.121849
0.139721
0.154483
0.167647
0.18
0.192025
0.20405
0.216304
0.228952
0.242112
0.255869
0.270284
0.285401
0.301253
0.317862
0.335246
0.353413
0.37237
0.392116
0.412648
0.43396
0.456043
0.478887
0.502479
0.526807
0.551859
0.577623
0.604085
0.631234
0.659057
0.687545
0.716685
0.746468
0.776882
0.807916
0.839562
0.871807
0.90464
0.93805
0.972023
1.00655
1.04161
1.07718
1.11327
1.14983
1.18685
1.22432
1.2622
1.30048
1.33911
1.37808
1.41735
1.45688
1.49666
1.53663
1.57676
1.61701
1.65735
1.69773
1.73811
1.77845
1.81871
1.85885
1.89883
1.9386
1.97813
2.01737
2.05629
2.09484
2.13299
2.17063
2.20773
2.24427
2.28023
2.31556
2.35023
2.38423
2.41752
2.45007
2.48185
2.51283
2.543
2.57231
2.60075
2.6283
2.65492
2.68061
2.70534
2.7291
2.75187
2.77363
2.79437
2.81407
2.83273
2.85033
2.86687
2.88233
2.8967
2.90997
2.92215
2.93323
2.94321
2.95208
2.95984
2.96648
2.97202
2.97644
2.97975
2.98196
2.98306
2.98306
2.98196
2.97978
2.97651
2.97217
2.96676
2.96029
2.95277
2.94423
2.93467
2.92411
2.91255
2.90003
2.88656
2.87215
2.85683
2.84063
2.82355
2.80563
2.7869
2.76737
2.74708
2.72605
2.70431
2.68189
2.65882
2.63512
2.61084
2.58601
2.56064
2.53479
2.50849
2.48176
2.45464
2.42717
2.39937
2.37127
2.34289
2.31427
2.28543
2.25641
2.22723
2.19793
2.16853
2.13906
2.10955
2.08002
2.05051
2.02104
1.99164
1.96233
1.93313
1.90408
1.87521
1.84652
1.81807
1.78987
1.76195
1.73437
1.70716
1.68037
1.65408
1.62837
1.60336
1.57919
1.55601
1.53386
1.51282
0.0587262
0.0999084
0.125299
0.143684
0.158922
0.172531
0.185295
0.197693
0.210048
0.222595
0.235504
0.248902
0.262882
0.277513
0.292846
0.308917
0.325752
0.343371
0.361785
0.381004
0.401032
0.42187
0.443517
0.465971
0.489228
0.513283
0.538132
0.563767
0.590183
0.617375
0.645335
0.674056
0.703533
0.733757
0.764721
0.796418
0.828838
0.861972
0.895809
0.930339
0.965549
1.00142
1.03795
1.07511
1.11288
1.15125
1.19019
1.22968
1.26968
1.31018
1.35114
1.39253
1.43431
1.47644
1.5189
1.56163
1.60459
1.64775
1.69105
1.73446
1.77792
1.82139
1.86482
1.90817
1.95138
1.99442
2.03723
2.07978
2.12201
2.16388
2.20536
2.24634
2.28677
2.32661
2.36583
2.4044
2.44229
2.47946
2.51588
2.55152
2.58636
2.62035
2.65347
2.68569
2.71698
2.74733
2.77669
2.80506
2.83241
2.85872
2.88397
2.90815
2.93124
2.95323
2.9741
2.99384
3.01244
3.02989
3.04618
3.0613
3.07525
3.08801
3.09959
3.10999
3.1192
3.12722
3.13405
3.13969
3.14413
3.14739
3.14946
3.15036
3.15008
3.14863
3.14602
3.14226
3.13735
3.13131
3.12415
3.11588
3.10652
3.09609
3.08459
3.07204
3.05847
3.04389
3.02834
3.01181
2.99435
2.97598
2.95672
2.9366
2.91564
2.89388
2.87134
2.84806
2.82407
2.79939
2.77406
2.74812
2.72159
2.69451
2.66692
2.63884
2.61033
2.58141
2.55211
2.52247
2.49252
2.46229
2.4318
2.4011
2.37021
2.33917
2.308
2.27673
2.24541
2.21404
2.18267
2.15133
2.12003
2.08881
2.0577
2.02672
1.9959
1.96527
1.93486
1.90469
1.87481
1.84524
1.81604
1.78724
1.75891
1.73112
1.70396
1.67755
1.65201
1.62746
1.60394
1.58149
0.0615924
0.101237
0.126811
0.145485
0.161036
0.17497
0.188056
0.200762
0.213403
0.226207
0.239343
0.252941
0.267097
0.281886
0.297363
0.31357
0.330539
0.348294
0.366853
0.38623
0.406435
0.427477
0.449361
0.472094
0.495678
0.520116
0.545411
0.571564
0.598575
0.626445
0.655173
0.684756
0.715193
0.74648
0.778613
0.811586
0.845391
0.88002
0.915464
0.951709
0.988742
1.02655
1.06511
1.1044
1.14441
1.1851
1.22645
1.26844
1.31102
1.35417
1.39785
1.44202
1.48663
1.53166
1.57704
1.62273
1.66869
1.71487
1.76121
1.80767
1.85418
1.9007
1.94717
1.99355
2.03978
2.08582
2.1316
2.17708
2.22222
2.26695
2.31124
2.35495
2.39806
2.44052
2.4823
2.52336
2.56368
2.60321
2.64193
2.67979
2.71677
2.75284
2.78796
2.82211
2.85525
2.88736
2.91841
2.94838
2.97726
3.00502
3.03164
3.05711
3.08141
3.10453
3.12645
3.14717
3.16667
3.18494
3.20196
3.21773
3.23225
3.24551
3.25751
3.26825
3.27772
3.28593
3.29288
3.29856
3.30297
3.30612
3.30801
3.30866
3.30806
3.30623
3.30317
3.29889
3.2934
3.28673
3.27887
3.26984
3.25966
3.24835
3.23592
3.22239
3.20779
3.19213
3.17543
3.15773
3.13905
3.11941
3.09884
3.07737
3.05502
3.03184
3.00785
2.98308
2.95756
2.93134
2.90443
2.87689
2.84873
2.82
2.79074
2.76098
2.73076
2.70012
2.66908
2.63769
2.60598
2.57399
2.54173
2.50926
2.4766
2.44378
2.41084
2.37781
2.34472
2.3116
2.27848
2.24539
2.21236
2.17943
2.14661
2.11393
2.08144
2.04915
2.01709
1.98531
1.95383
1.92269
1.89194
1.86164
1.83183
1.80261
1.77405
1.74628
1.71938
1.69349
1.6686
1.64476
0.063581
0.101225
0.126711
0.145493
0.161214
0.175357
0.188675
0.201616
0.214485
0.227498
0.24082
0.254577
0.268868
0.283769
0.29934
0.315629
0.332673
0.350505
0.369148
0.388625
0.408954
0.43015
0.45223
0.475205
0.499089
0.523891
0.549622
0.57629
0.603902
0.632464
0.661981
0.692457
0.723892
0.756286
0.789638
0.823944
0.859196
0.895387
0.932505
0.970537
1.00947
1.04928
1.08994
1.13144
1.17375
1.21683
1.26066
1.3052
1.3504
1.39624
1.44266
1.48963
1.53709
1.58499
1.63329
1.68193
1.73085
1.78
1.82932
1.87874
1.92823
1.9777
2.02711
2.07641
2.12553
2.17442
2.22303
2.2713
2.31919
2.36664
2.41353
2.45979
2.50538
2.55027
2.59442
2.63778
2.68033
2.72203
2.76283
2.80272
2.84165
2.8796
2.91653
2.95241
2.98721
3.0209
3.05346
3.08486
3.11509
3.14412
3.17194
3.19854
3.22389
3.24799
3.27081
3.29236
3.31263
3.33159
3.34922
3.36552
3.3805
3.39415
3.40647
3.41745
3.4271
3.43542
3.4424
3.44805
3.45236
3.45535
3.45702
3.45738
3.45643
3.45418
3.45065
3.44584
3.43976
3.43243
3.42387
3.41408
3.40309
3.39091
3.37756
3.36307
3.34746
3.33074
3.31295
3.2941
3.27423
3.25337
3.23153
3.20877
3.18509
3.16054
3.13516
3.10896
3.082
3.0543
3.0259
2.99683
2.96713
2.93685
2.906
2.87465
2.84282
2.81055
2.77788
2.74484
2.71148
2.67783
2.64391
2.60978
2.57545
2.54097
2.50637
2.47168
2.43694
2.40217
2.36742
2.3327
2.29805
2.2635
2.22908
2.19482
2.16075
2.1269
2.0933
2.05999
2.02701
1.99439
1.96219
1.93046
1.89926
1.86867
1.83877
1.80967
1.78147
1.75426
1.72803
1.70284
0.0647392
0.100107
0.125303
0.14405
0.159825
0.174077
0.187537
0.20064
0.213674
0.226846
0.240312
0.254194
0.268589
0.283576
0.299219
0.31557
0.332674
0.350571
0.369293
0.388871
0.409332
0.430702
0.453004
0.476261
0.500492
0.525719
0.551956
0.579222
0.607527
0.636883
0.6673
0.698785
0.731342
0.764974
0.799679
0.835455
0.872293
0.910185
0.949116
0.989071
1.03003
1.07197
1.11486
1.15867
1.20338
1.24893
1.29531
1.34245
1.39032
1.43887
1.48805
1.53781
1.58808
1.63882
1.68997
1.74147
1.79325
1.84526
1.89743
1.94968
2.00196
2.05421
2.10637
2.15837
2.21017
2.26169
2.31289
2.36371
2.4141
2.46397
2.51319
2.56172
2.60952
2.65656
2.70279
2.74818
2.79268
2.83625
2.87887
2.92051
2.96111
3.00068
3.03917
3.07653
3.11273
3.14775
3.18156
3.21416
3.24551
3.2756
3.30441
3.33193
3.35814
3.38302
3.40656
3.42876
3.44961
3.46908
3.48717
3.50388
3.51919
3.53311
3.54563
3.55676
3.56649
3.57483
3.58177
3.58732
3.59147
3.59424
3.59564
3.59566
3.59432
3.59163
3.5876
3.58223
3.57555
3.56757
3.5583
3.54776
3.53596
3.52294
3.5087
3.49327
3.47668
3.45894
3.44009
3.42015
3.39915
3.37712
3.35409
3.33009
3.30515
3.27932
3.25262
3.22509
3.19676
3.16768
3.13787
3.10738
3.07625
3.04451
3.0122
2.97936
2.94603
2.91226
2.87807
2.84351
2.80862
2.77344
2.73799
2.70231
2.66645
2.63044
2.59431
2.55809
2.52182
2.48554
2.44927
2.41304
2.3769
2.34086
2.30496
2.26923
2.2337
2.19841
2.16338
2.12866
2.09428
2.06029
2.02673
1.99366
1.96115
1.92927
1.8981
1.86775
1.83829
1.80981
1.78229
1.75579
0.0651068
0.0980869
0.122853
0.141463
0.157202
0.171481
0.18501
0.19821
0.211356
0.224645
0.238227
0.252217
0.266714
0.281795
0.29753
0.313976
0.331185
0.349203
0.368075
0.387838
0.40853
0.430186
0.452839
0.476521
0.50126
0.527085
0.554019
0.582086
0.611301
0.641676
0.673225
0.705957
0.739879
0.774992
0.811296
0.848784
0.887447
0.92727
0.968236
1.01032
1.0535
1.09774
1.14302
1.18928
1.2365
1.28462
1.3336
1.3834
1.43394
1.48519
1.53708
1.58955
1.64255
1.696
1.74985
1.80403
1.85848
1.91315
1.96792
2.02273
2.07753
2.13226
2.18685
2.24124
2.29537
2.34918
2.40261
2.45562
2.50814
2.56
2.61115
2.66156
2.71119
2.75998
2.80791
2.85493
2.901
2.94608
2.99014
3.03316
3.07508
3.11589
3.15556
3.19405
3.23133
3.26736
3.30214
3.33564
3.36785
3.39873
3.42827
3.45647
3.4833
3.50874
3.5328
3.55545
3.57669
3.59651
3.61489
3.63184
3.64734
3.66139
3.67399
3.68515
3.69485
3.70311
3.70992
3.71529
3.71921
3.7217
3.72277
3.72241
3.72065
3.71748
3.71292
3.70699
3.6997
3.69106
3.68109
3.66981
3.65723
3.64338
3.62829
3.61196
3.59444
3.57573
3.55588
3.53491
3.51285
3.48973
3.46558
3.44044
3.41434
3.38731
3.3594
3.33063
3.30105
3.2707
3.23961
3.20782
3.17537
3.1423
3.10865
3.07446
3.03978
3.00464
2.96908
2.93314
2.89687
2.86029
2.82346
2.7864
2.74915
2.71175
2.67423
2.63664
2.59899
2.56133
2.52369
2.48611
2.4486
2.41122
2.37398
2.33692
2.30007
2.26346
2.22714
2.19112
2.15547
2.12021
2.08541
2.05111
2.01738
1.9843
1.95194
1.9204
1.88976
1.86007
1.83132
1.80359
0.0647165
0.0953354
0.11958
0.137989
0.153637
0.167889
0.18144
0.194696
0.207926
0.221318
0.235019
0.249144
0.263788
0.279035
0.294958
0.311618
0.329074
0.347381
0.366591
0.386753
0.407914
0.430118
0.453407
0.47782
0.503394
0.530164
0.558163
0.587426
0.617953
0.649751
0.682838
0.717225
0.752915
0.789909
0.828199
0.867773
0.908615
0.950702
0.994009
1.0385
1.08415
1.13091
1.17874
1.22759
1.27742
1.32816
1.37977
1.43218
1.48534
1.53917
1.59362
1.64862
1.70411
1.76001
1.81626
1.87279
1.92954
1.98642
2.04337
2.10031
2.15719
2.21393
2.27047
2.32676
2.38273
2.43833
2.4935
2.54819
2.60223
2.65555
2.70812
2.75989
2.81082
2.86086
2.90998
2.95813
3.00528
3.0514
3.09644
3.14038
3.18319
3.22483
3.26527
3.30449
3.34246
3.37915
3.41453
3.44859
3.48131
3.51267
3.54265
3.57124
3.59842
3.62417
3.6485
3.67137
3.69279
3.71275
3.73123
3.74824
3.76376
3.77779
3.79033
3.80138
3.81094
3.81901
3.8256
3.8307
3.83431
3.83646
3.83714
3.83635
3.83412
3.83046
3.82536
3.81885
3.81095
3.80166
3.791
3.77901
3.76568
3.75105
3.73514
3.71798
3.69958
3.67998
3.65921
3.63729
3.61426
3.59014
3.56497
3.5388
3.51164
3.48354
3.45454
3.42466
3.39397
3.36248
3.33024
3.29729
3.26367
3.22943
3.1946
3.15922
3.12333
3.08699
3.05022
3.01307
2.97558
2.93779
2.89974
2.86146
2.82299
2.78437
2.74564
2.70683
2.66798
2.62911
2.59027
2.55148
2.51279
2.47421
2.43579
2.39755
2.35953
2.32176
2.28427
2.24711
2.21032
2.17393
2.138
2.10259
2.06776
2.03358
2.00013
1.96749
1.93574
1.90492
1.87503
1.84615
0.0635223
0.0918258
0.115519
0.133707
0.149247
0.16346
0.177026
0.190347
0.203686
0.217234
0.231135
0.245508
0.260455
0.276066
0.292429
0.309596
0.327631
0.3466
0.366567
0.38759
0.409722
0.433017
0.457521
0.483278
0.510329
0.538707
0.568444
0.599562
0.632075
0.66599
0.701312
0.738042
0.776173
0.815692
0.856582
0.898818
0.942371
0.987206
1.03328
1.08056
1.12899
1.17852
1.22909
1.28066
1.33315
1.38651
1.44067
1.49558
1.55116
1.60734
1.66406
1.72125
1.77884
1.83676
1.89494
1.95332
2.01182
2.07037
2.12892
2.18738
2.2457
2.30382
2.36167
2.4192
2.47635
2.53308
2.58931
2.64488
2.69974
2.75384
2.80714
2.8596
2.91116
2.9618
3.01147
3.06015
3.10778
3.15434
3.19979
3.24411
3.28726
3.32921
3.36993
3.40941
3.4476
3.48449
3.52005
3.55426
3.58711
3.61857
3.64862
3.67726
3.70447
3.73022
3.75452
3.77734
3.79868
3.81853
3.83689
3.85374
3.86907
3.88289
3.8952
3.90598
3.91525
3.923
3.92923
3.93395
3.93716
3.93887
3.93908
3.93781
3.93506
3.93084
3.92517
3.91805
3.90952
3.89957
3.88824
3.87553
3.86148
3.8461
3.82941
3.81145
3.79223
3.7718
3.75016
3.72737
3.70344
3.67842
3.65233
3.62522
3.59711
3.56805
3.53807
3.50721
3.47552
3.44303
3.40978
3.37581
3.34117
3.3059
3.27003
3.23361
3.19669
3.15929
3.12148
3.08328
3.04474
3.00589
2.96678
2.92745
2.88793
2.84827
2.80848
2.76863
2.72873
2.68882
2.64893
2.60911
2.56938
2.52977
2.49031
2.45105
2.412
2.37321
2.33471
2.29653
2.25873
2.22133
2.1844
2.14799
2.11217
2.07699
2.04254
2.00889
1.97611
1.94426
1.9133
1.88334
0.0618347
0.0881205
0.111251
0.129237
0.144692
0.1589
0.172535
0.186002
0.199572
0.213442
0.227765
0.242667
0.258259
0.274638
0.291893
0.310102
0.329338
0.349673
0.371173
0.393901
0.417914
0.443261
0.469989
0.498135
0.52773
0.558798
0.591356
0.62541
0.66096
0.697998
0.736509
0.776473
0.817862
0.860645
0.904784
0.950235
0.996953
1.04489
1.09398
1.14418
1.19543
1.24767
1.30082
1.35484
1.40966
1.46521
1.52143
1.57825
1.6356
1.69342
1.75165
1.81022
1.86907
1.92812
1.98733
2.04661
2.10591
2.16517
2.22433
2.28333
2.3421
2.4006
2.45878
2.51657
2.57395
2.63081
2.68701
2.74251
2.79726
2.85123
2.90437
2.95664
3.008
3.05842
3.10787
3.15629
3.20367
3.24997
3.29515
3.33919
3.38206
3.42372
3.46416
3.50334
3.54123
3.57783
3.61309
3.64701
3.67956
3.71072
3.74047
3.7688
3.7957
3.82114
3.84511
3.86762
3.88863
3.90814
3.92615
3.94265
3.95762
3.97107
3.983
3.99339
4.00225
4.00958
4.01539
4.01966
4.02241
4.02365
4.02337
4.0216
4.01833
4.01357
4.00735
3.99968