/*--------------------------------*- C++ -*----------------------------------*\
| =========                 |                                                 |
| \\      /  F ield         | OpenFOAM: The Open Source CFD Toolbox           |
|  \\    /   O peration     | Version:  2412                                  |
|   \\  /    A nd           | Website:  www.openfoam.com                      |
|    \\/     M anipulation  |                                                 |
\*---------------------------------------------------------------------------*/
FoamFile
{
    version     2.0;
    format      ascii;
    arch        "LSB;label=32;scalar=64";
    class       volScalarField;
    location    "0.22";
    object      nut;
}
// * * * * * * * * * * * * * * * * * * * * * * * * * * * * * * * * * * * * * //

dimensions      [0 2 -1 0 0 0 0];

internalField   nonuniform List<scalar> 
12225
(
2.015e-05
2.24858e-05
2.47491e-05
2.63715e-05
2.7588e-05
2.85143e-05
2.92324e-05
2.97981e-05
3.02485e-05
3.06099e-05
3.09017e-05
3.1138e-05
3.13293e-05
3.14834e-05
3.1606e-05
3.17002e-05
3.17687e-05
3.18285e-05
0.000167792
0.000185428
0.000202597
0.000213787
0.000221146
0.000225984
0.000229002
0.00023072
0.000231514
0.000231643
0.000231292
0.000230594
0.00022965
0.000228531
0.000227295
0.00022597
0.000224708
0.000224072
0.000338328
0.000365994
0.000399361
0.000424407
0.00044278
0.000456139
0.000465649
0.000472249
0.000476658
0.00047941
0.000480906
0.000481447
0.000481265
0.00048053
0.000479377
0.000477903
0.000476299
0.000475462
0.000480632
0.000521771
0.000570122
0.000608391
0.000637802
0.00066021
0.000677099
0.000689691
0.000698953
0.000705625
0.00071028
0.000713359
0.000715206
0.000716087
0.000716209
0.000715739
0.00071491
0.000714433
0.00059357
0.000650967
0.00071349
0.000763785
0.000803283
0.000834123
0.000858088
0.00087663
0.000890895
0.000901784
0.000909997
0.000916088
0.00092049
0.000923546
0.000925531
0.00092667
0.000927218
0.000927686
0.000684418
0.000756656
0.00083195
0.000893054
0.000941626
0.000980103
0.00101056
0.00103466
0.00105369
0.0010687
0.00108048
0.00108966
0.00109677
0.00110221
0.0011063
0.00110932
0.00111153
0.00111331
0.000759756
0.000842839
0.000928291
0.000998647
0.00105522
0.00110054
0.00113687
0.00116606
0.00118953
0.00120842
0.00122362
0.00123583
0.00124563
0.00125348
0.00125974
0.00126473
0.0012687
0.00127194
0.000823625
0.000913365
0.00100525
0.00108261
0.00114578
0.00119702
0.00123857
0.00127237
0.00129992
0.00132243
0.00134086
0.00135597
0.00136839
0.0013786
0.00138703
0.00139399
0.00139973
0.00140448
0.000877003
0.000970916
0.0010653
0.00114672
0.00121456
0.00127046
0.0013164
0.00135421
0.00138542
0.00141126
0.00143271
0.00145058
0.00146551
0.00147804
0.00148859
0.0014975
0.00150499
0.00151124
0.000918258
0.00101593
0.00110995
0.00119241
0.00126253
0.0013214
0.00137055
0.00141157
0.00144587
0.00147463
0.00149882
0.00151925
0.00153658
0.00155133
0.00156396
0.00157478
0.001584
0.00159172
0.000944751
0.00104624
0.0011388
0.00122006
0.00129015
0.00135004
0.0014009
0.00144402
0.0014806
0.0015117
0.00153822
0.00156093
0.00158044
0.00159729
0.0016119
0.00162457
0.0016355
0.00164465
0.000953929
0.00105647
0.00114713
0.00122621
0.00129479
0.00135413
0.00140528
0.0014493
0.00148719
0.00151986
0.00154809
0.00157258
0.00159388
0.00161249
0.00162881
0.00164312
0.00165556
0.00166602
0.000951545
0.0010519
0.00114069
0.00121791
0.00128482
0.0013429
0.00139336
0.00143724
0.00147545
0.00150878
0.00153794
0.00156353
0.00158606
0.00160596
0.00162361
0.00163923
0.00165293
0.00166448
0.000937266
0.00102693
0.00110961
0.00118333
0.00124793
0.00130434
0.00135362
0.00139676
0.00143463
0.001468
0.00149751
0.0015237
0.00154702
0.00156787
0.00158656
0.0016033
0.00161812
0.00163064
0.000914066
0.000982516
0.00105
0.00111401
0.00117277
0.00122567
0.00127281
0.00131462
0.00135169
0.00138461
0.00141396
0.00144023
0.00146384
0.00148514
0.00150442
0.00152186
0.00153746
0.00155069
0.000888181
0.000929365
0.000972528
0.00101672
0.00106056
0.0011029
0.00114292
0.00118011
0.00121428
0.00124544
0.00127375
0.00129945
0.00132281
0.00134408
0.00136348
0.00138117
0.00139715
0.00141082
0.000866165
0.000882904
0.000901457
0.000921825
0.000943711
0.000966718
0.00099042
0.00101437
0.00103813
0.00106136
0.00108377
0.00110519
0.00112548
0.00114459
0.0011625
0.0011792
0.00119466
0.00120842
0.000853647
0.000856463
0.000860483
0.000865723
0.000872136
0.000879656
0.000888214
0.00089772
0.00090806
0.000919105
0.000930716
0.000942752
0.000955076
0.000967565
0.000980096
0.000992554
0.00100482
0.00101666
0.000856837
0.00086304
0.000870433
0.000879025
0.0008887
0.000899307
0.000910676
0.000922623
0.000934954
0.000947483
0.000960042
0.000972493
0.000984723
0.000996648
0.00100821
0.00101936
0.00103005
0.00104006
0.000879014
0.000910092
0.000943005
0.000977099
0.00101138
0.00104493
0.00107707
0.00110731
0.00113536
0.00116111
0.00118458
0.00120589
0.00122519
0.00124265
0.00125845
0.00127274
0.00128565
0.00129724
0.000912427
0.000978633
0.00104329
0.00110415
0.00115969
0.00120945
0.00125358
0.00129251
0.00132677
0.0013569
0.00138344
0.00140686
0.00142755
0.00144587
0.00146213
0.00147657
0.00148943
0.00150098
0.000944652
0.00103937
0.00112414
0.00119816
0.00126209
0.00131726
0.00136492
0.0014061
0.00144171
0.00147255
0.00149929
0.00152252
0.00154273
0.00156034
0.00157571
0.00158915
0.00160091
0.00161125
0.000952969
0.00105495
0.00114494
0.00122286
0.00128968
0.00134681
0.00139548
0.00143685
0.001472
0.0015019
0.00152736
0.00154908
0.00156764
0.00158352
0.00159712
0.00160878
0.00161878
0.00162735
0.000919762
0.00101577
0.00110711
0.00118655
0.00125366
0.00130983
0.00135663
0.00139556
0.001428
0.00145508
0.00147772
0.00149669
0.0015126
0.00152595
0.00153716
0.00154657
0.00155445
0.00156098
0.000847919
0.000936212
0.00102591
0.00110193
0.0011644
0.00121544
0.00125709
0.00129112
0.00131899
0.00134186
0.00136065
0.00137609
0.00138878
0.0013992
0.00140773
0.00141469
0.00142033
0.00142481
0.000748241
0.000825344
0.000905837
0.000972006
0.00102523
0.00106796
0.00110226
0.00112982
0.00115199
0.00116982
0.00118415
0.00119563
0.00120479
0.00121206
0.00121778
0.00122223
0.00122561
0.00122806
0.000620838
0.000679397
0.000743804
0.000795902
0.000837071
0.000869522
0.000895046
0.000915072
0.000930738
0.00094294
0.000952377
0.0009596
0.000965047
0.000969064
0.000971926
0.000973856
0.000975026
0.000975554
0.000453206
0.00049108
0.000536513
0.000572228
0.000599359
0.000619977
0.000635559
0.000647219
0.000655839
0.000662098
0.000666518
0.0006695
0.000671354
0.000672325
0.000672602
0.000672336
0.000671645
0.000670628
0.00023657
0.000259231
0.000284033
0.000301436
0.000313162
0.000321244
0.000326756
0.000330375
0.000332603
0.000333805
0.000334244
0.000334113
0.000333558
0.000332689
0.00033159
0.000330323
0.000328939
0.000327501
2.7242e-05
3.0171e-05
3.32398e-05
3.54417e-05
3.70547e-05
3.8262e-05
3.91809e-05
3.98936e-05
4.04544e-05
4.09002e-05
4.12576e-05
4.15463e-05
4.17808e-05
4.19721e-05
4.21289e-05
4.22577e-05
4.23634e-05
4.24509e-05
4.96412e-06
1.34379e-05
1.52514e-05
1.65383e-05
1.74641e-05
1.81817e-05
1.89322e-05
1.97128e-05
2.04955e-05
2.1287e-05
2.21031e-05
2.29822e-05
2.40404e-05
2.52313e-05
2.64742e-05
2.7749e-05
2.90494e-05
3.03735e-05
3.17195e-05
3.30839e-05
3.44622e-05
3.5849e-05
3.72391e-05
3.86277e-05
4.00109e-05
4.1386e-05
4.27516e-05
4.41078e-05
4.54565e-05
4.68016e-05
4.8149e-05
4.94854e-05
5.08007e-05
5.20938e-05
5.33646e-05
5.46129e-05
5.58391e-05
5.70434e-05
5.82262e-05
5.9388e-05
6.05294e-05
6.16507e-05
6.27525e-05
6.38352e-05
6.48993e-05
6.59451e-05
6.6973e-05
6.79832e-05
6.8976e-05
6.99516e-05
7.09101e-05
7.18517e-05
7.27763e-05
7.3684e-05
7.45749e-05
7.54489e-05
7.63059e-05
7.71459e-05
7.79688e-05
7.87745e-05
7.95629e-05
8.03339e-05
8.10873e-05
8.1823e-05
8.2541e-05
8.3241e-05
8.3923e-05
8.45869e-05
8.52327e-05
8.58604e-05
8.64702e-05
8.70626e-05
8.76385e-05
8.81999e-05
8.87499e-05
8.9284e-05
8.97974e-05
9.02908e-05
9.07647e-05
9.12194e-05
9.16549e-05
9.20711e-05
9.2468e-05
9.28456e-05
9.32038e-05
9.35425e-05
9.38617e-05
9.41615e-05
9.44416e-05
9.47022e-05
9.49433e-05
9.51648e-05
9.53668e-05
9.55492e-05
9.57122e-05
9.58557e-05
9.59798e-05
9.60845e-05
9.61699e-05
9.6236e-05
9.62829e-05
9.63107e-05
9.63194e-05
9.63091e-05
9.62798e-05
9.62317e-05
9.61649e-05
9.60794e-05
9.59753e-05
9.58527e-05
9.57117e-05
9.55525e-05
9.53751e-05
9.51796e-05
9.49662e-05
9.47351e-05
9.44863e-05
9.422e-05
9.39364e-05
9.36356e-05
9.33178e-05
9.29832e-05
9.26319e-05
9.22643e-05
9.18805e-05
9.14807e-05
9.10652e-05
9.06343e-05
9.01882e-05
8.97271e-05
8.92515e-05
8.87615e-05
8.82576e-05
8.77399e-05
8.72091e-05
8.66651e-05
8.61088e-05
8.55402e-05
8.49596e-05
8.43685e-05
8.37657e-05
8.31544e-05
8.25383e-05
8.19436e-05
8.14995e-05
8.10997e-05
8.06955e-05
8.02835e-05
7.98637e-05
7.94362e-05
7.90015e-05
7.85599e-05
7.81118e-05
7.76576e-05
7.71977e-05
7.67324e-05
7.62624e-05
7.57878e-05
7.53092e-05
7.4827e-05
7.43416e-05
7.38534e-05
7.33627e-05
7.28701e-05
7.23758e-05
7.18801e-05
7.13833e-05
7.08857e-05
7.03872e-05
6.98878e-05
6.93872e-05
6.88847e-05
6.83789e-05
6.78677e-05
6.73467e-05
6.6808e-05
6.62338e-05
6.55792e-05
6.47656e-05
6.3706e-05
7.23537e-06
3.24558e-05
6.4262e-05
8.91238e-05
0.00010663
0.000119052
0.000126683
0.000131742
0.000135986
0.000140146
0.000144365
0.000148547
0.00015258
0.00015652
0.000160478
0.000164544
0.000168801
0.000173324
0.00017818
0.000183419
0.000189083
0.000195197
0.000201771
0.000208805
0.000216287
0.000224194
0.000232494
0.000241149
0.000250116
0.000259354
0.000268827
0.000278515
0.000288398
0.000298448
0.000308639
0.000318945
0.000329342
0.000339812
0.000350336
0.0003609
0.000371491
0.0003821
0.000392718
0.000403339
0.000413957
0.000424568
0.000435168
0.000445753
0.000456321
0.000466868
0.000477392
0.000487888
0.000498353
0.000508784
0.000519177
0.000529527
0.00053983
0.000550081
0.000560276
0.000570408
0.000580474
0.000590467
0.000600383
0.000610217
0.000619962
0.000629614
0.000639167
0.000648614
0.000657947
0.000667155
0.000676221
0.000685124
0.000693828
0.000702285
0.000710274
0.000717778
0.000725086
0.000732246
0.000739263
0.000746139
0.00075287
0.000759454
0.00076589
0.000772175
0.000778306
0.000784282
0.0007901
0.000795758
0.000801255
0.000806589
0.000811757
0.00081676
0.000821595
0.000826261
0.000830757
0.000835082
0.000839235
0.000843216
0.000847023
0.000850656
0.000854114
0.000857397
0.000860504
0.000863434
0.000866188
0.000868765
0.000871165
0.000873387
0.00087543
0.000877296
0.000878983
0.000880491
0.000881821
0.000882972
0.000883945
0.000884739
0.000885354
0.000885791
0.00088605
0.000886132
0.000886036
0.000885764
0.000885316
0.000884692
0.000883895
0.000882924
0.000881781
0.000880468
0.000878985
0.000877335
0.000875518
0.000873538
0.000871397
0.000869095
0.000866637
0.000864024
0.000861261
0.000858351
0.000855289
0.000852096
0.000848765
0.000845263
0.000841517
0.0008372
0.000831404
0.000824825
0.000817946
0.0008109
0.000803733
0.000796464
0.000789105
0.000781666
0.000774155
0.000766577
0.00075894
0.00075125
0.000743512
0.000735733
0.000727918
0.000720072
0.000712202
0.000704311
0.000696407
0.000688492
0.000680573
0.000672652
0.000664735
0.000656825
0.000648924
0.000641033
0.000633154
0.000625285
0.000617419
0.000609548
0.000601648
0.000593682
0.000585548
0.000576986
0.000564394
0.000540933
8.79188e-06
5.22443e-05
0.000106152
0.000147541
0.000176773
0.00019633
0.000209585
0.000219179
0.000226995
0.000234169
0.00024127
0.00024854
0.000256079
0.000263973
0.000272311
0.000281195
0.000290729
0.000301014
0.000312138
0.000324171
0.000337161
0.000351128
0.000366069
0.000381959
0.00039875
0.000416378
0.00043477
0.000453843
0.000473513
0.000493699
0.000514326
0.000535326
0.000556639
0.000578206
0.000599974
0.000621898
0.000643939
0.000666064
0.000688246
0.000710461
0.000732694
0.000754929
0.000777155
0.000799363
0.000821545
0.000843694
0.000865805
0.000887871
0.000909888
0.000931848
0.000953745
0.000975572
0.000997322
0.00101899
0.00104055
0.00106202
0.00108337
0.00110459
0.00112568
0.00114662
0.0011674
0.00118801
0.00120843
0.00122865
0.00124866
0.00126844
0.00128798
0.00130725
0.00132625
0.00134493
0.00136328
0.00138126
0.00139882
0.00141593
0.00143237
0.00144834
0.00146394
0.00147923
0.00149421
0.00150888
0.00152324
0.00153728
0.00155099
0.00156438
0.00157744
0.00159016
0.00160254
0.00161457
0.00162625
0.00163758
0.00164855
0.00165916
0.0016694
0.00167928
0.00168879
0.00169792
0.00170669
0.00171508
0.00172309
0.00173072
0.00173797
0.00174484
0.00175133
0.00175744
0.00176316
0.00176849
0.00177344
0.00177801
0.00178219
0.00178598
0.00178938
0.00179239
0.00179502
0.00179726
0.00179911
0.00180057
0.00180165
0.00180234
0.00180265
0.00180257
0.0018021
0.00180126
0.00180003
0.00179843
0.00179645
0.00179409
0.00179137
0.00178828
0.00178482
0.001781
0.00177683
0.00177231
0.00176743
0.00176222
0.00175668
0.00175081
0.00174462
0.00173812
0.00173132
0.00172422
0.00171683
0.00170907
0.0017008
0.0016917
0.00168117
0.00166959
0.00165741
0.00164482
0.00163193
0.00161879
0.00160543
0.00159187
0.00157812
0.0015642
0.00155014
0.00153593
0.00152159
0.00150714
0.00149259
0.00147795
0.00146323
0.00144844
0.00143359
0.0014187
0.00140377
0.00138881
0.00137383
0.00135884
0.00134385
0.00132886
0.00131386
0.00129886
0.00128383
0.00126876
0.00125358
0.00123818
0.0012223
0.00120523
0.0011836
0.00114648
9.96925e-06
7.10818e-05
0.000140713
0.000193596
0.000230969
0.000257146
0.000275862
0.000290043
0.000301814
0.000312589
0.000323219
0.000334181
0.000345739
0.000358057
0.000371262
0.00038547
0.000400783
0.000417296
0.000435078
0.000454176
0.000474606
0.000496352
0.000519372
0.0005436
0.000568948
0.000595319
0.000622606
0.000650699
0.000679493
0.000708886
0.000738785
0.000769105
0.000799772
0.000830717
0.000861884
0.00089322
0.000924685
0.000956242
0.000987862
0.00101952
0.0010512
0.00108288
0.00111455
0.00114619
0.00117781
0.00120938
0.00124089
0.00127234
0.00130372
0.00133502
0.00136622
0.00139732
0.00142829
0.00145913
0.00148983
0.00152037
0.00155072
0.00158089
0.00161084
0.00164056
0.00167004
0.00169925
0.00172817
0.00175679
0.00178509
0.00181303
0.00184061
0.0018678
0.00189457
0.00192089
0.00194675
0.0019721
0.00199693
0.00202114
0.0020447
0.00206771
0.00209025
0.00211233
0.00213397
0.00215517
0.00217592
0.00219621
0.00221605
0.00223541
0.0022543
0.00227271
0.00229063
0.00230805
0.00232498
0.0023414
0.00235731
0.0023727
0.00238757
0.00240192
0.00241574
0.00242903
0.00244179
0.002454
0.00246568
0.00247682
0.00248741
0.00249746
0.00250695
0.0025159
0.0025243
0.00253214
0.00253943
0.00254616
0.00255234
0.00255796
0.00256302
0.00256752
0.00257146
0.00257485
0.00257767
0.00257994
0.00258165
0.0025828
0.0025834
0.00258343
0.00258292
0.00258185
0.00258023
0.00257806
0.00257535
0.0025721
0.00256831
0.00256399
0.00255914
0.00255376
0.00254787
0.00254148
0.00253458
0.00252718
0.00251931
0.00251096
0.00250215
0.0024929
0.0024832
0.00247305
0.00246244
0.00245131
0.00243955
0.00242691
0.00241309
0.00239824
0.00238264
0.00236647
0.00234983
0.0023328
0.00231542
0.00229772
0.00227973
0.00226147
0.00224296
0.00222422
0.00220527
0.00218612
0.0021668
0.00214731
0.00212769
0.00210793
0.00208807
0.00206811
0.00204807
0.00202797
0.00200781
0.00198761
0.00196738
0.00194713
0.00192685
0.00190654
0.00188619
0.00186575
0.00184516
0.00182426
0.00180269
0.00177959
0.00175203
0.00171207
1.08331e-05
8.64674e-05
0.000169026
0.000231724
0.000277087
0.00030981
0.000333984
0.000352822
0.0003687
0.000383267
0.000397602
0.00041237
0.000427973
0.000444659
0.000462596
0.000481904
0.000502672
0.000524966
0.000548819
0.000574237
0.000601195
0.00062964
0.000659494
0.000690661
0.000723032
0.00075649
0.000790915
0.000826188
0.000862198
0.000898838
0.000936013
0.000973633
0.00101162
0.00104991
0.00108844
0.00112716
0.00116603
0.001205
0.00124404
0.00128314
0.00132226
0.00136139
0.00140051
0.00143959
0.00147864
0.00151763
0.00155655
0.00159538
0.00163412
0.00167274
0.00171123
0.00174958
0.00178776
0.00182577
0.00186357
0.00190116
0.00193851
0.0019756
0.00201241
0.00204893
0.00208511
0.00212096
0.00215643
0.00219151
0.00222618
0.00226041
0.00229417
0.00232745
0.00236022
0.00239245
0.00242413
0.00245523
0.00248573
0.0025155
0.00254462
0.00257314
0.0026011
0.00262851
0.00265539
0.00268172
0.00270751
0.00273274
0.00275742
0.00278152
0.00280505
0.002828
0.00285035
0.0028721
0.00289325
0.00291378
0.00293369
0.00295298
0.00297163
0.00298965
0.00300703
0.00302377
0.00303985
0.00305528
0.00307005
0.00308416
0.0030976
0.00311038
0.00312249
0.00313393
0.00314469
0.00315478
0.00316419
0.00317291
0.00318096
0.00318832
0.003195
0.00320099
0.00320629
0.00321091
0.00321484
0.00321808
0.00322063
0.0032225
0.00322367
0.00322417
0.00322397
0.00322309
0.00322154
0.0032193
0.00321639
0.00321281
0.00320856
0.00320365
0.00319809
0.00319187
0.00318502
0.00317753
0.00316942
0.00316069
0.00315136
0.00314144
0.00313094
0.00311986
0.00310823
0.00309602
0.00308323
0.00306982
0.0030557
0.00304073
0.00302475
0.00300781
0.00299006
0.00297164
0.00295264
0.00293314
0.00291317
0.00289279
0.00287201
0.00285087
0.0028294
0.00280761
0.00278554
0.00276319
0.00274059
0.00271777
0.00269474
0.00267153
0.00264815
0.00262462
0.00260096
0.0025772
0.00255334
0.0025294
0.00250541
0.00248136
0.00245726
0.00243312
0.00240893
0.00238463
0.00236017
0.00233538
0.0023099
0.00228289
0.00225212
0.00221306
1.1556e-05
9.75695e-05
0.000190912
0.000263024
0.000316311
0.00035569
0.000385507
0.000409207
0.000429384
0.000447896
0.000466012
0.000484563
0.000504073
0.000524869
0.000547154
0.000571053
0.000596641
0.000623952
0.000652985
0.000683712
0.000716074
0.00074999
0.000785363
0.000822081
0.000860024
0.000899069
0.000939095
0.000979983
0.00102162
0.00106391
0.00110675
0.00115005
0.00119374
0.00123775
0.00128202
0.00132649
0.00137113
0.00141589
0.00146073
0.00150563
0.00155055
0.00159548
0.00164039
0.00168527
0.00173009
0.00177483
0.00181948
0.00186403
0.00190844
0.00195271
0.00199681
0.00204073
0.00208444
0.00212793
0.00217117
0.00221414
0.00225682
0.00229919
0.00234122
0.00238289
0.00242418
0.00246506
0.0025055
0.00254549
0.002585
0.002624
0.00266247
0.00270039
0.00273774
0.00277449
0.00281063
0.00284613
0.00288098
0.00291507
0.00294848
0.00298125
0.0030134
0.00304494
0.00307588
0.00310622
0.00313594
0.00316505
0.00319353
0.00322138
0.00324858
0.00327513
0.00330101
0.00332623
0.00335077
0.00337462
0.00339777
0.00342023
0.00344198
0.00346301
0.00348333
0.00350292
0.00352179
0.00353991
0.0035573
0.00357394
0.00358983
0.00360497
0.00361936
0.00363298
0.00364585
0.00365795
0.00366928
0.00367984
0.00368963
0.00369864
0.00370688
0.00371433
0.00372101
0.00372691
0.00373202
0.00373635
0.00373989
0.00374265
0.00374463
0.00374582
0.00374623
0.00374586
0.00374471
0.00374278
0.00374008
0.00373662
0.00373238
0.00372739
0.00372164
0.00371515
0.00370793
0.00369996
0.00369128
0.00368189
0.00367179
0.00366101
0.00364956
0.00363743
0.00362465
0.00361121
0.0035971
0.00358229
0.00356673
0.00355034
0.00353304
0.00351484
0.00349581
0.00347606
0.00345565
0.00343466
0.00341311
0.00339107
0.00336855
0.00334559
0.00332222
0.00329847
0.00327435
0.0032499
0.00322513
0.00320008
0.00317475
0.00314919
0.0031234
0.00309742
0.00307127
0.00304495
0.00301851
0.00299196
0.00296531
0.00293858
0.00291179
0.00288494
0.00285803
0.00283104
0.00280389
0.00277645
0.0027484
0.00271903
0.00268675
0.00264927
1.25064e-05
0.000102847
0.000205852
0.000287303
0.000348602
0.000394788
0.000430438
0.000459202
0.000483858
0.000506436
0.000528367
0.000550621
0.00057383
0.000598392
0.000624549
0.00065244
0.00068213
0.000713635
0.000746932
0.000781969
0.000818668
0.000856934
0.000896658
0.000937724
0.000980009
0.00102339
0.00106775
0.00111298
0.00115896
0.0012056
0.0012528
0.00130047
0.00134855
0.00139696
0.00144565
0.00149455
0.00154362
0.00159282
0.00164211
0.00169145
0.00174082
0.00179019
0.00183953
0.00188882
0.00193804
0.00198716
0.00203616
0.00208503
0.00213375
0.00218229
0.00223063
0.00227875
0.00232663
0.00237425
0.00242158
0.00246861
0.0025153
0.00256164
0.0026076
0.00265316
0.00269829
0.00274296
0.00278716
0.00283086
0.00287403
0.00291666
0.00295871
0.00300017
0.00304102
0.00308123
0.0031208
0.00315969
0.00319788
0.00323531
0.00327205
0.00330812
0.00334354
0.00337832
0.00341245
0.00344595
0.00347879
0.00351098
0.0035425
0.00357334
0.0036035
0.00363296
0.00366171
0.00368975
0.00371707
0.00374365
0.00376948
0.00379457
0.0038189
0.00384247
0.00386526
0.00388727
0.0039085
0.00392894
0.00394858
0.00396742
0.00398545
0.00400267
0.00401907
0.00403465
0.00404941
0.00406334
0.00407644
0.0040887
0.00410012
0.0041107
0.00412043
0.00412932
0.00413737
0.00414456
0.00415089
0.00415638
0.004161
0.00416478
0.0041677
0.00416976
0.00417097
0.00417132
0.00417082
0.00416947
0.00416727
0.00416423
0.00416035
0.00415564
0.0041501
0.00414373
0.00413655
0.00412856
0.00411978
0.00411021
0.00409987
0.00408877
0.00407692
0.00406432
0.00405099
0.00403694
0.00402214
0.00400661
0.00399029
0.00397314
0.00395514
0.00393627
0.00391658
0.00389613
0.00387498
0.00385318
0.00383076
0.00380778
0.00378427
0.00376024
0.00373575
0.0037108
0.00368543
0.00365967
0.00363353
0.00360705
0.00358025
0.00355316
0.0035258
0.00349819
0.00347036
0.00344234
0.00341415
0.00338581
0.00335735
0.00332879
0.00330015
0.00327144
0.00324267
0.00321384
0.0031849
0.00315573
0.00312609
0.00309542
0.00306262
0.00302645
1.3285e-05
0.000105423
0.000215763
0.000305433
0.000374282
0.000427135
0.000468634
0.000502547
0.000531773
0.000558472
0.000584197
0.000610029
0.000636693
0.000664655
0.0006942
0.000725487
0.000758588
0.000793514
0.000830234
0.000868685
0.000908783
0.000950427
0.000993506
0.0010379
0.0010835
0.00113018
0.00117782
0.00122632
0.00127557
0.00132548
0.00137595
0.00142691
0.00147827
0.00152997
0.00158195
0.00163416
0.00168653
0.00173903
0.00179162
0.00184426
0.00189692
0.00194957
0.00200218
0.00205472
0.00210718
0.00215953
0.00221174
0.00226379
0.00231567
0.00236735
0.00241881
0.00247003
0.00252099
0.00257166
0.00262202
0.00267205
0.00272172
0.00277102
0.00281991
0.00286837
0.00291638
0.00296392
0.00301095
0.00305746
0.00310342
0.00314881
0.00319361
0.00323779
0.00328134
0.00332424
0.00336647
0.00340801
0.0034488
0.00348886
0.00352822
0.00356692
0.00360495
0.00364233
0.00367905
0.0037151
0.00375049
0.0037852
0.00381922
0.00385254
0.00388516
0.00391704
0.0039482
0.00397861
0.00400827
0.00403717
0.00406529
0.00409263
0.00411918
0.00414493
0.00416988
0.004194
0.00421731
0.00423979
0.00426142
0.00428222
0.00430216
0.00432125
0.00433948
0.00435684
0.00437334
0.00438896
0.00440371
0.00441757
0.00443054
0.00444262
0.0044538
0.00446409
0.00447349
0.00448198
0.00448956
0.00449624
0.00450201
0.00450687
0.00451082
0.00451387
0.004516
0.00451721
0.00451753
0.00451695
0.00451545
0.00451305
0.00450975
0.00450556
0.00450048
0.00449453
0.0044877
0.00448002
0.00447148
0.0044621
0.00445188
0.00444085
0.00442901
0.00441637
0.00440294
0.00438872
0.00437372
0.00435794
0.00434135
0.00432394
0.00430568
0.00428658
0.00426666
0.00424597
0.00422454
0.00420242
0.00417964
0.00415624
0.00413225
0.0041077
0.00408263
0.00405705
0.00403101
0.00400451
0.0039776
0.00395029
0.00392262
0.0038946
0.00386627
0.00383765
0.00380878
0.00377967
0.00375035
0.00372086
0.00369122
0.00366146
0.0036316
0.00360167
0.00357169
0.00354167
0.00351159
0.00348138
0.00345084
0.00341957
0.0033868
0.00335183
1.39e-05
0.00010605
0.000221559
0.000318098
0.000393763
0.000452913
0.000500093
0.000539091
0.000572863
0.000603645
0.000633075
0.000662318
0.000692176
0.000723177
0.000755651
0.000789786
0.000825672
0.000863329
0.000902729
0.000943813
0.000986496
0.00103068
0.00107626
0.00112312
0.00117114
0.00122022
0.00127024
0.0013211
0.00137269
0.00142493
0.00147773
0.00153101
0.00158469
0.00163871
0.001693
0.0017475
0.00180218
0.00185698
0.00191187
0.00196679
0.00202174
0.00207666
0.00213153
0.00218634
0.00224104
0.00229563
0.00235008
0.00240436
0.00245846
0.00251235
0.00256602
0.00261944
0.00267259
0.00272545
0.002778
0.00283021
0.00288207
0.00293354
0.0029846
0.00303524
0.00308541
0.00313511
0.0031843
0.00323296
0.00328107
0.0033286
0.00337554
0.00342185
0.00346753
0.00351255
0.00355689
0.00360053
0.00364344
0.00368564
0.00372716
0.00376802
0.00380822
0.00384776
0.00388665
0.00392487
0.00396241
0.00399927
0.00403543
0.00407088
0.00410561
0.0041396
0.00417285
0.00420534
0.00423705
0.00426799
0.00429813
0.00432747
0.004356
0.0043837
0.00441057
0.00443661
0.00446179
0.00448612
0.00450958
0.00453216
0.00455387
0.00457468
0.00459461
0.00461364
0.00463176
0.00464898
0.00466529
0.00468067
0.00469513
0.00470866
0.00472126
0.00473293
0.00474366
0.00475345
0.0047623
0.00477019
0.00477713
0.00478313
0.00478819
0.00479229
0.00479543
0.00479761
0.00479884
0.00479913
0.00479847
0.00479686
0.00479431
0.00479083
0.00478642
0.00478108
0.00477484
0.00476768
0.00475963
0.0047507
0.00474089
0.00473021
0.00471868
0.0047063
0.00469309
0.00467905
0.0046642
0.00464852
0.00463202
0.00461468
0.00459651
0.00457751
0.00455768
0.00453707
0.0045157
0.0044936
0.00447082
0.00444737
0.00442329
0.00439862
0.00437337
0.00434758
0.00432127
0.00429448
0.00426722
0.00423953
0.00421142
0.00418294
0.0041541
0.00412494
0.00409548
0.00406575
0.00403578
0.00400561
0.00397527
0.00394478
0.00391419
0.00388352
0.00385282
0.0038221
0.00379138
0.0037606
0.00372965
0.00369823
0.00366579
0.00363193
1.4372e-05
0.000105168
0.000223898
0.000325913
0.000407522
0.000472437
0.000524978
0.00056886
0.000607034
0.000641767
0.000674745
0.000707192
0.00073997
0.000773658
0.000808634
0.00084512
0.000883232
0.000923009
0.000964437
0.00100746
0.00105202
0.001098
0.00114532
0.00119386
0.00124353
0.0012942
0.00134578
0.00139816
0.00145126
0.00150498
0.00155924
0.00161395
0.00166906
0.00172449
0.00178018
0.00183608
0.00189215
0.00194833
0.0020046
0.00206091
0.00211722
0.00217353
0.00222978
0.00228597
0.00234207
0.00239806
0.00245392
0.00250962
0.00256515
0.0026205
0.00267563
0.00273053
0.00278519
0.00283957
0.00289366
0.00294743
0.00300086
0.00305393
0.00310661
0.00315887
0.0032107
0.00326206
0.00331293
0.00336328
0.00341309
0.00346233
0.00351098
0.00355902
0.00360643
0.00365319
0.00369927
0.00374465
0.00378934
0.00383336
0.00387674
0.00391946
0.00396155
0.00400299
0.00404377
0.0040839
0.00412336
0.00416213
0.0042002
0.00423756
0.0042742
0.00431009
0.00434523
0.0043796
0.00441319
0.00444598
0.00447797
0.00450915
0.00453949
0.004569
0.00459766
0.00462546
0.0046524
0.00467845
0.00470362
0.00472789
0.00475125
0.0047737
0.00479523
0.00481584
0.00483553
0.00485428
0.0048721
0.00488896
0.00490487
0.00491981
0.0049338
0.00494682
0.00495889
0.00496999
0.0049801
0.00498922
0.00499737
0.00500453
0.00501071
0.00501591
0.00502011
0.00502334
0.00502557
0.00502683
0.00502711
0.00502641
0.00502474
0.0050221
0.0050185
0.00501394
0.00500843
0.00500199
0.00499461
0.00498631
0.00497711
0.00496699
0.00495599
0.00494412
0.00493137
0.00491776
0.0049033
0.004888
0.00487185
0.00485486
0.00483703
0.00481836
0.00479887
0.00477859
0.00475752
0.00473572
0.00471319
0.00468997
0.0046661
0.00464158
0.00461647
0.00459077
0.00456452
0.00453774
0.00451047
0.00448272
0.00445453
0.00442592
0.00439692
0.00436756
0.00433787
0.00430788
0.00427763
0.00424714
0.00421646
0.00418561
0.00415465
0.00412362
0.00409256
0.00406151
0.00403049
0.00399951
0.00396847
0.00393718
0.00390525
0.00387241
1.47188e-05
0.000103132
0.000223361
0.000329477
0.000416077
0.000486117
0.000543578
0.000592026
0.000634355
0.000672818
0.00070912
0.000744521
0.000779923
0.000815952
0.000853024
0.000891401
0.000931227
0.000972567
0.00101542
0.00105976
0.00110552
0.00115262
0.00120097
0.00125047
0.00130102
0.00135252
0.00140487
0.00145798
0.00151176
0.00156612
0.00162098
0.00167628
0.00173195
0.00178792
0.00184415
0.00190058
0.00195717
0.00201388
0.00207067
0.00212752
0.00218439
0.00224127
0.00229813
0.00235494
0.0024117
0.00246838
0.00252496
0.00258142
0.00263776
0.00269395
0.00274997
0.00280581
0.00286144
0.00291684
0.002972
0.00302688
0.00308146
0.00313573
0.00318964
0.00324317
0.0032963
0.003349
0.00340123
0.00345297
0.00350419
0.00355486
0.00360496
0.00365447
0.00370335
0.00375159
0.00379918
0.00384611
0.00389239
0.00393806
0.0039831
0.00402753
0.00407133
0.00411451
0.00415705
0.00419894
0.00424016
0.00428071
0.00432056
0.00435971
0.00439812
0.00443579
0.0044727
0.00450884
0.00454419
0.00457874
0.00461247
0.00464537
0.00467744
0.00470865
0.00473901
0.00476849
0.0047971
0.00482481
0.00485161
0.00487749
0.00490244
0.00492647
0.00494955
0.0049717
0.00499289
0.00501314
0.00503244
0.00505075
0.00506808
0.00508442
0.00509977
0.00511414
0.00512752
0.00513991
0.00515129
0.00516166
0.00517103
0.00517939
0.00518674
0.00519308
0.00519841
0.00520273
0.00520605
0.00520835
0.00520965
0.00520995
0.00520925
0.00520756
0.00520488
0.00520122
0.00519658
0.00519098
0.00518442
0.00517691
0.00516846
0.00515908
0.00514878
0.00513758
0.00512548
0.0051125
0.00509864
0.00508391
0.00506832
0.00505188
0.00503458
0.00501645
0.00499749
0.00497772
0.00495717
0.00493585
0.00491379
0.00489102
0.00486756
0.00484344
0.00481869
0.00479332
0.00476737
0.00474087
0.00471383
0.00468629
0.00465827
0.00462981
0.00460092
0.00457164
0.004542
0.00451203
0.00448177
0.00445124
0.00442051
0.00438959
0.00435855
0.00432743
0.00429629
0.00426518
0.00423414
0.00420319
0.0041723
0.00414132
0.00410997
0.00407806
1.49548e-05
0.000100238
0.000220474
0.000329365
0.000419964
0.000494404
0.000556249
0.000608849
0.00065499
0.000696879
0.000736213
0.000774261
0.000811955
0.000849955
0.000888711
0.000928519
0.000969553
0.00101191
0.0010556
0.00110063
0.00114693
0.00119445
0.00124311
0.00129281
0.00134347
0.00139499
0.0014473
0.00150029
0.0015539
0.00160804
0.00166265
0.00171766
0.00177301
0.00182866
0.00188456
0.00194067
0.00199695
0.00205337
0.00210991
0.00216655
0.00222325
0.00228
0.00233679
0.0023936
0.00245041
0.00250721
0.00256399
0.00262072
0.0026774
0.002734
0.00279051
0.0028469
0.00290316
0.00295927
0.00301519
0.00307091
0.00312639
0.00318161
0.00323653
0.00329113
0.00334537
0.00339922
0.00345264
0.00350561
0.00355808
0.00361004
0.00366144
0.00371226
0.00376248
0.00381207
0.00386106
0.00390944
0.00395725
0.00400447