/*--------------------------------*- C++ -*----------------------------------*\
| =========                 |                                                 |
| \\      /  F ield         | OpenFOAM: The Open Source CFD Toolbox           |
|  \\    /   O peration     | Version:  2412                                  |
|   \\  /    A nd           | Website:  www.openfoam.com                      |
|    \\/     M anipulation  |                                                 |
\*---------------------------------------------------------------------------*/
FoamFile
{
    version     2.0;
    format      ascii;
    arch        "LSB;label=32;scalar=64";
    class       volScalarField;
    location    "0.22";
    object      p;
}
// * * * * * * * * * * * * * * * * * * * * * * * * * * * * * * * * * * * * * //

dimensions      [0 2 -2 0 0 0 0];

internalField   nonuniform List<scalar> 
12225
(
-10.3303
-9.73793
-9.07522
-8.51879
-8.00974
-7.5533
-7.15475
-6.80375
-6.4914
-6.21212
-5.96101
-5.73357
-5.52594
-5.3348
-5.15709
-4.9893
-4.82921
-4.66239
-10.7641
-9.79611
-9.11003
-8.55976
-8.05003
-7.59355
-7.19436
-6.84196
-6.52798
-6.247
-5.99416
-5.76498
-5.55566
-5.36283
-5.18344
-5.01411
-4.852
-4.69387
-10.9445
-9.83038
-9.15178
-8.61063
-8.10043
-7.64482
-7.24577
-6.89231
-6.57679
-6.29403
-6.03924
-5.80805
-5.59669
-5.40187
-5.22054
-5.04954
-4.88602
-4.7249
-10.9684
-9.8461
-9.17646
-8.64459
-8.13709
-7.68434
-7.28716
-6.93425
-6.61857
-6.33521
-6.0795
-5.8472
-5.63465
-5.43866
-5.25628
-5.08475
-4.92084
-4.76366
-10.8982
-9.84081
-9.17675
-8.65537
-8.15491
-7.70708
-7.31346
-6.96276
-6.64837
-6.3657
-6.11023
-5.8779
-5.66519
-5.46908
-5.28677
-5.11604
-4.95356
-4.80426
-10.7565
-9.80767
-9.15326
-8.64451
-8.15568
-7.71505
-7.32658
-6.97958
-6.66777
-6.38686
-6.13263
-5.90118
-5.68922
-5.4939
-5.31267
-5.14385
-4.98425
-4.8435
-10.5538
-9.74124
-9.10701
-8.61283
-8.1401
-7.70945
-7.32788
-6.98608
-6.67809
-6.4
-6.14792
-5.91822
-5.70782
-5.51413
-5.33488
-5.16886
-5.01313
-4.88066
-10.3009
-9.6389
-9.03883
-8.56087
-8.10808
-7.69065
-7.31793
-6.98291
-6.68005
-6.40587
-6.15688
-5.92979
-5.72178
-5.53054
-5.35409
-5.19161
-5.04039
-4.91579
-10.0084
-9.50037
-8.94985
-8.4903
-8.06016
-7.65926
-7.2975
-6.97083
-6.67446
-6.4053
-6.16038
-5.93677
-5.73197
-5.54395
-5.37103
-5.21271
-5.06642
-4.94915
-9.68766
-9.32762
-8.84143
-8.40397
-7.99801
-7.61657
-7.26789
-6.95107
-6.66246
-6.39943
-6.15951
-5.94023
-5.73941
-5.55534
-5.38661
-5.23291
-5.09177
-4.9812
-9.35076
-9.12543
-8.71522
-8.30541
-7.92459
-7.56482
-7.23121
-6.92552
-6.64575
-6.38982
-6.15576
-5.94156
-5.74542
-5.56592
-5.40186
-5.25312
-5.11711
-5.01279
-9.03876
-8.91965
-8.58547
-8.20723
-7.85035
-7.51193
-7.19377
-6.8993
-6.62839
-6.37966
-6.1516
-5.94261
-5.75125
-5.57635
-5.4169
-5.27288
-5.14137
-5.04266
-8.74375
-8.70526
-8.44691
-8.10499
-7.77232
-7.4559
-7.1545
-6.87204
-6.61047
-6.3694
-6.14775
-5.94435
-5.75808
-5.58801
-5.43331
-5.29397
-5.16738
-5.072
-8.43666
-8.46082
-8.28131
-7.98547
-7.68155
-7.39067
-7.10999
-6.84258
-6.59236
-6.3605
-6.14658
-5.94986
-5.76961
-5.60517
-5.45589
-5.32176
-5.20049
-5.10762
-8.13955
-8.20656
-8.09871
-7.85474
-7.58327
-7.31997
-7.06324
-6.81418
-6.57778
-6.35695
-6.15223
-5.96337
-5.79003
-5.63188
-5.48845
-5.35978
-5.24375
-5.153
-7.88112
-7.97446
-7.92426
-7.73134
-7.49319
-7.25627
-7.0233
-6.79377
-6.5725
-6.36385
-6.16942
-5.98943
-5.82381
-5.67248
-5.53515
-5.41193
-5.30088
-5.21168
-7.69347
-7.80156
-7.79285
-7.64403
-7.43728
-7.22373
-7.01128
-6.79914
-6.59152
-6.39363
-6.20818
-6.03586
-5.87685
-5.73125
-5.59884
-5.47962
-5.37198
-5.28191
-7.61688
-7.72921
-7.74172
-7.62008
-7.43511
-7.23819
-7.04036
-6.84112
-6.64402
-6.45451
-6.27587
-6.10914
-5.95452
-5.81202
-5.68157
-5.56292
-5.45508
-5.35932
-7.71622
-7.82325
-7.82959
-7.70294
-7.51472
-7.31599
-7.11734
-6.91811
-6.72167
-6.53325
-6.35589
-6.1904
-6.03676
-5.89479
-5.76414
-5.64414
-5.53451
-5.43209
-7.99246
-8.08688
-8.05346
-7.8819
-7.66033
-7.43762
-7.21923
-7.00389
-6.79555
-6.59875
-6.41537
-6.24544
-6.08852
-5.94402
-5.81124
-5.68911
-5.57735
-5.47032
-8.38586
-8.44397
-8.34159
-8.10716
-7.84283
-7.58788
-7.34176
-7.10398
-6.87891
-6.66964
-6.47664
-6.29921
-6.13647
-5.9875
-5.85131
-5.72668
-5.61317
-5.50482
-8.88625
-8.86599
-8.65778
-8.348
-8.03595
-7.74197
-7.46229
-7.1988
-6.95498
-6.7316
-6.52765
-6.34177
-6.17258
-6.01867
-5.87872
-5.75129
-5.63562
-5.52599
-9.45028
-9.2947
-8.9508
-8.56793
-8.21131
-7.8778
-7.5658
-7.27917
-7.01861
-6.78237
-6.5684
-6.37477
-6.19958
-6.04099
-5.89738
-5.76713
-5.6492
-5.5385
-10.0147
-9.66871
-9.18561
-8.74781
-8.35388
-7.98436
-7.64493
-7.33926
-7.06447
-6.81707
-6.59443
-6.39412
-6.21372
-6.05106
-5.90421
-5.77144
-5.65147
-5.53988
-10.5187
-9.95023
-9.35457
-8.88277
-8.45618
-8.0557
-7.69488
-7.3744
-7.08827
-6.83209
-6.60278
-6.39737
-6.21304
-6.04731
-5.89807
-5.76342
-5.64194
-5.52987
-10.9202
-10.1278
-9.46132
-8.96919
-8.51407
-8.09014
-7.71442
-7.38336
-7.08907
-6.82675
-6.59287
-6.38404
-6.19711
-6.02941
-5.87866
-5.74287
-5.62051
-5.50841
-11.1915
-10.2113
-9.51155
-9.00486
-8.52849
-8.0897
-7.70447
-7.36644
-7.06699
-6.80095
-6.56444
-6.35375
-6.16553
-5.99695
-5.84563
-5.70949
-5.58693
-5.47533
-11.2988
-10.2267
-9.51221
-8.98914
-8.50075
-8.0544
-7.66358
-7.32175
-7.01996
-6.75257
-6.51538
-6.30448
-6.11639
-5.94817
-5.79734
-5.66179
-5.53984
-5.42943
-11.1661
-10.1969
-9.47719
-8.93151
-8.4382
-7.98953
-7.59636
-7.25369
-6.95224
-6.68574
-6.44978
-6.24032
-6.05378
-5.88713
-5.73786
-5.60382
-5.48325
-5.37442
-10.635
-10.1046
-9.43461
-8.8746
-8.37954
-7.93063
-7.53701
-7.19497
-6.89485
-6.62991
-6.39556
-6.18776
-6.00284
-5.83775
-5.68997
-5.55733
-5.43799
-5.33013
-4.71945
-4.71915
-4.72012
-4.72217
-4.72473
-4.72747
-4.73027
-4.73321
-4.73636
-4.73978
-4.74356
-4.74777
-4.75253
-4.75793
-4.76407
-4.77105
-4.77898
-4.788
-4.79821
-4.80974
-4.82271
-4.83722
-4.85333
-4.87111
-4.89056
-4.91167
-4.93437
-4.95858
-4.98417
-5.011
-5.03882
-5.06738
-5.09643
-5.12577
-5.15518
-5.18447
-5.21342
-5.24184
-5.26955
-5.29637
-5.32214
-5.34669
-5.36987
-5.39155
-5.41158
-5.42982
-5.44617
-5.46048
-5.47263
-5.48252
-5.49001
-5.49501
-5.4974
-5.49707
-5.49393
-5.48786
-5.47877
-5.46658
-5.45118
-5.4325
-5.41046
-5.38498
-5.356
-5.32344
-5.28726
-5.24741
-5.20384
-5.15652
-5.10542
-5.05052
-4.99182
-4.92937
-4.86321
-4.79337
-4.71973
-4.64213
-4.56052
-4.47506
-4.38583
-4.29289
-4.19629
-4.09608
-3.99231
-3.88505
-3.77435
-3.66027
-3.54291
-3.42233
-3.29861
-3.17185
-3.04214
-2.90957
-2.77425
-2.63629
-2.49579
-2.35286
-2.20762
-2.0602
-1.91071
-1.75928
-1.60603
-1.45111
-1.29464
-1.13675
-0.977593
-0.817295
-0.655999
-0.493848
-0.330983
-0.167548
-0.00368725
0.160455
0.324735
0.489008
0.653131
0.81696
0.980353
1.14317
1.30527
1.46652
1.62678
1.78592
1.94381
2.10032
2.25534
2.40874
2.5604
2.71022
2.85809
3.00391
3.14758
3.28901
3.42812
3.56482
3.69905
3.83074
3.95983
4.08626
4.20998
4.33097
4.44919
4.56463
4.67726
4.78707
4.89399
4.99796
5.09895
5.19701
5.29215
5.38442
5.47382
5.56039
5.64415
5.72514
5.80339
5.87892
5.95178
6.022
6.08961
6.15467
6.2172
6.27725
6.33487
6.39008
6.44293
6.49348
6.54176
6.58783
6.63174
6.67358
6.71344
6.75144
6.78779
6.82277
6.85688
6.89094
6.92687
6.96782
7.02563
7.10076
-4.71912
-4.71943
-4.72049
-4.72226
-4.72423
-4.72604
-4.72757
-4.72891
-4.73031
-4.732
-4.73414
-4.73683
-4.74012
-4.74407
-4.74879
-4.7544
-4.76101
-4.7688
-4.77791
-4.7885
-4.8007
-4.81463
-4.83038
-4.84799
-4.86747
-4.88875
-4.91175
-4.93633
-4.96232
-4.98952
-5.01769
-5.04659
-5.07597
-5.10561
-5.1353
-5.16482
-5.19397
-5.22256
-5.25043
-5.2774
-5.30332
-5.32803
-5.35139
-5.37327
-5.39354
-5.41206
-5.42871
-5.44337
-5.45593
-5.46625
-5.47424
-5.47977
-5.48274
-5.48305
-5.48058
-5.47523
-5.46691
-5.45552
-5.44098
-5.42319
-5.40208
-5.37757
-5.3496
-5.3181
-5.28301
-5.24428
-5.20188
-5.15576
-5.10589
-5.05225
-4.99481
-4.93354
-4.8684
-4.79935
-4.72625
-4.64932
-4.56875
-4.48448
-4.3965
-4.30483
-4.20951
-4.11058
-4.00808
-3.90208
-3.79263
-3.67981
-3.56367
-3.4443
-3.32179
-3.19621
-3.06765
-2.93622
-2.80202
-2.66514
-2.52571
-2.38382
-2.23959
-2.09315
-1.94461
-1.7941
-1.64174
-1.48768
-1.33203
-1.17493
-1.01652
-0.856943
-0.696329
-0.534822
-0.372564
-0.209697
-0.0463664
0.117285
0.281114
0.444976
0.608728
0.772226
0.935329
1.0979
1.25979
1.42087
1.58101
1.74006
1.8979
2.05441
2.20946
2.36293
2.51471
2.66468
2.81273
2.95877
3.1027
3.24443
3.38387
3.52093
3.65556
3.78767
3.91721
4.04412
4.16836
4.2899
4.40869
4.52472
4.63796
4.7484
4.85595
4.96057
5.06225
5.16101
5.25688
5.34986
5.43999
5.52729
5.61179
5.69351
5.77248
5.84874
5.92232
5.99326
6.06159
6.12735
6.19058
6.25131
6.3096
6.36548
6.41899
6.47018
6.51909
6.56579
6.61033
6.6528
6.69329
6.73196
6.769
6.80474
6.83972
6.87478
6.91185
6.95306
7.00904
7.07525
-4.71301
-4.71488
-4.71711
-4.71933
-4.72105
-4.7222
-4.72295
-4.72353
-4.72421
-4.72519
-4.72661
-4.72859
-4.73126
-4.73473
-4.73914
-4.74463
-4.75135
-4.75945
-4.76906
-4.7803
-4.79326
-4.808
-4.82452
-4.84282
-4.86283
-4.88447
-4.9076
-4.93209
-4.95776
-4.98443
-5.01189
-5.03994
-5.06839
-5.09704
-5.1257
-5.15418
-5.18233
-5.20995
-5.2369
-5.26303
-5.28817
-5.3122
-5.33497
-5.35635
-5.3762
-5.39441
-5.41084
-5.42538
-5.43789
-5.44827
-5.4564
-5.46216
-5.46544
-5.46613
-5.46413
-5.45933
-5.45162
-5.44093
-5.42714
-5.41017
-5.38995
-5.36639
-5.33942
-5.30897
-5.27499
-5.23742
-5.19621
-5.15132
-5.10272
-5.05037
-4.99425
-4.93433
-4.87057
-4.80294
-4.73148
-4.65618
-4.57714
-4.49437
-4.40791
-4.31776
-4.22396
-4.12656
-4.0256
-3.92112
-3.8132
-3.70188
-3.58725
-3.46938
-3.34833
-3.22421
-3.0971
-2.96709
-2.83429
-2.69879
-2.5607
-2.42013
-2.27719
-2.13201
-1.9847
-1.83538
-1.68418
-1.53124
-1.37667
-1.22062
-1.06321
-0.904596
-0.744902
-0.58427
-0.422843
-0.260763
-0.0981712
0.0647886
0.227973
0.39124
0.554446
0.717448
0.880106
1.04228
1.20383
1.36462
1.52451
1.68337
1.84108
1.9975
2.15252
2.306
2.45784
2.60792
2.75614
2.9024
3.04658
3.18862
3.3284
3.46586
3.60093
3.73352
3.86358
3.99105
4.11589
4.23804
4.35747
4.47416
4.58807
4.69918
4.80746
4.9129
5.01546
5.11513
5.21193
5.30585
5.39693
5.48518
5.57063
5.6533
5.73322
5.81042
5.88493
5.9568
6.02604
6.09271
6.15683
6.21844
6.27759
6.33432
6.38866
6.44067
6.4904
6.53789
6.58322
6.62648
6.66776
6.70724
6.74513
6.78176
6.81771
6.8538
6.89187
6.93321
6.98703
7.04022
-4.70111
-4.70503
-4.70923
-4.7127
-4.71506
-4.71654
-4.71752
-4.71832
-4.71919
-4.72037
-4.72203
-4.72435
-4.72746
-4.7315
-4.73661
-4.74293
-4.75059
-4.7597
-4.77035
-4.78261
-4.79652
-4.81208
-4.82927
-4.84804
-4.86831
-4.88999
-4.91295
-4.93706
-4.96217
-4.98813
-5.01476
-5.0419
-5.06937
-5.09702
-5.12467
-5.15216
-5.17934
-5.20605
-5.23215
-5.25748
-5.2819
-5.30528
-5.32748
-5.34837
-5.36782
-5.38571
-5.40189
-5.41626
-5.42869
-5.43905
-5.44724
-5.45313
-5.45661
-5.45756
-5.45588
-5.45147
-5.44421
-5.43401
-5.42078
-5.40442
-5.38486
-5.362
-5.33577
-5.30611
-5.27296
-5.23624
-5.19592
-5.15195
-5.10429
-5.05289
-4.99774
-4.93881
-4.87607
-4.8095
-4.73915
-4.66504
-4.58718
-4.50561
-4.42033
-4.33139
-4.2388
-4.14262
-4.04287
-3.93961
-3.83291
-3.7228
-3.60938
-3.4927
-3.37285
-3.24991
-3.12397
-2.99511
-2.86345
-2.72907
-2.59208
-2.45259
-2.31071
-2.16656
-2.02026
-1.87193
-1.7217
-1.56968
-1.41602
-1.26083
-1.10427
-0.946454
-0.78753
-0.627635
-0.466908
-0.305491
-0.143525
0.0188476
0.181484
0.344242
0.50698
0.669556
0.831828
0.993657
1.1549
1.31543
1.47511
1.6338
1.79138
1.94771
2.10268
2.25617
2.40805
2.55821
2.70655
2.85297
2.99736
3.13964
3.27971
3.41749
3.55291
3.68589
3.81637
3.9443
4.06962
4.1923
4.31229
4.42955
4.54404
4.65573
4.7646
4.87066
4.97388
5.07426
5.17178
5.26645
5.35828
5.44729
5.53351
5.61695
5.69764
5.77562
5.8509
5.92353
5.99354
6.06096
6.12583
6.18818
6.24806
6.3055
6.36056
6.41326
6.46367
6.51184
6.55784
6.60176
6.64371
6.68385
6.7224
6.7597
6.79629
6.83289
6.87107
6.91129
6.96084
7.0017
-4.68619
-4.69229
-4.6991
-4.70453
-4.7082
-4.71068
-4.71252
-4.71411
-4.71577
-4.71776
-4.72029
-4.72355
-4.72769
-4.73285
-4.73914
-4.74669
-4.75559
-4.76591
-4.77772
-4.79104
-4.80587
-4.82221
-4.84
-4.85919
-4.87969
-4.9014
-4.92422
-4.94803
-4.97269
-4.99806
-5.02401
-5.05038
-5.07704
-5.10383
-5.13061
-5.15724
-5.18356
-5.20945
-5.23475
-5.25934
-5.28307
-5.30583
-5.32746
-5.34784
-5.36685
-5.38436
-5.40024
-5.41436
-5.4266
-5.43684
-5.44496
-5.45084
-5.45437
-5.45543
-5.4539
-5.44968
-5.44267
-5.43277
-5.41987
-5.40388
-5.38473
-5.36232
-5.33657
-5.30743
-5.27482
-5.23868
-5.19896
-5.15561
-5.10859
-5.05787
-5.00341
-4.94519
-4.88321
-4.81744
-4.74791
-4.67463
-4.59761
-4.51688
-4.43246
-4.34437
-4.25264
-4.15731
-4.05843
-3.95605
-3.8502
-3.74097
-3.62841
-3.5126
-3.3936
-3.27152
-3.14642
-3.0184
-2.88756
-2.75399
-2.61781
-2.47911
-2.33802
-2.19463
-2.04908
-1.90148
-1.75195
-1.60062
-1.44763
-1.29309
-1.13715
-0.979943
-0.821598
-0.662256
-0.502056
-0.341139
-0.179647
-0.0177192
0.144501
0.306872
0.469253
0.631501
0.793477
0.955041
1.11605
1.27638
1.43589
1.59444
1.75191
1.90817
2.0631
2.21657
2.36848
2.51869
2.66712
2.81366
2.9582
3.10065
3.24092
3.37894
3.51462
3.64789
3.77869
3.90697
4.03266
4.15572
4.27611
4.39379
4.5087
4.62081
4.7301
4.83659
4.94027
5.04112
5.13914
5.23433
5.3267
5.41625
5.50302
5.58702
5.66828
5.74683
5.82268
5.89588
5.96646
6.03445
6.09988
6.16279
6.22323
6.28122
6.33682
6.39006
6.44099
6.48968
6.53618
6.5806
6.62303
6.66363
6.70262
6.7403
6.77714
6.81371
6.85123
6.88945
6.93421
6.96459
-4.6722
-4.68023
-4.68955
-4.69705
-4.7023
-4.7061
-4.70915
-4.71189
-4.7147
-4.71786
-4.7216
-4.72611
-4.73155
-4.73804
-4.74568
-4.75457
-4.76476
-4.77631
-4.78924
-4.80356
-4.81925
-4.83628
-4.8546
-4.87414
-4.89482
-4.91656
-4.93925
-4.96279
-4.98705
-5.01193
-5.03729
-5.06302
-5.08897
-5.11503
-5.14107
-5.16694
-5.19252
-5.21768
-5.24229
-5.26622
-5.28934
-5.31152
-5.33263
-5.35254
-5.37112
-5.38825
-5.40381
-5.41766
-5.42968
-5.43974
-5.44774
-5.45353
-5.45701
-5.45807
-5.45658
-5.45244
-5.44553
-5.43577
-5.42305
-5.40727
-5.38834
-5.36619
-5.34073
-5.3119
-5.27962
-5.24383
-5.20449
-5.16154
-5.11494
-5.06466
-5.01067
-4.95294
-4.89147
-4.82624
-4.75727
-4.68455
-4.60811
-4.52796
-4.44412
-4.35662
-4.26548
-4.17075
-4.07247
-3.97069
-3.86545
-3.75683
-3.64488
-3.52967
-3.41129
-3.28981
-3.16532
-3.03791
-2.90766
-2.77469
-2.6391
-2.50098
-2.36046
-2.21764
-2.07264
-1.92558
-1.77658
-1.62578
-1.47329
-1.31925
-1.16378
-1.00703
-0.849128
-0.690212
-0.53042
-0.369892
-0.208768
-0.0471898
0.114702
0.276766
0.438861
0.600847
0.762582
0.923928
1.08475
1.24491
1.40427
1.5627
1.72007
1.87625
2.03113
2.18458
2.33648
2.48672
2.6352
2.7818
2.92643
3.069
3.20941
3.34759
3.48346
3.61694
3.74797
3.87649
4.00245
4.12578
4.24646
4.36442
4.47963
4.59205
4.70166
4.80847
4.91248
5.01368
5.11206
5.20763
5.30039
5.39036
5.47754
5.56197
5.64366
5.72264
5.79893
5.87257
5.94359
6.01202
6.0779
6.14125
6.20212
6.26055
6.31657
6.37023
6.42158
6.47067
6.51757
6.56235
6.60513
6.64605
6.68529
6.72312
6.75992
6.79609
6.83251
6.86838
6.90867
6.93028
-4.66252
-4.67171
-4.68288
-4.69218
-4.69895
-4.7041
-4.70842
-4.71242
-4.71647
-4.72089
-4.72591
-4.73172
-4.73847
-4.74626
-4.75518
-4.76531
-4.77667
-4.7893
-4.80321
-4.81838
-4.83478
-4.85239
-4.87114
-4.89097
-4.9118
-4.93356
-4.95614
-4.97946
-5.00342
-5.0279
-5.05281
-5.07802
-5.10342
-5.1289
-5.15433
-5.1796
-5.20459
-5.22916
-5.2532
-5.27659
-5.29919
-5.32088
-5.34154
-5.36104
-5.37924
-5.39604
-5.41129
-5.42487
-5.43666
-5.44653
-5.45435
-5.46002
-5.4634
-5.46438
-5.46284
-5.45868
-5.45178
-5.44204
-5.42936
-5.41365
-5.39481
-5.37277
-5.34743
-5.31874
-5.28662
-5.25102
-5.21187
-5.16913
-5.12276
-5.07273
-5.01901
-4.96157
-4.9004
-4.83551
-4.76687
-4.69451
-4.61842
-4.53864
-4.45517
-4.36804
-4.27729
-4.18295
-4.08506
-3.98367
-3.87884
-3.77063
-3.65909
-3.54431
-3.42635
-3.30529
-3.18122
-3.05424
-2.92443
-2.79188
-2.65672
-2.51903
-2.37893
-2.23652
-2.09194
-1.94529
-1.7967
-1.64629
-1.49419
-1.34052
-1.18543
-1.02904
-0.87149
-0.712912
-0.553446
-0.393232
-0.232409
-0.0711169
0.0905028
0.25231
0.414164
0.575924
0.737451
0.898604
1.05925
1.21925
1.37847
1.53678
1.69405
1.85015
2.00496
2.15836
2.31023
2.46046
2.60894
2.75557
2.90024
3.04288
3.18337
3.32165
3.45764
3.59125
3.72243
3.85111
3.97724
4.10076
4.22163
4.3398
4.45522
4.56786
4.67771
4.78476
4.88902
4.99048
5.08914
5.185
5.27806
5.36834
5.45585
5.5406
5.62263
5.70195
5.77859
5.85258
5.92395
5.99273
6.05896
6.12267
6.1839
6.24268
6.29904
6.35304
6.40472
6.45413
6.50133
6.5464
6.58942
6.63053
6.66989
6.70769
6.74424
6.77977
6.81486
6.8483
6.88462
6.89889
-4.6585
-4.66814
-4.68031
-4.69086
-4.69887
-4.7052
-4.71068
-4.71584
-4.72106
-4.72664
-4.73283
-4.73981
-4.74771
-4.75663
-4.76664
-4.7778
-4.79013
-4.80364
-4.81833
-4.83418
-4.85115
-4.86921
-4.8883
-4.90836
-4.92932
-4.9511
-4.97361
-4.99679
-5.02052
-5.04472
-5.06929
-5.09412
-5.11912
-5.14416
-5.16915
-5.19396
-5.21849
-5.24262
-5.26622
-5.28918
-5.31137
-5.33268
-5.35297
-5.37213
-5.39002
-5.40652
-5.4215
-5.43483
-5.4464
-5.45606
-5.4637
-5.4692
-5.47244
-5.47329
-5.47164
-5.46737
-5.46039
-5.45058
-5.43785
-5.42209
-5.40322
-5.38116
-5.35582
-5.32713
-5.29503
-5.25946
-5.22035
-5.17767
-5.13138
-5.08144
-5.02782
-4.9705
-4.90948
-4.84473
-4.77627
-4.70408
-4.62818
-4.54858
-4.46531
-4.37839
-4.28786
-4.19374
-4.09608
-3.99493
-3.89035
-3.78239
-3.67112
-3.5566
-3.43891
-3.31814
-3.19436
-3.06767
-2.93816
-2.80592
-2.67106
-2.53368
-2.39388
-2.25179
-2.10752
-1.96118
-1.81289
-1.66279
-1.51099
-1.35763
-1.20283
-1.04673
-0.889458
-0.731155
-0.571958
-0.412004
-0.251433
-0.0903839
0.0710026
0.232587
0.39423
0.555789
0.717126
0.878102
1.03858
1.19843
1.35751
1.51569
1.67285
1.82885
1.98357
2.1369
2.28871
2.4389
2.58735
2.73397
2.87865
3.0213
3.16183
3.30015
3.43619
3.56988
3.70114
3.82992
3.95615
4.07979
4.20078
4.31908
4.43464
4.54744
4.65746
4.76469
4.86913
4.97079
5.06965
5.16572
5.25901
5.34952
5.43727
5.52228
5.60456
5.68415
5.76106
5.83533
5.90698
5.97605
6.04257
6.10656
6.16807
6.22714
6.28378
6.33806
6.39
6.43966
6.48709
6.53236
6.57555
6.61675
6.6561
6.69375
6.72989
6.76462
6.79826
6.82931
6.86213
6.87026
-4.66031
-4.66977
-4.68215
-4.6933
-4.70212
-4.70933
-4.71573
-4.72183
-4.72802
-4.73457
-4.74172
-4.74965
-4.75847
-4.76828
-4.77915
-4.7911
-4.80417
-4.81835
-4.83363
-4.84999
-4.86739
-4.88579
-4.90514
-4.92537
-4.94643
-4.96824
-4.99073
-5.01381
-5.0374
-5.06142
-5.08576
-5.11034
-5.13505
-5.1598
-5.18447
-5.20897
-5.23317
-5.25698
-5.28027
-5.30292
-5.32481
-5.34582
-5.36584
-5.38472
-5.40236
-5.41861
-5.43336
-5.44647
-5.45781
-5.46728
-5.47472
-5.48003
-5.48309
-5.48376
-5.48194
-5.47752
-5.47038
-5.46042
-5.44754
-5.43165
-5.41265
-5.39046
-5.365
-5.3362
-5.304
-5.26833
-5.22915
-5.1864
-5.14006
-5.09007
-5.03643
-4.97911
-4.91809
-4.85336
-4.78492
-4.71277
-4.63692
-4.55738
-4.47418
-4.38733
-4.29688
-4.20286
-4.10531
-4.00428
-3.89982
-3.792
-3.68087
-3.56651
-3.449
-3.3284
-3.20481
-3.07832
-2.94901
-2.81698
-2.68233
-2.54518
-2.40561
-2.26375
-2.11972
-1.97361
-1.82557
-1.67571
-1.52415
-1.37103
-1.21647
-1.06061
-0.903581
-0.745512
-0.586544
-0.426815
-0.266465
-0.105631
0.0555464
0.216929
0.378376
0.539748
0.700905
0.86171
1.02203
1.18172
1.34065
1.4987
1.65573
1.81161
1.96623
2.11946
2.27119
2.42131
2.5697
2.71627
2.86091
3.00354
3.14405
3.28237
3.41842
3.55212
3.68342
3.81223
3.93851
4.06221
4.18326
4.30164
4.41729
4.53019
4.64031
4.74766
4.85223
4.95402
5.05303
5.14925
5.2427
5.33338
5.42132
5.50651
5.589
5.66879
5.74591
5.8204
5.89227
5.96157
6.02831
6.09254
6.15428
6.21357
6.27045
6.32494
6.3771
6.42695
6.47455
6.51996
6.56324
6.60446
6.64371
6.6811
6.71672
6.75054
6.7827
6.81147
6.8412
6.84421
-4.66723
-4.67603
-4.68793
-4.69908
-4.70823
-4.71596
-4.72297
-4.72975
-4.73664
-4.74391
-4.75178
-4.76041
-4.76992
-4.78038
-4.79185
-4.80438
-4.81796
-4.83261
-4.8483
-4.86502
-4.88272
-4.90136
-4.9209
-4.94127
-4.96241
-4.98426
-5.00674
-5.02978
-5.05329
-5.0772
-5.10141
-5.12584
-5.15039
-5.17495
-5.19944
-5.22374
-5.24774
-5.27134
-5.29442
-5.31686
-5.33854
-5.35935
-5.37916
-5.39784
-5.41526
-5.43131
-5.44585
-5.45875
-5.46989
-5.47915
-5.48638
-5.49148
-5.49432
-5.49477
-5.49274
-5.48809
-5.48073
-5.47055
-5.45745
-5.44133
-5.42211
-5.39971
-5.37404
-5.34504
-5.31264
-5.27678
-5.23742
-5.19451
-5.148
-5.09788
-5.04411
-4.98668
-4.92556
-4.86075
-4.79223
-4.72001
-4.6441
-4.56452
-4.48128
-4.39442
-4.30396
-4.20994
-4.11241
-4.0114
-3.90699
-3.79922
-3.68817
-3.57389
-3.45647
-3.33599
-3.21252
-3.08615
-2.95698
-2.82511
-2.69062
-2.55364
-2.41425
-2.27257
-2.12873
-1.98282
-1.83498
-1.68532
-1.53397
-1.38106
-1.22671
-1.07106
-0.914241
-0.756383
-0.597626
-0.438106
-0.277961
-0.11733
0.0436473
0.204832
0.366085
0.527267
0.68824
0.848868
1.00901
1.16854
1.32731
1.48521
1.6421
1.79785
1.95234
2.10545
2.25707
2.40708
2.55538
2.70186
2.84643
2.98899
3.12944
3.26772
3.40373
3.53741
3.66868
3.79748
3.92376
4.04746
4.16853
4.28693
4.40262
4.51556
4.62575
4.73317
4.83782
4.93969
5.03879
5.13511
5.22867
5.31948
5.40754
5.49288
5.57551
5.65545
5.73274
5.80739
5.87944
5.94892
6.01584
6.08026
6.14219
6.20167
6.25873
6.3134
6.36572
6.41573
6.46346
6.50895
6.55226
6.59343
6.63252
6.66957
6.70459
6.73745
6.76814
6.79477
6.82179
6.82053
-4.67798
-4.68579
-4.6967
-4.70732
-4.71636
-4.72424
-4.73156
-4.73872
-4.74606
-4.7538
-4.76215
-4.77125
-4.7812
-4.79209
-4.80396
-4.81685
-4.83077
-4.84572
-4.86167
-4.87861
-4.89651
-4.91531
-4.93497
-4.95544
-4.97665
-4.99854
-5.02104
-5.04408
-5.06757
-5.09144
-5.11561
-5.13997
-5.16444
-5.18892
-5.21331
-5.23751
-5.26141
-5.28489
-5.30784
-5.33016
-5.3517
-5.37236
-5.39202
-5.41053
-5.42779
-5.44365
-5.458
-5.4707
-5.48162
-5.49065
-5.49765
-5.5025
-5.50508
-5.50527
-5.50297
-5.49804
-5.4904
-5.47993
-5.46653
-5.45012
-5.43061
-5.40792
-5.38196
-5.35268
-5.32
-5.28388
-5.24426
-5.2011
-5.15437
-5.10403
-5.05007
-4.99245
-4.93116
-4.86618
-4.79751
-4.72515
-4.64912
-4.56942
-4.48608
-4.39913
-4.3086
-4.21453
-4.11696
-4.01593
-3.91151
-3.80375
-3.69272
-3.57848
-3.46112
-3.3407
-3.21731
-3.09104
-2.96198
-2.83023
-2.69588
-2.55903
-2.4198
-2.27828
-2.1346
-1.98888
-1.84122
-1.69175
-1.54059
-1.38788
-1.23373
-1.07829
-0.921673
-0.764025
-0.605479
-0.446169
-0.286234
-0.125812
0.0349594
0.195939
0.356989
0.517972
0.678749
0.839184
0.99914
1.15848
1.31708
1.4748
1.63152
1.7871
1.94144
2.0944
2.24587
2.39575
2.54392
2.69028
2.83473
2.97718
3.11754
3.25573
3.39166
3.52526
3.65647
3.78522
3.91145
4.03511
4.15615
4.27452
4.3902
4.50315
4.61335
4.72079
4.82547
4.92739
5.02653
5.12292
5.21655
5.30743
5.39558
5.48101
5.56375
5.64381
5.72122
5.796
5.86819
5.9378
6.00488
6.06944
6.13153
6.19116
6.24837
6.30319
6.35564
6.40576
6.45358
6.49912
6.54241
6.58349
6.62236
6.65901
6.6934
6.72527
6.75454
6.77919
6.80382
6.79901
-4.6911
-4.69771
-4.70728
-4.71696
-4.72552
-4.73323
-4.74055
-4.74785
-4.75538
-4.76337
-4.77197
-4.78133
-4.79154
-4.80267
-4.81476
-4.82786
-4.84196
-4.85707
-4.87317
-4.89023
-4.90823
-4.92713
-4.94687
-4.96741
-4.98867
-5.01061
-5.03315
-5.05621
-5.07973
-5.10361
-5.12778
-5.15214
-5.17661
-5.20107
-5.22544
-5.24961
-5.27346
-5.29688
-5.31977
-5.342
-5.36345
-5.38399
-5.40351
-5.42188
-5.43896
-5.45464
-5.46878
-5.48125
-5.49194
-5.5007
-5.50742
-5.51198
-5.51426
-5.51413
-5.5115
-5.50623
-5.49824
-5.48742
-5.47367
-5.45691
-5.43704
-5.41399
-5.38769
-5.35807
-5.32506
-5.28862
-5.24869
-5.20524
-5.15824
-5.10764
-5.05343
-4.99558
-4.93406
-4.86887
-4.80001
-4.72747
-4.65127
-4.57142
-4.48795
-4.40088
-4.31026
-4.2161
-4.11847
-4.0174
-3.91295
-3.80518
-3.69416
-3.57995
-3.46262
-3.34226
-3.21895
-3.09277
-2.96381
-2.83217
-2.69795
-2.56125
-2.42217
-2.28082
-2.13731
-1.99177
-1.8443
-1.69502
-1.54407
-1.39156
-1.23763
-1.0824
-0.926007
-0.768583
-0.61026
-0.451176
-0.291467
-0.131271
0.0292742
0.190028
0.350854
0.511613
0.672169
0.832384
0.992124
1.15125
1.30964
1.46715
1.62367
1.77906
1.9332
2.08598
2.23727
2.38697
2.53497
2.68117
2.82547
2.96777
3.10799
3.24604
3.38185
3.51533
3.64643
3.77508
3.90122
4.02479
4.14576
4.26407
4.3797
4.49261
4.60278
4.71021
4.81488
4.91679
5.01595
5.11236
5.20602
5.29694
5.38514
5.47063
5.55344
5.63358
5.71108
5.78596
5.85825
5.92798
5.99517
6.05986
6.12207
6.18183
6.23916
6.2941
6.34666
6.39686
6.44474
6.4903
6.53355
6.57449
6.6131
6.64932
6.68304
6.71395
6.74185
6.76469
6.7872
6.77946
-4.70509
-4.71043
-4.71844
-4.72689
-4.73469
-4.74195
-4.74903
-4.75623
-4.76376
-4.77179
-4.78048
-4.78993
-4.80023
-4.81145
-4.82364
-4.83681
-4.85098
-4.86615
-4.88231
-4.89942
-4.91747
-4.93641
-4.95619
-4.97677
-4.99807
-5.02005
-5.04263
-5.06574
-5.0893
-5.11323
-5.13743
-5.16183
-5.18632
-5.2108
-5.23518
-5.25933
-5.28316
-5.30655
-5.32937
-5.35152
-5.37286
-5.39328
-5.41265
-5.43084
-5.44772
-5.46317
-5.47706
-5.48926
-5.49965
-5.5081
-5.51449
-5.5187
-5.52061
-5.5201
-5.51708
-5.51142
-5.50302
-5.4918
-5.47764
-5.46047
-5.44021
-5.41677
-5.39008
-5.36008
-5.32671
-5.28993
-5.24967
-5.20591
-5.15862
-5.10775
-5.05328
-4.99517
-4.93341
-4.868
-4.79892
-4.72619
-4.64982
-4.56982
-4.48621
-4.39903
-4.3083
-4.21407
-4.11638
-4.01528
-3.91082
-3.80305
-3.69206
-3.57789
-3.46063
-3.34035
-3.21713
-3.09106
-2.96223
-2.83073
-2.69666
-2.56012
-2.42121
-2.28005
-2.13675
-1.99141
-1.84415
-1.6951
-1.54438
-1.3921
-1.23841
-1.08343
-0.927279
-0.770106
-0.612038
-0.453211
-0.29376
-0.133823
0.0264618
0.186956
0.347522
0.508022
0.668321
0.82828
0.987765
1.14664
1.30478
1.46205
1.61832
1.77347
1.92738
2.07993
2.231
2.38048
2.52827
2.67427
2.81836
2.96048
3.10051
3.23838
3.37402
3.50734
3.63829
3.76679
3.8928
4.01625
4.1371
4.25531
4.37084
4.48367
4.59378
4.70115
4.80577
4.90765
5.00679
5.10318
5.19684
5.28777
5.37598
5.46151
5.54435
5.62454
5.7021
5.77705
5.84943
5.91924
5.98653
6.05132
6.11363
6.1735
6.23094
6.28597
6.33862
6.38889
6.4368
6.48235
6.52553
6.56631
6.60464
6.64042
6.67347
6.70343
6.73005
6.75124
6.77185
6.76172
-4.71862
-4.72268
-4.72905
-4.7361
-4.74291
-4.74952
-4.75618
-4.7631
-4.77045
-4.77838
-4.787
-4.79642
-4.80671
-4.81792
-4.83009
-4.84325
-4.85741
-4.87257
-4.88872
-4.90582
-4.92386
-4.9428
-4.96258
-4.98317
-5.00449
-5.02649
-5.0491
-5.07223
-5.09582
-5.11978
-5.14401
-5.16842
-5.19292
-5.2174
-5.24175
-5.26587
-5.28964
-5.31294
-5.33565
-5.35767
-5.37885
-5.39907
-5.41822
-5.43616
-5.45277
-5.46792
-5.48149
-5.49334
-5.50336
-5.51142
-5.51741
-5.5212
-5.52268
-5.52174
-5.51827
-5.51217
-5.50333
-5.49167
-5.47708
-5.45948
-5.4388
-5.41495
-5.38788
-5.3575
-5.32378
-5.28666
-5.2461
-5.20205
-5.15449
-5.10335
-5.04862
-4.99028
-4.9283
-4.86268
-4.79342
-4.72052
-4.644
-4.56388
-4.48017
-4.39291
-4.30213
-4.20786
-4.11016
-4.00906
-3.90463
-3.79692
-3.68599
-3.57191
-3.45475
-3.33459
-3.21151
-3.0856
-2.95694
-2.82562
-2.69175
-2.55542
-2.41674
-2.27581
-2.13275
-1.98766
-1.84066
-1.69188
-1.54143
-1.38944
-1.23603
-1.08133
-0.925482
-0.768605
-0.610837
-0.452311
-0.293164
-0.133532
0.0264465
0.186635
0.346895
0.507091
0.667084
0.826741
0.985926
1.1445
1.30235
1.45932
1.61531
1.77017
1.9238
2.07607
2.22687
2.37609
2.52362
2.66936
2.81321
2.95508
3.09488
3.23254
3.36796
3.50107
3.63182
3.76014
3.88596
4.00925
4.12994
4.248
4.36341
4.47612
4.58612
4.6934
4.79794
4.89976
4.99883
5.09518
5.1888
5.27971
5.36792
5.45344
5.53631
5.61652
5.69412
5.76912
5.84155
5.91143
5.9788
6.04367
6.10607
6.16603
6.22356
6.27867
6.33139
6.38172
6.42965
6.47518
6.51827
6.55888
6.59692
6.63224
6.66464
6.69369
6.7191
6.7388
6.75771
6.74565
-4.73053
-4.7334
-4.73813
-4.74369
-4.74939
-4.75521
-4.7613
-4.76781
-4.77486
-4.78258
-4.79104
-4.80033
-4.81052
-4.82164
-4.83374
-4.84682
-4.86091
-4.87599
-4.89206
-4.90909
-4.92707
-4.94594
-4.96566
-4.98619
-5.00746
-5.02942
-5.05198
-5.07507
-5.09862
-5.12252
-5.1467
-5.17104
-5.19546
-5.21984
-5.24408
-5.26805
-5.29165
-5.31477
-5.33726
-5.35903
-5.37994
-5.39987
-5.41869
-5.43628
-5.45252
-5.46727
-5.48042
-5.49185
-5.50142
-5.50903
-5.51456
-5.51788
-5.51889
-5.51748
-5.51354
-5.50698
-5.49769
-5.48558
-5.47056
-5.45255
-5.43147
-5.40725
-5.37981
-5.34911
-5.31508
-5.27768
-5.23686
-5.19258
-5.14478
-5.09343
-5.03849
-4.97995
-4.9178
-4.85203
-4.78265
-4.70966
-4.63306
-4.55288
-4.46914
-4.38187
-4.2911
-4.19688
-4.09923
-3.99821
-3.89388
-3.78629
-3.6755
-3.56158
-3.4446
-3.32463
-3.20177
-3.07608
-2.94766
-2.81659
-2.68299
-2.54693
-2.40854
-2.26791
-2.12515
-1.98038
-1.83371
-1.68526
-1.53514
-1.38349
-1.23043
-1.07609
-0.920586
-0.764066
-0.606656
-0.448491
-0.289706
-0.130437
0.0291789
0.189004
0.348902
0.508736
0.668369
0.827667
0.986495
1.14472
1.30221
1.45884
1.61448
1.769
1.9223
2.07424
2.22471
2.37361
2.52083
2.66627
2.80982
2.95141
3.09093
3.22831
3.36347
3.49633
3.62684
3.75492
3.88052
4.0036
4.12409
4.24197
4.35721
4.46976
4.57962
4.68677
4.79121
4.89292
4.99191
5.08818
5.18174
5.2726
5.36078
5.44628
5.52914
5.60936
5.68697
5.762
5.83448
5.90441
5.97184
6.03678
6.09926
6.1593
6.2169
6.27209
6.32488
6.37525
6.42319
6.46869
6.51169
6.55212
6.58986
6.62474
6.65651
6.6847
6.709
6.72735
6.74472
6.73114
-4.74031
-4.74219
-4.74533
-4.74935
-4.75385
-4.75876
-4.76415
-4.77014
-4.77678
-4.78418
-4.79239
-4.80148
-4.81147
-4.82242
-4.83435
-4.84726
-4.86117
-4.87607
-4.89194
-4.90878
-4.92654
-4.9452
-4.96472
-4.98504
-5.0061
-5.02784
-5.05019
-5.07307
-5.09639
-5.12007
-5.14401
-5.16811
-5.19226
-5.21636
-5.2403
-5.26396
-5.28723
-5.30998
-5.3321
-5.35347
-5.37396
-5.39345
-5.41182
-5.42894
-5.4447
-5.45897
-5.47162
-5.48254
-5.49161
-5.49872
-5.50374
-5.50657
-5.5071
-5.50522
-5.50082
-5.49381
-5.4841
-5.47158
-5.45618
-5.43781
-5.4164
-5.39187
-5.36416
-5.33321
-5.29897
-5.26139
-5.22042
-5.17597
-5.12802
-5.07652
-5.02147
-4.96284
-4.90062
-4.8348
-4.7654
-4.69241
-4.61584
-4.53571
-4.45205
-4.36488
-4.27423
-4.18015
-4.08267
-3.98184
-3.87772
-3.77035
-3.65981
-3.54615
-3.42946
-3.30979
-3.18723
-3.06187
-2.93379
-2.80308
-2.66983
-2.53415
-2.39614
-2.2559
-2.11355
-1.96918
-1.82292
-1.67489
-1.5252
-1.37397
-1.22134
-1.06743
-0.912369
-0.756286
-0.599316
-0.441592
-0.283248
-0.124421
0.034754
0.194139
0.353598
0.512995
0.672193
0.831059
0.989457
1.14726
1.30433
1.46054
1.61576
1.76988
1.92277