/*--------------------------------*- C++ -*----------------------------------*\
| =========                 |                                                 |
| \\      /  F ield         | OpenFOAM: The Open Source CFD Toolbox           |
|  \\    /   O peration     | Version:  2412                                  |
|   \\  /    A nd           | Website:  www.openfoam.com                      |
|    \\/     M anipulation  |                                                 |
\*---------------------------------------------------------------------------*/
FoamFile
{
    version     2.0;
    format      ascii;
    arch        "LSB;label=32;scalar=64";
    class       surfaceScalarField;
    location    "0.22";
    object      phi;
}
// * * * * * * * * * * * * * * * * * * * * * * * * * * * * * * * * * * * * * //

dimensions      [0 3 -1 0 0 0 0];

oriented        oriented;

internalField   nonuniform List<scalar> 
24170
(
1.36706e-07
-5.71619e-08
1.95622e-07
-5.89155e-08
2.5792e-07
-6.22981e-08
3.11676e-07
-5.37559e-08
3.61815e-07
-5.01396e-08
4.07927e-07
-4.61112e-08
4.49575e-07
-4.16479e-08
4.87101e-07
-3.75264e-08
5.20892e-07
-3.37908e-08
5.51284e-07
-3.03923e-08
5.78602e-07
-2.73184e-08
6.03138e-07
-2.45359e-08
6.25134e-07
-2.1996e-08
6.44766e-07
-1.96319e-08
6.6217e-07
-1.74038e-08
6.77217e-07
-1.50468e-08
6.89906e-07
-1.26895e-08
-8.04542e-09
6.97952e-07
3.26112e-07
-1.24822e-07
3.94133e-07
-1.26936e-07
4.55889e-07
-1.24054e-07
5.14189e-07
-1.12056e-07
5.67684e-07
-1.03635e-07
6.16642e-07
-9.50693e-08
6.61286e-07
-8.62915e-08
7.01839e-07
-7.80793e-08
7.38598e-07
-7.05499e-08
7.71884e-07
-6.36779e-08
8.02001e-07
-5.7436e-08
8.29225e-07
-5.17593e-08
8.53786e-07
-4.6557e-08
8.75864e-07
-4.17099e-08
8.95572e-07
-3.71116e-08
9.12907e-07
-3.2382e-08
9.27959e-07
-2.77422e-08
-1.99454e-08
9.39859e-07
5.17245e-07
-1.71611e-07
5.79152e-07
-1.88844e-07
6.38213e-07
-1.83114e-07
6.95371e-07
-1.69214e-07
7.48186e-07
-1.5645e-07
7.96792e-07
-1.43676e-07
8.41438e-07
-1.30938e-07
8.82259e-07
-1.189e-07
9.1947e-07
-1.07761e-07
9.53336e-07
-9.75437e-08
9.84117e-07
-8.82169e-08
1.01205e-06
-7.96958e-08
1.03735e-06
-7.18581e-08
1.06019e-06
-6.45455e-08
1.08067e-06
-5.75879e-08
1.09889e-06
-5.06036e-08
1.11467e-06
-4.35268e-08
-3.34999e-08
1.12823e-06
7.4348e-07
-1.95421e-07
7.91921e-07
-2.37285e-07
8.43832e-07
-2.35025e-07
8.96366e-07
-2.21748e-07
9.4603e-07
-2.06114e-07
9.92311e-07
-1.89957e-07
1.03523e-06
-1.73853e-07
1.07478e-06
-1.58449e-07
1.11107e-06
-1.44054e-07
1.14428e-06
-1.30758e-07
1.17461e-06
-1.1855e-07
1.20226e-06
-1.07339e-07
1.22739e-06
-9.69868e-08
1.25015e-06
-8.73096e-08
1.27066e-06
-7.80933e-08
1.28901e-06
-6.89626e-08
1.30513e-06
-5.96434e-08
-4.80234e-08
1.31966e-06
1.01492e-06
-1.99875e-07
1.04731e-06
-2.6967e-07
1.08854e-06
-2.76252e-07
1.1334e-06
-2.66612e-07
1.17753e-06
-2.50243e-07
1.21953e-06
-2.31956e-07
1.25902e-06
-2.13347e-07
1.29582e-06
-1.95244e-07
1.32988e-06
-1.78115e-07
1.36127e-06
-1.62153e-07
1.39011e-06
-1.4739e-07
1.41653e-06
-1.33753e-07
1.44065e-06
-1.21104e-07
1.46259e-06
-1.09251e-07
1.48245e-06
-9.79597e-08
1.50037e-06
-8.68758e-08
1.51637e-06
-7.565e-08
-6.28179e-08
1.53117e-06
1.33808e-06
-1.90517e-07
1.35427e-06
-2.85856e-07
1.38245e-06
-3.04436e-07
1.41696e-06
-3.01123e-07
1.45317e-06
-2.86451e-07
1.48884e-06
-2.6763e-07
1.52313e-06
-2.47638e-07
1.5556e-06
-2.2771e-07
1.58603e-06
-2.08541e-07
1.61435e-06
-1.90472e-07
1.64057e-06
-1.73612e-07
1.66474e-06
-1.57928e-07
1.68694e-06
-1.43305e-07
1.70725e-06
-1.2956e-07
1.72575e-06
-1.16463e-07
1.74258e-06
-1.03703e-07
1.75787e-06
-9.09407e-08
-7.72014e-08
1.77226e-06
1.71767e-06
-1.72907e-07
1.7193e-06
-2.87487e-07
1.73353e-06
-3.18668e-07
1.75572e-06
-3.2331e-07
1.78184e-06
-3.12568e-07
1.80918e-06
-2.9497e-07
1.83644e-06
-2.74902e-07
1.86293e-06
-2.54196e-07
1.88823e-06
-2.33841e-07
1.91213e-06
-2.14368e-07
1.93451e-06
-1.95995e-07
1.95534e-06
-1.78761e-07
1.97463e-06
-1.62591e-07
1.9924e-06
-1.47335e-07
2.00873e-06
-1.32791e-07
2.02373e-06
-1.18704e-07
2.03758e-06
-1.04793e-07
-9.04402e-08
2.05082e-06
2.15734e-06
-1.51552e-07
2.14717e-06
-2.77325e-07
2.14805e-06
-3.19543e-07
2.15705e-06
-3.32309e-07
2.17148e-06
-3.27003e-07
2.18875e-06
-3.12235e-07
2.20729e-06
-2.9344e-07
2.22618e-06
-2.73095e-07
2.24486e-06
-2.52518e-07
2.26295e-06
-2.32455e-07
2.28022e-06
-2.13268e-07
2.29654e-06
-1.95084e-07
2.31185e-06
-1.77895e-07
2.32611e-06
-1.61601e-07
2.33937e-06
-1.46049e-07
2.35171e-06
-1.31048e-07
2.36332e-06
-1.16399e-07
-1.01736e-07
2.37462e-06
2.66011e-06
-1.29475e-07
2.64127e-06
-2.58483e-07
2.63057e-06
-3.08845e-07
2.6268e-06
-3.28535e-07
2.62889e-06
-3.29093e-07
2.63493e-06
-3.18275e-07
2.6434e-06
-3.01916e-07
2.65333e-06
-2.8302e-07
2.66402e-06
-2.63206e-07
2.67499e-06
-2.43424e-07
2.68591e-06
-2.24188e-07
2.69656e-06
-2.05734e-07
2.70679e-06
-1.88132e-07
2.71654e-06
-1.7135e-07
2.72579e-06
-1.55295e-07
2.73459e-06
-1.39848e-07
2.74308e-06
-1.24893e-07
-1.10246e-07
2.75159e-06
3.22874e-06
-1.08351e-07
3.204e-06
-2.33748e-07
3.18408e-06
-2.8892e-07
3.16904e-06
-3.135e-07
3.15923e-06
-3.19283e-07
3.15377e-06
-3.1281e-07
3.15149e-06
-2.99641e-07
3.15153e-06
-2.83054e-07
3.15319e-06
-2.64874e-07
3.15597e-06
-2.46202e-07
3.15947e-06
-2.27684e-07
3.16339e-06
-2.09663e-07
3.16756e-06
-1.92294e-07
3.17183e-06
-1.75618e-07
3.17614e-06
-1.5961e-07
3.18051e-06
-1.44217e-07
3.18502e-06
-1.29409e-07
-1.15116e-07
3.1899e-06
3.8657e-06
-8.90276e-08
3.83718e-06
-2.05222e-07
3.81025e-06
-2.61996e-07
3.78606e-06
-2.89311e-07
3.76578e-06
-2.98999e-07
3.74951e-06
-2.96542e-07
3.73665e-06
-2.86776e-07
3.72657e-06
-2.72973e-07
3.71873e-06
-2.5704e-07
3.71268e-06
-2.40146e-07
3.70801e-06
-2.2302e-07
3.70444e-06
-2.06086e-07
3.70172e-06
-1.89575e-07
3.69969e-06
-1.73596e-07
3.69827e-06
-1.58187e-07
3.69741e-06
-1.43356e-07
3.69715e-06
-1.29147e-07
-1.15556e-07
3.69759e-06
3.81123e-06
-7.33551e-08
3.78552e-06
-1.79509e-07
3.75883e-06
-2.35311e-07
3.733e-06
-2.63476e-07
3.70932e-06
-2.75321e-07
3.68839e-06
-2.75608e-07
3.6701e-06
-2.68489e-07
3.6542e-06
-2.57073e-07
3.64041e-06
-2.43246e-07
3.62843e-06
-2.2817e-07
3.618e-06
-2.12594e-07
3.6089e-06
-1.96983e-07
3.60094e-06
-1.8161e-07
3.59397e-06
-1.66628e-07
3.5879e-06
-1.52119e-07
3.58268e-06
-1.38138e-07
3.57826e-06
-1.24721e-07
-1.12112e-07
3.57481e-06
5.03713e-06
-5.77238e-08
5.00707e-06
-1.49451e-07
4.97361e-06
-2.01851e-07
4.93953e-06
-2.29392e-07
4.90653e-06
-2.42325e-07
4.87576e-06
-2.4484e-07
4.84752e-06
-2.40251e-07
4.82179e-06
-2.31338e-07
4.79845e-06
-2.19902e-07
4.77732e-06
-2.07048e-07
4.75822e-06
-1.93496e-07
4.74096e-06
-1.79715e-07
4.72535e-06
-1.66002e-07
4.71126e-06
-1.5254e-07
4.69858e-06
-1.39443e-07
4.68724e-06
-1.26796e-07
4.67718e-06
-1.14662e-07
-1.03382e-07
4.66845e-06
6.66244e-06
-4.26897e-08
6.62913e-06
-1.16141e-07
6.58917e-06
-1.61897e-07
6.54671e-06
-1.86926e-07
6.50387e-06
-1.99483e-07
6.46231e-06
-2.03283e-07
6.42283e-06
-2.00777e-07
6.38571e-06
-1.94215e-07
6.35103e-06
-1.8522e-07
6.31879e-06
-1.74804e-07
6.2889e-06
-1.63614e-07
6.26128e-06
-1.5209e-07
6.2358e-06
-1.4052e-07
6.21235e-06
-1.29094e-07
6.19085e-06
-1.1794e-07
6.17121e-06
-1.07156e-07
6.15337e-06
-9.68231e-08
-8.73049e-08
6.13729e-06
8.79086e-06
-2.88881e-08
8.75646e-06
-8.17409e-08
8.71176e-06
-1.17192e-07
8.66208e-06
-1.37253e-07
8.61015e-06
-1.47546e-07
8.55806e-06
-1.51201e-07
8.50721e-06
-1.4992e-07
8.45826e-06
-1.45265e-07
8.41156e-06
-1.38523e-07
8.3673e-06
-1.30543e-07
8.32555e-06
-1.21867e-07
8.28632e-06
-1.12861e-07
8.24958e-06
-1.0378e-07
8.21529e-06
-9.47996e-08
8.18339e-06
-8.6038e-08
8.15382e-06
-7.75887e-08
8.12652e-06
-6.95199e-08
-6.2209e-08
8.10142e-06
1.15181e-05
-1.66151e-08
1.14848e-05
-4.8441e-08
1.14384e-05
-7.0791e-08
1.13845e-05
-8.34285e-08
1.13264e-05
-8.94643e-08
1.12665e-05
-9.12125e-08
1.12064e-05
-8.98175e-08
1.11473e-05
-8.61933e-08
1.10899e-05
-8.11711e-08
1.10347e-05
-7.53444e-08
1.0982e-05
-6.90886e-08
1.09318e-05
-6.26543e-08
1.08842e-05
-5.62213e-08
1.08393e-05
-4.99168e-08
1.07971e-05
-4.38348e-08
1.07576e-05
-3.80522e-08
1.07206e-05
-3.25962e-08
-2.785e-08
1.06863e-05
1.48842e-05
-5.40876e-09
1.48525e-05
-1.67255e-08
1.48063e-05
-2.45648e-08
1.47511e-05
-2.82035e-08
1.46904e-05
-2.88045e-08
1.46267e-05
-2.7537e-08
1.45619e-05
-2.49897e-08
1.44973e-05
-2.15596e-08
1.44337e-05
-1.76267e-08
1.43719e-05
-1.34848e-08
1.43121e-05
-9.3187e-09
1.42547e-05
-5.24622e-09
1.41998e-05
-1.35817e-09
1.41476e-05
2.30164e-09
1.40981e-05
5.67712e-09
1.40513e-05
8.72272e-09
1.40072e-05
1.1469e-08
1.35657e-08
1.39658e-05
1.8769e-05
6.2666e-09
1.87365e-05
1.58085e-08
1.86883e-05
2.36264e-08
1.86301e-05
2.9988e-08
1.85661e-05
3.52343e-08
1.84989e-05
3.96303e-08
1.84306e-05
4.33429e-08
1.83625e-05
4.64954e-08
1.82957e-05
4.91823e-08
1.82308e-05
5.14699e-08
1.8168e-05
5.34027e-08
1.81078e-05
5.50106e-08
1.80501e-05
5.63136e-08
1.79951e-05
5.73226e-08
1.79427e-05
5.80434e-08
1.7893e-05
5.84635e-08
1.78458e-05
5.86419e-08
5.83185e-08
1.7801e-05
2.26768e-05
1.69975e-08
2.26398e-05
5.27632e-08
2.25834e-05
8.0028e-08
2.25148e-05
9.85887e-08
2.24391e-05
1.10939e-07
2.23597e-05
1.19086e-07
2.22789e-05
1.24087e-07
2.21987e-05
1.26721e-07
2.21202e-05
1.27684e-07
2.20442e-05
1.27498e-07
2.19711e-05
1.26505e-07
2.19012e-05
1.24931e-07
2.18345e-05
1.22936e-07
2.17712e-05
1.20632e-07
2.17112e-05
1.18097e-07
2.16543e-05
1.15379e-07
2.16004e-05
1.12538e-07
1.09432e-07
2.15493e-05
1.5604e-05
3.26436e-08
1.55641e-05
9.26238e-08
1.55091e-05
1.35043e-07
1.54456e-05
1.62024e-07
1.53777e-05
1.78868e-07
1.5308e-05
1.8879e-07
1.52386e-05
1.93509e-07
1.51708e-05
1.94483e-07
1.51056e-05
1.92956e-07
1.50433e-05
1.89793e-07
1.49842e-05
1.85557e-07
1.49285e-05
1.80633e-07
1.48761e-05
1.75297e-07
1.4827e-05
1.69738e-07
1.4781e-05
1.64088e-07
1.4738e-05
1.58439e-07
1.46977e-05
1.52852e-07
1.47267e-07
1.46598e-05
1.23902e-05
5.1236e-08
1.23448e-05
1.38099e-07
1.22864e-05
1.93404e-07
1.22225e-05
2.25911e-07
1.21566e-05
2.44768e-07
1.20913e-05
2.54089e-07
1.20284e-05
2.56409e-07
1.19688e-05
2.54058e-07
1.1913e-05
2.4879e-07
1.18611e-05
2.41727e-07
1.1813e-05
2.33596e-07
1.17688e-05
2.24897e-07
1.17281e-05
2.15971e-07
1.16908e-05
2.07043e-07
1.16566e-05
1.98263e-07
1.16253e-05
1.89727e-07
1.15967e-05
1.81481e-07
1.73512e-07
1.15705e-05
9.55928e-06
7.55438e-08
9.50978e-06
1.87603e-07
9.45371e-06
2.49475e-07
9.39689e-06
2.82726e-07
9.3417e-06
2.99962e-07
9.29012e-06
3.05668e-07
9.2431e-06
3.03424e-07
9.20079e-06
2.9637e-07
9.16303e-06
2.86548e-07
9.12957e-06
2.7519e-07
9.10007e-06
2.63094e-07
9.07418e-06
2.50794e-07
9.05152e-06
2.38628e-07
9.03176e-06
2.26807e-07
9.01457e-06
2.15451e-07
8.99966e-06
2.0463e-07
8.98678e-06
1.94362e-07
1.8465e-07
8.97565e-06
7.18003e-06
1.04963e-07
7.13264e-06
2.34995e-07
7.087e-06
2.95117e-07
7.04542e-06
3.24302e-07
7.00919e-06
3.36188e-07
6.97926e-06
3.35604e-07
6.95528e-06
3.27398e-07
6.93651e-06
3.15148e-07
6.92219e-06
3.00865e-07
6.91166e-06
2.85716e-07
6.90431e-06
2.70442e-07
6.89961e-06
2.55498e-07
6.8971e-06
2.41143e-07
6.89639e-06
2.27512e-07
6.89718e-06
2.14665e-07
6.89919e-06
2.02617e-07
6.90221e-06
1.91345e-07
1.80848e-07
6.90601e-06
5.24556e-06
1.38121e-07
5.20786e-06
2.72694e-07
5.18043e-06
3.2255e-07
5.16161e-06
3.43118e-07
5.15134e-06
3.46456e-07
5.14857e-06
3.38379e-07
5.15146e-06
3.24509e-07
5.15851e-06
3.08095e-07
5.16863e-06
2.90746e-07
5.18096e-06
2.73383e-07
5.19485e-06
2.56556e-07
5.20979e-06
2.4056e-07
5.2254e-06
2.25531e-07
5.2414e-06
2.11509e-07
5.25758e-06
1.98485e-07
5.27378e-06
1.86419e-07
5.28987e-06
1.75255e-07
1.64978e-07
5.30574e-06
3.71461e-06
1.71644e-07
3.69607e-06
2.91238e-07
3.69442e-06
3.24199e-07
3.70434e-06
3.33198e-07
3.72341e-06
3.27381e-07
3.74838e-06
3.13406e-07
3.77669e-06
2.96205e-07
3.80678e-06
2.78006e-07
3.83765e-06
2.59868e-07
3.86864e-06
2.42397e-07
3.89928e-06
2.25919e-07
3.92927e-06
2.10569e-07
3.95843e-06
1.96373e-07
3.98664e-06
1.833e-07
4.01384e-06
1.71285e-07
4.04e-06
1.60255e-07
4.06512e-06
1.50132e-07
1.40899e-07
4.0892e-06
2.5354e-06
1.96844e-07
2.54624e-06
2.80393e-07
2.57486e-06
2.95585e-07
2.61417e-06
2.9388e-07
2.65963e-06
2.81927e-07
2.70723e-06
2.65804e-07
2.75495e-06
2.48483e-07
2.80179e-06
2.31166e-07
2.84716e-06
2.14501e-07
2.89072e-06
1.98841e-07
2.9323e-06
1.84335e-07
2.97186e-06
1.71009e-07
3.00941e-06
1.58824e-07
3.045e-06
1.47707e-07
3.07872e-06
1.3757e-07
3.11065e-06
1.28325e-07
3.14089e-06
1.1989e-07
1.12265e-07
3.16952e-06
1.65469e-06
1.99257e-07
1.70056e-06
2.34527e-07
1.75707e-06
2.39072e-07
1.81981e-06
2.3114e-07
1.88376e-06
2.17979e-07
1.94596e-06
2.03609e-07
2.00553e-06
1.88909e-07
2.06211e-06
1.7458e-07
2.11553e-06
1.61087e-07
2.16576e-06
1.48609e-07
2.21291e-06
1.37189e-07
2.25712e-06
1.26801e-07
2.29856e-06
1.1738e-07
2.33742e-06
1.08843e-07
2.37389e-06
1.01104e-07
2.40814e-06
9.40805e-08
2.44033e-06
8.76938e-08
8.19811e-08
2.47062e-06
1.01827e-06
1.63846e-07
1.09488e-06
1.57921e-07
1.17023e-06
1.63717e-07
1.24668e-06
1.54692e-07
1.32007e-06
1.44591e-07
1.38904e-06
1.34634e-07
1.45367e-06
1.24285e-07
1.51399e-06
1.14254e-07
1.57013e-06
1.04953e-07
1.62229e-06
9.64467e-08
1.67076e-06
8.87243e-08
1.71581e-06
8.175e-08
1.75772e-06
7.54644e-08
1.79677e-06
6.97984e-08
1.83319e-06
6.46843e-08
1.8672e-06
6.00612e-08
1.89905e-06
5.58497e-08
5.21256e-08
1.9289e-06
5.69236e-07
8.45264e-08
6.58979e-07
6.8178e-08
7.40757e-07
8.19385e-08
8.20849e-07
7.46013e-08
8.95842e-07
6.9598e-08
9.65388e-07
6.50877e-08
1.0298e-06
5.98715e-08
1.0893e-06
5.47555e-08
1.14416e-06
5.00895e-08
1.19475e-06
4.58626e-08
1.24143e-06
4.20456e-08
1.28456e-06
3.8618e-08
1.32448e-06
3.55458e-08
1.36149e-06
3.27891e-08
1.39586e-06
3.03098e-08
1.42784e-06
2.80793e-08
1.45767e-06
2.60253e-08
2.41968e-08
1.4856e-06
2.22451e-07
2.90629e-07
3.72567e-07
4.47168e-07
5.16766e-07
5.81854e-07
6.41725e-07
6.96481e-07
7.4657e-07
7.92433e-07
8.34479e-07
8.73097e-07
9.08643e-07
9.41432e-07
9.71742e-07
9.99821e-07
1.02585e-06
1.05004e-06
1.89559e-08
-1.89559e-08
4.25361e-08
-2.35802e-08
6.28118e-08
-2.02757e-08
7.73408e-08
-1.4529e-08
8.52799e-08
-7.93904e-09
8.66531e-08
-1.37327e-09
8.21074e-08
4.54572e-09
7.27389e-08
9.36856e-09
5.96803e-08
1.30586e-08
4.38142e-08
1.58661e-08
2.56631e-08
1.81512e-08
5.4266e-09
2.02365e-08
-1.69422e-08
2.23688e-08
-4.16393e-08
2.46971e-08
-6.89011e-08
2.72618e-08
-9.89489e-08
3.00477e-08
-1.31954e-07
3.30048e-08
-1.68015e-07
3.60617e-08
-2.07152e-07
3.91371e-08
-2.49299e-07
4.21464e-08
-2.94306e-07
4.50071e-08
-3.4195e-07
4.76436e-08
-3.91941e-07
4.9992e-08
-4.43944e-07
5.20027e-08
-4.97587e-07
5.36431e-08
-5.52484e-07
5.48972e-08
-6.0825e-07
5.57652e-08
-6.64511e-07
5.62614e-08
-7.20924e-07
5.64135e-08
-7.77187e-07
5.62629e-08
-8.33051e-07
5.58633e-08
-8.88315e-07
5.52646e-08
-9.42813e-07
5.44978e-08
-9.96402e-07
5.3589e-08
-1.04897e-06
5.25649e-08
-1.10042e-06
5.14501e-08
-1.15068e-06
5.02664e-08
-1.19972e-06
4.90325e-08
-1.24748e-06
4.77638e-08
-1.29395e-06
4.64729e-08
-1.33912e-06
4.51694e-08
-1.38298e-06
4.38603e-08
-1.42553e-06
4.25506e-08
-1.46678e-06
4.12435e-08
-1.50672e-06
3.99407e-08
-1.54536e-06
3.86432e-08
-1.58271e-06
3.73506e-08
-1.61877e-06
3.60625e-08
-1.65355e-06
3.47777e-08
-1.68705e-06
3.34951e-08
-1.71926e-06
3.22132e-08
-1.75019e-06
3.0931e-08
-1.77984e-06
2.9647e-08
-1.8082e-06
2.83603e-08
-1.83527e-06
2.70699e-08
-1.86104e-06
2.5775e-08
-1.88552e-06
2.44752e-08
-1.90869e-06
2.31698e-08
-1.93055e-06
2.18586e-08
-1.95109e-06
2.05414e-08
-1.97031e-06
1.92181e-08
-1.98819e-06
1.78884e-08
-2.00475e-06
1.65521e-08
-2.01995e-06
1.52087e-08
-2.03381e-06
1.38575e-08
-2.04631e-06
1.24973e-08
-2.05744e-06
1.11262e-08
-2.06718e-06
9.74061e-09
-2.07551e-06
8.33667e-09
-2.08242e-06
6.90908e-09
-2.08787e-06
5.45053e-09
-2.09182e-06
3.95198e-09
-2.09423e-06
2.40906e-09
-2.09504e-06
8.0578e-10
-2.09435e-06
-6.86146e-10
-2.09238e-06
-1.97353e-09
-2.08918e-06
-3.19683e-09
-2.08481e-06
-4.37805e-09
-2.07927e-06
-5.53576e-09
-2.07259e-06
-6.67962e-09
-2.06478e-06
-7.81327e-09
-2.05584e-06
-8.93793e-09
-2.04578e-06
-1.00537e-08
-2.03462e-06
-1.11602e-08
-2.02237e-06
-1.2257e-08
-2.00902e-06
-1.33434e-08
-1.99461e-06
-1.44188e-08
-1.97912e-06
-1.54827e-08
-1.96259e-06
-1.65343e-08
-1.94502e-06
-1.75732e-08
-1.92642e-06
-1.85989e-08
-1.90681e-06
-1.96109e-08
-1.8862e-06
-2.06087e-08
-1.8646e-06
-2.15919e-08
-1.84204e-06
-2.256e-08
-1.81853e-06
-2.35126e-08
-1.79408e-06
-2.44494e-08
-1.76871e-06
-2.53698e-08
-1.74244e-06
-2.62735e-08
-1.71528e-06
-2.71601e-08
-1.68725e-06
-2.80292e-08
-1.65837e-06
-2.88803e-08
-1.62866e-06
-2.97131e-08
-1.59813e-06
-3.05272e-08
-1.56681e-06
-3.13221e-08
-1.53471e-06
-3.20975e-08
-1.50186e-06
-3.28527e-08
-1.46827e-06
-3.35875e-08
-1.43397e-06
-3.43012e-08
-1.39898e-06
-3.49934e-08
-1.36331e-06
-3.56636e-08
-1.327e-06
-3.63113e-08
-1.29006e-06
-3.6936e-08
-1.25253e-06
-3.75371e-08
-1.21441e-06
-3.81142e-08
-1.17575e-06
-3.86666e-08
-1.13655e-06
-3.91939e-08
-1.09686e-06
-3.96955e-08
-1.05669e-06
-4.01709e-08
-1.01607e-06
-4.06198e-08
-9.75025e-07
-4.10414e-08
-9.33589e-07
-4.14355e-08
-8.91788e-07
-4.18015e-08
-8.49649e-07
-4.21391e-08
-8.07201e-07
-4.24479e-08
-7.64473e-07
-4.27276e-08
-7.21495e-07
-4.29778e-08
-6.78297e-07
-4.31983e-08
-6.34908e-07
-4.33889e-08
-5.91359e-07
-4.35493e-08
-5.47679e-07
-4.36795e-08
-5.039e-07
-4.37792e-08
-4.60052e-07
-4.38483e-08
-4.16165e-07
-4.38867e-08
-3.72271e-07
-4.38941e-08
-3.28401e-07
-4.38703e-08
-2.84586e-07
-4.38147e-08
-2.40859e-07
-4.37267e-08
-1.97254e-07
-4.36058e-08
-1.53804e-07
-4.34491e-08
-1.10546e-07
-4.32581e-08
-6.75125e-08
-4.30339e-08
-2.47417e-08
-4.27708e-08
1.7729e-08
-4.24707e-08
5.98582e-08
-4.21292e-08
1.01616e-07
-4.17579e-08
1.42988e-07
-4.13717e-08
1.83969e-07
-4.0981e-08
2.24553e-07
-4.05839e-08
2.64731e-07
-4.01781e-08
3.04493e-07
-3.97619e-08
3.43827e-07
-3.93345e-08
3.82723e-07
-3.88959e-08
4.2117e-07
-3.84466e-08
4.59157e-07
-3.79873e-08
4.96676e-07
-3.7519e-08
5.33719e-07
-3.70427e-08
5.70278e-07
-3.65597e-08
6.0635e-07
-3.60712e-08
6.41928e-07
-3.55783e-08
6.7701e-07
-3.5082e-08
7.11593e-07
-3.45832e-08
7.45675e-07
-3.40824e-08
7.79255e-07
-3.35797e-08
8.12329e-07
-3.30745e-08
8.44895e-07
-3.25653e-08
8.76944e-07
-3.20491e-08
9.08465e-07
-3.15209e-08
9.39437e-07
-3.09726e-08
9.69829e-07
-3.03915e-08
9.99586e-07
-2.97573e-08
1.02862e-06
-2.90377e-08
1.0568e-06
-2.81788e-08
1.08389e-06
-2.70893e-08
1.10948e-06
-2.55915e-08
1.13283e-06
-2.33429e-08
1.15221e-06
-1.93852e-08
1.16377e-06
-1.15554e-08
1.15486e-06
8.90762e-09
5.41956e-08
1.10066e-06
1.76429e-08
-3.65988e-08
2.75887e-08
-3.3526e-08
2.98094e-08
-2.24963e-08
2.63799e-08
-1.10995e-08
1.8639e-08
-1.98224e-10
7.34358e-09
9.9222e-09
-7.21344e-09
1.91027e-08
-2.50893e-08
2.72444e-08
-4.64034e-08
3.43727e-08
-7.1213e-08
4.06756e-08
-9.94991e-08
4.64373e-08
-1.31202e-07
5.19389e-08
-1.66222e-07
5.73896e-08
-2.04428e-07
6.29028e-08
-2.45666e-07
6.84995e-08
-2.89746e-07
7.41277e-08
-3.36429e-07
7.9688e-08
-3.85424e-07
8.50569e-08
-4.36392e-07
9.01048e-08
-4.88955e-07
9.47098e-08
-5.42716e-07
9.87675e-08
-5.9727e-07
1.02197e-07
-6.52225e-07
1.04947e-07
-7.07216e-07
1.06994e-07
-7.61915e-07
1.08342e-07
-8.16037e-07
1.0902e-07
-8.69349e-07
1.09077e-07
-9.21666e-07
1.08578e-07
-9.72848e-07
1.07596e-07
-1.0228e-06
1.0621e-07
-1.07143e-06
1.04501e-07
-1.11871e-06
1.02538e-07
-1.16459e-06
1.00377e-07
-1.20907e-06
9.80684e-08
-1.25215e-06
9.56531e-08
-1.29387e-06
9.31661e-08
-1.33424e-06
9.06356e-08
-1.37329e-06
8.80837e-08
-1.41105e-06
8.55269e-08
-1.44756e-06
8.29771e-08
-1.48283e-06
8.04421e-08
-1.5169e-06
7.79266e-08
-1.54978e-06
7.54326e-08
-1.58149e-06
7.29603e-08
-1.61206e-06
7.05083e-08
-1.64149e-06
6.80743e-08
-1.6698e-06
6.56555e-08
-1.69698e-06
6.32485e-08
-1.72306e-06
6.08501e-08
-1.74802e-06
5.84569e-08
-1.77187e-06
5.60659e-08
-1.79461e-06
5.36744e-08
-1.81625e-06
5.12797e-08
-1.83677e-06
4.888e-08
-1.85617e-06
4.64735e-08
-1.87445e-06
4.40589e-08
-1.89161e-06
4.16352e-08
-1.90765e-06
3.92019e-08
-1.92255e-06
3.67586e-08
-1.93631e-06
3.43051e-08
-1.94893e-06
3.18417e-08
-1.96041e-06
2.93684e-08
-1.97075e-06
2.68857e-08
-1.97993e-06
2.43938e-08
-1.98797e-06
2.18931e-08
-1.99485e-06
1.9384e-08
-2.0006e-06
1.68667e-08
-2.0052e-06
1.43417e-08
-2.00867e-06
1.181e-08
-2.01103e-06
9.27371e-09
-2.01232e-06
6.73685e-09
-2.01258e-06
4.2077e-09
-2.01187e-06
1.70488e-09
-2.01032e-06
-7.49713e-10
-2.00785e-06
-3.14844e-09
-2.00435e-06
-5.47739e-09
-1.99976e-06
-7.78398e-09
-1.99407e-06
-1.00724e-08
-1.98726e-06
-1.2344e-08
-1.97934e-06
-1.46006e-08
-1.97031e-06
-1.68421e-08
-1.96018e-06
-1.90683e-08
-1.94896e-06
-2.12781e-08
-1.93665e-06
-2.34703e-08
-1.92326e-06
-2.56436e-08
-1.90881e-06
-2.77968e-08
-1.8933e-06
-2.99285e-08
-1.87674e-06
-3.20375e-08
-1.85915e-06
-3.41226e-08
-1.84054e-06
-3.61827e-08
-1.82093e-06
-3.82167e-08
-1.80031e-06
-4.02237e-08
-1.77872e-06
-4.22027e-08
-1.75616e-06
-4.41527e-08
-1.73265e-06
-4.6073e-08
-1.7082e-06
-4.79627e-08
-1.68282e-06
-4.98208e-08
-1.65655e-06
-5.16466e-08
-1.62938e-06
-5.34392e-08
-1.60134e-06
-5.51978e-08
-1.57245e-06
-5.69216e-08
-1.54272e-06
-5.86097e-08
-1.51217e-06
-6.02613e-08
-1.48083e-06
-6.18756e-08
-1.4487e-06
-6.34518e-08
-1.4158e-06
-6.49889e-08
-1.38217e-06
-6.64861e-08
-1.34782e-06
-6.79423e-08
-1.31276e-06
-6.93565e-08
-1.27703e-06
-7.07279e-08
-1.24064e-06
-7.20552e-08
-1.20361e-06
-7.33377e-08
-1.16597e-06
-7.45742e-08
-1.12774e-06
-7.57637e-08
-1.08895e-06
-7.69052e-08
-1.04962e-06
-7.79974e-08
-1.00978e-06
-7.90394e-08
-9.69442e-07
-8.00302e-08
-9.28644e-07
-8.09688e-08
-8.8741e-07
-8.18541e-08
-8.45766e-07
-8.26852e-08
-8.0374e-07
-8.34612e-08
-7.6136e-07
-8.41812e-08
-7.18655e-07
-8.48445e-08
-6.75653e-07
-8.54503e-08
-6.32382e-07
-8.59979e-08
-5.88873e-07
-8.64868e-08
-5.45155e-07
-8.69163e-08
-5.01258e-07
-8.72861e-08
-4.57212e-07
-8.75958e-08
-4.13046e-07
-8.7845e-08
-3.68792e-07
-8.80335e-08
-3.24479e-07
-8.81611e-08
-2.80138e-07
-8.82274e-08
-2.358e-07
-8.82321e-08
-1.91496e-07
-8.81749e-08
-1.47255e-07
-8.80551e-08
-1.03111e-07
-8.78713e-08
-5.90931e-08
-8.76234e-08
-1.52339e-08
-8.73083e-08
2.84338e-08
-8.69258e-08
7.18771e-08
-8.64772e-08
1.15068e-07
-8.59617e-08
1.57982e-07
-8.53849e-08
2.006e-07
-8.47474e-08
2.42901e-07
-8.40584e-08
2.84864e-07
-8.33345e-08
3.26468e-07
-8.25858e-08
3.67699e-07
-8.18143e-08
4.0854e-07
-8.10192e-08
4.48978e-07
-8.02e-08
4.89e-07
-7.93566e-08
5.28594e-07
-7.84899e-08
5.67748e-07
-7.76011e-08
6.06453e-07
-7.66921e-08
6.44699e-07
-7.57649e-08
6.82479e-07
-7.4822e-08
7.19785e-07
-7.38657e-08
7.56612e-07
-7.28985e-08
7.92956e-07
-7.19227e-08
8.28815e-07
-7.09403e-08
8.64184e-07
-6.9953e-08
8.99064e-07
-6.8962e-08
9.33452e-07
-6.79674e-08
9.67345e-07
-6.6968e-08
1.00074e-06
-6.59608e-08
1.03363e-06
-6.49398e-08
1.06601e-06
-6.3895e-08
1.09784e-06
-6.28104e-08
1.12911e-06
-6.16605e-08
1.15976e-06
-6.04053e-08
1.1897e-06
-5.89813e-08
1.21881e-06
-5.72839e-08
1.24686e-06
-5.51368e-08
1.27348e-06
-5.22123e-08
1.29804e-06
-4.79009e-08
1.31941e-06
-4.07629e-08
1.33603e-06
-2.81712e-08
1.34629e-06
-1.35649e-09
5.36779e-08
1.34681e-06
3.84455e-09
-4.04434e-08
-2.00567e-09
-2.76758e-08
-1.26826e-08
-1.18194e-08
-2.65929e-08
2.8108e-09
-4.31325e-08
1.63414e-08
-6.21378e-08
2.89275e-08
-8.36359e-08
4.06008e-08
-1.07773e-07
5.13817e-08
-1.34733e-07
6.13321e-08
-1.6464e-07
7.05826e-08
-1.97509e-07
7.93071e-08
-2.3324e-07
8.76694e-08
-2.7163e-07
9.578e-08
-3.12403e-07
1.03676e-07
-3.55228e-07
1.11324e-07
-3.99741e-07
1.18641e-07
-4.45564e-07
1.25511e-07
-4.92316e-07
1.31809e-07
-5.39629e-07
1.37418e-07
-5.87162e-07
1.42243e-07
-6.34612e-07
1.46217e-07
-6.81718e-07
1.49304e-07
-7.28271e-07
1.515e-07
-7.74109e-07
1.52832e-07
-8.19116e-07
1.53349e-07
-8.63217e-07
1.53121e-07
-9.06369e-07
1.52229e-07
-9.48553e-07
1.50762e-07
-9.89768e-07
1.48811e-07
-1.03002e-06
1.46463e-07
-1.06932e-06
1.438e-07
-1.10767e-06
1.40893e-07
-1.1451e-06
1.37803e-07
-1.18161e-06
1.3458e-07
-1.21722e-06
1.31265e-07
-1.25195e-06
1.27893e-07
-1.2858e-06
1.24489e-07
-1.31879e-06
1.21072e-07
-1.35092e-06
1.17657e-07
-1.3822e-06
1.14251e-07
-1.41262e-06
1.10862e-07
-1.44218e-06
1.07491e-07
-1.47089e-06
1.04138e-07
-1.49873e-06
1.00802e-07
-1.5257e-06
9.74795e-08
-1.55179e-06
9.41673e-08
-1.577e-06
9.08614e-08
-1.60131e-06
8.75574e-08
-1.62471e-06
8.42515e-08
-1.64719e-06
8.09397e-08
-1.66874e-06
7.76184e-08
-1.68935e-06
7.42847e-08
-1.70901e-06
7.0936e-08
-1.7277e-06
6.75701e-08
-1.74541e-06
6.41856e-08
-1.76213e-06
6.07813e-08
-1.77786e-06
5.73567e-08
-1.79257e-06
5.39117e-08
-1.80625e-06
5.04466e-08
-1.81891e-06
4.6962e-08
-1.83053e-06
4.34589e-08
-1.8411e-06
3.99387e-08
-1.85062e-06
3.64028e-08
-1.85908e-06
3.28531e-08
-1.86647e-06
2.92915e-08
-1.87281e-06
2.57204e-08
-1.87809e-06
2.21424e-08
-1.8823e-06
1.85609e-08
-1.88547e-06
1.498e-08
-1.88761e-06
1.1405e-08
-1.88871e-06
7.84276e-09
-1.88881e-06
4.30228e-09
-1.8879e-06
7.93543e-10
-1.88597e-06
-2.67329e-09
-1.88302e-06
-6.10384e-09
-1.87899e-06
-9.50478e-09
-1.87389e-06
-1.28868e-08
-1.86771e-06
-1.62524e-08
-1.86045e-06
-1.96017e-08
-1.85212e-06
-2.29334e-08
-1.84271e-06
-2.6246e-08
-1.83224e-06
-2.95376e-08
-1.82071e-06
-3.28062e-08
-1.80813e-06
-3.60496e-08
-1.79451e-06
-3.92657e-08
-1.77986e-06
-4.24526e-08
-1.76418e-06
-4.56083e-08
-1.74748e-06
-4.87308e-08
-1.72979e-06
-5.18183e-08
-1.7111e-06
-5.48692e-08
-1.69144e-06
-5.78819e-08
-1.67081e-06
-6.08548e-08
-1.64922e-06
-6.37865e-08
-1.6267e-06
-6.66756e-08
-1.60325e-06
-6.95208e-08
-1.57889e-06
-7.23208e-08
-1.55364e-06
-7.50742e-08
-1.52751e-06
-7.77799e-08
-1.50051e-06
-8.04365e-08
-1.47266e-06
-8.30428e-08
-1.44399e-06
-8.55974e-08
-1.4145e-06
-8.80992e-08
-1.38421e-06
-9.05469e-08
-1.35315e-06
-9.29392e-08
-1.32133e-06
-9.52748e-08
-1.28876e-06
-9.75525e-08
-1.25548e-06
-9.97707e-08
-1.22149e-06
-1.01928e-07
-1.18683e-06
-1.04023e-07
-1.1515e-06
-1.06054e-07
-1.11553e-06
-1.0802e-07
-1.07895e-06
-1.09919e-07
-1.04178e-06
-1.1175e-07
-1.00403e-06
-1.13511e-07
-9.65735e-07
-1.152e-07
-9.26916e-07
-1.16816e-07
-8.87599e-07
-1.18357e-07
-8.47807e-07
-1.19822e-07
-8.07567e-07
-1.21209e-07
-7.66905e-07
-1.22517e-07
-7.25846e-07
-1.23744e-07
-6.84419e-07
-1.24889e-07
-6.42649e-07
-1.25951e-07
-6.00566e-07
-1.26928e-07
-5.58197e-07
-1.27819e-07
-5.1557e-07
-1.28625e-07
-4.72715e-07
-1.29342e-07
-4.2966e-07
-1.29971e-07
-3.86435e-07
-1.30512e-07
-3.43068e-07
-1.30962e-07
-2.9959e-07
-1.31323e-07
-2.56029e-07
-1.31594e-07
-2.12416e-07
-1.31774e-07
-1.68781e-07
-1.31863e-07
-1.25152e-07
-1.31861e-07
-8.15608e-08
-1.31767e-07
-3.80357e-08
-1.3158e-07
5.39351e-09
-1.31301e-07
4.86962e-08
-1.30926e-07
9.18428e-08
-1.30455e-07
1.34805e-07
-1.29888e-07
1.77554e-07
-1.29226e-07
2.20069e-07
-1.28476e-07
2.62331e-07
-1.27647e-07
3.04328e-07
-1.26745e-07
3.4604e-07
-1.2577e-07
3.87439e-07
-1.24734e-07
4.28502e-07
-1.23648e-07
4.69206e-07
-1.22519e-07
5.09535e-07
-1.21348e-07
5.49471e-07
-1.20137e-07
5.89002e-07
-1.18887e-07
6.28113e-07
-1.17601e-07
6.66794e-07
-1.16282e-07
7.05035e-07
-1.14932e-07
7.42825e-07
-1.13555e-07
7.80158e-07
-1.12155e-07
8.17027e-07
-1.10735e-07
8.53427e-07
-1.09298e-07
8.89354e-07
-1.07849e-07
9.24804e-07
-1.06391e-07
9.59777e-07
-1.04925e-07
9.94269e-07
-1.03455e-07
1.02828e-06
-1.01979e-07
1.06181e-06
-1.00497e-07
1.09485e-06
-9.90029e-08
1.1274e-06
-9.74892e-08
1.15945e-06
-9.59407e-08
1.19097e-06
-9.43337e-08
1.22194e-06
-9.2631e-08
1.25231e-06
-9.07741e-08
1.282e-06
-8.86712e-08
1.31089e-06
-8.61733e-08
1.33878e-06
-8.30331e-08
1.36538e-06
-7.88118e-08
1.39021e-06
-7.27223e-08
1.41257e-06
-6.31304e-08
1.43162e-06
-4.72138e-08
1.44786e-06
-1.75978e-08
3.66378e-08
1.4649e-06
-1.09077e-08
-2.95356e-08
-2.80745e-08
-1.05091e-08
-4.74121e-08
7.51824e-09
-6.83228e-08
2.37215e-08
-9.0779e-08
3.87976e-08
-1.1486e-07
5.30088e-08
-1.40705e-07
6.64453e-08
-1.68464e-07
7.91408e-08
-1.98262e-07
9.11306e-08
-2.30152e-07
1.02472e-07
-2.64081e-07
1.13236e-07
-2.99893e-07
1.23481e-07
-3.37343e-07
1.3323e-07
-3.76131e-07
1.42463e-07
-4.15925e-07
1.51118e-07
-4.56391e-07
1.59107e-07
-4.97209e-07
1.66329e-07
-5.38093e-07
1.72693e-07
-5.78799e-07
1.78123e-07
-6.19127e-07
1.82572e-07
-6.58931e-07
1.86021e-07
-6.98109e-07
1.88481e-07
-7.366e-07
1.89991e-07
-7.74378e-07
1.9061e-07
-8.11444e-07
1.90414e-07
-8.47812e-07
1.89489e-07
-8.8351e-07
1.87927e-07
-9.18566e-07
1.85819e-07
-9.5301e-07
1.83254e-07
-9.86863e-07
1.80316e-07
-1.02014e-06
1.77078e-07
-1.05286e-06
1.73607e-07
-1.08501e-06
1.69957e-07
-1.1166e-06
1.66174e-07
-1.14763e-06
1.62296e-07
-1.17809e-06
1.58353e-07
-1.20797e-06
1.54367e-07
-1.23725e-06
1.50355e-07
-1.26593e-06
1.46331e-07
-1.29398e-06
1.423e-07
-1.32138e-06
1.38268e-07
-1.34813e-06
1.34235e-07
-1.37419e-06
1.30203e-07
-1.39956e-06
1.26168e-07
-1.42421e-06
1.22128e-07
-1.44812e-06
1.18079e-07
-1.47127e-06
1.14017e-07
-1.49365e-06
1.09938e-07
-1.51524e-06
1.05838e-07
-1.53601e-06
1.01714e-07
-1.55596e-06
9.75622e-08
-1.57505e-06
9.33804e-08
-1.59328e-06
8.91661e-08
-1.61063e-06
8.49181e-08
-1.62708e-06
8.06352e-08
-1.64262e-06
7.63171e-08
-1.65722e-06
7.1964e-08
-1.67089e-06
6.75768e-08
-1.6836e-06
6.31565e-08
-1.69534e-06
5.8705e-08
-1.70611e-06
5.42243e-08
-1.71589e-06
4.9717e-08
-1.72467e-06
4.51859e-08
-1.73245e-06
4.06343e-08
-1.73922e-06
3.60658e-08
-1.74499e-06
3.14843e-08
-1.74974e-06
2.6894e-08
-1.75348e-06
2.22999e-08
-1.75621e-06
1.77074e-08
-1.75792e-06
1.31224e-08
-1.75863e-06
8.55125e-09
-1.75833e-06
4.00066e-09
-1.75701e-06
-5.23884e-10
-1.75467e-06
-5.01886e-09
-1.75128e-06
-9.48643e-09
-1.74686e-06
-1.39318e-08
-1.74139e-06
-1.83588e-08
-1.73487e-06
-2.27683e-08
-1.72731e-06
-2.71589e-08
-1.71872e-06
-3.15287e-08
-1.70909e-06
-3.58749e-08
-1.69843e-06
-4.01947e-08
-1.68675e-06
-4.44853e-08
-1.67406e-06
-4.87436e-08
-1.66036e-06
-5.2967e-08
-1.64566e-06
-5.71525e-08
-1.62997e-06
-6.12976e-08
-1.6133e-06
-6.53996e-08
-1.59566e-06
-6.94563e-08
-1.57706e-06
-7.34653e-08
-1.55752e-06
-7.74245e-08
-1.53705e-06
-8.13318e-08
-1.51565e-06
-8.51853e-08
-1.49334e-06
-8.89832e-08
-1.47014e-06
-9.27236e-08
-1.44605e-06
-9.64048e-08
-1.4211e-06
-1.00025e-07
-1.3953e-06
-1.03583e-07
-1.36866e-06
-1.07076e-07
-1.3412e-06
-1.10503e-07
-1.31293e-06
-1.13863e-07
-1.28388e-06
-1.17153e-07
-1.25405e-06