/*--------------------------------*- C++ -*----------------------------------*\
| =========                 |                                                 |
| \\      /  F ield         | OpenFOAM: The Open Source CFD Toolbox           |
|  \\    /   O peration     | Version:  2412                                  |
|   \\  /    A nd           | Website:  www.openfoam.com                      |
|    \\/     M anipulation  |                                                 |
\*---------------------------------------------------------------------------*/
FoamFile
{
    version     2.0;
    format      ascii;
    arch        "LSB;label=32;scalar=64";
    class       volVectorField;
    location    "0.22";
    object      U;
}
// * * * * * * * * * * * * * * * * * * * * * * * * * * * * * * * * * * * * * //

dimensions      [0 1 -1 0 0 0 0];

internalField   nonuniform List<vector> 
12225
(
(0.377183 -0.200896 0)
(0.543962 -0.0519273 0)
(0.71105 -0.0340153 0)
(0.893986 -0.0304778 0)
(1.05912 -0.0297484 0)
(1.20887 -0.0284543 0)
(1.34619 -0.0265204 0)
(1.4705 -0.024578 0)
(1.58226 -0.0227691 0)
(1.68274 -0.021077 0)
(1.77311 -0.019499 0)
(1.85433 -0.018027 0)
(1.92722 -0.0166396 0)
(1.99246 -0.0152949 0)
(2.0504 -0.0139687 0)
(2.10191 -0.0125093 0)
(2.14312 -0.0103457 0)
(2.19072 -0.0128381 0)
(0.933503 -0.0317784 0)
(1.0567 -0.0587108 0)
(1.23664 -0.0689015 0)
(1.42156 -0.0644867 0)
(1.58554 -0.0618152 0)
(1.73444 -0.0589697 0)
(1.87134 -0.0555682 0)
(1.99607 -0.0521816 0)
(2.10908 -0.0489401 0)
(2.21143 -0.0458513 0)
(2.30409 -0.0429295 0)
(2.3879 -0.0401605 0)
(2.46359 -0.0375022 0)
(2.53179 -0.0348754 0)
(2.59291 -0.0322192 0)
(2.64729 -0.0290846 0)
(2.69445 -0.0260718 0)
(2.73634 -0.0159083 0)
(1.39962 -0.084682 0)
(1.49179 -0.105678 0)
(1.65466 -0.107239 0)
(1.82261 -0.101943 0)
(1.97269 -0.0979925 0)
(2.11039 -0.093656 0)
(2.23778 -0.088745 0)
(2.35452 -0.0838027 0)
(2.46098 -0.0790019 0)
(2.55792 -0.0743889 0)
(2.64609 -0.0699893 0)
(2.72618 -0.0657841 0)
(2.7988 -0.0617138 0)
(2.86448 -0.0576714 0)
(2.92361 -0.0535252 0)
(2.97642 -0.0488539 0)
(3.02311 -0.0436319 0)
(3.06295 -0.0341106 0)
(1.89741 -0.115425 0)
(1.94623 -0.14331 0)
(2.07521 -0.144985 0)
(2.21748 -0.14077 0)
(2.34799 -0.135783 0)
(2.46975 -0.13005 0)
(2.58354 -0.123701 0)
(2.6887 -0.117215 0)
(2.78528 -0.110829 0)
(2.87377 -0.104646 0)
(2.95466 -0.0987071 0)
(3.02847 -0.0929949 0)
(3.09565 -0.0874382 0)
(3.15662 -0.0819072 0)
(3.21175 -0.0762203 0)
(3.26118 -0.0699543 0)
(3.30547 -0.0628175 0)
(3.34307 -0.0518076 0)
(2.43108 -0.125831 0)
(2.44051 -0.169894 0)
(2.52881 -0.177415 0)
(2.64003 -0.176176 0)
(2.74682 -0.171236 0)
(2.84904 -0.164737 0)
(2.94619 -0.157385 0)
(3.03704 -0.149687 0)
(3.12129 -0.141974 0)
(3.19909 -0.134419 0)
(3.27066 -0.127095 0)
(3.33631 -0.119996 0)
(3.39635 -0.11305 0)
(3.45107 -0.106116 0)
(3.50077 -0.0989853 0)
(3.54557 -0.0912485 0)
(3.58629 -0.0824711 0)
(3.62088 -0.0703812 0)
(2.99683 -0.123685 0)
(2.97697 -0.185373 0)
(3.02469 -0.201465 0)
(3.10203 -0.204958 0)
(3.18211 -0.201582 0)
(3.26198 -0.195266 0)
(3.33997 -0.187564 0)
(3.41426 -0.179175 0)
(3.48411 -0.170556 0)
(3.5493 -0.161974 0)
(3.60981 -0.15355 0)
(3.66571 -0.145305 0)
(3.71714 -0.137179 0)
(3.76427 -0.129037 0)
(3.80732 -0.120663 0)
(3.84637 -0.111688 0)
(3.88243 -0.101659 0)
(3.91295 -0.0889931 0)
(3.58832 -0.11451 0)
(3.55089 -0.190588 0)
(3.56321 -0.215899 0)
(3.60679 -0.225325 0)
(3.65875 -0.225016 0)
(3.71445 -0.21997 0)
(3.77142 -0.212698 0)
(3.82738 -0.204242 0)
(3.88113 -0.195232 0)
(3.93213 -0.186053 0)
(3.98008 -0.176894 0)
(4.02484 -0.167817 0)
(4.06637 -0.158791 0)
(4.10472 -0.1497 0)
(4.14002 -0.140347 0)
(4.1723 -0.130426 0)
(4.20264 -0.119542 0)
(4.22799 -0.106662 0)
(4.1988 -0.101769 0)
(4.15397 -0.187081 0)
(4.13919 -0.220714 0)
(4.15218 -0.236319 0)
(4.17669 -0.240151 0)
(4.20778 -0.237406 0)
(4.24284 -0.231377 0)
(4.27936 -0.223535 0)
(4.31586 -0.214711 0)
(4.35149 -0.205425 0)
(4.38573 -0.195956 0)
(4.41823 -0.186422 0)
(4.4488 -0.176832 0)
(4.47736 -0.167108 0)
(4.50396 -0.157093 0)
(4.52854 -0.146553 0)
(4.5522 -0.135194 0)
(4.57135 -0.122384 0)
(4.82185 -0.0878116 0)
(4.77662 -0.176882 0)
(4.7439 -0.216853 0)
(4.7319 -0.23784 0)
(4.73179 -0.246139 0)
(4.73957 -0.246423 0)
(4.75306 -0.242348 0)
(4.77001 -0.23577 0)
(4.78882 -0.227719 0)
(4.80849 -0.218845 0)
(4.82833 -0.209527 0)
(4.84785 -0.199953 0)
(4.86672 -0.190184 0)
(4.88475 -0.180189 0)
(4.90189 -0.169866 0)
(4.91802 -0.159061 0)
(4.93419 -0.147589 0)
(4.94629 -0.135106 0)
(5.45146 -0.0741122 0)
(5.4095 -0.162018 0)
(5.36682 -0.205839 0)
(5.33653 -0.230659 0)
(5.31636 -0.242916 0)
(5.30385 -0.246436 0)
(5.29761 -0.24475 0)
(5.29602 -0.239933 0)
(5.29768 -0.233161 0)
(5.30158 -0.225187 0)
(5.30698 -0.216476 0)
(5.31332 -0.207286 0)
(5.32019 -0.197739 0)
(5.32731 -0.187858 0)
(5.33456 -0.177603 0)
(5.34175 -0.166893 0)
(5.34986 -0.155657 0)
(5.35429 -0.143741 0)
(6.08167 -0.061398 0)
(6.04411 -0.14418 0)
(5.99714 -0.189331 0)
(5.95493 -0.216176 0)
(5.92006 -0.231264 0)
(5.89156 -0.237642 0)
(5.86883 -0.238363 0)
(5.85101 -0.235518 0)
(5.83713 -0.230341 0)
(5.82638 -0.223628 0)
(5.81808 -0.215901 0)
(5.81171 -0.207475 0)
(5.80684 -0.198524 0)
(5.80316 -0.189128 0)
(5.80051 -0.179302 0)
(5.79861 -0.169036 0)
(5.79843 -0.158352 0)
(5.79489 -0.147228 0)
(6.65461 -0.0506065 0)
(6.62055 -0.126206 0)
(6.57304 -0.170585 0)
(6.52478 -0.197772 0)
(6.48114 -0.214232 0)
(6.44231 -0.22249 0)
(6.40816 -0.225045 0)
(6.37843 -0.223867 0)
(6.35265 -0.220174 0)
(6.3303 -0.214748 0)
(6.31087 -0.208117 0)
(6.29393 -0.200625 0)
(6.27912 -0.192481 0)
(6.26614 -0.183802 0)
(6.25484 -0.174649 0)
(6.24489 -0.165063 0)
(6.23727 -0.155103 0)
(6.2265 -0.144944 0)
(7.20973 -0.0406593 0)
(7.18016 -0.107394 0)
(7.13447 -0.149608 0)
(7.08343 -0.17614 0)
(7.03445 -0.192978 0)
(6.98882 -0.202357 0)
(6.94661 -0.206237 0)
(6.90799 -0.206391 0)
(6.87292 -0.203992 0)
(6.84119 -0.199782 0)
(6.81249 -0.194265 0)
(6.78655 -0.187787 0)
(6.7631 -0.180572 0)
(6.7419 -0.172763 0)
(6.72282 -0.164452 0)
(6.70555 -0.155718 0)
(6.69101 -0.14663 0)
(6.67359 -0.137574 0)
(7.81811 -0.0310707 0)
(7.79338 -0.0861289 0)
(7.75173 -0.123846 0)
(7.70083 -0.148304 0)
(7.64927 -0.164342 0)
(7.59954 -0.173975 0)
(7.552 -0.178628 0)
(7.50699 -0.179747 0)
(7.46482 -0.178415 0)
(7.42557 -0.175321 0)
(7.38916 -0.170925 0)
(7.35546 -0.165549 0)
(7.32434 -0.159415 0)
(7.29566 -0.152677 0)
(7.26935 -0.145444 0)
(7.24513 -0.137813 0)
(7.22386 -0.129876 0)
(7.20005 -0.122103 0)
(8.45855 -0.022297 0)
(8.43893 -0.0637687 0)
(8.40342 -0.0942543 0)
(8.35609 -0.114674 0)
(8.30536 -0.128319 0)
(8.25484 -0.136929 0)
(8.20527 -0.141474 0)
(8.15715 -0.142954 0)
(8.11103 -0.142245 0)
(8.06721 -0.13995 0)
(8.02583 -0.136469 0)
(7.98687 -0.132084 0)
(7.95033 -0.127002 0)
(7.91616 -0.121375 0)
(7.88434 -0.115316 0)
(7.85468 -0.108926 0)
(7.82796 -0.102301 0)
(7.7991 -0.0959307 0)
(9.08866 -0.0143729 0)
(9.07383 -0.041741 0)
(9.04561 -0.0628525 0)
(9.00497 -0.0772002 0)
(8.95897 -0.0866303 0)
(8.91168 -0.092513 0)
(8.8642 -0.0955402 0)
(8.81707 -0.0963227 0)
(8.77098 -0.0954547 0)
(8.72646 -0.0933831 0)
(8.6838 -0.0904051 0)
(8.64314 -0.0867309 0)
(8.60455 -0.0825208 0)
(8.56806 -0.0778998 0)
(8.53371 -0.0729691 0)
(8.50136 -0.0678244 0)
(8.47173 -0.0625345 0)
(8.44049 -0.0576075 0)
(9.63295 -0.00707521 0)
(9.6217 -0.0207131 0)
(9.59988 -0.0314072 0)
(9.5666 -0.0383944 0)
(9.52747 -0.0424358 0)
(9.48645 -0.0443632 0)
(9.44473 -0.044627 0)
(9.40276 -0.043566 0)
(9.36113 -0.0415232 0)
(9.32041 -0.038782 0)
(9.28097 -0.035538 0)
(9.24301 -0.0319285 0)
(9.20664 -0.0280612 0)
(9.17195 -0.024027 0)
(9.13903 -0.0198992 0)
(9.10777 -0.0157582 0)
(9.07875 -0.011618 0)
(9.04896 -0.00797253 0)
(9.96404 0.000105594 0)
(9.95459 0.00015779 0)
(9.93649 0.000614325 0)
(9.90812 0.0018576 0)
(9.87423 0.00379966 0)
(9.83859 0.00624912 0)
(9.80247 0.00910156 0)
(9.76622 0.0122854 0)
(9.7303 0.0157164 0)
(9.6952 0.0193138 0)
(9.66123 0.0230152 0)
(9.62855 0.0267707 0)
(9.59722 0.0305346 0)
(9.56729 0.0342587 0)
(9.53877 0.0379008 0)
(9.51163 0.0413971 0)
(9.48602 0.0447724 0)
(9.46096 0.0476111 0)
(9.87499 0.00747219 0)
(9.86688 0.0217945 0)
(9.84987 0.0342061 0)
(9.82249 0.0444043 0)
(9.78959 0.0528131 0)
(9.75498 0.0599151 0)
(9.71993 0.0660072 0)
(9.68483 0.0713045 0)
(9.65015 0.0760039 0)
(9.61637 0.0802644 0)
(9.58382 0.0841938 0)
(9.55264 0.0878601 0)
(9.52288 0.0913059 0)
(9.49458 0.0945541 0)
(9.4677 0.0976136 0)
(9.44226 0.100466 0)
(9.41798 0.103149 0)
(9.39592 0.105382 0)
(9.28437 0.0159175 0)
(9.27065 0.046195 0)
(9.24578 0.0711785 0)
(9.2098 0.0904001 0)
(9.16897 0.105219 0)
(9.12725 0.116838 0)
(9.08575 0.125939 0)
(9.04487 0.133063 0)
(9.00515 0.138724 0)
(8.96708 0.143326 0)
(8.93093 0.147147 0)
(8.89677 0.150378 0)
(8.86461 0.153157 0)
(8.83443 0.155585 0)
(8.80613 0.157733 0)
(8.77971 0.159649 0)
(8.75465 0.161383 0)
(8.73298 0.162789 0)
(8.47101 0.0260897 0)
(8.45236 0.0738065 0)
(8.4197 0.110345 0)
(8.37625 0.136879 0)
(8.32995 0.156528 0)
(8.28453 0.171138 0)
(8.24068 0.181744 0)
(8.19874 0.189303 0)
(8.15918 0.194675 0)
(8.12228 0.198486 0)
(8.0881 0.201162 0)
(8.05656 0.203011 0)
(8.02755 0.204263 0)
(8.00092 0.205088 0)
(7.97651 0.205611 0)
(7.95421 0.205931 0)
(7.93349 0.206105 0)
(7.91639 0.206092 0)
(7.51239 0.0385231 0)
(7.4866 0.104503 0)
(7.44644 0.150227 0)
(7.39953 0.181355 0)
(7.35393 0.203334 0)
(7.3118 0.21846 0)
(7.27313 0.228262 0)
(7.238 0.234279 0)
(7.20652 0.237722 0)
(7.17858 0.239394 0)
(7.15391 0.239836 0)
(7.13221 0.239438 0)
(7.11319 0.238486 0)
(7.09659 0.237181 0)
(7.08212 0.235667 0)
(7.06959 0.234052 0)
(7.05849 0.232392 0)
(7.05055 0.230709 0)
(6.48931 0.0542249 0)
(6.45655 0.136902 0)
(6.41294 0.186949 0)
(6.37062 0.218553 0)
(6.33486 0.239389 0)
(6.30524 0.252037 0)
(6.28101 0.258739 0)
(6.26178 0.261576 0)
(6.24695 0.261934 0)
(6.23587 0.26067 0)
(6.22791 0.258362 0)
(6.22256 0.255425 0)
(6.21938 0.252143 0)
(6.21799 0.248706 0)
(6.21807 0.245244 0)
(6.2194 0.241846 0)
(6.22152 0.238558 0)
(6.22583 0.235435 0)
(5.45712 0.0733895 0)
(5.41829 0.166489 0)
(5.37867 0.214116 0)
(5.35275 0.241941 0)
(5.33861 0.258329 0)
(5.33243 0.266086 0)
(5.33266 0.26826 0)
(5.33803 0.267183 0)
(5.34716 0.264168 0)
(5.35896 0.260001 0)
(5.37267 0.255214 0)
(5.3877 0.250159 0)
(5.4036 0.245062 0)
(5.42003 0.240063 0)
(5.43674 0.235247 0)
(5.45356 0.230665 0)
(5.47016 0.226342 0)
(5.48767 0.22234 0)
(4.45282 0.0947772 0)
(4.41205 0.18741 0)
(4.39047 0.225933 0)
(4.39659 0.246393 0)
(4.41646 0.255916 0)
(4.44332 0.257819 0)
(4.47523 0.25557 0)
(4.5103 0.251183 0)
(4.54685 0.245639 0)
(4.58381 0.239535 0)
(4.62057 0.233265 0)
(4.65672 0.227074 0)
(4.69196 0.2211 0)
(4.72613 0.215421 0)
(4.75911 0.210074 0)
(4.79089 0.205074 0)
(4.82129 0.200424 0)
(4.85126 0.196187 0)
(3.50293 0.114452 0)
(3.47301 0.19292 0)
(3.48913 0.217647 0)
(3.54118 0.228886 0)
(3.60259 0.23146 0)
(3.66647 0.228826 0)
(3.73174 0.223821 0)
(3.7967 0.217711 0)
(3.85993 0.211101 0)
(3.92079 0.204388 0)
(3.97902 0.197826 0)
(4.03451 0.191556 0)
(4.08722 0.185648 0)
(4.1372 0.180131 0)
(4.18456 0.175007 0)
(4.22942 0.170267 0)
(4.2718 0.165897 0)
(4.31252 0.161971 0)
(2.62982 0.122983 0)
(2.63207 0.176388 0)
(2.70177 0.187969 0)
(2.80469 0.191084 0)
(2.90732 0.189111 0)
(3.00602 0.184593 0)
(3.10158 0.178919 0)
(3.19302 0.172734 0)
(3.27949 0.166441 0)
(3.36087 0.160293 0)
(3.4373 0.154435 0)
(3.509 0.148941 0)
(3.57621 0.143837 0)
(3.63922 0.139123 0)
(3.69831 0.134782 0)
(3.7538 0.130793 0)
(3.80584 0.127134 0)
(3.8552 0.123898 0)
(1.85178 0.104826 0)
(1.90638 0.134438 0)
(2.03033 0.141898 0)
(2.17813 0.140514 0)
(2.31586 0.137037 0)
(2.44341 0.132921 0)
(2.56365 0.128102 0)
(2.67647 0.12299 0)
(2.78153 0.117943 0)
(2.87913 0.113117 0)
(2.9698 0.108582 0)
(3.05406 0.104376 0)
(3.13241 0.100502 0)
(3.20535 0.0969491 0)
(3.27334 0.0936952 0)
(3.33681 0.0907174 0)
(3.39608 0.0879801 0)
(3.4519 0.0855905 0)
(1.17533 0.04169 0)
(1.28238 0.0661057 0)
(1.43868 0.0889869 0)
(1.61659 0.0891772 0)
(1.78034 0.0862303 0)
(1.92915 0.0833315 0)
(2.06741 0.0798341 0)
(2.19582 0.0761179 0)
(2.3143 0.0725283 0)
(2.42341 0.0691496 0)
(2.52404 0.0660072 0)
(2.61696 0.0631166 0)
(2.70289 0.0604746 0)
(2.78249 0.0580647 0)
(2.85635 0.0558667 0)
(2.92502 0.0538636 0)
(2.98893 0.0519936 0)
(3.04879 0.050356 0)
(0.469485 0.226529 0)
(0.642364 0.069163 0)
(0.788938 0.0480257 0)
(0.972452 0.0444103 0)
(1.14912 0.0429721 0)
(1.30915 0.0416793 0)
(1.45686 0.0396465 0)
(1.59324 0.0373312 0)
(1.71807 0.0351131 0)
(1.83212 0.0330652 0)
(1.93655 0.031183 0)
(2.0324 0.0294645 0)
(2.12054 0.0279032 0)
(2.20175 0.0264863 0)
(2.27674 0.0251977 0)
(2.34613 0.0240304 0)
(2.41045 0.0229312 0)
(2.47 0.021979 0)
(0.0087698 -0.0182586 -2.69138e-20)
(0.0276871 -0.029816 2.6264e-20)
(0.0470709 -0.0304772 0)
(0.0630776 -0.0254166 0)
(0.0733782 -0.0175955 0)
(0.0778347 -0.00892228 -2.46619e-20)
(0.0762472 -0.000814723 0)
(0.0697743 0.0056444 0)
(0.0596221 0.0101065 0)
(0.0466496 0.0129001 0)
(0.0314624 0.0146633 2.41399e-20)
(0.0143626 0.0159955 0)
(-0.00459236 0.0173184 0)
(-0.025521 0.0188998 0)
(-0.0486514 0.020867 0)
(-0.0742028 0.0232306 2.27699e-20)
(-0.102359 0.0259361 0)
(-0.133247 0.0288997 0)
(-0.166926 0.0320231 0)
(-0.203378 0.0351987 0)
(-0.242512 0.038315 0)
(-0.28416 0.0412638 0)
(-0.328096 0.043948 0)
(-0.374037 0.0462874 1.93803e-20)
(-0.421666 0.0482237 -1.89964e-20)
(-0.470642 0.0497221 1.8629e-20)
(-0.520616 0.0507711 1.82791e-20)
(-0.57125 0.0513825 0)
(-0.622235 0.0515909 0)
(-0.673272 0.0514523 -1.73383e-20)
(-0.72407 0.0510336 -1.7059e-20)
(-0.774474 0.0503982 0)
(-0.824325 0.0495789 0)
(-0.873475 0.0486039 -1.63127e-20)
(-0.921806 0.0475046 0)
(-0.969227 0.0463105 0)
(-1.01567 0.0450476 1.56824e-20)
(-1.06107 0.0437383 0)
(-1.10539 0.042401 1.53116e-20)
(-1.14862 0.0410504 3.02758e-20)
(-1.19072 0.0396976 0)
(-1.2317 0.0383511 0)
(-1.27155 0.0370168 0)
(-1.31027 0.0356983 0)
(-1.34786 0.034398 0)
(-1.38432 0.0331168 2.84113e-20)
(-1.41966 0.0318549 2.8124e-20)
(-1.45388 0.0306117 2.78404e-20)
(-1.48698 0.0293863 0)
(-1.51896 0.0281776 -2.72801e-20)
(-1.54982 0.0269842 0)
(-1.57957 0.025805 2.67234e-20)
(-1.6082 0.0246388 2.64446e-20)
(-1.63569 0.0234844 0)
(-1.66206 0.022341 0)
(-1.6873 0.0212076 0)
(-1.71139 0.0200836 2.53109e-20)
(-1.73433 0.0189684 0)
(-1.75612 0.0178614 0)
(-1.77674 0.0167619 0)
(-1.79619 0.0156694 0)
(-1.81446 0.014583 0)
(-1.83155 0.0135016 0)
(-1.84744 0.0124237 0)
(-1.86213 0.0113472 0)
(-1.8756 0.0102695 -2.25196e-20)
(-1.88785 0.00918723 0)
(-1.89886 0.00809646 0)
(-1.90861 0.00699224 2.14822e-20)
(-1.91709 0.00586952 2.11227e-20)
(-1.92425 0.00472499 0)
(-1.93008 0.0035624 -2.0383e-20)
(-1.93454 0.00240154 2.0003e-20)
(-1.93756 0.00128233 0)
(-1.93908 0.000254155 -1.92198e-20)
(-1.93933 -0.000640108 0)
(-1.93849 -0.00142901 0)
(-1.93654 -0.00217279 1.7977e-20)
(-1.93351 -0.00289061 0)
(-1.92942 -0.00359081 -1.71071e-20)
(-1.92428 -0.00427655 0)
(-1.91809 -0.00494912 1.62041e-20)
(-1.91086 -0.00560896 1.57402e-20)
(-1.9026 -0.00625619 1.52683e-20)
(-1.8933 -0.00689077 2.95765e-20)
(-1.88298 -0.00751259 -2.86007e-20)
(-1.87165 -0.00812157 0)
(-1.85931 -0.00871759 0)
(-1.84597 -0.00930057 0)
(-1.83163 -0.00987044 -2.45441e-20)
(-1.81632 -0.0104272 -2.34932e-20)
(-1.80003 -0.0109707 2.24283e-20)
(-1.78278 -0.011501 0)
(-1.76458 -0.0120181 -2.0258e-20)
(-1.74544 -0.0125219 -1.91536e-20)
(-1.72537 -0.0130125 -1.80368e-20)
(-1.70439 -0.0134898 0)
(-1.6825 -0.0139539 0)
(-1.65972 -0.0144047 0)
(-1.63606 -0.0148423 -1.34567e-20)
(-1.61153 -0.0152666 0)
(-1.58615 -0.0156777 0)
(-1.55994 -0.0160755 9.91843e-21)
(-1.5329 -0.01646 0)
(-1.50505 -0.0168312 0)
(-1.47641 -0.0171891 6.30977e-21)
(-1.44699 -0.0175336 0)
(-1.41681 -0.0178647 0)
(-1.38589 -0.0181822 -2.6487e-21)
(-1.35425 -0.0184862 -1.42001e-21)
(-1.32189 -0.0187765 0)
(-1.28884 -0.0190532 -1.04538e-21)
(-1.25512 -0.019316 0)
(-1.22075 -0.0195649 3.51627e-21)
(-1.18575 -0.0197998 0)
(-1.15013 -0.0200206 5.98624e-21)
(-1.11393 -0.0202272 7.21883e-21)
(-1.07715 -0.0204196 0)
(-1.03983 -0.0205976 0)
(-1.00199 -0.0207611 0)
(-0.963638 -0.02091 0)
(-0.924814 -0.0210444 0)
(-0.885536 -0.0211641 0)
(-0.84583 -0.0212691 0)
(-0.805722 -0.0213594 1.69097e-20)
(-0.765235 -0.0214349 -1.80869e-20)
(-0.724398 -0.0214956 0)
(-0.683236 -0.0215416 0)
(-0.641776 -0.0215729 0)
(-0.600044 -0.0215894 0)
(-0.55807 -0.0215914 -4.75986e-20)
(-0.515879 -0.0215787 0)
(-0.4735 -0.0215515 5.19759e-20)
(-0.430962 -0.0215098 -5.41171e-20)
(-0.388292 -0.0214536 0)
(-0.34552 -0.0213829 0)
(-0.302674 -0.0212976 0)
(-0.259786 -0.0211972 6.23312e-20)
(-0.216885 -0.0210814 6.42905e-20)
(-0.174005 -0.0209485 0)
(-0.131178 -0.0207948 6.80879e-20)
(-0.0884371 -0.0206182 6.99242e-20)
(-0.045813 -0.0204155 -7.17182e-20)
(-0.00333478 -0.0201595 0)
(0.0389082 -0.019816 0)
(0.0809237 -0.0194341 -7.50493e-20)
(0.122695 -0.019057 0)
(0.164207 -0.0186892 0)
(0.20545 -0.0183282 0)
(0.246418 -0.0179715 0)
(0.287101 -0.0176178 7.78794e-20)
(0.327487 -0.0172665 7.83011e-20)
(0.367567 -0.0169173 0)
(0.407329 -0.0165703 7.90158e-20)
(0.446761 -0.0162257 0)
(0.485855 -0.0158839 0)
(0.524602 -0.0155453 7.9793e-20)
(0.562994 -0.0152102 0)
(0.601024 -0.014879 8.01341e-20)
(0.638688 -0.0145522 0)
(0.67598 -0.0142301 0)
(0.712898 -0.0139128 8.04103e-20)
(0.749439 -0.0136004 0)
(0.7856 -0.013293 8.04531e-20)
(0.82138 -0.0129901 0)
(0.856774 -0.0126912 0)
(0.891776 -0.0123952 0)
(0.926378 -0.0121001 -8.02448e-20)
(0.960561 -0.0118033 0)
(0.994299 -0.0115004 8.00147e-20)
(1.02755 -0.0111848 0)
(1.06023 -0.0108458 0)
(1.09225 -0.0104662 0)
(1.12339 -0.0100167 0)
(1.15336 -0.0094399 0)
(1.18144 -0.00862859 0)
(1.20692 -0.00726105 0)
(1.22515 -0.00455934 -1.58131e-19)
(1.23896 0.00259685 0)
(1.1929 0.0177151 0)
(0.00989509 -0.0584738 7.93286e-20)
(0.0222425 -0.0629685 -7.49524e-20)
(0.0265436 -0.0479029 0)
(0.025716 -0.0301831 4.46563e-20)
(0.0207419 -0.0126945 0)
(0.0122289 0.00352121 2.11383e-20)
(0.000842958 0.0177589 -4.1487e-20)
(-0.0135268 0.0296356 -4.0726e-20)
(-0.0309762 0.0392565 0)
(-0.0515413 0.0471366 -3.91621e-20)
(-0.0752251 0.0539464 -1.92273e-20)
(-0.101995 0.0602907 0)
(-0.131788 0.0665898 0)
(-0.164511 0.0730738 0)
(-0.200047 0.0798127 0)
(-0.238249 0.0867471 -1.73198e-20)
(-0.278932 0.0937343 0)
(-0.321864 0.10059 3.30468e-20)
(-0.366764 0.107119 0)
(-0.413312 0.113134 0)
(-0.461161 0.118472 -3.09121e-20)
(-0.509949 0.123003 0)
(-0.559319 0.126637 2.96049e-20)
(-0.608929 0.129327 -1.45395e-20)
(-0.658467 0.131066 1.42478e-20)
(-0.707657 0.131886 -1.3972e-20)
(-0.756267 0.131848 -1.37119e-20)
(-0.804108 0.131035 0)
(-0.851038 0.129551 0)
(-0.896949 0.12751 1.30227e-20)
(-0.941762 0.125033 -1.27519e-20)
(-0.985419 0.122221 0)
(-1.02788 0.119153 0)
(-1.06914 0.115896 1.22812e-20)
(-1.10918 0.112509 0)
(-1.14803 0.109041 0)
(-1.18569 0.105533 -1.18213e-20)
(-1.22221 0.102018 0)
(-1.2576 0.0985215 1.14755e-20)
(-1.29188 0.0950614 -2.28353e-20)
(-1.32508 0.0916508 0)
(-1.35723 0.0882978 0)
(-1.38834 0.0850068 -4.40624e-20)
(-1.41844 0.0817793 -4.3598e-20)
(-1.44753 0.0786149 -4.31423e-20)
(-1.47562 0.0755116 2.12769e-20)
(-1.50273 0.0724661 -2.11941e-20)
(-1.52887 0.0694751 -6.27849e-20)
(-1.55403 0.0665346 4.13755e-20)
(-1.57822 0.0636408 2.05347e-20)
(-1.60144 0.0607901 0)
(-1.62368 0.057979 -2.00964e-20)
(-1.64496 0.0552045 1.97603e-20)
(-1.66526 0.052464 0)
(-1.68457 0.0497554 0)
(-1.7029 0.0470769 0)
(-1.72024 0.044427 -1.89772e-20)
(-1.73659 0.0418048 0)
(-1.75193 0.0392093 3.69427e-20)
(-1.76626 0.0366403 0)
(-1.77958 0.0340971 3.5999e-20)
(-1.79189 0.0315796 0)
(-1.80316 0.0290874 -3.50252e-20)
(-1.81342 0.0266202 0)
(-1.82264 0.0241772 3.40178e-20)
(-1.83083 0.0217577 -1.67344e-20)
(-1.83798 0.0193603 0)
(-1.8441 0.0169836 -3.24382e-20)
(-1.8492 0.0146258 -1.59505e-20)
(-1.85328 0.0122847 -1.56686e-20)
(-1.85637 0.00995831 0)
(-1.8585 0.00764676 -1.51052e-20)
(-1.85971 0.00536171 -1.47933e-20)
(-1.86009 0.00313632 0)
(-1.85972 0.00101678 1.41795e-20)
(-1.85848 -0.000975715 -2.77686e-20)
(-1.85623 -0.00286565 0)
(-1.85296 -0.00469022 -1.32159e-20)
(-1.84866 -0.00646484 0)
(-1.84334 -0.00819783 3.77148e-20)
(-1.83699 -0.00989258 0)
(-1.82961 -0.0115504 -3.56622e-20)
(-1.8212 -0.0131716 -1.15057e-20)
(-1.81178 -0.014756 1.12515e-20)
(-1.80134 -0.0163034 2.17933e-20)
(-1.7899 -0.0178135 -2.10734e-20)
(-1.77745 -0.0192858 0)
(-1.76401 -0.0207201 0)
(-1.74959 -0.0221163 0)
(-1.73419 -0.0234741 5.3709e-20)
(-1.71783 -0.0247934 1.70252e-20)
(-1.7005 -0.0260743 -1.62367e-20)
(-1.68223 -0.0273166 0)
(-1.66301 -0.0285204 -1.49807e-20)
(-1.64288 -0.0296859 1.38238e-20)
(-1.62182 -0.030813 1.30049e-20)
(-1.59986 -0.0319019 0)
(-1.577 -0.0329526 0)
(-1.55327 -0.0339654 0)
(-1.52867 -0.0349402 9.66509e-21)
(-1.50321 -0.0358774 0)
(-1.47691 -0.0367769 -1.63586e-20)
(-1.44979 -0.037639 -2.17557e-20)
(-1.42185 -0.0384638 1.29364e-20)
(-1.39312 -0.0392515 0)
(-1.3636 -0.0400021 4.9773e-21)
(-1.33332 -0.0407158 0)
(-1.30228 -0.0413926 6.01036e-21)
(-1.27051 -0.0420326 -2.38004e-21)
(-1.23803 -0.0426359 -1.51053e-21)
(-1.20484 -0.0432025 0)
(-1.17098 -0.0437326 1.71726e-21)
(-1.13645 -0.0442262 -2.72207e-21)
(-1.10128 -0.0446833 -2.49551e-21)
(-1.06549 -0.0451041 0)
(-1.02909 -0.0454884 -4.24228e-21)
(-0.992112 -0.0458365 -1.48016e-20)
(-0.954575 -0.0461484 0)
(-0.9165 -0.0464243 -1.31438e-20)
(-0.87791 -0.0466642 -1.486e-20)
(-0.838827 -0.0468683 -1.65674e-20)
(-0.799277 -0.0470367 0)
(-0.759281 -0.0471698 0)
(-0.718867 -0.0472677 0)
(-0.678058 -0.0473307 1.13696e-20)
(-0.63688 -0.0473591 1.27423e-20)
(-0.595359 -0.0473533 0)
(-0.553522 -0.0473136 2.81853e-20)
(-0.511395 -0.0472406 2.9785e-20)
(-0.469005 -0.0471346 0)
(-0.426379 -0.0469961 3.34706e-20)
(-0.383545 -0.0468257 6.89458e-20)
(-0.340531 -0.0466238 -3.65301e-20)
(-0.297364 -0.0463909 -3.69654e-20)
(-0.254072 -0.0461276 0)
(-0.210685 -0.0458339 0)
(-0.167231 -0.0455102 0)
(-0.123739 -0.045156 -4.37825e-20)
(-0.0802378 -0.0447701 4.41447e-20)
(-0.0367585 -0.0443515 9.20164e-20)
(0.0066689 -0.0438982 -4.76917e-20)
(0.0500128 -0.0434095 4.76532e-20)
(0.0932451 -0.04289 4.94372e-20)
(0.136339 -0.0423419 0)
(0.179267 -0.0417521 0)
(0.22202 -0.0411283 -5.08517e-20)
(0.264575 -0.0404932 0)
(0.306911 -0.0398565 0)
(0.34901 -0.0392195 1.06718e-19)
(0.390858 -0.0385815 0)
(0.432439 -0.0379417 5.41802e-20)
(0.473742 -0.0372999 -5.54997e-20)
(0.514753 -0.0366564 0)
(0.555461 -0.0360117 5.57872e-20)
(0.595854 -0.0353668 0)
(0.635924 -0.0347227 0)
(0.675661 -0.0340803 -5.77783e-20)
(0.715059 -0.0334408 1.1567e-19)
(0.75411 -0.0328053 -5.84963e-20)
(0.79281 -0.0321747 0)
(0.831154 -0.03155 0)
(0.86914 -0.0309317 5.88284e-20)
(0.906766 -0.0303204 0)
(0.94403 -0.0297159 5.93392e-20)
(0.980928 -0.0291177 0)
(1.01746 -0.0285244 0)
(1.05362 -0.0279337 0)
(1.08939 -0.0273414 6.05619e-20)
(1.12477 -0.0267411 0)
(1.15972 -0.0261228 -6.07982e-20)
(1.1942 -0.025471 0)
(1.22815 -0.024761 0)
(1.26145 -0.0239525 1.21703e-19)
(1.29392 -0.0229772 -1.21851e-19)
(1.32527 -0.0217053 0)
(1.35495 -0.0198944 0)
(1.38233 -0.0169082 0)
(1.4047 -0.0115656 3.69209e-19)
(1.42468 0.000768636 0)
(1.42706 0.0256373 -2.4975e-19)
(0.00339957 -0.0799624 -9.97468e-23)
(0.00208724 -0.0632292 9.63585e-20)
(-0.00599849 -0.0362188 0)
(-0.0168907 -0.0110094 -8.09525e-20)
(-0.0303795 0.0120406 0)
(-0.0461603 0.0329456 0)
(-0.0641536 0.0517758 3.76661e-23)
(-0.0844381 0.0685949 3.4502e-20)
(-0.107176 0.0835594 3.36586e-20)
(-0.132516 0.0969917 3.29496e-20)
(-0.160532 0.109318 0)
(-0.191187 0.120948 0)
(-0.224349 0.132174 -3.07573e-20)
(-0.259805 0.14313 -6.01129e-20)
(-0.297281 0.153803 5.87297e-20)
(-0.336468 0.164071 0)
(-0.377034 0.173746 5.60345e-20)
(-0.418641 0.182618 -2.73915e-20)
(-0.460951 0.190483 0)
(-0.503646 0.197171 5.22311e-20)
(-0.546438 0.202555 2.55322e-20)
(-0.589072 0.206566 -4.98976e-20)
(-0.631339 0.209186 -2.44026e-20)
(-0.673071 0.21045 0)
(-0.714146 0.210435 4.67468e-20)
(-0.75448 0.209255 4.57927e-20)
(-0.794019 0.207046 0)
(-0.832738 0.203956 4.4025e-20)
(-0.870629 0.20014 0)
(-0.907695 0.195747 4.24339e-20)
(-0.943943 0.190918 2.08555e-20)
(-0.979381 0.185771 0)
(-1.01402 0.180409 0)
(-1.04787 0.174912 0)
(-1.08094 0.169349 0)
(-1.11326 0.163773 0)
(-1.14482 0.158226 0)
(-1.17564 0.152737 3.7447e-20)
(-1.20573 0.147329 -5.54398e-20)
(-1.23508 0.142014 0)
(-1.2637 0.1368 0)
(-1.29159 0.131691 0)
(-1.31874 0.126685 7.86399e-23)
(-1.34515 0.12178 3.47113e-20)
(-1.37081 0.116971 6.84908e-20)
(-1.39572 0.112252 -6.76556e-20)
(-1.41987 0.107617 -3.33756e-20)
(-1.44324 0.103059 3.30531e-20)
(-1.46583 0.0985714 -8.16348e-23)
(-1.48763 0.0941491 3.21739e-20)
(-1.50862 0.0897865 0)
(-1.52879 0.0854789 3.13885e-20)
(-1.54813 0.0812222 -7.41819e-23)
(-1.56663 0.0770132 0)
(-1.58428 0.0728492 0)
(-1.60106 0.0687282 -2.98259e-20)
(-1.61696 0.0646487 0)
(-1.63198 0.0606098 0)
(-1.64609 0.0566112 2.85869e-20)
(-1.65929 0.0526526 5.64792e-20)
(-1.67157 0.0487344 -2.78799e-20)
(-1.68292 0.044857 0)
(-1.69333 0.0410211 2.70501e-20)
(-1.7028 0.0372276 0)
(-1.71131 0.0334776 2.61516e-20)
(-1.71887 0.0297722 2.57695e-20)
(-1.72548 0.0261132 -5.06352e-20)
(-1.73113 0.0225026 -2.48707e-20)
(-1.73583 0.018944 0)
(-1.73958 0.0154424 4.7975e-20)
(-1.7424 0.0120052 0)
(-1.74429 0.00864277 6.92024e-20)
(-1.74526 0.00536809 4.52093e-20)
(-1.74531 0.00219271 4.42505e-20)
(-1.74444 -0.000883503 -4.32733e-20)
(-1.7426 -0.00388389 6.33937e-20)
(-1.73976 -0.00682511 0)
(-1.73594 -0.00970731 0)
(-1.73111 -0.0125311 -3.92503e-20)
(-1.72529 -0.0152968 -5.72595e-20)
(-1.71848 -0.0180042 0)
(-1.71066 -0.0206528 1.79782e-20)
(-1.70186 -0.0232421 0)
(-1.69207 -0.0257712 -5.08117e-20)
(-1.68129 -0.0282396 1.72888e-22)
(-1.66954 -0.0306465 -1.83639e-22)
(-1.65682 -0.0329914 3.05827e-20)
(-1.64313 -0.0352737 0)
(-1.62848 -0.0374931 -2.82925e-20)
(-1.61289 -0.0396494 2.25064e-22)
(-1.59635 -0.0417423 0)
(-1.57889 -0.0437718 0)
(-1.5605 -0.0457379 0)
(-1.5412 -0.0476407 2.21137e-20)
(-1.52099 -0.0494802 0)
(-1.49989 -0.0512566 0)
(-1.47792 -0.0529701 0)
(-1.45507 -0.0546209 0)
(-1.43136 -0.0562092 0)
(-1.40681 -0.0577352 1.49823e-20)
(-1.38143 -0.0591991 0)
(-1.35523 -0.0606013 1.21332e-20)
(-1.32822 -0.061942 1.08586e-20)
(-1.30042 -0.0632215 -9.57999e-21)
(-1.27184 -0.06444 0)
(-1.2425 -0.0655977 -7.01314e-21)
(-1.21241 -0.066695 0)
(-1.18159 -0.0677318 -4.43774e-21)
(-1.15006 -0.0687085 3.14848e-21)
(-1.11783 -0.0696252 6.33438e-21)
(-1.08491 -0.070482 0)
(-1.05133 -0.0712791 -1.37632e-21)
(-1.01711 -0.0720168 -1.21899e-21)
(-0.982258 -0.0726952 0)
(-0.946801 -0.0733144 -8.33246e-21)
(-0.910758 -0.0738746 -1.08772e-20)
(-0.874147 -0.0743759 2.05251e-20)
(-0.836992 -0.0748188 0)
(-0.799312 -0.0752033 9.6365e-21)
(-0.761131 -0.0755299 1.08888e-20)
(-0.722471 -0.0757988 3.55729e-20)
(-0.683355 -0.0760103 0)
(-0.643807 -0.076165 0)
(-0.603852 -0.0762634 0)
(-0.563513 -0.076306 1.61894e-20)
(-0.522815 -0.0762933 0)
(-0.481785 -0.0762261 0)
(-0.440448 -0.0761051 -2.05774e-20)
(-0.39883 -0.0759311 -2.17374e-20)
(-0.356958 -0.0757049 0)
(-0.314857 -0.0754275 0)
(-0.272556 -0.0750997 -5.02702e-20)
(-0.230081 -0.0747226 0)
(-0.187459 -0.0742969 5.46521e-20)
(-0.144718 -0.0738236 5.5992e-20)
(-0.101885 -0.0733031 0)
(-0.0589877 -0.072736 0)
(-0.0160546 -0.0721227 -6.22156e-20)
(0.0268866 -0.0714635 -7.71935e-22)
(0.0698077 -0.0707578 -7.58682e-22)
(0.112681 -0.0700055 0)
(0.155479 -0.069208 -1.37647e-19)
(0.198178 -0.06837 0)
(0.240756 -0.0674994 0)
(0.283206 -0.0666011 0)
(0.325509 -0.0656767 7.44863e-20)
(0.367642 -0.0647341 0)
(0.40958 -0.06378 -1.52537e-19)
(0.451299 -0.0628174 -7.80675e-20)
(0.492782 -0.0618473 0)
(0.53401 -0.0608704 -8.02341e-20)
(0.57497 -0.0598874 0)
(0.615649 -0.0588993 0)
(0.656033 -0.0579076 -2.48365e-19)
(0.696113 -0.0569138 1.67019e-19)
(0.735878 -0.0559197 0)
(0.77532 -0.0549271 1.70412e-19)
(0.814431 -0.0539378 -8.65008e-20)
(0.853207 -0.0529535 0)
(0.891641 -0.051976 0)
(0.92973 -0.0510067 0)
(0.967473 -0.0500465 -2.66817e-19)
(1.00487 -0.0490963 0)
(1.04191 -0.0481561 -9.04006e-20)
(1.0786 -0.0472249 0)
(1.11493 -0.0463007 0)
(1.1509 -0.0453796 0)
(1.18651 -0.0444551 0)
(1.22173 -0.043517 0)
(1.25654 -0.0425496 0)
(1.2909 -0.0415284 -1.86276e-19)
(1.32475 -0.0404149 0)
(1.35799 -0.0391469 -9.41432e-20)
(1.39045 -0.0376208 2.82744e-19)
(1.42189 -0.0356498 0)
(1.45186 -0.0328934 0)
(1.47993 -0.0286087 -1.90535e-19)
(1.50448 -0.02148 -1.9225e-19)
(1.5276 -0.00778046 1.93665e-19)
(1.54214 0.0184229 1.96345e-19)
(-0.00529431 -0.0700149 -1.5464e-19)
(-0.0172961 -0.039146 -1.38723e-19)
(-0.0333738 -0.00683249 -8.15238e-20)
(-0.0509694 0.0221861 -3.69201e-20)
(-0.0702 0.0487018 0)
(-0.0908933 0.0731306 6.55527e-20)
(-0.113096 0.0956529 -3.15229e-20)
(-0.136949 0.116379 0)
(-0.162591 0.135447 -2.98228e-20)
(-0.190114 0.153061 0)
(-0.219522 0.169456 5.67358e-20)
(-0.250724 0.184838 0)
(-0.283539 0.199333 2.70427e-20)
(-0.317722 0.21296 5.27771e-20)
(-0.352986 0.225646 -5.14926e-20)
(-0.389033 0.237252 0)
(-0.425567 0.247611 -4.90054e-20)
(-0.462317 0.256563 0)
(-0.499043 0.263974 0)
(-0.535548 0.269759 -4.55218e-20)
(-0.571677 0.273885 0)
(-0.607319 0.276376 -6.40996e-23)
(-0.642403 0.2773 0)
(-0.676892 0.27677 0)
(-0.710775 0.274925 7.01761e-23)
(-0.744061 0.271924 -3.9644e-20)
(-0.776769 0.267935 -3.88796e-20)
(-0.808927 0.263125 -3.80249e-20)
(-0.84056 0.257655 0)
(-0.871691 0.251672 -7.31776e-20)
(-0.902338 0.245308 0)
(-0.93251 0.238676 -3.52816e-20)
(-0.962216 0.23187 0)
(-0.991455 0.224967 0)
(-1.02023 0.218027 3.35118e-20)
(-1.04852 0.211099 0)
(-1.07634 0.204218 -3.24603e-20)
(-1.10366 0.197409 -1.55001e-24)
(-1.13047 0.19069 6.29929e-20)
(-1.15677 0.18407 -6.20735e-20)
(-1.18252 0.177556 0)
(-1.20773 0.171148 0)
(-1.23236 0.164843 -2.97344e-20)
(-1.2564 0.158639 0)
(-1.27984 0.152528 -2.89852e-20)
(-1.30265 0.146505 2.86026e-20)
(-1.32482 0.140563 2.82273e-20)
(-1.34633 0.134696 0)
(-1.36716 0.128897 -2.7494e-20)
(-1.3873 0.123161 -2.71343e-20)
(-1.40671 0.117482 5.34999e-20)
(-1.4254 0.111857 -2.64246e-20)
(-1.44334 0.106281 -2.60731e-20)
(-1.46051 0.100753 0)
(-1.4769 0.0952696 0)
(-1.49249 0.0898305 2.50247e-20)
(-1.50727 0.084435 0)
(-1.52122 0.0790833 0)