/*--------------------------------*- C++ -*----------------------------------*\
| =========                 |                                                 |
| \\      /  F ield         | OpenFOAM: The Open Source CFD Toolbox           |
|  \\    /   O peration     | Version:  2412                                  |
|   \\  /    A nd           | Website:  www.openfoam.com                      |
|    \\/     M anipulation  |                                                 |
\*---------------------------------------------------------------------------*/
FoamFile
{
    version     2.0;
    format      ascii;
    arch        "LSB;label=32;scalar=64";
    class       surfaceScalarField;
    location    "0.86";
    object      phi;
}
// * * * * * * * * * * * * * * * * * * * * * * * * * * * * * * * * * * * * * //

dimensions      [0 3 -1 0 0 0 0];

oriented        oriented;

internalField   nonuniform List<scalar> 
799
(
2.1236e-05
4.24721e-05
6.37081e-05
8.4944e-05
0.00010618
0.000127416
0.000148651
0.000169887
0.000191122
0.000212357
0.000233591
0.000254826
0.00027606
0.000297293
0.000318527
0.00033976
0.000360992
0.000382224
0.000403456
0.000424687
0.000445917
0.000467147
0.000488377
0.000509606
0.000530834
0.000552061
0.000573288
0.000594514
0.000615739
0.000636964
0.000658188
0.000679411
0.000700633
0.000721854
0.000743074
0.000764294
0.000785512
0.000806729
0.000827946
0.000849161
0.000870376
0.000891589
0.000912801
0.000934012
0.000955222
0.00097643
0.000997637
0.00101884
0.00104005
0.00106125
0.00108245
0.00110365
0.00112485
0.00114605
0.00116725
0.00118844
0.00120964
0.00123083
0.00125202
0.00127321
0.0012944
0.00131558
0.00133677
0.00135795
0.00137913
0.00140031
0.00142148
0.00144266
0.00146383
0.001485
0.00150617
0.00152734
0.00154851
0.00156967
0.00159083
0.00161199
0.00163315
0.0016543
0.00167546
0.00169661
0.00171776
0.0017389
0.00176005
0.00178119
0.00180233
0.00182347
0.0018446
0.00186574
0.00188687
0.001908
0.00192912
0.00195024
0.00197136
0.00199248
0.0020136
0.00203471
0.00205582
0.00207693
0.00209803
0.00211913
0.00214023
0.00216133
0.00218242
0.00220351
0.0022246
0.00224569
0.00226677
0.00228785
0.00230892
0.00233
0.00235107
0.00237213
0.0023932
0.00241426
0.00243531
0.00245637
0.00247742
0.00249846
0.00251951
0.00254055
0.00256159
0.00258262
0.00260365
0.00262468
0.0026457
0.00266672
0.00268774
0.00270875
0.00272976
0.00275076
0.00277176
0.00279276
0.00281375
0.00283474
0.00285573
0.00287671
0.00289769
0.00291866
0.00293963
0.0029606
0.00298156
0.00300252
0.00302347
0.00304442
0.00306537
0.00308631
0.00310725
0.00312818
0.00314911
0.00317003
0.00319095
0.00321187
0.00323278
0.00325368
0.00327458
0.00329548
0.00331637
0.00333726
0.00335814
0.00337902
0.00339989
0.00342076
0.00344163
0.00346248
0.00348334
0.00350419
0.00352503
0.00354587
0.0035667
0.00358753
0.00360835
0.00362917
0.00364998
0.00367079
0.00369159
0.00371239
0.00373318
0.00375397
0.00377475
0.00379552
0.00381629
0.00383705
0.00385781
0.00387856
0.00389931
0.00392005
0.00394078
0.00396151
0.00398223
0.00400295
0.00402366
0.00404437
0.00406507
0.00408576
0.00410644
0.00412712
0.0041478
0.00416847
0.00418913
0.00420978
0.00423043
0.00425107
0.00427171
0.00429234
0.00431296
0.00433357
0.00435418
0.00437478
0.00439538
0.00441597
0.00443655
0.00445712
0.00447769
0.00449825
0.0045188
0.00453935
0.00455988
0.00458042
0.00460094
0.00462146
0.00464196
0.00466247
0.00468296
0.00470345
0.00472393
0.0047444
0.00476486
0.00478531
0.00480576
0.0048262
0.00484663
0.00486706
0.00488747
0.00490788
0.00492828
0.00494867
0.00496905
0.00498943
0.00500979
0.00503015
0.0050505
0.00507084
0.00509117
0.00511149
0.00513181
0.00515211
0.00517241
0.0051927
0.00521297
0.00523324
0.0052535
0.00527375
0.005294
0.00531423
0.00533445
0.00535466
0.00537487
0.00539506
0.00541525
0.00543542
0.00545559
0.00547574
0.00549589
0.00551602
0.00553615
0.00555626
0.00557637
0.00559646
0.00561654
0.00563662
0.00565668
0.00567673
0.00569678
0.00571681
0.00573683
0.00575684
0.00577683
0.00579682
0.0058168
0.00583676
0.00585672
0.00587666
0.00589659
0.00591651
0.00593642
0.00595631
0.0059762
0.00599607
0.00601593
0.00603578
0.00605561
0.00607544
0.00609525
0.00611505
0.00613484
0.00615461
0.00617437
0.00619412
0.00621386
0.00623358
0.00625329
0.00627299
0.00629267
0.00631234
0.006332
0.00635165
0.00637128
0.00639089
0.0064105
0.00643008
0.00644966
0.00646922
0.00648877
0.0065083
0.00652782
0.00654732
0.00656681
0.00658628
0.00660574
0.00662518
0.00664461
0.00666403
0.00668343
0.00670281
0.00672218
0.00674153
0.00676086
0.00678018
0.00679949
0.00681877
0.00683805
0.0068573
0.00687654
0.00689576
0.00691497
0.00693415
0.00695333
0.00697248
0.00699162
0.00701073
0.00702984
0.00704892
0.00706798
0.00708703
0.00710606
0.00712507
0.00714407
0.00716304
0.00718199
0.00720093
0.00721985
0.00723875
0.00725762
0.00727648
0.00729532
0.00731414
0.00733294
0.00735172
0.00737048
0.00738921
0.00740793
0.00742663
0.0074453
0.00746395
0.00748259
0.0075012
0.00751979
0.00753835
0.0075569
0.00757542
0.00759392
0.00761239
0.00763084
0.00764927
0.00766768
0.00768606
0.00770442
0.00772276
0.00774107
0.00775935
0.00777761
0.00779585
0.00781406
0.00783224
0.0078504
0.00786854
0.00788664
0.00790472
0.00792278
0.0079408
0.0079588
0.00797678
0.00799472
0.00801264
0.00803052
0.00804838
0.00806641
0.00796072
0.00598558
6.17206e-06
-0.00597852
-0.00795982
-0.00806639
-0.00804835
-0.0080305
-0.00801261
-0.00799469
-0.00797675
-0.00795878
-0.00794078
-0.00792275
-0.0079047
-0.00788662
-0.00786851
-0.00785038
-0.00783222
-0.00781403
-0.00779582
-0.00777759
-0.00775933
-0.00774104
-0.00772273
-0.0077044
-0.00768604
-0.00766766
-0.00764925
-0.00763082
-0.00761237
-0.00759389
-0.00757539
-0.00755687
-0.00753833
-0.00751976
-0.00750117
-0.00748256
-0.00746393
-0.00744528
-0.0074266
-0.00740791
-0.00738919
-0.00737045
-0.00735169
-0.00733292
-0.00731412
-0.0072953
-0.00727646
-0.0072576
-0.00723872
-0.00721982
-0.00720091
-0.00718197
-0.00716302
-0.00714404
-0.00712505
-0.00710604
-0.00708701
-0.00706796
-0.0070489
-0.00702981
-0.00701071
-0.00699159
-0.00697246
-0.0069533
-0.00693413
-0.00691494
-0.00689574
-0.00687652
-0.00685728
-0.00683802
-0.00681875
-0.00679947
-0.00678016
-0.00676084
-0.00674151
-0.00672215
-0.00670279
-0.0066834
-0.00666401
-0.00664459
-0.00662516
-0.00660572
-0.00658626
-0.00656679
-0.0065473
-0.0065278
-0.00650828
-0.00648875
-0.0064692
-0.00644964
-0.00643006
-0.00641048
-0.00639087
-0.00637126
-0.00635163
-0.00633198
-0.00631233
-0.00629265
-0.00627297
-0.00625327
-0.00623356
-0.00621384
-0.0061941
-0.00617435
-0.00615459
-0.00613482
-0.00611503
-0.00609523
-0.00607542
-0.0060556
-0.00603576
-0.00601591
-0.00599605
-0.00597618
-0.00595629
-0.0059364
-0.00591649
-0.00589657
-0.00587664
-0.0058567
-0.00583675
-0.00581678
-0.0057968
-0.00577682
-0.00575682
-0.00573681
-0.00571679
-0.00569676
-0.00567672
-0.00565666
-0.0056366
-0.00561653
-0.00559644
-0.00557635
-0.00555625
-0.00553613
-0.00551601
-0.00549587
-0.00547573
-0.00545557
-0.00543541
-0.00541523
-0.00539505
-0.00537485
-0.00535465
-0.00533444
-0.00531421
-0.00529398
-0.00527374
-0.00525349
-0.00523323
-0.00521296
-0.00519268
-0.00517239
-0.0051521
-0.00513179
-0.00511148
-0.00509116
-0.00507083
-0.00505049
-0.00503014
-0.00500978
-0.00498941
-0.00496904
-0.00494866
-0.00492827
-0.00490787
-0.00488746
-0.00486704
-0.00484662
-0.00482619
-0.00480575
-0.0047853
-0.00476485
-0.00474438
-0.00472391
-0.00470343
-0.00468295
-0.00466245
-0.00464195
-0.00462144
-0.00460093
-0.0045804
-0.00455987
-0.00453933
-0.00451879
-0.00449824
-0.00447768
-0.00445711
-0.00443654
-0.00441595
-0.00439537
-0.00437477
-0.00435417
-0.00433356
-0.00431295
-0.00429233
-0.0042717
-0.00425106
-0.00423042
-0.00420977
-0.00418912
-0.00416846
-0.00414779
-0.00412712
-0.00410644
-0.00408575
-0.00406506
-0.00404436
-0.00402365
-0.00400294
-0.00398223
-0.0039615
-0.00394077
-0.00392004
-0.0038993
-0.00387855
-0.0038578
-0.00383704
-0.00381628
-0.00379551
-0.00377474
-0.00375396
-0.00373317
-0.00371238
-0.00369158
-0.00367078
-0.00364998
-0.00362916
-0.00360835
-0.00358752
-0.00356669
-0.00354586
-0.00352502
-0.00350418
-0.00348333
-0.00346248
-0.00344162
-0.00342076
-0.00339989
-0.00337901
-0.00335814
-0.00333725
-0.00331637
-0.00329547
-0.00327458
-0.00325368
-0.00323277
-0.00321186
-0.00319095
-0.00317003
-0.0031491
-0.00312817
-0.00310724
-0.0030863
-0.00306536
-0.00304442
-0.00302347
-0.00300251
-0.00298156
-0.00296059
-0.00293963
-0.00291866
-0.00289768
-0.00287671
-0.00285572
-0.00283474
-0.00281375
-0.00279276
-0.00277176
-0.00275076
-0.00272975
-0.00270874
-0.00268773
-0.00266671
-0.0026457
-0.00262467
-0.00260365
-0.00258262
-0.00256158
-0.00254054
-0.0025195
-0.00249846
-0.00247741
-0.00245636
-0.00243531
-0.00241425
-0.00239319
-0.00237213
-0.00235106
-0.00232999
-0.00230892
-0.00228784
-0.00226677
-0.00224568
-0.0022246
-0.00220351
-0.00218242
-0.00216133
-0.00214023
-0.00211913
-0.00209803
-0.00207693
-0.00205582
-0.00203471
-0.0020136
-0.00199248
-0.00197136
-0.00195024
-0.00192912
-0.00190799
-0.00188687
-0.00186573
-0.0018446
-0.00182347
-0.00180233
-0.00178119
-0.00176005
-0.0017389
-0.00171776
-0.00169661
-0.00167546
-0.0016543
-0.00163315
-0.00161199
-0.00159083
-0.00156967
-0.0015485
-0.00152734
-0.00150617
-0.001485
-0.00146383
-0.00144266
-0.00142148
-0.00140031
-0.00137913
-0.00135795
-0.00133676
-0.00131558
-0.00129439
-0.00127321
-0.00125202
-0.00123083
-0.00120964
-0.00118844
-0.00116725
-0.00114605
-0.00112485
-0.00110365
-0.00108245
-0.00106125
-0.00104005
-0.00101884
-0.000997637
-0.00097643
-0.000955221
-0.000934011
-0.0009128
-0.000891588
-0.000870375
-0.000849161
-0.000827945
-0.000806729
-0.000785512
-0.000764293
-0.000743074
-0.000721854
-0.000700632
-0.00067941
-0.000658187
-0.000636964
-0.000615739
-0.000594514
-0.000573288
-0.000552061
-0.000530833
-0.000509605
-0.000488377
-0.000467147
-0.000445917
-0.000424687
-0.000403456
-0.000382224
-0.000360992
-0.00033976
-0.000318527
-0.000297293
-0.00027606
-0.000254826
-0.000233591
-0.000212357
-0.000191122
-0.000169887
-0.000148651
-0.000127416
-0.00010618
-8.49441e-05
-6.37082e-05
-4.24722e-05
-2.12361e-05
)
;

boundaryField
{
    left
    {
        type            calculated;
        value           uniform 0;
    }
    right
    {
        type            calculated;
        value           uniform 0;
    }
    frontBackUpDown
    {
        type            empty;
    }
}


// ************************************************************************* //
