/*--------------------------------*- C++ -*----------------------------------*\
| =========                 |                                                 |
| \\      /  F ield         | OpenFOAM: The Open Source CFD Toolbox           |
|  \\    /   O peration     | Version:  2412                                  |
|   \\  /    A nd           | Website:  www.openfoam.com                      |
|    \\/     M anipulation  |                                                 |
\*---------------------------------------------------------------------------*/
FoamFile
{
    version     2.0;
    format      ascii;
    arch        "LSB;label=32;scalar=64";
    class       volVectorField;
    location    "0.86";
    object      U;
}
// * * * * * * * * * * * * * * * * * * * * * * * * * * * * * * * * * * * * * //

dimensions      [0 1 -1 0 0 0 0];

internalField   nonuniform List<vector> 
800
(
(0.0010618 0 0)
(0.0031854 0 0)
(0.00530901 0 0)
(0.00743261 0 0)
(0.0095562 0 0)
(0.0116798 0 0)
(0.0138033 0 0)
(0.0159269 0 0)
(0.0180504 0 0)
(0.0201739 0 0)
(0.0222974 0 0)
(0.0244208 0 0)
(0.0265443 0 0)
(0.0286677 0 0)
(0.030791 0 0)
(0.0329143 0 0)
(0.0350376 0 0)
(0.0371608 0 0)
(0.039284 0 0)
(0.0414071 0 0)
(0.0435302 0 0)
(0.0456532 0 0)
(0.0477762 0 0)
(0.0498991 0 0)
(0.052022 0 0)
(0.0541448 0 0)
(0.0562675 0 0)
(0.0583901 0 0)
(0.0605127 0 0)
(0.0626352 0 0)
(0.0647576 0 0)
(0.0668799 0 0)
(0.0690022 0 0)
(0.0711244 0 0)
(0.0732464 0 0)
(0.0753684 0 0)
(0.0774903 0 0)
(0.0796121 0 0)
(0.0817338 0 0)
(0.0838554 0 0)
(0.0859769 0 0)
(0.0880982 0 0)
(0.0902195 0 0)
(0.0923407 0 0)
(0.0944617 0 0)
(0.0965826 0 0)
(0.0987034 0 0)
(0.100824 0 0)
(0.102945 0 0)
(0.105065 0 0)
(0.107185 0 0)
(0.109305 0 0)
(0.111425 0 0)
(0.113545 0 0)
(0.115665 0 0)
(0.117785 0 0)
(0.119904 0 0)
(0.122023 0 0)
(0.124142 0 0)
(0.126261 0 0)
(0.12838 0 0)
(0.130499 0 0)
(0.132617 0 0)
(0.134736 0 0)
(0.136854 0 0)
(0.138972 0 0)
(0.14109 0 0)
(0.143207 0 0)
(0.145325 0 0)
(0.147442 0 0)
(0.149559 0 0)
(0.151676 0 0)
(0.153792 0 0)
(0.155909 0 0)
(0.158025 0 0)
(0.160141 0 0)
(0.162257 0 0)
(0.164373 0 0)
(0.166488 0 0)
(0.168603 0 0)
(0.170718 0 0)
(0.172833 0 0)
(0.174948 0 0)
(0.177062 0 0)
(0.179176 0 0)
(0.18129 0 0)
(0.183404 0 0)
(0.185517 0 0)
(0.18763 0 0)
(0.189743 0 0)
(0.191856 0 0)
(0.193968 0 0)
(0.19608 0 0)
(0.198192 0 0)
(0.200304 0 0)
(0.202415 0 0)
(0.204527 0 0)
(0.206637 0 0)
(0.208748 0 0)
(0.210858 0 0)
(0.212968 0 0)
(0.215078 0 0)
(0.217188 0 0)
(0.219297 0 0)
(0.221406 0 0)
(0.223514 0 0)
(0.225623 0 0)
(0.227731 0 0)
(0.229839 0 0)
(0.231946 0 0)
(0.234053 0 0)
(0.23616 0 0)
(0.238266 0 0)
(0.240373 0 0)
(0.242479 0 0)
(0.244584 0 0)
(0.246689 0 0)
(0.248794 0 0)
(0.250899 0 0)
(0.253003 0 0)
(0.255107 0 0)
(0.25721 0 0)
(0.259314 0 0)
(0.261416 0 0)
(0.263519 0 0)
(0.265621 0 0)
(0.267723 0 0)
(0.269824 0 0)
(0.271925 0 0)
(0.274026 0 0)
(0.276126 0 0)
(0.278226 0 0)
(0.280326 0 0)
(0.282425 0 0)
(0.284524 0 0)
(0.286622 0 0)
(0.28872 0 0)
(0.290818 0 0)
(0.292915 0 0)
(0.295012 0 0)
(0.297108 0 0)
(0.299204 0 0)
(0.3013 0 0)
(0.303395 0 0)
(0.30549 0 0)
(0.307584 0 0)
(0.309678 0 0)
(0.311771 0 0)
(0.313865 0 0)
(0.315957 0 0)
(0.318049 0 0)
(0.320141 0 0)
(0.322232 0 0)
(0.324323 0 0)
(0.326413 0 0)
(0.328503 0 0)
(0.330593 0 0)
(0.332682 0 0)
(0.33477 0 0)
(0.336858 0 0)
(0.338946 0 0)
(0.341033 0 0)
(0.343119 0 0)
(0.345206 0 0)
(0.347291 0 0)
(0.349376 0 0)
(0.351461 0 0)
(0.353545 0 0)
(0.355629 0 0)
(0.357712 0 0)
(0.359794 0 0)
(0.361876 0 0)
(0.363958 0 0)
(0.366039 0 0)
(0.368119 0 0)
(0.370199 0 0)
(0.372279 0 0)
(0.374357 0 0)
(0.376436 0 0)
(0.378513 0 0)
(0.380591 0 0)
(0.382667 0 0)
(0.384743 0 0)
(0.386819 0 0)
(0.388894 0 0)
(0.390968 0 0)
(0.393042 0 0)
(0.395115 0 0)
(0.397188 0 0)
(0.399259 0 0)
(0.401331 0 0)
(0.403402 0 0)
(0.405472 0 0)
(0.407541 0 0)
(0.40961 0 0)
(0.411679 0 0)
(0.413746 0 0)
(0.415813 0 0)
(0.41788 0 0)
(0.419946 0 0)
(0.422011 0 0)
(0.424075 0 0)
(0.426139 0 0)
(0.428202 0 0)
(0.430265 0 0)
(0.432327 0 0)
(0.434388 0 0)
(0.436448 0 0)
(0.438508 0 0)
(0.440567 0 0)
(0.442626 0 0)
(0.444684 0 0)
(0.446741 0 0)
(0.448797 0 0)
(0.450853 0 0)
(0.452908 0 0)
(0.454962 0 0)
(0.457015 0 0)
(0.459068 0 0)
(0.46112 0 0)
(0.463171 0 0)
(0.465222 0 0)
(0.467272 0 0)
(0.469321 0 0)
(0.471369 0 0)
(0.473416 0 0)
(0.475463 0 0)
(0.477509 0 0)
(0.479554 0 0)
(0.481598 0 0)
(0.483642 0 0)
(0.485685 0 0)
(0.487727 0 0)
(0.489768 0 0)
(0.491808 0 0)
(0.493848 0 0)
(0.495886 0 0)
(0.497924 0 0)
(0.499961 0 0)
(0.501997 0 0)
(0.504033 0 0)
(0.506067 0 0)
(0.508101 0 0)
(0.510133 0 0)
(0.512165 0 0)
(0.514196 0 0)
(0.516226 0 0)
(0.518256 0 0)
(0.520284 0 0)
(0.522311 0 0)
(0.524338 0 0)
(0.526363 0 0)
(0.528388 0 0)
(0.530411 0 0)
(0.532434 0 0)
(0.534456 0 0)
(0.536477 0 0)
(0.538497 0 0)
(0.540516 0 0)
(0.542534 0 0)
(0.544551 0 0)
(0.546567 0 0)
(0.548582 0 0)
(0.550596 0 0)
(0.552609 0 0)
(0.554621 0 0)
(0.556632 0 0)
(0.558642 0 0)
(0.560651 0 0)
(0.562658 0 0)
(0.564665 0 0)
(0.566671 0 0)
(0.568676 0 0)
(0.570679 0 0)
(0.572682 0 0)
(0.574683 0 0)
(0.576684 0 0)
(0.578683 0 0)
(0.580681 0 0)
(0.582678 0 0)
(0.584674 0 0)
(0.586669 0 0)
(0.588663 0 0)
(0.590655 0 0)
(0.592647 0 0)
(0.594637 0 0)
(0.596626 0 0)
(0.598614 0 0)
(0.6006 0 0)
(0.602586 0 0)
(0.60457 0 0)
(0.606553 0 0)
(0.608535 0 0)
(0.610515 0 0)
(0.612495 0 0)
(0.614473 0 0)
(0.61645 0 0)
(0.618425 0 0)
(0.620399 0 0)
(0.622372 0 0)
(0.624344 0 0)
(0.626314 0 0)
(0.628284 0 0)
(0.630251 0 0)
(0.632218 0 0)
(0.634183 0 0)
(0.636146 0 0)
(0.638109 0 0)
(0.64007 0 0)
(0.642029 0 0)
(0.643988 0 0)
(0.645944 0 0)
(0.6479 0 0)
(0.649854 0 0)
(0.651806 0 0)
(0.653757 0 0)
(0.655707 0 0)
(0.657655 0 0)
(0.659601 0 0)
(0.661547 0 0)
(0.66349 0 0)
(0.665432 0 0)
(0.667373 0 0)
(0.669312 0 0)
(0.67125 0 0)
(0.673186 0 0)
(0.67512 0 0)
(0.677053 0 0)
(0.678984 0 0)
(0.680913 0 0)
(0.682841 0 0)
(0.684768 0 0)
(0.686692 0 0)
(0.688615 0 0)
(0.690537 0 0)
(0.692456 0 0)
(0.694374 0 0)
(0.696291 0 0)
(0.698205 0 0)
(0.700118 0 0)
(0.702029 0 0)
(0.703938 0 0)
(0.705846 0 0)
(0.707751 0 0)
(0.709655 0 0)
(0.711557 0 0)
(0.713457 0 0)
(0.715356 0 0)
(0.717252 0 0)
(0.719147 0 0)
(0.721039 0 0)
(0.72293 0 0)
(0.724819 0 0)
(0.726706 0 0)
(0.728591 0 0)
(0.730474 0 0)
(0.732354 0 0)
(0.734233 0 0)
(0.73611 0 0)
(0.737985 0 0)
(0.739858 0 0)
(0.741728 0 0)
(0.743597 0 0)
(0.745463 0 0)
(0.747328 0 0)
(0.74919 0 0)
(0.75105 0 0)
(0.752907 0 0)
(0.754763 0 0)
(0.756616 0 0)
(0.758467 0 0)
(0.760316 0 0)
(0.762162 0 0)
(0.764007 0 0)
(0.765848 0 0)
(0.767688 0 0)
(0.769525 0 0)
(0.77136 0 0)
(0.773192 0 0)
(0.775022 0 0)
(0.776849 0 0)
(0.778674 0 0)
(0.780496 0 0)
(0.782316 0 0)
(0.784133 0 0)
(0.785948 0 0)
(0.78776 0 0)
(0.789569 0 0)
(0.791376 0 0)
(0.79318 0 0)
(0.794981 0 0)
(0.79678 0 0)
(0.798575 0 0)
(0.800368 0 0)
(0.802159 0 0)
(0.803946 0 0)
(0.805729 0 0)
(0.807553 0 0)
(0.78459 0 0)
(0.412526 0 0)
(-0.411292 0 0)
(-0.784413 0 0)
(-0.807551 0 0)
(-0.805727 0 0)
(-0.803944 0 0)
(-0.802156 0 0)
(-0.800366 0 0)
(-0.798573 0 0)
(-0.796777 0 0)
(-0.794979 0 0)
(-0.793177 0 0)
(-0.791373 0 0)
(-0.789567 0 0)
(-0.787757 0 0)
(-0.785945 0 0)
(-0.784131 0 0)
(-0.782313 0 0)
(-0.780494 0 0)
(-0.778671 0 0)
(-0.776846 0 0)
(-0.775019 0 0)
(-0.773189 0 0)
(-0.771357 0 0)
(-0.769522 0 0)
(-0.767685 0 0)
(-0.765846 0 0)
(-0.764004 0 0)
(-0.76216 0 0)
(-0.760314 0 0)
(-0.758465 0 0)
(-0.756614 0 0)
(-0.754761 0 0)
(-0.752905 0 0)
(-0.751047 0 0)
(-0.749187 0 0)
(-0.747325 0 0)
(-0.745461 0 0)
(-0.743595 0 0)
(-0.741726 0 0)
(-0.739855 0 0)
(-0.737983 0 0)
(-0.736108 0 0)
(-0.734231 0 0)
(-0.732352 0 0)
(-0.730471 0 0)
(-0.728588 0 0)
(-0.726703 0 0)
(-0.724817 0 0)
(-0.722928 0 0)
(-0.721037 0 0)
(-0.719144 0 0)
(-0.71725 0 0)
(-0.715353 0 0)
(-0.713455 0 0)
(-0.711555 0 0)
(-0.709653 0 0)
(-0.707749 0 0)
(-0.705843 0 0)
(-0.703936 0 0)
(-0.702027 0 0)
(-0.700116 0 0)
(-0.698203 0 0)
(-0.696288 0 0)
(-0.694372 0 0)
(-0.692454 0 0)
(-0.690535 0 0)
(-0.688613 0 0)
(-0.68669 0 0)
(-0.684766 0 0)
(-0.682839 0 0)
(-0.680911 0 0)
(-0.678982 0 0)
(-0.677051 0 0)
(-0.675118 0 0)
(-0.673183 0 0)
(-0.671247 0 0)
(-0.66931 0 0)
(-0.667371 0 0)
(-0.66543 0 0)
(-0.663488 0 0)
(-0.661545 0 0)
(-0.659599 0 0)
(-0.657653 0 0)
(-0.655705 0 0)
(-0.653755 0 0)
(-0.651804 0 0)
(-0.649852 0 0)
(-0.647898 0 0)
(-0.645942 0 0)
(-0.643985 0 0)
(-0.642027 0 0)
(-0.640068 0 0)
(-0.638107 0 0)
(-0.636144 0 0)
(-0.634181 0 0)
(-0.632216 0 0)
(-0.630249 0 0)
(-0.628282 0 0)
(-0.626313 0 0)
(-0.624342 0 0)
(-0.62237 0 0)
(-0.620397 0 0)
(-0.618423 0 0)
(-0.616448 0 0)
(-0.614471 0 0)
(-0.612493 0 0)
(-0.610513 0 0)
(-0.608533 0 0)
(-0.606551 0 0)
(-0.604568 0 0)
(-0.602584 0 0)
(-0.600598 0 0)
(-0.598612 0 0)
(-0.596624 0 0)
(-0.594635 0 0)
(-0.592645 0 0)
(-0.590653 0 0)
(-0.588661 0 0)
(-0.586667 0 0)
(-0.584672 0 0)
(-0.582677 0 0)
(-0.58068 0 0)
(-0.578681 0 0)
(-0.576682 0 0)
(-0.574682 0 0)
(-0.57268 0 0)
(-0.570678 0 0)
(-0.568674 0 0)
(-0.566669 0 0)
(-0.564664 0 0)
(-0.562657 0 0)
(-0.560649 0 0)
(-0.55864 0 0)
(-0.55663 0 0)
(-0.554619 0 0)
(-0.552607 0 0)
(-0.550594 0 0)
(-0.54858 0 0)
(-0.546565 0 0)
(-0.544549 0 0)
(-0.542532 0 0)
(-0.540514 0 0)
(-0.538495 0 0)
(-0.536475 0 0)
(-0.534455 0 0)
(-0.532433 0 0)
(-0.53041 0 0)
(-0.528386 0 0)
(-0.526362 0 0)
(-0.524336 0 0)
(-0.52231 0 0)
(-0.520282 0 0)
(-0.518254 0 0)
(-0.516225 0 0)
(-0.514195 0 0)
(-0.512164 0 0)
(-0.510132 0 0)
(-0.508099 0 0)
(-0.506066 0 0)
(-0.504031 0 0)
(-0.501996 0 0)
(-0.49996 0 0)
(-0.497923 0 0)
(-0.495885 0 0)
(-0.493846 0 0)
(-0.491807 0 0)
(-0.489767 0 0)
(-0.487725 0 0)
(-0.485683 0 0)
(-0.483641 0 0)
(-0.481597 0 0)
(-0.479553 0 0)
(-0.477508 0 0)
(-0.475462 0 0)
(-0.473415 0 0)
(-0.471368 0 0)
(-0.469319 0 0)
(-0.46727 0 0)
(-0.465221 0 0)
(-0.46317 0 0)
(-0.461119 0 0)
(-0.459067 0 0)
(-0.457014 0 0)
(-0.454961 0 0)
(-0.452906 0 0)
(-0.450851 0 0)
(-0.448796 0 0)
(-0.446739 0 0)
(-0.444682 0 0)
(-0.442625 0 0)
(-0.440566 0 0)
(-0.438507 0 0)
(-0.436447 0 0)
(-0.434387 0 0)
(-0.432326 0 0)
(-0.430264 0 0)
(-0.428201 0 0)
(-0.426138 0 0)
(-0.424074 0 0)
(-0.42201 0 0)
(-0.419945 0 0)
(-0.417879 0 0)
(-0.415812 0 0)
(-0.413745 0 0)
(-0.411678 0 0)
(-0.409609 0 0)
(-0.40754 0 0)
(-0.405471 0 0)
(-0.403401 0 0)
(-0.40133 0 0)
(-0.399259 0 0)
(-0.397187 0 0)
(-0.395114 0 0)
(-0.393041 0 0)
(-0.390967 0 0)
(-0.388893 0 0)
(-0.386818 0 0)
(-0.384742 0 0)
(-0.382666 0 0)
(-0.38059 0 0)
(-0.378513 0 0)
(-0.376435 0 0)
(-0.374357 0 0)
(-0.372278 0 0)
(-0.370198 0 0)
(-0.368118 0 0)
(-0.366038 0 0)
(-0.363957 0 0)
(-0.361876 0 0)
(-0.359793 0 0)
(-0.357711 0 0)
(-0.355628 0 0)
(-0.353544 0 0)
(-0.35146 0 0)
(-0.349376 0 0)
(-0.34729 0 0)
(-0.345205 0 0)
(-0.343119 0 0)
(-0.341032 0 0)
(-0.338945 0 0)
(-0.336858 0 0)
(-0.33477 0 0)
(-0.332681 0 0)
(-0.330592 0 0)
(-0.328503 0 0)
(-0.326413 0 0)
(-0.324322 0 0)
(-0.322232 0 0)
(-0.32014 0 0)
(-0.318049 0 0)
(-0.315957 0 0)
(-0.313864 0 0)
(-0.311771 0 0)
(-0.309677 0 0)
(-0.307584 0 0)
(-0.305489 0 0)
(-0.303394 0 0)
(-0.301299 0 0)
(-0.299204 0 0)
(-0.297108 0 0)
(-0.295011 0 0)
(-0.292914 0 0)
(-0.290817 0 0)
(-0.28872 0 0)
(-0.286622 0 0)
(-0.284523 0 0)
(-0.282424 0 0)
(-0.280325 0 0)
(-0.278226 0 0)
(-0.276126 0 0)
(-0.274026 0 0)
(-0.271925 0 0)
(-0.269824 0 0)
(-0.267722 0 0)
(-0.265621 0 0)
(-0.263518 0 0)
(-0.261416 0 0)
(-0.259313 0 0)
(-0.25721 0 0)
(-0.255106 0 0)
(-0.253003 0 0)
(-0.250898 0 0)
(-0.248794 0 0)
(-0.246689 0 0)
(-0.244584 0 0)
(-0.242478 0 0)
(-0.240372 0 0)
(-0.238266 0 0)
(-0.23616 0 0)
(-0.234053 0 0)
(-0.231946 0 0)
(-0.229838 0 0)
(-0.227731 0 0)
(-0.225623 0 0)
(-0.223514 0 0)
(-0.221406 0 0)
(-0.219297 0 0)
(-0.217187 0 0)
(-0.215078 0 0)
(-0.212968 0 0)
(-0.210858 0 0)
(-0.208748 0 0)
(-0.206637 0 0)
(-0.204526 0 0)
(-0.202415 0 0)
(-0.200304 0 0)
(-0.198192 0 0)
(-0.19608 0 0)
(-0.193968 0 0)
(-0.191856 0 0)
(-0.189743 0 0)
(-0.18763 0 0)
(-0.185517 0 0)
(-0.183403 0 0)
(-0.18129 0 0)
(-0.179176 0 0)
(-0.177062 0 0)
(-0.174948 0 0)
(-0.172833 0 0)
(-0.170718 0 0)
(-0.168603 0 0)
(-0.166488 0 0)
(-0.164373 0 0)
(-0.162257 0 0)
(-0.160141 0 0)
(-0.158025 0 0)
(-0.155909 0 0)
(-0.153792 0 0)
(-0.151676 0 0)
(-0.149559 0 0)
(-0.147442 0 0)
(-0.145324 0 0)
(-0.143207 0 0)
(-0.141089 0 0)
(-0.138972 0 0)
(-0.136854 0 0)
(-0.134736 0 0)
(-0.132617 0 0)
(-0.130499 0 0)
(-0.12838 0 0)
(-0.126261 0 0)
(-0.124142 0 0)
(-0.122023 0 0)
(-0.119904 0 0)
(-0.117785 0 0)
(-0.115665 0 0)
(-0.113545 0 0)
(-0.111425 0 0)
(-0.109305 0 0)
(-0.107185 0 0)
(-0.105065 0 0)
(-0.102945 0 0)
(-0.100824 0 0)
(-0.0987033 0 0)
(-0.0965826 0 0)
(-0.0944616 0 0)
(-0.0923406 0 0)
(-0.0902195 0 0)
(-0.0880982 0 0)
(-0.0859768 0 0)
(-0.0838553 0 0)
(-0.0817337 0 0)
(-0.0796121 0 0)
(-0.0774903 0 0)
(-0.0753684 0 0)
(-0.0732464 0 0)
(-0.0711243 0 0)
(-0.0690022 0 0)
(-0.0668799 0 0)
(-0.0647576 0 0)
(-0.0626352 0 0)
(-0.0605127 0 0)
(-0.0583901 0 0)
(-0.0562675 0 0)
(-0.0541447 0 0)
(-0.052022 0 0)
(-0.0498991 0 0)
(-0.0477762 0 0)
(-0.0456532 0 0)
(-0.0435302 0 0)
(-0.0414071 0 0)
(-0.039284 0 0)
(-0.0371608 0 0)
(-0.0350376 0 0)
(-0.0329143 0 0)
(-0.030791 0 0)
(-0.0286677 0 0)
(-0.0265443 0 0)
(-0.0244209 0 0)
(-0.0222974 0 0)
(-0.0201739 0 0)
(-0.0180504 0 0)
(-0.0159269 0 0)
(-0.0138033 0 0)
(-0.0116798 0 0)
(-0.00955621 0 0)
(-0.00743262 0 0)
(-0.00530902 0 0)
(-0.00318541 0 0)
(-0.00106181 0 0)
)
;

boundaryField
{
    left
    {
        type            fixedValue;
        value           uniform (0 0 0);
    }
    right
    {
        type            fixedValue;
        value           uniform (0 0 0);
    }
    frontBackUpDown
    {
        type            empty;
    }
}


// ************************************************************************* //
