/*--------------------------------*- C++ -*----------------------------------*\
| =========                 |                                                 |
| \\      /  F ield         | OpenFOAM: The Open Source CFD Toolbox           |
|  \\    /   O peration     | Version:  2412                                  |
|   \\  /    A nd           | Website:  www.openfoam.com                      |
|    \\/     M anipulation  |                                                 |
\*---------------------------------------------------------------------------*/
FoamFile
{
    version     2.0;
    format      ascii;
    arch        "LSB;label=32;scalar=64";
    class       volVectorField;
    location    "0.86";
    object      U_0_0_0;
}
// * * * * * * * * * * * * * * * * * * * * * * * * * * * * * * * * * * * * * //

dimensions      [0 1 -1 0 0 0 0];

internalField   nonuniform List<vector> 
800
(
(0.00106315 0 0)
(0.00318946 0 0)
(0.00531577 0 0)
(0.00744207 0 0)
(0.00956836 0 0)
(0.0116946 0 0)
(0.0138209 0 0)
(0.0159472 0 0)
(0.0180734 0 0)
(0.0201996 0 0)
(0.0223258 0 0)
(0.0244519 0 0)
(0.0265781 0 0)
(0.0287041 0 0)
(0.0308302 0 0)
(0.0329562 0 0)
(0.0350822 0 0)
(0.0372081 0 0)
(0.039334 0 0)
(0.0414598 0 0)
(0.0435856 0 0)
(0.0457113 0 0)
(0.047837 0 0)
(0.0499626 0 0)
(0.0520882 0 0)
(0.0542137 0 0)
(0.0563391 0 0)
(0.0584644 0 0)
(0.0605897 0 0)
(0.0627149 0 0)
(0.06484 0 0)
(0.066965 0 0)
(0.06909 0 0)
(0.0712148 0 0)
(0.0733396 0 0)
(0.0754643 0 0)
(0.0775889 0 0)
(0.0797134 0 0)
(0.0818377 0 0)
(0.083962 0 0)
(0.0860862 0 0)
(0.0882103 0 0)
(0.0903342 0 0)
(0.0924581 0 0)
(0.0945818 0 0)
(0.0967054 0 0)
(0.0988289 0 0)
(0.100952 0 0)
(0.103075 0 0)
(0.105199 0 0)
(0.107322 0 0)
(0.109444 0 0)
(0.111567 0 0)
(0.11369 0 0)
(0.115812 0 0)
(0.117934 0 0)
(0.120056 0 0)
(0.122178 0 0)
(0.1243 0 0)
(0.126422 0 0)
(0.128543 0 0)
(0.130665 0 0)
(0.132786 0 0)
(0.134907 0 0)
(0.137028 0 0)
(0.139148 0 0)
(0.141269 0 0)
(0.143389 0 0)
(0.145509 0 0)
(0.147629 0 0)
(0.149749 0 0)
(0.151868 0 0)
(0.153988 0 0)
(0.156107 0 0)
(0.158226 0 0)
(0.160344 0 0)
(0.162463 0 0)
(0.164581 0 0)
(0.166699 0 0)
(0.168817 0 0)
(0.170935 0 0)
(0.173052 0 0)
(0.175169 0 0)
(0.177286 0 0)
(0.179403 0 0)
(0.18152 0 0)
(0.183636 0 0)
(0.185752 0 0)
(0.187868 0 0)
(0.189984 0 0)
(0.192099 0 0)
(0.194214 0 0)
(0.196329 0 0)
(0.198443 0 0)
(0.200558 0 0)
(0.202672 0 0)
(0.204785 0 0)
(0.206899 0 0)
(0.209012 0 0)
(0.211125 0 0)
(0.213238 0 0)
(0.21535 0 0)
(0.217462 0 0)
(0.219574 0 0)
(0.221686 0 0)
(0.223797 0 0)
(0.225908 0 0)
(0.228019 0 0)
(0.230129 0 0)
(0.232239 0 0)
(0.234349 0 0)
(0.236458 0 0)
(0.238567 0 0)
(0.240676 0 0)
(0.242785 0 0)
(0.244893 0 0)
(0.247001 0 0)
(0.249108 0 0)
(0.251215 0 0)
(0.253322 0 0)
(0.255429 0 0)
(0.257535 0 0)
(0.25964 0 0)
(0.261746 0 0)
(0.263851 0 0)
(0.265956 0 0)
(0.26806 0 0)
(0.270164 0 0)
(0.272268 0 0)
(0.274371 0 0)
(0.276474 0 0)
(0.278576 0 0)
(0.280679 0 0)
(0.28278 0 0)
(0.284882 0 0)
(0.286983 0 0)
(0.289083 0 0)
(0.291183 0 0)
(0.293283 0 0)
(0.295383 0 0)
(0.297482 0 0)
(0.29958 0 0)
(0.301678 0 0)
(0.303776 0 0)
(0.305873 0 0)
(0.30797 0 0)
(0.310067 0 0)
(0.312163 0 0)
(0.314258 0 0)
(0.316353 0 0)
(0.318448 0 0)
(0.320542 0 0)
(0.322636 0 0)
(0.32473 0 0)
(0.326822 0 0)
(0.328915 0 0)
(0.331007 0 0)
(0.333098 0 0)
(0.335189 0 0)
(0.33728 0 0)
(0.33937 0 0)
(0.34146 0 0)
(0.343549 0 0)
(0.345637 0 0)
(0.347725 0 0)
(0.349813 0 0)
(0.3519 0 0)
(0.353987 0 0)
(0.356073 0 0)
(0.358158 0 0)
(0.360243 0 0)
(0.362328 0 0)
(0.364412 0 0)
(0.366495 0 0)
(0.368578 0 0)
(0.370661 0 0)
(0.372743 0 0)
(0.374824 0 0)
(0.376905 0 0)
(0.378985 0 0)
(0.381065 0 0)
(0.383144 0 0)
(0.385222 0 0)
(0.3873 0 0)
(0.389377 0 0)
(0.391454 0 0)
(0.39353 0 0)
(0.395606 0 0)
(0.397681 0 0)
(0.399755 0 0)
(0.401829 0 0)
(0.403902 0 0)
(0.405975 0 0)
(0.408047 0 0)
(0.410118 0 0)
(0.412189 0 0)
(0.414259 0 0)
(0.416329 0 0)
(0.418397 0 0)
(0.420466 0 0)
(0.422533 0 0)
(0.4246 0 0)
(0.426666 0 0)
(0.428732 0 0)
(0.430797 0 0)
(0.432861 0 0)
(0.434925 0 0)
(0.436987 0 0)
(0.43905 0 0)
(0.441111 0 0)
(0.443172 0 0)
(0.445232 0 0)
(0.447291 0 0)
(0.44935 0 0)
(0.451408 0 0)
(0.453465 0 0)
(0.455522 0 0)
(0.457578 0 0)
(0.459633 0 0)
(0.461687 0 0)
(0.463741 0 0)
(0.465794 0 0)
(0.467846 0 0)
(0.469897 0 0)
(0.471948 0 0)
(0.473997 0 0)
(0.476046 0 0)
(0.478095 0 0)
(0.480142 0 0)
(0.482189 0 0)
(0.484234 0 0)
(0.486279 0 0)
(0.488324 0 0)
(0.490367 0 0)
(0.49241 0 0)
(0.494451 0 0)
(0.496492 0 0)
(0.498532 0 0)
(0.500572 0 0)
(0.50261 0 0)
(0.504648 0 0)
(0.506684 0 0)
(0.50872 0 0)
(0.510755 0 0)
(0.512789 0 0)
(0.514822 0 0)
(0.516855 0 0)
(0.518886 0 0)
(0.520916 0 0)
(0.522946 0 0)
(0.524975 0 0)
(0.527002 0 0)
(0.529029 0 0)
(0.531055 0 0)
(0.53308 0 0)
(0.535104 0 0)
(0.537127 0 0)
(0.539149 0 0)
(0.54117 0 0)
(0.54319 0 0)
(0.545209 0 0)
(0.547227 0 0)
(0.549244 0 0)
(0.55126 0 0)
(0.553276 0 0)
(0.55529 0 0)
(0.557303 0 0)
(0.559315 0 0)
(0.561326 0 0)
(0.563336 0 0)
(0.565345 0 0)
(0.567352 0 0)
(0.569359 0 0)
(0.571365 0 0)
(0.573369 0 0)
(0.575373 0 0)
(0.577375 0 0)
(0.579377 0 0)
(0.581377 0 0)
(0.583376 0 0)
(0.585374 0 0)
(0.587371 0 0)
(0.589366 0 0)
(0.591361 0 0)
(0.593354 0 0)
(0.595346 0 0)
(0.597337 0 0)
(0.599327 0 0)
(0.601316 0 0)
(0.603303 0 0)
(0.605289 0 0)
(0.607274 0 0)
(0.609258 0 0)
(0.61124 0 0)
(0.613221 0 0)
(0.615201 0 0)
(0.61718 0 0)
(0.619158 0 0)
(0.621134 0 0)
(0.623108 0 0)
(0.625082 0 0)
(0.627054 0 0)
(0.629025 0 0)
(0.630995 0 0)
(0.632963 0 0)
(0.63493 0 0)
(0.636895 0 0)
(0.638859 0 0)
(0.640822 0 0)
(0.642783 0 0)
(0.644743 0 0)
(0.646702 0 0)
(0.648659 0 0)
(0.650615 0 0)
(0.652569 0 0)
(0.654522 0 0)
(0.656473 0 0)
(0.658423 0 0)
(0.660371 0 0)
(0.662318 0 0)
(0.664263 0 0)
(0.666207 0 0)
(0.668149 0 0)
(0.67009 0 0)
(0.672029 0 0)
(0.673967 0 0)
(0.675903 0 0)
(0.677837 0 0)
(0.67977 0 0)
(0.681701 0 0)
(0.683631 0 0)
(0.685558 0 0)
(0.687485 0 0)
(0.689409 0 0)
(0.691332 0 0)
(0.693253 0 0)
(0.695173 0 0)
(0.69709 0 0)
(0.699006 0 0)
(0.700921 0 0)
(0.702833 0 0)
(0.704744 0 0)
(0.706653 0 0)
(0.70856 0 0)
(0.710465 0 0)
(0.712368 0 0)
(0.71427 0 0)
(0.71617 0 0)
(0.718067 0 0)
(0.719963 0 0)
(0.721857 0 0)
(0.723749 0 0)
(0.72564 0 0)
(0.727528 0 0)
(0.729414 0 0)
(0.731298 0 0)
(0.73318 0 0)
(0.73506 0 0)
(0.736938 0 0)
(0.738814 0 0)
(0.740688 0 0)
(0.74256 0 0)
(0.74443 0 0)
(0.746297 0 0)
(0.748163 0 0)
(0.750026 0 0)
(0.751887 0 0)
(0.753746 0 0)
(0.755602 0 0)
(0.757457 0 0)
(0.759309 0 0)
(0.761158 0 0)
(0.763006 0 0)
(0.764851 0 0)
(0.766694 0 0)
(0.768534 0 0)
(0.770372 0 0)
(0.772208 0 0)
(0.774041 0 0)
(0.775871 0 0)
(0.7777 0 0)
(0.779525 0 0)
(0.781348 0 0)
(0.783169 0 0)
(0.784987 0 0)
(0.786802 0 0)
(0.788615 0 0)
(0.790425 0 0)
(0.792233 0 0)
(0.794037 0 0)
(0.795839 0 0)
(0.797638 0 0)
(0.799435 0 0)
(0.801228 0 0)
(0.803019 0 0)
(0.804807 0 0)
(0.806591 0 0)
(0.808429 0 0)
(0.785715 0 0)
(0.413405 0 0)
(-0.41217 0 0)
(-0.785539 0 0)
(-0.808426 0 0)
(-0.806588 0 0)
(-0.804805 0 0)
(-0.803017 0 0)
(-0.801226 0 0)
(-0.799432 0 0)
(-0.797636 0 0)
(-0.795837 0 0)
(-0.794035 0 0)
(-0.79223 0 0)
(-0.790423 0 0)
(-0.788613 0 0)
(-0.7868 0 0)
(-0.784985 0 0)
(-0.783167 0 0)
(-0.781346 0 0)
(-0.779523 0 0)
(-0.777697 0 0)
(-0.775869 0 0)
(-0.774038 0 0)
(-0.772205 0 0)
(-0.77037 0 0)
(-0.768532 0 0)
(-0.766691 0 0)
(-0.764849 0 0)
(-0.763003 0 0)
(-0.761156 0 0)
(-0.759306 0 0)
(-0.757454 0 0)
(-0.7556 0 0)
(-0.753743 0 0)
(-0.751885 0 0)
(-0.750024 0 0)
(-0.74816 0 0)
(-0.746295 0 0)
(-0.744427 0 0)
(-0.742558 0 0)
(-0.740686 0 0)
(-0.738812 0 0)
(-0.736936 0 0)
(-0.735058 0 0)
(-0.733178 0 0)
(-0.731296 0 0)
(-0.729411 0 0)
(-0.727525 0 0)
(-0.725637 0 0)
(-0.723747 0 0)
(-0.721855 0 0)
(-0.719961 0 0)
(-0.718065 0 0)
(-0.716167 0 0)
(-0.714268 0 0)
(-0.712366 0 0)
(-0.710463 0 0)
(-0.708558 0 0)
(-0.70665 0 0)
(-0.704742 0 0)
(-0.702831 0 0)
(-0.700918 0 0)
(-0.699004 0 0)
(-0.697088 0 0)
(-0.695171 0 0)
(-0.693251 0 0)
(-0.69133 0 0)
(-0.689407 0 0)
(-0.687483 0 0)
(-0.685556 0 0)
(-0.683628 0 0)
(-0.681699 0 0)
(-0.679768 0 0)
(-0.677835 0 0)
(-0.675901 0 0)
(-0.673965 0 0)
(-0.672027 0 0)
(-0.670088 0 0)
(-0.668147 0 0)
(-0.666205 0 0)
(-0.664261 0 0)
(-0.662316 0 0)
(-0.660369 0 0)
(-0.658421 0 0)
(-0.656471 0 0)
(-0.65452 0 0)
(-0.652567 0 0)
(-0.650613 0 0)
(-0.648657 0 0)
(-0.6467 0 0)
(-0.644741 0 0)
(-0.642781 0 0)
(-0.64082 0 0)
(-0.638857 0 0)
(-0.636893 0 0)
(-0.634928 0 0)
(-0.632961 0 0)
(-0.630993 0 0)
(-0.629023 0 0)
(-0.627052 0 0)
(-0.62508 0 0)
(-0.623107 0 0)
(-0.621132 0 0)
(-0.619156 0 0)
(-0.617178 0 0)
(-0.6152 0 0)
(-0.61322 0 0)
(-0.611238 0 0)
(-0.609256 0 0)
(-0.607272 0 0)
(-0.605287 0 0)
(-0.603301 0 0)
(-0.601314 0 0)
(-0.599325 0 0)
(-0.597335 0 0)
(-0.595344 0 0)
(-0.593352 0 0)
(-0.591359 0 0)
(-0.589364 0 0)
(-0.587369 0 0)
(-0.585372 0 0)
(-0.583374 0 0)
(-0.581375 0 0)
(-0.579375 0 0)
(-0.577374 0 0)
(-0.575371 0 0)
(-0.573368 0 0)
(-0.571363 0 0)
(-0.569357 0 0)
(-0.567351 0 0)
(-0.565343 0 0)
(-0.563334 0 0)
(-0.561324 0 0)
(-0.559313 0 0)
(-0.557301 0 0)
(-0.555288 0 0)
(-0.553274 0 0)
(-0.551259 0 0)
(-0.549243 0 0)
(-0.547226 0 0)
(-0.545208 0 0)
(-0.543188 0 0)
(-0.541168 0 0)
(-0.539147 0 0)
(-0.537125 0 0)
(-0.535102 0 0)
(-0.533078 0 0)
(-0.531053 0 0)
(-0.529028 0 0)
(-0.527001 0 0)
(-0.524973 0 0)
(-0.522944 0 0)
(-0.520915 0 0)
(-0.518884 0 0)
(-0.516853 0 0)
(-0.514821 0 0)
(-0.512788 0 0)
(-0.510754 0 0)
(-0.508719 0 0)
(-0.506683 0 0)
(-0.504646 0 0)
(-0.502609 0 0)
(-0.50057 0 0)
(-0.498531 0 0)
(-0.496491 0 0)
(-0.49445 0 0)
(-0.492408 0 0)
(-0.490366 0 0)
(-0.488322 0 0)
(-0.486278 0 0)
(-0.484233 0 0)
(-0.482187 0 0)
(-0.480141 0 0)
(-0.478093 0 0)
(-0.476045 0 0)
(-0.473996 0 0)
(-0.471946 0 0)
(-0.469896 0 0)
(-0.467844 0 0)
(-0.465792 0 0)
(-0.46374 0 0)
(-0.461686 0 0)
(-0.459632 0 0)
(-0.457577 0 0)
(-0.455521 0 0)
(-0.453464 0 0)
(-0.451407 0 0)
(-0.449349 0 0)
(-0.44729 0 0)
(-0.445231 0 0)
(-0.443171 0 0)
(-0.44111 0 0)
(-0.439049 0 0)
(-0.436986 0 0)
(-0.434924 0 0)
(-0.43286 0 0)
(-0.430796 0 0)
(-0.428731 0 0)
(-0.426665 0 0)
(-0.424599 0 0)
(-0.422532 0 0)
(-0.420465 0 0)
(-0.418396 0 0)
(-0.416328 0 0)
(-0.414258 0 0)
(-0.412188 0 0)
(-0.410117 0 0)
(-0.408046 0 0)
(-0.405974 0 0)
(-0.403901 0 0)
(-0.401828 0 0)
(-0.399754 0 0)
(-0.39768 0 0)
(-0.395605 0 0)
(-0.393529 0 0)
(-0.391453 0 0)
(-0.389377 0 0)
(-0.387299 0 0)
(-0.385221 0 0)
(-0.383143 0 0)
(-0.381064 0 0)
(-0.378984 0 0)
(-0.376904 0 0)
(-0.374823 0 0)
(-0.372742 0 0)
(-0.37066 0 0)
(-0.368578 0 0)
(-0.366495 0 0)
(-0.364411 0 0)
(-0.362327 0 0)
(-0.360243 0 0)
(-0.358158 0 0)
(-0.356072 0 0)
(-0.353986 0 0)
(-0.351899 0 0)
(-0.349812 0 0)
(-0.347725 0 0)
(-0.345637 0 0)
(-0.343548 0 0)
(-0.341459 0 0)
(-0.339369 0 0)
(-0.337279 0 0)
(-0.335189 0 0)
(-0.333098 0 0)
(-0.331006 0 0)
(-0.328914 0 0)
(-0.326822 0 0)
(-0.324729 0 0)
(-0.322636 0 0)
(-0.320542 0 0)
(-0.318448 0 0)
(-0.316353 0 0)
(-0.314258 0 0)
(-0.312162 0 0)
(-0.310066 0 0)
(-0.30797 0 0)
(-0.305873 0 0)
(-0.303775 0 0)
(-0.301678 0 0)
(-0.29958 0 0)
(-0.297481 0 0)
(-0.295382 0 0)
(-0.293283 0 0)
(-0.291183 0 0)
(-0.289083 0 0)
(-0.286982 0 0)
(-0.284881 0 0)
(-0.28278 0 0)
(-0.280678 0 0)
(-0.278576 0 0)
(-0.276473 0 0)
(-0.274371 0 0)
(-0.272267 0 0)
(-0.270164 0 0)
(-0.26806 0 0)
(-0.265955 0 0)
(-0.263851 0 0)
(-0.261745 0 0)
(-0.25964 0 0)
(-0.257534 0 0)
(-0.255428 0 0)
(-0.253322 0 0)
(-0.251215 0 0)
(-0.249108 0 0)
(-0.247 0 0)
(-0.244892 0 0)
(-0.242784 0 0)
(-0.240676 0 0)
(-0.238567 0 0)
(-0.236458 0 0)
(-0.234348 0 0)
(-0.232239 0 0)
(-0.230129 0 0)
(-0.228018 0 0)
(-0.225908 0 0)
(-0.223797 0 0)
(-0.221685 0 0)
(-0.219574 0 0)
(-0.217462 0 0)
(-0.21535 0 0)
(-0.213238 0 0)
(-0.211125 0 0)
(-0.209012 0 0)
(-0.206899 0 0)
(-0.204785 0 0)
(-0.202671 0 0)
(-0.200557 0 0)
(-0.198443 0 0)
(-0.196328 0 0)
(-0.194214 0 0)
(-0.192099 0 0)
(-0.189983 0 0)
(-0.187868 0 0)
(-0.185752 0 0)
(-0.183636 0 0)
(-0.18152 0 0)
(-0.179403 0 0)
(-0.177286 0 0)
(-0.175169 0 0)
(-0.173052 0 0)
(-0.170935 0 0)
(-0.168817 0 0)
(-0.166699 0 0)
(-0.164581 0 0)
(-0.162463 0 0)
(-0.160344 0 0)
(-0.158225 0 0)
(-0.156106 0 0)
(-0.153987 0 0)
(-0.151868 0 0)
(-0.149749 0 0)
(-0.147629 0 0)
(-0.145509 0 0)
(-0.143389 0 0)
(-0.141269 0 0)
(-0.139148 0 0)
(-0.137027 0 0)
(-0.134907 0 0)
(-0.132786 0 0)
(-0.130665 0 0)
(-0.128543 0 0)
(-0.126422 0 0)
(-0.1243 0 0)
(-0.122178 0 0)
(-0.120056 0 0)
(-0.117934 0 0)
(-0.115812 0 0)
(-0.11369 0 0)
(-0.111567 0 0)
(-0.109444 0 0)
(-0.107321 0 0)
(-0.105199 0 0)
(-0.103075 0 0)
(-0.100952 0 0)
(-0.0988288 0 0)
(-0.0967053 0 0)
(-0.0945817 0 0)
(-0.092458 0 0)
(-0.0903342 0 0)
(-0.0882102 0 0)
(-0.0860862 0 0)
(-0.083962 0 0)
(-0.0818377 0 0)
(-0.0797133 0 0)
(-0.0775888 0 0)
(-0.0754642 0 0)
(-0.0733396 0 0)
(-0.0712148 0 0)
(-0.0690899 0 0)
(-0.066965 0 0)
(-0.06484 0 0)
(-0.0627148 0 0)
(-0.0605897 0 0)
(-0.0584644 0 0)
(-0.056339 0 0)
(-0.0542136 0 0)
(-0.0520882 0 0)
(-0.0499626 0 0)
(-0.047837 0 0)
(-0.0457113 0 0)
(-0.0435856 0 0)
(-0.0414598 0 0)
(-0.039334 0 0)
(-0.0372081 0 0)
(-0.0350822 0 0)
(-0.0329562 0 0)
(-0.0308302 0 0)
(-0.0287041 0 0)
(-0.0265781 0 0)
(-0.0244519 0 0)
(-0.0223258 0 0)
(-0.0201996 0 0)
(-0.0180734 0 0)
(-0.0159472 0 0)
(-0.0138209 0 0)
(-0.0116947 0 0)
(-0.00956837 0 0)
(-0.00744208 0 0)
(-0.00531578 0 0)
(-0.00318947 0 0)
(-0.00106316 0 0)
)
;

boundaryField
{
    left
    {
        type            fixedValue;
        value           uniform (0 0 0);
    }
    right
    {
        type            fixedValue;
        value           uniform (0 0 0);
    }
    frontBackUpDown
    {
        type            empty;
    }
}


// ************************************************************************* //
