/*--------------------------------*- C++ -*----------------------------------*\
| =========                 |                                                 |
| \\      /  F ield         | OpenFOAM: The Open Source CFD Toolbox           |
|  \\    /   O peration     | Version:  2412                                  |
|   \\  /    A nd           | Website:  www.openfoam.com                      |
|    \\/     M anipulation  |                                                 |
\*---------------------------------------------------------------------------*/
FoamFile
{
    version     2.0;
    format      ascii;
    arch        "LSB;label=32;scalar=64";
    class       volVectorField;
    location    "0.86";
    object      U_0_0;
}
// * * * * * * * * * * * * * * * * * * * * * * * * * * * * * * * * * * * * * //

dimensions      [0 1 -1 0 0 0 0];

internalField   nonuniform List<vector> 
800
(
(0.0010627 0 0)
(0.00318811 0 0)
(0.00531351 0 0)
(0.00743891 0 0)
(0.00956431 0 0)
(0.0116897 0 0)
(0.013815 0 0)
(0.0159404 0 0)
(0.0180657 0 0)
(0.020191 0 0)
(0.0223163 0 0)
(0.0244416 0 0)
(0.0265668 0 0)
(0.028692 0 0)
(0.0308171 0 0)
(0.0329422 0 0)
(0.0350673 0 0)
(0.0371923 0 0)
(0.0393173 0 0)
(0.0414423 0 0)
(0.0435671 0 0)
(0.045692 0 0)
(0.0478167 0 0)
(0.0499414 0 0)
(0.0520661 0 0)
(0.0541907 0 0)
(0.0563152 0 0)
(0.0584396 0 0)
(0.060564 0 0)
(0.0626883 0 0)
(0.0648125 0 0)
(0.0669366 0 0)
(0.0690607 0 0)
(0.0711846 0 0)
(0.0733085 0 0)
(0.0754323 0 0)
(0.077556 0 0)
(0.0796796 0 0)
(0.0818031 0 0)
(0.0839264 0 0)
(0.0860497 0 0)
(0.0881729 0 0)
(0.090296 0 0)
(0.0924189 0 0)
(0.0945417 0 0)
(0.0966644 0 0)
(0.098787 0 0)
(0.100909 0 0)
(0.103032 0 0)
(0.105154 0 0)
(0.107276 0 0)
(0.109398 0 0)
(0.11152 0 0)
(0.113641 0 0)
(0.115763 0 0)
(0.117884 0 0)
(0.120006 0 0)
(0.122127 0 0)
(0.124248 0 0)
(0.126368 0 0)
(0.128489 0 0)
(0.130609 0 0)
(0.13273 0 0)
(0.13485 0 0)
(0.13697 0 0)
(0.139089 0 0)
(0.141209 0 0)
(0.143328 0 0)
(0.145447 0 0)
(0.147567 0 0)
(0.149685 0 0)
(0.151804 0 0)
(0.153922 0 0)
(0.156041 0 0)
(0.158159 0 0)
(0.160277 0 0)
(0.162394 0 0)
(0.164512 0 0)
(0.166629 0 0)
(0.168746 0 0)
(0.170863 0 0)
(0.172979 0 0)
(0.175095 0 0)
(0.177212 0 0)
(0.179327 0 0)
(0.181443 0 0)
(0.183559 0 0)
(0.185674 0 0)
(0.187789 0 0)
(0.189903 0 0)
(0.192018 0 0)
(0.194132 0 0)
(0.196246 0 0)
(0.19836 0 0)
(0.200473 0 0)
(0.202586 0 0)
(0.204699 0 0)
(0.206812 0 0)
(0.208924 0 0)
(0.211036 0 0)
(0.213148 0 0)
(0.21526 0 0)
(0.217371 0 0)
(0.219482 0 0)
(0.221592 0 0)
(0.223703 0 0)
(0.225813 0 0)
(0.227923 0 0)
(0.230032 0 0)
(0.232141 0 0)
(0.23425 0 0)
(0.236359 0 0)
(0.238467 0 0)
(0.240575 0 0)
(0.242682 0 0)
(0.24479 0 0)
(0.246897 0 0)
(0.249003 0 0)
(0.25111 0 0)
(0.253216 0 0)
(0.255321 0 0)
(0.257426 0 0)
(0.259531 0 0)
(0.261636 0 0)
(0.26374 0 0)
(0.265844 0 0)
(0.267948 0 0)
(0.270051 0 0)
(0.272153 0 0)
(0.274256 0 0)
(0.276358 0 0)
(0.27846 0 0)
(0.280561 0 0)
(0.282662 0 0)
(0.284762 0 0)
(0.286862 0 0)
(0.288962 0 0)
(0.291061 0 0)
(0.29316 0 0)
(0.295259 0 0)
(0.297357 0 0)
(0.299455 0 0)
(0.301552 0 0)
(0.303649 0 0)
(0.305745 0 0)
(0.307841 0 0)
(0.309937 0 0)
(0.312032 0 0)
(0.314127 0 0)
(0.316221 0 0)
(0.318315 0 0)
(0.320408 0 0)
(0.322501 0 0)
(0.324594 0 0)
(0.326686 0 0)
(0.328778 0 0)
(0.330869 0 0)
(0.332959 0 0)
(0.33505 0 0)
(0.337139 0 0)
(0.339228 0 0)
(0.341317 0 0)
(0.343405 0 0)
(0.345493 0 0)
(0.347581 0 0)
(0.349667 0 0)
(0.351754 0 0)
(0.353839 0 0)
(0.355925 0 0)
(0.358009 0 0)
(0.360094 0 0)
(0.362177 0 0)
(0.36426 0 0)
(0.366343 0 0)
(0.368425 0 0)
(0.370507 0 0)
(0.372588 0 0)
(0.374668 0 0)
(0.376748 0 0)
(0.378828 0 0)
(0.380906 0 0)
(0.382985 0 0)
(0.385062 0 0)
(0.387139 0 0)
(0.389216 0 0)
(0.391292 0 0)
(0.393367 0 0)
(0.395442 0 0)
(0.397516 0 0)
(0.39959 0 0)
(0.401663 0 0)
(0.403735 0 0)
(0.405807 0 0)
(0.407878 0 0)
(0.409949 0 0)
(0.412019 0 0)
(0.414088 0 0)
(0.416157 0 0)
(0.418225 0 0)
(0.420292 0 0)
(0.422359 0 0)
(0.424425 0 0)
(0.42649 0 0)
(0.428555 0 0)
(0.430619 0 0)
(0.432683 0 0)
(0.434746 0 0)
(0.436808 0 0)
(0.438869 0 0)
(0.44093 0 0)
(0.44299 0 0)
(0.445049 0 0)
(0.447108 0 0)
(0.449166 0 0)
(0.451223 0 0)
(0.453279 0 0)
(0.455335 0 0)
(0.45739 0 0)
(0.459444 0 0)
(0.461498 0 0)
(0.463551 0 0)
(0.465603 0 0)
(0.467654 0 0)
(0.469705 0 0)
(0.471754 0 0)
(0.473803 0 0)
(0.475852 0 0)
(0.477899 0 0)
(0.479946 0 0)
(0.481992 0 0)
(0.484037 0 0)
(0.486081 0 0)
(0.488125 0 0)
(0.490167 0 0)
(0.492209 0 0)
(0.49425 0 0)
(0.49629 0 0)
(0.49833 0 0)
(0.500368 0 0)
(0.502406 0 0)
(0.504442 0 0)
(0.506478 0 0)
(0.508513 0 0)
(0.510548 0 0)
(0.512581 0 0)
(0.514613 0 0)
(0.516645 0 0)
(0.518676 0 0)
(0.520705 0 0)
(0.522734 0 0)
(0.524762 0 0)
(0.526789 0 0)
(0.528815 0 0)
(0.53084 0 0)
(0.532864 0 0)
(0.534888 0 0)
(0.53691 0 0)
(0.538931 0 0)
(0.540952 0 0)
(0.542971 0 0)
(0.544989 0 0)
(0.547007 0 0)
(0.549023 0 0)
(0.551039 0 0)
(0.553053 0 0)
(0.555067 0 0)
(0.557079 0 0)
(0.55909 0 0)
(0.561101 0 0)
(0.56311 0 0)
(0.565118 0 0)
(0.567125 0 0)
(0.569131 0 0)
(0.571136 0 0)
(0.57314 0 0)
(0.575143 0 0)
(0.577145 0 0)
(0.579145 0 0)
(0.581145 0 0)
(0.583143 0 0)
(0.58514 0 0)
(0.587137 0 0)
(0.589132 0 0)
(0.591125 0 0)
(0.593118 0 0)
(0.59511 0 0)
(0.5971 0 0)
(0.599089 0 0)
(0.601077 0 0)
(0.603064 0 0)
(0.605049 0 0)
(0.607034 0 0)
(0.609017 0 0)
(0.610998 0 0)
(0.612979 0 0)
(0.614958 0 0)
(0.616936 0 0)
(0.618913 0 0)
(0.620889 0 0)
(0.622863 0 0)
(0.624836 0 0)
(0.626807 0 0)
(0.628778 0 0)
(0.630747 0 0)
(0.632714 0 0)
(0.634681 0 0)
(0.636645 0 0)
(0.638609 0 0)
(0.640571 0 0)
(0.642532 0 0)
(0.644491 0 0)
(0.646449 0 0)
(0.648406 0 0)
(0.650361 0 0)
(0.652314 0 0)
(0.654267 0 0)
(0.656217 0 0)
(0.658167 0 0)
(0.660114 0 0)
(0.662061 0 0)
(0.664005 0 0)
(0.665949 0 0)
(0.66789 0 0)
(0.669831 0 0)
(0.671769 0 0)
(0.673706 0 0)
(0.675642 0 0)
(0.677575 0 0)
(0.679508 0 0)
(0.681438 0 0)
(0.683367 0 0)
(0.685295 0 0)
(0.68722 0 0)
(0.689144 0 0)
(0.691067 0 0)
(0.692988 0 0)
(0.694906 0 0)
(0.696824 0 0)
(0.698739 0 0)
(0.700653 0 0)
(0.702565 0 0)
(0.704475 0 0)
(0.706384 0 0)
(0.70829 0 0)
(0.710195 0 0)
(0.712098 0 0)
(0.713999 0 0)
(0.715898 0 0)
(0.717796 0 0)
(0.719691 0 0)
(0.721585 0 0)
(0.723476 0 0)
(0.725366 0 0)
(0.727254 0 0)
(0.729139 0 0)
(0.731023 0 0)
(0.732905 0 0)
(0.734784 0 0)
(0.736662 0 0)
(0.738538 0 0)
(0.740411 0 0)
(0.742283 0 0)
(0.744152 0 0)
(0.746019 0 0)
(0.747884 0 0)
(0.749747 0 0)
(0.751608 0 0)
(0.753466 0 0)
(0.755322 0 0)
(0.757176 0 0)
(0.759028 0 0)
(0.760877 0 0)
(0.762725 0 0)
(0.764569 0 0)
(0.766412 0 0)
(0.768252 0 0)
(0.77009 0 0)
(0.771925 0 0)
(0.773758 0 0)
(0.775588 0 0)
(0.777416 0 0)
(0.779241 0 0)
(0.781064 0 0)
(0.782884 0 0)
(0.784702 0 0)
(0.786517 0 0)
(0.78833 0 0)
(0.79014 0 0)
(0.791947 0 0)
(0.793751 0 0)
(0.795553 0 0)
(0.797352 0 0)
(0.799148 0 0)
(0.800942 0 0)
(0.802732 0 0)
(0.80452 0 0)
(0.806303 0 0)
(0.808137 0 0)
(0.78534 0 0)
(0.413112 0 0)
(-0.411877 0 0)
(-0.785163 0 0)
(-0.808134 0 0)
(-0.806301 0 0)
(-0.804517 0 0)
(-0.80273 0 0)
(-0.800939 0 0)
(-0.799146 0 0)
(-0.79735 0 0)
(-0.795551 0 0)
(-0.793749 0 0)
(-0.791944 0 0)
(-0.790137 0 0)
(-0.788327 0 0)
(-0.786515 0 0)
(-0.7847 0 0)
(-0.782882 0 0)
(-0.781062 0 0)
(-0.779239 0 0)
(-0.777413 0 0)
(-0.775586 0 0)
(-0.773755 0 0)
(-0.771922 0 0)
(-0.770087 0 0)
(-0.768249 0 0)
(-0.766409 0 0)
(-0.764567 0 0)
(-0.762722 0 0)
(-0.760875 0 0)
(-0.759026 0 0)
(-0.757174 0 0)
(-0.75532 0 0)
(-0.753464 0 0)
(-0.751605 0 0)
(-0.749745 0 0)
(-0.747882 0 0)
(-0.746017 0 0)
(-0.74415 0 0)
(-0.74228 0 0)
(-0.740409 0 0)
(-0.738535 0 0)
(-0.73666 0 0)
(-0.734782 0 0)
(-0.732902 0 0)
(-0.731021 0 0)
(-0.729137 0 0)
(-0.727251 0 0)
(-0.725364 0 0)
(-0.723474 0 0)
(-0.721582 0 0)
(-0.719689 0 0)
(-0.717793 0 0)
(-0.715896 0 0)
(-0.713997 0 0)
(-0.712096 0 0)
(-0.710193 0 0)
(-0.708288 0 0)
(-0.706381 0 0)
(-0.704473 0 0)
(-0.702563 0 0)
(-0.700651 0 0)
(-0.698737 0 0)
(-0.696821 0 0)
(-0.694904 0 0)
(-0.692985 0 0)
(-0.691065 0 0)
(-0.689142 0 0)
(-0.687218 0 0)
(-0.685293 0 0)
(-0.683365 0 0)
(-0.681436 0 0)
(-0.679506 0 0)
(-0.677573 0 0)
(-0.675639 0 0)
(-0.673704 0 0)
(-0.671767 0 0)
(-0.669828 0 0)
(-0.667888 0 0)
(-0.665947 0 0)
(-0.664003 0 0)
(-0.662059 0 0)
(-0.660112 0 0)
(-0.658165 0 0)
(-0.656215 0 0)
(-0.654265 0 0)
(-0.652312 0 0)
(-0.650359 0 0)
(-0.648404 0 0)
(-0.646447 0 0)
(-0.644489 0 0)
(-0.64253 0 0)
(-0.640569 0 0)
(-0.638607 0 0)
(-0.636643 0 0)
(-0.634679 0 0)
(-0.632712 0 0)
(-0.630745 0 0)
(-0.628776 0 0)
(-0.626806 0 0)
(-0.624834 0 0)
(-0.622861 0 0)
(-0.620887 0 0)
(-0.618911 0 0)
(-0.616935 0 0)
(-0.614956 0 0)
(-0.612977 0 0)
(-0.610997 0 0)
(-0.609015 0 0)
(-0.607032 0 0)
(-0.605047 0 0)
(-0.603062 0 0)
(-0.601075 0 0)
(-0.599087 0 0)
(-0.597098 0 0)
(-0.595108 0 0)
(-0.593116 0 0)
(-0.591124 0 0)
(-0.58913 0 0)
(-0.587135 0 0)
(-0.585139 0 0)
(-0.583141 0 0)
(-0.581143 0 0)
(-0.579144 0 0)
(-0.577143 0 0)
(-0.575141 0 0)
(-0.573138 0 0)
(-0.571134 0 0)
(-0.569129 0 0)
(-0.567123 0 0)
(-0.565116 0 0)
(-0.563108 0 0)
(-0.561099 0 0)
(-0.559089 0 0)
(-0.557077 0 0)
(-0.555065 0 0)
(-0.553051 0 0)
(-0.551037 0 0)
(-0.549022 0 0)
(-0.547005 0 0)
(-0.544988 0 0)
(-0.542969 0 0)
(-0.54095 0 0)
(-0.53893 0 0)
(-0.536908 0 0)
(-0.534886 0 0)
(-0.532863 0 0)
(-0.530839 0 0)
(-0.528814 0 0)
(-0.526788 0 0)
(-0.524761 0 0)
(-0.522733 0 0)
(-0.520704 0 0)
(-0.518674 0 0)
(-0.516644 0 0)
(-0.514612 0 0)
(-0.51258 0 0)
(-0.510546 0 0)
(-0.508512 0 0)
(-0.506477 0 0)
(-0.504441 0 0)
(-0.502404 0 0)
(-0.500367 0 0)
(-0.498328 0 0)
(-0.496289 0 0)
(-0.494249 0 0)
(-0.492208 0 0)
(-0.490166 0 0)
(-0.488123 0 0)
(-0.48608 0 0)
(-0.484035 0 0)
(-0.48199 0 0)
(-0.479945 0 0)
(-0.477898 0 0)
(-0.47585 0 0)
(-0.473802 0 0)
(-0.471753 0 0)
(-0.469703 0 0)
(-0.467653 0 0)
(-0.465602 0 0)
(-0.46355 0 0)
(-0.461497 0 0)
(-0.459443 0 0)
(-0.457389 0 0)
(-0.455334 0 0)
(-0.453278 0 0)
(-0.451222 0 0)
(-0.449164 0 0)
(-0.447107 0 0)
(-0.445048 0 0)
(-0.442989 0 0)
(-0.440929 0 0)
(-0.438868 0 0)
(-0.436807 0 0)
(-0.434744 0 0)
(-0.432682 0 0)
(-0.430618 0 0)
(-0.428554 0 0)
(-0.426489 0 0)
(-0.424424 0 0)
(-0.422358 0 0)
(-0.420291 0 0)
(-0.418224 0 0)
(-0.416156 0 0)
(-0.414087 0 0)
(-0.412018 0 0)
(-0.409948 0 0)
(-0.407877 0 0)
(-0.405806 0 0)
(-0.403734 0 0)
(-0.401662 0 0)
(-0.399589 0 0)
(-0.397515 0 0)
(-0.395441 0 0)
(-0.393366 0 0)
(-0.391291 0 0)
(-0.389215 0 0)
(-0.387139 0 0)
(-0.385062 0 0)
(-0.382984 0 0)
(-0.380906 0 0)
(-0.378827 0 0)
(-0.376747 0 0)
(-0.374667 0 0)
(-0.372587 0 0)
(-0.370506 0 0)
(-0.368424 0 0)
(-0.366342 0 0)
(-0.36426 0 0)
(-0.362177 0 0)
(-0.360093 0 0)
(-0.358009 0 0)
(-0.355924 0 0)
(-0.353839 0 0)
(-0.351753 0 0)
(-0.349667 0 0)
(-0.34758 0 0)
(-0.345493 0 0)
(-0.343405 0 0)
(-0.341317 0 0)
(-0.339228 0 0)
(-0.337139 0 0)
(-0.335049 0 0)
(-0.332959 0 0)
(-0.330868 0 0)
(-0.328777 0 0)
(-0.326685 0 0)
(-0.324593 0 0)
(-0.322501 0 0)
(-0.320408 0 0)
(-0.318314 0 0)
(-0.316221 0 0)
(-0.314126 0 0)
(-0.312032 0 0)
(-0.309936 0 0)
(-0.307841 0 0)
(-0.305745 0 0)
(-0.303648 0 0)
(-0.301551 0 0)
(-0.299454 0 0)
(-0.297357 0 0)
(-0.295258 0 0)
(-0.29316 0 0)
(-0.291061 0 0)
(-0.288962 0 0)
(-0.286862 0 0)
(-0.284762 0 0)
(-0.282661 0 0)
(-0.28056 0 0)
(-0.278459 0 0)
(-0.276357 0 0)
(-0.274255 0 0)
(-0.272153 0 0)
(-0.27005 0 0)
(-0.267947 0 0)
(-0.265844 0 0)
(-0.26374 0 0)
(-0.261636 0 0)
(-0.259531 0 0)
(-0.257426 0 0)
(-0.255321 0 0)
(-0.253215 0 0)
(-0.251109 0 0)
(-0.249003 0 0)
(-0.246896 0 0)
(-0.244789 0 0)
(-0.242682 0 0)
(-0.240575 0 0)
(-0.238467 0 0)
(-0.236358 0 0)
(-0.23425 0 0)
(-0.232141 0 0)
(-0.230032 0 0)
(-0.227922 0 0)
(-0.225813 0 0)
(-0.223702 0 0)
(-0.221592 0 0)
(-0.219481 0 0)
(-0.21737 0 0)
(-0.215259 0 0)
(-0.213148 0 0)
(-0.211036 0 0)
(-0.208924 0 0)
(-0.206811 0 0)
(-0.204699 0 0)
(-0.202586 0 0)
(-0.200473 0 0)
(-0.198359 0 0)
(-0.196246 0 0)
(-0.194132 0 0)
(-0.192018 0 0)
(-0.189903 0 0)
(-0.187788 0 0)
(-0.185673 0 0)
(-0.183558 0 0)
(-0.181443 0 0)
(-0.179327 0 0)
(-0.177211 0 0)
(-0.175095 0 0)
(-0.172979 0 0)
(-0.170862 0 0)
(-0.168746 0 0)
(-0.166629 0 0)
(-0.164511 0 0)
(-0.162394 0 0)
(-0.160276 0 0)
(-0.158159 0 0)
(-0.15604 0 0)
(-0.153922 0 0)
(-0.151804 0 0)
(-0.149685 0 0)
(-0.147566 0 0)
(-0.145447 0 0)
(-0.143328 0 0)
(-0.141209 0 0)
(-0.139089 0 0)
(-0.136969 0 0)
(-0.13485 0 0)
(-0.132729 0 0)
(-0.130609 0 0)
(-0.128489 0 0)
(-0.126368 0 0)
(-0.124247 0 0)
(-0.122127 0 0)
(-0.120005 0 0)
(-0.117884 0 0)
(-0.115763 0 0)
(-0.113641 0 0)
(-0.11152 0 0)
(-0.109398 0 0)
(-0.107276 0 0)
(-0.105154 0 0)
(-0.103032 0 0)
(-0.100909 0 0)
(-0.098787 0 0)
(-0.0966644 0 0)
(-0.0945417 0 0)
(-0.0924188 0 0)
(-0.0902959 0 0)
(-0.0881728 0 0)
(-0.0860497 0 0)
(-0.0839264 0 0)
(-0.081803 0 0)
(-0.0796795 0 0)
(-0.0775559 0 0)
(-0.0754323 0 0)
(-0.0733085 0 0)
(-0.0711846 0 0)
(-0.0690607 0 0)
(-0.0669366 0 0)
(-0.0648125 0 0)
(-0.0626883 0 0)
(-0.060564 0 0)
(-0.0584396 0 0)
(-0.0563152 0 0)
(-0.0541907 0 0)
(-0.0520661 0 0)
(-0.0499414 0 0)
(-0.0478167 0 0)
(-0.045692 0 0)
(-0.0435671 0 0)
(-0.0414422 0 0)
(-0.0393173 0 0)
(-0.0371923 0 0)
(-0.0350673 0 0)
(-0.0329422 0 0)
(-0.0308171 0 0)
(-0.028692 0 0)
(-0.0265668 0 0)
(-0.0244416 0 0)
(-0.0223163 0 0)
(-0.020191 0 0)
(-0.0180657 0 0)
(-0.0159404 0 0)
(-0.0138151 0 0)
(-0.0116897 0 0)
(-0.00956431 0 0)
(-0.00743892 0 0)
(-0.00531352 0 0)
(-0.00318812 0 0)
(-0.00106271 0 0)
)
;

boundaryField
{
    left
    {
        type            fixedValue;
        value           uniform (0 0 0);
    }
    right
    {
        type            fixedValue;
        value           uniform (0 0 0);
    }
    frontBackUpDown
    {
        type            empty;
    }
}


// ************************************************************************* //
