/*--------------------------------*- C++ -*----------------------------------*\
| =========                 |                                                 |
| \\      /  F ield         | OpenFOAM: The Open Source CFD Toolbox           |
|  \\    /   O peration     | Version:  2412                                  |
|   \\  /    A nd           | Website:  www.openfoam.com                      |
|    \\/     M anipulation  |                                                 |
\*---------------------------------------------------------------------------*/
FoamFile
{
    version     2.0;
    format      ascii;
    arch        "LSB;label=32;scalar=64";
    class       volScalarField;
    location    "5.75";
    object      p;
}
// * * * * * * * * * * * * * * * * * * * * * * * * * * * * * * * * * * * * * //

dimensions      [0 2 -2 0 0 0 0];

internalField   nonuniform List<scalar> 
2200
(
0.0525471
0.0525257
0.0531299
0.0553765
0.0620083
0.0769031
0.105066
0.153726
0.23045
0.339747
0.459894
0.556591
0.620707
0.660169
0.682852
0.695213
0.701503
0.704177
0.705366
0.705719
0.0462969
0.0464827
0.0478544
0.0512114
0.0592409
0.0754248
0.105702
0.155859
0.233043
0.344777
0.465286
0.560546
0.623133
0.661539
0.683502
0.694788
0.70018
0.70226
0.702642
0.702774
0.0397769
0.0396361
0.0416591
0.0469662
0.057352
0.0768608
0.110378
0.162155
0.240912
0.355488
0.476298
0.571056
0.633789
0.671255
0.690448
0.698897
0.702908
0.704735
0.704812
0.705247
0.033013
0.0328376
0.0348712
0.0408676
0.0545518
0.07873
0.115623
0.172085
0.254513
0.369829
0.492607
0.590513
0.652207
0.685335
0.701149
0.707036
0.709124
0.710795
0.711841
0.712289
0.025563
0.0253451
0.0253047
0.029447
0.0440293
0.0711172
0.112722
0.178333
0.268508
0.39022
0.516388
0.613932
0.672482
0.701671
0.714682
0.72
0.722174
0.72349
0.727059
0.727658
0.0196435
0.0189053
0.0175364
0.0202906
0.0312848
0.0554435
0.103567
0.175164
0.27304
0.405454
0.538476
0.637009
0.696412
0.726296
0.737872
0.745404
0.751362
0.751517
0.755974
0.75742
0.0184903
0.0171193
0.0169793
0.0211557
0.0262732
0.0454538
0.0914272
0.163676
0.270524
0.415517
0.557719
0.663177
0.725322
0.759282
0.776669
0.789703
0.799617
0.801006
0.804796
0.806782
0.0242354
0.0221595
0.023141
0.0274946
0.0305178
0.044345
0.0805522
0.14726
0.263396
0.425508
0.580225
0.69374
0.76226
0.807459
0.839094
0.859061
0.869714
0.874174
0.876899
0.879717
0.0353583
0.0332238
0.0343673
0.0377185
0.0425645
0.056959
0.0831506
0.142412
0.258079
0.432697
0.605981
0.736201
0.821162
0.886191
0.933553
0.958013
0.965987
0.975094
0.9761
0.979513
0.0429617
0.0410747
0.0421008
0.0444846
0.0568238
0.0778003
0.106232
0.167217
0.279561
0.457954
0.652239
0.81083
0.921315
0.99912
1.05008
1.07284
1.0817
1.09591
1.09586
1.0989
0.041052
0.0394104
0.0400513
0.0422076
0.0622432
0.0935909
0.139196
0.21564
0.335746
0.522324
0.739373
0.928114
1.06149
1.13988
1.18185
1.2028
1.20774
1.22368
1.22556
1.22839
0.0226078
0.0211422
0.0220062
0.0244891
0.0494422
0.0913255
0.166286
0.274274
0.419639
0.632957
0.877643
1.09049
1.23155
1.30241
1.32582
1.34712
1.34879
1.36504
1.36967
1.37295
-0.0067998
-0.00948485
-0.0112839
-0.0112633
0.0116076
0.0637124
0.167912
0.318707
0.518367
0.786515
1.06839
1.29131
1.4198
1.47175
1.48573
1.5077
1.5192
1.53392
1.54306
1.5468
-0.029074
-0.0322551
-0.0367236
-0.0368372
-0.0207054
0.030503
0.14579
0.333577
0.606099
0.951981
1.28113
1.5058
1.61654
1.66373
1.69112
1.71692
1.73766
1.75396
1.76585
1.77063
-0.0285689
-0.0325753
-0.0401263
-0.040003
-0.0243544
0.0239293
0.13921
0.338863
0.660898
1.08385
1.46855
1.71663
1.8361
1.90999
1.96297
1.99755
2.02419
2.04189
2.05439
2.0594
-0.0255519
-0.027558
-0.0318226
-0.0322722
-0.0133378
0.0379971
0.142906
0.344008
0.690571
1.16917
1.6191
1.92839
2.10258
2.22008
2.30417
2.34496
2.3749
2.39623
2.40937
2.41435
-0.0249324
-0.0281553
-0.0338241
-0.0353717
-0.0136674
0.0429746
0.143171
0.353963
0.716712
1.23827
1.7643
2.16335
2.42372
2.5935
2.69256
2.74399
2.78022
2.80634
2.81956
2.82424
-0.0477397
-0.0500017
-0.0552305
-0.0607537
-0.040486
0.0318848
0.155454
0.386796
0.770359
1.34242
1.96137
2.46895
2.82126
3.02596
3.13176
3.19916
3.24135
3.27028
3.28501
3.29047
-0.104099
-0.106964
-0.112172
-0.117031
-0.0963007
-0.0130953
0.157578
0.450632
0.908853
1.57508
2.30878
2.9181
3.3188
3.52891
3.63368
3.71625
3.76329
3.79738
3.81426
3.81995
-0.192241
-0.195779
-0.201557
-0.205435
-0.183939
-0.0937777
0.127524
0.523194
1.13781
1.9742
2.8383
3.49914
3.89211
4.10378
4.20606
4.29908
4.35537
4.39331
4.41239
4.41917
-0.343767
-0.345522
-0.349702
-0.352037
-0.317662
-0.208866
0.0528981
0.537137
1.3361
2.38649
3.39345
4.09215
4.49146
4.73389
4.85769
4.96169
5.02308
5.06617
5.08838
5.09511
-0.574304
-0.577132
-0.580692
-0.5764
-0.532045
-0.394185
-0.0889038
0.465967
1.40622
2.62844
3.79233
4.60805
5.10591
5.42099
5.59114
5.70374
5.77281
5.81621
5.83897
5.84699
-0.934279
-0.931752
-0.92814
-0.916038
-0.847642
-0.658923
-0.278877
0.380853
1.44564
2.79933
4.14293
5.16227
5.80778
6.18484
6.38468
6.50779
6.58677
6.63551
6.66157
6.66678
-1.47548
-1.47162
-1.45703
-1.41488
-1.29297
-1.01031
-0.49126
0.344542
1.61705
3.1734
4.70927
5.89042
6.61997
7.01447
7.23423
7.36829
7.45155
7.50259
7.53944
7.54789
-2.27318
-2.24508
-2.1936
-2.08961
-1.87107
-1.45443
-0.739015
0.358426
1.93598
3.7593
5.48332
6.75181
7.50376
7.91162
8.15019
8.29083
8.38668
8.44842
8.48737
8.50202
-3.40629
-3.33623
-3.17402
-2.93195
-2.56104
-1.95435
-1.00559
0.392323
2.25615
4.33986
6.28725
7.66036
8.44165
8.88439
9.15638
9.30476
9.40235
9.47368
9.50358
9.50723
-4.93707
-4.71296
-4.33539
-3.89077
-3.31395
-2.4706
-1.25569
0.432839
2.56029
4.93993
7.19288
8.75275
9.62676
10.1526
10.4556
10.6541
10.7758
10.8444
10.902
10.8948
-6.84103
-6.22422
-5.56599
-4.90972
-4.10315
-3.00281
-1.48867
0.511599
2.92832
5.64409
8.26209
10.0702
11.0418
11.6955
12.0736
12.3233
12.5142
12.6551
12.7587
12.7681
-8.55415
-7.70083
-6.8247
-5.95315
-4.91099
-3.54351
-1.71711
0.618709
3.35788
6.40093
9.31617
11.2817
12.4264
13.1341
13.6144
13.9414
14.1702
14.3404
14.4736
14.4889
-9.9538
-8.96979
-7.98534
-6.93916
-5.67192
-4.06211
-1.95226
0.709007
3.77641
7.11265
10.2636
12.3782
13.647
14.4234
14.9522
15.3259
15.6037
15.8232
15.9903
16.0165
-11.1279
-10.0641
-8.9958
-7.79315
-6.3381
-4.52681
-2.17301
0.769245
4.11853
7.69648
11.0435
13.3017
14.6547
15.4927
16.0692
16.494
16.7994
17.0208
17.1974
17.2335
-12.1244
-10.9555
-9.83206
-8.5133
-6.92476
-4.919
-2.34739
0.817939
4.37367
8.15416
11.6369
14.0099
15.4226
16.317
16.9226
17.3618
17.6973
17.9641
18.1727
18.2215
-12.9539
-11.6491
-10.5122
-9.13764
-7.42761
-5.24387
-2.47177
0.852825
4.55214
8.49038
12.074
14.5268
15.988
16.9153
17.5428
18.0225
18.4006
18.6951
18.9401
19.0024
-13.6191
-12.2028
-11.0841
-9.66132
-7.83544
-5.50317
-2.57061
0.851562
4.65976
8.7191
12.3721
14.8705
16.3636
17.3345
18.0132
18.527
18.9337
19.2416
19.4988
19.5596
-14.2235
-12.6983
-11.541
-10.0485
-8.13113
-5.68713
-2.66915
0.80507
4.69592
8.84449
12.5427
15.0673
16.6086
17.6364
18.3594
18.912
19.3553
19.6837
19.9642
20.0061
-14.7306
-13.1323
-11.9438
-10.3284
-8.30682
-5.79263
-2.77167
0.726275
4.6722
8.87997
12.6051
15.1633
16.7694
17.8654
18.6571
19.2518
19.7255
20.0395
20.3423
20.3908
-15.1459
-13.5379
-12.264
-10.5092
-8.38374
-5.8588
-2.86577
0.640448
4.61129
8.84915
12.585
15.1914
16.8819
18.0585
18.92
19.5408
20.0509
20.3771
20.6727
20.7312
-15.5033
-13.8899
-12.5085
-10.5987
-8.41976
-5.91326
-2.94192
0.561852
4.53592
8.77815
12.5187
15.1802
16.9746
18.2226
19.1666
19.812
20.3259
20.6951
20.9845
21.0457
-15.8035
-14.1844
-12.6606
-10.6481
-8.45749
-5.96019
-2.99912
0.497345
4.46199
8.68611
12.4279
15.1617
17.0418
18.3714
19.3478
20.0592
20.6083
21.0013
21.2845
21.3516
-16.0815
-14.4055
-12.7844
-10.7405
-8.52802
-6.01461
-3.04451
0.44852
4.39461
8.58416
12.334
15.1211
17.0727
18.4702
19.5026
20.273
20.8635
21.2856
21.5868
21.649
-16.294
-14.606
-12.9563
-10.8728
-8.63686
-6.08855
-3.08711
0.408087
4.32755
8.47405
12.2269
15.0471
17.0544
18.5231
19.6313
20.4614
21.1029
21.5574
21.8737
21.9405
-16.5367
-14.8292
-13.1256
-11.0466
-8.78302
-6.18645
-3.14473
0.359385
4.24837
8.35098
12.0921
14.9292
16.9835
18.5274
19.7195
20.6263
21.3312
21.8259
22.158
22.2257
-16.7801
-15.1138
-13.391
-11.2868
-8.96654
-6.31764
-3.23497
0.284058
4.14419
8.2072
11.9229
14.7685
16.8687
18.4915
19.7755
20.7686
21.5405
22.0812
22.4337
22.5059
-17.0763
-15.3734
-13.6733
-11.5511
-9.18833
-6.48753
-3.3635
0.169031
4.00644
8.03624
11.7214
14.5734
16.7196
18.4202
19.7941
20.8797
21.731
22.3326
22.7002
22.7326
-17.4532
-15.7155
-13.9685
-11.8352
-9.43137
-6.68856
-3.53136
0.00950859
3.83219
7.83641
11.4955
14.3557
16.5424
18.3071
19.764
20.9505
21.9024
22.5745
22.9544
22.9418
-17.8232
-16.0612
-14.2901
-12.0987
-9.67901
-6.91149
-3.73665
-0.192483
3.62318
7.61164
11.2557
14.1246
16.3381
18.148
19.6785
20.9653
22.0295
22.8173
23.2664
23.1018
-18.1999
-16.3315
-14.5191
-12.3405
-9.93192
-7.15083
-3.96899
-0.425631
3.38658
7.3668
11.0022
13.8725
16.0957
17.9295
19.509
20.8881
22.0867
23.0365
23.6715
23.6807
-18.5581
-16.6943
-14.8773
-12.6532
-10.184
-7.39801
-4.2129
-0.675174
3.13103
7.10372
10.7269
13.5818
15.7919
17.624
19.2245
20.6533
21.9378
23.0407
23.5322
23.4456
-18.9376
-17.1277
-15.3619
-12.987
-10.426
-7.64018
-4.45181
-0.922954
2.87354
6.83451
10.4329
13.2504
15.4244
17.2259
18.8005
20.2087
21.4501
22.383
22.7066
22.6906
-19.2961
-17.4543
-15.5987
-13.1544
-10.6775
-7.86987
-4.68439
-1.16426
2.61913
6.56004
10.1166
12.8752
14.9885
16.7271
18.2254
19.5307
20.6193
21.2145
21.4189
21.5291
-19.5298
-17.6122
-15.6808
-13.3354
-10.9434
-8.09459
-4.91647
-1.4006
2.36637
6.27578
9.77493
12.4573
14.4847
16.1245
17.4915
18.6246
19.5119
19.9928
20.1289
20.3254
-19.7522
-17.9816
-16.1491
-13.7639
-11.2022
-8.34881
-5.15375
-1.63983
2.10687
5.97236
9.40403
11.9992
13.9151
15.4155
16.6138
17.5612
18.262
18.6274
18.678
18.9729
-20.0833
-18.4844
-16.6977
-14.1629
-11.4715
-8.6323
-5.39372
-1.88624
1.83562
5.64545
9.00475
11.5056
13.2866
14.6123
15.6196
16.3721
16.8303
17.0567
17.1371
17.467
-20.4025
-18.6928
-16.7855
-14.2852
-11.7658
-8.88316
-5.63007
-2.13331
1.55644
5.3017
8.58597
10.987
12.6178
13.7447
14.5439
15.1046
15.3608
15.3386
15.2152
15.4261
-20.5976
-18.7883
-16.8341
-14.4918
-12.0317
-9.09049
-5.85914
-2.37414
1.27419
4.9507
8.15798
10.4558
11.9346
12.8548
13.4247
13.776
13.8165
13.2542
12.3086
12.3955
-20.8424
-19.1001
-17.2259
-14.8447
-12.2374
-9.30291
-6.07246
-2.60729
0.993542
4.60158
7.72873
9.9229
11.2622
11.9895
12.3091
12.3683
12.1899
11.1186
8.8846
6.88926
-21.1685
-19.4261
-17.4758
-15.0145
-12.4122
-9.50364
-6.26271
-2.83076
0.723745
4.26695
7.31132
9.40537
10.627
11.1962
11.2781
10.9917
10.4868
9.46458
5.65006
-4.46812
-21.4105
-19.5947
-17.542
-15.1013
-12.5768
-9.65472
-6.43484
-3.04045
0.469536
3.94937
6.90462
8.89948
10.0235
10.4775
10.3804
9.85444
9.13993
8.47751
7.87617
3.94523
-21.6118
-19.7967
-17.7594
-15.3013
-12.7342
-9.79295
-6.60397
-3.24397
0.221096
3.63611
6.4992
8.40048
9.45
9.84599
9.71111
9.25456
8.69032
8.68225
9.58174
8.66818
-21.8632
-20.0805
-18.0204
-15.5023
-12.8894
-9.94834
-6.77534
-3.44831
-0.027248
3.32303
6.10188
7.92834
8.9358
9.34915
9.33512
9.10805
8.81746
8.74971
9.21589
8.739
-22.0859
-20.3106
-18.2037
-15.6583
-13.0524
-10.11
-6.95374
-3.659
-0.279807
3.00886
5.72086
7.50245
8.50683
8.99857
9.18017
9.11338
8.92167
8.69775
8.80888
8.75119
-22.2795
-20.5118
-18.3965
-15.8314
-13.2315
-10.2798
-7.14333
-3.87765
-0.537626
2.69651
5.36552
7.1392
8.17807
8.76457
9.07805
9.15848
9.02974
8.78194
8.89061
8.9322
-22.4597
-20.7187
-18.6067
-16.0169
-13.4283
-10.4608
-7.34218
-4.10448
-0.797838
2.39357
5.04401
6.8473
7.94586
8.61702
9.01676
9.21817
9.19284
9.02854
9.1243
9.15795
-22.6255
-20.9062
-18.7736
-16.1955
-13.6283
-10.6339
-7.54173
-4.33407
-1.05211
2.10993
4.76274
6.62419
7.80041
8.5448
9.01776
9.32201
9.43232
9.35031
9.3987
9.41828
-22.7228
-21.0536
-18.9086
-16.3695
-13.8131
-10.7814
-7.73517
-4.55731
-1.29094
1.85531
4.52644
6.46066
7.72861
8.55671
9.09958
9.48618
9.73
9.73796
9.76517
9.78876
-22.7631
-21.1636
-19.0036
-16.516
-13.9296
-10.8954
-7.91624
-4.75827
-1.50407
1.63493
4.33891
6.35015
7.72116
8.64958
9.27069
9.73651
10.1177
10.2482
10.3027
10.3367
-22.7072
-21.1921
-19.04
-16.5814
-13.9481
-11.0108
-8.06995
-4.91944
-1.68992
1.45144
4.19998
6.28899
7.76802
8.81654
9.54962
10.1232
10.6139
10.927
11.0654
11.1175
-22.5343
-21.1076
-18.9652
-16.5334
-13.9249
-11.0923
-8.15982
-5.03806
-1.84472
1.30298
4.10167
6.26994
7.8622
9.04914
9.92964
10.6165
11.1992
11.6468
11.8676
11.9241
-22.2
-20.8789
-18.7696
-16.3983
-13.8546
-11.0932
-8.19423
-5.12119
-1.97273
1.18246
4.03118
6.27785
7.97905
9.30565
10.3285
11.1195
11.7526
12.2365
12.508
12.5725
-21.6607
-20.466
-18.4327
-16.1506
-13.6954
-11.0151
-8.17905
-5.17211
-2.07104
1.07793
3.96562
6.27832
8.06856
9.50192
10.6185
11.4389
12.062
12.5377
12.8336
12.9123
-20.9224
-19.8866
-17.9609
-15.7994
-13.4496
-10.869
-8.11664
-5.18719
-2.14363
0.976114
3.87537
6.22601
8.05774
9.51004
10.6132
11.4108
12.0191
12.501
12.8192
12.9131
-19.9114
-19.0749
-17.3335
-15.3383
-13.1245
-10.6634
-8.00773
-5.16847
-2.20272
0.857985
3.72415
6.05369
7.84088
9.23083
10.2913
11.0883
11.7054
12.1853
12.5069
12.6193
-18.7698
-18.1712
-16.6409
-14.8165
-12.7334
-10.3927
-7.84664
-5.11803
-2.25836
0.701628
3.47281
5.70581
7.40209
8.74495
9.8072
10.6166
11.2342
11.7026
12.024
12.1538
-17.5375
-17.2227
-15.9582
-14.2773
-12.2986
-10.0683
-7.64256
-5.04574
-2.32514
0.488416
3.11091
5.22589
6.85961
8.18021
9.23129
10.0262
10.6326
11.0939
11.4207
11.5735
-16.795
-16.7032
-15.4142
-13.7323
-11.8073
-9.68243
-7.39113
-4.94894
-2.39926
0.232832
2.6898
4.69366
6.25256
7.49731
8.47341
9.21918
9.80277
10.2568
10.5908
10.7748
-16.2509
-16.115
-14.8895
-13.2098
-11.3009
-9.2495
-7.08094
-4.81024
-2.45862
-0.0268849
2.25522
4.10653
5.51836
6.62183
7.47969
8.14105
8.6564
9.05535
9.35613
9.543
-15.1019
-14.9819
-13.924
-12.363
-10.5541
-8.62884
-6.64769
-4.59212
-2.45569
-0.232939
1.862
3.53912
4.79079
5.75938
6.50582
7.0643
7.47604
7.77341
7.97941
8.10415
-13.3644
-13.3807
-12.4203
-10.9868
-9.39421
-7.74342
-6.04522
-4.25123
-2.35557
-0.368925
1.50958
3.00401
4.10904
4.95618
5.60665
6.06996
6.39086
6.60516
6.73358
6.79921
-10.6258
-10.7123
-10.1569
-9.13
-7.95163
-6.65525
-5.27119
-3.77826
-2.16867
-0.460859
1.16117
2.44614
3.38713
4.09407
4.62285
4.98114
5.21476
5.3635
5.4471
5.48286
-7.43614
-7.45292
-7.27288
-6.8625
-6.21676
-5.34401
-4.33695
-3.18062
-1.89067
-0.48894
0.858934
1.93395
2.71112
3.27532
3.68705
3.959
4.13093
4.23602
4.29445
4.32414
-4.56585
-4.56856
-4.53965
-4.47352
-4.27312
-3.8751
-3.27994
-2.47414
-1.51751
-0.436661
0.633471
1.50732
2.13051
2.56385
2.87877
3.08822
3.22213
3.30588
3.35707
3.38677
-2.41223
-2.42694
-2.45641
-2.51444
-2.52294
-2.43473
-2.20261
-1.72009
-1.09036
-0.316933
0.496297
1.18259
1.6699
1.99674
2.23803
2.40286
2.51554
2.59396
2.6429
2.67338
-1.14703
-1.16594
-1.20365
-1.25715
-1.28586
-1.29869
-1.26268
-1.02365
-0.670069
-0.14965
0.443815
0.961746
1.33873
1.58887
1.78186
1.91568
2.01226
2.08468
2.12558
2.14652
-0.460823
-0.488213
-0.549743
-0.601997
-0.610587
-0.613726
-0.60408
-0.487181
-0.307078
0.0358897
0.452848
0.830699
1.12403
1.32228
1.48269
1.59254
1.6727
1.73435
1.76374
1.77546
-0.11654
-0.143236
-0.215295
-0.283948
-0.29882
-0.28782
-0.24744
-0.157717
-0.0480461
0.19392
0.487965
0.764706
0.996352
1.15546
1.28969
1.37938
1.43416
1.48374
1.50094
1.50754
0.0329876
0.0142125
-0.0461981
-0.116422
-0.143771
-0.140317
-0.09526
-0.00487088
0.0867585
0.290727
0.520492
0.7342
0.921525
1.04342
1.1519
1.22528
1.25408
1.27696
1.2843
1.28773
0.0886585
0.0771353
0.0376521
-0.0111768
-0.039251
-0.0571243
-0.0373757
0.0353401
0.134744
0.331012
0.531484
0.705361
0.859175
0.945295
1.02055
1.07541
1.08313
1.0908
1.08938
1.09146
0.129416
0.122049
0.0972058
0.0660688
0.0424967
0.00651114
-0.00075111
0.0519022
0.151305
0.331397
0.504413
0.645561
0.773825
0.832892
0.865162
0.903271
0.907793
0.913321
0.908707
0.909384
0.176881
0.172789
0.153765
0.132205
0.118241
0.0836393
0.0679178
0.099443
0.170655
0.303167
0.442632
0.548497
0.653456
0.70003
0.706884
0.726656
0.733488
0.742252
0.740748
0.74201
0.214494
0.213322
0.202378
0.190074
0.189787
0.177657
0.17313
0.182363
0.197637
0.270651
0.376414
0.445196
0.520894
0.559625
0.56484
0.581149
0.585154
0.592191
0.59129
0.592789
0.242915
0.242509
0.237604
0.235484
0.243852
0.246511
0.257401
0.259373
0.239126
0.269046
0.33034
0.372897
0.410952
0.438956
0.457765
0.473645
0.473589
0.476518
0.473167
0.473639
0.274155
0.272327
0.266179
0.26256
0.265846
0.262579
0.27207
0.282451
0.276058
0.29253
0.313067
0.33161
0.349286
0.371156
0.385889
0.394906
0.391653
0.391338
0.385275
0.38421
0.296288
0.292636
0.28126
0.268913
0.260385
0.244315
0.242248
0.256903
0.267621
0.295477
0.300215
0.313388
0.323059
0.339477
0.33753
0.337217
0.32899
0.324783
0.315822
0.313143
0.289504
0.285708
0.272943
0.257865
0.243852
0.225006
0.215589
0.218684
0.22678
0.261135
0.271495
0.291528
0.295578
0.300692
0.290626
0.287233
0.27553
0.268876
0.258427
0.25489
0.258992
0.25582
0.246688
0.237065
0.226915
0.216066
0.205184
0.197486
0.193745
0.213685
0.228278
0.249755
0.249995
0.250501
0.238561
0.23676
0.224803
0.219396
0.209966
0.206402
0.224842
0.22258
0.217587
0.214306
0.208654
0.205268
0.196894
0.189793
0.177825
0.182847
0.187657
0.201927
0.196424
0.200115
0.188801
0.189023
0.178519
0.175429
0.168218
0.165059
0.197602
0.195459
0.191988
0.190331
0.184749
0.184399
0.177604
0.17769
0.165991
0.166096
0.156514
0.164372
0.15492
0.158351
0.148721
0.149212
0.139914
0.138457
0.132773
0.129679
0.170291
0.167994
0.164519
0.16232
0.154927
0.154338
0.145189
0.151021
0.140646
0.147769
0.131715
0.13503
0.12606
0.127687
0.117819
0.118096
0.108918
0.106818
0.102175
0.0992128
0.135801
0.133297
0.130436
0.128765
0.120693
0.121257
0.10932
0.115766
0.102211
0.117934
0.1049
0.108398
0.0993628
0.101674
0.0911927
0.0915007
0.0828846
0.0807567
0.076701
0.0736064
0.0962257
0.0933164
0.0918693
0.0915703
0.0843568
0.0884652
0.0750303
0.0843474
0.0660881
0.0830696
0.0722386
0.0800184
0.0703485
0.0745323
0.0642394
0.0659363
0.0583463
0.0567958
0.0542781
0.0514634
0.0569084
0.0541525
0.0551642
0.0561714
0.0489786
0.0568231
0.0415665
0.0567811
0.0360384
0.0505554
0.0377607
0.0489334
0.0383773
0.0454042
0.0359739
0.0400179
0.034334
0.0343056
0.0335688
0.0310104
0.0223225
0.0207632
0.023564
0.0222883
0.0147933
0.0241634
0.00957305
0.0243782
0.0078152
0.0191088
0.00779437
0.0175033
0.00844344
0.0161824
0.00910735
0.0139414
0.0100731
0.0104885
0.0115388
0.00958148
12.4472
16.7293
17.8306
19.2237
20.3607
21.3734
22.2591
23.0039
23.5163
23.6214
17.1091
19.1983
19.8965
20.7821
21.5516
22.2122
22.7612
23.1804
23.408
23.4067
19.6257
20.6611
21.1919
21.7404
22.2253
22.639
22.9695
23.2068
23.3327
23.3534
21.016
21.6578
22.0006
22.3479
22.6422
22.8886
23.0805
23.2143
23.2909
23.32
21.9345
22.2679
22.4823
22.6947
22.878
23.031
23.1478
23.2295
23.2759
23.3046
22.4407
22.6671
22.7911
22.9293
23.0387
23.1283
23.1992
23.2507
23.2823
23.3065
22.7749
22.9232
22.9838
23.0708
23.1396
23.1976
23.2442
23.2805
23.303
23.3276
22.9936
23.083
23.1232
23.1757
23.2222
23.2623
23.2967
23.3255
23.3471
23.3676
23.1491
23.2047
23.2347
23.2669
23.3012
23.3318
23.3578
23.3813
23.3978
23.4181
23.2742
23.3101
23.3366
23.3604
23.3835
23.4055
23.424
23.4411
23.4539
23.4713
23.3893
23.4129
23.4314
23.4471
23.4623
23.4766
23.49
23.504
23.5138
23.5315
23.4888
23.502
23.5176
23.5306
23.5432
23.5552
23.5658
23.5759
23.5821
23.5941
23.5829
23.5936
23.6083
23.6197
23.6288
23.6371
23.6451
23.6523
23.6531
23.6611
23.6837
23.6895
23.6992
23.7051
23.7089
23.7133
23.7189
23.7253
23.7288
23.738
23.7985
23.7854
23.7779
23.772
23.7696
23.7714
23.7781
23.7906
23.8052
23.8338
23.9203
23.8647
23.8336
23.8159
23.8075
23.8074
23.8163
23.8361
23.8679
23.9379
)
;

boundaryField
{
    wall-4
    {
        type            zeroGradient;
    }
    pressure-outlet-7
    {
        type            fixedValue;
        value           uniform 0;
    }
    velocity-inlet-6
    {
        type            zeroGradient;
    }
    velocity-inlet-5
    {
        type            zeroGradient;
    }
    frontAndBackPlanes
    {
        type            empty;
    }
}


// ************************************************************************* //
