/*--------------------------------*- C++ -*----------------------------------*\
| =========                 |                                                 |
| \\      /  F ield         | OpenFOAM: The Open Source CFD Toolbox           |
|  \\    /   O peration     | Version:  2412                                  |
|   \\  /    A nd           | Website:  www.openfoam.com                      |
|    \\/     M anipulation  |                                                 |
\*---------------------------------------------------------------------------*/
FoamFile
{
    version     2.0;
    format      ascii;
    arch        "LSB;label=32;scalar=64";
    class       surfaceScalarField;
    location    "5.75";
    object      phi;
}
// * * * * * * * * * * * * * * * * * * * * * * * * * * * * * * * * * * * * * //

dimensions      [0 3 -1 0 0 0 0];

oriented        oriented;

internalField   nonuniform List<scalar> 
4262
(
0.000781878
0.219731
-0.000848444
0.830283
-0.00232215
1.76862
-0.0037475
3.16659
-0.00574067
5.1866
-0.00784266
8.01647
-0.00913684
11.8484
-0.0104457
16.821
-0.0118427
22.8832
-0.0108128
29.5273
-0.0092632
29.5268
-0.00822669
22.8808
-0.00722373
16.8187
-0.00610797
11.846
-0.00525434
8.01351
-0.00442249
5.18377
-0.00347688
3.16422
-0.00352049
1.76719
-0.00336809
0.828501
0.217145
-0.00241127
0.222142
-0.00393233
0.831804
-0.00724798
1.77193
-0.0112837
3.17063
-0.0173816
5.19269
-0.0232904
8.02238
-0.0271259
11.8523
-0.0315899
16.8255
-0.0349095
22.8865
-0.033852
29.5263
-0.0308001
29.5238
-0.0257851
22.8758
-0.0220218
16.815
-0.0170198
11.841
-0.0131905
8.00968
-0.0105133
5.18109
-0.0076771
3.16138
-0.00557639
1.76509
-0.00191034
0.824835
0.215234
-0.00645802
0.2286
-0.00949214
0.834839
-0.0156327
1.77807
-0.0240757
3.17907
-0.0319116
5.20053
-0.0370594
8.02752
-0.0453365
11.8605
-0.050884
16.8311
-0.0564808
22.8921
-0.0529048
29.5227
-0.0467341
29.5176
-0.0395741
22.8686
-0.0321339
16.8075
-0.026129
11.835
-0.0192389
8.00279
-0.0138651
5.17572
-0.00934639
3.15687
-0.00368435
1.75942
0.00186216
0.819288
0.217096
-0.0116048
0.240205
-0.0182408
0.841475
-0.0281143
1.78795
-0.0391001
3.19006
-0.048331
5.20976
-0.0561436
8.03534
-0.0659812
11.8704
-0.0706029
16.8357
-0.0772834
22.8988
-0.0725676
29.518
-0.0648719
29.5099
-0.0559751
22.8597
-0.042004
16.7936
-0.0312515
11.8243
-0.0213605
7.9929
-0.014472
5.16883
-0.00862299
3.15102
-0.00323596
1.75404
0.00347954
0.812573
0.220576
-0.01629
0.256495
-0.0261196
0.851304
-0.0413758
1.8032
-0.0566009
3.20528
-0.0691566
5.22232
-0.0773965
8.04358
-0.0852361
11.8782
-0.0895665
16.84
-0.0970877
22.9063
-0.0909452
29.5118
-0.080153
29.4991
-0.0657529
22.8453
-0.0475121
16.7753
-0.0323628
11.8091
-0.0188602
7.9794
-0.00968178
5.15965
-0.00370632
3.14504
0.000169836
1.75016
0.00543396
0.807309
0.22601
-0.0175497
0.274044
-0.0351945
0.868949
-0.0558171
1.82383
-0.0753157
3.22478
-0.094078
5.24108
-0.10553
8.05503
-0.110763
11.8835
-0.117214
16.8465
-0.121314
22.9104
-0.109713
29.5002
-0.0941317
29.4835
-0.0741861
22.8254
-0.0530116
16.7541
-0.0309644
11.7871
-0.0148891
7.96332
-0.00365052
5.14842
0.00405645
3.13733
0.00759381
1.74662
0.0069354
0.807967
0.232945
-0.0193928
0.293437
-0.0496563
0.899213
-0.0679358
1.84211
-0.0837531
3.2406
-0.106217
5.26354
-0.127821
8.07663
-0.134779
11.8904
-0.140898
16.8526
-0.143468
22.913
-0.128747
29.4855
-0.109026
29.4638
-0.0801117
22.7965
-0.0545807
16.7286
-0.0301616
11.7626
-0.0146374
7.9478
-0.00305633
5.13683
0.00874884
3.12553
0.0155535
1.73982
0.00617003
0.81735
0.239115
-0.024742
0.318179
-0.06526
0.939731
-0.0772848
1.85413
-0.0937905
3.2571
-0.116105
5.28586
-0.138825
8.09935
-0.158244
11.9098
-0.172045
16.8664
-0.172551
22.9135
-0.149322
29.4623
-0.119942
29.4344
-0.0873538
22.7639
-0.0606114
16.7019
-0.0354308
11.7375
-0.0172406
7.92961
-0.000206691
5.1198
0.0144212
3.1109
0.0287043
1.72554
0.00967878
0.836376
0.248794
-0.0306783
0.348858
-0.0759923
0.985045
-0.0863711
1.86451
-0.107316
3.27805
-0.126313
5.30485
-0.152202
8.12524
-0.176106
11.9337
-0.195016
16.8853
-0.201123
22.9196
-0.172178
29.4333
-0.13477
29.397
-0.0982118
22.7273
-0.0731994
16.6769
-0.0480895
11.7124
-0.0238922
7.90541
-0.00206269
5.09797
0.0142572
3.09458
0.0378826
1.70191
0.0142665
0.859992
0.263061
-0.033649
0.382507
-0.0836625
1.03506
-0.0961409
1.87699
-0.122286
3.30419
-0.142976
5.32554
-0.166725
8.14899
-0.194619
11.9616
-0.215818
16.9065
-0.229722
22.9335
-0.197703
29.4013
-0.154925
29.3542
-0.121041
22.6934
-0.0902749
16.6461
-0.0601827
11.6823
-0.0325898
7.87782
-0.00634553
5.07173
0.0115048
3.07673
0.0359909
1.67742
0.0137504
0.882233
0.276811
-0.0346239
0.417131
-0.0861725
1.08661
-0.105498
1.89631
-0.141059
3.33976
-0.165943
5.35043
-0.193513
8.17656
-0.217957
11.9861
-0.235228
16.9238
-0.255146
22.9534
-0.227699
29.3739
-0.1876
29.3141
-0.14756
22.6534
-0.106212
16.6047
-0.0663681
11.6424
-0.0335032
7.84495
-0.0053717
5.0436
0.0121562
3.0592
0.0321894
1.65739
0.0114459
0.902976
0.288257
-0.034919
0.45205
-0.0891566
1.14084
-0.11917
1.92633
-0.157162
3.37775
-0.193009
5.38627
-0.226161
8.20971
-0.249703
12.0096
-0.269061
16.9431
-0.284334
22.9687
-0.257844
29.3474
-0.218405
29.2747
-0.169182
22.6042
-0.115963
16.5515
-0.0666166
11.5931
-0.0307174
7.80905
-0.00383585
5.01671
0.0175973
3.03777
0.0312198
1.64377
0.0106359
0.92356
0.298893
-0.0401725
0.492222
-0.101833
1.2025
-0.143505
1.968
-0.17821
3.41245
-0.226666
5.43473
-0.272201
8.25525
-0.301639
12.0391
-0.317227
16.9587
-0.325084
22.9766
-0.296365
29.3187
-0.250893
29.2292
-0.183317
22.5366
-0.11281
16.481
-0.0552336
11.5355
-0.0153306
7.76915
0.00459698
4.99679
0.0321949
3.01017
0.0369593
1.639
0.0125822
0.947937
0.311475
-0.0481288
0.540351
-0.118464
1.27284
-0.180598
2.03013
-0.223761
3.45562
-0.289618
5.50059
-0.336782
8.30241
-0.370432
12.0727
-0.386674
16.9749
-0.385195
22.9751
-0.337671
29.2711
-0.270501
29.162
-0.180082
22.4462
-0.0978923
16.3988
-0.0385809
11.4762
0.00569198
7.72488
0.0277368
4.97474
0.0628893
2.97502
0.0530608
1.64883
0.0191089
0.981889
0.330584
-0.0648279
0.605179
-0.156795
1.36481
-0.236247
2.10958
-0.282289
3.50166
-0.346011
5.56431
-0.397765
8.35417
-0.447371
12.1223
-0.471834
16.9994
-0.464041
22.9673
-0.389136
29.1962
-0.287307
29.0602
-0.181084
22.3399
-0.0896398
16.3074
-0.0178294
11.4044
0.0379158
7.66913
0.0629398
4.94972
0.0914721
2.94649
0.0658331
1.67447
0.0239647
1.02376
0.354549
-0.0676333
0.672812
-0.165444
1.46262
-0.265418
2.20956
-0.339089
3.57533
-0.419785
5.64501
-0.475335
8.40972
-0.526236
12.1732
-0.556425
17.0296
-0.549789
22.9607
-0.447384
29.0938
-0.310713
28.9235
-0.188885
22.2181
-0.0898352
16.2083
-0.0107161
11.3253
0.0495926
7.60882
0.0886677
4.91064
0.116551
2.9186
0.0813544
1.70967
0.0293136
1.0758
0.383862
-0.0874793
0.760291
-0.204806
1.57994
-0.314956
2.31971
-0.392093
3.65246
-0.472724
5.72564
-0.542261
8.47925
-0.604583
12.2355
-0.643648
17.0687
-0.63717
22.9542
-0.521354
28.978
-0.375306
28.7775
-0.23589
22.0787
-0.115731
16.0882
-0.0170985
11.2266
0.0531105
7.53862
0.100682
4.86307
0.117696
2.90159
0.0779433
1.74942
0.026419
1.12732
0.410281
-0.0828272
0.843119
-0.20548
1.7026
-0.336535
2.45076
-0.439514
3.75544
-0.532613
5.81874
-0.622979
8.56962
-0.692353
12.3049
-0.741441
17.1178
-0.732319
22.9451
-0.606312
28.852
-0.445146
28.6163
-0.284951
21.9185
-0.142194
15.9454
-0.0295721
11.114
0.0474398
7.4616
0.114247
4.79626
0.132444
2.88339
0.0868617
1.795
0.0286012
1.18558
0.438882
-0.106966
0.950084
-0.24668
1.84231
-0.387253
2.59134
-0.502276
3.87047
-0.606683
5.92314
-0.714579
8.67751
-0.788899
12.3792
-0.851077
17.1799
-0.839279
22.9333
-0.708273
28.721
-0.538386
28.4464
-0.350044
21.7302
-0.175864
15.7712
-0.0346479
10.9728
0.0544629
7.37249
0.126971
4.72376
0.135196
2.87517
0.0828854
1.84731
0.0240122
1.24446
0.462895
-0.109101
1.05919
-0.264403
1.99761
-0.432612
2.75955
-0.580849
4.0187
-0.704362
6.04666
-0.836163
8.80932
-0.928982
12.472
-1.00099
17.2519
-0.981774
22.9141
-0.835948
28.5752
-0.627302
28.2378
-0.39473
21.4976
-0.183947
15.5605
-0.0268821
10.8157
0.0700626
7.27555
0.14671
4.64711
0.142738
2.87914
0.0840532
1.906
0.0205711
1.30794
0.483466
-0.132773
1.19196
-0.304638
2.16948
-0.490613
2.94552
-0.661965
4.19005
-0.819953
6.20464
-0.984377
8.97374
-1.10569
12.5934
-1.20364
17.3499
-1.1659
22.8763
-0.977418
28.3867
-0.713488
27.9739
-0.445904
21.23
-0.212126
15.3267
-0.0264053
10.63
0.0939083
7.15523
0.168308
4.57271
0.154298
2.89315
0.0808116
1.97949
0.0082458
1.3805
0.491711
-0.145258
1.33722
-0.343148
2.36737
-0.558635
3.16101
-0.773332
4.40475
-0.972188
6.4035
-1.16937
9.17092
-1.32959
12.7536
-1.44549
17.4658
-1.38955
22.8204
-1.14825
28.1454
-0.820202
27.6458
-0.507431
20.9172
-0.231273
15.0505
-0.0371278
10.4359
0.0939504
7.02416
0.163782
4.50288
0.138071
2.91886
0.0680615
2.04949
-0.00689794
1.45546
0.484813
-0.166838
1.50405
-0.383876
2.58441
-0.63182
3.40895
-0.881735
4.65467
-1.12927
6.65104
-1.37271
9.41436
-1.57053
12.9514
-1.69923
17.5945
-1.61777
22.7389
-1.33968
27.8673
-0.973589
27.2797
-0.622795
20.5664
-0.314984
14.7427
-0.0825648
10.2034
0.0901968
6.85139
0.160764
4.43231
0.1278
2.95183
0.0309036
2.14639
-0.0269862
1.51335
0.457827
-0.20308
1.70713
-0.451407
2.83273
-0.732343
3.68989
-1.04919
4.97152
-1.35883
6.96068
-1.6377
9.69323
-1.85806
13.1718
-1.99553
17.732
-1.88079
22.6242
-1.5723
27.5588
-1.16607
26.8735
-0.753079
20.1535
-0.385309
14.3749
-0.12052
9.93865
0.0646348
6.66624
0.12113
4.37581
0.0790384
2.99392
0.00257747
2.22285
-0.0534197
1.56935
0.404408
-0.261607
1.96874
-0.547766
3.11889
-0.928145
4.07027
-1.31192
5.3553
-1.66458
7.31333
-1.97056
9.99921
-2.2323
13.4335
-2.35131
17.851
-2.19743
22.4703
-1.84822
27.2096
-1.35288
26.3782
-0.865542
19.6661
-0.470335
13.9797
-0.16082
9.62914
0.054293
6.45113
0.11318
4.31693
0.0698143
3.03728
-0.0174064
2.31007
-0.0917568
1.6437
0.312651
-0.395902
2.36464
-0.819581
3.54257
-1.25093
4.50161
-1.6667
5.77107
-2.06937
7.716
-2.4241
10.3539
-2.73026
13.7397
-2.79713
17.9178
-2.57524
22.2484
-2.14076
26.7751
-1.52975
25.7671
-0.978471
19.1148
-0.536144
13.5374
-0.187605
9.2806
0.0185045
6.24502
0.0406142
4.29482
-0.0293146
3.10721
-0.120891
2.40165
-0.128563
1.65137
0.184087
-0.326779
2.69142
-0.71432
3.93011
-1.08398
4.87127
-1.49321
6.1803
-1.92471
8.1475
-2.34173
10.771
-2.72854
14.1265
-2.85249
18.0418
-2.70556
22.1015
-2.27468
26.3442
-1.54365
25.0361
-0.870738
18.4419
-0.322151
12.9888
0.106082
8.85236
0.284709
6.06639
0.265341
4.31418
0.13012
3.24243
-0.007167
2.53894
-0.0552065
1.69941
0.128881
-0.201897
2.89332
-0.46082
4.18903
-0.788078
5.19853
-1.14276
6.53499
-1.48504
8.48978
-1.7822
11.0681
-2.02273
14.367
-2.02958
18.0486
-1.82546
21.8974
-1.3422
25.861
-0.620652
24.3146
-0.0344596
17.8557
0.484542
12.4698
0.758234
8.57867
0.780613
6.04401
0.653705
4.44109
0.434531
3.46161
0.209547
2.76392
0.0885092
1.82045
0.21739
-0.168054
3.06137
-0.36095
4.38193
-0.617514
5.45509
-0.894229
6.8117
-1.15282
8.74837
-1.37186
11.2872
-1.50661
14.5018
-1.44351
17.9855
-1.20392
21.6578
-0.707857
25.3649
-0.0208021
23.6275
0.545438
17.2895
0.931181
12.0841
1.02172
8.48813
0.903853
6.16188
0.647983
4.69696
0.396229
3.71336
0.238559
2.92159
0.122855
1.93616
0.340245
-0.139676
3.20105
-0.316911
4.55916
-0.527993
5.66617
-0.737129
7.02084
-0.925418
8.93665
-1.08619
11.4479
-1.1498
14.5654
-1.05001
17.8857
-0.791925
21.3997
-0.304528
24.8775
0.333459
22.9895
0.83551
16.7874
1.11105
11.8085
1.13167
8.46752
0.990669
6.30288
0.766549
4.92108
0.522648
3.95726
0.306844
3.13739
0.145174
2.09783
0.485419
-0.113136
3.31419
-0.293939
4.73997
-0.455622
5.82786
-0.619463
7.18468
-0.771538
9.08873
-0.894552
11.571
-0.914718
14.5855
-0.798128
17.7691
-0.541174
21.1427
-0.0777296
24.4141
0.495124
22.4167
0.923631
16.3589
1.09625
11.6359
1.01316
8.5506
0.770251
6.54578
0.532526
5.15881
0.33852
4.15127
0.208257
3.26766
0.113073
2.19301
0.598492
-0.0850585
3.39924
-0.263754
4.91866
-0.43105
5.99515
-0.564785
7.31841
-0.681011
9.20496
-0.769869
11.6598
-0.759538
14.5752
-0.644189
17.6538
-0.402292
20.9008
0.0304095
23.9814
0.542606
21.9045
0.90058
16.001
0.985383
11.5511
0.883737
8.65225
0.735594
6.69392
0.580746
5.31366
0.432413
4.2996
0.271979
3.42809
0.129413
2.33557
0.727905
-0.0648852
3.46413
-0.226978
5.08076
-0.388953
6.15713
-0.523875
7.45334
-0.632344
9.31342
-0.694573
11.722
-0.65951
14.5401
-0.554067
17.5483
-0.335087
20.6819
0.0500732
23.5962
0.501594
21.4529
0.777582
15.725
0.812629
11.5161
0.712245
8.75263
0.535268
6.8709
0.355259
5.49367
0.217104
4.43776
0.143453
3.50174
0.0728754
2.40615
0.80078
-0.0554116
3.51954
-0.201078
5.22642
-0.349917
6.30597
-0.493519
7.59694
-0.597636
9.41754
-0.644161
11.7686
-0.600048
14.496
-0.503783
17.4521
-0.309028
20.4871
0.0324567
23.2547
0.42157
21.0638
0.647857
15.4987
0.665302
11.4986
0.561725
8.85621
0.438582
6.99404
0.321158
5.61109
0.219591
4.53932
0.0940599
3.62727
0.0251187
2.47509
0.825899
-0.0419704
3.56151
-0.154389
5.33884
-0.289084
6.44066
-0.442429
7.75028
-0.55562
9.53073
-0.602226
11.8152
-0.568104
14.4619
-0.480195
17.3642
-0.307025
20.3139
-0.00820458
22.9559
0.318999
20.7366
0.485101
15.3326
0.474692
11.509
0.397077
8.93383
0.303844
7.08728
0.188895
5.72604
0.107555
4.62066
0.0566079
3.67822
0.00940279
2.5223
0.835302
-0.0276695
3.58918
-0.140717
5.45189
-0.260916
6.56086
-0.399059
7.88843
-0.510823
9.6425
-0.564736
11.8691
-0.546991
14.4442
-0.469952
17.2871
-0.315408
20.1594
-0.0554627
22.696
0.209391
20.4718
0.336016
15.206
0.33338
11.5117
0.261855
9.00535
0.182338
7.1668
0.110745
5.79763
0.0544942
4.67691
0.00812026
3.7246
-0.00834155
2.53876
0.82696
-0.0259409
3.61512
-0.109878
5.53582
-0.225458
6.67644
-0.354862
8.01783
-0.469874
9.75751
-0.529619
11.9288
-0.52835
14.4429
-0.464085
17.2229
-0.326532
20.0218
-0.104699
22.4741
0.0985646
20.2685
0.188054
15.1165
0.171998
11.5277
0.127913
9.04944
0.0861256
7.20858
0.0513751
5.83238
0.0109468
4.71734
-0.0065559
3.7421
-0.0169551
2.54916
0.810005
-0.0201537
3.63528
-0.111195
5.62687
-0.216065
6.78131
-0.32977
8.13153
-0.434621
9.86236
-0.495135
11.9893
-0.506303
14.4541
-0.454539
17.1711
-0.33498
19.9023
-0.151133
22.2903
0.000287989
20.1171
0.0534002
15.0634
0.0432238
11.5379
0.0215742
9.07108
-0.0179914
7.24815
-0.0405924
5.85498
-0.0468004
4.72355
-0.0533074
3.7486
-0.0347692
2.53062
0.775236
-0.00898421
3.64426
-0.0929196
5.7108
-0.195608
6.884
-0.30107
8.237
-0.397909
9.9592
-0.458726
12.0502
-0.479098
14.4744
-0.43964
17.1316
-0.340296
19.8029
-0.194606
22.1446
-0.08611
20.0086
-0.0595486
15.0368
-0.0778408
11.5562
-0.087109
9.08035
-0.0787681
7.23981
-0.0706797
5.84689
-0.079412
4.73228
-0.0688797
3.73807
-0.04381
2.50555
0.731426
-0.0199225
3.66418
-0.105965
5.79684
-0.19544
6.97348
-0.283818
8.32537
-0.365755
10.0411
-0.42379
12.1082
-0.448207
14.4988
-0.419986
17.1034
-0.34227
19.7252
-0.232993
22.0353
-0.162946
19.9386
-0.159203
15.0331
-0.172712
11.5697
-0.179776
9.08742
-0.181006
7.24104
-0.168179
5.83407
-0.132657
4.69676
-0.104703
3.71012
-0.0602183
2.46107
0.671207
-0.0174552
3.68164
-0.0952498
5.87464
-0.173615
7.05184
-0.25944
8.4112
-0.335714
10.1174
-0.391128
12.1636
-0.417406
14.5251
-0.39883
17.0849
-0.341798
19.6682
-0.264762
21.9583
-0.22613
19.8999
-0.243299
15.0502
-0.265134
11.5915
-0.267134
9.08942
-0.240233
7.21414
-0.207579
5.80141
-0.181814
4.671
-0.136253
3.66456
-0.0737647
2.39858
0.597443
-0.0199751
3.70161
-0.0916155
5.94628
-0.165331
7.12556
-0.243707
8.48957
-0.309217
10.1829
-0.362338
12.2167
-0.387947
14.5507
-0.377099
17.074
-0.338123
19.6292
-0.287465
21.9076
-0.274126
19.8866
-0.304035
15.0801
-0.33697
11.6245
-0.344483
9.09693
-0.333386
7.20304
-0.305156
5.77318
-0.247713
4.61355
-0.184834
3.60168
-0.0980995
2.31185
0.499343
-0.0219956
3.72361
-0.0929937
6.01728
-0.148204
7.18077
-0.221929
8.5633
-0.285546
10.2465
-0.335986
12.2672
-0.360401
14.5751
-0.3561
17.0697
-0.331617
19.6047
-0.301982
21.878
-0.31068
19.8953
-0.353598
15.1231
-0.40434
11.6752
-0.418453
9.11104
-0.395037
7.17962
-0.351742
5.72989
-0.303119
4.56493
-0.216377
3.51494
-0.118758
2.21423
0.380585
-0.0136766
3.73729
-0.0737343
6.07733
-0.137401
7.24443
-0.209291
8.63519
-0.265595
10.3028
-0.311919
12.3135
-0.334598
14.5978
-0.335664
17.0708
-0.322161
19.5912
-0.309313
21.8651
-0.336184
19.9221
-0.390525
15.1774
-0.442238
11.7269
-0.481729
9.15053
-0.484799
7.18269
-0.452001
5.69709
-0.380147
4.49308
-0.281334
3.41612
-0.138376
2.07127
0.242209
-0.0164736
3.75376
-0.0690568
6.12992
-0.120301
7.29568
-0.187095
8.70198
-0.245292
10.361
-0.288073
12.3563
-0.310552
14.6203
-0.316128
17.0763
-0.31091
19.586
-0.311668
21.8659
-0.353966
19.9644
-0.421028
15.2445
-0.48386
11.7898
-0.525965
9.19264
-0.538977
7.19571
-0.504047
5.66216
-0.446416
4.43544
-0.318583
3.28829
-0.136148
1.88883
0.106061
-0.0156473
3.76941
-0.0641266
6.1784
-0.111304
7.34286
-0.172681
8.76336
-0.2256
10.414
-0.266537
12.3972
-0.289882
14.6437
-0.299442
17.0859
-0.300964
19.5875
-0.312899
21.8778
-0.367485
20.019
-0.444221
15.3212
-0.515092
11.8606
-0.567882
9.24543
-0.607224
7.23505
-0.603902
5.65884
-0.529341
4.36088
-0.373805
3.13275
-0.0369407
1.55197
0.0691203
-0.0138212
3.78323
-0.0488629
6.21344
-0.100658
7.39465
-0.160245
8.82295
-0.212782
10.4665
-0.255731
12.4402
-0.284004
14.6719
-0.300558
17.1025
-0.311235
19.5982
-0.336726
21.9033
-0.40903
20.0913
-0.506383
15.4185
-0.602275
11.9565
-0.677739
9.32089
-0.716325
7.27363
-0.721328
5.66384
-0.660563
4.30012
-0.439353
2.91154
-0.247544
1.36016
0.598077
-0.776501
-0.0195519
3.80278
-0.0518681
6.24575
-0.0964827
7.43926
-0.148685
8.87515
-0.196921
10.5147
-0.239911
12.4832
-0.270669
14.7027
-0.292173
17.124
-0.310256
19.6163
-0.346705
21.9398
-0.432556
20.1772
-0.545624
15.5316
-0.659385
12.0703
-0.760698
9.4222
-0.846577
7.35951
-0.918567
5.73583
-0.961325
4.34288
-0.806952
2.75717
-0.913955
1.46716
1.152
-1.46788
-0.0172913
3.82007
-0.0440121
6.27247
-0.0903504
7.4856
-0.130032
8.91483
-0.181743
10.5664
-0.224019
12.5254
-0.257798
14.7365
-0.284032
17.1502
-0.309113
19.6414
-0.355438
21.9861
-0.453851
20.2756
-0.584515
15.6623
-0.726123
12.2119
-0.865228
9.56131
-0.993568
7.48785
-1.08696
5.82923
-1.06205
4.31796
-0.959879
2.655
-1.30641
1.81369
1.57373
-1.72814
-0.0111237
3.83119
-0.0343033
6.29565
-0.0823759
7.53368
-0.122203
8.95466
-0.171873
10.6161
-0.208676
12.5622
-0.244811
14.7726
-0.274678
17.1801
-0.305806
19.6725
-0.361139
22.0414
-0.470922
20.3854
-0.616888
15.8082
-0.780117
12.3751
-0.952848
9.73404
-1.14454
7.67955
-1.29942
5.9841
-1.25241
4.27096
-1.35759
2.76018
-1.68735
2.14346
1.8396
-1.95322
-0.012202
3.8434
-0.0395814
6.32303
-0.0782912
7.57239
-0.113974
8.99034
-0.156544
10.6587
-0.195384
12.6011
-0.232503
14.8097
-0.265339
17.2129
-0.301361
19.7085
-0.36481
22.1049
-0.484813
20.5054
-0.645603
15.969
-0.838533
12.5681
-1.052
9.94751
-1.24267
7.87022
-1.33065
6.07208
-1.29702
4.23732
-1.53563
2.99879
-1.86748
2.4753
2.0597
-2.08758
-0.0129901
3.85639
-0.0385547
6.3486
-0.0715016
7.60533
-0.10938
9.02822
-0.146532
10.6958
-0.191626
12.6462
-0.2277
14.8458
-0.262672
17.2479
-0.301982
19.7478
-0.372735
22.1756
-0.501719
20.6344
-0.673457
16.1408
-0.881664
12.7763
-1.10318
10.169
-1.29981
8.06684
-1.44369
6.21597
-1.60057
4.3942
-1.89155
3.28977
-2.18001
2.76377
2.20916
-2.32947
-0.00176448
3.85815
-0.0326132
6.37945
-0.0694796
7.6422
-0.109942
9.06868
-0.151286
10.7372
-0.193615
12.6885
-0.230005
14.8822
-0.266097
17.284
-0.308001
19.7897
-0.385613
22.2532
-0.522745
20.7715
-0.70192
16.3199
-0.919455
12.9938
-1.16391
10.4135
-1.38072
8.28365
-1.47088
6.30613
-1.62269
4.546
-1.92736
3.59444
-2.17829
3.0147
2.40861
-2.37775
0.00342788
3.85472
-0.0322232
6.4151
-0.0777837
7.68776
-0.117946
9.10885
-0.159353
10.7786
-0.195117
12.7243
-0.232704
14.9198
-0.268399
17.3197
-0.312688
19.834
-0.396842
22.3374
-0.541584
20.9162
-0.723177
16.5015
-0.933464
13.2041
-1.17281
10.6528
-1.39612
8.50696
-1.52823
6.43825
-1.8191
4.83687
-2.30761
4.08295
-2.68525
3.39234
2.70689
-2.98353
0.00019589
3.85453
-0.0295951
6.44489
-0.0665799
7.72474
-0.113424
9.15569
-0.157216
10.8224
-0.197099
12.7641
-0.234766
14.9574
-0.270611
17.3555
-0.317178
19.8806
-0.406704
22.4269
-0.56093
21.0705
-0.744919
16.6855
-0.94028
13.3994
-1.16526
10.8778
-1.413
8.75471
-1.64921
6.67445
-1.94018
5.12784
-2.37863
4.52141
-2.86764
3.88134
2.90794
-3.06869
-0.00110254
3.85563
-0.0332505
6.47704
-0.072268
7.76376
-0.116551
9.19997
-0.15809
10.8639
-0.199995
12.806
-0.2352
14.9926
-0.271753
17.3921
-0.319581
19.9284
-0.412344
22.5197
-0.568919
21.227
-0.750617
16.8672
-0.947262
13.5961
-1.14933
11.0799
-1.34577
8.95115
-1.59609
6.92477
-2.11816
5.64991
-2.50955
4.91279
-2.99811
4.36991
3.6428
-3.73296
0.0147229
3.84091
-0.0166903
6.50845
-0.0612222
7.80829
-0.11406
9.25281
-0.15946
10.9093
-0.198943
12.8455
-0.233372
15.0271
-0.269021
17.4277
-0.31615
19.9755
-0.405662
22.6092
-0.548213
21.3696
-0.714531
17.0335
-0.896521
13.7781
-1.07848
11.2618
-1.21622
9.08888
-1.46339
7.17195
-1.83981
6.02633
-2.01458
5.08756
-1.46555
3.82088
2.17724
0.0085772
3.83233
-0.0261409
6.54317
-0.0684689
7.85062
-0.113812
9.29815
-0.159248
10.9547
-0.199912
12.8862
-0.2375
15.0647
-0.275687
17.4659
-0.327017
20.0269
-0.420355
22.7025
-0.561138
21.5104
-0.725034
17.1974
-0.899535
13.9526
-1.05253
11.4148
-1.13327
9.16962
-1.22226
7.26094
-1.20496
6.00903
-1.05961
4.9422
-0.727928
3.4892
1.44932
0.0142503
3.81808
-0.012732
6.57015
-0.0511094
7.889
-0.103565
9.35061
-0.153568
11.0048
-0.197295
12.9299
-0.237166
15.1045
-0.277987
17.5067
-0.331943
20.0808
-0.426584
22.7972
-0.565493
21.6493
-0.720651
17.3526
-0.873946
14.1059
-0.973045
11.5139
-1.0126
9.20918
-1.03121
7.27955
-1.06649
6.04431
-1.03019
4.9059
-0.823382
3.2824
0.625935
0.0164356
3.80164
-0.0144605
6.60105
-0.0588645
7.9334
-0.104315
9.39606
-0.149474
11.0499
-0.191885
12.9723
-0.232527
15.1452
-0.27503
17.5492
-0.329888
20.1357
-0.42344
22.8907
-0.555613
21.7815
-0.692151
17.4891
-0.810056
14.2238
-0.862255
11.5661
-0.913217
9.26014
-0.952068
7.3184
-0.9878
6.08005
-0.900969
4.81907
-0.401384
2.78281
0.224551
0.026239
3.7754
0.00219458
6.62509
-0.0364875
7.97208
-0.0899329
9.44951
-0.138546
11.0985
-0.181474
13.0153
-0.223289
15.187
-0.265924
17.5919
-0.320213
20.19
-0.409849
22.9804
-0.529834
21.9014
-0.639631
17.5989
-0.716024
14.3002
-0.781381
11.6315
-0.806815
9.28557
-0.851555
7.36314
-0.831747
6.06024
-0.612735
4.60006
-0.170012
2.34009
0.0545395
0.027514
3.74789
0.00288014
6.64972
-0.0406645
8.01563
-0.0820046
9.49085
-0.1254
11.1419
-0.165433
13.0553
-0.206551
15.2281
-0.248166
17.6335
-0.300159
20.242
-0.382923
23.0631
-0.485456
22.004
-0.566801
17.6803
-0.62631
14.3597
-0.679068
11.6842
-0.686419
9.29292
-0.707411
7.38413
-0.63455
5.98738
-0.451368
4.41688
-0.155744
2.04446
-0.101205
0.0381473
3.70974
0.0263261
6.66155
-0.00795007
8.04991
-0.0599791
9.54287
-0.104994
11.1869
-0.143942
13.0942
-0.183393
15.2676
-0.222125
17.6722
-0.269761
20.2896
-0.342909
23.1363
-0.424563
22.0856
-0.485599
17.7413
-0.532799
14.4069
-0.557625
11.7091
-0.545553
9.28085
-0.519474
7.35805
-0.443116
5.91102
-0.31019
4.28395
-0.0736044
1.80788
-0.174809
0.0472166
3.66253
0.0352237
6.67354
-0.000529418
8.08566
-0.0430906
9.58544
-0.078904
11.2227
-0.112581
13.1279
-0.148606
15.3036
-0.184273
17.7079
-0.225887
20.3312
-0.287723
23.1981
-0.351894
22.1498
-0.395604
17.785
-0.416936
14.4282
-0.400062
11.6922
-0.370674
9.25146
-0.326255
7.31363
-0.255273
5.84004
-0.142871
4.17155
0.00808953
1.65692
-0.166719
0.0568013
3.60573
0.0576983
6.67264
0.0283167
8.11504
-0.0149224
9.62868
-0.0407709
11.2486
-0.0754193
13.1626
-0.106094
15.3343
-0.135836
17.7376
-0.169347
20.3647
-0.219235
23.248
-0.26437
22.1949
-0.288672
17.8093
-0.282281
14.4218
-0.239238
11.6492
-0.178785
9.19101
-0.0966945
7.23154
-0.0309443
5.77429
0.0530725
4.08753
0.0605219
1.64947
-0.106198
0.0727447
3.53298
0.0796687
6.66572
0.0571772
8.13753
0.0313389
9.65451
0.00846551
11.2715
-0.0272243
13.1983
-0.0462028
15.3532
-0.0695922
17.761
-0.0970539
20.3922
-0.134619
23.2856
-0.159827
22.2201
-0.162103
17.8116
-0.130381
14.3901
-0.0703089
11.5891
0.0154798
9.10522
0.109047
7.13797
0.20828
5.67505
0.247589
4.04822
0.128063
1.76899
0.0218652
0.0857646
3.44722
0.111823
6.63966
0.105396
8.14396
0.0812049
9.6787
0.0552772
11.2974
0.0432308
13.2103
0.0297416
15.3667
0.012323
17.7784
-0.0143396
20.4189
-0.0371714
23.3084
-0.0417202
22.2247
-0.0186536
17.7885
0.0381329
14.3333
0.116932
11.5103
0.195494
9.02666
0.281564
7.0519
0.367729
5.58889
0.39244
4.02351
0.187519
1.97392
0.209384
0.117501
3.32971
0.160249
6.59691
0.161046
8.14316
0.149431
9.69032
0.145679
11.3012
0.140355
13.2156
0.133704
15.3734
0.126391
17.7857
0.113367
20.4319
0.0951175
23.3266
0.0988893
22.2209
0.134396
17.753
0.196542
14.2712
0.269187
11.4376
0.330265
8.96558
0.394275
6.98789
0.461389
5.52178
0.458828
4.02607
0.24922
2.18352
0.458604
0.141042
3.18867
0.209209
6.52874
0.228344
8.12403
0.232894
9.68577
0.241323
11.2927
0.245288
13.2117
0.252308
15.3664
0.257853
17.7802
0.255298
20.4344
0.246495
23.3354
0.254128
22.2133
0.286848
17.7203
0.334177
14.2238
0.378792
11.393
0.408131
8.93624
0.441854
6.95417
0.472236
5.49139
0.445738
4.05257
0.256306
2.37296
0.71491
0.19328
2.99539
0.294854
6.42717
0.334796
8.08409
0.358614
9.66195
0.377306
11.274
0.393066
13.1959
0.411112
15.3483
0.424502
17.7668
0.427593
20.4313
0.419466
23.3436
0.419946
22.2128
0.428817
17.7114
0.436165
14.2165
0.438468
11.3907
0.434897
8.93981
0.44732
6.94175
0.458707
5.48001
0.417769
4.09351
0.239134
2.55159
0.954044
0.244096
2.7513
0.393095
6.27817
0.4575
8.01968
0.499737
9.61971
0.529056
11.2447
0.560679
13.1643
0.594343
15.3146
0.618509
17.7426
0.628771
20.4211
0.616896
23.3555
0.594954
22.2348
0.561843
17.7446
0.529361
14.249
0.507791
11.4123
0.485021
8.96258
0.464342
6.96243
0.436818
5.50753
0.36296
4.16737
0.193353
2.7212
1.1474
0.335676
2.41562
0.545011
6.06884
0.643827
7.92087
0.703248
9.56029
0.740302
11.2077
0.784145
13.1204
0.829861
15.2689
0.863432
17.7091
0.876291
20.4082
0.852232
23.3795
0.796824
22.2902
0.734933
17.8064
0.68245
14.3015
0.629643
11.4651
0.550045
9.04218
0.465514
7.04696
0.387537
5.58551
0.291544
4.26336
0.142042
2.8707
1.28944
0.466742
1.94888
0.768271
5.76731
0.884858
7.80428
0.955565
9.48958
1.00064
11.1626
1.05809
13.063
1.11682
15.2102
1.16172
17.6642
1.17868
20.3913
1.14681
23.4114
1.07447
22.3625
0.995268
17.8856
0.905473
14.3912
0.795371
11.5752
0.65798
9.17957
0.525995
7.17894
0.420586
5.69092
0.303392
4.38056
0.142296
3.03179
1.43174
0.708131
1.24075
1.04026
5.43518
1.17286
7.67168
1.26308
9.39936
1.32669
11.099
1.40236
12.9873
1.47777
15.1348
1.5391
17.6028
1.56807
20.3623
1.54288
23.4366
1.45953
22.4458
1.3365
18.0087
1.18091
14.5468
0.998037
11.7581
0.80078
9.37683
0.61555
7.36417
0.472724
5.83374
0.330526
4.52275
0.157996
3.20432
1.58973
0.799545
0.441202
1.40221
4.83251
1.61171
7.46218
1.71013
9.30094
1.77238
11.0367
1.85084
12.9089
1.94299
15.0426
2.02368
17.5222
2.07135
20.3146
2.05697
23.4509
1.95261
22.5502
1.78559
18.1757
1.59216
14.7403
1.37458
11.9757
1.11931
9.63209
0.867894
7.61559
0.665964
6.03567
0.460313
4.72841
0.222357
3.44228
1.81209
0.626149
-0.184947
1.55928
3.89938
1.95237
7.06909
2.14329
9.11002
2.28349
10.8965
2.40006
12.7923
2.52942
14.9133
2.64886
17.4027
2.7339
20.2296
2.74125
23.4436
2.63464
22.6568
2.45444
18.3559
2.23513
14.9596
1.98714
12.2236
1.68305
9.93618
1.32354
7.9751
0.986492
6.37272
0.653215
5.06168
0.303283
3.79221
2.11537
0.471519
-0.656465
1.35509
3.01581
1.83897
6.58521
2.07486
8.87413
2.22559
10.7458
2.30569
12.7122
2.37568
14.8433
2.41364
17.3647
2.39104
20.2522
2.27426
23.5604
2.08316
22.8479
1.87512
18.5639
1.65233
15.1824
1.4182
12.4578
1.17993
10.1745
0.938174
8.21686
0.704278
6.60662
0.474227
5.29173
0.225498
4.04094
2.34087
-0.0334714
-0.622994
0.346896
2.63544
0.820271
6.11183
1.13766
8.55675
1.37036
10.5131
1.54037
12.5422
1.68618
14.6975
1.79717
17.2538
1.84113
20.2082
1.78519
23.6163
1.64262
22.9905
1.4696
18.737
1.28942
15.3625
1.11099
12.6362
0.92031
10.3651
0.71154
8.42563
0.521593
6.79656
0.336401
5.47693
0.14926
4.22808
2.49013
-0.26136
-0.361634
-0.318611
2.69269
-0.0766331
5.86986
0.262377
8.21774
0.584648
10.1908
0.867163
12.2597
1.08285
14.4818
1.25174
17.0849
1.35133
20.1086
1.36088
23.6068
1.26893
23.0824
1.14128
18.8646
1.00047
15.5034
0.856275
12.7804
0.711788
10.5096
0.551777
8.58564
0.395279
6.95306
0.242711
5.6295
0.0927962
4.378
2.58293
-0.304885
-0.0567493
-0.563364
2.95117
-0.502017
5.80851
-0.257643
7.97336
0.042164
9.89101
0.329108
11.9727
0.58958
14.2213
0.799255
16.8752
0.941835
19.9661
0.998302
23.5503
0.959508
23.1212
0.873987
18.9501
0.770389
15.607
0.658983
12.8918
0.55354
10.6151
0.432137
8.70704
0.307171
7.07803
0.185286
5.75138
0.064406
4.49888
2.64733
-0.402911
0.346161
-0.583966
3.13223
-0.552014
5.77656
-0.42364
7.84499
-0.232253
9.69962
0.0156889
11.7248
0.257048
13.98
0.466807
16.6654
0.628383
19.8045
0.715206
23.4635
0.712103
23.1243
0.660024
19.0022
0.588754
15.6782
0.505803
12.9748
0.429298
10.6916
0.337719
8.79862
0.234246
7.1815
0.125344
5.86028
0.0173667
4.60685
2.6647
-0.335926
0.682087
-0.528803
3.3251
-0.489387
5.73714
-0.38199
7.73759
-0.255634
9.57327
-0.101685
11.5708
0.0754536
13.8028
0.250476
16.4904
0.405512
19.6494
0.502073
23.3669
0.521559
23.1048
0.493712
19.0301
0.448517
15.7234
0.388808
13.0345
0.329561
10.7508
0.254528
8.87366
0.162208
7.27382
0.0650649
5.95742
-0.0177094
4.68963
2.64699
-0.275937
0.958024
-0.435915
3.48508
-0.418612
5.71984
-0.328677
7.64766
-0.218293
9.46288
-0.107774
11.4603
0.0106419
13.6844
0.143578
16.3575
0.261959
19.5311
0.349638
23.2792
0.379984
23.0745
0.367088
19.043
0.338948
15.7516
0.291713
13.0817
0.240566
10.802
0.176363
8.93786
0.0944472
7.35574
0.0109127
6.04096
-0.0477462
4.74829
2.59924
-0.214336
1.17236
-0.351783
3.62253
-0.37073
5.73879
-0.297832
7.57476
-0.196434
9.36149
-0.0973877
11.3613
-0.00258807
13.5896
0.0953495
16.2595
0.177591
19.4488
0.247744
23.2091
0.278264
23.044
0.270644
19.0506
0.249981
15.7722
0.210828
13.1209
0.164017
10.8488
0.108919
8.99296
0.0415297
7.42313
-0.0265107
6.109
-0.0642056
4.78598
2.53504
-0.155025