/*--------------------------------*- C++ -*----------------------------------*\
| =========                 |                                                 |
| \\      /  F ield         | OpenFOAM: The Open Source CFD Toolbox           |
|  \\    /   O peration     | Version:  2412                                  |
|   \\  /    A nd           | Website:  www.openfoam.com                      |
|    \\/     M anipulation  |                                                 |
\*---------------------------------------------------------------------------*/
FoamFile
{
    version     2.0;
    format      ascii;
    arch        "LSB;label=32;scalar=64";
    class       volVectorField;
    location    "5.75";
    object      U;
}
// * * * * * * * * * * * * * * * * * * * * * * * * * * * * * * * * * * * * * //

dimensions      [0 1 -1 0 0 0 0];

internalField   nonuniform List<vector> 
2200
(
(0.376483 -0.000389052 0)
(1.19327 -0.000104215 0)
(2.12271 0.0010107 0)
(3.16872 0.00134314 0)
(4.3258 0.00213631 0)
(5.57132 0.00302626 0)
(6.86373 0.00369648 0)
(8.12074 0.0038984 0)
(9.20658 0.00464188 0)
(9.90091 0.004592 0)
(9.90112 0.00396216 0)
(9.20684 0.00355899 0)
(8.12163 0.00329755 0)
(6.86385 0.0029169 0)
(5.5716 0.00251239 0)
(4.32501 0.00220681 0)
(3.16816 0.00172238 0)
(2.12223 0.00158048 0)
(1.19221 0.00159313 0)
(0.374093 0.00130852 0)
(0.37879 0.00135789 0)
(1.19403 0.000993157 0)
(2.12436 0.00263837 0)
(3.17006 0.00426786 0)
(4.32666 0.00627425 0)
(5.57457 0.00882119 0)
(6.86565 0.010452 0)
(8.12217 0.0125874 0)
(9.20751 0.0133245 0)
(9.90024 0.0136731 0)
(9.89961 0.0132832 0)
(9.20526 0.0120078 0)
(8.11846 0.0102928 0)
(6.86214 0.0085682 0)
(5.57015 0.00680164 0)
(4.32299 0.00539004 0)
(3.16533 0.00404428 0)
(2.11743 0.00264599 0)
(1.18531 0.002704 0)
(0.370427 -0.000802408 0)
(0.385321 0.00352488 0)
(1.19681 0.00284886 0)
(2.12849 0.00551356 0)
(3.1747 0.00856911 0)
(4.33077 0.0124081 0)
(5.57664 0.0144622 0)
(6.86678 0.0180966 0)
(8.12228 0.0201686 0)
(9.20813 0.0223354 0)
(9.89856 0.022517 0)
(9.89798 0.0206222 0)
(9.20241 0.018128 0)
(8.11638 0.0152832 0)
(6.85762 0.0129855 0)
(5.56432 0.0104363 0)
(4.31733 0.00764291 0)
(3.15982 0.00519612 0)
(2.11151 0.00262383 0)
(1.17825 0.0012315 0)
(0.370242 -0.00281776 0)
(0.400749 0.00541816 0)
(1.20356 0.00582086 0)
(2.13656 0.0112913 0)
(3.18233 0.0140279 0)
(4.33754 0.0180584 0)
(5.58077 0.0230333 0)
(6.87092 0.0259009 0)
(8.1258 0.0287597 0)
(9.20991 0.0312723 0)
(9.89675 0.0313424 0)
(9.89487 0.0285457 0)
(9.19782 0.0252999 0)
(8.109 0.0216802 0)
(6.85123 0.0165294 0)
(5.55902 0.0115633 0)
(4.31219 0.0081182 0)
(3.15414 0.00561577 0)
(2.1053 0.00206113 0)
(1.17064 0.000712889 0)
(0.374861 -0.00348596 0)
(0.428153 0.00541996 0)
(1.21715 0.0097574 0)
(2.15136 0.0156625 0)
(3.19773 0.0216147 0)
(4.34927 0.027076 0)
(5.58992 0.0311013 0)
(6.87667 0.0338013 0)
(8.1264 0.0367916 0)
(9.21072 0.0395409 0)
(9.89403 0.0394062 0)
(9.89151 0.0362089 0)
(9.192 0.0311399 0)
(8.1042 0.0245072 0)
(6.84623 0.0184008 0)
(5.55332 0.0117889 0)
(4.30654 0.00586345 0)
(3.1496 0.00254714 0)
(2.10165 0.00134178 0)
(1.16396 -0.00163666 0)
(0.383523 -0.00273297 0)
(0.458268 0.00264316 0)
(1.23481 0.014706 0)
(2.17604 0.0185457 0)
(3.21878 0.0300342 0)
(4.36747 0.0393163 0)
(5.60542 0.0411348 0)
(6.88732 0.0447122 0)
(8.13492 0.048398 0)
(9.2155 0.0501899 0)
(9.89071 0.0485637 0)
(9.88608 0.0430966 0)
(9.18618 0.0362864 0)
(8.09606 0.0284913 0)
(6.83778 0.0190769 0)
(5.54708 0.0107812 0)
(4.30167 0.0036875 0)
(3.14565 -0.000718633 0)
(2.09944 -0.00111683 0)
(1.16209 -0.00672736 0)
(0.397567 -0.000251307 0)
(0.490772 0.000163907 0)
(1.27252 0.020422 0)
(2.20385 0.0216387 0)
(3.23792 0.0361026 0)
(4.38383 0.0430896 0)
(5.61938 0.0507861 0)
(6.89709 0.0560272 0)
(8.14029 0.0570951 0)
(9.22074 0.0590886 0)
(9.89001 0.0575126 0)
(9.88388 0.0506653 0)
(9.18025 0.0418206 0)
(8.08941 0.0307708 0)
(6.83017 0.0192368 0)
(5.53836 0.00933631 0)
(4.29192 0.00423186 0)
(3.13657 -0.00167496 0)
(2.09419 -0.00349084 0)
(1.16707 -0.00995263 0)
(0.407676 0.00264089 0)
(0.527631 0.00107164 0)
(1.32406 0.0254045 0)
(2.22142 0.0287693 0)
(3.24886 0.0387143 0)
(4.40274 0.0465341 0)
(5.63675 0.0583369 0)
(6.91208 0.0655677 0)
(8.15217 0.0694105 0)
(9.22685 0.0714405 0)
(9.88568 0.0676374 0)
(9.87714 0.0581351 0)
(9.17118 0.0466137 0)
(8.07971 0.034154 0)
(6.82058 0.0204335 0)
(5.52812 0.00970763 0)
(4.28159 0.00536461 0)
(3.12372 -0.00415946 0)
(2.08391 -0.00801487 0)
(1.18936 -0.0139898 0)
(0.420137 0.00245017 0)
(0.576354 0.00362648 0)
(1.38797 0.0282962 0)
(2.23178 0.0359698 0)
(3.2694 0.0424187 0)
(4.41718 0.0483023 0)
(5.64762 0.0650996 0)
(6.92391 0.0734248 0)
(8.16122 0.0787472 0)
(9.23556 0.0831272 0)
(9.8848 0.0785626 0)
(9.87303 0.0664563 0)
(9.16464 0.0528868 0)
(8.06979 0.037885 0)
(6.80673 0.0245595 0)
(5.50942 0.0148753 0)
(4.26136 0.00600123 0)
(3.10329 -0.00279722 0)
(2.05765 -0.0116139 0)
(1.22076 -0.0163646 0)
(0.441253 0.00011075 0)
(0.629685 0.00603564 0)
(1.45104 0.0280985 0)
(2.24403 0.0455288 0)
(3.28982 0.0434593 0)
(4.43333 0.0567561 0)
(5.66082 0.0687824 0)
(6.93366 0.0783222 0)
(8.16737 0.0895098 0)
(9.24058 0.0957378 0)
(9.87975 0.0903443 0)
(9.86461 0.0757312 0)
(9.14901 0.0593017 0)
(8.05067 0.044375 0)
(6.78434 0.0326256 0)
(5.48457 0.0195854 0)
(4.23878 0.00833784 0)
(3.08586 -0.00041058 0)
(2.02415 -0.0121947 0)
(1.25456 -0.0137934 0)
(0.465997 -0.00148448 0)
(0.695259 0.00692346 0)
(1.53613 0.027736 0)
(2.26524 0.0502765 0)
(3.32499 0.0487902 0)
(4.44935 0.0669897 0)
(5.67235 0.0760874 0)
(6.94118 0.0871309 0)
(8.16941 0.0990744 0)
(9.24133 0.10692 0)
(9.86985 0.102941 0)
(9.85112 0.0879553 0)
(9.13232 0.0700696 0)
(8.02694 0.0526627 0)
(6.76009 0.0384327 0)
(5.46456 0.023941 0)
(4.21588 0.0042038 0)
(3.06669 0.0023719 0)
(1.99738 -0.0154637 0)
(1.28395 -0.00979032 0)
(0.486998 -0.00252062 0)
(0.745037 0.00880889 0)
(1.59627 0.0257709 0)
(2.29046 0.0567293 0)
(3.36281 0.0557259 0)
(4.47841 0.0808175 0)
(5.69681 0.0874435 0)
(6.95199 0.0981585 0)
(8.17251 0.111535 0)
(9.24061 0.120106 0)
(9.85524 0.116051 0)
(9.83177 0.100016 0)
(9.10372 0.081066 0)
(7.99657 0.0600992 0)
(6.7272 0.0424846 0)
(5.43665 0.0237015 0)
(4.19052 0.0014334 0)
(3.05168 0.00317959 0)
(1.97885 -0.0211283 0)
(1.31695 -0.00761064 0)
(0.507628 -0.00346066 0)
(0.826268 0.00968908 0)
(1.70356 0.0299831 0)
(2.34586 0.0661765 0)
(3.40749 0.0678254 0)
(4.51262 0.0952651 0)
(5.72277 0.104988 0)
(6.96551 0.120669 0)
(8.17623 0.129265 0)
(9.23558 0.136083 0)
(9.83264 0.132878 0)
(9.80463 0.115148 0)
(9.07375 0.0931841 0)
(7.96562 0.0668031 0)
(6.70059 0.0383467 0)
(5.41857 0.0172315 0)
(4.17625 -0.00384095 0)
(3.02842 0.000232118 0)
(1.96801 -0.0294635 0)
(1.34537 -0.00776097 0)
(0.525403 -0.00435071 0)
(0.880308 0.0133546 0)
(1.77133 0.0321869 0)
(2.39601 0.0810354 0)
(3.44282 0.084052 0)
(4.57491 0.123137 0)
(5.76907 0.137647 0)
(6.99708 0.151036 0)
(8.19109 0.156024 0)
(9.23407 0.16124 0)
(9.80935 0.152822 0)
(9.77248 0.129787 0)
(9.0355 0.100404 0)
(7.92976 0.0656468 0)
(6.67187 0.0280606 0)
(5.38756 0.00802725 0)
(4.16082 -0.0117653 0)
(2.99848 -0.0153919 0)
(1.97123 -0.0405918 0)
(1.39097 -0.0122036 0)
(0.555502 -0.00544616 0)
(1.00649 0.0152095 0)
(1.9186 0.0456748 0)
(2.49728 0.103945 0)
(3.48982 0.110826 0)
(4.6204 0.144499 0)
(5.79745 0.165544 0)
(7.01917 0.184543 0)
(8.20461 0.192505 0)
(9.2345 0.193671 0)
(9.78451 0.17997 0)
(9.74213 0.146929 0)
(9.00196 0.107709 0)
(7.89816 0.0634099 0)
(6.63969 0.0215535 0)
(5.35497 -0.00468198 0)
(4.14024 -0.0247143 0)
(2.95901 -0.0332973 0)
(1.98949 -0.0494293 0)
(1.43929 -0.0147427 0)
(0.588505 -0.0066413 0)
(1.08971 0.0162888 0)
(2.02639 0.0436507 0)
(2.59248 0.110415 0)
(3.54589 0.135792 0)
(4.6865 0.168638 0)
(5.83829 0.201845 0)
(7.05293 0.217915 0)
(8.22519 0.227878 0)
(9.24248 0.231671 0)
(9.76712 0.210472 0)
(9.71433 0.165856 0)
(8.96211 0.113562 0)
(7.85032 0.061781 0)
(6.59075 0.0207317 0)
(5.30622 -0.00946438 0)
(4.11044 -0.0280291 0)
(2.93311 -0.0500109 0)
(2.03171 -0.0579709 0)
(1.51432 -0.0188289 0)
(0.641938 -0.0068876 0)
(1.25669 0.0213386 0)
(2.21091 0.0601042 0)
(2.73053 0.129761 0)
(3.62751 0.161665 0)
(4.75111 0.191674 0)
(5.8778 0.224427 0)
(7.08395 0.246962 0)
(8.24413 0.267476 0)
(9.24656 0.270897 0)
(9.7433 0.245727 0)
(9.68277 0.19205 0)
(8.92159 0.131911 0)
(7.80487 0.0717027 0)
(6.54286 0.0300474 0)
(5.26239 -0.0104377 0)
(4.07387 -0.0341969 0)
(2.90713 -0.055787 0)
(2.07029 -0.0549817 0)
(1.57993 -0.0165371 0)
(0.681888 -0.00600662 0)
(1.38199 0.017731 0)
(2.36378 0.0556075 0)
(2.87462 0.132603 0)
(3.71912 0.182042 0)
(4.83283 0.218554 0)
(5.94104 0.252171 0)
(7.12482 0.281352 0)
(8.26831 0.30897 0)
(9.25337 0.313397 0)
(9.71911 0.286143 0)
(9.6455 0.222252 0)
(8.86721 0.15271 0)
(7.73503 0.0861924 0)
(6.47041 0.0393398 0)
(5.20847 -0.00622307 0)
(4.02642 -0.0387268 0)
(2.88984 -0.0626885 0)
(2.12275 -0.0609382 0)
(1.66589 -0.0199486 0)
(0.737713 -0.00491516 0)
(1.55491 0.0269297 0)
(2.56958 0.0705104 0)
(3.03752 0.154534 0)
(3.8299 0.203808 0)
(4.91068 0.255719 0)
(6.00553 0.291351 0)
(7.15878 0.319478 0)
(8.28676 0.350554 0)
(9.24414 0.358132 0)
(9.6749 0.330843 0)
(9.58566 0.261837 0)
(8.79175 0.188267 0)
(7.65874 0.114364 0)
(6.40416 0.0478701 0)
(5.15594 -0.00801173 0)
(3.96459 -0.0453938 0)
(2.87446 -0.0662621 0)
(2.18047 -0.0606599 0)
(1.74513 -0.016503 0)
(0.777627 -0.00367135 0)
(1.75696 0.0229188 0)
(2.77943 0.0754912 0)
(3.23678 0.165565 0)
(3.96952 0.234978 0)
(5.01902 0.296068 0)
(6.10235 0.342931 0)
(7.21127 0.382725 0)
(8.31264 0.409076 0)
(9.22094 0.413629 0)
(9.60359 0.389182 0)
(9.49683 0.309556 0)
(8.68602 0.225752 0)
(7.55167 0.132267 0)
(6.30147 0.0399591 0)
(5.08331 -0.00833654 0)
(3.89761 -0.0578678 0)
(2.86968 -0.0720074 0)
(2.24457 -0.0606166 0)
(1.8378 -0.0188534 0)
(0.822869 0.00076273 0)
(1.93335 0.0334008 0)
(3.01916 0.0831234 0)
(3.44064 0.19305 0)
(4.12869 0.261235 0)
(5.12559 0.341084 0)
(6.19307 0.401352 0)
(7.26339 0.45947 0)
(8.33709 0.488253 0)
(9.19151 0.494426 0)
(9.52137 0.456686 0)
(9.39186 0.361283 0)
(8.57286 0.256313 0)
(7.44848 0.148525 0)
(6.21666 0.0453478 0)
(5.02461 -0.0137501 0)
(3.84124 -0.0708639 0)
(2.88278 -0.0782406 0)
(2.3246 -0.0660403 0)
(1.92823 -0.01093 0)
(0.849979 0.00399462 0)
(2.23542 0.0297158 0)
(3.29491 0.101681 0)
(3.70664 0.207747 0)
(4.33655 0.3061 0)
(5.28924 0.401786 0)
(6.32682 0.470537 0)
(7.34537 0.547823 0)
(8.40558 0.587194 0)
(9.18301 0.59601 0)
(9.45684 0.547062 0)
(9.30769 0.417123 0)
(8.47289 0.286025 0)
(7.33139 0.161785 0)
(6.09058 0.046926 0)
(4.92043 -0.00592233 0)
(3.77538 -0.0749713 0)
(2.8931 -0.0731468 0)
(2.41308 -0.0538275 0)
(2.04066 -0.012187 0)
(0.849096 0.0161119 0)
(2.43627 0.0423746 0)
(3.59969 0.101438 0)
(3.9726 0.241994 0)
(4.56098 0.343024 0)
(5.45881 0.460031 0)
(6.46244 0.545023 0)
(7.44232 0.638972 0)
(8.45931 0.69293 0)
(9.1728 0.702651 0)
(9.40394 0.642306 0)
(9.22598 0.485559 0)
(8.36215 0.337729 0)
(7.20387 0.203858 0)
(5.9947 0.0875824 0)
(4.84251 -0.00161357 0)
(3.72641 -0.0720745 0)
(2.93294 -0.0732548 0)
(2.49783 -0.0466079 0)
(2.14711 0.0105176 0)
(0.822969 0.0162081 0)
(2.84159 0.0444293 0)
(3.93912 0.136925 0)
(4.3108 0.266591 0)
(4.83975 0.401449 0)
(5.67845 0.544273 0)
(6.63051 0.647317 0)
(7.55278 0.752474 0)
(8.52964 0.816437 0)
(9.13754 0.823618 0)
(9.31039 0.750547 0)
(9.09898 0.573621 0)
(8.20419 0.412732 0)
(7.0336 0.254138 0)
(5.82807 0.108069 0)
(4.68577 0.010907 0)
(3.66561 -0.0606358 0)
(2.96389 -0.0482436 0)
(2.63528 -0.0253906 0)
(2.2074 0.0162344 0)
(0.760296 0.0306261 0)
(3.12606 0.0677344 0)
(4.34049 0.149677 0)
(4.65849 0.338655 0)
(5.14561 0.486457 0)
(5.91852 0.662394 0)
(6.81093 0.785334 0)
(7.67097 0.902024 0)
(8.58094 0.973573 0)
(9.0648 0.965258 0)
(9.17008 0.885197 0)
(8.92859 0.666334 0)
(8.01837 0.486559 0)
(6.85634 0.295693 0)
(5.69631 0.141427 0)
(4.59167 0.0133616 0)
(3.63871 -0.0474539 0)
(3.04637 -0.0538517 0)
(2.73244 -0.0148814 0)
(2.34769 0.0241669 0)
(0.66366 0.051786 0)
(3.75893 0.0995783 0)
(4.77551 0.241759 0)
(5.0708 0.432104 0)
(5.49252 0.636396 0)
(6.20293 0.834203 -4.97962e-33)
(7.01679 0.981903 1.55667e-33)
(7.8405 1.11397 0)
(8.62476 1.18095 0)
(8.97738 1.15285 0)
(9.03612 1.03051 0)
(8.74268 0.769029 0)
(7.80992 0.551729 0)
(6.65533 0.338228 0)
(5.48342 0.15416 0)
(4.39952 0.0214547 0)
(3.57982 -0.0267712 0)
(3.06109 -0.00677946 0)
(2.83334 0.0241439 0)
(2.38948 0.0759528 0)
(0.402916 0.0476483 0)
(4.39741 0.245804 -6.92399e-19)
(5.2605 0.36217 5.85503e-19)
(5.47911 0.649464 0)
(5.85231 0.858248 -2.93292e-19)
(6.49478 1.06797 2.36839e-19)
(7.23825 1.23411 -1.65085e-33)
(8.00894 1.36929 0)
(8.63461 1.41931 4.43237e-20)
(8.87658 1.36929 -2.6714e-19)
(8.87798 1.20119 7.29091e-20)
(8.50909 0.896292 0)
(7.55408 0.637075 -4.00222e-19)
(6.40859 0.392951 -4.83184e-19)
(5.26418 0.183001 8.34387e-19)
(4.28566 0.0673443 -6.80748e-19)
(3.61221 0.0112902 0)
(3.22097 0.0463511 -2.65292e-19)
(2.98415 0.0783625 0)
(2.37059 0.0837298 -1.35504e-18)
(0.194601 0.0348051 1.64129e-18)
(4.80116 0.473139 2.24235e-20)
(5.65222 0.636275 -2.77051e-18)
(5.82063 0.927741 4.68436e-19)
(6.14256 1.12402 1.37713e-18)
(6.71248 1.34517 5.02704e-19)
(7.38642 1.51379 -7.72449e-19)
(8.10239 1.652 0)
(8.5774 1.6773 0)
(8.72905 1.6211 4.99706e-19)
(8.67153 1.42089 0)
(8.22951 1.08086 1.44132e-18)
(7.28354 0.780384 4.37413e-19)
(6.15023 0.486026 -3.84125e-20)
(5.0447 0.232773 -1.06605e-18)
(4.19585 0.143093 0)
(3.64984 0.0973395 0)
(3.35312 0.133268 -4.66445e-18)
(3.20872 0.190505 1.17586e-17)
(2.58537 0.179266 -6.96625e-18)
(0.292153 0.0382212 -8.2452e-18)
(5.1071 0.750657 2.79556e-18)
(6.00137 1.02973 -1.05937e-18)
(6.12199 1.25726 -3.52492e-19)
(6.37235 1.43061 -2.52435e-18)
(6.87944 1.64038 3.54643e-19)
(7.48111 1.82102 2.06936e-18)
(8.11296 1.94868 -5.13182e-19)
(8.46216 1.95589 0)
(8.55352 1.88269 -1.22933e-18)
(8.43192 1.66453 2.00137e-18)
(7.93749 1.289 -4.04848e-18)
(7.01344 0.951692 2.06146e-18)
(5.90889 0.599215 -1.57925e-18)
(4.96092 0.38054 3.37766e-18)
(4.28759 0.279954 0)
(3.8545 0.308556 -1.30493e-18)
(3.64292 0.376167 0)
(3.41529 0.404146 7.16945e-18)
(2.64248 0.298881 -1.69478e-17)
(0.436847 0.085751 1.06669e-17)
(5.32834 1.03543 -1.17435e-17)
(6.2604 1.435 6.24393e-18)
(6.35358 1.62414 1.03332e-18)
(6.5664 1.76313 0)
(6.99629 1.96618 1.57949e-18)
(7.53375 2.14806 -1.81078e-18)
(8.07731 2.25911 4.15777e-19)
(8.32601 2.25436 0)
(8.36009 2.158 9.16735e-19)
(8.18443 1.9221 -1.35615e-18)
(7.65664 1.51127 4.00106e-18)
(6.76285 1.13635 0)
(5.72923 0.760092 -3.43148e-18)
(4.88354 0.556125 1.85746e-18)
(4.26722 0.458881 4.97684e-18)
(3.94338 0.465957 -4.41216e-18)
(3.75952 0.524336 7.1175e-18)
(3.57185 0.576202 -1.57387e-17)
(2.89905 0.465458 9.97345e-18)
(0.723522 0.171906 -1.25431e-17)
(5.48978 1.3117 6.6692e-18)
(6.46568 1.84749 -6.75049e-18)
(6.55811 1.98389 3.29135e-18)
(6.70655 2.10293 -4.86537e-18)
(7.06757 2.30135 3.57598e-18)
(7.54559 2.47697 -7.02938e-19)
(7.9997 2.5787 4.22651e-20)
(8.17111 2.56366 -2.73458e-19)
(8.15993 2.44326 -1.16675e-18)
(7.93855 2.18779 -3.40231e-18)
(7.3851 1.74772 -8.84007e-18)
(6.51174 1.33948 -3.11118e-18)
(5.55329 0.960844 1.50586e-20)
(4.85482 0.784453 -7.07807e-18)
(4.42905 0.751458 -1.73697e-19)
(4.14363 0.787843 6.69506e-18)
(3.96865 0.828734 -2.09022e-18)
(3.73506 0.861418 -1.17127e-18)
(2.97374 0.636958 0)
(0.860371 0.250202 2.81563e-17)
(5.5965 1.58118 0)
(6.63006 2.24048 1.92262e-18)
(6.68966 2.34204 0)
(6.79715 2.46145 -3.19545e-19)
(7.11176 2.63679 -4.07158e-18)
(7.52166 2.80598 1.37806e-18)
(7.89432 2.89673 -5.2052e-19)
(8.00454 2.87662 7.39286e-19)
(7.96116 2.73052 -8.9068e-19)
(7.69849 2.45521 1.21261e-18)
(7.12733 1.99103 4.87812e-18)
(6.29326 1.55354 6.93005e-18)
(5.44501 1.19298 -4.36811e-18)
(4.83746 1.03679 7.83865e-18)
(4.41394 0.992511 -6.27138e-18)
(4.17585 0.978055 0)
(4.04175 0.993761 -1.62464e-17)
(3.84033 1.01914 2.17531e-17)
(3.15813 0.81719 1.6668e-18)
(1.11453 0.368932 -3.08078e-17)
(5.65431 1.83673 -3.60362e-19)
(6.71439 2.60498 -5.13114e-18)
(6.80014 2.68144 -1.57843e-17)
(6.87289 2.78678 9.22626e-18)
(7.1225 2.96442 -2.52735e-18)
(7.46683 3.13056 1.57595e-18)
(7.75969 3.20898 -1.22484e-18)
(7.83062 3.18009 1.92757e-19)
(7.75987 3.01165 -2.8992e-18)
(7.46188 2.71688 -1.37924e-19)
(6.88024 2.23512 -5.62536e-18)
(6.08831 1.78214 -7.66893e-18)
(5.33015 1.4519 4.93192e-18)
(4.8314 1.31486 -2.87305e-18)
(4.54465 1.29134 6.95709e-18)
(4.34151 1.30885 0)
(4.19038 1.31697 -1.02821e-17)
(3.95653 1.32609 1.52236e-17)
(3.25812 1.02121 2.92991e-17)
(1.23422 0.477717 -3.43707e-17)
(5.68106 2.06249 -1.77468e-17)
(6.78547 2.97509 1.24427e-17)
(6.87655 2.9965 1.01227e-17)
(6.9113 3.1181 -9.904e-18)
(7.10765 3.28851 3.56366e-19)
(7.39201 3.45196 3.65953e-18)
(7.61117 3.51313 2.74654e-19)
(7.66152 3.46875 -5.74273e-19)
(7.56221 3.28339 -2.23182e-18)
(7.23499 2.96919 3.46611e-18)
(6.64692 2.47476 5.23427e-18)
(5.90819 2.01644 1.20381e-17)
(5.25127 1.70719 0)
(4.81543 1.56849 2.11518e-19)
(4.50402 1.52467 -1.94571e-17)
(4.30427 1.50637 4.50127e-18)
(4.17278 1.48538 2.24695e-17)
(3.95556 1.5025 -6.5281e-18)
(3.27915 1.21443 1.42609e-17)
(1.28979 0.554418 -1.11661e-18)
(5.68186 2.2912 5.24436e-19)
(6.82209 3.28468 1.12161e-17)
(6.92516 3.27131 7.38651e-18)
(6.92285 3.41173 -1.67504e-17)
(7.06937 3.59435 1.14162e-17)
(7.29386 3.75654 -4.03604e-18)
(7.45795 3.80209 -3.15089e-19)
(7.49299 3.74174 9.82591e-19)
(7.36822 3.54306 3.37542e-18)
(7.01783 3.21014 -4.9929e-18)
(6.43085 2.70831 0)
(5.74816 2.25528 -4.75019e-18)
(5.16786 1.97383 5.4473e-18)
(4.79731 1.84872 7.14603e-18)
(4.57318 1.80304 -4.12499e-18)
(4.41219 1.79769 -1.02244e-17)
(4.27074 1.76633 -3.10393e-18)
(4.03962 1.75143 -7.44283e-20)
(3.32814 1.37544 0)
(1.30146 0.629756 0)
(5.68192 2.46434 -9.99234e-18)
(6.84087 3.62574 0)
(6.96003 3.54997 8.1706e-18)
(6.91136 3.70282 -3.6503e-18)
(7.00971 3.8828 -1.14082e-17)
(7.18134 4.03683 3.22251e-18)
(7.31019 4.06876 -3.69613e-19)
(7.32825 3.99791 -3.7524e-19)
(7.18189 3.78907 2.31802e-18)
(6.81458 3.4395 -2.24501e-18)
(6.23388 2.93382 3.02528e-18)
(5.60095 2.49134 1.48311e-17)
(5.0836 2.22255 4.87803e-19)
(4.74361 2.08244 -7.36586e-18)
(4.48216 2.00768 1.40233e-17)
(4.30901 1.98966 1.52845e-19)
(4.17447 1.91684 3.32511e-18)
(3.9643 1.91965 -1.62777e-17)
(3.28992 1.52173 1.67048e-17)
(1.27672 0.669185 -1.86038e-17)
(5.62239 2.68149 -4.07168e-21)
(6.84265 3.8917 0)
(6.96598 3.80532 0)
(6.87712 3.96724 3.37507e-18)
(6.93193 4.15253 4.29022e-18)
(7.06647 4.28703 -2.39252e-18)
(7.16592 4.31166 1.84487e-18)
(7.16331 4.23455 0)
(7.00032 4.01796 -3.84061e-18)
(6.62133 3.65552 7.45304e-18)
(6.05366 3.15115 9.32098e-18)
(5.46214 2.72352 -5.59863e-18)
(4.99379 2.46761 -6.8743e-18)
(4.68962 2.33864 1.61903e-17)
(4.48541 2.2476 -4.96948e-18)
(4.34323 2.23055 -6.00842e-18)
(4.21222 2.12693 -3.67641e-18)
(3.98542 2.10591 -1.77059e-17)
(3.27017 1.64942 2.43022e-18)
(1.23606 0.708189 2.00916e-17)
(5.61156 2.85902 -4.43535e-18)
(6.83457 4.20152 -6.78211e-18)
(6.95732 4.06138 6.7594e-19)
(6.81649 4.23535 2.69509e-20)
(6.84729 4.39981 1.36367e-18)
(6.95484 4.513 -5.77138e-18)
(7.02617 4.53253 0)
(7.00279 4.45112 6.61985e-19)
(6.82531 4.22868 -5.20807e-19)
(6.4395 3.85752 1.20783e-17)
(5.88769 3.35921 -2.35903e-18)
(5.32477 2.94673 2.5563e-18)
(4.88772 2.69133 0)
(4.5865 2.54364 -8.81496e-18)
(4.36343 2.41917 1.09008e-17)
(4.19302 2.38717 0)
(4.08937 2.27713 -8.07394e-18)
(3.86518 2.22329 2.35801e-17)
(3.20101 1.75799 2.86592e-18)
(1.16858 0.730683 -2.48849e-17)
(5.52224 3.02202 -9.82491e-18)
(6.80689 4.42208 1.21997e-17)
(6.92255 4.29723 0)
(6.75062 4.46984 7.79309e-18)
(6.76797 4.62067 0)
(6.84551 4.71448 5.5218e-18)
(6.89025 4.73238 0)
(6.84531 4.64743 0)
(6.65466 4.42045 -1.50979e-18)
(6.2659 4.04403 -1.17574e-17)
(5.72826 3.55549 -1.72723e-17)
(5.18862 3.16116 3.17202e-18)
(4.77849 2.90891 1.16975e-17)
(4.4996 2.75788 9.82809e-18)
(4.32671 2.63166 -3.48825e-17)
(4.18228 2.56957 -1.44413e-17)
(4.07396 2.43787 8.38634e-18)
(3.82869 2.3758 0)
(3.12151 1.83167 2.47028e-17)
(1.08592 0.741542 -2.69373e-17)
(5.48217 3.19824 1.06668e-17)
(6.76977 4.69444 -1.31888e-17)
(6.86051 4.54119 0)
(6.68387 4.70452 -3.73435e-19)
(6.68902 4.82468 -3.04977e-18)
(6.74058 4.90045 0)
(6.76037 4.91374 -2.95932e-19)
(6.69395 4.82493 9.56827e-19)
(6.49133 4.59439 -2.1618e-18)
(6.10244 4.2164 1.24513e-18)
(5.57532 3.73855 0)
(5.0551 3.36085 1.26612e-17)
(4.66426 3.10765 5.26755e-21)
(4.38664 2.93463 5.29511e-18)
(4.18649 2.77961 6.42478e-18)
(4.01492 2.7043 0)
(3.91817 2.56035 -1.41965e-17)
(3.68958 2.45383 2.78319e-17)
(3.01818 1.90551 -2.9898e-17)
(0.983494 0.73042 5.84898e-17)
(5.39505 3.328 0)
(6.70357 4.8978 0)
(6.82594 4.75122 -6.67879e-18)
(6.62607 4.91116 0)
(6.61657 5.014 0)
(6.64151 5.07181 6.62989e-18)
(6.63614 5.07957 -3.30564e-19)
(6.54821 4.98537 6.38077e-19)
(6.33565 4.75181 -2.95808e-19)
(5.94749 4.37493 0)
(5.43001 3.90978 -2.72964e-18)
(4.92735 3.54887 -1.04649e-17)
(4.55297 3.29778 -1.29771e-17)
(4.28854 3.12037 -5.31567e-18)
(4.11931 2.96616 6.96482e-18)
(3.98047 2.87076 -1.64554e-17)
(3.86974 2.70282 3.0469e-17)
(3.61733 2.58459 5.03107e-19)
(2.89845 1.94524 -2.84266e-17)
(0.859827 0.703514 -4.00843e-18)
(5.33505 3.48704 0)
(6.68398 5.1178 -9.4816e-18)
(6.76678 4.9635 7.58319e-18)
(6.56362 5.1153 0)
(6.54621 5.18842 0)
(6.54872 5.2354 -1.43945e-17)
(6.51992 5.23311 0)
(6.41177 5.13189 0)
(6.19138 4.89542 -4.89664e-18)
(5.80388 4.52145 2.32158e-18)
(5.29686 4.07046 -2.25818e-17)
(4.81002 3.72426 0)
(4.4469 3.4745 -1.37464e-17)
(4.17623 3.28225 4.31415e-19)
(3.97184 3.09925 -2.17731e-17)
(3.79451 2.98336 8.90106e-18)
(3.68963 2.8069 1.93461e-19)
(3.45043 2.63723 -3.27926e-17)
(2.75172 1.99131 1.53866e-17)
(0.72368 0.653703 4.36917e-18)
(5.26707 3.6101 0)
(6.59423 5.30838 -1.10295e-17)
(6.72546 5.15584 7.79966e-18)
(6.52233 5.29799 1.59484e-17)
(6.48378 5.35689 3.10501e-18)
(6.46349 5.38945 -1.74062e-18)
(6.41219 5.37673 1.23686e-18)
(6.28522 5.26742 3.57286e-19)
(6.05847 5.02747 5.24636e-18)
(5.67102 4.65701 1.58336e-17)
(5.17542 4.22125 1.87973e-17)
(4.70191 3.89003 3.46712e-18)
(4.34357 3.64418 1.99736e-17)
(4.07256 3.45175 1.25893e-17)
(3.88654 3.27477 1.56846e-17)
(3.74075 3.14317 -9.63318e-18)
(3.61673 2.93972 -1.19014e-17)
(3.34294 2.74299 1.40534e-17)
(2.59084 1.98025 -8.52212e-18)
(0.546639 0.59328 1.46425e-17)
(5.21958 3.73808 1.61429e-17)
(6.6062 5.50075 1.75304e-17)
(6.6903 5.34265 4.11436e-18)
(6.466 5.48368 2.83607e-19)
(6.42339 5.51559 -1.09775e-17)
(6.38501 5.53784 4.14975e-18)
(6.31342 5.5127 -1.36634e-18)
(6.17098 5.39462 -2.35311e-19)
(5.93884 5.15062 -6.22314e-18)
(5.55108 4.78392 -1.74899e-17)
(5.06691 4.36303 1.20185e-18)
(4.60337 4.04504 0)
(4.24611 3.80231 0)
(3.96182 3.60266 -6.47769e-18)
(3.73507 3.40356 -2.4952e-17)
(3.53603 3.24835 2.06458e-17)
(3.4124 3.03182 1.27169e-17)
(3.14614 2.76769 0)
(2.38859 1.99345 2.72108e-17)
(0.338068 0.460399 -1.6124e-17)
(5.16026 3.85728 -8.28991e-18)
(6.51321 5.6436 6.93718e-18)
(6.64367 5.5098 -9.35981e-18)
(6.42901 5.64115 -9.99282e-18)
(6.37063 5.66784 -4.26549e-18)
(6.31315 5.67783 1.17404e-18)
(6.2232 5.64171 0)
(6.0682 5.51497 -5.53153e-19)
(5.83066 5.26628 5.86522e-19)
(5.44254 4.9031 0)
(4.96837 4.49591 0)
(4.51086 4.19082 2.29465e-18)
(4.1491 3.95471 3.29035e-18)
(3.85419 3.75996 -6.83876e-18)
(3.63626 3.57195 1.79872e-17)
(3.47236 3.40392 -2.22444e-17)
(3.31647 3.15878 -2.73993e-17)
(2.99366 2.84763 2.46528e-17)
(2.14113 1.89246 -9.84798e-18)
(0.14592 0.336645 5.81676e-18)
(5.13679 3.98237 9.70752e-18)
(6.50982 5.85067 0)
(6.61945 5.67899 0)
(6.3831 5.80889 -3.24854e-18)
(6.31622 5.80908 2.63412e-18)
(6.24562 5.81102 -3.52034e-19)
(6.14173 5.76457 -4.37881e-18)
(5.97681 5.62948 -4.89045e-19)
(5.73439 5.37603 1.06644e-17)
(5.34544 5.01592 -1.38895e-18)
(4.87916 4.62045 3.06058e-18)
(4.42517 4.32651 -1.94489e-17)
(4.06061 4.09682 -2.00747e-17)
(3.75467 3.903 -3.5757e-18)
(3.49629 3.70236 0)
(3.25909 3.51613 -3.29079e-19)
(3.07845 3.24923 1.41582e-17)
(2.74209 2.83 -2.6717e-17)
(1.90991 1.813 2.03937e-17)
(-0.00479271 -0.0470355 1.86542e-17)
(5.07298 4.09232 -2.09405e-17)
(6.47192 5.96371 -8.30931e-18)
(6.57742 5.83158 1.37689e-19)
(6.33614 5.9452 4.18797e-18)
(6.26664 5.94486 0)
(6.18212 5.93637 1.11069e-17)
(6.06583 5.88239 5.16823e-18)
(5.89202 5.74022 -7.61899e-19)
(5.64398 5.48244 -5.30844e-18)
(5.25342 5.12536 -1.33791e-18)
(4.79292 4.74077 1.2377e-18)
(4.34099 4.45854 1.69974e-17)
(3.97061 4.23952 1.94889e-17)
(3.64991 4.05881 3.40471e-18)
(3.38958 3.87779 1.79113e-17)
(3.18087 3.68872 0)
(2.96198 3.3873 0)
(2.52282 2.89944 1.71231e-17)
(1.48387 1.4879 1.25435e-19)
(0.0572038 0.561044 -1.84836e-17)
(5.04397 4.20446 1.13026e-17)
(6.39275 6.12376 2.47373e-17)
(6.51807 5.95614 -3.63337e-17)
(6.28548 6.08656 2.13867e-17)
(6.21519 6.06962 -2.34563e-18)
(6.11983 6.05724 1.43481e-17)
(5.99328 5.99605 0)
(5.8111 5.84795 1.12182e-18)
(5.55772 5.58723 0)
(5.16456 5.23389 1.67596e-17)
(4.7091 4.86049 -1.69622e-18)
(4.25993 4.59106 1.89647e-18)
(3.8877 4.38386 2.19201e-17)
(3.55911 4.21364 -7.45557e-18)
(3.26206 4.03533 -9.44705e-18)
(2.96084 3.84511 0)
(2.64371 3.53944 0)
(2.05905 2.88484 0)
(0.950716 1.7456 -9.31478e-18)
(0.368685 1.94269 -5.78488e-18)
(4.9879 4.30417 0)
(6.37901 6.26751 0)
(6.50574 6.1226 1.30947e-17)
(6.2627 6.21712 -1.78184e-17)
(6.16704 6.1877 1.16666e-17)
(6.06216 6.17168 -1.30734e-17)
(5.92255 6.10357 -4.8613e-19)
(5.73268 5.9508 3.76423e-19)
(5.47343 5.68813 9.37288e-19)
(5.07784 5.33913 -1.91741e-17)
(4.62809 4.97739 2.89085e-18)
(4.1833 4.72229 1.67417e-17)
(3.80748 4.53108 -2.17713e-17)
(3.46271 4.38302 -2.4443e-17)
(3.15496 4.23727 8.47612e-18)
(2.87617 4.06357 0)
(2.52202 3.69569 1.33616e-17)
(1.68703 2.76245 1.58558e-17)
(1.05781 2.28958 -1.74945e-17)
(0.671545 2.84581 2.1924e-17)
(4.97149 4.40083 0)
(6.36246 6.4046 2.01989e-17)
(6.50242 6.26212 -3.32192e-18)
(6.21115 6.36457 2.20637e-17)
(6.11407 6.30602 -1.22603e-17)
(6.00455 6.28034 0)
(5.8536 6.20623 0)
(5.65663 6.04869 0)
(5.39215 5.78515 3.22224e-18)
(4.99441 5.44128 6.87889e-19)
(4.55202 5.09201 0)
(4.1138 4.85233 -1.65475e-17)
(3.73911 4.67774 0)
(3.39204 4.54761 1.74449e-17)
(3.06411 4.41618 -1.20281e-17)
(2.70712 4.23888 -9.77345e-18)
(2.21865 3.79326 -2.52079e-17)
(1.4451 3.03105 -1.4106e-17)
(1.03254 3.00232 -2.52083e-17)
(0.881128 3.39752 1.79495e-17)
(4.9064 4.4749 -7.13799e-18)
(6.30521 6.5087 2.88082e-19)
(6.39907 6.36839 -2.76565e-18)
(6.13299 6.45171 -1.72011e-17)
(6.07531 6.41769 0)
(5.94456 6.37988 0)
(5.78725 6.30409 0)
(5.58247 6.14209 3.93852e-20)
(5.31241 5.87836 -4.23659e-18)
(4.91395 5.54047 0)
(4.48055 5.20421 0)
(4.05064 4.98068 0)
(3.67751 4.82601 0)
(3.32134 4.72252 1.29426e-17)
(2.98659 4.62366 3.29792e-17)
(2.64929 4.43882 1.04479e-17)
(2.15348 3.88292 2.40249e-17)
(1.64115 3.38141 -1.95412e-17)
(1.20139 3.67832 8.20113e-18)
(1.05531 3.83032 0)
(4.84769 4.56223 6.85893e-18)
(6.24197 6.61915 -3.73962e-17)
(6.35703 6.47179 -9.14321e-18)
(6.11466 6.5769 -2.70181e-18)
(6.03161 6.51665 2.83098e-18)
(5.88662 6.48162 -1.90242e-17)
(5.72285 6.39923 1.2114e-18)
(5.50955 6.23327 3.81795e-18)
(5.23537 5.9697 0)
(4.83763 5.63863 -1.20862e-18)
(4.41472 5.31534 1.10024e-18)
(3.99482 5.1074 0)
(3.62884 4.97253 0)
(3.28217 4.89093 -1.62048e-17)
(2.95367 4.80241 2.90649e-18)
(2.57028 4.58508 -9.81278e-18)
(1.96682 4.03465 2.17089e-17)
(1.40547 3.79503 1.94122e-17)
(1.06914 4.1189 -3.42308e-17)
(0.996366 4.19972 1.79497e-17)
(4.81319 4.62067 1.29277e-17)
(6.22688 6.75358 3.75713e-17)
(6.38287 6.63333 1.35036e-17)
(6.10034 6.72459 0)
(5.97413 6.62855 0)
(5.83533 6.5901 1.43676e-17)
(5.65369 6.49486 -7.33781e-18)
(5.43536 6.32511 -3.63087e-18)
(5.15727 6.06123 -2.20633e-20)
(4.76281 5.73731 1.34696e-17)
(4.35181 5.42612 -1.98385e-17)
(3.94411 5.23256 0)
(3.58931 5.11828 0)
(3.24999 5.06374 -1.15263e-17)
(2.92207 4.99626 -1.51163e-17)
(2.53586 4.7594 0)
(1.97523 4.22015 -3.17736e-17)
(1.63147 4.20415 -5.93871e-18)
(1.4132 4.63751 3.47977e-17)
(1.11809 4.63969 -1.83582e-17)
(4.78031 4.70792 -2.44916e-17)
(6.20667 6.88023 -1.79088e-17)
(6.30634 6.76211 0)
(5.99852 6.84164 0)
(5.9154 6.74774 0)
(5.77034 6.69552 0)
(5.57893 6.59376 7.71335e-18)
(5.35799 6.41779 -5.03699e-18)
(5.0784 6.15371 0)
(4.68926 5.83682 -1.2138e-17)
(4.29148 5.53639 3.57599e-17)
(3.89881 5.35495 1.53205e-18)
(3.56162 5.25887 2.32788e-18)
(3.24429 5.22579 1.95158e-17)
(2.93158 5.15908 -1.30504e-17)
(2.50629 4.8577 0)
(2.03227 4.49965 1.00501e-17)
(1.57833 4.78202 7.03759e-19)
(1.13361 5.03035 -5.32814e-18)
(0.742198 5.09687 1.10382e-17)
(4.67382 4.75597 1.15912e-17)
(6.09371 6.94397 -1.70167e-17)
(6.19809 6.82753 0)
(5.9361 6.93365 -4.01373e-18)
(5.86624 6.85835 1.50132e-17)
(5.69198 6.79646 0)
(5.50099 6.69304 0)
(5.2761 6.51043 9.21011e-18)
(4.9969 6.24635 -5.54718e-19)
(4.61488 5.93571 1.16713e-17)
(4.23172 5.64468 -1.69754e-17)
(3.85712 5.47335 1.10392e-17)
(3.54179 5.3925 0)
(3.24481 5.37963 -1.06608e-17)
(2.93469 5.3176 6.66217e-18)
(2.53727 5.04488 7.23321e-18)
(2.06779 4.78561 0)
(1.71316 5.0978 5.08506e-18)
(1.29161 5.70472 8.62793e-18)
(1.1648 5.88378 2.56228e-18)
(4.61237 4.84838 -2.18335e-17)
(6.03832 7.11335 2.4593e-17)
(6.15877 7.00964 1.77755e-17)
(5.89121 7.09289 -4.60887e-18)
(5.78819 6.97205 -2.26572e-17)
(5.61191 6.9073 0)
(5.41792 6.79243 6.66206e-18)
(5.1903 6.60357 -3.92687e-18)
(4.91434 6.33881 -1.83449e-19)
(4.54035 6.03341 -1.01533e-17)
(4.17309 5.75023 -8.27139e-19)
(3.81924 5.58619 -1.23792e-17)
(3.52981 5.51531 1.51833e-17)
(3.26284 5.51319 4.86415e-18)
(2.9816 5.45471 -1.13717e-17)
(2.55078 5.14484 1.21765e-17)
(2.27739 4.99952 0)
(1.92453 5.74838 0)
(1.68046 6.29485 1.72207e-18)
(0.49001 6.33728 -5.9163e-18)
(4.53041 4.90664 1.04985e-17)
(5.97875 7.21051 2.33584e-17)
(6.10001 7.12876 -1.76342e-17)
(5.80413 7.21344 1.63242e-17)
(5.70263 7.08885 2.19364e-17)
(5.5289 7.01815 0)
(5.32594 6.89047 -7.07982e-18)
(5.10151 6.69586 -5.37637e-18)
(4.829 6.42922 0)
(4.46441 6.12732 0)
(4.11511 5.85076 0)
(3.78447 5.692 0)
(3.52215 5.62573 -1.73e-17)
(3.28407 5.6268 -6.60417e-18)
(3.01729 5.55451 0)
(2.66352 5.30203 -6.2311e-18)
(2.49631 5.42133 0)
(2.52574 5.77329 -2.74446e-18)
(2.59046 5.7332 2.27801e-18)
(1.42049 5.75761 -1.0759e-19)