/*--------------------------------*- C++ -*----------------------------------*\
| =========                 |                                                 |
| \\      /  F ield         | OpenFOAM: The Open Source CFD Toolbox           |
|  \\    /   O peration     | Version:  2412                                  |
|   \\  /    A nd           | Website:  www.openfoam.com                      |
|    \\/     M anipulation  |                                                 |
\*---------------------------------------------------------------------------*/
FoamFile
{
    version     2.0;
    format      ascii;
    arch        "LSB;label=32;scalar=64";
    class       surfaceScalarField;
    location    "0.28";
    object      phi;
}
// * * * * * * * * * * * * * * * * * * * * * * * * * * * * * * * * * * * * * //

dimensions      [0 3 -1 0 0 0 0];

oriented        oriented;

internalField   nonuniform List<scalar> 
799
(
4.17853e-05
8.35707e-05
0.000125355
0.000167139
0.00020892
0.0002507
0.000292478
0.000334253
0.000376024
0.000417792
0.000459557
0.000501316
0.000543072
0.000584822
0.000626566
0.000668305
0.000710037
0.000751763
0.000793482
0.000835193
0.000876897
0.000918592
0.000960278
0.00100196
0.00104362
0.00108528
0.00112693
0.00116857
0.00121019
0.00125181
0.00129341
0.001335
0.00137658
0.00141814
0.0014597
0.00150123
0.00154276
0.00158427
0.00162576
0.00166724
0.0017087
0.00175014
0.00179157
0.00183299
0.00187438
0.00191576
0.00195711
0.00199845
0.00203977
0.00208107
0.00212235
0.00216361
0.00220485
0.00224607
0.00228726
0.00232844
0.00236959
0.00241072
0.00245182
0.0024929
0.00253396
0.00257499
0.00261599
0.00265697
0.00269793
0.00273885
0.00277975
0.00282062
0.00286147
0.00290229
0.00294307
0.00298383
0.00302456
0.00306526
0.00310592
0.00314656
0.00318716
0.00322774
0.00326828
0.00330878
0.00334926
0.00338969
0.0034301
0.00347047
0.0035108
0.0035511
0.00359136
0.00363159
0.00367178
0.00371192
0.00375204
0.00379211
0.00383214
0.00387213
0.00391208
0.003952
0.00399186
0.00403169
0.00407148
0.00411122
0.00415092
0.00419057
0.00423018
0.00426974
0.00430926
0.00434873
0.00438816
0.00442754
0.00446687
0.00450615
0.00454538
0.00458456
0.00462369
0.00466277
0.0047018
0.00474078
0.0047797
0.00481857
0.00485739
0.00489615
0.00493486
0.00497351
0.00501211
0.00505065
0.00508913
0.00512755
0.00516591
0.00520422
0.00524246
0.00528065
0.00531877
0.00535683
0.00539482
0.00543276
0.00547063
0.00550843
0.00554617
0.00558384
0.00562145
0.00565899
0.00569646
0.00573386
0.00577119
0.00580845
0.00584564
0.00588275
0.0059198
0.00595677
0.00599366
0.00603048
0.00606723
0.0061039
0.00614049
0.006177
0.00621343
0.00624979
0.00628606
0.00632225
0.00635836
0.00639438
0.00643032
0.00646618
0.00650195
0.00653763
0.00657322
0.00660873
0.00664414
0.00667947
0.0067147
0.00674985
0.00678489
0.00681985
0.00685471
0.00688947
0.00692413
0.0069587
0.00699317
0.00702754
0.0070618
0.00709596
0.00713002
0.00716398
0.00719783
0.00723157
0.0072652
0.00729873
0.00733214
0.00736544
0.00739863
0.00743171
0.00746467
0.00749752
0.00753024
0.00756285
0.00759534
0.00762771
0.00765995
0.00769207
0.00772407
0.00775594
0.00778768
0.00781929
0.00785077
0.00788212
0.00791333
0.00794441
0.00797536
0.00800616
0.00803683
0.00806735
0.00809773
0.00812797
0.00815806
0.008188
0.0082178
0.00824744
0.00827693
0.00830627
0.00833545
0.00836447
0.00839333
0.00842203
0.00845057
0.00847894
0.00850715
0.00853518
0.00856305
0.00859074
0.00861826
0.0086456
0.00867276
0.00869973
0.00872653
0.00875314
0.00877956
0.00880579
0.00883183
0.00885767
0.00888331
0.00890876
0.008934
0.00895904
0.00898387
0.00900849
0.00903289
0.00905709
0.00908106
0.00910481
0.00912834
0.00915164
0.00917471
0.00919755
0.00922015
0.00924252
0.00926464
0.00928652
0.00930814
0.00932952
0.00935064
0.0093715
0.0093921
0.00941243
0.00943249
0.00945228
0.00947179
0.00949102
0.00950996
0.00952862
0.00954698
0.00956504
0.00958279
0.00960025
0.00961739
0.00963421
0.00965071
0.00966689
0.00968273
0.00969824
0.0097134
0.00972822
0.00974269
0.0097568
0.00977055
0.00978393
0.00979693
0.00980955
0.00982178
0.00983361
0.00984505
0.00985608
0.00986669
0.00987688
0.00988664
0.00989597
0.00990485
0.00991327
0.00992124
0.00992873
0.00993575
0.00994229
0.00994832
0.00995385
0.00995887
0.00996336
0.00996732
0.00997073
0.00997358
0.00997587
0.00997758
0.0099787
0.00997921
0.00997911
0.00997838
0.009977
0.00997497
0.00997227
0.00996889
0.0099648
0.00996
0.00995446
0.00994818
0.00994112
0.00993328
0.00992463
0.00991516
0.00990485
0.00989366
0.00988159
0.0098686
0.00985468
0.0098398
0.00982394
0.00980705
0.00978913
0.00977014
0.00975004
0.00972881
0.00970642
0.00968282
0.00965798
0.00963187
0.00960444
0.00957565
0.00954545
0.0095138
0.00948065
0.00944596
0.00940965
0.00937168
0.00933198
0.0092905
0.00924716
0.00920189
0.00915461
0.00910525
0.00905371
0.0089999
0.00894374
0.0088851
0.00882388
0.00875996
0.0086932
0.00862348
0.00855063
0.00847451
0.00839493
0.0083117
0.00822462
0.00813347
0.008038
0.00793794
0.00783301
0.00772288
0.0076072
0.00748558
0.00735759
0.00722275
0.00708052
0.0069303
0.00677143
0.00660316
0.00642463
0.00623491
0.0060329
0.00581741
0.00558707
0.00534035
0.00507559
0.00479092
0.00448438
0.00415395
0.00379765
0.00341377
0.00300109
0.00255924
0.00208906
0.00159297
0.0010752
0.000541739
2.54472e-08
-0.000541684
-0.00107514
-0.00159289
-0.00208895
-0.00255911
-0.00300095
-0.00341361
-0.00379748
-0.00415376
-0.00448418
-0.00479072
-0.00507539
-0.00534015
-0.00558687
-0.00581721
-0.00603271
-0.00623472
-0.00642446
-0.00660299
-0.00677127
-0.00693015
-0.00708037
-0.00722261
-0.00735746
-0.00748545
-0.00760708
-0.00772276
-0.0078329
-0.00793783
-0.00803789
-0.00813337
-0.00822453
-0.00831161
-0.00839484
-0.00847443
-0.00855056
-0.00862341
-0.00869314
-0.00875989
-0.00882382
-0.00888504
-0.00894369
-0.00899986
-0.00905366
-0.00910521
-0.00915457
-0.00920185
-0.00924712
-0.00929047
-0.00933195
-0.00937165
-0.00940962
-0.00944593
-0.00948063
-0.00951378
-0.00954543
-0.00957563
-0.00960442
-0.00963185
-0.00965797
-0.00968281
-0.00970641
-0.0097288
-0.00975003
-0.00977013
-0.00978912
-0.00980705
-0.00982393
-0.0098398
-0.00985468
-0.0098686
-0.00988158
-0.00989366
-0.00990484
-0.00991516
-0.00992463
-0.00993328
-0.00994112
-0.00994817
-0.00995446
-0.00996
-0.0099648
-0.00996889
-0.00997227
-0.00997497
-0.009977
-0.00997838
-0.00997911
-0.00997921
-0.0099787
-0.00997758
-0.00997587
-0.00997358
-0.00997073
-0.00996732
-0.00996336
-0.00995887
-0.00995385
-0.00994832
-0.00994228
-0.00993575
-0.00992873
-0.00992124
-0.00991327
-0.00990484
-0.00989596
-0.00988664
-0.00987688
-0.00986669
-0.00985607
-0.00984505
-0.00983361
-0.00982177
-0.00980954
-0.00979692
-0.00978392
-0.00977054
-0.0097568
-0.00974269
-0.00972822
-0.0097134
-0.00969823
-0.00968272
-0.00966688
-0.0096507
-0.0096342
-0.00961738
-0.00960024
-0.00958279
-0.00956503
-0.00954697
-0.00952861
-0.00950995
-0.00949101
-0.00947178
-0.00945227
-0.00943248
-0.00941242
-0.00939209
-0.00937149
-0.00935063
-0.00932951
-0.00930813
-0.00928651
-0.00926463
-0.00924251
-0.00922014
-0.00919754
-0.0091747
-0.00915163
-0.00912833
-0.0091048
-0.00908105
-0.00905707
-0.00903288
-0.00900847
-0.00898385
-0.00895902
-0.00893399
-0.00890874
-0.0088833
-0.00885765
-0.00883181
-0.00880577
-0.00877954
-0.00875312
-0.00872651
-0.00869972
-0.00867274
-0.00864558
-0.00861824
-0.00859072
-0.00856303
-0.00853517
-0.00850713
-0.00847893
-0.00845055
-0.00842202
-0.00839331
-0.00836445
-0.00833543
-0.00830625
-0.00827691
-0.00824742
-0.00821778
-0.00818798
-0.00815804
-0.00812795
-0.00809771
-0.00806733
-0.00803681
-0.00800614
-0.00797534
-0.00794439
-0.00791332
-0.0078821
-0.00785075
-0.00781927
-0.00778766
-0.00775592
-0.00772405
-0.00769205
-0.00765993
-0.00762769
-0.00759532
-0.00756283
-0.00753022
-0.0074975
-0.00746465
-0.00743169
-0.00739861
-0.00736542
-0.00733212
-0.00729871
-0.00726518
-0.00723155
-0.00719781
-0.00716396
-0.00713
-0.00709595
-0.00706178
-0.00702752
-0.00699315
-0.00695868
-0.00692412
-0.00688945
-0.00685469
-0.00681983
-0.00678488
-0.00674983
-0.00671469
-0.00667945
-0.00664413
-0.00660871
-0.0065732
-0.00653761
-0.00650193
-0.00646616
-0.0064303
-0.00639436
-0.00635834
-0.00632223
-0.00628604
-0.00624977
-0.00621342
-0.00617698
-0.00614047
-0.00610388
-0.00606721
-0.00603047
-0.00599365
-0.00595675
-0.00591978
-0.00588274
-0.00584562
-0.00580843
-0.00577117
-0.00573384
-0.00569644
-0.00565897
-0.00562143
-0.00558383
-0.00554616
-0.00550842
-0.00547061
-0.00543274
-0.00539481
-0.00535681
-0.00531875
-0.00528063
-0.00524245
-0.0052042
-0.0051659
-0.00512754
-0.00508911
-0.00505063
-0.00501209
-0.0049735
-0.00493485
-0.00489614
-0.00485738
-0.00481856
-0.00477969
-0.00474077
-0.00470179
-0.00466276
-0.00462368
-0.00458455
-0.00454537
-0.00450614
-0.00446685
-0.00442753
-0.00438815
-0.00434872
-0.00430925
-0.00426973
-0.00423017
-0.00419056
-0.00415091
-0.00411121
-0.00407147
-0.00403168
-0.00399186
-0.00395199
-0.00391208
-0.00387212
-0.00383213
-0.0037921
-0.00375203
-0.00371192
-0.00367177
-0.00363158
-0.00359136
-0.00355109
-0.0035108
-0.00347046
-0.00343009
-0.00338969
-0.00334925
-0.00330878
-0.00326827
-0.00322773
-0.00318716
-0.00314655
-0.00310592
-0.00306525
-0.00302455
-0.00298383
-0.00294307
-0.00290228
-0.00286146
-0.00282062
-0.00277975
-0.00273885
-0.00269792
-0.00265697
-0.00261599
-0.00257498
-0.00253395
-0.0024929
-0.00245182
-0.00241071
-0.00236959
-0.00232843
-0.00228726
-0.00224607
-0.00220485
-0.00216361
-0.00212235
-0.00208107
-0.00203977
-0.00199845
-0.00195711
-0.00191575
-0.00187438
-0.00183298
-0.00179157
-0.00175014
-0.0017087
-0.00166723
-0.00162576
-0.00158426
-0.00154276
-0.00150123
-0.00145969
-0.00141814
-0.00137658
-0.001335
-0.00129341
-0.00125181
-0.00121019
-0.00116857
-0.00112693
-0.00108528
-0.00104362
-0.00100195
-0.000960278
-0.000918591
-0.000876896
-0.000835193
-0.000793482
-0.000751763
-0.000710037
-0.000668305
-0.000626566
-0.000584822
-0.000543072
-0.000501316
-0.000459557
-0.000417792
-0.000376024
-0.000334253
-0.000292478
-0.000250701
-0.000208921
-0.000167139
-0.000125356
-8.3571e-05
-4.17857e-05
)
;

boundaryField
{
    left
    {
        type            calculated;
        value           uniform 0;
    }
    right
    {
        type            calculated;
        value           uniform 0;
    }
    frontBackUpDown
    {
        type            empty;
    }
}


// ************************************************************************* //
