/*--------------------------------*- C++ -*----------------------------------*\
| =========                 |                                                 |
| \\      /  F ield         | OpenFOAM: The Open Source CFD Toolbox           |
|  \\    /   O peration     | Version:  2412                                  |
|   \\  /    A nd           | Website:  www.openfoam.com                      |
|    \\/     M anipulation  |                                                 |
\*---------------------------------------------------------------------------*/
FoamFile
{
    version     2.0;
    format      ascii;
    arch        "LSB;label=32;scalar=64";
    class       volVectorField;
    location    "0.28";
    object      U_0;
}
// * * * * * * * * * * * * * * * * * * * * * * * * * * * * * * * * * * * * * //

dimensions      [0 1 -1 0 0 0 0];

internalField   nonuniform List<vector> 
800
(
(0.002091 0 0)
(0.00627305 0 0)
(0.010455 0 0)
(0.0146369 0 0)
(0.0188187 0 0)
(0.0230003 0 0)
(0.0271817 0 0)
(0.0313628 0 0)
(0.0355436 0 0)
(0.0397241 0 0)
(0.0439042 0 0)
(0.0480839 0 0)
(0.0522631 0 0)
(0.0564419 0 0)
(0.0606201 0 0)
(0.0647978 0 0)
(0.0689748 0 0)
(0.0731512 0 0)
(0.0773269 0 0)
(0.0815019 0 0)
(0.0856761 0 0)
(0.0898495 0 0)
(0.094022 0 0)
(0.0981937 0 0)
(0.102364 0 0)
(0.106534 0 0)
(0.110703 0 0)
(0.114871 0 0)
(0.119037 0 0)
(0.123203 0 0)
(0.127367 0 0)
(0.13153 0 0)
(0.135692 0 0)
(0.139853 0 0)
(0.144012 0 0)
(0.14817 0 0)
(0.152326 0 0)
(0.156481 0 0)
(0.160635 0 0)
(0.164787 0 0)
(0.168937 0 0)
(0.173086 0 0)
(0.177233 0 0)
(0.181378 0 0)
(0.185522 0 0)
(0.189664 0 0)
(0.193804 0 0)
(0.197942 0 0)
(0.202079 0 0)
(0.206213 0 0)
(0.210345 0 0)
(0.214476 0 0)
(0.218604 0 0)
(0.22273 0 0)
(0.226854 0 0)
(0.230976 0 0)
(0.235095 0 0)
(0.239212 0 0)
(0.243327 0 0)
(0.24744 0 0)
(0.25155 0 0)
(0.255657 0 0)
(0.259762 0 0)
(0.263865 0 0)
(0.267965 0 0)
(0.272062 0 0)
(0.276157 0 0)
(0.280248 0 0)
(0.284337 0 0)
(0.288424 0 0)
(0.292507 0 0)
(0.296587 0 0)
(0.300665 0 0)
(0.304739 0 0)
(0.308811 0 0)
(0.312879 0 0)
(0.316944 0 0)
(0.321006 0 0)
(0.325065 0 0)
(0.32912 0 0)
(0.333172 0 0)
(0.337221 0 0)
(0.341266 0 0)
(0.345308 0 0)
(0.349346 0 0)
(0.353381 0 0)
(0.357412 0 0)
(0.361439 0 0)
(0.365463 0 0)
(0.369482 0 0)
(0.373498 0 0)
(0.37751 0 0)
(0.381519 0 0)
(0.385523 0 0)
(0.389523 0 0)
(0.393519 0 0)
(0.397511 0 0)
(0.401498 0 0)
(0.405482 0 0)
(0.409461 0 0)
(0.413436 0 0)
(0.417406 0 0)
(0.421372 0 0)
(0.425334 0 0)
(0.42929 0 0)
(0.433243 0 0)
(0.43719 0 0)
(0.441133 0 0)
(0.445071 0 0)
(0.449004 0 0)
(0.452932 0 0)
(0.456856 0 0)
(0.460774 0 0)
(0.464687 0 0)
(0.468595 0 0)
(0.472498 0 0)
(0.476396 0 0)
(0.480288 0 0)
(0.484175 0 0)
(0.488057 0 0)
(0.491933 0 0)
(0.495803 0 0)
(0.499668 0 0)
(0.503527 0 0)
(0.50738 0 0)
(0.511228 0 0)
(0.51507 0 0)
(0.518905 0 0)
(0.522735 0 0)
(0.526559 0 0)
(0.530376 0 0)
(0.534188 0 0)
(0.537993 0 0)
(0.541791 0 0)
(0.545584 0 0)
(0.54937 0 0)
(0.553149 0 0)
(0.556922 0 0)
(0.560688 0 0)
(0.564447 0 0)
(0.568199 0 0)
(0.571945 0 0)
(0.575684 0 0)
(0.579415 0 0)
(0.583139 0 0)
(0.586857 0 0)
(0.590567 0 0)
(0.594269 0 0)
(0.597964 0 0)
(0.601652 0 0)
(0.605332 0 0)
(0.609005 0 0)
(0.612669 0 0)
(0.616326 0 0)
(0.619975 0 0)
(0.623616 0 0)
(0.627249 0 0)
(0.630874 0 0)
(0.63449 0 0)
(0.638098 0 0)
(0.641698 0 0)
(0.645289 0 0)
(0.648872 0 0)
(0.652446 0 0)
(0.656011 0 0)
(0.659568 0 0)
(0.663115 0 0)
(0.666654 0 0)
(0.670183 0 0)
(0.673703 0 0)
(0.677214 0 0)
(0.680715 0 0)
(0.684207 0 0)
(0.687689 0 0)
(0.691162 0 0)
(0.694624 0 0)
(0.698077 0 0)
(0.70152 0 0)
(0.704952 0 0)
(0.708375 0 0)
(0.711787 0 0)
(0.715188 0 0)
(0.718579 0 0)
(0.721959 0 0)
(0.725329 0 0)
(0.728688 0 0)
(0.732035 0 0)
(0.735372 0 0)
(0.738697 0 0)
(0.742011 0 0)
(0.745313 0 0)
(0.748604 0 0)
(0.751883 0 0)
(0.75515 0 0)
(0.758405 0 0)
(0.761648 0 0)
(0.764879 0 0)
(0.768098 0 0)
(0.771304 0 0)
(0.774497 0 0)
(0.777678 0 0)
(0.780845 0 0)
(0.784 0 0)
(0.787141 0 0)
(0.790269 0 0)
(0.793384 0 0)
(0.796485 0 0)
(0.799572 0 0)
(0.802645 0 0)
(0.805704 0 0)
(0.808749 0 0)
(0.81178 0 0)
(0.814795 0 0)
(0.817797 0 0)
(0.820783 0 0)
(0.823754 0 0)
(0.82671 0 0)
(0.829651 0 0)
(0.832576 0 0)
(0.835485 0 0)
(0.838378 0 0)
(0.841255 0 0)
(0.844116 0 0)
(0.846961 0 0)
(0.849788 0 0)
(0.852599 0 0)
(0.855393 0 0)
(0.858169 0 0)
(0.860928 0 0)
(0.86367 0 0)
(0.866393 0 0)
(0.869098 0 0)
(0.871785 0 0)
(0.874454 0 0)
(0.877103 0 0)
(0.879734 0 0)
(0.882345 0 0)
(0.884937 0 0)
(0.88751 0 0)
(0.890062 0 0)
(0.892594 0 0)
(0.895106 0 0)
(0.897597 0 0)
(0.900067 0 0)
(0.902515 0 0)
(0.904943 0 0)
(0.907348 0 0)
(0.909732 0 0)
(0.912093 0 0)
(0.914431 0 0)
(0.916747 0 0)
(0.919039 0 0)
(0.921308 0 0)
(0.923553 0 0)
(0.925774 0 0)
(0.927971 0 0)
(0.930142 0 0)
(0.932289 0 0)
(0.93441 0 0)
(0.936505 0 0)
(0.938574 0 0)
(0.940616 0 0)
(0.942632 0 0)
(0.94462 0 0)
(0.946581 0 0)
(0.948513 0 0)
(0.950417 0 0)
(0.952292 0 0)
(0.954138 0 0)
(0.955954 0 0)
(0.95774 0 0)
(0.959495 0 0)
(0.96122 0 0)
(0.962912 0 0)
(0.964573 0 0)
(0.966201 0 0)
(0.967797 0 0)
(0.969359 0 0)
(0.970886 0 0)
(0.972379 0 0)
(0.973838 0 0)
(0.97526 0 0)
(0.976646 0 0)
(0.977996 0 0)
(0.979308 0 0)
(0.980582 0 0)
(0.981817 0 0)
(0.983013 0 0)
(0.98417 0 0)
(0.985285 0 0)
(0.98636 0 0)
(0.987392 0 0)
(0.988381 0 0)
(0.989327 0 0)
(0.990229 0 0)
(0.991086 0 0)
(0.991897 0 0)
(0.992661 0 0)
(0.993378 0 0)
(0.994046 0 0)
(0.994665 0 0)
(0.995234 0 0)
(0.995751 0 0)
(0.996216 0 0)
(0.996628 0 0)
(0.996986 0 0)
(0.997289 0 0)
(0.997535 0 0)
(0.997723 0 0)
(0.997853 0 0)
(0.997923 0 0)
(0.997932 0 0)
(0.997878 0 0)
(0.997761 0 0)
(0.997578 0 0)
(0.997328 0 0)
(0.997011 0 0)
(0.996624 0 0)
(0.996166 0 0)
(0.995635 0 0)
(0.995029 0 0)
(0.994347 0 0)
(0.993588 0 0)
(0.992748 0 0)
(0.991827 0 0)
(0.990821 0 0)
(0.98973 0 0)
(0.988551 0 0)
(0.987281 0 0)
(0.985918 0 0)
(0.98446 0 0)
(0.982905 0 0)
(0.981249 0 0)
(0.97949 0 0)
(0.977625 0 0)
(0.975651 0 0)
(0.973564 0 0)
(0.971362 0 0)
(0.969041 0 0)
(0.966598 0 0)
(0.964028 0 0)
(0.961328 0 0)
(0.958494 0 0)
(0.955521 0 0)
(0.952405 0 0)
(0.94914 0 0)
(0.945722 0 0)
(0.942146 0 0)
(0.938406 0 0)
(0.934495 0 0)
(0.930408 0 0)
(0.926139 0 0)
(0.921679 0 0)
(0.917021 0 0)
(0.912158 0 0)
(0.907082 0 0)
(0.901782 0 0)
(0.89625 0 0)
(0.890476 0 0)
(0.884448 0 0)
(0.878156 0 0)
(0.871585 0 0)
(0.864724 0 0)
(0.857557 0 0)
(0.850069 0 0)
(0.842243 0 0)
(0.834062 0 0)
(0.825504 0 0)
(0.816549 0 0)
(0.807174 0 0)
(0.797352 0 0)
(0.787057 0 0)
(0.776257 0 0)
(0.764919 0 0)
(0.753006 0 0)
(0.740477 0 0)
(0.727286 0 0)
(0.713383 0 0)
(0.698712 0 0)
(0.68321 0 0)
(0.666806 0 0)
(0.649421 0 0)
(0.630967 0 0)
(0.611343 0 0)
(0.590437 0 0)
(0.568121 0 0)
(0.544255 0 0)
(0.51868 0 0)
(0.491224 0 0)
(0.461698 0 0)
(0.429909 0 0)
(0.39566 0 0)
(0.35877 0 0)
(0.319095 0 0)
(0.276555 0 0)
(0.231172 0 0)
(0.183106 0 0)
(0.132683 0 0)
(0.0804054 0 0)
(0.02694 0 0)
(-0.026935 0 0)
(-0.0803997 0 0)
(-0.132675 0 0)
(-0.183097 0 0)
(-0.231161 0 0)
(-0.276542 0 0)
(-0.31908 0 0)
(-0.358753 0 0)
(-0.395642 0 0)
(-0.42989 0 0)
(-0.461679 0 0)
(-0.491204 0 0)
(-0.51866 0 0)
(-0.544235 0 0)
(-0.568102 0 0)
(-0.590418 0 0)
(-0.611325 0 0)
(-0.630949 0 0)
(-0.649404 0 0)
(-0.666789 0 0)
(-0.683194 0 0)
(-0.698697 0 0)
(-0.713368 0 0)
(-0.727272 0 0)
(-0.740463 0 0)
(-0.752993 0 0)
(-0.764907 0 0)
(-0.776245 0 0)
(-0.787046 0 0)
(-0.797342 0 0)
(-0.807164 0 0)
(-0.81654 0 0)
(-0.825495 0 0)
(-0.834053 0 0)
(-0.842235 0 0)
(-0.850062 0 0)
(-0.85755 0 0)
(-0.864717 0 0)
(-0.871579 0 0)
(-0.87815 0 0)
(-0.884443 0 0)
(-0.890471 0 0)
(-0.896246 0 0)
(-0.901778 0 0)
(-0.907077 0 0)
(-0.912154 0 0)
(-0.917017 0 0)
(-0.921675 0 0)
(-0.926135 0 0)
(-0.930405 0 0)
(-0.934492 0 0)
(-0.938403 0 0)
(-0.942144 0 0)
(-0.94572 0 0)
(-0.949138 0 0)
(-0.952403 0 0)
(-0.955519 0 0)
(-0.958492 0 0)
(-0.961327 0 0)
(-0.964027 0 0)
(-0.966597 0 0)
(-0.96904 0 0)
(-0.971361 0 0)
(-0.973563 0 0)
(-0.97565 0 0)
(-0.977624 0 0)
(-0.979489 0 0)
(-0.981248 0 0)
(-0.982904 0 0)
(-0.98446 0 0)
(-0.985918 0 0)
(-0.98728 0 0)
(-0.98855 0 0)
(-0.98973 0 0)
(-0.990821 0 0)
(-0.991826 0 0)
(-0.992748 0 0)
(-0.993588 0 0)
(-0.994347 0 0)
(-0.995029 0 0)
(-0.995635 0 0)
(-0.996166 0 0)
(-0.996624 0 0)
(-0.997011 0 0)
(-0.997328 0 0)
(-0.997578 0 0)
(-0.997761 0 0)
(-0.997878 0 0)
(-0.997932 0 0)
(-0.997923 0 0)
(-0.997853 0 0)
(-0.997723 0 0)
(-0.997535 0 0)
(-0.997289 0 0)
(-0.996986 0 0)
(-0.996628 0 0)
(-0.996216 0 0)
(-0.995751 0 0)
(-0.995233 0 0)
(-0.994665 0 0)
(-0.994046 0 0)
(-0.993378 0 0)
(-0.992661 0 0)
(-0.991897 0 0)
(-0.991086 0 0)
(-0.990229 0 0)
(-0.989327 0 0)
(-0.988381 0 0)
(-0.987392 0 0)
(-0.986359 0 0)
(-0.985285 0 0)
(-0.984169 0 0)
(-0.983013 0 0)
(-0.981817 0 0)
(-0.980581 0 0)
(-0.979307 0 0)
(-0.977995 0 0)
(-0.976646 0 0)
(-0.97526 0 0)
(-0.973837 0 0)
(-0.972379 0 0)
(-0.970886 0 0)
(-0.969358 0 0)
(-0.967796 0 0)
(-0.966201 0 0)
(-0.964573 0 0)
(-0.962912 0 0)
(-0.961219 0 0)
(-0.959495 0 0)
(-0.957739 0 0)
(-0.955953 0 0)
(-0.954137 0 0)
(-0.952291 0 0)
(-0.950416 0 0)
(-0.948512 0 0)
(-0.94658 0 0)
(-0.944619 0 0)
(-0.942631 0 0)
(-0.940615 0 0)
(-0.938573 0 0)
(-0.936504 0 0)
(-0.934409 0 0)
(-0.932288 0 0)
(-0.930141 0 0)
(-0.927969 0 0)
(-0.925773 0 0)
(-0.923552 0 0)
(-0.921307 0 0)
(-0.919038 0 0)
(-0.916746 0 0)
(-0.91443 0 0)
(-0.912092 0 0)
(-0.90973 0 0)
(-0.907347 0 0)
(-0.904941 0 0)
(-0.902514 0 0)
(-0.900065 0 0)
(-0.897595 0 0)
(-0.895104 0 0)
(-0.892592 0 0)
(-0.89006 0 0)
(-0.887508 0 0)
(-0.884936 0 0)
(-0.882344 0 0)
(-0.879732 0 0)
(-0.877102 0 0)
(-0.874452 0 0)
(-0.871784 0 0)
(-0.869097 0 0)
(-0.866391 0 0)
(-0.863668 0 0)
(-0.860927 0 0)
(-0.858168 0 0)
(-0.855391 0 0)
(-0.852597 0 0)
(-0.849787 0 0)
(-0.846959 0 0)
(-0.844114 0 0)
(-0.841254 0 0)
(-0.838376 0 0)
(-0.835483 0 0)
(-0.832574 0 0)
(-0.829649 0 0)
(-0.826708 0 0)
(-0.823752 0 0)
(-0.820781 0 0)
(-0.817795 0 0)
(-0.814794 0 0)
(-0.811778 0 0)
(-0.808747 0 0)
(-0.805702 0 0)
(-0.802643 0 0)
(-0.79957 0 0)
(-0.796483 0 0)
(-0.793382 0 0)
(-0.790267 0 0)
(-0.787139 0 0)
(-0.783998 0 0)
(-0.780843 0 0)
(-0.777676 0 0)
(-0.774495 0 0)
(-0.771302 0 0)
(-0.768096 0 0)
(-0.764877 0 0)
(-0.761647 0 0)
(-0.758403 0 0)
(-0.755148 0 0)
(-0.751881 0 0)
(-0.748602 0 0)
(-0.745311 0 0)
(-0.742009 0 0)
(-0.738695 0 0)
(-0.73537 0 0)
(-0.732033 0 0)
(-0.728686 0 0)
(-0.725327 0 0)
(-0.721958 0 0)
(-0.718577 0 0)
(-0.715186 0 0)
(-0.711785 0 0)
(-0.708373 0 0)
(-0.70495 0 0)
(-0.701518 0 0)
(-0.698075 0 0)
(-0.694623 0 0)
(-0.69116 0 0)
(-0.687687 0 0)
(-0.684205 0 0)
(-0.680713 0 0)
(-0.677212 0 0)
(-0.673701 0 0)
(-0.670181 0 0)
(-0.666652 0 0)
(-0.663114 0 0)
(-0.659566 0 0)
(-0.65601 0 0)
(-0.652444 0 0)
(-0.64887 0 0)
(-0.645288 0 0)
(-0.641696 0 0)
(-0.638097 0 0)
(-0.634489 0 0)
(-0.630872 0 0)
(-0.627247 0 0)
(-0.623614 0 0)
(-0.619973 0 0)
(-0.616324 0 0)
(-0.612668 0 0)
(-0.609003 0 0)
(-0.605331 0 0)
(-0.60165 0 0)
(-0.597963 0 0)
(-0.594268 0 0)
(-0.590565 0 0)
(-0.586855 0 0)
(-0.583138 0 0)
(-0.579414 0 0)
(-0.575682 0 0)
(-0.571943 0 0)
(-0.568198 0 0)
(-0.564446 0 0)
(-0.560686 0 0)
(-0.55692 0 0)
(-0.553148 0 0)
(-0.549368 0 0)
(-0.545582 0 0)
(-0.54179 0 0)
(-0.537991 0 0)
(-0.534186 0 0)
(-0.530375 0 0)
(-0.526557 0 0)
(-0.522734 0 0)
(-0.518904 0 0)
(-0.515068 0 0)
(-0.511227 0 0)
(-0.507379 0 0)
(-0.503526 0 0)
(-0.499667 0 0)
(-0.495802 0 0)
(-0.491931 0 0)
(-0.488055 0 0)
(-0.484174 0 0)
(-0.480287 0 0)
(-0.476395 0 0)
(-0.472497 0 0)
(-0.468594 0 0)
(-0.464686 0 0)
(-0.460773 0 0)
(-0.456855 0 0)
(-0.452931 0 0)
(-0.449003 0 0)
(-0.44507 0 0)
(-0.441132 0 0)
(-0.437189 0 0)
(-0.433242 0 0)
(-0.429289 0 0)
(-0.425333 0 0)
(-0.421371 0 0)
(-0.417405 0 0)
(-0.413435 0 0)
(-0.40946 0 0)
(-0.405481 0 0)
(-0.401498 0 0)
(-0.39751 0 0)
(-0.393518 0 0)
(-0.389522 0 0)
(-0.385522 0 0)
(-0.381518 0 0)
(-0.37751 0 0)
(-0.373498 0 0)
(-0.369482 0 0)
(-0.365462 0 0)
(-0.361438 0 0)
(-0.357411 0 0)
(-0.35338 0 0)
(-0.349345 0 0)
(-0.345307 0 0)
(-0.341265 0 0)
(-0.33722 0 0)
(-0.333172 0 0)
(-0.32912 0 0)
(-0.325064 0 0)
(-0.321006 0 0)
(-0.316944 0 0)
(-0.312878 0 0)
(-0.30881 0 0)
(-0.304739 0 0)
(-0.300664 0 0)
(-0.296587 0 0)
(-0.292507 0 0)
(-0.288423 0 0)
(-0.284337 0 0)
(-0.280248 0 0)
(-0.276156 0 0)
(-0.272062 0 0)
(-0.267964 0 0)
(-0.263864 0 0)
(-0.259762 0 0)
(-0.255657 0 0)
(-0.251549 0 0)
(-0.247439 0 0)
(-0.243327 0 0)
(-0.239212 0 0)
(-0.235095 0 0)
(-0.230975 0 0)
(-0.226854 0 0)
(-0.22273 0 0)
(-0.218604 0 0)
(-0.214475 0 0)
(-0.210345 0 0)
(-0.206213 0 0)
(-0.202078 0 0)
(-0.197942 0 0)
(-0.193804 0 0)
(-0.189664 0 0)
(-0.185522 0 0)
(-0.181378 0 0)
(-0.177233 0 0)
(-0.173086 0 0)
(-0.168937 0 0)
(-0.164787 0 0)
(-0.160635 0 0)
(-0.156481 0 0)
(-0.152326 0 0)
(-0.14817 0 0)
(-0.144012 0 0)
(-0.139853 0 0)
(-0.135692 0 0)
(-0.13153 0 0)
(-0.127367 0 0)
(-0.123203 0 0)
(-0.119037 0 0)
(-0.114871 0 0)
(-0.110703 0 0)
(-0.106534 0 0)
(-0.102364 0 0)
(-0.0981936 0 0)
(-0.094022 0 0)
(-0.0898494 0 0)
(-0.085676 0 0)
(-0.0815018 0 0)
(-0.0773269 0 0)
(-0.0731512 0 0)
(-0.0689748 0 0)
(-0.0647977 0 0)
(-0.0606201 0 0)
(-0.0564419 0 0)
(-0.0522631 0 0)
(-0.0480839 0 0)
(-0.0439042 0 0)
(-0.0397241 0 0)
(-0.0355436 0 0)
(-0.0313628 0 0)
(-0.0271817 0 0)
(-0.0230003 0 0)
(-0.0188187 0 0)
(-0.014637 0 0)
(-0.0104551 0 0)
(-0.00627309 0 0)
(-0.00209104 0 0)
)
;

boundaryField
{
    left
    {
        type            fixedValue;
        value           uniform (0 0 0);
    }
    right
    {
        type            fixedValue;
        value           uniform (0 0 0);
    }
    frontBackUpDown
    {
        type            empty;
    }
}


// ************************************************************************* //
