/*--------------------------------*- C++ -*----------------------------------*\
| =========                 |                                                 |
| \\      /  F ield         | OpenFOAM: The Open Source CFD Toolbox           |
|  \\    /   O peration     | Version:  2412                                  |
|   \\  /    A nd           | Website:  www.openfoam.com                      |
|    \\/     M anipulation  |                                                 |
\*---------------------------------------------------------------------------*/
FoamFile
{
    version     2.0;
    format      ascii;
    arch        "LSB;label=32;scalar=64";
    class       volVectorField;
    location    "0.28";
    object      U_0_0_0;
}
// * * * * * * * * * * * * * * * * * * * * * * * * * * * * * * * * * * * * * //

dimensions      [0 1 -1 0 0 0 0];

internalField   nonuniform List<vector> 
800
(
(0.0020945 0 0)
(0.00628355 0 0)
(0.0104725 0 0)
(0.0146614 0 0)
(0.0188502 0 0)
(0.0230388 0 0)
(0.0272271 0 0)
(0.0314152 0 0)
(0.0356031 0 0)
(0.0397905 0 0)
(0.0439776 0 0)
(0.0481643 0 0)
(0.0523505 0 0)
(0.0565363 0 0)
(0.0607215 0 0)
(0.0649061 0 0)
(0.0690901 0 0)
(0.0732734 0 0)
(0.0774561 0 0)
(0.081638 0 0)
(0.0858192 0 0)
(0.0899995 0 0)
(0.094179 0 0)
(0.0983576 0 0)
(0.102535 0 0)
(0.106712 0 0)
(0.110888 0 0)
(0.115062 0 0)
(0.119236 0 0)
(0.123408 0 0)
(0.127579 0 0)
(0.131749 0 0)
(0.135918 0 0)
(0.140085 0 0)
(0.144252 0 0)
(0.148416 0 0)
(0.15258 0 0)
(0.156741 0 0)
(0.160902 0 0)
(0.16506 0 0)
(0.169218 0 0)
(0.173373 0 0)
(0.177527 0 0)
(0.181679 0 0)
(0.18583 0 0)
(0.189978 0 0)
(0.194125 0 0)
(0.19827 0 0)
(0.202413 0 0)
(0.206554 0 0)
(0.210693 0 0)
(0.21483 0 0)
(0.218965 0 0)
(0.223098 0 0)
(0.227228 0 0)
(0.231357 0 0)
(0.235483 0 0)
(0.239606 0 0)
(0.243728 0 0)
(0.247847 0 0)
(0.251963 0 0)
(0.256077 0 0)
(0.260189 0 0)
(0.264298 0 0)
(0.268404 0 0)
(0.272508 0 0)
(0.276609 0 0)
(0.280707 0 0)
(0.284803 0 0)
(0.288895 0 0)
(0.292985 0 0)
(0.297072 0 0)
(0.301155 0 0)
(0.305236 0 0)
(0.309314 0 0)
(0.313388 0 0)
(0.31746 0 0)
(0.321528 0 0)
(0.325593 0 0)
(0.329654 0 0)
(0.333712 0 0)
(0.337767 0 0)
(0.341818 0 0)
(0.345866 0 0)
(0.34991 0 0)
(0.353951 0 0)
(0.357988 0 0)
(0.362021 0 0)
(0.366051 0 0)
(0.370077 0 0)
(0.374098 0 0)
(0.378116 0 0)
(0.38213 0 0)
(0.38614 0 0)
(0.390146 0 0)
(0.394148 0 0)
(0.398146 0 0)
(0.402139 0 0)
(0.406128 0 0)
(0.410113 0 0)
(0.414093 0 0)
(0.418069 0 0)
(0.422041 0 0)
(0.426008 0 0)
(0.42997 0 0)
(0.433928 0 0)
(0.437881 0 0)
(0.441829 0 0)
(0.445772 0 0)
(0.449711 0 0)
(0.453644 0 0)
(0.457573 0 0)
(0.461496 0 0)
(0.465415 0 0)
(0.469328 0 0)
(0.473236 0 0)
(0.477139 0 0)
(0.481036 0 0)
(0.484928 0 0)
(0.488814 0 0)
(0.492695 0 0)
(0.496571 0 0)
(0.50044 0 0)
(0.504304 0 0)
(0.508162 0 0)
(0.512015 0 0)
(0.515861 0 0)
(0.519701 0 0)
(0.523536 0 0)
(0.527364 0 0)
(0.531186 0 0)
(0.535002 0 0)
(0.538811 0 0)
(0.542615 0 0)
(0.546411 0 0)
(0.550201 0 0)
(0.553985 0 0)
(0.557762 0 0)
(0.561532 0 0)
(0.565296 0 0)
(0.569052 0 0)
(0.572802 0 0)
(0.576544 0 0)
(0.58028 0 0)
(0.584008 0 0)
(0.587729 0 0)
(0.591443 0 0)
(0.595149 0 0)
(0.598848 0 0)
(0.602539 0 0)
(0.606223 0 0)
(0.609899 0 0)
(0.613567 0 0)
(0.617227 0 0)
(0.62088 0 0)
(0.624524 0 0)
(0.62816 0 0)
(0.631788 0 0)
(0.635408 0 0)
(0.639019 0 0)
(0.642622 0 0)
(0.646216 0 0)
(0.649802 0 0)
(0.653379 0 0)
(0.656947 0 0)
(0.660506 0 0)
(0.664056 0 0)
(0.667597 0 0)
(0.671129 0 0)
(0.674651 0 0)
(0.678164 0 0)
(0.681668 0 0)
(0.685162 0 0)
(0.688647 0 0)
(0.692121 0 0)
(0.695586 0 0)
(0.699041 0 0)
(0.702485 0 0)
(0.70592 0 0)
(0.709344 0 0)
(0.712757 0 0)
(0.716161 0 0)
(0.719553 0 0)
(0.722935 0 0)
(0.726306 0 0)
(0.729666 0 0)
(0.733015 0 0)
(0.736352 0 0)
(0.739679 0 0)
(0.742993 0 0)
(0.746297 0 0)
(0.749588 0 0)
(0.752868 0 0)
(0.756136 0 0)
(0.759392 0 0)
(0.762635 0 0)
(0.765867 0 0)
(0.769086 0 0)
(0.772292 0 0)
(0.775485 0 0)
(0.778666 0 0)
(0.781834 0 0)
(0.784988 0 0)
(0.788129 0 0)
(0.791257 0 0)
(0.794371 0 0)
(0.797471 0 0)
(0.800558 0 0)
(0.80363 0 0)
(0.806689 0 0)
(0.809733 0 0)
(0.812762 0 0)
(0.815777 0 0)
(0.818777 0 0)
(0.821762 0 0)
(0.824732 0 0)
(0.827686 0 0)
(0.830625 0 0)
(0.833548 0 0)
(0.836455 0 0)
(0.839347 0 0)
(0.842222 0 0)
(0.84508 0 0)
(0.847922 0 0)
(0.850747 0 0)
(0.853556 0 0)
(0.856347 0 0)
(0.85912 0 0)
(0.861876 0 0)
(0.864614 0 0)
(0.867335 0 0)
(0.870036 0 0)
(0.87272 0 0)
(0.875385 0 0)
(0.87803 0 0)
(0.880657 0 0)
(0.883264 0 0)
(0.885852 0 0)
(0.88842 0 0)
(0.890968 0 0)
(0.893495 0 0)
(0.896002 0 0)
(0.898488 0 0)
(0.900953 0 0)
(0.903396 0 0)
(0.905818 0 0)
(0.908218 0 0)
(0.910596 0 0)
(0.912951 0 0)
(0.915283 0 0)
(0.917593 0 0)
(0.919879 0 0)
(0.922141 0 0)
(0.924379 0 0)
(0.926593 0 0)
(0.928782 0 0)
(0.930946 0 0)
(0.933085 0 0)
(0.935199 0 0)
(0.937286 0 0)
(0.939347 0 0)
(0.941381 0 0)
(0.943388 0 0)
(0.945367 0 0)
(0.947319 0 0)
(0.949242 0 0)
(0.951136 0 0)
(0.953002 0 0)
(0.954838 0 0)
(0.956644 0 0)
(0.958419 0 0)
(0.960164 0 0)
(0.961878 0 0)
(0.963559 0 0)
(0.965209 0 0)
(0.966825 0 0)
(0.968409 0 0)
(0.969959 0 0)
(0.971474 0 0)
(0.972955 0 0)
(0.9744 0 0)
(0.975809 0 0)
(0.977182 0 0)
(0.978518 0 0)
(0.979816 0 0)
(0.981075 0 0)
(0.982296 0 0)
(0.983477 0 0)
(0.984618 0 0)
(0.985718 0 0)
(0.986776 0 0)
(0.987792 0 0)
(0.988765 0 0)
(0.989694 0 0)
(0.990579 0 0)
(0.991418 0 0)
(0.992211 0 0)
(0.992957 0 0)
(0.993655 0 0)
(0.994304 0 0)
(0.994903 0 0)
(0.995452 0 0)
(0.995949 0 0)
(0.996393 0 0)
(0.996784 0 0)
(0.99712 0 0)
(0.9974 0 0)
(0.997624 0 0)
(0.997789 0 0)
(0.997896 0 0)
(0.997941 0 0)
(0.997926 0 0)
(0.997847 0 0)
(0.997703 0 0)
(0.997494 0 0)
(0.997218 0 0)
(0.996874 0 0)
(0.996459 0 0)
(0.995972 0 0)
(0.995412 0 0)
(0.994777 0 0)
(0.994065 0 0)
(0.993274 0 0)
(0.992403 0 0)
(0.991449 0 0)
(0.990411 0 0)
(0.989285 0 0)
(0.988071 0 0)
(0.986766 0 0)
(0.985368 0 0)
(0.983873 0 0)
(0.98228 0 0)
(0.980585 0 0)
(0.978787 0 0)
(0.976881 0 0)
(0.974866 0 0)
(0.972737 0 0)
(0.970492 0 0)
(0.968127 0 0)
(0.965638 0 0)
(0.963022 0 0)
(0.960275 0 0)
(0.957392 0 0)
(0.954369 0 0)
(0.951202 0 0)
(0.947885 0 0)
(0.944413 0 0)
(0.940782 0 0)
(0.936985 0 0)
(0.933017 0 0)
(0.928871 0 0)
(0.92454 0 0)
(0.920018 0 0)
(0.915296 0 0)
(0.910367 0 0)
(0.905223 0 0)
(0.899854 0 0)
(0.894251 0 0)
(0.888403 0 0)
(0.8823 0 0)
(0.875929 0 0)
(0.869279 0 0)
(0.862335 0 0)
(0.855084 0 0)
(0.847509 0 0)
(0.839593 0 0)
(0.831319 0 0)
(0.822666 0 0)
(0.813613 0 0)
(0.804137 0 0)
(0.794212 0 0)
(0.78381 0 0)
(0.7729 0 0)
(0.761449 0 0)
(0.749419 0 0)
(0.736771 0 0)
(0.723458 0 0)
(0.70943 0 0)
(0.694631 0 0)
(0.678999 0 0)
(0.662465 0 0)
(0.644949 0 0)
(0.626364 0 0)
(0.606613 0 0)
(0.585583 0 0)
(0.563153 0 0)
(0.539185 0 0)
(0.513526 0 0)
(0.486011 0 0)
(0.456464 0 0)
(0.4247 0 0)
(0.390539 0 0)
(0.353818 0 0)
(0.31441 0 0)
(0.272254 0 0)
(0.227385 0 0)
(0.179971 0 0)
(0.13033 0 0)
(0.0789445 0 0)
(0.0264443 0 0)
(-0.0264396 0 0)
(-0.078939 0 0)
(-0.130323 0 0)
(-0.179962 0 0)
(-0.227375 0 0)
(-0.272241 0 0)
(-0.314395 0 0)
(-0.353802 0 0)
(-0.390522 0 0)
(-0.424682 0 0)
(-0.456445 0 0)
(-0.485992 0 0)
(-0.513506 0 0)
(-0.539165 0 0)
(-0.563134 0 0)
(-0.585564 0 0)
(-0.606594 0 0)
(-0.626346 0 0)
(-0.644932 0 0)
(-0.662448 0 0)
(-0.678983 0 0)
(-0.694616 0 0)
(-0.709415 0 0)
(-0.723443 0 0)
(-0.736757 0 0)
(-0.749406 0 0)
(-0.761436 0 0)
(-0.772888 0 0)
(-0.783798 0 0)
(-0.794201 0 0)
(-0.804127 0 0)
(-0.813604 0 0)
(-0.822657 0 0)
(-0.831311 0 0)
(-0.839585 0 0)
(-0.847501 0 0)
(-0.855077 0 0)
(-0.862329 0 0)
(-0.869273 0 0)
(-0.875923 0 0)
(-0.882294 0 0)
(-0.888398 0 0)
(-0.894246 0 0)
(-0.899849 0 0)
(-0.905219 0 0)
(-0.910363 0 0)
(-0.915292 0 0)
(-0.920014 0 0)
(-0.924537 0 0)
(-0.928868 0 0)
(-0.933014 0 0)
(-0.936983 0 0)
(-0.94078 0 0)
(-0.944411 0 0)
(-0.947883 0 0)
(-0.9512 0 0)
(-0.954367 0 0)
(-0.95739 0 0)
(-0.960273 0 0)
(-0.963021 0 0)
(-0.965637 0 0)
(-0.968126 0 0)
(-0.970491 0 0)
(-0.972736 0 0)
(-0.974865 0 0)
(-0.97688 0 0)
(-0.978786 0 0)
(-0.980585 0 0)
(-0.982279 0 0)
(-0.983872 0 0)
(-0.985367 0 0)
(-0.986766 0 0)
(-0.988071 0 0)
(-0.989285 0 0)
(-0.99041 0 0)
(-0.991449 0 0)
(-0.992402 0 0)
(-0.993274 0 0)
(-0.994065 0 0)
(-0.994777 0 0)
(-0.995412 0 0)
(-0.995972 0 0)
(-0.996459 0 0)
(-0.996874 0 0)
(-0.997218 0 0)
(-0.997494 0 0)
(-0.997703 0 0)
(-0.997847 0 0)
(-0.997925 0 0)
(-0.997941 0 0)
(-0.997896 0 0)
(-0.997789 0 0)
(-0.997624 0 0)
(-0.9974 0 0)
(-0.99712 0 0)
(-0.996784 0 0)
(-0.996393 0 0)
(-0.995949 0 0)
(-0.995451 0 0)
(-0.994903 0 0)
(-0.994303 0 0)
(-0.993654 0 0)
(-0.992957 0 0)
(-0.992211 0 0)
(-0.991418 0 0)
(-0.990579 0 0)
(-0.989694 0 0)
(-0.988765 0 0)
(-0.987792 0 0)
(-0.986776 0 0)
(-0.985718 0 0)
(-0.984618 0 0)
(-0.983477 0 0)
(-0.982296 0 0)
(-0.981075 0 0)
(-0.979815 0 0)
(-0.978517 0 0)
(-0.977181 0 0)
(-0.975809 0 0)
(-0.974399 0 0)
(-0.972954 0 0)
(-0.971473 0 0)
(-0.969958 0 0)
(-0.968408 0 0)
(-0.966825 0 0)
(-0.965208 0 0)
(-0.963559 0 0)
(-0.961877 0 0)
(-0.960163 0 0)
(-0.958419 0 0)
(-0.956643 0 0)
(-0.954837 0 0)
(-0.953001 0 0)
(-0.951136 0 0)
(-0.949241 0 0)
(-0.947318 0 0)
(-0.945366 0 0)
(-0.943387 0 0)
(-0.94138 0 0)
(-0.939346 0 0)
(-0.937285 0 0)
(-0.935198 0 0)
(-0.933084 0 0)
(-0.930945 0 0)
(-0.928781 0 0)
(-0.926592 0 0)
(-0.924378 0 0)
(-0.92214 0 0)
(-0.919877 0 0)
(-0.917592 0 0)
(-0.915282 0 0)
(-0.91295 0 0)
(-0.910595 0 0)
(-0.908217 0 0)
(-0.905817 0 0)
(-0.903395 0 0)
(-0.900952 0 0)
(-0.898487 0 0)
(-0.896001 0 0)
(-0.893494 0 0)
(-0.890966 0 0)
(-0.888419 0 0)
(-0.885851 0 0)
(-0.883263 0 0)
(-0.880656 0 0)
(-0.878029 0 0)
(-0.875383 0 0)
(-0.872718 0 0)
(-0.870035 0 0)
(-0.867333 0 0)
(-0.864613 0 0)
(-0.861875 0 0)
(-0.859119 0 0)
(-0.856345 0 0)
(-0.853554 0 0)
(-0.850746 0 0)
(-0.847921 0 0)
(-0.845079 0 0)
(-0.84222 0 0)
(-0.839345 0 0)
(-0.836454 0 0)
(-0.833546 0 0)
(-0.830623 0 0)
(-0.827684 0 0)
(-0.82473 0 0)
(-0.82176 0 0)
(-0.818775 0 0)
(-0.815775 0 0)
(-0.81276 0 0)
(-0.809731 0 0)
(-0.806687 0 0)
(-0.803629 0 0)
(-0.800556 0 0)
(-0.79747 0 0)
(-0.794369 0 0)
(-0.791255 0 0)
(-0.788127 0 0)
(-0.784986 0 0)
(-0.781832 0 0)
(-0.778664 0 0)
(-0.775483 0 0)
(-0.77229 0 0)
(-0.769084 0 0)
(-0.765865 0 0)
(-0.762634 0 0)
(-0.75939 0 0)
(-0.756134 0 0)
(-0.752866 0 0)
(-0.749587 0 0)
(-0.746295 0 0)
(-0.742992 0 0)
(-0.739677 0 0)
(-0.73635 0 0)
(-0.733013 0 0)
(-0.729664 0 0)
(-0.726304 0 0)
(-0.722933 0 0)
(-0.719551 0 0)
(-0.716159 0 0)
(-0.712756 0 0)
(-0.709342 0 0)
(-0.705918 0 0)
(-0.702483 0 0)
(-0.699039 0 0)
(-0.695584 0 0)
(-0.692119 0 0)
(-0.688645 0 0)
(-0.68516 0 0)
(-0.681666 0 0)
(-0.678163 0 0)
(-0.674649 0 0)
(-0.671127 0 0)
(-0.667595 0 0)
(-0.664054 0 0)
(-0.660504 0 0)
(-0.656945 0 0)
(-0.653377 0 0)
(-0.6498 0 0)
(-0.646214 0 0)
(-0.64262 0 0)
(-0.639017 0 0)
(-0.635406 0 0)
(-0.631786 0 0)
(-0.628158 0 0)
(-0.624522 0 0)
(-0.620878 0 0)
(-0.617226 0 0)
(-0.613565 0 0)
(-0.609897 0 0)
(-0.606221 0 0)
(-0.602538 0 0)
(-0.598846 0 0)
(-0.595148 0 0)
(-0.591441 0 0)
(-0.587728 0 0)
(-0.584006 0 0)
(-0.580278 0 0)
(-0.576543 0 0)
(-0.5728 0 0)
(-0.569051 0 0)
(-0.565294 0 0)
(-0.561531 0 0)
(-0.557761 0 0)
(-0.553984 0 0)
(-0.5502 0 0)
(-0.54641 0 0)
(-0.542613 0 0)
(-0.53881 0 0)
(-0.535001 0 0)
(-0.531185 0 0)
(-0.527363 0 0)
(-0.523534 0 0)
(-0.5197 0 0)
(-0.51586 0 0)
(-0.512013 0 0)
(-0.508161 0 0)
(-0.504303 0 0)
(-0.500439 0 0)
(-0.496569 0 0)
(-0.492694 0 0)
(-0.488813 0 0)
(-0.484927 0 0)
(-0.481035 0 0)
(-0.477137 0 0)
(-0.473235 0 0)
(-0.469327 0 0)
(-0.465414 0 0)
(-0.461495 0 0)
(-0.457572 0 0)
(-0.453643 0 0)
(-0.44971 0 0)
(-0.445771 0 0)
(-0.441828 0 0)
(-0.43788 0 0)
(-0.433927 0 0)
(-0.429969 0 0)
(-0.426007 0 0)
(-0.42204 0 0)
(-0.418068 0 0)
(-0.414092 0 0)
(-0.410112 0 0)
(-0.406127 0 0)
(-0.402138 0 0)
(-0.398145 0 0)
(-0.394147 0 0)
(-0.390145 0 0)
(-0.386139 0 0)
(-0.38213 0 0)
(-0.378116 0 0)
(-0.374098 0 0)
(-0.370076 0 0)
(-0.36605 0 0)
(-0.362021 0 0)
(-0.357987 0 0)
(-0.35395 0 0)
(-0.34991 0 0)
(-0.345866 0 0)
(-0.341818 0 0)
(-0.337767 0 0)
(-0.333712 0 0)
(-0.329654 0 0)
(-0.325592 0 0)
(-0.321527 0 0)
(-0.317459 0 0)
(-0.313388 0 0)
(-0.309313 0 0)
(-0.305236 0 0)
(-0.301155 0 0)
(-0.297071 0 0)
(-0.292984 0 0)
(-0.288895 0 0)
(-0.284802 0 0)
(-0.280707 0 0)
(-0.276609 0 0)
(-0.272508 0 0)
(-0.268404 0 0)
(-0.264298 0 0)
(-0.260189 0 0)
(-0.256077 0 0)
(-0.251963 0 0)
(-0.247846 0 0)
(-0.243727 0 0)
(-0.239606 0 0)
(-0.235482 0 0)
(-0.231356 0 0)
(-0.227228 0 0)
(-0.223097 0 0)
(-0.218965 0 0)
(-0.21483 0 0)
(-0.210693 0 0)
(-0.206554 0 0)
(-0.202413 0 0)
(-0.19827 0 0)
(-0.194125 0 0)
(-0.189978 0 0)
(-0.18583 0 0)
(-0.181679 0 0)
(-0.177527 0 0)
(-0.173373 0 0)
(-0.169218 0 0)
(-0.16506 0 0)
(-0.160902 0 0)
(-0.156741 0 0)
(-0.152579 0 0)
(-0.148416 0 0)
(-0.144251 0 0)
(-0.140085 0 0)
(-0.135918 0 0)
(-0.131749 0 0)
(-0.127579 0 0)
(-0.123408 0 0)
(-0.119236 0 0)
(-0.115062 0 0)
(-0.110888 0 0)
(-0.106712 0 0)
(-0.102535 0 0)
(-0.0983575 0 0)
(-0.094179 0 0)
(-0.0899995 0 0)
(-0.0858191 0 0)
(-0.081638 0 0)
(-0.0774561 0 0)
(-0.0732734 0 0)
(-0.0690901 0 0)
(-0.0649061 0 0)
(-0.0607215 0 0)
(-0.0565363 0 0)
(-0.0523505 0 0)
(-0.0481643 0 0)
(-0.0439776 0 0)
(-0.0397905 0 0)
(-0.0356031 0 0)
(-0.0314153 0 0)
(-0.0272272 0 0)
(-0.0230388 0 0)
(-0.0188502 0 0)
(-0.0146615 0 0)
(-0.0104726 0 0)
(-0.00628359 0 0)
(-0.00209454 0 0)
)
;

boundaryField
{
    left
    {
        type            fixedValue;
        value           uniform (0 0 0);
    }
    right
    {
        type            fixedValue;
        value           uniform (0 0 0);
    }
    frontBackUpDown
    {
        type            empty;
    }
}


// ************************************************************************* //
