/*--------------------------------*- C++ -*----------------------------------*\
| =========                 |                                                 |
| \\      /  F ield         | OpenFOAM: The Open Source CFD Toolbox           |
|  \\    /   O peration     | Version:  2412                                  |
|   \\  /    A nd           | Website:  www.openfoam.com                      |
|    \\/     M anipulation  |                                                 |
\*---------------------------------------------------------------------------*/
FoamFile
{
    version     2.0;
    format      ascii;
    arch        "LSB;label=32;scalar=64";
    class       volScalarField;
    location    "0.29";
    object      epsilon;
}
// * * * * * * * * * * * * * * * * * * * * * * * * * * * * * * * * * * * * * //

dimensions      [0 2 -3 0 0 0 0];

internalField   nonuniform List<scalar> 
12225
(
448.248
622.894
830.557
1004.83
1150.4
1270.22
1368.62
1449.63
1516.36
1571.37
1616.74
1654.12
1684.8
1709.78
1729.83
1745.35
1756.67
1766.59
173.744
302.084
403.102
480.178
539.345
585.698
622.138
650.861
673.573
691.54
705.724
716.875
725.587
732.323
737.49
741.334
744.652
744.494
119.435
232.402
315.512
376.255
421.162
455.029
480.63
499.96
514.534
525.462
533.569
539.484
543.694
546.586
548.492
549.675
550.567
550.235
97.6414
199.979
277.776
334.832
376.772
407.859
430.863
447.789
460.145
469.044
475.313
479.576
482.315
483.911
484.684
484.909
484.923
484.522
83.6526
176.289
251.577
308.548
351.099
382.721
406.064
423.141
435.483
444.243
450.286
454.272
456.709
458.001
458.479
458.435
458.17
457.713
71.9917
153.972
226.31
283.823
328.195
361.835
387.034
405.699
419.345
429.147
436.01
440.636
443.572
445.252
446.032
446.22
446.096
445.752
61.3441
131.281
198.624
255.576
301.538
337.583
365.348
386.457
402.304
414.029
422.546
428.582
432.716
435.413
437.053
437.956
438.39
438.455
51.6696
108.73
168.486
222.629
268.751
306.556
336.797
360.608
379.12
393.344
404.136
412.21
418.151
422.439
425.47
427.574
429.004
429.849
43.2224
87.6449
137.685
186.323
230.295
268.238
299.979
326.013
347.069
363.911
377.255
387.739
395.91
402.233
407.098
410.831
413.67
415.684
36.1697
69.2408
108.631
149.499
188.751
224.538
255.993
282.973
305.732
324.696
340.357
353.204
363.691
372.225
379.16
384.792
389.341
392.833
30.4983
54.138
83.3273
115.312
147.811
179.109
208.06
234.087
257.019
276.935
294.053
308.662
321.07
331.58
340.473
347.992
354.312
359.41
26.3765
43.197
64.2821
88.2375
113.644
139.251
164.035
187.297
208.643
227.91
245.09
260.277
273.623
285.309
295.518
304.421
312.132
318.557
23.1424
34.7463
49.3126
66.2676
84.8735
104.384
124.075
143.344
161.749
179.008
194.965
209.563
222.816
234.782
245.545
255.191
263.77
271.124
20.3782
27.6943
36.7517
47.4267
59.4446
72.4822
86.1714
100.139
114.056
127.659
140.75
153.193
164.907
175.852
186.019
195.412
204.013
211.617
18.1499
22.2406
27.1487
32.9137
39.4891
46.7951
54.716
63.1049
71.8042
80.6632
89.5468
98.3391
106.946
115.295
123.332
131.013
138.28
144.932
16.4706
18.3567
20.5273
23.0282
25.8741
29.0686
32.6036
36.4547
40.5837
44.9451
49.4893
54.1662
58.9267
63.7249
68.5191
73.2693
77.9272
82.3599
15.3282
15.873
16.4959
17.2132
18.0328
18.9609
20.0036
21.1643
22.4423
23.834
25.3333
26.9317
28.6187
30.3806
32.2032
34.0728
35.9717
37.8576
14.7508
14.6757
14.6369
14.6352
14.6697
14.7396
14.8449
14.986
15.163
15.3758
15.6242
15.9075
16.225
16.5767
16.9622
17.3791
17.825
18.2954
14.8977
14.9733
15.0873
15.2435
15.4418
15.6822
15.9649
16.2899
16.6563
17.0625
17.5063
17.9852
18.4962
19.0359
19.6007
20.187
20.7902
21.3965
15.9708
17.2606
18.7266
20.3955
22.2739
24.3608
26.6497
29.1247
31.7619
34.5326
37.4059
40.35
43.3344
46.3303
49.3119
52.256
55.1381
57.8979
18.0496
21.997
26.6903
32.1486
38.3093
45.0764
52.3263
59.9127
67.6845
75.5017
83.2423
90.8056
98.1121
105.103
111.738
117.992
123.845
129.252
21.5632
30.653
41.9214
55.0381
69.4977
84.7822
100.381
115.834
130.776
144.949
158.185
170.394
181.542
191.639
200.722
208.849
216.079
222.457
27.2186
45.3008
67.7872
92.9388
119.107
145.002
169.645
192.394
212.923
231.138
247.087
260.907
272.781
282.908
291.489
298.715
304.761
309.786
35.7146
67.6769
105.679
144.952
182.518
216.744
246.821
272.575
294.23
312.19
326.913
338.857
348.445
356.054
362.012
366.597
370.049
372.595
47.408
97.6116
152.03
202.69
246.855
283.889
314.074
338.201
357.206
371.976
383.289
391.804
398.067
402.525
405.54
407.406
408.365
408.652
61.8882
131.752
198.705
254.807
299.835
335.07
362.112
382.56
397.801
408.962
416.939
422.438
426.011
428.09
429.011
429.039
428.39
427.276
78.4671
165.762
239.653
296.704
339.787
371.976
395.787
413.193
425.728
434.562
440.58
444.45
446.681
447.661
447.688
446.993
445.758
444.17
99.5998
200.965
279.478
337.821
380.456
411.806
434.888
451.764
463.979
472.689
478.744
482.772
485.249
486.538
486.915
486.595
485.746
484.537
144.792
258.314
348.613
417.597
468.464
506.746
535.87
558.047
574.949
587.822
597.579
604.903
610.317
614.228
616.952
618.738
619.78
620.279
366.941
498.482
666.582
808.025
923.442
1016.68
1091.7
1152.36
1201.64
1241.81
1274.65
1301.59
1323.75
1342.03
1357.12
1369.6
1379.91
1388.47
0.827919
0.795991
1.17436
1.50962
1.79066
2.03182
2.29162
2.59274
2.92327
3.28586
3.68855
4.14945
4.72797
5.47822
6.35046
7.34209
8.45768
9.7068
11.0997
12.6453
14.3502
16.2185
18.2523
20.4521
22.8173
25.3476
28.0435
30.9077
33.9466
37.1715
40.6016
44.2249
48.0037
51.9305
56.0004
60.2087
64.5515
69.0247
73.6247
78.3483
83.1921
88.1532
93.2286
98.4153
103.71
109.11
114.612
120.213
125.908
131.695
137.568
143.523
149.557
155.663
161.836
168.072
174.363
180.705
187.09
193.513
199.966
206.443
212.936
219.438
225.943
232.441
238.927
245.393
251.831
258.236
264.603
270.931
277.221
283.485
289.751
295.974
302.095
308.116
314.034
319.845
325.543
331.121
336.573
341.89
347.067
352.097
356.973
361.689
366.24
370.619
374.821
378.842
382.676
386.319
389.765
393.013
396.057
398.894
401.521
403.935
406.134
408.115
409.876
411.415
412.732
413.824
414.691
415.332
415.748
415.937
415.901
415.64
415.154
414.445
413.515
412.366
410.998
409.416
407.622
405.619
403.41
400.999
398.39
395.588
392.597
389.423
386.07
382.545
378.853
375
370.992
366.837
362.541
358.11
353.554
348.877
344.09
339.2
334.209
329.141
323.985
318.777
313.562
308.598
305.334
302.662
299.965
297.2
294.367
291.471
288.515
285.504
282.445
279.342
276.2
273.024
269.82
266.593
263.347
260.089
256.821
253.55
250.279
247.013
243.756
240.51
237.278
234.063
230.866
227.685
224.517
221.356
218.189
214.996
211.738
208.342
204.647
200.251
194.469
186.606
2.59987
1.44377
1.29075
1.34705
1.49659
1.72029
2.01266
2.37611
2.7998
3.28817
3.84558
4.47734
5.1898
5.98482
6.85572
7.79698
8.80401
9.87267
10.9988
12.1782
13.4068
14.6811
15.9982
17.3561
18.7539
20.1914
21.6695
23.1896
24.7534
26.3623
28.0167
29.7148
31.454
33.2336
35.0535
36.9136
38.8135
40.7532
42.732
44.7495
46.8052
48.8984
51.0281
53.1937
55.3941
57.6283
59.895
62.193
64.5211
66.8777
69.2613
71.6703
74.1031
76.5578
79.0325
81.5254
84.0345
86.5575
89.0925
91.6372
94.1893
96.7465
99.3065
101.867
104.425
106.979
109.527
112.065
114.593
117.109
119.613
122.105
124.588
127.068
129.562
132.061
134.531
136.966
139.364
141.721
144.036
146.305
148.526
150.697
152.814
154.876
156.88
158.824
160.704
162.52
164.269
165.949
167.557
169.093
170.555
171.94
173.247
174.475
175.623
176.689
177.672
178.57
179.384
180.112
180.753
181.307
181.774
182.152
182.441
182.642
182.753
182.776
182.71
182.555
182.312
181.981
181.563
181.058
180.467
179.792
179.032
178.191
177.267
176.264
175.183
174.025
172.792
171.486
170.109
168.663
167.151
165.574
163.935
162.237
160.482
158.672
156.812
154.902
152.944
150.948
148.902
146.834
144.773
142.783
141.083
139.518
137.968
136.404
134.82
133.215
131.591
129.949
128.291
126.621
124.939
123.248
121.55
119.848
118.143
116.437
114.733
113.033
111.337
109.649
107.969
106.3
104.642
102.998
101.367
99.7509
98.1497
96.5632
94.9905
93.4299
91.8783
90.3321
88.783
87.2424
85.9021
85.9413
4.70425
2.28768
1.93306
1.95608
2.13097
2.39244
2.73127
3.14734
3.63914
4.20417
4.83827
5.53613
6.29176
7.09845
7.94909
8.83754
9.75904
10.7102
11.6886
12.6931
13.7231
14.7789
15.8613
16.9713
18.1104
19.2798
20.4808
21.7145
22.9812
24.2812
25.6141
26.9789
28.3751
29.8018
31.2587
32.745
34.2603
35.8039
37.3752
38.9736
40.5985
42.2492
43.9252
45.6257
47.3501
49.0976
50.8675
52.6591
54.4713
56.3034
58.1544
60.0232
61.9089
63.8101
65.7259
67.6548
69.5956
71.547
73.5075
75.4757
77.4501
79.4292
81.4114
83.3953
85.3794
87.3622
89.3425
91.3192
93.2914
95.2585
97.2204
99.1777
101.131
103.082
105.03
106.966
108.879
110.766
112.624
114.451
116.245
118.004
119.725
121.407
123.047
124.644
126.196
127.7
129.156
130.561
131.914
133.213
134.456
135.643
136.771
137.841
138.849
139.796
140.68
141.501
142.256
142.947
143.571
144.129
144.619
145.041
145.395
145.681
145.898
146.046
146.124
146.134
146.075
145.947
145.75
145.486
145.153
144.754
144.288
143.756
143.159
142.498
141.773
140.987
140.14
139.233
138.269
137.247
136.17
135.039
133.857
132.624
131.343
130.014
128.642
127.226
125.77
124.276
122.738
121.18
119.592
117.987
116.379
114.8
113.307
111.866
110.439
109.007
107.566
106.114
104.651
103.179
101.7
100.213
98.7226
97.2288
95.7337
94.2388
92.7459
91.2564
89.7719
88.294
86.8239
85.3631
83.9128
82.4744
81.049
79.6376
78.2414
76.8611
75.4977
74.1521
72.8253
71.5188
70.2353
68.981
67.7687
66.6423
65.7243
65.6033
6.89432
3.2411
2.72275
2.7135
2.87738
3.14989
3.51097
3.95248
4.46854
5.0525
5.69634
6.39134
7.12895
7.9016
8.70319
9.52947
10.378
11.2478
12.1391
13.0529
13.9907
14.9539
15.9443
16.9634
18.0122
19.0918
20.2026
21.3447
22.518
23.7222
24.9566
26.2204
27.513
28.8338
30.1821
31.5574
32.9592
34.3869
35.8402
37.3185
38.8215
40.3486
41.8996
43.4739
45.071
46.6906
48.332
49.9947
51.678
53.3813
55.1037
56.8446
58.603
60.3779
62.1684
63.9734
65.7916
67.622
69.4631
71.3138
73.1726
75.0382
76.9091
78.784
80.6614
82.5401
84.4187
86.2961
88.1712
90.0431
91.911
93.7743
95.632
97.4834
99.3235
101.146
102.947
104.724
106.472
108.191
109.878
111.53
113.147
114.725
116.263
117.759
119.212
120.619
121.978
123.288
124.548
125.756
126.91
128.01
129.054
130.04
130.968
131.837
132.646
133.393
134.079
134.702
135.261
135.757
136.189
136.556
136.858
137.095
137.267
137.373
137.414
137.389
137.3
137.145
136.926
136.642
136.295
135.885
135.413
134.878
134.283
133.628
132.914
132.143
131.314
130.431
129.493
128.502
127.461
126.369
125.23
124.044
122.814
121.539
120.226
118.871
117.48
116.058
114.605
113.127
111.625
110.106
108.581
107.064
105.579
104.116
102.66
101.204
99.7412
98.2723
96.7971
95.3167
93.8323
92.3454
90.8574
89.3699
87.8844
86.4024
84.9254
83.4547
81.9918
80.5379
79.0945
77.6627
76.2437
74.8387
73.4488
72.0749
70.7183
69.38
68.0611
66.763
65.4874
64.2373
63.0174
61.8371
60.7141
59.6922
58.86
58.4869
8.8839
4.22375
3.52891
3.44973
3.59016
3.85594
4.2152
4.6534
5.16083
5.72865
6.34792
7.00991
7.70686
8.43256
9.18273
9.95497
10.7485
11.5637
12.402
13.2648
14.1541
15.0713
16.018
16.9953
18.0039
19.0442
20.1165
21.2207
22.3563
23.5231
24.7206
25.9481
27.2052
28.4914
29.8063
31.1495
32.5207
33.9196
35.3457
36.799
38.2791
39.7857
41.3186
42.8775
44.462
46.0718
47.7065
49.3655
51.0483
52.7543
54.4828
56.233
58.0041
59.795
61.6049
63.4324
65.2766
67.1359
69.0092
70.895
72.7918
74.6981
76.6124
78.533
80.4583
82.3869
84.317
86.2472
88.176
90.1018
92.0233
93.9388
95.8469
97.7443
99.6261
101.488
103.326
105.139
106.922
108.674
110.392
112.074
113.718
115.322
116.883
118.4
119.871
121.294
122.667
123.988
125.256
126.47
127.627
128.727
129.769
130.75
131.671
132.529
133.325
134.057
134.725
135.328
135.865
136.337
136.741
137.08
137.351
137.555
137.692
137.762
137.765
137.7
137.57
137.373
137.11
136.782
136.39
135.933
135.414
134.832
134.188
133.485
132.722
131.901
131.023
130.09
129.103
128.064
126.974
125.835
124.647
123.415
122.139
120.817
119.461
118.068
116.641
115.183
113.696
112.184
110.65
109.099
107.537
105.975
104.422
102.878
101.338
99.7961
98.251
96.702
95.1496
93.5949
92.0391
90.4836
88.9299
87.3796
85.8341
84.2949
82.7634
81.241
79.7291
78.229
76.7418
75.2689
73.8114
72.3703
70.9469
69.5422
68.1574
66.7936
65.4522
64.1349
62.8441
61.5832
60.3582
59.1795
58.0654
57.054
56.2069
55.6499
10.6978
5.13154
4.24436
4.09765
4.20623
4.45185
4.79302
5.21032
5.69166
6.22747
6.80924
7.42945
8.08187
8.76194
9.46681
10.1952
10.9472
11.7237
12.526
13.3558
14.2147
15.1039
16.0247
16.9779
17.964
18.9836
20.0366
21.123
22.2429
23.3958
24.5817
25.8002
27.0511
28.3342
29.6494
30.9963
32.375
33.7853
35.2271
36.7002
38.2046
39.7402
41.3067
42.904
44.5319
46.19
47.8779
49.5952
51.3414
53.1158
54.9176
56.7461
58.6004
60.4792
62.3816
64.3062
66.2516
68.2164
70.199
72.1978
74.211
76.2369
78.2735
80.319
82.3714
84.4287
86.489
88.5502
90.6102
92.6671
94.7188
96.7631
98.7979
100.818
102.819
104.797
106.749
108.672
110.563
112.42
114.239
116.019
117.757
119.45
121.097
122.696
124.243
125.738
127.178
128.562
129.888
131.154
132.358
133.501
134.579
135.592
136.54
137.42
138.232
138.976
139.649
140.253
140.787
141.249
141.641
141.96
142.208
142.385
142.49
142.523
142.486
142.377
142.198
141.948
141.63
141.242
140.787
140.264
139.675
139.021
138.303
137.521
136.679
135.775
134.814
133.795
132.72
131.591
130.41
129.18
127.897
126.572
125.204
123.794
122.346
120.863
119.345
117.797
116.22
114.618
112.994
111.352
109.697
108.037
106.376
104.717
103.059
101.399
99.7368
98.0729
96.408
94.7432
93.0798
91.4193
89.7634
88.1135
86.4711
84.8378
83.215
81.6042
80.0066
78.4236
76.8564
75.3063
73.7744
72.2619
70.77
69.2996
67.8522
66.429
65.0315
63.6617
62.3224
61.0175
59.7534
58.5406
57.3965
56.3523
55.4495
54.75
13.5727
6.10813
4.89496
4.64279
4.70191
4.91549
5.22881
5.61698
6.06579
6.56533
7.10785
7.6871
8.29827
8.93806
9.60458
10.2972
11.0161
11.7624
12.5372
13.3421
14.1782
15.0468
15.9489
16.8853
17.8567
18.8635
19.9061
20.9848
22.0996
23.2507
24.4382
25.6623
26.9229
28.2202
29.5543
30.9253
32.3332
33.7783
35.2606
36.7802
38.3371
39.9313
41.5628
43.2315
44.9371
46.6795
48.4582
50.2728
52.1226
54.0071
55.9253
57.8764
59.8591
61.8723
63.9146
65.9845
68.0804
70.2004
72.3428
74.5056
76.6866
78.8836
81.0945
83.3168
85.5482
87.7862
90.0283
92.272
94.5146
96.7536
98.9864
101.21
103.422
105.614
107.784
109.928
112.042
114.123
116.168
118.174
120.138
122.058
123.93
125.753
127.523
129.239
130.898
132.498
134.037
135.514
136.925
138.27
139.547
140.755
141.893
142.958
143.95
144.869
145.712
146.48
147.171
147.786
148.324
148.784
149.166
149.471
149.697
149.846
149.917
149.911
149.828
149.668
149.432
149.121
148.735
148.276
147.743
147.139
146.464
145.72
144.908
144.029
143.085
142.076
141.006
139.877
138.688
137.441
136.143
134.794
133.394
131.949
130.459
128.927
127.356
125.748
124.106
122.433
120.732
119.005
117.255
115.487
113.705
111.914
110.119
108.321
106.521
104.721
102.919
101.117
99.3162
97.5177
95.7231
93.934
92.1521
90.3789
88.6161
86.8652
85.1278
83.4052
81.6988
80.0101
78.3402
76.6905
75.0621
73.4562
71.874
70.3168
68.7857
67.2823
65.8083
64.3658
62.9578
61.5887
60.2648
58.9963
57.7988
56.6971
55.7188
54.8955
16.3337
6.97828
5.43018
5.06418
5.06699
5.24329
5.52509
5.88216
6.29824
6.76306
7.26944
7.8121
8.38726
8.99247
9.62645
10.2888
10.98
11.7009
12.4525
13.2362
14.0531
14.9045
15.7914
16.7147
17.6753
18.6739
19.7112
20.7878
21.9042
23.061
24.2586
25.4975
26.7783
28.1013
29.467
30.8758
32.3281
33.8243
35.3646
36.9495
38.5791
40.2535
41.9728
43.7369
45.5459
47.3993
49.2968
51.2379
53.222
55.2481
57.3154
59.4226
61.5684
63.7515
65.97
68.2222
70.5061
72.8196
75.1603
77.5259
79.9139
82.3215
84.7461
87.1847
89.6345
92.0925
94.5556
97.0207
99.4846
101.944
104.397
106.838
109.262
111.664
114.039
116.383
118.693
120.965
123.195
125.381
127.52
129.608
131.642
133.62
135.538
137.395
139.188
140.914
142.571
144.158
145.672
147.112
148.476
149.763
150.971
152.098
153.145
154.109
154.991
155.789
156.502
157.131
157.675
158.133
158.506
158.794
158.996
159.113
159.146
159.094
158.958
158.739
158.437
158.054
157.59
157.047
156.425
155.726
154.95
154.1
153.178
152.185
151.121
149.988
148.792
147.533
146.212
144.833
143.398
141.909
140.369
138.78
137.146
135.468
133.75
131.995
130.204
128.382
126.531
124.654
122.755
120.837
118.903
116.959
115.008
113.053
111.096
109.137
107.179
105.222
103.268
101.319
99.3762
97.4416
95.5168
93.6036
91.7037
89.8188
87.9503
86.0998
84.2687
82.4584
80.6702
78.9055
77.1654
75.4512
73.7641
72.1054
70.4766
68.879
67.3146
65.7857
64.2955
62.8484
61.4506
60.1118
58.8452
57.6704
56.6051
55.6662
18.7704
7.69594
5.83596
5.36016
5.30648
5.44475
5.69504
6.02226
6.40815
6.84197
7.31678
7.82789
8.37219
8.94779
9.55376
10.19
10.8568
11.5552
12.2862
13.051
13.8509
14.6872
15.5612
16.4739
17.4266
18.4204
19.4564
20.5355
21.6588
22.8273
24.0419
25.3035
26.6131
27.9714
29.3794
30.8377
32.3471
33.9083
35.5219
37.1883
38.908
40.6813
42.5083
44.3891
46.3235
48.3114
50.3522
52.4454
54.5902
56.7855
59.0302
61.3229
63.6619
66.0454
68.4713
70.9375
73.4416
75.9809
78.5526
81.1538
83.7815
86.4324
89.1033
91.7908
94.4912
97.2011
99.9169
102.635
105.351
108.062
110.763
113.451
116.116
118.754
121.36
123.93
126.46
128.946
131.384
133.772
136.104
138.379
140.592
142.742
144.823
146.835
148.774
150.638
152.425
154.132
155.757
157.299
158.756
160.127
161.41
162.603
163.707
164.719
165.639
166.466
167.2
167.841
168.388
168.841
169.2
169.465
169.637
169.716
169.702
169.596
169.398
169.111
168.733
168.266
167.712
167.073
166.349
165.541
164.651
163.681
162.634
161.511
160.315
159.046
157.708
156.304
154.836
153.306
151.717
150.071
148.373
146.623
144.826
142.984
141.101
139.179
137.221
135.231
133.212
131.167
129.099
127.012
124.91
122.796
120.674
118.547
116.418
114.289
112.161
110.036
107.917
105.804
103.7
101.608
99.5277
97.4623
95.4132
93.3822
91.3709
89.3808
87.4135
85.4704
83.5528
81.6621
79.7996
77.9665
76.1641
74.3938
72.657
70.9554
69.2909
67.666
66.0839
64.5489
63.0672
61.6474
60.3007
59.0423
57.8829
56.8324
20.8025
8.25321
6.11792
5.54214
5.43516
5.537
5.75746
6.05719
6.41614
6.82292
7.27058
7.75472
8.2726
8.82267
9.40427
10.0174
10.6627
11.3409
12.0534
12.8014
13.5863
14.4098
15.2733
16.1783
17.1266
18.1195
19.1586
20.2455
21.3817
22.5686
23.8078
25.1006
26.4484
27.8525
29.3141
30.8344
32.4146
34.0555
35.7581
37.5231
39.351
41.2424
43.1974
45.2162
47.2987
49.4445
51.6532
53.9238
56.2554
58.6468
61.0965
63.6026
66.1632
68.776
71.4386
74.1481
76.9017
79.6961
82.5281
85.3939
88.29
91.2126
94.1577
97.1214
100.099
103.088
106.082
109.078
112.071
115.057
118.031
120.986
123.912
126.804
129.659
132.472
135.237
137.952
140.611
143.212
145.749
148.221
150.622
152.951
155.202
157.375
159.465
161.47
163.388
165.217
166.955
168.599
170.149
171.602
172.958
174.214
175.371
176.427
177.38
178.232
178.98
179.626
180.169
180.608
180.945
181.179
181.312
181.342
181.271
181.1
180.83
180.462
179.996
179.434
178.778
178.029
177.19
176.262
175.245
174.144
172.959
171.694
170.351
168.932
167.439
165.876
164.245
162.549
160.791
158.975
157.102
155.177
153.202
151.181
149.118
147.014
144.875
142.702
140.5
138.272
136.022
133.752
131.467
129.171
126.866
124.557
122.246
119.936
117.629
115.327
113.032
110.747
108.473
106.213
103.969
101.743
99.5359
97.3503
95.1878
93.05
90.9384
88.8545
86.7997
84.7754
82.7829
80.8236
78.8987
77.0097
75.158
73.3455
71.574
69.8462
68.1652
66.5354
64.9624
63.4539
62.0193
60.6701
59.4125
58.2527
22.3924
8.65568
6.28991
5.62734
5.47222
5.54033
5.73319
6.00794
6.34294
6.72615
7.15042
7.61145
8.10667
8.63475
9.19523
9.78833
10.4147
11.0756
11.7722
12.5062
13.2793
14.0934
14.9504
15.8523
16.8012
17.7991
18.8481
19.9504
21.1079
22.3227
23.5968
24.9322
26.3307
27.7941
29.3242
30.9225
32.5904
34.3293
36.1403
38.0244
39.9822
42.0143
44.1211
46.3027
48.5587
50.8888
53.2921
55.7678
58.3144
60.9303
63.6136
66.362
69.1731
72.0441
74.9718
77.953
80.9839
84.0608
87.1796
90.3361
93.5258
96.7443
99.987
103.249
106.526
109.814
113.106
116.398
119.686
122.964
126.227
129.46
132.658
135.816
138.928
141.991
144.998
147.946
150.831
153.647
156.391
159.06
161.649
164.156
166.575
168.905
171.142
173.284
175.328
177.273
179.116
180.855
182.489
184.016
185.436
186.746
187.947
189.036
190.013
190.877
191.629
192.268
192.795
193.21
193.512
193.703
193.783
193.752
193.612
193.363
193.008
192.546
191.98
191.31
190.54
189.67
188.704
187.641
186.486
185.24
183.905
182.485
180.982
179.399
177.738
176.003
174.197
172.323
170.384
168.383
166.324
164.211
162.047
159.835
157.579
155.282
152.949
150.583
148.187
145.766
143.322
140.859
138.382
135.894
133.398
130.898
128.398
125.9
123.406
120.92
118.444
115.98
113.53
111.097
108.683
106.29
103.919
101.574
99.2548
96.9639
94.7028
92.4731
90.2762
88.1134
85.9863
83.896
81.844
79.8317
77.8606
75.9326
74.0497
72.2145
70.43
68.7005
67.0312
65.4286
63.9007
62.4562
61.0979
59.8308
23.5275
8.91465
6.36833
5.63439
5.43751
5.47529
5.643
5.89513
6.2088
6.57138
6.97551
7.41684
7.89293
8.40259
8.94557
9.52228
10.1337
10.7811
11.4663
12.1912
12.9579
13.7688
14.6262
15.5328
16.4912
17.5039
18.5738
19.7034
20.8955
22.1528
23.4777
24.8728
26.3406
27.8832
29.5028
31.2014
32.9809
34.8427
36.7881
38.8184
40.9343
43.1364
45.4249
47.7997
50.2604
52.8063
55.4362
58.1488
60.9421
63.8141
66.7623
69.7838
72.8754
76.0337
79.2549
82.535
85.8696
89.254
92.6833
96.1525
99.6565
103.19
106.748
110.325
113.916
117.516
121.118
124.718
128.311
131.89
135.442
138.956
142.427
145.849
149.217
152.526
155.77
158.946
162.047
165.071
168.013
170.869
173.635
176.308
178.883
181.356
183.727
185.991
188.147
190.193
192.126
193.945
195.647
197.233
198.7
200.048
201.277
202.384
203.368
204.229
204.968
205.585
206.08
206.453
206.705
206.837
206.849
206.743
206.519
206.178
205.723
205.154
204.474
203.683
202.785
201.781
200.674
199.465
198.158
196.754
195.257
193.67
191.995
190.236
188.396
186.477
184.485
182.421
180.29
178.095
175.84
173.529
171.165
168.753
166.296
163.798
161.262
158.694
156.097
153.474
150.829
148.167
145.491
142.804
140.112
137.417
134.722
132.032
129.348
126.675
124.013
121.367
118.738
116.129
113.542
110.979
108.442
105.934
103.455
101.009
98.596
96.218
93.8766
91.5731
89.3089
87.0854
84.904
82.7662
80.6735
78.6278
76.6311
74.6859
72.7953
70.9632
69.1943
67.4945
65.8701
64.3276
62.8678
61.4955
24.2102
9.04328
6.36935
5.58092
5.34967
5.36113
5.50647
5.73845
6.03338
6.37826
6.76557
7.19096
7.65209
8.14794
8.67848
9.24441
9.84702
10.488
11.1696
11.8941
12.6643
13.4829
14.3532
15.2781
16.2611
17.3054
18.4145
19.5917
20.8402
22.1634
23.5643
25.046
26.6114
28.2633
30.0041
31.8362
33.7616
35.7819
37.8986
40.1127
42.4251
44.8359
47.3453
49.9527
52.6573
55.4578
58.3526
61.3396
64.4163
67.5798
70.8268
74.1537
77.5566
81.0312
84.5728
88.1766
91.8377
95.5506
99.3089
103.107
106.939
110.798
114.681
118.58
122.489
126.404
130.318
134.225
138.121
141.993
145.824
149.607
153.337
157.009
160.617
164.154
167.617
171
174.299
177.509
180.626
183.646
186.567
189.383
192.089
194.682
197.162
199.524
201.767
203.889
205.888
207.762
209.509
211.129
212.621
213.983
215.215
216.316
217.285
218.122
218.828
219.402
219.846
220.159
220.343
220.398
220.325
220.125
219.801
219.352
218.781
218.09
217.28
216.354
215.313
214.161
212.9
211.531
210.059
208.486
206.815
205.049
203.192
201.246
199.216
197.105
194.916
192.654
190.322
187.925
185.466
182.95
180.38
177.76
175.096
172.39
169.648
166.872
164.068
161.24
158.39
155.524
152.646
149.759
146.867
143.975
141.085
138.201
135.327
132.464
129.617
126.788
123.98
121.194
118.434
115.701
112.998
110.327
107.69
105.088
102.523
99.9974
97.5116
95.0675
92.6665
90.3099
87.9992
85.7358
83.5214
81.3577
79.2467
77.191
75.1935
73.2578
71.3882
69.5897
67.8673
66.2261
64.6656
63.1905
24.4506
9.0545
6.30759
5.48265
5.22538
5.21537
5.34189
5.55695
5.83657
6.16765
6.54273
6.95759
7.41008
7.89946
8.42604
8.99092
9.59581
10.2429
10.935
11.6751
12.4664
13.3126
14.2175
15.1849
16.2189
17.3236
18.5031
19.7615
21.1027
22.5302
24.0477
25.6587
27.3665
29.1742
31.0844
33.0995
35.2215
37.452
39.7922
42.2428
44.804
47.4759
50.2575
53.1479
56.1455
59.2481
62.4531
65.7577
69.1584
72.6513
76.2321
79.8963
83.639
87.4549
91.3386
95.2845
99.2872
103.342
107.437
111.569
115.729
119.914
124.116
128.329
132.548
136.766
140.977
145.175
149.354
153.488
157.569
161.592
165.55
169.439
173.252
176.984
180.629
184.183
187.642
191
194.254
197.401
200.435
203.354
206.153
208.83
211.382
213.807
216.102
218.267
220.298
222.194
223.955
225.578
227.063
228.41
229.617
230.685
231.612
232.399
233.046
233.553
233.922
234.152
234.245
234.201
234.022
233.71
233.265
232.69
231.986
231.155
230.199
229.122
227.924
226.61
225.181
223.64
221.991
220.237
218.381
216.426
214.376
212.235
210.007
207.695
205.303
202.836
200.298
197.693
195.025
192.299
189.518
186.688
183.813
180.898
177.945
174.961
171.949
168.914
165.859
162.79
159.709
156.622
153.532
150.444
147.36
144.285
141.221
138.173
135.143
132.134
129.148
126.189
123.258
120.359
117.493
114.662
111.869
109.114
106.401
103.729
101.102
98.5199
95.9845
93.4973
91.0595
88.6728
86.3385
84.0586
81.835
79.6702
77.5668
75.5283
73.5585
71.6616
69.8418
68.1029
66.4434
64.8688
24.2643
8.95992
6.19551
5.35315
5.0795
5.05437
5.16731
5.37064
5.64068
5.96467
6.33551
6.74937
7.20454
7.70079
8.239
8.82086
9.4486
10.1251
10.8539
11.6387
12.4837
13.3932
14.3719
15.4246
16.5559
17.7708
19.0742
20.4711
21.9662
23.5617
25.2618
27.0706
28.9913
31.0269
33.1799
35.4522
37.8453
40.3602
42.9972
45.7563
48.6368
51.6375
54.7566
57.9918
61.3404
64.7991
68.3641
72.0312
75.7959
79.6532
83.5976
87.6236
91.7252
95.8963
100.13
104.421
108.762
113.146
117.566
122.014
126.485
130.971
135.466
139.964
144.46
148.946
153.418
157.871
162.273
166.617
170.897
175.106
179.238
183.289
187.252
191.122
194.894
198.564
202.127
205.579
208.916
212.134
215.23
218.201
221.043
223.753
226.329
228.769
231.07
233.232
235.251
237.128
238.86
240.447
241.888
243.182
244.329
245.329
246.181
246.885
247.443
247.854
248.119
248.24
248.216
248.049
247.742
247.294
246.708
245.987
245.13
244.142
243.025
241.78
240.41
238.92
237.31
235.585
233.748
231.803
229.752
227.6
225.35
223.007
220.574
218.056
215.457
212.781
210.033
207.217
204.338
201.401
198.41
195.369
192.284
189.159
185.998
182.807
179.589
176.35
173.093
169.823
166.544
163.261
159.978
156.698
153.425
150.164
146.917
143.689
140.481
137.298
134.141
131.014
127.92
124.859
121.836
118.851
115.907
113.006
110.149
107.338
104.574
101.859
99.1946
96.5815
94.0213
91.5154
89.0655
86.6733
84.3406
82.0698
79.8636
77.7249
75.6571
73.664
71.7489
69.9147
68.1596
66.4894
23.6333
8.76133
6.03939
5.20056
4.92209
4.89069
4.99859
5.19959
5.47111
5.80129
6.1839
6.61595
7.09664
7.6267
8.20814
8.84411
9.53655
10.2895
11.1076
11.9956
12.9588
14.0023
15.1317
16.3523
17.6696
19.0889
20.6152
22.2533
24.0076
25.8816
27.8786
30.0017
32.2534
34.6355
37.1494
39.7956
42.5743
45.4849
48.5261
51.6961
54.9927
58.413
61.9534
65.6102
69.3789
73.2548
77.2327
81.3071
85.4721
89.7216
94.0494
98.4487
102.913
107.435
112.009
116.627
121.281
125.966
130.675
135.399
140.133
144.871
149.606
154.332
159.045
163.74
168.409
173.019
177.564
182.036
186.431
190.743
194.965
199.094
203.124
207.05
210.867
214.572
218.161
221.628
224.972
228.188
231.273
234.224
237.039
239.715
242.249
244.64
246.885
248.984
250.934
252.734
254.384
255.882
257.228
258.421
259.461
260.348
261.082
261.663
262.091
262.368
262.493
262.469
262.296
261.975
261.508
260.896
260.142
259.248
258.215
257.047
255.745
254.312
252.752
251.067
249.26
247.335
245.296
243.145
240.887
238.527
236.067
233.512
230.866
228.135
225.322
222.431
219.469
216.439
213.346
210.195
206.991
203.739
200.444
197.11
193.742
190.345
186.924
183.483
180.027
176.561
173.088
169.614
166.141
162.675
159.22
155.778
152.354
148.951
145.573
142.222
138.901
135.613
132.361
129.147
125.972
122.841
119.753
116.711
113.717
110.773
107.879
105.037
102.249
99.5153
96.838
94.2183
91.6577
89.1578
86.7204
84.3478
82.0424
79.807
77.6445
75.5582
73.5508
71.6247
69.7777
68.0165
22.731
8.56334
5.89115
5.06418
4.79197
4.76779
4.88696
5.10543
5.40241
5.76771
6.19667
6.68794
7.24227
7.86195
8.55036
9.31169
10.1505
11.0719
12.0817
13.1856
14.3896
15.6995
17.1211
18.6598
20.3206
22.108
24.0261
26.0783
28.2673
30.5949
33.0626
35.6708
38.4196
41.3083
44.3354
47.4989
50.7963
54.2244
57.7795
61.4575
65.2539
69.1638
73.182
77.3028
81.5205
85.829
90.2222
94.6938
99.237
103.846
108.513
113.231
117.995
122.797
127.631
132.49
137.367
142.256
147.151
152.045
156.934
161.812
166.674
171.516
176.334
181.114
185.824
190.461
195.019
199.492
203.877
208.168
212.36
216.449
220.43
224.299
228.053
231.687
235.197
238.581
241.835
244.956
247.941
250.787
253.492
256.054
258.47
260.739
262.858
264.827
266.644
268.307
269.817
271.172
272.371
273.414
274.301
275.031
275.605
276.024
276.287
276.395
276.349
276.151
275.8
275.3
274.65
273.854
272.912
271.828
270.603
269.24
267.741
266.11
264.349
262.462
260.452
258.322
256.077
253.72
251.255
248.686
246.017
243.253
240.399
237.459
234.438
231.34
228.171
224.935
221.637
218.283
214.877
211.425
207.931
204.401
200.839
197.25
193.639
190.011
186.371
182.722
179.07
175.419
171.774
168.137
164.514
160.907
157.322
153.76
150.226
146.723
143.253
139.819
136.424
133.07
129.76
126.494
123.277
120.108
116.99
113.924
110.912
107.955
105.055
102.212
99.4282
96.7047
94.0429
91.4444
88.911
86.4447
84.0477
81.7227
79.4722
77.2991
75.2055
73.1937
71.2612
69.4157
21.6457
8.32234
5.75173
4.95954
4.7142
4.72097
4.88035
5.1518
5.51759
5.9705
6.50881
7.13406
7.84984
8.6611
9.57362
10.5937
11.7276
12.9819
14.3626
15.8755
17.5257
19.3176
21.2548
23.3399
25.5747
27.96
30.4958
33.1812
36.0143
38.9927
42.1132
45.3721
48.7653
52.2881
55.9356
59.7026
63.5836
67.5731
71.6652
75.8543
80.1342
84.4993
88.9434
93.4606
98.0449
102.69
107.391
112.142
116.935
121.767
126.63
131.519
136.429
141.354
146.288
151.225
156.162
161.093
166.012
170.916
175.801
180.663
185.498
190.305
195.059
199.739
204.339
208.856
213.286
217.625
221.868
226.011
230.051
233.983
237.804
241.51
245.097
248.562
251.902
255.113
258.193
261.138
263.947
266.617
269.144
271.528
273.766
275.856