/*--------------------------------*- C++ -*----------------------------------*\
| =========                 |                                                 |
| \\      /  F ield         | OpenFOAM: The Open Source CFD Toolbox           |
|  \\    /   O peration     | Version:  2412                                  |
|   \\  /    A nd           | Website:  www.openfoam.com                      |
|    \\/     M anipulation  |                                                 |
\*---------------------------------------------------------------------------*/
FoamFile
{
    version     2.0;
    format      ascii;
    arch        "LSB;label=32;scalar=64";
    class       volScalarField;
    location    "0.29";
    object      nut;
}
// * * * * * * * * * * * * * * * * * * * * * * * * * * * * * * * * * * * * * //

dimensions      [0 2 -1 0 0 0 0];

internalField   nonuniform List<scalar> 
12225
(
2.015e-05
2.24858e-05
2.47491e-05
2.63715e-05
2.7588e-05
2.85143e-05
2.92324e-05
2.97981e-05
3.02485e-05
3.061e-05
3.09018e-05
3.11381e-05
3.13294e-05
3.14835e-05
3.16061e-05
3.17004e-05
3.17687e-05
3.18284e-05
0.000167792
0.000185428
0.000202597
0.000213787
0.000221146
0.000225984
0.000229002
0.00023072
0.000231515
0.000231644
0.000231292
0.000230594
0.00022965
0.000228531
0.000227296
0.00022597
0.000224708
0.000224072
0.000338328
0.000365994
0.000399362
0.000424407
0.00044278
0.000456139
0.000465649
0.000472249
0.000476658
0.00047941
0.000480906
0.000481448
0.000481265
0.000480531
0.000479378
0.000477904
0.0004763
0.000475461
0.000480632
0.000521771
0.000570122
0.000608391
0.000637803
0.00066021
0.0006771
0.000689692
0.000698954
0.000705626
0.000710281
0.000713361
0.000715208
0.000716088
0.00071621
0.00071574
0.000714911
0.000714431
0.00059357
0.000650968
0.00071349
0.000763786
0.000803284
0.000834124
0.00085809
0.000876631
0.000890897
0.000901785
0.000909999
0.000916089
0.000920491
0.000923548
0.000925533
0.000926672
0.000927219
0.000927686
0.000684418
0.000756656
0.000831951
0.000893055
0.000941627
0.000980104
0.00101056
0.00103466
0.0010537
0.0010687
0.00108048
0.00108967
0.00109678
0.00110221
0.0011063
0.00110932
0.00111153
0.00111331
0.000759757
0.00084284
0.000928292
0.000998648
0.00105522
0.00110054
0.00113687
0.00116606
0.00118953
0.00120842
0.00122362
0.00123583
0.00124563
0.00125348
0.00125974
0.00126473
0.0012687
0.00127194
0.000823625
0.000913365
0.00100525
0.00108261
0.00114578
0.00119702
0.00123857
0.00127237
0.00129992
0.00132243
0.00134086
0.00135597
0.00136839
0.00137861
0.00138703
0.00139399
0.00139973
0.00140448
0.000877003
0.000970916
0.0010653
0.00114672
0.00121456
0.00127046
0.0013164
0.00135421
0.00138542
0.00141126
0.00143271
0.00145058
0.00146551
0.00147804
0.00148859
0.0014975
0.00150499
0.00151124
0.000918258
0.00101593
0.00110995
0.00119241
0.00126253
0.0013214
0.00137055
0.00141157
0.00144587
0.00147463
0.00149882
0.00151925
0.00153658
0.00155133
0.00156396
0.00157478
0.001584
0.00159171
0.000944751
0.00104624
0.0011388
0.00122006
0.00129015
0.00135004
0.0014009
0.00144402
0.0014806
0.0015117
0.00153823
0.00156093
0.00158044
0.00159729
0.0016119
0.00162457
0.0016355
0.00164465
0.000953929
0.00105647
0.00114713
0.00122621
0.0012948
0.00135413
0.00140528
0.0014493
0.00148719
0.00151986
0.00154809
0.00157258
0.00159388
0.00161249
0.00162881
0.00164312
0.00165556
0.00166602
0.000951545
0.0010519
0.00114069
0.00121791
0.00128482
0.0013429
0.00139336
0.00143724
0.00147545
0.00150878
0.00153794
0.00156353
0.00158606
0.00160596
0.0016236
0.00163923
0.00165293
0.00166447
0.000937266
0.00102693
0.00110961
0.00118333
0.00124793
0.00130434
0.00135362
0.00139676
0.00143463
0.001468
0.00149751
0.00152369
0.00154702
0.00156787
0.00158656
0.0016033
0.00161811
0.00163063
0.000914065
0.000982516
0.00105
0.00111401
0.00117277
0.00122566
0.00127281
0.00131462
0.00135169
0.00138461
0.00141396
0.00144023
0.00146384
0.00148514
0.00150441
0.00152186
0.00153745
0.00155068
0.000888181
0.000929364
0.000972527
0.00101672
0.00106056
0.0011029
0.00114292
0.00118011
0.00121428
0.00124543
0.00127374
0.00129945
0.00132281
0.00134407
0.00136347
0.00138116
0.00139714
0.00141081
0.000866165
0.000882903
0.000901456
0.000921824
0.000943709
0.000966717
0.000990418
0.00101437
0.00103813
0.00106136
0.00108377
0.00110518
0.00112548
0.00114459
0.00116249
0.0011792
0.00119465
0.00120841
0.000853647
0.000856463
0.000860483
0.000865723
0.000872136
0.000879656
0.000888213
0.000897719
0.000908059
0.000919104
0.000930715
0.000942751
0.000955074
0.000967562
0.000980094
0.000992551
0.00100481
0.00101665
0.000856838
0.00086304
0.000870433
0.000879025
0.000888701
0.000899308
0.000910677
0.000922625
0.000934956
0.000947485
0.000960044
0.000972495
0.000984725
0.00099665
0.00100821
0.00101937
0.00103006
0.00104006
0.000879014
0.000910093
0.000943006
0.000977101
0.00101138
0.00104494
0.00107708
0.00110731
0.00113536
0.00116111
0.00118459
0.0012059
0.0012252
0.00124266
0.00125845
0.00127274
0.00128565
0.00129725
0.000912428
0.000978633
0.00104329
0.00110415
0.00115969
0.00120945
0.00125358
0.00129251
0.00132677
0.0013569
0.00138345
0.00140686
0.00142755
0.00144588
0.00146213
0.00147658
0.00148943
0.00150098
0.000944652
0.00103937
0.00112415
0.00119816
0.00126209
0.00131726
0.00136492
0.0014061
0.00144172
0.00147255
0.00149929
0.00152252
0.00154273
0.00156034
0.00157572
0.00158915
0.00160091
0.00161125
0.000952969
0.00105495
0.00114494
0.00122286
0.00128968
0.00134681
0.00139548
0.00143685
0.001472
0.0015019
0.00152736
0.00154908
0.00156764
0.00158352
0.00159712
0.00160878
0.00161878
0.00162735
0.000919762
0.00101577
0.00110711
0.00118655
0.00125366
0.00130983
0.00135663
0.00139556
0.001428
0.00145508
0.00147772
0.00149669
0.0015126
0.00152595
0.00153716
0.00154657
0.00155444
0.00156098
0.000847919
0.000936212
0.00102591
0.00110193
0.0011644
0.00121544
0.00125709
0.00129112
0.00131899
0.00134186
0.00136065
0.00137609
0.00138878
0.00139919
0.00140772
0.00141469
0.00142033
0.0014248
0.00074824
0.000825344
0.000905836
0.000972005
0.00102523
0.00106796
0.00110226
0.00112982
0.00115199
0.00116982
0.00118414
0.00119563
0.00120479
0.00121206
0.00121778
0.00122222
0.00122561
0.00122806
0.000620838
0.000679397
0.000743804
0.000795902
0.000837071
0.000869521
0.000895045
0.000915071
0.000930737
0.000942939
0.000952375
0.000959599
0.000965046
0.000969062
0.000971925
0.000973854
0.000975024
0.000975552
0.000453206
0.00049108
0.000536513
0.000572227
0.000599359
0.000619976
0.000635558
0.000647219
0.000655838
0.000662098
0.000666517
0.000669499
0.000671353
0.000672324
0.000672601
0.000672335
0.000671644
0.000670627
0.00023657
0.00025923
0.000284033
0.000301436
0.000313162
0.000321243
0.000326756
0.000330374
0.000332602
0.000333804
0.000334243
0.000334113
0.000333558
0.000332689
0.000331589
0.000330323
0.000328939
0.000327501
2.7242e-05
3.0171e-05
3.32397e-05
3.54417e-05
3.70547e-05
3.8262e-05
3.91809e-05
3.98936e-05
4.04543e-05
4.09001e-05
4.12575e-05
4.15462e-05
4.17807e-05
4.1972e-05
4.21288e-05
4.22576e-05
4.23633e-05
4.24507e-05
4.848e-06
1.31564e-05
1.49687e-05
1.62662e-05
1.72087e-05
1.79383e-05
1.86613e-05
1.94335e-05
2.02143e-05
2.10049e-05
2.18166e-05
2.26758e-05
2.36693e-05
2.48447e-05
2.60823e-05
2.73572e-05
2.86594e-05
2.99865e-05
3.13366e-05
3.27066e-05
3.40922e-05
3.54878e-05
3.68881e-05
3.82879e-05
3.96829e-05
4.107e-05
4.24474e-05
4.38149e-05
4.51739e-05
4.65278e-05
4.78822e-05
4.92301e-05
5.05568e-05
5.18607e-05
5.31416e-05
5.43996e-05
5.56347e-05
5.68474e-05
5.80381e-05
5.92073e-05
6.03554e-05
6.14831e-05
6.25908e-05
6.36791e-05
6.47483e-05
6.57989e-05
6.68313e-05
6.78458e-05
6.88426e-05
6.9822e-05
7.07841e-05
7.1729e-05
7.26569e-05
7.35677e-05
7.44615e-05
7.53383e-05
7.61981e-05
7.70407e-05
7.78661e-05
7.86742e-05
7.94649e-05
8.02381e-05
8.09937e-05
8.17315e-05
8.24515e-05
8.31535e-05
8.38374e-05
8.45031e-05
8.51507e-05
8.578e-05
8.63914e-05
8.69854e-05
8.75628e-05
8.81255e-05
8.86767e-05
8.92124e-05
8.97271e-05
9.02219e-05
9.06971e-05
9.1153e-05
9.15896e-05
9.2007e-05
9.2405e-05
9.27836e-05
9.31428e-05
9.34824e-05
9.38026e-05
9.41031e-05
9.43841e-05
9.46455e-05
9.48873e-05
9.51095e-05
9.53122e-05
9.54953e-05
9.56589e-05
9.5803e-05
9.59277e-05
9.60329e-05
9.61189e-05
9.61855e-05
9.62329e-05
9.62612e-05
9.62704e-05
9.62606e-05
9.62319e-05
9.61843e-05
9.6118e-05
9.6033e-05
9.59295e-05
9.58075e-05
9.56671e-05
9.55085e-05
9.53317e-05
9.51369e-05
9.49242e-05
9.46938e-05
9.44458e-05
9.41803e-05
9.38976e-05
9.35977e-05
9.32809e-05
9.29473e-05
9.25971e-05
9.22306e-05
9.1848e-05
9.14494e-05
9.10352e-05
9.06057e-05
9.01609e-05
8.97014e-05
8.92273e-05
8.87389e-05
8.82366e-05
8.77207e-05
8.71916e-05
8.66496e-05
8.60951e-05
8.55286e-05
8.49499e-05
8.43609e-05
8.37603e-05
8.3151e-05
8.25368e-05
8.19403e-05
8.14911e-05
8.10928e-05
8.06906e-05
8.02807e-05
7.98629e-05
7.94375e-05
7.90048e-05
7.85653e-05
7.81193e-05
7.76672e-05
7.72093e-05
7.67462e-05
7.62781e-05
7.58056e-05
7.53291e-05
7.48489e-05
7.43654e-05
7.38791e-05
7.33904e-05
7.28996e-05
7.24071e-05
7.19132e-05
7.14181e-05
7.09221e-05
7.04253e-05
6.99275e-05
6.94284e-05
6.89273e-05
6.8423e-05
6.79131e-05
6.73935e-05
6.68561e-05
6.62832e-05
6.56299e-05
6.48172e-05
6.37579e-05
7.09933e-06
3.16475e-05
6.29092e-05
8.75467e-05
0.000105012
0.000117467
0.000125474
0.000130671
0.000134916
0.000139032
0.00014322
0.000147405
0.000151462
0.000155379
0.000159284
0.000163274
0.000167438
0.000171854
0.000176591
0.000181706
0.000187245
0.000193237
0.000199698
0.00020663
0.000214023
0.000221857
0.0002301
0.000238716
0.000247662
0.000256893
0.000266371
0.000276071
0.000285974
0.000296052
0.000306276
0.000316621
0.000327062
0.000337577
0.000348148
0.000358759
0.000369398
0.000380054
0.000390718
0.000401383
0.000412044
0.000422696
0.000433336
0.000443959
0.000454564
0.000465146
0.000475703
0.000486232
0.000496728
0.00050719
0.000517612
0.000527991
0.000538323
0.000548601
0.000558823
0.000568982
0.000579074
0.000589093
0.000599035
0.000608894
0.000618664
0.000628341
0.000637918
0.000647389
0.000656745
0.000665976
0.000675066
0.000683992
0.00069272
0.000701201
0.000709234
0.00071676
0.000724087
0.000731264
0.000738298
0.00074519
0.000751937
0.000758538
0.000764989
0.000771288
0.000777434
0.000783423
0.000789254
0.000794925
0.000800434
0.000805779
0.000810959
0.000815972
0.000820817
0.000825493
0.000829998
0.000834332
0.000838494
0.000842483
0.000846297
0.000849938
0.000853403
0.000856693
0.000859806
0.000862744
0.000865504
0.000868087
0.000870493
0.00087272
0.00087477
0.000876642
0.000878335
0.000879849
0.000881185
0.000882343
0.000883322
0.000884123
0.000884746
0.00088519
0.000885457
0.000885547
0.00088546
0.000885197
0.000884758
0.000884145
0.000883358
0.000882398
0.000881267
0.000879966
0.000878497
0.00087686
0.000875059
0.000873094
0.000870968
0.000868683
0.000866243
0.000863649
0.000860904
0.000858014
0.000854973
0.000851801
0.000848492
0.000845018
0.000841307
0.000837062
0.000831364
0.000824834
0.000817992
0.00081098
0.000803845
0.000796608
0.000789281
0.000781874
0.000774395
0.000766849
0.000759244
0.000751586
0.00074388
0.000736132
0.000728347
0.000720533
0.000712692
0.000704832
0.000696956
0.00068907
0.000681178
0.000673285
0.000665394
0.000657508
0.000649631
0.000641765
0.000633908
0.00062606
0.000618216
0.000610364
0.000602483
0.000594536
0.00058642
0.000577876
0.000565331
0.000541864
8.65095e-06
5.06273e-05
0.000103813
0.000144871
0.000174061
0.000193767
0.000207159
0.000216822
0.000224633
0.00023175
0.000238767
0.000245937
0.00025336
0.000261109
0.000269276
0.000277964
0.000287282
0.000297335
0.00030822
0.000320014
0.000332772
0.000346524
0.000361273
0.000376999
0.000393657
0.000411186
0.000429512
0.000448551
0.000468216
0.000488423
0.000509092
0.000530151
0.000551537
0.000573188
0.000595049
0.000617072
0.000639214
0.000661442
0.000683726
0.000706043
0.000728374
0.000750704
0.000773021
0.000795317
0.000817583
0.000839813
0.000862001
0.000884141
0.000906228
0.000928255
0.000950218
0.000972108
0.000993918
0.00101564
0.00103727
0.00105879
0.00108019
0.00110147
0.00112261
0.00114361
0.00116444
0.0011851
0.00120557
0.00122584
0.0012459
0.00126573
0.00128531
0.00130464
0.00132368
0.00134241
0.0013608
0.00137882
0.00139644
0.0014136
0.00143009
0.0014461
0.00146174
0.00147706
0.00149208
0.00150678
0.00152117
0.00153525
0.00154899
0.00156241
0.0015755
0.00158825
0.00160065
0.00161271
0.00162442
0.00163576
0.00164676
0.00165738
0.00166765
0.00167754
0.00168707
0.00169623
0.001705
0.00171341
0.00172143
0.00172908
0.00173635
0.00174323
0.00174973
0.00175585
0.00176158
0.00176693
0.00177189
0.00177647
0.00178065
0.00178446
0.00178787
0.0017909
0.00179354
0.00179579
0.00179765
0.00179913
0.00180023
0.00180093
0.00180125
0.00180119
0.00180075
0.00179992
0.00179872
0.00179714
0.00179518
0.00179285
0.00179016
0.00178709
0.00178367
0.00177989
0.00177575
0.00177126
0.00176643
0.00176126
0.00175575
0.00174993
0.00174378
0.00173733
0.00173058
0.00172354
0.0017162
0.0017085
0.00170031
0.00169132
0.00168092
0.00166944
0.00165734
0.00164484
0.00163203
0.00161896
0.00160567
0.00159218
0.00157851
0.00156467
0.00155068
0.00153655
0.00152229
0.00150791
0.00149343
0.00147886
0.00146421
0.00144949
0.00143471
0.00141989
0.00140503
0.00139013
0.00137522
0.0013603
0.00134536
0.00133043
0.00131548
0.00130053
0.00128556
0.00127054
0.0012554
0.00124005
0.00122421
0.00120719
0.00118561
0.00114851
9.82647e-06
6.94744e-05
0.000138109
0.000190485
0.000227558
0.000253583
0.000272219
0.000286332
0.000298014
0.000308667
0.000319143
0.000329919
0.000341261
0.000353334
0.000366269
0.000380183
0.000395189
0.000411389
0.000428863
0.000447666
0.000467825
0.000489331
0.000512149
0.000536214
0.000561444
0.000587739
0.000614989
0.000643082
0.000671908
0.00070136
0.000731341
0.000761762
0.000792542
0.000823612
0.000854909
0.00088638
0.00091798
0.000949673
0.000981426
0.00101322
0.00104502
0.00107682
0.00110861
0.00114037
0.00117209
0.00120376
0.00123538
0.00126693
0.0012984
0.00132979
0.00136107
0.00139225
0.00142331
0.00145423
0.00148501
0.00151562
0.00154605
0.00157629
0.00160631
0.00163611
0.00166565
0.00169493
0.00172393
0.00175262
0.00178098
0.001809
0.00183664
0.00186389
0.00189073
0.00191712
0.00194304
0.00196845
0.00199334
0.00201762
0.00204124
0.00206431
0.0020869
0.00210904
0.00213073
0.00215197
0.00217277
0.00219311
0.00221299
0.00223239
0.00225132
0.00226977
0.00228773
0.00230519
0.00232215
0.0023386
0.00235454
0.00236996
0.00238486
0.00239923
0.00241308
0.00242639
0.00243917
0.00245141
0.00246311
0.00247427
0.00248488
0.00249494
0.00250446
0.00251342
0.00252183
0.00252969
0.002537
0.00254375
0.00254994
0.00255558
0.00256066
0.00256518
0.00256914
0.00257255
0.0025754
0.00257769
0.00257942
0.0025806
0.00258122
0.00258128
0.0025808
0.00257976
0.00257818
0.00257605
0.00257338
0.00257017
0.00256642
0.00256215
0.00255735
0.00255203
0.00254619
0.00253986
0.00253302
0.00252569
0.00251788
0.00250961
0.00250087
0.00249169
0.00248208
0.00247201
0.00246149
0.00245046
0.00243881
0.00242631
0.00241263
0.00239792
0.00238245
0.00236639
0.00234988
0.00233296
0.0023157
0.00229812
0.00228024
0.0022621
0.0022437
0.00222508
0.00220624
0.00218721
0.002168
0.00214864
0.00212912
0.00210948
0.00208973
0.00206988
0.00204994
0.00202994
0.00200989
0.00198979
0.00196965
0.00194949
0.00192929
0.00190907
0.0018888
0.00186845
0.00184793
0.0018271
0.0018056
0.00178256
0.00175507
0.00171514
1.0693e-05
8.48663e-05
0.000166386
0.000228306
0.000273103
0.000305424
0.000329309
0.000347917
0.000363583
0.000377931
0.000392024
0.000406523
0.000421828
0.000438192
0.000455786
0.000474738
0.000495149
0.000517092
0.000540612
0.000565725
0.000592413
0.00062063
0.000650301
0.000681332
0.000713612
0.000747023
0.000781441
0.000816744
0.000852813
0.000889539
0.00092682
0.000964564
0.00100269
0.00104112
0.0010798
0.00111867
0.00115769
0.00119682
0.00123601
0.00127526
0.00131452
0.00135379
0.00139304
0.00143226
0.00147143
0.00151054
0.00154957
0.00158852
0.00162736
0.00166609
0.00170469
0.00174313
0.00178142
0.00181952
0.00185742
0.0018951
0.00193254
0.00196972
0.00200662
0.00204322
0.00207949
0.00211542
0.00215098
0.00218614
0.0022209
0.00225521
0.00228905
0.00232241
0.00235526
0.00238757
0.00241933
0.0024505
0.00248108
0.00251093
0.00254012
0.00256871
0.00259673
0.00262421
0.00265115
0.00267754
0.00270338
0.00272868
0.0027534
0.00277756
0.00280114
0.00282414
0.00284653
0.00286833
0.00288952
0.00291009
0.00293004
0.00294937
0.00296806
0.00298611
0.00300352
0.00302028
0.0030364
0.00305185
0.00306665
0.00308078
0.00309426
0.00310706
0.00311919
0.00313065
0.00314144
0.00315155
0.00316098
0.00316973
0.0031778
0.00318518
0.00319188
0.0031979
0.00320323
0.00320788
0.00321184
0.00321511
0.00321769
0.00321959
0.00322081
0.00322134
0.00322119
0.00322036
0.00321885
0.00321667
0.00321381
0.00321029
0.0032061
0.00320126
0.00319576
0.00318962
0.00318284
0.00317543
0.0031674
0.00315876
0.00314952
0.00313969
0.00312929
0.00311832
0.00310679
0.0030947
0.00308203
0.00306875
0.00305477
0.00303995
0.00302414
0.00300736
0.00298977
0.00297151
0.00295266
0.00293331
0.0029135
0.00289326
0.00287264
0.00285166
0.00283034
0.00280871
0.00278678
0.00276459
0.00274214
0.00271947
0.00269659
0.00267353
0.00265029
0.0026269
0.00260339
0.00257976
0.00255603
0.00253223
0.00250836
0.00248443
0.00246046
0.00243643
0.00241234
0.00238816
0.0023638
0.0023391
0.00231371
0.00228679
0.00225609
0.00221708
1.13762e-05
9.63913e-05
0.000188472
0.000259508
0.000311951
0.000350684
0.000380002
0.000403299
0.000423125
0.000441304
0.000459086
0.000477289
0.000496434
0.00051685
0.000538747
0.000562258
0.000587467
0.000614419
0.000643123
0.000673555
0.000705665
0.000739376
0.000774591
0.000811197
0.000849074
0.000888096
0.000928135
0.000969071
0.00101079
0.00105317
0.00109613
0.00113956
0.0011834
0.00122756
0.00127199
0.00131663
0.00136143
0.00140635
0.00145135
0.0014964
0.00154148
0.00158656
0.00163162
0.00167664
0.00172159
0.00176647
0.00181125
0.00185592
0.00190046
0.00194484
0.00198906
0.00203309
0.00207691
0.00212051
0.00216386
0.00220694
0.00224972
0.0022922
0.00233433
0.0023761
0.00241748
0.00245846
0.002499
0.00253909
0.00257869
0.00261779
0.00265635
0.00269437
0.00273181
0.00276865
0.00280487
0.00284046
0.0028754
0.00290958
0.00294307
0.00297592
0.00300814
0.00303976
0.00307077
0.00310118
0.00313097
0.00316014
0.00318869
0.00321659
0.00324385
0.00327046
0.0032964
0.00332167
0.00334625
0.00337015
0.00339335
0.00341585
0.00343765
0.00345872
0.00347908
0.00349871
0.0035176
0.00353576
0.00355318
0.00356986
0.00358578
0.00360095
0.00361536
0.00362902
0.00364191
0.00365404
0.0036654
0.00367599
0.00368581
0.00369485
0.00370312
0.00371061
0.00371732
0.00372326
0.00372841
0.00373277
0.00373636
0.00373917
0.00374119
0.00374243
0.0037429
0.00374258
0.00374149
0.00373963
0.003737
0.00373361
0.00372945
0.00372454
0.00371888
0.00371247
0.00370534
0.00369747
0.00368889
0.00367961
0.00366963
0.00365897
0.00364763
0.00363563
0.00362298
0.00360968
0.00359571
0.00358106
0.00356566
0.00354945
0.00353233
0.00351431
0.00349547
0.0034759
0.00345567
0.00343486
0.0034135
0.00339164
0.0033693
0.00334653
0.00332335
0.00329978
0.00327585
0.00325158
0.003227
0.00320212
0.00317698
0.00315159
0.00312598
0.00310017
0.00307419
0.00304804
0.00302176
0.00299536
0.00296887
0.00294229
0.00291564
0.00288893
0.00286216
0.00283529
0.00280826
0.00278094
0.002753
0.00272373
0.00269154
0.00265413
1.23156e-05
0.000101872
0.000203559
0.000283754
0.000343996
0.000389325
0.000424282
0.000452475
0.000476637
0.000498768
0.000520273
0.000542106
0.000564894
0.000589037
0.00061478
0.000642269
0.000671577
0.000702729
0.000735709
0.00077047
0.000806939
0.000845021
0.000884608
0.000925582
0.000967819
0.00101119
0.00105558
0.00110086
0.00114693
0.00119367
0.00124099
0.00128881
0.00133704
0.00138561
0.00143445
0.00148352
0.00153276
0.00158213
0.00163158
0.00168109
0.00173062
0.00178015
0.00182964
0.00187908
0.00192844
0.00197771
0.00202685
0.00207586
0.0021247
0.00217337
0.00222184
0.00227008
0.00231809
0.00236583
0.00241328
0.00246042
0.00250723
0.00255369
0.00259976
0.00264543
0.00269066
0.00273545
0.00277976
0.00282356
0.00286684
0.00290957
0.00295173
0.00299329
0.00303424
0.00307456
0.00311422
0.00315321
0.00319149
0.00322902
0.00326585
0.003302
0.00333751
0.00337237
0.00340659
0.00344016
0.00347308
0.00350534
0.00353693
0.00356785
0.00359807
0.00362759
0.00365641
0.00368451
0.00371188
0.00373851
0.0037644
0.00378954
0.00381392
0.00383753
0.00386037
0.00388243
0.0039037
0.00392418
0.00394386
0.00396274
0.0039808
0.00399806
0.00401449
0.00403011
0.0040449
0.00405887
0.004072
0.0040843
0.00409575
0.00410637
0.00411615
0.00412508
0.00413316
0.0041404
0.00414678
0.00415231
0.00415699
0.00416082
0.0041638
0.00416592
0.00416719
0.00416761
0.00416718
0.00416591
0.00416379
0.00416083
0.00415704
0.00415243
0.00414698
0.00414072
0.00413365
0.00412577
0.00411711
0.00410767
0.00409746
0.00408649
0.00407478
0.00406233
0.00404916
0.00403526
0.00402063
0.00400527
0.00398913
0.00397218
0.00395437
0.0039357
0.00391622
0.00389597
0.00387503
0.00385343
0.00383123
0.00380846
0.00378515
0.00376134
0.00373705
0.00371232
0.00368716
0.0036616
0.00363568
0.00360941
0.00358281
0.00355592
0.00352876
0.00350135
0.00347372
0.00344589
0.00341788
0.00338972
0.00336144
0.00333305
0.00330457
0.00327602
0.0032474
0.00321872
0.00318991
0.00316088
0.00313137
0.00310081
0.00306811
0.00303202
1.30997e-05
0.000104547
0.000213578
0.000301891
0.000369528
0.000421349
0.000461983
0.000495168
0.000523767
0.000549908
0.000575119
0.000600465
0.000626662
0.000654175
0.00068329
0.000714171
0.000746895
0.000781479
0.000817898
0.000856091
0.000895977
0.000937455
0.000980413
0.00102473
0.00107029
0.00111697
0.00116465
0.00121321
0.00126255
0.00131256
0.00136316
0.00141426
0.00146577
0.00151763
0.00156977
0.00162214
0.00167469
0.00172736
0.00178012
0.00183293
0.00188575
0.00193857
0.00199133
0.00204404
0.00209665
0.00214914
0.0022015
0.0022537
0.00230572
0.00235753
0.00240913
0.00246048
0.00251157
0.00256237
0.00261286
0.00266301
0.00271281
0.00276223
0.00281124
0.00285983
0.00290796
0.00295561
0.00300276
0.00304939
0.00309546
0.00314097
0.00318588
0.00323017
0.00327383
0.00331684
0.00335917
0.00340083
0.00344172
0.00348188
0.00352134
0.00356013
0.00359826
0.00363572
0.00367253
0.00370867
0.00374415
0.00377894
0.00381304
0.00384643
0.00387912
0.00391108
0.0039423
0.00397278
0.00400251
0.00403147
0.00405965
0.00408705
0.00411365
0.00413945
0.00416445
0.00418863
0.00421198
0.0042345
0.00425619
0.00427703
0.00429701
0.00431614
0.00433441
0.00435182
0.00436836
0.00438402
0.00439881
0.00441271
0.00442572
0.00443785
0.00444908
0.00445941
0.00446886
0.0044774
0.00448504
0.00449177
0.0044976
0.00450252
0.00450655
0.00450966
0.00451186
0.00451316
0.00451355
0.00451306
0.00451165
0.00450935
0.00450615
0.00450207
0.0044971
0.00449126
0.00448456
0.004477
0.0044686
0.00445935
0.00444929
0.00443841
0.00442672
0.00441424
0.00440098
0.00438694
0.00437213
0.00435653
0.00434014
0.00432293
0.00430489
0.00428601
0.00426631
0.00424584
0.00422463
0.00420274
0.00418019
0.00415701
0.00413326
0.00410894
0.0040841
0.00405876
0.00403294
0.00400668
0.00398
0.00395292
0.00392547
0.00389768
0.00386957
0.00384117
0.00381251
0.00378361
0.0037545
0.0037252
0.00369576
0.00366618
0.0036365
0.00360675
0.00357694
0.00354708
0.00351716
0.00348709
0.00345669
0.00342555
0.00339289
0.00335801
1.37212e-05
0.000105248
0.000219478
0.000314599
0.000388935
0.00044691
0.000493079
0.000531209
0.000564232
0.000594353
0.000623189
0.000651888
0.000681239
0.000711766
0.000743798
0.000777526
0.000813042
0.00085037
0.000889484
0.000930325
0.000972812
0.00101684
0.00106231
0.0011091
0.0011571
0.00120618
0.00125624
0.00130716
0.00135885
0.0014112
0.00146413
0.00151754
0.00157137
0.00162554
0.00168
0.00173468
0.00178952
0.0018445
0.00189955
0.00195465
0.00200976
0.00206485
0.00211989
0.00217486
0.00222972
0.00228446
0.00233906
0.00239349
0.00244774
0.00250177
0.00255558
0.00260914
0.00266243
0.00271543
0.00276811
0.00282046
0.00287244
0.00292404
0.00297524
0.003026
0.0030763
0.00312613
0.00317544
0.00322423
0.00327246
0.00332011
0.00336716
0.0034136
0.00345939
0.00350453
0.00354898
0.00359274
0.00363575
0.00367806
0.00371969
0.00376064
0.00380095
0.00384059
0.00387957
0.00391788
0.00395551
0.00399246
0.00402871
0.00406424
0.00409905
0.00413312
0.00416644
0.004199
0.00423079
0.00426179
0.004292
0.00432141
0.00434999
0.00437776
0.00440469
0.00443078
0.00445602
0.0044804
0.00450391
0.00452654
0.00454829
0.00456916
0.00458913
0.00460821
0.00462638
0.00464365
0.00466
0.00467544
0.00468995
0.00470353
0.00471618
0.00472789
0.00473868
0.00474854
0.00475744
0.0047654
0.00477241
0.00477847
0.00478361
0.00478779
0.00479101
0.00479327
0.0047946
0.00479498
0.00479442
0.00479292
0.00479048
0.00478712
0.00478283
0.00477762
0.00477151
0.0047645
0.00475659
0.00474781
0.00473816
0.00472764
0.00471628
0.00470408
0.00469106
0.00467721
0.00466255
0.00464708
0.00463079
0.00461367
0.00459572
0.00457695
0.00455736
0.00453698
0.00451585
0.004494
0.00447145
0.00444825
0.00442443
0.0044
0.004375
0.00434946
0.0043234
0.00429686
0.00426984
0.0042424
0.00421454
0.00418629
0.00415769
0.00412876
0.00409953
0.00407003
0.00404028
0.00401032
0.00398018
0.0039499
0.0039195
0.00388903
0.00385851
0.00382796
0.0037974
0.00376679
0.00373598
0.0037047
0.00367239
0.00363863
1.41995e-05
0.000104428
0.000221919
0.000322485
0.000402679
0.000466306
0.000517712
0.000560606
0.000597923
0.000631904
0.000664216
0.000696064
0.000728298
0.000761492
0.000796017
0.000832096
0.000869845
0.000909303
0.000950458
0.000993258
0.00103763
0.00108347
0.00113069
0.00117918
0.00122882
0.00127951
0.00133113
0.00138358
0.00143677
0.0014906
0.00154498
0.00159983
0.00165509
0.00171067
0.00176653
0.0018226
0.00187884
0.0019352
0.00199163
0.00204811
0.0021046
0.00216107
0.00221749
0.00227385
0.00233011
0.00238625
0.00244226
0.00249812
0.0025538
0.00260929
0.00266457
0.00271962
0.00277441
0.00282893
0.00288316
0.00293707
0.00299063
0.00304384
0.00309665
0.00314905
0.00320101
0.0032525
0.0033035
0.00335398
0.00340391
0.00345328
0.00350206
0.00355022
0.00359775
0.00364463
0.00369084
0.00373633
0.00378114
0.00382527
0.00386875
0.00391159
0.00395378
0.00399532
0.00403621
0.00407643
0.00411598
0.00415485
0.00419301
0.00423046
0.00426719
0.00430316
0.00433838
0.00437283
0.0044065
0.00443937
0.00447143
0.00450267
0.00453309
0.00456266
0.00459138
0.00461925
0.00464624
0.00467235
0.00469758
0.0047219
0.00474532
0.00476782
0.00478941
0.00481007
0.00482981
0.00484862
0.00486649
0.00488341
0.00489937
0.00491437
0.00492841
0.0049415
0.00495362
0.00496479
0.00497497
0.00498417
0.00499238
0.00499962
0.00500588
0.00501117
0.00501546
0.00501878
0.00502112
0.00502248
0.00502287
0.00502228
0.00502073
0.00501822
0.00501475
0.00501033
0.00500497
0.00499867
0.00499145
0.00498332
0.00497428
0.00496435
0.00495353
0.00494184
0.00492929
0.00491588
0.00490163
0.00488654
0.00487062
0.00485385
0.00483626
0.00481783
0.00479859
0.00477855
0.00475774
0.00473619
0.00471392
0.00469096
0.00466734
0.0046431
0.00461824
0.00459281
0.00456682
0.0045403
0.00451329
0.0044858
0.00445787
0.00442951
0.00440076
0.00437165
0.0043422
0.00431245
0.00428243
0.00425216
0.0042217
0.00419107
0.00416032
0.00412948
0.00409861
0.00406774
0.0040369
0.00400609
0.00397521
0.00394406
0.00391226
0.00387954
1.45524e-05
0.00010244
0.000221479
0.000326138
0.000411266
0.00047993
0.000536156
0.000583516
0.000624894
0.000662526
0.000698098
0.000732852
0.000767678
0.000803192
0.000839807
0.000877777
0.000917246
0.000958278
0.00100087
0.001045
0.00109059
0.00113757
0.00118583
0.00123528
0.00128582
0.00133734
0.00138973
0.00144291
0.00149679
0.00155126
0.00160625
0.00166169
0.00171751
0.00177364
0.00183003
0.00188662
0.00194338
0.00200026
0.00205722
0.00211424
0.00217128
0.00222833
0.00228535
0.00234232
0.00239924
0.00245607
0.00251281
0.00256942
0.00262591
0.00268225
0.00273841
0.00279439
0.00285016
0.00290571
0.002961
0.00301602
0.00307074
0.00312514
0.00317919
0.00323286
0.00328612
0.00333895
0.00339131
0.00344318
0.00349454
0.00354534
0.00359557
0.0036452
0.00369421
0.00374258
0.00379029
0.00383734
0.00388374
0.00392952
0.00397468
0.00401922
0.00406313
0.00410642
0.00414906
0.00419105
0.00423238
0.00427302
0.00431297
0.00435221
0.00439071
0.00442847
0.00446547
0.00450169
0.00453712
0.00457175
0.00460556
0.00463854
0.00467068
0.00470197
0.00473239
0.00476194
0.00479061
0.00481839
0.00484525
0.00487119
0.00489621
0.00492029
0.00494343
0.00496563
0.00498689
0.0050072
0.00502656
0.00504493
0.00506231
0.00507872
0.00509414
0.00510857
0.00512202
0.00513448
0.00514593
0.00515638
0.00516583
0.00517427
0.00518171
0.00518815
0.00519357
0.005198
0.00520142
0.00520383
0.00520525
0.00520567
0.0052051
0.00520355
0.00520101
0.00519749
0.00519301
0.00518757
0.00518117
0.00517383
0.00516556
0.00515637
0.00514627
0.00513526
0.00512337
0.0051106
0.00509696
0.00508246
0.0050671
0.00505089
0.00503384
0.00501596
0.00499725
0.00497775
0.00495745
0.0049364
0.00491461
0.00489211
0.00486892
0.00484507
0.00482059
0.0047955
0.00476983
0.00474359
0.00471683
0.00468956
0.00466181
0.0046336
0.00460498
0.00457595
0.00454656
0.00451684
0.00448682
0.00445653
0.00442602
0.00439533
0.0043645
0.00433359
0.00430265
0.00427173
0.00424087
0.0042101
0.00417937
0.00414854
0.00411733
0.00408554
1.47942e-05
9.95847e-05
0.00021868
0.000326127
0.000415222
0.000488225
0.000548757
0.000600187
0.0006453
0.000686291
0.000724839
0.0007622
0.000799291
0.00083676
0.000875053
0.000914457
0.000955144
0.000997201
0.00104065
0.00108548
0.00113163
0.00117905
0.00122763
0.0012773
0.00132796
0.00137951
0.00143187
0.00148494
0.00153865
0.0015929
0.00164764
0.00170279
0.00175829
0.0018141
0.00187016
0.00192643
0.00198287
0.00203946
0.00209616
0.00215296
0.00220982
0.00226673
0.00232368
0.00238064
0.00243761
0.00249456
0.00255148
0.00260836
0.00266518
0.00272192
0.00277857
0.0028351
0.0028915
0.00294774
0.0030038
0.00305966
0.00311527
0.00317063
0.00322569
0.00328042
0.00333479
0.00338877
0.00344233
0.00349543
0.00354804
0.00360012
0.00365166
0.00370261
0.00375296
0.00380268
0.00385179
0.0039003
0.00394822