/*--------------------------------*- C++ -*----------------------------------*\
| =========                 |                                                 |
| \\      /  F ield         | OpenFOAM: The Open Source CFD Toolbox           |
|  \\    /   O peration     | Version:  2412                                  |
|   \\  /    A nd           | Website:  www.openfoam.com                      |
|    \\/     M anipulation  |                                                 |
\*---------------------------------------------------------------------------*/
FoamFile
{
    version     2.0;
    format      ascii;
    arch        "LSB;label=32;scalar=64";
    class       volScalarField;
    location    "0.29";
    object      p;
}
// * * * * * * * * * * * * * * * * * * * * * * * * * * * * * * * * * * * * * //

dimensions      [0 2 -2 0 0 0 0];

internalField   nonuniform List<scalar> 
12225
(
-10.3275
-9.73516
-9.07245
-8.51602
-8.00697
-7.55054
-7.15199
-6.801
-6.48866
-6.20939
-5.95829
-5.73085
-5.52324
-5.33212
-5.15442
-4.98664
-4.82656
-4.65967
-10.7613
-9.79334
-9.10727
-8.557
-8.04727
-7.59079
-7.19161
-6.83921
-6.52523
-6.24427
-5.99144
-5.76227
-5.55296
-5.36015
-5.18078
-5.01146
-4.84936
-4.69123
-10.9417
-9.82762
-9.14901
-8.60787
-8.09767
-7.64206
-7.24302
-6.88956
-6.57405
-6.2913
-6.03652
-5.80534
-5.594
-5.39919
-5.21788
-5.0469
-4.88339
-4.72231
-10.9656
-9.84333
-9.17369
-8.64183
-8.13433
-7.68158
-7.2844
-6.9315
-6.61583
-6.33248
-6.07678
-5.84449
-5.63196
-5.43598
-5.25362
-5.08212
-4.91823
-4.76111
-10.8955
-9.83805
-9.17398
-8.65261
-8.15215
-7.70432
-7.3107
-6.96001
-6.64563
-6.36296
-6.10751
-5.87519
-5.6625
-5.4664
-5.28411
-5.11341
-4.95096
-4.80172
-10.7537
-9.80491
-9.15049
-8.64175
-8.15292
-7.71229
-7.32383
-6.97684
-6.66503
-6.38413
-6.1299
-5.89847
-5.68652
-5.49122
-5.31001
-5.14122
-4.98166
-4.84096
-10.551
-9.73847
-9.10425
-8.61006
-8.13734
-7.70669
-7.32513
-6.98333
-6.67534
-6.39727
-6.14519
-5.91551
-5.70512
-5.51145
-5.33222
-5.16623
-5.01053
-4.87811
-10.2981
-9.63613
-9.03606
-8.55811
-8.10532
-7.68789
-7.31518
-6.98016
-6.67731
-6.40313
-6.15416
-5.92708
-5.71908
-5.52785
-5.35142
-5.18897
-5.03777
-4.91321
-10.0056
-9.49759
-8.94708
-8.48753
-8.05739
-7.6565
-7.29474
-6.96808
-6.67171
-6.40256
-6.15765
-5.93405
-5.72926
-5.54125
-5.36835
-5.21005
-5.06378
-4.94654
-9.68489
-9.32484
-8.83866
-8.4012
-7.99524
-7.6138
-7.26513
-6.94831
-6.65971
-6.39669
-6.15678
-5.9375
-5.7367
-5.55264
-5.38391
-5.23023
-5.0891
-4.97854
-9.34798
-9.12266
-8.71244
-8.30263
-7.92182
-7.56205
-7.22844
-6.92276
-6.64299
-6.38707
-6.15302
-5.93883
-5.74269
-5.5632
-5.39915
-5.25041
-5.11441
-5.01008
-9.03597
-8.91687
-8.58269
-8.20445
-7.84757
-7.50915
-7.191
-6.89654
-6.62563
-6.37691
-6.14885
-5.93987
-5.74851
-5.57361
-5.41416
-5.27015
-5.13863
-5.0399
-8.74096
-8.70248
-8.44413
-8.10221
-7.76954
-7.45312
-7.15172
-6.86927
-6.6077
-6.36663
-6.14499
-5.94159
-5.75532
-5.58525
-5.43055
-5.2912
-5.16459
-5.06919
-8.43387
-8.45802
-8.27852
-7.98268
-7.67876
-7.38788
-7.10721
-6.83979
-6.58958
-6.35772
-6.1438
-5.94708
-5.76682
-5.60239
-5.45309
-5.31895
-5.19766
-5.10475
-8.13674
-8.20375
-8.0959
-7.85194
-7.58047
-7.31717
-7.06045
-6.81139
-6.57498
-6.35415
-6.14943
-5.96057
-5.78722
-5.62906
-5.48561
-5.35692
-5.24086
-5.15008
-7.8783
-7.97164
-7.92144
-7.72852
-7.49037
-7.25345
-7.02049
-6.79095
-6.56968
-6.36102
-6.16659
-5.98659
-5.82096
-5.66961
-5.53227
-5.40903
-5.29794
-5.2087
-7.69064
-7.79873
-7.79001
-7.64119
-7.43444
-7.22088
-7.00844
-6.7963
-6.58867
-6.39078
-6.20531
-6.03299
-5.87396
-5.72834
-5.5959
-5.47666
-5.36898
-5.27887
-7.61402
-7.72634
-7.73885
-7.61721
-7.43224
-7.23531
-7.03748
-6.83824
-6.64113
-6.45162
-6.27296
-6.10622
-5.95158
-5.80907
-5.67859
-5.55992
-5.45204
-5.35625
-7.71332
-7.82035
-7.82669
-7.70003
-7.51181
-7.31307
-7.11443
-6.91518
-6.71874
-6.53031
-6.35294
-6.18743
-6.03378
-5.89179
-5.76113
-5.6411
-5.53144
-5.42901
-7.98953
-8.08395
-8.05053
-7.87896
-7.65739
-7.43468
-7.21629
-7.00094
-6.79259
-6.59578
-6.41239
-6.24245
-6.08552
-5.941
-5.80822
-5.68607
-5.57429
-5.46725
-8.38291
-8.44102
-8.33864
-8.10421
-7.83988
-7.58492
-7.3388
-7.10101
-6.87593
-6.66666
-6.47365
-6.29621
-6.13346
-5.98449
-5.84829
-5.72364
-5.61012
-5.50176
-8.88329
-8.86302
-8.65482
-8.34503
-8.03299
-7.739
-7.45932
-7.19582
-6.95199
-6.72861
-6.52466
-6.33877
-6.16957
-6.01566
-5.87569
-5.74826
-5.63257
-5.52294
-9.44731
-9.29173
-8.94783
-8.56496
-8.20834
-7.87482
-7.56282
-7.27619
-7.01562
-6.77938
-6.56541
-6.37177
-6.19657
-6.03798
-5.89435
-5.7641
-5.64617
-5.53546
-10.0117
-9.66574
-9.18264
-8.74484
-8.3509
-7.98138
-7.64195
-7.33627
-7.06148
-6.81408
-6.59144
-6.39111
-6.21071
-6.04804
-5.9012
-5.76842
-5.64844
-5.53684
-10.5157
-9.94725
-9.3516
-8.87979
-8.4532
-8.05272
-7.69189
-7.37141
-7.08528
-6.8291
-6.59978
-6.39437
-6.21003
-6.0443
-5.89505
-5.7604
-5.63892
-5.52685
-10.9172
-10.1248
-9.45835
-8.96621
-8.51109
-8.08716
-7.71144
-7.38037
-7.08608
-6.82376
-6.58988
-6.38104
-6.1941
-6.0264
-5.87565
-5.73986
-5.61749
-5.50538
-11.1886
-10.2084
-9.50858
-9.00188
-8.52552
-8.08672
-7.70148
-7.36346
-7.064
-6.79796
-6.56145
-6.35075
-6.16252
-5.99394
-5.84262
-5.70647
-5.58391
-5.47231
-11.2958
-10.2237
-9.50923
-8.98616
-8.49777
-8.05142
-7.6606
-7.31877
-7.01698
-6.74958
-6.51238
-6.30148
-6.11339
-5.94516
-5.79433
-5.65878
-5.53682
-5.42642
-11.1631
-10.1939
-9.47421
-8.92853
-8.43522
-7.98655
-7.59338
-7.25071
-6.94925
-6.68275
-6.44678
-6.23733
-6.05078
-5.88413
-5.73485
-5.60081
-5.48024
-5.3714
-10.632
-10.1017
-9.43163
-8.87162
-8.37657
-7.92765
-7.53403
-7.19199
-6.89187
-6.62692
-6.39257
-6.18476
-5.99984
-5.83475
-5.68696
-5.55432
-5.43497
-5.32711
-4.71693
-4.7166
-4.7175
-4.71944
-4.72193
-4.72462
-4.72739
-4.73026
-4.73333
-4.73664
-4.74026
-4.7443
-4.74884
-4.75399
-4.75985
-4.76651
-4.77409
-4.78272
-4.79252
-4.80362
-4.81613
-4.83018
-4.84584
-4.86318
-4.88223
-4.90298
-4.92537
-4.94933
-4.97474
-5.00146
-5.02925
-5.05786
-5.08702
-5.11653
-5.14616
-5.17571
-5.20495
-5.2337
-5.26176
-5.28895
-5.3151
-5.34004
-5.36363
-5.38571
-5.40614
-5.4248
-5.44155
-5.45626
-5.46882
-5.47911
-5.487
-5.49239
-5.49517
-5.49522
-5.49246
-5.48676
-5.47804
-5.4662
-5.45116
-5.43283
-5.41112
-5.38597
-5.35731
-5.32506
-5.28918
-5.24962
-5.20633
-5.15928
-5.10844
-5.05379
-4.99533
-4.93309
-4.86715
-4.7975
-4.72405
-4.64664
-4.56521
-4.47991
-4.39082
-4.29801
-4.20153
-4.10143
-3.99776
-3.89059
-3.77996
-3.66596
-3.54866
-3.42813
-3.30446
-3.17774
-3.04806
-2.91552
-2.78022
-2.64227
-2.50179
-2.35887
-2.21364
-2.06622
-1.91673
-1.76531
-1.61207
-1.45715
-1.30068
-1.1428
-0.983649
-0.823362
-0.662079
-0.499945
-0.3371
-0.173689
-0.00985666
0.154254
0.318497
0.482729
0.646805
0.810584
0.973922
1.13668
1.29872
1.4599
1.62009
1.77915
1.93696
2.0934
2.24833
2.40164
2.55321
2.70294
2.85072
2.99645
3.14003
3.28137
3.42039
3.55701
3.69116
3.82277
3.95177
4.07813
4.20179
4.32271
4.44087
4.55625
4.66883
4.7786
4.88549
4.98943
5.09041
5.18846
5.2836
5.37587
5.46528
5.55188
5.63567
5.71669
5.79498
5.87057
5.94349
6.01377
6.08146
6.1466
6.20922
6.26937
6.32708
6.3824
6.43537
6.48603
6.53443
6.58063
6.62467
6.66664
6.70663
6.74476
6.78124
6.81635
6.85057
6.88475
6.92077
6.96178
7.0196
7.09469
-4.71674
-4.71696
-4.71793
-4.71964
-4.72159
-4.72342
-4.725
-4.72638
-4.72775
-4.72935
-4.73134
-4.73383
-4.73689
-4.74058
-4.74499
-4.75024
-4.75646
-4.76381
-4.77245
-4.78253
-4.79421
-4.80761
-4.82285
-4.83997
-4.859
-4.8799
-4.90258
-4.92692
-4.95275
-4.97987
-5.00804
-5.03701
-5.06653
-5.09636
-5.12629
-5.15608
-5.18554
-5.21448
-5.2427
-5.27004
-5.29634
-5.32144
-5.34521
-5.36748
-5.38815
-5.40707
-5.42412
-5.43918
-5.45213
-5.46285
-5.47123
-5.47715
-5.4805
-5.48118
-5.47908
-5.4741
-5.46614
-5.45511
-5.44092
-5.42347
-5.4027
-5.37852
-5.35086
-5.31967
-5.28488
-5.24645
-5.20433
-5.15848
-5.10887
-5.05548
-4.99827
-4.93723
-4.87231
-4.80346
-4.73058
-4.65381
-4.57341
-4.48929
-4.40145
-4.30991
-4.21471
-4.11589
-4.0135
-3.90759
-3.79822
-3.68547
-3.56939
-3.45008
-3.32761
-3.20207
-3.07355
-2.94215
-2.80797
-2.67111
-2.53169
-2.38981
-2.24559
-2.09915
-1.95062
-1.80011
-1.64776
-1.4937
-1.33805
-1.18096
-1.02256
-0.862989
-0.702387
-0.540895
-0.378656
-0.215812
-0.0525075
0.111114
0.274908
0.43873
0.602438
0.765888
0.928939
1.09145
1.25328
1.4143
1.57436
1.73334
1.89111
2.04754
2.2025
2.35589
2.50758
2.65746
2.80543
2.95138
3.09522
3.23686
3.37621
3.51319
3.64773
3.77976
3.90922
4.03606
4.16023
4.28169
4.40042
4.51639
4.62959
4.73998
4.8475
4.95209
5.05376
5.15251
5.24837
5.34136
5.4315
5.51882
5.60334
5.68509
5.76411
5.84042
5.91406
5.98506
6.05346
6.1193
6.18261
6.24344
6.30183
6.35781
6.41143
6.46273
6.51177
6.55859
6.60325
6.64585
6.68647
6.72526
6.76243
6.7983
6.83339
6.86857
6.90573
6.94701
7.00302
7.06923
-4.7111
-4.71273
-4.71486
-4.71698
-4.71869
-4.71987
-4.72065
-4.72123
-4.72186
-4.72273
-4.72399
-4.72576
-4.72816
-4.73131
-4.73535
-4.74043
-4.74669
-4.75431
-4.76341
-4.77413
-4.78658
-4.80082
-4.81688
-4.83476
-4.8544
-4.87574
-4.89864
-4.92295
-4.94853
-4.97516
-5.00265
-5.0308
-5.05939
-5.08822
-5.1171
-5.14585
-5.17427
-5.20221
-5.22949
-5.25595
-5.28145
-5.30584
-5.32898
-5.35073
-5.37096
-5.38954
-5.40636
-5.42127
-5.43417
-5.44492
-5.45343
-5.45956
-5.46321
-5.46427
-5.46263
-5.45819
-5.45084
-5.44049
-5.42705
-5.41042
-5.39053
-5.36729
-5.34063
-5.31049
-5.27681
-5.23953
-5.1986
-5.15398
-5.10563
-5.05353
-4.99765
-4.93796
-4.87442
-4.80699
-4.73573
-4.66061
-4.58174
-4.49913
-4.4128
-4.32279
-4.22912
-4.13183
-4.03097
-3.92658
-3.81874
-3.7075
-3.59294
-3.47512
-3.35412
-3.23004
-3.10297
-2.97299
-2.8402
-2.70472
-2.56664
-2.42609
-2.28316
-2.13798
-1.99067
-1.84136
-1.69016
-1.53722
-1.38266
-1.22661
-1.06921
-0.910601
-0.750917
-0.590299
-0.428889
-0.266829
-0.104261
0.0586704
0.221823
0.385052
0.548217
0.711173
0.873781
1.0359
1.19739
1.35811
1.51794
1.67673
1.83437
1.99071
2.14564
2.29904
2.4508
2.6008
2.74893
2.89509
3.03919
3.18113
3.32083
3.45821
3.59319
3.7257
3.85568
3.98308
4.10784
4.22992
4.3493
4.46592
4.57978
4.69084
4.79909
4.90449
5.00703
5.10669
5.20348
5.29741
5.38849
5.47676
5.56222
5.64492
5.72488
5.80213
5.8767
5.94862
6.01794
6.08467
6.14888
6.21058
6.26983
6.32665
6.3811
6.43322
6.48306
6.53067
6.57613
6.61951
6.66092
6.70052
6.73853
6.77529
6.81136
6.84755
6.88572
6.92714
6.98103
7.03426
-4.69979
-4.70344
-4.70736
-4.71065
-4.71293
-4.71437
-4.71532
-4.71605
-4.71682
-4.71784
-4.71931
-4.72137
-4.72417
-4.72786
-4.73258
-4.73847
-4.74567
-4.7543
-4.76448
-4.77627
-4.78972
-4.80486
-4.82167
-4.8401
-4.86009
-4.88154
-4.90433
-4.92832
-4.95338
-4.97932
-5.006
-5.03323
-5.06084
-5.08865
-5.11651
-5.14424
-5.17167
-5.19866
-5.22505
-5.25069
-5.27544
-5.29916
-5.3217
-5.34294
-5.36275
-5.38099
-5.39754
-5.41227
-5.42506
-5.43579
-5.44433
-5.45058
-5.45442
-5.45574
-5.45441
-5.45035
-5.44344
-5.43359
-5.42069
-5.40467
-5.38543
-5.36289
-5.33698
-5.30762
-5.27476
-5.23833
-5.19829
-5.15459
-5.10718
-5.05604
-5.00112
-4.94242
-4.87989
-4.81353
-4.74337
-4.66943
-4.59174
-4.51033
-4.4252
-4.33639
-4.24393
-4.14785
-4.04821
-3.94505
-3.83842
-3.72839
-3.61503
-3.49841
-3.37861
-3.25571
-3.1298
-3.00098
-2.86933
-2.73497
-2.59799
-2.45851
-2.31665
-2.1725
-2.02621
-1.87788
-1.72764
-1.57562
-1.42196
-1.26678
-1.11022
-0.952412
-0.793497
-0.633613
-0.472901
-0.311502
-0.149558
0.012788
0.175394
0.338118
0.500816
0.663348
0.825572
0.987349
1.14854
1.30901
1.46862
1.62724
1.78475
1.941
2.09589
2.24929
2.40109
2.55117
2.69943
2.84575
2.99006
3.13225
3.27223
3.40992
3.54526
3.67816
3.80856
3.93641
4.06166
4.18427
4.30419
4.42139
4.53583
4.64747
4.7563
4.86233
4.96553
5.06588
5.16339
5.25806
5.34989
5.43892
5.52515
5.60862
5.68935
5.76736
5.8427
5.91539
5.98546
6.05295
6.11789
6.18033
6.2403
6.29784
6.353
6.40581
6.45633
6.50462
6.55074
6.59478
6.63685
6.67711
6.71578
6.75321
6.78991
6.82662
6.8649
6.90521
6.95484
6.99576
-4.6853
-4.69106
-4.69749
-4.70266
-4.70615
-4.70851
-4.71023
-4.71169
-4.71319
-4.71498
-4.71727
-4.72024
-4.72405
-4.72884
-4.73474
-4.74187
-4.75034
-4.76024
-4.77162
-4.78454
-4.799
-4.81499
-4.83247
-4.8514
-4.87168
-4.89322
-4.91592
-4.93965
-4.96428
-4.98967
-5.01567
-5.04214
-5.06893
-5.09588
-5.12285
-5.14969
-5.17625
-5.2024
-5.22797
-5.25285
-5.27689
-5.29995
-5.3219
-5.34261
-5.36196
-5.3798
-5.39602
-5.41049
-5.42308
-5.43367
-5.44215
-5.44838
-5.45225
-5.45366
-5.45248
-5.44861
-5.44194
-5.43237
-5.41981
-5.40415
-5.38532
-5.36322
-5.33779
-5.30894
-5.27663
-5.24077
-5.20132
-5.15824
-5.11148
-5.061
-5.00678
-4.94879
-4.88702
-4.82145
-4.75211
-4.67901
-4.60216
-4.52158
-4.4373
-4.34935
-4.25774
-4.16253
-4.06375
-3.96146
-3.8557
-3.74654
-3.63404
-3.51828
-3.39934
-3.27729
-3.15223
-3.02424
-2.89342
-2.75987
-2.6237
-2.48501
-2.34392
-2.20054
-2.05499
-1.90738
-1.75786
-1.60653
-1.45353
-1.299
-1.14306
-0.985857
-0.827519
-0.668186
-0.507999
-0.347099
-0.185626
-0.0237227
0.138469
0.300807
0.463151
0.625357
0.787287
0.9488
1.10976
1.27003
1.42947
1.58795
1.74535
1.90154
2.05639
2.20978
2.3616
2.51173
2.66007
2.80652
2.95097
3.09334
3.23352
3.37145
3.50705
3.64024
3.77096
3.89915
4.02477
4.14777
4.26809
4.38571
4.50057
4.61263
4.72188
4.82833
4.93198
5.03281
5.13081
5.22599
5.31836
5.40793
5.49471
5.57874
5.66003
5.73861
5.81451
5.88776
5.9584
6.02646
6.09197
6.15496
6.21548
6.27357
6.32926
6.38261
6.43365
6.48245
6.52907
6.5736
6.61616
6.65688
6.69599
6.73378
6.77074
6.80742
6.84505
6.88337
6.92822
6.95868
-4.67136
-4.67903
-4.68794
-4.6951
-4.70011
-4.70372
-4.70658
-4.70914
-4.71174
-4.71466
-4.71813
-4.72234
-4.72745
-4.73358
-4.74086
-4.74936
-4.75917
-4.77035
-4.78293
-4.79691
-4.81229
-4.82905
-4.84714
-4.86648
-4.88701
-4.90862
-4.93124
-4.95473
-4.97899
-5.0039
-5.02933
-5.05516
-5.08124
-5.10745
-5.13366
-5.15974
-5.18554
-5.21094
-5.2358
-5.26
-5.2834
-5.30587
-5.32728
-5.3475
-5.3664
-5.38386
-5.39974
-5.41392
-5.42628
-5.43669
-5.44502
-5.45116
-5.45498
-5.45638
-5.45523
-5.45142
-5.44486
-5.43543
-5.42303
-5.40757
-5.38897
-5.36713
-5.34198
-5.31344
-5.28145
-5.24595
-5.20688
-5.16419
-5.11785
-5.06781
-5.01405
-4.95655
-4.89528
-4.83026
-4.76148
-4.68894
-4.61266
-4.53266
-4.44897
-4.36159
-4.27058
-4.17596
-4.07778
-3.97609
-3.87094
-3.76238
-3.6505
-3.53535
-3.41701
-3.29557
-3.17111
-3.04372
-2.9135
-2.78055
-2.64496
-2.50685
-2.36633
-2.22351
-2.07851
-1.93145
-1.78246
-1.63165
-1.47916
-1.32511
-1.16965
-1.0129
-0.855004
-0.696095
-0.536314
-0.375801
-0.214695
-0.0531396
0.108726
0.270759
0.432818
0.594763
0.756454
0.91775
1.07852
1.23861
1.39791
1.55628
1.71358
1.86969
2.02449
2.17786
2.32967
2.47983
2.62822
2.77474
2.91928
3.06176
3.20209
3.34018
3.47596
3.60936
3.74031
3.86875
3.99463
4.11789
4.2385
4.3564
4.47156
4.58393
4.69349
4.80027
4.90424
5.00542
5.10379
5.19935
5.2921
5.38207
5.46927
5.55372
5.63544
5.71445
5.79079
5.86448
5.93556
6.00406
6.07
6.13344
6.19439
6.25291
6.30903
6.36279
6.41424
6.46344
6.51045
6.55536
6.59825
6.63929
6.67865
6.71659
6.75351
6.78979
6.82632
6.8623
6.90271
6.92441
-4.66132
-4.6702
-4.68097
-4.68991
-4.69641
-4.70132
-4.70542
-4.70919
-4.71301
-4.71718
-4.72192
-4.72744
-4.73387
-4.74133
-4.74993
-4.75972
-4.77076
-4.78308
-4.79669
-4.81159
-4.82776
-4.84516
-4.86373
-4.88341
-4.90413
-4.92581
-4.94835
-4.97166
-4.99564
-5.02017
-5.04515
-5.07047
-5.096
-5.12162
-5.14723
-5.17269
-5.19788
-5.22268
-5.24696
-5.2706
-5.29347
-5.31544
-5.33639
-5.35618
-5.37469
-5.39179
-5.40736
-5.42127
-5.43338
-5.44358
-5.45174
-5.45774
-5.46145
-5.46276
-5.46156
-5.45773
-5.45116
-5.44175
-5.4294
-5.41401
-5.39549
-5.37375
-5.34872
-5.32033
-5.28849
-5.25317
-5.21429
-5.17181
-5.1257
-5.07591
-5.02241
-4.96519
-4.90424
-4.83954
-4.77109
-4.6989
-4.62298
-4.54335
-4.46002
-4.37302
-4.28239
-4.18816
-4.09037
-3.98907
-3.88432
-3.77618
-3.6647
-3.54997
-3.43205
-3.31104
-3.187
-3.06004
-2.93024
-2.79772
-2.66256
-2.52487
-2.38477
-2.24237
-2.09779
-1.95113
-1.80254
-1.65212
-1.50002
-1.34635
-1.19126
-1.03487
-0.877321
-0.718749
-0.559293
-0.399091
-0.238285
-0.0770142
0.0845804
0.246358
0.408178
0.569899
0.731382
0.892488
1.05308
1.21302
1.37218
1.53042
1.68762
1.84365
1.99838
2.1517
2.30349
2.45364
2.60203
2.74857
2.89316
3.03571
3.17612
3.31431
3.45021
3.58374
3.71483
3.84344
3.96949
4.09294
4.21374
4.33184
4.44721
4.5598
4.6696
4.77662
4.88084
4.98228
5.08092
5.17676
5.26982
5.3601
5.44762
5.53239
5.61444
5.6938
5.77048
5.84452
5.91595
5.98479
6.05109
6.11488
6.17619
6.23505
6.29151
6.34561
6.39739
6.44691
6.49422
6.5394
6.58254
6.62377
6.66324
6.70117
6.73783
6.77347
6.80867
6.84223
6.87868
6.89304
-4.65669
-4.66607
-4.6779
-4.68811
-4.69583
-4.70191
-4.70715
-4.71207
-4.71705
-4.72238
-4.7283
-4.735
-4.74262
-4.75125
-4.76097
-4.77185
-4.78391
-4.79717
-4.81162
-4.82726
-4.84405
-4.86195
-4.88091
-4.90087
-4.92175
-4.94349
-4.96599
-4.98918
-5.01295
-5.03721
-5.06187
-5.08681
-5.11193
-5.13712
-5.16228
-5.18728
-5.21201
-5.23635
-5.26018
-5.28338
-5.30584
-5.32741
-5.34798
-5.36742
-5.38561
-5.40241
-5.4177
-5.43134
-5.44323
-5.45321
-5.46118
-5.46701
-5.47058
-5.47176
-5.47044
-5.4665
-5.45985
-5.45036
-5.43795
-5.42251
-5.40396
-5.3822
-5.35716
-5.32877
-5.29695
-5.26165
-5.22282
-5.1804
-5.13435
-5.08465
-5.03126
-4.97416
-4.91334
-4.84879
-4.78051
-4.70849
-4.63276
-4.55331
-4.47018
-4.38339
-4.29297
-4.19896
-4.1014
-4.00034
-3.89583
-3.78794
-3.67672
-3.56226
-3.44461
-3.32388
-3.20013
-3.07346
-2.94396
-2.81173
-2.67688
-2.5395
-2.39971
-2.25761
-2.11333
-1.96699
-1.8187
-1.66859
-1.51678
-1.36342
-1.20862
-1.05251
-0.895245
-0.736947
-0.577757
-0.417815
-0.257259
-0.096229
0.0651338
0.22669
0.3883
0.549822
0.711117
0.872046
1.03247
1.19227
1.35129
1.5094
1.66649
1.82242
1.97707
2.13031
2.28204
2.43215
2.58052
2.72704
2.87164
3.0142
3.15464
3.29287
3.42883
3.56243
3.69361
3.82231
3.94846
4.07203
4.19295
4.31119
4.4267
4.53944
4.64941
4.7566
4.86101
4.96264
5.06148
5.15754
5.25082
5.34133
5.42909
5.51411
5.59642
5.67604
5.75299
5.82731
5.89901
5.96814
6.03472
6.09879
6.16038
6.21953
6.27627
6.33064
6.38268
6.43245
6.47999
6.52537
6.56867
6.60999
6.64946
6.68723
6.72349
6.75833
6.79209
6.82326
6.85621
6.86444
-4.65775
-4.66702
-4.67911
-4.68997
-4.69851
-4.70548
-4.71164
-4.71751
-4.72346
-4.72977
-4.73668
-4.74435
-4.75292
-4.76249
-4.77311
-4.78483
-4.79767
-4.81165
-4.82674
-4.84294
-4.8602
-4.87848
-4.89774
-4.91791
-4.93893
-4.96072
-4.98322
-5.00633
-5.02997
-5.05406
-5.07849
-5.10318
-5.12803
-5.15292
-5.17777
-5.20244
-5.22685
-5.25087
-5.27438
-5.29727
-5.31941
-5.34068
-5.36097
-5.38014
-5.39806
-5.41461
-5.42965
-5.44308
-5.45474
-5.46452
-5.47229
-5.47792
-5.4813
-5.48231
-5.48082
-5.47672
-5.46991
-5.46027
-5.44771
-5.43213
-5.41344
-5.39155
-5.3664
-5.33789
-5.30597
-5.27058
-5.23166
-5.18917
-5.14307
-5.09332
-5.0399
-4.9828
-4.92198
-4.85745
-4.78919
-4.71721
-4.64152
-4.56213
-4.47906
-4.39234
-4.30201
-4.20809
-4.11063
-4.00969
-3.9053
-3.79755
-3.68648
-3.57217
-3.45469
-3.33413
-3.21057
-3.08409
-2.95479
-2.82277
-2.68814
-2.55098
-2.41141
-2.26955
-2.1255
-1.9794
-1.83134
-1.68147
-1.52991
-1.37678
-1.22222
-1.06636
-0.909324
-0.751258
-0.592296
-0.432577
-0.272239
-0.111423
0.0497317
0.211087
0.372503
0.533838
0.694955
0.855714
1.01598
1.17561
1.33449
1.49247
1.64943
1.80524
1.95979
2.11294
2.26459
2.41462
2.56293
2.70941
2.85397
2.9965
3.13692
3.27516
3.41112
3.54474
3.67595
3.80468
3.93089
4.05451
4.1755
4.29381
4.4094
4.52224
4.63232
4.73963
4.84417
4.94592
5.04491
5.14112
5.23456
5.32524
5.41318
5.49839
5.5809
5.66072
5.73788
5.81241
5.88433
5.95368
6.02049
6.08479
6.14661
6.20599
6.26295
6.31754
6.36979
6.41975
6.46746
6.51298
6.55637
6.59771
6.63708
6.67459
6.71032
6.74426
6.77654
6.80544
6.83531
6.83842
-4.66387
-4.67253
-4.68422
-4.69513
-4.70404
-4.71155
-4.71834
-4.7249
-4.73157
-4.73863
-4.74628
-4.75469
-4.76397
-4.77422
-4.78549
-4.79782
-4.81122
-4.8257
-4.84125
-4.85784
-4.87543
-4.89399
-4.91347
-4.9338
-4.95492
-4.97677
-4.99928
-5.02236
-5.04594
-5.06993
-5.09424
-5.11879
-5.14347
-5.16818
-5.19284
-5.21732
-5.24152
-5.26532
-5.28863
-5.3113
-5.33323
-5.3543
-5.37437
-5.39333
-5.41104
-5.42739
-5.44223
-5.45544
-5.46689
-5.47646
-5.48402
-5.48944
-5.4926
-5.49339
-5.49168
-5.48736
-5.48032
-5.47046
-5.45768
-5.44188
-5.42297
-5.40087
-5.37549
-5.34678
-5.31466
-5.27908
-5.23998
-5.19732
-5.15106
-5.10117
-5.04763
-4.9904
-4.92949
-4.86487
-4.79653
-4.72448
-4.64873
-4.56929
-4.48619
-4.39945
-4.3091
-4.21518
-4.11774
-4.01682
-3.91248
-3.80477
-3.69377
-3.57954
-3.46216
-3.3417
-3.21826
-3.09191
-2.96275
-2.83088
-2.6964
-2.55941
-2.42002
-2.27834
-2.13448
-1.98857
-1.84072
-1.69105
-1.53969
-1.38677
-1.23242
-1.07676
-0.919938
-0.762081
-0.603328
-0.443816
-0.283683
-0.123069
0.0378881
0.199047
0.36027
0.521417
0.68235
0.842932
1.00303
1.1625
1.32122
1.47905
1.63587
1.79154
1.94596
2.09899
2.25053
2.40046
2.54868
2.69507
2.83955
2.98202
3.12239
3.26057
3.3965
3.53009
3.66128
3.79
3.9162
4.03983
4.16083
4.27916
4.39479
4.50768
4.61782
4.72519
4.8298
4.93165
5.03072
5.12703
5.22058
5.31138
5.39945
5.4848
5.56745
5.64742
5.72474
5.79944
5.87154
5.94107
6.00806
6.07254
6.13454
6.19411
6.25125
6.30602
6.35844
6.40854
6.45638
6.50198
6.5454
6.58669
6.6259
6.66306
6.69821
6.73119
6.762
6.78876
6.81593
6.81477
-4.67387
-4.6816
-4.69236
-4.7028
-4.71165
-4.71934
-4.72646
-4.73343
-4.74057
-4.74812
-4.75627
-4.76517
-4.77493
-4.78564
-4.79734
-4.81006
-4.82383
-4.83864
-4.85448
-4.87132
-4.88913
-4.90787
-4.92749
-4.94793
-4.96914
-4.99105
-5.01358
-5.03667
-5.06024
-5.0842
-5.10847
-5.13295
-5.15756
-5.18219
-5.20675
-5.23113
-5.25523
-5.27892
-5.3021
-5.32465
-5.34644
-5.36736
-5.38728
-5.40608
-5.42362
-5.43978
-5.45442
-5.46743
-5.47867
-5.48802
-5.49534
-5.50052
-5.50342
-5.50394
-5.50196
-5.49737
-5.49004
-5.4799
-5.46682
-5.45072
-5.43152
-5.40913
-5.38347
-5.35447
-5.32207
-5.28622
-5.24686
-5.20396
-5.15747
-5.10736
-5.05362
-4.99621
-4.93512
-4.87033
-4.80183
-4.72964
-4.65376
-4.57421
-4.491
-4.40417
-4.31375
-4.21978
-4.12229
-4.02135
-3.917
-3.8093
-3.69832
-3.58412
-3.46679
-3.3464
-3.22304
-3.09678
-2.96773
-2.83598
-2.70163
-2.56478
-2.42554
-2.28402
-2.14033
-1.99459
-1.84692
-1.69744
-1.54627
-1.39354
-1.23939
-1.08394
-0.927321
-0.769673
-0.611129
-0.451826
-0.291902
-0.131494
0.0292575
0.190213
0.351234
0.512182
0.672921
0.833312
0.993219
1.15251
1.31105
1.4687
1.62535
1.78087
1.93513
2.08801
2.23941
2.3892
2.53728
2.68356
2.82792
2.97028
3.11055
3.24865
3.38449
3.51801
3.64913
3.7778
3.90395
4.02754
4.14851
4.26682
4.38243
4.49533
4.60548
4.71288
4.81752
4.9194
5.01852
5.11489
5.2085
5.29938
5.38753
5.47298
5.55573
5.63582
5.71326
5.78808
5.86031
5.92998
5.99712
6.06175
6.12391
6.18362
6.24092
6.29583
6.34838
6.3986
6.44652
6.49217
6.53557
6.57676
6.61575
6.65252
6.68703
6.71903
6.74842
6.77321
6.79799
6.79329
-4.68635
-4.69292
-4.7024
-4.71195
-4.72037
-4.72792
-4.73508
-4.7422
-4.74957
-4.75738
-4.76581
-4.77499
-4.78503
-4.796
-4.80794
-4.82089
-4.83486
-4.84985
-4.86585
-4.88283
-4.90077
-4.91961
-4.93932
-4.95984
-4.98111
-5.00307
-5.02565
-5.04877
-5.07236
-5.09634
-5.12062
-5.1451
-5.16971
-5.19433
-5.21887
-5.24322
-5.26727
-5.29091
-5.31402
-5.33649
-5.35819
-5.379
-5.39879
-5.41744
-5.43481
-5.45079
-5.46523
-5.47802
-5.48902
-5.4981
-5.50515
-5.51004
-5.51264
-5.51285
-5.51054
-5.5056
-5.49794
-5.48744
-5.47401
-5.45756
-5.438
-5.41525
-5.38924
-5.3599
-5.32718
-5.291
-5.25134
-5.20814
-5.16137
-5.11101
-5.05702
-4.99937
-4.93805
-4.87305
-4.80436
-4.73198
-4.65593
-4.57622
-4.49288
-4.40593
-4.31541
-4.22135
-4.1238
-4.02281
-3.91843
-3.81072
-3.69974
-3.58557
-3.46828
-3.34795
-3.22465
-3.09849
-2.96954
-2.8379
-2.70368
-2.56697
-2.42788
-2.28652
-2.143
-1.99744
-1.84996
-1.70067
-1.5497
-1.39719
-1.24324
-1.088
-0.931604
-0.774177
-0.615856
-0.456777
-0.297077
-0.136895
0.0236321
0.184363
0.345161
0.505887
0.666404
0.826577
0.986268
1.14534
1.30367
1.46113
1.61757
1.77289
1.92696
2.07966
2.23087
2.38049
2.52841
2.67452
2.81873
2.96094
3.10107
3.23903
3.37475
3.50815
3.63916
3.76773
3.89379
4.01729
4.13818
4.25643
4.372
4.48485
4.59497
4.70235
4.80698
4.90886
5.008
5.10438
5.19803
5.28894
5.37714
5.46265
5.54547
5.62563
5.70316
5.77808
5.85042
5.9202
5.98745
6.0522
6.11448
6.17432
6.23174
6.28676
6.33942
6.38973
6.4377
6.48337
6.52673
6.56778
6.60651
6.64286
6.6767
6.70773
6.73576
6.75874
6.7814
6.77377
-4.69984
-4.70517
-4.71315
-4.72152
-4.72922
-4.73635
-4.74331
-4.75036
-4.75773
-4.76561
-4.77413
-4.78343
-4.79358
-4.80465
-4.81669
-4.82973
-4.84378
-4.85884
-4.8749
-4.89194
-4.90992
-4.92881
-4.94856
-4.96912
-4.99044
-5.01244
-5.03506
-5.05822
-5.08186
-5.10588
-5.13019
-5.15472
-5.17935
-5.20399
-5.22854
-5.25289
-5.27692
-5.30052
-5.32358
-5.34597
-5.36757
-5.38826
-5.4079
-5.42638
-5.44356
-5.45931
-5.47351
-5.48603
-5.49674
-5.50551
-5.51223
-5.51677
-5.51901
-5.51884
-5.51615
-5.51082
-5.50275
-5.49185
-5.47801
-5.46116
-5.4412
-5.41806
-5.39166
-5.36195
-5.32886
-5.29234
-5.25235
-5.20884
-5.16178
-5.11114
-5.05688
-4.99898
-4.93742
-4.87218
-4.80328
-4.73071
-4.65449
-4.57462
-4.49114
-4.40408
-4.31346
-4.21932
-4.12171
-4.02068
-3.91629
-3.80858
-3.69763
-3.5835
-3.46627
-3.34601
-3.22281
-3.09675
-2.96792
-2.83642
-2.70235
-2.5658
-2.42689
-2.28571
-2.14239
-1.99704
-1.84977
-1.7007
-1.54996
-1.39768
-1.24397
-1.08897
-0.932822
-0.775645
-0.617577
-0.458753
-0.29931
-0.139386
0.0208821
0.181354
0.341893
0.502362
0.662622
0.82254
0.981978
1.1408
1.29888
1.45609
1.6123
1.76738
1.92121
2.07368
2.22467
2.37407
2.52178
2.66768
2.81169
2.95371
3.09366
3.23144
3.36699
3.50023
3.63109
3.75951
3.88544
4.00881
4.12959
4.24773
4.3632
4.47597
4.58603
4.69335
4.79794
4.89978
4.99889
5.09526
5.1889
5.27982
5.36804
5.45357
5.53643
5.61664
5.69423
5.76922
5.84163
5.9115
5.97885
6.0437
6.10608
6.16603
6.22355
6.27867
6.33141
6.38178
6.42979
6.47545
6.51873
6.55963
6.59808
6.63398
6.66715
6.69724
6.72399
6.74532
6.76609
6.75607
-4.71303
-4.71711
-4.72349
-4.73051
-4.73726
-4.74378
-4.75033
-4.75712
-4.76434
-4.77212
-4.7806
-4.78986
-4.8
-4.81106
-4.8231
-4.83612
-4.85016
-4.8652
-4.88125
-4.89827
-4.91624
-4.93512
-4.95487
-4.97543
-4.99675
-5.01877
-5.04141
-5.06461
-5.08827
-5.11231
-5.13665
-5.16119
-5.18584
-5.21048
-5.23501
-5.25932
-5.2833
-5.30682
-5.32978
-5.35204
-5.37349
-5.39399
-5.41342
-5.43166
-5.44857
-5.46403
-5.47791
-5.49009
-5.50044
-5.50883
-5.51515
-5.51928
-5.5211
-5.52049
-5.51736
-5.51159
-5.50308
-5.49174
-5.47747
-5.46019
-5.43981
-5.41626
-5.38948
-5.35939
-5.32595
-5.28909
-5.24878
-5.20498
-5.15766
-5.10675
-5.05224
-4.99409
-4.93231
-4.86687
-4.79778
-4.72504
-4.64867
-4.56868
-4.4851
-4.39795
-4.30727
-4.2131
-4.11547
-4.01445
-3.91008
-3.80242
-3.69153
-3.57749
-3.46036
-3.34022
-3.21716
-3.09125
-2.9626
-2.83128
-2.6974
-2.56106
-2.42237
-2.28142
-2.13834
-1.99324
-1.84623
-1.69743
-1.54696
-1.39495
-1.24153
-1.08683
-0.930966
-0.774084
-0.616314
-0.457791
-0.298651
-0.139031
0.0209317
0.181099
0.341333
0.501497
0.661455
0.82107
0.980207
1.13873
1.29652
1.45344
1.60935
1.76415
1.9177
2.0699
2.22062
2.36975
2.5172
2.66285
2.80661
2.94839
3.08811
3.22567
3.361
3.49403
3.6247
3.75293
3.87867
4.00188
4.1225
4.2405
4.35583
4.46849
4.57844
4.68567
4.79017
4.89195
4.99099
5.08732
5.18092
5.27182
5.36003
5.44556
5.52843
5.60867
5.6863
5.76133
5.8338
5.90373
5.97116
6.03609
6.09856
6.15859
6.2162
6.2714
6.32421
6.37463
6.42267
6.4683
6.5115
6.55222
6.59038
6.62582
6.65834
6.68752
6.71308
6.73291
6.75199
6.74003
-4.72478
-4.72769
-4.73247
-4.73803
-4.74371
-4.74947
-4.75547
-4.76187
-4.76879
-4.77636
-4.78468
-4.79382
-4.80385
-4.81482
-4.82676
-4.8397
-4.85365
-4.8686
-4.88456
-4.90149
-4.91938
-4.93818
-4.95785
-4.97835
-4.99961
-5.02157
-5.04416
-5.0673
-5.09091
-5.11491
-5.13919
-5.16367
-5.18823
-5.21278
-5.23719
-5.26137
-5.28519
-5.30853
-5.33128
-5.35331
-5.37449
-5.3947
-5.41382
-5.43171
-5.44826
-5.46333
-5.47681
-5.48856
-5.49847
-5.50642
-5.51228
-5.51594
-5.51729
-5.51622
-5.51262
-5.50639
-5.49743
-5.48565
-5.47095
-5.45326
-5.43248
-5.40856
-5.38142
-5.351
-5.31724
-5.28011
-5.23954
-5.19551
-5.14795
-5.09682
-5.0421
-4.98376
-4.9218
-4.85622
-4.787
-4.71416
-4.63771
-4.55767
-4.47405
-4.38689
-4.29622
-4.20208
-4.10452
-4.00357
-3.8993
-3.79176
-3.68101
-3.56712
-3.45017
-3.33023
-3.20737
-3.08169
-2.95327
-2.8222
-2.68859
-2.55253
-2.41412
-2.27347
-2.1307
-1.98591
-1.83922
-1.69075
-1.54062
-1.38895
-1.23587
-1.08152
-0.926009
-0.769482
-0.61207
-0.453906
-0.295127
-0.135869
0.0237312
0.183536
0.343409
0.503212
0.662809
0.822066
0.980848
1.13902
1.29646
1.45302
1.6086
1.76305
1.91627
2.06814
2.21853
2.36735
2.51448
2.65983
2.8033
2.94479
3.08423
3.22151
3.35658
3.48936
3.61978
3.74778
3.8733
3.9963
4.11672
4.23454
4.3497
4.4622
4.57201
4.67911
4.7835
4.88517
4.98413
5.08038
5.17392
5.26477
5.35294
5.43845
5.52132
5.60156
5.6792
5.75426
5.82677
5.89676
5.96424
6.02924
6.09179
6.15189
6.20958
6.26485
6.31773
6.36819
6.41624
6.46184
6.50495
6.54549
6.58335
6.61835
6.65024
6.67856
6.70301
6.7215
6.73903
6.72556
-4.73458
-4.73652
-4.73973
-4.7438
-4.7483
-4.75316
-4.75849
-4.76436
-4.77089
-4.77814
-4.7862
-4.79511
-4.80494
-4.81572
-4.82747
-4.84022
-4.85396
-4.86871
-4.88444
-4.90115
-4.9188
-4.93737
-4.95681
-4.97708
-4.99811
-5.01984
-5.04221
-5.06513
-5.08851
-5.11228
-5.13632
-5.16055
-5.18486
-5.20913
-5.23326
-5.25712
-5.28061
-5.30361
-5.32599
-5.34762
-5.36839
-5.38818
-5.40685
-5.42429
-5.44036
-5.45495
-5.46794
-5.4792
-5.48861
-5.49606
-5.50143
-5.5046
-5.50547
-5.50393
-5.49987
-5.4932
-5.48382
-5.47163
-5.45655
-5.4385
-5.41739
-5.39316
-5.36575
-5.33508
-5.30112
-5.2638
-5.22308
-5.17888
-5.13116
-5.07989
-5.02505
-4.96662
-4.90459
-4.83896
-4.76972
-4.69688
-4.62046
-4.54046
-4.45692
-4.36986
-4.27931
-4.18532
-4.08792
-3.98716
-3.88309
-3.77578
-3.66527
-3.55165
-3.43498
-3.31533
-3.19278
-3.06743
-2.93935
-2.80863
-2.67538
-2.53969
-2.40166
-2.26141
-2.11903
-1.97465
-1.82837
-1.68032
-1.53061
-1.37937
-1.22672
-1.0728
-0.917725
-0.761636
-0.604663
-0.446939
-0.288601
-0.129784
0.0293764
0.188742
0.348176
0.507543
0.666706
0.825531
0.983883
1.14163
1.29864
1.4548
1.60996