/*--------------------------------*- C++ -*----------------------------------*\
| =========                 |                                                 |
| \\      /  F ield         | OpenFOAM: The Open Source CFD Toolbox           |
|  \\    /   O peration     | Version:  2412                                  |
|   \\  /    A nd           | Website:  www.openfoam.com                      |
|    \\/     M anipulation  |                                                 |
\*---------------------------------------------------------------------------*/
FoamFile
{
    version     2.0;
    format      ascii;
    arch        "LSB;label=32;scalar=64";
    class       surfaceScalarField;
    location    "0.29";
    object      phi;
}
// * * * * * * * * * * * * * * * * * * * * * * * * * * * * * * * * * * * * * //

dimensions      [0 3 -1 0 0 0 0];

oriented        oriented;

internalField   nonuniform List<scalar> 
24170
(
1.36706e-07
-5.7162e-08
1.95622e-07
-5.89156e-08
2.5792e-07
-6.22984e-08
3.11677e-07
-5.37563e-08
3.61817e-07
-5.01401e-08
4.07928e-07
-4.61118e-08
4.49577e-07
-4.16486e-08
4.87104e-07
-3.75271e-08
5.20896e-07
-3.37915e-08
5.51289e-07
-3.03931e-08
5.78608e-07
-2.73193e-08
6.03145e-07
-2.4537e-08
6.25142e-07
-2.19971e-08
6.44775e-07
-1.96329e-08
6.62179e-07
-1.74045e-08
6.77226e-07
-1.50461e-08
6.89908e-07
-1.26826e-08
-8.0182e-09
6.97926e-07
3.26112e-07
-1.24822e-07
3.94133e-07
-1.26937e-07
4.55889e-07
-1.24054e-07
5.1419e-07
-1.12057e-07
5.67686e-07
-1.03636e-07
6.16644e-07
-9.50704e-08
6.61289e-07
-8.62928e-08
7.01842e-07
-7.80808e-08
7.38602e-07
-7.05516e-08
7.71889e-07
-6.36797e-08
8.02008e-07
-5.7438e-08
8.29232e-07
-5.17615e-08
8.53794e-07
-4.65592e-08
8.75874e-07
-4.17121e-08
8.95582e-07
-3.71132e-08
9.12918e-07
-3.23815e-08
9.2797e-07
-2.77349e-08
-1.99219e-08
9.39874e-07
5.17245e-07
-1.71611e-07
5.79152e-07
-1.88844e-07
6.38213e-07
-1.83115e-07
6.95372e-07
-1.69216e-07
7.48187e-07
-1.56451e-07
7.96794e-07
-1.43678e-07
8.41441e-07
-1.3094e-07
8.82263e-07
-1.18902e-07
9.19475e-07
-1.07764e-07
9.53342e-07
-9.75465e-08
9.84124e-07
-8.82201e-08
1.01206e-06
-7.96992e-08
1.03736e-06
-7.18617e-08
1.0602e-06
-6.45492e-08
1.08068e-06
-5.7591e-08
1.0989e-06
-5.06046e-08
1.11469e-06
-4.35227e-08
-3.34857e-08
1.12825e-06
7.4348e-07
-1.95421e-07
7.91922e-07
-2.37286e-07
8.43833e-07
-2.35026e-07
8.96367e-07
-2.2175e-07
9.46032e-07
-2.06116e-07
9.92314e-07
-1.89959e-07
1.03523e-06
-1.73856e-07
1.07478e-06
-1.58452e-07
1.11107e-06
-1.44057e-07
1.14429e-06
-1.30762e-07
1.17462e-06
-1.18554e-07
1.20227e-06
-1.07344e-07
1.2274e-06
-9.6992e-08
1.25016e-06
-8.7315e-08
1.27067e-06
-7.80983e-08
1.28903e-06
-6.89664e-08
1.30515e-06
-5.96441e-08
-4.80197e-08
1.31969e-06
1.01492e-06
-1.99876e-07
1.04731e-06
-2.69671e-07
1.08854e-06
-2.76254e-07
1.1334e-06
-2.66614e-07
1.17753e-06
-2.50246e-07
1.21953e-06
-2.31959e-07
1.25903e-06
-2.13351e-07
1.29582e-06
-1.95249e-07
1.32989e-06
-1.78119e-07
1.36128e-06
-1.62158e-07
1.39012e-06
-1.47395e-07
1.41654e-06
-1.33759e-07
1.44066e-06
-1.21111e-07
1.4626e-06
-1.09259e-07
1.48247e-06
-9.79673e-08
1.50039e-06
-8.6883e-08
1.5164e-06
-7.56566e-08
-6.28243e-08
1.5312e-06
1.33808e-06
-1.90517e-07
1.35427e-06
-2.85857e-07
1.38245e-06
-3.04439e-07
1.41696e-06
-3.01125e-07
1.45317e-06
-2.86454e-07
1.48885e-06
-2.67635e-07
1.52314e-06
-2.47643e-07
1.55561e-06
-2.27715e-07
1.58603e-06
-2.08547e-07
1.61435e-06
-1.90479e-07
1.64058e-06
-1.73619e-07
1.66475e-06
-1.57936e-07
1.68696e-06
-1.43314e-07
1.70727e-06
-1.29569e-07
1.72577e-06
-1.16474e-07
1.7426e-06
-1.03714e-07
1.7579e-06
-9.09533e-08
-7.72169e-08
1.77229e-06
1.71767e-06
-1.72907e-07
1.7193e-06
-2.87489e-07
1.73353e-06
-3.18671e-07
1.75572e-06
-3.23314e-07
1.78184e-06
-3.12572e-07
1.80918e-06
-2.94975e-07
1.83645e-06
-2.74908e-07
1.86293e-06
-2.54203e-07
1.88824e-06
-2.33849e-07
1.91213e-06
-2.14376e-07
1.93452e-06
-1.96004e-07
1.95535e-06
-1.78771e-07
1.97464e-06
-1.62602e-07
1.99242e-06
-1.47347e-07
2.00875e-06
-1.32805e-07
2.02376e-06
-1.1872e-07
2.03761e-06
-1.04811e-07
-9.04636e-08
2.05086e-06
2.15734e-06
-1.51553e-07
2.14717e-06
-2.77327e-07
2.14805e-06
-3.19547e-07
2.15705e-06
-3.32314e-07
2.17149e-06
-3.27008e-07
2.18875e-06
-3.12241e-07
2.20729e-06
-2.93447e-07
2.22619e-06
-2.73103e-07
2.24487e-06
-2.52527e-07
2.26296e-06
-2.32465e-07
2.28023e-06
-2.13278e-07
2.29656e-06
-1.95096e-07
2.31186e-06
-1.77908e-07
2.32613e-06
-1.61616e-07
2.33939e-06
-1.46066e-07
2.35174e-06
-1.31068e-07
2.36335e-06
-1.16422e-07
-1.01766e-07
2.37465e-06
2.66011e-06
-1.29475e-07
2.64127e-06
-2.58485e-07
2.63057e-06
-3.08849e-07
2.6268e-06
-3.2854e-07
2.62889e-06
-3.29099e-07
2.63493e-06
-3.18282e-07
2.64341e-06
-3.01924e-07
2.65333e-06
-2.8303e-07
2.66402e-06
-2.63217e-07
2.675e-06
-2.43436e-07
2.68592e-06
-2.24201e-07
2.69657e-06
-2.05748e-07
2.70681e-06
-1.88148e-07
2.71656e-06
-1.71368e-07
2.72581e-06
-1.55316e-07
2.73462e-06
-1.39872e-07
2.74311e-06
-1.24921e-07
-1.1028e-07
2.75163e-06
3.22874e-06
-1.08352e-07
3.204e-06
-2.33751e-07
3.18408e-06
-2.88925e-07
3.16904e-06
-3.13506e-07
3.15923e-06
-3.1929e-07
3.15377e-06
-3.12819e-07
3.1515e-06
-2.9965e-07
3.15153e-06
-2.83065e-07
3.1532e-06
-2.64886e-07
3.15598e-06
-2.46215e-07
3.15948e-06
-2.27699e-07
3.16341e-06
-2.0968e-07
3.16757e-06
-1.92313e-07
3.17185e-06
-1.75639e-07
3.17616e-06
-1.59633e-07
3.18054e-06
-1.44244e-07
3.18506e-06
-1.29441e-07
-1.15155e-07
3.18993e-06
3.8657e-06
-8.90287e-08
3.83718e-06
-2.05225e-07
3.81025e-06
-2.62001e-07
3.78607e-06
-2.89318e-07
3.76578e-06
-2.99007e-07
3.74952e-06
-2.96552e-07
3.73665e-06
-2.86787e-07
3.72657e-06
-2.72986e-07
3.71874e-06
-2.57054e-07
3.71269e-06
-2.40162e-07
3.70803e-06
-2.23037e-07
3.70445e-06
-2.06105e-07
3.70174e-06
-1.89596e-07
3.69972e-06
-1.73619e-07
3.6983e-06
-1.58213e-07
3.69744e-06
-1.43387e-07
3.69718e-06
-1.29182e-07
-1.15596e-07
3.69762e-06
3.81123e-06
-7.33563e-08
3.78552e-06
-1.79513e-07
3.75883e-06
-2.35316e-07
3.733e-06
-2.63483e-07
3.70932e-06
-2.7533e-07
3.68839e-06
-2.75619e-07
3.67011e-06
-2.68502e-07
3.65421e-06
-2.57087e-07
3.64041e-06
-2.43261e-07
3.62844e-06
-2.28187e-07
3.61802e-06
-2.12613e-07
3.60891e-06
-1.97004e-07
3.60095e-06
-1.81633e-07
3.59399e-06
-1.66654e-07
3.58792e-06
-1.52148e-07
3.5827e-06
-1.3817e-07
3.57828e-06
-1.24757e-07
-1.12154e-07
3.57484e-06
5.03713e-06
-5.77252e-08
5.00707e-06
-1.49455e-07
4.97361e-06
-2.01857e-07
4.93953e-06
-2.294e-07
4.90653e-06
-2.42336e-07
4.87577e-06
-2.44852e-07
4.84753e-06
-2.40265e-07
4.8218e-06
-2.31354e-07
4.79845e-06
-2.19919e-07
4.77733e-06
-2.07067e-07
4.75824e-06
-1.93517e-07
4.74097e-06
-1.79738e-07
4.72537e-06
-1.66028e-07
4.71128e-06
-1.52568e-07
4.69861e-06
-1.39474e-07
4.68727e-06
-1.2683e-07
4.67721e-06
-1.147e-07
-1.03424e-07
4.66848e-06
6.66244e-06
-4.26912e-08
6.62913e-06
-1.16146e-07
6.58918e-06
-1.61904e-07
6.54671e-06
-1.86935e-07
6.50387e-06
-1.99495e-07
6.46231e-06
-2.03297e-07
6.42284e-06
-2.00792e-07
6.38572e-06
-1.94232e-07
6.35104e-06
-1.8524e-07
6.3188e-06
-1.74825e-07
6.28892e-06
-1.63638e-07
6.2613e-06
-1.52115e-07
6.23581e-06
-1.40547e-07
6.21237e-06
-1.29124e-07
6.19087e-06
-1.17973e-07
6.17123e-06
-1.07192e-07
6.15339e-06
-9.6862e-08
-8.73473e-08
6.13732e-06
8.79086e-06
-2.88898e-08
8.75646e-06
-8.17457e-08
8.71176e-06
-1.172e-07
8.66209e-06
-1.37263e-07
8.61015e-06
-1.47558e-07
8.55807e-06
-1.51216e-07
8.50721e-06
-1.49937e-07
8.45827e-06
-1.45284e-07
8.41157e-06
-1.38544e-07
8.36731e-06
-1.30566e-07
8.32557e-06
-1.21892e-07
8.28634e-06
-1.12888e-07
8.2496e-06
-1.0381e-07
8.21531e-06
-9.48311e-08
8.18341e-06
-8.60719e-08
8.15384e-06
-7.7625e-08
8.12654e-06
-6.95587e-08
-6.22502e-08
8.10144e-06
1.15181e-05
-1.6617e-08
1.14848e-05
-4.84462e-08
1.14384e-05
-7.07993e-08
1.13845e-05
-8.34397e-08
1.13265e-05
-8.94781e-08
1.12665e-05
-9.12287e-08
1.12064e-05
-8.98359e-08
1.11473e-05
-8.62139e-08
1.10899e-05
-8.11937e-08
1.10347e-05
-7.53691e-08
1.0982e-05
-6.91151e-08
1.09318e-05
-6.26828e-08
1.08842e-05
-5.62516e-08
1.08393e-05
-4.99491e-08
1.07971e-05
-4.38688e-08
1.07576e-05
-3.80879e-08
1.07207e-05
-3.26334e-08
-2.78886e-08
1.06863e-05
1.48842e-05
-5.41085e-09
1.48525e-05
-1.6731e-08
1.48063e-05
-2.45736e-08
1.47511e-05
-2.82153e-08
1.46904e-05
-2.88191e-08
1.46267e-05
-2.75541e-08
1.45619e-05
-2.50091e-08
1.44973e-05
-2.15811e-08
1.44337e-05
-1.76502e-08
1.43719e-05
-1.35103e-08
1.43121e-05
-9.34588e-09
1.42547e-05
-5.27499e-09
1.41998e-05
-1.38816e-09
1.41476e-05
2.27011e-09
1.40981e-05
5.64456e-09
1.40513e-05
8.68926e-09
1.40072e-05
1.14349e-08
1.35312e-08
1.39658e-05
1.8769e-05
6.26448e-09
1.87365e-05
1.58028e-08
1.86883e-05
2.36175e-08
1.86301e-05
2.99762e-08
1.85661e-05
3.52198e-08
1.84989e-05
3.96133e-08
1.84306e-05
4.33238e-08
1.83625e-05
4.64742e-08
1.82957e-05
4.91593e-08
1.82307e-05
5.14454e-08
1.8168e-05
5.33769e-08
1.81078e-05
5.49836e-08
1.80501e-05
5.62856e-08
1.79951e-05
5.72939e-08
1.79427e-05
5.80143e-08
1.7893e-05
5.84343e-08
1.78458e-05
5.86128e-08
5.82897e-08
1.7801e-05
2.26768e-05
1.69956e-08
2.26398e-05
5.27581e-08
2.25834e-05
8.00199e-08
2.25148e-05
9.85778e-08
2.24391e-05
1.10926e-07
2.23597e-05
1.19071e-07
2.22789e-05
1.2407e-07
2.21987e-05
1.26702e-07
2.21202e-05
1.27664e-07
2.20442e-05
1.27477e-07
2.19711e-05
1.26483e-07
2.19011e-05
1.24908e-07
2.18345e-05
1.22913e-07
2.17712e-05
1.20609e-07
2.17111e-05
1.18074e-07
2.16542e-05
1.15356e-07
2.16003e-05
1.12516e-07
1.09411e-07
2.15492e-05
1.5604e-05
3.2642e-08
1.55641e-05
9.26193e-08
1.55091e-05
1.35036e-07
1.54456e-05
1.62015e-07
1.53777e-05
1.78857e-07
1.5308e-05
1.88777e-07
1.52386e-05
1.93494e-07
1.51708e-05
1.94467e-07
1.51055e-05
1.92939e-07
1.50432e-05
1.89775e-07
1.49842e-05
1.85538e-07
1.49285e-05
1.80615e-07
1.48761e-05
1.75278e-07
1.4827e-05
1.6972e-07
1.4781e-05
1.6407e-07
1.47379e-05
1.58421e-07
1.46976e-05
1.52835e-07
1.47252e-07
1.46598e-05
1.23902e-05
5.12346e-08
1.23448e-05
1.38095e-07
1.22864e-05
1.93398e-07
1.22225e-05
2.25903e-07
1.21566e-05
2.44758e-07
1.20913e-05
2.54078e-07
1.20284e-05
2.56397e-07
1.19688e-05
2.54044e-07
1.1913e-05
2.48776e-07
1.18611e-05
2.41713e-07
1.1813e-05
2.33582e-07
1.17687e-05
2.24882e-07
1.17281e-05
2.15956e-07
1.16908e-05
2.07029e-07
1.16566e-05
1.98249e-07
1.16253e-05
1.89714e-07
1.15967e-05
1.81469e-07
1.73501e-07
1.15704e-05
9.55928e-06
7.55427e-08
9.50978e-06
1.87599e-07
9.45371e-06
2.4947e-07
9.39689e-06
2.8272e-07
9.34169e-06
2.99955e-07
9.29011e-06
3.05659e-07
9.2431e-06
3.03414e-07
9.20078e-06
2.96359e-07
9.16302e-06
2.86537e-07
9.12955e-06
2.75178e-07
9.10005e-06
2.63083e-07
9.07415e-06
2.50782e-07
9.05149e-06
2.38617e-07
9.03173e-06
2.26796e-07
9.01453e-06
2.1544e-07
8.99963e-06
2.0462e-07
8.98674e-06
1.94353e-07
1.84642e-07
8.9756e-06
7.18003e-06
1.04962e-07
7.13264e-06
2.34993e-07
7.08699e-06
2.95114e-07
7.04542e-06
3.24297e-07
7.00919e-06
3.36182e-07
6.97925e-06
3.35597e-07
6.95528e-06
3.2739e-07
6.93649e-06
3.1514e-07
6.92218e-06
3.00856e-07
6.91165e-06
2.85707e-07
6.9043e-06
2.70433e-07
6.89959e-06
2.55489e-07
6.89707e-06
2.41134e-07
6.89636e-06
2.27504e-07
6.89715e-06
2.14657e-07
6.89916e-06
2.02609e-07
6.90217e-06
1.91339e-07
1.80842e-07
6.90597e-06
5.24556e-06
1.3812e-07
5.20786e-06
2.72692e-07
5.18042e-06
3.22547e-07
5.16161e-06
3.43114e-07
5.15134e-06
3.46451e-07
5.14856e-06
3.38373e-07
5.15145e-06
3.24503e-07
5.1585e-06
3.08089e-07
5.16862e-06
2.90739e-07
5.18095e-06
2.73376e-07
5.19483e-06
2.56549e-07
5.20977e-06
2.40553e-07
5.22538e-06
2.25524e-07
5.24138e-06
2.11503e-07
5.25756e-06
1.98479e-07
5.27375e-06
1.86414e-07
5.28984e-06
1.7525e-07
1.64974e-07
5.30571e-06
3.71461e-06
1.71643e-07
3.69607e-06
2.91237e-07
3.69442e-06
3.24197e-07
3.70434e-06
3.33195e-07
3.72341e-06
3.27378e-07
3.74838e-06
3.13402e-07
3.77668e-06
2.962e-07
3.80677e-06
2.78002e-07
3.83765e-06
2.59863e-07
3.86863e-06
2.42392e-07
3.89926e-06
2.25914e-07
3.92925e-06
2.10564e-07
3.95841e-06
1.96368e-07
3.98662e-06
1.83295e-07
4.01382e-06
1.71281e-07
4.03998e-06
1.60251e-07
4.0651e-06
1.50128e-07
1.40896e-07
4.08918e-06
2.5354e-06
1.96843e-07
2.54624e-06
2.80392e-07
2.57485e-06
2.95583e-07
2.61417e-06
2.93877e-07
2.65963e-06
2.81924e-07
2.70723e-06
2.65801e-07
2.75495e-06
2.4848e-07
2.80179e-06
2.31162e-07
2.84715e-06
2.14498e-07
2.89071e-06
1.98838e-07
2.93229e-06
1.84331e-07
2.97185e-06
1.71006e-07
3.0094e-06
1.58821e-07
3.04499e-06
1.47703e-07
3.0787e-06
1.37567e-07
3.11063e-06
1.28323e-07
3.14087e-06
1.19888e-07
1.12263e-07
3.1695e-06
1.65469e-06
1.99257e-07
1.70056e-06
2.34526e-07
1.75707e-06
2.39071e-07
1.81981e-06
2.31139e-07
1.88376e-06
2.17977e-07
1.94595e-06
2.03607e-07
2.00552e-06
1.88907e-07
2.06211e-06
1.74578e-07
2.11552e-06
1.61084e-07
2.16575e-06
1.48607e-07
2.2129e-06
1.37187e-07
2.25711e-06
1.26798e-07
2.29855e-06
1.17377e-07
2.33741e-06
1.08841e-07
2.37388e-06
1.01102e-07
2.40812e-06
9.40788e-08
2.44032e-06
8.76923e-08
8.198e-08
2.4706e-06
1.01827e-06
1.63846e-07
1.09488e-06
1.57921e-07
1.17023e-06
1.63716e-07
1.24668e-06
1.54691e-07
1.32007e-06
1.4459e-07
1.38904e-06
1.34633e-07
1.45366e-06
1.24284e-07
1.51399e-06
1.14252e-07
1.57012e-06
1.04951e-07
1.62228e-06
9.64452e-08
1.67075e-06
8.87228e-08
1.7158e-06
8.17485e-08
1.75771e-06
7.5463e-08
1.79676e-06
6.97971e-08
1.83317e-06
6.46831e-08
1.86719e-06
6.00602e-08
1.89904e-06
5.58489e-08
5.2125e-08
1.92889e-06
5.69236e-07
8.45264e-08
6.58979e-07
6.81778e-08
7.40757e-07
8.19382e-08
8.20847e-07
7.46009e-08
8.9584e-07
6.95975e-08
9.65386e-07
6.50872e-08
1.0298e-06
5.98709e-08
1.0893e-06
5.47549e-08
1.14416e-06
5.00888e-08
1.19474e-06
4.58619e-08
1.24142e-06
4.2045e-08
1.28455e-06
3.86174e-08
1.32447e-06
3.55452e-08
1.36148e-06
3.27886e-08
1.39585e-06
3.03093e-08
1.42783e-06
2.80789e-08
1.45766e-06
2.6025e-08
2.41966e-08
1.48558e-06
2.22451e-07
2.90628e-07
3.72567e-07
4.47167e-07
5.16765e-07
5.81852e-07
6.41723e-07
6.96478e-07
7.46567e-07
7.92429e-07
8.34474e-07
8.73091e-07
9.08636e-07
9.41425e-07
9.71734e-07
9.99813e-07
1.02584e-06
1.05003e-06
1.80612e-08
-1.80612e-08
4.11363e-08
-2.3075e-08
6.14292e-08
-2.02929e-08
7.64197e-08
-1.49905e-08
8.51772e-08
-8.7575e-09
8.76297e-08
-2.45252e-09
8.42883e-08
3.34142e-09
7.61049e-08
8.1834e-09
6.41347e-08
1.19702e-08
4.92454e-08
1.48893e-08
3.19819e-08
1.72635e-08
1.25764e-08
1.94055e-08
-8.97562e-09
2.1552e-08
-3.28432e-08
2.38676e-08
-5.92639e-08
2.64207e-08
-8.84686e-08
2.92047e-08
-1.2065e-07
3.21819e-08
-1.55937e-07
3.52862e-08
-1.94374e-07
3.84371e-08
-2.35922e-07
4.1548e-08
-2.80453e-07
4.45317e-08
-3.2776e-07
4.73066e-08
-3.77562e-07
4.98018e-08
-4.29523e-07
5.19607e-08
-4.83267e-07
5.37442e-08
-5.38397e-07
5.51307e-08
-5.94514e-07
5.61163e-08
-6.51226e-07
5.67123e-08
-7.0817e-07
5.69442e-08
-7.65022e-07
5.6852e-08
-8.21511e-07
5.64888e-08
-8.7742e-07
5.5909e-08
-9.3257e-07
5.51501e-08
-9.86809e-07
5.42387e-08
-1.04001e-06
5.32036e-08
-1.09208e-06
5.20709e-08
-1.14295e-06
5.08642e-08
-1.19255e-06
4.96038e-08
-1.24086e-06
4.83065e-08
-1.28784e-06
4.6986e-08
-1.3335e-06
4.56526e-08
-1.37781e-06
4.43143e-08
-1.42079e-06
4.29764e-08
-1.46243e-06
4.16425e-08
-1.50274e-06
4.03146e-08
-1.54174e-06
3.89936e-08
-1.57942e-06
3.76794e-08
-1.61579e-06
3.63713e-08
-1.65086e-06
3.50681e-08
-1.68463e-06
3.37687e-08
-1.7171e-06
3.24716e-08
-1.74827e-06
3.11752e-08
-1.77815e-06
2.98783e-08
-1.80673e-06
2.85798e-08
-1.83401e-06
2.72784e-08
-1.85998e-06
2.59733e-08
-1.88465e-06
2.4664e-08
-1.908e-06
2.33497e-08
-1.93003e-06
2.20302e-08
-1.95073e-06
2.07051e-08
-1.97011e-06
1.93742e-08
-1.98814e-06
1.80374e-08
-2.00484e-06
1.66942e-08
-2.02018e-06
1.53442e-08
-2.03417e-06
1.39867e-08
-2.04679e-06
1.26205e-08
-2.05803e-06
1.12436e-08
-2.06788e-06
9.8526e-09
-2.07633e-06
8.44355e-09
-2.08334e-06
7.01127e-09
-2.08889e-06
5.54854e-09
-2.09293e-06
4.04621e-09
-2.09543e-06
2.4996e-09
-2.09633e-06
8.97135e-10
-2.09571e-06
-6.20703e-10
-2.0938e-06
-1.91449e-09
-2.09065e-06
-3.14482e-09
-2.08632e-06
-4.33161e-09
-2.08082e-06
-5.4939e-09
-2.07418e-06
-6.64188e-09
-2.0664e-06
-7.77937e-09
-2.0575e-06
-8.9077e-09
-2.04747e-06
-1.0027e-08
-2.03633e-06
-1.11369e-08
-2.0241e-06
-1.22369e-08
-2.01077e-06
-1.33264e-08
-1.99636e-06
-1.44048e-08
-1.98089e-06
-1.54714e-08
-1.96437e-06
-1.65258e-08
-1.9468e-06
-1.75672e-08
-1.9282e-06
-1.85952e-08
-1.90859e-06
-1.96094e-08
-1.88799e-06
-2.06092e-08
-1.86639e-06
-2.15942e-08
-1.84383e-06
-2.25639e-08
-1.82031e-06
-2.3518e-08
-1.79585e-06
-2.44561e-08
-1.77048e-06
-2.53776e-08
-1.74419e-06
-2.62822e-08
-1.71702e-06
-2.71695e-08
-1.68899e-06
-2.80391e-08
-1.66009e-06
-2.88907e-08
-1.63037e-06
-2.97236e-08
-1.59983e-06
-3.05378e-08
-1.5685e-06
-3.13325e-08
-1.53639e-06
-3.21075e-08
-1.50353e-06
-3.28623e-08
-1.46993e-06
-3.35964e-08
-1.43562e-06
-3.43093e-08
-1.40062e-06
-3.50005e-08
-1.36495e-06
-3.56696e-08
-1.32864e-06
-3.6316e-08
-1.2917e-06
-3.69393e-08
-1.25416e-06
-3.75389e-08
-1.21605e-06
-3.81144e-08
-1.17738e-06
-3.86651e-08
-1.13819e-06
-3.91905e-08
-1.0985e-06
-3.96902e-08
-1.05834e-06
-4.01637e-08
-1.01773e-06
-4.06104e-08
-9.76696e-07
-4.103e-08
-9.35274e-07
-4.14219e-08
-8.93489e-07
-4.17857e-08
-8.51368e-07
-4.21212e-08
-8.0894e-07
-4.24278e-08
-7.66235e-07
-4.27052e-08
-7.23281e-07
-4.29533e-08
-6.8011e-07
-4.31717e-08
-6.36749e-07
-4.33601e-08
-5.93231e-07
-4.35185e-08
-5.49584e-07
-4.36467e-08
-5.0584e-07
-4.37445e-08
-4.62028e-07
-4.38118e-08
-4.18179e-07
-4.38485e-08
-3.74325e-07
-4.38544e-08
-3.30496e-07
-4.38291e-08
-2.86723e-07
-4.37724e-08
-2.4304e-07
-4.36833e-08
-1.99479e-07
-4.35616e-08
-1.56074e-07
-4.34045e-08
-1.12861e-07
-4.32129e-08
-6.98728e-08
-4.29884e-08
-2.71471e-08
-4.27258e-08
1.52787e-08
-4.24258e-08
5.73638e-08
-4.20851e-08
9.90779e-08
-4.17141e-08
1.40405e-07
-4.13272e-08
1.81341e-07
-4.09359e-08
2.2188e-07
-4.05386e-08
2.62012e-07
-4.01329e-08
3.01729e-07
-3.9717e-08
3.4102e-07
-3.92903e-08
3.79872e-07
-3.88526e-08
4.18277e-07
-3.84043e-08
4.56223e-07
-3.79462e-08
4.93702e-07
-3.74793e-08
5.30707e-07
-3.70046e-08
5.6723e-07
-3.65234e-08
6.03267e-07
-3.60368e-08
6.38813e-07
-3.55459e-08
6.73865e-07
-3.50518e-08
7.0842e-07
-3.45554e-08
7.42477e-07
-3.4057e-08
7.76034e-07
-3.3557e-08
8.09089e-07
-3.30546e-08
8.41637e-07
-3.25483e-08
8.73672e-07
-3.20352e-08
9.05183e-07
-3.15104e-08
9.36148e-07
-3.09657e-08
9.66537e-07
-3.03884e-08
9.96295e-07
-2.97583e-08
1.02534e-06
-2.90432e-08
1.05353e-06
-2.81894e-08
1.08063e-06
-2.71057e-08
1.10625e-06
-2.56147e-08
1.12962e-06
-2.33746e-08
1.14905e-06
-1.94289e-08
1.16067e-06
-1.16231e-08
1.15189e-06
8.78284e-09
5.40154e-08
1.09788e-06
1.76992e-08
-3.57604e-08
2.84049e-08
-3.37808e-08
3.14824e-08
-2.33704e-08
2.89371e-08
-1.24452e-08
2.20789e-08
-1.8993e-09
1.16458e-08
7.98064e-09
-2.03279e-09
1.702e-08
-1.89726e-08
2.51232e-08
-3.92943e-08
3.2292e-08
-6.30818e-08
3.86768e-08
-9.03488e-08
4.45305e-08
-1.21063e-07
5.01194e-08
-1.55163e-07
5.5652e-08
-1.92545e-07
6.12501e-08
-2.33073e-07
6.69484e-08
-2.76575e-07
7.27073e-08
-3.22828e-07
7.84346e-08
-3.7155e-07
8.40075e-08
-4.22404e-07
8.92917e-08
-4.75013e-07
9.41566e-08
-5.28968e-07
9.84869e-08
-5.83852e-07
1.0219e-07
-6.39253e-07
1.05203e-07
-6.94785e-07
1.07493e-07
-7.50096e-07
1.09055e-07
-8.04881e-07
1.09915e-07
-8.58883e-07
1.10118e-07
-9.11899e-07
1.09728e-07
-9.63774e-07
1.0882e-07
-1.0144e-06
1.07476e-07
-1.06369e-06
1.05779e-07
-1.11159e-06
1.03807e-07
-1.15806e-06
1.0162e-07
-1.20309e-06
9.92719e-08
-1.24669e-06
9.68081e-08
-1.28889e-06
9.42663e-08
-1.3297e-06
9.16774e-08
-1.36916e-06
8.90656e-08
-1.40731e-06
8.64492e-08
-1.44416e-06
8.38413e-08
-1.47976e-06
8.12506e-08
-1.51413e-06
7.86824e-08
-1.54729e-06
7.61391e-08
-1.57927e-06
7.3621e-08
-1.61008e-06
7.11268e-08
-1.63974e-06
6.86541e-08
-1.66826e-06
6.61998e-08
-1.69565e-06
6.37605e-08
-1.72192e-06
6.13326e-08
-1.74706e-06
5.89124e-08
-1.77109e-06
5.64969e-08
-1.79399e-06
5.40828e-08
-1.81578e-06
5.16674e-08
-1.83645e-06
4.92486e-08
-1.856e-06
4.68243e-08
-1.87442e-06
4.43932e-08
-1.89171e-06
4.1954e-08
-1.90786e-06
3.95061e-08
-1.92288e-06
3.7049e-08
-1.93676e-06
3.45824e-08
-1.94949e-06
3.21063e-08
-1.96107e-06
2.9621e-08
-1.97151e-06
2.71267e-08
-1.98079e-06
2.46235e-08
-1.98891e-06
2.2112e-08
-1.99588e-06
1.95922e-08
-2.0017e-06
1.70646e-08
-2.00638e-06
1.45296e-08
-2.00993e-06
1.19879e-08
-2.01236e-06
9.44189e-09
-2.0137e-06
6.89527e-09
-2.01401e-06
4.35606e-09
-2.01336e-06
1.84185e-09
-2.01184e-06
-6.20754e-10
-2.00942e-06
-3.0355e-09
-2.00596e-06
-5.37312e-09
-2.00142e-06
-7.68809e-09
-1.99577e-06
-9.98466e-09
-1.989e-06
-1.22642e-08
-1.98111e-06
-1.45282e-08
-1.97211e-06
-1.6777e-08
-1.96201e-06
-1.90102e-08
-1.95081e-06
-2.12267e-08
-1.93852e-06
-2.34255e-08
-1.92515e-06
-2.5605e-08
-1.91072e-06
-2.77642e-08
-1.89522e-06
-2.99016e-08
-1.87868e-06
-3.2016e-08
-1.86109e-06
-3.41062e-08
-1.84249e-06
-3.61712e-08
-1.82288e-06
-3.82097e-08
-1.80226e-06
-4.02209e-08
-1.78067e-06
-4.22037e-08
-1.75811e-06
-4.41572e-08
-1.73459e-06
-4.60807e-08
-1.71014e-06
-4.79731e-08
-1.68476e-06
-4.98337e-08
-1.65847e-06
-5.16616e-08
-1.6313e-06
-5.3456e-08
-1.60325e-06
-5.52159e-08
-1.57435e-06
-5.69407e-08
-1.54461e-06
-5.86295e-08
-1.51406e-06
-6.02815e-08
-1.4827e-06
-6.18958e-08
-1.45056e-06
-6.34716e-08
-1.41766e-06
-6.5008e-08
-1.38402e-06
-6.65041e-08
-1.34965e-06
-6.7959e-08
-1.31459e-06
-6.93716e-08
-1.27885e-06
-7.0741e-08
-1.24245e-06
-7.20662e-08
-1.20542e-06
-7.33462e-08
-1.16778e-06
-7.458e-08
-1.12956e-06
-7.57665e-08
-1.09077e-06
-7.69047e-08
-1.05144e-06
-7.79936e-08
-1.0116e-06
-7.9032e-08
-9.71266e-07
-8.0019e-08
-9.30476e-07
-8.09537e-08
-8.89252e-07
-8.1835e-08
-8.4762e-07
-8.2662e-08
-8.05608e-07
-8.34338e-08
-7.63244e-07
-8.41496e-08
-7.20557e-07
-8.48086e-08
-6.77574e-07
-8.54101e-08
-6.34326e-07
-8.59534e-08
-5.90841e-07
-8.64379e-08
-5.4715e-07
-8.68633e-08
-5.03281e-07
-8.7229e-08
-4.59265e-07
-8.75346e-08
-4.15132e-07
-8.778e-08
-3.70911e-07
-8.79647e-08
-3.26635e-07
-8.80888e-08
-2.82331e-07
-8.81517e-08
-2.38032e-07
-8.81535e-08
-1.93768e-07
-8.80935e-08
-1.49569e-07
-8.79712e-08
-1.05467e-07
-8.77852e-08
-6.14932e-08
-8.75355e-08
-1.76783e-08
-8.72194e-08
2.59446e-08
-8.68358e-08
6.93428e-08
-8.63865e-08
1.12488e-07
-8.58708e-08
1.55356e-07
-8.5294e-08
1.97928e-07
-8.46568e-08
2.40181e-07
-8.39677e-08
2.82097e-07
-8.32432e-08
3.23656e-07
-8.24941e-08
3.6484e-07
-8.17225e-08
4.05635e-07
-8.09279e-08
4.46027e-07
-8.01096e-08
4.86004e-07
-7.92676e-08
5.25554e-07
-7.84026e-08
5.64666e-07
-7.7516e-08
6.03329e-07
-7.66094e-08
6.41535e-07
-7.56851e-08
6.79276e-07
-7.47453e-08
7.16545e-07
-7.37925e-08
7.53337e-07
-7.2829e-08
7.89649e-07
-7.18572e-08
8.25476e-07
-7.08792e-08
8.60817e-07
-6.98966e-08
8.9567e-07
-6.89105e-08
9.30035e-07
-6.7921e-08
9.63907e-07
-6.69272e-08
9.97285e-07
-6.59258e-08
1.03016e-06
-6.49109e-08
1.06252e-06
-6.38727e-08
1.09435e-06
-6.27951e-08
1.12562e-06
-6.16527e-08
1.15626e-06
-6.04057e-08
1.18621e-06
-5.89906e-08
1.21532e-06
-5.73031e-08
1.24339e-06
-5.51671e-08
1.27003e-06
-5.22557e-08
1.29461e-06
-4.79602e-08
1.31603e-06
-4.0843e-08
1.33269e-06
-2.82819e-08
1.34299e-06
-1.52171e-09
5.34172e-08
1.34359e-06
4.92407e-09
-4.06845e-08
1.51352e-10
-2.90081e-08
-9.5011e-09
-1.3718e-08
-2.25217e-08
5.75396e-10
-3.82194e-08
1.37984e-08
-5.64302e-08
2.61914e-08
-7.71612e-08
3.77509e-08
-1.00538e-07
4.84998e-08
-1.26736e-07
5.84902e-08
-1.55894e-07
6.78349e-08
-1.88054e-07
7.66906e-08
-2.23147e-07
8.52119e-08
-2.61002e-07
9.35073e-08
-3.01369e-07
1.01617e-07
-3.43933e-07
1.09512e-07
-3.88335e-07
1.1711e-07
-4.34194e-07
1.24293e-07
-4.81116e-07
1.3093e-07
-5.28718e-07
1.36894e-07
-5.76637e-07
1.42075e-07
-6.24546e-07
1.46396e-07
-6.72163e-07
1.49807e-07
-7.19256e-07
1.52297e-07
-7.65646e-07
1.53883e-07
-8.11202e-07
1.54611e-07
-8.55837e-07
1.5455e-07
-8.99499e-07
1.5378e-07
-9.42166e-07
1.52395e-07
-9.83834e-07
1.50488e-07
-1.02451e-06
1.48153e-07
-1.06421e-06
1.45475e-07
-1.10293e-06
1.42534e-07
-1.14071e-06
1.39393e-07
-1.17754e-06
1.36108e-07
-1.21346e-06
1.32725e-07
-1.24847e-06
1.29279e-07
-1.2826e-06
1.258e-07
-1.31584e-06
1.22308e-07
-1.34821e-06
1.18819e-07
-1.37971e-06
1.15344e-07
-1.41035e-06
1.11887e-07
-1.44012e-06
1.08453e-07
-1.46902e-06
1.05042e-07
-1.49705e-06
1.01651e-07
-1.5242e-06
9.82789e-08
-1.55047e-06
9.49206e-08
-1.57584e-06
9.15724e-08
-1.60031e-06
8.82298e-08
-1.62387e-06
8.48884e-08
-1.6465e-06
8.1544e-08
-1.6682e-06
7.81929e-08
-1.68895e-06
7.48315e-08
-1.70874e-06
7.14573e-08
-1.72755e-06
6.80676e-08
-1.74539e-06
6.46609e-08
-1.76223e-06
6.12357e-08
-1.77807e-06
5.77915e-08
-1.79289e-06
5.43277e-08
-1.80669e-06
5.08447e-08
-1.81945e-06
4.7343e-08
-1.83117e-06
4.38234e-08
-1.84183e-06
4.02872e-08
-1.85144e-06
3.67357e-08
-1.85999e-06
3.31708e-08
-1.86747e-06
2.95944e-08
-1.87389e-06
2.60087e-08
-1.87924e-06
2.24164e-08
-1.88353e-06
1.88208e-08
-1.88677e-06
1.52258e-08
-1.88896e-06
1.16369e-08
-1.89013e-06
8.06068e-09
-1.89028e-06
4.50608e-09
-1.88942e-06
9.83319e-10
-1.88754e-06
-2.49726e-09
-1.88464e-06
-5.94148e-09
-1.88066e-06
-9.35467e-09
-1.8756e-06
-1.27484e-08
-1.86946e-06
-1.61254e-08
-1.86223e-06
-1.94857e-08
-1.85393e-06
-2.28282e-08
-1.84456e-06
-2.61512e-08
-1.83412e-06
-2.94529e-08
-1.82261e-06
-3.27312e-08
-1.81005e-06
-3.59841e-08
-1.79645e-06
-3.92093e-08
-1.78181e-06
-4.24049e-08
-1.76614e-06
-4.55688e-08
-1.74946e-06
-4.86991e-08
-1.73177e-06
-5.17941e-08
-1.71309e-06
-5.4852e-08
-1.69343e-06
-5.78712e-08
-1.6728e-06
-6.08501e-08
-1.65122e-06
-6.37874e-08
-1.62869e-06
-6.66816e-08
-1.60524e-06
-6.95313e-08
-1.58088e-06
-7.23353e-08
-1.55562e-06
-7.50923e-08
-1.52948e-06
-7.7801e-08
-1.50248e-06
-8.04601e-08
-1.47462e-06
-8.30684e-08
-1.44594e-06
-8.56245e-08
-1.41644e-06
-8.81272e-08
-1.38615e-06
-9.05753e-08
-1.35508e-06
-9.29676e-08
-1.32325e-06
-9.53027e-08
-1.29067e-06
-9.75793e-08
-1.25738e-06
-9.9796e-08
-1.22339e-06
-1.01951e-07
-1.18872e-06
-1.04044e-07
-1.15339e-06
-1.06072e-07
-1.11742e-06
-1.08035e-07
-1.08083e-06
-1.0993e-07
-1.04366e-06
-1.11757e-07
-1.00591e-06
-1.13513e-07
-9.67615e-07
-1.15198e-07
-9.288e-07
-1.16809e-07
-8.89488e-07
-1.18345e-07
-8.49703e-07
-1.19804e-07
-8.09471e-07
-1.21185e-07
-7.68819e-07
-1.22487e-07
-7.27773e-07
-1.23708e-07
-6.86359e-07
-1.24847e-07
-6.44606e-07
-1.25903e-07
-6.02541e-07
-1.26874e-07
-5.60192e-07
-1.27759e-07
-5.17588e-07
-1.28558e-07
-4.74757e-07
-1.29269e-07
-4.31728e-07
-1.29892e-07
-3.88531e-07
-1.30426e-07
-3.45194e-07
-1.30871e-07
-3.01748e-07
-1.31226e-07
-2.58221e-07
-1.31492e-07
-2.14643e-07
-1.31666e-07
-1.71045e-07
-1.3175e-07
-1.27454e-07
-1.31744e-07
-8.39026e-08
-1.31645e-07
-4.04184e-08
-1.31455e-07
2.96889e-09
-1.31173e-07
4.62287e-08
-1.30795e-07
8.93316e-08
-1.30322e-07
1.32249e-07
-1.29753e-07
1.74954e-07
-1.29091e-07
2.17422e-07
-1.2834e-07
2.59638e-07
-1.2751e-07
3.01589e-07
-1.26607e-07
3.43253e-07
-1.25632e-07
3.84605e-07
-1.24596e-07
4.25621e-07
-1.2351e-07
4.6628e-07
-1.22381e-07
5.06563e-07
-1.21211e-07
5.46455e-07
-1.20001e-07
5.85941e-07
-1.18754e-07
6.25009e-07
-1.17471e-07
6.63649e-07
-1.16155e-07
7.01848e-07
-1.14809e-07
7.39599e-07
-1.13436e-07
7.76895e-07
-1.12041e-07
8.13727e-07
-1.10625e-07
8.50093e-07
-1.09195e-07
8.85987e-07
-1.07752e-07
9.21408e-07
-1.063e-07
9.56352e-07
-1.04841e-07
9.90819e-07
-1.03378e-07
1.02481e-06
-1.0191e-07
1.05832e-06
-1.00435e-07
1.09134e-06
-9.89502e-08
1.12388e-06
-9.74457e-08
1.15591e-06
-9.59069e-08
1.18742e-06
-9.43103e-08
1.21839e-06
-9.26186e-08
1.24876e-06
-9.07737e-08
1.27845e-06
-8.86838e-08
1.30735e-06
-8.62004e-08
1.33526e-06
-8.30764e-08
1.36188e-06
-7.88738e-08
1.38672e-06
-7.28067e-08
1.40912e-06
-6.32429e-08
1.4282e-06
-4.73632e-08
1.44449e-06
-1.78051e-08
3.63302e-08
1.46157e-06
-9.57036e-09
-3.11141e-08
-2.56e-08
-1.29784e-08
-4.39866e-08
4.66859e-09
-6.40118e-08
2.06006e-08
-8.56995e-08
3.54862e-08
-1.09086e-07
4.95779e-08
-1.34301e-07
6.29662e-08
-1.61487e-07
7.56858e-08
-1.90766e-07
8.77687e-08
-2.22195e-07
9.92647e-08
-2.5574e-07
1.10236e-07
-2.91261e-07
1.20733e-07
-3.28529e-07
1.30775e-07
-3.67251e-07
1.40339e-07
-4.07095e-07
1.49357e-07
-4.4772e-07
1.57735e-07
-4.88791e-07
1.65364e-07
-5.30002e-07
1.72141e-07
-5.71087e-07
1.77979e-07
-6.11828e-07
1.82816e-07
-6.52058e-07
1.86625e-07
-6.91658e-07
1.89408e-07
-7.30558e-07
1.91197e-07
-7.68723e-07
1.92048e-07
-8.06147e-07
1.92036e-07
-8.42847e-07
1.91249e-07
-8.78848e-07
1.89781e-07
-9.14182e-07
1.8773e-07
-9.48882e-07
1.85188e-07
-9.82974e-07
1.82244e-07
-1.01648e-06
1.78978e-07
-1.0494e-06
1.75459e-07
-1.08176e-06
1.71749e-07
-1.11355e-06
1.67897e-07
-1.14476e-06
1.63943e-07
-1.17541e-06
1.59921e-07
-1.20546e-06
1.55855e-07
-1.23492e-06
1.51765e-07
-1.26376e-06
1.47663e-07
-1.29198e-06
1.43558e-07
-1.31954e-06
1.39455e-07
-1.34645e-06
1.35357e-07
-1.37267e-06
1.31262e-07
-1.39819e-06
1.2717e-07
-1.42298e-06
1.23076e-07
-1.44704e-06
1.18977e-07
-1.47034e-06
1.1487e-07
-1.49285e-06
1.10749e-07
-1.51458e-06
1.0661e-07
-1.53548e-06
1.0245e-07
-1.55555e-06
9.82649e-08
-1.57477e-06
9.4052e-08
-1.59313e-06
8.98088e-08
-1.61059e-06
8.55336e-08
-1.62716e-06
8.12252e-08
-1.6428e-06
7.68829e-08
-1.65752e-06
7.25068e-08
-1.67129e-06
6.80974e-08
-1.6841e-06
6.36559e-08
-1.69594e-06
5.91838e-08
-1.7068e-06
5.46831e-08
-1.71667e-06
5.01563e-08
-1.72554e-06
4.56062e-08
-1.7334e-06
4.10359e-08
-1.74026e-06
3.6449e-08
-1.7461e-06
3.18492e-08
-1.75092e-06
2.72411e-08
-1.75473e-06
2.26292e-08
-1.75753e-06
1.8019e-08
-1.75931e-06
1.34165e-08
-1.76007e-06
8.82795e-09
-1.75983e-06
4.26006e-09
-1.75856e-06
-2.81598e-10
-1.75627e-06
-4.79321e-09
-1.75293e-06
-9.27689e-09
-1.74855e-06
-1.37376e-08
-1.74312e-06
-1.81796e-08
-1.73664e-06
-2.26035e-08
-1.72912e-06
-2.70083e-08
-1.72055e-06
-3.13919e-08
-1.71095e-06
-3.57516e-08
-1.70032e-06
-4.00844e-08
-1.68866e-06
-4.43876e-08
-1.67599e-06
-4.86582e-08
-1.66231e-06
-5.28932e-08
-1.64762e-06
-5.70899e-08
-1.63194e-06
-6.12457e-08
-1.61529e-06
-6.53579e-08
-1.59765e-06
-6.94242e-08
-1.57906e-06
-7.34422e-08
-1.55953e-06
-7.74098e-08
-1.53905e-06
-8.13249e-08
-1.51765e-06
-8.51856e-08
-1.49534e-06
-8.899e-08
-1.47214e-06
-9.27363e-08
-1.44805e-06
-9.64227e-08
-1.4231e-06
-1.00048e-07
-1.39729e-06
-1.03609e-07
-1.37064e-06
-1.07106e-07
-1.34318e-06
-1.10535e-07
-1.3149e-06
-1.13897e-07
-1.28584e-06
-1.17188e-07
-1.25601e-06