/*--------------------------------*- C++ -*----------------------------------*\
| =========                 |                                                 |
| \\      /  F ield         | OpenFOAM: The Open Source CFD Toolbox           |
|  \\    /   O peration     | Version:  2412                                  |
|   \\  /    A nd           | Website:  www.openfoam.com                      |
|    \\/     M anipulation  |                                                 |
\*---------------------------------------------------------------------------*/
FoamFile
{
    version     2.0;
    format      ascii;
    arch        "LSB;label=32;scalar=64";
    class       volVectorField;
    location    "0.29";
    object      U;
}
// * * * * * * * * * * * * * * * * * * * * * * * * * * * * * * * * * * * * * //

dimensions      [0 1 -1 0 0 0 0];

internalField   nonuniform List<vector> 
12225
(
(0.377183 -0.200896 0)
(0.543962 -0.0519274 0)
(0.711051 -0.0340154 0)
(0.893988 -0.0304781 0)
(1.05913 -0.0297487 0)
(1.20888 -0.0284546 0)
(1.3462 -0.0265208 0)
(1.47051 -0.0245784 0)
(1.58227 -0.0227696 0)
(1.68275 -0.0210775 0)
(1.77313 -0.0194996 0)
(1.85435 -0.0180277 0)
(1.92724 -0.0166404 0)
(1.99249 -0.0152956 0)
(2.05043 -0.0139692 0)
(2.10194 -0.0125089 0)
(2.14314 -0.0103399 0)
(2.19071 -0.0128214 0)
(0.933503 -0.0317784 0)
(1.05671 -0.058711 0)
(1.23665 -0.0689019 0)
(1.42156 -0.0644871 0)
(1.58554 -0.0618158 0)
(1.73444 -0.0589703 0)
(1.87135 -0.055569 0)
(1.99608 -0.0521825 0)
(2.10909 -0.0489412 0)
(2.21144 -0.0458526 0)
(2.30411 -0.0429309 0)
(2.38792 -0.0401621 0)
(2.46362 -0.037504 0)
(2.53182 -0.0348772 0)
(2.59294 -0.0322205 0)
(2.64732 -0.0290836 0)
(2.69449 -0.0260626 0)
(2.73638 -0.0158715 0)
(1.39962 -0.084682 0)
(1.49179 -0.105679 0)
(1.65466 -0.107239 0)
(1.82261 -0.101944 0)
(1.97269 -0.0979934 0)
(2.1104 -0.0936571 0)
(2.23778 -0.0887463 0)
(2.35453 -0.0838043 0)
(2.46099 -0.0790038 0)
(2.55793 -0.074391 0)
(2.64611 -0.0699917 0)
(2.7262 -0.0657868 0)
(2.79882 -0.0617169 0)
(2.86451 -0.0576745 0)
(2.92364 -0.0535278 0)
(2.97646 -0.048854 0)
(3.02315 -0.0436246 0)
(3.06301 -0.0340858 0)
(1.89741 -0.115425 0)
(1.94623 -0.14331 0)
(2.07521 -0.144986 0)
(2.21748 -0.140771 0)
(2.34799 -0.135784 0)
(2.46975 -0.130051 0)
(2.58355 -0.123703 0)
(2.68871 -0.117217 0)
(2.78529 -0.110832 0)
(2.87378 -0.104649 0)
(2.95468 -0.0987106 0)
(3.02849 -0.0929989 0)
(3.09567 -0.0874427 0)
(3.15665 -0.081912 0)
(3.21178 -0.0762248 0)
(3.26122 -0.0699569 0)
(3.30552 -0.0628152 0)
(3.34313 -0.0517962 0)
(2.43108 -0.125831 0)
(2.44051 -0.169894 0)
(2.52881 -0.177416 0)
(2.64003 -0.176178 0)
(2.74682 -0.171238 0)
(2.84905 -0.16474 0)
(2.9462 -0.157388 0)
(3.03705 -0.149691 0)
(3.1213 -0.141978 0)
(3.1991 -0.134423 0)
(3.27068 -0.1271 0)
(3.33634 -0.120001 0)
(3.39638 -0.113056 0)
(3.4511 -0.106123 0)
(3.50081 -0.0989923 0)
(3.54561 -0.0912548 0)
(3.58635 -0.0824754 0)
(3.62095 -0.0703831 0)
(2.99683 -0.123685 0)
(2.97698 -0.185374 0)
(3.02469 -0.201466 0)
(3.10204 -0.20496 0)
(3.18212 -0.201584 0)
(3.26199 -0.195269 0)
(3.33998 -0.187568 0)
(3.41427 -0.179179 0)
(3.48412 -0.170561 0)
(3.54932 -0.161979 0)
(3.60983 -0.153556 0)
(3.66573 -0.145312 0)
(3.71717 -0.137188 0)
(3.7643 -0.129046 0)
(3.80736 -0.120673 0)
(3.84641 -0.111699 0)
(3.88248 -0.101671 0)
(3.91302 -0.0890074 0)
(3.58832 -0.11451 0)
(3.5509 -0.190589 0)
(3.56321 -0.2159 0)
(3.60679 -0.225328 0)
(3.65876 -0.225019 0)
(3.71445 -0.219974 0)
(3.77143 -0.212702 0)
(3.82739 -0.204247 0)
(3.88114 -0.195238 0)
(3.93215 -0.186059 0)
(3.9801 -0.176902 0)
(4.02486 -0.167826 0)
(4.0664 -0.158802 0)
(4.10476 -0.149711 0)
(4.14006 -0.140361 0)
(4.17235 -0.130442 0)
(4.2027 -0.119561 0)
(4.22806 -0.106687 0)
(4.1988 -0.101769 0)
(4.15397 -0.187082 0)
(4.13919 -0.220716 0)
(4.15219 -0.236322 0)
(4.1767 -0.240155 0)
(4.20779 -0.237411 0)
(4.24284 -0.231383 0)
(4.27937 -0.223541 0)
(4.31587 -0.214719 0)
(4.35151 -0.205433 0)
(4.38575 -0.195965 0)
(4.41825 -0.186433 0)
(4.44883 -0.176845 0)
(4.4774 -0.167123 0)
(4.504 -0.15711 0)
(4.52858 -0.146574 0)
(4.55225 -0.135219 0)
(4.57141 -0.122418 0)
(4.82185 -0.0878121 0)
(4.77662 -0.176883 0)
(4.7439 -0.216855 0)
(4.73191 -0.237843 0)
(4.73179 -0.246143 0)
(4.73957 -0.246428 0)
(4.75306 -0.242355 0)
(4.77002 -0.235778 0)
(4.78883 -0.227727 0)
(4.80851 -0.218855 0)
(4.82835 -0.209539 0)
(4.84787 -0.199966 0)
(4.86675 -0.190199 0)
(4.88479 -0.180207 0)
(4.90193 -0.169887 0)
(4.91807 -0.159086 0)
(4.93425 -0.14762 0)
(4.94635 -0.135147 0)
(5.45146 -0.0741128 0)
(5.4095 -0.162019 0)
(5.36682 -0.205841 0)
(5.33654 -0.230663 0)
(5.31636 -0.242921 0)
(5.30385 -0.246442 0)
(5.29762 -0.244757 0)
(5.29603 -0.239942 0)
(5.29769 -0.233171 0)
(5.3016 -0.225198 0)
(5.307 -0.216489 0)
(5.31334 -0.207301 0)
(5.32021 -0.197757 0)
(5.32734 -0.187879 0)
(5.3346 -0.177627 0)
(5.34179 -0.166923 0)
(5.34991 -0.155694 0)
(5.35434 -0.143787 0)
(6.08167 -0.0613987 0)
(6.04411 -0.144182 0)
(5.99714 -0.189334 0)
(5.95494 -0.21618 0)
(5.92006 -0.231269 0)
(5.89157 -0.237649 0)
(5.86884 -0.238371 0)
(5.85102 -0.235527 0)
(5.83714 -0.230352 0)
(5.82639 -0.223641 0)
(5.8181 -0.215916 0)
(5.81173 -0.207492 0)
(5.80687 -0.198545 0)
(5.80319 -0.189151 0)
(5.80054 -0.17933 0)
(5.79865 -0.16907 0)
(5.79847 -0.158393 0)
(5.79494 -0.147278 0)
(6.65461 -0.0506073 0)
(6.62055 -0.126208 0)
(6.57305 -0.170589 0)
(6.52478 -0.197777 0)
(6.48114 -0.214238 0)
(6.44232 -0.222498 0)
(6.40817 -0.225055 0)
(6.37844 -0.223878 0)
(6.35267 -0.220187 0)
(6.33031 -0.214763 0)
(6.31089 -0.208134 0)
(6.29395 -0.200645 0)
(6.27914 -0.192504 0)
(6.26617 -0.183828 0)
(6.25487 -0.17468 0)
(6.24493 -0.165099 0)
(6.23731 -0.155147 0)
(6.22654 -0.144997 0)
(7.20973 -0.0406602 0)
(7.18016 -0.107396 0)
(7.13447 -0.149612 0)
(7.08343 -0.176145 0)
(7.03446 -0.192985 0)
(6.98882 -0.202366 0)
(6.94662 -0.206248 0)
(6.908 -0.206403 0)
(6.87294 -0.204006 0)
(6.8412 -0.199799 0)
(6.81251 -0.194284 0)
(6.78657 -0.187809 0)
(6.76312 -0.180597 0)
(6.74193 -0.172792 0)
(6.72285 -0.164485 0)
(6.70558 -0.155757 0)
(6.69104 -0.146676 0)
(6.67362 -0.137628 0)
(7.81811 -0.0310716 0)
(7.79338 -0.0861316 0)
(7.75173 -0.12385 0)
(7.70083 -0.148311 0)
(7.64927 -0.16435 0)
(7.59955 -0.173984 0)
(7.552 -0.17864 0)
(7.507 -0.179761 0)
(7.46483 -0.178431 0)
(7.42558 -0.175339 0)
(7.38917 -0.170946 0)
(7.35548 -0.165572 0)
(7.32436 -0.159442 0)
(7.29569 -0.152709 0)
(7.26937 -0.14548 0)
(7.24516 -0.137854 0)
(7.22389 -0.129924 0)
(7.20008 -0.122157 0)
(8.45855 -0.0222981 0)
(8.43893 -0.0637717 0)
(8.40342 -0.0942593 0)
(8.3561 -0.114681 0)
(8.30536 -0.128328 0)
(8.25484 -0.13694 0)
(8.20528 -0.141487 0)
(8.15716 -0.142969 0)
(8.11103 -0.142262 0)
(8.06723 -0.13997 0)
(8.02584 -0.136492 0)
(7.98689 -0.13211 0)
(7.95035 -0.127032 0)
(7.91618 -0.121408 0)
(7.88436 -0.115353 0)
(7.8547 -0.108968 0)
(7.82799 -0.102348 0)
(7.79912 -0.0959837 0)
(9.08866 -0.014374 0)
(9.07383 -0.0417443 0)
(9.04561 -0.062858 0)
(9.00497 -0.0772079 0)
(8.95897 -0.0866402 0)
(8.91169 -0.0925251 0)
(8.86421 -0.0955546 0)
(8.81708 -0.0963394 0)
(8.77099 -0.0954739 0)
(8.72647 -0.0934049 0)
(8.68381 -0.0904298 0)
(8.64315 -0.0867586 0)
(8.60456 -0.0825518 0)
(8.56807 -0.0779343 0)
(8.53372 -0.0730074 0)
(8.50137 -0.0678666 0)
(8.47174 -0.0625809 0)
(8.4405 -0.0576581 0)
(9.63295 -0.00707647 0)
(9.6217 -0.0207167 0)
(9.59988 -0.0314132 0)
(9.5666 -0.0384027 0)
(9.52747 -0.0424465 0)
(9.48645 -0.0443762 0)
(9.44473 -0.0446424 0)
(9.40277 -0.0435839 0)
(9.36114 -0.0415437 0)
(9.32042 -0.0388051 0)
(9.28098 -0.0355639 0)
(9.24301 -0.0319572 0)
(9.20664 -0.0280929 0)
(9.17196 -0.0240616 0)
(9.13903 -0.0199368 0)
(9.10778 -0.0157988 0)
(9.07875 -0.0116616 0)
(9.04896 -0.00801896 0)
(9.96404 0.000104297 0)
(9.95459 0.000154101 0)
(9.93649 0.000608209 0)
(9.90812 0.00184906 0)
(9.87423 0.0037887 0)
(9.83859 0.00623574 0)
(9.80247 0.00908576 0)
(9.76622 0.0122671 0)
(9.7303 0.0156957 0)
(9.6952 0.0192907 0)
(9.66123 0.0229896 0)
(9.62855 0.0267426 0)
(9.59722 0.0305041 0)
(9.56728 0.0342259 0)
(9.53876 0.0378659 0)
(9.51162 0.0413602 0)
(9.48601 0.0447336 0)
(9.46094 0.0475708 0)
(9.87499 0.00747095 0)
(9.86688 0.0217909 0)
(9.84987 0.0342002 0)
(9.82249 0.0443961 0)
(9.78959 0.0528027 0)
(9.75498 0.0599024 0)
(9.71993 0.0659923 0)
(9.68483 0.0712875 0)
(9.65014 0.0759848 0)
(9.61636 0.0802432 0)
(9.58381 0.0841706 0)
(9.55263 0.0878351 0)
(9.52287 0.0912792 0)
(9.49456 0.0945258 0)
(9.46768 0.0975841 0)
(9.44224 0.100436 0)
(9.41796 0.103118 0)
(9.39589 0.10535 0)
(9.28437 0.0159164 0)
(9.27065 0.0461918 0)
(9.24578 0.0711732 0)
(9.2098 0.0903928 0)
(9.16896 0.10521 0)
(9.12725 0.116827 0)
(9.08575 0.125926 0)
(9.04487 0.133048 0)
(9.00514 0.138707 0)
(8.96707 0.143308 0)
(8.93092 0.147127 0)
(8.89675 0.150357 0)
(8.86459 0.153136 0)
(8.83441 0.155563 0)
(8.80611 0.15771 0)
(8.77968 0.159626 0)
(8.75462 0.16136 0)
(8.73295 0.162766 0)
(8.47101 0.0260887 0)
(8.45236 0.0738037 0)
(8.4197 0.11034 0)
(8.37625 0.136873 0)
(8.32995 0.15652 0)
(8.28452 0.171129 0)
(8.24067 0.181733 0)
(8.19873 0.18929 0)
(8.15917 0.194661 0)
(8.12227 0.198471 0)
(8.08809 0.201146 0)
(8.05655 0.202995 0)
(8.02753 0.204246 0)
(8.0009 0.20507 0)
(7.97649 0.205594 0)
(7.95418 0.205913 0)
(7.93346 0.206088 0)
(7.91636 0.206075 0)
(7.51239 0.0385223 0)
(7.4866 0.1045 0)
(7.44644 0.150223 0)
(7.39953 0.18135 0)
(7.35393 0.203327 0)
(7.31179 0.218453 0)
(7.27312 0.228253 0)
(7.23799 0.234269 0)
(7.20651 0.237711 0)
(7.17857 0.239383 0)
(7.15389 0.239824 0)
(7.13219 0.239425 0)
(7.11317 0.238472 0)
(7.09657 0.237167 0)
(7.08209 0.235654 0)
(7.06956 0.234039 0)
(7.05846 0.232379 0)
(7.05052 0.230697 0)
(6.48931 0.0542242 0)
(6.45655 0.1369 0)
(6.41294 0.186946 0)
(6.37062 0.218549 0)
(6.33486 0.239384 0)
(6.30523 0.252031 0)
(6.281 0.258732 0)
(6.26177 0.261568 0)
(6.24694 0.261926 0)
(6.23585 0.26066 0)
(6.22789 0.258353 0)
(6.22254 0.255415 0)
(6.21936 0.252132 0)
(6.21797 0.248696 0)
(6.21805 0.245234 0)
(6.21937 0.241836 0)
(6.22149 0.238548 0)
(6.2258 0.235426 0)
(5.45712 0.073389 0)
(5.41829 0.166488 0)
(5.37867 0.214113 0)
(5.35275 0.241937 0)
(5.33861 0.258325 0)
(5.33243 0.266081 0)
(5.33265 0.268254 0)
(5.33802 0.267176 0)
(5.34715 0.264161 0)
(5.35895 0.259994 0)
(5.37265 0.255206 0)
(5.38768 0.250151 0)
(5.40358 0.245054 0)
(5.42001 0.240055 0)
(5.43672 0.235239 0)
(5.45353 0.230658 0)
(5.47013 0.226335 0)
(5.48764 0.222333 0)
(4.45282 0.0947768 0)
(4.41205 0.187409 0)
(4.39047 0.225931 0)
(4.39658 0.246391 0)
(4.41646 0.255913 0)
(4.44331 0.257815 0)
(4.47522 0.255565 0)
(4.51029 0.251178 0)
(4.54683 0.245634 0)
(4.5838 0.239529 0)
(4.62056 0.23326 0)
(4.6567 0.227068 0)
(4.69194 0.221094 0)
(4.72611 0.215415 0)
(4.75909 0.210068 0)
(4.79086 0.205069 0)
(4.82126 0.200419 0)
(4.85124 0.196183 0)
(3.50293 0.114452 0)
(3.47301 0.192919 0)
(3.48912 0.217646 0)
(3.54118 0.228884 0)
(3.60258 0.231458 0)
(3.66646 0.228823 0)
(3.73174 0.223817 0)
(3.79669 0.217708 0)
(3.85992 0.211097 0)
(3.92078 0.204384 0)
(3.97901 0.197822 0)
(4.03449 0.191552 0)
(4.0872 0.185644 0)
(4.13718 0.180127 0)
(4.18454 0.175003 0)
(4.2294 0.170263 0)
(4.27177 0.165894 0)
(4.3125 0.161968 0)
(2.62982 0.122983 0)
(2.63207 0.176388 0)
(2.70177 0.187968 0)
(2.80469 0.191083 0)
(2.90732 0.189109 0)
(3.00602 0.184591 0)
(3.10158 0.178916 0)
(3.19301 0.172732 0)
(3.27948 0.166438 0)
(3.36086 0.16029 0)
(3.43729 0.154432 0)
(3.50898 0.148938 0)
(3.57619 0.143834 0)
(3.6392 0.13912 0)
(3.69829 0.134779 0)
(3.75378 0.130791 0)
(3.80582 0.127132 0)
(3.85518 0.123896 0)
(1.85178 0.104826 0)
(1.90638 0.134438 0)
(2.03033 0.141897 0)
(2.17812 0.140513 0)
(2.31585 0.137036 0)
(2.44341 0.13292 0)
(2.56364 0.128101 0)
(2.67646 0.122989 0)
(2.78152 0.117942 0)
(2.87912 0.113115 0)
(2.96978 0.10858 0)
(3.05404 0.104374 0)
(3.1324 0.1005 0)
(3.20533 0.0969472 0)
(3.27332 0.0936935 0)
(3.33679 0.0907158 0)
(3.39606 0.0879788 0)
(3.45188 0.0855894 0)
(1.17533 0.04169 0)
(1.28238 0.0661055 0)
(1.43868 0.0889866 0)
(1.61658 0.0891767 0)
(1.78033 0.0862297 0)
(1.92914 0.0833308 0)
(2.0674 0.0798333 0)
(2.19581 0.076117 0)
(2.31429 0.0725273 0)
(2.4234 0.0691486 0)
(2.52403 0.0660061 0)
(2.61695 0.0631156 0)
(2.70288 0.0604735 0)
(2.78247 0.0580637 0)
(2.85633 0.0558658 0)
(2.925 0.0538627 0)
(2.98891 0.0519929 0)
(3.04877 0.0503555 0)
(0.469485 0.226529 0)
(0.642364 0.069163 0)
(0.788937 0.0480256 0)
(0.972451 0.0444101 0)
(1.14912 0.0429718 0)
(1.30915 0.041679 0)
(1.45686 0.0396461 0)
(1.59323 0.0373308 0)
(1.71806 0.0351127 0)
(1.83211 0.0330647 0)
(1.93654 0.0311825 0)
(2.03239 0.0294641 0)
(2.12053 0.0279028 0)
(2.20174 0.0264859 0)
(2.27672 0.0251973 0)
(2.34611 0.0240301 0)
(2.41043 0.022931 0)
(2.46998 0.0219788 0)
(0.0082138 -0.0168593 -2.69163e-20)
(0.0265783 -0.0284349 2.62806e-20)
(0.0457953 -0.0297596 0)
(0.0619962 -0.0254439 0)
(0.0728468 -0.018284 0)
(0.078095 -0.0101277 -2.4653e-20)
(0.0776566 -0.00229632 0)
(0.0722635 0.00417059 0)
(0.0631169 0.00882419 0)
(0.0510645 0.0118529 0)
(0.0367054 0.0138025 2.40871e-20)
(0.0203758 0.0152462 0)
(0.00215182 0.0166009 0)
(-0.0180514 0.0181454 0)
(-0.0404303 0.020041 0)
(-0.0652214 0.0223343 2.28547e-20)
(-0.0926229 0.0249946 0)
(-0.122786 0.0279488 0)
(-0.155794 0.0311028 0)
(-0.191656 0.0343489 0)
(-0.230299 0.0375718 0)
(-0.271577 0.0406566 0)
(-0.31527 0.043497 0)
(-0.361102 0.0460035 1.94471e-20)
(-0.408755 0.048108 -1.90573e-20)
(-0.457878 0.0497672 1.86838e-20)
(-0.508113 0.0509626 1.83279e-20)
(-0.559105 0.0517003 0)
(-0.610526 0.0520106 0)
(-0.662065 0.0519468 -1.73702e-20)
(-0.71342 0.0515767 -1.70864e-20)
(-0.764384 0.0509681 0)
(-0.814816 0.0501642 0)
(-0.864548 0.0491923 -1.63286e-20)
(-0.913457 0.0480861 0)
(-0.961442 0.0468769 0)
(-1.00843 0.0455929 1.56909e-20)
(-1.05435 0.0442583 0)
(-1.09918 0.042893 1.53168e-20)
(-1.14287 0.041513 3.02838e-20)
(-1.18543 0.0401308 0)
(-1.22683 0.0387553 0)
(-1.26707 0.037393 0)
(-1.30616 0.036048 0)
(-1.34409 0.034723 0)
(-1.38088 0.0334188 2.84127e-20)
(-1.41653 0.0321358 2.81252e-20)
(-1.45103 0.0308732 2.78415e-20)
(-1.4844 0.0296302 0)
(-1.51664 0.0284054 -2.72814e-20)
(-1.54774 0.0271975 0)
(-1.57772 0.026005 2.67255e-20)
(-1.60656 0.0248266 2.64471e-20)
(-1.63426 0.0236612 0)
(-1.66082 0.0225076 0)
(-1.68624 0.0213649 0)
(-1.71051 0.0202323 2.53156e-20)
(-1.73362 0.0191091 0)
(-1.75556 0.0179946 0)
(-1.77634 0.0168882 0)
(-1.79594 0.0157891 0)
(-1.81435 0.0146966 0)
(-1.83157 0.0136094 0)
(-1.84759 0.012526 0)
(-1.8624 0.0114444 0)
(-1.87599 0.0103619 -2.25302e-20)
(-1.88835 0.00927522 0)
(-1.89946 0.00818041 0)
(-1.90932 0.00707253 2.14946e-20)
(-1.91789 0.00594652 2.11357e-20)
(-1.92514 0.0047989 0)
(-1.93106 0.00363294 -2.03971e-20)
(-1.93561 0.00246758 2.00176e-20)
(-1.93871 0.00134201 0)
(-1.94032 0.000304934 -1.92356e-20)
(-1.94061 -0.000601013 0)
(-1.93982 -0.00139554 0)
(-1.93792 -0.0021432 1.79941e-20)
(-1.93494 -0.00286405 0)
(-1.93089 -0.00356691 -1.7125e-20)
(-1.92578 -0.00425507 0)
(-1.91962 -0.00492991 1.62227e-20)
(-1.91242 -0.00559191 1.57591e-20)
(-1.90418 -0.00624119 1.52874e-20)
(-1.89491 -0.0068777 2.96154e-20)
(-1.88461 -0.00750135 -2.864e-20)
(-1.87329 -0.00811205 0)
(-1.86096 -0.00870969 0)
(-1.84763 -0.00929418 0)
(-1.8333 -0.00986546 -2.4585e-20)
(-1.81799 -0.0104235 -2.35344e-20)
(-1.80171 -0.0109682 2.24698e-20)
(-1.78446 -0.0114995 0)
(-1.76626 -0.0120176 -2.03e-20)
(-1.74712 -0.0125222 -1.91958e-20)
(-1.72705 -0.0130136 -1.80792e-20)
(-1.70606 -0.0134915 0)
(-1.68417 -0.0139561 0)
(-1.66138 -0.0144073 0)
(-1.63771 -0.0148452 -1.34999e-20)
(-1.61318 -0.0152697 0)
(-1.58779 -0.0156808 0)
(-1.56157 -0.0160786 9.96225e-21)
(-1.53452 -0.016463 0)
(-1.50666 -0.016834 0)
(-1.47802 -0.0171916 6.35434e-21)
(-1.44859 -0.0175357 0)
(-1.41841 -0.0178663 0)
(-1.38748 -0.0181833 -2.69422e-21)
(-1.35583 -0.0184866 -1.4659e-21)
(-1.32346 -0.0187762 0)
(-1.29041 -0.0190521 -9.98644e-22)
(-1.25669 -0.019314 0)
(-1.22232 -0.019562 3.46854e-21)
(-1.18732 -0.019796 0)
(-1.15171 -0.0200158 5.93736e-21)
(-1.11551 -0.0202214 7.16931e-21)
(-1.07874 -0.0204127 0)
(-1.04142 -0.0205895 0)
(-1.00359 -0.0207519 0)
(-0.96525 -0.0208997 0)
(-0.92644 -0.0210329 0)
(-0.887179 -0.0211514 0)
(-0.847491 -0.0212553 0)
(-0.807403 -0.0213443 1.68536e-20)
(-0.766939 -0.0214187 -1.80298e-20)
(-0.726127 -0.0214783 0)
(-0.684992 -0.0215231 0)
(-0.643561 -0.0215533 0)
(-0.601861 -0.0215688 0)
(-0.55992 -0.0215697 -4.74737e-20)
(-0.517765 -0.0215561 0)
(-0.475423 -0.021528 5.18463e-20)
(-0.432924 -0.0214854 -5.39851e-20)
(-0.390295 -0.0214285 0)
(-0.347566 -0.0213571 0)
(-0.304764 -0.0212711 0)
(-0.261921 -0.0211702 6.21897e-20)
(-0.219067 -0.021054 6.41468e-20)
(-0.176234 -0.020921 0)
(-0.133455 -0.0207675 6.79395e-20)
(-0.0907627 -0.0205913 6.97735e-20)
(-0.0481876 -0.0203895 -7.15652e-20)
(-0.00575756 -0.0201378 0)
(0.0364394 -0.0197986 0)
(0.0784063 -0.019417 -7.49491e-20)
(0.12013 -0.0190394 0)
(0.161592 -0.0186714 0)
(0.202786 -0.0183103 0)
(0.243704 -0.0179537 0)
(0.284337 -0.0176004 7.7786e-20)
(0.324674 -0.0172494 7.82092e-20)
(0.364705 -0.0169007 0)
(0.404419 -0.0165543 7.8927e-20)
(0.443805 -0.0162104 0)
(0.482853 -0.0158693 0)
(0.521555 -0.0155314 7.97092e-20)
(0.559904 -0.0151971 0)
(0.597893 -0.0148669 8.00538e-20)
(0.635517 -0.014541 0)
(0.672772 -0.0142197 0)
(0.709655 -0.0139034 8.03353e-20)
(0.746162 -0.0135921 0)
(0.782293 -0.0132857 8.03818e-20)
(0.818045 -0.0129839 0)
(0.853414 -0.0126861 0)
(0.888395 -0.0123912 0)
(0.922977 -0.0120973 -8.01807e-20)
(0.957145 -0.0118018 0)
(0.990871 -0.0115002 7.99541e-20)
(1.02411 -0.011186 0)
(1.0568 -0.0108485 0)
(1.08881 -0.0104706 0)
(1.11996 -0.0100229 0)
(1.14995 -0.0094482 0)
(1.17805 -0.00863946 0)
(1.20356 -0.00727529 0)
(1.22184 -0.00458172 -1.58028e-19)
(1.23573 0.0025624 0)
(1.18985 0.0176745 0)
(0.00979561 -0.0563096 7.93596e-20)
(0.0226103 -0.0623548 -7.50355e-20)
(0.0276609 -0.0486144 0)
(0.0275874 -0.0318525 4.47169e-20)
(0.0233989 -0.015063 0)
(0.0156685 0.000678079 2.11594e-20)
(0.0050119 0.0146941 -4.15917e-20)
(-0.00852689 0.0265806 -4.08876e-20)
(-0.0251001 0.0363439 0)
(-0.0447584 0.0444063 -3.93323e-20)
(-0.0675253 0.0513775 -1.93133e-20)
(-0.0933925 0.0578415 0)
(-0.122326 0.0642258 0)
(-0.154263 0.0707766 0)
(-0.189106 0.0775899 0)
(-0.226725 0.0846354 -1.74059e-20)
(-0.266949 0.0917877 0)
(-0.309559 0.0988683 3.32107e-20)
(-0.354279 0.105677 0)
(-0.400792 0.112016 0)
(-0.448744 0.117706 -3.10516e-20)
(-0.497765 0.122601 0)
(-0.547481 0.126594 2.97235e-20)
(-0.597533 0.129622 -1.45939e-20)
(-0.647588 0.131667 1.42968e-20)
(-0.69735 0.13275 -1.40157e-20)
(-0.746565 0.132928 -1.37507e-20)
(-0.795029 0.132284 0)
(-0.842583 0.130919 0)
(-0.889107 0.128952 1.30488e-20)
(-0.934515 0.126506 -1.27753e-20)
(-0.978743 0.123694 0)
(-1.02175 0.120603 0)
(-1.06351 0.117304 1.22964e-20)
(-1.10404 0.113862 0)
(-1.14333 0.110329 0)
(-1.18141 0.106751 -1.18319e-20)
(-1.21831 0.103163 0)
(-1.25405 0.0995922 1.14849e-20)
(-1.28866 0.0960597 -2.28513e-20)
(-1.32217 0.0925793 0)
(-1.3546 0.08916 0)
(-1.38597 0.0858069 -4.40895e-20)
(-1.41631 0.0825219 -4.36239e-20)
(-1.44562 0.0793044 -4.31673e-20)
(-1.47393 0.0761523 2.12892e-20)
(-1.50124 0.0730625 -2.12059e-20)
(-1.52757 0.0700311 -6.28203e-20)
(-1.55291 0.0670539 4.13991e-20)
(-1.57727 0.0641268 2.05465e-20)
(-1.60065 0.0612457 0)
(-1.62305 0.0584069 -2.01084e-20)
(-1.64447 0.0556072 1.97725e-20)
(-1.6649 0.0528436 0)
(-1.68435 0.0501137 0)
(-1.70281 0.0474155 0)
(-1.72027 0.0447474 -1.89904e-20)
(-1.73673 0.0421081 0)
(-1.75218 0.0394967 3.69701e-20)
(-1.76662 0.0369126 0)
(-1.78004 0.0343552 3.60276e-20)
(-1.79244 0.0318242 0)
(-1.80382 0.0293192 -3.50549e-20)
(-1.81416 0.0268397 0)
(-1.82347 0.024385 3.40486e-20)
(-1.83173 0.0219543 -1.67499e-20)
(-1.83897 0.0195462 0)
(-1.84516 0.0171593 -3.24706e-20)
(-1.85033 0.0147916 -1.5967e-20)
(-1.85447 0.0124413 -1.56854e-20)
(-1.85762 0.0101059 0)
(-1.8598 0.00778538 -1.5122e-20)
(-1.86106 0.00549052 -1.48106e-20)
(-1.86149 0.00325375 0)
(-1.86115 0.00112213 1.41974e-20)
(-1.85995 -0.000883108 -2.78042e-20)
(-1.85774 -0.00278251 0)
(-1.85452 -0.00461522 -1.3234e-20)
(-1.85026 -0.00639701 0)
(-1.84497 -0.00813662 3.7769e-20)
(-1.83865 -0.00983757 0)
(-1.8313 -0.0115013 -3.57166e-20)
(-1.82292 -0.013128 -1.15239e-20)
(-1.81352 -0.0147178 1.12695e-20)
(-1.8031 -0.0162702 2.18292e-20)
(-1.79167 -0.017785 -2.11093e-20)
(-1.77924 -0.0192619 0)
(-1.76582 -0.0207004 0)
(-1.75141 -0.0221005 0)
(-1.73602 -0.023462 5.3816e-20)
(-1.71965 -0.0247847 1.70608e-20)
(-1.70233 -0.0260686 -1.62721e-20)
(-1.68406 -0.0273137 0)
(-1.66485 -0.0285201 -1.50155e-20)
(-1.64471 -0.0296878 1.38587e-20)
(-1.62365 -0.0308168 1.30395e-20)
(-1.60169 -0.0319074 0)
(-1.57883 -0.0329595 0)
(-1.55509 -0.0339734 0)
(-1.53048 -0.0349491 9.699e-21)
(-1.50502 -0.0358869 0)
(-1.47871 -0.0367868 -1.64256e-20)
(-1.45158 -0.037649 -2.18557e-20)
(-1.42363 -0.0384737 1.30028e-20)
(-1.39489 -0.0392611 0)
(-1.36537 -0.0400111 5.01012e-21)
(-1.33508 -0.0407241 0)
(-1.30404 -0.0413999 6.07599e-21)
(-1.27226 -0.0420388 -2.41266e-21)
(-1.23977 -0.0426408 -1.54313e-21)
(-1.20658 -0.043206 0)
(-1.17272 -0.0437344 1.61855e-21)
(-1.13819 -0.0442262 -2.65625e-21)
(-1.10302 -0.0446815 -2.46227e-21)
(-1.06723 -0.0451002 0)
(-1.03083 -0.0454825 -4.20872e-21)
(-0.993862 -0.0458284 -1.47008e-20)
(-0.956332 -0.046138 0)
(-0.918265 -0.0464115 -1.30758e-20)
(-0.879686 -0.0466491 -1.47913e-20)
(-0.840616 -0.0468508 -1.64981e-20)
(-0.801079 -0.0470169 0)
(-0.761101 -0.0471475 0)
(-0.720705 -0.047243 0)
(-0.679917 -0.0473037 1.13336e-20)
(-0.638762 -0.0473297 1.27051e-20)
(-0.597266 -0.0473216 0)
(-0.555456 -0.0472798 2.81094e-20)
(-0.513358 -0.0472046 2.9708e-20)
(-0.470999 -0.0470965 0)
(-0.428407 -0.0469561 3.33902e-20)
(-0.385608 -0.0467838 6.8784e-20)
(-0.342631 -0.0465802 -3.6447e-20)
(-0.299503 -0.0463458 -3.68825e-20)
(-0.256252 -0.046081 0)
(-0.212907 -0.0457861 0)
(-0.169496 -0.0454613 0)
(-0.126048 -0.0451064 -4.36918e-20)
(-0.0825936 -0.0447201 4.40542e-20)
(-0.0391611 -0.0443012 9.18303e-20)
(0.00421853 -0.043848 -4.76089e-20)
(0.0475142 -0.0433596 4.75836e-20)
(0.0906974 -0.0428403 4.93661e-20)
(0.133742 -0.0422932 0)
(0.17662 -0.0417051 0)
(0.219322 -0.0410821 -5.07792e-20)
(0.261826 -0.040447 0)
(0.304111 -0.0398102 0)
(0.346159 -0.0391735 1.06571e-19)
(0.387956 -0.0385359 0)
(0.429487 -0.0378968 5.41073e-20)
(0.470739 -0.0372559 -5.54261e-20)
(0.511701 -0.0366135 0)
(0.55236 -0.0359701 5.57145e-20)
(0.592705 -0.0353266 0)
(0.632729 -0.0346839 0)
(0.67242 -0.0340432 -5.77058e-20)
(0.711774 -0.0334055 1.15526e-19)
(0.750783 -0.0327718 -5.84247e-20)
(0.789442 -0.0321432 0)
(0.827748 -0.0315206 0)
(0.865698 -0.0309045 5.87583e-20)
(0.903289 -0.0302954 0)
(0.940521 -0.0296932 5.927e-20)
(0.977391 -0.0290974 0)
(1.0139 -0.0285067 0)
(1.05003 -0.0279186 0)
(1.08578 -0.0273291 6.04952e-20)
(1.12114 -0.0267317 0)
(1.15608 -0.0261165 -6.07328e-20)
(1.19055 -0.0254679 0)
(1.22449 -0.0247614 0)
(1.25779 -0.0239567 1.21576e-19)
(1.29027 -0.0229858 -1.21724e-19)
(1.32163 -0.0217188 0)
(1.35133 -0.0199141 0)
(1.37873 -0.0169359 0)
(1.40114 -0.011607 3.68832e-19)
(1.42115 0.00070122 0)
(1.42358 0.0255318 -2.495e-19)
(0.00386525 -0.0792766 -9.39296e-23)
(0.00362564 -0.0648354 9.65896e-20)
(-0.00354381 -0.0388757 0)
(-0.0136643 -0.0144101 -8.1394e-20)
(-0.0263928 0.00810515 0)
(-0.0414453 0.0286456 0)
(-0.0587434 0.047265 3.65384e-23)
(-0.0783455 0.064029 3.46993e-20)
(-0.100401 0.0790704 3.38528e-20)
(-0.125062 0.0926657 3.31415e-20)
(-0.152419 0.1052 0)
(-0.182463 0.117058 0)
(-0.215092 0.128532 -3.09414e-20)
(-0.250119 0.139767 -6.04729e-20)
(-0.287291 0.150764 5.908e-20)
(-0.326307 0.161412 0)
(-0.366837 0.171526 5.63601e-20)
(-0.408534 0.180886 -2.75484e-20)
(-0.451049 0.189275 0)
(-0.494046 0.196502 5.25092e-20)
(-0.537216 0.202421 2.56634e-20)
(-0.580285 0.20694 -5.01406e-20)
(-0.623022 0.210025 -2.45154e-20)
(-0.665244 0.211697 0)
(-0.706812 0.212024 4.69384e-20)
(-0.747629 0.211116 4.59684e-20)
(-0.787634 0.209108 0)
(-0.826796 0.206154 4.4172e-20)
(-0.865105 0.202413 0)
(-0.902562 0.198043 4.25563e-20)
(-0.939176 0.193193 2.09096e-20)
(-0.974957 0.187994 0)
(-1.00992 0.182553 0)
(-1.04407 0.176962 0)
(-1.07742 0.171293 0)
(-1.11 0.165605 0)
(-1.14181 0.159943 0)
(-1.17287 0.154341 3.75103e-20)
(-1.20318 0.148823 -5.55276e-20)
(-1.23274 0.143403 0)
(-1.26156 0.138091 0)
(-1.28963 0.132889 0)
(-1.31697 0.127798 7.74819e-23)
(-1.34355 0.122815 3.47557e-20)
(-1.36938 0.117935 6.85774e-20)
(-1.39445 0.11315 -6.77394e-20)
(-1.41875 0.108456 -3.34166e-20)
(-1.44227 0.103843 3.30925e-20)
(-1.465 0.0993068 -8.13001e-23)
(-1.48693 0.0948397 3.22121e-20)
(-1.50805 0.0904363 0)
(-1.52836 0.0860913 3.14255e-20)
(-1.54782 0.0818004 -7.41271e-23)
(-1.56644 0.0775598 0)
(-1.58421 0.0733665 0)
(-1.6011 0.0692183 -2.98615e-20)
(-1.61711 0.0651133 0)
(-1.63222 0.0610506 0)
(-1.64644 0.0570294 2.8622e-20)
(-1.65973 0.0530495 5.65493e-20)
(-1.67211 0.0491109 -2.79151e-20)
(-1.68355 0.045214 0)
(-1.69404 0.0413595 2.70852e-20)
(-1.70359 0.0375481 0)
(-1.71219 0.0337808 2.61862e-20)
(-1.71983 0.0300588 2.58045e-20)
(-1.72651 0.0263836 -5.07047e-20)
(-1.73223 0.0227574 -2.49052e-20)
(-1.73699 0.0191834 0)
(-1.7408 0.0156667 4.80441e-20)
(-1.74368 0.0122146 0)
(-1.74562 0.00883705 6.93058e-20)
(-1.74664 0.00554707 4.52779e-20)
(-1.74675 0.00235639 4.43199e-20)
(-1.74592 -0.000733683 -4.33423e-20)
(-1.74412 -0.00374561 6.34966e-20)
(-1.74133 -0.00669818 0)
(-1.73754 -0.00959136 0)
(-1.73276 -0.0124257 -3.93174e-20)
(-1.72697 -0.0152015 -5.73596e-20)
(-1.72018 -0.0179186 0)
(-1.7124 -0.0205765 1.80111e-20)
(-1.70362 -0.0231745 0)
(-1.69385 -0.0257121 -5.09086e-20)
(-1.68309 -0.0281884 1.72658e-22)
(-1.67136 -0.0306029 -1.8342e-22)
(-1.65865 -0.0329548 3.06454e-20)
(-1.64497 -0.0352438 0)
(-1.63034 -0.0374694 -2.83538e-20)
(-1.61475 -0.0396315 2.24883e-22)
(-1.59822 -0.0417297 0)
(-1.58076 -0.0437641 0)
(-1.56237 -0.0457346 0)
(-1.54307 -0.0476412 2.21717e-20)
(-1.52287 -0.0494842 0)
(-1.50177 -0.0512637 0)
(-1.47979 -0.0529798 0)
(-1.45694 -0.0546328 0)
(-1.43323 -0.0562229 0)
(-1.40867 -0.0577502 1.50359e-20)
(-1.38328 -0.0592152 0)
(-1.35707 -0.0606179 1.21857e-20)
(-1.33006 -0.0619588 1.09106e-20)
(-1.30225 -0.063238 -9.63141e-21)
(-1.27367 -0.064456 0)
(-1.24432 -0.0656128 -7.06352e-21)
(-1.21423 -0.0667089 0)
(-1.18341 -0.0677442 -4.48723e-21)
(-1.15187 -0.0687191 3.19759e-21)
(-1.11963 -0.0696337 6.48009e-21)
(-1.08671 -0.0704882 0)
(-1.05313 -0.0712828 -1.23235e-21)
(-1.01891 -0.0720177 -1.17166e-21)
(-0.984062 -0.0726931 0)
(-0.948608 -0.0733091 -8.23772e-21)
(-0.912569 -0.073866 -1.07826e-20)
(-0.875964 -0.074364 2.03828e-20)
(-0.838816 -0.0748033 0)
(-0.801146 -0.0751842 9.58863e-21)
(-0.762976 -0.0755071 1.08407e-20)
(-0.724329 -0.0757723 3.54291e-20)
(-0.685228 -0.0759801 0)
(-0.645698 -0.0761311 0)
(-0.605761 -0.0762257 0)
(-0.565443 -0.0762646 1.61407e-20)
(-0.524769 -0.0762483 0)
(-0.483764 -0.0761775 0)
(-0.442454 -0.0760531 -2.05259e-20)
(-0.400865 -0.0758758 -2.16853e-20)
(-0.359024 -0.0756465 0)
(-0.316956 -0.0753661 0)
(-0.27469 -0.0750355 -5.01612e-20)
(-0.232251 -0.0746557 0)
(-0.189668 -0.0742277 5.45394e-20)
(-0.146966 -0.0737522 5.58787e-20)
(-0.104175 -0.0732298 0)
(-0.061321 -0.0726611 0)
(-0.0184321 -0.0720465 -6.21075e-20)
(0.0244638 -0.0713863 -7.70903e-22)
(0.0673385 -0.0706801 -7.57662e-22)
(0.110165 -0.0699276 0)
(0.152915 -0.0691301 -1.37446e-19)
(0.195565 -0.0682921 0)
(0.238093 -0.0674216 0)
(0.280492 -0.0665235 0)
(0.322744 -0.0655995 7.43779e-20)
(0.364826 -0.0646571 0)
(0.406712 -0.0637033 -1.52317e-19)
(0.448381 -0.0627412 -7.79554e-20)
(0.489813 -0.061772 0)
(0.530991 -0.0607963 -8.01198e-20)
(0.571902 -0.0598147 0)
(0.612531 -0.0588283 0)
(0.652867 -0.0578386 -2.48015e-19)
(0.6929 -0.0568469 1.66784e-19)
(0.732619 -0.0558552 0)
(0.772016 -0.0548652 1.70173e-19)
(0.811085 -0.0538786 -8.63804e-20)
(0.849818 -0.0528973 0)
(0.888213 -0.0519229 0)
(0.926265 -0.0509568 0)
(0.963971 -0.0500001 -2.66448e-19)
(1.00133 -0.0490534 0)
(1.03834 -0.0481168 -9.02768e-20)
(1.075 -0.0471895 0)
(1.11131 -0.0462693 0)
(1.14726 -0.0453523 0)
(1.18284 -0.0444322 0)
(1.21805 -0.0434987 0)
(1.25284 -0.0425361 0)
(1.2872 -0.0415201 -1.86025e-19)
(1.32104 -0.0404121 0)
(1.35427 -0.0391502 -9.40171e-20)
(1.38674 -0.0376309 2.82364e-19)
(1.41819 -0.0356676 0)
(1.44818 -0.0329205 0)
(1.47627 -0.0286475 -1.90278e-19)
(1.50085 -0.0215348 -1.91991e-19)
(1.524 -0.00786275 1.934e-19)
(1.53858 0.0182946 1.96082e-19)
(-0.00443749 -0.0718973 -1.54716e-19)
(-0.0154908 -0.0427706 -1.39104e-19)
(-0.0307326 -0.011313 -8.19532e-20)
(-0.0475288 0.0171473 -3.71646e-20)
(-0.0660223 0.0432691 0)
(-0.0860617 0.0674422 6.60055e-20)
(-0.107675 0.0898468 -3.17407e-20)
(-0.130991 0.110592 0)
(-0.156144 0.129805 -3.00285e-20)
(-0.183224 0.147666 0)
(-0.21225 0.164389 5.7124e-20)
(-0.243144 0.180166 0)
(-0.275742 0.195113 2.72273e-20)
(-0.309809 0.20925 5.31344e-20)
(-0.345064 0.2225 -5.18369e-20)
(-0.381203 0.234716 0)
(-0.417921 0.245721 -4.9321e-20)
(-0.454931 0.255335 0)
(-0.491974 0.263405 0)
(-0.528834 0.269824 -4.57896e-20)
(-0.565339 0.274541 0)
(-0.60136 0.277561 -6.43532e-23)
(-0.636816 0.278943 0)
(-0.67166 0.278792 0)
(-0.705875 0.277246 7.23758e-23)
(-0.739468 0.274465 -3.98178e-20)
(-0.772458 0.270624 -3.9043e-20)
(-0.804874 0.265896 -3.81727e-20)
(-0.836744 0.260452 0)
(-0.868094 0.254449 -7.34318e-20)
(-0.898946 0.248027 0)
(-0.929312 0.241309 -3.53917e-20)
(-0.9592 0.234397 0)
(-0.988616 0.227374 0)
(-1.01756 0.220308 3.35995e-20)
(-1.04602 0.213249 0)
(-1.07399 0.206238 -3.25367e-20)
(-1.10147 0.199301 5.78018e-25)
(-1.12844 0.19246 6.31256e-20)
(-1.15488 0.185724 -6.22004e-20)
(-1.18079 0.1791 0)
(-1.20614 0.17259 0)
(-1.23091 0.166191 -2.979e-20)
(-1.25509 0.159899 0)
(-1.27867 0.153708 -2.90343e-20)
(-1.30161 0.147612 2.865e-20)
(-1.32391 0.141603 2.82732e-20)
(-1.34555 0.135674 0)
(-1.3665 0.129819 -2.75374e-20)
(-1.38675 0.124031 -2.71766e-20)
(-1.40629 0.118305 5.35834e-20)
(-1.42509 0.112636 -2.64652e-20)
(-1.44314 0.10702 -2.6113e-20)
(-1.46042 0.101454 0)
(-1.47692 0.0959355 0)
(-1.49261 0.0904635 2.50628e-20)
(-1.50749 0.0850371 0)