/*--------------------------------*- C++ -*----------------------------------*\
| =========                 |                                                 |
| \\      /  F ield         | OpenFOAM: The Open Source CFD Toolbox           |
|  \\    /   O peration     | Version:  2412                                  |
|   \\  /    A nd           | Website:  www.openfoam.com                      |
|    \\/     M anipulation  |                                                 |
\*---------------------------------------------------------------------------*/
FoamFile
{
    version     2.0;
    format      ascii;
    arch        "LSB;label=32;scalar=64";
    class       volScalarField;
    location    "0.11";
    object      epsilon;
}
// * * * * * * * * * * * * * * * * * * * * * * * * * * * * * * * * * * * * * //

dimensions      [0 2 -3 0 0 0 0];

internalField   nonuniform List<scalar> 
12225
(
448.248
622.892
830.55
1004.82
1150.38
1270.19
1368.58
1449.57
1516.29
1571.29
1616.64
1654
1684.66
1709.63
1729.69
1745.25
1756.78
1767.38
173.744
302.083
403.1
480.175
539.339
585.69
622.127
650.847
673.556
691.519
705.698
716.845
725.551
732.28
737.435
741.255
744.515
744.237
119.436
232.402
315.512
376.254
421.16
455.026
480.627
499.955
514.527
525.455
533.56
539.472
543.678
546.564
548.457
549.614
550.45
550.025
97.6417
199.98
277.777
334.833
376.773
407.859
430.863
447.789
460.144
469.043
475.31
479.571
482.307
483.898
484.659
484.862
484.836
484.381
83.653
176.29
251.579
308.55
351.102
382.724
406.067
423.144
435.487
444.246
450.288
454.273
456.708
457.995
458.464
458.402
458.112
457.628
71.9922
153.974
226.312
283.826
328.199
361.841
387.04
405.706
419.353
429.154
436.017
440.643
443.577
445.254
446.027
446.203
446.065
445.713
61.3447
131.283
198.627
255.581
301.544
337.591
365.357
386.467
402.316
414.042
422.56
428.596
432.729
435.424
437.06
437.958
438.387
438.456
51.6702
108.731
168.49
222.634
268.758
306.566
336.809
360.621
379.136
393.361
404.155
412.23
418.172
422.46
425.491
427.594
429.028
429.885
43.223
87.6467
137.688
186.328
230.304
268.249
299.993
326.029
347.088
363.933
377.28
387.766
395.939
402.264
407.133
410.87
413.718
415.748
36.1702
69.2424
108.634
149.504
188.759
224.549
256.007
282.991
305.753
324.721
340.387
353.237
363.728
372.266
379.207
384.848
389.408
392.919
30.4988
54.1394
83.3303
115.317
147.819
179.12
208.075
234.106
257.042
276.962
294.085
308.699
321.112
331.629
340.53
348.059
354.393
359.51
26.3769
43.1982
64.2846
88.2419
113.651
139.261
164.049
187.314
208.665
227.937
245.122
260.315
273.668
285.361
295.58
304.493
312.219
318.662
23.1428
34.7473
49.3146
66.2712
84.8792
104.392
124.087
143.359
161.769
179.032
194.995
209.6
222.86
234.834
245.606
255.264
263.857
271.227
20.3785
27.695
36.7533
47.4293
59.4488
72.4885
86.1803
100.151
114.072
127.679
140.775
153.224
164.945
175.898
186.074
195.478
204.09
211.708
18.1501
22.2411
27.1497
32.9154
39.4919
46.7993
54.722
63.1131
71.8152
80.6776
89.5651
98.362
106.974
115.33
123.373
131.062
138.339
145.001
16.4708
18.3571
20.5279
23.0293
25.8757
29.0709
32.6069
36.4592
40.5898
44.9531
49.4997
54.1793
58.943
63.745
68.5433
73.2984
77.9616
82.4
15.3282
15.8732
16.4962
17.2137
18.0335
18.9619
20.005
21.1661
22.4447
23.8372
25.3374
26.9369
28.6251
30.3881
32.212
34.0831
35.9836
37.8714
14.7508
14.6758
14.637
14.6353
14.6699
14.7398
14.8451
14.9863
15.1634
15.3763
15.6248
15.9082
16.2259
16.5781
16.964
17.3816
17.828
18.299
14.8977
14.9732
15.0872
15.2433
15.4415
15.6818
15.9644
16.2893
16.6555
17.0614
17.505
17.9837
18.4944
19.0337
19.5983
20.1842
20.787
21.393
15.9707
17.2603
18.7261
20.3948
22.2728
24.3593
26.6476
29.1219
31.7583
34.5281
37.4004
40.3434
43.3265
46.3212
49.3014
52.2443
55.1251
57.8838
18.0495
21.9965
26.6894
32.1472
38.3071
45.0732
52.3219
59.9068
67.677
75.4923
83.2311
90.7923
98.0969
105.086
111.719
117.972
123.823
129.229
21.5629
30.6523
41.92
55.0356
69.4939
84.7766
100.374
115.824
130.764
144.935
158.169
170.375
181.521
191.616
200.698
208.823
216.052
222.43
27.2183
45.2997
67.785
92.9351
119.101
144.995
169.635
192.382
212.909
231.121
247.068
260.887
272.759
282.885
291.465
298.691
304.737
309.762
35.7142
67.6756
105.677
144.948
182.512
216.736
246.81
272.562
294.216
312.174
326.896
338.839
348.427
356.036
361.993
366.579
370.032
372.579
47.4075
97.6101
152.027
202.686
246.849
283.881
314.065
338.191
357.195
371.964
383.277
391.792
398.055
402.514
405.529
407.396
408.355
408.644
61.8877
131.751
198.703
254.803
299.831
335.065
362.106
382.553
397.794
408.955
416.933
422.432
426.005
428.085
429.007
429.036
428.388
427.275
78.4668
165.761
239.651
296.702
339.785
371.973
395.784
413.191
425.726
434.561
440.579
444.449
446.681
447.662
447.69
446.996
445.762
444.175
99.5996
200.964
279.478
337.82
380.456
411.806
434.889
451.765
463.981
472.693
478.748
482.777
485.255
486.545
486.923
486.604
485.756
484.549
144.791
258.315
348.614
417.598
468.467
506.75
535.876
558.054
574.958
587.833
597.592
604.918
610.334
614.247
616.973
618.761
619.804
620.305
366.941
498.483
666.587
808.034
923.456
1016.7
1091.73
1152.4
1201.68
1241.86
1274.7
1301.65
1323.82
1342.1
1357.2
1369.69
1380
1388.57
1.63834
1.57102
2.23786
2.77627
3.18742
3.55013
3.9776
4.43648
4.93365
5.49606
6.19034
7.16139
8.31187
9.63042
11.108
12.7464
14.5498
16.5198
18.6555
20.9538
23.4108
26.023
28.7884
31.7077
34.7857
38.0333
41.4695
45.0498
48.7601
52.5952
56.551
60.624
64.8111
69.11
73.5186
78.0352
82.6582
87.3865
92.2187
97.1536
102.19
107.326
112.561
117.892
123.318
128.836
134.444
140.138
145.915
151.772
157.704
163.708
169.778
175.91
182.098
188.338
194.623
200.947
207.304
213.688
220.092
226.509
232.932
239.355
245.77
252.17
258.549
264.901
271.22
277.505
283.757
289.986
296.212
302.438
308.573
314.614
320.56
326.408
332.152
337.785
343.3
348.692
353.952
359.075
364.053
368.881
373.553
378.063
382.405
386.573
390.564
394.371
397.99
401.417
404.648
407.678
410.505
413.124
415.532
417.728
419.707
421.467
423.007
424.325
425.418
426.287
426.928
427.343
427.53
427.489
427.22
426.724
426.001
425.053
423.882
422.488
420.874
419.043
416.998
414.742
412.278
409.612
406.747
403.688
400.441
397.012
393.407
389.632
385.694
381.602
377.362
372.983
368.473
363.839
359.096
354.247
349.306
344.287
339.183
334.041
328.892
323.943
320.555
317.909
315.257
312.55
309.791
306.99
304.154
301.295
298.42
295.541
292.665
289.804
286.966
284.16
281.395
278.679
276.021
273.427
270.904
268.458
266.094
263.814
261.622
259.517
257.499
255.564
253.705
251.911
250.167
248.453
246.737
244.977
243.104
241.015
238.502
235.145
229.67
221.072
4.92882
2.74628
2.45392
2.54997
2.82673
3.23935
3.76657
4.38863
5.10675
5.92305
6.83994
7.85646
8.95373
10.1169
11.3351
12.6011
13.909
15.2543
16.6329
18.0424
19.4812
20.9492
22.4474
23.9773
25.5408
27.1396
28.774
30.4415
32.1419
33.8754
35.6428
37.4443
39.2805
41.1515
43.0576
44.9987
46.9748
48.9857
51.0312
53.1108
55.224
57.3702
59.5487
61.7587
63.9992
66.2693
68.5677
70.8934
73.2448
75.6208
78.0197
80.4399
82.8799
85.3378
87.8118
90.3001
92.8007
95.3115
97.8304
100.355
102.884
105.415
107.944
110.471
112.994
115.509
118.015
120.511
122.997
125.473
127.941
130.406
132.875
135.37
137.842
140.282
142.688
145.057
147.387
149.675
151.919
154.117
156.265
158.361
160.403
162.388
164.315
166.18
167.982
169.718
171.387
172.987
174.516
175.972
177.353
178.658
179.885
181.033
182.101
183.087
183.99
184.809
185.544
186.192
186.754
187.229
187.615
187.913
188.123
188.243
188.275
188.217
188.069
187.833
187.508
187.095
186.595
186.007
185.333
184.575
183.733
182.808
181.802
180.717
179.555
178.317
177.005
175.623
174.172
172.655
171.074
169.434
167.736
165.983
164.18
162.329
160.434
158.503
156.518
154.524
152.532
150.597
148.925
147.419
145.942
144.462
142.971
141.47
139.962
138.448
136.932
135.418
133.908
132.407
130.916
129.439
127.98
126.539
125.12
123.726
122.356
121.014
119.7
118.416
117.16
115.933
114.733
113.56
112.411
111.281
110.168
109.064
107.963
106.855
105.729
104.575
103.376
102.157
100.902
101.451
8.65601
4.24381
3.63744
3.6794
3.95787
4.38072
4.93069
5.59699
6.36813
7.22885
8.16126
9.14699
10.169
11.2153
12.2788
13.3565
14.4477
15.5532
16.6744
17.8129
18.971
20.1505
21.3532
22.5808
23.8342
25.114
26.4203
27.7528
29.1115
30.4961
31.9067
33.3431
34.805
36.2924
37.8049
39.3423
40.9042
42.4904
44.1006
45.7344
47.3913
49.0709
50.7728
52.4964
54.2411
56.0062
57.7911
59.595
61.417
63.2562
65.1118
66.9826
68.8676
70.7657
72.6757
74.5964
76.5264
78.4645
80.4093
82.3593
84.3132
86.2697
88.2272
90.1846
92.1406
94.0941
96.0444
97.9908
99.9332
101.872
103.807
105.741
107.676
109.603
111.512
113.397
115.256
117.088
118.888
120.657
122.391
124.089
125.748
127.367
128.944
130.477
131.964
133.404
134.794
136.133
137.42
138.653
139.831
140.952
142.016
143.02
143.964
144.847
145.667
146.424
147.117
147.745
148.308
148.804
149.233
149.595
149.889
150.114
150.272
150.361
150.381
150.332
150.215
150.029
149.775
149.454
149.065
148.609
148.087
147.5
146.849
146.134
145.357
144.519
143.622
142.667
141.655
140.588
139.469
138.299
137.079
135.813
134.503
133.149
131.757
130.325
128.859
127.369
125.851
124.319
122.783
121.27
119.836
118.465
117.118
115.774
114.429
113.082
111.732
110.382
109.034
107.689
106.35
105.019
103.698
102.389
101.093
99.8127
98.549
97.3032
96.0763
94.8691
93.6822
92.5159
91.3701
90.2445
89.1382
88.0502
86.9789
85.9223
84.8778
83.8425
82.8133
81.7872
80.7623
79.742
78.7385
77.8085
77.0674
77.2449
12.5104
5.96889
5.03866
4.95229
5.16363
5.55239
6.0772
6.71626
7.45098
8.26171
9.12846
10.0333
10.9623
11.9071
12.8638
13.832
14.8131
15.8094
16.8235
17.8576
18.9136
19.9932
21.0973
22.2266
23.3815
24.5617
25.7673
26.9978
28.2529
29.5324
30.8359
32.1633
33.5142
34.8884
36.2857
37.7059
39.1487
40.6141
42.1018
43.6115
45.1431
46.6962
48.2706
49.8659
51.4817
53.1174
54.7727
56.447
58.1395
59.8497
61.5766
63.3196
65.0776
66.8497
68.6349
70.4321
72.2401
74.0578
75.8839
77.7172
79.5564
81.4001
83.2472
85.0963
86.9464
88.7962
90.6449
92.4916
94.3355
96.1759
98.0123
99.844
101.668
103.478
105.27
107.039
108.783
110.501
112.189
113.846
115.47
117.058
118.61
120.122
121.594
123.023
124.408
125.747
127.038
128.28
129.472
130.612
131.699
132.731
133.707
134.627
135.489
136.293
137.037
137.72
138.343
138.903
139.401
139.836
140.208
140.515
140.759
140.938
141.053
141.103
141.089
141.01
140.866
140.659
140.387
140.053
139.656
139.196
138.675
138.093
137.452
136.752
135.995
135.181
134.313
133.391
132.417
131.392
130.319
129.2
128.035
126.828
125.58
124.29
122.969
121.617
120.236
118.83
117.402
115.959
114.508
113.065
111.65
110.264
108.892
107.525
106.16
104.795
103.431
102.068
100.71
99.3566
98.0105
96.6732
95.3463
94.0315
92.73
91.4434
90.1726
88.9187
87.6825
86.4646
85.2654
84.0852
82.9238
81.7811
80.6564
79.5489
78.4576
77.381
76.3177
75.2661
74.2247
73.1932
72.1736
71.174
70.2146
69.3524
68.6942
68.5629
15.8657
7.65512
6.34866
6.10909
6.23775
6.56571
7.03302
7.60948
8.27344
9.00576
9.78904
10.6088
11.4545
12.32
13.2025
14.1021
15.02
15.9582
16.9184
17.9025
18.9115
19.9465
21.0079
22.0959
23.2106
24.3517
25.5192
26.7126
27.9317
29.1763
30.4461
31.7409
33.0606
34.405
35.7739
37.1674
38.5853
40.0275
41.494
42.9846
44.4991
46.0375
47.5996
49.185
50.7935
52.4248
54.0783
55.7535
57.45
59.167
60.9038
62.6595
64.4333
66.2242
68.0311
69.8529
71.6883
73.5362
75.3952
77.2638
79.1408
81.0246
82.9138
84.807
86.7028
88.5996
90.4961
92.391
94.2828
96.1702
98.0517
99.9256
101.787
103.631
105.455
107.255
109.029
110.775
112.49
114.172
115.819
117.429
119
120.529
122.015
123.457
124.852
126.198
127.495
128.739
129.931
131.069
132.15
133.175
134.142
135.049
135.896
136.683
137.407
138.068
138.666
139.201
139.67
140.075
140.415
140.689
140.897
141.039
141.115
141.126
141.07
140.949
140.763
140.511
140.195
139.815
139.372
138.866
138.299
137.67
136.982
136.236
135.432
134.572
133.657
132.689
131.67
130.601
129.484
128.322
127.114
125.865
124.58
123.257
121.903
120.518
119.106
117.67
116.212
114.738
113.255
111.77
110.295
108.832
107.378
105.928
104.48
103.034
101.591
100.151
98.7169
97.2895
95.8704
94.4614
93.064
91.6795
90.3093
88.9546
87.6164
86.2956
84.993
83.7091
82.4444
81.1991
79.9731
78.7663
77.5784
76.4088
75.2567
74.1212
73.0016
71.8969
70.8071
69.7333
68.6797
67.6566
66.6864
65.8198
65.1388
64.8087
19.6785
9.19441
7.46531
7.06758
7.10581
7.36322
7.76319
8.26918
8.8583
9.51302
10.219
10.9647
11.742
12.5459
13.3738
14.2253
15.1009
16.0016
16.9285
17.8825
18.8645
19.8749
20.9141
21.9821
23.079
24.2048
25.3593
26.5424
27.754
28.9939
30.2621
31.5585
32.8831
34.2358
35.6167
37.0258
38.4631
39.9287
41.4224
42.9444
44.4946
46.0729
47.6791
49.3131
50.9747
52.6634
54.3789
56.1206
57.888
59.6804
61.4969
63.3367
65.1987
67.082
68.9852
70.907
72.8462
74.8012
76.7704
78.7523
80.7452
82.7473
84.757
86.7723
88.7914
90.8125
92.8338
94.8533
96.8692
98.8794
100.882
102.873
104.848
106.804
108.736
110.642
112.52
114.365
116.178
117.953
119.69
121.386
123.039
124.647
126.207
127.718
129.178
130.585
131.937
133.232
134.47
135.648
136.766
137.822
138.814
139.742
140.605
141.403
142.133
142.795
143.39
143.915
144.372
144.759
145.076
145.323
145.5
145.607
145.644
145.611
145.509
145.337
145.096
144.787
144.41
143.966
143.456
142.88
142.24
141.537
140.772
139.946
139.061
138.119
137.119
136.065
134.96
133.802
132.595
131.344
130.049
128.714
127.341
125.931
124.489
123.017
121.517
119.993
118.447
116.885
115.311
113.731
112.152
110.578
109.007
107.439
105.874
104.312
102.754
101.201
99.6545
98.1166
96.5886
95.0721
93.5686
92.0794
90.6059
89.1492
87.7103
86.2901
84.8895
83.5088
82.1487
80.8093
79.4907
78.193
76.9159
75.6591
74.4221
73.2044
72.0057
70.8259
69.6657
68.5274
67.4163
66.3439
65.3319
64.4235
63.678
63.1863
24.2055
10.6546
8.39458
7.81248
7.75265
7.93843
8.27371
8.71511
9.23823
9.82665
10.4681
11.1534
11.8756
12.6306
13.4157
14.23
15.0731
15.9455
16.8477
17.7801
18.7434
19.738
20.764
21.8219
22.9118
24.0337
25.1879
26.3744
27.5933
28.8447
30.1287
31.4455
32.7952
34.1779
35.5938
37.043
38.5258
40.0422
41.5924
43.1764
44.7942
46.446
48.1314
49.8505
51.6029
53.3884
55.2063
57.0563
58.9377
60.8496
62.791
64.7611
66.7586
68.7821
70.8303
72.9017
74.9946
77.1071
79.2375
81.3838
83.544
85.7159
87.8973
90.0861
92.28
94.4765
96.6733
98.8681
101.058
103.242
105.416
107.574
109.713
111.828
113.917
115.977
118.003
119.995
121.948
123.86
125.728
127.55
129.324
131.047
132.716
134.331
135.888
137.385
138.822
140.196
141.505
142.749
143.925
145.033
146.07
147.037
147.932
148.754
149.502
150.177
150.776
151.301
151.749
152.123
152.42
152.641
152.786
152.855
152.848
152.766
152.608
152.377
152.071
151.692
151.241
150.718
150.124
149.461
148.73
147.932
147.068
146.14
145.15
144.1
142.989
141.822
140.602
139.329
138.007
136.639
135.226
133.77
132.276
130.746
129.181
127.586
125.964
124.316
122.647
120.961
119.26
117.552
115.84
114.127
112.416
110.707
109.001
107.298
105.601
103.91
102.228
100.555
98.8942
97.2462
95.6129
93.9956
92.3957
90.8143
89.2524
87.7111
86.191
84.6928
83.2169
81.7638
80.3335
78.9263
77.542
76.1806
74.8417
73.5254
72.2317
70.9609
69.7146
68.4958
67.3104
66.1702
65.0952
64.121
63.2889
62.6512
28.2024
11.8643
9.10393
8.34366
8.1897
8.30949
8.58819
8.97548
9.44486
9.98013
10.5702
11.2071
11.8852
12.6004
13.3503
14.1335
14.9495
15.7982
16.6799
17.5949
18.5438
19.5269
20.5448
21.598
22.6868
23.8117
24.973
26.1713
27.4067
28.6799
29.991
31.3404
32.7286
34.1559
35.6226
37.1291
38.6757
40.2625
41.8899
43.5581
45.2671
47.017
48.8077
50.639
52.5108
54.4225
56.3738
58.3639
60.392
62.4571
64.5583
66.6941
68.8632
71.064
73.2948
75.5537
77.8386
80.1476
82.4781
84.8281
87.1948
89.5758
91.9684
94.3699
96.7774
99.1882
101.599
104.008
106.41
108.805
111.186
113.548
115.887
118.198
120.478
122.724
124.933
127.1
129.224
131.301
133.329
135.303
137.223
139.085
140.887
142.626
144.3
145.908
147.447
148.915
150.312
151.634
152.881
154.051
155.144
156.158
157.092
157.945
158.716
159.406
160.013
160.537
160.978
161.336
161.611
161.802
161.91
161.935
161.878
161.738
161.517
161.215
160.834
160.373
159.834
159.218
158.526
157.76
156.921
156.011
155.03
153.98
152.866
151.688
150.449
149.15
147.796
146.386
144.926
143.416
141.86
140.261
138.622
136.945
135.233
133.49
131.719
129.922
128.104
126.267
124.416
122.555
120.687
118.817
116.947
115.078
113.213
111.352
109.497
107.65
105.814
103.988
102.176
100.379
98.5984
96.8357
95.0924
93.3695
91.6683
89.9896
88.3343
86.703
85.0964
83.5148
81.9585
80.4278
78.9227
77.4434
75.9898
74.5622
73.161
71.7871
70.4424
69.1305
67.8577
66.6352
65.4809
64.4236
63.4912
62.7146
31.5273
12.8038
9.60342
8.68324
8.44451
8.50646
8.73766
9.08119
9.50811
10.0017
10.5514
11.1498
11.7919
12.4741
13.1941
13.9506
14.743
15.5709
16.4348
17.335
18.2721
19.2469
20.26
21.3123
22.4045
23.5373
24.7116
25.928
27.1873
28.4903
29.8375
31.2297
32.6674
34.1514
35.6821
37.2601
38.886
40.56
42.2826
44.054
45.8744
47.7439
49.6625
51.6299
53.6458
55.7097
57.8211
59.9791
62.1826
64.4305
66.7215
69.0539
71.4261
73.836
76.2816
78.7605
81.2704
83.8085
86.3723
88.9587
91.5649
94.1876
96.8238
99.4702
102.123
104.78
107.437
110.09
112.736
115.371
117.988
120.581
123.146
125.679
128.175
130.631
133.044
135.41
137.725
139.987
142.192
144.336
146.418
148.434
150.381
152.258
154.061
155.789
157.439
159.01
160.5
161.907
163.23
164.468
165.618
166.681
167.655
168.539
169.332
170.035
170.647
171.168
171.596
171.934
172.179
172.334
172.397
172.37
172.252
172.045
171.75
171.366
170.897
170.341
169.702
168.979
168.173
167.288
166.326
165.288
164.176
162.991
161.737
160.416
159.03
157.582
156.074
154.509
152.891
151.221
149.503
147.741
145.936
144.093
142.214
140.303
138.363
136.397
134.409
132.403
130.381
128.349
126.309
124.265
122.221
120.178
118.139
116.105
114.079
112.062
110.057
108.065
106.088
104.128
102.186
100.265
98.3651
96.4879
94.6346
92.8061
91.0034
89.2272
87.478
85.7565
84.063
82.3979
80.7614
79.1537
77.5752
76.0263
74.5077
73.0207
71.5677
70.1525
68.7814
67.4649
66.2185
65.0652
64.0228
63.1106
34.1368
13.4877
9.91999
8.86307
8.55089
8.56324
8.75486
9.06302
9.4563
9.9171
10.4347
11.0021
11.6147
12.2692
12.9637
13.697
14.4685
15.2783
16.1268
17.0148
17.9429
18.9124
19.9242
20.9796
22.0796
23.2256
24.4187
25.66
26.9506
28.2918
29.6844
31.1296
32.6283
34.1814
35.7897
37.454
39.175
40.9533
42.7892
44.6833
46.6357
48.6464
50.7155
52.8426
55.0274
57.2691
59.567
61.9199
64.3266
66.7857
69.2953
71.8536
74.4583
77.107
79.7972
82.526
85.2904
88.0874
90.9135
93.7654
96.6395
99.5321
102.44
105.358
108.283
111.212
114.139
117.061
119.974
122.873
125.747
128.591
131.401
134.173
136.902
139.585
142.216
144.793
147.312
149.77
152.161
154.485
156.736
158.912
161.011
163.029
164.965
166.815
168.579
170.253
171.837
173.328
174.725
176.027
177.232
178.34
179.349
180.258
181.068
181.778
182.387
182.895
183.303
183.611
183.818
183.925
183.933
183.842
183.653
183.367
182.984
182.506
181.935
181.271
180.517
179.674
178.743
177.727
176.627
175.447
174.188
172.853
171.444
169.963
168.415
166.8
165.124
163.387
161.594
159.748
157.852
155.909
153.923
151.898
149.835
147.74
145.615
143.465
141.292
139.1
136.893
134.675
132.449
130.219
127.988
125.759
123.535
121.317
119.108
116.91
114.725
112.556
110.403
108.27
106.158
104.067
102.001
99.9596
97.9445
95.9567
93.9972
92.0668
90.1662
88.296
86.4566
84.6485
82.8722
81.128
79.4164
77.7382
76.0943
74.4863
72.9168
71.3898
69.9115
68.4914
67.1426
65.8834
64.7243
63.6779
36.026
13.9399
10.0841
8.91615
8.54247
8.51283
8.67127
8.95032
9.31632
9.75072
10.2425
10.7847
11.3729
12.0043
12.6772
13.3907
14.1448
14.9397
15.7762
16.6554
17.5785
18.547
19.5624
20.6264
21.7407
22.9069
24.1267
25.4017
26.7335
28.1237
29.5737
31.085
32.6588
34.2964
35.9989
37.7673
39.6024
41.505
43.4757
45.5148
47.6226
49.7992
52.0442
54.3574
56.738
59.1852
61.6978
64.2744
66.9134
69.6128
72.3704
75.1838
78.0503
80.9668
83.9302
86.937
89.9837
93.0663
96.181
99.3238
102.49
105.677
108.878
112.091
115.309
118.53
121.747
124.957
128.156
131.33
134.474
137.58
140.646
143.666
146.636
149.551
152.407
155.2
157.925
160.58
163.16
165.662
168.081
170.416
172.663
174.819
176.883
178.851
180.721
182.492
184.162
185.729
187.192
188.549
189.8
190.943
191.977
192.902
193.716
194.421
195.015
195.5
195.875
196.14
196.296
196.342
196.281
196.113
195.839
195.459
194.976
194.39
193.704
192.919
192.037
191.059
189.988
188.827
187.576
186.24
184.82
183.319
181.74
180.087
178.361
176.566
174.706
172.784
170.802
168.766
166.678
164.541
162.36
160.138
157.879
155.587
153.265
150.917
148.546
146.157
143.753
141.338
138.915
136.489
134.062
131.638
129.22
126.809
124.409
122.022
119.65
117.295
114.96
112.646
110.354
108.088
105.848
103.635
101.451
99.2967
97.1736
95.0823
93.0235
90.9979
89.0062
87.0488
85.1264
83.2394
81.3887
79.575
77.7996
76.0644
74.372
72.7265
71.1337
69.6023
68.1431
66.7706
65.4901
64.3103
37.2096
14.1855
10.1244
8.8724
8.44956
8.38511
8.51564
8.77031
9.11374
9.52651
9.99726
10.5191
11.0877
11.7006
12.3565
13.0549
13.7963
14.5813
15.4112
16.2875
17.2121
18.1869
19.2141
20.2958
21.4343
22.6317
23.8904
25.2126
26.6002
28.0553
29.5799
31.1758
32.8447
34.588
36.4072
38.3035
40.2778
42.3311
44.4638
46.6764
48.9689
51.3413
53.7931
56.3235
58.9316
61.6161
64.3755
67.2077
70.1105
73.0816
76.118
79.2167
82.3743
85.5872
88.8514
92.1627
95.5167
98.9088
102.335
105.789
109.268
112.766
116.279
119.8
123.327
126.852
130.371
133.88
137.369
140.824
144.24
147.611
150.933
154.2
157.407
160.551
163.625
166.627
169.552
172.396
175.155
177.825
180.403
182.884
185.267
187.548
189.726
191.797
193.76
195.613
197.354
198.982
200.495
201.892
203.173
204.335
205.378
206.301
207.104
207.787
208.35
208.795
209.12
209.326
209.414
209.385
209.24
208.979
208.605
208.117
207.519
206.811
205.995
205.074
204.049
202.923
201.698
200.376
198.961
197.454
195.859
194.18
192.418
190.578
188.662
186.675
184.619
182.498
180.317
178.078
175.786
173.445
171.058
168.63
166.164
163.664
161.134
158.579
156.002
153.406
150.797
148.177
145.55
142.921
140.292
137.666
135.048
132.439
129.842
127.26
124.696
122.15
119.627
117.126
114.652
112.204
109.785
107.396
105.039
102.714
100.423
98.166
95.9447
93.7595
91.611
89.5001
87.4273
85.3933
83.3991
81.4456
79.5343
77.6672
75.8471
74.078
72.3654
70.7168
69.1414
67.6503
66.2454
64.9332
37.7103
14.2473
10.0654
8.75743
8.29825
8.20622
8.31383
8.54831
8.87327
9.26876
9.72322
10.2298
10.7843
11.3848
12.0302
12.7207
13.457
14.2407
15.0734
15.9573
16.8948
17.8886
18.9414
20.0561
21.2355
22.4825
23.7999
25.1905
26.6569
28.2016
29.8271
31.5355
33.3289
35.2089
37.1772
39.235
41.3834
43.6232
45.9548
48.3783
50.8936
53.5002
56.1971
58.9832
61.857
64.8164
67.8593
70.983
74.1846
77.4608
80.8081
84.2225
87.7001
91.2363
94.8266
98.4655
102.148
105.868
109.621
113.402
117.206
121.026
124.857
128.694
132.532
136.365
140.188
143.995
147.765
151.491
155.169
158.793
162.358
165.857
169.286
172.641
175.917
179.108
182.212
185.224
188.142
190.959
193.672
196.277
198.772
201.155
203.423
205.574
207.606
209.517
211.306
212.97
214.51
215.923
217.21
218.368
219.397
220.297
221.067
221.709
222.222
222.606
222.862
222.991
222.993
222.87
222.622
222.252
221.76
221.147
220.417
219.57
218.61
217.537
216.355
215.065
213.671
212.176
210.582
208.892
207.11
205.24
203.283
201.245
199.128
196.937
194.675
192.346
189.955
187.505
185
182.446
179.845
177.202
174.522
171.808
169.065
166.296
163.506
160.699
157.878
155.048
152.213
149.376
146.541
143.711
140.889
138.079
135.283
132.504
129.745
127.007
124.292
121.604
118.944
116.313
113.713
111.146
108.613
106.116
103.654
101.23
98.8439
96.4968
94.1895
91.9228
89.6973
87.514
85.3739
83.2781
81.2283
79.2265
77.2757
75.3796
73.5435
71.7738
70.0781
68.4653
66.9346
65.4917
37.5479
14.145
9.92776
8.59275
8.11092
7.99927
8.08964
8.30885
8.62031
9.00401
9.44847
9.94699
10.4958
11.0933
11.739
12.4335
13.1784
13.9757
14.8279
15.7379
16.7086
17.7436
18.8461
20.0199
21.2685
22.5954
24.0042
25.498
27.0802
28.7536
30.5209
32.3847
34.3471
36.4099
38.5747
40.8427
43.2146
45.6909
48.2715
50.9563
53.7442
56.6342
59.6247
62.7135
65.8984
69.1765
72.5446
75.9991
79.5362
83.1516
86.8409
90.5991
94.4216
98.3032
102.239
106.222
110.245
114.302
118.389
122.499
126.626
130.765
134.911
139.056
143.196
147.326
151.439
155.514
159.542
163.515
167.428
171.275
175.052
178.752
182.371
185.903
189.345
192.691
195.938
199.082
202.119
205.045
207.856
210.55
213.123
215.572
217.897
220.094
222.162
224.099
225.904
227.574
229.11
230.51
231.773
232.899
233.887
234.737
235.449
236.023
236.46
236.76
236.924
236.953
236.847
236.609
236.239
235.738
235.11
234.354
233.474
232.472
231.35
230.11
228.755
227.288
225.712
224.029
222.244
220.359
218.379
216.306
214.144
211.898
209.571
207.168
204.692
202.148
199.539
196.872
194.149
191.376
188.556
185.694
182.796
179.864
176.903
173.918
170.913
167.891
164.858
161.817
158.772
155.727
152.685
149.651
146.626
143.615
140.62
137.645
134.69
131.76
128.856
125.981
123.135
120.322
117.542
114.798
112.09
109.42
106.788
104.197
101.647
99.138
96.672
94.2494
91.8711
89.5382
87.2517
85.013
82.8238
80.6864
78.6036
76.579
74.6174
72.7247
70.9069
69.1711
67.515
65.9438
36.7425
13.8965
9.73038
8.39779
7.90804
7.78631
7.86711
8.07845
8.3844
8.76547
9.21062
9.71365
10.2714
10.8826
11.5477
12.2679
13.0455
13.8834
14.7852
15.7548
16.7949
17.9099
19.1043
20.3824
21.7485
23.2068
24.7613
26.4157
28.1735
30.0379
32.0116
34.0972
36.2965
38.6111
41.042
43.59
46.255
49.0367
51.9342
54.9461
58.0706
61.3054
64.6477
68.0943
71.6416
75.2856
79.0219
82.8458
86.7522
90.7358
94.7911
98.9123
103.093
107.329
111.611
115.935
120.293
124.678
129.085
133.508
137.939
142.374
146.807
151.232
155.644
160.038
164.391
168.69
172.927
177.098
181.196
185.217
189.154
193.003
196.758
200.416
203.971
207.42
210.758
213.982
217.088
220.073
222.933
225.666
228.268
230.738
233.073
235.272
237.332
239.252
241.031
242.667
244.16
245.509
246.712
247.771
248.684
249.451
250.072
250.549
250.881
251.069
251.114
251.017
250.779
250.402
249.886
249.235
248.449
247.531
246.484
245.308
244.008
242.585
241.043
239.384
237.613
235.732
233.744
231.654
229.465
227.181
224.807
222.346
219.802
217.181
214.485
211.721
208.893
206.004
203.061
200.066
197.026
193.945
190.827
187.677
184.5
181.299
178.08
174.846
171.602
168.352
165.1
161.849
158.604
155.368
152.144
148.936
145.746
142.577
139.433
136.314
133.224
130.165
127.138
124.146
121.19
118.272
115.392
112.553
109.755
106.999
104.287
101.619
98.9966
96.4203
93.8913
91.4106
88.9794
86.5993
84.272
81.9998
79.7855
77.6328
75.546
73.5301
71.5903
69.7323
67.9527
66.2568
35.3093
13.5834
9.5054
8.19231
7.70749
7.58715
7.6701
7.8866
8.2022
8.59854
9.06555
9.59791
10.1933
10.8515
11.5737
12.362
13.2198
14.1507
15.159
16.2493
17.4263
18.6947
20.0597
21.5261
23.0987
24.7818
26.5798
28.4962
30.5344
32.697
34.9863
37.404
39.951
42.6276
45.4339
48.3689
51.4312
54.6189
57.9295
61.36
64.9069
68.5661
72.3334
76.204
80.1726
84.234
88.3823
92.6117
96.9159
101.289
105.723
110.214
114.753
119.334
123.95
128.595
133.262
137.945
142.636
147.33
152.022
156.705
161.374
166.025
170.653
175.232
179.748
184.193
188.564
192.855
197.06
201.174
205.193
209.112
212.927
216.632
220.224
223.7
227.054
230.285
233.389
236.363
239.203
241.908
244.474
246.9
249.183
251.323
253.316
255.163
256.861
258.409
259.808
261.056
262.152
263.097
263.89
264.532
265.022
265.361
265.55
265.589
265.48
265.223
264.821
264.274
263.585
262.754
261.785
260.68
259.44
258.069
256.569
254.943
253.195
251.327
249.344
247.248
245.044
242.735
240.326
237.82
235.222
232.537
229.768
226.921
224
221.01
217.956
214.843
211.675
208.457
205.195
201.892
198.554
195.186
191.792
188.377
184.945
181.501
178.048
174.592
171.135
167.682
164.237
160.804
157.385
153.983
150.603
147.246
143.915
140.613
137.341
134.103
130.9
127.733
124.605
121.516
118.469
115.465
112.504
109.588
106.717
103.894
101.119
98.3919
95.7151
93.0895
90.5164
87.9973
85.5342
83.1294
80.7857
78.5066
76.296
74.1585
72.0986
70.1207
68.2211
66.4053
33.4916
13.2236
9.29662
8.02403
7.56047
7.45916
7.56502
7.81164
8.16684
8.6141
9.14495
9.75558
10.4451
11.2145
12.0662
13.0039
14.0315
15.1541
16.3766
17.7043
19.1426
20.6967
22.3715
24.1717
26.1015
28.1647
30.3642
32.7024
35.181
37.8008
40.562
43.4639
46.5053
49.6841
52.9977
56.4427
60.0154
63.7114
67.526
71.4539
75.4897
79.6276
83.8615
88.1852
92.5921
97.0758
101.63
106.247
110.921
115.644
120.411
125.214
130.047
134.903
139.776
144.659
149.546
154.432
159.311
164.177
169.026
173.854
178.655
183.424
188.129
192.761
197.316
201.787
206.171
210.463
214.658
218.752
222.741
226.62
230.386
234.034
237.562
240.966
244.242
247.388
250.4
253.276
256.014
258.61
261.063
263.371
265.532
267.544
269.406
271.117
272.675
274.08
275.33
276.426
277.367
278.153
278.783
279.258
279.578
279.744
279.756
279.615
279.322
278.879
278.287
277.547
276.662
275.633
274.463
273.154
271.708
270.128
268.418
266.58
264.618
262.534
260.334
258.02
255.596
253.067
250.437
247.711
244.892
241.986
238.997
235.929
232.789
229.581
226.309
222.979
219.596
216.165
212.691
209.178
205.632
202.058
198.46
194.843
191.211
187.57
183.922
180.273
176.626
172.985
169.354
165.737
162.137
158.556
154.999
151.467
147.964
144.491
141.051
137.647
134.279
130.95
127.661
124.414
121.211
118.052
114.938
111.872
108.853
105.883
102.963
100.095
97.2782
94.5152
91.8072
89.1559
86.5633
84.0318
81.5641
79.1637
76.8342
74.5797
72.4042
70.3115
68.2977
66.3688
31.4368
12.7966
9.09468
7.89912
7.4877
7.43888
7.60681
7.93005
8.37996
8.94287
9.61289
10.3886
11.271
12.2633
13.3693
14.5938
15.9419
17.4187
19.0292
20.7781
22.6697
24.7075
26.8945
29.2327
31.7234
34.367
37.1629
40.1096
43.205
46.4461
49.8291
53.3497
57.0029
60.7835
64.6856
68.7032
72.8299
77.0593
81.3847
85.7994
90.2966
94.8697
99.5119
104.217
108.977
113.787
118.64
123.529
128.449
133.393
138.355
143.33
148.311
153.294
158.273
163.243
168.199
173.136
178.052
182.94
187.8
192.629
197.411
202.117
206.743
211.285
215.74
220.103
224.371
228.539
232.603
236.561
240.407
244.139
247.754
251.248
254.617
257.859
260.971
263.95
266.794
269.499
272.065
274.487
276.765
278.897
280.881
282.714
284.397
285.928
287.305
288.527
289.595