/*--------------------------------*- C++ -*----------------------------------*\
| =========                 |                                                 |
| \\      /  F ield         | OpenFOAM: The Open Source CFD Toolbox           |
|  \\    /   O peration     | Version:  2412                                  |
|   \\  /    A nd           | Website:  www.openfoam.com                      |
|    \\/     M anipulation  |                                                 |
\*---------------------------------------------------------------------------*/
FoamFile
{
    version     2.0;
    format      ascii;
    arch        "LSB;label=32;scalar=64";
    class       volScalarField;
    location    "0.11";
    object      k;
}
// * * * * * * * * * * * * * * * * * * * * * * * * * * * * * * * * * * * * * //

dimensions      [0 2 -2 0 0 0 0];

internalField   nonuniform List<scalar> 
12225
(
0.316793
0.394493
0.477904
0.542611
0.593825
0.634369
0.666719
0.692772
0.71387
0.731028
0.745027
0.756461
0.765782
0.77333
0.779367
0.784034
0.787482
0.790647
0.569139
0.788914
0.95258
1.06799
1.15119
1.21269
1.25816
1.2917
1.3163
1.33411
1.34669
1.35524
1.36065
1.36361
1.3647
1.36423
1.36341
1.36125
0.670061
0.972154
1.18323
1.33202
1.43945
1.51861
1.57693
1.61968
1.65077
1.67301
1.68849
1.69878
1.70506
1.70828
1.70918
1.70836
1.7068
1.70471
0.722108
1.07674
1.32651
1.50447
1.63403
1.72971
1.80042
1.85243
1.89038
1.91766
1.93678
1.94966
1.95774
1.96217
1.96388
1.96366
1.96249
1.96097
0.742772
1.1292
1.41224
1.61818
1.77023
1.88337
1.96763
2.03016
2.07625
2.1098
2.13375
2.15033
2.16126
2.16789
2.17133
2.17252
2.17249
2.17194
0.739915
1.13776
1.44638
1.6782
1.85305
1.98506
2.08467
2.15964
2.21577
2.25742
2.28791
2.30977
2.32499
2.33515
2.34151
2.34517
2.34715
2.34814
0.719621
1.10881
1.43133
1.68403
1.88029
2.03178
2.14829
2.23767
2.30596
2.35782
2.39688
2.42596
2.44727
2.4626
2.47338
2.48082
2.48594
2.48934
0.687643
1.05046
1.37184
1.63648
1.84974
2.01925
2.15294
2.25793
2.3401
2.40415
2.45383
2.49216
2.52152
2.54386
2.56076
2.57352
2.58315
2.59014
0.648988
0.972382
1.27662
1.5408
1.76295
1.94594
2.09473
2.21489
2.31149
2.38888
2.45071
2.49998
2.53916
2.57029
2.59501
2.61469
2.63031
2.64224
0.607486
0.884092
1.15748
1.4074
1.62725
1.81574
1.97449
2.10678
2.21631
2.30663
2.38091
2.44192
2.49201
2.53317
2.56706
2.59502
2.61801
2.6362
0.565821
0.793325
1.02684
1.25031
1.45568
1.63917
1.79968
1.93809
2.05638
2.15688
2.24197
2.31389
2.37467
2.42608
2.46964
2.50661
2.53782
2.56324
0.528748
0.712099
0.905189
1.09647
1.2787
1.44752
1.60047
1.73678
1.85691
1.96197
2.0534
2.13275
2.20154
2.26118
2.31293
2.35785
2.39661
2.42887
0.494654
0.637276
0.790592
0.947002
1.10078
1.24806
1.38605
1.51308
1.62852
1.73246
1.82544
1.90825
1.98182
2.0471
2.105
2.1563
2.20145
2.23979
0.460677
0.562149
0.673154
0.789692
0.907922
1.02497
1.1385
1.24673
1.34848
1.44314
1.53051
1.61065
1.68387
1.75057
1.8112
1.86618
1.91565
1.95862
0.429347
0.492752
0.562806
0.638302
0.717369
0.798341
0.879723
0.960164
1.03856
1.11411
1.18625
1.25464
1.31911
1.37959
1.43613
1.48876
1.53736
1.58071
0.403169
0.435387
0.470981
0.510061
0.552201
0.596872
0.643497
0.691435
0.74004
0.788731
0.837015
0.884482
0.930806
0.975735
1.01907
1.06065
1.10018
1.13659
0.384083
0.39461
0.406485
0.419897
0.434851
0.451308
0.469205
0.488431
0.508827
0.530208
0.552381
0.575151
0.598323
0.621685
0.645059
0.668282
0.691149
0.71312
0.374047
0.37371
0.37409
0.375206
0.377038
0.379561
0.382764
0.386632
0.391143
0.396268
0.401973
0.408218
0.41496
0.422174
0.429817
0.437831
0.446149
0.454661
0.376606
0.378923
0.381988
0.385849
0.390481
0.395848
0.401915
0.408638
0.415957
0.423807
0.432116
0.440815
0.449831
0.459097
0.468549
0.478125
0.487749
0.497204
0.394946
0.417777
0.442953
0.47055
0.500288
0.531804
0.564711
0.598574
0.632947
0.667411
0.701601
0.735206
0.767974
0.799707
0.830257
0.859515
0.887359
0.913384
0.427769
0.489063
0.556224
0.628004
0.702566
0.778267
0.853675
0.927532
0.998827
1.06684
1.13108
1.1913
1.24736
1.29929
1.34718
1.39118
1.43146
1.46803
0.475738
0.594968
0.723601
0.855966
0.987178
1.11391
1.23378
1.34519
1.4473
1.53991
1.62322
1.69769
1.76393
1.82263
1.87448
1.92019
1.96035
1.99549
0.536844
0.72869
0.928617
1.12372
1.3064
1.47301
1.6218
1.75252
1.86607
1.96388
2.04764
2.11903
2.17965
2.23095
2.27424
2.31065
2.34116
2.36662
0.604139
0.873963
1.14015
1.38238
1.59446
1.77603
1.92881
2.05582
2.1606
2.24656
2.31675
2.37377
2.41988
2.45693
2.48649
2.50983
2.52804
2.54205
0.668313
1.00766
1.31642
1.57531
1.78708
1.95801
2.09446
2.20264
2.28798
2.35495
2.40717
2.44754
2.47837
2.50154
2.51854
2.53056
2.53859
2.54348
0.717302
1.09919
1.41418
1.65888
1.84811
1.99398
2.1059
2.19144
2.25648
2.30556
2.34215
2.36895
2.38804
2.40108
2.40933
2.4138
2.41531
2.41459
0.735717
1.11862
1.40734
1.61983
1.77772
1.89572
1.98395
2.04966
2.09825
2.13376
2.15921
2.17689
2.18853
2.19549
2.1988
2.19927
2.19755
2.19423
0.708199
1.04716
1.29075
1.46557
1.59175
1.68428
1.75245
1.80244
1.83877
1.86479
1.88295
1.89508
1.90257
1.90647
1.90761
1.90661
1.90397
1.90016
0.616921
0.862574
1.0489
1.18265
1.27674
1.34491
1.39484
1.43127
1.45767
1.47656
1.48975
1.49856
1.504
1.50685
1.50769
1.50699
1.5051
1.50241
0.33327
0.408789
0.496177
0.564094
0.616609
0.657445
0.689406
0.714716
0.734952
0.751241
0.764431
0.775167
0.783945
0.791144
0.797066
0.80195
0.805968
0.809301
0.010508
0.0169375
0.0214348
0.0247398
0.0271184
0.0291347
0.0314226
0.0337876
0.0362585
0.0389552
0.0421627
0.0464514
0.0512848
0.0565534
0.0621756
0.0681225
0.074377
0.0809174
0.0877168
0.0947464
0.101979
0.109392
0.116971
0.124707
0.132607
0.140689
0.148988
0.157395
0.16587
0.174402
0.182982
0.191604
0.200264
0.208957
0.21768
0.226431
0.235209
0.244013
0.252841
0.261691
0.270564
0.279456
0.288366
0.297292
0.306232
0.315181
0.324138
0.333099
0.342058
0.351012
0.359956
0.368885
0.377794
0.386677
0.395527
0.40434
0.413109
0.421828
0.430489
0.439088
0.447617
0.456069
0.464439
0.472719
0.480903
0.488986
0.496961
0.504824
0.512572
0.520204
0.527726
0.535151
0.542506
0.549802
0.556925
0.563876
0.570659
0.577272
0.583712
0.589974
0.596053
0.601946
0.607646
0.613151
0.618455
0.623554
0.628445
0.633124
0.637587
0.641831
0.645853
0.649651
0.653221
0.656562
0.65967
0.662545
0.665183
0.667583
0.669744
0.671664
0.673343
0.674778
0.67597
0.676917
0.677619
0.678076
0.678287
0.678252
0.677973
0.677448
0.676679
0.675667
0.674412
0.672915
0.671179
0.669205
0.666996
0.664552
0.661878
0.658976
0.655849
0.652501
0.648936
0.645157
0.641171
0.636981
0.632593
0.628012
0.623246
0.6183
0.613181
0.607896
0.602454
0.59686
0.591127
0.585259
0.57927
0.573173
0.566958
0.560679
0.554369
0.548272
0.543949
0.540421
0.536876
0.533261
0.529577
0.525835
0.522044
0.518215
0.514359
0.510487
0.506609
0.502737
0.49888
0.49505
0.491258
0.487513
0.483825
0.480203
0.476655
0.473188
0.46981
0.466525
0.463336
0.460245
0.457252
0.454352
0.451539
0.448801
0.446122
0.443477
0.44083
0.438131
0.435301
0.432214
0.428624
0.424021
0.416858
0.405878
0.0218936
0.0351583
0.0462345
0.0550919
0.0631223
0.0707896
0.0781064
0.0855423
0.0934609
0.101975
0.111047
0.120574
0.130406
0.140465
0.150728
0.161213
0.171944
0.182945
0.194231
0.205811
0.217692
0.229873
0.242352
0.255123
0.268176
0.281498
0.295073
0.308876
0.322892
0.337107
0.351508
0.366084
0.380824
0.395718
0.41076
0.425943
0.44126
0.456707
0.472279
0.487973
0.503784
0.51971
0.535746
0.551888
0.568131
0.584471
0.600902
0.617417
0.63401
0.650674
0.667401
0.684181
0.701007
0.717868
0.734754
0.751655
0.768559
0.785456
0.802333
0.819178
0.835981
0.852727
0.869406
0.886005
0.902511
0.918912
0.935197
0.951352
0.967367
0.983229
0.998926
1.01444
1.02977
1.04473
1.05942
1.07388
1.08809
1.10206
1.11576
1.1292
1.14235
1.15522
1.16778
1.18004
1.19197
1.20358
1.21484
1.22576
1.23632
1.24652
1.25635
1.2658
1.27487
1.28354
1.29182
1.29969
1.30715
1.3142
1.32083
1.32703
1.3328
1.33814
1.34303
1.34749
1.35151
1.35507
1.35819
1.36085
1.36306
1.3648
1.36609
1.36692
1.36729
1.3672
1.36665
1.36563
1.36416
1.36223
1.35984
1.35699
1.3537
1.34996
1.34578
1.34116
1.3361
1.33062
1.32473
1.31842
1.31171
1.30461
1.29713
1.28927
1.28106
1.27249
1.2636
1.25438
1.24487
1.23508
1.22496
1.21466
1.20418
1.1936
1.18315
1.17274
1.1622
1.15152
1.14072
1.12981
1.11881
1.10774
1.09663
1.08548
1.07433
1.06318
1.05205
1.04097
1.02994
1.01898
1.0081
0.997322
0.986645
0.976081
0.965635
0.95531
0.945106
0.935021
0.925049
0.915178
0.905394
0.895676
0.885995
0.876317
0.866596
0.856775
0.846782
0.836534
0.82589
0.814868
0.802605
0.787809
0.031865
0.0560239
0.0723592
0.0849072
0.0956267
0.105405
0.115013
0.124904
0.135316
0.1463
0.15779
0.169674
0.181859
0.194304
0.207017
0.220039
0.233417
0.247196
0.261404
0.27606
0.291169
0.306723
0.322707
0.339097
0.355867
0.372985
0.390421
0.408143
0.426126
0.444345
0.462779
0.481411
0.500226
0.51921
0.538355
0.557651
0.577093
0.596675
0.616392
0.636242
0.65622
0.676322
0.696546
0.716887
0.73734
0.757899
0.77856
0.799314
0.820155
0.841074
0.862063
0.883111
0.904208
0.925342
0.946502
0.967675
0.988848
1.01001
1.03114
1.05223
1.07327
1.09423
1.11511
1.13589
1.15655
1.17708
1.19747
1.21771
1.23777
1.25765
1.27734
1.29682
1.31602
1.33492
1.35353
1.37184
1.38986
1.40756
1.42493
1.44196
1.45864
1.47494
1.49087
1.5064
1.52152
1.53622
1.5505
1.56433
1.5777
1.59061
1.60305
1.61501
1.62647
1.63744
1.6479
1.65784
1.66726
1.67615
1.6845
1.69231
1.69958
1.70629
1.71244
1.71804
1.72307
1.72752
1.73141
1.73472
1.73745
1.7396
1.74117
1.74215
1.74256
1.74237
1.74161
1.74026
1.73833
1.73582
1.73273
1.72907
1.72484
1.72004
1.71469
1.70878
1.70233
1.69534
1.68782
1.67979
1.67124
1.66221
1.65268
1.64269
1.63225
1.62135
1.61005
1.59834
1.58623
1.57381
1.56105
1.54801
1.53472
1.52123
1.50767
1.494
1.48018
1.46619
1.45204
1.43775
1.42335
1.40886
1.3943
1.37969
1.36506
1.35042
1.3358
1.32121
1.30669
1.29223
1.27786
1.2636
1.24944
1.23541
1.22151
1.20775
1.19412
1.18063
1.16726
1.15401
1.14086
1.1278
1.11479
1.1018
1.0888
1.07573
1.06255
1.04923
1.03573
1.02221
1.00861
0.99498
0.0407287
0.0763981
0.0974411
0.112394
0.124735
0.135986
0.146956
0.158121
0.169736
0.181892
0.194573
0.207727
0.221308
0.235302
0.249724
0.264609
0.279994
0.295907
0.312364
0.329365
0.346898
0.36494
0.383462
0.402427
0.421801
0.441546
0.461627
0.482013
0.502676
0.523591
0.544739
0.566102
0.587666
0.609421
0.631357
0.653468
0.675748
0.698192
0.720798
0.743561
0.766478
0.789547
0.812762
0.836121
0.859617
0.883245
0.906999
0.930871
0.954852
0.978933
1.0031
1.02735
1.05167
1.07604
1.10045
1.12488
1.14932
1.17376
1.19818
1.22255
1.24687
1.27112
1.29528
1.31933
1.34325
1.36703
1.39065
1.4141
1.43735
1.4604
1.48323
1.50581
1.52808
1.55004
1.57166
1.59294
1.61388
1.63444
1.65461
1.67439
1.69374
1.71267
1.73114
1.74915
1.76667
1.78371
1.80023
1.81623
1.8317
1.84663
1.86099
1.87479
1.88801
1.90065
1.91268
1.92411
1.93493
1.94512
1.95469
1.96362
1.97191
1.97955
1.98654
1.99287
1.99854
2.00355
2.00789
2.01155
2.01455
2.01686
2.0185
2.01947
2.01975
2.01936
2.01828
2.01654
2.01412
2.01102
2.00726
2.00284
1.99776
1.99203
1.98565
1.97863
1.97099
1.96273
1.95386
1.94439
1.93434
1.92372
1.91253
1.90081
1.88858
1.8758
1.86259
1.84893
1.83483
1.82035
1.8055
1.7903
1.77479
1.75903
1.74309
1.72696
1.71065
1.69414
1.67745
1.6606
1.64362
1.62652
1.60933
1.59208
1.57479
1.55749
1.54019
1.52293
1.50571
1.48856
1.4715
1.45454
1.4377
1.42098
1.40439
1.38795
1.37166
1.3555
1.33949
1.32361
1.30785
1.29219
1.27661
1.26108
1.24558
1.23008
1.21455
1.199
1.18352
1.16836
1.15379
1.14057
0.0477181
0.0945671
0.119125
0.136158
0.150026
0.162448
0.174349
0.186278
0.198558
0.211351
0.224719
0.23867
0.253198
0.268302
0.283993
0.300285
0.317192
0.334719
0.352861
0.3716
0.390913
0.410768
0.431127
0.451955
0.473214
0.494869
0.516887
0.539239
0.5619
0.584847
0.608063
0.631532
0.655241
0.679182
0.703345
0.727724
0.752315
0.777112
0.802112
0.827311
0.852706
0.878292
0.904066
0.930021
0.956153
0.982454
1.00892
1.03553
1.06229
1.08918
1.11619
1.14331
1.17052
1.19781
1.22516
1.25256
1.27998
1.30741
1.33483
1.36222
1.38955
1.41682
1.444
1.47106
1.49799
1.52477
1.55138
1.57779
1.60399
1.62996
1.65567
1.6811
1.70619
1.73092
1.75528
1.77925
1.80282
1.82597
1.84867
1.87092
1.89269
1.91396
1.93472
1.95494
1.97462
1.99373
2.01226
2.03019
2.04751
2.06421
2.08027
2.09569
2.11044
2.12452
2.13793
2.15064
2.16266
2.17396
2.18456
2.19443
2.20357
2.21198
2.21965
2.22658
2.23276
2.23818
2.24285
2.24677
2.24992
2.25231
2.25394
2.25481
2.25492
2.25426
2.25284
2.25067
2.24774
2.24406
2.23963
2.23446
2.22856
2.22193
2.21458
2.20652
2.19776
2.18831
2.17818
2.16739
2.15594
2.14387
2.13117
2.11787
2.10402
2.08962
2.0747
2.05929
2.0434
2.02707
2.01033
1.99319
1.9757
1.95791
1.93986
1.92157
1.90306
1.88432
1.86538
1.84625
1.82697
1.80756
1.78804
1.76844
1.74879
1.72911
1.70942
1.68976
1.67013
1.65057
1.63109
1.61171
1.59244
1.57329
1.55429
1.53543
1.51671
1.49815
1.47975
1.46148
1.44335
1.42535
1.40745
1.38965
1.37191
1.35425
1.33665
1.31919
1.30199
1.28538
1.26971
1.25574
0.0550988
0.10877
0.136489
0.155553
0.170865
0.184353
0.197055
0.209602
0.222389
0.235651
0.249518
0.264049
0.279271
0.295193
0.311818
0.329145
0.347167
0.365872
0.385239
0.405242
0.42585
0.447028
0.468741
0.490953
0.51363
0.536742
0.560258
0.584154
0.608407
0.632999
0.657912
0.683133
0.70865
0.734455
0.76054
0.786898
0.813523
0.840411
0.867557
0.894957
0.922606
0.9505
0.978633
1.007
1.03559
1.0644
1.09341
1.12263
1.15202
1.1816
1.21133
1.2412
1.2712
1.30131
1.33151
1.36177
1.39209
1.42243
1.45278
1.48311
1.5134
1.54362
1.57375
1.60376
1.63364
1.66335
1.69288
1.72219
1.75126
1.78008
1.80862
1.83681
1.86462
1.89204
1.91904
1.94561
1.97172
1.99736
2.0225
2.04712
2.07121
2.09473
2.11767
2.14001
2.16173
2.18281
2.20324
2.22299
2.24206
2.26043
2.27809
2.29501
2.3112
2.32663
2.3413
2.3552
2.36832
2.38064
2.39217
2.40289
2.4128
2.42189
2.43015
2.43759
2.4442
2.44997
2.4549
2.45899
2.46224
2.46465
2.46621
2.46693
2.46681
2.46585
2.46405
2.46142
2.45795
2.45366
2.44855
2.44263
2.4359
2.42837
2.42005
2.41096
2.4011
2.39048
2.37914
2.36705
2.35426
2.3408
2.32667
2.3119
2.29653
2.28055
2.26401
2.24693
2.22934
2.21125
2.19271
2.17374
2.15437
2.13465
2.11462
2.09431
2.07373
2.0529
2.03184
2.01058
1.98914
1.96754
1.94582
1.92401
1.90212
1.8802
1.85825
1.83632
1.81441
1.79256
1.77077
1.74909
1.72751
1.70605
1.68473
1.66355
1.64253
1.62167
1.60096
1.58041
1.56002
1.53977
1.51966
1.49968
1.47982
1.46011
1.44057
1.42129
1.40244
1.38436
1.36741
1.35215
0.063257
0.119735
0.149795
0.170528
0.187116
0.201599
0.215081
0.228245
0.241537
0.255247
0.269554
0.28456
0.300317
0.316844
0.334146
0.352212
0.371027
0.390568
0.410808
0.431718
0.453264
0.475414
0.498136
0.521398
0.545172
0.569429
0.594147
0.619302
0.644877
0.670854
0.697219
0.72396
0.751066
0.778528
0.80634
0.834494
0.862984
0.891805
0.920951
0.950418
0.980199
1.01029
1.04068
1.07136
1.10233
1.13357
1.16508
1.19684
1.22883
1.26104
1.29346
1.32606
1.35883
1.39174
1.42478
1.45791
1.49112
1.52438
1.55765
1.59093
1.62416
1.65734
1.69043
1.7234
1.75622
1.78887
1.82131
1.85352
1.88546
1.91712
1.94846
1.9794
2.00992
2.04001
2.06963
2.09877
2.12739
2.15548
2.18302
2.20998
2.23633
2.26205
2.28713
2.31153
2.33524
2.35824
2.38051
2.40203
2.42279
2.44277
2.46195
2.48033
2.49788
2.5146
2.53048
2.54549
2.55965
2.57292
2.58532
2.59682
2.60743
2.61713
2.62593
2.63382
2.6408
2.64685
2.65199
2.65621
2.6595
2.66187
2.66332
2.66384
2.66345
2.66214
2.65992
2.65679
2.65276
2.64783
2.64201
2.6353
2.62772
2.61928
2.60999
2.59986
2.58889
2.57711
2.56455
2.55122
2.53713
2.52231
2.50678
2.49056
2.47369
2.45617
2.43805
2.41934
2.40008
2.38028
2.35999
2.33923
2.31805
2.29646
2.27452
2.25226
2.22969
2.20685
2.18375
2.16042
2.1369
2.1132
2.08935
2.0654
2.04135
2.01725
1.99311
1.96897
1.94485
1.92077
1.89675
1.87281
1.84898
1.82526
1.80167
1.77823
1.75495
1.73182
1.70886
1.68607
1.66345
1.641
1.61872
1.59661
1.57468
1.55296
1.5315
1.51042
1.48991
1.47028
1.45185
1.43501
0.0700444
0.127588
0.159313
0.181351
0.19902
0.214416
0.228662
0.242464
0.256292
0.270468
0.285201
0.300623
0.316807
0.333787
0.351571
0.370153
0.389514
0.409632
0.43048
0.452028
0.474249
0.497112
0.520591
0.54466
0.569295
0.594474
0.620176
0.646385
0.673085
0.700261
0.727902
0.755997
0.784536
0.813512
0.842917
0.872744
0.902987
0.93364
0.964697
0.99615
1.02799
1.06022
1.09282
1.12578
1.15909
1.19274
1.22672
1.26101
1.2956
1.33046
1.36557
1.40092
1.43647
1.47221
1.5081
1.54413
1.58026
1.61645
1.65269
1.68893
1.72515
1.76131
1.79739
1.83333
1.86912
1.90472
1.9401
1.97522
2.01005
2.04455
2.07869
2.11238
2.14561
2.17835
2.21058
2.24226
2.27338
2.30391
2.33381
2.36307
2.39166
2.41955
2.44672
2.47314
2.4988
2.52367
2.54773
2.57097
2.59336
2.6149
2.63556
2.65532
2.67419
2.69213
2.70915
2.72523
2.74036
2.75453
2.76773
2.77996
2.7912
2.80147
2.81074
2.81903
2.82631
2.8326
2.83788
2.84217
2.84545
2.84773
2.84902
2.8493
2.8486
2.8469
2.84421
2.84055
2.83591
2.8303
2.82375
2.81624
2.80778
2.7984
2.78812
2.77694
2.76488
2.75196
2.73819
2.72361
2.70822
2.69206
2.67513
2.65748
2.63912
2.62008
2.60039
2.58008
2.55917
2.5377
2.5157
2.49319
2.47021
2.4468
2.423
2.39884
2.37434
2.34953
2.32445
2.29911
2.27355
2.2478
2.22188
2.19583
2.16968
2.14345
2.11717
2.09087
2.06457
2.0383
2.01208
1.98594
1.95988
1.93394
1.90812
1.88244
1.85691
1.83155
1.80636
1.78135
1.75652
1.73188
1.70744
1.68322
1.65922
1.6355
1.61213
1.58923
1.56699
1.54572
1.52563
1.50702
0.0754498
0.132692
0.165493
0.188495
0.207041
0.223236
0.2382
0.252633
0.267009
0.281657
0.296803
0.312598
0.32913
0.346448
0.364571
0.383501
0.403225
0.423727
0.444983
0.466971
0.489669
0.513052
0.537101
0.561794
0.587115
0.613047
0.639574
0.666683
0.694363
0.722602
0.751391
0.780722
0.810585
0.840974
0.871882
0.903301
0.935226
0.967649
1.00056
1.03396
1.06783
1.10217
1.13696
1.17219
1.20784
1.24391
1.28038
1.31722
1.35442
1.39195
1.42979
1.46791
1.50628
1.54488
1.58367
1.62263
1.66171
1.70088
1.7401
1.77935
1.81858
1.85775
1.89683
1.93577
1.97454
2.01311
2.05143
2.08946
2.12717
2.16454
2.20145
2.23787
2.27379
2.30916
2.34396
2.37816
2.41174
2.44466
2.47689
2.5084
2.53918
2.56918
2.59839
2.62678
2.65433
2.68101
2.7068
2.73169
2.75566
2.77868
2.80074
2.82183
2.84194
2.86105
2.87914
2.89621
2.91225
2.92724
2.94118
2.95407
2.96589
2.97665
2.98634
2.99495
3.00249
3.00895
3.01433
3.01862
3.02184
3.02398
3.02505
3.02505
3.02398
3.02185
3.01866
3.01442
3.00914
3.00282
2.99549
2.98716
2.97782
2.9675
2.95622
2.94399
2.93082
2.91675
2.90178
2.88595
2.86926
2.85175
2.83345
2.81437
2.79454
2.77399
2.75276
2.73086
2.70833
2.68521
2.66151
2.63729
2.61256
2.58736
2.56174
2.53572
2.50933
2.48262
2.45559
2.4283
2.40075
2.373
2.34506
2.31696
2.28874
2.26043
2.23205
2.20363
2.17519
2.14678
2.11839
2.09007
2.06182
2.03368
2.00565
1.97776
1.95001
1.92243
1.89502
1.8678
1.84078
1.81397
1.78738
1.76103
1.73497
1.70925
1.68394
1.65918
1.63515
1.61212
1.59024
1.56973
0.0795613
0.135467
0.168852
0.192514
0.211729
0.228588
0.244187
0.259205
0.274101
0.289201
0.304734
0.320857
0.337673
0.355243
0.373599
0.392754
0.412707
0.43345
0.454969
0.47725
0.500279
0.524039
0.548518
0.573703
0.599582
0.626145
0.653381
0.681283
0.709842
0.739051
0.768903
0.799391
0.83051
0.862252
0.894611
0.927581
0.961154
0.995322
1.03008
1.06541
1.10131
1.13776
1.17475
1.21227
1.25029
1.28881
1.32779
1.36722
1.40706
1.4473
1.4879
1.52884
1.57007
1.61156
1.65329
1.6952
1.73726
1.77943
1.82166
1.86393
1.90617
1.94836
1.99044
2.03237
2.07412
2.11563
2.15687
2.1978
2.23837
2.27853
2.31818
2.35729
2.39584
2.43378
2.4711
2.50775
2.54371
2.57895
2.61343
2.64713
2.68001
2.71205
2.74321
2.77348
2.80283
2.83123
2.85866
2.88511
2.91055
2.93498
2.95836
2.98068
3.00194
3.02212
3.04121
3.05919
3.07605
3.09179
3.10639
3.11985
3.13218
3.14335
3.15338
3.16225
3.16998
3.17654
3.18194
3.18619
3.18929
3.19124
3.19204
3.19169
3.19021
3.1876
3.18387
3.17902
3.17307
3.16603
3.15791
3.14873
3.13849
3.12722
3.11493
3.10164
3.08737
3.07214
3.05597
3.03889
3.02091
3.00207
2.98239
2.96189
2.94061
2.91858
2.89582
2.87237
2.84825
2.82351
2.79816
2.77225
2.74581
2.71887
2.69147
2.66364
2.63543
2.60685
2.57794
2.54874
2.51927
2.48956
2.45964
2.42956
2.39932
2.36898
2.33854
2.30805
2.27753
2.247
2.21649
2.18603
2.15563
2.12532
2.09512
2.06504
2.0351
2.00532
1.97572
1.9463
1.9171
1.88811
1.85938
1.83093
1.8028
1.77505
1.74778
1.72112
1.69523
1.67036
1.64658
1.62407
0.0824739
0.136311
0.16989
0.193952
0.213645
0.231022
0.247147
0.26267
0.278028
0.293533
0.309408
0.325813
0.342856
0.360612
0.379123
0.398417
0.418504
0.439389
0.46107
0.483542
0.506802
0.530843
0.55566
0.581248
0.607602
0.634719
0.662595
0.691226
0.720609
0.75074
0.781615
0.81323
0.84558
0.878659
0.912463
0.946983
0.982212
1.01814
1.05476
1.09205
1.13001
1.16862
1.20785
1.2477
1.28814
1.32914
1.37069
1.41275
1.45529
1.49828
1.54168
1.58546
1.62958
1.674
1.71867
1.76355
1.8086
1.85376
1.899
1.94426
1.9895
2.03466
2.07971
2.12459
2.16925
2.21366
2.25776
2.3015
2.34486
2.38771
2.42999
2.47169
2.51276
2.55317
2.59289
2.63188
2.67011
2.70754
2.74415
2.7799
2.81476
2.84871
2.8817
2.91372
2.94474
2.97473
3.00368
3.03156
3.05836
3.08405
3.10863
3.13207
3.15437
3.17551
3.19548
3.21426
3.23184
3.24822
3.26338
3.27733
3.29006
3.30157
3.31185
3.3209
3.32874
3.33533
3.34069
3.34482
3.34773
3.34942
3.3499
3.34917
3.34723
3.34411
3.3398
3.33432
3.32768
3.31989
3.31096
3.30092
3.28977
3.27753
3.26423
3.24988
3.2345
3.21812
3.20076
3.18243
3.16318
3.14303
3.12199
3.10011
3.07741
3.05392
3.02967
3.0047
2.97904
2.95271
2.92576
2.89821
2.87011
2.84148
2.81237
2.7828
2.75281
2.72244
2.69171
2.66067
2.62933
2.59774
2.56591
2.5339
2.50171
2.4694
2.43697
2.40447
2.37191
2.33933
2.30675
2.2742
2.2417
2.20926
2.17692
2.14469
2.1126
2.08065
2.04888
2.0173
1.98593
1.9548
1.92394
1.89338
1.86318
1.83341
1.80415
1.77555
1.74775
1.72096
1.69521
1.67064
0.0842744
0.135571
0.169048
0.193306
0.213308
0.231062
0.247596
0.263527
0.279269
0.295114
0.311277
0.327914
0.345138
0.36303
0.381646
0.401024
0.42119
0.44216
0.463946
0.486556
0.509996
0.53427
0.559382
0.585337
0.612137
0.639786
0.668286
0.69764
0.727847
0.758908
0.790823
0.823589
0.857202
0.891659
0.926953
0.963076
1.00002
1.03777
1.07632
1.11564
1.15573
1.19657
1.23812
1.28037
1.32329
1.36685
1.41101
1.45575
1.50103
1.54681
1.59304
1.63969
1.6867
1.73404
1.78165
1.82948
1.87748
1.9256
1.97378
2.02197
2.07012
2.11818
2.16609
2.2138
2.26127
2.30844
2.35527
2.4017
2.44766
2.49304
2.53781
2.58192
2.62535
2.66805
2.70999
2.75113
2.79144
2.83088
2.86943
2.90706
2.94372
2.97939
3.01403
3.04762
3.08013
3.11154
3.14183
3.17097
3.19896
3.22577
3.25139
3.27579
3.29898
3.32093
3.34165
3.3611
3.37928
3.39617
3.41177
3.42609
3.43911
3.45084
3.46128
3.47041
3.47826
3.4848
3.49004
3.49399
3.49666
3.49804
3.49814
3.49698
3.49456
3.49088
3.48597
3.47982
3.47247
3.46391
3.45416
3.44324
3.43118
3.41798
3.40366
3.38826
3.37179
3.35427
3.33573
3.31619
3.29569
3.27425
3.2519
3.22867
3.20459
3.17969
3.15401
3.12757
3.10041
3.07257
3.04407
3.01496
2.98526
2.95501
2.92426
2.89302
2.86134
2.82925
2.79679
2.76398
2.73086
2.69746
2.66381
2.62995
2.59589
2.56168
2.52734
2.4929
2.45839
2.42382
2.38924
2.35467
2.32012
2.28562
2.2512
2.21688
2.18268
2.14861
2.11472
2.08101
2.04752
2.01427
1.9813
1.94865
1.91639
1.88459
1.85334
1.82276
1.79301
1.76425
1.73649
1.70983
0.0850326
0.133542
0.166704
0.191004
0.21118
0.229188
0.246019
0.262261
0.278304
0.294423
0.31082
0.327647
0.345019
0.363022
0.381723
0.40117
0.421404
0.442453
0.464343
0.487095
0.510724
0.535248
0.56068
0.587034
0.61432
0.642551
0.671733
0.701876
0.732983
0.76506
0.798107
0.832123
0.867107
0.903053
0.939954
0.9778
1.01658
1.05628
1.09687
1.13835
1.18069
1.22385
1.26783
1.31257
1.35805
1.40424
1.45108
1.49856
1.5466
1.59518
1.64425
1.69375
1.74363
1.79384
1.84433
1.89503
1.94588
1.99684
2.04783
2.09881
2.14972
2.2005
2.25109
2.30145
2.35152
2.40125
2.45059
2.49948
2.54778
2.59545
2.64244
2.68871
2.73423
2.77896
2.82286
2.86589
2.90802
2.94922
2.98945
3.02869
3.06691
3.10407
3.14011
3.17503
3.2088
3.24139
3.2728
3.30299
3.33196
3.35967
3.38613
3.4113
3.43519
3.45778
3.47905
3.499
3.51761
3.53487
3.55078
3.56534
3.57854
3.59038
3.60087
3.60999
3.61776
3.62416
3.62921
3.63291
3.63527
3.63628
3.63596
3.63432
3.63137
3.62711
3.62156
3.61473
3.60663
3.59729
3.58672
3.57493
3.56195
3.54779
3.53248
3.51604
3.4985
3.47987
3.46019
3.43948
3.41777
3.3951
3.37148
3.34696
3.32156
3.29531
3.26826
3.24043
3.21185
3.18257
3.15261
3.12201
3.0908
3.05903
3.02672
2.99391
2.96064
2.92693
2.89283
2.85836
2.82356
2.78846
2.75308
2.71747
2.68164
2.64563
2.60947
2.57319
2.53681
2.50036
2.46386
2.42734
2.39083
2.35435
2.31793
2.28158
2.24534
2.20922
2.17326
2.13748
2.10191
2.06658
2.03155
1.99685
1.96255
1.92873
1.89548
1.86294
1.83121
1.80046
1.77065
1.74191
0.0847921
0.130462
0.163171
0.187408
0.207661
0.225828
0.242866
0.259338
0.275614
0.291953
0.308548
0.325547
0.343064
0.361191
0.380002
0.399558
0.41991
0.441103
0.463172
0.486153
0.510071
0.534953
0.560824
0.587707
0.615622
0.644587
0.674616
0.705721
0.737912
0.771194
0.805571
0.841041
0.877602
0.915245
0.95396
0.993734
1.03455
1.07638
1.11922
1.16302
1.20776
1.2534
1.29992
1.34726
1.39539
1.44427
1.49384
1.54405
1.59487
1.64622
1.69806
1.75033
1.80297
1.85593
1.90915
1.96256
2.01608
2.06966
2.12323
2.17675
2.23015
2.28337
2.33636
2.38906
2.44142
2.49339
2.54492
2.59586
2.64615
2.69574
2.74459
2.79266
2.83992
2.88632
2.93182
2.97639
3.01999
3.0626
3.10417
3.14468
3.18409
3.22238
3.25951
3.29545
3.33019
3.36369
3.39594
3.42692
3.45661
3.48499
3.51205
3.53777
3.56215
3.58517
3.60681
3.62707
3.64594
3.66341
3.67947
3.69412
3.70737
3.7192
3.72961
3.73862
3.74621
3.75239
3.75716
3.76053
3.76251
3.76309
3.7623
3.76013
3.75661
3.75173
3.74552
3.73799
3.72915
3.71902
3.70762
3.69497
3.68109
3.666
3.64972
3.63228
3.6137
3.59401
3.57324
3.55141
3.52856
3.50471
3.4799
3.45416
3.42752
3.40001
3.37168
3.34254
3.31264
3.28202
3.2507
3.21872
3.18612
3.15293
3.11919
3.08492
3.05017
3.01497
2.97935
2.94335
2.90699
2.8703
2.83332
2.79608
2.7586
2.72092
2.68306
2.64505
2.60691
2.56868
2.53037
2.49202
2.45366
2.41529
2.37696
2.33868
2.30048
2.26239
2.22444
2.18666
2.14908
2.11174
2.07469
2.03798
2.00169
1.96588
1.93067
1.89615
1.86246
1.82971
1.79788
1.76706
0.0835785
0.126502
0.158687
0.182809
0.20309
0.221362
0.238553
0.255209
0.271684
0.288228
0.305027
0.322227
0.339943
0.358273
0.377298
0.39709
0.41771
0.439216
0.461661
0.485096
0.509537
0.535027
0.561603
0.589297
0.618136
0.648145
0.679341
0.71174
0.745353
0.780184
0.816235
0.853502
0.891978
0.931649
0.972498
1.0145
1.05764
1.10188
1.14719
1.19353
1.24086
1.28914
1.33832
1.38835
1.43919
1.49077
1.54304
1.59595
1.64943
1.70343
1.75788
1.81272
1.86788
1.92332
1.97895
2.03472
2.09055
2.14639
2.20216
2.25781
2.31328
2.36852
2.42346
2.47805
2.53225
2.58601
2.63919
2.69169
2.74348
2.79451
2.84474
2.89413
2.94265
2.99025
3.03689
3.08255
3.12718
3.17075
3.21324
3.25461
3.29483
3.33387
3.37171
3.40831
3.44366
3.47773
3.51049
3.54194
3.57206
3.60082
3.62821
3.65423
3.67884
3.70205
3.72385
3.74421
3.76315
3.78063
3.79667
3.81126
3.82439
3.83607
3.84629
3.85505
3.86236
3.86821
3.87262
3.87558
3.87711
3.87721
3.87588
3.87315
3.86902
3.86351
3.85662
3.84838
3.8388
3.82789
3.81568
3.80219
3.78744
3.77145
3.75425
3.73586
3.7163
3.69561
3.67382
3.65095
3.62703
3.6021
3.57619
3.54933
3.52155
3.49289
3.46338
3.43307
3.40197
3.37013
3.33758
3.30435
3.27049
3.23601
3.20097
3.16539
3.12931
3.09276
3.05577
3.01837
2.9806
2.94248
2.90404
2.86532
2.82633
2.78712
2.7477
2.70809
2.66834
2.62846
2.58848
2.54843
2.50832
2.46819
2.42807
2.38797
2.34793
2.30797
2.26813
2.22844
2.18893
2.14966
2.11068
2.07203
2.0338
1.99606
1.95891
1.92247
1.88683
1.85211
1.81828
1.78543
0.0813923
0.121513
0.153203
0.177258
0.197591
0.21598
0.233337
0.250198
0.266914
0.28373
0.300833
0.31837
0.33646
0.355208
0.374701
0.395022
0.416241
0.438426
0.461638
0.485931
0.511352
0.537945
0.565752
0.594809
0.625148
0.656791
0.689759
0.724064
0.759712
0.796702
0.835028
0.874679
0.915635
0.957873
1.00136
1.04607
1.09197
1.139
1.18712
1.23628
1.28644
1.33753
1.3895
1.44228
1.49583
1.55007
1.60495
1.6604
1.71635
1.77274
1.82951
1.88658
1.9439
2.0014
2.05902
2.11668
2.17432
2.23189
2.28931
2.34654
2.40351
2.46017
2.51648
2.57237
2.62781
2.68264
2.73679
2.79022
2.84287
2.89471
2.9457
2.9958
3.04497
3.09318
3.14038
3.18656
3.23167
3.27568
3.31856
3.36029
3.40083
3.44015
3.47824
3.51506
3.5506
3.58482
3.61772
3.64926
3.67944
3.70824
3.73564
3.76162
3.78618
3.80931
3.83099
3.85121
3.86996
3.88724
3.90305
3.91737
3.9302
3.94155
3.95141
3.95979
3.96667
3.97208
3.976
3.97846
3.97944
3.97897
3.97705
3.97369
3.9689
3.96271
3.95511
3.94613
3.93579
3.9241
3.91108
3.89676
3.88116
3.8643
3.84621
3.8269
3.80642
3.78479
3.76204
3.73819
3.71329
3.68736
3.66043
3.63254
3.60373
3.57402
3.54345
3.51206
3.47987
3.44694
3.41328
3.37894
3.34394
3.30832
3.27212
3.23537
3.1981
3.16033
3.12212
3.08347
3.04443
3.00502
2.96527
2.9252
2.88485
2.84424
2.8034
2.76235
2.72111
2.67972
2.63819
2.59656
2.55484
2.51306
2.47126
2.42945
2.38767
2.34595
2.30432
2.26282
2.22148
2.18037
2.13952
2.09901
2.05891
2.01929
1.98027
1.94193
1.9044
1.86776
1.83198
1.79717
0.0785786
0.116544
0.14765
0.171607
0.191988
0.21051
0.228074
0.245216
0.262289
0.279546
0.29718
0.315343
0.334163
0.353752
0.374208
0.395618
0.418062
0.441614
0.466339
0.492298
0.519542
0.548117
0.578062
0.609408
0.642179
0.676392
0.712053
0.749162
0.78771
0.827682
0.869055
0.911797
0.955874
1.00124
1.04786
1.09567
1.14462
1.19466
1.24572
1.29775
1.35067
1.40444
1.45897
1.51421
1.57009
1.62655
1.68352
1.74093
1.79872
1.85682
1.91518
1.97373
2.0324
2.09114
2.14988
2.20856
2.26713
2.32553
2.38371
2.4416
2.49917
2.55635
2.61312
2.66941
2.72507
2.78004
2.83428
2.88776
2.94043
2.99225
3.04319
3.09321
3.14228
3.19036
3.23741
3.28342
3.32834
3.37215
3.41481
3.4563
3.4966
3.53567
3.57349
3.61004
3.64529
3.67922
3.71182
3.74305
3.77292
3.80139
3.82845
3.8541
3.8783
3.90106
3.92237
3.9422
3.96056
3.97743
3.99281
4.0067
4.01908
4.02997
4.03935
4.04723
4.0536
4.05848
4.06186
4.06376
4.06417
4.06311
4.06058
4.05659
4.05117
4.04431
4.03605
4.02638
4.01534
4.00294
3.98919
3.97414
3.95778
3.94016