/*--------------------------------*- C++ -*----------------------------------*\
| =========                 |                                                 |
| \\      /  F ield         | OpenFOAM: The Open Source CFD Toolbox           |
|  \\    /   O peration     | Version:  2412                                  |
|   \\  /    A nd           | Website:  www.openfoam.com                      |
|    \\/     M anipulation  |                                                 |
\*---------------------------------------------------------------------------*/
FoamFile
{
    version     2.0;
    format      ascii;
    arch        "LSB;label=32;scalar=64";
    class       volScalarField;
    location    "0.11";
    object      nut;
}
// * * * * * * * * * * * * * * * * * * * * * * * * * * * * * * * * * * * * * //

dimensions      [0 2 -1 0 0 0 0];

internalField   nonuniform List<scalar> 
12225
(
2.015e-05
2.24858e-05
2.47491e-05
2.63713e-05
2.75878e-05
2.85141e-05
2.92321e-05
2.97977e-05
3.02481e-05
3.06094e-05
3.09011e-05
3.11373e-05
3.13286e-05
3.14826e-05
3.16052e-05
3.16997e-05
3.17693e-05
3.18329e-05
0.000167792
0.000185428
0.000202597
0.000213786
0.000221145
0.000225984
0.000229001
0.00023072
0.000231514
0.000231643
0.000231292
0.000230594
0.00022965
0.000228531
0.000227295
0.000225971
0.000224711
0.000224083
0.000338328
0.000365994
0.000399361
0.000424406
0.000442778
0.000456137
0.000465647
0.000472247
0.000476656
0.000479408
0.000480904
0.000481445
0.000481262
0.000480528
0.000479375
0.000477905
0.000476313
0.000475512
0.000480631
0.00052177
0.000570121
0.000608389
0.000637801
0.000660208
0.000677097
0.000689689
0.00069895
0.000705622
0.000710276
0.000713356
0.000715203
0.000716082
0.000716205
0.00071574
0.000714926
0.000714488
0.000593569
0.000650967
0.000713489
0.000763784
0.000803282
0.000834121
0.000858087
0.000876627
0.000890893
0.000901781
0.000909994
0.000916084
0.000920486
0.000923542
0.000925527
0.00092667
0.000927232
0.000927737
0.000684417
0.000756655
0.00083195
0.000893053
0.000941625
0.000980102
0.00101056
0.00103466
0.00105369
0.0010687
0.00108048
0.00108966
0.00109677
0.00110221
0.0011063
0.00110932
0.00111154
0.00111335
0.000759755
0.000842838
0.000928291
0.000998647
0.00105522
0.00110054
0.00113687
0.00116606
0.00118953
0.00120842
0.00122362
0.00123583
0.00124564
0.00125348
0.00125975
0.00126474
0.00126872
0.001272
0.000823623
0.000913363
0.00100525
0.00108261
0.00114578
0.00119702
0.00123858
0.00127237
0.00129992
0.00132244
0.00134087
0.00135598
0.0013684
0.00137862
0.00138705
0.00139401
0.00139977
0.00140455
0.000877001
0.000970915
0.0010653
0.00114672
0.00121456
0.00127046
0.0013164
0.00135422
0.00138543
0.00141127
0.00143272
0.0014506
0.00146553
0.00147807
0.00148862
0.00149754
0.00150505
0.00151133
0.000918256
0.00101593
0.00110995
0.00119241
0.00126253
0.00132141
0.00137056
0.00141158
0.00144588
0.00147465
0.00149884
0.00151928
0.00153661
0.00155137
0.00156401
0.00157484
0.00158409
0.00159183
0.000944751
0.00104624
0.0011388
0.00122007
0.00129016
0.00135005
0.00140091
0.00144404
0.00148062
0.00151173
0.00153826
0.00156097
0.00158049
0.00159735
0.00161197
0.00162466
0.0016356
0.00164479
0.00095393
0.00105647
0.00114714
0.00122621
0.0012948
0.00135414
0.00140529
0.00144932
0.00148722
0.00151989
0.00154814
0.00157262
0.00159394
0.00161256
0.0016289
0.00164322
0.00165569
0.00166618
0.000951547
0.0010519
0.0011407
0.00121792
0.00128483
0.00134291
0.00139338
0.00143727
0.00147548
0.00150882
0.00153799
0.00156359
0.00158613
0.00160605
0.00162371
0.00163935
0.00165308
0.00166465
0.000937268
0.00102694
0.00110962
0.00118334
0.00124795
0.00130436
0.00135364
0.00139679
0.00143467
0.00146805
0.00149757
0.00152377
0.0015471
0.00156797
0.00158668
0.00160344
0.00161828
0.00163082
0.000914068
0.000982522
0.00105001
0.00111403
0.00117279
0.00122569
0.00127284
0.00131466
0.00135173
0.00138467
0.00141403
0.00144031
0.00146393
0.00148525
0.00150455
0.00152201
0.00153763
0.00155088
0.000888184
0.00092937
0.000972537
0.00101673
0.00106058
0.00110293
0.00114295
0.00118015
0.00121433
0.00124549
0.00127381
0.00129953
0.00132291
0.00134419
0.0013636
0.00138131
0.0013973
0.00141099
0.000866167
0.000882907
0.000901463
0.000921834
0.000943723
0.000966735
0.000990442
0.0010144
0.00103817
0.0010614
0.00108382
0.00110525
0.00112555
0.00114467
0.00116258
0.0011793
0.00119476
0.00120853
0.000853647
0.000856464
0.000860485
0.000865726
0.000872139
0.00087966
0.000888219
0.000897726
0.000908068
0.000919115
0.000930729
0.000942767
0.000955094
0.000967587
0.000980122
0.000992583
0.00100485
0.00101669
0.000856836
0.000863038
0.00087043
0.00087902
0.000888694
0.000899299
0.000910666
0.00092261
0.000934939
0.000947464
0.00096002
0.000972468
0.000984694
0.000996616
0.00100817
0.00101933
0.00103001
0.00104002
0.000879012
0.000910088
0.000942997
0.000977089
0.00101136
0.00104491
0.00107705
0.00110728
0.00113532
0.00116106
0.00118453
0.00120584
0.00122513
0.00124258
0.00125837
0.00127266
0.00128556
0.00129715
0.000912425
0.000978627
0.00104328
0.00110414
0.00115968
0.00120943
0.00125356
0.00129248
0.00132673
0.00135686
0.00138339
0.0014068
0.00142749
0.00144581
0.00146206
0.0014765
0.00148935
0.0015009
0.00094465
0.00103936
0.00112414
0.00119815
0.00126208
0.00131725
0.0013649
0.00140608
0.00144169
0.00147252
0.00149925
0.00152248
0.00154268
0.00156029
0.00157566
0.0015891
0.00160085
0.0016112
0.000952969
0.00105495
0.00114494
0.00122286
0.00128968
0.0013468
0.00139547
0.00143683
0.00147198
0.00150188
0.00152734
0.00154906
0.00156761
0.00158348
0.00159709
0.00160875
0.00161875
0.00162731
0.000919763
0.00101577
0.00110711
0.00118655
0.00125365
0.00130982
0.00135662
0.00139555
0.00142799
0.00145507
0.00147771
0.00149668
0.00151258
0.00152593
0.00153714
0.00154655
0.00155443
0.00156097
0.000847921
0.000936213
0.00102591
0.00110193
0.00116439
0.00121544
0.00125709
0.00129112
0.00131899
0.00134186
0.00136064
0.00137609
0.00138877
0.00139919
0.00140772
0.00141468
0.00142033
0.0014248
0.000748242
0.000825345
0.000905837
0.000972006
0.00102523
0.00106796
0.00110226
0.00112982
0.00115199
0.00116982
0.00118415
0.00119563
0.00120479
0.00121206
0.00121779
0.00122223
0.00122561
0.00122806
0.000620839
0.000679398
0.000743805
0.000795903
0.000837072
0.000869523
0.000895047
0.000915074
0.00093074
0.000942942
0.000952379
0.000959603
0.000965051
0.000969067
0.00097193
0.00097386
0.000975031
0.000975559
0.000453206
0.00049108
0.000536514
0.000572229
0.00059936
0.000619978
0.000635561
0.000647221
0.000655841
0.000662101
0.000666521
0.000669503
0.000671357
0.000672328
0.000672605
0.000672339
0.000671649
0.000670632
0.00023657
0.000259231
0.000284033
0.000301437
0.000313163
0.000321244
0.000326757
0.000330376
0.000332603
0.000333806
0.000334245
0.000334114
0.000333559
0.00033269
0.000331591
0.000330324
0.00032894
0.000327502
2.7242e-05
3.0171e-05
3.32398e-05
3.54418e-05
3.70549e-05
3.82622e-05
3.91812e-05
3.9894e-05
4.04548e-05
4.09007e-05
4.12581e-05
4.15469e-05
4.17814e-05
4.19729e-05
4.21297e-05
4.22585e-05
4.23643e-05
4.24518e-05
6.0657e-06
1.64346e-05
1.84777e-05
1.98415e-05
2.07649e-05
2.15188e-05
2.23411e-05
2.31589e-05
2.39824e-05
2.48497e-05
2.58455e-05
2.7117e-05
2.84787e-05
2.98893e-05
3.13219e-05
3.27669e-05
3.42186e-05
3.56714e-05
3.71194e-05
3.85572e-05
3.99806e-05
4.13865e-05
4.27739e-05
4.4143e-05
4.54964e-05
4.68382e-05
4.81746e-05
4.94913e-05
5.07822e-05
5.20472e-05
5.32867e-05
5.45016e-05
5.56927e-05
5.68609e-05
5.80072e-05
5.91323e-05
6.02374e-05
6.13231e-05
6.23904e-05
6.34399e-05
6.44723e-05
6.54881e-05
6.64879e-05
6.7472e-05
6.84408e-05
6.93946e-05
7.03335e-05
7.12578e-05
7.21675e-05
7.30627e-05
7.39433e-05
7.48094e-05
7.56609e-05
7.64976e-05
7.73196e-05
7.81265e-05
7.89184e-05
7.9695e-05
8.04562e-05
8.12018e-05
8.19316e-05
8.26454e-05
8.33431e-05
8.40245e-05
8.46895e-05
8.53378e-05
8.59694e-05
8.65843e-05
8.71826e-05
8.77646e-05
8.83309e-05
8.8883e-05
8.94231e-05
8.99536e-05
9.04645e-05
9.09563e-05
9.14296e-05
9.18847e-05
9.23215e-05
9.27401e-05
9.31404e-05
9.35223e-05
9.38857e-05
9.42306e-05
9.45569e-05
9.48645e-05
9.51534e-05
9.54235e-05
9.56748e-05
9.59074e-05
9.61211e-05
9.63159e-05
9.64919e-05
9.66491e-05
9.67874e-05
9.69069e-05
9.70076e-05
9.70896e-05
9.71527e-05
9.71972e-05
9.72229e-05
9.723e-05
9.72185e-05
9.71884e-05
9.71398e-05
9.70727e-05
9.69872e-05
9.68833e-05
9.67611e-05
9.66207e-05
9.64621e-05
9.62854e-05
9.60908e-05
9.58782e-05
9.56478e-05
9.53997e-05
9.51341e-05
9.4851e-05
9.45507e-05
9.42332e-05
9.38988e-05
9.35476e-05
9.31799e-05
9.27958e-05
9.23956e-05
9.19796e-05
9.15481e-05
9.11013e-05
9.06396e-05
9.01634e-05
8.96729e-05
8.91687e-05
8.86511e-05
8.81205e-05
8.75777e-05
8.70228e-05
8.64567e-05
8.58803e-05
8.52926e-05
8.46978e-05
8.40983e-05
8.35154e-05
8.30722e-05
8.26809e-05
8.22862e-05
8.18846e-05
8.14763e-05
8.10619e-05
8.06422e-05
8.02179e-05
7.97899e-05
7.93588e-05
7.89255e-05
7.84908e-05
7.80557e-05
7.76209e-05
7.71872e-05
7.67556e-05
7.63267e-05
7.59014e-05
7.54804e-05
7.50644e-05
7.4654e-05
7.42496e-05
7.38518e-05
7.34607e-05
7.30764e-05
7.26989e-05
7.23277e-05
7.19621e-05
7.1601e-05
7.12426e-05
7.08843e-05
7.05222e-05
7.01502e-05
6.97584e-05
6.9327e-05
6.88147e-05
6.8095e-05
6.70654e-05
8.75251e-06
4.05092e-05
7.83995e-05
0.000107123
0.00012686
0.000139227
0.00014577
0.000150064
0.000153942
0.000158009
0.000162256
0.000166541
0.000170937
0.000175522
0.000180388
0.000185625
0.000191303
0.000197466
0.000204131
0.000211294
0.000218933
0.000227012
0.000235488
0.000244309
0.000253424
0.000262779
0.000272333
0.000282062
0.000291935
0.000301921
0.000311991
0.00032212
0.000332287
0.000342475
0.000352671
0.000362865
0.000373049
0.000383219
0.000393372
0.000403507
0.000413622
0.000423719
0.000433798
0.00044386
0.000453905
0.000463934
0.000473946
0.000483943
0.000493922
0.000503882
0.000513821
0.000523737
0.000533627
0.000543488
0.000553316
0.000563107
0.000572856
0.00058256
0.000592212
0.000601809
0.000611345
0.000620815
0.000630213
0.000639535
0.000648775
0.000657925
0.000666978
0.000675923
0.000684747
0.000693429
0.00070194
0.000710235
0.000718257
0.000725647
0.000732825
0.000739863
0.000746772
0.00075355
0.000760198
0.000766712
0.000773089
0.000779328
0.000785426
0.000791381
0.000797189
0.00080285
0.000808361
0.000813721
0.000818927
0.000823977
0.000828871
0.000833607
0.000838184
0.000842599
0.000846853
0.000850943
0.000854869
0.00085863
0.000862225
0.000865653
0.000868913
0.000872004
0.000874925
0.000877677
0.000880257
0.000882665
0.0008849
0.000886961
0.000888848
0.000890561
0.000892097
0.000893456
0.000894638
0.000895643
0.000896468
0.000897114
0.000897581
0.000897867
0.000897972
0.000897896
0.00089764
0.000897201
0.000896582
0.000895781
0.0008948
0.000893638
0.000892297
0.000890777
0.00088908
0.000887207
0.000885159
0.000882939
0.000880549
0.000877989
0.000875269
0.000872385
0.000869343
0.000866157
0.000862821
0.000859315
0.00085559
0.000851418
0.000845977
0.000839634
0.000832953
0.000826098
0.000819124
0.000812055
0.000804908
0.000797692
0.000790417
0.000783093
0.000775726
0.000768325
0.000760894
0.000753442
0.000745975
0.000738496
0.000731012
0.000723526
0.000716041
0.000708562
0.000701088
0.000693621
0.00068616
0.000678703
0.000671246
0.000663785
0.000656311
0.000648815
0.000641283
0.000633699
0.000626039
0.000618275
0.000610366
0.000602256
0.000593836
0.000584989
0.000574577
0.000550591
1.05573e-05
6.65629e-05
0.000129549
0.000176341
0.000207941
0.000228254
0.000241451
0.000250866
0.000258778
0.000266479
0.000274564
0.000283268
0.000292708
0.000302967
0.000314123
0.000326249
0.000339398
0.000353592
0.000368823
0.000385048
0.000402201
0.000420194
0.000438929
0.000458302
0.000478208
0.000498551
0.000519242
0.000540207
0.000561376
0.000582691
0.000604099
0.00062556
0.000647042
0.000668518
0.000689972
0.000711391
0.000732767
0.000754096
0.000775376
0.000796607
0.000817792
0.00083893
0.000860025
0.000881077
0.000902088
0.000923058
0.000943985
0.000964868
0.000985703
0.00100649
0.00102721
0.00104788
0.00106847
0.00108899
0.00110942
0.00112975
0.00114998
0.00117009
0.00119007
0.00120991
0.00122959
0.00124911
0.00126845
0.0012876
0.00130653
0.00132524
0.0013437
0.00136189
0.00137979
0.00139736
0.00141457
0.00143138
0.00144759
0.00146328
0.00147862
0.00149366
0.00150841
0.00152288
0.00153706
0.00155095
0.00156454
0.00157783
0.00159081
0.00160348
0.00161583
0.00162786
0.00163956
0.00165093
0.00166197
0.00167266
0.00168301
0.00169302
0.00170268
0.00171199
0.00172094
0.00172954
0.00173777
0.00174565
0.00175317
0.00176032
0.0017671
0.00177351
0.00177956
0.00178523
0.00179053
0.00179545
0.0018
0.00180417
0.00180796
0.00181137
0.0018144
0.00181704
0.00181929
0.00182116
0.00182264
0.00182374
0.00182444
0.00182475
0.00182467
0.0018242
0.00182334
0.00182208
0.00182043
0.00181839
0.00181596
0.00181315
0.00180994
0.00180635
0.00180237
0.00179802
0.00179329
0.00178819
0.00178272
0.00177689
0.00177072
0.00176421
0.00175735
0.00175018
0.00174269
0.00173482
0.00172648
0.00171744
0.00170713
0.00169571
0.00168364
0.00167112
0.00165829
0.0016452
0.00163189
0.00161838
0.0016047
0.00159087
0.00157691
0.00156283
0.00154865
0.0015344
0.00152007
0.00150569
0.00149128
0.00147684
0.00146238
0.00144791
0.00143345
0.00141899
0.00140454
0.0013901
0.00137567
0.00136123
0.00134678
0.0013323
0.00131776
0.00130313
0.00128837
0.0012734
0.00125816
0.00124249
0.00122615
0.00120864
0.001188
0.00115346
1.19336e-05
8.80063e-05
0.000169595
0.000229575
0.000271184
0.000299743
0.000319824
0.000335039
0.000348
0.00036041
0.000373259
0.000387068
0.000402101
0.00041849
0.000436306
0.000455582
0.000476315
0.000498469
0.000521974
0.000546733
0.000572626
0.00059952
0.000627276
0.000655758
0.000684835
0.000714389
0.000744314
0.000774519
0.000804925
0.000835466
0.000866088
0.00089675
0.000927418
0.000958068
0.000988684
0.00101925
0.00104977
0.00108023
0.00111063
0.00114097
0.00117125
0.00120148
0.00123165
0.00126176
0.00129181
0.00132181
0.00135174
0.00138159
0.00141138
0.00144107
0.00147068
0.00150018
0.00152957
0.00155883
0.00158794
0.0016169
0.00164569
0.00167429
0.00170268
0.00173085
0.00175878
0.00178645
0.00181384
0.00184092
0.00186769
0.0018941
0.00192015
0.00194581
0.00197104
0.00199582
0.00202012
0.00204391
0.00206706
0.00208967
0.00211182
0.00213355
0.00215486
0.00217577
0.00219627
0.00221634
0.00223599
0.0022552
0.00227397
0.0022923
0.00231016
0.00232757
0.0023445
0.00236096
0.00237694
0.00239244
0.00240745
0.00242196
0.00243597
0.00244948
0.00246248
0.00247497
0.00248694
0.0024984
0.00250934
0.00251975
0.00252964
0.002539
0.00254783
0.00255612
0.00256388
0.0025711
0.00257777
0.00258391
0.00258949
0.00259453
0.00259902
0.00260296
0.00260634
0.00260917
0.00261143
0.00261314
0.00261429
0.00261487
0.00261489
0.00261434
0.00261323
0.00261155
0.00260931
0.0026065
0.00260312
0.00259919
0.00259469
0.00258964
0.00258403
0.00257788
0.00257118
0.00256394
0.00255618
0.00254789
0.00253909
0.0025298
0.00252001
0.00250973
0.00249896
0.00248765
0.00247572
0.002463
0.00244918
0.00243431
0.00241863
0.00240233
0.00238552
0.00236829
0.00235069
0.00233276
0.00231452
0.00229602
0.00227728
0.00225833
0.00223918
0.00221987
0.00220042
0.00218085
0.00216117
0.00214142
0.0021216
0.00210174
0.00208184
0.00206192
0.00204199
0.00202205
0.00200209
0.00198212
0.00196211
0.00194205
0.00192192
0.00190166
0.00188122
0.00186053
0.00183947
0.00181787
0.00179542
0.00177147
0.00174411
0.00170764
1.29166e-05
0.000105141
0.000201171
0.000273121
0.000324749
0.000361736
0.000388991
0.000410405
0.000428875
0.000446408
0.000464283
0.00048325
0.000503715
0.000525872
0.000549793
0.000575473
0.00060286
0.000631859
0.000662352
0.000694196
0.000727239
0.000761322
0.000796291
0.000831997
0.000868306
0.000905093
0.000942253
0.000979692
0.00101733
0.00105511
0.00109297
0.00113087
0.00116879
0.00120668
0.00124455
0.00128237
0.00132014
0.00135785
0.00139549
0.00143307
0.00147058
0.00150802
0.00154539
0.00158269
0.0016199
0.00165703
0.00169407
0.001731
0.00176783
0.00180453
0.0018411
0.00187752
0.00191378
0.00194985
0.00198573
0.0020214
0.00205683
0.00209201
0.00212691
0.00216151
0.0021958
0.00222975
0.00226333
0.00229653
0.00232932
0.00236168
0.00239358
0.002425
0.00245592
0.00248631
0.00251614
0.00254539
0.00257398
0.00260198
0.00262946
0.00265642
0.00268289
0.00270885
0.00273431
0.00275926
0.00278369
0.00280759
0.00283095
0.00285377
0.00287603
0.00289774
0.00291887
0.00293942
0.0029594
0.00297878
0.00299757
0.00301576
0.00303334
0.00305031
0.00306666
0.00308239
0.00309749
0.00311196
0.0031258
0.003139
0.00315156
0.00316347
0.00317474
0.00318535
0.00319531
0.0032046
0.00321324
0.00322121
0.00322852
0.00323515
0.00324111
0.00324639
0.003251
0.00325492
0.00325815
0.0032607
0.00326256
0.00326373
0.0032642
0.00326399
0.00326307
0.00326146
0.00325915
0.00325615
0.00325245
0.00324805
0.00324296
0.00323719
0.00323072
0.00322358
0.00321576
0.00320727
0.00319813
0.00318833
0.00317789
0.00316682
0.00315513
0.0031428
0.00312985
0.00311624
0.00310192
0.00308676
0.00307062
0.00305349
0.0030355
0.00301676
0.00299739
0.00297745
0.00295701
0.0029361
0.00291477
0.00289306
0.00287099
0.0028486
0.00282592
0.00280297
0.00277979
0.0027564
0.00273283
0.0027091
0.00268524
0.00266127
0.00263721
0.00261306
0.00258885
0.00256457
0.00254025
0.00251586
0.0024914
0.00246685
0.00244218
0.00241736
0.00239232
0.002367
0.00234128
0.00231498
0.00228782
0.00225916
0.00222749
0.00218981
1.38846e-05
0.000115807
0.000224589
0.000308126
0.000369774
0.00041541
0.000450173
0.000478159
0.00050248
0.000525368
0.000548325
0.000572289
0.000597794
0.000625106
0.000654318
0.000685414
0.000718316
0.000752899
0.000789014
0.0008265
0.000865188
0.000904914
0.000945518
0.000986854
0.00102879
0.0010712
0.00111399
0.00115706
0.00120035
0.00124377
0.0012873
0.00133087
0.00137447
0.00141805
0.00146161
0.00150513
0.00154859
0.00159199
0.00163532
0.00167857
0.00172174
0.00176482
0.00180781
0.0018507
0.00189349
0.00193616
0.0019787
0.00202111
0.00206337
0.00210547
0.0021474
0.00218913
0.00223065
0.00227194
0.00231299
0.00235377
0.00239426
0.00243444
0.00247428
0.00251378
0.00255289
0.0025916
0.00262989
0.00266774
0.00270511
0.00274199
0.00277835
0.00281418
0.00284945
0.00288414
0.00291825
0.00295166
0.00298443
0.00301658
0.00304816
0.00307917
0.00310962
0.00313951
0.00316883
0.00319758
0.00322575
0.00325332
0.0032803
0.00330667
0.00333241
0.00335753
0.00338202
0.00340586
0.00342904
0.00345157
0.00347343
0.00349461
0.00351512
0.00353494
0.00355406
0.00357249
0.00359021
0.00360723
0.00362353
0.00363912
0.00365398
0.00366812
0.00368152
0.00369419
0.00370612
0.00371731
0.00372775
0.00373744
0.00374638
0.00375456
0.00376197
0.00376862
0.00377451
0.00377962
0.00378395
0.00378751
0.00379029
0.00379228
0.00379348
0.0037939
0.00379353
0.00379236
0.00379041
0.00378766
0.00378411
0.00377978
0.00377465
0.00376874
0.00376205
0.00375457
0.00374631
0.00373729
0.00372751
0.00371697
0.00370569
0.00369368
0.00368093
0.00366745
0.00365324
0.00363828
0.00362253
0.00360593
0.00358839
0.0035699
0.00355053
0.00353033
0.0035094
0.00348779
0.00346557
0.00344276
0.00341942
0.00339558
0.00337127
0.00334654
0.0033214
0.0032959
0.00327006
0.00324392
0.0032175
0.00319083
0.00316394
0.00313685
0.00310958
0.00308215
0.00305459
0.00302689
0.00299907
0.00297113
0.00294306
0.00291484
0.00288647
0.00285789
0.00282907
0.00279994
0.00277041
0.00274034
0.00270947
0.0026773
0.00264271
0.00260417
1.4878e-05
0.000121101
0.000240568
0.000335
0.000406455
0.000460773
0.000503208
0.000537986
0.000568355
0.000596702
0.000624691
0.000653408
0.000683509
0.000715337
0.000749032
0.000784599
0.000821961
0.00086099
0.000901533
0.000943424
0.000986496
0.00103059
0.00107554
0.00112121
0.00116748
0.00121423
0.00126136
0.00130878
0.00135642
0.00140421
0.00145211
0.00150007
0.00154806
0.00159605
0.00164401
0.00169193
0.00173979
0.00178757
0.00183528
0.00188289
0.00193041
0.00197781
0.0020251
0.00207227
0.0021193
0.00216619
0.00221292
0.00225948
0.00230586
0.00235204
0.00239801
0.00244375
0.00248924
0.00253446
0.0025794
0.00262402
0.00266832
0.00271227
0.00275584
0.00279901
0.00284176
0.00288407
0.00292591
0.00296727
0.00300811
0.00304843
0.00308818
0.00312737
0.00316597
0.00320395
0.00324131
0.00327796
0.00331395
0.00334931
0.00338406
0.00341822
0.00345178
0.00348474
0.0035171
0.00354886
0.00357999
0.00361049
0.00364035
0.00366957
0.00369812
0.003726
0.0037532
0.00377972
0.00380554
0.00383065
0.00385504
0.00387872
0.00390167
0.00392388
0.00394535
0.00396607
0.00398603
0.00400523
0.00402366
0.00404132
0.00405821
0.00407431
0.00408962
0.00410414
0.00411786
0.00413079
0.0041429
0.0041542
0.00416469
0.00417436
0.00418321
0.00419123
0.00419841
0.00420476
0.00421028
0.00421495
0.00421877
0.00422175
0.00422387
0.00422514
0.00422555
0.0042251
0.00422379
0.00422162
0.00421859
0.00421469
0.00420993
0.00420431
0.00419783
0.00419049
0.00418231
0.00417328
0.00416342
0.00415273
0.00414121
0.00412888
0.00411573
0.00410178
0.00408701
0.00407143
0.00405499
0.00403768
0.00401944
0.00400027
0.00398019
0.00395924
0.00393748
0.00391496
0.00389171
0.00386779
0.00384324
0.00381807
0.00379234
0.00376607
0.0037393
0.00371205
0.00368436
0.00365626
0.00362778
0.00359895
0.00356979
0.00354034
0.00351062
0.00348064
0.00345043
0.00342001
0.00338937
0.00335854
0.00332751
0.00329627
0.0032648
0.0032331
0.00320111
0.00316881
0.00313613
0.00310295
0.0030691
0.0030342
0.00299748
0.00295817
1.56568e-05
0.000123487
0.000250909
0.000354752
0.000435282
0.000497946
0.000547935
0.000589492
0.000625918
0.000659686
0.000692566
0.000725759
0.000760023
0.000795789
0.000833258
0.000872479
0.000913403
0.000955922
0.000999895
0.00104517
0.00109158
0.00113898
0.00118723
0.00123618
0.00128572
0.00133573
0.00138612
0.00143682
0.00148773
0.00153881
0.00159
0.00164126
0.00169255
0.00174383
0.00179509
0.0018463
0.00189744
0.0019485
0.00199947
0.00205033
0.00210107
0.00215168
0.00220216
0.00225248
0.00230266
0.00235266
0.00240248
0.0024521
0.00250152
0.00255072
0.00259967
0.00264837
0.0026968
0.00274493
0.00279275
0.00284024
0.00288737
0.00293412
0.00298048
0.00302641
0.0030719
0.00311692
0.00316145
0.00320548
0.00324896
0.0032919
0.00333426
0.00337603
0.00341719
0.00345773
0.0034976
0.00353677
0.00357529
0.00361318
0.00365045
0.00368711
0.00372316
0.0037586
0.00379342
0.0038276
0.00386115
0.00389405
0.00392629
0.00395785
0.00398873
0.00401891
0.00404839
0.00407715
0.00410519
0.0041325
0.00415905
0.00418486
0.00420991
0.00423419
0.00425769
0.00428041
0.00430233
0.00432346
0.00434378
0.00436329
0.00438198
0.00439986
0.0044169
0.00443312
0.00444849
0.00446303
0.00447671
0.00448954
0.00450151
0.00451262
0.00452287
0.00453224
0.00454074
0.00454836
0.00455509
0.00456094
0.0045659
0.00456996
0.00457312
0.00457537
0.00457673
0.00457719
0.00457672
0.00457534
0.00457305
0.00456984
0.00456572
0.00456069
0.00455476
0.00454791
0.00454017
0.00453153
0.00452199
0.00451157
0.00450026
0.00448807
0.00447501
0.00446108
0.00444628
0.0044306
0.00441403
0.00439655
0.00437813
0.00435878
0.00433849
0.00431729
0.00429523
0.00427233
0.00424864
0.00422417
0.00419898
0.00417309
0.00414652
0.00411932
0.00409151
0.00406312
0.00403419
0.00400474
0.0039748
0.0039444
0.00391357
0.00388233
0.00385072
0.00381875
0.00378645
0.00375383
0.00372091
0.0036877
0.00365421
0.00362044
0.00358638
0.00355202
0.00351736
0.00348237
0.00344701
0.00341123
0.00337491
0.00333779
0.00329934
0.00325921
1.62507e-05
0.000123764
0.000256671
0.000368266
0.000456856
0.000527256
0.000584429
0.000632528
0.000674837
0.000713851
0.0007514
0.000788763
0.000826786
0.00086598
0.000906621
0.000948813
0.000992552
0.00103777
0.00108434
0.00113214
0.00118102
0.00123085
0.00128148
0.0013328
0.0013847
0.00143705
0.00148978
0.00154281
0.00159606
0.00164947
0.00170299
0.00175658
0.00181019
0.0018638
0.00191737
0.00197089
0.00202434
0.00207769
0.00213094
0.00218406
0.00223706
0.00228991
0.00234262
0.00239516
0.00244754
0.00249973
0.00255172
0.00260352
0.00265509
0.00270643
0.00275752
0.00280835
0.00285889
0.00290913
0.00295906
0.00300864
0.00305787
0.00310671
0.00315514
0.00320315
0.0032507
0.00329779
0.00334437
0.00339045
0.00343598
0.00348095
0.00352535
0.00356915
0.00361233
0.00365489
0.00369675
0.00373795
0.00377852
0.00381847
0.00385781
0.00389654
0.00393466
0.00397216
0.00400904
0.00404529
0.00408088
0.00411582
0.00415009
0.00418367
0.00421655
0.00424873
0.00428019
0.00431091
0.00434089
0.00437012
0.00439859
0.00442628
0.00445319
0.00447932
0.00450464
0.00452915
0.00455285
0.00457572
0.00459776
0.00461896
0.00463932
0.00465883
0.00467749
0.00469528
0.00471221
0.00472827
0.00474344
0.00475773
0.00477113
0.00478364
0.00479526
0.00480598
0.00481578
0.00482467
0.00483264
0.0048397
0.00484585
0.00485106
0.00485532
0.00485865
0.00486105
0.00486251
0.00486302
0.00486258
0.0048612
0.00485887
0.0048556
0.00485138
0.00484621
0.00484011
0.00483306
0.00482507
0.00481615
0.0048063
0.00479552
0.00478382
0.0047712
0.00475765
0.00474319
0.00472781
0.0047115
0.00469424
0.00467604
0.00465687
0.00463675
0.00461569
0.00459371
0.00457083
0.00454709
0.00452251
0.00449711
0.00447092
0.00444397
0.00441629
0.0043879
0.00435883
0.0043291
0.00429876
0.00426781
0.0042363
0.00420424
0.00417167
0.00413861
0.00410508
0.00407111
0.00403672
0.00400192
0.00396674
0.00393118
0.00389526
0.00385899
0.00382236
0.00378539
0.00374808
0.00371042
0.0036724
0.00363395
0.00359492
0.00355495
0.0035139
1.66887e-05
0.000122454
0.00025867
0.000376341
0.000471837
0.000549177
0.000612971
0.000667199
0.00071506
0.000759027
0.000800947
0.000842148
0.000883541
0.000925711
0.000969003
0.00101359
0.00105951
0.00110674
0.0011552
0.00120478
0.00125537
0.00130684
0.00135908
0.00141195
0.00146537
0.00151923
0.00157345
0.00162795
0.00168266
0.00173752
0.00179249
0.00184751
0.00190255
0.00195758
0.00201258
0.00206751
0.00212236
0.00217711
0.00223176
0.00228628
0.00234068
0.00239493
0.00244903
0.00250298
0.00255675
0.00261035
0.00266377
0.00271698
0.00276999
0.00282278
0.00287533
0.00292763
0.00297966
0.0030314
0.00308284
0.00313395
0.00318472
0.00323511
0.00328512
0.00333471
0.00338386
0.00343254
0.00348074
0.00352844
0.0035756
0.00362221
0.00366824
0.00371368
0.00375852
0.00380272
0.00384626
0.00388918
0.00393149
0.00397321
0.00401433
0.00405485
0.00409477
0.00413409
0.00417278
0.00421084
0.00424825
0.00428501
0.00432109
0.00435648
0.00439116
0.00442514
0.00445838
0.00449088
0.00452263
0.00455361
0.00458382
0.00461324
0.00464187
0.00466969
0.00469669
0.00472287
0.00474822
0.00477271
0.00479636
0.00481915
0.00484107
0.00486212
0.0048823
0.0049016
0.00492001
0.00493752
0.00495413
0.00496983
0.00498461
0.00499849
0.00501145
0.00502351
0.00503461
0.00504477
0.00505399
0.00506226
0.0050696
0.00507599
0.00508141
0.00508588
0.00508939
0.00509194
0.00509352
0.00509413
0.00509378
0.00509245
0.00509016
0.0050869
0.00508267
0.00507747
0.00507131
0.00506417
0.00505608
0.00504702
0.005037
0.00502602
0.00501409
0.00500121
0.00498736
0.00497256
0.0049568
0.00494007
0.00492236
0.00490367
0.00488399
0.00486335
0.00484174
0.00481918
0.00479569
0.0047713
0.00474601
0.00471986
0.00469286
0.00466504
0.00463641
0.00460701
0.00457685
0.00454595
0.00451436
0.00448208
0.00444915
0.00441559
0.00438142
0.00434667
0.00431137
0.00427553
0.00423919
0.00420235
0.00416505
0.00412729
0.0040891
0.0040505
0.00401152
0.00397217
0.00393248
0.00389248
0.00385215
0.00381141
0.00377
0.00372789
1.69926e-05
0.000119962
0.000257595
0.000379713
0.000480887
0.000564255
0.000633975
0.000693785
0.000746751
0.000795279
0.000841203
0.000885873
0.000930243
0.000974959
0.00102043
0.00106688
0.00111441
0.00116305
0.00121276
0.00126345
0.00131504
0.00136742
0.00142049
0.00147415
0.0015283
0.00158285
0.00163773
0.00169286
0.00174818
0.00180364
0.00185918
0.00191478
0.00197039
0.00202598
0.00208154
0.00213703
0.00219246
0.0022478
0.00230304
0.00235818
0.0024132
0.00246811
0.00252289
0.00257754
0.00263205
0.00268642
0.00274064
0.00279469
0.00284857
0.00290226
0.00295576
0.00300904
0.0030621
0.0031149
0.00316744
0.00321968
0.00327162
0.00332321
0.00337444
0.00342529
0.00347573
0.00352572
0.00357525
0.00362429
0.00367282
0.0037208
0.00376823
0.00381508
0.00386132
0.00390696
0.00395199
0.00399645
0.00404033
0.00408365
0.00412639
0.00416855
0.00421013
0.00425111
0.00429147
0.00433122
0.00437032
0.00440876
0.00444653
0.0044836
0.00451997
0.00455562
0.00459054
0.00462471
0.00465811
0.00469075
0.00472259
0.00475364
0.00478389
0.00481332
0.00484192
0.00486968
0.00489659
0.00492263
0.00494781
0.00497211
0.00499553
0.00501806
0.0050397
0.00506045
0.00508031
0.00509924
0.00511723
0.0051343
0.00515045
0.00516566
0.00517993
0.00519327
0.00520566
0.00521709
0.00522756
0.00523708
0.00524563
0.00525322
0.00525984
0.00526549
0.00527016
0.00527386
0.00527658
0.00527832
0.00527908
0.00527885
0.00527764
0.00527544
0.00527226
0.00526809
0.00526294
0.0052568
0.00524968
0.00524158
0.00523249
0.00522242
0.00521137
0.00519933
0.00518631
0.00517231
0.00515731
0.00514132
0.00512433
0.00510632
0.00508731
0.0050673
0.00504628
0.00502427
0.00500127
0.00497731
0.00495238
0.00492652
0.00489973
0.00487203
0.00484343
0.00481396
0.00478364
0.00475249
0.00472052
0.00468775
0.00465423
0.00461995
0.00458496
0.00454926
0.0045129
0.00447589
0.00443825
0.00440002
0.00436122
0.00432188
0.00428202
0.00424169
0.00420092
0.00415975
0.00411825
0.00407646
0.0040344
0.00399205
0.00394924
0.00390596
1.71783e-05
0.000116609
0.000254035
0.000379047
0.000484643
0.000573048
0.000647906
0.000712653
0.000770177
0.000822789
0.000872279
0.000919993
0.000966912
0.00101372
0.00106089
0.00110868
0.00115727
0.00120672
0.00125702
0.00130814
0.00136001
0.00141255
0.00146568
0.00151931
0.00157337
0.00162777
0.00168246
0.00173735
0.00179241
0.00184759
0.00190285
0.00195815
0.00201347
0.00206878
0.00212408
0.00217934
0.00223457
0.00228974
0.00234486
0.00239992
0.00245492
0.00250986
0.00256473
0.00261953
0.00267425
0.00272889
0.00278345
0.00283791
0.00289227
0.0029465
0.0030006
0.00305456
0.00310834
0.00316193
0.00321532
0.00326847
0.00332135
0.00337395
0.00342622
0.00347816
0.00352971
0.00358086
0.00363157
0.00368181
0.00373157
0.0037808
0.00382949
0.00387761
0.00392515
0.00397215
0.00401861
0.00406453
0.00410991