/*--------------------------------*- C++ -*----------------------------------*\
| =========                 |                                                 |
| \\      /  F ield         | OpenFOAM: The Open Source CFD Toolbox           |
|  \\    /   O peration     | Version:  2412                                  |
|   \\  /    A nd           | Website:  www.openfoam.com                      |
|    \\/     M anipulation  |                                                 |
\*---------------------------------------------------------------------------*/
FoamFile
{
    version     2.0;
    format      ascii;
    arch        "LSB;label=32;scalar=64";
    class       volScalarField;
    location    "0.11";
    object      p;
}
// * * * * * * * * * * * * * * * * * * * * * * * * * * * * * * * * * * * * * //

dimensions      [0 2 -2 0 0 0 0];

internalField   nonuniform List<scalar> 
12225
(
-10.2216
-9.62921
-8.9665
-8.41006
-7.901
-7.44454
-7.04596
-6.69492
-6.38252
-6.10318
-5.852
-5.62448
-5.41678
-5.22557
-5.04784
-4.88016
-4.72057
-4.55548
-10.6553
-9.68739
-9.00131
-8.45104
-7.94129
-7.48478
-7.08556
-6.73312
-6.41908
-6.13805
-5.88514
-5.65588
-5.44648
-5.25359
-5.07418
-4.90494
-4.74317
-4.58563
-10.8358
-9.72167
-9.04306
-8.5019
-7.99169
-7.53605
-7.13697
-6.78346
-6.46788
-6.18506
-5.9302
-5.69893
-5.4875
-5.2926
-5.11124
-4.94027
-4.77686
-4.61569
-10.8596
-9.73738
-9.06773
-8.53586
-8.02834
-7.57556
-7.17834
-6.82539
-6.50965
-6.22623
-5.97044
-5.73806
-5.52543
-5.32935
-5.1469
-4.97532
-4.81129
-4.65367
-10.7895
-9.73209
-9.06802
-8.54664
-8.04615
-7.5983
-7.20464
-6.85389
-6.53945
-6.2567
-6.00116
-5.76874
-5.55594
-5.35973
-5.17731
-5.00642
-4.84365
-4.69366
-10.6477
-9.69896
-9.04454
-8.53578
-8.04693
-7.60627
-7.21776
-6.87071
-6.55884
-6.27787
-6.02355
-5.79201
-5.57995
-5.3845
-5.20312
-5.03406
-4.87405
-4.73251
-10.4451
-9.63253
-8.9983
-8.50409
-8.03135
-7.60067
-7.21906
-6.87721
-6.56916
-6.291
-6.03883
-5.80904
-5.59852
-5.40469
-5.22525
-5.05894
-4.90273
-4.76949
-10.1922
-9.5302
-8.93012
-8.45215
-7.99934
-7.58188
-7.20912
-6.87405
-6.57112
-6.29687
-6.0478
-5.82061
-5.61248
-5.42107
-5.24441
-5.08162
-4.92991
-4.8046
-9.89972
-9.39168
-8.84115
-8.38159
-7.95142
-7.55049
-7.18869
-6.86198
-6.56554
-6.29632
-6.05131
-5.8276
-5.62266
-5.43448
-5.26134
-5.1027
-4.95597
-4.8381
-9.57899
-9.21895
-8.73275
-8.29527
-7.8893
-7.50782
-7.15911
-6.84224
-6.55356
-6.29047
-6.05047
-5.83108
-5.63014
-5.4459
-5.27695
-5.12296
-4.98145
-4.87042
-9.24212
-9.01679
-8.60657
-8.19674
-7.8159
-7.4561
-7.12245
-6.81671
-6.53689
-6.2809
-6.04676
-5.83246
-5.6362
-5.45655
-5.2923
-5.14332
-5.00703
-4.9024
-8.93015
-8.81105
-8.47686
-8.0986
-7.7417
-7.40325
-7.08506
-6.79054
-6.51958
-6.27079
-6.04265
-5.83358
-5.64212
-5.46709
-5.30748
-5.16329
-5.03158
-4.9327
-8.63519
-8.59671
-8.33835
-7.99641
-7.66372
-7.34727
-7.04584
-6.76334
-6.50172
-6.2606
-6.03889
-5.83541
-5.64906
-5.4789
-5.32409
-5.18464
-5.05795
-4.96253
-8.32817
-8.35233
-8.17281
-7.87696
-7.57302
-7.28212
-7.00141
-6.73396
-6.48371
-6.25181
-6.03784
-5.84107
-5.66076
-5.49628
-5.34695
-5.21279
-5.09154
-4.99875
-8.03116
-8.09817
-7.99031
-7.74634
-7.47485
-7.21153
-6.95479
-6.70571
-6.46927
-6.24842
-6.04369
-5.85481
-5.68146
-5.52331
-5.3799
-5.2513
-5.13539
-5.04486
-7.77288
-7.86622
-7.81602
-7.62309
-7.38494
-7.148
-6.91503
-6.68549
-6.46421
-6.25557
-6.06115
-5.88118
-5.7156
-5.56434
-5.42712
-5.30406
-5.19322
-5.10433
-7.58545
-7.69355
-7.68484
-7.53601
-7.32926
-7.11571
-6.90328
-6.69115
-6.48354
-6.28569
-6.10028
-5.92804
-5.76912
-5.62366
-5.49142
-5.37242
-5.26506
-5.17535
-7.50916
-7.62148
-7.634
-7.51237
-7.32741
-7.13051
-6.93271
-6.73351
-6.53646
-6.34701
-6.16845
-6.00183
-5.84734
-5.705
-5.57475
-5.45637
-5.34882
-5.25342
-7.60886
-7.71589
-7.72224
-7.59561
-7.40742
-7.20872
-7.01012
-6.81094
-6.61457
-6.42623
-6.24897
-6.0836
-5.93011
-5.7883
-5.65785
-5.53808
-5.4287
-5.32658
-7.88542
-7.97984
-7.94643
-7.77489
-7.55335
-7.33068
-7.11234
-6.89706
-6.68879
-6.49207
-6.30878
-6.13896
-5.98216
-5.8378
-5.70518
-5.58321
-5.47164
-5.36481
-8.279
-8.33712
-8.23475
-8.00035
-7.73605
-7.48113
-7.23506
-6.99734
-6.77232
-6.56314
-6.37022
-6.19288
-6.03025
-5.88139
-5.74533
-5.62082
-5.50746
-5.39926
-8.77952
-8.75926
-8.55107
-8.24131
-7.92929
-7.63534
-7.35571
-7.09226
-6.8485
-6.62519
-6.42132
-6.23552
-6.06641
-5.91261
-5.77275
-5.64543
-5.52987
-5.42036
-9.34364
-9.18806
-8.84417
-8.46132
-8.10472
-7.77124
-7.45928
-7.1727
-6.9122
-6.67602
-6.46211
-6.26856
-6.09344
-5.93494
-5.79141
-5.66125
-5.54341
-5.4328
-9.9081
-9.56211
-9.07902
-8.64124
-8.24733
-7.87784
-7.53845
-7.23282
-6.95808
-6.71074
-6.48816
-6.28791
-6.10759
-5.945
-5.79823
-5.66554
-5.54565
-5.43413
-10.4121
-9.84366
-9.24801
-8.77622
-8.34965
-7.9492
-7.58841
-7.26797
-6.98189
-6.72577
-6.49651
-6.29117
-6.10691
-5.94125
-5.79208
-5.65749
-5.53609
-5.42409
-10.8137
-10.0213
-9.35477
-8.86265
-8.40755
-7.98365
-7.60796
-7.27693
-6.9827
-6.72043
-6.48661
-6.27783
-6.09097
-5.92333
-5.77266
-5.63693
-5.51464
-5.4026
-11.085
-10.1048
-9.40501
-8.89832
-8.42197
-7.98321
-7.598
-7.26002
-6.96061
-6.69462
-6.45817
-6.24753
-6.05937
-5.89086
-5.7396
-5.60353
-5.48104
-5.3695
-11.1922
-10.1202
-9.40566
-8.8826
-8.39422
-7.9479
-7.55711
-7.21532
-6.91357
-6.64623
-6.40909
-6.19825
-6.01023
-5.84206
-5.6913
-5.55581
-5.43393
-5.32358
-11.0596
-10.0904
-9.37063
-8.82497
-8.33167
-7.88302
-7.48988
-7.14725
-6.84584
-6.57939
-6.34347
-6.13408
-5.9476
-5.78101
-5.63181
-5.49783
-5.37733
-5.26855
-10.5284
-9.99808
-9.32805
-8.76805
-8.27301
-7.82411
-7.43052
-7.08852
-6.78844
-6.52354
-6.28925
-6.0815
-5.89664
-5.73162
-5.5839
-5.45132
-5.33204
-5.22425
-4.63356
-4.63324
-4.63481
-4.63778
-4.64116
-4.64442
-4.64759
-4.65088
-4.65441
-4.65836
-4.66291
-4.66823
-4.67447
-4.68179
-4.69031
-4.70021
-4.71162
-4.72468
-4.73948
-4.75609
-4.77454
-4.79479
-4.8168
-4.84044
-4.86558
-4.89205
-4.91958
-4.94791
-4.9768
-5.00605
-5.03543
-5.06474
-5.09378
-5.12239
-5.15038
-5.17759
-5.20389
-5.22913
-5.25318
-5.27592
-5.29723
-5.31699
-5.3351
-5.35145
-5.36593
-5.37843
-5.38886
-5.39709
-5.40304
-5.4066
-5.40767
-5.40614
-5.40193
-5.39493
-5.38505
-5.3722
-5.35629
-5.33723
-5.31496
-5.28938
-5.26043
-5.22804
-5.19216
-5.15272
-5.10967
-5.06299
-5.01263
-4.95856
-4.90077
-4.83927
-4.77413
-4.70536
-4.63284
-4.55656
-4.47625
-4.39209
-4.30414
-4.21248
-4.11715
-4.01818
-3.91563
-3.80954
-3.69997
-3.58696
-3.47059
-3.35093
-3.22804
-3.10202
-2.97293
-2.84088
-2.70595
-2.56825
-2.42787
-2.28493
-2.13953
-1.9918
-1.84184
-1.68978
-1.53575
-1.37988
-1.22229
-1.06313
-0.902534
-0.74064
-0.577594
-0.413541
-0.24863
-0.0830105
0.0831652
0.249744
0.416572
0.583493
0.750352
0.916993
1.08326
1.24899
1.41404
1.57826
1.74148
1.90356
2.06436
2.22372
2.38151
2.5376
2.69185
2.84413
2.99433
3.14232
3.28801
3.43129
3.57206
3.71024
3.84576
3.97855
4.10854
4.23569
4.35997
4.48135
4.59981
4.71537
4.82802
4.93779
5.04466
5.14861
5.24965
5.34785
5.44331
5.5361
5.62633
5.71409
5.79948
5.88263
5.96365
6.04266
6.11979
6.19519
6.26898
6.34131
6.41233
6.48217
6.55099
6.61892
6.6861
6.75267
6.81874
6.88444
6.94987
7.01514
7.08034
7.14558
7.21094
7.27656
7.34261
7.40938
7.47737
7.54746
7.62189
7.70418
7.81049
7.94332
-4.63324
-4.63397
-4.63568
-4.63818
-4.64056
-4.64224
-4.64318
-4.64376
-4.64454
-4.64598
-4.64833
-4.65169
-4.65617
-4.66187
-4.66897
-4.67765
-4.68808
-4.70041
-4.71476
-4.73118
-4.74966
-4.77015
-4.79254
-4.81664
-4.84228
-4.86922
-4.89719
-4.92593
-4.95521
-4.98479
-5.01444
-5.04398
-5.07321
-5.10195
-5.13006
-5.15738
-5.18378
-5.20913
-5.23331
-5.2562
-5.27768
-5.29766
-5.31603
-5.33267
-5.34748
-5.36037
-5.37121
-5.37993
-5.38639
-5.39052
-5.3922
-5.39133
-5.38782
-5.38156
-5.37246
-5.36044
-5.3454
-5.32725
-5.30592
-5.28133
-5.2534
-5.22208
-5.18729
-5.14899
-5.10712
-5.06164
-5.01251
-4.95971
-4.90318
-4.84291
-4.77887
-4.71104
-4.63927
-4.56348
-4.48413
-4.40112
-4.31443
-4.22406
-4.13003
-4.03237
-3.93112
-3.82633
-3.71805
-3.60633
-3.49123
-3.37283
-3.25119
-3.12639
-2.99852
-2.86766
-2.73391
-2.59735
-2.4581
-2.31626
-2.17194
-2.02525
-1.87631
-1.72524
-1.57217
-1.41722
-1.26053
-1.10222
-0.942447
-0.781337
-0.619036
-0.45569
-0.291445
-0.12645
0.0391429
0.205182
0.371515
0.537985
0.70444
0.870722
1.03668
1.20215
1.36698
1.53103
1.69413
1.85615
2.01692
2.17632
2.33419
2.49041
2.64483
2.79734
2.9478
3.09612
3.24216
3.38584
3.52706
3.66573
3.80177
3.93512
4.0657
4.19348
4.31842
4.44048
4.55966
4.67594
4.78934
4.89986
5.00747
5.11217
5.21398
5.31296
5.40919
5.50274
5.59371
5.68218
5.76826
5.85206
5.93369
6.01327
6.09093
6.16681
6.24104
6.31375
6.38509
6.45521
6.52424
6.59233
6.65962
6.72623
6.7923
6.85794
6.92328
6.98842
7.05348
7.11854
7.18374
7.24923
7.3152
7.38197
7.45013
7.52059
7.59564
7.67793
7.77959
7.89908
-4.62376
-4.62752
-4.63093
-4.63388
-4.63571
-4.63641
-4.63643
-4.63627
-4.63643
-4.63728
-4.63909
-4.64205
-4.64635
-4.65216
-4.65962
-4.6689
-4.68011
-4.69331
-4.70852
-4.72573
-4.74485
-4.76577
-4.78834
-4.81237
-4.83768
-4.86405
-4.89127
-4.91913
-4.94742
-4.97594
-5.00452
-5.03297
-5.06114
-5.08887
-5.11602
-5.14246
-5.16805
-5.19267
-5.21622
-5.23856
-5.2596
-5.27921
-5.2973
-5.31375
-5.32846
-5.34133
-5.35224
-5.36109
-5.36778
-5.3722
-5.37425
-5.37382
-5.37082
-5.36514
-5.35669
-5.34538
-5.33112
-5.31381
-5.29337
-5.26973
-5.24281
-5.21254
-5.17886
-5.14171
-5.10104
-5.05679
-5.00893
-4.95742
-4.90223
-4.84333
-4.78066
-4.71414
-4.64395
-4.5699
-4.49213
-4.41066
-4.3255
-4.23667
-4.14419
-4.04809
-3.9484
-3.84517
-3.73845
-3.62828
-3.51473
-3.39787
-3.27776
-3.15447
-3.0281
-2.89872
-2.76643
-2.63132
-2.49348
-2.35303
-2.21008
-2.06472
-1.91709
-1.76729
-1.61546
-1.46171
-1.30618
-1.149
-0.990313
-0.830245
-0.668942
-0.506548
-0.343209
-0.179071
-0.0142847
0.151
0.31663
0.482452
0.648314
0.81406
0.979536
1.14459
1.30906
1.47281
1.63568
1.79751
1.95817
2.11752
2.2754
2.43169
2.58625
2.73895
2.88967
3.0383
3.18472
3.32883
3.47053
3.60974
3.74637
3.88036
4.01163
4.14014
4.26583
4.38869
4.50868
4.62579
4.74002
4.85137
4.95984
5.06547
5.16825
5.26823
5.36545
5.45997
5.55189
5.64128
5.72824
5.81288
5.8953
5.97563
6.05398
6.13049
6.20528
6.27849
6.35027
6.42074
6.49007
6.55838
6.62581
6.6925
6.75859
6.82419
6.88943
6.95443
7.0193
7.08416
7.14916
7.21446
7.28029
7.34702
7.41524
7.48589
7.56114
7.64266
7.74086
7.84243
-4.60615
-4.61283
-4.61954
-4.62456
-4.62754
-4.6291
-4.62992
-4.63059
-4.63158
-4.63329
-4.63602
-4.63998
-4.64538
-4.65236
-4.66104
-4.67153
-4.68386
-4.69804
-4.71405
-4.73183
-4.75126
-4.77224
-4.79461
-4.81822
-4.84291
-4.86848
-4.89478
-4.92162
-4.94883
-4.97626
-5.00373
-5.0311
-5.05822
-5.08496
-5.11118
-5.13676
-5.16156
-5.18548
-5.20839
-5.23019
-5.25076
-5.26999
-5.28777
-5.30399
-5.31855
-5.33134
-5.34224
-5.35115
-5.35796
-5.36257
-5.36487
-5.36476
-5.36213
-5.35688
-5.34891
-5.33813
-5.32444
-5.30776
-5.288
-5.26508
-5.23892
-5.20945
-5.17661
-5.14033
-5.10055
-5.05723
-5.01032
-4.95978
-4.90557
-4.84767
-4.78603
-4.72062
-4.65149
-4.57862
-4.50205
-4.42179
-4.33784
-4.25024
-4.15899
-4.06413
-3.96568
-3.8637
-3.75823
-3.64931
-3.537
-3.42138
-3.3025
-3.18044
-3.05528
-2.92711
-2.796
-2.66206
-2.52539
-2.38608
-2.24424
-2.09998
-1.95342
-1.80468
-1.65386
-1.50111
-1.34655
-1.1903
-1.03251
-0.87331
-0.712839
-0.55124
-0.388657
-0.225237
-0.0611269
0.103523
0.268562
0.433838
0.599198
0.764489
0.929558
1.09425
1.25842
1.4219
1.58456
1.74624
1.9068
2.06608
2.22396
2.3803
2.53496
2.68781
2.83873
2.98761
3.13433
3.27879
3.42088
3.56053
3.69764
3.83214
3.96397
4.09306
4.21939
4.3429
4.46358
4.58139
4.69633
4.80838
4.91755
5.02388
5.1274
5.22812
5.32609
5.42136
5.51401
5.60412
5.69176
5.77706
5.8601
5.941
6.01988
6.09686
6.17208
6.24567
6.31776
6.3885
6.45802
6.52646
6.59397
6.66067
6.72671
6.79222
6.85731
6.92212
6.98676
7.05138
7.11611
7.18114
7.24672
7.3132
7.38117
7.45144
7.52587
7.60514
7.69732
7.78251
-4.58546
-4.59521
-4.60588
-4.61391
-4.61905
-4.62242
-4.62492
-4.62719
-4.62976
-4.63304
-4.63734
-4.6429
-4.64988
-4.65841
-4.66856
-4.68038
-4.69389
-4.70905
-4.72581
-4.7441
-4.76382
-4.78486
-4.80707
-4.83033
-4.8545
-4.87941
-4.90494
-4.93092
-4.95722
-4.98369
-5.0102
-5.03661
-5.06279
-5.08862
-5.11398
-5.13874
-5.1628
-5.18602
-5.20831
-5.22955
-5.24962
-5.26843
-5.28585
-5.30178
-5.3161
-5.32872
-5.33951
-5.34836
-5.35518
-5.35984
-5.36224
-5.36228
-5.35984
-5.35484
-5.34715
-5.3367
-5.32338
-5.3071
-5.28778
-5.26533
-5.23967
-5.21074
-5.17845
-5.14276
-5.1036
-5.06092
-5.01467
-4.96481
-4.91131
-4.85413
-4.79325
-4.72866
-4.66035
-4.58834
-4.51262
-4.43322
-4.35015
-4.26341
-4.17305
-4.07907
-3.98152
-3.88043
-3.77585
-3.66782
-3.55641
-3.44168
-3.32369
-3.20252
-3.07825
-2.95095
-2.82071
-2.68763
-2.5518
-2.41332
-2.2723
-2.12885
-1.98308
-1.83511
-1.68505
-1.53303
-1.37918
-1.22363
-1.06651
-0.907949
-0.748096
-0.587088
-0.425068
-0.262182
-0.0985757
0.0656014
0.2302
0.395068
0.560054
0.725006
0.889771
1.0542
1.21813
1.38142
1.54393
1.70549
1.86596
2.02521
2.18308
2.33945
2.49418
2.64715
2.79822
2.94728
3.09422
3.23893
3.38132
3.52128
3.65874
3.79362
3.92586
4.0554
4.18218
4.30617
4.42734
4.54565
4.66109
4.77363
4.88328
4.99009
5.09409
5.19529
5.29375
5.38951
5.48264
5.57321
5.66131
5.74703
5.83048
5.91175
5.99097
6.06825
6.14373
6.21754
6.28981
6.36068
6.43028
6.49877
6.56626
6.63292
6.69886
6.76422
6.82913
6.89371
6.9581
7.02243
7.08685
7.15154
7.21675
7.2828
7.3502
7.41961
7.49242
7.56845
7.65397
7.72552
-4.56768
-4.58009
-4.59421
-4.60524
-4.61284
-4.61837
-4.62289
-4.6271
-4.63157
-4.63669
-4.6428
-4.6501
-4.65876
-4.66885
-4.68044
-4.69354
-4.70812
-4.72416
-4.74159
-4.76033
-4.78028
-4.80135
-4.82341
-4.84636
-4.87007
-4.89441
-4.91926
-4.94451
-4.97001
-4.99566
-5.02133
-5.0469
-5.07226
-5.0973
-5.12189
-5.14593
-5.1693
-5.1919
-5.21362
-5.23433
-5.25394
-5.27233
-5.2894
-5.30502
-5.31909
-5.33149
-5.34212
-5.35087
-5.35761
-5.36224
-5.36466
-5.36474
-5.36239
-5.3575
-5.34997
-5.33969
-5.32658
-5.31054
-5.29148
-5.26931
-5.24397
-5.21537
-5.18344
-5.14812
-5.10936
-5.06709
-5.02128
-4.97188
-4.91886
-4.86218
-4.80183
-4.73779
-4.67005
-4.59862
-4.5235
-4.4447
-4.36222
-4.2761
-4.18634
-4.09298
-3.99605
-3.89558
-3.79163
-3.68424
-3.57347
-3.45937
-3.34202
-3.22148
-3.09784
-2.97116
-2.84156
-2.7091
-2.57388
-2.43602
-2.2956
-2.15275
-2.00756
-1.86016
-1.71066
-1.55919
-1.40587
-1.25084
-1.09422
-0.936147
-0.77676
-0.616199
-0.454606
-0.292126
-0.128904
0.0349118
0.199172
0.363727
0.528425
0.693114
0.857643
1.02186
1.18561
1.34875
1.51112
1.67258
1.83299
1.99219
2.15006
2.30644
2.46122
2.61425
2.76542
2.91461
3.0617
3.20659
3.34917
3.48937
3.62708
3.76223
3.89476
4.0246
4.15171
4.27602
4.39753
4.51618
4.63195
4.74483
4.85482
4.96196
5.06627
5.1678
5.26658
5.36266
5.4561
5.54698
5.63537
5.72136
5.80505
5.88655
5.96597
6.04343
6.11906
6.19298
6.26533
6.33624
6.40585
6.4743
6.54173
6.60828
6.67408
6.73927
6.80397
6.86831
6.93242
6.99644
7.06052
7.12482
7.18956
7.25504
7.32166
7.38987
7.46064
7.53308
7.61237
7.6726
-4.55804
-4.5716
-4.58784
-4.60116
-4.61088
-4.61838
-4.62481
-4.6309
-4.63717
-4.64405
-4.65183
-4.66072
-4.67086
-4.68231
-4.69511
-4.70926
-4.72473
-4.74147
-4.75941
-4.77849
-4.79861
-4.81969
-4.84162
-4.86431
-4.88765
-4.91152
-4.93584
-4.96049
-4.98536
-5.01034
-5.03533
-5.06023
-5.08492
-5.1093
-5.13327
-5.15671
-5.17952
-5.20159
-5.22281
-5.24308
-5.26228
-5.28031
-5.29704
-5.31238
-5.3262
-5.3384
-5.34885
-5.35745
-5.36409
-5.36864
-5.371
-5.37106
-5.3687
-5.36383
-5.35634
-5.34613
-5.3331
-5.31716
-5.29822
-5.27619
-5.251
-5.22257
-5.19082
-5.15571
-5.11716
-5.07513
-5.02957
-4.98043
-4.92769
-4.87132
-4.81129
-4.74759
-4.68021
-4.60915
-4.5344
-4.45597
-4.37389
-4.28815
-4.1988
-4.10584
-4.00932
-3.90927
-3.80574
-3.69877
-3.58843
-3.47477
-3.35786
-3.23776
-3.11456
-2.98834
-2.85917
-2.72716
-2.5924
-2.45497
-2.315
-2.17258
-2.02782
-1.88085
-1.73177
-1.58071
-1.4278
-1.27316
-1.11692
-0.959218
-0.800191
-0.639976
-0.478716
-0.316553
-0.153633
0.0098969
0.173888
0.338192
0.502657
0.667133
0.831466
0.995506
1.1591
1.32211
1.48437
1.64574
1.80607
1.96522
2.12306
2.27943
2.43422
2.58728
2.7385
2.88776
3.03495
3.17995
3.32266
3.463
3.60088
3.73621
3.86893
3.99897
4.12628
4.25081
4.37253
4.4914
4.60739
4.72049
4.83071
4.93806
5.04258
5.14432
5.2433
5.33958
5.43321
5.52427
5.61283
5.69897
5.7828
5.86443
5.94395
6.02149
6.09716
6.17111
6.24346
6.31434
6.3839
6.45227
6.51959
6.58599
6.65162
6.71661
6.78107
6.84515
6.90897
6.97266
7.03635
7.10021
7.16442
7.22921
7.29488
7.36168
7.4302
7.49902
7.57273
7.6235
-4.55684
-4.57058
-4.58767
-4.60235
-4.6136
-4.62266
-4.63066
-4.6383
-4.64609
-4.65442
-4.66357
-4.67374
-4.68504
-4.69755
-4.71127
-4.72621
-4.74233
-4.75958
-4.7779
-4.79721
-4.81745
-4.83852
-4.86035
-4.88283
-4.90588
-4.92941
-4.95332
-4.97752
-5.0019
-5.02639
-5.05087
-5.07525
-5.09943
-5.12331
-5.14679
-5.16976
-5.19213
-5.21379
-5.23463
-5.25454
-5.27341
-5.29113
-5.30759
-5.32268
-5.33628
-5.34828
-5.35856
-5.36701
-5.3735
-5.37794
-5.3802
-5.38017
-5.37775
-5.37282
-5.36529
-5.35504
-5.34199
-5.32604
-5.3071
-5.28509
-5.25991
-5.23151
-5.19981
-5.16475
-5.12627
-5.08432
-5.03885
-4.98982
-4.9372
-4.88097
-4.82109
-4.75756
-4.69036
-4.61948
-4.54493
-4.46672
-4.38484
-4.29933
-4.2102
-4.11747
-4.02119
-3.9214
-3.81812
-3.71142
-3.60135
-3.48797
-3.37134
-3.25154
-3.12863
-3.00271
-2.87386
-2.74215
-2.6077
-2.4706
-2.33094
-2.18883
-2.04439
-1.89773
-1.74897
-1.59822
-1.44561
-1.29127
-1.13532
-0.977909
-0.819161
-0.659217
-0.498218
-0.336306
-0.173628
-0.0103288
0.153444
0.317542
0.481814
0.64611
0.810277
0.974165
1.13762
1.30051
1.46266
1.62393
1.78419
1.94328
2.10106
2.25741
2.41217
2.56524
2.71647
2.86576
3.01298
3.15804
3.30082
3.44124
3.5792
3.71463
3.84745
3.97761
4.10504
4.22969
4.35153
4.47053
4.58664
4.69987
4.81021
4.91769
5.02233
5.12417
5.22326
5.31963
5.41335
5.50449
5.59312
5.67932
5.7632
5.84485
5.92439
6.00192
6.07758
6.15148
6.22377
6.29457
6.36402
6.43225
6.49942
6.56565
6.63107
6.69583
6.76004
6.82384
6.88734
6.95067
7.01395
7.07732
7.14093
7.20494
7.26953
7.33478
7.40098
7.46629
7.53502
7.57788
-4.56356
-4.57663
-4.59345
-4.60854
-4.6206
-4.63067
-4.63976
-4.64853
-4.65744
-4.66684
-4.677
-4.6881
-4.70024
-4.71349
-4.72785
-4.74333
-4.75988
-4.77747
-4.79603
-4.81549
-4.83579
-4.85684
-4.87858
-4.90091
-4.92376
-4.94704
-4.97066
-4.99454
-5.01859
-5.04272
-5.06684
-5.09086
-5.11468
-5.1382
-5.16134
-5.18399
-5.20604
-5.2274
-5.24795
-5.2676
-5.28622
-5.30371
-5.31996
-5.33484
-5.34825
-5.36007
-5.37018
-5.37847
-5.38481
-5.38911
-5.39123
-5.39107
-5.38852
-5.38347
-5.37582
-5.36546
-5.3523
-5.33625
-5.31721
-5.29509
-5.26983
-5.24135
-5.20957
-5.17444
-5.1359
-5.0939
-5.0484
-4.99934
-4.94671
-4.89048
-4.83062
-4.76712
-4.69996
-4.62913
-4.55464
-4.47648
-4.39468
-4.30925
-4.22021
-4.12759
-4.03142
-3.93175
-3.8286
-3.72204
-3.61212
-3.4989
-3.38245
-3.26282
-3.14011
-3.01438
-2.88573
-2.75424
-2.62
-2.48312
-2.34368
-2.20181
-2.0576
-1.91117
-1.76264
-1.61213
-1.45975
-1.30564
-1.14993
-0.992742
-0.834216
-0.674489
-0.513702
-0.351997
-0.189519
-0.0264116
0.137177
0.301098
0.465204
0.629341
0.79336
0.95711
1.12044
1.2832
1.44524
1.60642
1.76659
1.9256
2.08332
2.23961
2.39433
2.54736
2.69858
2.84785
2.99507
3.14013
3.28292
3.42336
3.56135
3.69681
3.82967
3.95987
4.08734
4.21204
4.33392
4.45296
4.56912
4.68239
4.79278
4.90029
5.00497
5.10684
5.20594
5.30233
5.39605
5.48719
5.5758
5.66199
5.74583
5.82744
5.90692
5.98438
6.05995
6.13375
6.20592
6.27658
6.34588
6.41395
6.48092
6.54694
6.61214
6.67665
6.74058
6.80407
6.86724
6.93018
6.99302
7.05586
7.11881
7.18196
7.2454
7.30902
7.37288
7.43485
7.49916
7.53542
-4.57654
-4.58835
-4.60403
-4.61869
-4.63087
-4.64137
-4.65105
-4.6605
-4.67012
-4.68022
-4.69104
-4.70274
-4.71542
-4.72913
-4.74389
-4.75968
-4.77649
-4.79427
-4.81295
-4.83249
-4.85281
-4.87384
-4.89551
-4.91774
-4.94045
-4.96357
-4.98701
-5.01069
-5.03453
-5.05845
-5.08235
-5.10615
-5.12975
-5.15306
-5.17599
-5.19843
-5.22029
-5.24145
-5.26182
-5.28129
-5.29974
-5.31706
-5.33314
-5.34786
-5.3611
-5.37276
-5.38271
-5.39083
-5.39701
-5.40113
-5.40308
-5.40275
-5.40002
-5.39479
-5.38695
-5.37641
-5.36306
-5.34681
-5.32758
-5.30528
-5.27983
-5.25117
-5.21922
-5.18392
-5.14521
-5.10306
-5.05741
-5.00823
-4.95549
-4.89915
-4.8392
-4.77562
-4.70838
-4.6375
-4.56295
-4.48476
-4.40293
-4.31748
-4.22843
-4.13581
-4.03966
-3.94001
-3.83691
-3.7304
-3.62055
-3.5074
-3.39103
-3.27151
-3.14891
-3.02331
-2.89479
-2.76344
-2.62936
-2.49263
-2.35336
-2.21166
-2.06763
-1.92138
-1.77303
-1.6227
-1.47052
-1.3166
-1.16107
-1.00408
-0.845738
-0.686197
-0.525593
-0.364068
-0.201765
-0.0388292
0.124592
0.288351
0.452298
0.616283
0.780157
0.94377
1.10697
1.26961
1.43153
1.5926
1.75267
1.91159
2.06922
2.22543
2.38008
2.53305
2.6842
2.83342
2.98059
3.12561
3.26836
3.40877
3.54673
3.68217
3.815
3.94518
4.07263
4.1973
4.31916
4.43817
4.55431
4.66755
4.77791
4.8854
4.99004
5.09186
5.19091
5.28724
5.3809
5.47197
5.5605
5.6466
5.73034
5.81184
5.8912
5.96854
6.04397
6.11762
6.18962
6.26011
6.32922
6.39708
6.46384
6.52962
6.59457
6.65881
6.72245
6.78562
6.84842
6.91096
6.97333
7.0356
7.09784
7.16008
7.2223
7.28425
7.34582
7.40465
7.46502
7.49577
-4.59362
-4.6038
-4.61775
-4.6313
-4.64301
-4.65343
-4.66326
-4.67298
-4.68294
-4.6934
-4.70458
-4.7166
-4.72957
-4.74352
-4.75847
-4.77443
-4.79136
-4.80921
-4.82795
-4.84751
-4.86783
-4.88884
-4.91047
-4.93264
-4.95529
-4.97833
-5.00168
-5.02528
-5.04903
-5.07285
-5.09666
-5.12036
-5.14386
-5.16708
-5.18991
-5.21226
-5.23402
-5.25508
-5.27535
-5.2947
-5.31304
-5.33024
-5.34619
-5.36077
-5.37387
-5.38537
-5.39514
-5.40308
-5.40907
-5.41299
-5.41473
-5.41417
-5.41121
-5.40573
-5.39764
-5.38684
-5.37323
-5.35672
-5.33722
-5.31465
-5.28894
-5.26001
-5.2278
-5.19225
-5.1533
-5.11091
-5.06504
-5.01566
-4.96272
-4.9062
-4.84608
-4.78233
-4.71495
-4.64392
-4.56925
-4.49094
-4.409
-4.32346
-4.23434
-4.14166
-4.04546
-3.94578
-3.84266
-3.73615
-3.6263
-3.51319
-3.39686
-3.27739
-3.15486
-3.02934
-2.90091
-2.76967
-2.63569
-2.49909
-2.35996
-2.21839
-2.07451
-1.92842
-1.78023
-1.63006
-1.47805
-1.3243
-1.16894
-1.01212
-0.853957
-0.694593
-0.534165
-0.372814
-0.210683
-0.0479158
0.11534
0.278935
0.442722
0.606552
0.770275
0.933741
1.0968
1.2593
1.42109
1.58203
1.74197
1.90077
2.05829
2.21439
2.36894
2.5218
2.67285
2.82198
2.96906
3.11399
3.25667
3.39699
3.53487
3.67023
3.80298
3.93308
4.06045
4.18504
4.30682
4.42574
4.54179
4.65495
4.76521
4.87261
4.97715
5.07887
5.17781
5.27402
5.36756
5.45849
5.54689
5.63284
5.71643
5.79777
5.87697
5.95413
6.02937
6.10283
6.17463
6.24491
6.3138
6.38143
6.44795
6.51348
6.57816
6.64211
6.70545
6.76828
6.83071
6.89282
6.95469
7.01636
7.07785
7.13914
7.20011
7.2604
7.31973
7.37565
7.43249
7.45864
-4.61259
-4.62096
-4.6328
-4.64478
-4.65556
-4.66548
-4.67507
-4.68472
-4.69472
-4.70528
-4.71656
-4.7287
-4.74177
-4.7558
-4.77082
-4.78682
-4.80378
-4.82165
-4.8404
-4.85996
-4.88027
-4.90128
-4.9229
-4.94507
-4.96771
-4.99075
-5.01411
-5.03771
-5.06147
-5.0853
-5.10911
-5.13282
-5.15633
-5.17955
-5.20237
-5.2247
-5.24644
-5.26747
-5.28768
-5.30697
-5.32522
-5.34232
-5.35815
-5.3726
-5.38554
-5.39686
-5.40645
-5.41417
-5.41993
-5.42359
-5.42506
-5.42422
-5.42097
-5.41519
-5.40678
-5.39566
-5.38172
-5.36487
-5.34504
-5.32214
-5.29609
-5.26683
-5.2343
-5.19843
-5.15919
-5.11651
-5.07037
-5.02072
-4.96753
-4.91078
-4.85043
-4.78647
-4.71888
-4.64766
-4.57281
-4.49434
-4.41226
-4.32659
-4.23736
-4.14458
-4.0483
-3.94856
-3.84539
-3.73886
-3.62901
-3.51589
-3.39959
-3.28016
-3.15768
-3.03223
-2.90388
-2.77273
-2.63886
-2.50237
-2.36336
-2.22194
-2.0782
-1.93226
-1.78423
-1.63423
-1.48238
-1.3288
-1.17363
-1.01698
-0.858999
-0.699818
-0.539572
-0.378404
-0.216454
-0.0538681
0.109208
0.272625
0.436236
0.599892
0.763443
0.926739
1.08963
1.25197
1.4136
1.57438
1.73417
1.89282
2.05019
2.20614
2.36054
2.51326
2.66418
2.81317
2.96012
3.10492
3.24746
3.38765
3.5254
3.66062
3.79325
3.92321
4.05044
4.1749
4.29653
4.41532
4.53122
4.64424
4.75436
4.86161
4.96599
5.06756
5.16633
5.26237
5.35574
5.44649
5.5347
5.62046
5.70386
5.785
5.86399
5.94093
6.01596
6.0892
6.16077
6.23081
6.29946
6.36684
6.4331
6.49836
6.56276
6.62641
6.68942
6.75191
6.81395
6.87562
6.93697
6.99802
7.05874
7.11904
7.17874
7.23738
7.29458
7.34779
7.40145
7.42375
-4.63141
-4.63791
-4.64746
-4.65755
-4.66708
-4.67619
-4.68526
-4.69459
-4.7044
-4.71485
-4.72607
-4.73818
-4.75122
-4.76523
-4.78024
-4.79622
-4.81316
-4.83103
-4.84977
-4.86934
-4.88967
-4.91069
-4.93235
-4.95457
-4.97727
-5.00038
-5.02381
-5.04749
-5.07133
-5.09525
-5.11914
-5.14293
-5.1665
-5.18978
-5.21264
-5.235
-5.25674
-5.27775
-5.29793
-5.31716
-5.33532
-5.35231
-5.368
-5.38227
-5.39502
-5.40612
-5.41545
-5.42291
-5.42837
-5.43173
-5.43287
-5.43169
-5.42807
-5.42192
-5.41314
-5.40163
-5.3873
-5.37006
-5.34984
-5.32655
-5.30013
-5.2705
-5.23761
-5.20139
-5.16181
-5.11882
-5.07238
-5.02245
-4.96899
-4.91197
-4.85137
-4.78717
-4.71935
-4.64793
-4.57289
-4.49424
-4.41201
-4.3262
-4.23685
-4.14398
-4.04762
-3.94782
-3.84461
-3.73806
-3.6282
-3.51511
-3.39884
-3.27946
-3.15705
-3.03167
-2.90342
-2.77238
-2.63863
-2.50228
-2.36342
-2.22214
-2.07857
-1.9328
-1.78495
-1.63513
-1.48347
-1.33009
-1.17511
-1.01867
-0.860891
-0.701915
-0.541878
-0.380918
-0.219177
-0.0568006
0.106066
0.269276
0.43268
0.59613
0.759477
0.922569
1.08526
1.2474
1.40883
1.56942
1.72901
1.88747
2.04465
2.20041
2.35463
2.50717
2.6579
2.8067
2.95347
3.09808
3.24044
3.38045
3.51802
3.65306
3.7855
3.91528
4.04232
4.16659
4.28804
4.40663
4.52234
4.63516
4.74509
4.85213
4.95632
5.05768
5.15625
5.25207
5.34522
5.43575
5.52374
5.60927
5.69243
5.77334
5.85209
5.92879
6.00357
6.07656
6.14788
6.21767
6.28605
6.35317
6.41916
6.48414
6.54825
6.61159
6.67428
6.73641
6.79805
6.85927
6.92008
6.98049
7.04042
7.09972
7.15816
7.21518
7.27033
7.32103
7.37179
7.39091
-4.6483
-4.65301
-4.66022
-4.66829
-4.67635
-4.68444
-4.6928
-4.70163
-4.71109
-4.72129
-4.73235
-4.74433
-4.75728
-4.77123
-4.78618
-4.80213
-4.81906
-4.83691
-4.85567
-4.87526
-4.89562
-4.91671
-4.93844
-4.96074
-4.98355
-5.00676
-5.03031
-5.05411
-5.07807
-5.1021
-5.1261
-5.14998
-5.17364
-5.19697
-5.21987
-5.24224
-5.26396
-5.28493
-5.30503
-5.32415
-5.34217
-5.35898
-5.37446
-5.3885
-5.40098
-5.41178
-5.4208
-5.42791
-5.43301
-5.43599
-5.43673
-5.43513
-5.4311
-5.42452
-5.41531
-5.40337
-5.38861
-5.37095
-5.35031
-5.32662
-5.29979
-5.26978
-5.23652
-5.19996
-5.16005
-5.11675
-5.07002
-5.01981
-4.96608
-4.9088
-4.84795
-4.78352
-4.7155
-4.64388
-4.56867
-4.48988
-4.40752
-4.3216
-4.23216
-4.13922
-4.04282
-3.943
-3.83979
-3.73325
-3.62343
-3.51039
-3.3942
-3.27491
-3.1526
-3.02735
-2.89923
-2.76834
-2.63475
-2.49857
-2.35989
-2.21881
-2.07544
-1.92988
-1.78225
-1.63266
-1.48123
-1.32809
-1.17335
-1.01715
-0.859613
-0.700885
-0.541097
-0.380387
-0.218898
-0.0567734
0.105842
0.2688
0.431953
0.595154
0.758251
0.921096
1.08354
1.24543
1.40662
1.56696
1.72632
1.88453
2.04147
2.197
2.35098
2.50328
2.65378
2.80235
2.94888
3.09326
3.23539
3.37517
3.5125
3.64731
3.77951
3.90905
4.03586
4.15988
4.28109
4.39944
4.51491
4.62749
4.73717
4.84398
4.94792
5.04903
5.14735
5.24292
5.33581
5.42609
5.51382
5.59909
5.68199
5.76264
5.84112
5.91756
5.99208
6.0648
6.13585
6.20537
6.27349
6.34034
6.40605
6.47074
6.53455
6.59759
6.65994
6.72171
6.78295
6.8437
6.90398
6.96373
7.02286
7.08117
7.13834
7.19379
7.24699
7.29536
7.34345
7.35993
-4.66174
-4.66492
-4.66987
-4.67588
-4.68237
-4.68932
-4.69685
-4.70507
-4.71409
-4.72398
-4.73481
-4.74663
-4.75947
-4.77334
-4.78825
-4.80417
-4.82108
-4.83894
-4.85772
-4.87735
-4.89777
-4.91893
-4.94074
-4.96314
-4.98604
-5.00936
-5.03301
-5.05691
-5.08097
-5.10508
-5.12914
-5.15306
-5.17674
-5.20006
-5.22293
-5.24523
-5.26684
-5.28767
-5.3076
-5.32651
-5.34428
-5.36082
-5.376
-5.3897
-5.40182
-5.41225
-5.42086
-5.42755
-5.43222
-5.43475
-5.43504
-5.43299
-5.42849
-5.42146
-5.41179
-5.3994
-5.38421
-5.36612
-5.34507
-5.32098
-5.29378
-5.26342
-5.22982
-5.19295
-5.15276
-5.1092
-5.06221
-5.01175
-4.95778
-4.90028
-4.83923
-4.77462
-4.70644
-4.63468
-4.55936
-4.48047
-4.39804
-4.31208
-4.22262
-4.12968
-4.0333
-3.93352
-3.83037
-3.72392
-3.6142
-3.50129
-3.38523
-3.26609
-3.14396
-3.01889
-2.89098
-2.7603
-2.62694
-2.49099
-2.35256
-2.21174
-2.06863
-1.92335
-1.776
-1.62669
-1.47555
-1.3227
-1.16826
-1.01235
-0.855125
-0.696701
-0.537219
-0.376816
-0.215635
-0.0538184
0.108489
0.27114
0.433986
0.59688
0.759672
0.922213
1.08435
1.24594
1.40683
1.56688
1.72593
1.88385
2.0405
2.19573
2.34942
2.50143
2.65163
2.79992
2.94616
3.09025
3.23209
3.37158
3.50863
3.64314
3.77506
3.90431
4.03083
4.15457
4.27549
4.39355
4.50874
4.62103
4.73043
4.83695
4.94061
5.04144
5.13947
5.23476
5.32737
5.41735
5.5048
5.58979
5.67241
5.75277
5.83097
5.90713
5.98137
6.05382
6.1246
6.19384
6.26168
6.32825
6.39369
6.4581
6.52162
6.58434
6.64637
6.70777
6.76861
6.8289
6.88863
6.94772
7.00605
7.06336
7.1193
7.17322
7.22457
7.27077
7.31638
7.3307
-4.67137
-4.67301
-4.67584
-4.67983
-4.68471
-4.69044
-4.69705
-4.70459
-4.7131
-4.72262
-4.73319
-4.74482
-4.75752
-4.77129
-4.78612
-4.80199
-4.81886
-4.8367
-4.85545
-4.87507
-4.89549
-4.91665
-4.93847
-4.96087
-4.98378
-5.00711
-5.03076
-5.05464
-5.07867
-5.10273
-5.12672
-5.15054
-5.17409
-5.19726
-5.21994
-5.24201
-5.26338
-5.28392
-5.30353
-5.3221
-5.3395
-5.35564
-5.3704
-5.38367
-5.39534
-5.40529
-5.41343
-5.41964
-5.42382
-5.42587
-5.42567
-5.42315
-5.41818
-5.41069
-5.40059
-5.38777
-5.37217
-5.3537
-5.33229
-5.30786
-5.28035
-5.2497
-5.21585
-5.17876
-5.13837
-5.09462
-5.04744
-4.99679
-4.94267
-4.88503
-4.82387
-4.75916
-4.69092
-4.61912
-4.54378
-4.4649
-4.3825
-4.2966
-4.20721
-4.11437
-4.01812
-3.91848
-3.8155
-3.70923
-3.59972
-3.48702
-3.3712
-3.25232
-3.13045
-3.00567
-2.87805
-2.74768
-2.61464
-2.47902
-2.34093
-2.20045
-2.0577
-1.91277
-1.76579
-1.61685
-1.46609
-1.31361
-1.15955
-1.00403
-0.847186
-0.689147
-0.53005
-0.370034
-0.209239
-0.0478079
0.114114
0.276381
0.438844
0.601357
0.763769
0.925931
1.08769
1.24891
1.40942
1.5691
1.72778
1.88534
2.04162
2.19649
2.34981
2.50146
2.65131
2.79924
2.94513
3.08887
3.23036