/*--------------------------------*- C++ -*----------------------------------*\
| =========                 |                                                 |
| \\      /  F ield         | OpenFOAM: The Open Source CFD Toolbox           |
|  \\    /   O peration     | Version:  2412                                  |
|   \\  /    A nd           | Website:  www.openfoam.com                      |
|    \\/     M anipulation  |                                                 |
\*---------------------------------------------------------------------------*/
FoamFile
{
    version     2.0;
    format      ascii;
    arch        "LSB;label=32;scalar=64";
    class       surfaceScalarField;
    location    "0.11";
    object      phi;
}
// * * * * * * * * * * * * * * * * * * * * * * * * * * * * * * * * * * * * * //

dimensions      [0 3 -1 0 0 0 0];

oriented        oriented;

internalField   nonuniform List<scalar> 
24170
(
1.36706e-07
-5.71619e-08
1.9562e-07
-5.89139e-08
2.57915e-07
-6.22952e-08
3.11667e-07
-5.37518e-08
3.61802e-07
-5.01346e-08
4.07907e-07
-4.61052e-08
4.49548e-07
-4.16411e-08
4.87067e-07
-3.75188e-08
5.20849e-07
-3.37824e-08
5.51233e-07
-3.03834e-08
5.78542e-07
-2.73091e-08
6.03069e-07
-2.4527e-08
6.25057e-07
-2.19885e-08
6.44686e-07
-1.96287e-08
6.62098e-07
-1.7412e-08
6.77186e-07
-1.50876e-08
6.90038e-07
-1.28526e-08
-8.58182e-09
6.9862e-07
3.26112e-07
-1.24821e-07
3.94131e-07
-1.26933e-07
4.55883e-07
-1.24047e-07
5.14178e-07
-1.12047e-07
5.67668e-07
-1.03625e-07
6.16619e-07
-9.50564e-08
6.61255e-07
-8.62769e-08
7.01799e-07
-7.8063e-08
7.38549e-07
-7.05321e-08
7.71824e-07
-6.36588e-08
8.01931e-07
-5.74161e-08
8.29144e-07
-5.17398e-08
8.53696e-07
-4.65402e-08
8.75769e-07
-4.17013e-08
8.95481e-07
-3.71239e-08
9.12842e-07
-3.24492e-08
9.27945e-07
-2.79552e-08
-2.04888e-08
9.39852e-07
5.17244e-07
-1.7161e-07
5.79149e-07
-1.88838e-07
6.38206e-07
-1.83104e-07
6.95359e-07
-1.69201e-07
7.48167e-07
-1.56433e-07
7.96767e-07
-1.43656e-07
8.41404e-07
-1.30915e-07
8.82215e-07
-1.18874e-07
9.19417e-07
-1.07733e-07
9.53271e-07
-9.75134e-08
9.8404e-07
-8.81854e-08
1.01197e-06
-7.96646e-08
1.03726e-06
-7.18304e-08
1.06008e-06
-6.45285e-08
1.08056e-06
-5.75967e-08
1.09878e-06
-5.06728e-08
1.11455e-06
-4.3728e-08
-3.39468e-08
1.12801e-06
7.43479e-07
-1.95419e-07
7.91918e-07
-2.37276e-07
8.43825e-07
-2.35011e-07
8.96353e-07
-2.21729e-07
9.4601e-07
-2.0609e-07
9.92283e-07
-1.89929e-07
1.03519e-06
-1.7382e-07
1.07473e-06
-1.58413e-07
1.11101e-06
-1.44014e-07
1.14421e-06
-1.30716e-07
1.17453e-06
-1.18505e-07
1.20216e-06
-1.07295e-07
1.22728e-06
-9.69461e-08
1.25003e-06
-8.72801e-08
1.27052e-06
-7.80899e-08
1.28886e-06
-6.90143e-08
1.30493e-06
-5.97994e-08
-4.83418e-08
1.31933e-06
1.01492e-06
-1.99872e-07
1.04731e-06
-2.69658e-07
1.08853e-06
-2.76233e-07
1.13339e-06
-2.66587e-07
1.17751e-06
-2.50212e-07
1.2195e-06
-2.31919e-07
1.25898e-06
-2.13305e-07
1.29577e-06
-1.95198e-07
1.32982e-06
-1.78063e-07
1.3612e-06
-1.62098e-07
1.39002e-06
-1.47331e-07
1.41642e-06
-1.33694e-07
1.44053e-06
-1.21048e-07
1.46245e-06
-1.09205e-07
1.4823e-06
-9.79358e-08
1.50018e-06
-8.68952e-08
1.51612e-06
-7.57414e-08
-6.30007e-08
1.53078e-06
1.33808e-06
-1.90512e-07
1.35426e-06
-2.85841e-07
1.38244e-06
-3.04413e-07
1.41695e-06
-3.01091e-07
1.45315e-06
-2.86412e-07
1.48881e-06
-2.67584e-07
1.52309e-06
-2.47585e-07
1.55554e-06
-2.27651e-07
1.58596e-06
-2.08476e-07
1.61426e-06
-1.90403e-07
1.64047e-06
-1.73538e-07
1.66463e-06
-1.57853e-07
1.68681e-06
-1.4323e-07
1.7071e-06
-1.29492e-07
1.72557e-06
-1.16412e-07
1.74236e-06
-1.0368e-07
1.75757e-06
-9.09577e-08
-7.72548e-08
1.77183e-06
1.71767e-06
-1.72901e-07
1.7193e-06
-2.87469e-07
1.73352e-06
-3.18639e-07
1.7557e-06
-3.23271e-07
1.78181e-06
-3.1252e-07
1.80914e-06
-2.94913e-07
1.83639e-06
-2.74839e-07
1.86287e-06
-2.54125e-07
1.88816e-06
-2.33763e-07
1.91204e-06
-2.14283e-07
1.9344e-06
-1.95906e-07
1.95522e-06
-1.78668e-07
1.97448e-06
-1.62496e-07
1.99223e-06
-1.47242e-07
2.00853e-06
-1.32706e-07
2.02348e-06
-1.18631e-07
2.03725e-06
-1.04733e-07
-9.03771e-08
2.05038e-06
2.15733e-06
-1.51545e-07
2.14717e-06
-2.77303e-07
2.14804e-06
-3.19508e-07
2.15703e-06
-3.32262e-07
2.17145e-06
-3.26946e-07
2.18871e-06
-3.12168e-07
2.20723e-06
-2.93364e-07
2.22612e-06
-2.7301e-07
2.24478e-06
-2.52425e-07
2.26285e-06
-2.32354e-07
2.28011e-06
-2.1316e-07
2.29641e-06
-1.9497e-07
2.31169e-06
-1.77776e-07
2.32593e-06
-1.61479e-07
2.33915e-06
-1.45926e-07
2.35144e-06
-1.30923e-07
2.36297e-06
-1.16265e-07
-1.01572e-07
2.37417e-06
2.66011e-06
-1.29466e-07
2.64126e-06
-2.58456e-07
2.63056e-06
-3.08804e-07
2.62678e-06
-3.2848e-07
2.62886e-06
-3.29026e-07
2.63488e-06
-3.18197e-07
2.64335e-06
-3.01827e-07
2.65326e-06
-2.82922e-07
2.66393e-06
-2.63098e-07
2.67488e-06
-2.43306e-07
2.68578e-06
-2.24061e-07
2.69641e-06
-2.05598e-07
2.70662e-06
-1.87988e-07
2.71634e-06
-1.71197e-07
2.72555e-06
-1.55133e-07
2.7343e-06
-1.39671e-07
2.74272e-06
-1.24691e-07
-1.09997e-07
2.75115e-06
3.22873e-06
-1.08341e-07
3.204e-06
-2.33718e-07
3.18406e-06
-2.88872e-07
3.16902e-06
-3.13437e-07
3.1592e-06
-3.19205e-07
3.15372e-06
-3.1272e-07
3.15143e-06
-2.99538e-07
3.15145e-06
-2.8294e-07
3.1531e-06
-2.64748e-07
3.15586e-06
-2.46065e-07
3.15934e-06
-2.27536e-07
3.16324e-06
-2.09504e-07
3.16738e-06
-1.92123e-07
3.17161e-06
-1.75433e-07
3.17589e-06
-1.59407e-07
3.18021e-06
-1.43991e-07
3.18466e-06
-1.29147e-07
-1.148e-07
3.18947e-06
3.8657e-06
-8.90153e-08
3.83717e-06
-2.05187e-07
3.81024e-06
-2.61941e-07
3.78604e-06
-2.89238e-07
3.76575e-06
-2.9891e-07
3.74947e-06
-2.96438e-07
3.73659e-06
-2.86659e-07
3.72649e-06
-2.72843e-07
3.71864e-06
-2.56897e-07
3.71256e-06
-2.3999e-07
3.70788e-06
-2.2285e-07
3.70428e-06
-2.05903e-07
3.70153e-06
-1.89376e-07
3.69948e-06
-1.73379e-07
3.69801e-06
-1.57947e-07
3.69711e-06
-1.43086e-07
3.6968e-06
-1.28835e-07
-1.15188e-07
3.69719e-06
3.81123e-06
-7.33414e-08
3.78551e-06
-1.7947e-07
3.75882e-06
-2.35249e-07
3.73298e-06
-2.63395e-07
3.70929e-06
-2.75222e-07
3.68835e-06
-2.75493e-07
3.67005e-06
-2.6836e-07
3.65413e-06
-2.56929e-07
3.64032e-06
-2.43087e-07
3.62833e-06
-2.27997e-07
3.61789e-06
-2.12407e-07
3.60876e-06
-1.96779e-07
3.60077e-06
-1.81388e-07
3.59378e-06
-1.66385e-07
3.58768e-06
-1.5185e-07
3.58243e-06
-1.37835e-07
3.57797e-06
-1.24375e-07
-1.11711e-07
3.5745e-06
5.03713e-06
-5.77085e-08
5.00706e-06
-1.49408e-07
4.9736e-06
-2.01783e-07
4.9395e-06
-2.29302e-07
4.9065e-06
-2.42216e-07
4.87572e-06
-2.44712e-07
4.84746e-06
-2.40107e-07
4.82171e-06
-2.31178e-07
4.79835e-06
-2.19725e-07
4.77721e-06
-2.06856e-07
4.75809e-06
-1.93287e-07
4.7408e-06
-1.79488e-07
4.72517e-06
-1.65755e-07
4.71105e-06
-1.5227e-07
4.69834e-06
-1.39144e-07
4.68697e-06
-1.26462e-07
4.67688e-06
-1.14286e-07
-1.02956e-07
4.66813e-06
6.66244e-06
-4.26726e-08
6.62912e-06
-1.16093e-07
6.58916e-06
-1.61821e-07
6.54668e-06
-1.86826e-07
6.50383e-06
-1.99361e-07
6.46226e-06
-2.03141e-07
6.42277e-06
-2.00616e-07
6.38563e-06
-1.94037e-07
6.35092e-06
-1.85024e-07
6.31866e-06
-1.7459e-07
6.28875e-06
-1.63383e-07
6.2611e-06
-1.51838e-07
6.2356e-06
-1.40246e-07
6.21212e-06
-1.28797e-07
6.19059e-06
-1.17614e-07
6.17093e-06
-1.06797e-07
6.15307e-06
-9.6426e-08
-8.68647e-08
6.13698e-06
8.79086e-06
-2.88691e-08
8.75645e-06
-8.16873e-08
8.71174e-06
-1.17109e-07
8.66206e-06
-1.37142e-07
8.61011e-06
-1.4741e-07
8.55801e-06
-1.51044e-07
8.50714e-06
-1.49742e-07
8.45817e-06
-1.45068e-07
8.41145e-06
-1.38307e-07
8.36717e-06
-1.30308e-07
8.3254e-06
-1.21612e-07
8.28614e-06
-1.12586e-07
8.24938e-06
-1.03484e-07
8.21506e-06
-9.44791e-08
8.18314e-06
-8.56913e-08
8.15356e-06
-7.72133e-08
8.12624e-06
-6.91133e-08
-6.17691e-08
8.10115e-06
1.15181e-05
-1.65942e-08
1.14847e-05
-4.83824e-08
1.14383e-05
-7.06995e-08
1.13845e-05
-8.33077e-08
1.13264e-05
-8.9317e-08
1.12664e-05
-9.10411e-08
1.12063e-05
-8.96238e-08
1.11472e-05
-8.59787e-08
1.10898e-05
-8.09364e-08
1.10346e-05
-7.50902e-08
1.09818e-05
-6.88151e-08
1.09316e-05
-6.23614e-08
1.0884e-05
-5.59084e-08
1.08391e-05
-4.95827e-08
1.07969e-05
-4.34793e-08
1.07574e-05
-3.76748e-08
1.07205e-05
-3.21967e-08
-2.74289e-08
1.06861e-05
1.48842e-05
-5.38649e-09
1.48525e-05
-1.66632e-08
1.48063e-05
-2.44678e-08
1.4751e-05
-2.80756e-08
1.46904e-05
-2.86488e-08
1.46267e-05
-2.73561e-08
1.45619e-05
-2.47857e-08
1.44972e-05
-2.13342e-08
1.44337e-05
-1.73814e-08
1.43718e-05
-1.32208e-08
1.4312e-05
-9.03683e-09
1.42546e-05
-4.94744e-09
1.41997e-05
-1.04623e-09
1.41475e-05
2.63205e-09
1.4098e-05
6.02136e-09
1.40513e-05
9.08047e-09
1.40072e-05
1.18388e-08
1.39457e-08
1.39658e-05
1.8769e-05
6.28915e-09
1.87365e-05
1.58709e-08
1.86883e-05
2.37235e-08
1.86301e-05
3.01158e-08
1.85661e-05
3.53895e-08
1.84989e-05
3.981e-08
1.84306e-05
4.35447e-08
1.83625e-05
4.67169e-08
1.82957e-05
4.94215e-08
1.82308e-05
5.1725e-08
1.81681e-05
5.36719e-08
1.81078e-05
5.52922e-08
1.80502e-05
5.66058e-08
1.79952e-05
5.7624e-08
1.79429e-05
5.83515e-08
1.78932e-05
5.8776e-08
1.7846e-05
5.89563e-08
5.86323e-08
1.78014e-05
2.26768e-05
1.70182e-08
2.26399e-05
5.28209e-08
2.25835e-05
8.01175e-08
2.25149e-05
9.87059e-08
2.24392e-05
1.11081e-07
2.23597e-05
1.19249e-07
2.2279e-05
1.24269e-07
2.21988e-05
1.26918e-07
2.21203e-05
1.27894e-07
2.20443e-05
1.2772e-07
2.19713e-05
1.26736e-07
2.19014e-05
1.25168e-07
2.18348e-05
1.23177e-07
2.17716e-05
1.20876e-07
2.17116e-05
1.18341e-07
2.16548e-05
1.15619e-07
2.16009e-05
1.12772e-07
1.09659e-07
2.15499e-05
1.5604e-05
3.26616e-08
1.55641e-05
9.26742e-08
1.55091e-05
1.35121e-07
1.54457e-05
1.62126e-07
1.53778e-05
1.78991e-07
1.53081e-05
1.88931e-07
1.52387e-05
1.93664e-07
1.5171e-05
1.94651e-07
1.51057e-05
1.93134e-07
1.50435e-05
1.89979e-07
1.49844e-05
1.85748e-07
1.49288e-05
1.80828e-07
1.48765e-05
1.75493e-07
1.48274e-05
1.69933e-07
1.47815e-05
1.6428e-07
1.47385e-05
1.58625e-07
1.46982e-05
1.53031e-07
1.47437e-07
1.46604e-05
1.23902e-05
5.1251e-08
1.23448e-05
1.38141e-07
1.22864e-05
1.93471e-07
1.22226e-05
2.25997e-07
1.21567e-05
2.44871e-07
1.20914e-05
2.54207e-07
1.20285e-05
2.56539e-07
1.1969e-05
2.54197e-07
1.19132e-05
2.48936e-07
1.18613e-05
2.41879e-07
1.18133e-05
2.33752e-07
1.1769e-05
2.25054e-07
1.17284e-05
2.16127e-07
1.16911e-05
2.07198e-07
1.1657e-05
1.98413e-07
1.16258e-05
1.89871e-07
1.15972e-05
1.81617e-07
1.73639e-07
1.1571e-05
9.55929e-06
7.5556e-08
9.50979e-06
1.87637e-07
9.45373e-06
2.49529e-07
9.39693e-06
2.82797e-07
9.34175e-06
3.00047e-07
9.2902e-06
3.05764e-07
9.24321e-06
3.03529e-07
9.20092e-06
2.96482e-07
9.16319e-06
2.86667e-07
9.12976e-06
2.75312e-07
9.10029e-06
2.63219e-07
9.07443e-06
2.50919e-07
9.0518e-06
2.38753e-07
9.03207e-06
2.26928e-07
9.01492e-06
2.15568e-07
9.00005e-06
2.04742e-07
8.9872e-06
1.94467e-07
1.84746e-07
8.97609e-06
7.18003e-06
1.04973e-07
7.13265e-06
2.35023e-07
7.08702e-06
2.95161e-07
7.04545e-06
3.24358e-07
7.00925e-06
3.36255e-07
6.97933e-06
3.35681e-07
6.95538e-06
3.27482e-07
6.93662e-06
3.15238e-07
6.92233e-06
3.00959e-07
6.91183e-06
2.85813e-07
6.90451e-06
2.70541e-07
6.89983e-06
2.55597e-07
6.89734e-06
2.41241e-07
6.89666e-06
2.27607e-07
6.89747e-06
2.14756e-07
6.89951e-06
2.02703e-07
6.90255e-06
1.91426e-07
1.80921e-07
6.90638e-06
5.24556e-06
1.38128e-07
5.20787e-06
2.72716e-07
5.18044e-06
3.22584e-07
5.16164e-06
3.43162e-07
5.15139e-06
3.46508e-07
5.14863e-06
3.38439e-07
5.15154e-06
3.24575e-07
5.15861e-06
3.08165e-07
5.16875e-06
2.90819e-07
5.18111e-06
2.73459e-07
5.19501e-06
2.56633e-07
5.20997e-06
2.40637e-07
5.22561e-06
2.25606e-07
5.24163e-06
2.11583e-07
5.25783e-06
1.98556e-07
5.27405e-06
1.86486e-07
5.29016e-06
1.75317e-07
1.65034e-07
5.30604e-06
3.71461e-06
1.71649e-07
3.69608e-06
2.91254e-07
3.69443e-06
3.24225e-07
3.70436e-06
3.33232e-07
3.72345e-06
3.27421e-07
3.74844e-06
3.13452e-07
3.77676e-06
2.96255e-07
3.80686e-06
2.7806e-07
3.83776e-06
2.59924e-07
3.86876e-06
2.42455e-07
3.89942e-06
2.25978e-07
3.92943e-06
2.10628e-07
3.9586e-06
1.96431e-07
3.98683e-06
1.83356e-07
4.01405e-06
1.71339e-07
4.04023e-06
1.60305e-07
4.06537e-06
1.50178e-07
1.4094e-07
4.08946e-06
2.5354e-06
1.96847e-07
2.54625e-06
2.80404e-07
2.57487e-06
2.95603e-07
2.6142e-06
2.93904e-07
2.65966e-06
2.81956e-07
2.70728e-06
2.65837e-07
2.75501e-06
2.4852e-07
2.80187e-06
2.31205e-07
2.84725e-06
2.14542e-07
2.89082e-06
1.98884e-07
2.93242e-06
1.84378e-07
2.972e-06
1.71052e-07
3.00956e-06
1.58867e-07
3.04517e-06
1.47748e-07
3.0789e-06
1.37609e-07
3.11084e-06
1.28362e-07
3.14109e-06
1.19924e-07
1.12295e-07
3.16974e-06
1.6547e-06
1.99259e-07
1.70057e-06
2.34534e-07
1.75708e-06
2.39085e-07
1.81983e-06
2.31157e-07
1.88379e-06
2.17999e-07
1.94599e-06
2.03632e-07
2.00558e-06
1.88935e-07
2.06218e-06
1.74607e-07
2.1156e-06
1.61115e-07
2.16585e-06
1.48639e-07
2.21301e-06
1.37219e-07
2.25723e-06
1.26831e-07
2.29869e-06
1.17409e-07
2.33756e-06
1.08871e-07
2.37404e-06
1.01131e-07
2.4083e-06
9.41057e-08
2.44051e-06
8.77169e-08
8.20018e-08
2.4708e-06
1.01827e-06
1.63847e-07
1.09488e-06
1.57925e-07
1.17024e-06
1.63724e-07
1.2467e-06
1.54702e-07
1.32009e-06
1.44604e-07
1.38908e-06
1.34648e-07
1.45371e-06
1.24301e-07
1.51405e-06
1.1427e-07
1.57019e-06
1.0497e-07
1.62237e-06
9.64647e-08
1.67084e-06
8.87425e-08
1.7159e-06
8.17682e-08
1.75783e-06
7.54823e-08
1.79689e-06
6.98157e-08
1.83332e-06
6.47007e-08
1.86735e-06
6.00765e-08
1.8992e-06
5.58638e-08
5.21381e-08
1.92906e-06
5.69237e-07
8.45265e-08
6.58982e-07
6.81798e-08
7.40765e-07
8.19418e-08
8.20861e-07
7.46059e-08
8.95861e-07
6.96036e-08
9.65415e-07
6.50942e-08
1.02984e-06
5.98786e-08
1.08934e-06
5.47631e-08
1.14422e-06
5.00975e-08
1.19481e-06
4.58708e-08
1.2415e-06
4.20539e-08
1.28464e-06
3.86263e-08
1.32457e-06
3.55539e-08
1.36159e-06
3.27969e-08
1.39597e-06
3.03172e-08
1.42796e-06
2.80862e-08
1.45779e-06
2.60316e-08
2.42024e-08
1.48573e-06
2.22451e-07
2.9063e-07
3.72572e-07
4.47178e-07
5.16782e-07
5.81876e-07
6.41754e-07
6.96518e-07
7.46615e-07
7.92486e-07
8.3454e-07
8.73166e-07
9.0872e-07
9.41517e-07
9.71834e-07
9.9992e-07
1.02595e-06
1.05015e-06
2.63522e-08
-2.63522e-08
5.66154e-08
-3.02632e-08
8.08418e-08
-2.42264e-08
9.63722e-08
-1.55304e-08
1.02427e-07
-6.05496e-09
9.92697e-08
3.15751e-09
8.81902e-08
1.10795e-08
7.09075e-08
1.72828e-08
4.90605e-08
2.18469e-08
2.38517e-08
2.52089e-08
-4.05935e-09
2.7911e-08
-3.45245e-08
3.04652e-08
-6.76972e-08
3.31727e-08
-1.03783e-07
3.60862e-08
-1.4293e-07
3.91462e-08
-1.85156e-07
4.2226e-08
-2.30348e-07
4.51919e-08
-2.78276e-07
4.79282e-08
-3.28621e-07
5.03449e-08
-3.81e-07
5.23793e-08
-4.34995e-07
5.39947e-08
-4.90173e-07
5.51788e-08
-5.46113e-07
5.59396e-08
-6.02415e-07
5.63017e-08
-6.58718e-07
5.63034e-08
-7.14715e-07
5.59971e-08
-7.7016e-07
5.54451e-08
-8.24863e-07
5.47025e-08
-8.78667e-07
5.38044e-08
-9.31452e-07
5.27844e-08
-9.83125e-07
5.16732e-08
-1.03362e-06
5.04976e-08
-1.0829e-06
4.92802e-08
-1.13094e-06
4.80394e-08
-1.17773e-06
4.67895e-08
-1.22327e-06
4.55411e-08
-1.26757e-06
4.43015e-08
-1.31065e-06
4.30755e-08
-1.35252e-06
4.18655e-08
-1.39319e-06
4.06723e-08
-1.43268e-06
3.94953e-08
-1.47102e-06
3.83332e-08
-1.5082e-06
3.71839e-08
-1.54424e-06
3.60448e-08
-1.57916e-06
3.49133e-08
-1.61294e-06
3.37866e-08
-1.64561e-06
3.26623e-08
-1.67714e-06
3.15377e-08
-1.70756e-06
3.04108e-08
-1.73683e-06
2.92794e-08
-1.76498e-06
2.81419e-08
-1.79197e-06
2.6997e-08
-1.81782e-06
2.58433e-08
-1.8425e-06
2.46801e-08
-1.866e-06
2.35066e-08
-1.88833e-06
2.23224e-08
-1.90945e-06
2.11273e-08
-1.92937e-06
1.99209e-08
-1.94808e-06
1.87034e-08
-1.96555e-06
1.74744e-08
-1.98179e-06
1.6234e-08
-1.99677e-06
1.49819e-08
-2.01049e-06
1.37176e-08
-2.02293e-06
1.24403e-08
-2.03407e-06
1.11487e-08
-2.04391e-06
9.84025e-09
-2.05243e-06
8.51162e-09
-2.05959e-06
7.15891e-09
-2.06536e-06
5.77617e-09
-2.06972e-06
4.35476e-09
-2.07261e-06
2.89133e-09
-2.074e-06
1.39065e-09
-2.07381e-06
-1.91287e-10
-2.07237e-06
-1.44135e-09
-2.06971e-06
-2.65782e-09
-2.06588e-06
-3.82869e-09
-2.06091e-06
-4.97382e-09
-2.0548e-06
-6.10569e-09
-2.04757e-06
-7.22913e-09
-2.03922e-06
-8.3459e-09
-2.02977e-06
-9.45638e-09
-2.01921e-06
-1.05603e-08
-2.00755e-06
-1.16572e-08
-1.9948e-06
-1.27464e-08
-1.98098e-06
-1.38273e-08
-1.96608e-06
-1.48993e-08
-1.95012e-06
-1.59616e-08
-1.9331e-06
-1.70138e-08
-1.91505e-06
-1.80552e-08
-1.89596e-06
-1.90853e-08
-1.87586e-06
-2.01035e-08
-1.85475e-06
-2.11093e-08
-1.83265e-06
-2.21021e-08
-1.80957e-06
-2.30814e-08
-1.78552e-06
-2.40467e-08
-1.76052e-06
-2.49974e-08
-1.73459e-06
-2.5933e-08
-1.70774e-06
-2.68529e-08
-1.67998e-06
-2.77566e-08
-1.65134e-06
-2.86433e-08
-1.62182e-06
-2.95126e-08
-1.59146e-06
-3.03638e-08
-1.56026e-06
-3.11962e-08
-1.52825e-06
-3.20092e-08
-1.49545e-06
-3.2802e-08
-1.46188e-06
-3.35738e-08
-1.42755e-06
-3.43238e-08
-1.3925e-06
-3.50512e-08
-1.35675e-06
-3.57552e-08
-1.32031e-06
-3.64348e-08
-1.28322e-06
-3.70892e-08
-1.24551e-06
-3.77174e-08
-1.20719e-06
-3.83184e-08
-1.1683e-06
-3.88913e-08
-1.12886e-06
-3.9435e-08
-1.08891e-06
-3.99486e-08
-1.04848e-06
-4.04311e-08
-1.0076e-06
-4.08815e-08
-9.66301e-07
-4.12988e-08
-9.24619e-07
-4.16821e-08
-8.82588e-07
-4.20305e-08
-8.40245e-07
-4.23431e-08
-7.97626e-07
-4.2619e-08
-7.54769e-07
-4.28577e-08
-7.1171e-07
-4.30584e-08
-6.6849e-07
-4.32205e-08
-6.25146e-07
-4.33436e-08
-5.81719e-07
-4.34273e-08
-5.38248e-07
-4.34713e-08
-4.94772e-07
-4.34756e-08
-4.51332e-07
-4.34402e-08
-4.07967e-07
-4.33651e-08
-3.64716e-07
-4.32506e-08
-3.21619e-07
-4.30971e-08
-2.78714e-07
-4.2905e-08
-2.3604e-07
-4.26745e-08
-1.93634e-07
-4.24059e-08
-1.51536e-07
-4.20975e-08
-1.09783e-07
-4.17528e-08
-6.84102e-08
-4.13732e-08
-2.74559e-08
-4.09543e-08
1.30449e-08
-4.05008e-08
5.30603e-08
-4.00154e-08
9.25609e-08
-3.95006e-08
1.31534e-07
-3.89735e-08
1.69986e-07
-3.8452e-08
2.07927e-07
-3.794e-08
2.45366e-07
-3.74396e-08
2.8232e-07
-3.69535e-08
3.18805e-07
-3.64852e-08
3.54844e-07
-3.60393e-08
3.90465e-07
-3.56208e-08
4.257e-07
-3.52351e-08
4.60588e-07
-3.4888e-08
4.95173e-07
-3.45854e-08
5.29507e-07
-3.43335e-08
5.63645e-07
-3.41381e-08
5.9765e-07
-3.40051e-08
6.3159e-07
-3.394e-08
6.65538e-07
-3.39479e-08
6.99571e-07
-3.40333e-08
7.33771e-07
-3.41999e-08
7.68221e-07
-3.44503e-08
8.03007e-07
-3.4786e-08
8.38214e-07
-3.52066e-08
8.73924e-07
-3.57096e-08
9.10213e-07
-3.62898e-08
9.47151e-07
-3.6938e-08
9.84792e-07
-3.76402e-08
1.02317e-06
-3.83752e-08
1.06228e-06
-3.91114e-08
1.10208e-06
-3.98012e-08
1.14245e-06
-4.03704e-08
1.18315e-06
-4.0701e-08
1.22372e-06
-4.05738e-08
1.26334e-06
-3.9613e-08
1.30003e-06
-3.66942e-08
1.32995e-06
-2.99131e-08
1.33871e-06
-8.7629e-09
4.45967e-08
1.29411e-06
2.22439e-08
-4.85962e-08
3.15949e-08
-3.96142e-08
3.08225e-08
-2.34539e-08
2.29096e-08
-7.61757e-09
9.62414e-09
7.2305e-09
-8.07326e-09
2.08549e-08
-3.00318e-08
3.3038e-08
-5.63613e-08
4.36123e-08
-8.71366e-08
5.26222e-08
-1.22283e-07
6.03549e-08
-1.61578e-07
6.72064e-08
-2.04644e-07
7.35308e-08
-2.51012e-07
7.95414e-08
-3.0021e-07
8.52834e-08
-3.51744e-07
9.06808e-08
-4.05121e-07
9.56028e-08
-4.59845e-07
9.9916e-08
-5.15432e-07
1.03515e-07
-5.7142e-07
1.06333e-07
-6.2739e-07
1.08349e-07
-6.82972e-07
1.09577e-07
-7.37856e-07
1.10063e-07
-7.91794e-07
1.09878e-07
-8.44598e-07
1.09106e-07
-8.96136e-07
1.07841e-07
-9.4632e-07
1.06182e-07
-9.95094e-07
1.04219e-07
-1.04242e-06
1.02032e-07
-1.0883e-06
9.96849e-08
-1.13275e-06
9.7233e-08
-1.1758e-06
9.47202e-08
-1.21748e-06
9.21817e-08
-1.25785e-06
8.96444e-08
-1.29694e-06
8.71277e-08
-1.33479e-06
8.46447e-08
-1.37145e-06
8.22036e-08
-1.40696e-06
7.9808e-08
-1.44134e-06
7.74585e-08
-1.47463e-06
7.51534e-08
-1.50685e-06
7.28889e-08
-1.53801e-06
7.06603e-08
-1.56814e-06
6.84623e-08
-1.59725e-06
6.62889e-08
-1.62534e-06
6.41344e-08
-1.65242e-06
6.19932e-08
-1.67849e-06
5.98598e-08
-1.70356e-06
5.77295e-08
-1.72762e-06
5.55977e-08
-1.75067e-06
5.34607e-08
-1.7727e-06
5.1315e-08
-1.79372e-06
4.91579e-08
-1.81371e-06
4.69871e-08
-1.83267e-06
4.48008e-08
-1.85058e-06
4.25977e-08
-1.86745e-06
4.03768e-08
-1.88327e-06
3.81377e-08
-1.89802e-06
3.588e-08
-1.9117e-06
3.36039e-08
-1.92431e-06
3.13095e-08
-1.93583e-06
2.89973e-08
-1.94627e-06
2.66677e-08
-1.95561e-06
2.43213e-08
-1.96385e-06
2.19587e-08
-1.97099e-06
1.95804e-08
-1.97703e-06
1.71871e-08
-1.98197e-06
1.47794e-08
-1.98581e-06
1.23583e-08
-1.98858e-06
9.92564e-09
-1.99029e-06
7.48479e-09
-1.99097e-06
5.04183e-09
-1.99069e-06
2.60666e-09
-1.98954e-06
2.36783e-10
-1.98757e-06
-2.15866e-09
-1.98457e-06
-4.43848e-09
-1.98053e-06
-6.70323e-09
-1.9754e-06
-8.95668e-09
-1.96917e-06
-1.11986e-08
-1.96185e-06
-1.34304e-08
-1.95343e-06
-1.56525e-08
-1.94391e-06
-1.78646e-08
-1.9333e-06
-2.00656e-08
-1.9216e-06
-2.22545e-08
-1.90883e-06
-2.44298e-08
-1.89499e-06
-2.65905e-08
-1.88008e-06
-2.87349e-08
-1.86412e-06
-3.08619e-08
-1.84711e-06
-3.29701e-08
-1.82906e-06
-3.50583e-08
-1.80999e-06
-3.71254e-08
-1.78991e-06
-3.91702e-08
-1.76882e-06
-4.11916e-08
-1.74674e-06
-4.31885e-08
-1.72368e-06
-4.51598e-08
-1.69966e-06
-4.71045e-08
-1.67469e-06
-4.90215e-08
-1.64877e-06
-5.09097e-08
-1.62194e-06
-5.27679e-08
-1.5942e-06
-5.45951e-08
-1.56556e-06
-5.639e-08
-1.53605e-06
-5.81515e-08
-1.50569e-06
-5.98783e-08
-1.47448e-06
-6.15692e-08
-1.44246e-06
-6.32229e-08
-1.40963e-06
-6.48379e-08
-1.37602e-06
-6.64128e-08
-1.34164e-06
-6.79461e-08
-1.30653e-06
-6.94361e-08
-1.2707e-06
-7.08813e-08
-1.23418e-06
-7.22798e-08
-1.19698e-06
-7.363e-08
-1.15914e-06
-7.493e-08
-1.12068e-06
-7.61781e-08
-1.08163e-06
-7.73721e-08
-1.04201e-06
-7.85103e-08
-1.00185e-06
-7.95905e-08
-9.61191e-07
-8.0611e-08
-9.20052e-07
-8.15697e-08
-8.78469e-07
-8.24647e-08
-8.36474e-07
-8.3294e-08
-7.941e-07
-8.40557e-08
-7.51383e-07
-8.47481e-08
-7.08356e-07
-8.53695e-08
-6.65057e-07
-8.59183e-08
-6.21522e-07
-8.6393e-08
-5.77788e-07
-8.67923e-08
-5.33893e-07
-8.71151e-08
-4.89876e-07
-8.73604e-08
-4.45776e-07
-8.75275e-08
-4.01631e-07
-8.7616e-08
-3.57481e-07
-8.76255e-08
-3.13365e-07
-8.75562e-08
-2.69322e-07
-8.74081e-08
-2.25391e-07
-8.7182e-08
-1.8161e-07
-8.68784e-08
-1.38016e-07
-8.64982e-08
-9.46487e-08
-8.60421e-08
-5.15429e-08
-8.55117e-08
-8.73458e-09
-8.49058e-08
3.37401e-08
-8.42275e-08
7.58462e-08
-8.34793e-08
1.17555e-07
-8.2663e-08
1.58844e-07
-8.17895e-08
1.99693e-07
-8.08643e-08
2.40087e-07
-7.98951e-08
2.80017e-07
-7.89032e-08
3.19472e-07
-7.79075e-08
3.58451e-07
-7.69189e-08
3.96957e-07
-7.59457e-08
4.34999e-07
-7.49958e-08
4.72592e-07
-7.40779e-08
5.09755e-07
-7.32019e-08
5.46512e-07
-7.23783e-08
5.82895e-07
-7.16182e-08
6.18941e-07
-7.09336e-08
6.54692e-07
-7.03364e-08
6.90197e-07
-6.98388e-08
7.25512e-07
-6.94529e-08
7.60697e-07
-6.91905e-08
7.9582e-07
-6.90628e-08
8.30952e-07
-6.90801e-08
8.66171e-07
-6.92517e-08
9.01556e-07
-6.95853e-08
9.37192e-07
-7.00864e-08
9.73165e-07
-7.07581e-08
1.00956e-06
-7.16e-08
1.04646e-06
-7.26075e-08
1.08394e-06
-7.37703e-08
1.12207e-06
-7.50707e-08
1.16091e-06
-7.6481e-08
1.20049e-06
-7.79593e-08
1.24083e-06
-7.94436e-08
1.28187e-06
-8.08403e-08
1.3235e-06
-8.20052e-08
1.36551e-06
-8.27085e-08
1.40748e-06
-8.25436e-08
1.44866e-06
-8.07991e-08
1.48774e-06
-7.5771e-08
1.52236e-06
-6.45379e-08
1.55043e-06
-3.68258e-08
2.58199e-08
1.5692e-06
5.89698e-10
-4.91859e-08
-1.05511e-08
-2.84734e-08
-2.72143e-08
-6.79077e-09
-4.74865e-08
1.26547e-08
-7.07449e-08
3.04889e-08
-9.68055e-08
4.69155e-08
-1.25712e-07
6.19441e-08
-1.57627e-07
7.55276e-08
-1.92696e-07
8.76912e-08
-2.30911e-07
9.85699e-08
-2.72059e-07
1.08354e-07
-3.1574e-07
1.17212e-07
-3.61431e-07
1.25232e-07
-4.08568e-07
1.3242e-07
-4.56609e-07
1.38722e-07
-5.05068e-07
1.44062e-07
-5.5353e-07
1.48378e-07
-6.01655e-07
1.5164e-07
-6.4918e-07
1.53858e-07
-6.9591e-07
1.55078e-07
-7.4171e-07
1.55377e-07
-7.865e-07
1.54853e-07
-8.3024e-07
1.53617e-07
-8.72919e-07
1.51785e-07
-9.14548e-07
1.4947e-07
-9.55146e-07
1.4678e-07
-9.94737e-07
1.43809e-07
-1.03335e-06
1.4064e-07
-1.071e-06
1.37339e-07
-1.10773e-06
1.33961e-07
-1.14356e-06
1.30549e-07
-1.17851e-06
1.27135e-07
-1.21261e-06
1.23743e-07
-1.24587e-06
1.20389e-07
-1.27831e-06
1.17083e-07
-1.30993e-06
1.13829e-07
-1.34076e-06
1.10629e-07
-1.37078e-06
1.07479e-07
-1.4e-06
1.04376e-07
-1.42842e-06
1.01314e-07
-1.45605e-06
9.82855e-08
-1.48287e-06
9.52838e-08
-1.50888e-06
9.23013e-08
-1.53408e-06
8.93308e-08
-1.55845e-06
8.63653e-08
-1.58199e-06
8.33983e-08
-1.60468e-06
8.04241e-08
-1.62652e-06
7.74374e-08
-1.6475e-06
7.44337e-08
-1.66759e-06
7.14092e-08
-1.68679e-06
6.83608e-08
-1.70509e-06
6.52859e-08
-1.72248e-06
6.21828e-08
-1.73893e-06
5.90502e-08
-1.75444e-06
5.58875e-08
-1.769e-06
5.26944e-08
-1.78259e-06
4.94712e-08
-1.7952e-06
4.62186e-08
-1.80683e-06
4.29375e-08
-1.81746e-06
3.96294e-08
-1.82709e-06
3.62956e-08
-1.83571e-06
3.29382e-08
-1.84331e-06
2.95591e-08
-1.84989e-06
2.61607e-08
-1.85545e-06
2.27456e-08
-1.85998e-06
1.93169e-08
-1.8635e-06
1.58786e-08
-1.86601e-06
1.24353e-08
-1.86752e-06
8.99303e-09
-1.86804e-06
5.55938e-09
-1.86758e-06
2.1448e-09
-1.8661e-06
-1.23887e-09
-1.86366e-06
-4.60182e-09
-1.86016e-06
-7.93726e-09
-1.8556e-06
-1.126e-08
-1.84998e-06
-1.45738e-08
-1.8433e-06
-1.78793e-08
-1.83556e-06
-2.11754e-08
-1.82675e-06
-2.44604e-08
-1.81688e-06
-2.77324e-08
-1.80596e-06
-3.09895e-08
-1.79398e-06
-3.42295e-08
-1.78096e-06
-3.74502e-08
-1.76691e-06
-4.06497e-08
-1.75181e-06
-4.38257e-08
-1.7357e-06
-4.69764e-08
-1.71857e-06
-5.00998e-08
-1.70043e-06
-5.3194e-08
-1.6813e-06
-5.62573e-08
-1.66118e-06
-5.92879e-08
-1.64009e-06
-6.22842e-08
-1.61804e-06
-6.52445e-08
-1.59503e-06
-6.81673e-08
-1.57108e-06
-7.10508e-08
-1.54621e-06
-7.38936e-08
-1.52043e-06
-7.66939e-08
-1.49374e-06
-7.94501e-08
-1.46618e-06
-8.21604e-08
-1.43775e-06
-8.48231e-08
-1.40846e-06
-8.74364e-08
-1.37834e-06
-8.99985e-08
-1.3474e-06
-9.25075e-08
-1.31566e-06
-9.49613e-08
-1.28314e-06
-9.73581e-08
-1.24986e-06
-9.96954e-08
-1.21584e-06
-1.01971e-07
-1.18109e-06
-1.04183e-07
-1.14564e-06
-1.06328e-07
-1.10952e-06
-1.08404e-07
-1.07274e-06
-1.10409e-07
-1.03533e-06
-1.12339e-07
-9.97316e-07
-1.14192e-07
-9.58723e-07
-1.15965e-07
-9.19578e-07
-1.17656e-07
-8.79908e-07
-1.1926e-07
-8.39742e-07
-1.20777e-07
-7.99111e-07
-1.22201e-07
-7.58044e-07
-1.23531e-07
-7.16574e-07
-1.24764e-07
-6.74733e-07
-1.25897e-07
-6.32554e-07
-1.26927e-07
-5.90071e-07
-1.27852e-07
-5.4732e-07
-1.28669e-07
-5.04336e-07
-1.29377e-07
-4.61155e-07
-1.29973e-07
-4.17815e-07
-1.30456e-07
-3.74351e-07
-1.30823e-07
-3.30804e-07
-1.31075e-07
-2.87209e-07
-1.31211e-07
-2.43605e-07
-1.31229e-07
-2.0003e-07
-1.31131e-07
-1.56522e-07
-1.30916e-07
-1.13118e-07
-1.30586e-07
-6.98561e-08
-1.3014e-07
-2.67718e-08
-1.29582e-07
1.60986e-08
-1.28913e-07
5.87193e-08
-1.28132e-07
1.01057e-07
-1.27243e-07
1.43079e-07
-1.2625e-07
1.84756e-07
-1.25156e-07
2.26064e-07
-1.23971e-07
2.66986e-07
-1.22711e-07
3.07509e-07
-1.21387e-07
3.47621e-07
-1.20007e-07
3.87306e-07
-1.18589e-07
4.26551e-07
-1.17152e-07
4.65349e-07
-1.15716e-07
5.03698e-07
-1.14295e-07
5.41604e-07
-1.12902e-07
5.7908e-07
-1.11553e-07
6.16141e-07
-1.10263e-07
6.5281e-07
-1.09048e-07
6.89117e-07
-1.07925e-07
7.25096e-07
-1.06912e-07
7.60787e-07
-1.06028e-07
7.96238e-07
-1.0529e-07
8.31501e-07
-1.04716e-07
8.66635e-07
-1.04324e-07
9.01704e-07
-1.04132e-07
9.36777e-07
-1.04154e-07
9.7193e-07
-1.04405e-07
1.00724e-06
-1.04896e-07
1.04279e-06
-1.05635e-07
1.07866e-06
-1.06629e-07
1.11493e-06
-1.07875e-07
1.1517e-06
-1.09369e-07
1.18902e-06
-1.11094e-07
1.22697e-06
-1.13025e-07
1.26562e-06
-1.15122e-07
1.30498e-06
-1.17323e-07
1.34507e-06
-1.19536e-07
1.38586e-06
-1.21628e-07
1.42724e-06
-1.2339e-07
1.46903e-06
-1.24497e-07
1.51088e-06
-1.24396e-07
1.55222e-06
-1.2214e-07
1.59223e-06
-1.15773e-07
1.62963e-06
-1.01941e-07
1.66473e-06
-7.19259e-08
-1.1439e-08
1.70199e-06
-1.87386e-08
-3.04473e-08
-4.36762e-08
-3.53577e-09
-7.02593e-08
1.97923e-08
-9.82006e-08
4.05959e-08
-1.27505e-07
5.9793e-08
-1.58277e-07
7.7688e-08
-1.90649e-07
9.43156e-08
-2.24746e-07
1.09624e-07
-2.60629e-07
1.23574e-07
-2.98231e-07
1.36172e-07
-3.37339e-07
1.47462e-07
-3.77616e-07
1.57489e-07
-4.18663e-07
1.6628e-07
-4.60078e-07
1.73835e-07
-5.01497e-07
1.80141e-07
-5.42625e-07
1.8519e-07
-5.83243e-07
1.88995e-07
-6.23201e-07
1.91598e-07
-6.62412e-07
1.9307e-07
-7.00839e-07
1.93505e-07
-7.38477e-07
1.93016e-07
-7.75349e-07
1.91725e-07
-8.11487e-07
1.89755e-07
-8.4693e-07
1.87228e-07
-8.81716e-07
1.84256e-07
-9.15876e-07
1.8094e-07
-9.49435e-07
1.77368e-07
-9.82411e-07
1.73616e-07
-1.01482e-06
1.69745e-07
-1.04666e-06
1.65804e-07
-1.07794e-06
1.61831e-07
-1.10866e-06
1.57856e-07
-1.13882e-06
1.53899e-07
-1.1684e-06
1.49973e-07
-1.19741e-06
1.46087e-07
-1.22582e-06
1.42242e-07
-1.25363e-06
1.3844e-07
-1.28083e-06
1.34676e-07
-1.3074e-06
1.30946e-07
-1.33332e-06
1.27242e-07
-1.3586e-06
1.23559e-07
-1.3832e-06
1.19887e-07
-1.40712e-06
1.16219e-07
-1.43034e-06
1.12547e-07
-1.45283e-06
1.08865e-07
-1.4746e-06
1.05165e-07
-1.49562e-06
1.01442e-07
-1.51587e-06
9.76895e-08
-1.53534e-06
9.39035e-08
-1.55401e-06
9.00803e-08
-1.57187e-06
8.62167e-08
-1.58889e-06
8.23106e-08
-1.60507e-06
7.83604e-08
-1.62039e-06
7.43652e-08
-1.63482e-06
7.0325e-08
-1.64837e-06
6.62401e-08
-1.66101e-06
6.21115e-08
-1.67273e-06
5.79407e-08
-1.68352e-06
5.37297e-08
-1.69338e-06
4.94807e-08
-1.70228e-06
4.51965e-08
-1.71022e-06
4.08802e-08
-1.71719e-06
3.65352e-08
-1.7232e-06
3.21652e-08
-1.72823e-06
2.77744e-08
-1.73228e-06
2.33672e-08
-1.73535e-06
1.89487e-08
-1.73744e-06
1.45245e-08
-1.73854e-06
1.01005e-08
-1.73867e-06
5.68294e-09
-1.7378e-06
1.27797e-09
-1.73593e-06
-3.11077e-09
-1.73305e-06
-7.48333e-09
-1.72914e-06
-1.18427e-08
-1.72421e-06
-1.61935e-08
-1.71825e-06
-2.05366e-08
-1.71125e-06
-2.48714e-08
-1.70323e-06
-2.91958e-08
-1.69419e-06
-3.35072e-08
-1.68412e-06
-3.78029e-08
-1.67303e-06
-4.20799e-08
-1.66092e-06
-4.63353e-08
-1.6478e-06
-5.05662e-08
-1.63368e-06
-5.47698e-08
-1.61857e-06
-5.89432e-08
-1.60246e-06
-6.30839e-08
-1.58537e-06
-6.71893e-08
-1.56731e-06
-7.12568e-08
-1.54828e-06
-7.52842e-08
-1.5283e-06
-7.92691e-08
-1.50737e-06
-8.32094e-08
-1.48552e-06
-8.71027e-08
-1.46274e-06
-9.09471e-08
-1.43905e-06
-9.47404e-08
-1.41446e-06
-9.84803e-08
-1.38899e-06
-1.02165e-07
-1.36265e-06
-1.05792e-07
-1.33545e-06
-1.09358e-07
-1.30741e-06
-1.12863e-07
-1.27854e-06
-1.16302e-07
-1.24887e-06
-1.19675e-07
-1.2184e-06
-1.22978e-07