/*--------------------------------*- C++ -*----------------------------------*\
| =========                 |                                                 |
| \\      /  F ield         | OpenFOAM: The Open Source CFD Toolbox           |
|  \\    /   O peration     | Version:  2412                                  |
|   \\  /    A nd           | Website:  www.openfoam.com                      |
|    \\/     M anipulation  |                                                 |
\*---------------------------------------------------------------------------*/
FoamFile
{
    version     2.0;
    format      ascii;
    arch        "LSB;label=32;scalar=64";
    class       volVectorField;
    location    "0.11";
    object      U;
}
// * * * * * * * * * * * * * * * * * * * * * * * * * * * * * * * * * * * * * //

dimensions      [0 1 -1 0 0 0 0];

internalField   nonuniform List<vector> 
12225
(
(0.377183 -0.200896 0)
(0.54396 -0.0519265 0)
(0.711041 -0.0340138 0)
(0.893966 -0.0304756 0)
(1.05909 -0.0297456 0)
(1.20882 -0.0284508 0)
(1.34612 -0.0265163 0)
(1.47041 -0.0245733 0)
(1.58214 -0.0227638 0)
(1.68259 -0.0210712 0)
(1.77294 -0.0194928 0)
(1.85413 -0.0180209 0)
(1.92699 -0.0166343 0)
(1.99222 -0.0152926 0)
(2.05016 -0.0139751 0)
(2.10174 -0.0125387 0)
(2.14323 -0.0104815 0)
(2.19149 -0.0131839 0)
(0.933503 -0.0317782 0)
(1.0567 -0.0587091 0)
(1.23663 -0.0688982 0)
(1.42154 -0.0644818 0)
(1.5855 -0.0618089 0)
(1.73438 -0.0589619 0)
(1.87127 -0.0555591 0)
(1.99596 -0.0521709 0)
(2.10895 -0.048928 0)
(2.21127 -0.0458378 0)
(2.3039 -0.042915 0)
(2.38768 -0.0401458 0)
(2.46334 -0.0374893 0)
(2.53152 -0.0348693 0)
(2.59263 -0.0322322 0)
(2.64705 -0.0291541 0)
(2.69432 -0.0263133 0)
(2.73631 -0.0166777 0)
(1.39962 -0.0846815 0)
(1.49179 -0.105675 0)
(1.65465 -0.107233 0)
(1.82258 -0.101935 0)
(1.97265 -0.097982 0)
(2.11034 -0.0936431 0)
(2.2377 -0.0887297 0)
(2.35442 -0.0837849 0)
(2.46085 -0.0789817 0)
(2.55776 -0.0743663 0)
(2.6459 -0.0699648 0)
(2.72595 -0.0657589 0)
(2.79854 -0.061691 0)
(2.8642 -0.057658 0)
(2.92331 -0.0535381 0)
(2.97612 -0.0489362 0)
(3.0228 -0.0438888 0)
(3.06256 -0.0347555 0)
(1.89741 -0.115424 0)
(1.94623 -0.143305 0)
(2.0752 -0.144977 0)
(2.21746 -0.140758 0)
(2.34795 -0.135767 0)
(2.46969 -0.130031 0)
(2.58346 -0.123679 0)
(2.68859 -0.117189 0)
(2.78515 -0.1108 0)
(2.8736 -0.104613 0)
(2.95447 -0.0986711 0)
(3.02824 -0.0929576 0)
(3.09538 -0.0874032 0)
(3.15633 -0.0818828 0)
(3.21142 -0.0762247 0)
(3.26082 -0.0700274 0)
(3.30505 -0.0630388 0)
(3.34247 -0.0522947 0)
(2.43108 -0.125829 0)
(2.4405 -0.169887 0)
(2.5288 -0.177404 0)
(2.64 -0.17616 0)
(2.74678 -0.171215 0)
(2.84898 -0.164712 0)
(2.94611 -0.157355 0)
(3.03693 -0.149653 0)
(3.12116 -0.141935 0)
(3.19892 -0.134375 0)
(3.27047 -0.127046 0)
(3.33608 -0.119945 0)
(3.39608 -0.113 0)
(3.45077 -0.106076 0)
(3.50042 -0.0989714 0)
(3.54516 -0.0912922 0)
(3.58579 -0.0826239 0)
(3.62016 -0.0706963 0)
(2.99683 -0.123682 0)
(2.97697 -0.185364 0)
(3.02468 -0.20145 0)
(3.10201 -0.204938 0)
(3.18207 -0.201555 0)
(3.26192 -0.195234 0)
(3.33989 -0.187526 0)
(3.41415 -0.17913 0)
(3.48397 -0.170505 0)
(3.54914 -0.161917 0)
(3.60961 -0.153488 0)
(3.66548 -0.145239 0)
(3.71687 -0.137112 0)
(3.76395 -0.128976 0)
(3.80695 -0.120621 0)
(3.84593 -0.111687 0)
(3.88187 -0.101725 0)
(3.91218 -0.0891383 0)
(3.58832 -0.114506 0)
(3.55089 -0.190577 0)
(3.56319 -0.215881 0)
(3.60676 -0.2253 0)
(3.65871 -0.224983 0)
(3.71439 -0.21993 0)
(3.77134 -0.212651 0)
(3.82727 -0.204187 0)
(3.88099 -0.19517 0)
(3.93197 -0.185983 0)
(3.97988 -0.176816 0)
(4.0246 -0.167734 0)
(4.0661 -0.158704 0)
(4.1044 -0.149614 0)
(4.13964 -0.140271 0)
(4.17184 -0.13037 0)
(4.20205 -0.119515 0)
(4.22721 -0.10665 0)
(4.1988 -0.101764 0)
(4.15397 -0.187067 0)
(4.13917 -0.220692 0)
(4.15216 -0.236289 0)
(4.17665 -0.240112 0)
(4.20772 -0.237358 0)
(4.24275 -0.231321 0)
(4.27925 -0.22347 0)
(4.31572 -0.214637 0)
(4.35132 -0.205341 0)
(4.38552 -0.195862 0)
(4.41799 -0.186319 0)
(4.44852 -0.176722 0)
(4.47704 -0.166993 0)
(4.50357 -0.156977 0)
(4.52806 -0.146438 0)
(4.55161 -0.135074 0)
(4.57059 -0.122234 0)
(4.82185 -0.0878064 0)
(4.77661 -0.176866 0)
(4.74388 -0.216826 0)
(4.73188 -0.237803 0)
(4.73175 -0.246092 0)
(4.7395 -0.246366 0)
(4.75297 -0.242282 0)
(4.7699 -0.235693 0)
(4.78868 -0.227631 0)
(4.80832 -0.218746 0)
(4.82813 -0.209416 0)
(4.84761 -0.199829 0)
(4.86644 -0.190048 0)
(4.88442 -0.180041 0)
(4.9015 -0.169706 0)
(4.91755 -0.158884 0)
(4.93362 -0.147382 0)
(4.94558 -0.13484 0)
(5.45146 -0.074106 0)
(5.40949 -0.161999 0)
(5.3668 -0.205808 0)
(5.33651 -0.230616 0)
(5.31632 -0.242862 0)
(5.30378 -0.24637 0)
(5.29753 -0.244672 0)
(5.29591 -0.239844 0)
(5.29754 -0.233059 0)
(5.30142 -0.225071 0)
(5.30678 -0.216345 0)
(5.31308 -0.20714 0)
(5.31991 -0.197576 0)
(5.32698 -0.187676 0)
(5.33418 -0.177398 0)
(5.34129 -0.166657 0)
(5.34931 -0.155372 0)
(5.35363 -0.143379 0)
(6.08167 -0.0613908 0)
(6.0441 -0.144158 0)
(5.99712 -0.189296 0)
(5.95491 -0.216127 0)
(5.92002 -0.231201 0)
(5.8915 -0.237566 0)
(5.86875 -0.238274 0)
(5.8509 -0.235415 0)
(5.837 -0.230223 0)
(5.82621 -0.223495 0)
(5.81789 -0.21575 0)
(5.81148 -0.207305 0)
(5.80657 -0.198333 0)
(5.80285 -0.188911 0)
(5.80014 -0.179054 0)
(5.79817 -0.168745 0)
(5.79792 -0.158001 0)
(5.7943 -0.14679 0)
(6.65461 -0.0505983 0)
(6.62054 -0.126181 0)
(6.57303 -0.170545 0)
(6.52475 -0.197717 0)
(6.48109 -0.214162 0)
(6.44226 -0.222406 0)
(6.40808 -0.224946 0)
(6.37833 -0.223752 0)
(6.35252 -0.220042 0)
(6.33014 -0.214598 0)
(6.31068 -0.207947 0)
(6.29371 -0.200434 0)
(6.27886 -0.192264 0)
(6.26584 -0.183554 0)
(6.25449 -0.174363 0)
(6.24449 -0.164728 0)
(6.23681 -0.154702 0)
(6.22597 -0.144455 0)
(7.20973 -0.0406501 0)
(7.18016 -0.107366 0)
(7.13446 -0.149564 0)
(7.0834 -0.176078 0)
(7.03441 -0.1929 0)
(6.98876 -0.202263 0)
(6.94654 -0.206126 0)
(6.90789 -0.206262 0)
(6.8728 -0.203845 0)
(6.84104 -0.199615 0)
(6.81232 -0.194077 0)
(6.78634 -0.187573 0)
(6.76285 -0.180329 0)
(6.74162 -0.172486 0)
(6.72249 -0.164132 0)
(6.70519 -0.155345 0)
(6.6906 -0.146189 0)
(6.67314 -0.137048 0)
(7.81811 -0.0310604 0)
(7.79338 -0.0860986 0)
(7.75172 -0.123796 0)
(7.70081 -0.148236 0)
(7.64923 -0.164255 0)
(7.59949 -0.17387 0)
(7.55193 -0.178505 0)
(7.5069 -0.179604 0)
(7.46471 -0.178251 0)
(7.42543 -0.175135 0)
(7.389 -0.170715 0)
(7.35527 -0.165311 0)
(7.32412 -0.159145 0)
(7.29541 -0.15237 0)
(7.26906 -0.145092 0)
(7.24482 -0.137407 0)
(7.22352 -0.129404 0)
(7.19968 -0.121551 0)
(8.45855 -0.0222856 0)
(8.43892 -0.063735 0)
(8.40341 -0.0941994 0)
(8.35608 -0.114598 0)
(8.30533 -0.128223 0)
(8.25479 -0.136813 0)
(8.20521 -0.141337 0)
(8.15708 -0.142795 0)
(8.11093 -0.142063 0)
(8.0671 -0.139744 0)
(8.02569 -0.136236 0)
(7.98671 -0.131822 0)
(7.95015 -0.126707 0)
(7.91596 -0.121041 0)
(7.88412 -0.114937 0)
(7.85444 -0.108494 0)
(7.82771 -0.101809 0)
(7.79883 -0.09537 0)
(9.08866 -0.0143603 0)
(9.07382 -0.041704 0)
(9.0456 -0.062792 0)
(9.00495 -0.077117 0)
(8.95894 -0.0865246 0)
(8.91165 -0.0923849 0)
(8.86416 -0.0953892 0)
(8.81701 -0.0961483 0)
(8.77091 -0.0952558 0)
(8.72637 -0.0931582 0)
(8.6837 -0.0901523 0)
(8.64303 -0.0864475 0)
(8.60442 -0.082204 0)
(8.56792 -0.0775453 0)
(8.53356 -0.0725726 0)
(8.5012 -0.0673815 0)
(8.47157 -0.0620407 0)
(8.44034 -0.0570587 0)
(9.63295 -0.00706175 0)
(9.6217 -0.0206732 0)
(9.59987 -0.0313422 0)
(9.56659 -0.0383048 0)
(9.52746 -0.0423221 0)
(9.48643 -0.0442253 0)
(9.4447 -0.0444647 0)
(9.40273 -0.0433789 0)
(9.36109 -0.0413106 0)
(9.32037 -0.0385427 0)
(9.28092 -0.0352708 0)
(9.24295 -0.0316317 0)
(9.20658 -0.027733 0)
(9.1719 -0.0236658 0)
(9.13898 -0.0195029 0)
(9.10773 -0.0153248 0)
(9.07872 -0.0111462 0)
(9.04895 -0.0074615 0)
(9.96404 0.000119405 0)
(9.95459 0.00019882 0)
(9.93649 0.000681309 0)
(9.90812 0.00194981 0)
(9.87423 0.00391666 0)
(9.83859 0.00639067 0)
(9.80247 0.00926761 0)
(9.76622 0.012476 0)
(9.73031 0.0159318 0)
(9.69521 0.0195545 0)
(9.66125 0.0232815 0)
(9.62857 0.027063 0)
(9.59725 0.0308532 0)
(9.56733 0.0346033 0)
(9.53883 0.0382713 0)
(9.51171 0.041793 0)
(9.48613 0.0451925 0)
(9.4611 0.0480536 0)
(9.87499 0.00748549 0)
(9.86688 0.0218339 0)
(9.84987 0.0342705 0)
(9.8225 0.0444927 0)
(9.7896 0.052925 0)
(9.755 0.0600498 0)
(9.71996 0.0661643 0)
(9.68487 0.0714836 0)
(9.6502 0.0762045 0)
(9.61643 0.0804859 0)
(9.5839 0.0844356 0)
(9.55273 0.0881214 0)
(9.523 0.0915856 0)
(9.49472 0.094851 0)
(9.46787 0.0979261 0)
(9.44246 0.100792 0)
(9.41821 0.103485 0)
(9.39618 0.105724 0)
(9.28437 0.0159296 0)
(9.27065 0.0462307 0)
(9.24579 0.0712364 0)
(9.20982 0.0904792 0)
(9.16899 0.105319 0)
(9.12729 0.116957 0)
(9.08581 0.126076 0)
(9.04494 0.133218 0)
(9.00524 0.138896 0)
(8.96719 0.143513 0)
(8.93106 0.147349 0)
(8.89692 0.150593 0)
(8.86479 0.153384 0)
(8.83464 0.155822 0)
(8.80637 0.157977 0)
(8.77997 0.159897 0)
(8.75495 0.161633 0)
(8.73332 0.163037 0)
(8.47101 0.0261001 0)
(8.45237 0.0738372 0)
(8.41971 0.110395 0)
(8.37627 0.136947 0)
(8.32998 0.156612 0)
(8.28458 0.171239 0)
(8.24074 0.181859 0)
(8.19882 0.189432 0)
(8.15928 0.194817 0)
(8.1224 0.19864 0)
(8.08825 0.201327 0)
(8.05674 0.203185 0)
(8.02775 0.204444 0)
(8.00115 0.205275 0)
(7.97677 0.205802 0)
(7.95449 0.206122 0)
(7.93381 0.206295 0)
(7.91674 0.206277 0)
(7.51239 0.0385318 0)
(7.4866 0.104528 0)
(7.44646 0.150268 0)
(7.39956 0.181411 0)
(7.35397 0.203404 0)
(7.31185 0.218543 0)
(7.2732 0.228357 0)
(7.23809 0.234385 0)
(7.20663 0.237838 0)
(7.17871 0.23952 0)
(7.15406 0.239969 0)
(7.13239 0.239578 0)
(7.1134 0.23863 0)
(7.09682 0.237329 0)
(7.08238 0.235816 0)
(7.06987 0.2342 0)
(7.0588 0.232537 0)
(7.05089 0.230848 0)
(6.48931 0.0542318 0)
(6.45656 0.136922 0)
(6.41296 0.186983 0)
(6.37065 0.218598 0)
(6.3349 0.239446 0)
(6.30529 0.252104 0)
(6.28108 0.258816 0)
(6.26187 0.261661 0)
(6.24707 0.262027 0)
(6.236 0.26077 0)
(6.22807 0.258468 0)
(6.22274 0.255536 0)
(6.21959 0.252257 0)
(6.21822 0.248822 0)
(6.21833 0.24536 0)
(6.21968 0.241961 0)
(6.22182 0.238669 0)
(6.22615 0.235541 0)
(5.45712 0.0733949 0)
(5.41829 0.166506 0)
(5.37869 0.214142 0)
(5.35278 0.241977 0)
(5.33865 0.258374 0)
(5.33249 0.266138 0)
(5.33274 0.26832 0)
(5.33812 0.26725 0)
(5.34727 0.264241 0)
(5.3591 0.26008 0)
(5.37283 0.255297 0)
(5.38788 0.250246 0)
(5.4038 0.245151 0)
(5.42026 0.240153 0)
(5.43699 0.235337 0)
(5.45383 0.230754 0)
(5.47045 0.226428 0)
(5.48798 0.22242 0)
(4.45282 0.0947812 0)
(4.41206 0.187423 0)
(4.39048 0.225953 0)
(4.39661 0.246421 0)
(4.4165 0.255951 0)
(4.44337 0.257859 0)
(4.4753 0.255616 0)
(4.51039 0.251235 0)
(4.54696 0.245696 0)
(4.58394 0.239596 0)
(4.62073 0.23333 0)
(4.65689 0.227141 0)
(4.69216 0.221169 0)
(4.72635 0.21549 0)
(4.75935 0.210143 0)
(4.79115 0.205142 0)
(4.82157 0.200489 0)
(4.85156 0.196248 0)
(3.50293 0.114455 0)
(3.47301 0.192929 0)
(3.48914 0.217662 0)
(3.54121 0.228906 0)
(3.60262 0.231486 0)
(3.66652 0.228857 0)
(3.73181 0.223856 0)
(3.79679 0.21775 0)
(3.86004 0.211143 0)
(3.92092 0.204433 0)
(3.97917 0.197874 0)
(4.03468 0.191606 0)
(4.08741 0.1857 0)
(4.13742 0.180183 0)
(4.18479 0.175059 0)
(4.22968 0.170317 0)
(4.27207 0.165945 0)
(4.31281 0.162016 0)
(2.62982 0.122984 0)
(2.63208 0.176394 0)
(2.70178 0.187979 0)
(2.80471 0.191099 0)
(2.90736 0.189129 0)
(3.00607 0.184614 0)
(3.10165 0.178944 0)
(3.1931 0.172762 0)
(3.2796 0.166471 0)
(3.361 0.160325 0)
(3.43745 0.15447 0)
(3.50916 0.148977 0)
(3.5764 0.143874 0)
(3.63943 0.13916 0)
(3.69854 0.134819 0)
(3.75405 0.130829 0)
(3.80611 0.127168 0)
(3.85549 0.12393 0)
(1.85178 0.104827 0)
(1.90639 0.134442 0)
(2.03034 0.141904 0)
(2.17815 0.140523 0)
(2.31589 0.137049 0)
(2.44346 0.132936 0)
(2.56371 0.128119 0)
(2.67655 0.123009 0)
(2.78164 0.117964 0)
(2.87926 0.113138 0)
(2.96994 0.108605 0)
(3.05422 0.104399 0)
(3.1326 0.100526 0)
(3.20556 0.0969735 0)
(3.27356 0.0937195 0)
(3.33706 0.090741 0)
(3.39635 0.0880026 0)
(3.45218 0.0856115 0)
(1.17533 0.0416903 0)
(1.28238 0.0661078 0)
(1.43869 0.0889908 0)
(1.61661 0.0891827 0)
(1.78037 0.0862374 0)
(1.92919 0.0833399 0)
(2.06747 0.0798437 0)
(2.1959 0.0761286 0)
(2.3144 0.0725399 0)
(2.42354 0.069162 0)
(2.52418 0.0660203 0)
(2.61712 0.0631302 0)
(2.70308 0.0604884 0)
(2.78269 0.0580786 0)
(2.85657 0.0558804 0)
(2.92526 0.0538769 0)
(2.98919 0.0520062 0)
(3.04906 0.0503677 0)
(0.469484 0.226529 0)
(0.642366 0.069164 0)
(0.788946 0.0480276 0)
(0.97247 0.0444129 0)
(1.14915 0.0429753 0)
(1.3092 0.0416832 0)
(1.45692 0.0396508 0)
(1.59331 0.0373359 0)
(1.71816 0.0351183 0)
(1.83223 0.0330706 0)
(1.93669 0.0311886 0)
(2.03256 0.0294703 0)
(2.12072 0.0279091 0)
(2.20194 0.0264921 0)
(2.27695 0.0252034 0)
(2.34636 0.0240358 0)
(2.41069 0.0229363 0)
(2.47026 0.0219836 0)
(0.0128684 -0.0264863 -2.62802e-20)
(0.0376818 -0.0406318 2.54829e-20)
(0.0614893 -0.0394266 0)
(0.0799012 -0.0309021 0)
(0.0901297 -0.0190692 0)
(0.0917366 -0.00647148 -2.38838e-20)
(0.0849769 0.00482194 0)
(0.0719784 0.0133771 0)
(0.0543314 0.0189398 0)
(0.0332297 0.0221767 0)
(0.00945705 0.0241096 2.3672e-20)
(-0.0165612 0.0257144 0)
(-0.0448566 0.0276574 0)
(-0.0757116 0.0301668 0)
(-0.109292 0.0331588 0)
(-0.145677 0.036417 2.15232e-20)
(-0.184826 0.039719 0)
(-0.226583 0.0428759 0)
(-0.270698 0.0457385 0)
(-0.316855 0.0481975 0)
(-0.364692 0.0501825 0)
(-0.413826 0.0516592 0)
(-0.463871 0.0526248 0)
(-0.514463 0.0531034 1.81872e-20)
(-0.565273 0.0531437 -1.78574e-20)
(-0.615989 0.0528159 1.75482e-20)
(-0.666317 0.0521984 1.72574e-20)
(-0.716132 0.0513655 0)
(-0.76526 0.050355 0)
(-0.813576 0.0492068 -1.64885e-20)
(-0.860982 0.0479583 -1.62624e-20)
(-0.907411 0.0466424 0)
(-0.952813 0.0452868 0)
(-0.997161 0.0439135 -1.56554e-20)
(-1.04044 0.0425397 0)
(-1.08264 0.0411781 0)
(-1.12377 0.0398374 1.51302e-20)
(-1.16385 0.038523 0)
(-1.20287 0.0372381 1.4812e-20)
(-1.24086 0.0359835 2.932e-20)
(-1.27783 0.0347589 0)
(-1.3138 0.0335627 0)
(-1.34876 0.0323929 0)
(-1.38274 0.0312469 0)
(-1.41574 0.030122 0)
(-1.44776 0.0290154 2.76155e-20)
(-1.47881 0.0279247 2.73419e-20)
(-1.50889 0.0268473 2.70692e-20)
(-1.53798 0.025781 0)
(-1.5661 0.0247241 -2.65232e-20)
(-1.59323 0.0236748 0)
(-1.61936 0.0226318 2.59726e-20)
(-1.64449 0.0215941 2.56942e-20)
(-1.6686 0.0205607 0)
(-1.69169 0.0195309 0)
(-1.71374 0.0185042 0)
(-1.73475 0.0174801 2.45479e-20)
(-1.75469 0.0164582 0)
(-1.77357 0.0154381 0)
(-1.79136 0.014419 0)
(-1.80805 0.0134002 0)
(-1.82363 0.0123804 0)
(-1.83809 0.0113582 0)
(-1.85142 0.0103314 0)
(-1.8636 0.00929734 0)
(-1.87461 0.00825303 -2.16754e-20)
(-1.88443 0.00719481 0)
(-1.89305 0.00611881 0)
(-1.90043 0.00502207 2.0602e-20)
(-1.90654 0.00390655 2.02301e-20)
(-1.91136 0.00278582 0)
(-1.91482 0.00168704 -1.94657e-20)
(-1.91686 0.00064049 1.90722e-20)
(-1.9175 -0.000309739 0)
(-1.91712 -0.00111833 -1.82545e-20)
(-1.91563 -0.00187239 0)
(-1.91308 -0.00259736 0)
(-1.90949 -0.00330444 1.69653e-20)
(-1.90485 -0.00399778 0)
(-1.89918 -0.00467915 -1.60635e-20)
(-1.89248 -0.00534915 0)
(-1.88474 -0.00600795 1.51279e-20)
(-1.87598 -0.0066555 1.46475e-20)
(-1.8662 -0.00729168 1.4159e-20)
(-1.8554 -0.00791635 2.73245e-20)
(-1.84359 -0.00852936 -2.6315e-20)
(-1.83077 -0.00913057 0)
(-1.81696 -0.00971985 0)
(-1.80215 -0.0102971 0)
(-1.78635 -0.0108622 -2.21212e-20)
(-1.76958 -0.0114151 -2.10354e-20)
(-1.75184 -0.0119556 1.99354e-20)
(-1.73315 -0.0124837 0)
(-1.7135 -0.0129993 -1.76941e-20)
(-1.69291 -0.0135024 -1.65538e-20)
(-1.67139 -0.0139927 -1.5401e-20)
(-1.64895 -0.0144703 0)
(-1.62561 -0.0149349 0)
(-1.60137 -0.0153866 0)
(-1.57625 -0.0158251 -1.06748e-20)
(-1.55026 -0.0162504 0)
(-1.52341 -0.0166623 0)
(-1.49572 -0.0170605 7.02555e-21)
(-1.46721 -0.017445 0)
(-1.43789 -0.0178156 0)
(-1.40777 -0.0181719 3.30581e-21)
(-1.37688 -0.0185138 0)
(-1.34523 -0.0188409 0)
(-1.31284 -0.0191531 4.64982e-22)
(-1.27973 -0.0194501 1.72961e-21)
(-1.24592 -0.0197315 0)
(-1.21143 -0.019997 -4.26537e-21)
(-1.17629 -0.0202463 0)
(-1.14051 -0.0204791 6.80392e-21)
(-1.10413 -0.020695 0)
(-1.06717 -0.0208937 9.33787e-21)
(-1.02966 -0.0210748 1.06007e-20)
(-0.991616 -0.0212381 0)
(-0.953076 -0.0213832 0)
(-0.914068 -0.0215098 0)
(-0.874623 -0.0216177 0)
(-0.834771 -0.0217065 0)
(-0.794547 -0.0217761 0)
(-0.753983 -0.0218263 0)
(-0.713114 -0.021857 2.04723e-20)
(-0.671975 -0.021868 -2.16619e-20)
(-0.630601 -0.0218592 0)
(-0.589029 -0.0218308 0)
(-0.547296 -0.0217829 0)
(-0.505438 -0.0217154 0)
(-0.463493 -0.0216287 -5.47806e-20)
(-0.421499 -0.0215231 0)
(-0.379493 -0.0213987 5.91229e-20)
(-0.337512 -0.0212562 -6.12355e-20)
(-0.295593 -0.0210958 0)
(-0.253773 -0.0209178 0)
(-0.21209 -0.0207225 0)
(-0.17058 -0.0205084 6.92599e-20)
(-0.129281 -0.0202731 7.11535e-20)
(-0.0882279 -0.0200158 0)
(-0.0474562 -0.0197359 7.47998e-20)
(-0.0069922 -0.0194166 7.64103e-20)
(0.0331054 -0.0190228 -7.75081e-20)
(0.0728011 -0.0185825 0)
(0.112103 -0.0181481 0)
(0.151002 -0.0177298 -7.95235e-20)
(0.189501 -0.0173277 0)
(0.227609 -0.0169412 0)
(0.265337 -0.0165706 0)
(0.302703 -0.0162165 0)
(0.339725 -0.0158804 8.19523e-20)
(0.37643 -0.0155637 8.23204e-20)
(0.412846 -0.0152682 0)
(0.44901 -0.0149955 8.29576e-20)
(0.484965 -0.0147475 0)
(0.520759 -0.0145258 0)
(0.556448 -0.014332 8.36977e-20)
(0.592093 -0.0141675 0)
(0.627761 -0.0140337 8.40697e-20)
(0.663528 -0.0139314 0)
(0.699471 -0.0138613 0)
(0.735675 -0.0138238 8.44794e-20)
(0.772228 -0.0138187 0)
(0.809221 -0.0138454 8.46701e-20)
(0.846746 -0.0139026 0)
(0.884894 -0.0139882 0)
(0.923754 -0.0140991 0)
(0.963407 -0.0142311 -8.4895e-20)
(1.00392 -0.0143783 0)
(1.04536 -0.0145324 8.4946e-20)
(1.08774 -0.014682 0)
(1.13105 -0.0148107 0)
(1.17522 -0.0148936 0)
(1.22006 -0.0148928 0)
(1.26527 -0.0147366 0)
(1.31001 -0.0143132 0)
(1.35362 -0.0132387 0)
(1.39015 -0.0109961 -1.71104e-19)
(1.42539 -0.00310384 0)
(1.39524 0.0143193 0)
(0.0131917 -0.0806675 7.70755e-20)
(0.0267128 -0.0788023 -7.20397e-20)
(0.0289611 -0.0547068 0)
(0.0248065 -0.0291259 4.24947e-20)
(0.0153631 -0.00471232 0)
(0.00165096 0.0174127 2.00538e-20)
(-0.0157964 0.0363612 -3.91656e-20)
(-0.0372714 0.0517156 -3.83056e-20)
(-0.0627579 0.0638062 0)
(-0.092208 0.0734766 -3.66835e-20)
(-0.12548 0.081693 -1.79806e-20)
(-0.162303 0.0892367 0)
(-0.202315 0.0965668 0)
(-0.245106 0.103799 0)
(-0.290247 0.1108 0)
(-0.337301 0.11733 -1.60041e-20)
(-0.385827 0.123145 0)
(-0.435385 0.128048 3.0445e-20)
(-0.48555 0.131911 0)
(-0.535926 0.134674 0)
(-0.586158 0.136337 -2.84972e-20)
(-0.63594 0.136953 0)
(-0.685023 0.136611 2.73761e-20)
(-0.733213 0.135425 -1.34733e-20)
(-0.780369 0.13353 1.32349e-20)
(-0.826392 0.131067 -1.30126e-20)
(-0.871217 0.128178 -1.28049e-20)
(-0.914806 0.124979 0)
(-0.957141 0.121561 0)
(-0.998228 0.118003 1.22567e-20)
(-1.03809 0.114368 -1.20205e-20)
(-1.07675 0.110709 0)
(-1.11426 0.107066 0)
(-1.15064 0.10347 1.16577e-20)
(-1.18594 0.099941 0)
(-1.22019 0.0964933 0)
(-1.25343 0.0931341 -1.12746e-20)
(-1.28568 0.0898661 0)
(-1.31698 0.0866884 1.0962e-20)
(-1.34734 0.0835974 -2.18538e-20)
(-1.37678 0.0805879 0)
(-1.40533 0.0776534 0)
(-1.43298 0.0747871 -4.22513e-20)
(-1.45975 0.0719818 -4.18297e-20)
(-1.48564 0.0692308 -4.14118e-20)
(-1.51066 0.0665275 2.04272e-20)
(-1.5348 0.0638659 -2.03606e-20)
(-1.55807 0.0612407 -6.03207e-20)
(-1.58046 0.0586472 3.97547e-20)
(-1.60196 0.0560814 1.97324e-20)
(-1.62258 0.0535398 0)
(-1.6423 0.0510199 -1.93076e-20)
(-1.66111 0.0485193 1.89822e-20)
(-1.67902 0.0460365 0)
(-1.696 0.0435704 0)
(-1.71206 0.0411201 0)
(-1.72718 0.0386853 -1.82037e-20)
(-1.74135 0.0362657 0)
(-1.75457 0.0338614 3.54063e-20)
(-1.76684 0.0314724 0)
(-1.77813 0.0290989 3.44593e-20)
(-1.78845 0.026741 0)
(-1.79778 0.0243985 -3.3478e-20)
(-1.80613 0.0220712 0)
(-1.81349 0.0197583 3.24595e-20)
(-1.81986 0.0174589 -1.5958e-20)
(-1.82524 0.0151719 0)
(-1.82963 0.0128958 -3.08579e-20)
(-1.83306 0.0106287 -1.51496e-20)
(-1.83554 0.00836917 -1.48633e-20)
(-1.83711 0.006124 0)
(-1.83784 0.00392162 -1.43022e-20)
(-1.8378 0.00180755 -1.39704e-20)
(-1.837 -0.00020484 0)
(-1.8352 -0.00210595 1.3343e-20)
(-1.83241 -0.00394051 -2.60977e-20)
(-1.82862 -0.00572533 0)
(-1.82381 -0.00747087 -1.23617e-20)
(-1.81799 -0.00918129 0)
(-1.81115 -0.0108583 3.51271e-20)
(-1.80329 -0.0125024 0)
(-1.79442 -0.0141133 -3.30335e-20)
(-1.78453 -0.0156908 -1.06176e-20)
(-1.77364 -0.0172344 1.03707e-20)
(-1.76175 -0.0187436 2.00169e-20)
(-1.74885 -0.020218 -1.92822e-20)
(-1.73497 -0.0216572 0)
(-1.72009 -0.0230609 0)
(-1.70424 -0.0244289 0)
(-1.68742 -0.0257608 4.80886e-20)
(-1.66963 -0.0270566 1.51254e-20)
(-1.65088 -0.0283161 -1.43203e-20)
(-1.63118 -0.029539 0)
(-1.61055 -0.0307253 -1.30611e-20)
(-1.58898 -0.031875 1.18565e-20)
(-1.56649 -0.0329877 1.10202e-20)
(-1.5431 -0.0340635 0)
(-1.51881 -0.0351022 0)
(-1.49363 -0.0361036 0)
(-1.46758 -0.0370677 7.60955e-21)
(-1.44067 -0.0379943 0)
(-1.41291 -0.0388832 -1.2207e-20)
(-1.38432 -0.0397343 -1.54585e-20)
(-1.35491 -0.0405473 8.71278e-21)
(-1.3247 -0.041322 0)
(-1.2937 -0.0420581 2.84538e-21)
(-1.26194 -0.0427552 0)
(-1.22942 -0.0434131 1.64422e-21)
(-1.19616 -0.0440314 -1.95162e-22)
(-1.1622 -0.0446098 6.91584e-22)
(-1.12754 -0.0451478 0)
(-1.09221 -0.0456451 8.48482e-21)
(-1.05622 -0.0461013 -7.2556e-21)
(-1.01962 -0.0465159 -4.79243e-21)
(-0.982405 -0.0468885 0)
(-0.944617 -0.0472188 -6.56764e-21)
(-0.906278 -0.0475065 -2.17895e-20)
(-0.867416 -0.0477511 0)
(-0.828057 -0.0479524 -1.7842e-20)
(-0.788233 -0.0481101 -1.95796e-20)
(-0.747972 -0.0482241 -2.13064e-20)
(-0.707306 -0.0482941 0)
(-0.666267 -0.0483201 0)
(-0.624888 -0.0483023 0)
(-0.583203 -0.0482406 1.37565e-20)
(-0.541246 -0.0481353 1.51494e-20)
(-0.499053 -0.0479868 0)
(-0.456658 -0.0477956 3.29863e-20)
(-0.414098 -0.0475621 3.45825e-20)
(-0.37141 -0.0472872 0)
(-0.328631 -0.0469718 3.82568e-20)
(-0.285796 -0.0466166 7.84771e-20)
(-0.242943 -0.046223 -4.12796e-20)
(-0.200108 -0.0457918 -4.1692e-20)
(-0.157328 -0.0453243 0)
(-0.114639 -0.0448209 0)
(-0.0720762 -0.044282 0)
(-0.0296754 -0.043708 -4.83741e-20)
(0.0125298 -0.0430978 4.85483e-20)
(0.0545038 -0.0424521 9.99098e-20)
(0.0962165 -0.0417771 -5.1254e-20)
(0.137641 -0.0410793 5.11257e-20)
(0.178754 -0.0403494 5.28065e-20)
(0.219539 -0.0395906 0)
(0.259989 -0.0388267 0)
(0.300089 -0.0380727 -5.41283e-20)
(0.339834 -0.0373347 0)
(0.379225 -0.0366161 0)
(0.418268 -0.0359199 1.12865e-19)
(0.456974 -0.0352494 0)
(0.49536 -0.0346086 5.71912e-20)
(0.533449 -0.0340015 -5.8412e-20)
(0.571268 -0.0334325 0)
(0.608852 -0.0329063 5.86939e-20)
(0.646242 -0.0324273 0)
(0.683485 -0.0319998 0)
(0.720635 -0.0316282 -6.06022e-20)
(0.757752 -0.0313164 1.21353e-19)
(0.794903 -0.031068 -6.1339e-20)
(0.83216 -0.0308859 0)
(0.869603 -0.0307727 0)
(0.907314 -0.0307299 6.17521e-20)
(0.945383 -0.0307584 0)
(0.983899 -0.0308577 6.23493e-20)
(1.02295 -0.031026 0)
(1.06264 -0.0312597 0)
(1.10305 -0.0315529 0)
(1.14427 -0.031897 6.3954e-20)
(1.18636 -0.0322794 0)
(1.22939 -0.0326823 -6.44249e-20)
(1.27338 -0.0330801 0)
(1.31833 -0.0334355 0)
(1.36417 -0.0336919 1.29652e-19)
(1.41074 -0.0337603 -1.30119e-19)
(1.45775 -0.0334799 0)
(1.50455 -0.0325765 0)
(1.55041 -0.0303018 0)
(1.59227 -0.025476 3.9908e-19)
(1.63139 -0.0123253 0)
(1.65335 0.0164798 -2.72767e-19)
(0.0026565 -0.102166 -1.48254e-22)
(-0.00266495 -0.0705281 9.18104e-20)
(-0.0162013 -0.0329623 0)
(-0.0325129 0.00104989 -7.53649e-20)
(-0.0517853 0.0317361 0)
(-0.0736939 0.0593454 0)
(-0.0981271 0.0839255 4.67836e-23)
(-0.125191 0.105443 3.18395e-20)
(-0.15504 0.124046 3.10137e-20)
(-0.187753 0.140153 3.03172e-20)
(-0.22324 0.154309 0)
(-0.261226 0.166983 0)
(-0.301286 0.178446 -2.81382e-20)
(-0.342925 0.188747 -5.48961e-20)
(-0.385643 0.197789 5.35494e-20)
(-0.42898 0.205414 0)
(-0.47253 0.211479 5.09822e-20)
(-0.515958 0.2159 -2.48918e-20)
(-0.558994 0.218664 0)
(-0.601435 0.219829 4.75083e-20)
(-0.643135 0.219513 2.32259e-20)
(-0.684 0.217874 -4.54661e-20)
(-0.723979 0.215096 -2.22587e-20)
(-0.76305 0.211377 0)
(-0.801215 0.20691 4.28045e-20)
(-0.838488 0.201879 4.20163e-20)
(-0.874888 0.19645 0)
(-0.910437 0.190761 4.05709e-20)
(-0.945159 0.184926 0)
(-0.979077 0.179034 3.92795e-20)
(-1.01222 0.173158 1.93626e-20)
(-1.0446 0.167348 0)
(-1.07624 0.161643 0)
(-1.10717 0.156067 0)
(-1.13739 0.150635 0)
(-1.16691 0.145354 0)
(-1.19573 0.140223 0)
(-1.22388 0.135239 3.52001e-20)
(-1.25134 0.130393 -5.22008e-20)
(-1.27812 0.125676 0)
(-1.30422 0.121078 0)
(-1.32962 0.116586 0)
(-1.35434 0.11219 8.85347e-23)
(-1.37835 0.107879 3.28732e-20)
(-1.40166 0.103642 6.49027e-20)
(-1.42425 0.0994712 -6.41553e-20)
(-1.44612 0.0953572 -3.16641e-20)
(-1.46725 0.0912931 3.13804e-20)
(-1.48763 0.0872726 -8.19866e-23)
(-1.50725 0.0832907 3.05644e-20)
(-1.52609 0.079343 0)
(-1.54416 0.0754262 2.98326e-20)
(-1.56142 0.0715378 -7.05246e-23)
(-1.57788 0.067676 0)
(-1.59351 0.0638397 0)
(-1.6083 0.0600283 -2.83496e-20)
(-1.62225 0.0562418 0)
(-1.63533 0.0524806 0)
(-1.64754 0.0487453 2.71588e-20)
(-1.65888 0.0450368 5.36298e-20)
(-1.66932 0.0413565 -2.64567e-20)
(-1.67886 0.0377055 0)
(-1.68749 0.0340854 2.56417e-20)
(-1.69521 0.0304979 0)
(-1.70201 0.0269449 2.47723e-20)
(-1.7079 0.023429 2.43764e-20)
(-1.71286 0.0199533 -4.78747e-20)
(-1.7169 0.0165227 -2.35029e-20)
(-1.72004 0.0131436 0)
(-1.72227 0.0098247 4.52287e-20)
(-1.72361 0.00657654 0)
(-1.72404 0.00341102 6.50709e-20)
(-1.72357 0.000339828 4.24435e-20)
(-1.72218 -0.00265156 4.14806e-20)
(-1.71981 -0.00559272 -4.05051e-20)
(-1.71646 -0.00848258 5.92278e-20)
(-1.71214 -0.0113212 0)
(-1.70683 -0.0141083 0)
(-1.70054 -0.0168435 -3.64644e-20)
(-1.69326 -0.0195263 -5.30591e-20)
(-1.68499 -0.0221557 0)
(-1.67575 -0.024731 1.65625e-20)
(-1.66552 -0.0272512 0)
(-1.65431 -0.0297155 -4.65564e-20)
(-1.64212 -0.032123 1.94612e-22)
(-1.62897 -0.034473 -2.05443e-22)
(-1.61485 -0.036765 2.77187e-20)
(-1.59978 -0.0389983 0)
(-1.58374 -0.0411725 -2.54027e-20)
(-1.56677 -0.0432872 2.47203e-22)
(-1.54885 -0.0453422 0)
(-1.53 -0.0473372 0)
(-1.51023 -0.049272 0)
(-1.48954 -0.0511464 1.91282e-20)
(-1.46794 -0.0529602 0)
(-1.44545 -0.0547133 0)
(-1.42208 -0.0564054 0)
(-1.39783 -0.0580364 0)
(-1.37271 -0.0596062 0)
(-1.34674 -0.0611144 1.19185e-20)
(-1.31993 -0.0625611 0)
(-1.2923 -0.0639458 9.01093e-21)
(-1.26385 -0.0652685 7.71841e-21)
(-1.2346 -0.0665287 -6.4218e-21)
(-1.20457 -0.0677261 0)
(-1.17377 -0.0688604 -3.81906e-21)
(-1.14222 -0.069931 0)
(-1.10993 -0.0709375 -1.20835e-21)
(-1.07692 -0.0718795 -9.81606e-23)
(-1.04322 -0.0727564 -3.41163e-21)
(-1.00884 -0.0735679 0)
(-0.973799 -0.0743132 -1.12205e-20)
(-0.938123 -0.0749919 -4.48731e-21)
(-0.901833 -0.0756033 0)
(-0.864951 -0.076147 -1.49704e-20)
(-0.827504 -0.0766225 -1.7542e-20)
(-0.789516 -0.0770294 3.05792e-20)
(-0.751013 -0.0773672 0)
(-0.712023 -0.0776355 1.30213e-20)
(-0.672574 -0.0778341 1.42819e-20)
(-0.632695 -0.0779629 4.574e-20)
(-0.592417 -0.0780217 0)
(-0.55177 -0.0780106 0)
(-0.510787 -0.0779297 0)
(-0.4695 -0.0777796 1.95764e-20)
(-0.427942 -0.0775606 0)
(-0.386148 -0.0772734 0)
(-0.344151 -0.076919 -2.39795e-20)
(-0.301988 -0.0764984 -2.51323e-20)
(-0.259693 -0.0760128 0)
(-0.217302 -0.0754639 0)
(-0.17485 -0.0748531 -5.69912e-20)
(-0.132374 -0.0741824 0)
(-0.0899073 -0.0734534 6.13062e-20)
(-0.0474865 -0.0726682 6.26111e-20)
(-0.00514582 -0.071829 0)
(0.0370805 -0.0709376 0)
(0.0791589 -0.0699957 -6.79011e-20)
(0.121058 -0.069005 -7.4319e-22)
(0.162746 -0.0679687 -7.27546e-22)
(0.204198 -0.0668936 0)
(0.24539 -0.0657906 -1.47896e-19)
(0.286314 -0.0646677 0)
(0.326955 -0.0635296 0)
(0.3673 -0.0623869 0)
(0.407333 -0.0612516 7.93417e-20)
(0.447043 -0.0601328 0)
(0.486427 -0.0590375 -1.62045e-19)
(0.525486 -0.0579721 -8.27115e-20)
(0.56423 -0.0569432 0)
(0.602672 -0.0559575 -8.47629e-20)
(0.640833 -0.0550223 0)
(0.678739 -0.0541449 0)
(0.716423 -0.0533327 -2.61669e-19)
(0.753922 -0.0525931 1.75861e-19)
(0.791282 -0.0519335 0)
(0.828555 -0.0513609 1.79213e-19)
(0.865798 -0.0508816 -9.08935e-20)
(0.903076 -0.0505018 0)
(0.940459 -0.0502265 0)
(0.978023 -0.05006 0)
(1.01585 -0.0500053 -2.80484e-19)
(1.05402 -0.0500638 0)
(1.09263 -0.0502353 -9.51427e-20)
(1.13177 -0.0505171 0)
(1.17152 -0.0509041 0)
(1.21197 -0.0513872 0)
(1.25321 -0.051953 0)
(1.29531 -0.0525819 0)
(1.33832 -0.053246 0)
(1.38227 -0.0539052 -1.97811e-19)
(1.42717 -0.0545013 0)
(1.47295 -0.0549466 -1.00535e-19)
(1.51948 -0.0551042 3.0246e-19)
(1.56651 -0.0547402 0)
(1.61352 -0.0534493 0)
(1.65999 -0.050352 -2.05576e-19)
(1.70406 -0.0439071 -2.08525e-19)
(1.74734 -0.0297356 2.10397e-19)
(1.78252 -6.82354e-05 2.15508e-19)
(-0.0105098 -0.0791771 -1.49529e-19)
(-0.0282013 -0.0336697 -1.31335e-19)
(-0.0504723 0.00916143 -7.57211e-20)
(-0.0743196 0.0469556 -3.39201e-20)
(-0.0997472 0.081198 0)
(-0.126484 0.112431 5.9873e-20)
(-0.154585 0.140777 -2.87492e-20)
(-0.18419 0.166232 0)
(-0.215405 0.188848 -2.71413e-20)
(-0.248236 0.208791 0)
(-0.282561 0.226292 5.15097e-20)
(-0.318127 0.241563 0)
(-0.354597 0.25473 2.44606e-20)
(-0.391603 0.265833 4.76657e-20)
(-0.428798 0.274856 -4.64439e-20)
(-0.465885 0.281779 0)
(-0.502634 0.286611 -4.41197e-20)
(-0.538883 0.289418 0)
(-0.574528 0.290321 0)
(-0.609516 0.289489 -4.09791e-20)
(-0.643831 0.287125 0)
(-0.677482 0.283453 -7.83053e-23)
(-0.710497 0.278699 0)
(-0.742908 0.273082 0)
(-0.774751 0.266805 6.37906e-23)
(-0.806056 0.26005 -3.60042e-20)
(-0.836849 0.252973 -3.5378e-20)
(-0.867147 0.245706 -3.46906e-20)
(-0.896965 0.238352 0)
(-0.926311 0.230993 -6.70572e-20)
(-0.955188 0.223693 0)
(-0.983598 0.216496 -3.24695e-20)
(-1.01154 0.209434 0)
(-1.039 0.202525 0)
(-1.06598 0.195779 3.10416e-20)
(-1.09247 0.189199 0)
(-1.11845 0.182781 -3.01851e-20)
(-1.14392 0.176519 -1.9102e-23)
(-1.16887 0.170403 5.87979e-20)
(-1.19328 0.164421 -5.80146e-20)
(-1.21713 0.158562 0)
(-1.24042 0.152812 0)
(-1.26313 0.147158 -2.7892e-20)
(-1.28525 0.141591 0)
(-1.30676 0.136098 -2.7266e-20)
(-1.32764 0.130669 2.69298e-20)
(-1.34788 0.125296 2.65972e-20)
(-1.36747 0.119972 0)
(-1.38638 0.11469 -2.59398e-20)
(-1.40461 0.109444 -2.56136e-20)
(-1.42213 0.104231 5.05201e-20)
(-1.43893 0.0990481 -2.49633e-20)
(-1.455 0.0938924 -2.4638e-20)
(-1.47032 0.088763 0)
(-1.48487 0.0836595 0)
(-1.49864 0.0785822 2.36561e-20)
(-1.51162 0.0735319 0)
(-1.52378 0.0685101 0)
(-1.53513 0.0635187 -4.53132e-20)