/*--------------------------------*- C++ -*----------------------------------*\
| =========                 |                                                 |
| \\      /  F ield         | OpenFOAM: The Open Source CFD Toolbox           |
|  \\    /   O peration     | Version:  2412                                  |
|   \\  /    A nd           | Website:  www.openfoam.com                      |
|    \\/     M anipulation  |                                                 |
\*---------------------------------------------------------------------------*/
FoamFile
{
    version     2.0;
    format      ascii;
    arch        "LSB;label=32;scalar=64";
    class       surfaceScalarField;
    location    "0.73";
    object      phi;
}
// * * * * * * * * * * * * * * * * * * * * * * * * * * * * * * * * * * * * * //

dimensions      [0 3 -1 0 0 0 0];

oriented        oriented;

internalField   nonuniform List<scalar> 
799
(
2.38658e-05
4.77317e-05
7.15975e-05
9.54632e-05
0.000119329
0.000143194
0.000167059
0.000190924
0.000214788
0.000238652
0.000262516
0.000286379
0.000310242
0.000334104
0.000357965
0.000381826
0.000405686
0.000429546
0.000453405
0.000477263
0.00050112
0.000524976
0.000548831
0.000572685
0.000596539
0.000620391
0.000644242
0.000668092
0.000691941
0.000715788
0.000739635
0.00076348
0.000787323
0.000811166
0.000835006
0.000858846
0.000882684
0.00090652
0.000930354
0.000954187
0.000978019
0.00100185
0.00102568
0.0010495
0.00107333
0.00109715
0.00112097
0.00114479
0.0011686
0.00119242
0.00121623
0.00124004
0.00126385
0.00128765
0.00131145
0.00133525
0.00135905
0.00138285
0.00140664
0.00143043
0.00145422
0.001478
0.00150179
0.00152557
0.00154934
0.00157312
0.00159689
0.00162066
0.00164443
0.00166819
0.00169195
0.0017157
0.00173946
0.00176321
0.00178696
0.0018107
0.00183444
0.00185818
0.00188191
0.00190564
0.00192937
0.00195309
0.00197681
0.00200053
0.00202424
0.00204795
0.00207166
0.00209536
0.00211905
0.00214275
0.00216644
0.00219012
0.0022138
0.00223748
0.00226115
0.00228482
0.00230849
0.00233215
0.0023558
0.00237946
0.0024031
0.00242674
0.00245038
0.00247402
0.00249764
0.00252127
0.00254489
0.0025685
0.00259211
0.00261572
0.00263932
0.00266291
0.0026865
0.00271009
0.00273366
0.00275724
0.00278081
0.00280437
0.00282793
0.00285148
0.00287503
0.00289857
0.00292211
0.00294564
0.00296916
0.00299268
0.00301619
0.0030397
0.0030632
0.0030867
0.00311019
0.00313367
0.00315715
0.00318062
0.00320408
0.00322754
0.00325099
0.00327444
0.00329788
0.00332131
0.00334474
0.00336816
0.00339157
0.00341497
0.00343837
0.00346177
0.00348515
0.00350853
0.0035319
0.00355526
0.00357862
0.00360197
0.00362531
0.00364865
0.00367197
0.00369529
0.00371861
0.00374191
0.00376521
0.0037885
0.00381178
0.00383505
0.00385832
0.00388157
0.00390482
0.00392806
0.0039513
0.00397452
0.00399774
0.00402094
0.00404414
0.00406733
0.00409052
0.00411369
0.00413685
0.00416001
0.00418316
0.0042063
0.00422942
0.00425254
0.00427565
0.00429876
0.00432185
0.00434493
0.004368
0.00439107
0.00441412
0.00443717
0.0044602
0.00448322
0.00450624
0.00452924
0.00455224
0.00457522
0.0045982
0.00462116
0.00464411
0.00466706
0.00468999
0.00471291
0.00473582
0.00475872
0.00478161
0.00480449
0.00482736
0.00485021
0.00487306
0.00489589
0.00491872
0.00494153
0.00496432
0.00498711
0.00500989
0.00503265
0.0050554
0.00507814
0.00510087
0.00512359
0.00514629
0.00516898
0.00519166
0.00521433
0.00523698
0.00525962
0.00528225
0.00530486
0.00532747
0.00535005
0.00537263
0.00539519
0.00541774
0.00544027
0.0054628
0.0054853
0.0055078
0.00553028
0.00555274
0.00557519
0.00559763
0.00562005
0.00564246
0.00566485
0.00568723
0.0057096
0.00573195
0.00575428
0.0057766
0.0057989
0.00582119
0.00584346
0.00586572
0.00588796
0.00591019
0.00593239
0.00595459
0.00597676
0.00599892
0.00602107
0.00604319
0.0060653
0.0060874
0.00610947
0.00613153
0.00615357
0.0061756
0.00619761
0.00621959
0.00624157
0.00626352
0.00628545
0.00630737
0.00632927
0.00635115
0.00637301
0.00639485
0.00641667
0.00643848
0.00646026
0.00648203
0.00650377
0.0065255
0.0065472
0.00656889
0.00659055
0.0066122
0.00663382
0.00665543
0.00667701
0.00669857
0.00672011
0.00674163
0.00676312
0.0067846
0.00680605
0.00682748
0.00684889
0.00687028
0.00689164
0.00691298
0.0069343
0.00695559
0.00697686
0.00699811
0.00701933
0.00704053
0.0070617
0.00708285
0.00710397
0.00712507
0.00714615
0.0071672
0.00718822
0.00720922
0.00723019
0.00725113
0.00727205
0.00729294
0.00731381
0.00733464
0.00735545
0.00737623
0.00739699
0.00741771
0.00743841
0.00745908
0.00747972
0.00750033
0.00752091
0.00754146
0.00756198
0.00758247
0.00760293
0.00762336
0.00764375
0.00766412
0.00768445
0.00770475
0.00772502
0.00774526
0.00776546
0.00778563
0.00780576
0.00782586
0.00784593
0.00786596
0.00788596
0.00790592
0.00792584
0.00794573
0.00796559
0.0079854
0.00800518
0.00802492
0.00804462
0.00806429
0.00808391
0.0081035
0.00812304
0.00814255
0.00816201
0.00818144
0.00820082
0.00822016
0.00823946
0.00825871
0.00827793
0.00829709
0.00831622
0.0083353
0.00835433
0.00837332
0.00839226
0.00841116
0.00843
0.0084488
0.00846755
0.00848626
0.00850491
0.00852351
0.00854206
0.00856056
0.00857901
0.0085974
0.00861575
0.00863403
0.00865227
0.00867044
0.00868857
0.00870663
0.00872464
0.00874259
0.00876048
0.00877831
0.00879608
0.00881378
0.00883142
0.00884932
0.00885649
0.00690675
6.48608e-06
-0.00689979
-0.00885603
-0.00884932
-0.0088314
-0.00881376
-0.00879605
-0.00877828
-0.00876045
-0.00874256
-0.00872461
-0.00870661
-0.00868854
-0.00867042
-0.00865224
-0.00863401
-0.00861572
-0.00859738
-0.00857899
-0.00856054
-0.00854204
-0.00852349
-0.00850489
-0.00848623
-0.00846753
-0.00844878
-0.00842998
-0.00841113
-0.00839224
-0.0083733
-0.00835431
-0.00833527
-0.00831619
-0.00829707
-0.0082779
-0.00825869
-0.00823943
-0.00822014
-0.0082008
-0.00818141
-0.00816199
-0.00814252
-0.00812302
-0.00810347
-0.00808389
-0.00806426
-0.0080446
-0.0080249
-0.00800516
-0.00798538
-0.00796556
-0.00794571
-0.00792582
-0.0079059
-0.00788593
-0.00786594
-0.00784591
-0.00782584
-0.00780574
-0.0077856
-0.00776543
-0.00774523
-0.007725
-0.00770473
-0.00768443
-0.00766409
-0.00764373
-0.00762333
-0.0076029
-0.00758244
-0.00756195
-0.00754143
-0.00752088
-0.0075003
-0.00747969
-0.00745906
-0.00743839
-0.00741769
-0.00739696
-0.00737621
-0.00735543
-0.00733462
-0.00731378
-0.00729292
-0.00727203
-0.00725111
-0.00723016
-0.00720919
-0.0071882
-0.00716717
-0.00714612
-0.00712505
-0.00710395
-0.00708283
-0.00706168
-0.0070405
-0.00701931
-0.00699808
-0.00697684
-0.00695557
-0.00693427
-0.00691296
-0.00689162
-0.00687025
-0.00684887
-0.00682746
-0.00680603
-0.00678458
-0.0067631
-0.00674161
-0.00672009
-0.00669855
-0.00667699
-0.0066554
-0.0066338
-0.00661218
-0.00659053
-0.00656887
-0.00654718
-0.00652548
-0.00650375
-0.00648201
-0.00646024
-0.00643846
-0.00641665
-0.00639483
-0.00637299
-0.00635113
-0.00632925
-0.00630735
-0.00628543
-0.0062635
-0.00624155
-0.00621958
-0.00619759
-0.00617558
-0.00615356
-0.00613151
-0.00610946
-0.00608738
-0.00606529
-0.00604318
-0.00602105
-0.00599891
-0.00597675
-0.00595457
-0.00593238
-0.00591017
-0.00588794
-0.0058657
-0.00584344
-0.00582117
-0.00579888
-0.00577658
-0.00575426
-0.00573193
-0.00570958
-0.00568722
-0.00566484
-0.00564244
-0.00562004
-0.00559761
-0.00557518
-0.00555273
-0.00553026
-0.00550778
-0.00548529
-0.00546278
-0.00544026
-0.00541772
-0.00539518
-0.00537261
-0.00535004
-0.00532745
-0.00530485
-0.00528223
-0.00525961
-0.00523697
-0.00521431
-0.00519165
-0.00516897
-0.00514628
-0.00512357
-0.00510086
-0.00507813
-0.00505539
-0.00503264
-0.00500987
-0.0049871
-0.00496431
-0.00494151
-0.0049187
-0.00489588
-0.00487305
-0.0048502
-0.00482734
-0.00480448
-0.0047816
-0.00475871
-0.00473581
-0.0047129
-0.00468998
-0.00466705
-0.0046441
-0.00462115
-0.00459819
-0.00457521
-0.00455223
-0.00452923
-0.00450623
-0.00448321
-0.00446019
-0.00443715
-0.00441411
-0.00439106
-0.00436799
-0.00434492
-0.00432184
-0.00429875
-0.00427564
-0.00425253
-0.00422941
-0.00420629
-0.00418315
-0.00416
-0.00413684
-0.00411368
-0.00409051
-0.00406733
-0.00404413
-0.00402094
-0.00399773
-0.00397451
-0.00395129
-0.00392805
-0.00390481
-0.00388156
-0.00385831
-0.00383504
-0.00381177
-0.00378849
-0.0037652
-0.0037419
-0.0037186
-0.00369529
-0.00367197
-0.00364864
-0.0036253
-0.00360196
-0.00357861
-0.00355526
-0.00353189
-0.00350852
-0.00348514
-0.00346176
-0.00343837
-0.00341497
-0.00339156
-0.00336815
-0.00334473
-0.0033213
-0.00329787
-0.00327443
-0.00325099
-0.00322754
-0.00320408
-0.00318061
-0.00315714
-0.00313367
-0.00311018
-0.00308669
-0.0030632
-0.0030397
-0.00301619
-0.00299268
-0.00296916
-0.00294563
-0.0029221
-0.00289857
-0.00287502
-0.00285148
-0.00282792
-0.00280437
-0.0027808
-0.00275723
-0.00273366
-0.00271008
-0.0026865
-0.00266291
-0.00263931
-0.00261571
-0.00259211
-0.0025685
-0.00254488
-0.00252126
-0.00249764
-0.00247401
-0.00245038
-0.00242674
-0.0024031
-0.00237945
-0.0023558
-0.00233214
-0.00230848
-0.00228482
-0.00226115
-0.00223748
-0.0022138
-0.00219012
-0.00216643
-0.00214274
-0.00211905
-0.00209535
-0.00207165
-0.00204795
-0.00202424
-0.00200053
-0.00197681
-0.00195309
-0.00192937
-0.00190564
-0.00188191
-0.00185818
-0.00183444
-0.0018107
-0.00178695
-0.00176321
-0.00173946
-0.0017157
-0.00169195
-0.00166819
-0.00164442
-0.00162066
-0.00159689
-0.00157312
-0.00154934
-0.00152557
-0.00150179
-0.001478
-0.00145422
-0.00143043
-0.00140664
-0.00138285
-0.00135905
-0.00133525
-0.00131145
-0.00128765
-0.00126384
-0.00124004
-0.00121623
-0.00119242
-0.0011686
-0.00114479
-0.00112097
-0.00109715
-0.00107332
-0.0010495
-0.00102567
-0.00100185
-0.000978018
-0.000954187
-0.000930354
-0.000906519
-0.000882683
-0.000858845
-0.000835006
-0.000811165
-0.000787323
-0.000763479
-0.000739634
-0.000715788
-0.000691941
-0.000668092
-0.000644242
-0.000620391
-0.000596538
-0.000572685
-0.000548831
-0.000524976
-0.00050112
-0.000477262
-0.000453405
-0.000429546
-0.000405686
-0.000381826
-0.000357965
-0.000334104
-0.000310242
-0.000286379
-0.000262516
-0.000238652
-0.000214788
-0.000190924
-0.000167059
-0.000143194
-0.000119329
-9.54633e-05
-7.15976e-05
-4.77318e-05
-2.38659e-05
)
;

boundaryField
{
    left
    {
        type            calculated;
        value           uniform 0;
    }
    right
    {
        type            calculated;
        value           uniform 0;
    }
    frontBackUpDown
    {
        type            empty;
    }
}


// ************************************************************************* //
