/*--------------------------------*- C++ -*----------------------------------*\
| =========                 |                                                 |
| \\      /  F ield         | OpenFOAM: The Open Source CFD Toolbox           |
|  \\    /   O peration     | Version:  2412                                  |
|   \\  /    A nd           | Website:  www.openfoam.com                      |
|    \\/     M anipulation  |                                                 |
\*---------------------------------------------------------------------------*/
FoamFile
{
    version     2.0;
    format      ascii;
    arch        "LSB;label=32;scalar=64";
    class       volVectorField;
    location    "0.73";
    object      U;
}
// * * * * * * * * * * * * * * * * * * * * * * * * * * * * * * * * * * * * * //

dimensions      [0 1 -1 0 0 0 0];

internalField   nonuniform List<vector> 
800
(
(0.00119329 0 0)
(0.00357988 0 0)
(0.00596646 0 0)
(0.00835304 0 0)
(0.0107396 0 0)
(0.0131261 0 0)
(0.0155127 0 0)
(0.0178992 0 0)
(0.0202856 0 0)
(0.022672 0 0)
(0.0250584 0 0)
(0.0274448 0 0)
(0.0298311 0 0)
(0.0322173 0 0)
(0.0346035 0 0)
(0.0369896 0 0)
(0.0393756 0 0)
(0.0417616 0 0)
(0.0441475 0 0)
(0.0465334 0 0)
(0.0489191 0 0)
(0.0513048 0 0)
(0.0536904 0 0)
(0.0560759 0 0)
(0.0584612 0 0)
(0.0608465 0 0)
(0.0632317 0 0)
(0.0656167 0 0)
(0.0680017 0 0)
(0.0703865 0 0)
(0.0727712 0 0)
(0.0751558 0 0)
(0.0775402 0 0)
(0.0799245 0 0)
(0.0823086 0 0)
(0.0846926 0 0)
(0.0870765 0 0)
(0.0894602 0 0)
(0.0918437 0 0)
(0.0942271 0 0)
(0.0966103 0 0)
(0.0989934 0 0)
(0.101376 0 0)
(0.103759 0 0)
(0.106141 0 0)
(0.108524 0 0)
(0.110906 0 0)
(0.113288 0 0)
(0.115669 0 0)
(0.118051 0 0)
(0.120432 0 0)
(0.122813 0 0)
(0.125194 0 0)
(0.127575 0 0)
(0.129955 0 0)
(0.132335 0 0)
(0.134715 0 0)
(0.137095 0 0)
(0.139474 0 0)
(0.141854 0 0)
(0.144233 0 0)
(0.146611 0 0)
(0.14899 0 0)
(0.151368 0 0)
(0.153746 0 0)
(0.156123 0 0)
(0.158501 0 0)
(0.160878 0 0)
(0.163254 0 0)
(0.165631 0 0)
(0.168007 0 0)
(0.170383 0 0)
(0.172758 0 0)
(0.175133 0 0)
(0.177508 0 0)
(0.179883 0 0)
(0.182257 0 0)
(0.184631 0 0)
(0.187005 0 0)
(0.189378 0 0)
(0.191751 0 0)
(0.194123 0 0)
(0.196495 0 0)
(0.198867 0 0)
(0.201239 0 0)
(0.20361 0 0)
(0.20598 0 0)
(0.208351 0 0)
(0.210721 0 0)
(0.21309 0 0)
(0.215459 0 0)
(0.217828 0 0)
(0.220196 0 0)
(0.222564 0 0)
(0.224932 0 0)
(0.227299 0 0)
(0.229666 0 0)
(0.232032 0 0)
(0.234398 0 0)
(0.236763 0 0)
(0.239128 0 0)
(0.241492 0 0)
(0.243856 0 0)
(0.24622 0 0)
(0.248583 0 0)
(0.250946 0 0)
(0.253308 0 0)
(0.25567 0 0)
(0.258031 0 0)
(0.260392 0 0)
(0.262752 0 0)
(0.265112 0 0)
(0.267471 0 0)
(0.269829 0 0)
(0.272188 0 0)
(0.274545 0 0)
(0.276902 0 0)
(0.279259 0 0)
(0.281615 0 0)
(0.283971 0 0)
(0.286326 0 0)
(0.28868 0 0)
(0.291034 0 0)
(0.293387 0 0)
(0.29574 0 0)
(0.298092 0 0)
(0.300444 0 0)
(0.302795 0 0)
(0.305145 0 0)
(0.307495 0 0)
(0.309844 0 0)
(0.312193 0 0)
(0.314541 0 0)
(0.316889 0 0)
(0.319235 0 0)
(0.321581 0 0)
(0.323927 0 0)
(0.326272 0 0)
(0.328616 0 0)
(0.33096 0 0)
(0.333303 0 0)
(0.335645 0 0)
(0.337986 0 0)
(0.340327 0 0)
(0.342668 0 0)
(0.345007 0 0)
(0.347346 0 0)
(0.349684 0 0)
(0.352022 0 0)
(0.354358 0 0)
(0.356694 0 0)
(0.35903 0 0)
(0.361364 0 0)
(0.363698 0 0)
(0.366031 0 0)
(0.368364 0 0)
(0.370695 0 0)
(0.373026 0 0)
(0.375356 0 0)
(0.377685 0 0)
(0.380014 0 0)
(0.382342 0 0)
(0.384668 0 0)
(0.386995 0 0)
(0.38932 0 0)
(0.391644 0 0)
(0.393968 0 0)
(0.396291 0 0)
(0.398613 0 0)
(0.400934 0 0)
(0.403255 0 0)
(0.405574 0 0)
(0.407893 0 0)
(0.410211 0 0)
(0.412527 0 0)
(0.414843 0 0)
(0.417159 0 0)
(0.419473 0 0)
(0.421786 0 0)
(0.424099 0 0)
(0.42641 0 0)
(0.428721 0 0)
(0.43103 0 0)
(0.433339 0 0)
(0.435647 0 0)
(0.437954 0 0)
(0.44026 0 0)
(0.442565 0 0)
(0.444869 0 0)
(0.447171 0 0)
(0.449473 0 0)
(0.451774 0 0)
(0.454074 0 0)
(0.456373 0 0)
(0.458671 0 0)
(0.460968 0 0)
(0.463264 0 0)
(0.465559 0 0)
(0.467853 0 0)
(0.470145 0 0)
(0.472437 0 0)
(0.474728 0 0)
(0.477017 0 0)
(0.479305 0 0)
(0.481593 0 0)
(0.483879 0 0)
(0.486164 0 0)
(0.488448 0 0)
(0.490731 0 0)
(0.493012 0 0)
(0.495293 0 0)
(0.497572 0 0)
(0.49985 0 0)
(0.502127 0 0)
(0.504403 0 0)
(0.506678 0 0)
(0.508951 0 0)
(0.511223 0 0)
(0.513494 0 0)
(0.515764 0 0)
(0.518032 0 0)
(0.5203 0 0)
(0.522566 0 0)
(0.52483 0 0)
(0.527094 0 0)
(0.529356 0 0)
(0.531617 0 0)
(0.533876 0 0)
(0.536134 0 0)
(0.538391 0 0)
(0.540647 0 0)
(0.542901 0 0)
(0.545154 0 0)
(0.547405 0 0)
(0.549655 0 0)
(0.551904 0 0)
(0.554151 0 0)
(0.556397 0 0)
(0.558642 0 0)
(0.560885 0 0)
(0.563126 0 0)
(0.565366 0 0)
(0.567605 0 0)
(0.569842 0 0)
(0.572078 0 0)
(0.574312 0 0)
(0.576544 0 0)
(0.578775 0 0)
(0.581005 0 0)
(0.583233 0 0)
(0.585459 0 0)
(0.587684 0 0)
(0.589908 0 0)
(0.592129 0 0)
(0.594349 0 0)
(0.596568 0 0)
(0.598785 0 0)
(0.601 0 0)
(0.603214 0 0)
(0.605425 0 0)
(0.607636 0 0)
(0.609844 0 0)
(0.612051 0 0)
(0.614256 0 0)
(0.616459 0 0)
(0.618661 0 0)
(0.62086 0 0)
(0.623058 0 0)
(0.625255 0 0)
(0.627449 0 0)
(0.629642 0 0)
(0.631832 0 0)
(0.634021 0 0)
(0.636208 0 0)
(0.638393 0 0)
(0.640577 0 0)
(0.642758 0 0)
(0.644937 0 0)
(0.647115 0 0)
(0.64929 0 0)
(0.651464 0 0)
(0.653636 0 0)
(0.655805 0 0)
(0.657973 0 0)
(0.660138 0 0)
(0.662302 0 0)
(0.664463 0 0)
(0.666622 0 0)
(0.668779 0 0)
(0.670934 0 0)
(0.673087 0 0)
(0.675238 0 0)
(0.677387 0 0)
(0.679533 0 0)
(0.681677 0 0)
(0.683819 0 0)
(0.685959 0 0)
(0.688096 0 0)
(0.690232 0 0)
(0.692364 0 0)
(0.694495 0 0)
(0.696623 0 0)
(0.698749 0 0)
(0.700872 0 0)
(0.702993 0 0)
(0.705112 0 0)
(0.707228 0 0)
(0.709342 0 0)
(0.711453 0 0)
(0.713562 0 0)
(0.715668 0 0)
(0.717771 0 0)
(0.719872 0 0)
(0.721971 0 0)
(0.724067 0 0)
(0.72616 0 0)
(0.72825 0 0)
(0.730338 0 0)
(0.732423 0 0)
(0.734505 0 0)
(0.736585 0 0)
(0.738662 0 0)
(0.740736 0 0)
(0.742807 0 0)
(0.744875 0 0)
(0.746941 0 0)
(0.749003 0 0)
(0.751063 0 0)
(0.753119 0 0)
(0.755173 0 0)
(0.757223 0 0)
(0.759271 0 0)
(0.761315 0 0)
(0.763356 0 0)
(0.765394 0 0)
(0.767429 0 0)
(0.769461 0 0)
(0.771489 0 0)
(0.773515 0 0)
(0.775537 0 0)
(0.777555 0 0)
(0.77957 0 0)
(0.781582 0 0)
(0.783591 0 0)
(0.785595 0 0)
(0.787597 0 0)
(0.789595 0 0)
(0.791589 0 0)
(0.79358 0 0)
(0.795567 0 0)
(0.79755 0 0)
(0.79953 0 0)
(0.801506 0 0)
(0.803478 0 0)
(0.805446 0 0)
(0.807411 0 0)
(0.809371 0 0)
(0.811328 0 0)
(0.813281 0 0)
(0.815229 0 0)
(0.817174 0 0)
(0.819114 0 0)
(0.82105 0 0)
(0.822982 0 0)
(0.82491 0 0)
(0.826833 0 0)
(0.828752 0 0)
(0.830667 0 0)
(0.832577 0 0)
(0.834483 0 0)
(0.836384 0 0)
(0.83828 0 0)
(0.840172 0 0)
(0.842059 0 0)
(0.843942 0 0)
(0.845819 0 0)
(0.847692 0 0)
(0.84956 0 0)
(0.851422 0 0)
(0.85328 0 0)
(0.855133 0 0)
(0.85698 0 0)
(0.858822 0 0)
(0.860659 0 0)
(0.86249 0 0)
(0.864316 0 0)
(0.866137 0 0)
(0.867952 0 0)
(0.869761 0 0)
(0.871565 0 0)
(0.873363 0 0)
(0.875155 0 0)
(0.876941 0 0)
(0.878721 0 0)
(0.880494 0 0)
(0.882262 0 0)
(0.884023 0 0)
(0.885841 0 0)
(0.885457 0 0)
(0.495892 0 0)
(-0.494595 0 0)
(-0.885362 0 0)
(-0.885843 0 0)
(-0.88402 0 0)
(-0.88226 0 0)
(-0.880492 0 0)
(-0.878718 0 0)
(-0.876938 0 0)
(-0.875152 0 0)
(-0.87336 0 0)
(-0.871563 0 0)
(-0.869759 0 0)
(-0.86795 0 0)
(-0.866135 0 0)
(-0.864314 0 0)
(-0.862488 0 0)
(-0.860657 0 0)
(-0.85882 0 0)
(-0.856978 0 0)
(-0.85513 0 0)
(-0.853278 0 0)
(-0.85142 0 0)
(-0.849557 0 0)
(-0.847689 0 0)
(-0.845817 0 0)
(-0.843939 0 0)
(-0.842057 0 0)
(-0.84017 0 0)
(-0.838278 0 0)
(-0.836381 0 0)
(-0.83448 0 0)
(-0.832575 0 0)
(-0.830664 0 0)
(-0.82875 0 0)
(-0.826831 0 0)
(-0.824907 0 0)
(-0.82298 0 0)
(-0.821048 0 0)
(-0.819111 0 0)
(-0.817171 0 0)
(-0.815227 0 0)
(-0.813278 0 0)
(-0.811326 0 0)
(-0.809369 0 0)
(-0.807408 0 0)
(-0.805444 0 0)
(-0.803476 0 0)
(-0.801504 0 0)
(-0.799528 0 0)
(-0.797548 0 0)
(-0.795565 0 0)
(-0.793577 0 0)
(-0.791587 0 0)
(-0.789592 0 0)
(-0.787594 0 0)
(-0.785593 0 0)
(-0.783588 0 0)
(-0.78158 0 0)
(-0.779568 0 0)
(-0.777553 0 0)
(-0.775534 0 0)
(-0.773512 0 0)
(-0.771487 0 0)
(-0.769458 0 0)
(-0.767427 0 0)
(-0.765392 0 0)
(-0.763354 0 0)
(-0.761313 0 0)
(-0.759268 0 0)
(-0.757221 0 0)
(-0.75517 0 0)
(-0.753117 0 0)
(-0.75106 0 0)
(-0.749001 0 0)
(-0.746938 0 0)
(-0.744873 0 0)
(-0.742805 0 0)
(-0.740733 0 0)
(-0.73866 0 0)
(-0.736583 0 0)
(-0.734503 0 0)
(-0.732421 0 0)
(-0.730336 0 0)
(-0.728248 0 0)
(-0.726157 0 0)
(-0.724064 0 0)
(-0.721969 0 0)
(-0.71987 0 0)
(-0.717769 0 0)
(-0.715665 0 0)
(-0.713559 0 0)
(-0.711451 0 0)
(-0.709339 0 0)
(-0.707226 0 0)
(-0.70511 0 0)
(-0.702991 0 0)
(-0.70087 0 0)
(-0.698747 0 0)
(-0.696621 0 0)
(-0.694493 0 0)
(-0.692362 0 0)
(-0.690229 0 0)
(-0.688094 0 0)
(-0.685957 0 0)
(-0.683817 0 0)
(-0.681675 0 0)
(-0.679531 0 0)
(-0.677385 0 0)
(-0.675236 0 0)
(-0.673085 0 0)
(-0.670932 0 0)
(-0.668777 0 0)
(-0.66662 0 0)
(-0.664461 0 0)
(-0.662299 0 0)
(-0.660136 0 0)
(-0.657971 0 0)
(-0.655803 0 0)
(-0.653634 0 0)
(-0.651462 0 0)
(-0.649288 0 0)
(-0.647113 0 0)
(-0.644935 0 0)
(-0.642756 0 0)
(-0.640575 0 0)
(-0.638391 0 0)
(-0.636206 0 0)
(-0.634019 0 0)
(-0.63183 0 0)
(-0.62964 0 0)
(-0.627447 0 0)
(-0.625253 0 0)
(-0.623057 0 0)
(-0.620859 0 0)
(-0.618659 0 0)
(-0.616457 0 0)
(-0.614254 0 0)
(-0.612049 0 0)
(-0.609842 0 0)
(-0.607634 0 0)
(-0.605424 0 0)
(-0.603212 0 0)
(-0.600998 0 0)
(-0.598783 0 0)
(-0.596566 0 0)
(-0.594348 0 0)
(-0.592128 0 0)
(-0.589906 0 0)
(-0.587683 0 0)
(-0.585458 0 0)
(-0.583231 0 0)
(-0.581003 0 0)
(-0.578774 0 0)
(-0.576543 0 0)
(-0.57431 0 0)
(-0.572076 0 0)
(-0.56984 0 0)
(-0.567603 0 0)
(-0.565364 0 0)
(-0.563124 0 0)
(-0.560883 0 0)
(-0.55864 0 0)
(-0.556395 0 0)
(-0.55415 0 0)
(-0.551902 0 0)
(-0.549654 0 0)
(-0.547404 0 0)
(-0.545152 0 0)
(-0.542899 0 0)
(-0.540645 0 0)
(-0.53839 0 0)
(-0.536133 0 0)
(-0.533875 0 0)
(-0.531615 0 0)
(-0.529354 0 0)
(-0.527092 0 0)
(-0.524829 0 0)
(-0.522564 0 0)
(-0.520298 0 0)
(-0.518031 0 0)
(-0.515763 0 0)
(-0.513493 0 0)
(-0.511222 0 0)
(-0.50895 0 0)
(-0.506676 0 0)
(-0.504402 0 0)
(-0.502126 0 0)
(-0.499849 0 0)
(-0.497571 0 0)
(-0.495291 0 0)
(-0.493011 0 0)
(-0.490729 0 0)
(-0.488447 0 0)
(-0.486163 0 0)
(-0.483878 0 0)
(-0.481591 0 0)
(-0.479304 0 0)
(-0.477016 0 0)
(-0.474726 0 0)
(-0.472436 0 0)
(-0.470144 0 0)
(-0.467851 0 0)
(-0.465558 0 0)
(-0.463263 0 0)
(-0.460967 0 0)
(-0.45867 0 0)
(-0.456372 0 0)
(-0.454073 0 0)
(-0.451773 0 0)
(-0.449472 0 0)
(-0.44717 0 0)
(-0.444867 0 0)
(-0.442563 0 0)
(-0.440259 0 0)
(-0.437953 0 0)
(-0.435646 0 0)
(-0.433338 0 0)
(-0.431029 0 0)
(-0.42872 0 0)
(-0.426409 0 0)
(-0.424098 0 0)
(-0.421785 0 0)
(-0.419472 0 0)
(-0.417158 0 0)
(-0.414843 0 0)
(-0.412526 0 0)
(-0.41021 0 0)
(-0.407892 0 0)
(-0.405573 0 0)
(-0.403254 0 0)
(-0.400933 0 0)
(-0.398612 0 0)
(-0.39629 0 0)
(-0.393967 0 0)
(-0.391644 0 0)
(-0.389319 0 0)
(-0.386994 0 0)
(-0.384668 0 0)
(-0.382341 0 0)
(-0.380013 0 0)
(-0.377684 0 0)
(-0.375355 0 0)
(-0.373025 0 0)
(-0.370694 0 0)
(-0.368363 0 0)
(-0.36603 0 0)
(-0.363697 0 0)
(-0.361363 0 0)
(-0.359029 0 0)
(-0.356694 0 0)
(-0.354358 0 0)
(-0.352021 0 0)
(-0.349683 0 0)
(-0.347345 0 0)
(-0.345006 0 0)
(-0.342667 0 0)
(-0.340327 0 0)
(-0.337986 0 0)
(-0.335644 0 0)
(-0.333302 0 0)
(-0.330959 0 0)
(-0.328615 0 0)
(-0.326271 0 0)
(-0.323926 0 0)
(-0.321581 0 0)
(-0.319235 0 0)
(-0.316888 0 0)
(-0.314541 0 0)
(-0.312193 0 0)
(-0.309844 0 0)
(-0.307495 0 0)
(-0.305145 0 0)
(-0.302794 0 0)
(-0.300443 0 0)
(-0.298092 0 0)
(-0.29574 0 0)
(-0.293387 0 0)
(-0.291034 0 0)
(-0.28868 0 0)
(-0.286325 0 0)
(-0.28397 0 0)
(-0.281615 0 0)
(-0.279259 0 0)
(-0.276902 0 0)
(-0.274545 0 0)
(-0.272187 0 0)
(-0.269829 0 0)
(-0.26747 0 0)
(-0.265111 0 0)
(-0.262751 0 0)
(-0.260391 0 0)
(-0.25803 0 0)
(-0.255669 0 0)
(-0.253308 0 0)
(-0.250945 0 0)
(-0.248583 0 0)
(-0.24622 0 0)
(-0.243856 0 0)
(-0.241492 0 0)
(-0.239128 0 0)
(-0.236763 0 0)
(-0.234397 0 0)
(-0.232032 0 0)
(-0.229665 0 0)
(-0.227299 0 0)
(-0.224932 0 0)
(-0.222564 0 0)
(-0.220196 0 0)
(-0.217828 0 0)
(-0.215459 0 0)
(-0.21309 0 0)
(-0.21072 0 0)
(-0.20835 0 0)
(-0.20598 0 0)
(-0.203609 0 0)
(-0.201238 0 0)
(-0.198867 0 0)
(-0.196495 0 0)
(-0.194123 0 0)
(-0.19175 0 0)
(-0.189378 0 0)
(-0.187004 0 0)
(-0.184631 0 0)
(-0.182257 0 0)
(-0.179883 0 0)
(-0.177508 0 0)
(-0.175133 0 0)
(-0.172758 0 0)
(-0.170383 0 0)
(-0.168007 0 0)
(-0.165631 0 0)
(-0.163254 0 0)
(-0.160877 0 0)
(-0.1585 0 0)
(-0.156123 0 0)
(-0.153746 0 0)
(-0.151368 0 0)
(-0.14899 0 0)
(-0.146611 0 0)
(-0.144232 0 0)
(-0.141854 0 0)
(-0.139474 0 0)
(-0.137095 0 0)
(-0.134715 0 0)
(-0.132335 0 0)
(-0.129955 0 0)
(-0.127575 0 0)
(-0.125194 0 0)
(-0.122813 0 0)
(-0.120432 0 0)
(-0.118051 0 0)
(-0.115669 0 0)
(-0.113288 0 0)
(-0.110906 0 0)
(-0.108524 0 0)
(-0.106141 0 0)
(-0.103759 0 0)
(-0.101376 0 0)
(-0.0989933 0 0)
(-0.0966103 0 0)
(-0.0942271 0 0)
(-0.0918437 0 0)
(-0.0894601 0 0)
(-0.0870764 0 0)
(-0.0846926 0 0)
(-0.0823086 0 0)
(-0.0799244 0 0)
(-0.0775401 0 0)
(-0.0751557 0 0)
(-0.0727712 0 0)
(-0.0703865 0 0)
(-0.0680016 0 0)
(-0.0656167 0 0)
(-0.0632317 0 0)
(-0.0608465 0 0)
(-0.0584612 0 0)
(-0.0560758 0 0)
(-0.0536904 0 0)
(-0.0513048 0 0)
(-0.0489191 0 0)
(-0.0465334 0 0)
(-0.0441475 0 0)
(-0.0417616 0 0)
(-0.0393756 0 0)
(-0.0369896 0 0)
(-0.0346035 0 0)
(-0.0322173 0 0)
(-0.0298311 0 0)
(-0.0274448 0 0)
(-0.0250584 0 0)
(-0.022672 0 0)
(-0.0202856 0 0)
(-0.0178992 0 0)
(-0.0155127 0 0)
(-0.0131262 0 0)
(-0.0107396 0 0)
(-0.00835305 0 0)
(-0.00596647 0 0)
(-0.00357989 0 0)
(-0.0011933 0 0)
)
;

boundaryField
{
    left
    {
        type            fixedValue;
        value           uniform (0 0 0);
    }
    right
    {
        type            fixedValue;
        value           uniform (0 0 0);
    }
    frontBackUpDown
    {
        type            empty;
    }
}


// ************************************************************************* //
