/*--------------------------------*- C++ -*----------------------------------*\
| =========                 |                                                 |
| \\      /  F ield         | OpenFOAM: The Open Source CFD Toolbox           |
|  \\    /   O peration     | Version:  2412                                  |
|   \\  /    A nd           | Website:  www.openfoam.com                      |
|    \\/     M anipulation  |                                                 |
\*---------------------------------------------------------------------------*/
FoamFile
{
    version     2.0;
    format      ascii;
    arch        "LSB;label=32;scalar=64";
    class       volVectorField;
    location    "0.73";
    object      U_0;
}
// * * * * * * * * * * * * * * * * * * * * * * * * * * * * * * * * * * * * * //

dimensions      [0 1 -1 0 0 0 0];

internalField   nonuniform List<vector> 
800
(
(0.00119385 0 0)
(0.00358158 0 0)
(0.00596931 0 0)
(0.00835702 0 0)
(0.0107447 0 0)
(0.0131324 0 0)
(0.0155201 0 0)
(0.0179077 0 0)
(0.0202953 0 0)
(0.0226828 0 0)
(0.0250704 0 0)
(0.0274578 0 0)
(0.0298453 0 0)
(0.0322326 0 0)
(0.03462 0 0)
(0.0370072 0 0)
(0.0393944 0 0)
(0.0417815 0 0)
(0.0441686 0 0)
(0.0465556 0 0)
(0.0489424 0 0)
(0.0513292 0 0)
(0.0537159 0 0)
(0.0561026 0 0)
(0.0584891 0 0)
(0.0608755 0 0)
(0.0632618 0 0)
(0.065648 0 0)
(0.0680341 0 0)
(0.07042 0 0)
(0.0728058 0 0)
(0.0751915 0 0)
(0.0775771 0 0)
(0.0799625 0 0)
(0.0823478 0 0)
(0.084733 0 0)
(0.0871179 0 0)
(0.0895028 0 0)
(0.0918875 0 0)
(0.094272 0 0)
(0.0966563 0 0)
(0.0990405 0 0)
(0.101424 0 0)
(0.103808 0 0)
(0.106192 0 0)
(0.108575 0 0)
(0.110959 0 0)
(0.113342 0 0)
(0.115724 0 0)
(0.118107 0 0)
(0.12049 0 0)
(0.122872 0 0)
(0.125254 0 0)
(0.127635 0 0)
(0.130017 0 0)
(0.132398 0 0)
(0.134779 0 0)
(0.13716 0 0)
(0.139541 0 0)
(0.141921 0 0)
(0.144301 0 0)
(0.146681 0 0)
(0.14906 0 0)
(0.15144 0 0)
(0.153819 0 0)
(0.156197 0 0)
(0.158576 0 0)
(0.160954 0 0)
(0.163332 0 0)
(0.165709 0 0)
(0.168087 0 0)
(0.170464 0 0)
(0.17284 0 0)
(0.175217 0 0)
(0.177593 0 0)
(0.179968 0 0)
(0.182344 0 0)
(0.184719 0 0)
(0.187093 0 0)
(0.189468 0 0)
(0.191842 0 0)
(0.194215 0 0)
(0.196588 0 0)
(0.198961 0 0)
(0.201334 0 0)
(0.203706 0 0)
(0.206078 0 0)
(0.208449 0 0)
(0.21082 0 0)
(0.213191 0 0)
(0.215561 0 0)
(0.217931 0 0)
(0.220301 0 0)
(0.22267 0 0)
(0.225038 0 0)
(0.227406 0 0)
(0.229774 0 0)
(0.232141 0 0)
(0.234508 0 0)
(0.236875 0 0)
(0.239241 0 0)
(0.241606 0 0)
(0.243972 0 0)
(0.246336 0 0)
(0.2487 0 0)
(0.251064 0 0)
(0.253427 0 0)
(0.25579 0 0)
(0.258153 0 0)
(0.260514 0 0)
(0.262876 0 0)
(0.265236 0 0)
(0.267597 0 0)
(0.269957 0 0)
(0.272316 0 0)
(0.274675 0 0)
(0.277033 0 0)
(0.279391 0 0)
(0.281748 0 0)
(0.284104 0 0)
(0.28646 0 0)
(0.288816 0 0)
(0.291171 0 0)
(0.293525 0 0)
(0.295879 0 0)
(0.298232 0 0)
(0.300585 0 0)
(0.302937 0 0)
(0.305289 0 0)
(0.30764 0 0)
(0.30999 0 0)
(0.31234 0 0)
(0.314689 0 0)
(0.317037 0 0)
(0.319385 0 0)
(0.321732 0 0)
(0.324079 0 0)
(0.326425 0 0)
(0.32877 0 0)
(0.331115 0 0)
(0.333459 0 0)
(0.335802 0 0)
(0.338144 0 0)
(0.340486 0 0)
(0.342828 0 0)
(0.345168 0 0)
(0.347508 0 0)
(0.349847 0 0)
(0.352186 0 0)
(0.354524 0 0)
(0.356861 0 0)
(0.359197 0 0)
(0.361533 0 0)
(0.363868 0 0)
(0.366202 0 0)
(0.368535 0 0)
(0.370868 0 0)
(0.3732 0 0)
(0.375531 0 0)
(0.377861 0 0)
(0.380191 0 0)
(0.382519 0 0)
(0.384847 0 0)
(0.387174 0 0)
(0.389501 0 0)
(0.391826 0 0)
(0.394151 0 0)
(0.396475 0 0)
(0.398798 0 0)
(0.40112 0 0)
(0.403441 0 0)
(0.405762 0 0)
(0.408082 0 0)
(0.4104 0 0)
(0.412718 0 0)
(0.415035 0 0)
(0.417351 0 0)
(0.419667 0 0)
(0.421981 0 0)
(0.424294 0 0)
(0.426607 0 0)
(0.428919 0 0)
(0.431229 0 0)
(0.433539 0 0)
(0.435848 0 0)
(0.438156 0 0)
(0.440462 0 0)
(0.442768 0 0)
(0.445073 0 0)
(0.447377 0 0)
(0.44968 0 0)
(0.451982 0 0)
(0.454283 0 0)
(0.456583 0 0)
(0.458882 0 0)
(0.46118 0 0)
(0.463476 0 0)
(0.465772 0 0)
(0.468067 0 0)
(0.470361 0 0)
(0.472653 0 0)
(0.474945 0 0)
(0.477235 0 0)
(0.479524 0 0)
(0.481813 0 0)
(0.4841 0 0)
(0.486386 0 0)
(0.488671 0 0)
(0.490954 0 0)
(0.493237 0 0)
(0.495518 0 0)
(0.497799 0 0)
(0.500078 0 0)
(0.502356 0 0)
(0.504632 0 0)
(0.506908 0 0)
(0.509182 0 0)
(0.511455 0 0)
(0.513727 0 0)
(0.515998 0 0)
(0.518267 0 0)
(0.520535 0 0)
(0.522802 0 0)
(0.525068 0 0)
(0.527332 0 0)
(0.529595 0 0)
(0.531857 0 0)
(0.534117 0 0)
(0.536376 0 0)
(0.538634 0 0)
(0.54089 0 0)
(0.543145 0 0)
(0.545399 0 0)
(0.547651 0 0)
(0.549902 0 0)
(0.552152 0 0)
(0.5544 0 0)
(0.556647 0 0)
(0.558892 0 0)
(0.561136 0 0)
(0.563378 0 0)
(0.565619 0 0)
(0.567858 0 0)
(0.570096 0 0)
(0.572333 0 0)
(0.574568 0 0)
(0.576801 0 0)
(0.579033 0 0)
(0.581264 0 0)
(0.583493 0 0)
(0.58572 0 0)
(0.587945 0 0)
(0.59017 0 0)
(0.592392 0 0)
(0.594613 0 0)
(0.596832 0 0)
(0.59905 0 0)
(0.601266 0 0)
(0.60348 0 0)
(0.605693 0 0)
(0.607904 0 0)
(0.610113 0 0)
(0.612321 0 0)
(0.614526 0 0)
(0.61673 0 0)
(0.618933 0 0)
(0.621133 0 0)
(0.623332 0 0)
(0.625529 0 0)
(0.627724 0 0)
(0.629917 0 0)
(0.632109 0 0)
(0.634298 0 0)
(0.636486 0 0)
(0.638672 0 0)
(0.640856 0 0)
(0.643038 0 0)
(0.645218 0 0)
(0.647396 0 0)
(0.649573 0 0)
(0.651747 0 0)
(0.653919 0 0)
(0.656089 0 0)
(0.658257 0 0)
(0.660424 0 0)
(0.662588 0 0)
(0.66475 0 0)
(0.66691 0 0)
(0.669068 0 0)
(0.671223 0 0)
(0.673377 0 0)
(0.675528 0 0)
(0.677677 0 0)
(0.679824 0 0)
(0.681969 0 0)
(0.684112 0 0)
(0.686252 0 0)
(0.68839 0 0)
(0.690526 0 0)
(0.692659 0 0)
(0.69479 0 0)
(0.696919 0 0)
(0.699045 0 0)
(0.701169 0 0)
(0.703291 0 0)
(0.70541 0 0)
(0.707527 0 0)
(0.709641 0 0)
(0.711753 0 0)
(0.713862 0 0)
(0.715969 0 0)
(0.718073 0 0)
(0.720174 0 0)
(0.722273 0 0)
(0.72437 0 0)
(0.726463 0 0)
(0.728554 0 0)
(0.730643 0 0)
(0.732728 0 0)
(0.734811 0 0)
(0.736891 0 0)
(0.738968 0 0)
(0.741043 0 0)
(0.743114 0 0)
(0.745183 0 0)
(0.747249 0 0)
(0.749312 0 0)
(0.751371 0 0)
(0.753428 0 0)
(0.755482 0 0)
(0.757533 0 0)
(0.759581 0 0)
(0.761626 0 0)
(0.763667 0 0)
(0.765706 0 0)
(0.767741 0 0)
(0.769773 0 0)
(0.771802 0 0)
(0.773827 0 0)
(0.77585 0 0)
(0.777868 0 0)
(0.779884 0 0)
(0.781896 0 0)
(0.783905 0 0)
(0.78591 0 0)
(0.787912 0 0)
(0.78991 0 0)
(0.791904 0 0)
(0.793895 0 0)
(0.795883 0 0)
(0.797866 0 0)
(0.799846 0 0)
(0.801822 0 0)
(0.803795 0 0)
(0.805763 0 0)
(0.807728 0 0)
(0.809688 0 0)
(0.811645 0 0)
(0.813598 0 0)
(0.815546 0 0)
(0.817491 0 0)
(0.819431 0 0)
(0.821367 0 0)
(0.823299 0 0)
(0.825227 0 0)
(0.827151 0 0)
(0.82907 0 0)
(0.830984 0 0)
(0.832894 0 0)
(0.8348 0 0)
(0.836701 0 0)
(0.838598 0 0)
(0.840489 0 0)
(0.842376 0 0)
(0.844259 0 0)
(0.846136 0 0)
(0.848009 0 0)
(0.849876 0 0)
(0.851739 0 0)
(0.853596 0 0)
(0.855449 0 0)
(0.857296 0 0)
(0.859138 0 0)
(0.860974 0 0)
(0.862806 0 0)
(0.864631 0 0)
(0.866452 0 0)
(0.868266 0 0)
(0.870075 0 0)
(0.871879 0 0)
(0.873676 0 0)
(0.875468 0 0)
(0.877253 0 0)
(0.879033 0 0)
(0.880806 0 0)
(0.882573 0 0)
(0.884334 0 0)
(0.886147 0 0)
(0.885851 0 0)
(0.496237 0 0)
(-0.49494 0 0)
(-0.885756 0 0)
(-0.886149 0 0)
(-0.884331 0 0)
(-0.882571 0 0)
(-0.880804 0 0)
(-0.879031 0 0)
(-0.877251 0 0)
(-0.875465 0 0)
(-0.873674 0 0)
(-0.871876 0 0)
(-0.870073 0 0)
(-0.868264 0 0)
(-0.866449 0 0)
(-0.864629 0 0)
(-0.862803 0 0)
(-0.860972 0 0)
(-0.859136 0 0)
(-0.857294 0 0)
(-0.855446 0 0)
(-0.853594 0 0)
(-0.851737 0 0)
(-0.849874 0 0)
(-0.848006 0 0)
(-0.846134 0 0)
(-0.844256 0 0)
(-0.842374 0 0)
(-0.840487 0 0)
(-0.838595 0 0)
(-0.836699 0 0)
(-0.834798 0 0)
(-0.832892 0 0)
(-0.830982 0 0)
(-0.829067 0 0)
(-0.827148 0 0)
(-0.825225 0 0)
(-0.823297 0 0)
(-0.821365 0 0)
(-0.819429 0 0)
(-0.817488 0 0)
(-0.815544 0 0)
(-0.813595 0 0)
(-0.811643 0 0)
(-0.809686 0 0)
(-0.807725 0 0)
(-0.805761 0 0)
(-0.803792 0 0)
(-0.80182 0 0)
(-0.799844 0 0)
(-0.797864 0 0)
(-0.79588 0 0)
(-0.793893 0 0)
(-0.791902 0 0)
(-0.789907 0 0)
(-0.787909 0 0)
(-0.785908 0 0)
(-0.783902 0 0)
(-0.781894 0 0)
(-0.779882 0 0)
(-0.777866 0 0)
(-0.775847 0 0)
(-0.773825 0 0)
(-0.771799 0 0)
(-0.769771 0 0)
(-0.767739 0 0)
(-0.765703 0 0)
(-0.763665 0 0)
(-0.761623 0 0)
(-0.759579 0 0)
(-0.757531 0 0)
(-0.75548 0 0)
(-0.753426 0 0)
(-0.751369 0 0)
(-0.749309 0 0)
(-0.747246 0 0)
(-0.74518 0 0)
(-0.743112 0 0)
(-0.74104 0 0)
(-0.738966 0 0)
(-0.736889 0 0)
(-0.734809 0 0)
(-0.732726 0 0)
(-0.73064 0 0)
(-0.728552 0 0)
(-0.726461 0 0)
(-0.724367 0 0)
(-0.722271 0 0)
(-0.720172 0 0)
(-0.718071 0 0)
(-0.715966 0 0)
(-0.71386 0 0)
(-0.711751 0 0)
(-0.709639 0 0)
(-0.707525 0 0)
(-0.705408 0 0)
(-0.703289 0 0)
(-0.701167 0 0)
(-0.699043 0 0)
(-0.696917 0 0)
(-0.694788 0 0)
(-0.692657 0 0)
(-0.690524 0 0)
(-0.688388 0 0)
(-0.68625 0 0)
(-0.68411 0 0)
(-0.681967 0 0)
(-0.679822 0 0)
(-0.677675 0 0)
(-0.675526 0 0)
(-0.673375 0 0)
(-0.671221 0 0)
(-0.669065 0 0)
(-0.666908 0 0)
(-0.664748 0 0)
(-0.662586 0 0)
(-0.660422 0 0)
(-0.658255 0 0)
(-0.656087 0 0)
(-0.653917 0 0)
(-0.651745 0 0)
(-0.649571 0 0)
(-0.647394 0 0)
(-0.645216 0 0)
(-0.643036 0 0)
(-0.640854 0 0)
(-0.63867 0 0)
(-0.636484 0 0)
(-0.634296 0 0)
(-0.632107 0 0)
(-0.629915 0 0)
(-0.627722 0 0)
(-0.625527 0 0)
(-0.62333 0 0)
(-0.621131 0 0)
(-0.618931 0 0)
(-0.616728 0 0)
(-0.614524 0 0)
(-0.612319 0 0)
(-0.610111 0 0)
(-0.607902 0 0)
(-0.605691 0 0)
(-0.603478 0 0)
(-0.601264 0 0)
(-0.599048 0 0)
(-0.59683 0 0)
(-0.594611 0 0)
(-0.59239 0 0)
(-0.590168 0 0)
(-0.587944 0 0)
(-0.585718 0 0)
(-0.583491 0 0)
(-0.581262 0 0)
(-0.579032 0 0)
(-0.5768 0 0)
(-0.574566 0 0)
(-0.572331 0 0)
(-0.570095 0 0)
(-0.567857 0 0)
(-0.565617 0 0)
(-0.563376 0 0)
(-0.561134 0 0)
(-0.55889 0 0)
(-0.556645 0 0)
(-0.554398 0 0)
(-0.55215 0 0)
(-0.549901 0 0)
(-0.54765 0 0)
(-0.545397 0 0)
(-0.543144 0 0)
(-0.540889 0 0)
(-0.538632 0 0)
(-0.536375 0 0)
(-0.534116 0 0)
(-0.531855 0 0)
(-0.529594 0 0)
(-0.527331 0 0)
(-0.525066 0 0)
(-0.522801 0 0)
(-0.520534 0 0)
(-0.518266 0 0)
(-0.515996 0 0)
(-0.513726 0 0)
(-0.511454 0 0)
(-0.509181 0 0)
(-0.506906 0 0)
(-0.504631 0 0)
(-0.502354 0 0)
(-0.500076 0 0)
(-0.497797 0 0)
(-0.495517 0 0)
(-0.493236 0 0)
(-0.490953 0 0)
(-0.488669 0 0)
(-0.486384 0 0)
(-0.484098 0 0)
(-0.481811 0 0)
(-0.479523 0 0)
(-0.477234 0 0)
(-0.474943 0 0)
(-0.472652 0 0)
(-0.470359 0 0)
(-0.468066 0 0)
(-0.465771 0 0)
(-0.463475 0 0)
(-0.461178 0 0)
(-0.458881 0 0)
(-0.456582 0 0)
(-0.454282 0 0)
(-0.451981 0 0)
(-0.449679 0 0)
(-0.447376 0 0)
(-0.445072 0 0)
(-0.442767 0 0)
(-0.440461 0 0)
(-0.438154 0 0)
(-0.435847 0 0)
(-0.433538 0 0)
(-0.431228 0 0)
(-0.428918 0 0)
(-0.426606 0 0)
(-0.424293 0 0)
(-0.42198 0 0)
(-0.419666 0 0)
(-0.41735 0 0)
(-0.415034 0 0)
(-0.412717 0 0)
(-0.410399 0 0)
(-0.408081 0 0)
(-0.405761 0 0)
(-0.403441 0 0)
(-0.401119 0 0)
(-0.398797 0 0)
(-0.396474 0 0)
(-0.39415 0 0)
(-0.391825 0 0)
(-0.3895 0 0)
(-0.387173 0 0)
(-0.384846 0 0)
(-0.382518 0 0)
(-0.38019 0 0)
(-0.37786 0 0)
(-0.37553 0 0)
(-0.373199 0 0)
(-0.370867 0 0)
(-0.368534 0 0)
(-0.366201 0 0)
(-0.363867 0 0)
(-0.361532 0 0)
(-0.359196 0 0)
(-0.35686 0 0)
(-0.354523 0 0)
(-0.352185 0 0)
(-0.349847 0 0)
(-0.347508 0 0)
(-0.345168 0 0)
(-0.342827 0 0)
(-0.340486 0 0)
(-0.338144 0 0)
(-0.335801 0 0)
(-0.333458 0 0)
(-0.331114 0 0)
(-0.328769 0 0)
(-0.326424 0 0)
(-0.324078 0 0)
(-0.321732 0 0)
(-0.319384 0 0)
(-0.317036 0 0)
(-0.314688 0 0)
(-0.312339 0 0)
(-0.309989 0 0)
(-0.307639 0 0)
(-0.305288 0 0)
(-0.302937 0 0)
(-0.300584 0 0)
(-0.298232 0 0)
(-0.295879 0 0)
(-0.293525 0 0)
(-0.29117 0 0)
(-0.288815 0 0)
(-0.28646 0 0)
(-0.284104 0 0)
(-0.281747 0 0)
(-0.27939 0 0)
(-0.277032 0 0)
(-0.274674 0 0)
(-0.272315 0 0)
(-0.269956 0 0)
(-0.267596 0 0)
(-0.265236 0 0)
(-0.262875 0 0)
(-0.260514 0 0)
(-0.258152 0 0)
(-0.25579 0 0)
(-0.253427 0 0)
(-0.251064 0 0)
(-0.2487 0 0)
(-0.246336 0 0)
(-0.243971 0 0)
(-0.241606 0 0)
(-0.239241 0 0)
(-0.236875 0 0)
(-0.234508 0 0)
(-0.232141 0 0)
(-0.229774 0 0)
(-0.227406 0 0)
(-0.225038 0 0)
(-0.222669 0 0)
(-0.2203 0 0)
(-0.217931 0 0)
(-0.215561 0 0)
(-0.213191 0 0)
(-0.21082 0 0)
(-0.208449 0 0)
(-0.206078 0 0)
(-0.203706 0 0)
(-0.201334 0 0)
(-0.198961 0 0)
(-0.196588 0 0)
(-0.194215 0 0)
(-0.191841 0 0)
(-0.189467 0 0)
(-0.187093 0 0)
(-0.184718 0 0)
(-0.182343 0 0)
(-0.179968 0 0)
(-0.177592 0 0)
(-0.175216 0 0)
(-0.17284 0 0)
(-0.170463 0 0)
(-0.168086 0 0)
(-0.165709 0 0)
(-0.163332 0 0)
(-0.160954 0 0)
(-0.158576 0 0)
(-0.156197 0 0)
(-0.153819 0 0)
(-0.15144 0 0)
(-0.14906 0 0)
(-0.146681 0 0)
(-0.144301 0 0)
(-0.141921 0 0)
(-0.139541 0 0)
(-0.13716 0 0)
(-0.134779 0 0)
(-0.132398 0 0)
(-0.130017 0 0)
(-0.127635 0 0)
(-0.125254 0 0)
(-0.122872 0 0)
(-0.120489 0 0)
(-0.118107 0 0)
(-0.115724 0 0)
(-0.113342 0 0)
(-0.110958 0 0)
(-0.108575 0 0)
(-0.106192 0 0)
(-0.103808 0 0)
(-0.101424 0 0)
(-0.0990404 0 0)
(-0.0966562 0 0)
(-0.0942719 0 0)
(-0.0918874 0 0)
(-0.0895027 0 0)
(-0.0871179 0 0)
(-0.0847329 0 0)
(-0.0823478 0 0)
(-0.0799625 0 0)
(-0.0775771 0 0)
(-0.0751915 0 0)
(-0.0728058 0 0)
(-0.07042 0 0)
(-0.068034 0 0)
(-0.065648 0 0)
(-0.0632618 0 0)
(-0.0608755 0 0)
(-0.0584891 0 0)
(-0.0561025 0 0)
(-0.0537159 0 0)
(-0.0513292 0 0)
(-0.0489424 0 0)
(-0.0465555 0 0)
(-0.0441686 0 0)
(-0.0417815 0 0)
(-0.0393944 0 0)
(-0.0370072 0 0)
(-0.03462 0 0)
(-0.0322326 0 0)
(-0.0298453 0 0)
(-0.0274578 0 0)
(-0.0250704 0 0)
(-0.0226828 0 0)
(-0.0202953 0 0)
(-0.0179077 0 0)
(-0.0155201 0 0)
(-0.0131324 0 0)
(-0.0107447 0 0)
(-0.00835703 0 0)
(-0.00596932 0 0)
(-0.00358159 0 0)
(-0.00119387 0 0)
)
;

boundaryField
{
    left
    {
        type            fixedValue;
        value           uniform (0 0 0);
    }
    right
    {
        type            fixedValue;
        value           uniform (0 0 0);
    }
    frontBackUpDown
    {
        type            empty;
    }
}


// ************************************************************************* //
