/*--------------------------------*- C++ -*----------------------------------*\
| =========                 |                                                 |
| \\      /  F ield         | OpenFOAM: The Open Source CFD Toolbox           |
|  \\    /   O peration     | Version:  2412                                  |
|   \\  /    A nd           | Website:  www.openfoam.com                      |
|    \\/     M anipulation  |                                                 |
\*---------------------------------------------------------------------------*/
FoamFile
{
    version     2.0;
    format      ascii;
    arch        "LSB;label=32;scalar=64";
    class       volVectorField;
    location    "0.73";
    object      U_0_0;
}
// * * * * * * * * * * * * * * * * * * * * * * * * * * * * * * * * * * * * * //

dimensions      [0 1 -1 0 0 0 0];

internalField   nonuniform List<vector> 
800
(
(0.00119442 0 0)
(0.00358329 0 0)
(0.00597215 0 0)
(0.008361 0 0)
(0.0107498 0 0)
(0.0131387 0 0)
(0.0155275 0 0)
(0.0179162 0 0)
(0.020305 0 0)
(0.0226937 0 0)
(0.0250823 0 0)
(0.0274709 0 0)
(0.0298595 0 0)
(0.032248 0 0)
(0.0346365 0 0)
(0.0370249 0 0)
(0.0394132 0 0)
(0.0418014 0 0)
(0.0441896 0 0)
(0.0465777 0 0)
(0.0489658 0 0)
(0.0513537 0 0)
(0.0537415 0 0)
(0.0561293 0 0)
(0.058517 0 0)
(0.0609045 0 0)
(0.0632919 0 0)
(0.0656793 0 0)
(0.0680665 0 0)
(0.0704536 0 0)
(0.0728405 0 0)
(0.0752274 0 0)
(0.0776141 0 0)
(0.0800006 0 0)
(0.082387 0 0)
(0.0847733 0 0)
(0.0871594 0 0)
(0.0895454 0 0)
(0.0919312 0 0)
(0.0943168 0 0)
(0.0967023 0 0)
(0.0990876 0 0)
(0.101473 0 0)
(0.103858 0 0)
(0.106242 0 0)
(0.108627 0 0)
(0.111011 0 0)
(0.113396 0 0)
(0.11578 0 0)
(0.118163 0 0)
(0.120547 0 0)
(0.12293 0 0)
(0.125313 0 0)
(0.127696 0 0)
(0.130079 0 0)
(0.132461 0 0)
(0.134843 0 0)
(0.137225 0 0)
(0.139607 0 0)
(0.141988 0 0)
(0.14437 0 0)
(0.146751 0 0)
(0.149131 0 0)
(0.151512 0 0)
(0.153892 0 0)
(0.156272 0 0)
(0.158651 0 0)
(0.16103 0 0)
(0.163409 0 0)
(0.165788 0 0)
(0.168166 0 0)
(0.170544 0 0)
(0.172922 0 0)
(0.1753 0 0)
(0.177677 0 0)
(0.180054 0 0)
(0.18243 0 0)
(0.184806 0 0)
(0.187182 0 0)
(0.189557 0 0)
(0.191932 0 0)
(0.194307 0 0)
(0.196682 0 0)
(0.199056 0 0)
(0.201429 0 0)
(0.203803 0 0)
(0.206175 0 0)
(0.208548 0 0)
(0.21092 0 0)
(0.213292 0 0)
(0.215663 0 0)
(0.218034 0 0)
(0.220405 0 0)
(0.222775 0 0)
(0.225145 0 0)
(0.227514 0 0)
(0.229883 0 0)
(0.232251 0 0)
(0.234619 0 0)
(0.236987 0 0)
(0.239354 0 0)
(0.241721 0 0)
(0.244087 0 0)
(0.246453 0 0)
(0.248818 0 0)
(0.251183 0 0)
(0.253547 0 0)
(0.255911 0 0)
(0.258274 0 0)
(0.260637 0 0)
(0.263 0 0)
(0.265361 0 0)
(0.267723 0 0)
(0.270084 0 0)
(0.272444 0 0)
(0.274804 0 0)
(0.277163 0 0)
(0.279522 0 0)
(0.28188 0 0)
(0.284238 0 0)
(0.286595 0 0)
(0.288952 0 0)
(0.291308 0 0)
(0.293663 0 0)
(0.296018 0 0)
(0.298372 0 0)
(0.300726 0 0)
(0.303079 0 0)
(0.305432 0 0)
(0.307784 0 0)
(0.310135 0 0)
(0.312486 0 0)
(0.314836 0 0)
(0.317186 0 0)
(0.319535 0 0)
(0.321883 0 0)
(0.324231 0 0)
(0.326578 0 0)
(0.328924 0 0)
(0.33127 0 0)
(0.333615 0 0)
(0.335959 0 0)
(0.338303 0 0)
(0.340646 0 0)
(0.342988 0 0)
(0.34533 0 0)
(0.347671 0 0)
(0.350011 0 0)
(0.35235 0 0)
(0.354689 0 0)
(0.357027 0 0)
(0.359365 0 0)
(0.361701 0 0)
(0.364037 0 0)
(0.366372 0 0)
(0.368707 0 0)
(0.37104 0 0)
(0.373373 0 0)
(0.375705 0 0)
(0.378037 0 0)
(0.380367 0 0)
(0.382697 0 0)
(0.385026 0 0)
(0.387354 0 0)
(0.389682 0 0)
(0.392008 0 0)
(0.394334 0 0)
(0.396659 0 0)
(0.398983 0 0)
(0.401306 0 0)
(0.403628 0 0)
(0.40595 0 0)
(0.408271 0 0)
(0.41059 0 0)
(0.412909 0 0)
(0.415227 0 0)
(0.417545 0 0)
(0.419861 0 0)
(0.422176 0 0)
(0.42449 0 0)
(0.426804 0 0)
(0.429117 0 0)
(0.431428 0 0)
(0.433739 0 0)
(0.436049 0 0)
(0.438357 0 0)
(0.440665 0 0)
(0.442972 0 0)
(0.445278 0 0)
(0.447583 0 0)
(0.449887 0 0)
(0.45219 0 0)
(0.454492 0 0)
(0.456793 0 0)
(0.459092 0 0)
(0.461391 0 0)
(0.463689 0 0)
(0.465986 0 0)
(0.468281 0 0)
(0.470576 0 0)
(0.47287 0 0)
(0.475162 0 0)
(0.477453 0 0)
(0.479744 0 0)
(0.482033 0 0)
(0.484321 0 0)
(0.486608 0 0)
(0.488894 0 0)
(0.491178 0 0)
(0.493462 0 0)
(0.495744 0 0)
(0.498025 0 0)
(0.500305 0 0)
(0.502584 0 0)
(0.504862 0 0)
(0.507138 0 0)
(0.509413 0 0)
(0.511687 0 0)
(0.51396 0 0)
(0.516232 0 0)
(0.518502 0 0)
(0.520771 0 0)
(0.523039 0 0)
(0.525305 0 0)
(0.52757 0 0)
(0.529834 0 0)
(0.532097 0 0)
(0.534358 0 0)
(0.536618 0 0)
(0.538877 0 0)
(0.541134 0 0)
(0.54339 0 0)
(0.545645 0 0)
(0.547898 0 0)
(0.550149 0 0)
(0.5524 0 0)
(0.554649 0 0)
(0.556896 0 0)
(0.559142 0 0)
(0.561387 0 0)
(0.56363 0 0)
(0.565872 0 0)
(0.568112 0 0)
(0.570351 0 0)
(0.572589 0 0)
(0.574824 0 0)
(0.577059 0 0)
(0.579291 0 0)
(0.581523 0 0)
(0.583752 0 0)
(0.58598 0 0)
(0.588207 0 0)
(0.590432 0 0)
(0.592655 0 0)
(0.594877 0 0)
(0.597097 0 0)
(0.599315 0 0)
(0.601532 0 0)
(0.603747 0 0)
(0.60596 0 0)
(0.608172 0 0)
(0.610382 0 0)
(0.61259 0 0)
(0.614797 0 0)
(0.617002 0 0)
(0.619205 0 0)
(0.621406 0 0)
(0.623606 0 0)
(0.625803 0 0)
(0.627999 0 0)
(0.630193 0 0)
(0.632385 0 0)
(0.634576 0 0)
(0.636764 0 0)
(0.638951 0 0)
(0.641136 0 0)
(0.643318 0 0)
(0.645499 0 0)
(0.647678 0 0)
(0.649855 0 0)
(0.65203 0 0)
(0.654203 0 0)
(0.656374 0 0)
(0.658542 0 0)
(0.660709 0 0)
(0.662874 0 0)
(0.665037 0 0)
(0.667197 0 0)
(0.669356 0 0)
(0.671512 0 0)
(0.673666 0 0)
(0.675818 0 0)
(0.677968 0 0)
(0.680116 0 0)
(0.682261 0 0)
(0.684404 0 0)
(0.686545 0 0)
(0.688684 0 0)
(0.69082 0 0)
(0.692954 0 0)
(0.695086 0 0)
(0.697215 0 0)
(0.699342 0 0)
(0.701467 0 0)
(0.703589 0 0)
(0.705709 0 0)
(0.707826 0 0)
(0.709941 0 0)
(0.712053 0 0)
(0.714163 0 0)
(0.71627 0 0)
(0.718375 0 0)
(0.720477 0 0)
(0.722576 0 0)
(0.724673 0 0)
(0.726767 0 0)
(0.728858 0 0)
(0.730947 0 0)
(0.733033 0 0)
(0.735117 0 0)
(0.737197 0 0)
(0.739275 0 0)
(0.74135 0 0)
(0.743422 0 0)
(0.745491 0 0)
(0.747557 0 0)
(0.74962 0 0)
(0.75168 0 0)
(0.753738 0 0)
(0.755792 0 0)
(0.757843 0 0)
(0.759892 0 0)
(0.761937 0 0)
(0.763979 0 0)
(0.766017 0 0)
(0.768053 0 0)
(0.770085 0 0)
(0.772115 0 0)
(0.77414 0 0)
(0.776163 0 0)
(0.778182 0 0)
(0.780198 0 0)
(0.78221 0 0)
(0.784219 0 0)
(0.786225 0 0)
(0.788227 0 0)
(0.790225 0 0)
(0.79222 0 0)
(0.794211 0 0)
(0.796198 0 0)
(0.798182 0 0)
(0.800162 0 0)
(0.802139 0 0)
(0.804111 0 0)
(0.80608 0 0)
(0.808044 0 0)
(0.810005 0 0)
(0.811962 0 0)
(0.813915 0 0)
(0.815864 0 0)
(0.817808 0 0)
(0.819749 0 0)
(0.821685 0 0)
(0.823617 0 0)
(0.825545 0 0)
(0.827468 0 0)
(0.829387 0 0)
(0.831302 0 0)
(0.833212 0 0)
(0.835118 0 0)
(0.837019 0 0)
(0.838915 0 0)
(0.840807 0 0)
(0.842694 0 0)
(0.844576 0 0)
(0.846453 0 0)
(0.848326 0 0)
(0.850193 0 0)
(0.852056 0 0)
(0.853913 0 0)
(0.855765 0 0)
(0.857612 0 0)
(0.859454 0 0)
(0.86129 0 0)
(0.863121 0 0)
(0.864947 0 0)
(0.866767 0 0)
(0.868581 0 0)
(0.87039 0 0)
(0.872192 0 0)
(0.87399 0 0)
(0.875781 0 0)
(0.877566 0 0)
(0.879345 0 0)
(0.881118 0 0)
(0.882885 0 0)
(0.884645 0 0)
(0.886453 0 0)
(0.886244 0 0)
(0.496582 0 0)
(-0.495284 0 0)
(-0.88615 0 0)
(-0.886456 0 0)
(-0.884642 0 0)
(-0.882882 0 0)
(-0.881116 0 0)
(-0.879343 0 0)
(-0.877564 0 0)
(-0.875778 0 0)
(-0.873987 0 0)
(-0.87219 0 0)
(-0.870387 0 0)
(-0.868579 0 0)
(-0.866764 0 0)
(-0.864944 0 0)
(-0.863119 0 0)
(-0.861288 0 0)
(-0.859451 0 0)
(-0.85761 0 0)
(-0.855763 0 0)
(-0.853911 0 0)
(-0.852053 0 0)
(-0.850191 0 0)
(-0.848323 0 0)
(-0.846451 0 0)
(-0.844574 0 0)
(-0.842691 0 0)
(-0.840804 0 0)
(-0.838913 0 0)
(-0.837016 0 0)
(-0.835115 0 0)
(-0.83321 0 0)
(-0.8313 0 0)
(-0.829385 0 0)
(-0.827466 0 0)
(-0.825542 0 0)
(-0.823615 0 0)
(-0.821683 0 0)
(-0.819746 0 0)
(-0.817806 0 0)
(-0.815861 0 0)
(-0.813912 0 0)
(-0.81196 0 0)
(-0.810003 0 0)
(-0.808042 0 0)
(-0.806077 0 0)
(-0.804109 0 0)
(-0.802136 0 0)
(-0.80016 0 0)
(-0.79818 0 0)
(-0.796196 0 0)
(-0.794208 0 0)
(-0.792217 0 0)
(-0.790223 0 0)
(-0.788224 0 0)
(-0.786222 0 0)
(-0.784217 0 0)
(-0.782208 0 0)
(-0.780195 0 0)
(-0.77818 0 0)
(-0.77616 0 0)
(-0.774138 0 0)
(-0.772112 0 0)
(-0.770083 0 0)
(-0.768051 0 0)
(-0.766015 0 0)
(-0.763976 0 0)
(-0.761934 0 0)
(-0.759889 0 0)
(-0.757841 0 0)
(-0.75579 0 0)
(-0.753735 0 0)
(-0.751678 0 0)
(-0.749618 0 0)
(-0.747555 0 0)
(-0.745488 0 0)
(-0.743419 0 0)
(-0.741347 0 0)
(-0.739272 0 0)
(-0.737195 0 0)
(-0.735114 0 0)
(-0.733031 0 0)
(-0.730945 0 0)
(-0.728856 0 0)
(-0.726765 0 0)
(-0.724671 0 0)
(-0.722574 0 0)
(-0.720474 0 0)
(-0.718372 0 0)
(-0.716268 0 0)
(-0.71416 0 0)
(-0.712051 0 0)
(-0.709938 0 0)
(-0.707824 0 0)
(-0.705706 0 0)
(-0.703587 0 0)
(-0.701465 0 0)
(-0.69934 0 0)
(-0.697213 0 0)
(-0.695084 0 0)
(-0.692952 0 0)
(-0.690818 0 0)
(-0.688682 0 0)
(-0.686543 0 0)
(-0.684402 0 0)
(-0.682259 0 0)
(-0.680114 0 0)
(-0.677966 0 0)
(-0.675816 0 0)
(-0.673664 0 0)
(-0.67151 0 0)
(-0.669354 0 0)
(-0.667195 0 0)
(-0.665035 0 0)
(-0.662872 0 0)
(-0.660707 0 0)
(-0.65854 0 0)
(-0.656372 0 0)
(-0.654201 0 0)
(-0.652028 0 0)
(-0.649853 0 0)
(-0.647676 0 0)
(-0.645497 0 0)
(-0.643316 0 0)
(-0.641133 0 0)
(-0.638949 0 0)
(-0.636762 0 0)
(-0.634574 0 0)
(-0.632383 0 0)
(-0.630191 0 0)
(-0.627997 0 0)
(-0.625801 0 0)
(-0.623604 0 0)
(-0.621404 0 0)
(-0.619203 0 0)
(-0.617 0 0)
(-0.614795 0 0)
(-0.612589 0 0)
(-0.61038 0 0)
(-0.60817 0 0)
(-0.605959 0 0)
(-0.603745 0 0)
(-0.60153 0 0)
(-0.599313 0 0)
(-0.597095 0 0)
(-0.594875 0 0)
(-0.592653 0 0)
(-0.59043 0 0)
(-0.588205 0 0)
(-0.585978 0 0)
(-0.58375 0 0)
(-0.581521 0 0)
(-0.57929 0 0)
(-0.577057 0 0)
(-0.574823 0 0)
(-0.572587 0 0)
(-0.57035 0 0)
(-0.568111 0 0)
(-0.56587 0 0)
(-0.563629 0 0)
(-0.561385 0 0)
(-0.559141 0 0)
(-0.556895 0 0)
(-0.554647 0 0)
(-0.552398 0 0)
(-0.550148 0 0)
(-0.547896 0 0)
(-0.545643 0 0)
(-0.543388 0 0)
(-0.541132 0 0)
(-0.538875 0 0)
(-0.536617 0 0)
(-0.534357 0 0)
(-0.532095 0 0)
(-0.529833 0 0)
(-0.527569 0 0)
(-0.525304 0 0)
(-0.523037 0 0)
(-0.52077 0 0)
(-0.518501 0 0)
(-0.51623 0 0)
(-0.513959 0 0)
(-0.511686 0 0)
(-0.509412 0 0)
(-0.507137 0 0)
(-0.50486 0 0)
(-0.502583 0 0)
(-0.500304 0 0)
(-0.498024 0 0)
(-0.495743 0 0)
(-0.49346 0 0)
(-0.491177 0 0)
(-0.488892 0 0)
(-0.486606 0 0)
(-0.48432 0 0)
(-0.482032 0 0)
(-0.479742 0 0)
(-0.477452 0 0)
(-0.475161 0 0)
(-0.472868 0 0)
(-0.470575 0 0)
(-0.46828 0 0)
(-0.465984 0 0)
(-0.463688 0 0)
(-0.46139 0 0)
(-0.459091 0 0)
(-0.456791 0 0)
(-0.45449 0 0)
(-0.452189 0 0)
(-0.449886 0 0)
(-0.447582 0 0)
(-0.445277 0 0)
(-0.442971 0 0)
(-0.440664 0 0)
(-0.438356 0 0)
(-0.436048 0 0)
(-0.433738 0 0)
(-0.431427 0 0)
(-0.429116 0 0)
(-0.426803 0 0)
(-0.424489 0 0)
(-0.422175 0 0)
(-0.41986 0 0)
(-0.417544 0 0)
(-0.415226 0 0)
(-0.412908 0 0)
(-0.410589 0 0)
(-0.40827 0 0)
(-0.405949 0 0)
(-0.403628 0 0)
(-0.401305 0 0)
(-0.398982 0 0)
(-0.396658 0 0)
(-0.394333 0 0)
(-0.392007 0 0)
(-0.389681 0 0)
(-0.387353 0 0)
(-0.385025 0 0)
(-0.382696 0 0)
(-0.380367 0 0)
(-0.378036 0 0)
(-0.375705 0 0)
(-0.373373 0 0)
(-0.37104 0 0)
(-0.368706 0 0)
(-0.366372 0 0)
(-0.364036 0 0)
(-0.361701 0 0)
(-0.359364 0 0)
(-0.357027 0 0)
(-0.354688 0 0)
(-0.35235 0 0)
(-0.35001 0 0)
(-0.34767 0 0)
(-0.345329 0 0)
(-0.342987 0 0)
(-0.340645 0 0)
(-0.338302 0 0)
(-0.335958 0 0)
(-0.333614 0 0)
(-0.331269 0 0)
(-0.328923 0 0)
(-0.326577 0 0)
(-0.32423 0 0)
(-0.321882 0 0)
(-0.319534 0 0)
(-0.317185 0 0)
(-0.314836 0 0)
(-0.312485 0 0)
(-0.310135 0 0)
(-0.307783 0 0)
(-0.305431 0 0)
(-0.303079 0 0)
(-0.300726 0 0)
(-0.298372 0 0)
(-0.296018 0 0)
(-0.293663 0 0)
(-0.291307 0 0)
(-0.288951 0 0)
(-0.286595 0 0)
(-0.284237 0 0)
(-0.28188 0 0)
(-0.279522 0 0)
(-0.277163 0 0)
(-0.274803 0 0)
(-0.272444 0 0)
(-0.270083 0 0)
(-0.267722 0 0)
(-0.265361 0 0)
(-0.262999 0 0)
(-0.260637 0 0)
(-0.258274 0 0)
(-0.25591 0 0)
(-0.253547 0 0)
(-0.251182 0 0)
(-0.248817 0 0)
(-0.246452 0 0)
(-0.244086 0 0)
(-0.24172 0 0)
(-0.239354 0 0)
(-0.236986 0 0)
(-0.234619 0 0)
(-0.232251 0 0)
(-0.229882 0 0)
(-0.227514 0 0)
(-0.225144 0 0)
(-0.222775 0 0)
(-0.220404 0 0)
(-0.218034 0 0)
(-0.215663 0 0)
(-0.213292 0 0)
(-0.21092 0 0)
(-0.208548 0 0)
(-0.206175 0 0)
(-0.203802 0 0)
(-0.201429 0 0)
(-0.199055 0 0)
(-0.196681 0 0)
(-0.194307 0 0)
(-0.191932 0 0)
(-0.189557 0 0)
(-0.187182 0 0)
(-0.184806 0 0)
(-0.18243 0 0)
(-0.180053 0 0)
(-0.177677 0 0)
(-0.175299 0 0)
(-0.172922 0 0)
(-0.170544 0 0)
(-0.168166 0 0)
(-0.165788 0 0)
(-0.163409 0 0)
(-0.16103 0 0)
(-0.158651 0 0)
(-0.156271 0 0)
(-0.153892 0 0)
(-0.151511 0 0)
(-0.149131 0 0)
(-0.14675 0 0)
(-0.14437 0 0)
(-0.141988 0 0)
(-0.139607 0 0)
(-0.137225 0 0)
(-0.134843 0 0)
(-0.132461 0 0)
(-0.130079 0 0)
(-0.127696 0 0)
(-0.125313 0 0)
(-0.12293 0 0)
(-0.120547 0 0)
(-0.118163 0 0)
(-0.115779 0 0)
(-0.113395 0 0)
(-0.111011 0 0)
(-0.108627 0 0)
(-0.106242 0 0)
(-0.103858 0 0)
(-0.101473 0 0)
(-0.0990876 0 0)
(-0.0967023 0 0)
(-0.0943168 0 0)
(-0.0919311 0 0)
(-0.0895453 0 0)
(-0.0871594 0 0)
(-0.0847733 0 0)
(-0.082387 0 0)
(-0.0800006 0 0)
(-0.077614 0 0)
(-0.0752273 0 0)
(-0.0728405 0 0)
(-0.0704535 0 0)
(-0.0680664 0 0)
(-0.0656792 0 0)
(-0.0632919 0 0)
(-0.0609045 0 0)
(-0.0585169 0 0)
(-0.0561293 0 0)
(-0.0537415 0 0)
(-0.0513537 0 0)
(-0.0489658 0 0)
(-0.0465777 0 0)
(-0.0441896 0 0)
(-0.0418014 0 0)
(-0.0394132 0 0)
(-0.0370249 0 0)
(-0.0346365 0 0)
(-0.032248 0 0)
(-0.0298595 0 0)
(-0.0274709 0 0)
(-0.0250823 0 0)
(-0.0226937 0 0)
(-0.020305 0 0)
(-0.0179162 0 0)
(-0.0155275 0 0)
(-0.0131387 0 0)
(-0.0107498 0 0)
(-0.00836101 0 0)
(-0.00597216 0 0)
(-0.0035833 0 0)
(-0.00119443 0 0)
)
;

boundaryField
{
    left
    {
        type            fixedValue;
        value           uniform (0 0 0);
    }
    right
    {
        type            fixedValue;
        value           uniform (0 0 0);
    }
    frontBackUpDown
    {
        type            empty;
    }
}


// ************************************************************************* //
