/*--------------------------------*- C++ -*----------------------------------*\
| =========                 |                                                 |
| \\      /  F ield         | OpenFOAM: The Open Source CFD Toolbox           |
|  \\    /   O peration     | Version:  2412                                  |
|   \\  /    A nd           | Website:  www.openfoam.com                      |
|    \\/     M anipulation  |                                                 |
\*---------------------------------------------------------------------------*/
FoamFile
{
    version     2.0;
    format      ascii;
    arch        "LSB;label=32;scalar=64";
    class       volVectorField;
    location    "0.73";
    object      U_0_0_0;
}
// * * * * * * * * * * * * * * * * * * * * * * * * * * * * * * * * * * * * * //

dimensions      [0 1 -1 0 0 0 0];

internalField   nonuniform List<vector> 
800
(
(0.00119499 0 0)
(0.003585 0 0)
(0.005975 0 0)
(0.00836499 0 0)
(0.010755 0 0)
(0.0131449 0 0)
(0.0155349 0 0)
(0.0179248 0 0)
(0.0203146 0 0)
(0.0227045 0 0)
(0.0250943 0 0)
(0.027484 0 0)
(0.0298737 0 0)
(0.0322634 0 0)
(0.034653 0 0)
(0.0370425 0 0)
(0.039432 0 0)
(0.0418214 0 0)
(0.0442107 0 0)
(0.0466 0 0)
(0.0489891 0 0)
(0.0513782 0 0)
(0.0537672 0 0)
(0.0561561 0 0)
(0.0585448 0 0)
(0.0609335 0 0)
(0.0633221 0 0)
(0.0657106 0 0)
(0.0680989 0 0)
(0.0704871 0 0)
(0.0728752 0 0)
(0.0752632 0 0)
(0.077651 0 0)
(0.0800387 0 0)
(0.0824263 0 0)
(0.0848137 0 0)
(0.087201 0 0)
(0.0895881 0 0)
(0.091975 0 0)
(0.0943618 0 0)
(0.0967484 0 0)
(0.0991348 0 0)
(0.101521 0 0)
(0.103907 0 0)
(0.106293 0 0)
(0.108679 0 0)
(0.111064 0 0)
(0.11345 0 0)
(0.115835 0 0)
(0.11822 0 0)
(0.120604 0 0)
(0.122989 0 0)
(0.125373 0 0)
(0.127757 0 0)
(0.130141 0 0)
(0.132524 0 0)
(0.134908 0 0)
(0.137291 0 0)
(0.139673 0 0)
(0.142056 0 0)
(0.144438 0 0)
(0.14682 0 0)
(0.149202 0 0)
(0.151584 0 0)
(0.153965 0 0)
(0.156346 0 0)
(0.158727 0 0)
(0.161107 0 0)
(0.163487 0 0)
(0.165867 0 0)
(0.168246 0 0)
(0.170625 0 0)
(0.173004 0 0)
(0.175383 0 0)
(0.177761 0 0)
(0.180139 0 0)
(0.182517 0 0)
(0.184894 0 0)
(0.187271 0 0)
(0.189647 0 0)
(0.192024 0 0)
(0.194399 0 0)
(0.196775 0 0)
(0.19915 0 0)
(0.201525 0 0)
(0.203899 0 0)
(0.206273 0 0)
(0.208647 0 0)
(0.21102 0 0)
(0.213393 0 0)
(0.215765 0 0)
(0.218137 0 0)
(0.220509 0 0)
(0.22288 0 0)
(0.225251 0 0)
(0.227622 0 0)
(0.229992 0 0)
(0.232361 0 0)
(0.23473 0 0)
(0.237099 0 0)
(0.239467 0 0)
(0.241835 0 0)
(0.244202 0 0)
(0.246569 0 0)
(0.248935 0 0)
(0.251301 0 0)
(0.253667 0 0)
(0.256032 0 0)
(0.258396 0 0)
(0.26076 0 0)
(0.263124 0 0)
(0.265487 0 0)
(0.267849 0 0)
(0.270211 0 0)
(0.272573 0 0)
(0.274933 0 0)
(0.277294 0 0)
(0.279654 0 0)
(0.282013 0 0)
(0.284372 0 0)
(0.28673 0 0)
(0.289088 0 0)
(0.291445 0 0)
(0.293801 0 0)
(0.296157 0 0)
(0.298513 0 0)
(0.300868 0 0)
(0.303222 0 0)
(0.305575 0 0)
(0.307928 0 0)
(0.310281 0 0)
(0.312633 0 0)
(0.314984 0 0)
(0.317335 0 0)
(0.319685 0 0)
(0.322034 0 0)
(0.324383 0 0)
(0.326731 0 0)
(0.329078 0 0)
(0.331425 0 0)
(0.333771 0 0)
(0.336116 0 0)
(0.338461 0 0)
(0.340805 0 0)
(0.343148 0 0)
(0.345491 0 0)
(0.347833 0 0)
(0.350174 0 0)
(0.352515 0 0)
(0.354855 0 0)
(0.357194 0 0)
(0.359532 0 0)
(0.36187 0 0)
(0.364207 0 0)
(0.366543 0 0)
(0.368879 0 0)
(0.371213 0 0)
(0.373547 0 0)
(0.37588 0 0)
(0.378213 0 0)
(0.380544 0 0)
(0.382875 0 0)
(0.385205 0 0)
(0.387534 0 0)
(0.389863 0 0)
(0.39219 0 0)
(0.394517 0 0)
(0.396843 0 0)
(0.399168 0 0)
(0.401492 0 0)
(0.403816 0 0)
(0.406138 0 0)
(0.40846 0 0)
(0.410781 0 0)
(0.413101 0 0)
(0.41542 0 0)
(0.417738 0 0)
(0.420055 0 0)
(0.422371 0 0)
(0.424687 0 0)
(0.427001 0 0)
(0.429315 0 0)
(0.431627 0 0)
(0.433939 0 0)
(0.43625 0 0)
(0.43856 0 0)
(0.440868 0 0)
(0.443176 0 0)
(0.445483 0 0)
(0.447789 0 0)
(0.450094 0 0)
(0.452398 0 0)
(0.454701 0 0)
(0.457002 0 0)
(0.459303 0 0)
(0.461603 0 0)
(0.463902 0 0)
(0.466199 0 0)
(0.468496 0 0)
(0.470792 0 0)
(0.473086 0 0)
(0.47538 0 0)
(0.477672 0 0)
(0.479963 0 0)
(0.482253 0 0)
(0.484542 0 0)
(0.48683 0 0)
(0.489117 0 0)
(0.491402 0 0)
(0.493687 0 0)
(0.49597 0 0)
(0.498252 0 0)
(0.500533 0 0)
(0.502813 0 0)
(0.505091 0 0)
(0.507369 0 0)
(0.509645 0 0)
(0.51192 0 0)
(0.514193 0 0)
(0.516466 0 0)
(0.518737 0 0)
(0.521007 0 0)
(0.523276 0 0)
(0.525543 0 0)
(0.527809 0 0)
(0.530074 0 0)
(0.532337 0 0)
(0.5346 0 0)
(0.53686 0 0)
(0.53912 0 0)
(0.541378 0 0)
(0.543635 0 0)
(0.54589 0 0)
(0.548144 0 0)
(0.550397 0 0)
(0.552648 0 0)
(0.554898 0 0)
(0.557146 0 0)
(0.559393 0 0)
(0.561639 0 0)
(0.563883 0 0)
(0.566125 0 0)
(0.568367 0 0)
(0.570606 0 0)
(0.572844 0 0)
(0.575081 0 0)
(0.577316 0 0)
(0.57955 0 0)
(0.581782 0 0)
(0.584012 0 0)
(0.586241 0 0)
(0.588468 0 0)
(0.590694 0 0)
(0.592918 0 0)
(0.595141 0 0)
(0.597361 0 0)
(0.599581 0 0)
(0.601798 0 0)
(0.604014 0 0)
(0.606228 0 0)
(0.608441 0 0)
(0.610652 0 0)
(0.612861 0 0)
(0.615068 0 0)
(0.617273 0 0)
(0.619477 0 0)
(0.621679 0 0)
(0.62388 0 0)
(0.626078 0 0)
(0.628275 0 0)
(0.630469 0 0)
(0.632662 0 0)
(0.634853 0 0)
(0.637043 0 0)
(0.63923 0 0)
(0.641415 0 0)
(0.643599 0 0)
(0.64578 0 0)
(0.64796 0 0)
(0.650137 0 0)
(0.652313 0 0)
(0.654487 0 0)
(0.656658 0 0)
(0.658828 0 0)
(0.660995 0 0)
(0.663161 0 0)
(0.665324 0 0)
(0.667485 0 0)
(0.669644 0 0)
(0.671801 0 0)
(0.673956 0 0)
(0.676109 0 0)
(0.678259 0 0)
(0.680408 0 0)
(0.682554 0 0)
(0.684697 0 0)
(0.686839 0 0)
(0.688978 0 0)
(0.691115 0 0)
(0.69325 0 0)
(0.695382 0 0)
(0.697512 0 0)
(0.699639 0 0)
(0.701764 0 0)
(0.703887 0 0)
(0.706007 0 0)
(0.708125 0 0)
(0.710241 0 0)
(0.712353 0 0)
(0.714464 0 0)
(0.716571 0 0)
(0.718677 0 0)
(0.720779 0 0)
(0.722879 0 0)
(0.724976 0 0)
(0.727071 0 0)
(0.729163 0 0)
(0.731252 0 0)
(0.733339 0 0)
(0.735422 0 0)
(0.737503 0 0)
(0.739581 0 0)
(0.741657 0 0)
(0.743729 0 0)
(0.745799 0 0)
(0.747865 0 0)
(0.749929 0 0)
(0.75199 0 0)
(0.754047 0 0)
(0.756102 0 0)
(0.758154 0 0)
(0.760202 0 0)
(0.762248 0 0)
(0.76429 0 0)
(0.766329 0 0)
(0.768365 0 0)
(0.770398 0 0)
(0.772427 0 0)
(0.774454 0 0)
(0.776476 0 0)
(0.778496 0 0)
(0.780512 0 0)
(0.782525 0 0)
(0.784534 0 0)
(0.786539 0 0)
(0.788542 0 0)
(0.79054 0 0)
(0.792535 0 0)
(0.794527 0 0)
(0.796514 0 0)
(0.798498 0 0)
(0.800479 0 0)
(0.802455 0 0)
(0.804428 0 0)
(0.806397 0 0)
(0.808361 0 0)
(0.810322 0 0)
(0.812279 0 0)
(0.814232 0 0)
(0.816181 0 0)
(0.818126 0 0)
(0.820066 0 0)
(0.822003 0 0)
(0.823935 0 0)
(0.825863 0 0)
(0.827786 0 0)
(0.829705 0 0)
(0.83162 0 0)
(0.83353 0 0)
(0.835435 0 0)
(0.837336 0 0)
(0.839233 0 0)
(0.841124 0 0)
(0.843011 0 0)
(0.844893 0 0)
(0.846771 0 0)
(0.848643 0 0)
(0.85051 0 0)
(0.852372 0 0)
(0.85423 0 0)
(0.856082 0 0)
(0.857928 0 0)
(0.85977 0 0)
(0.861606 0 0)
(0.863437 0 0)
(0.865262 0 0)
(0.867081 0 0)
(0.868895 0 0)
(0.870704 0 0)
(0.872506 0 0)
(0.874303 0 0)
(0.876094 0 0)
(0.877879 0 0)
(0.879657 0 0)
(0.88143 0 0)
(0.883196 0 0)
(0.884956 0 0)
(0.886759 0 0)
(0.886638 0 0)
(0.496926 0 0)
(-0.495628 0 0)
(-0.886545 0 0)
(-0.886762 0 0)
(-0.884953 0 0)
(-0.883194 0 0)
(-0.881428 0 0)
(-0.879655 0 0)
(-0.877876 0 0)
(-0.876092 0 0)
(-0.874301 0 0)
(-0.872504 0 0)
(-0.870701 0 0)
(-0.868893 0 0)
(-0.867079 0 0)
(-0.865259 0 0)
(-0.863434 0 0)
(-0.861604 0 0)
(-0.859767 0 0)
(-0.857926 0 0)
(-0.856079 0 0)
(-0.854227 0 0)
(-0.85237 0 0)
(-0.850508 0 0)
(-0.84864 0 0)
(-0.846768 0 0)
(-0.844891 0 0)
(-0.843009 0 0)
(-0.841122 0 0)
(-0.83923 0 0)
(-0.837334 0 0)
(-0.835433 0 0)
(-0.833527 0 0)
(-0.831617 0 0)
(-0.829703 0 0)
(-0.827784 0 0)
(-0.82586 0 0)
(-0.823932 0 0)
(-0.822 0 0)
(-0.820064 0 0)
(-0.818123 0 0)
(-0.816179 0 0)
(-0.81423 0 0)
(-0.812277 0 0)
(-0.81032 0 0)
(-0.808359 0 0)
(-0.806394 0 0)
(-0.804425 0 0)
(-0.802453 0 0)
(-0.800476 0 0)
(-0.798496 0 0)
(-0.796512 0 0)
(-0.794524 0 0)
(-0.792533 0 0)
(-0.790538 0 0)
(-0.788539 0 0)
(-0.786537 0 0)
(-0.784531 0 0)
(-0.782522 0 0)
(-0.780509 0 0)
(-0.778493 0 0)
(-0.776474 0 0)
(-0.774451 0 0)
(-0.772425 0 0)
(-0.770396 0 0)
(-0.768363 0 0)
(-0.766327 0 0)
(-0.764288 0 0)
(-0.762245 0 0)
(-0.7602 0 0)
(-0.758151 0 0)
(-0.7561 0 0)
(-0.754045 0 0)
(-0.751987 0 0)
(-0.749927 0 0)
(-0.747863 0 0)
(-0.745796 0 0)
(-0.743727 0 0)
(-0.741654 0 0)
(-0.739579 0 0)
(-0.737501 0 0)
(-0.73542 0 0)
(-0.733336 0 0)
(-0.73125 0 0)
(-0.729161 0 0)
(-0.727069 0 0)
(-0.724974 0 0)
(-0.722877 0 0)
(-0.720777 0 0)
(-0.718674 0 0)
(-0.716569 0 0)
(-0.714461 0 0)
(-0.712351 0 0)
(-0.710238 0 0)
(-0.708123 0 0)
(-0.706005 0 0)
(-0.703885 0 0)
(-0.701762 0 0)
(-0.699637 0 0)
(-0.69751 0 0)
(-0.69538 0 0)
(-0.693247 0 0)
(-0.691113 0 0)
(-0.688976 0 0)
(-0.686837 0 0)
(-0.684695 0 0)
(-0.682551 0 0)
(-0.680405 0 0)
(-0.678257 0 0)
(-0.676107 0 0)
(-0.673954 0 0)
(-0.671799 0 0)
(-0.669642 0 0)
(-0.667483 0 0)
(-0.665322 0 0)
(-0.663159 0 0)
(-0.660993 0 0)
(-0.658826 0 0)
(-0.656656 0 0)
(-0.654484 0 0)
(-0.652311 0 0)
(-0.650135 0 0)
(-0.647958 0 0)
(-0.645778 0 0)
(-0.643597 0 0)
(-0.641413 0 0)
(-0.639228 0 0)
(-0.637041 0 0)
(-0.634851 0 0)
(-0.63266 0 0)
(-0.630467 0 0)
(-0.628273 0 0)
(-0.626076 0 0)
(-0.623878 0 0)
(-0.621677 0 0)
(-0.619475 0 0)
(-0.617272 0 0)
(-0.615066 0 0)
(-0.612859 0 0)
(-0.61065 0 0)
(-0.608439 0 0)
(-0.606226 0 0)
(-0.604012 0 0)
(-0.601796 0 0)
(-0.599579 0 0)
(-0.59736 0 0)
(-0.595139 0 0)
(-0.592916 0 0)
(-0.590692 0 0)
(-0.588467 0 0)
(-0.586239 0 0)
(-0.58401 0 0)
(-0.58178 0 0)
(-0.579548 0 0)
(-0.577314 0 0)
(-0.575079 0 0)
(-0.572843 0 0)
(-0.570605 0 0)
(-0.568365 0 0)
(-0.566124 0 0)
(-0.563881 0 0)
(-0.561637 0 0)
(-0.559392 0 0)
(-0.557145 0 0)
(-0.554896 0 0)
(-0.552646 0 0)
(-0.550395 0 0)
(-0.548143 0 0)
(-0.545889 0 0)
(-0.543633 0 0)
(-0.541376 0 0)
(-0.539118 0 0)
(-0.536859 0 0)
(-0.534598 0 0)
(-0.532336 0 0)
(-0.530072 0 0)
(-0.527808 0 0)
(-0.525542 0 0)
(-0.523274 0 0)
(-0.521006 0 0)
(-0.518736 0 0)
(-0.516464 0 0)
(-0.514192 0 0)
(-0.511918 0 0)
(-0.509643 0 0)
(-0.507367 0 0)
(-0.50509 0 0)
(-0.502811 0 0)
(-0.500532 0 0)
(-0.498251 0 0)
(-0.495969 0 0)
(-0.493685 0 0)
(-0.491401 0 0)
(-0.489115 0 0)
(-0.486829 0 0)
(-0.484541 0 0)
(-0.482252 0 0)
(-0.479962 0 0)
(-0.477671 0 0)
(-0.475378 0 0)
(-0.473085 0 0)
(-0.47079 0 0)
(-0.468495 0 0)
(-0.466198 0 0)
(-0.463901 0 0)
(-0.461602 0 0)
(-0.459302 0 0)
(-0.457001 0 0)
(-0.454699 0 0)
(-0.452397 0 0)
(-0.450093 0 0)
(-0.447788 0 0)
(-0.445482 0 0)
(-0.443175 0 0)
(-0.440867 0 0)
(-0.438558 0 0)
(-0.436249 0 0)
(-0.433938 0 0)
(-0.431626 0 0)
(-0.429314 0 0)
(-0.427 0 0)
(-0.424686 0 0)
(-0.42237 0 0)
(-0.420054 0 0)
(-0.417737 0 0)
(-0.415419 0 0)
(-0.4131 0 0)
(-0.41078 0 0)
(-0.408459 0 0)
(-0.406137 0 0)
(-0.403815 0 0)
(-0.401491 0 0)
(-0.399167 0 0)
(-0.396842 0 0)
(-0.394516 0 0)
(-0.392189 0 0)
(-0.389862 0 0)
(-0.387533 0 0)
(-0.385204 0 0)
(-0.382874 0 0)
(-0.380544 0 0)
(-0.378212 0 0)
(-0.37588 0 0)
(-0.373546 0 0)
(-0.371213 0 0)
(-0.368878 0 0)
(-0.366542 0 0)
(-0.364206 0 0)
(-0.361869 0 0)
(-0.359532 0 0)
(-0.357193 0 0)
(-0.354854 0 0)
(-0.352514 0 0)
(-0.350174 0 0)
(-0.347832 0 0)
(-0.34549 0 0)
(-0.343148 0 0)
(-0.340804 0 0)
(-0.33846 0 0)
(-0.336116 0 0)
(-0.33377 0 0)
(-0.331424 0 0)
(-0.329077 0 0)
(-0.32673 0 0)
(-0.324382 0 0)
(-0.322033 0 0)
(-0.319684 0 0)
(-0.317334 0 0)
(-0.314983 0 0)
(-0.312632 0 0)
(-0.31028 0 0)
(-0.307928 0 0)
(-0.305575 0 0)
(-0.303221 0 0)
(-0.300867 0 0)
(-0.298512 0 0)
(-0.296157 0 0)
(-0.293801 0 0)
(-0.291444 0 0)
(-0.289087 0 0)
(-0.28673 0 0)
(-0.284371 0 0)
(-0.282013 0 0)
(-0.279653 0 0)
(-0.277293 0 0)
(-0.274933 0 0)
(-0.272572 0 0)
(-0.270211 0 0)
(-0.267849 0 0)
(-0.265486 0 0)
(-0.263123 0 0)
(-0.26076 0 0)
(-0.258396 0 0)
(-0.256031 0 0)
(-0.253666 0 0)
(-0.251301 0 0)
(-0.248935 0 0)
(-0.246569 0 0)
(-0.244202 0 0)
(-0.241834 0 0)
(-0.239467 0 0)
(-0.237098 0 0)
(-0.23473 0 0)
(-0.232361 0 0)
(-0.229991 0 0)
(-0.227621 0 0)
(-0.225251 0 0)
(-0.22288 0 0)
(-0.220509 0 0)
(-0.218137 0 0)
(-0.215765 0 0)
(-0.213393 0 0)
(-0.21102 0 0)
(-0.208647 0 0)
(-0.206273 0 0)
(-0.203899 0 0)
(-0.201524 0 0)
(-0.19915 0 0)
(-0.196775 0 0)
(-0.194399 0 0)
(-0.192023 0 0)
(-0.189647 0 0)
(-0.187271 0 0)
(-0.184894 0 0)
(-0.182516 0 0)
(-0.180139 0 0)
(-0.177761 0 0)
(-0.175383 0 0)
(-0.173004 0 0)
(-0.170625 0 0)
(-0.168246 0 0)
(-0.165867 0 0)
(-0.163487 0 0)
(-0.161107 0 0)
(-0.158726 0 0)
(-0.156346 0 0)
(-0.153965 0 0)
(-0.151584 0 0)
(-0.149202 0 0)
(-0.14682 0 0)
(-0.144438 0 0)
(-0.142056 0 0)
(-0.139673 0 0)
(-0.137291 0 0)
(-0.134907 0 0)
(-0.132524 0 0)
(-0.130141 0 0)
(-0.127757 0 0)
(-0.125373 0 0)
(-0.122989 0 0)
(-0.120604 0 0)
(-0.118219 0 0)
(-0.115835 0 0)
(-0.113449 0 0)
(-0.111064 0 0)
(-0.108679 0 0)
(-0.106293 0 0)
(-0.103907 0 0)
(-0.101521 0 0)
(-0.0991347 0 0)
(-0.0967483 0 0)
(-0.0943617 0 0)
(-0.0919749 0 0)
(-0.089588 0 0)
(-0.0872009 0 0)
(-0.0848137 0 0)
(-0.0824263 0 0)
(-0.0800387 0 0)
(-0.077651 0 0)
(-0.0752632 0 0)
(-0.0728752 0 0)
(-0.0704871 0 0)
(-0.0680989 0 0)
(-0.0657105 0 0)
(-0.0633221 0 0)
(-0.0609335 0 0)
(-0.0585448 0 0)
(-0.056156 0 0)
(-0.0537672 0 0)
(-0.0513782 0 0)
(-0.0489891 0 0)
(-0.0465999 0 0)
(-0.0442107 0 0)
(-0.0418214 0 0)
(-0.039432 0 0)
(-0.0370425 0 0)
(-0.034653 0 0)
(-0.0322634 0 0)
(-0.0298737 0 0)
(-0.027484 0 0)
(-0.0250943 0 0)
(-0.0227045 0 0)
(-0.0203146 0 0)
(-0.0179248 0 0)
(-0.0155349 0 0)
(-0.0131449 0 0)
(-0.010755 0 0)
(-0.008365 0 0)
(-0.00597501 0 0)
(-0.00358501 0 0)
(-0.001195 0 0)
)
;

boundaryField
{
    left
    {
        type            fixedValue;
        value           uniform (0 0 0);
    }
    right
    {
        type            fixedValue;
        value           uniform (0 0 0);
    }
    frontBackUpDown
    {
        type            empty;
    }
}


// ************************************************************************* //
