/*--------------------------------*- C++ -*----------------------------------*\
| =========                 |                                                 |
| \\      /  F ield         | OpenFOAM: The Open Source CFD Toolbox           |
|  \\    /   O peration     | Version:  2412                                  |
|   \\  /    A nd           | Website:  www.openfoam.com                      |
|    \\/     M anipulation  |                                                 |
\*---------------------------------------------------------------------------*/
FoamFile
{
    version     2.0;
    format      ascii;
    arch        "LSB;label=32;scalar=64";
    class       volScalarField;
    location    "3.5";
    object      p;
}
// * * * * * * * * * * * * * * * * * * * * * * * * * * * * * * * * * * * * * //

dimensions      [0 2 -2 0 0 0 0];

internalField   nonuniform List<scalar> 
2200
(
0.411196
0.410278
0.412659
0.412035
0.416457
0.429835
0.455584
0.495045
0.549528
0.615948
0.667019
0.687239
0.684903
0.680549
0.675409
0.673368
0.673885
0.673821
0.672394
0.673417
0.405362
0.405013
0.406758
0.411021
0.421699
0.439537
0.468156
0.512536
0.572423
0.640813
0.689467
0.706068
0.70051
0.691154
0.682306
0.675381
0.670852
0.669829
0.668386
0.668504
0.409839
0.407962
0.408198
0.418592
0.436806
0.464937
0.502124
0.552396
0.61664
0.688913
0.736203
0.747516
0.739128
0.723939
0.707168
0.689602
0.67833
0.672539
0.674199
0.676234
0.437455
0.433725
0.431292
0.439891
0.459213
0.494912
0.543841
0.61112
0.683301
0.759172
0.805642
0.811977
0.798815
0.769123
0.743354
0.720886
0.708427
0.703031
0.706708
0.71095
0.498036
0.493302
0.488823
0.486432
0.494975
0.525651
0.582662
0.664257
0.753838
0.841733
0.890252
0.888819
0.86323
0.821636
0.788051
0.771202
0.76931
0.773933
0.779446
0.784383
0.577845
0.572134
0.568442
0.561622
0.558305
0.569636
0.616606
0.694043
0.80846
0.927987
0.984271
0.961383
0.913196
0.876074
0.854038
0.855348
0.865524
0.874697
0.879857
0.885849
0.670667
0.663635
0.657701
0.647084
0.639901
0.633863
0.659743
0.726627
0.853256
1.00313
1.06885
1.02646
0.969246
0.946592
0.945947
0.964392
0.979009
0.994748
1.00105
1.00834
0.792429
0.784539
0.770496
0.749646
0.748461
0.752427
0.761648
0.815443
0.928245
1.07697
1.15112
1.12584
1.08968
1.08299
1.10081
1.11061
1.11429
1.14084
1.1572
1.16564
0.969413
0.957823
0.934904
0.910927
0.923922
0.955254
0.976898
1.01914
1.10631
1.23728
1.32064
1.33027
1.33176
1.34121
1.34553
1.33252
1.32906
1.35699
1.38206
1.39422
1.24648
1.23435
1.20845
1.17324
1.16531
1.21347
1.29464
1.37638
1.45708
1.55975
1.64985
1.70824
1.72989
1.71167
1.66592
1.63892
1.65902
1.69862
1.72568
1.73833
1.6144
1.60171
1.57191
1.52699
1.49611
1.52431
1.64123
1.81322
1.96724
2.11264
2.21563
2.25665
2.22495
2.12612
2.05541
2.05317
2.09459
2.14412
2.17558
2.18871
2.04938
2.03553
2.00084
1.94347
1.89422
1.88371
1.98217
2.19976
2.48476
2.7911
2.91496
2.82194
2.68609
2.55877
2.51622
2.55387
2.61561
2.67815
2.71492
2.72951
2.55335
2.53765
2.49723
2.42785
2.36076
2.32405
2.36602
2.51997
2.82381
3.21969
3.36708
3.22483
3.1071
3.06039
3.07939
3.14507
3.22535
3.30001
3.34213
3.35803
3.11122
3.09594
3.05408
2.97747
2.89345
2.83881
2.8409
2.89659
3.08292
3.38533
3.56201
3.57594
3.60879
3.67668
3.74118
3.82959
3.93009
4.01322
4.05832
4.07466
3.70497
3.68882
3.64441
3.56269
3.46129
3.38367
3.37969
3.42602
3.57237
3.78896
4.00505
4.1745
4.28814
4.39215
4.47607
4.59316
4.7123
4.80038
4.84614
4.86257
4.29989
4.28641
4.24493
4.1628
4.049
3.94936
3.94451
4.05636
4.31964
4.61088
4.87717
5.05063
5.10711
5.17741
5.27967
5.42334
5.55407
5.64497
5.6913
5.70701
4.88334
4.86943
4.82849
4.749
4.63835
4.53021
4.50984
4.66329
5.02021
5.42863
5.7587
5.90519
5.94403
6.01137
6.14511
6.30555
6.43788
6.52317
6.56514
6.57858
5.3921
5.38445
5.35369
5.28554
5.18415
5.07581
5.04141
5.1835
5.51632
5.9607
6.37082
6.60185
6.74634
6.86882
7.0401
7.20009
7.32227
7.40034
7.43889
7.45089
5.77737
5.77046
5.74639
5.69383
5.61412
5.52812
5.49769
5.63109
5.93759
6.39396
6.89744
7.27723
7.53489
7.71846
7.90472
8.06335
8.17425
8.24179
8.27532
8.2858
5.97802
5.97759
5.96545
5.93062
5.88132
5.82951
5.82957
5.99839
6.3639
6.88208
7.49207
8.00918
8.3192
8.54003
8.72131
8.87035
8.96683
9.02469
9.05313
9.06325
5.94839
5.95282
5.95632
5.94962
5.9402
5.94203
6.01412
6.23936
6.71437
7.34654
8.07815
8.71112
9.05679
9.30181
9.48301
9.61762
9.70146
9.75173
9.7741
9.78618
5.64621
5.65415
5.67298
5.69536
5.73552
5.81676
5.98011
6.3056
6.90549
7.68624
8.55711
9.29009
9.68723
9.98378
10.1847
10.3092
10.3942
10.4449
10.4706
10.4865
5.02036
5.03799
5.08205
5.15139
5.26131
5.43692
5.72554
6.20197
6.94795
7.90582
8.94652
9.7619
10.2514
10.5928
10.8188
10.9654
11.0687
11.1376
11.1793
11.1897
4.01485
4.0536
4.14348
4.28973
4.51273
4.84347
5.31997
5.98445
6.90016
8.0592
9.27132
10.1915
10.773
11.1671
11.4357
11.6223
11.7706
11.8641
11.9176
11.933
2.52806
2.61616
2.79428
3.08512
3.50746
4.06259
4.76351
5.66307
6.8052
8.17696
9.55672
10.598
11.2791
11.7446
12.073
12.3119
12.4904
12.6199
12.7089
12.7406
0.457437
0.598817
0.978331
1.56905
2.28605
3.11899
4.10123
5.27874
6.68372
8.275
9.82811
10.9968
11.782
12.3325
12.7343
13.0382
13.2693
13.4305
13.5242
13.5522
-2.49758
-1.97784
-1.07333
-0.0897699
0.955906
2.11788
3.41943
4.89169
6.55719
8.39056
10.1394
11.4623
12.389
13.0655
13.5752
13.9722
14.3041
14.5761
14.7439
14.7836
-5.99767
-4.6049
-3.13451
-1.76572
-0.366977
1.13357
2.74285
4.50835
6.43661
8.52004
10.4759
11.9812
13.0739
13.9046
14.5565
15.078
15.4953
15.889
16.2677
16.3876
-8.55384
-6.86832
-5.12542
-3.41842
-1.66318
0.160645
2.08474
4.13978
6.32819
8.64233
10.7844
12.4584
13.6922
14.6446
15.4082
16.0321
16.5342
16.8863
17.3169
17.4355
-10.5428
-8.69805
-6.82889
-4.89741
-2.87682
-0.757038
1.46389
3.78512
6.22193
8.74276
11.0543
12.8752
14.2219
15.2563
16.0751
16.7425
17.309
17.6458
18.0179
18.1412
-12.0707
-10.0627
-8.25961
-6.20877
-3.9728
-1.5809
0.888073
3.44592
6.10274
8.80637
11.2748
13.22
14.6564
15.7443
16.58
17.228
17.7851
18.1516
18.5009
18.6307
-13.1554
-11.1239
-9.4318
-7.29603
-4.8926
-2.31314
0.356558
3.11695
5.95902
8.82874
11.4391
13.4761
14.9599
16.0648
16.8928
17.5307
18.0943
18.478
18.8337
18.9801
-14.0389
-12.0465
-10.3764
-8.10901
-5.60795
-2.92811
-0.116283
2.7998
5.79441
8.81285
11.5403
13.6403
15.1516
16.28
17.1351
17.7835
18.311
18.7167
19.0606
19.2202
-14.7997
-12.798
-11.0975
-8.71826
-6.15777
-3.41761
-0.51803
2.50509
5.62064
8.7604
11.5811
13.7422
15.2946
16.4512
17.3233
17.9899
18.5342
18.9386
19.2943
19.4087
-15.4265
-13.3792
-11.6178
-9.14265
-6.56661
-3.80215
-0.856664
2.23669
5.44367
8.67638
11.5819
13.8178
15.4236
16.6149
17.5237
18.2073
18.736
19.1324
19.4718
19.6159
-15.9146
-13.853
-11.9861
-9.39819
-6.85221
-4.10174
-1.14209
1.99533
5.26897
8.57623
11.5702
13.8938
15.5675
16.8001
17.7279
18.4208
18.9512
19.3486
19.6895
19.8329
-16.3354
-14.2997
-12.2939
-9.6076
-7.08687
-4.34592
-1.38082
1.78578
5.1063
8.47649
11.5562
13.9639
15.7014
16.9715
17.9141
18.6224
19.1675
19.573
19.9
20.0549
-16.7069
-14.6549
-12.6067
-9.9158
-7.36641
-4.59232
-1.59839
1.60377
4.95995
8.38057
11.5305
14.0115
15.8061
17.1216
18.103
18.8354
19.3955
19.8094
20.1308
20.2789
-17.0632
-14.996
-12.9184
-10.2854
-7.70289
-4.87791
-1.82024
1.43201
4.81872
8.27655
11.4785
14.0234
15.88
17.252
18.2804
19.049
19.6257
20.053
20.3887
20.5445
-17.3954
-15.3855
-13.3111
-10.6787
-8.06791
-5.183
-2.05064
1.25014
4.6631
8.14975
11.391
13.9912
15.9161
17.361
18.4526
19.2673
19.876
20.3188
20.6488
20.7951
-17.7769
-15.7675
-13.7124
-11.0804
-8.43177
-5.47942
-2.2865
1.04791
4.48196
7.99489
11.2719
13.9254
15.9228
17.4392
18.598
19.4789
20.1337
20.6142
20.9636
21.1168
-18.1783
-16.1896
-14.0988
-11.4671
-8.77221
-5.76166
-2.52778
0.8259
4.27773
7.81838
11.1292
13.826
15.8888
17.485
18.7297
19.6893
20.412
20.935
21.2915
21.4362
-18.5433
-16.5401
-14.4736
-11.8051
-9.07579
-6.03047
-2.7716
0.592819
4.06248
7.63093
10.9693
13.6978
15.8191
17.4949
18.8199
19.8631
20.6695
21.2742
21.6754
21.8331
-18.9339
-16.903
-14.7654
-12.0709
-9.33027
-6.27378
-3.00748
0.361553
3.84883
7.44097
10.7963
13.5443
15.7069
17.4487
18.8651
20.0128
20.9174
21.6113
22.0706
22.2437
-19.2271
-17.231
-15.0354
-12.2899
-9.54194
-6.48596
-3.22703
0.142513
3.64464
7.25225
10.6118
13.3669
15.5562
17.3508
18.845
20.0952
21.1257
21.9433
22.4897
22.6716
-19.463
-17.3886
-15.1726
-12.4514
-9.73177
-6.68026
-3.43091
-0.0610792
3.45077
7.06417
10.4167
13.1673
15.3693
17.1994
18.7566
20.1043
21.2582
22.2261
22.9026
22.9922
-19.688
-17.5883
-15.3654
-12.6505
-9.93038
-6.87126
-3.6264
-0.255352
3.26007
6.86966
10.2046
12.9387
15.1397
16.9892
18.5842
19.9959
21.2542
22.3694
23.3024
23.5003
-19.9508
-17.9603
-15.7686
-12.9624
-10.1507
-7.06908
-3.82423
-0.452707
3.05965
6.65598
9.96509
12.6695
14.8472
16.6879
18.2926
19.7271
21.03
22.1965
22.9434
22.978
-20.2149
-18.2144
-15.9706
-13.1618
-10.3696
-7.27734
-4.02858
-0.657346
2.84788
6.4251
9.70141
12.3603
14.4891
16.2882
17.8589
19.2469
20.4542
21.4461
21.9172
22.0137
-20.367
-18.2036
-15.9035
-13.2312
-10.5956
-7.49547
-4.24469
-0.873546
2.62219
6.17682
9.41343
12.0099
14.0654
15.7873
17.2679
18.5428
19.5828
20.269
20.5514
20.7708
-20.5449
-18.4595
-16.2398
-13.5509
-10.8496
-7.72301
-4.47388
-1.10253
2.38166
5.91148
9.10192
11.6209
13.5755
15.1778
16.5148
17.6209
18.4921
19.0413
19.2517
19.5415
-20.8653
-19.0382
-16.9075
-14.0391
-11.1306
-7.97559
-4.71736
-1.34661
2.1241
5.62665
8.76629
11.1957
13.0215
14.4661
15.6222
16.5448
17.2648
17.6918
17.8148
18.1801
-21.1689
-19.2851
-17.0875
-14.2249
-11.394
-8.23743
-4.96871
-1.60346
1.85142
5.32322
8.40825
10.7384
12.4123
13.6698
14.6303
15.351
15.8369
16.1298
16.2821
16.6522
-21.3194
-19.2489
-16.9739
-14.2478
-11.6112
-8.46377
-5.21327
-1.86118
1.57364
5.00932
8.03485
10.2593
11.7702
12.8196
13.5685
14.093
14.3564
14.3821
14.3074
14.5514
-21.4913
-19.5057
-17.3047
-14.568
-11.8368
-8.67228
-5.44669
-2.11049
1.29934
4.69298
7.65366
9.77021
11.122
11.9582
12.4781
12.797
12.8005
12.2292
11.2891
11.411
-21.7755
-19.8809
-17.691
-14.8846
-12.0606
-8.89044
-5.66994
-2.34943
1.03315
4.37969
7.27013
9.28299
10.4964
11.1331
11.3974
11.4206
11.1728
10.0372
7.74362
5.63017
-21.9867
-20.0189
-17.7169
-14.9304
-12.2321
-9.08441
-5.87826
-2.57552
0.780606
4.07784
6.89581
8.81418
9.91277
10.3841
10.4011
10.0791
9.48501
8.33327
4.32647
-6.43299
-22.1165
-20.1291
-17.8369
-15.0637
-12.4038
-9.25228
-6.07422
-2.78853
0.541874
3.78831
6.53018
8.36033
9.36522
9.70732
9.51627
8.91629
8.12176
7.34358
6.66162
2.43001
-22.3263
-20.4001
-18.1417
-15.34
-12.616
-9.43503
-6.27325
-3.00092
0.30471
3.49973
6.16574
7.91615
8.84655
9.11121
8.83813
8.2433
7.61993
7.5296
8.42709
7.43004
-22.5592
-20.6345
-18.3291
-15.5302
-12.8266
-9.62547
-6.47961
-3.21979
0.0635125
3.21123
5.81013
7.49824
8.38476
8.64991
8.4586
8.06289
7.63212
7.54779
8.04369
7.51336
-22.7319
-20.7996
-18.4773
-15.7004
-13.029
-9.80813
-6.6927
-3.44639
-0.183142
2.92442
5.47266
7.12615
8.01105
8.35891
8.36731
8.18035
7.84645
7.52018
7.59642
7.53073
-22.9085
-20.9944
-18.6919
-15.9277
-13.238
-9.99548
-6.914
-3.67747
-0.432062
2.64407
5.16385
6.81977
7.74902
8.22608
8.44171
8.42226
8.15465
7.72487
7.69533
7.75086
-23.0898
-21.1898
-18.8864
-16.1441
-13.4321
-10.1883
-7.13998
-3.90572
-0.676124
2.37806
4.89281
6.59414
7.61721
8.21732
8.56267
8.70588
8.5932
8.19306
8.14999
8.23788
-23.2338
-21.3435
-19.0424
-16.3254
-13.593
-10.3818
-7.36043
-4.12202
-0.906497
2.13665
4.67361
6.45068
7.60051
8.32117
8.75881
9.03906
9.19916
9.01248
9.00867
9.07237
-23.3398
-21.4739
-19.1748
-16.4937
-13.7235
-10.572
-7.55902
-4.31785
-1.11602
1.93016
4.51741
6.38708
7.66728
8.52772
9.0905
9.51291
9.92452
10.1197
10.2305
10.3153
-23.3935
-21.5618
-19.2723
-16.6168
-13.8252
-10.7414
-7.71939
-4.48546
-1.29816
1.76548
4.42424
6.39485
7.79557
8.81547
9.5725
10.1947
10.7808
11.2187
11.4733
11.5666
-23.3731
-21.5889
-19.3036
-16.6728
-13.8838
-10.8606
-7.83319
-4.61691
-1.4477
1.6454
4.38137
6.44992
7.97524
9.17974
10.1426
10.9108
11.5547
12.0453
12.3671
12.4755
-23.2452
-21.5271
-19.2571
-16.6535
-13.8815
-10.9115
-7.89211
-4.70735
-1.55917
1.56215
4.36241
6.53049
8.18165
9.51089
10.5667
11.364
11.9853
12.4578
12.7949
12.9231
-22.9928
-21.3531
-19.0973
-16.5325
-13.8002
-10.8848
-7.89107
-4.75185
-1.62809
1.50235
4.34549
6.5897
8.29838
9.64123
10.6888
11.4887
12.1148
12.5888
12.9366
13.0877
-22.5705
-21.0217
-18.8029
-16.2952
-13.6188
-10.7681
-7.82532
-4.74876
-1.6655
1.45105
4.30394
6.56241
8.2646
9.59832
10.654
11.4808
12.1331
12.618
12.9695
13.1423
-21.9427
-20.502
-18.3388
-15.9086
-13.3156
-10.5536
-7.69262
-4.70336
-1.68543
1.38798
4.20724
6.44798
8.15664
9.51342
10.5969
11.4403
12.1055
12.6006
12.9555
13.1527
-21.0576
-19.7494
-17.6794
-15.359
-12.8771
-10.233
-7.488
-4.61379
-1.69269
1.29601
4.05461
6.27719
7.9949
9.3591
10.4437
11.2831
11.9553
12.4657
12.8314
13.0533
-19.8695
-18.7303
-16.7919
-14.6184
-12.2877
-9.80129
-7.20269
-4.47574
-1.68842
1.18153
3.85635
6.02535
7.69698
9.02375
10.0859
10.9122
11.5901
12.1188
12.5057
12.7534
-18.3452
-17.4163
-15.6626
-13.6851
-11.539
-9.24256
-6.82877
-4.28928
-1.667
1.04888
3.58576
5.64289
7.21961
8.47659
9.50211
10.3047
10.9733
11.5083
11.9084
12.1798
-16.5034
-15.8289
-14.3028
-12.5433
-10.6166
-8.556
-6.36566
-4.04453
-1.62632
0.880738
3.22124
5.12594
6.58562
7.7404
8.69185
9.44096
10.0655
10.5872
10.9967
11.2884
-14.4815
-14.0438
-12.7462
-11.2175
-9.53135
-7.73087
-5.8
-3.73726
-1.5693
0.682615
2.79041
4.50404
5.81008
6.82046
7.64285
8.28747
8.82102
9.26931
9.6333
9.90572
-12.3717
-12.0761
-10.9572
-9.66231
-8.25497
-6.76342
-5.13958
-3.36256
-1.47121
0.508293
2.38655
3.90939
5.05536
5.92344
6.61547
7.14043
7.55006
7.8676
8.10998
8.28686
-9.97378
-9.77647
-8.85006
-7.8952
-6.85164
-5.69856
-4.38029
-2.90211
-1.31484
0.387323
2.03833
3.37575
4.37335
5.11201
5.68766
6.11724
6.41179
6.61493
6.74718
6.83329
-7.20398
-7.03852
-6.56792
-6.06828
-5.36963
-4.51848
-3.53007
-2.38267
-1.11033
0.314314
1.71348
2.8398
3.67575
4.26859
4.70664
5.02413
5.2211
5.33803
5.39202
5.43209
-4.59477
-4.51746
-4.38023
-4.20629
-3.79397
-3.28804
-2.65829
-1.82728
-0.848969
0.299552
1.43081
2.3413
3.0176
3.47863
3.79395
4.01378
4.14232
4.21689
4.24544
4.26857
-2.6508
-2.63323
-2.60475
-2.55681
-2.40739
-2.19116
-1.82897
-1.25799
-0.547656
0.326418
1.20076
1.91453
2.44459
2.80088
3.0299
3.18211
3.27136
3.34113
3.37205
3.41084
-1.45553
-1.46996
-1.48076
-1.46606
-1.41447
-1.31972
-1.10054
-0.734548
-0.256028
0.377083
1.04267
1.59592
2.00233
2.27903
2.45665
2.57606
2.64775
2.72602
2.75244
2.77755
-0.820143
-0.84873
-0.877306
-0.867987
-0.825511
-0.710844
-0.564057
-0.326319
-0.00971777
0.44779
0.958961
1.3877
1.6973
1.91583
2.06635
2.17652
2.22952
2.30339
2.32116
2.33262
-0.470102
-0.494374
-0.530657
-0.52724
-0.493627
-0.36308
-0.269017
-0.0771327
0.168195
0.516658
0.911525
1.2461
1.48785
1.66473
1.79628
1.90689
1.93064
1.98548
1.99327
1.99881
-0.240545
-0.257005
-0.286952
-0.285662
-0.286992
-0.193657
-0.163458
0.0450719
0.256018
0.54402
0.858529
1.1292
1.32962
1.47436
1.57409
1.68034
1.6785
1.71102
1.71415
1.71735
-0.0630516
-0.0746124
-0.095095
-0.0902465
-0.121477
-0.0783206
-0.0969007
0.122771
0.264642
0.52289
0.790683
1.01877
1.18931
1.30635
1.35764
1.44651
1.43907
1.46068
1.45977
1.46114
0.0799843
0.0706734
0.0558269
0.0682974
0.0331723
0.0729189
0.0347072
0.226072
0.253618
0.494776
0.720356
0.905391
1.04175
1.1373
1.14514
1.21595
1.21309
1.23012
1.22843
1.2294
0.195456
0.186876
0.175058
0.191486
0.166379
0.222478
0.19191
0.338593
0.275954
0.4957
0.656035
0.789008
0.888828
0.973233
0.960187
1.0173
1.01708
1.03178
1.03075
1.03142
0.277579
0.268578
0.258056
0.271317
0.252192
0.307833
0.288231
0.393608
0.31965
0.516171
0.59558
0.687504
0.757041
0.837063
0.820085
0.864524
0.863695
0.874707
0.872882
0.872354
0.319924
0.309639
0.299296
0.307425
0.285727
0.326562
0.302424
0.392005
0.338509
0.52027
0.538346
0.618699
0.660065
0.731984
0.722015
0.751047
0.747327
0.753786
0.750098
0.747641
0.33211
0.32147
0.312905
0.31621
0.290756
0.322473
0.290381
0.364518
0.329097
0.495779
0.47927
0.573468
0.584061
0.645794
0.639505
0.658373
0.651643
0.654863
0.65041
0.646783
0.327303
0.317009
0.312281
0.314637
0.294571
0.321352
0.288039
0.34748
0.316192
0.450859
0.423976
0.526773
0.513771
0.563475
0.558343
0.572128
0.56543
0.567408
0.563697
0.560012
0.316335
0.306922
0.30648
0.30898
0.293718
0.317259
0.288768
0.336477
0.308177
0.402038
0.379221
0.465637
0.45037
0.485295
0.481402
0.49239
0.487321
0.488856
0.486351
0.483185
0.299177
0.290557
0.292133
0.293455
0.281699
0.301118
0.278378
0.31827
0.29389
0.359267
0.340225
0.402735
0.393499
0.416987
0.414078
0.422266
0.418513
0.419453
0.417707
0.415108
0.274176
0.266549
0.268644
0.268738
0.259345
0.274443
0.255961
0.288636
0.269215
0.317076
0.304945
0.345717
0.342769
0.35834
0.355782
0.361472
0.358374
0.358676
0.357255
0.355131
0.243216
0.237016
0.23904
0.238651
0.231353
0.242869
0.227699
0.253122
0.237406
0.274519
0.266771
0.294936
0.294048
0.304686
0.302585
0.306421
0.303876
0.303782
0.302595
0.300918
0.209608
0.204923
0.206612
0.206174
0.200737
0.209517
0.197429
0.216735
0.203548
0.232256
0.226217
0.246511
0.245955
0.253506
0.251921
0.254472
0.25249
0.25223
0.25125
0.250002
0.17434
0.171112
0.172289
0.171974
0.167934
0.174479
0.165209
0.179764
0.168956
0.19051
0.18501
0.199761
0.198935
0.204441
0.203168
0.204937
0.203428
0.203167
0.202372
0.201478
0.137623
0.135377
0.136027
0.135804
0.132829
0.137597
0.130621
0.141486
0.132773
0.148898
0.143665
0.15442
0.153195
0.157241
0.156127
0.157333
0.156198
0.156034
0.155299
0.154664
0.0995041
0.0980557
0.0983359
0.0981517
0.0958766
0.0993619
0.0939671
0.102094
0.0950318
0.107074
0.102447
0.110095
0.108789
0.111603
0.11049
0.111384
0.110384
0.110299
0.109666
0.109236
0.0603292
0.0593713
0.0594991
0.059471
0.0576665
0.0602898
0.0561257
0.0618567
0.0563671
0.0651239
0.061091
0.0660868
0.0649578
0.0669302
0.0658359
0.0665818
0.0657447
0.0657994
0.0652471
0.0649128
0.0203928
0.0198536
0.0199054
0.0200609
0.0188978
0.0205602
0.0182055
0.0212152
0.018252
0.0223579
0.0194151
0.0222208
0.0213908
0.0226324
0.0216797
0.0223557
0.0217923
0.0219145
0.021548
0.0213723
11.4577
15.9522
17.0741
18.4981
19.6701
20.723
21.67
22.5303
23.2241
23.5254
16.3546
18.5494
19.2659
20.1822
20.9955
21.7083
22.3211
22.8282
23.1412
23.1771
19.0385
20.1232
20.6706
21.243
21.7609
22.2155
22.5956
22.887
23.047
23.0662
20.5264
21.1841
21.5494
21.9156
22.2328
22.5048
22.7219
22.8773
22.9639
22.9831
21.4887
21.8397
22.0671
22.288
22.4838
22.654
22.7824
22.8718
22.915
22.9394
22.0339
22.2618
22.3937
22.5332
22.652
22.7549
22.8325
22.8851
22.9135
22.9311
22.3982
22.5232
22.5986
22.691
22.7662
22.8316
22.8818
22.9173
22.9329
22.9543
22.6062
22.7021
22.7541
22.8122
22.8596
22.8981
22.9287
22.9526
22.9673
22.9847
22.771
22.8298
22.8623
22.8941
22.9242
22.9484
22.9703
22.9882
23.0008
23.0213
22.8896
22.9212
22.9396
22.9606
22.9828
23.0023
23.0203
23.0391
23.0531
23.073
22.9856
23.0077
23.0261
23.0421
23.0607
23.0795
23.0958
23.1129
23.1247
23.1421
23.0926
23.1106
23.1296
23.1444
23.1582
23.172
23.1827
23.1925
23.1977
23.21
23.205
23.2144
23.2283
23.2388
23.2458
23.2521
23.259
23.2652
23.2673
23.2762
23.3009
23.3043
23.3123
23.3178
23.3211
23.3247
23.3311
23.3386
23.3427
23.3536
23.4078
23.3963
23.3902
23.3853
23.3838
23.3859
23.3924
23.4045
23.4189
23.4465
23.5342
23.4794
23.4481
23.4294
23.4208
23.421
23.4299
23.4497
23.4808
23.5498
)
;

boundaryField
{
    wall-4
    {
        type            zeroGradient;
    }
    pressure-outlet-7
    {
        type            fixedValue;
        value           uniform 0;
    }
    velocity-inlet-6
    {
        type            zeroGradient;
    }
    velocity-inlet-5
    {
        type            zeroGradient;
    }
    frontAndBackPlanes
    {
        type            empty;
    }
}


// ************************************************************************* //
