/*--------------------------------*- C++ -*----------------------------------*\
| =========                 |                                                 |
| \\      /  F ield         | OpenFOAM: The Open Source CFD Toolbox           |
|  \\    /   O peration     | Version:  2412                                  |
|   \\  /    A nd           | Website:  www.openfoam.com                      |
|    \\/     M anipulation  |                                                 |
\*---------------------------------------------------------------------------*/
FoamFile
{
    version     2.0;
    format      ascii;
    arch        "LSB;label=32;scalar=64";
    class       surfaceScalarField;
    location    "3.5";
    object      phi;
}
// * * * * * * * * * * * * * * * * * * * * * * * * * * * * * * * * * * * * * //

dimensions      [0 3 -1 0 0 0 0];

oriented        oriented;

internalField   nonuniform List<scalar> 
4262
(
0.00295784
0.217555
0.00294528
0.828666
0.000122431
1.76997
-0.00210373
3.16739
-0.0048144
5.18731
-0.00692398
8.01647
-0.00733768
11.8476
-0.00825661
16.8207
-0.00831974
22.8819
-0.00555064
29.5256
-0.00197693
29.5248
0.000760881
22.8791
0.000685146
16.8198
0.000963221
11.8469
0.000353868
8.01497
-0.000633736
5.18559
-0.00199943
3.16653
-0.00469552
1.76984
-0.00383194
0.82779
0.216681
-0.00843082
0.225986
-0.00562326
0.825858
-0.00873044
1.77307
-0.0119481
3.17061
-0.0175829
5.19295
-0.0218511
8.02074
-0.0245097
11.8502
-0.0250558
16.8212
-0.0216896
22.8785
-0.0138095
29.5177
-0.00444948
29.5154
0.00220279
22.8724
0.00551669
16.8165
0.00707832
11.8453
0.00653333
8.01552
0.00448493
5.18764
0.00381701
3.1672
0.00282124
1.77084
0.00711955
0.823491
0.2238
-0.0236277
0.249613
-0.0250327
0.827263
-0.0319492
1.77999
-0.0360914
3.17475
-0.0413649
5.19822
-0.0417979
8.02118
-0.0433593
11.8518
-0.0414802
16.8193
-0.0363059
22.8733
-0.0208689
29.5023
-0.00506579
29.4996
0.00565815
22.8617
0.013323
16.8088
0.0173686
11.8413
0.0210641
8.01182
0.0204719
5.18823
0.0210488
3.16662
0.0195188
1.77237
0.0218033
0.821207
0.245604
-0.0407266
0.29034
-0.0576429
0.844179
-0.0675462
1.78989
-0.0757899
3.183
-0.076097
5.19853
-0.0762253
8.0213
-0.0726512
11.8482
-0.0625107
16.8092
-0.052185
22.863
-0.0278321
29.4779
-0.00368324
29.4755
0.0132141
22.8448
0.0304668
16.7916
0.0406765
11.831
0.047447
8.00505
0.0539716
5.18171
0.052217
3.16838
0.0489135
1.77567
0.0366495
0.833471
0.282253
-0.0479731
0.338313
-0.0878094
0.884016
-0.0883879
1.79047
-0.109649
3.20426
-0.117424
5.2063
-0.11374
8.01762
-0.106999
11.8415
-0.0896075
16.7918
-0.0703515
22.8438
-0.034311
29.4419
0.0015901
29.4396
0.0279469
22.8185
0.0532493
16.7663
0.0692831
11.815
0.0828894
7.99145
0.0820674
5.18253
0.0703899
3.18006
0.0776517
1.76841
0.0439255
0.867197
0.326179
-0.046402
0.384715
-0.107617
0.945231
-0.0995812
1.78244
-0.120038
3.22471
-0.141592
5.22786
-0.151897
8.02793
-0.147037
11.8366
-0.125788
16.7705
-0.0926051
22.8106
-0.0426228
29.3919
0.00665282
29.3903
0.0495103
22.7756
0.0826841
16.7331
0.100222
11.7975
0.10196
7.98971
0.0909087
5.19358
0.082984
3.18798
0.0992149
1.75218
0.0437055
0.922707
0.369884
-0.0474715
0.432186
-0.117622
1.01538
-0.115872
1.78069
-0.126944
3.23579
-0.163587
5.2645
-0.187351
8.05169
-0.189494
11.8387
-0.175883
16.7569
-0.1329
22.7676
-0.0517855
29.3108
0.0310627
29.3074
0.0865528
22.7201
0.114009
16.7057
0.127126
11.7844
0.116755
8.00008
0.095548
5.21479
0.0959032
3.18763
0.105767
1.74231
0.041901
0.986573
0.411785
-0.0567002
0.488887
-0.134068
1.09275
-0.148719
1.79534
-0.151616
3.23868
-0.198157
5.31104
-0.222957
8.07649
-0.229962
11.8457
-0.218917
16.7459
-0.16929
22.718
-0.0608031
29.2023
0.0500284
29.1966
0.117687
22.6524
0.146124
16.6772
0.158312
11.7722
0.1504
8.00799
0.119918
5.24527
0.127804
3.17974
0.122004
1.74811
0.0510658
1.05751
0.462851
-0.0750811
0.563968
-0.172886
1.19055
-0.227676
1.85013
-0.231532
3.24254
-0.257312
5.33682
-0.274673
8.09385
-0.270002
11.8411
-0.252156
16.728
-0.198622
22.6644
-0.0699601
29.0736
0.0611147
29.0655
0.13678
22.5768
0.174253
16.6397
0.198117
11.7483
0.202503
8.00361
0.194018
5.25375
0.204875
3.16888
0.160223
1.79276
0.0696305
1.1481
0.532482
-0.0975158
0.661484
-0.222905
1.31594
-0.324862
1.95208
-0.34645
3.26413
-0.347328
5.3377
-0.362202
8.10872
-0.342317
11.8212
-0.297254
16.683
-0.2324
22.5996
-0.0822596
28.9235
0.0719123
28.9114
0.160826
22.4879
0.230521
16.57
0.276748
11.7021
0.284452
7.9959
0.305421
5.23279
0.300055
3.17425
0.207508
1.88531
0.0907598
1.26485
0.623241
-0.115506
0.77699
-0.264467
1.4649
-0.401248
2.08886
-0.454664
3.31754
-0.451048
5.33409
-0.471474
8.12915
-0.446359
11.7961
-0.357095
16.5937
-0.261945
22.5044
-0.0927716
28.7543
0.0784282
28.7402
0.199798
22.3665
0.319278
16.4506
0.37361
11.6477
0.380067
7.98945
0.408055
5.2048
0.372617
3.20969
0.248105
2.00982
0.108113
1.40484
0.731354
-0.129276
0.906266
-0.299741
1.63537
-0.463849
2.25297
-0.555734
3.40943
-0.574359
5.35271
-0.599082
8.15387
-0.578783
11.7758
-0.477936
16.4929
-0.335403
22.3619
-0.112564
28.5315
0.115378
28.5122
0.291099
22.1908
0.432926
16.3087
0.48644
11.5942
0.497656
7.97823
0.508754
5.1937
0.43413
3.28431
0.281117
2.16284
0.120478
1.56548
0.851833
-0.144603
1.05087
-0.34007
1.83084
-0.539394
2.4523
-0.676646
3.54668
-0.725203
5.40127
-0.742295
8.17097
-0.721716
11.7552
-0.642472
16.4136
-0.453774
22.1732
-0.12935
28.2071
0.205184
28.1777
0.42466
21.9713
0.549831
16.1836
0.612165
11.5319
0.633276
7.95712
0.612704
5.21427
0.496225
3.40079
0.313129
2.34593
0.130409
1.7482
0.982242
-0.153696
1.20456
-0.371895
2.04903
-0.602348
2.68275
-0.779872
3.7242
-0.862123
5.48352
-0.865051
8.17389
-0.831393
11.7215
-0.759506
16.3417
-0.54504
21.9587
-0.155475
27.8175
0.247783
27.7744
0.49718
21.7219
0.624988
16.0558
0.718386
11.4385
0.763203
7.9123
0.714524
5.26295
0.557968
3.55735
0.343819
2.56008
0.139091
1.95293
1.12133
-0.16245
1.36701
-0.40155
2.28813
-0.658299
2.9395
-0.872419
3.93832
-0.986314
5.59741
-0.981744
8.16932
-0.921997
11.6618
-0.827504
16.2472
-0.589655
21.7209
-0.183324
27.4112
0.238143
27.353
0.518972
21.4411
0.684693
15.89
0.814977
11.3082
0.868939
7.85834
0.789191
5.3427
0.599029
3.74751
0.360647
2.79846
0.140581
2.173
1.26191
-0.162237
1.52925
-0.413824
2.53972
-0.698614
3.22429
-0.955125
4.19483
-1.11838
5.76067
-1.14252
8.19346
-1.08421
11.6035
-0.95154
16.1146
-0.672333
21.4417
-0.226015
26.9648
0.246061
26.8809
0.575673
21.1115
0.801223
15.6645
0.947647
11.1618
0.984157
7.82183
0.861492
5.46536
0.634278
3.97472
0.371476
3.06126
0.137153
2.40732
1.39907
-0.172441
1.70169
-0.447518
2.8148
-0.755289
3.53206
-1.04731
4.48686
-1.26479
5.97815
-1.34524
8.27391
-1.30685
11.5651
-1.13359
15.9413
-0.797093
21.1052
-0.274914
26.4427
0.280776
26.3252
0.681112
20.7111
0.961209
15.3844
1.09712
11.0259
1.08567
7.83328
0.908531
5.64251
0.644594
4.23866
0.36462
3.34124
0.123879
2.64806
1.52295
-0.158351
1.86004
-0.436771
3.09322
-0.770462
3.86575
-1.1085
4.8249
-1.38764
6.25728
-1.52632
8.41259
-1.51292
11.5517
-1.30295
15.7313
-0.913923
20.7162
-0.335317
25.8641
0.280438
25.7094
0.757319
20.2342
1.08215
15.0596
1.20288
10.9052
1.14427
7.89188
0.928601
5.85818
0.644251
4.52301
0.352811
3.63268
0.106621
2.89425
1.62957
-0.165356
2.0254
-0.455142
3.38301
-0.792943
4.20355
-1.14063
5.17258
-1.453
6.56966
-1.64782
8.60741
-1.65787
11.5617
-1.43503
15.5085
-1.01442
20.2955
-0.412651
25.2623
0.241628
25.0552
0.788952
19.6869
1.13992
14.7086
1.24365
10.8014
1.13706
7.99847
0.885402
6.10983
0.587374
4.82104
0.30262
3.91743
0.073122
3.12375
1.70269
-0.139523
2.16492
-0.418385
3.66187
-0.762107
4.54727
-1.13543
5.5459
-1.48818
6.92242
-1.73265
8.85187
-1.77071
11.5998
-1.57268
15.3105
-1.13753
19.8604
-0.510912
24.6357
0.185221
24.359
0.77799
19.0942
1.12571
14.3609
1.1938
10.7333
1.05033
8.14194
0.797186
6.36297
0.515422
5.1028
0.252291
4.18056
0.0404883
3.33555
1.74318
-0.151305
2.31623
-0.424885
3.93545
-0.750992
4.87338
-1.11012
5.90503
-1.47116
7.28346
-1.76283
9.14354
-1.86347
11.7005
-1.7131
15.1601
-1.28187
19.4292
-0.63132
23.9851
0.106389
23.6213
0.705824
18.4947
1.0313
14.0354
1.06741
10.6972
0.908864
8.30049
0.6658
6.60604
0.410737
5.35786
0.18644
4.40486
0.0105343
3.51146
1.75371
-0.138115
2.45434
-0.397324
4.19466
-0.713835
5.18989
-1.07224
6.26343
-1.44205
7.65328
-1.76284
9.46433
-1.92245
11.8601
-1.82757
15.0652
-1.43551
19.0371
-0.781773
23.3314
-0.025795
22.8653
0.536318
17.9326
0.809982
13.7617
0.822866
10.6844
0.68336
8.43999
0.493225
6.79617
0.294532
5.55656
0.114466
4.58493
-0.00556796
3.63149
1.74814
-0.164915
2.61926
-0.414513
4.44425
-0.711403
5.48678
-1.05637
6.6084
-1.42387
8.02078
-1.75527
9.79572
-1.96733
12.0721
-1.93341
15.0313
-1.59219
18.6959
-0.968776
22.708
-0.250579
22.1471
0.264534
17.4175
0.491905
13.5344
0.507936
10.6683
0.405633
8.5423
0.261754
6.94005
0.119568
5.69874
-3.31437e-06
4.7045
-0.0405255
3.67201
1.70762
-0.197049
2.81631
-0.445419
4.69262
-0.750368
5.79173
-1.10982
6.96785
-1.47876
8.38972
-1.81547
10.1324
-2.05616
12.3128
-2.06683
15.042
-1.77389
18.403
-1.19896
22.133
-0.539018
21.4872
-0.0851839
16.9637
0.115237
13.3339
0.149167
10.6344
0.102994
8.58847
0.0296176
7.01343
-0.0459228
5.77428
-0.0950655
4.75364
-0.083005
3.65995
1.62461
-0.297089
3.1134
-0.556548
4.95208
-0.908293
6.14348
-1.28273
7.34229
-1.64254
8.74953
-1.96864
10.4585
-2.19484
12.539
-2.23033
15.0775
-1.99109
18.1637
-1.47324
21.6152
-0.883953
20.8979
-0.479688
16.5594
-0.28772
13.142
-0.218494
10.5652
-0.209515
8.57949
-0.218801
7.02271
-0.22635
5.78183
-0.219572
4.74686
-0.145199
3.58558
1.47941
-0.420965
3.53436
-0.847254
5.37837
-1.25275
6.54897
-1.59986
7.6894
-1.93821
9.08788
-2.23387
10.7542
-2.43294
12.7381
-2.46765
15.1122
-2.26061
17.9567
-1.79083
21.1454
-1.26817
20.3753
-0.905297
16.1965
-0.703741
12.9404
-0.588481
10.4499
-0.521088
8.5121
-0.478653
6.98028
-0.435041
5.73822
-0.351303
4.66312
-0.19865
3.43293
1.28076
-0.286881
3.82124
-0.637372
5.72886
-0.952565
6.86417
-1.3053
8.04214
-1.66642
9.44899
-2.00247
11.0902
-2.2792
13.0148
-2.43748
15.2705
-2.4017
17.9209
-2.0828
20.8265
-1.65585
19.9483
-1.3184
15.8591
-1.08784
12.7098
-0.909537
10.2716
-0.749704
8.35226
-0.597372
6.82795
-0.462226
5.60308
-0.326592
4.52749
-0.156363
3.2627
1.1244
-0.124593
3.94584
-0.274393
5.87866
-0.524681
7.11446
-0.818061
8.33552
-1.10544
9.73637
-1.37139
11.3562
-1.58995
13.2334
-1.72706
15.4076
-1.72133
17.9152
-1.4919
20.5971
-1.18471
19.6411
-0.925328
15.5997
-0.715203
12.4997
-0.539768
10.0962
-0.391533
8.20403
-0.257374
6.69379
-0.124762
5.47046
-0.0346472
4.43738
0.0224624
3.20559
1.14686
-0.102747
4.04858
-0.201088
5.977
-0.347617
7.26098
-0.540213
8.52812
-0.748776
9.94494
-0.950443
11.5579
-1.12814
13.4111
-1.24956
15.529
-1.26054
17.9261
-1.10337
20.4399
-0.882382
19.4201
-0.683993
15.4013
-0.511168
12.3269
-0.361934
9.94694
-0.237334
8.07943
-0.139311
6.59576
-0.0580243
5.38918
0.0246265
4.35473
0.0561514
3.17406
1.20301
-0.0567701
4.10535
-0.141149
6.06138
-0.251477
7.37131
-0.382769
8.65941
-0.524576
10.0867
-0.679247
11.7125
-0.823036
13.5549
-0.926729
15.6327
-0.947262
17.9467
-0.845665
20.3383
-0.68453
19.259
-0.531867
15.2486
-0.396032
12.1911
-0.279118
9.83002
-0.180752
7.98106
-0.0973365
6.51235
-0.0271659
5.31901
0.0368238
4.29074
0.0663225
3.14456
1.26934
0.00314697
4.10221
-0.146515
6.21104
-0.24399
7.46879
-0.311657
8.72708
-0.391651
10.1667
-0.507591
11.8285
-0.622776
13.67
-0.710664
15.7206
-0.737669
17.9737
-0.676826
20.2775
-0.560468
19.1426
-0.446564
15.1347
-0.346707
12.0912
-0.255808
9.73913
-0.169097
7.89435
-0.0813694
6.42462
0.00211121
5.23553
0.0577657
4.23508
0.0650458
3.13728
1.33438
-0.00194117
4.10415
-0.0956653
6.30477
-0.181483
7.5546
-0.246792
8.79239
-0.326357
10.2463
-0.410589
11.9127
-0.498219
13.7577
-0.569732
15.7921
-0.599908
18.0038
-0.567978
20.2455
-0.485829
19.0605
-0.39623
15.0451
-0.307486
12.0025
-0.217733
9.64937
-0.128514
7.80513
-0.0541414
6.35025
-0.00181421
5.1832
0.0408015
4.19247
0.0488065
3.12928
1.38319
-0.0145235
4.11867
-0.0738446
6.36409
-0.130871
7.61163
-0.195406
8.85692
-0.276515
10.3274
-0.351847
11.988
-0.421401
13.8272
-0.48076
15.8514
-0.512333
18.0354
-0.499476
20.2327
-0.436634
18.9977
-0.353887
14.9624
-0.266855
11.9154
-0.191997
9.57451
-0.140516
7.75365
-0.0964504
6.30618
-0.0432178
5.12997
-0.0010013
4.15025
0.0122694
3.11601
1.39546
0.0196525
4.09902
-0.0310249
6.41477
-0.0925995
7.67321
-0.165123
8.92944
-0.24092
10.4032
-0.310227
12.0573
-0.371257
13.8883
-0.424299
15.9045
-0.455634
18.0668
-0.454297
20.2313
-0.404713
18.9481
-0.335437
14.8931
-0.266755
11.8467
-0.196586
9.50435
-0.107961
7.66503
-0.0354158
6.23364
-0.00487036
5.09942
0.00405834
4.14132
-0.0100996
3.13017
1.38536
0.0150729
4.08394
-0.0211507
6.45099
-0.0686409
7.7207
-0.144203
9.00501
-0.215605
10.4746
-0.280637
12.1224
-0.336949
13.9446
-0.386426
15.954
-0.417317
18.0976
-0.425657
20.2397
-0.388583
18.911
-0.325722
14.8302
-0.252118
11.7731
-0.189374
9.4416
-0.166158
7.64181
-0.145684
6.21316
-0.105665
5.0594
-0.0479444
4.0836
-0.0110714
3.09329
1.37429
0.0236911
4.06025
-1.01584e-05
6.47469
-0.0544674
7.77515
-0.126064
9.0766
-0.194145
10.5427
-0.254945
12.1832
-0.31018
13.9998
-0.358523
16.0023
-0.39089
18.13
-0.40966
20.2584
-0.386696
18.888
-0.336965
14.7805
-0.282892
11.7191
-0.227403
9.38611
-0.145585
7.55999
-0.0670553
6.13464
-0.021604
5.01395
-0.00840829
4.0704
-0.0143665
3.09925
1.35992
0.0144133
4.04584
-0.0185383
6.50764
-0.0542357
7.81085
-0.108633
9.131
-0.168092
10.6021
-0.228161
12.2432
-0.285321
14.057
-0.33513
16.0521
-0.372533
18.1674
-0.403214
20.2891
-0.396446
18.8813
-0.35537
14.7394
-0.293935
11.6576
-0.227942
9.32012
-0.190122
7.52217
-0.162613
6.10713
-0.126152
4.97749
-0.0706438
4.0149
-0.0224338
3.05104
1.33749
0.0198398
4.026
-0.0209101
6.54839
-0.0643061
7.85425
-0.101788
9.16848
-0.148895
10.6493
-0.203723
12.2981
-0.260804
14.114
-0.313286
16.1046
-0.358252
18.2124
-0.400303
20.3312
-0.408696
18.8897
-0.381239
14.712
-0.333331
11.6097
-0.275577
9.26237
-0.198131
7.44473
-0.118298
6.02729
-0.0669534
4.92614
-0.0471333
3.99508
-0.0332941
3.0372
1.30419
0.00361876
4.02238
-0.0214772
6.57349
-0.0548244
7.88759
-0.0939066
9.20756
-0.136285
10.6916
-0.185981
12.3478
-0.24038
14.1684
-0.294711
16.1589
-0.346088
18.2638
-0.398349
20.3834
-0.422561
18.9139
-0.409615
14.699
-0.365908
11.566
-0.301266
9.19772
-0.249936
7.3934
-0.208677
5.98603
-0.158738
4.8762
-0.0876705
3.92401
-0.0354419
2.98497
1.26875
0.00645439
4.01593
-0.0273653
6.60731
-0.0532847
7.91351
-0.0861859
9.24046
-0.125094
10.7305
-0.171503
12.3942
-0.223609
14.2206
-0.278352
16.2137
-0.334448
18.3199
-0.394875
20.4439
-0.431322
18.9503
-0.433181
14.7009
-0.404796
11.5376
-0.35883
9.15176
-0.283775
7.31834
-0.195945
5.8982
-0.134668
4.81493
-0.107409
3.89675
-0.0604726
2.93804
1.20828
0.00391985
4.01201
-0.018696
6.62992
-0.0436916
7.93851
-0.0781291
9.2749
-0.115121
10.7675
-0.159448
12.4385
-0.209593
14.2707
-0.264296
16.2684
-0.323367
18.3789
-0.390217
20.5107
-0.439405
18.9995
-0.461807
14.7233
-0.443995
11.5198
-0.391442
9.0992
-0.333241
7.26014
-0.279464
5.84443
-0.208628
4.74409
-0.119697
3.80782
-0.0580541
2.8764
1.15022
0.00861117
4.0034
-0.0159182
6.65445
-0.0379953
7.96059
-0.0721366
9.30904
-0.107673
10.8031
-0.149299
12.4801
-0.196681
14.3181
-0.250725
16.3224
-0.311989
18.4402
-0.384507
20.5832
-0.442824
19.0578
-0.475899
14.7564
-0.477233
11.5212
-0.454037
9.07601
-0.397308
7.20341
-0.313516
5.76063
-0.237405
4.66798
-0.176719
3.74713
-0.088808
2.78848
1.06142
0.00556505
3.99783
-0.0161404
6.67616
-0.0350865
7.97953
-0.0681124
9.34207
-0.1018
10.8368
-0.140601
12.5189
-0.184968
14.3624
-0.238304
16.3758
-0.30084
18.5027
-0.377334
20.6597
-0.445321
19.1258
-0.493303
14.8044
-0.517211
11.5451
-0.497537
9.05633
-0.449169
7.15505
-0.390854
5.70232
-0.305444
4.58257
-0.184681
3.62637
-0.0872427
2.69105
0.974173
0.0101294
3.9877
-0.00510266
6.69139
-0.0283009
8.00273
-0.0621272
9.3759
-0.0947719
10.8694
-0.131618
12.5558
-0.173906
14.4047
-0.226076
16.4279
-0.288988
18.5656
-0.368547
20.7393
-0.444686
19.2019
-0.500826
14.8605
-0.5327
11.5769
-0.547187
9.07082
-0.530227
7.13809
-0.475197
5.64729
-0.39153
4.4989
-0.284712
3.51955
-0.133016
2.53935
0.841157
0.0058833
3.98182
-0.0129981
6.71027
-0.0266413
8.01637
-0.0561897
9.40544
-0.0872442
10.9005
-0.122409
12.5909
-0.16331
14.4456
-0.214364
16.479
-0.276998
18.6283
-0.358127
20.8204
-0.441655
19.2855
-0.511257
14.9301
-0.560099
11.6258
-0.579648
9.09037
-0.570618
7.12906
-0.535668
5.61234
-0.461723
4.42496
-0.32748
3.38531
-0.162648
2.37452
0.678509
0.0060362
3.97578
-0.00952632
6.72583
-0.0293256
8.03617
-0.054279
9.4304
-0.0811557
10.9273
-0.113919
12.6237
-0.153843
14.4856
-0.203933
16.5291
-0.266212
18.6905
-0.348789
20.903
-0.438446
19.3751
-0.517004
15.0087
-0.576399
11.6852
-0.615869
9.12984
-0.642953
7.15614
-0.637174
5.60656
-0.598462
4.38625
-0.491376
3.27822
-0.186722
2.06986
0.491787
-7.97657e-05
3.97586
-0.00992173
6.73568
-0.0278053
8.05406
-0.0526743
9.45527
-0.077936
10.9526
-0.111066
12.6568
-0.152866
14.5274
-0.205921
16.5821
-0.273327
18.758
-0.365033
20.9947
-0.470332
19.4804
-0.571264
15.1096
-0.66185
11.7758
-0.728878
9.19687
-0.756919
7.18418
-0.756021
5.60566
-0.711786
4.34201
-0.621577
3.18801
-0.415167
1.86345
0.88131
-0.80469
0.00186957
3.97399
-0.0112604
6.74881
-0.0256209
8.06842
-0.045882
9.47553
-0.071971
10.9787
-0.104882
12.6897
-0.14691
14.5694
-0.200414
16.6356
-0.269856
18.8274
-0.366857
21.0917
-0.483383
19.597
-0.600715
15.2269
-0.711643
11.8867
-0.811003
9.29623
-0.904959
7.27814
-1.00645
5.70716
-1.10015
4.4357
-1.03352
3.12138
-0.927899
1.75784
1.28122
-1.32781
0.00618682
3.96781
-0.00106947
6.75606
-0.0192439
8.08659
-0.0417222
9.49801
-0.0700126
11.007
-0.0994256
12.7192
-0.140991
14.611
-0.194667
16.6893
-0.266201
18.8989
-0.368148
21.1936
-0.495078
19.7239
-0.631148
15.363
-0.774822
12.0304
-0.919592
9.441
-1.05498
7.41353
-1.15884
5.81102
-1.18765
4.46451
-1.06901
3.00275
-1.29439
1.98322
1.64151
-1.65469
-0.00323269
3.97104
-0.0130922
6.76592
-0.0310823
8.10458
-0.0472293
9.51415
-0.0696541
11.0294
-0.0938169
12.7433
-0.134437
14.6516
-0.187647
16.7425
-0.260776
18.9721
-0.367121
21.3
-0.503625
19.8604
-0.655543
15.5149
-0.821913
12.1967
-1.00289
9.62198
-1.20054
7.61117
-1.37409
5.98457
-1.39354
4.48396
-1.40629
3.01551
-1.68343
2.26036
1.89504
-1.93696
-0.00758101
3.97862
-0.0144935
6.77283
-0.0223864
8.11247
-0.0379696
9.52974
-0.0587378
11.0502
-0.0875823
12.7722
-0.127817
14.6918
-0.18063
16.7953
-0.255016
19.0464
-0.365056
21.41
-0.509681
20.005
-0.677173
15.6824
-0.873063
12.3926
-1.08541
9.83432
-1.28566
7.81142
-1.40762
6.10653
-1.41583
4.49217
-1.57419
3.17386
-1.86021
2.54638
2.10561
-2.07078
0.00609089
3.97253
-0.00255114
6.78148
-0.010552
8.12047
-0.0304059
9.54959
-0.0524256
11.0722
-0.0852237
12.805
-0.125124
14.7317
-0.178294
16.8485
-0.253946
19.1221
-0.367709
21.5238
-0.519641
20.1569
-0.697665
15.8604
-0.906286
12.6012
-1.12618
10.0542
-1.33118
8.01642
-1.53322
6.30857
-1.68609
4.64504
-1.92621
3.41399
-2.18427
2.80444
2.24601
-2.32467
0.0134102
3.95912
-0.00100335
6.79589
-0.0214395
8.14091
-0.0416665
9.56982
-0.0596427
11.0902
-0.087473
12.8328
-0.126947
14.7712
-0.180582
16.9021
-0.257854
19.1994
-0.375733
21.6417
-0.533734
20.3149
-0.7183
16.045
-0.936454
12.8194
-1.18064
10.2984
-1.4115
8.24728
-1.5439
6.44097
-1.66846
4.7696
-1.94989
3.69542
-2.19059
3.04514
2.44533
-2.38991
0.00390346
3.95522
-0.00785928
6.80765
-0.0215466
8.1546
-0.0394819
9.58775
-0.0603038
11.111
-0.0881138
12.8606
-0.12842
14.8115
-0.182197
16.9559
-0.260514
19.2777
-0.381867
21.763
-0.545403
20.4785
-0.731814
16.2314
-0.94545
13.033
-1.19396
10.5469
-1.43804
8.49135
-1.61586
6.6188
-1.87113
5.02487
-2.32688
4.15116
-2.72189
3.44015
2.74374
-3.0203
-0.000266532
3.95548
-0.00639999
6.81379
-0.012782
8.16098
-0.0324288
9.6074
-0.0558815
11.1344
-0.0884048
12.8931
-0.129527
14.8526
-0.183897
17.0103
-0.262847
19.3566
-0.386704
21.8869
-0.555849
20.6476
-0.74485
16.4204
-0.94564
13.2338
-1.18648
10.7878
-1.46783
8.7727
-1.72337
6.87434
-1.95935
5.26084
-2.39279
4.5846
-2.89819
3.94556
2.95663
-3.11108
0.0132229
3.94226
-0.000526449
6.82753
-0.0175293
8.17798
-0.0397198
9.62959
-0.0606156
11.1553
-0.0902225
12.9227
-0.130048
14.8924
-0.184465
17.0647
-0.262939
19.4351
-0.386902
22.0108
-0.556885
20.8176
-0.744945
16.6085
-0.949176
13.4381
-1.16279
11.0014
-1.40295
9.01286
-1.6581
7.1295
-2.15807
5.76081
-2.55631
4.98285
-3.08091
4.47015
3.74054
-3.86482
0.00966144
3.9326
-0.00247954
6.83968
-0.0186012
8.1941
-0.0400212
9.65101
-0.0631504
11.1785
-0.0911487
12.9507
-0.130014
14.9313
-0.182801
17.1175
-0.2582
19.5105
-0.375852
22.1285
-0.531455
20.9732
-0.702363
16.7794
-0.890322
13.626
-1.08487
11.1959
-1.2663
9.19429
-1.50552
7.36872
-1.87485
6.13014
-2.07197
5.17997
-1.51559
3.91377
2.22496
0.00814305
3.92445
-0.0030003
6.85082
-0.0136891
8.20479
-0.0330787
9.6704
-0.0587437
11.2041
-0.0900259
12.982
-0.130891
14.9722
-0.186218
17.1728
-0.264206
19.5885
-0.384167
22.2485
-0.537947
21.127
-0.705845
16.9473
-0.887492
13.8077
-1.06008
11.3685
-1.16281
9.29702
-1.23786
7.44376
-1.18707
6.07936
-1.06459
5.05749
-0.74013
3.58931
1.48483
0.0107237
3.91373
0.00272763
6.85882
-0.0101183
8.21764
-0.0321862
9.69247
-0.057211
11.2292
-0.0879563
13.0128
-0.129475
15.0137
-0.186376
17.2297
-0.264723
19.6668
-0.38446
22.3682
-0.536156
21.2787
-0.693148
17.1043
-0.848209
13.9627
-0.96664
11.4869
-0.999337
9.32972
-0.999961
7.44438
-1.03042
6.10981
-1.01189
5.03896
-0.827091
3.40451
0.657736
0.0195405
3.89419
0.00848159
6.86987
-0.00740931
8.23353
-0.0309906
9.71605
-0.0554126
11.2536
-0.0836798
13.041
-0.125379
15.0554
-0.18224
17.2866
-0.25897
19.7436
-0.375151
22.4844
-0.518399
21.4219
-0.654875
17.2407
-0.769849
14.0777
-0.839957
11.557
-0.868553
9.35832
-0.89164
7.46747
-0.945279
6.16345
-0.876802
4.97048
-0.410858
2.93856
0.246878
0.0151296
3.87906
0.0100162
6.87499
-0.00146185
8.24501
-0.0235333
9.73812
-0.0483204
11.2784
-0.0763121
13.069
-0.120277
15.0993
-0.173437
17.3397
-0.246683
19.8168
-0.355539
22.5932
-0.484159
21.5506
-0.590284
17.3469
-0.654602
14.142
-0.71107
11.6135
-0.753024
9.40027
-0.779749
7.4942
-0.767457
6.15116
-0.581461
4.78448
-0.17933
2.53643
0.0675482
0.0238477
3.85521
0.0182155
6.88062
0.00534777
8.25788
-0.0176428
9.76111
-0.0388317
11.2996
-0.0654253
13.0956
-0.110006
15.1439
-0.156695
17.3864
-0.225342
19.8855
-0.322697
22.6906
-0.426466
21.6543
-0.500421
17.4208
-0.542964
14.1846
-0.581808
11.6524
-0.595271
9.41373
-0.606211
7.50514
-0.515866
6.06081
-0.335574
4.60419
-0.133026
2.33388
-0.0654774
0.0234291
3.83178
0.022858
6.88119
0.0134331
8.2673
-0.00942882
9.78397
-0.0232638
11.3134
-0.0522138
13.1246
-0.0933539
15.1851
-0.133006
17.4261
-0.195342
19.9478
-0.277542
22.7728
-0.353739
21.7305
-0.403996
17.4711
-0.43241
14.213
-0.417975
11.6379
-0.388274
9.38403
-0.334289
7.45115
-0.231959
5.95848
-0.0804895
4.45272
0.0241813
2.22921
-0.0412961
0.0332972
3.79849
0.0309639
6.88352
0.0237597
8.2745
0.00327283
9.80446
-0.00113106
11.3178
-0.0340323
13.1575
-0.0643712
15.2154
-0.0995681
17.4613
-0.153619
20.0019
-0.219247
22.8384
-0.271463
21.7827
-0.298451
17.4981
-0.298132
14.2127
-0.23942
11.5792
-0.15231
9.29692
-0.0225777
7.32142
0.0933528
5.84255
0.170971
4.37511
0.138819
2.26137
0.0975234
0.0339646
3.76452
0.0403847
6.8771
0.0392107
8.27568
0.027316
9.81635
0.0197086
11.3254
-0.0126866
13.1899
-0.0249157
15.2276
-0.059421
17.4958
-0.101748
20.0442
-0.149791
22.8865
-0.179465
21.8124
-0.180587
17.4992
-0.145918
14.178
-0.0638534
11.4971
0.0424415
9.19063
0.167281
7.19658
0.304137
5.7057
0.381533
4.29771
0.244456
2.39844
0.341979
0.048507
3.71601
0.0554867
6.87012
0.0591664
8.272
0.0523294
9.82319
0.0463665
11.3314
0.0296306
13.2066
0.024998
15.2323
-0.00972089
17.5305
-0.0380188
20.0725
-0.0684738
22.9169
-0.0783949
21.8223
-0.0556034
17.4764
0.00985583
14.1125
0.104485
11.4025
0.19226
9.10285
0.274605
7.11424
0.367722
5.61258
0.437772
4.22766
0.307466
2.52875
0.649445
0.055031
3.66098
0.0766761
6.84848
0.0868882
8.26179
0.0875192
9.82256
0.0872419
11.3316
0.0852011
13.2086
0.0789831
15.2385
0.0645587
17.5449
0.0443371
20.0927
0.0252301
22.936
0.0335983
21.814
0.0784179
17.4316
0.144483
14.0465
0.207907
11.3391
0.256364
9.0544
0.301244
7.06936
0.368693
5.54513
0.408214
4.18814
0.288735
2.64823
0.93818
0.0748801
3.5861
0.100583
6.82278
0.119474
8.2429
0.12943
9.8126
0.140758
11.3203
0.152093
13.1973
0.15351
15.2371
0.158523
17.5399
0.150618
20.1006
0.146134
22.9405
0.163857
21.7962
0.200736
17.3947
0.243052
14.0041
0.287025
11.2951
0.319944
9.02148
0.347034
7.04227
0.383382
5.50878
0.374738
4.19678
0.237358
2.78561
1.17554
0.0884555
3.49765
0.136901
6.77433
0.165778
8.21402
0.187367
9.79101
0.21147
11.2962
0.232091
13.1767
0.246899
15.2223
0.266228
17.5206
0.270527
20.0963
0.275626
22.9354
0.288457
21.7834
0.316032
17.3671
0.354938
13.9652
0.401393
11.2487
0.428856
8.99401
0.424905
7.04622
0.407041
5.52665
0.34569
4.25813
0.190579
2.94072
1.36612
0.112663
3.38498
0.173822
6.71317
0.220877
8.16696
0.261654
9.75024
0.299617
11.2582
0.334508
13.1418
0.371506
15.1853
0.399852
17.4922
0.414928
20.0812
0.424502
22.9258
0.43265
21.7753
0.458109
17.3417
0.494944
13.9284
0.529057
11.2145
0.530461
8.99261
0.479254
7.09742
0.420275
5.58563
0.328612
4.3498
0.172765
3.09656
1.53888
0.143777
3.24121
0.23824
6.61871
0.301166
8.10404
0.357841
9.69356
0.411723
11.2044
0.463225
13.0903
0.520655
15.1278
0.560212
17.4527
0.586488
20.055
0.601682
22.9106
0.607595
21.7694
0.619069
17.3302
0.635569
13.9119
0.646593
11.2035
0.634934
9.00427
0.557918
7.17444
0.464618
5.67893
0.340238
4.47418
0.166234
3.27057
1.70512
0.187087
3.05412
0.307568
6.49823
0.400118
8.01149
0.485518
9.60816
0.559995
11.1299
0.632361
13.0179
0.709348
15.0508
0.765368
17.3966
0.803305
20.017
0.819416
22.8945
0.805394
21.7834
0.781855
17.3537
0.760154
13.9336
0.731927
11.2318
0.702079
9.03412
0.601239
7.27528
0.480158
5.80001
0.333206
4.62113
0.150215
3.45356
1.85533
0.252536
2.80158
0.428557
6.32221
0.545986
7.89406
0.652482
9.50167
0.749755
11.0326
0.84831
12.9194
0.947144
14.952
1.02311
17.3207
1.0741
19.966
1.08206
22.8866
1.03755
21.8279
0.973648
17.4176
0.904476
14.0028
0.824755
11.3115
0.75934
9.09953
0.642725
7.3919
0.496574
5.94616
0.330504
4.7872
0.134918
3.64915
1.99025
0.341538
2.46005
0.574045
6.0897
0.738623
7.72948
0.886944
9.35335
1.01236
10.9072
1.13641
12.7953
1.26195
14.8265
1.35905
17.2236
1.42262
19.9025
1.4239
22.8853
1.35325
21.8985
1.24257
17.5283
1.11427
14.1311
0.964151
11.4616
0.815507
9.24817
0.657762
7.54964
0.482455
6.12146
0.305915
4.96374
0.118353
3.83671
2.1086
0.492618
1.96743
0.81922
5.7631
1.02083
7.52787
1.19537
9.17881
1.35075
10.7518
1.51285
12.6332
1.67112
14.6682
1.79118
17.1035
1.87495
19.8187
1.8801
22.8801
1.79036
21.9883
1.63322
17.6855
1.44899
14.3153
1.24338
11.6672
1.01518
9.47638
0.810503
7.75432
0.595646
6.33632
0.387747
5.17164
0.167235
4.05722
2.27584
0.671873
1.29556
1.12375
5.31122
1.4015
7.25011
1.63104
8.94927
1.82752
10.5553
2.02515
12.4356
2.21402
14.4793
2.37322
16.9443
2.49368
19.6982
2.51692
22.8569
2.4176
22.0876
2.22866
17.8744
2.0004
14.5436
1.746
11.9216
1.44464
9.77774
1.15435
8.0446
0.851803
6.63887
0.561716
5.46172
0.269121
4.34982
2.54496
0.577903
0.717653
1.04344
4.84568
1.35717
6.93638
1.59365
8.7128
1.78326
10.3657
1.95308
12.2658
2.08158
14.3508
2.16642
16.8595
2.18077
19.6839
2.08867
22.949
1.9055
22.2707
1.68716
18.0927
1.46158
14.7691
1.23952
12.1437
0.995866
10.0214
0.788501
8.25197
0.585485
6.84189
0.398493
5.64871
0.195832
4.55248
2.74079
0.0686144
0.649039
0.305846
4.60845
0.574857
6.66737
0.832267
8.45539
1.07596
10.122
1.28765
12.0541
1.46092
14.1776
1.59836
16.722
1.66667
19.6156
1.62908
22.9866
1.48893
22.4109
1.30208
18.2796
1.10143
14.9698
0.910453
12.3346
0.709633
10.2222
0.524529
8.43707
0.365538
7.00088
0.221965
5.79229
0.0912312
4.68321
2.83202
-0.223163
0.872202
-0.140482
4.52577
0.0629724
6.46391
0.309321
8.20904
0.548812
9.88253
0.774881
11.828
0.976678
13.9758
1.13835
16.5604
1.23562
19.5183
1.24235
22.9799
1.14258
22.5107
0.991973
18.4302
0.823107
15.1387
0.663483
12.4943
0.505283
10.3804
0.363874
8.57848
0.238825
7.12593
0.12921
5.9019
0.0427673
4.76966
2.87479
-0.302739
1.17494
-0.242966
4.466
-0.119842
6.34079
0.0325545
8.05664
0.223125
9.69196
0.430011
11.6211
0.632817
13.773
0.7947
16.3985
0.897703
19.4153
0.92395
22.9536
0.860302
22.5743
0.748822
18.5417
0.614974
15.2725
0.486395
12.6228
0.367012
10.4998
0.260981
8.68451
0.171269
7.21564
0.0956318
5.97754
0.0242527
4.84103
2.89904
-0.286567
1.46151
-0.270052
4.44948
-0.184338
6.25508
-0.0645959
7.9369
0.088865
9.5385
0.256894
11.4531
0.411347
13.6185
0.544475
16.2654
0.644677
19.3151
0.68457
22.9137
0.646261
22.6126
0.564929
18.623
0.462073
15.3754
0.36298
12.7219
0.276551
10.5862
0.193776
8.76729
0.117889
7.29153
0.0503715
6.04506
-0.00888112
4.90029
2.89016
-0.218513
1.68002
-0.247733
4.4787
-0.1833
6.19064
-0.0650134
7.81861
0.0547389
9.41875
0.17277
11.3351
0.27907
13.5122
0.378332
16.1661
0.46702
19.2264
0.509123
22.8716
0.48668
22.6351
0.427589
18.6821
0.350043
15.4529
0.272428
12.7995
0.204584
10.6541
0.134793
8.83708
0.0657581
7.36056
0.00126251
6.10955
-0.0374387
4.93899
2.85272
-0.160269
1.84029
-0.210047
4.52848
-0.169059
6.14966
-0.0716513
7.72121
0.0257292
9.32137
0.116177
11.2446
0.187642
13.4407
0.274949
16.0788
0.346687
19.1547
0.380785
22.8375
0.366612
22.6492
0.32412
18.7246
0.265463
15.5116
0.199441
12.8656
0.140624
10.7129
0.0810705
8.89663
0.0240241
7.41761
-0.0239493
6.15753
-0.047845
4.96288
2.80488
-0.117662
1.95795
-0.165608
4.57643
-0.151228
6.13528
-0.0916253
7.6616
-0.0222621
9.252
0.0531026
11.1692
0.127375
13.3665
0.20923
15.9969
0.263988
19.0999
0.286845
22.8147
0.276351
22.6597
0.243052
18.7579
0.19621
15.5584
0.139823
12.922
0.0874118
10.7653
0.0372698
8.94677
-0.00375184
7.45863
-0.0381789
6.19195
-0.0493083
4.97401
2.75557
-0.0895271
2.04748
-0.134014
4.62091
-0.134444
6.13571
-0.102729
7.62989
-0.0713954
9.22067
-0.00375807
11.1016
0.0742727
13.2884
0.155402
15.9158
0.19315
19.0622
0.213055