/*--------------------------------*- C++ -*----------------------------------*\
| =========                 |                                                 |
| \\      /  F ield         | OpenFOAM: The Open Source CFD Toolbox           |
|  \\    /   O peration     | Version:  2412                                  |
|   \\  /    A nd           | Website:  www.openfoam.com                      |
|    \\/     M anipulation  |                                                 |
\*---------------------------------------------------------------------------*/
FoamFile
{
    version     2.0;
    format      ascii;
    arch        "LSB;label=32;scalar=64";
    class       volVectorField;
    location    "3.5";
    object      U;
}
// * * * * * * * * * * * * * * * * * * * * * * * * * * * * * * * * * * * * * //

dimensions      [0 1 -1 0 0 0 0];

internalField   nonuniform List<vector> 
2200
(
(0.367663 0.000950327 0)
(1.18929 -0.00308481 0)
(2.12067 -0.000189153 0)
(3.16808 0.000507835 0)
(4.32559 0.00138234 0)
(5.57143 0.00262721 0)
(6.86327 0.00281406 0)
(8.1214 0.00307356 0)
(9.20817 0.00344979 0)
(9.90174 0.00270727 0)
(9.90113 0.00172223 0)
(9.20657 0.00017026 0)
(8.12102 -0.000344706 0)
(6.86377 -0.00022774 0)
(5.57164 -0.00028889 0)
(4.32505 3.49472e-05 0)
(3.16781 0.000283279 0)
(2.12054 0.00102623 0)
(1.1888 0.00378866 0)
(0.366729 -0.000874319 0)
(0.372213 0.00655588 0)
(1.17816 0.00139039 0)
(2.11959 0.00380085 0)
(3.16888 0.0038464 0)
(4.32492 0.00614226 0)
(5.57289 0.00849926 0)
(6.86313 0.00972351 0)
(8.11825 0.0101599 0)
(9.20329 0.00895545 0)
(9.89736 0.00732738 0)
(9.89775 0.00375853 0)
(9.20381 0.000670857 0)
(8.11855 -0.00160639 0)
(6.86199 -0.00253707 0)
(5.57077 -0.0030832 0)
(4.32403 -0.00208417 0)
(3.16755 -0.001324 0)
(2.1169 -0.00246183 0)
(1.1751 0.000241999 0)
(0.36982 -0.00665642 0)
(0.396136 0.0104807 0)
(1.17814 0.0129957 0)
(2.12376 0.0110311 0)
(3.16831 0.0137995 0)
(4.32407 0.016324 0)
(5.568 0.0172471 0)
(6.86231 0.0176094 0)
(8.1175 0.0173551 0)
(9.20152 0.0160707 0)
(9.89285 0.0115533 0)
(9.89281 0.00564972 0)
(9.1994 -0.000183779 0)
(8.11432 -0.00367752 0)
(6.85878 -0.00626138 0)
(5.56501 -0.0078004 0)
(4.32103 -0.00835941 0)
(3.16394 -0.00830579 0)
(2.11842 -0.00755885 0)
(1.17136 -0.0113928 0)
(0.390616 -0.010092 0)
(0.458727 0.011954 0)
(1.1934 0.029008 0)
(2.1417 0.0253644 0)
(3.17598 0.0345874 0)
(4.33338 0.0287743 0)
(5.57105 0.0328221 0)
(6.85643 0.0292161 0)
(8.10886 0.0278149 0)
(9.1943 0.0239934 0)
(9.88396 0.0167528 0)
(9.88429 0.00709918 0)
(9.19056 -0.00259959 0)
(8.10475 -0.00897795 0)
(6.84984 -0.0132124 0)
(5.56308 -0.018949 0)
(4.32326 -0.0180922 0)
(3.166 -0.0263332 0)
(2.12932 -0.0194871 0)
(1.18137 -0.0265232 0)
(0.449892 -0.0106462 0)
(0.540822 0.00798871 0)
(1.22935 0.0412245 0)
(2.14928 0.0370455 0)
(3.19651 0.0465269 0)
(4.34499 0.0523599 0)
(5.58562 0.0456294 0)
(6.86185 0.0452383 0)
(8.10829 0.0389513 0)
(9.18802 0.032772 0)
(9.87272 0.0219472 0)
(9.87315 0.00697523 0)
(9.18142 -0.00626124 0)
(8.09958 -0.0149886 0)
(6.85027 -0.024487 0)
(5.57058 -0.0289256 0)
(4.32644 -0.0391162 0)
(3.17667 -0.0352252 0)
(2.12672 -0.031155 0)
(1.20956 -0.0379398 0)
(0.520525 -0.00721738 0)
(0.626602 0.00386863 0)
(1.31438 0.0453623 0)
(2.14249 0.0488513 0)
(3.21691 0.0442684 0)
(4.354 0.0659201 0)
(5.59026 0.0613204 0)
(6.86765 0.0627988 0)
(8.10936 0.0549074 0)
(9.18444 0.0422676 0)
(9.86168 0.0275377 0)
(9.86102 0.00748047 0)
(9.171 -0.00917653 0)
(8.09381 -0.0254344 0)
(6.84779 -0.0382257 0)
(5.56641 -0.0418694 0)
(4.32955 -0.0489332 0)
(3.18827 -0.0344674 0)
(2.11132 -0.042633 0)
(1.28599 -0.043303 0)
(0.605344 -0.0032214 0)
(0.705834 0.0060077 0)
(1.41416 0.0439672 0)
(2.13407 0.0636769 0)
(3.23346 0.0440339 0)
(4.37343 0.0657024 0)
(5.60895 0.0810119 0)
(6.88251 0.0806194 0)
(8.11524 0.0742959 0)
(9.183 0.0619659 0)
(9.84735 0.0372897 0)
(9.84634 0.00491233 0)
(9.16442 -0.0226557 0)
(8.0934 -0.0397712 0)
(6.85513 -0.0512105 0)
(5.57571 -0.0571955 0)
(4.33819 -0.0471811 0)
(3.18956 -0.0335789 0)
(2.09145 -0.0559187 0)
(1.37577 -0.0398261 0)
(0.674384 -0.00479922 0)
(0.792901 0.0120021 0)
(1.51598 0.044806 0)
(2.13938 0.0837461 0)
(3.23914 0.0557999 0)
(4.41038 0.0724063 0)
(5.6239 0.0950674 0)
(6.89188 0.098859 0)
(8.1161 0.0940432 0)
(9.18067 0.0798274 0)
(9.83444 0.0473061 0)
(9.83233 0.00270954 0)
(9.15503 -0.034191 0)
(8.08593 -0.0545378 0)
(6.85229 -0.06595 0)
(5.58067 -0.0707293 0)
(4.36116 -0.0562831 0)
(3.18624 -0.0427453 0)
(2.08703 -0.0771318 0)
(1.46872 -0.0404751 0)
(0.75182 -0.0107755 0)
(0.906882 0.019096 0)
(1.64135 0.0541984 0)
(2.17597 0.111763 0)
(3.24536 0.105049 0)
(4.44744 0.102247 0)
(5.62607 0.112852 0)
(6.88269 0.113299 0)
(8.10266 0.11442 0)
(9.16517 0.0951541 0)
(9.8085 0.0570338 0)
(9.80536 0.00134696 0)
(9.13131 -0.0417979 0)
(8.06377 -0.0692132 0)
(6.83397 -0.0762578 0)
(5.57024 -0.0839103 0)
(4.38365 -0.0831905 0)
(3.17759 -0.0904712 0)
(2.11266 -0.104333 0)
(1.58505 -0.0498169 0)
(0.85701 -0.0183261 0)
(1.05678 0.0259694 0)
(1.80302 0.0653904 0)
(2.27713 0.1453 0)
(3.25439 0.163117 0)
(4.45951 0.158543 0)
(5.63184 0.1468 0)
(6.85654 0.14204 0)
(8.0698 0.134482 0)
(9.12738 0.116317 0)
(9.75884 0.0695764 0)
(9.75554 0.000207168 0)
(9.08551 -0.0544805 0)
(8.01999 -0.0809235 0)
(6.79467 -0.100531 0)
(5.56056 -0.115154 0)
(4.38172 -0.133961 0)
(3.17179 -0.149808 0)
(2.19999 -0.135561 0)
(1.73476 -0.0604743 0)
(0.996195 -0.0246231 0)
(1.24416 0.0307086 0)
(2.0026 0.0753156 0)
(2.42164 0.170473 0)
(3.28875 0.207663 0)
(4.45402 0.214189 0)
(5.64724 0.19754 0)
(6.83675 0.190736 0)
(8.01675 0.159571 0)
(9.06614 0.130172 0)
(9.68184 0.0755531 0)
(9.67724 0.00304157 0)
(9.0153 -0.0592238 0)
(7.95418 -0.0990448 0)
(6.75868 -0.143067 0)
(5.55891 -0.160426 0)
(4.35203 -0.187512 0)
(3.18512 -0.190671 0)
(2.33168 -0.160827 0)
(1.91912 -0.069699 0)
(1.16922 -0.0288239 0)
(1.45291 0.0343918 0)
(2.22955 0.0819007 0)
(2.604 0.193274 0)
(3.3599 0.242272 0)
(4.45531 0.267542 0)
(5.66807 0.259839 0)
(6.83326 0.25705 0)
(7.96916 0.214262 0)
(8.99251 0.159661 0)
(9.56294 0.0927246 0)
(9.5558 0.00134147 0)
(8.92889 -0.0751881 0)
(7.88815 -0.144368 0)
(6.7375 -0.20092 0)
(5.5571 -0.216315 0)
(4.33307 -0.239802 0)
(3.24125 -0.226771 0)
(2.49896 -0.181076 0)
(2.13648 -0.0768931 0)
(1.36826 -0.0315001 0)
(1.69646 0.0363931 0)
(2.49875 0.0934891 0)
(2.82049 0.214848 0)
(3.47734 0.288396 0)
(4.48527 0.329358 0)
(5.68551 0.324257 0)
(6.83235 0.323728 0)
(7.94772 0.289404 0)
(8.94295 0.217941 0)
(9.47439 0.125716 0)
(9.46607 -0.0181032 0)
(8.86929 -0.120761 0)
(7.84635 -0.207262 0)
(6.71458 -0.255861 0)
(5.5459 -0.273402 0)
(4.33452 -0.295934 0)
(3.33627 -0.263082 0)
(2.69974 -0.200188 0)
(2.38109 -0.0839614 0)
(1.58438 -0.0322898 0)
(1.94605 0.0378935 0)
(2.78737 0.0982206 0)
(3.08022 0.235837 0)
(3.63353 0.321016 0)
(4.53829 0.389643 0)
(5.68858 0.382887 0)
(6.81978 0.366684 0)
(7.9308 0.340681 0)
(8.9088 0.273218 0)
(9.4186 0.160141 0)
(9.40613 -0.0308068 0)
(8.81931 -0.156371 0)
(7.8022 -0.239649 0)
(6.67218 -0.287683 0)
(5.52092 -0.327343 0)
(4.36464 -0.353602 0)
(3.47353 -0.297306 0)
(2.93803 -0.218129 0)
(2.66211 -0.0905842 0)
(1.81893 -0.0333917 0)
(2.23602 0.035918 0)
(3.13405 0.109225 0)
(3.3763 0.250638 0)
(3.83344 0.350899 0)
(4.62001 0.441254 0)
(5.68473 0.444718 0)
(6.78718 0.408608 0)
(7.88683 0.365632 0)
(8.82833 0.304883 0)
(9.31887 0.178187 0)
(9.30197 -0.0269401 0)
(8.72229 -0.166628 0)
(7.73007 -0.247198 0)
(6.60161 -0.319752 0)
(5.47965 -0.382375 0)
(4.41396 -0.395748 0)
(3.64575 -0.319108 0)
(3.21003 -0.228499 0)
(2.9681 -0.0938998 0)
(2.06239 -0.0317335 0)
(2.49769 0.0361716 0)
(3.46974 0.106871 0)
(3.69762 0.261019 0)
(4.06466 0.374145 0)
(4.73262 0.487634 0)
(5.68625 0.516341 0)
(6.74466 0.487537 0)
(7.81678 0.421135 0)
(8.68829 0.346818 0)
(9.12703 0.202809 0)
(9.10241 -0.0178797 0)
(8.56057 -0.179 0)
(7.61581 -0.277207 0)
(6.5114 -0.383043 0)
(5.44064 -0.444222 0)
(4.49209 -0.435741 0)
(3.85107 -0.338215 0)
(3.50923 -0.236661 0)
(3.29469 -0.0957606 0)
(2.3048 -0.0265584 0)
(2.81265 0.0340767 0)
(3.87091 0.121353 0)
(4.06167 0.277736 0)
(4.34499 0.402894 0)
(4.89159 0.531233 0)
(5.71878 0.598102 0)
(6.71191 0.589198 0)
(7.73634 0.516279 0)
(8.54284 0.407247 0)
(8.9256 0.243249 0)
(8.89019 -0.0198027 0)
(8.39441 -0.203489 0)
(7.48764 -0.343901 0)
(6.42492 -0.459775 0)
(5.4268 -0.502305 0)
(4.6154 -0.462919 0)
(4.09614 -0.347473 0)
(3.83496 -0.232555 0)
(3.63418 -0.0926599 0)
(2.52899 -0.019429 0)
(3.076 0.0302501 0)
(4.25157 0.110195 0)
(4.44165 0.276246 0)
(4.65982 0.416804 0)
(5.10095 0.571543 0)
(5.79898 0.660267 0)
(6.69868 0.681581 0)
(7.65168 0.612677 0)
(8.41162 0.460794 0)
(8.7582 0.292107 0)
(8.7112 -0.0200196 0)
(8.23443 -0.21154 0)
(7.3447 -0.404538 0)
(6.34761 -0.513698 0)
(5.44782 -0.538725 0)
(4.77852 -0.472127 0)
(4.37118 -0.349226 0)
(4.17879 -0.229244 0)
(3.99156 -0.086802 0)
(2.73678 -0.0114568 0)
(3.38136 0.0291105 0)
(4.68793 0.122977 0)
(4.86017 0.280765 0)
(5.01193 0.427185 0)
(5.35347 0.580752 0)
(5.91577 0.701129 0)
(6.69762 0.746765 0)
(7.54496 0.681635 0)
(8.25988 0.503901 0)
(8.58086 0.341433 0)
(8.51944 -0.00505905 0)
(8.03976 -0.202036 0)
(7.18271 -0.438876 0)
(6.28069 -0.53874 0)
(5.50486 -0.544385 0)
(4.97559 -0.458484 0)
(4.66544 -0.325298 0)
(4.52959 -0.200486 0)
(4.33603 -0.0691248 0)
(2.89056 -0.0010282 0)
(3.63522 0.0220713 0)
(5.08456 0.103494 0)
(5.27117 0.265744 0)
(5.38074 0.416331 0)
(5.63885 0.589036 0)
(6.0718 0.723749 0)
(6.71056 0.791759 0)
(7.43886 0.738372 0)
(8.07994 0.561814 0)
(8.37016 0.389884 0)
(8.28845 0.0292975 0)
(7.80125 -0.190549 0)
(7.00838 -0.436688 0)
(6.22515 -0.534944 0)
(5.59346 -0.507804 0)
(5.1899 -0.412633 0)
(4.95826 -0.290788 0)
(4.86102 -0.172587 0)
(4.65748 -0.051905 0)
(2.99063 0.0093426 0)
(3.88689 0.0252244 0)
(5.50823 0.115479 0)
(5.68579 0.257605 0)
(5.75501 0.40653 0)
(5.93998 0.573676 0)
(6.26145 0.716122 0)
(6.74345 0.822397 0)
(7.34609 0.788286 0)
(7.89532 0.631912 0)
(8.14375 0.438302 0)
(8.03618 0.08216 0)
(7.54731 -0.16962 0)
(6.83703 -0.397053 0)
(6.19282 -0.493665 0)
(5.7017 -0.441118 0)
(5.40141 -0.353144 0)
(5.23318 -0.236265 0)
(5.15837 -0.133664 0)
(4.94082 -0.0316865 0)
(3.02915 0.0163714 0)
(4.16384 0.0235155 0)
(5.88448 0.104174 0)
(6.07936 0.242711 0)
(6.1243 0.390498 0)
(6.25622 0.551812 0)
(6.4762 0.706694 0)
(6.81797 0.826428 0)
(7.28449 0.829194 0)
(7.72438 0.704235 0)
(7.91866 0.492605 0)
(7.78138 0.153427 0)
(7.31139 -0.11631 0)
(6.69313 -0.314512 0)
(6.18142 -0.386481 0)
(5.81351 -0.334346 0)
(5.58958 -0.261476 0)
(5.4643 -0.175052 0)
(5.40557 -0.0915428 0)
(5.17608 -0.0156238 0)
(3.03182 0.016467 0)
(4.38813 0.0301287 0)
(6.27552 0.118188 0)
(6.4567 0.240352 0)
(6.48228 0.379944 0)
(6.55823 0.543975 0)
(6.70323 0.691456 0)
(6.92779 0.82249 0)
(7.25741 0.869082 0)
(7.5773 0.768403 0)
(7.70649 0.558326 0)
(7.53541 0.243385 0)
(7.10006 -0.0218977 0)
(6.57927 -0.185742 0)
(6.1806 -0.238985 0)
(5.90436 -0.206723 0)
(5.73465 -0.150934 0)
(5.64054 -0.080398 0)
(5.5901 -0.0323089 0)
(5.2868 0.0237592 0)
(3.00459 0.0156169 0)
(4.7501 0.0415195 0)
(6.62014 0.127094 0)
(6.81781 0.253843 0)
(6.81954 0.401285 0)
(6.85444 0.553459 0)
(6.92452 0.711079 0)
(7.05251 0.850448 0)
(7.24946 0.915637 0)
(7.4468 0.838463 0)
(7.50348 0.643095 0)
(7.30138 0.35892 0)
(6.90647 0.111588 0)
(6.4818 -0.0251698 0)
(6.17496 -0.0713675 0)
(5.96533 -0.0597481 0)
(5.83354 -0.034144 0)
(5.75748 0.0036551 0)
(5.69614 0.029515 0)
(5.29467 0.0449909 0)
(2.8916 0.0266508 0)
(5.04482 0.0673361 0)
(7.02055 0.176761 0)
(7.17744 0.305037 0)
(7.15303 0.461 0)
(7.13469 0.620968 0)
(7.13844 0.781958 0)
(7.18238 0.913006 0)
(7.25183 0.970148 0)
(7.33702 0.926617 0)
(7.32002 0.749393 0)
(7.0967 0.497674 0)
(6.74071 0.274569 0)
(6.39478 0.152768 0)
(6.1515 0.0986913 0)
(5.98439 0.0872503 0)
(5.8768 0.0885966 0)
(5.80852 0.0924693 0)
(5.73032 0.0937455 0)
(5.26262 0.0818044 0)
(2.74568 0.0466235 0)
(5.81914 0.135264 0)
(7.39555 0.258894 0)
(7.54569 0.416887 0)
(7.47158 0.59541 0)
(7.39704 0.763336 2.68386e-33)
(7.33939 0.9051 -1.81309e-33)
(7.29632 1.02567 0)
(7.27013 1.07196 0)
(7.24989 1.04605 0)
(7.15779 0.885285 0)
(6.91247 0.658553 0)
(6.58833 0.45951 0)
(6.30402 0.342681 0)
(6.10329 0.276585 0)
(5.96208 0.239824 0)
(5.86662 0.211733 0)
(5.79863 0.192573 0)
(5.68925 0.17037 0)
(5.06797 0.123545 0)
(2.35069 0.0622107 0)
(6.35899 0.295768 -3.15616e-19)
(7.8424 0.402166 2.73784e-19)
(7.87333 0.63899 0)
(7.73844 0.846071 3.10325e-20)
(7.62159 0.976949 -2.50021e-20)
(7.50181 1.10058 1.93671e-33)
(7.38839 1.19782 0)
(7.27821 1.23291 1.85678e-19)
(7.17009 1.2064 -6.72118e-19)
(6.99922 1.06578 1.48454e-19)
(6.73345 0.860318 0)
(6.43645 0.687151 -4.98439e-19)
(6.19607 0.568756 -6.21679e-19)
(6.02108 0.489324 1.09133e-18)
(5.89475 0.431515 -8.76903e-19)
(5.80087 0.383786 0)
(5.72109 0.324233 -3.37758e-19)
(5.55452 0.258938 0)
(4.79601 0.219398 -1.68204e-18)
(2.03952 0.0931831 2.11615e-18)
(6.69313 0.620237 -8.3011e-20)
(8.16275 0.786018 -2.02645e-18)
(8.15307 1.00827 5.2353e-19)
(7.9736 1.1409 6.60071e-19)
(7.80336 1.24208 -4.32993e-20)
(7.62746 1.34866 1.05431e-19)
(7.45584 1.41929 0)
(7.27611 1.44428 0)
(7.09625 1.41549 1.07597e-18)
(6.85069 1.29541 0)
(6.5666 1.10701 1.73671e-18)
(6.28 0.954198 5.42848e-19)
(6.05505 0.835187 1.39234e-20)
(5.88276 0.745427 -1.2482e-18)
(5.7499 0.671743 0)
(5.64876 0.613502 0)
(5.55892 0.584275 -5.83908e-18)
(5.39544 0.499852 1.46507e-17)
(4.64113 0.411496 -8.00339e-18)
(1.93627 0.174828 -1.03217e-17)
(6.87414 0.976346 2.62215e-18)
(8.39845 1.33876 -9.42214e-19)
(8.35886 1.44214 -2.36717e-19)
(8.15131 1.50512 -1.21157e-18)
(7.93402 1.5735 5.32784e-19)
(7.72088 1.63652 -1.20845e-19)
(7.49639 1.68295 1.96849e-19)
(7.26457 1.68959 0)
(7.02655 1.65137 -2.26308e-18)
(6.71924 1.53848 2.53017e-18)
(6.41937 1.35942 -4.75036e-18)
(6.13337 1.21654 2.31652e-18)
(5.91289 1.09777 -1.7084e-18)
(5.74152 1.0077 3.74112e-18)
(5.60553 0.929827 0)
(5.49056 0.863775 -1.47418e-18)
(5.38135 0.812686 0)
(5.20719 0.802494 8.54128e-18)
(4.53981 0.597052 -1.93759e-17)
(1.96338 0.326813 1.28035e-17)
(6.9432 1.31067 -1.16413e-17)
(8.52758 1.82945 6.35796e-18)
(8.50125 1.88591 9.21587e-19)
(8.26503 1.90595 0)
(8.03052 1.92635 6.13201e-19)
(7.77798 1.95847 -6.44282e-19)
(7.51192 1.97748 -2.38882e-19)
(7.24054 1.95903 0)
(6.95434 1.90482 1.60544e-18)
(6.60045 1.78733 -1.7382e-18)
(6.28416 1.61265 4.17952e-18)
(5.99074 1.4695 0)
(5.76142 1.3473 -3.59877e-18)
(5.57739 1.25491 1.98091e-18)
(5.42406 1.18006 5.39953e-18)
(5.30358 1.11842 -4.74834e-18)
(5.20859 1.04066 7.91872e-18)
(5.05858 1.05022 -1.76706e-17)
(4.45597 0.819091 1.11779e-17)
(2.07 0.442135 -1.42616e-17)
(6.96704 1.50235 8.03054e-18)
(8.58829 2.36897 -7.13401e-18)
(8.57131 2.33071 2.83886e-18)
(8.33736 2.30753 -3.87378e-18)
(8.08138 2.29509 2.53876e-18)
(7.79533 2.29986 -3.75765e-19)
(7.5025 2.28484 1.21245e-19)
(7.20012 2.24236 -1.13942e-18)
(6.87843 2.16763 -1.65135e-18)
(6.49086 2.03809 -3.77411e-18)
(6.15663 1.86286 -9.02494e-18)
(5.85568 1.71587 -3.03215e-18)
(5.62461 1.59211 1.12922e-19)
(5.44911 1.50085 -7.14625e-18)
(5.31826 1.4301 -2.58055e-19)
(5.20197 1.373 6.97431e-18)
(5.09302 1.26795 -2.17367e-18)
(4.90936 1.25235 -1.27871e-18)
(4.3633 1.01943 0)
(2.1703 0.562894 3.04676e-17)
(6.87281 1.79767 0)
(8.56012 2.78376 1.97594e-18)
(8.60758 2.71847 0)
(8.36419 2.70095 -4.68975e-19)
(8.0854 2.68164 -3.08946e-18)
(7.78751 2.65003 5.76394e-19)
(7.47394 2.60134 1.43998e-19)
(7.14757 2.53276 2.03839e-18)
(6.8001 2.43338 -1.00235e-18)
(6.3871 2.28747 1.65942e-18)
(6.03433 2.1073 4.87171e-18)
(5.72495 1.95303 6.71714e-18)
(5.48625 1.82247 -4.19113e-18)
(5.29636 1.71501 7.7445e-18)
(5.14303 1.62791 -6.21447e-18)
(5.03298 1.56291 0)
(4.95745 1.47406 -1.66563e-17)
(4.83551 1.47369 2.23804e-17)
(4.34584 1.23758 1.7097e-18)
(2.2512 0.688375 -3.21916e-17)
(6.81872 2.11109 -7.99172e-19)
(8.55528 3.21777 -5.73529e-18)
(8.6012 3.07332 -1.55245e-17)
(8.329 3.082 8.465e-18)
(8.04862 3.04363 -1.72554e-18)
(7.74437 2.98904 9.06282e-19)
(7.42068 2.91361 -1.16243e-19)
(7.08029 2.82105 -2.38759e-19)
(6.71672 2.69716 -3.58215e-18)
(6.28502 2.53403 1.7065e-20)
(5.91902 2.3448 -5.30797e-18)
(5.61111 2.17897 -7.12648e-18)
(5.38542 2.04152 4.70658e-18)
(5.22177 1.92983 -2.7827e-18)
(5.1049 1.84578 6.74407e-18)
(4.98905 1.80515 0)
(4.88363 1.71453 -1.02841e-17)
(4.70309 1.66123 1.52134e-17)
(4.23874 1.43897 2.9636e-17)
(2.27128 0.799718 -3.4779e-17)
(6.70691 2.36064 -2.7237e-17)
(8.48183 3.54215 1.33393e-17)
(8.56047 3.41393 9.85994e-18)
(8.26817 3.43933 -9.01867e-18)
(7.98529 3.38464 5.00985e-19)
(7.68034 3.30904 2.29396e-18)
(7.35115 3.21339 -2.27295e-19)
(7.0031 3.10068 -8.30276e-19)
(6.62756 2.9544 -2.24604e-18)
(6.18436 2.77397 3.79394e-18)
(5.81013 2.57197 5.04505e-18)
(5.49882 2.39115 1.11805e-17)
(5.26195 2.244 0)
(5.06962 2.12153 2.058e-19)
(4.91169 2.01404 -1.8677e-17)
(4.80895 1.92336 4.26819e-18)
(4.73059 1.85341 2.20037e-17)
(4.62182 1.82597 -6.36895e-18)
(4.21216 1.62286 1.42239e-17)
(2.22728 0.912135 -1.0242e-18)
(6.61067 2.60238 9.42653e-19)
(8.40761 3.9054 1.2197e-17)
(8.4863 3.72899 7.2071e-18)
(8.17682 3.77592 -1.5384e-17)
(7.89905 3.69806 9.48436e-18)
(7.59489 3.60707 -2.73791e-18)
(7.26596 3.49473 1.54908e-19)
(6.91461 3.36576 1.9253e-18)
(6.5325 3.2007 3.98124e-18)
(6.08535 3.00493 -4.85015e-18)
(5.70546 2.78913 0)
(5.39187 2.59455 -4.38002e-18)
(5.16207 2.43952 5.02475e-18)
(4.99809 2.31367 6.77427e-18)
(4.87815 2.21153 -3.87343e-18)
(4.75694 2.16865 -9.84138e-18)
(4.66102 2.10051 -2.99472e-18)
(4.51186 2.026 -3.84983e-20)
(4.09629 1.75732 0)
(2.1805 0.979323 0)
(6.45479 2.81258 -1.30541e-17)
(8.30263 4.19342 0)
(8.39055 4.02528 7.96506e-18)
(8.06108 4.07953 -3.69243e-18)
(7.79568 3.98396 -9.31114e-18)
(7.50018 3.88061 2.63387e-18)
(7.17385 3.75706 7.28486e-20)
(6.82132 3.61573 -1.03453e-18)
(6.43486 3.43487 2.69593e-18)
(5.98635 3.22507 -1.95098e-18)
(5.59837 2.9957 2.83313e-18)
(5.27524 2.78702 1.36186e-17)
(5.03106 2.61791 5.25697e-19)
(4.8343 2.48065 -6.88086e-18)
(4.67377 2.35899 1.33422e-17)
(4.57229 2.24009 1.82587e-19)
(4.49269 2.17178 3.19637e-18)
(4.38487 2.10443 -1.5724e-17)
(4.03596 1.91551 1.61766e-17)
(2.12915 1.03718 -1.73213e-17)
(6.34552 3.02384 -3.25582e-21)
(8.18386 4.50623 0)
(8.28055 4.30984 0)
(7.93741 4.35993 3.12799e-18)
(7.69012 4.23443 3.60529e-18)
(7.39716 4.12594 -1.85619e-18)
(7.07357 3.99677 8.3783e-19)
(6.72025 3.84699 0)
(6.3325 3.65416 -4.28218e-18)
(5.88441 3.43318 7.10936e-18)
(5.48723 3.19222 8.53966e-18)
(5.15596 2.9712 -5.1267e-18)
(4.91197 2.79038 -6.42464e-18)
(4.74103 2.64683 1.51692e-17)
(4.62787 2.52893 -4.71061e-18)
(4.51893 2.45722 -5.71054e-18)
(4.42654 2.38915 -3.49836e-18)
(4.29724 2.29731 -1.70106e-17)
(3.9207 2.02358 2.27438e-18)
(2.0656 1.09127 1.85894e-17)
(6.20065 3.18204 -5.16011e-18)
(8.08055 4.77324 -7.10838e-18)
(8.16156 4.58722 9.8818e-19)
(7.82468 4.63107 9.59278e-20)
(7.59237 4.47149 9.59615e-19)
(7.29876 4.35451 -4.94429e-18)
(6.97417 4.21798 0)
(6.61802 4.06094 8.75156e-19)
(6.22901 3.85871 -6.88671e-19)
(5.78062 3.6287 1.15011e-17)
(5.37622 3.37794 -2.12929e-18)
(5.03938 3.14638 2.35466e-18)
(4.79116 2.95482 0)
(4.59419 2.79254 -8.27751e-18)
(4.43002 2.65035 1.02929e-17)
(4.32892 2.51276 0)
(4.25238 2.43959 -7.72264e-18)
(4.1567 2.34173 2.25651e-17)
(3.82668 2.14437 2.75095e-18)
(1.99175 1.12805 -2.29412e-17)
(6.08723 3.37465 -1.0788e-17)
(7.94526 5.02122 1.31623e-17)
(8.0541 4.83591 0)
(7.72429 4.87921 7.57727e-18)
(7.49928 4.69724 0)
(7.20427 4.57153 4.51661e-18)
(6.87458 4.42598 0)
(6.51391 4.25988 0)
(6.12439 4.04871 -1.50962e-18)
(5.67772 3.81161 -1.11393e-17)
(5.26742 3.55432 -1.5912e-17)
(4.92225 3.31369 2.94322e-18)
(4.66746 3.10857 1.09057e-17)
(4.48922 2.9443 9.25534e-18)
(4.37272 2.80819 -3.29201e-17)
(4.26587 2.70726 -1.37288e-17)
(4.17506 2.63823 7.94844e-18)
(4.06036 2.49727 0)
(3.70573 2.21742 2.38313e-17)
(1.90822 1.15748 -2.46639e-17)
(5.96134 3.50542 1.18118e-17)
(7.84207 5.27158 -1.43231e-17)
(7.95008 5.07298 0)
(7.62586 5.11295 -3.90338e-19)
(7.41096 4.91192 -3.02254e-18)
(7.11347 4.77866 0)
(6.77685 4.62362 -1.14717e-19)
(6.41427 4.4469 9.89533e-19)
(6.02535 4.22696 -2.28792e-18)
(5.58013 3.98404 1.23384e-18)
(5.16545 3.72175 0)
(4.8174 3.47547 1.1705e-17)
(4.56043 3.26318 2.00809e-20)
(4.35327 3.0812 4.99268e-18)
(4.17926 2.91725 6.08557e-18)
(4.07179 2.75756 0)
(3.9971 2.66509 -1.35198e-17)
(3.90605 2.53523 2.65658e-17)
(3.57629 2.3165 -2.89673e-17)
(1.80521 1.1626 5.3323e-17)
(5.87168 3.67461 0)
(7.7452 5.47722 0)
(7.8602 5.28767 -7.24009e-18)
(7.53081 5.32739 0)
(7.32405 5.11149 0)
(7.01965 4.97296 6.1566e-18)
(6.68014 4.80953 -1.71081e-19)
(6.31844 4.62255 5.83644e-19)
(5.931 4.39459 -3.52491e-19)
(5.48804 4.14628 0)
(5.06839 3.88066 -2.51947e-18)
(4.70999 3.63036 -9.67957e-18)
(4.43636 3.40914 -1.20761e-17)
(4.23687 3.22294 -4.98404e-18)
(4.11093 3.06372 6.61373e-18)
(4.00183 2.92678 -1.56194e-17)
(3.90648 2.84434 2.89909e-17)
(3.80819 2.65103 5.47821e-19)
(3.44195 2.3441 -2.76856e-17)
(1.69015 1.15969 -3.64618e-18)
(5.76945 3.78985 0)
(7.63332 5.6748 -1.04235e-17)
(7.76418 5.48963 8.28936e-18)
(7.44299 5.53119 0)
(7.23642 5.3007 0)
(6.92744 5.15635 -1.35209e-17)
(6.58748 4.9841 0)
(6.22923 4.78754 0)
(5.84411 4.55258 -4.85411e-18)
(5.40182 4.29967 2.14873e-18)
(4.97653 4.03146 -2.07727e-17)
(4.61306 3.77961 0)
(4.33617 3.5541 -1.28513e-17)
(4.11333 3.35582 4.47937e-19)
(3.92163 3.17469 -2.06682e-17)
(3.79356 2.98788 8.46378e-18)
(3.70704 2.86387 2.13272e-19)
(3.61922 2.69119 -3.14598e-17)
(3.28273 2.41797 1.50382e-17)
(1.55066 1.12585 3.91753e-18)
(5.69254 3.92658 0)
(7.55782 5.88102 -1.22796e-17)
(7.67789 5.68136 8.5545e-18)
(7.34645 5.71796 1.67398e-17)
(7.14517 5.47668 3.07439e-18)
(6.83515 5.32731 -1.75511e-18)
(6.49803 5.147 1.14274e-18)
(6.14439 4.94183 7.51252e-19)
(5.76063 4.70076 5.20084e-18)
(5.31886 4.44325 1.46689e-17)
(4.88881 4.17341 1.72668e-17)
(4.51662 3.92236 3.20272e-18)
(4.22083 3.69591 1.86981e-17)
(3.98867 3.49689 1.1913e-17)
(3.83185 3.31834 1.49075e-17)
(3.71884 3.14605 -9.19263e-18)
(3.61123 3.03026 -1.14025e-17)
(3.50865 2.7727 1.34823e-17)
(3.1139 2.39835 -8.33053e-18)
(1.40426 1.08519 1.31276e-17)
(5.59739 4.03515 1.79338e-17)
(7.43609 6.01044 1.94357e-17)
(7.57782 5.84139 4.45066e-18)
(7.24788 5.88395 2.51712e-19)
(7.05444 5.63648 -1.10803e-17)
(6.74584 5.4854 3.99064e-18)
(6.41233 5.29838 -1.28926e-18)
(6.06385 5.08541 -3.82666e-19)
(5.68143 4.83892 -5.91999e-18)
(5.23993 4.57761 -1.6189e-17)
(4.80595 4.3072 1.10833e-18)
(4.42908 4.05871 0)
(4.12732 3.83406 0)
(3.87833 3.6287 -6.10297e-18)
(3.66206 3.43352 -2.37556e-17)
(3.49151 3.23177 1.97119e-17)
(3.37609 3.07585 1.22042e-17)
(3.28411 2.82637 0)
(2.91442 2.4573 2.69393e-17)
(1.23564 1.0094 -1.49222e-17)
(5.52224 4.15163 -9.18654e-18)
(7.36653 6.21381 7.73407e-18)
(7.49404 6.00744 -1.02566e-17)
(7.15735 6.04281 -1.05265e-17)
(6.96627 5.78202 -4.32822e-18)
(6.65705 5.62931 1.18112e-18)
(6.32903 5.43735 0)
(5.9856 5.21797 -8.44328e-19)
(5.6039 4.96711 5.92849e-19)
(5.16357 4.70231 0)
(4.7281 4.43241 0)
(4.34497 4.18821 2.1473e-18)
(4.02685 3.96959 3.1275e-18)
(3.76106 3.77243 -6.45669e-18)
(3.55846 3.58653 1.7141e-17)
(3.41776 3.38515 -2.12258e-17)
(3.27225 3.23076 -2.63693e-17)
(3.13721 2.90005 2.39224e-17)
(2.67207 2.38952 -9.87482e-18)
(1.00567 0.945939 5.59969e-18)
(5.42481 4.23043 1.05898e-17)
(7.26433 6.33831 0)
(7.39657 6.16369 0)
(7.0595 6.19017 -3.33724e-18)
(6.87796 5.91811 2.68662e-18)
(6.57186 5.76183 -2.9281e-19)
(6.24933 5.56521 -4.01118e-18)
(5.91027 5.34011 -1.71126e-19)
(5.52999 5.08559 1.01535e-17)
(5.09196 4.81832 -1.2859e-18)
(4.65588 4.54996 2.8396e-18)
(4.26923 4.31121 -1.81217e-17)
(3.94458 4.09961 -1.88642e-17)
(3.66547 3.9041 -3.37691e-18)
(3.41354 3.71224 0)
(3.18576 3.5123 -3.53149e-19)
(2.99983 3.32184 1.35653e-17)
(2.84745 2.96717 -2.60937e-17)
(2.37854 2.41749 2.0255e-17)
(0.635445 0.677615 1.77088e-17)
(5.34835 4.33274 -2.27667e-17)
(7.14797 6.4621 -9.1017e-18)
(7.27971 6.27422 1.64265e-19)
(6.95803 6.31372 4.40245e-18)
(6.79327 6.04203 0)
(6.48844 5.88499 1.06917e-17)
(6.17122 5.68483 4.71637e-18)
(5.83572 5.4552 -6.39502e-19)
(5.45677 5.19841 -5.07809e-18)
(5.02158 4.92955 -1.24328e-18)
(4.58669 4.66395 1.15035e-18)
(4.19609 4.43269 1.58463e-17)
(3.85719 4.23237 1.8317e-17)
(3.55739 4.05263 3.21525e-18)
(3.30541 3.88161 1.70491e-17)
(3.11037 3.68164 0)
(2.90097 3.49166 0)
(2.65275 3.06992 1.68265e-17)
(1.96823 2.19681 1.96964e-19)
(0.473165 1.05685 -1.74127e-17)
(5.26013 4.39972 1.22507e-17)
(7.05731 6.59379 2.69161e-17)
(7.20703 6.40869 -3.89295e-17)
(6.88377 6.43511 2.20614e-17)
(6.71795 6.15948 -2.30214e-18)
(6.41016 6.0038 1.37254e-17)
(6.09576 5.79979 0)
(5.76271 5.56637 7.21241e-19)
(5.38543 5.30827 0)
(4.95389 5.03938 1.57213e-17)
(4.51984 4.77799 -1.57924e-18)
(4.12592 4.55595 1.7657e-18)
(3.78001 4.36844 2.05948e-17)
(3.46943 4.19824 -7.07727e-18)
(3.17607 4.03299 -9.01349e-18)
(2.88727 3.86476 0)
(2.58365 3.68436 0)
(2.20627 3.21827 0)
(1.19791 2.25399 -8.68837e-18)
(0.689132 2.00617 -5.52134e-18)
(5.20541 4.49328 0)
(7.03251 6.73095 0)
(7.18147 6.55947 1.39065e-17)
(6.83475 6.58471 -1.82525e-17)
(6.64497 6.27908 1.1592e-17)
(6.33488 6.11885 -1.24602e-17)
(6.02225 5.9099 -4.25785e-19)
(5.69167 5.67336 3.29709e-19)
(5.31612 5.41494 8.96577e-19)
(4.88817 5.14675 -1.79943e-17)
(4.45615 4.8902 2.69545e-18)
(4.0607 4.6793 1.56241e-17)
(3.7058 4.51044 -2.04384e-17)
(3.37705 4.36732 -2.31036e-17)
(3.07665 4.23568 8.03286e-18)
(2.80823 4.08083 0)
(2.5023 3.85481 1.27467e-17)
(1.97919 3.1865 1.54584e-17)
(1.2407 2.55415 -1.59882e-17)
(0.839281 2.89272 2.17225e-17)
(5.12555 4.55078 0)
(6.92238 6.84718 2.13391e-17)
(7.04625 6.67522 -3.41326e-18)
(6.70762 6.6961 2.24657e-17)
(6.56541 6.39417 -1.21811e-17)
(6.26049 6.22903 0)
(5.95196 6.0164 0)
(5.62379 5.77703 0)
(5.25004 5.51851 3.26962e-18)
(4.82607 5.25161 6.60953e-19)
(4.39646 5.0007 0)
(4.00131 4.80207 -1.54328e-17)
(3.64376 4.651 0)
(3.30961 4.52446 1.64806e-17)
(2.9858 4.40879 -1.13492e-17)
(2.6592 4.28086 -9.24744e-18)
(2.27197 4.03137 -2.43458e-17)
(1.64238 3.36215 -1.2999e-17)
(1.18326 3.14935 -2.34616e-17)
(0.962826 3.44625 1.72246e-17)
(5.05662 4.63596 -7.53348e-18)
(6.78428 6.91329 4.94417e-19)
(6.91455 6.72301 -3.58664e-18)
(6.62544 6.76127 -1.74456e-17)
(6.50168 6.48952 0)
(6.18821 6.33074 0)
(5.88466 6.11871 0)
(5.55809 5.87753 6.30876e-20)
(5.18631 5.61975 -4.26742e-18)
(4.76599 5.35451 0)
(4.34028 5.10942 0)
(3.9484 4.92405 0)
(3.5893 4.79544 0)
(3.24839 4.7022 1.21625e-17)
(2.92866 4.62523 3.11293e-17)
(2.62563 4.49894 9.89868e-18)
(2.23979 4.14138 2.29638e-17)
(1.73791 3.61289 -1.78997e-17)
(1.30347 3.75998 7.86604e-18)
(1.14047 3.89929 0)
(5.0095 4.69852 7.25352e-18)
(6.77327 7.04428 -4.23022e-17)
(6.95481 6.88337 -1.17444e-17)
(6.62816 6.90457 -2.80165e-18)
(6.44171 6.59557 2.76646e-18)
(6.12291 6.43638 -1.81721e-17)
(5.82008 6.21987 1.13999e-18)
(5.49435 5.97698 3.19178e-18)
(5.12474 5.71968 0)
(4.70869 5.45613 -1.13144e-18)
(4.28806 5.21687 1.03e-18)
(3.9014 5.04448 0)
(3.54859 4.93693 0)
(3.21608 4.86522 -1.52279e-17)
(2.89714 4.80256 2.67093e-18)
(2.56527 4.67101 -9.25884e-18)
(2.08003 4.32769 2.03628e-17)
(1.50176 3.96883 1.76876e-17)
(1.12447 4.17957 -3.25285e-17)
(1.03442 4.24091 1.71375e-17)
(4.97159 4.77626 1.35495e-17)
(6.75643 7.16968 3.92315e-17)
(6.88794 7.02532 1.40257e-17)
(6.52817 7.04523 0)
(6.36035 6.71397 0)
(6.05181 6.54666 1.36969e-17)
(5.75073 6.32261 -6.77183e-18)
(5.42837 6.07759 -3.05266e-18)
(5.06192 5.8206 -5.6717e-21)
(4.65103 5.55859 1.27152e-17)
(4.23742 5.32419 -1.85465e-17)
(3.86054 5.16382 0)
(3.51869 5.07906 0)
(3.19579 5.04009 -1.07667e-17)
(2.89077 5.01046 -1.41858e-17)
(2.5548 4.88 0)
(2.07171 4.45052 -2.92805e-17)
(1.72335 4.29099 -5.37919e-18)
(1.43287 4.69292 3.3422e-17)
(1.15771 4.69352 -1.72908e-17)
(4.86994 4.81783 -2.56095e-17)
(6.59063 7.22263 -1.8574e-17)
(6.71766 7.06903 0)
(6.39995 7.10406 0)
(6.28049 6.81137 0)
(5.97011 6.65011 0)
(5.67667 6.42629 7.11195e-18)
(5.3589 6.17929 -4.45294e-18)
(4.9967 5.92209 0)
(4.59264 5.66102 -1.14628e-17)
(4.18847 5.43048 3.3468e-17)
(3.82409 5.28021 1.43192e-18)
(3.49893 5.21454 2.17136e-18)
(3.19609 5.19851 1.82052e-17)
(2.89833 5.17419 -1.21517e-17)
(2.5561 5.00221 0)
(2.08204 4.71156 9.51299e-18)
(1.63151 4.83714 7.21544e-19)
(1.13741 5.10301 -5.04717e-18)
(0.749346 5.15908 1.03966e-17)
(4.79233 4.90507 1.20909e-17)
(6.49386 7.34683 -1.79135e-17)
(6.64809 7.18722 0)
(6.3423 7.21694 -4.00208e-18)
(6.20412 6.91332 1.47895e-17)
(5.88266 6.75445 0)
(5.59755 6.52959 0)
(5.28385 6.28085 8.18075e-18)
(4.9275 6.02345 -5.35439e-19)
(4.53188 5.76321 1.10931e-17)
(4.13941 5.53548 -1.59089e-17)
(3.79233 5.39314 1.03208e-17)
(3.48943 5.34335 0)
(3.20906 5.35254 -9.93035e-18)
(2.931 5.34885 6.21634e-18)
(2.5909 5.20441 6.79752e-18)
(2.1182 4.93816 0)
(1.76523 5.14789 4.72539e-18)
(1.30405 5.77265 7.90798e-18)
(1.19538 5.97073 2.38543e-18)
(4.72259 4.96348 -2.27352e-17)
(6.43133 7.46851 2.59227e-17)
(6.58747 7.34784 1.81831e-17)
(6.25587 7.37122 -4.68725e-18)
(6.10492 7.03492 -2.22766e-17)
(5.79147 6.86906 0)
(5.51301 6.63481 6.23965e-18)
(5.20453 6.38286 -3.51142e-18)
(4.85505 6.1239 -1.53808e-19)
(4.46939 5.86362 -9.64765e-18)
(4.09135 5.63748 -7.81584e-19)
(3.76335 5.50016 -1.15744e-17)
(3.48341 5.4593 1.41566e-17)
(3.23019 5.48349 4.50945e-18)
(2.96737 5.48516 -1.05264e-17)
(2.62817 5.29721 1.13925e-17)
(2.30877 5.13417 0)
(1.95645 5.79037 0)
(1.71593 6.44211 1.24734e-18)
(0.463682 6.50412 -5.00975e-18)
(4.62784 5.04744 1.0929e-17)
(6.31728 7.58811 2.39699e-17)
(6.44335 7.44005 -1.80467e-17)
(6.11964 7.46429 1.62589e-17)
(5.9977 7.14267 2.15816e-17)
(5.68979 6.97828 0)
(5.42052 6.73891 -6.62377e-18)
(5.11983 6.48347 -4.91049e-18)
(4.77866 6.22213 0)
(4.40495 5.96128 0)
(4.04333 5.73574 0)
(3.73689 5.60093 0)
(3.48456 5.56371 -1.61274e-17)
(3.26315 5.59363 -6.11611e-18)
(3.03599 5.5987 0)
(2.72298 5.44988 -5.92616e-18)
(2.53958 5.51585 0)
(2.57848 5.8591 -2.44667e-18)
(2.6321 5.88035 7.65249e-19)
(1.42976 5.91853 1.17075e-18)
(4.50016 5.09112 -2.07694e-17)
(6.16405 7.68285 -1.52494e-17)
(6.30863 7.55298 -1.11621e-17)
(6.00345 7.57126 -1.51654e-17)
(5.89251 7.24958 -1.011e-17)
(5.58076 7.08667 0)