/*--------------------------------*- C++ -*----------------------------------*\
| =========                 |                                                 |
| \\      /  F ield         | OpenFOAM: The Open Source CFD Toolbox           |
|  \\    /   O peration     | Version:  2412                                  |
|   \\  /    A nd           | Website:  www.openfoam.com                      |
|    \\/     M anipulation  |                                                 |
\*---------------------------------------------------------------------------*/
FoamFile
{
    version     2.0;
    format      ascii;
    arch        "LSB;label=32;scalar=64";
    class       volScalarField;
    location    "1.25";
    object      p;
}
// * * * * * * * * * * * * * * * * * * * * * * * * * * * * * * * * * * * * * //

dimensions      [0 2 -2 0 0 0 0];

internalField   nonuniform List<scalar> 
2200
(
1.17591
1.15741
1.14627
1.16104
1.18557
1.25537
1.39225
1.59508
1.87726
2.19855
2.22071
1.92713
1.66387
1.47233
1.342
1.27534
1.25225
1.23897
1.2502
1.26871
1.27145
1.21999
1.17944
1.18299
1.22142
1.3244
1.52545
1.83258
2.17196
2.47095
2.48917
2.21869
1.89883
1.60391
1.40998
1.31074
1.27458
1.27205
1.31299
1.36461
1.75397
1.6703
1.50356
1.32021
1.31263
1.45651
1.71423
2.18879
2.71339
3.07191
3.08724
2.75983
2.25727
1.79533
1.54473
1.40512
1.41467
1.59888
1.76592
1.84966
2.83719
2.7413
2.52038
2.17686
1.86504
1.7831
2.00881
2.52865
3.18352
3.76605
3.78379
3.23412
2.60408
2.10022
1.88068
1.96534
2.27805
2.62164
2.84241
2.93809
4.43189
4.34364
4.13809
3.79144
3.36984
3.02778
2.90338
3.06086
3.56709
4.16932
4.19276
3.62672
3.14728
3.00204
3.13391
3.47763
3.8995
4.24568
4.45068
4.5388
6.17996
6.11563
5.94664
5.65903
5.27427
4.84864
4.57852
4.41346
4.45857
4.68928
4.71812
4.53588
4.51362
4.69088
4.96615
5.39303
5.77683
6.06341
6.23159
6.29555
7.6844
7.64207
7.52907
7.31395
7.01533
6.67602
6.40759
6.29338
6.31664
6.39051
6.42147
6.40126
6.40641
6.53689
6.8085
7.14777
7.44515
7.65828
7.77018
7.81219
8.75067
8.72289
8.65515
8.51641
8.30498
8.08793
7.90114
7.95397
8.15113
8.31805
8.35343
8.24327
8.08151
8.04593
8.23745
8.45533
8.66684
8.80569
8.8738
8.90179
9.38885
9.37051
9.33371
9.25794
9.14521
8.98565
8.83608
8.82313
8.98805
9.18181
9.22236
9.09358
8.97029
9.0046
9.16655
9.33021
9.44325
9.51928
9.55614
9.57485
9.69303
9.67894
9.65655
9.61212
9.54742
9.46037
9.34715
9.24213
9.3033
9.38744
9.43963
9.43095
9.42467
9.55251
9.68011
9.77436
9.84202
9.88741
9.9106
9.92457
9.79104
9.77979
9.76501
9.73834
9.70086
9.64942
9.5877
9.54543
9.55469
9.60951
9.67019
9.71855
9.76557
9.84503
9.92681
9.9867
10.0308
10.0621
10.0794
10.0913
9.77839
9.77032
9.7615
9.74709
9.73041
9.70897
9.68656
9.69384
9.72823
9.80872
9.8742
9.92508
9.96328
10.0114
10.0599
10.0981
10.1261
10.1474
10.1601
10.1715
9.70462
9.69926
9.69509
9.68851
9.68351
9.68236
9.68084
9.70051
9.76231
9.84259
9.93723
10.0006
10.0438
10.0878
10.1255
10.1539
10.1741
10.1883
10.1972
10.2054
9.58982
9.58641
9.58534
9.58438
9.58514
9.5941
9.61155
9.6362
9.70883
9.79422
9.92301
10.0059
10.0709
10.1232
10.16
10.1857
10.2033
10.2144
10.2204
10.2244
9.44214
9.44041
9.44158
9.44572
9.45327
9.46856
9.5026
9.54631
9.62866
9.75163
9.89601
10.0019
10.0904
10.1526
10.194
10.2225
10.2405
10.2521
10.2573
10.26
9.265
9.26552
9.26978
9.27893
9.2959
9.32158
9.36869
9.43816
9.54038
9.7086
9.86925
10.0117
10.1229
10.1968
10.248
10.2826
10.3043
10.3172
10.3238
10.3288
9.05724
9.05931
9.06646
9.08079
9.10636
9.14675
9.21092
9.30924
9.44785
9.64296
9.84694
10.0351
10.1713
10.2643
10.3292
10.3719
10.3993
10.4146
10.4254
10.4315
8.80124
8.80539
8.81642
8.83609
8.87087
8.92596
9.0122
9.14243
9.31499
9.56583
9.83017
10.0706
10.2396
10.357
10.4365
10.4873
10.5209
10.5441
10.5562
10.5589
8.48451
8.48924
8.50225
8.52884
8.57327
8.64529
8.7538
8.92671
9.15484
9.47836
9.82068
10.1218
10.3327
10.4795
10.5775
10.64
10.6779
10.7012
10.7127
10.7171
8.08052
8.08871
8.10942
8.14475
8.2059
8.30386
8.45015
8.66979
8.97993
9.38787
9.82446
10.1969
10.4606
10.6441
10.7665
10.8459
10.8951
10.9242
10.9422
10.9507
7.57796
7.58725
7.61092
7.66154
7.74622
7.8816
8.08555
8.37916
8.78614
9.30003
9.85082
10.3101
10.6396
10.8694
11.0238
11.1244
11.1873
11.2244
11.2433
11.2514
6.9064
6.92291
6.96605
7.0393
7.15921
7.35095
7.63492
8.03154
8.56219
9.21181
9.89716
10.4608
10.8678
11.1528
11.3457
11.4723
11.5508
11.5973
11.6235
11.6329
6.02744
6.05114
6.10895
6.21922
6.40564
6.68738
7.08839
7.62505
8.31202
9.12942
9.97159
10.657
11.1539
11.5062
11.7496
11.9124
12.0172
12.0779
12.1084
12.1199
4.80631
4.85801
4.97006
5.16232
5.45404
5.87752
6.44879
7.16958
8.04935
9.0636
10.0813
10.9025
11.5009
11.9317
12.2379
12.4492
12.5892
12.6789
12.7304
12.7498
3.13399
3.24119
3.44494
3.78175
4.27482
4.92389
5.72032
6.67186
7.78036
9.0153
10.2231
11.1907
11.9
12.4202
12.8017
13.0809
13.2797
13.4114
13.4902
13.5248
0.851142
1.01151
1.44888
2.10228
2.90912
3.84956
4.93029
6.16209
7.53081
9.00478
10.4127
11.532
12.3578
12.9753
13.44
13.7912
14.0609
14.2651
14.4017
14.4499
-2.46799
-1.758
-0.754755
0.315142
1.46387
2.726
4.12676
5.6626
7.30877
9.04328
10.6747
11.9717
12.9429
13.6892
14.2746
14.7397
15.1158
15.4395
15.7193
15.8848
-6.2294
-4.47854
-2.8934
-1.47273
0.0103626
1.61398
3.34656
5.17858
7.10007
9.10424
10.9791
12.4777
13.6149
14.506
15.2246
15.818
16.3072
16.7049
17.0673
17.4072
-8.76262
-6.66874
-4.94967
-3.21832
-1.37313
0.590988
2.63339
4.73696
6.91829
9.17295
11.2668
12.9368
14.2031
15.1927
15.9826
16.626
17.1616
17.5946
17.8781
18.2661
-10.5453
-8.25998
-6.67454
-4.72639
-2.57143
-0.307154
1.98982
4.33643
6.75438
9.22726
11.5019
13.3004
14.6493
15.6888
16.5023
17.1441
17.6635
18.1274
18.3856
18.7222
-11.7912
-9.447
-7.97453
-5.82383
-3.49071
-1.06306
1.41255
3.96221
6.5818
9.23546
11.6558
13.5499
14.9526
16.0193
16.8445
17.4851
17.9772
18.4551
18.7181
19.0352
-12.705
-10.35
-8.8746
-6.55932
-4.15308
-1.67132
0.913692
3.62129
6.40164
9.20528
11.751
13.7268
15.1753
16.2662
17.105
17.7528
18.233
18.7128
18.975
19.2831
-13.4549
-11.0699
-9.53584
-7.06601
-4.66333
-2.16303
0.503336
3.33364
6.23577
9.16479
11.8219
13.8728
15.365
16.4797
17.3313
17.9888
18.4645
18.9403
19.1989
19.5064
-14.1269
-11.6955
-10.1072
-7.50999
-5.12945
-2.58521
0.166014
3.09533
6.08817
9.1226
11.8784
13.9993
15.534
16.672
17.5349
18.2006
18.6781
19.1448
19.4061
19.7081
-14.7002
-12.276
-10.6354
-7.98033
-5.5949
-2.98804
-0.133266
2.87627
5.94308
9.07015
11.9156
14.1046
15.6833
16.8472
17.7228
18.3953
18.8802
19.336
19.5991
19.8998
-15.2676
-12.7939
-11.1557
-8.44265
-6.05328
-3.3677
-0.411945
2.65389
5.78831
8.99904
11.9285
14.1876
15.8154
17.0107
17.9038
18.5849
19.0793
19.5301
19.7903
20.0965
-15.7677
-13.2768
-11.64
-8.89429
-6.49026
-3.70986
-0.681809
2.42198
5.62019
8.90625
11.9163
14.249
15.9332
17.1683
18.086
18.7796
19.2853
19.7335
19.9906
20.2968
-16.2309
-13.7225
-12.0753
-9.29315
-6.88168
-4.02097
-0.951887
2.18642
5.44419
8.79517
11.8791
14.2866
16.035
17.3204
18.2722
18.9864
19.5073
19.9598
20.2221
20.519
-16.6456
-14.0976
-12.4682
-9.64233
-7.23009
-4.30692
-1.21687
1.95492
5.26226
8.66451
11.8135
14.2959
16.1161
17.4649
18.4655
19.2106
19.7521
20.2015
20.4697
20.7576
-17.0278
-14.4809
-12.8206
-9.95496
-7.54938
-4.57422
-1.47576
1.72557
5.07191
8.51567
11.7213
14.2756
16.1717
17.594
18.6566
19.4464
20.0209
20.488
20.769
21.0529
-17.421
-14.8098
-13.1547
-10.2656
-7.85073
-4.83343
-1.72965
1.4999
4.87783
8.35356
11.6025
14.2198
16.1914
17.6969
18.8435
19.7048
20.3301
20.8068
21.0971
21.3741
-17.722
-15.1278
-13.484
-10.5558
-8.14147
-5.08714
-1.97521
1.27948
4.67973
8.17657
11.4565
14.1281
16.1733
17.7643
19.001
19.9424
20.6382
21.1818
21.5003
21.7666
-18.0735
-15.4653
-13.7912
-10.8416
-8.41917
-5.32981
-2.21151
1.06183
4.47724
7.98941
11.291
14.002
16.1089
17.7803
19.1224
20.1898
20.997
21.6073
21.9793
22.2519
-18.396
-15.7535
-14.0821
-11.1132
-8.67349
-5.55747
-2.43934
0.848691
4.27608
7.79824
11.1082
13.8409
15.998
17.7446
19.1792
20.3526
21.2884
22.0489
22.5184
22.7981
-18.6153
-15.986
-14.317
-11.3444
-8.90768
-5.77678
-2.65749
0.644781
4.07955
7.60278
10.9089
13.6485
15.8384
17.6408
19.1591
20.4572
21.5637
22.4956
23.1268
23.535
-18.8622
-16.1794
-14.527
-11.5683
-9.13789
-5.98904
-2.86094
0.451468
3.8861
7.40464
10.7013
13.4336
15.6373
17.4849
19.064
20.4496
21.6898
22.8151
23.7354
24.3622
-19.1821
-16.4772
-14.8624
-11.8262
-9.35813
-6.18181
-3.05225
0.26148
3.69252
7.20575
10.4833
13.1878
15.3802
17.2465
18.8641
20.2943
21.6
22.8991
24.0994
24.8173
-19.493
-16.7884
-15.1749
-12.0648
-9.54534
-6.36462
-3.24533
0.0678522
3.4956
6.9952
10.2371
12.8954
15.0495
16.9036
18.538
19.9744
21.2627
22.3978
23.2167
23.6381
-19.6736
-16.7734
-15.1235
-12.1212
-9.72558
-6.55736
-3.43771
-0.122874
3.29364
6.76697
9.96799
12.5713
14.6622
16.456
18.0406
19.4093
20.5572
21.4709
22.0752
22.4509
-19.7612
-16.9226
-15.2568
-12.2629
-9.95309
-6.74629
-3.62314
-0.316688
3.07897
6.52619
9.68519
12.2143
14.2054
15.8785
17.3439
18.6104
19.6183
20.3658
20.8144
21.1721
-20.112
-17.4606
-15.8067
-12.64
-10.1703
-6.9138
-3.81149
-0.521075
2.85723
6.2788
9.38186
11.8175
13.6862
15.2129
16.5081
17.6155
18.5322
19.1871
19.533
19.9234
-20.406
-17.7769
-16.0778
-12.8453
-10.3357
-7.09674
-4.0153
-0.73364
2.6304
6.015
9.0545
11.3955
13.13
14.4846
15.5877
16.5252
17.3467
17.9209
18.1186
18.5021
-20.4267
-17.6141
-15.9228
-12.8271
-10.5387
-7.3067
-4.22489
-0.949289
2.393
5.73453
8.71531
10.96
12.5419
13.71
14.6305
15.3704
15.9481
16.3681
16.5626
16.985
-20.5211
-17.7438
-16.1468
-13.0414
-10.7857
-7.50008
-4.42913
-1.16613
2.14936
5.45425
8.37603
10.5191
11.9465
12.9266
13.6261
14.112
14.3675
14.4063
14.3618
14.7297
-20.9133
-18.2455
-16.6264
-13.3983
-10.983
-7.6826
-4.6329
-1.38243
1.91297
5.18677
8.03766
10.0751
11.3469
12.1122
12.5464
12.748
12.674
12.0193
11.0218
11.2621
-21.1534
-18.4402
-16.699
-13.5125
-11.1541
-7.8767
-4.83304
-1.59
1.69256
4.92652
7.69191
9.62478
10.7585
11.307
11.4616
11.3614
10.9892
9.65369
7.0823
4.70806
-21.1901
-18.45
-16.7236
-13.6072
-11.3495
-8.0555
-5.021
-1.78261
1.47896
4.66263
7.34889
9.18763
10.2203
10.5887
10.4717
10.0125
9.29878
7.73693
2.89454
-9.49112
-21.3875
-18.7268
-17.0386
-13.8675
-11.5453
-8.21894
-5.20153
-1.97326
1.25548
4.39879
7.02447
8.76866
9.72137
9.95419
9.59874
8.78799
7.7033
6.54361
5.2093
0.0233429
-21.6747
-19.0058
-17.2759
-14.0882
-11.7402
-8.39176
-5.39143
-2.18561
1.0187
4.1379
6.71427
8.3633
9.25103
9.43621
8.96231
8.06038
7.01093
6.51743
7.14483
5.84459
-21.8435
-19.1393
-17.3918
-14.2374
-11.94
-8.56808
-5.60219
-2.41421
0.784064
3.87821
6.41779
8.00649
8.84085
9.07109
8.74513
8.06241
7.23804
6.70475
7.24044
6.46049
-22.0241
-19.3305
-17.5855
-14.4333
-12.1505
-8.75032
-5.82551
-2.63659
0.557534
3.62081
6.14189
7.73776
8.57978
8.94188
8.88141
8.6576
8.22248
7.35534
7.55344
7.25789
-22.2565
-19.5728
-17.8091
-14.6575
-12.3697
-8.92561
-6.03385
-2.84555
0.334918
3.37311
5.89033
7.5581
8.50133
9.07031
9.28331
9.42624
9.74521
9.1083
9.04835
9.11711
-22.4601
-19.7782
-17.9966
-14.8444
-12.5562
-9.07161
-6.23476
-3.05765
0.111447
3.14461
5.67985
7.45205
8.56481
9.34542
9.89647
10.244
10.8582
11.003
11.2264
11.4301
-22.6275
-19.95
-18.1558
-14.9998
-12.7154
-9.22617
-6.46164
-3.26291
-0.0947205
2.95482
5.53888
7.40867
8.69791
9.6373
10.4515
10.9573
11.5866
12.0943
12.6436
13.0236
-22.7686
-20.095
-18.3048
-15.1594
-12.8858
-9.41505
-6.68789
-3.4181
-0.261937
2.80762
5.45602
7.40776
8.8144
9.86563
10.7749
11.438
12.1274
12.6831
13.2249
13.6117
-22.8836
-20.2161
-18.4355
-15.2941
-13.012
-9.58504
-6.84596
-3.52297
-0.4036
2.68065
5.38393
7.41561
8.88138
10.0132
10.9829
11.7507
12.4832
13.0139
13.477
13.8631
-22.9323
-20.2661
-18.4871
-15.3501
-13.0391
-9.70863
-6.92178
-3.63675
-0.536823
2.56068
5.30081
7.40916
8.92847
10.1396
11.1522
11.9422
12.6576
13.1909
13.602
14.0139
-22.8727
-20.2125
-18.4462
-15.3605
-12.9998
-9.8062
-6.95915
-3.75325
-0.653236
2.45285
5.21575
7.37119
8.97193
10.2215
11.2464
12.0339
12.7087
13.2671
13.6402
14.0575
-22.7275
-20.0822
-18.322
-15.3399
-12.9204
-9.84643
-6.96931
-3.82783
-0.743335
2.3515
5.12585
7.3075
8.94715
10.2128
11.241
12.0325
12.6781
13.2384
13.5967
14.021
-22.4757
-19.8562
-18.0947
-15.2017
-12.7483
-9.78516
-6.92761
-3.84616
-0.811864
2.24568
5.0135
7.19827
8.84352
10.111
11.1403
11.9363
12.5645
13.1352
13.476
13.9106
-22.0361
-19.4677
-17.6687
-14.8886
-12.4571
-9.59941
-6.80689
-3.81949
-0.864208
2.13011
4.86081
7.02496
8.66115
9.92473
10.9479
11.7601
12.3689
12.9616
13.2834
13.7248
-21.3193
-18.8246
-17.0286
-14.4032
-12.0277
-9.29162
-6.59864
-3.74435
-0.897142
2.00081
4.65852
6.77851
8.39201
9.64624
10.6537
11.4737
12.0795
12.6641
13.0122
13.4403
-20.2634
-17.8818
-16.1414
-13.6806
-11.4187
-8.84325
-6.29044
-3.60435
-0.902568
1.8569
4.40339
6.44926
8.01615
9.24518
10.2312
11.0416
11.6615
12.233
12.6048
13.0319
-18.7779
-16.5426
-14.9244
-12.6816
-10.5801
-8.21979
-5.86531
-3.395
-0.885869
1.68962
4.08345
6.01799
7.50676
8.68435
9.63403
10.4207
11.0392
11.6014
11.9836
12.4132
-16.661
-14.7271
-13.3156
-11.3501
-9.48586
-7.40712
-5.31386
-3.10968
-0.841194
1.5057
3.70124
5.48003
6.84964
7.93549
8.81438
9.54758
10.1403
10.6714
11.0646
11.4905
-13.8746
-12.2988
-11.2439
-9.66234
-8.10891
-6.38737
-4.62161
-2.7337
-0.752449
1.31729
3.26328
4.83656
6.03797
6.98052
7.73481
8.35588
8.85832
9.29372
9.6325
10.0045
-10.0905
-9.12046
-8.75045
-7.59352
-6.44482
-5.18567
-3.8219
-2.29006
-0.627831
1.14162
2.82895
4.19558
5.22613
6.01695
6.62961
7.11161
7.48801
7.79181
7.99156
8.22235
-6.31096
-5.92702
-6.13722
-5.2971
-4.70465
-3.94816
-2.97766
-1.79727
-0.456282
1.02213
2.46653
3.64508
4.52743
5.19059
5.68578
6.05273
6.31758
6.52571
6.58074
6.68351
-3.7536
-3.64992
-3.89269
-3.31924
-3.18809
-2.778
-2.11697
-1.25828
-0.225024
0.969652
2.17
3.15437
3.88127
4.4095
4.78205
5.03364
5.18927
5.30941
5.30619
5.34622
-2.40498
-2.26553
-2.42639
-1.98708
-2.02612
-1.76143
-1.3245
-0.732879
0.0304657
0.961989
1.92794
2.72553
3.30534
3.71165
3.98332
4.15529
4.25095
4.33193
4.33591
4.36494
-1.58503
-1.52793
-1.60128
-1.25733
-1.29354
-1.0565
-0.738692
-0.316598
0.24845
0.96378
1.72523
2.35964
2.81767
3.1343
3.34496
3.48158
3.56097
3.63109
3.64564
3.66911
-1.03266
-1.01881
-1.06473
-0.831247
-0.846704
-0.633187
-0.378756
-0.0455177
0.397357
0.958997
1.56232
2.06854
2.43604
2.6931
2.86825
2.98582
3.05552
3.11161
3.12579
3.1399
-0.593013
-0.58974
-0.618728
-0.484813
-0.487445
-0.328712
-0.134459
0.133003
0.490437
0.941984
1.42713
1.83558
2.13391
2.34415
2.48768
2.58315
2.63822
2.67794
2.68937
2.69754
-0.240565
-0.238587
-0.252947
-0.18262
-0.171759
-0.0661119
0.0718377
0.275016
0.555309
0.915328
1.3054
1.63476
1.87498
2.04299
2.15579
2.22925
2.27119
2.2995
2.30947
2.31569
0.00722261
0.00869208
0.00794022
0.047994
0.0669603
0.139821
0.239194
0.390201
0.604087
0.885631
1.19555
1.45842
1.64941
1.78184
1.86986
1.92684
1.96001
1.98145
1.99027
1.99554
0.172366
0.173755
0.177052
0.202284
0.223791
0.278212
0.35467
0.470376
0.634906
0.85432
1.09878
1.30711
1.45838
1.56314
1.63285
1.67803
1.70486
1.72152
1.7289
1.73317
0.283039
0.284426
0.288586
0.305384
0.325144
0.366614
0.426925
0.517743
0.646526
0.818815
1.01181
1.17682
1.29681
1.38007
1.43556
1.47146
1.49298
1.50591
1.51185
1.51526
0.357933
0.359371
0.363386
0.375198
0.391778
0.42325
0.470396
0.541505
0.642601
0.778335
0.930964
1.06175
1.15693
1.22296
1.26695
1.29528
1.31238
1.32244
1.32719
1.32997
0.40505
0.40643
0.409943
0.41864
0.432121
0.456181
0.492866
0.548214
0.627283
0.734036
0.854633
0.95817
1.03351
1.08573
1.12049
1.14283
1.15638
1.16427
1.16805
1.17039
0.429474
0.430715
0.433641
0.440234
0.451071
0.469692
0.498341
0.541481
0.603305
0.687145
0.78224
0.864017
0.923517
0.964754
0.99222
1.00986
1.0206
1.0268
1.02977
1.03171
0.435623
0.436916
0.439276
0.444345
0.452964
0.467456
0.489905
0.523663
0.572109
0.637956
0.712847
0.777355
0.824322
0.856889
0.87859
0.892507
0.900981
0.905849
0.908192
0.909703
0.428304
0.429395
0.43126
0.435183
0.441964
0.453251
0.470848
0.497295
0.535278
0.586968
0.645881
0.696701
0.733717
0.75938
0.776459
0.787374
0.794006
0.797786
0.799576
0.800735
0.41023
0.41107
0.412528
0.415564
0.420867
0.429679
0.443457
0.464143
0.493867
0.534363
0.580616
0.620579
0.649707
0.669889
0.68331
0.691881
0.697097
0.700077
0.701496
0.702419
0.383421
0.384128
0.385303
0.387686
0.391857
0.398757
0.409527
0.425671
0.44888
0.480555
0.516816
0.548166
0.57098
0.586772
0.597278
0.604004
0.608121
0.610486
0.61162
0.612306
0.350414
0.350934
0.351854
0.353723
0.357
0.362384
0.370761
0.38331
0.401359
0.426001
0.454218
0.478612
0.496392
0.508735
0.51698
0.522279
0.525519
0.527375
0.528268
0.528826
0.311945
0.312313
0.313042
0.314498
0.317041
0.321202
0.327677
0.337369
0.351307
0.370365
0.392234
0.411191
0.425027
0.434631
0.441045
0.445159
0.44767
0.449103
0.449786
0.450219
0.270054
0.270373
0.270938
0.272057
0.274009
0.277183
0.282117
0.289524
0.300187
0.314765
0.331483
0.345938
0.356466
0.363789
0.36866
0.37176
0.37364
0.374699
0.375192
0.375498
0.225079
0.225263
0.225665
0.226496
0.22795
0.230326
0.234036
0.239583
0.247555
0.258426
0.270843
0.281603
0.289496
0.294991
0.29865
0.300978
0.302389
0.303196
0.303574
0.303784
0.177441
0.177658
0.178025
0.178665
0.179734
0.181458
0.184139
0.188115
0.193804
0.201579
0.210537
0.218392
0.224077
0.227948
0.230499
0.232124
0.233106
0.233667
0.233919
0.23404
0.128269
0.128434
0.128657
0.129067
0.12977
0.130896
0.132631
0.135259
0.139087
0.144301
0.150324
0.155508
0.159239
0.161759
0.16342
0.164495
0.16515
0.165517
0.1657
0.165787
0.0770786
0.0771062
0.0771628
0.077336
0.0776748
0.0782497
0.079174
0.0806011
0.0826937
0.0857024
0.0892111
0.0920054
0.0939843
0.0953738
0.0963253
0.0969604
0.0973897
0.0976676
0.0978279
0.0979617
0.0253617
0.025361
0.0253717
0.0254266
0.0255306
0.0257211
0.0260477
0.0265479
0.0272824
0.0283122
0.0293915
0.0302668
0.0308837
0.0313281
0.0316454
0.0318558
0.0320073
0.0321174
0.0321765
0.0322551
11.2952
16.2851
17.4786
18.9808
20.161
21.2632
22.3003
23.3447
24.2001
24.6814
16.6957
19.1038
19.8088
20.7682
21.6416
22.439
23.1448
23.7854
24.1994
24.3705
19.6039
20.8307
21.3767
21.9864
22.5562
23.0743
23.51
23.8712
24.0635
24.1136
21.2805
21.9931
22.3354
22.7577
23.1123
23.4396
23.6735
23.8666
23.9347
23.9535
22.3269
22.7304
22.9316
23.1935
23.3925
23.6015
23.7225
23.8353
23.8674
23.8897
22.9471
23.1929
23.293
23.4843
23.5782
23.7161
23.7581
23.8396
23.84
23.8705
23.3276
23.4824
23.5169
23.6519
23.6698
23.7847
23.7777
23.8638
23.8376
23.8823
23.5626
23.6723
23.6574
23.7874
23.749
23.8605
23.8176
23.9029
23.8667
23.9158
23.7336
23.8136
23.7825
23.885
23.8335
23.933
23.8849
23.9585
23.9243
23.9704
23.8641
23.921
23.8893
23.968
23.9212
23.9983
23.9556
24.0145
23.9919
24.0152
23.9414
23.9742
23.9587
23.9984
23.9792
24.0196
24.0019
24.0349
24.0197
24.0337
23.9757
23.9919
23.9911
24.0109
24.0086
24.0273
24.0225
24.0468
24.0393
24.0607
24.0323
24.0546
24.0628
24.0799
24.0917
24.103
24.1141
24.1275
24.1275
24.1468
24.1831
24.1943
24.2071
24.2149
24.2226
24.2279
24.2364
24.2479
24.2529
24.2663
24.3441
24.3329
24.3287
24.3233
24.3195
24.319
24.3247
24.3367
24.3482
24.377
24.464
24.4081
24.3782
24.358
24.3509
24.3528
24.3599
24.3754
24.4028
24.4712
)
;

boundaryField
{
    wall-4
    {
        type            zeroGradient;
    }
    pressure-outlet-7
    {
        type            fixedValue;
        value           uniform 0;
    }
    velocity-inlet-6
    {
        type            zeroGradient;
    }
    velocity-inlet-5
    {
        type            zeroGradient;
    }
    frontAndBackPlanes
    {
        type            empty;
    }
}


// ************************************************************************* //
