/*--------------------------------*- C++ -*----------------------------------*\
| =========                 |                                                 |
| \\      /  F ield         | OpenFOAM: The Open Source CFD Toolbox           |
|  \\    /   O peration     | Version:  2412                                  |
|   \\  /    A nd           | Website:  www.openfoam.com                      |
|    \\/     M anipulation  |                                                 |
\*---------------------------------------------------------------------------*/
FoamFile
{
    version     2.0;
    format      ascii;
    arch        "LSB;label=32;scalar=64";
    class       surfaceScalarField;
    location    "1.25";
    object      phi;
}
// * * * * * * * * * * * * * * * * * * * * * * * * * * * * * * * * * * * * * //

dimensions      [0 3 -1 0 0 0 0];

oriented        oriented;

internalField   nonuniform List<scalar> 
4262
(
-0.026536
0.247049
-0.00514107
0.807258
0.00272888
1.75927
-0.000597242
3.16849
-0.0154215
5.19943
-0.0371101
8.03605
-0.0509363
11.861
-0.0480092
16.8168
-0.0352106
22.869
-0.00212957
29.4953
0.0325896
29.4936
0.046017
22.8684
0.0491348
16.8166
0.0357125
11.8606
0.014333
8.03574
-0.000277483
5.19921
-0.00329804
3.16819
0.00484545
1.759
0.0264294
0.807069
0.246942
-0.133905
0.380954
-0.182094
0.855447
-0.147827
1.72501
-0.114094
3.13476
-0.129024
5.21436
-0.155875
8.0629
-0.168568
11.8737
-0.156033
16.8043
-0.126413
22.8394
-0.0050413
29.3739
0.116596
29.372
0.147673
22.8373
0.161872
16.8024
0.150972
11.8715
0.125671
8.06104
0.112094
5.21279
0.146698
3.13358
0.18153
1.72417
0.133664
0.854935
0.380606
-0.252826
0.63378
-0.465155
1.06778
-0.522633
1.78248
-0.49332
3.10545
-0.43258
5.15362
-0.387661
8.01799
-0.384326
11.8703
-0.331557
16.7515
-0.203191
22.711
-0.00799699
29.1787
0.18663
29.1774
0.318772
22.7052
0.374801
16.7464
0.380642
11.8656
0.42772
8.01397
0.49054
5.14997
0.521204
3.10292
0.46472
1.78065
0.252751
1.0669
0.633357
-0.335529
0.969309
-0.733374
1.46562
-0.990716
2.03983
-1.13013
3.24486
-1.1201
5.14358
-0.989347
7.88724
-0.794269
11.6752
-0.59358
16.5508
-0.344892
22.4623
-0.0100017
28.8438
0.324525
28.8428
0.575353
22.4543
0.779858
16.5419
0.979371
11.6661
1.11417
7.87917
1.12633
5.13781
0.988423
3.24083
0.731268
2.03781
0.334289
1.46388
0.967645
-0.391221
1.36053
-0.89545
1.96985
-1.36924
2.51361
-1.69258
3.56821
-1.80226
5.25326
-1.74785
7.83283
-1.46371
11.3911
-1.11644
16.2035
-0.663789
22.0097
-0.0136214
28.1936
0.638033
28.1912
1.09151
22.0009
1.44363
16.1898
1.73337
11.3764
1.79288
7.81965
1.68635
5.24435
1.3655
3.56168
0.894519
2.50879
0.391312
1.96709
1.35896
-0.401182
1.76171
-0.926858
2.49553
-1.50108
3.08784
-1.97614
4.04327
-2.2334
5.51051
-2.25208
7.85151
-1.99006
11.1291
-1.51143
15.7249
-0.870068
21.3683
-0.0204356
27.344
0.83042
27.3403
1.48408
21.3472
1.97034
15.7035
2.2368
11.1099
2.22174
7.83471
1.96815
5.49794
1.4954
4.03443
0.922242
3.08194
0.398273
2.49106
1.75723
-0.362714
2.12443
-0.861004
2.99381
-1.4304
3.65724
-1.97863
4.59149
-2.39446
5.92635
-2.51428
7.97133
-2.38621
11.001
-1.84569
15.1844
-1.00087
20.5235
-0.022271
26.3654
0.959873
26.3582
1.80773
20.4994
2.35418
15.1571
2.49058
10.9735
2.37587
7.94942
1.9643
5.90951
1.41928
4.57945
0.853049
3.64817
0.359313
2.9848
2.11654
-0.297855
2.42228
-0.734339
3.4303
-1.24737
4.17028
-1.78545
5.12956
-2.28282
6.42372
-2.55485
8.24336
-2.54932
10.9955
-2.11551
14.7506
-1.21125
19.6193
-0.0292326
25.1834
1.1586
25.1704
2.07363
19.5843
2.51459
14.7161
2.52554
10.9626
2.25973
8.21523
1.7687
6.40054
1.23684
5.1113
0.729982
4.15504
0.295908
3.41887
2.41245
-0.223753
2.64603
-0.578514
3.78506
-1.00193
4.5937
-1.46494
5.59256
-1.92993
6.88872
-2.31368
8.62711
-2.40289
11.0847
-2.08555
14.4332
-1.2733
18.807
-0.036553
23.9466
1.20801
23.9258
2.02798
18.7644
2.35959
14.3845
2.27733
11.0448
1.90021
8.59235
1.44065
6.86011
0.983784
5.56817
0.565291
4.57353
0.215873
3.76829
2.62832
-0.155444
2.80148
-0.425299
4.05491
-0.749769
4.91817
-1.11119
5.95399
-1.48524
7.26276
-1.81629
8.95816
-1.95614
11.2246
-1.7657
14.2428
-1.12601
18.1673
-0.0405507
22.8612
1.04758
22.8377
1.68709
18.1249
1.88797
14.1836
1.76206
11.1707
1.44332
8.91109
1.07997
7.22345
0.726713
5.92143
0.409149
4.89109
0.148771
4.02867
2.77709
-0.102597
2.90408
-0.298167
4.25048
-0.534282
5.15428
-0.799651
6.21936
-1.07791
7.54102
-1.32751
9.20776
-1.45958
11.3566
-1.34903
14.1322
-0.90793
17.7262
-0.0537563
22.007
0.800922
21.983
1.26862
17.6572
1.38186
14.0704
1.26265
11.2899
1.02562
9.14812
0.761281
7.48778
0.509386
6.17332
0.286153
5.11433
0.0988555
4.21596
2.87595
-0.0667798
2.97086
-0.20454
4.38824
-0.371293
5.32103
-0.559634
6.4077
-0.759146
7.74053
-0.942842
9.39146
-1.05138
11.4652
-1.00766
14.0885
-0.697995
17.4166
-0.0721519
21.3812
0.564581
21.3462
0.891763
17.33
0.956776
14.0053
0.864607
11.3821
0.698088
9.31464
0.515098
7.67077
0.342325
6.34609
0.188526
5.26813
0.0568325
4.34766
2.93278
-0.0449149
3.01577
-0.141637
4.48497
-0.258704
5.4381
-0.391429
6.54043
-0.532527
7.88163
-0.66506
9.52399
-0.752386
11.5525
-0.745427
14.0816
-0.518596
17.1897
-0.0874262
20.95
0.361263
20.8976
0.583729
17.1075
0.625581
13.9635
0.563914
11.4438
0.455007
9.42355
0.33309
7.79269
0.215564
6.46362
0.110458
5.37323
0.0258825
4.43223
2.95866
-0.0313398
3.04711
-0.0997638
4.55339
-0.182583
5.52092
-0.277076
6.63492
-0.378046
7.9826
-0.475168
9.62112
-0.545358
11.6227
-0.53946
14.0757
-0.386837
17.0371
-0.100462
20.6636
0.193374
20.6037
0.344843
16.956
0.377007
13.9313
0.34028
11.4805
0.273126
9.49071
0.197262
7.86856
0.122549
6.53833
0.0560783
5.4397
0.0109775
4.47733
2.96964
-0.0234428
3.07055
-0.0727348
4.60268
-0.132284
5.58047
-0.200401
6.70304
-0.273531
8.05573
-0.345379
9.69296
-0.399273
11.6766
-0.395444
14.0718
-0.320226
16.9619
-0.128738
20.4721
0.0602457
20.4147
0.166817
16.8495
0.196755
13.9014
0.181137
11.4961
0.144043
9.5278
0.102756
7.90984
0.0645502
6.57654
0.0330752
5.47118
0.0119518
4.49846
2.98159
-0.0193202
3.08987
-0.0566019
4.63996
-0.101641
5.62551
-0.153109
6.7545
-0.20873
8.11135
-0.263228
9.74746
-0.308074
11.7214
-0.318961
14.0827
-0.30462
16.9475
-0.179446
20.347
-0.0498493
20.2851
0.0337218
16.7659
0.0675772
13.8675
0.073046
11.4907
0.0632065
9.53764
0.0480897
7.92496
0.0343807
6.59025
0.0261237
5.47943
0.0128264
4.51175
2.99442
-0.0213206
3.11119
-0.0534413
4.67208
-0.0916886
5.66375
-0.135517
6.79833
-0.183085
8.15892
-0.229741
9.79412
-0.269495
11.7612
-0.294586
14.1078
-0.319683
16.9726
-0.242428
20.2697
-0.142803
20.1855
-0.0725202
16.6956
-0.0320614
13.8271
-0.00888686
11.4675
0.00484026
9.52391
0.0114912
7.91831
0.0137094
6.58803
0.0136227
5.47952
0.0051251
4.52025
2.99955
-0.0221035
3.1333
-0.0531679
4.70315
-0.0902624
5.70085
-0.13281
6.84088
-0.180458
8.20657
-0.228545
9.8422
-0.269303
11.8019
-0.30261
14.1411
-0.352453
17.0225
-0.310944
20.2282
-0.230304
20.1049
-0.167239
16.6326
-0.119801
13.7796
-0.0834209
11.4311
-0.0550274
9.49552
-0.0329567
7.89624
-0.0162303
6.5713
-0.00697108
5.47026
-0.00465984
4.51794
2.99489
-0.0300885
3.16339
-0.0644922
4.73755
-0.104341
5.7407
-0.150704
6.88724
-0.201892
8.25775
-0.255722
9.89603
-0.304223
11.8504
-0.353395
14.1903
-0.404551
17.0736
-0.383884
20.2075
-0.318812
20.0398
-0.257884
16.5716
-0.2023
13.7241
-0.154688
11.3835
-0.114613
9.45544
-0.0808646
7.86249
-0.0520348
6.54247
-0.0315895
5.44982
-0.0183946
4.50474
2.97649
-0.0324156
3.1958
-0.0721627
4.7773
-0.119831
5.78837
-0.17472
6.94213
-0.237999
8.32103
-0.307257
9.96529
-0.37655
11.9197
-0.444653
14.2584
-0.478173
17.1072
-0.472105
20.2015
-0.420038
19.9877
-0.354782
16.5064
-0.287826
13.6571
-0.226595
11.3223
-0.173051
9.4019
-0.127869
7.81731
-0.0909868
6.50559
-0.0613935
5.42022
-0.0335698
4.47692
2.94292
-0.0493185
3.24512
-0.100609
4.82859
-0.15865
5.84641
-0.227046
7.01053
-0.30539
8.39938
-0.391632
10.0515
-0.481137
12.0092
-0.561015
14.3383
-0.587666
17.1338
-0.589388
20.2032
-0.53978
19.9381
-0.464398
16.431
-0.383953
13.5767
-0.308372
11.2467
-0.241481
9.33501
-0.183942
7.75977
-0.135732
6.45738
-0.0942084
5.3787
-0.047515
4.43023
2.89541
-0.0538553
3.29898
-0.118103
4.89284
-0.197382
5.92569
-0.290447
7.10359
-0.394819
8.50375
-0.507696
10.1644
-0.620106
12.1216
-0.71265
14.4308
-0.743566
17.1647
-0.745689
20.2053
-0.686821
19.8793
-0.594938
16.3391
-0.494917
13.4766
-0.397244
11.149
-0.307154
9.24492
-0.227702
7.68032
-0.158976
6.38866
-0.099162
5.31888
-0.0450971
4.37616
2.85031
-0.0929183
3.39189
-0.183282
4.9832
-0.282451
6.02485
-0.395979
7.21712
-0.5278
8.63557
-0.666517
10.3031
-0.798778
12.2539
-0.904493
14.5365
-0.94451
17.2047
-0.940147
20.2009
-0.863321
19.8024
-0.750129
16.2259
-0.627586
13.3541
-0.508197
11.0296
-0.397994
9.13472
-0.299827
7.58215
-0.215967
6.3048
-0.141369
5.24429
-0.0650467
4.29984
2.78526
-0.118777
3.51067
-0.231663
5.09609
-0.378012
6.1712
-0.552439
7.39155
-0.729716
8.81285
-0.897342
10.4708
-1.04904
12.4056
-1.16245
14.6499
-1.20427
17.2466
-1.18218
20.1789
-1.07812
19.6984
-0.938476
16.0863
-0.789415
13.205
-0.642691
10.8829
-0.504239
8.99626
-0.375348
7.45326
-0.256806
6.18625
-0.155187
5.14267
-0.0711242
4.21578
2.71414
-0.230878
3.74155
-0.40644
5.27165
-0.618017
6.38278
-0.823525
7.59706
-1.02046
9.00978
-1.20915
10.6594
-1.37012
12.5666
-1.47902
14.7588
-1.5098
17.2773
-1.46049
20.1296
-1.3247
19.5626
-1.15613
15.9177
-0.979596
13.0285
-0.806788
10.7101
-0.644989
8.83446
-0.499364
7.30763
-0.368662
6.05555
-0.243987
5.01799
-0.119195
4.09099
2.59494
-0.341689
4.08324
-0.691339
5.6213
-0.978773
6.67021
-1.21665
7.83494
-1.43985
9.23298
-1.63666
10.8563
-1.78687
12.7168
-1.87334
14.8453
-1.87757
17.2816
-1.78976
20.0417
-1.61598
19.3888
-1.41623
15.7179
-1.2132
12.8255
-1.01676
10.5136
-0.82959
8.6473
-0.651746
7.12979
-0.485655
5.88946
-0.329294
4.86163
-0.158341
3.92003
2.4366
-0.235192
4.31843
-0.519155
5.90526
-0.768341
6.9194
-1.05283
8.11942
-1.3333
9.51345
-1.58868
11.1116
-1.80718
12.9353
-1.9839
15.022
-2.09508
17.3928
-2.10612
20.0528
-1.9897
19.2724
-1.79561
15.5239
-1.55837
12.5882
-1.30033
10.2556
-1.03642
8.3834
-0.776632
6.87
-0.529601
5.64243
-0.309171
4.6412
-0.126804
3.73767
2.3098
-0.0953415
4.41377
-0.18776
5.99768
-0.407867
7.13951
-0.648288
8.35984
-0.886548
9.75171
-1.10063
11.3257
-1.29193
13.1266
-1.44904
15.1791
-1.54219
17.4859
-1.53612
20.0467
-1.41571
19.152
-1.2329
15.3411
-1.0219
12.3772
-0.806136
10.0398
-0.601946
8.17921
-0.419073
6.68712
-0.257509
5.48087
-0.113959
4.49765
-0.0278786
3.65159
2.28192
-0.0704003
4.48417
-0.163686
6.09097
-0.279009
7.25483
-0.442542
8.52338
-0.607958
9.91713
-0.774479
11.4922
-0.937783
13.2899
-1.07232
15.3137
-1.14938
17.563
-1.14139
20.0387
-1.03846
19.0491
-0.88893
15.1915
-0.725429
12.2137
-0.566465
9.88086
-0.421139
8.03388
-0.293715
6.5597
-0.185022
5.37217
-0.085351
4.39798
-0.0102041
3.57644
2.27172
-0.0271232
4.51129
-0.148813
6.21266
-0.271738
7.37776
-0.358829
8.61047
-0.454681
10.013
-0.579255
11.6168
-0.710188
13.4208
-0.818755
15.4222
-0.881788
17.626
-0.876867
20.0338
-0.794779
18.967
-0.676646
15.0734
-0.549806
12.0869
-0.427588
9.75864
-0.315153
7.92145
-0.214477
6.45902
-0.129043
5.28674
-0.0576387
4.32658
-0.00604588
3.52485
2.26567
-0.0100433
4.52134
-0.104655
6.30727
-0.19196
7.46506
-0.273907
8.69241
-0.363438
10.1025
-0.466267
11.7196
-0.567938
13.5225
-0.65121
15.5055
-0.701925
17.6767
-0.699354
20.0312
-0.633133
18.9007
-0.536966
14.9772
-0.433769
11.9837
-0.334957
9.65983
-0.245424
7.83192
-0.167031
6.38063
-0.101535
5.22124
-0.0479001
4.27294
-0.00912303
3.48607
2.25655
-0.012725
4.53406
-0.0869099
6.38145
-0.154947
7.5331
-0.216175
8.75364
-0.303834
10.1902
-0.391217
11.807
-0.472515
13.6038
-0.538421
15.5714
-0.581751
17.72
-0.581454
20.0309
-0.526764
18.8461
-0.44602
14.8965
-0.359516
11.8972
-0.277725
9.57804
-0.205022
7.75921
-0.14167
6.31728
-0.0885235
5.1681
-0.0470566
4.23148
-0.0120484
3.45106
2.2445
-0.00557576
4.53964
-0.0479217
6.4238
-0.102902
7.58808
-0.176957
8.8277
-0.254818
10.268
-0.333552
11.8858
-0.404259
13.6745
-0.461847
15.629
-0.502087
17.7603
-0.504389
20.0332
-0.459044
18.8007
-0.390037
14.8275
-0.315591
11.8227
-0.245168
9.50762
-0.182895
7.69694
-0.128926
6.26331
-0.0817816
5.12095
-0.0459978
4.19569
-0.0147855
3.41985
2.22971
-0.00717241
4.54681
-0.0554058
6.47203
-0.102684
7.63536
-0.155865
8.88088
-0.217248
10.3294
-0.289437
11.958
-0.350765
13.7358
-0.405755
15.684
-0.446508
17.801
-0.454065
20.0408
-0.418241
18.7649
-0.358641
14.7679
-0.292401
11.7565
-0.22866
9.44388
-0.171737
7.64002
-0.122854
6.21443
-0.0799018
5.078
-0.0461595
4.16195
-0.0177574
3.39145
2.21196
-0.0161778
4.56299
-0.0473502
6.5032
-0.0867447
7.67475
-0.140522
8.93465
-0.202178
10.3911
-0.258849
12.0146
-0.310821
13.7878
-0.366197
15.7394
-0.409016
17.8438
-0.422975
20.0547
-0.396179
18.7381
-0.34427
14.716
-0.283742
11.696
-0.224029
9.38416
-0.169819
7.58581
-0.122874
6.16748
-0.0821964
5.03732
-0.0482253
4.12798
-0.020366
3.36359
2.19159
-0.00559874
4.56859
-0.0487013
6.54631
-0.0857395
7.71179
-0.127214
8.97613
-0.180843
10.4447
-0.232099
12.0659
-0.283073
13.8388
-0.337965
15.7943
-0.381606
17.8875
-0.402679
20.0758
-0.386399
18.7218
-0.342669
14.6722
-0.286663
11.64
-0.228526
9.32603
-0.174112
7.53139
-0.126419
6.11979
-0.0847818
4.99568
-0.0500801
4.09328
-0.0215848
3.33509
2.17
-0.020866
4.58945
-0.0459216
6.57136
-0.0763306
7.7422
-0.118327
9.01813
-0.165108
10.4915
-0.210094
12.1109
-0.261281
13.89
-0.315488
15.8485
-0.3618
17.9338
-0.392073
20.1061
-0.387401
18.7171
-0.351981
14.6368
-0.299838
11.5878
-0.242352
9.26854
-0.187111
7.47615
-0.137434
6.07011
-0.0944286
4.95268
-0.0574779
4.05633
-0.0252725
3.30289
2.14473
-0.00186265
4.59132
-0.0403219
6.60982
-0.069671
7.77155
-0.10899
9.05744
-0.152428
10.5349
-0.193907
12.1523
-0.244979
13.941
-0.298562
15.9021
-0.34772
17.983
-0.385918
20.1443
-0.392756
18.724
-0.367241
14.6113
-0.32041
11.541
-0.262704
9.21083
-0.203444
7.41689
-0.149164
6.01583
-0.100486
4.904
-0.0612688
4.01711
-0.0278028
3.26942
2.11693
-0.019191
4.61051
-0.0420327
6.63266
-0.064643
7.79416
-0.102756
9.09556
-0.141812
10.574
-0.180927
12.1915
-0.231288
13.9914
-0.283375
15.9541
-0.334925
18.0345
-0.381306
20.1907
-0.401573
18.7442
-0.387794
14.5975
-0.348086
11.5013
-0.292558
9.1553
-0.232013
7.35635
-0.174081
5.9579
-0.122597
4.85252
-0.0777667
3.97228
-0.0353069
3.22696
2.08162
-0.0029711
4.61348
-0.0356107
6.6653
-0.0578177
7.81636
-0.0952705
9.13301
-0.131078
10.6098
-0.16964
12.23
-0.218626
14.0404
-0.269734
16.0052
-0.324145
18.0889
-0.378268
20.2448
-0.411546
18.7775
-0.411026
14.597
-0.381945
11.4722
-0.330197
9.10356
-0.263506
7.28966
-0.194162
5.88856
-0.129661
4.78801
-0.0797978
3.92242
-0.0366807
3.18384
2.04494
-0.00895608
4.62243
-0.0358385
6.69218
-0.0562348
7.83676
-0.088838
9.16561
-0.12142
10.6424
-0.159277
12.2679
-0.206421
14.0875
-0.256853
16.0557
-0.313299
18.1454
-0.373533
20.305
-0.418835
18.8228
-0.431931
14.6101
-0.41376
11.454
-0.370325
9.06012
-0.309575
7.22891
-0.241779
5.82076
-0.176597
4.72283
-0.113223
3.85904
-0.0518779
3.1225
1.99306
-0.0122674
4.6347
-0.0352547
6.71517
-0.0475989
7.8491
-0.0831153
9.20113
-0.112761
10.672
-0.149644
12.3048
-0.194629
14.1325
-0.244386
16.1054
-0.302266
18.2032
-0.367702
20.3705
-0.42449
18.8796
-0.454477
14.6401
-0.455126
11.4547
-0.427752
9.03275
-0.370493
7.17165
-0.284341
5.73461
-0.18981
4.6283
-0.118661
3.78789
-0.0580621
3.0619
1.935
0.000950477
4.63375
-0.0299278
6.74605
-0.0498439
7.86902
-0.0774535
9.22874
-0.104974
10.6995
-0.140427
12.3402
-0.18333
14.1754
-0.232122
16.1542
-0.290616
18.2617
-0.360126
20.44
-0.426674
18.9462
-0.470348
14.6838
-0.482276
11.4666
-0.462207
9.01268
-0.417836
7.12728
-0.358384
5.67516
-0.280467
4.55038
-0.170305
3.67773
-0.0683196
2.95991
1.86668
-0.0093611
4.64311
-0.0297435
6.76643
-0.0388339
7.87811
-0.0715916
9.2615
-0.097095
10.725
-0.131481
12.3746
-0.172235
14.2162
-0.219743
16.2017
-0.278417
18.3204
-0.351183
20.5127
-0.42556
19.0205
-0.483587
14.7418
-0.519621
11.5026
-0.532238
9.0253
-0.515342
7.11038
-0.449633
5.60945
-0.339242
4.43999
-0.222409
3.5609
-0.0984211
2.83593
1.76826
-0.00264141
4.64575
-0.0271135
6.7909
-0.0410338
7.89203
-0.0667611
9.28722
-0.0905145
10.7488
-0.122936
12.407
-0.161333
14.2546
-0.207588
16.248
-0.265968
18.3788
-0.340535
20.5873
-0.421093
19.1011
-0.49085
14.8115
-0.538897
11.5507
-0.550675
9.03707
-0.536199
7.0959
-0.516664
5.58991
-0.473878
4.39721
-0.345465
3.43249
-0.148605
2.63907
1.61966
-0.00405967
4.64981
-0.0236972
6.81054
-0.0363546
7.90469
-0.0633776
9.31425
-0.0842362
10.7696
-0.115225
12.438
-0.151778
14.2911
-0.196894
16.2931
-0.254628
18.4365
-0.330327
20.663
-0.41579
19.1866
-0.495188
14.8909
-0.563845
11.6193
-0.617194
9.09042
-0.642394
7.1211
-0.628474
5.57599
-0.574498
4.34323
-0.478803
3.33679
-0.267445
2.42771
1.35221
-0.00318948
4.653
-0.0146692
6.82202
-0.0317191
7.92174
-0.0584636
9.34099
-0.080102
10.7913
-0.113294
12.4712
-0.150902
14.3287
-0.198242
16.3404
-0.2605
18.4988
-0.345019
20.7475
-0.445134
19.2867
-0.544934
14.9907
-0.637286
11.7117
-0.704869
9.15801
-0.742037
7.15827
-0.766654
5.60061
-0.813029
4.3896
-0.924015
3.44778
-0.975328
2.47902
1.40511
-1.02822
-0.00514404
4.65815
-0.0309039
6.84778
-0.0349135
7.92575
-0.0552663
9.36134
-0.076467
10.8125
-0.108771
12.5035
-0.145203
14.3652
-0.192836
16.3881
-0.256865
18.5628
-0.345939
20.8366
-0.455598
19.3963
-0.570879
15.106
-0.689384
11.8302
-0.813098
9.28172
-0.938979
7.28415
-1.05868
5.72032
-1.16512
4.49604
-1.16733
3.44998
-1.02056
2.33226
1.51517
-1.13063
-0.000344776
4.65849
-0.0195542
6.86699
-0.0321475
7.93834
-0.0549467
9.38414
-0.0758607
10.8334
-0.103756
12.5314
-0.139146
14.4005
-0.187185
16.4361
-0.252555
18.6282
-0.345815
20.9299
-0.465321
19.5158
-0.598507
15.2392
-0.743764
11.9755
-0.893131
9.43109
-1.03675
7.42777
-1.17325
5.85682
-1.27692
4.59971
-1.2886
3.46167
-1.30898
2.35264
1.7385
-1.53231
-0.0024758
4.66097
-0.0129075
6.87742
-0.0284359
7.95387
-0.0489254
9.40463
-0.0707699
10.8552
-0.0969311
12.5576
-0.132553
14.4362
-0.18043
16.484
-0.246668
18.6944
-0.34377
21.027
-0.47182
19.6439
-0.618982
15.3864
-0.787293
12.1438
-0.977106
9.6209
-1.18439
7.63505
-1.37235
6.04478
-1.50149
4.72885
-1.55958
3.51975
-1.65129
2.44435
1.91473
-1.82752
0.00140935
4.65956
-0.0168877
6.89572
-0.0219267
7.95891
-0.0406122
9.42332
-0.0615455
10.8762
-0.0910453
12.5871
-0.126106
14.4712
-0.173383
16.5313
-0.240016
18.7611
-0.339951
21.1269
-0.474345
19.7783
-0.631882
15.5439
-0.815927
12.3278
-1.01814
9.82311
-1.21738
7.83429
-1.40335
6.23076
-1.54385
4.86936
-1.61549
3.59139
-1.77695
2.60581
2.10813
-1.97035
0.0075032
4.65206
-0.0152497
6.91847
-0.0239713
7.96763
-0.0436371
9.44298
-0.0607202
10.8933
-0.0896278
12.616
-0.123359
14.505
-0.170629
16.5785
-0.237652
18.8281
-0.340048
21.2293
-0.479966
19.9182
-0.645078
15.709
-0.841973
12.5247
-1.06259
10.0437
-1.30552
8.07722
-1.56689
6.49213
-1.77366
5.07613
-1.91425
3.73197
-2.11838
2.80994
2.291
-2.30125
0.00372039
4.64833
-0.0137375
6.93593
-0.0257906
7.97968
-0.0472686
9.46446
-0.0635453
10.9095
-0.089825
12.6422
-0.124427
14.5396
-0.172046
16.6262
-0.239826
18.8959
-0.344224
21.3337
-0.487693
20.0617
-0.653813
15.8751
-0.851354
12.7223
-1.083
10.2754
-1.32305
8.31726
-1.52635
6.69543
-1.72785
5.27763
-1.94481
3.94893
-2.19122
3.05634
2.52134
-2.42156
-0.00437376
4.65271
-0.0146162
6.94617
-0.0224196
7.98749
-0.040485
9.48253
-0.0612568
10.9303
-0.0899346
12.6709
-0.125506
14.5751
-0.172931
16.6736
-0.241146
18.9641
-0.346082
21.4386
-0.491474
20.2071
-0.658382
16.042
-0.857632
12.9215
-1.09541
10.5132
-1.36028
8.58213
-1.63644
6.97158
-1.91436
5.55555
-2.27797
4.31254
-2.70442
3.48279
2.84299
-3.02607
0.00238081
4.65033
-0.0104538
6.95901
-0.0225494
7.99958
-0.0416651
9.50164
-0.0625765
10.9512
-0.0917314
12.7001
-0.126317
14.6097
-0.173906
16.7212
-0.242005
19.0322
-0.346173
21.5428
-0.491565
20.3524
-0.659694
16.2102
-0.846251
13.1081
-1.07889
10.7458
-1.36924
8.87248
-1.65258
7.25493
-1.85126
5.75422
-2.27909
4.74038
-2.88354
4.08723
3.08789
-3.12843
0.00555735
4.64477
-0.0112214
6.97578
-0.0271811
8.01554
-0.048242
9.5227
-0.0668842
10.9699
-0.0929052
12.7261
-0.126917
14.6437
-0.174165
16.7684
-0.241321
19.0993
-0.343335
21.6448
-0.483918
20.493
-0.649969
16.3762
-0.832614
13.2907
-1.03376
10.9469
-1.28154
9.12026
-1.6172
7.59059
-2.0734
6.21042
-2.56171
5.22869
-3.25726
4.78278
3.97001
-4.13938
-0.00256078
4.64733
-0.014011
6.98723
-0.0248419
8.02637
-0.0444088
9.54227
-0.0663946
10.9919
-0.09292
12.7526
-0.126788
14.6776
-0.172087
16.8137
-0.235987
19.1632
-0.331045
21.7399
-0.457131
20.6191
-0.605876
16.525
-0.766764
13.4516
-0.94439
11.1246
-1.13787
9.31374
-1.42217
7.87489
-1.86222
6.65047
-2.16424
5.53071
-1.55968
4.17822
2.41033
0.000165102
4.64717
-0.0119304
6.99933
-0.0243378
8.03878
-0.0428098
9.56074
-0.0659919
11.015
-0.0940111
12.7806
-0.128422
14.712
-0.17511
16.8604
-0.240509
19.2286
-0.336792
21.8362
-0.457677
20.74
-0.596698
16.664
-0.74732
13.6022
-0.892374
11.2696
-1.02837
9.44974
-1.09289
7.93941
-1.07751
6.63509
-1.00958
5.46278
-0.791956
3.9606
1.61838
0.00384116
4.64333
-0.0107512
7.01392
-0.0271873
8.05522
-0.0457127
9.57927
-0.0671648
11.0365
-0.0932609
12.8067
-0.127697
14.7464
-0.175136
16.9079
-0.240026
19.2935
-0.335206
21.9313
-0.448489
20.8533
-0.564924
16.7804
-0.684585
13.7219
-0.779207
11.3642
-0.822119
9.49265
-0.767454
7.88475
-0.725913
6.59354
-0.766756
5.50362
-0.721411
3.91525
0.896965
-0.000430924
4.64376
-0.0117673
7.02526
-0.026222
8.06967
-0.0442174
9.59726
-0.0668454
11.0591
-0.0909421
12.8308
-0.124982
14.7805
-0.171817
16.9547
-0.234187
19.3559
-0.323984
22.0211
-0.426897
20.9562
-0.510631
16.8642
-0.558423
13.7697
-0.600922
11.4067
-0.60098
9.49271
-0.597589
7.88136
-0.554079
6.55003
-0.492371
5.44192
-0.225118
3.648
0.671847
0.00120448
4.64255
-0.00838488
7.03485
-0.0234483
8.08474
-0.0408436
9.61466
-0.0630212
11.0813
-0.0849805
12.8528
-0.119041
14.8145
-0.164515
17.0002
-0.222785
19.4142
-0.302183
22.1005
-0.387353
21.0414
-0.435117
16.9119
-0.447674
13.7822
-0.415063
11.3741
-0.33005
9.4077
-0.32718
7.87849
-0.274996
6.49785
-0.0814289
5.24835
0.127523
3.43905
0.79937
0.00197761
4.64057
-0.00715928
7.04398
-0.0220357
8.09961
-0.0376739
9.6303
-0.0573277
11.1009
-0.0773549
12.8728
-0.11054
14.8477
-0.152995
17.0426
-0.204872
19.466
-0.270327
22.166
-0.329728
21.1008
-0.34638
16.9286
-0.330646
13.7665
-0.246981
11.2905
-0.127595
9.28831
0.0109162
7.73997
0.120805
6.38796
0.253389
5.11577
0.296908
3.39553
1.09628
0.0054066
4.63517
-0.00247542
7.05187
-0.0154189
8.11256
-0.0295585
9.64444
-0.0492843
11.1207
-0.0680494
12.8916
-0.0998432
14.8795
-0.134835
17.0776
-0.178767
19.51
-0.231448
22.2187
-0.267177
21.1365
-0.264183
16.9256
-0.215067
13.7174
-0.136108
11.2115
-0.0197594
9.17196
0.143548
7.57667
0.370286
6.16122
0.509294
4.97676
0.436797
3.46802
1.53307
0.00618714
4.62898
-0.000633861
7.05869
-0.0117652
8.12369
-0.0216744
9.65435
-0.0338737
11.1329
-0.0537486
12.9115
-0.0834926
14.9093
-0.108062
17.1022
-0.145618
19.5475
-0.188234
22.2613
-0.208486
21.1568
-0.195228
16.9123
-0.136952
13.6591
-0.0472637
11.1218
0.0954268
9.02927
0.244804
7.42729
0.381514
6.02452
0.478738
4.87953
0.365541
3.58122
1.89862
0.00995436
4.61903
0.00496876
7.06367
-0.00280298
8.13146
-0.00779782
9.65934
-0.0168427
11.1419
-0.0352052
12.9298
-0.0581607
14.9322
-0.0742425
17.1183
-0.107356
19.5806
-0.140715
22.2946
-0.15254
21.1686
-0.131661
16.8914
-0.0738554
13.6013
0.0245142
11.0235
0.138511
8.91528
0.260009
7.30579
0.328985
5.95554
0.371405
4.83711
0.266336
3.68629
2.16495
0.0126085
4.60642
0.0136755
7.06261
0.0103331
8.1348
0.00864328
9.66103
0.00606391
11.1445
-0.0126799
12.9486
-0.0170606
14.9366
-0.0364711
17.1377
-0.063597
19.6078
-0.0870768
22.3181
-0.0918176
21.1733
-0.0638385
16.8635
-0.0128906
13.5503
0.0646693
10.9459
0.111456
8.86849
0.20212
7.21513
0.258305
5.89935
0.295299
4.80012
0.208724
3.77287
2.37368
0.0210031
4.58541
0.0266272
7.05698
0.0269288
8.1345
0.0270028
9.66096
0.0354621
11.136
0.0175727
12.9665
0.0256736
14.9285
0.00315563
17.1602
-0.0117599
19.6227
-0.0279235
22.3343
-0.0265769
21.172
-0.0004909
16.8374
0.0471486
13.5027
0.0901343
10.9029
0.0884125
8.87021
0.143379
7.16016
0.181367
5.86137
0.205897
4.77559
0.142544
3.83622
2.51622
0.0230657
4.56235
0.0365929
7.04345
0.0481005
8.12299
0.0516295
9.65743
0.0706527
11.117
0.0762619
12.9609
0.0773451
14.9274
0.0746248
17.1629
0.0608708
19.6364
0.0455965
22.3496
0.0450288
21.1725
0.0634701
16.8189
0.0906209
13.4756
0.107978
10.8855
0.0983654
8.87982
0.112909
7.14562
0.122573
5.8517
0.12243
4.77573
0.0759018
3.88275
2.59212
0.033789
4.52856
0.0555451
7.0217
0.0763829
8.10215
0.0956271
9.63818
0.116122
11.0965
0.133224
12.9438
0.148058
14.9126
0.153713
17.1573
0.150834
19.6393
0.140569
22.3598
0.130204
21.1829
0.124705
16.8244
0.124851
13.4754
0.121495
10.8889
0.113382
8.88794
0.0990196
7.15998
0.0814041
5.86932
0.0698441
4.78729
0.0297156
3.92288
2.62184
0.0393058
4.48925
0.0721782
6.98883
0.108299
8.06603
0.144964
9.60152
0.179225
11.0623
0.209997
12.913
0.240357
14.8822
0.257497
17.1401
0.263284
19.6335
0.251995
22.3711
0.227434
21.2075
0.197853
16.854
0.16786
13.5054
0.143111
10.9137
0.130488
8.90056
0.0972022
7.19326
0.0685511
5.89797
0.0380475
4.81779
0.0126509
3.94827
2.63449
0.0564303
4.43282
0.10118
6.94408
0.149999
8.01721
0.200258
9.55126
0.253072
11.0094
0.302662
12.8634
0.350294
14.8346
0.38548
17.1049
0.40308
19.6159
0.3921
22.3821
0.352699
21.2469
0.29964
16.9071
0.242117
13.5629
0.193798
10.962
0.16487
8.92949
0.112847
7.24529
0.0738143
5.937
0.030958
4.86065
0.00162458
3.97761
2.63611
0.0699923
4.36283
0.133987
6.88008
0.208129
7.94307
0.285722
9.47367
0.360447
10.9347
0.440529
12.7833
0.509568
14.7656
0.563495
17.051
0.591325
19.5881
0.577042
22.3964
0.517046
21.3069
0.435819
16.9883
0.348074
13.6507
0.269572
11.0405
0.212991
8.98607
0.145271
7.31301
0.0946598
5.98761
0.0459889
4.90932
0.013156
4.01044
2.64927
0.10055
4.26228
0.204812
6.77582
0.29905
7.84884
0.402433
9.37028
0.501229
10.8359
0.615343
12.6692
0.712736
14.6682
0.790636
16.9731
0.832673
19.5461
0.818589
22.4105
0.741178
21.3843
0.633378
17.0961
0.516372
13.7677
0.406562
11.1503
0.316119
9.07651
0.227133
7.40199
0.153164
6.06158
0.0886632
4.97382
0.0364389
4.06266
2.68571
0.148057
4.11422
0.286144
6.63773
0.425716
7.70926
0.584375
9.21163
0.718679
10.7016
0.8682
12.5197
0.997992
14.5384
1.10486
16.8662
1.16605
19.4849
1.15443
22.4221
1.05771
21.481
0.916353
17.2375
0.757939
13.9261
0.600922
11.3073
0.459194
9.21824
0.328907
7.53228
0.2193
6.17119
0.128192
5.06493
0.055857
4.135
2.74156
0.227253
3.88697
0.448169
6.41682
0.639044
7.51839
0.839494
9.01117
1.01824
10.5229
1.21671
12.3212
1.38898
14.3661
1.52866
16.7265
1.61266
19.4009
1.60934
22.4254
1.50064
21.5897
1.3315
17.4066
1.13524
14.1223
0.932788
11.5097
0.738458
9.41257
0.555541
7.7152
0.389488
6.33724
0.243592
5.21083
0.11517
4.26342
2.85673
0.382573
3.5044
0.719168
6.08022
0.952371
7.28518
1.21977
8.74377
1.4605
10.2821
1.70419
12.0775
1.91783
14.1524
2.09865
16.5457
2.22047
19.279
2.24283
22.403
2.13691
21.6956
1.94958
17.5939
1.71777
14.3542
1.46348
11.764
1.20126
9.67479
0.939122
7.97733
0.685728
6.59064
0.447664
5.44889
0.224407
4.48668
3.08114
0.276115
3.22828
0.589578
5.76676
0.866402
7.00836
1.18782
8.42236
1.44716
10.0228
1.66768
11.857
1.83753
13.9826
1.94866
16.4346
1.9783
19.2494
1.90053
22.4808
1.72642
21.8697
1.51811
17.8022
1.30139
14.5709
1.0882
11.9772
0.883998
9.879
0.689648
8.17168
0.504202
6.77608
0.331819
5.62127
0.162689
4.65581
3.24383
0.0432907
3.18499
0.196291
5.61376
0.41582
6.78883
0.656091
8.18209
0.887318
9.79157
1.11585
11.6285
1.31982
13.7786
1.4708
16.2836
1.54297
19.1772
1.5113
22.5125
1.37926
22.0017
1.20286
17.9786
1.01074
14.763
0.81707
12.1709
0.630182
10.0659
0.456026
8.34584
0.299844
6.93226
0.161762
5.75936
0.0612354
4.75634
3.30506
0.0186839
3.16631
0.14278
5.48966
0.252573
6.67904
0.398927
8.03573
0.575957
9.61454
0.765227
11.4392
0.945481
13.5984
1.09411
16.135
1.1844
19.0869
1.18565
22.5112
1.08933
22.0981
0.943581
18.1244
0.779992
14.9266
0.616261
12.3346
0.463574
10.2186
0.329058
8.48035
0.215357
7.04596
0.118538
5.85618
0.0403587
4.83451
3.34542
-0.0316775
3.19799
0.0645624
5.39342
0.175623
6.56798
0.296441
7.91492
0.432128
9.47885
0.5691
11.3022
0.702812
13.4647
0.822175
16.0156
0.904463
19.0047
0.91966
22.496
0.85157
22.1662
0.737975
18.238
0.609088
15.0555
0.482152
12.4616
0.366117
10.3346
0.263922
8.58255
0.174717
7.13517
0.0943095
5.93658
0.0264165
4.90241
3.37184
-0.0646161
3.2626
0.00666043
5.32214
0.102911
6.47173
0.206975
7.81085
0.324332
9.3615
0.437645
11.1889
0.542533
13.3598
0.634718
15.9234
0.700198
18.9392
0.71619
22.4801
0.667314
22.215
0.581456
18.3238
0.482801
15.1541
0.384531
12.5598
0.292384
10.4268
0.208211
8.66672
0.132821
7.21056
0.0655697
6.00383
0.0114427
4.95653
3.38328
-0.0498586
3.31246
-0.006623
5.27891
0.0544858
6.41062
0.132357
7.73298
0.227079
9.26677
0.322312
11.0937
0.412784
13.2693
0.491417
15.8448
0.546489
18.8841
0.561761
22.4648
0.525642
22.2512
0.459255
18.3902
0.381146
15.2323
0.301649
12.6393
0.226088
10.5023
0.157309
8.7355
0.0970443
7.27082
0.0454741
6.0554
0.00474222
4.99727
3.38802
-0.032233
3.34469
-0.0017594
5.24844
0.0366213
6.37224
0.092735
7.67687
0.160542
9.19897
0.233013
11.0212
0.307152
13.1952
0.374824
15.7771
0.424014
18.8349
0.440375
22.4484
0.413791
22.2777
0.36121
18.4428
0.298212
15.2952
0.234044
12.7035
0.173835
10.5625
0.120079
8.78926
0.0736732
7.31723
0.0345549
6.09452
0.00313442
5.02869
3.39116
-0.0202851
3.36498
0.00409655
5.22405
0.0317833
6.34455
0.0744797
7.63417
0.122994
9.15045
0.176056
10.9682
0.232552
13.1387
0.286642
15.7231
0.328323
18.7932
0.344496
22.4323
0.325118
22.2971
0.283738
18.4842
0.233779
15.3452
0.183208
12.7541
0.136144
10.6096
0.0942516
8.83115
0.0578622
7.35362
0.0271442
6.12524
0.00218961
5.05364
3.39335
-0.0123375
3.37732
0.00700572
5.20471
0.0286303
6.32293
0.0618303
7.60097
0.0984807
9.1138
0.138767
10.9279
0.181702
13.0957
0.223316
15.6814
0.256414
18.7601
0.270281
22.4184
0.255838
22.3116
0.223579