/*--------------------------------*- C++ -*----------------------------------*\
| =========                 |                                                 |
| \\      /  F ield         | OpenFOAM: The Open Source CFD Toolbox           |
|  \\    /   O peration     | Version:  2412                                  |
|   \\  /    A nd           | Website:  www.openfoam.com                      |
|    \\/     M anipulation  |                                                 |
\*---------------------------------------------------------------------------*/
FoamFile
{
    version     2.0;
    format      ascii;
    arch        "LSB;label=32;scalar=64";
    class       volVectorField;
    location    "1.25";
    object      U;
}
// * * * * * * * * * * * * * * * * * * * * * * * * * * * * * * * * * * * * * //

dimensions      [0 1 -1 0 0 0 0];

internalField   nonuniform List<vector> 
2200
(
(0.348949 0.0216521 0)
(1.13997 0.00773564 0)
(2.09136 -0.00214953 0)
(3.13922 -0.00171273 0)
(4.31012 0.0035955 0)
(5.57099 0.0107283 0)
(6.87029 0.0176922 0)
(8.12723 0.0229921 0)
(9.20646 0.013599 0)
(9.8976 0.00704502 0)
(9.89719 -0.00557489 0)
(9.20637 -0.012926 0)
(8.12671 -0.0221152 0)
(6.86998 -0.0170597 0)
(5.57086 -0.0102414 0)
(4.31005 -0.00314965 0)
(3.13904 0.00208791 0)
(2.09115 0.00241453 0)
(1.13983 -0.00762972 0)
(0.348844 -0.0216428 0)
(0.478049 0.0493286 0)
(1.15081 0.0990562 0)
(2.07069 0.0828243 0)
(3.11797 0.0546017 0)
(4.29538 0.0446208 0)
(5.54858 0.0575315 0)
(6.83464 0.0655279 0)
(8.09014 0.058494 0)
(9.18177 0.0576065 0)
(9.86514 0.0347636 0)
(9.86477 -0.0305728 0)
(9.18111 -0.0541034 0)
(8.0903 -0.055468 0)
(6.83456 -0.0632263 0)
(5.54827 -0.0557433 0)
(4.29476 -0.0434955 0)
(3.11724 -0.0539226 0)
(2.07001 -0.0824404 0)
(1.15026 -0.0988794 0)
(0.477669 -0.0492725 0)
(0.828138 0.0684581 0)
(1.29888 0.19106 0)
(2.07532 0.270479 0)
(3.12426 0.257548 0)
(4.3371 0.1906 0)
(5.58548 0.156904 0)
(6.84779 0.150924 0)
(8.05727 0.135249 0)
(9.12151 0.107385 0)
(9.79226 0.0404265 0)
(9.79296 -0.0332666 0)
(9.122 -0.101582 0)
(8.05652 -0.130857 0)
(6.84626 -0.147511 0)
(5.58368 -0.154282 0)
(4.33532 -0.1889 0)
(3.12252 -0.256583 0)
(2.07376 -0.270008 0)
(1.29768 -0.191018 0)
(0.827006 -0.0684 0)
(1.35722 0.0703071 0)
(1.76341 0.260404 0)
(2.22179 0.423995 0)
(3.15833 0.515202 0)
(4.34752 0.535748 0)
(5.61042 0.462602 0)
(6.89952 0.349618 0)
(8.06186 0.263018 0)
(9.05669 0.172998 0)
(9.67269 0.0611597 0)
(9.67312 -0.0530001 0)
(9.05236 -0.16502 0)
(8.05823 -0.256418 0)
(6.8959 -0.344165 0)
(5.60654 -0.45912 0)
(4.34327 -0.533456 0)
(3.15488 -0.513775 0)
(2.21877 -0.423042 0)
(1.76194 -0.259397 0)
(1.35667 -0.0700445 0)
(2.00349 0.0818811 0)
(2.46022 0.287806 0)
(2.68077 0.530258 0)
(3.36274 0.715194 0)
(4.33047 0.807268 0)
(5.50933 0.793623 0)
(6.77091 0.696637 0)
(8.01248 0.527079 0)
(9.03201 0.34417 0)
(9.61383 0.140172 0)
(9.61288 -0.129318 0)
(9.02986 -0.334155 0)
(8.00751 -0.51677 0)
(6.76334 -0.688994 0)
(5.50085 -0.788384 0)
(4.3241 -0.803641 0)
(3.35697 -0.712801 0)
(2.67795 -0.528981 0)
(2.45573 -0.287907 0)
(1.99755 -0.0819664 0)
(2.69726 0.0915927 0)
(3.20321 0.279042 0)
(3.33432 0.555481 0)
(3.75456 0.795366 0)
(4.43144 0.96092 0)
(5.4413 1.00077 0)
(6.53809 0.941162 0)
(7.81429 0.746447 0)
(8.88527 0.486761 0)
(9.45878 0.20217 0)
(9.45739 -0.185369 0)
(8.87902 -0.47127 0)
(7.80439 -0.737513 0)
(6.52881 -0.93332 0)
(5.43105 -0.994548 0)
(4.42285 -0.956444 0)
(3.74679 -0.792155 0)
(3.32514 -0.55339 0)
(3.19929 -0.27711 0)
(2.69712 -0.0907269 0)
(3.3636 0.0857211 0)
(3.94768 0.250897 0)
(4.03084 0.515531 0)
(4.28241 0.765184 0)
(4.7076 0.9923 0)
(5.46873 1.1016 0)
(6.37389 1.08844 0)
(7.44207 0.937492 0)
(8.4746 0.580934 0)
(9.10427 0.227689 0)
(9.10285 -0.209582 0)
(8.46615 -0.565357 0)
(7.43078 -0.92072 0)
(6.35915 -1.0768 0)
(5.45538 -1.092 0)
(4.69453 -0.985071 0)
(4.27129 -0.759546 0)
(4.02421 -0.510752 0)
(3.93711 -0.248496 0)
(3.34702 -0.0852382 0)
(3.94404 0.0691963 0)
(4.63461 0.210219 0)
(4.69905 0.441484 0)
(4.85072 0.670171 0)
(5.11982 0.907861 0)
(5.57444 1.09987 0)
(6.34557 1.13015 0)
(7.14728 1.05317 0)
(7.98635 0.704926 0)
(8.55998 0.268493 0)
(8.55588 -0.244903 0)
(7.97404 -0.685325 0)
(7.13117 -1.0373 0)
(6.32679 -1.11557 0)
(5.55707 -1.08829 0)
(5.10352 -0.898552 0)
(4.83656 -0.663893 0)
(4.68378 -0.438646 0)
(4.61936 -0.209404 0)
(3.93322 -0.0682601 0)
(4.40206 0.0493043 0)
(5.2169 0.163329 0)
(5.27722 0.350006 0)
(5.37294 0.541128 0)
(5.54855 0.749403 0)
(5.84613 0.94715 0)
(6.36585 1.07721 0)
(7.00091 1.00276 0)
(7.67688 0.744437 0)
(8.17352 0.290952 0)
(8.16852 -0.261464 0)
(7.65869 -0.718382 0)
(6.98279 -0.98188 0)
(6.34573 -1.05942 0)
(5.82427 -0.932734 0)
(5.52584 -0.737355 0)
(5.34972 -0.531523 0)
(5.25398 -0.342861 0)
(5.19726 -0.158717 0)
(4.37786 -0.0470872 0)
(4.73123 0.0316107 0)
(5.67266 0.118346 0)
(5.7341 0.259346 0)
(5.79673 0.406726 0)
(5.91474 0.571433 0)
(6.11786 0.731711 0)
(6.45417 0.858622 0)
(6.9132 0.83937 0)
(7.4278 0.659392 0)
(7.84323 0.265196 0)
(7.83638 -0.232928 0)
(7.412 -0.626348 0)
(6.8847 -0.804934 0)
(6.42708 -0.832372 0)
(6.08909 -0.710079 0)
(5.88619 -0.555238 0)
(5.76784 -0.395491 0)
(5.70659 -0.250451 0)
(5.64237 -0.113474 0)
(4.69276 -0.0297532 0)
(4.95122 0.0188125 0)
(6.00765 0.0816888 0)
(6.07107 0.183456 0)
(6.11235 0.291205 0)
(6.19088 0.412238 0)
(6.32555 0.533134 0)
(6.5432 0.628885 0)
(6.84079 0.63518 0)
(7.20937 0.522083 0)
(7.51454 0.223708 0)
(7.50549 -0.178575 0)
(7.18752 -0.482122 0)
(6.8114 -0.600898 0)
(6.5061 -0.597359 0)
(6.28675 -0.507229 0)
(6.15194 -0.392894 0)
(6.07372 -0.277216 0)
(6.03087 -0.175123 0)
(5.96183 -0.0780144 0)
(4.90669 -0.0189802 0)
(5.09315 0.0110457 0)
(6.24415 0.0551658 0)
(6.30964 0.126723 0)
(6.33658 0.203477 0)
(6.38769 0.289109 0)
(6.47402 0.375428 0)
(6.61255 0.449654 0)
(6.80172 0.462369 0)
(7.05176 0.39623 0)
(7.24803 0.184123 0)
(7.24177 -0.123725 0)
(7.02072 -0.341956 0)
(6.76859 -0.421086 0)
(6.56816 -0.409913 0)
(6.42562 -0.346354 0)
(6.33502 -0.266952 0)
(6.28083 -0.186688 0)
(6.25162 -0.116634 0)
(6.18833 -0.0507985 0)
(5.03804 -0.00743167 0)
(5.18592 0.00690283 0)
(6.40861 0.0380616 0)
(6.47549 0.087636 0)
(6.49313 0.142112 0)
(6.5264 0.203322 0)
(6.58158 0.262914 0)
(6.66876 0.317242 0)
(6.79755 0.340422 0)
(6.95037 0.293246 0)
(7.07924 0.141651 0)
(7.06286 -0.0714378 0)
(6.91447 -0.223784 0)
(6.74647 -0.277272 0)
(6.61337 -0.267055 0)
(6.51971 -0.225837 0)
(6.45902 -0.173535 0)
(6.42197 -0.120244 0)
(6.40306 -0.071529 0)
(6.34369 -0.0271901 0)
(5.10518 7.28302e-05 0)
(5.25006 0.00460082 0)
(6.52473 0.0269701 0)
(6.59266 0.0616614 0)
(6.60446 0.0998727 0)
(6.62624 0.144563 0)
(6.66119 0.187935 0)
(6.71602 0.224323 0)
(6.79914 0.251625 0)
(6.87946 0.212025 0)
(6.9699 0.108578 0)
(6.9461 -0.024002 0)
(6.84628 -0.131114 0)
(6.7321 -0.166645 0)
(6.64231 -0.161298 0)
(6.57944 -0.135853 0)
(6.54073 -0.104071 0)
(6.51778 -0.0699307 0)
(6.50589 -0.0396629 0)
(6.43416 -0.0108174 0)
(5.13048 -0.000418464 0)
(5.29618 0.00345406 0)
(6.60803 0.0200088 0)
(6.67681 0.0447986 0)
(6.68484 0.0721863 0)
(6.69819 0.103463 0)
(6.72112 0.137754 0)
(6.75344 0.162885 0)
(6.79549 0.182328 0)
(6.83368 0.161434 0)
(6.89074 0.100986 0)
(6.87049 0.0141968 0)
(6.79783 -0.0600425 0)
(6.71847 -0.0846526 0)
(6.65786 -0.0856946 0)
(6.61501 -0.0727595 0)
(6.58723 -0.0542225 0)
(6.57296 -0.0365636 0)
(6.56375 -0.0208611 0)
(6.47546 -0.00782381 0)
(5.14437 -0.00416975 0)
(5.33332 0.00319335 0)
(6.66934 0.0155665 0)
(6.73854 0.0346905 0)
(6.74354 0.0554777 0)
(6.75038 0.0781616 0)
(6.76371 0.104627 0)
(6.7823 0.126401 0)
(6.79623 0.137244 0)
(6.81791 0.141181 0)
(6.83797 0.112896 0)
(6.82074 0.0462274 0)
(6.76136 -0.00395786 0)
(6.70425 -0.0251664 0)
(6.6617 -0.0328315 0)
(6.63151 -0.0312851 0)
(6.60948 -0.0241819 0)
(6.59533 -0.018237 0)
(6.58269 -0.0115982 0)
(6.49471 -0.0108295 0)
(5.17327 -0.0030032 0)
(5.36513 0.00407435 0)
(6.71734 0.0160868 0)
(6.78635 0.0310901 0)
(6.78905 0.0498179 0)
(6.79121 0.0687352 0)
(6.79597 0.0903146 0)
(6.80442 0.11123 0)
(6.80532 0.118343 0)
(6.82034 0.138723 0)
(6.80502 0.132483 0)
(6.78175 0.0764324 0)
(6.72851 0.0423097 0)
(6.68378 0.0202521 0)
(6.6497 0.0069904 0)
(6.62577 -9.25778e-05 0)
(6.60937 -0.00378499 0)
(6.59783 -0.00565328 0)
(6.58296 -0.00635635 0)
(6.5113 -0.00649369 0)
(5.1885 0.00107736 0)
(5.40726 0.00496684 0)
(6.76275 0.0152342 0)
(6.83183 0.0315518 0)
(6.83251 0.0480813 0)
(6.83136 0.0679078 0)
(6.82966 0.0885562 0)
(6.82815 0.11141 0)
(6.81966 0.117791 0)
(6.83872 0.1437 0)
(6.78783 0.155244 0)
(6.75273 0.108408 0)
(6.70281 0.0841404 0)
(6.66329 0.0599129 0)
(6.63241 0.0425066 0)
(6.61068 0.0292037 0)
(6.59651 0.018757 0)
(6.58754 0.0108448 0)
(6.57746 0.00300728 0)
(6.51557 0.00273989 0)
(5.18696 0.00219243 0)
(5.44605 0.00610837 0)
(6.81086 0.0217877 0)
(6.87835 0.0351928 0)
(6.87752 0.0557775 0)
(6.87351 0.0761347 0)
(6.86631 0.0979742 0)
(6.85536 0.12474 0)
(6.83977 0.135056 0)
(6.86386 0.164826 0)
(6.77744 0.177846 0)
(6.72678 0.144523 0)
(6.67634 0.123898 0)
(6.63642 0.0973159 0)
(6.60599 0.0761419 0)
(6.5849 0.0576687 0)
(6.5712 0.0416108 0)
(6.56261 0.0294396 0)
(6.55913 0.0167897 0)
(6.50652 0.0113153 0)
(5.17218 0.00439078 0)
(5.51344 0.00887481 0)
(6.86613 0.0197463 0)
(6.93458 0.0431791 0)
(6.93169 0.0628595 0)
(6.92365 0.0891531 0)
(6.91056 0.116372 0)
(6.89026 0.148571 0)
(6.87205 0.174624 0)
(6.88089 0.198744 0)
(6.77438 0.205341 0)
(6.70936 0.189171 0)
(6.65433 0.166563 0)
(6.61027 0.136962 0)
(6.57799 0.110346 0)
(6.55567 0.0859761 0)
(6.54089 0.0642824 0)
(6.53112 0.0469946 0)
(6.52989 0.0337682 0)
(6.47901 0.0193708 0)
(5.12387 0.0098651 0)
(5.57181 0.0088905 0)
(6.93693 0.0366557 0)
(6.99913 0.0530842 0)
(6.99404 0.0835722 0)
(6.98304 0.114542 0)
(6.96441 0.148462 0)
(6.93535 0.186878 0)
(6.90557 0.224533 0)
(6.88948 0.246169 0)
(6.77267 0.249538 0)
(6.69154 0.24318 0)
(6.62429 0.215524 0)
(6.57218 0.181612 0)
(6.5352 0.148563 0)
(6.51002 0.118086 0)
(6.49403 0.091422 0)
(6.48481 0.0689073 0)
(6.4829 0.0490351 0)
(6.41712 0.0343475 0)
(5.04664 0.00952188 0)
(5.68433 0.0162097 0)
(7.0191 0.0306551 0)
(7.08772 0.070108 0)
(7.07859 0.105245 0)
(7.06137 0.146313 0)
(7.03366 0.192289 0)
(6.99317 0.240495 0)
(6.94536 0.287567 0)
(6.89812 0.311339 0)
(6.77223 0.315874 0)
(6.67368 0.309986 0)
(6.59162 0.275306 0)
(6.53033 0.234156 0)
(6.48739 0.191763 0)
(6.45838 0.151614 0)
(6.43992 0.114748 0)
(6.42922 0.0836377 0)
(6.4242 0.057143 0)
(6.34293 0.0282176 0)
(4.95985 0.0135838 0)
(5.79151 0.0174936 0)
(7.15012 0.0651804 0)
(7.1989 0.0981638 0)
(7.18588 0.142669 0)
(7.1591 0.196158 0)
(7.11965 0.253688 0)
(7.06311 0.311533 0)
(6.99288 0.366918 0)
(6.91292 0.395764 0)
(6.77374 0.402454 0)
(6.6532 0.390769 0)
(6.55244 0.347433 0)
(6.47856 0.296646 0)
(6.42608 0.243993 0)
(6.38982 0.194494 0)
(6.36628 0.15 0)
(6.35181 0.109616 0)
(6.34226 0.0768475 0)
(6.25484 0.0493775 0)
(4.88221 0.0112108 0)
(6.00332 0.029605 0)
(7.28453 0.0666592 0)
(7.35062 0.127122 0)
(7.32092 0.199503 0)
(7.28095 0.271591 0)
(7.22111 0.344214 0)
(7.14047 0.415631 0)
(7.04149 0.476196 0)
(6.92586 0.50839 0)
(6.76611 0.513412 0)
(6.61993 0.490347 0)
(6.49921 0.435469 0)
(6.41138 0.37291 0)
(6.34837 0.30848 0)
(6.30398 0.246272 0)
(6.27401 0.188534 0)
(6.25525 0.137116 0)
(6.23846 0.0872304 0)
(6.12777 0.0435949 0)
(4.74142 0.0199033 0)
(6.20873 0.0497577 0)
(7.52422 0.133618 0)
(7.54468 0.216946 0)
(7.50039 0.298347 0)
(7.4309 0.385403 0)
(7.33886 0.477633 0)
(7.22722 0.553827 0)
(7.09433 0.614731 0)
(6.94213 0.645364 0)
(6.75742 0.643001 0)
(6.58472 0.605491 0)
(6.44356 0.537644 0)
(6.33996 0.462159 0)
(6.26369 0.385703 0)
(6.20774 0.312856 0)
(6.16677 0.244267 0)
(6.13733 0.182202 0)
(6.11461 0.131111 0)
(6.0046 0.0786679 0)
(4.63295 0.0229363 0)
(6.82418 0.117874 0)
(7.78332 0.202862 0)
(7.79918 0.329966 0)
(7.705 0.455008 0)
(7.59237 0.575507 3.62898e-33)
(7.46301 0.665419 -2.29195e-33)
(7.31313 0.739249 0)
(7.14091 0.79468 0)
(6.9503 0.816296 0)
(6.73561 0.800148 0)
(6.53342 0.744331 0)
(6.36959 0.660582 0)
(6.24825 0.57156 0)
(6.15679 0.4837 0)
(6.08776 0.40053 0)
(6.03597 0.322931 0)
(5.99587 0.246068 0)
(5.95603 0.167826 0)
(5.80299 0.0975541 0)
(4.34195 0.0473201 0)
(7.24321 0.282551 -2.87561e-19)
(8.15805 0.376592 2.5519e-19)
(8.05915 0.591854 0)
(7.90835 0.738406 6.75857e-20)
(7.75316 0.833172 -5.44434e-20)
(7.58262 0.912265 2.43072e-33)
(7.38897 0.979697 0)
(7.17525 1.02319 2.1059e-19)
(6.94533 1.02957 -7.46244e-19)
(6.6963 0.995752 1.62701e-19)
(6.46202 0.920658 0)
(6.27283 0.821439 -5.19772e-19)
(6.12997 0.720258 -6.50259e-19)
(6.01901 0.622265 1.14424e-18)
(5.93107 0.529173 -9.19966e-19)
(5.86017 0.44379 0)
(5.80176 0.371955 -3.5593e-19)
(5.74016 0.298753 0)
(5.52867 0.199512 -1.96022e-18)
(4.08056 0.145125 2.16061e-18)
(7.53608 0.634744 -1.15092e-19)
(8.42108 0.831408 -1.98497e-18)
(8.27581 0.983042 5.30578e-19)
(8.09082 1.06527 5.92946e-19)
(7.89959 1.14086 -1.02335e-19)
(7.68589 1.2097 2.03685e-19)
(7.44883 1.26742 0)
(7.19658 1.29377 0)
(6.92889 1.28379 1.18463e-18)
(6.64323 1.23373 0)
(6.37328 1.14348 1.81657e-18)
(6.15274 1.03498 5.65891e-19)
(5.9815 0.929961 1.90482e-20)
(5.84374 0.833281 -1.29939e-18)
(5.72958 0.746796 0)
(5.63246 0.668788 0)
(5.54831 0.600789 -6.13869e-18)
(5.46974 0.567192 1.55801e-17)
(5.30225 0.493827 -9.19725e-18)
(3.93773 0.335133 -1.01488e-17)
(7.66181 0.979724 2.69417e-18)
(8.60504 1.41097 -9.09762e-19)
(8.46989 1.43702 -2.24866e-19)
(8.25241 1.44929 -1.09961e-18)
(8.01853 1.49281 5.66134e-19)
(7.75794 1.54776 -3.75781e-19)
(7.48332 1.58111 2.89266e-19)
(7.19723 1.58263 0)
(6.89463 1.55308 -2.47076e-18)
(6.57458 1.4852 2.67146e-18)
(6.27184 1.38047 -4.96348e-18)
(6.02323 1.26473 2.41095e-18)
(5.82866 1.15878 -1.76885e-18)
(5.67151 1.066 3.87957e-18)
(5.5419 0.987808 0)
(5.4335 0.922829 -1.51803e-18)
(5.34179 0.859268 0)
(5.25643 0.799389 8.85403e-18)
(5.11639 0.807431 -2.11374e-17)
(3.89159 0.494361 1.26044e-17)
(7.69543 1.25741 -1.32745e-17)
(8.68601 1.96849 6.22692e-18)
(8.5751 1.87611 8.94643e-19)
(8.34871 1.8673 0)
(8.08232 1.89193 4.94688e-19)
(7.79079 1.91277 -4.86795e-19)
(7.49004 1.90888 -3.46322e-19)
(7.17591 1.88211 0)
(6.84348 1.83085 1.74822e-18)
(6.49556 1.74323 -1.83915e-18)
(6.1678 1.62328 4.33327e-18)
(5.90005 1.49947 0)
(5.69243 1.39096 -3.70251e-18)
(5.52727 1.29862 2.05209e-18)
(5.39398 1.22168 5.53354e-18)
(5.28545 1.16163 -4.85819e-18)
(5.19496 1.11566 8.10304e-18)
(5.11669 1.01898 -1.80854e-17)
(4.9879 1.06645 1.15311e-17)
(3.85953 0.688689 -1.47654e-17)
(7.6755 1.57185 8.94507e-18)
(8.70764 2.45677 -6.83769e-18)
(8.64403 2.26185 2.68882e-18)
(8.37501 2.28466 -3.67106e-18)
(8.08969 2.29339 2.2863e-18)
(7.78604 2.28093 -2.82462e-19)
(7.47284 2.24034 1.17666e-19)
(7.13801 2.18649 -1.31646e-18)
(6.78341 2.11166 -1.77692e-18)
(6.4155 2.00236 -3.94552e-18)
(6.07002 1.86595 -9.32721e-18)
(5.78995 1.73211 -3.09719e-18)
(5.57536 1.61836 1.20783e-19)
(5.40703 1.52348 -7.25896e-18)
(5.27297 1.44449 -2.54901e-19)
(5.16541 1.38115 7.07979e-18)
(5.07389 1.35296 -2.18957e-18)
(5.00586 1.23734 -1.30457e-18)
(4.87678 1.29976 0)
(3.81377 0.873774 3.09128e-17)
(7.60955 1.90949 0)
(8.67188 2.90545 1.82641e-18)
(8.62076 2.64214 0)
(8.33479 2.69763 -4.72058e-19)
(8.04764 2.67668 -2.70585e-18)
(7.74986 2.63064 4.05122e-19)
(7.43205 2.56215 2.71045e-19)
(7.08279 2.48697 2.31649e-18)
(6.71432 2.38924 -1.0581e-18)
(6.33232 2.25831 1.77124e-18)
(5.97304 2.10453 5.01906e-18)
(5.68328 1.95863 6.84267e-18)
(5.46323 1.83737 -4.24207e-18)
(5.29215 1.73803 7.84484e-18)
(5.15698 1.65571 -6.29118e-18)
(5.0499 1.58596 0)
(4.95518 1.56884 -1.68025e-17)
(4.89642 1.44218 2.25803e-17)
(4.76482 1.51241 1.72528e-18)
(3.75372 1.03941 -3.15217e-17)
(7.53309 2.2349 -9.58945e-19)
(8.61686 3.30319 -5.50654e-18)
(8.58121 2.98637 -1.41596e-17)
(8.25582 3.07339 7.51874e-18)
(7.97966 3.02546 -1.38643e-18)
(7.69127 2.95196 6.65696e-19)
(7.36937 2.86974 2.05668e-19)
(7.01043 2.77807 -3.54499e-19)
(6.63417 2.65853 -3.86689e-18)
(6.24128 2.5066 2.02915e-20)
(5.87064 2.3349 -5.44031e-18)
(5.57297 2.1757 -7.25315e-18)
(5.34856 2.04546 4.76739e-18)
(5.17546 1.94018 -2.81435e-18)
(5.03985 1.85378 6.82258e-18)
(4.93416 1.77662 0)
(4.8361 1.76448 -1.03732e-17)
(4.78733 1.63001 1.53449e-17)
(4.65024 1.70229 2.9991e-17)
(3.68475 1.18927 -3.26697e-17)
(7.44552 2.51042 -2.58122e-17)
(8.51812 3.70452 1.243e-17)
(8.50978 3.33268 8.85353e-18)
(8.16088 3.44224 -7.87702e-18)
(7.90776 3.34227 4.47133e-19)
(7.62058 3.2524 1.74586e-18)
(7.28933 3.16003 -4.0002e-19)
(6.92315 3.05275 -9.55916e-19)
(6.54304 2.91318 -2.4063e-18)
(6.14234 2.74327 4.0047e-18)
(5.76357 2.55507 5.20024e-18)
(5.46004 2.38244 1.13926e-17)
(5.23252 2.2422 0)
(5.05838 2.12953 2.0769e-19)
(4.92311 2.03816 -1.89021e-17)
(4.81952 1.95439 4.33583e-18)
(4.71895 1.93997 2.21711e-17)
(4.67914 1.80495 -6.44543e-18)
(4.53628 1.86945 1.44435e-17)
(3.60715 1.32768 -8.30269e-19)
(7.36599 2.81512 1.11765e-18)
(8.4332 4.05923 1.14151e-17)
(8.42805 3.65166 6.4589e-18)
(8.06501 3.7807 -1.35492e-17)
(7.82946 3.64069 8.15069e-18)
(7.5415 3.53731 -2.16047e-18)
(7.19789 3.43622 3.52575e-19)
(6.83036 3.31272 2.34639e-18)
(6.4483 3.15582 4.32863e-18)
(6.0411 2.97002 -5.07935e-18)
(5.65536 2.76541 0)
(5.34642 2.57883 -4.46068e-18)
(5.11611 2.42771 5.11722e-18)
(4.94122 2.30651 6.85818e-18)
(4.80654 2.20908 -3.92458e-18)
(4.70481 2.12061 -9.9425e-18)
(4.60433 2.0979 -3.0113e-18)
(4.56989 1.96662 -3.60488e-20)
(4.42596 2.01959 0)
(3.52325 1.45086 0)
(7.2851 3.03627 -1.24951e-17)
(8.31475 4.39934 0)
(8.34405 3.95594 7.27204e-18)
(7.96293 4.10182 -3.46961e-18)
(7.75199 3.91523 -8.17704e-18)
(7.45448 3.80942 2.31942e-18)
(7.10012 3.7002 2.87755e-19)
(6.73577 3.55807 -1.35219e-18)
(6.35051 3.3847 3.00167e-18)
(5.93775 3.1838 -2.00735e-18)
(5.54632 2.96442 2.94291e-18)
(5.2325 2.76504 1.3888e-17)
(4.99941 2.60295 5.10538e-19)
(4.8237 2.47219 -6.97692e-18)
(4.68964 2.36704 1.34675e-17)
(4.58964 2.27345 1.82463e-19)
(4.49043 2.2413 3.22244e-18)
(4.46007 2.10998 -1.57914e-17)
(4.31535 2.15646 1.63026e-17)
(3.43856 1.55612 -1.66191e-17)
(7.21173 3.30267 -6.02766e-22)
(8.20332 4.71694 0)
(8.25738 4.23102 0)
(7.85796 4.40272 2.90541e-18)
(7.66913 4.17275 3.24557e-18)
(7.35567 4.06757 -1.60564e-18)
(6.99918 3.94669 3.64965e-19)
(6.64046 3.78657 0)
(6.25258 3.60077 -4.70744e-18)
(5.83625 3.388 7.44688e-18)
(5.43927 3.15576 8.80998e-18)
(5.11954 2.94348 -5.21486e-18)
(4.88238 2.76934 -6.50758e-18)
(4.70463 2.62776 1.53541e-17)
(4.57036 2.5137 -4.75623e-18)
(4.47109 2.41501 -5.78409e-18)
(4.37404 2.37281 -3.52342e-18)
(4.3467 2.23917 -1.70704e-17)
(4.20242 2.28221 2.23657e-18)
(3.35105 1.64686 1.76355e-17)
(7.13145 3.48374 -5.01474e-18)
(8.08582 4.99922 -6.70857e-18)
(8.1596 4.48579 9.07233e-19)
(7.74941 4.6788 1.52532e-19)
(7.58056 4.4112 8.2439e-19)
(7.25168 4.31136 -4.46995e-18)
(6.90073 4.17756 0)
(6.54618 4.00225 1.02611e-18)
(6.15494 3.80589 -8.07498e-19)
(5.73496 3.58105 1.20526e-17)
(5.3323 3.33618 -2.19518e-18)
(5.00636 3.11203 2.41102e-18)
(4.76428 2.92673 0)
(4.58379 2.77412 -8.37341e-18)
(4.4492 2.64929 1.03929e-17)
(4.35114 2.54222 0)
(4.25614 2.49123 -7.76907e-18)
(4.23637 2.351 2.26526e-17)
(4.08666 2.39002 2.76427e-18)
(3.26048 1.72372 -2.1761e-17)
(7.04813 3.70638 -1.03843e-17)
(7.96431 5.28452 1.25259e-17)
(8.06615 4.72091 0)
(7.63436 4.93722 7.06402e-18)
(7.48708 4.63177 0)
(7.1448 4.53898 3.97094e-18)
(6.8023 4.39104 0)
(6.44959 4.20231 0)
(6.05662 3.99633 -1.60828e-18)
(5.63578 3.76184 -1.16526e-17)
(5.22912 3.50844 -1.63825e-17)
(4.89662 3.27525 2.99259e-18)
(4.64791 3.07917 1.10698e-17)
(4.46202 2.91428 9.35798e-18)
(4.32427 2.77789 -3.32654e-17)
(4.22476 2.66322 -1.38319e-17)
(4.13003 2.59942 7.99959e-18)
(4.11025 2.45514 0)
(3.96031 2.48419 2.40282e-17)
(3.16471 1.78559 -2.31939e-17)
(6.97641 3.87016 1.14242e-17)
(7.83196 5.51334 -1.36837e-17)
(7.96397 4.93257 0)
(7.51972 5.17309 -3.67422e-19)
(7.39336 4.83419 -2.81884e-18)
(7.03768 4.75047 0)
(6.70609 4.5883 -6.80407e-21)
(6.35521 4.3896 1.04735e-18)
(5.96277 4.17629 -2.49901e-18)
(5.54113 3.93411 1.3107e-18)
(5.12912 3.67328 0)
(4.78819 3.43164 1.19473e-17)
(4.53055 3.22615 3.56023e-20)
(4.33736 3.05029 5.05325e-18)
(4.1956 2.89971 6.14175e-18)
(4.09504 2.76969 0)
(4.00569 2.69185 -1.36064e-17)
(4.00342 2.54263 2.66656e-17)
(3.84632 2.56438 -2.92527e-17)
(3.0645 1.83545 5.00475e-17)
(6.89017 4.04487 0)
(7.74824 5.7696 0)
(7.85831 5.14006 -6.89174e-18)
(7.41032 5.39096 0)
(7.29916 5.02346 0)
(6.93375 4.94703 5.43112e-18)
(6.61276 4.77076 -5.98836e-20)
(6.26218 4.56394 5.69102e-19)
(5.87013 4.34322 -4.10355e-19)
(5.44775 4.09393 0)
(5.03221 3.82808 -2.58074e-18)
(4.68447 3.58145 -9.86927e-18)
(4.41828 3.36855 -1.22786e-17)
(4.21589 3.18102 -5.06239e-18)
(4.06595 3.01755 6.69547e-18)
(3.95981 2.87899 -1.58922e-17)
(3.86316 2.78334 2.93284e-17)
(3.84173 2.62514 5.18354e-19)
(3.68973 2.62254 -2.79226e-17)
(2.95487 1.86876 -3.41088e-18)
(6.81579 4.21048 0)
(7.58367 5.96411 -9.81784e-18)
(7.77184 5.32119 7.8005e-18)
(7.30269 5.59493 0)
(7.20663 5.19968 0)
(6.83357 5.12959 -1.19329e-17)
(6.52143 4.93945 0)
(6.17124 4.72599 0)
(5.78147 4.49912 -5.32815e-18)
(5.36044 4.24508 2.22608e-18)
(4.9423 3.97672 -2.13931e-17)
(4.58604 3.72769 0)
(4.30686 3.51142 -1.30901e-17)
(4.08964 3.31923 4.45814e-19)
(3.92516 3.14314 -2.09852e-17)
(3.80808 2.98059 8.61422e-18)
(3.72289 2.85321 2.25759e-19)
(3.73672 2.68849 -3.15862e-17)
(3.57008 2.68203 1.51601e-17)
(2.8326 1.88581 3.62058e-18)
(6.73475 4.33826 0)
(7.52611 6.1711 -1.14459e-17)
(7.65584 5.49839 8.11438e-18)
(7.19828 5.77875 1.53043e-17)
(7.11527 5.36446 2.8747e-18)
(6.73676 5.29861 -1.5279e-18)
(6.43272 5.09584 9.82604e-19)
(6.08389 4.877 1.50995e-18)
(5.69708 4.64439 5.70854e-18)
(5.27695 4.38576 1.53614e-17)
(4.85562 4.11598 1.77829e-17)
(4.49169 3.86714 3.2828e-18)
(4.2025 3.64822 1.9037e-17)
(3.97518 3.44698 1.21123e-17)
(3.80305 3.25786 1.51373e-17)
(3.67802 3.08663 -9.42332e-18)
(3.56816 2.95375 -1.16558e-17)
(3.52753 2.76984 1.37508e-17)
(3.37786 2.67877 -8.44924e-18)
(2.69571 1.88574 1.18479e-17)
(6.65996 4.49853 1.74887e-17)
(7.39466 6.35094 1.8134e-17)
(7.57336 5.66011 4.27683e-18)
(7.10061 5.9495 2.59529e-19)
(7.02668 5.51681 -1.02086e-17)
(6.64302 5.45446 3.54451e-18)
(6.34709 5.24047 -1.11426e-18)
(6.00002 5.0169 -3.54287e-19)
(5.61634 4.77896 -6.55998e-18)
(5.19746 4.51708 -1.69222e-17)
(4.77476 4.24802 1.14888e-18)
(4.40513 4.00198 0)
(4.10304 3.78597 0)
(3.85282 3.59006 -6.20364e-18)
(3.6432 3.404 -2.41534e-17)
(3.47879 3.21151 2.02247e-17)
(3.36855 3.02541 1.2493e-17)
(3.37202 2.80813 0)
(3.21578 2.73855 2.71657e-17)
(2.54396 1.85993 -1.3279e-17)
(6.58484 4.61195 -8.81118e-18)
(7.30088 6.51712 7.34541e-18)
(7.4799 5.81452 -9.71113e-18)
(7.00781 6.11019 -9.61843e-18)
(6.93824 5.65887 -3.98274e-18)
(6.55326 5.59834 1.04138e-18)
(6.26499 5.37429 0)
(5.91959 5.14669 -1.85326e-18)
(5.53902 4.90402 6.71452e-19)
(5.12229 4.63946 0)
(4.69983 4.37157 0)
(4.3249 4.13049 2.18868e-18)
(4.01164 3.91919 3.17656e-18)
(3.75207 3.72213 -6.56878e-18)
(3.54945 3.52792 1.74287e-17)
(3.39095 3.3416 -2.1604e-17)
(3.24284 3.17416 -2.71831e-17)
(3.13568 2.94578 2.46069e-17)
(2.94542 2.69806 -1.00562e-17)
(2.36081 1.81401 5.41026e-18)
(6.50365 4.7317 1.03609e-17)
(7.21473 6.67149 0)
(7.36994 5.94858 0)
(6.90839 6.2504 -3.09352e-18)
(6.85077 5.79181 2.49776e-18)
(6.46829 5.73118 -3.0732e-19)
(6.18562 5.49801 -3.39536e-18)
(5.84193 5.26649 1.00097e-18)
(5.46551 5.01946 1.13745e-17)
(5.05252 4.7529 -1.33174e-18)
(4.63092 4.48732 2.92026e-18)
(4.25198 4.25313 -1.8486e-17)
(3.92888 4.0505 -1.91786e-17)
(3.64497 3.86393 -3.43418e-18)
(3.38252 3.6873 0)
(3.14413 3.49172 -3.7491e-19)
(2.95239 3.27523 1.39624e-17)
(2.87998 2.99346 -2.67688e-17)
(2.71809 2.77911 2.05904e-17)
(2.13186 1.78041 1.7983e-17)
(6.42498 4.84045 -2.2332e-17)
(7.08848 6.77093 -8.39354e-18)
(7.29233 6.07145 3.11607e-19)
(6.8192 6.37523 4.17362e-18)
(6.77219 5.9148 0)
(6.38549 5.85525 9.59876e-18)
(6.10707 5.6142 3.91871e-18)
(5.76646 5.37989 -5.64809e-19)
(5.3948 5.12979 -5.73366e-18)
(4.98422 4.8619 -1.28807e-18)
(4.56263 4.59904 1.19194e-18)
(4.18074 4.37356 1.61608e-17)
(3.84784 4.183 1.86282e-17)
(3.55234 4.0057 3.26545e-18)
(3.30538 3.83239 1.72944e-17)
(3.09644 3.67998 0)
(2.88259 3.528 0)
(2.6381 3.3153 1.73805e-17)
(2.14425 2.92049 1.96257e-19)
(1.05925 2.02435 -1.53729e-17)
(6.36663 4.96054 1.20538e-17)
(7.02906 6.97527 1.82466e-17)
(7.23116 6.22368 -3.70018e-17)
(6.74953 6.51623 2.03918e-17)
(6.69237 6.03413 -2.12392e-18)
(6.30288 5.97283 1.24025e-17)
(6.03053 5.72559 0)
(5.69302 5.48951 -3.30138e-19)
(5.32411 5.2366 0)
(4.91567 4.96779 1.65373e-17)
(4.49793 4.70976 -1.61335e-18)
(4.11762 4.49606 1.80402e-18)
(3.78084 4.32268 2.08605e-17)
(3.46915 4.16623 -7.17111e-18)
(3.16324 4.01993 -9.14955e-18)
(2.84361 3.87228 0)
(2.54296 3.70916 0)
(2.25725 3.46821 0)
(1.76528 2.94978 -9.64286e-18)
(1.20943 2.39873 -5.55229e-18)
(6.31285 5.05767 0)
(6.96152 7.06764 0)
(7.14404 6.33237 1.3196e-17)
(6.65655 6.63774 -1.67739e-17)
(6.60377 6.14507 1.08392e-17)
(6.2241 6.0837 -1.12176e-17)
(5.95656 5.83191 -3.29912e-19)
(5.6203 5.59404 2.55479e-19)
(5.25451 5.33913 9.76754e-19)
(4.85152 5.07181 -1.89364e-17)
(4.43797 4.8196 2.77147e-18)
(4.05642 4.61732 1.58782e-17)
(3.71157 4.46254 -2.07106e-17)
(3.38674 4.32811 -2.33178e-17)
(3.08561 4.19689 8.1163e-18)
(2.83343 4.08584 0)
(2.57145 3.99037 1.27858e-17)
(2.26733 3.74952 1.62703e-17)
(1.7079 3.2257 -1.79796e-17)
(1.11819 3.02423 2.37798e-17)
(6.19257 5.13883 0)
(6.82878 7.12795 2.00255e-17)
(7.00043 6.39443 -3.21661e-18)
(6.54787 6.71246 2.08082e-17)
(6.5313 6.24954 -1.13923e-17)
(6.15009 6.1884 0)
(5.88329 5.93289 0)
(5.54939 5.69396 0)
(5.18883 5.43893 3.9562e-18)
(4.79002 5.17306 7.24977e-19)
(4.37852 4.92512 0)
(3.99992 4.73515 -1.56973e-17)
(3.65778 4.60204 0)
(3.33356 4.50301 1.66061e-17)
(3.02093 4.42062 -1.13695e-17)
(2.68938 4.32942 -9.27708e-18)
(2.37487 4.20801 -2.43828e-17)
(2.02159 3.91409 -1.47635e-17)
(1.36432 3.48993 -2.49156e-17)
(1.08909 3.44697 2.01961e-17)
(6.13443 5.2247 -6.11232e-18)
(6.75484 7.26489 5.00891e-19)
(6.97221 6.52996 -3.4193e-18)
(6.5059 6.82457 -1.6065e-17)
(6.47305 6.35268 0)
(6.0738 6.28752 0)
(5.81212 6.02925 0)
(5.48205 5.79078 1.36962e-19)
(5.12505 5.53561 -5.10967e-18)
(4.72894 5.27049 0)
(4.32373 5.02858 0)
(3.95406 4.85284 0)
(3.62041 4.74317 0)
(3.3026 4.671 1.21885e-17)
(2.99083 4.60964 3.11557e-17)
(2.73144 4.55065 9.91863e-18)
(2.47526 4.43821 2.36277e-17)
(2.02824 4.12927 -1.9941e-17)
(1.4481 3.81478 8.07791e-18)
(1.19799 3.85639 0)
(6.12823 5.32549 7.06096e-18)
(6.75741 7.42215 -3.93401e-17)
(6.94856 6.68176 -1.10346e-17)
(6.44837 6.96119 -2.60803e-18)
(6.38758 6.45268 2.52356e-18)
(5.99884 6.38535 -1.61899e-17)
(5.74419 6.12413 1.00029e-18)
(5.41596 5.88562 1.81984e-18)
(5.06135 5.62955 0)
(4.67081 5.36675 -1.18496e-18)
(4.27368 5.1312 1.0788e-18)
(3.91112 4.96657 0)
(3.58231 4.87424 0)
(3.26784 4.83167 -1.5253e-17)
(2.98087 4.82343 2.67254e-18)
(2.68389 4.80563 -9.27859e-18)
(2.30773 4.67521 2.08912e-17)
(1.78749 4.34205 1.76261e-17)
(1.21934 4.1525 -3.24284e-17)
(1.0504 4.18361 1.59885e-17)
(6.02503 5.38953 1.29491e-17)
(6.63601 7.4678 3.60096e-17)
(6.79904 6.73026 1.3177e-17)
(6.3222 7.02865 0)
(6.30377 6.54987 0)
(5.92759 6.48439 1.2175e-17)
(5.67315 6.21998 -5.75813e-18)
(5.34697 5.9805 -1.81607e-18)
(4.99674 5.72394 5.49688e-20)
(4.61334 5.4634 1.37693e-17)
(4.22399 5.23177 -1.928e-17)
(3.8731 5.07666 0)
(3.56562 5.00636 0)
(3.28085 4.99408 -1.08317e-17)
(2.99107 4.99773 -1.41779e-17)
(2.70867 4.97744 0)
(2.41137 4.82811 -3.02573e-17)
(1.9145 4.56681 -5.23558e-18)
(1.46724 4.60348 3.03401e-17)
(1.30178 4.72142 -1.4712e-17)
(5.91192 5.46185 -2.45294e-17)
(6.4908 7.53856 -1.70026e-17)
(6.70101 6.81428 0)
(6.2444 7.10891 0)
(6.2411 6.65223 0)
(5.84616 6.58394 0)
(5.59621 6.31707 6.01734e-18)
(5.27413 6.07598 -2.93074e-18)
(4.93006 5.81889 0)
(4.55378 5.55875 -1.24349e-17)
(4.17379 5.3298 3.49009e-17)
(3.837 5.18135 1.47845e-18)
(3.54478 5.12262 2.1966e-18)
(3.26312 5.1266 1.83507e-17)
(3.00256 5.16502 -1.22168e-17)
(2.74307 5.18016 0)
(2.37724 5.12182 9.52361e-18)
(1.78412 4.96454 7.7415e-19)
(1.18651 5.07516 -5.00701e-18)
(0.841155 5.2237 1.01792e-17)
(5.86952 5.58858 1.161e-17)
(6.45537 7.69392 -1.66625e-17)
(6.67381 6.98531 0)
(6.18405 7.25233 -3.67965e-18)
(6.15162 6.76052 1.36698e-17)
(5.75581 6.68658 0)
(5.51547 6.41544 0)
(5.19736 6.17253 5.35662e-18)
(4.85977 5.91361 -6.41869e-19)
(4.4903 5.65181 1.24004e-17)
(4.12231 5.42487 -1.66558e-17)
(3.80336 5.2818 1.06679e-17)
(3.53642 5.23707 0)
(3.29352 5.26829 -1.00403e-17)
(3.05348 5.33575 6.27654e-18)
(2.81709 5.37318 6.83854e-18)
(2.51395 5.25645 0)
(2.0132 5.22304 4.67855e-18)
(1.41821 5.83486 7.81917e-18)
(1.35183 6.18491 2.38314e-18)
(5.78425 5.68654 -2.16763e-17)
(6.37096 7.81241 2.42746e-17)
(6.55035 7.09112 1.70405e-17)
(6.05971 7.35964 -4.33761e-18)
(6.04498 6.86825 -2.05992e-17)
(5.66441 6.79271 0)
(5.42865 6.51537 5.35429e-18)
(5.11582 6.26953 -2.37353e-18)
(4.78384 6.00615 -2.13957e-20)
(4.42339 5.74197 -1.07794e-17)
(4.07227 5.5178 -8.46979e-19)
(3.77531 5.37761 -1.19706e-17)
(3.53535 5.33801 1.45584e-17)
(3.32025 5.38485 4.55789e-18)
(3.12686 5.47078 -1.05865e-17)
(2.94069 5.49623 1.19539e-17)
(2.67457 5.46169 0)
(2.19899 5.88365 0)
(1.8379 6.77648 8.36906e-19)
(0.428812 6.87205 -4.30526e-18)
(5.64332 5.75832 1.04947e-17)
(6.20916 7.89467 2.21727e-17)
(6.40991 7.17762 -1.69317e-17)
(5.94481 7.44659 1.48459e-17)
(5.95036 6.97596 1.99985e-17)
(5.5644 6.8971 0)
(5.33547 6.61528 -5.65482e-18)
(5.02836 6.36474 -3.43836e-18)
(4.70411 6.0969 0)
(4.35765 5.83134 0)
(4.02483 5.60795 0)
(3.74937 5.46875 0)
(3.5353 5.42471 -1.65822e-17)
(3.36306 5.47664 -6.25264e-18)
(3.206 5.57644 0)
(3.06679 5.65356 -5.9195e-18)
(2.90864 5.69301 0)
(2.81554 5.96786 -2.63124e-18)
(2.8009 6.23017 -1.26032e-18)
(1.5378 6.28843 2.85543e-18)
(5.54322 5.86859 -1.9969e-17)
(6.09455 8.03053 -1.40907e-17)
(6.31362 7.32731 -1.06291e-17)
(5.84265 7.57608 -1.38456e-17)
(5.84166 7.09135 -9.38562e-18)
(5.45421 7.00443 0)
(5.23587 6.71663 -9.96626e-19)
(4.9349 6.46073 4.5346e-19)
(4.6228 6.18987 -1.53353e-18)
(4.29016 5.92046 0)
(3.97334 5.69285 9.88964e-19)