/*--------------------------------*- C++ -*----------------------------------*\
| =========                 |                                                 |
| \\      /  F ield         | OpenFOAM: The Open Source CFD Toolbox           |
|  \\    /   O peration     | Version:  2412                                  |
|   \\  /    A nd           | Website:  www.openfoam.com                      |
|    \\/     M anipulation  |                                                 |
\*---------------------------------------------------------------------------*/
FoamFile
{
    version     2.0;
    format      ascii;
    arch        "LSB;label=32;scalar=64";
    class       volVectorField;
    location    "0.34";
    object      U_0_0_0;
}
// * * * * * * * * * * * * * * * * * * * * * * * * * * * * * * * * * * * * * //

dimensions      [0 1 -1 0 0 0 0];

internalField   nonuniform List<vector> 
800
(
(0.00190338 0 0)
(0.00571018 0 0)
(0.00951694 0 0)
(0.0133236 0 0)
(0.0171302 0 0)
(0.0209367 0 0)
(0.0247431 0 0)
(0.0285492 0 0)
(0.0323552 0 0)
(0.0361609 0 0)
(0.0399664 0 0)
(0.0437715 0 0)
(0.0475764 0 0)
(0.051381 0 0)
(0.0551851 0 0)
(0.0589889 0 0)
(0.0627923 0 0)
(0.0665952 0 0)
(0.0703976 0 0)
(0.0741996 0 0)
(0.078001 0 0)
(0.0818018 0 0)
(0.0856021 0 0)
(0.0894017 0 0)
(0.0932008 0 0)
(0.0969991 0 0)
(0.100797 0 0)
(0.104594 0 0)
(0.10839 0 0)
(0.112185 0 0)
(0.11598 0 0)
(0.119774 0 0)
(0.123567 0 0)
(0.127359 0 0)
(0.13115 0 0)
(0.13494 0 0)
(0.138729 0 0)
(0.142517 0 0)
(0.146305 0 0)
(0.150091 0 0)
(0.153876 0 0)
(0.15766 0 0)
(0.161443 0 0)
(0.165224 0 0)
(0.169005 0 0)
(0.172784 0 0)
(0.176562 0 0)
(0.180338 0 0)
(0.184114 0 0)
(0.187888 0 0)
(0.19166 0 0)
(0.195432 0 0)
(0.199202 0 0)
(0.20297 0 0)
(0.206737 0 0)
(0.210502 0 0)
(0.214266 0 0)
(0.218028 0 0)
(0.221789 0 0)
(0.225548 0 0)
(0.229305 0 0)
(0.233061 0 0)
(0.236815 0 0)
(0.240567 0 0)
(0.244317 0 0)
(0.248066 0 0)
(0.251813 0 0)
(0.255558 0 0)
(0.259301 0 0)
(0.263042 0 0)
(0.266781 0 0)
(0.270518 0 0)
(0.274253 0 0)
(0.277986 0 0)
(0.281716 0 0)
(0.285445 0 0)
(0.289172 0 0)
(0.292896 0 0)
(0.296618 0 0)
(0.300338 0 0)
(0.304056 0 0)
(0.307771 0 0)
(0.311484 0 0)
(0.315194 0 0)
(0.318903 0 0)
(0.322608 0 0)
(0.326311 0 0)
(0.330012 0 0)
(0.33371 0 0)
(0.337406 0 0)
(0.341099 0 0)
(0.344789 0 0)
(0.348476 0 0)
(0.352161 0 0)
(0.355843 0 0)
(0.359523 0 0)
(0.363199 0 0)
(0.366873 0 0)
(0.370543 0 0)
(0.374211 0 0)
(0.377876 0 0)
(0.381538 0 0)
(0.385197 0 0)
(0.388852 0 0)
(0.392505 0 0)
(0.396154 0 0)
(0.3998 0 0)
(0.403443 0 0)
(0.407083 0 0)
(0.410719 0 0)
(0.414352 0 0)
(0.417982 0 0)
(0.421608 0 0)
(0.425231 0 0)
(0.42885 0 0)
(0.432466 0 0)
(0.436078 0 0)
(0.439687 0 0)
(0.443292 0 0)
(0.446893 0 0)
(0.45049 0 0)
(0.454084 0 0)
(0.457674 0 0)
(0.46126 0 0)
(0.464842 0 0)
(0.46842 0 0)
(0.471994 0 0)
(0.475564 0 0)
(0.47913 0 0)
(0.482692 0 0)
(0.48625 0 0)
(0.489803 0 0)
(0.493352 0 0)
(0.496897 0 0)
(0.500438 0 0)
(0.503974 0 0)
(0.507506 0 0)
(0.511033 0 0)
(0.514556 0 0)
(0.518074 0 0)
(0.521588 0 0)
(0.525096 0 0)
(0.528601 0 0)
(0.5321 0 0)
(0.535595 0 0)
(0.539084 0 0)
(0.542569 0 0)
(0.546049 0 0)
(0.549524 0 0)
(0.552993 0 0)
(0.556458 0 0)
(0.559917 0 0)
(0.563371 0 0)
(0.56682 0 0)
(0.570264 0 0)
(0.573702 0 0)
(0.577135 0 0)
(0.580562 0 0)
(0.583984 0 0)
(0.5874 0 0)
(0.59081 0 0)
(0.594215 0 0)
(0.597614 0 0)
(0.601007 0 0)
(0.604394 0 0)
(0.607775 0 0)
(0.61115 0 0)
(0.614519 0 0)
(0.617882 0 0)
(0.621239 0 0)
(0.624589 0 0)
(0.627933 0 0)
(0.631271 0 0)
(0.634602 0 0)
(0.637927 0 0)
(0.641245 0 0)
(0.644557 0 0)
(0.647862 0 0)
(0.65116 0 0)
(0.654451 0 0)
(0.657735 0 0)
(0.661012 0 0)
(0.664282 0 0)
(0.667545 0 0)
(0.670801 0 0)
(0.67405 0 0)
(0.677291 0 0)
(0.680525 0 0)
(0.683751 0 0)
(0.68697 0 0)
(0.69018 0 0)
(0.693384 0 0)
(0.696579 0 0)
(0.699767 0 0)
(0.702946 0 0)
(0.706118 0 0)
(0.709281 0 0)
(0.712436 0 0)
(0.715583 0 0)
(0.718721 0 0)
(0.721851 0 0)
(0.724972 0 0)
(0.728085 0 0)
(0.731189 0 0)
(0.734284 0 0)
(0.73737 0 0)
(0.740447 0 0)
(0.743515 0 0)
(0.746573 0 0)
(0.749623 0 0)
(0.752663 0 0)
(0.755693 0 0)
(0.758714 0 0)
(0.761725 0 0)
(0.764726 0 0)
(0.767717 0 0)
(0.770698 0 0)
(0.77367 0 0)
(0.77663 0 0)
(0.779581 0 0)
(0.782521 0 0)
(0.78545 0 0)
(0.788369 0 0)
(0.791276 0 0)
(0.794173 0 0)
(0.797059 0 0)
(0.799934 0 0)
(0.802797 0 0)
(0.805649 0 0)
(0.808489 0 0)
(0.811317 0 0)
(0.814134 0 0)
(0.816939 0 0)
(0.819731 0 0)
(0.822512 0 0)
(0.825279 0 0)
(0.828035 0 0)
(0.830777 0 0)
(0.833507 0 0)
(0.836224 0 0)
(0.838928 0 0)
(0.841618 0 0)
(0.844295 0 0)
(0.846959 0 0)
(0.849609 0 0)
(0.852244 0 0)
(0.854866 0 0)
(0.857473 0 0)
(0.860066 0 0)
(0.862645 0 0)
(0.865208 0 0)
(0.867757 0 0)
(0.87029 0 0)
(0.872808 0 0)
(0.875311 0 0)
(0.877797 0 0)
(0.880268 0 0)
(0.882723 0 0)
(0.885161 0 0)
(0.887583 0 0)
(0.889988 0 0)
(0.892376 0 0)
(0.894747 0 0)
(0.8971 0 0)
(0.899436 0 0)
(0.901754 0 0)
(0.904054 0 0)
(0.906335 0 0)
(0.908598 0 0)
(0.910841 0 0)
(0.913066 0 0)
(0.915271 0 0)
(0.917457 0 0)
(0.919622 0 0)
(0.921768 0 0)
(0.923893 0 0)
(0.925997 0 0)
(0.92808 0 0)
(0.930141 0 0)
(0.932181 0 0)
(0.934199 0 0)
(0.936194 0 0)
(0.938167 0 0)
(0.940116 0 0)
(0.942043 0 0)
(0.943945 0 0)
(0.945824 0 0)
(0.947678 0 0)
(0.949507 0 0)
(0.95131 0 0)
(0.953089 0 0)
(0.954841 0 0)
(0.956566 0 0)
(0.958265 0 0)
(0.959937 0 0)
(0.96158 0 0)
(0.963196 0 0)
(0.964783 0 0)
(0.96634 0 0)
(0.967868 0 0)
(0.969366 0 0)
(0.970833 0 0)
(0.972268 0 0)
(0.973672 0 0)
(0.975043 0 0)
(0.976382 0 0)
(0.977687 0 0)
(0.978958 0 0)
(0.980194 0 0)
(0.981394 0 0)
(0.982558 0 0)
(0.983686 0 0)
(0.984776 0 0)
(0.985828 0 0)
(0.986841 0 0)
(0.987814 0 0)
(0.988746 0 0)
(0.989637 0 0)
(0.990486 0 0)
(0.991291 0 0)
(0.992053 0 0)
(0.992769 0 0)
(0.99344 0 0)
(0.994064 0 0)
(0.994639 0 0)
(0.995166 0 0)
(0.995643 0 0)
(0.996068 0 0)
(0.99644 0 0)
(0.996759 0 0)
(0.997023 0 0)
(0.997231 0 0)
(0.99738 0 0)
(0.997471 0 0)
(0.997501 0 0)
(0.997468 0 0)
(0.997372 0 0)
(0.997211 0 0)
(0.996982 0 0)
(0.996684 0 0)
(0.996315 0 0)
(0.995873 0 0)
(0.995355 0 0)
(0.994761 0 0)
(0.994087 0 0)
(0.993331 0 0)
(0.992491 0 0)
(0.991564 0 0)
(0.990546 0 0)
(0.989436 0 0)
(0.988231 0 0)
(0.986926 0 0)
(0.985519 0 0)
(0.984006 0 0)
(0.982383 0 0)
(0.980646 0 0)
(0.978792 0 0)
(0.976815 0 0)
(0.97471 0 0)
(0.972474 0 0)
(0.970099 0 0)
(0.967581 0 0)
(0.964913 0 0)
(0.962089 0 0)
(0.959101 0 0)
(0.955942 0 0)
(0.952604 0 0)
(0.949078 0 0)
(0.945353 0 0)
(0.941421 0 0)
(0.937268 0 0)
(0.932884 0 0)
(0.928254 0 0)
(0.923364 0 0)
(0.918196 0 0)
(0.912734 0 0)
(0.906957 0 0)
(0.900842 0 0)
(0.894363 0 0)
(0.887494 0 0)
(0.880201 0 0)
(0.872448 0 0)
(0.864191 0 0)
(0.855382 0 0)
(0.845963 0 0)
(0.835866 0 0)
(0.825007 0 0)
(0.813287 0 0)
(0.800581 0 0)
(0.786729 0 0)
(0.771524 0 0)
(0.754681 0 0)
(0.735791 0 0)
(0.714209 0 0)
(0.688777 0 0)
(0.656988 0 0)
(0.612384 0 0)
(0.537538 0 0)
(0.39515 0 0)
(0.150678 0 0)
(-0.150501 0 0)
(-0.395011 0 0)
(-0.537444 0 0)
(-0.612319 0 0)
(-0.65694 0 0)
(-0.688737 0 0)
(-0.714176 0 0)
(-0.735762 0 0)
(-0.754655 0 0)
(-0.771501 0 0)
(-0.786709 0 0)
(-0.800562 0 0)
(-0.813271 0 0)
(-0.824992 0 0)
(-0.835852 0 0)
(-0.845951 0 0)
(-0.855371 0 0)
(-0.86418 0 0)
(-0.872438 0 0)
(-0.880192 0 0)
(-0.887486 0 0)
(-0.894356 0 0)
(-0.900834 0 0)
(-0.90695 0 0)
(-0.912728 0 0)
(-0.918191 0 0)
(-0.923359 0 0)
(-0.928249 0 0)
(-0.93288 0 0)
(-0.937264 0 0)
(-0.941417 0 0)
(-0.94535 0 0)
(-0.949075 0 0)
(-0.952601 0 0)
(-0.95594 0 0)
(-0.959099 0 0)
(-0.962087 0 0)
(-0.964911 0 0)
(-0.967579 0 0)
(-0.970098 0 0)
(-0.972472 0 0)
(-0.974709 0 0)
(-0.976814 0 0)
(-0.978791 0 0)
(-0.980646 0 0)
(-0.982382 0 0)
(-0.984005 0 0)
(-0.985518 0 0)
(-0.986925 0 0)
(-0.98823 0 0)
(-0.989436 0 0)
(-0.990546 0 0)
(-0.991563 0 0)
(-0.992491 0 0)
(-0.993331 0 0)
(-0.994087 0 0)
(-0.994761 0 0)
(-0.995355 0 0)
(-0.995872 0 0)
(-0.996315 0 0)
(-0.996684 0 0)
(-0.996982 0 0)
(-0.997211 0 0)
(-0.997372 0 0)
(-0.997468 0 0)
(-0.997501 0 0)
(-0.997471 0 0)
(-0.99738 0 0)
(-0.99723 0 0)
(-0.997023 0 0)
(-0.996759 0 0)
(-0.99644 0 0)
(-0.996068 0 0)
(-0.995642 0 0)
(-0.995166 0 0)
(-0.994639 0 0)
(-0.994064 0 0)
(-0.99344 0 0)
(-0.992769 0 0)
(-0.992053 0 0)
(-0.991291 0 0)
(-0.990485 0 0)
(-0.989637 0 0)
(-0.988746 0 0)
(-0.987813 0 0)
(-0.98684 0 0)
(-0.985827 0 0)
(-0.984776 0 0)
(-0.983686 0 0)
(-0.982558 0 0)
(-0.981394 0 0)
(-0.980193 0 0)
(-0.978957 0 0)
(-0.977686 0 0)
(-0.976381 0 0)
(-0.975043 0 0)
(-0.973671 0 0)
(-0.972267 0 0)
(-0.970832 0 0)
(-0.969365 0 0)
(-0.967867 0 0)
(-0.966339 0 0)
(-0.964782 0 0)
(-0.963195 0 0)
(-0.96158 0 0)
(-0.959936 0 0)
(-0.958264 0 0)
(-0.956566 0 0)
(-0.95484 0 0)
(-0.953088 0 0)
(-0.951309 0 0)
(-0.949506 0 0)
(-0.947676 0 0)
(-0.945822 0 0)
(-0.943944 0 0)
(-0.942041 0 0)
(-0.940115 0 0)
(-0.938166 0 0)
(-0.936193 0 0)
(-0.934197 0 0)
(-0.93218 0 0)
(-0.93014 0 0)
(-0.928078 0 0)
(-0.925995 0 0)
(-0.923891 0 0)
(-0.921766 0 0)
(-0.919621 0 0)
(-0.917455 0 0)
(-0.91527 0 0)
(-0.913064 0 0)
(-0.91084 0 0)
(-0.908596 0 0)
(-0.906333 0 0)
(-0.904052 0 0)
(-0.901752 0 0)
(-0.899434 0 0)
(-0.897099 0 0)
(-0.894745 0 0)
(-0.892374 0 0)
(-0.889986 0 0)
(-0.887581 0 0)
(-0.88516 0 0)
(-0.882721 0 0)
(-0.880267 0 0)
(-0.877796 0 0)
(-0.875309 0 0)
(-0.872806 0 0)
(-0.870288 0 0)
(-0.867755 0 0)
(-0.865206 0 0)
(-0.862643 0 0)
(-0.860064 0 0)
(-0.857471 0 0)
(-0.854864 0 0)
(-0.852242 0 0)
(-0.849607 0 0)
(-0.846957 0 0)
(-0.844294 0 0)
(-0.841617 0 0)
(-0.838926 0 0)
(-0.836222 0 0)
(-0.833505 0 0)
(-0.830776 0 0)
(-0.828033 0 0)
(-0.825277 0 0)
(-0.82251 0 0)
(-0.819729 0 0)
(-0.816937 0 0)
(-0.814132 0 0)
(-0.811315 0 0)
(-0.808487 0 0)
(-0.805647 0 0)
(-0.802795 0 0)
(-0.799932 0 0)
(-0.797057 0 0)
(-0.794171 0 0)
(-0.791274 0 0)
(-0.788367 0 0)
(-0.785448 0 0)
(-0.782519 0 0)
(-0.779579 0 0)
(-0.776628 0 0)
(-0.773667 0 0)
(-0.770696 0 0)
(-0.767715 0 0)
(-0.764724 0 0)
(-0.761723 0 0)
(-0.758712 0 0)
(-0.755691 0 0)
(-0.75266 0 0)
(-0.749621 0 0)
(-0.746571 0 0)
(-0.743513 0 0)
(-0.740445 0 0)
(-0.737368 0 0)
(-0.734282 0 0)
(-0.731187 0 0)
(-0.728083 0 0)
(-0.72497 0 0)
(-0.721849 0 0)
(-0.718719 0 0)
(-0.715581 0 0)
(-0.712434 0 0)
(-0.709279 0 0)
(-0.706116 0 0)
(-0.702944 0 0)
(-0.699765 0 0)
(-0.696577 0 0)
(-0.693382 0 0)
(-0.690179 0 0)
(-0.686968 0 0)
(-0.683749 0 0)
(-0.680523 0 0)
(-0.677289 0 0)
(-0.674048 0 0)
(-0.670799 0 0)
(-0.667544 0 0)
(-0.664281 0 0)
(-0.66101 0 0)
(-0.657733 0 0)
(-0.654449 0 0)
(-0.651158 0 0)
(-0.64786 0 0)
(-0.644555 0 0)
(-0.641244 0 0)
(-0.637925 0 0)
(-0.634601 0 0)
(-0.631269 0 0)
(-0.627932 0 0)
(-0.624588 0 0)
(-0.621237 0 0)
(-0.61788 0 0)
(-0.614517 0 0)
(-0.611148 0 0)
(-0.607773 0 0)
(-0.604392 0 0)
(-0.601005 0 0)
(-0.597612 0 0)
(-0.594213 0 0)
(-0.590808 0 0)
(-0.587398 0 0)
(-0.583982 0 0)
(-0.58056 0 0)
(-0.577133 0 0)
(-0.5737 0 0)
(-0.570262 0 0)
(-0.566819 0 0)
(-0.56337 0 0)
(-0.559916 0 0)
(-0.556456 0 0)
(-0.552992 0 0)
(-0.549522 0 0)
(-0.546047 0 0)
(-0.542568 0 0)
(-0.539083 0 0)
(-0.535593 0 0)
(-0.532099 0 0)
(-0.528599 0 0)
(-0.525095 0 0)
(-0.521586 0 0)
(-0.518073 0 0)
(-0.514554 0 0)
(-0.511032 0 0)
(-0.507504 0 0)
(-0.503973 0 0)
(-0.500437 0 0)
(-0.496896 0 0)
(-0.493351 0 0)
(-0.489802 0 0)
(-0.486248 0 0)
(-0.482691 0 0)
(-0.479129 0 0)
(-0.475563 0 0)
(-0.471993 0 0)
(-0.468419 0 0)
(-0.464841 0 0)
(-0.461259 0 0)
(-0.457673 0 0)
(-0.454083 0 0)
(-0.450489 0 0)
(-0.446892 0 0)
(-0.443291 0 0)
(-0.439686 0 0)
(-0.436077 0 0)
(-0.432465 0 0)
(-0.428849 0 0)
(-0.42523 0 0)
(-0.421607 0 0)
(-0.417981 0 0)
(-0.414351 0 0)
(-0.410718 0 0)
(-0.407082 0 0)
(-0.403442 0 0)
(-0.399799 0 0)
(-0.396153 0 0)
(-0.392504 0 0)
(-0.388851 0 0)
(-0.385196 0 0)
(-0.381537 0 0)
(-0.377875 0 0)
(-0.37421 0 0)
(-0.370543 0 0)
(-0.366872 0 0)
(-0.363198 0 0)
(-0.359522 0 0)
(-0.355843 0 0)
(-0.352161 0 0)
(-0.348476 0 0)
(-0.344788 0 0)
(-0.341098 0 0)
(-0.337405 0 0)
(-0.33371 0 0)
(-0.330012 0 0)
(-0.326311 0 0)
(-0.322608 0 0)
(-0.318902 0 0)
(-0.315194 0 0)
(-0.311483 0 0)
(-0.30777 0 0)
(-0.304055 0 0)
(-0.300338 0 0)
(-0.296618 0 0)
(-0.292896 0 0)
(-0.289171 0 0)
(-0.285445 0 0)
(-0.281716 0 0)
(-0.277985 0 0)
(-0.274252 0 0)
(-0.270517 0 0)
(-0.26678 0 0)
(-0.263041 0 0)
(-0.2593 0 0)
(-0.255557 0 0)
(-0.251812 0 0)
(-0.248066 0 0)
(-0.244317 0 0)
(-0.240567 0 0)
(-0.236815 0 0)
(-0.233061 0 0)
(-0.229305 0 0)
(-0.225548 0 0)
(-0.221789 0 0)
(-0.218028 0 0)
(-0.214266 0 0)
(-0.210502 0 0)
(-0.206737 0 0)
(-0.20297 0 0)
(-0.199201 0 0)
(-0.195432 0 0)
(-0.19166 0 0)
(-0.187888 0 0)
(-0.184114 0 0)
(-0.180338 0 0)
(-0.176562 0 0)
(-0.172784 0 0)
(-0.169004 0 0)
(-0.165224 0 0)
(-0.161442 0 0)
(-0.15766 0 0)
(-0.153876 0 0)
(-0.150091 0 0)
(-0.146304 0 0)
(-0.142517 0 0)
(-0.138729 0 0)
(-0.13494 0 0)
(-0.13115 0 0)
(-0.127359 0 0)
(-0.123567 0 0)
(-0.119774 0 0)
(-0.11598 0 0)
(-0.112185 0 0)
(-0.10839 0 0)
(-0.104594 0 0)
(-0.100797 0 0)
(-0.0969991 0 0)
(-0.0932007 0 0)
(-0.0894017 0 0)
(-0.085602 0 0)
(-0.0818018 0 0)
(-0.0780009 0 0)
(-0.0741995 0 0)
(-0.0703976 0 0)
(-0.0665952 0 0)
(-0.0627922 0 0)
(-0.0589889 0 0)
(-0.0551851 0 0)
(-0.051381 0 0)
(-0.0475764 0 0)
(-0.0437715 0 0)
(-0.0399664 0 0)
(-0.0361609 0 0)
(-0.0323552 0 0)
(-0.0285492 0 0)
(-0.0247431 0 0)
(-0.0209367 0 0)
(-0.0171303 0 0)
(-0.0133237 0 0)
(-0.00951697 0 0)
(-0.00571021 0 0)
(-0.00190341 0 0)
)
;

boundaryField
{
    left
    {
        type            fixedValue;
        value           uniform (0 0 0);
    }
    right
    {
        type            fixedValue;
        value           uniform (0 0 0);
    }
    frontBackUpDown
    {
        type            empty;
    }
}


// ************************************************************************* //
