/*--------------------------------*- C++ -*----------------------------------*\
| =========                 |                                                 |
| \\      /  F ield         | OpenFOAM: The Open Source CFD Toolbox           |
|  \\    /   O peration     | Version:  2412                                  |
|   \\  /    A nd           | Website:  www.openfoam.com                      |
|    \\/     M anipulation  |                                                 |
\*---------------------------------------------------------------------------*/
FoamFile
{
    version     2.0;
    format      ascii;
    arch        "LSB;label=32;scalar=64";
    class       volVectorField;
    location    "0.99";
    object      U;
}
// * * * * * * * * * * * * * * * * * * * * * * * * * * * * * * * * * * * * * //

dimensions      [0 1 -1 0 0 0 0];

internalField   nonuniform List<vector> 
800
(
(0.000956418 0 0)
(0.00286927 0 0)
(0.00478211 0 0)
(0.00669496 0 0)
(0.00860779 0 0)
(0.0105206 0 0)
(0.0124334 0 0)
(0.0143463 0 0)
(0.016259 0 0)
(0.0181718 0 0)
(0.0200846 0 0)
(0.0219973 0 0)
(0.0239101 0 0)
(0.0258228 0 0)
(0.0277354 0 0)
(0.0296481 0 0)
(0.0315607 0 0)
(0.0334733 0 0)
(0.0353859 0 0)
(0.0372984 0 0)
(0.0392109 0 0)
(0.0411234 0 0)
(0.0430358 0 0)
(0.0449482 0 0)
(0.0468606 0 0)
(0.0487729 0 0)
(0.0506851 0 0)
(0.0525973 0 0)
(0.0545095 0 0)
(0.0564216 0 0)
(0.0583337 0 0)
(0.0602457 0 0)
(0.0621576 0 0)
(0.0640695 0 0)
(0.0659814 0 0)
(0.0678932 0 0)
(0.0698049 0 0)
(0.0717165 0 0)
(0.0736281 0 0)
(0.0755396 0 0)
(0.0774511 0 0)
(0.0793625 0 0)
(0.0812738 0 0)
(0.083185 0 0)
(0.0850961 0 0)
(0.0870072 0 0)
(0.0889182 0 0)
(0.0908291 0 0)
(0.0927399 0 0)
(0.0946507 0 0)
(0.0965613 0 0)
(0.0984719 0 0)
(0.100382 0 0)
(0.102293 0 0)
(0.104203 0 0)
(0.106113 0 0)
(0.108023 0 0)
(0.109933 0 0)
(0.111843 0 0)
(0.113753 0 0)
(0.115663 0 0)
(0.117572 0 0)
(0.119482 0 0)
(0.121391 0 0)
(0.1233 0 0)
(0.125209 0 0)
(0.127118 0 0)
(0.129027 0 0)
(0.130936 0 0)
(0.132845 0 0)
(0.134753 0 0)
(0.136662 0 0)
(0.13857 0 0)
(0.140478 0 0)
(0.142386 0 0)
(0.144294 0 0)
(0.146202 0 0)
(0.148109 0 0)
(0.150017 0 0)
(0.151924 0 0)
(0.153831 0 0)
(0.155738 0 0)
(0.157645 0 0)
(0.159552 0 0)
(0.161459 0 0)
(0.163365 0 0)
(0.165271 0 0)
(0.167177 0 0)
(0.169083 0 0)
(0.170989 0 0)
(0.172895 0 0)
(0.1748 0 0)
(0.176706 0 0)
(0.178611 0 0)
(0.180516 0 0)
(0.182421 0 0)
(0.184325 0 0)
(0.18623 0 0)
(0.188134 0 0)
(0.190038 0 0)
(0.191942 0 0)
(0.193846 0 0)
(0.195749 0 0)
(0.197653 0 0)
(0.199556 0 0)
(0.201459 0 0)
(0.203362 0 0)
(0.205264 0 0)
(0.207167 0 0)
(0.209069 0 0)
(0.210971 0 0)
(0.212873 0 0)
(0.214775 0 0)
(0.216676 0 0)
(0.218577 0 0)
(0.220478 0 0)
(0.222379 0 0)
(0.224279 0 0)
(0.22618 0 0)
(0.22808 0 0)
(0.22998 0 0)
(0.231879 0 0)
(0.233779 0 0)
(0.235678 0 0)
(0.237577 0 0)
(0.239476 0 0)
(0.241374 0 0)
(0.243273 0 0)
(0.245171 0 0)
(0.247068 0 0)
(0.248966 0 0)
(0.250863 0 0)
(0.25276 0 0)
(0.254657 0 0)
(0.256554 0 0)
(0.25845 0 0)
(0.260346 0 0)
(0.262242 0 0)
(0.264138 0 0)
(0.266033 0 0)
(0.267928 0 0)
(0.269823 0 0)
(0.271717 0 0)
(0.273611 0 0)
(0.275505 0 0)
(0.277399 0 0)
(0.279292 0 0)
(0.281186 0 0)
(0.283078 0 0)
(0.284971 0 0)
(0.286863 0 0)
(0.288755 0 0)
(0.290647 0 0)
(0.292538 0 0)
(0.294429 0 0)
(0.29632 0 0)
(0.298211 0 0)
(0.300101 0 0)
(0.301991 0 0)
(0.30388 0 0)
(0.30577 0 0)
(0.307659 0 0)
(0.309547 0 0)
(0.311436 0 0)
(0.313324 0 0)
(0.315211 0 0)
(0.317099 0 0)
(0.318986 0 0)
(0.320872 0 0)
(0.322759 0 0)
(0.324645 0 0)
(0.326531 0 0)
(0.328416 0 0)
(0.330301 0 0)
(0.332186 0 0)
(0.33407 0 0)
(0.335954 0 0)
(0.337838 0 0)
(0.339721 0 0)
(0.341604 0 0)
(0.343486 0 0)
(0.345369 0 0)
(0.347251 0 0)
(0.349132 0 0)
(0.351013 0 0)
(0.352894 0 0)
(0.354774 0 0)
(0.356654 0 0)
(0.358534 0 0)
(0.360413 0 0)
(0.362292 0 0)
(0.364171 0 0)
(0.366049 0 0)
(0.367926 0 0)
(0.369804 0 0)
(0.37168 0 0)
(0.373557 0 0)
(0.375433 0 0)
(0.377309 0 0)
(0.379184 0 0)
(0.381059 0 0)
(0.382933 0 0)
(0.384807 0 0)
(0.386681 0 0)
(0.388554 0 0)
(0.390427 0 0)
(0.392299 0 0)
(0.394171 0 0)
(0.396043 0 0)
(0.397914 0 0)
(0.399784 0 0)
(0.401654 0 0)
(0.403524 0 0)
(0.405393 0 0)
(0.407262 0 0)
(0.409131 0 0)
(0.410999 0 0)
(0.412866 0 0)
(0.414733 0 0)
(0.416599 0 0)
(0.418465 0 0)
(0.420331 0 0)
(0.422196 0 0)
(0.424061 0 0)
(0.425925 0 0)
(0.427788 0 0)
(0.429652 0 0)
(0.431514 0 0)
(0.433376 0 0)
(0.435238 0 0)
(0.437099 0 0)
(0.43896 0 0)
(0.44082 0 0)
(0.44268 0 0)
(0.444539 0 0)
(0.446397 0 0)
(0.448256 0 0)
(0.450113 0 0)
(0.45197 0 0)
(0.453827 0 0)
(0.455683 0 0)
(0.457538 0 0)
(0.459393 0 0)
(0.461247 0 0)
(0.463101 0 0)
(0.464954 0 0)
(0.466807 0 0)
(0.468659 0 0)
(0.470511 0 0)
(0.472362 0 0)
(0.474212 0 0)
(0.476062 0 0)
(0.477911 0 0)
(0.47976 0 0)
(0.481608 0 0)
(0.483455 0 0)
(0.485302 0 0)
(0.487149 0 0)
(0.488994 0 0)
(0.49084 0 0)
(0.492684 0 0)
(0.494528 0 0)
(0.496371 0 0)
(0.498214 0 0)
(0.500056 0 0)
(0.501897 0 0)
(0.503738 0 0)
(0.505578 0 0)
(0.507418 0 0)
(0.509257 0 0)
(0.511095 0 0)
(0.512933 0 0)
(0.51477 0 0)
(0.516606 0 0)
(0.518441 0 0)
(0.520276 0 0)
(0.522111 0 0)
(0.523944 0 0)
(0.525777 0 0)
(0.527609 0 0)
(0.529441 0 0)
(0.531272 0 0)
(0.533102 0 0)
(0.534931 0 0)
(0.53676 0 0)
(0.538588 0 0)
(0.540415 0 0)
(0.542242 0 0)
(0.544068 0 0)
(0.545893 0 0)
(0.547717 0 0)
(0.549541 0 0)
(0.551364 0 0)
(0.553186 0 0)
(0.555007 0 0)
(0.556828 0 0)
(0.558648 0 0)
(0.560467 0 0)
(0.562285 0 0)
(0.564103 0 0)
(0.565919 0 0)
(0.567735 0 0)
(0.569551 0 0)
(0.571365 0 0)
(0.573178 0 0)
(0.574991 0 0)
(0.576803 0 0)
(0.578614 0 0)
(0.580425 0 0)
(0.582234 0 0)
(0.584043 0 0)
(0.585851 0 0)
(0.587657 0 0)
(0.589464 0 0)
(0.591269 0 0)
(0.593073 0 0)
(0.594877 0 0)
(0.596679 0 0)
(0.598481 0 0)
(0.600282 0 0)
(0.602082 0 0)
(0.603881 0 0)
(0.605679 0 0)
(0.607476 0 0)
(0.609273 0 0)
(0.611068 0 0)
(0.612862 0 0)
(0.614656 0 0)
(0.616449 0 0)
(0.61824 0 0)
(0.620031 0 0)
(0.621821 0 0)
(0.623609 0 0)
(0.625397 0 0)
(0.627184 0 0)
(0.62897 0 0)
(0.630755 0 0)
(0.632538 0 0)
(0.634321 0 0)
(0.636103 0 0)
(0.637884 0 0)
(0.639664 0 0)
(0.641442 0 0)
(0.64322 0 0)
(0.644997 0 0)
(0.646772 0 0)
(0.648547 0 0)
(0.65032 0 0)
(0.652092 0 0)
(0.653864 0 0)
(0.655634 0 0)
(0.657403 0 0)
(0.659171 0 0)
(0.660938 0 0)
(0.662703 0 0)
(0.664468 0 0)
(0.666231 0 0)
(0.667994 0 0)
(0.669755 0 0)
(0.671515 0 0)
(0.673273 0 0)
(0.675031 0 0)
(0.676787 0 0)
(0.678543 0 0)
(0.680297 0 0)
(0.682049 0 0)
(0.683801 0 0)
(0.685551 0 0)
(0.6873 0 0)
(0.689048 0 0)
(0.690795 0 0)
(0.69254 0 0)
(0.694284 0 0)
(0.696027 0 0)
(0.697768 0 0)
(0.699508 0 0)
(0.701247 0 0)
(0.702984 0 0)
(0.70472 0 0)
(0.706455 0 0)
(0.708188 0 0)
(0.70992 0 0)
(0.711651 0 0)
(0.71338 0 0)
(0.715108 0 0)
(0.716835 0 0)
(0.71856 0 0)
(0.720283 0 0)
(0.722005 0 0)
(0.723726 0 0)
(0.725445 0 0)
(0.727163 0 0)
(0.728879 0 0)
(0.730594 0 0)
(0.732307 0 0)
(0.734015 0 0)
(0.73564 0 0)
(0.735243 0 0)
(0.692409 0 0)
(0.344163 0 0)
(-0.342979 0 0)
(-0.692156 0 0)
(-0.735227 0 0)
(-0.735637 0 0)
(-0.734013 0 0)
(-0.732304 0 0)
(-0.730591 0 0)
(-0.728877 0 0)
(-0.72716 0 0)
(-0.725443 0 0)
(-0.723724 0 0)
(-0.722003 0 0)
(-0.720281 0 0)
(-0.718557 0 0)
(-0.716832 0 0)
(-0.715106 0 0)
(-0.713378 0 0)
(-0.711649 0 0)
(-0.709918 0 0)
(-0.708186 0 0)
(-0.706453 0 0)
(-0.704718 0 0)
(-0.702982 0 0)
(-0.701245 0 0)
(-0.699506 0 0)
(-0.697766 0 0)
(-0.696024 0 0)
(-0.694282 0 0)
(-0.692538 0 0)
(-0.690792 0 0)
(-0.689046 0 0)
(-0.687298 0 0)
(-0.685549 0 0)
(-0.683799 0 0)
(-0.682047 0 0)
(-0.680294 0 0)
(-0.67854 0 0)
(-0.676785 0 0)
(-0.675029 0 0)
(-0.673271 0 0)
(-0.671513 0 0)
(-0.669753 0 0)
(-0.667991 0 0)
(-0.666229 0 0)
(-0.664466 0 0)
(-0.662701 0 0)
(-0.660936 0 0)
(-0.659169 0 0)
(-0.657401 0 0)
(-0.655632 0 0)
(-0.653862 0 0)
(-0.65209 0 0)
(-0.650318 0 0)
(-0.648545 0 0)
(-0.64677 0 0)
(-0.644995 0 0)
(-0.643218 0 0)
(-0.64144 0 0)
(-0.639662 0 0)
(-0.637882 0 0)
(-0.636101 0 0)
(-0.634319 0 0)
(-0.632536 0 0)
(-0.630753 0 0)
(-0.628968 0 0)
(-0.627182 0 0)
(-0.625395 0 0)
(-0.623607 0 0)
(-0.621819 0 0)
(-0.620029 0 0)
(-0.618238 0 0)
(-0.616447 0 0)
(-0.614654 0 0)
(-0.612861 0 0)
(-0.611066 0 0)
(-0.609271 0 0)
(-0.607474 0 0)
(-0.605677 0 0)
(-0.603879 0 0)
(-0.60208 0 0)
(-0.60028 0 0)
(-0.598479 0 0)
(-0.596677 0 0)
(-0.594875 0 0)
(-0.593071 0 0)
(-0.591267 0 0)
(-0.589462 0 0)
(-0.587656 0 0)
(-0.585849 0 0)
(-0.584041 0 0)
(-0.582232 0 0)
(-0.580423 0 0)
(-0.578613 0 0)
(-0.576801 0 0)
(-0.57499 0 0)
(-0.573177 0 0)
(-0.571363 0 0)
(-0.569549 0 0)
(-0.567734 0 0)
(-0.565918 0 0)
(-0.564101 0 0)
(-0.562283 0 0)
(-0.560465 0 0)
(-0.558646 0 0)
(-0.556826 0 0)
(-0.555006 0 0)
(-0.553184 0 0)
(-0.551362 0 0)
(-0.549539 0 0)
(-0.547716 0 0)
(-0.545891 0 0)
(-0.544066 0 0)
(-0.54224 0 0)
(-0.540414 0 0)
(-0.538586 0 0)
(-0.536758 0 0)
(-0.53493 0 0)
(-0.5331 0 0)
(-0.53127 0 0)
(-0.529439 0 0)
(-0.527608 0 0)
(-0.525776 0 0)
(-0.523943 0 0)
(-0.522109 0 0)
(-0.520275 0 0)
(-0.51844 0 0)
(-0.516604 0 0)
(-0.514768 0 0)
(-0.512931 0 0)
(-0.511094 0 0)
(-0.509255 0 0)
(-0.507417 0 0)
(-0.505577 0 0)
(-0.503737 0 0)
(-0.501896 0 0)
(-0.500055 0 0)
(-0.498213 0 0)
(-0.49637 0 0)
(-0.494527 0 0)
(-0.492683 0 0)
(-0.490838 0 0)
(-0.488993 0 0)
(-0.487147 0 0)
(-0.485301 0 0)
(-0.483454 0 0)
(-0.481607 0 0)
(-0.479759 0 0)
(-0.47791 0 0)
(-0.476061 0 0)
(-0.474211 0 0)
(-0.47236 0 0)
(-0.470509 0 0)
(-0.468658 0 0)
(-0.466806 0 0)
(-0.464953 0 0)
(-0.4631 0 0)
(-0.461246 0 0)
(-0.459392 0 0)
(-0.457537 0 0)
(-0.455681 0 0)
(-0.453825 0 0)
(-0.451969 0 0)
(-0.450112 0 0)
(-0.448254 0 0)
(-0.446396 0 0)
(-0.444538 0 0)
(-0.442679 0 0)
(-0.440819 0 0)
(-0.438959 0 0)
(-0.437098 0 0)
(-0.435237 0 0)
(-0.433375 0 0)
(-0.431513 0 0)
(-0.429651 0 0)
(-0.427787 0 0)
(-0.425924 0 0)
(-0.42406 0 0)
(-0.422195 0 0)
(-0.42033 0 0)
(-0.418464 0 0)
(-0.416598 0 0)
(-0.414732 0 0)
(-0.412865 0 0)
(-0.410998 0 0)
(-0.40913 0 0)
(-0.407261 0 0)
(-0.405393 0 0)
(-0.403523 0 0)
(-0.401654 0 0)
(-0.399783 0 0)
(-0.397913 0 0)
(-0.396042 0 0)
(-0.39417 0 0)
(-0.392298 0 0)
(-0.390426 0 0)
(-0.388553 0 0)
(-0.38668 0 0)
(-0.384807 0 0)
(-0.382933 0 0)
(-0.381058 0 0)
(-0.379183 0 0)
(-0.377308 0 0)
(-0.375432 0 0)
(-0.373556 0 0)
(-0.37168 0 0)
(-0.369803 0 0)
(-0.367926 0 0)
(-0.366048 0 0)
(-0.36417 0 0)
(-0.362291 0 0)
(-0.360412 0 0)
(-0.358533 0 0)
(-0.356654 0 0)
(-0.354774 0 0)
(-0.352893 0 0)
(-0.351012 0 0)
(-0.349131 0 0)
(-0.34725 0 0)
(-0.345368 0 0)
(-0.343486 0 0)
(-0.341603 0 0)
(-0.33972 0 0)
(-0.337837 0 0)
(-0.335953 0 0)
(-0.334069 0 0)
(-0.332185 0 0)
(-0.3303 0 0)
(-0.328415 0 0)
(-0.32653 0 0)
(-0.324644 0 0)
(-0.322758 0 0)
(-0.320872 0 0)
(-0.318985 0 0)
(-0.317098 0 0)
(-0.315211 0 0)
(-0.313323 0 0)
(-0.311435 0 0)
(-0.309547 0 0)
(-0.307658 0 0)
(-0.305769 0 0)
(-0.30388 0 0)
(-0.30199 0 0)
(-0.3001 0 0)
(-0.29821 0 0)
(-0.29632 0 0)
(-0.294429 0 0)
(-0.292538 0 0)
(-0.290646 0 0)
(-0.288755 0 0)
(-0.286863 0 0)
(-0.28497 0 0)
(-0.283078 0 0)
(-0.281185 0 0)
(-0.279292 0 0)
(-0.277399 0 0)
(-0.275505 0 0)
(-0.273611 0 0)
(-0.271717 0 0)
(-0.269822 0 0)
(-0.267927 0 0)
(-0.266032 0 0)
(-0.264137 0 0)
(-0.262242 0 0)
(-0.260346 0 0)
(-0.25845 0 0)
(-0.256553 0 0)
(-0.254657 0 0)
(-0.25276 0 0)
(-0.250863 0 0)
(-0.248966 0 0)
(-0.247068 0 0)
(-0.24517 0 0)
(-0.243272 0 0)
(-0.241374 0 0)
(-0.239475 0 0)
(-0.237577 0 0)
(-0.235678 0 0)
(-0.233779 0 0)
(-0.231879 0 0)
(-0.229979 0 0)
(-0.22808 0 0)
(-0.226179 0 0)
(-0.224279 0 0)
(-0.222379 0 0)
(-0.220478 0 0)
(-0.218577 0 0)
(-0.216676 0 0)
(-0.214774 0 0)
(-0.212873 0 0)
(-0.210971 0 0)
(-0.209069 0 0)
(-0.207167 0 0)
(-0.205264 0 0)
(-0.203362 0 0)
(-0.201459 0 0)
(-0.199556 0 0)
(-0.197653 0 0)
(-0.195749 0 0)
(-0.193846 0 0)
(-0.191942 0 0)
(-0.190038 0 0)
(-0.188134 0 0)
(-0.18623 0 0)
(-0.184325 0 0)
(-0.18242 0 0)
(-0.180516 0 0)
(-0.178611 0 0)
(-0.176706 0 0)
(-0.1748 0 0)
(-0.172895 0 0)
(-0.170989 0 0)
(-0.169083 0 0)
(-0.167177 0 0)
(-0.165271 0 0)
(-0.163365 0 0)
(-0.161458 0 0)
(-0.159552 0 0)
(-0.157645 0 0)
(-0.155738 0 0)
(-0.153831 0 0)
(-0.151924 0 0)
(-0.150017 0 0)
(-0.148109 0 0)
(-0.146202 0 0)
(-0.144294 0 0)
(-0.142386 0 0)
(-0.140478 0 0)
(-0.13857 0 0)
(-0.136662 0 0)
(-0.134753 0 0)
(-0.132845 0 0)
(-0.130936 0 0)
(-0.129027 0 0)
(-0.127118 0 0)
(-0.125209 0 0)
(-0.1233 0 0)
(-0.121391 0 0)
(-0.119482 0 0)
(-0.117572 0 0)
(-0.115663 0 0)
(-0.113753 0 0)
(-0.111843 0 0)
(-0.109933 0 0)
(-0.108023 0 0)
(-0.106113 0 0)
(-0.104203 0 0)
(-0.102293 0 0)
(-0.100382 0 0)
(-0.0984718 0 0)
(-0.0965613 0 0)
(-0.0946506 0 0)
(-0.0927399 0 0)
(-0.0908291 0 0)
(-0.0889182 0 0)
(-0.0870072 0 0)
(-0.0850961 0 0)
(-0.0831849 0 0)
(-0.0812737 0 0)
(-0.0793624 0 0)
(-0.077451 0 0)
(-0.0755396 0 0)
(-0.0736281 0 0)
(-0.0717165 0 0)
(-0.0698048 0 0)
(-0.0678931 0 0)
(-0.0659814 0 0)
(-0.0640695 0 0)
(-0.0621576 0 0)
(-0.0602457 0 0)
(-0.0583337 0 0)
(-0.0564216 0 0)
(-0.0545095 0 0)
(-0.0525973 0 0)
(-0.0506851 0 0)
(-0.0487729 0 0)
(-0.0468605 0 0)
(-0.0449482 0 0)
(-0.0430358 0 0)
(-0.0411234 0 0)
(-0.0392109 0 0)
(-0.0372984 0 0)
(-0.0353859 0 0)
(-0.0334733 0 0)
(-0.0315607 0 0)
(-0.0296481 0 0)
(-0.0277354 0 0)
(-0.0258228 0 0)
(-0.0239101 0 0)
(-0.0219973 0 0)
(-0.0200846 0 0)
(-0.0181718 0 0)
(-0.0162591 0 0)
(-0.0143463 0 0)
(-0.0124334 0 0)
(-0.0105206 0 0)
(-0.0086078 0 0)
(-0.00669496 0 0)
(-0.00478212 0 0)
(-0.00286928 0 0)
(-0.000956425 0 0)
)
;

boundaryField
{
    left
    {
        type            fixedValue;
        value           uniform (0 0 0);
    }
    right
    {
        type            fixedValue;
        value           uniform (0 0 0);
    }
    frontBackUpDown
    {
        type            empty;
    }
}


// ************************************************************************* //
