/*--------------------------------*- C++ -*----------------------------------*\
| =========                 |                                                 |
| \\      /  F ield         | OpenFOAM: The Open Source CFD Toolbox           |
|  \\    /   O peration     | Version:  2412                                  |
|   \\  /    A nd           | Website:  www.openfoam.com                      |
|    \\/     M anipulation  |                                                 |
\*---------------------------------------------------------------------------*/
FoamFile
{
    version     2.0;
    format      ascii;
    arch        "LSB;label=32;scalar=64";
    class       volVectorField;
    location    "0.99";
    object      U_0_0_0;
}
// * * * * * * * * * * * * * * * * * * * * * * * * * * * * * * * * * * * * * //

dimensions      [0 1 -1 0 0 0 0];

internalField   nonuniform List<vector> 
800
(
(0.000957515 0 0)
(0.00287256 0 0)
(0.0047876 0 0)
(0.00670263 0 0)
(0.00861766 0 0)
(0.0105327 0 0)
(0.0124477 0 0)
(0.0143627 0 0)
(0.0162777 0 0)
(0.0181927 0 0)
(0.0201076 0 0)
(0.0220226 0 0)
(0.0239375 0 0)
(0.0258524 0 0)
(0.0277672 0 0)
(0.0296821 0 0)
(0.0315969 0 0)
(0.0335117 0 0)
(0.0354265 0 0)
(0.0373412 0 0)
(0.0392559 0 0)
(0.0411705 0 0)
(0.0430852 0 0)
(0.0449997 0 0)
(0.0469143 0 0)
(0.0488288 0 0)
(0.0507432 0 0)
(0.0526576 0 0)
(0.054572 0 0)
(0.0564863 0 0)
(0.0584005 0 0)
(0.0603147 0 0)
(0.0622289 0 0)
(0.064143 0 0)
(0.066057 0 0)
(0.0679709 0 0)
(0.0698849 0 0)
(0.0717987 0 0)
(0.0737125 0 0)
(0.0756262 0 0)
(0.0775398 0 0)
(0.0794534 0 0)
(0.0813669 0 0)
(0.0832803 0 0)
(0.0851936 0 0)
(0.0871069 0 0)
(0.08902 0 0)
(0.0909331 0 0)
(0.0928462 0 0)
(0.0947591 0 0)
(0.0966719 0 0)
(0.0985847 0 0)
(0.100497 0 0)
(0.10241 0 0)
(0.104322 0 0)
(0.106235 0 0)
(0.108147 0 0)
(0.110059 0 0)
(0.111971 0 0)
(0.113883 0 0)
(0.115795 0 0)
(0.117707 0 0)
(0.119618 0 0)
(0.12153 0 0)
(0.123441 0 0)
(0.125353 0 0)
(0.127264 0 0)
(0.129175 0 0)
(0.131086 0 0)
(0.132997 0 0)
(0.134907 0 0)
(0.136818 0 0)
(0.138728 0 0)
(0.140639 0 0)
(0.142549 0 0)
(0.144459 0 0)
(0.146369 0 0)
(0.148279 0 0)
(0.150188 0 0)
(0.152098 0 0)
(0.154007 0 0)
(0.155916 0 0)
(0.157825 0 0)
(0.159734 0 0)
(0.161643 0 0)
(0.163552 0 0)
(0.16546 0 0)
(0.167368 0 0)
(0.169277 0 0)
(0.171185 0 0)
(0.173092 0 0)
(0.175 0 0)
(0.176908 0 0)
(0.178815 0 0)
(0.180722 0 0)
(0.182629 0 0)
(0.184536 0 0)
(0.186442 0 0)
(0.188349 0 0)
(0.190255 0 0)
(0.192161 0 0)
(0.194067 0 0)
(0.195973 0 0)
(0.197878 0 0)
(0.199784 0 0)
(0.201689 0 0)
(0.203594 0 0)
(0.205499 0 0)
(0.207403 0 0)
(0.209307 0 0)
(0.211212 0 0)
(0.213116 0 0)
(0.215019 0 0)
(0.216923 0 0)
(0.218826 0 0)
(0.220729 0 0)
(0.222632 0 0)
(0.224535 0 0)
(0.226437 0 0)
(0.22834 0 0)
(0.230242 0 0)
(0.232143 0 0)
(0.234045 0 0)
(0.235946 0 0)
(0.237847 0 0)
(0.239748 0 0)
(0.241649 0 0)
(0.243549 0 0)
(0.24545 0 0)
(0.247349 0 0)
(0.249249 0 0)
(0.251149 0 0)
(0.253048 0 0)
(0.254947 0 0)
(0.256845 0 0)
(0.258744 0 0)
(0.260642 0 0)
(0.26254 0 0)
(0.264438 0 0)
(0.266335 0 0)
(0.268232 0 0)
(0.270129 0 0)
(0.272026 0 0)
(0.273922 0 0)
(0.275818 0 0)
(0.277714 0 0)
(0.279609 0 0)
(0.281505 0 0)
(0.283399 0 0)
(0.285294 0 0)
(0.287189 0 0)
(0.289083 0 0)
(0.290976 0 0)
(0.29287 0 0)
(0.294763 0 0)
(0.296656 0 0)
(0.298549 0 0)
(0.300441 0 0)
(0.302333 0 0)
(0.304224 0 0)
(0.306116 0 0)
(0.308007 0 0)
(0.309898 0 0)
(0.311788 0 0)
(0.313678 0 0)
(0.315568 0 0)
(0.317457 0 0)
(0.319346 0 0)
(0.321235 0 0)
(0.323124 0 0)
(0.325012 0 0)
(0.3269 0 0)
(0.328787 0 0)
(0.330674 0 0)
(0.332561 0 0)
(0.334447 0 0)
(0.336333 0 0)
(0.338219 0 0)
(0.340104 0 0)
(0.341989 0 0)
(0.343874 0 0)
(0.345758 0 0)
(0.347642 0 0)
(0.349526 0 0)
(0.351409 0 0)
(0.353292 0 0)
(0.355174 0 0)
(0.357056 0 0)
(0.358938 0 0)
(0.360819 0 0)
(0.3627 0 0)
(0.364581 0 0)
(0.366461 0 0)
(0.36834 0 0)
(0.37022 0 0)
(0.372099 0 0)
(0.373977 0 0)
(0.375855 0 0)
(0.377733 0 0)
(0.37961 0 0)
(0.381487 0 0)
(0.383364 0 0)
(0.38524 0 0)
(0.387115 0 0)
(0.38899 0 0)
(0.390865 0 0)
(0.39274 0 0)
(0.394613 0 0)
(0.396487 0 0)
(0.39836 0 0)
(0.400233 0 0)
(0.402105 0 0)
(0.403976 0 0)
(0.405848 0 0)
(0.407718 0 0)
(0.409589 0 0)
(0.411459 0 0)
(0.413328 0 0)
(0.415197 0 0)
(0.417065 0 0)
(0.418933 0 0)
(0.420801 0 0)
(0.422668 0 0)
(0.424535 0 0)
(0.426401 0 0)
(0.428266 0 0)
(0.430131 0 0)
(0.431996 0 0)
(0.43386 0 0)
(0.435724 0 0)
(0.437587 0 0)
(0.439449 0 0)
(0.441312 0 0)
(0.443173 0 0)
(0.445034 0 0)
(0.446895 0 0)
(0.448755 0 0)
(0.450614 0 0)
(0.452473 0 0)
(0.454332 0 0)
(0.456189 0 0)
(0.458047 0 0)
(0.459904 0 0)
(0.46176 0 0)
(0.463616 0 0)
(0.465471 0 0)
(0.467325 0 0)
(0.469179 0 0)
(0.471033 0 0)
(0.472886 0 0)
(0.474738 0 0)
(0.47659 0 0)
(0.478441 0 0)
(0.480291 0 0)
(0.482141 0 0)
(0.483991 0 0)
(0.48584 0 0)
(0.487688 0 0)
(0.489535 0 0)
(0.491382 0 0)
(0.493229 0 0)
(0.495075 0 0)
(0.49692 0 0)
(0.498764 0 0)
(0.500608 0 0)
(0.502451 0 0)
(0.504294 0 0)
(0.506136 0 0)
(0.507977 0 0)
(0.509818 0 0)
(0.511658 0 0)
(0.513498 0 0)
(0.515336 0 0)
(0.517174 0 0)
(0.519012 0 0)
(0.520849 0 0)
(0.522685 0 0)
(0.52452 0 0)
(0.526355 0 0)
(0.528189 0 0)
(0.530022 0 0)
(0.531855 0 0)
(0.533687 0 0)
(0.535518 0 0)
(0.537348 0 0)
(0.539178 0 0)
(0.541007 0 0)
(0.542835 0 0)
(0.544663 0 0)
(0.54649 0 0)
(0.548316 0 0)
(0.550141 0 0)
(0.551966 0 0)
(0.55379 0 0)
(0.555613 0 0)
(0.557435 0 0)
(0.559257 0 0)
(0.561078 0 0)
(0.562898 0 0)
(0.564717 0 0)
(0.566536 0 0)
(0.568353 0 0)
(0.57017 0 0)
(0.571986 0 0)
(0.573802 0 0)
(0.575616 0 0)
(0.57743 0 0)
(0.579242 0 0)
(0.581054 0 0)
(0.582866 0 0)
(0.584676 0 0)
(0.586485 0 0)
(0.588294 0 0)
(0.590102 0 0)
(0.591909 0 0)
(0.593715 0 0)
(0.59552 0 0)
(0.597324 0 0)
(0.599127 0 0)
(0.60093 0 0)
(0.602731 0 0)
(0.604532 0 0)
(0.606332 0 0)
(0.608131 0 0)
(0.609929 0 0)
(0.611726 0 0)
(0.613522 0 0)
(0.615317 0 0)
(0.617111 0 0)
(0.618904 0 0)
(0.620696 0 0)
(0.622488 0 0)
(0.624278 0 0)
(0.626067 0 0)
(0.627856 0 0)
(0.629643 0 0)
(0.631429 0 0)
(0.633215 0 0)
(0.634999 0 0)
(0.636782 0 0)
(0.638565 0 0)
(0.640346 0 0)
(0.642126 0 0)
(0.643905 0 0)
(0.645683 0 0)
(0.64746 0 0)
(0.649236 0 0)
(0.651011 0 0)
(0.652785 0 0)
(0.654558 0 0)
(0.656329 0 0)
(0.6581 0 0)
(0.659869 0 0)
(0.661638 0 0)
(0.663405 0 0)
(0.665171 0 0)
(0.666935 0 0)
(0.668699 0 0)
(0.670462 0 0)
(0.672223 0 0)
(0.673983 0 0)
(0.675742 0 0)
(0.6775 0 0)
(0.679256 0 0)
(0.681012 0 0)
(0.682766 0 0)
(0.684519 0 0)
(0.68627 0 0)
(0.688021 0 0)
(0.68977 0 0)
(0.691518 0 0)
(0.693264 0 0)
(0.69501 0 0)
(0.696754 0 0)
(0.698496 0 0)
(0.700238 0 0)
(0.701978 0 0)
(0.703716 0 0)
(0.705454 0 0)
(0.70719 0 0)
(0.708924 0 0)
(0.710657 0 0)
(0.712389 0 0)
(0.71412 0 0)
(0.715849 0 0)
(0.717576 0 0)
(0.719302 0 0)
(0.721027 0 0)
(0.72275 0 0)
(0.724472 0 0)
(0.726193 0 0)
(0.727911 0 0)
(0.729629 0 0)
(0.731344 0 0)
(0.733059 0 0)
(0.734768 0 0)
(0.736397 0 0)
(0.736036 0 0)
(0.693408 0 0)
(0.344868 0 0)
(-0.343683 0 0)
(-0.693157 0 0)
(-0.73602 0 0)
(-0.736394 0 0)
(-0.734766 0 0)
(-0.733056 0 0)
(-0.731342 0 0)
(-0.729626 0 0)
(-0.727909 0 0)
(-0.72619 0 0)
(-0.72447 0 0)
(-0.722748 0 0)
(-0.721025 0 0)
(-0.7193 0 0)
(-0.717574 0 0)
(-0.715846 0 0)
(-0.714117 0 0)
(-0.712387 0 0)
(-0.710655 0 0)
(-0.708922 0 0)
(-0.707187 0 0)
(-0.705451 0 0)
(-0.703714 0 0)
(-0.701975 0 0)
(-0.700235 0 0)
(-0.698494 0 0)
(-0.696751 0 0)
(-0.695007 0 0)
(-0.693262 0 0)
(-0.691516 0 0)
(-0.689768 0 0)
(-0.688019 0 0)
(-0.686268 0 0)
(-0.684517 0 0)
(-0.682764 0 0)
(-0.68101 0 0)
(-0.679254 0 0)
(-0.677498 0 0)
(-0.67574 0 0)
(-0.673981 0 0)
(-0.672221 0 0)
(-0.67046 0 0)
(-0.668697 0 0)
(-0.666933 0 0)
(-0.665169 0 0)
(-0.663403 0 0)
(-0.661635 0 0)
(-0.659867 0 0)
(-0.658098 0 0)
(-0.656327 0 0)
(-0.654556 0 0)
(-0.652783 0 0)
(-0.651009 0 0)
(-0.649234 0 0)
(-0.647458 0 0)
(-0.645681 0 0)
(-0.643903 0 0)
(-0.642124 0 0)
(-0.640344 0 0)
(-0.638563 0 0)
(-0.63678 0 0)
(-0.634997 0 0)
(-0.633213 0 0)
(-0.631427 0 0)
(-0.629641 0 0)
(-0.627854 0 0)
(-0.626065 0 0)
(-0.624276 0 0)
(-0.622486 0 0)
(-0.620694 0 0)
(-0.618902 0 0)
(-0.617109 0 0)
(-0.615315 0 0)
(-0.61352 0 0)
(-0.611724 0 0)
(-0.609927 0 0)
(-0.608129 0 0)
(-0.60633 0 0)
(-0.60453 0 0)
(-0.60273 0 0)
(-0.600928 0 0)
(-0.599126 0 0)
(-0.597322 0 0)
(-0.595518 0 0)
(-0.593713 0 0)
(-0.591907 0 0)
(-0.5901 0 0)
(-0.588292 0 0)
(-0.586484 0 0)
(-0.584674 0 0)
(-0.582864 0 0)
(-0.581053 0 0)
(-0.579241 0 0)
(-0.577428 0 0)
(-0.575614 0 0)
(-0.5738 0 0)
(-0.571985 0 0)
(-0.570169 0 0)
(-0.568352 0 0)
(-0.566534 0 0)
(-0.564716 0 0)
(-0.562896 0 0)
(-0.561076 0 0)
(-0.559255 0 0)
(-0.557434 0 0)
(-0.555611 0 0)
(-0.553788 0 0)
(-0.551964 0 0)
(-0.55014 0 0)
(-0.548314 0 0)
(-0.546488 0 0)
(-0.544661 0 0)
(-0.542834 0 0)
(-0.541006 0 0)
(-0.539176 0 0)
(-0.537347 0 0)
(-0.535516 0 0)
(-0.533685 0 0)
(-0.531853 0 0)
(-0.530021 0 0)
(-0.528187 0 0)
(-0.526353 0 0)
(-0.524519 0 0)
(-0.522683 0 0)
(-0.520847 0 0)
(-0.51901 0 0)
(-0.517173 0 0)
(-0.515335 0 0)
(-0.513496 0 0)
(-0.511657 0 0)
(-0.509817 0 0)
(-0.507976 0 0)
(-0.506135 0 0)
(-0.504293 0 0)
(-0.50245 0 0)
(-0.500607 0 0)
(-0.498763 0 0)
(-0.496918 0 0)
(-0.495073 0 0)
(-0.493227 0 0)
(-0.491381 0 0)
(-0.489534 0 0)
(-0.487687 0 0)
(-0.485838 0 0)
(-0.48399 0 0)
(-0.48214 0 0)
(-0.48029 0 0)
(-0.47844 0 0)
(-0.476588 0 0)
(-0.474737 0 0)
(-0.472884 0 0)
(-0.471032 0 0)
(-0.469178 0 0)
(-0.467324 0 0)
(-0.46547 0 0)
(-0.463614 0 0)
(-0.461759 0 0)
(-0.459902 0 0)
(-0.458046 0 0)
(-0.456188 0 0)
(-0.45433 0 0)
(-0.452472 0 0)
(-0.450613 0 0)
(-0.448754 0 0)
(-0.446894 0 0)
(-0.445033 0 0)
(-0.443172 0 0)
(-0.44131 0 0)
(-0.439448 0 0)
(-0.437586 0 0)
(-0.435723 0 0)
(-0.433859 0 0)
(-0.431995 0 0)
(-0.43013 0 0)
(-0.428265 0 0)
(-0.4264 0 0)
(-0.424534 0 0)
(-0.422667 0 0)
(-0.4208 0 0)
(-0.418932 0 0)
(-0.417065 0 0)
(-0.415196 0 0)
(-0.413327 0 0)
(-0.411458 0 0)
(-0.409588 0 0)
(-0.407718 0 0)
(-0.405847 0 0)
(-0.403975 0 0)
(-0.402104 0 0)
(-0.400232 0 0)
(-0.398359 0 0)
(-0.396486 0 0)
(-0.394613 0 0)
(-0.392739 0 0)
(-0.390864 0 0)
(-0.38899 0 0)
(-0.387114 0 0)
(-0.385239 0 0)
(-0.383363 0 0)
(-0.381486 0 0)
(-0.379609 0 0)
(-0.377732 0 0)
(-0.375854 0 0)
(-0.373976 0 0)
(-0.372098 0 0)
(-0.370219 0 0)
(-0.36834 0 0)
(-0.36646 0 0)
(-0.36458 0 0)
(-0.362699 0 0)
(-0.360818 0 0)
(-0.358937 0 0)
(-0.357055 0 0)
(-0.355173 0 0)
(-0.353291 0 0)
(-0.351408 0 0)
(-0.349525 0 0)
(-0.347642 0 0)
(-0.345758 0 0)
(-0.343873 0 0)
(-0.341989 0 0)
(-0.340104 0 0)
(-0.338218 0 0)
(-0.336333 0 0)
(-0.334447 0 0)
(-0.33256 0 0)
(-0.330673 0 0)
(-0.328786 0 0)
(-0.326899 0 0)
(-0.325011 0 0)
(-0.323123 0 0)
(-0.321235 0 0)
(-0.319346 0 0)
(-0.317457 0 0)
(-0.315567 0 0)
(-0.313678 0 0)
(-0.311787 0 0)
(-0.309897 0 0)
(-0.308006 0 0)
(-0.306115 0 0)
(-0.304224 0 0)
(-0.302332 0 0)
(-0.30044 0 0)
(-0.298548 0 0)
(-0.296655 0 0)
(-0.294763 0 0)
(-0.292869 0 0)
(-0.290976 0 0)
(-0.289082 0 0)
(-0.287188 0 0)
(-0.285294 0 0)
(-0.283399 0 0)
(-0.281504 0 0)
(-0.279609 0 0)
(-0.277713 0 0)
(-0.275818 0 0)
(-0.273922 0 0)
(-0.272025 0 0)
(-0.270129 0 0)
(-0.268232 0 0)
(-0.266335 0 0)
(-0.264437 0 0)
(-0.26254 0 0)
(-0.260642 0 0)
(-0.258744 0 0)
(-0.256845 0 0)
(-0.254946 0 0)
(-0.253047 0 0)
(-0.251148 0 0)
(-0.249249 0 0)
(-0.247349 0 0)
(-0.245449 0 0)
(-0.243549 0 0)
(-0.241649 0 0)
(-0.239748 0 0)
(-0.237847 0 0)
(-0.235946 0 0)
(-0.234045 0 0)
(-0.232143 0 0)
(-0.230241 0 0)
(-0.228339 0 0)
(-0.226437 0 0)
(-0.224535 0 0)
(-0.222632 0 0)
(-0.220729 0 0)
(-0.218826 0 0)
(-0.216923 0 0)
(-0.215019 0 0)
(-0.213115 0 0)
(-0.211211 0 0)
(-0.209307 0 0)
(-0.207403 0 0)
(-0.205498 0 0)
(-0.203593 0 0)
(-0.201689 0 0)
(-0.199783 0 0)
(-0.197878 0 0)
(-0.195973 0 0)
(-0.194067 0 0)
(-0.192161 0 0)
(-0.190255 0 0)
(-0.188349 0 0)
(-0.186442 0 0)
(-0.184536 0 0)
(-0.182629 0 0)
(-0.180722 0 0)
(-0.178815 0 0)
(-0.176907 0 0)
(-0.175 0 0)
(-0.173092 0 0)
(-0.171184 0 0)
(-0.169276 0 0)
(-0.167368 0 0)
(-0.16546 0 0)
(-0.163552 0 0)
(-0.161643 0 0)
(-0.159734 0 0)
(-0.157825 0 0)
(-0.155916 0 0)
(-0.154007 0 0)
(-0.152098 0 0)
(-0.150188 0 0)
(-0.148279 0 0)
(-0.146369 0 0)
(-0.144459 0 0)
(-0.142549 0 0)
(-0.140639 0 0)
(-0.138728 0 0)
(-0.136818 0 0)
(-0.134907 0 0)
(-0.132997 0 0)
(-0.131086 0 0)
(-0.129175 0 0)
(-0.127264 0 0)
(-0.125353 0 0)
(-0.123441 0 0)
(-0.12153 0 0)
(-0.119618 0 0)
(-0.117707 0 0)
(-0.115795 0 0)
(-0.113883 0 0)
(-0.111971 0 0)
(-0.110059 0 0)
(-0.108147 0 0)
(-0.106235 0 0)
(-0.104322 0 0)
(-0.10241 0 0)
(-0.100497 0 0)
(-0.0985846 0 0)
(-0.0966719 0 0)
(-0.094759 0 0)
(-0.0928461 0 0)
(-0.0909331 0 0)
(-0.08902 0 0)
(-0.0871068 0 0)
(-0.0851936 0 0)
(-0.0832802 0 0)
(-0.0813668 0 0)
(-0.0794533 0 0)
(-0.0775398 0 0)
(-0.0756261 0 0)
(-0.0737124 0 0)
(-0.0717987 0 0)
(-0.0698848 0 0)
(-0.0679709 0 0)
(-0.066057 0 0)
(-0.0641429 0 0)
(-0.0622288 0 0)
(-0.0603147 0 0)
(-0.0584005 0 0)
(-0.0564863 0 0)
(-0.054572 0 0)
(-0.0526576 0 0)
(-0.0507432 0 0)
(-0.0488287 0 0)
(-0.0469143 0 0)
(-0.0449997 0 0)
(-0.0430851 0 0)
(-0.0411705 0 0)
(-0.0392559 0 0)
(-0.0373412 0 0)
(-0.0354264 0 0)
(-0.0335117 0 0)
(-0.0315969 0 0)
(-0.0296821 0 0)
(-0.0277672 0 0)
(-0.0258524 0 0)
(-0.0239375 0 0)
(-0.0220226 0 0)
(-0.0201076 0 0)
(-0.0181927 0 0)
(-0.0162777 0 0)
(-0.0143627 0 0)
(-0.0124477 0 0)
(-0.0105327 0 0)
(-0.00861767 0 0)
(-0.00670264 0 0)
(-0.0047876 0 0)
(-0.00287256 0 0)
(-0.000957522 0 0)
)
;

boundaryField
{
    left
    {
        type            fixedValue;
        value           uniform (0 0 0);
    }
    right
    {
        type            fixedValue;
        value           uniform (0 0 0);
    }
    frontBackUpDown
    {
        type            empty;
    }
}


// ************************************************************************* //
