/*--------------------------------*- C++ -*----------------------------------*\
| =========                 |                                                 |
| \\      /  F ield         | OpenFOAM: The Open Source CFD Toolbox           |
|  \\    /   O peration     | Version:  2412                                  |
|   \\  /    A nd           | Website:  www.openfoam.com                      |
|    \\/     M anipulation  |                                                 |
\*---------------------------------------------------------------------------*/
FoamFile
{
    version     2.0;
    format      ascii;
    arch        "LSB;label=32;scalar=64";
    class       volScalarField;
    location    "7";
    object      p;
}
// * * * * * * * * * * * * * * * * * * * * * * * * * * * * * * * * * * * * * //

dimensions      [0 2 -2 0 0 0 0];

internalField   nonuniform List<scalar> 
2200
(
0.0957524
0.0958786
0.0966996
0.100167
0.109421
0.129557
0.167705
0.233101
0.337282
0.489528
0.660479
0.802707
0.899813
0.961824
0.997972
1.01756
1.02749
1.03175
1.03345
1.03374
0.0901203
0.0903967
0.0918866
0.0961674
0.105972
0.127001
0.166026
0.231212
0.335452
0.490066
0.662192
0.804999
0.902159
0.963255
0.998325
1.01706
1.02604
1.02954
1.03054
1.03067
0.0821655
0.0823003
0.0843932
0.090052
0.102048
0.124809
0.164525
0.231658
0.336802
0.49269
0.667045
0.811701
0.909204
0.968818
1.00272
1.01987
1.02773
1.03083
1.03159
1.03184
0.0712089
0.0710669
0.0733056
0.0795677
0.092827
0.117533
0.160675
0.23241
0.340652
0.499181
0.675877
0.822472
0.920293
0.97892
1.01155
1.02732
1.03483
1.03831
1.03945
1.03983
0.0580678
0.0580776
0.0598062
0.0650414
0.0784778
0.105864
0.152775
0.227299
0.339992
0.506683
0.688036
0.836197
0.935368
0.994932
1.02615
1.04105
1.04816
1.05194
1.05356
1.05393
0.038729
0.039048
0.0397781
0.0433036
0.0564849
0.0855069
0.136322
0.21548
0.335552
0.510386
0.699455
0.853283
0.953396
1.01209
1.04272
1.05836
1.06673
1.07158
1.07416
1.07466
0.00772324
0.00749948
0.00778776
0.011129
0.0229586
0.0509465
0.103619
0.19093
0.324448
0.512498
0.711363
0.871221
0.973146
1.03241
1.06584
1.08578
1.09691
1.10271
1.10593
1.10681
-0.0251802
-0.0261373
-0.0252636
-0.0194663
-0.00791836
0.015515
0.065957
0.158347
0.302888
0.507495
0.721275
0.890572
1.00137
1.06936
1.10872
1.13267
1.14559
1.15069
1.15371
1.15506
-0.0506721
-0.0518252
-0.0498946
-0.0422893
-0.0312564
-0.0107734
0.0385192
0.129714
0.27672
0.497874
0.732676
0.919756
1.04612
1.12647
1.17558
1.2048
1.21927
1.22466
1.22588
1.22814
-0.0764722
-0.0776094
-0.0749468
-0.0663136
-0.0535748
-0.0296568
0.0195418
0.108764
0.258237
0.494912
0.753559
0.965817
1.11444
1.21252
1.27324
1.3064
1.32225
1.32894
1.32985
1.33236
-0.111147
-0.11219
-0.109755
-0.101932
-0.0850939
-0.0511969
0.00481547
0.097205
0.255366
0.508948
0.796397
1.04119
1.21519
1.33034
1.39706
1.42996
1.44584
1.45463
1.45463
1.45761
-0.16607
-0.166763
-0.164336
-0.157454
-0.135027
-0.0880099
-0.0179427
0.0918546
0.272286
0.547364
0.867524
1.15047
1.34607
1.46841
1.5351
1.56397
1.58027
1.59232
1.59147
1.59453
-0.241702
-0.242623
-0.240983
-0.235224
-0.209352
-0.153392
-0.0630208
0.0817354
0.300135
0.611649
0.972952
1.29135
1.49742
1.61645
1.67935
1.70952
1.72738
1.74011
1.74383
1.74623
-0.341463
-0.342059
-0.338731
-0.33251
-0.304737
-0.243452
-0.134443
0.0488346
0.319754
0.691702
1.10333
1.44525
1.65823
1.77583
1.83916
1.87675
1.89697
1.91019
1.91504
1.91714
-0.462039
-0.463214
-0.460866
-0.452004
-0.422187
-0.360704
-0.237059
-0.0183392
0.31075
0.762034
1.23571
1.60306
1.82933
1.95114
2.02408
2.07248
2.09462
2.10769
2.11411
2.11666
-0.609274
-0.609333
-0.606197
-0.595319
-0.563623
-0.500008
-0.365775
-0.121284
0.263672
0.803873
1.35137
1.7564
2.00795
2.15454
2.24337
2.30073
2.32803
2.34252
2.35193
2.35416
-0.782062
-0.783855
-0.783069
-0.769946
-0.731892
-0.658763
-0.509082
-0.245459
0.184588
0.807059
1.44283
1.91535
2.21955
2.40625
2.51457
2.57843
2.61012
2.62723
2.63901
2.64186
-0.973455
-0.974479
-0.974337
-0.962492
-0.922812
-0.838582
-0.668903
-0.381593
0.0974613
0.794887
1.53413
2.10718
2.48169
2.71595
2.84587
2.91123
2.94741
2.9668
2.97995
2.98325
-1.20009
-1.20023
-1.19862
-1.1855
-1.13699
-1.03604
-0.843562
-0.514704
0.0359053
0.819163
1.67295
2.36465
2.81372
3.0873
3.23422
3.30306
3.3441
3.3656
3.37839
3.38214
-1.47607
-1.4772
-1.4752
-1.46059
-1.40744
-1.27853
-1.04623
-0.646029
0.0126352
0.918937
1.90778
2.71257
3.22091
3.52291
3.68115
3.75645
3.7998
3.82146
3.83429
3.83771
-1.82509
-1.82397
-1.81849
-1.80071
-1.73909
-1.58612
-1.29477
-0.793531
0.0157869
1.09563
2.23711
3.13503
3.69183
4.00539
4.17134
4.25532
4.30275
4.32649
4.33788
4.34124
-2.27584
-2.276
-2.26897
-2.24127
-2.16398
-1.97409
-1.60777
-0.970337
0.0265574
1.31519
2.62969
3.61787
4.21063
4.52272
4.70131
4.79831
4.84793
4.87578
4.89063
4.89299
-2.86477
-2.86165
-2.84959
-2.81429
-2.70456
-2.45963
-1.99853
-1.20356
0.00597078
1.53238
3.04163
4.11539
4.74451
5.08638
5.28293
5.39256
5.4483
5.47974
5.495
5.49752
-3.62023
-3.61528
-3.59419
-3.53093
-3.37035
-3.04529
-2.4573
-1.48761
-0.0560896
1.70763
3.41675
4.61148
5.32085
5.72326
5.93335
6.04591
6.10419
6.13859
6.15774
6.15907
-4.63873
-4.61775
-4.56335
-4.43647
-4.17526
-3.71096
-2.94858
-1.77346
-0.117558
1.87092
3.80438
5.1787
5.99864
6.43986
6.64196
6.75296
6.80651
6.84117
6.86577
6.86646
-5.97002
-5.91379
-5.77946
-5.53741
-5.11657
-4.44736
-3.44961
-1.99626
-0.0645483
2.18377
4.36421
5.91038
6.78203
7.22513
7.41444
7.51601
7.56284
7.5837
7.59488
7.59799
-7.66263
-7.4824
-7.15558
-6.72378
-6.10576
-5.20206
-3.91229
-2.1076
0.178484
2.77382
5.22531
6.90724
7.81283
8.25718
8.47089
8.56599
8.60969
8.63504
8.63377
8.63481
-9.58101
-9.10929
-8.55781
-7.94292
-7.10677
-5.93374
-4.32408
-2.16545
0.494743
3.47294
6.22972
8.06624
9.06537
9.57114
9.84046
9.97358
10.05
10.1025
10.1315
10.1298
-11.3365
-10.6694
-9.94651
-9.14885
-8.08083
-6.63276
-4.71974
-2.23523
0.760808
4.06593
7.13253
9.17967
10.2736
10.8778
11.1971
11.3812
11.4936
11.5586
11.6019
11.6044
-12.7117
-11.9703
-11.1847
-10.2509
-8.981
-7.2916
-5.10053
-2.28295
1.03606
4.64051
8.00143
10.2764
11.4392
12.126
12.4994
12.7118
12.8483
12.9442
13.0128
13.0203
-13.8681
-13.0286
-12.1976
-11.1571
-9.75296
-7.87782
-5.41513
-2.25255
1.38537
5.28956
8.90939
11.3044
12.5924
13.3224
13.727
13.9773
14.1408
14.2404
14.3082
14.3149
-14.7724
-13.865
-13.0142
-11.8935
-10.3825
-8.34409
-5.63394
-2.165
1.76489
5.94896
9.78091
12.2856
13.6668
14.4279
14.8647
15.1261
15.2956
15.4134
15.5001
15.5161
-15.501
-14.5136
-13.6767
-12.4948
-10.873
-8.68987
-5.77616
-2.07496
2.08819
6.52402
10.5226
13.1343
14.5954
15.3856
15.8369
16.1277
16.3316
16.4805
16.5918
16.6139
-16.0394
-15.002
-14.1829
-12.9558
-11.2474
-8.94752
-5.8685
-2.00643
2.32623
6.95017
11.1114
13.8369
15.3742
16.1983
16.6835
17.0056
17.2274
17.3902
17.5199
17.541
-16.4124
-15.3809
-14.5485
-13.2813
-11.5224
-9.12602
-5.9247
-1.95854
2.49163
7.25655
11.5682
14.4061
16.0031
16.8707
17.3911
17.7414
17.9996
18.185
18.322
18.3466
-16.7055
-15.6622
-14.8011
-13.488
-11.6795
-9.22221
-5.94641
-1.9154
2.61402
7.4856
11.9136
14.8486
16.5002
17.4165
17.9894
18.375
18.652
18.8633
19.0271
19.0498
-16.9225
-15.8745
-14.9617
-13.5715
-11.722
-9.23731
-5.93368
-1.87049
2.7005
7.65912
12.1603
15.1744
16.8877
17.8687
18.4923
18.9276
19.238
19.4501
19.6355
19.6534
-17.1143
-16.0495
-15.0495
-13.5716
-11.6866
-9.18219
-5.88834
-1.82637
2.76743
7.76385
12.3212
15.4017
17.1838
18.2446
18.9243
19.4
19.7492
19.9845
20.1821
20.2014
-17.2572
-16.1824
-15.0999
-13.5489
-11.625
-9.09856
-5.82406
-1.78845
2.80539
7.81863
12.417
15.5599
17.411
18.5551
19.2922
19.8091
20.2082
20.4645
20.6751
20.6981
-17.3666
-16.276
-15.1246
-13.5238
-11.5681
-9.02508
-5.75839
-1.75361
2.82861
7.84262
12.4695
15.6688
17.5795
18.7928
19.6079
20.1658
20.6148
20.915
21.1292
21.1461
-17.4705
-16.35
-15.1433
-13.5181
-11.5382
-8.97647
-5.70049
-1.71518
2.85435
7.85842
12.4912
15.7333
17.6933
18.9624
19.8584
20.485
20.9813
21.3117
21.5387
21.5535
-17.5545
-16.4212
-15.1773
-13.5418
-11.5433
-8.9566
-5.65644
-1.67217
2.88644
7.87296
12.4862
15.7503
17.7411
19.0737
20.0546
20.7562
21.2965
21.673
21.9235
21.9252
-17.6429
-16.4984
-15.2368
-13.5994
-11.581
-8.96735
-5.63255
-1.63277
2.91599
7.87678
12.4433
15.7076
17.7257
19.1427
20.197
20.9871
21.5911
22.0019
22.2713
22.2649
-17.7481
-16.5934
-15.323
-13.684
-11.6479
-9.01129
-5.63722
-1.61417
2.9273
7.85044
12.3549
15.6023
17.6527
19.1516
20.2957
21.1817
21.8654
22.3259
22.6103
22.5867
-17.882
-16.714
-15.4343
-13.7891
-11.7422
-9.08847
-5.67963
-1.63656
2.89974
7.77768
12.2201
15.4364
17.5398
19.1029
20.3432
21.342
22.1353
22.649
22.8979
22.9038
-18.0505
-16.8644
-15.5756
-13.923
-11.8693
-9.20221
-5.77151
-1.72002
2.81085
7.64863
12.0462
15.2375
17.3829
19.0027
20.3295
21.4368
22.3588
22.9998
23.2593
23.1322
-18.2471
-17.0433
-15.7488
-14.0874
-12.0234
-9.3488
-5.91179
-1.86501
2.65685
7.46545
11.8337
15.0067
17.1779
18.8441
20.2374
21.4429
22.5082
23.3463
23.7262
23.6526
-18.4598
-17.2325
-15.9448
-14.2628
-12.1929
-9.51836
-6.08797
-2.05674
2.44901
7.23474
11.5781
14.7312
16.9103
18.5995
20.0279
21.2889
22.4295
23.4027
23.7625
23.6214
-18.6966
-17.4318
-16.131
-14.4261
-12.3716
-9.69708
-6.28104
-2.2695
2.21537
6.97985
11.2929
14.4126
16.574
18.2535
19.6739
20.9294
22.0443
22.8102
23.0335
22.9994
-18.9143
-17.6382
-16.3234
-14.6058
-12.5594
-9.88384
-6.48362
-2.49219
1.97133
6.71271
10.9844
14.0501
16.1642
17.7993
19.1621
20.3242
21.2907
21.7707
21.897
21.9298
-19.1189
-17.8686
-16.5733
-14.8327
-12.7559
-10.0826
-6.68924
-2.71828
1.72508
6.43743
10.6527
13.6422
15.68
17.2332
18.4861
19.49
20.245
20.6433
20.7274
20.8512
-19.3277
-18.1038
-16.8221
-15.0621
-12.9709
-10.2897
-6.89419
-2.94465
1.47642
6.14952
10.2917
13.1882
15.1249
16.5557
17.6607
18.5057
19.0951
19.3716
19.3615
19.598
-19.5248
-18.3072
-17.0038
-15.2578
-13.1885
-10.4782
-7.09017
-3.16273
1.22862
5.84721
9.89859
12.69
14.5046
15.7791
16.7133
17.3867
17.7587
17.9058
17.9233
18.1962
-19.6958
-18.4913
-17.1855
-15.4525
-13.3639
-10.6315
-7.26101
-3.35869
0.990698
5.5369
9.4807
12.1573
13.8364
14.9325
15.6758
16.1714
16.3709
16.2857
16.1105
16.2739
-19.882
-18.6689
-17.3631
-15.6112
-13.4841
-10.755
-7.3975
-3.52871
0.766572
5.22381
9.04811
11.6031
13.1438
14.0556
14.5881
14.8872
14.8933
14.3082
13.346
13.3851
-20.0591
-18.791
-17.4478
-15.684
-13.5665
-10.8435
-7.50412
-3.67726
0.554355
4.91029
8.60951
11.0403
12.4535
13.1938
13.4951
13.5188
13.3243
12.2632
10.0611
8.11031
-20.1949
-18.8825
-17.4995
-15.7274
-13.6207
-10.896
-7.59173
-3.80907
0.35317
4.60253
8.17774
10.4906
11.7944
12.3934
12.4762
12.1785
11.6663
10.6547
6.97007
-2.77637
-20.3312
-18.9758
-17.5808
-15.7854
-13.6566
-10.9382
-7.6677
-3.92807
0.160696
4.30192
7.75212
9.9531
11.1635
11.6595
11.5799
11.054
10.3477
9.68365
9.0979
5.32385
-20.4667
-19.0815
-17.6546
-15.8284
-13.691
-10.9853
-7.74269
-4.04845
-0.0370478
3.99634
7.32329
9.42296
10.559
11.0036
10.9035
10.4483
9.90898
9.89127
10.7645
9.87385
-20.5925
-19.1704
-17.7248
-15.8783
-13.7336
-11.0344
-7.82393
-4.17708
-0.245058
3.68581
6.89926
8.91813
10.0112
10.4748
10.5139
10.3348
10.0711
9.97306
10.4308
9.96382
-20.7061
-19.2884
-17.8254
-15.9466
-13.7859
-11.0887
-7.91267
-4.31619
-0.462365
3.37437
6.48923
8.45549
9.5471
10.0931
10.3315
10.3976
10.1725
9.93555
10.0341
9.97693
-20.8439
-19.3977
-17.9235
-16.0256
-13.8438
-11.152
-8.00913
-4.46407
-0.684515
3.06758
6.10292
8.04874
9.18166
9.82746
10.181
10.3577
10.2496
10.0299
10.1388
10.1775
-20.9532
-19.5151
-18.0206
-16.087
-13.8977
-11.2171
-8.10803
-4.61552
-0.906614
2.77083
5.74873
7.70617
8.90567
9.63907
10.0703
10.3163
10.3631
10.2621
10.3775
10.4118
-21.0447
-19.5932
-18.086
-16.1392
-13.9441
-11.2756
-8.20399
-4.76474
-1.12368
2.48835
5.43176
7.42774
8.70398
9.51899
10.0266
10.3597
10.5426
10.5525
10.638
10.6481
-21.098
-19.6488
-18.1273
-16.1465
-13.965
-11.3219
-8.29005
-4.90546
-1.33271
2.22355
5.15426
7.20816
8.56555
9.46305
10.0481
10.4711
10.773
10.8552
10.9204
10.9288
-21.0865
-19.6519
-18.1164
-16.124
-13.9666
-11.3475
-8.35611
-5.03458
-1.52971
1.98008
4.91558
7.03883
8.48073
9.46445
10.1249
10.6161
11.0161
11.1519
11.2169
11.2347
-20.9858
-19.5906
-18.0526
-16.0306
-13.9297
-11.3429
-8.3987
-5.14879
-1.71042
1.76009
4.71249
6.90799
8.44057
9.52102
10.2622
10.8202
11.2693
11.5049
11.5991
11.6254
-20.7732
-19.4369
-17.8944
-15.9112
-13.8655
-11.2917
-8.40835
-5.2458
-1.86749
1.56341
4.54115
6.80669
8.43298
9.61525
10.4607
11.0979
11.6156
11.9708
12.126
12.1655
-20.3899
-19.1464
-17.6334
-15.7533
-13.7411
-11.1739
-8.39637
-5.32384
-1.99449
1.39375
4.38965
6.71882
8.44041
9.73621
10.7007
11.433
12.0268
12.4794
12.6959
12.739
-19.8444
-18.7254
-17.2885
-15.5063
-13.4792
-11.0453
-8.35879
-5.36567
-2.0949
1.2401
4.24835
6.63114
8.44327
9.85315
10.9223
11.7338
12.3707
12.8508
13.1025
13.1567
-19.0953
-18.1524
-16.7908
-15.108
-13.1686
-10.8798
-8.28684
-5.3665
-2.18248
1.08471
4.09466
6.51537
8.38871
9.87546
11.0066
11.8366
12.4688
12.9469
13.2315
13.3056
-18.1565
-17.4201
-16.2064
-14.6574
-12.8348
-10.6673
-8.17319
-5.34415
-2.27519
0.91041
3.89371
6.31875
8.2027
9.69541
10.8204
11.6329
12.2556
12.7443
13.0576
13.1492
-17.0479
-16.6374
-15.6277
-14.208
-12.5028
-10.4407
-8.03653
-5.32363
-2.38202
0.700965
3.60999
5.98174
7.80438
9.22822
10.3116
11.1186
11.7456
12.2391
12.5644
12.6764
-16.2491
-16.1074
-15.1918
-13.8356
-12.1912
-10.2095
-7.90344
-5.31478
-2.50692
0.439466
3.21261
5.45427
7.15718
8.49726
9.55393
10.3623
10.9851
11.4658
11.7964
11.9262
-16.0564
-16.0038
-15.017
-13.6045
-11.9589
-10.014
-7.77804
-5.30329
-2.65181
0.112505
2.69296
4.76757
6.36246
7.63937
8.65062
9.4224
10.0154
10.4747
10.807
10.9669
-15.8577
-15.731
-14.9038
-13.5107
-11.8017
-9.82428
-7.63535
-5.28824
-2.81687
-0.261339
2.11378
4.03582
5.52335
6.70146
7.59798
8.26877
8.78395
9.18371
9.47925
9.64278
-15.4264
-15.323
-14.714
-13.2418
-11.4603
-9.4877
-7.40367
-5.21817
-2.93565
-0.578782
1.62945
3.42108
4.77139
5.81101
6.58068
7.13212
7.53423
7.8297
8.03161
8.13906
-14.6805
-14.8026
-14.2341
-12.5742
-10.7895
-8.93538
-7.01919
-5.02583
-2.9472
-0.791019
1.24052
2.8661
4.05431
4.94955
5.61773
6.07483
6.38539
6.59448
6.71793
6.77465
-12.9649
-13.1677
-12.6415
-11.2097
-9.7041
-8.09937
-6.421
-4.67441
-2.8424
-0.925843
0.867508
2.26676
3.26239
4.002
4.55735
4.92095
5.15421
5.30174
5.38518
5.42006
-9.86691
-9.9441
-9.65357
-8.92827
-7.98563
-6.81766
-5.52031
-4.1168
-2.59774
-0.980204
0.529248
1.69739
2.51884
3.12095
3.56782
3.85147
4.03016
4.13996
4.20032
4.22745
-6.28947
-6.34348
-6.28951
-6.09445
-5.74266
-5.14738
-4.35376
-3.36497
-2.21151
-0.942777
0.268723
1.22576
1.89706
2.37947
2.73055
2.94964
3.08834
3.17571
3.22743
3.25318
-3.44837
-3.48817
-3.52948
-3.5826
-3.58993
-3.43597
-3.08912
-2.51468
-1.72623
-0.80729
0.120794
0.883346
1.41904
1.79345
2.06698
2.24322
2.35985
2.4392
2.49086
2.52176
-1.60744
-1.63269
-1.68988
-1.79974
-1.91843
-1.97192
-1.90891
-1.65882
-1.2107
-0.589171
0.0861481
0.668522
1.0834
1.36806
1.58582
1.7348
1.83858
1.91167
1.95541
1.97577
-0.507838
-0.545599
-0.619892
-0.718494
-0.824545
-0.903676
-0.955782
-0.909614
-0.713349
-0.327473
0.133401
0.559344
0.875665
1.09376
1.271
1.39565
1.48294
1.54446
1.57797
1.59189
0.0339681
-0.000934346
-0.0852139
-0.183359
-0.259029
-0.304154
-0.350809
-0.362859
-0.294997
-0.0768578
0.221623
0.524949
0.767391
0.937251
1.08201
1.18076
1.2461
1.29369
1.31567
1.32334
0.245112
0.217839
0.135972
0.0314485
-0.0398555
-0.0704579
-0.0863583
-0.0690846
-0.0186869
0.118118
0.314196
0.532021
0.719616
0.848755
0.966511
1.03995
1.08252
1.1131
1.12645
1.13052
0.289353
0.271745
0.204397
0.108998
0.0345876
-0.00641026
-0.0151679
0.0316303
0.103291
0.228137
0.378376
0.544857
0.694386
0.78315
0.877844
0.929243
0.949682
0.964301
0.970784
0.972398
0.267081
0.256135
0.210733
0.14527
0.0843958
0.0320712
0.00662825
0.0454515
0.125796
0.253429
0.397509
0.533493
0.662076
0.711193
0.780741
0.814541
0.819897
0.824095
0.823987
0.823764
0.239329
0.23223
0.204917
0.167208
0.128978
0.0799585
0.042171
0.0532897
0.114152
0.235214
0.376617
0.483411
0.601449
0.616012
0.657541
0.677646
0.681828
0.684939
0.681268
0.681254
0.227868
0.224121
0.206953
0.185121
0.16511
0.130853
0.0993102
0.0943547
0.124471
0.212861
0.326767
0.39879
0.503186
0.500332
0.522004
0.53257
0.539408
0.546417
0.543721
0.544989
0.226958
0.225854
0.216426
0.205181
0.200018
0.185248
0.167459
0.160026
0.160153
0.199871
0.27084
0.306376
0.381004
0.382167
0.403744
0.408935
0.414096
0.419907
0.418847
0.420891
0.230852
0.230807
0.227327
0.224944
0.231771
0.229473
0.225453
0.22125
0.195987
0.196809
0.229468
0.243233
0.279137
0.288256
0.31571
0.321689
0.322652
0.323718
0.320853
0.321463
0.241677
0.240871
0.237541
0.234956
0.242347
0.239494
0.240535
0.242632
0.219782
0.209276
0.216131
0.216515
0.233394
0.242206
0.25719
0.260421
0.258317
0.255911
0.249394
0.248516
0.253978
0.252054
0.244645
0.23482
0.22931
0.215763
0.212571
0.217983
0.219094
0.222813
0.221739
0.212383
0.222344
0.220969
0.222054
0.217974
0.210297
0.204401
0.194521
0.192389
0.254964
0.252797
0.241518
0.226367
0.210464
0.187519
0.177902
0.181046
0.19026
0.20744
0.213865
0.20669
0.213759
0.203874
0.194902
0.184814
0.171253
0.162546
0.149818
0.146771
0.23386
0.232333
0.221255
0.207794
0.194682
0.174088
0.161148
0.155691
0.152538
0.165347
0.178847
0.179535
0.183086
0.171865
0.16025
0.150575
0.135329
0.127334
0.114556
0.111772
0.1969
0.19592
0.188523
0.18165
0.176833
0.164319
0.15469
0.142319
0.125987
0.126228
0.134141
0.135322
0.135387
0.127908
0.118489
0.113729
0.100807
0.0967905
0.0865661
0.0843561
0.160243
0.15946
0.155007
0.152061
0.151444
0.144323
0.140543
0.129869
0.114179
0.105234
0.101672
0.0979502
0.0958148
0.0900653
0.0826986
0.0811044
0.0711879
0.0697302
0.0621676
0.0604581
0.128613
0.128049
0.124634
0.121852
0.120331
0.113503
0.112704
0.108586
0.101964
0.0938405
0.083464
0.0750617
0.0697814
0.0654325
0.0580882
0.0578464
0.0489415
0.0482119
0.0421201
0.04062
0.0983123
0.0972393
0.0939121
0.0906961
0.0873839
0.0799455
0.0784798
0.077282
0.0749165
0.0754713
0.0664655
0.0585743
0.0519899
0.049781
0.0409797
0.0411014
0.0329187
0.0321121
0.0269184
0.0250917
0.0626206
0.0618036
0.0593609
0.0573789
0.0536424
0.0479282
0.0452371
0.0438562
0.039132
0.0459663
0.0416152
0.0394329
0.0342455
0.0345308
0.0251749
0.0265035
0.0179188
0.0184309
0.0144964
0.013134
0.0247512
0.0249751
0.023685
0.0224517
0.017178
0.0174742
0.0133714
0.0148733
0.00843958
0.0148358
0.0113524
0.0146727
0.0105018
0.0132079
0.00614034
0.0103562
0.00415198
0.00580157
0.00350127
0.0027109
13.3925
17.4745
18.49
19.7885
20.8341
21.7535
22.5432
23.1831
23.5637
23.6349
17.7725
19.7348
20.3632
21.1765
21.8731
22.4617
22.9371
23.2829
23.4546
23.4229
20.0811
21.0443
21.5235
22.0224
22.4541
22.8146
23.0935
23.2862
23.3803
23.3901
21.3468
21.9392
22.2444
22.5525
22.8081
23.0183
23.178
23.2862
23.3459
23.3719
22.1751
22.4758
22.6631
22.8481
23.0051
23.1347
23.2335
23.3021
23.3403
23.3706
22.621
22.8226
22.9254
23.0463
23.1419
23.2205
23.2834
23.3312
23.3616
23.3869
22.9132
23.0447
23.0958
23.1752
23.2393
23.2931
23.337
23.3718
23.3948
23.4189
23.1084
23.1903
23.2312
23.2819
23.3261
23.3639
23.3955
23.4214
23.4405
23.4611
23.2574
23.3129
23.343
23.3734
23.4041
23.4313
23.4537
23.4745
23.4908
23.5106
23.3827
23.4161
23.4386
23.4588
23.4791
23.4987
23.5167
23.5346
23.5486
23.5674
23.4895
23.5098
23.5272
23.5416
23.5572
23.5728
23.5868
23.6012
23.6112
23.6282
23.5844
23.5981
23.6143
23.6289
23.642
23.6537
23.6638
23.6727
23.6766
23.6878
23.6792
23.6914
23.7062
23.7167
23.725
23.7322
23.7393
23.7455
23.7465
23.7546
23.7792
23.784
23.793
23.7982
23.8018
23.8067
23.8128
23.8205
23.8249
23.8344
23.894
23.8806
23.8729
23.8675
23.8649
23.8663
23.8734
23.8868
23.9009
23.9301
24.0163
23.9608
23.93
23.9123
23.904
23.9041
23.9126
23.9315
23.963
24.0325
)
;

boundaryField
{
    wall-4
    {
        type            zeroGradient;
    }
    pressure-outlet-7
    {
        type            fixedValue;
        value           uniform 0;
    }
    velocity-inlet-6
    {
        type            zeroGradient;
    }
    velocity-inlet-5
    {
        type            zeroGradient;
    }
    frontAndBackPlanes
    {
        type            empty;
    }
}


// ************************************************************************* //
