/*--------------------------------*- C++ -*----------------------------------*\
| =========                 |                                                 |
| \\      /  F ield         | OpenFOAM: The Open Source CFD Toolbox           |
|  \\    /   O peration     | Version:  2412                                  |
|   \\  /    A nd           | Website:  www.openfoam.com                      |
|    \\/     M anipulation  |                                                 |
\*---------------------------------------------------------------------------*/
FoamFile
{
    version     2.0;
    format      ascii;
    arch        "LSB;label=32;scalar=64";
    class       surfaceScalarField;
    location    "7";
    object      phi;
}
// * * * * * * * * * * * * * * * * * * * * * * * * * * * * * * * * * * * * * //

dimensions      [0 3 -1 0 0 0 0];

oriented        oriented;

internalField   nonuniform List<scalar> 
4262
(
-0.000501209
0.221014
-0.00201681
0.830169
-0.0037262
1.76885
-0.00555301
3.16699
-0.00786352
5.18691
-0.0102034
8.0167
-0.0117916
11.8487
-0.0134742
16.8214
-0.0161022
22.8844
-0.0166515
29.5289
-0.0160703
29.5278
-0.0138758
22.8796
-0.0119208
16.8178
-0.0100025
11.8452
-0.00810334
8.01247
-0.00639175
5.18289
-0.00491547
3.16369
-0.0040914
1.76632
-0.0029627
0.827524
0.21755
-0.00255061
0.223564
-0.00609773
0.833716
-0.0108403
1.7736
-0.0163863
3.17254
-0.0239408
5.19447
-0.0305127
8.02328
-0.0372067
11.8554
-0.0439745
16.8282
-0.048906
22.8894
-0.0471039
29.5271
-0.0437769
29.5244
-0.038877
22.8747
-0.0342021
16.8131
-0.0275757
11.8386
-0.0221034
8.00699
-0.0175375
5.17833
-0.0126011
3.15875
-0.00877047
1.76249
-0.00393332
0.822687
0.213617
-0.00545361
0.229018
-0.0113569
0.839619
-0.0195917
1.78183
-0.0295335
3.18248
-0.0399661
5.2049
-0.0497013
8.03301
-0.0602314
11.866
-0.0683939
16.8364
-0.0789112
22.8999
-0.0781503
29.5263
-0.0731614
29.5195
-0.0651215
22.8667
-0.054312
16.8023
-0.0444823
11.8288
-0.0340603
7.99657
-0.0253442
5.16961
-0.0176482
3.15106
-0.0092365
1.75408
-0.00212373
0.815575
0.211493
-0.00944828
0.238466
-0.0191194
0.84929
-0.0313584
1.79407
-0.0454002
3.19652
-0.0577689
5.21727
-0.0693295
8.04457
-0.0835433
11.8802
-0.094345
16.8472
-0.107246
22.9128
-0.104998
29.5241
-0.0979089
29.5124
-0.0869785
22.8558
-0.0717725
16.7871
-0.0577501
11.8147
-0.0434269
7.98225
-0.0312948
5.15748
-0.0202215
3.13998
-0.0098628
1.74372
-0.00115178
0.806864
0.210341
-0.0141907
0.252657
-0.0273142
0.862414
-0.0430916
1.80985
-0.0600171
3.21345
-0.0777381
5.23499
-0.0936178
8.06045
-0.109391
11.8959
-0.121677
16.8594
-0.136999
22.9281
-0.134312
29.5214
-0.125622
29.5037
-0.110811
22.8409
-0.0891351
16.7654
-0.0698357
11.7954
-0.0512888
7.9637
-0.0361575
5.14235
-0.0235402
3.12737
-0.0126576
1.73284
-0.00164778
0.795854
0.208693
-0.0144796
0.267137
-0.0292654
0.8772
-0.0489626
1.82954
-0.0726118
3.2371
-0.0978375
5.26022
-0.11673
8.07934
-0.132323
11.9115
-0.149679
16.8768
-0.166138
22.9446
-0.161256
29.5165
-0.149241
29.4917
-0.128943
22.8206
-0.105135
16.7416
-0.0788316
11.7691
-0.0572543
7.94212
-0.0403482
5.12544
-0.0253794
3.1124
-0.0139652
1.72142
-0.00301442
0.784903
0.205679
-0.0124836
0.27962
-0.03159
0.896306
-0.0568939
1.85485
-0.0847219
3.26493
-0.113661
5.28916
-0.143531
8.10921
-0.162492
11.9305
-0.180065
16.8944
-0.196456
22.961
-0.190841
29.5109
-0.17685
29.4777
-0.148985
22.7928
-0.118677
16.7113
-0.0877192
11.7382
-0.0642635
7.91867
-0.0444885
5.10567
-0.0279476
3.09586
-0.0144533
1.70793
-0.00532006
0.77577
0.200359
-0.0162426
0.295863
-0.0466733
0.926737
-0.0750136
1.88319
-0.101924
3.29184
-0.131802
5.31903
-0.163836
8.14125
-0.190729
11.9574
-0.2141
16.9177
-0.232137
22.979
-0.220138
29.4989
-0.196708
29.4542
-0.163393
22.7595
-0.132148
16.6801
-0.0996991
11.7057
-0.0736432
7.89261
-0.0479809
5.08
-0.0268589
3.07474
-0.0111625
1.69223
-0.00589064
0.770498
0.194468
-0.023759
0.319622
-0.0618703
0.964848
-0.0890049
1.91032
-0.115514
3.31834
-0.144422
5.34794
-0.18119
8.17802
-0.215814
11.992
-0.246741
16.9487
-0.26812
23.0004
-0.252848
29.4836
-0.224871
29.4263
-0.189287
22.7239
-0.155326
16.6461
-0.116489
11.6669
-0.081195
7.85732
-0.0491388
5.04795
-0.0215412
3.04714
-0.000263887
1.67095
-0.00179656
0.77203
0.192672
-0.0301479
0.34977
-0.0769672
1.01167
-0.102426
1.93578
-0.13064
3.34656
-0.164479
5.38178
-0.200851
8.21439
-0.240578
12.0317
-0.276849
16.9849
-0.306763
23.0303
-0.28937
29.4662
-0.255104
29.392
-0.215775
22.6846
-0.175729
16.6061
-0.136482
11.6277
-0.0952242
7.81606
-0.0554675
5.00819
-0.0205067
3.01218
0.00946505
1.64098
0.00268838
0.778807
0.19536
-0.0338456
0.383615
-0.0849992
1.06282
-0.112006
1.96279
-0.144959
3.37951
-0.181872
5.4187
-0.222057
8.25457
-0.265837
12.0755
-0.30562
17.0247
-0.342018
23.0667
-0.327847
29.4521
-0.297508
29.3617
-0.256226
22.6433
-0.209187
16.559
-0.157026
11.5755
-0.106395
7.76543
-0.0644227
4.96622
-0.0269448
2.9747
0.009089
1.60495
0.00239834
0.785498
0.197758
-0.034864
0.418479
-0.0882655
1.11622
-0.120438
1.99496
-0.165144
3.42422
-0.212399
5.46595
-0.25702
8.29919
-0.301243
12.1197
-0.343097
17.0666
-0.382532
23.1061
-0.372848
29.4424
-0.341852
29.3307
-0.292208
22.5936
-0.232337
16.4991
-0.174491
11.5176
-0.120164
7.7111
-0.0720187
4.91807
-0.033055
2.93574
0.00256217
1.56933
-0.000583674
0.788644
0.197175
-0.0383759
0.456855
-0.0990341
1.17688
-0.13811
2.03404
-0.190723
3.47683
-0.238653
5.51388
-0.291028
8.35157
-0.340904
12.1696
-0.386866
17.1125
-0.425369
23.1446
-0.420339
29.4374
-0.392843
29.3032
-0.335038
22.5358
-0.262548
16.4266
-0.189731
11.4448
-0.126899
7.64827
-0.0759109
4.86709
-0.0400931
2.89992
-0.00556809
1.53481
-0.00471567
0.787791
0.192459
-0.0375677
0.494423
-0.0971452
1.23646
-0.148125
2.08502
-0.216636
3.54534
-0.279486
5.57673
-0.344368
8.41645
-0.401927
12.2272
-0.450245
17.1609
-0.489718
23.1841
-0.478675
29.4263
-0.44015
29.2646
-0.362387
22.4581
-0.275346
16.3396
-0.199402
11.3689
-0.139418
7.58829
-0.0818893
4.80956
-0.0401969
2.85823
-0.00800934
1.50262
-0.00659708
0.786379
0.185862
-0.0476797
0.542102
-0.118642
1.30742
-0.179889
2.14626
-0.248835
3.61429
-0.320321
5.64822
-0.39439
8.49052
-0.46305
12.2958
-0.520117
17.2179
-0.561478
23.2255
-0.54185
29.4067
-0.483552
29.2063
-0.397797
22.3723
-0.306283
16.2481
-0.218789
11.2814
-0.148215
7.51771
-0.0917179
4.75306
-0.0401706
2.80668
-0.0110254
1.47347
-0.00808555
0.783439
0.177776
-0.0471584
0.589261
-0.120631
1.38089
-0.197114
2.22275
-0.275936
3.69311
-0.362937
5.73522
-0.45348
8.58106
-0.538427
12.3808
-0.613724
17.2932
-0.656029
23.2678
-0.619365
29.37
-0.533477
29.1205
-0.429524
22.2684
-0.32634
16.1449
-0.236124
11.1912
-0.161084
7.44267
-0.0955415
4.68752
-0.0289096
2.74005
-0.00532447
1.44989
-0.00656265
0.784677
0.171214
-0.0649939
0.654255
-0.158472
1.47437
-0.243326
2.3076
-0.321052
3.77083
-0.419138
5.8333
-0.519373
8.6813
-0.617625
12.479
-0.708028
17.3836
-0.75608
23.3158
-0.705994
29.3199
-0.607539
29.022
-0.488083
22.1489
-0.375796
16.0326
-0.265976
11.0814
-0.165259
7.34196
-0.0933414
4.6156
-0.022878
2.66958
-0.00466098
1.43167
-0.00752928
0.787546
0.163684
-0.0685594
0.722814
-0.172256
1.57807
-0.282913
2.41826
-0.386006
3.87393
-0.502375
5.94967
-0.612125
8.79105
-0.71751
12.5844
-0.82253
17.4886
-0.870998
23.3643
-0.813539
29.2625
-0.701315
28.9098
-0.558614
22.0062
-0.41502
15.889
-0.287083
10.9534
-0.172685
7.22756
-0.0890928
4.53201
-0.014023
2.59451
0.000419907
1.41723
-0.00615022
0.794116
0.157534
-0.0895956
0.81241
-0.208315
1.69679
-0.328038
2.53798
-0.437264
3.98315
-0.570484
6.08289
-0.695535
8.9161
-0.821506
12.7104
-0.94293
17.6101
-0.993672
23.415
-0.930554
29.1994
-0.80745
28.7867
-0.64488
21.8436
-0.475808
15.72
-0.318055
10.7957
-0.178475
7.08798
-0.0843428
4.43787
-0.00793596
2.51811
3.00436e-06
1.40929
-0.00899581
0.803115
0.148538
-0.0955563
0.907966
-0.231286
1.83252
-0.377304
2.684
-0.519347
4.1252
-0.671659
6.2352
-0.813736
9.05818
-0.957385
12.854
-1.09455
17.7472
-1.14485
23.4653
-1.07952
29.134
-0.938636
28.6458
-0.740739
21.6457
-0.530783
15.51
-0.352481
10.6174
-0.202967
6.93847
-0.0886779
4.32359
-0.0138405
2.44327
-0.00368898
1.39914
-0.012082
0.811508
0.136456
-0.114937
1.0229
-0.265398
1.98298
-0.428875
2.84748
-0.585672
4.28199
-0.765397
6.41493
-0.938802
9.23158
-1.11115
13.0264
-1.27407
17.9101
-1.32245
23.5137
-1.24249
29.0541
-1.06956
28.4728
-0.839607
21.4158
-0.609599
15.28
-0.406391
10.4142
-0.232844
6.76492
-0.0943384
4.18508
-0.0199839
2.36891
-0.0184779
1.39763
-0.023157
0.816187
0.113299
-0.129104
1.15201
-0.299119
2.15299
-0.485342
3.0337
-0.679222
4.47587
-0.886888
6.6226
-1.10238
9.44707
-1.32023
13.2442
-1.50163
18.0915
-1.54447
23.5566
-1.44271
28.9523
-1.22535
28.2555
-0.95442
21.1448
-0.680427
15.006
-0.443615
10.1773
-0.261209
6.58251
-0.110603
4.03447
-0.0364444
2.29476
-0.0295615
1.39075
-0.0346362
0.821261
0.0786632
-0.151015
1.30302
-0.345638
2.34762
-0.565858
3.25392
-0.798985
4.709
-1.05703
6.88064
-1.32928
9.71932
-1.57374
13.4887
-1.7767
18.2945
-1.79856
23.5784
-1.66139
28.8152
-1.39196
27.986
-1.06663
20.8195
-0.759672
14.699
-0.491234
9.9089
-0.287481
6.37876
-0.117703
3.8647
-0.0482092
2.22526
-0.0466625
1.3892
-0.0474777
0.822076
0.0311855
-0.1839
1.48692
-0.411041
2.57476
-0.670957
3.51383
-0.96967
5.00771
-1.29171
7.20269
-1.60833
10.0359
-1.88869
13.769
-2.105
18.5108
-2.09883
23.5723
-1.9198
28.6361
-1.58123
27.6475
-1.19598
20.4343
-0.827888
14.3309
-0.519611
9.60062
-0.303456
6.1626
-0.138547
3.69979
-0.0835896
2.1703
-0.0864361
1.39205
-0.0636301
0.79927
-0.0324446
-0.232592
1.71951
-0.494512
2.83668
-0.842916
3.86224
-1.21892
5.38372
-1.59249
7.57625
-1.95295
10.3964
-2.27193
14.088
-2.47882
18.7177
-2.42922
23.5227
-2.20123
28.4081
-1.80244
27.2487
-1.3382
19.97
-0.930322
13.9231
-0.581889
9.25219
-0.329676
5.91039
-0.156636
3.52675
-0.107637
2.1213
-0.124148
1.40856
-0.0982607
0.773383
-0.130705
-0.357046
2.07656
-0.753672
3.2333
-1.16226
4.27083
-1.5743
5.79576
-1.98968
7.99163
-2.3876
10.7943
-2.72212
14.4226
-2.88435
18.8799
-2.79431
23.4326
-2.52238
28.1362
-2.0518
26.7781
-1.52294
19.4412
-1.02596
13.4261
-0.631128
8.85736
-0.341271
5.62053
-0.161059
3.34654
-0.126648
2.08689
-0.144156
1.42607
-0.108029
0.737256
-0.238734
-0.279974
2.35653
-0.629326
3.58265
-0.979082
4.62059
-1.37923
6.19591
-1.80962
8.42202
-2.24748
11.2322
-2.67176
14.8468
-2.90995
19.1181
-2.94513
23.4678
-2.76661
27.9577
-2.27572
26.2872
-1.65154
18.817
-1.0516
12.8262
-0.574996
8.38076
-0.198716
5.24425
-0.0345659
3.18239
-0.00165654
2.05398
-0.0149359
1.43935
-0.0462763
0.768596
-0.28501
-0.169809
2.52634
-0.408504
3.82135
-0.694433
4.90651
-1.00119
6.50267
-1.3124
8.73323
-1.61793
11.5377
-1.91122
15.1401
-2.03602
19.2429
-1.99448
23.4263
-1.73797
27.7012
-1.25423
25.8035
-0.726051
18.2888
-0.283222
12.3833
0.0753012
8.02223
0.317585
5.00197
0.363299
3.13667
0.308296
2.10899
0.188394
1.55925
0.0731671
0.883823
-0.211843
-0.120784
2.64713
-0.268567
3.96913
-0.477525
5.11547
-0.706615
6.73176
-0.938787
8.9654
-1.14851
11.7474
-1.33394
15.3256
-1.37245
19.2814
-1.26594
23.3198
-0.966871
27.4021
-0.524042
25.3607
-0.122773
17.8875
0.205849
12.0547
0.430874
7.79721
0.498027
4.93482
0.432268
3.20243
0.305131
2.23613
0.20426
1.66012
0.112702
0.975381
-0.0991411
-0.0997258
2.74685
-0.238579
4.10799
-0.392461
5.26935
-0.538434
6.87773
-0.679048
9.10601
-0.812419
11.8808
-0.910347
15.4235
-0.887333
19.2584
-0.738604
23.171
-0.420079
27.0836
-0.00198007
24.9426
0.341332
17.5442
0.569199
11.8268
0.703325
7.66308
0.725305
4.91284
0.63802
3.28972
0.468735
2.40541
0.283892
1.84496
0.115292
1.14398
0.0161513
-0.0620695
2.80892
-0.168719
4.21464
-0.281619
5.38225
-0.390755
6.98687
-0.492618
9.20787
-0.580843
11.969
-0.621165
15.4638
-0.555182
19.1924
-0.376769
22.9926
-0.0316012
26.7384
0.341675
24.5693
0.611094
17.2748
0.77771
11.6602
0.833787
7.607
0.747314
4.99931
0.567553
3.46948
0.366958
2.60601
0.220432
1.99149
0.107562
1.25685
0.123713
-0.0496124
2.85853
-0.166961
4.33198
-0.254523
5.46982
-0.311275
7.04362
-0.367525
9.26412
-0.432524
12.034
-0.435771
15.4671
-0.344666
19.1013
-0.160064
22.808
0.162085
26.4163
0.546017
24.1854
0.777036
17.0438
0.927678
11.5096
0.939721
7.59496
0.835151
5.10388
0.664448
3.64018
0.47652
2.79393
0.290561
2.17745
0.12804
1.41937
0.251753
-0.0260867
2.88462
-0.119076
4.42497
-0.207304
5.55804
-0.263811
7.10013
-0.311474
9.31179
-0.343301
12.0658
-0.324393
15.4481
-0.223465
19.0004
-0.0410298
22.6256
0.275264
26.1
0.644524
23.8161
0.855085
16.8332
0.973419
11.3912
0.960496
7.60788
0.824856
5.23952
0.6232
3.84184
0.413523
3.00361
0.246067
2.3449
0.0951558
1.57028
0.346909
-0.0160046
2.90063
-0.110573
4.51954
-0.194973
5.64244
-0.251289
7.15644
-0.276871
9.33737
-0.294594
12.0836
-0.262489
15.416
-0.159178
18.8971
0.0231087
22.4433
0.321516
25.8016
0.664964
23.4727
0.870823
16.6274
0.985688
11.2764
0.946907
7.64667
0.770312
5.41612
0.550085
4.06206
0.352924
3.20077
0.174087
2.52374
0.0556629
1.68871
0.402572
-0.0154121
2.91604
-0.0767568
4.58089
-0.142297
5.70798
-0.21861
7.23276
-0.256827
9.37558
-0.270968
12.0977
-0.232418
15.3775
-0.132177
18.7968
0.0392688
22.2718
0.318286
25.5225
0.635913
23.155
0.833921
16.4293
0.920004
11.1903
0.852511
7.71416
0.691162
5.57747
0.497285
4.25594
0.305243
3.39281
0.149622
2.67936
0.041018
1.79731
0.44359
-0.0112275
2.92727
-0.0703349
4.63999
-0.133104
5.77075
-0.205453
7.30511
-0.243769
9.4139
-0.260403
12.1143
-0.220938
15.338
-0.127227
18.7031
0.0337151
22.1109
0.285969
25.2703
0.577955
22.863
0.768394
16.2389
0.844788
11.1139
0.77097
7.78798
0.588005
5.76043
0.390901
4.45305
0.224306
3.55941
0.0940039
2.80966
0.0130604
1.87826
0.45665
-0.0102181
2.93748
-0.0505974
4.68037
-0.101389
5.82154
-0.168678
7.37239
-0.229115
9.47434
-0.254924
12.1402
-0.220841
15.3039
-0.134571
18.6169
0.0156732
21.9607
0.238766
25.0472
0.50137
22.6004
0.674186
16.0661
0.718347
11.0697
0.634275
7.87205
0.485033
5.90967
0.319695
4.61838
0.166963
3.71214
0.0500504
2.92657
-0.00275104
1.93106
0.453899
-0.00282256
2.94031
-0.0488859
4.72644
-0.104601
5.87726
-0.159184
7.42698
-0.211725
9.52688
-0.245579
12.174
-0.222008
15.2804
-0.147355
18.5422
-0.0179935
21.8313
0.184531
24.8447
0.417476
22.3675
0.572298
15.9113
0.600019
11.042
0.515484
7.95658
0.369547
6.05561
0.218993
4.76894
0.113634
3.8175
0.0207881
3.01942
-0.0170625
1.96891
0.436837
-0.00986797
2.95017
-0.0514195
4.76799
-0.0994026
5.92524
-0.154575
7.48215
-0.204043
9.57635
-0.237147
12.2071
-0.221495
15.2647
-0.160683
18.4814
-0.0495857
21.7202
0.129223
24.6659
0.328734
22.168
0.455499
15.7845
0.456747
11.0408
0.36408
8.04925
0.260806
6.15888
0.143302
4.88644
0.0370898
3.92371
-0.0286166
3.08513
-0.0323364
1.97263
0.4045
-0.00736953
2.95754
-0.0552419
4.81586
-0.107602
5.9776
-0.155359
7.52991
-0.196777
9.61776
-0.227736
12.2381
-0.217214
15.2542
-0.170713
18.4349
-0.0775318
21.627
0.076539
24.5118
0.242822
22.0017
0.34469
15.6826
0.338715
11.0467
0.247651
8.14031
0.144756
6.26178
0.0485916
4.98261
-0.0137731
3.98608
-0.0614645
3.13282
-0.0505537
1.96172
0.353947
-0.0151527
2.9727
-0.062772
4.86348
-0.107886
6.02272
-0.155533
7.57755
-0.192973
9.6552
-0.221098
12.2662
-0.21308
15.2462
-0.177415
18.3992
-0.10045
21.5501
0.029708
24.3816
0.160353
21.871
0.234832
15.6082
0.202211
11.0794
0.114628
8.2279
0.0352521
6.34116
-0.0381484
5.05601
-0.102252
4.05018
-0.114399
3.14497
-0.0666085
1.91393
0.287338
-0.0199287
2.99262
-0.0677556
4.91131
-0.11142
6.06638
-0.155521
7.62165
-0.188332
9.68802
-0.214184
12.2921
-0.207786
15.2398
-0.179513
18.371
-0.117003
21.4875
-0.0169986
24.2816
0.0888147
21.7652
0.140036
15.5569
0.0926235
11.1268
0.00917492
8.31134
-0.0784133
6.42874
-0.134537
5.11213
-0.15069
4.06633
-0.146639
3.14091
-0.0835198
1.85081
0.203818
-0.0229876
3.01561
-0.0716222
4.95994
-0.109397
6.10416
-0.153797
7.66605
-0.18547
9.71969
-0.209934
12.3165
-0.20357
15.2334
-0.1791
18.3465
-0.127594
21.436
-0.0505179
24.2046
0.0289164
21.6858
0.0479091
15.5379
-0.0173544
11.192
-0.10968
8.40367
-0.175996
6.49506
-0.21965
5.15578
-0.243605
4.09029
-0.199905
3.09721
-0.0961937
1.7471
0.107625
-0.0265609
3.04217
-0.0715892
5.00497
-0.108819
6.14138
-0.151094
7.70833
-0.181985
9.75058
-0.204825
12.3394
-0.198183
15.2268
-0.176411
18.3247
-0.134896
21.3945
-0.0772078
24.1469
-0.0174542
21.626
-0.0204942
15.541
-0.0971511
11.2687
-0.204784
8.5113
-0.286571
6.57685
-0.312293
5.18151
-0.283635
4.06163
-0.22884
3.04242
-0.0994719
1.61773
0.00815269
-0.0275796
3.06975
-0.071345
5.04874
-0.105217
6.17526
-0.146388
7.7495
-0.179315
9.78351
-0.200201
12.3602
-0.19327
15.2198
-0.173599
18.305
-0.140523
21.3615
-0.097912
24.1043
-0.055375
21.5835
-0.0785507
15.5642
-0.175353
11.3655
-0.288968
8.62492
-0.369761
6.65764
-0.402566
5.21431
-0.392448
4.05151
-0.276289
2.92626
-0.107375
1.44881
-0.0992227
-0.0276926
3.09745
-0.0678833
5.08893
-0.102624
6.21
-0.141566
7.78844
-0.172862
9.8148
-0.192516
12.3799
-0.187912
15.2152
-0.172749
18.2899
-0.146274
21.335
-0.11446
24.0724
-0.0873132
21.5564
-0.129692
15.6065
-0.238135
11.4739
-0.355043
8.74183
-0.456893
6.75949
-0.494131
5.25155
-0.438518
3.9959
-0.276645
2.76439
0.045797
1.12637
-0.0534257
-0.0296496
3.1271
-0.0657981
5.12507
-0.100111
6.24431
-0.138561
7.82689
-0.171442
9.84768
-0.193552
12.402
-0.193273
15.215
-0.183468
18.2801
-0.16313
21.3146
-0.139324
24.0486
-0.126647
21.5437
-0.193308
15.6732
-0.328819
11.6095
-0.465763
8.87877
-0.5676
6.86133
-0.633773
5.31772
-0.622622
3.98475
-0.40953
2.5513
-0.271681
0.988524
0.545
-0.870107
-0.0314035
3.1585
-0.0629819
5.15665
-0.100011
6.28134
-0.13275
7.85963
-0.166587
9.88152
-0.189671
12.4251
-0.192928
15.2182
-0.18662
18.2738
-0.172498
21.3005
-0.156681
24.0328
-0.160519
21.5475
-0.249129
15.7618
-0.405199
11.7655
-0.565909
9.03948
-0.706915
7.00233
-0.806078
5.41688
-0.832545
4.01121
-0.685781
2.40453
-1.00983
1.31257
1.15185
-1.61668
-0.0298646
3.18836
-0.0568483
5.18364
-0.0954746
6.31997
-0.124893
7.88905
-0.160515
9.91714
-0.184785
12.4494
-0.191724
15.2252
-0.189425
18.2715
-0.181481
21.2926
-0.172999
24.0243
-0.193014
21.5675
-0.303346
15.8721
-0.484011
11.9462
-0.672762
9.22823
-0.849995
7.17957
-1.00271
5.56959
-0.994267
4.00278
-0.965364
2.37563
-1.38221
1.72941
1.54279
-1.77314
-0.0334778
3.22184
-0.0561121
5.20627
-0.0956634
6.35952
-0.119457
7.91284
-0.153587
9.95127
-0.17847
12.4742
-0.188246
15.2349
-0.190169
18.2734
-0.188105
21.2905
-0.186801
24.023
-0.222363
21.6031
-0.352521
16.0023
-0.556252
12.1499
-0.779017
9.451
-1.01558
7.41613
-1.19118
5.7452
-1.17028
3.98188
-1.37843
2.58377
-1.72398
2.07497
1.78846
-1.96965
-0.0291322
3.25097
-0.0515771
5.22872
-0.0878156
6.39576
-0.112027
7.93705
-0.145596
9.98484
-0.171661
12.5003
-0.183526
15.2468
-0.190149
18.28
-0.193542
21.2939
-0.198856
24.0283
-0.248425
21.6527
-0.396514
16.1504
-0.625132
12.3785
-0.884284
9.71015
-1.11412
7.64596
-1.22161
5.85269
-1.22443
3.98469
-1.51446
2.87381
-1.85587
2.41637
2.00832
-2.07573
-0.0262586
3.27723
-0.0538137
5.25627
-0.087933
6.42987
-0.115546
7.96467
-0.146611
10.0159
-0.169603
12.5233
-0.183127
15.2603
-0.193018
18.2899
-0.200854
21.3017
-0.212132
24.0396
-0.274551
21.7151
-0.438807
16.3146
-0.685529
12.6253
-0.954878
9.9795
-1.18969
7.88077
-1.34663
6.00963
-1.55349
4.19156
-1.86653
3.18685
-2.14987
2.6997
2.15555
-2.2971
-0.0218606
3.29909
-0.0537753
5.28819
-0.0879096
6.46401
-0.121701
7.99846
-0.153762
10.048
-0.175825
12.5454
-0.190434
15.2749
-0.201401
18.3009
-0.211509
21.3118
-0.22803
24.0561
-0.302289
21.7893
-0.479421
16.4918
-0.733254
12.8791
-1.01391
10.2602
-1.25977
8.12664
-1.36656
6.11643
-1.56234
4.38734
-1.88379
3.50829
-2.13553
2.95145
2.3565
-2.33648
-0.022588
3.32168
-0.0602838
5.32588
-0.0955706
6.4993
-0.130254
8.03314
-0.16282
10.0805
-0.18448
12.567
-0.198981
15.2894
-0.210214
18.3121
-0.221214
21.3228
-0.242654
24.0776
-0.328567
21.8753
-0.514765
16.678
-0.763196
13.1275
-1.0396
10.5366
-1.28749
8.37452
-1.4385
6.26744
-1.75519
4.70403
-2.24703
4.00013
-2.62221
3.32662
2.65598
-2.92169
-0.01634
3.33802
-0.0547722
5.36431
-0.0948609
6.53938
-0.135739
8.07402
-0.171228
10.116
-0.194086
12.5899
-0.208463
15.3038
-0.219588
18.3232
-0.230911
21.3342
-0.256691
24.1034
-0.356973
21.9755
-0.550839
16.8718
-0.779993
13.3567
-1.03227
10.7888
-1.29894
8.64119
-1.55461
6.52311
-1.86687
5.01629
-2.31219
4.44545
-2.80162
3.81605
2.85744
-3.00308
-0.0171048
3.35513
-0.0602074
5.40742
-0.10449
6.58367
-0.146338
8.11587
-0.183618
10.1533
-0.204436
12.6107
-0.218652
15.318
-0.228343
18.3329
-0.23882
21.3446
-0.267813
24.1324
-0.377869
22.0856
-0.571776
17.0657
-0.802126
13.587
-1.0353
11.022
-1.24627
8.85217
-1.51273
6.78956
-2.04825
5.55182
-2.44192
4.83912
-2.92595
4.30008
3.57356
-3.64207
-0.0153842
3.37051
-0.0545736
5.44661
-0.0999478
6.62904
-0.147773
8.16369
-0.188434
10.194
-0.211066
12.6333
-0.225613
15.3326
-0.233323
18.3406
-0.24274
21.3541
-0.271399
24.161
-0.3753
22.1895
-0.555399
17.2458
-0.766952
13.7986
-0.968513
11.2236
-1.11899
9.00265
-1.3857
7.05627
-1.77428
5.9404
-1.95745
5.02229
-1.42525
3.76789
2.14831
-0.0175064
3.38802
-0.0636432
5.49274
-0.111815
6.67721
-0.159215
8.21109
-0.200311
10.2351
-0.222962
12.656
-0.23868
15.3483
-0.246796
18.3487
-0.257145
21.3644
-0.287693
24.1916
-0.393318
22.2951
-0.572442
17.425
-0.777199
14.0033
-0.95694
11.4033
-1.05106
9.09677
-1.15032
7.15552
-1.1587
5.94878
-1.0254
4.88899
-0.708452
3.45094
1.43986
-0.0145781
3.40259
-0.0534197
5.53159
-0.10375
6.72754
-0.159613
8.26695
-0.205392
10.2808
-0.232208
12.6828
-0.250244
15.3663
-0.25793
18.3564
-0.267819
21.3743
-0.297206
24.221
-0.404439
22.4024
-0.57614
17.5967
-0.757826
14.185
-0.876256
11.5217
-0.932895
9.15341
-0.980591
7.20322
-1.02939
5.99758
-1.00057
4.86017
-0.811784
3.26215
0.628071
-0.0182683
3.42086
-0.0679052
5.58122
-0.120182
6.77982
-0.170277
8.31705
-0.215654
10.3262
-0.240948
12.7081
-0.259406
15.3848
-0.266217
18.3632
-0.273704
21.3818
-0.299397
24.2467
-0.403671
22.5066
-0.5586
17.7516
-0.704846
14.3313
-0.78332
11.6002
-0.844627
9.21471
-0.921402
7.28
-0.958955
6.03513
-0.881859
4.78308
-0.398909
2.7792
0.229162
-0.0107823
3.43164
-0.0522952
5.62273
-0.105275
6.8328
-0.166121
8.37789
-0.214856
10.375
-0.244226
12.7375
-0.264738
15.4053
-0.270172
18.3687
-0.27386
21.3855
-0.293278
24.2661
-0.388471
22.6018
-0.519466
17.8826
-0.624071
14.4359
-0.712346
11.6885
-0.758619
9.26099
-0.810422
7.3318
-0.798557
6.02326
-0.59649
4.58101
-0.162268
2.34498
0.0668944
-0.00957785
3.44122
-0.0659139
5.67907
-0.126374
6.89326
-0.178209
8.42973
-0.223051
10.4198
-0.248434
12.7628
-0.266124
15.423
-0.268506
18.3711
-0.265957
21.3829
-0.27704
24.2772
-0.357347
22.6821
-0.462876
17.9881
-0.555847
14.5288
-0.632545
11.7652
-0.653756
9.2822
-0.670192
7.34823
-0.614143
5.96722
-0.43464
4.40151
-0.143293
2.05363
-0.0763984
0.00154424
3.43968
-0.044043
5.72466
-0.100329
6.94954
-0.166414
8.49581
-0.214766
10.4681
-0.24351
12.7916
-0.26104
15.4405
-0.259342
18.3694
-0.249196
21.3728
-0.250621
24.2786
-0.315491
22.747
-0.402731
18.0754
-0.479538
14.6057
-0.526352
11.812
-0.524136
9.27998
-0.513458
7.33756
-0.449048
5.9028
-0.317364
4.26982
-0.0707861
1.80705
-0.147184
0.000812762
3.43887
-0.0557971
5.78127
-0.123853
7.0176
-0.173978
8.54594
-0.215257
10.5094
-0.23821
12.8145
-0.249013
15.4513
-0.240758
18.3611
-0.221301
21.3533
-0.212334
24.2696
-0.26332
22.798
-0.331033
18.1431
-0.381541
14.6562
-0.390809
11.8213
-0.378277
9.26745
-0.35474
7.31402
-0.298392
5.84646
-0.183323
4.15475
0.0076275
1.6161
-0.139557
0.0212326
3.41763
-0.0222343
5.82474
-0.0752502
7.07062
-0.144983
8.61567
-0.192706
10.5571
-0.218101
12.8399
-0.225507
15.4587
-0.211594
18.3472
-0.181979
21.3237
-0.162317
24.2499
-0.198369
22.834
-0.246177
18.1909
-0.267549
14.6775
-0.249897
11.8036
-0.218573
9.23613
-0.182132
7.27758
-0.132328
5.79665
-0.0448998
4.06733
0.0461208
1.52508
-0.0934361
0.0226046
3.39503
-0.0305953
5.87794
-0.0968943
7.13692
-0.137988
8.65676
-0.174745
10.5939
-0.190074
12.8553
-0.189524
15.4582
-0.16865
18.3263
-0.127702
21.2828
-0.0983402
24.2206
-0.117196
22.8529
-0.140954
18.2146
-0.140032
14.6766
-0.107617
11.7712
-0.0563492
9.18486
0.00950076
7.21173
0.0590975
5.74706
0.104406
4.02202
0.0671059
1.56238
-0.0263301
0.0568908
3.33814
0.0398994
5.89493
-0.0061535
7.18297
-0.0836706
8.73428
-0.126752
10.637
-0.141123
12.8696
-0.136442
15.4535
-0.109589
18.2995
-0.058691
21.2319
-0.0232394
24.1851
-0.020246
22.8499
-0.0169731
18.2114
0.0109367
14.6487
0.0508744
11.7313
0.108341
9.12739
0.170313
7.14976
0.247514
5.66986
0.269998
3.99953
0.115048
1.71733
0.0887177
0.0702728
3.26787
0.0409669
5.92423
-0.00578609
7.22972
-0.0515783
8.78007
-0.0652311
10.6506
-0.0714092
12.8758
-0.0612145
15.4433
-0.0215768
18.2598
0.0333971
21.1769
0.0834653
24.1351
0.0995446
22.8338
0.119915
18.191
0.161956
14.6067
0.220371
11.6728
0.265771
9.08199
0.324642
7.09089
0.390308
5.60419
0.390442
3.9994
0.177403
1.93037
0.266121
0.117637
3.15023
0.134747
5.90712
0.0970779
7.26739
0.0531554
8.824
0.028375
10.6754
0.0171799
12.887
0.0367223
15.4238
0.0859378
18.2106
0.160051
21.1028
0.215534
24.0796
0.239928
22.8094
0.269572
18.1614
0.315017
14.5612
0.362007
11.6259
0.398788
9.04521
0.43627
7.0534
0.469371
5.57109
0.432964
4.03581
0.221202
2.14213
0.487323
0.157826
2.9924
0.182506
5.88244
0.17038
7.27952
0.150918
8.84346
0.141681
10.6847
0.158257
12.8704
0.184399
15.3976
0.241529
18.1535
0.318472
21.0258
0.375096
24.023
0.401949
22.7826
0.423495
18.1398
0.447041
14.5377
0.461695
11.6112
0.462624
9.04428
0.470865
7.04516
0.480641
5.56131
0.437575
4.07887
0.237322
2.34239
0.724645
0.260582
2.73182
0.367367
5.77566
0.363687
7.2832
0.322882
8.88426
0.315156
10.6924
0.324745
12.8608
0.36253
15.3598
0.432527
18.0835
0.508489
20.9499
0.562272
23.9692
0.57921
22.7656
0.575218
18.1438
0.565271
14.5476
0.547454
11.629
0.52192
9.06982
0.515657
7.05143
0.509633
5.56734
0.444607
4.1439
0.234578
2.55242
0.959223
0.365249
2.36657
0.525981
5.61493
0.55258
7.2566
0.548261
8.88858
0.550623
10.69
0.566187
12.8453
0.611806
15.3142
0.683451
18.0118
0.753125
20.8802
0.795597
23.9267
0.785621
22.7756
0.741833
18.1876
0.689842
14.5996
0.639434
11.6794
0.58399
9.12526
0.536127
7.09929
0.486182
5.61728
0.394279
4.2358
0.202615
2.74408
1.16184
0.628629
1.73794
0.859254
5.3843
0.872529
7.24332
0.845152
8.91596
0.84056
10.6946
0.863481
12.8224
0.917146
15.2605
0.992467
17.9365
1.05818
20.8145
1.08248
23.9024
1.03776
22.8203
0.961211
18.2641
0.880683
14.6801
0.790321
11.7698
0.677514
9.23807
0.572271
7.20453
0.476126
5.71343
0.355335
4.35659
0.169411
2.93
1.33125
0.847691
0.89025
1.20129
5.0307
1.26001
7.18461
1.25477
8.92119
1.24075
10.7086
1.25669
12.8064
1.31699
15.2002
1.39371
17.8598
1.45461
20.7536
1.46182
23.8952
1.39491
22.8872
1.29499
18.3641
1.17572
14.7994
1.02346
11.9221
0.830085
9.43144
0.648401
7.38622
0.492806
5.86902
0.335053
4.51435
0.146444
3.11861
1.47769
0.773687
0.116563
1.58657
4.21782
1.76325
7.00793
1.75663
8.92781
1.74635
10.7189
1.76439
12.7884
1.82991
15.1347
1.90784
17.7819
1.96914
20.6923
1.97752
23.8868
1.90549
22.9593
1.76865
18.5009
1.58491
14.9832
1.36907
12.1379
1.11497
9.68554
0.872114
7.62907
0.6602
6.08094
0.446116
4.72843
0.206487
3.35824
1.68418
0.617835
-0.501272
1.76318
3.07247
2.18495
6.58616
2.27983
8.83293
2.31663
10.6821
2.36643
12.7386
2.45962
15.0415
2.56932
17.6722
2.66214
20.5995
2.6903
23.8587
2.60218
23.0474
2.42168
18.6814
2.18544
15.2194
1.91798
12.4054
1.60895
9.99457
1.27327
7.96476
0.947683
6.40652
0.626781
5.04933
0.292044
3.69298
1.97622
0.428965
-0.930237
1.5759
1.92554
2.11767
6.04439
2.29311
8.65749
2.33466
10.6406
2.34669
12.7266
2.36347
15.0247
2.37625
17.6594
2.35114
20.6246
2.24093
23.9689
2.04959
23.2387
1.83688
18.8941
1.6063
15.45
1.35037
12.6613
1.09552
10.2494
0.866867
8.19341
0.655977
6.61741
0.445114
5.26019
0.212519
3.92557
2.18874
0.0953379
-1.02558
0.56565
1.45523
1.07277
5.53726
1.36606
8.3642
1.49302
10.5136
1.57975
12.6398
1.67804
14.9265
1.76935
17.5681
1.80362
20.5903
1.74189
24.0306
1.59528
23.3853
1.42191
19.0675
1.24053
15.6313
1.05287
12.8489
0.842493
10.4598
0.639031
8.39687
0.469264
6.78718
0.308527
5.42093
0.144047
4.09005
2.33279
-0.0651544
-0.960421
-0.182934
1.57301
0.0701738
5.28415
0.340415
8.09396
0.600045
10.254
0.840583
12.3993
1.03899
14.728
1.2034
17.4037
1.30356
20.4901
1.30821
24.026
1.21573
23.4778
1.0911
19.1921
0.953016
15.7694
0.803573
12.9984
0.641429
10.6219
0.478609
8.55969
0.344755
6.92103
0.219117
5.54657
0.0903294
4.21884
2.42312
-0.333394
-0.627027
-0.702387
1.942
-0.714422
5.29619
-0.441293
7.82083
-0.0966562
9.90933
0.204846
12.0978
0.474676
14.4582
0.700923
17.1774
0.862261
20.3288
0.930265
23.958
0.903481
23.5046
0.82483
19.2708
0.723467
15.8708
0.61096
13.1109
0.488034
10.7449
0.358195
8.68953
0.253994
7.02524
0.15836
5.6422
0.0620359
4.31516
2.48516
-0.432021
-0.195006
-0.812124
2.32211
-0.853962
5.33803
-0.703374
7.67024
-0.476492
9.68245
-0.193959
11.8153
0.0899385
14.1743
0.33331
16.9341
0.525542
20.1366
0.634938
23.8486
0.652373
23.4872
0.610718
19.3124
0.543244
15.9383
0.465636
13.1885
0.375725
10.8348
0.275818
8.78944
0.194596
7.10646
0.113707
5.72309
0.0295637
4.39931
2.51472
-0.36971
0.174704
-0.71926
2.67166
-0.765541
5.38431
-0.683357
7.58806
-0.547693
9.54678
-0.355464
11.623
-0.119155
13.938
0.0966665
16.7182
0.286558
19.9467
0.413111
23.722
0.456453
23.4438
0.442942
19.3259
0.405084
15.9761
0.35644
13.2372
0.291915
10.8993
0.210592
8.87076
0.136175
7.18087
0.061848
5.79742
-0.00695323
4.46811
2.50777
-0.361317
0.536021
-0.622978
2.93332
-0.645829
5.40716
-0.573264
7.51549
-0.466727
9.44025
-0.350488
11.5068
-0.208442
13.796
-0.0247769
16.5346
0.133971
19.7879
0.25719
23.5988
0.312726
23.3883
0.318576
19.3201
0.300897
15.9938
0.269396
13.2687
0.219726
10.949
0.151082
8.93941
0.0833726
7.24858
0.0180124
5.86278
-0.0326721
4.51879
2.47509
-0.282364
0.818385
-0.499374
3.15033
-0.545747
5.45353
-0.482191
7.45194
-0.386991
9.34505
-0.290301
11.4101
-0.194899
13.7006
-0.077644
16.4173
0.0491506
19.6611
0.156977
23.491
0.212634
23.3326
0.227764
19.3049
0.219405
16.0022
0.197433
13.2906
0.159111
10.9873
0.100984
8.99753
0.0419843
7.30758
-0.015238