/*--------------------------------*- C++ -*----------------------------------*\
| =========                 |                                                 |
| \\      /  F ield         | OpenFOAM: The Open Source CFD Toolbox           |
|  \\    /   O peration     | Version:  2412                                  |
|   \\  /    A nd           | Website:  www.openfoam.com                      |
|    \\/     M anipulation  |                                                 |
\*---------------------------------------------------------------------------*/
FoamFile
{
    version     2.0;
    format      ascii;
    arch        "LSB;label=32;scalar=64";
    class       volVectorField;
    location    "7";
    object      U;
}
// * * * * * * * * * * * * * * * * * * * * * * * * * * * * * * * * * * * * * //

dimensions      [0 1 -1 0 0 0 0];

internalField   nonuniform List<vector> 
2200
(
(0.378995 -7.35072e-05 0)
(1.19411 0.000664021 0)
(2.12288 0.00144793 0)
(3.16868 0.00216423 0)
(4.32516 0.00308016 0)
(5.57143 0.00389888 0)
(6.8634 0.00483931 0)
(8.12007 0.0051559 0)
(9.20644 0.0059116 0)
(9.90115 0.00665433 0)
(9.90125 0.00667504 0)
(9.20774 0.00635788 0)
(8.12176 0.00525858 0)
(6.86464 0.00468441 0)
(5.57185 0.00412289 0)
(4.32503 0.00320476 0)
(3.16831 0.00253429 0)
(2.12228 0.00214079 0)
(1.19242 0.00158881 0)
(0.37605 0.00131351 0)
(0.382203 0.00082544 0)
(1.19666 0.00173704 0)
(2.12586 0.00408509 0)
(3.17165 0.00606204 0)
(4.32903 0.0093605 0)
(5.57578 0.0116915 0)
(6.86679 0.0143573 0)
(8.12345 0.0172835 0)
(9.20873 0.0189503 0)
(9.90086 0.0190919 0)
(9.90016 0.0183612 0)
(9.20398 0.0168374 0)
(8.11817 0.0153604 0)
(6.86067 0.0135576 0)
(5.56859 0.0109672 0)
(4.32169 0.00904341 0)
(3.16397 0.00692688 0)
(2.11644 0.00480801 0)
(1.18468 0.00348526 0)
(0.370475 0.000461196 0)
(0.388883 0.00214305 0)
(1.20309 0.00334817 0)
(2.13219 0.00680273 0)
(3.17773 0.0110979 0)
(4.33329 0.0149279 0)
(5.57805 0.0200701 0)
(6.87007 0.0236587 0)
(8.12512 0.0269057 0)
(9.21053 0.0308389 0)
(9.89953 0.0323972 0)
(9.89842 0.031041 0)
(9.2028 0.0288085 0)
(8.11478 0.0256378 0)
(6.85625 0.0214423 0)
(5.56238 0.0175987 0)
(4.31409 0.0135698 0)
(3.15604 0.00965034 0)
(2.10815 0.00597766 0)
(1.17625 0.00300469 0)
(0.36591 -0.000851988 0)
(0.400915 0.00361804 0)
(1.21311 0.00583069 0)
(2.14382 0.0116066 0)
(3.1886 0.0167093 0)
(4.34502 0.0226225 0)
(5.58887 0.0272062 0)
(6.87686 0.0325485 0)
(8.13027 0.038067 0)
(9.21512 0.0426752 0)
(9.89954 0.0439674 0)
(9.89635 0.0423249 0)
(9.19621 0.038722 0)
(8.10719 0.0340043 0)
(6.84742 0.0288373 0)
(5.55363 0.0226045 0)
(4.30616 0.0173007 0)
(3.14717 0.0114968 0)
(2.09787 0.00636717 0)
(1.16596 0.00295788 0)
(0.363 -0.00151491 0)
(0.424007 0.00487278 0)
(1.23298 0.00866806 0)
(2.16155 0.0168251 0)
(3.20592 0.0229523 0)
(4.35638 0.0288763 0)
(5.59841 0.036663 0)
(6.88531 0.0435947 0)
(8.13565 0.049401 0)
(9.2191 0.0545674 0)
(9.89646 0.0568005 0)
(9.89262 0.0544902 0)
(9.1921 0.0500646 0)
(8.10061 0.0432692 0)
(6.83922 0.035126 0)
(5.54369 0.0278007 0)
(4.29329 0.0192618 0)
(3.13336 0.0138595 0)
(2.08381 0.00741433 0)
(1.15241 0.00347576 0)
(0.360797 -0.00141686 0)
(0.448957 0.00366739 0)
(1.25095 0.00956707 0)
(2.1809 0.0183589 0)
(3.22383 0.0271 0)
(4.37783 0.0378508 0)
(5.61608 0.0457244 0)
(6.89817 0.0526608 0)
(8.1457 0.0597371 0)
(9.22792 0.0671126 0)
(9.89731 0.0690276 0)
(9.88987 0.0652806 0)
(9.18383 0.0589123 0)
(8.08924 0.051155 0)
(6.82605 0.0418252 0)
(5.53017 0.030086 0)
(4.28179 0.0217148 0)
(3.12322 0.0141262 0)
(2.07314 0.00887807 0)
(1.13856 0.00300561 0)
(0.358746 0.000205414 0)
(0.47258 0.00105085 0)
(1.27591 0.0115933 0)
(2.20964 0.017699 0)
(3.25457 0.0324008 0)
(4.40021 0.0451817 0)
(5.63473 0.0562916 0)
(6.91274 0.0649579 0)
(8.15524 0.0720916 0)
(9.23438 0.0793666 0)
(9.89438 0.0818525 0)
(9.88531 0.0778164 0)
(9.17688 0.0705522 0)
(8.08109 0.0593765 0)
(6.81739 0.0461146 0)
(5.52074 0.0340806 0)
(4.27012 0.0226297 0)
(3.10723 0.0155058 0)
(2.05825 0.0104355 0)
(1.12264 0.00214101 0)
(0.350931 0.00270409 0)
(0.496313 0.00056823 0)
(1.3109 0.016648 0)
(2.24635 0.024228 0)
(3.28266 0.0390845 0)
(4.43032 0.0543848 0)
(5.66272 0.0660977 0)
(6.93667 0.0759504 0)
(8.17229 0.0856917 0)
(9.2477 0.0942911 0)
(9.89559 0.0956263 0)
(9.88216 0.0888832 0)
(9.16789 0.0785663 0)
(8.06647 0.0654625 0)
(6.7996 0.0511871 0)
(5.50046 0.0376635 0)
(4.24874 0.0258553 0)
(3.09044 0.0155251 0)
(2.0405 0.0100644 0)
(1.11139 0.000179763 0)
(0.339851 0.00420873 0)
(0.532823 0.00212543 0)
(1.36728 0.022709 0)
(2.28131 0.0301628 0)
(3.30947 0.0457113 0)
(4.44773 0.0585898 0)
(5.67964 0.0729543 0)
(6.95028 0.087769 0)
(8.18389 0.0995618 0)
(9.25866 0.108783 0)
(9.89429 0.109597 0)
(9.8766 0.102476 0)
(9.15778 0.0911757 0)
(8.05431 0.0760151 0)
(6.78375 0.0585909 0)
(5.48314 0.041479 0)
(4.22846 0.0290764 0)
(3.06572 0.0156135 0)
(2.02307 0.00488666 0)
(1.1095 -0.00339709 0)
(0.333662 0.00382105 0)
(0.575196 0.00429242 0)
(1.41688 0.0266245 0)
(2.30852 0.0396697 0)
(3.33445 0.0506524 0)
(4.47934 0.0630736 0)
(5.70657 0.0811245 0)
(6.97467 0.0986647 0)
(8.20306 0.112104 0)
(9.27364 0.124023 0)
(9.89426 0.126413 0)
(9.87206 0.115976 0)
(9.14499 0.101929 0)
(8.03205 0.0841895 0)
(6.75567 0.0656627 0)
(5.44906 0.0500945 0)
(4.19375 0.0354766 0)
(3.03381 0.0165031 0)
(1.99103 0.00174394 0)
(1.11787 -0.00709054 0)
(0.335214 0.00290513 0)
(0.639163 0.00523068 0)
(1.50577 0.0289877 0)
(2.34503 0.0456229 0)
(3.36728 0.0564047 0)
(4.50081 0.066885 0)
(5.72325 0.0878662 0)
(6.98723 0.107782 0)
(8.21343 0.124838 0)
(9.28358 0.139603 0)
(9.89047 0.142009 0)
(9.86167 0.132326 0)
(9.12678 0.117616 0)
(8.01003 0.0996824 0)
(6.72884 0.0788508 0)
(5.41833 0.0572989 0)
(4.15778 0.0399864 0)
(2.99162 0.0207735 0)
(1.94546 0.00181189 0)
(1.1247 -0.00651432 0)
(0.338883 0.00259727 0)
(0.686008 0.00694559 0)
(1.55835 0.0276501 0)
(2.37141 0.0507666 0)
(3.40178 0.0610014 0)
(4.54362 0.0792927 0)
(5.7585 0.10197 0)
(7.01517 0.120216 0)
(8.23438 0.138246 0)
(9.29523 0.157223 0)
(9.8847 0.162208 0)
(9.85026 0.150096 0)
(9.10409 0.133626 0)
(7.97579 0.112826 0)
(6.68552 0.0896141 0)
(5.37361 0.0662527 0)
(4.11831 0.0438834 0)
(2.95591 0.0236552 0)
(1.90364 0.00301227 0)
(1.13573 -0.00307133 0)
(0.342022 0.00257736 0)
(0.766599 0.0071583 0)
(1.66772 0.0308896 0)
(2.42725 0.0580062 0)
(3.45909 0.0709653 0)
(4.57856 0.0945524 0)
(5.78443 0.114643 0)
(7.03504 0.133011 0)
(8.24439 0.155081 0)
(9.30218 0.175194 0)
(9.87521 0.180996 0)
(9.83213 0.170868 0)
(9.07441 0.153844 0)
(7.94238 0.130595 0)
(6.65522 0.103517 0)
(5.33929 0.0705227 0)
(4.07976 0.0410335 0)
(2.9154 0.029147 0)
(1.85937 0.00447621 0)
(1.13326 0.00163489 0)
(0.335392 0.00173364 0)
(0.812619 0.00892813 0)
(1.72792 0.0281732 0)
(2.46823 0.0593774 0)
(3.5155 0.0796315 0)
(4.63453 0.113727 0)
(5.83619 0.136195 0)
(7.07471 0.15733 0)
(8.27431 0.179667 0)
(9.31467 0.201021 0)
(9.86366 0.205689 0)
(9.81065 0.194662 0)
(9.0425 0.17304 0)
(7.90171 0.141925 0)
(6.60425 0.10759 0)
(5.29073 0.0760746 0)
(4.03331 0.0430898 0)
(2.88414 0.0325828 0)
(1.8226 0.00294758 0)
(1.13505 0.00450015 0)
(0.327585 0.00116733 0)
(0.90842 0.0106045 0)
(1.85129 0.0361519 0)
(2.5509 0.0744226 0)
(3.59306 0.0897448 0)
(4.6828 0.133205 0)
(5.87825 0.157712 0)
(7.10868 0.181764 0)
(8.29362 0.20765 0)
(9.32723 0.228075 0)
(9.85063 0.233835 0)
(9.78798 0.219013 0)
(9.00858 0.194475 0)
(7.86185 0.157814 0)
(6.57174 0.120129 0)
(5.25394 0.0787221 0)
(3.98614 0.0468887 0)
(2.83351 0.037412 0)
(1.78208 0.00130901 0)
(1.12816 0.00739872 0)
(0.311572 0.000578766 0)
(0.967121 0.0110687 0)
(1.92621 0.0336065 0)
(2.62562 0.0800126 0)
(3.66731 0.100323 0)
(4.76418 0.147469 0)
(5.94955 0.180767 0)
(7.16433 0.215074 0)
(8.33979 0.245058 0)
(9.34958 0.267495 0)
(9.84235 0.26801 0)
(9.76391 0.249474 0)
(8.97224 0.215042 0)
(7.81715 0.169202 0)
(6.50946 0.120076 0)
(5.19395 0.0887109 0)
(3.93408 0.0523647 0)
(2.77794 0.034333 0)
(1.75483 -0.00401524 0)
(1.12999 0.0068758 0)
(0.303779 0.000380901 0)
(1.0852 0.0163501 0)
(2.07234 0.0463684 0)
(2.72676 0.103654 0)
(3.74188 0.116354 0)
(4.82709 0.170629 0)
(6.00714 0.204959 0)
(7.21127 0.248934 0)
(8.37727 0.284038 0)
(9.37167 0.308133 0)
(9.8323 0.309731 0)
(9.74324 0.279307 0)
(8.93649 0.239777 0)
(7.77045 0.18744 0)
(6.46675 0.138437 0)
(5.14767 0.0936498 0)
(3.88092 0.0565571 0)
(2.70572 0.028833 0)
(1.72654 -0.00512073 0)
(1.12794 0.00727155 0)
(0.286238 0.000819497 0)
(1.19189 0.0136972 0)
(2.20398 0.0497346 0)
(2.85426 0.112226 0)
(3.84614 0.14752 0)
(4.93993 0.198889 0)
(6.09649 0.243035 0)
(7.27967 0.290221 0)
(8.43296 0.329349 0)
(9.401 0.359328 0)
(9.8294 0.357395 0)
(9.71756 0.321547 0)
(8.88765 0.270032 0)
(7.70641 0.21071 0)
(6.37731 0.147589 0)
(5.05145 0.105307 0)
(3.80734 0.0573813 0)
(2.629 0.022185 0)
(1.70655 -0.00704863 0)
(1.13869 0.0044481 0)
(0.279795 0.00180233 0)
(1.32346 0.0235096 0)
(2.36735 0.0595326 0)
(2.97949 0.134243 0)
(3.94096 0.167893 0)
(5.02742 0.225752 0)
(6.16851 0.276509 0)
(7.33798 0.329849 0)
(8.48308 0.376246 0)
(9.42053 0.412158 0)
(9.81374 0.411066 0)
(9.68673 0.36601 0)
(8.83227 0.30879 0)
(7.63581 0.24238 0)
(6.31402 0.17682 0)
(4.98736 0.111053 0)
(3.74524 0.0580217 0)
(2.55852 0.0182034 0)
(1.6938 -0.00888227 0)
(1.14626 0.00658414 0)
(0.263584 0.00221347 0)
(1.51088 0.0194043 0)
(2.56016 0.0716916 0)
(3.16253 0.141495 0)
(4.08289 0.206535 0)
(5.16478 0.267183 0)
(6.2691 0.324761 0)
(7.42242 0.382977 0)
(8.54295 0.436741 0)
(9.44041 0.47552 0)
(9.79325 0.475038 0)
(9.63835 0.425825 0)
(8.75182 0.359481 0)
(7.53644 0.279515 0)
(6.1911 0.196233 0)
(4.85919 0.12481 0)
(3.6427 0.0638199 0)
(2.47312 0.0187497 0)
(1.68205 -0.00396506 0)
(1.16384 0.00578035 0)
(0.249558 0.00589088 0)
(1.65257 0.0298194 0)
(2.76142 0.0744325 0)
(3.3348 0.169837 0)
(4.22998 0.225668 0)
(5.29972 0.308256 0)
(6.37498 0.376678 0)
(7.50185 0.439977 0)
(8.60329 0.506823 0)
(9.45065 0.550991 0)
(9.75603 0.545441 0)
(9.57407 0.490865 0)
(8.66097 0.41181 0)
(7.43122 0.319893 0)
(6.09687 0.232465 0)
(4.77521 0.138102 0)
(3.55434 0.0710551 0)
(2.40663 0.0184744 0)
(1.67141 0.000439796 0)
(1.17054 0.0143071 0)
(0.220329 0.00800947 0)
(1.92178 0.0274477 0)
(3.00532 0.0955089 0)
(3.56522 0.179937 0)
(4.41268 0.266754 0)
(5.46446 0.35375 0)
(6.50777 0.439803 0)
(7.61002 0.520106 0)
(8.68315 0.599665 0)
(9.46162 0.643035 0)
(9.7139 0.63735 0)
(9.49889 0.566088 0)
(8.55217 0.475536 0)
(7.30124 0.363126 0)
(5.95426 0.251166 0)
(4.62577 0.150582 0)
(3.41561 0.080314 0)
(2.32689 0.0256973 0)
(1.67241 0.00703212 0)
(1.17222 0.016182 0)
(0.169978 0.0166662 0)
(2.10347 0.0386277 0)
(3.26738 0.0965958 0)
(3.80463 0.220685 0)
(4.62348 0.304801 0)
(5.65 0.417985 0)
(6.66294 0.525564 0)
(7.73369 0.6203 0)
(8.76363 0.71257 0)
(9.46763 0.756545 0)
(9.66512 0.736203 0)
(9.4077 0.65156 0)
(8.42924 0.537423 0)
(7.16641 0.398908 0)
(5.82906 0.275073 0)
(4.52472 0.173393 0)
(3.30893 0.0839757 0)
(2.26349 0.0282559 0)
(1.66548 0.0135963 0)
(1.19401 0.0258721 0)
(0.102634 0.0190439 0)
(2.46884 0.0408761 0)
(3.58162 0.131819 0)
(4.099 0.246522 0)
(4.88631 0.37217 0)
(5.87326 0.502118 0)
(6.85281 0.628617 0)
(7.87413 0.745396 0)
(8.87798 0.853984 0)
(9.47684 0.889322 0)
(9.61619 0.864565 0)
(9.31872 0.744445 0)
(8.30223 0.602837 0)
(7.02207 0.443151 0)
(5.65602 0.293497 0)
(4.34996 0.187497 0)
(3.13909 0.088801 0)
(2.19003 0.0416166 0)
(1.66056 0.0305884 0)
(1.17339 0.0381594 0)
(0.00572983 0.0247899 0)
(2.72476 0.059422 0)
(3.93088 0.14266 0)
(4.42834 0.31468 0)
(5.16627 0.453306 0)
(6.12329 0.613442 0)
(7.06149 0.762462 0)
(8.03871 0.904335 0)
(8.97911 1.01685 0)
(9.47453 1.04683 0)
(9.56712 0.998513 0)
(9.21624 0.849345 0)
(8.1485 0.680284 0)
(6.83401 0.497117 0)
(5.4767 0.339276 0)
(4.22041 0.205459 0)
(3.03176 0.0926364 0)
(2.15592 0.0543002 0)
(1.6948 0.0432422 0)
(1.14602 0.0531902 0)
(-0.113114 0.0423635 0)
(3.2961 0.0837778 0)
(4.36748 0.227738 0)
(4.81569 0.410815 0)
(5.52987 0.606375 0)
(6.42779 0.782787 -9.49412e-33)
(7.30143 0.950066 3.3911e-33)
(8.22221 1.09447 0)
(9.08115 1.20362 0)
(9.45809 1.21539 0)
(9.49596 1.15949 0)
(9.0853 0.973238 0)
(7.9554 0.779502 0)
(6.62981 0.571527 0)
(5.25874 0.357757 0)
(4.0125 0.221526 0)
(2.86004 0.0928029 0)
(2.09563 0.0544688 0)
(1.69979 0.0569179 0)
(1.0756 0.0638058 0)
(-0.345481 0.0370614 0)
(3.85416 0.213151 -1.1023e-18)
(4.79371 0.324729 9.20264e-19)
(5.21988 0.592004 0)
(5.8876 0.79795 -5.20402e-19)
(6.72636 1.00598 4.20426e-19)
(7.54769 1.17225 -3.59654e-33)
(8.42393 1.33571 0)
(9.13793 1.42834 -3.41067e-20)
(9.38924 1.42838 -2.39784e-20)
(9.36741 1.34808 2.7009e-20)
(8.87299 1.12904 0)
(7.67296 0.891995 -3.1814e-19)
(6.31074 0.637249 -3.92279e-19)
(4.98073 0.402951 6.75944e-19)
(3.78249 0.224319 -5.52017e-19)
(2.70879 0.106859 0)
(2.08522 0.0641022 -2.1382e-19)
(1.72841 0.0530471 0)
(1.02813 0.0419162 -1.09078e-18)
(-0.534842 -0.001705 1.28857e-18)
(4.20158 0.412126 8.3265e-20)
(5.1893 0.583247 -4.06664e-18)
(5.53535 0.852907 6.13435e-19)
(6.15594 1.05668 2.16286e-18)
(6.94532 1.25335 9.16518e-19)
(7.71225 1.43546 -1.4433e-18)
(8.53461 1.61064 0)
(9.12494 1.6916 0)
(9.28897 1.68694 8.84848e-20)
(9.20719 1.57467 0)
(8.64833 1.31044 1.09624e-18)
(7.41528 1.03667 3.47858e-19)
(6.0597 0.728471 -3.72105e-20)
(4.75704 0.467764 -8.73568e-19)
(3.54036 0.25426 0)
(2.64025 0.126424 0)
(2.09182 0.0838417 -3.72419e-18)
(1.81112 0.0762999 9.38799e-18)
(1.244 0.0705832 -5.55112e-18)
(-0.427611 -0.0348992 -6.49981e-18)
(4.43781 0.653074 3.81542e-18)
(5.43453 0.906929 -1.46977e-18)
(5.7775 1.13506 -5.25144e-19)
(6.35403 1.31393 -3.982e-18)
(7.093 1.5343 3.69516e-19)
(7.80738 1.72224 3.92145e-18)
(8.58086 1.90293 -1.09207e-18)
(9.07189 1.9713 0)
(9.17971 1.95753 -2.88769e-19)
(9.05387 1.816 1.34068e-18)
(8.45295 1.50884 -3.10737e-18)
(7.19043 1.19158 1.63585e-18)
(5.85014 0.848465 -1.31022e-18)
(4.55843 0.554989 2.79113e-18)
(3.464 0.356563 0)
(2.65941 0.223411 -1.07158e-18)
(2.19733 0.206035 0)
(1.94812 0.211566 5.75667e-18)
(1.303 0.117094 -1.35974e-17)
(-0.306802 -0.0370503 8.52974e-18)
(4.59375 0.893799 -1.57079e-17)
(5.67238 1.27794 8.16704e-18)
(5.95998 1.46823 1.41964e-18)
(6.4949 1.63286 0)
(7.1836 1.83866 2.62296e-18)
(7.85454 2.02946 -3.0805e-18)
(8.58024 2.20304 1.06665e-18)
(8.99006 2.26093 0)
(9.05135 2.23756 2.29761e-19)
(8.89024 2.06654 -8.75019e-19)
(8.2614 1.72445 3.17959e-18)
(7.0024 1.35739 0)
(5.70461 0.979983 -2.879e-18)
(4.45216 0.652685 1.53347e-18)
(3.38234 0.423099 4.14183e-18)
(2.67 0.286094 -3.68019e-18)
(2.28447 0.260988 5.81628e-18)
(2.06421 0.277656 -1.28626e-17)
(1.53343 0.215995 8.14176e-18)
(-0.0359051 0.0105399 -1.01669e-17)
(4.68042 1.12876 8.82023e-18)
(5.7752 1.59543 -8.55719e-18)
(6.08341 1.7538 4.56901e-18)
(6.57567 1.9237 -6.95836e-18)
(7.22472 2.15424 5.31648e-18)
(7.8637 2.3412 -1.18472e-18)
(8.53329 2.51237 5.75398e-20)
(8.87033 2.56112 7.63694e-19)
(8.89437 2.52002 -4.34496e-19)
(8.70071 2.3216 -2.41735e-18)
(8.05795 1.94401 -7.16607e-18)
(6.8272 1.52984 -2.68923e-18)
(5.55228 1.11896 -4.15854e-20)
(4.34459 0.77492 -6.08412e-18)
(3.42011 0.542547 -1.12798e-19)
(2.80247 0.43376 5.68844e-18)
(2.47112 0.441624 -1.77736e-18)
(2.2608 0.478655 -9.68353e-19)
(1.67875 0.323978 0)
(0.0671859 0.0397475 2.33766e-17)
(4.72384 1.33622 0)
(5.87305 1.94997 2.41235e-18)
(6.15432 2.07422 0)
(6.60786 2.24218 -2.98602e-19)
(7.22487 2.45951 -5.94389e-18)
(7.83134 2.65843 2.38178e-18)
(8.44788 2.82924 -1.28674e-18)
(8.72542 2.86779 -8.9238e-19)
(8.71742 2.805 -5.48527e-19)
(8.49232 2.57765 5.54578e-19)
(7.84949 2.1641 4.02714e-18)
(6.66209 1.70681 6.05695e-18)
(5.42545 1.25954 -3.9023e-18)
(4.2876 0.884849 6.87742e-18)
(3.39485 0.637418 -5.49526e-18)
(2.84602 0.546296 0)
(2.57975 0.533259 -1.39359e-17)
(2.36925 0.561043 1.86921e-17)
(1.85024 0.43599 1.44126e-18)
(0.33148 0.120415 -2.61872e-17)
(4.72944 1.52733 -3.26332e-19)
(5.89706 2.23519 -5.94268e-18)
(6.19446 2.33827 -2.03929e-17)
(6.61392 2.51876 1.23993e-17)
(7.18791 2.76249 -3.87309e-18)
(7.7667 2.97118 2.65086e-18)
(8.33275 3.14387 -2.86629e-18)
(8.56465 3.17486 8.16984e-19)
(8.53139 3.09016 -1.39239e-18)
(8.28068 2.83353 -2.45081e-19)
(7.64411 2.38357 -4.9879e-18)
(6.50989 1.89139 -7.046e-18)
(5.30917 1.4077 4.4942e-18)
(4.2507 1.02663 -2.55553e-18)
(3.50687 0.806039 6.26813e-18)
(3.06378 0.730387 0)
(2.8341 0.745029 -9.05225e-18)
(2.6313 0.785784 1.34424e-17)
(2.08922 0.60267 2.56029e-17)
(0.488171 0.210785 -3.00115e-17)
(4.71699 1.69197 -2.78068e-17)
(5.90808 2.5364 1.5028e-17)
(6.2052 2.6158 1.31382e-17)
(6.58533 2.81995 -1.32841e-17)
(7.12965 3.05955 3.33212e-19)
(7.68319 3.27734 6.00759e-18)
(8.20112 3.45167 1.10422e-18)
(8.39722 3.47544 -3.51877e-20)
(8.34684 3.37175 -1.61987e-18)
(8.07771 3.09044 2.34022e-18)
(7.4473 2.60522 4.45807e-18)
(6.36541 2.08437 1.10602e-17)
(5.21064 1.56684 0)
(4.23257 1.16705 2.42943e-19)
(3.52826 0.947276 -1.80445e-17)
(3.09991 0.894454 4.23221e-18)
(2.89763 0.904583 2.0387e-17)
(2.69777 0.954757 -5.96276e-18)
(2.18628 0.760426 1.273e-17)
(0.575128 0.27224 -1.01689e-18)
(4.66698 1.88512 4.71548e-19)
(5.89135 2.78273 1.33251e-17)
(6.19382 2.83494 9.54643e-18)
(6.53597 3.07394 -2.2059e-17)
(7.05174 3.3384 1.59452e-17)
(7.57989 3.57102 -6.55998e-18)
(8.05454 3.74587 -1.1854e-18)
(8.22381 3.76341 -8.44134e-19)
(8.16025 3.6427 1.74136e-18)
(7.87936 3.34282 -4.16027e-18)
(7.25249 2.82782 0)
(6.21741 2.28119 -4.56835e-18)
(5.11191 1.73622 5.23457e-18)
(4.22272 1.343 6.7989e-18)
(3.64803 1.17356 -3.9827e-18)
(3.31739 1.12921 -9.52853e-18)
(3.13065 1.12986 -2.90402e-18)
(2.90835 1.17685 -1.37208e-19)
(2.33889 0.922776 0)
(0.66375 0.343021 0)
(4.62363 2.05198 -1.35808e-17)
(5.85821 3.02808 0)
(6.16076 3.07744 1.03964e-17)
(6.47331 3.33276 -4.47033e-18)
(6.9596 3.60322 -1.63095e-17)
(7.46565 3.84948 4.62777e-18)
(7.90213 4.02328 -1.26833e-18)
(8.04836 4.03545 9.46771e-19)
(7.97494 3.90069 1.12748e-18)
(7.68389 3.58663 -2.31822e-18)
(7.06174 3.04891 2.73529e-18)
(6.07241 2.47757 1.46595e-17)
(5.02906 1.91035 4.60054e-19)
(4.22128 1.52116 -7.21128e-18)
(3.6675 1.34243 1.34991e-17)
(3.31812 1.30551 9.5448e-20)
(3.15337 1.31723 3.11643e-18)
(2.95425 1.34736 -1.52903e-17)
(2.40166 1.07455 1.56086e-17)
(0.682039 0.381089 -1.84668e-17)
(4.56551 2.21742 -1.64437e-21)
(5.82261 3.25013 0)
(6.11853 3.26776 0)
(6.38729 3.55301 4.32485e-18)
(6.84694 3.84553 6.03541e-18)
(7.33875 4.10709 -3.80245e-18)
(7.74137 4.28071 3.9006e-18)
(7.86979 4.28856 0)
(7.78878 4.14249 -2.20251e-18)
(7.49059 3.81796 6.50002e-18)
(6.87386 3.26375 9.15298e-18)
(5.92494 2.67022 -5.56828e-18)
(4.9356 2.09024 -6.84082e-18)
(4.20071 1.72414 1.61116e-17)
(3.75231 1.58678 -4.82483e-18)
(3.48952 1.55261 -5.74669e-18)
(3.32407 1.54632 -3.54764e-18)
(3.07871 1.57597 -1.68734e-17)
(2.45668 1.20661 2.34948e-18)
(0.677456 0.416528 2.00522e-17)
(4.5093 2.35315 -5.27858e-18)
(5.76693 3.45571 -8.01525e-18)
(6.05774 3.48149 5.10536e-19)
(6.293 3.77383 -1.04623e-20)
(6.73256 4.06775 2.3189e-18)
(7.20819 4.34118 -8.6785e-18)
(7.58178 4.51675 0)
(7.69505 4.52344 6.7515e-20)
(7.6083 4.36837 -5.34156e-20)
(7.30434 4.03686 1.07989e-17)
(6.69238 3.47085 -2.10155e-18)
(5.78182 2.85785 2.56635e-18)
(4.85415 2.27427 0)
(4.18089 1.91807 -8.77831e-18)
(3.73756 1.76977 1.08172e-17)
(3.43905 1.72766 0)
(3.29552 1.69736 -7.79121e-18)
(3.08953 1.7167 2.27641e-17)
(2.46469 1.33373 2.76598e-18)
(0.650939 0.428691 -2.46076e-17)
(4.45694 2.5007 -1.11311e-17)
(5.71936 3.67158 1.36963e-17)
(5.99008 3.66876 0)
(6.1929 3.9726 9.91371e-18)
(6.61192 4.27342 0)
(7.07466 4.55569 8.65825e-18)
(7.42176 4.73075 0)
(7.52338 4.73881 0)
(7.43373 4.57778 -1.20227e-18)
(7.12255 4.24134 -1.06281e-17)
(6.5149 3.66692 -1.71708e-17)
(5.6347 3.03758 3.25302e-18)
(4.75546 2.46312 1.20182e-17)
(4.13365 2.12963 9.85862e-18)
(3.77014 2.00794 -3.48387e-17)
(3.55834 1.97813 -1.41103e-17)
(3.39721 1.91803 8.27121e-18)
(3.13754 1.91383 0)
(2.44807 1.43036 2.40468e-17)
(0.597374 0.437733 -2.6945e-17)
(4.39197 2.61588 1.19935e-17)
(5.64973 3.84983 -1.47386e-17)
(5.91888 3.86457 0)
(6.09724 4.16982 -3.5132e-19)
(6.50017 4.46651 -4.01101e-18)
(6.94947 4.75289 0)
(7.27008 4.92567 -7.96939e-19)
(7.36068 4.93609 7.35326e-19)
(7.26641 4.77141 -1.37264e-18)
(6.94798 4.43267 1.01002e-18)
(6.34255 3.85125 0)
(5.4896 3.20858 1.32054e-17)
(4.66496 2.65014 1.3502e-19)
(4.0971 2.32994 5.35372e-18)
(3.71763 2.17739 6.37598e-18)
(3.46138 2.13458 0)
(3.32181 2.05526 -1.39781e-17)
(3.10212 2.01944 2.73928e-17)
(2.39752 1.51663 -2.91301e-17)
(0.51938 0.422705 5.89926e-17)
(4.34766 2.7439 0)
(5.59255 4.04547 0)
(5.84281 4.03807 -7.82851e-18)
(6.00212 4.34885 0)
(6.39006 4.64624 0)
(6.82792 4.93656 9.74949e-18)
(7.12215 5.10382 -8.42886e-19)
(7.20197 5.11549 7.31799e-19)
(7.10278 4.94775 -4.65261e-20)
(6.7765 4.60826 0)
(6.17374 4.02258 -2.83403e-18)
(5.34498 3.37129 -1.09305e-17)
(4.55991 2.83371 -1.34441e-17)
(4.03419 2.54545 -5.47522e-18)
(3.71121 2.4024 7.00452e-18)
(3.52881 2.36593 -1.65367e-17)
(3.36148 2.27274 3.02805e-17)
(3.0768 2.18116 4.14751e-19)
(2.31346 1.56472 -2.74356e-17)
(0.418206 0.394193 -4.08622e-18)
(4.28842 2.85973 0)
(5.5235 4.20833 -1.07221e-17)
(5.77502 4.2147 8.75068e-18)
(5.9179 4.52404 0)
(6.29294 4.81748 0)
(6.71503 5.10699 -2.0879e-17)
(6.98334 5.26787 0)
(7.05184 5.27944 0)
(6.94499 5.10918 -3.39361e-18)
(6.61106 4.76869 2.31618e-18)
(6.01198 4.18057 -2.34087e-17)
(5.20669 3.52692 0)
(4.47038 3.01269 -1.44725e-17)
(3.98053 2.74017 3.64177e-19)
(3.64126 2.57867 -2.22143e-17)
(3.39396 2.50627 8.95859e-18)
(3.25875 2.38322 1.82308e-19)
(3.00966 2.26406 -3.2526e-17)
(2.20012 1.6023 1.46129e-17)
(0.297094 0.33966 4.43742e-18)
(4.25241 2.97215 0)
(5.4686 4.37975 -1.19654e-17)
(5.70529 4.37062 9.00871e-18)
(5.83791 4.68379 1.92976e-17)
(6.19903 4.97762 4.1156e-18)
(6.60571 5.26756 -2.36068e-18)
(6.84955 5.42025 1.8473e-18)
(6.90594 5.42941 -2.56914e-18)
(6.79251 5.25636 3.6366e-18)
(6.4525 4.91484 1.53717e-17)
(5.85878 4.32626 1.95109e-17)
(5.07656 3.6754 3.66557e-18)
(4.37738 3.19142 2.09433e-17)
(3.9023 2.94057 1.30652e-17)
(3.60424 2.79186 1.59852e-17)
(3.42023 2.72093 -9.8002e-18)
(3.2495 2.58278 -1.19127e-17)
(2.91417 2.39983 1.40379e-17)
(2.06548 1.59015 -8.08564e-18)
(0.147374 0.273149 1.47146e-17)
(4.20495 3.08304 1.65793e-17)
(5.41119 4.52559 1.90252e-17)
(5.65007 4.5298 4.68053e-18)
(5.76831 4.84006 9.8531e-20)
(6.11579 5.13123 -1.40854e-17)
(6.50513 5.41793 5.90541e-18)
(6.7248 5.5628 -1.98503e-18)
(6.77041 5.5686 -4.39413e-21)
(6.6492 5.39239 -4.77535e-18)
(6.30601 5.04975 -1.71163e-17)
(5.71865 4.4621 1.23162e-18)
(4.96146 3.82102 0)
(4.29251 3.36453 0)
(3.83614 3.12731 -6.76363e-18)
(3.51625 2.95999 -2.56693e-17)
(3.26063 2.8545 2.1056e-17)
(3.10799 2.66673 1.28548e-17)
(2.80436 2.4404 0)
(1.88697 1.56997 2.60791e-17)
(0.00254528 0.156018 -1.60747e-17)
(4.18399 3.19314 -8.62735e-18)
(5.36377 4.67721 7.18912e-18)
(5.59164 4.66876 -1.04509e-17)
(5.7014 4.9825 -1.16729e-17)
(6.03622 5.27502 -5.24146e-18)
(6.40916 5.56083 1.74505e-18)
(6.60679 5.69768 0)
(6.6427 5.69922 2.86275e-18)
(6.51545 5.51876 1.58133e-19)
(6.17161 5.17472 0)
(5.59064 4.58837 0)
(4.8563 3.96366 2.45145e-18)
(4.20624 3.53487 3.41772e-18)
(3.75818 3.31718 -7.18726e-18)
(3.45267 3.15895 1.84786e-17)
(3.24235 3.05543 -2.26869e-17)
(3.05148 2.85126 -2.7565e-17)
(2.64322 2.54144 2.48954e-17)
(1.6026 1.44447 -9.63911e-18)
(-0.105222 0.0623602 5.76992e-18)
(4.15466 3.29866 9.64514e-18)
(5.32036 4.80902 0)
(5.54807 4.81214 0)
(5.64251 5.12168 -3.84074e-18)
(5.9666 5.41286 3.09194e-18)
(6.32192 5.69493 -1.9601e-19)
(6.49905 5.82564 -6.41903e-18)
(6.5288 5.82395 -3.83615e-18)
(6.39537 5.63926 8.41554e-18)
(6.05189 5.29277 -1.45119e-18)
(5.47473 4.70657 3.25422e-18)
(4.75917 4.10045 -2.10265e-17)
(4.1302 3.69992 -2.14473e-17)
(3.69045 3.49579 -3.77337e-18)
(3.3561 3.32922 0)
(3.06756 3.19114 -3.07999e-19)
(2.85405 2.91617 1.4411e-17)
(2.46526 2.4962 -2.69697e-17)
(1.45968 1.3824 2.02071e-17)
(-0.179024 -0.345666 1.87799e-17)
(4.14413 3.40712 -2.06979e-17)
(5.28321 4.94595 -8.37123e-18)
(5.50056 4.93786 9.30693e-20)
(5.58883 5.25103 4.64544e-18)
(5.90117 5.54361 0)
(6.23835 5.82465 1.44291e-17)
(6.39809 5.95023 7.76466e-18)
(6.42224 5.94589 -8.226e-19)
(6.2838 5.75756 -4.14174e-18)
(5.93971 5.408 -1.40541e-18)
(5.36445 4.8221 1.30056e-18)
(4.6652 4.23671 1.83804e-17)
(4.05309 3.86699 2.0815e-17)
(3.61138 3.6808 3.60682e-18)
(3.27749 3.52935 1.86419e-17)
(3.01842 3.40171 0)
(2.76894 3.11453 0)
(2.2259 2.58773 1.72177e-17)
(0.932778 1.08455 4.96227e-20)
(-0.0436753 0.473181 -1.8671e-17)
(4.12628 3.51061 1.11832e-17)
(5.24632 5.07233 2.55245e-17)
(5.4662 5.07396 -3.89054e-17)
(5.53988 5.38028 2.38316e-17)
(5.83975 5.6706 -2.86616e-18)
(6.1604 5.94881 1.7947e-17)
(6.30314 6.07133 0)
(6.3234 6.06618 3.9557e-18)
(6.17913 5.87606 0)
(5.83292 5.52316 1.71043e-17)
(5.25817 4.93884 -1.83774e-18)
(4.57347 4.37675 2.05514e-18)
(3.97928 4.03875 2.35375e-17)
(3.54027 3.87154 -7.81893e-18)
(3.18009 3.72755 -9.75888e-18)
(2.83409 3.58007 0)
(2.48264 3.23107 0)
(1.78978 2.48293 0)
(0.751417 1.46362 -9.24523e-18)
(0.242571 2.13092 -5.92657e-18)
(4.1219 3.61487 0)
(5.21584 5.1889 0)
(5.43106 5.18688 1.38376e-17)
(5.49139 5.49764 -1.99174e-17)
(5.78183 5.78986 1.36781e-17)
(6.08464 6.06776 -1.64178e-17)
(6.21227 6.18838 -7.52219e-19)
(6.22784 6.1822 5.88618e-19)
(6.07788 5.99126 8.77706e-19)
(5.72875 5.63521 -1.95578e-17)
(5.15516 5.05437 3.10712e-18)
(4.48605 4.51824 1.82442e-17)
(3.90892 4.21361 -2.34149e-17)
(3.46786 4.0692 -2.59231e-17)
(3.10255 3.94899 8.92655e-18)
(2.77597 3.82046 0)
(2.36222 3.44634 1.34893e-17)
(1.42113 2.47867 1.598e-17)
(0.923468 2.23368 -1.81194e-17)
(0.590821 2.86293 2.20862e-17)
(4.10893 3.71834 0)
(5.18558 5.31178 2.01315e-17)
(5.39284 5.30931 -3.55572e-18)
(5.44163 5.61431 2.44332e-17)
(5.72774 5.90675 -1.4369e-17)
(6.01235 6.17991 0)
(6.12614 6.3001 0)
(6.13708 6.29385 0)
(5.98049 6.10276 2.21534e-18)
(5.62772 5.74363 6.42771e-19)
(5.05617 5.16808 0)
(4.4039 4.66021 -1.80453e-17)
(3.84647 4.38908 0)
(3.41101 4.26928 1.85228e-17)
(3.03106 4.16828 -1.27783e-17)
(2.6274 4.01983 -1.03064e-17)
(2.04889 3.49123 -2.53344e-17)
(1.28563 2.80749 -1.48402e-17)
(0.90262 2.98755 -2.63404e-17)
(0.824131 3.35476 1.83207e-17)
(4.09823 3.8078 -6.94237e-18)
(5.15113 5.41377 2.6919e-19)
(5.3601 5.4096 -3.73115e-18)
(5.40547 5.72163 -1.92709e-17)
(5.67727 6.0129 0)
(5.94271 6.28781 0)
(6.04328 6.40721 0)
(6.04778 6.40087 -1.01251e-19)
(5.88407 6.20976 -3.04141e-18)
(5.52795 5.84813 0)
(4.96067 5.27992 0)
(4.32862 4.80225 0)
(3.79265 4.56528 0)
(3.36119 4.47066 1.38776e-17)
(2.97966 4.38973 3.48839e-17)
(2.58761 4.21976 1.09106e-17)
(2.03808 3.62949 2.49249e-17)
(1.56341 3.23298 -2.08255e-17)
(1.1332 3.61384 8.43805e-18)
(0.998657 3.75341 0)
(4.09137 3.8971 6.71822e-18)
(5.13516 5.53423 -4.02491e-17)
(5.34357 5.54182 -1.15972e-17)
(5.36738 5.84295 -2.89411e-18)
(5.62402 6.1237 3.3446e-18)
(5.87573 6.39379 -2.28783e-17)
(5.96082 6.51028 1.52e-18)
(5.95989 6.50473 6.60964e-18)
(5.7891 6.31383 0)
(5.43046 5.95012 -1.2908e-18)
(4.87012 5.39121 1.17604e-18)
(4.26021 4.94421 0)
(3.74794 4.73964 0)
(3.3305 4.67088 -1.73632e-17)
(2.95599 4.60292 3.21247e-18)
(2.52885 4.39278 -1.03034e-17)
(1.87035 3.80597 2.3075e-17)
(1.31737 3.68833 2.05772e-17)
(1.03157 4.03518 -3.54952e-17)
(0.956268 4.10588 1.85952e-17)
(4.07592 3.97858 1.25597e-17)
(5.10124 5.62346 3.74708e-17)
(5.29993 5.62916 1.40575e-17)
(5.315 5.94532 0)
(5.57278 6.23289 0)
(5.8021 6.49871 1.73004e-17)
(5.87441 6.61398 -9.45581e-18)
(5.86768 6.60742 -6.1766e-18)
(5.69046 6.41657 -1.19947e-19)
(5.33181 6.05123 1.39911e-17)
(4.78228 5.50324 -2.18545e-17)
(4.1983 5.08657 0)
(3.71379 4.91233 0)
(3.31355 4.86718 -1.24934e-17)
(2.94431 4.80857 -1.61326e-17)
(2.50128 4.56303 0)
(1.92183 4.0291 -3.32032e-17)
(1.57772 4.10284 -6.21456e-18)
(1.38483 4.53149 3.63718e-17)
(1.09038 4.54037 -1.91569e-17)
(4.05054 4.06244 -2.37447e-17)
(5.06676 5.7497 -1.77781e-17)
(5.2577 5.75706 0)
(5.26503 6.06389 0)
(5.50915 6.34536 0)
(5.71753 6.60281 0)
(5.78154 6.71664 9.9754e-18)
(5.76921 6.70893 -7.60123e-18)
(5.58818 6.5181 0)
(5.23212 6.15136 -1.25656e-17)
(4.69714 5.61574 3.94994e-17)
(4.14165 5.22803 1.69496e-18)
(3.68786 5.08001 2.54134e-18)
(3.3115 5.05666 2.12031e-17)
(2.95469 5.00038 -1.4131e-17)
(2.47383 4.67955 0)
(2.0029 4.34061 1.06332e-17)
(1.54247 4.68178 6.66228e-19)
(1.12709 4.91549 -5.71414e-18)
(0.730036 4.99235 1.15813e-17)
(4.02411 4.13819 1.12253e-17)
(5.02668 5.84412 -1.71053e-17)
(5.21679 5.85832 0)
(5.20933 6.17739 -4.43855e-18)
(5.43671 6.4526 1.6625e-17)
(5.62766 6.70855 0)
(5.68105 6.81827 0)
(5.66381 6.80885 1.36668e-17)
(5.48033 6.6175 -5.23963e-19)
(5.13003 6.24973 1.23192e-17)
(4.61317 5.72731 -1.878e-17)
(4.0898 5.36685 1.22759e-17)
(3.67081 5.24048 0)
(3.32178 5.23207 -1.16261e-17)
(2.97249 5.16812 7.20561e-18)
(2.52391 4.87998 7.84086e-18)
(2.05401 4.63775 0)
(1.69968 4.9899 5.45725e-18)
(1.28196 5.58934 9.42195e-18)
(1.15206 5.77219 2.75193e-18)
(3.99197 4.22702 -2.11165e-17)
(4.98713 5.98576 2.45163e-17)
(5.16099 5.9962 1.81902e-17)
(5.13228 6.29885 -4.79461e-18)
(5.35055 6.56741 -2.50462e-17)
(5.52826 6.8137 0)
(5.57247 6.91824 8.0334e-18)
(5.55239 6.90713 -5.68462e-18)
(5.36929 6.7147 -3.28898e-19)
(5.02715 6.34593 -1.07332e-17)
(4.53099 5.83695 -9.06864e-19)
(4.04141 5.50117 -1.37636e-17)
(3.65802 5.39016 1.68306e-17)
(3.33977 5.39023 5.34493e-18)
(3.01667 5.33033 -1.24742e-17)
(2.53771 4.99607 1.35149e-17)
(2.27461 4.87193 0)
(1.90867 5.64312 0)
(1.67022 6.17537 2.18264e-18)
(0.500687 6.20834 -6.84835e-18)
(3.9277 4.30571 9.68736e-18)
(4.91201 6.0754 2.28102e-17)
(5.09013 6.08202 -1.77603e-17)
(5.05437 6.4012 1.72396e-17)
(5.26737 6.67322 2.40163e-17)
(5.42163 6.91498 0)
(5.45918 7.01768 -8.57753e-18)
(5.43637 7.003 -7.08017e-18)
(5.25494 6.80867 0)
(4.92354 6.43856 0)
(4.45076 5.94249 0)
(3.99661 5.62806 0)
(3.6497 5.52635 -1.91759e-17)
(3.36572 5.52474 -7.33588e-18)
(3.06242 5.43797 0)
(2.6642 5.16534 -6.92533e-18)
(2.48897 5.29885 0)
(2.5084 5.67122 -3.13214e-18)
(2.57146 5.62998 3.71375e-18)
(1.41142 5.64431 -1.28563e-18)
(3.88382 4.39931 -1.84193e-17)
(4.85388 6.24494 -1.43996e-17)
(5.02512 6.24631 -1.099e-17)
(4.97216 6.53592 -1.60834e-17)
(5.16618 6.79083 -1.11953e-17)
(5.30616 7.01959 0)