/*--------------------------------*- C++ -*----------------------------------*\
| =========                 |                                                 |
| \\      /  F ield         | OpenFOAM: The Open Source CFD Toolbox           |
|  \\    /   O peration     | Version:  2412                                  |
|   \\  /    A nd           | Website:  www.openfoam.com                      |
|    \\/     M anipulation  |                                                 |
\*---------------------------------------------------------------------------*/
FoamFile
{
    version     2.0;
    format      ascii;
    arch        "LSB;label=32;scalar=64";
    class       volScalarField;
    location    "0.1";
    object      epsilon;
}
// * * * * * * * * * * * * * * * * * * * * * * * * * * * * * * * * * * * * * //

dimensions      [0 2 -3 0 0 0 0];

internalField   nonuniform List<scalar> 
12225
(
448.248
622.893
830.552
1004.82
1150.39
1270.2
1368.59
1449.59
1516.32
1571.32
1616.67
1654.04
1684.71
1709.7
1729.78
1745.38
1757.02
1767.9
173.744
302.084
403.101
480.176
539.341
585.693
622.13
650.852
673.562
691.525
705.706
716.854
725.561
732.29
737.444
741.26
744.502
744.184
119.436
232.402
315.512
376.254
421.161
455.027
480.628
499.956
514.529
525.457
533.562
539.474
543.679
546.563
548.452
549.599
550.413
549.949
97.6416
199.98
277.776
334.833
376.773
407.859
430.863
447.788
460.144
469.043
475.31
479.57
482.305
483.892
484.648
484.841
484.796
484.313
83.6529
176.289
251.578
308.55
351.101
382.723
406.066
423.143
435.485
444.244
450.286
454.269
456.703
457.986
458.449
458.378
458.072
457.57
71.9921
153.973
226.312
283.825
328.198
361.839
387.038
405.704
419.35
429.151
436.013
440.637
443.569
445.242
446.01
446.177
446.028
445.664
61.3445
131.283
198.626
255.58
301.542
337.589
365.354
386.464
402.312
414.037
422.553
428.588
432.719
435.41
437.04
437.931
438.352
438.413
51.67
108.731
168.489
222.632
268.756
306.563
336.805
360.617
379.13
393.354
404.147
412.22
418.159
422.444
425.47
427.568
428.995
429.848
43.2228
87.6462
137.687
186.327
230.301
268.245
299.988
326.024
347.081
363.925
377.27
387.754
395.925
402.247
407.112
410.844
413.688
415.716
36.17
69.2419
108.633
149.503
188.756
224.546
256.003
282.985
305.746
324.713
340.376
353.224
363.713
372.248
379.186
384.823
389.381
392.891
30.4987
54.139
83.3294
115.315
147.816
179.116
208.07
234.1
257.034
276.953
294.074
308.686
321.097
331.611
340.51
348.036
354.369
359.484
26.3768
43.1978
64.2838
88.2405
113.649
139.258
164.044
187.309
208.658
227.928
245.111
260.302
273.653
285.344
295.56
304.472
312.197
318.639
23.1427
34.747
49.314
66.2701
84.8774
104.389
124.083
143.354
161.762
179.024
194.985
209.588
222.846
234.818
245.589
255.245
263.837
271.207
20.3784
27.6948
36.7528
47.4285
59.4474
72.4865
86.1775
100.148
114.067
127.673
140.767
153.215
164.934
175.885
186.06
195.462
204.073
211.69
18.1501
22.2409
27.1494
32.9149
39.491
46.7979
54.7201
63.1105
71.8118
80.6732
89.5596
98.3553
106.967
115.32
123.363
131.05
138.326
144.988
16.4707
18.357
20.5277
23.0289
25.8752
29.0702
32.6059
36.4578
40.5879
44.9506
49.4966
54.1755
58.9384
63.7396
68.5371
73.2913
77.9538
82.3915
15.3282
15.8731
16.4961
17.2136
18.0332
18.9615
20.0046
21.1655
22.4439
23.8362
25.3361
26.9353
28.6233
30.386
32.2096
34.0804
35.9806
37.868
14.7508
14.6758
14.6369
14.6353
14.6698
14.7397
14.845
14.9862
15.1632
15.3761
15.6246
15.908
16.2256
16.5777
16.9635
17.3808
17.8271
18.298
14.8977
14.9732
15.0872
15.2433
15.4416
15.6819
15.9646
16.2895
16.6557
17.0618
17.5055
17.9842
18.495
19.0345
19.5991
20.1852
20.7882
21.3943
15.9707
17.2604
18.7263
20.3951
22.2732
24.3599
26.6484
29.1229
31.7596
34.5298
37.4024
40.3459
43.3296
46.3248
49.3057
52.2492
55.1308
57.8903
18.0495
21.9967
26.6897
32.1477
38.3079
45.0744
52.3235
59.909
67.6798
75.4959
83.2355
90.7977
98.1033
105.094
111.728
117.981
123.834
129.241
21.563
30.6525
41.9205
55.0365
69.4953
84.7787
100.376
115.828
130.769
144.94
158.176
170.383
181.531
191.627
200.71
208.836
216.067
222.446
27.2184
45.3001
67.7858
92.9364
119.103
144.998
169.639
192.386
212.914
231.128
247.076
260.896
272.769
282.896
291.478
298.705
304.752
309.778
35.7143
67.676
105.678
144.949
182.514
216.739
246.814
272.567
294.222
312.181
326.904
338.847
348.436
356.046
362.004
366.59
370.045
372.592
47.4077
97.6106
152.028
202.688
246.851
283.884
314.068
338.195
357.199
371.969
383.282
391.798
398.062
402.521
405.537
407.404
408.364
408.653
61.8879
131.751
198.704
254.804
299.832
335.067
362.108
382.556
397.797
408.958
416.936
422.436
426.009
428.088
429.011
429.04
428.392
427.28
78.4669
165.761
239.652
296.703
339.786
371.974
395.785
413.192
425.727
434.562
440.58
444.45
446.682
447.663
447.691
446.997
445.763
444.176
99.5996
200.964
279.478
337.82
380.456
411.806
434.889
451.765
463.981
472.692
478.747
482.776
485.254
486.543
486.921
486.602
485.754
484.546
144.791
258.315
348.614
417.598
468.466
506.749
535.874
558.052
574.955
587.829
597.587
604.912
610.328
614.24
616.965
618.752
619.795
620.295
366.941
498.483
666.585
808.031
923.451
1016.69
1091.72
1152.38
1201.67
1241.84
1274.68
1301.63
1323.8
1342.07
1357.17
1369.65
1379.96
1388.52
1.80667
1.77719
2.54846
3.17076
3.6386
4.00708
4.45836
4.94501
5.47087
6.06234
6.77305
7.75831
9.01802
10.4843
12.1442
13.9971
16.0462
18.2918
20.7301
23.3549
26.1593
29.1379
32.2883
35.6132
39.1215
42.8141
46.6439
50.5993
54.6723
58.8567
63.1471
67.5393
72.0301
76.6168
81.2978
86.0715
90.9372
95.8941
100.942
106.079
111.306
116.622
122.026
127.516
133.092
138.751
144.491
150.31
156.204
162.171
168.207
174.308
180.47
186.688
192.957
199.272
205.628
212.018
218.437
224.879
231.337
237.805
244.275
250.742
257.198
263.637
270.054
276.443
282.803
289.136
295.451
301.77
308.096
314.337
320.49
326.553
332.524
338.395
344.161
349.814
355.347
360.754
366.028
371.162
376.149
380.983
385.659
390.17
394.51
398.675
402.659
406.456
410.063
413.475
416.687
419.696
422.498
425.09
427.468
429.629
431.571
433.292
434.79
436.063
437.109
437.928
438.52
438.882
439.017
438.924
438.605
438.059
437.29
436.3
435.09
433.665
432.027
430.181
428.132
425.883
423.442
420.813
418.003
415.02
411.869
408.561
405.101
401.499
397.765
393.906
389.932
385.853
381.679
377.419
373.083
368.683
364.222
359.719
355.184
350.607
346.026
341.459
336.966
333.199
331.104
329.301
327.545
325.826
324.153
322.534
320.978
319.491
318.078
316.743
315.49
314.32
313.231
312.223
311.292
310.431
309.631
308.883
308.173
307.485
306.799
306.094
305.343
304.517
303.582
302.5
301.225
299.706
297.88
295.67
292.972
289.637
285.388
279.723
271.05
258.517
5.51877
3.12655
2.79225
2.88017
3.16186
3.59414
4.1674
4.8508
5.64594
6.55607
7.58354
8.7286
9.97474
11.2983
12.6826
14.1165
15.5921
17.1031
18.6442
20.2121
21.8049
23.4224
25.0657
26.7361
28.4348
30.1615
31.9142
33.6933
35.4997
37.3341
39.1976
41.0907
43.014
44.9681
46.9534
48.9699
51.0178
53.0972
55.2079
57.3496
59.522
61.7245
63.9567
66.2178
68.5071
70.8235
73.1661
75.5337
77.9252
80.3393
82.7745
85.2293
87.7021
90.1914
92.6953
95.2121
97.7398
100.277
102.82
105.369
107.921
110.473
113.024
115.572
118.115
120.65
123.178
125.697
128.208
130.714
133.219
135.73
138.27
140.789
143.279
145.736
148.16
150.546
152.893
155.198
157.459
159.672
161.836
163.947
166.004
168.003
169.943
171.822
173.637
175.386
177.067
178.678
180.217
181.683
183.074
184.388
185.623
186.779
187.854
188.846
189.755
190.579
191.318
191.971
192.537
193.015
193.406
193.708
193.921
194.046
194.083
194.032
193.893
193.667
193.355
192.957
192.475
191.91
191.263
190.537
189.732
188.851
187.897
186.871
185.776
184.615
183.391
182.106
180.765
179.369
177.923
176.43
174.894
173.317
171.704
170.059
168.383
166.684
164.965
163.212
161.46
159.714
157.995
156.417
155.148
153.999
152.89
151.801
150.729
149.672
148.633
147.611
146.607
145.622
144.656
143.708
142.777
141.861
140.958
140.064
139.175
138.288
137.396
136.492
135.571
134.623
133.639
132.611
131.526
130.375
129.143
127.818
126.386
124.83
123.135
121.288
119.271
117.138
114.91
115.132
9.77279
4.83075
4.11966
4.14247
4.44129
4.89971
5.50264
6.24058
7.10237
8.07129
9.12582
10.2428
11.4002
12.5808
13.7745
14.977
16.1875
17.4071
18.6378
19.8818
21.1416
22.4194
23.7171
25.0361
26.3772
27.7408
29.1269
30.5356
31.967
33.4212
34.898
36.3975
37.9195
39.4638
41.0305
42.6193
44.23
45.8626
47.5167
49.1923
50.8889
52.6063
54.3441
56.1018
57.879
59.6751
61.4894
63.3213
65.1701
67.0348
68.9146
70.8086
72.7158
74.635
76.5652
78.5053
80.4539
82.4099
84.372
86.3388
88.3091
90.2816
92.2552
94.2286
96.201
98.1716
100.14
102.106
104.069
106.032
107.994
109.959
111.918
113.861
115.783
117.68
119.552
121.395
123.208
124.988
126.734
128.443
130.115
131.745
133.334
134.879
136.378
137.829
139.231
140.582
141.881
143.127
144.317
145.45
146.526
147.542
148.498
149.393
150.226
150.995
151.701
152.341
152.917
153.426
153.868
154.244
154.552
154.793
154.966
155.071
155.108
155.079
154.982
154.818
154.589
154.294
153.934
153.511
153.025
152.478
151.871
151.206
150.483
149.706
148.875
147.993
147.061
146.083
145.06
143.994
142.889
141.746
140.569
139.359
138.12
136.855
135.56
134.25
132.925
131.583
130.234
128.885
127.55
126.27
125.092
123.978
122.896
121.832
120.78
119.739
118.708
117.687
116.677
115.676
114.685
113.703
112.728
111.76
110.796
109.834
108.871
107.903
106.927
105.939
104.933
103.903
102.845
101.752
100.616
99.4316
98.1905
96.8859
95.5106
94.0588
92.527
90.9195
89.2533
87.6073
86.1483
85.7752
14.2282
6.78361
5.70939
5.60236
5.82649
6.24927
6.82625
7.53451
8.35408
9.26257
10.2359
11.2513
12.2911
13.3435
14.4034
15.4702
16.5459
17.6335
18.7361
19.8564
20.9965
22.158
23.3418
24.5483
25.7778
27.03
28.3047
29.6016
30.9204
32.2608
33.6226
35.0055
36.4093
37.834
39.2792
40.745
42.2313
43.7379
45.2648
46.8118
48.3788
49.9657
51.5721
53.1978
54.8424
56.5057
58.1871
59.8861
61.6021
63.3345
65.0825
66.8455
68.6224
70.4126
72.2148
74.0282
75.8517
77.6841
79.5243
81.3711
83.2234
85.0799
86.9397
88.8015
90.6644
92.5275
94.3899
96.2511
98.1104
99.9672
101.821
103.669
105.505
107.324
109.123
110.899
112.65
114.374
116.069
117.733
119.364
120.96
122.518
124.038
125.517
126.954
128.347
129.695
130.995
132.247
133.448
134.598
135.695
136.738
137.726
138.658
139.532
140.348
141.105
141.803
142.439
143.014
143.528
143.979
144.367
144.693
144.955
145.153
145.289
145.36
145.369
145.314
145.197
145.018
144.777
144.475
144.113
143.691
143.212
142.675
142.083
141.436
140.736
139.985
139.184
138.336
137.442
136.503
135.524
134.505
133.448
132.356
131.233
130.076
128.894
127.689
126.462
125.216
123.956
122.682
121.399
120.113
118.834
117.581
116.372
115.199
114.05
112.917
111.794
110.68
109.575
108.479
107.39
106.31
105.236
104.17
103.109
102.053
101
99.9484
98.8953
97.8382
96.7739
95.6989
94.6093
93.5006
92.3682
91.2071
90.0121
88.7777
87.4988
86.1703
84.7882
83.3499
81.8569
80.3191
78.7625
77.2621
75.9627
75.2648
18.1279
8.71048
7.2234
6.93892
7.06814
7.42124
7.93151
8.56573
9.29984
10.1119
10.9812
11.89
12.8251
13.7785
14.7467
15.7298
16.7294
17.7477
18.7868
19.8485
20.9341
22.0443
23.1793
24.3393
25.524
26.7332
27.9665
29.2237
30.5043
31.8081
33.1349
34.4844
35.8566
37.2513
38.6684
40.1078
41.5697
43.0538
44.5603
46.089
47.6399
49.2128
50.8077
52.4243
54.0623
55.7215
57.4014
59.1016
60.8216
62.5606
64.3182
66.0934
67.8854
69.6932
71.516
73.3526
75.2018
77.0625
78.9335
80.8133
82.7009
84.5947
86.4935
88.3959
90.3007
92.2065
94.1121
96.0161
97.9172
99.814
101.705
103.585
105.451
107.298
109.123
110.925
112.7
114.447
116.163
117.846
119.494
121.106
122.678
124.21
125.699
127.144
128.542
129.893
131.194
132.444
133.642
134.786
135.875
136.908
137.883
138.801
139.658
140.456
141.192
141.867
142.479
143.029
143.514
143.936
144.294
144.587
144.816
144.98
145.08
145.115
145.085
144.992
144.836
144.617
144.335
143.992
143.588
143.124
142.602
142.023
141.387
140.697
139.954
139.159
138.314
137.422
136.484
135.501
134.477
133.415
132.312
131.176
130.009
128.813
127.59
126.343
125.075
123.788
122.485
121.169
119.843
118.512
117.183
115.866
114.571
113.297
112.04
110.796
109.561
108.335
107.117
105.907
104.705
103.51
102.323
101.142
99.9669
98.797
97.6309
96.4667
95.3026
94.1362
92.9648
91.7854
90.5947
89.3889
88.1641
86.9161
85.6404
84.3328
82.9892
81.6059
80.1804
78.7126
77.2064
75.6747
74.1456
72.6854
71.4045
70.517
21.9967
10.4052
8.4903
8.04001
8.07045
8.3435
8.77516
9.32543
9.96903
10.6862
11.4603
12.2777
13.1285
14.0065
14.9087
15.8342
16.7836
17.7579
18.7581
19.7852
20.8397
21.9219
23.032
24.1699
25.3355
26.5285
27.7486
28.9958
30.2697
31.5703
32.8973
34.2506
35.6302
37.0361
38.4682
39.9266
41.4112
42.9222
44.4595
46.0231
47.6129
49.229
50.8713
52.5394
54.2333
55.9525
57.6967
59.4654
61.2581
63.074
64.9124
66.7725
68.6533
70.5536
72.4725
74.4087
76.3607
78.3273
80.307
82.2982
84.2993
86.3087
88.3248
90.3459
92.3701
94.3958
96.4212
98.4444
100.464
102.477
104.481
106.471
108.443
110.395
112.322
114.223
116.095
117.936
119.743
121.513
123.245
124.937
126.586
128.189
129.746
131.254
132.712
134.117
135.469
136.765
138.003
139.184
140.305
141.364
142.362
143.297
144.167
144.973
145.713
146.387
146.994
147.534
148.005
148.409
148.744
149.011
149.21
149.34
149.401
149.395
149.321
149.179
148.971
148.697
148.357
147.953
147.485
146.956
146.364
145.713
145.004
144.238
143.416
142.541
141.614
140.638
139.615
138.543
137.431
136.279
135.088
133.863
132.605
131.317
130.001
128.661
127.298
125.916
124.517
123.104
121.68
120.249
118.817
117.389
115.972
114.569
113.176
111.794
110.421
109.056
107.699
106.35
105.009
103.676
102.351
101.033
99.7222
98.4174
97.1176
95.8214
94.5273
93.233
91.9365
90.635
89.3256
88.0051
86.67
85.3168
83.9418
82.5413
81.1123
79.652
78.1593
76.6355
75.0863
73.5257
71.9815
70.5103
69.1926
68.1535
27.0383
12.049
9.54879
8.89526
8.81642
9.00793
9.36432
9.83817
10.4028
11.04
11.736
12.4802
13.2645
14.0839
14.935
15.8166
16.728
17.6694
18.6412
19.6436
20.6769
21.7415
22.8372
23.9644
25.1228
26.3126
27.5337
28.7861
30.0698
31.3847
32.7309
34.1084
35.5173
36.9577
38.4295
39.933
41.4682
43.0351
44.6339
46.2646
47.9272
49.6217
51.3479
53.1056
54.8946
56.7145
58.565
60.4453
62.3549
64.293
66.2586
68.2508
70.2684
72.3101
74.3746
76.4603
78.5658
80.6892
82.8288
84.9828
87.1491
89.3257
91.5106
93.7016
95.8966
98.0932
100.289
102.482
104.67
106.851
109.018
111.167
113.296
115.401
117.478
119.525
121.54
123.518
125.459
127.358
129.214
131.024
132.787
134.498
136.158
137.762
139.31
140.8
142.23
143.597
144.902
146.142
147.315
148.422
149.46
150.428
151.326
152.153
152.908
153.59
154.2
154.735
155.198
155.586
155.9
156.14
156.306
156.398
156.416
156.361
156.233
156.033
155.762
155.42
155.008
154.527
153.978
153.364
152.684
151.94
151.135
150.269
149.345
148.364
147.327
146.241
145.105
143.92
142.692
141.421
140.111
138.764
137.382
135.969
134.527
133.059
131.568
130.056
128.525
126.98
125.423
123.858
122.288
120.718
119.154
117.597
116.049
114.508
112.976
111.451
109.935
108.427
106.927
105.436
103.954
102.481
101.016
99.558
98.1071
96.662
95.221
93.7826
92.3448
90.9052
89.4614
88.0105
86.5497
85.0758
83.5856
82.0765
80.5457
78.9917
77.4144
75.816
74.2035
72.591
71.0044
69.4908
68.1078
66.9312
31.4615
13.4014
10.3509
9.50097
9.31773
9.43505
9.72676
10.1378
10.6393
11.2137
11.8488
12.5357
13.2677
14.0401
14.85
15.6954
16.5753
17.4895
18.4379
19.4205
20.4376
21.4896
22.5767
23.6992
24.8574
26.0515
27.2818
28.5486
29.8521
31.1925
32.5701
33.985
35.4376
36.928
38.4564
40.0231
41.6282
43.2719
44.9543
46.6755
48.4354
50.2341
52.0714
53.9471
55.8609
57.8123
59.8007
61.8256
63.886
65.981
68.1094
70.2701
72.4615
74.6822
76.9305
79.2045
81.5023
83.8218
86.1608
88.517
90.888
93.2714
95.6646
98.0649
100.47
102.876
105.282
107.683
110.077
112.462
114.829
117.174
119.495
121.788
124.049
126.275
128.463
130.61
132.713
134.77
136.777
138.731
140.631
142.474
144.257
145.979
147.636
149.228
150.752
152.207
153.591
154.903
156.141
157.304
158.39
159.4
160.331
161.184
161.957
162.65
163.263
163.795
164.246
164.617
164.906
165.114
165.241
165.288
165.255
165.142
164.95
164.681
164.334
163.911
163.413
162.84
162.195
161.479
160.693
159.839
158.917
157.933
156.888
155.782
154.618
153.4
152.13
150.809
149.441
148.029
146.575
145.081
143.552
141.989
140.395
138.774
137.128
135.46
133.773
132.069
130.353
128.627
126.895
125.16
123.427
121.698
119.975
118.259
116.55
114.848
113.155
111.471
109.796
108.131
106.476
104.831
103.196
101.57
99.9533
98.3442
96.7419
95.1449
93.5517
91.9601
90.3682
88.7734
87.1734
85.5655
83.9471
82.3161
80.6706
79.0098
77.3343
75.6473
73.9563
72.275
70.6267
69.0497
67.5843
66.277
35.1064
14.4384
10.9073
9.88252
9.60648
9.66013
9.89897
10.2607
10.7139
11.2404
11.8288
12.471
13.1613
13.8955
14.6708
15.4854
16.3381
17.2285
18.1566
19.1225
20.1266
21.1694
22.2516
23.3737
24.5363
25.7402
26.9858
28.2739
29.6049
30.9794
32.3979
33.8609
35.3688
36.922
38.5209
40.1659
41.8572
43.5951
45.3799
47.2114
49.09
51.0153
52.9873
55.0057
57.07
59.1797
61.334
63.5321
65.7728
68.055
70.3773
72.738
75.1354
77.5676
80.0325
82.5279
85.0512
87.6001
90.1718
92.7636
95.3725
97.9956
100.63
103.272
105.919
108.567
111.213
113.854
116.486
119.103
121.697
124.266
126.806
129.312
131.78
134.209
136.593
138.929
141.215
143.448
145.623
147.738
149.791
151.779
153.698
155.548
157.326
159.029
160.656
162.205
163.675
165.063
166.369
167.591
168.729
169.78
170.745
171.622
172.411
173.112
173.724
174.248
174.682
175.028
175.284
175.452
175.532
175.524
175.429
175.247
174.98
174.628
174.193
173.675
173.076
172.396
171.638
170.805
169.898
168.918
167.866
166.747
165.563
164.314
163.005
161.637
160.213
158.737
157.21
155.636
154.017
152.357
150.659
148.926
147.16
145.365
143.543
141.699
139.834
137.952
136.056
134.149
132.234
130.316
128.396
126.479
124.566
122.658
120.758
118.865
116.981
115.106
113.242
111.389
109.547
107.717
105.898
104.091
102.294
100.508
98.732
96.964
95.2031
93.4475
91.6956
89.9454
88.1948
86.4417
84.6842
82.9206
81.1498
79.3716
77.5873
75.8008
74.0195
72.2566
70.5321
68.8773
67.3186
65.8854
37.9276
15.1792
11.2509
10.0782
9.72297
9.72331
9.91952
10.2428
10.6591
11.1492
11.7016
12.3089
12.9656
13.6682
14.4143
15.2023
16.0312
16.9009
17.8115
18.7634
19.7574
20.7944
21.8753
23.0012
24.1731
25.3921
26.6592
27.9754
29.3417
30.759
32.228
33.7496
35.3246
36.9535
38.6369
40.3754
42.1694
44.0192
45.9251
47.8872
49.9055
51.9798
54.11
56.2955
58.5357
60.83
63.1773
65.5764
68.026
70.5244
73.07
75.6606
78.2941
80.9681
83.68
86.4269
89.2061
92.0143
94.8484
97.705
100.581
103.472
106.375
109.286
112.202
115.118
118.03
120.935
123.829
126.699
129.543
132.355
135.132
137.868
140.562
143.207
145.801
148.34
150.82
153.239
155.591
157.876
160.088
162.227
164.288
166.27
168.17
169.987
171.717
173.361
174.915
176.378
177.749
179.028
180.212
181.3
182.292
183.187
183.985
184.686
185.29
185.795
186.203
186.514
186.727
186.844
186.864
186.789
186.619
186.355
185.998
185.55
185.012
184.385
183.67
182.87
181.986
181.021
179.977
178.854
177.657
176.387
175.047
173.639
172.166
170.632
169.038
167.388
165.685
163.932
162.132
160.288
158.404
156.483
154.527
152.541
150.527
148.489
146.429
144.352
142.259
140.154
138.041
135.923
133.803
131.683
129.566
127.455
125.35
123.253
121.166
119.089
117.023
114.97
112.929
110.902
108.888
106.888
104.901
102.928
100.966
99.0168
97.0778
95.1481
93.2263
91.311
89.4005
87.4932
85.5876
83.6829
81.7783
79.8743
77.973
76.0784
74.198
72.3437
70.5328
68.7899
67.132
65.5771
39.929
15.6545
11.419
10.1277
9.70732
9.66364
9.82525
10.1182
10.5056
10.9675
11.492
12.0714
12.7011
13.3778
14.0995
14.865
15.674
16.5266
17.4233
18.3651
19.3531
20.3887
21.4735
22.6088
23.7963
25.0376
26.3342
27.6875
29.099
30.5699
32.1016
33.6951
35.3515
37.0717
38.8565
40.7066
42.6225
44.6047
46.6535
48.7689
50.9508
53.1991
55.5133
57.8927
60.3365
62.8435
65.4125
68.0418
70.7297
73.4742
76.2728
79.1231
82.0224
84.9676
87.9554
90.9825
94.0453
97.1402
100.263
103.41
106.578
109.761
112.957
116.159
119.365
122.57
125.768
128.958
132.125
135.264
138.37
141.437
144.461
147.438
150.363
153.232
156.041
158.787
161.464
164.071
166.602
169.055
171.426
173.712
175.912
178.022
180.04
181.963
183.791
185.521
187.152
188.682
190.11
191.435
192.655
193.769
194.778
195.679
196.475
197.163
197.744
198.219
198.587
198.85
199.005
199.056
199.002
198.845
198.586
198.225
197.764
197.205
196.55
195.799
194.954
194.018
192.993
191.88
190.683
189.404
188.044
186.607
185.096
183.513
181.862
180.145
178.366
176.527
174.633
172.685
170.689
168.646
166.561
164.437
162.278
160.086
157.865
155.619
153.351
151.063
148.76
146.445
144.12
141.789
139.455
137.122
134.791
132.464
130.145
127.834
125.533
123.243
120.966
118.703
116.454
114.221
112.002
109.8
107.614
105.444
103.289
101.149
99.0241
96.9122
94.8128
92.7247
90.6469
88.5782
86.5179
84.4654
82.4208
80.385
78.3606
76.3517
74.3657
72.4131
70.5086
68.6715
66.9115
65.24
41.1373
15.8956
11.4461
10.0669
9.5955
9.51623
9.64964
9.91799
10.2826
10.7222
11.2247
11.7824
12.3908
13.0471
13.7497
14.4981
15.2924
16.1333
17.0219
17.9597
18.9486
19.9903
21.0871
22.241
23.4543
24.729
26.0672
27.4711
28.9424
30.4829
32.0944
33.7783
35.536
37.3687
39.2774
41.2629
43.3259
45.4667
47.6857
49.9828
52.3578
54.8102
57.3392
59.9438
62.6228
65.3746
68.1973
71.0889
74.0469
77.0687
80.1514
83.2918
86.4864
89.7315
93.023
96.3569
99.7288
103.134
106.569
110.028
113.507
117.002
120.507
124.017
127.528
131.034
134.531
138.012
141.461
144.874
148.244
151.568
154.841
158.056
161.211
164.3
167.319
170.265
173.132
175.918
178.619
181.231
183.749
186.172
188.498
190.722
192.844
194.861
196.772
198.574
200.266
201.847
203.315
204.67
205.911
207.035
208.043
208.934
209.709
210.368
210.91
211.337
211.648
211.844
211.926
211.895
211.751
211.496
211.131
210.657
210.077
209.391
208.602
207.711
206.721
205.633
204.45
203.175
201.81
200.358
198.822
197.203
195.507
193.735
191.89
189.977
187.998
185.957
183.858
181.703
179.497
177.243
174.945
172.606
170.23
167.821
165.382
162.916
160.428
157.92
155.395
152.858
150.311
147.758
145.202
142.645
140.091
137.541
134.999
132.466
129.944
127.434
124.938
122.457
119.993
117.545
115.116
112.705
110.312
107.939
105.584
103.248
100.93
98.6299
96.3471
94.0809
91.8306
89.5958
87.376
85.1714
82.9826
80.8111
78.6596
76.5327
74.4369
72.382
70.3797
68.4455
66.5838
64.8015
41.587
15.9312
11.3618
9.92615
9.41824
9.31159
9.42256
9.67127
10.0178
10.4404
10.9264
11.4684
12.062
12.7048
13.3958
14.1349
14.923
15.7614
16.6518
17.5965
18.598
19.6588
20.7817
21.9697
23.2255
24.5518
25.9515
27.4271
28.9811
30.6157
32.333
34.135
36.0231
37.9988
40.0633
42.2175
44.4619
46.7969
49.2224
51.7383
54.3438
57.0381
59.8199
62.6876
65.6394
68.673
71.7859
74.9753
78.2378
81.5702
84.9687
88.4294
91.948
95.5201
99.1405
102.804
106.506
110.241
114.004
117.79
121.593
125.409
129.232
133.057
136.878
140.691
144.489
148.254
151.978
155.656
159.282
162.852
166.36
169.8
173.169
176.461
179.673
182.8
185.838
188.785
191.635
194.384
197.028
199.565
201.993
204.31
206.513
208.6
210.569
212.42
214.149
215.758
217.243
218.604
219.841
220.952
221.938
222.797
223.531
224.139
224.622
224.981
225.215
225.326
225.315
225.182
224.929
224.558
224.069
223.465
222.747
221.917
220.978
219.93
218.778
217.523
216.168
214.715
213.167
211.528
209.8
207.986
206.091
204.116
202.066
199.944
197.754
195.499
193.184
190.811
188.385
185.909
183.388
180.824
178.223
175.587
172.92
170.227
167.51
164.773
162.019
159.253
156.477
153.694
150.908
148.122
145.339
142.56
139.79
137.029
134.28
131.545
128.826
126.123
123.438
120.772
118.126
115.502
112.898
110.317
107.758
105.222
102.708
100.216
97.7463
95.2988
92.8732
90.4696
88.0881
85.7294
83.3946
81.0857
78.8057
76.5591
74.3522
72.1933
70.0923
68.0612
66.1006
64.215
41.3087
15.7853
11.1906
9.7308
9.20163
9.07649
9.17135
9.40592
9.74004
10.1518
10.6285
11.163
11.7511
12.3909
13.082
13.825
14.6215
15.4734
16.3832
17.3539
18.3888
19.4912
20.6648
21.9132
23.2398
24.6483
26.1419
27.7238
29.3969
31.164
33.0275
34.9895
37.0517
39.2156
41.4823
43.8525
46.3265
48.9042
51.5852
54.3686
57.2532
60.2373
63.3188
66.4954
69.7642
73.1221
76.5656
80.0908
83.6936
87.3696
91.1142
94.9225
98.7897
102.711
106.679
110.688
114.732
118.805
122.902
127.018
131.146
135.281
139.418
143.551
147.675
151.783
155.858
159.886
163.863
167.782
171.638
175.426
179.139
182.774
186.326
189.789
193.16
196.435
199.609
202.678
205.64
208.49
211.225
213.843
216.34
218.716
220.966
223.091
225.088
226.955
228.691
230.296
231.768
233.107
234.312
235.382
236.318
237.118
237.785
238.317
238.716
238.982
239.116
239.119
238.992
238.736
238.354
237.846
237.213
236.459
235.585
234.594
233.487
232.266
230.936
229.497
227.954
226.309
224.565
222.725
220.793
218.772
216.666
214.478
212.211
209.871
207.459
204.982
202.441
199.841
197.187
194.482
191.73
188.936
186.102
183.234
180.334
177.407
174.456
171.486
168.499
165.499
162.489
159.473
156.454
153.435
150.419
147.41
144.408
141.417
138.44
135.477
132.531
129.603
126.696
123.81
120.946
118.106
115.29
112.5
109.735
106.997
104.285
101.601
98.9437
96.3143
93.7131
91.1406
88.5976
86.0852
83.605
81.1595
78.752
76.3868
74.0699
71.8084
69.6106
67.4855
65.4315
63.4516
40.3316
15.48
10.9547
9.50339
8.96934
8.83627
8.92347
9.15205
9.48254
9.89348
10.3727
10.9134
11.5119
12.167
12.8789
13.6491
14.48
15.3746
16.3352
17.3659
18.471
19.6547
20.9214
22.2756
23.7214
25.2631
26.9044
28.649
30.5001
32.4607
34.5333
36.7199
39.0221
41.441
43.9771
46.6307
49.4013
52.288
55.2895
58.4037
61.6285
64.9611
68.3981
71.9359
75.5706
79.2978
83.1127
87.0103
90.9854
95.0324
99.1456
103.319
107.547
111.823
116.141
120.493
124.874
129.277
133.696
138.125
142.559
146.992
151.418
155.832
160.229
164.589
168.897
173.145
177.329
181.443
185.48
189.437
193.307
197.087
200.77
204.354
207.833
211.205
214.464
217.608
220.633
223.536
226.314
228.965
231.485
233.873
236.127
238.246
240.227
242.07
243.773
245.336
246.758
248.037
249.174
250.169
251.021
251.731
252.299
252.726
253.011
253.157
253.164
253.033
252.766
252.364
251.829
251.162
250.366
249.442
248.393
247.221
245.929
244.519
242.995
241.359
239.614
237.763
235.81
233.758
231.611
229.373
227.046
224.635
222.145
219.577
216.938
214.231
211.46
208.628
205.741
202.803
199.817
196.788
193.719
190.615
187.48
184.318
181.132
177.926
174.704
171.47
168.226
164.976
161.724
158.472
155.225
151.983
148.751
145.531
142.325
139.136
135.964
132.813
129.684
126.578
123.498
120.443
117.416
114.418
111.449
108.51
105.602
102.727
99.8843
97.0753
94.3008
91.562
88.8603
86.1973
83.5751
80.9965
78.4651
75.9851
73.562
71.2021
68.9121
66.6991
64.5597
62.4962
38.6897
15.1052
10.6902
9.26651
8.74198
8.61379
8.70635
8.94335
9.28691
9.71672
10.2215
10.7954
11.4355
12.1413
12.914
13.7558
14.6698
15.6597
16.7297
17.8844
19.1288
20.468
21.907
23.4507
25.1039
26.871
28.7561
30.7628
32.8941
35.1525
37.54
40.0579
42.7068
45.4868
48.3971
51.4367
54.6036
57.8954
61.3091
64.8412
68.4877
72.2442
76.1059
80.0676
84.1237
88.2686
92.496
96.7998
101.174
105.611
110.104
114.648
119.235
123.859
128.512
133.188
137.88
142.583
147.289
151.994
156.69
161.374
166.041
170.685
175.284
179.821
184.29
188.685
193.002
197.234
201.378
205.427
209.378
213.226
216.966
220.595
224.109
227.505
230.778
233.926
236.945
239.833
242.587
245.205
247.685
250.025
252.222
254.276
256.185
257.949
259.565
261.034
262.355
263.527
264.55
265.425
266.15
266.727
267.156
267.438
267.573
267.563
267.409
267.111
266.672
266.093
265.376
264.523
263.536
262.417
261.169
259.794
258.295
256.675
254.938
253.085
251.12
249.048
246.87
244.592
242.216
239.747
237.189
234.545
231.819
229.017
226.141
223.196
220.187
217.118
213.992
210.815
207.59
204.322
201.015
197.673
194.3
190.9
187.477
184.035
180.577
177.107
173.628
170.144
166.659
163.175
159.695
156.223
152.762
149.313
145.88
142.464
139.069
135.696
132.347
129.023
125.727
122.461
119.225
116.02
112.85
109.714
106.613
103.55
100.526
97.5412
94.5979
91.6976
88.8423
86.0341
83.2756
80.57
77.9209
75.3326
72.8101
70.3591
67.9848
65.6927
63.4787
61.3446
36.6605
14.6883
10.4477
9.07397
8.57676
8.47278
8.59345
8.86614
9.25539
9.74273
10.3185
10.978
11.7197
12.5443
13.454
14.4519
15.5421
16.7292
18.0181
19.4142
20.9228
22.549
24.2981
26.1746
28.1828
30.3264
32.6085
35.0313
37.5965
40.3048
43.1562
46.15
49.2846
52.5578
55.9666
59.5074
63.1761
66.9679
70.8778
74.9001
79.029
83.2581
87.5811
91.9913
96.4819
101.046
105.676
110.366
115.109
119.897
124.723
129.58
134.463
139.364
144.276
149.193
154.11
159.021
163.92
168.802
173.662
178.496
183.301
188.045
192.716
197.309
201.821
206.245
210.578
214.815
218.951
222.983
226.906
230.716
234.41
237.984
241.434
244.759
247.954
251.016
253.944
256.734
259.385
261.894
264.259
266.478
268.551
270.476
272.251
273.875
275.348
276.669
277.838
278.854
279.717
280.427
280.985
281.39
281.643
281.746
281.698
281.502
281.157
280.667
280.031
279.253
278.333
277.275
276.08
274.75
273.289
271.698
269.982
268.142
266.182
264.106
261.917
259.618
257.213
254.706
252.1
249.401
246.611
243.736
240.778
237.744
234.636
231.459
228.218
224.917
221.56
218.152
214.697
211.199
207.662
204.091
200.49
196.862
193.212
189.544
185.86
182.165
178.462
174.755
171.047
167.342
163.641
159.949
156.269
152.602
148.952
145.322
141.713
138.127
134.568
131.037
127.535
124.066
120.63
117.23
113.866
110.542
107.258
104.017
100.82
97.6685
94.5657
91.5133
88.5138
85.57
82.6849
79.8619
77.1049
74.4182
71.8064
69.2744
66.8264
64.4669
62.1911
60.0009
34.3953
14.2048
10.2169
8.93275
8.49688
8.45405
8.64591
9.00519
9.50003
10.1147
10.842
11.6792
12.6266
13.6862
14.8614
16.1562
17.5751
19.1227
20.8037
22.6224
24.5831
26.6893
28.944
31.3494
33.9071
36.6175
39.4805
42.495
45.659
48.9698
52.4238
56.0168
59.7441
63.6003
67.5796
71.6759
75.8825
80.1928
84.5999
89.0968
93.6763
98.3313
103.055
107.839
112.679
117.565
122.492
127.453
132.441
137.45
142.474
147.506
152.541
157.574
162.598
167.609
172.602
177.572
182.516
187.431
192.313
197.153
201.916
206.6
211.2
215.712
220.131
224.454
228.678
232.797
236.81
240.711
244.498
248.167
251.715
255.139
258.436
261.603
264.638
267.537
270.3
272.922
275.403
277.74
279.932
281.976
283.872
285.619
287.214
288.658