/*--------------------------------*- C++ -*----------------------------------*\
| =========                 |                                                 |
| \\      /  F ield         | OpenFOAM: The Open Source CFD Toolbox           |
|  \\    /   O peration     | Version:  2412                                  |
|   \\  /    A nd           | Website:  www.openfoam.com                      |
|    \\/     M anipulation  |                                                 |
\*---------------------------------------------------------------------------*/
FoamFile
{
    version     2.0;
    format      ascii;
    arch        "LSB;label=32;scalar=64";
    class       volScalarField;
    location    "0.1";
    object      k;
}
// * * * * * * * * * * * * * * * * * * * * * * * * * * * * * * * * * * * * * //

dimensions      [0 2 -2 0 0 0 0];

internalField   nonuniform List<scalar> 
12225
(
0.316793
0.394493
0.477905
0.542612
0.593827
0.634372
0.666724
0.692778
0.713877
0.731037
0.745038
0.756474
0.765798
0.773351
0.779395
0.784074
0.787553
0.7908
0.569139
0.788914
0.952581
1.06799
1.1512
1.2127
1.25817
1.2917
1.3163
1.33411
1.3467
1.35525
1.36066
1.36362
1.3647
1.36424
1.3634
1.36121
0.670061
0.972154
1.18323
1.33202
1.43945
1.51861
1.57693
1.61968
1.65077
1.67302
1.6885
1.69878
1.70507
1.70828
1.70917
1.70834
1.70676
1.70463
0.722108
1.07674
1.32651
1.50447
1.63403
1.72971
1.80042
1.85243
1.89038
1.91766
1.93678
1.94966
1.95774
1.96216
1.96386
1.96362
1.96242
1.96086
0.742771
1.1292
1.41224
1.61818
1.77023
1.88337
1.96763
2.03016
2.07624
2.10979
2.13374
2.15032
2.16125
2.16787
2.17129
2.17247
2.17241
2.17182
0.739914
1.13776
1.44637
1.6782
1.85304
1.98505
2.08467
2.15964
2.21577
2.25741
2.28789
2.30975
2.32497
2.33511
2.34146
2.3451
2.34705
2.34801
0.71962
1.1088
1.43133
1.68402
1.88029
2.03177
2.14828
2.23766
2.30594
2.3578
2.39686
2.42593
2.44724
2.46255
2.47332
2.48074
2.48584
2.48922
0.687642
1.05045
1.37183
1.63647
1.84973
2.01924
2.15293
2.25792
2.34008
2.40413
2.45381
2.49212
2.52148
2.54381
2.56069
2.57343
2.58304
2.59002
0.648986
0.97238
1.27662
1.5408
1.76293
1.94592
2.09472
2.21487
2.31146
2.38885
2.45067
2.49994
2.53911
2.57022
2.59493
2.61459
2.6302
2.64213
0.607485
0.884089
1.15747
1.40739
1.62724
1.81572
1.97447
2.10675
2.21628
2.30659
2.38087
2.44186
2.49194
2.53309
2.56697
2.59492
2.6179
2.63609
0.56582
0.793322
1.02684
1.2503
1.45566
1.63915
1.79965
1.93806
2.05634
2.15684
2.24192
2.31384
2.3746
2.426
2.46955
2.50651
2.53771
2.56314
0.528747
0.712096
0.905184
1.09647
1.27868
1.4475
1.60045
1.73675
1.85687
1.96193
2.05335
2.13269
2.20147
2.2611
2.31284
2.35775
2.39651
2.42877
0.494653
0.637273
0.790586
0.946993
1.10077
1.24804
1.38602
1.51305
1.62848
1.73242
1.82539
1.90819
1.98174
2.04701
2.10491
2.15621
2.20135
2.23969
0.460676
0.562146
0.673149
0.789684
0.90791
1.02495
1.13848
1.2467
1.34845
1.4431
1.53045
1.61059
1.6838
1.75049
1.81111
1.86609
1.91555
1.95852
0.429346
0.492749
0.562802
0.638296
0.717359
0.798327
0.879705
0.96014
1.03853
1.11407
1.18621
1.25459
1.31904
1.37952
1.43605
1.48868
1.53728
1.58062
0.403168
0.435385
0.470978
0.510056
0.552194
0.596862
0.643484
0.691418
0.740018
0.788704
0.836982
0.884443
0.930761
0.975683
1.01902
1.06059
1.10011
1.13652
0.384083
0.394609
0.406483
0.419894
0.434848
0.451303
0.469198
0.488422
0.508815
0.530194
0.552364
0.57513
0.598298
0.621658
0.645028
0.668248
0.691112
0.71308
0.374047
0.373709
0.374089
0.375206
0.377037
0.37956
0.382762
0.38663
0.391141
0.396265
0.40197
0.408214
0.414955
0.422167
0.429808
0.43782
0.446136
0.454646
0.376606
0.378924
0.381989
0.38585
0.390483
0.39585
0.401918
0.408642
0.415962
0.423813
0.432123
0.440823
0.449841
0.459109
0.468563
0.47814
0.487766
0.497223
0.394947
0.417779
0.442956
0.470554
0.500293
0.531812
0.564721
0.598587
0.632963
0.667432
0.701626
0.735236
0.768009
0.799748
0.830304
0.859568
0.887418
0.91345
0.42777
0.489065
0.556228
0.62801
0.702574
0.778279
0.853691
0.927553
0.998853
1.06687
1.13112
1.19134
1.24741
1.29935
1.34725
1.39126
1.43154
1.46812
0.475739
0.594971
0.723606
0.855974
0.987189
1.11393
1.2338
1.34521
1.44733
1.53995
1.62326
1.69774
1.76399
1.82269
1.87456
1.92026
1.96044
1.99559
0.536846
0.728693
0.928622
1.12372
1.30641
1.47303
1.62182
1.75255
1.8661
1.96392
2.04769
2.11908
2.1797
2.23101
2.2743
2.31072
2.34123
2.3667
0.60414
0.873966
1.14016
1.38239
1.59447
1.77605
1.92883
2.05584
2.16062
2.24659
2.31678
2.37381
2.41992
2.45697
2.48653
2.50988
2.52809
2.54211
0.668314
1.00766
1.31642
1.57532
1.78709
1.95802
2.09447
2.20265
2.28799
2.35497
2.40719
2.44756
2.47839
2.50157
2.51856
2.53059
2.53862
2.54352
0.717303
1.09919
1.41419
1.65889
1.84811
1.99398
2.10591
2.19144
2.25649
2.30557
2.34216
2.36896
2.38806
2.40109
2.40934
2.41382
2.41533
2.4146
0.735718
1.11862
1.40734
1.61983
1.77772
1.89573
1.98395
2.04966
2.09826
2.13377
2.15921
2.17689
2.18853
2.19549
2.1988
2.19927
2.19755
2.19423
0.708199
1.04716
1.29075
1.46557
1.59175
1.68428
1.75245
1.80244
1.83877
1.86479
1.88295
1.89508
1.90257
1.90647
1.9076
1.9066
1.90396
1.90015
0.616921
0.862574
1.0489
1.18265
1.27674
1.34491
1.39483
1.43126
1.45767
1.47656
1.48974
1.49855
1.504
1.50684
1.50768
1.50698
1.50508
1.5024
0.33327
0.408789
0.496176
0.564093
0.616606
0.657442
0.689402
0.714711
0.734946
0.751234
0.764423
0.775158
0.783934
0.791133
0.797053
0.801935
0.805952
0.809283
0.0112133
0.0183802
0.0233626
0.0270162
0.0296034
0.0315678
0.0338912
0.0363087
0.0388325
0.0415758
0.0447589
0.0490013
0.0541538
0.0598528
0.0659869
0.0725082
0.0793887
0.0865956
0.0940897
0.101831
0.109782
0.117917
0.12622
0.134689
0.143337
0.152166
0.161055
0.169978
0.178921
0.187875
0.196832
0.205789
0.214742
0.223691
0.232634
0.241574
0.25051
0.259445
0.268379
0.277315
0.286252
0.295191
0.304132
0.313075
0.322018
0.33096
0.339899
0.348832
0.357756
0.366667
0.375563
0.384437
0.393286
0.402105
0.410888
0.41963
0.428325
0.436967
0.445551
0.454069
0.462517
0.470888
0.479175
0.487372
0.495474
0.503475
0.51137
0.519156
0.526835
0.53441
0.541895
0.549317
0.55669
0.563897
0.57094
0.57782
0.584537
0.591086
0.597463
0.603664
0.609682
0.615514
0.621155
0.6266
0.631845
0.636885
0.641717
0.646336
0.650741
0.654926
0.658889
0.662627
0.666137
0.669416
0.672463
0.675276
0.677851
0.680187
0.682284
0.684139
0.685751
0.68712
0.688244
0.689124
0.689758
0.690147
0.690291
0.69019
0.689845
0.689257
0.688428
0.687359
0.686051
0.684508
0.682732
0.680725
0.678493
0.676037
0.673363
0.670474
0.667377
0.664077
0.660579
0.656891
0.653018
0.648968
0.644749
0.640369
0.635836
0.631158
0.626345
0.621406
0.61635
0.611187
0.605927
0.600581
0.595152
0.589663
0.584118
0.578511
0.572884
0.567254
0.561699
0.557029
0.554147
0.55154
0.548974
0.546442
0.543955
0.541524
0.539156
0.53686
0.534643
0.532509
0.530463
0.528506
0.526639
0.524861
0.523167
0.521552
0.520006
0.518519
0.517076
0.515661
0.514252
0.512826
0.511354
0.509804
0.508139
0.506316
0.504286
0.501992
0.499363
0.496312
0.49272
0.488417
0.483084
0.476142
0.46574
0.450747
0.0235994
0.0379241
0.0498413
0.0592768
0.0677028
0.0758429
0.0835952
0.0914062
0.0997396
0.108777
0.118498
0.128784
0.139461
0.150392
0.161535
0.172905
0.184535
0.196456
0.208688
0.221238
0.234109
0.247292
0.260779
0.274552
0.288591
0.302871
0.317362
0.332043
0.346894
0.361895
0.377033
0.392292
0.407661
0.423132
0.438698
0.454353
0.470095
0.485922
0.501831
0.517822
0.533894
0.550047
0.566279
0.582588
0.598973
0.615431
0.631958
0.64855
0.665203
0.68191
0.698665
0.715462
0.732291
0.749145
0.766015
0.782892
0.799764
0.816623
0.833457
0.850254
0.867005
0.883697
0.900319
0.91686
0.933307
0.949649
0.965874
0.981971
0.997929
1.01373
1.02938
1.04484
1.05995
1.07481
1.08945
1.10386
1.11803
1.13196
1.14563
1.15903
1.17216
1.18499
1.19753
1.20976
1.22167
1.23325
1.2445
1.2554
1.26594
1.27612
1.28593
1.29536
1.3044
1.31305
1.32131
1.32915
1.33658
1.3436
1.35019
1.35635
1.36208
1.36737
1.37222
1.37663
1.38058
1.38409
1.38714
1.38973
1.39186
1.39353
1.39475
1.3955
1.39579
1.39562
1.395
1.39392
1.39238
1.3904
1.38798
1.38512
1.38183
1.37811
1.37398
1.36944
1.3645
1.35918
1.35349
1.34743
1.34103
1.33429
1.32724
1.31988
1.31224
1.30433
1.29617
1.28779
1.27918
1.27039
1.26144
1.25227
1.24303
1.2337
1.22433
1.21505
1.20606
1.19713
1.1882
1.17926
1.17032
1.16139
1.15249
1.14362
1.13479
1.12599
1.11724
1.10852
1.09982
1.09115
1.08247
1.07378
1.06505
1.05626
1.04736
1.03833
1.02913
1.0197
1.01
0.999975
0.989555
0.978679
0.967273
0.95526
0.942554
0.929063
0.914676
0.899291
0.88273
0.865112
0.845626
0.823911
0.034536
0.0601726
0.0778726
0.0912913
0.102817
0.113206
0.12335
0.133783
0.144809
0.156517
0.168841
0.181646
0.194803
0.208244
0.22197
0.236028
0.250477
0.265368
0.280734
0.296588
0.312926
0.329726
0.346959
0.364584
0.382561
0.400845
0.419395
0.438175
0.457151
0.476296
0.495587
0.515005
0.534535
0.554167
0.573895
0.593713
0.613619
0.633611
0.653689
0.673854
0.694105
0.714442
0.734866
0.755374
0.775966
0.796637
0.817386
0.838207
0.859094
0.880042
0.901042
0.922087
0.943168
0.964274
0.985395
1.00652
1.02764
1.04873
1.06979
1.09081
1.11176
1.13265
1.15344
1.17413
1.19471
1.21516
1.23547
1.25562
1.27561
1.29541
1.31504
1.3344
1.35347
1.37228
1.39081
1.40906
1.42701
1.44466
1.46198
1.47896
1.49559
1.51185
1.52774
1.54324
1.55833
1.573
1.58725
1.60106
1.61442
1.62732
1.63975
1.65169
1.66315
1.67411
1.68456
1.6945
1.70391
1.7128
1.72114
1.72895
1.73621
1.74291
1.74905
1.75463
1.75964
1.76408
1.76795
1.77123
1.77394
1.77606
1.77761
1.77857
1.77894
1.77874
1.77796
1.7766
1.77467
1.77217
1.7691
1.76549
1.76132
1.75661
1.75138
1.74562
1.73936
1.7326
1.72537
1.71766
1.70951
1.70093
1.69194
1.68255
1.67279
1.66266
1.65222
1.64147
1.63039
1.6191
1.60759
1.59587
1.58397
1.57193
1.55979
1.54763
1.53555
1.52348
1.51139
1.49926
1.48711
1.47495
1.46279
1.45064
1.43851
1.4264
1.4143
1.40222
1.39015
1.37808
1.36599
1.35385
1.34166
1.32936
1.31694
1.30434
1.29152
1.27843
1.26501
1.2512
1.23692
1.22211
1.20669
1.19058
1.17368
1.15592
1.13722
1.11751
1.09678
1.0753
1.05328
1.0316
0.0443566
0.0826099
0.105186
0.121299
0.134465
0.146379
0.157946
0.169715
0.181993
0.194902
0.208432
0.222517
0.237093
0.252135
0.267655
0.283692
0.300286
0.317466
0.33524
0.353598
0.372512
0.391942
0.41184
0.432157
0.45284
0.473843
0.495121
0.516636
0.538357
0.560257
0.582313
0.604511
0.626837
0.649284
0.671846
0.694518
0.717301
0.740192
0.763193
0.786304
0.809524
0.832855
0.856295
0.879843
0.903496
0.927252
0.951107
0.975053
0.999087
1.0232
1.04738
1.07162
1.09592
1.12025
1.14461
1.16898
1.19335
1.2177
1.24202
1.2663
1.29052
1.31466
1.3387
1.36263
1.38644
1.41011
1.43362
1.45695
1.4801
1.50304
1.52577
1.5482
1.57034
1.59217
1.61368
1.63487
1.6557
1.67617
1.69627
1.71596
1.73525
1.7541
1.77252
1.79047
1.80795
1.82494
1.84143
1.8574
1.87285
1.88776
1.90211
1.91591
1.92913
1.94176
1.95381
1.96525
1.97608
1.98629
1.99588
2.00483
2.01315
2.02082
2.02784
2.0342
2.03991
2.04494
2.04931
2.05301
2.05604
2.05839
2.06007
2.06107
2.06139
2.06105
2.06003
2.05834
2.05599
2.05298
2.04932
2.04501
2.04007
2.03449
2.02831
2.02151
2.01413
2.00617
1.99765
1.98858
1.97898
1.96888
1.95828
1.94723
1.93573
1.92379
1.91147
1.8988
1.88579
1.87248
1.85889
1.84504
1.83096
1.81669
1.80227
1.78776
1.77321
1.75863
1.74398
1.72928
1.71454
1.69975
1.68494
1.67012
1.65528
1.64045
1.62562
1.61079
1.59595
1.58109
1.56619
1.55124
1.53622
1.52108
1.50579
1.49032
1.47461
1.45862
1.44227
1.42551
1.40827
1.39047
1.37205
1.35291
1.33299
1.31221
1.29053
1.26796
1.24459
1.22081
1.19723
1.17532
0.0521239
0.102552
0.129097
0.147346
0.162084
0.175198
0.187709
0.200241
0.213166
0.226682
0.240866
0.255726
0.271251
0.287435
0.304285
0.321812
0.340024
0.358916
0.378472
0.398658
0.419432
0.440745
0.462544
0.484779
0.5074
0.530362
0.553624
0.577153
0.600919
0.6249
0.649075
0.673431
0.697957
0.722645
0.74749
0.772487
0.797636
0.822934
0.848382
0.873979
0.899724
0.925617
0.951655
0.977837
1.00416
1.03062
1.0572
1.08391
1.11074
1.13767
1.1647
1.19182
1.21901
1.24625
1.27354
1.30086
1.32819
1.35552
1.38283
1.41009
1.4373
1.46443
1.49146
1.51837
1.54515
1.57178
1.59823
1.62449
1.65054
1.67636
1.70192
1.72716
1.75206
1.77663
1.80083
1.82466
1.84809
1.8711
1.89369
1.91582
1.93748
1.95865
1.97931
1.99946
2.01905
2.0381
2.05657
2.07445
2.09174
2.10841
2.12445
2.13985
2.1546
2.16869
2.18211
2.19485
2.20689
2.21824
2.22888
2.2388
2.248
2.25647
2.26421
2.27121
2.27747
2.28297
2.28773
2.29173
2.29498
2.29747
2.2992
2.30018
2.30039
2.29986
2.29857
2.29653
2.29374
2.29022
2.28597
2.28099
2.27529
2.2689
2.26181
2.25404
2.2456
2.23651
2.22679
2.21645
2.20551
2.19401
2.18192
2.16932
2.15623
2.14266
2.12865
2.11422
2.0994
2.08422
2.0687
2.05288
2.03678
2.02043
2.00389
1.98718
1.97037
1.95345
1.93644
1.91934
1.90216
1.88491
1.86761
1.85027
1.8329
1.8155
1.79808
1.78065
1.76318
1.74568
1.72814
1.71053
1.69283
1.67501
1.65704
1.63887
1.62046
1.60177
1.58272
1.56326
1.54333
1.52284
1.50174
1.47995
1.45742
1.43409
1.40995
1.38506
1.3596
1.33405
1.30907
1.28602
0.0593295
0.118207
0.148168
0.1686
0.18487
0.199094
0.212421
0.225564
0.238973
0.252928
0.267579
0.283
0.299218
0.316238
0.334057
0.352664
0.372041
0.392161
0.412986
0.434475
0.456579
0.479246
0.502427
0.526075
0.550144
0.574596
0.599394
0.624509
0.649915
0.675591
0.70152
0.727689
0.754087
0.780705
0.807538
0.834582
0.861833
0.889289
0.916948
0.944808
0.972868
1.00112
1.02957
1.05821
1.08704
1.11604
1.14521
1.17455
1.20404
1.23367
1.26343
1.29331
1.32329
1.35336
1.38349
1.41367
1.44388
1.4741
1.50431
1.53449
1.56462
1.59466
1.62461
1.65444
1.68412
1.71363
1.74296
1.77207
1.80094
1.82956
1.85786
1.88581
1.91339
1.94059
1.96738
1.99375
2.01967
2.04513
2.07009
2.09455
2.11847
2.14185
2.16465
2.18687
2.20847
2.22945
2.24979
2.26947
2.28848
2.30679
2.32441
2.34131
2.35748
2.37292
2.3876
2.40152
2.41467
2.42705
2.43863
2.44942
2.45941
2.4686
2.47697
2.48452
2.49124
2.49714
2.50221
2.50645
2.50985
2.51242
2.51415
2.51504
2.5151
2.51433
2.51273
2.51031
2.50706
2.50301
2.49815
2.49248
2.48604
2.47881
2.47082
2.46208
2.4526
2.44241
2.43152
2.41992
2.40767
2.3948
2.38132
2.36724
2.35262
2.33746
2.32179
2.30565
2.28907
2.27206
2.25467
2.23691
2.21883
2.20046
2.18183
2.16298
2.14395
2.12477
2.10545
2.08599
2.06642
2.04675
2.027
2.00717
1.98729
1.96735
1.94737
1.92735
1.90728
1.88716
1.86699
1.84673
1.82638
1.8059
1.78527
1.76444
1.74338
1.72203
1.70034
1.67826
1.65572
1.63266
1.60902
1.58474
1.55978
1.53411
1.50775
1.48081
1.45351
1.42634
1.39993
1.37535
0.0680808
0.130235
0.162758
0.184998
0.202635
0.217914
0.232056
0.245829
0.259744
0.274136
0.289216
0.305102
0.321852
0.339482
0.357988
0.377348
0.397532
0.4185
0.440209
0.462611
0.48566
0.509307
0.533509
0.558221
0.583407
0.609031
0.635064
0.66148
0.688255
0.715371
0.742812
0.770566
0.798622
0.826971
0.855606
0.884522
0.913714
0.943179
0.972912
1.00291
1.03317
1.06369
1.09445
1.12547
1.15672
1.18821
1.21991
1.25183
1.28394
1.31624
1.34871
1.38133
1.41408
1.44695
1.47992
1.51296
1.54604
1.57916
1.61228
1.64537
1.67841
1.71138
1.74425
1.77699
1.80957
1.84196
1.87415
1.9061
1.93778
1.96918
2.00021
2.03085
2.06108
2.09088
2.12023
2.1491
2.17747
2.20532
2.23262
2.25936
2.28549
2.31102
2.3359
2.36013
2.38368
2.40653
2.42867
2.45007
2.47073
2.49063
2.50974
2.52807
2.54559
2.56229
2.57816
2.5932
2.60738
2.62071
2.63317
2.64476
2.65546
2.66528
2.67421
2.68225
2.68938
2.6956
2.70092
2.70533
2.70883
2.71142
2.71309
2.71386
2.71371
2.71267
2.71072
2.70787
2.70413
2.69951
2.69401
2.68764
2.68041
2.67234
2.66344
2.65371
2.64317
2.63187
2.6198
2.60699
2.59346
2.57924
2.56435
2.54881
2.53265
2.51591
2.4986
2.48076
2.46241
2.4436
2.42433
2.40466
2.38461
2.36421
2.34349
2.3225
2.30128
2.27984
2.25821
2.2364
2.21445
2.19235
2.17013
2.14781
2.12539
2.1029
2.08034
2.0577
2.03501
2.01224
1.9894
1.96647
1.94344
1.92028
1.89696
1.87345
1.84971
1.8257
1.80137
1.77668
1.75155
1.72595
1.69983
1.67312
1.64582
1.61792
1.58946
1.56058
1.53153
1.50278
1.47486
1.44856
0.0753177
0.138786
0.173139
0.196804
0.215619
0.231885
0.24685
0.261304
0.275783
0.290657
0.306169
0.322472
0.339645
0.357723
0.376704
0.396571
0.417291
0.438824
0.461128
0.484158
0.507871
0.532226
0.557185
0.582711
0.608772
0.63534
0.662389
0.689897
0.717845
0.746216
0.774995
0.804171
0.833732
0.863671
0.893979
0.924649
0.955676
0.987053
1.01878
1.05084
1.08324
1.11596
1.149
1.18236
1.21602
1.24996
1.28419
1.31868
1.35342
1.3884
1.42358
1.45896
1.49452
1.53022
1.56604
1.60197
1.63796
1.674
1.71006
1.74609
1.78209
1.818
1.85381
1.88948
1.92498
1.96028
1.99534
2.03014
2.06465
2.09882
2.13257
2.1659
2.19877
2.23115
2.26304
2.29439
2.32519
2.3554
2.385
2.41397
2.44228
2.4699
2.49682
2.52301
2.54845
2.57312
2.597
2.62007
2.64232
2.66372
2.68428
2.70396
2.72276
2.74066
2.75766
2.77373
2.78888
2.80309
2.81636
2.82867
2.84003
2.85042
2.85984
2.86829
2.87576
2.88225
2.88775
2.89228
2.89581
2.89836
2.89993
2.90051
2.90012
2.89874
2.89639
2.89308
2.8888
2.88357
2.8774
2.87029
2.86224
2.8533
2.84346
2.83275
2.82116
2.80874
2.7955
2.78146
2.76663
2.75106
2.73475
2.71774
2.70005
2.68172
2.66276
2.64322
2.62311
2.60248
2.58134
2.55974
2.53771
2.51527
2.49247
2.46933
2.4459
2.4222
2.39825
2.37409
2.34972
2.32518
2.30048
2.27563
2.25066
2.22558
2.2004
2.17512
2.14976
2.12431
2.09876
2.07311
2.04735
2.02146
1.99541
1.96918
1.94273
1.91603
1.88903
1.8617
1.83399
1.80585
1.77724
1.74814
1.71854
1.68845
1.65795
1.62719
1.59641
1.56605
1.53652
1.50839
0.08103
0.144279
0.179816
0.204542
0.224325
0.241477
0.257237
0.272387
0.287464
0.302847
0.318795
0.335479
0.352999
0.371405
0.390708
0.410901
0.431958
0.453848
0.476534
0.499979
0.524149
0.54901
0.57453
0.600681
0.627438
0.654778
0.682679
0.711125
0.740099
0.769586
0.799575
0.830053
0.861011
0.89244
0.924331
0.956677
0.98947
1.0227
1.05637
1.09046
1.12496
1.15987
1.19518
1.23087
1.26694
1.30336
1.34013
1.37721
1.41461
1.45229
1.49023
1.52841
1.5668
1.60537
1.64409
1.68294
1.72188
1.76088
1.79991
1.83892
1.87789
1.91678
1.95555
1.99417
2.03261
2.07082
2.10877
2.14643
2.18377
2.22068
2.25715
2.29314
2.32862
2.36357
2.39796
2.43176
2.46494
2.49747
2.52932
2.56048
2.5909
2.62057
2.64946
2.67755
2.70481
2.73123
2.75678
2.78145
2.80521
2.82806
2.84997
2.87093
2.89093
2.90996
2.928
2.94505
2.96108
2.9761
2.99009
3.00306
3.01499
3.02588
3.03572
3.04451
3.05225
3.05894
3.06456
3.06913
3.07264
3.0751
3.07649
3.07684
3.07613
3.07438
3.07159
3.06775
3.06289
3.05702
3.05014
3.04226
3.03339
3.02355
3.01277
3.00104
2.98839
2.97484
2.96041
2.94512
2.92899
2.91204
2.89432
2.87582
2.8566
2.83667
2.81606
2.79481
2.77294
2.75048
2.72747
2.70394
2.67992
2.65544
2.63054
2.60525
2.5796
2.55363
2.52737
2.50083
2.47405
2.44704
2.41984
2.39245
2.36489
2.3372
2.30936
2.28141
2.25334
2.22516
2.19687
2.16846
2.13993
2.11126
2.08244
2.05344
2.02424
1.99481
1.96511
1.93512
1.9048
1.8741
1.84302
1.81154
1.77965
1.7474
1.71488
1.68223
1.64972
1.6177
1.58649
1.55649
0.0853183
0.147197
0.183378
0.208837
0.229373
0.247277
0.263757
0.27957
0.295233
0.311118
0.327486
0.344515
0.36232
0.380965
0.400479
0.420868
0.442119
0.464214
0.487128
0.510834
0.535308
0.560524
0.586462
0.613099
0.640418
0.668402
0.697037
0.726308
0.756202
0.78671
0.817819
0.84952
0.881803
0.91466
0.948082
0.98206
1.01658
1.05165
1.08724
1.12334
1.15996
1.19706
1.23465
1.2727
1.3112
1.35013
1.38947
1.4292
1.46928
1.50971
1.55045
1.59147
1.63273
1.67422
1.71588
1.75769
1.7996
1.84159
1.88361
1.92561
1.96757
2.00944
2.05119
2.09276
2.13412
2.17523
2.21605
2.25654
2.29666
2.3363
2.37543
2.41404
2.45208
2.48953
2.52636
2.56254
2.59803
2.6328
2.66684
2.7001
2.73256
2.76419
2.79496
2.82486
2.85385
2.88192
2.90904
2.93521
2.96039
2.98458
3.00775
3.0299
3.05101
3.07107
3.09007
3.10798
3.12481
3.14054
3.15518
3.1687
3.18112
3.19242
3.20261
3.21167
3.2196
3.2264
3.23207
3.23661
3.24003
3.24232
3.24349
3.24353
3.24246
3.24028
3.23699
3.2326
3.22713
3.22057
3.21296
3.20428
3.19456
3.18381
3.17205
3.15929
3.14556
3.13086
3.11523
3.09868
3.08124
3.06293
3.04377
3.0238
3.00304
2.98151
2.95926
2.9363
2.91267
2.88839
2.86351
2.83805
2.81205
2.78553
2.75854
2.73109
2.70324
2.675
2.64642
2.61751
2.58831
2.55884
2.52911
2.49917
2.46902
2.43868
2.40818
2.37753
2.34672
2.31579
2.28472
2.25352
2.22218
2.19071
2.15908
2.12728
2.0953
2.0631
2.03068
1.99801
1.96505
1.9318
1.89823
1.86436
1.83019
1.79579
1.76125
1.72673
1.69245
1.65874
1.6258
1.59393
0.0882978
0.147994
0.184394
0.210307
0.231393
0.249898
0.26699
0.283389
0.299586
0.315932
0.332681
0.350013
0.36805
0.386869
0.406516
0.427011
0.448359
0.470555
0.49359
0.51745
0.542122
0.567592
0.593847
0.620877
0.64867
0.677216
0.706507
0.736534
0.767288
0.79876
0.830944
0.86383
0.897409
0.931674
0.966614
1.00222
1.03848
1.07538
1.11292
1.15107
1.18982
1.22916
1.26907
1.30952
1.3505
1.39198
1.43394
1.47636
1.51919
1.56241
1.60598
1.64988
1.69406
1.73848
1.7831
1.82788
1.87279
1.91776
1.96276
2.00775
2.05268
2.09751
2.14218
2.18666
2.2309
2.27486
2.31849
2.36175
2.40455
2.44682
2.48854
2.52966
2.57017
2.61001
2.64917
2.68761
2.7253
2.7622
2.79829
2.83353
2.8679
2.90136
2.93389
2.96546
2.99605
3.02565
3.05422
3.08175
3.10823
3.13363
3.15794
3.18115
3.20325
3.22422
3.24405
3.26273
3.28023
3.29657
3.31174
3.32572
3.33853
3.35014
3.36058
3.36982
3.37785
3.38468
3.39032
3.39476
3.39801
3.40007
3.40094
3.40063
3.39914
3.39648
3.39265
3.38767
3.38154
3.37428
3.36589
3.35639
3.3458
3.33411
3.32136
3.30756
3.29273
3.27689
3.26005
3.24224
3.22349
3.20381
3.18324
3.16179
3.1395
3.11639
3.0925
3.06785
3.04248
3.0164
2.98967
2.9623
2.93433
2.90579
2.87672
2.84714
2.8171
2.78661
2.75573
2.72446
2.69285
2.66092
2.6287
2.5962
2.56345
2.53048
2.49731
2.46394
2.4304
2.3967
2.36284
2.32883
2.29467
2.26037
2.22591
2.19129
2.15651
2.12154
2.08637
2.051
2.01541
1.97959
1.94354
1.90729
1.87085
1.83431
1.79775
1.76134
1.72529
1.68986
1.65519
1.62146
0.0900746
0.147068
0.183366
0.209513
0.230968
0.249925
0.267506
0.284392
0.301043
0.317788
0.334867
0.352455
0.370679
0.389627
0.409357
0.429905
0.451293
0.473533
0.49663
0.520586
0.5454
0.571071
0.597597
0.624975
0.653205
0.682283
0.712206
0.742972
0.774576
0.807013
0.840278
0.874364
0.909262
0.944964
0.981459
1.01874
1.05678
1.09558
1.13512
1.17538
1.21633
1.25797
1.30027
1.34319
1.38671
1.43081
1.47545
1.5206
1.56622
1.61227
1.65871
1.70551
1.75261
1.79997
1.84755
1.89529
1.94315
1.99107
2.03901
2.08692
2.13475
2.18244
2.22996
2.27724
2.32425
2.37094
2.41726
2.46315
2.50848
2.55324
2.59737
2.64086
2.68365
2.72573
2.76705
2.80757
2.84728
2.88612
2.92409
2.96113
2.99723
3.03235
3.06645
3.09953
3.13154
3.16249
3.19233
3.22106
3.24866
3.27512
3.30041
3.32453
3.34746
3.3692
3.38973
3.40903
3.42708
3.44389
3.45946
3.47379
3.48686
3.49868
3.50924
3.51854
3.52659
3.53337
3.53889
3.54315
3.54616
3.54792
3.54844
3.54772
3.54576
3.54257
3.53817
3.53255
3.52574
3.51773
3.50855
3.49821
3.48671
3.47408
3.46034
3.44549
3.42956
3.41256
3.39453
3.37547
3.35542
3.33439
3.31241
3.28952
3.26572
3.24106
3.21556
3.18925
3.16217
3.13433
3.10577
3.07653
3.04663
3.01611
2.985
2.95332
2.92112
2.88843
2.85528
2.82169
2.78771
2.75335
2.71865
2.68362
2.64831
2.61272
2.57689
2.54083
2.50456
2.4681
2.43145
2.39464
2.35767
2.32054
2.28326
2.24582
2.20823
2.17049
2.13258
2.09452
2.0563
2.01792
1.97941
1.94078
1.9021
1.86342
1.82486
1.78658
1.74875
1.71161
1.67521
1.6397
0.090734
0.144751
0.18072
0.206935
0.228616
0.247891
0.265841
0.283112
0.300131
0.317206
0.334561
0.352367
0.37075
0.389804
0.409601
0.430191
0.451612
0.473891
0.497049
0.521102
0.546064
0.571947
0.59876
0.626511
0.655208
0.684856
0.715459
0.747018
0.779535
0.813007
0.847431
0.882801
0.919109
0.956346
0.994498
1.03355
1.07349
1.11429
1.15594
1.19841
1.24168
1.28572
1.33049
1.37596
1.42211
1.46889
1.51626
1.56419
1.61262
1.66152
1.71083
1.76051
1.81051
1.86077
1.91124
1.96187
2.01259
2.06335
2.11411
2.1648
2.21538
2.26579
2.31597
2.36589
2.41548
2.46471
2.51352
2.56176
2.6094
2.6564
2.70272
2.74832
2.79316
2.83722
2.88044
2.9228
2.96427
3.00482
3.04441
3.08302
3.12062
3.15715
3.19259
3.22693
3.26014
3.2922
3.32311
3.35282
3.38134
3.40865
3.43472
3.45955
3.48313
3.50544
3.52648
3.54623
3.56467
3.58182
3.59766
3.61219
3.6254
3.63731
3.64789
3.65716
3.66511
3.67175
3.67707
3.68107
3.68377
3.68517
3.68527
3.68407
3.68159
3.67784
3.67281
3.66653
3.65899
3.65023
3.64023
3.62903
3.61663
3.60305
3.5883
3.57241
3.55539
3.53726
3.51805
3.49776
3.47644
3.45409
3.43075
3.40644
3.38119
3.35502
3.32796
3.30004
3.27129
3.24175
3.21143
3.18037
3.1486
3.11615
3.08305
3.04934
3.01505
2.9802
2.94484
2.90899
2.87269
2.83596
2.79883
2.76133
2.72349
2.68533
2.64689
2.60817
2.56921
2.53002
2.49063
2.45104
2.41128
2.37135
2.33126
2.29104
2.25067
2.21017
2.16956
2.12883
2.088
2.0471
2.00615
1.96519
1.92428
1.88351
1.84298
1.80285
1.76327
1.72443
1.68637
1.64917
0.0903329
0.141314
0.176807
0.202979
0.22478
0.244272
0.262494
0.280061
0.297376
0.314725
0.332321
0.350327
0.36887
0.388051
0.407948
0.428626
0.450138
0.472525
0.495821
0.520057
0.545261
0.571458
0.598669
0.626914
0.656208
0.686565
0.717994
0.750504
0.784097
0.818774
0.854533
0.891368
0.929269
0.968224
1.00822
1.04923
1.09124
1.13422
1.17814
1.22297
1.26869
1.31524
1.36261
1.41073
1.45957
1.50908
1.55922
1.60993
1.66116
1.71287
1.76499
1.81748
1.87027
1.92332
1.97655
2.02988
2.08328
2.13668
2.19003
2.24327
2.29634
2.3492
2.40178
2.45404
2.50592
2.55738
2.60829
2.65857
2.70818
2.75709
2.80524
2.85261
2.89916
2.94485
2.98964
3.0335
3.0764
3.1183
3.15918
3.19901
3.23775
3.27538
3.31186
3.34717
3.3813
3.41422
3.44591
3.47636
3.50555
3.53347
3.5601
3.58542
3.60944
3.63213
3.65349
3.67351
3.69218
3.70949
3.72544
3.74002
3.75325
3.7651
3.77559
3.78472
3.79247
3.79886
3.80388
3.80755
3.80986
3.81082
3.81044
3.80872
3.80567
3.8013
3.79562
3.78864
3.78037
3.77082
3.76
3.74794
3.73463
3.72011
3.70438
3.68747
3.66938
3.65015
3.62979
3.60832
3.58577
3.56216
3.53751
3.51184
3.48519
3.45758
3.42903
3.39957
3.36924
3.33806
3.30605
3.27326
3.2397
3.2054
3.17041
3.13475
3.09844
3.06153
3.02405
2.98602
2.94747
2.90845
2.86897
2.82908
2.78879
2.74813
2.70714
2.66583
2.62424
2.58239
2.5403
2.498
2.4555
2.41282
2.36999
2.32702
2.28392
2.24073
2.19745
2.15411
2.11073
2.06736
2.02402
1.98079
1.93772
1.8949
1.85245
1.81052
1.76924
1.72878
1.68913
1.65036
0.0889064
0.13695
0.171897
0.197974
0.219842
0.239491
0.257927
0.275738
0.293312
0.310919
0.328764
0.347005
0.36577
0.385163
0.405274
0.426178
0.447945
0.47063
0.494263
0.518895
0.544567
0.571319
0.599184
0.628189
0.658358
0.689713
0.722266
0.75603
0.791009
0.827204
0.86461
0.90322
0.943018
0.983988
1.02611
1.06935
1.11368
1.15907
1.20547
1.25286
1.30118
1.35039
1.40043
1.45127
1.50284
1.55508
1.60795
1.66138
1.71532
1.7697
1.82446
1.87955
1.93489
1.99043
2.04611
2.10185
2.15759
2.21327
2.26884
2.32424
2.37941
2.4343
2.48886
2.54303
2.59677
2.64996
2.7025
2.75435
2.80547
2.85581
2.90535
2.95403
3.00183
3.0487
3.09461
3.13954
3.18344
3.22629
3.26806
3.30872
3.34824
3.38658
3.42374
3.45968
3.49438
3.52783
3.56
3.59088
3.62046
3.64871
3.67563
3.7012
3.72541
3.74825
3.76972
3.7898
3.80849
3.82579
3.84168
3.85616
3.86924
3.88091
3.89117
3.90002
3.90747
3.91351
3.91815
3.92139
3.92324
3.9237
3.92278
3.92048
3.91682
3.91181
3.90545
3.89775
3.88873
3.87839
3.86676
3.85384
3.83965
3.82421
3.80753
3.78963
3.77053
3.75024
3.72879
3.7062
3.68249
3.65768
3.6318
3.60486
3.5769
3.54793
3.51799
3.48709
3.45527
3.42256
3.38897
3.35454
3.3193
3.28328
3.2465
3.20899
3.17079
3.13192
3.09242
3.05232
3.01165
2.97044
2.92873
2.88653
2.84389
2.80084
2.7574
2.7136
2.66947
2.62505
2.58036
2.53542
2.49027
2.44493
2.39943
2.35379
2.30805
2.26223
2.21637
2.17049
2.12465
2.07889
2.03325
1.98782
1.94267
1.89789
1.8536
1.80995
1.76705
1.72506
1.68395
1.64376
0.0864783
0.131519
0.165956
0.191989
0.213952
0.233772
0.252434
0.270515
0.288391
0.30633
0.324532
0.343153
0.362325
0.382156
0.402742
0.424167
0.446508
0.46983
0.49419
0.519646
0.546248
0.574042
0.60307
0.633366
0.664958
0.697868
0.732113
0.767702
0.804636
0.842912
0.882518
0.923439
0.96565
1.00912
1.05382
1.09972
1.14675
1.19489
1.24408
1.29426
1.34539
1.39739
1.45022
1.50381
1.55809
1.61301
1.6685
1.72449
1.78092
1.83773
1.89484
1.9522
2.00973
2.06738
2.12507
2.18275
2.24035
2.29781
2.35508
2.4121
2.46882
2.52518
2.58114
2.63666
2.6916
2.74587
2.79943
2.85223
2.90425
2.95543
3.00574
3.05515
3.10362
3.15111
3.1976
3.24305
3.28743
3.33072
3.37288
3.41388
3.45371
3.49233
3.52972
3.56586
3.60074
3.63432
3.66659
3.69754
3.72715
3.75541
3.7823
3.80782
3.83194
3.85467
3.87599
3.89589
3.91437
3.93142
3.94704
3.96123
3.97398
3.98529
3.99517
4.0036
4.0106
4.01617
4.02031
4.02302
4.02431
4.02418
4.02264
4.01971
4.01538
4.00967
4.00258
3.99414
3.98434
3.97321
3.96075
3.94698
3.93191
3.91556
3.89795
3.8791
3.85901
3.83771
3.81523
3.79157
3.76676
3.74082
3.71377
3.68563
3.65644
3.6262
3.59495
3.56271
3.5295
3.49534
3.46028
3.42432
3.3875
3.34985
3.31139
3.27214
3.23215
3.19144
3.15003
3.10797
3.06528
3.02199
2.97814
2.93375
2.88886
2.8435
2.79771
2.75152
2.70495
2.65805
2.61084
2.56337
2.51565
2.46774
2.41966
2.37146
2.32316
2.27481
2.22646
2.17815
2.12994
2.08189
2.03406
1.98654
1.93941
1.89278
1.84677
1.80151
1.75713
1.71374
1.67131
1.6299
0.0834307
0.126137
0.159976
0.185935
0.207988
0.227994
0.246923
0.265349
0.283651
0.302098
0.320892
0.340196
0.360145
0.380853
0.402422
0.424942
0.448496
0.473156
0.49899
0.526057
0.554412
0.584102
0.615167
0.647637
0.681538
0.716884
0.753682
0.79193
0.831618
0.872727
0.915233
0.959101
1.00429
1.05077
1.09847
1.14734
1.19734
1.24839
1.30044
1.35341
1.40725
1.46188
1.51724
1.57325
1.62986
1.68699
1.74457
1.80255
1.86084
1.91939
1.97814
2.03701
2.09594
2.15489
2.21377
2.27254
2.33114
2.38951
2.4476
2.50537
2.56275
2.61971
2.67621
2.7321
2.7873
2.84178
2.89551
2.94843
3.00053
3.05175
3.10207
3.15145
3.19987
3.24728
3.29366
3.33897
3.3832
3.4263
3.46827
3.50906
3.54866
3.58703
3.62417
3.66004
3.69464
3.72793
3.7599
3.79053
3.81982
3.84774
3.87429
3.89944
3.92319
3.94553
3.96646
3.98595
4.00401
4.02063
4.03581
4.04954
4.06181
4.07264
4.08201
4.08993
4.09639
4.10141
4.10499
4.10712
4.10781
4.10707
4.10491
4.10133
4.09635
4.08996
4.08219
4.07303
4.06252
4.05064
4.03743
4.02289
4.00704
3.98989
3.97145
3.95176
3.93081
3.90864
3.88525
3.86067
3.83491
3.808
3.77995