/*--------------------------------*- C++ -*----------------------------------*\
| =========                 |                                                 |
| \\      /  F ield         | OpenFOAM: The Open Source CFD Toolbox           |
|  \\    /   O peration     | Version:  2412                                  |
|   \\  /    A nd           | Website:  www.openfoam.com                      |
|    \\/     M anipulation  |                                                 |
\*---------------------------------------------------------------------------*/
FoamFile
{
    version     2.0;
    format      ascii;
    arch        "LSB;label=32;scalar=64";
    class       volScalarField;
    location    "0.1";
    object      nut;
}
// * * * * * * * * * * * * * * * * * * * * * * * * * * * * * * * * * * * * * //

dimensions      [0 2 -1 0 0 0 0];

internalField   nonuniform List<scalar> 
12225
(
2.015e-05
2.24858e-05
2.47491e-05
2.63714e-05
2.75879e-05
2.85141e-05
2.92322e-05
2.97978e-05
3.02482e-05
3.06096e-05
3.09013e-05
3.11376e-05
3.13289e-05
3.1483e-05
3.16057e-05
3.17005e-05
3.17706e-05
3.18359e-05
0.000167792
0.000185428
0.000202597
0.000213786
0.000221145
0.000225984
0.000229001
0.00023072
0.000231514
0.000231643
0.000231292
0.000230594
0.00022965
0.000228531
0.000227295
0.00022597
0.000224711
0.000224086
0.000338328
0.000365994
0.000399361
0.000424406
0.000442779
0.000456138
0.000465648
0.000472248
0.000476656
0.000479409
0.000480904
0.000481446
0.000481263
0.000480528
0.000479376
0.000477907
0.00047632
0.000475532
0.000480631
0.00052177
0.000570121
0.00060839
0.000637801
0.000660209
0.000677098
0.00068969
0.000698951
0.000705623
0.000710277
0.000713357
0.000715203
0.000716083
0.000716206
0.000715742
0.000714934
0.000714512
0.00059357
0.000650967
0.000713489
0.000763785
0.000803283
0.000834122
0.000858087
0.000876628
0.000890894
0.000901782
0.000909995
0.000916085
0.000920486
0.000923541
0.000925526
0.00092667
0.000927237
0.000927754
0.000684417
0.000756656
0.00083195
0.000893053
0.000941625
0.000980103
0.00101056
0.00103466
0.00105369
0.0010687
0.00108047
0.00108966
0.00109677
0.00110221
0.0011063
0.00110932
0.00111154
0.00111336
0.000759756
0.000842839
0.000928291
0.000998648
0.00105522
0.00110054
0.00113687
0.00116606
0.00118953
0.00120842
0.00122362
0.00123583
0.00124563
0.00125348
0.00125974
0.00126473
0.00126872
0.001272
0.000823624
0.000913364
0.00100525
0.00108261
0.00114578
0.00119702
0.00123858
0.00127237
0.00129992
0.00132243
0.00134086
0.00135598
0.00136839
0.00137861
0.00138704
0.001394
0.00139976
0.00140454
0.000877002
0.000970915
0.0010653
0.00114672
0.00121456
0.00127046
0.0013164
0.00135422
0.00138543
0.00141127
0.00143272
0.00145059
0.00146552
0.00147806
0.00148861
0.00149752
0.00150504
0.00151132
0.000918257
0.00101593
0.00110995
0.00119241
0.00126253
0.0013214
0.00137056
0.00141158
0.00144588
0.00147464
0.00149884
0.00151927
0.0015366
0.00155136
0.00156399
0.00157482
0.00158407
0.00159181
0.000944751
0.00104624
0.0011388
0.00122006
0.00129015
0.00135004
0.00140091
0.00144403
0.00148061
0.00151172
0.00153825
0.00156096
0.00158048
0.00159733
0.00161195
0.00162464
0.00163558
0.00164477
0.00095393
0.00105647
0.00114713
0.00122621
0.0012948
0.00135413
0.00140529
0.00144931
0.00148721
0.00151988
0.00154812
0.00157261
0.00159392
0.00161254
0.00162887
0.0016432
0.00165566
0.00166616
0.000951546
0.0010519
0.0011407
0.00121792
0.00128483
0.00134291
0.00139338
0.00143726
0.00147547
0.00150881
0.00153798
0.00156357
0.00158611
0.00160603
0.00162368
0.00163933
0.00165305
0.00166463
0.000937267
0.00102693
0.00110962
0.00118334
0.00124794
0.00130435
0.00135363
0.00139678
0.00143466
0.00146804
0.00149755
0.00152375
0.00154708
0.00156795
0.00158665
0.00160341
0.00161825
0.00163079
0.000914068
0.00098252
0.00105001
0.00111402
0.00117278
0.00122568
0.00127283
0.00131465
0.00135172
0.00138465
0.00141401
0.00144029
0.00146391
0.00148522
0.00150452
0.00152198
0.0015376
0.00155084
0.000888183
0.000929369
0.000972534
0.00101673
0.00106058
0.00110292
0.00114294
0.00118014
0.00121431
0.00124548
0.00127379
0.00129951
0.00132288
0.00134416
0.00136357
0.00138128
0.00139727
0.00141096
0.000866166
0.000882906
0.000901461
0.000921831
0.000943719
0.000966729
0.000990435
0.00101439
0.00103816
0.00106139
0.00108381
0.00110523
0.00112553
0.00114465
0.00116256
0.00117927
0.00119473
0.0012085
0.000853647
0.000856464
0.000860484
0.000865725
0.000872138
0.000879659
0.000888217
0.000897724
0.000908065
0.000919112
0.000930724
0.000942762
0.000955088
0.000967579
0.000980114
0.000992574
0.00100484
0.00101668
0.000856837
0.000863038
0.000870431
0.000879022
0.000888697
0.000899301
0.000910669
0.000922615
0.000934944
0.000947471
0.000960028
0.000972477
0.000984705
0.000996628
0.00100819
0.00101934
0.00103003
0.00104003
0.000879013
0.000910089
0.000943
0.000977093
0.00101137
0.00104492
0.00107706
0.00110729
0.00113534
0.00116108
0.00118455
0.00120586
0.00122515
0.00124261
0.0012584
0.00127269
0.0012856
0.0012972
0.000912426
0.000978629
0.00104329
0.00110414
0.00115968
0.00120944
0.00125357
0.00129249
0.00132674
0.00135688
0.00138341
0.00140682
0.00142752
0.00144584
0.00146209
0.00147654
0.00148939
0.00150094
0.000944651
0.00103936
0.00112414
0.00119816
0.00126208
0.00131725
0.00136491
0.00140609
0.0014417
0.00147253
0.00149927
0.0015225
0.00154271
0.00156032
0.00157569
0.00158913
0.00160088
0.00161123
0.000952969
0.00105495
0.00114494
0.00122286
0.00128968
0.0013468
0.00139547
0.00143684
0.00147199
0.00150189
0.00152735
0.00154907
0.00156762
0.0015835
0.0015971
0.00160877
0.00161877
0.00162734
0.000919762
0.00101577
0.00110711
0.00118655
0.00125366
0.00130983
0.00135662
0.00139556
0.00142799
0.00145507
0.00147772
0.00149668
0.00151259
0.00152594
0.00153715
0.00154656
0.00155444
0.00156098
0.00084792
0.000936212
0.00102591
0.00110193
0.0011644
0.00121544
0.00125709
0.00129112
0.00131899
0.00134186
0.00136065
0.00137609
0.00138878
0.00139919
0.00140773
0.00141469
0.00142033
0.00142481
0.000748241
0.000825344
0.000905837
0.000972006
0.00102523
0.00106796
0.00110226
0.00112982
0.00115199
0.00116982
0.00118415
0.00119563
0.00120479
0.00121207
0.00121779
0.00122223
0.00122561
0.00122807
0.000620838
0.000679397
0.000743804
0.000795903
0.000837072
0.000869523
0.000895047
0.000915073
0.00093074
0.000942941
0.000952378
0.000959602
0.00096505
0.000969066
0.000971929
0.000973859
0.000975029
0.000975557
0.000453206
0.00049108
0.000536514
0.000572228
0.00059936
0.000619977
0.00063556
0.00064722
0.00065584
0.0006621
0.00066652
0.000669502
0.000671356
0.000672327
0.000672604
0.000672338
0.000671648
0.00067063
0.00023657
0.000259231
0.000284033
0.000301437
0.000313163
0.000321244
0.000326756
0.000330375
0.000332603
0.000333805
0.000334244
0.000334114
0.000333559
0.00033269
0.00033159
0.000330323
0.00032894
0.000327502
2.7242e-05
3.0171e-05
3.32398e-05
3.54418e-05
3.70548e-05
3.82621e-05
3.91811e-05
3.98938e-05
4.04546e-05
4.09005e-05
4.12579e-05
4.15466e-05
4.17812e-05
4.19726e-05
4.21293e-05
4.22581e-05
4.23639e-05
4.24513e-05
6.26369e-06
1.71084e-05
1.92756e-05
2.07169e-05
2.16766e-05
2.23822e-05
2.31868e-05
2.39937e-05
2.48071e-05
2.56616e-05
2.66205e-05
2.78542e-05
2.92677e-05
3.07518e-05
3.22693e-05
3.38049e-05
3.53498e-05
3.68958e-05
3.84348e-05
3.99596e-05
4.14649e-05
4.29477e-05
4.44073e-05
4.58454e-05
4.72657e-05
4.86736e-05
5.00489e-05
5.13904e-05
5.26984e-05
5.39739e-05
5.52182e-05
5.64327e-05
5.76187e-05
5.87778e-05
5.99115e-05
6.10213e-05
6.21085e-05
6.31743e-05
6.422e-05
6.52466e-05
6.6255e-05
6.7246e-05
6.82204e-05
6.91787e-05
7.01214e-05
7.10489e-05
7.19616e-05
7.28597e-05
7.37434e-05
7.46128e-05
7.54679e-05
7.63088e-05
7.71355e-05
7.79479e-05
7.87459e-05
7.95295e-05
8.02984e-05
8.10525e-05
8.17918e-05
8.25159e-05
8.32248e-05
8.39183e-05
8.45962e-05
8.52584e-05
8.59046e-05
8.65348e-05
8.7149e-05
8.77473e-05
8.83299e-05
8.88975e-05
8.94514e-05
8.99938e-05
9.05279e-05
9.1043e-05
9.15396e-05
9.20182e-05
9.24791e-05
9.29223e-05
9.33477e-05
9.37553e-05
9.41449e-05
9.45165e-05
9.48699e-05
9.52051e-05
9.5522e-05
9.58205e-05
9.61005e-05
9.6362e-05
9.6605e-05
9.68294e-05
9.70352e-05
9.72224e-05
9.73909e-05
9.75407e-05
9.76718e-05
9.77843e-05
9.78781e-05
9.79533e-05
9.80098e-05
9.80477e-05
9.80671e-05
9.80679e-05
9.80502e-05
9.8014e-05
9.79594e-05
9.78864e-05
9.77952e-05
9.76858e-05
9.75583e-05
9.74127e-05
9.72493e-05
9.7068e-05
9.68692e-05
9.66528e-05
9.64191e-05
9.61683e-05
9.59006e-05
9.56162e-05
9.53154e-05
9.49984e-05
9.46655e-05
9.43171e-05
9.39535e-05
9.35751e-05
9.31823e-05
9.27755e-05
9.23551e-05
9.19217e-05
9.14757e-05
9.10178e-05
9.05483e-05
9.00681e-05
8.95775e-05
8.90773e-05
8.85681e-05
8.80507e-05
8.75252e-05
8.69933e-05
8.64553e-05
8.59103e-05
8.53624e-05
8.48123e-05
8.42681e-05
8.38099e-05
8.34697e-05
8.31386e-05
8.28085e-05
8.24794e-05
8.21523e-05
8.1828e-05
8.15072e-05
8.11907e-05
8.08791e-05
8.05729e-05
8.02725e-05
7.99781e-05
7.96901e-05
7.94083e-05
7.91326e-05
7.88629e-05
7.85985e-05
7.83389e-05
7.80831e-05
7.78301e-05
7.75784e-05
7.73263e-05
7.70721e-05
7.68133e-05
7.65474e-05
7.62712e-05
7.59812e-05
7.5673e-05
7.53414e-05
7.49798e-05
7.4579e-05
7.41259e-05
7.35958e-05
7.29434e-05
7.20247e-05
7.07324e-05
9.08243e-06
4.14006e-05
8.00693e-05
0.000109798
0.00013047
0.000144038
0.000150918
0.000155017
0.000158577
0.000162433
0.000166645
0.000171011
0.000175487
0.000180169
0.00018517
0.000190603
0.000196559
0.000203095
0.000210229
0.000217948
0.000226216
0.00023498
0.000244178
0.000253742
0.000263607
0.000273719
0.000284033
0.000294502
0.000305078
0.00031572
0.000326393
0.000337068
0.000347721
0.000358335
0.000368898
0.000379403
0.000389845
0.000400224
0.000410541
0.000420798
0.000430999
0.000441148
0.000451249
0.000461307
0.000471326
0.000481308
0.000491257
0.000501174
0.000511061
0.000520917
0.000530743
0.000540538
0.0005503
0.000560028
0.000569718
0.000579367
0.000588972
0.00059853
0.000608036
0.000617486
0.000626875
0.000636199
0.000645452
0.000654629
0.000663724
0.000672729
0.000681633
0.000690423
0.000699078
0.000707569
0.000715854
0.000723879
0.000731283
0.000738484
0.000745551
0.000752495
0.000759315
0.000766011
0.000772579
0.000779017
0.000785322
0.000791491
0.000797522
0.000803412
0.000809159
0.00081476
0.000820213
0.000825516
0.000830666
0.000835662
0.000840503
0.000845185
0.000849707
0.000854068
0.000858267
0.0008623
0.000866167
0.000869867
0.000873398
0.000876758
0.000879946
0.000882961
0.000885802
0.000888466
0.000890953
0.000893261
0.000895389
0.000897337
0.000899102
0.000900683
0.00090208
0.000903291
0.000904316
0.000905154
0.000905805
0.000906267
0.00090654
0.000906625
0.000906522
0.000906231
0.000905752
0.000905088
0.000904238
0.000903204
0.00090199
0.000900596
0.000899026
0.000897284
0.000895372
0.000893295
0.000891058
0.000888666
0.000886125
0.000883439
0.000880618
0.00087767
0.000874593
0.000871411
0.000868127
0.000864742
0.000861264
0.00085767
0.000853879
0.000849473
0.000843791
0.00083755
0.000831083
0.000824492
0.000817816
0.000811074
0.000804274
0.000797424
0.000790527
0.000783585
0.000776598
0.000769564
0.000762481
0.000755345
0.000748147
0.000740881
0.000733537
0.000726102
0.000718562
0.000710901
0.000703101
0.000695141
0.000686997
0.000678644
0.000670054
0.000661195
0.000652033
0.000642529
0.000632641
0.000622318
0.000611497
0.000600101
0.000587983
0.000575028
0.000560068
0.000530649
1.09842e-05
6.74568e-05
0.00013248
0.000181068
0.000214221
0.000235402
0.000248857
0.00025812
0.000265722
0.000273163
0.000281143
0.000289917
0.000299585
0.000310226
0.000321927
0.00033477
0.000348817
0.000364092
0.000380573
0.000398194
0.000416858
0.000436441
0.000456811
0.000477828
0.00049936
0.000521285
0.000543494
0.000565889
0.000588383
0.000610908
0.000633405
0.000655833
0.00067816
0.000700366
0.000722438
0.000744371
0.000766165
0.000787824
0.000809353
0.000830762
0.000852058
0.00087325
0.000894347
0.000915355
0.000936281
0.00095713
0.000977904
0.000998607
0.00101924
0.0010398
0.00106028
0.00108069
0.00110101
0.00112125
0.00114138
0.00116142
0.00118134
0.00120113
0.0012208
0.00124032
0.00125969
0.00127889
0.0012979
0.00131672
0.00133533
0.0013537
0.00137182
0.00138966
0.00140719
0.00142437
0.00144118
0.00145741
0.00147313
0.00148852
0.00150362
0.00151845
0.001533
0.00154729
0.0015613
0.00157502
0.00158845
0.00160158
0.00161442
0.00162694
0.00163915
0.00165104
0.00166261
0.00167386
0.00168477
0.00169534
0.00170557
0.00171546
0.001725
0.00173419
0.00174302
0.00175149
0.00175961
0.00176735
0.00177473
0.00178174
0.00178837
0.00179463
0.0018005
0.001806
0.0018111
0.00181582
0.00182015
0.00182408
0.00182762
0.00183075
0.00183349
0.00183582
0.00183775
0.00183927
0.00184038
0.00184108
0.00184137
0.00184125
0.00184071
0.00183977
0.00183842
0.00183665
0.00183449
0.00183192
0.00182895
0.00182558
0.00182183
0.00181769
0.00181318
0.00180831
0.00180307
0.00179748
0.00179157
0.00178532
0.00177877
0.00177193
0.0017648
0.00175742
0.00174979
0.00174195
0.00173385
0.00172547
0.0017167
0.00170718
0.00169644
0.00168489
0.00167284
0.00166049
0.00164791
0.00163517
0.00162229
0.00160929
0.00159619
0.00158299
0.00156971
0.00155634
0.00154288
0.00152934
0.00151569
0.00150193
0.00148803
0.00147399
0.00145977
0.00144533
0.00143065
0.00141568
0.00140038
0.00138469
0.00136855
0.00135189
0.00133465
0.00131673
0.00129805
0.0012785
0.00125794
0.0012362
0.00121299
0.00118784
0.00115899
0.00111661
1.24455e-05
9.05411e-05
0.000174409
0.000236365
0.000279291
0.000308581
0.000328911
0.000344055
0.000356825
0.000369099
0.000381985
0.000396062
0.000411615
0.000428784
0.00044764
0.000468211
0.000490483
0.000514397
0.000539853
0.000566711
0.000594806
0.000623958
0.000653983
0.000684704
0.000715957
0.000747593
0.000779483
0.000811517
0.000843604
0.000875671
0.000907663
0.000939538
0.000971269
0.00100284
0.00103423
0.00106546
0.0010965
0.00112739
0.00115811
0.00118869
0.00121912
0.00124942
0.0012796
0.00130966
0.00133961
0.00136945
0.00139918
0.00142881
0.00145832
0.00148772
0.00151701
0.00154616
0.00157518
0.00160406
0.00163278
0.00166133
0.0016897
0.00171787
0.00174583
0.00177356
0.00180105
0.00182827
0.0018552
0.00188183
0.00190814
0.00193409
0.00195967
0.00198485
0.0020096
0.0020339
0.00205771
0.0020809
0.00210358
0.00212581
0.00214765
0.00216909
0.00219015
0.00221081
0.00223107
0.00225091
0.00227035
0.00228935
0.00230793
0.00232606
0.00234375
0.00236098
0.00237775
0.00239405
0.00240987
0.00242522
0.00244007
0.00245444
0.00246831
0.00248167
0.00249453
0.00250687
0.0025187
0.00253001
0.00254078
0.00255103
0.00256074
0.00256991
0.00257854
0.00258662
0.00259414
0.00260111
0.00260751
0.00261335
0.00261863
0.00262332
0.00262744
0.00263098
0.00263394
0.00263631
0.00263809
0.00263927
0.00263986
0.00263986
0.00263926
0.00263806
0.00263627
0.00263388
0.0026309
0.00262733
0.00262318
0.00261844
0.00261313
0.00260725
0.00260082
0.00259384
0.00258632
0.00257829
0.00256974
0.00256071
0.0025512
0.00254125
0.00253087
0.00252008
0.00250888
0.0024973
0.00248534
0.00247294
0.00246003
0.00244638
0.00243173
0.00241623
0.00240011
0.00238351
0.00236656
0.00234932
0.00233184
0.00231415
0.00229627
0.00227823
0.00226004
0.0022417
0.00222321
0.00220458
0.0021858
0.00216684
0.00214769
0.00212832
0.0021087
0.00208879
0.00206855
0.00204791
0.00202681
0.00200519
0.00198296
0.00196004
0.00193632
0.00191171
0.00188607
0.00185928
0.00183116
0.0018015
0.00176999
0.0017361
0.00169823
0.00165182
1.34886e-05
0.000108664
0.000207651
0.000281598
0.000334518
0.000372241
0.000399814
0.000421292
0.000439747
0.000457347
0.00047549
0.000495003
0.000516325
0.000539662
0.000565077
0.000592547
0.000621986
0.000653263
0.000686209
0.000720632
0.000756328
0.000793087
0.00083071
0.000869008
0.00090781
0.000946969
0.000986356
0.00102586
0.0010654
0.0011049
0.00114432
0.0011836
0.00122273
0.00126169
0.00130046
0.00133905
0.00137745
0.00141567
0.00145371
0.00149158
0.00152929
0.00156685
0.00160425
0.00164151
0.00167862
0.00171559
0.00175242
0.00178909
0.00182562
0.00186199
0.00189819
0.00193422
0.00197005
0.00200569
0.00204111
0.0020763
0.00211124
0.00214591
0.0021803
0.00221439
0.00224815
0.00228157
0.00231463
0.00234729
0.00237955
0.00241137
0.00244274
0.00247363
0.00250401
0.00253387
0.00256317
0.00259184
0.00261995
0.00264756
0.00267468
0.00270133
0.0027275
0.00275319
0.00277838
0.00280309
0.00282728
0.00285096
0.00287412
0.00289674
0.00291881
0.00294034
0.00296131
0.00298171
0.00300153
0.00302078
0.00303943
0.00305749
0.00307495
0.00309179
0.00310802
0.00312363
0.00313861
0.00315296
0.00316667
0.00317973
0.00319215
0.0032039
0.003215
0.00322542
0.00323517
0.00324425
0.00325264
0.00326034
0.00326734
0.00327364
0.00327924
0.00328412
0.00328829
0.00329174
0.00329447
0.00329646
0.00329772
0.00329825
0.00329804
0.00329709
0.0032954
0.00329297
0.0032898
0.00328589
0.00328125
0.00327588
0.00326979
0.00326298
0.00325546
0.00324725
0.00323834
0.00322877
0.00321855
0.00320769
0.00319622
0.00318414
0.00317149
0.00315828
0.00314452
0.00313023
0.00311541
0.00310005
0.00308406
0.00306734
0.00304973
0.0030313
0.00301216
0.00299243
0.00297222
0.00295159
0.0029306
0.0029093
0.00288771
0.00286585
0.00284375
0.00282142
0.00279886
0.00277607
0.00275304
0.00272976
0.00270622
0.00268238
0.0026582
0.00263365
0.00260866
0.00258319
0.00255716
0.0025305
0.00250311
0.00247489
0.00244575
0.00241556
0.0023842
0.00235152
0.00231737
0.00228155
0.00224379
0.00220363
0.00215995
0.00211077
1.44021e-05
0.000120859
0.000232718
0.000318202
0.000381133
0.000427571
0.00046279
0.000491034
0.000515571
0.000538779
0.000562278
0.000587082
0.000613765
0.0006426
0.000673666
0.000706918
0.000742232
0.000779434
0.000818323
0.000858682
0.00090029
0.000942932
0.000986409
0.00103053
0.00107514
0.0011201
0.00116527
0.00121055
0.00125588
0.00130116
0.00134637
0.00139144
0.00143637
0.00148112
0.00152569
0.00157007
0.00161425
0.00165824
0.00170203
0.00174564
0.00178906
0.0018323
0.00187536
0.00191824
0.00196094
0.00200346
0.0020458
0.00208795
0.00212991
0.00217166
0.0022132
0.00225451
0.00229558
0.0023364
0.00237695
0.00241721
0.00245717
0.0024968
0.0025361
0.00257502
0.00261357
0.00265171
0.00268942
0.00272669
0.00276348
0.00279979
0.00283559
0.00287085
0.00290557
0.00293974
0.00297324
0.00300612
0.00303841
0.00307016
0.00310137
0.00313205
0.0031622
0.00319181
0.00322087
0.00324937
0.00327731
0.00330468
0.00333146
0.00335765
0.00338323
0.0034082
0.00343255
0.00345626
0.00347934
0.00350176
0.00352353
0.00354464
0.00356507
0.00358482
0.00360389
0.00362226
0.00363993
0.00365689
0.00367313
0.00368866
0.00370345
0.00371751
0.00373083
0.00374339
0.00375521
0.00376625
0.00377653
0.00378603
0.00379475
0.00380268
0.00380982
0.00381614
0.00382166
0.00382637
0.00383025
0.0038333
0.00383552
0.0038369
0.00383745
0.00383714
0.00383599
0.00383399
0.00383113
0.00382743
0.00382288
0.00381748
0.00381123
0.00380416
0.00379624
0.00378751
0.00377797
0.00376764
0.00375652
0.00374463
0.003732
0.00371864
0.00370456
0.00368978
0.00367433
0.00365821
0.00364144
0.00362399
0.00360583
0.0035869
0.00356712
0.00354651
0.00352513
0.00350306
0.00348039
0.00345719
0.00343349
0.00340936
0.00338482
0.00335991
0.00333463
0.00330902
0.00328307
0.00325679
0.00323018
0.00320322
0.00317589
0.00314818
0.00312004
0.00309143
0.00306231
0.0030326
0.00300224
0.00297116
0.00293926
0.00290645
0.00287263
0.00283768
0.00280148
0.00276391
0.00272483
0.0026841
0.00264152
0.00259678
0.00254916
0.00249795
1.54281e-05
0.000126691
0.000249678
0.000346271
0.00041916
0.000474447
0.000517548
0.000552833
0.000583691
0.000612641
0.000641456
0.000671295
0.000702848
0.000736469
0.000772278
0.000810244
0.000850242
0.000892094
0.000935591
0.000980515
0.00102665
0.00107378
0.00112171
0.00117028
0.00121932
0.0012687
0.0013183
0.00136802
0.00141779
0.00146753
0.0015172
0.00156675
0.00161616
0.0016654
0.00171445
0.00176331
0.00181196
0.00186041
0.00190864
0.00195667
0.00200449
0.0020521
0.0020995
0.00214669
0.00219367
0.00224043
0.00228697
0.00233329
0.00237937
0.0024252
0.00247078
0.0025161
0.00256113
0.00260586
0.00265029
0.00269438
0.00273812
0.0027815
0.00282449
0.00286707
0.00290923
0.00295094
0.00299218
0.00303293
0.00307318
0.0031129
0.00315207
0.00319068
0.00322872
0.00326616
0.00330291
0.00333904
0.00337457
0.00340952
0.00344391
0.00347774
0.003511
0.00354369
0.0035758
0.00360733
0.00363825
0.00366856
0.00369826
0.00372732
0.00375574
0.00378351
0.00381062
0.00383706
0.00386281
0.00388788
0.00391225
0.00393591
0.00395886
0.00398108
0.00400257
0.00402332
0.00404332
0.00406256
0.00408103
0.00409874
0.00411566
0.0041318
0.00414715
0.00416169
0.00417542
0.00418833
0.00420041
0.00421166
0.00422206
0.00423162
0.00424032
0.00424815
0.0042551
0.00426118
0.00426636
0.00427065
0.00427403
0.0042765
0.00427805
0.00427868
0.00427839
0.00427716
0.00427499
0.00427189
0.00426785
0.00426287
0.00425695
0.00425009
0.00424231
0.00423361
0.00422399
0.00421348
0.00420206
0.00418977
0.00417662
0.00416261
0.00414777
0.00413211
0.00411565
0.0040984
0.00408036
0.00406154
0.00404191
0.00402144
0.0040001
0.00397789
0.00395485
0.00393103
0.00390649
0.00388129
0.00385548
0.0038291
0.00380218
0.00377476
0.00374685
0.00371848
0.00368966
0.00366039
0.00363068
0.00360051
0.00356987
0.00353873
0.00350707
0.00347486
0.00344203
0.00340853
0.00337431
0.00333928
0.00330338
0.0032665
0.00322856
0.00318946
0.0031491
0.00310737
0.0030642
0.00301948
0.00297309
0.00292487
0.00287439
0.00282154
1.62277e-05
0.000129356
0.00026065
0.000366895
0.000449061
0.000512913
0.00056382
0.000606163
0.000643372
0.000678035
0.000712016
0.000746583
0.000782527
0.000820285
0.000860041
0.000901808
0.000945492
0.000990935
0.00103794
0.00108632
0.00113584
0.00118633
0.0012376
0.00128948
0.00134183
0.00139451
0.00144742
0.00150047
0.00155357
0.00160665
0.00165967
0.00171258
0.00176535
0.00181796
0.00187037
0.00192258
0.00197458
0.00202637
0.00207792
0.00212925
0.00218035
0.00223121
0.00228185
0.00233224
0.00238239
0.0024323
0.00248196
0.00253136
0.0025805
0.00262936
0.00267794
0.00272622
0.00277419
0.00282184
0.00286914
0.00291609
0.00296266
0.00300883
0.00305459
0.00309992
0.0031448
0.0031892
0.00323312
0.00327652
0.0033194
0.00336173
0.00340349
0.00344467
0.00348526
0.00352522
0.00356451
0.00360318
0.00364125
0.00367873
0.00371565
0.00375198
0.00378774
0.00382291
0.00385749
0.00389147
0.00392482
0.00395756
0.00398965
0.0040211
0.00405188
0.00408199
0.00411142
0.00414016
0.0041682
0.00419552
0.00422212
0.00424798
0.00427311
0.00429748
0.00432109
0.00434394
0.004366
0.00438728
0.00440776
0.00442744
0.0044463
0.00446435
0.00448157
0.00449795
0.00451349
0.00452817
0.00454198
0.00455492
0.00456698
0.00457816
0.00458843
0.00459779
0.00460623
0.00461374
0.00462032
0.00462596
0.00463064
0.00463435
0.00463708
0.00463885
0.00463964
0.00463942
0.00463819
0.00463597
0.00463274
0.0046285
0.00462325
0.00461699
0.00460972
0.00460145
0.00459218
0.00458191
0.00457066
0.00455842
0.00454522
0.00453107
0.00451597
0.00449993
0.00448298
0.00446512
0.00444636
0.0044267
0.00440614
0.00438465
0.00436223
0.00433887
0.0043146
0.00428946
0.00426349
0.00423674
0.00420924
0.00418104
0.00415216
0.00412265
0.00409252
0.0040618
0.00403049
0.00399861
0.00396617
0.00393314
0.00389954
0.00386533
0.0038305
0.00379501
0.00375882
0.00372188
0.00368415
0.00364555
0.00360602
0.00356549
0.00352387
0.00348109
0.00343709
0.00339178
0.00334512
0.00329707
0.0032476
0.00319662
0.00314392
0.00308964
1.68325e-05
0.000129757
0.000266799
0.000381013
0.000471448
0.000543265
0.000601615
0.000650785
0.000694167
0.000734356
0.000773261
0.000812219
0.000852104
0.000893435
0.000936471
0.000981286
0.00102784
0.00107601
0.00112563
0.00117653
0.00122852
0.00128143
0.00133508
0.00138933
0.00144402
0.00149906
0.00155432
0.00160971
0.00166517
0.00172062
0.001776
0.00183129
0.00188643
0.0019414
0.00199619
0.00205077
0.00210512
0.00215925
0.00221314
0.00226679
0.00232019
0.00237335
0.00242626
0.00247891
0.00253131
0.00258344
0.00263531
0.00268691
0.00273823
0.00278926
0.00283999
0.00289041
0.00294051
0.00299028
0.00303969
0.00308874
0.0031374
0.00318565
0.00323349
0.00328088
0.00332782
0.00337427
0.00342023
0.00346567
0.00351057
0.00355493
0.00359871
0.0036419
0.00368451
0.00372645
0.00376776
0.00380847
0.0038486
0.00388815
0.00392713
0.00396554
0.00400337
0.00404062
0.00407727
0.00411331
0.00414873
0.00418352
0.00421767
0.00425116
0.00428398
0.00431613
0.00434758
0.00437832
0.00440835
0.00443766
0.00446623
0.00449405
0.00452112
0.00454743
0.00457295
0.00459769
0.00462164
0.00464477
0.00466709
0.00468859
0.00470926
0.00472909
0.00474807
0.00476619
0.00478344
0.00479981
0.0048153
0.00482988
0.00484356
0.00485633
0.00486818
0.00487908
0.00488902
0.00489801
0.00490604
0.00491311
0.00491916
0.00492421
0.00492825
0.00493128
0.00493327
0.00493423
0.00493414
0.00493299
0.00493079
0.00492753
0.0049232
0.00491779
0.00491132
0.00490376
0.00489514
0.00488544
0.00487468
0.00486285
0.00484996
0.00483602
0.00482103
0.00480501
0.00478796
0.0047699
0.00475082
0.00473074
0.00470964
0.00468753
0.0046644
0.00464025
0.0046151
0.00458897
0.0045619
0.00453391
0.00450506
0.00447536
0.00444486
0.00441357
0.00438154
0.00434876
0.00431527
0.00428108
0.00424618
0.00421059
0.0041743
0.00413729
0.00409955
0.00406106
0.00402178
0.00398168
0.00394072
0.00389884
0.003856
0.00381213
0.00376718
0.0037211
0.00367385
0.00362539
0.00357571
0.00352483
0.00347275
0.00341951
0.00336498
0.00330938
1.72731e-05
0.000128466
0.000268999
0.00038947
0.000487
0.000565975
0.000631192
0.000686756
0.00073596
0.000781357
0.00082486
0.000867843
0.000911243
0.000955652
0.0010014
0.00104864
0.00109738
0.00114754
0.00119903
0.00125167
0.00130533
0.00135983
0.00141503
0.0014708
0.00152699
0.00158351
0.00164024
0.0016971
0.00175401
0.00181092
0.00186777
0.00192451
0.00198111
0.00203754
0.00209378
0.00214981
0.00220562
0.0022612
0.00231654
0.00237164
0.00242649
0.00248109
0.00253544
0.00258954
0.00264338
0.00269697
0.0027503
0.00280336
0.00285614
0.00290865
0.00296087
0.00301278
0.00306439
0.00311567
0.00316661
0.00321719
0.0032674
0.00331721
0.00336661
0.00341558
0.0034641
0.00351214
0.0035597
0.00360674
0.00365325
0.00369922
0.00374462
0.00378944
0.00383366
0.00387726
0.00392027
0.0039627
0.00400457
0.00404589
0.00408665
0.00412685
0.00416648
0.00420554
0.00424401
0.00428187
0.00431912
0.00435574
0.00439171
0.00442703
0.00446168
0.00449565
0.00452891
0.00456148
0.00459332
0.00462443
0.0046548
0.00468442
0.00471327
0.00474135
0.00476865
0.00479514
0.00482083
0.0048457
0.00486974
0.00489295
0.00491532
0.00493683
0.00495749
0.00497728
0.00499618
0.00501418
0.00503128
0.00504746
0.00506273
0.00507708
0.00509048
0.00510292
0.00511438
0.00512486
0.00513435
0.00514285
0.00515034
0.00515679
0.00516221
0.00516658
0.0051699
0.00517215
0.00517331
0.00517339
0.00517237
0.00517025
0.00516701
0.00516265
0.00515716
0.00515055
0.00514279
0.0051339
0.00512387
0.0051127
0.00510039
0.00508694
0.00507235
0.00505664
0.00503979
0.00502183
0.00500275
0.00498255
0.00496124
0.00493881
0.00491526
0.0048906
0.00486484
0.00483798
0.00481007
0.00478112
0.00475116
0.00472023
0.00468835
0.00465555
0.00462185
0.00458727
0.00455184
0.00451556
0.00447845
0.00444052
0.00440176
0.00436217
0.00432175
0.00428048
0.00423833
0.00419529
0.00415133
0.0041064
0.00406049
0.00401355
0.00396555
0.00391646
0.00386627
0.00381499
0.00376264
0.00370927
0.00365496
0.00359977
0.00354364
0.0034868
1.75733e-05
0.000125919
0.000267983
0.000393044
0.000496414
0.000581605
0.000652965
0.000714344
0.000768889
0.00081907
0.000866772
0.00091338
0.000959872
0.0010069
0.00105486
0.00110396
0.00115429
0.00120582
0.00125848
0.00131216
0.00136674
0.00142208
0.00147805
0.00153453
0.0015914
0.00164856
0.00170591
0.00176337
0.00182088
0.00187837
0.00193579
0.00199311
0.00205029
0.00210731
0.00216414
0.00222077
0.00227719
0.00233339
0.00238937
0.00244513
0.00250066
0.00255596
0.00261104
0.00266589
0.00272052
0.00277492
0.00282909
0.00288302
0.00293672
0.00299017
0.00304337
0.00309629
0.00314895
0.0032013
0.00325335
0.00330508
0.00335646
0.00340747
0.0034581
0.00350832
0.00355811
0.00360745
0.00365631
0.00370468
0.00375254
0.00379986
0.00384663
0.00389283
0.00393844
0.0039835
0.004028
0.00407198
0.00411542
0.00415833
0.0042007
0.00424254
0.00428381
0.00432453
0.00436466
0.0044042
0.00444314
0.00448145
0.00451911
0.00455613
0.00459247
0.00462813
0.0046631
0.00469735
0.00473089
0.00476369
0.00479574
0.00482704
0.00485758
0.00488733
0.0049163
0.00494446
0.0049718
0.00499831
0.00502399
0.00504882
0.00507281
0.00509594
0.00511821
0.00513961
0.0051601
0.00517968
0.00519835
0.00521609
0.00523291
0.00524879
0.00526371
0.00527766
0.00529063
0.00530261
0.00531359
0.00532356
0.0053325
0.0053404
0.00534725
0.00535303
0.00535774
0.00536136
0.00536387
0.00536527
0.00536554
0.00536467
0.00536265
0.00535947
0.00535512
0.00534959
0.00534288
0.00533496
0.00532585
0.00531553
0.00530399
0.00529125
0.00527728
0.0052621
0.00524569
0.00522807
0.00520923
0.00518916
0.00516788
0.00514538
0.00512165
0.00509671
0.00507055
0.00504319
0.00501465
0.00498495
0.00495411
0.00492215
0.0048891
0.00485498
0.00481982
0.00478365
0.00474647
0.00470831
0.00466918
0.00462909
0.00458806
0.00454608
0.00450316
0.00445929
0.00441446
0.00436867
0.0043219
0.00427413
0.00422535
0.00417555
0.00412472
0.00407286
0.00401998
0.00396613
0.00391136
0.00385578
0.00379948
0.00374255
0.00368498
0.00362696
1.77505e-05
0.000122461
0.000264376
0.000392436
0.000500356
0.00059074
0.000667417
0.000733929
0.00079323
0.000847681
0.000899111
0.000948892
0.000998023
0.0010472
0.00109686
0.0011473
0.00119863
0.00125089
0.00130407
0.00135809
0.00141285
0.00146826
0.0015242
0.00158057
0.00163727
0.0016942
0.00175129
0.00180847
0.00186568
0.00192286
0.00197997
0.00203699
0.00209388
0.00215063
0.00220721
0.00226363
0.00231988
0.00237595
0.00243185
0.00248757
0.00254312
0.0025985
0.00265372
0.00270877
0.00276365
0.00281838
0.00287293
0.00292732
0.00298153
0.00303556
0.00308939
0.00314302
0.00319642
0.00324959
0.0033025
0.00335514
0.00340748
0.00345949
0.00351116
0.00356245
0.00361335
0.00366383
0.00371385
0.00376341
0.00381246
0.003861
0.003909
0.00395645
0.00400338
0.00404981
0.00409574
0.00414118
0.00418611
0.00423054
0.00427446
0.00431784