/*--------------------------------*- C++ -*----------------------------------*\
| =========                 |                                                 |
| \\      /  F ield         | OpenFOAM: The Open Source CFD Toolbox           |
|  \\    /   O peration     | Version:  2412                                  |
|   \\  /    A nd           | Website:  www.openfoam.com                      |
|    \\/     M anipulation  |                                                 |
\*---------------------------------------------------------------------------*/
FoamFile
{
    version     2.0;
    format      ascii;
    arch        "LSB;label=32;scalar=64";
    class       volScalarField;
    location    "0.1";
    object      p;
}
// * * * * * * * * * * * * * * * * * * * * * * * * * * * * * * * * * * * * * //

dimensions      [0 2 -2 0 0 0 0];

internalField   nonuniform List<scalar> 
12225
(
-10.2009
-9.60853
-8.94583
-8.38939
-7.88033
-7.42388
-7.0253
-6.67428
-6.36189
-6.08258
-5.83142
-5.60393
-5.39628
-5.20513
-5.02749
-4.85998
-4.70073
-4.53646
-10.6347
-9.66672
-8.98064
-8.43037
-7.92063
-7.46412
-7.06491
-6.71248
-6.39846
-6.11745
-5.86456
-5.63534
-5.42599
-5.23316
-5.05385
-4.88477
-4.72329
-4.56619
-10.8151
-9.70099
-9.02238
-8.48123
-7.97102
-7.51539
-7.11632
-6.76283
-6.44727
-6.16447
-5.90963
-5.6784
-5.46701
-5.27218
-5.09091
-4.92009
-4.75689
-4.59592
-10.839
-9.71671
-9.04706
-8.51519
-8.00767
-7.5549
-7.1577
-6.80476
-6.48904
-6.20564
-5.94988
-5.71753
-5.50495
-5.30893
-5.12656
-4.95509
-4.79118
-4.6336
-10.7689
-9.71142
-9.04735
-8.52597
-8.02549
-7.57764
-7.18399
-6.83326
-6.51884
-6.23612
-5.9806
-5.74821
-5.53546
-5.33929
-5.15693
-4.98612
-4.82338
-4.67332
-10.6271
-9.67828
-9.02386
-8.51511
-8.02626
-7.58561
-7.19712
-6.85009
-6.53823
-6.25728
-6.00299
-5.77148
-5.55945
-5.36404
-5.1827
-5.01367
-4.85363
-4.71194
-10.4244
-9.61185
-8.97762
-8.48342
-8.01068
-7.58002
-7.19842
-6.85659
-6.54854
-6.27041
-6.01827
-5.7885
-5.57801
-5.38421
-5.20478
-5.03846
-4.88218
-4.74874
-10.1715
-9.50952
-8.90944
-8.43148
-7.97867
-7.56122
-7.18847
-6.85342
-6.55051
-6.27628
-6.02723
-5.80006
-5.59194
-5.40055
-5.22388
-5.06105
-4.90924
-4.78373
-9.87904
-9.37099
-8.82047
-8.36091
-7.93075
-7.52983
-7.16804
-6.84134
-6.54492
-6.27571
-6.03072
-5.80703
-5.60211
-5.41392
-5.24076
-5.08206
-4.9352
-4.81713
-9.5583
-9.19826
-8.71207
-8.27459
-7.86862
-7.48715
-7.13845
-6.82159
-6.53293
-6.26985
-6.02987
-5.81049
-5.60955
-5.4253
-5.25631
-5.10225
-4.96061
-4.8494
-9.22142
-8.99609
-8.58587
-8.17605
-7.79522
-7.43542
-7.10178
-6.79606
-6.51625
-6.26027
-6.02614
-5.81184
-5.61558
-5.4359
-5.27161
-5.12256
-4.98614
-4.88135
-8.90944
-8.79033
-8.45615
-8.07789
-7.721
-7.38256
-7.06438
-6.76987
-6.49892
-6.25014
-6.02201
-5.81294
-5.62146
-5.44641
-5.28675
-5.14248
-5.01067
-4.91165
-8.61446
-8.57598
-8.31762
-7.97569
-7.64301
-7.32656
-7.02514
-6.74265
-6.48104
-6.23992
-6.01821
-5.81473
-5.62836
-5.45818
-5.30332
-5.1638
-5.03703
-4.9415
-8.30742
-8.33158
-8.15206
-7.85622
-7.55228
-7.26138
-6.98069
-6.71325
-6.463
-6.2311
-6.01713
-5.82035
-5.64003
-5.47552
-5.32615
-5.19193
-5.07061
-4.97775
-8.01037
-8.07738
-7.96953
-7.72555
-7.45407
-7.19076
-6.93402
-6.68495
-6.44852
-6.22767
-6.02293
-5.83404
-5.66067
-5.5025
-5.35906
-5.23042
-5.11447
-5.0239
-7.75204
-7.84539
-7.79518
-7.60226
-7.36411
-7.12718
-6.89421
-6.66467
-6.44339
-6.23474
-6.04033
-5.86035
-5.69476
-5.54348
-5.40624
-5.28316
-5.17231
-5.08341
-7.56454
-7.67263
-7.66392
-7.5151
-7.30835
-7.09481
-6.88237
-6.67025
-6.46264
-6.26479
-6.07937
-5.90712
-5.7482
-5.60272
-5.47047
-5.35147
-5.24413
-5.15443
-7.48814
-7.60047
-7.61298
-7.49136
-7.30639
-7.10949
-6.91169
-6.71248
-6.51543
-6.32598
-6.14742
-5.98079
-5.8263
-5.68396
-5.55371
-5.43534
-5.3278
-5.23243
-7.58772
-7.69475
-7.7011
-7.57446
-7.38627
-7.18756
-6.98896
-6.78976
-6.59339
-6.40504
-6.22777
-6.06239
-5.90889
-5.76708
-5.63664
-5.51686
-5.40749
-5.30538
-7.86416
-7.95858
-7.92517
-7.75362
-7.53208
-7.3094
-7.09105
-6.87575
-6.66747
-6.47074
-6.28744
-6.11761
-5.96079
-5.81642
-5.68379
-5.56182
-5.45024
-5.34341
-8.25768
-8.3158
-8.21342
-7.97901
-7.7147
-7.45978
-7.2137
-6.97596
-6.75093
-6.54173
-6.34879
-6.17144
-6.00879
-5.85991
-5.72383
-5.59931
-5.48593
-5.37772
-8.75815
-8.73789
-8.52969
-8.21993
-7.9079
-7.61394
-7.33429
-7.07084
-6.82706
-6.60373
-6.39984
-6.21402
-6.04489
-5.89106
-5.75119
-5.62384
-5.50825
-5.39872
-9.32224
-9.16666
-8.82277
-8.43991
-8.0833
-7.74981
-7.43784
-7.15125
-6.89072
-6.65453
-6.4406
-6.24702
-6.07188
-5.91336
-5.7698
-5.63961
-5.52174
-5.4111
-9.88668
-9.54069
-9.0576
-8.61982
-8.2259
-7.8564
-7.51699
-7.21135
-6.93659
-6.68923
-6.46664
-6.26637
-6.08602
-5.9234
-5.7766
-5.64388
-5.52395
-5.4124
-10.3907
-9.82223
-9.22658
-8.75478
-8.32821
-7.92775
-7.56695
-7.2465
-6.9604
-6.70425
-6.47498
-6.26961
-6.08532
-5.91964
-5.77043
-5.63582
-5.51438
-5.40235
-10.7922
-9.99983
-9.33334
-8.84121
-8.3861
-7.9622
-7.58649
-7.25546
-6.9612
-6.69891
-6.46507
-6.25627
-6.06938
-5.90172
-5.75101
-5.61526
-5.49293
-5.38085
-11.0635
-10.0833
-9.38357
-8.87689
-8.40053
-7.96175
-7.57654
-7.23854
-6.93912
-6.67311
-6.43664
-6.22598
-6.03779
-5.86925
-5.71796
-5.58186
-5.45933
-5.34775
-11.1708
-10.0987
-9.38422
-8.86116
-8.37278
-7.92645
-7.53565
-7.19385
-6.89208
-6.62472
-6.38756
-6.1767
-5.98865
-5.82046
-5.66967
-5.53415
-5.41223
-5.30184
-11.0381
-10.0689
-9.3492
-8.80353
-8.31023
-7.86157
-7.46843
-7.12578
-6.82436
-6.55789
-6.32195
-6.11254
-5.92603
-5.75941
-5.61018
-5.47617
-5.35563
-5.24682
-10.507
-9.97665
-9.30662
-8.74662
-8.25157
-7.80267
-7.40907
-7.06705
-6.76696
-6.50204
-6.26773
-6.05996
-5.87508
-5.71003
-5.56228
-5.42967
-5.31036
-5.20253
-4.62634
-4.62587
-4.62745
-4.63062
-4.63425
-4.6377
-4.64091
-4.6441
-4.64748
-4.65121
-4.65552
-4.66063
-4.66673
-4.67399
-4.68258
-4.69269
-4.7045
-4.71816
-4.73382
-4.75153
-4.77133
-4.79316
-4.81693
-4.84249
-4.86961
-4.898
-4.92735
-4.95739
-4.98784
-5.01845
-5.04898
-5.07919
-5.10889
-5.13786
-5.16596
-5.19302
-5.2189
-5.24347
-5.26662
-5.28823
-5.3082
-5.32643
-5.34282
-5.35728
-5.36971
-5.38001
-5.3881
-5.39388
-5.39725
-5.39812
-5.3964
-5.392
-5.38483
-5.37479
-5.3618
-5.34577
-5.32662
-5.30428
-5.27867
-5.24971
-5.21735
-5.18151
-5.14215
-5.09921
-5.05266
-5.00245
-4.94856
-4.89096
-4.82968
-4.76476
-4.69622
-4.62394
-4.54792
-4.46788
-4.38399
-4.29632
-4.20494
-4.10988
-4.0112
-3.90893
-3.80313
-3.69385
-3.58114
-3.46508
-3.34573
-3.22317
-3.09748
-2.96876
-2.8371
-2.70259
-2.56534
-2.42546
-2.28306
-2.13826
-1.99118
-1.84194
-1.69069
-1.53754
-1.38265
-1.22614
-1.06817
-0.908873
-0.748408
-0.586921
-0.424567
-0.2615
-0.0978755
0.0661495
0.230418
0.394774
0.55906
0.723122
0.886805
1.04996
1.21243
1.37408
1.53476
1.69434
1.85268
2.00966
2.16516
2.31906
2.47125
2.62165
2.77016
2.9167
3.06121
3.20362
3.3439
3.48199
3.61788
3.75156
3.88302
4.01228
4.13936
4.2643
4.38715
4.50797
4.62685
4.74386
4.85913
4.97275
5.08485
5.19557
5.30497
5.41312
5.52015
5.62624
5.73153
5.83619
5.94036
6.04417
6.14774
6.25118
6.35459
6.45803
6.56155
6.66515
6.76883
6.87254
6.97619
7.07965
7.18275
7.28527
7.38695
7.4875
7.5866
7.68387
7.77895
7.8715
7.96119
8.0478
8.13128
8.21185
8.29024
8.36802
8.4492
8.54033
8.66821
8.84172
-4.62667
-4.62727
-4.62901
-4.63171
-4.63434
-4.63621
-4.63707
-4.6373
-4.63753
-4.63831
-4.64003
-4.64288
-4.64696
-4.6524
-4.65939
-4.66815
-4.67892
-4.69188
-4.70718
-4.72486
-4.74492
-4.76724
-4.79164
-4.8179
-4.84573
-4.8748
-4.9048
-4.93542
-4.96637
-4.99739
-5.02824
-5.0587
-5.08857
-5.11768
-5.14588
-5.17303
-5.199
-5.22367
-5.24694
-5.2687
-5.28886
-5.30732
-5.32398
-5.33876
-5.35155
-5.36228
-5.37083
-5.37712
-5.38105
-5.38253
-5.38147
-5.37777
-5.37134
-5.36209
-5.34993
-5.33478
-5.31655
-5.29516
-5.27054
-5.24262
-5.21133
-5.1766
-5.13838
-5.09663
-5.05129
-5.00233
-4.94971
-4.89339
-4.83333
-4.76952
-4.70193
-4.63043
-4.55491
-4.47584
-4.39312
-4.30671
-4.21662
-4.12288
-4.02551
-3.92455
-3.82006
-3.71207
-3.60065
-3.48585
-3.36776
-3.24644
-3.12198
-2.99446
-2.86398
-2.73063
-2.59451
-2.45573
-2.3144
-2.17064
-2.02457
-1.87631
-1.72599
-1.57375
-1.41972
-1.26404
-1.10685
-0.948302
-0.788536
-0.627705
-0.465962
-0.30346
-0.140353
0.0232019
0.187049
0.351032
0.514995
0.678782
0.842241
1.00522
1.16757
1.32914
1.48979
1.64939
1.80779
1.96488
2.12053
2.27462
2.42705
2.57771
2.72652
2.8734
3.01826
3.16106
3.30174
3.44025
3.57658
3.7107
3.8426
3.97231
4.09983
4.2252
4.34847
4.46969
4.58895
4.70631
4.82189
4.9358
5.04814
5.15902
5.26852
5.37675
5.48383
5.5899
5.69512
5.79963
5.90359
6.00711
6.11034
6.21337
6.31631
6.41922
6.52214
6.62512
6.72813
6.83113
6.93405
7.03677
7.13912
7.24091
7.3419
7.4418
7.54031
7.63708
7.73178
7.82407
7.91368
8.00042
8.08427
8.16549
8.2449
8.32406
8.40686
8.49835
8.61679
8.76411
-4.61755
-4.62113
-4.62471
-4.62784
-4.62976
-4.63039
-4.63009
-4.62944
-4.62897
-4.62916
-4.63035
-4.6328
-4.63673
-4.64236
-4.64989
-4.65949
-4.6713
-4.68541
-4.70184
-4.72051
-4.74133
-4.76412
-4.78866
-4.81472
-4.84204
-4.87035
-4.89938
-4.92889
-4.95865
-4.98842
-5.01802
-5.04726
-5.07596
-5.10399
-5.13118
-5.15742
-5.18259
-5.20656
-5.22923
-5.25051
-5.27028
-5.28845
-5.30491
-5.31959
-5.33237
-5.34316
-5.35186
-5.35838
-5.36262
-5.36449
-5.36388
-5.36071
-5.35487
-5.34628
-5.33485
-5.32048
-5.3031
-5.28262
-5.25896
-5.23205
-5.20182
-5.16821
-5.13115
-5.0906
-5.0465
-4.99881
-4.9475
-4.89252
-4.83384
-4.77141
-4.70516
-4.63523
-4.56146
-4.48397
-4.40278
-4.31792
-4.22938
-4.13719
-4.04138
-3.94199
-3.83906
-3.73263
-3.62277
-3.50952
-3.39296
-3.27317
-3.15021
-3.02418
-2.89516
-2.76325
-2.62855
-2.49115
-2.35119
-2.20875
-2.06397
-1.91697
-1.76787
-1.61681
-1.46391
-1.30932
-1.15318
-0.99562
-0.836801
-0.676865
-0.515963
-0.354248
-0.191873
-0.0289924
0.134238
0.297663
0.461128
0.624478
0.787559
0.950221
1.11231
1.27369
1.43421
1.59373
1.75212
1.90925
2.06499
2.21923
2.37185
2.52276
2.67187
2.81908
2.96431
3.10752
3.24863
3.3876
3.5244
3.65902
3.79143
3.92164
4.04966
4.17553
4.29928
4.42096
4.54063
4.65838
4.7743
4.88847
5.00102
5.11204
5.22165
5.32997
5.4371
5.54318
5.64833
5.7527
5.85643
5.95965
6.06248
6.16505
6.26743
6.36972
6.47196
6.57419
6.6764
6.77857
6.88063
6.98247
7.08394
7.18487
7.28503
7.38416
7.48197
7.57815
7.67239
7.76439
7.8539
7.94077
8.02502
8.10695
8.18738
8.26777
8.35164
8.44229
8.5537
8.67218
-4.59904
-4.60602
-4.61299
-4.61817
-4.62117
-4.62257
-4.62308
-4.6233
-4.6238
-4.62502
-4.62733
-4.63102
-4.63631
-4.6434
-4.65243
-4.66352
-4.6767
-4.69199
-4.70934
-4.72863
-4.74973
-4.77248
-4.79667
-4.82211
-4.84858
-4.87586
-4.90374
-4.93202
-4.9605
-4.98899
-5.01733
-5.04536
-5.07291
-5.09986
-5.12606
-5.1514
-5.17576
-5.19902
-5.22108
-5.24183
-5.26117
-5.279
-5.29521
-5.30971
-5.32239
-5.33317
-5.34193
-5.34857
-5.35301
-5.35513
-5.35484
-5.35204
-5.34664
-5.33854
-5.32764
-5.31387
-5.29712
-5.27733
-5.2544
-5.22826
-5.19884
-5.16607
-5.12989
-5.09025
-5.04708
-5.00035
-4.95001
-4.89602
-4.83835
-4.77696
-4.71182
-4.64296
-4.57037
-4.49409
-4.41412
-4.33047
-4.24316
-4.15221
-4.05765
-3.9595
-3.85781
-3.75263
-3.644
-3.532
-3.41667
-3.2981
-3.17635
-3.05152
-2.92368
-2.79294
-2.65939
-2.52312
-2.38426
-2.24291
-2.09918
-1.9532
-1.8051
-1.655
-1.50304
-1.34934
-1.19406
-1.03732
-0.879287
-0.720093
-0.55989
-0.39883
-0.237066
-0.0747512
0.0879606
0.250915
0.413956
0.576932
0.739688
0.902073
1.06394
1.22514
1.38553
1.54496
1.70332
1.86045
2.01625
2.17058
2.32335
2.47444
2.62375
2.7712
2.91672
3.06022
3.20166
3.34097
3.47814
3.61312
3.7459
3.87649
4.00488
4.13111
4.25521
4.37722
4.49721
4.61525
4.73141
4.84579
4.95848
5.06956
5.17917
5.28744
5.3945
5.50044
5.60542
5.70954
5.81297
5.91581
6.01821
6.12026
6.22208
6.32373
6.42529
6.52678
6.62821
6.72957
6.83078
6.93176
7.03238
7.13247
7.23181
7.33017
7.42727
7.52283
7.61656
7.70817
7.79744
7.88425
7.9686
8.0508
8.13159
8.21219
8.29543
8.38302
8.48459
8.57861
-4.57631
-4.5868
-4.59806
-4.60646
-4.61175
-4.61508
-4.6174
-4.61941
-4.62169
-4.62473
-4.6289
-4.63448
-4.64166
-4.65059
-4.66137
-4.67403
-4.68858
-4.70497
-4.72313
-4.74295
-4.76428
-4.78698
-4.81087
-4.83579
-4.86155
-4.88796
-4.91487
-4.94209
-4.96947
-4.99685
-5.02407
-5.051
-5.0775
-5.10345
-5.12872
-5.15319
-5.17676
-5.19931
-5.22074
-5.24094
-5.2598
-5.27722
-5.29311
-5.30735
-5.31984
-5.33049
-5.33919
-5.34583
-5.35031
-5.35254
-5.35241
-5.34982
-5.34467
-5.33686
-5.3263
-5.3129
-5.29657
-5.27722
-5.25477
-5.22915
-5.20027
-5.16808
-5.1325
-5.09348
-5.05096
-5.0049
-4.95525
-4.90198
-4.84504
-4.78443
-4.7201
-4.65208
-4.58035
-4.50492
-4.42582
-4.34304
-4.25661
-4.16654
-4.07285
-3.97559
-3.87479
-3.7705
-3.66276
-3.55164
-3.4372
-3.3195
-3.19863
-3.07466
-2.94767
-2.81777
-2.68505
-2.5496
-2.41153
-2.27097
-2.12801
-1.98278
-1.8354
-1.686
-1.53471
-1.38167
-1.22702
-1.07088
-0.91342
-0.754768
-0.595078
-0.4345
-0.273185
-0.111287
0.0510422
0.213647
0.376374
0.53907
0.701581
0.863756
1.02545
1.1865
1.34678
1.50615
1.66446
1.82159
1.9774
2.13179
2.28463
2.43582
2.58527
2.73287
2.87855
3.02224
3.16387
3.3034
3.44078
3.57598
3.70899
3.8398
3.96841
4.09485
4.21915
4.34135
4.46149
4.57966
4.69592
4.81036
4.92304
5.03408
5.14358
5.25169
5.35854
5.46424
5.56894
5.67274
5.77579
5.87822
5.98015
6.08169
6.18295
6.284
6.3849
6.48571
6.58643
6.68705
6.78751
6.88773
6.98758
7.08692
7.18554
7.28321
7.37967
7.47465
7.56787
7.65907
7.74802
7.83458
7.91877
8.00082
8.08132
8.16119
8.24245
8.32543
8.41669
8.49101
-4.55653
-4.5699
-4.58496
-4.5966
-4.60452
-4.61018
-4.61473
-4.61893
-4.62337
-4.62854
-4.63481
-4.64242
-4.65156
-4.66232
-4.67476
-4.68888
-4.70465
-4.722
-4.74086
-4.7611
-4.7826
-4.80523
-4.82884
-4.85329
-4.87842
-4.90409
-4.93015
-4.95646
-4.98288
-5.00928
-5.03553
-5.0615
-5.08708
-5.11214
-5.13658
-5.16028
-5.18313
-5.20502
-5.22586
-5.24553
-5.26393
-5.28096
-5.2965
-5.31046
-5.32273
-5.33321
-5.34178
-5.34835
-5.35281
-5.35505
-5.35497
-5.35247
-5.34744
-5.3398
-5.32943
-5.31625
-5.30017
-5.2811
-5.25895
-5.23365
-5.20512
-5.17329
-5.1381
-5.09949
-5.0574
-5.01179
-4.96261
-4.90982
-4.85339
-4.7933
-4.72954
-4.66209
-4.59095
-4.51612
-4.43761
-4.35543
-4.2696
-4.18014
-4.08707
-3.99042
-3.89024
-3.78656
-3.67945
-3.56894
-3.45512
-3.33804
-3.21778
-3.09442
-2.96804
-2.83873
-2.7066
-2.57174
-2.43425
-2.29424
-2.15183
-2.00714
-1.86029
-1.7114
-1.56061
-1.40805
-1.25385
-1.09816
-0.941117
-0.782866
-0.623556
-0.463335
-0.302356
-0.14077
0.0212696
0.183609
0.346095
0.508573
0.670891
0.832897
0.994441
1.15538
1.31556
1.47485
1.63311
1.7902
1.946
2.10039
2.25326
2.40449
2.55398
2.70165
2.84741
2.99119
3.13291
3.27254
3.41002
3.54532
3.67843
3.80933
3.93803
4.06455
4.1889
4.31114
4.43131
4.54946
4.66568
4.78004
4.89262
5.0035
5.11281
5.22068
5.32725
5.43265
5.537
5.64043
5.74308
5.84506
5.94651
6.04754
6.14824
6.24871
6.34901
6.44919
6.54926
6.64921
6.749
6.84854
6.94773
7.04641
7.14439
7.24145
7.33735
7.43181
7.52456
7.61534
7.70391
7.79014
7.87397
7.95556
8.03531
8.11381
8.19235
8.27016
8.35189
8.41026
-4.54488
-4.5597
-4.57722
-4.59142
-4.60168
-4.60954
-4.61623
-4.62254
-4.62906
-4.63624
-4.64445
-4.6539
-4.66474
-4.67706
-4.69088
-4.70618
-4.72292
-4.74102
-4.7604
-4.78094
-4.80255
-4.8251
-4.84846
-4.87252
-4.89714
-4.9222
-4.94758
-4.97315
-4.99881
-5.02442
-5.04988
-5.07507
-5.09989
-5.12423
-5.14797
-5.17102
-5.19327
-5.21461
-5.23494
-5.25415
-5.27214
-5.28881
-5.30404
-5.31773
-5.32978
-5.34007
-5.3485
-5.35495
-5.35933
-5.36152
-5.36143
-5.35893
-5.35394
-5.34635
-5.33606
-5.32298
-5.30701
-5.28808
-5.26608
-5.24095
-5.2126
-5.18097
-5.146
-5.10761
-5.06577
-5.02041
-4.97151
-4.91901
-4.86289
-4.80313
-4.73971
-4.67262
-4.60184
-4.52738
-4.44925
-4.36746
-4.28201
-4.19294
-4.10026
-4.00401
-3.90423
-3.80096
-3.69425
-3.58416
-3.47075
-3.35408
-3.23424
-3.11129
-2.98533
-2.85644
-2.72472
-2.59026
-2.45317
-2.31356
-2.17155
-2.02724
-1.88077
-1.73225
-1.58181
-1.4296
-1.27574
-1.12037
-0.963641
-0.805689
-0.646664
-0.486714
-0.325991
-0.164645
-0.00283143
0.159298
0.32159
0.483891
0.646046
0.807905
0.969318
1.13014
1.29022
1.44942
1.6076
1.76464
1.92039
2.07474
2.22758
2.37879
2.52827
2.67593
2.82168
2.96545
3.10718
3.24681
3.38429
3.51959
3.65268
3.78357
3.91224
4.03871
4.163
4.28516
4.40523
4.52327
4.63934
4.75351
4.86588
4.97653
5.08557
5.19314
5.29938
5.40442
5.50838
5.61139
5.7136
5.81511
5.91607
6.01657
6.11674
6.21665
6.31637
6.41595
6.51542
6.61475
6.71393
6.81286
6.91145
7.00954
7.10696
7.20348
7.29886
7.39285
7.48515
7.5755
7.66366
7.74945
7.83277
7.91367
7.99235
8.06907
8.1445
8.21706
8.29028
8.33558
-4.54258
-4.55767
-4.5762
-4.59194
-4.60389
-4.61349
-4.62194
-4.63001
-4.63826
-4.64711
-4.65688
-4.6678
-4.67997
-4.69348
-4.70833
-4.7245
-4.74193
-4.76056
-4.7803
-4.80105
-4.82271
-4.84517
-4.86833
-4.89208
-4.91631
-4.94091
-4.96577
-4.99078
-5.01585
-5.04087
-5.06572
-5.09032
-5.11456
-5.13833
-5.16154
-5.18408
-5.20586
-5.22676
-5.24668
-5.26553
-5.28319
-5.29956
-5.31452
-5.32798
-5.33982
-5.34993
-5.35821
-5.36453
-5.3688
-5.37091
-5.37074
-5.36819
-5.36316
-5.35554
-5.34523
-5.33215
-5.31619
-5.29727
-5.2753
-5.25021
-5.22191
-5.19034
-5.15543
-5.11712
-5.07537
-5.03012
-4.98132
-4.92895
-4.87297
-4.81337
-4.75011
-4.6832
-4.61261
-4.53834
-4.46041
-4.37881
-4.29358
-4.20472
-4.11226
-4.01623
-3.91668
-3.81364
-3.70718
-3.59733
-3.48417
-3.36776
-3.24817
-3.12549
-2.99979
-2.87116
-2.73971
-2.60552
-2.46871
-2.32937
-2.18762
-2.04358
-1.89736
-1.7491
-1.59892
-1.44696
-1.29334
-1.13821
-0.981706
-0.823975
-0.665163
-0.505418
-0.344891
-0.183733
-0.0220977
0.139863
0.301996
0.464146
0.62616
0.787887
0.949175
1.10988
1.26985
1.42895
1.58704
1.74398
1.89965
2.05392
2.20668
2.35781
2.50722
2.65481
2.80049
2.94419
3.08584
3.22538
3.36277
3.49797
3.63096
3.76173
3.89027
4.0166
4.14073
4.26272
4.38259
4.5004
4.61623
4.73014
4.84222
4.95255
5.06126
5.16848
5.27433
5.37896
5.48248
5.58504
5.68677
5.7878
5.88824
5.98823
6.08785
6.18721
6.28637
6.38538
6.48427
6.58304
6.68164
6.78002
6.87805
6.97561
7.0725
7.16853
7.26344
7.35696
7.44882
7.53873
7.62643
7.7117
7.79437
7.87438
7.95174
8.0264
8.09855
8.16598
8.23165
8.26619
-4.54905
-4.56343
-4.5817
-4.5979
-4.61077
-4.62149
-4.63117
-4.64052
-4.65003
-4.66011
-4.67103
-4.683
-4.69612
-4.71045
-4.726
-4.74274
-4.76062
-4.77958
-4.79953
-4.82038
-4.84205
-4.86443
-4.88743
-4.91095
-4.93489
-4.95915
-4.98364
-5.00826
-5.03291
-5.0575
-5.08193
-5.10611
-5.12993
-5.15331
-5.17614
-5.19832
-5.21976
-5.24034
-5.25997
-5.27855
-5.29596
-5.3121
-5.32685
-5.34012
-5.35178
-5.36173
-5.36986
-5.37604
-5.38019
-5.38217
-5.38189
-5.37923
-5.3741
-5.36638
-5.35599
-5.34281
-5.32677
-5.30777
-5.28572
-5.26055
-5.23219
-5.20055
-5.16559
-5.12724
-5.08544
-5.04016
-4.99134
-4.93896
-4.88299
-4.8234
-4.76017
-4.69329
-4.62274
-4.54852
-4.47064
-4.3891
-4.30393
-4.21514
-4.12276
-4.02682
-3.92737
-3.82443
-3.71807
-3.60835
-3.49531
-3.37903
-3.25958
-3.13705
-3.0115
-2.88303
-2.75174
-2.61772
-2.48107
-2.34191
-2.20033
-2.05647
-1.91043
-1.76235
-1.61234
-1.46055
-1.30711
-1.15215
-0.995819
-0.838254
-0.679603
-0.520016
-0.359643
-0.198636
-0.0371463
0.124672
0.286667
0.448684
0.610569
0.772169
0.933334
1.09392
1.25377
1.41275
1.57072
1.72755
1.8831
2.03725
2.18989
2.34091
2.49019
2.63765
2.78319
2.92675
3.06825
3.20763
3.34486
3.47988
3.61268
3.74325
3.87157
3.99767
4.12156
4.24328
4.36287
4.48038
4.59589
4.70945
4.82117
4.93113
5.03945
5.14625
5.25167
5.35584
5.45889
5.56096
5.66219
5.7627
5.86262
5.96207
6.06116
6.15997
6.25858
6.35704
6.45539
6.55361
6.65168
6.74952
6.84704
6.9441
7.04051
7.13607
7.23052
7.3236
7.415
7.50445
7.59163
7.67629
7.75819
7.83714
7.91299
7.98542
8.05421
8.11675
8.17573
8.20137
-4.56241
-4.57541
-4.59245
-4.60818
-4.6212
-4.63241
-4.64276
-4.65287
-4.66319
-4.67406
-4.68572
-4.69836
-4.71207
-4.7269
-4.74286
-4.75993
-4.77806
-4.79719
-4.81724
-4.83812
-4.85976
-4.88206
-4.90494
-4.92829
-4.95204
-4.97608
-5.00033
-5.02469
-5.04908
-5.07341
-5.09758
-5.12149
-5.14507
-5.1682
-5.1908
-5.21276
-5.23398
-5.25437
-5.27381
-5.29221
-5.30945
-5.32543
-5.34003
-5.35314
-5.36466
-5.37446
-5.38244
-5.38849
-5.39248
-5.39432
-5.39388
-5.39108
-5.38578
-5.37791
-5.36735
-5.35401
-5.3378
-5.31863
-5.29642
-5.27108
-5.24255
-5.21075
-5.17563
-5.13712
-5.09518
-5.04976
-5.00082
-4.94832
-4.89224
-4.83255
-4.76924
-4.70227
-4.63164
-4.55736
-4.47942
-4.39783
-4.31262
-4.22379
-4.13139
-4.03544
-3.93597
-3.83304
-3.7267
-3.617
-3.504
-3.38776
-3.26837
-3.1459
-3.02042
-2.89204
-2.76084
-2.62691
-2.49037
-2.35131
-2.20985
-2.0661
-1.92018
-1.77222
-1.62234
-1.47068
-1.31736
-1.16253
-1.00633
-0.848897
-0.690377
-0.530921
-0.370678
-0.2098
-0.0484398
0.113249
0.275113
0.436998
0.598751
0.760219
0.921252
1.0817
1.24142
1.40026
1.55809
1.71477
1.87017
2.02417
2.17665
2.3275
2.4766
2.62388
2.76923
2.91259
3.05387
3.19303
3.33002
3.4648
3.59734
3.72763
3.85566
3.98145
4.10502
4.2264
4.34563
4.46278
4.57789
4.69105
4.80235
4.91187
5.01974
5.12608
5.23102
5.3347
5.43724
5.5388
5.6395
5.73948
5.83887
5.93777
6.03632
6.13458
6.23266
6.33058
6.42839
6.52609
6.62365
6.72099
6.81803
6.91461
7.01056
7.10566
7.19967
7.29229
7.38324
7.47218
7.55879
7.64276
7.72378
7.80154
7.87573
7.94581
8.01126
8.06919
8.1222
8.14046
-4.58031
-4.59151
-4.60663
-4.62117
-4.63368
-4.64481
-4.65532
-4.66574
-4.67644
-4.68771
-4.69977
-4.71275
-4.72676
-4.74185
-4.758
-4.77522
-4.79344
-4.81262
-4.83268
-4.85355
-4.87515
-4.89739
-4.92018
-4.94343
-4.96707
-4.99099
-5.01512
-5.03937
-5.06363
-5.08784
-5.11189
-5.13569
-5.15916
-5.18218
-5.20468
-5.22654
-5.24766
-5.26795
-5.2873
-5.3056
-5.32274
-5.33861
-5.35309
-5.36609
-5.37747
-5.38714
-5.39497
-5.40085
-5.40468
-5.40633
-5.40571
-5.40269
-5.39719
-5.38909
-5.37831
-5.36473
-5.34828
-5.32886
-5.3064
-5.28081
-5.25203
-5.21998
-5.18462
-5.14587
-5.1037
-5.05806
-5.00891
-4.95621
-4.89995
-4.84008
-4.77658
-4.70945
-4.63866
-4.56423
-4.48615
-4.40443
-4.3191
-4.23016
-4.13766
-4.04163
-3.94209
-3.8391
-3.73271
-3.62297
-3.50995
-3.39371
-3.27432
-3.15186
-3.02641
-2.89806
-2.7669
-2.63303
-2.49654
-2.35755
-2.21617
-2.0725
-1.92667
-1.77881
-1.62903
-1.47747
-1.32426
-1.16954
-1.01345
-0.856138
-0.69774
-0.538407
-0.37829
-0.21754
-0.0563096
0.105247
0.266976
0.428722
0.590333
0.751656
0.91254
1.07283
1.23239
1.39107
1.54873
1.70523
1.86044
2.01425
2.16652
2.31715
2.46603
2.61307
2.75818
2.90127
3.04229
3.18116
3.31785
3.45231
3.58453
3.71447
3.84215
3.96757
4.09075
4.21172
4.33054
4.44724
4.5619
4.6746
4.78542
4.89446
5.00184
5.10767
5.21209
5.31524
5.41726
5.51827
5.61843
5.71786
5.8167
5.91506
6.01306
6.11079
6.20833
6.30573
6.40302
6.50022
6.59728
6.69414
6.7907
6.88683
6.98233
7.07699
7.17055
7.26271
7.35316
7.44156
7.52754
7.61074
7.69078
7.76724
7.83967
7.90734
7.9695
8.0231
8.07077
8.08286
-4.60028
-4.60947
-4.62227
-4.63509
-4.64658
-4.65716
-4.66742
-4.67777
-4.68851
-4.69987
-4.71204
-4.72514
-4.73924
-4.75439
-4.77059
-4.78782
-4.80604
-4.82521
-4.84524
-4.86608
-4.88764
-4.90984
-4.93259
-4.95582
-4.97943
-5.00333
-5.02745
-5.05168
-5.07595
-5.10016
-5.12421
-5.14802
-5.17149
-5.19452
-5.21702
-5.23888
-5.26
-5.28027
-5.29958
-5.31783
-5.33491
-5.3507
-5.36509
-5.37797
-5.38922
-5.39874
-5.4064
-5.41209
-5.4157
-5.41713
-5.41626
-5.41299
-5.40722
-5.39884
-5.38775
-5.37387
-5.35711
-5.33738
-5.3146
-5.28869
-5.2596
-5.22724
-5.19156
-5.15252
-5.11006
-5.06414
-5.01472
-4.96177
-4.90525
-4.84514
-4.78141
-4.71405
-4.64305
-4.56841
-4.49014
-4.40825
-4.32275
-4.23367
-4.14103
-4.04487
-3.94523
-3.84215
-3.73568
-3.62588
-3.51281
-3.39653
-3.27712
-3.15465
-3.02921
-2.90087
-2.76974
-2.63591
-2.49947
-2.36054
-2.21923
-2.07564
-1.92989
-1.78212
-1.63244
-1.48098
-1.32788
-1.17327
-1.0173
-0.860109
-0.701838
-0.542637
-0.382655
-0.222044
-0.060957
0.100451
0.262026
0.423613
0.585059
0.746211
0.906917
1.06703
1.22639
1.38487
1.54231
1.69859
1.85358
2.00714
2.15916
2.30953
2.45814
2.60489
2.74969
2.89247
3.03316
3.17169
3.30802
3.44211
3.57393
3.70347
3.83073
3.95572
4.07845
4.19896
4.3173
4.43351
4.54767
4.65986
4.77016
4.87867
4.98551
5.0908
5.19468
5.29727
5.39873
5.49919
5.59878
5.69766
5.79594
5.89375
5.9912
6.0884
6.18541
6.28229
6.37909
6.47579
6.57237
6.66876
6.76487
6.86054
6.9556
7.04981
7.14292
7.2346
7.32453
7.41234
7.49763
7.57998
7.65894
7.73401
7.8046
7.86982
7.92877
7.97832
8.02114
8.02808
-4.62009
-4.62721
-4.63748
-4.64824
-4.65836
-4.66805
-4.67774
-4.68773
-4.69825
-4.70948
-4.72157
-4.73461
-4.74866
-4.76376
-4.77992
-4.7971
-4.81528
-4.8344
-4.8544
-4.87521
-4.89676
-4.91896
-4.94173
-4.96499
-4.98865
-5.01262
-5.03681
-5.06113
-5.08549
-5.10979
-5.13394
-5.15785
-5.18141
-5.20453
-5.22709
-5.249
-5.27016
-5.29044
-5.30975
-5.32797
-5.34499
-5.36069
-5.37497
-5.38772
-5.3988
-5.40812
-5.41557
-5.42102
-5.42437
-5.42551
-5.42434
-5.42075
-5.41464
-5.40591
-5.39447
-5.38023
-5.3631
-5.343
-5.31984
-5.29357
-5.26411
-5.2314
-5.19537
-5.15599
-5.11321
-5.06698
-5.01727
-4.96403
-4.90723
-4.84684
-4.78285
-4.71524
-4.644
-4.56914
-4.49065
-4.40857
-4.32289
-4.23365
-4.14086
-4.04458
-3.94483
-3.84166
-3.73511
-3.62525
-3.51214
-3.39584
-3.27641
-3.15395
-3.02852
-2.90021
-2.76912
-2.63534
-2.49897
-2.36011
-2.21888
-2.07538
-1.92974
-1.78207
-1.63251
-1.48117
-1.3282
-1.17373
-1.0179
-0.860847
-0.702727
-0.543682
-0.383863
-0.22342
-0.0625074
0.0987208
0.260109
0.421503
0.582748
0.743692
0.90418
1.06406
1.22319
1.38142
1.53862
1.69463
1.84934
2.00261
2.15433
2.30438
2.45266
2.59907
2.74351
2.88592
3.02622
3.16435
3.30027
3.43392
3.5653
3.69439
3.82117
3.94567
4.0679
4.1879
4.3057
4.42138
4.535
4.64663
4.75637
4.86431
4.97058
5.07531
5.17861
5.28063
5.38151
5.48139
5.58042
5.67873
5.77645
5.87372
5.97063
6.06729
6.16378
6.26016
6.35646
6.45268
6.54879
6.64473
6.74039
6.83562
6.93023
7.02399
7.11662
7.2078
7.29718
7.38435
7.46888
7.55031
7.62811
7.7017
7.77038
7.83314
7.88896
7.9347
7.97308
7.97569
-4.63779
-4.6429
-4.6506
-4.65915
-4.66768
-4.67626
-4.68516
-4.69459
-4.70471
-4.71566
-4.72754
-4.74043
-4.75436
-4.76936
-4.78543
-4.80254
-4.82067
-4.83975
-4.85974
-4.88055
-4.90212
-4.92437
-4.94721
-4.97056
-4.99432
-5.01842
-5.04274
-5.0672
-5.09171
-5.11616
-5.14046
-5.1645
-5.18818
-5.21139
-5.23404
-5.256
-5.27718
-5.29747
-5.31674
-5.33489
-5.35181
-5.36738
-5.3815
-5.39404
-5.4049
-5.41396
-5.42111
-5.42626
-5.42928
-5.43007
-5.42853
-5.42455
-5.41805
-5.40892
-5.39708
-5.38243
-5.36489
-5.34438
-5.32083
-5.29417
-5.26432
-5.23124
-5.19486
-5.15515
-5.11204
-5.06551
-5.0155
-4.96197
-4.90488
-4.84422
-4.77997
-4.71212
-4.64065
-4.56558
-4.48691
-4.40465
-4.31882
-4.22944
-4.13654
-4.04016
-3.94033
-3.8371
-3.73051
-3.62063
-3.50751
-3.39121
-3.27181
-3.14938
-3.02401
-2.89577
-2.76475
-2.63106
-2.49479
-2.35605
-2.21493
-2.07157
-1.92607
-1.77855
-1.62913
-1.47796
-1.32516
-1.17086
-1.01521
-0.858347
-0.70042
-0.541575
-0.381961
-0.22173
-0.061036
0.0999667
0.261123
0.422276
0.583274
0.74396
0.904183
1.06379
1.22263
1.38057
1.53745
1.69315
1.84753
2.00046
2.15182
2.3015
2.44939
2.5954
2.73943
2.88141
3.02127
3.15894
3.29439
3.42756
3.55844
3.68701
3.81327
3.93723
4.05891
4.17835
4.29559
4.41069
4.52372
4.63476
4.74391
4.85126
4.95694
5.06106
5.16377
5.26521
5.3655
5.4648
5.56326
5.661
5.75817
5.85488
5.95126
6.0474
6.14339
6.23927
6.33508
6.43083
6.52649
6.62197
6.71718
6.81197
6.90613
6.99942
7.09156
7.18221
7.27098
7.35746
7.44117
7.5216
7.59817
7.6702
7.73691
7.7972
7.84998
7.89213
7.92639
7.92535
-4.65172
-4.65512
-4.66034
-4.66664
-4.67347
-4.68081
-4.68879
-4.69754
-4.70717
-4.71776
-4.72937
-4.74205
-4.75584
-4.77072
-4.7867
-4.80376
-4.82184
-4.84091
-4.8609
-4.88174
-4.90336
-4.92568
-4.94861
-4.97207
-4.99596
-5.02018
-5.04465
-5.06925
-5.0939
-5.11848
-5.1429
-5.16704
-5.1908
-5.21406
-5.23673
-5.25869
-5.27982
-5.30002
-5.31918
-5.33718
-5.35391
-5.36926
-5.38312
-5.39537
-5.40592
-5.41464
-5.42143
-5.42619
-5.42882
-5.4292
-5.42724
-5.42284
-5.41591
-5.40635
-5.39407
-5.379
-5.36105
-5.34013
-5.31619
-5.28915
-5.25894
-5.22552
-5.18882
-5.1488
-5.10542
-5.05861
-5.00832
-4.95453
-4.89719
-4.8363
-4.77183
-4.70378
-4.63214
-4.55691
-4.47811
-4.39573
-4.3098
-4.22035
-4.1274
-4.03098
-3.93113
-3.82791
-3.72134
-3.6115
-3.49843
-3.38221
-3.2629
-3.14057
-3.01531
-2.8872
-2.75633
-2.6228
-2.48669
-2.34812
-2.20719
-2.06401
-1.91871
-1.7714
-1.6222
-1.47125
-1.31867
-1.16461
-1.0092
-0.852584
-0.694908
-0.53632
-0.37697
-0.21701
-0.0565925
0.104126
0.264991
0.425846
0.586536
0.746907
0.906804
1.06608
1.22458
1.38216
1.53867
1.69399
1.84798
2.0005
2.15145
2.3007
2.44815
2.5937
2.73726
2.87876
3.01812
3.15528
3.2902
3.42284
3.55317
3.68118
3.80686
3.93024
4.05133
4.17017
4.2868
4.40129
4.51371
4.62413
4.73266
4.8394
4.94447
5.04799
5.15009
5.25093
5.35063
5.44935
5.54723
5.64441
5.74103
5.83721
5.93306
6.02869
6.12418
6.21958
6.31493
6.41022
6.50542
6.60046
6.69523
6.78956
6.88326
6.97607
7.06769
7.15777
7.2459
7.33163
7.41445
7.4938
7.56905
7.63946
7.70415
7.76198
7.81178
7.85053
7.88091
7.87678
-4.66148
-4.66318
-4.66608
-4.67018
-4.67526
-4.68126
-4.68824
-4.69623
-4.70529
-4.71546
-4.72675
-4.73919
-4.75279
-4.76754
-4.78341
-4.80037
-4.81839
-4.83741
-4.85737
-4.87819
-4.89981
-4.92215
-4.94511
-4.96861
-4.99255
-5.01683
-5.04135
-5.066
-5.09069
-5.1153
-5.13972
-5.16384
-5.18755
-5.21074
-5.2333
-5.25512
-5.27607
-5.29606
-5.31497
-5.3327
-5.34912
-5.36413
-5.37763
-5.38951
-5.39965
-5.40795
-5.41432
-5.41864
-5.42082
-5.42076
-5.41835
-5.41351
-5.40614
-5.39616
-5.38347
-5.368
-5.34966
-5.32839
-5.3041
-5.27674
-5.24624
-5.21254
-5.17561
-5.13538
-5.09178
-5.04475
-4.99426
-4.94027
-4.88276
-4.82172
-4.75712
-4.68896
-4.61723
-4.54194
-4.46309
-4.3807
-4.29478
-4.20535
-4.11244
-4.01608
-3.91632
-3.8132
-3.70675
-3.59705
-3.48414
-3.36809
-3.24896
-3.12683
-3.00179
-2.8739
-2.74326
-2.60997
-2.47412
-2.33581
-2.19516
-2.05226
-1.90725
-1.76023
-1.61133
-1.46069
-1.30842
-1.15468
-0.999591
-0.843304
-0.685962
-0.527713
-0.368708
-0.209098
-0.0490384
0.111317
0.271811
0.432288
0.592592
0.752568
0.912062
1.07092
1.229
1.38615
1.54222
1.69709
1.85061
2.00265
2.15311
2.30186
2.4488
2.59382
2.73685
2.8778
3.01659
3.15318
3.28752
3.41956
3.54928
3.67668
3.80175