/*--------------------------------*- C++ -*----------------------------------*\
| =========                 |                                                 |
| \\      /  F ield         | OpenFOAM: The Open Source CFD Toolbox           |
|  \\    /   O peration     | Version:  2412                                  |
|   \\  /    A nd           | Website:  www.openfoam.com                      |
|    \\/     M anipulation  |                                                 |
\*---------------------------------------------------------------------------*/
FoamFile
{
    version     2.0;
    format      ascii;
    arch        "LSB;label=32;scalar=64";
    class       surfaceScalarField;
    location    "0.1";
    object      phi;
}
// * * * * * * * * * * * * * * * * * * * * * * * * * * * * * * * * * * * * * //

dimensions      [0 3 -1 0 0 0 0];

oriented        oriented;

internalField   nonuniform List<scalar> 
24170
(
1.36706e-07
-5.71619e-08
1.95621e-07
-5.89144e-08
2.57917e-07
-6.22961e-08
3.1167e-07
-5.37532e-08
3.61806e-07
-5.01362e-08
4.07913e-07
-4.61073e-08
4.49557e-07
-4.16435e-08
4.87078e-07
-3.75215e-08
5.20864e-07
-3.37856e-08
5.51251e-07
-3.03871e-08
5.78565e-07
-2.73136e-08
6.03097e-07
-2.45326e-08
6.25093e-07
-2.1996e-08
6.44733e-07
-1.96396e-08
6.62162e-07
-1.74295e-08
6.77283e-07
-1.51206e-08
6.90217e-07
-1.29345e-08
-8.80752e-09
6.99025e-07
3.26112e-07
-1.24821e-07
3.94132e-07
-1.26934e-07
4.55885e-07
-1.24049e-07
5.14182e-07
-1.1205e-07
5.67673e-07
-1.03628e-07
6.16627e-07
-9.50608e-08
6.61265e-07
-8.62819e-08
7.01813e-07
-7.80688e-08
7.38566e-07
-7.05388e-08
7.71846e-07
-6.36667e-08
8.01958e-07
-5.74256e-08
8.29177e-07
-5.17517e-08
8.53737e-07
-4.65559e-08
8.75821e-07
-4.17237e-08
8.9555e-07
-3.7159e-08
9.12941e-07
-3.25116e-08
9.28088e-07
-2.80813e-08
-2.07543e-08
9.40035e-07
5.17244e-07
-1.7161e-07
5.7915e-07
-1.8884e-07
6.38208e-07
-1.83107e-07
6.95363e-07
-1.69205e-07
7.48173e-07
-1.56438e-07
7.96775e-07
-1.43662e-07
8.41416e-07
-1.30923e-07
8.8223e-07
-1.18883e-07
9.19435e-07
-1.07744e-07
9.53294e-07
-9.75258e-08
9.84069e-07
-8.82002e-08
1.012e-06
-7.96829e-08
1.0373e-06
-7.18544e-08
1.06014e-06
-6.45619e-08
1.08063e-06
-5.76472e-08
1.09887e-06
-5.07562e-08
1.11466e-06
-4.38758e-08
-3.42112e-08
1.12812e-06
7.4348e-07
-1.9542e-07
7.91919e-07
-2.37279e-07
8.43827e-07
-2.35015e-07
8.96357e-07
-2.21735e-07
9.46017e-07
-2.06098e-07
9.92293e-07
-1.89938e-07
1.0352e-06
-1.73832e-07
1.07474e-06
-1.58426e-07
1.11103e-06
-1.44029e-07
1.14424e-06
-1.30733e-07
1.17456e-06
-1.18526e-07
1.2022e-06
-1.0732e-07
1.22732e-06
-9.69782e-08
1.25008e-06
-8.73237e-08
1.27059e-06
-7.81531e-08
1.28895e-06
-6.91117e-08
1.30503e-06
-5.99553e-08
-4.85886e-08
1.3194e-06
1.01492e-06
-1.99873e-07
1.04731e-06
-2.69662e-07
1.08853e-06
-2.76239e-07
1.13339e-06
-2.66595e-07
1.17751e-06
-2.50222e-07
1.21951e-06
-2.31931e-07
1.259e-06
-2.1332e-07
1.29578e-06
-1.95214e-07
1.32984e-06
-1.78082e-07
1.36122e-06
-1.6212e-07
1.39006e-06
-1.47358e-07
1.41646e-06
-1.33726e-07
1.44057e-06
-1.21088e-07
1.46251e-06
-1.09258e-07
1.48236e-06
-9.80088e-08
1.50025e-06
-8.70006e-08
1.51619e-06
-7.58964e-08
-6.32228e-08
1.53083e-06
1.33808e-06
-1.90514e-07
1.35426e-06
-2.85846e-07
1.38244e-06
-3.0442e-07
1.41695e-06
-3.01101e-07
1.45315e-06
-2.86425e-07
1.48882e-06
-2.676e-07
1.52311e-06
-2.47604e-07
1.55556e-06
-2.27672e-07
1.58598e-06
-2.085e-07
1.61429e-06
-1.9043e-07
1.6405e-06
-1.7357e-07
1.66467e-06
-1.57891e-07
1.68686e-06
-1.43277e-07
1.70715e-06
-1.29552e-07
1.72564e-06
-1.16491e-07
1.74242e-06
-1.03788e-07
1.75763e-06
-9.1106e-08
-7.745e-08
1.77186e-06
1.71767e-06
-1.72903e-07
1.7193e-06
-2.87475e-07
1.73353e-06
-3.18648e-07
1.75571e-06
-3.23284e-07
1.78182e-06
-3.12536e-07
1.80915e-06
-2.94933e-07
1.83641e-06
-2.74861e-07
1.86289e-06
-2.5415e-07
1.88818e-06
-2.33792e-07
1.91207e-06
-2.14316e-07
1.93444e-06
-1.95943e-07
1.95526e-06
-1.78712e-07
1.97453e-06
-1.62549e-07
1.99229e-06
-1.47308e-07
2.00859e-06
-1.3279e-07
2.02354e-06
-1.1874e-07
2.0373e-06
-1.04871e-07
-9.05462e-08
2.0504e-06
2.15733e-06
-1.51547e-07
2.14717e-06
-2.7731e-07
2.14804e-06
-3.1952e-07
2.15704e-06
-3.32278e-07
2.17146e-06
-3.26965e-07
2.18872e-06
-3.12191e-07
2.20725e-06
-2.9339e-07
2.22614e-06
-2.7304e-07
2.24481e-06
-2.52459e-07
2.26289e-06
-2.32393e-07
2.28015e-06
-2.13203e-07
2.29645e-06
-1.95021e-07
2.31174e-06
-1.77835e-07
2.32598e-06
-1.61551e-07
2.3392e-06
-1.46012e-07
2.35149e-06
-1.31029e-07
2.36301e-06
-1.16391e-07
-1.01718e-07
2.37419e-06
2.66011e-06
-1.29468e-07
2.64126e-06
-2.58465e-07
2.63056e-06
-3.08818e-07
2.62678e-06
-3.28499e-07
2.62887e-06
-3.29048e-07
2.6349e-06
-3.18224e-07
2.64337e-06
-3.01858e-07
2.65328e-06
-2.82956e-07
2.66396e-06
-2.63136e-07
2.67492e-06
-2.4335e-07
2.68582e-06
-2.2411e-07
2.69646e-06
-2.05654e-07
2.70667e-06
-1.88052e-07
2.7164e-06
-1.71272e-07
2.7256e-06
-1.5522e-07
2.73435e-06
-1.39773e-07
2.74276e-06
-1.24806e-07
-1.10122e-07
2.75117e-06
3.22873e-06
-1.08344e-07
3.204e-06
-2.33728e-07
3.18407e-06
-2.88888e-07
3.16903e-06
-3.13458e-07
3.15921e-06
-3.19232e-07
3.15374e-06
-3.12751e-07
3.15145e-06
-2.99573e-07
3.15148e-06
-2.8298e-07
3.15313e-06
-2.64793e-07
3.1559e-06
-2.46114e-07
3.15938e-06
-2.27591e-07
3.16329e-06
-2.09565e-07
3.16743e-06
-1.92192e-07
3.17167e-06
-1.75511e-07
3.17594e-06
-1.59495e-07
3.18026e-06
-1.44089e-07
3.1847e-06
-1.29252e-07
-1.14909e-07
3.18949e-06
3.8657e-06
-8.90194e-08
3.83717e-06
-2.05198e-07
3.81025e-06
-2.61959e-07
3.78605e-06
-2.89263e-07
3.76576e-06
-2.9894e-07
3.74948e-06
-2.96474e-07
3.73661e-06
-2.86699e-07
3.72652e-06
-2.72888e-07
3.71867e-06
-2.56947e-07
3.7126e-06
-2.40045e-07
3.70792e-06
-2.22911e-07
3.70432e-06
-2.05969e-07
3.70158e-06
-1.8945e-07
3.69953e-06
-1.73459e-07
3.69807e-06
-1.58034e-07
3.69716e-06
-1.4318e-07
3.69684e-06
-1.28932e-07
-1.15283e-07
3.69721e-06
3.81123e-06
-7.33459e-08
3.78552e-06
-1.79483e-07
3.75883e-06
-2.3527e-07
3.73299e-06
-2.63422e-07
3.7093e-06
-2.75256e-07
3.68836e-06
-2.75532e-07
3.67007e-06
-2.68404e-07
3.65416e-06
-2.56978e-07
3.64035e-06
-2.43142e-07
3.62836e-06
-2.28057e-07
3.61792e-06
-2.12472e-07
3.6088e-06
-1.9685e-07
3.60082e-06
-1.81464e-07
3.59383e-06
-1.66467e-07
3.58773e-06
-1.51937e-07
3.58248e-06
-1.37926e-07
3.57801e-06
-1.24466e-07
-1.11799e-07
3.57453e-06
5.03713e-06
-5.77136e-08
5.00707e-06
-1.49422e-07
4.9736e-06
-2.01806e-07
4.93951e-06
-2.29332e-07
4.90651e-06
-2.42253e-07
4.87573e-06
-2.44756e-07
4.84748e-06
-2.40156e-07
4.82174e-06
-2.31233e-07
4.79838e-06
-2.19785e-07
4.77725e-06
-2.06921e-07
4.75813e-06
-1.93357e-07
4.74084e-06
-1.79563e-07
4.72522e-06
-1.65835e-07
4.7111e-06
-1.52354e-07
4.6984e-06
-1.39231e-07
4.68702e-06
-1.26551e-07
4.67693e-06
-1.14374e-07
-1.03039e-07
4.66817e-06
6.66244e-06
-4.26783e-08
6.62912e-06
-1.16109e-07
6.58916e-06
-1.61847e-07
6.54669e-06
-1.8686e-07
6.50384e-06
-1.99403e-07
6.46228e-06
-2.0319e-07
6.42279e-06
-2.00671e-07
6.38565e-06
-1.94097e-07
6.35096e-06
-1.85091e-07
6.3187e-06
-1.74661e-07
6.2888e-06
-1.63459e-07
6.26116e-06
-1.51919e-07
6.23565e-06
-1.40331e-07
6.21218e-06
-1.28884e-07
6.19065e-06
-1.17703e-07
6.17099e-06
-1.06886e-07
6.15313e-06
-9.6512e-08
-8.69455e-08
6.13703e-06
8.79086e-06
-2.88755e-08
8.75646e-06
-8.17053e-08
8.71175e-06
-1.17137e-07
8.66207e-06
-1.3718e-07
8.61012e-06
-1.47457e-07
8.55803e-06
-1.51098e-07
8.50716e-06
-1.49803e-07
8.4582e-06
-1.45135e-07
8.41149e-06
-1.38379e-07
8.36721e-06
-1.30386e-07
8.32545e-06
-1.21694e-07
8.2862e-06
-1.12672e-07
8.24944e-06
-1.03573e-07
8.21513e-06
-9.45703e-08
8.18321e-06
-8.57832e-08
8.15363e-06
-7.73042e-08
8.12632e-06
-6.92014e-08
-6.18525e-08
8.10122e-06
1.15181e-05
-1.66013e-08
1.14848e-05
-4.84023e-08
1.14383e-05
-7.07308e-08
1.13845e-05
-8.33492e-08
1.13264e-05
-8.93677e-08
1.12664e-05
-9.11001e-08
1.12063e-05
-8.96902e-08
1.11472e-05
-8.60518e-08
1.10899e-05
-8.10155e-08
1.10347e-05
-7.51745e-08
1.09819e-05
-6.89038e-08
1.09316e-05
-6.24537e-08
1.08841e-05
-5.60033e-08
1.08392e-05
-4.96795e-08
1.0797e-05
-4.35766e-08
1.07574e-05
-3.77712e-08
1.07205e-05
-3.2291e-08
-2.75198e-08
1.06862e-05
1.48842e-05
-5.39416e-09
1.48525e-05
-1.66846e-08
1.48063e-05
-2.45013e-08
1.4751e-05
-2.812e-08
1.46904e-05
-2.8703e-08
1.46267e-05
-2.74192e-08
1.45619e-05
-2.48566e-08
1.44972e-05
-2.14122e-08
1.44337e-05
-1.74656e-08
1.43718e-05
-1.33105e-08
1.4312e-05
-9.13108e-09
1.42546e-05
-5.04542e-09
1.41998e-05
-1.14595e-09
1.41476e-05
2.52926e-09
1.40981e-05
5.91773e-09
1.40513e-05
8.97661e-09
1.40073e-05
1.17355e-08
1.38437e-08
1.39659e-05
1.8769e-05
6.28128e-09
1.87365e-05
1.58492e-08
1.86883e-05
2.36894e-08
1.86301e-05
3.00707e-08
1.85661e-05
3.53345e-08
1.84989e-05
3.9746e-08
1.84306e-05
4.34727e-08
1.83625e-05
4.66378e-08
1.82957e-05
4.93361e-08
1.82308e-05
5.16341e-08
1.81681e-05
5.35763e-08
1.81078e-05
5.51925e-08
1.80502e-05
5.65027e-08
1.79952e-05
5.7518e-08
1.79429e-05
5.82433e-08
1.78932e-05
5.86662e-08
1.78461e-05
5.88452e-08
5.85202e-08
1.78014e-05
2.26768e-05
1.70109e-08
2.26399e-05
5.28005e-08
2.25835e-05
8.00855e-08
2.25149e-05
9.86637e-08
2.24392e-05
1.11029e-07
2.23597e-05
1.19189e-07
2.2279e-05
1.24202e-07
2.21988e-05
1.26844e-07
2.21203e-05
1.27815e-07
2.20443e-05
1.27635e-07
2.19712e-05
1.26647e-07
2.19014e-05
1.25075e-07
2.18348e-05
1.23081e-07
2.17715e-05
1.20776e-07
2.17115e-05
1.18238e-07
2.16547e-05
1.15514e-07
2.16009e-05
1.12664e-07
1.09549e-07
2.15498e-05
1.5604e-05
3.26552e-08
1.55641e-05
9.26562e-08
1.55091e-05
1.35093e-07
1.54457e-05
1.62089e-07
1.53778e-05
1.78946e-07
1.53081e-05
1.88878e-07
1.52387e-05
1.93605e-07
1.51709e-05
1.94587e-07
1.51057e-05
1.93065e-07
1.50434e-05
1.89905e-07
1.49844e-05
1.8567e-07
1.49287e-05
1.80746e-07
1.48764e-05
1.75407e-07
1.48273e-05
1.69845e-07
1.47814e-05
1.64188e-07
1.47383e-05
1.58531e-07
1.46981e-05
1.52934e-07
1.47337e-07
1.46603e-05
1.23902e-05
5.12456e-08
1.23448e-05
1.38126e-07
1.22864e-05
1.93446e-07
1.22225e-05
2.25965e-07
1.21567e-05
2.44833e-07
1.20914e-05
2.54162e-07
1.20285e-05
2.56489e-07
1.19689e-05
2.54142e-07
1.19131e-05
2.48877e-07
1.18612e-05
2.41816e-07
1.18132e-05
2.33686e-07
1.1769e-05
2.24985e-07
1.17283e-05
2.16055e-07
1.1691e-05
2.07122e-07
1.16569e-05
1.98335e-07
1.16256e-05
1.8979e-07
1.1597e-05
1.81534e-07
1.73553e-07
1.15708e-05
9.55928e-06
7.55516e-08
9.50979e-06
1.87625e-07
9.45372e-06
2.49509e-07
9.39692e-06
2.82771e-07
9.34173e-06
3.00015e-07
9.29017e-06
3.05727e-07
9.24317e-06
3.03488e-07
9.20088e-06
2.96437e-07
9.16313e-06
2.86618e-07
9.12969e-06
2.7526e-07
9.10021e-06
2.63164e-07
9.07434e-06
2.50861e-07
9.0517e-06
2.38692e-07
9.03195e-06
2.26866e-07
9.01479e-06
2.15503e-07
8.9999e-06
2.04674e-07
8.98704e-06
1.94397e-07
1.84674e-07
8.97592e-06
7.18003e-06
1.04969e-07
7.13264e-06
2.35013e-07
7.08701e-06
2.95145e-07
7.04544e-06
3.24337e-07
7.00923e-06
3.3623e-07
6.9793e-06
3.35651e-07
6.95534e-06
3.27449e-07
6.93658e-06
3.15202e-07
6.92228e-06
3.0092e-07
6.91176e-06
2.85771e-07
6.90443e-06
2.70496e-07
6.89974e-06
2.5555e-07
6.89724e-06
2.41192e-07
6.89655e-06
2.27557e-07
6.89735e-06
2.14703e-07
6.89938e-06
2.02648e-07
6.90241e-06
1.91369e-07
1.80862e-07
6.90622e-06
5.24556e-06
1.38126e-07
5.20786e-06
2.72708e-07
5.18044e-06
3.22572e-07
5.16163e-06
3.43145e-07
5.15137e-06
3.46488e-07
5.14861e-06
3.38416e-07
5.15151e-06
3.24549e-07
5.15857e-06
3.08137e-07
5.1687e-06
2.90788e-07
5.18105e-06
2.73426e-07
5.19495e-06
2.56598e-07
5.2099e-06
2.406e-07
5.22552e-06
2.25568e-07
5.24154e-06
2.11543e-07
5.25772e-06
1.98514e-07
5.27393e-06
1.86442e-07
5.29003e-06
1.75271e-07
1.64986e-07
5.3059e-06
3.71461e-06
1.71647e-07
3.69607e-06
2.91248e-07
3.69443e-06
3.24215e-07
3.70435e-06
3.33219e-07
3.72344e-06
3.27406e-07
3.74842e-06
3.13434e-07
3.77673e-06
2.96235e-07
3.80683e-06
2.78038e-07
3.83772e-06
2.59901e-07
3.86871e-06
2.4243e-07
3.89936e-06
2.25951e-07
3.92936e-06
2.10599e-07
3.95853e-06
1.96401e-07
3.98675e-06
1.83324e-07
4.01395e-06
1.71307e-07
4.04012e-06
1.60272e-07
4.06525e-06
1.50143e-07
1.40904e-07
4.08934e-06
2.5354e-06
1.96846e-07
2.54625e-06
2.804e-07
2.57486e-06
2.95596e-07
2.61419e-06
2.93895e-07
2.65965e-06
2.81945e-07
2.70726e-06
2.65825e-07
2.75499e-06
2.48505e-07
2.80184e-06
2.31189e-07
2.84721e-06
2.14525e-07
2.89078e-06
1.98865e-07
2.93237e-06
1.84358e-07
2.97194e-06
1.71031e-07
3.0095e-06
1.58845e-07
3.0451e-06
1.47725e-07
3.07882e-06
1.37585e-07
3.11075e-06
1.28337e-07
3.141e-06
1.19898e-07
1.12268e-07
3.16963e-06
1.65469e-06
1.99258e-07
1.70056e-06
2.34531e-07
1.75708e-06
2.3908e-07
1.81982e-06
2.31151e-07
1.88378e-06
2.17991e-07
1.94598e-06
2.03623e-07
2.00556e-06
1.88925e-07
2.06215e-06
1.74596e-07
2.11557e-06
1.61103e-07
2.16581e-06
1.48626e-07
2.21297e-06
1.37205e-07
2.25718e-06
1.26816e-07
2.29863e-06
1.17394e-07
2.3375e-06
1.08855e-07
2.37397e-06
1.01114e-07
2.40822e-06
9.40884e-08
2.44042e-06
8.76988e-08
8.1983e-08
2.47071e-06
1.01827e-06
1.63846e-07
1.09488e-06
1.57924e-07
1.17024e-06
1.63721e-07
1.24669e-06
1.54699e-07
1.32008e-06
1.44599e-07
1.38906e-06
1.34643e-07
1.45369e-06
1.24294e-07
1.51403e-06
1.14264e-07
1.57017e-06
1.04963e-07
1.62234e-06
9.64568e-08
1.67081e-06
8.87342e-08
1.71586e-06
8.17593e-08
1.75778e-06
7.54729e-08
1.79683e-06
6.98059e-08
1.83326e-06
6.46905e-08
1.86728e-06
6.00658e-08
1.89913e-06
5.58526e-08
5.21266e-08
1.92898e-06
5.69237e-07
8.45265e-08
6.58981e-07
6.81792e-08
7.40762e-07
8.19406e-08
8.20857e-07
7.46042e-08
8.95854e-07
6.96015e-08
9.65405e-07
6.50917e-08
1.02982e-06
5.98758e-08
1.08933e-06
5.47601e-08
1.1442e-06
5.00941e-08
1.19479e-06
4.58672e-08
1.24147e-06
4.20501e-08
1.28461e-06
3.86222e-08
1.32453e-06
3.55496e-08
1.36154e-06
3.27925e-08
1.39592e-06
3.03126e-08
1.42791e-06
2.80813e-08
1.45773e-06
2.60266e-08
2.41971e-08
1.48566e-06
2.22451e-07
2.9063e-07
3.7257e-07
4.47175e-07
5.16776e-07
5.81868e-07
6.41744e-07
6.96504e-07
7.46598e-07
7.92465e-07
8.34515e-07
8.73137e-07
9.08687e-07
9.4148e-07
9.71792e-07
9.99873e-07
1.0259e-06
1.0501e-06
2.72667e-08
-2.72667e-08
5.97067e-08
-3.244e-08
8.65324e-08
-2.68257e-08
1.04655e-07
-1.81226e-08
1.13009e-07
-8.3541e-09
1.11654e-07
1.35465e-09
1.01483e-07
1.01714e-08
8.42946e-08
1.71885e-08
6.18022e-08
2.24924e-08
3.53711e-08
2.64311e-08
5.83268e-09
2.95384e-08
-2.65391e-08
3.23718e-08
-6.18793e-08
3.53401e-08
-1.00449e-07
3.85694e-08
-1.42445e-07
4.19967e-08
-1.87904e-07
4.5459e-08
-2.36676e-07
4.87719e-08
-2.88453e-07
5.17773e-08
-3.42811e-07
5.43574e-08
-3.99247e-07
5.64366e-08
-4.57226e-07
5.79783e-08
-5.16206e-07
5.89801e-08
-5.75673e-07
5.94675e-08
-6.35162e-07
5.94889e-08
-6.94273e-07
5.91111e-08
-7.52685e-07
5.84118e-08
-8.10145e-07
5.74603e-08
-8.66453e-07
5.63075e-08
-9.21457e-07
5.50039e-08
-9.75052e-07
5.35946e-08
-1.02717e-06
5.21187e-08
-1.07778e-06
5.06085e-08
-1.12687e-06
4.90895e-08
-1.17445e-06
4.75811e-08
-1.22055e-06
4.60973e-08
-1.26519e-06
4.46471e-08
-1.30843e-06
4.32357e-08
-1.35029e-06
4.18654e-08
-1.39083e-06
4.05357e-08
-1.43008e-06
3.92448e-08
-1.46806e-06
3.79894e-08
-1.50483e-06
3.67655e-08
-1.5404e-06
3.55688e-08
-1.57479e-06
3.43946e-08
-1.60803e-06
3.32385e-08
-1.64013e-06
3.2096e-08
-1.67109e-06
3.09633e-08
-1.70093e-06
2.98365e-08
-1.72964e-06
2.87123e-08
-1.75723e-06
2.75879e-08
-1.78369e-06
2.64608e-08
-1.80902e-06
2.53289e-08
-1.83321e-06
2.41904e-08
-1.85625e-06
2.30441e-08
-1.87814e-06
2.18887e-08
-1.89886e-06
2.07234e-08
-1.91841e-06
1.95477e-08
-1.93677e-06
1.83609e-08
-1.95394e-06
1.71626e-08
-1.96989e-06
1.59524e-08
-1.98462e-06
1.47298e-08
-1.99811e-06
1.34941e-08
-2.01036e-06
1.22443e-08
-2.02134e-06
1.09791e-08
-2.03103e-06
9.6961e-09
-2.03942e-06
8.39188e-09
-2.04649e-06
7.06289e-09
-2.05219e-06
5.70355e-09
-2.0565e-06
4.306e-09
-2.05936e-06
2.86722e-09
-2.06075e-06
1.39159e-09
-2.06059e-06
-1.65009e-10
-2.05919e-06
-1.39962e-09
-2.05659e-06
-2.60377e-09
-2.05282e-06
-3.76396e-09
-2.04792e-06
-4.89929e-09
-2.0419e-06
-6.02175e-09
-2.03477e-06
-7.13585e-09
-2.02652e-06
-8.24329e-09
-2.01718e-06
-9.34421e-09
-2.00674e-06
-1.04382e-08
-1.99521e-06
-1.15247e-08
-1.98261e-06
-1.26028e-08
-1.96894e-06
-1.36718e-08
-1.95421e-06
-1.47307e-08
-1.93843e-06
-1.57788e-08
-1.92162e-06
-1.68152e-08
-1.90378e-06
-1.78393e-08
-1.88493e-06
-1.885e-08
-1.86508e-06
-1.98468e-08
-1.84425e-06
-2.08288e-08
-1.82246e-06
-2.17952e-08
-1.79971e-06
-2.27454e-08
-1.77603e-06
-2.36784e-08
-1.75144e-06
-2.45935e-08
-1.72595e-06
-2.549e-08
-1.69958e-06
-2.63669e-08
-1.67236e-06
-2.72235e-08
-1.6443e-06
-2.80591e-08
-1.61543e-06
-2.88726e-08
-1.58576e-06
-2.96634e-08
-1.55533e-06
-3.04306e-08
-1.52416e-06
-3.11732e-08
-1.49227e-06
-3.18905e-08
-1.45969e-06
-3.25815e-08
-1.42644e-06
-3.32453e-08
-1.39256e-06
-3.3881e-08
-1.35807e-06
-3.44879e-08
-1.32301e-06
-3.5065e-08
-1.2874e-06
-3.56115e-08
-1.25127e-06
-3.61267e-08
-1.21466e-06
-3.66098e-08
-1.1776e-06
-3.70601e-08
-1.14012e-06
-3.74771e-08
-1.10226e-06
-3.78602e-08
-1.06405e-06
-3.82092e-08
-1.02553e-06
-3.85235e-08
-9.86727e-07
-3.88031e-08
-9.47679e-07
-3.9048e-08
-9.0842e-07
-3.92585e-08
-8.68985e-07
-3.94348e-08
-8.29408e-07
-3.95774e-08
-7.89721e-07
-3.96873e-08
-7.49955e-07
-3.97654e-08
-7.10142e-07
-3.98131e-08
-6.7031e-07
-3.98319e-08
-6.30487e-07
-3.98235e-08
-5.90696e-07
-3.97902e-08
-5.50962e-07
-3.97344e-08
-5.11303e-07
-3.96589e-08
-4.71737e-07
-3.95665e-08
-4.32276e-07
-3.94607e-08
-3.92931e-07
-3.93451e-08
-3.53707e-07
-3.92235e-08
-3.14608e-07
-3.90999e-08
-2.75629e-07
-3.89785e-08
-2.36765e-07
-3.88637e-08
-1.98005e-07
-3.87598e-08
-1.59337e-07
-3.8669e-08
-1.20739e-07
-3.85978e-08
-8.21877e-08
-3.85511e-08
-4.36586e-08
-3.85291e-08
-5.12465e-09
-3.85339e-08
3.34596e-08
-3.85843e-08
7.21376e-08
-3.86779e-08
1.10959e-07
-3.88218e-08
1.50002e-07
-3.9043e-08
1.89357e-07
-3.93551e-08
2.2912e-07
-3.97623e-08
2.69387e-07
-4.02671e-08
3.10258e-07
-4.08715e-08
3.51836e-07
-4.15776e-08
3.94223e-07
-4.2387e-08
4.37524e-07
-4.3301e-08
4.81844e-07
-4.43202e-08
5.27288e-07
-4.5444e-08
5.73959e-07
-4.66708e-08
6.21956e-07
-4.79975e-08
6.71376e-07
-4.94196e-08
7.22307e-07
-5.09305e-08
7.74828e-07
-5.25215e-08
8.2901e-07
-5.41815e-08
8.84906e-07
-5.58968e-08
9.42557e-07
-5.76505e-08
1.00198e-06
-5.94219e-08
1.06317e-06
-6.11865e-08
1.12608e-06
-6.29145e-08
1.19065e-06
-6.45703e-08
1.25676e-06
-6.61102e-08
1.32424e-06
-6.74808e-08
1.39286e-06
-6.8614e-08
1.46228e-06
-6.94209e-08
1.53205e-06
-6.9777e-08
1.60156e-06
-6.95029e-08
1.66984e-06
-6.82811e-08
1.73546e-06
-6.5627e-08
1.79542e-06
-5.99552e-08
1.84458e-06
-4.91598e-08
1.86217e-06
-1.75951e-08
5.42401e-08
1.80793e-06
2.51363e-08
-5.2403e-08
3.72336e-08
-4.45373e-08
3.81769e-08
-2.7769e-08
3.11765e-08
-1.11222e-08
1.81936e-08
4.62879e-09
2.92077e-10
1.92561e-08
-2.20907e-08
3.25542e-08
-4.919e-08
4.42878e-08
-8.11128e-08
5.44151e-08
-1.17836e-07
6.31539e-08
-1.5918e-07
7.0883e-08
-2.04788e-07
7.79801e-08
-2.54142e-07
8.4694e-08
-3.0666e-07
9.1087e-08
-3.61728e-07
9.70652e-08
-4.18724e-07
1.02455e-07
-4.77031e-07
1.07078e-07
-5.36051e-07
1.10798e-07
-5.95231e-07
1.13537e-07
-6.54074e-07
1.1528e-07
-7.12161e-07
1.16065e-07
-7.69153e-07
1.15972e-07
-8.24792e-07
1.15106e-07
-8.78897e-07
1.13594e-07
-9.31351e-07
1.11565e-07
-9.82084e-07
1.09144e-07
-1.03106e-06
1.0644e-07
-1.0783e-06
1.03546e-07
-1.12384e-06
1.00538e-07
-1.16772e-06
9.74795e-08
-1.21002e-06
9.44206e-08
-1.25081e-06
9.13977e-08
-1.29016e-06
8.84367e-08
-1.32813e-06
8.55543e-08
-1.36479e-06
8.27599e-08
-1.4002e-06
8.00565e-08
-1.43441e-06
7.74431e-08
-1.46746e-06
7.49151e-08
-1.49939e-06
7.24658e-08
-1.53023e-06
7.00872e-08
-1.56001e-06
6.77702e-08
-1.58875e-06
6.55057e-08
-1.61647e-06
6.32845e-08
-1.64317e-06
6.1098e-08
-1.66887e-06
5.89379e-08
-1.69357e-06
5.67967e-08
-1.71728e-06
5.46676e-08
-1.73999e-06
5.25445e-08
-1.7617e-06
5.04222e-08
-1.7824e-06
4.82962e-08
-1.80211e-06
4.61627e-08
-1.8208e-06
4.40186e-08
-1.83847e-06
4.18612e-08
-1.85511e-06
3.96889e-08
-1.87072e-06
3.75e-08
-1.88529e-06
3.52936e-08
-1.89881e-06
3.3069e-08
-1.91128e-06
3.08259e-08
-1.92268e-06
2.85641e-08
-1.93301e-06
2.62839e-08
-1.94227e-06
2.39854e-08
-1.95044e-06
2.16689e-08
-1.95753e-06
1.93348e-08
-1.96354e-06
1.69837e-08
-1.96846e-06
1.46162e-08
-1.9723e-06
1.22335e-08
-1.97507e-06
9.83748e-09
-1.9768e-06
7.43168e-09
-1.97752e-06
5.02208e-09
-1.97727e-06
2.6187e-09
-1.97615e-06
2.74618e-10
-1.97422e-06
-2.09315e-09
-1.97127e-06
-4.35282e-09
-1.96728e-06
-6.59908e-09
-1.96221e-06
-8.83517e-09
-1.95604e-06
-1.10606e-08
-1.94879e-06
-1.32766e-08
-1.94044e-06
-1.54831e-08
-1.93101e-06
-1.76794e-08
-1.92049e-06
-1.98644e-08
-1.90889e-06
-2.20365e-08
-1.89622e-06
-2.41943e-08
-1.88248e-06
-2.63359e-08
-1.8677e-06
-2.84597e-08
-1.85186e-06
-3.05641e-08
-1.83499e-06
-3.26473e-08
-1.8171e-06
-3.47076e-08
-1.7982e-06
-3.67437e-08
-1.77829e-06
-3.87537e-08
-1.7574e-06
-4.07362e-08
-1.73554e-06
-4.26897e-08
-1.71273e-06
-4.46125e-08
-1.68897e-06
-4.65032e-08
-1.66429e-06
-4.83602e-08
-1.6387e-06
-5.01819e-08
-1.61222e-06
-5.19667e-08
-1.58488e-06
-5.37131e-08
-1.55668e-06
-5.54193e-08
-1.52766e-06
-5.70837e-08
-1.49782e-06
-5.87047e-08
-1.46721e-06
-6.02807e-08
-1.43583e-06
-6.18098e-08
-1.40371e-06
-6.32904e-08
-1.37088e-06
-6.47208e-08
-1.33736e-06
-6.6099e-08
-1.30318e-06
-6.74234e-08
-1.26837e-06
-6.86922e-08
-1.23296e-06
-6.99036e-08
-1.19697e-06
-7.1056e-08
-1.16043e-06
-7.21478e-08
-1.12338e-06
-7.31774e-08
-1.08584e-06
-7.41433e-08
-1.04786e-06
-7.50441e-08
-1.00946e-06
-7.58787e-08
-9.70674e-07
-7.6646e-08
-9.31537e-07
-7.73452e-08
-8.92085e-07
-7.79758e-08
-8.52351e-07
-7.85373e-08
-8.12369e-07
-7.90297e-08
-7.72174e-07
-7.94534e-08
-7.318e-07
-7.9809e-08
-6.9128e-07
-8.00977e-08
-6.50647e-07
-8.03208e-08
-6.09931e-07
-8.04805e-08
-5.69165e-07
-8.05793e-08
-5.28377e-07
-8.06201e-08
-4.87594e-07
-8.06065e-08
-4.46842e-07
-8.05427e-08
-4.06142e-07
-8.04336e-08
-3.65517e-07
-8.02844e-08
-3.24982e-07
-8.0101e-08
-2.84553e-07
-7.98901e-08
-2.44239e-07
-7.96588e-08
-2.04048e-07
-7.94147e-08
-1.63982e-07
-7.91659e-08
-1.2404e-07
-7.89206e-08
-8.42157e-08
-7.86878e-08
-4.4499e-08
-7.84765e-08
-4.87466e-09
-7.82933e-08
3.46765e-08
-7.8149e-08
7.41786e-08
-7.80532e-08
1.13662e-07
-7.80129e-08
1.5317e-07
-7.80418e-08
1.92747e-07
-7.81611e-08
2.32451e-07
-7.83815e-08
2.72349e-07
-7.87197e-08
3.1251e-07
-7.92043e-08
3.5301e-07
-7.98557e-08
3.93934e-07
-8.06863e-08
4.35373e-07
-8.17051e-08
4.7742e-07
-8.29191e-08
5.20177e-07
-8.43341e-08
5.63745e-07
-8.59549e-08
6.08228e-07
-8.77849e-08
6.53734e-07
-8.98259e-08
7.00368e-07
-9.20774e-08
7.48233e-07
-9.45366e-08
7.97434e-07
-9.71981e-08
8.48067e-07
-1.00053e-07
9.00224e-07
-1.03088e-07
9.53989e-07
-1.06286e-07
1.00943e-06
-1.09627e-07
1.06662e-06
-1.13081e-07
1.12558e-06
-1.16617e-07
1.18636e-06
-1.20193e-07
1.24893e-06
-1.23761e-07
1.31328e-06
-1.27261e-07
1.37933e-06
-1.30623e-07
1.44698e-06
-1.33762e-07
1.51607e-06
-1.3657e-07
1.58637e-06
-1.38915e-07
1.65757e-06
-1.40621e-07
1.72924e-06
-1.41449e-07
1.80079e-06
-1.41048e-07
1.87135e-06
-1.38839e-07
1.93959e-06
-1.33869e-07
2.00347e-06
-1.23839e-07
2.05939e-06
-1.0508e-07
2.10564e-06
-6.38375e-08
2.29225e-08
2.13695e-06
3.29076e-09
-5.56938e-08
-6.86439e-09
-3.43821e-08
-2.31839e-08
-1.14495e-08
-4.35894e-08
9.28334e-09
-6.73675e-08
2.84069e-08
-9.42805e-08
4.61692e-08
-1.24313e-07
6.25864e-08
-1.57607e-07
7.75821e-08
-1.94315e-07
9.11232e-08
-2.34452e-07
1.0329e-07
-2.77811e-07
1.14242e-07
-3.23961e-07
1.24131e-07
-3.72303e-07
1.33036e-07
-4.22162e-07
1.40945e-07
-4.72873e-07
1.47777e-07
-5.23846e-07
1.53428e-07
-5.74585e-07
1.57818e-07
-6.24702e-07
1.60915e-07
-6.73907e-07
1.62742e-07
-7.22002e-07
1.63376e-07
-7.68868e-07
1.62931e-07
-8.14445e-07
1.61549e-07
-8.58721e-07
1.59382e-07
-9.01714e-07
1.56587e-07
-9.43458e-07
1.5331e-07
-9.83996e-07
1.49682e-07
-1.02337e-06
1.45819e-07
-1.06164e-06
1.41813e-07
-1.09885e-06
1.37743e-07
-1.13503e-06
1.33667e-07
-1.17024e-06
1.29629e-07
-1.20451e-06
1.25663e-07
-1.23786e-06
1.21787e-07
-1.27032e-06
1.18015e-07
-1.30191e-06
1.1435e-07
-1.33264e-06
1.10793e-07
-1.36254e-06
1.07338e-07
-1.3916e-06
1.03977e-07
-1.41984e-06
1.00701e-07
-1.44725e-06
9.74996e-08
-1.47384e-06
9.43612e-08
-1.49961e-06
9.12745e-08
-1.52455e-06
8.82285e-08
-1.54867e-06
8.52129e-08
-1.57195e-06
8.22179e-08
-1.59439e-06
7.92346e-08
-1.61597e-06
7.62551e-08
-1.6367e-06
7.32724e-08
-1.65656e-06
7.02803e-08
-1.67554e-06
6.72738e-08
-1.69362e-06
6.42485e-08
-1.7108e-06
6.12009e-08
-1.72707e-06
5.81285e-08
-1.74241e-06
5.50291e-08
-1.75681e-06
5.19017e-08
-1.77027e-06
4.87453e-08
-1.78276e-06
4.55598e-08
-1.79428e-06
4.23455e-08
-1.80482e-06
3.91031e-08
-1.81436e-06
3.58336e-08
-1.82292e-06
3.25384e-08
-1.83047e-06
2.92191e-08
-1.83701e-06
2.5878e-08
-1.84255e-06
2.25174e-08
-1.84707e-06
1.91405e-08
-1.85059e-06
1.5751e-08
-1.8531e-06
1.23537e-08
-1.85463e-06
8.95439e-09
-1.85516e-06
5.56064e-09
-1.85473e-06
2.18242e-09
-1.85328e-06
-1.16907e-09
-1.85088e-06
-4.50258e-09
-1.84742e-06
-7.8122e-09
-1.8429e-06
-1.11112e-08
-1.83734e-06
-1.4403e-08
-1.83071e-06
-1.76875e-08
-1.82302e-06
-2.09634e-08
-1.81428e-06
-2.42286e-08
-1.80447e-06
-2.74808e-08
-1.79362e-06
-3.07176e-08
-1.78172e-06
-3.39364e-08
-1.76878e-06
-3.71347e-08
-1.75481e-06
-4.03099e-08
-1.73981e-06
-4.34593e-08
-1.72379e-06
-4.65804e-08
-1.70677e-06
-4.96708e-08
-1.68875e-06
-5.2728e-08
-1.66974e-06
-5.57496e-08
-1.64976e-06
-5.87332e-08
-1.62882e-06
-6.16766e-08
-1.60693e-06
-6.45773e-08
-1.58411e-06
-6.74332e-08
-1.56037e-06
-7.02419e-08
-1.53573e-06
-7.30011e-08
-1.51021e-06
-7.57085e-08
-1.48381e-06
-7.83615e-08
-1.45657e-06
-8.09579e-08
-1.42849e-06
-8.34952e-08
-1.3996e-06
-8.59709e-08
-1.36993e-06
-8.83826e-08
-1.33948e-06
-9.07278e-08
-1.30829e-06
-9.3004e-08
-1.27637e-06
-9.52084e-08
-1.24375e-06
-9.73386e-08
-1.21046e-06
-9.93919e-08
-1.17651e-06
-1.01365e-07
-1.14195e-06
-1.03257e-07
-1.10679e-06
-1.05063e-07
-1.07106e-06
-1.06783e-07
-1.0348e-06
-1.08412e-07
-9.98027e-07
-1.0995e-07
-9.60778e-07
-1.11393e-07
-9.23082e-07
-1.12739e-07
-8.84973e-07
-1.13988e-07
-8.46482e-07
-1.15137e-07
-8.07642e-07
-1.16185e-07
-7.68487e-07
-1.17131e-07
-7.2905e-07
-1.17974e-07
-6.89364e-07
-1.18715e-07
-6.49463e-07
-1.19354e-07
-6.0938e-07
-1.19892e-07
-5.69148e-07
-1.2033e-07
-5.28798e-07
-1.20671e-07
-4.88361e-07
-1.20917e-07
-4.47868e-07
-1.21072e-07
-4.07348e-07
-1.21141e-07
-3.66826e-07
-1.21128e-07
-3.26328e-07
-1.2104e-07
-2.85877e-07
-1.20884e-07
-2.45494e-07
-1.20668e-07
-2.05195e-07
-1.204e-07
-1.64994e-07
-1.2009e-07
-1.24904e-07
-1.19749e-07
-8.4931e-08
-1.19388e-07
-4.50784e-08
-1.19019e-07
-5.34503e-09
-1.18654e-07
3.42739e-08
-1.18307e-07
7.37875e-08
-1.1799e-07
1.13212e-07
-1.17718e-07
1.52567e-07
-1.17504e-07
1.91879e-07
-1.17365e-07
2.31181e-07
-1.17315e-07
2.70519e-07
-1.1738e-07
3.09944e-07
-1.17586e-07
3.49518e-07
-1.17956e-07
3.89304e-07
-1.18505e-07
4.29364e-07
-1.19265e-07
4.69768e-07
-1.20259e-07
5.10592e-07
-1.21511e-07
5.51921e-07
-1.23034e-07
5.93845e-07
-1.24843e-07
6.3646e-07
-1.26949e-07
6.79864e-07
-1.29359e-07
7.24159e-07
-1.3208e-07
7.69448e-07
-1.35115e-07
8.15835e-07
-1.38464e-07
8.63423e-07
-1.42124e-07
9.12312e-07
-1.46087e-07
9.62598e-07
-1.50339e-07
1.01437e-06
-1.54862e-07
1.06772e-06
-1.59631e-07
1.12271e-06
-1.64614e-07
1.1794e-06
-1.69771e-07
1.23783e-06
-1.75052e-07
1.29803e-06
-1.80396e-07
1.36e-06
-1.85731e-07
1.42371e-06
-1.90971e-07
1.4891e-06
-1.96009e-07
1.55606e-06
-2.0072e-07
1.62443e-06
-2.04947e-07
1.69401e-06
-2.08495e-07
1.7645e-06
-2.11109e-07
1.8355e-06
-2.12443e-07
1.90645e-06
-2.12001e-07
1.97661e-06
-2.08997e-07
2.04489e-06
-2.0215e-07
2.10991e-06
-1.88864e-07
2.16966e-06
-1.64828e-07
2.22459e-06
-1.18769e-07
-3.23501e-08
2.27987e-06
-1.80754e-08
-3.76184e-08
-4.31036e-08
-9.35393e-09
-7.01741e-08
1.56211e-08
-9.88374e-08
3.79466e-08
-1.29105e-07
5.86742e-08
-1.61067e-07
7.81314e-08
-1.94828e-07
9.63477e-08
-2.30486e-07
1.1324e-07
-2.68079e-07
1.28717e-07
-3.07521e-07
1.42732e-07
-3.48564e-07
1.55284e-07
-3.90817e-07
1.66384e-07
-4.3381e-07
1.76029e-07
-4.77062e-07
1.84197e-07
-5.20143e-07
1.90858e-07
-5.62713e-07
1.95998e-07
-6.04529e-07
1.99634e-07
-6.45441e-07
2.01827e-07
-6.85379e-07
2.02679e-07
-7.24328e-07
2.02325e-07
-7.62316e-07
2.00918e-07
-7.99391e-07
1.98624e-07
-8.35614e-07
1.95605e-07
-8.71043e-07
1.92016e-07
-9.05731e-07
1.87997e-07
-9.3972e-07
1.83672e-07
-9.73045e-07
1.79143e-07
-1.00573e-06
1.74498e-07
-1.03779e-06
1.69805e-07
-1.06924e-06
1.65116e-07
-1.10008e-06
1.60471e-07
-1.13032e-06
1.55896e-07
-1.15994e-06
1.51409e-07
-1.18894e-06
1.4702e-07
-1.21733e-06
1.42732e-07
-1.24508e-06
1.38542e-07
-1.27218e-06
1.34445e-07
-1.29864e-06
1.30433e-07
-1.32443e-06
1.26495e-07
-1.34955e-06
1.2262e-07
-1.37399e-06
1.18796e-07
-1.39773e-06
1.15012e-07
-1.42075e-06
1.11257e-07
-1.44306e-06
1.07519e-07
-1.46463e-06
1.03788e-07
-1.48545e-06
1.00055e-07
-1.50551e-06
9.6312e-08
-1.52479e-06
9.25512e-08
-1.54327e-06
8.87665e-08
-1.56095e-06
8.49525e-08
-1.57781e-06
8.11051e-08
-1.59383e-06
7.72207e-08
-1.609e-06
7.32969e-08
-1.6233e-06
6.9332e-08
-1.63672e-06
6.53252e-08
-1.64925e-06
6.12761e-08
-1.66088e-06
5.71854e-08
-1.67159e-06
5.3054e-08
-1.68137e-06
4.88835e-08
-1.69021e-06
4.46759e-08
-1.6981e-06
4.04337e-08
-1.70505e-06
3.616e-08
-1.71103e-06
3.18581e-08
-1.71604e-06
2.75319e-08
-1.72009e-06
2.31857e-08
-1.72316e-06
1.88244e-08
-1.72526e-06
1.44535e-08
-1.72638e-06
1.00787e-08
-1.72653e-06
5.70639e-09
-1.72569e-06
1.34235e-09
-1.72385e-06
-3.00964e-09
-1.721e-06
-7.34927e-09
-1.71713e-06
-1.16789e-08
-1.71224e-06
-1.60026e-08
-1.70633e-06
-2.03206e-08
-1.69938e-06
-2.46317e-08
-1.69141e-06
-2.89335e-08
-1.68242e-06
-3.3223e-08
-1.6724e-06
-3.74967e-08
-1.66137e-06
-4.17513e-08
-1.64932e-06
-4.59832e-08
-1.63627e-06
-5.0189e-08
-1.62221e-06
-5.43652e-08
-1.60716e-06
-5.85083e-08
-1.59113e-06
-6.2615e-08
-1.57412e-06
-6.6682e-08
-1.55614e-06
-7.07061e-08
-1.5372e-06
-7.4684e-08
-1.51732e-06
-7.86128e-08
-1.49651e-06
-8.24892e-08
-1.47478e-06
-8.63103e-08
-1.45214e-06
-9.00729e-08
-1.42861e-06
-9.37742e-08
-1.4042e-06
-9.74109e-08
-1.37893e-06
-1.0098e-07
-1.35281e-06
-1.04478e-07
-1.32586e-06
-1.07903e-07
-1.29811e-06
-1.1125e-07
-1.26956e-06
-1.14516e-07
-1.24025e-06
-1.17699e-07
-1.21018e-06
-1.20795e-07
-1.17938e-06
-1.238e-07