/*--------------------------------*- C++ -*----------------------------------*\
| =========                 |                                                 |
| \\      /  F ield         | OpenFOAM: The Open Source CFD Toolbox           |
|  \\    /   O peration     | Version:  2412                                  |
|   \\  /    A nd           | Website:  www.openfoam.com                      |
|    \\/     M anipulation  |                                                 |
\*---------------------------------------------------------------------------*/
FoamFile
{
    version     2.0;
    format      ascii;
    arch        "LSB;label=32;scalar=64";
    class       volVectorField;
    location    "0.1";
    object      U;
}
// * * * * * * * * * * * * * * * * * * * * * * * * * * * * * * * * * * * * * //

dimensions      [0 1 -1 0 0 0 0];

internalField   nonuniform List<vector> 
12225
(
(0.377183 -0.200896 0)
(0.543961 -0.0519267 0)
(0.711044 -0.0340142 0)
(0.893973 -0.0304764 0)
(1.0591 -0.0297465 0)
(1.20884 -0.028452 0)
(1.34615 -0.0265177 0)
(1.47044 -0.024575 0)
(1.58218 -0.0227658 0)
(1.68264 -0.0210736 0)
(1.773 -0.0194958 0)
(1.85421 -0.0180248 0)
(1.92709 -0.0166397 0)
(1.99234 -0.0153007 0)
(2.05033 -0.0139886 0)
(2.10198 -0.0125639 0)
(2.14365 -0.0105489 0)
(2.19223 -0.0133407 0)
(0.933503 -0.0317783 0)
(1.0567 -0.0587096 0)
(1.23664 -0.0688993 0)
(1.42155 -0.0644834 0)
(1.58551 -0.061811 0)
(1.7344 -0.0589645 0)
(1.87129 -0.0555622 0)
(1.996 -0.0521747 0)
(2.109 -0.0489326 0)
(2.21133 -0.0458434 0)
(2.30397 -0.042922 0)
(2.38776 -0.0401549 0)
(2.46345 -0.0375019 0)
(2.53165 -0.0348882 0)
(2.5928 -0.0322634 0)
(2.64728 -0.0292135 0)
(2.69466 -0.0264467 0)
(2.73678 -0.0170208 0)
(1.39962 -0.0846816 0)
(1.49179 -0.105676 0)
(1.65465 -0.107235 0)
(1.82259 -0.101938 0)
(1.97266 -0.0979855 0)
(2.11036 -0.0936474 0)
(2.23772 -0.088735 0)
(2.35445 -0.0837913 0)
(2.46089 -0.0789893 0)
(2.55781 -0.0743756 0)
(2.64597 -0.0699764 0)
(2.72604 -0.065774 0)
(2.79865 -0.0617116 0)
(2.86433 -0.0576883 0)
(2.92347 -0.0535867 0)
(2.97633 -0.0490227 0)
(3.02308 -0.044058 0)
(3.06288 -0.0350985 0)
(1.89741 -0.115424 0)
(1.94623 -0.143307 0)
(2.0752 -0.14498 0)
(2.21746 -0.140762 0)
(2.34796 -0.135772 0)
(2.46971 -0.130037 0)
(2.58349 -0.123686 0)
(2.68863 -0.117198 0)
(2.78519 -0.110811 0)
(2.87366 -0.104626 0)
(2.95454 -0.0986878 0)
(3.02832 -0.0929791 0)
(3.09549 -0.0874322 0)
(3.15645 -0.0819244 0)
(3.21158 -0.0762889 0)
(3.26101 -0.070134 0)
(3.30528 -0.0632254 0)
(3.3427 -0.0526204 0)
(2.43108 -0.12583 0)
(2.4405 -0.169889 0)
(2.5288 -0.177407 0)
(2.64001 -0.176166 0)
(2.74679 -0.171222 0)
(2.849 -0.164721 0)
(2.94613 -0.157365 0)
(3.03697 -0.149665 0)
(3.1212 -0.141949 0)
(3.19898 -0.134393 0)
(3.27054 -0.127069 0)
(3.33617 -0.119973 0)
(3.39619 -0.113037 0)
(3.45089 -0.106128 0)
(3.50057 -0.0990483 0)
(3.54533 -0.0914116 0)
(3.58597 -0.0828143 0)
(3.62032 -0.0709935 0)
(2.99683 -0.123683 0)
(2.97697 -0.185367 0)
(3.02468 -0.201455 0)
(3.10202 -0.204945 0)
(3.18208 -0.201564 0)
(3.26194 -0.195245 0)
(3.33992 -0.187539 0)
(3.41419 -0.179146 0)
(3.48402 -0.170524 0)
(3.54919 -0.16194 0)
(3.60968 -0.153516 0)
(3.66556 -0.145273 0)
(3.71697 -0.137157 0)
(3.76407 -0.129037 0)
(3.80709 -0.120708 0)
(3.84608 -0.111813 0)
(3.88202 -0.10191 0)
(3.91229 -0.0894019 0)
(3.58832 -0.114507 0)
(3.55089 -0.19058 0)
(3.5632 -0.215887 0)
(3.60677 -0.225308 0)
(3.65872 -0.224994 0)
(3.71441 -0.219944 0)
(3.77137 -0.212667 0)
(3.82731 -0.204206 0)
(3.88104 -0.195193 0)
(3.93202 -0.18601 0)
(3.97995 -0.17685 0)
(4.02469 -0.167775 0)
(4.06619 -0.158756 0)
(4.10451 -0.149682 0)
(4.13976 -0.140364 0)
(4.17196 -0.130497 0)
(4.20217 -0.119689 0)
(4.22729 -0.10688 0)
(4.1988 -0.101766 0)
(4.15397 -0.187072 0)
(4.13918 -0.220699 0)
(4.15216 -0.236299 0)
(4.17666 -0.240125 0)
(4.20774 -0.237375 0)
(4.24278 -0.231341 0)
(4.27929 -0.223493 0)
(4.31577 -0.214664 0)
(4.35138 -0.205373 0)
(4.38559 -0.1959 0)
(4.41807 -0.186366 0)
(4.44861 -0.176781 0)
(4.47714 -0.167068 0)
(4.50368 -0.157073 0)
(4.52817 -0.146563 0)
(4.5517 -0.135234 0)
(4.57066 -0.122432 0)
(4.82185 -0.0878081 0)
(4.77662 -0.176871 0)
(4.74389 -0.216835 0)
(4.73189 -0.237815 0)
(4.73176 -0.246108 0)
(4.73953 -0.246385 0)
(4.753 -0.242305 0)
(4.76993 -0.23572 0)
(4.78873 -0.227663 0)
(4.80838 -0.218783 0)
(4.8282 -0.20946 0)
(4.84769 -0.199882 0)
(4.86653 -0.190112 0)
(4.88452 -0.18012 0)
(4.9016 -0.169804 0)
(4.91765 -0.159005 0)
(4.9337 -0.147528 0)
(4.94563 -0.135009 0)
(5.45146 -0.074108 0)
(5.40949 -0.162005 0)
(5.36681 -0.205818 0)
(5.33652 -0.230631 0)
(5.31633 -0.24288 0)
(5.3038 -0.246393 0)
(5.29755 -0.244699 0)
(5.29595 -0.239875 0)
(5.29759 -0.233095 0)
(5.30147 -0.225113 0)
(5.30685 -0.216394 0)
(5.31316 -0.207198 0)
(5.31999 -0.197645 0)
(5.32707 -0.187759 0)
(5.33427 -0.177496 0)
(5.34138 -0.166773 0)
(5.34939 -0.155505 0)
(5.35368 -0.143525 0)
(6.08167 -0.0613931 0)
(6.0441 -0.144165 0)
(5.99713 -0.189308 0)
(5.95492 -0.216143 0)
(5.92003 -0.231223 0)
(5.89152 -0.237592 0)
(5.86878 -0.238304 0)
(5.85094 -0.23545 0)
(5.83704 -0.230264 0)
(5.82627 -0.223542 0)
(5.81795 -0.215805 0)
(5.81155 -0.207368 0)
(5.80665 -0.198407 0)
(5.80293 -0.188996 0)
(5.80022 -0.179152 0)
(5.79826 -0.168856 0)
(5.798 -0.158123 0)
(5.79435 -0.146918 0)
(6.65461 -0.050601 0)
(6.62055 -0.126189 0)
(6.57304 -0.170559 0)
(6.52476 -0.197735 0)
(6.48111 -0.214186 0)
(6.44228 -0.222435 0)
(6.40811 -0.22498 0)
(6.37836 -0.223791 0)
(6.35257 -0.220088 0)
(6.33019 -0.21465 0)
(6.31074 -0.208007 0)
(6.29377 -0.200501 0)
(6.27893 -0.192341 0)
(6.26592 -0.183641 0)
(6.25457 -0.17446 0)
(6.24457 -0.164834 0)
(6.23688 -0.154816 0)
(6.22603 -0.144571 0)
(7.20973 -0.0406532 0)
(7.18016 -0.107375 0)
(7.13446 -0.149579 0)
(7.08341 -0.176099 0)
(7.03443 -0.192927 0)
(6.98878 -0.202295 0)
(6.94656 -0.206164 0)
(6.90793 -0.206306 0)
(6.87284 -0.203895 0)
(6.84109 -0.199672 0)
(6.81237 -0.194141 0)
(6.7864 -0.187645 0)
(6.76292 -0.18041 0)
(6.74169 -0.172575 0)
(6.72257 -0.16423 0)
(6.70526 -0.155449 0)
(6.69067 -0.146297 0)
(6.6732 -0.137155 0)
(7.81811 -0.0310638 0)
(7.79338 -0.0861087 0)
(7.75172 -0.123813 0)
(7.70082 -0.148259 0)
(7.64924 -0.164285 0)
(7.59951 -0.173906 0)
(7.55195 -0.178547 0)
(7.50693 -0.179653 0)
(7.46475 -0.178307 0)
(7.42548 -0.175198 0)
(7.38905 -0.170784 0)
(7.35533 -0.165388 0)
(7.32419 -0.15923 0)
(7.29548 -0.152462 0)
(7.26914 -0.14519 0)
(7.24489 -0.13751 0)
(7.22359 -0.129509 0)
(7.19975 -0.121653 0)
(8.45855 -0.0222895 0)
(8.43893 -0.0637463 0)
(8.40342 -0.094218 0)
(8.35608 -0.114624 0)
(8.30534 -0.128256 0)
(8.25481 -0.136853 0)
(8.20523 -0.141384 0)
(8.1571 -0.142849 0)
(8.11096 -0.142124 0)
(8.06714 -0.139812 0)
(8.02573 -0.136312 0)
(7.98676 -0.131904 0)
(7.95021 -0.126796 0)
(7.91602 -0.121137 0)
(7.88418 -0.115037 0)
(7.8545 -0.108598 0)
(7.82778 -0.101914 0)
(7.79891 -0.0954725 0)
(9.08866 -0.0143646 0)
(9.07382 -0.0417165 0)
(9.04561 -0.0628126 0)
(9.00496 -0.0771455 0)
(8.95895 -0.0865609 0)
(8.91166 -0.0924289 0)
(8.86417 -0.0954408 0)
(8.81704 -0.0962075 0)
(8.77093 -0.0953225 0)
(8.7264 -0.0932324 0)
(8.68374 -0.0902338 0)
(8.64307 -0.0865361 0)
(8.60447 -0.082299 0)
(8.56797 -0.0776462 0)
(8.53361 -0.0726782 0)
(8.50126 -0.0674902 0)
(8.47164 -0.0621508 0)
(8.44041 -0.0571679 0)
(9.63295 -0.00706636 0)
(9.6217 -0.0206868 0)
(9.59987 -0.0313646 0)
(9.56659 -0.0383358 0)
(9.52746 -0.0423615 0)
(9.48644 -0.044273 0)
(9.44471 -0.0445207 0)
(9.40274 -0.0434431 0)
(9.36111 -0.0413827 0)
(9.32039 -0.0386228 0)
(9.28094 -0.0353584 0)
(9.24298 -0.0317266 0)
(9.20661 -0.0278347 0)
(9.17193 -0.0237734 0)
(9.13901 -0.0196156 0)
(9.10777 -0.0154417 0)
(9.07877 -0.0112661 0)
(9.04901 -0.0075834 0)
(9.96404 0.000114619 0)
(9.95459 0.000184663 0)
(9.93649 0.000657998 0)
(9.90812 0.00191752 0)
(9.87423 0.00387553 0)
(9.83859 0.00634083 0)
(9.80247 0.00920917 0)
(9.76623 0.0124091 0)
(9.73031 0.0158565 0)
(9.69521 0.019471 0)
(9.66125 0.0231899 0)
(9.62858 0.0269637 0)
(9.59726 0.0307465 0)
(9.56734 0.0344897 0)
(9.53884 0.0381512 0)
(9.51172 0.0416667 0)
(9.48615 0.0450604 0)
(9.46112 0.0479159 0)
(9.87499 0.00748082 0)
(9.86688 0.0218201 0)
(9.84987 0.0342477 0)
(9.8225 0.0444612 0)
(9.7896 0.0528848 0)
(9.75499 0.0600011 0)
(9.71995 0.0661072 0)
(9.68486 0.0714182 0)
(9.65018 0.0761309 0)
(9.61642 0.0804043 0)
(9.58388 0.084346 0)
(9.55271 0.088024 0)
(9.52298 0.0914804 0)
(9.49469 0.094738 0)
(9.46784 0.0978053 0)
(9.44243 0.100663 0)
(9.41818 0.103349 0)
(9.39615 0.10558 0)
(9.28437 0.0159253 0)
(9.27065 0.046218 0)
(9.24579 0.0712156 0)
(9.20982 0.0904505 0)
(9.16898 0.105282 0)
(9.12728 0.116913 0)
(9.08579 0.126025 0)
(9.04492 0.133159 0)
(9.00521 0.138829 0)
(8.96716 0.14344 0)
(8.93102 0.147268 0)
(8.89688 0.150505 0)
(8.86474 0.153289 0)
(8.83458 0.155719 0)
(8.8063 0.157867 0)
(8.7799 0.159779 0)
(8.75487 0.161507 0)
(8.73323 0.162902 0)
(8.47101 0.0260964 0)
(8.45236 0.0738262 0)
(8.41971 0.110377 0)
(8.37626 0.136922 0)
(8.32997 0.156581 0)
(8.28456 0.171201 0)
(8.24072 0.181815 0)
(8.19879 0.189382 0)
(8.15924 0.19476 0)
(8.12236 0.198577 0)
(8.0882 0.201258 0)
(8.05668 0.20311 0)
(8.02768 0.204362 0)
(8.00108 0.205187 0)
(7.97668 0.205706 0)
(7.9544 0.20602 0)
(7.9337 0.206185 0)
(7.91662 0.206159 0)
(7.51239 0.0385287 0)
(7.4866 0.104519 0)
(7.44645 0.150253 0)
(7.39955 0.181391 0)
(7.35395 0.203377 0)
(7.31183 0.218512 0)
(7.27317 0.22832 0)
(7.23806 0.234343 0)
(7.20659 0.237791 0)
(7.17867 0.239467 0)
(7.15401 0.239911 0)
(7.13232 0.239515 0)
(7.11333 0.238561 0)
(7.09674 0.237254 0)
(7.08228 0.235736 0)
(7.06977 0.234114 0)
(7.05868 0.232443 0)
(7.05076 0.230748 0)
(6.48931 0.0542293 0)
(6.45655 0.136915 0)
(6.41295 0.186971 0)
(6.37064 0.218581 0)
(6.33489 0.239424 0)
(6.30527 0.252078 0)
(6.28106 0.258786 0)
(6.26183 0.261627 0)
(6.24702 0.261989 0)
(6.23595 0.260727 0)
(6.22801 0.258421 0)
(6.22267 0.255484 0)
(6.2195 0.2522 0)
(6.21813 0.248761 0)
(6.21823 0.245294 0)
(6.21957 0.24189 0)
(6.22169 0.238592 0)
(6.22602 0.235458 0)
(5.45712 0.073393 0)
(5.41829 0.1665 0)
(5.37868 0.214133 0)
(5.35277 0.241963 0)
(5.33864 0.258357 0)
(5.33247 0.266118 0)
(5.33271 0.268297 0)
(5.33809 0.267223 0)
(5.34723 0.264211 0)
(5.35905 0.260046 0)
(5.37277 0.255259 0)
(5.3878 0.250204 0)
(5.40372 0.245106 0)
(5.42016 0.240104 0)
(5.43688 0.235284 0)
(5.45371 0.230696 0)
(5.47032 0.226365 0)
(5.48784 0.222353 0)
(4.45282 0.0947798 0)
(4.41206 0.187418 0)
(4.39048 0.225946 0)
(4.3966 0.24641 0)
(4.41649 0.255938 0)
(4.44335 0.257844 0)
(4.47527 0.255598 0)
(4.51036 0.251214 0)
(4.54691 0.245672 0)
(4.58389 0.239569 0)
(4.62067 0.2333 0)
(4.65682 0.227109 0)
(4.69208 0.221134 0)
(4.72625 0.215452 0)
(4.75925 0.210101 0)
(4.79103 0.205097 0)
(4.82144 0.20044 0)
(4.85142 0.196195 0)
(3.50293 0.114454 0)
(3.47301 0.192926 0)
(3.48913 0.217656 0)
(3.5412 0.228899 0)
(3.60261 0.231476 0)
(3.6665 0.228845 0)
(3.73179 0.223842 0)
(3.79675 0.217734 0)
(3.85999 0.211126 0)
(3.92087 0.204413 0)
(3.97911 0.197852 0)
(4.03461 0.191582 0)
(4.08733 0.185673 0)
(4.13733 0.180154 0)
(4.18469 0.175027 0)
(4.22956 0.170283 0)
(4.27194 0.165908 0)
(4.31267 0.161976 0)
(2.62982 0.122984 0)
(2.63207 0.176392 0)
(2.70178 0.187976 0)
(2.8047 0.191093 0)
(2.90735 0.189122 0)
(3.00606 0.184606 0)
(3.10163 0.178934 0)
(3.19307 0.172751 0)
(3.27956 0.166459 0)
(3.36095 0.160311 0)
(3.43739 0.154454 0)
(3.5091 0.14896 0)
(3.57632 0.143855 0)
(3.63934 0.139139 0)
(3.69844 0.134796 0)
(3.75393 0.130804 0)
(3.80598 0.127141 0)
(3.85535 0.123901 0)
(1.85178 0.104826 0)
(1.90639 0.134441 0)
(2.03033 0.141902 0)
(2.17814 0.14052 0)
(2.31588 0.137045 0)
(2.44344 0.13293 0)
(2.56369 0.128112 0)
(2.67652 0.123001 0)
(2.78159 0.117955 0)
(2.87921 0.113129 0)
(2.96989 0.108594 0)
(3.05416 0.104388 0)
(3.13252 0.100514 0)
(3.20547 0.0969597 0)
(3.27346 0.0937044 0)
(3.33694 0.0907246 0)
(3.39622 0.0879849 0)
(3.45204 0.0855923 0)
(1.17533 0.0416902 0)
(1.28238 0.0661071 0)
(1.43869 0.0889894 0)
(1.6166 0.0891807 0)
(1.78036 0.0862347 0)
(1.92918 0.0833367 0)
(2.06745 0.0798399 0)
(2.19587 0.0761243 0)
(2.31436 0.072535 0)
(2.42349 0.0691566 0)
(2.52412 0.0660142 0)
(2.61706 0.0631236 0)
(2.703 0.0604812 0)
(2.78261 0.0580707 0)
(2.85647 0.0558718 0)
(2.92515 0.0538675 0)
(2.98906 0.051996 0)
(3.04893 0.0503567 0)
(0.469484 0.226529 0)
(0.642365 0.0691637 0)
(0.788943 0.0480269 0)
(0.972464 0.044412 0)
(1.14914 0.0429741 0)
(1.30918 0.0416817 0)
(1.4569 0.0396491 0)
(1.59328 0.037334 0)
(1.71813 0.0351161 0)
(1.83219 0.0330682 0)
(1.93663 0.031186 0)
(2.0325 0.0294674 0)
(2.12064 0.027906 0)
(2.20186 0.0264887 0)
(2.27685 0.0251998 0)
(2.34625 0.0240319 0)
(2.41058 0.0229321 0)
(2.47013 0.0219792 0)
(0.0131607 -0.0258095 -2.62185e-20)
(0.0393821 -0.0417805 2.53798e-20)
(0.0653167 -0.0421237 0)
(0.0860673 -0.034473 0)
(0.0984132 -0.0228637 0)
(0.102125 -0.00984062 -2.37029e-20)
(0.0966012 0.00244481 0)
(0.0840345 0.0122855 0)
(0.0661166 0.0190787 0)
(0.0441594 0.0232357 0)
(0.0191164 0.0256979 2.35187e-20)
(-0.00850106 0.0275049 0)
(-0.0386309 0.0295498 0)
(-0.0715399 0.0322732 0)
(-0.107486 0.0356471 0)
(-0.14659 0.0393995 2.14232e-20)
(-0.1888 0.0432139 0)
(-0.233906 0.0468201 0)
(-0.28157 0.0500139 0)
(-0.331372 0.0526557 0)
(-0.382839 0.0546665 0)
(-0.435489 0.0560214 0)
(-0.488851 0.0567416 0)
(-0.542489 0.0568859 1.79734e-20)
(-0.595997 0.0565394 -1.76433e-20)
(-0.649027 0.0558017 1.73349e-20)
(-0.701385 0.0547656 1.70479e-20)
(-0.752842 0.0534893 0)
(-0.803244 0.0520352 0)
(-0.852475 0.0504599 -1.62987e-20)
(-0.900459 0.0488117 -1.60804e-20)
(-0.94715 0.0471304 0)
(-0.99253 0.0454474 0)
(-1.0366 0.0437859 -1.54973e-20)
(-1.07937 0.0421625 0)
(-1.12087 0.0405879 0)
(-1.16114 0.039068 1.49932e-20)
(-1.2002 0.0376052 0)
(-1.23809 0.0361991 1.46865e-20)
(-1.27485 0.0348475 2.90787e-20)
(-1.31051 0.0335467 0)
(-1.3451 0.0322922 0)
(-1.37864 0.0310794 0)
(-1.41116 0.0299031 0)
(-1.44267 0.0287587 0)
(-1.47318 0.0276416 2.74099e-20)
(-1.50271 0.0265476 2.71387e-20)
(-1.53125 0.025473 2.68675e-20)
(-1.55882 0.0244144 0)
(-1.5854 0.0233689 -2.63222e-20)
(-1.61101 0.0223342 0)
(-1.63563 0.0213081 2.57693e-20)
(-1.65926 0.0202889 2.54887e-20)
(-1.68188 0.0192752 0)
(-1.70349 0.018266 0)
(-1.72409 0.0172601 0)
(-1.74365 0.0162567 2.43282e-20)
(-1.76216 0.015255 0)
(-1.77962 0.014254 0)
(-1.79601 0.0132527 0)
(-1.81132 0.0122495 0)
(-1.82554 0.0112429 0)
(-1.83864 0.0102304 0)
(-1.85063 0.00920958 0)
(-1.86146 0.00817742 0)
(-1.87114 0.00713058 -2.13998e-20)
(-1.87963 0.00606559 0)
(-1.88691 0.00498014 0)
(-1.89294 0.00387698 2.03036e-20)
(-1.8977 0.00276986 1.99241e-20)
(-1.90112 0.00168463 0)
(-1.90315 0.000648789 -1.91431e-20)
(-1.9038 -0.000296399 1.87374e-20)
(-1.90344 -0.00110379 0)
(-1.90199 -0.00185714 -1.79009e-20)
(-1.89949 -0.00258175 0)
(-1.89595 -0.00328847 0)
(-1.89137 -0.00398138 1.65824e-20)
(-1.88578 -0.00466212 0)
(-1.87915 -0.00533122 -1.56607e-20)
(-1.87151 -0.00598873 0)
(-1.86285 -0.0066345 1.47051e-20)
(-1.85318 -0.00726831 1.42149e-20)
(-1.84251 -0.00788989 1.37165e-20)
(-1.83084 -0.00849897 2.642e-20)
(-1.81817 -0.0090953 -2.53911e-20)
(-1.80452 -0.00967863 0)
(-1.78989 -0.0102487 0)
(-1.7743 -0.0108053 0)
(-1.75775 -0.0113482 -2.11234e-20)
(-1.74026 -0.0118771 -2.00202e-20)
(-1.72183 -0.0123919 1.89035e-20)
(-1.70248 -0.0128923 0)
(-1.68222 -0.0133781 -1.66309e-20)
(-1.66106 -0.0138491 -1.54763e-20)
(-1.63902 -0.0143051 -1.431e-20)
(-1.61611 -0.0147457 0)
(-1.59236 -0.0151709 0)
(-1.56777 -0.0155803 0)
(-1.54236 -0.0159738 -9.54187e-21)
(-1.51615 -0.0163511 0)
(-1.48917 -0.0167118 0)
(-1.46143 -0.0170559 5.87649e-21)
(-1.43294 -0.017383 0)
(-1.40375 -0.0176928 0)
(-1.37385 -0.0179851 2.15726e-21)
(-1.34329 -0.0182597 0)
(-1.31208 -0.0185163 0)
(-1.28026 -0.0187547 1.59314e-21)
(-1.24783 -0.0189747 2.84602e-21)
(-1.21484 -0.0191761 0)
(-1.18131 -0.0193588 -5.35024e-21)
(-1.14727 -0.0195226 0)
(-1.11275 -0.0196675 7.84599e-21)
(-1.07777 -0.0197935 0)
(-1.04238 -0.0199006 1.03254e-20)
(-1.00659 -0.019989 1.15565e-20)
(-0.970446 -0.0200588 0)
(-0.933973 -0.0201102 0)
(-0.897203 -0.0201437 0)
(-0.860168 -0.0201597 0)
(-0.822899 -0.0201588 0)
(-0.785427 -0.0201416 0)
(-0.74778 -0.0201089 0)
(-0.709989 -0.0200617 2.1074e-20)
(-0.672079 -0.0200011 -2.22091e-20)
(-0.634078 -0.0199281 0)
(-0.596009 -0.0198442 0)
(-0.557894 -0.0197508 0)
(-0.519752 -0.0196495 0)
(-0.481601 -0.019542 -5.5308e-20)
(-0.443454 -0.0194302 0)
(-0.405322 -0.019316 5.94327e-20)
(-0.367211 -0.0192015 -6.14437e-20)
(-0.329124 -0.0190888 0)
(-0.291059 -0.0189799 0)
(-0.253013 -0.0188771 0)
(-0.214974 -0.0187825 6.915e-20)
(-0.17693 -0.0186965 7.09954e-20)
(-0.138863 -0.0186186 0)
(-0.10075 -0.0185493 7.45974e-20)
(-0.0625644 -0.0184909 7.63575e-20)
(-0.024274 -0.0184403 -7.80934e-20)
(0.014168 -0.0183688 0)
(0.052761 -0.0182607 0)
(0.091583 -0.0181626 -8.10343e-20)
(0.130712 -0.0181047 0)
(0.17023 -0.0180929 0)
(0.210231 -0.0181261 0)
(0.250816 -0.0182027 0)
(0.292087 -0.0183211 8.4219e-20)
(0.334151 -0.0184802 8.4767e-20)
(0.377118 -0.0186788 0)
(0.421099 -0.0189156 8.57848e-20)
(0.466207 -0.0191891 0)
(0.512556 -0.0194972 0)
(0.56026 -0.0198377 8.71263e-20)
(0.609431 -0.0202077 0)
(0.660179 -0.0206038 8.78984e-20)
(0.712607 -0.0210219 0)
(0.766815 -0.0214573 0)
(0.822889 -0.0219046 8.88605e-20)
(0.880907 -0.0223575 0)
(0.940929 -0.0228089 8.93554e-20)
(1.003 -0.0232506 0)
(1.06714 -0.0236735 0)
(1.13334 -0.024067 0)
(1.20155 -0.0244189 -8.99285e-20)
(1.27171 -0.024715 0)
(1.34366 -0.0249385 8.99817e-20)
(1.41723 -0.0250685 0)
(1.49213 -0.0250783 0)
(1.56796 -0.0249308 0)
(1.64418 -0.024574 0)
(1.72003 -0.0239097 0)
(1.79402 -0.0228122 0)
(1.86494 -0.0207405 0)
(1.92446 -0.0173329 -1.79392e-19)
(1.97997 -0.00609562 0)
(1.94891 0.015776 0)
(0.0147813 -0.0853821 7.67871e-20)
(0.0308005 -0.0864069 -7.15715e-20)
(0.0348871 -0.0621437 0)
(0.0318385 -0.0355721 4.20687e-20)
(0.0229262 -0.00983282 0)
(0.00914839 0.0139454 1.98788e-20)
(-0.00849041 0.0347561 -3.89017e-20)
(-0.0304441 0.0519834 -3.80448e-20)
(-0.0567626 0.0657563 0)
(-0.0874229 0.0768188 -3.64154e-20)
(-0.122316 0.0861644 -1.78407e-20)
(-0.161198 0.0946738 0)
(-0.203689 0.102905 0)
(-0.249312 0.111032 0)
(-0.297538 0.118902 0)
(-0.347816 0.126199 -1.58047e-20)
(-0.39959 0.132591 0)
(-0.452315 0.13782 3.00031e-20)
(-0.50547 0.141727 0)
(-0.558583 0.144253 0)
(-0.611241 0.145426 -2.8028e-20)
(-0.663104 0.14534 0)
(-0.713906 0.144141 2.69093e-20)
(-0.763452 0.142001 -1.32419e-20)
(-0.81161 0.139111 1.30077e-20)
(-0.858296 0.135656 -1.27902e-20)
(-0.903467 0.131794 -1.2588e-20)
(-0.947114 0.127657 0)
(-0.98926 0.123357 0)
(-1.02995 0.118986 1.20583e-20)
(-1.06923 0.114619 -1.18297e-20)
(-1.10716 0.110312 0)
(-1.14382 0.106104 0)
(-1.17925 0.102024 1.14839e-20)
(-1.21352 0.0980857 0)
(-1.24668 0.0942978 0)
(-1.27878 0.0906602 -1.11164e-20)
(-1.30986 0.0871685 0)
(-1.33995 0.0838148 1.08126e-20)
(-1.36909 0.0805891 -2.15617e-20)
(-1.3973 0.0774799 0)
(-1.4246 0.0744756 0)
(-1.45101 0.0715645 -4.17043e-20)
(-1.47653 0.0687352 -4.12921e-20)
(-1.50118 0.0659775 -4.08824e-20)
(-1.52496 0.0632815 2.01673e-20)
(-1.54787 0.0606387 -2.01006e-20)
(-1.56991 0.0580415 -5.95507e-20)
(-1.59108 0.0554833 3.92462e-20)
(-1.61138 0.0529585 1.94773e-20)
(-1.6308 0.0504624 0)
(-1.64934 0.047991 -1.90533e-20)
(-1.66698 0.0455414 1.87329e-20)
(-1.68372 0.0431111 0)
(-1.69955 0.0406983 0)
(-1.71447 0.0383017 0)
(-1.72846 0.0359202 -1.79446e-20)
(-1.74151 0.0335534 0)
(-1.75363 0.0312007 3.48865e-20)
(-1.76479 0.0288619 0)
(-1.775 0.0265368 3.39294e-20)
(-1.78424 0.0242249 0)
(-1.79251 0.0219258 -3.29361e-20)
(-1.79981 0.0196387 0)
(-1.80613 0.0173629 3.1904e-20)
(-1.81147 0.0150973 -1.56808e-20)
(-1.81585 0.0128407 0)
(-1.81926 0.0105917 -3.02797e-20)
(-1.82174 0.00834903 -1.48523e-20)
(-1.82332 0.00612 -1.4562e-20)
(-1.82406 0.00393237 0)
(-1.82404 0.00182906 -1.39966e-20)
(-1.82326 -0.000177008 -1.36521e-20)
(-1.82148 -0.00207536 0)
(-1.81872 -0.00390853 1.30159e-20)
(-1.81496 -0.00569284 -2.54426e-20)
(-1.8102 -0.00743825 0)
(-1.80442 -0.00914867 -1.202e-20)
(-1.79764 -0.0108256 0)
(-1.78984 -0.0124691 3.40813e-20)
(-1.78104 -0.0140789 0)
(-1.77123 -0.0156545 -3.19581e-20)
(-1.76043 -0.017195 -1.02513e-20)
(-1.74863 -0.0186998 1.00082e-20)
(-1.73584 -0.0201681 1.92823e-20)
(-1.72207 -0.0215994 -1.85381e-20)
(-1.70732 -0.0229931 0)
(-1.69161 -0.0243486 0)
(-1.67494 -0.0256653 0)
(-1.65732 -0.0269428 4.57197e-20)
(-1.63876 -0.0281808 1.43233e-20)
(-1.61927 -0.0293786 -1.35112e-20)
(-1.59887 -0.0305361 0)
(-1.57756 -0.0316527 -1.22523e-20)
(-1.55537 -0.0327281 1.10299e-20)
(-1.53229 -0.0337619 1.01892e-20)
(-1.50836 -0.0347537 0)
(-1.48358 -0.0357033 0)
(-1.45797 -0.0366102 0)
(-1.43154 -0.0374741 6.76932e-21)
(-1.40432 -0.0382948 0)
(-1.37633 -0.0390717 -1.05339e-20)
(-1.34757 -0.0398047 -1.29526e-20)
(-1.31808 -0.0404934 7.0492e-21)
(-1.28787 -0.0411375 0)
(-1.25697 -0.0417366 2.02262e-21)
(-1.2254 -0.0422904 0)
(-1.19318 -0.0427989 3.11504e-23)
(-1.16034 -0.0432616 6.04964e-22)
(-1.12691 -0.0436786 1.48122e-21)
(-1.0929 -0.0440497 0)
(-1.05835 -0.0443749 1.07506e-20)
(-1.02329 -0.0446542 -8.73788e-21)
(-0.987744 -0.0448878 -5.50692e-21)
(-0.951741 -0.045076 0)
(-0.915311 -0.0452192 -7.23902e-21)
(-0.878486 -0.045318 -2.37556e-20)
(-0.841296 -0.045373 0)
(-0.803773 -0.0453852 -1.90595e-20)
(-0.765947 -0.0453555 -2.07421e-20)
(-0.727849 -0.0452852 -2.24109e-20)
(-0.68951 -0.0451758 0)
(-0.65096 -0.045029 0)
(-0.612229 -0.0448468 0)
(-0.573346 -0.0446312 1.42011e-20)
(-0.534337 -0.0443848 1.5519e-20)
(-0.49523 -0.0441102 0)
(-0.456047 -0.0438104 3.36284e-20)
(-0.416811 -0.0434885 3.51551e-20)
(-0.377543 -0.0431481 0)
(-0.338259 -0.0427928 3.8648e-20)
(-0.298973 -0.0424265 7.92185e-20)
(-0.259697 -0.0420534 -4.15436e-20)
(-0.220439 -0.0416777 -4.19836e-20)
(-0.181201 -0.0413037 0)
(-0.141983 -0.0409358 0)
(-0.102781 -0.0405776 0)
(-0.063586 -0.0402332 -4.8408e-20)
(-0.0243833 -0.0399062 4.87891e-20)
(0.0148452 -0.0395983 1.00757e-19)
(0.0541223 -0.0393127 -5.172e-20)
(0.0934773 -0.0390557 5.1642e-20)
(0.132948 -0.0388356 5.33254e-20)
(0.17258 -0.0386568 0)
(0.212419 -0.0385136 0)
(0.25254 -0.0384179 -5.47629e-20)
(0.293011 -0.0383917 0)
(0.333909 -0.0384466 0)
(0.375316 -0.038587 1.14695e-19)
(0.417326 -0.0388146 0)
(0.460035 -0.0391302 5.82675e-20)
(0.503548 -0.0395338 -5.97474e-20)
(0.547972 -0.0400254 0)
(0.593419 -0.040604 6.01403e-20)
(0.640001 -0.0412681 0)
(0.687835 -0.0420154 0)
(0.737036 -0.0428424 -6.27211e-20)
(0.787718 -0.0437446 1.25674e-19)
(0.839994 -0.0447159 -6.38037e-20)
(0.89397 -0.0457491 0)
(0.949748 -0.046835 0)
(1.00742 -0.0479629 6.4406e-20)
(1.06707 -0.04912 0)
(1.12875 -0.0502912 6.52989e-20)
(1.19253 -0.0514589 0)
(1.25842 -0.0526027 0)
(1.32642 -0.0536987 0)
(1.3965 -0.0547188 6.77681e-20)
(1.46859 -0.0556297 0)
(1.54256 -0.0563911 -6.83966e-20)
(1.61822 -0.0569529 0)
(1.69532 -0.0572502 0)
(1.77348 -0.057193 1.37429e-19)
(1.85218 -0.056652 -1.37908e-19)
(1.93072 -0.0554033 0)
(2.00787 -0.0530932 0)
(2.0823 -0.0487165 0)
(2.14983 -0.040873 4.2333e-19)
(2.21064 -0.021622 0)
(2.25217 0.0179822 -2.90654e-19)
(0.00366886 -0.113179 -1.50721e-22)
(0.000115876 -0.0816871 9.12744e-20)
(-0.0127026 -0.0418495 0)
(-0.0289252 -0.0056544 -7.47946e-20)
(-0.0484948 0.0272092 0)
(-0.0710123 0.057028 0)
(-0.0963192 0.0839014 4.888e-23)
(-0.124491 0.107739 3.14864e-20)
(-0.155679 0.128574 3.06608e-20)
(-0.189975 0.146728 2.99657e-20)
(-0.227308 0.162705 0)
(-0.267394 0.176981 0)
(-0.309761 0.189842 -2.77572e-20)
(-0.353827 0.201327 -5.41061e-20)
(-0.398981 0.211294 5.27314e-20)
(-0.444659 0.219527 0)
(-0.490371 0.225837 5.01152e-20)
(-0.535723 0.23012 -2.44422e-20)
(-0.580412 0.232376 0)
(-0.624224 0.232707 4.65981e-20)
(-0.667018 0.23129 2.27605e-20)
(-0.708718 0.228356 -4.45498e-20)
(-0.749294 0.224161 -2.17955e-20)
(-0.788751 0.218969 0)
(-0.827115 0.213032 4.1908e-20)
(-0.86442 0.206579 4.1132e-20)
(-0.900705 0.199804 0)
(-0.936014 0.192867 3.97168e-20)
(-0.970389 0.185894 0)
(-1.00387 0.178984 3.84611e-20)
(-1.0365 0.17221 1.89629e-20)
(-1.06831 0.165621 0)
(-1.09931 0.159249 0)
(-1.12955 0.153111 0)
(-1.15904 0.147211 0)
(-1.18779 0.141546 0)
(-1.21581 0.136107 0)
(-1.24311 0.130878 3.4533e-20)
(-1.26971 0.125845 -5.12256e-20)
(-1.29559 0.120989 0)
(-1.32077 0.116291 0)
(-1.34524 0.111735 0)
(-1.36901 0.107303 8.84162e-23)
(-1.39206 0.10298 3.22908e-20)
(-1.41439 0.0987516 6.37597e-20)
(-1.43599 0.0946043 -6.30319e-20)
(-1.45686 0.0905273 -3.1112e-20)
(-1.47699 0.0865106 3.08344e-20)
(-1.49636 0.0825459 -7.95488e-23)
(-1.51498 0.0786261 3.00343e-20)
(-1.53281 0.0747455 0)
(-1.54986 0.0708994 2.93131e-20)
(-1.56611 0.0670842 -6.68302e-23)
(-1.58156 0.0632972 0)
(-1.59618 0.0595367 0)
(-1.60996 0.0558013 -2.78432e-20)
(-1.6229 0.0520905 0)
(-1.63498 0.0484043 0)
(-1.6462 0.0447429 2.66609e-20)
(-1.65654 0.0411069 5.26241e-20)
(-1.66599 0.0374974 -2.59481e-20)
(-1.67454 0.0339156 0)
(-1.6822 0.030363 2.5131e-20)
(-1.68895 0.0268416 0)
(-1.69479 0.0233539 2.42697e-20)
(-1.69972 0.0199033 2.386e-20)
(-1.70375 0.0164945 -4.68487e-20)
(-1.70687 0.0131343 -2.29932e-20)
(-1.7091 0.00983118 0)
(-1.71043 0.00659561 4.41852e-20)
(-1.71087 0.00343888 0)
(-1.71041 0.000371766 6.34521e-20)
(-1.70903 -0.0026185 4.13633e-20)
(-1.70669 -0.00556007 4.03934e-20)
(-1.70337 -0.00845171 -3.94096e-20)
(-1.69907 -0.011293 5.75644e-20)
(-1.6938 -0.0140834 0)
(-1.68755 -0.0168221 0)
(-1.68031 -0.019508 -3.5331e-20)
(-1.6721 -0.0221401 -5.13377e-20)
(-1.6629 -0.0247171 0)
(-1.65273 -0.0272376 1.59745e-20)
(-1.64159 -0.0297005 0)
(-1.62947 -0.0321044 -4.4776e-20)
(-1.6164 -0.0344483 2.06799e-22)
(-1.60237 -0.036731 -2.17392e-22)
(-1.58738 -0.0389517 2.65081e-20)
(-1.57146 -0.0411095 0)
(-1.5546 -0.0432034 -2.41754e-20)
(-1.53681 -0.0452329 2.5786e-22)
(-1.5181 -0.0471972 0)
(-1.49849 -0.0490957 0)
(-1.47799 -0.0509277 0)
(-1.4566 -0.0526927 1.78611e-20)
(-1.43434 -0.05439 0)
(-1.41122 -0.0560192 0)
(-1.38726 -0.0575796 0)
(-1.36246 -0.0590709 0)
(-1.33685 -0.0604923 0)
(-1.31045 -0.0618436 1.06543e-20)
(-1.28326 -0.0631241 0)
(-1.25531 -0.0643334 7.75269e-21)
(-1.22662 -0.0654712 6.46776e-21)
(-1.1972 -0.0665368 -5.18047e-21)
(-1.16708 -0.0675299 0)
(-1.13627 -0.06845 -2.60179e-21)
(-1.10481 -0.0692967 0)
(-1.0727 -0.0700699 -2.28297e-23)
(-1.03998 -0.0707692 -1.26479e-21)
(-1.00668 -0.0713946 -6.8632e-21)
(-0.972805 -0.071946 0)
(-0.938396 -0.0724235 -1.45333e-20)
(-0.903477 -0.0728272 -5.58091e-21)
(-0.868076 -0.0731574 0)
(-0.832221 -0.0734149 -1.70187e-20)
(-0.795942 -0.0736003 -1.95263e-20)
(-0.759267 -0.0737147 3.3436e-20)
(-0.722227 -0.0737591 0)
(-0.684852 -0.073735 1.38851e-20)
(-0.647172 -0.0736443 1.51048e-20)
(-0.609217 -0.0734891 4.81291e-20)
(-0.571018 -0.0732717 0)
(-0.532603 -0.0729949 0)
(-0.494002 -0.0726618 0)
(-0.455242 -0.072276 2.02333e-20)
(-0.416351 -0.0718414 0)
(-0.377354 -0.0713621 0)
(-0.338275 -0.070843 -2.4438e-20)
(-0.299136 -0.0702891 -2.55446e-20)
(-0.259957 -0.0697059 0)
(-0.220754 -0.0690991 0)
(-0.181543 -0.0684751 -5.75548e-20)
(-0.142335 -0.0678403 0)
(-0.103138 -0.0672012 6.17185e-20)
(-0.0639552 -0.0665646 6.30138e-20)
(-0.0247873 -0.0659379 0)
(0.01437 -0.0653278 0)
(0.0535247 -0.0647413 -6.84323e-20)
(0.092691 -0.0641849 -7.09834e-22)
(0.131888 -0.0636645 -7.01055e-22)
(0.171138 -0.0631868 0)
(0.210474 -0.0627603 -1.49064e-19)
(0.249936 -0.0623965 0)
(0.289572 -0.0621107 0)
(0.329446 -0.0619131 0)
(0.369621 -0.0618107 8.01374e-20)
(0.410162 -0.0618174 0)
(0.451139 -0.061945 -1.63998e-19)
(0.492627 -0.0622014 -8.3892e-20)
(0.534711 -0.0625913 0)
(0.577486 -0.063118 -8.62828e-20)
(0.621049 -0.0637834 0)
(0.665504 -0.0645882 0)
(0.710959 -0.0655322 -2.67801e-19)
(0.757525 -0.0666138 1.80289e-19)
(0.805314 -0.0678297 0)
(0.85444 -0.0691752 1.84588e-19)
(0.905015 -0.0706436 -9.40423e-20)
(0.95715 -0.0722258 0)
(1.01095 -0.0739106 0)
(1.06651 -0.0756842 0)
(1.12394 -0.0775297 -2.92772e-19)
(1.18329 -0.0794271 0)
(1.24466 -0.0813527 -9.9977e-20)
(1.30807 -0.0832788 0)
(1.37356 -0.085173 0)
(1.44112 -0.0869975 0)
(1.51074 -0.0887076 0)
(1.58233 -0.0902504 0)
(1.65577 -0.091562 0)
(1.7309 -0.0925628 -2.10061e-19)
(1.80746 -0.0931504 0)
(1.8851 -0.0931851 -1.07269e-19)
(1.96335 -0.0924659 3.2247e-19)
(2.04156 -0.0906671 0)
(2.11873 -0.087252 0)
(2.19377 -0.0810569 -2.19697e-19)
(2.26413 -0.0701133 -2.2371e-19)
(2.33076 -0.0487042 2.25841e-19)
(2.38727 -0.00687705 2.32935e-19)
(-0.0100901 -0.0927882 -1.48639e-19)
(-0.0275038 -0.0449293 -1.30242e-19)
(-0.0501367 0.000683025 -7.50253e-20)
(-0.074521 0.0411856 -3.35661e-20)
(-0.100692 0.0781133 0)
(-0.128385 0.112058 5.90969e-20)
(-0.157636 0.143145 -2.83569e-20)
(-0.188557 0.171317 0)
(-0.221232 0.196538 -2.67627e-20)
(-0.255652 0.218884 0)
(-0.291672 0.238517 5.07541e-20)
(-0.328999 0.2556 0)
(-0.36724 0.270226 2.40688e-20)
(-0.405955 0.282398 4.68634e-20)
(-0.444731 0.292071 -4.5622e-20)
(-0.483219 0.299203 0)
(-0.521158 0.303807 -4.32621e-20)
(-0.558375 0.305976 0)
(-0.594775 0.305883 0)
(-0.630324 0.303765 -4.00898e-20)
(-0.665032 0.299903 0)
(-0.698935 0.294594 -9.16726e-23)
(-0.732085 0.288136 0)
(-0.764534 0.280808 0)
(-0.796334 0.272863 7.21575e-23)
(-0.827527 0.264518 -3.51458e-20)
(-0.858147 0.255956 -3.45391e-20)
(-0.888219 0.247322 -3.38625e-20)
(-0.917763 0.238731 0)
(-0.946788 0.230268 -6.54731e-20)
(-0.975301 0.221993 0)
(-1.0033 0.213947 -3.17145e-20)
(-1.03079 0.206152 0)
(-1.05777 0.19862 0)
(-1.08422 0.19135 3.03422e-20)
(-1.11013 0.184335 0)
(-1.13551 0.177561 -2.95213e-20)
(-1.16034 0.171012 -2.02994e-23)
(-1.18461 0.16467 5.75378e-20)
(-1.20831 0.158515 -5.67845e-20)
(-1.23143 0.152527 0)
(-1.25396 0.146688 0)
(-1.27588 0.140978 -2.73185e-20)
(-1.29719 0.135382 0)
(-1.31787 0.129884 -2.67163e-20)
(-1.33791 0.124469 2.63905e-20)
(-1.35729 0.119127 2.60675e-20)
(-1.37601 0.113847 0)
(-1.39404 0.108619 -2.54271e-20)
(-1.41137 0.103437 -2.51083e-20)
(-1.42799 0.0982944 4.95262e-20)
(-1.44388 0.0931869 -2.44706e-20)
(-1.45904 0.0881111 -2.41508e-20)
(-1.47343 0.0830646 0)
(-1.48706 0.0780461 0)
(-1.49991 0.0730552 2.31816e-20)
(-1.51196 0.0680921 0)
(-1.5232 0.0631577 0)
(-1.53362 0.0582534 -4.43802e-20)