/*--------------------------------*- C++ -*----------------------------------*\
| =========                 |                                                 |
| \\      /  F ield         | OpenFOAM: The Open Source CFD Toolbox           |
|  \\    /   O peration     | Version:  2412                                  |
|   \\  /    A nd           | Website:  www.openfoam.com                      |
|    \\/     M anipulation  |                                                 |
\*---------------------------------------------------------------------------*/
FoamFile
{
    version     2.0;
    format      ascii;
    arch        "LSB;label=32;scalar=64";
    class       surfaceScalarField;
    location    "0.62";
    object      phi;
}
// * * * * * * * * * * * * * * * * * * * * * * * * * * * * * * * * * * * * * //

dimensions      [0 3 -1 0 0 0 0];

oriented        oriented;

internalField   nonuniform List<scalar> 
799
(
2.66597e-05
5.33194e-05
7.99791e-05
0.000106639
0.000133298
0.000159957
0.000186615
0.000213273
0.000239931
0.000266587
0.000293244
0.000319899
0.000346554
0.000373208
0.000399861
0.000426513
0.000453164
0.000479814
0.000506462
0.00053311
0.000559756
0.000586401
0.000613044
0.000639686
0.000666326
0.000692964
0.000719601
0.000746236
0.000772869
0.000799501
0.00082613
0.000852757
0.000879383
0.000906006
0.000932626
0.000959245
0.000985861
0.00101247
0.00103909
0.00106569
0.0010923
0.0011189
0.0011455
0.0011721
0.0011987
0.00122529
0.00125188
0.00127846
0.00130504
0.00133162
0.0013582
0.00138477
0.00141134
0.00143791
0.00146447
0.00149103
0.00151758
0.00154413
0.00157068
0.00159722
0.00162376
0.00165029
0.00167682
0.00170335
0.00172987
0.00175639
0.0017829
0.00180941
0.00183592
0.00186241
0.00188891
0.0019154
0.00194188
0.00196836
0.00199484
0.00202131
0.00204777
0.00207423
0.00210069
0.00212714
0.00215358
0.00218002
0.00220645
0.00223288
0.0022593
0.00228571
0.00231212
0.00233852
0.00236492
0.00239131
0.0024177
0.00244407
0.00247045
0.00249681
0.00252317
0.00254952
0.00257587
0.00260221
0.00262854
0.00265487
0.00268118
0.00270749
0.0027338
0.0027601
0.00278638
0.00281267
0.00283894
0.00286521
0.00289147
0.00291772
0.00294396
0.0029702
0.00299643
0.00302265
0.00304886
0.00307506
0.00310126
0.00312744
0.00315362
0.00317979
0.00320595
0.00323211
0.00325825
0.00328439
0.00331051
0.00333663
0.00336273
0.00338883
0.00341492
0.003441
0.00346707
0.00349313
0.00351918
0.00354522
0.00357125
0.00359727
0.00362328
0.00364929
0.00367528
0.00370126
0.00372722
0.00375318
0.00377913
0.00380507
0.003831
0.00385691
0.00388282
0.00390871
0.00393459
0.00396046
0.00398632
0.00401217
0.00403801
0.00406383
0.00408964
0.00411544
0.00414123
0.00416701
0.00419277
0.00421852
0.00424426
0.00426999
0.0042957
0.0043214
0.00434709
0.00437277
0.00439843
0.00442408
0.00444971
0.00447533
0.00450094
0.00452654
0.00455212
0.00457768
0.00460324
0.00462877
0.0046543
0.00467981
0.0047053
0.00473078
0.00475625
0.0047817
0.00480713
0.00483256
0.00485796
0.00488335
0.00490872
0.00493408
0.00495942
0.00498475
0.00501006
0.00503536
0.00506063
0.0050859
0.00511114
0.00513637
0.00516158
0.00518678
0.00521195
0.00523711
0.00526225
0.00528738
0.00531249
0.00533758
0.00536265
0.0053877
0.00541273
0.00543775
0.00546275
0.00548773
0.00551269
0.00553763
0.00556255
0.00558745
0.00561233
0.0056372
0.00566204
0.00568686
0.00571167
0.00573645
0.00576121
0.00578595
0.00581067
0.00583537
0.00586005
0.00588471
0.00590934
0.00593395
0.00595855
0.00598311
0.00600766
0.00603219
0.00605669
0.00608117
0.00610562
0.00613005
0.00615446
0.00617885
0.00620321
0.00622755
0.00625186
0.00627615
0.00630041
0.00632465
0.00634887
0.00637305
0.00639722
0.00642136
0.00644547
0.00646955
0.00649361
0.00651764
0.00654165
0.00656563
0.00658958
0.0066135
0.0066374
0.00666127
0.00668511
0.00670892
0.0067327
0.00675645
0.00678018
0.00680387
0.00682753
0.00685117
0.00687477
0.00689835
0.00692189
0.0069454
0.00696888
0.00699233
0.00701575
0.00703913
0.00706248
0.0070858
0.00710909
0.00713234
0.00715556
0.00717874
0.00720189
0.00722501
0.00724809
0.00727113
0.00729414
0.00731711
0.00734005
0.00736295
0.00738581
0.00740864
0.00743142
0.00745417
0.00747689
0.00749956
0.00752219
0.00754478
0.00756734
0.00758985
0.00761232
0.00763475
0.00765714
0.00767949
0.00770179
0.00772405
0.00774627
0.00776845
0.00779058
0.00781266
0.0078347
0.0078567
0.00787865
0.00790055
0.00792241
0.00794422
0.00796598
0.00798769
0.00800935
0.00803096
0.00805253
0.00807404
0.0080955
0.00811691
0.00813827
0.00815957
0.00818082
0.00820202
0.00822316
0.00824425
0.00826528
0.00828626
0.00830717
0.00832803
0.00834883
0.00836958
0.00839026
0.00841088
0.00843144
0.00845194
0.00847237
0.00849275
0.00851305
0.0085333
0.00855348
0.00857359
0.00859363
0.0086136
0.00863351
0.00865334
0.00867311
0.0086928
0.00871242
0.00873197
0.00875144
0.00877083
0.00879015
0.0088094
0.00882856
0.00884764
0.00886664
0.00888556
0.0089044
0.00892315
0.00894182
0.0089604
0.00897889
0.00899729
0.00901561
0.00903383
0.00905196
0.00906999
0.00908793
0.00910576
0.0091235
0.00914114
0.00915868
0.00917612
0.00919345
0.00921067
0.00922778
0.00924478
0.00926167
0.00927845
0.00929511
0.00931165
0.00932807
0.00934437
0.00936055
0.0093766
0.00939252
0.00940831
0.00942397
0.00943949
0.00945487
0.00947011
0.00948515
0.00950072
0.00950875
0.00959632
0.00770123
6.85481e-06
-0.00769424
-0.00959619
-0.00950875
-0.00950071
-0.00948514
-0.0094701
-0.00945485
-0.00943947
-0.00942395
-0.00940829
-0.0093925
-0.00937658
-0.00936053
-0.00934436
-0.00932806
-0.00931164
-0.00929509
-0.00927843
-0.00926166
-0.00924477
-0.00922776
-0.00921065
-0.00919343
-0.0091761
-0.00915866
-0.00914113
-0.00912349
-0.00910575
-0.00908791
-0.00906997
-0.00905194
-0.00903381
-0.00901559
-0.00899727
-0.00897887
-0.00896038
-0.0089418
-0.00892313
-0.00890438
-0.00888554
-0.00886662
-0.00884762
-0.00882854
-0.00880937
-0.00879013
-0.00877081
-0.00875142
-0.00873195
-0.0087124
-0.00869278
-0.00867309
-0.00865332
-0.00863349
-0.00861358
-0.00859361
-0.00857356
-0.00855345
-0.00853328
-0.00851303
-0.00849272
-0.00847235
-0.00845192
-0.00843142
-0.00841086
-0.00839023
-0.00836955
-0.00834881
-0.00832801
-0.00830715
-0.00828623
-0.00826526
-0.00824423
-0.00822314
-0.008202
-0.0081808
-0.00815955
-0.00813824
-0.00811689
-0.00809548
-0.00807402
-0.0080525
-0.00803094
-0.00800933
-0.00798766
-0.00796595
-0.00794419
-0.00792238
-0.00790053
-0.00787863
-0.00785668
-0.00783468
-0.00781264
-0.00779055
-0.00776842
-0.00774625
-0.00772403
-0.00770177
-0.00767946
-0.00765712
-0.00763473
-0.0076123
-0.00758983
-0.00756731
-0.00754476
-0.00752217
-0.00749953
-0.00747686
-0.00745415
-0.0074314
-0.00740861
-0.00738579
-0.00736293
-0.00734003
-0.00731709
-0.00729412
-0.00727111
-0.00724806
-0.00722498
-0.00720187
-0.00717872
-0.00715553
-0.00713232
-0.00710906
-0.00708578
-0.00706246
-0.00703911
-0.00701572
-0.00699231
-0.00696886
-0.00694538
-0.00692187
-0.00689832
-0.00687475
-0.00685115
-0.00682751
-0.00680385
-0.00678015
-0.00675643
-0.00673268
-0.00670889
-0.00668508
-0.00666124
-0.00663738
-0.00661348
-0.00658956
-0.00656561
-0.00654163
-0.00651762
-0.00649359
-0.00646953
-0.00644545
-0.00642133
-0.0063972
-0.00637303
-0.00634885
-0.00632463
-0.00630039
-0.00627613
-0.00625184
-0.00622753
-0.00620319
-0.00617883
-0.00615444
-0.00613003
-0.0061056
-0.00608115
-0.00605667
-0.00603217
-0.00600764
-0.0059831
-0.00595853
-0.00593394
-0.00590932
-0.00588469
-0.00586003
-0.00583535
-0.00581065
-0.00578593
-0.00576119
-0.00573643
-0.00571165
-0.00568685
-0.00566202
-0.00563718
-0.00561232
-0.00558744
-0.00556253
-0.00553761
-0.00551267
-0.00548771
-0.00546273
-0.00543774
-0.00541272
-0.00538768
-0.00536263
-0.00533756
-0.00531247
-0.00528736
-0.00526224
-0.0052371
-0.00521194
-0.00518676
-0.00516157
-0.00513635
-0.00511113
-0.00508588
-0.00506062
-0.00503534
-0.00501005
-0.00498474
-0.00495941
-0.00493407
-0.00490871
-0.00488334
-0.00485795
-0.00483254
-0.00480712
-0.00478169
-0.00475624
-0.00473077
-0.00470529
-0.0046798
-0.00465429
-0.00462876
-0.00460322
-0.00457767
-0.00455211
-0.00452652
-0.00450093
-0.00447532
-0.0044497
-0.00442407
-0.00439842
-0.00437276
-0.00434708
-0.00432139
-0.00429569
-0.00426998
-0.00424425
-0.00421851
-0.00419276
-0.004167
-0.00414122
-0.00411543
-0.00408963
-0.00406382
-0.004038
-0.00401216
-0.00398631
-0.00396045
-0.00393458
-0.0039087
-0.00388281
-0.0038569
-0.00383099
-0.00380506
-0.00377912
-0.00375318
-0.00372722
-0.00370125
-0.00367527
-0.00364928
-0.00362328
-0.00359727
-0.00357125
-0.00354522
-0.00351917
-0.00349312
-0.00346706
-0.00344099
-0.00341491
-0.00338883
-0.00336273
-0.00333662
-0.0033105
-0.00328438
-0.00325824
-0.0032321
-0.00320595
-0.00317979
-0.00315362
-0.00312744
-0.00310125
-0.00307506
-0.00304885
-0.00302264
-0.00299642
-0.00297019
-0.00294396
-0.00291771
-0.00289146
-0.0028652
-0.00283894
-0.00281266
-0.00278638
-0.00276009
-0.00273379
-0.00270749
-0.00268118
-0.00265486
-0.00262854
-0.0026022
-0.00257586
-0.00254952
-0.00252317
-0.00249681
-0.00247044
-0.00244407
-0.00241769
-0.00239131
-0.00236492
-0.00233852
-0.00231212
-0.00228571
-0.00225929
-0.00223287
-0.00220645
-0.00218001
-0.00215358
-0.00212713
-0.00210068
-0.00207423
-0.00204777
-0.00202131
-0.00199484
-0.00196836
-0.00194188
-0.0019154
-0.00188891
-0.00186241
-0.00183591
-0.00180941
-0.0017829
-0.00175639
-0.00172987
-0.00170335
-0.00167682
-0.00165029
-0.00162376
-0.00159722
-0.00157068
-0.00154413
-0.00151758
-0.00149102
-0.00146447
-0.0014379
-0.00141134
-0.00138477
-0.0013582
-0.00133162
-0.00130504
-0.00127846
-0.00125188
-0.00122529
-0.0011987
-0.0011721
-0.0011455
-0.0011189
-0.0010923
-0.00106569
-0.00103908
-0.00101247
-0.00098586
-0.000959244
-0.000932626
-0.000906005
-0.000879382
-0.000852757
-0.00082613
-0.0007995
-0.000772869
-0.000746236
-0.000719601
-0.000692964
-0.000666325
-0.000639685
-0.000613044
-0.0005864
-0.000559756
-0.00053311
-0.000506462
-0.000479814
-0.000453164
-0.000426513
-0.000399861
-0.000373208
-0.000346554
-0.000319899
-0.000293244
-0.000266588
-0.000239931
-0.000213273
-0.000186615
-0.000159957
-0.000133298
-0.000106639
-7.99792e-05
-5.33196e-05
-2.66598e-05
)
;

boundaryField
{
    left
    {
        type            calculated;
        value           uniform 0;
    }
    right
    {
        type            calculated;
        value           uniform 0;
    }
    frontBackUpDown
    {
        type            empty;
    }
}


// ************************************************************************* //
