/*--------------------------------*- C++ -*----------------------------------*\
| =========                 |                                                 |
| \\      /  F ield         | OpenFOAM: The Open Source CFD Toolbox           |
|  \\    /   O peration     | Version:  2412                                  |
|   \\  /    A nd           | Website:  www.openfoam.com                      |
|    \\/     M anipulation  |                                                 |
\*---------------------------------------------------------------------------*/
FoamFile
{
    version     2.0;
    format      ascii;
    arch        "LSB;label=32;scalar=64";
    class       volVectorField;
    location    "0.62";
    object      U;
}
// * * * * * * * * * * * * * * * * * * * * * * * * * * * * * * * * * * * * * //

dimensions      [0 1 -1 0 0 0 0];

internalField   nonuniform List<vector> 
800
(
(0.00133298 0 0)
(0.00399896 0 0)
(0.00666493 0 0)
(0.00933089 0 0)
(0.0119968 0 0)
(0.0146627 0 0)
(0.0173286 0 0)
(0.0199944 0 0)
(0.0226602 0 0)
(0.0253259 0 0)
(0.0279916 0 0)
(0.0306572 0 0)
(0.0333227 0 0)
(0.0359881 0 0)
(0.0386535 0 0)
(0.0413187 0 0)
(0.0439839 0 0)
(0.0466489 0 0)
(0.0493138 0 0)
(0.0519786 0 0)
(0.0546433 0 0)
(0.0573079 0 0)
(0.0599723 0 0)
(0.0626365 0 0)
(0.0653006 0 0)
(0.0679645 0 0)
(0.0706283 0 0)
(0.0732919 0 0)
(0.0759553 0 0)
(0.0786186 0 0)
(0.0812816 0 0)
(0.0839444 0 0)
(0.086607 0 0)
(0.0892695 0 0)
(0.0919317 0 0)
(0.0945936 0 0)
(0.0972553 0 0)
(0.0999168 0 0)
(0.102578 0 0)
(0.105239 0 0)
(0.1079 0 0)
(0.11056 0 0)
(0.11322 0 0)
(0.11588 0 0)
(0.11854 0 0)
(0.121199 0 0)
(0.123858 0 0)
(0.126517 0 0)
(0.129175 0 0)
(0.131833 0 0)
(0.134491 0 0)
(0.137149 0 0)
(0.139806 0 0)
(0.142462 0 0)
(0.145119 0 0)
(0.147775 0 0)
(0.15043 0 0)
(0.153086 0 0)
(0.15574 0 0)
(0.158395 0 0)
(0.161049 0 0)
(0.163703 0 0)
(0.166356 0 0)
(0.169009 0 0)
(0.171661 0 0)
(0.174313 0 0)
(0.176965 0 0)
(0.179616 0 0)
(0.182266 0 0)
(0.184917 0 0)
(0.187566 0 0)
(0.190216 0 0)
(0.192864 0 0)
(0.195513 0 0)
(0.19816 0 0)
(0.200807 0 0)
(0.203454 0 0)
(0.2061 0 0)
(0.208746 0 0)
(0.211391 0 0)
(0.214036 0 0)
(0.21668 0 0)
(0.219323 0 0)
(0.221966 0 0)
(0.224609 0 0)
(0.227251 0 0)
(0.229892 0 0)
(0.232532 0 0)
(0.235172 0 0)
(0.237812 0 0)
(0.240451 0 0)
(0.243089 0 0)
(0.245726 0 0)
(0.248363 0 0)
(0.250999 0 0)
(0.253635 0 0)
(0.25627 0 0)
(0.258904 0 0)
(0.261538 0 0)
(0.26417 0 0)
(0.266803 0 0)
(0.269434 0 0)
(0.272065 0 0)
(0.274695 0 0)
(0.277324 0 0)
(0.279953 0 0)
(0.282581 0 0)
(0.285208 0 0)
(0.287834 0 0)
(0.29046 0 0)
(0.293084 0 0)
(0.295708 0 0)
(0.298332 0 0)
(0.300954 0 0)
(0.303576 0 0)
(0.306196 0 0)
(0.308816 0 0)
(0.311435 0 0)
(0.314054 0 0)
(0.316671 0 0)
(0.319288 0 0)
(0.321903 0 0)
(0.324518 0 0)
(0.327132 0 0)
(0.329745 0 0)
(0.332357 0 0)
(0.334968 0 0)
(0.337579 0 0)
(0.340188 0 0)
(0.342796 0 0)
(0.345404 0 0)
(0.34801 0 0)
(0.350616 0 0)
(0.35322 0 0)
(0.355824 0 0)
(0.358427 0 0)
(0.361028 0 0)
(0.363629 0 0)
(0.366228 0 0)
(0.368827 0 0)
(0.371424 0 0)
(0.374021 0 0)
(0.376616 0 0)
(0.37921 0 0)
(0.381804 0 0)
(0.384396 0 0)
(0.386987 0 0)
(0.389577 0 0)
(0.392165 0 0)
(0.394753 0 0)
(0.397339 0 0)
(0.399925 0 0)
(0.402509 0 0)
(0.405092 0 0)
(0.407674 0 0)
(0.410255 0 0)
(0.412834 0 0)
(0.415412 0 0)
(0.417989 0 0)
(0.420565 0 0)
(0.42314 0 0)
(0.425713 0 0)
(0.428285 0 0)
(0.430856 0 0)
(0.433425 0 0)
(0.435993 0 0)
(0.43856 0 0)
(0.441126 0 0)
(0.44369 0 0)
(0.446253 0 0)
(0.448814 0 0)
(0.451374 0 0)
(0.453933 0 0)
(0.45649 0 0)
(0.459046 0 0)
(0.461601 0 0)
(0.464154 0 0)
(0.466706 0 0)
(0.469256 0 0)
(0.471805 0 0)
(0.474352 0 0)
(0.476898 0 0)
(0.479442 0 0)
(0.481985 0 0)
(0.484526 0 0)
(0.487066 0 0)
(0.489604 0 0)
(0.492141 0 0)
(0.494676 0 0)
(0.497209 0 0)
(0.499741 0 0)
(0.502271 0 0)
(0.5048 0 0)
(0.507327 0 0)
(0.509852 0 0)
(0.512376 0 0)
(0.514898 0 0)
(0.517418 0 0)
(0.519937 0 0)
(0.522454 0 0)
(0.524969 0 0)
(0.527482 0 0)
(0.529994 0 0)
(0.532504 0 0)
(0.535012 0 0)
(0.537518 0 0)
(0.540022 0 0)
(0.542525 0 0)
(0.545025 0 0)
(0.547524 0 0)
(0.550021 0 0)
(0.552516 0 0)
(0.555009 0 0)
(0.557501 0 0)
(0.55999 0 0)
(0.562477 0 0)
(0.564962 0 0)
(0.567446 0 0)
(0.569927 0 0)
(0.572406 0 0)
(0.574884 0 0)
(0.577359 0 0)
(0.579832 0 0)
(0.582303 0 0)
(0.584772 0 0)
(0.587238 0 0)
(0.589703 0 0)
(0.592165 0 0)
(0.594625 0 0)
(0.597084 0 0)
(0.599539 0 0)
(0.601993 0 0)
(0.604444 0 0)
(0.606893 0 0)
(0.60934 0 0)
(0.611784 0 0)
(0.614226 0 0)
(0.616666 0 0)
(0.619103 0 0)
(0.621538 0 0)
(0.623971 0 0)
(0.626401 0 0)
(0.628829 0 0)
(0.631254 0 0)
(0.633676 0 0)
(0.636097 0 0)
(0.638514 0 0)
(0.640929 0 0)
(0.643342 0 0)
(0.645752 0 0)
(0.648159 0 0)
(0.650563 0 0)
(0.652965 0 0)
(0.655364 0 0)
(0.657761 0 0)
(0.660155 0 0)
(0.662546 0 0)
(0.664934 0 0)
(0.667319 0 0)
(0.669702 0 0)
(0.672081 0 0)
(0.674458 0 0)
(0.676832 0 0)
(0.679203 0 0)
(0.681571 0 0)
(0.683936 0 0)
(0.686298 0 0)
(0.688657 0 0)
(0.691013 0 0)
(0.693365 0 0)
(0.695715 0 0)
(0.698061 0 0)
(0.700405 0 0)
(0.702745 0 0)
(0.705081 0 0)
(0.707415 0 0)
(0.709745 0 0)
(0.712072 0 0)
(0.714396 0 0)
(0.716716 0 0)
(0.719032 0 0)
(0.721346 0 0)
(0.723655 0 0)
(0.725962 0 0)
(0.728264 0 0)
(0.730563 0 0)
(0.732859 0 0)
(0.735151 0 0)
(0.737439 0 0)
(0.739723 0 0)
(0.742004 0 0)
(0.744281 0 0)
(0.746554 0 0)
(0.748823 0 0)
(0.751088 0 0)
(0.75335 0 0)
(0.755607 0 0)
(0.75786 0 0)
(0.76011 0 0)
(0.762355 0 0)
(0.764596 0 0)
(0.766833 0 0)
(0.769065 0 0)
(0.771293 0 0)
(0.773517 0 0)
(0.775737 0 0)
(0.777952 0 0)
(0.780163 0 0)
(0.78237 0 0)
(0.784571 0 0)
(0.786769 0 0)
(0.788961 0 0)
(0.791149 0 0)
(0.793332 0 0)
(0.795511 0 0)
(0.797684 0 0)
(0.799853 0 0)
(0.802017 0 0)
(0.804176 0 0)
(0.80633 0 0)
(0.808478 0 0)
(0.810622 0 0)
(0.81276 0 0)
(0.814893 0 0)
(0.817021 0 0)
(0.819143 0 0)
(0.82126 0 0)
(0.823372 0 0)
(0.825478 0 0)
(0.827578 0 0)
(0.829673 0 0)
(0.831762 0 0)
(0.833845 0 0)
(0.835922 0 0)
(0.837993 0 0)
(0.840058 0 0)
(0.842118 0 0)
(0.844171 0 0)
(0.846217 0 0)
(0.848258 0 0)
(0.850292 0 0)
(0.852319 0 0)
(0.85434 0 0)
(0.856355 0 0)
(0.858362 0 0)
(0.860363 0 0)
(0.862357 0 0)
(0.864344 0 0)
(0.866324 0 0)
(0.868297 0 0)
(0.870263 0 0)
(0.872221 0 0)
(0.874172 0 0)
(0.876116 0 0)
(0.878051 0 0)
(0.879979 0 0)
(0.8819 0 0)
(0.883812 0 0)
(0.885716 0 0)
(0.887612 0 0)
(0.8895 0 0)
(0.89138 0 0)
(0.893251 0 0)
(0.895113 0 0)
(0.896967 0 0)
(0.898812 0 0)
(0.900647 0 0)
(0.902474 0 0)
(0.904292 0 0)
(0.9061 0 0)
(0.907898 0 0)
(0.909687 0 0)
(0.911466 0 0)
(0.913235 0 0)
(0.914994 0 0)
(0.916743 0 0)
(0.918481 0 0)
(0.920208 0 0)
(0.921925 0 0)
(0.923631 0 0)
(0.925326 0 0)
(0.927009 0 0)
(0.928681 0 0)
(0.930341 0 0)
(0.931989 0 0)
(0.933626 0 0)
(0.935249 0 0)
(0.936861 0 0)
(0.938459 0 0)
(0.940045 0 0)
(0.941617 0 0)
(0.943176 0 0)
(0.944721 0 0)
(0.946252 0 0)
(0.94777 0 0)
(0.949261 0 0)
(0.950884 0 0)
(0.950866 0 0)
(0.968397 0 0)
(0.571848 0 0)
(-0.570477 0 0)
(-0.968372 0 0)
(-0.950867 0 0)
(-0.950883 0 0)
(-0.949259 0 0)
(-0.947769 0 0)
(-0.946251 0 0)
(-0.94472 0 0)
(-0.943175 0 0)
(-0.941616 0 0)
(-0.940043 0 0)
(-0.938458 0 0)
(-0.936859 0 0)
(-0.935248 0 0)
(-0.933624 0 0)
(-0.931988 0 0)
(-0.930339 0 0)
(-0.928679 0 0)
(-0.927007 0 0)
(-0.925324 0 0)
(-0.923629 0 0)
(-0.921923 0 0)
(-0.920207 0 0)
(-0.918479 0 0)
(-0.916741 0 0)
(-0.914992 0 0)
(-0.913233 0 0)
(-0.911464 0 0)
(-0.909685 0 0)
(-0.907896 0 0)
(-0.906098 0 0)
(-0.90429 0 0)
(-0.902472 0 0)
(-0.900645 0 0)
(-0.89881 0 0)
(-0.896965 0 0)
(-0.895111 0 0)
(-0.893249 0 0)
(-0.891378 0 0)
(-0.889498 0 0)
(-0.88761 0 0)
(-0.885714 0 0)
(-0.88381 0 0)
(-0.881898 0 0)
(-0.879977 0 0)
(-0.878049 0 0)
(-0.876113 0 0)
(-0.87417 0 0)
(-0.872219 0 0)
(-0.870261 0 0)
(-0.868295 0 0)
(-0.866322 0 0)
(-0.864342 0 0)
(-0.862355 0 0)
(-0.860361 0 0)
(-0.85836 0 0)
(-0.856352 0 0)
(-0.854338 0 0)
(-0.852317 0 0)
(-0.850289 0 0)
(-0.848255 0 0)
(-0.846215 0 0)
(-0.844168 0 0)
(-0.842115 0 0)
(-0.840056 0 0)
(-0.837991 0 0)
(-0.83592 0 0)
(-0.833842 0 0)
(-0.831759 0 0)
(-0.82967 0 0)
(-0.827576 0 0)
(-0.825476 0 0)
(-0.82337 0 0)
(-0.821258 0 0)
(-0.819141 0 0)
(-0.817019 0 0)
(-0.814891 0 0)
(-0.812758 0 0)
(-0.810619 0 0)
(-0.808476 0 0)
(-0.806327 0 0)
(-0.804173 0 0)
(-0.802015 0 0)
(-0.799851 0 0)
(-0.797682 0 0)
(-0.795508 0 0)
(-0.79333 0 0)
(-0.791147 0 0)
(-0.788959 0 0)
(-0.786766 0 0)
(-0.784569 0 0)
(-0.782367 0 0)
(-0.780161 0 0)
(-0.77795 0 0)
(-0.775735 0 0)
(-0.773515 0 0)
(-0.771291 0 0)
(-0.769063 0 0)
(-0.76683 0 0)
(-0.764593 0 0)
(-0.762352 0 0)
(-0.760107 0 0)
(-0.757858 0 0)
(-0.755605 0 0)
(-0.753347 0 0)
(-0.751086 0 0)
(-0.748821 0 0)
(-0.746552 0 0)
(-0.744279 0 0)
(-0.742002 0 0)
(-0.739721 0 0)
(-0.737437 0 0)
(-0.735148 0 0)
(-0.732857 0 0)
(-0.730561 0 0)
(-0.728262 0 0)
(-0.725959 0 0)
(-0.723653 0 0)
(-0.721343 0 0)
(-0.71903 0 0)
(-0.716713 0 0)
(-0.714393 0 0)
(-0.71207 0 0)
(-0.709743 0 0)
(-0.707413 0 0)
(-0.705079 0 0)
(-0.702742 0 0)
(-0.700402 0 0)
(-0.698059 0 0)
(-0.695713 0 0)
(-0.693363 0 0)
(-0.69101 0 0)
(-0.688655 0 0)
(-0.686296 0 0)
(-0.683934 0 0)
(-0.681569 0 0)
(-0.679201 0 0)
(-0.67683 0 0)
(-0.674456 0 0)
(-0.672079 0 0)
(-0.6697 0 0)
(-0.667317 0 0)
(-0.664932 0 0)
(-0.662544 0 0)
(-0.660153 0 0)
(-0.657759 0 0)
(-0.655362 0 0)
(-0.652963 0 0)
(-0.650561 0 0)
(-0.648157 0 0)
(-0.64575 0 0)
(-0.64334 0 0)
(-0.640927 0 0)
(-0.638512 0 0)
(-0.636095 0 0)
(-0.633674 0 0)
(-0.631252 0 0)
(-0.628827 0 0)
(-0.626399 0 0)
(-0.623969 0 0)
(-0.621536 0 0)
(-0.619102 0 0)
(-0.616664 0 0)
(-0.614224 0 0)
(-0.611782 0 0)
(-0.609338 0 0)
(-0.606891 0 0)
(-0.604442 0 0)
(-0.601991 0 0)
(-0.599537 0 0)
(-0.597082 0 0)
(-0.594624 0 0)
(-0.592163 0 0)
(-0.589701 0 0)
(-0.587236 0 0)
(-0.58477 0 0)
(-0.582301 0 0)
(-0.57983 0 0)
(-0.577357 0 0)
(-0.574882 0 0)
(-0.572405 0 0)
(-0.569925 0 0)
(-0.567444 0 0)
(-0.564961 0 0)
(-0.562475 0 0)
(-0.559988 0 0)
(-0.557499 0 0)
(-0.555008 0 0)
(-0.552515 0 0)
(-0.55002 0 0)
(-0.547523 0 0)
(-0.545024 0 0)
(-0.542523 0 0)
(-0.540021 0 0)
(-0.537516 0 0)
(-0.53501 0 0)
(-0.532502 0 0)
(-0.529992 0 0)
(-0.527481 0 0)
(-0.524967 0 0)
(-0.522452 0 0)
(-0.519935 0 0)
(-0.517417 0 0)
(-0.514896 0 0)
(-0.512375 0 0)
(-0.509851 0 0)
(-0.507326 0 0)
(-0.504799 0 0)
(-0.50227 0 0)
(-0.49974 0 0)
(-0.497208 0 0)
(-0.494674 0 0)
(-0.492139 0 0)
(-0.489603 0 0)
(-0.487065 0 0)
(-0.484525 0 0)
(-0.481984 0 0)
(-0.479441 0 0)
(-0.476896 0 0)
(-0.474351 0 0)
(-0.471803 0 0)
(-0.469255 0 0)
(-0.466704 0 0)
(-0.464153 0 0)
(-0.4616 0 0)
(-0.459045 0 0)
(-0.456489 0 0)
(-0.453932 0 0)
(-0.451373 0 0)
(-0.448813 0 0)
(-0.446252 0 0)
(-0.443689 0 0)
(-0.441124 0 0)
(-0.438559 0 0)
(-0.435992 0 0)
(-0.433424 0 0)
(-0.430855 0 0)
(-0.428284 0 0)
(-0.425712 0 0)
(-0.423139 0 0)
(-0.420564 0 0)
(-0.417988 0 0)
(-0.415411 0 0)
(-0.412833 0 0)
(-0.410254 0 0)
(-0.407673 0 0)
(-0.405091 0 0)
(-0.402508 0 0)
(-0.399924 0 0)
(-0.397339 0 0)
(-0.394752 0 0)
(-0.392164 0 0)
(-0.389576 0 0)
(-0.386986 0 0)
(-0.384395 0 0)
(-0.381803 0 0)
(-0.379209 0 0)
(-0.376615 0 0)
(-0.37402 0 0)
(-0.371423 0 0)
(-0.368826 0 0)
(-0.366228 0 0)
(-0.363628 0 0)
(-0.361027 0 0)
(-0.358426 0 0)
(-0.355823 0 0)
(-0.35322 0 0)
(-0.350615 0 0)
(-0.34801 0 0)
(-0.345403 0 0)
(-0.342796 0 0)
(-0.340187 0 0)
(-0.337578 0 0)
(-0.334968 0 0)
(-0.332356 0 0)
(-0.329744 0 0)
(-0.327131 0 0)
(-0.324517 0 0)
(-0.321903 0 0)
(-0.319287 0 0)
(-0.31667 0 0)
(-0.314053 0 0)
(-0.311435 0 0)
(-0.308816 0 0)
(-0.306196 0 0)
(-0.303575 0 0)
(-0.300953 0 0)
(-0.298331 0 0)
(-0.295708 0 0)
(-0.293084 0 0)
(-0.290459 0 0)
(-0.287833 0 0)
(-0.285207 0 0)
(-0.28258 0 0)
(-0.279952 0 0)
(-0.277324 0 0)
(-0.274694 0 0)
(-0.272064 0 0)
(-0.269434 0 0)
(-0.266802 0 0)
(-0.26417 0 0)
(-0.261537 0 0)
(-0.258904 0 0)
(-0.256269 0 0)
(-0.253634 0 0)
(-0.250999 0 0)
(-0.248363 0 0)
(-0.245726 0 0)
(-0.243088 0 0)
(-0.24045 0 0)
(-0.237811 0 0)
(-0.235172 0 0)
(-0.232532 0 0)
(-0.229891 0 0)
(-0.22725 0 0)
(-0.224608 0 0)
(-0.221966 0 0)
(-0.219323 0 0)
(-0.21668 0 0)
(-0.214036 0 0)
(-0.211391 0 0)
(-0.208746 0 0)
(-0.2061 0 0)
(-0.203454 0 0)
(-0.200807 0 0)
(-0.19816 0 0)
(-0.195512 0 0)
(-0.192864 0 0)
(-0.190215 0 0)
(-0.187566 0 0)
(-0.184916 0 0)
(-0.182266 0 0)
(-0.179616 0 0)
(-0.176964 0 0)
(-0.174313 0 0)
(-0.171661 0 0)
(-0.169009 0 0)
(-0.166356 0 0)
(-0.163703 0 0)
(-0.161049 0 0)
(-0.158395 0 0)
(-0.15574 0 0)
(-0.153085 0 0)
(-0.15043 0 0)
(-0.147775 0 0)
(-0.145119 0 0)
(-0.142462 0 0)
(-0.139806 0 0)
(-0.137148 0 0)
(-0.134491 0 0)
(-0.131833 0 0)
(-0.129175 0 0)
(-0.126517 0 0)
(-0.123858 0 0)
(-0.121199 0 0)
(-0.11854 0 0)
(-0.11588 0 0)
(-0.11322 0 0)
(-0.11056 0 0)
(-0.1079 0 0)
(-0.105239 0 0)
(-0.102578 0 0)
(-0.0999168 0 0)
(-0.0972553 0 0)
(-0.0945936 0 0)
(-0.0919316 0 0)
(-0.0892694 0 0)
(-0.086607 0 0)
(-0.0839444 0 0)
(-0.0812815 0 0)
(-0.0786185 0 0)
(-0.0759553 0 0)
(-0.0732919 0 0)
(-0.0706283 0 0)
(-0.0679645 0 0)
(-0.0653006 0 0)
(-0.0626365 0 0)
(-0.0599722 0 0)
(-0.0573078 0 0)
(-0.0546433 0 0)
(-0.0519786 0 0)
(-0.0493138 0 0)
(-0.0466489 0 0)
(-0.0439839 0 0)
(-0.0413187 0 0)
(-0.0386535 0 0)
(-0.0359881 0 0)
(-0.0333227 0 0)
(-0.0306572 0 0)
(-0.0279916 0 0)
(-0.0253259 0 0)
(-0.0226602 0 0)
(-0.0199944 0 0)
(-0.0173286 0 0)
(-0.0146627 0 0)
(-0.0119968 0 0)
(-0.0093309 0 0)
(-0.00666495 0 0)
(-0.00399897 0 0)
(-0.00133299 0 0)
)
;

boundaryField
{
    left
    {
        type            fixedValue;
        value           uniform (0 0 0);
    }
    right
    {
        type            fixedValue;
        value           uniform (0 0 0);
    }
    frontBackUpDown
    {
        type            empty;
    }
}


// ************************************************************************* //
