/*--------------------------------*- C++ -*----------------------------------*\
| =========                 |                                                 |
| \\      /  F ield         | OpenFOAM: The Open Source CFD Toolbox           |
|  \\    /   O peration     | Version:  2412                                  |
|   \\  /    A nd           | Website:  www.openfoam.com                      |
|    \\/     M anipulation  |                                                 |
\*---------------------------------------------------------------------------*/
FoamFile
{
    version     2.0;
    format      ascii;
    arch        "LSB;label=32;scalar=64";
    class       volVectorField;
    location    "0.62";
    object      U_0;
}
// * * * * * * * * * * * * * * * * * * * * * * * * * * * * * * * * * * * * * //

dimensions      [0 1 -1 0 0 0 0];

internalField   nonuniform List<vector> 
800
(
(0.00133369 0 0)
(0.00400109 0 0)
(0.00666848 0 0)
(0.00933586 0 0)
(0.0120032 0 0)
(0.0146705 0 0)
(0.0173378 0 0)
(0.0200051 0 0)
(0.0226723 0 0)
(0.0253394 0 0)
(0.0280065 0 0)
(0.0306735 0 0)
(0.0333404 0 0)
(0.0360073 0 0)
(0.038674 0 0)
(0.0413407 0 0)
(0.0440073 0 0)
(0.0466737 0 0)
(0.0493401 0 0)
(0.0520063 0 0)
(0.0546724 0 0)
(0.0573383 0 0)
(0.0600042 0 0)
(0.0626698 0 0)
(0.0653353 0 0)
(0.0680007 0 0)
(0.0706659 0 0)
(0.0733309 0 0)
(0.0759957 0 0)
(0.0786604 0 0)
(0.0813248 0 0)
(0.0839891 0 0)
(0.0866531 0 0)
(0.0893169 0 0)
(0.0919805 0 0)
(0.0946439 0 0)
(0.097307 0 0)
(0.0999699 0 0)
(0.102633 0 0)
(0.105295 0 0)
(0.107957 0 0)
(0.110619 0 0)
(0.113281 0 0)
(0.115942 0 0)
(0.118603 0 0)
(0.121264 0 0)
(0.123924 0 0)
(0.126584 0 0)
(0.129244 0 0)
(0.131903 0 0)
(0.134563 0 0)
(0.137221 0 0)
(0.13988 0 0)
(0.142538 0 0)
(0.145196 0 0)
(0.147853 0 0)
(0.15051 0 0)
(0.153167 0 0)
(0.155823 0 0)
(0.158479 0 0)
(0.161134 0 0)
(0.163789 0 0)
(0.166444 0 0)
(0.169098 0 0)
(0.171752 0 0)
(0.174405 0 0)
(0.177058 0 0)
(0.179711 0 0)
(0.182363 0 0)
(0.185014 0 0)
(0.187666 0 0)
(0.190316 0 0)
(0.192966 0 0)
(0.195616 0 0)
(0.198265 0 0)
(0.200914 0 0)
(0.203562 0 0)
(0.206209 0 0)
(0.208856 0 0)
(0.211503 0 0)
(0.214149 0 0)
(0.216794 0 0)
(0.219439 0 0)
(0.222084 0 0)
(0.224727 0 0)
(0.22737 0 0)
(0.230013 0 0)
(0.232655 0 0)
(0.235296 0 0)
(0.237937 0 0)
(0.240577 0 0)
(0.243217 0 0)
(0.245856 0 0)
(0.248494 0 0)
(0.251131 0 0)
(0.253768 0 0)
(0.256405 0 0)
(0.25904 0 0)
(0.261675 0 0)
(0.264309 0 0)
(0.266943 0 0)
(0.269576 0 0)
(0.272208 0 0)
(0.274839 0 0)
(0.27747 0 0)
(0.2801 0 0)
(0.282729 0 0)
(0.285357 0 0)
(0.287985 0 0)
(0.290612 0 0)
(0.293238 0 0)
(0.295863 0 0)
(0.298488 0 0)
(0.301112 0 0)
(0.303734 0 0)
(0.306357 0 0)
(0.308978 0 0)
(0.311598 0 0)
(0.314218 0 0)
(0.316837 0 0)
(0.319454 0 0)
(0.322071 0 0)
(0.324688 0 0)
(0.327303 0 0)
(0.329917 0 0)
(0.332531 0 0)
(0.335143 0 0)
(0.337755 0 0)
(0.340365 0 0)
(0.342975 0 0)
(0.345584 0 0)
(0.348192 0 0)
(0.350798 0 0)
(0.353404 0 0)
(0.356009 0 0)
(0.358613 0 0)
(0.361216 0 0)
(0.363818 0 0)
(0.366418 0 0)
(0.369018 0 0)
(0.371617 0 0)
(0.374215 0 0)
(0.376811 0 0)
(0.379407 0 0)
(0.382001 0 0)
(0.384595 0 0)
(0.387187 0 0)
(0.389778 0 0)
(0.392368 0 0)
(0.394957 0 0)
(0.397545 0 0)
(0.400131 0 0)
(0.402717 0 0)
(0.405301 0 0)
(0.407884 0 0)
(0.410466 0 0)
(0.413047 0 0)
(0.415626 0 0)
(0.418204 0 0)
(0.420781 0 0)
(0.423357 0 0)
(0.425932 0 0)
(0.428505 0 0)
(0.431077 0 0)
(0.433648 0 0)
(0.436217 0 0)
(0.438785 0 0)
(0.441352 0 0)
(0.443917 0 0)
(0.446481 0 0)
(0.449044 0 0)
(0.451605 0 0)
(0.454165 0 0)
(0.456724 0 0)
(0.459281 0 0)
(0.461836 0 0)
(0.464391 0 0)
(0.466943 0 0)
(0.469495 0 0)
(0.472045 0 0)
(0.474593 0 0)
(0.47714 0 0)
(0.479686 0 0)
(0.48223 0 0)
(0.484772 0 0)
(0.487313 0 0)
(0.489852 0 0)
(0.49239 0 0)
(0.494926 0 0)
(0.497461 0 0)
(0.499994 0 0)
(0.502525 0 0)
(0.505055 0 0)
(0.507583 0 0)
(0.510109 0 0)
(0.512634 0 0)
(0.515157 0 0)
(0.517679 0 0)
(0.520198 0 0)
(0.522716 0 0)
(0.525232 0 0)
(0.527747 0 0)
(0.53026 0 0)
(0.532771 0 0)
(0.53528 0 0)
(0.537787 0 0)
(0.540292 0 0)
(0.542796 0 0)
(0.545298 0 0)
(0.547798 0 0)
(0.550296 0 0)
(0.552792 0 0)
(0.555286 0 0)
(0.557778 0 0)
(0.560268 0 0)
(0.562757 0 0)
(0.565243 0 0)
(0.567727 0 0)
(0.570209 0 0)
(0.57269 0 0)
(0.575168 0 0)
(0.577644 0 0)
(0.580118 0 0)
(0.58259 0 0)
(0.58506 0 0)
(0.587528 0 0)
(0.589993 0 0)
(0.592456 0 0)
(0.594918 0 0)
(0.597377 0 0)
(0.599833 0 0)
(0.602288 0 0)
(0.60474 0 0)
(0.60719 0 0)
(0.609638 0 0)
(0.612083 0 0)
(0.614526 0 0)
(0.616967 0 0)
(0.619405 0 0)
(0.621841 0 0)
(0.624274 0 0)
(0.626705 0 0)
(0.629134 0 0)
(0.63156 0 0)
(0.633983 0 0)
(0.636404 0 0)
(0.638823 0 0)
(0.641238 0 0)
(0.643652 0 0)
(0.646062 0 0)
(0.64847 0 0)
(0.650876 0 0)
(0.653279 0 0)
(0.655679 0 0)
(0.658076 0 0)
(0.66047 0 0)
(0.662862 0 0)
(0.665251 0 0)
(0.667637 0 0)
(0.67002 0 0)
(0.672401 0 0)
(0.674778 0 0)
(0.677153 0 0)
(0.679525 0 0)
(0.681893 0 0)
(0.684259 0 0)
(0.686622 0 0)
(0.688981 0 0)
(0.691338 0 0)
(0.693691 0 0)
(0.696041 0 0)
(0.698388 0 0)
(0.700732 0 0)
(0.703073 0 0)
(0.70541 0 0)
(0.707745 0 0)
(0.710075 0 0)
(0.712403 0 0)
(0.714727 0 0)
(0.717048 0 0)
(0.719365 0 0)
(0.721679 0 0)
(0.723989 0 0)
(0.726296 0 0)
(0.728599 0 0)
(0.730899 0 0)
(0.733195 0 0)
(0.735487 0 0)
(0.737776 0 0)
(0.740061 0 0)
(0.742342 0 0)
(0.744619 0 0)
(0.746893 0 0)
(0.749162 0 0)
(0.751428 0 0)
(0.75369 0 0)
(0.755948 0 0)
(0.758201 0 0)
(0.760451 0 0)
(0.762696 0 0)
(0.764938 0 0)
(0.767175 0 0)
(0.769408 0 0)
(0.771637 0 0)
(0.773861 0 0)
(0.776081 0 0)
(0.778297 0 0)
(0.780508 0 0)
(0.782714 0 0)
(0.784916 0 0)
(0.787114 0 0)
(0.789307 0 0)
(0.791495 0 0)
(0.793678 0 0)
(0.795857 0 0)
(0.798031 0 0)
(0.800199 0 0)
(0.802363 0 0)
(0.804522 0 0)
(0.806676 0 0)
(0.808825 0 0)
(0.810969 0 0)
(0.813107 0 0)
(0.81524 0 0)
(0.817368 0 0)
(0.819491 0 0)
(0.821608 0 0)
(0.823719 0 0)
(0.825825 0 0)
(0.827925 0 0)
(0.83002 0 0)
(0.832109 0 0)
(0.834192 0 0)
(0.836269 0 0)
(0.83834 0 0)
(0.840405 0 0)
(0.842464 0 0)
(0.844516 0 0)
(0.846563 0 0)
(0.848603 0 0)
(0.850637 0 0)
(0.852664 0 0)
(0.854685 0 0)
(0.856699 0 0)
(0.858706 0 0)
(0.860707 0 0)
(0.862701 0 0)
(0.864687 0 0)
(0.866667 0 0)
(0.868639 0 0)
(0.870604 0 0)
(0.872562 0 0)
(0.874513 0 0)
(0.876455 0 0)
(0.878391 0 0)
(0.880318 0 0)
(0.882238 0 0)
(0.884149 0 0)
(0.886053 0 0)
(0.887948 0 0)
(0.889835 0 0)
(0.891714 0 0)
(0.893584 0 0)
(0.895446 0 0)
(0.897299 0 0)
(0.899142 0 0)
(0.900977 0 0)
(0.902803 0 0)
(0.904619 0 0)
(0.906426 0 0)
(0.908224 0 0)
(0.910012 0 0)
(0.911789 0 0)
(0.913557 0 0)
(0.915315 0 0)
(0.917062 0 0)
(0.918799 0 0)
(0.920525 0 0)
(0.922241 0 0)
(0.923945 0 0)
(0.925638 0 0)
(0.92732 0 0)
(0.928991 0 0)
(0.930649 0 0)
(0.932296 0 0)
(0.93393 0 0)
(0.935552 0 0)
(0.937162 0 0)
(0.938758 0 0)
(0.940342 0 0)
(0.941912 0 0)
(0.943469 0 0)
(0.945012 0 0)
(0.946541 0 0)
(0.948057 0 0)
(0.949545 0 0)
(0.951167 0 0)
(0.951137 0 0)
(0.968739 0 0)
(0.572174 0 0)
(-0.570803 0 0)
(-0.968714 0 0)
(-0.951138 0 0)
(-0.951165 0 0)
(-0.949543 0 0)
(-0.948056 0 0)
(-0.94654 0 0)
(-0.945011 0 0)
(-0.943468 0 0)
(-0.941911 0 0)
(-0.94034 0 0)
(-0.938757 0 0)
(-0.93716 0 0)
(-0.935551 0 0)
(-0.933928 0 0)
(-0.932294 0 0)
(-0.930647 0 0)
(-0.928989 0 0)
(-0.927319 0 0)
(-0.925637 0 0)
(-0.923943 0 0)
(-0.922239 0 0)
(-0.920524 0 0)
(-0.918797 0 0)
(-0.91706 0 0)
(-0.915313 0 0)
(-0.913555 0 0)
(-0.911788 0 0)
(-0.91001 0 0)
(-0.908222 0 0)
(-0.906424 0 0)
(-0.904617 0 0)
(-0.902801 0 0)
(-0.900975 0 0)
(-0.89914 0 0)
(-0.897297 0 0)
(-0.895444 0 0)
(-0.893582 0 0)
(-0.891712 0 0)
(-0.889833 0 0)
(-0.887946 0 0)
(-0.886051 0 0)
(-0.884147 0 0)
(-0.882235 0 0)
(-0.880316 0 0)
(-0.878388 0 0)
(-0.876453 0 0)
(-0.87451 0 0)
(-0.87256 0 0)
(-0.870602 0 0)
(-0.868637 0 0)
(-0.866665 0 0)
(-0.864685 0 0)
(-0.862698 0 0)
(-0.860705 0 0)
(-0.858704 0 0)
(-0.856697 0 0)
(-0.854683 0 0)
(-0.852662 0 0)
(-0.850635 0 0)
(-0.848601 0 0)
(-0.846561 0 0)
(-0.844514 0 0)
(-0.842461 0 0)
(-0.840402 0 0)
(-0.838337 0 0)
(-0.836266 0 0)
(-0.834189 0 0)
(-0.832106 0 0)
(-0.830017 0 0)
(-0.827923 0 0)
(-0.825823 0 0)
(-0.823717 0 0)
(-0.821605 0 0)
(-0.819488 0 0)
(-0.817366 0 0)
(-0.815238 0 0)
(-0.813105 0 0)
(-0.810966 0 0)
(-0.808823 0 0)
(-0.806674 0 0)
(-0.80452 0 0)
(-0.802361 0 0)
(-0.800197 0 0)
(-0.798028 0 0)
(-0.795854 0 0)
(-0.793676 0 0)
(-0.791492 0 0)
(-0.789304 0 0)
(-0.787111 0 0)
(-0.784914 0 0)
(-0.782712 0 0)
(-0.780505 0 0)
(-0.778294 0 0)
(-0.776079 0 0)
(-0.773859 0 0)
(-0.771634 0 0)
(-0.769406 0 0)
(-0.767173 0 0)
(-0.764935 0 0)
(-0.762694 0 0)
(-0.760449 0 0)
(-0.758199 0 0)
(-0.755945 0 0)
(-0.753687 0 0)
(-0.751426 0 0)
(-0.74916 0 0)
(-0.74689 0 0)
(-0.744617 0 0)
(-0.74234 0 0)
(-0.740059 0 0)
(-0.737774 0 0)
(-0.735485 0 0)
(-0.733193 0 0)
(-0.730897 0 0)
(-0.728597 0 0)
(-0.726294 0 0)
(-0.723987 0 0)
(-0.721677 0 0)
(-0.719363 0 0)
(-0.717046 0 0)
(-0.714725 0 0)
(-0.712401 0 0)
(-0.710073 0 0)
(-0.707742 0 0)
(-0.705408 0 0)
(-0.703071 0 0)
(-0.70073 0 0)
(-0.698386 0 0)
(-0.696039 0 0)
(-0.693689 0 0)
(-0.691335 0 0)
(-0.688979 0 0)
(-0.686619 0 0)
(-0.684257 0 0)
(-0.681891 0 0)
(-0.679522 0 0)
(-0.677151 0 0)
(-0.674776 0 0)
(-0.672399 0 0)
(-0.670018 0 0)
(-0.667635 0 0)
(-0.665249 0 0)
(-0.66286 0 0)
(-0.660468 0 0)
(-0.658074 0 0)
(-0.655676 0 0)
(-0.653276 0 0)
(-0.650874 0 0)
(-0.648468 0 0)
(-0.64606 0 0)
(-0.64365 0 0)
(-0.641236 0 0)
(-0.638821 0 0)
(-0.636402 0 0)
(-0.633981 0 0)
(-0.631558 0 0)
(-0.629132 0 0)
(-0.626703 0 0)
(-0.624272 0 0)
(-0.621839 0 0)
(-0.619403 0 0)
(-0.616965 0 0)
(-0.614524 0 0)
(-0.612081 0 0)
(-0.609636 0 0)
(-0.607188 0 0)
(-0.604738 0 0)
(-0.602286 0 0)
(-0.599832 0 0)
(-0.597375 0 0)
(-0.594916 0 0)
(-0.592455 0 0)
(-0.589991 0 0)
(-0.587526 0 0)
(-0.585058 0 0)
(-0.582588 0 0)
(-0.580116 0 0)
(-0.577642 0 0)
(-0.575166 0 0)
(-0.572688 0 0)
(-0.570208 0 0)
(-0.567725 0 0)
(-0.565241 0 0)
(-0.562755 0 0)
(-0.560267 0 0)
(-0.557776 0 0)
(-0.555284 0 0)
(-0.55279 0 0)
(-0.550294 0 0)
(-0.547796 0 0)
(-0.545296 0 0)
(-0.542794 0 0)
(-0.540291 0 0)
(-0.537785 0 0)
(-0.535278 0 0)
(-0.532769 0 0)
(-0.530258 0 0)
(-0.527745 0 0)
(-0.525231 0 0)
(-0.522715 0 0)
(-0.520197 0 0)
(-0.517677 0 0)
(-0.515156 0 0)
(-0.512633 0 0)
(-0.510108 0 0)
(-0.507582 0 0)
(-0.505053 0 0)
(-0.502524 0 0)
(-0.499992 0 0)
(-0.497459 0 0)
(-0.494925 0 0)
(-0.492389 0 0)
(-0.489851 0 0)
(-0.487312 0 0)
(-0.484771 0 0)
(-0.482228 0 0)
(-0.479684 0 0)
(-0.477139 0 0)
(-0.474592 0 0)
(-0.472044 0 0)
(-0.469494 0 0)
(-0.466942 0 0)
(-0.464389 0 0)
(-0.461835 0 0)
(-0.459279 0 0)
(-0.456722 0 0)
(-0.454164 0 0)
(-0.451604 0 0)
(-0.449043 0 0)
(-0.44648 0 0)
(-0.443916 0 0)
(-0.441351 0 0)
(-0.438784 0 0)
(-0.436216 0 0)
(-0.433646 0 0)
(-0.431076 0 0)
(-0.428504 0 0)
(-0.425931 0 0)
(-0.423356 0 0)
(-0.42078 0 0)
(-0.418203 0 0)
(-0.415625 0 0)
(-0.413046 0 0)
(-0.410465 0 0)
(-0.407883 0 0)
(-0.4053 0 0)
(-0.402716 0 0)
(-0.40013 0 0)
(-0.397544 0 0)
(-0.394956 0 0)
(-0.392367 0 0)
(-0.389777 0 0)
(-0.387186 0 0)
(-0.384594 0 0)
(-0.382 0 0)
(-0.379406 0 0)
(-0.37681 0 0)
(-0.374214 0 0)
(-0.371616 0 0)
(-0.369017 0 0)
(-0.366418 0 0)
(-0.363817 0 0)
(-0.361215 0 0)
(-0.358612 0 0)
(-0.356008 0 0)
(-0.353403 0 0)
(-0.350798 0 0)
(-0.348191 0 0)
(-0.345583 0 0)
(-0.342974 0 0)
(-0.340365 0 0)
(-0.337754 0 0)
(-0.335142 0 0)
(-0.33253 0 0)
(-0.329916 0 0)
(-0.327302 0 0)
(-0.324687 0 0)
(-0.322071 0 0)
(-0.319454 0 0)
(-0.316836 0 0)
(-0.314217 0 0)
(-0.311598 0 0)
(-0.308977 0 0)
(-0.306356 0 0)
(-0.303734 0 0)
(-0.301111 0 0)
(-0.298487 0 0)
(-0.295863 0 0)
(-0.293237 0 0)
(-0.290611 0 0)
(-0.287984 0 0)
(-0.285357 0 0)
(-0.282728 0 0)
(-0.280099 0 0)
(-0.277469 0 0)
(-0.274839 0 0)
(-0.272207 0 0)
(-0.269575 0 0)
(-0.266942 0 0)
(-0.264309 0 0)
(-0.261675 0 0)
(-0.25904 0 0)
(-0.256404 0 0)
(-0.253768 0 0)
(-0.251131 0 0)
(-0.248493 0 0)
(-0.245855 0 0)
(-0.243216 0 0)
(-0.240577 0 0)
(-0.237937 0 0)
(-0.235296 0 0)
(-0.232655 0 0)
(-0.230013 0 0)
(-0.22737 0 0)
(-0.224727 0 0)
(-0.222083 0 0)
(-0.219439 0 0)
(-0.216794 0 0)
(-0.214149 0 0)
(-0.211503 0 0)
(-0.208856 0 0)
(-0.206209 0 0)
(-0.203562 0 0)
(-0.200913 0 0)
(-0.198265 0 0)
(-0.195616 0 0)
(-0.192966 0 0)
(-0.190316 0 0)
(-0.187665 0 0)
(-0.185014 0 0)
(-0.182363 0 0)
(-0.179711 0 0)
(-0.177058 0 0)
(-0.174405 0 0)
(-0.171752 0 0)
(-0.169098 0 0)
(-0.166444 0 0)
(-0.163789 0 0)
(-0.161134 0 0)
(-0.158479 0 0)
(-0.155823 0 0)
(-0.153167 0 0)
(-0.15051 0 0)
(-0.147853 0 0)
(-0.145196 0 0)
(-0.142538 0 0)
(-0.13988 0 0)
(-0.137221 0 0)
(-0.134562 0 0)
(-0.131903 0 0)
(-0.129244 0 0)
(-0.126584 0 0)
(-0.123924 0 0)
(-0.121264 0 0)
(-0.118603 0 0)
(-0.115942 0 0)
(-0.11328 0 0)
(-0.110619 0 0)
(-0.107957 0 0)
(-0.105295 0 0)
(-0.102633 0 0)
(-0.0999699 0 0)
(-0.097307 0 0)
(-0.0946438 0 0)
(-0.0919805 0 0)
(-0.0893169 0 0)
(-0.0866531 0 0)
(-0.083989 0 0)
(-0.0813248 0 0)
(-0.0786603 0 0)
(-0.0759957 0 0)
(-0.0733309 0 0)
(-0.0706659 0 0)
(-0.0680007 0 0)
(-0.0653353 0 0)
(-0.0626698 0 0)
(-0.0600041 0 0)
(-0.0573383 0 0)
(-0.0546724 0 0)
(-0.0520063 0 0)
(-0.0493401 0 0)
(-0.0466737 0 0)
(-0.0440073 0 0)
(-0.0413407 0 0)
(-0.038674 0 0)
(-0.0360073 0 0)
(-0.0333404 0 0)
(-0.0306735 0 0)
(-0.0280065 0 0)
(-0.0253394 0 0)
(-0.0226723 0 0)
(-0.0200051 0 0)
(-0.0173378 0 0)
(-0.0146705 0 0)
(-0.0120032 0 0)
(-0.00933587 0 0)
(-0.00666849 0 0)
(-0.0040011 0 0)
(-0.0013337 0 0)
)
;

boundaryField
{
    left
    {
        type            fixedValue;
        value           uniform (0 0 0);
    }
    right
    {
        type            fixedValue;
        value           uniform (0 0 0);
    }
    frontBackUpDown
    {
        type            empty;
    }
}


// ************************************************************************* //
