/*--------------------------------*- C++ -*----------------------------------*\
| =========                 |                                                 |
| \\      /  F ield         | OpenFOAM: The Open Source CFD Toolbox           |
|  \\    /   O peration     | Version:  2412                                  |
|   \\  /    A nd           | Website:  www.openfoam.com                      |
|    \\/     M anipulation  |                                                 |
\*---------------------------------------------------------------------------*/
FoamFile
{
    version     2.0;
    format      ascii;
    arch        "LSB;label=32;scalar=64";
    class       volScalarField;
    location    "5";
    object      p;
}
// * * * * * * * * * * * * * * * * * * * * * * * * * * * * * * * * * * * * * //

dimensions      [0 2 -2 0 0 0 0];

internalField   nonuniform List<scalar> 
2200
(
0.143414
0.143198
0.144013
0.145255
0.150486
0.162621
0.187011
0.227714
0.291347
0.381458
0.473887
0.542669
0.586577
0.612941
0.627519
0.635599
0.639748
0.641547
0.642317
0.642739
0.138011
0.13803
0.139097
0.142231
0.149242
0.164743
0.191789
0.233795
0.298445
0.388612
0.480864
0.550135
0.592905
0.61793
0.630507
0.636115
0.638885
0.639977
0.639568
0.639921
0.132274
0.132002
0.13408
0.139395
0.15105
0.171417
0.201612
0.249292
0.316706
0.406984
0.499899
0.569248
0.609851
0.630212
0.638891
0.640841
0.641353
0.64246
0.641566
0.642085
0.129663
0.129184
0.130221
0.136029
0.152524
0.175989
0.211503
0.266603
0.338671
0.434936
0.528458
0.594346
0.631338
0.646327
0.651107
0.651443
0.648389
0.648934
0.650967
0.651655
0.134156
0.133411
0.131894
0.136835
0.151385
0.177548
0.222066
0.282151
0.360633
0.462155
0.557954
0.62528
0.661027
0.673049
0.672602
0.670989
0.670645
0.669644
0.672917
0.674381
0.146599
0.144826
0.14317
0.146072
0.151384
0.17504
0.222635
0.288898
0.379143
0.490198
0.592053
0.660847
0.693687
0.704376
0.701766
0.704141
0.710492
0.712786
0.716531
0.718653
0.169412
0.166494
0.165786
0.166794
0.16549
0.180771
0.216287
0.282911
0.385386
0.513588
0.625705
0.693625
0.723938
0.740382
0.753801
0.764442
0.774425
0.778434
0.78188
0.785126
0.205139
0.202177
0.202465
0.203041
0.202981
0.209984
0.230242
0.285838
0.387433
0.529327
0.654681
0.733586
0.772125
0.807719
0.838354
0.856483
0.866779
0.872567
0.873904
0.877698
0.244207
0.241715
0.24219
0.242149
0.249414
0.256088
0.27121
0.317952
0.41148
0.561616
0.699512
0.796501
0.859314
0.911811
0.945135
0.967957
0.974215
0.984617
0.986449
0.989783
0.274397
0.271988
0.271241
0.271076
0.288065
0.304032
0.333008
0.383081
0.472149
0.625215
0.779353
0.900529
0.991072
1.04915
1.06928
1.08915
1.092
1.1049
1.10884
1.11252
0.298569
0.295275
0.291986
0.289268
0.311347
0.345321
0.40593
0.481748
0.587956
0.747652
0.924054
1.07068
1.17003
1.21662
1.21443
1.2254
1.2296
1.24404
1.25176
1.25585
0.330713
0.32591
0.318553
0.312093
0.328504
0.37997
0.475085
0.600936
0.756196
0.948279
1.15132
1.30962
1.38958
1.40482
1.3959
1.39649
1.40416
1.42103
1.43363
1.43972
0.405975
0.400313
0.389609
0.381129
0.38751
0.439732
0.545431
0.715522
0.937845
1.19535
1.43078
1.58713
1.63604
1.62655
1.62851
1.63438
1.65439
1.6723
1.68636
1.69282
0.516723
0.512432
0.503441
0.496094
0.50031
0.537605
0.634532
0.824095
1.10046
1.43957
1.71461
1.86539
1.89845
1.90856
1.93366
1.95397
1.97807
1.99972
2.01525
2.0214
0.645931
0.64067
0.628751
0.616268
0.621877
0.654528
0.731466
0.913354
1.21671
1.62676
1.94904
2.11589
2.18101
2.23565
2.29088
2.32785
2.35858
2.38625
2.40186
2.40797
0.773989
0.769731
0.758276
0.73949
0.740953
0.773595
0.838975
1.00047
1.29319
1.729
2.11001
2.35266
2.50861
2.62661
2.70258
2.75129
2.79017
2.8265
2.8457
2.85308
0.911422
0.9049
0.890512
0.868918
0.864467
0.902484
0.993682
1.14954
1.42032
1.84923
2.30616
2.68442
2.95254
3.11017
3.18611
3.2474
3.29763
3.33838
3.35908
3.36659
1.04465
1.04
1.02635
1.00248
0.994883
1.03989
1.17161
1.38109
1.71485
2.20151
2.74583
3.22667
3.5276
3.67634
3.75407
3.82645
3.88406
3.92683
3.94886
3.9568
1.16113
1.15548
1.14241
1.12215
1.11573
1.15896
1.32208
1.62494
2.12034
2.77971
3.42324
3.90146
4.16376
4.30413
4.39583
4.47821
4.54102
4.58705
4.61074
4.61863
1.23951
1.23428
1.22018
1.19834
1.19244
1.24443
1.42353
1.78147
2.42228
3.26894
4.02729
4.51752
4.79765
4.97485
5.09764
5.19534
5.26861
5.3187
5.34526
5.35435
1.24682
1.24298
1.22987
1.20829
1.20561
1.26833
1.46235
1.85305
2.57046
3.52394
4.41562
5.04796
5.45065
5.69918
5.86361
5.98278
6.07009
6.12713
6.15604
6.16545
1.16831
1.16388
1.15215
1.13579
1.1364
1.21801
1.45979
1.93128
2.74297
3.79731
4.84197
5.6689
6.19794
6.50114
6.70035
6.8432
6.9401
6.9985
7.02924
7.03802
0.946432
0.948765
0.945548
0.937596
0.963694
1.09611
1.43359
2.05665
3.06285
4.30381
5.5194
6.47173
7.05793
7.38352
7.60382
7.76417
7.87171
7.93838
7.97146
7.97686
0.545058
0.550404
0.560609
0.587608
0.669074
0.888515
1.36261
2.19815
3.44835
4.91422
6.32229
7.35855
7.97902
8.34274
8.5881
8.76056
8.87639
8.9508
8.99262
9.0117
-0.160719
-0.121635
-0.0559916
0.0503901
0.242361
0.600004
1.2462
2.3131
3.77656
5.45819
7.09596
8.25855
8.94884
9.36473
9.63896
9.83121
9.96887
10.0587
10.1162
10.1397
-1.31494
-1.21917
-1.00793
-0.720233
-0.337065
0.226892
1.09572
2.38909
4.0623
5.9709
7.859
9.17896
9.96155
10.4457
10.7456
10.9423
11.0952
11.2185
11.2669
11.2721
-3.02753
-2.7231
-2.23071
-1.68349
-1.05011
-0.233698
0.90359
2.46459
4.40035
6.59474
8.76555
10.2753
11.174
11.7356
12.1214
12.381
12.5515
12.6796
12.793
12.8058
-5.32757
-4.47994
-3.59307
-2.76206
-1.86876
-0.77482
0.648231
2.51492
4.76981
7.29804
9.73523
11.4431
12.4677
13.1296
13.5886
13.9346
14.2087
14.43
14.6044
14.6291
-7.39899
-6.23692
-5.06867
-3.9625
-2.76806
-1.37893
0.34069
2.51511
5.08147
7.90154
10.5417
12.4016
13.5432
14.3133
14.867
15.2814
15.6049
15.8787
16.1023
16.1372
-9.11996
-7.81237
-6.49439
-5.14127
-3.66961
-1.99681
0.0256338
2.47046
5.29939
8.3597
11.1664
13.1519
14.4033
15.2669
15.9007
16.3957
16.7841
17.0914
17.3363
17.3841
-10.6224
-9.18623
-7.74179
-6.21099
-4.5132
-2.57651
-0.276602
2.39713
5.43456
8.68419
11.6262
13.7093
15.0503
15.9916
16.6871
17.2334
17.6512
17.9586
18.2143
18.2769
-11.8462
-10.2662
-8.80327
-7.16291
-5.2859
-3.11597
-0.584169
2.29121
5.49204
8.89264
11.9392
14.1044
15.5233
16.516
17.2353
17.7889
18.2408
18.5942
18.8807
18.9577
-12.9164
-11.1367
-9.69775
-7.98774
-5.96259
-3.59665
-0.887824
2.14369
5.47595
8.99846
12.1293
14.3629
15.8381
16.8628
17.6124
18.1951
18.6734
19.0275
19.3452
19.4328
-13.7993
-11.9168
-10.4979
-8.6972
-6.52379
-4.01103
-1.1783
1.96666
5.39929
9.01562
12.2159
14.4879
16.0163
17.088
17.8858
18.4895
18.9835
19.3581
19.6717
19.7534
-14.512
-12.6184
-11.2068
-9.25127
-6.95364
-4.35176
-1.44484
1.77388
5.27922
8.96167
12.2122
14.5496
16.1358
17.2449
18.0992
18.7038
19.2621
19.6133
19.962
20.0183
-15.1349
-13.277
-11.7346
-9.63133
-7.24747
-4.60958
-1.67957
1.57884
5.13528
8.85914
12.1549
14.5551
16.2097
17.3979
18.2963
18.9481
19.505
19.8505
20.1779
20.2604
-15.6435
-13.8008
-12.1338
-9.87042
-7.43316
-4.80752
-1.88162
1.39737
4.98407
8.72789
12.0667
14.5443
16.2862
17.5485
18.4805
19.1692
19.7134
20.0994
20.4158
20.5062
-16.1065
-14.1946
-12.3959
-10.0226
-7.58784
-4.97461
-2.05073
1.24176
4.8366
8.58519
11.9682
14.5337
16.3587
17.6843
18.6657
19.3877
19.9406
20.3429
20.6512
20.7457
-16.4878
-14.5636
-12.6175
-10.1944
-7.75946
-5.13476
-2.19256
1.11166
4.69786
8.44417
11.8684
14.5114
16.4109
17.7989
18.8248
19.5816
20.1721
20.5969
20.9019
20.9991
-16.7525
-14.8618
-12.8846
-10.428
-7.97414
-5.30649
-2.32341
0.992939
4.56668
8.30846
11.7618
14.4627
16.4248
17.8734
18.9651
19.7726
20.3862
20.8325
21.1579
21.2522
-17.0807
-15.1753
-13.1608
-10.7192
-8.23246
-5.50066
-2.46421
0.868713
4.4362
8.171
11.6361
14.3734
16.3904
17.9064
19.0715
19.9487
20.6199
21.0919
21.4206
21.5174
-17.3827
-15.5071
-13.4872
-11.0501
-8.5151
-5.71984
-2.62875
0.727323
4.29603
8.01994
11.4827
14.2454
16.3192
17.9117
19.1557
20.1083
20.8373
21.3529
21.7079
21.802
-17.7326
-15.8577
-13.8435
-11.4006
-8.81361
-5.96204
-2.81945
0.563202
4.13608
7.84661
11.301
14.0854
16.2121
17.885
19.2115
20.2459
21.0495
21.6217
21.9992
22.1028
-18.1384
-16.2574
-14.2265
-11.7521
-9.11582
-6.21731
-3.03106
0.37427
3.95058
7.65017
11.0984
13.9027
16.0738
17.8161
19.2273
20.3545
21.2409
21.8816
22.2866
22.379
-18.5256
-16.6134
-14.5389
-12.0432
-9.40499
-6.47364
-3.2568
0.161819
3.74081
7.43702
10.8849
13.7035
15.9053
17.7006
19.1932
20.419
21.4086
22.138
22.5755
22.5993
-18.9024
-16.9304
-14.8278
-12.3259
-9.68389
-6.72682
-3.49238
-0.0697611
3.51389
7.2165
10.6676
13.4907
15.7094
17.5401
19.0954
20.4183
21.5214
22.3748
22.9096
22.7793
-19.2788
-17.336
-15.2526
-12.6638
-9.9444
-6.9712
-3.7317
-0.311839
3.27873
6.99233
10.4415
13.2539
15.4733
17.3219
18.9183
20.3237
21.5531
22.5574
23.287
23.3127
-19.651
-17.7497
-15.6407
-12.9424
-10.1794
-7.20274
-3.96859
-0.555522
3.04084
6.75987
10.193
12.9761
15.1758
17.0205
18.628
20.0681
21.3721
22.5005
23.0697
23.0057
-19.9441
-17.9053
-15.6857
-13.0355
-10.4011
-7.41907
-4.19717
-0.789101
2.80953
6.52156
9.9214
12.6574
14.8151
16.6249
18.2015
19.6077
20.8468
21.8086
22.1849
22.2015
-20.1196
-18.0449
-15.8203
-13.243
-10.6337
-7.6327
-4.42223
-1.01399
2.58111
6.27134
9.6235
12.2973
14.3884
16.1293
17.6267
18.925
20.0015
20.6268
20.8639
21.0137
-20.3727
-18.5316
-16.4667
-13.72
-10.8818
-7.87452
-4.65095
-1.23911
2.34627
6.00233
9.29889
11.8985
13.8977
15.5313
16.8921
18.0178
18.9049
19.409
19.57
19.7947
-20.7132
-19.0121
-16.9116
-14.0188
-11.1586
-8.15042
-4.89276
-1.47815
2.09273
5.70756
8.94714
11.4631
13.3438
14.8279
16.0179
16.961
17.6684
18.0518
18.1249
18.4391
-20.9719
-19.0752
-16.8103
-14.0924
-11.4762
-8.42348
-5.15146
-1.73556
1.81622
5.3877
8.57086
10.9946
12.7338
14.0356
15.0302
15.7769
16.2446
16.486
16.5867
16.9287
-21.1253
-19.2246
-17.0353
-14.4601
-11.7977
-8.68542
-5.41636
-2.00128
1.52582
5.05414
8.17856
10.5014
12.0847
13.1811
13.9638
14.5167
14.7758
14.7649
14.6583
14.8782
-21.4264
-19.6753
-17.6024
-14.919
-12.0699
-8.95493
-5.67028
-2.26481
1.23384
4.71899
7.77865
9.99439
11.4233
12.3111
12.8606
13.2019
13.2367
12.6763
11.7375
11.8345
-21.7592
-19.9672
-17.7447
-15.0344
-12.2839
-9.19183
-5.90206
-2.51878
0.950542
4.39039
7.37737
9.48452
10.7735
11.4674
11.7661
11.8166
11.624
10.5488
8.3079
6.28902
-21.9232
-20.0389
-17.7497
-15.1155
-12.4679
-9.3691
-6.11175
-2.75416
0.685629
4.07717
6.98622
8.99013
10.1625
10.6988
10.7576
10.4602
9.94066
8.90575
5.0619
-5.17728
-22.0903
-20.257
-18.0477
-15.3738
-12.6431
-9.53192
-6.30448
-2.9692
0.439948
3.77825
6.60436
8.50988
9.58492
10.0033
9.87471
9.33039
8.61369
7.93477
7.32487
3.335
-22.3455
-20.5437
-18.2917
-15.5546
-12.805
-9.70204
-6.4896
-3.17714
0.199429
3.47932
6.22338
8.04089
9.03909
9.3962
9.21821
8.72064
8.16432
8.14137
9.04301
8.11467
-22.5347
-20.707
-18.3946
-15.6687
-12.9667
-9.86336
-6.67537
-3.38713
-0.0443396
3.17734
5.84979
7.6014
8.55326
8.92419
8.86603
8.58381
8.25372
8.20566
8.67467
8.19123
-22.6949
-20.8736
-18.5801
-15.8591
-13.1524
-10.0307
-6.87232
-3.60558
-0.295641
2.87429
5.49146
7.20912
8.15417
8.59794
8.7507
8.63803
8.39786
8.15337
8.2655
8.21135
-22.8819
-21.0883
-18.7947
-16.0809
-13.3586
-10.2168
-7.08452
-3.83583
-0.553238
2.57673
5.15754
6.87612
7.8603
8.39342
8.67472
8.72429
8.55153
8.27027
8.3624
8.40326
-23.0562
-21.279
-18.9638
-16.2791
-13.5603
-10.409
-7.30635
-4.07349
-0.810555
2.2932
4.85903
6.60978
7.66754
8.29069
8.65495
8.83017
8.77122
8.55258
8.6214
8.65358
-23.175
-21.4318
-19.1272
-16.477
-13.7427
-10.6002
-7.52679
-4.30729
-1.05845
2.03222
4.60585
6.41238
7.56086
8.27702
8.71983
9.00014
9.08929
8.93619
8.94635
8.99006
-23.2594
-21.5638
-19.2655
-16.645
-13.8769
-10.784
-7.73081
-4.52243
-1.28725
1.80036
4.40335
6.28447
7.53447
8.3499
8.87012
9.24296
9.52882
9.49128
9.50628
9.54625
-23.2683
-21.6338
-19.3442
-16.7472
-13.9726
-10.9445
-7.90299
-4.70769
-1.49053
1.603
4.2521
6.22261
7.58087
8.51233
9.13722
9.62604
10.0442
10.2355
10.3219
10.3709
-23.1905
-21.6294
-19.3447
-16.7712
-14.0199
-11.0583
-8.03176
-4.85879
-1.66436
1.44217
4.14903
6.21472
7.69276
8.7656
9.53587
10.148
10.7023
11.0994
11.2863
11.3551
-22.9989
-21.5169
-19.2576
-16.7288
-14.018
-11.113
-8.11563
-4.97483
-1.80729
1.31491
4.08979
6.24444
7.846
9.07244
10.0165
10.7643
11.3907
11.885
12.1613
12.2325
-22.6646
-21.2766
-19.0609
-16.5866
-13.9387
-11.098
-8.14755
-5.05299
-1.91723
1.21671
4.05337
6.28909
8.00227
9.37177
10.457
11.2771
11.9075
12.3944
12.6998
12.781
-22.1592
-20.8823
-18.7317
-16.3447
-13.774
-11.0106
-8.12386
-5.08864
-1.99478
1.13507
4.01102
6.3127
8.10381
9.53841
10.6423
11.4445
12.0525
12.5304
12.8496
12.9473
-21.4178
-20.284
-18.2451
-15.9618
-13.5008
-10.8408
-8.03735
-5.08136
-2.04721
1.05223
3.92908
6.25227
8.03836
9.43244
10.4926
11.2847
11.8988
12.3755
12.7012
12.8145
-20.4646
-19.5065
-17.5974
-15.4597
-13.128
-10.5879
-7.89036
-5.03305
-2.08258
0.947337
3.77021
6.03902
7.75821
9.10841
10.1706
10.9807
11.6044
12.0695
12.3895
12.5206
-19.2347
-18.4856
-16.7929
-14.8414
-12.6595
-10.2594
-7.68597
-4.95087
-2.11708
0.799551
3.51363
5.69336
7.3675
8.71295
9.78934
10.603
11.2208
11.6832
12.0086
12.1628
-17.8934
-17.3991
-15.9345
-14.1448
-12.1088
-9.85023
-7.41967
-4.83825
-2.15541
0.609551
3.19052
5.28859
6.92327
8.23262
9.2728
10.0706
10.6873
11.1578
11.497
11.6776
-16.6635
-16.4046
-15.0797
-13.4098
-11.4901
-9.36663
-7.09548
-4.69064
-2.18881
0.401537
2.83708
4.81775
6.34763
7.56137
8.5298
9.29188
9.89489
10.3661
10.7184
10.9311
-15.5803
-15.4193
-14.2012
-12.5877
-10.7431
-8.76565
-6.68063
-4.48248
-2.18854
0.195575
2.4372
4.23748
5.60682
6.68798
7.54852
8.22845
8.76354
9.1807
9.50206
9.71498
-14.4095
-14.3381
-13.1455
-11.558
-9.825
-8.03959
-6.16783
-4.19421
-2.12932
0.0179812
2.04121
3.66421
4.88644
5.83964
6.58079
7.14329
7.56703
7.88034
8.10148
8.24409
-12.6289
-12.6085
-11.4403
-10.0844
-8.61946
-7.09724
-5.50346
-3.80687
-2.00656
-0.109855
1.68851
3.13811
4.22079
5.04903
5.68504
6.13713
6.45851
6.68109
6.81837
6.89211
-9.59521
-9.53493
-8.9414
-8.12941
-7.09617
-5.941
-4.68337
-3.30693
-1.80092
-0.187549
1.35337
2.59868
3.51317
4.18921
4.69845
5.04035
5.26732
5.4111
5.49325
5.5315
-6.02419
-6.04623
-5.97565
-5.77772
-5.30034
-4.59351
-3.73595
-2.69333
-1.50598
-0.205208
1.06354
2.09795
2.84189
3.36809
3.75822
4.012
4.17383
4.26897
4.31958
4.35266
-3.58997
-3.58931
-3.59547
-3.61537
-3.47644
-3.17814
-2.70923
-2.00719
-1.15408
-0.162315
0.843396
1.67184
2.26256
2.6616
2.95249
3.13897
3.25931
3.33566
3.38019
3.41471
-1.96079
-1.96842
-1.97974
-2.01228
-1.99035
-1.91993
-1.7393
-1.33097
-0.77534
-0.0570282
0.705428
1.34022
1.80192
2.10344
2.32298
2.46548
2.56385
2.63722
2.68065
2.70575
-0.985302
-1.00335
-1.02681
-1.05305
-1.04251
-1.03408
-0.966402
-0.741986
-0.406201
0.0861117
0.6383
1.10727
1.4656
1.69953
1.8765
1.99668
2.08051
2.15128
2.18573
2.20482
-0.446847
-0.47054
-0.524793
-0.568934
-0.552706
-0.528179
-0.459676
-0.306916
-0.111291
0.220893
0.618803
0.965496
1.24668
1.43348
1.58134
1.69009
1.75475
1.81152
1.83512
1.84563
-0.183607
-0.204745
-0.264151
-0.317459
-0.307777
-0.271179
-0.189253
-0.0578947
0.0659882
0.319903
0.62609
0.89268
1.11779
1.26743
1.38623
1.48354
1.52157
1.55778
1.56864
1.57342
-0.059063
-0.0730238
-0.115705
-0.158758
-0.159642
-0.138559
-0.0784805
0.0366081
0.147618
0.381072
0.634138
0.846269
1.02855
1.14837
1.23139
1.31252
1.32437
1.33992
1.34203
1.34534
0.0315355
0.0231353
-0.00291545
-0.0323641
-0.0436668
-0.0585185
-0.035314
0.0556012
0.182111
0.399373
0.609994
0.783067
0.931542
1.02933
1.06973
1.1263
1.13076
1.13919
1.13635
1.13706
0.121111
0.115495
0.0965505
0.0751083
0.0598343
0.027762
0.025891
0.0913567
0.197707
0.373299
0.545349
0.691703
0.80771
0.888421
0.896307
0.92993
0.935767
0.945739
0.944133
0.944609
0.187472
0.184089
0.170801
0.159366
0.155816
0.141234
0.144133
0.173619
0.215888
0.334008
0.471765
0.58982
0.669286
0.731025
0.733993
0.755953
0.761023
0.770533
0.770272
0.771398
0.236415
0.234341
0.22796
0.226544
0.233132
0.239854
0.256366
0.26708
0.25911
0.328197
0.418628
0.498759
0.543739
0.588396
0.601191
0.621365
0.623723
0.629861
0.628378
0.628977
0.283771
0.280735
0.274852
0.275333
0.27507
0.281183
0.293607
0.31252
0.309159
0.350292
0.387426
0.433512
0.457335
0.491241
0.505982
0.522141
0.521388
0.523609
0.519487
0.518608
0.31313
0.308203
0.297614
0.290879
0.27792
0.273896
0.266441
0.298632
0.312682
0.353436
0.364642
0.394733
0.41142
0.434965
0.44085
0.44894
0.443064
0.441349
0.434354
0.431657
0.310463
0.304814
0.292739
0.281469
0.262576
0.256625
0.240131
0.261185
0.273375
0.318979
0.333284
0.365315
0.376325
0.389976
0.384979
0.387749
0.37722
0.373096
0.364448
0.360574
0.284597
0.279744
0.270686
0.264545
0.249664
0.24902
0.2326
0.238262
0.237136
0.272417
0.290212
0.324671
0.328223
0.337242
0.327415
0.327441
0.31647
0.312761
0.30478
0.300788
0.25625
0.252441
0.247239
0.24669
0.235841
0.241177
0.225614
0.2327
0.217891
0.240007
0.245246
0.273675
0.271315
0.278525
0.27014
0.270684
0.261293
0.25905
0.252953
0.24912
0.232213
0.228899
0.225671
0.226465
0.216903
0.223864
0.208721
0.221321
0.20336
0.218295
0.20872
0.228012
0.22049
0.227603
0.219299
0.221831
0.213687
0.212335
0.207701
0.204073
0.205876
0.201719
0.199525
0.199105
0.188094
0.195119
0.178676
0.192636
0.17804
0.194694
0.179493
0.191913
0.181648
0.189139
0.179137
0.182155
0.173855
0.172284
0.168497
0.164929
0.171432
0.166909
0.165863
0.165231
0.155041
0.1609
0.143002
0.158331
0.141268
0.162764
0.147755
0.159122
0.148363
0.155569
0.14469
0.147217
0.139277
0.137588
0.134591
0.131296
0.133391
0.128392
0.129144
0.128781
0.119652
0.12726
0.110206
0.126831
0.104691
0.12749
0.111703
0.125549
0.113761
0.121216
0.110864
0.113405
0.106892
0.105494
0.103738
0.100672
0.0960184
0.0910425
0.0932289
0.0925519
0.0863745
0.0938533
0.0788906
0.0949188
0.0723624
0.0937013
0.0756063
0.0906911
0.0780446
0.0861054
0.076939
0.0800381
0.0751232
0.0741806
0.0736744
0.0710598
0.0593075
0.0545986
0.0583112
0.0562877
0.0514108
0.0596412
0.0457367
0.0619284
0.0415159
0.0604986
0.0419197
0.0558138
0.0436014
0.05201
0.0440603
0.047915
0.0440514
0.0436798
0.0438939
0.041739
0.0230207
0.0199237
0.0250394
0.0207564
0.0158123
0.02321
0.0113851
0.0250753
0.0101135
0.023425
0.010681
0.0203554
0.0120663
0.0184655
0.0128473
0.0162556
0.013716
0.013699
0.0146979
0.0131732
11.8864
16.2071
17.3084
18.7079
19.8555
20.8823
21.7876
22.5691
23.1395
23.2675
16.5948
18.7047
19.408
20.302
21.084
21.761
22.3295
22.7761
23.0213
23.025
19.1527
20.1975
20.7331
21.2885
21.7835
22.2097
22.5547
22.8066
22.9414
22.9626
20.5646
21.2101
21.5593
21.9114
22.2136
22.4693
22.6716
22.8114
22.8908
22.9208
21.494
21.8327
22.051
22.2676
22.4576
22.6178
22.7415
22.8271
22.8745
22.903
22.0106
22.2395
22.37
22.5129
22.6296
22.7248
22.7989
22.8514
22.8847
22.9081
22.3543
22.5051
22.5737
22.6644
22.7372
22.7973
22.8449
22.881
22.9035
22.9274
22.583
22.6744
22.7191
22.773
22.8189
22.8579
22.8908
22.9184
22.9397
22.9595
22.7449
22.8006
22.8277
22.8585
22.8911
22.9204
22.9457
22.9711
22.9889
23.0104
22.8655
22.8992
22.9247
22.9477
22.972
22.9959
23.0157
23.0347
23.048
23.0652
22.9782
23.0025
23.0228
23.04
23.0564
23.0719
23.086
23.099
23.1071
23.1237
23.0829
23.0974
23.1129
23.1261
23.1378
23.1483
23.1582
23.1672
23.1734
23.1861
23.1774
23.1866
23.2007
23.2113
23.2201
23.2285
23.2366
23.2445
23.2467
23.2554
23.2752
23.2811
23.2911
23.2979
23.3023
23.3072
23.3129
23.3195
23.3226
23.332
23.3909
23.3789
23.3719
23.3664
23.3641
23.3655
23.3717
23.3835
23.398
23.426
23.5141
23.4581
23.4266
23.4081
23.3996
23.3998
23.4092
23.4294
23.4609
23.531
)
;

boundaryField
{
    wall-4
    {
        type            zeroGradient;
    }
    pressure-outlet-7
    {
        type            fixedValue;
        value           uniform 0;
    }
    velocity-inlet-6
    {
        type            zeroGradient;
    }
    velocity-inlet-5
    {
        type            zeroGradient;
    }
    frontAndBackPlanes
    {
        type            empty;
    }
}


// ************************************************************************* //
