/*--------------------------------*- C++ -*----------------------------------*\
| =========                 |                                                 |
| \\      /  F ield         | OpenFOAM: The Open Source CFD Toolbox           |
|  \\    /   O peration     | Version:  2412                                  |
|   \\  /    A nd           | Website:  www.openfoam.com                      |
|    \\/     M anipulation  |                                                 |
\*---------------------------------------------------------------------------*/
FoamFile
{
    version     2.0;
    format      ascii;
    arch        "LSB;label=32;scalar=64";
    class       surfaceScalarField;
    location    "5";
    object      phi;
}
// * * * * * * * * * * * * * * * * * * * * * * * * * * * * * * * * * * * * * //

dimensions      [0 3 -1 0 0 0 0];

oriented        oriented;

internalField   nonuniform List<scalar> 
4262
(
0.00169998
0.218813
3.72408e-05
0.830316
-0.00142661
1.76861
-0.00258817
3.16633
-0.00430005
5.18632
-0.00607454
8.01614
-0.00714364
11.8482
-0.00800679
16.8206
-0.00859975
22.8824
-0.00821165
29.528
-0.00772168
29.5279
-0.00629901
22.8804
-0.005271
16.8187
-0.00414299
11.846
-0.00352016
8.01374
-0.00308633
5.18417
-0.00245918
3.16454
-0.00318755
1.76787
-0.00358826
0.829054
0.216924
-0.00295835
0.221771
-0.00305905
0.830417
-0.00608414
1.77163
-0.0101522
3.1704
-0.0163389
5.1925
-0.0203335
8.02013
-0.024178
11.8521
-0.0281956
16.8246
-0.030272
22.8845
-0.0262208
29.5239
-0.0205573
29.5222
-0.0155997
22.8754
-0.0130459
16.8162
-0.0098427
11.8428
-0.00764518
8.01154
-0.00620341
5.18273
-0.00474353
3.16308
-0.0037367
1.76686
-0.000148469
0.825466
0.216776
-0.0085321
0.230303
-0.00989945
0.831784
-0.0148422
1.77658
-0.0222188
3.17777
-0.0286354
5.19892
-0.0338115
8.02531
-0.03945
11.8577
-0.0419928
16.8272
-0.0447058
22.8872
-0.0399331
29.5191
-0.0327337
29.515
-0.0261968
22.8689
-0.0192312
16.8092
-0.013977
11.8376
-0.00910982
8.00668
-0.00579135
5.17941
-0.00341248
3.1607
0.00014014
1.76331
0.00519238
0.820413
0.221968
-0.0155234
0.245827
-0.0213639
0.837625
-0.0322685
1.78748
-0.0423822
3.18789
-0.0478543
5.20439
-0.0531057
8.03056
-0.0588062
11.8634
-0.060218
16.8286
-0.0629398
22.8899
-0.0551259
29.5113
-0.0452711
29.5051
-0.0349523
22.8586
-0.0215911
16.7958
-0.0122362
11.8282
-0.00361253
7.99805
0.00124761
5.17455
0.00326683
3.15868
0.00476372
1.76182
0.0089303
0.816247
0.230899
-0.0220082
0.267835
-0.0345225
0.850139
-0.0514836
1.80444
-0.0644089
3.20081
-0.0752594
5.21524
-0.0774079
8.03271
-0.0802168
11.8662
-0.0797869
16.8281
-0.0803763
22.8905
-0.0674934
29.4984
-0.0520475
29.4897
-0.03768
22.8442
-0.0205739
16.7787
-0.00772823
11.8154
0.00459471
7.98573
0.0111318
5.16801
0.0153352
3.15448
0.0146242
1.76253
0.0136525
0.817219
0.244551
-0.023794
0.291629
-0.0497742
0.876119
-0.0640469
1.81871
-0.0771734
3.21394
-0.0957158
5.23378
-0.104544
8.04154
-0.104329
11.866
-0.102225
16.826
-0.0986565
22.8869
-0.0832334
29.483
-0.0641172
29.4706
-0.0414805
22.8216
-0.0196089
16.7569
0.00116121
11.7946
0.013648
7.97324
0.019266
5.16239
0.0256973
3.14805
0.0288556
1.75937
0.0161886
0.829886
0.26074
-0.0263808
0.318009
-0.0671876
0.916926
-0.0738871
1.82541
-0.0883195
3.22837
-0.108102
5.25357
-0.126556
8.05999
-0.130937
11.8704
-0.129915
16.825
-0.121384
22.8784
-0.0967278
29.4584
-0.0692835
29.4431
-0.0374789
22.7898
-0.0122688
16.7316
0.00954567
11.7728
0.0196742
7.96312
0.0265866
5.15548
0.0332289
3.1414
0.0430603
1.74954
0.0166024
0.856344
0.277342
-0.031788
0.349797
-0.0805932
0.965731
-0.0847988
1.82962
-0.106469
3.25004
-0.121504
5.2686
-0.140562
8.07905
-0.15353
11.8833
-0.159547
16.831
-0.149171
22.868
-0.113217
29.4224
-0.0744279
29.4044
-0.0371325
22.7525
-0.0129875
16.7075
0.00699299
11.7528
0.0190451
7.95106
0.0317815
5.14275
0.0369246
3.13626
0.0543297
1.73213
0.0203993
0.890274
0.297741
-0.0352045
0.385002
-0.0857709
1.0163
-0.0918605
1.83571
-0.114246
3.27243
-0.126627
5.28098
-0.148959
8.10138
-0.165063
11.8994
-0.178124
16.8441
-0.174714
22.8646
-0.130764
29.3785
-0.0810363
29.3546
-0.0420316
22.7135
-0.0206991
16.6862
0.000656304
11.7314
0.013323
7.9384
0.0284987
5.12757
0.0360338
3.12873
0.0560338
1.71213
0.0223118
0.923996
0.320053
-0.0363111
0.421313
-0.0892716
1.06926
-0.10029
1.84673
-0.123562
3.2957
-0.144052
5.30147
-0.165412
8.12274
-0.185308
11.9193
-0.197178
16.856
-0.198713
22.8662
-0.150761
29.3305
-0.096188
29.3
-0.0586531
22.6759
-0.0285598
16.6561
-0.00498523
11.7079
0.0154362
7.91798
0.0305679
5.11244
0.0406191
3.11868
0.0531636
1.69959
0.0209291
0.95623
0.340982
-0.0383984
0.459712
-0.0947746
1.12563
-0.11849
1.87044
-0.140154
3.31736
-0.173291
5.33461
-0.196198
8.14565
-0.213173
11.9363
-0.217859
16.8607
-0.218407
22.8667
-0.172944
29.285
-0.11737
29.2445
-0.069689
22.6283
-0.0275112
16.6139
0.0034113
11.6769
0.0317975
7.88959
0.0398747
5.10436
0.0548078
3.10374
0.0582859
1.69611
0.0226621
0.991854
0.363644
-0.046467
0.506179
-0.114552
1.19372
-0.160823
1.91671
-0.182036
3.33857
-0.230017
5.38259
-0.25338
8.16901
-0.26618
11.9491
-0.261211
16.8557
-0.249815
22.8553
-0.19982
29.2351
-0.139821
29.1845
-0.0762161
22.5647
-0.0152394
16.5529
0.034282
11.6274
0.0653204
7.85855
0.0677127
5.10197
0.0889045
3.08255
0.074756
1.71026
0.0296003
1.03701
0.393245
-0.0613452
0.567524
-0.147723
1.2801
-0.218881
1.98787
-0.249836
3.36953
-0.300953
5.43371
-0.329272
8.19733
-0.339517
11.9594
-0.322716
16.8389
-0.296872
22.8295
-0.228798
29.167
-0.152097
29.1078
-0.0597819
22.4723
0.0229074
16.4702
0.0797128
11.5706
0.11362
7.82464
0.119738
5.09585
0.137898
3.06439
0.0988354
1.74932
0.0397982
1.09605
0.433043
-0.0723618
0.639886
-0.171412
1.37915
-0.26454
2.081
-0.313447
3.41844
-0.364964
5.48522
-0.399526
8.23189
-0.418017
11.9778
-0.407897
16.8288
-0.36714
22.7887
-0.265327
29.0652
-0.149535
28.992
-0.036554
22.3594
0.054287
16.3794
0.11635
11.5085
0.150286
7.79071
0.169436
5.0767
0.178249
3.05558
0.121012
1.80656
0.0487824
1.16828
0.481825
-0.0847321
0.724618
-0.200871
1.49529
-0.307449
2.18758
-0.366896
3.47788
-0.4167
5.53503
-0.468262
8.28345
-0.495756
12.0053
-0.493226
16.8262
-0.445609
22.7411
-0.307567
28.9271
-0.150319
28.8347
-0.0206065
22.2296
0.0762173
16.2826
0.145539
11.4392
0.178046
7.7582
0.202699
5.05205
0.196003
3.06227
0.129646
1.87291
0.051316
1.24661
0.533142
-0.0858405
0.810458
-0.208327
1.61777
-0.335195
2.31444
-0.424188
3.56688
-0.488123
5.59896
-0.551263
8.34659
-0.578613
12.0327
-0.582915
16.8305
-0.529302
22.6875
-0.355149
28.753
-0.158234
28.6378
-0.0102662
22.0817
0.0966091
16.1757
0.171069
11.3648
0.201936
7.72733
0.23617
5.01781
0.222516
3.07593
0.145049
1.95038
0.0558248
1.33583
0.588966
-0.106472
0.916931
-0.25069
1.76199
-0.390557
2.45431
-0.486841
3.66316
-0.5511
5.66322
-0.628221
8.42372
-0.663594
12.0681
-0.668494
16.8354
-0.605775
22.6248
-0.416226
28.5634
-0.20584
28.4274
-0.0336197
21.9095
0.102226
16.0398
0.198207
11.2688
0.239973
7.68557
0.27202
4.98577
0.237355
3.11059
0.148
2.03974
0.0546808
1.42915
0.643647
-0.102751
1.01968
-0.255447
1.91469
-0.42176
2.62063
-0.556033
3.79743
-0.645826
5.75302
-0.728531
8.50642
-0.758204
12.0977
-0.754341
16.8316
-0.684959
22.5554
-0.491224
28.3697
-0.276411
28.2126
-0.0779659
21.711
0.0987874
15.8631
0.214652
11.1529
0.27178
7.62844
0.308964
4.94858
0.26643
3.15313
0.163502
2.14266
0.0587807
1.53387
0.702428
-0.12999
1.14967
-0.302907
2.0876
-0.482165
2.79988
-0.632579
3.94785
-0.738275
5.85871
-0.830576
8.59872
-0.88032
12.1475
-0.885592
16.8368
-0.801915
22.4717
-0.586293
28.1541
-0.335514
27.9618
-0.102858
21.4784
0.101808
15.6584
0.235863
11.0189
0.315105
7.5492
0.336837
4.92685
0.271927
3.21804
0.159804
2.25479
0.0524251
1.64125
0.754853
-0.127524
1.2772
-0.314978
2.27506
-0.52248
3.00739
-0.708641
4.13401
-0.847402
5.99747
-0.95884
8.71016
-1.03982
12.2285
-1.07345
16.8705
-0.966703
22.365
-0.691423
27.8788
-0.366064
27.6365
-0.0947546
21.207
0.118925
15.4447
0.25703
10.8808
0.35645
7.44978
0.37231
4.91099
0.294643
3.2957
0.167928
2.3815
0.0475144
1.76166
0.802367
-0.152646
1.42984
-0.359273
2.48168
-0.58566
3.23377
-0.796848
4.3452
-0.97131
6.17194
-1.10716
8.84601
-1.22037
12.3417
-1.27728
16.9274
-1.14861
22.2363
-0.822718
27.5529
-0.43526
27.249
-0.121295
20.8931
0.11587
15.2076
0.277168
10.7195
0.387606
7.33934
0.386957
4.91164
0.293254
3.38941
0.154314
2.52044
0.0292308
1.88675
0.831598
-0.159402
1.58924
-0.388261
2.71054
-0.644744
3.49026
-0.897849
4.5983
-1.11406
6.38815
-1.2845
9.01644
-1.42727
12.4844
-1.49237
16.9925
-1.33895
22.0829
-0.976721
27.1907
-0.541279
26.8136
-0.182689
20.5345
0.0890785
14.9358
0.283294
10.5252
0.398748
7.22389
0.384778
4.92561
0.272279
3.50191
0.125799
2.66692
0.00616359
2.00638
0.837762
-0.190296
1.77954
-0.441161
2.96141
-0.728331
3.77743
-1.02034
4.89031
-1.29332
6.66112
-1.51483
9.23795
-1.68882
12.6584
-1.75369
17.0574
-1.56209
21.8913
-1.16968
26.7983
-0.677535
26.3214
-0.268032
20.125
0.0462335
14.6215
0.287348
10.2841
0.409005
7.10223
0.381714
4.9529
0.260581
3.62304
0.0998632
2.82764
-0.0168427
2.12309
0.820919
-0.234352
2.01389
-0.525925
3.25298
-0.860818
4.11232
-1.22924
5.25873
-1.5744
7.00628
-1.84051
9.50407
-2.04218
12.8601
-2.08501
17.1002
-1.84185
21.6481
-1.39901
26.3554
-0.810096
25.7325
-0.322176
19.6371
0.0515787
14.2478
0.305074
10.0306
0.406307
7.001
0.35271
5.0065
0.22398
3.75177
0.0937694
2.95785
-0.0321114
2.24897
0.788808
-0.300521
2.31441
-0.632921
3.58538
-1.07564
4.55504
-1.52001
5.7031
-1.91726
7.40353
-2.23259
9.8194
-2.45092
13.0784
-2.45183
17.1011
-2.16027
21.3565
-1.65398
25.8491
-0.975567
25.0541
-0.415725
19.0772
0.00898253
13.8231
0.280921
9.7587
0.367673
6.91425
0.307351
5.06682
0.16677
3.89235
0.00495738
3.11966
-0.0845603
2.33849
0.704247
-0.454678
2.76909
-0.950089
4.08079
-1.44614
5.05109
-1.91225
6.16921
-2.34875
7.84004
-2.69403
10.1647
-2.90375
13.2882
-2.84489
17.0422
-2.51123
21.0229
-1.93906
25.277
-1.18509
24.3002
-0.538354
18.4305
-0.0428017
13.3275
0.21914
9.49675
0.254917
6.87847
0.145668
5.17607
-0.0164008
4.05442
-0.148697
3.25196
-0.145631
2.33542
0.558616
-0.371771
3.14086
-0.816073
4.52509
-1.24307
5.47808
-1.70305
6.62919
-2.17409
8.31108
-2.57364
10.5642
-2.85587
13.5704
-2.88509
17.0715
-2.65658
20.7944
-2.07919
24.6996
-1.19365
23.4146
-0.353589
17.5904
0.263564
12.7104
0.516732
9.24359
0.493443
6.90176
0.318584
5.35093
0.0975706
4.27543
-0.0751385
3.42467
-0.094162
2.35444
0.464454
-0.216784
3.35764
-0.496939
4.80525
-0.877195
5.85834
-1.29898
7.05098
-1.69031
8.70241
-1.98966
10.8636
-2.16037
13.7411
-2.10984
17.0209
-1.84809
20.5326
-1.2471
24.0986
-0.408814
22.5763
0.312823
16.8688
0.750057
12.2731
0.850313
9.14333
0.731613
7.02046
0.529287
5.55325
0.320293
4.48443
0.146029
3.59893
0.0746617
2.42581
0.539116
-0.180905
3.53855
-0.404883
5.02923
-0.691904
6.14536
-1.01283
7.37191
-1.32002
9.0096
-1.56577
11.1093
-1.67109
13.8464
-1.58222
16.9321
-1.30461
20.255
-0.723249
23.5172
0.0240205
21.8291
0.598759
16.2941
0.832055
12.0398
0.801467
9.17392
0.629419
7.19251
0.431647
5.75103
0.272268
4.64381
0.182058
3.68914
0.105361
2.50251
0.644477
-0.140146
3.6787
-0.32917
5.21825
-0.563928
6.38012
-0.818316
7.6263
-1.06039
9.25168
-1.26574
11.3147
-1.32542
13.9061
-1.22971
16.8363
-0.953369
19.9787
-0.423731
22.9876
0.207409
21.1979
0.625105
15.8764
0.752075
11.9129
0.714571
9.21142
0.619336
7.28774
0.488956
5.8814
0.342538
4.79022
0.214434
3.81725
0.122102
2.59484
0.766579
-0.0930581
3.77175
-0.298063
5.42326
-0.486796
6.56885
-0.686971
7.82647
-0.881988
9.44669
-1.05042
11.4831
-1.08628
13.942
-0.991946
16.742
-0.735149
19.7219
-0.275049
22.5275
0.231032
20.6918
0.524872
15.5825
0.573495
11.8643
0.487704
9.29721
0.347352
7.42809
0.235187
5.99357
0.173814
4.8516
0.142461
3.8486
0.0972819
2.64002
0.863861
-0.0657516
3.8375
-0.263693
5.6212
-0.452632
6.75779
-0.613871
7.98771
-0.771787
9.60461
-0.89404
11.6054
-0.922966
13.9709
-0.832298
16.6513
-0.60437
19.4939
-0.216238
22.1393
0.174941
20.3007
0.373535
15.3839
0.390623
11.8472
0.349819
9.33802
0.327894
7.45002
0.295966
6.0255
0.260632
4.88693
0.189901
3.91933
0.105753
2.72417
0.969614
-0.0387354
3.87624
-0.199746
5.78221
-0.376123
6.93416
-0.540253
8.15184
-0.682593
9.74695
-0.778732
11.7015
-0.803864
13.996
-0.725947
16.5734
-0.531909
19.2999
-0.213881
21.8213
0.0750304
20.0117
0.216275
15.2427
0.240958
11.8225
0.214562
9.36441
0.147881
7.5167
0.0833945
6.08998
0.0454594
4.92487
0.0521257
3.91266
0.0445738
2.73172
1.01419
-0.0322512
3.90849
-0.167837
5.9178
-0.311208
7.07754
-0.46571
8.30634
-0.602387
9.88363
-0.690774
11.7899
-0.714566
14.0198
-0.653118
16.512
-0.492655
19.1394
-0.236087
21.5648
-0.0118032
19.7875
0.0945429
15.1363
0.118909
11.7981
0.11241
9.37091
0.119527
7.50958
0.129474
6.08004
0.113517
4.94082
0.0532746
3.97291
0.00548062
2.77951
1.01967
-0.0176423
3.92613
-0.122565
6.02272
-0.244727
7.1997
-0.393339
8.45495
-0.526086
10.0164
-0.6173
11.8811
-0.646185
14.0487
-0.60121
16.467
-0.471386
19.0096
-0.268016
21.3614
-0.0965217
19.616
-0.0187178
15.0585
0.00625106
11.7732
0.0232618
9.3539
0.00364336
7.5292
-0.0277215
6.1114
-0.0291769
4.94228
-0.00455633
3.94829
-0.00296698
2.77792
1.0167
-0.00139323
3.92753
-0.083652
6.10498
-0.199485
7.31553
-0.336584
8.59205
-0.461593
10.1414
-0.552226
11.9717
-0.588011
14.0845
-0.559029
16.438
-0.456828
18.9074
-0.29955
21.2041
-0.168452
19.4849
-0.0971549
14.9872
-0.0613177
11.7373
-0.0519403
9.34452
-0.0356012
7.51286
-0.0088788
6.08468
-0.0129467
4.94635
-0.0183061
3.95365
-0.01822
2.77784
0.998481
-0.00163797
3.92917
-0.076889
6.18023
-0.166016
7.40466
-0.286725
8.71276
-0.403059
10.2577
-0.491892
12.0606
-0.535683
14.1283
-0.521164
16.4235
-0.445555
18.8318
-0.328298
21.0868
-0.235618
19.3922
-0.187715
14.9393
-0.160491
11.7101
-0.125525
9.30956
-0.101888
7.48923
-0.0892208
6.07201
-0.0603559
4.91748
-0.0330351
3.92632
-0.0205298
2.76533
0.977952
0.0205527
3.90861
-0.0501689
6.25095
-0.152896
7.50738
-0.254609
8.81448
-0.352182
10.3553
-0.434605
12.143
-0.483702
14.1774
-0.483248
16.423
-0.433407
18.782
-0.3518
21.0052
-0.294689
19.3351
-0.256329
14.901
-0.219648
11.6734
-0.188112
9.27802
-0.151852
7.45297
-0.112775
6.03294
-0.0871056
4.89181
-0.0704532
3.90967
-0.0380996
2.73298
0.939852
-0.000423441
3.90904
-0.0587854
6.30931
-0.131339
7.57994
-0.217911
8.90105
-0.305076
10.4425
-0.382314
12.2202
-0.434357
14.2294
-0.446552
16.4352
-0.420643
18.7561
-0.371612
20.9562
-0.345366
19.3088
-0.328063
14.8837
-0.303518
11.6489
-0.25631
9.23081
-0.197893
7.39455
-0.152936
5.98798
-0.115889
4.85477
-0.0724272
3.86621
-0.0431371
2.70369
0.896715
0.00590115
3.90313
-0.0578187
6.37303
-0.124477
7.6466
-0.193972
8.97054
-0.26658
10.5151
-0.336002
12.2896
-0.388028
14.2814
-0.410972
16.4582
-0.405656
18.7507
-0.384519
20.9351
-0.382135
19.3064
-0.378153
14.8797
-0.351243
11.622
-0.316563
9.19613
-0.274963
7.35295
-0.219729
5.93275
-0.162619
4.79766
-0.120187
3.82378
-0.0629632
2.64647
0.833752
0.00687026
3.89626
-0.0462616
6.42616
-0.106486
7.70682
-0.170962
9.03502
-0.235057
10.5792
-0.297605
12.3522
-0.348106
14.3319
-0.378508
16.4886
-0.389446
18.7617
-0.391632
20.9373
-0.407325
19.3221
-0.422869
14.8952
-0.412937
11.612
-0.375593
9.15879
-0.311462
7.28882
-0.249211
5.87049
-0.198345
4.74679
-0.134067
3.7595
-0.0720956
2.58449
0.761656
-0.00211959
3.89838
-0.0514226
6.47547
-0.0923983
7.7478
-0.152559
9.09518
-0.209661
10.6363
-0.265828
12.4084
-0.313017
14.3791
-0.348247
16.5238
-0.371421
18.7849
-0.391869
20.9577
-0.422895
19.3532
-0.450204
14.9225
-0.455838
11.6177
-0.435079
9.13803
-0.400114
7.25385
-0.344532
5.81491
-0.264657
4.66691
-0.188418
3.68326
-0.095477
2.49155
0.666179
0.00798525
3.8904
-0.0349411
6.51839
-0.080094
7.79295
-0.136414
9.1515
-0.187559
10.6874
-0.239125
12.4599
-0.283295
14.4233
-0.32114
16.5617
-0.352931
18.8166
-0.387753
20.9925
-0.43299
19.3984
-0.471705
14.9613
-0.500874
11.6468
-0.489936
9.12709
-0.439275
7.20319
-0.37413
5.74977
-0.308675
4.60146
-0.210544
3.58513
-0.113066
2.39408
0.553113
0.00145538
3.88894
-0.0343248
6.55417
-0.0676594
7.82628
-0.120348
9.20419
-0.168588
10.7356
-0.215671
12.507
-0.256813
14.4644
-0.296063
16.6009
-0.333942
18.8545
-0.379665
21.0383
-0.437263
19.456
-0.488141
15.0121
-0.522097
11.6808
-0.541247
9.14624
-0.530552
7.1925
-0.486666
5.70588
-0.403432
4.51822
-0.291979
3.47368
-0.146823
2.24892
0.406289
0.00569014
3.88325
-0.0228076
6.58267
-0.0560261
7.8595
-0.105466
9.25363
-0.151477
10.7817
-0.194397
12.5499
-0.233689
14.5037
-0.273645
16.6409
-0.315651
18.8965
-0.369564
21.0922
-0.437467
19.5239
-0.50037
15.075
-0.547261
11.7277
-0.572554
9.17154
-0.570727
7.19067
-0.523467
5.65862
-0.455255
4.45001
-0.324063
3.34249
-0.15069
2.07555
0.255599
0.0016566
3.8816
-0.0222878
6.60662
-0.0532143
7.89043
-0.0952884
9.29571
-0.135494
10.8219
-0.175916
12.5904
-0.21389
14.5417
-0.254773
16.6818
-0.30014
18.9419
-0.360229
21.1523
-0.436263
19.5999
-0.510757
15.1495
-0.571125
11.788
-0.610285
9.2107
-0.636757
7.21714
-0.632892
5.65476
-0.568175
4.3853
-0.427215
3.20152
-0.0945481
1.74288
0.161051
-0.00145035
3.88305
-0.0169889
6.62215
-0.0456392
7.91908
-0.0842655
9.33433
-0.124257
10.8619
-0.166324
12.6324
-0.206853
14.5822
-0.252601
16.7275
-0.305516
18.9948
-0.377473
21.2242
-0.469981
19.6924
-0.565422
15.245
-0.650809
11.8734
-0.715395
9.27528
-0.746331
7.24808
-0.742974
5.6514
-0.683511
4.32583
-0.487569
3.00558
-0.274912
1.53022
0.657903
-0.771764
0.000873384
3.88217
-0.0172398
6.64027
-0.0446151
7.94645
-0.075208
9.36492
-0.115239
10.9019
-0.153313
12.6705
-0.194669
14.6236
-0.242713
16.7755
-0.299995
19.0521
-0.379683
21.3039
-0.484222
19.797
-0.597174
15.3579
-0.706559
11.9828
-0.801278
9.37
-0.87973
7.32653
-0.958235
5.7299
-1.02067
4.38827
-0.888434
2.87335
-0.905938
1.54773
1.178
-1.42603
0.000947227
3.88123
-0.0100169
6.65123
-0.0389248
7.97536
-0.0703313
9.39633
-0.108387
10.9399
-0.141168
12.7033
-0.18368
14.6661
-0.233445
16.8253
-0.294396
19.113
-0.381249
21.3908
-0.497576
19.9133
-0.628347
15.4887
-0.763867
12.1183
-0.898382
9.50452
-1.02832
7.45646
-1.12002
5.82161
-1.10425
4.3725
-0.988288
2.75739
-1.2978
1.85724
1.59005
-1.70985
-0.00703517
3.88826
-0.0133478
6.65754
-0.0377923
7.99981
-0.0643781
9.42292
-0.0958342
10.9714
-0.129642
12.7371
-0.172172
14.7086
-0.223046
16.8762
-0.286924
19.1769
-0.380402
21.4842
-0.507425
20.0403
-0.654432
15.6357
-0.816397
12.2803
-0.989574
9.67769
-1.1772
7.64409
-1.33552
5.97992
-1.30298
4.33996
-1.37194
2.82635
-1.68892
2.17422
1.85439
-1.95326
-0.00506488
3.89333
-0.0113633
6.66384
-0.0330715
8.02151
-0.0529445
9.44279
-0.082051
11.0005
-0.119825
12.7749
-0.161178
14.75
-0.212897
16.9279
-0.278918
19.2429
-0.378437
21.5837
-0.514953
20.1768
-0.677058
15.7978
-0.866298
12.4695
-1.07502
9.88642
-1.26826
7.83733
-1.36716
6.07883
-1.33981
4.31261
-1.55528
3.04182
-1.87419
2.49312
2.07156
-2.09136
0.00490224
3.88842
-0.012446
6.68119
-0.0332717
8.04234
-0.0542406
9.46376
-0.0818346
11.0281
-0.115261
12.8083
-0.156152
14.7909
-0.208126
16.9799
-0.276241
19.3111
-0.381492
21.689
-0.52612
20.3215
-0.699755
15.9714
-0.906361
12.6761
-1.12555
10.1056
-1.32067
8.03245
-1.47922
6.23737
-1.626
4.45939
-1.90355
3.31937
-2.1871
2.77667
2.21858
-2.33413
0.011388
3.87704
-0.00468531
6.69726
-0.0328197
8.07047
-0.0566869
9.48763
-0.0841048
11.0555
-0.114336
12.8385
-0.156518
14.8331
-0.208568
17.0319
-0.279105
19.3816
-0.389987
21.7999
-0.54169
20.4732
-0.723048
16.1528
-0.938183
12.8913
-1.18053
10.348
-1.40149
8.25341
-1.50546
6.34134
-1.6431
4.59703
-1.94139
3.61767
-2.18844
3.02372
2.41467
-2.38453
-0.000519258
3.87756
-0.0131956
6.70994
-0.0296379
8.08692
-0.0522479
9.51024
-0.0786712
11.0819
-0.113846
12.8737
-0.155781
14.875
-0.208368
17.0845
-0.281011
19.4542
-0.396782
21.9157
-0.554859
20.6313
-0.739432
16.3374
-0.949658
13.1015
-1.18985
10.5881
-1.41874
8.48231
-1.55961
6.48221
-1.83823
4.87565
-2.32047
4.09991
-2.69757
3.40082
2.71184
-2.99474
0.00891551
3.86864
-0.00400485
6.72286
-0.0250482
8.10796
-0.0529658
9.53815
-0.0795184
11.1085
-0.115013
12.9092
-0.155352
14.9153
-0.208772
17.1379
-0.282843
19.5283
-0.402314
22.0351
-0.568401
20.7973
-0.755889
16.5249
-0.952272
13.2979
-1.17994
10.8158
-1.43681
8.73917
-1.67682
6.72222
-1.95628
5.15512
-2.38726
4.53089
-2.87581
3.88936
2.91568
-3.07965
0.0168657
3.85177
-0.00250628
6.74223
-0.02761
8.13306
-0.0567135
9.56726
-0.0844549
11.1362
-0.115318
12.94
-0.155111
14.9551
-0.208247
17.1911
-0.282711
19.6028
-0.403777
22.1562
-0.57184
20.9654
-0.757594
16.7106
-0.956212
13.4965
-1.15968
11.0193
-1.36678
8.94627
-1.615
6.97044
-2.13103
5.67114
-2.52135
4.92121
-3.01521
4.38323
3.66088
-3.76041
0.0114535
3.84032
-0.00160171
6.75529
-0.0206009
8.15206
-0.0489042
9.59556
-0.0805418
11.1679
-0.112996
12.9725
-0.153285
14.9954
-0.205093
17.2429
-0.277371
19.675
-0.393493
22.2723
-0.547094
21.119
-0.716849
16.8804
-0.901248
13.6809
-1.08958
11.2076
-1.24042
9.09711
-1.48215
7.21218
-1.85102
6.04001
-2.02713
5.09732
-1.47624
3.83233
2.18464
0.0101336
3.83019
-0.0018948
6.76732
-0.0200304
8.1702
-0.0462227
9.62175
-0.0767738
11.1984
-0.111872
13.0076
-0.15365
15.0372
-0.208261
17.2975
-0.283955
19.7507
-0.403995
22.3924
-0.556501
21.2715
-0.724065
17.0479
-0.90108
13.8579
-1.05842
11.365
-1.14497
9.18366
-1.2322
7.29941
-1.2036
6.0114
-1.06197
4.9557
-0.731154
3.50151
1.45349
0.0233739
3.80681
0.0127358
6.77795
-0.0107172
8.19365
-0.0434746
9.65451
-0.0747338
11.2297
-0.108456
13.0413
-0.151167
15.0799
-0.207589
17.3539
-0.28469
19.8278
-0.40589
22.5135
-0.557113
21.4227
-0.715122
17.2059
-0.870859
14.0137
-0.979253
11.4733
-1.01966
9.22406
-1.03416
7.31392
-1.06238
6.03962
-1.02921
4.92253
-0.825377
3.29767
0.62811
0.0198141
3.787
0.00751708
6.79025
-0.0118661
8.21303
-0.0381281
9.68077
-0.0686465
11.2602
-0.10128
13.074
-0.145249
15.1239
-0.202087
17.4108
-0.279078
19.9048
-0.398366
22.6328
-0.543432
21.5678
-0.682788
17.3453
-0.802181
14.133
-0.854734
11.5259
-0.909131
9.27846
-0.933783
7.33857
-0.979737
6.08558
-0.896244
4.83904
-0.402805
2.80423
0.225304
0.0268
3.7602
0.022331
6.79472
0.00275583
8.23261
-0.0271829
9.71071
-0.0585029
11.2915
-0.0902647
13.1057
-0.135144
15.1687
-0.191234
17.4668
-0.266408
19.98
-0.380083
22.7465
-0.513249
21.701
-0.625893
17.4579
-0.7019
14.2091
-0.76811
11.5921
-0.79892
9.30927
-0.841861
7.38151
-0.829462
6.07318
-0.613953
4.62353
-0.176092
2.36637
0.0492122
0.0261286
3.73407
0.0197598
6.80109
0.0036982
8.24867
-0.0218769
9.73628
-0.0467792
11.3164
-0.0765707
13.1355
-0.120435
15.2126
-0.17312
17.5195
-0.244523
20.0514
-0.349158
22.8511
-0.462773
21.8146
-0.547676
17.5428
-0.604167
14.2655
-0.657327
11.6453
-0.66321
9.31515
-0.68028
7.39858
-0.605399
5.9983
-0.437764
4.45589
-0.158183
2.08679
-0.108971
0.0383004
3.69577
0.0399938
6.7994
0.0212758
8.26739
-0.00724852
9.76481
-0.0266775
11.3358
-0.0580592
13.1669
-0.100317
15.2549
-0.147374
17.5666
-0.213109
20.1171
-0.305505
22.9435
-0.39594
21.905
-0.459048
17.6059
-0.503871
14.3104
-0.523428
11.6648
-0.508501
9.30022
-0.489752
7.37983
-0.415559
5.9241
-0.284376
4.32471
-0.0653807
1.8678
-0.174351
0.0349454
3.66083
0.0355858
6.79875
0.0262544
8.27672
0.00725004
9.78381
-0.000633146
11.3437
-0.0358447
13.2021
-0.0709616
15.29
-0.111819
17.6074
-0.169882
20.1752
-0.24816
23.0218
-0.31817
21.975
-0.362554
17.6503
-0.38072
14.3285
-0.356672
11.6408
-0.319089
9.26264
-0.259233
7.31998
-0.178542
5.84341
-0.0702048
4.21637
0.0238518
1.77374
-0.1505
0.0557872
3.60504
0.0711155
6.78343
0.0622558
8.28558
0.0452693
9.8008
0.0245077
11.3645
-0.00834976
13.235
-0.0286831
15.3103
-0.0661589
17.6449
-0.115626
20.2247
-0.177757
23.084
-0.227473
22.0247
-0.251819
17.6747
-0.240949
14.3177
-0.181241
11.5811
-0.0995358
9.18093
0.008151
7.21229
0.0939229
5.75764
0.159438
4.15086
0.103488
1.82969
-0.0470113
0.0572144
3.54782
0.0703675
6.77027
0.073336
8.28261
0.0679932
9.80614
0.0580412
11.3744
0.0434551
13.2495
0.0254864
15.3283
-0.00968777
17.6801
-0.0481351
20.2631
-0.0933138
23.1291
-0.122579
22.054
-0.1207
17.6728
-0.0812799
14.2782
-0.0117673
11.5116
0.0882074
9.08096
0.192404
7.10809
0.298253
5.65179
0.342161
4.10695
0.175588
1.99626
0.128576
0.0828296
3.46499
0.124463
6.72864
0.131606
8.27547
0.122492
9.81526
0.11393
11.383
0.107659
13.2558
0.093976
15.342
0.0720689
17.702
0.0387461
20.2964
-0.00162024
23.1695
-0.0088258
22.0612
0.0199148
17.6441
0.0837257
14.2144
0.172122
11.4232
0.252488
9.00059
0.336443
7.02414
0.419481
5.56875
0.44962
4.07681
0.249664
2.19622
0.37824
0.0913344
3.37366
0.129504
6.69047
0.150054
8.25492
0.164548
9.80076
0.177955
11.3696
0.183744
13.25
0.180384
15.3453
0.173291
17.7091
0.155801
20.3139
0.133141
23.1922
0.130937
22.0634
0.164383
17.6106
0.227387
14.1514
0.293799
11.3567
0.343748
8.95065
0.394356
6.97353
0.45403
5.50908
0.455093
4.07575
0.27598
2.37533
0.654221
0.131421
3.24224
0.212121
6.60977
0.244953
8.22209
0.258259
9.78746
0.272078
11.3558
0.283776
13.2383
0.290032
15.3391
0.295581
17.7035
0.288755
20.3208
0.274649
23.2063
0.27695
22.0611
0.301556
17.586
0.331856
14.1211
0.356697
11.3319
0.373048
8.93429
0.404294
6.94229
0.434918
5.47846
0.417002
4.09366
0.253897
2.53844
0.908118
0.15577
3.08647
0.237826
6.52771
0.288135
8.17178
0.334762
9.74083
0.37469
11.3159
0.404537
13.2085
0.429463
15.3141
0.445714
17.6873
0.448365
20.3181
0.438103
23.2165
0.428788
22.0704
0.418611
17.5962
0.406095
14.1336
0.401638
11.3364
0.398788
8.93714
0.401777
6.9393
0.400964
5.47927
0.355327
4.1393
0.204637
2.68913
1.11275
0.21777
2.8687
0.36701
6.37847
0.442519
8.09627
0.489769
9.69358
0.524409
11.2812
0.562175
13.1707
0.599461
15.2769
0.626246
17.6605
0.636308
20.3081
0.623329
23.2295
0.589872
22.1039
0.552083
17.634
0.524905
14.1608
0.504687
11.3566
0.467165
8.97467
0.418765
6.9877
0.375238
5.52279
0.299909
4.21463
0.153976
2.83506
1.26673
0.28266
2.58604
0.451699
6.20944
0.550484
7.99748
0.633794
9.61027
0.698904
11.2161
0.758672
13.111
0.814872
15.2207
0.854698
17.6207
0.870818
20.2919
0.85181
23.2485
0.801149
22.1546
0.750406
17.6847
0.700377
14.2109
0.630787
11.4262
0.531196
9.07426
0.429374
7.08952
0.358363
5.59381
0.2719
4.30109
0.134496
2.97246
1.40123
0.384621
2.20142
0.656863
5.93719
0.793588
7.86076
0.879942
9.52392
0.937474
11.1586
1.00808
13.0403
1.07879
15.1499
1.13461
17.5649
1.16274
20.2638
1.14843
23.2628
1.09373
22.2093
1.01608
17.7624
0.918157
14.3088
0.799126
11.5452
0.659851
9.21353
0.527231
7.22214
0.432134
5.6889
0.321087
4.41214
0.157334
3.13622
1.55856
0.566362
1.63506
0.887664
5.61589
1.03984
7.70858
1.15431
9.40945
1.24288
11.07
1.33941
12.9438
1.43179
15.0576
1.50533
17.4913
1.54702
20.2221
1.53873
23.2711
1.46487
22.2831
1.34674
17.8805
1.20851
14.447
1.05924
11.6945
0.878603
9.39417
0.685892
7.41485
0.527875
5.84692
0.365045
4.57497
0.171391
3.32987
1.72995
0.746041
0.889015
1.19757
5.16436
1.38827
7.51788
1.519
9.27872
1.62133
10.9677
1.74235
12.8228
1.86312
14.9368
1.96497
17.3895
2.03196
20.1551
2.03155
23.2715
1.94094
22.3737
1.80019
18.0212
1.63675
14.6105
1.46141
11.8698
1.2474
9.60818
0.988077
7.67417
0.746178
6.08882
0.497244
4.82391
0.225512
3.6016
1.95546
0.711804
0.177211
1.50582
4.37035
1.82834
7.19536
2.01724
9.08982
2.16229
10.8226
2.29883
12.6863
2.44478
14.7909
2.57927
17.255
2.67676
20.0576
2.69888
23.2494
2.61086
22.4617
2.45396
18.1781
2.25361
14.8108
2.02312
12.1003
1.76595
9.86535
1.41958
8.02054
1.0523
6.4561
0.683786
5.19242
0.308112
3.97728
2.26358
0.506862
-0.32965
1.25814
3.61907
1.70529
6.74821
1.93881
8.85629
2.09185
10.6696
2.19744
12.5807
2.2895
14.6988
2.34521
17.1993
2.33851
20.0643
2.23963
23.3483
2.05717
22.6442
1.8555
18.3798
1.64241
15.0239
1.41233
12.3304
1.19441
10.0833
0.967354
8.2476
0.722539
6.70092
0.480116
5.43485
0.224162
4.23323
2.48774
-0.00750949
-0.322141
0.345454
3.2661
0.718749
6.37492
1.00552
8.56952
1.25323
10.4219
1.44027
12.3936
1.60393
14.5351
1.73421
17.069
1.79601
20.0025
1.75516
23.3891
1.6147
22.7846
1.44164
18.5529
1.26501
15.2005
1.07614
12.5192
0.895501
10.2639
0.699434
8.44367
0.508237
6.89211
0.319788
5.62329
0.133999
4.41902
2.62174
-0.374744
0.052603
-0.446998
3.33836
-0.177369
6.10529
0.1854
8.20675
0.520414
10.0869
0.808343
12.1057
1.04063
14.3028
1.21678
16.8928
1.3191
19.9002
1.3315
23.3767
1.24119
22.8749
1.10833
18.6857
0.965809
15.3431
0.811023
12.674
0.66591
10.409
0.516914
8.59267
0.362933
7.04609
0.21337
5.77286
0.0753376
4.55705
2.69707
-0.327944
0.380547
-0.475509
3.48592
-0.397418
6.0272
-0.182788
7.99212
0.0774939
9.82658
0.347722
11.8355
0.59721
14.0534
0.797369
16.6927
0.93024
19.7673
0.97999
23.327
0.937954
22.917
0.841969
18.7817
0.730969
15.4541
0.609903
12.7951
0.494776
10.5241
0.381959
8.70548
0.265108
7.16295
0.152226
5.88574
0.0438215
4.66546
2.7409
-0.34129
0.721837
-0.426104
3.57074
-0.376757
5.97785
-0.271403
7.88677
-0.108753
9.66393
0.0952617
11.6314
0.304284
13.8443
0.491485
16.5055
0.636581
19.6223
0.710983
23.2526
0.700021
22.9279
0.63243
18.8493
0.549362
15.5371
0.460216
12.8842
0.369285
10.6151
0.282984
8.79178
0.188799
7.25713
0.0930287
5.98151
0.000846911
4.75764
2.74174
-0.280524
1.00236
-0.406822
3.69704
-0.354973
5.926
-0.25124
7.78304
-0.130874
9.54356
0.00358276
11.497
0.152696
13.6952
0.300109
16.3581
0.431931
19.4904
0.508131
23.1764
0.516093
22.92
0.471736
18.8937
0.412685
15.5962
0.35026
12.9467
0.274567
10.6908
0.201096
8.86525
0.117531
7.3407
0.033845
6.0652
-0.0287302
4.82021
2.71301
-0.229187
1.23155
-0.353593
3.82144
-0.324907
5.89732
-0.230978
7.68911
-0.117894
9.43048
-0.0154305
11.3945
0.0904395
13.5894
0.201932
16.2466
0.297781
19.3946
0.362872
23.1113
0.379347
22.9035
0.351895
18.9211
0.30918
15.6389
0.260041
12.9958
0.191861
10.7589
0.129177
8.92794
0.0563849
7.41349
-0.0118418
6.13342
-0.0553239
4.8637
2.65769
-0.176554
1.4081
-0.282303
3.92719
-0.283949
5.89896
-0.214106
7.61926
-0.115856
9.33223
-0.0272197
11.3059
0.0578392
13.5043
0.142569
16.1618
0.213139
19.324
0.265257
23.0592
0.280969
22.8878
0.260866
18.9412
0.225673
15.6741
0.185098
13.0364
0.121115
10.8229
0.0657926
8.98326
0.00992555
7.46935
-0.0426798
6.18603
-0.0655062
4.88652
2.59218
-0.123504
1.53161
-0.209074
4.01276
-0.223888
5.91378
-0.191594
7.58697