/*--------------------------------*- C++ -*----------------------------------*\
| =========                 |                                                 |
| \\      /  F ield         | OpenFOAM: The Open Source CFD Toolbox           |
|  \\    /   O peration     | Version:  2412                                  |
|   \\  /    A nd           | Website:  www.openfoam.com                      |
|    \\/     M anipulation  |                                                 |
\*---------------------------------------------------------------------------*/
FoamFile
{
    version     2.0;
    format      ascii;
    arch        "LSB;label=32;scalar=64";
    class       volScalarField;
    location    "3.75";
    object      p;
}
// * * * * * * * * * * * * * * * * * * * * * * * * * * * * * * * * * * * * * //

dimensions      [0 2 -2 0 0 0 0];

internalField   nonuniform List<scalar> 
2200
(
0.352073
0.351179
0.353164
0.352992
0.356924
0.369273
0.393488
0.430588
0.483956
0.551863
0.60918
0.638939
0.646422
0.648442
0.64712
0.647035
0.648091
0.647925
0.647023
0.648004
0.346463
0.346258
0.347834
0.351492
0.36081
0.376487
0.404281
0.446055
0.504123
0.573709
0.62838
0.654082
0.65871
0.656164
0.650905
0.647353
0.644913
0.645373
0.643135
0.643333
0.348323
0.347159
0.347732
0.356342
0.373576
0.398573
0.431428
0.479855
0.543221
0.61466
0.667231
0.689974
0.689838
0.68124
0.671334
0.658428
0.649709
0.646642
0.647877
0.64907
0.366724
0.363917
0.362272
0.371199
0.389899
0.42339
0.467429
0.528089
0.596107
0.672756
0.725607
0.743463
0.740622
0.720025
0.701561
0.683899
0.673277
0.667962
0.671113
0.674482
0.413435
0.409422
0.405325
0.405047
0.414365
0.446165
0.499423
0.574349
0.655252
0.741543
0.796158
0.808643
0.797104
0.767638
0.740623
0.724017
0.721973
0.725257
0.730773
0.734948
0.481562
0.476906
0.473952
0.469101
0.467094
0.48286
0.52829
0.601463
0.702954
0.809941
0.871224
0.874397
0.844949
0.818143
0.80087
0.80019
0.808785
0.815421
0.819716
0.824734
0.560337
0.554678
0.551822
0.545989
0.540741
0.535832
0.56247
0.621108
0.735638
0.874487
0.947693
0.928064
0.890859
0.880524
0.882956
0.902286
0.915066
0.925674
0.929678
0.935733
0.652786
0.646922
0.639266
0.626666
0.626664
0.621278
0.63335
0.681356
0.787021
0.931181
1.0118
1.00313
0.98267
0.988697
1.00646
1.02803
1.03343
1.05323
1.06191
1.0682
0.774381
0.765882
0.749357
0.732588
0.746619
0.7702
0.786519
0.83074
0.916444
1.04209
1.13182
1.15914
1.17326
1.18741
1.20316
1.19691
1.19071
1.21452
1.23374
1.24281
0.965289
0.955004
0.935253
0.911279
0.917214
0.967498
1.02759
1.09644
1.17905
1.29431
1.39445
1.4551
1.48596
1.48455
1.46129
1.43566
1.44307
1.47102
1.49277
1.50382
1.24396
1.23343
1.21028
1.17903
1.16528
1.20997
1.31473
1.45316
1.58169
1.71424
1.82766
1.899
1.90205
1.84419
1.78758
1.7718
1.79835
1.83473
1.85978
1.87077
1.58614
1.57539
1.54941
1.50913
1.48093
1.49332
1.60114
1.80317
2.0437
2.28533
2.42049
2.41266
2.32891
2.22453
2.17727
2.19638
2.23883
2.28555
2.31414
2.3258
1.98434
1.9716
1.93989
1.88763
1.84502
1.83119
1.89919
2.08438
2.396
2.77315
2.935
2.82806
2.71404
2.64699
2.64778
2.69479
2.75248
2.81121
2.8449
2.85798
2.43362
2.42085
2.3869
2.32627
2.26999
2.24427
2.27009
2.36941
2.60722
2.97502
3.16773
3.13169
3.13402
3.16861
3.21689
3.28037
3.35514
3.42335
3.46094
3.47489
2.92872
2.9148
2.87783
2.81177
2.74103
2.70275
2.72142
2.77486
2.91363
3.17292
3.40262
3.55642
3.69707
3.80163
3.86939
3.95242
4.045
4.11866
4.15765
4.17198
3.43573
3.42382
3.38806
3.31933
3.2322
3.17355
3.20379
3.30471
3.51059
3.78321
4.06227
4.29151
4.41834
4.5088
4.5851
4.69526
4.80385
4.88379
4.92543
4.93997
3.95048
3.93646
3.89746
3.82513
3.7314
3.65756
3.6837
3.85415
4.21704
4.62698
4.96878
5.15694
5.20416
5.27041
5.37086
5.50652
5.6266
5.70733
5.74811
5.76156
4.43641
4.42732
4.39371
4.32398
4.22746
4.13953
4.14925
4.33631
4.75123
5.25309
5.6754
5.89218
5.98266
6.08178
6.22098
6.37127
6.49334
6.57386
6.61423
6.62713
4.85841
4.84896
4.81923
4.75864
4.67096
4.58813
4.58748
4.76155
5.1461
5.6676
6.18562
6.54237
6.76752
6.92834
7.10546
7.26635
7.38575
7.46074
7.49799
7.50964
5.15327
5.14931
5.12815
5.07852
5.00949
4.9457
4.95626
5.15404
5.5606
6.12672
6.75321
7.26656
7.58692
7.79972
7.99538
8.15576
8.26772
8.33534
8.36956
8.38032
5.26424
5.26531
5.25759
5.23133
5.19262
5.16263
5.21988
5.47658
5.98684
6.66028
7.41314
8.05855
8.41633
8.66459
8.86344
9.01875
9.11825
9.17775
9.20631
9.21692
5.13062
5.13675
5.14409
5.14443
5.15163
5.19149
5.32617
5.66804
6.3126
7.13275
8.04076
8.7798
9.19211
9.48454
9.6936
9.84108
9.93544
9.99075
10.0163
10.0347
4.67531
4.69058
4.72343
4.76639
4.84198
4.97648
5.2272
5.69935
6.48845
7.47894
8.55974
9.40411
9.89361
10.2424
10.4758
10.6253
10.7293
10.7958
10.8296
10.8427
3.82814
3.86086
3.93462
4.05393
4.23816
4.51918
4.95059
5.59766
6.55012
7.74226
9.00534
9.9605
10.5417
10.9398
11.2074
11.389
11.5155
11.6068
11.661
11.6775
2.4608
2.54442
2.70868
2.96697
3.34161
3.84681
4.51169
5.39363
6.5438
7.96128
9.39805
10.4714
11.1471
11.602
11.9172
12.1419
12.3046
12.431
12.5162
12.5407
0.484637
0.625284
0.988299
1.54116
2.20949
2.98878
3.92059
5.08615
6.49936
8.14402
9.75167
10.9471
11.7191
12.2484
12.6267
12.9105
13.124
13.2694
13.3526
13.3802
-2.34515
-1.84545
-0.987554
-0.0548021
0.94281
2.03548
3.27916
4.73493
6.4322
8.32179
10.1264
11.469
12.3761
13.0244
13.5063
13.878
14.1898
14.4402
14.5883
14.6232
-5.76681
-4.43344
-3.01701
-1.6989
-0.362709
1.07634
2.64421
4.39392
6.35046
8.48649
10.4974
12.0122
13.0832
13.8844
14.5089
15.009
15.4052
15.7829
16.1528
16.2492
-8.35243
-6.71595
-5.01629
-3.36217
-1.65745
0.129957
2.01423
4.05739
6.2646
8.62572
10.8175
12.4955
13.7126
14.6423
15.3822
15.9885
16.4866
16.8145
17.2415
17.3424
-10.3918
-8.5706
-6.73798
-4.85471
-2.86602
-0.788972
1.4015
3.72021
6.16978
8.73569
11.0896
12.9136
14.247
15.2655
16.0689
16.7214
17.2922
17.63
17.9873
18.0874
-11.977
-9.99937
-8.18194
-6.15258
-3.95946
-1.61786
0.835649
3.39056
6.0601
8.80597
11.308
13.2587
14.6874
15.7671
16.5975
17.2342
17.7898
18.1623
18.5028
18.6215
-13.0872
-11.0908
-9.37577
-7.26758
-4.90563
-2.34462
0.31488
3.07033
5.92738
8.83138
11.4693
13.518
15.0036
16.105
16.9292
17.5496
18.1263
18.5194
18.869
19.0006
-13.9834
-12.0037
-10.3441
-8.13574
-5.64795
-2.9647
-0.159099
2.75882
5.76983
8.81524
11.5692
13.6845
15.199
16.3238
17.1753
17.8188
18.3505
18.7513
19.0995
19.2477
-14.7602
-12.7798
-11.102
-8.75639
-6.20193
-3.46694
-0.56934
2.46456
5.5974
8.76282
11.6103
13.7849
15.3393
16.495
17.3631
18.0182
18.5758
18.9855
19.3382
19.4438
-15.4148
-13.4057
-11.6484
-9.19219
-6.6178
-3.85844
-0.909537
2.19685
5.4206
8.67919
11.607
13.8514
15.4578
16.6507
17.5568
18.2392
18.7746
19.1703
19.5126
19.6451
-15.957
-13.9158
-12.0472
-9.49142
-6.92865
-4.16462
-1.19422
1.95609
5.24586
8.57597
11.5844
13.9149
15.5896
16.8258
17.7584
18.4522
18.9878
19.3863
19.7218
19.8559
-16.3516
-14.3261
-12.3539
-9.70566
-7.16931
-4.41497
-1.43617
1.74289
5.08017
8.46897
11.56
13.9784
15.7231
16.9993
17.9484
18.656
19.1982
19.6048
19.9344
20.0775
-16.7321
-14.708
-12.6291
-9.93861
-7.40493
-4.64146
-1.64743
1.55682
4.9293
8.36661
11.5293
14.0223
15.8265
17.15
18.1341
18.8675
19.4271
19.8376
20.1572
20.2957
-17.0811
-15.0514
-12.9427
-10.2789
-7.70115
-4.88992
-1.85325
1.38832
4.78942
8.26264
11.4783
14.0358
15.8998
17.2756
18.3057
19.0764
19.6573
20.0863
20.4222
20.5669
-17.3854
-15.376
-13.2913
-10.6701
-8.05216
-5.17752
-2.0731
1.21806
4.64361
8.14242
11.3943
14.0041
15.932
17.3794
18.4763
19.2929
19.9062
20.3482
20.6779
20.816
-17.771
-15.7913
-13.6716
-11.068
-8.41576
-5.48059
-2.30596
1.02955
4.47546
7.99532
11.2766
13.9351
15.9344
17.455
18.6166
19.4968
20.1553
20.6355
20.9863
21.1296
-18.1126
-16.1475
-14.0741
-11.4514
-8.76251
-5.77176
-2.54296
0.818698
4.28063
7.82251
11.1329
13.8336
15.8979
17.4934
18.7407
19.7032
20.4243
20.9463
21.3072
21.4447
-18.5134
-16.5437
-14.4377
-11.8008
-9.07534
-6.0384
-2.78001
0.591724
4.06795
7.63415
10.9711
13.7038
15.8252
17.4996
18.8267
19.8706
20.6797
21.2793
21.6784
21.8296
-18.8995
-16.9369
-14.7883
-12.1034
-9.34152
-6.28097
-3.01446
0.360331
3.85114
7.44085
10.7968
13.5493
15.7117
17.4537
18.8692
20.0132
20.9165
21.6022
22.0556
22.2195
-19.1951
-17.171
-15.018
-12.3211
-9.56564
-6.50543
-3.2411
0.135354
3.64091
7.24908
10.6124
13.3719
15.561
17.355
18.8483
20.0941
21.1189
21.9212
22.4512
22.6122
-19.4804
-17.4239
-15.1892
-12.4917
-9.76543
-6.71338
-3.45473
-0.0767983
3.44144
7.05969
10.4186
13.1738
15.3752
17.2035
18.7586
20.1017
21.2504
22.2009
22.8533
22.8969
-19.7434
-17.7434
-15.5218
-12.7445
-9.96594
-6.90646
-3.65574
-0.277585
3.24767
6.86573
10.2081
12.9461
15.1455
16.9921
18.5855
19.9942
21.2508
22.3485
23.2417
23.3842
-19.9945
-18.024
-15.7938
-12.984
-10.1673
-7.09941
-3.85362
-0.476597
3.04732
6.65368
9.96915
12.6766
14.8549
16.695
18.2974
19.7286
21.0288
22.1864
22.9169
22.9209
-20.1677
-18.0587
-15.7776
-13.0629
-10.3729
-7.30143
-4.05505
-0.678898
2.83721
6.42397
9.70529
12.3679
14.4994
16.2984
17.869
19.2565
20.4646
21.4543
21.9167
21.9931
-20.3176
-18.1873
-15.942
-13.286
-10.6151
-7.51628
-4.2683
-0.892108
2.61266
6.17551
9.41705
12.0191
14.0775
15.7988
17.2814
18.5613
19.6054
20.2796
20.5506
20.7564
-20.6008
-18.7246
-16.5796
-13.7573
-10.8824
-7.75473
-4.49738
-1.12082
2.37148
5.90853
9.10528
11.6311
13.5897
15.1935
16.5328
17.6427
18.5175
19.0548
19.2505
19.5263
-20.9506
-19.1367
-16.9356
-14.0372
-11.1504
-8.01739
-4.74354
-1.36847
2.11128
5.62125
8.76899
11.2062
13.0393
14.4856
15.6434
16.5664
17.2841
17.7003
17.8132
18.1684
-21.1718
-19.1296
-16.827
-14.0807
-11.4138
-8.27246
-5.00101
-1.6307
1.83486
5.31521
8.40969
10.7479
12.4315
13.6925
14.6536
15.3742
15.8555
16.1371
16.2828
16.6464
-21.3053
-19.2693
-17.0783
-14.3818
-11.6775
-8.50921
-5.25623
-1.89318
1.55321
4.99912
8.03457
10.2672
11.7893
12.8457
13.5937
14.1177
14.3756
14.3966
14.3182
14.5557
-21.5871
-19.7017
-17.5723
-14.7789
-11.9214
-8.74677
-5.49748
-2.14614
1.27579
4.68104
7.6514
9.77648
11.1377
11.9845
12.5032
12.8206
12.8233
12.2582
11.3226
11.4386
-21.8466
-19.9324
-17.6345
-14.8589
-12.1082
-8.95997
-5.71835
-2.38676
1.00751
4.36627
7.26582
9.28741
10.5064
11.1565
11.4258
11.4432
11.2013
10.0865
7.80521
5.71183
-21.964
-19.9808
-17.6519
-14.9333
-12.2728
-9.13224
-5.9213
-2.61231
0.753612
4.06285
6.8892
8.81689
9.92044
10.4026
10.4315
10.1028
9.51737
8.39676
4.4283
-6.21741
-22.1304
-20.2093
-17.969
-15.2095
-12.4653
-9.30515
-6.11701
-2.82501
0.513446
3.77141
6.52146
8.36068
9.37079
9.72127
9.55071
8.96256
8.16524
7.41003
6.75014
2.56998
-22.3793
-20.493
-18.2091
-15.4179
-12.6648
-9.49364
-6.31654
-3.03837
0.274398
3.48036
6.15489
7.91383
8.85313
9.12599
8.87747
8.31202
7.67749
7.61023
8.51277
7.52919
-22.5707
-20.6597
-18.3321
-15.5507
-12.8565
-9.67512
-6.52149
-3.25784
0.0314402
3.18867
5.79705
7.49321
8.3916
8.66747
8.49658
8.14192
7.73694
7.64858
8.14691
7.62375
-22.7463
-20.8463
-18.5352
-15.7663
-13.0676
-9.85875
-6.73532
-3.48479
-0.216825
2.89886
5.45639
7.11769
8.01529
8.37654
8.40242
8.23298
7.92179
7.61097
7.70765
7.64285
-22.95
-21.0666
-18.7596
-15.9992
-13.2851
-10.053
-6.95827
-3.71778
-0.467758
2.61607
5.14398
6.80568
7.74652
8.23507
8.45996
8.44525
8.18909
7.78824
7.78285
7.83736
-23.1253
-21.2494
-18.9303
-16.1959
-13.4767
-10.2457
-7.18354
-3.94898
-0.714732
2.34762
4.86999
6.57349
7.59736
8.20683
8.55595
8.69942
8.57558
8.19337
8.15341
8.22671
-23.2573
-21.3971
-19.0892
-16.3839
-13.6351
-10.4376
-7.40201
-4.1686
-0.948403
2.10262
4.64406
6.42404
7.56273
8.2792
8.72218
8.99622
9.11328
8.89418
8.88933
8.94037
-23.3589
-21.5273
-19.2263
-16.5485
-13.7642
-10.6275
-7.60045
-4.36781
-1.16042
1.89109
4.47691
6.34777
7.61945
8.4629
9.01316
9.41028
9.78379
9.92983
10.016
10.0986
-23.4031
-21.6083
-19.3164
-16.6642
-13.8659
-10.7963
-7.76242
-4.53944
-1.34537
1.72024
4.37228
6.34038
7.73924
8.73862
9.45273
10.0427
10.6025
11.0025
11.2225
11.3099
-23.3692
-21.6297
-19.3454
-16.7168
-13.9277
-10.9167
-7.88118
-4.67633
-1.49843
1.59232
4.32071
6.38662
7.90286
9.08223
10.0099
10.7646
11.4048
11.9002
12.2101
12.309
-23.2293
-21.5707
-19.2952
-16.6955
-13.9297
-10.9692
-7.94626
-4.77171
-1.61658
1.50134
4.29809
6.46012
8.10208
9.43067
10.4919
11.2965
11.923
12.3993
12.7277
12.8406
-22.968
-21.3922
-19.1311
-16.5726
-13.85
-10.9432
-7.95137
-4.82155
-1.69441
1.43577
4.27886
6.52401
8.24634
9.6109
10.6722
11.4662
12.082
12.551
12.8912
13.0243
-22.5376
-21.0554
-18.8292
-16.3329
-13.6709
-10.8293
-7.89278
-4.82227
-1.73598
1.3797
4.23781
6.50982
8.2288
9.56867
10.6188
11.4311
12.0685
12.5441
12.8876
13.0413
-21.8952
-20.526
-18.3601
-15.9474
-13.371
-10.6207
-7.76608
-4.77804
-1.75752
1.31485
4.1433
6.39025
8.09466
9.44342
10.52
11.3574
12.0094
12.4915
12.8356
13.0128
-20.9931
-19.7603
-17.6954
-15.4011
-12.9384
-10.3073
-7.56754
-4.69395
-1.76925
1.22271
3.98574
6.2047
7.9178
9.28333
10.3709
11.2117
11.8699
12.365
12.7173
12.9191
-19.7919
-18.7347
-16.8114
-14.6686
-12.3611
-9.88683
-7.29398
-4.56449
-1.77133
1.10257
3.78217
5.95623
7.63985
8.9778
10.0445
10.8759
11.5434
12.0591
12.4338
12.6623
-18.2694
-17.4284
-15.7051
-13.7625
-11.6403
-9.34936
-6.93478
-4.38778
-1.75899
0.965731
3.51979
5.59054
7.18229
8.45253
9.48261
10.2921
10.9593
11.4857
11.8773
12.132
-16.4717
-15.8895
-14.4048
-12.6767
-10.7604
-8.68744
-6.48896
-4.15691
-1.72447
0.801829
3.16529
5.0834
6.55297
7.72258
8.68234
9.43794
10.0673
10.5841
10.9875
11.2661
-14.6209
-14.2369
-12.964
-11.4335
-9.73181
-7.90366
-5.94639
-3.86333
-1.67072
0.606073
2.73478
4.46513
5.78329
6.80984
7.64276
8.29182
8.83024
9.27739
9.63821
9.90222
-12.7622
-12.5266
-11.3516
-9.98959
-8.52412
-6.9784
-5.30983
-3.50679
-1.57978
0.43039
2.33093
3.87589
5.03753
5.92111
6.62214
7.14879
7.56418
7.88466
8.12649
8.29881
-10.5122
-10.3515
-9.31411
-8.28795
-7.16666
-5.9413
-4.57595
-3.05809
-1.42392
0.308922
1.983
3.34408
4.35584
5.10807
5.69492
6.12612
6.42595
6.63362
6.76891
6.85381
-7.60868
-7.44295
-6.93191
-6.43858
-5.66862
-4.76917
-3.7262
-2.53097
-1.21665
0.231776
1.65602
2.80547
3.65356
4.25647
4.7089
5.03089
5.23114
5.35178
5.41098
5.45152
-4.80367
-4.74503
-4.62019
-4.46612
-4.02486
-3.49112
-2.82163
-1.96298
-0.957109
0.21531
1.37538
2.30631
2.99543
3.46217
3.78975
4.01551
4.14763
4.22398
4.25596
4.2797
-2.75537
-2.74515
-2.72958
-2.70407
-2.55341
-2.32474
-1.96023
-1.37672
-0.646417
0.252537
1.15009
1.87738
2.42065
2.77949
3.0152
3.17326
3.26638
3.33507
3.36882
3.40782
-1.49242
-1.50536
-1.51818
-1.52453
-1.47964
-1.40555
-1.20362
-0.824227
-0.332501
0.315347
0.989766
1.54897
1.96724
2.24623
2.42708
2.55085
2.62636
2.70227
2.73304
2.75865
-0.824316
-0.851266
-0.877383
-0.882804
-0.841017
-0.77234
-0.626062
-0.382403
-0.0675974
0.390188
0.902812
1.33482
1.65366
1.87477
2.02635
2.13851
2.19661
2.26844
2.28979
2.30255
-0.467811
-0.491747
-0.528818
-0.53783
-0.496138
-0.399086
-0.280589
-0.10521
0.12248
0.465995
0.864322
1.20115
1.44741
1.62552
1.75636
1.867
1.8982
1.95015
1.96054
1.96657
-0.244626
-0.261542
-0.293362
-0.302896
-0.290187
-0.214041
-0.14227
0.0286111
0.226198
0.51229
0.827744
1.09625
1.29664
1.4422
1.54164
1.64706
1.6542
1.68487
1.68828
1.6923
-0.0723758
-0.0841258
-0.105687
-0.110859
-0.129748
-0.103209
-0.090534
0.0925132
0.249438
0.507437
0.769058
0.99194
1.16273
1.28415
1.3356
1.42259
1.42272
1.4416
1.43913
1.44107
0.065625
0.0564873
0.0409921
0.04373
0.0147067
0.0315612
0.01257
0.170663
0.239455
0.476942
0.697726
0.881435
1.02119
1.12557
1.13032
1.19722
1.1969
1.21303
1.21144
1.21204
0.175492
0.167733
0.155727
0.166465
0.14544
0.184433
0.169841
0.274357
0.258627
0.469768
0.628196
0.767054
0.869184
0.961374
0.945615
0.996521
0.997911
1.01236
1.01198
1.01283
0.261015
0.253616
0.244379
0.255545
0.239543
0.286391
0.279119
0.356228
0.3096
0.491921
0.563511
0.668924
0.728995
0.811148
0.803914
0.839453
0.840533
0.85128
0.849818
0.849907
0.312453
0.303968
0.293576
0.303097
0.282575
0.317189
0.304301
0.373359
0.344982
0.503414
0.503987
0.606799
0.624679
0.699377
0.699212
0.724669
0.721709
0.727779
0.723926
0.722014
0.32999
0.320631
0.310097
0.314115
0.288109
0.313536
0.289359
0.352741
0.339196
0.479258
0.450211
0.564876
0.554332
0.616905
0.615185
0.632842
0.626358
0.629101
0.623824
0.620287
0.325707
0.316485
0.308635
0.309544
0.287131
0.309572
0.279341
0.332382
0.316532
0.432077
0.404399
0.513691
0.497711
0.542046
0.537109
0.550189
0.542427
0.543738
0.538809
0.534757
0.312503
0.303713
0.300988
0.302843
0.286361
0.307783
0.279243
0.322516
0.300856
0.38499
0.363747
0.449972
0.437208
0.468267
0.462564
0.47303
0.466196
0.467218
0.463641
0.459875
0.296064
0.287554
0.288383
0.28989
0.27716
0.296217
0.272221
0.309849
0.285609
0.345542
0.327456
0.386324
0.377968
0.400846
0.395423
0.403808
0.398452
0.399164
0.39675
0.393501
0.273262
0.264961
0.267164
0.267131
0.256631
0.272032
0.251574
0.284363
0.262025
0.307715
0.292364
0.331855
0.327085
0.342994
0.338088
0.344213
0.339712
0.339816
0.337967
0.335182
0.24322
0.235674
0.238365
0.237377
0.228776
0.240776
0.222877
0.249796
0.230398
0.267758
0.255853
0.283963
0.280535
0.291646
0.287374
0.291599
0.287719
0.287358
0.28585
0.283521
0.20943
0.203097
0.205842
0.204599
0.197951
0.207381
0.192152
0.213442
0.196161
0.226851
0.216754
0.238225
0.234733
0.243041
0.239444
0.242321
0.239194
0.238667
0.237475
0.23564
0.174056
0.169255
0.17166
0.170519
0.165497
0.172878
0.160488
0.177325
0.162055
0.186326
0.176824
0.193211
0.189771
0.196107
0.193103
0.195112
0.192727
0.192246
0.191342
0.189991
0.137561
0.134014
0.135742
0.134814
0.131018
0.136727
0.126908
0.140157
0.127128
0.146077
0.137041
0.149328
0.145988
0.150698
0.14829
0.149751
0.147963
0.147568
0.14686
0.145875
0.0996336
0.0972072
0.0982954
0.0975551
0.0946604
0.0990084
0.0912617
0.101707
0.0905275
0.105556
0.0974468
0.106616
0.103546
0.106891
0.104951
0.105991
0.104594
0.104255
0.103666
0.102995
0.060507
0.0588317
0.0595944
0.059212
0.0567601
0.0603934
0.0540801
0.0621603
0.0526704
0.0644408
0.0579726
0.0644862
0.0618792
0.0641293
0.0624822
0.0632043
0.062183
0.0619929
0.061518
0.0610375
0.020512
0.0195961
0.0200145
0.0200582
0.0183485
0.0208704
0.017063
0.0215312
0.0165221
0.0220761
0.0186882
0.0217222
0.0202393
0.0215357
0.0205394
0.0211215
0.0204785
0.0205465
0.0202393
0.0199831
11.4869
15.9417
17.0572
18.4757
19.6415
20.6896
21.6299
22.4729
23.1354
23.3991
16.3394
18.5149
19.228
20.1394
20.9458
21.6517
22.256
22.7502
23.0483
23.0784
18.9962
20.0714
20.6165
21.1849
21.6971
22.1461
22.519
22.8032
22.9587
22.9779
20.4679
21.1229
21.4844
21.8469
22.1612
22.4304
22.644
22.7964
22.882
22.9039
21.4226
21.771
21.9956
22.2152
22.4102
22.5788
22.7076
22.7963
22.8397
22.8651
21.9616
22.1886
22.3207
22.4609
22.58
22.6814
22.7594
22.8128
22.8424
22.8605
22.321
22.4506
22.5274
22.6194
22.6954
22.7595
22.8091
22.8444
22.8631
22.8838
22.5337
22.6258
22.6803
22.7375
22.7856
22.824
22.8554
22.8784
22.8949
22.9127
22.6973
22.7567
22.7876
22.8192
22.8495
22.8745
22.8972
22.9169
22.9307
22.9518
22.8178
22.8496
22.869
22.8903
22.9128
22.9338
22.9525
22.9726
22.9877
23.0077
22.9183
22.9412
22.9608
22.9769
22.9955
23.0147
23.0307
23.0473
23.0584
23.0752
23.0274
23.0449
23.0632
23.0779
23.0911
23.1038
23.1141
23.1223
23.1271
23.1392
23.1352
23.1442
23.1574
23.1677
23.1749
23.181
23.1882
23.1944
23.1965
23.2056
23.229
23.2328
23.2414
23.2473
23.2511
23.2553
23.2618
23.2693
23.2734
23.284
23.3385
23.3271
23.3212
23.3164
23.3145
23.3166
23.3229
23.3351
23.3494
23.377
23.4654
23.4103
23.3788
23.36
23.3512
23.3513
23.3602
23.38
23.4112
23.4805
)
;

boundaryField
{
    wall-4
    {
        type            zeroGradient;
    }
    pressure-outlet-7
    {
        type            fixedValue;
        value           uniform 0;
    }
    velocity-inlet-6
    {
        type            zeroGradient;
    }
    velocity-inlet-5
    {
        type            zeroGradient;
    }
    frontAndBackPlanes
    {
        type            empty;
    }
}


// ************************************************************************* //
