/*--------------------------------*- C++ -*----------------------------------*\
| =========                 |                                                 |
| \\      /  F ield         | OpenFOAM: The Open Source CFD Toolbox           |
|  \\    /   O peration     | Version:  2412                                  |
|   \\  /    A nd           | Website:  www.openfoam.com                      |
|    \\/     M anipulation  |                                                 |
\*---------------------------------------------------------------------------*/
FoamFile
{
    version     2.0;
    format      ascii;
    arch        "LSB;label=32;scalar=64";
    class       surfaceScalarField;
    location    "3.75";
    object      phi;
}
// * * * * * * * * * * * * * * * * * * * * * * * * * * * * * * * * * * * * * //

dimensions      [0 3 -1 0 0 0 0];

oriented        oriented;

internalField   nonuniform List<scalar> 
4262
(
0.00281983
0.217693
0.0021512
0.829322
-0.00032891
1.76962
-0.00205707
3.16689
-0.00460281
5.18715
-0.00648553
8.01625
-0.00662813
11.8473
-0.00742214
16.8205
-0.00773455
22.8821
-0.00553235
29.5262
-0.00324809
29.5261
-0.00103987
22.8796
-0.000478498
16.8192
-5.18062e-05
11.8467
-0.000345566
8.01466
-0.00087798
5.18514
-0.00153689
3.16583
-0.00400134
1.76961
-0.00378925
0.828441
0.216723
-0.00656706
0.22426
-0.00414391
0.826899
-0.00706661
1.77255
-0.010755
3.17058
-0.0160815
5.19248
-0.0214992
8.02167
-0.0236992
11.8495
-0.0244247
16.8213
-0.0224791
22.8802
-0.0159756
29.5196
-0.00758453
29.5177
-0.00150209
22.8735
0.0012523
16.8164
0.00351084
11.8445
0.00354878
8.01462
0.00246485
5.18622
0.00175762
3.16653
0.000896084
1.77047
0.00507845
0.824259
0.221802
-0.0194371
0.243697
-0.0201784
0.82764
-0.0269147
1.77928
-0.0318678
3.17554
-0.0369228
5.19753
-0.0365053
8.02125
-0.0410486
11.854
-0.0406825
16.8209
-0.0367675
22.8763
-0.0235077
29.5064
-0.00927119
29.5034
0.00017259
22.8641
0.00749184
16.8091
0.0102648
11.8417
0.0146324
8.01025
0.0140877
5.18676
0.0145241
3.1661
0.0139361
1.77106
0.0173501
0.820845
0.239152
-0.0339482
0.277645
-0.0467448
0.840437
-0.0582557
1.79079
-0.064618
3.1819
-0.0675174
5.20043
-0.0670448
8.02078
-0.0650108
11.852
-0.0570811
16.813
-0.0501098
22.8693
-0.0312648
29.4875
-0.0123203
29.4845
0.00217904
22.8496
0.0180808
16.7932
0.0281085
11.8317
0.0355542
8.00281
0.0403392
5.18198
0.0408388
3.1656
0.0369557
1.77494
0.0294664
0.828334
0.268618
-0.0422491
0.319894
-0.074655
0.872843
-0.0799964
1.79613
-0.0974761
3.19938
-0.105824
5.20878
-0.105119
8.02007
-0.0978376
11.8447
-0.0842121
16.7993
-0.0696884
22.8548
-0.0390238
29.4569
-0.0078854
29.4534
0.0150713
22.8266
0.0370676
16.7712
0.053849
11.8149
0.0655393
7.99112
0.0663594
5.18116
0.0594008
3.17256
0.0630276
1.77131
0.0375911
0.853771
0.30621
-0.0422627
0.362157
-0.0961874
0.926767
-0.0912957
1.79124
-0.113173
3.22126
-0.128642
5.22425
-0.137732
8.02916
-0.131808
11.8388
-0.114761
16.7823
-0.0884643
22.8285
-0.0478731
29.4163
-0.00723012
29.4127
0.0299893
22.7894
0.0601238
16.7411
0.079497
11.7955
0.0843887
7.98623
0.0794553
5.18609
0.0712187
3.18079
0.0857024
1.75683
0.0387241
0.900749
0.344934
-0.0421509
0.404308
-0.105649
0.990265
-0.101617
1.78721
-0.118575
3.23821
-0.14187
5.24754
-0.161385
8.04868
-0.163759
11.8412
-0.153082
16.7716
-0.118773
22.7942
-0.0575088
29.355
0.00386699
29.3513
0.0531882
22.7401
0.0796261
16.7146
0.0927866
11.7823
0.0890984
7.98991
0.081806
5.19339
0.0795413
3.18306
0.0930563
1.74331
0.0363691
0.957436
0.381303
-0.0476959
0.452004
-0.114836
1.0574
-0.120803
1.79318
-0.128268
3.24568
-0.165671
5.28495
-0.187883
8.07089
-0.200233
11.8535
-0.19499
16.7664
-0.158025
22.7572
-0.0684129
29.2654
0.0242886
29.2586
0.0805605
22.6838
0.10526
16.6899
0.114475
11.7731
0.109393
7.995
0.0910073
5.21177
0.0957866
3.17828
0.100276
1.73883
0.0410246
1.01669
0.422327
-0.0588193
0.510823
-0.137235
1.13582
-0.166254
1.8222
-0.169012
3.24844
-0.210099
5.32603
-0.22811
8.0889
-0.23314
11.8585
-0.221575
16.7548
-0.181982
22.7176
-0.0778086
29.1612
0.0289564
29.1519
0.0928827
22.6199
0.124683
16.6581
0.142213
11.7556
0.147605
7.9896
0.126319
5.23306
0.138887
3.16571
0.121993
1.75572
0.052209
1.08647
0.474536
-0.0779218
0.588745
-0.180379
1.23828
-0.252865
1.89469
-0.264949
3.26052
-0.286087
5.34717
-0.296081
8.09889
-0.283331
11.8458
-0.257539
16.729
-0.209577
22.6697
-0.0911459
29.0428
0.0311768
29.0296
0.106473
22.5446
0.158782
16.6058
0.199091
11.7153
0.214805
7.97389
0.216854
5.23101
0.223871
3.15869
0.162722
1.81687
0.0702541
1.17894
0.54479
-0.0967517
0.685497
-0.222687
1.36421
-0.333677
2.00568
-0.366967
3.29381
-0.372566
5.35277
-0.392907
8.11923
-0.369407
11.8223
-0.310788
16.6704
-0.240667
22.5995
-0.102559
28.9047
0.0378621
28.8891
0.136593
22.4459
0.225476
16.5169
0.282104
11.6587
0.29007
7.96592
0.311192
5.20988
0.299821
3.17006
0.203394
1.9133
0.0882037
1.29413
0.632994
-0.110215
0.795712
-0.254997
1.50899
-0.389352
2.14003
-0.451739
3.3562
-0.463711
5.36474
-0.496684
8.15221
-0.479741
11.8053
-0.396521
16.5872
-0.293908
22.4969
-0.12418
28.735
0.0509899
28.714
0.189333
22.3075
0.315881
16.3904
0.370483
11.6041
0.375004
7.9614
0.397275
5.18761
0.355703
3.21164
0.234239
2.03476
0.100681
1.42769
0.733675
-0.124096
0.919807
-0.289693
1.67459
-0.453033
2.30337
-0.552979
3.45614
-0.583216
5.39498
-0.618751
8.18774
-0.608639
11.7952
-0.531908
16.5104
-0.389296
22.3543
-0.142824
28.4885
0.112308
28.4588
0.292993
22.1268
0.421764
16.2616
0.473037
11.5528
0.478463
7.95598
0.481675
5.1844
0.406028
3.28728
0.260558
2.18023
0.109349
1.5789
0.843024
-0.134659
1.05447
-0.321744
1.86168
-0.514704
2.49633
-0.651751
3.59319
-0.710406
5.45363
-0.739179
8.21652
-0.731624
11.7877
-0.667161
16.446
-0.496782
22.1839
-0.168608
28.1603
0.173106
28.1171
0.381872
21.9181
0.506063
16.1374
0.571064
11.4878
0.59538
7.93166
0.576422
5.20336
0.464464
3.39924
0.290874
2.35382
0.11895
1.75082
0.961974
-0.146185
1.20065
-0.355605
2.0711
-0.574035
2.71476
-0.744023
3.76318
-0.824683
5.53429
-0.834077
8.22591
-0.808189
11.7618
-0.740394
16.3782
-0.549886
21.9934
-0.199196
27.8096
0.164161
27.7538
0.404694
21.6775
0.543281
15.9988
0.639872
11.3912
0.688409
7.88312
0.649101
5.24267
0.507492
3.54085
0.31103
2.55028
0.12328
1.93857
1.08525
-0.14749
1.34814
-0.368272
2.29188
-0.613048
2.95953
-0.819979
3.97011
-0.933605
5.64792
-0.939754
8.23206
-0.903663
11.7257
-0.821154
16.2957
-0.603102
21.7754
-0.238578
27.4451
0.143391
27.3718
0.417418
21.4035
0.591074
15.8252
0.720278
11.262
0.78322
7.82018
0.719014
5.30687
0.547369
3.7125
0.327196
2.77046
0.124201
2.14157
1.20945
-0.16271
1.51085
-0.408451
2.53762
-0.675179
3.22626
-0.912328
4.20726
-1.06721
5.8028
-1.1047
8.26956
-1.07424
11.6952
-0.9768
16.1982
-0.718801
21.5174
-0.29158
27.0179
0.169464
26.9107
0.494338
21.0786
0.707485
15.612
0.84573
11.1237
0.886872
7.77904
0.777317
5.41643
0.568402
3.92141
0.328506
3.01035
0.116927
2.35315
1.32638
-0.155377
1.66623
-0.411282
2.79353
-0.711031
3.52601
-1.00128
4.4975
-1.2185
6.02002
-1.30379
8.35485
-1.29081
11.6823
-1.1677
16.0751
-0.860379
21.21
-0.354688
26.5122
0.191013
26.365
0.577215
20.6924
0.838068
15.3512
0.974849
10.987
0.979351
7.77454
0.830703
5.56507
0.594828
4.15729
0.335154
3.27002
0.109064
2.57924
1.43545
-0.172059
1.83829
-0.449762
3.07123
-0.765882
3.84213
-1.07708
4.8087
-1.33595
6.27888
-1.47651
8.49541
-1.48438
11.6901
-1.32331
15.9141
-0.97597
20.8627
-0.430848
25.9671
0.162452
25.7717
0.617119
20.2378
0.931849
15.0365
1.07021
10.8486
1.03732
7.80743
0.842138
5.76026
0.577018
4.42241
0.307416
3.53963
0.0843981
2.80225
1.51984
-0.153313
1.9916
-0.433537
3.35145
-0.772554
4.18115
-1.1262
5.16235
-1.43896
6.59165
-1.62908
8.68553
-1.64791
11.709
-1.47008
15.7362
-1.09271
20.4853
-0.528045
25.4024
0.0983406
25.1454
0.625248
19.7109
0.976645
14.6851
1.10105
10.7242
1.02606
7.88242
0.809205
5.97712
0.53915
4.69246
0.27239
3.80639
0.0560331
3.01861
1.57588
-0.169576
2.16118
-0.456846
3.63872
-0.796866
4.52117
-1.15941
5.52489
-1.50404
6.93628
-1.75017
8.93165
-1.80795
11.7668
-1.63911
15.5674
-1.23969
20.0859
-0.650524
24.8133
0.0277134
24.4671
0.608092
19.1305
0.97479
14.3184
1.07697
10.622
0.964557
7.99483
0.729742
6.21193
0.46218
4.96002
0.217886
4.05068
0.0217537
3.21474
1.59763
-0.160326
2.3215
-0.447574
3.92597
-0.794592
4.86819
-1.17623
5.90653
-1.55579
7.31585
-1.85688
9.23274
-1.9643
11.8742
-1.81973
15.4228
-1.42404
19.6902
-0.804707
24.1939
-0.0720882
23.7345
0.533348
18.525
0.888841
13.9629
0.956579
10.5543
0.829173
8.12224
0.617847
6.42326
0.384652
5.19322
0.169306
4.26603
0.00307009
3.38098
1.6007
-0.185691
2.50719
-0.471191
4.21147
-0.809958
5.20695
-1.19624
6.29281
-1.59548
7.71509
-1.93182
9.56907
-2.09467
12.037
-2.0009
15.329
-1.62668
19.316
-0.988721
23.556
-0.235178
22.981
0.365204
17.9247
0.680245
13.6478
0.728765
10.5058
0.609146
8.24185
0.425806
6.6066
0.235418
5.3836
0.0682908
4.43316
-0.0242549
3.47352
1.57645
-0.214686
2.72188
-0.501233
4.49802
-0.850574
5.55629
-1.25875
6.70098
-1.67165
8.12798
-2.02873
9.92616
-2.24565
12.2539
-2.20134
15.2847
-1.84813
18.9628
-1.21052
22.9183
-0.461716
22.2322
0.0933065
17.3696
0.363537
13.3776
0.403561
10.4657
0.318289
8.32713
0.188924
6.73596
0.0546367
5.51789
-0.0524168
4.54021
-0.0680105
3.48912
1.50843
-0.306167
3.02805
-0.603765
4.79562
-1.00416
5.95669
-1.42851
7.12534
-1.83422
8.53369
-2.19454
10.2865
-2.43247
12.4919
-2.41273
15.265
-2.08773
18.6378
-1.47295
22.3036
-0.760711
21.5199
-0.253785
16.8627
-0.019999
13.1438
0.0317203
10.414
-0.00916937
8.36802
-0.0780193
6.80481
-0.144747
5.58462
-0.189336
4.5848
-0.13894
3.43872
1.36949
-0.437615
3.46566
-0.896231
5.25423
-1.34029
6.40074
-1.73824
7.52329
-2.12536
8.92081
-2.45994
10.6211
-2.66791
12.6998
-2.65518
15.2523
-2.35601
18.3386
-1.77293
21.7205
-1.11878
20.8658
-0.668549
16.4125
-0.449358
12.9246
-0.36494
10.3296
-0.350884
8.35396
-0.36778
6.82171
-0.376816
5.59366
-0.327758
4.53574
-0.200638
3.3116
1.16886
-0.303801
3.76946
-0.682642
5.63307
-1.03284
6.75094
-1.4215
7.91195
-1.82537
9.32467
-2.19819
10.9939
-2.49154
12.9932
-2.62192
15.3826
-2.48903
18.2057
-2.03695
21.2684
-1.46094
20.2898
-1.03557
15.9871
-0.799803
12.6889
-0.66035
10.1901
-0.558329
8.25194
-0.467224
6.7306
-0.392534
5.51897
-0.304347
4.44755
-0.156302
3.16356
1.01255
-0.135754
3.90522
-0.308361
5.80568
-0.586827
7.0294
-0.912675
8.2378
-1.23501
9.647
-1.52906
11.288
-1.76106
13.2252
-1.86833
15.4899
-1.78193
18.1193
-1.4399
20.9264
-1.02788
19.8777
-0.72031
15.6795
-0.51787
12.4864
-0.374612
10.0469
-0.268023
8.14535
-0.173114
6.6357
-0.0694111
5.41526
-0.00924363
4.38739
0.0329676
3.12135
1.04552
-0.112067
4.01728
-0.22782
5.92143
-0.392902
7.19449
-0.610779
8.45568
-0.842109
9.87833
-1.07041
11.5163
-1.25645
13.4112
-1.35444
15.5879
-1.30709
18.072
-1.06166
20.6809
-0.770695
19.5868
-0.547958
15.4568
-0.38563
12.3241
-0.258761
9.92001
-0.15888
8.04547
-0.085677
6.56249
-0.0241729
5.35376
0.0461256
4.31709
0.0649078
3.10256
1.11043
-0.0624091
4.07969
-0.153249
6.01227
-0.282666
7.3239
-0.435897
8.60891
-0.600223
10.0427
-0.771202
11.6872
-0.917539
13.5576
-1.00551
15.6759
-0.985258
18.0517
-0.816558
20.5122
-0.609294
19.3795
-0.442834
15.2904
-0.311481
12.1927
-0.206469
9.815
-0.120769
7.95977
-0.052328
6.49405
-0.00133082
5.30276
0.0503599
4.2654
0.0723199
3.0806
1.18275
0.00165406
4.07804
-0.159776
6.1737
-0.267166
7.43129
-0.350279
8.69202
-0.448301
10.1407
-0.574561
11.8135
-0.692414
13.6754
-0.770629
15.7541
-0.769546
18.0507
-0.659398
20.4021
-0.511276
19.2314
-0.388305
15.1674
-0.291546
12.096
-0.211458
9.73491
-0.140245
7.88856
-0.065469
6.41928
0.0155708
5.22172
0.0683748
4.21259
0.0711951
3.07778
1.25395
-0.00606578
4.0841
-0.110846
6.27848
-0.20788
7.52833
-0.28069
8.76483
-0.36437
10.2244
-0.455093
11.9042
-0.547066
13.7674
-0.614021
15.821
-0.626148
18.0628
-0.559152
20.3351
-0.454762
19.127
-0.360386
15.073
-0.27537
12.011
-0.189131
9.64867
-0.0973861
7.79681
-0.0162482
6.33814
0.027701
5.17777
0.0587014
4.18159
0.0572349
3.07925
1.31118
-0.0151142
4.09922
-0.0813052
6.34467
-0.146086
7.59311
-0.218603
8.83735
-0.304685
10.3104
-0.384071
11.9836
-0.45558
13.8389
-0.512016
15.8775
-0.533002
18.0838
-0.495919
20.298
-0.417843
19.0489
-0.331903
14.9871
-0.245721
11.9248
-0.174682
9.57764
-0.136556
7.75868
-0.106801
6.30838
-0.0506791
5.12165
-0.00247264
4.13339
0.0161312
3.06065
1.32731
0.0164076
4.08281
-0.0406677
6.40175
-0.105115
7.65755
-0.182419
8.91465
-0.263663
10.3917
-0.335694
12.0556
-0.396268
13.8995
-0.4469
15.9281
-0.472536
18.1094
-0.454463
20.2799
-0.394154
18.9886
-0.321451
14.9144
-0.252486
11.8558
-0.181806
9.50696
-0.0881104
7.66499
-0.011908
6.23218
0.0138973
5.09585
0.0154827
4.1318
-0.00889846
3.08503
1.31841
0.0142915
4.06852
-0.0195645
6.43561
-0.0727796
7.71077
-0.153028
8.9949
-0.230078
10.4687
-0.298086
12.1236
-0.354822
13.9562
-0.403519
15.9768
-0.431343
18.1372
-0.427674
20.2763
-0.382899
18.9438
-0.31732
14.8488
-0.244314
11.7828
-0.182783
9.44542
-0.159694
7.6419
-0.142241
6.21473
-0.104273
5.05788
-0.0501047
4.07763
-0.0107618
3.04568
1.30765
0.0303063
4.03821
-0.00386543
6.46978
-0.0607096
7.76761
-0.134161
9.06835
-0.204301
10.5389
-0.267216
12.1866
-0.322497
14.0115
-0.371281
16.0256
-0.401633
18.1676
-0.411455
20.2861
-0.382311
18.9147
-0.329788
14.7963
-0.273806
11.7268
-0.219888
9.39151
-0.143119
7.56513
-0.0673987
6.13901
-0.0232267
5.01371
-0.00677304
4.06118
-0.0154277
3.05434
1.29222
0.0115149
4.0267
-0.0151009
6.49639
-0.0551909
7.8077
-0.1167
9.12986
-0.179194
10.6014
-0.239417
12.2468
-0.295504
14.0676
-0.345576
16.0757
-0.38033
18.2023
-0.404684
20.3104
-0.394464
18.9045
-0.352808
14.7546
-0.293153
11.6672
-0.228282
9.32664
-0.18998
7.52683
-0.161924
6.11095
-0.123071
4.97485
-0.0684728
4.00658
-0.0219827
3.00785
1.27024
0.0272026
3.9995
-0.0114806
6.53508
-0.0567741
7.853
-0.102418
9.17551
-0.15511
10.6541
-0.212201
12.3039
-0.270052
14.1254
-0.322049
16.1277
-0.363965
18.2443
-0.401856
20.3483
-0.407836
18.9104
-0.378404
14.7252
-0.330217
11.619
-0.272274
9.26869
-0.195843
7.4504
-0.118049
6.03316
-0.0691294
4.92593
-0.0516697
3.98912
-0.0359324
2.99211
1.23431
0.00453379
3.99496
-0.0275881
6.5672
-0.0618942
7.8873
-0.0959704
9.20958
-0.139247
10.6973
-0.19054
12.3552
-0.247181
14.1821
-0.301224
16.1817
-0.350488
18.2935
-0.400023
20.3979
-0.423446
18.9339
-0.411
14.7127
-0.367231
11.5752
-0.301245
9.20271
-0.246133
7.39529
-0.203098
5.99012
-0.151016
4.87385
-0.0801161
3.91822
-0.0345461
2.94654
1.19976
0.00744905
3.98751
-0.0225039
6.59715
-0.051783
7.91658
-0.0885852
9.24638
-0.127518
10.7363
-0.174702
12.4023
-0.227945
14.2353
-0.282545
16.2363
-0.337567
18.3485
-0.396796
20.4571
-0.432644
18.9697
-0.432778
14.7129
-0.403028
11.5455
-0.358867
9.15855
-0.28611
7.32253
-0.200399
5.90441
-0.143832
4.81728
-0.114857
3.88925
-0.0625882
2.89427
1.13717
0.00866664
3.97885
-0.0178424
6.62366
-0.0448892
7.94363
-0.0803451
9.28184
-0.117267
10.7732
-0.162227
12.4473
-0.212298
14.2854
-0.266879
16.2909
-0.325449
18.4071
-0.391902
20.5236
-0.440447
19.0183
-0.463405
14.7358
-0.447526
11.5296
-0.396258
9.10728
-0.33595
7.26222
-0.277206
5.84567
-0.203967
4.74404
-0.116816
3.8021
-0.0595091
2.83697
1.07767
0.000754393
3.97809
-0.0245294
6.64894
-0.0422887
7.96139
-0.0740278
9.31358
-0.109491
10.8087
-0.151396
12.4892
-0.198736
14.3327
-0.252493
16.3446
-0.313085
18.4677
-0.385746
20.5962
-0.443958
19.0765
-0.476919
14.7688
-0.47663
11.5293
-0.451599
9.08225
-0.399591
7.21022
-0.322804
5.76888
-0.24895
4.67019
-0.18459
3.73774
-0.0913265
2.7437
0.986339
0.012145
3.96595
-0.0076183
6.66871
-0.0320336
7.9858
-0.068277
9.34982
-0.102079
10.8425
-0.141672
12.5288
-0.186454
14.3775
-0.239343
16.3975
-0.301277
18.5296
-0.378361
20.6733
-0.446051
19.1442
-0.493399
14.8161
-0.519234
11.5551
-0.501543
9.06456
-0.450659
7.15933
-0.388644
5.70686
-0.30435
4.5859
-0.185838
3.61922
-0.0910657
2.64893
0.895273
0.0058938
3.96005
-0.0149178
6.68952
-0.0297825
8.00067
-0.0616192
9.38166
-0.0948599
10.8757
-0.132407
12.5664
-0.174771
14.4199
-0.226547
16.4493
-0.288936
18.592
-0.369277
20.7536
-0.445281
19.2202
-0.501238
14.8721
-0.532585
11.5865
-0.546499
9.07847
-0.531676
7.14451
-0.479847
5.65503
-0.396847
4.5029
-0.289347
3.51172
-0.136779
2.49636
0.758494
0.00708822
3.95296
-0.00785955
6.70447
-0.0300953
8.0229
-0.0588515
9.41042
-0.0887543
10.9056
-0.123483
12.6011
-0.163778
14.4602
-0.214463
16.5
-0.276715
18.6543
-0.358787
20.8357
-0.442009
19.3034
-0.51147
14.9415
-0.560593
11.6356
-0.58072
9.0986
-0.571333
7.13512
-0.533019
5.61672
-0.460003
4.42988
-0.325191
3.37691
-0.160168
2.33134
0.598326
0.00366154
3.9493
-0.00815682
6.71628
-0.0234504
8.0382
-0.0536097
9.44057
-0.0818161
10.9338
-0.114893
12.6342
-0.154135
14.4994
-0.204006
16.5499
-0.26588
18.7162
-0.34925
20.9191
-0.438735
19.3929
-0.517439
15.0203
-0.576313
11.6945
-0.615354
9.13764
-0.642682
7.16245
-0.638188
5.61223
-0.596476
4.38817
-0.48689
3.26733
-0.178635
2.02308
0.419691
0.00237568
3.94693
-0.00990335
6.72856
-0.029189
8.05748
-0.0503845
9.46177
-0.0768556
10.9603
-0.111762
12.6691
-0.153231
14.5409
-0.206122
16.6028
-0.273073
18.7831
-0.365582
21.0116
-0.470636
19.4979
-0.571582
15.1212
-0.661878
11.7848
-0.728335
9.20409
-0.755915
7.19003
-0.753417
5.60973
-0.707858
4.34261
-0.597187
3.15666
-0.383586
1.80948
0.827682
-0.791577
0.00236023
3.94457
-0.0102926
6.74122
-0.0250712
8.07226
-0.0464688
9.48317
-0.0739273
10.9877
-0.10569
12.7008
-0.147276
14.5825
-0.200708
16.6562
-0.269711
18.8521
-0.367291
21.1092
-0.483529
19.6142
-0.600939
15.2386
-0.711423
11.8953
-0.810551
9.30322
-0.902441
7.28192
-1.00071
5.708
-1.08806
4.42996
-1.01104
3.07963
-0.921205
1.71965
1.25704
-1.35056
0.00150652
3.94306
-0.00737599
6.7501
-0.0268844
8.09177
-0.0464886
9.50277
-0.0728396
11.0141
-0.099865
12.7279
-0.141377
14.624
-0.194996
16.7098
-0.266094
18.9232
-0.368664
21.2117
-0.495442
19.7409
-0.6314
15.3746
-0.77369
12.0375
-0.916775
9.44631
-1.05158
7.41673
-1.15218
5.8086
-1.1725
4.45028
-1.05032
2.95744
-1.29001
1.95934
1.63179
-1.66475
-0.00623468
3.9493
-0.00883566
6.7527
-0.0232948
8.10623
-0.042075
9.52155
-0.0657694
11.0378
-0.0933661
12.7554
-0.134442
14.665
-0.187908
16.7633
-0.260655
18.996
-0.367643
21.3187
-0.504017
19.8773
-0.656037
15.5266
-0.82215
12.2037
-1.00252
9.62668
-1.19886
7.61307
-1.37119
5.98093
-1.38206
4.46115
-1.40209
2.97748
-1.68793
2.24518
1.88823
-1.94437
-0.00397261
3.95327
-0.0102989
6.75903
-0.0192746
8.11521
-0.0340108
9.53629
-0.0562758
11.0601
-0.0876806
12.7869
-0.127649
14.705
-0.180888
16.8165
-0.254873
19.0699
-0.365733
21.4296
-0.510178
20.0218
-0.677369
15.6938
-0.871999
12.3983
-1.08427
9.83895
-1.28546
7.81426
-1.40494
6.1004
-1.40362
4.45983
-1.57405
3.1479
-1.86667
2.5378
2.09984
-2.07829
0.00913655
3.94413
-0.00664746
6.77481
-0.02061
8.12917
-0.0376848
9.55336
-0.0572897
11.0797
-0.0859234
12.8155
-0.125235
14.7443
-0.178499
16.8698
-0.253859
19.1453
-0.368407
21.5441
-0.520056
20.1734
-0.698642
15.8724
-0.908492
12.6081
-1.12871
10.0592
-1.33116
8.01671
-1.5263
6.29554
-1.67737
4.6109
-1.9261
3.39664
-2.1873
2.799
2.24041
-2.32787
0.00815533
3.93598
-0.00333721
6.7863
-0.0206515
8.14648
-0.0397364
9.57245
-0.0601471
11.1001
-0.0870006
12.8423
-0.127296
14.7846
-0.180746
16.9232
-0.25791
19.2225
-0.376537
21.6628
-0.534494
20.3314
-0.71903
16.0569
-0.936552
12.8257
-1.18015
10.3028
-1.4113
8.24785
-1.54055
6.4248
-1.66492
4.73527
-1.94965
3.68136
-2.19128
3.04064
2.43817
-2.38905
-0.0007827
3.93676
-0.00684739
6.79237
-0.0170446
8.15668
-0.0339116
9.58932
-0.0559135
11.1221
-0.0872764
12.8737
-0.128249
14.8256
-0.182284
16.9773
-0.260755
19.3009
-0.382733
21.7847
-0.546339
20.495
-0.73302
16.2436
-0.948241
13.0409
-1.19578
10.5503
-1.43667
8.48874
-1.60585
6.59398
-1.86529
4.99471
-2.32531
4.14138
-2.71616
3.43148
2.73601
-3.01401
0.00771545
3.92904
-0.00291
6.80299
-0.0170141
8.17078
-0.037417
9.60972
-0.0578702
11.1425
-0.0893779
12.9052
-0.129669
14.8659
-0.184256
17.0318
-0.263349
19.38
-0.387805
21.9092
-0.557854
20.665
-0.746553
16.4323
-0.946381
13.2407
-1.18411
10.788
-1.46139
8.76602
-1.71532
6.84791
-1.96117
5.24056
-2.39032
4.57053
-2.89181
3.93298
2.94734
-3.10314
0.015701
3.91334
0.00143077
6.81726
-0.0171667
8.18938
-0.0416727
9.63422
-0.063378
11.1642
-0.0910826
12.9329
-0.130631
14.9054
-0.184995
17.0862
-0.263694
19.4587
-0.388341
22.0338
-0.559213
20.8359
-0.746802
16.6199
-0.950758
13.4447
-1.16419
11.0015
-1.39616
8.99799
-1.64353
7.09528
-2.14875
5.74578
-2.54743
4.96921
-3.06605
4.4516
3.7234
-3.84211
0.00442933
3.90891
-0.00392506
6.82562
-0.0149328
8.20039
-0.0353104
9.6546
-0.0606591
11.1896
-0.0906139
12.9629
-0.130497
14.9453
-0.183456
17.1392
-0.259198
19.5345
-0.377592
22.1522
-0.533951
20.9923
-0.705025
16.7909
-0.891857
13.6315
-1.08583
11.1954
-1.26159
9.17376
-1.50261
7.3363
-1.86985
6.11302
-2.06182
5.16119
-1.50673
3.89651
2.21667
0.00972848
3.89918
-0.000258474
6.8356
-0.0134437
8.21357
-0.0336472
9.67481
-0.0584475
11.2144
-0.0899998
12.9944
-0.131192
14.9865
-0.186862
17.1948
-0.265415
19.613
-0.386382
22.2732
-0.540885
21.1468
-0.709067
16.9591
-0.889129
13.8116
-1.06034
11.3666
-1.15989
9.27331
-1.23531
7.41171
-1.1898
6.06751
-1.06491
5.0363
-0.739088
3.57068
1.47758
0.0148289
3.88436
0.00445941
6.84597
-0.0113664
8.2294
-0.0341461
9.69759
-0.0588161
11.239
-0.088525
13.0241
-0.130254
15.0282
-0.187155
17.2517
-0.2662
19.6921
-0.387022
22.394
-0.539333
21.2991
-0.697547
17.1173
-0.852586
13.9666
-0.968521
11.4826
-1.00164
9.30643
-1.00546
7.41553
-1.03846
6.10052
-1.01588
5.01372
-0.826947
3.38175
0.650636
0.0187599
3.8656
0.00608439
6.85865
-0.00710731
8.24259
-0.0291669
9.71964
-0.0548113
11.2647
-0.0832411
13.0526
-0.125676
15.0707
-0.182803
17.3089
-0.2607
19.77
-0.378208
22.5115
-0.522722
21.4436
-0.660549
17.2552
-0.776602
14.0826
-0.842059
11.548
-0.877665
9.34204
-0.904441
7.44231
-0.953586
6.14966
-0.883215
4.94334
-0.40871
2.90724
0.241927
0.0167178
3.84888
0.00975529
6.86561
-0.001423
8.25377
-0.0222768
9.7405
-0.0472156
11.2896
-0.0753662
13.0807
-0.119758
15.1151
-0.174019
17.3631
-0.248724
19.8447
-0.35898
22.6218
-0.489223
21.5738
-0.597598
17.3635
-0.66572
14.1508
-0.720118
11.6024
-0.764708
9.38663
-0.792747
7.47035
-0.783903
6.14082
-0.596765
4.75621
-0.180391
2.49087
0.0615355
0.0257421
3.82314
0.0176521
6.8737
0.00592735
8.26549
-0.0174551
9.76388
-0.0382893
11.3105
-0.0646271
13.107
-0.109551
15.16
-0.157415
17.411
-0.227619
19.9149
-0.326791
22.721
-0.433851
21.6809
-0.509408
17.4391
-0.554882
14.1962
-0.597734
11.6453
-0.609911
9.3988
-0.626249
7.48669
-0.541478
6.05605
-0.366072
4.5808
-0.149549
2.27435
-0.0880138
0.0249488
3.79819
0.0247394
6.87391
0.0152457
8.27499
-0.00696882
9.7861
-0.0204952
11.324
-0.0508159
13.1374
-0.0928192
15.202
-0.134059
17.4522
-0.197732
19.9785
-0.282014
22.8053
-0.362695
21.7616
-0.415091
17.4915
-0.447196
14.2283
-0.442097
11.6402
-0.416412
9.37312
-0.373822
7.4441
-0.278335
5.96056
-0.130795
4.43326
-0.00320231
2.14675
-0.0912161
0.0337668
3.76442
0.0343131
6.87337
0.0269364
8.28237
0.00685899
9.80617
0.00150651
11.3293
-0.0322894
13.1712
-0.0635715
15.2333
-0.100466
17.4891
-0.156038
20.0341
-0.224045
22.8733
-0.281045
21.8186
-0.313091
17.5235
-0.316911
14.2322
-0.265941
11.5892
-0.183943
9.29112
-0.0673606
7.32751
0.0370456
5.85615
0.126462
4.34384
0.120563
2.15265
0.0293473
0.0370255
3.72739
0.0493875
6.861
0.0456731
8.28608
0.0331706
9.81868
0.0223602
11.3402
-0.0101643
13.2037
-0.023864
15.247
-0.0596006
17.5249
-0.103864
20.0784
-0.155002
22.9244
-0.18897
21.8525
-0.195818
17.5304
-0.165205
14.2016
-0.0901904
11.5142
0.0131679
9.18776
0.145638
7.19504
0.287138
5.71465
0.354956
4.27603
0.209833
2.29778
0.239181
0.0507873
3.67661
0.0635419
6.84825
0.0660475
8.28357
0.059302
9.82542
0.051384
11.3481
0.0350233
13.2201
0.0265246
15.2555
-0.00865475
17.56
-0.0394885
20.1092
-0.0732091
22.9581
-0.0872874
21.8666
-0.0702791
17.5134
-0.0103857
14.1417
0.0867495
11.4171
0.184091
9.09042
0.278012
7.10112
0.375623
5.61704
0.441285
4.21036
0.294436
2.44463
0.533616
0.0612451
3.61536
0.0876957
6.8218
0.0965297
8.27474
0.0951387
9.82681
0.0941047
11.3491
0.0912327
13.2229
0.0833455
15.2634
0.0667791
17.5766
0.043964
20.132
0.0202439
22.9818
0.0225209
21.8643
0.0632735
17.4726
0.131614
14.0733
0.201349
11.3473
0.256468
9.0353
0.309059
7.04853
0.377679
5.54842
0.419306
4.16874
0.295068
2.56886
0.828685
0.0784471
3.53692
0.108461
6.79178
0.129221
8.25398
0.139586
9.81645
0.150281
11.3384
0.159328
13.2139
0.159657
15.263
0.161754
17.5745
0.152577
20.1412
0.142872
22.9915
0.156298
21.8509
0.191187
17.4377
0.2297
14.0348
0.265196
11.3118
0.290922
9.00957
0.32228
7.01717
0.372745
5.49796
0.380375
4.1611
0.248902
2.70034
1.07759
0.0969341
3.43998
0.148654
6.74006
0.178938
8.2237
0.199261
9.79613
0.222538
11.3151
0.242211
13.1942
0.255573
15.2497
0.272707
17.5574
0.275297
20.1386
0.275724
22.9911
0.285509
21.8411
0.303527
17.4197
0.328238
14.0101
0.359142
11.2809
0.378502
8.99021
0.384045
7.01163
0.38721
5.49479
0.343203
4.20511
0.194858
2.84868
1.27244
0.121743
3.31824
0.186337
6.67547
0.235491
8.17454
0.276635
9.75498
0.315058
11.2767
0.348426
13.1608
0.383001
15.2151
0.409561
17.5308
0.422664
20.1255
0.426951
22.9868
0.427544
21.8405
0.440551
17.4067
0.464674
13.986
0.487294
11.2583
0.478391
8.99912
0.434497
7.05553
0.391898
5.53739
0.315405
4.2816
0.167901
2.99619
1.44035
0.156393
3.16185
0.256237
6.57563
0.320801
8.10998
0.377062
9.69872
0.430131
11.2236
0.481158
13.1098
0.536469
15.1598
0.57443
17.4928
0.598205
20.1017
0.607195
22.9778
0.606565
21.8412
0.613731
17.3995
0.623487
13.9762
0.62715
11.2547
0.597608
9.02866
0.519982
7.13315
0.438801
5.61857
0.328799
4.39161
0.163471
3.16151
1.60382
0.201436
2.96041
0.330601
6.44646
0.424762
8.01582
0.511271
9.61221
0.583858
11.1511
0.654893
13.0388
0.728762
15.0859
0.783856
17.4378
0.818936
20.0667
0.832992
22.9638
0.820518
21.8536
0.799312
17.4208
0.777488
13.998
0.751117
11.281
0.707246
9.07253
0.598942
7.24146
0.48103
5.73648
0.339857
4.53278
0.158401
3.34297
1.76222
0.272484
2.68792
0.46129
6.25766
0.581253
7.89585
0.686804
9.50666
0.778942
11.0589
0.876559
12.9412
0.972756
14.9897
1.04702
17.3635
1.09528
20.0184
1.10587
22.9532
1.06531
21.8942
1.00672
17.4793
0.94517
14.0596
0.8768
11.3494
0.815308
9.13402
0.686315
7.37045
0.532944
5.88985
0.35784
4.70788
0.151775
3.54903
1.91399
0.366962
2.32096
0.617996
6.00662
0.783832
7.73002
0.929314
9.36118
1.04907
10.9392
1.17148
12.8187
1.29215
14.869
1.38853
17.2671
1.45019
19.9567
1.45392
22.9495
1.3854
21.9627
1.28374
17.581
1.16671
14.1766
1.02699
11.4891
0.897978
9.26304
0.727632
7.54079
0.537352
6.08013
0.340187
4.90505
0.134086
3.75513
2.04808
0.534927
1.78603
0.880801
5.66075
1.08272
7.5281
1.2511
9.19279
1.39705
10.7932
1.55181
12.664
1.70629
14.7146
1.82582
17.1476
1.90545
19.8771
1.91332
22.9416
1.82753
22.0485
1.67971
17.7288
1.50396
14.3524
1.30018
11.6929
1.09016
9.47306
0.8776
7.75335
0.648347
6.30939
0.419236
5.13416
0.178298
3.99607
2.22638
0.722298
1.06374
1.20188
5.18116
1.47165
7.25834
1.68968
8.97476
1.87846
10.6044
2.06697
12.4755
2.2523
14.5292
2.40903
16.9908
2.52779
19.7584
2.55428
22.9151
2.45871
22.1441
2.27477
17.9128
2.0523
14.5748
1.79628
11.9489
1.50293
9.76641
1.20932
8.04696
0.89387
6.62484
0.586673
5.44136
0.27578
4.30697
2.50216
0.593035
0.470702
1.09784
4.67636
1.42716
6.92902
1.661
8.74092
1.83993
10.4255
1.99053
12.3249
2.11217
14.4076
2.19603
16.907
2.21065
19.7437
2.11659
23.0092
1.93398
22.3267
1.71663
18.1301
1.49347
14.798
1.26925
12.1731
1.02276
10.0129
0.81611
8.25361
0.607243
6.8337
0.4119
5.6367
0.20032
4.51855
2.70248
0.0344308
0.436271
0.303172
4.40762
0.594001
6.63819
0.853008
8.48192
1.09834
10.1802
1.30912
12.1141
1.48631
14.2304
1.6223
16.771
1.68859
19.6775
1.64864
23.0491
1.51074
22.4646
1.32466
18.3162
1.12751
14.9951
0.938158
12.3625
0.732096
10.219
0.546115
8.43959
0.383523
6.9963
0.235221
5.785
0.0967747
4.65699
2.79925
-0.268457
0.704727
-0.203431
4.34259
0.00611901
6.42864
0.273351
8.21468
0.538356
9.91516
0.780068
11.8724
0.987192
14.0233
1.14767
16.6105
1.24659
19.5785
1.25567
23.04
1.16024
22.56
1.01024
18.4662
0.843707
15.1617
0.687468
12.5187
0.522755
10.3837
0.380072
8.58227
0.251553
7.12481
0.138127
5.89843
0.0452973
4.74982
2.84455
-0.329553
1.03428
-0.294263
4.3073
-0.163685
6.29806
0.00761736
8.04338
0.204377
9.71841
0.420493
11.6563
0.626391
13.8174
0.792031
16.4449
0.901832
19.4687
0.933805
23.008
0.873857
22.62
0.762548
18.5775
0.630021
15.2942
0.50518
12.6436
0.379838
10.509
0.272182
8.68993
0.179593
7.2174
0.100689
5.97733
0.0254975
4.82501
2.87005
-0.296106
1.33039
-0.295782
4.30698
-0.214083
6.21637
-0.103158
7.93246
0.0559945
9.55925
0.231798
11.4805
0.395161
13.654
0.535411
16.3046
0.64308
19.3611
0.68898
22.9621
0.65347
22.6555
0.573385
18.6576
0.471975
15.3956
0.376639
12.7389
0.285547
10.6001
0.201067
8.77441
0.123384
7.29509
0.0541855
6.04653
-0.00837743
4.88758
2.86167
-0.229504
1.55989
-0.26958
4.34706
-0.209571
6.15636
-0.0977146
7.8206
0.026341
9.4352
0.146596
11.3602
0.260368
13.5402
0.365985
16.199
0.461666
19.2654
0.508996
22.9148
0.48922
22.6752
0.432457
18.7144
0.355773
15.4723
0.28117
12.8135
0.210559
10.6707
0.139341
8.84563
0.0688505
7.36558
0.0029664
6.11241
-0.0377746
4.92832
2.8239
-0.168635
1.72853
-0.230937
4.40936
-0.190529
6.11595
-0.0948965
7.72497
0.007385
9.33292
0.0974193
11.2702
0.175628
13.462
0.263505
16.1111
0.340736
19.1882
0.378395
22.8772
0.36645
22.6872
0.326272
18.7545
0.267477
15.5311
0.202848
12.8781
0.142837
10.7307
0.0828118
8.90565
0.024164
7.42422
-0.025705
6.16228
-0.0509037
4.95352
2.77299
-0.124241
1.85277
-0.181307
4.46642
-0.166943
6.10158
-0.106577
7.6646
-0.0328713
9.25921
0.0432681
11.194
0.119375
13.3859
0.201227
16.0293
0.25865
19.1307
0.283099
22.8527
0.274209
22.6961
0.243063
18.7857
0.196431
15.5777
0.140454
12.9341
0.0870272
10.7842
0.03578
8.9569
-0.00699034
7.46699
-0.0424604
6.19775
-0.0534465
4.9645
2.71955
-0.0940357
1.9468
-0.145978
4.51837
-0.14768
6.10329
-0.115769
7.63269
-0.0793915
9.22283
-0.00948523
11.1241
0.0706002
13.3058
0.15144
15.9484
0.189293
19.0929