/*--------------------------------*- C++ -*----------------------------------*\
| =========                 |                                                 |
| \\      /  F ield         | OpenFOAM: The Open Source CFD Toolbox           |
|  \\    /   O peration     | Version:  2412                                  |
|   \\  /    A nd           | Website:  www.openfoam.com                      |
|    \\/     M anipulation  |                                                 |
\*---------------------------------------------------------------------------*/
FoamFile
{
    version     2.0;
    format      ascii;
    arch        "LSB;label=32;scalar=64";
    class       volVectorField;
    location    "3.75";
    object      U;
}
// * * * * * * * * * * * * * * * * * * * * * * * * * * * * * * * * * * * * * //

dimensions      [0 1 -1 0 0 0 0];

internalField   nonuniform List<vector> 
2200
(
(0.369163 0.000457896 0)
(1.19055 -0.00241891 0)
(2.12116 8.38614e-06 0)
(3.16817 0.00060932 0)
(4.32539 0.00140331 0)
(5.57116 0.00239612 0)
(6.86424 0.00265873 0)
(8.1221 0.0027311 0)
(9.20794 0.00317256 0)
(9.90151 0.00251939 0)
(9.90124 0.00185762 0)
(9.20676 0.000935743 0)
(8.12093 0.00032144 0)
(6.86401 9.53102e-05 0)
(5.57164 5.56304e-05 0)
(4.32502 0.000270404 0)
(3.16785 0.000260885 0)
(2.12107 0.000862407 0)
(1.19004 0.00317937 0)
(0.368148 -0.000343708 0)
(0.372561 0.00554595 0)
(1.18091 0.000573725 0)
(2.12047 0.00313078 0)
(3.16911 0.00341633 0)
(4.32564 0.005448 0)
(5.57297 0.00836014 0)
(6.86198 0.00938485 0)
(8.11823 0.00978308 0)
(9.20453 0.00916863 0)
(9.89839 0.00780082 0)
(9.89857 0.00509807 0)
(9.20416 0.00195285 0)
(8.11884 -0.000170675 0)
(6.86176 -0.000578667 0)
(5.57068 -0.00179817 0)
(4.32419 -0.00107712 0)
(3.16764 -0.000645298 0)
(2.11738 -0.00149036 0)
(1.17769 0.00105755 0)
(0.369879 -0.00564652 0)
(0.39144 0.00920067 0)
(1.18045 0.00977102 0)
(2.12378 0.00983817 0)
(3.17036 0.011283 0)
(4.32431 0.0151597 0)
(5.5711 0.0146931 0)
(6.86361 0.016431 0)
(8.11813 0.0168132 0)
(9.20193 0.0159149 0)
(9.89331 0.0124571 0)
(9.89357 0.00702728 0)
(9.20032 0.00186651 0)
(8.11501 -0.00132357 0)
(6.85945 -0.00399738 0)
(5.56716 -0.00462938 0)
(4.32105 -0.00613151 0)
(3.16527 -0.00514575 0)
(2.11762 -0.00591916 0)
(1.17266 -0.00779602 0)
(0.385335 -0.00882112 0)
(0.44311 0.0107119 0)
(1.19242 0.0232302 0)
(2.14024 0.0212471 0)
(3.1761 0.0290481 0)
(4.33223 0.0251221 0)
(5.56944 0.0292654 0)
(6.85929 0.0259151 0)
(8.11241 0.0255217 0)
(9.19748 0.02214 0)
(9.88715 0.0169314 0)
(9.88693 0.00967318 0)
(9.19249 0.00238649 0)
(8.10697 -0.00445866 0)
(6.85171 -0.00813547 0)
(5.56108 -0.0142438 0)
(4.32223 -0.0133719 0)
(3.16517 -0.0197031 0)
(2.1271 -0.0146093 0)
(1.17877 -0.0204919 0)
(0.432882 -0.00926068 0)
(0.513972 0.00737756 0)
(1.22146 0.0357398 0)
(2.15431 0.0311519 0)
(3.19349 0.0441228 0)
(4.34763 0.043769 0)
(5.58501 0.0439157 0)
(6.86343 0.0406579 0)
(8.11063 0.0365811 0)
(9.1921 0.0320693 0)
(9.87713 0.022635 0)
(9.87729 0.0102363 0)
(9.18476 -0.00182705 0)
(8.10121 -0.0096768 0)
(6.85035 -0.017297 0)
(5.56816 -0.024084 0)
(4.32593 -0.0288115 0)
(3.17099 -0.03134 0)
(2.12876 -0.0244087 0)
(1.19933 -0.0320072 0)
(0.491755 -0.00642563 0)
(0.590895 0.00321438 0)
(1.29138 0.0414406 0)
(2.15303 0.0411596 0)
(3.212 0.0439576 0)
(4.35592 0.0605456 0)
(5.59292 0.0549061 0)
(6.86884 0.0568989 0)
(8.11258 0.0494132 0)
(9.18937 0.0402577 0)
(9.86817 0.0278274 0)
(9.86725 0.0117166 0)
(9.17528 -0.00354134 0)
(8.09573 -0.0165998 0)
(6.84648 -0.0293386 0)
(5.56669 -0.0331572 0)
(4.32719 -0.0417241 0)
(3.1809 -0.0316082 0)
(2.11826 -0.0341282 0)
(1.25869 -0.0387031 0)
(0.566031 -0.00243143 0)
(0.662597 0.00413825 0)
(1.38285 0.0407188 0)
(2.14431 0.0536268 0)
(3.23193 0.0399296 0)
(4.36564 0.062532 0)
(5.60477 0.0674925 0)
(6.87929 0.0699627 0)
(8.11774 0.065058 0)
(9.18852 0.0535665 0)
(9.85732 0.0356858 0)
(9.85573 0.0111896 0)
(9.16765 -0.00975799 0)
(8.0935 -0.0265968 0)
(6.84949 -0.0369856 0)
(5.56715 -0.0403131 0)
(4.32771 -0.0411224 0)
(3.18409 -0.028566 0)
(2.0961 -0.044814 0)
(1.33915 -0.036437 0)
(0.626929 -0.00283187 0)
(0.73756 0.00914057 0)
(1.47324 0.0391925 0)
(2.14347 0.0686299 0)
(3.24356 0.0440713 0)
(4.38698 0.061778 0)
(5.61987 0.080128 0)
(6.89155 0.0855534 0)
(8.12171 0.0820947 0)
(9.18916 0.0728343 0)
(9.84625 0.046855 0)
(9.84416 0.00944676 0)
(9.1606 -0.0219348 0)
(8.08797 -0.0371739 0)
(6.84798 -0.0488663 0)
(5.5709 -0.051904 0)
(4.33444 -0.0424755 0)
(3.18203 -0.0302622 0)
(2.08264 -0.0596921 0)
(1.41896 -0.0341797 0)
(0.691053 -0.00769596 0)
(0.829676 0.0146111 0)
(1.57714 0.0435228 0)
(2.16116 0.0889716 0)
(3.25076 0.0678954 0)
(4.42648 0.0788176 0)
(5.62414 0.0943045 0)
(6.88949 0.0989337 0)
(8.11266 0.0977232 0)
(9.17929 0.085726 0)
(9.82861 0.0546823 0)
(9.8255 0.00999089 0)
(9.1431 -0.0262591 0)
(8.06995 -0.0473975 0)
(6.83458 -0.0560997 0)
(5.5624 -0.0624372 0)
(4.35425 -0.0573151 0)
(3.17573 -0.0505224 0)
(2.08895 -0.0804959 0)
(1.51181 -0.0380851 0)
(0.772403 -0.0135609 0)
(0.948088 0.020904 0)
(1.70815 0.0537013 0)
(2.22395 0.11794 0)
(3.25935 0.122281 0)
(4.45979 0.122117 0)
(5.62709 0.122699 0)
(6.87394 0.115412 0)
(8.08963 0.117143 0)
(9.15304 0.101534 0)
(9.78912 0.0662542 0)
(9.78491 0.0109738 0)
(9.10601 -0.0320417 0)
(8.03452 -0.0582393 0)
(6.80582 -0.0684858 0)
(5.54859 -0.0864167 0)
(4.37376 -0.0951275 0)
(3.16644 -0.105807 0)
(2.1345 -0.106816 0)
(1.62933 -0.0481016 0)
(0.878619 -0.019399 0)
(1.10233 0.0257695 0)
(1.87554 0.0642069 0)
(2.33889 0.144897 0)
(3.27931 0.169243 0)
(4.47107 0.171701 0)
(5.63882 0.164161 0)
(6.85247 0.153422 0)
(8.053 0.138568 0)
(9.10731 0.11797 0)
(9.73374 0.075288 0)
(9.72918 0.0117841 0)
(9.05095 -0.0392111 0)
(7.98556 -0.0706841 0)
(6.7668 -0.0998872 0)
(5.54061 -0.122409 0)
(4.3586 -0.140089 0)
(3.1611 -0.148958 0)
(2.23412 -0.133643 0)
(1.77835 -0.05757 0)
(1.0161 -0.0238237 0)
(1.27769 0.0295699 0)
(2.06634 0.0701334 0)
(2.48733 0.166259 0)
(3.32231 0.199702 0)
(4.4704 0.215077 0)
(5.66037 0.212167 0)
(6.84513 0.209373 0)
(8.01223 0.174613 0)
(9.04731 0.139487 0)
(9.64241 0.0865381 0)
(9.63475 0.0170902 0)
(8.97613 -0.0465376 0)
(7.9254 -0.0956897 0)
(6.7386 -0.147587 0)
(5.54021 -0.163634 0)
(4.33565 -0.182138 0)
(3.18652 -0.182148 0)
(2.36532 -0.152729 0)
(1.9585 -0.0643745 0)
(1.18113 -0.0266852 0)
(1.48855 0.0315856 0)
(2.29735 0.0801894 0)
(2.66529 0.184882 0)
(3.40741 0.240332 0)
(4.48933 0.264304 0)
(5.68959 0.26501 0)
(6.84865 0.274729 0)
(7.98636 0.236369 0)
(8.99752 0.182943 0)
(9.54952 0.109106 0)
(9.53991 0.00924013 0)
(8.91443 -0.076183 0)
(7.87855 -0.146482 0)
(6.71922 -0.201134 0)
(5.53827 -0.207254 0)
(4.32072 -0.226061 0)
(3.24413 -0.213128 0)
(2.52464 -0.168652 0)
(2.16093 -0.0699474 0)
(1.36168 -0.0274785 0)
(1.70091 0.0339895 0)
(2.5393 0.0849386 0)
(2.87925 0.205776 0)
(3.52411 0.27428 0)
(4.52591 0.32097 0)
(5.71158 0.315495 0)
(6.85032 0.32447 0)
(7.97414 0.299962 0)
(8.97243 0.238877 0)
(9.49534 0.145489 0)
(9.4832 -0.00497048 0)
(8.87252 -0.111817 0)
(7.83451 -0.190863 0)
(6.69151 -0.236043 0)
(5.52909 -0.250593 0)
(4.32932 -0.279934 0)
(3.33925 -0.2468 0)
(2.71586 -0.186391 0)
(2.39495 -0.076505 0)
(1.56042 -0.0290143 0)
(1.96361 0.0330767 0)
(2.84409 0.0972141 0)
(3.13146 0.22317 0)
(3.68272 0.306077 0)
(4.58468 0.373348 0)
(5.72339 0.36726 0)
(6.83774 0.352005 0)
(7.94532 0.330432 0)
(8.92952 0.27276 0)
(9.43372 0.173149 0)
(9.41653 -0.00698315 0)
(8.81166 -0.122023 0)
(7.77671 -0.201357 0)
(6.64268 -0.249979 0)
(5.49975 -0.293513 0)
(4.35128 -0.322411 0)
(3.46527 -0.270071 0)
(2.93807 -0.198262 0)
(2.65362 -0.0807291 0)
(1.77044 -0.0287739 0)
(2.19468 0.0339697 0)
(3.13485 0.0949373 0)
(3.40427 0.233526 0)
(3.86687 0.32808 0)
(4.66372 0.419084 0)
(5.72608 0.422694 0)
(6.81268 0.396975 0)
(7.89602 0.359504 0)
(8.8282 0.301713 0)
(9.30312 0.192834 0)
(9.2812 0.00475595 0)
(8.68464 -0.121197 0)
(7.68491 -0.204046 0)
(6.56825 -0.278989 0)
(5.4546 -0.34267 0)
(4.38845 -0.361029 0)
(3.61868 -0.290566 0)
(3.18646 -0.209821 0)
(2.93532 -0.0840236 0)
(1.98744 -0.0255851 0)
(2.49135 0.0339994 0)
(3.49363 0.111591 0)
(3.72086 0.253808 0)
(4.09432 0.358979 0)
(4.77465 0.46185 0)
(5.73541 0.49817 0)
(6.78739 0.476501 0)
(7.83983 0.426464 0)
(8.69611 0.359631 0)
(9.11268 0.225661 0)
(9.08133 0.0134701 0)
(8.52796 -0.14343 0)
(7.58055 -0.242077 0)
(6.48546 -0.340377 0)
(5.41236 -0.399157 0)
(4.45719 -0.394946 0)
(3.80646 -0.304705 0)
(3.46153 -0.210123 0)
(3.22971 -0.0835403 0)
(2.19249 -0.0204114 0)
(2.74093 0.0314039 0)
(3.83463 0.104176 0)
(4.05381 0.260516 0)
(4.35706 0.383106 0)
(4.93126 0.516178 0)
(5.7807 0.57401 0)
(6.77663 0.574578 0)
(7.79507 0.522084 0)
(8.58361 0.431195 0)
(8.94961 0.271749 0)
(8.90513 0.0175268 0)
(8.38857 -0.16733 0)
(7.47008 -0.294753 0)
(6.40252 -0.404546 0)
(5.39106 -0.450142 0)
(4.56288 -0.419431 0)
(4.02846 -0.319638 0)
(3.76035 -0.217055 0)
(3.54923 -0.0837582 0)
(2.3966 -0.014464 0)
(3.04953 0.0333461 0)
(4.24464 0.122681 0)
(4.43593 0.276574 0)
(4.66402 0.409852 0)
(5.13248 0.547768 0)
(5.85982 0.637706 0)
(6.77573 0.664172 0)
(7.73246 0.606432 0)
(8.47224 0.483176 0)
(8.80207 0.323582 0)
(8.74307 0.0283478 0)
(8.24118 -0.161591 0)
(7.3371 -0.337584 0)
(6.32234 -0.448862 0)
(5.40265 -0.484393 0)
(4.70574 -0.433049 0)
(4.27966 -0.315325 0)
(4.08025 -0.20229 0)
(3.87376 -0.0724717 0)
(2.56273 -0.00553997 0)
(3.3239 0.0264767 0)
(4.63371 0.108905 0)
(4.83203 0.274388 0)
(5.00439 0.420128 0)
(5.37934 0.580215 0)
(5.97678 0.695208 0)
(6.78488 0.735205 0)
(7.64735 0.679763 0)
(8.32788 0.531131 0)
(8.62334 0.380448 0)
(8.54695 0.0535428 0)
(8.04749 -0.136637 0)
(7.17389 -0.361144 0)
(6.24165 -0.472895 0)
(5.4345 -0.487461 0)
(4.87874 -0.41472 0)
(4.548 -0.300482 0)
(4.4045 -0.184122 0)
(4.19486 -0.059395 0)
(2.68808 0.00475521 0)
(3.60011 0.0307972 0)
(5.06708 0.123117 0)
(5.25001 0.27872 0)
(5.36949 0.428293 0)
(5.6538 0.598298 0)
(6.12992 0.727118 0)
(6.80116 0.803538 0)
(7.55433 0.753476 0)
(8.16095 0.594899 0)
(8.41751 0.44181 0)
(8.31707 0.0959441 0)
(7.81025 -0.113289 0)
(6.99145 -0.362172 0)
(6.1693 -0.474793 0)
(5.50154 -0.464527 0)
(5.06945 -0.382638 0)
(4.82169 -0.262645 0)
(4.7156 -0.153727 0)
(4.48877 -0.0396353 0)
(2.75162 0.0145074 0)
(3.9163 0.0289103 0)
(5.4728 0.116955 0)
(5.67174 0.274571 0)
(5.75092 0.432798 0)
(5.96553 0.60334 0)
(6.31735 0.758038 0)
(6.84035 0.860741 0)
(7.47131 0.82751 0)
(7.99017 0.682791 0)
(8.20433 0.507109 0)
(8.07184 0.157857 0)
(7.56116 -0.0847211 0)
(6.81159 -0.329922 0)
(6.11991 -0.437181 0)
(5.59049 -0.399477 0)
(5.26373 -0.323274 0)
(5.07848 -0.223638 0)
(4.99543 -0.123427 0)
(4.76957 -0.0286896 0)
(2.76962 0.0203854 0)
(4.17447 0.0347825 0)
(5.91272 0.131438 0)
(6.09328 0.276903 0)
(6.14273 0.433326 0)
(6.28699 0.614754 0)
(6.53837 0.77366 0)
(6.91769 0.896761 0)
(7.41216 0.900702 0)
(7.83281 0.778084 0)
(7.9946 0.578722 0)
(7.82474 0.2372 0)
(7.32283 -0.0305051 0)
(6.65323 -0.250222 0)
(6.09067 -0.33709 0)
(5.68358 -0.300917 0)
(5.43559 -0.231733 0)
(5.2969 -0.144615 0)
(5.2324 -0.0714649 0)
(4.97007 0.00324598 0)
(2.75819 0.0189957 0)
(4.57663 0.0434977 0)
(6.31263 0.141775 0)
(6.5095 0.289101 0)
(6.52844 0.454124 0)
(6.61448 0.633939 0)
(6.77127 0.801758 0)
(7.02047 0.944664 0)
(7.3798 0.983545 0)
(7.68589 0.874529 0)
(7.7806 0.66663 0)
(7.56928 0.339443 0)
(7.09004 0.0637469 0)
(6.51532 -0.12262 0)
(6.07316 -0.187872 0)
(5.76515 -0.163937 0)
(5.57502 -0.117846 0)
(5.46867 -0.0507238 0)
(5.40231 -0.00494131 0)
(5.03862 0.0402234 0)
(2.68667 0.0221168 0)
(4.88954 0.0691154 0)
(6.76488 0.183058 0)
(6.92081 0.338108 0)
(6.90595 0.515102 0)
(6.9324 0.695995 0)
(7.00205 0.874667 0)
(7.14428 1.01837 0)
(7.35467 1.06934 0)
(7.54581 0.977066 0)
(7.56854 0.773024 0)
(7.32651 0.466767 0)
(6.88232 0.199626 0)
(6.40253 0.0403551 0)
(6.05635 -0.0185831 0)
(5.81923 -0.0115729 0)
(5.66957 0.0134601 0)
(5.58155 0.0462246 0)
(5.50983 0.0671688 0)
(5.02816 0.0803376 0)
(2.55141 0.0452075 0)
(5.67968 0.132314 0)
(7.20165 0.274157 0)
(7.34593 0.444623 0)
(7.2775 0.644968 0)
(7.2348 0.834065 2.61164e-33)
(7.23119 1.00438 -1.73203e-33)
(7.27477 1.12934 0)
(7.34433 1.17021 0)
(7.42141 1.10333 0)
(7.36922 0.901484 0)
(7.09802 0.619617 0)
(6.68958 0.371039 0)
(6.29613 0.23143 0)
(6.02167 0.168966 0)
(5.83211 0.153278 0)
(5.70991 0.148891 0)
(5.62934 0.155943 0)
(5.51393 0.156223 0)
(4.87439 0.120834 0)
(2.15755 0.0633721 0)
(6.26124 0.298399 -3.00552e-19)
(7.6708 0.40687 2.57281e-19)
(7.71313 0.671798 0)
(7.58799 0.886238 3.211e-20)
(7.49292 1.04365 -2.58744e-20)
(7.41944 1.18348 1.83669e-33)
(7.36957 1.29167 0)
(7.33706 1.32222 1.7856e-19)
(7.30043 1.26511 -6.60534e-19)
(7.16749 1.07417 1.46431e-19)
(6.86996 0.821357 0)
(6.50242 0.603956 -4.99303e-19)
(6.18677 0.475562 -6.20512e-19)
(5.96634 0.403827 1.08795e-18)
(5.81167 0.363369 -8.7371e-19)
(5.70161 0.334222 0)
(5.6123 0.288252 -3.35638e-19)
(5.42652 0.248922 0)
(4.64226 0.211383 -1.66977e-18)
(1.84227 0.0890079 2.10323e-18)
(6.61183 0.615833 -7.98142e-20)
(8.02952 0.782367 -1.95372e-18)
(8.02638 1.02057 5.06415e-19)
(7.84839 1.17555 6.3857e-19)
(7.70599 1.29216 -4.00343e-20)
(7.56197 1.41578 9.79588e-20)
(7.43631 1.50129 0)
(7.31394 1.52101 0)
(7.18656 1.46974 1.06208e-18)
(6.97732 1.30194 0)
(6.66311 1.07515 1.74151e-18)
(6.32472 0.88844 5.43865e-19)
(6.0518 0.76446 1.16158e-20)
(5.84999 0.681321 -1.24858e-18)
(5.6983 0.621023 0)
(5.58783 0.574635 0)
(5.49532 0.557866 -5.80317e-18)
(5.32447 0.478514 1.449e-17)
(4.51155 0.399336 -7.99634e-18)
(1.75143 0.157197 -1.02589e-17)
(6.81174 0.970452 2.56879e-18)
(8.30408 1.3301 -9.20954e-19)
(8.26133 1.44915 -2.30296e-19)
(8.05811 1.52851 -1.19372e-18)
(7.86226 1.60483 5.19726e-19)
(7.66673 1.6921 -1.01429e-19)
(7.47962 1.74605 1.87595e-19)
(7.2852 1.75242 0)
(7.0872 1.69801 -2.24087e-18)
(6.81264 1.54749 2.52911e-18)
(6.48906 1.33589 -4.76265e-18)
(6.16705 1.17012 2.32389e-18)
(5.91796 1.04925 -1.70881e-18)
(5.73072 0.964789 3.74382e-18)
(5.58793 0.89619 0)
(5.46705 0.837573 -1.47145e-18)
(5.3471 0.794239 0)
(5.15743 0.780632 8.50283e-18)
(4.4277 0.578012 -1.94836e-17)
(1.79835 0.303536 1.27386e-17)
(6.89503 1.31059 -1.13859e-17)
(8.4434 1.81035 6.26213e-18)
(8.42658 1.89134 9.11365e-19)
(8.20186 1.91774 0)
(7.97026 1.95974 6.16033e-19)
(7.7414 2.00125 -6.51052e-19)
(7.49937 2.02711 -2.27216e-19)
(7.25167 2.00996 0)
(6.99542 1.94398 1.59095e-18)
(6.66715 1.79939 -1.73607e-18)
(6.33476 1.59599 4.19273e-18)
(6.01607 1.4386 0)
(5.76764 1.31396 -3.60321e-18)
(5.56887 1.22299 1.9835e-18)
(5.40337 1.15089 5.39542e-18)
(5.27921 1.09675 -4.74638e-18)
(5.18315 1.02425 7.9119e-18)
(5.0298 1.03317 -1.76464e-17)
(4.36708 0.798679 1.12284e-17)
(1.91844 0.417233 -1.42157e-17)
(6.92183 1.49552 7.88392e-18)
(8.53412 2.35867 -7.08248e-18)
(8.51661 2.32855 2.81443e-18)
(8.27847 2.31964 -3.8386e-18)
(8.03579 2.31781 2.5266e-18)
(7.76876 2.33016 -3.8047e-19)
(7.49052 2.32522 1.18995e-19)
(7.20563 2.28232 -1.12194e-18)
(6.9054 2.20041 -1.64146e-18)
(6.5366 2.05218 -3.77497e-18)
(6.19427 1.85226 -9.05195e-18)
(5.87677 1.69625 -3.04157e-18)
(5.63539 1.5698 1.10057e-19)
(5.45543 1.48199 -7.15838e-18)
(5.32301 1.41445 -2.55064e-19)
(5.20153 1.3675 6.9793e-18)
(5.08408 1.26062 -2.17601e-18)
(4.88069 1.24033 -1.27844e-18)
(4.27382 0.992049 0)
(2.02744 0.533499 3.04479e-17)
(6.83748 1.79567 0)
(8.52499 2.7767 1.96771e-18)
(8.56025 2.72419 0)
(8.31938 2.70928 -4.63953e-19)
(8.05597 2.69106 -3.08635e-18)
(7.7652 2.6717 5.86513e-19)
(7.46361 2.63155 1.33013e-19)
(7.15048 2.56277 2.01231e-18)
(6.81719 2.46073 -1.00269e-18)
(6.41779 2.30185 1.65521e-18)
(6.06231 2.10106 4.88553e-18)
(5.74006 1.9408 6.73778e-18)
(5.49072 1.80653 -4.2045e-18)
(5.29138 1.70106 7.76393e-18)
(5.13111 1.61192 -6.22919e-18)
(5.01931 1.54849 0)
(4.94291 1.45428 -1.66935e-17)
(4.81226 1.46048 2.24199e-17)
(4.2751 1.20443 1.71224e-18)
(2.12293 0.657841 -3.22174e-17)
(6.79168 2.1055 -7.9405e-19)
(8.51163 3.2 -5.71183e-18)
(8.56915 3.08051 -1.54896e-17)
(8.30861 3.08335 8.47079e-18)
(8.02933 3.05323 -1.7408e-18)
(7.72884 3.00734 9.17311e-19)
(7.41448 2.93638 -1.36725e-19)
(7.08236 2.84337 -2.30411e-19)
(6.72805 2.71954 -3.56748e-18)
(6.30586 2.54713 1.71199e-20)
(5.93947 2.3413 -5.32155e-18)
(5.62204 2.17226 -7.14938e-18)
(5.39067 2.03185 4.72034e-18)
(5.2257 1.92158 -2.79058e-18)
(5.10888 1.83956 6.76108e-18)
(4.98544 1.81048 0)
(4.88289 1.71071 -1.03041e-17)
(4.69069 1.66907 1.52436e-17)
(4.16835 1.40389 2.96828e-17)
(2.15484 0.765963 -3.48309e-17)
(6.66587 2.34519 -2.71694e-17)
(8.46038 3.54096 1.33037e-17)
(8.53565 3.41313 9.86484e-18)
(8.25001 3.44237 -9.04775e-18)
(7.9688 3.395 4.98108e-19)
(7.67019 3.32545 2.32662e-18)
(7.34845 3.23214 -2.14806e-19)
(7.00591 3.11865 -8.23112e-19)
(6.63715 2.97344 -2.24278e-18)
(6.1982 2.78562 3.78818e-18)
(5.82436 2.57089 5.0544e-18)
(5.50708 2.38853 1.12153e-17)
(5.26689 2.23768 0)
(5.07063 2.11361 2.05012e-19)
(4.91214 2.00694 -1.87181e-17)
(4.80745 1.91803 4.2751e-18)
(4.72515 1.83363 2.20529e-17)
(4.59638 1.81472 -6.38212e-18)
(4.14571 1.58775 1.42428e-17)
(2.11596 0.875423 -1.04027e-18)
(6.58481 2.60651 9.2503e-19)
(8.39088 3.88726 1.22023e-17)
(8.47618 3.72981 7.23447e-18)
(8.16444 3.77259 -1.54664e-17)
(7.88753 3.70464 9.55787e-18)
(7.58871 3.61895 -2.77881e-18)
(7.26463 3.51038 1.41361e-19)
(6.91775 3.38077 1.89974e-18)
(6.54086 3.21704 3.96485e-18)
(6.09372 3.01502 -4.85103e-18)
(5.71534 2.78985 0)
(5.39779 2.5936 -4.39023e-18)
(5.16457 2.4355 5.03646e-18)
(4.99924 2.30934 6.78801e-18)
(4.88095 2.20784 -3.88096e-18)
(4.75874 2.17074 -9.85822e-18)
(4.66472 2.09083 -3.00069e-18)
(4.50547 2.03398 -3.76607e-20)
(4.04043 1.72413 0)
(2.07105 0.941798 0)
(6.42972 2.79248 -1.30831e-17)
(8.28628 4.18306 0)
(8.37906 4.02707 8.01895e-18)
(8.05907 4.08279 -3.71624e-18)
(7.79251 3.99045 -9.41492e-18)
(7.49688 3.89111 2.66191e-18)
(7.17345 3.76987 5.75387e-20)
(6.8252 3.62805 -1.01523e-18)
(6.44314 3.44881 2.67955e-18)
(5.9918 3.23395 -1.95191e-18)
(5.60773 2.99759 2.83514e-18)
(5.2844 2.78773 1.36371e-17)
(5.04112 2.61836 5.26603e-19)
(4.84274 2.47843 -6.89123e-18)
(4.67661 2.35384 1.33657e-17)
(4.57062 2.24515 1.83852e-19)
(4.4944 2.16434 3.21277e-18)
(4.37277 2.10725 -1.5751e-17)
(3.97679 1.87832 1.62039e-17)
(2.02041 0.995845 -1.74267e-17)
(6.31451 3.01991 1.79318e-21)
(8.18652 4.49949 0)
(8.28074 4.3132 0)
(7.93914 4.3629 3.14696e-18)
(7.68741 4.24625 3.64663e-18)
(7.39619 4.13866 -1.8807e-18)
(7.07494 4.00949 8.73499e-19)
(6.72594 3.85861 0)
(6.34115 3.66653 -4.26206e-18)
(5.88891 3.44093 7.10665e-18)
(5.49596 3.195 8.53871e-18)
(5.16218 2.97275 -5.13558e-18)
(4.91381 2.78969 -6.43452e-18)
(4.74178 2.6474 1.51934e-17)
(4.63163 2.53071 -4.71922e-18)
(4.52088 2.46065 -5.73683e-18)
(4.42753 2.38268 -3.51584e-18)
(4.28208 2.29692 -1.70381e-17)
(3.87067 1.98755 2.28371e-18)
(1.95808 1.04626 1.87141e-17)
(6.16081 3.16663 -5.16559e-18)
(8.05492 4.73669 -7.13004e-18)
(8.15529 4.57662 9.95408e-19)
(7.82265 4.62417 9.10137e-20)
(7.58599 4.47899 9.75354e-19)
(7.2963 4.3653 -4.96429e-18)
(6.97452 4.23008 0)
(6.6248 4.07213 8.64078e-19)
(6.23859 3.87004 -6.79947e-19)
(5.78519 3.63601 1.14821e-17)
(5.38442 3.38152 -2.1327e-18)
(5.04689 3.14924 2.35566e-18)
(4.79863 2.95721 0)
(4.59999 2.79416 -8.29131e-18)
(4.43406 2.64849 1.0309e-17)
(4.33085 2.51705 0)
(4.25438 2.43194 -7.71439e-18)
(4.14435 2.34941 2.25986e-17)
(3.77129 2.1051 2.75466e-18)
(1.88261 1.07969 -2.30904e-17)
(6.05157 3.35525 -1.08093e-17)
(7.95296 5.0298 1.3184e-17)
(8.0497 4.84407 0)
(7.71708 4.87626 7.5782e-18)
(7.49157 4.7002 0)
(7.19824 4.57759 4.54531e-18)
(6.87449 4.43486 0)
(6.5214 4.26966 0)
(6.13391 4.05906 -1.50439e-18)
(5.6813 3.81821 -1.1123e-17)
(5.27413 3.55801 -1.59113e-17)
(4.92694 3.31696 2.94645e-18)
(4.66921 3.11226 1.0918e-17)
(4.48962 2.94554 9.26813e-18)
(4.37608 2.80798 -3.29671e-17)
(4.26977 2.7078 -1.3744e-17)
(4.17787 2.62957 7.93924e-18)
(4.0522 2.49644 0)
(3.66307 2.17832 2.38613e-17)
(1.79984 1.10674 -2.48482e-17)
(5.91689 3.4902 1.18019e-17)
(7.81942 5.23813 -1.43291e-17)
(7.94288 5.06952 0)
(7.61941 5.10693 -3.92088e-19)
(7.40305 4.91307 -3.01889e-18)
(7.10687 4.78192 0)
(6.7779 4.62913 -1.20179e-19)
(6.42073 4.45461 9.85386e-19)
(6.03362 4.23552 -2.27777e-18)
(5.58226 3.98962 1.23108e-18)
(5.17051 3.72563 0)
(4.82117 3.47878 1.17146e-17)
(4.56442 3.26556 1.6161e-20)
(4.35948 3.0834 4.99863e-18)
(4.18279 2.91818 6.09451e-18)
(4.07246 2.76521 0)
(3.9984 2.66014 -1.3567e-17)
(3.88826 2.5464 2.66018e-17)
(3.52742 2.27469 -2.8998e-17)
(1.69549 1.10901 5.37327e-17)
(5.82226 3.64833 0)
(7.73539 5.45509 0)
(7.84338 5.28738 -7.22275e-18)
(7.53114 5.32526 0)
(7.31682 5.11366 0)
(7.01624 4.97584 6.1632e-18)
(6.68263 4.81325 -1.75227e-19)
(6.32384 4.62886 5.84699e-19)
(5.93791 4.40146 -3.50736e-19)
(5.48869 4.15083 0)
(5.07291 3.88435 -2.52098e-18)
(4.71427 3.63416 -9.6881e-18)
(4.44053 3.41418 -1.20866e-17)
(4.23759 3.22841 -4.98815e-18)
(4.10981 3.06599 6.61998e-18)
(4.00301 2.93098 -1.56468e-17)
(3.91273 2.83762 2.90984e-17)
(3.79905 2.64927 5.45892e-19)
(3.39964 2.30531 -2.76854e-17)
(1.57951 1.10224 -3.67431e-18)
(5.71813 3.76595 0)
(7.62273 5.6857 -1.03983e-17)
(7.76335 5.50191 8.2703e-18)
(7.43608 5.52465 0)
(7.22952 5.30301 0)
(6.9265 5.15895 -1.35387e-17)
(6.59001 4.98713 0)
(6.23326 4.79315 0)
(5.84986 4.55797 -4.85925e-18)
(5.40229 4.30337 2.14965e-18)
(4.98109 4.03509 -2.07785e-17)
(4.61671 3.78345 0)
(4.33912 3.55782 -1.28574e-17)
(4.11906 3.35913 4.48302e-19)
(3.93013 3.17536 -2.06786e-17)
(3.79406 2.99679 8.47831e-18)
(3.70872 2.86828 2.1081e-19)
(3.6054 2.70081 -3.14734e-17)
(3.23463 2.37655 1.50299e-17)
(1.43911 1.06498 3.96489e-18)
(5.63883 3.90601 0)
(7.53086 5.81872 -1.22959e-17)
(7.65657 5.66781 8.53948e-18)
(7.34546 5.71153 1.67554e-17)
(7.14175 5.4773 3.07983e-18)
(6.83474 5.32865 -1.75593e-18)
(6.49985 5.14919 1.14484e-18)
(6.14774 4.94697 7.49446e-19)
(5.76655 4.7054 5.20634e-18)
(5.31976 4.4468 1.46721e-17)
(4.89373 4.1771 1.72711e-17)
(4.52084 3.92642 3.2038e-18)
(4.22595 3.70046 1.87071e-17)
(3.99283 3.5029 1.19163e-17)
(3.83329 3.32369 1.49144e-17)
(3.72067 3.14986 -9.19957e-18)
(3.61656 3.02117 -1.14224e-17)
(3.49285 2.77372 1.34994e-17)
(3.07126 2.35654 -8.32661e-18)
(1.28797 1.02162 1.33329e-17)
(5.55146 4.00852 1.78979e-17)
(7.44419 6.04014 1.94507e-17)
(7.58331 5.85885 4.44248e-18)
(7.25453 5.87992 2.69589e-19)
(7.0532 5.63877 -1.10893e-17)
(6.74564 5.48651 3.9883e-18)
(6.41458 5.30023 -1.29123e-18)
(6.06728 5.09053 -3.8801e-19)
(5.68788 4.8432 -5.91936e-18)
(5.24174 4.58112 -1.61922e-17)
(4.811 4.31082 1.10837e-18)
(4.4325 4.06265 0)
(4.13073 3.83755 0)
(3.88226 3.63194 -6.10498e-18)
(3.66885 3.43566 -2.37609e-17)
(3.4963 3.24139 1.97251e-17)
(3.38314 3.08106 1.22194e-17)
(3.2698 2.82913 0)
(2.86531 2.41343 2.69223e-17)
(1.11473 0.939506 -1.51021e-17)
(5.47472 4.12621 -9.16056e-18)
(7.35355 6.17151 7.71888e-18)
(7.48718 6.01806 -1.02655e-17)
(7.16188 6.04494 -1.05569e-17)
(6.96389 5.78775 -4.3396e-18)
(6.65802 5.63164 1.16635e-18)
(6.3321 5.43964 0)
(5.98966 5.2235 -8.35264e-19)
(5.61148 4.97147 6.002e-19)
(5.16606 4.70621 0)
(4.73301 4.4361 0)
(4.34891 4.19238 2.14805e-18)
(4.03201 3.97402 3.12823e-18)
(3.76561 3.77808 -6.4585e-18)
(3.56276 3.59037 1.71445e-17)
(3.42093 3.38686 -2.12456e-17)
(3.27938 3.22251 -2.636e-17)
(3.1236 2.89947 2.38539e-17)
(2.633 2.34406 -9.85714e-18)
(0.882564 0.873193 5.62149e-18)
(5.38029 4.21332 1.06074e-17)
(7.24327 6.31386 0)
(7.38224 6.14764 0)
(7.05991 6.17803 -3.34894e-18)
(6.87538 5.9229 2.69559e-18)
(6.57442 5.76514 -3.04544e-19)
(6.25366 5.56848 -4.04069e-18)
(5.91541 5.34654 -2.13283e-19)
(5.53819 5.09017 1.01297e-17)
(5.09477 4.82233 -1.28572e-18)
(4.66055 4.55345 2.84004e-18)
(4.27221 4.31495 -1.81311e-17)
(3.94764 4.10242 -1.88718e-17)
(3.6681 3.90651 -3.37795e-18)
(3.41774 3.71425 0)
(3.19355 3.51659 -3.5149e-19)
(3.01143 3.3257 1.35627e-17)
(2.83552 2.95719 -2.59993e-17)
(2.33262 2.36321 2.02522e-17)
(0.510661 0.581738 1.7762e-17)
(5.3072 4.31199 -2.28093e-17)
(7.15151 6.4538 -9.13068e-18)
(7.28806 6.28991 1.23233e-19)
(6.96894 6.30831 4.44506e-18)
(6.795 6.04604 0)
(6.49248 5.88879 1.0746e-17)
(6.17595 5.68868 4.75364e-18)
(5.84134 5.46229 -6.50616e-19)
(5.46521 5.20313 -5.0617e-18)
(5.02442 4.93387 -1.24325e-18)
(4.59071 4.66746 1.15031e-18)
(4.19912 4.43646 1.58547e-17)
(3.86189 4.23611 1.83244e-17)
(3.56295 4.05817 3.2161e-18)
(3.31111 3.88477 1.70519e-17)
(3.11238 3.68218 0)
(2.90512 3.47883 0)
(2.6407 3.05172 1.67663e-17)
(1.93436 2.12286 1.90723e-19)
(0.401667 0.975152 -1.74683e-17)
(5.22502 4.38348 1.22772e-17)
(7.07352 6.59406 2.70515e-17)
(7.23074 6.43764 -3.89711e-17)
(6.90504 6.4497 2.20208e-17)
(6.7162 6.16787 -2.30827e-18)
(6.41407 6.00795 1.37758e-17)
(6.10054 5.80378 0)
(5.76847 5.57377 7.6804e-19)
(5.39351 5.31303 0)
(4.95642 5.04367 1.57173e-17)
(4.52377 4.7814 -1.58004e-18)
(4.12899 4.55963 1.76658e-18)
(3.78347 4.37085 2.06075e-17)
(3.47126 4.20013 -7.07965e-18)
(3.17837 4.03489 -9.01369e-18)
(2.89385 3.86668 0)
(2.59695 3.6834 0)
(2.19466 3.18962 0)
(1.17095 2.19095 -8.63102e-18)
(0.633175 1.97941 -5.50306e-18)
(5.16448 4.46677 0)
(7.0245 6.72083 0)
(7.14629 6.56426 1.38295e-17)
(6.80878 6.57538 -1.81952e-17)
(6.63634 6.28596 1.16053e-17)
(6.33732 6.12079 -1.25077e-17)
(6.02629 5.91349 -4.29903e-19)
(5.69685 5.68051 3.32899e-19)
(5.32363 5.41954 8.95306e-19)
(4.8907 5.15124 -1.79894e-17)
(4.45982 4.89385 2.69648e-18)
(4.0637 4.68309 1.56351e-17)
(3.70928 4.51287 -2.0451e-17)
(3.38152 4.37025 -2.31188e-17)
(3.08204 4.23672 8.03776e-18)
(2.80983 4.07827 0)
(2.49664 3.83482 1.27583e-17)
(1.94704 3.13127 1.54249e-17)
(1.21898 2.50734 -1.59895e-17)
(0.815062 2.88283 2.16133e-17)
(5.06596 4.53308 0)
(6.86978 6.7744 2.14871e-17)
(7.00635 6.62859 -3.21431e-18)
(6.7055 6.65651 2.26858e-17)
(6.56747 6.39207 -1.21942e-17)
(6.26313 6.22829 0)
(5.95646 6.01947 0)
(5.6287 5.78393 0)
(5.25718 5.52311 3.25456e-18)
(4.82857 5.25621 6.60041e-19)
(4.40007 5.00428 0)
(4.00378 4.80555 -1.54434e-17)
(3.64599 4.65313 0)
(3.3108 4.52705 1.64921e-17)
(2.98651 4.40961 -1.13594e-17)
(2.66104 4.27614 -9.2561e-18)
(2.26899 4.01589 -2.43758e-17)
(1.60998 3.31906 -1.29977e-17)
(1.16456 3.13121 -2.35294e-17)
(0.94866 3.44423 1.72149e-17)
(5.01427 4.61811 -7.5586e-18)
(6.81211 6.92257 5.57882e-19)
(6.97746 6.77199 -3.42216e-18)
(6.67676 6.78086 -1.76072e-17)
(6.50663 6.49489 0)
(6.19403 6.334 0)
(5.88924 6.12178 0)
(5.56278 5.88447 6.10589e-20)
(5.19314 5.62441 -4.24928e-18)
(4.76886 5.35951 0)
(4.34355 5.11334 0)
(3.9507 4.92768 0)
(3.59235 4.79729 0)
(3.25233 4.70346 1.2177e-17)
(2.9317 4.62568 3.11628e-17)
(2.6217 4.4931 9.90981e-18)
(2.22087 4.11043 2.29301e-17)
(1.71873 3.57954 -1.78338e-17)
(1.28681 3.75366 7.8626e-18)
(1.12609 3.8932 0)
(4.98949 4.67807 7.28424e-18)
(6.79875 7.05362 -3.84629e-17)
(6.96816 6.92927 -1.16416e-17)
(6.62203 6.93095 -2.80338e-18)
(6.43277 6.60975 2.77501e-18)
(6.12966 6.44264 -1.82558e-17)
(5.82402 6.22379 1.14607e-18)
(5.49954 5.98443 3.24484e-18)
(5.13161 5.72478 0)
(4.7118 5.46153 -1.13121e-18)
(4.29106 5.22081 1.02979e-18)
(3.90338 5.04798 0)
(3.54924 4.93856 0)
(3.21514 4.86765 -1.52463e-17)
(2.89546 4.80235 2.67823e-18)
(2.56186 4.66134 -9.27018e-18)
(2.06499 4.29511 2.03769e-17)
(1.48529 3.94724 1.77599e-17)
(1.11574 4.17534 -3.25502e-17)
(1.02925 4.24029 1.71489e-17)
(4.925 4.74625 1.35517e-17)
(6.71626 7.12261 3.56898e-17)
(6.82603 6.98186 1.39271e-17)
(6.49685 7.00361 0)
(6.35921 6.71543 0)
(6.0566 6.54722 1.37612e-17)
(5.75456 6.32713 -6.82157e-18)
(5.43387 6.0854 -3.10058e-18)
(5.06863 5.82617 -7.92661e-21)
(4.65447 5.56445 1.26927e-17)
(4.24016 5.3287 -1.85477e-17)
(3.86216 5.16793 0)
(3.52017 5.08058 0)
(3.19852 5.0399 -1.07865e-17)
(2.89189 5.00861 -1.42067e-17)
(2.548 4.86681 0)
(2.04802 4.42156 -2.95077e-17)
(1.71303 4.27754 -5.41104e-18)
(1.4271 4.68695 3.33965e-17)
(1.14809 4.68443 -1.72966e-17)
(4.81096 4.80348 -2.32141e-17)
(6.56729 7.19697 -1.85079e-17)
(6.71811 7.0733 0)
(6.42565 7.0964 0)
(6.29236 6.81528 0)
(5.97612 6.65148 0)
(5.68285 6.43167 7.16592e-18)
(5.36483 6.18757 -4.52552e-18)
(5.00352 5.92836 0)
(4.59621 5.66729 -1.14416e-17)
(4.1909 5.43525 3.34664e-17)
(3.82564 5.28442 1.43256e-18)
(3.49887 5.21653 2.17536e-18)
(3.19402 5.19971 1.82412e-17)
(2.89569 5.17152 -1.2175e-17)
(2.54747 4.98633 0)
(2.07249 4.6814 9.55919e-18)
(1.6239 4.82755 7.17687e-19)
(1.13475 5.09301 -5.04725e-18)
(0.746876 5.14725 1.04166e-17)
(4.77184 4.89152 1.10322e-17)
(6.52212 7.34722 -1.80441e-17)
(6.69196 7.24251 0)
(6.36888 7.25191 -4.04872e-18)
(6.20545 6.93218 1.48916e-17)
(5.89224 6.76387 0)
(5.6035 6.53674 0)
(5.28966 6.28988 8.31706e-18)
(4.93401 6.03027 -5.31947e-19)
(4.53546 5.7698 1.10605e-17)
(4.1417 5.54093 -1.59057e-17)
(3.79319 5.39802 1.03268e-17)
(3.48929 5.34613 0)
(3.20913 5.35108 -9.95141e-18)
(2.92998 5.3438 6.22854e-18)
(2.58507 5.18676 6.78345e-18)
(2.10175 4.91806 0)
(1.75798 5.1379 4.72916e-18)
(1.30063 5.75931 7.92822e-18)
(1.18963 5.95311 2.38988e-18)
(4.68616 4.9385 -2.27897e-17)
(6.43942 7.44602 2.60574e-17)
(6.57668 7.34348 1.81239e-17)
(6.24299 7.35898 -4.67531e-18)
(6.10177 7.04484 -2.23779e-17)
(5.7997 6.87561 0)
(5.51733 6.64218 6.28747e-18)
(5.21044 6.39221 -3.56745e-18)
(4.86131 6.13131 -1.59752e-19)
(4.47303 5.8706 -9.61962e-18)
(4.09326 5.64337 -7.80379e-19)
(3.76417 5.50513 -1.15808e-17)
(3.48358 5.46355 1.41688e-17)
(3.22896 5.48446 4.51983e-18)
(2.96509 5.47992 -1.05503e-17)
(2.61021 5.2745 1.13421e-17)
(2.30921 5.11229 0)
(1.95118 5.78079 0)
(1.7087 6.41538 1.28345e-18)
(0.468333 6.47483 -5.06652e-18)
(4.57306 5.0172 1.09448e-17)
(6.29454 7.5527 2.39645e-17)
(6.42488 7.43204 -1.79938e-17)
(6.12459 7.44535 1.63417e-17)
(6.00348 7.14573 2.16637e-17)
(5.69664 6.98007 0)
(5.42452 6.74566 -6.67609e-18)
(5.1254 6.4926 -4.97752e-18)
(4.78446 6.22994 0)
(4.40844 5.96846 0)
(4.04516 5.74225 0)
(3.73731 5.60628 0)
(3.48322 5.56812 -1.61421e-17)
(3.26098 5.59441 -6.1266e-18)
(3.03044 5.58813 0)
(2.71407 5.42563 -5.92705e-18)
(2.53298 5.50456 0)
(2.56742 5.84082 -2.45307e-18)
(2.62382 5.85361 9.03111e-19)
(1.42814 5.8899 1.04698e-18)
(4.46669 5.06792 -2.07944e-17)
(6.16595 7.66524 -1.52674e-17)
(6.32629 7.58248 -1.12283e-17)
(6.02592 7.58501 -1.5241e-17)
(5.89572 7.2631 -1.01515e-17)