/*--------------------------------*- C++ -*----------------------------------*\
| =========                 |                                                 |
| \\      /  F ield         | OpenFOAM: The Open Source CFD Toolbox           |
|  \\    /   O peration     | Version:  2412                                  |
|   \\  /    A nd           | Website:  www.openfoam.com                      |
|    \\/     M anipulation  |                                                 |
\*---------------------------------------------------------------------------*/
FoamFile
{
    version     2.0;
    format      ascii;
    arch        "LSB;label=32;scalar=64";
    class       volScalarField;
    location    "5.5";
    object      p;
}
// * * * * * * * * * * * * * * * * * * * * * * * * * * * * * * * * * * * * * //

dimensions      [0 2 -2 0 0 0 0];

internalField   nonuniform List<scalar> 
2200
(
0.0624725
0.0624005
0.0629837
0.0648514
0.0711003
0.0849555
0.111667
0.157784
0.229803
0.331947
0.442768
0.530114
0.587473
0.622397
0.642522
0.653418
0.658979
0.661357
0.662426
0.662788
0.0563871
0.0565246
0.0577786
0.0609959
0.0685012
0.0839924
0.113218
0.160222
0.232809
0.337776
0.448482
0.534183
0.590332
0.624642
0.643559
0.653141
0.657817
0.659604
0.659799
0.659919
0.0501066
0.0499525
0.0520679
0.057515
0.0679444
0.0877852
0.120074
0.169228
0.243652
0.34944
0.460394
0.547208
0.603093
0.635405
0.651188
0.657525
0.660465
0.662013
0.662012
0.662463
0.0439966
0.0437313
0.0455283
0.0513764
0.0660814
0.0903877
0.126005
0.182335
0.261236
0.368523
0.481334
0.569496
0.622865
0.649651
0.662112
0.666042
0.66693
0.668209
0.669276
0.669744
0.0397504
0.0393685
0.0387694
0.0428714
0.0577205
0.0838443
0.125806
0.190334
0.27633
0.391772
0.50787
0.593703
0.644666
0.668665
0.677813
0.681564
0.683443
0.682931
0.686245
0.687135
0.039872
0.0388899
0.037557
0.0406408
0.0502255
0.0735603
0.122367
0.190769
0.283838
0.408472
0.53083
0.620088
0.671635
0.695799
0.703339
0.7089
0.715909
0.716775
0.720615
0.722192
0.0457714
0.044006
0.0438295
0.0474367
0.0500915
0.0683582
0.112074
0.181232
0.286464
0.42448
0.555295
0.649945
0.70179
0.729229
0.744714
0.756956
0.767749
0.770215
0.773854
0.776134
0.0596806
0.0571916
0.0578484
0.0608826
0.0622399
0.074491
0.105296
0.167878
0.280516
0.435713
0.580393
0.681412
0.739977
0.781423
0.813309
0.832869
0.84442
0.849125
0.851319
0.85467
0.0802064
0.0779027
0.078745
0.0807109
0.085822
0.0982563
0.119204
0.174396
0.282352
0.446865
0.609506
0.729446
0.806601
0.868281
0.914015
0.93701
0.945342
0.954594
0.955497
0.95886
0.0961129
0.0941769
0.0949973
0.0965111
0.110359
0.129598
0.155772
0.213443
0.317086
0.485182
0.66608
0.813356
0.917471
0.989021
1.03515
1.05756
1.06001
1.07421
1.0758
1.07885
0.10123
0.0994036
0.099609
0.101202
0.122667
0.152948
0.201561
0.275767
0.387361
0.564999
0.767176
0.942263
1.06711
1.13777
1.16962
1.18992
1.18967
1.20401
1.20752
1.21066
0.0915807
0.0893116
0.088287
0.0884696
0.113162
0.156106
0.23836
0.348776
0.492373
0.698444
0.928471
1.12425
1.24899
1.30453
1.31433
1.33598
1.34051
1.35338
1.35987
1.36356
0.0845437
0.0807933
0.0756416
0.0727345
0.0907066
0.143984
0.25177
0.407849
0.615998
0.879564
1.14675
1.34677
1.45057
1.48359
1.4913
1.50836
1.52198
1.53827
1.54996
1.55459
0.0996947
0.0959894
0.0898127
0.0876694
0.0992617
0.147858
0.260237
0.448071
0.725012
1.06608
1.37803
1.57904
1.66348
1.69937
1.7264
1.74847
1.77099
1.7882
1.80092
1.80639
0.143779
0.139458
0.131064
0.12889
0.141915
0.186674
0.291404
0.485321
0.800991
1.21444
1.57869
1.80566
1.90734
1.97579
2.03019
2.06301
2.08974
2.10863
2.12175
2.12695
0.186719
0.184455
0.178632
0.173843
0.18938
0.235787
0.324754
0.517904
0.850985
1.31644
1.74286
2.02833
2.19437
2.31037
2.39232
2.43436
2.46493
2.48947
2.50348
2.50881
0.224117
0.220095
0.212261
0.205032
0.220374
0.272746
0.363696
0.560284
0.896336
1.39621
1.89796
2.27746
2.53959
2.7076
2.8006
2.85424
2.89315
2.9236
2.93887
2.9444
0.242845
0.239728
0.231813
0.220137
0.231869
0.298089
0.423614
0.642321
0.997536
1.53927
2.1351
2.63507
2.98497
3.17956
3.26798
3.33795
3.38527
3.41972
3.43719
3.44367
0.238118
0.23424
0.226395
0.216357
0.228411
0.299394
0.472724
0.767826
1.22461
1.87402
2.58111
3.16704
3.53456
3.72298
3.81761
3.89751
3.95136
3.98974
4.00825
4.01452
0.204602
0.200516
0.192409
0.183488
0.198065
0.27644
0.491267
0.883587
1.51614
2.35812
3.18913
3.79514
4.13719
4.32992
4.443
4.53119
4.5883
4.62797
4.64939
4.65692
0.105513
0.103254
0.0967032
0.0893285
0.115118
0.212562
0.45642
0.913267
1.70418
2.7431
3.71248
4.36769
4.75021
4.99076
5.13555
5.23628
5.30193
5.34809
5.37161
5.37907
-0.0760807
-0.0791853
-0.0847439
-0.0856597
-0.0531665
0.0706571
0.353978
0.874852
1.76966
2.93773
4.06374
4.88049
5.39854
5.71843
5.89829
6.01427
6.09026
6.13737
6.16199
6.17074
-0.394086
-0.391675
-0.389887
-0.38342
-0.326857
-0.151398
0.214546
0.852175
1.88157
3.18685
4.48944
5.50662
6.15462
6.51866
6.7215
6.85261
6.93934
6.99269
7.02049
7.02524
-0.892291
-0.888618
-0.876577
-0.840346
-0.731226
-0.464724
0.0473016
0.880272
2.15477
3.68971
5.1728
6.31064
7.00881
7.38947
7.60585
7.74907
7.84135
7.90131
7.93716
7.94865
-1.6497
-1.61903
-1.56587
-1.46473
-1.25968
-0.861336
-0.159331
0.940998
2.50846
4.29919
5.97749
7.20032
7.92325
8.33698
8.55968
8.71637
8.82961
8.90461
8.95176
8.97034
-2.75834
-2.68262
-2.50891
-2.25967
-1.89429
-1.30345
-0.377099
1.00243
2.81289
4.84527
6.7656
8.11564
8.89074
9.34546
9.62411
9.79841
9.91675
10.0015
10.037
10.0417
-4.2989
-4.05362
-3.65131
-3.18726
-2.60325
-1.77652
-0.581163
1.07374
3.13004
5.45064
7.68144
9.22392
10.1211
10.6652
10.9825
11.2006
11.3427
11.4292
11.5051
11.5016
-6.27309
-5.59752
-4.88302
-4.18644
-3.36997
-2.28424
-0.788474
1.1773
3.53566
6.18938
8.76193
10.5275
11.5631
12.2169
12.6189
12.8901
13.1076
13.2745
13.3984
13.4112
-8.06423
-7.12416
-6.16998
-5.24388
-4.17492
-2.81699
-1.01966
1.27468
3.9644
6.93853
9.77383
11.7113
12.8683
13.5936
14.1151
14.4764
14.7255
14.9223
15.0832
15.1036
-9.53644
-8.45904
-7.38537
-6.2649
-4.95102
-3.34564
-1.27324
1.33398
4.33879
7.59244
10.6313
12.7213
13.9857
14.787
15.3481
15.7652
16.0801
16.3296
16.5223
16.5546
-10.7882
-9.62766
-8.45188
-7.15761
-5.65495
-3.82687
-1.50713
1.36255
4.61833
8.10557
11.3113
13.5312
14.8742
15.7452
16.3602
16.8242
17.1675
17.4208
17.625
17.6694
-11.8799
-10.5778
-9.34357
-7.93477
-6.28244
-4.24511
-1.6953
1.37074
4.81319
8.48597
11.819
14.1278
15.5327
16.4599
17.104
17.5843
17.961
18.2614
18.4979
18.5556
-12.7476
-11.3258
-10.0913
-8.62358
-6.82639
-4.60727
-1.85468
1.35071
4.93637
8.74906
12.1741
14.5463
16.0022
16.9613
17.6301
18.15
18.565
18.885
19.1569
19.2288
-13.5083
-11.9324
-10.7139
-9.18998
-7.27965
-4.901
-2.01674
1.2907
4.98518
8.90441
12.3932
14.8014
16.2954
17.3019
18.0225
18.5732
19.0147
19.345
19.6264
19.6953
-14.1895
-12.5107
-11.2506
-9.63353
-7.6112
-5.118
-2.18111
1.19487
4.96471
8.96043
12.4897
14.932
16.4814
17.5437
18.3095
18.8937
19.3743
19.7198
20.0256
20.0694
-14.7413
-13.011
-11.7351
-9.9728
-7.82223
-5.28292
-2.33004
1.08191
4.89391
8.9368
12.4901
14.9826
16.6019
17.7312
18.568
19.1835
19.6889
20.0262
20.3409
20.3967
-15.2061
-13.4946
-12.1053
-10.1743
-7.947
-5.41075
-2.45318
0.966037
4.79642
8.86056
12.4315
14.9797
16.6918
17.8951
18.8107
19.4139
19.9781
20.3204
20.6272
20.6958
-15.6014
-13.9163
-12.3582
-10.2811
-8.02421
-5.5018
-2.5531
0.857723
4.69209
8.75406
12.3401
14.9628
16.7707
18.054
19.0013
19.6868
20.2163
20.6015
20.9002
20.9728
-15.9526
-14.2026
-12.5391
-10.3909
-8.10133
-5.5777
-2.63753
0.767259
4.59233
8.63358
12.2421
14.9341
16.8238
18.1781
19.1746
19.9098
20.4791
20.8847
21.1767
21.2544
-16.2368
-14.4454
-12.7073
-10.507
-8.20852
-5.66541
-2.71343
0.694597
4.49789
8.5082
12.1374
14.8859
16.8434
18.2643
19.3227
20.1082
20.7127
21.1469
21.4592
21.5325
-16.5053
-14.7158
-12.8972
-10.6932
-8.36917
-5.78105
-2.79334
0.626798
4.40158
8.37898
12.0161
14.8009
16.8142
18.3055
19.4397
20.2882
20.9441
21.4082
21.7301
21.8069
-16.7598
-15.0016
-13.186
-10.9563
-8.58114
-5.93047
-2.8922
0.544762
4.29277
8.23948
11.8679
14.6731
16.7367
18.3017
19.5188
20.447
21.1653
21.669
22.0093
22.0866
-17.0533
-15.2837
-13.4701
-11.2368
-8.82383
-6.11202
-3.02149
0.432722
4.16158
8.08029
11.6884
14.5069
16.6201
18.2648
19.5709
20.5836
21.3699
21.9235
22.283
22.3687
-17.4228
-15.6164
-13.7497
-11.5303
-9.08289
-6.31971
-3.18531
0.283704
4.00166
7.89527
11.4807
14.3114
16.4713
18.1928
19.584
20.6879
21.5561
22.1758
22.5586
22.6091
-17.7932
-15.9804
-14.1245
-11.8352
-9.3449
-6.5465
-3.38079
0.0987035
3.81116
7.68509
11.2538
14.097
16.2939
18.0758
19.5496
20.7536
21.7215
22.4159
22.8163
22.8085
-18.2131
-16.3649
-14.485
-12.1621
-9.61725
-6.78856
-3.60364
-0.11816
3.59235
7.45609
11.0178
13.8706
16.0896
17.9127
19.4576
20.7595
21.8367
22.6448
23.1181
22.9673
-18.6167
-16.7265
-14.7823
-12.4086
-9.88131
-7.03639
-3.84431
-0.357716
3.3519
7.21357
10.7712
13.6227
15.8475
17.6906
19.281
20.6724
21.8816
22.8493
23.5175
23.5347
-18.9553
-16.9607
-14.9831
-12.6359
-10.141
-7.28294
-4.09093
-0.608761
3.09748
6.95783
10.504
13.3353
15.5445
17.3841
18.9924
20.4301
21.723
22.8358
23.3542
23.2765
-19.2864
-17.3463
-15.4046
-12.9907
-10.3861
-7.52477
-4.32991
-0.855717
2.84473
6.69793
10.2174
13.0069
15.1782
16.986
18.5649
19.9774
21.2232
22.1675
22.5082
22.5021
-19.6457
-17.856
-15.9558
-13.3334
-10.6224
-7.76562
-4.56054
-1.0956
2.59708
6.43198
9.90733
12.6352
14.7436
16.487
17.9883
19.2965
20.3846
20.9896
21.2052
21.3288
-19.968
-18.1112
-16.0605
-13.4466
-10.8875
-7.99876
-4.79075
-1.33132
2.3507
6.15372
9.57107
12.2227
14.2429
15.8849
17.2525
18.3863
19.276
19.7654
19.9107
20.1172
-20.1384
-18.2105
-16.1148
-13.6478
-11.1811
-8.23378
-5.03248
-1.57112
2.09479
5.85369
9.20595
11.7717
13.6776
15.1764
16.3747
17.3223
18.0273
18.4003
18.459
18.761
-20.3555
-18.5814
-16.6649
-14.1596
-11.4687
-8.50591
-5.28469
-1.81988
1.82281
5.52871
8.81376
11.2868
13.0553
14.3763
15.3825
16.135
16.5969
16.8296
16.917
17.2517
-20.7195
-19.0673
-17.1475
-14.5108
-11.7435
-8.79727
-5.53258
-2.07387
1.53918
5.1871
8.40367
10.7775
12.3934
13.5126
14.3092
14.87
15.1277
15.1098
14.9919
15.2066
-21.0116
-19.2173
-17.1242
-14.5849
-12.0131
-9.04034
-5.76916
-2.32635
1.25146
4.83994
7.98558
10.2558
11.7179
12.6285
13.1936
13.5441
13.5842
13.0232
12.0801
12.1709
-21.1845
-19.3288
-17.265
-14.8188
-12.2529
-9.24013
-5.99379
-2.57074
0.967067
4.49698
7.56667
9.73182
11.0538
11.7705
12.0841
12.1421
11.9616
10.8904
8.65486
6.6533
-21.462
-19.6616
-17.6561
-15.1265
-12.4446
-9.43905
-6.19903
-2.8015
0.696468
4.1701
7.1593
9.2229
10.4275
10.9856
11.0607
10.7729
10.2665
9.24126
5.41847
-4.73441
-21.7642
-19.9582
-17.8328
-15.2522
-12.6042
-9.61504
-6.38088
-3.01646
0.44386
3.86046
6.76218
8.72582
9.83383
10.2763
10.1688
9.63853
8.92762
8.26146
7.65783
3.71026
-21.9634
-20.1254
-17.9445
-15.3719
-12.7589
-9.75879
-6.55459
-3.22376
0.198305
3.55401
6.36642
8.23696
9.27065
9.65474
9.50539
9.03495
8.4769
8.46595
9.36707
8.45
-22.1592
-20.3484
-18.1921
-15.5824
-12.9249
-9.91101
-6.73376
-3.43078
-0.0477029
3.24612
5.97887
7.77637
8.76667
9.1677
9.13945
8.893
8.58905
8.53223
8.9996
8.52128
-22.3846
-20.5953
-18.414
-15.762
-13.1007
-10.0835
-6.92258
-3.64512
-0.299171
2.93612
5.60766
7.36323
8.34828
8.82683
8.99968
8.91604
8.70925
8.48047
8.59219
8.53594
-22.5737
-20.7919
-18.5789
-15.9377
-13.291
-10.2622
-7.1216
-3.86911
-0.55668
2.62855
5.26162
7.01317
8.03129
8.60242
8.90808
8.9786
8.83345
8.57295
8.6765
8.71811
-22.7339
-20.9796
-18.7757
-16.1367
-13.4927
-10.4437
-7.32991
-4.10097
-0.815868
2.33231
4.94881
6.7333
7.81436
8.46834
8.85813
9.05285
9.01378
8.83149
8.91896
8.95136
-22.8867
-21.1695
-18.9514
-16.3389
-13.6909
-10.6189
-7.54118
-4.33453
-1.06809
2.05753
4.67726
6.52048
7.68474
8.41601
8.87841
9.177
9.27868
9.16894
9.20418
9.22879
-22.9771
-21.3133
-19.0847
-16.5091
-13.8592
-10.7734
-7.74732
-4.5586
-1.30303
1.81234
4.45327
6.36823
7.6287
8.45053
8.98464
9.36618
9.61878
9.58406
9.60981
9.64051
-23.0114
-21.4114
-19.1774
-16.6363
-13.9486
-10.9155
-7.93563
-4.75404
-1.51151
1.60015
4.28049
6.27382
7.63923
8.56454
9.18264
9.65169
10.038
10.1818
10.243
10.2801
-22.9407
-21.4172
-19.1995
-16.6827
-13.9876
-11.0499
-8.06948
-4.9077
-1.69141
1.42318
4.15659
6.2326
7.70832
8.76075
9.5016
10.0845
10.5932
10.9311
11.0838
11.1417
-22.7631
-21.3227
-19.1126
-16.6332
-13.9785
-11.1155
-8.15222
-5.02439
-1.8448
1.28656
4.07307
6.23365
7.82575
9.02288
9.91914
10.6228
11.2215
11.685
11.9225
11.9838
-22.4094
-21.0687
-18.9091
-16.4956
-13.9043
-11.1064
-8.18624
-5.10743
-1.96679
1.17565
4.01631
6.25743
7.96007
9.29863
10.3432
11.1466
11.7818
12.2677
12.5511
12.6207
-21.8826
-20.6631
-18.5719
-16.2421
-13.7374
-11.0232
-8.16843
-5.15427
-2.05695
1.08133
3.96232
6.269
8.05995
9.49784
10.6171
11.4331
12.0499
12.5265
12.8317
12.9155
-21.1297
-20.0621
-18.0882
-15.8842
-13.4871
-10.8735
-8.10145
-5.16232
-2.12219
0.98838
3.8791
6.22073
8.04112
9.47614
10.5635
11.3568
11.9645
12.4464
12.7679
12.8681
-20.1262
-19.2525
-17.4487
-15.3978
-13.1396
-10.6508
-7.97832
-5.13268
-2.17249
0.877226
3.72889
6.03856
7.80098
9.17297
10.2282
11.0283
11.6475
12.1227
12.444
12.5601
-18.9556
-18.3026
-16.7144
-14.8467
-12.7261
-10.3606
-7.80235
-5.07059
-2.21974
0.725021
3.47535
5.68588
7.3682
8.70987
9.77756
10.5881
11.2045
11.6687
11.9898
12.1264
-17.6478
-17.2893
-15.9682
-14.2523
-12.2476
-10.006
-7.57791
-4.98427
-2.27688
0.518675
3.1226
5.228
6.86119
8.17993
9.22804
10.021
10.6283
11.0898
11.4188
11.5794
-16.7997
-16.6731
-15.3437
-13.6464
-11.7162
-9.59027
-7.3008
-4.86901
-2.33635
0.279076
2.72594
4.72276
6.27345
7.50618
8.47747
9.22555
9.81335
10.2708
10.6089
10.8012
-16.0727
-15.9041
-14.6733
-13.0214
-11.1353
-9.10179
-6.95428
-4.70748
-2.37604
0.0398214
2.31007
4.14421
5.53993
6.63329
7.49073
8.15887
8.68059
9.0838
9.38971
9.58433
-14.8569
-14.7441
-13.6469
-12.0954
-10.3072
-8.42308
-6.48437
-4.46081
-2.34857
-0.151375
1.92003
3.57623
4.81578
5.77957
6.5248
7.08843
7.50529
7.80719
8.01744
8.14763
-13.0654
-13.1583
-12.1336
-10.7035
-9.13869
-7.52621
-5.86247
-4.09914
-2.23559
-0.282598
1.56785
3.04466
4.14211
4.98543
5.63244
6.09554
6.41732
6.63542
6.76693
6.83501
-10.2948
-10.3115
-9.67875
-8.78284
-7.65952
-6.41279
-5.0705
-3.61671
-2.04525
-0.370551
1.2243
2.49487
3.42885
4.12812
4.65166
5.00609
5.23787
5.38663
5.47077
5.50717
-6.92998
-6.93472
-6.79236
-6.46796
-5.88812
-5.07681
-4.1267
-3.01337
-1.7604
-0.391837
0.927878
1.98926
2.75677
3.30922
3.7153
3.98227
4.15181
4.25452
4.31119
4.3422
-4.20097
-4.19558
-4.17884
-4.1517
-3.98058
-3.62225
-3.0793
-2.31032
-1.38873
-0.340548
0.704642
1.56454
2.17661
2.59824
2.90686
3.10948
3.24018
3.32193
3.37094
3.40174
-2.25091
-2.25939
-2.28096
-2.33057
-2.3282
-2.24562
-2.03321
-1.5804
-0.978687
-0.228111
0.567089
1.23825
1.71594
2.03398
2.26896
2.426
2.53474
2.61159
2.65854
2.68703
-1.099
-1.11769
-1.14893
-1.18875
-1.19823
-1.19907
-1.15092
-0.924726
-0.578842
-0.0688511
0.511048
1.01335
1.38343
1.62776
1.81583
1.94369
2.03661
2.10843
2.14663
2.16738
-0.463081
-0.489352
-0.547336
-0.5946
-0.593125
-0.586016
-0.554053
-0.423957
-0.236518
0.102223
0.510934
0.876901
1.16579
1.35986
1.51704
1.6244
1.70041
1.75952
1.78742
1.79892
-0.141221
-0.166079
-0.234449
-0.299367
-0.307054
-0.288902
-0.235288
-0.117693
-0.00520122
0.238516
0.534416
0.806501
1.03645
1.19145
1.32277
1.41338
1.46293
1.50543
1.522
1.52821
-0.00148556
-0.0186869
-0.0733006
-0.134858
-0.152763
-0.142238
-0.0893048
0.00993742
0.105252
0.318714
0.558054
0.77138
0.958183
1.07702
1.17923
1.25601
1.27463
1.29554
1.3011
1.30438
0.0612657
0.0508267
0.0166284
-0.0243941
-0.0447074
-0.0592579
-0.0362735
0.042987
0.144169
0.352286
0.559934
0.732771
0.885908
0.972895
1.03747
1.09144
1.09819
1.10552
1.10274
1.10421
0.119642
0.112951
0.09042
0.0629728
0.043628
0.00809854
0.00278424
0.0612145
0.164684
0.34702
0.52027
0.661421
0.785245
0.85192
0.874665
0.909525
0.915386
0.922681
0.919497
0.919872
0.177359
0.173536
0.156031
0.136354
0.127296
0.097243
0.0862319
0.118733
0.183824
0.311697
0.450652
0.560777
0.655729
0.710937
0.711738
0.733278
0.739634
0.748917
0.748017
0.749273
0.217868
0.21669
0.207621
0.198883
0.202063
0.196034
0.199726
0.207979
0.213214
0.282679
0.38646
0.462872
0.523856
0.565511
0.573729
0.591669
0.594775
0.601352
0.600143
0.601424
0.251586
0.250481
0.245661
0.245221
0.254138
0.257309
0.271843
0.276954
0.260218
0.292446
0.347759
0.39186
0.422343
0.451445
0.470665
0.48726
0.487027
0.489879
0.486308
0.486359
0.28724
0.284492
0.276672
0.270781
0.270981
0.265024
0.271597
0.286773
0.289691
0.314992
0.330466
0.352062
0.368456
0.393103
0.403396
0.411362
0.407372
0.406556
0.400164
0.398611
0.303595
0.299291
0.286781
0.273559
0.261816
0.246203
0.239614
0.256426
0.270525
0.304657
0.311208
0.331993
0.341281
0.360813
0.355075
0.35405
0.344755
0.340034
0.330971
0.327808
0.28871
0.284614
0.272818
0.259508
0.244469
0.231306
0.219249
0.222722
0.228289
0.261182
0.276683
0.30573
0.306831
0.314259
0.303685
0.301026
0.28897
0.282982
0.273169
0.269395
0.256309
0.252852
0.245333
0.23884
0.229009
0.224372
0.212135
0.206733
0.2003
0.218918
0.233001
0.257639
0.255397
0.259397
0.248282
0.247537
0.236142
0.231813
0.223484
0.219802
0.225774
0.223271
0.219113
0.217702
0.210985
0.211638
0.201966
0.200671
0.187552
0.193149
0.19357
0.208984
0.201714
0.207755
0.197701
0.198194
0.189019
0.186668
0.180402
0.177091
0.20066
0.198078
0.194683
0.193816
0.186179
0.188191
0.178753
0.183993
0.171614
0.176018
0.162817
0.172428
0.161753
0.16726
0.157599
0.158605
0.150078
0.148576
0.143581
0.140275
0.171466
0.16868
0.165514
0.164108
0.154936
0.156719
0.144525
0.152792
0.141014
0.153088
0.136977
0.142742
0.132785
0.136588
0.125734
0.126974
0.118071
0.115989
0.11185
0.108682
0.134583
0.131413
0.129389
0.128526
0.119717
0.122901
0.109066
0.118379
0.1023
0.120136
0.107184
0.114234
0.104137
0.108455
0.0973738
0.0987256
0.0904939
0.0885095
0.085145
0.0819522
0.0948113
0.0912678
0.0909064
0.0911478
0.0839759
0.0899406
0.0760894
0.0873218
0.0678944
0.0860713
0.0722198
0.0833021
0.0724344
0.0784158
0.0679597
0.0706441
0.063833
0.0625517
0.0609104
0.0580256
0.0566582
0.0531686
0.0550863
0.055282
0.0476569
0.0589687
0.0429714
0.0588643
0.0375966
0.0548929
0.0383602
0.0508224
0.0393211
0.0474116
0.0382305
0.0425524
0.0374622
0.0372805
0.03707
0.0345337
0.0225876
0.0204588
0.0244267
0.0220044
0.014169
0.0243042
0.009706
0.0258104
0.0085032
0.0218635
0.00856481
0.0184822
0.00941135
0.0169268
0.0101724
0.0145921
0.0111386
0.0113091
0.0125782
0.010643
12.2236
16.5182
17.6215
19.0185
20.161
21.1804
22.075
22.8345
23.3677
23.4771
16.9031
19.0008
19.7021
20.5919
21.367
22.0343
22.5915
23.0207
23.2543
23.2546
19.4362
20.4759
21.0094
21.5613
22.0506
22.4695
22.806
23.0483
23.1774
23.1989
20.8357
21.4795
21.8251
22.175
22.4729
22.7233
22.9194
23.0557
23.1335
23.1633
21.7596
22.0953
22.3117
22.5265
22.7129
22.8689
22.9882
23.0717
23.1191
23.1479
22.2702
22.4985
22.6253
22.7661
22.8783
22.97
23.042
23.0938
23.1261
23.15
22.6087
22.7596
22.8225
22.9111
22.9811
23.0397
23.0866
23.1226
23.1449
23.1692
22.8326
22.9233
22.9642
23.0168
23.0628
23.1024
23.1362
23.165
23.1867
23.2071
22.9899
23.0454
23.0741
23.1058
23.1397
23.1701
23.1963
23.2206
23.2375
23.258
23.1131
23.1483
23.1747
23.1986
23.2223
23.2451
23.2641
23.2815
23.2942
23.3112
23.2278
23.2518
23.271
23.2873
23.3027
23.3171
23.3305
23.3441
23.3534
23.3709
23.3291
23.3425
23.358
23.3708
23.383
23.3946
23.405
23.4149
23.4214
23.4338
23.423
23.433
23.4476
23.4588
23.4679
23.4764
23.4845
23.4922
23.4933
23.5015
23.5232
23.5292
23.5391
23.5454
23.5493
23.5538
23.5592
23.5656
23.5689
23.5781
23.6384
23.6256
23.6182
23.6124
23.6102
23.6119
23.6183
23.6305
23.6451
23.6734
23.7604
23.7045
23.6734
23.6554
23.6469
23.647
23.6561
23.6761
23.7079
23.7779
)
;

boundaryField
{
    wall-4
    {
        type            zeroGradient;
    }
    pressure-outlet-7
    {
        type            fixedValue;
        value           uniform 0;
    }
    velocity-inlet-6
    {
        type            zeroGradient;
    }
    velocity-inlet-5
    {
        type            zeroGradient;
    }
    frontAndBackPlanes
    {
        type            empty;
    }
}


// ************************************************************************* //
