/*--------------------------------*- C++ -*----------------------------------*\
| =========                 |                                                 |
| \\      /  F ield         | OpenFOAM: The Open Source CFD Toolbox           |
|  \\    /   O peration     | Version:  2412                                  |
|   \\  /    A nd           | Website:  www.openfoam.com                      |
|    \\/     M anipulation  |                                                 |
\*---------------------------------------------------------------------------*/
FoamFile
{
    version     2.0;
    format      ascii;
    arch        "LSB;label=32;scalar=64";
    class       surfaceScalarField;
    location    "5.5";
    object      phi;
}
// * * * * * * * * * * * * * * * * * * * * * * * * * * * * * * * * * * * * * //

dimensions      [0 3 -1 0 0 0 0];

oriented        oriented;

internalField   nonuniform List<scalar> 
4262
(
0.00113427
0.219378
-0.000602127
0.83039
-0.00198986
1.76853
-0.00324817
3.16642
-0.00508858
5.18644
-0.00734619
8.01662
-0.00833811
11.8481
-0.00943462
16.8208
-0.0106374
22.883
-0.00984187
29.5276
-0.00849953
29.527
-0.00757407
22.8809
-0.00666485
16.8188
-0.00553485
11.846
-0.00472633
8.01356
-0.00402785
5.18391
-0.0031687
3.16431
-0.00339751
1.76737
-0.00345041
0.828706
0.217062
-0.00258897
0.221967
-0.00356963
0.83137
-0.00675238
1.77171
-0.010789
3.17046
-0.0167907
5.19245
-0.0217857
8.02162
-0.0256649
11.852
-0.0299967
16.8252
-0.032805
22.8858
-0.0313326
29.5261
-0.0281053
29.5238
-0.022701
22.8755
-0.0192244
16.8154
-0.0147765
11.8416
-0.0113677
8.01015
-0.00908373
5.18162
-0.00668622
3.16191
-0.0049514
1.76564
-0.00137886
0.825134
0.215683
-0.00696375
0.228931
-0.00938352
0.83379
-0.0151392
1.77747
-0.0233553
3.17868
-0.031007
5.2001
-0.0357252
8.02634
-0.043648
11.8599
-0.0482386
16.8298
-0.0528226
22.8904
-0.0482807
29.5215
-0.0415274
29.517
-0.034846
22.8688
-0.0276135
16.8081
-0.0221363
11.8361
-0.0161165
8.00413
-0.0115471
5.17705
-0.00772878
3.15809
-0.00264332
1.76055
0.00279179
0.819698
0.218475
-0.0124911
0.241422
-0.0186262
0.839925
-0.0284696
1.78731
-0.0389861
3.18919
-0.0469589
5.20807
-0.0544186
8.0338
-0.0628196
11.8683
-0.0660768
16.833
-0.0717105
22.8961
-0.066666
29.5165
-0.058516
29.5089
-0.0493243
22.8596
-0.0355534
16.7944
-0.0251978
11.8257
-0.0158984
7.99483
-0.00979658
5.17095
-0.00523225
3.15353
-0.000954639
1.75627
0.00500491
0.813739
0.22348
-0.0177861
0.259208
-0.0280676
0.850206
-0.0441531
1.8034
-0.0589742
3.20402
-0.0704433
5.21954
-0.0767037
8.04006
-0.0826648
11.8743
-0.0860305
16.8364
-0.0914255
22.9014
-0.0828327
29.5079
-0.0704869
29.4965
-0.0562365
22.8454
-0.0387479
16.7769
-0.0241439
11.8111
-0.0111129
7.9818
-0.00249478
5.16233
0.00216204
3.14887
0.00422082
1.75422
0.00774465
0.810215
0.231225
-0.0193273
0.278535
-0.0392677
0.870147
-0.0588421
1.82297
-0.0762836
3.22146
-0.0948154
5.23807
-0.105148
8.05039
-0.10804
11.8772
-0.111797
16.8401
-0.113144
22.9028
-0.100185
29.4949
-0.0837886
29.4801
-0.0631285
22.8247
-0.0420991
16.7558
-0.0209595
11.79
-0.00617046
7.96701
0.00333454
5.15283
0.0109003
3.1413
0.013624
1.75149
0.00972226
0.814117
0.240947
-0.0213459
0.299881
-0.054598
0.903399
-0.0690071
1.83738
-0.082723
3.23517
-0.104743
5.26009
-0.125125
8.07077
-0.131334
11.8834
-0.135279
16.8441
-0.134572
22.9021
-0.117704
29.4781
-0.0958837
29.4583
-0.0664558
22.7953
-0.0411343
16.7305
-0.0181395
11.767
-0.00415993
7.95303
0.00543587
5.14323
0.0168549
3.12989
0.0239624
1.74438
0.00929086
0.828788
0.250238
-0.026894
0.326775
-0.0699379
0.946443
-0.0786429
1.84609
-0.0960268
3.25256
-0.116187
5.28025
-0.137297
8.09188
-0.155208
11.9013
-0.166363
16.8552
-0.16343
22.8992
-0.136698
29.4513
-0.104819
29.4264
-0.0715815
22.762
-0.0454069
16.7043
-0.0217834
11.7434
-0.00504278
7.93629
0.0105328
5.12766
0.0220803
3.11834
0.0376277
1.72884
0.0132758
0.85314
0.263514
-0.0322951
0.35907
-0.0794726
0.99362
-0.0880309
1.85464
-0.110024
3.27455
-0.126087
5.29631
-0.150066
8.11586
-0.171476
11.9227
-0.187603
16.8714
-0.190505
22.9021
-0.157277
29.4181
-0.116745
29.3859
-0.079054
22.7244
-0.0557806
16.6811
-0.0323099
11.7199
-0.0115029
7.91548
0.00846928
5.10768
0.0211117
3.1057
0.0443773
1.70557
0.017198
0.880319
0.280712
-0.0344671
0.393537
-0.0853709
1.04452
-0.0968868
1.86616
-0.123689
3.30135
-0.142534
5.31516
-0.165168
8.13849
-0.189608
11.9472
-0.20762
16.8894
-0.218308
22.9127
-0.181696
29.3815
-0.135681
29.3399
-0.101296
22.69
-0.071112
16.6509
-0.0416984
11.6905
-0.0181136
7.8919
0.00521084
5.08436
0.0197187
3.09119
0.0410017
1.68429
0.0158043
0.905517
0.296516
-0.0350098
0.428547
-0.0871159
1.09663
-0.10641
1.88545
-0.139635
3.33458
-0.164806
5.34033
-0.19145
8.16514
-0.211864
11.9676
-0.225685
16.9032
-0.240799
22.9279
-0.208365
29.3491
-0.165124
29.2967
-0.1236
22.6484
-0.0832227
16.6105
-0.0458312
11.6531
-0.0155297
7.86159
0.00787771
5.06095
0.0231112
3.07595
0.0384235
1.66898
0.014038
0.929902
0.310554
-0.036282
0.464829
-0.0921097
1.15246
-0.123999
1.91734
-0.15524
3.36582
-0.194337
5.37943
-0.226288
8.19709
-0.24772
11.989
-0.261897
16.9174
-0.269319
22.9353
-0.23744
29.3172
-0.192798
29.252
-0.141004
22.5966
-0.0862908
16.5558
-0.0397683
11.6066
-0.00532485
7.82715
0.0135026
5.04212
0.0347139
3.05474
0.0417905
1.6619
0.0151399
0.956553
0.325694
-0.0447269
0.509556
-0.111605
1.21934
-0.159904
1.96564
-0.19003
3.39594
-0.242094
5.43149
-0.282588
8.23758
-0.30729
12.0137
-0.313643
16.9237
-0.311223
22.9329
-0.273493
29.2795
-0.220241
29.1988
-0.146658
22.5231
-0.0732917
16.4824
-0.0185249
11.5518
0.0192118
7.78941
0.0318436
5.02949
0.0588323
3.02775
0.0528535
1.66788
0.0195015
0.989905
0.345195
-0.055578
0.565134
-0.134815
1.29857
-0.206056
2.03688
-0.24867
3.43856
-0.312474
5.49529
-0.35204
8.27715
-0.381191
12.0429
-0.388139
16.9307
-0.374718
22.9194
-0.312246
29.217
-0.233042
29.1196
-0.135915
22.4259
-0.0513216
16.3978
0.00895267
11.4915
0.0523477
7.74602
0.0702629
5.01158
0.0995511
2.99847
0.0744967
1.69293
0.0283914
1.03601
0.373587
-0.0716189
0.636753
-0.171537
1.39849
-0.259515
2.12486
-0.308522
3.48756
-0.368884
5.55566
-0.415837
8.3241
-0.458598
12.0856
-0.472942
16.945
-0.453946
22.9004
-0.360682
29.1237
-0.243091
29.002
-0.130275
22.3131
-0.0381017
16.3057
0.0330731
11.4204
0.0841089
7.69498
0.107802
4.98788
0.126064
2.9802
0.0865866
1.73241
0.0329202
1.08968
0.406507
-0.0728043
0.709557
-0.177204
1.50289
-0.284656
2.23231
-0.361568
3.56448
-0.437418
5.63151
-0.49257
8.37925
-0.535524
12.1286
-0.556099
16.9656
-0.537224
22.8816
-0.415582
29.0021
-0.263918
28.8503
-0.136439
22.1856
-0.0362698
16.2055
0.0412086
11.3429
0.0930129
7.64318
0.131343
4.94955
0.147507
2.96404
0.100183
1.77973
0.0372665
1.15259
0.443773
-0.0922207
0.801778
-0.215945
1.62661
-0.332851
2.34922
-0.412386
3.64401
-0.485218
5.70434
-0.558366
8.4524
-0.613933
12.1841
-0.644641
16.9963
-0.622341
22.8593
-0.486084
28.8658
-0.322326
28.6865
-0.174223
22.0375
-0.0528746
16.0841
0.0424485
11.2476
0.102385
7.58324
0.147962
4.90398
0.15131
2.96069
0.0978159
1.83323
0.0345089
1.2159
0.478282
-0.0877599
0.889538
-0.217759
1.75661
-0.357019
2.48848
-0.46576
3.75275
-0.553942
5.79252
-0.644972
8.54343
-0.70091
12.2401
-0.73912
17.0345
-0.711912
22.8321
-0.565136
28.7191
-0.388672
28.5101
-0.218607
21.8675
-0.0708259
15.9364
0.0426123
11.1341
0.108429
7.51743
0.169825
4.84258
0.171337
2.95918
0.109395
1.89517
0.0376384
1.28766
0.515921
-0.113754
1.00329
-0.262675
1.90553
-0.413701
2.63951
-0.537312
3.87636
-0.638617
5.89382
-0.744597
8.64941
-0.805927
12.3014
-0.849138
17.0777
-0.817556
22.8005
-0.666866
28.5684
-0.479399
28.3226
-0.27617
21.6642
-0.0905278
15.7507
0.0518952
10.9917
0.130459
7.43886
0.189297
4.78374
0.17564
2.97284
0.105839
1.96497
0.0328781
1.36062
0.548799
-0.114779
1.11807
-0.279169
2.06992
-0.458479
2.81882
-0.616913
4.0348
-0.742474
6.01939
-0.871466
8.7784
-0.95506
12.385
-1.01068
17.1333
-0.966113
22.7559
-0.787284
28.3895
-0.548722
28.084
-0.306151
21.4217
-0.0895793
15.5341
0.0631596
10.839
0.15748
7.34454
0.216841
4.72438
0.189795
2.99988
0.110389
2.04438
0.0296576
1.44135
0.578456
-0.139144
1.25722
-0.321113
2.25189
-0.518266
3.01597
-0.700269
4.2168
-0.861658
6.18077
-1.0193
8.93605
-1.13661
12.5023
-1.22038
17.2171
-1.15634
22.6919
-0.924315
28.1575
-0.622495
27.7822
-0.344995
21.1442
-0.10791
15.2971
0.0651239
10.6659
0.183397
7.22627
0.236776
4.671
0.199491
3.03717
0.106291
2.13758
0.0161346
1.53151
0.594591
-0.149236
1.40645
-0.35579
2.45845
-0.582456
3.24263
-0.80621
4.44056
-1.00676
6.38132
-1.19426
9.12355
-1.35249
12.6605
-1.45087
17.3155
-1.36785
22.6089
-1.08875
27.8784
-0.730652
27.4241
-0.40706
20.8206
-0.132491
15.0225
0.0535483
10.4799
0.184189
7.09563
0.231098
4.62409
0.179872
3.08839
0.0868512
2.2306
-0.00200996
1.62037
0.592581
-0.172103
1.57855
-0.39624
2.68258
-0.652544
3.49894
-0.91134
4.69935
-1.16036
6.63034
-1.39273
9.35593
-1.58209
12.8499
-1.69651
17.4299
-1.58628
22.4986
-1.27439
27.5665
-0.888066
27.0378
-0.52556
20.4581
-0.218871
14.7158
0.0144954
10.2465
0.182383
6.92774
0.225372
4.58111
0.166422
3.14734
0.0485143
2.34851
-0.0241262
1.69301
0.568455
-0.21155
1.79011
-0.469969
2.941
-0.761889
3.79086
-1.08756
5.02503
-1.39996
6.94273
-1.66706
9.62303
-1.88312
13.066
-1.99858
17.5454
-1.85304
22.3531
-1.51149
27.225
-1.0615
26.5878
-0.630887
20.0275
-0.267923
14.3528
-0.00299617
9.98159
0.16371
6.76104
0.189314
4.5555
0.123534
3.21312
0.0318981
2.44014
-0.0474024
1.77231
0.521053
-0.272674
2.06278
-0.570005
3.23833
-0.966573
4.18743
-1.36264
5.42109
-1.72264
7.30273
-2.02562
9.92601
-2.28914
13.3295
-2.37803
17.6343
-2.18016
22.1552
-1.7804
26.8252
-1.22156
26.029
-0.72054
19.5264
-0.335656
13.968
-0.0283616
9.67429
0.159309
6.57336
0.182687
4.53212
0.109663
3.28615
0.000379279
2.54943
-0.0875405
1.86023
0.433512
-0.414134
2.47691
-0.85701
3.68121
-1.30542
4.63583
-1.73645
5.85212
-2.14751
7.71379
-2.50198
10.2805
-2.79225
13.6198
-2.81931
17.6613
-2.55129
21.8872
-2.06364
26.3376
-1.39285
25.3582
-0.828457
18.9621
-0.381519
13.521
-0.0515073
9.34428
0.108681
6.41318
0.0906598
4.55014
-0.0115294
3.38834
-0.122473
2.66037
-0.132628
1.87038
0.300884
-0.343808
2.82072
-0.752322
4.08972
-1.14052
5.02403
-1.56329
6.27489
-2.00723
8.15774
-2.4223
10.6956
-2.77854
13.976
-2.86542
17.7482
-2.6817
21.7035
-2.1963
25.8522
-1.40307
24.565
-0.690678
18.2497
-0.0983597
12.9287
0.289474
8.95645
0.394498
6.30815
0.321685
4.62296
0.144591
3.56543
-0.0193214
2.82428
-0.0658525
1.91691
0.235031
-0.211896
3.03262
-0.480657
4.35848
-0.827595
5.37097
-1.20584
6.65313
-1.5633
8.5152
-1.85854
10.9908
-2.07052
14.188
-2.05163
17.7293
-1.82197
21.4738
-1.29946
25.3297
-0.530892
23.7964
0.12782
17.5909
0.658863
12.3977
0.883026
8.73228
0.85083
6.34035
0.671636
4.80215
0.428379
3.80869
0.200808
3.05185
0.0883374
2.02939
0.323369
-0.176343
3.20896
-0.38217
4.56431
-0.655098
5.64389
-0.950944
6.94898
-1.22374
8.788
-1.44288
11.2099
-1.55878
14.3039
-1.48421
17.6547
-1.22738
21.217
-0.699442
24.8017
0.0200489
23.0769
0.631804
16.9792
0.996107
12.0334
1.03824
8.69015
0.876711
6.50187
0.609093
5.06977
0.370179
4.0476
0.226237
3.19579
0.119066
2.13656
0.442435
-0.147051
3.35601
-0.338123
4.75538
-0.562076
5.86785
-0.78638
7.17328
-0.99335
8.99497
-1.15523
11.3718
-1.20883
14.3575
-1.10555
17.5515
-0.841493
20.9529
-0.328446
24.2887
0.331332
22.4171
0.845329
16.4652
1.07801
11.8007
1.06174
8.70643
0.906577
6.65703
0.69931
5.27704
0.478139
4.26877
0.282656
3.39128
0.139807
2.27941
0.582242
-0.115307
3.47132
-0.308274
4.94835
-0.484288
6.04386
-0.6674
7.35639
-0.832702
9.16027
-0.96139
11.5005
-0.976782
14.3729
-0.866058
17.4407
-0.608748
20.6956
-0.130682
23.8106
0.452334
21.8341
0.864375
16.0532
0.986695
11.6783
0.879991
8.81313
0.654347
6.88268
0.450924
5.48046
0.292199
4.4275
0.189026
3.49445
0.109047
2.35938
0.691288
-0.0818437
3.55316
-0.270542
5.13705
-0.455994
6.22931
-0.606818
7.50722
-0.737586
9.29104
-0.837355
11.6003
-0.822813
14.3583
-0.717284
17.3352
-0.476604
20.4549
-0.0436936
23.3777
0.464004
21.3264
0.780121
15.737
0.823019
11.6355
0.724541
8.91161
0.611706
6.99551
0.491875
5.60029
0.379201
4.54017
0.247685
3.62597
0.122946
2.48412
0.814235
-0.0656459
3.61881
-0.242127
5.31353
-0.409322
6.39651
-0.557202
7.6551
-0.685402
9.41924
-0.758748
11.6736
-0.727643
14.3272
-0.625349
17.2329
-0.408355
20.2379
-0.0275954
22.9969
0.393912
20.9049
0.621644
15.5093
0.636165
11.6209
0.54877
8.999
0.402193
7.14209
0.256501
5.74598
0.153807
4.64287
0.110176
3.6696
0.0630304
2.53127
0.877265
-0.052226
3.67103
-0.192491
5.45379
-0.353177
6.5572
-0.514797
7.81672
-0.639497
9.54394
-0.696836
11.731
-0.668905
14.2993
-0.572063
17.1361
-0.379087
20.045
-0.0498969
22.6677
0.296475
20.5585
0.475838
15.3299
0.482281
11.6145
0.402558
9.07873
0.325943
7.21871
0.250953
5.82097
0.183323
4.7105
0.0772595
3.77566
0.0177854
2.59074
0.89505
-0.0323351
3.70337
-0.155183
5.57664
-0.291844
6.69386
-0.451221
7.97609
-0.580119
9.67284
-0.642975
11.7938
-0.629111
14.2854
-0.542981
17.0499
-0.372299
19.8743
-0.090557
22.386
0.183528
20.2844
0.309007
15.2045
0.301712
11.6218
0.25317
9.12727
0.192273
7.2796
0.109805
5.90344
0.057283
4.76302
0.0361815
3.79676
0.00460572
2.62232
0.899656
-0.0252353
3.7286
-0.135231
5.68664
-0.262428
6.82105
-0.404541
8.11821
-0.526942
9.79524
-0.595271
11.8621
-0.595852
14.286
-0.524697
16.9788
-0.37442
19.724
-0.136499
22.1481
0.0734192
20.0745
0.172497
15.1054
0.178741
11.6155
0.139769
9.16624
0.0907528
7.32862
0.0602468
5.93395
0.0216415
4.80162
-0.00524581
3.82365
-0.0126123
2.62969
0.887044
-0.0178353
3.74644
-0.101955
5.77076
-0.218655
6.93775
-0.357327
8.25688
-0.47761
9.91552
-0.55113
11.9357
-0.565579
14.3005
-0.509422
16.9226
-0.378861
19.5934
-0.182982
21.9522
-0.021982
19.9135
0.0386683
15.0447
0.0346958
11.6195
0.0257838
9.17515
0.00730986
7.34709
-0.00385022
5.94511
-0.0154638
4.81324
-0.0166575
3.82484
-0.0187855
2.63181
0.868258
-0.0118985
3.75834
-0.1012
5.86006
-0.207643
7.0442
-0.323862
8.3731
-0.43174
10.0234
-0.507041
12.011
-0.531987
14.3254
-0.490037
16.8807
-0.38114
19.4845
-0.225624
21.7967
-0.108847
19.7967
-0.0674636
15.0033
-0.0637834
11.6158
-0.068427
9.1798
-0.077235
7.3559
-0.0759417
5.94381
-0.0675408
4.80484
-0.0624277
3.81973
-0.0366754
2.60606
0.831583
-0.0011223
3.75946
-0.0897025
5.94864
-0.192336
7.14683
-0.294028
8.47479
-0.390002
10.1194
-0.462824
12.0838
-0.494686
14.3573
-0.46636
16.8523
-0.381389
19.3996
-0.264676
21.68
-0.189532
19.7216
-0.171643
14.9855
-0.174175
11.6184
-0.158976
9.1646
-0.126804
7.32373
-0.103596
5.9206
-0.0933301
4.79457
-0.0708009
3.7972
-0.044062
2.57932
0.787521
-0.0168127
3.77627
-0.0913306
6.02316
-0.176211
7.23171
-0.268873
8.56745
-0.353058
10.2036
-0.420718
12.1514
-0.455314
14.3919
-0.439398
16.8364
-0.378647
19.3388
-0.296776
21.5981
-0.25512
19.6799
-0.254672
14.985
-0.2521
11.6158
-0.241077
9.15357
-0.223726
7.30638
-0.194121
5.891
-0.14644
4.74689
-0.110096
3.76086
-0.061048
2.53027
0.726473
-0.00673623
3.78301
-0.0827748
6.0992
-0.161315
7.31025
-0.242174
8.64831
-0.318447
10.2798
-0.382106
12.2151
-0.417658
14.4274
-0.41233
16.8311
-0.373305
19.2998
-0.321238
21.546
-0.305828
19.6645
-0.323882
15.0031
-0.331069
11.623
-0.316123
9.13863
-0.271695
7.26195
-0.225159
5.84446
-0.190555
4.71228
-0.138455
3.70876
-0.0742084
2.46603
0.652264
-0.01843
3.80144
-0.0881751
6.16894
-0.148493
7.37057
-0.223031
8.72285
-0.290155
10.347
-0.348473
12.2734
-0.382576
14.4615
-0.385703
16.8342
-0.364461
19.2785
-0.336511
21.5181
-0.342073
19.6701
-0.371648
15.0326
-0.392024
11.6434
-0.386189
9.13279
-0.364102
7.23986
-0.324577
5.80494
-0.257169
4.64488
-0.186971
3.63856
-0.0972
2.37626
0.555064
-0.00573922
3.80718
-0.066965
6.23017
-0.127783
7.43139
-0.201589
8.79666
-0.264948
10.4103
-0.318863
12.3273
-0.351095
14.4937
-0.360713
16.8438
-0.352955
19.2708
-0.344374
21.5095
-0.368454
19.6942
-0.409363
15.0736
-0.449496
11.6835
-0.452145
9.13544
-0.416812
7.20453
-0.362629
5.75076
-0.306537
4.58879
-0.21553
3.54755
-0.118399
2.27912
0.436665
-0.00961286
3.81679
-0.0665197
6.28707
-0.119004
7.48387
-0.185558
8.86321
-0.242803
10.4676
-0.292202
12.3767
-0.32241
14.524
-0.336739
16.8582
-0.339019
19.2731
-0.345873
21.5164
-0.385414
19.7337
-0.437606
15.1257
-0.480961
11.7268
-0.510701
9.16518
-0.506128
7.19996
-0.467565
5.71219
-0.39074
4.51196
-0.286752
3.44357
-0.141718
2.13409
0.294948
-0.00960065
3.82639
-0.0530612
6.33053
-0.0978471
7.52866
-0.163332
8.9287
-0.2206
10.5248
-0.26644
12.4226
-0.296239
14.5538
-0.314174
16.8761
-0.324083
19.283
-0.343248
21.5355
-0.39596
19.7864
-0.460204
15.19
-0.514525
11.7812
-0.548215
9.19887
-0.554717
7.20646
-0.513701
5.67118
-0.451818
4.45008
-0.323899
3.31565
-0.14254
1.95273
0.152408
-0.00547791
3.83187
-0.046771
6.37183
-0.095854
7.57774
-0.149235
8.98208
-0.199888
10.5755
-0.243495
12.4662
-0.273715
14.584
-0.294754
16.8971
-0.311088
19.2993
-0.340103
21.5645
-0.403176
19.8495
-0.477602
15.2644
-0.542693
11.8463
-0.589012
9.24519
-0.621577
7.23902
-0.615871
5.66547
-0.542027
4.37623
-0.389876
3.1635
-0.056077
1.61893
0.0963306
-0.00917805
3.84105
-0.0413163
6.40397
-0.0791872
7.61561
-0.134307
9.0372
-0.187449
10.6286
-0.231382
12.5101
-0.265882
14.6185
-0.29339
16.9247
-0.319209
19.3251
-0.361583
21.6069
-0.441615
19.9295
-0.536802
15.3596
-0.626514
11.936
-0.695886
9.31456
-0.730248
7.27339
-0.730714
5.66594
-0.667889
4.31341
-0.452493
2.9481
-0.254604
1.42104
0.615026
-0.773299
-0.00994369
3.85099
-0.0343484
6.42837
-0.0787125
7.65998
-0.126979
9.08546
-0.173191
10.6748
-0.215068
12.552
-0.251325
14.6547
-0.283129
16.9565
-0.315946
19.3579
-0.36832
21.6593
-0.461026
20.0222
-0.572609
15.4712
-0.682685
12.046
-0.779762
9.41164
-0.861184
7.35481
-0.933513
5.73827
-0.981955
4.36185
-0.831963
2.79811
-0.905762
1.49484
1.15928
-1.45001
-0.0137754
3.86477
-0.0330715
6.44767
-0.0719035
7.69881
-0.111291
9.12485
-0.155965
10.7195
-0.199489
12.5955
-0.237376
14.6926
-0.273455
16.9925
-0.312467
19.397
-0.373933
21.7208
-0.47868
20.127
-0.608102
15.6006
-0.745928
12.1839
-0.881472
9.54718
-1.00868
7.48202
-1.10015
5.82973
-1.0762
4.3379
-0.967733
2.68964
-1.3017
1.82881
1.5794
-1.72183
-0.0107555
3.87552
-0.0306373
6.46755
-0.0676563
7.73583
-0.0983302
9.15552
-0.144251
10.7654
-0.184404
12.6357
-0.223453
14.7317
-0.262753
17.0318
-0.306858
19.4411
-0.376654
21.7905
-0.492493
20.2428
-0.637594
15.7457
-0.7985
12.3448
-0.969371
9.71806
-1.1587
7.67135
-1.31442
5.98546
-1.27031
4.29379
-1.36283
2.78216
-1.68822
2.1542
1.8451
-1.95391
0.00114436
3.87438
-0.0216514
6.49034
-0.0607017
7.77488
-0.0924289
9.18725
-0.135771
10.8088
-0.170369
12.6703
-0.211023
14.7723
-0.252098
17.0729
-0.300267
19.4892
-0.377619
21.8679
-0.503415
20.3686
-0.663477
15.9058
-0.85409
12.5354
-1.06498
9.92895
-1.25478
7.86114
-1.34513
6.07581
-1.31265
4.26131
-1.5435
3.01301
-1.87091
2.48161
2.06407
-2.08989
-0.0050028
3.87938
-0.0268009
6.51214
-0.0577817
7.80586
-0.090955
9.22043
-0.126319
10.8441
-0.164843
12.7088
-0.205746
14.8132
-0.247735
17.1149
-0.299016
19.5405
-0.383269
21.9522
-0.517835
20.5032
-0.689001
16.0769
-0.895047
12.7414
-1.11413
10.148
-1.30931
8.05632
-1.45727
6.22377
-1.61081
4.41484
-1.89716
3.29936
-2.18378
2.76823
2.21275
-2.33246
-0.00458625
3.88397
-0.0248337
6.53239
-0.0524896
7.83351
-0.0871645
9.2551
-0.121654
10.8786
-0.165976
12.7531
-0.205823
14.8531
-0.24929
17.1584
-0.303266
19.5945
-0.394114
22.043
-0.53642
20.6455
-0.715075
16.2556
-0.930876
12.9572
-1.17418
10.3913
-1.39141
8.27354
-1.48465
6.31701
-1.63132
4.56151
-1.93346
3.6015
-2.18321
3.01799
2.41116
-2.38162
0.00516569
3.8788
-0.0239244
6.56148
-0.0587176
7.86831
-0.0936193
9.29
-0.128202
10.9132
-0.167137
12.792
-0.205972
14.8919
-0.249982
17.2024
-0.306285
19.6508
-0.4033
22.14
-0.552803
20.795
-0.734241
16.437
-0.943136
13.1661
-1.18127
10.6295
-1.40554
8.49781
-1.5397
6.45117
-1.82668
4.8485
-2.31329
4.08811
-2.69052
3.39521
2.70887
-2.98823
0.0140898
3.86471
-0.0131742
6.58874
-0.0505213
7.90566
-0.0922286
9.33171
-0.131493
10.9525
-0.166868
12.8274
-0.20685
14.9319
-0.250643
17.2462
-0.309161
19.7093
-0.411021
22.2419
-0.569454
20.9534
-0.753618
16.6212
-0.948482
13.361
-1.17395
10.8549
-1.42379
8.74764
-1.66032
6.6877
-1.94724
5.13542
-2.38297
4.52384
-2.87147
3.88371
2.91045
-3.07305
0.000411254
3.8643
-0.0245046
6.61366
-0.0537637
7.93491
-0.0895471
9.36749
-0.128344
10.9913
-0.166807
12.8659
-0.206207
14.9713
-0.25019
17.2902
-0.310036
19.7692
-0.414549
22.3464
-0.575188
21.1141
-0.757459
16.8035
-0.95368
13.5572
-1.15508
11.0563
-1.35402
8.94658
-1.60338
6.93707
-2.12332
5.65536
-2.51419
4.91471
-3.00378
4.37331
3.64809
-3.74142
0.0129167
3.85138
-0.0067254
6.6333
-0.0409644
7.96915
-0.0854503
9.41198
-0.125855
11.0317
-0.165124
12.9052
-0.20282
15.009
-0.246427
17.3338
-0.30517
19.8279
-0.405748
22.447
-0.55225
21.2606
-0.719239
16.9704
-0.901039
13.739
-1.08452
11.2398
-1.2262
9.08826
-1.47185
7.18271
-1.84479
6.0283
-2.01912
5.08904
-1.46906
3.82326
2.17902
0.0141338
3.83725
-0.0116885
6.65912
-0.0484276
8.00589
-0.0879217
9.45147
-0.12668
11.0704
-0.165228
12.9437
-0.204824
15.0486
-0.25112
17.3801
-0.313864
19.8906
-0.418507
22.5516
-0.563427
21.4055
-0.728244
17.1353
-0.902762
13.9135
-1.05602
11.3931
-1.13817
9.17041
-1.22759
7.27213
-1.20499
6.0057
-1.06066
4.9447
-0.728915
3.49152
1.45011
0.0205296
3.81672
0.00338982
6.67626
-0.0299013
8.03918
-0.075031
9.4966
-0.119437
11.1148
-0.160019
12.9843
-0.202646
15.0912
-0.251276
17.4287
-0.316474
19.9558
-0.422639
22.6578
-0.56603
21.5489
-0.722096
17.2913
-0.875677
14.0671
-0.976828
11.4942
-1.01621
9.20979
-1.03341
7.28933
-1.06574
6.03803
-1.03045
4.90941
-0.823951
3.28502
0.626156
0.0160327
3.80069
-0.004092
6.69639
-0.0387703
8.07386
-0.0737673
9.5316
-0.113689
11.1548
-0.153104
13.0237
-0.19637
15.1345
-0.246331
17.4787
-0.312122
20.0216
-0.417386
22.763
-0.554278
21.6858
-0.691496
17.4286
-0.809797
14.1854
-0.86176
11.5462
-0.913514
9.26155
-0.945765
7.32158
-0.985977
6.07824
-0.900099
4.82353
-0.401982
2.78691
0.224174
0.0320678
3.76862
0.0203251
6.70813
-0.0101778
8.10437
-0.0594967
9.58092
-0.102365
11.1976
-0.1412
13.0625
-0.185285
15.1786
-0.235376
17.5287
-0.30027
20.0865
-0.401423
22.8642
-0.526683
21.811
-0.637045
17.5389
-0.71322
14.2616
-0.779125
11.6121
-0.80585
9.28827
-0.850618
7.36635
-0.83439
6.06201
-0.614366
4.6035
-0.172217
2.34476
0.0519568
0.0266603
3.74196
0.00985122
6.72494
-0.0209649
8.13518
-0.0545742
9.61453
-0.089783
11.2328
-0.125265
13.098
-0.168401
15.2217
-0.216474
17.5768
-0.278431
20.1485
-0.372184
22.9579
-0.479877
21.9187
-0.562114
17.6211
-0.620288
14.3198
-0.673329
11.6651
-0.681127
9.29607
-0.700475
7.3857
-0.626986
5.98852
-0.448685
4.4252
-0.157312
2.05339
-0.105355
0.0423244
3.69964
0.0392269
6.72804
0.0122008
8.16221
-0.0312053
9.65793
-0.0666851
11.2683
-0.102532
13.1339
-0.144513
15.2637
-0.18913
17.6214
-0.246649
20.206
-0.329868
23.0412
-0.416182
22.005
-0.478331
17.6833
-0.525056
14.3665
-0.548266
11.6884
-0.535493
9.2833
-0.510602
7.36081
-0.434957
5.91288
-0.303139
4.29338
-0.0712475
1.82149
-0.176603
0.0429657
3.65667
0.0346164
6.73639
0.0107435
8.18608
-0.021811
9.69049
-0.0423668
11.2889
-0.0746844
13.1662
-0.111526
15.3005
-0.151218
17.6611
-0.20194
20.2567
-0.272878
23.1121
-0.340939
22.0731
-0.385594
17.728
-0.40603
14.3869
-0.387724
11.6701
-0.356472
9.25204
-0.308354
7.31269
-0.232256
5.83678
-0.122185
4.18331
0.0108983
1.68841
-0.165705
0.0594455
3.59722
0.069516
6.72632
0.051147
8.20445
0.0220628
9.71957
-0.000893537
11.3118
-0.038972
13.2043
-0.0677613
15.3293
-0.10227
17.6956
-0.145236
20.2997
-0.202896
23.1698
-0.251336
22.1215
-0.276816
17.7534
-0.269689
14.3798
-0.22273
11.6231
-0.155548
9.18486
-0.0661186
7.22326
0.00234529
5.76832
0.0827688
4.10289
0.0706859
1.70049
-0.0950188
0.0677908
3.52943
0.075656
6.71845
0.0642779
8.21583
0.0490217
9.73483
0.0306054
11.3302
0.00551402
13.2294
-0.00951088
15.3443
-0.038906
17.725
-0.0738378
20.3346
-0.117486
23.2134
-0.145867
22.1499
-0.148116
17.7557
-0.114083
14.3458
-0.0502174
11.5592
0.0407367
9.09391
0.137445
7.12655
0.24124
5.66452
0.279352
4.06478
0.14339
1.83645
0.0483715
0.0862106
3.44322
0.122787
6.68188
0.124768
8.21385
0.106874
9.75272
0.0894035
11.3477
0.0807707
13.238
0.065425
15.3597
0.0437803
17.7467
0.011654
20.3667
-0.0212278
23.2463
-0.028275
22.157
-0.00397753
17.7314
0.0542064
14.2876
0.136384
11.477
0.215643
9.01465
0.303618
7.03858
0.388921
5.57922
0.415448
4.03825
0.20812
2.04378
0.256491
0.109263
3.33396
0.150717
6.64042
0.158949
8.20561
0.160845
9.75083
0.167596
11.341
0.167528
13.2381
0.162549
15.3647
0.15347
17.7558
0.136184
20.384
0.113212
23.2693
0.112896
22.1573
0.147147
17.6971
0.2094
14.2253
0.281292
11.4052
0.341311
8.95463
0.40157
6.97832
0.465467
5.51532
0.462256
4.04146
0.260189
2.24585
0.51668
0.135156
3.1988
0.210948
6.56463
0.240039
8.17652
0.251036
9.73983
0.262041
11.33
0.270496
13.2296
0.277081
15.3581
0.281051
17.7518
0.275233
20.3899
0.261283
23.2832
0.265509
22.1531
0.295554
17.6671
0.339267
14.1816
0.378707
11.3657
0.402572
8.93076
0.434431
6.94646
0.464862
5.48489
0.441393
4.06493
0.259259
2.42798
0.775938
0.182606
3.0162
0.281405
6.46583
0.326831
8.1311
0.36042
9.70624
0.388698
11.3017
0.410136
13.2082
0.429777
15.3384
0.442442
17.7391
0.443198
20.3891
0.431039
23.2954
0.42714
22.157
0.4291
17.6651
0.428321
14.1824
0.426152
11.3679
0.422408
8.93451
0.43326
6.93561
0.442066
5.47609
0.400246
4.10675
0.230712
2.59752
1.00665
0.228845
2.78735
0.376577
6.3181
0.447851
8.05982
0.496614
9.65748
0.53152
11.2668
0.568263
13.1714
0.604397
15.3023
0.629256
17.7143
0.638638
20.3797
0.624138
23.3099
0.59619
22.1849
0.558283
17.703
0.524745
14.2159
0.50413
11.3885
0.478314
8.96032
0.449508
6.96442
0.414491
5.5111
0.339016
4.18223
0.178871
2.75766
1.18552
0.322073
2.46528
0.525939
6.11423
0.62925
7.95651
0.697688
9.58904
0.742074
11.2224
0.789234
13.1243
0.835873
15.2557
0.869692
17.6804
0.881258
20.3681
0.855905
23.3352
0.798129
22.2427
0.738453
17.7627
0.687437
14.267
0.630689
11.4452
0.544042
9.04697
0.451724
7.05673
0.372984
5.58984
0.279091
4.27612
0.135395
2.90136
1.32092
0.430223
2.03506
0.718941
5.82552
0.842207
7.83325
0.922816
9.50843
0.97737
11.1678
1.04351
13.0581
1.10811
15.1911
1.15754
17.631
1.17752
20.3482
1.15002
23.3627
1.08149
22.3112
1.00205
17.8422
0.906828
14.3622
0.788056
11.564
0.64766
9.18737
0.515029
7.18936
0.415777
5.6891
0.304063
4.38783
0.145616
3.05981
1.46653
0.671605
1.36345
0.999322
5.4978
1.14362
7.68895
1.24193
9.41012
1.31106
11.0987
1.39011
12.9791
1.46909
15.1121
1.53317
17.5669
1.56514
20.3162
1.54534
23.3825
1.46397
22.3926
1.33831
17.9678
1.18343
14.5171
1.00365
11.7438
0.806388
9.38463
0.620087
7.37566
0.479609
5.82957
0.337783
4.52966
0.162902
3.23469
1.62943
0.7882
0.575251
1.32898
4.95702
1.53339
7.48454
1.64506
9.29845
1.72385
11.0199
1.8203
12.8826
1.92256
15.0098
2.00946
17.48
2.06285
20.2628
2.053
23.3924
1.95156
22.494
1.79053
18.1288
1.60624
14.7013
1.40281
11.9472
1.15558
9.63185
0.899491
7.63175
0.688262
6.0408
0.472131
4.74579
0.224858
3.48196
1.85429
0.645935
-0.0706835
1.53835
4.06461
1.9003
7.12259
2.09095
9.10779
2.23745
10.8734
2.36272
12.7573
2.49907
14.8735
2.62607
17.353
2.71745
20.1714
2.73021
23.3796
2.63127
22.593
2.46082
18.2993
2.24907
14.9131
2.01238
12.1839
1.72292
9.92132
1.36428
7.99039
1.0149
6.39018
0.667885
5.09281
0.306897
3.84295
2.16119
0.485458
-0.556141
1.33901
3.21106
1.81783
6.64377
2.04803
8.8776
2.1944
10.727
2.277
12.6747
2.3529
14.7976
2.3956
17.3103
2.37717
20.1899
2.26568
23.4911
2.07928
22.7794
1.87555
18.503
1.65657
15.1321
1.42738
12.4131
1.19755
10.1512
0.959494
8.22845
0.718693
6.63098
0.481188
5.33031
0.227087
4.09705
2.38828
-0.027869
-0.528272
0.328893
2.8543
0.783847
6.18882
1.09766
8.56379
1.33839
10.4863
1.51458
12.4986
1.66521
14.6469
1.78088
17.1947
1.82985
20.1409
1.77955
23.5414
1.63846
22.9205
1.46686
18.6746
1.28892
15.31
1.10904
12.593
0.92477
10.3354
0.719968
8.43325
0.52664
6.82431
0.336517
5.52043
0.146093
4.28747
2.53437
-0.304075
-0.224197
-0.360309
2.91053
-0.123222
5.95173
0.227621
8.21294
0.556935
10.157
0.84508
12.2104
1.06789
14.4241
1.2408
17.0218
1.34294
20.0387
1.35538
23.529
1.26375
23.0121
1.13575
18.8026
0.996092
15.4497
0.848538
12.7405
0.708128
10.4758
0.551921
8.58946
0.39344
6.98279
0.238333
5.67554
0.0886112
4.43719
2.62298
-0.313481
0.0892832
-0.540296
3.13734
-0.476812
5.88825
-0.243407
7.97954
0.045852
9.86773
0.331564
11.9247
0.591232
14.1644
0.799312
16.8137
0.939912
19.8981
0.994993
23.4739
0.954938
23.0521
0.867359
18.8902
0.76328
15.5538
0.647762
12.8561
0.543115
10.5805
0.424819
8.70775
0.299933
7.10768
0.177797
5.79768
0.0582826
4.55671
2.68126
-0.382948
0.472232
-0.525854
3.28025
-0.486755
5.84915
-0.368804
7.86159
-0.190309
9.68924
0.0426618
11.6917
0.273441
13.9337
0.475945
16.6112
0.632538
19.7415
0.71606
23.3904
0.710415
23.0578
0.654002
18.9466
0.580283
15.6275
0.493803
12.9425
0.414834
10.6595
0.325382
8.7972
0.223463
7.2096
0.116303
5.90484
0.011178
4.66183
2.69244
-0.316336
0.788568
-0.483313
3.44723
-0.436017
5.80185
-0.33033
7.7559
-0.208315
9.56722
-0.063477
11.5469
0.102801
13.7674
0.268436
16.4455
0.415991
19.594
0.506424
23.2999
0.522236
23.042
0.488738
18.9801
0.439754
15.6765
0.377576
13.0047
0.313996
10.723
0.23979
8.87141
0.149654
7.29973
0.0554413
5.99905
-0.0216451
4.73892
2.6708
-0.258596
1.04716
-0.405771
3.5944
-0.384122
5.7802
-0.292976
7.66475
-0.182265
9.45651
-0.0748465
11.4395
0.0391964
13.6533
0.166084
16.3187
0.276196
19.4839
0.355795
23.2203
0.381845
23.0159
0.363325
18.9986
0.330855
15.7089
0.281642
13.0539
0.22501
10.7797
0.161554
8.93487
0.0819889
7.3793
0.00212784
6.07891
-0.0514385
4.79249
2.61936
-0.20181
1.24897
-0.3289
3.72149
-0.342828
5.79413
-0.269901
7.59183
-0.168606
9.35522
-0.0732599
11.3441
0.0188633
13.5612
0.114272
16.2233
0.191625
19.4065
0.254687
23.1573
0.280829
22.9898
0.267973
19.0115
0.242898
15.734
0.202722
13.0941
0.149362
10.833
0.094698
8.98953
0.0309056
7.44309
-0.0323669
6.14218
-0.0655314
4.82565
2.55383
-0.144317
1.39329
-0.247701
3.82488
-0.273733
5.82017
-0.238347
7.55644
-0.174052
9.29092