/*--------------------------------*- C++ -*----------------------------------*\
| =========                 |                                                 |
| \\      /  F ield         | OpenFOAM: The Open Source CFD Toolbox           |
|  \\    /   O peration     | Version:  2412                                  |
|   \\  /    A nd           | Website:  www.openfoam.com                      |
|    \\/     M anipulation  |                                                 |
\*---------------------------------------------------------------------------*/
FoamFile
{
    version     2.0;
    format      ascii;
    arch        "LSB;label=32;scalar=64";
    class       volVectorField;
    location    "5.5";
    object      U;
}
// * * * * * * * * * * * * * * * * * * * * * * * * * * * * * * * * * * * * * //

dimensions      [0 1 -1 0 0 0 0];

internalField   nonuniform List<vector> 
2200
(
(0.375798 -0.000436143 0)
(1.19317 -0.00032766 0)
(2.1226 0.000926277 0)
(3.16862 0.00116166 0)
(4.32568 0.00180538 0)
(5.57147 0.0028513 0)
(6.86361 0.00334251 0)
(8.12062 0.00358657 0)
(9.20636 0.00410817 0)
(9.90088 0.00411181 0)
(9.90087 0.00365572 0)
(9.20672 0.00332839 0)
(8.1213 0.00302665 0)
(6.86376 0.0027246 0)
(5.57171 0.00223517 0)
(4.32509 0.00200523 0)
(3.16816 0.00155319 0)
(2.12222 0.00143934 0)
(1.19222 0.00163997 0)
(0.373604 0.00126098 0)
(0.377957 0.0015927 0)
(1.19303 0.000897427 0)
(2.12398 0.00241727 0)
(3.1698 0.00395077 0)
(4.32633 0.00625901 0)
(5.57463 0.00800954 0)
(6.86547 0.00994919 0)
(8.12193 0.0119385 0)
(9.20746 0.0125253 0)
(9.90024 0.0127438 0)
(9.89975 0.0122702 0)
(9.20537 0.0109203 0)
(8.11892 0.00899825 0)
(6.86245 0.00749426 0)
(5.57019 0.00597739 0)
(4.32312 0.00462051 0)
(3.16553 0.00349089 0)
(2.11751 0.00221488 0)
(1.18518 0.00257841 0)
(0.370463 -0.00114738 0)
(0.384854 0.00396962 0)
(1.19519 0.00284034 0)
(2.12776 0.00548696 0)
(3.17415 0.00823714 0)
(4.33028 0.0117879 0)
(5.57506 0.0142269 0)
(6.86616 0.0174615 0)
(8.12204 0.0189978 0)
(9.2076 0.0211814 0)
(9.89838 0.0209567 0)
(9.89796 0.0183943 0)
(9.20224 0.0159527 0)
(8.11612 0.0136045 0)
(6.85746 0.0110674 0)
(5.56454 0.00875971 0)
(4.31788 0.00646261 0)
(3.16048 0.00435241 0)
(2.11211 0.00198743 0)
(1.17813 0.000843264 0)
(0.371124 -0.00332299 0)
(0.401753 0.00586655 0)
(1.20145 0.00617294 0)
(2.13531 0.0114583 0)
(3.1815 0.013882 0)
(4.33644 0.0175419 0)
(5.57965 0.0226744 0)
(6.86997 0.0243957 0)
(8.12387 0.0271445 0)
(9.20829 0.0291211 0)
(9.89617 0.0288341 0)
(9.89453 0.0262619 0)
(9.19749 0.0226857 0)
(8.10919 0.0187713 0)
(6.85248 0.013882 0)
(5.56054 0.00889316 0)
(4.31385 0.00567775 0)
(3.1562 0.00380773 0)
(2.1073 0.000956 0)
(1.17138 -0.000145401 0)
(0.378225 -0.00396578 0)
(0.431395 0.0055541 0)
(1.21464 0.0111063 0)
(2.1513 0.0163077 0)
(3.19747 0.0228259 0)
(4.34809 0.0287294 0)
(5.58921 0.0304602 0)
(6.87546 0.0329896 0)
(8.12527 0.035625 0)
(9.20918 0.0375607 0)
(9.89238 0.0364968 0)
(9.89015 0.0325169 0)
(9.19194 0.0270636 0)
(8.10499 0.0205327 0)
(6.84716 0.0145662 0)
(5.55506 0.00840897 0)
(4.3089 0.00234988 0)
(3.15322 -0.00018431 0)
(2.10583 -0.000579022 0)
(1.16677 -0.00406613 0)
(0.390303 -0.00302393 0)
(0.464574 0.00248481 0)
(1.23431 0.0169384 0)
(2.17679 0.019406 0)
(3.21705 0.0316454 0)
(4.3649 0.0394183 0)
(5.60258 0.0409508 0)
(6.88398 0.0443083 0)
(8.13251 0.0462849 0)
(9.21337 0.047046 0)
(9.88995 0.0450021 0)
(9.88585 0.0388762 0)
(9.18654 0.031802 0)
(8.09679 0.0238943 0)
(6.8391 0.0142881 0)
(5.54938 0.00633737 0)
(4.30461 7.66526e-05 0)
(3.14985 -0.00391714 0)
(2.10503 -0.00346138 0)
(1.16787 -0.00957682 0)
(0.409055 -0.000400303 0)
(0.500286 8.30122e-05 0)
(1.27678 0.0227669 0)
(2.20092 0.0227508 0)
(3.23257 0.0368031 0)
(4.38173 0.0417918 0)
(5.61667 0.0506026 0)
(6.89399 0.054868 0)
(8.13707 0.054735 0)
(9.21665 0.0558795 0)
(9.88734 0.0531954 0)
(9.88219 0.0456637 0)
(9.1793 0.0361649 0)
(8.09072 0.0249274 0)
(6.83326 0.0134416 0)
(5.54235 0.00391904 0)
(4.29705 2.65393e-05 0)
(3.14066 -0.00586012 0)
(2.10046 -0.00652172 0)
(1.17933 -0.0131712 0)
(0.42428 0.00247463 0)
(0.540579 0.00146835 0)
(1.33201 0.0272664 0)
(2.21286 0.0307177 0)
(3.24323 0.0390447 0)
(4.39904 0.0462395 0)
(5.63244 0.0588959 0)
(6.90911 0.0643064 0)
(8.1494 0.0674558 0)
(9.2233 0.0683029 0)
(9.88332 0.0628179 0)
(9.87524 0.0521839 0)
(9.17223 0.04013 0)
(8.08209 0.0272099 0)
(6.82448 0.0138542 0)
(5.53241 0.00450129 0)
(4.28739 0.000158963 0)
(3.12882 -0.00794149 0)
(2.08878 -0.0116848 0)
(1.21049 -0.017215 0)
(0.442376 0.00177128 0)
(0.592405 0.0042262 0)
(1.39841 0.0292213 0)
(2.21996 0.0387185 0)
(3.26496 0.0419006 0)
(4.41078 0.0495681 0)
(5.64123 0.0643928 0)
(6.91826 0.0713678 0)
(8.15525 0.076532 0)
(9.23064 0.0792784 0)
(9.88249 0.0730625 0)
(9.87174 0.0596769 0)
(9.16475 0.0445875 0)
(8.07202 0.0293407 0)
(6.81038 0.0179094 0)
(5.51352 0.00898308 0)
(4.26741 0.0012496 0)
(3.11203 -0.0055028 0)
(2.05922 -0.0154209 0)
(1.24701 -0.0181194 0)
(0.4691 -0.000903229 0)
(0.648222 0.00664048 0)
(1.46459 0.0281582 0)
(2.23131 0.0480527 0)
(3.28648 0.041971 0)
(4.42423 0.0584755 0)
(5.65283 0.0669426 0)
(6.92582 0.0762802 0)
(8.15938 0.0872106 0)
(9.23263 0.0914382 0)
(9.87425 0.0844968 0)
(9.8607 0.0685445 0)
(9.14841 0.0507278 0)
(8.05231 0.0354785 0)
(6.78905 0.0249495 0)
(5.4937 0.0129094 0)
(4.24838 0.00231955 0)
(3.09884 -0.00335444 0)
(2.02995 -0.0173693 0)
(1.28586 -0.0144279 0)
(0.498159 -0.00252157 0)
(0.714357 0.00752658 0)
(1.54933 0.0274799 0)
(2.25132 0.052359 0)
(3.32189 0.0478827 0)
(4.44002 0.0674051 0)
(5.66441 0.074261 0)
(6.93066 0.0850635 0)
(8.15961 0.0955208 0)
(9.23263 0.101678 0)
(9.86365 0.0959598 0)
(9.84702 0.078955 0)
(9.13105 0.060356 0)
(8.02904 0.0420811 0)
(6.7642 0.028965 0)
(5.47472 0.0159813 0)
(4.22714 -0.00273689 0)
(3.08299 -0.000515306 0)
(2.00856 -0.0228001 0)
(1.3202 -0.0109577 0)
(0.523221 -0.0036952 0)
(0.766206 0.00967603 0)
(1.61286 0.0262135 0)
(2.27886 0.0603368 0)
(3.35591 0.0567649 0)
(4.47076 0.0814724 0)
(5.68856 0.0864649 0)
(6.93924 0.0981679 0)
(8.15993 0.108661 0)
(9.22753 0.114923 0)
(9.84498 0.108911 0)
(9.82449 0.0900619 0)
(9.10029 0.0694755 0)
(7.99866 0.0483979 0)
(6.73403 0.0292055 0)
(5.45018 0.0121817 0)
(4.20909 -0.00689616 0)
(3.06996 -0.00254111 0)
(1.99686 -0.0301877 0)
(1.35991 -0.0102484 0)
(0.549957 -0.00495181 0)
(0.852216 0.0111635 0)
(1.72333 0.0325366 0)
(2.33902 0.0740511 0)
(3.39389 0.0741707 0)
(4.51267 0.102082 0)
(5.71607 0.111235 0)
(6.95528 0.124722 0)
(8.1627 0.127919 0)
(9.21862 0.131926 0)
(9.81914 0.124938 0)
(9.79306 0.103978 0)
(9.0682 0.0788397 0)
(7.96642 0.0513032 0)
(6.71158 0.0192616 0)
(5.43374 0.000820505 0)
(4.2031 -0.017687 0)
(3.04646 -0.0132974 0)
(1.99561 -0.0399252 0)
(1.39944 -0.0127008 0)
(0.577736 -0.00608499 0)
(0.91598 0.0152097 0)
(1.80162 0.0364723 0)
(2.39881 0.0920189 0)
(3.42455 0.0962481 0)
(4.57154 0.133354 0)
(5.75423 0.147984 0)
(6.98171 0.156387 0)
(8.17273 0.158323 0)
(9.21316 0.158521 0)
(9.79146 0.144966 0)
(9.75854 0.11671 0)
(9.02807 0.0831835 0)
(7.93173 0.0449681 0)
(6.68272 0.00649212 0)
(5.40198 -0.0143274 0)
(4.19067 -0.0304662 0)
(3.01719 -0.0353917 0)
(2.01471 -0.0546829 0)
(1.4597 -0.0181828 0)
(0.621664 -0.00755898 0)
(1.05636 0.0167657 0)
(1.96175 0.0497816 0)
(2.50974 0.112707 0)
(3.47256 0.125069 0)
(4.61311 0.152503 0)
(5.77606 0.177068 0)
(6.99905 0.190311 0)
(8.18071 0.195089 0)
(9.21085 0.191483 0)
(9.76399 0.171351 0)
(9.72601 0.132103 0)
(8.99313 0.0867348 0)
(7.89723 0.0387804 0)
(6.64752 -0.000126006 0)
(5.36939 -0.0286279 0)
(4.17058 -0.0431786 0)
(2.98638 -0.0540838 0)
(2.0514 -0.061804 0)
(1.52614 -0.0205919 0)
(0.670826 -0.00870414 0)
(1.14877 0.0176516 0)
(2.07973 0.0464615 0)
(2.61538 0.117214 0)
(3.53356 0.148506 0)
(4.67723 0.176322 0)
(5.8153 0.209893 0)
(7.03006 0.222218 0)
(8.19749 0.231075 0)
(9.21426 0.22893 0)
(9.74102 0.200536 0)
(9.69394 0.149578 0)
(8.95163 0.0916417 0)
(7.85042 0.0356524 0)
(6.60134 -0.000142621 0)
(5.32616 -0.0314733 0)
(4.14235 -0.0466641 0)
(2.97229 -0.0691668 0)
(2.10796 -0.0691205 0)
(1.61661 -0.0240395 0)
(0.738705 -0.00870762 0)
(1.32511 0.0223052 0)
(2.27363 0.06299 0)
(2.76221 0.136225 0)
(3.61763 0.172914 0)
(4.73709 0.200568 0)
(5.85832 0.228368 0)
(7.05718 0.251533 0)
(8.21268 0.272158 0)
(9.21576 0.267789 0)
(9.71419 0.235947 0)
(9.66095 0.172719 0)
(8.91212 0.106062 0)
(7.80512 0.0433064 0)
(6.55339 0.00616713 0)
(5.29036 -0.0322334 0)
(4.10754 -0.0578599 0)
(2.95942 -0.0752945 0)
(2.1625 -0.0673192 0)
(1.69912 -0.021964 0)
(0.792564 -0.00769922 0)
(1.45711 0.0190103 0)
(2.43558 0.0580855 0)
(2.91405 0.140614 0)
(3.7127 0.193376 0)
(4.81213 0.23257 0)
(5.92206 0.261505 0)
(7.08973 0.287332 0)
(8.23119 0.309676 0)
(9.21577 0.308631 0)
(9.68538 0.274265 0)
(9.6182 0.200251 0)
(8.85133 0.12499 0)
(7.73247 0.0582337 0)
(6.48409 0.00935364 0)
(5.24491 -0.0318915 0)
(4.06189 -0.0680371 0)
(2.95645 -0.0844385 0)
(2.2328 -0.0753465 0)
(1.80298 -0.0260436 0)
(0.863239 -0.00669055 0)
(1.64277 0.0282175 0)
(2.65524 0.0747655 0)
(3.08981 0.164062 0)
(3.83145 0.218121 0)
(4.8879 0.273514 0)
(5.98857 0.305946 0)
(7.11686 0.332714 0)
(8.2405 0.35095 0)
(9.19069 0.350484 0)
(9.62273 0.318917 0)
(9.54303 0.239864 0)
(8.76315 0.161503 0)
(7.64896 0.0829759 0)
(6.41348 0.00727394 0)
(5.19735 -0.0389811 0)
(4.00662 -0.081336 0)
(2.95855 -0.088936 0)
(2.31061 -0.0755015 0)
(1.90204 -0.0227794 0)
(0.918654 -0.00511821 0)
(1.85266 0.0242707 0)
(2.87552 0.0780565 0)
(3.30004 0.175564 0)
(3.97895 0.24885 0)
(4.99223 0.3149 0)
(6.08044 0.358603 0)
(7.16151 0.402028 0)
(8.25287 0.413799 0)
(9.15318 0.411112 0)
(9.53407 0.374899 0)
(9.43655 0.284106 0)
(8.64759 0.189581 0)
(7.53664 0.0925755 0)
(6.31338 -0.00244864 0)
(5.13298 -0.044447 0)
(3.95506 -0.0973114 0)
(2.97714 -0.098418 0)
(2.39789 -0.07765 0)
(2.01674 -0.0256004 0)
(0.979883 -0.000463519 0)
(2.04288 0.0342453 0)
(3.13228 0.0873629 0)
(3.51986 0.202288 0)
(4.15163 0.276264 0)
(5.10502 0.361919 0)
(6.16901 0.416577 0)
(7.21033 0.476945 0)
(8.28112 0.497202 0)
(9.12256 0.497149 0)
(9.44804 0.445139 0)
(9.33223 0.329516 0)
(8.54317 0.211539 0)
(7.43793 0.101754 0)
(6.23226 0.00287549 0)
(5.07082 -0.0516239 0)
(3.91245 -0.109385 0)
(3.01404 -0.103749 0)
(2.50262 -0.0817162 0)
(2.13282 -0.0175526 0)
(1.02104 0.00358358 0)
(2.35269 0.0304209 0)
(3.42025 0.10334 0)
(3.79781 0.215685 0)
(4.36715 0.318654 0)
(5.26986 0.419971 0)
(6.29845 0.483152 0)
(7.29541 0.55799 0)
(8.34103 0.5937 0)
(9.11404 0.593996 0)
(9.38948 0.533696 0)
(9.25461 0.381449 0)
(8.44721 0.242215 0)
(7.32014 0.116096 0)
(6.11654 0.0112679 0)
(4.97248 -0.0468104 0)
(3.8668 -0.111868 0)
(3.04639 -0.0978689 0)
(2.61356 -0.0667635 0)
(2.27075 -0.0166933 0)
(1.03277 0.0157658 0)
(2.55995 0.0434615 0)
(3.7373 0.104066 0)
(4.0772 0.248708 0)
(4.60179 0.353656 0)
(5.44021 0.475602 0)
(6.42438 0.558235 0)
(7.38642 0.643946 0)
(8.38402 0.694823 0)
(9.08631 0.696611 0)
(9.3179 0.623008 0)
(9.15487 0.449753 0)
(8.32139 0.299259 0)
(7.18912 0.161341 0)
(6.01938 0.0487953 0)
(4.88893 -0.0475237 0)
(3.83646 -0.107527 0)
(3.11579 -0.0959516 0)
(2.73 -0.0600263 0)
(2.39042 0.00759422 0)
(1.01062 0.016488 0)
(2.98077 0.0462943 0)
(4.08902 0.140802 0)
(4.42693 0.276886 0)
(4.8911 0.412991 0)
(5.66323 0.563313 0)
(6.58726 0.665523 0)
(7.48974 0.762413 0)
(8.44518 0.823318 0)
(9.02952 0.815797 0)
(9.19055 0.736802 0)
(9.00183 0.533141 0)
(8.1515 0.366647 0)
(7.01846 0.199774 0)
(5.85356 0.0578409 0)
(4.74697 -0.0411311 0)
(3.80449 -0.0956647 0)
(3.1739 -0.0742581 0)
(2.89112 -0.0411676 0)
(2.48432 0.00535188 0)
(0.95759 0.032371 0)
(3.27629 0.0703346 0)
(4.50714 0.155129 0)
(4.78829 0.348585 0)
(5.20241 0.504524 0)
(5.90589 0.684469 0)
(6.76041 0.814461 0)
(7.61326 0.926111 0)
(8.48116 0.993169 0)
(8.93828 0.96893 0)
(9.04422 0.866022 0)
(8.81722 0.621118 0)
(7.96189 0.423823 0)
(6.84931 0.234593 0)
(5.72182 0.0806842 0)
(4.66414 -0.0427242 0)
(3.80292 -0.0852755 0)
(3.27754 -0.0774414 0)
(3.0003 -0.0284016 0)
(2.65734 0.0220374 0)
(0.871275 0.0503094 0)
(3.9364 0.10433 0)
(4.95655 0.251859 0)
(5.21888 0.44986 0)
(5.56449 0.659132 0)
(6.1981 0.864156 -3.81805e-33)
(6.96695 1.02166 1.08477e-33)
(7.77906 1.14717 0)
(8.5105 1.20248 0)
(8.84425 1.15569 0)
(8.90293 1.00715 0)
(8.61905 0.72162 0)
(7.75395 0.485693 0)
(6.6524 0.273742 0)
(5.51099 0.0804349 0)
(4.49421 -0.0237972 0)
(3.77394 -0.0614638 0)
(3.32771 -0.0177082 0)
(3.13661 0.0206528 0)
(2.70277 0.0799943 0)
(0.611694 0.0481333 0)
(4.6081 0.257297 -5.97575e-19)
(5.46724 0.377855 5.06775e-19)
(5.64114 0.680203 0)
(5.93803 0.890103 -2.36308e-19)
(6.49513 1.10933 1.90785e-19)
(7.18707 1.27612 -1.15038e-33)
(7.93044 1.40257 0)
(8.50105 1.42977 6.40126e-20)
(8.72614 1.36606 -3.2736e-19)
(8.72769 1.17874 8.38281e-20)
(8.36457 0.85343 0)
(7.49131 0.584681 -4.20013e-19)
(6.39469 0.324355 -5.07892e-19)
(5.31309 0.114622 8.77903e-19)
(4.43849 0.0294528 -7.04306e-19)
(3.8579 -0.00266584 0)
(3.52727 0.0466165 -2.79455e-19)
(3.31517 0.0884724 0)
(2.69362 0.0966012 -1.42518e-18)
(0.392063 0.0452738 1.72641e-18)
(5.03228 0.49466 6.47887e-21)
(5.87982 0.662578 -2.48686e-18)
(6.00737 0.958256 4.43659e-19)
(6.23699 1.16657 1.19518e-18)
(6.72272 1.38502 4.01546e-19)
(7.33168 1.55655 -6.09975e-19)
(8.00126 1.67985 0)
(8.4228 1.68328 0)
(8.56322 1.61119 6.01668e-19)
(8.49832 1.4026 0)
(8.06153 1.04274 1.51931e-18)
(7.19157 0.738885 4.58938e-19)
(6.11253 0.418796 -3.40472e-20)
(5.11643 0.193432 -1.11464e-18)
(4.38087 0.121442 0)
(3.92561 0.111057 0)
(3.69357 0.165897 -4.91339e-18)
(3.55977 0.225099 1.2337e-17)
(2.88668 0.207739 -7.31361e-18)
(0.470833 0.0543323 -8.66234e-18)
(5.35373 0.785829 2.61011e-18)
(6.25109 1.07207 -9.80222e-19)
(6.32391 1.30722 -3.14784e-19)
(6.49048 1.47785 -2.19333e-18)
(6.89994 1.68091 3.57853e-19)
(7.42238 1.86121 1.6355e-18)
(7.998 1.97047 -3.7797e-19)
(8.30034 1.96267 0)
(8.37646 1.87138 -1.44671e-18)
(8.24457 1.64834 2.14254e-18)
(7.75724 1.2548 -4.25248e-18)
(6.89762 0.910139 2.14918e-18)
(5.88073 0.556134 -1.62747e-18)
(5.06911 0.382294 3.49723e-18)
(4.5141 0.315578 0)
(4.16887 0.369514 -1.3492e-18)
(3.98549 0.437368 0)
(3.74568 0.457544 7.46957e-18)
(2.93437 0.342886 -1.76655e-17)
(0.615896 0.114293 1.11172e-17)
(5.58677 1.08288 -1.10805e-17)
(6.5243 1.4983 5.93213e-18)
(6.58245 1.68938 9.64602e-19)
(6.70374 1.81585 0)
(7.02723 2.01283 1.35033e-18)
(7.47454 2.18217 -1.53534e-18)
(7.95229 2.27967 2.79968e-19)
(8.16205 2.26187 0)
(8.18052 2.1484 1.06625e-18)
(7.99024 1.90623 -1.45751e-18)
(7.46927 1.48274 4.11853e-18)
(6.634 1.1022 0)
(5.70912 0.755211 -3.5172e-18)
(4.99803 0.59583 1.91375e-18)
(4.49845 0.538106 5.12297e-18)
(4.2361 0.551389 -4.53214e-18)
(4.06966 0.604791 7.33924e-18)
(3.88071 0.653437 -1.62535e-17)
(3.16685 0.52088 1.03046e-17)
(0.883466 0.206362 -1.29709e-17)
(5.75458 1.371 6.346e-18)
(6.76178 1.93332 -6.50875e-18)
(6.80106 2.05442 3.06311e-18)
(6.85352 2.17296 -4.47061e-18)
(7.11629 2.34725 3.23925e-18)
(7.48505 2.50722 -6.11366e-19)
(7.86822 2.59606 4.50581e-20)
(8.00342 2.57199 -4.70087e-19)
(7.98091 2.43421 -1.29518e-18)
(7.73872 2.17063 -3.5597e-18)
(7.19085 1.72477 -9.05389e-18)
(6.38263 1.31985 -3.14948e-18)
(5.5546 0.994182 3.44912e-20)
(4.99136 0.867134 -7.18569e-18)
(4.65355 0.861916 -1.87679e-19)
(4.40729 0.894166 6.83172e-18)
(4.24897 0.922369 -2.12774e-18)
(4.01068 0.943545 -1.20393e-18)
(3.21334 0.69924 0)
(1.02313 0.292351 2.88723e-17)
(5.85804 1.65246 0)
(6.91764 2.32992 1.86465e-18)
(6.94599 2.43505 0)
(6.97118 2.52936 -3.34121e-19)
(7.1708 2.68489 -3.72933e-18)
(7.46413 2.83815 1.17669e-18)
(7.75593 2.91154 -3.68644e-19)
(7.83999 2.88014 1.04303e-18)
(7.78038 2.71955 -9.4147e-19)
(7.49521 2.43383 1.33651e-18)
(6.93012 1.97234 4.9724e-18)
(6.17392 1.55427 6.99732e-18)
(5.4595 1.26294 -4.38914e-18)
(4.96278 1.14782 7.9169e-18)
(4.60901 1.11436 -6.3327e-18)
(4.40856 1.09067 0)
(4.28399 1.09567 -1.65143e-17)
(4.08242 1.1099 2.21064e-17)
(3.37864 0.886109 1.69198e-18)
(1.26011 0.415105 -3.13871e-17)
(5.91195 1.90581 -3.90636e-19)
(7.01585 2.7338 -5.08093e-18)
(7.0722 2.78498 -1.51461e-17)
(7.05874 2.86765 8.75549e-18)
(7.19341 3.01963 -2.28616e-18)
(7.41903 3.1684 1.37889e-18)
(7.61829 3.22298 -9.41009e-19)
(7.67246 3.17551 8.20167e-20)
(7.57804 2.99716 -3.12126e-18)
(7.25876 2.69038 -1.01895e-19)
(6.68508 2.22122 -5.65043e-18)
(5.97804 1.80493 -7.65245e-18)
(5.3483 1.54381 4.94012e-18)
(4.94889 1.43712 -2.88923e-18)
(4.71762 1.41782 6.98394e-18)
(4.53834 1.43443 0)
(4.38918 1.41968 -1.03911e-17)
(4.15207 1.41759 1.5372e-17)
(3.43662 1.09291 2.96553e-17)
(1.36654 0.522386 -3.4789e-17)
(5.93185 2.14712 -1.78189e-17)
(7.09434 3.09457 1.21349e-17)
(7.14678 3.09606 9.66099e-18)
(7.10242 3.2044 -9.41568e-18)
(7.19473 3.34964 3.67409e-19)
(7.34907 3.48833 3.23601e-18)
(7.48016 3.5226 1.39985e-19)
(7.50659 3.45925 -6.43749e-19)
(7.38165 3.26469 -2.28091e-18)
(7.0353 2.93794 3.62281e-18)
(6.46126 2.46617 5.29376e-18)
(5.81283 2.05838 1.20111e-17)
(5.27425 1.81369 0)
(4.91559 1.69886 2.05845e-19)
(4.64319 1.64741 -1.94587e-17)
(4.47107 1.61772 4.48635e-18)
(4.34435 1.57774 2.255e-17)
(4.13377 1.5841 -6.55145e-18)
(3.44268 1.28493 1.43724e-17)
(1.40898 0.600677 -1.12073e-18)
(5.93288 2.35324 6.14182e-19)
(7.12008 3.43313 1.11471e-17)
(7.21076 3.39005 7.15672e-18)
(7.13098 3.50191 -1.60801e-17)
(7.16553 3.66071 1.06759e-17)
(7.25817 3.78316 -3.60788e-18)
(7.34234 3.80406 -1.87984e-19)
(7.33933 3.72722 1.24084e-18)
(7.19014 3.51881 3.58826e-18)
(6.82425 3.17588 -5.03937e-18)
(6.25934 2.70515 0)
(5.66316 2.31175 -4.70926e-18)
(5.18349 2.08521 5.40098e-18)
(4.87757 1.97502 7.11714e-18)
(4.68557 1.9164 -4.09726e-18)
(4.54176 1.91184 -1.02151e-17)
(4.40293 1.85456 -3.1001e-18)
(4.1786 1.83311 -6.35883e-20)
(3.4665 1.44187 0)
(1.40594 0.675775 0)
(5.90972 2.54505 -1.10204e-17)
(7.14824 3.77801 0)
(7.24436 3.67858 7.98073e-18)
(7.12031 3.80485 -3.59481e-18)
(7.11091 3.95713 -1.05765e-17)
(7.16122 4.05374 2.98379e-18)
(7.20876 4.064 -2.55182e-19)
(7.1772 3.97679 -5.57821e-19)
(7.00716 3.75773 2.44556e-18)
(6.62805 3.40297 -2.18212e-18)
(6.07878 2.93598 3.01615e-18)
(5.52397 2.55584 1.46444e-17)
(5.09642 2.32886 4.96509e-19)
(4.80591 2.20193 -7.30114e-18)
(4.57017 2.10851 1.39586e-17)
(4.4098 2.08573 1.56543e-19)
(4.28554 1.98802 3.32358e-18)
(4.07892 1.98647 -1.6266e-17)
(3.41305 1.58448 1.6706e-17)
(1.37308 0.717475 -1.84407e-17)
(5.85088 2.75792 -5.81504e-21)
(7.14713 4.05919 0)
(7.26281 3.932 0)
(7.0819 4.0834 3.24989e-18)
(7.0389 4.22322 3.98372e-18)
(7.05973 4.299 -2.23265e-18)
(7.07578 4.3018 1.58764e-18)
(7.01766 4.20552 0)
(6.82954 3.97894 -4.00723e-18)
(6.44275 3.61691 7.46065e-18)
(5.91304 3.15844 9.18302e-18)
(5.3914 2.79221 -5.52543e-18)
(4.99705 2.56732 -6.80372e-18)
(4.7278 2.4445 1.60323e-17)
(4.55751 2.33887 -4.94262e-18)
(4.41761 2.31311 -5.97742e-18)
(4.30339 2.20411 -3.65968e-18)
(4.07649 2.16528 -1.76553e-17)
(3.38264 1.70728 2.41678e-18)
(1.32602 0.757101 1.99563e-17)
(5.80968 2.96045 -4.80075e-18)
(7.13846 4.3542 -6.77308e-18)
(7.23693 4.20227 7.49092e-19)
(7.0224 4.35137 3.8298e-20)
(6.96245 4.46181 1.22215e-18)
(6.95806 4.52235 -5.48587e-18)
(6.94802 4.51636 0)
(6.86512 4.41396 7.274e-19)
(6.65966 4.18252 -5.7225e-19)
(6.26964 3.81698 1.20204e-17)
(5.75641 3.36766 -2.34644e-18)
(5.25829 3.01485 2.51899e-18)
(4.88346 2.78281 0)
(4.6139 2.63163 -8.73296e-18)
(4.41663 2.50115 1.0804e-17)
(4.25083 2.45233 0)
(4.15882 2.33243 -8.03675e-18)
(3.94053 2.27689 2.34719e-17)
(3.29944 1.81268 2.85333e-18)
(1.25423 0.779633 -2.46793e-17)
(5.71459 3.10832 -1.01235e-17)
(7.10161 4.59732 1.2284e-17)
(7.18709 4.4507 0)
(6.95624 4.59245 7.58778e-18)
(6.88314 4.6787 0)
(6.85886 4.72374 5.26354e-18)
(6.82402 4.70955 0)
(6.71587 4.60256 0)
(6.49562 4.36793 -1.52066e-18)
(6.10517 4.00255 -1.16867e-17)
(5.60509 3.56379 -1.7014e-17)
(5.12555 3.22379 3.1275e-18)
(4.76959 2.99036 1.15439e-17)
(4.51939 2.83541 9.73183e-18)
(4.36395 2.70092 -3.45594e-17)
(4.22768 2.62554 -1.43425e-17)
(4.12671 2.48656 8.32525e-18)
(3.8933 2.41858 0)
(3.21309 1.8852 2.46069e-17)
(1.16981 0.790773 -2.66729e-17)
(5.65058 3.29221 1.10184e-17)
(7.04568 4.86354 -1.33024e-17)
(7.1471 4.68355 0)
(6.88981 4.82727 -3.85321e-19)
(6.81054 4.87889 -3.01333e-18)
(6.76628 4.90949 0)
(6.7059 4.88507 -2.40219e-19)
(6.57362 4.77335 9.67908e-19)
(6.34111 4.53658 -2.21295e-18)
(5.95102 4.1743 1.24918e-18)
(5.46103 3.74654 0)
(4.99477 3.4165 1.24556e-17)
(4.64915 3.17709 -5.41549e-21)
(4.39554 2.99813 5.24103e-18)
(4.20965 2.83771 6.37182e-18)
(4.05239 2.75354 0)
(3.95926 2.60396 -1.40993e-17)
(3.74308 2.49402 2.76442e-17)
(3.10394 1.96084 -2.98907e-17)
(1.06529 0.780647 5.7856e-17)
(5.54664 3.42636 0)
(6.98904 5.05406 0)
(7.07481 4.90608 -6.70444e-18)
(6.82879 5.03335 0)
(6.74566 5.06532 0)
(6.67886 5.08102 6.41805e-18)
(6.59252 5.04655 -2.73671e-19)
(6.43767 4.92856 6.19398e-19)
(6.19577 4.68987 -3.16598e-19)
(5.80515 4.33223 0)
(5.32505 3.91721 -2.68317e-18)
(4.87136 3.59793 -1.02975e-17)
(4.53631 3.35749 -1.27916e-17)
(4.29319 3.17574 -5.24714e-18)
(4.13428 3.01364 6.9013e-18)
(4.00458 2.90352 -1.62974e-17)
(3.90001 2.73664 3.02495e-17)
(3.66314 2.61822 5.08605e-19)
(2.97868 2.00012 -2.84538e-17)
(0.939847 0.754108 -3.95453e-18)
(5.48124 3.57595 0)
(6.9418 5.31567 -9.59023e-18)
(7.03713 5.12024 7.64633e-18)
(6.7757 5.24265 0)
(6.68439 5.24386 0)
(6.59755 5.24457 -1.39525e-17)
(6.48642 5.19748 0)
(6.31253 5.07157 0)
(6.06258 4.8305 -4.93e-18)
(5.67061 4.47831 2.28264e-18)
(5.20072 4.07638 -2.21494e-17)
(4.75766 3.76664 0)
(4.42658 3.52449 -1.35358e-17)
(4.17375 3.328 4.38763e-19)
(3.97954 3.14081 -2.15419e-17)
(3.81292 3.01735 8.81683e-18)
(3.71289 2.84075 1.94251e-19)
(3.48905 2.66678 -3.25333e-17)
(2.82733 2.0453 1.5421e-17)
(0.80318 0.704792 4.30885e-18)
(5.39402 3.68952 0)
(6.87759 5.45847 -1.12459e-17)
(6.99055 5.31252 7.88401e-18)
(6.72821 5.42867 1.59109e-17)
(6.62792 5.41311 3.04543e-18)
(6.52038 5.39882 -1.73e-18)
(6.38737 5.33992 1.18398e-18)
(6.19763 5.20492 5.65565e-19)
(5.94049 4.96064 5.28198e-18)
(5.54677 4.61377 1.55658e-17)
(5.08747 4.22531 1.84308e-17)
(4.65272 3.9261 3.40218e-18)
(4.32183 3.68554 1.96781e-17)
(4.06668 3.48967 1.2433e-17)
(3.88696 3.30841 1.55223e-17)
(3.74964 3.16223 -9.55198e-18)
(3.63229 2.9623 -1.18048e-17)
(3.37883 2.76548 1.3923e-17)
(2.66415 2.03713 -8.52278e-18)
(0.627078 0.644957 1.4494e-17)
(5.33964 3.82628 1.64783e-17)
(6.84551 5.66961 1.77979e-17)
(6.93022 5.50208 4.15605e-18)
(6.6734 5.61042 3.10274e-19)
(6.57026 5.57311 -1.08216e-17)
(6.4474 5.54663 4.00382e-18)
(6.29671 5.47525 -1.31948e-18)
(6.09482 5.33078 -2.85616e-19)
(5.83088 5.08256 -6.19141e-18)
(5.43592 4.74082 -1.71864e-17)
(4.9861 4.36486 1.17832e-18)
(4.55605 4.07488 0)
(4.22114 3.83658 0)
(3.94898 3.63357 -6.39075e-18)
(3.73096 3.43191 -2.46767e-17)
(3.54204 3.27 2.04695e-17)
(3.42205 3.0588 1.26038e-17)
(3.17315 2.79303 0)
(2.45833 2.05304 2.74651e-17)
(0.422203 0.523095 -1.60206e-17)
(5.27286 3.93523 -8.46526e-18)
(6.77787 5.83575 7.10246e-18)
(6.90511 5.6594 -9.49261e-18)
(6.62854 5.76751 -1.00204e-17)
(6.51608 5.72237 -4.23322e-18)
(6.37884 5.68493 1.12154e-18)
(6.21356 5.6035 0)
(6.0018 5.44999 -7.47255e-19)
(5.73194 5.19754 6.11861e-19)
(5.33583 4.86011 0)
(4.89344 4.4954 0)
(4.46517 4.21513 2.25679e-18)
(4.12377 3.98273 3.25181e-18)
(3.84204 3.78484 -6.74457e-18)
(3.62966 3.5942 1.77927e-17)
(3.47075 3.41649 -2.2066e-17)
(3.32132 3.17658 -2.71898e-17)
(3.02232 2.86948 2.44391e-17)
(2.21794 1.96009 -9.95501e-18)
(0.200684 0.392127 5.79107e-18)
(5.22264 4.05657 9.94319e-18)
(6.74108 5.98033 0)
(6.84166 5.83981 0)
(6.57932 5.93217 -3.26128e-18)
(6.46239 5.86297 2.63644e-18)
(6.31496 5.81702 -3.72804e-19)
(6.13798 5.72537 -4.23651e-18)
(5.91887 5.5633 -3.32336e-19)
(5.64391 5.30674 1.05669e-17)
(5.24637 4.97271 -1.35971e-18)
(4.80891 4.61732 2.99912e-18)
(4.38064 4.34537 -1.90934e-17)
(4.03377 4.11955 -1.97605e-17)
(3.73764 3.92424 -3.52548e-18)
(3.48502 3.72132 0)
(3.25642 3.52997 -3.31124e-19)
(3.08036 3.27425 1.40297e-17)
(2.76432 2.85987 -2.64908e-17)
(1.97318 1.88628 2.02913e-17)
(0.0299767 0.0237012 1.84906e-17)
(5.16648 4.15904 -2.14366e-17)
(6.70121 6.16242 -8.49239e-18)
(6.82837 5.98878 8.22716e-20)
(6.53682 6.0743 4.25453e-18)
(6.41091 5.99721 0)
(6.25333 5.94108 1.09181e-17)
(6.06665 5.84216 4.99102e-18)
(5.84106 5.67271 -7.57287e-19)
(5.5612 5.41272 -5.25801e-18)
(5.16097 5.08153 -1.30985e-18)
(4.72673 4.73494 1.21174e-18)
(4.29827 4.4728 1.66898e-17)
(3.94439 4.25725 1.91853e-17)
(3.63488 4.07493 3.35595e-18)
(3.37988 3.89315 1.7697e-17)
(3.17383 3.69933 0)
(2.96031 3.40444 0)
(2.54728 2.92729 1.70074e-17)
(1.55996 1.56586 1.34624e-19)
(0.0840646 0.593198 -1.82972e-17)
(5.11656 4.27188 1.15774e-17)
(6.65538 6.283 2.53117e-17)
(6.758 6.13047 -3.6852e-17)
(6.46965 6.21519 2.1449e-17)
(6.3569 6.12401 -2.32639e-18)
(6.19132 6.05986 1.41393e-17)
(5.99779 5.95466 0)
(5.76669 5.77922 9.85182e-19)
(5.48195 5.51703 0)
(5.07825 5.18908 1.64179e-17)
(4.64686 4.85181 -1.66349e-18)
(4.21918 4.60077 1.85984e-18)
(3.86104 4.39707 2.15712e-17)
(3.54023 4.22664 -7.35981e-18)
(3.24692 4.0476 -9.34146e-18)
(2.95277 3.85505 0)
(2.64264 3.56667 0)
(2.07987 2.93163 0)
(0.979519 1.79799 -9.16757e-18)
(0.401907 1.92833 -5.70212e-18)
(5.04433 4.35916 0)
(6.56161 6.39741 0)
(6.68088 6.24152 1.32131e-17)
(6.42075 6.32476 -1.78553e-17)
(6.30735 6.23836 1.16162e-17)
(6.13088 6.17126 -1.28712e-17)
(5.93057 6.06093 -4.69474e-19)
(5.69402 5.88107 3.63522e-19)
(5.4042 5.61754 9.21534e-19)
(4.9973 5.29328 -1.87858e-17)
(4.56992 4.96606 2.83352e-18)
(4.14503 4.72818 1.64351e-17)
(3.78182 4.54045 -2.14192e-17)
(3.44517 4.39142 -2.41005e-17)
(3.14227 4.24689 8.36402e-18)
(2.86702 4.07461 0)
(2.51939 3.71704 1.32556e-17)
(1.7177 2.80406 1.57297e-17)
(1.07659 2.30765 -1.72303e-17)
(0.68546 2.84707 2.17907e-17)
(5.00795 4.45424 0)
(6.54691 6.5724 2.08283e-17)
(6.70069 6.41508 -3.41105e-18)
(6.40179 6.4781 2.24228e-17)
(6.25185 6.34847 -1.22072e-17)
(6.07504 6.28029 0)
(5.86469 6.16197 0)
(5.62362 5.97836 0)
(5.3288 5.71421 3.20471e-18)
(4.91977 5.39449 6.76907e-19)
(4.49815 5.07822 0)
(4.07791 4.85455 -1.62399e-17)
(3.7139 4.68388 0)
(3.373 4.55381 1.71988e-17)
(3.04834 4.42302 -1.18577e-17)
(2.69796 4.2481 -9.64291e-18)
(2.2239 3.82557 -2.50261e-17)
(1.46129 3.06433 -1.38963e-17)
(1.04933 3.01494 -2.4851e-17)
(0.887039 3.40479 1.7767e-17)
(4.96735 4.52103 -7.31829e-18)
(6.53913 6.66929 2.06589e-19)
(6.65839 6.54711 -3.5293e-18)
(6.32924 6.59696 -1.74124e-17)
(6.19912 6.46415 0)
(6.01962 6.38201 0)
(5.80006 6.25914 0)
(5.55475 6.07159 4.37076e-20)
(5.2548 5.8074 -4.20751e-18)
(4.84544 5.49312 0)
(4.43105 5.18827 0)
(4.01715 4.97947 0)
(3.65335 4.82913 0)
(3.3032 4.7257 1.27453e-17)
(2.97306 4.62906 3.25263e-17)
(2.64325 4.45143 1.03177e-17)
(2.15784 3.9124 2.37221e-17)
(1.64553 3.40348 -1.92345e-17)
(1.20756 3.68801 8.11044e-18)
(1.06044 3.83852 0)
(4.89565 4.59598 6.99284e-18)
(6.45456 6.77333 -4.06509e-17)
(6.53804 6.61295 -1.12742e-17)
(6.24296 6.67983 -2.6878e-18)
(6.15881 6.56805 2.81107e-18)
(5.95754 6.47852 -1.87588e-17)
(5.73798 6.3549 1.19048e-18)
(5.48697 6.16278 3.67118e-18)
(5.18345 5.89918 0)
(4.77552 5.59102 -1.18379e-18)
(4.36946 5.29747 1.07758e-18)
(3.96343 5.10306 0)
(3.60549 4.9729 0)
(3.2646 4.89229 -1.5959e-17)
(2.9401 4.80567 2.85088e-18)
(2.56392 4.59572 -9.68262e-18)
(1.97231 4.06376 2.13692e-17)
(1.4122 3.81007 1.91288e-17)
(1.07214 4.12732 -3.38124e-17)
(0.999165 4.2076 1.77416e-17)
(4.81295 4.65116 1.31121e-17)
(6.36566 6.85636 3.79751e-17)
(6.50562 6.74001 1.35099e-17)
(6.24038 6.80932 0)
(6.11281 6.67176 0)
(5.89832 6.58221 1.41558e-17)
(5.67444 6.4511 -7.1986e-18)
(5.41728 6.2551 -3.49443e-18)
(5.11165 5.99184 -1.89609e-20)
(4.70731 5.68984 1.31861e-17)
(4.31052 5.40642 -1.9418e-17)
(3.91482 5.22508 0)
(3.56728 5.11593 0)
(3.23311 5.06317 -1.13355e-17)
(2.90946 4.9995 -1.48923e-17)
(2.53188 4.77359 0)
(1.97719 4.2422 -3.14027e-17)
(1.6342 4.21394 -5.86125e-18)
(1.41293 4.64506 3.43409e-17)
(1.11822 4.64542 -1.81109e-17)
(4.79483 4.74284 -2.48771e-17)
(6.37353 7.03628 -1.64956e-17)
(6.51183 6.93025 0)
(6.18882 6.97168 0)
(6.03941 6.78916 0)
(5.83936 6.6953 0)
(5.6035 6.54998 7.56631e-18)
(5.34492 6.34945 -4.91871e-18)
(5.03932 6.08599 0)
(4.64014 5.78961 -1.18827e-17)
(4.25386 5.51502 3.50011e-17)
(3.87159 5.34491 1.50149e-18)
(3.54072 5.25406 2.28759e-18)
(3.22865 5.22325 1.91872e-17)
(2.92056 5.16042 -1.28324e-17)
(2.50614 4.87247 0)
(2.03098 4.51601 9.91691e-18)
(1.57954 4.78908 7.04445e-19)
(1.13207 5.03749 -5.24068e-18)
(0.741027 5.10235 1.08881e-17)
(4.70737 4.78791 1.17957e-17)
(6.295 7.08894 -1.60324e-17)
(6.39554 6.99244 0)
(6.08142 7.05665 -4.02683e-18)
(5.97581 6.9047 1.50099e-17)
(5.76652 6.80048 0)
(5.52594 6.65049 0)
(5.26873 6.4446 9.02319e-18)
(4.96423 6.18075 -5.42938e-19)
(4.57191 5.88894 1.14095e-17)
(4.19748 5.62167 -1.66147e-17)
(3.83209 5.46072 1.08284e-17)
(3.52269 5.38538 0)
(3.23026 5.37583 -1.04767e-17)
(2.92479 5.32106 6.5531e-18)
(2.53642 5.06102 7.11038e-18)
(2.06582 4.79983 0)
(1.71328 5.10353 5.00104e-18)
(1.29024 5.70963 8.46334e-18)
(1.16483 5.8892 2.52092e-18)
(4.61045 4.86415 -2.21573e-17)
(6.18713 7.24121 2.5299e-17)
(6.28891 7.12468 1.78797e-17)
(6.01128 7.17761 -4.61363e-18)
(5.90767 7.01456 -2.26594e-17)
(5.68012 6.90506 0)
(5.44514 6.75165 6.58459e-18)
(5.18812 6.53986 -3.85582e-18)
(4.88755 6.2755 -1.81921e-19)
(4.50282 5.98698 -9.92383e-18)
(4.14214 5.7259 -8.09244e-19)
(3.79664 5.5717 -1.21414e-17)
(3.51218 5.50622 1.48998e-17)
(3.24965 5.50746 4.77511e-18)
(2.97356 5.45539 -1.11634e-17)
(2.55191 5.15802 1.19495e-17)
(2.27534 5.00868 0)
(1.92455 5.75164 0)
(1.67961 6.30198 1.63932e-18)
(0.487813 6.34725 -5.74177e-18)
(4.51981 4.92575 1.06565e-17)
(6.10199 7.32045 2.37018e-17)
(6.24368 7.25978 -1.78198e-17)
(5.94959 7.31537 1.64794e-17)
(5.82124 7.13204 2.19669e-17)
(5.59371 7.01611 0)
(5.35801 6.85157 -6.99638e-18)
(5.10358 6.63449 -5.32712e-18)
(4.80754 6.36818 0)
(4.43204 6.08139 0)
(4.08732 5.82519 0)
(3.76419 5.67565 0)
(3.50627 5.61474 -1.69773e-17)
(3.27224 5.6199 -6.47822e-18)
(3.00997 5.55708 0)
(2.66176 5.31499 -6.12236e-18)
(2.4945 5.4308 0)
(2.52503 5.77644 -2.6763e-18)
(2.58995 5.73949 2.04027e-18)
(1.4199 5.7665 8.51693e-20)