/*--------------------------------*- C++ -*----------------------------------*\
| =========                 |                                                 |
| \\      /  F ield         | OpenFOAM: The Open Source CFD Toolbox           |
|  \\    /   O peration     | Version:  2412                                  |
|   \\  /    A nd           | Website:  www.openfoam.com                      |
|    \\/     M anipulation  |                                                 |
\*---------------------------------------------------------------------------*/
FoamFile
{
    version     2.0;
    format      ascii;
    arch        "LSB;label=32;scalar=64";
    class       surfaceScalarField;
    location    "0.59";
    object      phi;
}
// * * * * * * * * * * * * * * * * * * * * * * * * * * * * * * * * * * * * * //

dimensions      [0 3 -1 0 0 0 0];

oriented        oriented;

internalField   nonuniform List<scalar> 
799
(
2.7539e-05
5.50781e-05
8.2617e-05
0.000110156
0.000137694
0.000165232
0.00019277
0.000220307
0.000247843
0.000275379
0.000302914
0.000330449
0.000357982
0.000385514
0.000413046
0.000440576
0.000468105
0.000495633
0.000523159
0.000550684
0.000578208
0.00060573
0.00063325
0.000660769
0.000688285
0.0007158
0.000743313
0.000770824
0.000798333
0.00082584
0.000853344
0.000880847
0.000908346
0.000935844
0.000963338
0.00099083
0.00101832
0.00104581
0.00107329
0.00110077
0.00112825
0.00115572
0.00118319
0.00121066
0.00123813
0.00126559
0.00129305
0.0013205
0.00134795
0.0013754
0.00140284
0.00143028
0.00145772
0.00148515
0.00151258
0.00154
0.00156742
0.00159484
0.00162225
0.00164965
0.00167705
0.00170445
0.00173184
0.00175923
0.00178661
0.00181399
0.00184136
0.00186873
0.00189609
0.00192345
0.0019508
0.00197814
0.00200548
0.00203282
0.00206015
0.00208747
0.00211478
0.0021421
0.0021694
0.0021967
0.00222399
0.00225128
0.00227856
0.00230583
0.0023331
0.00236036
0.00238761
0.00241486
0.0024421
0.00246933
0.00249656
0.00252378
0.00255099
0.00257819
0.00260539
0.00263258
0.00265976
0.00268693
0.0027141
0.00274125
0.0027684
0.00279555
0.00282268
0.0028498
0.00287692
0.00290403
0.00293113
0.00295822
0.0029853
0.00301238
0.00303944
0.0030665
0.00309355
0.00312058
0.00314761
0.00317463
0.00320164
0.00322864
0.00325563
0.00328261
0.00330958
0.00333654
0.00336349
0.00339043
0.00341736
0.00344428
0.00347119
0.00349809
0.00352498
0.00355185
0.00357872
0.00360558
0.00363242
0.00365925
0.00368607
0.00371288
0.00373968
0.00376647
0.00379324
0.00382001
0.00384676
0.0038735
0.00390022
0.00392694
0.00395364
0.00398033
0.00400701
0.00403367
0.00406032
0.00408696
0.00411358
0.0041402
0.00416679
0.00419338
0.00421995
0.00424651
0.00427305
0.00429958
0.0043261
0.0043526
0.00437909
0.00440556
0.00443202
0.00445846
0.00448489
0.0045113
0.0045377
0.00456408
0.00459045
0.0046168
0.00464314
0.00466946
0.00469576
0.00472205
0.00474833
0.00477458
0.00480082
0.00482705
0.00485325
0.00487944
0.00490561
0.00493177
0.00495791
0.00498403
0.00501013
0.00503622
0.00506228
0.00508833
0.00511436
0.00514038
0.00516637
0.00519235
0.0052183
0.00524424
0.00527016
0.00529606
0.00532194
0.0053478
0.00537364
0.00539946
0.00542526
0.00545104
0.0054768
0.00550254
0.00552826
0.00555395
0.00557963
0.00560528
0.00563092
0.00565653
0.00568212
0.00570768
0.00573323
0.00575875
0.00578425
0.00580973
0.00583518
0.00586061
0.00588602
0.0059114
0.00593676
0.0059621
0.00598741
0.0060127
0.00603796
0.0060632
0.00608841
0.0061136
0.00613876
0.0061639
0.00618901
0.00621409
0.00623915
0.00626418
0.00628918
0.00631416
0.00633911
0.00636403
0.00638893
0.00641379
0.00643863
0.00646344
0.00648822
0.00651298
0.0065377
0.00656239
0.00658706
0.00661169
0.00663629
0.00666087
0.00668541
0.00670992
0.0067344
0.00675885
0.00678326
0.00680765
0.006832
0.00685632
0.0068806
0.00690485
0.00692907
0.00695326
0.00697741
0.00700152
0.0070256
0.00704965
0.00707366
0.00709763
0.00712157
0.00714547
0.00716933
0.00719316
0.00721695
0.0072407
0.00726441
0.00728808
0.00731172
0.00733531
0.00735887
0.00738238
0.00740586
0.00742929
0.00745269
0.00747604
0.00749934
0.00752261
0.00754583
0.00756901
0.00759215
0.00761524
0.00763829
0.00766129
0.00768424
0.00770715
0.00773001
0.00775283
0.0077756
0.00779832
0.00782099
0.00784361
0.00786619
0.00788871
0.00791118
0.0079336
0.00795597
0.00797829
0.00800055
0.00802277
0.00804492
0.00806703
0.00808907
0.00811107
0.008133
0.00815488
0.0081767
0.00819847
0.00822017
0.00824181
0.0082634
0.00828492
0.00830638
0.00832778
0.00834912
0.00837039
0.0083916
0.00841275
0.00843382
0.00845483
0.00847578
0.00849665
0.00851746
0.00853819
0.00855885
0.00857945
0.00859996
0.00862041
0.00864078
0.00866108
0.00868129
0.00870144
0.0087215
0.00874148
0.00876138
0.0087812
0.00880094
0.0088206
0.00884017
0.00885965
0.00887904
0.00889835
0.00891757
0.0089367
0.00895573
0.00897467
0.00899351
0.00901226
0.00903091
0.00904947
0.00906792
0.00908627
0.00910451
0.00912265
0.00914069
0.00915861
0.00917642
0.00919413
0.00921171
0.00922919
0.00924654
0.00926378
0.00928089
0.00929788
0.00931475
0.00933149
0.0093481
0.00936457
0.00938091
0.00939712
0.00941319
0.00942911
0.00944489
0.00946052
0.00947601
0.00949134
0.00950651
0.00952153
0.00953639
0.00955108
0.0095656
0.00957995
0.00959413
0.00960813
0.00962194
0.00963558
0.00964893
0.00966307
0.00966702
0.0097705
0.00789131
6.96965e-06
-0.0078843
-0.00977045
-0.00966701
-0.00966306
-0.00964892
-0.00963557
-0.00962193
-0.00960811
-0.00959412
-0.00957994
-0.00956559
-0.00955106
-0.00953637
-0.00952152
-0.0095065
-0.00949132
-0.00947599
-0.00946051
-0.00944487
-0.00942909
-0.00941317
-0.0093971
-0.0093809
-0.00936456
-0.00934808
-0.00933147
-0.00931473
-0.00929787
-0.00928088
-0.00926376
-0.00924653
-0.00922917
-0.0092117
-0.00919411
-0.00917641
-0.00915859
-0.00914067
-0.00912263
-0.00910449
-0.00908625
-0.0090679
-0.00904945
-0.0090309
-0.00901224
-0.00899349
-0.00897465
-0.00895571
-0.00893668
-0.00891755
-0.00889833
-0.00887902
-0.00885963
-0.00884015
-0.00882058
-0.00880092
-0.00878118
-0.00876136
-0.00874146
-0.00872148
-0.00870141
-0.00868127
-0.00866105
-0.00864076
-0.00862039
-0.00859994
-0.00857942
-0.00855883
-0.00853817
-0.00851743
-0.00849663
-0.00847575
-0.00845481
-0.0084338
-0.00841272
-0.00839158
-0.00837037
-0.0083491
-0.00832776
-0.00830636
-0.0082849
-0.00826338
-0.00824179
-0.00822015
-0.00819844
-0.00817668
-0.00815486
-0.00813298
-0.00811104
-0.00808905
-0.008067
-0.0080449
-0.00802274
-0.00800053
-0.00797827
-0.00795595
-0.00793358
-0.00791116
-0.00788869
-0.00786616
-0.00784359
-0.00782097
-0.0077983
-0.00777557
-0.00775281
-0.00772999
-0.00770713
-0.00768422
-0.00766126
-0.00763826
-0.00761522
-0.00759212
-0.00756899
-0.00754581
-0.00752259
-0.00749932
-0.00747601
-0.00745266
-0.00742927
-0.00740584
-0.00738236
-0.00735885
-0.00733529
-0.0073117
-0.00728806
-0.00726439
-0.00724067
-0.00721692
-0.00719313
-0.00716931
-0.00714544
-0.00712154
-0.00709761
-0.00707363
-0.00704962
-0.00702558
-0.0070015
-0.00697738
-0.00695323
-0.00692905
-0.00690483
-0.00688058
-0.00685629
-0.00683198
-0.00680762
-0.00678324
-0.00675882
-0.00673438
-0.0067099
-0.00668539
-0.00666084
-0.00663627
-0.00661167
-0.00658703
-0.00656237
-0.00653768
-0.00651296
-0.0064882
-0.00646342
-0.00643861
-0.00641377
-0.00638891
-0.00636401
-0.00633909
-0.00631414
-0.00628916
-0.00626416
-0.00623913
-0.00621407
-0.00618899
-0.00616388
-0.00613874
-0.00611358
-0.00608839
-0.00606318
-0.00603794
-0.00601268
-0.00598739
-0.00596208
-0.00593674
-0.00591138
-0.005886
-0.00586059
-0.00583516
-0.00580971
-0.00578423
-0.00575873
-0.00573321
-0.00570767
-0.0056821
-0.00565651
-0.0056309
-0.00560527
-0.00557961
-0.00555394
-0.00552824
-0.00550252
-0.00547678
-0.00545102
-0.00542524
-0.00539944
-0.00537362
-0.00534778
-0.00532192
-0.00529604
-0.00527014
-0.00524423
-0.00521829
-0.00519233
-0.00516636
-0.00514036
-0.00511435
-0.00508832
-0.00506227
-0.0050362
-0.00501012
-0.00498401
-0.00495789
-0.00493176
-0.0049056
-0.00487943
-0.00485324
-0.00482703
-0.00480081
-0.00477457
-0.00474831
-0.00472204
-0.00469575
-0.00466945
-0.00464313
-0.00461679
-0.00459044
-0.00456407
-0.00453769
-0.00451129
-0.00448488
-0.00445845
-0.004432
-0.00440555
-0.00437907
-0.00435259
-0.00432609
-0.00429957
-0.00427304
-0.0042465
-0.00421994
-0.00419337
-0.00416678
-0.00414019
-0.00411357
-0.00408695
-0.00406031
-0.00403366
-0.004007
-0.00398032
-0.00395363
-0.00392693
-0.00390021
-0.00387349
-0.00384675
-0.00382
-0.00379324
-0.00376646
-0.00373967
-0.00371288
-0.00368607
-0.00365924
-0.00363241
-0.00360557
-0.00357871
-0.00355185
-0.00352497
-0.00349808
-0.00347118
-0.00344428
-0.00341736
-0.00339043
-0.00336349
-0.00333654
-0.00330958
-0.0032826
-0.00325562
-0.00322863
-0.00320163
-0.00317463
-0.00314761
-0.00312058
-0.00309354
-0.00306649
-0.00303944
-0.00301237
-0.0029853
-0.00295822
-0.00293113
-0.00290403
-0.00287692
-0.0028498
-0.00282267
-0.00279554
-0.0027684
-0.00274125
-0.00271409
-0.00268693
-0.00265975
-0.00263257
-0.00260538
-0.00257819
-0.00255098
-0.00252377
-0.00249655
-0.00246933
-0.00244209
-0.00241486
-0.00238761
-0.00236036
-0.0023331
-0.00230583
-0.00227856
-0.00225128
-0.00222399
-0.0021967
-0.0021694
-0.00214209
-0.00211478
-0.00208747
-0.00206014
-0.00203281
-0.00200548
-0.00197814
-0.00195079
-0.00192344
-0.00189609
-0.00186872
-0.00184136
-0.00181399
-0.00178661
-0.00175923
-0.00173184
-0.00170445
-0.00167705
-0.00164965
-0.00162224
-0.00159483
-0.00156742
-0.00154
-0.00151258
-0.00148515
-0.00145772
-0.00143028
-0.00140284
-0.0013754
-0.00134795
-0.0013205
-0.00129305
-0.00126559
-0.00123813
-0.00121066
-0.00118319
-0.00115572
-0.00112825
-0.00110077
-0.00107329
-0.00104581
-0.00101832
-0.00099083
-0.000963338
-0.000935843
-0.000908346
-0.000880846
-0.000853344
-0.000825839
-0.000798333
-0.000770824
-0.000743313
-0.0007158
-0.000688285
-0.000660768
-0.00063325
-0.00060573
-0.000578208
-0.000550684
-0.000523159
-0.000495633
-0.000468105
-0.000440576
-0.000413046
-0.000385514
-0.000357982
-0.000330449
-0.000302914
-0.000275379
-0.000247844
-0.000220307
-0.00019277
-0.000165232
-0.000137694
-0.000110156
-8.26172e-05
-5.50782e-05
-2.75392e-05
)
;

boundaryField
{
    left
    {
        type            calculated;
        value           uniform 0;
    }
    right
    {
        type            calculated;
        value           uniform 0;
    }
    frontBackUpDown
    {
        type            empty;
    }
}


// ************************************************************************* //
