/*--------------------------------*- C++ -*----------------------------------*\
| =========                 |                                                 |
| \\      /  F ield         | OpenFOAM: The Open Source CFD Toolbox           |
|  \\    /   O peration     | Version:  2412                                  |
|   \\  /    A nd           | Website:  www.openfoam.com                      |
|    \\/     M anipulation  |                                                 |
\*---------------------------------------------------------------------------*/
FoamFile
{
    version     2.0;
    format      ascii;
    arch        "LSB;label=32;scalar=64";
    class       volVectorField;
    location    "0.59";
    object      U;
}
// * * * * * * * * * * * * * * * * * * * * * * * * * * * * * * * * * * * * * //

dimensions      [0 1 -1 0 0 0 0];

internalField   nonuniform List<vector> 
800
(
(0.00137694 0 0)
(0.00413086 0 0)
(0.00688476 0 0)
(0.00963865 0 0)
(0.0123925 0 0)
(0.0151463 0 0)
(0.0179001 0 0)
(0.0206539 0 0)
(0.0234075 0 0)
(0.0261612 0 0)
(0.0289147 0 0)
(0.0316682 0 0)
(0.0344216 0 0)
(0.0371748 0 0)
(0.039928 0 0)
(0.0426811 0 0)
(0.0454341 0 0)
(0.0481869 0 0)
(0.0509396 0 0)
(0.0536922 0 0)
(0.0564446 0 0)
(0.0591969 0 0)
(0.061949 0 0)
(0.064701 0 0)
(0.0674528 0 0)
(0.0702043 0 0)
(0.0729557 0 0)
(0.0757069 0 0)
(0.0784579 0 0)
(0.0812087 0 0)
(0.0839593 0 0)
(0.0867096 0 0)
(0.0894597 0 0)
(0.0922096 0 0)
(0.0949592 0 0)
(0.0977085 0 0)
(0.100458 0 0)
(0.103206 0 0)
(0.105955 0 0)
(0.108703 0 0)
(0.111451 0 0)
(0.114199 0 0)
(0.116946 0 0)
(0.119693 0 0)
(0.12244 0 0)
(0.125186 0 0)
(0.127932 0 0)
(0.130678 0 0)
(0.133423 0 0)
(0.136168 0 0)
(0.138912 0 0)
(0.141657 0 0)
(0.1444 0 0)
(0.147144 0 0)
(0.149887 0 0)
(0.152629 0 0)
(0.155371 0 0)
(0.158113 0 0)
(0.160854 0 0)
(0.163595 0 0)
(0.166335 0 0)
(0.169075 0 0)
(0.171815 0 0)
(0.174554 0 0)
(0.177292 0 0)
(0.18003 0 0)
(0.182768 0 0)
(0.185504 0 0)
(0.188241 0 0)
(0.190977 0 0)
(0.193712 0 0)
(0.196447 0 0)
(0.199181 0 0)
(0.201915 0 0)
(0.204648 0 0)
(0.207381 0 0)
(0.210113 0 0)
(0.212844 0 0)
(0.215575 0 0)
(0.218305 0 0)
(0.221035 0 0)
(0.223764 0 0)
(0.226492 0 0)
(0.22922 0 0)
(0.231947 0 0)
(0.234673 0 0)
(0.237399 0 0)
(0.240124 0 0)
(0.242848 0 0)
(0.245572 0 0)
(0.248295 0 0)
(0.251017 0 0)
(0.253738 0 0)
(0.256459 0 0)
(0.259179 0 0)
(0.261898 0 0)
(0.264617 0 0)
(0.267335 0 0)
(0.270052 0 0)
(0.272768 0 0)
(0.275483 0 0)
(0.278198 0 0)
(0.280911 0 0)
(0.283624 0 0)
(0.286337 0 0)
(0.289048 0 0)
(0.291758 0 0)
(0.294468 0 0)
(0.297177 0 0)
(0.299884 0 0)
(0.302591 0 0)
(0.305297 0 0)
(0.308003 0 0)
(0.310707 0 0)
(0.31341 0 0)
(0.316112 0 0)
(0.318814 0 0)
(0.321514 0 0)
(0.324214 0 0)
(0.326912 0 0)
(0.32961 0 0)
(0.332306 0 0)
(0.335002 0 0)
(0.337697 0 0)
(0.34039 0 0)
(0.343083 0 0)
(0.345774 0 0)
(0.348464 0 0)
(0.351154 0 0)
(0.353842 0 0)
(0.356529 0 0)
(0.359215 0 0)
(0.3619 0 0)
(0.364584 0 0)
(0.367267 0 0)
(0.369948 0 0)
(0.372629 0 0)
(0.375308 0 0)
(0.377986 0 0)
(0.380663 0 0)
(0.383339 0 0)
(0.386013 0 0)
(0.388686 0 0)
(0.391358 0 0)
(0.394029 0 0)
(0.396699 0 0)
(0.399367 0 0)
(0.402034 0 0)
(0.4047 0 0)
(0.407364 0 0)
(0.410028 0 0)
(0.412689 0 0)
(0.41535 0 0)
(0.418009 0 0)
(0.420667 0 0)
(0.423323 0 0)
(0.425978 0 0)
(0.428632 0 0)
(0.431284 0 0)
(0.433935 0 0)
(0.436585 0 0)
(0.439233 0 0)
(0.441879 0 0)
(0.444524 0 0)
(0.447168 0 0)
(0.44981 0 0)
(0.45245 0 0)
(0.455089 0 0)
(0.457727 0 0)
(0.460363 0 0)
(0.462997 0 0)
(0.46563 0 0)
(0.468262 0 0)
(0.470891 0 0)
(0.473519 0 0)
(0.476146 0 0)
(0.478771 0 0)
(0.481394 0 0)
(0.484015 0 0)
(0.486635 0 0)
(0.489253 0 0)
(0.49187 0 0)
(0.494484 0 0)
(0.497097 0 0)
(0.499708 0 0)
(0.502318 0 0)
(0.504926 0 0)
(0.507531 0 0)
(0.510135 0 0)
(0.512738 0 0)
(0.515338 0 0)
(0.517936 0 0)
(0.520533 0 0)
(0.523128 0 0)
(0.525721 0 0)
(0.528311 0 0)
(0.5309 0 0)
(0.533487 0 0)
(0.536072 0 0)
(0.538655 0 0)
(0.541236 0 0)
(0.543815 0 0)
(0.546392 0 0)
(0.548967 0 0)
(0.55154 0 0)
(0.554111 0 0)
(0.55668 0 0)
(0.559246 0 0)
(0.56181 0 0)
(0.564373 0 0)
(0.566933 0 0)
(0.56949 0 0)
(0.572046 0 0)
(0.574599 0 0)
(0.577151 0 0)
(0.579699 0 0)
(0.582246 0 0)
(0.58479 0 0)
(0.587332 0 0)
(0.589872 0 0)
(0.592409 0 0)
(0.594944 0 0)
(0.597476 0 0)
(0.600006 0 0)
(0.602533 0 0)
(0.605058 0 0)
(0.607581 0 0)
(0.610101 0 0)
(0.612618 0 0)
(0.615133 0 0)
(0.617646 0 0)
(0.620155 0 0)
(0.622662 0 0)
(0.625167 0 0)
(0.627669 0 0)
(0.630168 0 0)
(0.632664 0 0)
(0.635158 0 0)
(0.637649 0 0)
(0.640137 0 0)
(0.642622 0 0)
(0.645104 0 0)
(0.647584 0 0)
(0.650061 0 0)
(0.652534 0 0)
(0.655005 0 0)
(0.657473 0 0)
(0.659938 0 0)
(0.6624 0 0)
(0.664859 0 0)
(0.667314 0 0)
(0.669767 0 0)
(0.672217 0 0)
(0.674663 0 0)
(0.677106 0 0)
(0.679546 0 0)
(0.681983 0 0)
(0.684416 0 0)
(0.686847 0 0)
(0.689274 0 0)
(0.691697 0 0)
(0.694117 0 0)
(0.696534 0 0)
(0.698947 0 0)
(0.701357 0 0)
(0.703763 0 0)
(0.706166 0 0)
(0.708565 0 0)
(0.710961 0 0)
(0.713353 0 0)
(0.715741 0 0)
(0.718125 0 0)
(0.720506 0 0)
(0.722883 0 0)
(0.725256 0 0)
(0.727626 0 0)
(0.729991 0 0)
(0.732353 0 0)
(0.73471 0 0)
(0.737064 0 0)
(0.739413 0 0)
(0.741759 0 0)
(0.7441 0 0)
(0.746437 0 0)
(0.74877 0 0)
(0.751099 0 0)
(0.753423 0 0)
(0.755743 0 0)
(0.758059 0 0)
(0.76037 0 0)
(0.762677 0 0)
(0.76498 0 0)
(0.767278 0 0)
(0.769571 0 0)
(0.771859 0 0)
(0.774143 0 0)
(0.776423 0 0)
(0.778697 0 0)
(0.780967 0 0)
(0.783231 0 0)
(0.785491 0 0)
(0.787746 0 0)
(0.789996 0 0)
(0.79224 0 0)
(0.79448 0 0)
(0.796714 0 0)
(0.798944 0 0)
(0.801167 0 0)
(0.803386 0 0)
(0.805599 0 0)
(0.807806 0 0)
(0.810008 0 0)
(0.812205 0 0)
(0.814396 0 0)
(0.816581 0 0)
(0.81876 0 0)
(0.820933 0 0)
(0.823101 0 0)
(0.825262 0 0)
(0.827418 0 0)
(0.829567 0 0)
(0.83171 0 0)
(0.833847 0 0)
(0.835977 0 0)
(0.838101 0 0)
(0.840219 0 0)
(0.84233 0 0)
(0.844434 0 0)
(0.846532 0 0)
(0.848623 0 0)
(0.850707 0 0)
(0.852784 0 0)
(0.854854 0 0)
(0.856917 0 0)
(0.858972 0 0)
(0.861021 0 0)
(0.863061 0 0)
(0.865095 0 0)
(0.86712 0 0)
(0.869138 0 0)
(0.871149 0 0)
(0.873151 0 0)
(0.875145 0 0)
(0.877131 0 0)
(0.879109 0 0)
(0.881079 0 0)
(0.88304 0 0)
(0.884993 0 0)
(0.886937 0 0)
(0.888872 0 0)
(0.890798 0 0)
(0.892716 0 0)
(0.894624 0 0)
(0.896522 0 0)
(0.898412 0 0)
(0.900291 0 0)
(0.902161 0 0)
(0.904022 0 0)
(0.905872 0 0)
(0.907712 0 0)
(0.909542 0 0)
(0.911361 0 0)
(0.91317 0 0)
(0.914968 0 0)
(0.916754 0 0)
(0.91853 0 0)
(0.920295 0 0)
(0.922048 0 0)
(0.923789 0 0)
(0.925519 0 0)
(0.927237 0 0)
(0.928942 0 0)
(0.930635 0 0)
(0.932315 0 0)
(0.933982 0 0)
(0.935637 0 0)
(0.937278 0 0)
(0.938905 0 0)
(0.940519 0 0)
(0.942118 0 0)
(0.943704 0 0)
(0.945274 0 0)
(0.94683 0 0)
(0.948371 0 0)
(0.949896 0 0)
(0.951406 0 0)
(0.9529 0 0)
(0.954377 0 0)
(0.955838 0 0)
(0.957282 0 0)
(0.958708 0 0)
(0.960117 0 0)
(0.961508 0 0)
(0.96288 0 0)
(0.964236 0 0)
(0.965551 0 0)
(0.967064 0 0)
(0.96634 0 0)
(0.98776 0 0)
(0.590503 0 0)
(-0.589109 0 0)
(-0.987751 0 0)
(-0.966339 0 0)
(-0.967063 0 0)
(-0.96555 0 0)
(-0.964235 0 0)
(-0.962879 0 0)
(-0.961507 0 0)
(-0.960116 0 0)
(-0.958707 0 0)
(-0.957281 0 0)
(-0.955837 0 0)
(-0.954376 0 0)
(-0.952899 0 0)
(-0.951405 0 0)
(-0.949895 0 0)
(-0.94837 0 0)
(-0.946829 0 0)
(-0.945273 0 0)
(-0.943702 0 0)
(-0.942117 0 0)
(-0.940517 0 0)
(-0.938904 0 0)
(-0.937276 0 0)
(-0.935635 0 0)
(-0.933981 0 0)
(-0.932313 0 0)
(-0.930633 0 0)
(-0.92894 0 0)
(-0.927235 0 0)
(-0.925517 0 0)
(-0.923788 0 0)
(-0.922046 0 0)
(-0.920293 0 0)
(-0.918529 0 0)
(-0.916753 0 0)
(-0.914966 0 0)
(-0.913168 0 0)
(-0.911359 0 0)
(-0.90954 0 0)
(-0.90771 0 0)
(-0.90587 0 0)
(-0.90402 0 0)
(-0.902159 0 0)
(-0.900289 0 0)
(-0.89841 0 0)
(-0.89652 0 0)
(-0.894622 0 0)
(-0.892713 0 0)
(-0.890796 0 0)
(-0.88887 0 0)
(-0.886935 0 0)
(-0.884991 0 0)
(-0.883038 0 0)
(-0.881077 0 0)
(-0.879107 0 0)
(-0.877129 0 0)
(-0.875143 0 0)
(-0.873149 0 0)
(-0.871147 0 0)
(-0.869136 0 0)
(-0.867118 0 0)
(-0.865093 0 0)
(-0.863059 0 0)
(-0.861018 0 0)
(-0.85897 0 0)
(-0.856915 0 0)
(-0.854852 0 0)
(-0.852782 0 0)
(-0.850705 0 0)
(-0.848621 0 0)
(-0.84653 0 0)
(-0.844432 0 0)
(-0.842328 0 0)
(-0.840217 0 0)
(-0.838099 0 0)
(-0.835975 0 0)
(-0.833845 0 0)
(-0.831708 0 0)
(-0.829565 0 0)
(-0.827415 0 0)
(-0.82526 0 0)
(-0.823098 0 0)
(-0.820931 0 0)
(-0.818758 0 0)
(-0.816578 0 0)
(-0.814393 0 0)
(-0.812202 0 0)
(-0.810006 0 0)
(-0.807804 0 0)
(-0.805597 0 0)
(-0.803383 0 0)
(-0.801165 0 0)
(-0.798941 0 0)
(-0.796712 0 0)
(-0.794478 0 0)
(-0.792238 0 0)
(-0.789993 0 0)
(-0.787744 0 0)
(-0.785489 0 0)
(-0.783229 0 0)
(-0.780964 0 0)
(-0.778695 0 0)
(-0.77642 0 0)
(-0.774141 0 0)
(-0.771857 0 0)
(-0.769568 0 0)
(-0.767275 0 0)
(-0.764977 0 0)
(-0.762675 0 0)
(-0.760368 0 0)
(-0.758057 0 0)
(-0.755741 0 0)
(-0.753421 0 0)
(-0.751096 0 0)
(-0.748768 0 0)
(-0.746435 0 0)
(-0.744098 0 0)
(-0.741756 0 0)
(-0.739411 0 0)
(-0.737061 0 0)
(-0.734708 0 0)
(-0.73235 0 0)
(-0.729989 0 0)
(-0.727623 0 0)
(-0.725254 0 0)
(-0.722881 0 0)
(-0.720504 0 0)
(-0.718123 0 0)
(-0.715739 0 0)
(-0.71335 0 0)
(-0.710958 0 0)
(-0.708563 0 0)
(-0.706164 0 0)
(-0.703761 0 0)
(-0.701355 0 0)
(-0.698945 0 0)
(-0.696532 0 0)
(-0.694115 0 0)
(-0.691695 0 0)
(-0.689271 0 0)
(-0.686844 0 0)
(-0.684414 0 0)
(-0.681981 0 0)
(-0.679544 0 0)
(-0.677104 0 0)
(-0.674661 0 0)
(-0.672215 0 0)
(-0.669765 0 0)
(-0.667312 0 0)
(-0.664857 0 0)
(-0.662398 0 0)
(-0.659936 0 0)
(-0.657471 0 0)
(-0.655003 0 0)
(-0.652532 0 0)
(-0.650059 0 0)
(-0.647582 0 0)
(-0.645102 0 0)
(-0.64262 0 0)
(-0.640135 0 0)
(-0.637647 0 0)
(-0.635156 0 0)
(-0.632662 0 0)
(-0.630166 0 0)
(-0.627667 0 0)
(-0.625165 0 0)
(-0.622661 0 0)
(-0.620153 0 0)
(-0.617644 0 0)
(-0.615131 0 0)
(-0.612617 0 0)
(-0.610099 0 0)
(-0.607579 0 0)
(-0.605057 0 0)
(-0.602532 0 0)
(-0.600004 0 0)
(-0.597474 0 0)
(-0.594942 0 0)
(-0.592407 0 0)
(-0.58987 0 0)
(-0.58733 0 0)
(-0.584788 0 0)
(-0.582244 0 0)
(-0.579698 0 0)
(-0.577149 0 0)
(-0.574598 0 0)
(-0.572044 0 0)
(-0.569489 0 0)
(-0.566931 0 0)
(-0.564371 0 0)
(-0.561809 0 0)
(-0.559244 0 0)
(-0.556678 0 0)
(-0.554109 0 0)
(-0.551539 0 0)
(-0.548966 0 0)
(-0.546391 0 0)
(-0.543814 0 0)
(-0.541235 0 0)
(-0.538654 0 0)
(-0.536071 0 0)
(-0.533486 0 0)
(-0.530899 0 0)
(-0.52831 0 0)
(-0.525719 0 0)
(-0.523126 0 0)
(-0.520532 0 0)
(-0.517935 0 0)
(-0.515336 0 0)
(-0.512736 0 0)
(-0.510134 0 0)
(-0.50753 0 0)
(-0.504924 0 0)
(-0.502316 0 0)
(-0.499707 0 0)
(-0.497096 0 0)
(-0.494483 0 0)
(-0.491868 0 0)
(-0.489252 0 0)
(-0.486634 0 0)
(-0.484014 0 0)
(-0.481393 0 0)
(-0.478769 0 0)
(-0.476145 0 0)
(-0.473518 0 0)
(-0.47089 0 0)
(-0.46826 0 0)
(-0.465629 0 0)
(-0.462996 0 0)
(-0.460362 0 0)
(-0.457726 0 0)
(-0.455088 0 0)
(-0.452449 0 0)
(-0.449809 0 0)
(-0.447167 0 0)
(-0.444523 0 0)
(-0.441878 0 0)
(-0.439231 0 0)
(-0.436583 0 0)
(-0.433934 0 0)
(-0.431283 0 0)
(-0.428631 0 0)
(-0.425977 0 0)
(-0.423322 0 0)
(-0.420666 0 0)
(-0.418008 0 0)
(-0.415349 0 0)
(-0.412688 0 0)
(-0.410027 0 0)
(-0.407363 0 0)
(-0.404699 0 0)
(-0.402033 0 0)
(-0.399366 0 0)
(-0.396698 0 0)
(-0.394028 0 0)
(-0.391358 0 0)
(-0.388685 0 0)
(-0.386012 0 0)
(-0.383338 0 0)
(-0.380662 0 0)
(-0.377985 0 0)
(-0.375307 0 0)
(-0.372628 0 0)
(-0.369947 0 0)
(-0.367266 0 0)
(-0.364583 0 0)
(-0.361899 0 0)
(-0.359214 0 0)
(-0.356528 0 0)
(-0.353841 0 0)
(-0.351153 0 0)
(-0.348464 0 0)
(-0.345773 0 0)
(-0.343082 0 0)
(-0.340389 0 0)
(-0.337696 0 0)
(-0.335001 0 0)
(-0.332306 0 0)
(-0.329609 0 0)
(-0.326912 0 0)
(-0.324213 0 0)
(-0.321514 0 0)
(-0.318813 0 0)
(-0.316112 0 0)
(-0.313409 0 0)
(-0.310706 0 0)
(-0.308002 0 0)
(-0.305297 0 0)
(-0.302591 0 0)
(-0.299884 0 0)
(-0.297176 0 0)
(-0.294467 0 0)
(-0.291758 0 0)
(-0.289047 0 0)
(-0.286336 0 0)
(-0.283624 0 0)
(-0.280911 0 0)
(-0.278197 0 0)
(-0.275483 0 0)
(-0.272767 0 0)
(-0.270051 0 0)
(-0.267334 0 0)
(-0.264616 0 0)
(-0.261898 0 0)
(-0.259179 0 0)
(-0.256459 0 0)
(-0.253738 0 0)
(-0.251016 0 0)
(-0.248294 0 0)
(-0.245571 0 0)
(-0.242848 0 0)
(-0.240123 0 0)
(-0.237398 0 0)
(-0.234673 0 0)
(-0.231946 0 0)
(-0.229219 0 0)
(-0.226492 0 0)
(-0.223763 0 0)
(-0.221034 0 0)
(-0.218305 0 0)
(-0.215575 0 0)
(-0.212844 0 0)
(-0.210113 0 0)
(-0.207381 0 0)
(-0.204648 0 0)
(-0.201915 0 0)
(-0.199181 0 0)
(-0.196447 0 0)
(-0.193712 0 0)
(-0.190977 0 0)
(-0.188241 0 0)
(-0.185504 0 0)
(-0.182767 0 0)
(-0.18003 0 0)
(-0.177292 0 0)
(-0.174553 0 0)
(-0.171815 0 0)
(-0.169075 0 0)
(-0.166335 0 0)
(-0.163595 0 0)
(-0.160854 0 0)
(-0.158113 0 0)
(-0.155371 0 0)
(-0.152629 0 0)
(-0.149886 0 0)
(-0.147143 0 0)
(-0.1444 0 0)
(-0.141656 0 0)
(-0.138912 0 0)
(-0.136168 0 0)
(-0.133423 0 0)
(-0.130678 0 0)
(-0.127932 0 0)
(-0.125186 0 0)
(-0.12244 0 0)
(-0.119693 0 0)
(-0.116946 0 0)
(-0.114199 0 0)
(-0.111451 0 0)
(-0.108703 0 0)
(-0.105955 0 0)
(-0.103206 0 0)
(-0.100458 0 0)
(-0.0977084 0 0)
(-0.0949591 0 0)
(-0.0922095 0 0)
(-0.0894596 0 0)
(-0.0867096 0 0)
(-0.0839592 0 0)
(-0.0812087 0 0)
(-0.0784579 0 0)
(-0.0757069 0 0)
(-0.0729557 0 0)
(-0.0702043 0 0)
(-0.0674527 0 0)
(-0.064701 0 0)
(-0.061949 0 0)
(-0.0591969 0 0)
(-0.0564446 0 0)
(-0.0536922 0 0)
(-0.0509396 0 0)
(-0.0481869 0 0)
(-0.0454341 0 0)
(-0.0426811 0 0)
(-0.039928 0 0)
(-0.0371748 0 0)
(-0.0344216 0 0)
(-0.0316682 0 0)
(-0.0289147 0 0)
(-0.0261612 0 0)
(-0.0234075 0 0)
(-0.0206539 0 0)
(-0.0179001 0 0)
(-0.0151463 0 0)
(-0.0123925 0 0)
(-0.00963866 0 0)
(-0.00688478 0 0)
(-0.00413087 0 0)
(-0.00137696 0 0)
)
;

boundaryField
{
    left
    {
        type            fixedValue;
        value           uniform (0 0 0);
    }
    right
    {
        type            fixedValue;
        value           uniform (0 0 0);
    }
    frontBackUpDown
    {
        type            empty;
    }
}


// ************************************************************************* //
