/*--------------------------------*- C++ -*----------------------------------*\
| =========                 |                                                 |
| \\      /  F ield         | OpenFOAM: The Open Source CFD Toolbox           |
|  \\    /   O peration     | Version:  2412                                  |
|   \\  /    A nd           | Website:  www.openfoam.com                      |
|    \\/     M anipulation  |                                                 |
\*---------------------------------------------------------------------------*/
FoamFile
{
    version     2.0;
    format      ascii;
    arch        "LSB;label=32;scalar=64";
    class       volScalarField;
    location    "0.07";
    object      epsilon;
}
// * * * * * * * * * * * * * * * * * * * * * * * * * * * * * * * * * * * * * //

dimensions      [0 2 -3 0 0 0 0];

internalField   nonuniform List<scalar> 
12225
(
448.248
622.873
830.492
1004.7
1150.2
1269.92
1368.22
1449.12
1515.74
1570.62
1615.86
1653.11
1683.67
1708.57
1728.6
1744.27
1756.32
1768.66
173.744
302.077
403.081
480.14
539.284
585.611
622.022
650.714
673.392
691.322
705.467
716.578
725.244
731.93
737.03
740.766
743.856
743.255
119.436
232.4
315.504
376.238
421.135
454.99
480.577
499.891
514.447
525.357
533.443
539.333
543.514
546.365
548.205
549.27
549.93
549.214
97.6429
199.982
277.778
334.831
376.766
407.846
430.843
447.76
460.106
468.994
475.248
479.493
482.207
483.766
484.478
484.596
484.428
483.77
83.6551
176.296
251.587
308.56
351.111
382.731
406.072
423.145
435.482
444.234
450.267
454.239
456.656
457.914
458.337
458.201
457.8
457.18
71.9951
153.983
226.328
283.847
328.224
361.868
387.069
405.736
419.381
429.179
436.036
440.652
443.57
445.221
445.955
446.071
445.851
445.411
61.3481
131.294
198.648
255.611
301.583
337.638
365.41
386.526
402.378
414.105
422.62
428.651
432.772
435.446
437.051
437.903
438.277
438.294
51.6738
108.744
168.514
222.671
268.809
306.63
336.885
360.708
379.231
393.462
404.259
412.334
418.27
422.545
425.555
427.628
429.029
429.863
43.2267
87.6589
137.713
186.369
230.362
268.325
300.086
326.139
347.213
364.07
377.428
387.92
396.095
402.416
407.276
411
413.836
415.865
36.1737
69.2538
108.658
149.545
188.819
224.631
256.112
283.118
305.901
324.889
340.571
353.436
363.938
372.484
379.429
385.073
389.641
393.168
30.502
54.1494
83.3515
115.354
147.876
179.2
208.18
234.238
257.201
277.147
294.296
308.933
321.367
331.903
340.822
348.37
354.727
359.874
26.3798
43.2068
64.3028
88.2741
113.702
139.335
164.148
187.443
208.824
228.126
245.343
260.566
273.949
285.671
295.919
304.864
312.625
319.109
23.1453
34.7545
49.3296
66.2978
84.9218
104.455
124.175
143.475
161.915
179.212
195.209
209.849
223.145
235.156
245.967
255.666
264.303
271.722
20.3805
27.7006
36.7647
47.4495
59.4812
72.537
86.2492
100.244
114.194
127.832
140.962
153.447
165.207
176.201
186.421
195.871
204.533
212.204
18.1517
22.2452
27.1577
32.9291
39.5137
46.8321
54.7691
63.1779
71.9012
80.7884
89.7041
98.5327
107.18
115.573
123.658
131.392
138.716
145.428
16.4719
18.3597
20.5328
23.0374
25.8884
29.0897
32.6337
36.4963
40.6395
45.0181
49.5827
54.2833
59.071
63.8998
68.7279
73.5157
78.2146
82.6904
15.3289
15.8747
16.4987
17.2177
18.0394
18.9703
20.0168
21.1821
22.4659
23.8648
25.3728
26.9813
28.6788
30.4516
32.2868
34.1707
36.0855
37.9889
14.751
14.6761
14.6375
14.6362
14.6711
14.7414
14.8473
14.9892
15.1671
15.3811
15.6308
15.9159
16.2365
16.5928
16.9833
17.406
17.858
18.3349
14.8973
14.9724
15.0859
15.2413
15.4388
15.6781
15.9595
16.2828
16.6472
17.051
17.4921
17.9678
18.4751
19.0107
19.5711
20.1525
20.7504
21.3508
15.9697
17.2581
18.7221
20.3884
22.263
24.3451
26.6276
29.0946
31.7221
34.4811
37.3407
40.2693
43.2361
46.2125
49.1728
52.0943
54.9524
57.6885
18.0479
21.9925
26.6817
32.1339
38.2862
45.0421
52.2776
59.8463
67.5972
75.3902
83.1037
90.6371
97.9115
104.869
111.468
117.685
123.5
128.87
21.5606
30.6459
41.907
55.0128
69.4575
84.7226
100.298
115.724
130.635
144.774
157.974
170.145
181.255
191.313
200.357
208.445
215.637
221.979
27.2153
45.2907
67.7661
92.9018
119.049
144.92
169.534
192.252
212.748
230.929
246.844
260.631
272.471
282.566
291.116
298.313
304.331
309.33
35.7106
67.6643
105.653
144.907
182.452
216.653
246.703
272.431
294.061
311.995
326.694
338.614
348.18
355.769
361.708
366.276
369.712
372.244
47.4037
97.5978
152.002
202.646
246.793
283.809
313.976
338.086
357.075
371.831
383.13
391.633
397.886
402.334
405.341
407.199
408.151
408.434
61.8843
131.74
198.682
254.772
299.791
335.016
362.049
382.49
397.724
408.88
416.854
422.349
425.92
427.996
428.917
428.945
428.296
427.184
78.4643
165.753
239.639
296.687
339.767
371.954
395.764
413.171
425.707
434.543
440.564
444.437
446.672
447.657
447.689
447
445.77
444.188
99.5983
200.962
279.476
337.821
380.461
411.817
434.905
451.789
464.013
472.732
478.797
482.835
485.324
486.624
487.012
486.704
485.868
484.671
144.791
258.318
348.625
417.62
468.502
506.8
535.942
558.139
575.062
587.957
597.738
605.086
610.526
614.463
617.213
619.026
620.095
620.62
366.941
498.498
666.631
808.118
923.59
1016.89
1091.98
1152.72
1202.08
1242.33
1275.26
1302.3
1324.56
1342.93
1358.13
1370.71
1381.12
1389.79
3.15899
3.63954
5.3601
6.72291
7.73334
8.42888
8.86182
9.17176
9.59523
10.0973
10.72
11.5302
12.5838
13.9205
15.6656
18.1408
21.1057
24.5706
28.5647
33.1214
38.2563
43.9723
50.1636
56.7546
63.674
70.8553
78.2384
85.7702
93.4053
101.106
108.84
116.586
124.324
132.042
139.734
147.394
155.023
162.621
170.192
177.738
185.266
192.779
200.281
207.777
215.269
222.762
230.257
237.756
245.26
252.769
260.282
267.799
275.319
282.838
290.356
297.868
305.372
312.864
320.34
327.797
335.229
342.634
350.006
357.341
364.634
371.882
379.079
386.223
393.308
400.33
407.287
414.174
420.989
427.729
434.394
441.012
447.485
453.811
460.006
466.078
472.031
477.866
483.584
489.183
494.664
500.025
505.267
510.39
515.394
520.28
525.05
529.704
534.245
538.674
542.993
547.206
551.313
555.319
559.225
563.034
566.748
570.369
573.898
577.338
580.689
583.951
587.124
590.206
593.195
596.087
598.878
601.56
604.128
606.57
608.875
611.029
613.018
614.821
616.418
617.784
618.894
619.716
620.217
620.36
620.106
619.409
618.224
616.5
614.185
611.222
607.562
603.17
598.123
593.145
592.045
595.75
599.723
603.17
605.898
607.804
608.81
608.853
607.883
605.866
602.782
598.628
593.414
587.17
579.939
571.777
562.754
552.95
542.452
531.353
519.745
507.725
495.382
482.805
470.072
457.255
444.417
431.61
418.878
406.252
393.752
381.387
369.155
357.026
344.866
332.518
320.223
307.818
295.239
282.45
269.417
256.078
242.352
228.027
213.059
196.151
10.3586
6.62337
5.91393
5.79548
5.92873
6.23663
6.71844
7.40002
8.29738
9.44352
10.9331
12.7394
14.8412
17.2074
19.7942
22.5562
25.4212
28.3482
31.3188
34.3233
37.352
40.3922
43.4279
46.4504
49.4559
52.4442
55.4171
58.3773
61.3277
64.271
67.2097
70.1457
73.0807
76.0162
78.9535
81.8936
84.8375
87.7863
90.7406
93.7014
96.669
99.6442
102.627
105.618
108.617
111.624
114.639
117.662
120.691
123.727
126.769
129.815
132.864
135.917
138.971
142.024
145.077
148.127
151.172
154.212
157.244
160.267
163.28
166.279
169.265
172.234
175.186
178.117
181.026
183.912
186.771
189.602
192.404
195.174
197.929
200.683
203.399
206.07
208.695
211.275
213.811
216.301
218.746
221.146
223.5
225.807
228.068
230.281
232.448
234.568
236.641
238.668
240.649
242.585
244.476
246.323
248.128
249.89
251.611
253.292
254.934
256.537
258.103
259.632
261.125
262.583
264.005
265.392
266.743
268.059
269.337
270.576
271.775
272.931
274.041
275.1
276.104
277.047
277.923
278.724
279.44
280.063
280.58
280.979
281.245
281.365
281.319
281.093
280.666
280.024
279.155
278.068
276.827
275.689
275.218
275.262
275.217
274.898
274.24
273.208
271.779
269.937
267.671
264.977
261.857
258.317
254.372
250.042
245.351
240.33
235.013
229.438
223.645
217.674
211.567
205.364
199.104
192.823
186.556
180.331
174.177
168.115
162.164
156.34
150.655
145.118
139.734
134.508
129.441
124.593
120.369
116.591
113.153
110.046
107.308
105.018
103.317
102.5
103.018
107.131
19.0078
9.93499
8.18079
7.73158
7.79123
8.19979
8.88236
9.80175
10.9915
12.4812
14.2809
16.3543
18.6282
21.0146
23.4319
25.8221
28.1541
30.4245
32.6475
34.8414
37.022
39.1998
41.3814
43.5713
45.7726
47.9868
50.2142
52.4541
54.7052
56.9657
59.234
61.5085
63.788
66.0716
68.3589
70.6497
72.9443
75.2427
77.5456
79.8532
82.1661
84.4847
86.8094
89.1403
91.4777
93.8216
96.1719
98.5285
100.891
103.259
105.633
108.011
110.392
112.777
115.164
117.553
119.941
122.329
124.715
127.098
129.476
131.849
134.215
136.572
138.919
141.256
143.579
145.889
148.183
150.46
152.72
154.961
157.183
159.392
161.583
163.753
165.896
168.006
170.084
172.127
174.135
176.108
178.044
179.944
181.806
183.63
185.416
187.163
188.87
190.539
192.167
193.756
195.306
196.817
198.288
199.721
201.116
202.473
203.793
205.077
206.325
207.539
208.718
209.864
210.977
212.059
213.108
214.127
215.116
216.074
217.001
217.898
218.764
219.597
220.397
221.162
221.889
222.575
223.217
223.81
224.35
224.83
225.242
225.58
225.833
225.991
226.044
225.98
225.786
225.452
224.972
224.35
223.633
222.914
222.298
221.703
220.961
219.986
218.739
217.194
215.336
213.153
210.641
207.798
204.628
201.141
197.349
193.271
188.93
184.353
179.569
174.61
169.51
164.303
159.023
153.703
148.375
143.069
137.809
132.622
127.526
122.539
117.675
112.945
108.359
103.921
99.6378
95.5108
91.5454
87.7543
84.1826
80.8959
77.8551
75.0571
72.5165
70.2691
68.3849
67.0102
66.4201
67.4214
27.6331
13.1954
10.8016
10.2359
10.3375
10.805
11.5391
12.5357
13.799
15.3242
17.0842
19.0243
21.0699
23.1457
25.194
27.1844
29.1133
30.9956
32.8539
34.7097
36.5788
38.4706
40.3896
42.3369
44.3117
46.3119
48.3349
50.3775
52.4368
54.5099
56.5944
58.6884
60.7903
62.8991
65.014
67.1348
69.2613
71.3936
73.5319
75.6765
77.8277
79.9858
82.151
84.3236
86.5037
88.6913
90.8864
93.0889
95.2985
97.5149
99.7377
101.966
104.2
106.439
108.681
110.926
113.172
115.42
117.668
119.914
122.157
124.396
126.63
128.858
131.077
133.288
135.487
137.674
139.849
142.008
144.152
146.28
148.392
150.485
152.558
154.606
156.627
158.619
160.579
162.506
164.399
166.257
168.079
169.864
171.612
173.322
174.992
176.623
178.214
179.763
181.272
182.74
184.166
185.551
186.895
188.197
189.459
190.68
191.861
193.002
194.105
195.168
196.195
197.184
198.138
199.056
199.939
200.789
201.605
202.389
203.141
203.861
204.549
205.205
205.829
206.419
206.975
207.495
207.975
208.415
208.808
209.152
209.441
209.668
209.826
209.907
209.901
209.799
209.589
209.264
208.814
208.249
207.583
206.843
206.046
205.145
204.071
202.774
201.227
199.407
197.303
194.905
192.21
189.217
185.931
182.363
178.525
174.436
170.119
165.6
160.908
156.073
151.128
146.106
141.039
135.958
130.894
125.872
120.919
116.055
111.299
106.665
102.167
97.812
93.6081
89.5595
85.6687
81.9372
78.3662
74.9583
71.7213
68.6788
65.8327
63.1782
60.7206
58.4769
56.4814
54.8057
53.5774
53.0681
36.1455
16.863
13.7297
12.9795
12.9817
13.3676
14.0437
14.975
16.1408
17.5161
19.0631
20.7312
22.4646
24.2144
25.9487
27.6556
29.3404
31.0178
32.7047
34.4151
36.1581
37.9382
39.7561
41.6108
43.4997
45.4198
47.3679
49.3409
51.3359
53.3501
55.3814
57.4277
59.4875
61.5595
63.6428
65.7367
67.8409
69.955
72.0789
74.2126
76.3562
78.5097
80.6731
82.8466
85.03
87.2233
89.4265
91.6392
93.8613
96.0923
98.3318
100.579
102.834
105.095
107.361
109.633
111.907
114.185
116.464
118.742
121.02
123.294
125.565
127.83
130.088
132.337
134.577
136.805
139.02
141.221
143.407
145.575
147.724
149.851
151.955
154.032
156.079
158.096
160.08
162.029
163.942
165.817
167.654
169.452
171.208
172.923
174.596
176.225
177.809
179.349
180.844
182.292
183.695
185.051
186.36
187.623
188.839
190.009
191.134
192.212
193.246
194.235
195.18
196.082
196.942
197.761
198.538
199.276
199.976
200.636
201.26
201.846
202.397
202.91
203.388
203.829
204.233
204.599
204.924
205.207
205.444
205.633
205.768
205.844
205.855
205.793
205.649
205.415
205.079
204.637
204.08
203.405
202.615
201.712
200.69
199.517
198.158
196.578
194.757
192.677
190.326
187.698
184.789
181.601
178.139
174.414
170.439
166.235
161.824
157.231
152.487
147.622
142.668
137.657
132.622
127.593
122.599
117.667
112.819
108.077
103.456
98.9719
94.6342
90.4511
86.4277
82.5672
78.8705
75.3377
71.9675
68.7585
65.7106
62.8287
60.1194
57.5765
55.2017
53.0028
50.9969
49.2202
47.7312
46.6224
43.036
20.2111
16.4986
15.4796
15.3116
15.5753
16.132
16.9232
17.9146
19.0757
20.3728
21.7684
23.2262
24.7172
26.2244
27.7427
29.2765
30.8344
32.4255
34.0566
35.7316
37.4515
39.2155
41.0218
42.8678
44.7507
46.6678
48.6165
50.5942
52.5985
54.6274
56.6789
58.7514
60.8434
62.9537
65.0813
67.2255
69.3856
71.561
73.7515
75.9567
78.1763
80.4102
82.658
84.9197
87.195
89.4834
91.7848
94.0985
96.4242
98.7611
101.109
103.466
105.832
108.206
110.587
112.973
115.364
117.757
120.152
122.547
124.941
127.33
129.716
132.094
134.464
136.824
139.172
141.508
143.828
146.131
148.413
150.673
152.908
155.116
157.294
159.441
161.552
163.628
165.665
167.663
169.619
171.533
173.402
175.226
177.003
178.732
180.412
182.042
183.622
185.15
186.626
188.049
189.419
190.735
191.998
193.207
194.363
195.465
196.514
197.51
198.454
199.346
200.186
200.977
201.718
202.41
203.054
203.652
204.203
204.71
205.171
205.589
205.964
206.295
206.583
206.827
207.027
207.181
207.287
207.344
207.346
207.292
207.175
206.989
206.729
206.384
205.949
205.414
204.77
204.01
203.127
202.114
200.964
199.666
198.198
196.535
194.653
192.535
190.167
187.54
184.647
181.486
178.061
174.379
170.449
166.289
161.917
157.356
152.635
147.782
142.827
137.804
132.743
127.678
122.638
117.652
112.743
107.937
103.25
98.6998
94.2985
90.0553
85.9769
82.0671
78.3277
74.7582
71.3571
68.1215
65.048
62.1329
59.3748
56.7752
54.3289
52.0347
49.895
47.9175
46.1197
44.5269
43.1674
47.9923
22.945
18.678
17.4272
17.1227
17.2693
17.699
18.34
19.1535
20.1114
21.1883
22.3596
23.6033
24.9025
26.2467
27.6324
29.0603
30.5335
32.0553
33.6278
35.2517
36.9266
38.6512
40.4237
42.2419
44.1039
46.0073
47.9502
49.9305
51.9461
53.9951
56.0757
58.1862
60.3249
62.4906
64.6818
66.8974
69.1364
71.3979
73.6813
75.9858
78.3107
80.6556
83.02
85.4032
87.8048
90.2241
92.6607
95.1136
97.5823
100.066
102.563
105.074
107.596
110.128
112.67
115.219
117.775
120.335
122.898
125.462
128.026
130.586
133.142
135.692
138.233
140.763
143.281
145.784
148.271
150.736
153.178
155.593
157.98
160.336
162.659
164.945
167.193
169.4
171.564
173.684
175.757
177.781
179.756
181.679
183.549
185.365
187.125
188.829
190.474
192.061
193.588
195.054
196.46
197.803
199.085
200.305
201.462
202.557
203.589
204.56
205.469
206.317
207.105
207.832
208.501
209.11
209.663
210.159
210.599
210.984
211.314
211.592
211.816
211.987
212.106
212.172
212.185
212.143
212.044
211.887
211.669
211.385
211.031
210.602
210.092
209.494
208.799
208
207.087
206.051
204.883
203.575
202.115
200.492
198.688
196.686
194.466
192.017
189.325
186.385
183.192
179.745
176.05
172.114
167.95
163.575
159.008
154.275
149.402
144.419
139.356
134.247
129.122
124.013
118.949
113.958
109.062
104.285
99.643
95.1511
90.8205
86.6589
82.6715
78.8607
75.2267
71.7679
68.4811
65.362
62.4056
59.6065
56.9601
54.4634
52.1112
49.9003
47.8295
45.9009
44.121
42.4984
41.0369
53.798
25.1355
20.257
18.7942
18.371
18.4178
18.7402
19.2565
19.9258
20.7235
21.6319
22.6355
23.7216
24.8798
26.1031
27.3874
28.7311
30.1336
31.5948
33.1143
34.6915
36.3253
38.0144
39.7575
41.5532
43.4001
45.2967
47.2414
49.2327
51.2689
53.3484
55.4694
57.6304
59.8297
62.0655
64.3366
66.6414
68.9786
71.3469
73.7453
76.1728
78.6282
81.1106
83.6193
86.1531
88.7114
91.293
93.8971
96.5226
99.1685
101.833
104.516
107.216
109.93
112.658
115.397
118.147
120.905
123.668
126.437
129.207
131.977
134.744
137.507
140.263
143.01
145.745
148.467
151.172
153.855
156.514
159.145
161.746
164.314
166.846
169.341
171.794
174.203
176.567
178.882
181.146
183.357
185.514
187.613
189.654
191.635
193.555
195.411
197.202
198.927
200.585
202.174
203.694
205.144
206.523
207.831
209.067
210.231
211.323
212.342
213.289
214.164
214.968
215.7
216.361
216.952
217.474
217.927
218.312
218.63
218.881
219.067
219.187
219.244
219.236
219.163
219.026
218.824
218.557
218.222
217.816
217.339
216.787
216.155
215.438
214.631
213.727
212.719
211.597
210.354
208.981
207.467
205.803
203.979
201.982
199.8
197.418
194.823
192.004
188.954
185.667
182.142
178.381
174.39
170.179
165.762
161.156
156.384
151.47
146.442
141.33
136.163
130.974
125.794
120.652
115.577
110.593
105.726
100.992
96.4094
91.9902
87.7437
83.6761
79.7909
76.0887
72.5684
69.2268
66.0593
63.0603
60.2235
57.5421
55.0095
52.6197
50.3669
48.2464
46.2548
44.3899
42.6523
41.0416
39.5518
59.8768
26.9424
21.3418
19.6431
19.1044
19.0687
19.3114
19.739
20.3076
20.9942
21.7854
22.6714
23.6447
24.699
25.8292
27.0313
28.3026
29.6409
31.0446
32.5124
34.0433
35.6363
37.2905
39.0053
40.7799
42.6137
44.5058
46.4553
48.4613
50.5225
52.6376
54.8051
57.0235
59.2912
61.6065
63.9677
66.3734
68.8218
71.3114
73.8407
76.4083
79.0128
81.6529
84.327
87.0341
89.7725
92.5411
95.3384
98.1629
101.013
103.887
106.784
109.701
112.636
115.588
118.555
121.534
124.523
127.52
130.522
133.527
136.532
139.534
142.532
145.521
148.5
151.466
154.416
157.344
160.246
163.12
165.962
168.768
171.537
174.265
176.949
179.585
182.172
184.707
187.186
189.608
191.969
194.268
196.503
198.672
200.772
202.802
204.759
206.644
208.453
210.186
211.841
213.417
214.912
216.327
217.66
218.911
220.079
221.164
222.165
223.083
223.918
224.67
225.338
225.923
226.426
226.847
227.187
227.447
227.626
227.726
227.748
227.691
227.557
227.345
227.056
226.687
226.241
225.717
225.112
224.424
223.651
222.791
221.839
220.79
219.64
218.382
217.009
215.514
213.888
212.123
210.209
208.138
205.899
203.484
200.881
198.081
195.073
191.852
188.411
184.749
180.867
176.769
172.465
167.965
163.286
158.447
153.47
148.381
143.208
137.979
132.726
127.478
122.265
117.116
112.057
107.111
102.299
97.6388
93.1439
88.825
84.6892
80.7409
76.9813
73.4095
70.0226
66.8158
63.7834
60.9184
58.2132
55.6599
53.2505
50.9771
48.8331
46.8128
44.9109
43.1229
41.4453
39.8732
38.3971
64.3516
28.1353
21.9397
20.0375
19.4018
19.3045
19.4947
19.8677
20.375
20.9929
21.7093
22.5173
23.412
24.3898
25.4469
26.5804
27.7876
29.0662
30.4147
31.8317
33.3165
34.8688
36.4883
38.1751
39.9294
41.7511
43.6402
45.5965
47.6196
49.7088
51.8632
54.0817
56.3629
58.7054
61.1076
63.5678
66.0842
68.6549
71.2783
73.9523
76.6752
79.4452
82.2604
85.119
88.019
90.9587
93.936
96.9491
99.9958
103.074
106.182
109.317
112.476
115.658
118.86
122.078
125.312
128.557
131.81
135.07
138.332
141.595
144.854
148.107
151.351
154.582
157.797
160.991
164.159
167.295
170.398
173.463
176.488
179.469
182.402
185.285
188.114
190.886
193.598
196.247
198.831
201.347
203.792
206.164
208.461
210.68
212.82
214.879
216.854
218.745
220.549
222.265
223.892
225.427
226.871
228.222
229.479
230.642
231.71
232.684
233.561
234.343
235.03
235.62
236.114
236.513
236.817
237.026
237.14
237.161
237.089
236.923
236.664
236.314
235.872
235.337
234.71
233.99
233.176
232.267
231.261
230.156
228.949
227.636
226.214
224.677
223.019
221.235
219.319
217.261
215.056
212.695
210.171
207.476
204.601
201.541
198.288
194.836
191.183
187.326
183.266
179.009
174.561
169.934
165.142
160.202
155.135
149.965
144.717
139.418
134.098
128.786
123.51
118.299
113.177
108.17
103.298
98.5799
94.0294
89.6581
85.4741
81.4821
77.684
74.0791
70.6645
67.4356
64.3861
61.5087
58.7953
56.2374
53.826
51.5521
49.4063
47.3819
45.4721
43.6703
41.9704
40.3667
38.852
37.4157
67.1893
28.7506
22.1224
20.066
19.3577
19.2191
19.3794
19.7242
20.2001
20.7812
21.4547
22.2143
23.0565
23.9787
24.9791
26.0557
27.2068
28.4312
29.7279
31.0967
32.5374
34.0507
35.6373
37.2981
39.0342
40.8463
42.7354
44.7018
46.7459
48.8676
51.0666
53.342
55.693
58.1182
60.6162
63.1852
65.8235
68.5289
71.2994
74.1329
77.0269
79.9794
82.9877
86.0496
89.1626
92.3241
95.5316
98.7823
102.074
105.403
108.767
112.163
115.587
119.038
122.511
126.004
129.513
133.034
136.565
140.101
143.64
147.177
150.71
154.235
157.747
161.245
164.721
168.169
171.584
174.963
178.302
181.597
184.845
188.042
191.184
194.267
197.289
200.245
203.134
205.951
208.693
211.359
213.944
216.448
218.866
221.198
223.44
225.591
227.649
229.611
231.477
233.243
234.908
236.471
237.93
239.285
240.535
241.678
242.714
243.643
244.463
245.175
245.779
246.272
246.655
246.93
247.094
247.15
247.097
246.936
246.666
246.288
245.803
245.209
244.508
243.7
242.782
241.756
240.621
239.374
238.015
236.54
234.949
233.237
231.4
229.435
227.337
225.1
222.72
220.189
217.502
214.654
211.638
208.448
205.081
201.532
197.798
193.877
189.77
185.479
181.009
176.367
171.565
166.617
161.537
156.348
151.069
145.726
140.344
134.95
129.572
124.237
118.972
113.802
108.75
103.838
99.082
94.4982
90.0978
85.889
81.8769
78.0635
74.4483
71.0283
67.7986
64.7528
61.8831
59.1809
56.6371
54.2421
51.9863
49.8597
47.8523
45.9573
44.1671
42.4743
40.8717
39.3524
37.9082
36.5289
68.512
28.8722
21.9782
19.8209
19.065
18.9025
19.0496
19.3848
19.8501
20.4166
21.07
21.8032
22.6129
23.4975
24.456
25.4879
26.593
27.7713
29.0233
30.3499
31.7523
33.2322
34.7915
36.4321
38.1561
39.9652
41.861
43.8451
45.9182
48.0812
50.3341
52.6768
55.1086
57.6286
60.2354
62.9273
65.7024
68.5586
71.4933
74.5041
77.5883
80.7429
83.9649
87.2513
90.5989
94.0043
97.4642
100.975
104.533
108.136
111.778
115.456
119.168
122.907
126.672
130.457
134.259
138.074
141.897
145.725
149.553
153.378
157.196
161.002
164.793
168.563
172.302
176.006
179.671
183.292
186.866
190.389
193.856
197.265
200.609
203.886
207.092
210.224
213.278
216.252
219.141
221.944
224.657
227.278
229.804
232.233
234.561
236.788
238.911
240.928
242.838
244.636
246.321
247.892
249.348
250.687
251.909
253.012
253.995
254.858
255.599
256.218
256.715
257.088
257.337
257.463
257.465
257.343
257.097
256.728
256.234
255.617
254.875
254.01
253.021
251.907
250.669
249.305
247.814
246.196
244.448
242.57
240.557
238.409
236.122
233.691
231.115
228.388
225.507
222.466
219.263
215.893
212.353
208.641
204.754
200.694
196.459
192.053
187.48
182.747
177.863
172.839
167.689
162.43
157.081
151.663
146.2
140.715
135.234
129.784
124.389
119.075
113.865
108.782
103.846
99.073
94.4779
90.0717
85.8623
81.8547
78.0507
74.4495
71.0481
67.841
64.8215
61.9813
59.3114
56.8019
54.4428
52.2237
50.1344
48.1645
46.3038
44.5456
42.8816
41.304
39.805
38.3772
37.0122
35.7007
68.4771
28.5865
21.5889
19.3846
18.6058
18.4343
18.5805
18.9185
19.3871
19.9546
20.6046
21.3289
22.1238
22.9878
23.9207
24.9233
25.9966
27.1423
28.3624
29.6592
31.0356
32.4944
34.039
35.6723
37.3975
39.2175
41.1345
43.1509
45.2686
47.489
49.8128
52.2404
54.7715
57.4056
60.1412
62.9769
65.9105
68.9396
72.0616
75.2733
78.5714
81.9524
85.4126
88.948
92.5546
96.2281
99.9643
103.759
107.607
111.504
115.445
119.426
123.442
127.489
131.56
135.653
139.761
143.88
148.006
152.134
156.259
160.377
164.483
168.574
172.643
176.678
180.675
184.628
188.534
192.387
196.185
199.922
203.596
207.202
210.732
214.185
217.558
220.845
224.046
227.155
230.17
233.089
235.907
238.622
241.232
243.733
246.124
248.402
250.565
252.611
254.537
256.341
258.021
259.576
261.003
262.301
263.47
264.507
265.411
266.181
266.817
267.317
267.681
267.907
267.996
267.946
267.757
267.429
266.962
266.355
265.609
264.722
263.695
262.528
261.219
259.769
258.177
256.443
254.564
252.541
250.372
248.055
245.589
242.971
240.199
237.271
234.183
230.934
227.521
223.941
220.193
216.276
212.189
207.933
203.51
198.923
194.178
189.282
184.243
179.071
173.782
168.389
162.91
157.365
151.775
146.163
140.553
134.968
129.434
123.973
118.61
113.366
108.262
103.316
98.5432
93.9565
89.5662
85.3793
81.4
77.6294
74.0663
70.707
67.5456
64.5749
61.7859
59.169
56.7138
54.4096
52.2456
50.2109
48.2948
46.4868
44.7773
43.1595
41.6249
40.1651
38.7725
37.4394
36.1581
34.9202
67.2415
27.9688
21.0227
18.825
18.048
17.8817
18.0374
18.3882
18.8711
19.4524
20.1141
20.8467
21.6456
22.5095
23.4384
24.4336
25.4975
26.6331
27.844
29.134
30.5075
31.9687
33.5224
35.1731
36.9252
38.7823
40.7468
42.8223
45.0118
47.3174
49.7406
52.2822
54.9423
57.7204
60.6154
63.6255
66.7486
69.9818
73.3218
76.7651
80.3075
83.9448
87.6722
91.4849
95.3777
99.3453
103.382
107.483
111.642
115.854
120.112
124.412
128.746
133.111
137.499
141.905
146.325
150.752
155.181
159.608
164.027
168.433
172.822
177.187
181.515
185.799
190.035
194.218
198.343
202.406
206.402
210.327
214.178
217.949
221.636
225.236
228.744
232.157
235.472
238.686
241.795
244.797
247.688
250.465
253.126
255.668
258.089
260.386
262.557
264.599
266.51
268.288
269.931
271.437
272.804
274.029
275.113
276.052
276.847
277.494
277.993
278.344
278.543
278.592
278.488
278.231
277.821
277.256
276.536
275.661
274.63
273.443
272.098
270.597
268.937
267.119
265.142
263.005
260.707
258.248
255.626
252.84
249.888
246.77
243.484
240.029
236.403
232.605
228.636
224.495
220.182
215.701
211.052
206.242
201.276
196.162
190.909
185.529
180.035
174.443
168.771
163.037
157.262
151.469
145.681
139.921
134.213
128.58
123.046
117.631
112.355
107.236
102.291
97.5323
92.9714
88.6166
84.4732
80.5441
76.8293
73.3266
70.0313
66.9371
64.0357
61.3178
58.773
56.3902
54.1581
52.0653
50.1006
48.2527
46.5112
44.8652
43.3066
41.8283
40.4216
39.0784
37.7909
36.552
35.3546
34.1917
64.948
27.0808
20.3334
18.1959
17.4476
17.3027
17.4806
17.8563
18.3669
18.978
19.6706
20.434
21.2635
22.1578
23.1162
24.139
25.2301
26.3936
27.6344
28.9578
30.3692
31.8745
33.4794
35.1896
37.0104
38.9466
41.0025
43.1822
45.4891
47.9259
50.4945
53.196
56.0308
58.9983
62.0974
65.326
68.6814
72.1602
75.7586
79.4719
83.2953
87.2233
91.2502
95.3699
99.5761
103.862
108.222
112.648
117.133
121.672
126.256
130.88
135.536
140.218
144.92
149.635
154.357
159.081
163.8
168.509
173.204
177.878
182.525
187.129
191.683
196.183
200.623
204.998
209.304
213.537
217.691
221.763
225.748
229.643
233.443
237.145
240.745
244.24
247.625
250.899
254.058
257.099
260.019
262.815
265.485
268.025
270.434
272.708
274.845
276.843
278.699
280.412
281.978
283.396
284.664
285.779
286.74
287.546
288.193
288.681
289.008
289.173
289.174
289.01
288.679
288.181
287.515
286.68
285.674
284.497
283.148
281.627
279.933
278.065
276.022
273.804
271.411
268.841
266.093
263.168
260.064
256.78
253.317
249.673
245.849
241.844
237.658
233.294
228.752
224.035
219.148
214.095
208.882
203.519
198.016
192.385
186.64
180.797
174.876
168.896
162.878
156.846
150.824
144.835
138.904
133.055
127.311
121.693
116.222
110.914
105.785
100.85
96.1178
91.5981
87.2962
83.2154
79.3564
75.7177
72.2956
69.0842
66.076
63.262
60.6322
58.1753
55.8799
53.7339
51.7255
49.8428
48.0745
46.4096
44.8376
43.3478
41.9348
40.5902
39.3055
38.0729
36.8853
35.7359
34.6188
33.5281
61.5772
25.9494
19.544
17.525
16.8379
16.7386
16.9606
17.3843
17.9485
18.6196
19.3778
20.212
21.1162
22.088
23.127
24.2349
25.4149
26.6716
28.0104
29.4375
30.9592
32.5823
34.3135
36.1593
38.126
40.2194
42.4446
44.8062
47.3081
49.9531
52.7434
55.6801
58.7632
61.992
65.3647
68.8787
72.5304
76.3156
80.2293
84.2659
88.4192
92.6825
97.0488
101.511
106.06
110.69
115.392
120.159
124.981
129.852
134.763
139.707
144.676
149.663
154.662
159.664
164.665
169.657
174.635
179.594
184.53
189.428
194.275
199.065
203.792
208.451
213.038
217.547
221.975
226.316
230.567
234.724
238.782
242.739
246.59
250.332
253.962
257.476
260.872
264.145
267.294
270.314
273.205
275.961
278.582
281.064
283.404
285.6
287.65
289.55
291.299
292.894
294.333
295.613
296.731
297.687
298.477
299.1
299.553
299.835
299.944
299.877
299.634
299.212
298.611
297.828
296.863
295.713
294.379
292.858
291.15
289.254
287.169
284.894
282.428
279.772
276.923
273.883
270.649
267.223
263.603
259.79
255.783
251.585
247.196
242.617
237.851
232.902
227.773
222.471
217.002
211.376
205.604
199.697
193.672
187.546
181.337
175.067
168.759
162.437
156.128
149.857
143.65
137.534
131.531
125.667
119.96
114.43
109.094
103.962
99.0478
94.3571
89.8957
85.6661
81.6685
77.9011
74.36
71.0394
67.9318
65.0284
62.3192
59.7933
57.4388
55.2437
53.1956
51.282
49.491
47.8108
46.23
44.7383
43.3257
41.9824
40.7047
39.4836
38.311
37.1796
36.0829
35.0152
33.9714
32.9471
58.0505
24.946
18.8619
16.9654
16.358
16.3296
16.6265
17.1355
17.7984
18.5825
19.4682
20.4438
21.5025
22.6407
23.8573
25.1534
26.5314
27.9954
29.5504
31.2024
32.9578
34.8234
36.806
38.9125
41.1491
43.522
46.0362
48.6963
51.5059
54.4674
57.5826
60.8519
64.2745
67.8489
71.5723
75.4409
79.4502
83.5945
87.8678
92.2631
96.7729
101.389
106.104
110.909
115.795
120.753
125.774
130.85
135.972
141.131
146.318
151.527
156.749
161.976
167.202
172.42
177.624
182.808
187.966
193.095
198.173
203.19
208.141
213.02
217.823
222.545
227.182
231.73
236.184
240.54
244.795
248.946
252.988
256.919
260.735
264.433
268.01
271.463
274.789
277.985
281.048
283.976
286.765
289.413
291.918
294.276
296.484
298.541
300.444
302.189
303.775
305.198
306.457
307.547
308.468
309.216
309.789
310.185
310.401
310.435
310.284
309.947
309.422
308.706
307.798
306.695
305.397
303.901
302.207
300.312
298.216
295.917
293.414
290.707
287.795
284.676
281.351
277.819
274.081
270.136
265.985
261.628
257.068
252.307
247.346
242.19
236.844
231.313
225.605
219.729
213.695
207.518
201.212
194.795
188.286
181.708
175.086
168.446
161.814
155.22
148.693
142.261
135.951
129.79
123.801
118.005
112.42
107.059
101.933
97.0503
92.4146
88.0274
83.8877
79.9919
76.3349
72.9097
69.7079
66.7201
63.9358
61.3436
58.9318
56.688
54.5998
52.6544
50.8394
49.1425
47.5519
46.0564
44.6454
43.3089
42.0382
40.8254
39.6663
38.5526
37.4767
36.4321
35.4132
34.4152
33.434
32.4665
54.3593
23.9364
18.2641
16.5403
16.0605
16.1577
16.5939
17.2629
18.1101
19.1041
20.2256
21.462
22.8048
24.2488
25.7906
27.4291
29.1646
30.999
32.9353
34.9777
37.131
39.4006
41.792
44.3109
46.9626
49.7519
52.6831
55.7597
58.9841
62.3578
65.8814
69.5541
73.3743
77.339
81.4445
85.686
90.0579
94.5537
99.1664
103.888
108.711
113.627
118.626
123.7
128.84
134.036
139.28
144.563
149.876
155.211
160.56
165.914
171.268
176.613
181.944
187.255
192.54
197.795
203.011
208.163
213.246
218.257
223.189
228.038
232.801
237.472
242.049
246.527
250.904
255.175
259.337
263.388
267.324
271.142
274.84
278.413
281.86
285.178
288.364
291.415
294.328
297.101
299.73
302.214