/*--------------------------------*- C++ -*----------------------------------*\
| =========                 |                                                 |
| \\      /  F ield         | OpenFOAM: The Open Source CFD Toolbox           |
|  \\    /   O peration     | Version:  2412                                  |
|   \\  /    A nd           | Website:  www.openfoam.com                      |
|    \\/     M anipulation  |                                                 |
\*---------------------------------------------------------------------------*/
FoamFile
{
    version     2.0;
    format      ascii;
    arch        "LSB;label=32;scalar=64";
    class       volScalarField;
    location    "0.07";
    object      k;
}
// * * * * * * * * * * * * * * * * * * * * * * * * * * * * * * * * * * * * * //

dimensions      [0 2 -2 0 0 0 0];

internalField   nonuniform List<scalar> 
12225
(
0.316793
0.394485
0.477883
0.542572
0.593765
0.634285
0.66661
0.692635
0.713703
0.730831
0.744799
0.756203
0.765497
0.773025
0.779058
0.783758
0.787365
0.791045
0.569138
0.788901
0.95255
1.06794
1.15112
1.21259
1.25804
1.29154
1.31612
1.3339
1.34645
1.35496
1.36034
1.36327
1.36431
1.36378
1.36282
1.36044
0.67006
0.972145
1.18321
1.33197
1.43938
1.51852
1.57681
1.61954
1.6506
1.67281
1.68827
1.69851
1.70476
1.70792
1.70875
1.7078
1.70603
1.70366
0.722109
1.07674
1.3265
1.50445
1.63399
1.72965
1.80034
1.85233
1.89025
1.9175
1.9366
1.94944
1.95747
1.96184
1.96345
1.96307
1.96166
1.95988
0.742776
1.12921
1.41225
1.61818
1.77022
1.88336
1.9676
2.03012
2.07619
2.10972
2.13364
2.15019
2.16107
2.16762
2.17095
2.17198
2.17172
2.17095
0.739923
1.13778
1.44641
1.67824
1.85309
1.9851
2.08471
2.15969
2.21581
2.25744
2.28791
2.30974
2.32491
2.335
2.34125
2.34475
2.34654
2.34737
0.719633
1.10884
1.43139
1.68411
1.88039
2.0319
2.14842
2.23781
2.3061
2.35797
2.39702
2.42608
2.44736
2.46262
2.4733
2.48062
2.4856
2.48891
0.687659
1.0505
1.37192
1.6366
1.8499
2.01945
2.15317
2.25819
2.34039
2.40445
2.45415
2.49247
2.52181
2.54411
2.56095
2.57362
2.58317
2.59013
0.649008
0.972438
1.27672
1.54096
1.76316
1.94621
2.09506
2.21527
2.31192
2.38935
2.45122
2.50051
2.5397
2.57082
2.59552
2.61516
2.63077
2.64274
0.60751
0.884155
1.1576
1.40759
1.62751
1.81607
1.9749
2.10727
2.21689
2.30728
2.38163
2.44269
2.49282
2.53402
2.56793
2.59593
2.61896
2.63726
0.565848
0.793393
1.02697
1.25051
1.45596
1.63956
1.80016
1.93868
2.05708
2.15769
2.24288
2.3149
2.37576
2.42726
2.4709
2.50796
2.53929
2.56487
0.528776
0.71217
0.905319
1.09668
1.279
1.44793
1.601
1.73744
1.8577
1.9629
2.05447
2.13395
2.20287
2.26264
2.31453
2.3596
2.39854
2.431
0.494683
0.637346
0.79072
0.947207
1.10108
1.24848
1.38659
1.51376
1.62936
1.73346
1.82661
1.90959
1.98333
2.04879
2.10688
2.15839
2.20376
2.24234
0.460704
0.562215
0.673273
0.789882
0.908203
1.02536
1.13903
1.2474
1.34932
1.44416
1.53171
1.61205
1.68548
1.7524
1.81326
1.86849
1.91824
1.96149
0.42937
0.492808
0.562907
0.638464
0.717608
0.798677
0.880177
0.960754
1.03931
1.11503
1.18737
1.25597
1.32065
1.38138
1.43817
1.49109
1.53998
1.58363
0.403187
0.435428
0.471056
0.510179
0.552375
0.597118
0.643833
0.691878
0.740608
0.789445
0.837892
0.885543
0.932069
0.977215
1.02079
1.06262
1.10242
1.13911
0.384094
0.394635
0.406527
0.419963
0.434948
0.451444
0.46939
0.488676
0.509144
0.530611
0.552884
0.575765
0.599044
0.622515
0.64601
0.669368
0.692382
0.714514
0.37405
0.373716
0.3741
0.375222
0.37706
0.379591
0.382804
0.386684
0.39121
0.396353
0.40208
0.408351
0.415138
0.422413
0.430123
0.43821
0.446605
0.455194
0.3766
0.37891
0.381965
0.385815
0.390434
0.395784
0.40183
0.408528
0.415818
0.423633
0.431904
0.440558
0.449525
0.458738
0.468132
0.477646
0.487205
0.496588
0.394931
0.417741
0.44289
0.470451
0.500143
0.531601
0.564434
0.59821
0.63248
0.666826
0.700883
0.73434
0.766946
0.798504
0.828868
0.857931
0.885574
0.911405
0.427746
0.489007
0.556124
0.627845
0.702331
0.777938
0.853232
0.926956
0.998101
1.06594
1.13001
1.19002
1.24588
1.29759
1.34525
1.38903
1.42907
1.46541
0.47571
0.594899
0.723475
0.855766
0.986883
1.1135
1.23324
1.3445
1.44645
1.53888
1.622
1.69628
1.76233
1.82083
1.87249
1.91799
1.95796
1.99291
0.536815
0.728618
0.928484
1.1235
1.30609
1.47259
1.62125
1.75185
1.86525
1.96293
2.04654
2.11779
2.17826
2.22941
2.27256
2.30883
2.3392
2.36454
0.604114
0.873898
1.14003
1.38219
1.59419
1.77567
1.92836
2.05527
2.15996
2.24583
2.31591
2.37285
2.41887
2.45583
2.4853
2.50856
2.52669
2.54063
0.668294
1.00761
1.31632
1.57517
1.78689
1.95776
2.09415
2.20228
2.28757
2.35449
2.40666
2.44698
2.47777
2.5009
2.51785
2.52984
2.53783
2.54269
0.71729
1.09916
1.41412
1.6588
1.848
1.99385
2.10575
2.19127
2.25629
2.30535
2.34193
2.36871
2.3878
2.40082
2.40906
2.41353
2.41503
2.4143
0.735711
1.1186
1.40731
1.6198
1.77769
1.8957
1.98393
2.04964
2.09824
2.13375
2.15921
2.17689
2.18854
2.19551
2.19883
2.19931
2.1976
2.1943
0.708198
1.04716
1.29076
1.46559
1.59178
1.68432
1.75252
1.80252
1.83887
1.86491
1.88309
1.89524
1.90275
1.90667
1.90783
1.90685
1.90423
1.90045
0.616922
0.862584
1.04893
1.18269
1.27681
1.345
1.39494
1.4314
1.45783
1.47675
1.48996
1.49879
1.50427
1.50714
1.50801
1.50733
1.50547
1.50281
0.33327
0.408796
0.496198
0.564132
0.616665
0.657523
0.689508
0.714843
0.735107
0.751425
0.764645
0.775413
0.784223
0.791457
0.797414
0.802332
0.806387
0.809756
0.0162155
0.0295166
0.0381921
0.0444062
0.0487387
0.0516056
0.053347
0.0545992
0.0562748
0.0582292
0.0606118
0.0636384
0.0674626
0.0721625
0.0781226
0.0861655
0.0952991
0.105429
0.116516
0.128534
0.141414
0.155078
0.169208
0.18361
0.198128
0.212637
0.227038
0.241259
0.255246
0.26896
0.28238
0.295493
0.308297
0.320797
0.333004
0.344932
0.356597
0.368017
0.379211
0.390197
0.400991
0.41161
0.422067
0.432377
0.44255
0.452595
0.462522
0.472336
0.482044
0.49165
0.501156
0.510565
0.519879
0.529098
0.538221
0.547249
0.556179
0.565011
0.573742
0.582371
0.590895
0.599311
0.607616
0.61581
0.623888
0.631848
0.639688
0.647406
0.654999
0.662466
0.669804
0.677013
0.684091
0.69104
0.697868
0.704576
0.711078
0.717385
0.723515
0.729479
0.73528
0.740923
0.746407
0.751736
0.756909
0.761929
0.766796
0.771512
0.77608
0.780501
0.784778
0.788915
0.792913
0.796776
0.800507
0.804111
0.807589
0.810946
0.814185
0.81731
0.820323
0.823227
0.826026
0.828721
0.831313
0.833805
0.836195
0.838485
0.840672
0.842755
0.84473
0.846591
0.848334
0.84995
0.851429
0.852761
0.853932
0.854927
0.855727
0.856313
0.856661
0.856745
0.856537
0.856005
0.855114
0.853825
0.852098
0.849887
0.847145
0.843821
0.839868
0.835244
0.829984
0.824532
0.821658
0.823947
0.826926
0.829472
0.831378
0.832545
0.832904
0.832396
0.830977
0.828613
0.825282
0.820974
0.815691
0.80945
0.802279
0.794219
0.785319
0.77564
0.765251
0.754224
0.742637
0.730568
0.718095
0.705293
0.692234
0.678983
0.665598
0.65213
0.638621
0.625105
0.611602
0.598124
0.584671
0.571222
0.557669
0.543803
0.52979
0.515553
0.500972
0.485977
0.470502
0.454443
0.437668
0.41986
0.400884
0.378975
0.0357759
0.0578573
0.0751229
0.0878087
0.0977941
0.106396
0.114667
0.122961
0.131116
0.140259
0.151511
0.164851
0.180002
0.196436
0.213549
0.2309
0.248242
0.265643
0.283327
0.30152
0.320369
0.339927
0.360171
0.38105
0.40249
0.4244
0.446677
0.469214
0.491903
0.514643
0.537342
0.559924
0.582327
0.604504
0.626425
0.648073
0.66944
0.690528
0.711347
0.731908
0.752227
0.772321
0.792206
0.811899
0.831414
0.850765
0.869963
0.889019
0.907939
0.926731
0.945399
0.963945
0.982371
1.00068
1.01886
1.03692
1.05485
1.07265
1.09032
1.10784
1.12521
1.14243
1.15949
1.17638
1.19309
1.20962
1.22597
1.24212
1.25807
1.27381
1.28935
1.30466
1.31975
1.33461
1.34912
1.36319
1.37691
1.39031
1.40341
1.4162
1.42871
1.44091
1.45283
1.46446
1.47579
1.48683
1.49758
1.50805
1.51823
1.52813
1.53775
1.54709
1.55618
1.565
1.57357
1.58189
1.58998
1.59784
1.60548
1.61292
1.62016
1.62721
1.63408
1.64079
1.64735
1.65376
1.66003
1.66617
1.6722
1.67811
1.68392
1.68961
1.69521
1.70069
1.70607
1.71132
1.71645
1.72142
1.72623
1.73084
1.73522
1.73935
1.74316
1.74661
1.74964
1.75218
1.75416
1.75548
1.75606
1.75579
1.75458
1.75232
1.74897
1.74466
1.73985
1.73447
1.72779
1.71951
1.70946
1.69753
1.68364
1.66771
1.6497
1.62959
1.6074
1.58315
1.5569
1.52876
1.49882
1.46724
1.43418
1.39981
1.36433
1.32793
1.29084
1.25324
1.21534
1.17732
1.13937
1.10165
1.06431
1.02747
0.99124
0.955716
0.920967
0.88705
0.854006
0.821858
0.790586
0.760107
0.730122
0.701339
0.674022
0.648251
0.624099
0.601687
0.581179
0.563209
0.547624
0.543227
0.0536151
0.0873732
0.111979
0.129555
0.143781
0.15678
0.169008
0.180774
0.193101
0.206819
0.222451
0.240003
0.25906
0.279014
0.29933
0.319727
0.340216
0.361031
0.382492
0.404872
0.428334
0.452918
0.47857
0.505169
0.532554
0.560544
0.588957
0.617615
0.646362
0.675063
0.70361
0.73192
0.759934
0.787615
0.814945
0.841919
0.868542
0.894827
0.920793
0.946461
0.971854
0.996992
1.0219
1.04659
1.07108
1.0954
1.11954
1.14353
1.16737
1.19106
1.21462
1.23804
1.26133
1.28447
1.30748
1.33035
1.35307
1.37563
1.39804
1.42027
1.44233
1.46421
1.48589
1.50736
1.52862
1.54966
1.57047
1.59104
1.61135
1.6314
1.65118
1.67069
1.6899
1.70871
1.72712
1.74514
1.76277
1.78001
1.79687
1.81334
1.82944
1.84514
1.86046
1.87538
1.88992
1.90405
1.9178
1.93115
1.94411
1.95667
1.96885
1.98064
1.99205
2.00309
2.01376
2.02406
2.03402
2.04363
2.0529
2.06186
2.0705
2.07884
2.08689
2.09467
2.10218
2.10944
2.11646
2.12325
2.12982
2.13618
2.14234
2.1483
2.15407
2.15965
2.16503
2.17022
2.1752
2.17995
2.18446
2.1887
2.19264
2.19624
2.19946
2.20223
2.20449
2.20616
2.20716
2.2074
2.20676
2.20513
2.20239
2.19843
2.19323
2.18681
2.1792
2.17019
2.15942
2.14664
2.13169
2.11444
2.09478
2.07266
2.048
2.0208
1.99107
1.95886
1.92425
1.88735
1.84833
1.80735
1.76463
1.72039
1.67488
1.62835
1.58106
1.53327
1.48522
1.43716
1.3893
1.34184
1.29497
1.24882
1.20355
1.15925
1.116
1.07388
1.03292
0.99314
0.954554
0.917084
0.880509
0.844657
0.80989
0.776274
0.743856
0.712691
0.682825
0.654534
0.627716
0.605797
0.0688163
0.120647
0.151715
0.17322
0.19064
0.205758
0.219555
0.23319
0.247522
0.263163
0.28042
0.299257
0.319377
0.340396
0.36203
0.384198
0.407016
0.430711
0.455515
0.481584
0.50896
0.537582
0.567309
0.597957
0.629323
0.661204
0.693409
0.725773
0.758153
0.790436
0.822533
0.854378
0.88593
0.917162
0.948061
0.978629
1.00887
1.0388
1.06844
1.0978
1.1269
1.15576
1.18441
1.21285
1.24111
1.26919
1.29711
1.32488
1.3525
1.37997
1.40731
1.43451
1.46158
1.4885
1.51527
1.5419
1.56837
1.59467
1.6208
1.64675
1.6725
1.69805
1.72338
1.74848
1.77334
1.79795
1.8223
1.84637
1.87015
1.89362
1.91679
1.93963
1.96205
1.98405
2.00562
2.02676
2.04746
2.06771
2.08752
2.10686
2.12575
2.14418
2.16213
2.1796
2.1966
2.21311
2.22913
2.24467
2.25971
2.27426
2.28832
2.30188
2.31497
2.32756
2.33968
2.35133
2.36251
2.37323
2.38351
2.39334
2.40275
2.41174
2.42033
2.42852
2.43633
2.44378
2.45087
2.45761
2.46403
2.47013
2.47591
2.4814
2.48658
2.49148
2.49608
2.50039
2.50439
2.50808
2.51144
2.51445
2.51706
2.51926
2.52098
2.52218
2.52279
2.52272
2.52189
2.52021
2.51755
2.5138
2.50883
2.50258
2.49494
2.48584
2.4752
2.46279
2.44835
2.43169
2.41264
2.39105
2.36683
2.33989
2.3102
2.27772
2.24248
2.20455
2.16401
2.12101
2.07572
2.02834
1.97912
1.92831
1.87619
1.82304
1.76917
1.71486
1.66039
1.60602
1.552
1.49856
1.44588
1.39415
1.34348
1.29401
1.24582
1.19896
1.15349
1.10942
1.06675
1.02542
0.985325
0.946255
0.908283
0.871437
0.835715
0.801119
0.76764
0.735361
0.70415
0.675214
0.0822879
0.151404
0.189152
0.214799
0.23446
0.250777
0.265574
0.280037
0.295008
0.311058
0.328494
0.347381
0.367614
0.389038
0.411552
0.43516
0.459951
0.486046
0.51353
0.542418
0.572642
0.60407
0.636527
0.669817
0.703746
0.738133
0.772813
0.807647
0.842519
0.877335
0.912023
0.94653
0.980817
1.01486
1.04865
1.08217
1.11544
1.14846
1.18123
1.21377
1.2461
1.27823
1.31017
1.34193
1.37353
1.40497
1.43627
1.46743
1.49845
1.52934
1.56009
1.59072
1.6212
1.65155
1.68175
1.7118
1.74169
1.77141
1.80094
1.83028
1.85941
1.88833
1.91701
1.94544
1.9736
2.00149
2.02909
2.05638
2.08334
2.10997
2.13625
2.1621
2.1875
2.21244
2.23691
2.2609
2.28439
2.30738
2.32986
2.35181
2.37323
2.39411
2.41443
2.4342
2.4534
2.47203
2.49008
2.50754
2.52441
2.5407
2.55639
2.57148
2.58598
2.59989
2.6132
2.62593
2.63808
2.64965
2.66065
2.67109
2.68098
2.69033
2.69915
2.70745
2.71525
2.72255
2.72937
2.73572
2.74161
2.74706
2.75208
2.75667
2.76085
2.76461
2.76796
2.77091
2.77344
2.77554
2.77721
2.77841
2.77913
2.77932
2.77894
2.77794
2.77625
2.77379
2.77048
2.76622
2.76087
2.75437
2.74658
2.73739
2.72668
2.71435
2.70023
2.68415
2.66589
2.64527
2.62212
2.59632
2.56776
2.53636
2.50208
2.46491
2.42488
2.38206
2.33656
2.28853
2.23817
2.1857
2.13138
2.0755
2.01835
1.96024
1.9015
1.84242
1.78332
1.72447
1.66614
1.60855
1.55192
1.49641
1.44217
1.38932
1.33793
1.28808
1.23979
1.19307
1.14792
1.1043
1.0621
1.0212
0.981489
0.942983
0.905641
0.86943
0.834308
0.800269
0.76717
0.735501
0.092419
0.178212
0.222302
0.250952
0.272335
0.289869
0.305454
0.320345
0.335443
0.351384
0.368575
0.387226
0.407404
0.429108
0.452324
0.477059
0.503332
0.531148
0.560477
0.591236
0.6233
0.656509
0.690686
0.725655
0.761246
0.797306
0.8337
0.870312
0.907045
0.943822
0.980577
1.01726
1.05384
1.09028
1.12657
1.1627
1.19866
1.23444
1.27006
1.30551
1.34081
1.37596
1.41096
1.44583
1.48056
1.51517
1.54966
1.58404
1.61829
1.65243
1.68645
1.72035
1.75413
1.78777
1.82127
1.85461
1.8878
1.92081
1.95363
1.98625
2.01865
2.05082
2.08274
2.11439
2.14576
2.17683
2.20757
2.23798
2.26803
2.29771
2.32696
2.35574
2.38403
2.41181
2.43908
2.46581
2.49199
2.51761
2.54264
2.56709
2.59092
2.61414
2.63673
2.65867
2.67997
2.70059
2.72055
2.73983
2.75841
2.77631
2.7935
2.80999
2.82578
2.84086
2.85523
2.86889
2.88185
2.89411
2.90568
2.91656
2.92675
2.93627
2.94513
2.95333
2.96089
2.96782
2.97413
2.97984
2.98494
2.98946
2.99341
2.9968
2.99963
3.00191
3.00365
3.00484
3.00548
3.00557
3.0051
3.00403
3.00235
3.00002
2.99701
2.99325
2.98869
2.98326
2.97684
2.96939
2.96079
2.95093
2.93969
2.92695
2.91258
2.89643
2.87838
2.85823
2.83581
2.81095
2.78351
2.75335
2.72039
2.68456
2.64582
2.60417
2.55966
2.51237
2.46242
2.40998
2.35526
2.2985
2.23997
2.17998
2.11884
2.05687
1.99441
1.93177
1.86928
1.80721
1.74584
1.6854
1.6261
1.56811
1.51158
1.45661
1.40328
1.35164
1.30172
1.25351
1.20701
1.16216
1.11888
1.07706
1.03654
0.997294
0.959263
0.922389
0.886603
0.851844
0.817961
0.785191
0.0993888
0.19944
0.247915
0.279312
0.302679
0.321602
0.338092
0.35349
0.368778
0.384683
0.401726
0.420244
0.440428
0.462367
0.486084
0.511568
0.538776
0.56764
0.598059
0.629904
0.663028
0.697269
0.732467
0.768468
0.805128
0.842321
0.879933
0.917869
0.956045
0.994392
1.03285
1.07137
1.10992
1.14846
1.18698
1.22544
1.26384
1.30217
1.34042
1.37859
1.41667
1.45467
1.49258
1.53041
1.56816
1.60583
1.64341
1.6809
1.71831
1.75562
1.79283
1.82995
1.86694
1.90382
1.94056
1.97716
2.0136
2.04986
2.08593
2.12179
2.15742
2.19281
2.22793
2.26276
2.2973
2.3315
2.36535
2.39884
2.43194
2.46462
2.49679
2.52846
2.55959
2.59017
2.62018
2.64961
2.67842
2.70661
2.73415
2.76102
2.78722
2.81272
2.8375
2.86156
2.88487
2.90743
2.92922
2.95023
2.97046
2.98988
3.0085
3.0263
3.04328
3.05944
3.07476
3.08926
3.10292
3.11576
3.12776
3.13895
3.14931
3.15886
3.1676
3.17555
3.1827
3.18907
3.19468
3.19952
3.20361
3.20697
3.2096
3.21151
3.21271
3.21321
3.21301
3.21211
3.21051
3.2082
3.20518
3.20142
3.19689
3.19159
3.18546
3.17843
3.17048
3.16154
3.15152
3.14035
3.12792
3.11413
3.09886
3.08198
3.06337
3.0429
3.02041
2.99577
2.9688
2.93937
2.90734
2.87261
2.8351
2.79474
2.75153
2.70548
2.65664
2.60512
2.55105
2.49462
2.43605
2.37558
2.31351
2.25016
2.18583
2.12087
2.05561
1.99039
1.9255
1.86125
1.79789
1.73566
1.67476
1.61536
1.55759
1.50154
1.44729
1.39486
1.34428
1.29554
1.2486
1.2034
1.15986
1.11788
1.07729
1.03801
0.999978
0.963112
0.927322
0.892511
0.858521
0.825481
0.107399
0.213831
0.265871
0.299807
0.325124
0.345547
0.363152
0.37933
0.395113
0.411296
0.428477
0.447081
0.467377
0.489508
0.513523
0.539399
0.567069
0.596428
0.62735
0.659694
0.69331
0.728051
0.763776
0.800354
0.837665
0.875602
0.914073
0.952994
0.992293
1.03191
1.07178
1.11187
1.15213
1.19252
1.23302
1.2736
1.31424
1.35492
1.39563
1.43635
1.47707
1.51779
1.5585
1.59919
1.63985
1.68048
1.72108
1.76163
1.80214
1.84258
1.88294
1.92323
1.96343
2.00351
2.04348
2.0833
2.12297
2.16247
2.20177
2.24085
2.2797
2.31829
2.3566
2.3946
2.43227
2.4696
2.50654
2.54309
2.57921
2.61482
2.6499
2.68442
2.71836
2.75171
2.78443
2.8165
2.84791
2.87862
2.90861
2.93787
2.96637
2.99409
3.02102
3.04713
3.07241
3.09684
3.1204
3.14309
3.16488
3.18576
3.20573
3.22476
3.24286
3.26001
3.2762
3.29143
3.30571
3.31901
3.33135
3.34273
3.35314
3.36259
3.37108
3.37862
3.38521
3.39086
3.39558
3.39938
3.40227
3.40425
3.40533
3.40553
3.40485
3.40329
3.40086
3.39756
3.39339
3.38834
3.38241
3.37558
3.36781
3.3591
3.34941
3.3387
3.32692
3.314
3.29988
3.28447
3.26769
3.24943
3.22959
3.20806
3.1847
3.15941
3.13204
3.10248
3.07058
3.03623
2.99932
2.95977
2.9175
2.8725
2.82476
2.77431
2.72124
2.66566
2.60773
2.54764
2.48562
2.42195
2.35691
2.29082
2.22402
2.15683
2.08959
2.02262
1.95624
1.89071
1.8263
1.76323
1.70168
1.64181
1.58374
1.52754
1.47327
1.42094
1.37056
1.32211
1.27552
1.23074
1.18767
1.1462
1.10616
1.06745
1.02999
0.993671
0.958398
0.924046
0.890449
0.857689
0.115349
0.223037
0.277304
0.31315
0.340163
0.362077
0.380953
0.398175
0.414776
0.43157
0.449186
0.468091
0.488599
0.51089
0.535037
0.561029
0.588801
0.618249
0.649247
0.681664
0.715365
0.750222
0.786114
0.822932
0.860578
0.898962
0.938008
0.977643
1.0178
1.05843
1.09948
1.1409
1.18264
1.22467
1.26695
1.30946
1.35215
1.39502
1.43802
1.48116
1.52439
1.56772
1.61112
1.65457
1.69808
1.74161
1.78517
1.82873
1.87228
1.91581
1.95931
2.00275
2.04611
2.08939
2.13256
2.1756
2.21849
2.2612
2.30372
2.34601
2.38806
2.42983
2.4713
2.51245
2.55325
2.59366
2.63367
2.67324
2.71231
2.75083
2.78877
2.82611
2.86282
2.89888
2.93426
2.96894
3.00287
3.03605
3.06844
3.10002
3.13076
3.16064
3.18964
3.21774
3.24491
3.27114
3.2964
3.32069
3.34397
3.36623
3.38747
3.40765
3.42678
3.44483
3.4618
3.47768
3.49246
3.50613
3.5187
3.53015
3.54049
3.54972
3.55783
3.56483
3.57071
3.57549
3.57917
3.58175
3.58324
3.58365
3.58298
3.58125
3.57845
3.57459
3.56968
3.5637
3.55665
3.54856
3.5394
3.52916
3.51781
3.50534
3.49173
3.47692
3.46088
3.44355
3.42488
3.40478
3.38318
3.35998
3.33511
3.30844
3.27988
3.24933
3.21667
3.1818
3.14462
3.10503
3.06295
3.01834
2.97114
2.92137
2.86903
2.8142
2.75698
2.6975
2.63593
2.57249
2.50741
2.44099
2.3735
2.30528
2.23665
2.16794
2.09947
2.03156
1.96449
1.89854
1.83395
1.77091
1.70959
1.65012
1.59261
1.5371
1.48363
1.43221
1.38281
1.33538
1.28986
1.24618
1.20422
1.16386
1.12493
1.08731
1.05091
1.0156
0.981285
0.947811
0.915014
0.882949
0.121033
0.227607
0.283099
0.320294
0.34871
0.372023
0.392233
0.410666
0.428317
0.44597
0.464246
0.483619
0.504421
0.526858
0.55103
0.576952
0.604581
0.633836
0.664615
0.696806
0.7303
0.764991
0.800782
0.837585
0.87532
0.913915
0.953305
0.993429
1.03423
1.07566
1.11768
1.16022
1.20325
1.24673
1.29062
1.33488
1.37947
1.42437
1.46954
1.51496
1.5606
1.60642
1.65242
1.69857
1.74484
1.79122
1.83768
1.8842
1.93076
1.97735
2.02394
2.0705
2.11702
2.16346
2.20981
2.25604
2.30212
2.34803
2.39373
2.4392
2.48442
2.52934
2.57394
2.61819
2.66206
2.70551
2.74853
2.79105
2.833
2.87436
2.9151
2.95519
2.9946
3.03331
3.07127
3.10846
3.14485
3.18041
3.21511
3.24892
3.28181
3.31377
3.34475
3.37474
3.40372
3.43165
3.45852
3.4843
3.50898
3.53253
3.55494
3.57617
3.59623
3.61508
3.63272
3.64914
3.66432
3.67825
3.69093
3.70235
3.71249
3.72137
3.72897
3.73529
3.74032
3.74408
3.74655
3.74775
3.74768
3.74634
3.74373
3.73985
3.73472
3.72833
3.72069
3.7118
3.70165
3.69024
3.67757
3.66363
3.64839
3.63184
3.61395
3.5947
3.57404
3.55192
3.52829
3.5031
3.47627
3.44773
3.4174
3.3852
3.35105
3.31486
3.27655
3.23604
3.19326
3.14816
3.10069
3.05082
2.99855
2.94392
2.88696
2.82779
2.76651
2.7033
2.63834
2.57186
2.50412
2.4354
2.36599
2.29622
2.2264
2.15684
2.08787
2.01977
1.95281
1.88725
1.82328
1.76109
1.70081
1.64256
1.5864
1.53236
1.48046
1.43067
1.38294
1.33721
1.2934
1.25141
1.21112
1.1724
1.13507
1.099
1.06408
1.03019
0.997194
0.964948
0.933286
0.902248
0.124576
0.228346
0.284269
0.322336
0.351862
0.376425
0.397933
0.417631
0.436442
0.455093
0.474167
0.494118
0.515276
0.537865
0.562009
0.587755
0.615097
0.643986
0.674353
0.706121
0.739208
0.773535
0.80903
0.845625
0.88326
0.921879
0.96143
1.00186
1.04313
1.08519
1.12799
1.17149
1.21565
1.26042
1.30576
1.35162
1.39798
1.44479
1.49201
1.5396
1.58754
1.63578
1.6843
1.73306
1.78203
1.83119
1.8805
1.92993
1.97946
2.02906
2.0787
2.12835
2.17797
2.22754
2.27703
2.32641
2.37563
2.42468
2.47352
2.52211
2.57042
2.61842
2.66608
2.71336
2.76022
2.80664
2.85256
2.89791
2.94265
2.98676
3.03019
3.07293
3.11493
3.15616
3.19659
3.23618
3.27491
3.31272
3.34961
3.38553
3.42045
3.45435
3.48719
3.51895
3.5496
3.57912
3.60747
3.63463
3.66058
3.6853
3.70876
3.73093
3.75179
3.77132
3.78951
3.80634
3.8218
3.83586
3.84853
3.85978
3.8696
3.878
3.88495
3.89045
3.89449
3.89707
3.89819
3.89785
3.89605
3.89278
3.88806
3.88187
3.87422
3.86511
3.85455
3.84252
3.82903
3.81408
3.79765
3.77975
3.76034
3.73943
3.71697
3.69296
3.66736
3.64013
3.61122
3.5806
3.5482
3.51397
3.47785
3.43979
3.39972
3.35758
3.31333
3.26692
3.21832
3.1675
3.11446
3.05921
3.00179
2.94226
2.88072
2.81729
2.75212
2.6854
2.61734
2.54818
2.47819
2.40765
2.33686
2.26612
2.19575
2.12604
2.05727
1.98972
1.92363
1.85922
1.79665
1.73608
1.67762
1.62132
1.56725
1.51539
1.46573
1.41822
1.37279
1.32935
1.2878
1.24803
1.2099
1.17327
1.13795
1.10382
1.07074
1.03859
1.00722
0.976494
0.946241
0.916492
0.12622
0.226045
0.281806
0.320361
0.350726
0.376356
0.399056
0.419976
0.439954
0.459647
0.479579
0.500169
0.521734
0.5445
0.568613
0.594153
0.621148
0.64959
0.679451
0.710686
0.743248
0.777089
0.812162
0.848423
0.885829
0.92434
0.963918
1.00452
1.04612
1.08867
1.13213
1.17645
1.22161
1.26754
1.31422
1.36158
1.40959
1.4582
1.50737
1.55705
1.6072
1.65778
1.70874
1.76005
1.81165
1.86353
1.91563
1.96792
2.02036
2.07291
2.12554
2.1782
2.23087
2.2835
2.33605
2.38849
2.44078
2.49288
2.54476
2.59637
2.64767
2.69864
2.74924
2.79942
2.84915
2.89839
2.94704
2.99508
3.04246
3.08916
3.13514
3.18036
3.22479
3.2684
3.31113
3.35295
3.39384
3.43375
3.47265
3.51051
3.54729
3.58297
3.6175
3.65087
3.68303
3.71396
3.74364
3.77202
3.79909
3.82482
3.84919
3.87214
3.89366
3.91373
3.93233
3.94943
3.96502
3.97907
3.99158
4.00252
4.01189
4.01965
4.02581
4.03035
4.03326
4.03453
4.03415
4.03213
4.02845
4.02311
4.0161
4.00743
3.9971
3.9851
3.97142
3.95607
3.93905
3.92034
3.89994
3.87785
3.85405
3.82852
3.80126
3.77224
3.74143
3.70882
3.67436
3.63804
3.5998
3.55961
3.51745
3.47326
3.42703
3.37872
3.32833
3.27584
3.22126
3.1646
3.10591
3.04525
2.98269
2.91833
2.85232
2.7848
2.71597
2.64603
2.57522
2.5038
2.43203
2.36021
2.28861
2.21753
2.14727
2.07808
2.01023
1.94396
1.87948
1.81694
1.75651
1.69828
1.64233
1.58868
1.53735
1.4883
1.44148
1.39682
1.35422
1.31357
1.27475
1.23763
1.20206
1.16788
1.13492
1.10302
1.07207
1.04193
1.01243
0.983443
0.954807
0.926546
0.126194
0.221397
0.276582
0.315341
0.346314
0.372824
0.396572
0.418613
0.439701
0.460413
0.481215
0.502479
0.524498
0.547495
0.571628
0.597001
0.623677
0.651685
0.681036
0.711723
0.743735
0.777054
0.811661
0.847536
0.884657
0.923
0.962537
1.00324
1.04509
1.08805
1.13209
1.17716
1.22323
1.27025
1.31817
1.36695
1.41654
1.46688
1.51793
1.56962
1.62191
1.67475
1.72809
1.78186
1.83604
1.89055
1.94537
2.00043
2.05569
2.11111
2.16663
2.22221
2.27781
2.33338
2.38887
2.44425
2.49946
2.55446
2.60922
2.66369
2.71782
2.77159
2.82494
2.87784
2.93024
2.98205
3.03323
3.08375
3.13356
3.18263
3.23093
3.27842
3.32507
3.37083
3.41564
3.45947
3.50229
3.54406
3.58476
3.62433
3.66276
3.69999
3.73601
3.77077
3.80424
3.83639
3.86719
3.8966
3.92459
3.95114
3.97621
3.99976
4.02177
4.0422
4.06104
4.07826
4.09383
4.10772
4.11993
4.13042
4.13917
4.14617
4.1514
4.15484
4.15647
4.15629
4.15427
4.15042
4.14472
4.13715
4.12773
4.11643
4.10325
4.08819
4.07125
4.05241
4.03167
4.00903
3.98448
3.95802
3.92963
3.8993
3.86703
3.8328
3.79659
3.75839
3.71818
3.67595
3.63168
3.58536
3.53696
3.48649
3.43395
3.37934
3.3227
3.26404
3.20343
3.14093
3.07662
3.01061
2.94302
2.874
2.80374
2.73242
2.66026
2.5875
2.5144
2.44121
2.36821
2.29569
2.22392
2.15316
2.08368
2.01573
1.94951
1.88523
1.82305
1.7631
1.70548
1.65025
1.59744
1.54704
1.49902
1.45332
1.40985
1.36851
1.32917
1.29171
1.25599
1.22185
1.18914
1.15769
1.12733
1.0979
1.06928
1.04132
1.01387
0.986773
0.9599
0.933262
0.124689
0.214979
0.26933
0.308101
0.339507
0.366734
0.391384
0.41443
0.436543
0.458232
0.4799
0.501875
0.524423
0.547753
0.572025
0.597357
0.623837
0.651529
0.680479
0.710716
0.742262
0.775131
0.809333
0.844874
0.881758
0.919973
0.95949
1.00031
1.04241
1.08577
1.13037
1.17617
1.22313
1.27121
1.32035
1.37051
1.42163
1.47365
1.52652
1.58017
1.63453
1.68956
1.74519
1.80136
1.858
1.91505
1.97246
2.03017
2.08812
2.14626
2.20452
2.26285
2.32121
2.37953
2.43776
2.49586
2.55378
2.61146
2.66887
2.72594
2.78265
2.83895
2.89479
2.95013
3.00487
3.05898
3.1124
3.1651
3.21705
3.2682
3.31852
3.36796
3.41649
3.46407
3.51065
3.55619
3.60065
3.64401
3.68621
3.72723
3.76703
3.80556
3.8428
3.8787
3.91324
3.94636
3.97805
4.00825
4.03695
4.0641
4.08967
4.11362
4.13592
4.15653
4.17543
4.19258
4.20796
4.22153
4.23327
4.24314
4.25114
4.25722
4.26137
4.26356
4.26377
4.26199
4.2582
4.25238
4.24451
4.23459
4.22261
4.20854
4.19238
4.17413
4.15377
4.1313
4.10671
4.07999
4.05115
4.02017
3.98704
3.95177
3.91434
3.87476
3.83301
3.78909
3.743
3.69475
3.64433
3.59175
3.53704
3.48022
3.42131
3.36039
3.29749
3.23271
3.16615
3.09791
3.02813
2.95697
2.88461
2.81123
2.73707
2.66235
2.58733
2.51226
2.43742
2.36307
2.28948
2.21693
2.14567
2.07595
2.00797
1.94196
1.87809
1.81649
1.75729
1.70057
1.64638
1.59473
1.54561
1.49897
1.45473
1.41281
1.37308
1.33541
1.29966
1.26568
1.2333
1.20237
1.17272
1.14417
1.11656
1.08974
1.06357
1.0379
1.01257
0.987454
0.962419
0.937478
0.121857
0.207243
0.260631
0.299313
0.331049
0.358883
0.384331
0.408292
0.431371
0.454017
0.47658
0.499347
0.522559
0.546422
0.571071
0.596604
0.62314
0.650771
0.679572
0.709602
0.740914
0.773549
0.807543
0.842925
0.879715
0.917924
0.957555
0.998609
1.04108
1.08495
1.1302
1.1768
1.22471
1.27388
1.32427
1.37582
1.42846
1.48214
1.53678
1.59232
1.64869
1.70581
1.76362
1.82203
1.88099
1.94041
2.00023
2.06039
2.1208
2.18141
2.24216
2.30297
2.36379
2.42457
2.48523
2.54573
2.60602
2.66603
2.72572
2.78505
2.84397
2.90243
2.96038
3.01772
3.07441
3.13042
3.18569
3.24019
3.29387
3.34671
3.39865
3.44966
3.4997
3.54873
3.59671
3.64359
3.68934
3.73392
3.77729
3.81942
3.86025
3.89976
3.93791
3.97465
4.00995
4.04377
4.07606
4.1068
4.13595
4.16345
4.18928
4.2134
4.23577
4.25634
4.27509
4.29198
4.30697
4.32003
4.33112
4.34022
4.34728
4.35228
4.3552
4.356
4.35465
4.35113
4.34542
4.3375
4.32735
4.31494
4.30027
4.28331
4.26405
4.24249
4.2186
4.19239
4.16383
4.13294
4.09969
4.06409
4.02613
3.98582
3.94315
3.89813
3.85076
3.80106
3.74904
3.69472
3.63812
3.5793
3.51828
3.45514
3.38995
3.32279
3.25378
3.18304
3.11073
3.037
2.96206
2.8861
2.80937
2.73209
2.65454
2.57698
2.4997
2.42296
2.34706
2.27227
2.19883
2.12701
2.05702
1.98908
1.92336
1.86002
1.79917
1.74093
1.68533
1.63243
1.5822
1.53462
1.48963
1.44714
1.40705
1.36921
1.33348
1.29972
1.26774
1.23739
1.2085
1.18088
1.15437
1.12879
1.10399
1.07981
1.05612
1.03275
1.00957
0.986435
0.963246
0.940011
0.117622
0.198139
0.250601
0.289212
0.321284
0.349735
0.375995
0.400896
0.424997
0.448699
0.472309
0.496071
0.52019
0.544836
0.570151
0.596255
0.623259
0.651265
0.680363
0.710637
0.742159
0.774994
0.8092
0.844825
0.88191
0.920484
0.960568
1.00217
1.0453
1.08994
1.13608
1.18369
1.23273
1.28315
1.3349
1.38792
1.44214
1.4975
1.55391
1.6113
1.6696
1.72871
1.78855
1.84906
1.91013
1.9717
2.03368
2.096
2.15857
2.22134
2.28422
2.34714
2.41004
2.47286
2.53554
2.598
2.66021
2.7221
2.78362
2.84473
2.90538
2.9655
3.025
3.08385
3.142
3.19941
3.25603
3.31183
3.36676
3.42079
3.47388
3.52599
3.57708
3.62711
3.67603
3.72382
3.77043
3.81581
3.85994
3.90277
3.94426
3.98436
4.02305
4.06027
4.09599
4.13017
4.16275
4.19371
4.223
4.25057
4.27638
4.30039
4.32256
4.34284
4.36119
4.37757
4.39194
4.40426
4.41449
4.42259
4.42852
4.43224
4.43372
4.43293
4.42983
4.42439
4.41659
4.40639
4.39377
4.3787
4.36117
4.34116
4.31864
4.2936
4.26603
4.23592
4.20325
4.16802
4.13023
4.08988
4.04696
4.00149
3.95347
3.90292
3.84985
3.7943
3.7363
3.67588
3.61312
3.54806
3.4808
3.41144
3.34008
3.26687
3.19196
3.11554
3.0378
2.95898
2.8793
2.79905
2.7185
2.63794
2.55767
2.478
2.39922
2.32164
2.24552
2.17113
2.09872
2.02848
1.96062
1.8953
1.83262
1.77271
1.71561
1.66136
1.60997
1.56141
1.51562
1.47253
1.43203
1.39399
1.35827
1.32472
1.29316
1.26341
1.23529
1.20863
1.18324
1.15894
1.13556
1.11292
1.09089
1.06932
1.04804
1.02692
1.00582
0.984618
0.963219
0.94164
0.113107
0.189172
0.24072
0.279303
0.311714
0.340749
0.3678
0.393673
0.418888
0.443812
0.468715
0.493808
0.519263
0.545225
0.57182
0.599159
0.627348
0.656485
0.686664
0.717974
0.750498
0.784312
0.819487
0.856083
0.894151
0.933734
0.97486
1.01755
1.06181
1.10763
1.15501
1.2039
1.25427
1.30608
1.35927
1.41377
1.46951
1.52642
1.58441
1.6434
1.7033
1.76403
1.82549
1.88761
1.95028
2.01343
2.07697
2.14081
2.20489
2.26911
2.3334
2.3977
2.46194
2.52604
2.58995
2.6536
2.71695
2.77993
2.8425
2.90462
2.96618
3.02713
3.08743
3.14703
3.20588
3.26396
3.32121
3.3776
3.43309
3.48765
3.54123
3.5938
3.64531
3.69574
3.74503
3.79315
3.84007
3.88573
3.9301
3.97315
4.01481
4.05507
4.09386
4.13115
4.16689
4.20104
4.23356
4.26439
4.29349
4.32081
4.34631
4.36994
4.39165
4.41139
4.42912
4.44478
4.45833
4.46972
4.47891
4.48586
4.4905
4.49281
4.49274
4.49026
4.48531
4.47786
4.46789
4.45534
4.4402
4.42244
4.40202
4.37892
4.35312
4.32461
4.29336
4.25936
4.22261
4.18309
4.14081
4.09576
4.04796
3.99741
3.94415
3.88818
3.82955
3.76831
3.7045
3.6382
3.56949
3.49847
3.42527
3.35001
3.27286
3.19402
3.11368
3.03208
2.94949
2.86619
2.78247
2.69865
2.61507
2.53207
2.44996
2.3691
2.28978
2.21231
2.13695
2.06394
1.99349
1.92577