/*--------------------------------*- C++ -*----------------------------------*\
| =========                 |                                                 |
| \\      /  F ield         | OpenFOAM: The Open Source CFD Toolbox           |
|  \\    /   O peration     | Version:  2412                                  |
|   \\  /    A nd           | Website:  www.openfoam.com                      |
|    \\/     M anipulation  |                                                 |
\*---------------------------------------------------------------------------*/
FoamFile
{
    version     2.0;
    format      ascii;
    arch        "LSB;label=32;scalar=64";
    class       volScalarField;
    location    "0.07";
    object      nut;
}
// * * * * * * * * * * * * * * * * * * * * * * * * * * * * * * * * * * * * * //

dimensions      [0 2 -1 0 0 0 0];

internalField   nonuniform List<scalar> 
12225
(
2.015e-05
2.24856e-05
2.47486e-05
2.63705e-05
2.75866e-05
2.85124e-05
2.923e-05
2.97952e-05
3.0245e-05
3.06059e-05
3.0897e-05
3.11328e-05
3.13236e-05
3.14773e-05
3.16e-05
3.16952e-05
3.17681e-05
3.18419e-05
0.000167791
0.000185426
0.000202594
0.000213781
0.000221139
0.000225977
0.000228994
0.000230712
0.000231506
0.000231636
0.000231284
0.000230587
0.000229643
0.000228525
0.00022729
0.000225968
0.000224714
0.000224111
0.000338326
0.000365989
0.000399353
0.000424395
0.000442765
0.000456121
0.000465628
0.000472226
0.000476633
0.000479384
0.000480879
0.00048142
0.000481236
0.000480502
0.000479352
0.000477892
0.000476333
0.000475629
0.000480627
0.000521763
0.00057011
0.000608373
0.00063778
0.000660183
0.000677068
0.000689657
0.000698915
0.000705584
0.000710235
0.000713312
0.000715156
0.000716034
0.000716157
0.000715702
0.000714926
0.000714596
0.000593561
0.000650956
0.000713474
0.000763764
0.000803257
0.000834092
0.000858053
0.00087659
0.000890851
0.000901736
0.000909945
0.000916031
0.000920428
0.000923479
0.000925461
0.00092661
0.000927203
0.000927797
0.000684404
0.00075664
0.000831931
0.000893031
0.000941599
0.000980073
0.00101053
0.00103462
0.00105365
0.00106866
0.00108043
0.00108961
0.00109672
0.00110215
0.00110623
0.00110926
0.0011115
0.00111338
0.000759738
0.000842819
0.00092827
0.000998625
0.00105519
0.00110051
0.00113685
0.00116603
0.00118951
0.00120839
0.00122359
0.0012358
0.0012456
0.00125344
0.0012597
0.00126469
0.00126869
0.00127202
0.000823604
0.000913341
0.00100523
0.00108259
0.00114576
0.001197
0.00123856
0.00127236
0.00129991
0.00132243
0.00134086
0.00135598
0.00136839
0.00137861
0.00138704
0.00139401
0.00139978
0.00140461
0.000876981
0.000970891
0.00106527
0.0011467
0.00121455
0.00127046
0.0013164
0.00135423
0.00138545
0.0014113
0.00143276
0.00145064
0.00146558
0.00147812
0.00148868
0.00149761
0.00150515
0.00151147
0.000918239
0.00101591
0.00110993
0.0011924
0.00126253
0.00132142
0.00137058
0.00141162
0.00144594
0.00147472
0.00149893
0.00151938
0.00153673
0.0015515
0.00156415
0.00157501
0.0015843
0.0015921
0.000944741
0.00104623
0.0011388
0.00122006
0.00129017
0.00135008
0.00140096
0.00144411
0.00148072
0.00151185
0.00153841
0.00156114
0.00158069
0.00159758
0.00161223
0.00162496
0.00163596
0.00164522
0.000953928
0.00105647
0.00114714
0.00122623
0.00129484
0.00135419
0.00140537
0.00144943
0.00148736
0.00152007
0.00154835
0.00157288
0.00159423
0.0016129
0.00162928
0.00164366
0.00165619
0.00166677
0.000951554
0.00105192
0.00114072
0.00121796
0.00128488
0.00134299
0.0013935
0.00143742
0.00147567
0.00150906
0.00153827
0.00156392
0.00158652
0.00160649
0.00162422
0.00163994
0.00165374
0.00166541
0.000937284
0.00102697
0.00110967
0.00118341
0.00124804
0.00130448
0.0013538
0.00139699
0.00143492
0.00146836
0.00149793
0.0015242
0.00154761
0.00156855
0.00158734
0.00160419
0.00161913
0.00163178
0.000914089
0.000982566
0.00105008
0.00111413
0.00117292
0.00122586
0.00127305
0.00131493
0.00135206
0.00138506
0.00141449
0.00144085
0.00146456
0.00148597
0.00150537
0.00152294
0.00153867
0.00155204
0.000888203
0.000929414
0.000972609
0.00101684
0.00106073
0.00110312
0.0011432
0.00118046
0.00121471
0.00124595
0.00127435
0.00130015
0.00132362
0.001345
0.00136452
0.00138234
0.00139845
0.00141226
0.00086618
0.000882937
0.000901514
0.000921912
0.000943834
0.000966886
0.00099064
0.00101465
0.00103848
0.00106179
0.00108428
0.00110578
0.00112616
0.00114533
0.00116331
0.0011801
0.00119564
0.0012095
0.000853651
0.000856473
0.000860498
0.000865746
0.000872168
0.0008797
0.000888272
0.000897795
0.000908155
0.000919223
0.00093086
0.000942927
0.000955293
0.000967829
0.000980406
0.000992907
0.00100521
0.00101708
0.000856829
0.000863021
0.000870401
0.000878978
0.000888635
0.000899218
0.000910562
0.000922479
0.000934776
0.000947268
0.000959787
0.000972196
0.000984382
0.000996262
0.00100778
0.00101889
0.00102953
0.00103949
0.000878995
0.000910048
0.00094293
0.000976988
0.00101122
0.00104473
0.00107681
0.00110697
0.00113495
0.00116061
0.001184
0.00120521
0.00122441
0.00124176
0.00125744
0.00127162
0.00128441
0.00129591
0.000912404
0.000978583
0.00104321
0.00110403
0.00115953
0.00120924
0.00125332
0.00129218
0.00132636
0.00135642
0.00138288
0.0014062
0.00142679
0.00144502
0.00146117
0.00147551
0.00148826
0.00149971
0.000944637
0.00103934
0.0011241
0.00119809
0.00126199
0.00131712
0.00136473
0.00140586
0.00144141
0.00147218
0.00149886
0.00152202
0.00154215
0.00155969
0.00157498
0.00158834
0.00160003
0.0016103
0.000952972
0.00105495
0.00114493
0.00122283
0.00128963
0.00134673
0.00139536
0.0014367
0.00147181
0.00150166
0.00152708
0.00154875
0.00156726
0.00158308
0.00159664
0.00160825
0.0016182
0.00162672
0.000919779
0.00101579
0.00110712
0.00118655
0.00125364
0.0013098
0.00135657
0.00139548
0.0014279
0.00145495
0.00147757
0.0014965
0.00151238
0.00152571
0.00153689
0.00154627
0.00155412
0.00156063
0.00084794
0.000936234
0.00102592
0.00110194
0.0011644
0.00121544
0.00125708
0.0012911
0.00131896
0.00134181
0.00136059
0.00137602
0.00138869
0.00139909
0.00140761
0.00141456
0.00142019
0.00142465
0.000748258
0.000825362
0.000905854
0.000972023
0.00102525
0.00106797
0.00110227
0.00112983
0.001152
0.00116982
0.00118415
0.00119562
0.00120478
0.00121205
0.00121777
0.00122221
0.00122558
0.00122803
0.000620848
0.000679409
0.000743818
0.00079592
0.000837092
0.000869545
0.000895071
0.000915099
0.000930767
0.00094297
0.000952407
0.000959631
0.000965079
0.000969095
0.000971958
0.000973887
0.000975058
0.000975586
0.00045321
0.000491086
0.000536523
0.000572241
0.000599376
0.000619997
0.000635582
0.000647245
0.000655866
0.000662128
0.000666549
0.000669532
0.000671387
0.000672359
0.000672637
0.000672372
0.000671682
0.000670665
0.000236571
0.000259233
0.000284038
0.000301443
0.00031317
0.000321253
0.000326766
0.000330386
0.000332614
0.000333817
0.000334256
0.000334125
0.000333571
0.000332701
0.000331601
0.000330334
0.00032895
0.000327511
2.7242e-05
3.01713e-05
3.32404e-05
3.54429e-05
3.70563e-05
3.82642e-05
3.91837e-05
3.98971e-05
4.04585e-05
4.0905e-05
4.12632e-05
4.15526e-05
4.17879e-05
4.198e-05
4.21376e-05
4.22672e-05
4.23738e-05
4.24621e-05
7.49122e-06
2.15441e-05
2.44915e-05
2.63981e-05
2.76454e-05
2.84359e-05
2.89028e-05
2.92525e-05
2.9704e-05
3.02217e-05
3.08434e-05
3.16113e-05
3.25506e-05
3.36675e-05
3.5063e-05
3.68344e-05
3.87276e-05
4.07141e-05
4.27747e-05
4.48924e-05
4.70464e-05
4.92222e-05
5.13683e-05
5.34607e-05
5.54845e-05
5.7431e-05
5.92954e-05
6.10766e-05
6.27752e-05
6.43937e-05
6.59355e-05
6.74048e-05
6.8806e-05
7.01439e-05
7.14232e-05
7.26487e-05
7.38246e-05
7.49551e-05
7.60442e-05
7.70953e-05
7.81117e-05
7.9096e-05
8.0051e-05
8.09787e-05
8.18812e-05
8.276e-05
8.36168e-05
8.44526e-05
8.52687e-05
8.60658e-05
8.68448e-05
8.76064e-05
8.8351e-05
8.90791e-05
8.97912e-05
9.04874e-05
9.11681e-05
9.18335e-05
9.24836e-05
9.31188e-05
9.3739e-05
9.43443e-05
9.4935e-05
9.55109e-05
9.60722e-05
9.6619e-05
9.71514e-05
9.76693e-05
9.81729e-05
9.86623e-05
9.91375e-05
9.95987e-05
0.000100046
0.00010048
0.000100903
0.000101309
0.000101695
0.000102064
0.000102418
0.000102757
0.000103081
0.000103391
0.000103687
0.000103968
0.000104237
0.000104491
0.000104732
0.000104961
0.000105176
0.000105379
0.000105569
0.000105747
0.000105914
0.000106069
0.000106213
0.000106347
0.000106469
0.000106582
0.000106685
0.000106778
0.000106862
0.000106937
0.000107003
0.00010706
0.000107109
0.000107151
0.000107184
0.000107209
0.000107226
0.000107235
0.000107236
0.000107229
0.000107213
0.000107189
0.000107155
0.000107111
0.000107057
0.000106992
0.000106915
0.000106824
0.00010672
0.000106599
0.000106461
0.000106304
0.000106127
0.000105926
0.0001057
0.000105446
0.000105162
0.000104844
0.00010449
0.000104095
0.000103655
0.000103156
0.000102629
0.00010256
0.000102618
0.000102661
0.000102669
0.000102635
0.000102553
0.000102421
0.000102235
0.000101993
0.000101692
0.000101331
0.00010091
0.000100429
9.98876e-05
9.92878e-05
9.86315e-05
9.79213e-05
9.71603e-05
9.6352e-05
9.55004e-05
9.46097e-05
9.36841e-05
9.27279e-05
9.17454e-05
9.07406e-05
8.97172e-05
8.86786e-05
8.76277e-05
8.6567e-05
8.54983e-05
8.44228e-05
8.33406e-05
8.22532e-05
8.11607e-05
8.00406e-05
7.88856e-05
7.77132e-05
7.6506e-05
7.52545e-05
7.39503e-05
7.25823e-05
7.11351e-05
6.95768e-05
6.78861e-05
6.58981e-05
1.11205e-05
4.54863e-05
8.58837e-05
0.000119737
0.00014518
0.000163358
0.000176139
0.000183884
0.000186473
0.000187486
0.000188968
0.000191988
0.000196485
0.000201821
0.000207349
0.000212728
0.00021817
0.000224034
0.000230682
0.000238389
0.000247304
0.000257465
0.000268839
0.000281331
0.000294805
0.000309097
0.00032403
0.000339422
0.000355096
0.000370885
0.000386646
0.000402254
0.000417612
0.000432648
0.000447311
0.000461573
0.00047542
0.000488853
0.000501884
0.000514528
0.000526809
0.000538748
0.000550372
0.000561704
0.000572767
0.000583582
0.000594169
0.000604544
0.000614723
0.000624719
0.000634543
0.000644204
0.00065371
0.000663066
0.000672278
0.00068135
0.000690284
0.000699081
0.000707744
0.000716271
0.000724663
0.00073292
0.000741042
0.000749026
0.000756873
0.000764582
0.000772153
0.000779587
0.000786884
0.000794045
0.000801073
0.000807969
0.000814731
0.00082135
0.000827622
0.000833386
0.000838893
0.000844215
0.000849371
0.000854369
0.000859209
0.000863894
0.000868424
0.000872802
0.000877029
0.000881106
0.000885036
0.000888821
0.000892464
0.000895967
0.000899336
0.000902573
0.000905683
0.000908671
0.000911542
0.000914302
0.000916958
0.000919516
0.000921984
0.000924368
0.000926677
0.000928918
0.000931101
0.000933234
0.000935326
0.000937386
0.000939423
0.000941447
0.000943465
0.000945486
0.000947519
0.000949573
0.000951652
0.000953765
0.000955917
0.000958111
0.00096035
0.000962637
0.000964969
0.000967346
0.000969761
0.000972208
0.000974675
0.000977149
0.000979613
0.000982045
0.000984419
0.000986702
0.000988853
0.00099082
0.000992527
0.000993839
0.000994484
0.00099367
0.000989893
0.000983622
0.000976227
0.000968013
0.000959028
0.000949262
0.000938693
0.000927298
0.000915061
0.00090197
0.000888026
0.000873236
0.000857622
0.000841213
0.000824051
0.000806189
0.00078769
0.000768623
0.000749066
0.000729104
0.000708823
0.000688312
0.000667661
0.000646954
0.000626277
0.000605706
0.000585314
0.000565164
0.000545313
0.00052581
0.000506695
0.000487999
0.000469744
0.000451947
0.000434581
0.000417348
0.000398583
0.000379693
0.000361349
0.000343681
0.000326677
0.000310257
0.000294233
0.000278521
0.000261996
0.000247907
1.36108e-05
6.91563e-05
0.000137949
0.000195381
0.000238801
0.000269788
0.000289419
0.000300063
0.000305319
0.000308439
0.000311858
0.00031699
0.000324242
0.000333406
0.00034414
0.000356295
0.000370007
0.000385574
0.000403309
0.000423431
0.000446012
0.000470975
0.000498113
0.000527126
0.000557652
0.000589305
0.000621702
0.000654483
0.00068733
0.000719975
0.000752203
0.000783852
0.000814808
0.000844999
0.000874389
0.000902968
0.00093075
0.000957759
0.000984034
0.00100962
0.00103455
0.00105888
0.00108265
0.00110591
0.00112869
0.00115102
0.00117294
0.00119447
0.00121564
0.00123647
0.00125697
0.00127716
0.00129706
0.00131666
0.00133597
0.00135501
0.00137377
0.00139225
0.00141046
0.00142839
0.00144605
0.00146342
0.00148052
0.00149733
0.00151384
0.00153007
0.00154601
0.00156164
0.00157697
0.001592
0.00160671
0.0016211
0.00163515
0.0016486
0.00166148
0.00167384
0.00168577
0.00169731
0.00170849
0.00171931
0.00172978
0.00173989
0.00174966
0.00175908
0.00176815
0.00177688
0.00178526
0.00179331
0.00180102
0.00180841
0.00181547
0.00182221
0.00182864
0.00183477
0.0018406
0.00184615
0.00185142
0.00185643
0.00186118
0.0018657
0.00186999
0.00187406
0.00187794
0.00188163
0.00188515
0.00188851
0.00189174
0.00189484
0.00189782
0.00190071
0.00190352
0.00190625
0.00190892
0.00191153
0.0019141
0.00191664
0.00191913
0.00192158
0.00192399
0.00192635
0.00192865
0.00193086
0.00193297
0.00193494
0.00193674
0.00193832
0.00193962
0.00194059
0.00194113
0.00194114
0.00194046
0.00193884
0.00193586
0.00193076
0.00192266
0.00191191
0.00189933
0.00188523
0.00186966
0.00185261
0.00183403
0.00181387
0.00179209
0.00176868
0.00174361
0.00171691
0.00168861
0.00165875
0.00162741
0.00159469
0.00156069
0.00152555
0.00148941
0.00145242
0.00141475
0.00137657
0.00133803
0.0012993
0.00126054
0.00122189
0.00118348
0.00114544
0.00110787
0.00107085
0.00103445
0.000998726
0.000963713
0.000929417
0.000895791
0.000862565
0.000828872
0.000793737
0.000758241
0.00072257
0.000686726
0.00065055
0.000613622
0.000575394
0.000533912
0.000489891
1.54239e-05
9.92777e-05
0.000191783
0.00026382
0.000316411
0.000352637
0.000375973
0.000390404
0.000399598
0.000406738
0.000414251
0.000423665
0.0004357
0.000450548
0.000468204
0.000488689
0.000512122
0.000538659
0.00056841
0.000601361
0.000637354
0.000676086
0.000717154
0.000760088
0.000804399
0.00084961
0.000895284
0.000941039
0.000986554
0.00103158
0.00107591
0.00111941
0.001162
0.00120362
0.00124425
0.0012839
0.00132258
0.00136034
0.00139722
0.00143326
0.00146851
0.00150303
0.00153685
0.00157003
0.00160261
0.00163461
0.00166609
0.00169705
0.00172754
0.00175758
0.00178717
0.00181633
0.00184509
0.00187344
0.0019014
0.00192896
0.00195613
0.00198291
0.0020093
0.0020353
0.0020609
0.0020861
0.00211089
0.00213527
0.00215924
0.00218278
0.00220589
0.00222857
0.00225079
0.00227257
0.00229387
0.0023147
0.00233481
0.00235425
0.00237304
0.00239122
0.00240882
0.00242587
0.00244239
0.00245837
0.00247383
0.00248877
0.00250318
0.00251707
0.00253044
0.00254328
0.00255562
0.00256743
0.00257873
0.00258953
0.00259982
0.00260961
0.00261891
0.00262774
0.00263608
0.00264397
0.0026514
0.00265839
0.00266495
0.0026711
0.00267686
0.00268222
0.00268722
0.00269187
0.00269618
0.00270017
0.00270386
0.00270726
0.0027104
0.00271328
0.00271591
0.00271832
0.00272052
0.00272251
0.00272429
0.00272588
0.00272728
0.00272847
0.00272946
0.00273023
0.00273076
0.00273102
0.002731
0.00273063
0.00272988
0.00272869
0.00272698
0.00272467
0.00272164
0.00271776
0.00271285
0.00270666
0.00269879
0.00268874
0.00267608
0.00266094
0.00264369
0.0026245
0.0026034
0.00258035
0.00255531
0.0025282
0.00249899
0.00246764
0.00243415
0.00239853
0.00236082
0.00232109
0.00227943
0.00223596
0.00219083
0.00214421
0.00209628
0.00204724
0.0019973
0.00194668
0.00189558
0.00184423
0.00179281
0.00174151
0.00169052
0.00163997
0.00159
0.00154073
0.00149223
0.00144458
0.00139781
0.00135192
0.00130688
0.00126249
0.0012183
0.00117337
0.00112783
0.0010818
0.0010352
0.000987762
0.00093897
0.000888011
0.000832898
0.000773201
1.68601e-05
0.000122345
0.000234532
0.000319925
0.000381106
0.000423414
0.000451993
0.00047131
0.000485272
0.00049715
0.000509453
0.000523878
0.000541412
0.000562539
0.000587458
0.000616249
0.000648933
0.000685467
0.000725712
0.000769415
0.000816212
0.000865647
0.000917216
0.000970396
0.00102468
0.00107961
0.00113477
0.00118981
0.00124446
0.00129849
0.00135173
0.00140407
0.00145544
0.00150578
0.00155508
0.00160335
0.00165061
0.00169689
0.00174222
0.00178666
0.00183023
0.001873
0.001915
0.00195627
0.00199686
0.00203679
0.0020761
0.00211483
0.00215298
0.00219058
0.00222766
0.00226423
0.00230029
0.00233585
0.00237093
0.00240552
0.00243963
0.00247326
0.0025064
0.00253906
0.00257121
0.00260287
0.00263403
0.00266467
0.00269479
0.00272438
0.00275343
0.00278193
0.00280987
0.00283724
0.00286402
0.00289006
0.00291533
0.00293984
0.00296364
0.00298672
0.00300911
0.00303082
0.00305186
0.00307224
0.00309195
0.00311099
0.00312937
0.00314708
0.00316413
0.0031805
0.0031962
0.00321123
0.00322559
0.00323928
0.00325231
0.00326469
0.0032764
0.00328747
0.00329789
0.00330768
0.00331685
0.0033254
0.00333335
0.00334071
0.0033475
0.00335372
0.00335939
0.00336453
0.00336916
0.00337328
0.00337692
0.00338009
0.00338281
0.00338509
0.00338694
0.00338838
0.00338941
0.00339005
0.0033903
0.00339016
0.00338964
0.00338872
0.00338741
0.00338567
0.0033835
0.00338086
0.00337772
0.00337404
0.00336975
0.00336481
0.00335912
0.0033526
0.00334512
0.00333658
0.0033268
0.00331553
0.00330247
0.00328731
0.00326979
0.00324995
0.00322788
0.00320366
0.00317728
0.00314869
0.00311783
0.00308463
0.00304907
0.0030111
0.00297072
0.00292796
0.00288287
0.00283552
0.00278604
0.00273455
0.00268122
0.00262626
0.00256986
0.00251226
0.00245369
0.00239439
0.00233461
0.00227459
0.00221454
0.00215467
0.00209519
0.00203625
0.00197801
0.00192058
0.00186406
0.00180851
0.00175397
0.00170045
0.00164791
0.0015962
0.00154504
0.00149385
0.00144211
0.00138997
0.00133722
0.00128355
0.00122843
0.00117104
0.00110974
0.00104427
1.78621e-05
0.000141426
0.000269577
0.000366154
0.000435942
0.000485524
0.000520529
0.000545755
0.000565294
0.000582539
0.000600126
0.000619931
0.000643155
0.000670465
0.000702161
0.000738308
0.000778811
0.000823452
0.000871908
0.000923768
0.000978554
0.00103575
0.00109483
0.00115528
0.00121664
0.00127848
0.00134043
0.00140219
0.00146352
0.00152422
0.00158415
0.00164319
0.00170127
0.00175836
0.00181443
0.00186948
0.00192352
0.00197658
0.00202869
0.00207987
0.00213016
0.0021796
0.00222823
0.00227609
0.0023232
0.0023696
0.00241532
0.00246038
0.0025048
0.00254861
0.00259182
0.00263445
0.0026765
0.00271798
0.00275891
0.00279927
0.00283908
0.00287833
0.00291702
0.00295514
0.00299269
0.00302967
0.00306606
0.00310186
0.00313706
0.00317164
0.0032056
0.00323892
0.0032716
0.00330361
0.00333487
0.0033653
0.00339491
0.00342371
0.00345172
0.00347895
0.00350539
0.00353106
0.00355595
0.00358008
0.00360342
0.00362599
0.00364777
0.00366876
0.00368896
0.00370836
0.00372696
0.00374475
0.00376175
0.00377793
0.0037933
0.00380787
0.00382163
0.00383459
0.00384674
0.0038581
0.00386868
0.00387847
0.00388748
0.00389574
0.00390324
0.00390999
0.00391602
0.00392133
0.00392593
0.00392984
0.00393307
0.00393563
0.00393755
0.00393882
0.00393947
0.0039395
0.00393892
0.00393774
0.00393597
0.00393361
0.00393064
0.00392708
0.00392292
0.00391812
0.00391268
0.00390656
0.00389974
0.00389217
0.0038838
0.00387456
0.00386436
0.00385318
0.00384087
0.00382732
0.00381237
0.00379583
0.00377747
0.00375709
0.0037345
0.00370968
0.00368262
0.00365331
0.00362173
0.00358781
0.0035515
0.00351275
0.00347151
0.00342777
0.00338154
0.00333284
0.00328174
0.00322834
0.00317275
0.00311514
0.00305569
0.00299459
0.00293209
0.00286843
0.00280384
0.0027386
0.00267296
0.00260717
0.00254146
0.00247605
0.00241114
0.0023469
0.00228347
0.00222099
0.00215954
0.00209918
0.00203994
0.00198182
0.00192478
0.0018687
0.00181337
0.0017584
0.00170316
0.00164762
0.00159157
0.00153467
0.00147641
0.00141604
0.00135234
0.0012854
1.85245e-05
0.00015602
0.000296154
0.000402898
0.000481541
0.000539021
0.000581251
0.000613194
0.000639033
0.000662225
0.000685497
0.000710854
0.000739638
0.000772633
0.000810196
0.000852373
0.000898998
0.000949754
0.00100422
0.00106192
0.00112234
0.00118496
0.00124927
0.00131479
0.00138111
0.00144784
0.00151466
0.0015813
0.00164753
0.00171319
0.00177813
0.00184226
0.0019055
0.0019678
0.00202914
0.00208951
0.00214891
0.00220735
0.00226484
0.00232142
0.0023771
0.00243192
0.00248591
0.00253909
0.00259149
0.00264315
0.00269407
0.00274429
0.00279383
0.00284271
0.00289093
0.00293851
0.00298546
0.00303179
0.00307751
0.00312261
0.0031671
0.00321097
0.00325422
0.00329686
0.00333886
0.00338023
0.00342096
0.00346103
0.00350044
0.00353918
0.00357723
0.00361458
0.00365122
0.0036871
0.00372212
0.00375628
0.00378959
0.00382205
0.00385367
0.00388444
0.00391437
0.00394345
0.00397168
0.00399905
0.00402555
0.00405119
0.00407594
0.00409981
0.00412278
0.00414485
0.004166
0.00418623
0.00420553
0.00422391
0.00424134
0.00425783
0.00427337
0.00428797
0.00430162
0.00431432
0.00432607
0.00433688
0.00434675
0.00435568
0.00436368
0.00437076
0.00437692
0.00438217
0.00438653
0.00439
0.00439259
0.00439431
0.00439517
0.00439519
0.00439436
0.00439271
0.00439024
0.00438695
0.00438285
0.00437794
0.00437222
0.00436568
0.00435832
0.00435012
0.00434105
0.00433111
0.00432027
0.00430846
0.00429566
0.00428183
0.0042669
0.0042508
0.00423343
0.00421467
0.00419441
0.0041725
0.00414876
0.00412304
0.00409523
0.00406524
0.00403304
0.00399859
0.00396183
0.00392272
0.00388121
0.00383725
0.00379082
0.00374192
0.00369055
0.00363678
0.00358068
0.00352235
0.00346193
0.00339959
0.00333552
0.00326995
0.0032031
0.00313523
0.0030666
0.00299747
0.0029281
0.00285875
0.00278964
0.00272099
0.00265299
0.00258583
0.00251962
0.00245449
0.00239051
0.00232774
0.00226618
0.00220584
0.00214665
0.00208851
0.00203124
0.00197452
0.00191779
0.00186087
0.00180352
0.00174542
0.0016861
0.00162489
0.00156089
0.00149445
1.92964e-05
0.000163717
0.000314057
0.000430429
0.000517855
0.000583473
0.000633351
0.000672509
0.00070513
0.00073466
0.000763843
0.000794739
0.000828769
0.000866795
0.000909222
0.000956118
0.00100731
0.00106245
0.00112111
0.0011828
0.00124702
0.00131328
0.00138111
0.00145006
0.00151977
0.00158988
0.00166011
0.00173022
0.00179999
0.00186926
0.00193791
0.00200584
0.00207296
0.00213923
0.00220461
0.00226909
0.00233264
0.00239527
0.002457
0.00251783
0.00257777
0.00263686
0.00269511
0.00275254
0.00280918
0.00286505
0.00292017
0.00297455
0.00302822
0.0030812
0.00313348
0.0031851
0.00323604
0.00328633
0.00333597
0.00338495
0.00343328
0.00348096
0.00352798
0.00357434
0.00362003
0.00366505
0.00370939
0.00375303
0.00379597
0.0038382
0.0038797
0.00392045
0.00396045
0.00399958
0.00403783
0.00407521
0.00411173
0.00414737
0.00418213
0.00421601
0.004249
0.00428109
0.00431227
0.00434253
0.00437185
0.00440023
0.00442766
0.00445411
0.00447958
0.00450405
0.00452752
0.00454996
0.00457137
0.00459173
0.00461103
0.00462927
0.00464643
0.00466251
0.0046775
0.0046914
0.0047042
0.00471589
0.00472648
0.00473597
0.00474435
0.00475163
0.00475781
0.00476289
0.00476688
0.00476978
0.0047716
0.00477234
0.00477202
0.00477063
0.00476819
0.0047647
0.00476016
0.00475459
0.00474799
0.00474035
0.00473166
0.00472195
0.0047112
0.00469939
0.00468648
0.00467251
0.00465744
0.00464123
0.00462385
0.00460527
0.00458541
0.00456423
0.00454165
0.00451758
0.00449192
0.00446455
0.00443535
0.00440421
0.00437104
0.00433576
0.00429832
0.00425867
0.00421676
0.00417255
0.00412601
0.0040771
0.00402583
0.00397221
0.00391626
0.00385806
0.0037977
0.00373529
0.003671
0.003605
0.00353749
0.0034687
0.00339886
0.00332824
0.0032571
0.00318568
0.00311426
0.00304307
0.00297235
0.00290229
0.00283308
0.00276487
0.00269779
0.00263193
0.00256734
0.00250408
0.00244212
0.00238145
0.00232199
0.00226364
0.00220621
0.00214944
0.00209282
0.00203608
0.00197897
0.00192119
0.0018623
0.00180172
0.00173875
0.00167392
1.99991e-05
0.000166172
0.000324283
0.000449301
0.000545108
0.000618762
0.000676353
0.000722879
0.000762452
0.000798444
0.000833547
0.000869811
0.000908684
0.000951081
0.000997468
0.00104796
0.00110244
0.00116059
0.00122202
0.00128627
0.0013529
0.00142144
0.00149147
0.0015626
0.00163447
0.00170678
0.00177926
0.00185168
0.00192387
0.00199565
0.00206691
0.00213754
0.00220746
0.00227662
0.00234497
0.00241248
0.00247914
0.00254493
0.00260985
0.00267392
0.00273713
0.0027995
0.00286105
0.00292178
0.00298173
0.0030409
0.00309932
0.00315699
0.00321394
0.00327018
0.00332572
0.00338057
0.00343473
0.00348823
0.00354104
0.00359319
0.00364467
0.00369548
0.00374561
0.00379506
0.00384382
0.00389189
0.00393925
0.0039859
0.00403182
0.00407701
0.00412145
0.00416512
0.00420795
0.00424992
0.00429101
0.00433124
0.00437059
0.00440906
0.00444663
0.00448329
0.00451903
0.00455384
0.0045877
0.00462059
0.0046525
0.00468341
0.00471329
0.00474214
0.00476993
0.00479665
0.00482228
0.00484679
0.00487017
0.00489241
0.00491348
0.00493337
0.00495206
0.00496955
0.00498581
0.00500084
0.00501462
0.00502714
0.00503841
0.0050484
0.00505712
0.00506456
0.00507071
0.00507558
0.00507915
0.00508144
0.00508245
0.00508217
0.0050806
0.00507776
0.00507363
0.00506824
0.00506158
0.00505365
0.00504446
0.005034
0.00502226
0.00500927
0.00499503
0.00497951
0.0049627
0.00494461
0.00492522
0.0049045
0.00488243
0.00485897
0.0048341
0.00480775
0.00477987
0.00475041
0.00471927
0.00468638
0.00465167
0.00461503
0.00457641
0.00453575
0.00449299
0.00444811
0.00440107
0.00435183
0.00430039
0.00424674
0.00419089
0.00413289
0.00407279
0.00401066
0.00394663
0.00388083
0.00381343
0.00374461
0.00367459
0.00360359
0.00353186
0.00345966
0.00338723
0.00331484
0.00324272
0.00317112
0.00310023
0.00303026
0.00296135
0.00289365
0.00282726
0.00276224
0.00269863
0.00263644
0.00257565
0.0025162
0.002458
0.00240093
0.00234482
0.00228938
0.00223419
0.0021789
0.00212327
0.002067
0.00200967
0.00195079
0.0018898
0.00182732
2.04875e-05
0.000165715
0.000328766
0.000460782
0.000564063
0.000645243
0.000710253
0.000763963
0.000810355
0.000852671
0.000893499
0.000934833
0.000978114
0.00102429
0.00107388
0.00112709
0.00118386
0.00124396
0.00130707
0.0013728
0.00144074
0.00151049
0.00158168
0.00165394
0.00172697
0.00180047
0.00187421
0.00194798
0.00202159
0.0020949
0.00216778
0.00224012
0.00231186
0.00238292
0.00245326
0.00252283
0.00259162
0.00265961
0.00272678
0.00279315
0.0028587
0.00292345
0.00298741
0.00305058
0.00311299
0.00317464
0.00323555
0.00329574
0.00335521
0.00341398
0.00347205
0.00352945
0.00358616
0.00364221
0.00369759
0.0037523
0.00380634
0.00385971
0.00391241
0.00396442
0.00401575
0.00406638
0.0041163
0.00416551
0.00421398
0.00426171
0.00430869
0.00435487
0.0044002
0.0044447
0.00448834
0.00453113
0.00457305
0.00461409
0.00465423
0.00469346
0.00473174
0.00476908
0.00480543
0.00484079
0.00487513
0.00490842
0.00494064
0.00497177
0.00500179
0.00503066
0.00505836
0.00508488
0.00511018
0.00513424
0.00515704
0.00517855
0.00519875
0.00521762
0.00523514
0.0052513
0.00526606
0.00527943
0.00529138
0.00530189
0.00531096
0.00531858
0.00532473
0.0053294
0.00533259
0.00533429
0.0053345
0.00533322
0.00533043
0.00532614
0.00532035
0.00531305
0.00530426
0.00529398
0.0052822
0.00526892
0.00525415
0.00523789
0.00522014
0.00520089
0.00518015
0.00515791
0.00513416
0.00510889
0.00508208
0.00505372
0.00502377
0.00499221
0.004959
0.0049241
0.00488746
0.00484902
0.00480874
0.00476656
0.00472244
0.00467634
0.00462824
0.00457812
0.00452596
0.00447176
0.00441554
0.00435731
0.00429711
0.00423502
0.0041711
0.00410547
0.00403826
0.00396962
0.00389973
0.0038288
0.00375704
0.00368468
0.00361197
0.00353916
0.00346649
0.00339421
0.00332255
0.00325171
0.00318189
0.00311326
0.00304594
0.00298005
0.00291566
0.0028528
0.00279148
0.00273168
0.00267336
0.00261641
0.00256074
0.0025062
0.00245259
0.00239966
0.00234697
0.00229417
0.00224102
0.00218721
0.00213235
0.002076
0.00201771
0.00195813
2.07879e-05
0.000163224
0.000328753
0.000466016
0.000575617
0.000663541
0.000735399
0.000795845
0.000848673
0.000896957
0.000943154
0.000989169
0.00103641
0.00108583
0.00113802
0.00119326
0.00125156
0.0013128
0.00137674
0.00144307
0.00151144
0.00158152
0.00165297
0.00172548
0.00179877
0.00187257
0.00194666
0.00202085
0.00209496
0.00216885
0.00224241
0.00231552
0.00238812
0.00246013
0.0025315
0.00260219
0.00267218
0.00274144
0.00280995
0.00287772
0.00294475
0.00301102
0.00307656
0.00314137
0.00320545
0.00326883
0.00333151
0.0033935
0.00345481
0.00351546
0.00357545
0.00363479
0.00369348
0.00375153
0.00380894
0.00386571
0.00392183
0.00397731
0.00403213
0.00408629
0.00413977
0.00419258
0.00424469
0.0042961
0.00434678
0.00439674
0.00444594
0.00449434
0.00454196
0.00458876
0.00463475
0.00467992
0.00472423
0.00476768
0.00481023
0.00485187
0.00489257
0.00493231
0.00497106
0.00500878
0.00504546
0.00508106
0.00511556
0.00514892
0.00518111
0.0052121
0.00524186
0.00527037
0.00529758
0.00532347
0.005348
0.00537115
0.00539289
0.00541318
0.005432
0.00544932
0.00546512
0.00547938
0.00549207
0.00550317
0.00551266
0.00552053
0.00552674
0.0055313
0.00553417
0.00553536
0.00553485
0.00553263
0.0055287
0.00552305
0.00551566
0.00550655
0.00549571
0.00548314
0.00546884
0.00545281
0.00543506
0.00541557
0.00539437
0.00537144
0.0053468
0.00532043
0.00529235
0.00526254
0.00523101
0.00519775
0.00516275
0.00512598
0.00508744
0.00504711
0.00500497
0.00496098
0.00491513
0.00486739
0.00481776
0.00476623
0.00471278
0.00465744
0.00460022
0.00454115
0.00448026
0.00441761
0.00435327
0.00428734
0.00421992
0.00415115
0.00408118
0.00401019
0.00393837
0.00386593
0.0037931
0.00372012
0.00364722
0.00357465
0.00350264
0.00343141
0.00336119
0.00329215
0.00322445
0.00315824
0.00309361
0.00303064
0.00296936
0.00290978
0.00285187
0.00279557
0.0027408
0.00268744
0.00263535
0.00258437
0.00253427
0.00248478
0.0024355
0.00238606
0.0023362
0.00228561
0.00223394
0.00218077
0.00212575
0.00206949
2.09281e-05
0.000159277
0.000325199
0.000466016
0.000580685
0.000674406
0.000752355
0.000818897
0.000877596
0.000931336
0.000982422
0.00103265
0.00108339
0.00113558
0.00118985
0.00124654
0.00130577
0.00136749
0.00143157
0.00149776
0.0015658
0.0016354
0.0017063
0.00177821
0.00185088
0.00192409
0.00199762
0.0020713
0.00214497
0.00221849
0.00229176
0.00236468
0.00243717
0.00250917
0.00258062
0.00265149
0.00272175
0.00279137
0.00286035
0.00292866
0.00299632
0.00306332
0.00312966
0.00319535
0.0032604
0.00332481
0.0033886
0.00345178
0.00351435
0.00357631
0.00363768
0.00369847
0.00375866
0.00381826
0.00387728
0.0039357
0.00399353
0.00405075
0.00410735
0.00416333
0.00421867
0.00427336
0.00432738
0.00438073
0.00443338
0.00448532
0.00453653
0.00458702
0.00463676
0.00468575
0.00473397
0.00478139
0.00482799
0.00487375
0.00491863
0.00496261
0.00500566
0.00504774