/*--------------------------------*- C++ -*----------------------------------*\
| =========                 |                                                 |
| \\      /  F ield         | OpenFOAM: The Open Source CFD Toolbox           |
|  \\    /   O peration     | Version:  2412                                  |
|   \\  /    A nd           | Website:  www.openfoam.com                      |
|    \\/     M anipulation  |                                                 |
\*---------------------------------------------------------------------------*/
FoamFile
{
    version     2.0;
    format      ascii;
    arch        "LSB;label=32;scalar=64";
    class       volScalarField;
    location    "0.07";
    object      p;
}
// * * * * * * * * * * * * * * * * * * * * * * * * * * * * * * * * * * * * * //

dimensions      [0 2 -2 0 0 0 0];

internalField   nonuniform List<scalar> 
12225
(
-10.5583
-9.96595
-9.30325
-8.74681
-8.23771
-7.78119
-7.38251
-7.03135
-6.7188
-6.43928
-6.18791
-5.96021
-5.75236
-5.5611
-5.38351
-5.21645
-5.05862
-4.89866
-10.9921
-10.0241
-9.33805
-8.78776
-8.27798
-7.8214
-7.42207
-7.06949
-6.7553
-6.47408
-6.22097
-5.99153
-5.78198
-5.58904
-5.40978
-5.24112
-5.0808
-4.9258
-11.1725
-10.0584
-9.37977
-8.83859
-8.32832
-7.8726
-7.4734
-7.11975
-6.804
-6.52098
-6.26592
-6.03445
-5.82287
-5.62791
-5.44665
-5.27612
-5.1136
-4.95331
-11.1964
-10.0741
-9.40444
-8.87252
-8.36493
-7.91206
-7.51471
-7.1616
-6.84568
-6.56204
-6.30604
-6.07345
-5.86064
-5.66445
-5.482
-5.31059
-5.14681
-4.98889
-11.1262
-10.0688
-9.40472
-8.88328
-8.38272
-7.93476
-7.54095
-7.19003
-6.87539
-6.59242
-6.33664
-6.10399
-5.89097
-5.69457
-5.512
-5.34098
-5.17787
-5.02673
-10.9845
-10.0357
-9.38124
-8.87241
-8.38348
-7.94269
-7.55403
-7.2068
-6.89471
-6.6135
-6.35892
-6.12712
-5.91478
-5.71905
-5.53736
-5.36785
-5.20703
-5.06376
-10.7819
-9.9693
-9.33502
-8.84074
-8.36789
-7.93708
-7.5553
-7.21326
-6.90497
-6.62656
-6.37411
-6.144
-5.93315
-5.73893
-5.55901
-5.39199
-5.2346
-5.09931
-10.529
-9.86703
-9.26689
-8.78883
-8.3359
-7.9183
-7.54536
-7.21007
-6.9069
-6.63237
-6.38299
-6.15544
-5.9469
-5.75501
-5.57769
-5.41398
-5.26086
-5.13338
-10.2367
-9.72861
-9.17801
-8.71834
-8.28804
-7.88695
-7.52496
-7.19801
-6.90131
-6.63178
-6.38643
-6.16232
-5.95691
-5.76813
-5.59421
-5.43449
-5.28622
-5.16619
-9.9161
-9.55603
-9.06974
-8.63213
-8.22601
-7.84436
-7.49544
-7.17832
-6.88937
-6.62594
-6.38556
-6.16573
-5.96425
-5.77934
-5.60951
-5.45435
-5.31126
-5.19818
-9.57944
-9.35408
-8.94375
-8.53378
-8.15279
-7.79279
-7.45892
-7.15292
-6.87279
-6.61644
-6.38189
-6.16711
-5.97026
-5.78987
-5.62468
-5.47451
-5.33669
-5.23019
-9.26774
-9.1486
-8.8143
-8.43588
-8.07881
-7.74015
-7.42173
-7.12693
-6.85565
-6.60649
-6.37791
-6.16832
-5.97623
-5.80044
-5.63988
-5.49452
-5.36139
-5.26085
-8.97312
-8.93461
-8.67613
-8.33402
-8.00115
-7.68448
-7.38279
-7.10001
-6.83805
-6.59653
-6.37437
-6.17036
-5.98336
-5.81243
-5.65669
-5.51614
-5.38818
-5.29133
-8.66661
-8.69074
-8.51111
-8.21508
-7.91094
-7.61981
-7.33884
-7.07109
-6.82049
-6.58819
-6.37377
-6.17645
-5.99551
-5.83029
-5.6801
-5.54495
-5.42262
-5.3287
-8.37037
-8.43735
-8.32938
-8.08523
-7.81354
-7.55
-7.29299
-7.04361
-6.80683
-6.58559
-6.38041
-6.19101
-6.01707
-5.85826
-5.71412
-5.58471
-5.46798
-5.37664
-8.11324
-8.20656
-8.15625
-7.96316
-7.72482
-7.48768
-7.25447
-7.02464
-6.80306
-6.59406
-6.39925
-6.21885
-6.05278
-5.90098
-5.7632
-5.63958
-5.52822
-5.43887
-7.92751
-8.03558
-8.02678
-7.87783
-7.67094
-7.45723
-7.2446
-7.03226
-6.82442
-6.62631
-6.44062
-6.26809
-6.10891
-5.96313
-5.83056
-5.71128
-5.6037
-5.51384
-7.8536
-7.9659
-7.97838
-7.8567
-7.67168
-7.47471
-7.27683
-7.07754
-6.88039
-6.69085
-6.51218
-6.34544
-6.19083
-6.04844
-5.91819
-5.79985
-5.69241
-5.59722
-7.95634
-8.06338
-8.06976
-7.94318
-7.75504
-7.55641
-7.35788
-7.15878
-6.96251
-6.77428
-6.59715
-6.43194
-6.27865
-6.13709
-6.00695
-5.88754
-5.77861
-5.67705
-8.23552
-8.32996
-8.29664
-8.12523
-7.90384
-7.68133
-7.46318
-7.2481
-7.04006
-6.84359
-6.66058
-6.49107
-6.33461
-6.19061
-6.05839
-5.93685
-5.82573
-5.71936
-8.63077
-8.68891
-8.58664
-8.35239
-8.08826
-7.83354
-7.58769
-7.35021
-7.12548
-6.91659
-6.724
-6.54702
-6.38478
-6.23634
-6.10073
-5.97672
-5.86388
-5.75625
-9.13237
-9.11213
-8.90404
-8.59444
-8.28261
-7.98885
-7.70945
-7.44626
-7.20278
-6.97979
-6.77626
-6.59084
-6.42214
-6.26877
-6.12939
-6.00256
-5.88752
-5.77856
-9.69715
-9.5416
-9.19781
-8.81511
-8.45867
-8.12537
-7.81363
-7.52729
-7.26706
-7.0312
-6.81764
-6.62445
-6.44974
-6.29168
-6.14861
-6.01894
-5.90162
-5.79155
-10.262
-9.91604
-9.43304
-8.99538
-8.6016
-8.23227
-7.89308
-7.58768
-7.31321
-7.06617
-6.84393
-6.64405
-6.46412
-6.30196
-6.15564
-6.02343
-5.90403
-5.79304
-10.7663
-10.1978
-9.60222
-9.13051
-8.70407
-8.30375
-7.94314
-7.62292
-7.33709
-7.08126
-6.85233
-6.64734
-6.46346
-6.29822
-6.14949
-6.01537
-5.89445
-5.78296
-11.1679
-10.3755
-9.70906
-9.21701
-8.762
-8.33823
-7.9627
-7.63187
-7.33787
-7.07588
-6.84237
-6.63393
-6.44744
-6.28021
-6.12996
-5.99469
-5.87287
-5.76131
-11.4393
-10.4591
-9.75931
-9.25268
-8.77641
-8.33775
-7.95269
-7.61489
-7.3157
-7.04998
-6.81382
-6.60351
-6.4157
-6.24758
-6.09673
-5.96109
-5.83905
-5.72799
-11.5465
-10.4744
-9.75996
-9.23693
-8.74861
-8.30238
-7.91172
-7.57009
-7.26855
-7.00145
-6.76458
-6.55406
-6.36637
-6.19858
-6.04821
-5.91314
-5.79169
-5.6818
-11.4138
-10.4446
-9.72491
-9.17926
-8.686
-8.23742
-7.84439
-7.50191
-7.20068
-6.93445
-6.6988
-6.48969
-6.30353
-6.1373
-5.98847
-5.85489
-5.73481
-5.62647
-10.8827
-10.3523
-9.68231
-9.12231
-8.62729
-8.17845
-7.78496
-7.44308
-7.14318
-6.87849
-6.64444
-6.43697
-6.25242
-6.08774
-5.94038
-5.80819
-5.68932
-5.58195
-5.09564
-5.09326
-5.09407
-5.09808
-5.10387
-5.11001
-5.11529
-5.11902
-5.1213
-5.12267
-5.1237
-5.12497
-5.12699
-5.13023
-5.13508
-5.14185
-5.1509
-5.16261
-5.17748
-5.19603
-5.21871
-5.24579
-5.27727
-5.313
-5.35257
-5.39539
-5.44072
-5.48772
-5.53557
-5.58345
-5.63063
-5.67648
-5.72046
-5.76217
-5.80127
-5.83756
-5.87086
-5.90108
-5.92818
-5.95212
-5.97292
-5.99058
-6.00512
-6.01657
-6.02496
-6.03031
-6.03264
-6.03196
-6.02829
-6.02163
-6.012
-5.9994
-5.98382
-5.96527
-5.94375
-5.91926
-5.89179
-5.86135
-5.82794
-5.79157
-5.75223
-5.70994
-5.66471
-5.61654
-5.56545
-5.51146
-5.45459
-5.39485
-5.33228
-5.26689
-5.19872
-5.1278
-5.05419
-4.97796
-4.89918
-4.81786
-4.7337
-4.64688
-4.55748
-4.46557
-4.37116
-4.27429
-4.17495
-4.07317
-3.96893
-3.86223
-3.75306
-3.6414
-3.52721
-3.41045
-3.29109
-3.16906
-3.04428
-2.91668
-2.78617
-2.65263
-2.51596
-2.376
-2.23263
-2.08568
-1.93497
-1.78033
-1.62154
-1.4584
-1.29068
-1.11815
-0.940561
-0.757671
-0.56922
-0.374953
-0.174612
0.0320518
0.245281
0.465301
0.69232
0.926518
1.16804
1.417
1.67344
1.93736
2.2087
2.4873
2.77292
3.06522
3.36375
3.66794
3.97709
4.29035
4.60675
4.92512
5.24419
5.56248
5.87832
6.18989
6.49524
6.79252
7.07971
7.35465
7.61522
7.85933
8.08498
8.29028
8.47352
8.63322
8.76818
8.87754
8.96079
9.01781
9.04889
9.05472
9.03637
8.99531
8.93332
8.85246
8.75505
8.64356
8.52058
8.38875
8.25072
8.10906
7.96626
7.82469
7.68655
7.5539
7.42864
7.31252
7.2072
7.11432
7.03594
6.97606
6.92969
6.89941
6.88689
6.89586
6.93004
6.99389
7.09552
7.24307
7.46749
7.73525
-5.10355
-5.10227
-5.10405
-5.10872
-5.11421
-5.11883
-5.12175
-5.12236
-5.12028
-5.11618
-5.11123
-5.10664
-5.1034
-5.10213
-5.10315
-5.1066
-5.11273
-5.12205
-5.13525
-5.15304
-5.17601
-5.20439
-5.2381
-5.27671
-5.31953
-5.36566
-5.41413
-5.46392
-5.51408
-5.56376
-5.61225
-5.65897
-5.70347
-5.74541
-5.78456
-5.82078
-5.85395
-5.88404
-5.91102
-5.9349
-5.95569
-5.97341
-5.9881
-5.99976
-6.00843
-6.01412
-6.01684
-6.01661
-6.01344
-6.00732
-5.99826
-5.98627
-5.97132
-5.95343
-5.93259
-5.90879
-5.88203
-5.85231
-5.81963
-5.784
-5.74541
-5.70386
-5.65938
-5.61197
-5.56164
-5.50841
-5.4523
-5.39334
-5.33154
-5.26694
-5.19956
-5.12944
-5.05661
-4.98105
-4.90279
-4.82164
-4.73798
-4.65179
-4.56307
-4.47186
-4.37817
-4.28201
-4.18341
-4.08236
-3.97888
-3.87295
-3.76457
-3.65371
-3.54036
-3.42448
-3.30602
-3.18493
-3.06115
-2.93459
-2.80517
-2.6728
-2.53734
-2.39869
-2.25669
-2.1112
-1.96205
-1.80905
-1.65202
-1.49074
-1.325
-1.15457
-0.979212
-0.798681
-0.612727
-0.421098
-0.223543
-0.0198133
0.190328
0.407107
0.630728
0.861373
1.09919
1.34429
1.59672
1.8565
2.12357
2.39777
2.67889
2.96661
3.26048
3.55998
3.86441
4.17298
4.48473
4.79857
5.11327
5.42745
5.73957
6.04788
6.35022
6.64441
6.92868
7.20115
7.45974
7.70244
7.92728
8.13239
8.31611
8.47696
8.61378
8.72568
8.81214
8.87302
8.90857
8.91941
8.90659
8.87147
8.81577
8.74148
8.65084
8.54622
8.43016
8.30522
8.17397
8.03894
7.90257
7.76718
7.63495
7.5079
7.38792
7.27676
7.17602
7.08726
7.01205
6.95019
6.90554
6.87813
6.86866
6.87995
6.91513
6.97814
7.07618
7.21457
7.41958
7.65399
-5.10324
-5.10554
-5.10917
-5.11376
-5.1176
-5.11955
-5.11922
-5.11662
-5.11208
-5.10631
-5.10026
-5.09487
-5.09094
-5.08911
-5.08993
-5.09391
-5.10163
-5.11364
-5.13043
-5.15228
-5.17926
-5.21113
-5.24743
-5.28751
-5.33061
-5.3759
-5.42258
-5.46988
-5.51709
-5.56361
-5.60893
-5.65261
-5.69431
-5.73377
-5.77077
-5.80517
-5.83687
-5.86578
-5.89186
-5.91507
-5.93542
-5.95288
-5.96746
-5.97916
-5.98798
-5.99392
-5.99698
-5.99716
-5.99447
-5.98889
-5.98042
-5.96905
-5.95477
-5.93759
-5.91748
-5.89444
-5.86847
-5.83957
-5.80772
-5.77293
-5.73519
-5.69452
-5.65092
-5.6044
-5.55497
-5.50265
-5.44744
-5.38939
-5.32849
-5.26479
-5.19831
-5.12906
-5.05707
-4.98242
-4.90507
-4.825
-4.7423
-4.65703
-4.56922
-4.47891
-4.38612
-4.29088
-4.19321
-4.0931
-3.99057
-3.88562
-3.77824
-3.66842
-3.55613
-3.44136
-3.32405
-3.20416
-3.08162
-2.95638
-2.82835
-2.69742
-2.5635
-2.42647
-2.28619
-2.14251
-1.99528
-1.84432
-1.68945
-1.53046
-1.36715
-1.19929
-1.02666
-0.849008
-0.666099
-0.477685
-0.283519
-0.083359
0.12303
0.33587
0.555365
0.781695
1.01501
1.25542
1.50299
1.75773
2.01958
2.28843
2.56405
2.84615
3.13432
3.42803
3.72664
4.02937
4.33533
4.64345
4.95255
5.26124
5.56796
5.87103
6.1687
6.45914
6.74043
7.01055
7.26745
7.50914
7.73367
7.93924
8.12417
8.28703
8.42664
8.54209
8.63286
8.69876
8.73997
8.75708
8.75105
8.72317
8.67507
8.60865
8.52606
8.4296
8.32171
8.20487
8.0816
7.95435
7.82551
7.69736
7.57204
7.45155
7.33774
7.23234
7.13692
7.05295
6.98188
6.92453
6.88381
6.85804
6.85062
6.86304
6.89791
6.95836
7.04975
7.17416
7.34664
7.52258
-5.0865
-5.09447
-5.10126
-5.1069
-5.11044
-5.11162
-5.11057
-5.10765
-5.10342
-5.09865
-5.0942
-5.09092
-5.08954
-5.09071
-5.09497
-5.10282
-5.11468
-5.1309
-5.15161
-5.17681
-5.20626
-5.23957
-5.27623
-5.31566
-5.35723
-5.40029
-5.44423
-5.48848
-5.5325
-5.57582
-5.61803
-5.65878
-5.69778
-5.73478
-5.76961
-5.8021
-5.83214
-5.85965
-5.88456
-5.90683
-5.92641
-5.94328
-5.95742
-5.96882
-5.97745
-5.98332
-5.9864
-5.98669
-5.98417
-5.97883
-5.97065
-5.95963
-5.94574
-5.92898
-5.90934
-5.88679
-5.86134
-5.83298
-5.80169
-5.76749
-5.73035
-5.6903
-5.64732
-5.60144
-5.55266
-5.50099
-5.44645
-5.38906
-5.32884
-5.26582
-5.2
-5.13143
-5.06013
-4.98613
-4.90944
-4.8301
-4.74815
-4.66363
-4.57659
-4.48705
-4.39505
-4.30061
-4.20374
-4.10447
-4.0028
-3.89874
-3.79227
-3.6834
-3.5721
-3.45835
-3.34212
-3.22335
-3.102
-2.978
-2.85127
-2.72173
-2.58926
-2.45377
-2.31511
-2.17315
-2.02774
-1.8787
-1.72586
-1.56902
-1.40798
-1.24252
-1.07241
-0.897416
-0.717306
-0.531832
-0.34075
-0.143821
0.059189
0.268502
0.484324
0.706837
0.936192
1.17251
1.41585
1.66625
1.92365
2.18795
2.45894
2.73634
3.01977
3.30872
3.60257
3.90059
4.20189
4.50542
4.81001
5.11433
5.41691
5.7161
6.01025
6.29765
6.57639
6.84444
7.0998
7.34049
7.5646
7.77032
7.95602
8.12025
8.26185
8.37991
8.47388
8.54354
8.58906
8.61097
8.61019
8.58796
8.54584
8.48568
8.40956
8.31972
8.21853
8.10842
7.99184
7.87119
7.74881
7.62694
7.50767
7.39298
7.28467
7.18444
7.09382
7.01425
6.94706
6.8932
6.85436
6.8308
6.82474
6.83757
6.87134
6.92819
7.01144
7.12039
7.26037
7.38813
-5.05409
-5.0668
-5.07943
-5.0888
-5.09441
-5.09705
-5.09747
-5.09631
-5.09429
-5.09223
-5.09098
-5.09132
-5.09395
-5.09944
-5.10822
-5.12062
-5.13685
-5.15699
-5.18102
-5.20873
-5.23983
-5.27391
-5.31051
-5.34912
-5.38922
-5.43031
-5.47189
-5.51351
-5.55476
-5.59526
-5.63469
-5.67275
-5.70922
-5.74388
-5.77656
-5.80712
-5.83546
-5.86147
-5.88509
-5.90624
-5.92489
-5.94099
-5.9545
-5.96539
-5.97364
-5.97922
-5.98211
-5.98229
-5.97973
-5.97441
-5.96631
-5.95541
-5.9417
-5.92514
-5.90574
-5.88346
-5.85831
-5.83026
-5.79932
-5.76547
-5.72871
-5.68904
-5.64647
-5.60101
-5.55265
-5.50142
-5.44733
-5.3904
-5.33064
-5.26809
-5.20276
-5.13468
-5.0639
-4.99042
-4.91428
-4.83551
-4.75414
-4.67022
-4.58379
-4.49489
-4.40353
-4.30976
-4.21358
-4.11502
-4.01409
-3.9108
-3.80514
-3.69711
-3.58669
-3.47387
-3.35861
-3.24088
-3.12061
-2.99775
-2.87223
-2.74396
-2.61284
-2.47876
-2.3416
-2.20123
-2.05749
-1.91021
-1.75923
-1.60434
-1.44536
-1.28206
-1.11422
-0.941605
-0.763984
-0.58111
-0.392742
-0.198637
0.00143829
0.20771
0.420385
0.63965
0.865664
1.09855
1.33839
1.58521
1.83898
2.0996
2.36689
2.64058
2.9203
3.20557
3.49579
3.79025
4.08805
4.38819
4.68954
4.99078
5.29045
5.58694
5.87861
6.16377
6.44055
6.70701
6.96115
7.20101
7.42471
7.63045
7.8166
7.98174
8.12468
8.24452
8.3407
8.413
8.46156
8.4869
8.48989
8.47176
8.43403
8.37852
8.30726
8.22244
8.1264
8.02152
7.91019
7.79479
7.67761
7.56083
7.44652
7.3366
7.23285
7.13691
7.05028
6.97434
6.91032
6.85918
6.82223
6.8003
6.79486
6.80723
6.83885
6.89097
6.96512
7.05853
7.17053
7.26325
-5.01535
-5.03323
-5.05202
-5.06601
-5.07489
-5.0803
-5.08349
-5.08532
-5.08665
-5.08834
-5.0912
-5.09595
-5.10318
-5.11333
-5.1267
-5.14343
-5.1636
-5.18712
-5.21384
-5.2435
-5.27578
-5.31029
-5.34662
-5.38435
-5.42307
-5.46235
-5.50183
-5.54114
-5.57995
-5.61799
-5.65497
-5.69067
-5.72488
-5.75743
-5.78816
-5.81694
-5.84367
-5.86825
-5.89059
-5.91063
-5.92831
-5.94358
-5.95638
-5.96668
-5.97444
-5.97962
-5.98219
-5.98212
-5.97938
-5.97394
-5.96576
-5.95484
-5.94113
-5.92462
-5.90529
-5.88312
-5.85809
-5.83019
-5.79941
-5.76575
-5.72919
-5.68973
-5.64739
-5.60217
-5.55407
-5.50311
-5.4493
-5.39266
-5.33321
-5.27097
-5.20598
-5.13827
-5.06786
-4.99478
-4.91905
-4.84072
-4.75981
-4.67638
-4.59045
-4.50206
-4.41126
-4.31805
-4.22247
-4.12455
-4.02428
-3.92168
-3.81676
-3.70951
-3.59992
-3.48798
-3.37364
-3.25688
-3.13765
-3.01589
-2.89152
-2.76448
-2.63465
-2.50194
-2.36623
-2.22738
-2.08523
-1.93965
-1.79043
-1.63741
-1.48037
-1.31911
-1.15341
-0.983022
-0.80772
-0.627258
-0.441392
-0.24988
-0.0524821
0.151029
0.360865
0.577221
0.800258
1.03011
1.26687
1.51057
1.7612
2.01866
2.28279
2.55334
2.82996
3.11218
3.3994
3.69093
3.98592
4.28337
4.58217
4.88099
5.17841
5.47285
5.76268
6.04619
6.32157
6.58689
6.84018
7.0795
7.30296
7.50878
7.69533
7.86119
8.00517
8.12638
8.22424
8.29854
8.34939
8.37732
8.38317
8.36817
8.33382
8.28191
8.21445
8.1336
8.04167
7.94101
7.83397
7.7229
7.61003
7.49752
7.38739
7.28152
7.18165
7.08937
7.00612
6.93321
6.87183
6.82292
6.7876
6.76672
6.76141
6.7727
6.8015
6.84829
6.91313
6.99199
7.08083
7.14756
-4.9814
-5.003
-5.0269
-5.04511
-5.05743
-5.06605
-5.07251
-5.07782
-5.08288
-5.08857
-5.09563
-5.1047
-5.11626
-5.13062
-5.14797
-5.16833
-5.19165
-5.21779
-5.24651
-5.27754
-5.31055
-5.34522
-5.38118
-5.41808
-5.45558
-5.49335
-5.53109
-5.56851
-5.60535
-5.64136
-5.67633
-5.71007
-5.74239
-5.77315
-5.80221
-5.82945
-5.85475
-5.87804
-5.89922
-5.91822
-5.93498
-5.94943
-5.96153
-5.97121
-5.97844
-5.98317
-5.98536
-5.98497
-5.98195
-5.97629
-5.96794
-5.95687
-5.94306
-5.92647
-5.90709
-5.88489
-5.85985
-5.83196
-5.80121
-5.76758
-5.73108
-5.6917
-5.64944
-5.60432
-5.55633
-5.50549
-5.45183
-5.39534
-5.33607
-5.27403
-5.20926
-5.14179
-5.07164
-4.99883
-4.92341
-4.84541
-4.76487
-4.68182
-4.5963
-4.50836
-4.41802
-4.32532
-4.23027
-4.13292
-4.03326
-3.93132
-3.82709
-3.72058
-3.61179
-3.50068
-3.38725
-3.27144
-3.15323
-3.03254
-2.90932
-2.78348
-2.65494
-2.52358
-2.38929
-2.25194
-2.11137
-1.96744
-1.81997
-1.66876
-1.51362
-1.35434
-1.1907
-1.02246
-0.849386
-0.671229
-0.487744
-0.298686
-0.103813
0.0971079
0.304296
0.51795
0.738239
0.965304
1.19925
1.44012
1.68791
1.94254
2.20387
2.47165
2.74552
3.02506
3.30969
3.59872
3.89132
4.18651
4.48316
4.77999
5.07559
5.36841
5.65682
5.93912
6.21348
6.47799
6.7307
6.96968
7.19303
7.39898
7.5859
7.75237
7.89719
8.01947
8.11863
8.19445
8.24707
8.27699
8.28506
8.2725
8.24081
8.19176
8.12735
8.04974
7.9612
7.86405
7.76064
7.65324
7.54409
7.43528
7.3288
7.22649
7.13002
7.04095
6.96066
6.8904
6.83128
6.78423
6.75021
6.72998
6.72441
6.73422
6.75986
6.80113
6.85705
6.92285
6.99276
7.04009
-4.95896
-4.9825
-5.00947
-5.03071
-5.04588
-5.05739
-5.0669
-5.07546
-5.08398
-5.09327
-5.10401
-5.11674
-5.13185
-5.14956
-5.16996
-5.19303
-5.21864
-5.2466
-5.27667
-5.30857
-5.342
-5.37666
-5.41223
-5.44842
-5.48494
-5.52152
-5.55789
-5.59383
-5.62911
-5.66354
-5.69692
-5.72909
-5.7599
-5.78921
-5.8169
-5.84286
-5.86698
-5.88917
-5.90936
-5.92746
-5.9434
-5.95712
-5.96856
-5.97766
-5.98438
-5.98865
-5.99044
-5.98969
-5.98637
-5.98043
-5.97184
-5.96056
-5.94656
-5.92981
-5.91028
-5.88795
-5.86279
-5.8348
-5.80396
-5.77027
-5.7337
-5.69428
-5.65199
-5.60684
-5.55885
-5.50803
-5.45439
-5.39796
-5.33875
-5.27681
-5.21215
-5.14482
-5.07483
-5.00221
-4.927
-4.84925
-4.76898
-4.68624
-4.60106
-4.51349
-4.42356
-4.33131
-4.23675
-4.13992
-4.04084
-3.93952
-3.83596
-3.73018
-3.62216
-3.51188
-3.39934
-3.28448
-3.16728
-3.04767
-2.92559
-2.80096
-2.6737
-2.54369
-2.41083
-2.27497
-2.13598
-1.9937
-1.84795
-1.69854
-1.54528
-1.38795
-1.22633
-1.06019
-0.88928
-0.713359
-0.532175
-0.345479
-0.153025
0.0454272
0.250102
0.461205
0.678911
0.903372
1.1347
1.37296
1.61814
1.87018
2.12895
2.39421
2.66564
2.9428
3.22514
3.51198
3.8025
4.09573
4.39056
4.68572
4.97983
5.27134
5.55863
5.83998
6.11356
6.37747
6.62977
6.8685
7.09179
7.29785
7.48505
7.65196
7.7974
7.92046
8.02058
8.09752
8.15144
8.18284
8.1926
8.18191
8.15229
8.10552
8.04359
7.96864
7.88294
7.78879
7.6885
7.58432
7.47845
7.37294
7.26973
7.17061
7.07723
6.99105
6.91343
6.84554
6.78842
6.74295
6.70996
6.69012
6.68405
6.69217
6.71453
6.75041
6.79809
6.8525
6.90712
6.94018
-4.95036
-4.97393
-5.00175
-5.02453
-5.04158
-5.05523
-5.06711
-5.07828
-5.08958
-5.10172
-5.11531
-5.13081
-5.14853
-5.16863
-5.19115
-5.21603
-5.24312
-5.27222
-5.30309
-5.33545
-5.36903
-5.40355
-5.43874
-5.47432
-5.51006
-5.5457
-5.58103
-5.61585
-5.64995
-5.68317
-5.71535
-5.74633
-5.77598
-5.80418
-5.8308
-5.85576
-5.87894
-5.90027
-5.91965
-5.93701
-5.95228
-5.96539
-5.97627
-5.98487
-5.99112
-5.99498
-5.99638
-5.99528
-5.99164
-5.9854
-5.97653
-5.965
-5.95075
-5.93377
-5.91402
-5.89149
-5.86614
-5.83796
-5.80695
-5.77309
-5.73637
-5.6968
-5.65438
-5.60912
-5.56103
-5.51013
-5.45643
-5.39995
-5.34073
-5.2788
-5.21418
-5.14689
-5.07698
-5.00447
-4.92941
-4.85183
-4.77177
-4.68928
-4.60439
-4.51714
-4.42758
-4.33573
-4.24163
-4.14531
-4.04678
-3.94606
-3.84316
-3.73809
-3.63083
-3.52139
-3.40974
-3.29584
-3.17966
-3.06113
-2.94021
-2.81681
-2.69084
-2.5622
-2.43077
-2.29642
-2.15901
-2.01838
-1.87435
-1.72674
-1.57535
-1.41996
-1.26034
-1.09627
-0.927487
-0.753754
-0.574815
-0.390414
-0.2003
-0.00422753
0.198035
0.406703
0.621956
0.843948
1.07281
1.30861
1.55135
1.80099
2.0574
2.32036
2.58955
2.86456
3.14485
3.42973
3.7184
4.00992
4.30317
4.59691
4.88974
5.18016
5.46651
5.74708
6.02003
6.28345
6.53538
6.77389
6.99708
7.20316
7.3905
7.55766
7.70346
7.82701
7.92773
8.00541
8.06022
8.09266
8.10362
8.09433
8.06631
8.02134
7.96142
7.8887
7.80542
7.71386
7.61632
7.51503
7.41212
7.30962
7.20943
7.11327
7.02273
6.93925
6.86409
6.79838
6.74309
6.69902
6.6669
6.64727
6.64055
6.6469
6.66605
6.69688
6.73717
6.78189
6.8243
6.84705
-4.95452
-4.97658
-5.00331
-5.02607
-5.04387
-5.05872
-5.07214
-5.08509
-5.09831
-5.11244
-5.128
-5.14537
-5.16479
-5.18639
-5.2102
-5.23613
-5.26403
-5.2937
-5.32491
-5.3574
-5.39092
-5.42521
-5.46
-5.49507
-5.53018
-5.56511
-5.59966
-5.63365
-5.6669
-5.69925
-5.73056
-5.76069
-5.78952
-5.81691
-5.84278
-5.86701
-5.88951
-5.9102
-5.92899
-5.9458
-5.96055
-5.97318
-5.98362
-5.99181
-5.99767
-6.00117
-6.00223
-6.0008
-5.99685
-5.99031
-5.98115
-5.96933
-5.9548
-5.93755
-5.91753
-5.89473
-5.86912
-5.8407
-5.80943
-5.77533
-5.73838
-5.6986
-5.65597
-5.61052
-5.56225
-5.51119
-5.45736
-5.40077
-5.34147
-5.27947
-5.2148
-5.14751
-5.07761
-5.00516
-4.93018
-4.85272
-4.77282
-4.69053
-4.60589
-4.51894
-4.42971
-4.33825
-4.24459
-4.14875
-4.05077
-3.95065
-3.8484
-3.74405
-3.63758
-3.52897
-3.41823
-3.3053
-3.19015
-3.07274
-2.95299
-2.83083
-2.70617
-2.57892
-2.44894
-2.31612
-2.18031
-2.04134
-1.89905
-1.75324
-1.60372
-1.45026
-1.29263
-1.13061
-0.963932
-0.792352
-0.615612
-0.433455
-0.245621
-0.0518598
0.148067
0.354382
0.567278
0.786918
1.01343
1.2469
1.48735
1.73473
1.98893
2.24975
2.51687
2.7899
3.06829
3.35139
3.6384
3.92837
4.22022
4.51269
4.8044
5.09384
5.37936
5.65923
5.93159
6.19452
6.44607
6.68429
6.90728
7.11324
7.30053
7.46771
7.6136
7.73731
7.83829
7.91634
7.97163
8.0047
8.01646
8.00815
7.98132
7.93777
7.87949
7.80864
7.72746
7.63821
7.54317
7.44452
7.34436
7.24469
7.14733
7.05398
6.96616
6.88523
6.81242
6.74877
6.6952
6.65243
6.62108
6.60158
6.59418
6.59881
6.61493
6.64117
6.67502
6.71162
6.74442
6.75989
-4.96835
-4.98785
-5.01205
-5.03347
-5.05094
-5.06607
-5.08015
-5.09403
-5.10835
-5.12364
-5.14034
-5.15877
-5.17912
-5.2015
-5.22592
-5.25228
-5.28046
-5.31027
-5.34147
-5.37385
-5.40714
-5.44112
-5.47553
-5.51015
-5.54477
-5.57917
-5.61317
-5.64659
-5.67927
-5.71105
-5.7418
-5.77138
-5.79967
-5.82656
-5.85194
-5.87571
-5.89777
-5.91805
-5.93645
-5.95288
-5.96729
-5.97959
-5.9897
-5.99758
-6.00314
-6.00633
-6.0071
-6.00538
-6.00113
-5.9943
-5.98484
-5.97271
-5.95788
-5.94032
-5.91999
-5.89688
-5.87096
-5.84223
-5.81066
-5.77626
-5.73902
-5.69895
-5.65605
-5.61035
-5.56185
-5.51058
-5.45655
-5.3998
-5.34035
-5.27823
-5.21348
-5.14612
-5.07619
-5.00374
-4.92881
-4.85144
-4.77168
-4.68956
-4.60515
-4.51847
-4.42957
-4.33849
-4.24526
-4.14991
-4.05247
-3.95295
-3.85138
-3.74776
-3.64208
-3.53434
-3.42452
-3.31258
-3.1985
-3.08222
-2.96367
-2.84278
-2.71947
-2.59362
-2.46512
-2.33385
-2.19965
-2.06236
-1.92182
-1.77782
-1.63016
-1.47862
-1.32298
-1.16299
-0.998399
-0.828947
-0.654372
-0.474412
-0.288804
-0.0972909
0.100371
0.304411
0.515032
0.732408
0.956674
1.18792
1.42618
1.67143
1.92354
2.18234
2.44753
2.7187
2.99534
3.27678
3.56224
3.85079
4.14133
4.43262
4.72328
5.0118
5.29651
5.57567
5.84741
6.10981
6.36089
6.59869
6.8213
7.02693
7.21392
7.38084
7.52651
7.65005
7.75093
7.82896
7.88435
7.91767
7.92984
7.92215
7.89616
7.85369
7.79676
7.72752
7.64819
7.56105
7.46831
7.37216
7.27463
7.17767
7.08306
6.99243
6.90724
6.82881
6.75828
6.69665
6.64474
6.60322
6.57262
6.55324
6.54519
6.54824
6.56163
6.58382
6.61217
6.64213
6.66746
6.678
-4.98806
-5.00438
-5.02512
-5.04421
-5.06045
-5.07503
-5.08901
-5.10307
-5.11774
-5.13348
-5.15064
-5.16947
-5.19015
-5.21274
-5.23726
-5.26362
-5.29169
-5.32132
-5.35228
-5.38436
-5.41732
-5.45094
-5.48499
-5.51924
-5.55348
-5.58751
-5.62115
-5.65423
-5.68658
-5.71804
-5.74849
-5.77779
-5.80581
-5.83245
-5.85759
-5.88113
-5.90298
-5.92304
-5.94124
-5.95747
-5.97168
-5.98377
-5.99367
-6.00133
-6.00666
-6.00961
-6.01013
-6.00814
-6.00361
-5.99649
-5.98673
-5.97428
-5.95913
-5.94123
-5.92056
-5.89709
-5.87082
-5.84173
-5.80981
-5.77506
-5.73748
-5.69709
-5.65388
-5.60788
-5.55911
-5.50758
-5.45332
-5.39636
-5.33673
-5.27445
-5.20957
-5.14211
-5.07213
-4.99967
-4.92476
-4.84746
-4.76782
-4.68587
-4.60168
-4.51527
-4.4267
-4.336
-4.24322
-4.14837
-4.05149
-3.95261
-3.85172
-3.74885
-3.644
-3.53714
-3.42828
-3.31737
-3.20438
-3.08926
-2.97194
-2.85236
-2.73041
-2.60599
-2.479
-2.34929
-2.21673
-2.08113
-1.94234
-1.80015
-1.65436
-1.50474
-1.35107
-1.19309
-1.03056
-0.863202
-0.690755
-0.512948
-0.329515
-0.140192
0.055272
0.257111
0.465538
0.680733
0.902842
1.13196
1.36814
1.61134
1.86148
2.11837
2.38172
2.65114
2.92611
3.20599
3.48998
3.77717
4.06645
4.3566
4.64623
4.93381
5.21767
5.49606
5.76708
6.0288
6.27924
6.51642
6.73842
6.94344
7.12983
7.29616
7.44125
7.56426
7.66465
7.74229
7.79739
7.83058
7.84281
7.8354
7.80995
7.76829
7.71246
7.64462
7.56698
7.4818
7.39127
7.29752
7.20256
7.10826
7.01636
6.92843
6.84586
6.76991
6.70165
6.64201
6.59177
6.55151
6.52167
6.50247
6.49389
6.49555
6.50656
6.52528
6.54905
6.57371
6.59334
6.60078
-5.00988
-5.02274
-5.03951
-5.05561
-5.06996
-5.08335
-5.0966
-5.11024
-5.1247
-5.14033
-5.15741
-5.17616
-5.19671
-5.21912
-5.24338
-5.26943
-5.29715
-5.32639
-5.35696
-5.38864
-5.42122
-5.45448
-5.48819
-5.52214
-5.55611
-5.58992
-5.62336
-5.65628
-5.68849
-5.71986
-5.75022
-5.77946
-5.80744
-5.83404
-5.85915
-5.88266
-5.90448
-5.9245
-5.94264
-5.95881
-5.97293
-5.98492
-5.9947
-6.0022
-6.00736
-6.01012
-6.0104
-6.00817
-6.00337
-5.99595
-5.98587
-5.97309
-5.95758
-5.93932
-5.91827
-5.89443
-5.86777
-5.83829
-5.80599
-5.77086
-5.73291
-5.69216
-5.64862
-5.6023
-5.55323
-5.50142
-5.44691
-5.38971
-5.32987
-5.26741
-5.20239
-5.13483
-5.06479
-4.9923
-4.91742
-4.8402
-4.76068
-4.67892
-4.59496
-4.50885
-4.42063
-4.33034
-4.23802
-4.14371
-4.04742
-3.94919
-3.84904
-3.74696
-3.64296
-3.53703
-3.42915
-3.3193
-3.20744
-3.09351
-2.97746
-2.8592
-2.73864
-2.61569
-2.49021
-2.36209
-2.23117
-2.09728
-1.96024
-1.81986
-1.67593
-1.52822
-1.3765
-1.22051
-1.06
-0.894701
-0.724336
-0.548631
-0.367314
-0.180117
0.0132191
0.212935
0.419249
0.632351
0.852393
1.07948
1.31366
1.55493
1.80318
2.05825
2.31984
2.58758
2.86096
3.13933
3.42191
3.70776
3.9958
4.28479
4.57334
4.85991
5.14282
5.4203
5.69043
5.95128
6.20083
6.43712
6.65821
6.86229
7.04772
7.21307
7.35719
7.47925
7.57875
7.65558
7.71002
7.7427
7.75466
7.74722
7.72204
7.68096
7.62605
7.55946
7.4834
7.4001
7.31172
7.22035
7.12794
7.03632
6.94714
6.86192
6.78199
6.70854
6.64257
6.58497
6.53642
6.49746
6.46845
6.44953
6.44057
6.44109
6.45012
6.46597
6.48603
6.50656
6.52197
6.52774
-5.03052
-5.03992
-5.05253
-5.0653
-5.07731
-5.08908
-5.10115
-5.11394
-5.12775
-5.14286
-5.1595
-5.17783
-5.19795
-5.2199
-5.24369
-5.26925
-5.29647
-5.32521
-5.35529
-5.38653
-5.41871
-5.45162
-5.48503
-5.51875
-5.55255
-5.58624
-5.61963
-5.65253
-5.68478
-5.7162
-5.74666
-5.776
-5.8041
-5.83082
-5.85606
-5.87968
-5.9016
-5.9217
-5.93989
-5.95608
-5.97019
-5.98214
-5.99184
-5.99923
-6.00424
-6.00681
-6.00689
-6.0044
-5.99932
-5.99159
-5.98118
-5.96805
-5.95217
-5.93352
-5.91208
-5.88783
-5.86077
-5.83088
-5.79818
-5.76266
-5.72434
-5.68323
-5.63935
-5.59271
-5.54334
-5.49125
-5.43647
-5.37904
-5.319
-5.25637
-5.19122
-5.12357
-5.05348
-4.981
-4.90617
-4.82906
-4.7497
-4.66815
-4.58446
-4.49867
-4.41084
-4.321
-4.22919
-4.13545
-4.0398
-3.94228
-3.84289
-3.74164
-3.63854
-3.53358
-3.42673
-3.31798
-3.20728
-3.09459
-2.97982
-2.86292
-2.74378
-2.62231
-2.49838
-2.37185
-2.24257
-2.11039
-1.9751
-1.83653
-1.69444
-1.54862
-1.39881
-1.24478
-1.08625
-0.922958
-0.754618
-0.580952
-0.401682
-0.216534
-0.0252448
0.172433
0.376725
0.587827
0.805896
1.03104
1.26333
1.50274
1.7492
2.00252
2.26244
2.52857
2.8004
3.07729
3.35846
3.64298
3.92974
4.21752
4.50489
4.79033
5.07213
5.34849
5.61751
5.87721
6.12558
6.36063
6.58044
6.78318
6.96722
7.13116
7.27387
7.39454
7.49271
7.56832
7.62169
7.65352
7.66487
7.65713
7.63198
7.5913
7.53716
7.47172
7.39719
7.31574
7.22952
7.14055
7.05073
6.96183
6.87543
6.79297
6.71573
6.64483
6.58121
6.52568
6.47889
6.44131
6.41322
6.3947
6.38555
6.38522
6.39268
6.40625
6.42342
6.44086
6.45328
6.45852
-5.04733
-5.05348
-5.06201
-5.07131
-5.08078
-5.09065
-5.10127
-5.11291
-5.1258
-5.14014
-5.15609
-5.17378
-5.19328
-5.21463
-5.23782
-5.26278
-5.28942
-5.31761
-5.34718
-5.37796
-5.40974
-5.44231
-5.47547
-5.50901
-5.5427
-5.57636
-5.60977
-5.64275
-5.67513
-5.70672
-5.73737
-5.76693
-5.79524
-5.82218
-5.84762
-5.87143
-5.89351
-5.91374
-5.93203
-5.94828
-5.9624
-5.97432
-5.98396
-5.99124
-5.99609
-5.99847
-5.99831
-5.99557
-5.99019
-5.98214
-5.97138
-5.95788
-5.94162
-5.92258
-5.90073
-5.87608
-5.84862
-5.81834
-5.78526
-5.74937
-5.7107
-5.66926
-5.62507
-5.57813
-5.52847
-5.47612
-5.42111
-5.36347
-5.30326
-5.24051
-5.17526
-5.10757
-5.03748
-4.96506
-4.89034
-4.81338
-4.73423
-4.65295
-4.56959
-4.4842
-4.39681
-4.30748
-4.21624
-4.12314
-4.02819
-3.93142
-3.83286
-3.7325
-3.63035
-3.5264
-3.42064
-3.31303
-3.20354
-3.0921
-2.97867
-2.86315
-2.74545
-2.62547
-2.50309
-2.37817
-2.25054
-2.12005
-1.98651
-1.84971
-1.70944
-1.56546
-1.41754
-1.26541
-1.10881
-0.94745
-0.781062
-0.609356
-0.432048
-0.248859
-0.0595211
0.136218
0.33859
0.547794
0.763994
0.987307
1.21779
1.45545
1.70019
1.95185
2.21016
2.47473
2.74505
3.02048
3.30023
3.58336
3.86879
4.15524
4.44131
4.72543
5.0059
5.2809
5.54849
5.80671
6.05352
6.28692
6.505
6.70594
6.88812
7.05017
7.19097
7.30976
7.40615
7.48011
7.53202
7.56264
7.57309
7.5648
7.53949
7.49907
7.44561
7.38128
7.30826
7.22869
7.14467
7.05817
6.97102
6.88491
6.80137
6.72176
6.64728
6.579
6.51779
6.46442
6.41946
6.38334
6.35629
6.33833
6.32921
6.32832
6.33462
6.34648
6.36151
6.37676
6.38722
6.39283
-5.05895
-5.06228
-5.06692
-5.07277
-5.07955
-5.08733
-5.09627
-5.10654
-5.11828
-5.13163
-5.1467
-5.16356
-5.18228
-5.20288
-5.22532
-5.24956
-5.27552
-5.30305
-5.33203
-5.36227
-5.39359
-5.42579
-5.45866
-5.49199
-5.52557
-5.55919
-5.59264
-5.62573
-5.65826
-5.69005
-5.72092
-5.75071
-5.77927
-5.80645
-5.83211
-5.85611
-5.87836
-5.89872
-5.9171
-5.93339
-5.94752
-5.9594
-5.96894
-5.97609
-5.98078
-5.98295
-5.98255
-5.97953
-5.97385
-5.96547
-5.95437
-5.94051
-5.92389
-5.90447
-5.88226
-5.85724
-5.82942
-5.7988
-5.76539
-5.7292
-5.69025
-5.64855
-5.60409
-5.5569
-5.50701
-5.45446
-5.39929
-5.34152
-5.28122
-5.21842
-5.15317
-5.08552
-5.01553
-4.94325
-4.86873
-4.79203
-4.71319
-4.63228
-4.54935
-4.46444
-4.3776
-4.28887
-4.19831
-4.10593
-4.01177
-3.91586
-3.81821
-3.71882
-3.61771
-3.51486
-3.41026
-3.30386
-3.19564
-3.08554
-2.97349
-2.85941
-2.7432
-2.62476
-2.50397
-2.38067
-2.25472
-2.12594
-1.99414
-1.85911
-1.72065
-1.5785
-1.43243
-1.28217
-1.12744
-0.967975
-0.803479
-0.633665
-0.458244
-0.276934
-0.0894612
0.10443
0.304973
0.512375
0.7268
0.948369
1.17715
1.41313
1.65623
1.90629