/*--------------------------------*- C++ -*----------------------------------*\
| =========                 |                                                 |
| \\      /  F ield         | OpenFOAM: The Open Source CFD Toolbox           |
|  \\    /   O peration     | Version:  2412                                  |
|   \\  /    A nd           | Website:  www.openfoam.com                      |
|    \\/     M anipulation  |                                                 |
\*---------------------------------------------------------------------------*/
FoamFile
{
    version     2.0;
    format      ascii;
    arch        "LSB;label=32;scalar=64";
    class       surfaceScalarField;
    location    "0.07";
    object      phi;
}
// * * * * * * * * * * * * * * * * * * * * * * * * * * * * * * * * * * * * * //

dimensions      [0 3 -1 0 0 0 0];

oriented        oriented;

internalField   nonuniform List<scalar> 
24170
(
1.36707e-07
-5.71629e-08
1.95613e-07
-5.89058e-08
2.57891e-07
-6.22777e-08
3.11617e-07
-5.37259e-08
3.61718e-07
-5.01013e-08
4.07784e-07
-4.60657e-08
4.4938e-07
-4.15961e-08
4.86849e-07
-3.74694e-08
5.20579e-07
-3.37297e-08
5.50908e-07
-3.03287e-08
5.78162e-07
-2.72545e-08
6.02638e-07
-2.44757e-08
6.24584e-07
-2.19462e-08
6.4419e-07
-1.96061e-08
6.61622e-07
-1.74319e-08
6.76833e-07
-1.52111e-08
6.90141e-07
-1.33075e-08
-1.0021e-08
7.00162e-07
3.26111e-07
-1.24821e-07
3.94119e-07
-1.26914e-07
4.5585e-07
-1.24008e-07
5.14114e-07
-1.11991e-07
5.67565e-07
-1.03552e-07
6.1647e-07
-9.49705e-08
6.61053e-07
-8.61792e-08
7.01539e-07
-7.79556e-08
7.38227e-07
-7.04173e-08
7.71438e-07
-6.35395e-08
8.01479e-07
-5.72965e-08
8.2863e-07
-5.16264e-08
8.53128e-07
-4.6444e-08
8.75165e-07
-4.16431e-08
8.94879e-07
-3.71461e-08
9.12322e-07
-3.26534e-08
9.27608e-07
-2.85936e-08
-2.20851e-08
9.39672e-07
5.17241e-07
-1.71606e-07
5.79132e-07
-1.88805e-07
6.38164e-07
-1.83041e-07
6.95283e-07
-1.69109e-07
7.48047e-07
-1.56317e-07
7.96595e-07
-1.43518e-07
8.41174e-07
-1.30759e-07
8.81921e-07
-1.18702e-07
9.19053e-07
-1.0755e-07
9.52836e-07
-9.73223e-08
9.83533e-07
-8.79929e-08
1.01139e-06
-7.94803e-08
1.03661e-06
-7.16702e-08
1.05939e-06
-6.44206e-08
1.07984e-06
-5.75953e-08
1.09807e-06
-5.08886e-08
1.11386e-06
-4.43808e-08
-3.54005e-08
1.12718e-06
7.43474e-07
-1.9541e-07
7.91895e-07
-2.37227e-07
8.43774e-07
-2.34919e-07
8.96264e-07
-2.21599e-07
9.45872e-07
-2.05926e-07
9.92089e-07
-1.89734e-07
1.03493e-06
-1.736e-07
1.0744e-06
-1.58171e-07
1.1106e-06
-1.43755e-07
1.14373e-06
-1.30446e-07
1.17397e-06
-1.18232e-07
1.20152e-06
-1.07031e-07
1.22656e-06
-9.67106e-08
1.24924e-06
-8.71059e-08
1.26968e-06
-7.80347e-08
1.28797e-06
-6.9181e-08
1.30395e-06
-6.03599e-08
-4.95248e-08
1.31808e-06
1.01492e-06
-1.99856e-07
1.04728e-06
-2.69588e-07
1.08847e-06
-2.76109e-07
1.13328e-06
-2.66413e-07
1.17735e-06
-2.49994e-07
1.21928e-06
-2.31662e-07
1.25869e-06
-2.13015e-07
1.2954e-06
-1.94879e-07
1.32937e-06
-1.77722e-07
1.36066e-06
-1.61741e-07
1.3894e-06
-1.46969e-07
1.41571e-06
-1.3334e-07
1.43972e-06
-1.20724e-07
1.46156e-06
-1.08945e-07
1.48132e-06
-9.77948e-08
1.4991e-06
-8.69595e-08
1.51487e-06
-7.61338e-08
-6.38479e-08
1.5292e-06
1.33807e-06
-1.90486e-07
1.35423e-06
-2.85748e-07
1.38237e-06
-3.04252e-07
1.41683e-06
-3.00869e-07
1.45297e-06
-2.86135e-07
1.48857e-06
-2.67259e-07
1.52277e-06
-2.47218e-07
1.55514e-06
-2.27248e-07
1.58546e-06
-2.08044e-07
1.61367e-06
-1.8995e-07
1.63978e-06
-1.73076e-07
1.66383e-06
-1.57397e-07
1.68591e-06
-1.42802e-07
1.70609e-06
-1.29125e-07
1.72445e-06
-1.16153e-07
1.74109e-06
-1.03596e-07
1.75608e-06
-9.11277e-08
-7.7736e-08
1.76997e-06
1.71766e-06
-1.72865e-07
1.71926e-06
-2.87348e-07
1.73344e-06
-3.18437e-07
1.75557e-06
-3.22996e-07
1.78161e-06
-3.12178e-07
1.80887e-06
-2.94513e-07
1.83604e-06
-2.74387e-07
1.86242e-06
-2.53629e-07
1.88761e-06
-2.33231e-07
1.91138e-06
-2.13725e-07
1.93364e-06
-1.95333e-07
1.95434e-06
-1.78096e-07
1.97348e-06
-1.61946e-07
1.9911e-06
-1.46744e-07
2.00725e-06
-1.32298e-07
2.02201e-06
-1.1836e-07
2.03553e-06
-1.04643e-07
-9.04814e-08
2.04827e-06
2.15732e-06
-1.51497e-07
2.14713e-06
-2.77153e-07
2.14795e-06
-3.19261e-07
2.15688e-06
-3.31927e-07
2.17124e-06
-3.26532e-07
2.18841e-06
-3.11684e-07
2.20684e-06
-2.92819e-07
2.22562e-06
-2.72412e-07
2.24417e-06
-2.51784e-07
2.26213e-06
-2.31679e-07
2.27926e-06
-2.12463e-07
2.29543e-06
-1.94268e-07
2.31057e-06
-1.77087e-07
2.32466e-06
-1.60828e-07
2.3377e-06
-1.45341e-07
2.34977e-06
-1.30434e-07
2.36102e-06
-1.15889e-07
-1.01299e-07
2.37184e-06
2.6601e-06
-1.29406e-07
2.64122e-06
-2.58274e-07
2.63046e-06
-3.08506e-07
2.62662e-06
-3.28079e-07
2.62862e-06
-3.28533e-07
2.63455e-06
-3.17622e-07
2.64292e-06
-3.0118e-07
2.65271e-06
-2.82212e-07
2.66327e-06
-2.62335e-07
2.67409e-06
-2.42502e-07
2.68485e-06
-2.23227e-07
2.69533e-06
-2.04748e-07
2.70539e-06
-1.8714e-07
2.71493e-06
-1.70369e-07
2.72393e-06
-1.54344e-07
2.73243e-06
-1.38937e-07
2.74056e-06
-1.24013e-07
-1.09353e-07
2.74861e-06
3.22872e-06
-1.08269e-07
3.20395e-06
-2.33502e-07
3.18396e-06
-2.88521e-07
3.16885e-06
-3.12965e-07
3.15894e-06
-3.18626e-07
3.15337e-06
-3.12045e-07
3.15097e-06
-2.98779e-07
3.15086e-06
-2.82107e-07
3.15238e-06
-2.63853e-07
3.155e-06
-2.45118e-07
3.15832e-06
-2.26549e-07
3.16206e-06
-2.0849e-07
3.16601e-06
-1.91096e-07
3.17005e-06
-1.74406e-07
3.1741e-06
-1.58393e-07
3.17816e-06
-1.42993e-07
3.1823e-06
-1.28158e-07
-1.13792e-07
3.18674e-06
3.86569e-06
-8.89312e-08
3.83712e-06
-2.04936e-07
3.81014e-06
-2.61533e-07
3.78586e-06
-2.88691e-07
3.76548e-06
-2.98238e-07
3.74909e-06
-2.95656e-07
3.73609e-06
-2.85778e-07
3.72586e-06
-2.71877e-07
3.71786e-06
-2.55856e-07
3.71163e-06
-2.38887e-07
3.70677e-06
-2.21695e-07
3.70299e-06
-2.04706e-07
3.70004e-06
-1.88151e-07
3.69777e-06
-1.72133e-07
3.69607e-06
-1.56686e-07
3.69488e-06
-1.41809e-07
3.69425e-06
-1.27529e-07
-1.13826e-07
3.69429e-06
3.81122e-06
-7.32461e-08
3.78547e-06
-1.79188e-07
3.75873e-06
-2.34793e-07
3.73282e-06
-2.62781e-07
3.70905e-06
-2.74468e-07
3.68801e-06
-2.74615e-07
3.6696e-06
-2.67371e-07
3.65357e-06
-2.55842e-07
3.63963e-06
-2.41915e-07
3.62749e-06
-2.26751e-07
3.61689e-06
-2.11097e-07
3.6076e-06
-1.95417e-07
3.59943e-06
-1.79981e-07
3.59224e-06
-1.64941e-07
3.58592e-06
-1.5037e-07
3.58043e-06
-1.36315e-07
3.5757e-06
-1.228e-07
-1.10059e-07
3.57193e-06
5.03711e-06
-5.75999e-08
5.00701e-06
-1.4909e-07
4.97349e-06
-2.01269e-07
4.93932e-06
-2.2861e-07
4.90622e-06
-2.41365e-07
4.87532e-06
-2.43719e-07
4.84694e-06
-2.38987e-07
4.82104e-06
-2.29945e-07
4.79752e-06
-2.18393e-07
4.7762e-06
-2.05435e-07
4.75689e-06
-1.91789e-07
4.7394e-06
-1.77922e-07
4.72355e-06
-1.64127e-07
4.70919e-06
-1.50585e-07
4.69622e-06
-1.37402e-07
4.68457e-06
-1.24657e-07
4.67417e-06
-1.12406e-07
-1.00982e-07
4.66509e-06
6.66242e-06
-4.25482e-08
6.62906e-06
-1.15733e-07
6.58904e-06
-1.61241e-07
6.54647e-06
-1.86044e-07
6.5035e-06
-1.98398e-07
6.4618e-06
-2.02015e-07
6.42215e-06
-1.99344e-07
6.38484e-06
-1.92633e-07
6.34995e-06
-1.83503e-07
6.31748e-06
-1.72963e-07
6.28735e-06
-1.6166e-07
6.25946e-06
-1.50029e-07
6.23369e-06
-1.38356e-07
6.20993e-06
-1.26829e-07
6.1881e-06
-1.15568e-07
6.16811e-06
-1.04668e-07
6.14991e-06
-9.42052e-08
-8.45398e-08
6.13346e-06
8.79084e-06
-2.87268e-08
8.75639e-06
-8.12802e-08
8.7116e-06
-1.16454e-07
8.66182e-06
-1.36261e-07
8.60974e-06
-1.46323e-07
8.5575e-06
-1.4977e-07
8.50645e-06
-1.48298e-07
8.45729e-06
-1.43471e-07
8.41036e-06
-1.3657e-07
8.36584e-06
-1.28445e-07
8.32381e-06
-1.19632e-07
8.28428e-06
-1.10498e-07
8.24722e-06
-1.01294e-07
8.21258e-06
-9.21909e-08
8.18032e-06
-8.33061e-08
8.15038e-06
-7.47292e-08
8.1227e-06
-6.65264e-08
-5.9074e-08
8.09723e-06
1.1518e-05
-1.64334e-08
1.14847e-05
-4.79271e-08
1.14382e-05
-6.99685e-08
1.13843e-05
-8.2323e-08
1.1326e-05
-8.81e-08
1.12659e-05
-8.96119e-08
1.12056e-05
-8.80007e-08
1.11463e-05
-8.41782e-08
1.10887e-05
-7.89732e-08
1.10332e-05
-7.29774e-08
1.09802e-05
-6.65634e-08
1.09296e-05
-5.99795e-08
1.08817e-05
-5.34022e-08
1.08365e-05
-4.69603e-08
1.0794e-05
-4.07451e-08
1.07541e-05
-3.48311e-08
1.07168e-05
-2.92454e-08
-2.43718e-08
1.06821e-05
1.48842e-05
-5.20963e-09
1.48524e-05
-1.61675e-08
1.48062e-05
-2.36733e-08
1.47508e-05
-2.70045e-08
1.46901e-05
-2.73228e-08
1.46262e-05
-2.57955e-08
1.45613e-05
-2.30089e-08
1.44964e-05
-1.93581e-08
1.44327e-05
-1.52212e-08
1.43706e-05
-1.08906e-08
1.43106e-05
-6.5498e-09
1.42529e-05
-2.31981e-09
1.41978e-05
1.72684e-09
1.41453e-05
5.52968e-09
1.40955e-05
9.03984e-09
1.40485e-05
1.22147e-08
1.40041e-05
1.50824e-08
1.72928e-08
1.39625e-05
1.8769e-05
6.47352e-09
1.87365e-05
1.63811e-08
1.86883e-05
2.45406e-08
1.863e-05
3.12176e-08
1.8566e-05
3.67546e-08
1.84987e-05
4.14184e-08
1.84304e-05
4.53781e-08
1.83622e-05
4.87585e-08
1.82954e-05
5.16561e-08
1.82303e-05
5.41384e-08
1.81675e-05
5.62514e-08
1.81072e-05
5.80261e-08
1.80494e-05
5.94834e-08
1.79943e-05
6.06323e-08
1.79419e-05
6.14798e-08
1.78921e-05
6.20148e-08
1.78449e-05
6.22956e-08
6.20623e-08
1.78001e-05
2.26768e-05
1.71909e-08
2.26399e-05
5.33022e-08
2.25835e-05
8.08882e-08
2.2515e-05
9.97444e-08
2.24394e-05
1.12366e-07
2.23601e-05
1.20761e-07
2.22795e-05
1.25989e-07
2.21994e-05
1.2883e-07
2.21211e-05
1.29983e-07
2.20452e-05
1.2997e-07
2.19723e-05
1.29134e-07
2.19027e-05
1.27701e-07
2.18363e-05
1.25832e-07
2.17733e-05
1.2364e-07
2.17136e-05
1.21203e-07
2.1657e-05
1.18566e-07
2.16035e-05
1.1579e-07
1.12735e-07
2.15529e-05
1.5604e-05
3.28114e-08
1.55642e-05
9.30971e-08
1.55093e-05
1.358e-07
1.5446e-05
1.63041e-07
1.53782e-05
1.80121e-07
1.53087e-05
1.90258e-07
1.52395e-05
1.95171e-07
1.51721e-05
1.96321e-07
1.51071e-05
1.94953e-07
1.50451e-05
1.91934e-07
1.49864e-05
1.87826e-07
1.49311e-05
1.83017e-07
1.48792e-05
1.77782e-07
1.48305e-05
1.72312e-07
1.4785e-05
1.66737e-07
1.47424e-05
1.61151e-07
1.47025e-05
1.55615e-07
1.5007e-07
1.46652e-05
1.23903e-05
5.13754e-08
1.23449e-05
1.38497e-07
1.22866e-05
1.94045e-07
1.22229e-05
2.2677e-07
1.21572e-05
2.45826e-07
1.20921e-05
2.55325e-07
1.20295e-05
2.57806e-07
1.19702e-05
2.55598e-07
1.19147e-05
2.5046e-07
1.18631e-05
2.43513e-07
1.18155e-05
2.35486e-07
1.17716e-05
2.26878e-07
1.17314e-05
2.18031e-07
1.16945e-05
2.09172e-07
1.16608e-05
2.00449e-07
1.163e-05
1.9196e-07
1.16018e-05
1.83751e-07
1.75809e-07
1.15761e-05
9.55931e-06
7.56558e-08
9.50988e-06
1.87928e-07
9.45393e-06
2.5e-07
9.39726e-06
2.83431e-07
9.34226e-06
3.00828e-07
9.29091e-06
3.06678e-07
9.24415e-06
3.04563e-07
9.20213e-06
2.97624e-07
9.16468e-06
2.87907e-07
9.13155e-06
2.76642e-07
9.10241e-06
2.64629e-07
9.07689e-06
2.52401e-07
9.05462e-06
2.40299e-07
9.03526e-06
2.28531e-07
9.01849e-06
2.1722e-07
9.00401e-06
2.06436e-07
8.99157e-06
1.96195e-07
1.86503e-07
8.98088e-06
7.18006e-06
1.0505e-07
7.13273e-06
2.35253e-07
7.0872e-06
2.95534e-07
7.04577e-06
3.24862e-07
7.00972e-06
3.36876e-07
6.97999e-06
3.36406e-07
6.95625e-06
3.28303e-07
6.93773e-06
3.16146e-07
6.92369e-06
3.01946e-07
6.91346e-06
2.86871e-07
6.90642e-06
2.71663e-07
6.90205e-06
2.56777e-07
6.89987e-06
2.42473e-07
6.89952e-06
2.28885e-07
6.90067e-06
2.16073e-07
6.90305e-06
2.04054e-07
6.90644e-06
1.92804e-07
1.82321e-07
6.91062e-06
5.24558e-06
1.38185e-07
5.20794e-06
2.7289e-07
5.18061e-06
3.2287e-07
5.16192e-06
3.43549e-07
5.15181e-06
3.46987e-07
5.14922e-06
3.39e-07
5.15231e-06
3.25212e-07
5.15958e-06
3.08871e-07
5.16994e-06
2.91587e-07
5.18253e-06
2.74283e-07
5.19668e-06
2.57509e-07
5.2119e-06
2.41559e-07
5.2278e-06
2.26569e-07
5.24411e-06
2.12582e-07
5.2606e-06
1.99586e-07
5.27711e-06
1.87543e-07
5.29351e-06
1.76395e-07
1.66129e-07
5.30971e-06
3.71463e-06
1.71687e-07
3.69614e-06
2.91379e-07
3.69458e-06
3.24435e-07
3.70461e-06
3.33519e-07
3.72381e-06
3.2778e-07
3.74894e-06
3.13874e-07
3.77742e-06
2.96736e-07
3.80769e-06
2.78594e-07
3.83877e-06
2.60507e-07
3.86998e-06
2.43082e-07
3.90084e-06
2.26644e-07
3.93107e-06
2.11329e-07
3.96048e-06
1.97164e-07
3.98894e-06
1.84117e-07
4.0164e-06
1.72124e-07
4.04283e-06
1.61111e-07
4.06823e-06
1.51e-07
1.41776e-07
4.09258e-06
2.53541e-06
1.96869e-07
2.5463e-06
2.80489e-07
2.57499e-06
2.9575e-07
2.6144e-06
2.94109e-07
2.65996e-06
2.82214e-07
2.7077e-06
2.66143e-07
2.75556e-06
2.48869e-07
2.80256e-06
2.31594e-07
2.8481e-06
2.14967e-07
2.89184e-06
1.99342e-07
2.93362e-06
1.84865e-07
2.97338e-06
1.71566e-07
3.01114e-06
1.59404e-07
3.04696e-06
1.48306e-07
3.08089e-06
1.38185e-07
3.11305e-06
1.28953e-07
3.14353e-06
1.20527e-07
1.12908e-07
3.17239e-06
1.65471e-06
1.99269e-07
1.70061e-06
2.34586e-07
1.75718e-06
2.39182e-07
1.81999e-06
2.31295e-07
1.88403e-06
2.18174e-07
1.94634e-06
2.0384e-07
2.00603e-06
1.89173e-07
2.06275e-06
1.74873e-07
2.11632e-06
1.61406e-07
2.1667e-06
1.48952e-07
2.21402e-06
1.37553e-07
2.2584e-06
1.27183e-07
2.30003e-06
1.17778e-07
2.33908e-06
1.09254e-07
2.37574e-06
1.01526e-07
2.41018e-06
9.4512e-08
2.44257e-06
8.81318e-08
8.24235e-08
2.47306e-06
1.01828e-06
1.63849e-07
1.09491e-06
1.57953e-07
1.17031e-06
1.63781e-07
1.24682e-06
1.54784e-07
1.32029e-06
1.44709e-07
1.38936e-06
1.34774e-07
1.45408e-06
1.24445e-07
1.51453e-06
1.14432e-07
1.57078e-06
1.05147e-07
1.62308e-06
9.66554e-08
1.67169e-06
8.89459e-08
1.71689e-06
8.19828e-08
1.75896e-06
7.57069e-08
1.79817e-06
7.00492e-08
1.83475e-06
6.49418e-08
1.86894e-06
6.0324e-08
1.90095e-06
5.61164e-08
5.23948e-08
1.93098e-06
5.6924e-07
8.45256e-08
6.59003e-07
6.8191e-08
7.40817e-07
8.19664e-08
8.20959e-07
7.46422e-08
8.96018e-07
6.96505e-08
9.65641e-07
6.51506e-08
1.03014e-06
5.99435e-08
1.08974e-06
5.48358e-08
1.14471e-06
5.01771e-08
1.19541e-06
4.59568e-08
1.24221e-06
4.21456e-08
1.28547e-06
3.87231e-08
1.32552e-06
3.56553e-08
1.36267e-06
3.29023e-08
1.39718e-06
3.0426e-08
1.42931e-06
2.81979e-08
1.45928e-06
2.61455e-08
2.43176e-08
1.48736e-06
2.2245e-07
2.90641e-07
3.72607e-07
4.47249e-07
5.169e-07
5.8205e-07
6.41994e-07
6.9683e-07
7.47007e-07
7.92964e-07
8.35109e-07
8.73832e-07
9.09488e-07
9.4239e-07
9.72816e-07
1.00101e-06
1.02716e-06
1.05148e-06
3.02598e-08
-3.02598e-08
7.80757e-08
-4.78159e-08
1.26195e-07
-4.81192e-08
1.67534e-07
-4.1339e-08
1.98797e-07
-3.1263e-08
2.18526e-07
-1.97288e-08
2.26269e-07
-7.74288e-09
2.22052e-07
4.21688e-09
2.06479e-07
1.55729e-08
1.81839e-07
2.46401e-08
1.50295e-07
3.15433e-08
1.13584e-07
3.67112e-08
7.28346e-08
4.07497e-08
2.84057e-08
4.44289e-08
-2.00568e-08
4.84625e-08
-7.34398e-08
5.3383e-08
-1.32679e-07
5.9239e-08
-1.98309e-07
6.56303e-08
-2.70312e-07
7.20025e-08
-3.48085e-07
7.77733e-08
-4.30583e-07
8.24976e-08
-5.16503e-07
8.59208e-08
-6.04462e-07
8.79592e-08
-6.93082e-07
8.86198e-08
-7.81092e-07
8.80093e-08
-8.67391e-07
8.62995e-08
-9.51088e-07
8.3697e-08
-1.03151e-06
8.04192e-08
-1.10818e-06
7.66748e-08
-1.18083e-06
7.26511e-08
-1.24934e-06
6.85072e-08
-1.31371e-06
6.43709e-08
-1.37405e-06
6.03389e-08
-1.43053e-06
5.64798e-08
-1.48337e-06
5.28376e-08
-1.5328e-06
4.94368e-08
-1.57909e-06
4.6286e-08
-1.62247e-06
4.33828e-08
-1.66319e-06
4.07164e-08
-1.70146e-06
3.82713e-08
-1.73749e-06
3.6029e-08
-1.77146e-06
3.39698e-08
-1.80353e-06
3.20741e-08
-1.83386e-06
3.03227e-08
-1.86255e-06
2.8698e-08
-1.88974e-06
2.71838e-08
-1.9155e-06
2.57656e-08
-1.93993e-06
2.44304e-08
-1.9631e-06
2.31669e-08
-1.98507e-06
2.19653e-08
-2.00588e-06
2.08171e-08
-2.0256e-06
1.97151e-08
-2.04425e-06
1.86531e-08
-2.06188e-06
1.7626e-08
-2.07851e-06
1.66295e-08
-2.09417e-06
1.56599e-08
-2.10888e-06
1.47145e-08
-2.12267e-06
1.37908e-08
-2.13556e-06
1.2887e-08
-2.14756e-06
1.20013e-08
-2.15869e-06
1.11327e-08
-2.16897e-06
1.02802e-08
-2.17842e-06
9.44288e-09
-2.18704e-06
8.61995e-09
-2.19485e-06
7.81067e-09
-2.20186e-06
7.01408e-09
-2.20809e-06
6.22896e-09
-2.21354e-06
5.45358e-09
-2.21823e-06
4.68536e-09
-2.22215e-06
3.91982e-09
-2.2253e-06
3.15085e-09
-2.22767e-06
2.36998e-09
-2.22924e-06
1.56626e-09
-2.22996e-06
7.22259e-10
-2.22975e-06
-2.07522e-10
-2.22878e-06
-9.683e-10
-2.22713e-06
-1.65196e-09
-2.22486e-06
-2.27221e-09
-2.22199e-06
-2.86473e-09
-2.21855e-06
-3.44192e-09
-2.21454e-06
-4.01097e-09
-2.20996e-06
-4.57644e-09
-2.20482e-06
-5.14118e-09
-2.19912e-06
-5.70756e-09
-2.19284e-06
-6.27773e-09
-2.18598e-06
-6.854e-09
-2.17855e-06
-7.43868e-09
-2.17051e-06
-8.03445e-09
-2.16187e-06
-8.64408e-09
-2.1526e-06
-9.27061e-09
-2.14268e-06
-9.91736e-09
-2.13209e-06
-1.05878e-08
-2.12081e-06
-1.12858e-08
-2.10879e-06
-1.20151e-08
-2.09601e-06
-1.27802e-08
-2.08242e-06
-1.35855e-08
-2.06799e-06
-1.44355e-08
-2.05265e-06
-1.53354e-08
-2.03636e-06
-1.629e-08
-2.01906e-06
-1.73049e-08
-2.00067e-06
-1.83853e-08
-1.98114e-06
-1.95371e-08
-1.96037e-06
-2.0766e-08
-1.93829e-06
-2.20779e-08
-1.91481e-06
-2.34789e-08
-1.88984e-06
-2.49751e-08
-1.86327e-06
-2.65725e-08
-1.83499e-06
-2.82775e-08
-1.80489e-06
-3.0096e-08
-1.77286e-06
-3.20341e-08
-1.73876e-06
-3.40976e-08
-1.70247e-06
-3.62922e-08
-1.66384e-06
-3.86234e-08
-1.62275e-06
-4.10959e-08
-1.57903e-06
-4.37143e-08
-1.53255e-06
-4.64825e-08
-1.48315e-06
-4.94035e-08
-1.43067e-06
-5.24797e-08
-1.37496e-06
-5.57122e-08
-1.31586e-06
-5.91012e-08
-1.25321e-06
-6.26451e-08
-1.18687e-06
-6.6341e-08
-1.11669e-06
-7.01842e-08
-1.04252e-06
-7.41678e-08
-9.64235e-07
-7.82828e-08
-8.81717e-07
-8.25178e-08
-7.94858e-07
-8.68585e-08
-7.0357e-07
-9.1288e-08
-6.07785e-07
-9.57859e-08
-5.07457e-07
-1.00328e-07
-4.02572e-07
-1.04885e-07
-2.93154e-07
-1.09417e-07
-1.79275e-07
-1.1388e-07
-6.11092e-08
-1.18165e-07
6.12387e-08
-1.22348e-07
1.87719e-07
-1.2648e-07
3.181e-07
-1.30382e-07
4.52129e-07
-1.34028e-07
5.89512e-07
-1.37383e-07
7.29904e-07
-1.40392e-07
8.72904e-07
-1.43e-07
1.01806e-06
-1.45157e-07
1.16488e-06
-1.46816e-07
1.31281e-06
-1.47935e-07
1.46129e-06
-1.48476e-07
1.6097e-06
-1.4841e-07
1.75741e-06
-1.47715e-07
1.90379e-06
-1.46375e-07
2.04818e-06
-1.44387e-07
2.18993e-06
-1.41754e-07
2.32842e-06
-1.38489e-07
2.46304e-06
-1.34616e-07
2.5932e-06
-1.30166e-07
2.71838e-06
-1.25177e-07
2.83807e-06
-1.19695e-07
2.95184e-06
-1.13768e-07
3.05929e-06
-1.0745e-07
3.16009e-06
-1.00795e-07
3.25394e-06
-9.38575e-08
3.34063e-06
-8.66882e-08
3.41997e-06
-7.9335e-08
3.49181e-06
-7.18399e-08
3.55605e-06
-6.42378e-08
3.6126e-06
-5.65577e-08
3.66142e-06
-4.88137e-08
3.70239e-06
-4.09736e-08
3.73542e-06
-3.30246e-08
3.76052e-06
-2.51025e-08
3.77673e-06
-1.62134e-08
3.78081e-06
-4.08e-09
3.76893e-06
1.18858e-08
3.74236e-06
2.65671e-08
3.70158e-06
4.07775e-08
3.64635e-06
5.52358e-08
3.57529e-06
7.10508e-08
3.48573e-06
8.9563e-08
3.37242e-06
1.13315e-07
3.22739e-06
1.45022e-07
3.02648e-06
2.00909e-07
2.61967e-07
2.76452e-06
4.86389e-08
-7.88987e-08
8.65038e-08
-8.56807e-08
1.07859e-07
-6.94745e-08
1.1665e-07
-5.01298e-08
1.15701e-07
-3.03146e-08
1.06659e-07
-1.06868e-08
9.05041e-08
8.41245e-09
6.79918e-08
2.67292e-08
3.95573e-08
4.40075e-08
4.35973e-09
5.98377e-08
-3.80805e-08
7.39835e-08
-8.79268e-08
8.65576e-08
-1.452e-07
9.80233e-08
-2.09742e-07
1.0897e-07
-2.81105e-07
1.19826e-07
-3.58397e-07
1.30675e-07
-4.40377e-07
1.41219e-07
-5.25627e-07
1.50881e-07
-6.12629e-07
1.59004e-07
-6.99898e-07
1.65042e-07
-7.86074e-07
1.68674e-07
-8.69983e-07
1.69829e-07
-9.50668e-07
1.68645e-07
-1.02745e-06
1.65397e-07
-1.09989e-06
1.60452e-07
-1.1678e-06
1.54212e-07
-1.23118e-06
1.47073e-07
-1.29015e-06
1.39394e-07
-1.34496e-06
1.31481e-07
-1.39589e-06
1.23579e-07
-1.44325e-06
1.15874e-07
-1.48738e-06
1.08497e-07
-1.52857e-06
1.01532e-07
-1.56712e-06
9.50229e-08
-1.60326e-06
8.89872e-08
-1.63725e-06
8.34196e-08
-1.66926e-06
7.83001e-08
-1.69948e-06
7.35994e-08
-1.72804e-06
6.92832e-08
-1.75509e-06
6.53146e-08
-1.78072e-06
6.16569e-08
-1.80502e-06
5.82749e-08
-1.82808e-06
5.51354e-08
-1.84997e-06
5.22082e-08
-1.87074e-06
4.94659e-08
-1.89044e-06
4.68841e-08
-1.90911e-06
4.44413e-08
-1.9268e-06
4.21189e-08
-1.94353e-06
3.99006e-08
-1.95934e-06
3.77722e-08
-1.97425e-06
3.5722e-08
-1.98827e-06
3.37397e-08
-2.00143e-06
3.18166e-08
-2.01375e-06
2.99458e-08
-2.02525e-06
2.81212e-08
-2.03592e-06
2.6338e-08
-2.0458e-06
2.45922e-08
-2.05489e-06
2.28806e-08
-2.0632e-06
2.12006e-08
-2.07075e-06
1.95502e-08
-2.07755e-06
1.79279e-08
-2.0836e-06
1.63323e-08
-2.08892e-06
1.47622e-08
-2.09352e-06
1.32168e-08
-2.0974e-06
1.16948e-08
-2.10058e-06
1.01952e-08
-2.10307e-06
8.71647e-09
-2.10487e-06
7.25693e-09
-2.106e-06
5.81423e-09
-2.10647e-06
4.38579e-09
-2.10629e-06
2.96886e-09
-2.10548e-06
1.56123e-09
-2.10408e-06
1.70006e-10
-2.10215e-06
-1.21295e-09
-2.09979e-06
-2.56437e-09
-2.09692e-06
-3.83821e-09
-2.09351e-06
-5.06057e-09
-2.08954e-06
-6.24377e-09
-2.085e-06
-7.40198e-09
-2.0799e-06
-8.54373e-09
-2.07424e-06
-9.67493e-09
-2.06801e-06
-1.08006e-08
-2.06123e-06
-1.19248e-08
-2.05388e-06
-1.30518e-08
-2.04598e-06
-1.41858e-08
-2.0375e-06
-1.5331e-08
-2.02845e-06
-1.64923e-08
-2.0188e-06
-1.76749e-08
-2.00856e-06
-1.88844e-08
-1.99771e-06
-2.01269e-08
-1.98622e-06
-2.1409e-08
-1.97407e-06
-2.27377e-08
-1.96123e-06
-2.41206e-08
-1.94768e-06
-2.55656e-08
-1.93338e-06
-2.70813e-08
-1.91829e-06
-2.86766e-08
-1.90236e-06
-3.0361e-08
-1.88555e-06
-3.21442e-08
-1.86781e-06
-3.40366e-08
-1.84906e-06
-3.60488e-08
-1.82926e-06
-3.81918e-08
-1.80832e-06
-4.04771e-08
-1.78617e-06
-4.29164e-08
-1.76272e-06
-4.55215e-08
-1.7379e-06
-4.83046e-08
-1.7116e-06
-5.12779e-08
-1.68371e-06
-5.44537e-08
-1.65415e-06
-5.78445e-08
-1.62278e-06
-6.14623e-08
-1.5895e-06
-6.53191e-08
-1.55417e-06
-6.94268e-08
-1.51666e-06
-7.37964e-08
-1.47685e-06
-7.84387e-08
-1.43458e-06
-8.33635e-08
-1.38971e-06
-8.85793e-08
-1.3421e-06
-9.40939e-08
-1.29159e-06
-9.99132e-08
-1.23803e-06
-1.06042e-07
-1.18126e-06
-1.12481e-07
-1.12113e-06
-1.19232e-07
-1.05749e-06
-1.26291e-07
-9.90176e-07
-1.33651e-07
-9.19057e-07
-1.41304e-07
-8.43991e-07
-1.49234e-07
-7.64849e-07
-1.57424e-07
-6.81516e-07
-1.65851e-07
-5.93888e-07
-1.74486e-07
-5.01882e-07
-1.83294e-07
-4.05434e-07
-1.92234e-07
-3.04504e-07
-2.01258e-07
-1.99081e-07
-2.10308e-07
-8.91799e-08
-2.19318e-07
2.51738e-08
-2.28233e-07
1.43998e-07
-2.3699e-07
2.67175e-07
-2.45524e-07
3.94463e-07
-2.53768e-07
5.25701e-07
-2.6162e-07
6.60661e-07
-2.68988e-07
7.99052e-07
-2.75774e-07
9.40533e-07
-2.81873e-07
1.08471e-06
-2.8718e-07
1.23115e-06
-2.91598e-07
1.37937e-06
-2.95034e-07
1.52884e-06
-2.97404e-07
1.679e-06
-2.98638e-07
1.82927e-06
-2.98677e-07
1.97903e-06
-2.97474e-07
2.12766e-06
-2.95004e-07
2.27452e-06
-2.91254e-07
2.41901e-06
-2.86235e-07
2.56049e-06
-2.79971e-07
2.69838e-06
-2.72507e-07
2.83212e-06
-2.63904e-07
2.96118e-06
-2.54238e-07
3.08508e-06
-2.43595e-07
3.20338e-06
-2.32075e-07
3.31571e-06
-2.1978e-07
3.42173e-06
-2.06816e-07
3.52117e-06
-1.93289e-07
3.61378e-06
-1.793e-07
3.69939e-06
-1.64943e-07
3.77785e-06
-1.503e-07
3.84905e-06
-1.35441e-07
3.91291e-06
-1.20418e-07
3.96936e-06
-1.05262e-07
4.01834e-06
-8.99549e-08
4.05979e-06
-7.44719e-08
4.09346e-06
-5.87724e-08
4.11969e-06
-4.24459e-08
4.14048e-06
-2.48722e-08
4.15719e-06
-4.822e-09
4.16757e-06
1.61891e-08
4.16979e-06
3.85526e-08
4.16261e-06
6.24176e-08
4.14481e-06
8.88505e-08
4.11492e-06
1.19447e-07
4.07049e-06
1.5775e-07
4.00819e-06
2.07318e-07
3.92057e-06
2.88529e-07
3.96806e-07
3.78573e-06
3.04068e-08
-1.09306e-07
3.78119e-08
-9.30859e-08
3.35168e-08
-6.51795e-08
2.15335e-08
-3.81464e-08
3.47695e-09
-1.22581e-08
-1.99297e-08
1.27199e-08
-4.84126e-08
3.68953e-08
-8.19399e-08
6.02565e-08
-1.2061e-07
8.26779e-08
-1.64712e-07
1.0394e-07
-2.14574e-07
1.23845e-07
-2.70366e-07
1.42349e-07
-3.31895e-07
1.59552e-07
-3.98498e-07
1.75573e-07
-4.69057e-07
1.90385e-07
-5.4212e-07
2.03738e-07
-6.16098e-07
2.15197e-07
-6.89489e-07
2.24272e-07
-7.61044e-07
2.30559e-07
-8.29848e-07
2.33846e-07
-8.95324e-07
2.34149e-07
-9.57185e-07
2.31691e-07
-1.01538e-06
2.26838e-07
-1.07002e-06
2.20038e-07
-1.12133e-06
2.11765e-07
-1.16959e-06
2.02472e-07
-1.21509e-06
1.92567e-07
-1.25809e-06
1.82394e-07
-1.29884e-06
1.7223e-07
-1.33754e-06
1.62284e-07
-1.37437e-06
1.52707e-07
-1.40948e-06
1.436e-07
-1.44297e-06
1.35021e-07
-1.47494e-06
1.26995e-07
-1.50547e-06
1.19522e-07
-1.53464e-06
1.12587e-07
-1.5625e-06
1.06162e-07
-1.58911e-06
1.00209e-07
-1.61452e-06
9.46912e-08
-1.63877e-06
8.95663e-08
-1.66191e-06
8.47944e-08
-1.68397e-06
8.03369e-08
-1.70499e-06
7.61577e-08
-1.72501e-06
7.22236e-08
-1.74405e-06
6.85044e-08
-1.76214e-06
6.49732e-08
-1.7793e-06
6.16058e-08
-1.79556e-06
5.83812e-08
-1.81094e-06
5.52809e-08
-1.82546e-06
5.22889e-08
-1.83913e-06
4.93915e-08
-1.85197e-06
4.65768e-08
-1.86399e-06
4.38352e-08
-1.8752e-06
4.11581e-08
-1.88562e-06
3.85388e-08
-1.89525e-06
3.59716e-08
-1.90411e-06
3.3452e-08
-1.91221e-06
3.09764e-08
-1.91955e-06
2.85419e-08
-1.92614e-06
2.61464e-08
-1.932e-06
2.37882e-08
-1.93714e-06
2.14659e-08
-1.94155e-06
1.91785e-08
-1.94526e-06
1.69252e-08
-1.94827e-06
1.47051e-08
-1.95059e-06
1.25174e-08
-1.95224e-06
1.03611e-08
-1.95322e-06
8.23525e-09
-1.95354e-06
6.13876e-09
-1.95323e-06
4.0707e-09
-1.95229e-06
2.03086e-09
-1.95075e-06
1.967e-11
-1.94862e-06
-1.95661e-09
-1.94594e-06
-3.89512e-09
-1.94272e-06
-5.78474e-09
-1.93894e-06
-7.61922e-09
-1.93459e-06
-9.40649e-09
-1.92968e-06
-1.1156e-08
-1.9242e-06
-1.28767e-08
-1.91817e-06
-1.45767e-08
-1.91158e-06
-1.62624e-08
-1.90444e-06
-1.79396e-08
-1.89675e-06
-1.96139e-08
-1.88852e-06
-2.12911e-08
-1.87972e-06
-2.29773e-08
-1.87038e-06
-2.4679e-08
-1.86047e-06
-2.64033e-08
-1.84998e-06
-2.81578e-08
-1.83892e-06
-2.99511e-08
-1.82725e-06
-3.1792e-08
-1.81497e-06
-3.36906e-08
-1.80205e-06
-3.56571e-08
-1.78847e-06
-3.77028e-08
-1.77419e-06
-3.98397e-08
-1.75919e-06
-4.20804e-08
-1.74343e-06
-4.44383e-08
-1.72687e-06
-4.69274e-08
-1.70945e-06
-4.95624e-08
-1.69113e-06
-5.23588e-08
-1.67184e-06
-5.53325e-08
-1.65153e-06
-5.84999e-08
-1.63013e-06
-6.18783e-08
-1.60756e-06
-6.5485e-08
-1.58375e-06
-6.93379e-08
-1.5586e-06
-7.34553e-08
-1.53202e-06
-7.78555e-08
-1.50392e-06
-8.2557e-08
-1.47418e-06
-8.75783e-08
-1.44271e-06
-9.29376e-08
-1.40937e-06
-9.86529e-08
-1.37406e-06
-1.04742e-07
-1.33663e-06
-1.11221e-07
-1.29697e-06
-1.18107e-07
-1.25492e-06
-1.25413e-07
-1.21034e-06
-1.33154e-07
-1.1631e-06
-1.41339e-07
-1.11303e-06
-1.49979e-07
-1.05999e-06
-1.59079e-07
-1.00383e-06
-1.68644e-07
-9.44391e-07
-1.78671e-07
-8.81524e-07
-1.89158e-07
-8.15081e-07
-2.00094e-07
-7.44919e-07
-2.11465e-07
-6.70903e-07
-2.2325e-07
-5.92905e-07
-2.35422e-07
-5.1081e-07
-2.47947e-07
-4.24515e-07
-2.6078e-07
-3.33936e-07
-2.73873e-07
-2.39008e-07
-2.87162e-07
-1.39686e-07
-3.0058e-07
-3.59464e-08
-3.14048e-07
7.22225e-08
-3.27487e-07
1.84809e-07
-3.40819e-07
3.01775e-07
-3.53956e-07
4.2303e-07
-3.66779e-07
5.48406e-07
-3.79145e-07
6.77701e-07
-3.90915e-07
8.10667e-07
-4.01954e-07
9.4701e-07
-4.12117e-07
1.08639e-06
-4.21253e-07
1.22842e-06
-4.29212e-07
1.37268e-06
-4.35852e-07
1.51868e-06
-4.41036e-07
1.66592e-06
-4.44644e-07
1.81385e-06
-4.46568e-07
1.96189e-06
-4.46723e-07
2.10946e-06
-4.45042e-07
2.25594e-06
-4.41485e-07
2.40072e-06
-4.36036e-07
2.5432e-06
-4.28709e-07
2.68277e-06
-4.19541e-07
2.81886e-06
-4.08599e-07
2.95093e-06
-3.95972e-07
3.07847e-06
-3.81774e-07
3.201e-06
-3.66134e-07
3.31812e-06
-3.49196e-07
3.42946e-06
-3.31113e-07
3.53468e-06
-3.12043e-07
3.63354e-06
-2.92142e-07
3.7258e-06
-2.7156e-07
3.81129e-06
-2.50435e-07
3.88988e-06
-2.28891e-07
3.96147e-06
-2.07031e-07
4.02599e-06
-1.84935e-07
4.08338e-06
-1.6265e-07
4.1336e-06
-1.4018e-07
4.17662e-06
-1.17496e-07
4.21235e-06
-9.45007e-08
4.24086e-06
-7.09559e-08
4.26256e-06
-4.65655e-08
4.27838e-06
-2.06453e-08
4.28788e-06
6.68668e-09
4.29061e-06
3.58225e-08
4.2858e-06
6.72297e-08
4.27265e-06
1.02005e-07
4.25018e-06
1.41909e-07
4.21734e-06
1.90589e-07
4.17236e-06
2.52302e-07
4.11777e-06
3.43115e-07
4.65936e-07
4.04864e-06
-2.02562e-09
-1.0728e-07
-1.84963e-08
-7.66152e-08
-4.00342e-08
-4.36416e-08
-6.52292e-08
-1.29514e-08
-9.38724e-08
1.63851e-08
-1.26032e-07
4.48791e-08
-1.61855e-07
7.27184e-08
-2.01472e-07
9.98742e-08
-2.44964e-07
1.26169e-07
-2.92357e-07
1.51333e-07
-3.4358e-07
1.75069e-07
-3.98354e-07
1.97123e-07
-4.56087e-07
2.17284e-07
-5.1586e-07
2.35346e-07
-5.76526e-07
2.51051e-07
-6.36875e-07
2.64087e-07
-6.95813e-07
2.74135e-07
-7.52501e-07
2.8096e-07
-8.06415e-07
2.84474e-07
-8.57342e-07
2.84772e-07
-9.05312e-07
2.82119e-07
-9.50523e-07
2.76902e-07
-9.93265e-07
2.69579e-07
-1.03385e-06
2.60627e-07
-1.07259e-06
2.50501e-07
-1.10973e-06
2.39614e-07
-1.14548e-06
2.2832e-07
-1.18e-06
2.16908e-07
-1.21338e-06
2.05609e-07
-1.24569e-06
1.94595e-07
-1.27697e-06
1.83987e-07
-1.30723e-06
1.73866e-07
-1.33649e-06
1.64281e-07
-1.36475e-06
1.5525e-07
-1.392e-06
1.46773e-07
-1.41825e-06
1.38835e-07
-1.44349e-06
1.31409e-07
-1.46775e-06
1.24464e-07
-1.49102e-06
1.17962e-07
-1.51332e-06
1.11865e-07
-1.53466e-06
1.06136e-07
-1.55506e-06
1.00736e-07
-1.57453e-06
9.56311e-08
-1.59309e-06
9.07877e-08
-1.61077e-06
8.61755e-08
-1.62756e-06
8.17672e-08
-1.64349e-06
7.75379e-08
-1.65858e-06
7.34657e-08
-1.67283e-06
6.95312e-08
-1.68626e-06
6.57174e-08
-1.69887e-06
6.20098e-08
-1.71069e-06
5.83957e-08
-1.72172e-06
5.48645e-08
-1.73197e-06
5.14073e-08
-1.74145e-06
4.80167e-08
-1.75016e-06
4.46868e-08
-1.75812e-06
4.14127e-08
-1.76534e-06
3.81907e-08
-1.77182e-06
3.50179e-08
-1.77756e-06
3.18921e-08
-1.78258e-06
2.88118e-08
-1.78689e-06
2.5776e-08
-1.7905e-06
2.27837e-08
-1.79341e-06
1.98346e-08
-1.79563e-06
1.69283e-08
-1.79718e-06
1.40642e-08
-1.79806e-06
1.12421e-08
-1.79829e-06
8.46173e-09
-1.79787e-06
5.72284e-09
-1.79683e-06
3.02548e-09
-1.79516e-06
3.70172e-10
-1.7929e-06
-2.2415e-09
-1.79005e-06
-4.80599e-09
-1.78663e-06
-7.31942e-09
-1.78264e-06
-9.77782e-09
-1.77807e-06
-1.21814e-08
-1.77295e-06
-1.45359e-08
-1.76725e-06
-1.68488e-08
-1.761e-06
-1.91275e-08
-1.7542e-06
-2.13798e-08
-1.74685e-06
-2.36128e-08
-1.73895e-06
-2.58334e-08
-1.73052e-06
-2.80488e-08
-1.72154e-06
-3.02662e-08
-1.71203e-06
-3.24937e-08
-1.70197e-06
-3.47399e-08
-1.69136e-06
-3.7014e-08
-1.68019e-06
-3.93262e-08
-1.66845e-06
-4.16876e-08
-1.65613e-06
-4.41102e-08
-1.64322e-06
-4.66067e-08
-1.62968e-06
-4.91911e-08
-1.61551e-06
-5.18782e-08
-1.60066e-06
-5.46837e-08
-1.58512e-06
-5.76243e-08
-1.56884e-06
-6.07176e-08
-1.55179e-06
-6.39824e-08
-1.53391e-06
-6.74381e-08
-1.51516e-06
-7.1105e-08
-1.49549e-06
-7.50043e-08
-1.47483e-06
-7.91579e-08
-1.45312e-06
-8.35885e-08
-1.43029e-06
-8.83194e-08
-1.40625e-06
-9.33742e-08