/*--------------------------------*- C++ -*----------------------------------*\
| =========                 |                                                 |
| \\      /  F ield         | OpenFOAM: The Open Source CFD Toolbox           |
|  \\    /   O peration     | Version:  2412                                  |
|   \\  /    A nd           | Website:  www.openfoam.com                      |
|    \\/     M anipulation  |                                                 |
\*---------------------------------------------------------------------------*/
FoamFile
{
    version     2.0;
    format      ascii;
    arch        "LSB;label=32;scalar=64";
    class       volVectorField;
    location    "0.07";
    object      U;
}
// * * * * * * * * * * * * * * * * * * * * * * * * * * * * * * * * * * * * * //

dimensions      [0 1 -1 0 0 0 0];

internalField   nonuniform List<vector> 
12225
(
(0.377188 -0.200898 0)
(0.543959 -0.0519227 0)
(0.710998 -0.0340043 0)
(0.893855 -0.0304611 0)
(1.05889 -0.0297264 0)
(1.2085 -0.0284273 0)
(1.34567 -0.0264888 0)
(1.46981 -0.0245423 0)
(1.58138 -0.0227297 0)
(1.68166 -0.0210348 0)
(1.77183 -0.0194555 0)
(1.85286 -0.0179848 0)
(1.92557 -0.0166037 0)
(1.99069 -0.0152757 0)
(2.04862 -0.0139908 0)
(2.10039 -0.0126301 0)
(2.1427 -0.0108595 0)
(2.19287 -0.0141403 0)
(0.933506 -0.031778 0)
(1.05669 -0.0586996 0)
(1.23657 -0.0688777 0)
(1.4214 -0.0644505 0)
(1.58526 -0.0617672 0)
(1.73402 -0.0589103 0)
(1.87076 -0.0554981 0)
(1.99529 -0.0521013 0)
(2.10811 -0.0488507 0)
(2.21024 -0.0457544 0)
(2.30267 -0.0428283 0)
(2.38626 -0.0400607 0)
(2.46176 -0.0374154 0)
(2.5298 -0.0348257 0)
(2.59084 -0.0322605 0)
(2.64535 -0.0293642 0)
(2.69299 -0.0270177 0)
(2.73552 -0.0188012 0)
(1.39963 -0.0846803 0)
(1.49177 -0.105658 0)
(1.65457 -0.107198 0)
(1.82243 -0.101882 0)
(1.97239 -0.0979118 0)
(2.10994 -0.0935562 0)
(2.23715 -0.0886269 0)
(2.35371 -0.0836673 0)
(2.45995 -0.0788506 0)
(2.55667 -0.0742242 0)
(2.64461 -0.0698161 0)
(2.72447 -0.0656113 0)
(2.79687 -0.061559 0)
(2.86236 -0.0575701 0)
(2.92137 -0.0535535 0)
(2.97416 -0.0491901 0)
(3.0209 -0.044691 0)
(3.06061 -0.0367371 0)
(1.89741 -0.11542 0)
(1.9462 -0.143278 0)
(2.07511 -0.144924 0)
(2.21728 -0.140679 0)
(2.34767 -0.135663 0)
(2.46927 -0.129903 0)
(2.58289 -0.123527 0)
(2.68785 -0.117016 0)
(2.78422 -0.110606 0)
(2.87248 -0.104403 0)
(2.95314 -0.0984508 0)
(3.0267 -0.0927369 0)
(3.09365 -0.0872008 0)
(3.15441 -0.0817341 0)
(3.20934 -0.0761981 0)
(3.25862 -0.0702599 0)
(3.3027 -0.0637918 0)
(3.33977 -0.0539807 0)
(2.43108 -0.125821 0)
(2.44047 -0.169848 0)
(2.5287 -0.17733 0)
(2.63982 -0.176052 0)
(2.74647 -0.171074 0)
(2.84854 -0.164538 0)
(2.94551 -0.15715 0)
(3.03616 -0.149417 0)
(3.12019 -0.141672 0)
(3.19775 -0.134089 0)
(3.26909 -0.126745 0)
(3.33449 -0.11964 0)
(3.39428 -0.112714 0)
(3.44876 -0.105847 0)
(3.49821 -0.0988675 0)
(3.54274 -0.0914365 0)
(3.58307 -0.0832155 0)
(3.61692 -0.0719872 0)
(2.99682 -0.123669 0)
(2.97693 -0.185311 0)
(3.02457 -0.201353 0)
(3.10181 -0.204797 0)
(3.18175 -0.201372 0)
(3.26146 -0.195009 0)
(3.33926 -0.187261 0)
(3.41335 -0.178827 0)
(3.48297 -0.170167 0)
(3.54793 -0.161549 0)
(3.60819 -0.153097 0)
(3.66383 -0.144839 0)
(3.71499 -0.136727 0)
(3.76185 -0.128643 0)
(3.8046 -0.120403 0)
(3.8433 -0.111684 0)
(3.87885 -0.102075 0)
(3.90855 -0.0899784 0)
(3.58832 -0.114487 0)
(3.55085 -0.190507 0)
(3.56308 -0.215756 0)
(3.60655 -0.225123 0)
(3.65838 -0.224754 0)
(3.7139 -0.219649 0)
(3.77069 -0.21232 0)
(3.82644 -0.203809 0)
(3.87996 -0.194748 0)
(3.93072 -0.185522 0)
(3.97842 -0.176326 0)
(4.0229 -0.167227 0)
(4.06415 -0.158202 0)
(4.1022 -0.149153 0)
(4.13716 -0.139903 0)
(4.16902 -0.130169 0)
(4.19879 -0.119567 0)
(4.22331 -0.107016 0)
(4.1988 -0.101738 0)
(4.15392 -0.186978 0)
(4.13906 -0.220538 0)
(4.15194 -0.236071 0)
(4.1763 -0.239831 0)
(4.20722 -0.237016 0)
(4.24208 -0.230919 0)
(4.2784 -0.22301 0)
(4.31466 -0.214123 0)
(4.35004 -0.204779 0)
(4.38401 -0.19526 0)
(4.41623 -0.18569 0)
(4.44651 -0.176086 0)
(4.47474 -0.166379 0)
(4.50096 -0.156426 0)
(4.52508 -0.145998 0)
(4.54815 -0.134792 0)
(4.5665 -0.12212 0)
(4.82185 -0.0877724 0)
(4.77657 -0.176756 0)
(4.74377 -0.216639 0)
(4.73166 -0.23754 0)
(4.73139 -0.245755 0)
(4.739 -0.245956 0)
(4.75229 -0.241801 0)
(4.76902 -0.235144 0)
(4.7876 -0.227016 0)
(4.80702 -0.218072 0)
(4.82658 -0.20869 0)
(4.84581 -0.199063 0)
(4.86436 -0.189258 0)
(4.88204 -0.17925 0)
(4.89879 -0.168941 0)
(4.91444 -0.158172 0)
(4.93002 -0.146741 0)
(4.94138 -0.134251 0)
(5.45145 -0.0740645 0)
(5.40945 -0.161868 0)
(5.36669 -0.205585 0)
(5.33629 -0.230304 0)
(5.31596 -0.242463 0)
(5.30328 -0.245886 0)
(5.29684 -0.244105 0)
(5.29503 -0.239196 0)
(5.29645 -0.232334 0)
(5.30009 -0.224273 0)
(5.30521 -0.215481 0)
(5.31124 -0.206219 0)
(5.31778 -0.196611 0)
(5.32454 -0.186682 0)
(5.33138 -0.176391 0)
(5.33808 -0.165648 0)
(5.34563 -0.154357 0)
(5.34938 -0.142325 0)
(6.08166 -0.0613413 0)
(6.04406 -0.144004 0)
(5.99701 -0.189036 0)
(5.95469 -0.215762 0)
(5.91967 -0.230736 0)
(5.891 -0.237002 0)
(5.86807 -0.237613 0)
(5.85002 -0.234659 0)
(5.83589 -0.229376 0)
(5.82487 -0.22256 0)
(5.8163 -0.214733 0)
(5.80961 -0.206212 0)
(5.80441 -0.197173 0)
(5.80036 -0.187692 0)
(5.79729 -0.177782 0)
(5.79492 -0.167419 0)
(5.7942 -0.156604 0)
(5.79005 -0.145284 0)
(6.65461 -0.0505415 0)
(6.62051 -0.126006 0)
(6.57292 -0.170249 0)
(6.52454 -0.197302 0)
(6.48076 -0.213631 0)
(6.44176 -0.221762 0)
(6.40741 -0.224191 0)
(6.37745 -0.222888 0)
(6.35143 -0.219073 0)
(6.32881 -0.213526 0)
(6.30909 -0.206776 0)
(6.29184 -0.199168 0)
(6.27669 -0.190907 0)
(6.26334 -0.18211 0)
(6.25163 -0.17283 0)
(6.24123 -0.163096 0)
(6.2331 -0.15295 0)
(6.22178 -0.142544 0)
(7.20973 -0.0405852 0)
(7.18012 -0.107168 0)
(7.13435 -0.149231 0)
(7.0832 -0.175611 0)
(7.03409 -0.192303 0)
(6.98828 -0.201537 0)
(6.94588 -0.205274 0)
(6.90704 -0.205287 0)
(6.87173 -0.202748 0)
(6.83973 -0.198398 0)
(6.81075 -0.192742 0)
(6.7845 -0.186123 0)
(6.76071 -0.178764 0)
(6.73914 -0.170805 0)
(6.71966 -0.162328 0)
(6.70197 -0.153404 0)
(6.68696 -0.144087 0)
(6.66904 -0.134747 0)
(7.81811 -0.0309863 0)
(7.79334 -0.0858748 0)
(7.75162 -0.12342 0)
(7.70062 -0.147709 0)
(7.64892 -0.163579 0)
(7.59904 -0.173047 0)
(7.55131 -0.177537 0)
(7.50609 -0.178494 0)
(7.46369 -0.177 0)
(7.42418 -0.173743 0)
(7.38749 -0.169183 0)
(7.35349 -0.163638 0)
(7.32205 -0.15733 0)
(7.29302 -0.150406 0)
(7.26633 -0.142969 0)
(7.24171 -0.135109 0)
(7.22002 -0.126907 0)
(7.19578 -0.118822 0)
(8.45854 -0.0222011 0)
(8.43889 -0.0634816 0)
(8.40332 -0.0937745 0)
(8.3559 -0.114003 0)
(8.30504 -0.127458 0)
(8.25438 -0.13588 0)
(8.20464 -0.140237 0)
(8.15633 -0.14153 0)
(8.10999 -0.140632 0)
(8.06594 -0.138148 0)
(8.02429 -0.134472 0)
(7.98506 -0.129887 0)
(7.94822 -0.124597 0)
(7.91373 -0.118748 0)
(7.88157 -0.112449 0)
(7.85156 -0.105795 0)
(7.82448 -0.0988777 0)
(7.79525 -0.0921803 0)
(9.08865 -0.014265 0)
(9.07379 -0.0414193 0)
(9.04553 -0.0623148 0)
(9.0048 -0.0764472 0)
(8.9587 -0.0856627 0)
(8.9113 -0.0913316 0)
(8.86367 -0.0941447 0)
(8.81638 -0.0947121 0)
(8.7701 -0.093627 0)
(8.72538 -0.0913348 0)
(8.6825 -0.0881311 0)
(8.64161 -0.0842233 0)
(8.60276 -0.0797688 0)
(8.566 -0.0748907 0)
(8.53137 -0.0696881 0)
(8.49873 -0.0642534 0)
(8.46882 -0.058653 0)
(8.4373 -0.0533936 0)
(9.63295 -0.00695627 0)
(9.62168 -0.0203592 0)
(9.59982 -0.0308157 0)
(9.56649 -0.0375647 0)
(9.52729 -0.0413676 0)
(9.48619 -0.0430555 0)
(9.44437 -0.0430784 0)
(9.40229 -0.0417741 0)
(9.36053 -0.0394847 0)
(9.31967 -0.0364925 0)
(9.28008 -0.0329921 0)
(9.24195 -0.0291197 0)
(9.20541 -0.0249823 0)
(9.17056 -0.0206678 0)
(9.13746 -0.0162472 0)
(9.10602 -0.0118001 0)
(9.07683 -0.00734106 0)
(9.04687 -0.00336424 0)
(9.96404 0.000230538 0)
(9.95458 0.000530025 0)
(9.93647 0.00123794 0)
(9.90809 0.002734 0)
(9.87418 0.00493027 0)
(9.83852 0.0076358 0)
(9.80237 0.0107469 0)
(9.76609 0.0141926 0)
(9.73014 0.0178896 0)
(9.695 0.0217578 0)
(9.66099 0.0257353 0)
(9.62826 0.0297725 0)
(9.59689 0.033823 0)
(9.56691 0.0378404 0)
(9.53835 0.0417835 0)
(9.51117 0.0455881 0)
(9.48554 0.0492777 0)
(9.46045 0.0524367 0)
(9.87499 0.00759497 0)
(9.86689 0.0221602 0)
(9.8499 0.0348193 0)
(9.82255 0.0452666 0)
(9.78968 0.053926 0)
(9.75512 0.0612801 0)
(9.72013 0.0676263 0)
(9.68509 0.0731804 0)
(9.65047 0.0781395 0)
(9.61678 0.0826629 0)
(9.58432 0.0868585 0)
(9.55324 0.0907945 0)
(9.5236 0.0945137 0)
(9.49541 0.0980375 0)
(9.46867 0.101373 0)
(9.44339 0.104501 0)
(9.41928 0.107457 0)
(9.39738 0.109958 0)
(9.28437 0.0160302 0)
(9.27067 0.0465298 0)
(9.24586 0.0717383 0)
(9.20995 0.0911848 0)
(9.16921 0.106229 0)
(9.12761 0.118072 0)
(9.08624 0.127396 0)
(9.04551 0.134745 0)
(9.00596 0.140631 0)
(8.96808 0.145458 0)
(8.93213 0.149505 0)
(8.8982 0.152962 0)
(8.86628 0.155967 0)
(8.83634 0.158619 0)
(8.80831 0.160989 0)
(8.78216 0.163123 0)
(8.7574 0.165069 0)
(8.73602 0.166681 0)
(8.47102 0.0261867 0)
(8.4524 0.0740949 0)
(8.4198 0.110827 0)
(8.37644 0.137553 0)
(8.33027 0.157392 0)
(8.28499 0.172191 0)
(8.24131 0.182985 0)
(8.19956 0.19073 0)
(8.16021 0.196288 0)
(8.12355 0.200284 0)
(8.08962 0.203145 0)
(8.05835 0.205178 0)
(8.02962 0.206613 0)
(8.00329 0.207619 0)
(7.97919 0.208322 0)
(7.95721 0.208817 0)
(7.93683 0.209165 0)
(7.92007 0.209322 0)
(7.5124 0.0386033 0)
(7.48664 0.104742 0)
(7.44656 0.150628 0)
(7.39976 0.181916 0)
(7.35429 0.204052 0)
(7.31232 0.219334 0)
(7.27384 0.229289 0)
(7.23893 0.235458 0)
(7.20769 0.239053 0)
(7.18 0.240875 0)
(7.15559 0.241466 0)
(7.13418 0.241217 0)
(7.11547 0.240412 0)
(7.09917 0.239253 0)
(7.08503 0.237882 0)
(7.07283 0.236407 0)
(7.06207 0.234882 0)
(7.05448 0.233331 0)
(6.48931 0.0542886 0)
(6.45659 0.137095 0)
(6.41306 0.187274 0)
(6.37086 0.219006 0)
(6.33525 0.239968 0)
(6.30579 0.252741 0)
(6.28177 0.259566 0)
(6.26275 0.262524 0)
(6.24817 0.263003 0)
(6.23734 0.261859 0)
(6.22966 0.259672 0)
(6.2246 0.256854 0)
(6.22172 0.253689 0)
(6.22065 0.250368 0)
(6.22105 0.24702 0)
(6.22271 0.243733 0)
(6.22516 0.240553 0)
(6.22981 0.237534 0)
(5.45712 0.073438 0)
(5.41833 0.166639 0)
(5.3788 0.214369 0)
(5.353 0.242296 0)
(5.33901 0.258783 0)
(5.333 0.266637 0)
(5.33343 0.268909 0)
(5.33902 0.267928 0)
(5.34839 0.26501 0)
(5.36045 0.260938 0)
(5.37442 0.256246 0)
(5.38974 0.251285 0)
(5.40593 0.246282 0)
(5.42267 0.241375 0)
(5.4397 0.236648 0)
(5.45684 0.232155 0)
(5.47376 0.227916 0)
(5.49161 0.223995 0)
(4.45282 0.0948119 0)
(4.4121 0.187522 0)
(4.3906 0.226124 0)
(4.39683 0.246662 0)
(4.41685 0.256262 0)
(4.44388 0.25824 0)
(4.47598 0.256067 0)
(4.51127 0.251756 0)
(4.54805 0.246287 0)
(4.58526 0.240257 0)
(4.62229 0.234061 0)
(4.65871 0.227943 0)
(4.69425 0.222042 0)
(4.72871 0.216434 0)
(4.762 0.211157 0)
(4.7941 0.206225 0)
(4.82482 0.201641 0)
(4.85512 0.197467 0)
(3.50293 0.114474 0)
(3.47305 0.192998 0)
(3.48925 0.217784 0)
(3.54142 0.229082 0)
(3.60296 0.231715 0)
(3.66701 0.229138 0)
(3.73247 0.22419 0)
(3.79763 0.218137 0)
(3.86109 0.211584 0)
(3.92219 0.204927 0)
(3.98069 0.198421 0)
(4.03644 0.192207 0)
(4.08944 0.186354 0)
(4.13972 0.18089 0)
(4.18738 0.175818 0)
(4.23255 0.171129 0)
(4.27524 0.166809 0)
(4.31628 0.16293 0)
(2.62982 0.122995 0)
(2.63211 0.176439 0)
(2.70189 0.188063 0)
(2.80491 0.191221 0)
(2.90767 0.189289 0)
(3.00653 0.184813 0)
(3.10227 0.17918 0)
(3.19391 0.173037 0)
(3.2806 0.166784 0)
(3.36222 0.160676 0)
(3.43891 0.154858 0)
(3.51087 0.149404 0)
(3.57836 0.14434 0)
(3.64166 0.139664 0)
(3.70105 0.135361 0)
(3.75684 0.131408 0)
(3.8092 0.127784 0)
(3.85887 0.124582 0)
(1.85178 0.104831 0)
(1.90641 0.134469 0)
(2.03042 0.141957 0)
(2.17832 0.140602 0)
(2.31618 0.137153 0)
(2.44388 0.133065 0)
(2.56429 0.128273 0)
(2.67731 0.123188 0)
(2.78259 0.118168 0)
(2.88043 0.113368 0)
(2.97135 0.10886 0)
(3.05587 0.10468 0)
(3.1345 0.100832 0)
(3.20773 0.0973046 0)
(3.27601 0.0940755 0)
(3.33978 0.0911217 0)
(3.39936 0.0884076 0)
(3.45549 0.0860401 0)
(1.17533 0.0416912 0)
(1.2824 0.0661217 0)
(1.43876 0.0890201 0)
(1.61675 0.0892273 0)
(1.78063 0.0862969 0)
(1.92958 0.0834141 0)
(2.06801 0.0799324 0)
(2.19662 0.0762317 0)
(2.31531 0.0726573 0)
(2.42466 0.0692937 0)
(2.52552 0.0661662 0)
(2.61871 0.0632903 0)
(2.70491 0.0606626 0)
(2.78479 0.0582668 0)
(2.85893 0.0560824 0)
(2.9279 0.0540925 0)
(2.99211 0.052235 0)
(3.05228 0.050609 0)
(0.469481 0.226527 0)
(0.642369 0.0691695 0)
(0.788992 0.0480412 0)
(0.972589 0.0444339 0)
(1.14937 0.0430033 0)
(1.30954 0.0417177 0)
(1.45741 0.0396917 0)
(1.59396 0.0373829 0)
(1.719 0.0351712 0)
(1.83326 0.0331293 0)
(1.93793 0.031253 0)
(2.03402 0.0295401 0)
(2.12242 0.0279843 0)
(2.20389 0.0265725 0)
(2.27915 0.0252888 0)
(2.34882 0.0241261 0)
(2.41343 0.0230312 0)
(2.47326 0.0220827 0)
(0.0127501 -0.0154539 -2.87747e-20)
(0.0479517 -0.0470117 2.75318e-20)
(0.0904372 -0.061139 0)
(0.131195 -0.061726 0)
(0.164178 -0.0538401 0)
(0.187268 -0.0413104 -2.47915e-20)
(0.199987 -0.0264251 0)
(0.202267 -0.0105895 0)
(0.193135 0.00454035 0)
(0.174809 0.0173143 0)
(0.14944 0.0267695 2.42595e-20)
(0.118765 0.0328076 0)
(0.0840984 0.036121 0)
(0.0461489 0.0379818 0)
(0.00484249 0.0398347 0)
(-0.0403907 0.0429291 2.43038e-20)
(-0.0904581 0.0479157 0)
(-0.146195 0.0546276 0)
(-0.207878 0.0622421 0)
(-0.275222 0.0697488 0)
(-0.347428 0.076327 0)
(-0.423312 0.0814655 0)
(-0.501738 0.0849729 0)
(-0.581415 0.0867666 1.91796e-20)
(-0.661143 0.0869319 -1.87103e-20)
(-0.739853 0.085666 1.82892e-20)
(-0.816649 0.0832282 1.7913e-20)
(-0.890832 0.0799001 0)
(-0.961895 0.0759548 0)
(-1.02951 0.071638 -1.70098e-20)
(-1.0935 0.0671558 -1.67681e-20)
(-1.15381 0.0626718 0)
(-1.21051 0.0583077 0)
(-1.26372 0.0541477 -1.61626e-20)
(-1.3136 0.0502442 0)
(-1.36038 0.0466247 0)
(-1.40426 0.0432976 1.56716e-20)
(-1.44548 0.0402578 0)
(-1.48423 0.037491 1.53788e-20)
(-1.52074 0.0349774 3.04768e-20)
(-1.55518 0.0326945 0)
(-1.58773 0.0306187 0)
(-1.61854 0.0287271 0)
(-1.64775 0.0269977 0)
(-1.67548 0.0254104 0)
(-1.70183 0.0239471 2.88517e-20)
(-1.72689 0.0225918 2.85804e-20)
(-1.75075 0.0213302 2.8307e-20)
(-1.77346 0.02015 0)
(-1.7951 0.0190407 -2.7752e-20)
(-1.8157 0.0179933 0)
(-1.83532 0.017 2.71833e-20)
(-1.85399 0.0160543 2.68931e-20)
(-1.87174 0.0151508 0)
(-1.8886 0.014285 0)
(-1.9046 0.0134529 0)
(-1.91976 0.0126515 2.56874e-20)
(-1.93409 0.0118782 0)
(-1.94762 0.0111309 0)
(-1.96035 0.0104076 0)
(-1.97232 0.0097071 0)
(-1.98352 0.00902794 0)
(-1.99397 0.00836901 0)
(-2.00369 0.00772916 0)
(-2.01269 0.00710717 0)
(-2.02097 0.00650156 -2.26787e-20)
(-2.02854 0.00591036 0)
(-2.03543 0.00533087 0)
(-2.04162 0.00475929 2.15799e-20)
(-2.04713 0.00419022 2.12031e-20)
(-2.05195 0.00361605 0)
(-2.05608 0.00302691 -2.04343e-20)
(-2.0595 0.00241227 2.00426e-20)
(-2.06218 0.00177094 0)
(-2.06408 0.00113059 -1.92457e-20)
(-2.06512 0.000548928 0)
(-2.06553 9.63395e-05 0)
(-2.06538 -0.000289189 1.80103e-20)
(-2.06467 -0.000651505 0)
(-2.06344 -0.00100065 -1.71629e-20)
(-2.06169 -0.00134139 0)
(-2.05942 -0.00167719 1.62963e-20)
(-2.05663 -0.00201014 1.58558e-20)
(-2.05333 -0.00234181 1.54106e-20)
(-2.0495 -0.00267368 2.99212e-20)
(-2.04515 -0.00300724 -2.90115e-20)
(-2.04026 -0.00334407 0)
(-2.03482 -0.0036858 0)
(-2.02883 -0.00403419 0)
(-2.02226 -0.00439112 -2.52725e-20)
(-2.01509 -0.00475854 -2.43114e-20)
(-2.00731 -0.00513852 2.33389e-20)
(-1.99889 -0.00553323 0)
(-1.98979 -0.00594493 -2.13577e-20)
(-1.97999 -0.00637598 -2.03476e-20)
(-1.96945 -0.00682883 -1.93236e-20)
(-1.95812 -0.00730603 0)
(-1.94596 -0.00781018 0)
(-1.93291 -0.00834399 0)
(-1.91892 -0.00891021 -1.50684e-20)
(-1.90393 -0.00951167 0)
(-1.88787 -0.0101513 0)
(-1.87066 -0.0108319 1.16756e-20)
(-1.85222 -0.0115565 0)
(-1.83248 -0.0123282 0)
(-1.81133 -0.0131499 8.06333e-21)
(-1.78867 -0.0140246 0)
(-1.76441 -0.0149555 0)
(-1.73843 -0.0159454 -4.17827e-21)
(-1.71062 -0.0169975 -2.81192e-21)
(-1.68084 -0.0181145 0)
(-1.64898 -0.0192993 -4.31952e-23)
(-1.61489 -0.0205547 0)
(-1.57843 -0.0218832 3.07997e-21)
(-1.53946 -0.0232872 0)
(-1.49782 -0.0247687 6.32161e-21)
(-1.45336 -0.0263298 8.02672e-21)
(-1.40592 -0.0279718 0)
(-1.35534 -0.029696 0)
(-1.30144 -0.031503 0)
(-1.24407 -0.0333927 0)
(-1.18307 -0.0353647 0)
(-1.11827 -0.0374176 0)
(-1.04952 -0.0395493 0)
(-0.976669 -0.0417567 2.40662e-20)
(-0.899575 -0.0440358 -2.64065e-20)
(-0.81811 -0.0463812 0)
(-0.73216 -0.0487863 0)
(-0.641625 -0.0512424 0)
(-0.54643 -0.0537374 0)
(-0.446523 -0.0562516 -7.85989e-20)
(-0.34189 -0.0587445 0)
(-0.232579 -0.0611265 8.99805e-20)
(-0.118709 -0.0632226 -9.58849e-20)
(-0.000428167 -0.0647792 0)
(0.122329 -0.0658592 0)
(0.249374 -0.0667029 0)
(0.38052 -0.0673832 1.06457e-19)
(0.515517 -0.0678888 1.07603e-19)
(0.654064 -0.0682021 0)
(0.79581 -0.0683084 1.08957e-19)
(0.94035 -0.0681954 1.09169e-19)
(1.08723 -0.0678539 -1.09078e-19)
(1.23594 -0.0672772 0)
(1.38594 -0.0664619 0)
(1.53664 -0.0654074 -1.07099e-19)
(1.68743 -0.0641164 0)
(1.83768 -0.0625948 0)
(1.98674 -0.0608517 0)
(2.13395 -0.0588994 0)
(2.27867 -0.0567531 9.91649e-20)
(2.42026 -0.0544304 9.70886e-20)
(2.55811 -0.0519513 0)
(2.69164 -0.0493372 9.26574e-20)
(2.82031 -0.0466107 0)
(2.94362 -0.0437949 0)
(3.06113 -0.0409127 8.5712e-20)
(3.17243 -0.037986 0)
(3.2772 -0.0350358 8.11694e-20)
(3.37513 -0.0320809 0)
(3.46598 -0.0291379 0)
(3.54956 -0.0262204 7.4902e-20)
(3.62571 -0.023339 0)
(3.69429 -0.0205031 7.12775e-20)
(3.75519 -0.0177154 0)
(3.80833 -0.0149507 0)
(3.85351 -0.0122158 0)
(3.89057 -0.00964198 -6.57962e-20)
(3.91981 -0.00670812 0)
(3.93928 -0.00191443 6.41663e-20)
(3.94221 0.00367702 0)
(3.92925 0.00924698 0)
(3.90141 0.0144335 0)
(3.85869 0.0193578 0)
(3.80024 0.0243977 0)
(3.72364 0.0300279 0)
(3.62614 0.0370846 0)
(3.49601 0.046215 -1.36217e-19)
(3.34122 0.0633181 0)
(3.04678 0.0771608 0)
(0.02736 -0.110249 8.34729e-20)
(0.0645131 -0.141944 -7.63284e-20)
(0.0884448 -0.125843 0)
(0.101224 -0.098262 4.39365e-20)
(0.104705 -0.0675577 0)
(0.100249 -0.0363788 2.05017e-20)
(0.0888775 -0.0060059 -4.03543e-20)
(0.0716711 0.0226629 -3.98873e-20)
(0.0494981 0.0485194 0)
(0.0213833 0.0706006 -3.96141e-20)
(-0.0131413 0.0886472 -1.96671e-20)
(-0.0543143 0.103319 0)
(-0.102185 0.115985 0)
(-0.156662 0.12816 0)
(-0.217499 0.140924 0)
(-0.284121 0.15461 -1.70918e-20)
(-0.355607 0.168814 0)
(-0.430776 0.182592 3.19725e-20)
(-0.508297 0.194787 0)
(-0.586801 0.204397 0)
(-0.664988 0.210793 -2.92823e-20)
(-0.741693 0.213753 0)
(-0.815953 0.213387 2.78166e-20)
(-0.887025 0.210022 -1.36252e-20)
(-0.954411 0.204142 1.3335e-20)
(-1.01784 0.196297 -1.30748e-20)
(-1.07723 0.187047 -1.28413e-20)
(-1.13264 0.176909 0)
(-1.18425 0.166331 0)
(-1.2323 0.155681 1.22675e-20)
(-1.27706 0.145241 -1.20617e-20)
(-1.31883 0.135213 0)
(-1.35787 0.125735 0)
(-1.39446 0.116883 1.16944e-20)
(-1.42883 0.108692 0)
(-1.4612 0.101162 0)
(-1.49175 0.0942723 -1.13414e-20)
(-1.52066 0.0879835 0)
(-1.54805 0.0822492 1.10568e-20)
(-1.57406 0.0770185 -2.20407e-20)
(-1.59878 0.0722399 0)
(-1.6223 0.0678632 0)
(-1.6447 0.0638417 -4.27202e-20)
(-1.66604 0.0601323 -4.23183e-20)
(-1.68637 0.0566961 -4.19172e-20)
(-1.70575 0.0534988 2.06949e-20)
(-1.72422 0.0505101 -2.06174e-20)
(-1.7418 0.0477037 -6.11205e-20)
(-1.75853 0.0450568 4.02997e-20)
(-1.77444 0.0425498 1.99985e-20)
(-1.78955 0.0401661 0)
(-1.80388 0.0378916 -1.95756e-20)
(-1.81744 0.0357142 1.92662e-20)
(-1.83025 0.033624 0)
(-1.84232 0.0316126 0)
(-1.85367 0.0296729 0)
(-1.86431 0.0277992 -1.84702e-20)
(-1.87425 0.0259867 0)
(-1.8835 0.0242314 3.59496e-20)
(-1.89206 0.0225301 0)
(-1.89995 0.0208799 3.50048e-20)
(-1.90718 0.0192785 0)
(-1.91375 0.0177238 -3.4032e-20)
(-1.91967 0.0162139 0)
(-1.92496 0.0147467 3.30307e-20)
(-1.92961 0.0133202 -1.62466e-20)
(-1.93363 0.0119321 0)
(-1.93704 0.0105795 -3.14751e-20)
(-1.93984 0.00925888 -1.54766e-20)
(-1.94204 0.00796577 -1.52042e-20)
(-1.94365 0.00669467 0)
(-1.94468 0.00543951 -1.46525e-20)
(-1.94516 0.00419633 -1.43661e-20)
(-1.94513 0.00296722 0)
(-1.94465 0.00176415 1.37884e-20)
(-1.9438 0.000626766 -2.70091e-20)
(-1.94246 -0.000400229 0)
(-1.94061 -0.00134822 -1.28988e-20)
(-1.93825 -0.0022508 0)
(-1.93536 -0.00312225 3.69088e-20)
(-1.93196 -0.00397098 0)
(-1.92805 -0.00480264 -3.50553e-20)
(-1.92362 -0.00562134 -1.13549e-20)
(-1.91867 -0.00643059 1.10905e-20)
(-1.9132 -0.00723373 2.15467e-20)
(-1.90721 -0.00803414 -2.09057e-20)
(-1.90069 -0.00883536 0)
(-1.89362 -0.00964112 0)
(-1.886 -0.0104554 0)
(-1.87781 -0.0112823 5.44929e-20)
(-1.86903 -0.0121264 1.74231e-20)
(-1.85964 -0.0129921 -1.67283e-20)
(-1.84962 -0.0138843 0)
(-1.83893 -0.014808 -1.55197e-20)
(-1.82755 -0.0157685 1.45893e-20)
(-1.81544 -0.0167711 1.38564e-20)
(-1.80255 -0.0178213 0)
(-1.78884 -0.0189248 0)
(-1.77425 -0.0200874 0)
(-1.75874 -0.0213149 1.08069e-20)
(-1.74223 -0.0226134 0)
(-1.72467 -0.0239888 -1.87268e-20)
(-1.70597 -0.0254471 -2.54618e-20)
(-1.68606 -0.0269944 1.54197e-20)
(-1.66486 -0.0286366 0)
(-1.64226 -0.0303795 6.1897e-21)
(-1.61818 -0.032229 0)
(-1.5925 -0.0341906 8.34769e-21)
(-1.56511 -0.0362697 -3.47944e-21)
(-1.53591 -0.0384715 -2.52942e-21)
(-1.50476 -0.0408005 0)
(-1.47153 -0.0432614 -4.89035e-22)
(-1.4361 -0.0458579 -1.57739e-21)
(-1.39831 -0.0485934 -2.19394e-21)
(-1.35803 -0.0514704 0)
(-1.31509 -0.0544909 -4.4911e-21)
(-1.26935 -0.0576557 -1.63122e-20)
(-1.22064 -0.0609648 0)
(-1.16882 -0.0644171 -1.557e-20)
(-1.1137 -0.0680097 -1.8162e-20)
(-1.05514 -0.0717387 -2.08341e-20)
(-0.992964 -0.0755984 0)
(-0.927024 -0.0795811 0)
(-0.857163 -0.083677 0)
(-0.783236 -0.0878745 1.5591e-20)
(-0.705106 -0.0921593 1.83204e-20)
(-0.622648 -0.0965146 0)
(-0.535751 -0.100921 4.18254e-20)
(-0.444323 -0.105356 4.51381e-20)
(-0.348294 -0.109792 0)
(-0.247614 -0.1142 5.34743e-20)
(-0.142268 -0.118534 1.10957e-19)
(-0.0322638 -0.122746 -6.03825e-20)
(0.0824147 -0.126773 -5.97118e-20)
(0.201759 -0.130495 0)
(0.325621 -0.133853 0)
(0.453813 -0.136884 0)
(0.586163 -0.139601 -7.05153e-20)
(0.722437 -0.141967 6.86562e-20)
(0.862344 -0.143938 1.43201e-19)
(1.00554 -0.145472 -7.43238e-20)
(1.15163 -0.146529 7.19834e-20)
(1.30017 -0.147077 7.58694e-20)
(1.45067 -0.147087 0)
(1.60261 -0.146538 0)
(1.75542 -0.145417 -7.37492e-20)
(1.9085 -0.143716 0)
(2.06125 -0.141438 0)
(2.21303 -0.138592 1.48924e-19)
(2.36321 -0.135198 0)
(2.51116 -0.131282 7.19816e-20)
(2.65627 -0.126878 -7.34346e-20)
(2.79795 -0.122026 0)
(2.93563 -0.116772 6.93167e-20)
(3.06879 -0.111167 0)
(3.19694 -0.105262 0)
(3.31965 -0.0991123 -6.75582e-20)
(3.43653 -0.0927695 1.31039e-19)
(3.54724 -0.0862849 -6.49383e-20)
(3.6515 -0.0797059 0)
(3.74907 -0.0730748 0)
(3.83975 -0.0664283 6.01622e-20)
(3.92338 -0.0597957 0)
(3.99982 -0.0531996 5.81215e-20)
(4.06898 -0.0466503 0)
(4.13074 -0.0401344 0)
(4.18501 -0.0336408 0)
(4.2317 -0.0271828 5.55761e-20)
(4.27036 -0.0203174 0)
(4.30174 -0.0120554 -5.46884e-20)
(4.3299 -0.00311982 0)
(4.35273 0.00616445 0)
(4.36798 0.0154857 1.08198e-19)
(4.37404 0.0251101 -1.08593e-19)
(4.36972 0.0355937 0)
(4.35337 0.0476483 0)
(4.32402 0.0627879 0)
(4.27503 0.0822969 3.46241e-19)
(4.21457 0.115637 0)
(4.09642 0.155189 -2.45371e-19)
(0.0189182 -0.195918 -9.06357e-23)
(0.0336717 -0.184455 9.72338e-20)
(0.0329707 -0.13604 0)
(0.0254801 -0.0889356 -7.99377e-20)
(0.0121967 -0.0445754 0)
(-0.00620896 -0.00261335 0)
(-0.02924 0.0370955 3.80509e-23)
(-0.056754 0.0745562 3.37948e-20)
(-0.088792 0.109652 3.29208e-20)
(-0.125571 0.142027 3.22432e-20)
(-0.167408 0.171423 0)
(-0.214563 0.198002 0)
(-0.26705 0.222325 -2.98316e-20)
(-0.324497 0.245017 -5.79289e-20)
(-0.386108 0.266382 5.61846e-20)
(-0.450714 0.286198 0)
(-0.516918 0.303761 5.28231e-20)
(-0.583299 0.318134 -2.56022e-20)
(-0.648599 0.32845 0)
(-0.711837 0.334157 4.83571e-20)
(-0.772345 0.335116 2.3454e-20)
(-0.829744 0.331578 -4.58215e-20)
(-0.883893 0.324088 -2.22609e-20)
(-0.934831 0.31336 0)
(-0.982722 0.300181 4.26499e-20)
(-1.0278 0.285323 4.17444e-20)
(-1.07031 0.269486 0)
(-1.11053 0.253266 4.013e-20)
(-1.14866 0.237139 0)
(-1.18493 0.221464 3.87426e-20)
(-1.21948 0.206492 1.90507e-20)
(-1.25247 0.192382 0)
(-1.284 0.179221 0)
(-1.31416 0.167036 0)
(-1.34304 0.155815 0)
(-1.3707 0.145516 0)
(-1.39719 0.13608 0)
(-1.42256 0.127439 3.469e-20)
(-1.44687 0.119518 -5.1468e-20)
(-1.47014 0.112244 0)
(-1.49242 0.105548 0)
(-1.51375 0.0993644 0)
(-1.53415 0.0936326 8.43268e-23)
(-1.55366 0.0882987 3.25036e-20)
(-1.57231 0.0833146 6.42122e-20)
(-1.5901 0.0786377 -6.35069e-20)
(-1.60708 0.074231 -3.13628e-20)
(-1.62326 0.0700622 3.10916e-20)
(-1.63866 0.0661033 -7.49347e-23)
(-1.65329 0.0623304 3.03173e-20)
(-1.66718 0.0587231 0)
(-1.68032 0.055264 2.96173e-20)
(-1.69274 0.0519383 -6.29011e-23)
(-1.70444 0.0487339 0)
(-1.71544 0.0456403 0)
(-1.72574 0.0426489 -2.81929e-20)
(-1.73535 0.0397526 0)
(-1.74428 0.0369454 0)
(-1.75254 0.0342225 2.70515e-20)
(-1.76013 0.0315798 5.34396e-20)
(-1.76707 0.0290139 -2.6377e-20)
(-1.77335 0.0265218 0)
(-1.77899 0.0241009 2.56031e-20)
(-1.78399 0.0217489 0)
(-1.78837 0.0194633 2.47728e-20)
(-1.79212 0.0172418 2.44115e-20)
(-1.79527 0.0150819 -4.79862e-20)
(-1.79781 0.012981 -2.35775e-20)
(-1.79975 0.0109364 0)
(-1.80111 0.00894533 4.55233e-20)
(-1.8019 0.00700617 0)
(-1.80214 0.00511867 6.57539e-20)
(-1.80183 0.00328546 4.29792e-20)
(-1.80102 0.00151668 4.21093e-20)
(-1.7997 -0.000173805 -4.12327e-20)
(-1.7979 -0.00177748 6.05082e-20)
(-1.79557 -0.00331313 0)
(-1.79273 -0.00479122 0)
(-1.78937 -0.00622106 -3.76626e-20)
(-1.7855 -0.00761127 -5.50961e-20)
(-1.78111 -0.0089686 0)
(-1.77621 -0.0102989 1.74151e-20)
(-1.7708 -0.0116075 0)
(-1.76489 -0.0128996 -4.94969e-20)
(-1.75846 -0.0141804 9.60104e-23)
(-1.75151 -0.0154554 -1.03085e-22)
(-1.74404 -0.0167302 3.01468e-20)
(-1.73604 -0.0180111 0)
(-1.7275 -0.0193043 -2.81807e-20)
(-1.7184 -0.0206168 1.33457e-22)
(-1.70873 -0.0219554 0)
(-1.69846 -0.0233279 0)
(-1.68757 -0.0247419 0)
(-1.67605 -0.0262055 2.29112e-20)
(-1.66384 -0.0277272 0)
(-1.65093 -0.0293156 0)
(-1.63726 -0.0309796 0)
(-1.6228 -0.0327283 0)
(-1.60749 -0.034571 0)
(-1.59129 -0.0365171 1.6507e-20)
(-1.57412 -0.0385762 0)
(-1.55594 -0.0407577 1.39055e-20)
(-1.53665 -0.0430714 1.26887e-20)
(-1.51619 -0.0455266 -1.14468e-20)
(-1.49448 -0.0481328 0)
(-1.47142 -0.0508992 -8.8804e-21)
(-1.44692 -0.0538348 0)
(-1.42088 -0.0569481 -6.19177e-21)
(-1.39318 -0.0602474 4.79679e-21)
(-1.36372 -0.0637403 1.09253e-20)
(-1.33236 -0.067434 0)
(-1.299 -0.0713348 2.08085e-21)
(-1.26348 -0.0754482 -1.90363e-22)
(-1.22568 -0.0797786 0)
(-1.18544 -0.0843293 -7.72917e-21)
(-1.14263 -0.0891019 -1.10534e-20)
(-1.09708 -0.0940969 2.23166e-20)
(-1.04865 -0.0993129 0)
(-0.997167 -0.104746 1.14795e-20)
(-0.94248 -0.110392 1.33778e-20)
(-0.884428 -0.11624 4.45111e-20)
(-0.822851 -0.122282 0)
(-0.757594 -0.128501 0)
(-0.688506 -0.134882 0)
(-0.615443 -0.141403 2.1897e-20)
(-0.538268 -0.14804 0)
(-0.45686 -0.154763 0)
(-0.371106 -0.161539 -3.04798e-20)
(-0.280915 -0.168331 -3.28371e-20)
(-0.186213 -0.175094 0)
(-0.0869444 -0.181781 0)
(0.0169156 -0.188344 -7.97333e-20)
(0.125404 -0.194735 0)
(0.238511 -0.200905 8.69455e-20)
(0.356213 -0.206805 8.788e-20)
(0.478399 -0.212372 0)
(0.604897 -0.217532 0)
(0.735511 -0.222216 -9.70087e-20)
(0.869995 -0.226354 -2.49657e-21)
(1.00805 -0.229875 -2.48785e-21)
(1.14935 -0.23271 0)
(1.29349 -0.234796 -2.14774e-19)
(1.44005 -0.236078 0)
(1.58854 -0.236509 0)
(1.73845 -0.23605 0)
(1.88923 -0.234678 1.13479e-19)
(2.04031 -0.232376 0)
(2.19108 -0.229146 -2.24266e-19)
(2.34093 -0.224998 -1.14286e-19)
(2.48925 -0.21996 0)
(2.63542 -0.214071 -1.13595e-19)
(2.77885 -0.207381 0)
(2.91896 -0.199952 0)
(3.05522 -0.191856 -3.29888e-19)
(3.1871 -0.18317 2.16704e-19)
(3.31414 -0.173977 0)
(3.43592 -0.164361 2.11816e-19)
(3.55208 -0.154407 -1.05843e-19)
(3.66228 -0.144196 0)
(3.76625 -0.133804 0)
(3.86377 -0.123299 0)
(3.95465 -0.112743 -2.98445e-19)
(4.03873 -0.102183 0)
(4.11591 -0.0916559 -9.75171e-20)
(4.18609 -0.0811832 0)
(4.24918 -0.0707627 0)
(4.30512 -0.0603766 0)
(4.35383 -0.0499698 0)
(4.39515 -0.0394139 0)
(4.42919 -0.0285903 0)
(4.45696 -0.0171443 -1.85975e-19)
(4.47872 -0.00496786 0)
(4.49384 0.00784291 -9.38885e-20)
(4.50156 0.0214918 2.83209e-19)
(4.50109 0.0364648 0)
(4.49131 0.0535355 0)
(4.47163 0.0744048 -1.97564e-19)
(4.43892 0.100916 -2.03756e-19)
(4.39806 0.14144 2.08447e-19)
(4.33688 0.196735 2.17962e-19)
(0.00103932 -0.217463 -1.59656e-19)
(-0.00718568 -0.166185 -1.39324e-19)
(-0.0254012 -0.106931 -8.02653e-20)
(-0.0460266 -0.0517193 -3.59657e-20)
(-0.0698562 0.000247808 0)
(-0.0968308 0.0496986 6.2957e-20)
(-0.127025 0.0970101 -3.00469e-20)
(-0.160572 0.142262 0)
(-0.197575 0.185282 -2.83933e-20)
(-0.238097 0.22574 0)
(-0.282144 0.263299 5.39533e-20)
(-0.329585 0.297745 0)
(-0.380042 0.328987 2.55603e-20)
(-0.432836 0.356916 4.96217e-20)
(-0.487021 0.381257 -4.81208e-20)
(-0.541509 0.401523 0)
(-0.595238 0.417121 -4.52164e-20)
(-0.647319 0.42753 0)
(-0.697134 0.43248 0)
(-0.744358 0.43204 -4.13101e-20)
(-0.788924 0.426611 0)
(-0.83095 0.416853 -2.34654e-22)
(-0.870666 0.403572 0)
(-0.908354 0.387627 0)
(-0.944297 0.369839 1.9871e-22)
(-0.978747 0.350948 -3.54215e-20)
(-1.01191 0.331582 -3.48278e-20)
(-1.04395 0.312244 -3.39749e-20)
(-1.07497 0.293321 0)
(-1.10504 0.275092 -6.55543e-20)
(-1.13422 0.257743 0)
(-1.16252 0.241387 -3.17075e-20)
(-1.18994 0.226078 0)
(-1.2165 0.211821 0)
(-1.24219 0.198594 3.02807e-20)
(-1.267 0.186347 0)
(-1.29095 0.175021 -2.94523e-20)
(-1.31403 0.164545 -1.06734e-23)
(-1.33625 0.154847 5.74052e-20)
(-1.35762 0.145854 -5.66714e-20)
(-1.37815 0.137495 0)
(-1.39785 0.129705 0)
(-1.41673 0.122422 -2.72889e-20)
(-1.43481 0.11559 0)
(-1.45211 0.109159 -2.67066e-20)
(-1.46863 0.103083 2.63916e-20)
(-1.48439 0.0973232 2.60795e-20)
(-1.4994 0.0918441 0)
(-1.51367 0.0866154 -2.54605e-20)
(-1.52722 0.0816105 -2.51525e-20)
(-1.54004 0.0768066 4.9631e-20)
(-1.55216 0.0721844 -2.45369e-20)
(-1.56358 0.0677271 -2.42285e-20)
(-1.57431 0.0634209 0)
(-1.58436 0.059254 0)
(-1.59372 0.0552165 2.32963e-20)
(-1.60241 0.0513005 0)
(-1.61044 0.0474991 0)
(-1.61781 0.0438069 -4.46969e-20)
(-1.62452 0.0402193 -4.40563e-20)
(-1.63059 0.0367326 0)
(-1.63602 0.0333435 0)
(-1.64081 0.0300493 0)
(-1.64497 0.0268474 0)
(-1.64852 0.0237357 -4.0776e-20)
(-1.65146 0.0207117 4.00989e-20)