/*--------------------------------*- C++ -*----------------------------------*\
| =========                 |                                                 |
| \\      /  F ield         | OpenFOAM: The Open Source CFD Toolbox           |
|  \\    /   O peration     | Version:  2412                                  |
|   \\  /    A nd           | Website:  www.openfoam.com                      |
|    \\/     M anipulation  |                                                 |
\*---------------------------------------------------------------------------*/
FoamFile
{
    version     2.0;
    format      ascii;
    arch        "LSB;label=32;scalar=64";
    class       surfaceScalarField;
    location    "0.49";
    object      phi;
}
// * * * * * * * * * * * * * * * * * * * * * * * * * * * * * * * * * * * * * //

dimensions      [0 3 -1 0 0 0 0];

oriented        oriented;

internalField   nonuniform List<scalar> 
799
(
3.09411e-05
6.18823e-05
9.28233e-05
0.000123764
0.000154704
0.000185644
0.000216582
0.00024752
0.000278458
0.000309394
0.000340328
0.000371262
0.000402194
0.000433125
0.000464054
0.000494981
0.000525906
0.000556829
0.00058775
0.000618669
0.000649585
0.000680499
0.000711411
0.000742319
0.000773225
0.000804128
0.000835028
0.000865924
0.000896817
0.000927707
0.000958593
0.000989476
0.00102035
0.00105123
0.0010821
0.00111297
0.00114383
0.00117469
0.00120554
0.00123639
0.00126723
0.00129807
0.0013289
0.00135973
0.00139056
0.00142137
0.00145219
0.00148299
0.00151379
0.00154459
0.00157538
0.00160616
0.00163694
0.00166771
0.00169847
0.00172923
0.00175998
0.00179072
0.00182146
0.00185219
0.00188291
0.00191362
0.00194433
0.00197503
0.00200572
0.0020364
0.00206708
0.00209774
0.0021284
0.00215905
0.00218969
0.00222033
0.00225095
0.00228157
0.00231217
0.00234277
0.00237335
0.00240393
0.0024345
0.00246506
0.00249561
0.00252614
0.00255667
0.00258719
0.00261769
0.00264819
0.00267868
0.00270915
0.00273961
0.00277007
0.00280051
0.00283093
0.00286135
0.00289176
0.00292215
0.00295253
0.0029829
0.00301326
0.0030436
0.00307394
0.00310425
0.00313456
0.00316485
0.00319513
0.0032254
0.00325565
0.00328589
0.00331611
0.00334633
0.00337652
0.0034067
0.00343687
0.00346702
0.00349716
0.00352729
0.00355739
0.00358749
0.00361756
0.00364762
0.00367767
0.0037077
0.00373771
0.00376771
0.00379769
0.00382765
0.0038576
0.00388753
0.00391744
0.00394734
0.00397722
0.00400708
0.00403692
0.00406675
0.00409655
0.00412634
0.00415611
0.00418586
0.00421559
0.0042453
0.004275
0.00430467
0.00433432
0.00436396
0.00439357
0.00442316
0.00445274
0.00448229
0.00451182
0.00454133
0.00457082
0.00460029
0.00462973
0.00465916
0.00468856
0.00471794
0.0047473
0.00477663
0.00480594
0.00483523
0.00486449
0.00489374
0.00492295
0.00495215
0.00498132
0.00501046
0.00503958
0.00506868
0.00509775
0.00512679
0.00515581
0.00518481
0.00521377
0.00524272
0.00527163
0.00530052
0.00532938
0.00535821
0.00538702
0.0054158
0.00544455
0.00547327
0.00550196
0.00553063
0.00555927
0.00558787
0.00561645
0.005645
0.00567351
0.005702
0.00573046
0.00575888
0.00578728
0.00581564
0.00584397
0.00587227
0.00590053
0.00592877
0.00595697
0.00598514
0.00601327
0.00604137
0.00606944
0.00609747
0.00612546
0.00615343
0.00618135
0.00620924
0.0062371
0.00626491
0.0062927
0.00632044
0.00634815
0.00637582
0.00640345
0.00643104
0.00645859
0.00648611
0.00651358
0.00654102
0.00656841
0.00659577
0.00662308
0.00665035
0.00667758
0.00670477
0.00673191
0.00675902
0.00678608
0.00681309
0.00684006
0.00686699
0.00689387
0.0069207
0.00694749
0.00697424
0.00700093
0.00702758
0.00705419
0.00708074
0.00710724
0.0071337
0.00716011
0.00718646
0.00721277
0.00723902
0.00726523
0.00729138
0.00731747
0.00734352
0.00736951
0.00739545
0.00742133
0.00744716
0.00747293
0.00749865
0.0075243
0.0075499
0.00757545
0.00760093
0.00762635
0.00765172
0.00767702
0.00770226
0.00772745
0.00775256
0.00777762
0.00780261
0.00782754
0.0078524
0.00787719
0.00790192
0.00792658
0.00795118
0.0079757
0.00800016
0.00802454
0.00804886
0.0080731
0.00809727
0.00812136
0.00814538
0.00816933
0.0081932
0.00821699
0.00824071
0.00826434
0.0082879
0.00831138
0.00833477
0.00835808
0.00838131
0.00840446
0.00842751
0.00845049
0.00847337
0.00849617
0.00851888
0.00854149
0.00856402
0.00858645
0.00860878
0.00863103
0.00865317
0.00867522
0.00869717
0.00871901
0.00874076
0.0087624
0.00878394
0.00880537
0.0088267
0.00884792
0.00886902
0.00889002
0.0089109
0.00893167
0.00895232
0.00897285
0.00899327
0.00901356
0.00903373
0.00905377
0.00907369
0.00909348
0.00911314
0.00913267
0.00915206
0.00917132
0.00919043
0.00920941
0.00922825
0.00924694
0.00926548
0.00928387
0.00930211
0.0093202
0.00933813
0.0093559
0.00937351
0.00939095
0.00940822
0.00942533
0.00944226
0.00945901
0.00947559
0.00949198
0.00950818
0.0095242
0.00954002
0.00955564
0.00957107
0.00958629
0.0096013
0.0096161
0.00963069
0.00964505
0.00965919
0.0096731
0.00968677
0.0097002
0.00971339
0.00972633
0.00973902
0.00975144
0.0097636
0.00977549
0.0097871
0.00979842
0.00980945
0.00982018
0.00983061
0.00984072
0.00985051
0.00985997
0.0098691
0.00987788
0.0098863
0.00989435
0.00990203
0.00990933
0.00991623
0.00992272
0.00992879
0.00993442
0.00993961
0.00994434
0.0099486
0.00995237
0.00995563
0.00995836
0.00996056
0.00996219
0.00996324
0.00996371
0.00996339
0.00996396
0.00994954
0.0100639
0.00819516
7.17258e-06
-0.00818807
-0.010064
-0.00994953
-0.00996396
-0.00996339
-0.00996371
-0.00996324
-0.00996219
-0.00996056
-0.00995836
-0.00995562
-0.00995236
-0.0099486
-0.00994434
-0.00993961
-0.00993442
-0.00992878
-0.00992271
-0.00991622
-0.00990933
-0.00990203
-0.00989435
-0.00988629
-0.00987787
-0.00986909
-0.00985997
-0.00985051
-0.00984072
-0.0098306
-0.00982018
-0.00980944
-0.00979841
-0.00978709
-0.00977548
-0.0097636
-0.00975144
-0.00973901
-0.00972633
-0.00971339
-0.00970019
-0.00968676
-0.00967309
-0.00965918
-0.00964504
-0.00963068
-0.00961609
-0.00960129
-0.00958628
-0.00957106
-0.00955563
-0.00954001
-0.00952418
-0.00950817
-0.00949196
-0.00947557
-0.009459
-0.00944224
-0.00942531
-0.00940821
-0.00939093
-0.00937349
-0.00935588
-0.00933811
-0.00932018
-0.0093021
-0.00928386
-0.00926546
-0.00924692
-0.00922823
-0.0092094
-0.00919042
-0.0091713
-0.00915204
-0.00913265
-0.00911312
-0.00909346
-0.00907367
-0.00905375
-0.00903371
-0.00901354
-0.00899325
-0.00897283
-0.0089523
-0.00893165
-0.00891088
-0.00889
-0.008869
-0.0088479
-0.00882668
-0.00880535
-0.00878392
-0.00876238
-0.00874074
-0.00871899
-0.00869714
-0.0086752
-0.00865315
-0.008631
-0.00860876
-0.00858643
-0.00856399
-0.00854147
-0.00851885
-0.00849615
-0.00847335
-0.00845047
-0.00842749
-0.00840443
-0.00838129
-0.00835806
-0.00833475
-0.00831135
-0.00828788
-0.00826432
-0.00824068
-0.00821697
-0.00819318
-0.00816931
-0.00814536
-0.00812134
-0.00809724
-0.00807307
-0.00804883
-0.00802452
-0.00800013
-0.00797568
-0.00795115
-0.00792656
-0.0079019
-0.00787717
-0.00785238
-0.00782751
-0.00780259
-0.0077776
-0.00775254
-0.00772742
-0.00770224
-0.007677
-0.0076517
-0.00762633
-0.00760091
-0.00757542
-0.00754988
-0.00752428
-0.00749862
-0.00747291
-0.00744714
-0.00742131
-0.00739543
-0.00736949
-0.0073435
-0.00731745
-0.00729135
-0.0072652
-0.007239
-0.00721275
-0.00718644
-0.00716008
-0.00713368
-0.00710722
-0.00708072
-0.00705416
-0.00702756
-0.00700091
-0.00697422
-0.00694747
-0.00692068
-0.00689385
-0.00686697
-0.00684004
-0.00681307
-0.00678605
-0.006759
-0.00673189
-0.00670475
-0.00667756
-0.00665033
-0.00662306
-0.00659575
-0.00656839
-0.006541
-0.00651356
-0.00648609
-0.00645857
-0.00643102
-0.00640343
-0.0063758
-0.00634813
-0.00632042
-0.00629268
-0.0062649
-0.00623708
-0.00620922
-0.00618133
-0.00615341
-0.00612544
-0.00609745
-0.00606942
-0.00604135
-0.00601325
-0.00598512
-0.00595695
-0.00592875
-0.00590052
-0.00587225
-0.00584395
-0.00581562
-0.00578726
-0.00575886
-0.00573044
-0.00570198
-0.0056735
-0.00564498
-0.00561643
-0.00558786
-0.00555925
-0.00553061
-0.00550195
-0.00547325
-0.00544453
-0.00541578
-0.005387
-0.0053582
-0.00532936
-0.0053005
-0.00527162
-0.0052427
-0.00521376
-0.00518479
-0.0051558
-0.00512678
-0.00509773
-0.00506866
-0.00503957
-0.00501045
-0.0049813
-0.00495213
-0.00492294
-0.00489372
-0.00486448
-0.00483522
-0.00480593
-0.00477662
-0.00474728
-0.00471793
-0.00468855
-0.00465914
-0.00462972
-0.00460027
-0.00457081
-0.00454132
-0.00451181
-0.00448228
-0.00445272
-0.00442315
-0.00439356
-0.00436395
-0.00433431
-0.00430466
-0.00427498
-0.00424529
-0.00421558
-0.00418585
-0.0041561
-0.00412633
-0.00409654
-0.00406674
-0.00403691
-0.00400707
-0.00397721
-0.00394733
-0.00391744
-0.00388752
-0.00385759
-0.00382765
-0.00379768
-0.0037677
-0.0037377
-0.00370769
-0.00367766
-0.00364762
-0.00361756
-0.00358748
-0.00355739
-0.00352728
-0.00349716
-0.00346702
-0.00343686
-0.0034067
-0.00337651
-0.00334632
-0.00331611
-0.00328588
-0.00325564
-0.00322539
-0.00319513
-0.00316485
-0.00313455
-0.00310425
-0.00307393
-0.0030436
-0.00301325
-0.0029829
-0.00295253
-0.00292215
-0.00289175
-0.00286135
-0.00283093
-0.0028005
-0.00277006
-0.00273961
-0.00270915
-0.00267867
-0.00264819
-0.00261769
-0.00258718
-0.00255667
-0.00252614
-0.0024956
-0.00246505
-0.0024345
-0.00240393
-0.00237335
-0.00234276
-0.00231217
-0.00228156
-0.00225095
-0.00222032
-0.00218969
-0.00215905
-0.0021284
-0.00209774
-0.00206707
-0.0020364
-0.00200572
-0.00197502
-0.00194433
-0.00191362
-0.00188291
-0.00185218
-0.00182145
-0.00179072
-0.00175998
-0.00172923
-0.00169847
-0.0016677
-0.00163693
-0.00160616
-0.00157538
-0.00154459
-0.00151379
-0.00148299
-0.00145218
-0.00142137
-0.00139055
-0.00135973
-0.0013289
-0.00129807
-0.00126723
-0.00123639
-0.00120554
-0.00117468
-0.00114383
-0.00111297
-0.0010821
-0.00105123
-0.00102035
-0.000989475
-0.000958593
-0.000927706
-0.000896817
-0.000865924
-0.000835027
-0.000804128
-0.000773225
-0.000742319
-0.00071141
-0.000680499
-0.000649585
-0.000618669
-0.00058775
-0.000556829
-0.000525906
-0.000494981
-0.000464053
-0.000433125
-0.000402194
-0.000371262
-0.000340328
-0.000309394
-0.000278458
-0.000247521
-0.000216583
-0.000185644
-0.000154704
-0.000123764
-9.28235e-05
-6.18825e-05
-3.09413e-05
)
;

boundaryField
{
    left
    {
        type            calculated;
        value           uniform 0;
    }
    right
    {
        type            calculated;
        value           uniform 0;
    }
    frontBackUpDown
    {
        type            empty;
    }
}


// ************************************************************************* //
