/*--------------------------------*- C++ -*----------------------------------*\
| =========                 |                                                 |
| \\      /  F ield         | OpenFOAM: The Open Source CFD Toolbox           |
|  \\    /   O peration     | Version:  2412                                  |
|   \\  /    A nd           | Website:  www.openfoam.com                      |
|    \\/     M anipulation  |                                                 |
\*---------------------------------------------------------------------------*/
FoamFile
{
    version     2.0;
    format      ascii;
    arch        "LSB;label=32;scalar=64";
    class       volVectorField;
    location    "0.49";
    object      U;
}
// * * * * * * * * * * * * * * * * * * * * * * * * * * * * * * * * * * * * * //

dimensions      [0 1 -1 0 0 0 0];

internalField   nonuniform List<vector> 
800
(
(0.00154705 0 0)
(0.00464118 0 0)
(0.00773529 0 0)
(0.0108294 0 0)
(0.0139234 0 0)
(0.0170174 0 0)
(0.0201113 0 0)
(0.0232052 0 0)
(0.0262989 0 0)
(0.0293926 0 0)
(0.0324861 0 0)
(0.0355796 0 0)
(0.0386728 0 0)
(0.041766 0 0)
(0.044859 0 0)
(0.0479518 0 0)
(0.0510444 0 0)
(0.0541368 0 0)
(0.057229 0 0)
(0.060321 0 0)
(0.0634128 0 0)
(0.0665043 0 0)
(0.0695956 0 0)
(0.0726866 0 0)
(0.0757773 0 0)
(0.0788677 0 0)
(0.0819579 0 0)
(0.0850477 0 0)
(0.0881372 0 0)
(0.0912263 0 0)
(0.0943151 0 0)
(0.0974035 0 0)
(0.100492 0 0)
(0.103579 0 0)
(0.106667 0 0)
(0.109753 0 0)
(0.11284 0 0)
(0.115926 0 0)
(0.119011 0 0)
(0.122096 0 0)
(0.125181 0 0)
(0.128265 0 0)
(0.131349 0 0)
(0.134432 0 0)
(0.137515 0 0)
(0.140597 0 0)
(0.143678 0 0)
(0.146759 0 0)
(0.149839 0 0)
(0.152919 0 0)
(0.155998 0 0)
(0.159077 0 0)
(0.162155 0 0)
(0.165232 0 0)
(0.168309 0 0)
(0.171385 0 0)
(0.17446 0 0)
(0.177535 0 0)
(0.180609 0 0)
(0.183682 0 0)
(0.186755 0 0)
(0.189827 0 0)
(0.192898 0 0)
(0.195968 0 0)
(0.199037 0 0)
(0.202106 0 0)
(0.205174 0 0)
(0.208241 0 0)
(0.211308 0 0)
(0.214373 0 0)
(0.217438 0 0)
(0.220501 0 0)
(0.223564 0 0)
(0.226626 0 0)
(0.229687 0 0)
(0.232747 0 0)
(0.235806 0 0)
(0.238865 0 0)
(0.241922 0 0)
(0.244978 0 0)
(0.248033 0 0)
(0.251088 0 0)
(0.254141 0 0)
(0.257193 0 0)
(0.260244 0 0)
(0.263295 0 0)
(0.266344 0 0)
(0.269392 0 0)
(0.272438 0 0)
(0.275484 0 0)
(0.278529 0 0)
(0.281572 0 0)
(0.284615 0 0)
(0.287656 0 0)
(0.290696 0 0)
(0.293735 0 0)
(0.296772 0 0)
(0.299808 0 0)
(0.302843 0 0)
(0.305877 0 0)
(0.30891 0 0)
(0.311941 0 0)
(0.314971 0 0)
(0.318 0 0)
(0.321027 0 0)
(0.324053 0 0)
(0.327077 0 0)
(0.330101 0 0)
(0.333122 0 0)
(0.336143 0 0)
(0.339162 0 0)
(0.342179 0 0)
(0.345195 0 0)
(0.34821 0 0)
(0.351223 0 0)
(0.354234 0 0)
(0.357244 0 0)
(0.360253 0 0)
(0.36326 0 0)
(0.366265 0 0)
(0.369269 0 0)
(0.372271 0 0)
(0.375272 0 0)
(0.37827 0 0)
(0.381268 0 0)
(0.384263 0 0)
(0.387257 0 0)
(0.390249 0 0)
(0.39324 0 0)
(0.396228 0 0)
(0.399215 0 0)
(0.4022 0 0)
(0.405184 0 0)
(0.408165 0 0)
(0.411145 0 0)
(0.414123 0 0)
(0.417099 0 0)
(0.420073 0 0)
(0.423045 0 0)
(0.426015 0 0)
(0.428984 0 0)
(0.43195 0 0)
(0.434914 0 0)
(0.437877 0 0)
(0.440837 0 0)
(0.443795 0 0)
(0.446752 0 0)
(0.449706 0 0)
(0.452658 0 0)
(0.455608 0 0)
(0.458556 0 0)
(0.461501 0 0)
(0.464445 0 0)
(0.467386 0 0)
(0.470325 0 0)
(0.473262 0 0)
(0.476197 0 0)
(0.479129 0 0)
(0.482059 0 0)
(0.484987 0 0)
(0.487912 0 0)
(0.490835 0 0)
(0.493756 0 0)
(0.496674 0 0)
(0.49959 0 0)
(0.502503 0 0)
(0.505414 0 0)
(0.508322 0 0)
(0.511228 0 0)
(0.514131 0 0)
(0.517032 0 0)
(0.51993 0 0)
(0.522825 0 0)
(0.525718 0 0)
(0.528608 0 0)
(0.531496 0 0)
(0.53438 0 0)
(0.537262 0 0)
(0.540142 0 0)
(0.543018 0 0)
(0.545892 0 0)
(0.548762 0 0)
(0.55163 0 0)
(0.554495 0 0)
(0.557358 0 0)
(0.560217 0 0)
(0.563073 0 0)
(0.565926 0 0)
(0.568776 0 0)
(0.571624 0 0)
(0.574468 0 0)
(0.577309 0 0)
(0.580146 0 0)
(0.582981 0 0)
(0.585813 0 0)
(0.588641 0 0)
(0.591466 0 0)
(0.594288 0 0)
(0.597106 0 0)
(0.599921 0 0)
(0.602733 0 0)
(0.605541 0 0)
(0.608346 0 0)
(0.611147 0 0)
(0.613945 0 0)
(0.61674 0 0)
(0.619531 0 0)
(0.622318 0 0)
(0.625101 0 0)
(0.627881 0 0)
(0.630658 0 0)
(0.63343 0 0)
(0.636199 0 0)
(0.638964 0 0)
(0.641725 0 0)
(0.644483 0 0)
(0.647236 0 0)
(0.649985 0 0)
(0.652731 0 0)
(0.655473 0 0)
(0.65821 0 0)
(0.660943 0 0)
(0.663673 0 0)
(0.666398 0 0)
(0.669119 0 0)
(0.671835 0 0)
(0.674548 0 0)
(0.677256 0 0)
(0.679959 0 0)
(0.682659 0 0)
(0.685354 0 0)
(0.688044 0 0)
(0.69073 0 0)
(0.693411 0 0)
(0.696088 0 0)
(0.69876 0 0)
(0.701427 0 0)
(0.70409 0 0)
(0.706747 0 0)
(0.7094 0 0)
(0.712048 0 0)
(0.714692 0 0)
(0.71733 0 0)
(0.719963 0 0)
(0.722591 0 0)
(0.725214 0 0)
(0.727831 0 0)
(0.730444 0 0)
(0.733051 0 0)
(0.735653 0 0)
(0.738249 0 0)
(0.74084 0 0)
(0.743426 0 0)
(0.746006 0 0)
(0.74858 0 0)
(0.751149 0 0)
(0.753712 0 0)
(0.756269 0 0)
(0.75882 0 0)
(0.761366 0 0)
(0.763905 0 0)
(0.766439 0 0)
(0.768966 0 0)
(0.771487 0 0)
(0.774002 0 0)
(0.776511 0 0)
(0.779013 0 0)
(0.781509 0 0)
(0.783998 0 0)
(0.786481 0 0)
(0.788957 0 0)
(0.791427 0 0)
(0.79389 0 0)
(0.796346 0 0)
(0.798795 0 0)
(0.801237 0 0)
(0.803672 0 0)
(0.806099 0 0)
(0.80852 0 0)
(0.810933 0 0)
(0.813339 0 0)
(0.815737 0 0)
(0.818128 0 0)
(0.820511 0 0)
(0.822887 0 0)
(0.825254 0 0)
(0.827614 0 0)
(0.829966 0 0)
(0.832309 0 0)
(0.834645 0 0)
(0.836972 0 0)
(0.83929 0 0)
(0.841601 0 0)
(0.843902 0 0)
(0.846195 0 0)
(0.848479 0 0)
(0.850754 0 0)
(0.853021 0 0)
(0.855278 0 0)
(0.857525 0 0)
(0.859764 0 0)
(0.861993 0 0)
(0.864212 0 0)
(0.866422 0 0)
(0.868622 0 0)
(0.870811 0 0)
(0.872991 0 0)
(0.875161 0 0)
(0.87732 0 0)
(0.879468 0 0)
(0.881606 0 0)
(0.883733 0 0)
(0.88585 0 0)
(0.887955 0 0)
(0.890049 0 0)
(0.892131 0 0)
(0.894202 0 0)
(0.896262 0 0)
(0.898309 0 0)
(0.900344 0 0)
(0.902367 0 0)
(0.904378 0 0)
(0.906376 0 0)
(0.908362 0 0)
(0.910334 0 0)
(0.912294 0 0)
(0.91424 0 0)
(0.916172 0 0)
(0.918091 0 0)
(0.919996 0 0)
(0.921886 0 0)
(0.923763 0 0)
(0.925624 0 0)
(0.927471 0 0)
(0.929303 0 0)
(0.931119 0 0)
(0.93292 0 0)
(0.934705 0 0)
(0.936474 0 0)
(0.938227 0 0)
(0.939963 0 0)
(0.941682 0 0)
(0.943384 0 0)
(0.945068 0 0)
(0.946734 0 0)
(0.948383 0 0)
(0.950013 0 0)
(0.951624 0 0)
(0.953216 0 0)
(0.954788 0 0)
(0.956341 0 0)
(0.957873 0 0)
(0.959385 0 0)
(0.960876 0 0)
(0.962345 0 0)
(0.963792 0 0)
(0.965217 0 0)
(0.96662 0 0)
(0.967999 0 0)
(0.969355 0 0)
(0.970686 0 0)
(0.971993 0 0)
(0.973274 0 0)
(0.97453 0 0)
(0.975759 0 0)
(0.976962 0 0)
(0.978136 0 0)
(0.979283 0 0)
(0.980401 0 0)
(0.981489 0 0)
(0.982547 0 0)
(0.983574 0 0)
(0.98457 0 0)
(0.985533 0 0)
(0.986462 0 0)
(0.987357 0 0)
(0.988218 0 0)
(0.989042 0 0)
(0.989829 0 0)
(0.990578 0 0)
(0.991288 0 0)
(0.991958 0 0)
(0.992586 0 0)
(0.993171 0 0)
(0.993713 0 0)
(0.99421 0 0)
(0.994659 0 0)
(0.995061 0 0)
(0.995412 0 0)
(0.995713 0 0)
(0.99596 0 0)
(0.996152 0 0)
(0.996287 0 0)
(0.996362 0 0)
(0.99638 0 0)
(0.996298 0 0)
(0.996494 0 0)
(0.993413 0 0)
(1.01937 0 0)
(0.619665 0 0)
(-0.61823 0 0)
(-1.01938 0 0)
(-0.993411 0 0)
(-0.996494 0 0)
(-0.996298 0 0)
(-0.99638 0 0)
(-0.996362 0 0)
(-0.996287 0 0)
(-0.996152 0 0)
(-0.99596 0 0)
(-0.995713 0 0)
(-0.995412 0 0)
(-0.995061 0 0)
(-0.994659 0 0)
(-0.994209 0 0)
(-0.993713 0 0)
(-0.993171 0 0)
(-0.992586 0 0)
(-0.991957 0 0)
(-0.991288 0 0)
(-0.990578 0 0)
(-0.989829 0 0)
(-0.989041 0 0)
(-0.988217 0 0)
(-0.987357 0 0)
(-0.986462 0 0)
(-0.985532 0 0)
(-0.984569 0 0)
(-0.983574 0 0)
(-0.982547 0 0)
(-0.981489 0 0)
(-0.9804 0 0)
(-0.979282 0 0)
(-0.978136 0 0)
(-0.976961 0 0)
(-0.975758 0 0)
(-0.974529 0 0)
(-0.973273 0 0)
(-0.971992 0 0)
(-0.970685 0 0)
(-0.969354 0 0)
(-0.967998 0 0)
(-0.966619 0 0)
(-0.965217 0 0)
(-0.963791 0 0)
(-0.962344 0 0)
(-0.960874 0 0)
(-0.959384 0 0)
(-0.957872 0 0)
(-0.95634 0 0)
(-0.954787 0 0)
(-0.953214 0 0)
(-0.951622 0 0)
(-0.950011 0 0)
(-0.948381 0 0)
(-0.946733 0 0)
(-0.945067 0 0)
(-0.943382 0 0)
(-0.94168 0 0)
(-0.939961 0 0)
(-0.938225 0 0)
(-0.936473 0 0)
(-0.934704 0 0)
(-0.932919 0 0)
(-0.931118 0 0)
(-0.929301 0 0)
(-0.92747 0 0)
(-0.925623 0 0)
(-0.923761 0 0)
(-0.921885 0 0)
(-0.919994 0 0)
(-0.918089 0 0)
(-0.916171 0 0)
(-0.914238 0 0)
(-0.912292 0 0)
(-0.910333 0 0)
(-0.90836 0 0)
(-0.906375 0 0)
(-0.904376 0 0)
(-0.902366 0 0)
(-0.900342 0 0)
(-0.898307 0 0)
(-0.89626 0 0)
(-0.8942 0 0)
(-0.892129 0 0)
(-0.890047 0 0)
(-0.887953 0 0)
(-0.885848 0 0)
(-0.883731 0 0)
(-0.881604 0 0)
(-0.879466 0 0)
(-0.877318 0 0)
(-0.875159 0 0)
(-0.872989 0 0)
(-0.870809 0 0)
(-0.86862 0 0)
(-0.86642 0 0)
(-0.86421 0 0)
(-0.861991 0 0)
(-0.859762 0 0)
(-0.857523 0 0)
(-0.855276 0 0)
(-0.853018 0 0)
(-0.850752 0 0)
(-0.848477 0 0)
(-0.846193 0 0)
(-0.8439 0 0)
(-0.841598 0 0)
(-0.839288 0 0)
(-0.83697 0 0)
(-0.834642 0 0)
(-0.832307 0 0)
(-0.829964 0 0)
(-0.827612 0 0)
(-0.825252 0 0)
(-0.822885 0 0)
(-0.820509 0 0)
(-0.818126 0 0)
(-0.815735 0 0)
(-0.813337 0 0)
(-0.810931 0 0)
(-0.808518 0 0)
(-0.806097 0 0)
(-0.803669 0 0)
(-0.801234 0 0)
(-0.798792 0 0)
(-0.796343 0 0)
(-0.793887 0 0)
(-0.791425 0 0)
(-0.788955 0 0)
(-0.786479 0 0)
(-0.783996 0 0)
(-0.781507 0 0)
(-0.779011 0 0)
(-0.776508 0 0)
(-0.774 0 0)
(-0.771485 0 0)
(-0.768964 0 0)
(-0.766436 0 0)
(-0.763903 0 0)
(-0.761363 0 0)
(-0.758818 0 0)
(-0.756267 0 0)
(-0.75371 0 0)
(-0.751147 0 0)
(-0.748578 0 0)
(-0.746004 0 0)
(-0.743424 0 0)
(-0.740838 0 0)
(-0.738247 0 0)
(-0.735651 0 0)
(-0.733049 0 0)
(-0.730442 0 0)
(-0.727829 0 0)
(-0.725211 0 0)
(-0.722589 0 0)
(-0.719961 0 0)
(-0.717327 0 0)
(-0.714689 0 0)
(-0.712046 0 0)
(-0.709398 0 0)
(-0.706745 0 0)
(-0.704088 0 0)
(-0.701425 0 0)
(-0.698758 0 0)
(-0.696086 0 0)
(-0.693409 0 0)
(-0.690728 0 0)
(-0.688042 0 0)
(-0.685351 0 0)
(-0.682657 0 0)
(-0.679957 0 0)
(-0.677254 0 0)
(-0.674546 0 0)
(-0.671833 0 0)
(-0.669117 0 0)
(-0.666396 0 0)
(-0.663671 0 0)
(-0.660941 0 0)
(-0.658208 0 0)
(-0.65547 0 0)
(-0.652729 0 0)
(-0.649983 0 0)
(-0.647234 0 0)
(-0.644481 0 0)
(-0.641723 0 0)
(-0.638962 0 0)
(-0.636197 0 0)
(-0.633428 0 0)
(-0.630656 0 0)
(-0.627879 0 0)
(-0.6251 0 0)
(-0.622316 0 0)
(-0.619529 0 0)
(-0.616738 0 0)
(-0.613943 0 0)
(-0.611146 0 0)
(-0.608344 0 0)
(-0.605539 0 0)
(-0.602731 0 0)
(-0.599919 0 0)
(-0.597104 0 0)
(-0.594286 0 0)
(-0.591464 0 0)
(-0.588639 0 0)
(-0.585811 0 0)
(-0.582979 0 0)
(-0.580145 0 0)
(-0.577307 0 0)
(-0.574466 0 0)
(-0.571622 0 0)
(-0.568775 0 0)
(-0.565925 0 0)
(-0.563071 0 0)
(-0.560215 0 0)
(-0.557356 0 0)
(-0.554494 0 0)
(-0.551629 0 0)
(-0.548761 0 0)
(-0.54589 0 0)
(-0.543016 0 0)
(-0.54014 0 0)
(-0.537261 0 0)
(-0.534379 0 0)
(-0.531494 0 0)
(-0.528607 0 0)
(-0.525716 0 0)
(-0.522824 0 0)
(-0.519928 0 0)
(-0.51703 0 0)
(-0.51413 0 0)
(-0.511226 0 0)
(-0.508321 0 0)
(-0.505412 0 0)
(-0.502501 0 0)
(-0.499588 0 0)
(-0.496672 0 0)
(-0.493754 0 0)
(-0.490834 0 0)
(-0.487911 0 0)
(-0.484985 0 0)
(-0.482058 0 0)
(-0.479128 0 0)
(-0.476196 0 0)
(-0.473261 0 0)
(-0.470324 0 0)
(-0.467385 0 0)
(-0.464444 0 0)
(-0.4615 0 0)
(-0.458555 0 0)
(-0.455607 0 0)
(-0.452657 0 0)
(-0.449705 0 0)
(-0.446751 0 0)
(-0.443794 0 0)
(-0.440836 0 0)
(-0.437876 0 0)
(-0.434913 0 0)
(-0.431949 0 0)
(-0.428983 0 0)
(-0.426014 0 0)
(-0.423044 0 0)
(-0.420072 0 0)
(-0.417098 0 0)
(-0.414122 0 0)
(-0.411144 0 0)
(-0.408164 0 0)
(-0.405183 0 0)
(-0.402199 0 0)
(-0.399214 0 0)
(-0.396227 0 0)
(-0.393239 0 0)
(-0.390248 0 0)
(-0.387256 0 0)
(-0.384262 0 0)
(-0.381267 0 0)
(-0.37827 0 0)
(-0.375271 0 0)
(-0.37227 0 0)
(-0.369268 0 0)
(-0.366264 0 0)
(-0.363259 0 0)
(-0.360252 0 0)
(-0.357244 0 0)
(-0.354234 0 0)
(-0.351222 0 0)
(-0.348209 0 0)
(-0.345194 0 0)
(-0.342178 0 0)
(-0.339161 0 0)
(-0.336142 0 0)
(-0.333122 0 0)
(-0.3301 0 0)
(-0.327077 0 0)
(-0.324052 0 0)
(-0.321026 0 0)
(-0.317999 0 0)
(-0.31497 0 0)
(-0.31194 0 0)
(-0.308909 0 0)
(-0.305877 0 0)
(-0.302843 0 0)
(-0.299808 0 0)
(-0.296772 0 0)
(-0.293734 0 0)
(-0.290695 0 0)
(-0.287655 0 0)
(-0.284614 0 0)
(-0.281572 0 0)
(-0.278528 0 0)
(-0.275484 0 0)
(-0.272438 0 0)
(-0.269391 0 0)
(-0.266343 0 0)
(-0.263294 0 0)
(-0.260244 0 0)
(-0.257193 0 0)
(-0.254141 0 0)
(-0.251087 0 0)
(-0.248033 0 0)
(-0.244978 0 0)
(-0.241921 0 0)
(-0.238864 0 0)
(-0.235806 0 0)
(-0.232747 0 0)
(-0.229687 0 0)
(-0.226626 0 0)
(-0.223564 0 0)
(-0.220501 0 0)
(-0.217437 0 0)
(-0.214373 0 0)
(-0.211307 0 0)
(-0.208241 0 0)
(-0.205174 0 0)
(-0.202106 0 0)
(-0.199037 0 0)
(-0.195968 0 0)
(-0.192897 0 0)
(-0.189826 0 0)
(-0.186755 0 0)
(-0.183682 0 0)
(-0.180609 0 0)
(-0.177535 0 0)
(-0.17446 0 0)
(-0.171385 0 0)
(-0.168309 0 0)
(-0.165232 0 0)
(-0.162155 0 0)
(-0.159077 0 0)
(-0.155998 0 0)
(-0.152919 0 0)
(-0.149839 0 0)
(-0.146759 0 0)
(-0.143678 0 0)
(-0.140596 0 0)
(-0.137514 0 0)
(-0.134432 0 0)
(-0.131349 0 0)
(-0.128265 0 0)
(-0.125181 0 0)
(-0.122096 0 0)
(-0.119011 0 0)
(-0.115926 0 0)
(-0.11284 0 0)
(-0.109753 0 0)
(-0.106666 0 0)
(-0.103579 0 0)
(-0.100492 0 0)
(-0.0974035 0 0)
(-0.094315 0 0)
(-0.0912262 0 0)
(-0.0881371 0 0)
(-0.0850476 0 0)
(-0.0819578 0 0)
(-0.0788677 0 0)
(-0.0757773 0 0)
(-0.0726865 0 0)
(-0.0695955 0 0)
(-0.0665043 0 0)
(-0.0634128 0 0)
(-0.060321 0 0)
(-0.057229 0 0)
(-0.0541368 0 0)
(-0.0510444 0 0)
(-0.0479517 0 0)
(-0.0448589 0 0)
(-0.041766 0 0)
(-0.0386728 0 0)
(-0.0355796 0 0)
(-0.0324861 0 0)
(-0.0293926 0 0)
(-0.0262989 0 0)
(-0.0232052 0 0)
(-0.0201113 0 0)
(-0.0170174 0 0)
(-0.0139234 0 0)
(-0.0108294 0 0)
(-0.00773531 0 0)
(-0.0046412 0 0)
(-0.00154707 0 0)
)
;

boundaryField
{
    left
    {
        type            fixedValue;
        value           uniform (0 0 0);
    }
    right
    {
        type            fixedValue;
        value           uniform (0 0 0);
    }
    frontBackUpDown
    {
        type            empty;
    }
}


// ************************************************************************* //
