/*--------------------------------*- C++ -*----------------------------------*\
| =========                 |                                                 |
| \\      /  F ield         | OpenFOAM: The Open Source CFD Toolbox           |
|  \\    /   O peration     | Version:  2412                                  |
|   \\  /    A nd           | Website:  www.openfoam.com                      |
|    \\/     M anipulation  |                                                 |
\*---------------------------------------------------------------------------*/
FoamFile
{
    version     2.0;
    format      ascii;
    arch        "LSB;label=32;scalar=64";
    class       volVectorField;
    location    "0.49";
    object      U_0;
}
// * * * * * * * * * * * * * * * * * * * * * * * * * * * * * * * * * * * * * //

dimensions      [0 1 -1 0 0 0 0];

internalField   nonuniform List<vector> 
800
(
(0.00154801 0 0)
(0.00464404 0 0)
(0.00774007 0 0)
(0.0108361 0 0)
(0.013932 0 0)
(0.0170279 0 0)
(0.0201238 0 0)
(0.0232195 0 0)
(0.0263152 0 0)
(0.0294108 0 0)
(0.0325062 0 0)
(0.0356015 0 0)
(0.0386967 0 0)
(0.0417918 0 0)
(0.0448867 0 0)
(0.0479814 0 0)
(0.0510759 0 0)
(0.0541702 0 0)
(0.0572644 0 0)
(0.0603583 0 0)
(0.063452 0 0)
(0.0665454 0 0)
(0.0696386 0 0)
(0.0727315 0 0)
(0.0758241 0 0)
(0.0789164 0 0)
(0.0820085 0 0)
(0.0851002 0 0)
(0.0881916 0 0)
(0.0912826 0 0)
(0.0943733 0 0)
(0.0974636 0 0)
(0.100554 0 0)
(0.103643 0 0)
(0.106732 0 0)
(0.109821 0 0)
(0.112909 0 0)
(0.115997 0 0)
(0.119085 0 0)
(0.122172 0 0)
(0.125258 0 0)
(0.128344 0 0)
(0.13143 0 0)
(0.134515 0 0)
(0.137599 0 0)
(0.140683 0 0)
(0.143767 0 0)
(0.146849 0 0)
(0.149932 0 0)
(0.153013 0 0)
(0.156094 0 0)
(0.159175 0 0)
(0.162255 0 0)
(0.165334 0 0)
(0.168412 0 0)
(0.17149 0 0)
(0.174568 0 0)
(0.177644 0 0)
(0.18072 0 0)
(0.183795 0 0)
(0.186869 0 0)
(0.189943 0 0)
(0.193016 0 0)
(0.196088 0 0)
(0.19916 0 0)
(0.20223 0 0)
(0.2053 0 0)
(0.208369 0 0)
(0.211437 0 0)
(0.214504 0 0)
(0.217571 0 0)
(0.220636 0 0)
(0.223701 0 0)
(0.226765 0 0)
(0.229827 0 0)
(0.232889 0 0)
(0.23595 0 0)
(0.23901 0 0)
(0.24207 0 0)
(0.245128 0 0)
(0.248185 0 0)
(0.251241 0 0)
(0.254296 0 0)
(0.25735 0 0)
(0.260403 0 0)
(0.263455 0 0)
(0.266506 0 0)
(0.269556 0 0)
(0.272604 0 0)
(0.275652 0 0)
(0.278698 0 0)
(0.281744 0 0)
(0.284788 0 0)
(0.287831 0 0)
(0.290872 0 0)
(0.293913 0 0)
(0.296952 0 0)
(0.29999 0 0)
(0.303027 0 0)
(0.306063 0 0)
(0.309097 0 0)
(0.31213 0 0)
(0.315162 0 0)
(0.318192 0 0)
(0.321221 0 0)
(0.324249 0 0)
(0.327275 0 0)
(0.3303 0 0)
(0.333323 0 0)
(0.336346 0 0)
(0.339366 0 0)
(0.342385 0 0)
(0.345403 0 0)
(0.348419 0 0)
(0.351434 0 0)
(0.354447 0 0)
(0.357459 0 0)
(0.360469 0 0)
(0.363478 0 0)
(0.366485 0 0)
(0.36949 0 0)
(0.372494 0 0)
(0.375496 0 0)
(0.378497 0 0)
(0.381496 0 0)
(0.384493 0 0)
(0.387489 0 0)
(0.390482 0 0)
(0.393475 0 0)
(0.396465 0 0)
(0.399453 0 0)
(0.40244 0 0)
(0.405425 0 0)
(0.408408 0 0)
(0.41139 0 0)
(0.414369 0 0)
(0.417347 0 0)
(0.420322 0 0)
(0.423296 0 0)
(0.426268 0 0)
(0.429238 0 0)
(0.432206 0 0)
(0.435172 0 0)
(0.438136 0 0)
(0.441098 0 0)
(0.444058 0 0)
(0.447016 0 0)
(0.449971 0 0)
(0.452925 0 0)
(0.455876 0 0)
(0.458826 0 0)
(0.461773 0 0)
(0.464718 0 0)
(0.467661 0 0)
(0.470602 0 0)
(0.47354 0 0)
(0.476476 0 0)
(0.47941 0 0)
(0.482341 0 0)
(0.48527 0 0)
(0.488197 0 0)
(0.491122 0 0)
(0.494044 0 0)
(0.496963 0 0)
(0.499881 0 0)
(0.502795 0 0)
(0.505708 0 0)
(0.508617 0 0)
(0.511524 0 0)
(0.514429 0 0)
(0.517331 0 0)
(0.520231 0 0)
(0.523128 0 0)
(0.526022 0 0)
(0.528913 0 0)
(0.531802 0 0)
(0.534688 0 0)
(0.537572 0 0)
(0.540452 0 0)
(0.54333 0 0)
(0.546205 0 0)
(0.549077 0 0)
(0.551946 0 0)
(0.554813 0 0)
(0.557676 0 0)
(0.560537 0 0)
(0.563394 0 0)
(0.566249 0 0)
(0.5691 0 0)
(0.571949 0 0)
(0.574794 0 0)
(0.577636 0 0)
(0.580475 0 0)
(0.583311 0 0)
(0.586144 0 0)
(0.588973 0 0)
(0.5918 0 0)
(0.594623 0 0)
(0.597442 0 0)
(0.600258 0 0)
(0.603071 0 0)
(0.605881 0 0)
(0.608687 0 0)
(0.611489 0 0)
(0.614288 0 0)
(0.617084 0 0)
(0.619876 0 0)
(0.622664 0 0)
(0.625449 0 0)
(0.62823 0 0)
(0.631007 0 0)
(0.633781 0 0)
(0.636551 0 0)
(0.639317 0 0)
(0.642079 0 0)
(0.644838 0 0)
(0.647592 0 0)
(0.650342 0 0)
(0.653089 0 0)
(0.655831 0 0)
(0.65857 0 0)
(0.661304 0 0)
(0.664034 0 0)
(0.66676 0 0)
(0.669482 0 0)
(0.6722 0 0)
(0.674913 0 0)
(0.677622 0 0)
(0.680327 0 0)
(0.683027 0 0)
(0.685722 0 0)
(0.688414 0 0)
(0.6911 0 0)
(0.693782 0 0)
(0.69646 0 0)
(0.699133 0 0)
(0.701801 0 0)
(0.704464 0 0)
(0.707123 0 0)
(0.709776 0 0)
(0.712425 0 0)
(0.715069 0 0)
(0.717708 0 0)
(0.720341 0 0)
(0.72297 0 0)
(0.725594 0 0)
(0.728212 0 0)
(0.730825 0 0)
(0.733433 0 0)
(0.736035 0 0)
(0.738632 0 0)
(0.741224 0 0)
(0.74381 0 0)
(0.74639 0 0)
(0.748965 0 0)
(0.751534 0 0)
(0.754098 0 0)
(0.756655 0 0)
(0.759207 0 0)
(0.761753 0 0)
(0.764293 0 0)
(0.766826 0 0)
(0.769354 0 0)
(0.771875 0 0)
(0.774391 0 0)
(0.7769 0 0)
(0.779402 0 0)
(0.781898 0 0)
(0.784388 0 0)
(0.786871 0 0)
(0.789348 0 0)
(0.791817 0 0)
(0.79428 0 0)
(0.796736 0 0)
(0.799185 0 0)
(0.801627 0 0)
(0.804062 0 0)
(0.80649 0 0)
(0.808911 0 0)
(0.811324 0 0)
(0.81373 0 0)
(0.816128 0 0)
(0.818519 0 0)
(0.820902 0 0)
(0.823277 0 0)
(0.825644 0 0)
(0.828004 0 0)
(0.830355 0 0)
(0.832699 0 0)
(0.835034 0 0)
(0.837361 0 0)
(0.839679 0 0)
(0.841989 0 0)
(0.84429 0 0)
(0.846582 0 0)
(0.848866 0 0)
(0.851141 0 0)
(0.853406 0 0)
(0.855663 0 0)
(0.85791 0 0)
(0.860148 0 0)
(0.862376 0 0)
(0.864595 0 0)
(0.866804 0 0)
(0.869003 0 0)
(0.871192 0 0)
(0.873371 0 0)
(0.87554 0 0)
(0.877698 0 0)
(0.879845 0 0)
(0.881982 0 0)
(0.884109 0 0)
(0.886224 0 0)
(0.888328 0 0)
(0.890421 0 0)
(0.892502 0 0)
(0.894572 0 0)
(0.89663 0 0)
(0.898676 0 0)
(0.90071 0 0)
(0.902732 0 0)
(0.904741 0 0)
(0.906738 0 0)
(0.908722 0 0)
(0.910692 0 0)
(0.91265 0 0)
(0.914595 0 0)
(0.916525 0 0)
(0.918442 0 0)
(0.920345 0 0)
(0.922234 0 0)
(0.924108 0 0)
(0.925968 0 0)
(0.927813 0 0)
(0.929642 0 0)
(0.931457 0 0)
(0.933255 0 0)
(0.935038 0 0)
(0.936804 0 0)
(0.938554 0 0)
(0.940288 0 0)
(0.942004 0 0)
(0.943703 0 0)
(0.945385 0 0)
(0.947049 0 0)
(0.948694 0 0)
(0.950321 0 0)
(0.951929 0 0)
(0.953518 0 0)
(0.955087 0 0)
(0.956636 0 0)
(0.958165 0 0)
(0.959673 0 0)
(0.961161 0 0)
(0.962626 0 0)
(0.96407 0 0)
(0.965491 0 0)
(0.966889 0 0)
(0.968265 0 0)
(0.969616 0 0)
(0.970943 0 0)
(0.972245 0 0)
(0.973522 0 0)
(0.974773 0 0)
(0.975997 0 0)
(0.977195 0 0)
(0.978364 0 0)
(0.979506 0 0)
(0.980618 0 0)
(0.981701 0 0)
(0.982753 0 0)
(0.983774 0 0)
(0.984764 0 0)
(0.98572 0 0)
(0.986643 0 0)
(0.987532 0 0)
(0.988385 0 0)
(0.989202 0 0)
(0.989982 0 0)
(0.990724 0 0)
(0.991426 0 0)
(0.992088 0 0)
(0.992708 0 0)
(0.993285 0 0)
(0.993818 0 0)
(0.994305 0 0)
(0.994746 0 0)
(0.995138 0 0)
(0.995479 0 0)
(0.995769 0 0)
(0.996006 0 0)
(0.996187 0 0)
(0.99631 0 0)
(0.996374 0 0)
(0.996379 0 0)
(0.996284 0 0)
(0.996467 0 0)
(0.993375 0 0)
(1.0193 0 0)
(0.619565 0 0)
(-0.61813 0 0)
(-1.01931 0 0)
(-0.993373 0 0)
(-0.996467 0 0)
(-0.996284 0 0)
(-0.996379 0 0)
(-0.996374 0 0)
(-0.99631 0 0)
(-0.996186 0 0)
(-0.996006 0 0)
(-0.995769 0 0)
(-0.995479 0 0)
(-0.995137 0 0)
(-0.994746 0 0)
(-0.994305 0 0)
(-0.993818 0 0)
(-0.993285 0 0)
(-0.992708 0 0)
(-0.992088 0 0)
(-0.991426 0 0)
(-0.990724 0 0)
(-0.989982 0 0)
(-0.989202 0 0)
(-0.988385 0 0)
(-0.987532 0 0)
(-0.986643 0 0)
(-0.98572 0 0)
(-0.984763 0 0)
(-0.983774 0 0)
(-0.982753 0 0)
(-0.9817 0 0)
(-0.980617 0 0)
(-0.979505 0 0)
(-0.978364 0 0)
(-0.977194 0 0)
(-0.975997 0 0)
(-0.974772 0 0)
(-0.973521 0 0)
(-0.972244 0 0)
(-0.970942 0 0)
(-0.969615 0 0)
(-0.968264 0 0)
(-0.966889 0 0)
(-0.96549 0 0)
(-0.964069 0 0)
(-0.962625 0 0)
(-0.961159 0 0)
(-0.959672 0 0)
(-0.958164 0 0)
(-0.956635 0 0)
(-0.955086 0 0)
(-0.953517 0 0)
(-0.951928 0 0)
(-0.95032 0 0)
(-0.948693 0 0)
(-0.947047 0 0)
(-0.945384 0 0)
(-0.943702 0 0)
(-0.942003 0 0)
(-0.940286 0 0)
(-0.938553 0 0)
(-0.936803 0 0)
(-0.935036 0 0)
(-0.933254 0 0)
(-0.931455 0 0)
(-0.929641 0 0)
(-0.927811 0 0)
(-0.925966 0 0)
(-0.924107 0 0)
(-0.922232 0 0)
(-0.920344 0 0)
(-0.918441 0 0)
(-0.916524 0 0)
(-0.914593 0 0)
(-0.912648 0 0)
(-0.910691 0 0)
(-0.90872 0 0)
(-0.906736 0 0)
(-0.904739 0 0)
(-0.90273 0 0)
(-0.900708 0 0)
(-0.898674 0 0)
(-0.896628 0 0)
(-0.89457 0 0)
(-0.8925 0 0)
(-0.890419 0 0)
(-0.888326 0 0)
(-0.886222 0 0)
(-0.884107 0 0)
(-0.88198 0 0)
(-0.879843 0 0)
(-0.877696 0 0)
(-0.875537 0 0)
(-0.873369 0 0)
(-0.87119 0 0)
(-0.869001 0 0)
(-0.866802 0 0)
(-0.864593 0 0)
(-0.862374 0 0)
(-0.860146 0 0)
(-0.857908 0 0)
(-0.855661 0 0)
(-0.853404 0 0)
(-0.851139 0 0)
(-0.848864 0 0)
(-0.84658 0 0)
(-0.844288 0 0)
(-0.841987 0 0)
(-0.839677 0 0)
(-0.837358 0 0)
(-0.835032 0 0)
(-0.832697 0 0)
(-0.830353 0 0)
(-0.828002 0 0)
(-0.825642 0 0)
(-0.823275 0 0)
(-0.8209 0 0)
(-0.818516 0 0)
(-0.816126 0 0)
(-0.813727 0 0)
(-0.811322 0 0)
(-0.808908 0 0)
(-0.806488 0 0)
(-0.80406 0 0)
(-0.801625 0 0)
(-0.799183 0 0)
(-0.796734 0 0)
(-0.794278 0 0)
(-0.791815 0 0)
(-0.789345 0 0)
(-0.786869 0 0)
(-0.784386 0 0)
(-0.781896 0 0)
(-0.7794 0 0)
(-0.776897 0 0)
(-0.774388 0 0)
(-0.771873 0 0)
(-0.769352 0 0)
(-0.766824 0 0)
(-0.76429 0 0)
(-0.76175 0 0)
(-0.759205 0 0)
(-0.756653 0 0)
(-0.754095 0 0)
(-0.751532 0 0)
(-0.748963 0 0)
(-0.746388 0 0)
(-0.743807 0 0)
(-0.741221 0 0)
(-0.73863 0 0)
(-0.736033 0 0)
(-0.733431 0 0)
(-0.730823 0 0)
(-0.72821 0 0)
(-0.725591 0 0)
(-0.722968 0 0)
(-0.720339 0 0)
(-0.717705 0 0)
(-0.715067 0 0)
(-0.712423 0 0)
(-0.709774 0 0)
(-0.70712 0 0)
(-0.704462 0 0)
(-0.701799 0 0)
(-0.699131 0 0)
(-0.696458 0 0)
(-0.69378 0 0)
(-0.691098 0 0)
(-0.688412 0 0)
(-0.68572 0 0)
(-0.683025 0 0)
(-0.680325 0 0)
(-0.67762 0 0)
(-0.674911 0 0)
(-0.672198 0 0)
(-0.66948 0 0)
(-0.666758 0 0)
(-0.664032 0 0)
(-0.661302 0 0)
(-0.658568 0 0)
(-0.655829 0 0)
(-0.653087 0 0)
(-0.65034 0 0)
(-0.64759 0 0)
(-0.644836 0 0)
(-0.642077 0 0)
(-0.639315 0 0)
(-0.636549 0 0)
(-0.633779 0 0)
(-0.631005 0 0)
(-0.628228 0 0)
(-0.625447 0 0)
(-0.622662 0 0)
(-0.619874 0 0)
(-0.617082 0 0)
(-0.614287 0 0)
(-0.611488 0 0)
(-0.608685 0 0)
(-0.605879 0 0)
(-0.603069 0 0)
(-0.600257 0 0)
(-0.59744 0 0)
(-0.594621 0 0)
(-0.591798 0 0)
(-0.588972 0 0)
(-0.586142 0 0)
(-0.583309 0 0)
(-0.580474 0 0)
(-0.577634 0 0)
(-0.574792 0 0)
(-0.571947 0 0)
(-0.569099 0 0)
(-0.566247 0 0)
(-0.563393 0 0)
(-0.560535 0 0)
(-0.557675 0 0)
(-0.554811 0 0)
(-0.551945 0 0)
(-0.549076 0 0)
(-0.546203 0 0)
(-0.543328 0 0)
(-0.540451 0 0)
(-0.53757 0 0)
(-0.534687 0 0)
(-0.531801 0 0)
(-0.528912 0 0)
(-0.52602 0 0)
(-0.523126 0 0)
(-0.520229 0 0)
(-0.51733 0 0)
(-0.514428 0 0)
(-0.511523 0 0)
(-0.508616 0 0)
(-0.505706 0 0)
(-0.502794 0 0)
(-0.499879 0 0)
(-0.496962 0 0)
(-0.494042 0 0)
(-0.49112 0 0)
(-0.488196 0 0)
(-0.485269 0 0)
(-0.48234 0 0)
(-0.479408 0 0)
(-0.476475 0 0)
(-0.473539 0 0)
(-0.4706 0 0)
(-0.46766 0 0)
(-0.464717 0 0)
(-0.461772 0 0)
(-0.458825 0 0)
(-0.455875 0 0)
(-0.452924 0 0)
(-0.44997 0 0)
(-0.447014 0 0)
(-0.444057 0 0)
(-0.441097 0 0)
(-0.438135 0 0)
(-0.435171 0 0)
(-0.432205 0 0)
(-0.429237 0 0)
(-0.426267 0 0)
(-0.423295 0 0)
(-0.420321 0 0)
(-0.417346 0 0)
(-0.414368 0 0)
(-0.411389 0 0)
(-0.408407 0 0)
(-0.405424 0 0)
(-0.402439 0 0)
(-0.399453 0 0)
(-0.396464 0 0)
(-0.393474 0 0)
(-0.390482 0 0)
(-0.387488 0 0)
(-0.384492 0 0)
(-0.381495 0 0)
(-0.378496 0 0)
(-0.375496 0 0)
(-0.372493 0 0)
(-0.36949 0 0)
(-0.366484 0 0)
(-0.363477 0 0)
(-0.360469 0 0)
(-0.357458 0 0)
(-0.354447 0 0)
(-0.351433 0 0)
(-0.348419 0 0)
(-0.345402 0 0)
(-0.342385 0 0)
(-0.339365 0 0)
(-0.336345 0 0)
(-0.333323 0 0)
(-0.330299 0 0)
(-0.327274 0 0)
(-0.324248 0 0)
(-0.32122 0 0)
(-0.318191 0 0)
(-0.315161 0 0)
(-0.312129 0 0)
(-0.309096 0 0)
(-0.306062 0 0)
(-0.303027 0 0)
(-0.29999 0 0)
(-0.296952 0 0)
(-0.293912 0 0)
(-0.290872 0 0)
(-0.28783 0 0)
(-0.284787 0 0)
(-0.281743 0 0)
(-0.278698 0 0)
(-0.275651 0 0)
(-0.272604 0 0)
(-0.269555 0 0)
(-0.266505 0 0)
(-0.263455 0 0)
(-0.260403 0 0)
(-0.25735 0 0)
(-0.254296 0 0)
(-0.25124 0 0)
(-0.248184 0 0)
(-0.245127 0 0)
(-0.242069 0 0)
(-0.23901 0 0)
(-0.23595 0 0)
(-0.232889 0 0)
(-0.229827 0 0)
(-0.226764 0 0)
(-0.223701 0 0)
(-0.220636 0 0)
(-0.21757 0 0)
(-0.214504 0 0)
(-0.211437 0 0)
(-0.208369 0 0)
(-0.2053 0 0)
(-0.20223 0 0)
(-0.199159 0 0)
(-0.196088 0 0)
(-0.193016 0 0)
(-0.189943 0 0)
(-0.186869 0 0)
(-0.183795 0 0)
(-0.18072 0 0)
(-0.177644 0 0)
(-0.174567 0 0)
(-0.17149 0 0)
(-0.168412 0 0)
(-0.165334 0 0)
(-0.162255 0 0)
(-0.159175 0 0)
(-0.156094 0 0)
(-0.153013 0 0)
(-0.149931 0 0)
(-0.146849 0 0)
(-0.143766 0 0)
(-0.140683 0 0)
(-0.137599 0 0)
(-0.134515 0 0)
(-0.13143 0 0)
(-0.128344 0 0)
(-0.125258 0 0)
(-0.122172 0 0)
(-0.119085 0 0)
(-0.115997 0 0)
(-0.112909 0 0)
(-0.109821 0 0)
(-0.106732 0 0)
(-0.103643 0 0)
(-0.100554 0 0)
(-0.0974636 0 0)
(-0.0943732 0 0)
(-0.0912825 0 0)
(-0.0881915 0 0)
(-0.0851001 0 0)
(-0.0820084 0 0)
(-0.0789164 0 0)
(-0.0758241 0 0)
(-0.0727314 0 0)
(-0.0696385 0 0)
(-0.0665454 0 0)
(-0.0634519 0 0)
(-0.0603583 0 0)
(-0.0572644 0 0)
(-0.0541702 0 0)
(-0.0510759 0 0)
(-0.0479814 0 0)
(-0.0448867 0 0)
(-0.0417918 0 0)
(-0.0386967 0 0)
(-0.0356015 0 0)
(-0.0325062 0 0)
(-0.0294108 0 0)
(-0.0263152 0 0)
(-0.0232195 0 0)
(-0.0201238 0 0)
(-0.0170279 0 0)
(-0.013932 0 0)
(-0.0108361 0 0)
(-0.00774009 0 0)
(-0.00464407 0 0)
(-0.00154802 0 0)
)
;

boundaryField
{
    left
    {
        type            fixedValue;
        value           uniform (0 0 0);
    }
    right
    {
        type            fixedValue;
        value           uniform (0 0 0);
    }
    frontBackUpDown
    {
        type            empty;
    }
}


// ************************************************************************* //
