/*--------------------------------*- C++ -*----------------------------------*\
| =========                 |                                                 |
| \\      /  F ield         | OpenFOAM: The Open Source CFD Toolbox           |
|  \\    /   O peration     | Version:  2412                                  |
|   \\  /    A nd           | Website:  www.openfoam.com                      |
|    \\/     M anipulation  |                                                 |
\*---------------------------------------------------------------------------*/
FoamFile
{
    version     2.0;
    format      ascii;
    arch        "LSB;label=32;scalar=64";
    class       volVectorField;
    location    "0.49";
    object      U_0_0_0;
}
// * * * * * * * * * * * * * * * * * * * * * * * * * * * * * * * * * * * * * //

dimensions      [0 1 -1 0 0 0 0];

internalField   nonuniform List<vector> 
800
(
(0.00154992 0 0)
(0.00464979 0 0)
(0.00774965 0 0)
(0.0108495 0 0)
(0.0139493 0 0)
(0.017049 0 0)
(0.0201487 0 0)
(0.0232483 0 0)
(0.0263478 0 0)
(0.0294471 0 0)
(0.0325464 0 0)
(0.0356456 0 0)
(0.0387446 0 0)
(0.0418435 0 0)
(0.0449422 0 0)
(0.0480407 0 0)
(0.0511391 0 0)
(0.0542373 0 0)
(0.0573352 0 0)
(0.0604329 0 0)
(0.0635304 0 0)
(0.0666277 0 0)
(0.0697247 0 0)
(0.0728214 0 0)
(0.0759178 0 0)
(0.079014 0 0)
(0.0821098 0 0)
(0.0852054 0 0)
(0.0883005 0 0)
(0.0913954 0 0)
(0.0944899 0 0)
(0.097584 0 0)
(0.100678 0 0)
(0.103771 0 0)
(0.106864 0 0)
(0.109957 0 0)
(0.113049 0 0)
(0.11614 0 0)
(0.119232 0 0)
(0.122322 0 0)
(0.125413 0 0)
(0.128503 0 0)
(0.131592 0 0)
(0.134681 0 0)
(0.137769 0 0)
(0.140857 0 0)
(0.143944 0 0)
(0.14703 0 0)
(0.150116 0 0)
(0.153202 0 0)
(0.156287 0 0)
(0.159371 0 0)
(0.162454 0 0)
(0.165537 0 0)
(0.16862 0 0)
(0.171701 0 0)
(0.174782 0 0)
(0.177863 0 0)
(0.180942 0 0)
(0.184021 0 0)
(0.187099 0 0)
(0.190177 0 0)
(0.193253 0 0)
(0.196329 0 0)
(0.199404 0 0)
(0.202478 0 0)
(0.205552 0 0)
(0.208624 0 0)
(0.211696 0 0)
(0.214767 0 0)
(0.217837 0 0)
(0.220907 0 0)
(0.223975 0 0)
(0.227042 0 0)
(0.230109 0 0)
(0.233174 0 0)
(0.236239 0 0)
(0.239303 0 0)
(0.242366 0 0)
(0.245427 0 0)
(0.248488 0 0)
(0.251548 0 0)
(0.254607 0 0)
(0.257664 0 0)
(0.260721 0 0)
(0.263776 0 0)
(0.266831 0 0)
(0.269884 0 0)
(0.272936 0 0)
(0.275988 0 0)
(0.279038 0 0)
(0.282086 0 0)
(0.285134 0 0)
(0.288181 0 0)
(0.291226 0 0)
(0.29427 0 0)
(0.297313 0 0)
(0.300355 0 0)
(0.303395 0 0)
(0.306434 0 0)
(0.309472 0 0)
(0.312508 0 0)
(0.315544 0 0)
(0.318577 0 0)
(0.32161 0 0)
(0.324641 0 0)
(0.327671 0 0)
(0.330699 0 0)
(0.333726 0 0)
(0.336752 0 0)
(0.339776 0 0)
(0.342799 0 0)
(0.34582 0 0)
(0.348839 0 0)
(0.351858 0 0)
(0.354874 0 0)
(0.357889 0 0)
(0.360903 0 0)
(0.363915 0 0)
(0.366926 0 0)
(0.369934 0 0)
(0.372942 0 0)
(0.375947 0 0)
(0.378951 0 0)
(0.381953 0 0)
(0.384954 0 0)
(0.387953 0 0)
(0.39095 0 0)
(0.393945 0 0)
(0.396939 0 0)
(0.399931 0 0)
(0.402921 0 0)
(0.405909 0 0)
(0.408895 0 0)
(0.41188 0 0)
(0.414863 0 0)
(0.417844 0 0)
(0.420822 0 0)
(0.423799 0 0)
(0.426775 0 0)
(0.429748 0 0)
(0.432719 0 0)
(0.435688 0 0)
(0.438655 0 0)
(0.44162 0 0)
(0.444583 0 0)
(0.447544 0 0)
(0.450503 0 0)
(0.45346 0 0)
(0.456414 0 0)
(0.459367 0 0)
(0.462317 0 0)
(0.465265 0 0)
(0.468211 0 0)
(0.471155 0 0)
(0.474096 0 0)
(0.477035 0 0)
(0.479972 0 0)
(0.482906 0 0)
(0.485839 0 0)
(0.488768 0 0)
(0.491696 0 0)
(0.494621 0 0)
(0.497543 0 0)
(0.500463 0 0)
(0.503381 0 0)
(0.506296 0 0)
(0.509209 0 0)
(0.512119 0 0)
(0.515026 0 0)
(0.517931 0 0)
(0.520834 0 0)
(0.523733 0 0)
(0.52663 0 0)
(0.529525 0 0)
(0.532416 0 0)
(0.535305 0 0)
(0.538191 0 0)
(0.541074 0 0)
(0.543955 0 0)
(0.546833 0 0)
(0.549707 0 0)
(0.552579 0 0)
(0.555448 0 0)
(0.558314 0 0)
(0.561178 0 0)
(0.564038 0 0)
(0.566895 0 0)
(0.569749 0 0)
(0.5726 0 0)
(0.575448 0 0)
(0.578292 0 0)
(0.581134 0 0)
(0.583972 0 0)
(0.586808 0 0)
(0.589639 0 0)
(0.592468 0 0)
(0.595293 0 0)
(0.598115 0 0)
(0.600934 0 0)
(0.603749 0 0)
(0.606561 0 0)
(0.609369 0 0)
(0.612174 0 0)
(0.614976 0 0)
(0.617773 0 0)
(0.620568 0 0)
(0.623358 0 0)
(0.626145 0 0)
(0.628928 0 0)
(0.631708 0 0)
(0.634484 0 0)
(0.637256 0 0)
(0.640024 0 0)
(0.642788 0 0)
(0.645548 0 0)
(0.648305 0 0)
(0.651057 0 0)
(0.653806 0 0)
(0.65655 0 0)
(0.659291 0 0)
(0.662027 0 0)
(0.664759 0 0)
(0.667487 0 0)
(0.67021 0 0)
(0.67293 0 0)
(0.675645 0 0)
(0.678356 0 0)
(0.681062 0 0)
(0.683764 0 0)
(0.686461 0 0)
(0.689154 0 0)
(0.691842 0 0)
(0.694526 0 0)
(0.697205 0 0)
(0.699879 0 0)
(0.702549 0 0)
(0.705214 0 0)
(0.707874 0 0)
(0.710529 0 0)
(0.713179 0 0)
(0.715824 0 0)
(0.718464 0 0)
(0.7211 0 0)
(0.723729 0 0)
(0.726354 0 0)
(0.728974 0 0)
(0.731588 0 0)
(0.734197 0 0)
(0.736801 0 0)
(0.739399 0 0)
(0.741991 0 0)
(0.744578 0 0)
(0.74716 0 0)
(0.749736 0 0)
(0.752306 0 0)
(0.75487 0 0)
(0.757428 0 0)
(0.759981 0 0)
(0.762528 0 0)
(0.765068 0 0)
(0.767603 0 0)
(0.770131 0 0)
(0.772653 0 0)
(0.775169 0 0)
(0.777678 0 0)
(0.780182 0 0)
(0.782678 0 0)
(0.785168 0 0)
(0.787652 0 0)
(0.790128 0 0)
(0.792598 0 0)
(0.795062 0 0)
(0.797518 0 0)
(0.799967 0 0)
(0.802409 0 0)
(0.804844 0 0)
(0.807272 0 0)
(0.809693 0 0)
(0.812106 0 0)
(0.814512 0 0)
(0.81691 0 0)
(0.8193 0 0)
(0.821683 0 0)
(0.824058 0 0)
(0.826425 0 0)
(0.828784 0 0)
(0.831135 0 0)
(0.833478 0 0)
(0.835813 0 0)
(0.838139 0 0)
(0.840456 0 0)
(0.842765 0 0)
(0.845066 0 0)
(0.847357 0 0)
(0.84964 0 0)
(0.851914 0 0)
(0.854178 0 0)
(0.856434 0 0)
(0.85868 0 0)
(0.860916 0 0)
(0.863143 0 0)
(0.865361 0 0)
(0.867568 0 0)
(0.869766 0 0)
(0.871953 0 0)
(0.87413 0 0)
(0.876297 0 0)
(0.878454 0 0)
(0.8806 0 0)
(0.882735 0 0)
(0.884859 0 0)
(0.886972 0 0)
(0.889074 0 0)
(0.891164 0 0)
(0.893243 0 0)
(0.89531 0 0)
(0.897366 0 0)
(0.899409 0 0)
(0.901441 0 0)
(0.90346 0 0)
(0.905466 0 0)
(0.90746 0 0)
(0.909441 0 0)
(0.911408 0 0)
(0.913363 0 0)
(0.915304 0 0)
(0.917231 0 0)
(0.919144 0 0)
(0.921044 0 0)
(0.922928 0 0)
(0.924799 0 0)
(0.926654 0 0)
(0.928495 0 0)
(0.93032 0 0)
(0.93213 0 0)
(0.933924 0 0)
(0.935702 0 0)
(0.937464 0 0)
(0.939209 0 0)
(0.940937 0 0)
(0.942648 0 0)
(0.944342 0 0)
(0.946018 0 0)
(0.947676 0 0)
(0.949315 0 0)
(0.950936 0 0)
(0.952538 0 0)
(0.95412 0 0)
(0.955683 0 0)
(0.957226 0 0)
(0.958748 0 0)
(0.960249 0 0)
(0.961729 0 0)
(0.963187 0 0)
(0.964623 0 0)
(0.966036 0 0)
(0.967426 0 0)
(0.968793 0 0)
(0.970136 0 0)
(0.971454 0 0)
(0.972747 0 0)
(0.974015 0 0)
(0.975256 0 0)
(0.976471 0 0)
(0.977658 0 0)
(0.978817 0 0)
(0.979948 0 0)
(0.981049 0 0)
(0.982121 0 0)
(0.983162 0 0)
(0.984171 0 0)
(0.985148 0 0)
(0.986092 0 0)
(0.987002 0 0)
(0.987877 0 0)
(0.988717 0 0)
(0.98952 0 0)
(0.990285 0 0)
(0.991011 0 0)
(0.991698 0 0)
(0.992344 0 0)
(0.992947 0 0)
(0.993507 0 0)
(0.994022 0 0)
(0.994492 0 0)
(0.994913 0 0)
(0.995285 0 0)
(0.995607 0 0)
(0.995876 0 0)
(0.996091 0 0)
(0.99625 0 0)
(0.99635 0 0)
(0.996389 0 0)
(0.99637 0 0)
(0.996249 0 0)
(0.996404 0 0)
(0.993292 0 0)
(1.01914 0 0)
(0.619353 0 0)
(-0.617919 0 0)
(-1.01916 0 0)
(-0.99329 0 0)
(-0.996404 0 0)
(-0.996249 0 0)
(-0.99637 0 0)
(-0.996389 0 0)
(-0.99635 0 0)
(-0.996249 0 0)
(-0.996091 0 0)
(-0.995876 0 0)
(-0.995607 0 0)
(-0.995285 0 0)
(-0.994913 0 0)
(-0.994491 0 0)
(-0.994022 0 0)
(-0.993507 0 0)
(-0.992947 0 0)
(-0.992343 0 0)
(-0.991698 0 0)
(-0.991011 0 0)
(-0.990284 0 0)
(-0.989519 0 0)
(-0.988716 0 0)
(-0.987877 0 0)
(-0.987001 0 0)
(-0.986091 0 0)
(-0.985147 0 0)
(-0.98417 0 0)
(-0.983161 0 0)
(-0.98212 0 0)
(-0.981049 0 0)
(-0.979947 0 0)
(-0.978817 0 0)
(-0.977657 0 0)
(-0.97647 0 0)
(-0.975255 0 0)
(-0.974014 0 0)
(-0.972746 0 0)
(-0.971453 0 0)
(-0.970135 0 0)
(-0.968792 0 0)
(-0.967425 0 0)
(-0.966035 0 0)
(-0.964622 0 0)
(-0.963186 0 0)
(-0.961728 0 0)
(-0.960248 0 0)
(-0.958747 0 0)
(-0.957225 0 0)
(-0.955682 0 0)
(-0.954119 0 0)
(-0.952537 0 0)
(-0.950935 0 0)
(-0.949314 0 0)
(-0.947675 0 0)
(-0.946017 0 0)
(-0.944341 0 0)
(-0.942647 0 0)
(-0.940936 0 0)
(-0.939207 0 0)
(-0.937462 0 0)
(-0.9357 0 0)
(-0.933922 0 0)
(-0.932128 0 0)
(-0.930319 0 0)
(-0.928493 0 0)
(-0.926653 0 0)
(-0.924797 0 0)
(-0.922927 0 0)
(-0.921042 0 0)
(-0.919143 0 0)
(-0.917229 0 0)
(-0.915302 0 0)
(-0.913361 0 0)
(-0.911407 0 0)
(-0.909439 0 0)
(-0.907458 0 0)
(-0.905464 0 0)
(-0.903458 0 0)
(-0.901439 0 0)
(-0.899408 0 0)
(-0.897364 0 0)
(-0.895309 0 0)
(-0.893241 0 0)
(-0.891162 0 0)
(-0.889072 0 0)
(-0.88697 0 0)
(-0.884857 0 0)
(-0.882733 0 0)
(-0.880598 0 0)
(-0.878452 0 0)
(-0.876295 0 0)
(-0.874128 0 0)
(-0.871951 0 0)
(-0.869764 0 0)
(-0.867566 0 0)
(-0.865359 0 0)
(-0.863141 0 0)
(-0.860914 0 0)
(-0.858678 0 0)
(-0.856432 0 0)
(-0.854176 0 0)
(-0.851912 0 0)
(-0.849638 0 0)
(-0.847355 0 0)
(-0.845064 0 0)
(-0.842763 0 0)
(-0.840454 0 0)
(-0.838136 0 0)
(-0.83581 0 0)
(-0.833476 0 0)
(-0.831133 0 0)
(-0.828782 0 0)
(-0.826423 0 0)
(-0.824056 0 0)
(-0.821681 0 0)
(-0.819298 0 0)
(-0.816908 0 0)
(-0.814509 0 0)
(-0.812104 0 0)
(-0.809691 0 0)
(-0.80727 0 0)
(-0.804842 0 0)
(-0.802407 0 0)
(-0.799965 0 0)
(-0.797516 0 0)
(-0.795059 0 0)
(-0.792596 0 0)
(-0.790126 0 0)
(-0.787649 0 0)
(-0.785166 0 0)
(-0.782676 0 0)
(-0.780179 0 0)
(-0.777676 0 0)
(-0.775167 0 0)
(-0.772651 0 0)
(-0.770129 0 0)
(-0.7676 0 0)
(-0.765066 0 0)
(-0.762525 0 0)
(-0.759979 0 0)
(-0.757426 0 0)
(-0.754868 0 0)
(-0.752303 0 0)
(-0.749733 0 0)
(-0.747158 0 0)
(-0.744576 0 0)
(-0.741989 0 0)
(-0.739396 0 0)
(-0.736798 0 0)
(-0.734195 0 0)
(-0.731586 0 0)
(-0.728972 0 0)
(-0.726352 0 0)
(-0.723727 0 0)
(-0.721097 0 0)
(-0.718462 0 0)
(-0.715822 0 0)
(-0.713177 0 0)
(-0.710527 0 0)
(-0.707872 0 0)
(-0.705212 0 0)
(-0.702547 0 0)
(-0.699877 0 0)
(-0.697203 0 0)
(-0.694524 0 0)
(-0.69184 0 0)
(-0.689152 0 0)
(-0.686459 0 0)
(-0.683762 0 0)
(-0.68106 0 0)
(-0.678354 0 0)
(-0.675643 0 0)
(-0.672928 0 0)
(-0.670208 0 0)
(-0.667485 0 0)
(-0.664757 0 0)
(-0.662025 0 0)
(-0.659289 0 0)
(-0.656548 0 0)
(-0.653804 0 0)
(-0.651055 0 0)
(-0.648303 0 0)
(-0.645546 0 0)
(-0.642786 0 0)
(-0.640022 0 0)
(-0.637254 0 0)
(-0.634482 0 0)
(-0.631706 0 0)
(-0.628926 0 0)
(-0.626143 0 0)
(-0.623356 0 0)
(-0.620566 0 0)
(-0.617772 0 0)
(-0.614974 0 0)
(-0.612172 0 0)
(-0.609368 0 0)
(-0.606559 0 0)
(-0.603747 0 0)
(-0.600932 0 0)
(-0.598114 0 0)
(-0.595292 0 0)
(-0.592466 0 0)
(-0.589638 0 0)
(-0.586806 0 0)
(-0.583971 0 0)
(-0.581132 0 0)
(-0.578291 0 0)
(-0.575446 0 0)
(-0.572598 0 0)
(-0.569747 0 0)
(-0.566893 0 0)
(-0.564036 0 0)
(-0.561176 0 0)
(-0.558313 0 0)
(-0.555447 0 0)
(-0.552578 0 0)
(-0.549706 0 0)
(-0.546831 0 0)
(-0.543953 0 0)
(-0.541073 0 0)
(-0.53819 0 0)
(-0.535304 0 0)
(-0.532415 0 0)
(-0.529523 0 0)
(-0.526629 0 0)
(-0.523732 0 0)
(-0.520832 0 0)
(-0.51793 0 0)
(-0.515025 0 0)
(-0.512117 0 0)
(-0.509207 0 0)
(-0.506295 0 0)
(-0.50338 0 0)
(-0.500462 0 0)
(-0.497542 0 0)
(-0.494619 0 0)
(-0.491694 0 0)
(-0.488767 0 0)
(-0.485837 0 0)
(-0.482905 0 0)
(-0.479971 0 0)
(-0.477034 0 0)
(-0.474095 0 0)
(-0.471153 0 0)
(-0.46821 0 0)
(-0.465264 0 0)
(-0.462316 0 0)
(-0.459366 0 0)
(-0.456413 0 0)
(-0.453459 0 0)
(-0.450502 0 0)
(-0.447543 0 0)
(-0.444582 0 0)
(-0.441619 0 0)
(-0.438654 0 0)
(-0.435687 0 0)
(-0.432718 0 0)
(-0.429747 0 0)
(-0.426773 0 0)
(-0.423798 0 0)
(-0.420821 0 0)
(-0.417843 0 0)
(-0.414862 0 0)
(-0.411879 0 0)
(-0.408894 0 0)
(-0.405908 0 0)
(-0.40292 0 0)
(-0.39993 0 0)
(-0.396938 0 0)
(-0.393944 0 0)
(-0.390949 0 0)
(-0.387952 0 0)
(-0.384953 0 0)
(-0.381952 0 0)
(-0.37895 0 0)
(-0.375946 0 0)
(-0.372941 0 0)
(-0.369934 0 0)
(-0.366925 0 0)
(-0.363914 0 0)
(-0.360902 0 0)
(-0.357889 0 0)
(-0.354874 0 0)
(-0.351857 0 0)
(-0.348839 0 0)
(-0.345819 0 0)
(-0.342798 0 0)
(-0.339775 0 0)
(-0.336751 0 0)
(-0.333726 0 0)
(-0.330699 0 0)
(-0.32767 0 0)
(-0.32464 0 0)
(-0.321609 0 0)
(-0.318577 0 0)
(-0.315543 0 0)
(-0.312508 0 0)
(-0.309471 0 0)
(-0.306433 0 0)
(-0.303394 0 0)
(-0.300354 0 0)
(-0.297312 0 0)
(-0.29427 0 0)
(-0.291225 0 0)
(-0.28818 0 0)
(-0.285134 0 0)
(-0.282086 0 0)
(-0.279037 0 0)
(-0.275987 0 0)
(-0.272936 0 0)
(-0.269884 0 0)
(-0.26683 0 0)
(-0.263776 0 0)
(-0.26072 0 0)
(-0.257664 0 0)
(-0.254606 0 0)
(-0.251547 0 0)
(-0.248488 0 0)
(-0.245427 0 0)
(-0.242365 0 0)
(-0.239302 0 0)
(-0.236239 0 0)
(-0.233174 0 0)
(-0.230109 0 0)
(-0.227042 0 0)
(-0.223975 0 0)
(-0.220906 0 0)
(-0.217837 0 0)
(-0.214767 0 0)
(-0.211696 0 0)
(-0.208624 0 0)
(-0.205552 0 0)
(-0.202478 0 0)
(-0.199404 0 0)
(-0.196329 0 0)
(-0.193253 0 0)
(-0.190176 0 0)
(-0.187099 0 0)
(-0.184021 0 0)
(-0.180942 0 0)
(-0.177862 0 0)
(-0.174782 0 0)
(-0.171701 0 0)
(-0.16862 0 0)
(-0.165537 0 0)
(-0.162454 0 0)
(-0.159371 0 0)
(-0.156286 0 0)
(-0.153202 0 0)
(-0.150116 0 0)
(-0.14703 0 0)
(-0.143944 0 0)
(-0.140856 0 0)
(-0.137769 0 0)
(-0.13468 0 0)
(-0.131592 0 0)
(-0.128502 0 0)
(-0.125413 0 0)
(-0.122322 0 0)
(-0.119232 0 0)
(-0.11614 0 0)
(-0.113049 0 0)
(-0.109957 0 0)
(-0.106864 0 0)
(-0.103771 0 0)
(-0.100678 0 0)
(-0.097584 0 0)
(-0.0944898 0 0)
(-0.0913953 0 0)
(-0.0883005 0 0)
(-0.0852053 0 0)
(-0.0821098 0 0)
(-0.0790139 0 0)
(-0.0759178 0 0)
(-0.0728214 0 0)
(-0.0697246 0 0)
(-0.0666277 0 0)
(-0.0635304 0 0)
(-0.0604329 0 0)
(-0.0573352 0 0)
(-0.0542372 0 0)
(-0.0511391 0 0)
(-0.0480407 0 0)
(-0.0449422 0 0)
(-0.0418435 0 0)
(-0.0387446 0 0)
(-0.0356456 0 0)
(-0.0325464 0 0)
(-0.0294472 0 0)
(-0.0263478 0 0)
(-0.0232483 0 0)
(-0.0201487 0 0)
(-0.017049 0 0)
(-0.0139493 0 0)
(-0.0108495 0 0)
(-0.00774967 0 0)
(-0.00464981 0 0)
(-0.00154994 0 0)
)
;

boundaryField
{
    left
    {
        type            fixedValue;
        value           uniform (0 0 0);
    }
    right
    {
        type            fixedValue;
        value           uniform (0 0 0);
    }
    frontBackUpDown
    {
        type            empty;
    }
}


// ************************************************************************* //
