/*--------------------------------*- C++ -*----------------------------------*\
| =========                 |                                                 |
| \\      /  F ield         | OpenFOAM: The Open Source CFD Toolbox           |
|  \\    /   O peration     | Version:  2412                                  |
|   \\  /    A nd           | Website:  www.openfoam.com                      |
|    \\/     M anipulation  |                                                 |
\*---------------------------------------------------------------------------*/
FoamFile
{
    version     2.0;
    format      ascii;
    arch        "LSB;label=32;scalar=64";
    class       volVectorField;
    location    "0.87";
    object      U;
}
// * * * * * * * * * * * * * * * * * * * * * * * * * * * * * * * * * * * * * //

dimensions      [0 1 -1 0 0 0 0];

internalField   nonuniform List<vector> 
800
(
(0.00105287 0 0)
(0.00315863 0 0)
(0.00526439 0 0)
(0.00737014 0 0)
(0.00947588 0 0)
(0.0115816 0 0)
(0.0136873 0 0)
(0.015793 0 0)
(0.0178987 0 0)
(0.0200044 0 0)
(0.02211 0 0)
(0.0242156 0 0)
(0.0263212 0 0)
(0.0284267 0 0)
(0.0305323 0 0)
(0.0326377 0 0)
(0.0347432 0 0)
(0.0368486 0 0)
(0.0389539 0 0)
(0.0410592 0 0)
(0.0431645 0 0)
(0.0452697 0 0)
(0.0473748 0 0)
(0.0494799 0 0)
(0.0515849 0 0)
(0.0536899 0 0)
(0.0557948 0 0)
(0.0578996 0 0)
(0.0600044 0 0)
(0.062109 0 0)
(0.0642136 0 0)
(0.0663182 0 0)
(0.0684226 0 0)
(0.070527 0 0)
(0.0726313 0 0)
(0.0747355 0 0)
(0.0768396 0 0)
(0.0789436 0 0)
(0.0810475 0 0)
(0.0831513 0 0)
(0.085255 0 0)
(0.0873586 0 0)
(0.0894621 0 0)
(0.0915655 0 0)
(0.0936687 0 0)
(0.0957719 0 0)
(0.0978749 0 0)
(0.0999779 0 0)
(0.102081 0 0)
(0.104183 0 0)
(0.106286 0 0)
(0.108388 0 0)
(0.110491 0 0)
(0.112593 0 0)
(0.114695 0 0)
(0.116797 0 0)
(0.118898 0 0)
(0.121 0 0)
(0.123101 0 0)
(0.125203 0 0)
(0.127304 0 0)
(0.129405 0 0)
(0.131505 0 0)
(0.133606 0 0)
(0.135707 0 0)
(0.137807 0 0)
(0.139907 0 0)
(0.142007 0 0)
(0.144107 0 0)
(0.146206 0 0)
(0.148306 0 0)
(0.150405 0 0)
(0.152504 0 0)
(0.154603 0 0)
(0.156702 0 0)
(0.1588 0 0)
(0.160898 0 0)
(0.162996 0 0)
(0.165094 0 0)
(0.167192 0 0)
(0.169289 0 0)
(0.171387 0 0)
(0.173484 0 0)
(0.17558 0 0)
(0.177677 0 0)
(0.179773 0 0)
(0.181869 0 0)
(0.183965 0 0)
(0.186061 0 0)
(0.188156 0 0)
(0.190252 0 0)
(0.192347 0 0)
(0.194441 0 0)
(0.196536 0 0)
(0.19863 0 0)
(0.200724 0 0)
(0.202818 0 0)
(0.204911 0 0)
(0.207004 0 0)
(0.209097 0 0)
(0.21119 0 0)
(0.213282 0 0)
(0.215374 0 0)
(0.217466 0 0)
(0.219558 0 0)
(0.221649 0 0)
(0.22374 0 0)
(0.225831 0 0)
(0.227921 0 0)
(0.230011 0 0)
(0.232101 0 0)
(0.234191 0 0)
(0.23628 0 0)
(0.238369 0 0)
(0.240457 0 0)
(0.242546 0 0)
(0.244634 0 0)
(0.246721 0 0)
(0.248809 0 0)
(0.250896 0 0)
(0.252982 0 0)
(0.255069 0 0)
(0.257155 0 0)
(0.25924 0 0)
(0.261326 0 0)
(0.263411 0 0)
(0.265495 0 0)
(0.26758 0 0)
(0.269664 0 0)
(0.271747 0 0)
(0.273831 0 0)
(0.275913 0 0)
(0.277996 0 0)
(0.280078 0 0)
(0.28216 0 0)
(0.284241 0 0)
(0.286322 0 0)
(0.288403 0 0)
(0.290483 0 0)
(0.292563 0 0)
(0.294643 0 0)
(0.296722 0 0)
(0.2988 0 0)
(0.300879 0 0)
(0.302956 0 0)
(0.305034 0 0)
(0.307111 0 0)
(0.309188 0 0)
(0.311264 0 0)
(0.31334 0 0)
(0.315415 0 0)
(0.31749 0 0)
(0.319565 0 0)
(0.321639 0 0)
(0.323712 0 0)
(0.325785 0 0)
(0.327858 0 0)
(0.32993 0 0)
(0.332002 0 0)
(0.334074 0 0)
(0.336145 0 0)
(0.338215 0 0)
(0.340285 0 0)
(0.342355 0 0)
(0.344424 0 0)
(0.346492 0 0)
(0.34856 0 0)
(0.350628 0 0)
(0.352695 0 0)
(0.354762 0 0)
(0.356828 0 0)
(0.358893 0 0)
(0.360958 0 0)
(0.363023 0 0)
(0.365087 0 0)
(0.367151 0 0)
(0.369214 0 0)
(0.371276 0 0)
(0.373338 0 0)
(0.3754 0 0)
(0.37746 0 0)
(0.379521 0 0)
(0.381581 0 0)
(0.38364 0 0)
(0.385699 0 0)
(0.387757 0 0)
(0.389814 0 0)
(0.391871 0 0)
(0.393928 0 0)
(0.395984 0 0)
(0.398039 0 0)
(0.400094 0 0)
(0.402148 0 0)
(0.404202 0 0)
(0.406255 0 0)
(0.408307 0 0)
(0.410359 0 0)
(0.41241 0 0)
(0.41446 0 0)
(0.41651 0 0)
(0.41856 0 0)
(0.420608 0 0)
(0.422656 0 0)
(0.424704 0 0)
(0.426751 0 0)
(0.428797 0 0)
(0.430842 0 0)
(0.432887 0 0)
(0.434931 0 0)
(0.436975 0 0)
(0.439018 0 0)
(0.44106 0 0)
(0.443101 0 0)
(0.445142 0 0)
(0.447182 0 0)
(0.449222 0 0)
(0.45126 0 0)
(0.453298 0 0)
(0.455336 0 0)
(0.457372 0 0)
(0.459408 0 0)
(0.461444 0 0)
(0.463478 0 0)
(0.465512 0 0)
(0.467545 0 0)
(0.469577 0 0)
(0.471609 0 0)
(0.473639 0 0)
(0.475669 0 0)
(0.477699 0 0)
(0.479727 0 0)
(0.481755 0 0)
(0.483782 0 0)
(0.485808 0 0)
(0.487834 0 0)
(0.489858 0 0)
(0.491882 0 0)
(0.493905 0 0)
(0.495927 0 0)
(0.497948 0 0)
(0.499969 0 0)
(0.501989 0 0)
(0.504008 0 0)
(0.506026 0 0)
(0.508043 0 0)
(0.510059 0 0)
(0.512075 0 0)
(0.514089 0 0)
(0.516103 0 0)
(0.518116 0 0)
(0.520128 0 0)
(0.522139 0 0)
(0.52415 0 0)
(0.526159 0 0)
(0.528167 0 0)
(0.530175 0 0)
(0.532182 0 0)
(0.534187 0 0)
(0.536192 0 0)
(0.538196 0 0)
(0.540199 0 0)
(0.542201 0 0)
(0.544202 0 0)
(0.546202 0 0)
(0.548201 0 0)
(0.550199 0 0)
(0.552196 0 0)
(0.554193 0 0)
(0.556188 0 0)
(0.558182 0 0)
(0.560175 0 0)
(0.562167 0 0)
(0.564158 0 0)
(0.566148 0 0)
(0.568137 0 0)
(0.570125 0 0)
(0.572112 0 0)
(0.574098 0 0)
(0.576083 0 0)
(0.578067 0 0)
(0.58005 0 0)
(0.582031 0 0)
(0.584012 0 0)
(0.585991 0 0)
(0.587969 0 0)
(0.589947 0 0)
(0.591923 0 0)
(0.593897 0 0)
(0.595871 0 0)
(0.597844 0 0)
(0.599815 0 0)
(0.601786 0 0)
(0.603755 0 0)
(0.605723 0 0)
(0.607689 0 0)
(0.609655 0 0)
(0.611619 0 0)
(0.613582 0 0)
(0.615544 0 0)
(0.617505 0 0)
(0.619464 0 0)
(0.621422 0 0)
(0.623379 0 0)
(0.625335 0 0)
(0.627289 0 0)
(0.629242 0 0)
(0.631194 0 0)
(0.633144 0 0)
(0.635094 0 0)
(0.637041 0 0)
(0.638988 0 0)
(0.640933 0 0)
(0.642877 0 0)
(0.644819 0 0)
(0.64676 0 0)
(0.6487 0 0)
(0.650638 0 0)
(0.652575 0 0)
(0.65451 0 0)
(0.656444 0 0)
(0.658377 0 0)
(0.660308 0 0)
(0.662237 0 0)
(0.664165 0 0)
(0.666092 0 0)
(0.668017 0 0)
(0.669941 0 0)
(0.671863 0 0)
(0.673783 0 0)
(0.675702 0 0)
(0.67762 0 0)
(0.679536 0 0)
(0.68145 0 0)
(0.683363 0 0)
(0.685274 0 0)
(0.687184 0 0)
(0.689092 0 0)
(0.690998 0 0)
(0.692903 0 0)
(0.694806 0 0)
(0.696707 0 0)
(0.698606 0 0)
(0.700504 0 0)
(0.7024 0 0)
(0.704295 0 0)
(0.706188 0 0)
(0.708079 0 0)
(0.709968 0 0)
(0.711855 0 0)
(0.713741 0 0)
(0.715624 0 0)
(0.717506 0 0)
(0.719386 0 0)
(0.721264 0 0)
(0.723141 0 0)
(0.725015 0 0)
(0.726888 0 0)
(0.728758 0 0)
(0.730627 0 0)
(0.732494 0 0)
(0.734358 0 0)
(0.736221 0 0)
(0.738082 0 0)
(0.739941 0 0)
(0.741797 0 0)
(0.743652 0 0)
(0.745504 0 0)
(0.747355 0 0)
(0.749203 0 0)
(0.751049 0 0)
(0.752893 0 0)
(0.754735 0 0)
(0.756575 0 0)
(0.758412 0 0)
(0.760247 0 0)
(0.76208 0 0)
(0.763911 0 0)
(0.76574 0 0)
(0.767566 0 0)
(0.76939 0 0)
(0.771211 0 0)
(0.77303 0 0)
(0.774847 0 0)
(0.776661 0 0)
(0.778473 0 0)
(0.780282 0 0)
(0.782089 0 0)
(0.783894 0 0)
(0.785695 0 0)
(0.787495 0 0)
(0.789291 0 0)
(0.791086 0 0)
(0.792877 0 0)
(0.794666 0 0)
(0.796452 0 0)
(0.798236 0 0)
(0.800015 0 0)
(0.801741 0 0)
(0.777121 0 0)
(0.406722 0 0)
(-0.405492 0 0)
(-0.776938 0 0)
(-0.801737 0 0)
(-0.800013 0 0)
(-0.798233 0 0)
(-0.79645 0 0)
(-0.794664 0 0)
(-0.792875 0 0)
(-0.791083 0 0)
(-0.789289 0 0)
(-0.787492 0 0)
(-0.785693 0 0)
(-0.783891 0 0)
(-0.782087 0 0)
(-0.78028 0 0)
(-0.77847 0 0)
(-0.776659 0 0)
(-0.774844 0 0)
(-0.773028 0 0)
(-0.771209 0 0)
(-0.769387 0 0)
(-0.767563 0 0)
(-0.765737 0 0)
(-0.763909 0 0)
(-0.762078 0 0)
(-0.760245 0 0)
(-0.75841 0 0)
(-0.756572 0 0)
(-0.754733 0 0)
(-0.752891 0 0)
(-0.751047 0 0)
(-0.749201 0 0)
(-0.747352 0 0)
(-0.745502 0 0)
(-0.743649 0 0)
(-0.741795 0 0)
(-0.739938 0 0)
(-0.738079 0 0)
(-0.736219 0 0)
(-0.734356 0 0)
(-0.732491 0 0)
(-0.730625 0 0)
(-0.728756 0 0)
(-0.726885 0 0)
(-0.725013 0 0)
(-0.723139 0 0)
(-0.721262 0 0)
(-0.719384 0 0)
(-0.717504 0 0)
(-0.715622 0 0)
(-0.713738 0 0)
(-0.711853 0 0)
(-0.709965 0 0)
(-0.708076 0 0)
(-0.706185 0 0)
(-0.704293 0 0)
(-0.702398 0 0)
(-0.700502 0 0)
(-0.698604 0 0)
(-0.696705 0 0)
(-0.694803 0 0)
(-0.6929 0 0)
(-0.690996 0 0)
(-0.689089 0 0)
(-0.687182 0 0)
(-0.685272 0 0)
(-0.683361 0 0)
(-0.681448 0 0)
(-0.679534 0 0)
(-0.677618 0 0)
(-0.6757 0 0)
(-0.673781 0 0)
(-0.671861 0 0)
(-0.669939 0 0)
(-0.668015 0 0)
(-0.66609 0 0)
(-0.664163 0 0)
(-0.662235 0 0)
(-0.660305 0 0)
(-0.658374 0 0)
(-0.656442 0 0)
(-0.654508 0 0)
(-0.652573 0 0)
(-0.650636 0 0)
(-0.648698 0 0)
(-0.646758 0 0)
(-0.644817 0 0)
(-0.642875 0 0)
(-0.640931 0 0)
(-0.638986 0 0)
(-0.637039 0 0)
(-0.635092 0 0)
(-0.633142 0 0)
(-0.631192 0 0)
(-0.62924 0 0)
(-0.627287 0 0)
(-0.625333 0 0)
(-0.623377 0 0)
(-0.62142 0 0)
(-0.619462 0 0)
(-0.617503 0 0)
(-0.615542 0 0)
(-0.61358 0 0)
(-0.611617 0 0)
(-0.609653 0 0)
(-0.607687 0 0)
(-0.605721 0 0)
(-0.603753 0 0)
(-0.601784 0 0)
(-0.599813 0 0)
(-0.597842 0 0)
(-0.595869 0 0)
(-0.593896 0 0)
(-0.591921 0 0)
(-0.589945 0 0)
(-0.587968 0 0)
(-0.585989 0 0)
(-0.58401 0 0)
(-0.582029 0 0)
(-0.580048 0 0)
(-0.578065 0 0)
(-0.576081 0 0)
(-0.574097 0 0)
(-0.572111 0 0)
(-0.570124 0 0)
(-0.568136 0 0)
(-0.566147 0 0)
(-0.564157 0 0)
(-0.562166 0 0)
(-0.560173 0 0)
(-0.55818 0 0)
(-0.556186 0 0)
(-0.554191 0 0)
(-0.552195 0 0)
(-0.550198 0 0)
(-0.5482 0 0)
(-0.5462 0 0)
(-0.5442 0 0)
(-0.542199 0 0)
(-0.540197 0 0)
(-0.538195 0 0)
(-0.536191 0 0)
(-0.534186 0 0)
(-0.53218 0 0)
(-0.530174 0 0)
(-0.528166 0 0)
(-0.526158 0 0)
(-0.524148 0 0)
(-0.522138 0 0)
(-0.520127 0 0)
(-0.518115 0 0)
(-0.516102 0 0)
(-0.514088 0 0)
(-0.512073 0 0)
(-0.510058 0 0)
(-0.508042 0 0)
(-0.506024 0 0)
(-0.504006 0 0)
(-0.501987 0 0)
(-0.499968 0 0)
(-0.497947 0 0)
(-0.495926 0 0)
(-0.493904 0 0)
(-0.491881 0 0)
(-0.489857 0 0)
(-0.487832 0 0)
(-0.485807 0 0)
(-0.483781 0 0)
(-0.481754 0 0)
(-0.479726 0 0)
(-0.477697 0 0)
(-0.475668 0 0)
(-0.473638 0 0)
(-0.471607 0 0)
(-0.469576 0 0)
(-0.467544 0 0)
(-0.465511 0 0)
(-0.463477 0 0)
(-0.461442 0 0)
(-0.459407 0 0)
(-0.457371 0 0)
(-0.455335 0 0)
(-0.453297 0 0)
(-0.451259 0 0)
(-0.449221 0 0)
(-0.447181 0 0)
(-0.445141 0 0)
(-0.4431 0 0)
(-0.441059 0 0)
(-0.439016 0 0)
(-0.436974 0 0)
(-0.43493 0 0)
(-0.432886 0 0)
(-0.430841 0 0)
(-0.428796 0 0)
(-0.42675 0 0)
(-0.424703 0 0)
(-0.422655 0 0)
(-0.420607 0 0)
(-0.418559 0 0)
(-0.416509 0 0)
(-0.414459 0 0)
(-0.412409 0 0)
(-0.410358 0 0)
(-0.408306 0 0)
(-0.406254 0 0)
(-0.404201 0 0)
(-0.402147 0 0)
(-0.400093 0 0)
(-0.398038 0 0)
(-0.395983 0 0)
(-0.393927 0 0)
(-0.391871 0 0)
(-0.389814 0 0)
(-0.387756 0 0)
(-0.385698 0 0)
(-0.383639 0 0)
(-0.38158 0 0)
(-0.37952 0 0)
(-0.37746 0 0)
(-0.375399 0 0)
(-0.373337 0 0)
(-0.371275 0 0)
(-0.369213 0 0)
(-0.36715 0 0)
(-0.365086 0 0)
(-0.363022 0 0)
(-0.360958 0 0)
(-0.358893 0 0)
(-0.356827 0 0)
(-0.354761 0 0)
(-0.352694 0 0)
(-0.350627 0 0)
(-0.34856 0 0)
(-0.346491 0 0)
(-0.344423 0 0)
(-0.342354 0 0)
(-0.340284 0 0)
(-0.338214 0 0)
(-0.336144 0 0)
(-0.334073 0 0)
(-0.332002 0 0)
(-0.32993 0 0)
(-0.327858 0 0)
(-0.325785 0 0)
(-0.323712 0 0)
(-0.321638 0 0)
(-0.319564 0 0)
(-0.317489 0 0)
(-0.315414 0 0)
(-0.313339 0 0)
(-0.311263 0 0)
(-0.309187 0 0)
(-0.30711 0 0)
(-0.305033 0 0)
(-0.302956 0 0)
(-0.300878 0 0)
(-0.2988 0 0)
(-0.296721 0 0)
(-0.294642 0 0)
(-0.292563 0 0)
(-0.290483 0 0)
(-0.288402 0 0)
(-0.286322 0 0)
(-0.284241 0 0)
(-0.282159 0 0)
(-0.280078 0 0)
(-0.277995 0 0)
(-0.275913 0 0)
(-0.27383 0 0)
(-0.271747 0 0)
(-0.269663 0 0)
(-0.267579 0 0)
(-0.265495 0 0)
(-0.26341 0 0)
(-0.261325 0 0)
(-0.25924 0 0)
(-0.257154 0 0)
(-0.255068 0 0)
(-0.252982 0 0)
(-0.250895 0 0)
(-0.248808 0 0)
(-0.246721 0 0)
(-0.244633 0 0)
(-0.242545 0 0)
(-0.240457 0 0)
(-0.238368 0 0)
(-0.236279 0 0)
(-0.23419 0 0)
(-0.232101 0 0)
(-0.230011 0 0)
(-0.227921 0 0)
(-0.22583 0 0)
(-0.22374 0 0)
(-0.221649 0 0)
(-0.219557 0 0)
(-0.217466 0 0)
(-0.215374 0 0)
(-0.213282 0 0)
(-0.21119 0 0)
(-0.209097 0 0)
(-0.207004 0 0)
(-0.204911 0 0)
(-0.202817 0 0)
(-0.200724 0 0)
(-0.19863 0 0)
(-0.196535 0 0)
(-0.194441 0 0)
(-0.192346 0 0)
(-0.190251 0 0)
(-0.188156 0 0)
(-0.186061 0 0)
(-0.183965 0 0)
(-0.181869 0 0)
(-0.179773 0 0)
(-0.177677 0 0)
(-0.17558 0 0)
(-0.173483 0 0)
(-0.171386 0 0)
(-0.169289 0 0)
(-0.167192 0 0)
(-0.165094 0 0)
(-0.162996 0 0)
(-0.160898 0 0)
(-0.1588 0 0)
(-0.156701 0 0)
(-0.154603 0 0)
(-0.152504 0 0)
(-0.150405 0 0)
(-0.148306 0 0)
(-0.146206 0 0)
(-0.144107 0 0)
(-0.142007 0 0)
(-0.139907 0 0)
(-0.137807 0 0)
(-0.135706 0 0)
(-0.133606 0 0)
(-0.131505 0 0)
(-0.129405 0 0)
(-0.127304 0 0)
(-0.125202 0 0)
(-0.123101 0 0)
(-0.121 0 0)
(-0.118898 0 0)
(-0.116796 0 0)
(-0.114695 0 0)
(-0.112593 0 0)
(-0.11049 0 0)
(-0.108388 0 0)
(-0.106286 0 0)
(-0.104183 0 0)
(-0.102081 0 0)
(-0.0999778 0 0)
(-0.0978749 0 0)
(-0.0957718 0 0)
(-0.0936687 0 0)
(-0.0915654 0 0)
(-0.089462 0 0)
(-0.0873585 0 0)
(-0.0852549 0 0)
(-0.0831512 0 0)
(-0.0810474 0 0)
(-0.0789435 0 0)
(-0.0768395 0 0)
(-0.0747354 0 0)
(-0.0726312 0 0)
(-0.070527 0 0)
(-0.0684226 0 0)
(-0.0663182 0 0)
(-0.0642136 0 0)
(-0.062109 0 0)
(-0.0600043 0 0)
(-0.0578996 0 0)
(-0.0557948 0 0)
(-0.0536899 0 0)
(-0.0515849 0 0)
(-0.0494799 0 0)
(-0.0473748 0 0)
(-0.0452696 0 0)
(-0.0431645 0 0)
(-0.0410592 0 0)
(-0.0389539 0 0)
(-0.0368486 0 0)
(-0.0347432 0 0)
(-0.0326377 0 0)
(-0.0305323 0 0)
(-0.0284267 0 0)
(-0.0263212 0 0)
(-0.0242156 0 0)
(-0.02211 0 0)
(-0.0200044 0 0)
(-0.0178987 0 0)
(-0.015793 0 0)
(-0.0136873 0 0)
(-0.0115816 0 0)
(-0.00947589 0 0)
(-0.00737015 0 0)
(-0.0052644 0 0)
(-0.00315864 0 0)
(-0.00105288 0 0)
)
;

boundaryField
{
    left
    {
        type            fixedValue;
        value           uniform (0 0 0);
    }
    right
    {
        type            fixedValue;
        value           uniform (0 0 0);
    }
    frontBackUpDown
    {
        type            empty;
    }
}


// ************************************************************************* //
