/*--------------------------------*- C++ -*----------------------------------*\
| =========                 |                                                 |
| \\      /  F ield         | OpenFOAM: The Open Source CFD Toolbox           |
|  \\    /   O peration     | Version:  2412                                  |
|   \\  /    A nd           | Website:  www.openfoam.com                      |
|    \\/     M anipulation  |                                                 |
\*---------------------------------------------------------------------------*/
FoamFile
{
    version     2.0;
    format      ascii;
    arch        "LSB;label=32;scalar=64";
    class       volScalarField;
    location    "2.75";
    object      p;
}
// * * * * * * * * * * * * * * * * * * * * * * * * * * * * * * * * * * * * * //

dimensions      [0 2 -2 0 0 0 0];

internalField   nonuniform List<scalar> 
2200
(
0.588563
0.587302
0.590339
0.589617
0.596076
0.614514
0.647555
0.700874
0.771454
0.848489
0.88984
0.870531
0.837538
0.80693
0.7875
0.777658
0.774655
0.774746
0.77256
0.773784
0.588022
0.58643
0.587481
0.59526
0.611249
0.638252
0.680655
0.737119
0.810521
0.891475
0.928028
0.905441
0.870147
0.838371
0.809219
0.789685
0.778242
0.77302
0.772286
0.773683
0.610905
0.605432
0.606449
0.620706
0.6463
0.687239
0.744704
0.818342
0.905431
0.982547
1.01258
0.991358
0.947332
0.89934
0.856482
0.823921
0.803824
0.792428
0.792614
0.798225
0.683964
0.676742
0.669727
0.673558
0.694509
0.737446
0.810797
0.91477
1.0234
1.11722
1.14702
1.10992
1.04585
0.970037
0.913575
0.878263
0.86186
0.8601
0.868157
0.875766
0.793304
0.784069
0.774017
0.760962
0.766494
0.799674
0.876609
1.00115
1.1419
1.27565
1.31194
1.24089
1.14379
1.045
0.984983
0.962337
0.961
0.975382
0.985768
0.995137
0.937068
0.923698
0.90464
0.872689
0.860779
0.877727
0.935255
1.06531
1.24825
1.42313
1.46536
1.35923
1.22362
1.1234
1.08188
1.07308
1.08812
1.12187
1.14205
1.15594
1.16525
1.14686
1.10997
1.06658
1.05375
1.04817
1.06516
1.15169
1.34021
1.5526
1.60145
1.46866
1.33346
1.27664
1.2746
1.2886
1.30645
1.35316
1.39131
1.4097
1.54582
1.52462
1.47913
1.4136
1.38859
1.40589
1.42236
1.45417
1.56519
1.74896
1.80486
1.71499
1.65945
1.66039
1.66248
1.65532
1.68626
1.75405
1.79993
1.82127
2.08925
2.06702
2.01287
1.92863
1.86546
1.88636
1.97215
2.05707
2.10918
2.213
2.27231
2.27786
2.29137
2.24428
2.18032
2.17277
2.24189
2.32861
2.38374
2.40635
2.75814
2.73453
2.67341
2.57045
2.46503
2.43404
2.54946
2.75965
2.94205
3.11198
3.1798
3.13536
3.0331
2.86697
2.78126
2.82762
2.93937
3.04483
3.10672
3.13061
3.53054
3.50525
3.43757
3.31864
3.17891
3.07797
3.13632
3.358
3.73856
4.08383
4.163
3.96342
3.67962
3.51688
3.49433
3.61075
3.75662
3.87717
3.94511
3.97034
4.37954
4.35515
4.28721
4.16182
4.00172
3.8524
3.80545
3.9017
4.23945
4.58997
4.68562
4.50785
4.29392
4.26944
4.35155
4.51582
4.68249
4.80939
4.87798
4.90248
5.24636
5.22423
5.16145
5.0397
4.86972
4.6948
4.57741
4.56548
4.72242
4.92966
5.05529
5.05674
5.05099
5.14504
5.29793
5.48958
5.66426
5.78718
5.85012
5.87185
6.05456
6.03718
5.98509
5.87855
5.71906
5.53996
5.41082
5.40681
5.50869
5.66965
5.82841
5.9171
5.99883
6.10185
6.27622
6.47203
6.63672
6.74491
6.79753
6.81554
6.7538
6.74084
6.70049
6.61655
6.48612
6.32846
6.20965
6.25537
6.40259
6.62891
6.82159
6.90577
6.97274
7.05374
7.22313
7.39851
7.53604
7.62298
7.66456
7.67851
7.27837
7.27117
7.2457
7.18636
7.09327
6.97233
6.8776
6.92625
7.08332
7.34427
7.58046
7.7129
7.80271
7.88764
8.03888
8.19683
8.30614
8.37419
8.40718
8.41798
7.60095
7.59562
7.57884
7.54055
7.48511
7.40622
7.36408
7.3808
7.53215
7.7772
8.07077
8.30671
8.44784
8.5905
8.72627
8.85279
8.93259
8.98223
9.00603
9.01562
7.69627
7.69553
7.69312
7.67867
7.65657
7.63441
7.61225
7.63233
7.83865
8.10584
8.46764
8.78284
8.94724
9.14782
9.29558
9.37479
9.43031
9.46709
9.48576
9.49576
7.60085
7.59921
7.60142
7.60153
7.60639
7.62237
7.64827
7.75668
8.01916
8.36347
8.80173
9.17403
9.39173
9.57109
9.69946
9.77909
9.83214
9.86303
9.87736
9.88886
7.31874
7.32319
7.33751
7.35777
7.38853
7.44235
7.53862
7.71848
8.05114
8.5059
9.03543
9.46842
9.74139
9.93324
10.061
10.1416
10.1949
10.2275
10.244
10.2549
6.86572
6.87201
6.89488
6.93538
6.99774
7.10367
7.27387
7.53728
7.96523
8.54103
9.18162
9.69662
10.0307
10.2586
10.4115
10.5104
10.5736
10.6141
10.6355
10.6407
6.22295
6.23627
6.27288
6.33766
6.44682
6.61605
6.87586
7.25931
7.80716
8.51993
9.2943
9.90554
10.3157
10.5961
10.7936
10.9174
10.9992
11.0559
11.0819
11.0886
5.33882
5.36455
5.43045
5.5448
5.72152
5.98868
6.37913
6.91581
7.61195
8.49158
9.41219
10.1381
10.6375
10.9827
11.2236
11.3869
11.4929
11.5596
11.603
11.6249
4.15339
4.20414
4.31471
4.49947
4.79172
5.2159
5.77795
6.50467
7.39896
8.46628
9.54615
10.4
10.9997
11.4231
11.7237
11.937
12.0851
12.181
12.2442
12.2712
2.54858
2.64929
2.84616
3.18475
3.67288
4.30566
5.09457
6.05059
7.17363
8.45352
9.7099
10.7023
11.4088
11.92
12.2929
12.5648
12.7636
12.9077
13.0012
13.0345
0.400161
0.536061
0.947725
1.58935
2.36967
3.29458
4.36513
5.59158
6.96147
8.46951
9.91034
11.0441
11.8609
12.4629
12.9144
13.2602
13.5234
13.7139
13.8332
13.868
-2.66772
-2.10077
-1.16694
-0.125565
1.00213
2.24731
3.62262
5.1331
6.7709
8.53009
10.1773
11.4805
12.4415
13.1705
13.731
14.1726
14.5377
14.8449
15.0604
15.1284
-6.28228
-4.779
-3.22971
-1.7951
-0.339341
1.22279
2.89884
4.6897
6.61036
8.62765
10.5024
11.9998
13.1208
13.9923
14.6887
15.2497
15.7067
16.1099
16.4763
16.6735
-8.86111
-7.02187
-5.18833
-3.45528
-1.65346
0.246686
2.21774
4.29042
6.47826
8.72794
10.81
12.4765
13.7325
14.7126
15.5025
16.1508
16.671
17.0502
17.4753
17.6491
-10.7228
-8.73481
-6.91485
-4.9649
-2.86306
-0.675674
1.57764
3.91876
6.34319
8.80619
11.0779
12.8894
14.2542
15.3081
16.1359
16.8054
17.3462
17.7412
18.0967
18.2621
-12.1076
-10.0511
-8.31685
-6.21192
-3.92469
-1.50937
0.990073
3.56008
6.19136
8.85456
11.2958
13.2207
14.6543
15.7443
16.5762
17.2243
17.755
18.162
18.5024
18.682
-13.1768
-11.1646
-9.44301
-7.22829
-4.80401
-2.21626
0.467794
3.21894
6.02988
8.87009
11.448
13.4504
14.9169
16.0193
16.8565
17.5008
18.0254
18.4433
18.7835
18.9776
-13.9919
-11.9189
-10.2962
-8.00111
-5.47846
-2.79537
0.00941001
2.90091
5.86155
8.84393
11.5286
13.5956
15.0962
16.2206
17.0822
17.7387
18.2539
18.674
19.0158
19.1982
-14.7233
-12.557
-10.8966
-8.46455
-5.93585
-3.24082
-0.381353
2.60862
5.68384
8.77853
11.5613
13.7024
15.2498
16.3985
17.2746
17.9485
18.4712
18.888
19.2366
19.3934
-15.2888
-13.1952
-11.3869
-8.79585
-6.26556
-3.58494
-0.702363
2.34895
5.50715
8.69641
11.5787
13.8023
15.4053
16.5895
17.4915
18.176
18.6907
19.0937
19.428
19.611
-15.7356
-13.6071
-11.7577
-9.09227
-6.59282
-3.89191
-0.974845
2.12616
5.34766
8.61631
11.5918
13.8974
15.5581
16.7741
17.6802
18.369
18.8981
19.3128
19.6398
19.8259
-16.221
-14.0353
-12.06
-9.41016
-6.92572
-4.1945
-1.22395
1.93184
5.20495
8.53603
11.5919
13.973
15.6862
16.9368
17.8765
18.5847
19.1128
19.5228
19.8371
20.0336
-16.5741
-14.4688
-12.4844
-9.81291
-7.28797
-4.50086
-1.46229
1.74673
5.06113
8.4414
11.5644
14.0148
15.7901
17.0929
18.0619
18.7936
19.3401
19.7637
20.08
20.2632
-16.9612
-14.8363
-12.921
-10.2545
-7.68374
-4.81481
-1.70488
1.54956
4.89799
8.32152
11.5021
14.0209
15.8652
17.2289
18.2447
19.0055
19.5691
20.0012
20.3184
20.5111
-17.4474
-15.3237
-13.3321
-10.6754
-8.06997
-5.12961
-1.95935
1.33096
4.7101
8.17595
11.4089
13.9942
15.9105
17.3447
18.424
19.2374
19.8355
20.2855
20.6007
20.7801
-17.8171
-15.7243
-13.762
-11.0607
-8.42502
-5.43065
-2.21917
1.09646
4.50434
8.01239
11.2902
13.9313
15.9217
17.4379
18.5886
19.4658
20.111
20.5833
20.9169
21.1063
-18.2233
-16.098
-14.0766
-11.3797
-8.72853
-5.70355
-2.47123
0.859356
4.2935
7.83916
11.1501
13.8369
15.8985
17.4947
18.7296
19.6856
20.3957
20.9246
21.2705
21.4407
-18.5848
-16.4762
-14.3682
-11.6462
-8.97949
-5.94072
-2.70584
0.631412
4.08741
7.66039
10.9919
13.7119
15.831
17.501
18.8264
19.8795
20.6796
21.2908
21.6793
21.8665
-18.8111
-16.7069
-14.6379
-11.8833
-9.19915
-6.15255
-2.92382
0.417032
3.88921
7.47659
10.8168
13.5558
15.7177
17.4617
18.8766
20.0304
20.9485
21.6675
22.1214
22.3239
-19.0944
-16.9426
-14.8109
-12.0922
-9.41118
-6.35663
-3.13141
0.214189
3.69674
7.28766
10.6284
13.3773
15.5684
17.3669
18.8615
20.1191
21.1619
22.0223
22.6057
22.8453
-19.3598
-17.2352
-15.0961
-12.3463
-9.63265
-6.56144
-3.3339
0.018191
3.50679
7.09548
10.4304
13.1774
15.3778
17.2128
18.776
20.1282
21.296
22.3128
23.0671
23.3153
-19.6243
-17.5278
-15.4334
-12.6252
-9.85963
-6.76747
-3.53445
-0.176798
3.31431
6.89704
10.2168
12.947
15.1432
16.9953
18.5943
20.0111
21.2733
22.4405
23.4779
23.8282
-19.856
-17.6784
-15.5229
-12.7834
-10.0802
-6.97628
-3.73887
-0.37862
3.11082
6.68229
9.97575
12.6737
14.8455
16.6877
18.2946
19.7311
21.0305
22.1975
22.9769
23.1569
-20.0111
-17.7726
-15.6409
-12.9262
-10.2981
-7.1809
-3.94539
-0.584984
2.89878
6.45342
9.71097
12.3601
14.4819
16.2831
17.8532
19.2306
20.426
21.4096
21.9284
22.1162
-20.3294
-18.23
-16.1222
-13.3133
-10.5325
-7.3868
-4.15471
-0.796878
2.6772
6.20943
9.42331
12.0051
14.0492
15.7678
17.2465
18.5099
19.5403
20.2566
20.5811
20.8343
-20.6381
-18.6592
-16.5602
-13.6434
-10.7672
-7.60399
-4.36767
-1.0162
2.4446
5.94946
9.1141
11.6129
13.5513
15.1433
16.4786
17.5747
18.4389
19.0255
19.2721
19.5965
-20.8138
-18.6391
-16.4362
-13.6388
-10.9729
-7.81726
-4.58841
-1.24749
2.19693
5.67061
8.78276
11.1874
12.9906
14.4121
15.5669
16.4882
17.208
17.6692
17.8223
18.2157
-20.9196
-18.6804
-16.5029
-13.7622
-11.1771
-8.01932
-4.81833
-1.48993
1.93453
5.37338
8.43066
10.7327
12.3805
13.6096
14.5579
15.2813
15.7831
16.0971
16.2686
16.6675
-21.1831
-19.1362
-17.0421
-14.2028
-11.4177
-8.23979
-5.05169
-1.73521
1.66607
5.06594
8.06403
10.2596
11.7427
12.7633
13.4933
14.0183
14.2899
14.3145
14.2493
14.5187
-21.4812
-19.4609
-17.2764
-14.4262
-11.6475
-8.47184
-5.28093
-1.97674
1.40036
4.75685
7.68914
9.77935
11.104
11.9151
12.4093
12.7141
12.7068
12.111
11.1521
11.2925
-21.6164
-19.461
-17.2109
-14.4444
-11.8282
-8.67134
-5.499
-2.21002
1.14236
4.45254
7.31156
9.30113
10.4893
11.1042
11.3343
11.3357
11.0425
9.83521
7.50818
5.34215
-21.7694
-19.6536
-17.4712
-14.6826
-12.0195
-8.8547
-5.70501
-2.43028
0.897812
4.16138
6.94407
8.84044
9.91774
10.3644
10.3305
9.94564
9.30542
8.08272
3.95743
-7.13981
-22.0401
-19.9991
-17.804
-14.962
-12.2313
-9.04704
-5.90224
-2.63932
0.666769
3.88271
6.58851
8.39387
9.37588
9.68868
9.44343
8.7557
7.88587
7.05037
6.30488
1.92702
-22.2447
-20.1766
-17.9314
-15.0832
-12.4198
-9.22952
-6.0983
-2.84908
0.437987
3.60442
6.23638
7.9586
8.86231
9.08831
8.76801
8.09173
7.38378
7.22956
8.08293
7.04069
-22.3963
-20.3215
-18.1015
-15.2386
-12.6085
-9.4018
-6.29895
-3.06361
0.206341
3.32441
5.89268
7.55354
8.40759
8.62549
8.4009
7.9287
7.43185
7.28127
7.73214
7.15981
-22.5976
-20.5513
-18.3455
-15.4621
-12.824
-9.58428
-6.5132
-3.28373
-0.0294105
3.04499
5.56531
7.19526
8.05346
8.36023
8.33254
8.10221
7.71385
7.30629
7.29901
7.2139
-22.8018
-20.751
-18.5254
-15.6496
-13.0401
-9.76914
-6.74193
-3.50425
-0.268023
2.77233
5.26702
6.90644
7.8351
8.29508
8.446
8.42186
8.12716
7.58472
7.49549
7.55684
-22.9679
-20.9183
-18.6744
-15.8306
-13.2404
-9.94793
-6.97675
-3.71696
-0.506393
2.51746
5.01787
6.71067
7.74165
8.35298
8.65529
8.79373
8.73824
8.32544
8.29089
8.36963
-23.127
-21.0913
-18.8208
-16.0292
-13.4164
-10.128
-7.20412
-3.9134
-0.735517
2.29205
4.83345
6.61055
7.76302
8.51015
8.96631
9.28698
9.59527
9.60152
9.66409
9.77815
-23.2484
-21.234
-18.9436
-16.2123
-13.548
-10.3075
-7.40269
-4.08752
-0.943743
2.10693
4.71787
6.58991
7.87956
8.79052
9.45221
10.0059
10.5544
10.9332
11.1702
11.2875
-23.3171
-21.3212
-19.0262
-16.35
-13.6248
-10.4748
-7.55052
-4.23715
-1.11542
1.96753
4.65501
6.63697
8.06959
9.18423
10.0646
10.782
11.4215
11.927
12.277
12.4155
-23.3119
-21.3494
-19.0596
-16.4195
-13.6623
-10.6033
-7.63905
-4.35866
-1.2423
1.8691
4.62286
6.72717
8.2929
9.55015
10.5487
11.3309
11.9733
12.4758
12.8431
13.01
-23.2146
-21.2824
-19.013
-16.41
-13.654
-10.6624
-7.67032
-4.4466
-1.33438
1.80512
4.61274
6.80479
8.44318
9.7393
10.7668
11.5789
12.2375
12.7367
13.1103
13.31
-22.9864
-21.1068
-18.869
-16.3054
-13.5705
-10.6362
-7.65061
-4.49986
-1.39828
1.75914
4.59391
6.81731
8.48492
9.79846
10.8508
11.6831
12.3743
12.8903
13.2754
13.4995
-22.593
-20.7866
-18.5979
-16.0826
-13.3915
-10.5269
-7.58306
-4.5054
-1.43462
1.7019
4.52897
6.76754
8.47006
9.81495
10.8918
11.7284
12.4299
12.9571
13.3473
13.5926
-22.0056
-20.296
-18.174
-15.7242
-13.0966
-10.3163
-7.44716
-4.45535
-1.45353
1.62113
4.41743
6.66306
8.383
9.73687
10.8127
11.6399
12.3379
12.8736
13.2711
13.5389
-21.1732
-19.5841
-17.5492
-15.1857
-12.654
-9.98725
-7.23362
-4.35764
-1.45843
1.52796
4.26567
6.47755
8.16502
9.49334
10.5585
11.3751
12.0638
12.6091
13.0117
13.2985
-20.0426
-18.6005
-16.666
-14.4377
-12.0464
-9.53494
-6.93599
-4.20735
-1.441
1.41715
4.04809
6.1791
7.80383
9.08384
10.1305
10.9389
11.6086
12.1608
12.5723
12.8766
-18.5182
-17.2781
-15.5103
-13.4488
-11.249
-8.94058
-6.53702
-3.99347
-1.40815
1.26767
3.74622
5.76148
7.30719
8.51896
9.5238
10.3157
10.9608
11.5077
11.9245
12.2406
-16.5768
-15.5781
-14.0109
-12.1911
-10.243
-8.18463
-6.02323
-3.71838
-1.36531
1.08653
3.3747
5.23366
6.66446
7.77692
8.69822
9.44167
10.0483
10.5719
10.9938
11.3189
-14.2058
-13.4882
-12.1958
-10.6692
-9.01238
-7.25759
-5.389
-3.37416
-1.29452
0.891965
2.94408
4.5992
5.86409
6.83788
7.62959
8.27123
8.79209
9.23375
9.60362
9.89766
-11.3819
-10.9462
-9.99204
-8.8442
-7.57963
-6.19144
-4.65303
-2.96268
-1.18405
0.723486
2.53674
3.99679
5.10007
5.93628
6.59657
7.11503
7.51102
7.81537
8.05678
8.24692
-8.45096
-8.20773
-7.65075
-6.92557
-6.03721
-5.00928
-3.83787
-2.49507
-1.01949
0.616151
2.19241
3.46747
4.42557
5.13549
5.67229
6.0848
6.37304
6.56765
6.68727
6.7768
-5.89328
-5.73213
-5.51383
-5.06062
-4.49453
-3.82707
-3.00731
-1.97489
-0.790285
0.553768
1.86528
2.93224
3.72626
4.29876
4.70233
4.99674
5.1869
5.30299
5.33686
5.37661
-3.82059
-3.71317
-3.62036
-3.33202
-3.12913
-2.75167
-2.19078
-1.42882
-0.527635
0.52272
1.57444
2.43797
3.07198
3.521
3.81679
4.01441
4.12798
4.20365
4.22118
4.24386
-2.3026
-2.25945
-2.20829
-2.04247
-2.05409
-1.78924
-1.42216
-0.910792
-0.270708
0.527203
1.358
2.04261
2.53596
2.88052
3.09861
3.23435
3.3086
3.38438
3.404
3.44311
-1.34935
-1.35523
-1.35594
-1.2494
-1.29136
-1.00331
-0.792974
-0.471227
-0.0304379
0.573858
1.22122
1.75464
2.1327
2.39563
2.56772
2.68113
2.74071
2.82792
2.83885
2.86228
-0.796236
-0.820995
-0.864378
-0.789512
-0.810325
-0.493478
-0.407249
-0.167494
0.170369
0.631581
1.12529
1.53762
1.83226
2.04233
2.19257
2.30482
2.34501
2.42406
2.43093
2.44097
-0.460917
-0.4826
-0.524704
-0.474025
-0.513303
-0.236828
-0.261332
-0.00454396
0.29329
0.655205
1.03768
1.36636
1.60811
1.78387
1.91434
2.0212
2.03212
2.09479
2.09572
2.10026
-0.213437
-0.226773
-0.256165
-0.214743
-0.275801
-0.077228
-0.188216
0.0958572
0.344785
0.634924
0.951659
1.22703
1.43044
1.57357
1.67158
1.76199
1.75209
1.79541
1.79397
1.79638
-0.00522827
-0.0156817
-0.0340399
0.00436512
-0.0578526
0.0835877
-0.0472369
0.223541
0.369612
0.599954
0.869555
1.099
1.26342
1.37214
1.43427
1.50759
1.49258
1.52298
1.52152
1.52283
0.159355
0.148505
0.134104
0.165469
0.118092
0.233123
0.124534
0.360628
0.40017
0.579691
0.794837
0.973393
1.09847
1.17941
1.2175
1.28083
1.26918
1.28961
1.28983
1.29054
0.260759
0.247221
0.23688
0.262434
0.228357
0.317028
0.239489
0.447369
0.422102
0.570971
0.730691
0.862064
0.95549
1.01898
1.04388
1.09896
1.09163
1.10672
1.10643
1.106
0.311221
0.296923
0.290221
0.306189
0.279048
0.347738
0.286406
0.470243
0.417162
0.556751
0.675489
0.77344
0.844987
0.896854
0.913137
0.957528
0.952675
0.963028
0.961809
0.960273
0.334061
0.32134
0.317004
0.326819
0.303819
0.35445
0.31047
0.456905
0.394349
0.53065
0.622198
0.698865
0.754659
0.796064
0.805888
0.839071
0.836663
0.843453
0.841893
0.839947
0.343169
0.333184
0.331135
0.338194
0.320868
0.359074
0.324444
0.434813
0.374227
0.498222
0.567583
0.628211
0.671136
0.70302
0.709415
0.733544
0.732952
0.737504
0.7363
0.734615
0.341246
0.33389
0.333167
0.338331
0.326181
0.354901
0.329224
0.409658
0.360869
0.46311
0.513093
0.559871
0.592297
0.616538
0.622035
0.639635
0.639777
0.642989
0.642273
0.64105
0.327906
0.322672
0.322416
0.326024
0.3177
0.338903
0.321046
0.380669
0.344035
0.424454
0.460368
0.49612
0.520569
0.538928
0.544131
0.556808
0.557367
0.559474
0.558936
0.558065
0.306392
0.302771
0.302568
0.304999
0.299351
0.314665
0.303009
0.347345
0.320978
0.382465
0.409516
0.437136
0.45577
0.469614
0.474372
0.483176
0.483799
0.485133
0.484645
0.484008
0.279349
0.276988
0.276826
0.278472
0.274837
0.285699
0.278669
0.310864
0.29263
0.337612
0.359136
0.380828
0.395213
0.405605
0.409768
0.415673
0.416319
0.417164
0.416734
0.416274
0.248902
0.247409
0.247252
0.248378
0.24634
0.253931
0.249725
0.272117
0.261548
0.292396
0.309637
0.326471
0.337487
0.345234
0.348716
0.352619
0.353192
0.35372
0.353323
0.352994
0.215735
0.214797
0.214646
0.215401
0.214318
0.219456
0.216602
0.23158
0.227721
0.247733
0.261136
0.273792
0.282093
0.287845
0.29066
0.293239
0.293736
0.294063
0.293725
0.293483
0.17984
0.179258
0.179134
0.179637
0.179161
0.182485
0.180422
0.190369
0.190304
0.203046
0.213131
0.222428
0.228562
0.23274
0.23487
0.236558
0.236895
0.237056
0.236728
0.236538
0.142089
0.141654
0.141519
0.141764
0.141376
0.14353
0.142207
0.149186
0.150349
0.158494
0.16581
0.172442
0.176729
0.179574
0.181015
0.182022
0.182176
0.182218
0.181907
0.181753
0.102789
0.102577
0.102462
0.10254
0.102265
0.103535
0.103271
0.106775
0.108429
0.113482
0.118553
0.122949
0.125724
0.127527
0.128448
0.129041
0.128971
0.129021
0.12878
0.128668
0.0623066
0.0620582
0.0619737
0.0621514
0.061995
0.0625757
0.0625953
0.0643608
0.0653233
0.0681328
0.070952
0.0735312
0.0751301
0.0761545
0.076661
0.0769653
0.0769191
0.0769244
0.0767556
0.0766905
0.0210617
0.0209064
0.0207357
0.0207048
0.0205227
0.0207917
0.0206529
0.0213905
0.021599
0.0226242
0.0236149
0.0245502
0.0250995
0.0254667
0.0256181
0.0257267
0.0256247
0.0257042
0.0254348
0.0253307
11.335
15.9568
17.1077
18.5589
19.7548
20.836
21.8129
22.7287
23.4844
23.9063
16.3742
18.6391
19.3719
20.3077
21.1488
21.8898
22.5288
23.065
23.4173
23.4689
19.1525
20.2812
20.8372
21.4231
21.9613
22.4349
22.829
23.1395
23.31
23.3378
20.7057
21.3753
21.7468
22.1285
22.4599
22.742
22.964
23.1245
23.2155
23.2297
21.6956
22.0538
22.289
22.5172
22.7182
22.8924
23.0286
23.1169
23.1563
23.1741
22.2562
22.494
22.6332
22.7701
22.8863
22.9862
23.0622
23.1175
23.143
23.1587
22.6374
22.7628
22.8352
22.9229
22.9913
23.0604
23.1086
23.1453
23.1585
23.1781
22.8532
22.946
22.9789
23.0472
23.0868
23.1334
23.1576
23.1849
23.1968
23.2135
23.0085
23.0691
23.0918
23.1348
23.1605
23.1866
23.2012
23.2212
23.2305
23.2468
23.1192
23.1542
23.173
23.1923
23.2097
23.2262
23.2396
23.2582
23.2663
23.2827
23.2026
23.2216
23.2345
23.2484
23.2657
23.2808
23.297
23.3152
23.325
23.3423
23.2895
23.3081
23.3268
23.342
23.3589
23.374
23.3871
23.3994
23.406
23.4202
23.4109
23.4235
23.4408
23.4526
23.4618
23.471
23.4779
23.4838
23.4864
23.4958
23.5247
23.5268
23.5354
23.5401
23.5407
23.5434
23.5488
23.556
23.5603
23.5717
23.627
23.6142
23.6071
23.6017
23.5993
23.6005
23.6072
23.6194
23.6341
23.6618
23.7463
23.6925
23.6616
23.6433
23.6359
23.6366
23.6455
23.6653
23.6965
23.7643
)
;

boundaryField
{
    wall-4
    {
        type            zeroGradient;
    }
    pressure-outlet-7
    {
        type            fixedValue;
        value           uniform 0;
    }
    velocity-inlet-6
    {
        type            zeroGradient;
    }
    velocity-inlet-5
    {
        type            zeroGradient;
    }
    frontAndBackPlanes
    {
        type            empty;
    }
}


// ************************************************************************* //
