/*--------------------------------*- C++ -*----------------------------------*\
| =========                 |                                                 |
| \\      /  F ield         | OpenFOAM: The Open Source CFD Toolbox           |
|  \\    /   O peration     | Version:  2412                                  |
|   \\  /    A nd           | Website:  www.openfoam.com                      |
|    \\/     M anipulation  |                                                 |
\*---------------------------------------------------------------------------*/
FoamFile
{
    version     2.0;
    format      ascii;
    arch        "LSB;label=32;scalar=64";
    class       surfaceScalarField;
    location    "2.75";
    object      phi;
}
// * * * * * * * * * * * * * * * * * * * * * * * * * * * * * * * * * * * * * //

dimensions      [0 3 -1 0 0 0 0];

oriented        oriented;

internalField   nonuniform List<scalar> 
4262
(
0.0022879
0.218225
0.00536952
0.825572
0.000698852
1.77181
-0.0029052
3.16877
-0.00630582
5.188
-0.00771803
8.01578
-0.00799053
11.8474
-0.00753876
16.8193
-0.00691477
22.8812
-0.00387052
29.5253
0.00132474
29.5232
0.00351984
22.8796
0.00476613
16.8185
0.00493211
11.847
0.00365149
8.01565
0.00115105
5.1871
-0.00233643
3.16865
-0.00713143
1.77194
-0.0030975
0.824619
0.217415
-0.0183864
0.236611
-0.0146763
0.821862
-0.0177657
1.7749
-0.020424
3.17143
-0.0260417
5.19362
-0.0344796
8.02421
-0.0347887
11.8477
-0.0347554
16.8193
-0.0273729
22.8738
-0.00959535
29.5075
0.00818668
29.5054
0.0193084
22.8685
0.022085
16.8157
0.0233346
11.8457
0.0177154
8.02126
0.0147527
5.19007
0.0140802
3.16933
0.0128895
1.77313
0.0175947
0.819914
0.23501
-0.0459165
0.282528
-0.0560078
0.831953
-0.058132
1.77703
-0.0642383
3.17754
-0.06318
5.19256
-0.0651491
8.02618
-0.0666113
11.8492
-0.0613788
16.814
-0.0480832
22.8605
-0.0149121
29.4744
0.0184649
29.472
0.0359541
22.851
0.0452005
16.8065
0.0476277
11.8433
0.0495269
8.01937
0.053681
5.18591
0.0511748
3.17183
0.0528215
1.77148
0.0449656
0.82777
0.279975
-0.0675042
0.350032
-0.105828
0.870276
-0.103914
1.77511
-0.12203
3.19565
-0.126248
5.19678
-0.112896
8.01283
-0.108691
11.845
-0.0885158
16.7938
-0.0646637
22.8367
-0.018996
29.4287
0.0245335
29.4285
0.0523535
22.8232
0.0783728
16.7805
0.0892011
11.8325
0.10733
8.00124
0.106627
5.18662
0.0935948
3.18486
0.0998036
1.76527
0.0645396
0.863034
0.344515
-0.0687151
0.418747
-0.139524
0.941086
-0.128559
1.76415
-0.144103
3.2112
-0.184635
5.23731
-0.192019
8.02022
-0.18029
11.8332
-0.144541
16.7581
-0.0967896
22.7889
-0.0242194
29.3561
0.0487266
29.3555
0.100803
22.7711
0.141907
16.7393
0.161272
11.8131
0.159847
8.00266
0.126474
5.21999
0.117805
3.19353
0.133573
1.74951
0.0663512
0.930256
0.410866
-0.0707221
0.489469
-0.168455
1.03882
-0.169117
1.76481
-0.169528
3.21161
-0.226362
5.29415
-0.26303
8.05688
-0.254457
11.8247
-0.215843
16.7195
-0.144127
22.7172
-0.030858
29.2429
0.0830727
29.2416
0.161681
22.6925
0.209845
16.6912
0.226402
11.7965
0.199074
8.02999
0.152613
5.26645
0.15928
3.18687
0.163785
1.745
0.0693737
1.02467
0.48024
-0.0910712
0.58054
-0.212207
1.15995
-0.259416
1.81202
-0.261491
3.21368
-0.292419
5.32507
-0.333512
8.09798
-0.326817
11.818
-0.291795
16.6845
-0.199833
22.6252
-0.0364271
29.0794
0.12805
29.0771
0.228864
22.5917
0.275234
16.6448
0.294476
11.7773
0.26601
8.05846
0.243598
5.28886
0.24789
3.18257
0.20497
1.78792
0.0872564
1.14238
0.567496
-0.126014
0.706554
-0.284194
1.31813
-0.402201
1.93002
-0.422889
3.23437
-0.40253
5.30472
-0.425292
8.12074
-0.42299
11.8157
-0.372181
16.6337
-0.271879
22.5249
-0.0440052
28.8516
0.186216
28.8469
0.300944
22.477
0.364637
16.5811
0.38107
11.7609
0.371214
8.06831
0.402423
5.25765
0.390442
3.19456
0.277277
1.90109
0.122578
1.29708
0.690074
-0.156809
0.863363
-0.352583
1.51391
-0.530682
2.10812
-0.597766
3.30146
-0.565137
5.27209
-0.549767
8.10537
-0.522116
11.788
-0.435114
16.5466
-0.306578
22.3964
-0.0508232
28.5958
0.208201
28.5879
0.351887
22.3333
0.454681
16.4783
0.497429
11.7181
0.529467
8.03627
0.5762
5.21092
0.517793
3.25296
0.344586
2.07429
0.153534
1.48813
0.843608
-0.177937
1.0413
-0.406799
1.74277
-0.630603
2.33193
-0.759708
3.43056
-0.766542
5.27892
-0.723724
8.06255
-0.647701
11.712
-0.526963
16.4259
-0.338819
22.2083
-0.0607801
28.3178
0.220056
28.307
0.424805
22.1285
0.570084
16.333
0.667226
11.621
0.72935
7.97415
0.736537
5.20373
0.615389
3.37411
0.397094
2.29259
0.173388
1.71184
1.017
-0.196398
1.2377
-0.459254
2.00563
-0.732067
2.60474
-0.93135
3.62984
-1.00405
5.35162
-0.970339
8.02884
-0.86512
11.6068
-0.724582
16.2854
-0.463329
21.947
-0.0721736
27.9266
0.32487
27.91
0.606606
21.8468
0.772133
16.1675
0.905336
11.4878
0.959816
7.91967
0.900847
5.2627
0.711607
3.56335
0.447328
2.55687
0.190243
1.96892
1.20724
-0.208219
1.44592
-0.501673
2.29908
-0.819128
2.9222
-1.08517
3.89589
-1.22981
5.49625
-1.21724
8.01627
-1.10395
11.4935
-0.936124
16.1175
-0.614455
21.6253
-0.0846039
27.3968
0.454722
27.3707
0.79418
21.5073
0.995548
15.9662
1.14592
11.3374
1.17888
7.88671
1.04985
5.39173
0.794291
3.81891
0.485105
2.86605
0.198992
2.25504
1.40623
-0.209226
1.65514
-0.52255
2.6124
-0.873867
3.27351
-1.19433
4.21636
-1.40282
5.70474
-1.42574
8.03919
-1.31009
11.3779
-1.07149
15.8789
-0.69317
21.247
-0.103127
26.8067
0.499873
26.7677
0.901121
21.1061
1.18669
15.6806
1.34143
11.1827
1.34089
7.88725
1.14805
5.58458
0.840007
4.12695
0.499388
3.20667
0.195569
2.55885
1.6018
-0.196332
1.85147
-0.516134
2.93221
-0.88359
3.64097
-1.24213
4.5749
-1.51695
5.97956
-1.61188
8.13412
-1.52155
11.2875
-1.20624
15.5636
-0.74953
20.7903
-0.128984
26.1862
0.509257
26.1294
1.00317
20.6122
1.36531
15.3184
1.49911
11.0489
1.43985
7.94651
1.18562
5.8388
0.841256
4.47132
0.486189
3.56174
0.181141
2.8639
1.78294
-0.180216
2.03169
-0.495739
3.24773
-0.868077
4.01331
-1.2512
4.95802
-1.57972
6.30809
-1.75282
8.30721
-1.71416
11.2489
-1.38052
15.23
-0.840871
20.2507
-0.154538
25.4999
0.550342
25.4245
1.13997
20.0226
1.51334
14.9451
1.59549
10.9667
1.4576
8.0844
1.1547
6.1417
0.79659
4.82943
0.446792
3.91154
0.152522
3.15817
1.93546
-0.152353
2.18404
-0.449825
3.5452
-0.810347
4.37383
-1.19612
5.34379
-1.55764
6.6696
-1.79542
8.545
-1.80272
11.2562
-1.51933
14.9466
-0.943125
19.6744
-0.19087
24.7476
0.588446
24.6452
1.22785
19.3831
1.56113
14.6118
1.59178
10.9361
1.39456
8.28161
1.06991
6.46635
0.717575
5.18176
0.388242
4.24087
0.115372
3.43104
2.05083
-0.128591
2.31264
-0.401327
3.81794
-0.73136
4.70386
-1.09411
5.70654
-1.45494
7.03044
-1.73169
8.82174
-1.78797
11.3125
-1.56708
14.7257
-1.01434
19.1217
-0.236572
23.9698
0.580994
23.8277
1.20343
18.7607
1.49463
14.3206
1.47526
10.9554
1.23967
8.5172
0.923482
6.78254
0.601392
5.50385
0.310272
4.53199
0.0757299
3.66558
2.12656
-0.0955452
2.40818
-0.326849
4.04924
-0.617756
4.99477
-0.947205
6.03599
-1.28441
7.36764
-1.56921
9.10654
-1.69083
11.4341
-1.54476
14.5796
-1.05939
18.6363
-0.301749
23.2122
0.497394
23.0285
1.05483
18.2033
1.28087
14.0946
1.22861
11.0077
1.01098
8.73483
0.739107
7.05441
0.468889
5.77407
0.229052
4.77183
0.0403975
3.85424
2.16696
-0.0889286
2.49711
-0.291771
4.25208
-0.534957
5.23795
-0.811105
6.31213
-1.10274
7.65928
-1.36904
9.37285
-1.52602
11.5911
-1.4586
14.5122
-1.06216
18.2399
-0.373257
22.5233
0.354569
22.3007
0.820572
17.7373
0.980398
13.9347
0.919487
11.0686
0.742833
8.91149
0.530324
7.26692
0.323191
5.9812
0.14476
4.95026
0.0106886
3.98831
2.17765
-0.0677795
2.56489
-0.23015
4.41445
-0.441017
5.44882
-0.687415
6.55853
-0.949118
7.92098
-1.19261
9.61634
-1.3609
11.7594
-1.34862
14.4999
-1.04886
17.9401
-0.473434
21.9479
0.150119
21.6771
0.527521
17.3599
0.647492
13.8148
0.605006
11.1111
0.484725
9.03177
0.342702
7.40895
0.203988
6.11992
0.0805337
5.07371
-0.0020628
4.07091
2.17559
-0.0878639
2.65275
-0.235876
4.56247
-0.410678
5.62362
-0.611126
6.75898
-0.832027
8.14188
-1.0565
9.84081
-1.23074
11.9336
-1.26438
14.5336
-1.05883
17.7346
-0.604199
21.4932
-0.0990959
21.172
0.213212
17.0476
0.321854
13.7061
0.311334
11.1216
0.244383
9.09872
0.156202
7.49713
0.0709403
6.20518
0.0059008
5.13875
-0.0189808
4.09579
2.15661
-0.0814331
2.73419
-0.213522
4.69455
-0.380792
5.79089
-0.578407
6.95659
-0.795263
8.35874
-1.00781
10.0534
-1.18253
12.1083
-1.24943
14.6005
-1.12732
17.6125
-0.774129
21.14
-0.372021
20.7699
-0.112848
16.7884
1.59463e-05
13.5933
0.0304121
11.0912
0.0207649
9.10837
-0.000183551
7.51808
-0.0235274
6.22852
-0.0393829
5.15461
-0.0351107
4.09152
2.1215
-0.123525
2.85771
-0.263393
4.83442
-0.422676
5.95018
-0.609114
7.14303
-0.819271
8.56889
-1.03369
10.2678
-1.21605
12.2907
-1.30677
14.6912
-1.25094
17.5566
-0.98043
20.8695
-0.654315
20.4438
-0.423367
16.5574
-0.291802
13.4617
-0.215182
11.0146
-0.170295
9.06348
-0.144189
7.49197
-0.125989
6.21032
-0.10742
5.13604
-0.0719105
4.05601
2.04959
-0.16488
3.02259
-0.317821
4.98736
-0.503709
6.13607
-0.72532
7.36464
-0.954108
8.79768
-1.16874
10.4824
-1.34594
12.4679
-1.45006
14.7953
-1.43838
17.545
-1.22707
20.6582
-0.946315
20.1631
-0.727383
16.3385
-0.575207
13.3095
-0.462985
10.9024
-0.371334
8.97183
-0.288871
7.40951
-0.216935
6.13838
-0.157923
5.07703
-0.093881
3.99197
1.9557
-0.271874
3.29446
-0.45725
5.17274
-0.70546
6.38428
-0.958963
7.61815
-1.19734
9.03606
-1.41395
10.699
-1.58753
12.6415
-1.69144
14.8992
-1.69465
17.5482
-1.51094
20.4745
-1.25238
19.9045
-1.03255
16.1187
-0.852857
13.1298
-0.702564
10.7521
-0.576163
8.84543
-0.466042
7.29939
-0.364057
6.0364
-0.268084
4.98105
-0.143232
3.86711
1.81247
-0.386547
3.68101
-0.755312
5.5415
-1.08668
6.71565
-1.34163
7.87309
-1.57887
9.2733
-1.7902
10.9103
-1.94647
12.7977
-2.03078
14.9835
-2.01397
17.5314
-1.82843
20.289
-1.57341
19.6495
-1.34161
15.8869
-1.13746
12.9257
-0.956379
10.571
-0.79425
8.6833
-0.652196
7.15733
-0.523835
5.90804
-0.380123
4.83734
-0.188206
3.6752
1.62427
-0.263121
3.94413
-0.570379
5.84876
-0.828461
6.97373
-1.12077
8.1654
-1.4168
9.56933
-1.68451
11.178
-1.90978
13.023
-2.09134
15.1651
-2.18509
17.6251
-2.12957
20.2334
-1.9551
19.475
-1.73687
15.6686
-1.50237
12.6912
-1.264
10.3326
-1.02138
8.44068
-0.78046
6.91641
-0.554729
5.68231
-0.348609
4.63122
-0.15026
3.47685
1.47401
-0.114065
4.0582
-0.225111
5.95981
-0.437554
7.18618
-0.690811
8.41866
-0.932462
9.81098
-1.14849
11.3941
-1.34213
13.2166
-1.49801
15.321
-1.57152
17.6986
-1.5326
20.1945
-1.38243
19.3248
-1.18302
15.4692
-0.963887
12.4721
-0.74722
10.116
-0.549741
8.2432
-0.37187
6.73854
-0.209574
5.52001
-0.0744452
4.49609
0.000529107
3.40187
1.47454
-0.0849213
4.14312
-0.150726
6.02561
-0.274941
7.31039
-0.443608
8.58732
-0.620182
9.98756
-0.796062
11.5699
-0.964081
13.3847
-1.09419
15.4511
-1.1528
17.7572
-1.12826
20.17
-1.00276
19.1993
-0.835575
15.302
-0.659079
12.2956
-0.490457
9.94735
-0.341878
8.09462
-0.219491
6.61616
-0.115542
5.41606
-0.0221652
4.40272
0.0342136
3.34549
1.50875
-0.0356374
4.17876
-0.158007
6.14798
-0.254719
7.4071
-0.340581
8.67319
-0.445157
10.0921
-0.581173
11.706
-0.717407
13.5209
-0.823626
15.5573
-0.873002
17.8066
-0.858715
20.1557
-0.759537
19.1002
-0.63122
15.1737
-0.501299
12.1656
-0.377295
9.82334
-0.262884
7.98021
-0.158926
6.5122
-0.0663687
5.32351
0.0081006
4.32825
0.0451521
3.30844
1.5539
-0.0131727
4.19193
-0.113015
6.24782
-0.201119
7.49521
-0.273274
8.74534
-0.348519
10.1674
-0.45256
11.81
-0.559524
13.6279
-0.645967
15.6437
-0.688405
17.8491
-0.684185
20.1515
-0.611889
19.0279
-0.51359
15.0754
-0.411199
12.0632
-0.310543
9.72269
-0.211097
7.88076
-0.117662
6.41876
-0.036985
5.24283
0.02816
4.2631
0.0447419
3.29186
1.59864
-0.0140438
4.20597
-0.0968921
6.33067
-0.163762
7.56208
-0.210358
8.79194
-0.289977
10.247
-0.373657
11.8937
-0.458889
13.7131
-0.530791
15.7156
-0.570402
17.8887
-0.574918
20.156
-0.518822
18.9718
-0.434369
14.991
-0.341936
11.9708
-0.252236
9.63299
-0.170003
7.79853
-0.0988517
6.34761
-0.0421054
5.18608
0.00759976
4.2134
0.0273337
3.27213
1.62598
0.00251263
4.20346
-0.0693745
6.40256
-0.126275
7.61898
-0.185483
8.85114
-0.258175
10.3197
-0.328894
11.9644
-0.397901
13.7821
-0.458173
15.7759
-0.494892
17.9254
-0.502043
20.1632
-0.453304
18.923
-0.377457
14.9151
-0.29568
11.889
-0.220249
9.55756
-0.153318
7.7316
-0.0925935
6.28689
-0.0446887
5.13818
-0.0134756
4.18218
-0.00215049
3.2608
1.62383
0.0221043
4.18135
-0.00102833
6.42569
-0.0628696
7.68082
-0.149282
8.93756
-0.227636
10.398
-0.297667
12.0344
-0.358862
13.8433
-0.410668
15.8277
-0.444276
17.959
-0.454025
20.1729
-0.414775
18.8838
-0.350859
14.8512
-0.280289
11.8185
-0.211392
9.48866
-0.147792
7.668
-0.0953084
6.2344
-0.0571696
5.10004
-0.0235097
4.14852
-0.0109916
3.24828
1.61283
-0.000960333
4.18232
-0.035912
6.46064
-0.0692421
7.71415
-0.13037
8.99868
-0.197733
10.4654
-0.265413
12.1021
-0.325916
13.9038
-0.376122
15.8779
-0.410692
17.9936
-0.426352
20.1886
-0.395924
18.8533
-0.336675
14.792
-0.267358
11.7492
-0.203861
9.42516
-0.157128
7.62126
-0.116674
6.19395
-0.0757907
5.05916
-0.0345459
4.10728
-0.0110648
3.2248
1.60177
0.0333413
4.14897
-0.00872274
6.50271
-0.0643413
7.76977
-0.124003
9.05835
-0.18152
10.5229
-0.239732
12.1603
-0.29611
13.9602
-0.347856
15.9297
-0.387279
18.033
-0.411056
20.2123
-0.392027
18.8343
-0.345988
14.7459
-0.292626
11.6958
-0.236341
9.36888
-0.165736
7.55066
-0.0958389
6.12405
-0.0513935
5.01471
-0.031455
4.08734
-0.0150107
3.20836
1.58676
0.00750941
4.14146
-0.0202656
6.53048
-0.0597023
7.8092
-0.10637
9.10501
-0.162196
10.5788
-0.216875
12.215
-0.270984
14.0143
-0.324643
15.9833
-0.370247
18.0786
-0.40388
20.246
-0.398029
18.8285
-0.357435
14.7053
-0.292626
11.631
-0.225658
9.30191
-0.189278
7.51428
-0.164267
6.09904
-0.127002
4.97744
-0.0664811
4.02682
-0.0226159
3.16449
1.56414
0.00269957
4.13876
-0.0351448
6.56833
-0.0598078
7.83387
-0.0975219
9.14273
-0.14313
10.6244
-0.194691
12.2666
-0.250081
14.0697
-0.305213
16.0385
-0.356444
18.1298
-0.399207
20.2887
-0.406923
18.8362
-0.381576
14.68
-0.339569
11.589
-0.28318
9.24552
-0.199172
7.43027
-0.115185
6.01505
-0.0596193
4.92188
-0.0484744
4.01567
-0.0293732
3.14539
1.53477
0.00970329
4.12906
-0.0206755
6.59871
-0.0570757
7.87027
-0.0912409
9.17689
-0.130965
10.6641
-0.178753
12.3144
-0.232891
14.1238
-0.288599
16.0942
-0.344574
18.1858
-0.395155
20.3393
-0.418015
18.859
-0.405033
14.667
-0.35817
11.5421
-0.293006
9.18036
-0.25017
7.38743
-0.214307
5.97919
-0.167623
4.8752
-0.0956111
3.94366
-0.0371284
3.08691
1.49764
0.00706529
4.122
-0.0167165
6.62249
-0.0418391
7.89539
-0.0822977
9.21735
-0.121758
10.7035
-0.166436
12.359
-0.218357
14.1757
-0.273972
16.1498
-0.333538
18.2454
-0.390928
20.3967
-0.428194
18.8963
-0.431593
14.6704
-0.406026
11.5165
-0.36062
9.13495
-0.278223
7.30504
-0.188014
5.88898
-0.118526
4.80571
-0.0901935
3.91533
-0.0517739
3.04849
1.44587
0.000141642
4.12185
-0.0285938
6.65122
-0.0464192
7.91322
-0.0774484
9.24838
-0.11464
10.7407
-0.156985
12.4014
-0.205997
14.2247
-0.261025
16.2048
-0.323111
18.3074
-0.38649
20.4601
-0.43572
18.9455
-0.454141
14.6888
-0.434752
11.4972
-0.382853
9.08305
-0.329823
7.25201
-0.280142
5.8393
-0.2136
4.73917
-0.127965
3.82969
-0.0555481
2.97607
1.39032
0.0165517
4.1053
-0.00170022
6.66948
-0.0327098
7.94423
-0.0723411
9.28801
-0.1082
10.7766
-0.147757
12.4409
-0.194492
14.2715
-0.248981
16.2593
-0.312443
18.3709
-0.380741
20.5284
-0.440605
19.0054
-0.475399
14.7236
-0.477427
11.4992
-0.452892
9.05851
-0.389448
7.18856
-0.294115
5.74397
-0.205464
4.65051
-0.149726
3.77396
-0.079997
2.90634
1.31032
0.00306752
4.10224
-0.0185551
6.6911
-0.0334771
7.95915
-0.0663106
9.32085
-0.100459
10.8107
-0.138803
12.4793
-0.183836
14.3165
-0.237489
16.3129
-0.301194
18.4346
-0.374167
20.6014
-0.443571
19.0748
-0.489464
14.7695
-0.5077
11.5174
-0.486945
9.03776
-0.44347
7.14509
-0.396508
5.69701
-0.317195
4.5712
-0.187988
3.64475
-0.0808587
2.79922
1.22946
0.0075427
4.09469
-0.0127684
6.71141
-0.0316552
7.97803
-0.0619967
9.35119
-0.092976
10.8417
-0.129231
12.5155
-0.172882
14.3602
-0.225565
16.3656
-0.289024
18.4981
-0.365744
20.6781
-0.442869
19.1519
-0.499517
14.8262
-0.534885
11.5528
-0.549314
9.05219
-0.526063
7.12184
-0.456027
5.62697
-0.360051
4.47522
-0.256215
3.54091
-0.120041
2.66304
1.10942
0.00881229
4.08588
-0.00951747
6.72974
-0.0300307
7.99855
-0.0592525
9.38041
-0.0865537
10.869
-0.120456
12.5494
-0.162329
14.402
-0.213563
16.4169
-0.276195
18.5607
-0.35563
20.7575
-0.439996
19.2363
-0.508789
14.895
-0.555735
11.5997
-0.570545
9.067
-0.562123
7.11342
-0.54069
5.60554
-0.478054
4.41259
-0.342886
3.40575
-0.168119
2.48827
0.941304
0.000416798
4.08546
-0.0142915
6.74445
-0.0263092
8.01056
-0.0540467
9.40815
-0.0788358
10.8938
-0.112187
12.5828
-0.152533
14.4424
-0.202649
16.467
-0.264918
18.623
-0.346526
20.8391
-0.436701
19.3265
-0.514998
14.9732
-0.577103
11.6618
-0.621101
9.11099
-0.643753
7.13607
-0.629026
5.59081
-0.587522
4.37108
-0.486069
3.30429
-0.200478
2.20268
0.740826
0.00512694
4.08034
-0.0104863
6.76006
-0.0280365
8.02811
-0.0512141
9.43132
-0.076191
10.9188
-0.11021
12.6168
-0.151665
14.4838
-0.204353
16.5197
-0.27151
18.6901
-0.362614
20.9302
-0.468361
19.4322
-0.569499
15.0744
-0.659699
11.752
-0.722493
9.17379
-0.749627
7.1632
-0.758091
5.59928
-0.736296
4.34929
-0.731147
3.29914
-0.564824
2.03636
1.04607
-0.870069
0.00333263
4.077
-0.00902662
6.77242
-0.0281499
8.04724
-0.0504411
9.45362
-0.0756594
10.944
-0.105083
12.6462
-0.145813
14.5246
-0.198714
16.5726
-0.268007
18.7594
-0.364393
21.0266
-0.480785
19.5486
-0.598273
15.1919
-0.712032
11.8658
-0.818664
9.28042
-0.919944
7.26448
-1.01984
5.69917
-1.11826
4.44771
-1.05601
3.2369
-0.923363
1.90372
1.35247
-1.22976
-0.00544627
4.08245
-0.0153029
6.78228
-0.0255089
8.05744
-0.0477016
9.47581
-0.0722062
10.9685
-0.100011
12.674
-0.140233
14.5648
-0.193208
16.6255
-0.264187
18.8304
-0.365393
21.1278
-0.492293
19.6755
-0.629661
15.3292
-0.774872
12.011
-0.921605
9.42715
-1.05805
7.40093
-1.17227
5.81339
-1.21673
4.49218
-1.11017
3.13034
-1.27979
2.07333
1.67524
-1.60256
-0.000160342
4.08261
-0.00733459
6.78945
-0.0228041
8.07291
-0.0402842
9.49329
-0.0636053
10.9918
-0.0939088
12.7043
-0.133379
14.6043
-0.186313
16.6785
-0.258678
18.9028
-0.364436
21.2336
-0.50031
19.8114
-0.652939
15.4819
-0.821288
12.1794
-1.00652
9.61239
-1.20606
7.60046
-1.3781
5.98543
-1.42432
4.5384
-1.42434
3.13036
-1.66524
2.31423
1.91716
-1.90716
0.00253676
4.08007
-0.0136457
6.80563
-0.0202511
8.07952
-0.0391707
9.51221
-0.0602216
11.0129
-0.0887243
12.7328
-0.127024
14.6426
-0.179603
16.7311
-0.252623
18.9758
-0.362096
21.343
-0.50606
19.9553
-0.674998
15.6508
-0.870434
12.3748
-1.08382
9.82577
-1.28605
7.8027
-1.4177
6.11708
-1.45995
4.58065
-1.58361
3.25402
-1.84845
2.57906
2.12625
-2.05754
0.0105906
4.06948
-0.00557596
6.8218
-0.0231855
8.09713
-0.0427772
9.5318
-0.0618713
11.032
-0.0871868
12.7582
-0.125049
14.6804
-0.177141
16.7832
-0.251211
19.0499
-0.364679
21.4565
-0.515541
20.1062
-0.693896
15.8292
-0.901898
12.5828
-1.12115
10.045
-1.33457
8.01612
-1.55885
6.34136
-1.73031
4.75211
-1.94327
3.46698
-2.18191
2.81769
2.26822
-2.32387
-0.000582494
4.07007
-0.00810467
6.82932
-0.0176544
8.10668
-0.0372359
9.55138
-0.057929
11.0527
-0.0877889
12.788
-0.126643
14.7193
-0.179201
16.8357
-0.254621
19.1253
-0.371861
21.5738
-0.528673
20.263
-0.713156
16.0136
-0.931506
12.8011
-1.17701
10.2905
-1.41521
8.25432
-1.56681
6.49296
-1.69794
4.88323
-1.97091
3.73996
-2.20711
3.05389
2.47076
-2.40965
0.00167576
4.06839
-0.0084464
6.83944
-0.0177339
8.11597
-0.0363936
9.57004
-0.0556376
11.0719
-0.088113
12.8205
-0.127028
14.7582
-0.180276
16.889
-0.256724
19.2017
-0.377149
21.6942
-0.538945
20.4248
-0.724188
16.1989
-0.939077
13.016
-1.18891
10.5404
-1.44579
8.5112
-1.65902
6.70619
-1.90711
5.13132
-2.33501
4.16785
-2.74542
3.46431
2.76501
-3.03967
0.0127789
4.05561
-0.0049626
6.85719
-0.0215919
8.1326
-0.0445156
9.59296
-0.0625174
11.0899
-0.09045
12.8484
-0.128421
14.7962
-0.181794
16.9423
-0.258573
19.2785
-0.3802
21.8158
-0.546183
20.5908
-0.734513
16.3872
-0.940468
13.222
-1.19262
10.7925
-1.48872
8.80729
-1.74576
6.96323
-1.96117
5.34673
-2.40154
4.60823
-2.91815
3.98091
2.97937
-3.13251
0.00666954
4.04894
-0.00564026
6.86949
-0.019778
8.14673
-0.0417369
9.61492
-0.0637567
11.1119
-0.0913065
12.876
-0.129231
14.8341
-0.182006
16.9951
-0.258143
19.3546
-0.379092
21.9368
-0.54553
20.7572
-0.732915
16.5746
-0.938753
13.4278
-1.158
11.0118
-1.41688
9.06617
-1.70704
7.25339
-2.18165
5.82134
-2.58078
5.00736
-3.12468
4.52481
3.78762
-3.93292
0.00118042
4.04776
-0.00788474
6.87856
-0.0179345
8.15678
-0.0374002
9.63439
-0.0606939
11.1352
-0.0909144
12.9062
-0.12837
14.8715
-0.180204
17.0469
-0.253017
19.4274
-0.366724
22.0505
-0.518756
20.9093
-0.689362
16.7452
-0.880736
13.6192
-1.07987
11.2109
-1.27288
9.25919
-1.50122
7.48172
-1.87769
6.19781
-2.09786
5.22754
-1.54009
3.96703
2.24753
0.010761
4.037
-0.00345112
6.89277
-0.0189881
8.17232
-0.040881
9.65628
-0.0623811
11.1567
-0.0918155
12.9356
-0.129588
14.9093
-0.183676
17.101
-0.258055
19.5018
-0.373783
22.1662
-0.523749
21.0592
-0.689444
16.9109
-0.868252
13.798
-1.04446
11.3871
-1.15985
9.37458
-1.2264
7.54827
-1.17035
6.14176
-1.05471
5.1119
-0.734647
3.64697
1.51289
0.00899175
4.02801
-0.00506955
6.90683
-0.0169808
8.18423
-0.0392685
9.67857
-0.062474
11.1799
-0.0908376
12.964
-0.129321
14.9478
-0.18412
17.1558
-0.257705
19.5754
-0.372314
22.2808
-0.51823
21.2052
-0.67103
17.0637
-0.825397
13.9524
-0.949665
11.5114
-0.98266
9.40758
-0.968894
7.53451
-0.988976
6.16184
-0.981914
5.10483
-0.825078
3.49014
0.687808
0.00686877
4.02114
-0.0041243
6.91783
-0.0131657
8.19327
-0.0336437
9.69905
-0.0581107
11.2044
-0.086176
12.9921
-0.126975
14.9886
-0.18016
17.209
-0.250872
19.6461
-0.361193
22.3911
-0.497465
21.3414
-0.626886
17.1931
-0.728128
14.0536
-0.806564
11.5898
-0.821185
9.4222
-0.837682
7.551
-0.885089
6.20925
-0.830897
5.05064
-0.407451
3.06669
0.280357
0.00809277
4.01305
-0.000938759
6.92686
-0.0107623
8.2031
-0.0307104
9.71899
-0.0542666
11.228
-0.0796265
13.0174
-0.122096
15.0311
-0.170333
17.2573
-0.237844
19.7136
-0.339365
22.4926
-0.456917
21.459
-0.552139
17.2884
-0.606661
14.1081
-0.667224
11.6504
-0.700222
9.4552
-0.72824
7.57902
-0.686229
6.16724
-0.498534
4.86295
-0.161502
2.72966
0.118855
0.0131845
3.99986
0.00450489
6.93554
-0.00714671
8.21475
-0.0261059
9.73795
-0.0472741
11.2491
-0.0695026
13.0396
-0.11274
15.0743
-0.152512
17.297
-0.216359
19.7775
-0.304177
22.5805
-0.393174
21.548
-0.454443
17.3496
-0.491741
14.1454
-0.506209
11.6648
-0.517528
9.46651
-0.50975
7.57124
-0.404429
6.06192
-0.20934
4.66786
-0.0548928
2.57521
0.063962
0.0128435
3.98702
0.00798264
6.9404
0.000928325
8.2218
-0.0182637
9.75715
-0.0335437
11.2644
-0.0561587
13.0623
-0.0967407
15.1149
-0.127364
17.3276
-0.186891
19.837
-0.257477
22.651
-0.318119
21.6086
-0.349999
17.3815
-0.362166
14.1576
-0.317011
11.6197
-0.26738
9.41688
-0.178284
7.48215
-0.0854181
5.96905
0.0532835
4.52916
0.117007
2.51149
0.180969
0.022641
3.96438
0.0193295
6.94371
0.0129868
8.22814
-0.00596555
9.7761
-0.0115673
11.27
-0.0391241
13.0898
-0.0704445
15.1462
-0.0952333
17.3524
-0.147325
19.8891
-0.198274
22.702
-0.232114
21.6425
-0.237481
17.3869
-0.213029
14.1332
-0.128269
11.5349
-0.0309669
9.31958
0.100433
7.35075
0.262808
5.80668
0.336931
4.45503
0.247702
2.60072
0.428672
0.0246485
3.93973
0.0256226
6.94274
0.0249967
8.22877
0.00908105
9.79201
0.0107931
11.2683
-0.0196518
13.1203
-0.0302076
15.1568
-0.0574661
17.3797
-0.0977377
19.9294
-0.129995
22.7343
-0.139846
21.6523
-0.113673
17.3607
-0.0446719
14.0642
0.0653044
11.4249
0.167214
9.21767
0.261515
7.25645
0.365265
5.70293
0.447507
4.37279
0.322826
2.7254
0.751498
0.0375717
3.90216
0.0402727
6.94004
0.042256
8.22679
0.0355827
9.79869
0.03427
11.2696
0.0115063
13.143
0.0184543
15.1498
-0.0144669
17.4126
-0.0360268
19.9509
-0.0517385
22.75
-0.0413406
21.6419
0.00706119
17.3123
0.0958818
13.9753
0.197729
11.3231
0.289751
9.12565
0.346101
7.2001
0.392445
5.65658
0.427259
4.33798
0.310581
2.84207
1.06208
0.0408239
3.86133
0.0533468
6.92751
0.0656971
8.21444
0.0666657
9.79772
0.069734
11.2665
0.0679805
13.1448
0.0662572
15.1515
0.0542285
17.4246
0.0412795
19.9639
0.0374458
22.7538
0.0634648
21.6159
0.125074
17.2507
0.204013
13.8964
0.300312
11.2268
0.385344
9.04062
0.41648
7.16896
0.424564
5.6485
0.40079
4.36175
0.261267
2.9816
1.32335
0.0600422
3.80129
0.0782027
6.90935
0.0941047
8.19854
0.104124
9.7877
0.11829
11.2524
0.128768
13.1343
0.132982
15.1473
0.140011
17.4176
0.137311
19.9666
0.145597
22.7455
0.170196
21.5913
0.226522
17.1944
0.304972
13.8179
0.389928
11.1418
0.461065
8.96948
0.470503
7.15952
0.451547
5.66745
0.383323
4.42998
0.221105
3.14382
1.54445
0.0680587
3.73323
0.104161
6.87325
0.134584
8.16811
0.155258
9.76702
0.180078
11.2276
0.198639
13.1157
0.219607
15.1264
0.237835
17.3994
0.247818
19.9566
0.260929
22.7324
0.28566
21.5666
0.333527
17.1465
0.401751
13.7497
0.463752
11.0798
0.516892
8.91634
0.500909
7.1755
0.452752
5.71561
0.358099
4.52463
0.191124
3.31079
1.73557
0.0974994
3.63573
0.142904
6.82785
0.181889
8.12913
0.216893
9.73202
0.25854
11.1859
0.291932
13.0823
0.334634
15.0837
0.358632
17.3754
0.381194
19.934
0.3965
22.7171
0.41445
21.5486
0.437915
17.123
0.468499
13.7191
0.49293
11.0554
0.521915
8.88735
0.489979
7.20744
0.425327
5.78026
0.322179
4.62778
0.167096
3.46587
1.90267
0.113321
3.52241
0.184782
6.75638
0.248328
8.06558
0.303066
9.67728
0.361468
11.1275
0.407934
13.0359
0.469414
15.0222
0.505446
17.3394
0.540929
19.8986
0.553834
22.7042
0.549195
21.5532
0.537428
17.1348
0.52617
13.7304
0.51325
11.0683
0.504909
8.89569
0.464662
7.24769
0.389257
5.85567
0.282867
4.73417
0.12989
3.61885
2.03256
0.154634
3.36778
0.2467
6.66432
0.331353
7.98093
0.408887
9.59975
0.491414
11.045
0.565675
12.9616
0.646436
14.9414
0.700332
17.2855
0.744731
19.8542
0.747885
22.701
0.713337
21.5878
0.662598
17.1855
0.608182
13.7848
0.547636
11.1289
0.475585
8.96775
0.412132
7.31114
0.32734
5.94046
0.231054
4.83045
0.0921136
3.75779
2.12467
0.198176
3.1696
0.333389
6.52911
0.449025
7.86529
0.558118
9.49065
0.665586
10.9375
0.767738
12.8595
0.868429
14.8407
0.943505
17.2104
0.997792
19.7999
0.99361
22.7052
0.934837
21.6466
0.845246
17.2751
0.747766
13.8823
0.642179
11.2345
0.5113
9.09862
0.420768
7.40167
0.313456
6.04777
0.213871
4.93004
0.0791201
3.89254
2.20379
0.271683
2.89792
0.456069
6.34472
0.612286
7.70908
0.762425
9.34052
0.900859
10.7991
1.04285
12.7175
1.1715
14.7121
1.27004
17.1118
1.33521
19.7347
1.32793
22.7125
1.24297
21.7315
1.10902
17.4091
0.9586
14.0327
0.799673
11.3934
0.610421
9.28788
0.463982
7.54811
0.326351
6.1854
0.207208
5.04918
0.0811228
4.01863
2.28492
0.385514
2.51241
0.654142
6.07609
0.855589
7.50763
1.0501
9.14601
1.22146
10.6277
1.40189
12.5371
1.56362
14.5503
1.69574
16.9797
1.77913
19.6513
1.77565
22.716
1.66991
21.8373
1.49887
17.5801
1.29816
14.2334
1.09172
11.5998
0.867698
9.51189
0.666426
7.74938
0.480193
6.37164
0.309776
5.2196
0.141708
4.1867
2.42662
0.541739
1.97067
0.937157
5.68067
1.21404
7.23074
1.4627
8.89735
1.67014
10.4203
1.89777
12.3094
2.10463
14.3435
2.27617
16.8082
2.38762
19.5399
2.4065
22.6971
2.29674
21.947
2.10264
17.7742
1.86125
14.4748
1.60199
11.8591
1.32574
9.78814
1.03887
8.03625
0.761705
6.6488
0.50058
5.48072
0.251777
4.4355
2.6784
0.473279
1.49739
0.869824
5.28413
1.14801
6.95255
1.40938
8.63599
1.63391
10.1957
1.84101
12.1023
1.98551
14.199
2.08278
16.7109
2.0981
19.5245
2.01109
22.7841
1.82483
22.1333
1.60568
17.9934
1.37542
14.7051
1.15185
12.0827
0.936602
10.0034
0.731521
8.24134
0.540634
6.83969
0.368105
5.65325
0.18587
4.61773
2.86427
0.097944
1.39944
0.272717
5.10936
0.50901
6.71626
0.779301
8.36569
1.01312
9.96193
1.20882
11.9066
1.3854
14.0224
1.53611
16.5602
1.60793
19.4527
1.56963
22.8224
1.4267
22.2762
1.2415
18.1786
1.03837
14.9082
0.841335
12.2797
0.661358
10.1834
0.484074
8.41862
0.330777
6.99299
0.191879
5.79215
0.079463
4.73015
2.94373
-0.0959584
1.4954
0.00435435
5.00904
0.158369
6.56225
0.364714
8.15935
0.548741
9.7779
0.752181
11.7032
0.951007
13.8236
1.11017
16.4011
1.19946
19.3634
1.19854
22.8233
1.09882
22.3759
0.950531
18.3269
0.782311
15.0764
0.616378
12.4456
0.470342
10.3294
0.332834
8.55613
0.214962
7.11086
0.113336
5.89377
0.0385574
4.80493
2.98229
-0.182701
1.6781
-0.0919949
4.91834
0.0118286
6.45842
0.137705
8.03347
0.289267
9.62634
0.469835
11.5226
0.646289
13.6471
0.793118
16.2542
0.882816
19.2737
0.902082
22.8041
0.837875
22.4401
0.724893
18.4398
0.591268
15.21
0.457703
12.5792
0.344755
10.4423
0.242823
8.65806
0.158538
7.19514
0.0874402
5.96487
0.0223183
4.87005
3.00461
-0.230196
1.9083
-0.168648
4.85679
-0.0691057
6.35888
0.0629912
7.90138
0.188689
9.50064
0.337132
11.3742
0.455855
13.5284
0.565417
16.1447
0.648094
19.191
0.680963
22.7712
0.639283
22.4818
0.553317
18.5258
0.451333
15.312
0.350556
12.68
0.266538
10.5264
0.186999
8.7376
0.113611
7.26853
0.0468084
6.03167
-0.00792951
4.92479
2.99668
-0.183272
2.09157
-0.171601
4.84512
-0.0995224
6.2868
0.0193196
7.78253
0.126685
9.39328
0.242529
11.2583
0.33018
13.4407
0.410049
16.0648
0.481089
19.12
0.515038
22.7372
0.487926
22.5089
0.425375
18.5884
0.351071
15.3863
0.274229
12.7568
0.20427
10.5963
0.135692
8.80617
0.0687991
7.33542
0.00713845
6.09333
-0.0308175
4.96274
2.96586
-0.136279
2.22785
-0.149004
4.85784
-0.109625
6.24742
-0.0259465
7.69886
0.0607908
9.30654
0.154992
11.1641
0.222107
13.3736
0.305521
15.9814
0.368348
19.0572
0.395722
22.7099
0.376955
22.5277
0.330886
18.6344
0.273274
15.4439
0.209136
12.821
0.146481
10.659
0.0869923
8.86566
0.0335582
7.38886
-0.0129872
6.13988
-0.0365868
4.98634
2.92928
-0.0974653
2.32532
-0.115109
4.87549
-0.0988402
6.23115
-0.0522495
7.65227
0.00312249
9.25117
0.078013
11.0892
0.150781
13.3009
0.229455
15.9027
0.28562
19.001
0.307988
22.6875
0.293344
22.5423
0.254784
18.673
0.204961
15.4938
0.150267
12.8757
0.0972364
10.712
0.0496044
8.9133
0.0109728
7.42749
-0.0226542
6.17351
-0.0368467
5.00054
2.89243
-0.0737867
2.3991
-0.0906805
4.89238
-0.0834403
6.22391
-0.0590183
7.62784
-0.0240345
9.21618
0.0311262
11.0341
0.0972048
13.2348
0.166251
15.8337
0.21233
18.9549
0.234463
22.6654
0.224193
22.5526
0.190918
18.7063
0.148306
15.5364
0.104675
12.9193
0.0640777
10.7526
0.0282579