/*--------------------------------*- C++ -*----------------------------------*\
| =========                 |                                                 |
| \\      /  F ield         | OpenFOAM: The Open Source CFD Toolbox           |
|  \\    /   O peration     | Version:  2412                                  |
|   \\  /    A nd           | Website:  www.openfoam.com                      |
|    \\/     M anipulation  |                                                 |
\*---------------------------------------------------------------------------*/
FoamFile
{
    version     2.0;
    format      ascii;
    arch        "LSB;label=32;scalar=64";
    class       volVectorField;
    location    "2.75";
    object      U;
}
// * * * * * * * * * * * * * * * * * * * * * * * * * * * * * * * * * * * * * //

dimensions      [0 1 -1 0 0 0 0];

internalField   nonuniform List<vector> 
2200
(
(0.362198 0.00319815 0)
(1.18268 -0.00517194 0)
(2.11826 -0.000519778 0)
(3.16798 0.000511113 0)
(4.32579 0.0021071 0)
(5.5725 0.00298982 0)
(6.86397 0.0031859 0)
(8.11922 0.00292457 0)
(9.20538 0.00257135 0)
(9.90078 0.00217014 0)
(9.90043 0.000562555 0)
(9.20611 -0.000907969 0)
(8.11991 -0.00141258 0)
(6.86381 -0.00190124 0)
(5.57236 -0.00187296 0)
(4.32551 -0.00122909 0)
(3.16783 -8.58415e-05 0)
(2.11819 0.00132496 0)
(1.18218 0.00587015 0)
(0.361346 -0.00318721 0)
(0.373969 0.0107907 0)
(1.16716 0.007298 0)
(2.1154 0.00655813 0)
(3.16451 0.00734361 0)
(4.32347 0.00979255 0)
(5.56854 0.0132025 0)
(6.86259 0.0137412 0)
(8.1195 0.0143411 0)
(9.20425 0.012324 0)
(9.89636 0.00713674 0)
(9.89585 0.000969616 0)
(9.20286 -0.00562356 0)
(8.11795 -0.00861299 0)
(6.86193 -0.00911355 0)
(5.56823 -0.00855215 0)
(4.32272 -0.00688421 0)
(3.16379 -0.00527017 0)
(2.11301 -0.00562318 0)
(1.16457 -0.0064479 0)
(0.372121 -0.0107136 0)
(0.427066 0.0167365 0)
(1.17362 0.0306007 0)
(2.12592 0.0204965 0)
(3.1628 0.0279125 0)
(4.32165 0.0252029 0)
(5.56744 0.0254546 0)
(6.85107 0.0274793 0)
(8.10667 0.0253635 0)
(9.19331 0.0228025 0)
(9.88612 0.0145424 0)
(9.88715 -0.00140833 0)
(9.19301 -0.0118489 0)
(8.10665 -0.0160866 0)
(6.84971 -0.0190423 0)
(5.56472 -0.0191195 0)
(4.31874 -0.0196502 0)
(3.15944 -0.0244259 0)
(2.12194 -0.018204 0)
(1.16921 -0.0298191 0)
(0.42287 -0.0164715 0)
(0.536382 0.0168293 0)
(1.20582 0.0515408 0)
(2.1299 0.0479207 0)
(3.18584 0.0481242 0)
(4.32754 0.0565701 0)
(5.57362 0.0456102 0)
(6.85763 0.0442952 0)
(8.10281 0.0389977 0)
(9.18104 0.031302 0)
(9.86671 0.0174113 0)
(9.86798 -0.0010965 0)
(9.17865 -0.0152326 0)
(8.09935 -0.025675 0)
(6.85317 -0.0328629 0)
(5.5672 -0.0369821 0)
(4.3209 -0.0492061 0)
(3.17886 -0.0418114 0)
(2.12068 -0.0443081 0)
(1.19783 -0.0495524 0)
(0.531416 -0.015992 0)
(0.662438 0.010981 0)
(1.28346 0.0604016 0)
(2.11774 0.0677958 0)
(3.20938 0.0558243 0)
(4.34995 0.0753621 0)
(5.57555 0.0819616 0)
(6.85704 0.0742669 0)
(8.09683 0.0644025 0)
(9.17342 0.0481536 0)
(9.84942 0.0233536 0)
(9.8495 -0.00320397 0)
(9.16701 -0.0295522 0)
(8.08962 -0.0471399 0)
(6.84754 -0.0598018 0)
(5.56537 -0.0703867 0)
(4.33835 -0.0652416 0)
(3.19367 -0.0494139 0)
(2.10248 -0.0640337 0)
(1.2693 -0.0584199 0)
(0.647233 -0.0106638 0)
(0.786542 0.0100305 0)
(1.42826 0.0642633 0)
(2.11173 0.0940037 0)
(3.21756 0.0685264 0)
(4.40596 0.0864921 0)
(5.61368 0.114901 0)
(6.87283 0.107011 0)
(8.09686 0.0931445 0)
(9.15628 0.0710778 0)
(9.82125 0.0350774 0)
(9.82094 -0.0097901 0)
(9.1475 -0.0471899 0)
(8.08674 -0.0727288 0)
(6.85854 -0.0899752 0)
(5.59713 -0.100047 0)
(4.38677 -0.0766386 0)
(3.19652 -0.0624252 0)
(2.09078 -0.0907564 0)
(1.41113 -0.0634171 0)
(0.774578 -0.00963266 0)
(0.92185 0.0184301 0)
(1.5828 0.0733062 0)
(2.1348 0.131729 0)
(3.21901 0.11634 0)
(4.44752 0.118474 0)
(5.64927 0.136256 0)
(6.89543 0.144628 0)
(8.10937 0.128381 0)
(9.15729 0.0966358 0)
(9.80192 0.0470899 0)
(9.80069 -0.0171952 0)
(9.14269 -0.0694194 0)
(8.09141 -0.103485 0)
(6.87462 -0.124887 0)
(5.6248 -0.121669 0)
(4.41926 -0.108829 0)
(3.19037 -0.109568 0)
(2.10808 -0.128036 0)
(1.5581 -0.0702232 0)
(0.901135 -0.0175956 0)
(1.10606 0.030383 0)
(1.7784 0.0894382 0)
(2.22911 0.180791 0)
(3.22175 0.206283 0)
(4.44195 0.181157 0)
(5.65289 0.165319 0)
(6.88059 0.182978 0)
(8.08924 0.170119 0)
(9.13688 0.135731 0)
(9.76361 0.0644001 0)
(9.76203 -0.0277356 0)
(9.11712 -0.103519 0)
(8.06567 -0.141876 0)
(6.85204 -0.160883 0)
(5.62032 -0.14918 0)
(4.40762 -0.169109 0)
(3.1848 -0.199558 0)
(2.19503 -0.17642 0)
(1.75005 -0.087076 0)
(1.07974 -0.0296424 0)
(1.35236 0.0402846 0)
(2.03169 0.103613 0)
(2.41187 0.224436 0)
(3.25698 0.278714 0)
(4.40642 0.278892 0)
(5.64604 0.224575 0)
(6.84486 0.218811 0)
(8.01627 0.200829 0)
(9.0805 0.15838 0)
(9.69385 0.0813663 0)
(9.69146 -0.0386293 0)
(9.05659 -0.120761 0)
(7.98699 -0.169054 0)
(6.80807 -0.192447 0)
(5.60429 -0.205301 0)
(4.36011 -0.265959 0)
(3.21172 -0.271381 0)
(2.37413 -0.21965 0)
(1.99782 -0.100932 0)
(1.32112 -0.040099 0)
(1.64419 0.0467169 0)
(2.33916 0.114804 0)
(2.65468 0.255987 0)
(3.35389 0.333889 0)
(4.39084 0.368778 0)
(5.62494 0.332199 0)
(6.81119 0.27642 0)
(7.93154 0.238599 0)
(8.96397 0.173216 0)
(9.55238 0.0931205 0)
(9.54962 -0.0422133 0)
(8.93367 -0.126636 0)
(7.89261 -0.200603 0)
(6.76533 -0.246899 0)
(5.57029 -0.311154 0)
(4.33259 -0.355324 0)
(3.29983 -0.325612 0)
(2.60887 -0.249975 0)
(2.29657 -0.111857 0)
(1.60537 -0.0454277 0)
(1.96955 0.0507647 0)
(2.69406 0.127078 0)
(2.9532 0.286181 0)
(3.51922 0.389921 0)
(4.4233 0.458395 0)
(5.59956 0.452641 0)
(6.76262 0.394011 0)
(7.87659 0.319914 0)
(8.83454 0.237689 0)
(9.36696 0.117844 0)
(9.36219 -0.0574288 0)
(8.79727 -0.18447 0)
(7.82409 -0.274469 0)
(6.70286 -0.359987 0)
(5.52864 -0.427171 0)
(4.35067 -0.44261 0)
(3.45408 -0.377677 0)
(2.89818 -0.278925 0)
(2.64345 -0.123344 0)
(1.92135 -0.0483806 0)
(2.3204 0.0519231 0)
(3.09445 0.13647 0)
(3.3091 0.311647 0)
(3.75259 0.436149 0)
(4.51171 0.541817 0)
(5.57793 0.556798 0)
(6.7043 0.513265 0)
(7.83755 0.41929 0)
(8.75636 0.326098 0)
(9.24713 0.152898 0)
(9.24044 -0.0833769 0)
(8.71492 -0.263026 0)
(7.773 -0.36534 0)
(6.6245 -0.474239 0)
(5.49238 -0.529277 0)
(4.42939 -0.522125 0)
(3.6788 -0.422993 0)
(3.24411 -0.301475 0)
(3.03536 -0.131777 0)
(2.26043 -0.0485312 0)
(2.68639 0.0482737 0)
(3.5364 0.142236 0)
(3.71203 0.322646 0)
(4.04772 0.467451 0)
(4.65826 0.602149 0)
(5.57187 0.643221 0)
(6.63685 0.60711 0)
(7.7585 0.502337 0)
(8.66979 0.375725 0)
(9.13751 0.183728 0)
(9.12583 -0.100546 0)
(8.61756 -0.29793 0)
(7.67087 -0.439835 0)
(6.53302 -0.5617 0)
(5.47355 -0.610786 0)
(4.56073 -0.577433 0)
(3.96139 -0.448683 0)
(3.63618 -0.310691 0)
(3.46237 -0.133645 0)
(2.60329 -0.0446817 0)
(3.03797 0.0423714 0)
(3.99299 0.136503 0)
(4.15011 0.322399 0)
(4.39189 0.471987 0)
(4.86055 0.632597 0)
(5.60815 0.713357 0)
(6.56543 0.699028 0)
(7.6046 0.592542 0)
(8.48861 0.401804 0)
(8.92504 0.214142 0)
(8.90784 -0.109881 0)
(8.42321 -0.308089 0)
(7.49328 -0.516008 0)
(6.43885 -0.639151 0)
(5.48852 -0.671586 0)
(4.74784 -0.601924 0)
(4.29153 -0.45162 0)
(4.0585 -0.304085 0)
(3.90714 -0.128094 0)
(2.9332 -0.0385522 0)
(3.36973 0.0337505 0)
(4.46173 0.132573 0)
(4.59638 0.307974 0)
(4.76612 0.469212 0)
(5.11381 0.638779 0)
(5.70004 0.75733 0)
(6.52089 0.777887 0)
(7.4206 0.691247 0)
(8.248 0.447969 0)
(8.6544 0.246149 0)
(8.63176 -0.120597 0)
(8.16588 -0.33708 0)
(7.28732 -0.598078 0)
(6.3663 -0.696329 0)
(5.54757 -0.697523 0)
(4.97878 -0.590264 0)
(4.64532 -0.430745 0)
(4.48464 -0.282183 0)
(4.33844 -0.115777 0)
(3.22595 -0.0262324 0)
(3.65261 0.0275494 0)
(4.89615 0.11385 0)
(5.04202 0.284753 0)
(5.15626 0.440953 0)
(5.4067 0.61447 0)
(5.8443 0.758197 0)
(6.51479 0.81011 0)
(7.26529 0.750802 0)
(8.01493 0.508584 0)
(8.40255 0.276124 0)
(8.3729 -0.121223 0)
(7.90707 -0.373776 0)
(7.11259 -0.638817 0)
(6.33474 -0.710375 0)
(5.6697 -0.677884 0)
(5.24633 -0.550814 0)
(5.00477 -0.392986 0)
(4.89551 -0.248291 0)
(4.74981 -0.0971684 0)
(3.45661 -0.012752 0)
(3.90657 0.0173012 0)
(5.32745 0.105136 0)
(5.46525 0.251582 0)
(5.54106 0.399185 0)
(5.71807 0.565757 0)
(6.03208 0.710564 0)
(6.52704 0.804845 0)
(7.1531 0.750887 0)
(7.79702 0.554507 0)
(8.16469 0.295006 0)
(8.12293 -0.103489 0)
(7.66252 -0.387602 0)
(6.97047 -0.610891 0)
(6.32982 -0.688543 0)
(5.826 -0.604696 0)
(5.52073 -0.479764 0)
(5.34905 -0.334466 0)
(5.27459 -0.203048 0)
(5.12235 -0.0726303 0)
(3.62348 -0.00282565 0)
(4.08896 0.0129043 0)
(5.67873 0.0789957 0)
(5.84135 0.208706 0)
(5.8911 0.342538 0)
(6.01688 0.494768 0)
(6.23617 0.628751 0)
(6.58136 0.748721 0)
(7.06535 0.721276 0)
(7.58751 0.575651 0)
(7.90748 0.310293 0)
(7.84981 -0.0642863 0)
(7.42259 -0.354857 0)
(6.84292 -0.528906 0)
(6.34828 -0.584556 0)
(5.99012 -0.494101 0)
(5.77194 -0.389136 0)
(5.65037 -0.26362 0)
(5.59756 -0.155708 0)
(5.43229 -0.048307 0)
(3.72529 0.00512609 0)
(4.26147 0.0090324 0)
(6.01452 0.0783138 0)
(6.1717 0.180901 0)
(6.20465 0.29239 0)
(6.28667 0.420716 0)
(6.43408 0.545276 0)
(6.67292 0.653286 0)
(7.01502 0.670159 0)
(7.4051 0.563988 0)
(7.6556 0.319951 0)
(7.58594 -0.0126498 0)
(7.21412 -0.280585 0)
(6.75186 -0.413905 0)
(6.38836 -0.437148 0)
(6.13491 -0.367954 0)
(5.97914 -0.282978 0)
(5.89183 -0.187101 0)
(5.8497 -0.10273 0)
(5.66521 -0.0249768 0)
(3.76309 0.0102416 0)
(4.38583 0.00900563 0)
(6.26055 0.0555193 0)
(6.44006 0.145855 0)
(6.46487 0.245303 0)
(6.51871 0.363481 0)
(6.61612 0.468385 0)
(6.76962 0.568574 0)
(6.99865 0.60947 0)
(7.2649 0.535726 0)
(7.43846 0.335977 0)
(7.35517 0.0562574 0)
(7.04273 -0.172017 0)
(6.68501 -0.274452 0)
(6.41784 -0.287949 0)
(6.23557 -0.242645 0)
(6.12421 -0.182331 0)
(6.06301 -0.119647 0)
(6.03061 -0.0653136 0)
(5.83004 -0.0100672 0)
(3.76682 0.00953298 0)
(4.52652 0.0142364 0)
(6.50675 0.0695448 0)
(6.68391 0.138262 0)
(6.69574 0.222872 0)
(6.72538 0.310992 0)
(6.77988 0.414106 0)
(6.86977 0.502697 0)
(7.00565 0.556612 0)
(7.16598 0.518691 0)
(7.26806 0.363278 0)
(7.16771 0.137932 0)
(6.90925 -0.0475622 0)
(6.63639 -0.129976 0)
(6.43884 -0.147822 0)
(6.30465 -0.125258 0)
(6.2209 -0.0906072 0)
(6.17475 -0.048513 0)
(6.14585 -0.0178397 0)
(5.90105 0.010298 0)
(3.75287 0.00750208 0)
(4.68875 0.0169801 0)
(6.69429 0.0559852 0)
(6.88602 0.129432 0)
(6.89825 0.205526 0)
(6.90834 0.29945 0)
(6.9321 0.391633 0)
(6.97253 0.47532 0)
(7.03243 0.534864 0)
(7.1022 0.529921 0)
(7.13683 0.41113 0)
(7.0203 0.234764 0)
(6.79976 0.0851354 0)
(6.58806 0.0127809 0)
(6.43604 -0.0149653 0)
(6.33265 -0.0146748 0)
(6.2684 -0.00548184 0)
(6.22752 0.00456068 0)
(6.18777 0.013863 0)
(5.90535 0.0186871 0)
(3.70075 0.0116141 0)
(4.83965 0.0257913 0)
(6.91201 0.083109 0)
(7.09315 0.141863 0)
(7.0894 0.22349 0)
(7.07958 0.303813 0)
(7.07405 0.396304 0)
(7.07 0.486853 0)
(7.0658 0.548139 0)
(7.06543 0.563456 0)
(7.03138 0.483523 0)
(6.89927 0.341884 0)
(6.70232 0.218932 0)
(6.53067 0.14607 0)
(6.40726 0.103532 0)
(6.32233 0.0787764 0)
(6.26728 0.0635066 0)
(6.23312 0.0583242 0)
(6.18497 0.0505334 0)
(5.88257 0.0388558 0)
(3.62101 0.0213834 0)
(5.12657 0.0398278 0)
(7.11245 0.0953447 0)
(7.29544 0.175847 0)
(7.28341 0.260513 0)
(7.25411 0.352873 0)
(7.21244 0.45285 0)
(7.1664 0.541524 0)
(7.10878 0.602017 0)
(7.04995 0.629474 0)
(6.95106 0.582533 0)
(6.80121 0.459408 0)
(6.61621 0.353999 0)
(6.46576 0.275164 0)
(6.35504 0.219519 0)
(6.27753 0.177706 0)
(6.22421 0.140176 0)
(6.1877 0.104579 0)
(6.14112 0.0807715 0)
(5.80136 0.0493865 0)
(3.45538 0.0304859 0)
(5.37974 0.0645663 0)
(7.37903 0.155332 0)
(7.52609 0.238209 0)
(7.48923 0.345283 0)
(7.42375 0.456492 0)
(7.34919 0.556349 0)
(7.25997 0.647173 0)
(7.15628 0.70586 0)
(7.04944 0.736354 0)
(6.88899 0.704078 0)
(6.71445 0.590104 0)
(6.53115 0.492513 0)
(6.38837 0.404603 0)
(6.28123 0.334021 0)
(6.20417 0.272903 0)
(6.14965 0.221479 0)
(6.11099 0.177811 0)
(6.05894 0.127322 0)
(5.70142 0.0898427 0)
(3.31567 0.0376386 0)
(6.11224 0.136423 0)
(7.67124 0.232485 0)
(7.78868 0.359074 0)
(7.70459 0.509013 0)
(7.60259 0.621414 2.7898e-33)
(7.48024 0.728241 -1.93146e-33)
(7.34546 0.812063 0)
(7.19743 0.863733 0)
(7.04854 0.885207 0)
(6.82882 0.849711 0)
(6.63052 0.737908 0)
(6.44414 0.636378 0)
(6.30069 0.537081 0)
(6.19235 0.455062 0)
(6.11195 0.3808 0)
(6.05098 0.311595 0)
(6.00429 0.248375 0)
(5.93303 0.193173 0)
(5.45173 0.120755 0)
(2.94406 0.0573071 0)
(6.57847 0.287681 -3.25052e-19)
(8.0613 0.394661 2.83612e-19)
(8.05853 0.607198 0)
(7.91732 0.766119 3.11256e-20)
(7.76257 0.87898 -2.50722e-20)
(7.59818 0.965299 2.04825e-33)
(7.41826 1.0356 0)
(7.23201 1.07319 1.93092e-19)
(7.03887 1.07826 -6.92442e-19)
(6.76498 1.0322 1.52102e-19)
(6.54079 0.92122 0)
(6.34021 0.812001 -4.99159e-19)
(6.18454 0.704301 -6.25357e-19)
(6.06452 0.609786 1.09998e-18)
(5.97213 0.52518 -8.84991e-19)
(5.90043 0.451093 0)
(5.83647 0.376023 -3.42558e-19)
(5.71891 0.278836 0)
(5.12955 0.220926 -1.78145e-18)
(2.64609 0.110192 2.13307e-18)
(6.8988 0.625156 -9.05346e-20)
(8.32494 0.804058 -2.07056e-18)
(8.27799 0.977313 5.43076e-19)
(8.08594 1.0964 6.74013e-19)
(7.89866 1.17269 -5.10085e-20)
(7.69294 1.24691 1.2139e-19)
(7.4732 1.30543 0)
(7.25088 1.32848 0)
(7.01002 1.31814 1.10435e-18)
(6.6915 1.25946 0)
(6.43476 1.14871 1.74057e-18)
(6.20996 1.03251 5.43542e-19)
(6.03524 0.921985 1.66318e-20)
(5.89744 0.823684 -1.25337e-18)
(5.78533 0.733382 0)
(5.69368 0.658579 0)
(5.61273 0.607533 -5.91814e-18)
(5.48184 0.542372 1.50271e-17)
(4.93533 0.430007 -8.3623e-18)
(2.52212 0.234225 -1.04237e-17)
(7.05556 0.995562 2.6922e-18)
(8.51342 1.33151 -9.60606e-19)
(8.45158 1.43144 -2.41125e-19)
(8.23879 1.46641 -1.22013e-18)
(8.0097 1.51172 5.50491e-19)
(7.76194 1.56678 -1.67566e-19)
(7.50754 1.60022 2.17281e-19)
(7.24591 1.60722 0)
(6.96343 1.57698 -2.314e-18)
(6.61453 1.50228 2.54872e-18)
(6.32738 1.38642 -4.7628e-18)
(6.07958 1.26182 2.32033e-18)
(5.88617 1.14941 -1.71569e-18)
(5.73149 1.05451 3.75494e-18)
(5.60341 0.972845 0)
(5.494 0.898009 -1.482e-18)
(5.39899 0.83781 0)
(5.26457 0.830787 8.62278e-18)
(4.79351 0.650672 -1.9995e-17)
(2.50886 0.387207 1.29508e-17)
(7.10394 1.24629 -1.29089e-17)
(8.61089 1.89891 6.44103e-18)
(8.57043 1.89994 9.30404e-19)
(8.33978 1.87281 0)
(8.08017 1.89569 5.98936e-19)
(7.8058 1.91343 -6.22962e-19)
(7.51945 1.91712 -2.60863e-19)
(7.22194 1.90267 0)
(6.90759 1.84809 1.63964e-18)
(6.53515 1.75482 -1.75276e-18)
(6.21855 1.62864 4.18735e-18)
(5.94863 1.49681 0)
(5.73714 1.38342 -3.60865e-18)
(5.56805 1.28985 1.98915e-18)
(5.43113 1.2158 5.41897e-18)
(5.31881 1.1473 -4.7628e-18)
(5.2208 1.07439 7.94895e-18)
(5.09719 1.05417 -1.77558e-17)
(4.67445 0.893719 1.13106e-17)
(2.57719 0.513496 -1.43692e-17)
(7.08961 1.52907 9.03643e-18)
(8.64323 2.38359 -7.13893e-18)
(8.6276 2.29762 2.84611e-18)
(8.37783 2.2926 -3.8855e-18)
(8.11023 2.28391 2.51967e-18)
(7.81698 2.2719 -3.62928e-19)
(7.50592 2.24565 1.21419e-19)
(7.18204 2.20537 -1.17671e-18)
(6.84273 2.124 -1.6728e-18)
(6.44982 2.01115 -3.79282e-18)
(6.1078 1.87271 -9.03892e-18)
(5.82153 1.7338 -3.02889e-18)
(5.60051 1.61701 1.18704e-19)
(5.42742 1.5186 -7.14076e-18)
(5.29298 1.44058 -2.57454e-19)
(5.18479 1.3798 6.97207e-18)
(5.08992 1.30128 -2.16735e-18)
(4.96563 1.26072 -1.28276e-18)
(4.59273 1.11391 0)
(2.64067 0.653661 3.05719e-17)
(7.03838 1.85763 0)
(8.63544 2.82149 1.96725e-18)
(8.64729 2.71631 0)
(8.38821 2.68758 -4.76248e-19)
(8.10453 2.66676 -3.04805e-18)
(7.79661 2.62833 5.5141e-19)
(7.4693 2.57319 1.69042e-19)
(7.12763 2.50567 2.09461e-18)
(6.76818 2.39977 -1.0087e-18)
(6.35948 2.2687 1.67644e-18)
(5.99932 2.11451 4.87768e-18)
(5.70373 1.96358 6.70495e-18)
(5.47943 1.83935 -4.17514e-18)
(5.30529 1.73272 7.72501e-18)
(5.16754 1.6437 -6.19865e-18)
(5.05975 1.58212 0)
(4.97407 1.52624 -1.66086e-17)
(4.86834 1.46403 2.23285e-17)
(4.53238 1.34788 1.70721e-18)
(2.68098 0.782796 -3.2215e-17)
(6.99341 2.12803 -8.32585e-19)
(8.58805 3.23557 -5.7167e-18)
(8.61909 3.07013 -1.53685e-17)
(8.33945 3.0826 8.3534e-18)
(8.05642 3.04017 -1.67405e-18)
(7.74597 2.97439 8.73108e-19)
(7.41246 2.89209 -5.484e-20)
(7.05951 2.79898 -2.61577e-19)
(6.68469 2.67133 -3.6226e-18)
(6.26643 2.52081 2.27815e-20)
(5.89594 2.34697 -5.30039e-18)
(5.59661 2.18244 -7.10412e-18)
(5.37326 2.05003 4.68908e-18)
(5.20293 1.94036 -2.77174e-18)
(5.07238 1.84841 6.72113e-18)
(4.96519 1.7809 0)
(4.86816 1.73296 -1.02567e-17)
(4.74567 1.64474 1.51735e-17)
(4.43524 1.54423 2.95974e-17)
(2.66166 0.914555 -3.43047e-17)
(6.83904 2.37938 -2.70323e-17)
(8.50027 3.55439 1.32063e-17)
(8.56778 3.37793 9.68165e-18)
(8.25755 3.43076 -8.80652e-18)
(7.97574 3.37579 5.10808e-19)
(7.67125 3.29563 2.17456e-18)
(7.33907 3.19446 -2.60056e-19)
(6.98002 3.08067 -8.50326e-19)
(6.59582 2.93358 -2.25905e-18)
(6.17366 2.76344 3.81802e-18)
(5.79529 2.57109 5.04436e-18)
(5.48879 2.39324 1.1148e-17)
(5.2578 2.25055 0)
(5.07703 2.13268 2.07795e-19)
(4.92932 2.02937 -1.86258e-17)
(4.81895 1.94358 4.26259e-18)
(4.73709 1.91296 2.19345e-17)
(4.66368 1.83395 -6.35107e-18)
(4.37366 1.71775 1.42202e-17)
(2.60759 1.02521 -9.70584e-19)
(6.76658 2.66651 9.64529e-19)
(8.42933 3.95121 1.20512e-17)
(8.48312 3.71909 7.00634e-18)
(8.1503 3.76334 -1.48685e-17)
(7.8779 3.68052 9.09229e-18)
(7.58277 3.58376 -2.58898e-18)
(7.25203 3.47365 1.93932e-19)
(6.891 3.3459 1.99926e-18)
(6.50211 3.18329 4.02641e-18)
(6.07744 2.99574 -4.86705e-18)
(5.68993 2.78602 0)
(5.37655 2.59327 -4.37475e-18)
(5.14556 2.43763 5.01869e-18)
(4.97501 2.31398 6.7624e-18)
(4.85022 2.21452 -3.86921e-18)
(4.74393 2.13473 -9.82081e-18)
(4.64148 2.09546 -2.98725e-18)
(4.52096 1.981 -3.98599e-20)
(4.24999 1.85969 0)
(2.55264 1.10707 0)
(6.6074 2.82431 -1.29224e-17)
(8.31475 4.23949 0)
(8.38208 4.00661 7.76826e-18)
(8.02705 4.08528 -3.63161e-18)
(7.78376 3.95935 -8.96056e-18)
(7.49047 3.85138 2.53298e-18)
(7.15869 3.73245 1.13975e-19)
(6.7953 3.59301 -1.09408e-18)
(6.40258 3.41782 2.75244e-18)
(5.97583 3.21517 -1.96288e-18)
(5.57967 2.9896 2.84173e-18)
(5.25774 2.78307 1.36211e-17)
(5.01587 2.61594 5.202e-19)
(4.8251 2.48237 -6.87282e-18)
(4.67051 2.36638 1.33062e-17)
(4.57154 2.24648 1.87172e-19)
(4.49544 2.21053 3.19756e-18)
(4.44329 2.11698 -1.56862e-17)
(4.1848 2.0212 1.61453e-17)
(2.49658 1.17737 -1.70344e-17)
(6.49675 3.07737 -1.51322e-20)
(8.19249 4.53076 0)
(8.26415 4.29942 0)
(7.92154 4.36315 3.07987e-18)
(7.68814 4.21377 3.49715e-18)
(7.39484 4.09965 -1.80605e-18)
(7.05994 3.97316 7.30566e-19)
(6.69382 3.82291 0)
(6.29877 3.63687 -4.35522e-18)
(5.87119 3.42159 7.14914e-18)
(5.46796 3.18365 8.56768e-18)
(5.14111 2.96553 -5.12367e-18)
(4.90418 2.78596 -6.41439e-18)
(4.73702 2.64096 1.5143e-17)
(4.61936 2.52713 -4.69937e-18)
(4.51115 2.44074 -5.72049e-18)
(4.40911 2.40674 -3.50015e-18)
(4.30846 2.26394 -1.69615e-17)
(4.04185 2.12691 2.25072e-18)
(2.42982 1.23964 1.82286e-17)
(6.36657 3.24474 -5.12557e-18)
(8.09238 4.8518 -7.01924e-18)
(8.16718 4.57186 9.67752e-19)
(7.81729 4.63718 9.88705e-20)
(7.59977 4.45448 9.38245e-19)
(7.30201 4.33405 -4.8915e-18)
(6.96037 4.19991 0)
(6.59173 4.03792 9.09935e-19)
(6.19539 3.84139 -7.16054e-19)
(5.76787 3.61547 1.15733e-17)
(5.35791 3.36772 -2.13999e-18)
(5.02447 3.13762 2.35777e-18)
(4.77618 2.94406 0)
(4.58017 2.78918 -8.26186e-18)
(4.42239 2.65719 1.02709e-17)
(4.33135 2.49974 0)
(4.24815 2.45651 -7.71001e-18)
(4.19803 2.32686 2.25091e-17)
(3.95502 2.2562 2.74348e-18)
(2.35584 1.28595 -2.25e-17)
(6.25356 3.41378 -1.0709e-17)
(7.96066 5.06466 1.30719e-17)
(8.06615 4.82042 0)
(7.71953 4.89289 7.5404e-18)
(7.51106 4.68316 0)
(7.20543 4.55672 4.4429e-18)
(6.85989 4.41301 0)
(6.49129 4.23914 0)
(6.09603 4.03321 -1.52459e-18)
(5.66822 3.79845 -1.12048e-17)
(5.25298 3.54349 -1.59509e-17)
(4.91521 3.30521 2.94136e-18)
(4.66675 3.10289 1.08986e-17)
(4.48758 2.93455 9.23984e-18)
(4.36524 2.80137 -3.28595e-17)
(4.26261 2.70235 -1.36596e-17)
(4.16593 2.65425 7.93274e-18)
(4.09685 2.49673 0)
(3.8118 2.32884 2.37795e-17)
(2.26879 1.32453 -2.41175e-17)
(6.1558 3.59433 1.18217e-17)
(7.88389 5.3127 -1.42957e-17)
(7.97543 5.04904 0)
(7.62636 5.12494 -3.83812e-19)
(7.42373 4.90002 -3.02193e-18)
(7.11176 4.76852 0)
(6.7637 4.61482 -9.70817e-20)
(6.39651 4.42891 9.96609e-19)
(6.00223 4.21383 -2.31389e-18)
(5.57316 3.97105 1.24123e-18)
(5.15187 3.71068 0)
(4.80486 3.46442 1.17085e-17)
(4.5426 3.25085 2.66275e-20)
(4.33867 3.07199 4.98614e-18)
(4.17312 2.92048 6.07223e-18)
(4.07245 2.7377 0)
(3.9863 2.67476 -1.35183e-17)
(3.94125 2.51125 2.65229e-17)
(3.69792 2.42546 -2.89327e-17)
(2.16866 1.34244 5.21303e-17)
(6.05848 3.7331 0)
(7.76466 5.56412 0)
(7.87858 5.2726 -7.23394e-18)
(7.52635 5.34755 0)
(7.33298 5.1013 0)
(7.01463 4.96719 6.0973e-18)
(6.66857 4.80339 -1.58221e-19)
(6.30484 4.60653 5.79754e-19)
(5.91284 4.38341 -3.57453e-19)
(5.48165 4.13402 0)
(5.055 3.8698 -2.52165e-18)
(4.70214 3.61915 -9.68084e-18)
(4.43476 3.39932 -1.2073e-17)
(4.23636 3.21118 -4.98373e-18)
(4.10073 3.05254 6.60986e-18)
(3.99895 2.91959 -1.55899e-17)
(3.88976 2.85075 2.9028e-17)
(3.83878 2.65853 5.3725e-19)
(3.54415 2.45627 -2.76417e-17)
(2.05597 1.35071 -3.56094e-18)
(5.96008 3.87149 0)
(7.66769 5.70251 -1.04016e-17)
(7.78232 5.45808 8.30257e-18)
(7.42652 5.54589 0)
(7.23977 5.2883 0)
(6.91978 5.15213 -1.33691e-17)
(6.57721 4.97928 0)
(6.21773 4.77271 0)
(5.82709 4.54225 -4.87751e-18)
(5.3932 4.28683 2.15334e-18)
(4.96284 4.01994 -2.0813e-17)
(4.60229 3.7672 0)
(4.31969 3.54323 -1.28602e-17)
(4.09391 3.34199 4.46233e-19)
(3.91067 3.16598 -2.06723e-17)
(3.79131 2.96815 8.44989e-18)
(3.69897 2.85789 2.1579e-19)
(3.66933 2.66268 -3.14452e-17)
(3.39926 2.53345 1.50175e-17)
(1.92423 1.33077 3.79844e-18)
(5.87018 4.00429 0)
(7.5743 5.95313 -1.21628e-17)
(7.67878 5.64951 8.49308e-18)
(7.32427 5.72716 1.64901e-17)
(7.14495 5.45607 3.03561e-18)
(6.82242 5.32083 -1.69038e-18)
(6.48605 5.14049 1.12283e-18)
(6.13169 4.92609 8.26267e-19)
(5.74317 4.68957 5.22589e-18)
(5.30799 4.42986 1.47315e-17)
(4.87524 4.16193 1.73014e-17)
(4.50653 3.90942 3.20724e-18)
(4.21196 3.68306 1.87107e-17)
(3.98755 3.48336 1.19198e-17)
(3.82771 3.30474 1.49103e-17)
(3.71419 3.13612 -9.20402e-18)
(3.59058 3.03467 -1.13056e-17)
(3.53442 2.79117 1.35425e-17)
(3.22356 2.51411 -8.33461e-18)
(1.77963 1.30045 1.2637e-17)
(5.77134 4.10974 1.78322e-17)
(7.45134 6.08872 1.92797e-17)
(7.58617 5.81727 4.38629e-18)
(7.22711 5.89906 2.31575e-19)
(7.05253 5.61297 -1.09297e-17)
(6.72953 5.47613 3.93836e-18)
(6.39945 5.28903 -1.26109e-18)
(6.04945 5.06803 -3.54499e-19)
(5.66243 4.82632 -5.98782e-18)
(5.22695 4.56335 -1.62545e-17)
(4.79348 4.29523 1.11169e-18)
(4.41947 4.0461 0)
(4.11648 3.82473 0)
(3.86299 3.61794 -6.10536e-18)
(3.64389 3.42502 -2.37723e-17)
(3.4829 3.21368 1.974e-17)
(3.3623 3.04655 1.21667e-17)
(3.32458 2.79801 0)
(3.03977 2.57574 2.67458e-17)
(1.62129 1.24051 -1.43986e-17)
(5.67738 4.21327 -9.09622e-18)
(7.37442 6.24591 7.64725e-18)
(7.48322 5.97431 -1.01172e-17)
(7.12572 6.05494 -1.03456e-17)
(6.96142 5.75695 -4.26062e-18)
(6.63823 5.61899 1.15523e-18)
(6.31492 5.42535 0)
(5.96885 5.19872 -9.74926e-19)
(5.58437 4.95265 5.93018e-19)
(5.15067 4.68783 0)
(4.71713 4.42056 0)
(4.33555 4.17557 2.14889e-18)
(4.0153 3.95708 3.13033e-18)
(3.75396 3.75596 -6.46223e-18)
(3.55695 3.56875 1.71541e-17)
(3.40952 3.38069 -2.11467e-17)
(3.25451 3.23913 -2.6374e-17)
(3.16206 2.92637 2.40993e-17)
(2.78239 2.51799 -9.83093e-18)
(1.39937 1.18714 5.51963e-18)
(5.59295 4.31618 1.05581e-17)
(7.24573 6.40451 0)
(7.37765 6.10741 0)
(7.03241 6.19333 -3.30319e-18)
(6.87706 5.89107 2.66172e-18)
(6.55406 5.75243 -3.12267e-19)
(6.23618 5.55206 -3.90921e-18)
(5.89329 5.3202 8.22896e-21)
(5.51116 5.0702 1.0305e-17)
(5.0793 4.80388 -1.28917e-18)
(4.64599 4.53772 2.84426e-18)
(4.25976 4.29864 -1.81348e-17)
(3.93545 4.09096 -1.88706e-17)
(3.65334 3.8948 -3.37911e-18)
(3.39292 3.70414 0)
(3.16523 3.50061 -3.55532e-19)
(2.97568 3.29787 1.35603e-17)
(2.87704 2.97259 -2.63502e-17)
(2.5235 2.5654 2.01006e-17)
(1.09412 0.967439 1.77988e-17)
(5.51587 4.40246 -2.26985e-17)
(7.17318 6.53645 -8.94013e-18)
(7.31276 6.25986 8.26954e-20)
(6.95548 6.33595 4.40642e-18)
(6.79739 6.01724 0)
(6.47212 5.87849 1.05153e-17)
(6.15844 5.67154 4.58525e-18)
(5.81849 5.4353 -6.34118e-19)
(5.43917 5.18213 -5.16129e-18)
(5.00985 4.91514 -1.24615e-18)
(4.57755 4.65159 1.15303e-18)
(4.1865 4.42027 1.58576e-17)
(3.84619 4.22192 1.83247e-17)
(3.54825 4.03897 3.21632e-18)
(3.30165 3.86352 1.70555e-17)
(3.10862 3.67775 0)
(2.89125 3.5158 0)
(2.67956 3.14514 1.71413e-17)
(2.00757 2.43565 2.01223e-19)
(0.689121 1.33386 -1.74758e-17)
(5.44658 4.49798 1.22087e-17)
(7.11561 6.67788 2.65763e-17)
(7.2382 6.40883 -3.83182e-17)
(6.87636 6.47868 2.16811e-17)
(6.71772 6.14354 -2.28079e-18)
(6.39344 5.99988 1.35502e-17)
(6.08353 5.78675 0)
(5.74652 5.54703 5.66563e-19)
(5.36941 5.2917 0)
(4.94216 5.02497 1.57864e-17)
(4.5115 4.76534 -1.58021e-18)
(4.11796 4.54407 1.7668e-18)
(3.77402 4.36078 2.05886e-17)
(3.46144 4.19224 -7.0775e-18)
(3.16091 4.03023 -9.01799e-18)
(2.86537 3.86498 0)
(2.55845 3.67843 0)
(2.24155 3.28762 0)
(1.36057 2.43132 -8.9455e-18)
(0.871973 2.08318 -5.60463e-18)
(5.36049 4.5693 0)
(6.97299 6.78517 0)
(7.11315 6.47975 1.36236e-17)
(6.76598 6.57767 -1.79323e-17)
(6.63964 6.2572 1.15157e-17)
(6.31367 6.1133 -1.22941e-17)
(6.00953 5.89641 -4.12486e-19)
(5.67525 5.65414 3.19412e-19)
(5.30068 5.39748 9.04737e-19)
(4.87664 5.13173 -1.80699e-17)
(4.44876 4.87723 2.6987e-18)
(4.05281 4.6678 1.56197e-17)
(3.69615 4.50123 -2.04325e-17)
(3.36608 4.35599 -2.30901e-17)
(3.06652 4.22175 8.03023e-18)
(2.80315 4.08163 0)
(2.52399 3.90206 1.2687e-17)
(2.07701 3.34945 1.55326e-17)
(1.35315 2.6947 -1.64826e-17)
(0.918358 2.90676 2.22636e-17)
(5.28856 4.6549 0)
(6.90564 6.87599 1.71964e-17)
(7.03508 6.60074 -3.44551e-18)
(6.70121 6.67879 2.26132e-17)
(6.57138 6.35945 -1.21006e-17)
(6.23814 6.22142 0)
(5.93942 6.00116 0)
(5.60736 5.75738 0)
(5.2351 5.50017 3.35785e-18)
(4.81418 5.2361 6.6799e-19)
(4.38973 4.98719 0)
(3.99553 4.79116 -1.54297e-17)
(3.64071 4.64511 0)
(3.30596 4.52267 1.64662e-17)
(2.98009 4.40725 -1.13299e-17)
(2.65308 4.29227 -9.23123e-18)
(2.27392 4.0609 -2.42146e-17)
(1.7381 3.48573 -1.31743e-17)
(1.23589 3.21767 -2.34708e-17)
(1.0146 3.44946 1.72713e-17)
(5.25966 4.73925 -7.57835e-18)
(6.86573 7.04749 1.79354e-19)
(7.0308 6.76317 -3.34625e-18)
(6.66583 6.83466 -1.75186e-17)
(6.49975 6.46914 0)
(6.16761 6.32811 0)
(5.87048 6.1016 0)
(5.54062 5.85701 7.35816e-20)
(5.17078 5.59983 -4.37486e-18)
(4.75421 5.3379 0)
(4.3344 5.09479 0)
(3.94342 4.91316 0)
(3.58385 4.78804 0)
(3.24132 4.69523 1.21263e-17)
(2.91993 4.61988 3.1059e-17)
(2.62392 4.51015 9.87665e-18)
(2.29249 4.22374 2.31517e-17)
(1.79253 3.72096 -1.84229e-17)
(1.35263 3.79854 7.86855e-18)
(1.1857 3.92571 0)
(5.19747 4.78781 7.23133e-18)
(6.81357 7.1101 -3.20282e-17)
(6.92302 6.84822 -1.04918e-17)
(6.55414 6.93019 -2.71775e-18)
(6.42149 6.57751 2.72185e-18)
(6.0961 6.43143 -1.77695e-17)
(5.80251 6.20056 1.11465e-18)
(5.47637 5.95505 2.96173e-18)
(5.10904 5.6983 0)
(4.69692 5.43881 -1.13625e-18)
(4.28254 5.20114 1.03439e-18)
(3.89844 5.03339 0)
(3.54923 4.93172 0)
(3.21934 4.86934 -1.51808e-17)
(2.90134 4.80778 2.641e-18)
(2.57739 4.70257 -9.22686e-18)
(2.11943 4.42484 2.03926e-17)
(1.5346 4.05441 1.76855e-17)
(1.14871 4.20436 -3.25428e-17)
(1.04666 4.24761 1.71237e-17)
(5.09424 4.84918 1.34014e-17)
(6.66366 7.17221 3.82782e-17)
(6.78486 6.89407 1.35748e-17)
(6.45083 6.98548 0)
(6.3519 6.66534 0)
(6.01647 6.52865 1.33809e-17)
(5.73236 6.29945 -6.56502e-18)
(5.40936 6.05357 -2.84519e-18)
(5.04544 5.79741 4.36212e-21)
(4.6396 5.53983 1.28468e-17)
(4.2327 5.30664 -1.8605e-17)
(3.85861 5.1515 0)
(3.5193 5.0716 0)
(3.19586 5.03829 -1.07196e-17)
(2.88881 5.02054 -1.4126e-17)
(2.56535 4.91833 0)
(2.14853 4.55833 -2.90853e-17)
(1.73348 4.35468 -5.34092e-18)
(1.43678 4.71077 3.37216e-17)
(1.18619 4.72689 -1.70915e-17)
(5.03548 4.93413 -2.54108e-17)
(6.59645 7.30867 -1.82083e-17)
(6.75624 7.05544 0)
(6.41167 7.12893 0)
(6.27834 6.77092 0)
(5.93783 6.63424 0)
(5.65963 6.39994 6.88967e-18)
(5.33974 6.1534 -4.17406e-18)
(4.98039 5.89735 0)
(4.5817 5.64134 -1.1585e-17)
(4.18393 5.41154 3.35899e-17)
(3.82391 5.26664 1.43409e-18)
(3.5041 5.20699 2.16384e-18)
(3.20445 5.20122 1.81272e-17)
(2.91209 5.19112 -1.20843e-17)
(2.58599 5.06375 0)
(2.08966 4.81132 9.46619e-18)
(1.63983 4.86755 7.34508e-19)
(1.13839 5.13334 -5.08437e-18)
(0.75388 5.19581 1.02859e-17)
(4.98622 5.01248 1.20331e-17)
(6.5593 7.4458 -1.77034e-17)
(6.68577 7.18998 0)
(6.31622 7.26628 -3.9488e-18)
(6.18303 6.88967 1.45503e-17)
(5.85312 6.74627 0)
(5.57957 6.50276 0)
(5.26483 6.25399 7.66398e-18)
(4.91065 5.99713 -5.51484e-19)
(4.52134 5.74175 1.12665e-17)
(4.13589 5.51457 -1.5977e-17)
(3.79308 5.37696 1.03347e-17)
(3.49486 5.33304 0)
(3.21407 5.35054 -9.89049e-18)
(2.93659 5.37061 6.18451e-18)
(2.60068 5.26841 6.7897e-18)
(2.18872 5.0263 0)
(1.77116 5.17102 4.70359e-18)
(1.30996 5.80635 7.83626e-18)
(1.20779 6.01622 2.35541e-18)
(4.86787 5.06535 -2.24681e-17)
(6.41622 7.51819 2.55782e-17)
(6.52954 7.25676 1.77344e-17)
(6.18643 7.34037 -4.55172e-18)
(6.08735 6.99185 -2.18783e-17)
(5.75787 6.85249 0)
(5.49381 6.60577 6.05894e-18)
(5.18576 6.35447 -3.30238e-18)
(4.83819 6.09608 -1.30489e-19)
(4.4595 5.84071 -9.79724e-18)
(4.08816 5.61554 -7.89317e-19)
(3.76555 5.48235 -1.15914e-17)
(3.49246 5.44755 1.41559e-17)
(3.24326 5.48059 4.49064e-18)
(2.98708 5.50772 -1.04696e-17)
(2.68724 5.37418 1.15758e-17)
(2.31588 5.21005 0)
(1.95782 5.79562 0)
(1.7411 6.52101 1.12382e-18)
(0.444694 6.58446 -4.7991e-18)
(4.76945 5.14957 1.08231e-17)
(6.2889 7.64231 2.3626e-17)
(6.4279 7.3863 -1.7686e-17)
(6.09366 7.45936 1.6055e-17)
(5.99083 7.0973 2.12155e-17)
(5.65627 6.95902 0)
(5.40341 6.70782 -6.42706e-18)
(5.10145 6.45373 -4.6411e-18)
(4.76121 6.19298 0)
(4.39513 5.93578 0)
(4.04122 5.71171 0)
(3.74072 5.58041 0)
(3.49382 5.54864 -1.61254e-17)
(3.27371 5.59092 -6.10242e-18)
(3.05711 5.62719 0)
(2.76425 5.53455 -5.60893e-18)
(2.58615 5.54946 0)
(2.6035 5.89927 -2.41597e-18)
(2.65939 5.95485 2.92464e-19)
(1.43072 6.00035 1.58869e-18)
(4.68186 5.22905 -2.06736e-17)
(6.19102 7.77891 -1.50495e-17)
(6.32945 7.53558 -1.10756e-17)
(5.98523 7.60394 -1.49698e-17)
(5.87875 7.22032 -9.9521e-18)
(5.5495 7.07403 0)
(5.30592 6.81203 -1.17823e-18)
(5.01144 6.55337 5.84482e-19)