/*--------------------------------*- C++ -*----------------------------------*\
| =========                 |                                                 |
| \\      /  F ield         | OpenFOAM: The Open Source CFD Toolbox           |
|  \\    /   O peration     | Version:  2412                                  |
|   \\  /    A nd           | Website:  www.openfoam.com                      |
|    \\/     M anipulation  |                                                 |
\*---------------------------------------------------------------------------*/
FoamFile
{
    version     2.0;
    format      ascii;
    arch        "LSB;label=32;scalar=64";
    class       volVectorField;
    location    "0.9";
    object      U_0;
}
// * * * * * * * * * * * * * * * * * * * * * * * * * * * * * * * * * * * * * //

dimensions      [0 1 -1 0 0 0 0];

internalField   nonuniform List<vector> 
800
(
(0.0010274 0 0)
(0.00308222 0 0)
(0.00513703 0 0)
(0.00719184 0 0)
(0.00924663 0 0)
(0.0113014 0 0)
(0.0133562 0 0)
(0.015411 0 0)
(0.0174657 0 0)
(0.0195204 0 0)
(0.0215751 0 0)
(0.0236298 0 0)
(0.0256845 0 0)
(0.0277391 0 0)
(0.0297937 0 0)
(0.0318482 0 0)
(0.0339027 0 0)
(0.0359572 0 0)
(0.0380117 0 0)
(0.0400661 0 0)
(0.0421204 0 0)
(0.0441747 0 0)
(0.046229 0 0)
(0.0482832 0 0)
(0.0503373 0 0)
(0.0523914 0 0)
(0.0544455 0 0)
(0.0564994 0 0)
(0.0585533 0 0)
(0.0606072 0 0)
(0.0626609 0 0)
(0.0647146 0 0)
(0.0667683 0 0)
(0.0688218 0 0)
(0.0708753 0 0)
(0.0729287 0 0)
(0.074982 0 0)
(0.0770352 0 0)
(0.0790883 0 0)
(0.0811414 0 0)
(0.0831943 0 0)
(0.0852472 0 0)
(0.0873 0 0)
(0.0893526 0 0)
(0.0914052 0 0)
(0.0934576 0 0)
(0.09551 0 0)
(0.0975622 0 0)
(0.0996143 0 0)
(0.101666 0 0)
(0.103718 0 0)
(0.10577 0 0)
(0.107822 0 0)
(0.109873 0 0)
(0.111925 0 0)
(0.113976 0 0)
(0.116027 0 0)
(0.118078 0 0)
(0.120129 0 0)
(0.12218 0 0)
(0.12423 0 0)
(0.126281 0 0)
(0.128331 0 0)
(0.130381 0 0)
(0.132431 0 0)
(0.134481 0 0)
(0.136531 0 0)
(0.13858 0 0)
(0.14063 0 0)
(0.142679 0 0)
(0.144728 0 0)
(0.146777 0 0)
(0.148826 0 0)
(0.150874 0 0)
(0.152923 0 0)
(0.154971 0 0)
(0.157019 0 0)
(0.159067 0 0)
(0.161114 0 0)
(0.163162 0 0)
(0.165209 0 0)
(0.167256 0 0)
(0.169303 0 0)
(0.17135 0 0)
(0.173396 0 0)
(0.175443 0 0)
(0.177489 0 0)
(0.179534 0 0)
(0.18158 0 0)
(0.183626 0 0)
(0.185671 0 0)
(0.187716 0 0)
(0.189761 0 0)
(0.191805 0 0)
(0.19385 0 0)
(0.195894 0 0)
(0.197938 0 0)
(0.199981 0 0)
(0.202025 0 0)
(0.204068 0 0)
(0.206111 0 0)
(0.208153 0 0)
(0.210196 0 0)
(0.212238 0 0)
(0.21428 0 0)
(0.216322 0 0)
(0.218363 0 0)
(0.220404 0 0)
(0.222445 0 0)
(0.224486 0 0)
(0.226526 0 0)
(0.228566 0 0)
(0.230606 0 0)
(0.232646 0 0)
(0.234685 0 0)
(0.236724 0 0)
(0.238763 0 0)
(0.240801 0 0)
(0.242839 0 0)
(0.244877 0 0)
(0.246915 0 0)
(0.248952 0 0)
(0.250989 0 0)
(0.253025 0 0)
(0.255062 0 0)
(0.257098 0 0)
(0.259133 0 0)
(0.261169 0 0)
(0.263204 0 0)
(0.265239 0 0)
(0.267273 0 0)
(0.269307 0 0)
(0.271341 0 0)
(0.273374 0 0)
(0.275407 0 0)
(0.27744 0 0)
(0.279473 0 0)
(0.281505 0 0)
(0.283536 0 0)
(0.285568 0 0)
(0.287599 0 0)
(0.289629 0 0)
(0.29166 0 0)
(0.29369 0 0)
(0.295719 0 0)
(0.297748 0 0)
(0.299777 0 0)
(0.301806 0 0)
(0.303834 0 0)
(0.305861 0 0)
(0.307889 0 0)
(0.309916 0 0)
(0.311942 0 0)
(0.313968 0 0)
(0.315994 0 0)
(0.318019 0 0)
(0.320044 0 0)
(0.322069 0 0)
(0.324093 0 0)
(0.326117 0 0)
(0.32814 0 0)
(0.330163 0 0)
(0.332185 0 0)
(0.334207 0 0)
(0.336229 0 0)
(0.33825 0 0)
(0.340271 0 0)
(0.342291 0 0)
(0.344311 0 0)
(0.34633 0 0)
(0.348349 0 0)
(0.350368 0 0)
(0.352386 0 0)
(0.354403 0 0)
(0.35642 0 0)
(0.358437 0 0)
(0.360453 0 0)
(0.362469 0 0)
(0.364484 0 0)
(0.366499 0 0)
(0.368513 0 0)
(0.370527 0 0)
(0.37254 0 0)
(0.374553 0 0)
(0.376565 0 0)
(0.378577 0 0)
(0.380588 0 0)
(0.382599 0 0)
(0.384609 0 0)
(0.386619 0 0)
(0.388628 0 0)
(0.390637 0 0)
(0.392645 0 0)
(0.394653 0 0)
(0.39666 0 0)
(0.398666 0 0)
(0.400672 0 0)
(0.402678 0 0)
(0.404683 0 0)
(0.406687 0 0)
(0.408691 0 0)
(0.410694 0 0)
(0.412697 0 0)
(0.414699 0 0)
(0.4167 0 0)
(0.418701 0 0)
(0.420702 0 0)
(0.422701 0 0)
(0.424701 0 0)
(0.426699 0 0)
(0.428697 0 0)
(0.430695 0 0)
(0.432691 0 0)
(0.434687 0 0)
(0.436683 0 0)
(0.438678 0 0)
(0.440672 0 0)
(0.442666 0 0)
(0.444659 0 0)
(0.446651 0 0)
(0.448643 0 0)
(0.450634 0 0)
(0.452625 0 0)
(0.454615 0 0)
(0.456604 0 0)
(0.458592 0 0)
(0.46058 0 0)
(0.462567 0 0)
(0.464554 0 0)
(0.466539 0 0)
(0.468525 0 0)
(0.470509 0 0)
(0.472493 0 0)
(0.474476 0 0)
(0.476458 0 0)
(0.47844 0 0)
(0.48042 0 0)
(0.482401 0 0)
(0.48438 0 0)
(0.486359 0 0)
(0.488337 0 0)
(0.490314 0 0)
(0.49229 0 0)
(0.494266 0 0)
(0.496241 0 0)
(0.498215 0 0)
(0.500189 0 0)
(0.502162 0 0)
(0.504133 0 0)
(0.506105 0 0)
(0.508075 0 0)
(0.510045 0 0)
(0.512013 0 0)
(0.513981 0 0)
(0.515948 0 0)
(0.517915 0 0)
(0.51988 0 0)
(0.521845 0 0)
(0.523809 0 0)
(0.525772 0 0)
(0.527734 0 0)
(0.529695 0 0)
(0.531656 0 0)
(0.533616 0 0)
(0.535574 0 0)
(0.537532 0 0)
(0.539489 0 0)
(0.541445 0 0)
(0.543401 0 0)
(0.545355 0 0)
(0.547308 0 0)
(0.549261 0 0)
(0.551213 0 0)
(0.553163 0 0)
(0.555113 0 0)
(0.557062 0 0)
(0.55901 0 0)
(0.560957 0 0)
(0.562903 0 0)
(0.564848 0 0)
(0.566792 0 0)
(0.568735 0 0)
(0.570678 0 0)
(0.572619 0 0)
(0.574559 0 0)
(0.576498 0 0)
(0.578437 0 0)
(0.580374 0 0)
(0.58231 0 0)
(0.584245 0 0)
(0.586179 0 0)
(0.588112 0 0)
(0.590044 0 0)
(0.591975 0 0)
(0.593905 0 0)
(0.595834 0 0)
(0.597762 0 0)
(0.599689 0 0)
(0.601614 0 0)
(0.603539 0 0)
(0.605462 0 0)
(0.607385 0 0)
(0.609306 0 0)
(0.611226 0 0)
(0.613145 0 0)
(0.615063 0 0)
(0.616979 0 0)
(0.618895 0 0)
(0.620809 0 0)
(0.622722 0 0)
(0.624634 0 0)
(0.626545 0 0)
(0.628454 0 0)
(0.630363 0 0)
(0.63227 0 0)
(0.634176 0 0)
(0.63608 0 0)
(0.637984 0 0)
(0.639886 0 0)
(0.641787 0 0)
(0.643686 0 0)
(0.645585 0 0)
(0.647482 0 0)
(0.649378 0 0)
(0.651272 0 0)
(0.653165 0 0)
(0.655057 0 0)
(0.656947 0 0)
(0.658836 0 0)
(0.660724 0 0)
(0.66261 0 0)
(0.664495 0 0)
(0.666379 0 0)
(0.668261 0 0)
(0.670142 0 0)
(0.672021 0 0)
(0.673899 0 0)
(0.675776 0 0)
(0.677651 0 0)
(0.679524 0 0)
(0.681396 0 0)
(0.683267 0 0)
(0.685136 0 0)
(0.687004 0 0)
(0.68887 0 0)
(0.690734 0 0)
(0.692597 0 0)
(0.694459 0 0)
(0.696319 0 0)
(0.698177 0 0)
(0.700034 0 0)
(0.701889 0 0)
(0.703742 0 0)
(0.705594 0 0)
(0.707444 0 0)
(0.709293 0 0)
(0.71114 0 0)
(0.712985 0 0)
(0.714828 0 0)
(0.71667 0 0)
(0.71851 0 0)
(0.720348 0 0)
(0.722185 0 0)
(0.72402 0 0)
(0.725853 0 0)
(0.727684 0 0)
(0.729513 0 0)
(0.731341 0 0)
(0.733167 0 0)
(0.73499 0 0)
(0.736812 0 0)
(0.738633 0 0)
(0.740451 0 0)
(0.742267 0 0)
(0.744081 0 0)
(0.745894 0 0)
(0.747704 0 0)
(0.749513 0 0)
(0.751319 0 0)
(0.753124 0 0)
(0.754926 0 0)
(0.756726 0 0)
(0.758525 0 0)
(0.760321 0 0)
(0.762115 0 0)
(0.763907 0 0)
(0.765697 0 0)
(0.767484 0 0)
(0.76927 0 0)
(0.771053 0 0)
(0.772834 0 0)
(0.774613 0 0)
(0.776389 0 0)
(0.778163 0 0)
(0.779935 0 0)
(0.781705 0 0)
(0.783467 0 0)
(0.784825 0 0)
(0.755432 0 0)
(0.39014 0 0)
(-0.388922 0 0)
(-0.755231 0 0)
(-0.784819 0 0)
(-0.783465 0 0)
(-0.781702 0 0)
(-0.779933 0 0)
(-0.778161 0 0)
(-0.776387 0 0)
(-0.77461 0 0)
(-0.772831 0 0)
(-0.77105 0 0)
(-0.769267 0 0)
(-0.767482 0 0)
(-0.765694 0 0)
(-0.763904 0 0)
(-0.762112 0 0)
(-0.760318 0 0)
(-0.758522 0 0)
(-0.756724 0 0)
(-0.754924 0 0)
(-0.753121 0 0)
(-0.751317 0 0)
(-0.74951 0 0)
(-0.747702 0 0)
(-0.745891 0 0)
(-0.744079 0 0)
(-0.742265 0 0)
(-0.740448 0 0)
(-0.73863 0 0)
(-0.73681 0 0)
(-0.734988 0 0)
(-0.733164 0 0)
(-0.731338 0 0)
(-0.729511 0 0)
(-0.727682 0 0)
(-0.72585 0 0)
(-0.724017 0 0)
(-0.722183 0 0)
(-0.720346 0 0)
(-0.718508 0 0)
(-0.716668 0 0)
(-0.714826 0 0)
(-0.712982 0 0)
(-0.711137 0 0)
(-0.70929 0 0)
(-0.707442 0 0)
(-0.705592 0 0)
(-0.70374 0 0)
(-0.701886 0 0)
(-0.700031 0 0)
(-0.698175 0 0)
(-0.696316 0 0)
(-0.694457 0 0)
(-0.692595 0 0)
(-0.690732 0 0)
(-0.688868 0 0)
(-0.687002 0 0)
(-0.685134 0 0)
(-0.683265 0 0)
(-0.681394 0 0)
(-0.679522 0 0)
(-0.677649 0 0)
(-0.675774 0 0)
(-0.673897 0 0)
(-0.672019 0 0)
(-0.67014 0 0)
(-0.668259 0 0)
(-0.666377 0 0)
(-0.664493 0 0)
(-0.662608 0 0)
(-0.660722 0 0)
(-0.658834 0 0)
(-0.656945 0 0)
(-0.655055 0 0)
(-0.653163 0 0)
(-0.65127 0 0)
(-0.649376 0 0)
(-0.64748 0 0)
(-0.645583 0 0)
(-0.643684 0 0)
(-0.641785 0 0)
(-0.639884 0 0)
(-0.637982 0 0)
(-0.636078 0 0)
(-0.634174 0 0)
(-0.632268 0 0)
(-0.630361 0 0)
(-0.628452 0 0)
(-0.626543 0 0)
(-0.624632 0 0)
(-0.62272 0 0)
(-0.620807 0 0)
(-0.618893 0 0)
(-0.616977 0 0)
(-0.615061 0 0)
(-0.613143 0 0)
(-0.611224 0 0)
(-0.609304 0 0)
(-0.607383 0 0)
(-0.60546 0 0)
(-0.603537 0 0)
(-0.601613 0 0)
(-0.599687 0 0)
(-0.59776 0 0)
(-0.595832 0 0)
(-0.593904 0 0)
(-0.591974 0 0)
(-0.590043 0 0)
(-0.588111 0 0)
(-0.586177 0 0)
(-0.584243 0 0)
(-0.582308 0 0)
(-0.580372 0 0)
(-0.578435 0 0)
(-0.576497 0 0)
(-0.574557 0 0)
(-0.572617 0 0)
(-0.570676 0 0)
(-0.568734 0 0)
(-0.566791 0 0)
(-0.564847 0 0)
(-0.562901 0 0)
(-0.560955 0 0)
(-0.559008 0 0)
(-0.55706 0 0)
(-0.555112 0 0)
(-0.553162 0 0)
(-0.551211 0 0)
(-0.549259 0 0)
(-0.547307 0 0)
(-0.545353 0 0)
(-0.543399 0 0)
(-0.541444 0 0)
(-0.539488 0 0)
(-0.537531 0 0)
(-0.535573 0 0)
(-0.533614 0 0)
(-0.531654 0 0)
(-0.529694 0 0)
(-0.527733 0 0)
(-0.52577 0 0)
(-0.523807 0 0)
(-0.521843 0 0)
(-0.519879 0 0)
(-0.517913 0 0)
(-0.515947 0 0)
(-0.51398 0 0)
(-0.512012 0 0)
(-0.510043 0 0)
(-0.508074 0 0)
(-0.506103 0 0)
(-0.504132 0 0)
(-0.50216 0 0)
(-0.500188 0 0)
(-0.498214 0 0)
(-0.49624 0 0)
(-0.494265 0 0)
(-0.492289 0 0)
(-0.490313 0 0)
(-0.488335 0 0)
(-0.486357 0 0)
(-0.484379 0 0)
(-0.482399 0 0)
(-0.480419 0 0)
(-0.478438 0 0)
(-0.476457 0 0)
(-0.474474 0 0)
(-0.472491 0 0)
(-0.470508 0 0)
(-0.468523 0 0)
(-0.466538 0 0)
(-0.464552 0 0)
(-0.462566 0 0)
(-0.460579 0 0)
(-0.458591 0 0)
(-0.456603 0 0)
(-0.454613 0 0)
(-0.452624 0 0)
(-0.450633 0 0)
(-0.448642 0 0)
(-0.44665 0 0)
(-0.444658 0 0)
(-0.442665 0 0)
(-0.440671 0 0)
(-0.438677 0 0)
(-0.436682 0 0)
(-0.434686 0 0)
(-0.43269 0 0)
(-0.430693 0 0)
(-0.428696 0 0)
(-0.426698 0 0)
(-0.4247 0 0)
(-0.4227 0 0)
(-0.420701 0 0)
(-0.4187 0 0)
(-0.416699 0 0)
(-0.414698 0 0)
(-0.412696 0 0)
(-0.410693 0 0)
(-0.40869 0 0)
(-0.406686 0 0)
(-0.404682 0 0)
(-0.402677 0 0)
(-0.400671 0 0)
(-0.398665 0 0)
(-0.396659 0 0)
(-0.394652 0 0)
(-0.392644 0 0)
(-0.390636 0 0)
(-0.388627 0 0)
(-0.386618 0 0)
(-0.384608 0 0)
(-0.382598 0 0)
(-0.380587 0 0)
(-0.378576 0 0)
(-0.376564 0 0)
(-0.374552 0 0)
(-0.372539 0 0)
(-0.370526 0 0)
(-0.368512 0 0)
(-0.366498 0 0)
(-0.364483 0 0)
(-0.362468 0 0)
(-0.360452 0 0)
(-0.358436 0 0)
(-0.35642 0 0)
(-0.354402 0 0)
(-0.352385 0 0)
(-0.350367 0 0)
(-0.348348 0 0)
(-0.34633 0 0)
(-0.34431 0 0)
(-0.34229 0 0)
(-0.34027 0 0)
(-0.338249 0 0)
(-0.336228 0 0)
(-0.334207 0 0)
(-0.332185 0 0)
(-0.330162 0 0)
(-0.328139 0 0)
(-0.326116 0 0)
(-0.324092 0 0)
(-0.322068 0 0)
(-0.320044 0 0)
(-0.318019 0 0)
(-0.315993 0 0)
(-0.313968 0 0)
(-0.311942 0 0)
(-0.309915 0 0)
(-0.307888 0 0)
(-0.305861 0 0)
(-0.303833 0 0)
(-0.301805 0 0)
(-0.299777 0 0)
(-0.297748 0 0)
(-0.295719 0 0)
(-0.293689 0 0)
(-0.291659 0 0)
(-0.289629 0 0)
(-0.287598 0 0)
(-0.285567 0 0)
(-0.283536 0 0)
(-0.281504 0 0)
(-0.279472 0 0)
(-0.27744 0 0)
(-0.275407 0 0)
(-0.273374 0 0)
(-0.27134 0 0)
(-0.269307 0 0)
(-0.267273 0 0)
(-0.265238 0 0)
(-0.263203 0 0)
(-0.261168 0 0)
(-0.259133 0 0)
(-0.257097 0 0)
(-0.255061 0 0)
(-0.253025 0 0)
(-0.250988 0 0)
(-0.248951 0 0)
(-0.246914 0 0)
(-0.244877 0 0)
(-0.242839 0 0)
(-0.240801 0 0)
(-0.238762 0 0)
(-0.236724 0 0)
(-0.234685 0 0)
(-0.232645 0 0)
(-0.230606 0 0)
(-0.228566 0 0)
(-0.226526 0 0)
(-0.224486 0 0)
(-0.222445 0 0)
(-0.220404 0 0)
(-0.218363 0 0)
(-0.216321 0 0)
(-0.21428 0 0)
(-0.212238 0 0)
(-0.210196 0 0)
(-0.208153 0 0)
(-0.20611 0 0)
(-0.204068 0 0)
(-0.202024 0 0)
(-0.199981 0 0)
(-0.197937 0 0)
(-0.195893 0 0)
(-0.193849 0 0)
(-0.191805 0 0)
(-0.18976 0 0)
(-0.187716 0 0)
(-0.185671 0 0)
(-0.183625 0 0)
(-0.18158 0 0)
(-0.179534 0 0)
(-0.177488 0 0)
(-0.175442 0 0)
(-0.173396 0 0)
(-0.17135 0 0)
(-0.169303 0 0)
(-0.167256 0 0)
(-0.165209 0 0)
(-0.163162 0 0)
(-0.161114 0 0)
(-0.159067 0 0)
(-0.157019 0 0)
(-0.154971 0 0)
(-0.152922 0 0)
(-0.150874 0 0)
(-0.148826 0 0)
(-0.146777 0 0)
(-0.144728 0 0)
(-0.142679 0 0)
(-0.14063 0 0)
(-0.13858 0 0)
(-0.136531 0 0)
(-0.134481 0 0)
(-0.132431 0 0)
(-0.130381 0 0)
(-0.128331 0 0)
(-0.126281 0 0)
(-0.12423 0 0)
(-0.12218 0 0)
(-0.120129 0 0)
(-0.118078 0 0)
(-0.116027 0 0)
(-0.113976 0 0)
(-0.111925 0 0)
(-0.109873 0 0)
(-0.107822 0 0)
(-0.10577 0 0)
(-0.103718 0 0)
(-0.101666 0 0)
(-0.0996143 0 0)
(-0.0975622 0 0)
(-0.0955099 0 0)
(-0.0934576 0 0)
(-0.0914051 0 0)
(-0.0893526 0 0)
(-0.0872999 0 0)
(-0.0852471 0 0)
(-0.0831943 0 0)
(-0.0811413 0 0)
(-0.0790883 0 0)
(-0.0770352 0 0)
(-0.0749819 0 0)
(-0.0729286 0 0)
(-0.0708753 0 0)
(-0.0688218 0 0)
(-0.0667682 0 0)
(-0.0647146 0 0)
(-0.0626609 0 0)
(-0.0606071 0 0)
(-0.0585533 0 0)
(-0.0564994 0 0)
(-0.0544454 0 0)
(-0.0523914 0 0)
(-0.0503373 0 0)
(-0.0482832 0 0)
(-0.046229 0 0)
(-0.0441747 0 0)
(-0.0421204 0 0)
(-0.0400661 0 0)
(-0.0380117 0 0)
(-0.0359572 0 0)
(-0.0339027 0 0)
(-0.0318482 0 0)
(-0.0297937 0 0)
(-0.0277391 0 0)
(-0.0256845 0 0)
(-0.0236298 0 0)
(-0.0215751 0 0)
(-0.0195204 0 0)
(-0.0174657 0 0)
(-0.015411 0 0)
(-0.0133562 0 0)
(-0.0113014 0 0)
(-0.00924664 0 0)
(-0.00719184 0 0)
(-0.00513704 0 0)
(-0.00308222 0 0)
(-0.00102741 0 0)
)
;

boundaryField
{
    left
    {
        type            fixedValue;
        value           uniform (0 0 0);
    }
    right
    {
        type            fixedValue;
        value           uniform (0 0 0);
    }
    frontBackUpDown
    {
        type            empty;
    }
}


// ************************************************************************* //
