/*--------------------------------*- C++ -*----------------------------------*\
| =========                 |                                                 |
| \\      /  F ield         | OpenFOAM: The Open Source CFD Toolbox           |
|  \\    /   O peration     | Version:  2412                                  |
|   \\  /    A nd           | Website:  www.openfoam.com                      |
|    \\/     M anipulation  |                                                 |
\*---------------------------------------------------------------------------*/
FoamFile
{
    version     2.0;
    format      ascii;
    arch        "LSB;label=32;scalar=64";
    class       volVectorField;
    location    "0.9";
    object      U_0_0_0;
}
// * * * * * * * * * * * * * * * * * * * * * * * * * * * * * * * * * * * * * //

dimensions      [0 1 -1 0 0 0 0];

internalField   nonuniform List<vector> 
800
(
(0.00102824 0 0)
(0.00308475 0 0)
(0.00514124 0 0)
(0.00719774 0 0)
(0.00925422 0 0)
(0.0113107 0 0)
(0.0133672 0 0)
(0.0154236 0 0)
(0.01748 0 0)
(0.0195364 0 0)
(0.0215928 0 0)
(0.0236492 0 0)
(0.0257055 0 0)
(0.0277618 0 0)
(0.0298181 0 0)
(0.0318744 0 0)
(0.0339306 0 0)
(0.0359867 0 0)
(0.0380429 0 0)
(0.0400989 0 0)
(0.042155 0 0)
(0.044211 0 0)
(0.0462669 0 0)
(0.0483228 0 0)
(0.0503786 0 0)
(0.0524344 0 0)
(0.0544901 0 0)
(0.0565458 0 0)
(0.0586014 0 0)
(0.0606569 0 0)
(0.0627123 0 0)
(0.0647677 0 0)
(0.066823 0 0)
(0.0688783 0 0)
(0.0709334 0 0)
(0.0729885 0 0)
(0.0750435 0 0)
(0.0770984 0 0)
(0.0791532 0 0)
(0.0812079 0 0)
(0.0832626 0 0)
(0.0853171 0 0)
(0.0873715 0 0)
(0.0894259 0 0)
(0.0914801 0 0)
(0.0935343 0 0)
(0.0955883 0 0)
(0.0976422 0 0)
(0.099696 0 0)
(0.10175 0 0)
(0.103803 0 0)
(0.105857 0 0)
(0.10791 0 0)
(0.109963 0 0)
(0.112016 0 0)
(0.114069 0 0)
(0.116122 0 0)
(0.118175 0 0)
(0.120227 0 0)
(0.12228 0 0)
(0.124332 0 0)
(0.126384 0 0)
(0.128436 0 0)
(0.130488 0 0)
(0.13254 0 0)
(0.134591 0 0)
(0.136643 0 0)
(0.138694 0 0)
(0.140745 0 0)
(0.142796 0 0)
(0.144847 0 0)
(0.146897 0 0)
(0.148947 0 0)
(0.150998 0 0)
(0.153048 0 0)
(0.155098 0 0)
(0.157147 0 0)
(0.159197 0 0)
(0.161246 0 0)
(0.163295 0 0)
(0.165344 0 0)
(0.167393 0 0)
(0.169441 0 0)
(0.17149 0 0)
(0.173538 0 0)
(0.175586 0 0)
(0.177634 0 0)
(0.179681 0 0)
(0.181728 0 0)
(0.183776 0 0)
(0.185822 0 0)
(0.187869 0 0)
(0.189916 0 0)
(0.191962 0 0)
(0.194008 0 0)
(0.196054 0 0)
(0.198099 0 0)
(0.200144 0 0)
(0.20219 0 0)
(0.204234 0 0)
(0.206279 0 0)
(0.208323 0 0)
(0.210367 0 0)
(0.212411 0 0)
(0.214455 0 0)
(0.216498 0 0)
(0.218541 0 0)
(0.220584 0 0)
(0.222627 0 0)
(0.224669 0 0)
(0.226711 0 0)
(0.228753 0 0)
(0.230794 0 0)
(0.232835 0 0)
(0.234876 0 0)
(0.236917 0 0)
(0.238957 0 0)
(0.240997 0 0)
(0.243037 0 0)
(0.245076 0 0)
(0.247116 0 0)
(0.249154 0 0)
(0.251193 0 0)
(0.253231 0 0)
(0.255269 0 0)
(0.257307 0 0)
(0.259344 0 0)
(0.261381 0 0)
(0.263418 0 0)
(0.265454 0 0)
(0.26749 0 0)
(0.269526 0 0)
(0.271561 0 0)
(0.273596 0 0)
(0.275631 0 0)
(0.277665 0 0)
(0.279699 0 0)
(0.281733 0 0)
(0.283766 0 0)
(0.285799 0 0)
(0.287832 0 0)
(0.289864 0 0)
(0.291896 0 0)
(0.293928 0 0)
(0.295959 0 0)
(0.29799 0 0)
(0.30002 0 0)
(0.30205 0 0)
(0.30408 0 0)
(0.306109 0 0)
(0.308138 0 0)
(0.310167 0 0)
(0.312195 0 0)
(0.314222 0 0)
(0.31625 0 0)
(0.318277 0 0)
(0.320303 0 0)
(0.322329 0 0)
(0.324355 0 0)
(0.32638 0 0)
(0.328405 0 0)
(0.33043 0 0)
(0.332454 0 0)
(0.334477 0 0)
(0.3365 0 0)
(0.338523 0 0)
(0.340545 0 0)
(0.342567 0 0)
(0.344589 0 0)
(0.34661 0 0)
(0.34863 0 0)
(0.35065 0 0)
(0.35267 0 0)
(0.354689 0 0)
(0.356707 0 0)
(0.358726 0 0)
(0.360743 0 0)
(0.362761 0 0)
(0.364777 0 0)
(0.366794 0 0)
(0.36881 0 0)
(0.370825 0 0)
(0.37284 0 0)
(0.374854 0 0)
(0.376868 0 0)
(0.378881 0 0)
(0.380894 0 0)
(0.382906 0 0)
(0.384918 0 0)
(0.386929 0 0)
(0.38894 0 0)
(0.39095 0 0)
(0.39296 0 0)
(0.394969 0 0)
(0.396978 0 0)
(0.398986 0 0)
(0.400993 0 0)
(0.403 0 0)
(0.405007 0 0)
(0.407013 0 0)
(0.409018 0 0)
(0.411023 0 0)
(0.413027 0 0)
(0.41503 0 0)
(0.417033 0 0)
(0.419036 0 0)
(0.421038 0 0)
(0.423039 0 0)
(0.42504 0 0)
(0.42704 0 0)
(0.429039 0 0)
(0.431038 0 0)
(0.433036 0 0)
(0.435034 0 0)
(0.437031 0 0)
(0.439028 0 0)
(0.441023 0 0)
(0.443018 0 0)
(0.445013 0 0)
(0.447007 0 0)
(0.449 0 0)
(0.450993 0 0)
(0.452985 0 0)
(0.454976 0 0)
(0.456966 0 0)
(0.458956 0 0)
(0.460946 0 0)
(0.462934 0 0)
(0.464922 0 0)
(0.466909 0 0)
(0.468896 0 0)
(0.470882 0 0)
(0.472867 0 0)
(0.474852 0 0)
(0.476835 0 0)
(0.478818 0 0)
(0.480801 0 0)
(0.482782 0 0)
(0.484763 0 0)
(0.486743 0 0)
(0.488723 0 0)
(0.490701 0 0)
(0.492679 0 0)
(0.494656 0 0)
(0.496633 0 0)
(0.498608 0 0)
(0.500583 0 0)
(0.502557 0 0)
(0.504531 0 0)
(0.506503 0 0)
(0.508475 0 0)
(0.510446 0 0)
(0.512416 0 0)
(0.514385 0 0)
(0.516354 0 0)
(0.518322 0 0)
(0.520288 0 0)
(0.522255 0 0)
(0.52422 0 0)
(0.526184 0 0)
(0.528148 0 0)
(0.53011 0 0)
(0.532072 0 0)
(0.534033 0 0)
(0.535993 0 0)
(0.537953 0 0)
(0.539911 0 0)
(0.541868 0 0)
(0.543825 0 0)
(0.545781 0 0)
(0.547736 0 0)
(0.549689 0 0)
(0.551642 0 0)
(0.553594 0 0)
(0.555546 0 0)
(0.557496 0 0)
(0.559445 0 0)
(0.561393 0 0)
(0.563341 0 0)
(0.565287 0 0)
(0.567233 0 0)
(0.569177 0 0)
(0.57112 0 0)
(0.573063 0 0)
(0.575004 0 0)
(0.576945 0 0)
(0.578884 0 0)
(0.580823 0 0)
(0.58276 0 0)
(0.584697 0 0)
(0.586632 0 0)
(0.588566 0 0)
(0.5905 0 0)
(0.592432 0 0)
(0.594363 0 0)
(0.596293 0 0)
(0.598222 0 0)
(0.60015 0 0)
(0.602077 0 0)
(0.604003 0 0)
(0.605928 0 0)
(0.607851 0 0)
(0.609773 0 0)
(0.611695 0 0)
(0.613615 0 0)
(0.615534 0 0)
(0.617452 0 0)
(0.619368 0 0)
(0.621284 0 0)
(0.623198 0 0)
(0.625111 0 0)
(0.627023 0 0)
(0.628934 0 0)
(0.630843 0 0)
(0.632752 0 0)
(0.634659 0 0)
(0.636564 0 0)
(0.638469 0 0)
(0.640372 0 0)
(0.642274 0 0)
(0.644175 0 0)
(0.646074 0 0)
(0.647972 0 0)
(0.649869 0 0)
(0.651765 0 0)
(0.653659 0 0)
(0.655552 0 0)
(0.657443 0 0)
(0.659334 0 0)
(0.661222 0 0)
(0.66311 0 0)
(0.664996 0 0)
(0.66688 0 0)
(0.668764 0 0)
(0.670646 0 0)
(0.672526 0 0)
(0.674405 0 0)
(0.676282 0 0)
(0.678158 0 0)
(0.680033 0 0)
(0.681906 0 0)
(0.683778 0 0)
(0.685648 0 0)
(0.687516 0 0)
(0.689383 0 0)
(0.691249 0 0)
(0.693113 0 0)
(0.694975 0 0)
(0.696836 0 0)
(0.698695 0 0)
(0.700553 0 0)
(0.702409 0 0)
(0.704263 0 0)
(0.706116 0 0)
(0.707967 0 0)
(0.709816 0 0)
(0.711664 0 0)
(0.71351 0 0)
(0.715355 0 0)
(0.717197 0 0)
(0.719038 0 0)
(0.720877 0 0)
(0.722715 0 0)
(0.72455 0 0)
(0.726384 0 0)
(0.728216 0 0)
(0.730046 0 0)
(0.731875 0 0)
(0.733701 0 0)
(0.735526 0 0)
(0.737349 0 0)
(0.73917 0 0)
(0.740989 0 0)
(0.742806 0 0)
(0.744621 0 0)
(0.746434 0 0)
(0.748245 0 0)
(0.750054 0 0)
(0.751861 0 0)
(0.753666 0 0)
(0.755469 0 0)
(0.75727 0 0)
(0.759069 0 0)
(0.760866 0 0)
(0.762661 0 0)
(0.764454 0 0)
(0.766244 0 0)
(0.768032 0 0)
(0.769818 0 0)
(0.771602 0 0)
(0.773384 0 0)
(0.775163 0 0)
(0.77694 0 0)
(0.778715 0 0)
(0.780487 0 0)
(0.782257 0 0)
(0.78402 0 0)
(0.785393 0 0)
(0.756159 0 0)
(0.390689 0 0)
(-0.38947 0 0)
(-0.755958 0 0)
(-0.785387 0 0)
(-0.784018 0 0)
(-0.782255 0 0)
(-0.780485 0 0)
(-0.778712 0 0)
(-0.776938 0 0)
(-0.775161 0 0)
(-0.773381 0 0)
(-0.7716 0 0)
(-0.769816 0 0)
(-0.76803 0 0)
(-0.766242 0 0)
(-0.764451 0 0)
(-0.762659 0 0)
(-0.760864 0 0)
(-0.759067 0 0)
(-0.757268 0 0)
(-0.755467 0 0)
(-0.753664 0 0)
(-0.751859 0 0)
(-0.750052 0 0)
(-0.748243 0 0)
(-0.746431 0 0)
(-0.744618 0 0)
(-0.742803 0 0)
(-0.740986 0 0)
(-0.739167 0 0)
(-0.737346 0 0)
(-0.735524 0 0)
(-0.733699 0 0)
(-0.731872 0 0)
(-0.730044 0 0)
(-0.728214 0 0)
(-0.726382 0 0)
(-0.724548 0 0)
(-0.722712 0 0)
(-0.720875 0 0)
(-0.719036 0 0)
(-0.717195 0 0)
(-0.715352 0 0)
(-0.713508 0 0)
(-0.711662 0 0)
(-0.709814 0 0)
(-0.707965 0 0)
(-0.706114 0 0)
(-0.704261 0 0)
(-0.702407 0 0)
(-0.700551 0 0)
(-0.698693 0 0)
(-0.696834 0 0)
(-0.694973 0 0)
(-0.693111 0 0)
(-0.691247 0 0)
(-0.689381 0 0)
(-0.687514 0 0)
(-0.685646 0 0)
(-0.683775 0 0)
(-0.681904 0 0)
(-0.680031 0 0)
(-0.678156 0 0)
(-0.67628 0 0)
(-0.674403 0 0)
(-0.672524 0 0)
(-0.670643 0 0)
(-0.668762 0 0)
(-0.666878 0 0)
(-0.664994 0 0)
(-0.663108 0 0)
(-0.66122 0 0)
(-0.659331 0 0)
(-0.657441 0 0)
(-0.65555 0 0)
(-0.653657 0 0)
(-0.651763 0 0)
(-0.649867 0 0)
(-0.64797 0 0)
(-0.646072 0 0)
(-0.644173 0 0)
(-0.642272 0 0)
(-0.64037 0 0)
(-0.638467 0 0)
(-0.636562 0 0)
(-0.634657 0 0)
(-0.63275 0 0)
(-0.630841 0 0)
(-0.628932 0 0)
(-0.627021 0 0)
(-0.625109 0 0)
(-0.623196 0 0)
(-0.621282 0 0)
(-0.619366 0 0)
(-0.61745 0 0)
(-0.615532 0 0)
(-0.613613 0 0)
(-0.611693 0 0)
(-0.609772 0 0)
(-0.607849 0 0)
(-0.605926 0 0)
(-0.604001 0 0)
(-0.602075 0 0)
(-0.600148 0 0)
(-0.598221 0 0)
(-0.596292 0 0)
(-0.594361 0 0)
(-0.59243 0 0)
(-0.590498 0 0)
(-0.588565 0 0)
(-0.58663 0 0)
(-0.584695 0 0)
(-0.582759 0 0)
(-0.580821 0 0)
(-0.578883 0 0)
(-0.576943 0 0)
(-0.575003 0 0)
(-0.573061 0 0)
(-0.571119 0 0)
(-0.569175 0 0)
(-0.567231 0 0)
(-0.565285 0 0)
(-0.563339 0 0)
(-0.561392 0 0)
(-0.559443 0 0)
(-0.557494 0 0)
(-0.555544 0 0)
(-0.553593 0 0)
(-0.551641 0 0)
(-0.549688 0 0)
(-0.547734 0 0)
(-0.545779 0 0)
(-0.543824 0 0)
(-0.541867 0 0)
(-0.539909 0 0)
(-0.537951 0 0)
(-0.535992 0 0)
(-0.534032 0 0)
(-0.532071 0 0)
(-0.530109 0 0)
(-0.528146 0 0)
(-0.526183 0 0)
(-0.524218 0 0)
(-0.522253 0 0)
(-0.520287 0 0)
(-0.51832 0 0)
(-0.516352 0 0)
(-0.514384 0 0)
(-0.512415 0 0)
(-0.510444 0 0)
(-0.508473 0 0)
(-0.506502 0 0)
(-0.504529 0 0)
(-0.502556 0 0)
(-0.500582 0 0)
(-0.498607 0 0)
(-0.496631 0 0)
(-0.494655 0 0)
(-0.492678 0 0)
(-0.4907 0 0)
(-0.488721 0 0)
(-0.486742 0 0)
(-0.484762 0 0)
(-0.482781 0 0)
(-0.480799 0 0)
(-0.478817 0 0)
(-0.476834 0 0)
(-0.47485 0 0)
(-0.472866 0 0)
(-0.470881 0 0)
(-0.468895 0 0)
(-0.466908 0 0)
(-0.464921 0 0)
(-0.462933 0 0)
(-0.460945 0 0)
(-0.458955 0 0)
(-0.456965 0 0)
(-0.454975 0 0)
(-0.452983 0 0)
(-0.450992 0 0)
(-0.448999 0 0)
(-0.447006 0 0)
(-0.445012 0 0)
(-0.443017 0 0)
(-0.441022 0 0)
(-0.439026 0 0)
(-0.43703 0 0)
(-0.435033 0 0)
(-0.433035 0 0)
(-0.431037 0 0)
(-0.429038 0 0)
(-0.427039 0 0)
(-0.425039 0 0)
(-0.423038 0 0)
(-0.421037 0 0)
(-0.419035 0 0)
(-0.417032 0 0)
(-0.415029 0 0)
(-0.413026 0 0)
(-0.411022 0 0)
(-0.409017 0 0)
(-0.407012 0 0)
(-0.405006 0 0)
(-0.402999 0 0)
(-0.400992 0 0)
(-0.398985 0 0)
(-0.396977 0 0)
(-0.394968 0 0)
(-0.392959 0 0)
(-0.390949 0 0)
(-0.388939 0 0)
(-0.386928 0 0)
(-0.384917 0 0)
(-0.382905 0 0)
(-0.380893 0 0)
(-0.37888 0 0)
(-0.376867 0 0)
(-0.374853 0 0)
(-0.372839 0 0)
(-0.370824 0 0)
(-0.368809 0 0)
(-0.366793 0 0)
(-0.364777 0 0)
(-0.36276 0 0)
(-0.360743 0 0)
(-0.358725 0 0)
(-0.356707 0 0)
(-0.354688 0 0)
(-0.352669 0 0)
(-0.350649 0 0)
(-0.348629 0 0)
(-0.346609 0 0)
(-0.344588 0 0)
(-0.342567 0 0)
(-0.340545 0 0)
(-0.338522 0 0)
(-0.3365 0 0)
(-0.334477 0 0)
(-0.332453 0 0)
(-0.330429 0 0)
(-0.328404 0 0)
(-0.32638 0 0)
(-0.324354 0 0)
(-0.322329 0 0)
(-0.320303 0 0)
(-0.318276 0 0)
(-0.316249 0 0)
(-0.314222 0 0)
(-0.312194 0 0)
(-0.310166 0 0)
(-0.308138 0 0)
(-0.306109 0 0)
(-0.304079 0 0)
(-0.30205 0 0)
(-0.30002 0 0)
(-0.297989 0 0)
(-0.295958 0 0)
(-0.293927 0 0)
(-0.291896 0 0)
(-0.289864 0 0)
(-0.287832 0 0)
(-0.285799 0 0)
(-0.283766 0 0)
(-0.281733 0 0)
(-0.279699 0 0)
(-0.277665 0 0)
(-0.275631 0 0)
(-0.273596 0 0)
(-0.271561 0 0)
(-0.269526 0 0)
(-0.26749 0 0)
(-0.265454 0 0)
(-0.263417 0 0)
(-0.261381 0 0)
(-0.259344 0 0)
(-0.257306 0 0)
(-0.255269 0 0)
(-0.253231 0 0)
(-0.251193 0 0)
(-0.249154 0 0)
(-0.247115 0 0)
(-0.245076 0 0)
(-0.243037 0 0)
(-0.240997 0 0)
(-0.238957 0 0)
(-0.236916 0 0)
(-0.234876 0 0)
(-0.232835 0 0)
(-0.230794 0 0)
(-0.228752 0 0)
(-0.226711 0 0)
(-0.224669 0 0)
(-0.222626 0 0)
(-0.220584 0 0)
(-0.218541 0 0)
(-0.216498 0 0)
(-0.214455 0 0)
(-0.212411 0 0)
(-0.210367 0 0)
(-0.208323 0 0)
(-0.206279 0 0)
(-0.204234 0 0)
(-0.202189 0 0)
(-0.200144 0 0)
(-0.198099 0 0)
(-0.196053 0 0)
(-0.194008 0 0)
(-0.191962 0 0)
(-0.189915 0 0)
(-0.187869 0 0)
(-0.185822 0 0)
(-0.183775 0 0)
(-0.181728 0 0)
(-0.179681 0 0)
(-0.177633 0 0)
(-0.175586 0 0)
(-0.173538 0 0)
(-0.17149 0 0)
(-0.169441 0 0)
(-0.167393 0 0)
(-0.165344 0 0)
(-0.163295 0 0)
(-0.161246 0 0)
(-0.159197 0 0)
(-0.157147 0 0)
(-0.155097 0 0)
(-0.153048 0 0)
(-0.150998 0 0)
(-0.148947 0 0)
(-0.146897 0 0)
(-0.144846 0 0)
(-0.142796 0 0)
(-0.140745 0 0)
(-0.138694 0 0)
(-0.136642 0 0)
(-0.134591 0 0)
(-0.13254 0 0)
(-0.130488 0 0)
(-0.128436 0 0)
(-0.126384 0 0)
(-0.124332 0 0)
(-0.12228 0 0)
(-0.120227 0 0)
(-0.118175 0 0)
(-0.116122 0 0)
(-0.114069 0 0)
(-0.112016 0 0)
(-0.109963 0 0)
(-0.10791 0 0)
(-0.105857 0 0)
(-0.103803 0 0)
(-0.10175 0 0)
(-0.0996959 0 0)
(-0.0976421 0 0)
(-0.0955882 0 0)
(-0.0935342 0 0)
(-0.0914801 0 0)
(-0.0894258 0 0)
(-0.0873715 0 0)
(-0.085317 0 0)
(-0.0832625 0 0)
(-0.0812079 0 0)
(-0.0791532 0 0)
(-0.0770983 0 0)
(-0.0750434 0 0)
(-0.0729885 0 0)
(-0.0709334 0 0)
(-0.0688782 0 0)
(-0.066823 0 0)
(-0.0647677 0 0)
(-0.0627123 0 0)
(-0.0606569 0 0)
(-0.0586013 0 0)
(-0.0565458 0 0)
(-0.0544901 0 0)
(-0.0524344 0 0)
(-0.0503786 0 0)
(-0.0483228 0 0)
(-0.0462669 0 0)
(-0.044211 0 0)
(-0.042155 0 0)
(-0.0400989 0 0)
(-0.0380429 0 0)
(-0.0359867 0 0)
(-0.0339306 0 0)
(-0.0318744 0 0)
(-0.0298181 0 0)
(-0.0277618 0 0)
(-0.0257055 0 0)
(-0.0236492 0 0)
(-0.0215928 0 0)
(-0.0195365 0 0)
(-0.01748 0 0)
(-0.0154236 0 0)
(-0.0133672 0 0)
(-0.0113107 0 0)
(-0.00925423 0 0)
(-0.00719775 0 0)
(-0.00514125 0 0)
(-0.00308475 0 0)
(-0.00102825 0 0)
)
;

boundaryField
{
    left
    {
        type            fixedValue;
        value           uniform (0 0 0);
    }
    right
    {
        type            fixedValue;
        value           uniform (0 0 0);
    }
    frontBackUpDown
    {
        type            empty;
    }
}


// ************************************************************************* //
