/*--------------------------------*- C++ -*----------------------------------*\
| =========                 |                                                 |
| \\      /  F ield         | OpenFOAM: The Open Source CFD Toolbox           |
|  \\    /   O peration     | Version:  2412                                  |
|   \\  /    A nd           | Website:  www.openfoam.com                      |
|    \\/     M anipulation  |                                                 |
\*---------------------------------------------------------------------------*/
FoamFile
{
    version     2.0;
    format      ascii;
    arch        "LSB;label=32;scalar=64";
    class       volVectorField;
    location    "0.18";
    object      U_0_0;
}
// * * * * * * * * * * * * * * * * * * * * * * * * * * * * * * * * * * * * * //

dimensions      [0 1 -1 0 0 0 0];

internalField   nonuniform List<vector> 
800
(
(0.00251314 0 0)
(0.00753946 0 0)
(0.0125657 0 0)
(0.0175917 0 0)
(0.0226174 0 0)
(0.0276428 0 0)
(0.0326677 0 0)
(0.037692 0 0)
(0.0427158 0 0)
(0.0477389 0 0)
(0.0527611 0 0)
(0.0577826 0 0)
(0.0628031 0 0)
(0.0678225 0 0)
(0.0728409 0 0)
(0.0778581 0 0)
(0.082874 0 0)
(0.0878885 0 0)
(0.0929016 0 0)
(0.0979132 0 0)
(0.102923 0 0)
(0.107932 0 0)
(0.112938 0 0)
(0.117943 0 0)
(0.122946 0 0)
(0.127946 0 0)
(0.132945 0 0)
(0.137941 0 0)
(0.142936 0 0)
(0.147928 0 0)
(0.152917 0 0)
(0.157904 0 0)
(0.162888 0 0)
(0.16787 0 0)
(0.172849 0 0)
(0.177825 0 0)
(0.182798 0 0)
(0.187768 0 0)
(0.192735 0 0)
(0.197699 0 0)
(0.202659 0 0)
(0.207616 0 0)
(0.21257 0 0)
(0.21752 0 0)
(0.222466 0 0)
(0.227409 0 0)
(0.232348 0 0)
(0.237283 0 0)
(0.242214 0 0)
(0.247141 0 0)
(0.252064 0 0)
(0.256983 0 0)
(0.261897 0 0)
(0.266807 0 0)
(0.271712 0 0)
(0.276613 0 0)
(0.281509 0 0)
(0.286401 0 0)
(0.291287 0 0)
(0.296169 0 0)
(0.301045 0 0)
(0.305916 0 0)
(0.310782 0 0)
(0.315643 0 0)
(0.320499 0 0)
(0.325348 0 0)
(0.330193 0 0)
(0.335031 0 0)
(0.339864 0 0)
(0.344691 0 0)
(0.349511 0 0)
(0.354326 0 0)
(0.359135 0 0)
(0.363937 0 0)
(0.368733 0 0)
(0.373522 0 0)
(0.378305 0 0)
(0.383082 0 0)
(0.387851 0 0)
(0.392614 0 0)
(0.397369 0 0)
(0.402118 0 0)
(0.406859 0 0)
(0.411593 0 0)
(0.41632 0 0)
(0.42104 0 0)
(0.425751 0 0)
(0.430455 0 0)
(0.435152 0 0)
(0.43984 0 0)
(0.444521 0 0)
(0.449193 0 0)
(0.453857 0 0)
(0.458513 0 0)
(0.46316 0 0)
(0.467799 0 0)
(0.472429 0 0)
(0.477051 0 0)
(0.481664 0 0)
(0.486267 0 0)
(0.490862 0 0)
(0.495447 0 0)
(0.500024 0 0)
(0.50459 0 0)
(0.509148 0 0)
(0.513695 0 0)
(0.518233 0 0)
(0.522761 0 0)
(0.527279 0 0)
(0.531787 0 0)
(0.536284 0 0)
(0.540771 0 0)
(0.545248 0 0)
(0.549714 0 0)
(0.55417 0 0)
(0.558614 0 0)
(0.563048 0 0)
(0.567471 0 0)
(0.571882 0 0)
(0.576282 0 0)
(0.580671 0 0)
(0.585048 0 0)
(0.589413 0 0)
(0.593766 0 0)
(0.598108 0 0)
(0.602437 0 0)
(0.606754 0 0)
(0.611058 0 0)
(0.61535 0 0)
(0.61963 0 0)
(0.623896 0 0)
(0.62815 0 0)
(0.632391 0 0)
(0.636618 0 0)
(0.640832 0 0)
(0.645032 0 0)
(0.649219 0 0)
(0.653392 0 0)
(0.657551 0 0)
(0.661696 0 0)
(0.665827 0 0)
(0.669943 0 0)
(0.674045 0 0)
(0.678132 0 0)
(0.682204 0 0)
(0.686261 0 0)
(0.690303 0 0)
(0.69433 0 0)
(0.698341 0 0)
(0.702337 0 0)
(0.706316 0 0)
(0.71028 0 0)
(0.714227 0 0)
(0.718159 0 0)
(0.722073 0 0)
(0.725971 0 0)
(0.729852 0 0)
(0.733716 0 0)
(0.737563 0 0)
(0.741393 0 0)
(0.745205 0 0)
(0.748999 0 0)
(0.752776 0 0)
(0.756534 0 0)
(0.760274 0 0)
(0.763995 0 0)
(0.767698 0 0)
(0.771382 0 0)
(0.775047 0 0)
(0.778692 0 0)
(0.782318 0 0)
(0.785925 0 0)
(0.789511 0 0)
(0.793078 0 0)
(0.796624 0 0)
(0.80015 0 0)
(0.803655 0 0)
(0.807139 0 0)
(0.810602 0 0)
(0.814043 0 0)
(0.817463 0 0)
(0.820861 0 0)
(0.824237 0 0)
(0.827591 0 0)
(0.830923 0 0)
(0.834231 0 0)
(0.837517 0 0)
(0.840779 0 0)
(0.844018 0 0)
(0.847233 0 0)
(0.850425 0 0)
(0.853592 0 0)
(0.856735 0 0)
(0.859852 0 0)
(0.862945 0 0)
(0.866013 0 0)
(0.869055 0 0)
(0.872072 0 0)
(0.875062 0 0)
(0.878026 0 0)
(0.880964 0 0)
(0.883874 0 0)
(0.886757 0 0)
(0.889613 0 0)
(0.892441 0 0)
(0.895241 0 0)
(0.898013 0 0)
(0.900756 0 0)
(0.90347 0 0)
(0.906155 0 0)
(0.90881 0 0)
(0.911435 0 0)
(0.91403 0 0)
(0.916594 0 0)
(0.919127 0 0)
(0.921629 0 0)
(0.924099 0 0)
(0.926538 0 0)
(0.928944 0 0)
(0.931317 0 0)
(0.933657 0 0)
(0.935964 0 0)
(0.938237 0 0)
(0.940476 0 0)
(0.94268 0 0)
(0.944849 0 0)
(0.946983 0 0)
(0.949082 0 0)
(0.951144 0 0)
(0.953169 0 0)
(0.955158 0 0)
(0.957109 0 0)
(0.959022 0 0)
(0.960897 0 0)
(0.962733 0 0)
(0.96453 0 0)
(0.966287 0 0)
(0.968004 0 0)
(0.969681 0 0)
(0.971316 0 0)
(0.97291 0 0)
(0.974462 0 0)
(0.975972 0 0)
(0.977438 0 0)
(0.978861 0 0)
(0.98024 0 0)
(0.981574 0 0)
(0.982863 0 0)
(0.984106 0 0)
(0.985303 0 0)
(0.986453 0 0)
(0.987556 0 0)
(0.98861 0 0)
(0.989617 0 0)
(0.990573 0 0)
(0.991481 0 0)
(0.992337 0 0)
(0.993143 0 0)
(0.993897 0 0)
(0.994598 0 0)
(0.995246 0 0)
(0.995841 0 0)
(0.996381 0 0)
(0.996866 0 0)
(0.997296 0 0)
(0.997669 0 0)
(0.997984 0 0)
(0.998241 0 0)
(0.99844 0 0)
(0.998579 0 0)
(0.998658 0 0)
(0.998675 0 0)
(0.998631 0 0)
(0.998523 0 0)
(0.998352 0 0)
(0.998117 0 0)
(0.997816 0 0)
(0.997448 0 0)
(0.997014 0 0)
(0.996511 0 0)
(0.99594 0 0)
(0.995298 0 0)
(0.994585 0 0)
(0.9938 0 0)
(0.992942 0 0)
(0.99201 0 0)
(0.991003 0 0)
(0.98992 0 0)
(0.98876 0 0)
(0.987521 0 0)
(0.986202 0 0)
(0.984803 0 0)
(0.983322 0 0)
(0.981759 0 0)
(0.98011 0 0)
(0.978377 0 0)
(0.976556 0 0)
(0.974648 0 0)
(0.97265 0 0)
(0.970562 0 0)
(0.968381 0 0)
(0.966107 0 0)
(0.963739 0 0)
(0.961274 0 0)
(0.958711 0 0)
(0.956049 0 0)
(0.953286 0 0)
(0.950421 0 0)
(0.947453 0 0)
(0.944378 0 0)
(0.941197 0 0)
(0.937907 0 0)
(0.934506 0 0)
(0.930993 0 0)
(0.927367 0 0)
(0.923624 0 0)
(0.919764 0 0)
(0.915785 0 0)
(0.911684 0 0)
(0.90746 0 0)
(0.903111 0 0)
(0.898635 0 0)
(0.89403 0 0)
(0.889293 0 0)
(0.884424 0 0)
(0.879419 0 0)
(0.874276 0 0)
(0.868994 0 0)
(0.86357 0 0)
(0.858002 0 0)
(0.852287 0 0)
(0.846424 0 0)
(0.84041 0 0)
(0.834242 0 0)
(0.827919 0 0)
(0.821437 0 0)
(0.814795 0 0)
(0.80799 0 0)
(0.80102 0 0)
(0.793882 0 0)
(0.786573 0 0)
(0.779091 0 0)
(0.771434 0 0)
(0.763599 0 0)
(0.755583 0 0)
(0.747385 0 0)
(0.739001 0 0)
(0.730429 0 0)
(0.721666 0 0)
(0.712711 0 0)
(0.70356 0 0)
(0.694212 0 0)
(0.684663 0 0)
(0.674913 0 0)
(0.664957 0 0)
(0.654796 0 0)
(0.644426 0 0)
(0.633845 0 0)
(0.623051 0 0)
(0.612044 0 0)
(0.600821 0 0)
(0.589381 0 0)
(0.577722 0 0)
(0.565844 0 0)
(0.553746 0 0)
(0.541427 0 0)
(0.528886 0 0)
(0.516123 0 0)
(0.503139 0 0)
(0.489934 0 0)
(0.476508 0 0)
(0.462863 0 0)
(0.448999 0 0)
(0.434919 0 0)
(0.420624 0 0)
(0.406117 0 0)
(0.391401 0 0)
(0.37648 0 0)
(0.361356 0 0)
(0.346035 0 0)
(0.33052 0 0)
(0.314817 0 0)
(0.298933 0 0)
(0.282872 0 0)
(0.266642 0 0)
(0.25025 0 0)
(0.233703 0 0)
(0.21701 0 0)
(0.200179 0 0)
(0.183219 0 0)
(0.166141 0 0)
(0.148953 0 0)
(0.131667 0 0)
(0.114293 0 0)
(0.0968413 0 0)
(0.0793243 0 0)
(0.0617532 0 0)
(0.0441398 0 0)
(0.0264961 0 0)
(0.00883409 0 0)
(-0.00883395 0 0)
(-0.0264959 0 0)
(-0.0441396 0 0)
(-0.0617529 0 0)
(-0.079324 0 0)
(-0.0968409 0 0)
(-0.114292 0 0)
(-0.131666 0 0)
(-0.148953 0 0)
(-0.16614 0 0)
(-0.183218 0 0)
(-0.200178 0 0)
(-0.217008 0 0)
(-0.233701 0 0)
(-0.250248 0 0)
(-0.26664 0 0)
(-0.28287 0 0)
(-0.29893 0 0)
(-0.314815 0 0)
(-0.330517 0 0)
(-0.346031 0 0)
(-0.361353 0 0)
(-0.376476 0 0)
(-0.391398 0 0)
(-0.406114 0 0)
(-0.42062 0 0)
(-0.434915 0 0)
(-0.448995 0 0)
(-0.462858 0 0)
(-0.476504 0 0)
(-0.489929 0 0)
(-0.503134 0 0)
(-0.516118 0 0)
(-0.528881 0 0)
(-0.541422 0 0)
(-0.553741 0 0)
(-0.565839 0 0)
(-0.577717 0 0)
(-0.589376 0 0)
(-0.600816 0 0)
(-0.612039 0 0)
(-0.623046 0 0)
(-0.633839 0 0)
(-0.64442 0 0)
(-0.654791 0 0)
(-0.664952 0 0)
(-0.674907 0 0)
(-0.684658 0 0)
(-0.694206 0 0)
(-0.703555 0 0)
(-0.712706 0 0)
(-0.721661 0 0)
(-0.730424 0 0)
(-0.738996 0 0)
(-0.74738 0 0)
(-0.755579 0 0)
(-0.763594 0 0)
(-0.77143 0 0)
(-0.779087 0 0)
(-0.786569 0 0)
(-0.793878 0 0)
(-0.801016 0 0)
(-0.807987 0 0)
(-0.814792 0 0)
(-0.821434 0 0)
(-0.827915 0 0)
(-0.834239 0 0)
(-0.840406 0 0)
(-0.846421 0 0)
(-0.852284 0 0)
(-0.857999 0 0)
(-0.863567 0 0)
(-0.868991 0 0)
(-0.874273 0 0)
(-0.879416 0 0)
(-0.884421 0 0)
(-0.889291 0 0)
(-0.894027 0 0)
(-0.898633 0 0)
(-0.903109 0 0)
(-0.907458 0 0)
(-0.911682 0 0)
(-0.915783 0 0)
(-0.919762 0 0)
(-0.923622 0 0)
(-0.927365 0 0)
(-0.930992 0 0)
(-0.934505 0 0)
(-0.937905 0 0)
(-0.941196 0 0)
(-0.944377 0 0)
(-0.947451 0 0)
(-0.95042 0 0)
(-0.953285 0 0)
(-0.956048 0 0)
(-0.95871 0 0)
(-0.961273 0 0)
(-0.963738 0 0)
(-0.966107 0 0)
(-0.968381 0 0)
(-0.970561 0 0)
(-0.97265 0 0)
(-0.974647 0 0)
(-0.976556 0 0)
(-0.978376 0 0)
(-0.98011 0 0)
(-0.981758 0 0)
(-0.983322 0 0)
(-0.984803 0 0)
(-0.986202 0 0)
(-0.98752 0 0)
(-0.988759 0 0)
(-0.98992 0 0)
(-0.991003 0 0)
(-0.99201 0 0)
(-0.992942 0 0)
(-0.9938 0 0)
(-0.994585 0 0)
(-0.995298 0 0)
(-0.99594 0 0)
(-0.996511 0 0)
(-0.997014 0 0)
(-0.997448 0 0)
(-0.997816 0 0)
(-0.998117 0 0)
(-0.998352 0 0)
(-0.998523 0 0)
(-0.998631 0 0)
(-0.998675 0 0)
(-0.998658 0 0)
(-0.998579 0 0)
(-0.99844 0 0)
(-0.998241 0 0)
(-0.997984 0 0)
(-0.997669 0 0)
(-0.997296 0 0)
(-0.996866 0 0)
(-0.996381 0 0)
(-0.995841 0 0)
(-0.995246 0 0)
(-0.994598 0 0)
(-0.993896 0 0)
(-0.993143 0 0)
(-0.992337 0 0)
(-0.99148 0 0)
(-0.990573 0 0)
(-0.989616 0 0)
(-0.98861 0 0)
(-0.987556 0 0)
(-0.986453 0 0)
(-0.985303 0 0)
(-0.984106 0 0)
(-0.982863 0 0)
(-0.981574 0 0)
(-0.980239 0 0)
(-0.978861 0 0)
(-0.977438 0 0)
(-0.975972 0 0)
(-0.974462 0 0)
(-0.97291 0 0)
(-0.971316 0 0)
(-0.96968 0 0)
(-0.968004 0 0)
(-0.966287 0 0)
(-0.964529 0 0)
(-0.962732 0 0)
(-0.960896 0 0)
(-0.959021 0 0)
(-0.957108 0 0)
(-0.955157 0 0)
(-0.953168 0 0)
(-0.951143 0 0)
(-0.949081 0 0)
(-0.946983 0 0)
(-0.944849 0 0)
(-0.942679 0 0)
(-0.940475 0 0)
(-0.938236 0 0)
(-0.935963 0 0)
(-0.933656 0 0)
(-0.931316 0 0)
(-0.928943 0 0)
(-0.926537 0 0)
(-0.924098 0 0)
(-0.921628 0 0)
(-0.919126 0 0)
(-0.916593 0 0)
(-0.914029 0 0)
(-0.911434 0 0)
(-0.908809 0 0)
(-0.906154 0 0)
(-0.903469 0 0)
(-0.900755 0 0)
(-0.898012 0 0)
(-0.89524 0 0)
(-0.89244 0 0)
(-0.889612 0 0)
(-0.886756 0 0)
(-0.883873 0 0)
(-0.880962 0 0)
(-0.878025 0 0)
(-0.875061 0 0)
(-0.872071 0 0)
(-0.869054 0 0)
(-0.866012 0 0)
(-0.862944 0 0)
(-0.859851 0 0)
(-0.856733 0 0)
(-0.853591 0 0)
(-0.850423 0 0)
(-0.847232 0 0)
(-0.844017 0 0)
(-0.840778 0 0)
(-0.837515 0 0)
(-0.83423 0 0)
(-0.830921 0 0)
(-0.82759 0 0)
(-0.824236 0 0)
(-0.82086 0 0)
(-0.817462 0 0)
(-0.814042 0 0)
(-0.8106 0 0)
(-0.807137 0 0)
(-0.803653 0 0)
(-0.800148 0 0)
(-0.796622 0 0)
(-0.793076 0 0)
(-0.78951 0 0)
(-0.785923 0 0)
(-0.782317 0 0)
(-0.778691 0 0)
(-0.775045 0 0)
(-0.77138 0 0)
(-0.767696 0 0)
(-0.763994 0 0)
(-0.760272 0 0)
(-0.756532 0 0)
(-0.752774 0 0)
(-0.748998 0 0)
(-0.745203 0 0)
(-0.741391 0 0)
(-0.737562 0 0)
(-0.733715 0 0)
(-0.729851 0 0)
(-0.72597 0 0)
(-0.722072 0 0)
(-0.718157 0 0)
(-0.714226 0 0)
(-0.710278 0 0)
(-0.706315 0 0)
(-0.702335 0 0)
(-0.69834 0 0)
(-0.694329 0 0)
(-0.690302 0 0)
(-0.68626 0 0)
(-0.682203 0 0)
(-0.678131 0 0)
(-0.674044 0 0)
(-0.669942 0 0)
(-0.665826 0 0)
(-0.661695 0 0)
(-0.65755 0 0)
(-0.653391 0 0)
(-0.649218 0 0)
(-0.645031 0 0)
(-0.640831 0 0)
(-0.636617 0 0)
(-0.632389 0 0)
(-0.628149 0 0)
(-0.623895 0 0)
(-0.619629 0 0)
(-0.615349 0 0)
(-0.611057 0 0)
(-0.606752 0 0)
(-0.602435 0 0)
(-0.598106 0 0)
(-0.593765 0 0)
(-0.589412 0 0)
(-0.585046 0 0)
(-0.580669 0 0)
(-0.576281 0 0)
(-0.571881 0 0)
(-0.56747 0 0)
(-0.563047 0 0)
(-0.558613 0 0)
(-0.554169 0 0)
(-0.549713 0 0)
(-0.545247 0 0)
(-0.54077 0 0)
(-0.536283 0 0)
(-0.531786 0 0)
(-0.527278 0 0)
(-0.52276 0 0)
(-0.518232 0 0)
(-0.513694 0 0)
(-0.509147 0 0)
(-0.504589 0 0)
(-0.500023 0 0)
(-0.495446 0 0)
(-0.490861 0 0)
(-0.486266 0 0)
(-0.481663 0 0)
(-0.47705 0 0)
(-0.472429 0 0)
(-0.467798 0 0)
(-0.463159 0 0)
(-0.458512 0 0)
(-0.453856 0 0)
(-0.449192 0 0)
(-0.44452 0 0)
(-0.439839 0 0)
(-0.435151 0 0)
(-0.430455 0 0)
(-0.425751 0 0)
(-0.421039 0 0)
(-0.416319 0 0)
(-0.411593 0 0)
(-0.406859 0 0)
(-0.402117 0 0)
(-0.397369 0 0)
(-0.392613 0 0)
(-0.38785 0 0)
(-0.383081 0 0)
(-0.378305 0 0)
(-0.373522 0 0)
(-0.368732 0 0)
(-0.363936 0 0)
(-0.359134 0 0)
(-0.354326 0 0)
(-0.349511 0 0)
(-0.34469 0 0)
(-0.339863 0 0)
(-0.335031 0 0)
(-0.330192 0 0)
(-0.325348 0 0)
(-0.320498 0 0)
(-0.315643 0 0)
(-0.310782 0 0)
(-0.305916 0 0)
(-0.301045 0 0)
(-0.296168 0 0)
(-0.291287 0 0)
(-0.2864 0 0)
(-0.281509 0 0)
(-0.276613 0 0)
(-0.271712 0 0)
(-0.266807 0 0)
(-0.261897 0 0)
(-0.256983 0 0)
(-0.252064 0 0)
(-0.247141 0 0)
(-0.242214 0 0)
(-0.237283 0 0)
(-0.232348 0 0)
(-0.227409 0 0)
(-0.222466 0 0)
(-0.21752 0 0)
(-0.21257 0 0)
(-0.207616 0 0)
(-0.202659 0 0)
(-0.197698 0 0)
(-0.192735 0 0)
(-0.187768 0 0)
(-0.182798 0 0)
(-0.177825 0 0)
(-0.172849 0 0)
(-0.16787 0 0)
(-0.162888 0 0)
(-0.157904 0 0)
(-0.152917 0 0)
(-0.147927 0 0)
(-0.142936 0 0)
(-0.137941 0 0)
(-0.132945 0 0)
(-0.127946 0 0)
(-0.122945 0 0)
(-0.117943 0 0)
(-0.112938 0 0)
(-0.107931 0 0)
(-0.102923 0 0)
(-0.0979132 0 0)
(-0.0929016 0 0)
(-0.0878885 0 0)
(-0.0828739 0 0)
(-0.077858 0 0)
(-0.0728409 0 0)
(-0.0678225 0 0)
(-0.0628031 0 0)
(-0.0577826 0 0)
(-0.0527611 0 0)
(-0.0477389 0 0)
(-0.0427158 0 0)
(-0.0376921 0 0)
(-0.0326677 0 0)
(-0.0276428 0 0)
(-0.0226174 0 0)
(-0.0175917 0 0)
(-0.0125657 0 0)
(-0.00753951 0 0)
(-0.00251318 0 0)
)
;

boundaryField
{
    left
    {
        type            fixedValue;
        value           uniform (0 0 0);
    }
    right
    {
        type            fixedValue;
        value           uniform (0 0 0);
    }
    frontBackUpDown
    {
        type            empty;
    }
}


// ************************************************************************* //
