/*--------------------------------*- C++ -*----------------------------------*\
| =========                 |                                                 |
| \\      /  F ield         | OpenFOAM: The Open Source CFD Toolbox           |
|  \\    /   O peration     | Version:  2412                                  |
|   \\  /    A nd           | Website:  www.openfoam.com                      |
|    \\/     M anipulation  |                                                 |
\*---------------------------------------------------------------------------*/
FoamFile
{
    version     2.0;
    format      ascii;
    arch        "LSB;label=32;scalar=64";
    class       surfaceScalarField;
    location    "0.35";
    object      phi;
}
// * * * * * * * * * * * * * * * * * * * * * * * * * * * * * * * * * * * * * //

dimensions      [0 3 -1 0 0 0 0];

oriented        oriented;

internalField   nonuniform List<scalar> 
799
(
3.74135e-05
7.48271e-05
0.00011224
0.000149653
0.000187064
0.000224474
0.000261882
0.000299289
0.000336694
0.000374097
0.000411497
0.000448894
0.000486288
0.000523679
0.000561066
0.00059845
0.000635829
0.000673205
0.000710575
0.000747941
0.000785302
0.000822658
0.000860007
0.000897352
0.00093469
0.000972021
0.00100935
0.00104666
0.00108398
0.00112128
0.00115858
0.00119586
0.00123314
0.00127042
0.00130768
0.00134493
0.00138218
0.00141941
0.00145664
0.00149386
0.00153106
0.00156826
0.00160544
0.00164261
0.00167978
0.00171693
0.00175406
0.00179119
0.00182831
0.00186541
0.0019025
0.00193957
0.00197663
0.00201368
0.00205071
0.00208773
0.00212474
0.00216173
0.00219871
0.00223567
0.00227261
0.00230954
0.00234645
0.00238335
0.00242023
0.00245709
0.00249393
0.00253076
0.00256757
0.00260436
0.00264113
0.00267789
0.00271462
0.00275133
0.00278803
0.0028247
0.00286136
0.00289799
0.00293461
0.0029712
0.00300777
0.00304432
0.00308085
0.00311735
0.00315383
0.00319029
0.00322673
0.00326314
0.00329953
0.00333589
0.00337223
0.00340854
0.00344483
0.0034811
0.00351733
0.00355355
0.00358973
0.00362589
0.00366202
0.00369812
0.0037342
0.00377024
0.00380626
0.00384225
0.00387821
0.00391414
0.00395005
0.00398592
0.00402176
0.00405757
0.00409334
0.00412909
0.0041648
0.00420049
0.00423613
0.00427175
0.00430733
0.00434288
0.00437839
0.00441387
0.00444932
0.00448473
0.0045201
0.00455544
0.00459074
0.004626
0.00466123
0.00469642
0.00473157
0.00476668
0.00480175
0.00483678
0.00487178
0.00490673
0.00494164
0.00497651
0.00501134
0.00504613
0.00508088
0.00511558
0.00515024
0.00518485
0.00521943
0.00525395
0.00528843
0.00532287
0.00535726
0.00539161
0.0054259
0.00546015
0.00549435
0.00552851
0.00556261
0.00559667
0.00563067
0.00566463
0.00569853
0.00573238
0.00576618
0.00579993
0.00583363
0.00586727
0.00590086
0.00593439
0.00596787
0.00600129
0.00603466
0.00606797
0.00610122
0.00613442
0.00616755
0.00620063
0.00623365
0.0062666
0.0062995
0.00633233
0.00636511
0.00639782
0.00643046
0.00646305
0.00649556
0.00652802
0.0065604
0.00659272
0.00662498
0.00665716
0.00668928
0.00672133
0.0067533
0.00678521
0.00681705
0.00684881
0.0068805
0.00691212
0.00694366
0.00697513
0.00700652
0.00703783
0.00706907
0.00710023
0.00713131
0.00716231
0.00719323
0.00722406
0.00725482
0.00728549
0.00731608
0.00734658
0.007377
0.00740733
0.00743757
0.00746773
0.00749779
0.00752777
0.00755765
0.00758744
0.00761714
0.00764674
0.00767625
0.00770566
0.00773497
0.00776419
0.0077933
0.00782232
0.00785123
0.00788004
0.00790875
0.00793735
0.00796584
0.00799423
0.00802251
0.00805067
0.00807873
0.00810668
0.00813451
0.00816222
0.00818982
0.00821731
0.00824467
0.00827191
0.00829903
0.00832603
0.00835291
0.00837965
0.00840627
0.00843276
0.00845912
0.00848535
0.00851145
0.00853741
0.00856323
0.00858891
0.00861446
0.00863986
0.00866512
0.00869023
0.00871519
0.00874001
0.00876467
0.00878918
0.00881354
0.00883774
0.00886178
0.00888566
0.00890937
0.00893292
0.00895631
0.00897952
0.00900256
0.00902543
0.00904812
0.00907063
0.00909296
0.0091151
0.00913706
0.00915883
0.00918041
0.0092018
0.00922298
0.00924397
0.00926475
0.00928533
0.0093057
0.00932586
0.0093458
0.00936552
0.00938502
0.0094043
0.00942335
0.00944216
0.00946074
0.00947908
0.00949718
0.00951503
0.00953263
0.00954998
0.00956706
0.00958389
0.00960044
0.00961673
0.00963273
0.00964846
0.0096639
0.00967905
0.0096939
0.00970845
0.00972269
0.00973662
0.00975023
0.00976352
0.00977648
0.0097891
0.00980138
0.00981331
0.00982489
0.0098361
0.00984695
0.00985741
0.00986749
0.00987718
0.00988647
0.00989535
0.00990381
0.00991185
0.00991945
0.0099266
0.0099333
0.00993953
0.00994529
0.00995056
0.00995534
0.0099596
0.00996334
0.00996655
0.00996921
0.0099713
0.00997283
0.00997376
0.00997408
0.00997378
0.00997285
0.00997126
0.00996899
0.00996603
0.00996236
0.00995795
0.00995279
0.00994685
0.0099401
0.00993253
0.0099241
0.00991479
0.00990457
0.00989341
0.00988127
0.00986813
0.00985393
0.00983866
0.00982225
0.00980468
0.0097859
0.00976585
0.00974449
0.00972175
0.00969758
0.00967192
0.00964469
0.00961582
0.00958523
0.00955283
0.00951854
0.00948224
0.00944382
0.00940317
0.00936015
0.00931461
0.00926639
0.00921532
0.00916117
0.00910374
0.00904277
0.00897796
0.00890899
0.00883548
0.00875699
0.008673
0.0085829
0.00848595
0.00838125
0.00826768
0.00814381
0.00800775
0.00785684
0.0076871
0.00749114
0.00724877
0.00687585
0.00601561
0.00382057
1.7106e-06
-0.0038179
-0.00601423
-0.00687519
-0.00724835
-0.00749081
-0.00768682
-0.0078566
-0.00800753
-0.00814362
-0.00826751
-0.0083811
-0.00848581
-0.00858277
-0.00867288
-0.00875688
-0.00883539
-0.0089089
-0.00897788
-0.00904269
-0.00910368
-0.00916111
-0.00921526
-0.00926634
-0.00931457
-0.00936011
-0.00940313
-0.00944379
-0.0094822
-0.00951851
-0.00955281
-0.0095852
-0.0096158
-0.00964467
-0.0096719
-0.00969757
-0.00972174
-0.00974447
-0.00976584
-0.00978589
-0.00980467
-0.00982225
-0.00983865
-0.00985393
-0.00986812
-0.00988127
-0.0098934
-0.00990457
-0.00991479
-0.0099241
-0.00993253
-0.0099401
-0.00994684
-0.00995279
-0.00995795
-0.00996236
-0.00996603
-0.00996899
-0.00997126
-0.00997285
-0.00997378
-0.00997408
-0.00997376
-0.00997282
-0.0099713
-0.00996921
-0.00996655
-0.00996334
-0.0099596
-0.00995534
-0.00995056
-0.00994529
-0.00993953
-0.0099333
-0.0099266
-0.00991944
-0.00991184
-0.00990381
-0.00989535
-0.00988647
-0.00987718
-0.00986749
-0.00985741
-0.00984694
-0.0098361
-0.00982489
-0.00981331
-0.00980138
-0.0097891
-0.00977647
-0.00976352
-0.00975023
-0.00973661
-0.00972268
-0.00970844
-0.00969389
-0.00967904
-0.00966389
-0.00964845
-0.00963273
-0.00961672
-0.00960043
-0.00958388
-0.00956706
-0.00954997
-0.00953262
-0.00951502
-0.00949717
-0.00947907
-0.00946073
-0.00944215
-0.00942333
-0.00940429
-0.00938501
-0.00936551
-0.00934578
-0.00932584
-0.00930569
-0.00928532
-0.00926474
-0.00924396
-0.00922297
-0.00920178
-0.0091804
-0.00915882
-0.00913705
-0.00911509
-0.00909294
-0.00907061
-0.0090481
-0.00902541
-0.00900254
-0.0089795
-0.00895629
-0.00893291
-0.00890936
-0.00888564
-0.00886176
-0.00883772
-0.00881352
-0.00878916
-0.00876465
-0.00873999
-0.00871517
-0.00869021
-0.0086651
-0.00863984
-0.00861444
-0.00858889
-0.00856321
-0.00853739
-0.00851143
-0.00848533
-0.00845911
-0.00843274
-0.00840625
-0.00837963
-0.00835289
-0.00832601
-0.00829901
-0.00827189
-0.00824465
-0.00821729
-0.0081898
-0.0081622
-0.00813449
-0.00810666
-0.00807871
-0.00805065
-0.00802249
-0.00799421
-0.00796582
-0.00793733
-0.00790872
-0.00788002
-0.00785121
-0.0078223
-0.00779328
-0.00776417
-0.00773495
-0.00770564
-0.00767623
-0.00764672
-0.00761712
-0.00758742
-0.00755763
-0.00752775
-0.00749777
-0.00746771
-0.00743755
-0.00740731
-0.00737698
-0.00734656
-0.00731606
-0.00728547
-0.0072548
-0.00722404
-0.00719321
-0.00716229
-0.00713129
-0.00710021
-0.00706905
-0.00703781
-0.0070065
-0.00697511
-0.00694364
-0.0069121
-0.00688048
-0.00684879
-0.00681703
-0.00678519
-0.00675329
-0.00672131
-0.00668926
-0.00665714
-0.00662496
-0.00659271
-0.00656039
-0.006528
-0.00649555
-0.00646303
-0.00643045
-0.0063978
-0.00636509
-0.00633232
-0.00629948
-0.00626659
-0.00623363
-0.00620061
-0.00616753
-0.0061344
-0.0061012
-0.00606795
-0.00603464
-0.00600128
-0.00596785
-0.00593438
-0.00590084
-0.00586725
-0.00583361
-0.00579992
-0.00576617
-0.00573237
-0.00569852
-0.00566461
-0.00563066
-0.00559665
-0.0055626
-0.00552849
-0.00549434
-0.00546014
-0.00542589
-0.00539159
-0.00535725
-0.00532286
-0.00528842
-0.00525394
-0.00521941
-0.00518484
-0.00515022
-0.00511557
-0.00508086
-0.00504612
-0.00501133
-0.0049765
-0.00494163
-0.00490672
-0.00487176
-0.00483677
-0.00480174
-0.00476667
-0.00473155
-0.0046964
-0.00466122
-0.00462599
-0.00459073
-0.00455543
-0.00452009
-0.00448472
-0.00444931
-0.00441386
-0.00437838
-0.00434287
-0.00430732
-0.00427174
-0.00423612
-0.00420048
-0.00416479
-0.00412908
-0.00409333
-0.00405756
-0.00402175
-0.00398591
-0.00395004
-0.00391414
-0.00387821
-0.00384225
-0.00380626
-0.00377024
-0.00373419
-0.00369811
-0.00366201
-0.00362588
-0.00358972
-0.00355354
-0.00351733
-0.00348109
-0.00344483
-0.00340854
-0.00337222
-0.00333589
-0.00329952
-0.00326313
-0.00322672
-0.00319029
-0.00315383
-0.00311735
-0.00308084
-0.00304431
-0.00300777
-0.00297119
-0.0029346
-0.00289799
-0.00286135
-0.0028247
-0.00278802
-0.00275133
-0.00271461
-0.00267788
-0.00264113
-0.00260436
-0.00256756
-0.00253076
-0.00249393
-0.00245708
-0.00242022
-0.00238334
-0.00234645
-0.00230954
-0.00227261
-0.00223566
-0.0021987
-0.00216173
-0.00212474
-0.00208773
-0.00205071
-0.00201368
-0.00197663
-0.00193957
-0.00190249
-0.0018654
-0.0018283
-0.00179119
-0.00175406
-0.00171692
-0.00167977
-0.00164261
-0.00160544
-0.00156825
-0.00153106
-0.00149385
-0.00145664
-0.00141941
-0.00138218
-0.00134493
-0.00130768
-0.00127041
-0.00123314
-0.00119586
-0.00115857
-0.00112128
-0.00108398
-0.00104666
-0.00100935
-0.000972021
-0.000934689
-0.000897351
-0.000860007
-0.000822657
-0.000785302
-0.000747941
-0.000710575
-0.000673204
-0.000635829
-0.00059845
-0.000561066
-0.000523679
-0.000486288
-0.000448894
-0.000411497
-0.000374097
-0.000336694
-0.000299289
-0.000261883
-0.000224474
-0.000187064
-0.000149653
-0.00011224
-7.48274e-05
-3.74138e-05
)
;

boundaryField
{
    left
    {
        type            calculated;
        value           uniform 0;
    }
    right
    {
        type            calculated;
        value           uniform 0;
    }
    frontBackUpDown
    {
        type            empty;
    }
}


// ************************************************************************* //
