/*--------------------------------*- C++ -*----------------------------------*\
| =========                 |                                                 |
| \\      /  F ield         | OpenFOAM: The Open Source CFD Toolbox           |
|  \\    /   O peration     | Version:  2412                                  |
|   \\  /    A nd           | Website:  www.openfoam.com                      |
|    \\/     M anipulation  |                                                 |
\*---------------------------------------------------------------------------*/
FoamFile
{
    version     2.0;
    format      ascii;
    arch        "LSB;label=32;scalar=64";
    class       volVectorField;
    location    "0.35";
    object      U_0;
}
// * * * * * * * * * * * * * * * * * * * * * * * * * * * * * * * * * * * * * //

dimensions      [0 1 -1 0 0 0 0];

internalField   nonuniform List<vector> 
800
(
(0.00187207 0 0)
(0.00561624 0 0)
(0.00936037 0 0)
(0.0131044 0 0)
(0.0168484 0 0)
(0.0205923 0 0)
(0.024336 0 0)
(0.0280796 0 0)
(0.031823 0 0)
(0.0355662 0 0)
(0.0393091 0 0)
(0.0430517 0 0)
(0.0467941 0 0)
(0.0505362 0 0)
(0.0542779 0 0)
(0.0580192 0 0)
(0.0617602 0 0)
(0.0655007 0 0)
(0.0692408 0 0)
(0.0729804 0 0)
(0.0767195 0 0)
(0.0804581 0 0)
(0.0841962 0 0)
(0.0879337 0 0)
(0.0916706 0 0)
(0.0954068 0 0)
(0.0991425 0 0)
(0.102877 0 0)
(0.106612 0 0)
(0.110345 0 0)
(0.114078 0 0)
(0.11781 0 0)
(0.121541 0 0)
(0.125271 0 0)
(0.129001 0 0)
(0.13273 0 0)
(0.136457 0 0)
(0.140184 0 0)
(0.14391 0 0)
(0.147635 0 0)
(0.151359 0 0)
(0.155081 0 0)
(0.158803 0 0)
(0.162524 0 0)
(0.166243 0 0)
(0.169961 0 0)
(0.173679 0 0)
(0.177395 0 0)
(0.181109 0 0)
(0.184823 0 0)
(0.188535 0 0)
(0.192246 0 0)
(0.195956 0 0)
(0.199664 0 0)
(0.203371 0 0)
(0.207076 0 0)
(0.21078 0 0)
(0.214482 0 0)
(0.218183 0 0)
(0.221883 0 0)
(0.225581 0 0)
(0.229277 0 0)
(0.232972 0 0)
(0.236665 0 0)
(0.240356 0 0)
(0.244046 0 0)
(0.247734 0 0)
(0.25142 0 0)
(0.255104 0 0)
(0.258787 0 0)
(0.262468 0 0)
(0.266147 0 0)
(0.269824 0 0)
(0.273499 0 0)
(0.277172 0 0)
(0.280843 0 0)
(0.284512 0 0)
(0.288179 0 0)
(0.291844 0 0)
(0.295507 0 0)
(0.299168 0 0)
(0.302826 0 0)
(0.306483 0 0)
(0.310137 0 0)
(0.313788 0 0)
(0.317438 0 0)
(0.321085 0 0)
(0.32473 0 0)
(0.328373 0 0)
(0.332013 0 0)
(0.33565 0 0)
(0.339285 0 0)
(0.342918 0 0)
(0.346548 0 0)
(0.350176 0 0)
(0.353801 0 0)
(0.357423 0 0)
(0.361042 0 0)
(0.364659 0 0)
(0.368273 0 0)
(0.371885 0 0)
(0.375493 0 0)
(0.379099 0 0)
(0.382702 0 0)
(0.386302 0 0)
(0.389899 0 0)
(0.393492 0 0)
(0.397083 0 0)
(0.400671 0 0)
(0.404256 0 0)
(0.407838 0 0)
(0.411416 0 0)
(0.414992 0 0)
(0.418564 0 0)
(0.422132 0 0)
(0.425698 0 0)
(0.42926 0 0)
(0.432819 0 0)
(0.436374 0 0)
(0.439926 0 0)
(0.443475 0 0)
(0.447019 0 0)
(0.450561 0 0)
(0.454098 0 0)
(0.457632 0 0)
(0.461163 0 0)
(0.464689 0 0)
(0.468212 0 0)
(0.471731 0 0)
(0.475246 0 0)
(0.478758 0 0)
(0.482265 0 0)
(0.485769 0 0)
(0.489268 0 0)
(0.492763 0 0)
(0.496255 0 0)
(0.499742 0 0)
(0.503224 0 0)
(0.506703 0 0)
(0.510178 0 0)
(0.513648 0 0)
(0.517113 0 0)
(0.520575 0 0)
(0.524032 0 0)
(0.527484 0 0)
(0.530932 0 0)
(0.534375 0 0)
(0.537814 0 0)
(0.541247 0 0)
(0.544677 0 0)
(0.548101 0 0)
(0.551521 0 0)
(0.554935 0 0)
(0.558345 0 0)
(0.56175 0 0)
(0.56515 0 0)
(0.568544 0 0)
(0.571934 0 0)
(0.575318 0 0)
(0.578697 0 0)
(0.582071 0 0)
(0.58544 0 0)
(0.588803 0 0)
(0.592161 0 0)
(0.595513 0 0)
(0.59886 0 0)
(0.602201 0 0)
(0.605536 0 0)
(0.608866 0 0)
(0.612189 0 0)
(0.615507 0 0)
(0.61882 0 0)
(0.622126 0 0)
(0.625426 0 0)
(0.62872 0 0)
(0.632008 0 0)
(0.63529 0 0)
(0.638565 0 0)
(0.641834 0 0)
(0.645097 0 0)
(0.648354 0 0)
(0.651603 0 0)
(0.654847 0 0)
(0.658083 0 0)
(0.661313 0 0)
(0.664536 0 0)
(0.667752 0 0)
(0.670962 0 0)
(0.674164 0 0)
(0.677359 0 0)
(0.680548 0 0)
(0.683729 0 0)
(0.686902 0 0)
(0.690069 0 0)
(0.693228 0 0)
(0.696379 0 0)
(0.699523 0 0)
(0.702659 0 0)
(0.705788 0 0)
(0.708908 0 0)
(0.712021 0 0)
(0.715126 0 0)
(0.718223 0 0)
(0.721311 0 0)
(0.724392 0 0)
(0.727464 0 0)
(0.730527 0 0)
(0.733583 0 0)
(0.736629 0 0)
(0.739667 0 0)
(0.742696 0 0)
(0.745717 0 0)
(0.748728 0 0)
(0.751731 0 0)
(0.754724 0 0)
(0.757708 0 0)
(0.760683 0 0)
(0.763648 0 0)
(0.766604 0 0)
(0.76955 0 0)
(0.772487 0 0)
(0.775413 0 0)
(0.77833 0 0)
(0.781237 0 0)
(0.784133 0 0)
(0.787019 0 0)
(0.789895 0 0)
(0.792761 0 0)
(0.795615 0 0)
(0.798459 0 0)
(0.801292 0 0)
(0.804115 0 0)
(0.806926 0 0)
(0.809726 0 0)
(0.812514 0 0)
(0.815291 0 0)
(0.818057 0 0)
(0.820811 0 0)
(0.823552 0 0)
(0.826282 0 0)
(0.829 0 0)
(0.831705 0 0)
(0.834398 0 0)
(0.837079 0 0)
(0.839747 0 0)
(0.842401 0 0)
(0.845043 0 0)
(0.847672 0 0)
(0.850287 0 0)
(0.852889 0 0)
(0.855477 0 0)
(0.858051 0 0)
(0.860612 0 0)
(0.863158 0 0)
(0.86569 0 0)
(0.868207 0 0)
(0.870709 0 0)
(0.873197 0 0)
(0.87567 0 0)
(0.878127 0 0)
(0.880569 0 0)
(0.882995 0 0)
(0.885406 0 0)
(0.8878 0 0)
(0.890178 0 0)
(0.892539 0 0)
(0.894884 0 0)
(0.897212 0 0)
(0.899523 0 0)
(0.901816 0 0)
(0.904092 0 0)
(0.90635 0 0)
(0.90859 0 0)
(0.910811 0 0)
(0.913014 0 0)
(0.915198 0 0)
(0.917363 0 0)
(0.919509 0 0)
(0.921635 0 0)
(0.923741 0 0)
(0.925826 0 0)
(0.927892 0 0)
(0.929936 0 0)
(0.931959 0 0)
(0.933961 0 0)
(0.935941 0 0)
(0.937899 0 0)
(0.939834 0 0)
(0.941747 0 0)
(0.943637 0 0)
(0.945503 0 0)
(0.947345 0 0)
(0.949163 0 0)
(0.950957 0 0)
(0.952726 0 0)
(0.954469 0 0)
(0.956186 0 0)
(0.957877 0 0)
(0.959542 0 0)
(0.961179 0 0)
(0.962789 0 0)
(0.964371 0 0)
(0.965924 0 0)
(0.967448 0 0)
(0.968943 0 0)
(0.970408 0 0)
(0.971842 0 0)
(0.973245 0 0)
(0.974617 0 0)
(0.975956 0 0)
(0.977263 0 0)
(0.978536 0 0)
(0.979775 0 0)
(0.980979 0 0)
(0.982148 0 0)
(0.98328 0 0)
(0.984376 0 0)
(0.985435 0 0)
(0.986455 0 0)
(0.987436 0 0)
(0.988378 0 0)
(0.989278 0 0)
(0.990138 0 0)
(0.990954 0 0)
(0.991728 0 0)
(0.992457 0 0)
(0.993141 0 0)
(0.993779 0 0)
(0.99437 0 0)
(0.994912 0 0)
(0.995405 0 0)
(0.995847 0 0)
(0.996237 0 0)
(0.996574 0 0)
(0.996857 0 0)
(0.997084 0 0)
(0.997254 0 0)
(0.997365 0 0)
(0.997416 0 0)
(0.997406 0 0)
(0.997332 0 0)
(0.997193 0 0)
(0.996987 0 0)
(0.996713 0 0)
(0.996367 0 0)
(0.995949 0 0)
(0.995457 0 0)
(0.994887 0 0)
(0.994237 0 0)
(0.993506 0 0)
(0.99269 0 0)
(0.991786 0 0)
(0.990793 0 0)
(0.989706 0 0)
(0.988523 0 0)
(0.987241 0 0)
(0.985855 0 0)
(0.984362 0 0)
(0.982757 0 0)
(0.981038 0 0)
(0.979198 0 0)
(0.977234 0 0)
(0.975141 0 0)
(0.972912 0 0)
(0.970542 0 0)
(0.968024 0 0)
(0.965353 0 0)
(0.96252 0 0)
(0.959519 0 0)
(0.95634 0 0)
(0.952974 0 0)
(0.949412 0 0)
(0.945642 0 0)
(0.941654 0 0)
(0.937434 0 0)
(0.932968 0 0)
(0.92824 0 0)
(0.923233 0 0)
(0.917928 0 0)
(0.912303 0 0)
(0.906334 0 0)
(0.899993 0 0)
(0.89325 0 0)
(0.886068 0 0)
(0.878407 0 0)
(0.870217 0 0)
(0.861443 0 0)
(0.852016 0 0)
(0.841855 0 0)
(0.830857 0 0)
(0.818896 0 0)
(0.805804 0 0)
(0.791359 0 0)
(0.775241 0 0)
(0.756939 0 0)
(0.735418 0 0)
(0.707478 0 0)
(0.659005 0 0)
(0.532887 0 0)
(0.221382 0 0)
(-0.221048 0 0)
(-0.532696 0 0)
(-0.658919 0 0)
(-0.707429 0 0)
(-0.735381 0 0)
(-0.756909 0 0)
(-0.775215 0 0)
(-0.791336 0 0)
(-0.805784 0 0)
(-0.818877 0 0)
(-0.830841 0 0)
(-0.84184 0 0)
(-0.852003 0 0)
(-0.861431 0 0)
(-0.870206 0 0)
(-0.878396 0 0)
(-0.886059 0 0)
(-0.893241 0 0)
(-0.899985 0 0)
(-0.906327 0 0)
(-0.912296 0 0)
(-0.917922 0 0)
(-0.923228 0 0)
(-0.928235 0 0)
(-0.932963 0 0)
(-0.93743 0 0)
(-0.94165 0 0)
(-0.945639 0 0)
(-0.949409 0 0)
(-0.952971 0 0)
(-0.956337 0 0)
(-0.959516 0 0)
(-0.962518 0 0)
(-0.965351 0 0)
(-0.968022 0 0)
(-0.97054 0 0)
(-0.97291 0 0)
(-0.975139 0 0)
(-0.977233 0 0)
(-0.979197 0 0)
(-0.981037 0 0)
(-0.982756 0 0)
(-0.984361 0 0)
(-0.985854 0 0)
(-0.98724 0 0)
(-0.988523 0 0)
(-0.989706 0 0)
(-0.990793 0 0)
(-0.991786 0 0)
(-0.992689 0 0)
(-0.993505 0 0)
(-0.994237 0 0)
(-0.994886 0 0)
(-0.995456 0 0)
(-0.995949 0 0)
(-0.996367 0 0)
(-0.996712 0 0)
(-0.996987 0 0)
(-0.997193 0 0)
(-0.997332 0 0)
(-0.997406 0 0)
(-0.997416 0 0)
(-0.997365 0 0)
(-0.997254 0 0)
(-0.997084 0 0)
(-0.996857 0 0)
(-0.996574 0 0)
(-0.996237 0 0)
(-0.995847 0 0)
(-0.995404 0 0)
(-0.994912 0 0)
(-0.994369 0 0)
(-0.993779 0 0)
(-0.993141 0 0)
(-0.992457 0 0)
(-0.991728 0 0)
(-0.990954 0 0)
(-0.990137 0 0)
(-0.989278 0 0)
(-0.988377 0 0)
(-0.987436 0 0)
(-0.986455 0 0)
(-0.985435 0 0)
(-0.984376 0 0)
(-0.98328 0 0)
(-0.982147 0 0)
(-0.980978 0 0)
(-0.979774 0 0)
(-0.978535 0 0)
(-0.977262 0 0)
(-0.975956 0 0)
(-0.974616 0 0)
(-0.973245 0 0)
(-0.971842 0 0)
(-0.970407 0 0)
(-0.968942 0 0)
(-0.967448 0 0)
(-0.965923 0 0)
(-0.96437 0 0)
(-0.962788 0 0)
(-0.961178 0 0)
(-0.959541 0 0)
(-0.957876 0 0)
(-0.956185 0 0)
(-0.954468 0 0)
(-0.952725 0 0)
(-0.950956 0 0)
(-0.949162 0 0)
(-0.947344 0 0)
(-0.945502 0 0)
(-0.943636 0 0)
(-0.941746 0 0)
(-0.939833 0 0)
(-0.937898 0 0)
(-0.93594 0 0)
(-0.93396 0 0)
(-0.931958 0 0)
(-0.929935 0 0)
(-0.92789 0 0)
(-0.925825 0 0)
(-0.923739 0 0)
(-0.921633 0 0)
(-0.919507 0 0)
(-0.917362 0 0)
(-0.915197 0 0)
(-0.913013 0 0)
(-0.91081 0 0)
(-0.908588 0 0)
(-0.906349 0 0)
(-0.904091 0 0)
(-0.901815 0 0)
(-0.899521 0 0)
(-0.897211 0 0)
(-0.894883 0 0)
(-0.892538 0 0)
(-0.890176 0 0)
(-0.887798 0 0)
(-0.885404 0 0)
(-0.882993 0 0)
(-0.880567 0 0)
(-0.878125 0 0)
(-0.875668 0 0)
(-0.873195 0 0)
(-0.870708 0 0)
(-0.868205 0 0)
(-0.865688 0 0)
(-0.863156 0 0)
(-0.86061 0 0)
(-0.85805 0 0)
(-0.855475 0 0)
(-0.852887 0 0)
(-0.850285 0 0)
(-0.84767 0 0)
(-0.845041 0 0)
(-0.842399 0 0)
(-0.839745 0 0)
(-0.837077 0 0)
(-0.834396 0 0)
(-0.831703 0 0)
(-0.828998 0 0)
(-0.82628 0 0)
(-0.82355 0 0)
(-0.820809 0 0)
(-0.818055 0 0)
(-0.815289 0 0)
(-0.812512 0 0)
(-0.809724 0 0)
(-0.806924 0 0)
(-0.804113 0 0)
(-0.80129 0 0)
(-0.798457 0 0)
(-0.795613 0 0)
(-0.792758 0 0)
(-0.789893 0 0)
(-0.787017 0 0)
(-0.784131 0 0)
(-0.781235 0 0)
(-0.778328 0 0)
(-0.775411 0 0)
(-0.772485 0 0)
(-0.769548 0 0)
(-0.766602 0 0)
(-0.763646 0 0)
(-0.760681 0 0)
(-0.757706 0 0)
(-0.754722 0 0)
(-0.751729 0 0)
(-0.748726 0 0)
(-0.745715 0 0)
(-0.742694 0 0)
(-0.739665 0 0)
(-0.736627 0 0)
(-0.73358 0 0)
(-0.730525 0 0)
(-0.727462 0 0)
(-0.72439 0 0)
(-0.721309 0 0)
(-0.718221 0 0)
(-0.715124 0 0)
(-0.712019 0 0)
(-0.708906 0 0)
(-0.705786 0 0)
(-0.702657 0 0)
(-0.699521 0 0)
(-0.696377 0 0)
(-0.693226 0 0)
(-0.690067 0 0)
(-0.6869 0 0)
(-0.683727 0 0)
(-0.680546 0 0)
(-0.677358 0 0)
(-0.674162 0 0)
(-0.67096 0 0)
(-0.667751 0 0)
(-0.664534 0 0)
(-0.661311 0 0)
(-0.658081 0 0)
(-0.654845 0 0)
(-0.651602 0 0)
(-0.648352 0 0)
(-0.645095 0 0)
(-0.641833 0 0)
(-0.638563 0 0)
(-0.635288 0 0)
(-0.632006 0 0)
(-0.628718 0 0)
(-0.625424 0 0)
(-0.622124 0 0)
(-0.618818 0 0)
(-0.615506 0 0)
(-0.612188 0 0)
(-0.608864 0 0)
(-0.605534 0 0)
(-0.602199 0 0)
(-0.598858 0 0)
(-0.595511 0 0)
(-0.592159 0 0)
(-0.588801 0 0)
(-0.585438 0 0)
(-0.58207 0 0)
(-0.578696 0 0)
(-0.575317 0 0)
(-0.571932 0 0)
(-0.568543 0 0)
(-0.565148 0 0)
(-0.561748 0 0)
(-0.558344 0 0)
(-0.554934 0 0)
(-0.551519 0 0)
(-0.5481 0 0)
(-0.544675 0 0)
(-0.541246 0 0)
(-0.537812 0 0)
(-0.534374 0 0)
(-0.53093 0 0)
(-0.527483 0 0)
(-0.52403 0 0)
(-0.520573 0 0)
(-0.517112 0 0)
(-0.513646 0 0)
(-0.510176 0 0)
(-0.506702 0 0)
(-0.503223 0 0)
(-0.49974 0 0)
(-0.496253 0 0)
(-0.492762 0 0)
(-0.489267 0 0)
(-0.485767 0 0)
(-0.482264 0 0)
(-0.478757 0 0)
(-0.475245 0 0)
(-0.47173 0 0)
(-0.468211 0 0)
(-0.464688 0 0)
(-0.461162 0 0)
(-0.457631 0 0)
(-0.454097 0 0)
(-0.45056 0 0)
(-0.447018 0 0)
(-0.443473 0 0)
(-0.439925 0 0)
(-0.436373 0 0)
(-0.432818 0 0)
(-0.429259 0 0)
(-0.425697 0 0)
(-0.422131 0 0)
(-0.418563 0 0)
(-0.414991 0 0)
(-0.411415 0 0)
(-0.407837 0 0)
(-0.404255 0 0)
(-0.40067 0 0)
(-0.397083 0 0)
(-0.393492 0 0)
(-0.389898 0 0)
(-0.386301 0 0)
(-0.382701 0 0)
(-0.379098 0 0)
(-0.375492 0 0)
(-0.371884 0 0)
(-0.368273 0 0)
(-0.364659 0 0)
(-0.361042 0 0)
(-0.357422 0 0)
(-0.3538 0 0)
(-0.350175 0 0)
(-0.346548 0 0)
(-0.342917 0 0)
(-0.339285 0 0)
(-0.33565 0 0)
(-0.332012 0 0)
(-0.328372 0 0)
(-0.32473 0 0)
(-0.321085 0 0)
(-0.317437 0 0)
(-0.313788 0 0)
(-0.310136 0 0)
(-0.306482 0 0)
(-0.302826 0 0)
(-0.299167 0 0)
(-0.295506 0 0)
(-0.291844 0 0)
(-0.288179 0 0)
(-0.284512 0 0)
(-0.280842 0 0)
(-0.277171 0 0)
(-0.273498 0 0)
(-0.269823 0 0)
(-0.266146 0 0)
(-0.262467 0 0)
(-0.258787 0 0)
(-0.255104 0 0)
(-0.25142 0 0)
(-0.247733 0 0)
(-0.244045 0 0)
(-0.240356 0 0)
(-0.236664 0 0)
(-0.232971 0 0)
(-0.229277 0 0)
(-0.22558 0 0)
(-0.221883 0 0)
(-0.218183 0 0)
(-0.214482 0 0)
(-0.21078 0 0)
(-0.207076 0 0)
(-0.20337 0 0)
(-0.199664 0 0)
(-0.195955 0 0)
(-0.192246 0 0)
(-0.188535 0 0)
(-0.184823 0 0)
(-0.181109 0 0)
(-0.177394 0 0)
(-0.173678 0 0)
(-0.169961 0 0)
(-0.166243 0 0)
(-0.162523 0 0)
(-0.158803 0 0)
(-0.155081 0 0)
(-0.151358 0 0)
(-0.147635 0 0)
(-0.14391 0 0)
(-0.140184 0 0)
(-0.136457 0 0)
(-0.132729 0 0)
(-0.129001 0 0)
(-0.125271 0 0)
(-0.121541 0 0)
(-0.11781 0 0)
(-0.114078 0 0)
(-0.110345 0 0)
(-0.106612 0 0)
(-0.102877 0 0)
(-0.0991424 0 0)
(-0.0954068 0 0)
(-0.0916705 0 0)
(-0.0879336 0 0)
(-0.0841962 0 0)
(-0.0804581 0 0)
(-0.0767195 0 0)
(-0.0729804 0 0)
(-0.0692408 0 0)
(-0.0655007 0 0)
(-0.0617602 0 0)
(-0.0580192 0 0)
(-0.0542779 0 0)
(-0.0505362 0 0)
(-0.0467941 0 0)
(-0.0430517 0 0)
(-0.0393091 0 0)
(-0.0355662 0 0)
(-0.031823 0 0)
(-0.0280796 0 0)
(-0.0243361 0 0)
(-0.0205923 0 0)
(-0.0168485 0 0)
(-0.0131045 0 0)
(-0.0093604 0 0)
(-0.00561627 0 0)
(-0.00187209 0 0)
)
;

boundaryField
{
    left
    {
        type            fixedValue;
        value           uniform (0 0 0);
    }
    right
    {
        type            fixedValue;
        value           uniform (0 0 0);
    }
    frontBackUpDown
    {
        type            empty;
    }
}


// ************************************************************************* //
