/*--------------------------------*- C++ -*----------------------------------*\
| =========                 |                                                 |
| \\      /  F ield         | OpenFOAM: The Open Source CFD Toolbox           |
|  \\    /   O peration     | Version:  2412                                  |
|   \\  /    A nd           | Website:  www.openfoam.com                      |
|    \\/     M anipulation  |                                                 |
\*---------------------------------------------------------------------------*/
FoamFile
{
    version     2.0;
    format      ascii;
    arch        "LSB;label=32;scalar=64";
    class       volVectorField;
    location    "0.35";
    object      U_0_0_0;
}
// * * * * * * * * * * * * * * * * * * * * * * * * * * * * * * * * * * * * * //

dimensions      [0 1 -1 0 0 0 0];

internalField   nonuniform List<vector> 
800
(
(0.00187487 0 0)
(0.00562465 0 0)
(0.00937439 0 0)
(0.0131241 0 0)
(0.0168737 0 0)
(0.0206232 0 0)
(0.0243725 0 0)
(0.0281217 0 0)
(0.0318706 0 0)
(0.0356194 0 0)
(0.0393679 0 0)
(0.0431162 0 0)
(0.0468642 0 0)
(0.0506118 0 0)
(0.0543591 0 0)
(0.0581061 0 0)
(0.0618526 0 0)
(0.0655987 0 0)
(0.0693444 0 0)
(0.0730896 0 0)
(0.0768343 0 0)
(0.0805785 0 0)
(0.0843221 0 0)
(0.0880652 0 0)
(0.0918076 0 0)
(0.0955494 0 0)
(0.0992906 0 0)
(0.103031 0 0)
(0.106771 0 0)
(0.11051 0 0)
(0.114248 0 0)
(0.117986 0 0)
(0.121723 0 0)
(0.125458 0 0)
(0.129193 0 0)
(0.132928 0 0)
(0.136661 0 0)
(0.140393 0 0)
(0.144124 0 0)
(0.147855 0 0)
(0.151584 0 0)
(0.155312 0 0)
(0.159039 0 0)
(0.162765 0 0)
(0.16649 0 0)
(0.170214 0 0)
(0.173937 0 0)
(0.177658 0 0)
(0.181378 0 0)
(0.185097 0 0)
(0.188815 0 0)
(0.192531 0 0)
(0.196246 0 0)
(0.19996 0 0)
(0.203672 0 0)
(0.207383 0 0)
(0.211092 0 0)
(0.2148 0 0)
(0.218506 0 0)
(0.222211 0 0)
(0.225914 0 0)
(0.229616 0 0)
(0.233316 0 0)
(0.237014 0 0)
(0.240711 0 0)
(0.244406 0 0)
(0.248099 0 0)
(0.251791 0 0)
(0.25548 0 0)
(0.259168 0 0)
(0.262854 0 0)
(0.266538 0 0)
(0.27022 0 0)
(0.273901 0 0)
(0.277579 0 0)
(0.281255 0 0)
(0.28493 0 0)
(0.288602 0 0)
(0.292272 0 0)
(0.29594 0 0)
(0.299606 0 0)
(0.303269 0 0)
(0.306931 0 0)
(0.31059 0 0)
(0.314247 0 0)
(0.317901 0 0)
(0.321554 0 0)
(0.325204 0 0)
(0.328851 0 0)
(0.332496 0 0)
(0.336139 0 0)
(0.339779 0 0)
(0.343416 0 0)
(0.347051 0 0)
(0.350684 0 0)
(0.354314 0 0)
(0.357941 0 0)
(0.361565 0 0)
(0.365187 0 0)
(0.368806 0 0)
(0.372422 0 0)
(0.376035 0 0)
(0.379646 0 0)
(0.383253 0 0)
(0.386858 0 0)
(0.390459 0 0)
(0.394058 0 0)
(0.397654 0 0)
(0.401246 0 0)
(0.404836 0 0)
(0.408422 0 0)
(0.412005 0 0)
(0.415585 0 0)
(0.419162 0 0)
(0.422735 0 0)
(0.426305 0 0)
(0.429872 0 0)
(0.433435 0 0)
(0.436995 0 0)
(0.440551 0 0)
(0.444104 0 0)
(0.447653 0 0)
(0.451199 0 0)
(0.454741 0 0)
(0.458279 0 0)
(0.461814 0 0)
(0.465345 0 0)
(0.468872 0 0)
(0.472395 0 0)
(0.475915 0 0)
(0.47943 0 0)
(0.482942 0 0)
(0.486449 0 0)
(0.489953 0 0)
(0.493452 0 0)
(0.496947 0 0)
(0.500438 0 0)
(0.503925 0 0)
(0.507408 0 0)
(0.510886 0 0)
(0.51436 0 0)
(0.51783 0 0)
(0.521295 0 0)
(0.524756 0 0)
(0.528212 0 0)
(0.531664 0 0)
(0.535111 0 0)
(0.538553 0 0)
(0.541991 0 0)
(0.545424 0 0)
(0.548852 0 0)
(0.552275 0 0)
(0.555693 0 0)
(0.559106 0 0)
(0.562515 0 0)
(0.565918 0 0)
(0.569316 0 0)
(0.572709 0 0)
(0.576097 0 0)
(0.579479 0 0)
(0.582857 0 0)
(0.586228 0 0)
(0.589595 0 0)
(0.592956 0 0)
(0.596311 0 0)
(0.599661 0 0)
(0.603005 0 0)
(0.606343 0 0)
(0.609676 0 0)
(0.613003 0 0)
(0.616324 0 0)
(0.619639 0 0)
(0.622948 0 0)
(0.626251 0 0)
(0.629548 0 0)
(0.632839 0 0)
(0.636123 0 0)
(0.639401 0 0)
(0.642673 0 0)
(0.645939 0 0)
(0.649198 0 0)
(0.65245 0 0)
(0.655696 0 0)
(0.658935 0 0)
(0.662167 0 0)
(0.665392 0 0)
(0.668611 0 0)
(0.671823 0 0)
(0.675027 0 0)
(0.678225 0 0)
(0.681415 0 0)
(0.684598 0 0)
(0.687774 0 0)
(0.690942 0 0)
(0.694103 0 0)
(0.697256 0 0)
(0.700402 0 0)
(0.70354 0 0)
(0.70667 0 0)
(0.709792 0 0)
(0.712907 0 0)
(0.716013 0 0)
(0.719111 0 0)
(0.722202 0 0)
(0.725283 0 0)
(0.728357 0 0)
(0.731422 0 0)
(0.734478 0 0)
(0.737526 0 0)
(0.740565 0 0)
(0.743595 0 0)
(0.746617 0 0)
(0.749629 0 0)
(0.752633 0 0)
(0.755627 0 0)
(0.758611 0 0)
(0.761587 0 0)
(0.764553 0 0)
(0.767509 0 0)
(0.770456 0 0)
(0.773393 0 0)
(0.77632 0 0)
(0.779237 0 0)
(0.782144 0 0)
(0.78504 0 0)
(0.787927 0 0)
(0.790803 0 0)
(0.793668 0 0)
(0.796523 0 0)
(0.799366 0 0)
(0.802199 0 0)
(0.805021 0 0)
(0.807832 0 0)
(0.810631 0 0)
(0.813419 0 0)
(0.816196 0 0)
(0.81896 0 0)
(0.821713 0 0)
(0.824454 0 0)
(0.827183 0 0)
(0.8299 0 0)
(0.832604 0 0)
(0.835296 0 0)
(0.837975 0 0)
(0.840641 0 0)
(0.843294 0 0)
(0.845935 0 0)
(0.848561 0 0)
(0.851175 0 0)
(0.853775 0 0)
(0.856361 0 0)
(0.858933 0 0)
(0.861491 0 0)
(0.864035 0 0)
(0.866564 0 0)
(0.869079 0 0)
(0.871579 0 0)
(0.874064 0 0)
(0.876534 0 0)
(0.878988 0 0)
(0.881427 0 0)
(0.88385 0 0)
(0.886257 0 0)
(0.888648 0 0)
(0.891022 0 0)
(0.89338 0 0)
(0.895721 0 0)
(0.898045 0 0)
(0.900352 0 0)
(0.902641 0 0)
(0.904913 0 0)
(0.907166 0 0)
(0.909401 0 0)
(0.911618 0 0)
(0.913816 0 0)
(0.915995 0 0)
(0.918155 0 0)
(0.920295 0 0)
(0.922415 0 0)
(0.924516 0 0)
(0.926596 0 0)
(0.928655 0 0)
(0.930693 0 0)
(0.93271 0 0)
(0.934705 0 0)
(0.936679 0 0)
(0.93863 0 0)
(0.940559 0 0)
(0.942464 0 0)
(0.944346 0 0)
(0.946205 0 0)
(0.94804 0 0)
(0.94985 0 0)
(0.951635 0 0)
(0.953395 0 0)
(0.95513 0 0)
(0.956839 0 0)
(0.958521 0 0)
(0.960176 0 0)
(0.961804 0 0)
(0.963404 0 0)
(0.964976 0 0)
(0.96652 0 0)
(0.968033 0 0)
(0.969518 0 0)
(0.970972 0 0)
(0.972395 0 0)
(0.973787 0 0)
(0.975146 0 0)
(0.976474 0 0)
(0.977768 0 0)
(0.979028 0 0)
(0.980254 0 0)
(0.981446 0 0)
(0.982601 0 0)
(0.98372 0 0)
(0.984802 0 0)
(0.985846 0 0)
(0.986851 0 0)
(0.987817 0 0)
(0.988743 0 0)
(0.989628 0 0)
(0.990471 0 0)
(0.991271 0 0)
(0.992028 0 0)
(0.992739 0 0)
(0.993405 0 0)
(0.994025 0 0)
(0.994597 0 0)
(0.99512 0 0)
(0.995592 0 0)
(0.996014 0 0)
(0.996384 0 0)
(0.9967 0 0)
(0.996961 0 0)
(0.997165 0 0)
(0.997312 0 0)
(0.9974 0 0)
(0.997427 0 0)
(0.997392 0 0)
(0.997292 0 0)
(0.997127 0 0)
(0.996894 0 0)
(0.996592 0 0)
(0.996219 0 0)
(0.995772 0 0)
(0.995249 0 0)
(0.994648 0 0)
(0.993967 0 0)
(0.993203 0 0)
(0.992353 0 0)
(0.991415 0 0)
(0.990386 0 0)
(0.989263 0 0)
(0.988042 0 0)
(0.98672 0 0)
(0.985293 0 0)
(0.983759 0 0)
(0.982111 0 0)
(0.980347 0 0)
(0.978462 0 0)
(0.97645 0 0)
(0.974307 0 0)
(0.972026 0 0)
(0.969603 0 0)
(0.967031 0 0)
(0.964302 0 0)
(0.96141 0 0)
(0.958346 0 0)
(0.955102 0 0)
(0.951669 0 0)
(0.948037 0 0)
(0.944194 0 0)
(0.940128 0 0)
(0.935827 0 0)
(0.931276 0 0)
(0.926458 0 0)
(0.921357 0 0)
(0.915952 0 0)
(0.910221 0 0)
(0.904139 0 0)
(0.897679 0 0)
(0.890808 0 0)
(0.883489 0 0)
(0.875679 0 0)
(0.86733 0 0)
(0.858381 0 0)
(0.848763 0 0)
(0.838391 0 0)
(0.827158 0 0)
(0.814931 0 0)
(0.801536 0 0)
(0.786737 0 0)
(0.770192 0 0)
(0.751348 0 0)
(0.729066 0 0)
(0.699842 0 0)
(0.648921 0 0)
(0.520258 0 0)
(0.214318 0 0)
(-0.214001 0 0)
(-0.520072 0 0)
(-0.648833 0 0)
(-0.699791 0 0)
(-0.729029 0 0)
(-0.751317 0 0)
(-0.770165 0 0)
(-0.786713 0 0)
(-0.801515 0 0)
(-0.814913 0 0)
(-0.827141 0 0)
(-0.838376 0 0)
(-0.84875 0 0)
(-0.858369 0 0)
(-0.867318 0 0)
(-0.875669 0 0)
(-0.883479 0 0)
(-0.890799 0 0)
(-0.897671 0 0)
(-0.904132 0 0)
(-0.910214 0 0)
(-0.915946 0 0)
(-0.921351 0 0)
(-0.926453 0 0)
(-0.931271 0 0)
(-0.935823 0 0)
(-0.940124 0 0)
(-0.94419 0 0)
(-0.948034 0 0)
(-0.951666 0 0)
(-0.9551 0 0)
(-0.958344 0 0)
(-0.961408 0 0)
(-0.9643 0 0)
(-0.967029 0 0)
(-0.969602 0 0)
(-0.972025 0 0)
(-0.974305 0 0)
(-0.976449 0 0)
(-0.97846 0 0)
(-0.980346 0 0)
(-0.98211 0 0)
(-0.983758 0 0)
(-0.985293 0 0)
(-0.986719 0 0)
(-0.988041 0 0)
(-0.989262 0 0)
(-0.990386 0 0)
(-0.991415 0 0)
(-0.992353 0 0)
(-0.993202 0 0)
(-0.993966 0 0)
(-0.994648 0 0)
(-0.995249 0 0)
(-0.995771 0 0)
(-0.996219 0 0)
(-0.996592 0 0)
(-0.996894 0 0)
(-0.997127 0 0)
(-0.997292 0 0)
(-0.997391 0 0)
(-0.997427 0 0)
(-0.9974 0 0)
(-0.997312 0 0)
(-0.997165 0 0)
(-0.996961 0 0)
(-0.9967 0 0)
(-0.996384 0 0)
(-0.996014 0 0)
(-0.995592 0 0)
(-0.995119 0 0)
(-0.994597 0 0)
(-0.994025 0 0)
(-0.993405 0 0)
(-0.992739 0 0)
(-0.992027 0 0)
(-0.991271 0 0)
(-0.990471 0 0)
(-0.989628 0 0)
(-0.988743 0 0)
(-0.987817 0 0)
(-0.986851 0 0)
(-0.985846 0 0)
(-0.984801 0 0)
(-0.98372 0 0)
(-0.982601 0 0)
(-0.981445 0 0)
(-0.980254 0 0)
(-0.979028 0 0)
(-0.977767 0 0)
(-0.976473 0 0)
(-0.975146 0 0)
(-0.973786 0 0)
(-0.972394 0 0)
(-0.970971 0 0)
(-0.969517 0 0)
(-0.968033 0 0)
(-0.966519 0 0)
(-0.964976 0 0)
(-0.963404 0 0)
(-0.961803 0 0)
(-0.960175 0 0)
(-0.95852 0 0)
(-0.956838 0 0)
(-0.955129 0 0)
(-0.953394 0 0)
(-0.951634 0 0)
(-0.949849 0 0)
(-0.948039 0 0)
(-0.946204 0 0)
(-0.944345 0 0)
(-0.942463 0 0)
(-0.940557 0 0)
(-0.938629 0 0)
(-0.936678 0 0)
(-0.934704 0 0)
(-0.932709 0 0)
(-0.930692 0 0)
(-0.928654 0 0)
(-0.926594 0 0)
(-0.924514 0 0)
(-0.922414 0 0)
(-0.920294 0 0)
(-0.918153 0 0)
(-0.915994 0 0)
(-0.913815 0 0)
(-0.911617 0 0)
(-0.9094 0 0)
(-0.907165 0 0)
(-0.904911 0 0)
(-0.90264 0 0)
(-0.90035 0 0)
(-0.898044 0 0)
(-0.89572 0 0)
(-0.893379 0 0)
(-0.891021 0 0)
(-0.888646 0 0)
(-0.886255 0 0)
(-0.883848 0 0)
(-0.881425 0 0)
(-0.878986 0 0)
(-0.876532 0 0)
(-0.874062 0 0)
(-0.871577 0 0)
(-0.869077 0 0)
(-0.866563 0 0)
(-0.864033 0 0)
(-0.861489 0 0)
(-0.858931 0 0)
(-0.856359 0 0)
(-0.853773 0 0)
(-0.851173 0 0)
(-0.84856 0 0)
(-0.845933 0 0)
(-0.843292 0 0)
(-0.840639 0 0)
(-0.837973 0 0)
(-0.835294 0 0)
(-0.832602 0 0)
(-0.829898 0 0)
(-0.827181 0 0)
(-0.824452 0 0)
(-0.821711 0 0)
(-0.818958 0 0)
(-0.816194 0 0)
(-0.813417 0 0)
(-0.810629 0 0)
(-0.80783 0 0)
(-0.805019 0 0)
(-0.802197 0 0)
(-0.799364 0 0)
(-0.796521 0 0)
(-0.793666 0 0)
(-0.790801 0 0)
(-0.787925 0 0)
(-0.785038 0 0)
(-0.782142 0 0)
(-0.779235 0 0)
(-0.776318 0 0)
(-0.773391 0 0)
(-0.770454 0 0)
(-0.767507 0 0)
(-0.764551 0 0)
(-0.761585 0 0)
(-0.758609 0 0)
(-0.755625 0 0)
(-0.75263 0 0)
(-0.749627 0 0)
(-0.746615 0 0)
(-0.743593 0 0)
(-0.740563 0 0)
(-0.737524 0 0)
(-0.734476 0 0)
(-0.73142 0 0)
(-0.728355 0 0)
(-0.725281 0 0)
(-0.7222 0 0)
(-0.719109 0 0)
(-0.716011 0 0)
(-0.712905 0 0)
(-0.70979 0 0)
(-0.706668 0 0)
(-0.703538 0 0)
(-0.7004 0 0)
(-0.697254 0 0)
(-0.694101 0 0)
(-0.69094 0 0)
(-0.687772 0 0)
(-0.684596 0 0)
(-0.681413 0 0)
(-0.678223 0 0)
(-0.675025 0 0)
(-0.671821 0 0)
(-0.668609 0 0)
(-0.665391 0 0)
(-0.662165 0 0)
(-0.658933 0 0)
(-0.655694 0 0)
(-0.652448 0 0)
(-0.649196 0 0)
(-0.645937 0 0)
(-0.642671 0 0)
(-0.6394 0 0)
(-0.636121 0 0)
(-0.632837 0 0)
(-0.629546 0 0)
(-0.626249 0 0)
(-0.622946 0 0)
(-0.619637 0 0)
(-0.616322 0 0)
(-0.613001 0 0)
(-0.609674 0 0)
(-0.606342 0 0)
(-0.603003 0 0)
(-0.599659 0 0)
(-0.596309 0 0)
(-0.592954 0 0)
(-0.589593 0 0)
(-0.586227 0 0)
(-0.582855 0 0)
(-0.579478 0 0)
(-0.576095 0 0)
(-0.572707 0 0)
(-0.569314 0 0)
(-0.565916 0 0)
(-0.562513 0 0)
(-0.559105 0 0)
(-0.555691 0 0)
(-0.552273 0 0)
(-0.54885 0 0)
(-0.545422 0 0)
(-0.541989 0 0)
(-0.538552 0 0)
(-0.535109 0 0)
(-0.531662 0 0)
(-0.528211 0 0)
(-0.524755 0 0)
(-0.521294 0 0)
(-0.517829 0 0)
(-0.514359 0 0)
(-0.510885 0 0)
(-0.507407 0 0)
(-0.503924 0 0)
(-0.500437 0 0)
(-0.496946 0 0)
(-0.493451 0 0)
(-0.489951 0 0)
(-0.486448 0 0)
(-0.48294 0 0)
(-0.479429 0 0)
(-0.475913 0 0)
(-0.472394 0 0)
(-0.468871 0 0)
(-0.465344 0 0)
(-0.461813 0 0)
(-0.458278 0 0)
(-0.45474 0 0)
(-0.451198 0 0)
(-0.447652 0 0)
(-0.444103 0 0)
(-0.44055 0 0)
(-0.436994 0 0)
(-0.433434 0 0)
(-0.429871 0 0)
(-0.426304 0 0)
(-0.422734 0 0)
(-0.419161 0 0)
(-0.415584 0 0)
(-0.412004 0 0)
(-0.408421 0 0)
(-0.404835 0 0)
(-0.401245 0 0)
(-0.397653 0 0)
(-0.394057 0 0)
(-0.390459 0 0)
(-0.386857 0 0)
(-0.383252 0 0)
(-0.379645 0 0)
(-0.376034 0 0)
(-0.372421 0 0)
(-0.368805 0 0)
(-0.365186 0 0)
(-0.361564 0 0)
(-0.35794 0 0)
(-0.354313 0 0)
(-0.350683 0 0)
(-0.347051 0 0)
(-0.343416 0 0)
(-0.339778 0 0)
(-0.336138 0 0)
(-0.332495 0 0)
(-0.32885 0 0)
(-0.325203 0 0)
(-0.321553 0 0)
(-0.317901 0 0)
(-0.314246 0 0)
(-0.310589 0 0)
(-0.30693 0 0)
(-0.303269 0 0)
(-0.299605 0 0)
(-0.295939 0 0)
(-0.292271 0 0)
(-0.288601 0 0)
(-0.284929 0 0)
(-0.281255 0 0)
(-0.277579 0 0)
(-0.2739 0 0)
(-0.27022 0 0)
(-0.266538 0 0)
(-0.262854 0 0)
(-0.259168 0 0)
(-0.25548 0 0)
(-0.25179 0 0)
(-0.248099 0 0)
(-0.244406 0 0)
(-0.240711 0 0)
(-0.237014 0 0)
(-0.233316 0 0)
(-0.229616 0 0)
(-0.225914 0 0)
(-0.222211 0 0)
(-0.218506 0 0)
(-0.2148 0 0)
(-0.211092 0 0)
(-0.207383 0 0)
(-0.203672 0 0)
(-0.19996 0 0)
(-0.196246 0 0)
(-0.192531 0 0)
(-0.188815 0 0)
(-0.185097 0 0)
(-0.181378 0 0)
(-0.177658 0 0)
(-0.173937 0 0)
(-0.170214 0 0)
(-0.16649 0 0)
(-0.162765 0 0)
(-0.159039 0 0)
(-0.155312 0 0)
(-0.151584 0 0)
(-0.147855 0 0)
(-0.144124 0 0)
(-0.140393 0 0)
(-0.136661 0 0)
(-0.132927 0 0)
(-0.129193 0 0)
(-0.125458 0 0)
(-0.121722 0 0)
(-0.117986 0 0)
(-0.114248 0 0)
(-0.11051 0 0)
(-0.106771 0 0)
(-0.103031 0 0)
(-0.0992905 0 0)
(-0.0955494 0 0)
(-0.0918076 0 0)
(-0.0880651 0 0)
(-0.0843221 0 0)
(-0.0805784 0 0)
(-0.0768343 0 0)
(-0.0730896 0 0)
(-0.0693444 0 0)
(-0.0655987 0 0)
(-0.0618526 0 0)
(-0.058106 0 0)
(-0.0543591 0 0)
(-0.0506118 0 0)
(-0.0468642 0 0)
(-0.0431162 0 0)
(-0.0393679 0 0)
(-0.0356194 0 0)
(-0.0318707 0 0)
(-0.0281217 0 0)
(-0.0243725 0 0)
(-0.0206232 0 0)
(-0.0168737 0 0)
(-0.0131241 0 0)
(-0.00937442 0 0)
(-0.00562468 0 0)
(-0.0018749 0 0)
)
;

boundaryField
{
    left
    {
        type            fixedValue;
        value           uniform (0 0 0);
    }
    right
    {
        type            fixedValue;
        value           uniform (0 0 0);
    }
    frontBackUpDown
    {
        type            empty;
    }
}


// ************************************************************************* //
