/*--------------------------------*- C++ -*----------------------------------*\
| =========                 |                                                 |
| \\      /  F ield         | OpenFOAM: The Open Source CFD Toolbox           |
|  \\    /   O peration     | Version:  2412                                  |
|   \\  /    A nd           | Website:  www.openfoam.com                      |
|    \\/     M anipulation  |                                                 |
\*---------------------------------------------------------------------------*/
FoamFile
{
    version     2.0;
    format      ascii;
    arch        "LSB;label=32;scalar=64";
    class       volVectorField;
    location    "0.98";
    object      U_0;
}
// * * * * * * * * * * * * * * * * * * * * * * * * * * * * * * * * * * * * * //

dimensions      [0 1 -1 0 0 0 0];

internalField   nonuniform List<vector> 
800
(
(0.000964147 0 0)
(0.00289245 0 0)
(0.00482076 0 0)
(0.00674906 0 0)
(0.00867735 0 0)
(0.0106056 0 0)
(0.0125339 0 0)
(0.0144622 0 0)
(0.0163904 0 0)
(0.0183187 0 0)
(0.0202469 0 0)
(0.0221751 0 0)
(0.0241033 0 0)
(0.0260314 0 0)
(0.0279595 0 0)
(0.0298876 0 0)
(0.0318157 0 0)
(0.0337438 0 0)
(0.0356718 0 0)
(0.0375998 0 0)
(0.0395277 0 0)
(0.0414556 0 0)
(0.0433835 0 0)
(0.0453113 0 0)
(0.0472391 0 0)
(0.0491669 0 0)
(0.0510946 0 0)
(0.0530222 0 0)
(0.0549498 0 0)
(0.0568773 0 0)
(0.0588048 0 0)
(0.0607323 0 0)
(0.0626597 0 0)
(0.064587 0 0)
(0.0665143 0 0)
(0.0684415 0 0)
(0.0703686 0 0)
(0.0722957 0 0)
(0.0742227 0 0)
(0.0761496 0 0)
(0.0780764 0 0)
(0.0800032 0 0)
(0.0819299 0 0)
(0.0838566 0 0)
(0.0857831 0 0)
(0.0877096 0 0)
(0.089636 0 0)
(0.0915623 0 0)
(0.0934885 0 0)
(0.0954146 0 0)
(0.0973407 0 0)
(0.0992666 0 0)
(0.101192 0 0)
(0.103118 0 0)
(0.105044 0 0)
(0.106969 0 0)
(0.108895 0 0)
(0.11082 0 0)
(0.112746 0 0)
(0.114671 0 0)
(0.116596 0 0)
(0.118521 0 0)
(0.120445 0 0)
(0.12237 0 0)
(0.124295 0 0)
(0.126219 0 0)
(0.128144 0 0)
(0.130068 0 0)
(0.131992 0 0)
(0.133916 0 0)
(0.13584 0 0)
(0.137763 0 0)
(0.139687 0 0)
(0.14161 0 0)
(0.143534 0 0)
(0.145457 0 0)
(0.14738 0 0)
(0.149303 0 0)
(0.151226 0 0)
(0.153148 0 0)
(0.155071 0 0)
(0.156993 0 0)
(0.158915 0 0)
(0.160837 0 0)
(0.162759 0 0)
(0.164681 0 0)
(0.166602 0 0)
(0.168524 0 0)
(0.170445 0 0)
(0.172366 0 0)
(0.174287 0 0)
(0.176207 0 0)
(0.178128 0 0)
(0.180048 0 0)
(0.181968 0 0)
(0.183888 0 0)
(0.185808 0 0)
(0.187728 0 0)
(0.189647 0 0)
(0.191567 0 0)
(0.193486 0 0)
(0.195405 0 0)
(0.197323 0 0)
(0.199242 0 0)
(0.20116 0 0)
(0.203078 0 0)
(0.204996 0 0)
(0.206914 0 0)
(0.208832 0 0)
(0.210749 0 0)
(0.212666 0 0)
(0.214583 0 0)
(0.2165 0 0)
(0.218416 0 0)
(0.220332 0 0)
(0.222248 0 0)
(0.224164 0 0)
(0.22608 0 0)
(0.227995 0 0)
(0.22991 0 0)
(0.231825 0 0)
(0.23374 0 0)
(0.235654 0 0)
(0.237569 0 0)
(0.239483 0 0)
(0.241396 0 0)
(0.24331 0 0)
(0.245223 0 0)
(0.247136 0 0)
(0.249049 0 0)
(0.250962 0 0)
(0.252874 0 0)
(0.254786 0 0)
(0.256698 0 0)
(0.258609 0 0)
(0.26052 0 0)
(0.262431 0 0)
(0.264342 0 0)
(0.266252 0 0)
(0.268163 0 0)
(0.270072 0 0)
(0.271982 0 0)
(0.273891 0 0)
(0.2758 0 0)
(0.277709 0 0)
(0.279618 0 0)
(0.281526 0 0)
(0.283434 0 0)
(0.285342 0 0)
(0.287249 0 0)
(0.289156 0 0)
(0.291063 0 0)
(0.292969 0 0)
(0.294875 0 0)
(0.296781 0 0)
(0.298687 0 0)
(0.300592 0 0)
(0.302497 0 0)
(0.304401 0 0)
(0.306306 0 0)
(0.308209 0 0)
(0.310113 0 0)
(0.312016 0 0)
(0.313919 0 0)
(0.315822 0 0)
(0.317724 0 0)
(0.319626 0 0)
(0.321528 0 0)
(0.323429 0 0)
(0.32533 0 0)
(0.327231 0 0)
(0.329131 0 0)
(0.331031 0 0)
(0.332931 0 0)
(0.33483 0 0)
(0.336729 0 0)
(0.338627 0 0)
(0.340525 0 0)
(0.342423 0 0)
(0.34432 0 0)
(0.346218 0 0)
(0.348114 0 0)
(0.35001 0 0)
(0.351906 0 0)
(0.353802 0 0)
(0.355697 0 0)
(0.357592 0 0)
(0.359486 0 0)
(0.36138 0 0)
(0.363274 0 0)
(0.365167 0 0)
(0.36706 0 0)
(0.368952 0 0)
(0.370844 0 0)
(0.372736 0 0)
(0.374627 0 0)
(0.376517 0 0)
(0.378408 0 0)
(0.380298 0 0)
(0.382187 0 0)
(0.384076 0 0)
(0.385965 0 0)
(0.387853 0 0)
(0.389741 0 0)
(0.391628 0 0)
(0.393515 0 0)
(0.395401 0 0)
(0.397287 0 0)
(0.399173 0 0)
(0.401058 0 0)
(0.402943 0 0)
(0.404827 0 0)
(0.40671 0 0)
(0.408594 0 0)
(0.410476 0 0)
(0.412359 0 0)
(0.414241 0 0)
(0.416122 0 0)
(0.418003 0 0)
(0.419883 0 0)
(0.421763 0 0)
(0.423642 0 0)
(0.425521 0 0)
(0.4274 0 0)
(0.429278 0 0)
(0.431155 0 0)
(0.433032 0 0)
(0.434908 0 0)
(0.436784 0 0)
(0.43866 0 0)
(0.440535 0 0)
(0.442409 0 0)
(0.444283 0 0)
(0.446156 0 0)
(0.448029 0 0)
(0.449901 0 0)
(0.451773 0 0)
(0.453644 0 0)
(0.455514 0 0)
(0.457384 0 0)
(0.459254 0 0)
(0.461123 0 0)
(0.462991 0 0)
(0.464859 0 0)
(0.466726 0 0)
(0.468593 0 0)
(0.470459 0 0)
(0.472324 0 0)
(0.474189 0 0)
(0.476054 0 0)
(0.477917 0 0)
(0.47978 0 0)
(0.481643 0 0)
(0.483505 0 0)
(0.485366 0 0)
(0.487227 0 0)
(0.489087 0 0)
(0.490946 0 0)
(0.492805 0 0)
(0.494664 0 0)
(0.496521 0 0)
(0.498378 0 0)
(0.500235 0 0)
(0.50209 0 0)
(0.503945 0 0)
(0.5058 0 0)
(0.507653 0 0)
(0.509506 0 0)
(0.511359 0 0)
(0.513211 0 0)
(0.515062 0 0)
(0.516912 0 0)
(0.518762 0 0)
(0.520611 0 0)
(0.522459 0 0)
(0.524307 0 0)
(0.526154 0 0)
(0.528 0 0)
(0.529846 0 0)
(0.531691 0 0)
(0.533535 0 0)
(0.535378 0 0)
(0.537221 0 0)
(0.539063 0 0)
(0.540904 0 0)
(0.542744 0 0)
(0.544584 0 0)
(0.546423 0 0)
(0.548261 0 0)
(0.550099 0 0)
(0.551936 0 0)
(0.553771 0 0)
(0.555607 0 0)
(0.557441 0 0)
(0.559275 0 0)
(0.561107 0 0)
(0.562939 0 0)
(0.564771 0 0)
(0.566601 0 0)
(0.568431 0 0)
(0.570259 0 0)
(0.572087 0 0)
(0.573915 0 0)
(0.575741 0 0)
(0.577566 0 0)
(0.579391 0 0)
(0.581215 0 0)
(0.583038 0 0)
(0.58486 0 0)
(0.586681 0 0)
(0.588501 0 0)
(0.590321 0 0)
(0.59214 0 0)
(0.593957 0 0)
(0.595774 0 0)
(0.59759 0 0)
(0.599405 0 0)
(0.601219 0 0)
(0.603032 0 0)
(0.604844 0 0)
(0.606656 0 0)
(0.608466 0 0)
(0.610276 0 0)
(0.612084 0 0)
(0.613892 0 0)
(0.615698 0 0)
(0.617504 0 0)
(0.619309 0 0)
(0.621112 0 0)
(0.622915 0 0)
(0.624717 0 0)
(0.626517 0 0)
(0.628317 0 0)
(0.630116 0 0)
(0.631913 0 0)
(0.63371 0 0)
(0.635505 0 0)
(0.6373 0 0)
(0.639093 0 0)
(0.640886 0 0)
(0.642677 0 0)
(0.644468 0 0)
(0.646257 0 0)
(0.648045 0 0)
(0.649832 0 0)
(0.651618 0 0)
(0.653403 0 0)
(0.655186 0 0)
(0.656969 0 0)
(0.65875 0 0)
(0.660531 0 0)
(0.66231 0 0)
(0.664088 0 0)
(0.665865 0 0)
(0.66764 0 0)
(0.669415 0 0)
(0.671188 0 0)
(0.67296 0 0)
(0.674731 0 0)
(0.676501 0 0)
(0.678269 0 0)
(0.680036 0 0)
(0.681802 0 0)
(0.683567 0 0)
(0.68533 0 0)
(0.687092 0 0)
(0.688853 0 0)
(0.690613 0 0)
(0.692371 0 0)
(0.694128 0 0)
(0.695884 0 0)
(0.697638 0 0)
(0.699391 0 0)
(0.701143 0 0)
(0.702893 0 0)
(0.704642 0 0)
(0.70639 0 0)
(0.708136 0 0)
(0.70988 0 0)
(0.711624 0 0)
(0.713366 0 0)
(0.715106 0 0)
(0.716845 0 0)
(0.718583 0 0)
(0.720319 0 0)
(0.722053 0 0)
(0.723787 0 0)
(0.725518 0 0)
(0.727248 0 0)
(0.728977 0 0)
(0.730704 0 0)
(0.732429 0 0)
(0.734153 0 0)
(0.735876 0 0)
(0.737596 0 0)
(0.739313 0 0)
(0.740962 0 0)
(0.740812 0 0)
(0.699436 0 0)
(0.349133 0 0)
(-0.347945 0 0)
(-0.69919 0 0)
(-0.740797 0 0)
(-0.740959 0 0)
(-0.739311 0 0)
(-0.737594 0 0)
(-0.735873 0 0)
(-0.734151 0 0)
(-0.732427 0 0)
(-0.730702 0 0)
(-0.728975 0 0)
(-0.727246 0 0)
(-0.725516 0 0)
(-0.723784 0 0)
(-0.722051 0 0)
(-0.720317 0 0)
(-0.71858 0 0)
(-0.716843 0 0)
(-0.715104 0 0)
(-0.713363 0 0)
(-0.711621 0 0)
(-0.709878 0 0)
(-0.708133 0 0)
(-0.706387 0 0)
(-0.70464 0 0)
(-0.702891 0 0)
(-0.701141 0 0)
(-0.699389 0 0)
(-0.697636 0 0)
(-0.695882 0 0)
(-0.694126 0 0)
(-0.692369 0 0)
(-0.690611 0 0)
(-0.688851 0 0)
(-0.68709 0 0)
(-0.685328 0 0)
(-0.683565 0 0)
(-0.6818 0 0)
(-0.680034 0 0)
(-0.678267 0 0)
(-0.676498 0 0)
(-0.674729 0 0)
(-0.672958 0 0)
(-0.671186 0 0)
(-0.669413 0 0)
(-0.667638 0 0)
(-0.665863 0 0)
(-0.664086 0 0)
(-0.662308 0 0)
(-0.660529 0 0)
(-0.658748 0 0)
(-0.656967 0 0)
(-0.655184 0 0)
(-0.653401 0 0)
(-0.651616 0 0)
(-0.64983 0 0)
(-0.648043 0 0)
(-0.646255 0 0)
(-0.644466 0 0)
(-0.642675 0 0)
(-0.640884 0 0)
(-0.639091 0 0)
(-0.637298 0 0)
(-0.635503 0 0)
(-0.633708 0 0)
(-0.631911 0 0)
(-0.630114 0 0)
(-0.628315 0 0)
(-0.626515 0 0)
(-0.624715 0 0)
(-0.622913 0 0)
(-0.62111 0 0)
(-0.619307 0 0)
(-0.617502 0 0)
(-0.615696 0 0)
(-0.61389 0 0)
(-0.612082 0 0)
(-0.610274 0 0)
(-0.608464 0 0)
(-0.606654 0 0)
(-0.604843 0 0)
(-0.60303 0 0)
(-0.601217 0 0)
(-0.599403 0 0)
(-0.597588 0 0)
(-0.595772 0 0)
(-0.593955 0 0)
(-0.592138 0 0)
(-0.590319 0 0)
(-0.5885 0 0)
(-0.586679 0 0)
(-0.584858 0 0)
(-0.583036 0 0)
(-0.581213 0 0)
(-0.579389 0 0)
(-0.577565 0 0)
(-0.575739 0 0)
(-0.573913 0 0)
(-0.572086 0 0)
(-0.570258 0 0)
(-0.568429 0 0)
(-0.566599 0 0)
(-0.564769 0 0)
(-0.562938 0 0)
(-0.561106 0 0)
(-0.559273 0 0)
(-0.557439 0 0)
(-0.555605 0 0)
(-0.55377 0 0)
(-0.551934 0 0)
(-0.550097 0 0)
(-0.54826 0 0)
(-0.546422 0 0)
(-0.544583 0 0)
(-0.542743 0 0)
(-0.540902 0 0)
(-0.539061 0 0)
(-0.537219 0 0)
(-0.535377 0 0)
(-0.533533 0 0)
(-0.531689 0 0)
(-0.529844 0 0)
(-0.527999 0 0)
(-0.526152 0 0)
(-0.524305 0 0)
(-0.522458 0 0)
(-0.520609 0 0)
(-0.51876 0 0)
(-0.516911 0 0)
(-0.51506 0 0)
(-0.513209 0 0)
(-0.511358 0 0)
(-0.509505 0 0)
(-0.507652 0 0)
(-0.505798 0 0)
(-0.503944 0 0)
(-0.502089 0 0)
(-0.500233 0 0)
(-0.498377 0 0)
(-0.49652 0 0)
(-0.494662 0 0)
(-0.492804 0 0)
(-0.490945 0 0)
(-0.489086 0 0)
(-0.487226 0 0)
(-0.485365 0 0)
(-0.483504 0 0)
(-0.481642 0 0)
(-0.479779 0 0)
(-0.477916 0 0)
(-0.476052 0 0)
(-0.474188 0 0)
(-0.472323 0 0)
(-0.470458 0 0)
(-0.468592 0 0)
(-0.466725 0 0)
(-0.464858 0 0)
(-0.46299 0 0)
(-0.461122 0 0)
(-0.459253 0 0)
(-0.457383 0 0)
(-0.455513 0 0)
(-0.453643 0 0)
(-0.451771 0 0)
(-0.4499 0 0)
(-0.448028 0 0)
(-0.446155 0 0)
(-0.444282 0 0)
(-0.442408 0 0)
(-0.440534 0 0)
(-0.438659 0 0)
(-0.436783 0 0)
(-0.434907 0 0)
(-0.433031 0 0)
(-0.431154 0 0)
(-0.429277 0 0)
(-0.427399 0 0)
(-0.42552 0 0)
(-0.423641 0 0)
(-0.421762 0 0)
(-0.419882 0 0)
(-0.418002 0 0)
(-0.416121 0 0)
(-0.41424 0 0)
(-0.412358 0 0)
(-0.410475 0 0)
(-0.408593 0 0)
(-0.406709 0 0)
(-0.404826 0 0)
(-0.402942 0 0)
(-0.401057 0 0)
(-0.399172 0 0)
(-0.397286 0 0)
(-0.3954 0 0)
(-0.393514 0 0)
(-0.391627 0 0)
(-0.38974 0 0)
(-0.387852 0 0)
(-0.385964 0 0)
(-0.384075 0 0)
(-0.382186 0 0)
(-0.380297 0 0)
(-0.378407 0 0)
(-0.376517 0 0)
(-0.374626 0 0)
(-0.372735 0 0)
(-0.370843 0 0)
(-0.368951 0 0)
(-0.367059 0 0)
(-0.365166 0 0)
(-0.363273 0 0)
(-0.361379 0 0)
(-0.359485 0 0)
(-0.357591 0 0)
(-0.355696 0 0)
(-0.353801 0 0)
(-0.351906 0 0)
(-0.35001 0 0)
(-0.348113 0 0)
(-0.346217 0 0)
(-0.34432 0 0)
(-0.342422 0 0)
(-0.340525 0 0)
(-0.338627 0 0)
(-0.336728 0 0)
(-0.334829 0 0)
(-0.33293 0 0)
(-0.33103 0 0)
(-0.329131 0 0)
(-0.32723 0 0)
(-0.32533 0 0)
(-0.323429 0 0)
(-0.321527 0 0)
(-0.319626 0 0)
(-0.317724 0 0)
(-0.315821 0 0)
(-0.313919 0 0)
(-0.312016 0 0)
(-0.310113 0 0)
(-0.308209 0 0)
(-0.306305 0 0)
(-0.304401 0 0)
(-0.302496 0 0)
(-0.300591 0 0)
(-0.298686 0 0)
(-0.296781 0 0)
(-0.294875 0 0)
(-0.292969 0 0)
(-0.291062 0 0)
(-0.289155 0 0)
(-0.287248 0 0)
(-0.285341 0 0)
(-0.283433 0 0)
(-0.281525 0 0)
(-0.279617 0 0)
(-0.277709 0 0)
(-0.2758 0 0)
(-0.273891 0 0)
(-0.271982 0 0)
(-0.270072 0 0)
(-0.268162 0 0)
(-0.266252 0 0)
(-0.264342 0 0)
(-0.262431 0 0)
(-0.26052 0 0)
(-0.258609 0 0)
(-0.256697 0 0)
(-0.254785 0 0)
(-0.252873 0 0)
(-0.250961 0 0)
(-0.249049 0 0)
(-0.247136 0 0)
(-0.245223 0 0)
(-0.24331 0 0)
(-0.241396 0 0)
(-0.239482 0 0)
(-0.237568 0 0)
(-0.235654 0 0)
(-0.23374 0 0)
(-0.231825 0 0)
(-0.22991 0 0)
(-0.227995 0 0)
(-0.22608 0 0)
(-0.224164 0 0)
(-0.222248 0 0)
(-0.220332 0 0)
(-0.218416 0 0)
(-0.216499 0 0)
(-0.214583 0 0)
(-0.212666 0 0)
(-0.210749 0 0)
(-0.208831 0 0)
(-0.206914 0 0)
(-0.204996 0 0)
(-0.203078 0 0)
(-0.20116 0 0)
(-0.199242 0 0)
(-0.197323 0 0)
(-0.195404 0 0)
(-0.193486 0 0)
(-0.191566 0 0)
(-0.189647 0 0)
(-0.187728 0 0)
(-0.185808 0 0)
(-0.183888 0 0)
(-0.181968 0 0)
(-0.180048 0 0)
(-0.178128 0 0)
(-0.176207 0 0)
(-0.174286 0 0)
(-0.172366 0 0)
(-0.170445 0 0)
(-0.168523 0 0)
(-0.166602 0 0)
(-0.16468 0 0)
(-0.162759 0 0)
(-0.160837 0 0)
(-0.158915 0 0)
(-0.156993 0 0)
(-0.15507 0 0)
(-0.153148 0 0)
(-0.151225 0 0)
(-0.149303 0 0)
(-0.14738 0 0)
(-0.145457 0 0)
(-0.143534 0 0)
(-0.14161 0 0)
(-0.139687 0 0)
(-0.137763 0 0)
(-0.13584 0 0)
(-0.133916 0 0)
(-0.131992 0 0)
(-0.130068 0 0)
(-0.128143 0 0)
(-0.126219 0 0)
(-0.124295 0 0)
(-0.12237 0 0)
(-0.120445 0 0)
(-0.118521 0 0)
(-0.116596 0 0)
(-0.114671 0 0)
(-0.112745 0 0)
(-0.11082 0 0)
(-0.108895 0 0)
(-0.106969 0 0)
(-0.105044 0 0)
(-0.103118 0 0)
(-0.101192 0 0)
(-0.0992666 0 0)
(-0.0973406 0 0)
(-0.0954146 0 0)
(-0.0934885 0 0)
(-0.0915622 0 0)
(-0.0896359 0 0)
(-0.0877096 0 0)
(-0.0857831 0 0)
(-0.0838565 0 0)
(-0.0819299 0 0)
(-0.0800032 0 0)
(-0.0780764 0 0)
(-0.0761495 0 0)
(-0.0742226 0 0)
(-0.0722956 0 0)
(-0.0703686 0 0)
(-0.0684414 0 0)
(-0.0665142 0 0)
(-0.064587 0 0)
(-0.0626596 0 0)
(-0.0607323 0 0)
(-0.0588048 0 0)
(-0.0568773 0 0)
(-0.0549498 0 0)
(-0.0530222 0 0)
(-0.0510945 0 0)
(-0.0491668 0 0)
(-0.0472391 0 0)
(-0.0453113 0 0)
(-0.0433835 0 0)
(-0.0414556 0 0)
(-0.0395277 0 0)
(-0.0375998 0 0)
(-0.0356718 0 0)
(-0.0337438 0 0)
(-0.0318157 0 0)
(-0.0298876 0 0)
(-0.0279595 0 0)
(-0.0260314 0 0)
(-0.0241033 0 0)
(-0.0221751 0 0)
(-0.0202469 0 0)
(-0.0183187 0 0)
(-0.0163904 0 0)
(-0.0144622 0 0)
(-0.0125339 0 0)
(-0.0106056 0 0)
(-0.00867736 0 0)
(-0.00674906 0 0)
(-0.00482076 0 0)
(-0.00289246 0 0)
(-0.000964154 0 0)
)
;

boundaryField
{
    left
    {
        type            fixedValue;
        value           uniform (0 0 0);
    }
    right
    {
        type            fixedValue;
        value           uniform (0 0 0);
    }
    frontBackUpDown
    {
        type            empty;
    }
}


// ************************************************************************* //
