/*--------------------------------*- C++ -*----------------------------------*\
| =========                 |                                                 |
| \\      /  F ield         | OpenFOAM: The Open Source CFD Toolbox           |
|  \\    /   O peration     | Version:  2412                                  |
|   \\  /    A nd           | Website:  www.openfoam.com                      |
|    \\/     M anipulation  |                                                 |
\*---------------------------------------------------------------------------*/
FoamFile
{
    version     2.0;
    format      ascii;
    arch        "LSB;label=32;scalar=64";
    class       volVectorField;
    location    "0.08";
    object      U_0_0_0;
}
// * * * * * * * * * * * * * * * * * * * * * * * * * * * * * * * * * * * * * //

dimensions      [0 1 -1 0 0 0 0];

internalField   nonuniform List<vector> 
800
(
(0.00314942 0 0)
(0.0094483 0 0)
(0.0157469 0 0)
(0.022045 0 0)
(0.0283424 0 0)
(0.0346389 0 0)
(0.0409342 0 0)
(0.0472283 0 0)
(0.0535209 0 0)
(0.0598117 0 0)
(0.0661007 0 0)
(0.0723875 0 0)
(0.078672 0 0)
(0.084954 0 0)
(0.0912333 0 0)
(0.0975097 0 0)
(0.103783 0 0)
(0.110053 0 0)
(0.116319 0 0)
(0.122582 0 0)
(0.128841 0 0)
(0.135095 0 0)
(0.141346 0 0)
(0.147591 0 0)
(0.153832 0 0)
(0.160069 0 0)
(0.166299 0 0)
(0.172525 0 0)
(0.178745 0 0)
(0.184959 0 0)
(0.191168 0 0)
(0.19737 0 0)
(0.203566 0 0)
(0.209755 0 0)
(0.215937 0 0)
(0.222113 0 0)
(0.228281 0 0)
(0.234442 0 0)
(0.240596 0 0)
(0.246741 0 0)
(0.252879 0 0)
(0.259008 0 0)
(0.265129 0 0)
(0.271241 0 0)
(0.277344 0 0)
(0.283439 0 0)
(0.289524 0 0)
(0.295599 0 0)
(0.301665 0 0)
(0.307721 0 0)
(0.313767 0 0)
(0.319803 0 0)
(0.325828 0 0)
(0.331842 0 0)
(0.337845 0 0)
(0.343838 0 0)
(0.349819 0 0)
(0.355788 0 0)
(0.361745 0 0)
(0.367691 0 0)
(0.373624 0 0)
(0.379545 0 0)
(0.385453 0 0)
(0.391349 0 0)
(0.397231 0 0)
(0.4031 0 0)
(0.408955 0 0)
(0.414797 0 0)
(0.420625 0 0)
(0.426438 0 0)
(0.432237 0 0)
(0.438022 0 0)
(0.443792 0 0)
(0.449546 0 0)
(0.455286 0 0)
(0.46101 0 0)
(0.466718 0 0)
(0.47241 0 0)
(0.478086 0 0)
(0.483746 0 0)
(0.489389 0 0)
(0.495015 0 0)
(0.500624 0 0)
(0.506216 0 0)
(0.51179 0 0)
(0.517347 0 0)
(0.522885 0 0)
(0.528406 0 0)
(0.533907 0 0)
(0.539391 0 0)
(0.544855 0 0)
(0.5503 0 0)
(0.555726 0 0)
(0.561132 0 0)
(0.566519 0 0)
(0.571885 0 0)
(0.577231 0 0)
(0.582556 0 0)
(0.587861 0 0)
(0.593144 0 0)
(0.598407 0 0)
(0.603647 0 0)
(0.608866 0 0)
(0.614064 0 0)
(0.619238 0 0)
(0.624391 0 0)
(0.62952 0 0)
(0.634627 0 0)
(0.63971 0 0)
(0.64477 0 0)
(0.649807 0 0)
(0.654819 0 0)
(0.659807 0 0)
(0.664771 0 0)
(0.669709 0 0)
(0.674623 0 0)
(0.679512 0 0)
(0.684375 0 0)
(0.689213 0 0)
(0.694025 0 0)
(0.69881 0 0)
(0.703569 0 0)
(0.708301 0 0)
(0.713006 0 0)
(0.717684 0 0)
(0.722334 0 0)
(0.726956 0 0)
(0.731551 0 0)
(0.736117 0 0)
(0.740654 0 0)
(0.745163 0 0)
(0.749642 0 0)
(0.754092 0 0)
(0.758512 0 0)
(0.762903 0 0)
(0.767263 0 0)
(0.771593 0 0)
(0.775892 0 0)
(0.780159 0 0)
(0.784396 0 0)
(0.788601 0 0)
(0.792774 0 0)
(0.796915 0 0)
(0.801023 0 0)
(0.805099 0 0)
(0.809142 0 0)
(0.813151 0 0)
(0.817127 0 0)
(0.821069 0 0)
(0.824977 0 0)
(0.828851 0 0)
(0.83269 0 0)
(0.836493 0 0)
(0.840262 0 0)
(0.843994 0 0)
(0.847691 0 0)
(0.851352 0 0)
(0.854976 0 0)
(0.858564 0 0)
(0.862114 0 0)
(0.865627 0 0)
(0.869102 0 0)
(0.872539 0 0)
(0.875938 0 0)
(0.879298 0 0)
(0.88262 0 0)
(0.885902 0 0)
(0.889145 0 0)
(0.892347 0 0)
(0.89551 0 0)
(0.898632 0 0)
(0.901714 0 0)
(0.904754 0 0)
(0.907753 0 0)
(0.91071 0 0)
(0.913625 0 0)
(0.916498 0 0)
(0.919328 0 0)
(0.922115 0 0)
(0.924858 0 0)
(0.927558 0 0)
(0.930214 0 0)
(0.932826 0 0)
(0.935393 0 0)
(0.937915 0 0)
(0.940392 0 0)
(0.942823 0 0)
(0.945208 0 0)
(0.947547 0 0)
(0.949839 0 0)
(0.952084 0 0)
(0.954282 0 0)
(0.956432 0 0)
(0.958534 0 0)
(0.960588 0 0)
(0.962594 0 0)
(0.96455 0 0)
(0.966457 0 0)
(0.968314 0 0)
(0.970121 0 0)
(0.971878 0 0)
(0.973584 0 0)
(0.975239 0 0)
(0.976842 0 0)
(0.978394 0 0)
(0.979893 0 0)
(0.98134 0 0)
(0.982735 0 0)
(0.984076 0 0)
(0.985363 0 0)
(0.986597 0 0)
(0.987776 0 0)
(0.9889 0 0)
(0.98997 0 0)
(0.990985 0 0)
(0.991943 0 0)
(0.992846 0 0)
(0.993692 0 0)
(0.994482 0 0)
(0.995214 0 0)
(0.995889 0 0)
(0.996506 0 0)
(0.997065 0 0)
(0.997565 0 0)
(0.998007 0 0)
(0.998389 0 0)
(0.998712 0 0)
(0.998974 0 0)
(0.999176 0 0)
(0.999318 0 0)
(0.999398 0 0)
(0.999417 0 0)
(0.999374 0 0)
(0.999269 0 0)
(0.999102 0 0)
(0.998871 0 0)
(0.998578 0 0)
(0.99822 0 0)
(0.997799 0 0)
(0.997314 0 0)
(0.996764 0 0)
(0.996149 0 0)
(0.995468 0 0)
(0.994722 0 0)
(0.99391 0 0)
(0.993031 0 0)
(0.992086 0 0)
(0.991074 0 0)
(0.989994 0 0)
(0.988846 0 0)
(0.98763 0 0)
(0.986346 0 0)
(0.984993 0 0)
(0.983571 0 0)
(0.98208 0 0)
(0.980518 0 0)
(0.978887 0 0)
(0.977185 0 0)
(0.975412 0 0)
(0.973568 0 0)
(0.971653 0 0)
(0.969666 0 0)
(0.967607 0 0)
(0.965476 0 0)
(0.963272 0 0)
(0.960995 0 0)
(0.958645 0 0)
(0.956221 0 0)
(0.953724 0 0)
(0.951152 0 0)
(0.948506 0 0)
(0.945786 0 0)
(0.942991 0 0)
(0.94012 0 0)
(0.937174 0 0)
(0.934153 0 0)
(0.931055 0 0)
(0.927881 0 0)
(0.924631 0 0)
(0.921304 0 0)
(0.917901 0 0)
(0.91442 0 0)
(0.910862 0 0)
(0.907227 0 0)
(0.903514 0 0)
(0.899723 0 0)
(0.895854 0 0)
(0.891907 0 0)
(0.887882 0 0)
(0.883778 0 0)
(0.879595 0 0)
(0.875333 0 0)
(0.870993 0 0)
(0.866574 0 0)
(0.862075 0 0)
(0.857497 0 0)
(0.85284 0 0)
(0.848103 0 0)
(0.843287 0 0)
(0.838391 0 0)
(0.833416 0 0)
(0.828361 0 0)
(0.823226 0 0)
(0.818012 0 0)
(0.812718 0 0)
(0.807344 0 0)
(0.801891 0 0)
(0.796358 0 0)
(0.790745 0 0)
(0.785053 0 0)
(0.779281 0 0)
(0.773431 0 0)
(0.7675 0 0)
(0.761491 0 0)
(0.755403 0 0)
(0.749236 0 0)
(0.74299 0 0)
(0.736666 0 0)
(0.730264 0 0)
(0.723783 0 0)
(0.717225 0 0)
(0.710589 0 0)
(0.703875 0 0)
(0.697085 0 0)
(0.690218 0 0)
(0.683274 0 0)
(0.676254 0 0)
(0.669158 0 0)
(0.661987 0 0)
(0.654741 0 0)
(0.64742 0 0)
(0.640025 0 0)
(0.632557 0 0)
(0.625014 0 0)
(0.617399 0 0)
(0.609712 0 0)
(0.601953 0 0)
(0.594122 0 0)
(0.586221 0 0)
(0.57825 0 0)
(0.570209 0 0)
(0.562099 0 0)
(0.553921 0 0)
(0.545675 0 0)
(0.537362 0 0)
(0.528983 0 0)
(0.520538 0 0)
(0.512029 0 0)
(0.503455 0 0)
(0.494818 0 0)
(0.486119 0 0)
(0.477358 0 0)
(0.468536 0 0)
(0.459655 0 0)
(0.450714 0 0)
(0.441715 0 0)
(0.432659 0 0)
(0.423546 0 0)
(0.414378 0 0)
(0.405156 0 0)
(0.395881 0 0)
(0.386553 0 0)
(0.377174 0 0)
(0.367744 0 0)
(0.358266 0 0)
(0.34874 0 0)
(0.339166 0 0)
(0.329547 0 0)
(0.319884 0 0)
(0.310176 0 0)
(0.300427 0 0)
(0.290637 0 0)
(0.280806 0 0)
(0.270938 0 0)
(0.261032 0 0)
(0.25109 0 0)
(0.241113 0 0)
(0.231102 0 0)
(0.22106 0 0)
(0.210987 0 0)
(0.200884 0 0)
(0.190753 0 0)
(0.180596 0 0)
(0.170413 0 0)
(0.160206 0 0)
(0.149976 0 0)
(0.139726 0 0)
(0.129456 0 0)
(0.119167 0 0)
(0.108861 0 0)
(0.0985403 0 0)
(0.0882053 0 0)
(0.0778578 0 0)
(0.0674992 0 0)
(0.057131 0 0)
(0.0467547 0 0)
(0.0363716 0 0)
(0.0259835 0 0)
(0.0155916 0 0)
(0.00519744 0 0)
(-0.00519743 0 0)
(-0.0155915 0 0)
(-0.0259834 0 0)
(-0.0363716 0 0)
(-0.0467546 0 0)
(-0.057131 0 0)
(-0.0674992 0 0)
(-0.0778577 0 0)
(-0.0882053 0 0)
(-0.0985402 0 0)
(-0.108861 0 0)
(-0.119167 0 0)
(-0.129455 0 0)
(-0.139726 0 0)
(-0.149976 0 0)
(-0.160206 0 0)
(-0.170413 0 0)
(-0.180595 0 0)
(-0.190753 0 0)
(-0.200884 0 0)
(-0.210986 0 0)
(-0.22106 0 0)
(-0.231102 0 0)
(-0.241112 0 0)
(-0.251089 0 0)
(-0.261031 0 0)
(-0.270937 0 0)
(-0.280806 0 0)
(-0.290636 0 0)
(-0.300427 0 0)
(-0.310176 0 0)
(-0.319883 0 0)
(-0.329547 0 0)
(-0.339166 0 0)
(-0.348739 0 0)
(-0.358265 0 0)
(-0.367744 0 0)
(-0.377173 0 0)
(-0.386552 0 0)
(-0.39588 0 0)
(-0.405155 0 0)
(-0.414377 0 0)
(-0.423545 0 0)
(-0.432658 0 0)
(-0.441714 0 0)
(-0.450713 0 0)
(-0.459654 0 0)
(-0.468535 0 0)
(-0.477357 0 0)
(-0.486118 0 0)
(-0.494817 0 0)
(-0.503454 0 0)
(-0.512028 0 0)
(-0.520537 0 0)
(-0.528982 0 0)
(-0.537361 0 0)
(-0.545674 0 0)
(-0.55392 0 0)
(-0.562098 0 0)
(-0.570208 0 0)
(-0.578249 0 0)
(-0.58622 0 0)
(-0.594121 0 0)
(-0.601952 0 0)
(-0.609711 0 0)
(-0.617398 0 0)
(-0.625013 0 0)
(-0.632555 0 0)
(-0.640024 0 0)
(-0.647419 0 0)
(-0.65474 0 0)
(-0.661986 0 0)
(-0.669157 0 0)
(-0.676253 0 0)
(-0.683272 0 0)
(-0.690216 0 0)
(-0.697083 0 0)
(-0.703874 0 0)
(-0.710587 0 0)
(-0.717223 0 0)
(-0.723782 0 0)
(-0.730262 0 0)
(-0.736665 0 0)
(-0.742989 0 0)
(-0.749235 0 0)
(-0.755402 0 0)
(-0.76149 0 0)
(-0.767499 0 0)
(-0.773429 0 0)
(-0.77928 0 0)
(-0.785052 0 0)
(-0.790744 0 0)
(-0.796356 0 0)
(-0.801889 0 0)
(-0.807343 0 0)
(-0.812717 0 0)
(-0.818011 0 0)
(-0.823225 0 0)
(-0.82836 0 0)
(-0.833415 0 0)
(-0.83839 0 0)
(-0.843286 0 0)
(-0.848102 0 0)
(-0.852839 0 0)
(-0.857496 0 0)
(-0.862074 0 0)
(-0.866573 0 0)
(-0.870992 0 0)
(-0.875332 0 0)
(-0.879594 0 0)
(-0.883777 0 0)
(-0.887881 0 0)
(-0.891906 0 0)
(-0.895853 0 0)
(-0.899722 0 0)
(-0.903513 0 0)
(-0.907226 0 0)
(-0.910862 0 0)
(-0.91442 0 0)
(-0.9179 0 0)
(-0.921304 0 0)
(-0.924631 0 0)
(-0.927881 0 0)
(-0.931054 0 0)
(-0.934152 0 0)
(-0.937174 0 0)
(-0.94012 0 0)
(-0.94299 0 0)
(-0.945786 0 0)
(-0.948506 0 0)
(-0.951152 0 0)
(-0.953723 0 0)
(-0.956221 0 0)
(-0.958644 0 0)
(-0.960994 0 0)
(-0.963271 0 0)
(-0.965475 0 0)
(-0.967607 0 0)
(-0.969666 0 0)
(-0.971652 0 0)
(-0.973568 0 0)
(-0.975412 0 0)
(-0.977184 0 0)
(-0.978886 0 0)
(-0.980518 0 0)
(-0.982079 0 0)
(-0.983571 0 0)
(-0.984993 0 0)
(-0.986346 0 0)
(-0.98763 0 0)
(-0.988846 0 0)
(-0.989994 0 0)
(-0.991074 0 0)
(-0.992086 0 0)
(-0.993031 0 0)
(-0.99391 0 0)
(-0.994722 0 0)
(-0.995468 0 0)
(-0.996149 0 0)
(-0.996764 0 0)
(-0.997314 0 0)
(-0.997799 0 0)
(-0.99822 0 0)
(-0.998578 0 0)
(-0.998871 0 0)
(-0.999102 0 0)
(-0.999269 0 0)
(-0.999374 0 0)
(-0.999417 0 0)
(-0.999398 0 0)
(-0.999318 0 0)
(-0.999176 0 0)
(-0.998974 0 0)
(-0.998712 0 0)
(-0.998389 0 0)
(-0.998007 0 0)
(-0.997565 0 0)
(-0.997065 0 0)
(-0.996506 0 0)
(-0.995889 0 0)
(-0.995214 0 0)
(-0.994482 0 0)
(-0.993692 0 0)
(-0.992846 0 0)
(-0.991943 0 0)
(-0.990985 0 0)
(-0.98997 0 0)
(-0.9889 0 0)
(-0.987776 0 0)
(-0.986596 0 0)
(-0.985363 0 0)
(-0.984075 0 0)
(-0.982734 0 0)
(-0.98134 0 0)
(-0.979893 0 0)
(-0.978394 0 0)
(-0.976842 0 0)
(-0.975239 0 0)
(-0.973584 0 0)
(-0.971878 0 0)
(-0.970121 0 0)
(-0.968314 0 0)
(-0.966457 0 0)
(-0.96455 0 0)
(-0.962593 0 0)
(-0.960588 0 0)
(-0.958534 0 0)
(-0.956432 0 0)
(-0.954282 0 0)
(-0.952084 0 0)
(-0.949839 0 0)
(-0.947546 0 0)
(-0.945208 0 0)
(-0.942822 0 0)
(-0.940391 0 0)
(-0.937915 0 0)
(-0.935393 0 0)
(-0.932826 0 0)
(-0.930214 0 0)
(-0.927558 0 0)
(-0.924858 0 0)
(-0.922114 0 0)
(-0.919327 0 0)
(-0.916497 0 0)
(-0.913624 0 0)
(-0.910709 0 0)
(-0.907752 0 0)
(-0.904753 0 0)
(-0.901713 0 0)
(-0.898632 0 0)
(-0.895509 0 0)
(-0.892347 0 0)
(-0.889144 0 0)
(-0.885901 0 0)
(-0.882619 0 0)
(-0.879298 0 0)
(-0.875937 0 0)
(-0.872539 0 0)
(-0.869101 0 0)
(-0.865626 0 0)
(-0.862113 0 0)
(-0.858563 0 0)
(-0.854975 0 0)
(-0.851351 0 0)
(-0.847691 0 0)
(-0.843994 0 0)
(-0.840261 0 0)
(-0.836492 0 0)
(-0.832689 0 0)
(-0.82885 0 0)
(-0.824977 0 0)
(-0.821069 0 0)
(-0.817127 0 0)
(-0.813151 0 0)
(-0.809141 0 0)
(-0.805098 0 0)
(-0.801023 0 0)
(-0.796914 0 0)
(-0.792773 0 0)
(-0.7886 0 0)
(-0.784395 0 0)
(-0.780159 0 0)
(-0.775891 0 0)
(-0.771592 0 0)
(-0.767262 0 0)
(-0.762902 0 0)
(-0.758511 0 0)
(-0.754091 0 0)
(-0.749641 0 0)
(-0.745162 0 0)
(-0.740653 0 0)
(-0.736116 0 0)
(-0.73155 0 0)
(-0.726955 0 0)
(-0.722333 0 0)
(-0.717683 0 0)
(-0.713005 0 0)
(-0.7083 0 0)
(-0.703568 0 0)
(-0.698809 0 0)
(-0.694024 0 0)
(-0.689212 0 0)
(-0.684375 0 0)
(-0.679511 0 0)
(-0.674623 0 0)
(-0.669709 0 0)
(-0.66477 0 0)
(-0.659806 0 0)
(-0.654818 0 0)
(-0.649806 0 0)
(-0.644769 0 0)
(-0.63971 0 0)
(-0.634626 0 0)
(-0.629519 0 0)
(-0.62439 0 0)
(-0.619238 0 0)
(-0.614063 0 0)
(-0.608866 0 0)
(-0.603647 0 0)
(-0.598406 0 0)
(-0.593144 0 0)
(-0.58786 0 0)
(-0.582555 0 0)
(-0.57723 0 0)
(-0.571884 0 0)
(-0.566518 0 0)
(-0.561131 0 0)
(-0.555725 0 0)
(-0.550299 0 0)
(-0.544854 0 0)
(-0.53939 0 0)
(-0.533907 0 0)
(-0.528405 0 0)
(-0.522885 0 0)
(-0.517346 0 0)
(-0.511789 0 0)
(-0.506215 0 0)
(-0.500623 0 0)
(-0.495014 0 0)
(-0.489388 0 0)
(-0.483745 0 0)
(-0.478085 0 0)
(-0.472409 0 0)
(-0.466717 0 0)
(-0.461009 0 0)
(-0.455285 0 0)
(-0.449546 0 0)
(-0.443791 0 0)
(-0.438021 0 0)
(-0.432237 0 0)
(-0.426438 0 0)
(-0.420624 0 0)
(-0.414796 0 0)
(-0.408955 0 0)
(-0.403099 0 0)
(-0.39723 0 0)
(-0.391348 0 0)
(-0.385453 0 0)
(-0.379545 0 0)
(-0.373624 0 0)
(-0.367691 0 0)
(-0.361745 0 0)
(-0.355788 0 0)
(-0.349818 0 0)
(-0.343837 0 0)
(-0.337845 0 0)
(-0.331842 0 0)
(-0.325827 0 0)
(-0.319802 0 0)
(-0.313767 0 0)
(-0.307721 0 0)
(-0.301665 0 0)
(-0.295599 0 0)
(-0.289523 0 0)
(-0.283438 0 0)
(-0.277344 0 0)
(-0.271241 0 0)
(-0.265128 0 0)
(-0.259008 0 0)
(-0.252878 0 0)
(-0.246741 0 0)
(-0.240595 0 0)
(-0.234442 0 0)
(-0.228281 0 0)
(-0.222113 0 0)
(-0.215937 0 0)
(-0.209755 0 0)
(-0.203566 0 0)
(-0.19737 0 0)
(-0.191168 0 0)
(-0.184959 0 0)
(-0.178745 0 0)
(-0.172525 0 0)
(-0.166299 0 0)
(-0.160068 0 0)
(-0.153832 0 0)
(-0.147591 0 0)
(-0.141346 0 0)
(-0.135095 0 0)
(-0.128841 0 0)
(-0.122582 0 0)
(-0.116319 0 0)
(-0.110053 0 0)
(-0.103783 0 0)
(-0.0975096 0 0)
(-0.0912333 0 0)
(-0.084954 0 0)
(-0.078672 0 0)
(-0.0723875 0 0)
(-0.0661007 0 0)
(-0.0598117 0 0)
(-0.0535209 0 0)
(-0.0472283 0 0)
(-0.0409343 0 0)
(-0.0346389 0 0)
(-0.0283424 0 0)
(-0.022045 0 0)
(-0.015747 0 0)
(-0.00944838 0 0)
(-0.00314949 0 0)
)
;

boundaryField
{
    left
    {
        type            fixedValue;
        value           uniform (0 0 0);
    }
    right
    {
        type            fixedValue;
        value           uniform (0 0 0);
    }
    frontBackUpDown
    {
        type            empty;
    }
}


// ************************************************************************* //
