/*--------------------------------*- C++ -*----------------------------------*\
| =========                 |                                                 |
| \\      /  F ield         | OpenFOAM: The Open Source CFD Toolbox           |
|  \\    /   O peration     | Version:  2412                                  |
|   \\  /    A nd           | Website:  www.openfoam.com                      |
|    \\/     M anipulation  |                                                 |
\*---------------------------------------------------------------------------*/
FoamFile
{
    version     2.0;
    format      ascii;
    arch        "LSB;label=32;scalar=64";
    class       volScalarField;
    location    "2.25";
    object      p;
}
// * * * * * * * * * * * * * * * * * * * * * * * * * * * * * * * * * * * * * //

dimensions      [0 2 -2 0 0 0 0];

internalField   nonuniform List<scalar> 
2200
(
0.739272
0.73667
0.741114
0.741616
0.751129
0.775265
0.822914
0.894114
0.991286
1.10343
1.1374
1.07244
1.00312
0.950128
0.911744
0.89341
0.886544
0.885072
0.88101
0.883678
0.741329
0.736761
0.738322
0.751756
0.776307
0.813738
0.875893
0.960452
1.06914
1.17146
1.19853
1.14426
1.06552
0.999024
0.948375
0.917105
0.895856
0.884272
0.883299
0.887825
0.792174
0.781563
0.777759
0.793591
0.827243
0.887123
0.971019
1.08381
1.21469
1.32284
1.34779
1.2823
1.18545
1.09417
1.02263
0.969297
0.939324
0.925703
0.93018
0.940979
0.913196
0.90024
0.882878
0.874611
0.900099
0.962081
1.07153
1.23279
1.39287
1.53762
1.56439
1.46598
1.33969
1.19923
1.10175
1.04713
1.02586
1.03598
1.05419
1.06728
1.09859
1.07832
1.04252
0.990879
0.984374
1.03464
1.14618
1.34449
1.58166
1.77983
1.80944
1.6611
1.46153
1.2849
1.18564
1.14266
1.15217
1.20528
1.24171
1.26218
1.42485
1.39427
1.33406
1.24842
1.20333
1.20212
1.2552
1.42629
1.70946
1.98901
2.02286
1.80254
1.55803
1.41148
1.37156
1.37825
1.42594
1.51326
1.57415
1.60494
1.99691
1.96257
1.8865
1.77257
1.68942
1.66895
1.67259
1.73542
1.90732
2.19128
2.23094
2.01761
1.88524
1.84595
1.85589
1.88479
1.97144
2.08685
2.16309
2.19735
2.80756
2.7725
2.68372
2.54313
2.40719
2.36502
2.40809
2.46107
2.51907
2.67495
2.71867
2.64164
2.63314
2.60784
2.57753
2.62816
2.76853
2.91031
2.99937
3.03447
3.77769
3.7428
3.64878
3.48609
3.29581
3.16834
3.2327
3.40984
3.60831
3.7562
3.80719
3.74828
3.61015
3.46418
3.42108
3.55628
3.74926
3.91281
4.00709
4.04212
4.83506
4.80229
4.71164
4.54536
4.32826
4.1296
4.11374
4.30391
4.72459
5.03624
5.09562
4.88664
4.54004
4.39134
4.42978
4.63689
4.85658
5.02294
5.11319
5.14583
5.89362
5.86596
5.78825
5.6371
5.42346
5.19233
5.05222
5.12785
5.44752
5.79127
5.86327
5.64497
5.41316
5.39067
5.54919
5.7893
6.00489
6.15532
6.23242
6.2596
6.83848
6.81747
6.75779
6.63517
6.45006
6.23314
6.03187
5.98289
6.06203
6.25638
6.35296
6.31059
6.33532
6.44708
6.6669
6.88936
7.07504
7.19714
7.2567
7.27764
7.58628
7.57105
7.52862
7.43896
7.29678
7.11696
6.9418
6.88801
6.90232
7.01146
7.12979
7.20677
7.31693
7.43354
7.63623
7.82767
7.9724
8.06374
8.10687
8.12266
8.10585
8.09611
8.0693
8.01065
7.91898
7.78445
7.69599
7.67826
7.7471
7.87217
8.00975
8.1183
8.19127
8.27959
8.4124
8.56713
8.66953
8.73406
8.76466
8.777
8.40572
8.39916
8.38446
8.35209
8.30801
8.25133
8.17587
8.13825
8.27021
8.42395
8.59783
8.73343
8.76975
8.90923
9.0407
9.12298
9.18243
9.22347
9.24443
9.25434
8.49285
8.48835
8.48224
8.46436
8.44117
8.4149
8.37594
8.38793
8.51663
8.68087
8.90284
9.08563
9.17742
9.30091
9.40735
9.4735
9.52057
9.55114
9.56674
9.57669
8.42506
8.42076
8.41864
8.41435
8.40992
8.41162
8.42212
8.4756
8.62191
8.82101
9.08947
9.31412
9.45598
9.5769
9.66428
9.72156
9.76037
9.7849
9.79714
9.80735
8.23275
8.23266
8.23995
8.24952
8.26414
8.29444
8.34686
8.44164
8.63179
8.89527
9.21239
9.48817
9.66581
9.7923
9.87766
9.93526
9.97268
9.99648
10.0088
10.0187
7.9506
7.95202
7.96133
7.98032
8.01516
8.07166
8.16514
8.30789
8.55507
8.89818
9.27304
9.63699
9.84613
9.99243
10.0908
10.1558
10.1976
10.2227
10.236
10.2422
7.55133
7.55843
7.57913
7.61395
7.66609
7.75065
7.89189
8.09986
8.41435
8.85307
9.33321
9.74167
10.0173
10.2009
10.3229
10.4016
10.453
10.4894
10.504
10.5057
7.03791
7.04657
7.07207
7.11935
7.20254
7.33375
7.53434
7.83498
8.23458
8.78079
9.37874
9.86951
10.2092
10.44
10.595
10.6972
10.7607
10.7965
10.8168
10.8295
6.35838
6.37498
6.4169
6.49196
6.61564
6.80396
7.08907
7.50275
8.03903
8.71799
9.4435
10.0359
10.452
10.7406
10.9366
11.0636
11.1464
11.1985
11.2336
11.2485
5.46226
5.48921
5.5565
5.6753
5.86235
6.15139
6.55875
7.10365
7.81078
8.66931
9.53398
10.2431
10.7475
11.1041
11.3532
11.5242
11.6353
11.7072
11.7502
11.7658
4.26512
4.31866
4.43088
4.62009
4.92437
5.36098
5.93789
6.67157
7.56496
8.61417
9.65148
10.4931
11.0977
11.5337
11.8438
12.0624
12.214
12.3108
12.3665
12.389
2.63413
2.73638
2.94208
3.295
3.79254
4.43928
5.24272
6.20781
7.32592
8.58675
9.80989
10.7914
11.5019
12.0222
12.4036
12.6815
12.8802
13.0211
13.1093
13.1439
0.473735
0.616306
1.03044
1.67517
2.47061
3.41107
4.49739
5.72703
7.09808
8.59007
10.0045
11.1301
11.9534
12.5656
13.0256
13.3777
13.6471
13.8427
13.9681
14.0081
-2.67645
-2.06693
-1.09926
-0.0443
1.08795
2.3468
3.73415
5.24687
6.89384
8.6384
10.2709
11.5702
12.5377
13.2776
13.8514
14.3026
14.6709
14.9873
15.2349
15.3272
-6.35476
-4.76455
-3.17873
-1.74957
-0.274676
1.30952
2.99477
4.79807
6.72354
8.72634
10.5964
12.0908
13.2183
14.0983
14.8071
15.3857
15.8554
16.25
16.6197
16.869
-8.8326
-6.95712
-5.15383
-3.42378
-1.59849
0.310384
2.30076
4.39066
6.5705
8.81163
10.8963
12.5622
13.826
14.8133
15.6048
16.2571
16.7896
17.2035
17.5547
17.7982
-10.7213
-8.64671
-6.87633
-4.91403
-2.81486
-0.61759
1.65764
4.00348
6.41422
8.87892
11.1566
12.966
14.3317
15.3865
16.2103
16.8659
17.4052
17.8264
18.1465
18.3609
-12.0659
-9.99751
-8.28033
-6.17809
-3.86971
-1.43308
1.07605
3.63824
6.25753
8.92288
11.3608
13.2743
14.6971
15.7797
16.6095
17.2506
17.7676
18.1988
18.5197
18.7389
-13.0862
-10.926
-9.35356
-7.14599
-4.70308
-2.1179
0.557726
3.29758
6.09666
8.92711
11.4895
13.4777
14.9351
16.0327
16.874
17.5208
18.0256
18.4647
18.7792
19.0118
-13.9363
-11.7091
-10.1422
-7.78236
-5.28502
-2.65541
0.110681
2.98108
5.92289
8.8853
11.5548
13.6146
15.1122
16.2324
17.0926
17.7556
18.2593
18.6919
19.0105
19.2169
-14.5721
-12.4115
-10.7385
-8.20835
-5.70969
-3.07696
-0.262507
2.69589
5.74608
8.81897
11.593
13.7307
15.2763
16.4226
17.2967
17.9723
18.4798
18.9043
19.2269
19.4281
-15.1199
-12.9139
-11.1515
-8.54013
-6.08156
-3.43334
-0.574042
2.45236
5.58612
8.75155
11.6246
13.8405
15.4374
16.6144
17.5054
18.1883
18.6941
19.1091
19.4251
19.6421
-15.6279
-13.381
-11.5315
-8.87971
-6.43728
-3.75841
-0.844053
2.24682
5.44397
8.68378
11.6461
13.9368
15.5841
16.7887
17.6882
18.3787
18.8947
19.3179
19.6311
19.8492
-16.0382
-13.8515
-11.9898
-9.29474
-6.82263
-4.07928
-1.09693
2.0563
5.30137
8.60377
11.6446
14.0059
15.7072
16.9528
17.8856
18.5963
19.1148
19.5284
19.8372
20.057
-16.5333
-14.3094
-12.4255
-9.75485
-7.23778
-4.41123
-1.35297
1.85597
5.14087
8.50067
11.6108
14.0443
15.8109
17.1068
18.0634
18.7873
19.3256
19.7575
20.0666
20.2768
-16.9629
-14.7707
-12.8848
-10.1934
-7.64604
-4.74297
-1.61549
1.63566
4.95693
8.3724
11.546
14.0528
15.8878
17.2435
18.2549
19.0193
19.571
19.9995
20.3108
20.5289
-17.416
-15.2041
-13.2806
-10.5758
-8.01077
-5.04911
-1.87536
1.40092
4.75729
8.22608
11.4537
14.0272
15.9376
17.3709
18.44
19.2495
19.841
20.2874
20.6016
20.8029
-17.7969
-15.5965
-13.6462
-10.9207
-8.32236
-5.3227
-2.1263
1.16379
4.55453
8.06751
11.3355
13.969
15.9556
17.466
18.612
19.4779
20.1052
20.5799
20.9106
21.1232
-18.1143
-15.9276
-13.964
-11.2138
-8.59296
-5.57162
-2.36686
0.933748
4.35503
7.89787
11.1947
13.8766
15.9317
17.5217
18.7549
19.7091
20.4113
20.9374
21.2783
21.4742
-18.4443
-16.2057
-14.2116
-11.4613
-8.83727
-5.80258
-2.59741
0.713618
4.15822
7.7181
11.0342
13.75
15.8653
17.5393
18.8609
19.912
20.7129
21.314
21.6978
21.9055
-18.741
-16.5347
-14.4921
-11.7223
-9.072
-6.02187
-2.81824
0.502407
3.96236
7.53074
10.858
13.5971
15.7568
17.5003
18.9167
20.0712
20.9873
21.7197
22.1682
22.3881
-19.0118
-16.8296
-14.7763
-11.987
-9.30324
-6.23706
-3.03092
0.297998
3.76754
7.33911
10.6685
13.4164
15.6013
17.3998
18.903
20.1664
21.2199
22.0942
22.6803
22.9658
-19.2491
-16.9876
-14.9406
-12.1905
-9.53153
-6.4509
-3.23679
0.099356
3.57534
7.14578
10.4676
13.2127
15.4124
17.2488
18.8132
20.1669
21.3456
22.4019
23.1974
23.5382
-19.4934
-17.2187
-15.1678
-12.4079
-9.75629
-6.65643
-3.43758
-0.0961875
3.38308
6.94739
10.2521
12.9803
15.1765
17.027
18.6312
20.0484
21.3164
22.5168
23.5989
24.0375
-19.8043
-17.6344
-15.5828
-12.7269
-9.97956
-6.85442
-3.63769
-0.295285
3.18209
6.73369
10.0112
12.7016
14.8709
16.7143
18.3283
19.7595
21.0511
22.2104
23.011
23.2975
-20.0908
-17.9014
-15.7944
-12.9411
-10.1886
-7.05043
-3.83564
-0.496706
2.97346
6.50668
9.7468
12.3821
14.5029
16.3013
17.8731
19.2486
20.4327
21.4039
21.9476
22.1948
-20.1843
-17.8419
-15.7104
-12.968
-10.3795
-7.24005
-4.03453
-0.70232
2.75585
6.26498
9.46001
12.0249
14.061
15.772
17.2517
18.5176
19.5344
20.2675
20.6166
20.8735
-20.324
-18.0165
-15.9593
-13.177
-10.5726
-7.42223
-4.23783
-0.914045
2.52802
6.00721
9.15346
11.6332
13.553
15.1343
16.4586
17.56
18.4292
19.0313
19.2984
19.6398
-20.6565
-18.5614
-16.5487
-13.5966
-10.7917
-7.62648
-4.45001
-1.13705
2.28616
5.73152
8.82575
11.2107
12.9889
14.3983
15.53
16.4522
17.2003
17.691
17.8635
18.2544
-20.9327
-18.7712
-16.6729
-13.7476
-11.0202
-7.8517
-4.67231
-1.37236
2.03026
5.43975
8.47665
10.7625
12.3823
13.5897
14.5259
15.2414
15.7706
16.1134
16.3145
16.718
-21.0033
-18.6565
-16.5454
-13.7446
-11.2232
-8.05547
-4.89803
-1.61095
1.76909
5.14015
8.11333
10.2944
11.7547
12.7521
13.4742
13.9837
14.2464
14.2766
14.2284
14.5303
-21.1663
-18.9248
-16.91
-14.0486
-11.4324
-8.2515
-5.11956
-1.84498
1.51187
4.83999
7.74485
9.81728
11.1303
11.9236
12.4084
12.6799
12.6376
12.0158
11.0587
11.2287
-21.5013
-19.3546
-17.2967
-14.3729
-11.6616
-8.46666
-5.33302
-2.07197
1.26352
4.54457
7.37802
9.3439
10.5257
11.1223
11.3346
11.3166
10.9759
9.69464
7.3621
5.15481
-21.6956
-19.461
-17.314
-14.4391
-11.8536
-8.66001
-5.53521
-2.28762
1.02845
4.26238
7.02256
8.89288
9.95974
10.388
10.3204
9.91741
9.23688
7.91595
3.69273
-7.65494
-21.8016
-19.5557
-17.4414
-14.5756
-12.0242
-8.82296
-5.72777
-2.49092
0.807065
3.99257
6.67685
8.4608
9.42219
9.70411
9.41392
8.69582
7.76992
6.86607
6.03004
1.55112
-22.0384
-19.847
-17.7419
-14.847
-12.2278
-8.99903
-5.92383
-2.69406
0.587918
3.72234
6.33284
8.03662
8.9108
9.10258
8.7362
8.02105
7.27023
7.05186
7.89373
6.77182
-22.2855
-20.0758
-17.9271
-15.0331
-12.4379
-9.18269
-6.13149
-2.90198
0.363852
3.45089
5.99422
7.63773
8.47215
8.666
8.40093
7.88815
7.34909
7.12014
7.58301
6.95662
-22.4595
-20.2241
-18.0743
-15.1891
-12.6394
-9.35603
-6.35231
-3.11235
0.131127
3.17937
5.67421
7.29594
8.14498
8.45155
8.37484
8.08853
7.65269
7.14178
7.06624
6.98041
-22.6493
-20.4211
-18.2816
-15.3997
-12.8514
-9.53185
-6.5882
-3.32015
-0.108833
2.91396
5.39732
7.03767
7.95866
8.41954
8.53957
8.47299
8.18745
7.58206
7.42861
7.54359
-22.8448
-20.6249
-18.481
-15.5946
-13.0629
-9.71098
-6.83252
-3.5152
-0.349307
2.66829
5.18098
6.87198
7.9165
8.52919
8.82473
9.00977
9.13719
8.79995
8.77238
8.88109
-23.0058
-20.7889
-18.6449
-15.7595
-13.2466
-9.88179
-7.06584
-3.69108
-0.576947
2.45681
5.02627
6.80236
7.99149
8.79608
9.27543
9.734
10.172
10.3731
10.5258
10.6632
-23.134
-20.9307
-18.7842
-15.9155
-13.3799
-10.0507
-7.26458
-3.84601
-0.773107
2.2873
4.9199
6.82001
8.14569
9.15976
9.91078
10.5376
11.1496
11.6387
11.9909
12.1671
-23.2247
-21.0405
-18.8674
-16.0554
-13.4581
-10.2118
-7.39797
-3.98652
-0.934952
2.16026
4.85478
6.89081
8.35668
9.53413
10.4607
11.1907
11.8486
12.3855
12.7952
12.9927
-23.241
-21.0914
-18.8877
-16.151
-13.4811
-10.3421
-7.46366
-4.11842
-1.06472
2.07635
4.83184
6.96203
8.53075
9.77015
10.7653
11.5604
12.2431
12.7649
13.1692
13.401
-23.1737
-21.052
-18.8331
-16.1533
-13.4588
-10.4127
-7.48808
-4.22761
-1.15754
2.01647
4.81627
6.99223
8.61476
9.88738
10.9209
11.7441
12.4543
12.982
13.394
13.6576
-22.9745
-20.9017
-18.6889
-16.0641
-13.3778
-10.4124
-7.46896
-4.28945
-1.21734
1.94872
4.76416
6.97567
8.64445
9.95801
11.0193
11.8443
12.562
13.1025
13.5211
13.8041
-22.6332
-20.6116
-18.4244
-15.8648
-13.2041
-10.3124
-7.39087
-4.29917
-1.26081
1.86682
4.67483
6.9139
8.61626
9.95099
11.0163
11.8332
12.5371
13.0833
13.4943
13.797
-22.081
-20.1489
-18.0072
-15.5166
-12.9044
-10.1041
-7.25791
-4.26273
-1.28824
1.77991
4.55757
6.78861
8.48242
9.80529
10.8663
11.676
12.3612
12.9155
13.3164
13.6394
-21.2703
-19.4562
-17.383
-14.992
-12.4713
-9.79345
-7.05789
-4.16956
-1.28921
1.68171
4.3925
6.57421
8.23037
9.52257
10.5784
11.3881
12.0481
12.6093
13.0056
13.3389
-20.149
-18.488
-16.5183
-14.2575
-11.8673
-9.342
-6.75488
-4.01187
-1.27465
1.55234
4.15459
6.25518
7.86043
9.10994
10.1422
10.9528
11.5975
12.1548
12.5625
12.9024
-18.6323
-17.15
-15.332
-13.2538
-11.0502
-8.72923
-6.33752
-3.79496
-1.2509
1.39367
3.84729
5.83232
7.36028
8.55056
9.53403
10.3289
10.9604
11.5056
11.9235
12.2673
-16.6322
-15.3756
-13.7729
-11.945
-9.99612
-7.9378
-5.79585
-3.51412
-1.20509
1.21543
3.47302
5.29832
6.70485
7.80339
8.70302
9.44654
10.0478
10.5675
10.9918
11.3402
-14.0763
-13.1309
-11.839
-10.3247
-8.70427
-6.96855
-5.12977
-3.15916
-1.12779
1.0216
3.03555
4.65782
5.8972
6.8602
7.63438
8.27365
8.7877
9.22227
9.59058
9.90267
-10.8885
-10.3144
-9.46523
-8.41362
-7.19352
-5.83806
-4.36321
-2.74117
-1.00667
0.862382
2.63147
4.05842
5.13578
5.95758
6.59607
7.10347
7.4939
7.79418
8.03127
8.23225
-7.63439
-7.36773
-7.05026
-6.36764
-5.54215
-4.60627
-3.53292
-2.25634
-0.820877
0.760823
2.28371
3.52276
4.45189
5.1464
5.66237
6.05931
6.34479
6.54403
6.64697
6.74113
-5.0426
-4.91861
-4.92826
-4.40918
-4.01123
-3.45319
-2.70512
-1.71927
-0.585497
0.68896
1.94969
2.98382
3.74994
4.31039
4.70339
4.98319
5.16299
5.28234
5.30014
5.3408
-3.26956
-3.15763
-3.17752
-2.77382
-2.76246
-2.41604
-1.89417
-1.17897
-0.337712
0.655968
1.67421
2.51343
3.12546
3.56212
3.85149
4.03575
4.13407
4.21341
4.22129
4.24431
-2.06903
-2.01347
-1.99226
-1.69769
-1.82207
-1.50384
-1.14838
-0.682296
-0.0917844
0.672162
1.47979
2.14544
2.62223
2.9525
3.16507
3.29559
3.36052
3.4426
3.45251
3.49211
-1.26166
-1.2604
-1.28001
-1.07637
-1.20159
-0.815114
-0.599598
-0.299289
0.127259
0.712462
1.33859
1.85693
2.22604
2.48072
2.65194
2.76791
2.82469
2.91248
2.91662
2.9373
-0.763189
-0.778482
-0.819077
-0.700677
-0.808066
-0.404733
-0.314939
-0.0778514
0.27737
0.736223
1.22153
1.62874
1.92417
2.13395
2.28345
2.39401
2.43373
2.50952
2.50832
2.51806
-0.423645
-0.438419
-0.476215
-0.397073
-0.50732
-0.16571
-0.196702
0.0443003
0.355974
0.728452
1.11971
1.45161
1.69655
1.87208
1.99589
2.0897
2.10708
2.16115
2.16244
2.16666
-0.151855
-0.163254
-0.188091
-0.12762
-0.212462
0.0273996
-0.0786165
0.157805
0.404948
0.704053
1.02712
1.30144
1.50184
1.64102
1.73293
1.80366
1.80897
1.84729
1.8496
1.85172
0.0636377
0.0530792
0.0393926
0.0856113
0.0264355
0.196742
0.0810837
0.283737
0.455395
0.681933
0.940233
1.15955
1.31649
1.42192
1.48773
1.54118
1.54479
1.57439
1.57721
1.57841
0.20527
0.193765
0.184929
0.21752
0.178393
0.308971
0.215711
0.382663
0.497121
0.664253
0.861939
1.03055
1.15074
1.23166
1.2817
1.32425
1.32894
1.35252
1.35486
1.35538
0.28374
0.272512
0.266322
0.288625
0.260655
0.361148
0.291248
0.430169
0.513217
0.642095
0.793442
0.922865
1.01606
1.08016
1.11992
1.15338
1.1581
1.17581
1.17715
1.17709
0.326448
0.317407
0.313689
0.329438
0.309113
0.382943
0.331444
0.441444
0.506416
0.610761
0.730195
0.831958
0.90545
0.956333
0.987508
1.01248
1.01709
1.02903
1.02986
1.02957
0.350495
0.344252
0.342314
0.353555
0.340823
0.393466
0.359087
0.438091
0.488931
0.572987
0.668226
0.749112
0.80703
0.846775
0.870808
0.889043
0.893512
0.901672
0.902361
0.902127
0.361349
0.357498
0.356855
0.365128
0.35571
0.39308
0.374697
0.428163
0.467587
0.533266
0.607988
0.671529
0.716696
0.747513
0.76618
0.779726
0.783971
0.789716
0.790336
0.790231
0.358082
0.355762
0.355622
0.361383
0.354709
0.381197
0.374749
0.410455
0.441485
0.492137
0.550039
0.599457
0.634565
0.658537
0.673221
0.683456
0.687264
0.691232
0.691733
0.691714
0.343753
0.342344
0.342274
0.345821
0.342335
0.361136
0.361222
0.385588
0.410296
0.449514
0.494444
0.532829
0.560086
0.578704
0.590207
0.597931
0.601131
0.603627
0.603991
0.604014
0.322322
0.321484
0.321513
0.323785
0.322466
0.334465
0.337847
0.355005
0.374701
0.405124
0.440057
0.469891
0.491077
0.505496
0.514442
0.520246
0.522836
0.52456
0.524809
0.524835
0.295161
0.294703
0.294804
0.296398
0.296401
0.30357
0.30796
0.320354
0.335847
0.35931
0.386446
0.409616
0.425985
0.437049
0.443936
0.448301
0.450354
0.451533
0.451687
0.451715
0.263974
0.263685
0.263766
0.264855
0.265325
0.269855
0.274023
0.28311
0.29518
0.313133
0.333933
0.351633
0.364128
0.372569
0.377859
0.381152
0.382737
0.383588
0.383669
0.383682
0.228818
0.228642
0.228727
0.229484
0.23
0.232998
0.236496
0.243172
0.252393
0.265939
0.281705
0.295132
0.304612
0.310998
0.315014
0.31747
0.318666
0.319277
0.319308
0.319308
0.190871
0.190749
0.190803
0.191332
0.192003
0.194028
0.196732
0.201579
0.208478
0.218543
0.23026
0.240212
0.24721
0.251879
0.254791
0.256523
0.25734
0.257779
0.257732
0.257718
0.151067
0.150969
0.150988
0.151274
0.151828
0.153172
0.155158
0.158596
0.163592
0.170806
0.179203
0.18624
0.19117
0.19446
0.196486
0.197665
0.198209
0.198629
0.198592
0.198567
0.1093
0.109272
0.109311
0.109519
0.109888
0.110724
0.112055
0.114295
0.117567
0.12235
0.127879
0.132592
0.135828
0.137962
0.139262
0.14001
0.140362
0.140576
0.140521
0.140499
0.0661681
0.0661353
0.066192
0.0662932
0.0664913
0.0669598
0.0677051
0.0689546
0.0707575
0.0734878
0.0767793
0.0794633
0.0812599
0.0823958
0.0830702
0.0834414
0.0835791
0.0836547
0.0835699
0.0835571
0.0222853
0.0221316
0.0219565
0.0219349
0.0219755
0.0221361
0.0223772
0.0228061
0.0234161
0.0242915
0.0256521
0.026583
0.0271907
0.0275619
0.0277789
0.0278972
0.0279017
0.0279059
0.0277621
0.0277046
11.2636
15.9762
17.1461
18.6099
19.8094
20.9029
21.8994
22.8775
23.6721
24.1402
16.4022
18.7101
19.4428
20.3844
21.2409
22.0098
22.6774
23.2444
23.626
23.7315
19.2262
20.3859
20.9479
21.5471
22.1032
22.6028
23.0195
23.3407
23.5215
23.5567
20.8263
21.5174
21.8911
22.2855
22.6323
22.9267
23.1597
23.334
23.4362
23.4487
21.8515
22.2233
22.4574
22.6934
22.901
23.0807
23.2235
23.3253
23.3697
23.3771
22.4333
22.6705
22.8095
22.957
23.0774
23.18
23.2555
23.3105
23.336
23.3511
22.8175
22.9481
23.0217
23.114
23.1821
23.2511
23.2921
23.3295
23.3423
23.3615
23.0478
23.1414
23.1711
23.2435
23.2673
23.3281
23.3425
23.3711
23.3793
23.3991
23.208
23.2752
23.279
23.3352
23.3459
23.384
23.3921
23.4154
23.4209
23.439
23.3158
23.3543
23.3673
23.3955
23.407
23.4252
23.4312
23.4504
23.4545
23.4692
23.3924
23.4119
23.4232
23.4354
23.4497
23.4621
23.4746
23.4919
23.4981
23.5134
23.461
23.4777
23.4924
23.5067
23.5244
23.5382
23.5529
23.5647
23.5711
23.5867
23.5719
23.588
23.6068
23.6195
23.6319
23.6426
23.6511
23.659
23.6614
23.6718
23.7032
23.7056
23.7169
23.722
23.7231
23.7264
23.731
23.7379
23.7419
23.7537
23.811
23.7968
23.7897
23.7837
23.7798
23.7802
23.7863
23.7986
23.8132
23.8411
23.9234
23.8699
23.8388
23.8203
23.8132
23.8139
23.823
23.8427
23.8737
23.9412
)
;

boundaryField
{
    wall-4
    {
        type            zeroGradient;
    }
    pressure-outlet-7
    {
        type            fixedValue;
        value           uniform 0;
    }
    velocity-inlet-6
    {
        type            zeroGradient;
    }
    velocity-inlet-5
    {
        type            zeroGradient;
    }
    frontAndBackPlanes
    {
        type            empty;
    }
}


// ************************************************************************* //
