/*--------------------------------*- C++ -*----------------------------------*\
| =========                 |                                                 |
| \\      /  F ield         | OpenFOAM: The Open Source CFD Toolbox           |
|  \\    /   O peration     | Version:  2412                                  |
|   \\  /    A nd           | Website:  www.openfoam.com                      |
|    \\/     M anipulation  |                                                 |
\*---------------------------------------------------------------------------*/
FoamFile
{
    version     2.0;
    format      ascii;
    arch        "LSB;label=32;scalar=64";
    class       surfaceScalarField;
    location    "2.25";
    object      phi;
}
// * * * * * * * * * * * * * * * * * * * * * * * * * * * * * * * * * * * * * //

dimensions      [0 3 -1 0 0 0 0];

oriented        oriented;

internalField   nonuniform List<scalar> 
4262
(
-0.000832085
0.221345
0.00545952
0.822362
0.000342852
1.77226
-0.0043921
3.1699
-0.00912516
5.18934
-0.0133841
8.01862
-0.0124365
11.8462
-0.0120067
16.8193
-0.0119166
22.8817
-0.00306947
29.5195
0.0073112
29.518
0.00889275
22.8802
0.00911505
16.8195
0.0102027
11.8461
0.00668594
8.01788
0.00284535
5.18844
-0.00158084
3.16959
-0.00679246
1.77235
0.000192528
0.821668
0.220705
-0.0323444
0.253689
-0.0303243
0.820342
-0.0306849
1.77262
-0.0346735
3.17389
-0.0374736
5.19214
-0.0467549
8.02791
-0.0541915
11.8536
-0.0555722
16.8207
-0.0433919
22.8696
-0.00860404
29.4847
0.0273817
29.482
0.0429917
22.8646
0.0436664
16.8188
0.0386365
11.8511
0.0313712
8.02515
0.0299869
5.18983
0.0276635
3.17192
0.0288478
1.77117
0.0317089
0.818807
0.252414
-0.0721108
0.3258
-0.0963565
0.844587
-0.0881884
1.76445
-0.0986174
3.18432
-0.105582
5.1991
-0.0972234
8.01955
-0.0934659
11.8499
-0.0826857
16.8099
-0.0573099
22.8442
-0.0117217
29.4391
0.0329876
29.4373
0.0615379
22.8361
0.077281
16.8031
0.0843909
11.844
0.0947864
8.01475
0.0904442
5.19417
0.0825914
3.17977
0.0938191
1.75994
0.0714135
0.841213
0.323828
-0.0926623
0.418462
-0.159763
0.911688
-0.149578
1.75427
-0.155792
3.19053
-0.192007
5.23532
-0.201114
8.02865
-0.184543
11.8333
-0.143251
16.7686
-0.0932378
22.7942
-0.0143928
29.3603
0.063957
29.3589
0.115798
22.7842
0.160641
16.7583
0.182052
11.8226
0.177442
8.01936
0.145103
5.22651
0.143029
3.18184
0.155834
1.74714
0.0904067
0.90664
0.414234
-0.100119
0.518581
-0.217087
1.02866
-0.219133
1.75631
-0.213917
3.18532
-0.259599
5.281
-0.295437
8.06449
-0.289968
11.8278
-0.234179
16.7128
-0.152023
22.712
-0.0198788
29.2281
0.111883
29.2272
0.199613
22.6965
0.261945
16.6959
0.271921
11.8126
0.241796
8.04949
0.202394
5.26591
0.212193
3.17204
0.213397
1.74593
0.099029
1.02101
0.513263
-0.126085
0.644666
-0.292731
1.1953
-0.362543
1.82613
-0.371399
3.19417
-0.384297
5.2939
-0.423589
8.10378
-0.428141
11.8324
-0.350261
16.6349
-0.225332
22.5871
-0.0236734
29.0265
0.17693
29.0266
0.306299
22.5671
0.392099
16.6101
0.39751
11.8072
0.36668
8.08032
0.361115
5.27148
0.357372
3.17579
0.2911
1.81221
0.125878
1.18623
0.639141
-0.173324
0.81799
-0.391061
1.41304
-0.563661
1.99873
-0.617037
3.24755
-0.580956
5.25782
-0.574001
8.09683
-0.56506
11.8234
-0.499997
16.5699
-0.34165
22.4287
-0.0300152
28.7148
0.284426
28.7121
0.452823
22.3987
0.52581
16.5371
0.54395
11.789
0.561329
8.06294
0.60348
5.22933
0.554439
3.22483
0.384229
1.98242
0.169234
1.40123
0.808375
-0.213811
1.0318
-0.480788
1.68002
-0.735141
2.25308
-0.861228
3.37364
-0.837576
5.23416
-0.768126
8.02738
-0.672643
11.728
-0.592258
16.4895
-0.39989
22.2364
-0.0367472
28.3517
0.330314
28.3451
0.533072
22.196
0.627331
16.4429
0.734121
11.6822
0.815877
7.98118
0.848888
5.19631
0.728338
3.34538
0.476052
2.2347
0.211579
1.6657
1.01995
-0.238513
1.27031
-0.547808
1.98931
-0.863822
2.56909
-1.08091
3.59072
-1.13632
5.28957
-1.05479
7.94586
-0.864079
11.5372
-0.688678
16.3141
-0.429758
21.9774
-0.0433477
27.9653
0.346598
27.9551
0.61308
21.9295
0.808691
16.2473
1.01782
11.4731
1.11218
7.88682
1.06532
5.24317
0.853283
3.55741
0.541717
2.54627
0.236175
1.97124
1.25613
-0.252042
1.52236
-0.596322
2.33359
-0.968438
2.94121
-1.27822
3.90051
-1.44322
5.45457
-1.42223
7.92487
-1.23931
11.3543
-0.949286
16.0241
-0.573664
21.6018
-0.0516386
27.4433
0.477461
27.426
0.866569
21.5404
1.17663
15.9372
1.38289
11.2669
1.41382
7.85589
1.25675
5.40024
0.952975
3.86119
0.586417
2.91283
0.246544
2.31111
1.50267
-0.251018
1.77337
-0.616091
2.69867
-1.02718
3.3523
-1.41009
4.28341
-1.67556
5.72004
-1.72751
7.97683
-1.60298
11.2298
-1.24593
15.667
-0.756291
21.1122
-0.061646
26.7486
0.638661
26.7257
1.15269
21.0264
1.52945
15.5605
1.67619
11.1201
1.6357
7.89639
1.37998
5.65595
1.00553
4.23564
0.602141
3.31622
0.242893
2.67036
1.74557
-0.229482
2.00286
-0.591872
3.06106
-1.01164
3.77207
-1.43175
4.70352
-1.77127
6.05956
-1.90566
8.11122
-1.83146
11.1556
-1.45548
15.291
-0.856725
20.5134
-0.0776968
25.9696
0.711204
25.9368
1.3352
20.4024
1.73715
15.1585
1.8328
11.0245
1.72045
8.00873
1.39347
5.98294
0.983081
4.64602
0.571801
3.7275
0.218485
3.02368
1.96405
-0.194697
2.19755
-0.533819
3.40018
-0.936024
4.17427
-1.35895
5.12645
-1.73898
6.43958
-1.96052
8.33276
-1.93426
11.1293
-1.58417
14.9409
-0.918426
19.8477
-0.0929612
25.1441
0.747137
25.0967
1.43959
19.7099
1.81538
14.7827
1.86117
10.9787
1.66351
8.2064
1.30032
6.34613
0.893007
5.05334
0.504946
4.11556
0.180445
3.34818
2.1445
-0.154069
2.35162
-0.455374
3.70148
-0.819726
4.53862
-1.21686
5.52359
-1.60547
6.82819
-1.89136
8.61866
-1.92776
11.1657
-1.64154
14.6547
-0.987051
19.1932
-0.111477
24.2686
0.779778
24.2055
1.46693
19.0228
1.78328
14.4664
1.76709
10.9949
1.50174
8.47174
1.1372
6.71067
0.762344
5.42819
0.418471
4.45943
0.135734
3.63092
2.28023
-0.11812
2.46974
-0.373728
3.95709
-0.687583
4.85248
-1.03787
5.87388
-1.3955
7.18582
-1.69379
8.91695
-1.79569
11.2676
-1.59128
14.4503
-1.0159
18.6178
-0.142652
23.3953
0.753208
23.3096
1.36554
18.4104
1.60494
14.227
1.53185
11.068
1.26121
8.74238
0.93265
7.03923
0.611537
5.74931
0.324116
4.74685
0.0871257
3.86791
2.36736
-0.0830406
2.55278
-0.28981
4.16386
-0.544906
5.10758
-0.833719
6.16269
-1.1365
7.4886
-1.40278
9.18323
-1.54051
11.4054
-1.43482
14.3446
-0.972244
18.1552
-0.183859
22.6069
0.631983
22.4937
1.13149
17.9109
1.2857
14.0728
1.19446
11.1592
0.971007
8.96584
0.708143
7.3021
0.452778
6.00467
0.228047
4.97158
0.0477206
4.04823
2.41508
-0.0637656
2.61655
-0.227275
4.32737
-0.429459
5.30976
-0.661598
6.39483
-0.907682
7.73468
-1.13527
9.41082
-1.27657
11.5467
-1.23566
14.3037
-0.884472
17.804
-0.227892
21.9503
0.45021
21.8156
0.83663
17.5245
0.93766
13.9717
0.855802
11.2411
0.684988
9.13665
0.491833
7.49525
0.306535
6.18997
0.143973
5.13415
0.0209708
4.17124
2.43605
-0.0470934
2.66364
-0.173531
4.45381
-0.333838
5.47007
-0.519761
6.58075
-0.719488
7.93441
-0.912376
9.6037
-1.04722
11.6815
-1.04119
14.2977
-0.792241
17.5551
-0.286441
21.4445
0.239981
21.2892
0.535539
17.2289
0.610312
13.8969
0.556086
11.2953
0.443467
9.24927
0.314443
7.62428
0.190286
6.31413
0.0825409
5.24189
0.0053395
4.24844
2.44139
-0.0514824
2.71512
-0.156649
4.55897
-0.283024
5.59644
-0.42827
6.726
-0.587538
8.09368
-0.745056
9.76122
-0.867138
11.8036
-0.887527
14.3181
-0.731406
17.399
-0.364802
21.0779
0.0316476
20.8928
0.253942
17.0067
0.320696
13.8302
0.298
11.318
0.233357
9.31391
0.158599
7.69903
0.0875108
6.38522
0.0295414
5.29986
-0.00437571
4.28235
2.43701
-0.0445587
2.75968
-0.127984
4.6424
-0.238406
5.70686
-0.368798
6.85639
-0.50991
8.23479
-0.650928
9.90224
-0.772074
11.9247
-0.819048
14.365
-0.743032
17.323
-0.483113
20.818
-0.191767
20.6014
-0.00717834
16.8221
0.0678849
13.7551
0.0828432
11.303
0.0684054
9.32835
0.0417968
7.72564
0.0149668
6.41205
-0.0049021
5.31973
-0.0115564
4.28901
2.42545
-0.068414
2.8281
-0.156285
4.73027
-0.252589
5.80317
-0.362049
6.96585
-0.487766
8.36051
-0.623348
10.0378
-0.745186
12.0466
-0.81884
14.4387
-0.802581
17.3067
-0.620584
20.636
-0.39598
20.3768
-0.237074
16.6632
-0.147666
13.6657
-0.0986416
11.254
-0.0730563
9.30276
-0.0604246
7.71301
-0.054216
6.40584
-0.0456595
5.31117
-0.0319131
4.27526
2.39354
-0.0653711
2.89347
-0.148258
4.81316
-0.255661
5.91057
-0.383293
7.09348
-0.524552
8.50176
-0.664686
10.178
-0.791547
12.1734
-0.881216
14.5284
-0.908989
17.3345
-0.790019
20.5171
-0.606222
20.193
-0.457809
16.5147
-0.349277
13.5572
-0.266646
11.1714
-0.20074
9.23686
-0.143512
7.65578
-0.0965709
6.3589
-0.0663433
5.28095
-0.0415325
4.25045
2.35201
-0.113289
3.00676
-0.221631
4.9215
-0.334932
6.02387
-0.466098
7.22465
-0.616545
8.65221
-0.775555
10.337
-0.915994
12.3139
-1.02053
14.6329
-1.07376
17.3877
-0.986398
20.4297
-0.821896
20.0285
-0.671011
16.3639
-0.540447
13.4266
-0.428309
11.0592
-0.333194
9.14174
-0.256057
7.57865
-0.192265
6.2951
-0.137203
5.22588
-0.073916
4.18716
2.27809
-0.148891
3.15565
-0.275206
5.04781
-0.432032
6.1807
-0.62004
7.41266
-0.811232
8.8434
-0.986594
10.5123
-1.13672
12.464
-1.251
14.7472
-1.3038
17.4405
-1.22211
20.348
-1.06149
19.8679
-0.898995
16.2014
-0.74703
13.2747
-0.610578
10.9228
-0.485814
9.01698
-0.368899
7.46173
-0.263731
6.18994
-0.173196
5.13535
-0.091183
4.10515
2.18691
-0.256952
3.4126
-0.428327
5.21919
-0.655161
6.40753
-0.879209
7.6367
-1.0887
9.0529
-1.2839
10.7075
-1.44542
12.6255
-1.55771
14.8595
-1.58574
17.4685
-1.49572
20.258
-1.32611
19.6983
-1.14294
16.0182
-0.963369
13.0951
-0.79546
10.7549
-0.644463
8.86598
-0.511614
7.32888
-0.389327
6.06765
-0.271899
5.01792
-0.138258
3.97151
2.04865
-0.374985
3.78759
-0.742207
5.58641
-1.05401
6.71933
-1.28861
7.87131
-1.50881
9.27309
-1.70406
10.9028
-1.85417
12.7756
-1.94059
14.9459
-1.92533
17.4533
-1.81065
20.1433
-1.61824
19.5059
-1.40978
15.8097
-1.2074
12.8927
-1.01683
10.5643
-0.838172
8.68733
-0.674643
7.16535
-0.526765
5.91977
-0.372259
4.86341
-0.177749
3.777
1.8709
-0.255076
4.04266
-0.543231
5.87457
-0.789984
6.96608
-1.08397
8.1653
-1.37501
9.56413
-1.63577
11.1635
-1.85896
12.9988
-2.0307
15.1176
-2.11685
17.5394
-2.11628
20.1427
-1.99045
19.3801
-1.79132
15.6106
-1.55759
12.659
-1.3085
10.3152
-1.05297
8.4318
-0.797171
6.90955
-0.554745
5.67734
-0.340313
4.64898
-0.141599
3.57829
1.7293
-0.101216
4.14388
-0.201529
5.97488
-0.423549
7.1881
-0.66748
8.40923
-0.90231
9.79896
-1.11807
11.3793
-1.31038
13.1911
-1.46106
15.2683
-1.53607
17.6144
-1.52897
20.1356
-1.40267
19.2538
-1.21289
15.4208
-0.995379
12.4415
-0.774747
10.0946
-0.57146
8.22851
-0.391151
6.72924
-0.226877
5.51307
-0.0831628
4.50527
-0.0114733
3.5066
1.71783
-0.0878451
4.23172
-0.170004
6.05704
-0.276348
7.29445
-0.439027
8.57191
-0.612189
9.97212
-0.781441
11.5485
-0.944181
13.3539
-1.07319
15.3973
-1.13677
17.678
-1.12728
20.1261
-1.01606
19.1426
-0.858351
15.2631
-0.687629
12.2707
-0.521882
9.92882
-0.372293
8.07892
-0.246651
6.6036
-0.14039
5.40681
-0.0452586
4.41013
0.0223212
3.43902
1.74015
-0.0344756
4.2662
-0.136056
6.15862
-0.247778
7.40617
-0.338426
8.66256
-0.438365
10.0721
-0.572336
11.6825
-0.706968
13.4885
-0.814449
15.5048
-0.86849
17.7321
-0.862248
20.1199
-0.775379
19.0557
-0.654748
15.1425
-0.527367
12.1434
-0.403589
9.80504
-0.286242
7.96158
-0.177508
6.49487
-0.0859462
5.31525
-0.00728178
4.33147
0.0302852
3.40145
1.77044
-0.0172287
4.28343
-0.12695
6.26834
-0.208495
7.48771
-0.270012
8.72407
-0.343325
10.1454
-0.445761
11.785
-0.552507
13.5953
-0.642264
15.5946
-0.692013
17.7818
-0.693005
20.1209
-0.626189
18.9889
-0.52905
15.0453
-0.424672
12.039
-0.322882
9.70325
-0.225862
7.86456
-0.136556
6.40556
-0.0600759
5.23877
0.00298186
4.26841
0.0276944
3.37674
1.79813
-0.00188765
4.28531
-0.0918204
6.35827
-0.159512
7.55541
-0.211236
8.7758
-0.294018
10.2282
-0.376076
11.867
-0.459413
13.6786
-0.533292
15.6684
-0.577899
17.8264
-0.580818
20.1238
-0.524353
18.9324
-0.440451
14.9614
-0.349387
11.9479
-0.262378
9.61624
-0.183502
7.78568
-0.113921
6.33598
-0.0574036
5.18225
-0.0124535
4.22346
0.0121084
3.35218
1.81024
0.0123449
4.27297
-0.0303851
6.401
-0.0943968
7.61942
-0.169743
8.85114
-0.253826
10.3122
-0.330306
11.9435
-0.401058
13.7493
-0.461957
15.7293
-0.499859
17.8643
-0.504051
20.128
-0.456611
18.885
-0.38342
14.8883
-0.303916
11.8684
-0.229785
9.54211
-0.164648
7.72054
-0.106849
6.27818
-0.0612202
5.13662
-0.0275664
4.18981
-0.00893423
3.33354
1.8013
-0.00695323
4.27992
-0.0428262
6.43687
-0.079825
7.65642
-0.149555
8.92087
-0.220313
10.383
-0.291798
12.015
-0.357343
13.8149
-0.411436
15.7834
-0.447695
17.9006
-0.456549
20.1368
-0.417522
18.8459
-0.353764
14.8245
-0.283521
11.7982
-0.216217
9.47481
-0.157378
7.66171
-0.108525
6.22933
-0.0681271
5.09622
-0.0322819
4.15396
-0.0115627
3.31283
1.78974
0.0367009
4.24322
-0.00739156
6.48097
-0.0705473
7.71957
-0.135282
8.98561
-0.196395
10.4441
-0.260567
12.0792
-0.321497
13.8758
-0.373825
15.8358
-0.412652
17.9394
-0.427254
20.1514
-0.396976
18.8157
-0.34104
14.7686
-0.276837
11.734
-0.21607
9.41404
-0.162945
7.60858
-0.113346
6.17973
-0.0712444
5.05412
-0.0373218
4.12004
-0.0131591
3.28866
1.77658
-0.0018239
4.24505
-0.0327332
6.51188
-0.0646155
7.75145
-0.11733
9.03832
-0.179684
10.5065
-0.236077
12.1355
-0.291694
13.9314
-0.343774
15.8878
-0.387627
17.9833
-0.410812
20.1746
-0.393041
18.7979
-0.347745
14.7233
-0.290515
11.6767
-0.230222
9.35375
-0.171253
7.54961
-0.119068
6.12755
-0.076209
5.01126
-0.0432357
4.08707
-0.0161316
3.26156
1.76045
0.00979536
4.23525
-0.0299401
6.55161
-0.0638787
7.78539
-0.107185
9.08163
-0.157278
10.5566
-0.211451
12.1897
-0.266569
13.9866
-0.319583
15.9409
-0.369481
18.0332
-0.401719
20.2069
-0.395853
18.792
-0.356109
14.6835
-0.296668
11.6173
-0.233504
9.29059
-0.182374
7.49848
-0.142383
6.08755
-0.101458
4.97034
-0.0599175
4.04553
-0.0229185
3.22456
1.73753
0.0127263
4.22252
-0.0204543
6.58479
-0.0585662
7.8235
-0.0980546
9.12112
-0.142276
10.6008
-0.192149
12.2396
-0.246084
14.0405
-0.30008
15.9949
-0.354795
18.0879
-0.395053
20.2471
-0.403762
18.8007
-0.38016
14.6599
-0.337769
11.5749
-0.284014
9.23683
-0.216321
7.43079
-0.143305
6.01454
-0.0855813
4.91261
-0.0592543
4.0192
-0.0299708
3.19528
1.70756
-0.00622677
4.22875
-0.0358298
6.6144
-0.0531109
7.84079
-0.0924616
9.16047
-0.132726
10.641
-0.178495
12.2854
-0.22981
14.0918
-0.284625
16.0497
-0.342519
18.1458
-0.390945
20.2956
-0.41517
18.825
-0.401561
14.6463
-0.353866
11.5272
-0.28535
9.16831
-0.231343
7.37678
-0.196325
5.97952
-0.153041
4.86933
-0.0875745
3.95373
-0.035056
3.14276
1.67251
0.0207608
4.20799
-0.00743554
6.64259
-0.0448015
7.87815
-0.0842257
9.19989
-0.123751
10.6806
-0.16762
12.3292
-0.216126
14.1403
-0.271551
16.1051
-0.331286
18.2055
-0.387086
20.3514
-0.424633
18.8625
-0.426964
14.6486
-0.403795
11.504
-0.36063
9.12515
-0.278854
7.29501
-0.183923
5.88459
-0.109905
4.79531
-0.0857497
3.92958
-0.0482088
3.10522
1.6243
-0.00830095
4.21629
-0.0290997
6.66339
-0.0425511
7.8916
-0.0790862
9.23643
-0.115805
10.7173
-0.157472
12.3709
-0.203941
14.1868
-0.259874
16.161
-0.320492
18.2661
-0.383026
20.4139
-0.433256
18.9127
-0.450939
14.6663
-0.429128
11.4822
-0.377033
9.07305
-0.329615
7.24759
-0.279371
5.83434
-0.21608
4.73202
-0.12587
3.83937
-0.0541101
3.03346
1.57019
0.0163646
4.19993
-0.0104415
6.6902
-0.0400985
7.92126
-0.0740414
9.27037
-0.108631
10.7519
-0.147671
12.4099
-0.192753
14.2319
-0.24832
16.2166
-0.309253
18.327
-0.378029
20.4827
-0.43857
18.9733
-0.47166
14.6994
-0.476163
11.4867
-0.453468
9.05036
-0.382303
7.17642
-0.285653
5.73769
-0.193644
4.64001
-0.135864
3.78159
-0.0730748
2.97067
1.49711
-0.00144653
4.20137
-0.0215023
6.71025
-0.0375374
7.9373
-0.0703197
9.30315
-0.101618
10.7832
-0.138196
12.4465
-0.18213
14.2758
-0.236526
16.271
-0.297689
18.3882
-0.371526
20.5565
-0.440466
19.0422
-0.485472
14.7444
-0.500284
11.5015
-0.476786
9.02686
-0.438305
7.13794
-0.391448
5.69084
-0.309962
4.55853
-0.186673
3.6583
-0.0785199
2.86251
1.41859
0.00523939
4.19613
-0.013695
6.72919
-0.0335631
7.95716
-0.0646391
9.33423
-0.0933086
10.8118
-0.128666
12.4819
-0.171444
14.3186
-0.224307
16.3239
-0.285499
18.4494
-0.363034
20.634
-0.440275
19.1195
-0.498516
14.8027
-0.534458
11.5375
-0.548828
9.04123
-0.522547
7.11166
-0.446868
5.61516
-0.345641
4.4573
-0.236841
3.5495
-0.109501
2.73517
1.30909
0.00416511
4.19197
-0.0200309
6.75338
-0.0330473
7.97018
-0.0597837
9.36097
-0.0864535
10.8385
-0.119977
12.5154
-0.160821
14.3594
-0.211953
16.375
-0.272938
18.5104
-0.352986
20.7141
-0.436884
19.2034
-0.505527
14.8713
-0.55221
11.5842
-0.566991
9.05601
-0.558289
7.10296
-0.542048
5.59892
-0.488061
4.40332
-0.351136
3.41257
-0.164595
2.54863
1.1445
-1.75651e-05
4.19199
-0.014445
6.76781
-0.0324217
7.98816
-0.0580626
9.38661
-0.0812723
10.8617
-0.112266
12.5464
-0.151406
14.3986
-0.201143
16.4247
-0.261962
18.5712
-0.343563
20.7957
-0.43307
19.2929
-0.513475
14.9517
-0.577772
11.6485
-0.622199
9.10044
-0.643818
7.12458
-0.623727
5.57882
-0.575353
4.35494
-0.476721
3.31394
-0.209735
2.28165
0.934761
-0.00097018
4.19296
-0.0136421
6.78048
-0.030014
8.00453
-0.0548602
9.41145
-0.0790393
10.8859
-0.110568
12.5779
-0.150757
14.4387
-0.202699
16.4767
-0.268558
18.6371
-0.359418
20.8865
-0.464286
19.3977
-0.565828
15.0532
-0.65572
11.7384
-0.721019
9.16574
-0.749588
7.15315
-0.763937
5.59317
-0.768892
4.3599
-0.810946
3.356
-0.690186
2.16089
1.1494
-0.904829
-0.00331604
4.19627
-0.0186034
6.79577
-0.0290423
8.01497
-0.0505211
9.43293
-0.0737925
10.9092
-0.105349
12.6095
-0.145206
14.4786
-0.197265
16.5287
-0.265249
18.705
-0.361042
20.9823
-0.47628
19.513
-0.595875
15.1728
-0.713051
11.8555
-0.823473
9.27616
-0.931923
7.2616
-1.03295
5.6942
-1.12467
4.45162
-1.06743
3.29876
-0.919776
2.01323
1.39992
-1.17029
0.00523061
4.19104
-0.0102268
6.81123
-0.0275431
8.03228
-0.0485056
9.45389
-0.0724045
10.9331
-0.100527
12.6376
-0.139706
14.5178
-0.191643
16.5807
-0.261452
18.7749
-0.361836
21.0827
-0.487198
19.6383
-0.624871
15.3105
-0.770984
12.0017
-0.919282
9.42446
-1.05921
7.40152
-1.18116
5.81615
-1.24441
4.51487
-1.1633
3.21765
-1.2897
2.13963
1.69999
-1.58977
-0.00305568
4.1941
-0.0153409
6.82351
-0.0291994
8.04614
-0.0481065
9.4728
-0.071591
10.9566
-0.0948739
12.6609
-0.133503
14.5564
-0.184829
16.632
-0.256027
18.8461
-0.36051
21.1872
-0.495397
19.7732
-0.648585
15.4637
-0.820416
12.1735
-1.01045
9.61449
-1.21678
7.60785
-1.39105
5.99042
-1.45682
4.58064
-1.46108
3.22191
-1.66938
2.34793
1.92324
-1.89263
-0.00444224
4.19854
-0.00936323
6.82843
-0.0210162
8.05779
-0.0402523
9.49204
-0.0621992
10.9785
-0.0893584
12.688
-0.127357
14.5944
-0.177877
16.6825
-0.24981
18.918
-0.35781
21.2952
-0.50067
19.9161
-0.668314
15.6313
-0.865073
12.3702
-1.07516
9.82458
-1.27497
7.80767
-1.4255
6.14095
-1.49927
4.6544
-1.59979
3.32244
-1.84121
2.58936
2.13231
-2.05029
-0.0013226
4.19986
-0.0144432
6.84156
-0.0209307
8.06428
-0.0373783
9.50849
-0.0557511
10.9969
-0.0869689
12.7193
-0.124648
14.6321
-0.175325
16.7332
-0.248306
18.991
-0.359568
21.4065
-0.509362
20.0659
-0.686242
15.8082
-0.893375
12.5774
-1.11794
10.0491
-1.34206
8.03179
-1.57878
6.37767
-1.75955
4.83517
-1.94812
3.511
-2.1729
2.81414
2.28741
-2.328
0.0105328
4.18933
-0.00964719
6.86174
-0.0249697
8.07961
-0.0456802
9.5292
-0.0621635
11.0134
-0.0887818
12.7459
-0.126281
14.6696
-0.177127
16.784
-0.251375
19.0652
-0.365712
21.5208
-0.520984
20.2211
-0.704269
15.9915
-0.920831
12.7939
-1.16616
10.2945
-1.40651
8.27214
-1.57807
6.54923
-1.72281
4.97991
-1.98535
3.77354
-2.22665
3.05543
2.48789
-2.42713
-5.76475e-05
4.18939
-0.0107291
6.87241
-0.0227742
8.09165
-0.0433112
9.54973
-0.0635841
11.0336
-0.0895124
12.7718
-0.127535
14.7076
-0.178203
16.8347
-0.253291
19.1403
-0.369917
21.6374
-0.528661
20.3799
-0.711904
16.1748
-0.924858
13.0069
-1.17938
10.549
-1.44564
8.53841
-1.67495
6.77854
-1.92259
5.22755
-2.32388
4.17483
-2.74465
3.47621
2.77741
-3.03417
-0.00575909
4.19515
-0.0141803
6.88083
-0.0202411
8.09771
-0.0379913
9.56748
-0.059847
11.0555
-0.0902758
12.8022
-0.128491
14.7458
-0.179592
16.8858
-0.254512
19.2152
-0.371896
21.7548
-0.533
20.541
-0.720274
16.362
-0.927618
13.2142
-1.18162
10.803
-1.48392
8.84071
-1.75053
7.04515
-1.95483
5.43185
-2.3907
4.61071
-2.9155
4.001
2.99219
-3.13029
0.00503529
4.19011
-0.0110461
6.89691
-0.0250891
8.11175
-0.0448874
9.58728
-0.064036
11.0746
-0.0915071
12.8297
-0.128986
14.7833
-0.179886
16.9367
-0.253646
19.289
-0.369739
21.8709
-0.530569
20.7018
-0.715062
16.5465
-0.920756
13.4199
-1.14308
11.0253
-1.41055
9.10817
-1.72236
7.35696
-2.17151
5.881
-2.58592
5.02512
-3.14734
4.56242
3.82318
-3.97832
0.00352597
4.18659
-0.0123953
6.91283
-0.0256701
8.12503
-0.0462043
9.60782
-0.0677314
11.0962
-0.0931844
12.8552
-0.129545
14.8197
-0.178233
16.9854
-0.248008
19.3588
-0.356418
21.9793
-0.503765
20.8492
-0.670702
16.7135
-0.860558
13.6098
-1.05897
11.2237
-1.26397
9.31317
-1.49748
7.59048
-1.87592
6.25944
-2.10648
5.25569
-1.55597
4.0119
2.26721
-0.00204982
4.18864
-0.0133705
6.92415
-0.0212114
8.13287
-0.0402086
9.62681
-0.063893
11.1199
-0.0928877
12.8841
-0.13086
14.8576
-0.181462
17.036
-0.252666
19.43
-0.361963
22.0886
-0.506803
20.994
-0.665724
16.8724
-0.842607
13.7867
-1.01981
11.4009
-1.14811
9.44148
-1.20666
7.64903
-1.1454
6.19817
-1.04007
5.15036
-0.721165
3.693
1.54604
0.00468657
4.18395
-0.00897709
6.93782
-0.0205835
8.14448
-0.0403907
9.64662
-0.0629874
11.1425
-0.09187
12.913
-0.130981
14.8967
-0.18173
17.0867
-0.251817
19.5001
-0.358881
22.1957
-0.498097
21.1332
-0.641752
17.016
-0.789385
13.9343
-0.909772
11.5213
-0.95445
9.48615
-0.933907
7.62848
-0.942413
6.20668
-0.932501
5.14045
-0.809313
3.56981
0.736731
0.00828954
4.17566
-0.00630126
6.95241
-0.0189188
8.15709
-0.0400361
9.66774
-0.0624236
11.1648
-0.0886518
12.9393
-0.128566
14.9367
-0.177106
17.1353
-0.24502
19.568
-0.346554
22.2972
-0.472541
21.2592
-0.589063
17.1326
-0.679717
14.025
-0.757746
11.5993
-0.771116
9.49952
-0.785282
7.64265
-0.825019
6.24642
-0.791104
5.10653
-0.397017
3.17572
0.339714
0.00753641
4.16812
-0.00414784
6.96409
-0.0156378
8.16858
-0.0349215
9.68702
-0.0573381
11.1873
-0.082726
12.9646
-0.124443
14.9784
-0.167663
17.1785
-0.231698
19.632
-0.323038
22.3885
-0.427825
21.364
-0.508299
17.213
-0.548228
14.0649
-0.594268
11.6454
-0.618014
9.52327
-0.657494
7.68213
-0.599292
6.18821
-0.411586
4.91883
-0.134451
2.89859
0.205263
0.00970007
4.15842
2.69535e-05
6.97376
-0.011126
8.17974
-0.0299191
9.70581
-0.0502574
11.2076
-0.0730073
12.9874
-0.114812
15.0202
-0.149442
17.2131
-0.209808
19.6924
-0.288348
22.4671
-0.361041
21.4367
-0.406106
17.2581
-0.417366
14.0761
-0.399977
11.628
-0.374339
9.49763
-0.343447
7.65124
-0.265195
6.10996
-0.0655977
4.71923
0.0278796
2.80511
0.233143
0.0131247
4.1453
0.00427539
6.98261
-0.00474117
8.18875
-0.0244926
9.72557
-0.0387104
11.2218
-0.0610137
13.0097
-0.100344
15.0595
-0.125571
17.2384
-0.181104
19.7479
-0.242321
22.5283
-0.283796
21.4782
-0.295484
17.2698
-0.276649
14.0573
-0.187164
11.5385
-0.101363
9.41183
0.0213567
7.52852
0.116974
6.01434
0.199514
4.63669
0.212111
2.79251
0.445254
0.0159625
4.12934
0.0090068
6.98957
0.00457809
8.19318
-0.0116126
9.74176
-0.0179469
11.2281
-0.0451529
13.0369
-0.074854
15.0892
-0.0947411
17.2582
-0.142652
19.7958
-0.185138
22.5708
-0.202709
21.4957
-0.18101
17.2481
-0.12073
13.997
-0.00516392
11.4229
0.11975
9.28692
0.233899
7.41437
0.370871
5.87737
0.440349
4.56721
0.337755
2.89511
0.783009
0.0206417
4.10869
0.0162184
6.99399
0.0194451
8.18996
0.00301913
9.75818
0.00209425
11.2291
-0.027187
13.0662
-0.0350822
15.0971
-0.0608705
17.284
-0.0970871
19.832
-0.119724
22.5934
-0.117551
21.4936
-0.0694354
17.2
0.0156725
13.9119
0.142188
11.2964
0.26652
9.16259
0.347583
7.3333
0.411867
5.81309
0.457185
4.52189
0.336747
3.01555
1.11976
0.0281986
4.0805
0.0243173
6.99787
0.0345362
8.17974
0.0193844
9.77333
0.0296468
11.2188
0.00115859
13.0947
0.0144027
15.0839
-0.0229072
17.3213
-0.0397997
19.8489
-0.0483916
22.602
-0.0331892
21.4784
0.0223182
17.1445
0.116242
13.818
0.228925
11.1837
0.34641
9.0451
0.398661
7.28105
0.417567
5.79418
0.410438
4.52902
0.28997
3.13601
1.40973
0.0369598
4.04354
0.0416667
6.99317
0.0556178
8.16579
0.0493266
9.77963
0.0599864
11.2081
0.0481084
13.1066
0.0565639
15.0754
0.0366998
17.3412
0.0304883
19.8551
0.0277869
22.6047
0.0524407
21.4537
0.111204
17.0857
0.201509
13.7277
0.29898
11.0863
0.395351
8.94873
0.432313
7.24409
0.440472
5.78602
0.396163
4.57333
0.248617
3.28356
1.65834
0.0501459
3.99339
0.0606223
6.98269
0.0803807
8.14603
0.0850614
9.77494
0.102496
11.1907
0.10859
13.1005
0.118126
15.0659
0.119651
17.3397
0.120021
19.8548
0.125727
22.599
0.149474
21.43
0.196446
17.0387
0.265343
13.6588
0.33278
11.0188
0.407057
8.87445
0.435253
7.21589
0.428657
5.79262
0.365041
4.63695
0.211725
3.43688
1.87007
0.0586985
3.93469
0.0823684
6.95902
0.11315
8.11525
0.130006
9.75809
0.158983
11.1617
0.176604
13.0828
0.199356
15.0431
0.211578
17.3275
0.224153
19.8422
0.231825
22.5913
0.250056
21.4117
0.278247
17.0105
0.311226
13.6258
0.346802
10.9833
0.388181
8.83308
0.400817
7.20326
0.373413
5.82002
0.308687
4.70167
0.168335
3.57723
2.0384
0.0802457
3.85445
0.114897
6.92437
0.155776
8.07437
0.189158
9.72471
0.231554
11.1193
0.26197
13.0524
0.303648
15.0014
0.3252
17.3059
0.350507
19.8169
0.357761
22.5841
0.357127
21.4124
0.355741
17.0119
0.354418
13.6271
0.354232
10.9834
0.341972
8.84534
0.336637
7.20859
0.300236
5.85642
0.241833
4.76008
0.124325
3.69473
2.16273
0.0960643
3.75838
0.15311
6.86732
0.212054
8.01542
0.263637
9.67312
0.322329
11.0606
0.372566
13.0022
0.433254
14.9408
0.470861
17.2683
0.50366
19.7841
0.504433
22.5833
0.480133
21.4367
0.449732
17.0423
0.422482
13.6544
0.390101
11.0158
0.326262
8.90917
0.298147
7.23671
0.247197
5.90737
0.188936
4.81834
0.0780641
3.80561
2.24079
0.132073
3.62631
0.209677
6.78972
0.283568
7.94153
0.36361
9.59308
0.4447
10.9796
0.52486
12.922
0.600723
14.8649
0.659072
17.21
0.696908
19.7462
0.689787
22.5904
0.64375
21.4827
0.580605
17.1055
0.515607
13.7194
0.442333
11.0891
0.338036
9.01347
0.273838
7.3009
0.20446
5.97675
0.145891
4.87691
0.0505501
3.90095
2.29134
0.161935
3.46437
0.284495
6.66716
0.392945
7.83308
0.506706
9.47932
0.609598
10.8767
0.718413
12.8132
0.816199
14.7671
0.897768
17.1284
0.942961
19.7011
0.931454
22.6019
0.862977
21.5512
0.762901
17.2055
0.653443
13.8289
0.542782
11.1998
0.418175
9.13808
0.319733
7.39935
0.225656
6.07083
0.146217
4.95635
0.053728
3.99344
2.34507
0.232093
3.23228
0.399776
6.49948
0.538731
7.69413
0.696195
9.32185
0.831999
10.7409
0.983689
12.6615
1.11453
14.6363
1.22004
17.0229
1.27541
19.6457
1.26109
22.6163
1.16641
21.6459
1.02474
17.3472
0.861861
13.9917
0.699676
11.3619
0.54139
9.29636
0.392445
7.54829
0.269556
6.19372
0.159765
5.06614
0.0667293
4.08647
2.4118
0.321892
2.91039
0.575314
6.24605
0.769482
7.49996
0.977751
9.11359
1.14753
10.5711
1.33498
12.4741
1.50227
14.469
1.63706
16.8881
1.71192
19.5708
1.70508
22.6231
1.59496
21.756
1.42108
17.5211
1.21402
14.1988
1.00469
11.5713
0.809237
9.49182
0.611507
7.74602
0.435531
6.36969
0.274041
5.22763
0.129529
4.23098
2.54133
0.481958
2.42843
0.856964
5.87105
1.1108
7.24613
1.36726
8.85712
1.58896
10.3494
1.83122
12.2318
2.04094
14.2593
2.2102
16.7188
2.32
19.461
2.33928
22.6038
2.22863
21.8666
2.03394
17.7158
1.79152
14.4412
1.52984
11.833
1.26852
9.75314
0.98981
8.02473
0.723424
6.63608
0.475185
5.47587
0.243582
4.46259
2.78491
0.398743
2.02969
0.769527
5.50026
1.03752
6.97813
1.3296
8.56504
1.5695
10.1095
1.7793
12.022
1.92295
14.1156
2.02394
16.6178
2.04739
19.4376
1.96422
22.687
1.78138
22.0495
1.56434
17.9328
1.3374
14.6682
1.11637
12.054
0.91077
9.95874
0.710795
8.22471
0.524287
6.82259
0.356452
5.6437
0.181045
4.63799
2.96595
0.075664
1.95402
0.231324
5.3446
0.467842
6.74162
0.74449
8.28839
0.959542
9.89443
1.15961
11.8219
1.34196
13.9333
1.49582
16.464
1.57064
19.3627
1.53594
22.7217
1.39877
22.1866
1.21758
18.114
1.0198
14.8659
0.824268
12.2495
0.644945
10.1381
0.470778
8.39887
0.317173
6.97619
0.177941
5.78293
0.0722371
4.7437
3.03819
-0.0411488
1.99517
0.0657363
5.23772
0.185326
6.62203
0.364178
8.10954
0.531999
9.72661
0.74022
11.6137
0.931792
13.7417
1.08944
16.3063
1.18026
19.2719
1.18269
22.7193
1.08649
22.2828
0.939733
18.2608
0.774621
15.031
0.609243
12.4149
0.459582
10.2877
0.323633
8.53482
0.208306
7.09152
0.110918
5.88032
0.0366275
4.81799
3.07482
-0.116041
2.11121
-0.0258351
5.14751
0.0741259
6.52207
0.199287
7.98438
0.328681
9.59722
0.490149
11.4522
0.648453
13.5834
0.788779
16.166
0.879153
19.1815
0.90062
22.6978
0.835373
22.3481
0.721214
18.3749
0.589617
15.1626
0.458626
12.5459
0.343616
10.4027
0.244222
8.63422
0.160222
7.17552
0.0865559
5.95399
0.0218249
4.88272
3.09664
-0.173945
2.28516
-0.096801
5.07037
0.0101403
6.41512
0.132781
7.86174
0.240897
9.4891
0.37346
11.3197
0.481577
13.4753
0.580314
16.0673
0.658067
19.1038
0.686874
22.669
0.642817
22.3921
0.557156
18.4606
0.458382
15.2614
0.36119
12.6431
0.273901
10.49
0.194243
8.71388
0.120121
7.24964
0.0505312
6.02358
-0.00455834
4.93781
3.09209
-0.14921
2.43437
-0.115927
5.03709
-0.0417243
6.34092
0.0571612
7.76285
0.164629
9.38163
0.281977
11.2023
0.368328
13.3889
0.443337
15.9923
0.505858
19.0413
0.531033
22.6438
0.500539
22.4226
0.437891
18.5232
0.364104
15.3352
0.287938
12.7192
0.213571
10.5644
0.143088
8.78436
0.0771628
7.31557
0.0168195
6.08392
-0.0221487
4.97678
3.06994
-0.110327
2.5447
-0.102854
5.02961
-0.066746
6.30481
-0.000876502
7.69699
0.0903093
9.29045
0.186257
11.1064
0.262754
13.3124
0.341251
15.9138
0.397902
18.9846
0.418319
22.6234
0.395118
22.4458
0.345708
18.5726
0.284687
15.3962
0.219372
12.7846
0.154517
10.6292
0.0946922
8.84418
0.0433307
7.36693
-0.00276676
6.13002
-0.0275906
5.0016
3.04235
-0.0811003
2.6258
-0.0812121
5.02972
-0.0612733
6.28487
-0.0246652
7.66038
0.0412639
9.22452
0.108524
11.0391
0.178903
13.2421
0.252689
15.84
0.305339
18.932
0.326009
22.6028
0.308302
22.4635
0.266447
18.6145
0.213915
15.4488
0.159157
12.8393
0.107232
10.6812
0.0610919
8.89032
0.0239846
7.40404
-0.00920286
6.1632
-0.026192
5.01859
3.01615
-0.062003
2.6878
-0.0655381
5.03326
-0.0527015
6.27204
-0.0292973
7.63697
0.0209713
9.17425
0.0647974
10.9953
0.121943
13.1849
0.178569
15.7833
0.223082
18.8875
0.244804
22.581
0.233294
22.475
0.199934
18.6479
0.158028
15.4907
0.115819
12.8815