/*--------------------------------*- C++ -*----------------------------------*\
| =========                 |                                                 |
| \\      /  F ield         | OpenFOAM: The Open Source CFD Toolbox           |
|  \\    /   O peration     | Version:  2412                                  |
|   \\  /    A nd           | Website:  www.openfoam.com                      |
|    \\/     M anipulation  |                                                 |
\*---------------------------------------------------------------------------*/
FoamFile
{
    version     2.0;
    format      ascii;
    arch        "LSB;label=32;scalar=64";
    class       volVectorField;
    location    "2.25";
    object      U;
}
// * * * * * * * * * * * * * * * * * * * * * * * * * * * * * * * * * * * * * //

dimensions      [0 1 -1 0 0 0 0];

internalField   nonuniform List<vector> 
2200
(
(0.357917 0.00606726 0)
(1.17447 -0.00563928 0)
(2.11442 -0.000349155 0)
(3.16718 0.000713095 0)
(4.32625 0.0034221 0)
(5.5725 0.00499232 0)
(6.86437 0.00530202 0)
(8.12085 0.00429324 0)
(9.20739 0.00454792 0)
(9.90078 0.00299464 0)
(9.90013 -0.000833144 0)
(9.20689 -0.00306903 0)
(8.12068 -0.00316664 0)
(6.86438 -0.00384847 0)
(5.57244 -0.00364248 0)
(4.32578 -0.00265464 0)
(3.16701 -0.000379637 0)
(2.11421 0.000943779 0)
(1.17411 0.00625552 0)
(0.357298 -0.00591656 0)
(0.382409 0.0158713 0)
(1.15889 0.0174527 0)
(2.1123 0.00924611 0)
(3.15756 0.015551 0)
(4.31979 0.0145136 0)
(5.56929 0.0167362 0)
(6.85785 0.0208627 0)
(8.11551 0.0220495 0)
(9.20181 0.0199939 0)
(9.89251 0.0119982 0)
(9.89222 -0.00476101 0)
(9.20126 -0.0148232 0)
(8.11573 -0.0173438 0)
(6.85744 -0.0167972 0)
(5.56828 -0.0138552 0)
(4.31915 -0.0121465 0)
(3.15665 -0.0135909 0)
(2.11053 -0.00850177 0)
(1.15683 -0.0169433 0)
(0.380953 -0.0156805 0)
(0.473609 0.023793 0)
(1.17522 0.0510356 0)
(2.11825 0.0402382 0)
(3.16601 0.0363292 0)
(4.31684 0.0466511 0)
(5.56422 0.0387334 0)
(6.85526 0.0377243 0)
(8.10277 0.0349814 0)
(9.18058 0.0292431 0)
(9.86986 0.0120817 0)
(9.87085 -0.00222319 0)
(9.18001 -0.0197858 0)
(8.10135 -0.0275289 0)
(6.85317 -0.0318951 0)
(5.56211 -0.0338231 0)
(4.31456 -0.0422087 0)
(3.16263 -0.0336053 0)
(2.11491 -0.0381404 0)
(1.1718 -0.0505717 0)
(0.470088 -0.0235712 0)
(0.629844 0.0217333 0)
(1.23059 0.072838 0)
(2.10247 0.080162 0)
(3.19252 0.0644129 0)
(4.34029 0.0715713 0)
(5.56566 0.0859487 0)
(6.84732 0.0760604 0)
(8.09279 0.0641878 0)
(9.17135 0.0468011 0)
(9.85049 0.0221205 0)
(9.85079 -0.00956829 0)
(9.16873 -0.0356055 0)
(8.08947 -0.0532596 0)
(6.84305 -0.0670826 0)
(5.5612 -0.0788862 0)
(4.33502 -0.0663141 0)
(3.18697 -0.059907 0)
(2.09497 -0.078295 0)
(1.22449 -0.0711679 0)
(0.626509 -0.0211404 0)
(0.807978 0.0173404 0)
(1.37886 0.0863006 0)
(2.09618 0.120416 0)
(3.19742 0.0962037 0)
(4.40939 0.10336 0)
(5.61077 0.123472 0)
(6.85398 0.119946 0)
(8.07795 0.101011 0)
(9.13721 0.0765334 0)
(9.8098 0.0367292 0)
(9.80968 -0.0197691 0)
(9.13299 -0.0610233 0)
(8.07253 -0.0884104 0)
(6.84712 -0.10912 0)
(5.60237 -0.114099 0)
(4.39909 -0.0964723 0)
(3.18456 -0.0921328 0)
(2.08534 -0.11791 0)
(1.36899 -0.0852731 0)
(0.795654 -0.0173162 0)
(1.00458 0.0239187 0)
(1.60367 0.104653 0)
(2.13332 0.175154 0)
(3.19877 0.177219 0)
(4.44674 0.167081 0)
(5.67503 0.171488 0)
(6.90588 0.186794 0)
(8.09811 0.156101 0)
(9.13735 0.110256 0)
(9.77541 0.0485853 0)
(9.77529 -0.0288387 0)
(9.12933 -0.0918924 0)
(8.08801 -0.138071 0)
(6.89331 -0.173476 0)
(5.65986 -0.162079 0)
(4.43023 -0.160163 0)
(3.18379 -0.174053 0)
(2.11901 -0.173622 0)
(1.59185 -0.104567 0)
(0.998767 -0.0237042 0)
(1.25719 0.039151 0)
(1.8721 0.12588 0)
(2.2747 0.244787 0)
(3.21491 0.293126 0)
(4.41283 0.277554 0)
(5.67044 0.229168 0)
(6.90672 0.244589 0)
(8.08311 0.230291 0)
(9.12546 0.169534 0)
(9.73576 0.0755306 0)
(9.7349 -0.0508781 0)
(9.11291 -0.148441 0)
(8.06865 -0.211755 0)
(6.88821 -0.22906 0)
(5.65058 -0.217969 0)
(4.39138 -0.270615 0)
(3.19278 -0.288065 0)
(2.25409 -0.241152 0)
(1.85546 -0.12291 0)
(1.24204 -0.0383072 0)
(1.59091 0.0528986 0)
(2.21385 0.143036 0)
(2.53232 0.301112 0)
(3.28877 0.389246 0)
(4.35933 0.406094 0)
(5.61473 0.34295 0)
(6.85167 0.282454 0)
(8.00705 0.269657 0)
(9.05662 0.209368 0)
(9.65091 0.101215 0)
(9.64905 -0.070771 0)
(9.04114 -0.182366 0)
(7.98891 -0.247734 0)
(6.8286 -0.264745 0)
(5.58708 -0.330339 0)
(4.3314 -0.398413 0)
(3.26219 -0.38517 0)
(2.5116 -0.298573 0)
(2.19523 -0.141472 0)
(1.57173 -0.0524607 0)
(1.98497 0.0609963 0)
(2.62997 0.156162 0)
(2.87504 0.338025 0)
(3.45894 0.460325 0)
(4.36584 0.527427 0)
(5.54939 0.501617 0)
(6.74665 0.393505 0)
(7.91033 0.301945 0)
(8.90293 0.233246 0)
(9.47893 0.109721 0)
(9.47617 -0.0741731 0)
(8.88373 -0.19966 0)
(7.88155 -0.273158 0)
(6.71556 -0.373532 0)
(5.51218 -0.487958 0)
(4.32921 -0.518381 0)
(3.42754 -0.454338 0)
(2.85009 -0.333979 0)
(2.60606 -0.15438 0)
(1.96284 -0.0608598 0)
(2.4131 0.0638062 0)
(3.10432 0.166281 0)
(3.29205 0.365628 0)
(3.72544 0.51628 0)
(4.45772 0.635547 0)
(5.5091 0.657633 0)
(6.62568 0.59118 0)
(7.78668 0.430683 0)
(8.71504 0.308208 0)
(9.22511 0.137449 0)
(9.2209 -0.0950734 0)
(8.69243 -0.270562 0)
(7.74989 -0.399205 0)
(6.5821 -0.569316 0)
(5.46349 -0.641271 0)
(4.41383 -0.624499 0)
(3.68714 -0.507476 0)
(3.25901 -0.359752 0)
(3.07327 -0.163458 0)
(2.38358 -0.0616025 0)
(2.85275 0.0607764 0)
(3.61927 0.169732 0)
(3.76665 0.377326 0)
(4.07584 0.548576 0)
(4.6367 0.7091 0)
(5.51476 0.773786 0)
(6.54094 0.748623 0)
(7.65228 0.608026 0)
(8.57914 0.404878 0)
(9.04563 0.186602 0)
(9.04027 -0.136438 0)
(8.55104 -0.358909 0)
(7.60539 -0.573184 0)
(6.48304 -0.72085 0)
(5.46208 -0.753061 0)
(4.58502 -0.693418 0)
(4.02975 -0.536632 0)
(3.72585 -0.369269 0)
(3.58217 -0.165254 0)
(2.81186 -0.0575463 0)
(3.27382 0.0515975 0)
(4.15 0.160781 0)
(4.27371 0.364455 0)
(4.48595 0.541879 0)
(4.8937 0.727341 0)
(5.57023 0.834858 0)
(6.48296 0.833386 0)
(7.49034 0.737265 0)
(8.41421 0.467895 0)
(8.8805 0.226713 0)
(8.87041 -0.164099 0)
(8.37578 -0.411676 0)
(7.42951 -0.693148 0)
(6.41202 -0.795593 0)
(5.50875 -0.808314 0)
(4.83395 -0.706539 0)
(4.43225 -0.527643 0)
(4.22421 -0.352967 0)
(4.10245 -0.154271 0)
(3.2162 -0.0485743 0)
(3.64509 0.0389432 0)
(4.66328 0.143272 0)
(4.77504 0.330827 0)
(4.91668 0.50552 0)
(5.20216 0.694054 0)
(5.69601 0.839948 0)
(6.44888 0.870246 0)
(7.29503 0.800521 0)
(8.13896 0.514724 0)
(8.60346 0.247338 0)
(8.58791 -0.171502 0)
(8.08758 -0.450892 0)
(7.22088 -0.743905 0)
(6.36431 -0.821427 0)
(5.60943 -0.802033 0)
(5.12809 -0.664085 0)
(4.8501 -0.483044 0)
(4.71264 -0.314852 0)
(4.59818 -0.133597 0)
(3.56388 -0.0362062 0)
(3.94782 0.0274075 0)
(5.12944 0.118214 0)
(5.24307 0.286418 0)
(5.33563 0.446074 0)
(5.53095 0.625897 0)
(5.8797 0.785512 0)
(6.44662 0.868344 0)
(7.12088 0.804534 0)
(7.83175 0.563269 0)
(8.27032 0.259338 0)
(8.25251 -0.168323 0)
(7.77004 -0.4843 0)
(7.03661 -0.734317 0)
(6.35282 -0.811738 0)
(5.783 -0.733708 0)
(5.44078 -0.585814 0)
(5.24888 -0.41641 0)
(5.15801 -0.26402 0)
(5.03908 -0.108238 0)
(3.84146 -0.0219111 0)
(4.18245 0.0171453 0)
(5.53605 0.0968866 0)
(5.65375 0.234629 0)
(5.71474 0.378703 0)
(5.85005 0.537404 0)
(6.09041 0.682562 0)
(6.48081 0.806494 0)
(7.00355 0.754977 0)
(7.58007 0.580923 0)
(7.96652 0.266672 0)
(7.9419 -0.151526 0)
(7.50024 -0.476397 0)
(6.90064 -0.667368 0)
(6.37169 -0.728809 0)
(5.97465 -0.617291 0)
(5.73527 -0.485429 0)
(5.60053 -0.337635 0)
(5.53902 -0.208002 0)
(5.41394 -0.0803149 0)
(4.03311 -0.00619324 0)
(4.3557 0.0108807 0)
(5.86759 0.0707583 0)
(6.00066 0.185821 0)
(6.04094 0.299803 0)
(6.1334 0.435696 0)
(6.29709 0.560165 0)
(6.5652 0.670533 0)
(6.93849 0.668629 0)
(7.38306 0.547347 0)
(7.69883 0.263888 0)
(7.66335 -0.11442 0)
(7.28861 -0.409907 0)
(6.81646 -0.55081 0)
(6.43187 -0.567841 0)
(6.15678 -0.479076 0)
(5.98963 -0.371701 0)
(5.89405 -0.253692 0)
(5.85042 -0.150492 0)
(5.72159 -0.0512826 0)
(4.14356 0.00110439 0)
(4.48181 0.00456987 0)
(6.14347 0.0597956 0)
(6.27544 0.14204 0)
(6.30302 0.2378 0)
(6.36525 0.346208 0)
(6.47437 0.449689 0)
(6.65162 0.542384 0)
(6.91134 0.568213 0)
(7.22328 0.48442 0)
(7.45859 0.251493 0)
(7.41431 -0.0625602 0)
(7.1155 -0.30826 0)
(6.76044 -0.407956 0)
(6.48558 -0.407505 0)
(6.29579 -0.341628 0)
(6.18018 -0.259881 0)
(6.1164 -0.173767 0)
(6.08495 -0.100298 0)
(5.93942 -0.0278857 0)
(4.20504 0.0037211 0)
(4.57481 0.00631782 0)
(6.34068 0.0402471 0)
(6.49384 0.112184 0)
(6.5126 0.185517 0)
(6.55189 0.271935 0)
(6.62109 0.359089 0)
(6.73369 0.436412 0)
(6.90177 0.473834 0)
(7.10186 0.415717 0)
(7.25909 0.241729 0)
(7.21001 -0.00156456 0)
(6.97857 -0.193571 0)
(6.72012 -0.265197 0)
(6.52719 -0.264797 0)
(6.39563 -0.221978 0)
(6.31446 -0.16791 0)
(6.26851 -0.110023 0)
(6.24402 -0.0604313 0)
(6.08172 -0.0137637 0)
(4.22286 0.00590764 0)
(4.66151 0.00506115 0)
(6.52159 0.0452661 0)
(6.66566 0.0947978 0)
(6.68018 0.153486 0)
(6.7021 0.222064 0)
(6.74443 0.293391 0)
(6.81041 0.353922 0)
(6.90787 0.395927 0)
(7.02225 0.365111 0)
(7.1165 0.243016 0)
(7.05895 0.0635971 0)
(6.87778 -0.0803589 0)
(6.68844 -0.136251 0)
(6.55 -0.142361 0)
(6.4549 -0.119056 0)
(6.39566 -0.0861485 0)
(6.36229 -0.0543784 0)
(6.34114 -0.0257457 0)
(6.16207 -0.00169202 0)
(4.22082 0.00515909 0)
(4.74368 0.00958683 0)
(6.64029 0.0314228 0)
(6.80696 0.0789298 0)
(6.81488 0.13337 0)
(6.82699 0.191401 0)
(6.84845 0.253651 0)
(6.88099 0.31102 0)
(6.92448 0.350907 0)
(6.97777 0.353535 0)
(7.0139 0.26875 0)
(6.94479 0.135571 0)
(6.79591 0.0275635 0)
(6.65341 -0.021311 0)
(6.55032 -0.038153 0)
(6.47976 -0.0356101 0)
(6.43505 -0.0253342 0)
(6.40844 -0.0118772 0)
(6.38398 -0.00339505 0)
(6.18402 0.00677104 0)
(4.20791 0.00453003 0)
(4.84425 0.0130114 0)
(6.7858 0.0501948 0)
(6.93822 0.0888744 0)
(6.94378 0.132102 0)
(6.94283 0.180471 0)
(6.94563 0.2426 0)
(6.95325 0.296802 0)
(6.95515 0.337208 0)
(6.96347 0.364463 0)
(6.94347 0.311022 0)
(6.86372 0.209166 0)
(6.73254 0.126331 0)
(6.61926 0.0765972 0)
(6.53633 0.0483172 0)
(6.47964 0.0347234 0)
(6.443 0.0269362 0)
(6.41773 0.0242607 0)
(6.38672 0.0233126 0)
(6.17721 0.0169133 0)
(4.17487 0.00818992 0)
(4.97438 0.0161883 0)
(6.89513 0.0411147 0)
(7.0596 0.085813 0)
(7.06072 0.137819 0)
(7.05145 0.197904 0)
(7.04027 0.253231 0)
(7.02314 0.314558 0)
(6.99318 0.357588 0)
(6.96424 0.389987 0)
(6.89248 0.375199 0)
(6.79554 0.290942 0)
(6.67037 0.223689 0)
(6.56991 0.169041 0)
(6.49532 0.129531 0)
(6.44396 0.0985608 0)
(6.41063 0.074313 0)
(6.39029 0.0522771 0)
(6.36224 0.0335089 0)
(6.14504 0.020134 0)
(4.09851 0.0158809 0)
(5.10938 0.0249492 0)
(7.05601 0.0739395 0)
(7.20457 0.116317 0)
(7.1932 0.173071 0)
(7.17167 0.226032 0)
(7.13772 0.295389 0)
(7.09393 0.363752 0)
(7.03657 0.412776 0)
(6.97978 0.449347 0)
(6.85775 0.454697 0)
(6.73792 0.381008 0)
(6.61209 0.3198 0)
(6.51438 0.257341 0)
(6.44179 0.206672 0)
(6.39104 0.162117 0)
(6.35552 0.123217 0)
(6.33331 0.0957718 0)
(6.31264 0.0700836 0)
(6.08946 0.0472867 0)
(4.01685 0.019177 0)
(5.36714 0.0372526 0)
(7.21484 0.0830419 0)
(7.35757 0.151391 0)
(7.34347 0.219752 0)
(7.30316 0.303064 0)
(7.24625 0.380235 0)
(7.173 0.454062 0)
(7.08629 0.509245 0)
(7.00224 0.550689 0)
(6.83184 0.552568 0)
(6.68647 0.487338 0)
(6.55222 0.423263 0)
(6.44855 0.352505 0)
(6.37122 0.290685 0)
(6.3164 0.23465 0)
(6.2785 0.183477 0)
(6.25213 0.133053 0)
(6.22189 0.0924264 0)
(5.96575 0.0537407 0)
(3.84895 0.025905 0)
(5.60338 0.0595132 0)
(7.45549 0.148254 0)
(7.56991 0.218681 0)
(7.52195 0.32028 0)
(7.45149 0.413424 0)
(7.36329 0.503953 0)
(7.25524 0.586812 0)
(7.13614 0.645969 0)
(7.01638 0.679795 0)
(6.80274 0.671833 0)
(6.63133 0.609835 0)
(6.48366 0.535662 0)
(6.37066 0.454528 0)
(6.28703 0.379713 0)
(6.22573 0.308541 0)
(6.18173 0.245054 0)
(6.15141 0.192846 0)
(6.11669 0.136066 0)
(5.85539 0.0882922 0)
(3.71522 0.0319696 0)
(6.30002 0.131082 0)
(7.72911 0.224035 0)
(7.80975 0.356471 0)
(7.7241 0.485341 0)
(7.61606 0.597505 2.94608e-33)
(7.48581 0.692982 -2.00659e-33)
(7.33699 0.77211 0)
(7.18229 0.824909 0)
(7.02024 0.84233 0)
(6.77093 0.819235 0)
(6.57533 0.750686 0)
(6.41055 0.661146 0)
(6.28463 0.568711 0)
(6.19025 0.483075 0)
(6.11903 0.403904 0)
(6.06479 0.32824 0)
(6.02212 0.253832 0)
(5.96602 0.191938 0)
(5.60769 0.113441 0)
(3.36701 0.0540112 0)
(6.7541 0.287218 -3.22434e-19)
(8.11178 0.388489 2.81869e-19)
(8.0718 0.589798 0)
(7.92316 0.753533 3.78717e-20)
(7.7681 0.857638 -3.05071e-20)
(7.59801 0.941837 2.12803e-33)
(7.41124 1.00953 0)
(7.2183 1.04839 1.9695e-19)
(7.00915 1.04843 -7.04525e-19)
(6.72908 1.00831 1.54443e-19)
(6.50258 0.928447 0)
(6.31233 0.82472 -5.03006e-19)
(6.16677 0.722347 -6.30316e-19)
(6.05443 0.624901 1.10912e-18)
(5.96649 0.534876 -8.92446e-19)
(5.89795 0.455978 0)
(5.83892 0.383419 -3.45741e-19)
(5.74399 0.284834 0)
(5.28665 0.213402 -1.84505e-18)
(3.0843 0.1204 2.1376e-18)
(7.05947 0.631817 -9.83412e-20)
(8.34938 0.801603 -2.08408e-18)
(8.28923 0.987256 5.44492e-19)
(8.09833 1.08064 6.62287e-19)
(7.90674 1.1559 -6.14033e-20)
(7.69258 1.23259 1.38109e-19)
(7.46849 1.28392 0)
(7.23134 1.31229 0)
(6.97701 1.29719 1.12226e-18)
(6.66865 1.24255 0)
(6.40646 1.15128 1.7552e-18)
(6.18703 1.03741 5.47699e-19)
(6.01813 0.930063 1.73389e-20)
(5.8841 0.831654 -1.26258e-18)
(5.77401 0.741507 0)
(5.68156 0.661266 0)
(5.60165 0.602811 -5.97126e-18)
(5.49417 0.562076 1.51601e-17)
(5.08446 0.435109 -8.69321e-18)
(2.95057 0.280362 -1.03991e-17)
(7.20736 0.988179 2.6856e-18)
(8.55453 1.37119 -9.52538e-19)
(8.46273 1.43861 -2.3872e-19)
(8.24658 1.458 -1.20101e-18)
(8.01172 1.51244 5.55481e-19)
(7.76411 1.55797 -2.07985e-19)
(7.50236 1.58626 2.31119e-19)
(7.2248 1.59743 0)
(6.93451 1.56281 -2.34548e-18)
(6.60132 1.49186 2.57116e-18)
(6.30657 1.38663 -4.80085e-18)
(6.06049 1.26469 2.33728e-18)
(5.86862 1.15542 -1.7269e-18)
(5.71398 1.06102 3.78036e-18)
(5.58618 0.982194 0)
(5.47755 0.909326 -1.48931e-18)
(5.38193 0.842266 0)
(5.27241 0.818714 8.67863e-18)
(4.92388 0.706137 -2.04246e-17)
(2.92583 0.416354 1.29232e-17)
(7.25381 1.26045 -1.31162e-17)
(8.63316 1.90344 6.41016e-18)
(8.57551 1.88117 9.25733e-19)
(8.33773 1.87035 0)
(8.08298 1.88938 5.82087e-19)
(7.80642 1.90649 -6.00763e-19)
(7.51157 1.91024 -2.77861e-19)
(7.20345 1.89587 0)
(6.88278 1.8384 1.66034e-18)
(6.52493 1.74929 -1.76832e-18)
(6.20071 1.62947 4.21403e-18)
(5.93141 1.50104 0)
(5.72117 1.39016 -3.62746e-18)
(5.55298 1.29583 2.0031e-18)
(5.41762 1.21997 5.44058e-18)
(5.30733 1.1581 -4.78026e-18)
(5.21267 1.08767 7.98159e-18)
(5.10699 1.03532 -1.78265e-17)
(4.80228 0.955038 1.13563e-17)
(2.96596 0.566442 -1.44569e-17)
(7.23726 1.56026 8.86283e-18)
(8.67539 2.40591 -7.10972e-18)
(8.63905 2.31417 2.83281e-18)
(8.3901 2.28351 -3.86461e-18)
(8.11379 2.28201 2.49125e-18)
(7.81481 2.26771 -3.48093e-19)
(7.49659 2.2407 1.20331e-19)
(7.16536 2.19718 -1.20391e-18)
(6.81888 2.11767 -1.69093e-18)
(6.43973 2.01067 -3.81951e-18)
(6.09293 1.87463 -9.08854e-18)
(5.80845 1.73678 -3.03786e-18)
(5.58986 1.62087 1.20967e-19)
(5.41841 1.52206 -7.15406e-18)
(5.28338 1.44018 -2.55758e-19)
(5.17576 1.37966 6.98379e-18)
(5.08671 1.32523 -2.16795e-18)
(4.98455 1.2468 -1.28727e-18)
(4.71746 1.18867 0)
(2.99888 0.717728 3.06848e-17)
(7.21996 1.85131 0)
(8.64643 2.85196 1.93099e-18)
(8.64365 2.69303 0)
(8.37954 2.69218 -4.69341e-19)
(8.09572 2.67392 -3.00031e-18)
(7.78856 2.62872 5.25603e-19)
(7.45869 2.57087 1.897e-19)
(7.11196 2.49827 2.13737e-18)
(6.7453 2.39743 -1.01822e-18)
(6.35041 2.26942 1.69692e-18)
(5.98904 2.11356 4.90024e-18)
(5.69682 1.96368 6.71995e-18)
(5.47571 1.84063 -4.17722e-18)
(5.30428 1.73698 7.73281e-18)
(5.16893 1.64875 -6.20427e-18)
(5.06187 1.58068 0)
(4.972 1.54861 -1.66191e-17)
(4.88137 1.45044 2.23428e-17)
(4.63458 1.41761 1.70747e-18)
(3.00499 0.855883 -3.22965e-17)
(7.08684 2.13217 -8.94826e-19)
(8.59068 3.22293 -5.69653e-18)
(8.6241 3.03024 -1.51212e-17)
(8.32252 3.06985 8.16797e-18)
(8.03659 3.03538 -1.60749e-18)
(7.73193 2.96913 8.29127e-19)
(7.40021 2.88835 -9.68555e-22)
(7.04446 2.79179 -2.7986e-19)
(6.66416 2.66951 -3.66127e-18)
(6.26022 2.51928 2.67252e-20)
(5.88953 2.34491 -5.31361e-18)
(5.59136 2.18255 -7.11633e-18)
(5.36711 2.05033 4.69305e-18)
(5.19393 1.94201 -2.77176e-18)
(5.05771 1.85031 6.72533e-18)
(4.94996 1.7735 0)
(4.85602 1.74846 -1.02629e-17)
(4.7693 1.64193 1.51835e-17)
(4.5383 1.604 2.96119e-17)
(2.9627 0.999949 -3.39225e-17)
(7.02059 2.44161 -2.6754e-17)
(8.52728 3.63788 1.30242e-17)
(8.5592 3.37056 9.48486e-18)
(8.22771 3.43474 -8.57996e-18)
(7.95409 3.3663 4.94711e-19)
(7.65733 3.28103 2.06989e-18)
(7.32586 3.18602 -2.88212e-19)
(6.96583 3.07135 -8.68773e-19)
(6.57756 2.9309 -2.28269e-18)
(6.16779 2.76105 3.84369e-18)
(5.78716 2.56863 5.06007e-18)
(5.48085 2.39162 1.11693e-17)
(5.25119 2.24852 0)
(5.07474 2.13337 2.09587e-19)
(4.9355 2.03616 -1.8649e-17)
(4.82843 1.94773 4.27072e-18)
(4.73713 1.93115 2.19503e-17)
(4.66936 1.82062 -6.36409e-18)
(4.45013 1.77448 1.42447e-17)
(2.90157 1.1135 -9.19458e-19)
(6.8712 2.63749 1.01649e-18)
(8.42611 3.93673 1.18882e-17)
(8.46252 3.68492 6.84864e-18)
(8.1166 3.77401 -1.44698e-17)
(7.86527 3.66646 8.8232e-18)
(7.57222 3.569 -2.4805e-18)
(7.23996 3.46291 2.27693e-19)
(6.87639 3.33442 2.06746e-18)
(6.4825 3.17871 4.07725e-18)
(6.06802 2.99027 -4.90152e-18)
(5.67832 2.7805 0)
(5.36579 2.58962 -4.38506e-18)
(5.1337 2.43498 5.03048e-18)
(4.95791 2.31242 6.76964e-18)
(4.82409 2.21373 -3.87368e-18)
(4.7226 2.11848 -9.8284e-18)
(4.62429 2.09593 -2.98723e-18)
(4.54265 1.96975 -3.87744e-20)
(4.33182 1.92906 0)
(2.842 1.20284 0)
(6.75696 2.89979 -1.28277e-17)
(8.311 4.29591 0)
(8.36488 3.9939 7.58968e-18)
(8.00701 4.07955 -3.56845e-18)
(7.77497 3.93978 -8.74606e-18)
(7.48049 3.83608 2.47258e-18)
(7.14585 3.72079 1.52711e-19)
(6.77791 3.58006 -1.14902e-18)
(6.38147 3.41055 2.81053e-18)
(5.96466 3.20655 -1.9723e-18)
(5.56732 2.98345 2.85882e-18)
(5.24836 2.77979 1.36541e-17)
(5.01104 2.61362 5.15664e-19)
(4.83017 2.48084 -6.88119e-18)
(4.68773 2.37083 1.33126e-17)
(4.58587 2.25711 1.88268e-19)
(4.49685 2.24041 3.19722e-18)
(4.45841 2.11811 -1.56822e-17)
(4.24358 2.08326 1.6145e-17)
(2.78031 1.28181 -1.68441e-17)
(6.64243 3.09677 1.68602e-20)
(8.20405 4.59307 0)
(8.26334 4.27569 0)
(7.90389 4.37733 3.04939e-18)
(7.68812 4.19491 3.43056e-18)
(7.38687 4.08674 -1.76359e-18)
(7.04778 3.96211 6.45234e-19)
(6.6757 3.80974 0)
(6.27974 3.62763 -4.43455e-18)
(5.86046 3.4112 7.20222e-18)
(5.456 3.17633 8.60535e-18)
(5.13267 2.95916 -5.13387e-18)
(4.89566 2.77931 -6.42142e-18)
(4.72178 2.6351 1.51575e-17)
(4.59577 2.52386 -4.70154e-18)
(4.50049 2.41638 -5.72403e-18)
(4.39214 2.39278 -3.49928e-18)
(4.31495 2.23828 -1.69642e-17)
(4.10171 2.19386 2.24023e-18)
(2.70924 1.3518 1.80011e-17)
(6.51155 3.28289 -5.09398e-18)
(8.10258 4.8539 -6.96646e-18)
(8.16905 4.55079 9.44341e-19)
(7.81126 4.65027 1.09905e-19)
(7.60267 4.44072 9.15617e-19)
(7.29356 4.32653 -4.83479e-18)
(6.94954 4.19051 0)
(6.5749 4.02565 9.36828e-19)
(6.18096 3.83136 -7.37232e-19)
(5.75846 3.60442 1.16487e-17)
(5.34876 3.35974 -2.1516e-18)
(5.01948 3.13149 2.36456e-18)
(4.77289 2.94158 0)
(4.58172 2.78751 -8.26903e-18)
(4.42806 2.66124 1.02739e-17)
(4.33388 2.5207 0)
(4.24742 2.48179 -7.70459e-18)
(4.23612 2.351 2.24831e-17)
(4.01443 2.32097 2.74236e-18)
(2.62966 1.40856 -2.22043e-17)
(6.43181 3.48699 -1.06943e-17)
(7.98304 5.15439 1.30098e-17)
(8.07306 4.79589 0)
(7.71081 4.90858 7.48209e-18)
(7.51441 4.67335 0)
(7.19822 4.55406 4.36601e-18)
(6.8512 4.40614 0)
(6.47735 4.22913 0)
(6.08633 4.02331 -1.5376e-18)
(5.65992 3.78781 -1.12754e-17)
(5.2447 3.53539 -1.60128e-17)
(4.90802 3.29752 2.94659e-18)
(4.6594 3.09574 1.09149e-17)
(4.48271 2.9269 9.24624e-18)
(4.36302 2.79314 -3.288e-17)
(4.2645 2.67944 -1.36998e-17)
(4.15069 2.64453 7.94593e-18)
(4.08969 2.47182 0)
(3.86326 2.38804 2.37923e-17)
(2.53962 1.45549 -2.37696e-17)
(6.30491 3.62216 1.17766e-17)
(7.89997 5.33872 -1.42435e-17)
(7.97833 5.026 0)
(7.6114 5.14122 -3.83637e-19)
(7.42367 4.88752 -2.99588e-18)
(7.10011 4.76742 0)
(6.75368 4.6081 -8.12672e-20)
(6.38375 4.41981 1.00326e-18)
(5.99517 4.20361 -2.34121e-18)
(5.56408 3.96103 1.25078e-18)
(5.14389 3.70186 0)
(4.79961 3.45584 1.17381e-17)
(4.53841 3.24439 3.20605e-20)
(4.33206 3.06598 4.99184e-18)
(4.16468 2.91495 6.07393e-18)
(4.07309 2.7409 0)
(3.9837 2.67004 -1.35081e-17)
(3.97497 2.51933 2.64797e-17)
(3.75741 2.49017 -2.89539e-17)
(2.44061 1.48261 5.13462e-17)
(6.2268 3.81611 0)
(7.77317 5.61683 0)
(7.87212 5.2364 -7.16357e-18)
(7.50802 5.35771 0)
(7.32746 5.08557 0)
(6.99996 4.96454 5.96514e-18)
(6.65701 4.79496 -1.40461e-19)
(6.29306 4.59733 5.75948e-19)
(5.90569 4.37236 -3.65533e-19)
(5.47084 4.1241 0)
(5.04789 3.86027 -2.52974e-18)
(4.69614 3.61029 -9.70324e-18)
(4.42778 3.39295 -1.20966e-17)
(4.23096 3.20121 -4.99291e-18)
(4.09785 3.04245 6.61585e-18)
(3.99213 2.92197 -1.55858e-17)
(3.88417 2.84685 2.88987e-17)
(3.85216 2.66415 5.38358e-19)
(3.59923 2.52248 -2.76407e-17)
(2.32743 1.49979 -3.50411e-18)
(6.11059 3.9191 0)
(7.68178 5.7697 -1.02962e-17)
(7.78098 5.44168 8.21855e-18)
(7.40709 5.55791 0)
(7.23101 5.2691 0)
(6.90159 5.14695 -1.30682e-17)
(6.56325 4.96816 0)
(6.2051 4.76192 0)
(5.81781 4.52941 -4.95442e-18)
(5.38171 4.27692 2.16497e-18)
(4.95605 4.00999 -2.08972e-17)
(4.59456 3.75715 0)
(4.31135 3.5339 -1.28891e-17)
(4.08864 3.33826 4.45036e-19)
(3.90545 3.16266 -2.07044e-17)
(3.78884 2.95399 8.44566e-18)
(3.69262 2.84799 2.18752e-19)
(3.67878 2.65597 -3.14289e-17)
(3.46586 2.59592 1.49813e-17)
(2.19991 1.49132 3.73204e-18)
(6.02423 4.06871 0)
(7.56586 5.99259 -1.2008e-17)
(7.66656 5.61254 8.40555e-18)
(7.29881 5.73985 1.62272e-17)
(7.13422 5.43704 2.99492e-18)
(6.80408 5.31437 -1.65209e-18)
(6.47188 5.12774 1.09145e-18)
(6.11931 4.91408 9.5926e-19)
(5.73263 4.67566 5.30824e-18)
(5.29705 4.42009 1.48394e-17)
(4.86971 4.15146 1.73707e-17)
(4.50252 3.90026 3.21748e-18)
(4.2121 3.67753 1.87505e-17)
(3.98533 3.4722 1.19463e-17)
(3.82272 3.28596 1.49345e-17)
(3.70969 3.13616 -9.20341e-18)
(3.58355 3.01922 -1.12886e-17)
(3.54934 2.79845 1.35614e-17)
(3.28089 2.58771 -8.32082e-18)
(2.05639 1.46651 1.23291e-17)
(5.92834 4.1908 1.77817e-17)
(7.46171 6.1349 1.9023e-17)
(7.57078 5.78227 4.37156e-18)
(7.19901 5.90515 2.73387e-19)
(7.04301 5.592 -1.07614e-17)
(6.71153 5.46912 3.84173e-18)
(6.38486 5.27552 -1.22889e-18)
(6.03691 5.05508 -3.53238e-19)
(5.65102 4.81169 -6.09427e-18)
(5.21728 4.55354 -1.63678e-17)
(4.78823 4.28431 1.11746e-18)
(4.41186 4.03536 0)
(4.1038 3.8136 0)
(3.85067 3.60826 -6.11891e-18)
(3.63966 3.41797 -2.38234e-17)
(3.47419 3.20382 1.97396e-17)
(3.35539 3.02826 1.21157e-17)
(3.34007 2.7854 0)
(3.10989 2.64278 2.67088e-17)
(1.90395 1.41769 -1.39831e-17)
(5.84236 4.28937 -9.06073e-18)
(7.37082 6.32418 7.60322e-18)
(7.48203 5.9489 -1.00382e-17)
(7.1134 6.06755 -1.02177e-17)
(6.95481 5.73685 -4.21063e-18)
(6.62219 5.6125 1.12016e-18)
(6.30082 5.41183 0)
(5.95756 5.18547 -1.14673e-18)
(5.5734 4.93822 6.10212e-19)
(5.14198 4.67801 0)
(4.71192 4.40946 0)
(4.33045 4.16581 2.15411e-18)
(4.01614 3.9511 3.13537e-18)
(3.75601 3.75129 -6.47507e-18)
(3.54834 3.55466 1.71912e-17)
(3.40072 3.37564 -2.12087e-17)
(3.24474 3.23125 -2.62402e-17)
(3.16458 2.94614 2.41762e-17)
(2.84712 2.59526 -9.83595e-18)
(1.69319 1.36988 5.45539e-18)
(5.76379 4.40635 1.05033e-17)
(7.2846 6.46858 0)
(7.38802 6.09413 0)
(7.01678 6.21728 -3.26056e-18)
(6.8698 5.87484 2.63015e-18)
(6.53836 5.74644 -3.18528e-19)
(6.22129 5.53873 -3.80434e-18)
(5.88251 5.30665 1.93078e-19)
(5.49971 5.05581 1.04993e-17)
(5.07132 4.79352 -1.29558e-18)
(4.64157 4.52659 2.85523e-18)
(4.2552 4.2889 -1.81831e-17)
(3.92729 4.08187 -1.89126e-17)
(3.64077 3.8864 -3.38637e-18)
(3.38712 3.69782 0)
(3.15315 3.49666 -3.56807e-19)
(2.96237 3.27976 1.35448e-17)
(2.89247 2.95834 -2.64712e-17)
(2.60209 2.65036 2.00965e-17)
(1.43054 1.19675 1.77767e-17)
(5.67837 4.49478 -2.26037e-17)
(7.158 6.57724 -8.90349e-18)
(7.28603 6.21624 2.1265e-19)
(6.92202 6.34158 4.32552e-18)
(6.78772 6.00098 0)
(6.45453 5.87172 1.03396e-17)
(6.14298 5.65808 4.45043e-18)
(5.80863 5.4212 -6.21028e-19)
(5.42765 5.16786 -5.26498e-18)
(5.00263 4.90439 -1.2524e-18)
(4.57357 4.64044 1.15883e-18)
(4.18247 4.41071 1.58995e-17)
(3.84404 4.21332 1.83665e-17)
(3.54908 4.03372 3.22284e-18)
(3.29691 3.85587 1.70883e-17)
(3.09784 3.67655 0)
(2.88226 3.52603 0)
(2.67095 3.20913 1.72069e-17)
(2.0404 2.58869 2.01437e-19)
(0.817146 1.55125 -1.72019e-17)
(5.6098 4.59373 1.21793e-17)
(7.07107 6.73548 2.6417e-17)
(7.20479 6.34514 -3.82843e-17)
(6.84136 6.46759 2.16404e-17)
(6.71101 6.11883 -2.25151e-18)
(6.37386 5.99121 1.33163e-17)
(6.06735 5.77271 0)
(5.73652 5.5321 4.00339e-19)
(5.35678 5.27722 0)
(4.93542 5.01322 1.59117e-17)
(4.50758 4.75361 -1.58454e-18)
(4.11491 4.53509 1.77167e-18)
(3.77068 4.35478 2.06212e-17)
(3.45406 4.18859 -7.08967e-18)
(3.15137 4.02537 -9.03629e-18)
(2.84906 3.86684 0)
(2.54327 3.67878 0)
(2.24702 3.31551 0)
(1.48409 2.54423 -9.44806e-18)
(0.988189 2.14563 -5.65213e-18)
(5.56082 4.68564 0)
(7.04737 6.86485 0)
(7.16722 6.50145 1.36964e-17)
(6.78127 6.61245 -1.78887e-17)
(6.63168 6.23467 1.13679e-17)
(6.29482 6.10521 -1.2074e-17)
(5.99264 5.88132 -3.95505e-19)
(5.66539 5.63809 3.0627e-19)
(5.28773 5.38279 9.17799e-19)
(4.87058 5.11928 -1.82149e-17)
(4.44526 4.86506 2.70895e-18)
(4.0524 4.65928 1.56449e-17)
(3.69584 4.49302 -2.04661e-17)
(3.36614 4.35032 -2.31112e-17)
(3.06808 4.21736 8.03918e-18)
(2.80434 4.08201 0)
(2.52928 3.9283 1.27204e-17)
(2.12686 3.4717 1.56661e-17)
(1.41599 2.81944 -1.75854e-17)
(0.959926 2.93597 2.26703e-17)
(5.48996 4.75594 0)
(6.93934 6.9812 2.08585e-17)
(7.04834 6.59193 -3.35075e-18)
(6.67457 6.71756 2.19077e-17)
(6.55272 6.34724 -1.19459e-17)
(6.21844 6.21309 0)
(5.92084 5.98547 0)
(5.59717 5.7402 0)
(5.22118 5.48518 3.47777e-18)
(4.80836 5.22233 6.78691e-19)
(4.38674 4.97412 0)
(3.99521 4.78231 -1.54563e-17)
(3.64078 4.64032 0)
(3.30543 4.52278 1.64762e-17)
(2.97429 4.4142 -1.13205e-17)
(2.64087 4.30448 -9.23202e-18)
(2.2853 4.09862 -2.42709e-17)
(1.79922 3.59483 -1.3501e-17)
(1.25204 3.29324 -2.35906e-17)
(1.03527 3.46122 1.72822e-17)
(5.39048 4.82123 -7.46479e-18)
(6.80526 7.01888 4.27129e-19)
(6.92999 6.64425 -3.50098e-18)
(6.57802 6.78269 -1.69893e-17)
(6.48412 6.43986 0)
(6.1396 6.31223 0)
(5.85122 6.0845 0)
(5.53006 5.83816 8.65535e-20)
(5.15663 5.58437 -4.52137e-18)
(4.74907 5.32325 0)
(4.33182 5.08102 0)
(3.94511 4.90347 0)
(3.58885 4.78276 0)
(3.24665 4.69472 1.21175e-17)
(2.92964 4.62172 3.10271e-17)
(2.6402 4.51958 9.87492e-18)
(2.33024 4.28592 2.34307e-17)
(1.83287 3.82638 -1.8955e-17)
(1.37926 3.81661 7.83733e-18)
(1.203 3.93309 0)
(5.3607 4.91585 7.17025e-18)
(6.75322 7.1849 -4.11688e-17)
(6.92282 6.81808 -1.05668e-17)
(6.5501 6.92056 -2.72386e-18)
(6.41684 6.53757 2.66799e-18)
(6.06839 6.41283 -1.73694e-17)
(5.78468 6.18117 1.08542e-18)
(5.46516 5.93474 2.71488e-18)
(5.09416 5.68219 0)
(4.69199 5.4228 -1.14447e-18)
(4.28015 5.18591 1.04188e-18)
(3.90096 5.02187 0)
(3.55672 4.92712 0)
(3.2273 4.86813 -1.51666e-17)
(2.90926 4.82407 2.62911e-18)
(2.59071 4.74283 -9.21472e-18)
(2.16036 4.49864 2.06598e-17)
(1.57014 4.12142 1.77813e-17)
(1.16461 4.20097 -3.26889e-17)
(1.05181 4.244 1.68644e-17)
(5.33088 4.9887 1.33363e-17)
(6.7406 7.30375 3.81023e-17)
(6.86509 6.93571 1.26995e-17)
(6.46157 7.05301 0)
(6.33433 6.65006 0)
(5.99463 6.51864 1.308e-17)
(5.71369 6.27912 -6.36633e-18)
(5.39796 6.03206 -2.62261e-18)
(5.03046 5.78037 1.51877e-20)
(4.63498 5.52244 1.30198e-17)
(4.23088 5.2907 -1.87129e-17)
(3.8625 5.13808 0)
(3.52712 5.06452 0)
(3.20781 5.03929 -1.07076e-17)
(2.90634 5.02622 -1.40946e-17)
(2.58969 4.95066 0)
(2.20512 4.64146 -2.9308e-17)
(1.74616 4.39965 -5.33187e-18)
(1.43035 4.69093 3.37091e-17)
(1.21795 4.7387 -1.62467e-17)
(5.22085 5.0438 -2.51545e-17)
(6.58464 7.35347 -1.7997e-17)
(6.70668 6.97321 0)
(6.33506 7.11086 0)
(6.25575 6.74805 0)
(5.91078 6.62024 0)
(5.63979 6.37941 6.67596e-18)
(5.32791 6.13068 -3.89948e-18)
(4.96479 5.87949 0)
(4.57673 5.62194 -1.1745e-17)
(4.1826 5.39432 3.37987e-17)
(3.82887 5.25088 1.44059e-18)
(3.51718 5.19718 2.16388e-18)
(3.22324 5.20059 1.81148e-17)
(2.92869 5.20489 -1.20753e-17)
(2.61714 5.11388 0)
(2.13003 4.88853 9.45427e-18)
(1.63885 4.87853 7.48095e-19)
(1.15172 5.12587 -5.19516e-18)
(0.767664 5.20271 1.00947e-17)
(5.1355 5.1272 1.18784e-17)
(6.46641 7.47158 -1.73884e-17)
(6.63348 7.10026 0)
(6.26458 7.22307 -3.85395e-18)
(6.17658 6.84459 1.42837e-17)
(5.81966 6.72282 0)
(5.56117 6.47937 0)
(5.25192 6.22939 7.15392e-18)
(4.89497 5.97793 -5.70263e-19)
(4.51631 5.72031 1.14872e-17)
(4.1349 5.49586 -1.60857e-17)
(3.79992 5.36031 1.03776e-17)
(3.50502 5.31873 0)
(3.2271 5.34408 -9.89001e-18)
(2.9565 5.37735 6.18432e-18)
(2.62803 5.30814 6.77941e-18)
(2.24739 5.09933 0)
(1.78569 5.1794 4.70253e-18)
(1.32411 5.81533 7.83792e-18)
(1.22569 6.03606 2.3469e-18)
(5.08995 5.22786 -2.2324e-17)
(6.41775 7.62448 2.52389e-17)
(6.57239 7.25668 1.77046e-17)
(6.17873 7.37609 -4.54929e-18)
(6.08024 6.96402 -2.15344e-17)
(5.72876 6.83596 0)
(5.4777 6.58111 5.88272e-18)
(5.17246 6.32909 -3.09718e-18)
(4.8219 6.07552 -1.06312e-19)
(4.45405 5.81722 -9.98808e-18)
(4.08719 5.59419 -8.00024e-19)
(3.77322 5.46373 -1.16411e-17)
(3.50778 5.43138 1.42115e-17)
(3.26567 5.47619 4.49442e-18)
(3.0138 5.5208 -1.04697e-17)
(2.74249 5.42705 1.18247e-17)
(2.35381 5.2675 0)
(1.96973 5.78047 0)
(1.76998 6.57028 1.04252e-18)
(0.431102 6.63769 -4.66921e-18)
(4.98932 5.30279 1.07586e-17)
(6.29497 7.73082 2.32742e-17)
(6.42927 7.34607 -1.75893e-17)
(6.04384 7.4704 1.56975e-17)
(5.97611 7.07276 2.0893e-17)
(5.6241 6.94554 0)
(5.38604 6.68247 -6.23516e-18)
(5.08682 6.42747 -4.37484e-18)
(4.74461 6.17072 0)
(4.38963 5.91026 0)
(4.03998 5.68757 0)
(3.74929 5.55939 0)
(3.50834 5.52999 -1.61878e-17)
(3.29375 5.57712 -6.11251e-18)
(3.09023 5.642 0)
(2.82592 5.58928 -5.57367e-18)
(2.62201 5.56399 0)
(2.6252 5.91082 -2.41291e-18)
(2.6781 5.99808 -4.81387e-20)
(1.43427 6.06273 1.89039e-18)
(4.86985 5.37978 -2.04295e-17)
(6.14156 7.83647 -1.47955e-17)
(6.29557 7.45637 -1.08961e-17)
(5.92539 7.57582 -1.46429e-17)
(5.87202 7.17754 -9.79422e-18)
(5.5122 7.05343 0)
(5.29094 6.78441 -1.13513e-18)
(4.99589 6.52603 5.60515e-19)
(4.66311 6.26519 -9.42082e-19)