/*--------------------------------*- C++ -*----------------------------------*\
| =========                 |                                                 |
| \\      /  F ield         | OpenFOAM: The Open Source CFD Toolbox           |
|  \\    /   O peration     | Version:  2412                                  |
|   \\  /    A nd           | Website:  www.openfoam.com                      |
|    \\/     M anipulation  |                                                 |
\*---------------------------------------------------------------------------*/
FoamFile
{
    version     2.0;
    format      ascii;
    arch        "LSB;label=32;scalar=64";
    class       volScalarField;
    location    "0.28";
    object      epsilon;
}
// * * * * * * * * * * * * * * * * * * * * * * * * * * * * * * * * * * * * * //

dimensions      [0 2 -3 0 0 0 0];

internalField   nonuniform List<scalar> 
12225
(
448.248
622.894
830.557
1004.83
1150.4
1270.22
1368.62
1449.63
1516.36
1571.37
1616.74
1654.12
1684.8
1709.78
1729.83
1745.35
1756.67
1766.59
173.744
302.084
403.102
480.178
539.345
585.698
622.138
650.861
673.574
691.54
705.724
716.876
725.587
732.324
737.49
741.334
744.653
744.494
119.435
232.402
315.512
376.255
421.162
455.029
480.631
499.96
514.534
525.462
533.57
539.484
543.694
546.587
548.492
549.675
550.567
550.235
97.6414
199.979
277.776
334.832
376.772
407.859
430.863
447.789
460.145
469.044
475.313
479.576
482.315
483.911
484.684
484.909
484.923
484.522
83.6526
176.289
251.577
308.548
351.099
382.721
406.064
423.141
435.483
444.243
450.286
454.272
456.709
458.001
458.479
458.435
458.17
457.713
71.9917
153.972
226.31
283.823
328.194
361.835
387.034
405.699
419.345
429.147
436.01
440.636
443.572
445.252
446.032
446.22
446.096
445.752
61.3441
131.281
198.624
255.576
301.538
337.583
365.348
386.457
402.304
414.029
422.546
428.582
432.716
435.413
437.053
437.956
438.39
438.455
51.6696
108.73
168.486
222.629
268.751
306.556
336.797
360.608
379.12
393.343
404.136
412.209
418.15
422.439
425.47
427.574
429.004
429.85
43.2224
87.6449
137.685
186.323
230.295
268.238
299.979
326.013
347.069
363.911
377.255
387.739
395.91
402.232
407.098
410.831
413.67
415.684
36.1697
69.2408
108.63
149.499
188.75
224.538
255.993
282.973
305.731
324.696
340.357
353.204
363.691
372.225
379.16
384.792
389.341
392.833
30.4983
54.138
83.3273
115.312
147.811
179.109
208.06
234.087
257.019
276.935
294.053
308.662
321.07
331.58
340.473
347.992
354.312
359.41
26.3765
43.197
64.2821
88.2375
113.644
139.251
164.035
187.297
208.643
227.91
245.089
260.277
273.623
285.308
295.518
304.42
312.132
318.557
23.1424
34.7463
49.3126
66.2676
84.8735
104.383
124.075
143.344
161.749
179.007
194.964
209.563
222.816
234.782
245.544
255.191
263.77
271.124
20.3782
27.6942
36.7517
47.4267
59.4445
72.4821
86.1713
100.139
114.056
127.659
140.749
153.193
164.907
175.852
186.019
195.412
204.013
211.617
18.1499
22.2405
27.1487
32.9136
39.4891
46.7951
54.716
63.1048
71.8041
80.6631
89.5466
98.339
106.946
115.295
123.332
131.012
138.28
144.932
16.4706
18.3567
20.5272
23.0282
25.8741
29.0686
32.6036
36.4546
40.5837
44.945
49.4893
54.1661
58.9266
63.7248
68.5189
73.2691
77.927
82.3597
15.3282
15.873
16.4958
17.2132
18.0328
18.9609
20.0036
21.1643
22.4422
23.834
25.3333
26.9317
28.6187
30.3805
32.2032
34.0727
35.9716
37.8575
14.7508
14.6757
14.6369
14.6352
14.6697
14.7396
14.8449
14.986
15.163
15.3758
15.6241
15.9075
16.2249
16.5767
16.9621
17.3791
17.8249
18.2954
14.8977
14.9733
15.0873
15.2435
15.4418
15.6822
15.9649
16.2899
16.6563
17.0625
17.5063
17.9853
18.4962
19.0359
19.6007
20.187
20.7902
21.3965
15.9708
17.2606
18.7266
20.3956
22.2739
24.3609
26.6497
29.1247
31.7619
34.5326
37.4059
40.3501
43.3345
46.3304
49.312
52.2561
55.1382
57.8981
18.0496
21.997
26.6903
32.1486
38.3093
45.0765
52.3263
59.9127
67.6846
75.5018
83.2425
90.8057
98.1123
105.103
111.739
117.992
123.845
129.252
21.5632
30.653
41.9215
55.0381
69.4978
84.7822
100.381
115.834
130.777
144.949
158.186
170.395
181.543
191.639
200.723
208.849
216.079
222.457
27.2186
45.3008
67.7872
92.9388
119.107
145.002
169.646
192.394
212.923
231.138
247.087
260.907
272.781
282.908
291.489
298.715
304.761
309.786
35.7146
67.677
105.679
144.952
182.518
216.745
246.821
272.575
294.23
312.19
326.913
338.857
348.445
356.054
362.012
366.597
370.05
372.595
47.408
97.6117
152.03
202.691
246.855
283.889
314.074
338.201
357.206
371.976
383.289
391.804
398.067
402.526
405.541
407.406
408.365
408.652
61.8882
131.752
198.706
254.807
299.835
335.071
362.112
382.56
397.801
408.962
416.939
422.438
426.011
428.09
429.011
429.039
428.39
427.276
78.4671
165.762
239.653
296.704
339.787
371.976
395.787
413.193
425.728
434.562
440.58
444.45
446.681
447.661
447.688
446.993
445.758
444.17
99.5998
200.965
279.478
337.821
380.456
411.806
434.888
451.764
463.979
472.689
478.744
482.772
485.249
486.538
486.915
486.595
485.746
484.537
144.792
258.314
348.613
417.597
468.464
506.746
535.87
558.047
574.949
587.822
597.579
604.903
610.317
614.228
616.952
618.738
619.78
620.278
366.941
498.482
666.582
808.025
923.442
1016.68
1091.7
1152.36
1201.64
1241.81
1274.65
1301.59
1323.75
1342.03
1357.12
1369.6
1379.91
1388.47
0.827919
0.795991
1.17436
1.50962
1.79066
2.03182
2.29162
2.59274
2.92327
3.28586
3.68855
4.14945
4.72797
5.47822
6.35046
7.34209
8.45768
9.7068
11.0997
12.6453
14.3502
16.2185
18.2523
20.4521
22.8173
25.3476
28.0435
30.9077
33.9466
37.1715
40.6016
44.2249
48.0037
51.9305
56.0004
60.2087
64.5515
69.0247
73.6247
78.3483
83.1921
88.1532
93.2286
98.4153
103.71
109.11
114.612
120.213
125.908
131.695
137.568
143.523
149.557
155.663
161.836
168.072
174.363
180.705
187.09
193.513
199.966
206.443
212.936
219.438
225.943
232.441
238.927
245.393
251.831
258.236
264.603
270.931
277.221
283.485
289.751
295.974
302.095
308.116
314.034
319.845
325.543
331.121
336.573
341.89
347.067
352.097
356.973
361.689
366.24
370.619
374.821
378.842
382.676
386.319
389.765
393.013
396.057
398.894
401.521
403.935
406.134
408.115
409.876
411.415
412.732
413.824
414.691
415.332
415.748
415.937
415.901
415.64
415.154
414.445
413.515
412.366
410.998
409.416
407.622
405.619
403.41
400.999
398.39
395.588
392.597
389.423
386.07
382.545
378.853
375
370.992
366.837
362.541
358.11
353.554
348.877
344.09
339.2
334.209
329.141
323.985
318.777
313.562
308.598
305.334
302.662
299.965
297.2
294.367
291.471
288.515
285.504
282.445
279.342
276.2
273.024
269.82
266.593
263.347
260.089
256.821
253.55
250.279
247.013
243.756
240.51
237.278
234.063
230.866
227.685
224.517
221.356
218.189
214.996
211.738
208.342
204.647
200.251
194.469
186.606
2.59987
1.44524
1.29217
1.34859
1.49837
1.72253
2.0155
2.37936
2.80356
3.29246
3.85044
4.48279
5.19584
5.99138
6.86269
7.80427
8.81152
9.8803
11.0065
12.1858
13.4143
14.6884
16.0053
17.3629
18.7604
20.1978
21.6757
23.1957
24.7594
26.3682
28.0226
29.7207
31.4599
33.2395
35.0595
36.9196
38.8197
40.7594
42.7383
44.7559
46.8117
48.9049
51.0348
53.2005
55.4009
57.6351
59.9019
62.2
64.5281
66.8848
69.2684
71.6775
74.1102
76.5649
79.0397
81.5326
84.0416
86.5646
89.0996
91.6442
94.1963
96.7534
99.3134
101.874
104.432
106.986
109.533
112.072
114.6
117.115
119.619
122.111
124.594
127.074
129.568
132.068
134.538
136.973
139.37
141.728
144.042
146.311
148.532
150.703
152.821
154.882
156.886
158.83
160.71
162.526
164.275
165.955
167.563
169.099
170.561
171.946
173.253
174.481
175.629
176.695
177.677
178.576
179.39
180.118
180.759
181.314
181.78
182.158
182.447
182.648
182.76
182.783
182.716
182.562
182.319
181.988
181.57
181.065
180.474
179.799
179.04
178.198
177.275
176.272
175.191
174.033
172.8
171.494
170.117
168.671
167.159
165.582
163.943
162.245
160.49
158.68
156.819
154.91
152.951
150.956
148.909
146.841
144.78
142.79
141.09
139.525
137.975
136.411
134.826
133.221
131.596
129.954
128.297
126.626
124.944
123.252
121.554
119.852
118.146
116.44
114.736
113.035
111.339
109.651
107.971
106.301
104.643
102.998
101.367
99.7505
98.149
96.5622
94.9891
93.4282
91.8762
90.3298
88.7804
87.2395
85.899
85.9383
4.70425
2.28964
1.93522
1.95856
2.13373
2.39546
2.73467
3.15118
3.64344
4.20892
4.84344
5.54165
6.29756
7.10443
7.95516
8.84362
9.76508
10.7161
11.6945
12.6989
13.7288
14.7845
15.8668
16.9768
18.1158
19.2853
20.4864
21.7201
22.9869
24.287
25.6199
26.9849
28.3811
29.8079
31.2648
32.7512
34.2666
35.8102
37.3816
38.98
40.605
42.2557
43.9317
45.6323
47.3567
49.1043
50.8742
52.6658
54.478
56.3102
58.1611
60.03
61.9156
63.8169
65.7326
67.6616
69.6024
71.5538
73.5142
75.4824
77.4568
79.4358
81.418
83.4019
85.3859
87.3687
89.349
91.3256
93.2977
95.2648
97.2267
99.1839
101.137
103.088
105.037
106.972
108.885
110.772
112.63
114.457
116.251
118.01
119.731
121.413
123.053
124.65
126.202
127.706
129.162
130.567
131.919
133.218
134.462
135.648
136.777
137.846
138.855
139.802
140.686
141.506
142.262
142.952
143.577
144.134
144.625
145.047
145.401
145.687
145.904
146.052
146.13
146.14
146.081
145.953
145.757
145.492
145.16
144.76
144.294
143.762
143.165
142.504
141.78
140.994
140.147
139.24
138.275
137.254
136.177
135.046
133.863
132.631
131.349
130.021
128.649
127.233
125.777
124.283
122.745
121.186
119.598
117.993
116.385
114.805
113.312
111.872
110.444
109.012
107.571
106.118
104.656
103.183
101.703
100.217
98.7258
97.2317
95.7363
94.2412
92.748
91.2582
89.7734
88.2952
86.8248
85.3637
83.9132
82.4744
81.0487
79.6371
78.2405
76.8599
75.4963
74.1504
72.8234
71.5166
70.2328
68.9783
67.7658
66.6392
65.721
65.5999
6.89432
3.24403
2.72583
2.71658
2.88062
3.15335
3.51471
3.95654
4.47291
5.05714
5.70122
6.39638
7.13409
7.90676
8.70833
9.53456
10.383
11.2528
12.1441
13.0579
13.9956
14.9589
15.9494
16.9685
18.0174
19.0971
20.2079
21.3501
22.5236
23.7278
24.9623
26.2261
27.5188
28.8396
30.188
31.5634
32.9652
34.393
35.8463
37.3246
38.8276
40.3548
41.9058
43.4801
45.0772
46.6968
48.3382
50.0009
51.6843
53.3875
55.11
56.8509
58.6093
60.3843
62.1748
63.9797
65.7979
67.6283
69.4694
71.3201
73.1789
75.0444
76.9154
78.7902
80.6676
82.5463
84.4249
86.3023
88.1774
90.0492
91.9171
93.7803
95.6381
97.4895
99.3297
101.152
102.953
104.729
106.478
108.197
109.883
111.536
113.152
114.731
116.269
117.765
119.217
120.624
121.983
123.294
124.553
125.761
126.916
128.015
129.059
130.045
130.973
131.842
132.651
133.398
134.084
134.707
135.266
135.762
136.194
136.561
136.863
137.1
137.272
137.378
137.419
137.395
137.305
137.15
136.931
136.648
136.301
135.891
135.418
134.884
134.289
133.634
132.92
132.148
131.32
130.436
129.498
128.508
127.466
126.375
125.235
124.05
122.819
121.545
120.231
118.876
117.485
116.063
114.61
113.132
111.63
110.111
108.585
107.069
105.583
104.12
102.664
101.207
99.7446
98.2755
96.8001
95.3195
93.8348
92.3477
90.8595
89.3718
87.886
86.4038
84.9265
83.4555
81.9924
80.5383
79.0946
77.6626
76.2433
74.8381
73.4479
72.0738
70.717
69.3784
68.0593
66.7609
65.4852
64.2349
63.0148
61.8343
60.7111
59.689
58.8567
58.4834
8.8839
4.22754
3.53242
3.45319
3.5937
3.85961
4.21905
4.65742
5.16503
5.733
6.35238
7.01443
7.7114
8.4371
9.18726
9.95947
10.753
11.5683
12.4065
13.2694
14.1587
15.0761
16.0229
17.0003
18.009
19.0494
20.1218
21.2261
22.3618
23.5287
24.7262
25.9538
27.2109
28.4972
29.8122
31.1554
32.5266
33.9255
35.3517
36.805
38.2851
39.7918
41.3247
42.8836
44.4681
46.078
47.7126
49.3716
51.0545
52.7605
54.489
56.2392
58.0103
59.8013
61.6111
63.4387
65.2828
67.1422
69.0155
70.9013
72.7981
74.7044
76.6186
78.5392
80.4645
82.3931
84.3232
86.2534
88.1821
90.1079
92.0294
93.9449
95.853
97.7504
99.6321
101.494
103.332
105.144
106.928
108.679
110.397
112.079
113.723
115.327
116.889
118.406
119.876
121.299
122.672
123.993
125.261
126.475
127.632
128.732
129.773
130.755
131.675
132.534
133.33
134.062
134.73
135.333
135.87
136.341
136.746
137.084
137.356
137.56
137.697
137.766
137.769
137.705
137.575
137.378
137.115
136.787
136.395
135.938
135.419
134.837
134.193
133.49
132.727
131.906
131.028
130.095
129.108
128.069
126.979
125.839
124.651
123.419
122.143
120.821
119.465
118.072
116.645
115.187
113.7
112.188
110.654
109.102
107.541
105.978
104.425
102.881
101.341
99.7988
98.2535
96.7044
95.1518
93.5968
92.0408
90.4851
88.9313
87.3807
85.835
84.2956
82.7639
81.2413
79.7292
78.2288
76.7414
75.2683
73.8105
72.3693
70.9456
69.5408
68.1557
66.7917
65.4501
64.1327
62.8417
61.5807
60.3555
59.1767
58.0624
57.0509
56.2036
55.6465
10.6978
5.13576
4.24821
4.10133
4.20988
4.45555
4.79679
5.21417
5.6956
6.23148
6.8133
7.43353
8.08597
8.76605
9.47093
10.1994
10.9514
11.728
12.5304
13.3603
14.2192
15.1086
16.0295
16.9828
17.9691
18.9887
20.0418
21.1284
22.2483
23.4014
24.5873
25.8059
27.0569
28.3401
29.6552
31.0023
32.381
33.7913
35.2331
36.7063
38.2108
39.7463
41.3129
42.9103
44.5381
46.1962
47.8842
49.6015
51.3477
53.1221
54.924
56.7526
58.6068
60.4857
62.3881
64.3127
66.2581
68.2229
70.2055
72.2043
74.2175
76.2434
78.28
80.3255
82.3779
84.4352
86.4954
88.5566
90.6166
92.6735
94.7251
96.7694
98.8042
100.824
102.825
104.803
106.755
108.678
110.569
112.425
114.245
116.024
117.762
119.456
121.103
122.701
124.248
125.743
127.183
128.567
129.893
131.158
132.363
133.505
134.584
135.597
136.544
137.424
138.237
138.98
139.654
140.258
140.791
141.254
141.645
141.965
142.213
142.389
142.494
142.528
142.49
142.381
142.202
141.953
141.634
141.246
140.791
140.268
139.679
139.025
138.307
137.526
136.683
135.78
134.818
133.799
132.724
131.595
130.414
129.184
127.901
126.576
125.208
123.798
122.35
120.866
119.349
117.8
116.223
114.621
112.997
111.355
109.7
108.039
106.379
104.72
103.061
101.401
99.7387
98.0747
96.4096
94.7445
93.0809
91.4203
89.7642
88.1141
86.4715
84.838
83.215
81.604
80.0062
78.423
76.8556
75.3053
73.7733
72.2606
70.7684
69.2979
67.8503
66.4269
65.0293
63.6594
62.3199
61.0149
59.7506
58.5377
57.3935
56.3491
55.4463
54.7467
13.5727
6.11273
4.89896
4.64651
4.70551
4.91906
5.23238
5.62059
6.06943
6.569
7.11155
7.69082
8.30203
8.94185
9.60842
10.3011
11.0201
11.7665
12.5414
13.3464
14.1826
15.0513
15.9536
16.8902
17.8617
18.8686
19.9114
20.9901
22.105
23.2563
24.4439
25.668
26.9287
28.2261
29.5603
30.9313
32.3394
33.7845
35.2669
36.7865
38.3434
39.9377
41.5692
43.2379
44.9436
46.686
48.4648
50.2794
52.1293
54.0138
55.9321
57.8831
59.8659
61.8791
63.9215
65.9914
68.0873
70.2073
72.3497
74.5125
76.6935
78.8905
81.1014
83.3237
85.5551
87.793
90.0351
92.2787
94.5214
96.7603
98.993
101.217
103.428
105.621
107.791
109.934
112.048
114.129
116.174
118.18
120.144
122.063
123.936
125.758
127.529
129.245
130.904
132.504
134.043
135.519
136.93
138.275
139.552
140.76
141.897
142.962
143.955
144.873
145.716
146.484
147.176
147.79
148.328
148.788
149.17
149.475
149.701
149.85
149.921
149.915
149.832
149.672
149.436
149.125
148.739
148.28
147.747
147.143
146.468
145.724
144.912
144.033
143.088
142.08
141.01
139.881
138.692
137.445
136.147
134.798
133.398
131.952
130.462
128.93
127.359
125.751
124.109
122.436
120.734
119.007
117.258
115.49
113.708
111.916
110.121
108.322
106.523
104.722
102.92
101.118
99.3173
97.5186
95.7238
93.9346
92.1524
90.3791
88.6161
86.865
85.1274
83.4046
81.6981
80.0092
78.3391
76.6892
75.0606
73.4546
71.8722
70.3148
68.7836
67.2801
65.8059
64.3633
62.9552
61.5859
60.2619
58.9934
57.7958
56.694
55.7156
54.8922
16.3337
6.98303
5.43419
5.0678
5.07045
5.24666
5.52843
5.8855
6.30158
6.76643
7.27284
7.81553
8.39074
8.99602
9.63007
10.2925
10.9838
11.7048
12.4566
13.2404
14.0575
14.909
15.7961
16.7195
17.6803
18.679
19.7164
20.7931
21.9097
23.0666
24.2643
25.5033
26.7842
28.1073
29.4731
30.882
32.3344
33.8307
35.3711
36.9561
38.5857
40.2602
41.9795
43.7438
45.5528
47.4062
49.3038
51.245
53.2291
55.2553
57.3226
59.4298
61.5757
63.7588
65.9774
68.2296
70.5135
72.827
75.1678
77.5334
79.9213
82.3289
84.7535
87.1921
89.6419
92.0998
94.5629
97.0279
99.4919
101.951
104.404
106.845
109.269
111.671
114.046
116.39
118.699
120.971
123.202
125.388
127.526
129.614
131.648
133.626
135.544
137.401
139.193
140.919
142.577
144.163
145.677
147.117
148.481
149.767
150.975
152.103
153.149
154.114
154.995
155.793
156.506
157.135
157.678
158.137
158.51
158.797
159
159.117
159.149
159.097
158.961
158.742
158.441
158.057
157.594
157.05
156.428
155.729
154.953
154.103
153.181
152.188
151.124
149.991
148.795
147.536
146.216
144.836
143.401
141.912
140.372
138.783
137.149
135.471
133.753
131.997
130.207
128.385
126.534
124.657
122.757
120.839
118.905
116.961
115.01
113.054
111.097
109.138
107.18
105.223
103.269
101.32
99.3766
97.4418
95.5168
93.6035
91.7034
89.8183
87.9496
86.0989
84.2677
82.4572
80.6689
78.904
77.1637
75.4494
73.7622
72.1033
70.4743
68.8766
67.3121
65.7831
64.2928
62.8455
61.4477
60.1087
58.8421
57.6672
56.6018
55.6628
18.7704
7.70076
5.8399
5.36365
5.30974
5.4479
5.69814
6.02534
6.41123
6.84507
7.31991
7.83108
8.37545
8.95113
9.55719
10.1935
10.8605
11.559
12.2901
13.0551
13.8552
14.6916
15.5657
16.4786
17.4315
18.4255
19.4616
20.5409
21.6643
22.8329
24.0477
25.3094
26.6191
27.9776
29.3857
30.8441
32.3537
33.915
35.5287
37.1952
38.915
40.6884
42.5155
44.3963
46.3309
48.3188
50.3598
52.453
54.5979
56.7933
59.038
61.3307
63.6698
66.0533
68.4793
70.9456
73.4496
75.9889
78.5607
81.1619
83.7896
86.4405
89.1114
91.7988
94.4992
97.2091
99.9248
102.643
105.359
108.069
110.771
113.459
116.124
118.761
121.367
123.937
126.467
128.953
131.391
133.778
136.111
138.385
140.599
142.747
144.829
146.841
148.78
150.644
152.43
154.137
155.762
157.304
158.761
160.131
161.414
162.608
163.711
164.723
165.643
166.47
167.204
167.845
168.392
168.844
169.204
169.469
169.641
169.719
169.705
169.599
169.402
169.114
168.736
168.269
167.716
167.076
166.352
165.544
164.654
163.684
162.637
161.514
160.318
159.049
157.711
156.307
154.839
153.309
151.72
150.074
148.375
146.626
144.829
142.987
141.103
139.181
137.223
135.233
133.214
131.169
129.101
127.014
124.911
122.797
120.675
118.548
116.419
114.289
112.161
110.037
107.917
105.804
103.7
101.608
99.5275
97.4619
95.4126
93.3814
91.37
89.3797
87.4122
85.469
83.5512
81.6604
79.7977
77.9645
76.162
74.3915
72.6546
70.9529
69.2883
67.6633
66.081
64.546
63.0642
61.6442
60.2975
59.0391
57.8796
56.829
20.8025
8.25805
6.12178
5.54549
5.43825
5.53995
5.76034
6.06004
6.41899
6.8258
7.2735
7.7577
8.27566
8.82583
9.40754
10.0208
10.6662
11.3446
12.0572
12.8054
13.5905
14.4141
15.2778
16.183
17.1314
18.1245
19.1638
20.2509
21.3872
22.5744
23.8137
25.1067
26.4546
27.8589
29.3206
30.8412
32.4215
34.0626
35.7653
37.5304
39.3585
41.2499
43.2051
45.224
47.3066
49.4526
51.6613
53.932
56.2638
58.6552
61.105
63.6112
66.1718
68.7847
71.4473
74.1569
76.9105
79.705
82.5369
85.4028
88.2989
91.2215
94.1666
97.1302
100.108
103.096
106.09
109.086
112.079
115.065
118.04
120.994
123.92
126.812
129.667
132.479
135.245
137.959
140.618
143.219
145.756
148.227
150.629
152.957
155.208
157.381
159.47
161.476
163.394
165.222
166.96
168.604
170.154
171.607
172.962
174.218
175.375
176.431
177.384
178.235
178.984
179.629
180.172
180.612
180.948
181.183
181.315
181.345
181.274
181.103
180.833
180.465
179.999
179.437
178.781
178.032
177.193
176.264
175.248
174.146
172.962
171.697
170.354
168.934
167.442
165.878
164.248
162.552
160.794
158.977
157.104
155.179
153.204
151.184
149.12
147.016
144.877
142.704
140.502
138.274
136.023
133.754
131.468
129.172
126.867
124.558
122.247
119.936
117.629
115.327
113.032
110.747
108.473
106.213
103.969
101.742
99.535
97.3493
95.1866
93.0486
90.9369
88.8528
86.7979
84.7735
82.7809
80.8214
78.8964
77.0072
75.1555
73.3428
71.5712
69.8433
68.1623
66.5323
64.9593
63.4507
62.016
60.6668
59.4091
58.2493
22.3924
8.66054
6.29369
5.63057
5.47516
5.54312
5.7359
6.01061
6.34561
6.72885
7.15317
7.61426
8.10957
8.63775
9.19835
9.79158
10.4181
11.0791
11.7759
12.5101
13.2834
14.0976
14.9548
15.8569
16.806
17.8041
18.8534
19.9558
21.1135
22.3285
23.6028
24.9384
26.3371
27.8008
29.331
30.9295
32.5977
34.3367
36.1479
38.0321
39.9901
42.0224
44.1294
46.3111
48.5672
50.8974
53.301
55.7767
58.3234
60.9395
63.6229
66.3714
69.1826
72.0536
74.9814
77.9626
80.9936
84.0705
87.1893
90.3458
93.5355
96.754
99.9967
103.259
106.536
109.823
113.115
116.408
119.695
122.973
126.236
129.469
132.667
135.824
138.937
141.999
145.006
147.954
150.838
153.654
156.399
159.067
161.656
164.162
166.581
168.911
171.147
173.289
175.333
177.278
179.121
180.86
182.494
184.021
185.44
186.75
187.95
189.04
190.016
190.881
191.633
192.272
192.798
193.213
193.515
193.706
193.786
193.755
193.615
193.366
193.01
192.549
191.982
191.313
190.542
189.673
188.706
187.644
186.488
185.242
183.908
182.488
180.985
179.401
177.741
176.006
174.199
172.325
170.386
168.385
166.326
164.213
162.049
159.837
157.581
155.284
152.951
150.585
148.189
145.767
143.323
140.86
138.383
135.894
133.399
130.899
128.398
125.9
123.406
120.92
118.444
115.98
113.53
111.097
108.682
106.289
103.918
101.573
99.2534
96.9623
94.7011
92.4713
90.2742
88.1113
85.984
83.8936
81.8415
79.829
77.8579
75.9298
74.0468
72.2115
70.4269
68.6973
67.0279
65.4253
63.8974
62.4528
61.0944
59.8273
23.5275
8.91952
6.37204
5.63751
5.44034
5.47795
5.64558
5.89767
6.21133
6.57393
6.97811
7.41952
7.8957
8.40547
8.94856
9.52541
10.137
10.7846
11.4699
12.195
12.9619
13.773
14.6306
15.5374
16.496
17.5089
18.579
19.7089
20.9013
22.1588
23.4839
24.8793
26.3472
27.8901
29.51
31.2088
32.9885
34.8505
36.7962
38.8267
40.9428
43.1451
45.4338
47.8088
50.2697
52.8157
55.4458
58.1585
60.952
63.8241
66.7724
69.794
72.8857
76.0441
79.2654
82.5456
85.8802
89.2646
92.694
96.1631
99.6671
103.201
106.759
110.336
113.927
117.526
121.128
124.728
128.321
131.9
135.452
138.965
142.436
145.858
149.226
152.534
155.778
158.954
162.055
165.079
168.02
170.876
173.642
176.315
178.889
181.362
183.733
185.997
188.153
190.198
192.131
193.949
195.652
197.237
198.704
200.052
201.281
202.387
203.371
204.232
204.971
205.588
206.082
206.456
206.708
206.84
206.852
206.745
206.521
206.181
205.725
205.157
204.476
203.686
202.787
201.784
200.676
199.467
198.16
196.756
195.259
193.672
191.997
190.238
188.398
186.479
184.487
182.423
180.292
178.097
175.842
173.531
171.167
168.754
166.297
163.799
161.264
158.695
156.098
153.475
150.83
148.168
145.491
142.805
140.112
137.417
134.722
132.032
129.348
126.674
124.013
121.366
118.737
116.128
113.54
110.977
108.441
105.932
103.454
101.007
98.594
96.2159
93.8743
91.5707
89.3064
87.0828
84.9013
82.7634
80.6706
78.6248
76.628
74.6827
72.792
70.9599
69.191
67.4911
65.8666
64.324
62.8642
61.4919
24.2102
9.04814
6.37301
5.58397
5.35242
5.3637
5.50894
5.74088
6.03581
6.38071
6.76807
7.19353
7.65475
8.15071
8.68137
9.24745
9.85021
10.4914
11.1731
11.8979
12.6682
13.4871
14.3575
15.2827
16.2659
17.3105
18.4199
19.5973
20.8461
22.1695
23.5707
25.0527
26.6184
28.2706
30.0117
31.844
33.7696
35.7902
37.9072
40.1216
42.4342
44.8453
47.3549
49.9625
52.6673
55.468
58.363
61.3502
64.4271
67.5907
70.8379
74.165
77.5679
81.0426
84.5843
88.1882
91.8493
95.5622
99.3205
103.118
106.95
110.81
114.692
118.591
122.501
126.415
130.329
134.236
138.132
142.004
145.834
149.617
153.347
157.019
160.626
164.163
167.626
171.009
174.307
177.517
180.633
183.654
186.574
189.39
192.095
194.689
197.167
199.529
201.772
203.894
205.892
207.766
209.514
211.133
212.625
213.987
215.218
216.319
217.288
218.125
218.831
219.405
219.849
220.162
220.345
220.4
220.327
220.128
219.803
219.354
218.783
218.092
217.282
216.356
215.315
214.163
212.902
211.533
210.061
208.488
206.817
205.051
203.193
201.248
199.217
197.106
194.918
192.656
190.324
187.927
185.468
182.951
180.381
177.762
175.097
172.391
169.649
166.873
164.069
161.24
158.391
155.525
152.646
149.759
146.868
143.975
141.085
138.201
135.326
132.464
129.617
126.787
123.979
121.193
118.432
115.7
112.997
110.326
107.688
105.086
102.521
99.9951
97.5092
95.065
92.6638
90.3071
87.9963
85.7328
83.5183
81.3545
79.2435
77.1877
75.1901
73.2544
71.3847
69.5861
67.8637
66.2225
64.6619
63.1868
24.4506
9.05936
6.31122
5.48566
5.22807
5.21789
5.3443
5.55932
5.83893
6.17003
6.54515
6.96009
7.41267
7.90216
8.42887
8.9939
9.59894
10.2463
10.9385
11.6788
12.4703
13.3168
14.2219
15.1896
16.2238
17.3288
18.5086
19.7673
21.1088
22.5366
24.0544
25.6657
27.3739
29.1819
31.0924
33.1078
35.2301
37.4609
39.8014
42.2523
44.8139
47.4859
50.2679
53.1586
56.1564
59.2592
62.4645
65.7693
69.1701
72.6632
76.2442
79.9086
83.6513
87.4673
91.3511
95.2971
99.2998
103.354
107.45
111.581
115.742
119.927
124.129
128.342
132.56
136.778
140.989
145.187
149.366
153.499
157.58
161.603
165.561
169.449
173.262
176.993
180.638
184.192
187.651
191.009
194.262
197.408
200.442
203.361
206.16
208.836
211.388
213.812
216.108
218.272
220.302
222.199
223.959
225.582
227.067
228.414
229.621
230.688
231.615
232.401
233.048
233.556
233.924
234.154
234.247
234.203
234.024
233.712
233.267
232.691
231.987
231.156
230.201
229.123
227.926
226.611
225.182
223.642
221.993
220.238
218.382
216.427
214.377
212.236
210.008
207.696
205.304
202.837
200.299
197.694
195.026
192.3
189.519
186.689
183.814
180.898
177.946
174.962
171.95
168.914
165.86
162.79
159.709
156.622
153.532
150.443
147.359
144.284
141.221
138.172
135.142
132.132
129.147
126.187
123.257
120.357
117.491
114.66
111.866
109.112
106.398
103.727
101.099
98.5171
95.9816
93.4943
91.0564
88.6696
86.3352
84.0553
81.8316
79.6667
77.5633
75.5247
73.5548
71.6579
69.838
68.0991
66.4396
64.8649
24.2643
8.96475
6.19911
5.35613
5.08216
5.05686
5.1697
5.37297
5.643
5.96702
6.3379
6.75183
7.20709
7.70346
8.2418
8.82382
9.45171
10.1284
10.8574
11.6424
12.4876
13.3974
14.3764
15.4293
16.5609
17.7762
19.0799
20.4772
21.9726
23.5683
25.2688
27.0779
28.999
31.035
33.1884
35.461
37.8545
40.3697
43.0071
45.7666
48.6474
51.6484
54.7677
58.0033
61.3521
64.8111
68.3764
72.0438
75.8087
79.6661
83.6107
87.6369
91.7386
95.9097
100.144
104.435
108.776
113.16
117.58
122.028
126.498
130.984
135.48
139.978
144.473
148.959
153.431
157.884
162.286
166.629
170.909
175.117
179.25
183.3
187.262
191.132
194.904
198.573
202.136
205.587
208.924
212.142
215.238
218.208
221.049
223.759
226.335
228.775
231.076
233.237
235.256
237.132
238.864
240.451
241.891
243.185
244.332
245.332
246.183
246.888
247.445
247.856
248.121
248.241
248.218
248.051
247.743
247.296
246.71
245.988
245.132
244.144
243.026
241.781
240.412
238.921
237.311
235.586
233.749
231.804
229.753
227.601
225.351
223.008
220.575
218.057
215.458
212.782
210.034
207.218
204.339
201.402
198.41
195.369
192.284
189.159
185.998
182.807
179.589
176.35
173.093
169.823
166.544
163.261
159.977
156.697
153.424
150.163
146.916
143.687
140.48
137.296
134.139
131.012
127.918
124.857
121.834
118.849
115.905
113.004
110.146
107.335
104.571
101.856
99.1915
96.5782
94.0179
91.512
89.062
86.6697
84.337
82.0662
79.8598
77.7211
75.6533
73.6602
71.745
69.9108
68.1556
66.4855
23.6333
8.7661
6.04298
5.20354
4.92475
4.89318
5.00097
5.20193
5.47343
5.80363
6.18628
6.6184
7.09919
7.62937
8.21097
8.84716
9.53971
10.2928
11.1111
11.9994
12.9628
14.0066
15.1362
16.3572
17.6748
19.0944
20.6211
22.2596
24.0142
25.8886
27.886
30.0095
32.2616
34.6441
37.1584
39.805
42.5841
45.495
48.5366
51.7071
55.0041
58.4246
61.9654
65.6225
69.3916
73.2677
77.2459
81.3205
85.4857
89.7355
94.0634
98.4629
102.927
107.45
112.023
116.641
121.296
125.981
130.689
135.413
140.147
144.885
149.62
154.346
159.06
163.754
168.423
173.033
177.577
182.049
186.443
190.754
194.977
199.105
203.134
207.06
210.877
214.582
218.169
221.637
224.98
228.195
231.28
234.231
237.045
239.721
242.255
244.645
246.89
248.988
250.938
252.738
254.387
255.885
257.231
258.424
259.464
260.35
261.084
261.665
262.093
262.369
262.495
262.47
262.297
261.976
261.509
260.897
260.143
259.249
258.216
257.048
255.746
254.313
252.753
251.067
249.261
247.336
245.296
243.146
240.888
238.527
236.067
233.512
230.867
228.135
225.322
222.432
219.469
216.439
213.346
210.195
206.991
203.739
200.444
197.11
193.742
190.345
186.924
183.483
180.027
176.56
173.088
169.613
166.14
162.674
159.218
155.777
152.353
148.95
145.571
142.22
138.899
135.611
132.359
129.144
125.97
122.838
119.75
116.708
113.714
110.77
107.876
105.034
102.245
99.5118
96.8345
94.2147
91.654
89.154
86.7166
84.344
82.0385
79.803
77.6405
75.5542
73.5467
71.6206
69.7736
68.0124
22.731
8.56869
5.89495
5.06728
4.79472
4.77034
4.8894
5.10782
5.40478
5.77009
6.1991
6.69043
7.24485
7.86464
8.55319
9.31468
10.1536
11.0753
12.0852
13.1894
14.3936
15.7039
17.1258
18.6647
20.3258
22.1136
24.0321
26.0847
28.2741
30.6021
33.0702
35.6789
38.4281
41.3172
44.3447
47.5087
50.8065
54.235
57.7906
61.469
65.2658
69.1761
73.1946
77.3157
81.5337
85.8426
90.2361
94.7078
99.2514
103.86
108.527
113.246
118.01
122.812
127.646
132.505
137.382
142.271
147.166
152.061
156.949
161.827
166.689
171.531
176.349
181.128
185.838
190.475
195.032
199.505
203.889
208.18
212.371
216.46
220.441
224.31
228.063
231.696
235.206
238.59
241.843
244.963
247.948
250.794
253.498
256.06
258.475
260.744
262.863
264.831
266.648
268.311
269.82
271.175
272.374
273.416
274.303
275.033
275.607
276.026
276.288
276.396
276.351
276.152
275.801
275.301
274.651
273.854
272.913
271.829
270.603
269.24
267.742
266.111
264.35
262.463
260.452
258.323
256.077
253.72
251.255
248.686
246.017
243.254
240.399
237.459
234.438
231.34
228.171
224.935
221.637
218.283
214.877
211.425
207.931
204.4
200.838
197.249
193.638
190.01
186.37
182.721
179.069
175.418
171.772
168.135
164.512
160.906
157.32
153.758
150.224
146.721
143.251
139.817
136.422
133.067
129.757
126.491
123.273
120.105
116.986
113.921
110.909
107.952
105.051
102.208
99.4244
96.7008
94.0389
91.4404
88.907
86.4406
84.0436
81.7185
79.468
77.2949
75.2013
73.1894
71.257
69.4114
21.6457
8.32774
5.75561
4.9627
4.717
4.72358
4.88283
5.15422
5.52
5.97291
6.51125
7.13655
7.85241
8.66376
9.5764
10.5966
11.7307
12.9851
14.366
15.8791
17.5296
19.3217
21.2592
23.3446
25.5797
27.9654
30.5016
33.1874
36.0209
38.9997
42.1207
45.38
48.7736
52.2969
55.9449
59.7123
63.5938
67.5837
71.6763
75.8657
80.1461
84.5116
88.956
93.4736
98.0583
102.704
107.405
112.156
116.95
121.781
126.645
131.534
136.444
141.369
146.303
151.241
156.178
161.108
166.028
170.932
175.816
180.678
185.513
190.32
195.074
199.753
204.353
208.87
213.299
217.637
221.88
226.023
230.063
233.994
237.815
241.52
245.107
248.571
251.911
255.121
258.201
261.146
263.954
266.623
269.15
271.534
273.771
275.861
277.801