/*--------------------------------*- C++ -*----------------------------------*\
| =========                 |                                                 |
| \\      /  F ield         | OpenFOAM: The Open Source CFD Toolbox           |
|  \\    /   O peration     | Version:  2412                                  |
|   \\  /    A nd           | Website:  www.openfoam.com                      |
|    \\/     M anipulation  |                                                 |
\*---------------------------------------------------------------------------*/
FoamFile
{
    version     2.0;
    format      ascii;
    arch        "LSB;label=32;scalar=64";
    class       volScalarField;
    location    "0.28";
    object      k;
}
// * * * * * * * * * * * * * * * * * * * * * * * * * * * * * * * * * * * * * //

dimensions      [0 2 -2 0 0 0 0];

internalField   nonuniform List<scalar> 
12225
(
0.316793
0.394494
0.477907
0.542616
0.593833
0.63438
0.666734
0.69279
0.713892
0.731055
0.745059
0.756498
0.765823
0.773375
0.779411
0.784065
0.787451
0.790412
0.569139
0.788915
0.952584
1.068
1.1512
1.2127
1.25818
1.29171
1.31632
1.33413
1.34672
1.35527
1.36068
1.36365
1.36475
1.3643
1.36353
1.36145
0.670061
0.972155
1.18323
1.33202
1.43945
1.51861
1.57694
1.61969
1.65078
1.67303
1.68851
1.6988
1.70509
1.70832
1.70924
1.70845
1.70696
1.70494
0.722108
1.07674
1.32651
1.50447
1.63404
1.72972
1.80042
1.85244
1.89039
1.91767
1.93679
1.94967
1.95776
1.96221
1.96394
1.96375
1.96264
1.96117
0.74277
1.1292
1.41224
1.61818
1.77022
1.88337
1.96763
2.03016
2.07624
2.1098
2.13375
2.15033
2.16127
2.16791
2.17137
2.1726
2.17262
2.17208
0.739913
1.13776
1.44637
1.67819
1.85304
1.98504
2.08466
2.15963
2.21576
2.25741
2.28789
2.30975
2.32498
2.33515
2.34153
2.34521
2.34722
2.34819
0.719619
1.1088
1.43132
1.68401
1.88027
2.03176
2.14827
2.23764
2.30592
2.35778
2.39684
2.42592
2.44723
2.46257
2.47336
2.48081
2.48593
2.48929
0.68764
1.05045
1.37182
1.63646
1.84971
2.01922
2.1529
2.25789
2.34005
2.40409
2.45377
2.49209
2.52145
2.54379
2.56069
2.57344
2.58304
2.58997
0.648984
0.972373
1.27661
1.54078
1.76291
1.94589
2.09468
2.21483
2.31141
2.3888
2.45062
2.49988
2.53905
2.57016
2.59488
2.61453
2.63011
2.64196
0.607482
0.884082
1.15746
1.40738
1.62721
1.81569
1.97442
2.1067
2.21622
2.30653
2.38079
2.44178
2.49185
2.53299
2.56686
2.59478
2.61771
2.63582
0.565817
0.793314
1.02683
1.25028
1.45563
1.63912
1.79961
1.938
2.05627
2.15675
2.24183
2.31373
2.37448
2.42586
2.46939
2.5063
2.53744
2.56277
0.528744
0.712088
0.905171
1.09645
1.27866
1.44746
1.6004
1.73669
1.85679
1.96183
2.05324
2.13256
2.20132
2.26092
2.31263
2.35749
2.39618
2.42835
0.49465
0.637266
0.790574
0.946974
1.10074
1.248
1.38597
1.51298
1.6284
1.73232
1.82527
1.90805
1.98158
2.04682
2.10467
2.15592
2.20099
2.23924
0.460673
0.56214
0.673137
0.789666
0.907884
1.02492
1.13843
1.24664
1.34837
1.443
1.53034
1.61045
1.68363
1.75028
1.81086
1.86579
1.91519
1.95808
0.429343
0.492744
0.562792
0.638281
0.717337
0.798298
0.879665
0.960087
1.03846
1.11399
1.1861
1.25446
1.31889
1.37933
1.43582
1.48841
1.53695
1.58024
0.403167
0.435381
0.470972
0.510046
0.552179
0.596841
0.643456
0.69138
0.739969
0.788642
0.836904
0.884346
0.930643
0.97554
1.01884
1.06038
1.09987
1.13624
0.384082
0.394607
0.406479
0.419889
0.43484
0.451292
0.469183
0.488402
0.50879
0.530161
0.552323
0.575079
0.598236
0.621586
0.644946
0.668153
0.691003
0.712955
0.374047
0.373709
0.374088
0.375205
0.377035
0.379557
0.382759
0.386626
0.391136
0.39626
0.401962
0.408205
0.414944
0.422151
0.429787
0.437793
0.446103
0.454608
0.376607
0.378925
0.38199
0.385853
0.390486
0.395855
0.401925
0.40865
0.415972
0.423824
0.432137
0.44084
0.44986
0.459131
0.468587
0.478167
0.487796
0.497255
0.394948
0.417782
0.44296
0.470561
0.500304
0.531826
0.564739
0.598611
0.632993
0.667467
0.701668
0.735285
0.768065
0.79981
0.830372
0.859642
0.887496
0.913529
0.427772
0.489069
0.556235
0.628022
0.702591
0.778302
0.85372
0.927589
0.998898
1.06692
1.13118
1.19141
1.24749
1.29943
1.34733
1.39134
1.43162
1.4682
0.475742
0.594977
0.723616
0.855989
0.98721
1.11395
1.23384
1.34526
1.44738
1.54
1.62332
1.69781
1.76406
1.82277
1.87463
1.92034
1.96051
1.99565
0.536848
0.728699
0.928633
1.12374
1.30644
1.47306
1.62185
1.75259
1.86614
1.96397
2.04774
2.11914
2.17976
2.23107
2.27435
2.31077
2.34128
2.36673
0.604143
0.873972
1.14017
1.3824
1.59449
1.77607
1.92885
2.05587
2.16066
2.24663
2.31682
2.37385
2.41996
2.45701
2.48656
2.50991
2.52811
2.54212
0.668316
1.00767
1.31643
1.57533
1.78711
1.95803
2.09449
2.20267
2.28802
2.35499
2.40721
2.44758
2.47841
2.50158
2.51857
2.53059
2.53862
2.54351
0.717304
1.0992
1.41419
1.65889
1.84812
1.99399
2.10592
2.19145
2.2565
2.30558
2.34217
2.36896
2.38806
2.40109
2.40934
2.41381
2.41532
2.41459
0.735719
1.11862
1.40734
1.61983
1.77772
1.89573
1.98395
2.04966
2.09826
2.13376
2.15921
2.17688
2.18852
2.19548
2.19879
2.19926
2.19754
2.19421
0.7082
1.04716
1.29075
1.46557
1.59175
1.68427
1.75245
1.80244
1.83877
1.86478
1.88294
1.89507
1.90255
1.90645
1.90759
1.90658
1.90394
1.90013
0.616921
0.862574
1.0489
1.18265
1.27674
1.3449
1.39483
1.43126
1.45766
1.47655
1.48973
1.49854
1.50398
1.50683
1.50766
1.50696
1.50506
1.50238
0.33327
0.408788
0.496174
0.56409
0.616602
0.657436
0.689395
0.714702
0.734935
0.751222
0.764409
0.775143
0.783917
0.791115
0.797034
0.801915
0.805932
0.809263
0.00667812
0.010787
0.0139756
0.0165179
0.0185037
0.0201239
0.0217982
0.0236611
0.0256237
0.0276926
0.029902
0.0323337
0.0352622
0.0388879
0.0428997
0.0472416
0.0518965
0.0568695
0.0621671
0.0677894
0.0737284
0.0799694
0.086493
0.0932777
0.100303
0.10755
0.115006
0.122666
0.130533
0.138625
0.146973
0.155535
0.164212
0.172985
0.181841
0.190768
0.199758
0.208803
0.217895
0.227029
0.236199
0.245401
0.254629
0.263881
0.273152
0.282437
0.291732
0.301034
0.310338
0.319638
0.328931
0.338211
0.347472
0.35671
0.365917
0.375089
0.384219
0.3933
0.402327
0.411292
0.420189
0.429012
0.437753
0.446406
0.454964
0.463421
0.47177
0.480005
0.488121
0.496113
0.503978
0.511718
0.51934
0.52686
0.534313
0.541649
0.548798
0.555765
0.562553
0.56916
0.575581
0.581812
0.587849
0.593687
0.599322
0.604748
0.609963
0.614962
0.619742
0.624299
0.62863
0.632732
0.636603
0.64024
0.64364
0.646802
0.649725
0.652405
0.654843
0.657036
0.658984
0.660687
0.662142
0.663351
0.664312
0.665026
0.665493
0.665713
0.665687
0.665415
0.664898
0.664138
0.663135
0.661892
0.660409
0.65869
0.656735
0.654548
0.652131
0.649487
0.646618
0.64353
0.640224
0.636704
0.632976
0.629043
0.624909
0.62058
0.61606
0.611355
0.606471
0.601412
0.596186
0.590797
0.585253
0.57956
0.573726
0.567756
0.561654
0.555444
0.549111
0.542695
0.536246
0.530058
0.525801
0.522214
0.518591
0.514883
0.511088
0.507211
0.503257
0.49923
0.495136
0.490982
0.486772
0.482511
0.478207
0.473864
0.469488
0.465085
0.460659
0.456217
0.451763
0.447303
0.44284
0.438379
0.433922
0.429474
0.425033
0.4206
0.416171
0.411737
0.407283
0.402783
0.398187
0.393403
0.388225
0.382135
0.374239
0.363587
0.0143207
0.0225319
0.030037
0.0361985
0.0417878
0.0473846
0.0529713
0.0587355
0.064785
0.071271
0.0782278
0.0856338
0.0934556
0.101649
0.110152
0.118933
0.127981
0.137302
0.146905
0.156803
0.167012
0.177543
0.188409
0.199619
0.211181
0.223099
0.235376
0.248008
0.260991
0.274313
0.287959
0.301909
0.31614
0.330637
0.345383
0.360364
0.375565
0.390972
0.406572
0.422352
0.438302
0.454411
0.470669
0.487067
0.503596
0.520248
0.537015
0.553887
0.570856
0.587914
0.605051
0.622257
0.639523
0.656839
0.674193
0.691574
0.708972
0.726373
0.743766
0.761139
0.778478
0.795772
0.813006
0.830168
0.847245
0.864224
0.881092
0.897836
0.914443
0.930901
0.947197
0.963319
0.979255
0.99499
1.01044
1.02554
1.04036
1.05493
1.06923
1.08325
1.09699
1.11044
1.12359
1.13642
1.14893
1.1611
1.17293
1.1844
1.19552
1.20626
1.21662
1.2266
1.23619
1.24537
1.25415
1.26251
1.27046
1.27799
1.28508
1.29175
1.29797
1.30375
1.30909
1.31399
1.31843
1.32242
1.32595
1.32902
1.33164
1.3338
1.33549
1.33673
1.3375
1.33781
1.33766
1.33705
1.33598
1.33446
1.33248
1.33005
1.32718
1.32386
1.3201
1.3159
1.31127
1.30622
1.30075
1.29487
1.28858
1.2819
1.27483
1.26738
1.25955
1.25137
1.24283
1.23395
1.22474
1.21522
1.20537
1.19526
1.18482
1.17415
1.16332
1.15238
1.14159
1.13078
1.11981
1.10866
1.09734
1.08587
1.07425
1.06251
1.05065
1.03869
1.02664
1.01451
1.00232
0.990083
0.977804
0.965499
0.953179
0.940856
0.928542
0.916247
0.903981
0.891753
0.879573
0.867447
0.855383
0.843383
0.83145
0.819582
0.807772
0.796006
0.784256
0.772483
0.760585
0.748445
0.734568
0.719324
0.0212645
0.0358731
0.0472201
0.056113
0.0641976
0.0717695
0.079289
0.0870767
0.0953049
0.104047
0.113295
0.122997
0.133086
0.143506
0.154218
0.165211
0.176497
0.188105
0.200074
0.212445
0.225257
0.238543
0.252328
0.266628
0.28145
0.29679
0.312637
0.328972
0.345771
0.363005
0.380641
0.398649
0.416999
0.435661
0.454611
0.473826
0.493285
0.512967
0.532858
0.552942
0.573206
0.593639
0.61423
0.634971
0.655851
0.676862
0.697996
0.719244
0.740596
0.762044
0.783577
0.805185
0.826857
0.848582
0.870347
0.892139
0.913946
0.935753
0.957546
0.979311
1.00103
1.02269
1.04428
1.06578
1.08717
1.10844
1.12957
1.15055
1.17136
1.19199
1.21242
1.23265
1.25266
1.27243
1.29187
1.31099
1.3298
1.34828
1.36644
1.38425
1.4017
1.41878
1.43548
1.45177
1.46765
1.48311
1.49813
1.5127
1.52681
1.54044
1.5536
1.56626
1.57842
1.59006
1.60119
1.61179
1.62186
1.63139
1.64036
1.64879
1.65666
1.66396
1.6707
1.67686
1.68245
1.68746
1.69189
1.69574
1.699
1.70167
1.70376
1.70526
1.70617
1.70649
1.70623
1.70538
1.70395
1.70193
1.69934
1.69618
1.69244
1.68814
1.68329
1.67787
1.67192
1.66542
1.65839
1.65084
1.64277
1.6342
1.62513
1.61559
1.60557
1.59509
1.58417
1.57281
1.56104
1.54887
1.53626
1.52337
1.51013
1.49659
1.4828
1.4688
1.45472
1.4405
1.42609
1.41146
1.39663
1.3816
1.36641
1.35105
1.33556
1.31994
1.30421
1.2884
1.2725
1.25656
1.24056
1.22454
1.20851
1.19248
1.17647
1.16049
1.14455
1.12867
1.11286
1.09712
1.08148
1.06593
1.05048
1.03515
1.01992
1.00481
0.989801
0.974907
0.960113
0.945457
0.930491
0.914973
0.0274362
0.0500193
0.0646389
0.0757833
0.085295
0.0942077
0.103051
0.112137
0.121641
0.131637
0.142125
0.153066
0.164413
0.176128
0.188199
0.200636
0.213471
0.226746
0.240509
0.254806
0.269674
0.28514
0.301217
0.31791
0.335209
0.353097
0.371548
0.390532
0.410014
0.429959
0.45033
0.471094
0.49222
0.513678
0.535443
0.557493
0.579807
0.602369
0.625162
0.648175
0.671394
0.694809
0.718411
0.742191
0.76614
0.790249
0.81451
0.838912
0.863447
0.888104
0.912872
0.93774
0.962694
0.987723
1.01281
1.03794
1.0631
1.08828
1.11345
1.1386
1.16371
1.18877
1.21374
1.23863
1.2634
1.28804
1.31253
1.33686
1.361
1.38493
1.40865
1.43213
1.45536
1.4783
1.5009
1.52315
1.54503
1.56654
1.58767
1.60839
1.6287
1.64856
1.66797
1.68692
1.70537
1.72333
1.74077
1.75768
1.77404
1.78985
1.8051
1.81976
1.83383
1.8473
1.86016
1.8724
1.88401
1.89498
1.90532
1.915
1.92403
1.93239
1.94009
1.94712
1.95347
1.95915
1.96415
1.96846
1.97209
1.97503
1.97729
1.97886
1.97974
1.97993
1.97945
1.97827
1.97643
1.9739
1.9707
1.96684
1.96231
1.95712
1.95129
1.94481
1.9377
1.92996
1.92161
1.91265
1.9031
1.89296
1.88225
1.87099
1.85918
1.84683
1.83398
1.82062
1.80678
1.79252
1.77782
1.76273
1.74727
1.73145
1.71532
1.69892
1.68233
1.66554
1.64851
1.63125
1.61376
1.59606
1.57816
1.56009
1.54186
1.5235
1.50502
1.48644
1.46778
1.44906
1.4303
1.41151
1.39272
1.37394
1.35518
1.33646
1.31781
1.29922
1.28073
1.26233
1.24405
1.2259
1.20789
1.19003
1.17233
1.15482
1.1375
1.12043
1.10366
1.08733
1.07136
1.05574
0.0324886
0.0631096
0.0807713
0.093547
0.104376
0.114392
0.124191
0.134123
0.144391
0.1551
0.166284
0.177942
0.190058
0.202624
0.215648
0.229153
0.243176
0.257758
0.27294
0.288757
0.305233
0.322382
0.340205
0.358693
0.377827
0.397583
0.41793
0.438835
0.460263
0.48218
0.504552
0.527347
0.550538
0.574099
0.598005
0.622238
0.646778
0.671611
0.696721
0.722097
0.747728
0.773603
0.799712
0.826046
0.852595
0.879351
0.906303
0.93344
0.960753
0.988228
1.01585
1.04361
1.0715
1.09948
1.12756
1.15571
1.18392
1.21216
1.24041
1.26866
1.29688
1.32505
1.35315
1.38116
1.40906
1.43682
1.46442
1.49184
1.51905
1.54605
1.5728
1.59929
1.6255
1.65136
1.67684
1.70194
1.72663
1.75089
1.77472
1.79808
1.82096
1.84335
1.86521
1.88654
1.90731
1.92751
1.94713
1.96613
1.98452
2.00227
2.01937
2.03581
2.05157
2.06665
2.08103
2.09471
2.10767
2.1199
2.13141
2.14217
2.15219
2.16146
2.16997
2.17772
2.18471
2.19092
2.19637
2.20104
2.20494
2.20806
2.2104
2.21197
2.21276
2.21278
2.21203
2.21051
2.20822
2.20517
2.20137
2.19681
2.19152
2.18548
2.17871
2.17123
2.16303
2.15414
2.14455
2.13428
2.12336
2.11178
2.09955
2.08672
2.07327
2.05921
2.04463
2.0295
2.01385
1.99772
1.98111
1.96406
1.94659
1.92872
1.9105
1.89197
1.87316
1.8541
1.83478
1.8152
1.79537
1.77531
1.75505
1.7346
1.71398
1.69322
1.67233
1.65134
1.63027
1.60914
1.58797
1.56678
1.54559
1.52442
1.50329
1.48221
1.4612
1.44029
1.41948
1.3988
1.37826
1.35787
1.33767
1.31766
1.29787
1.27833
1.25908
1.24019
1.22178
1.20402
1.187
1.17085
0.0367727
0.0741347
0.0942775
0.108698
0.120745
0.131706
0.142258
0.1528
0.163581
0.174745
0.18637
0.198494
0.211137
0.224316
0.238053
0.252374
0.267315
0.282907
0.29918
0.316156
0.333846
0.352254
0.371372
0.391186
0.411674
0.43281
0.454565
0.476908
0.499809
0.523236
0.547161
0.571557
0.5964
0.621665
0.647335
0.673389
0.699812
0.726589
0.753708
0.781156
0.808921
0.836994
0.865364
0.894021
0.922953
0.952151
0.981603
1.0113
1.04122
1.07135
1.10169
1.13221
1.16289
1.19372
1.22468
1.25574
1.28689
1.3181
1.34935
1.38062
1.41187
1.44309
1.47424
1.50531
1.53627
1.56708
1.59772
1.62818
1.65841
1.6884
1.71812
1.74754
1.77665
1.80536
1.83365
1.8615
1.8889
1.91583
1.94226
1.96817
1.99354
2.01835
2.04257
2.06619
2.08918
2.11153
2.13322
2.15422
2.17453
2.19412
2.21298
2.2311
2.24846
2.26505
2.28086
2.29589
2.3101
2.32351
2.3361
2.34787
2.35879
2.36888
2.37813
2.38653
2.39407
2.40076
2.40659
2.41156
2.41567
2.41891
2.4213
2.42282
2.42348
2.42329
2.42224
2.42034
2.4176
2.41401
2.40959
2.40434
2.39827
2.39139
2.3837
2.37522
2.36596
2.35593
2.34514
2.33361
2.32135
2.30838
2.29468
2.28034
2.26535
2.24972
2.2335
2.21668
2.19931
2.1814
2.16298
2.14407
2.1247
2.10491
2.08472
2.06417
2.04329
2.02212
2.00066
1.97892
1.95692
1.93467
1.91221
1.88955
1.86671
1.84372
1.82061
1.79739
1.77409
1.75074
1.72734
1.70394
1.68054
1.65717
1.63385
1.6106
1.58744
1.56439
1.54146
1.51869
1.49608
1.47367
1.45147
1.42951
1.40782
1.38645
1.36546
1.34494
1.32503
1.30592
1.28774
1.27067
0.0430962
0.0831498
0.10522
0.120987
0.134058
0.14582
0.157003
0.168046
0.179232
0.190746
0.202705
0.21518
0.228221
0.241864
0.25614
0.271079
0.286709
0.303054
0.320135
0.337962
0.35654
0.375867
0.395931
0.416717
0.438204
0.46037
0.48319
0.506638
0.530687
0.555314
0.580495
0.606206
0.632428
0.659141
0.686328
0.713974
0.742062
0.770581
0.799518
0.82886
0.858597
0.888717
0.919208
0.95006
0.981261
1.0128
1.04466
1.07682
1.10928
1.14201
1.175
1.20823
1.24168
1.27532
1.30913
1.34309
1.37717
1.41134
1.44558
1.47986
1.51415
1.54841
1.58262
1.61675
1.65077
1.68464
1.71833
1.75181
1.78506
1.81804
1.85072
1.88307
1.91506
1.9466
1.97767
2.00827
2.03836
2.06791
2.09692
2.12534
2.15316
2.18035
2.20689
2.23275
2.25792
2.28237
2.30607
2.32902
2.3512
2.37257
2.39314
2.41288
2.43179
2.44984
2.46702
2.48333
2.49875
2.51328
2.52689
2.5396
2.55138
2.56224
2.57217
2.58116
2.58921
2.59633
2.60249
2.60772
2.61199
2.61532
2.6177
2.61914
2.61964
2.6192
2.61783
2.61552
2.6123
2.60815
2.60309
2.59713
2.59028
2.58254
2.57393
2.56445
2.55413
2.54297
2.53099
2.51819
2.50463
2.4903
2.47522
2.45943
2.44293
2.42576
2.40794
2.38949
2.37043
2.3508
2.33062
2.30992
2.28872
2.26705
2.24496
2.22247
2.19962
2.17643
2.15293
2.12913
2.10506
2.08073
2.05616
2.0314
2.00645
1.98135
1.95612
1.93079
1.90538
1.87991
1.85442
1.82891
1.80343
1.77798
1.7526
1.7273
1.70211
1.67704
1.65213
1.62738
1.60284
1.57852
1.55445
1.53066
1.5072
1.48412
1.4615
1.43945
1.41809
1.39765
1.37821
1.35992
0.0487587
0.0900342
0.113518
0.130334
0.144237
0.156676
0.168407
0.179897
0.191451
0.20328
0.21553
0.2283
0.24166
0.255661
0.270342
0.285735
0.301863
0.318747
0.336401
0.35483
0.374036
0.394015
0.414757
0.436248
0.458473
0.481413
0.505048
0.52936
0.554328
0.579933
0.606157
0.632983
0.660394
0.688374
0.716911
0.745989
0.775596
0.80572
0.83635
0.867473
0.899077
0.931152
0.963684
0.99666
1.03007
1.06389
1.09811
1.13272
1.16769
1.203
1.23864
1.27457
1.31078
1.34724
1.38392
1.42078
1.45781
1.49497
1.53222
1.56954
1.60688
1.64422
1.68151
1.71872
1.75582
1.79276
1.82952
1.86605
1.90233
1.93831
1.97396
2.00925
2.0441
2.07846
2.11232
2.14564
2.1784
2.21056
2.24212
2.27303
2.30327
2.33281
2.36163
2.3897
2.417
2.4435
2.46919
2.49404
2.51803
2.54115
2.56337
2.58469
2.60508
2.62453
2.64304
2.66058
2.67715
2.69274
2.70734
2.72093
2.73352
2.74509
2.75565
2.76519
2.77371
2.7812
2.78766
2.79309
2.79749
2.80086
2.8032
2.80452
2.80482
2.80411
2.80237
2.79964
2.7959
2.79117
2.78546
2.77877
2.77111
2.76251
2.75296
2.74247
2.73109
2.71881
2.70566
2.69165
2.6768
2.66114
2.64469
2.62746
2.60949
2.5908
2.57141
2.55135
2.53065
2.50934
2.48744
2.46498
2.442
2.41852
2.39457
2.3702
2.34544
2.32031
2.29484
2.26906
2.24299
2.21666
2.19008
2.16329
2.13632
2.10919
2.08193
2.05457
2.02714
1.99965
1.97214
1.94464
1.91716
1.88973
1.86237
1.83512
1.80799
1.781
1.75419
1.72758
1.70119
1.67505
1.64921
1.62369
1.59855
1.57384
1.54967
1.52613
1.50337
1.48156
1.4608
1.44117
0.0534948
0.0948674
0.119297
0.136882
0.151433
0.164429
0.176639
0.188535
0.200435
0.212565
0.225086
0.238115
0.251738
0.266014
0.280992
0.296703
0.313175
0.330424
0.348463
0.367298
0.38693
0.407358
0.428574
0.450571
0.473337
0.496861
0.52113
0.546131
0.57185
0.598274
0.625392
0.65319
0.681656
0.71078
0.74055
0.770954
0.801983
0.833625
0.86587
0.898704
0.932117
0.966096
1.00063
1.0357
1.07128
1.10738
1.14395
1.181
1.21848
1.25638
1.29468
1.33333
1.37233
1.41162
1.45119
1.491
1.531
1.57117
1.61146
1.65184
1.69226
1.73269
1.77308
1.81339
1.85358
1.89361
1.93344
1.97302
2.01232
2.0513
2.08991
2.12812
2.16582
2.20299
2.2396
2.27561
2.311
2.34575
2.37981
2.41316
2.44577
2.47762
2.50866
2.53889
2.56826
2.59677
2.62437
2.65106
2.67681
2.7016
2.72541
2.74824
2.77006
2.79085
2.81061
2.82933
2.84699
2.86358
2.87909
2.89351
2.90684
2.91908
2.93021
2.94024
2.94917
2.95698
2.96369
2.96928
2.97376
2.97713
2.9794
2.98056
2.98062
2.97959
2.97748
2.97428
2.97001
2.96467
2.95827
2.95083
2.94237
2.93289
2.92241
2.91094
2.8985
2.88512
2.87081
2.85558
2.83947
2.8225
2.80468
2.78605
2.76662
2.74644
2.72551
2.70388
2.68157
2.65861
2.63503
2.61086
2.58614
2.56089
2.53515
2.50896
2.48234
2.45534
2.42798
2.40029
2.3723
2.34403
2.31551
2.28678
2.25786
2.22879
2.19958
2.17028
2.1409
2.11148
2.08204
2.05261
2.02322
1.99389
1.96465
1.93553
1.90654
1.87772
1.8491
1.82069
1.79254
1.76467
1.73713
1.70995
1.6832
1.65694
1.63126
1.60628
1.58213
1.55897
1.53684
1.51581
0.0572892
0.0978584
0.122823
0.14092
0.155942
0.169376
0.181986
0.194242
0.206461
0.218872
0.231642
0.244899
0.258735
0.273219
0.288405
0.304329
0.321021
0.338499
0.356779
0.37587
0.395777
0.416502
0.438044
0.460401
0.483569
0.507543
0.532317
0.557886
0.584242
0.61138
0.639292
0.667972
0.697411
0.727603
0.758539
0.790211
0.82261
0.855727
0.889551
0.92407
0.959272
0.995142
1.03167
1.06882
1.1066
1.14498
1.18392
1.22342
1.26344
1.30395
1.34493
1.38634
1.42815
1.47031
1.51279
1.55556
1.59856
1.64175
1.6851
1.72855
1.77206
1.81558
1.85906
1.90246
1.94573
1.98883
2.03171
2.07431
2.11661
2.15854
2.20009
2.24114
2.28163
2.32154
2.36084
2.39948
2.43743
2.47467
2.51117
2.54688
2.58178
2.61584
2.64903
2.68132
2.71268
2.74309
2.77252
2.80096
2.82837
2.85474
2.88006
2.9043
2.92746
2.9495
2.97044
2.99024
3.0089
3.02642
3.04277
3.05795
3.07195
3.08477
3.09642
3.10687
3.11614
3.12422
3.13112
3.13682
3.14133
3.14465
3.14679
3.14775
3.14754
3.14616
3.14363
3.13994
3.13511
3.12915
3.12207
3.11388
3.1046
3.09425
3.08284
3.07039
3.05691
3.04243
3.02697
3.01055
2.99319
2.97492
2.95577
2.93575
2.91491
2.89326
2.87084
2.84767
2.82379
2.79923
2.77402
2.74819
2.72178
2.69482
2.66735
2.63939
2.611
2.58219
2.55301
2.52349
2.49365
2.46353
2.43316
2.40257
2.37178
2.34084
2.30977
2.27861
2.24737
2.2161
2.18482
2.15356
2.12234
2.0912
2.06016
2.02925
1.9985
1.96793
1.93758
1.90746
1.87763
1.84811
1.81895
1.79018
1.76189
1.73413
1.707
1.68061
1.65509
1.63057
1.60706
1.58463
0.0601722
0.0992579
0.124413
0.142801
0.158133
0.171884
0.184809
0.197364
0.209859
0.222517
0.235506
0.248955
0.26296
0.277596
0.29292
0.308976
0.325796
0.343406
0.361824
0.381066
0.401142
0.422061
0.44383
0.466453
0.489935
0.514278
0.539484
0.565555
0.592489
0.620289
0.648951
0.678475
0.708858
0.740096
0.772184
0.805116
0.838886
0.873483
0.908899
0.94512
0.982133
1.01992
1.05847
1.09775
1.13776
1.17845
1.2198
1.26179
1.30439
1.34755
1.39124
1.43543
1.48007
1.52512
1.57053
1.61626
1.66226
1.70848
1.75487
1.80137
1.84793
1.89451
1.94104
1.98748
2.03377
2.07987
2.12572
2.17127
2.21647
2.26128
2.30564
2.34943
2.3926
2.43514
2.477
2.51814
2.55853
2.59814
2.63693
2.67487
2.71192
2.74807
2.78326
2.81748
2.8507
2.88288
2.914
2.94405
2.973
3.00083
3.02752
3.05305
3.07742
3.10061
3.1226
3.14338
3.16294
3.18128
3.19837
3.2142
3.22879
3.24211
3.25418
3.26498
3.27452
3.2828
3.28982
3.29556
3.30004
3.30326
3.30523
3.30594
3.30542
3.30366
3.30068
3.29648
3.29108
3.28449
3.27671
3.26777
3.25769
3.24647
3.23413
3.2207
3.2062
3.19064
3.17405
3.15646
3.13788
3.11835
3.09789
3.07653
3.05431
3.03124
3.00737
2.98272
2.95732
2.93122
2.90444
2.87702
2.84899
2.82038
2.79125
2.76161
2.73151
2.70099
2.67008
2.63881
2.60721
2.57533
2.5432
2.51083
2.47828
2.44557
2.41274
2.37981
2.34681
2.31379
2.28076
2.24776
2.21481
2.18196
2.14921
2.11661
2.08418
2.05195
2.01995
1.98822
1.95679
1.9257
1.89499
1.86473
1.83496
1.80576
1.77723
1.74948
1.72261
1.69674
1.67186
1.64803
0.0621889
0.0993178
0.124393
0.142888
0.158387
0.172342
0.185491
0.198275
0.210991
0.223852
0.237021
0.250624
0.264759
0.279503
0.294917
0.31105
0.327942
0.345623
0.364119
0.383454
0.403645
0.424709
0.446662
0.469516
0.493283
0.517975
0.543601
0.57017
0.597689
0.626164
0.655598
0.685997
0.71736
0.749687
0.782978
0.817226
0.852427
0.88857
0.925646
0.963641
1.00254
1.04232
1.08296
1.12445
1.16674
1.20981
1.25364
1.29817
1.34339
1.38923
1.43567
1.48266
1.53014
1.57807
1.6264
1.67507
1.72404
1.77323
1.8226
1.87208
1.92161
1.97115
2.02062
2.06998
2.11917
2.16813
2.21681
2.26515
2.31311
2.36064
2.40761
2.45395
2.49963
2.5446
2.58882
2.63227
2.6749
2.71668
2.75757
2.79753
2.83655
2.87457
2.91159
2.94755
2.98242
3.01619
3.04882
3.0803
3.11061
3.13972
3.16761
3.19428
3.21971
3.24387
3.26677
3.28839
3.30873
3.32775
3.34546
3.36183
3.37688
3.3906
3.40299
3.41404
3.42376
3.43215
3.4392
3.44493
3.44932
3.45238
3.45413
3.45456
3.45369
3.45153
3.44808
3.44335
3.43736
3.43012
3.42165
3.41196
3.40106
3.38898
3.37574
3.36135
3.34584
3.32923
3.31154
3.29281
3.27306
3.25231
3.23059
3.20795
3.18439
3.15997
3.13471
3.10864
3.0818
3.05423
3.02596
2.99702
2.96745
2.93729
2.90658
2.87535
2.84365
2.81151
2.77896
2.74605
2.71281
2.67928
2.64548
2.61146
2.57725
2.54288
2.50839
2.4738
2.43916
2.40449
2.36982
2.33519
2.30063
2.26616
2.23182
2.19763
2.16362
2.12984
2.0963
2.06305
2.03011
1.99754
1.96538
1.93368
1.90252
1.87196
1.84209
1.81301
1.78484
1.75764
1.73143
1.70624
0.0633861
0.0982719
0.123063
0.141522
0.157071
0.17113
0.184418
0.197358
0.210234
0.22325
0.236559
0.250283
0.26452
0.279347
0.29483
0.311022
0.32797
0.345711
0.36428
0.383709
0.404024
0.425251
0.447415
0.470538
0.494639
0.51974
0.545858
0.573007
0.601202
0.630453
0.660771
0.69216
0.724628
0.758176
0.792802
0.828505
0.865276
0.903106
0.941981
0.981885
1.0228
1.0647
1.10755
1.15134
1.19603
1.24157
1.28793
1.33507
1.38295
1.4315
1.4807
1.53047
1.58077
1.63154
1.68272
1.73426
1.78608
1.83814
1.89036
1.94267
1.99501
2.04732
2.09955
2.15162
2.20349
2.25509
2.30636
2.35726
2.40773
2.45768
2.50698
2.5556
2.60349
2.65062
2.69693
2.7424
2.78699
2.83065
2.87336
2.91508
2.95577
2.99541
3.03399
3.07144
3.10772
3.14282
3.17672
3.20939
3.24082
3.27099
3.29988
3.32748
3.35376
3.37872
3.40234
3.42461
3.44553
3.46508
3.48325
3.50002
3.51541
3.52941
3.54201
3.55321
3.56302
3.57143
3.57845
3.58407
3.58831
3.59116
3.59264
3.59275
3.59149
3.58889
3.58494
3.57967
3.57308
3.56519
3.55602
3.54558
3.53389
3.52096
3.50683
3.49151
3.47503
3.45741
3.43867
3.41885
3.39797
3.37606
3.35315
3.32928
3.30448
3.27877
3.2522
3.2248
3.19661
3.16766
3.13798
3.10763
3.07663
3.04502
3.01284
2.98014
2.94694
2.9133
2.87924
2.84482
2.81005
2.77499
2.73966
2.70411
2.66836
2.63246
2.59644
2.56033
2.52416
2.48798
2.4518
2.41567
2.3796
2.34365
2.30783
2.27217
2.23671
2.20148
2.16652
2.13185
2.09752
2.06357
2.03005
1.99702
1.96454
1.93269
1.90155
1.87122
1.84178
1.81332
1.78581
1.75932
0.063805
0.0963272
0.12069
0.13901
0.154519
0.168601
0.181953
0.194987
0.207971
0.221101
0.234523
0.248354
0.26269
0.27761
0.293183
0.309468
0.326516
0.344376
0.363089
0.382696
0.403234
0.424738
0.447242
0.470777
0.495372
0.521056
0.547854
0.575788
0.604877
0.635131
0.666564
0.699184
0.733
0.768013
0.804222
0.841621
0.880201
0.919949
0.960845
1.00287
1.04599
1.09019
1.13542
1.18165
1.22884
1.27694
1.32591
1.3757
1.42624
1.4775
1.5294
1.58189
1.63491
1.68839
1.74228
1.7965
1.851
1.90572
1.96054
2.01542
2.07029
2.12508
2.17974
2.2342
2.28841
2.34229
2.39581
2.4489
2.5015
2.55345
2.6047
2.6552
2.70491
2.7538
2.80181
2.84892
2.89508
2.94025
2.98441
3.02751
3.06952
3.11042
3.15017
3.18875
3.22611
3.26223
3.2971
3.33068
3.36297
3.39393
3.42356
3.45183
3.47874
3.50427
3.5284
3.55114
3.57245
3.59235
3.61081
3.62783
3.64341
3.65754
3.67023
3.68146
3.69125
3.69959
3.70648
3.71193
3.71594
3.71852
3.71967
3.7194
3.71773
3.71465
3.71019
3.70436
3.69716
3.68862
3.67875
3.66758
3.65511
3.64137
3.62639
3.61018
3.59277
3.57419
3.55446
3.53361
3.51167
3.48868
3.46466
3.43965
3.41368
3.38679
3.35901
3.33039
3.30095
3.27073
3.23978
3.20812
3.17581
3.14288
3.10937
3.07532
3.04077
3.00577
2.97034
2.93454
2.89839
2.86194
2.82523
2.78829
2.75116
2.71388
2.67647
2.63898
2.60144
2.56389
2.52634
2.48885
2.45143
2.41413
2.37697
2.33998
2.3032
2.26666
2.23039
2.19444
2.15883
2.12362
2.08885
2.05459
2.0209
1.98784
1.95551
1.92399
1.89337
1.8637
1.83496
1.80724
0.0634806
0.0936571
0.117497
0.135611
0.151024
0.165074
0.178443
0.191529
0.204595
0.217826
0.231367
0.24533
0.259812
0.274896
0.290655
0.307153
0.324447
0.342593
0.361641
0.381641
0.402641
0.424684
0.447813
0.472068
0.497485
0.5241
0.551945
0.581053
0.611447
0.643112
0.676068
0.710328
0.745898
0.782776
0.820957
0.860429
0.901175
0.943175
0.986402
1.03082
1.07641
1.12311
1.17089
1.21971
1.2695
1.32022
1.37181
1.42422
1.47737
1.53121
1.58568
1.6407
1.69621
1.75215
1.80844
1.86501
1.9218
1.97874
2.03575
2.09276
2.1497
2.20651
2.26313
2.31949
2.37554
2.43122
2.48648
2.54126
2.59538
2.6488
2.70146
2.75332
2.80434
2.85447
2.90368
2.95193
2.99917
3.04538
3.09051
3.13454
3.17744
3.21917
3.2597
3.29901
3.33706
3.37384
3.40931
3.44346
3.47626
3.5077
3.53777
3.56644
3.5937
3.61954
3.64394
3.6669
3.6884
3.70844
3.72701
3.74409
3.75969
3.77381
3.78644
3.79757
3.80722
3.81537
3.82204
3.82723
3.83094
3.83317
3.83394
3.83326
3.83112
3.82755
3.82256
3.81615
3.80835
3.79917
3.78862
3.77673
3.76352
3.74901
3.73322
3.71617
3.6979
3.67843
3.65778
3.63599
3.61309
3.5891
3.56407
3.53803
3.51101
3.48305
3.45419
3.42446
3.3939
3.36256
3.33046
3.29766
3.26419
3.23008
3.19539
3.16015
3.12441
3.0882
3.05157
3.01456
2.9772
2.93954
2.90161
2.86345
2.82511
2.78661
2.74799
2.70929
2.67054
2.63178
2.59303
2.55434
2.51573
2.47724
2.4389
2.40073
2.36278
2.32507
2.28765
2.25054
2.21379
2.17745
2.14156
2.10619
2.07139
2.03724
2.00381
1.97119
1.93946
1.90866
1.87878
1.8499
0.0623743
0.0902602
0.113529
0.131411
0.146707
0.160712
0.174091
0.187238
0.200411
0.213795
0.227535
0.241746
0.256529
0.271973
0.288161
0.305176
0.323052
0.34186
0.361663
0.38252
0.404486
0.427613
0.45195
0.477541
0.504425
0.532638
0.562212
0.593171
0.62553
0.659296
0.694475
0.731065
0.769063
0.808455
0.849225
0.891349
0.934797
0.979536
1.02553
1.07272
1.12108
1.17055
1.22108
1.2726
1.32506
1.37839
1.43254
1.48744
1.54301
1.59921
1.65594
1.71315
1.77077
1.82873
1.88695
1.94537
2.00392
2.06254
2.12114
2.17967
2.23806
2.29625
2.35417
2.41177
2.46901
2.52582
2.58214
2.6378
2.69275
2.74694
2.80033
2.85287
2.90453
2.95526
3.00502
3.05379
3.10151
3.14816
3.1937
3.23811
3.28135
3.32339
3.3642
3.40376
3.44204
3.47902
3.51466
3.54896
3.5819
3.61344
3.64358
3.67231
3.69959
3.72543
3.74981
3.77272
3.79415
3.81409
3.83253
3.84946
3.86488
3.87879
3.89118
3.90206
3.91141
3.91925
3.92557
3.93039
3.93369
3.9355
3.93581
3.93463
3.93198
3.92786
3.9223
3.91529
3.90687
3.89703
3.88581
3.87322
3.85929
3.84403
3.82747
3.80963
3.79054
3.77024
3.74874
3.72608
3.70229
3.6774
3.65145
3.62448
3.59651
3.5676
3.53776
3.50705
3.47551
3.44316
3.41006
3.37624
3.34175
3.30662
3.2709
3.23463
3.19784
3.16059
3.12291
3.08485
3.04645
3.00773
2.96875
2.92955
2.89015
2.8506
2.81094
2.77119
2.7314
2.69159
2.65181
2.61208
2.57243
2.53291
2.49353
2.45434
2.41536
2.37664
2.33819
2.30007
2.26232
2.22497
2.18808
2.1517
2.11591
2.08076
2.04633
2.0127
1.97994
1.94809
1.91715
1.8872
0.0607781
0.0866262
0.109344
0.127017
0.14222
0.156213
0.169656
0.182946
0.196347
0.210054
0.224215
0.238958
0.254389
0.270606
0.287699
0.30575
0.324827
0.345
0.366338
0.388901
0.412746
0.437926
0.464484
0.492461
0.521886
0.552786
0.585177
0.619067
0.654458
0.691341
0.729701
0.76952
0.810771
0.853422
0.897436
0.942771
0.989381
1.03722
1.08622
1.13634
1.18752
1.23969
1.2928
1.34677
1.40156
1.45708
1.51328
1.57009
1.62744
1.68527
1.74352
1.80211
1.86098
1.92007
1.97931
2.03864
2.09799
2.1573
2.21652
2.27558
2.33442
2.39299
2.45123
2.5091
2.56655
2.62349
2.67978
2.73536
2.7902
2.84425
2.89747
2.94983
3.00128
3.05179
3.10132
3.14984
3.1973
3.24368
3.28895
3.33308
3.37603
3.41778
3.4583
3.49757
3.53555
3.57223
3.60758
3.64158
3.67422
3.70546
3.7353
3.76372
3.7907
3.81622
3.84029
3.86287
3.88397
3.90358
3.92167
3.93826
3.95332
3.96686
3.97888
3.98936
3.99832
4.00574
4.01164
4.01601
4.01886
4.0202
4.02002
4.01835
4.01519
4.01054
4.00443
3.99687
3.98787
3.97745