/*--------------------------------*- C++ -*----------------------------------*\
| =========                 |                                                 |
| \\      /  F ield         | OpenFOAM: The Open Source CFD Toolbox           |
|  \\    /   O peration     | Version:  2412                                  |
|   \\  /    A nd           | Website:  www.openfoam.com                      |
|    \\/     M anipulation  |                                                 |
\*---------------------------------------------------------------------------*/
FoamFile
{
    version     2.0;
    format      ascii;
    arch        "LSB;label=32;scalar=64";
    class       volScalarField;
    location    "0.28";
    object      nut;
}
// * * * * * * * * * * * * * * * * * * * * * * * * * * * * * * * * * * * * * //

dimensions      [0 2 -1 0 0 0 0];

internalField   nonuniform List<scalar> 
12225
(
2.015e-05
2.24858e-05
2.47491e-05
2.63715e-05
2.7588e-05
2.85143e-05
2.92324e-05
2.97981e-05
3.02485e-05
3.061e-05
3.09018e-05
3.11381e-05
3.13294e-05
3.14835e-05
3.16061e-05
3.17004e-05
3.17687e-05
3.18284e-05
0.000167792
0.000185428
0.000202597
0.000213787
0.000221146
0.000225984
0.000229002
0.00023072
0.000231515
0.000231644
0.000231292
0.000230594
0.00022965
0.000228531
0.000227295
0.00022597
0.000224708
0.000224072
0.000338328
0.000365994
0.000399362
0.000424407
0.00044278
0.000456139
0.000465649
0.000472249
0.000476658
0.00047941
0.000480906
0.000481448
0.000481265
0.00048053
0.000479377
0.000477904
0.000476299
0.00047546
0.000480632
0.000521771
0.000570122
0.000608391
0.000637803
0.00066021
0.0006771
0.000689692
0.000698954
0.000705626
0.000710281
0.000713361
0.000715208
0.000716088
0.00071621
0.00071574
0.000714911
0.000714431
0.00059357
0.000650968
0.000713491
0.000763786
0.000803284
0.000834124
0.00085809
0.000876631
0.000890897
0.000901785
0.000909999
0.000916089
0.000920491
0.000923548
0.000925533
0.000926671
0.000927219
0.000927685
0.000684418
0.000756656
0.000831951
0.000893055
0.000941627
0.000980104
0.00101056
0.00103466
0.0010537
0.0010687
0.00108048
0.00108967
0.00109678
0.00110221
0.0011063
0.00110932
0.00111153
0.00111331
0.000759757
0.00084284
0.000928292
0.000998649
0.00105522
0.00110054
0.00113687
0.00116606
0.00118953
0.00120842
0.00122362
0.00123583
0.00124563
0.00125348
0.00125974
0.00126473
0.0012687
0.00127194
0.000823625
0.000913365
0.00100525
0.00108261
0.00114578
0.00119702
0.00123857
0.00127237
0.00129992
0.00132243
0.00134086
0.00135597
0.00136839
0.00137861
0.00138703
0.00139399
0.00139973
0.00140448
0.000877003
0.000970916
0.0010653
0.00114672
0.00121456
0.00127046
0.0013164
0.00135421
0.00138542
0.00141126
0.00143271
0.00145058
0.00146551
0.00147804
0.00148859
0.0014975
0.00150499
0.00151124
0.000918258
0.00101593
0.00110995
0.00119241
0.00126253
0.0013214
0.00137055
0.00141157
0.00144587
0.00147463
0.00149882
0.00151925
0.00153658
0.00155134
0.00156396
0.00157478
0.001584
0.00159171
0.000944751
0.00104624
0.0011388
0.00122006
0.00129015
0.00135004
0.0014009
0.00144402
0.0014806
0.0015117
0.00153823
0.00156093
0.00158045
0.00159729
0.0016119
0.00162457
0.0016355
0.00164465
0.000953929
0.00105647
0.00114713
0.00122621
0.0012948
0.00135413
0.00140528
0.0014493
0.00148719
0.00151986
0.0015481
0.00157258
0.00159388
0.00161249
0.00162881
0.00164312
0.00165556
0.00166602
0.000951545
0.0010519
0.00114069
0.00121792
0.00128482
0.0013429
0.00139336
0.00143724
0.00147545
0.00150878
0.00153794
0.00156353
0.00158606
0.00160596
0.0016236
0.00163923
0.00165293
0.00166447
0.000937266
0.00102693
0.00110961
0.00118333
0.00124793
0.00130434
0.00135362
0.00139676
0.00143463
0.001468
0.00149751
0.0015237
0.00154702
0.00156787
0.00158656
0.0016033
0.00161811
0.00163063
0.000914065
0.000982516
0.00105
0.00111401
0.00117277
0.00122567
0.00127281
0.00131462
0.00135169
0.00138461
0.00141396
0.00144023
0.00146384
0.00148514
0.00150442
0.00152186
0.00153745
0.00155068
0.000888181
0.000929364
0.000972527
0.00101672
0.00106056
0.0011029
0.00114292
0.00118011
0.00121428
0.00124543
0.00127374
0.00129945
0.00132281
0.00134408
0.00136348
0.00138117
0.00139714
0.00141081
0.000866165
0.000882903
0.000901456
0.000921825
0.00094371
0.000966717
0.000990419
0.00101437
0.00103813
0.00106136
0.00108377
0.00110518
0.00112548
0.00114459
0.00116249
0.0011792
0.00119465
0.00120841
0.000853647
0.000856463
0.000860483
0.000865723
0.000872136
0.000879656
0.000888214
0.000897719
0.000908059
0.000919104
0.000930715
0.000942751
0.000955075
0.000967563
0.000980095
0.000992552
0.00100481
0.00101666
0.000856837
0.00086304
0.000870433
0.000879025
0.000888701
0.000899307
0.000910677
0.000922624
0.000934956
0.000947484
0.000960044
0.000972495
0.000984724
0.000996649
0.00100821
0.00101936
0.00103006
0.00104006
0.000879014
0.000910093
0.000943005
0.0009771
0.00101138
0.00104494
0.00107708
0.00110731
0.00113536
0.00116111
0.00118458
0.0012059
0.00122519
0.00124265
0.00125845
0.00127274
0.00128565
0.00129725
0.000912428
0.000978633
0.00104329
0.00110415
0.00115969
0.00120945
0.00125358
0.00129251
0.00132677
0.0013569
0.00138344
0.00140686
0.00142755
0.00144587
0.00146213
0.00147658
0.00148943
0.00150098
0.000944652
0.00103937
0.00112414
0.00119816
0.00126209
0.00131726
0.00136492
0.0014061
0.00144171
0.00147255
0.00149929
0.00152252
0.00154273
0.00156034
0.00157571
0.00158915
0.00160091
0.00161125
0.000952969
0.00105495
0.00114494
0.00122286
0.00128968
0.00134681
0.00139548
0.00143685
0.001472
0.0015019
0.00152736
0.00154908
0.00156764
0.00158351
0.00159712
0.00160878
0.00161878
0.00162734
0.000919762
0.00101577
0.00110711
0.00118655
0.00125366
0.00130983
0.00135662
0.00139556
0.001428
0.00145508
0.00147772
0.00149669
0.0015126
0.00152595
0.00153716
0.00154657
0.00155444
0.00156098
0.000847919
0.000936211
0.0010259
0.00110193
0.0011644
0.00121544
0.00125709
0.00129112
0.00131899
0.00134186
0.00136065
0.00137609
0.00138878
0.00139919
0.00140772
0.00141469
0.00142033
0.0014248
0.00074824
0.000825344
0.000905836
0.000972005
0.00102523
0.00106796
0.00110225
0.00112982
0.00115199
0.00116982
0.00118414
0.00119563
0.00120479
0.00121206
0.00121778
0.00122222
0.00122561
0.00122806
0.000620838
0.000679397
0.000743804
0.000795902
0.000837071
0.000869521
0.000895045
0.000915071
0.000930737
0.000942939
0.000952375
0.000959599
0.000965046
0.000969062
0.000971925
0.000973854
0.000975025
0.000975552
0.000453206
0.00049108
0.000536513
0.000572227
0.000599359
0.000619976
0.000635558
0.000647219
0.000655838
0.000662098
0.000666517
0.000669499
0.000671353
0.000672324
0.000672601
0.000672335
0.000671645
0.000670628
0.00023657
0.00025923
0.000284033
0.000301436
0.000313162
0.000321243
0.000326756
0.000330375
0.000332602
0.000333804
0.000334243
0.000334113
0.000333558
0.000332689
0.000331589
0.000330323
0.000328939
0.000327501
2.7242e-05
3.0171e-05
3.32397e-05
3.54417e-05
3.70547e-05
3.8262e-05
3.91809e-05
3.98936e-05
4.04543e-05
4.09001e-05
4.12575e-05
4.15462e-05
4.17807e-05
4.1972e-05
4.21288e-05
4.22576e-05
4.23633e-05
4.24507e-05
4.848e-06
1.31564e-05
1.49687e-05
1.62662e-05
1.72087e-05
1.79383e-05
1.86613e-05
1.94335e-05
2.02143e-05
2.10049e-05
2.18166e-05
2.26758e-05
2.36693e-05
2.48447e-05
2.60823e-05
2.73572e-05
2.86594e-05
2.99865e-05
3.13366e-05
3.27066e-05
3.40922e-05
3.54878e-05
3.68881e-05
3.82879e-05
3.96829e-05
4.107e-05
4.24474e-05
4.38149e-05
4.51739e-05
4.65278e-05
4.78822e-05
4.92301e-05
5.05568e-05
5.18607e-05
5.31416e-05
5.43996e-05
5.56347e-05
5.68474e-05
5.80381e-05
5.92073e-05
6.03554e-05
6.14831e-05
6.25908e-05
6.36791e-05
6.47483e-05
6.57989e-05
6.68313e-05
6.78458e-05
6.88426e-05
6.9822e-05
7.07841e-05
7.1729e-05
7.26569e-05
7.35677e-05
7.44615e-05
7.53383e-05
7.61981e-05
7.70407e-05
7.78661e-05
7.86742e-05
7.94649e-05
8.02381e-05
8.09937e-05
8.17315e-05
8.24515e-05
8.31535e-05
8.38374e-05
8.45031e-05
8.51507e-05
8.578e-05
8.63914e-05
8.69854e-05
8.75628e-05
8.81255e-05
8.86767e-05
8.92124e-05
8.97271e-05
9.02219e-05
9.06971e-05
9.1153e-05
9.15896e-05
9.2007e-05
9.2405e-05
9.27836e-05
9.31428e-05
9.34824e-05
9.38026e-05
9.41031e-05
9.43841e-05
9.46455e-05
9.48873e-05
9.51095e-05
9.53122e-05
9.54953e-05
9.56589e-05
9.5803e-05
9.59277e-05
9.60329e-05
9.61189e-05
9.61855e-05
9.62329e-05
9.62612e-05
9.62704e-05
9.62606e-05
9.62319e-05
9.61843e-05
9.6118e-05
9.6033e-05
9.59295e-05
9.58075e-05
9.56671e-05
9.55085e-05
9.53317e-05
9.51369e-05
9.49242e-05
9.46938e-05
9.44458e-05
9.41803e-05
9.38976e-05
9.35977e-05
9.32809e-05
9.29473e-05
9.25971e-05
9.22306e-05
9.1848e-05
9.14494e-05
9.10352e-05
9.06057e-05
9.01609e-05
8.97014e-05
8.92273e-05
8.87389e-05
8.82366e-05
8.77207e-05
8.71916e-05
8.66496e-05
8.60951e-05
8.55286e-05
8.49499e-05
8.43609e-05
8.37603e-05
8.3151e-05
8.25368e-05
8.19403e-05
8.14911e-05
8.10928e-05
8.06906e-05
8.02807e-05
7.98629e-05
7.94375e-05
7.90048e-05
7.85653e-05
7.81193e-05
7.76672e-05
7.72093e-05
7.67462e-05
7.62781e-05
7.58056e-05
7.53291e-05
7.48489e-05
7.43654e-05
7.38791e-05
7.33904e-05
7.28996e-05
7.24071e-05
7.19132e-05
7.14181e-05
7.09221e-05
7.04253e-05
6.99275e-05
6.94284e-05
6.89273e-05
6.8423e-05
6.79131e-05
6.73935e-05
6.68561e-05
6.62832e-05
6.56299e-05
6.48172e-05
6.37579e-05
7.09933e-06
3.16153e-05
6.284e-05
8.7447e-05
0.000104887
0.000117314
0.000125297
0.000130492
0.000134735
0.000138851
0.000143039
0.000147226
0.000151285
0.000155209
0.000159122
0.000163122
0.000167295
0.000171721
0.000176468
0.000181593
0.000187141
0.000193142
0.00019961
0.000206549
0.000213948
0.000221787
0.000230034
0.000238654
0.000247602
0.000256835
0.000266315
0.000276016
0.00028592
0.000295999
0.000306224
0.000316569
0.00032701
0.000337525
0.000348097
0.000358708
0.000369347
0.000380003
0.000390667
0.000401332
0.000411994
0.000422646
0.000433286
0.000443909
0.000454514
0.000465097
0.000475654
0.000486183
0.000496681
0.000507143
0.000517566
0.000527945
0.000538277
0.000548556
0.000558779
0.000568939
0.000579031
0.000589051
0.000598994
0.000608853
0.000618624
0.000628302
0.00063788
0.000647352
0.000656709
0.000665941
0.000675031
0.000683958
0.000692687
0.000701167
0.000709197
0.000716723
0.00072405
0.000731228
0.000738264
0.000745156
0.000751904
0.000758505
0.000764957
0.000771257
0.000777403
0.000783392
0.000789224
0.000794895
0.000800404
0.00080575
0.00081093
0.000815943
0.000820788
0.000825464
0.00082997
0.000834304
0.000838466
0.000842455
0.000846269
0.00084991
0.000853375
0.000856664
0.000859778
0.000862715
0.000865474
0.000868057
0.000870462
0.00087269
0.000874739
0.00087661
0.000878303
0.000879817
0.000881153
0.00088231
0.000883288
0.000884089
0.000884711
0.000885155
0.000885421
0.00088551
0.000885422
0.000885159
0.000884719
0.000884106
0.000883318
0.000882358
0.000881227
0.000879926
0.000878456
0.000876819
0.000875017
0.000873052
0.000870926
0.000868641
0.000866201
0.000863606
0.000860862
0.000857972
0.000854931
0.000851759
0.000848451
0.000844977
0.000841266
0.00083702
0.000831323
0.000824793
0.000817952
0.000810941
0.000803807
0.000796572
0.000789247
0.000781841
0.000774363
0.000766819
0.000759216
0.000751559
0.000743854
0.000736108
0.000728326
0.000720513
0.000712675
0.000704816
0.000696943
0.000689059
0.000681169
0.000673278
0.000665389
0.000657506
0.000649631
0.000641767
0.000633912
0.000626067
0.000618225
0.000610375
0.000602497
0.000594551
0.000586437
0.000577895
0.000565351
0.000541883
8.65095e-06
5.0584e-05
0.000103697
0.000144688
0.000173836
0.000193523
0.000206901
0.000216558
0.000224369
0.000231488
0.000238512
0.000245692
0.000253127
0.000260889
0.00026907
0.000277773
0.000287104
0.00029717
0.000308065
0.000319869
0.000332635
0.000346394
0.000361148
0.000376877
0.000393538
0.000411069
0.000429396
0.000448435
0.000468101
0.000488307
0.000508976
0.000530035
0.000551421
0.000573071
0.000594932
0.000616955
0.000639097
0.000661325
0.000683609
0.000705926
0.000728257
0.000750588
0.000772906
0.000795202
0.000817469
0.000839699
0.000861887
0.000884028
0.000906116
0.000928144
0.000950107
0.000971998
0.00099381
0.00101553
0.00103716
0.00105868
0.00108009
0.00110137
0.00112251
0.0011435
0.00116434
0.001185
0.00120547
0.00122574
0.0012458
0.00126563
0.00128522
0.00130454
0.00132359
0.00134232
0.00136071
0.00137874
0.00139635
0.00141351
0.00143
0.00144601
0.00146165
0.00147698
0.00149199
0.0015067
0.00152109
0.00153517
0.00154892
0.00156234
0.00157543
0.00158817
0.00160058
0.00161264
0.00162434
0.00163569
0.00164669
0.00165731
0.00166758
0.00167748
0.001687
0.00169616
0.00170494
0.00171334
0.00172137
0.00172901
0.00173628
0.00174316
0.00174966
0.00175578
0.00176151
0.00176686
0.00177182
0.00177639
0.00178058
0.00178438
0.0017878
0.00179082
0.00179346
0.00179571
0.00179758
0.00179905
0.00180015
0.00180085
0.00180117
0.00180111
0.00180066
0.00179984
0.00179863
0.00179705
0.0017951
0.00179277
0.00179007
0.00178701
0.00178358
0.0017798
0.00177566
0.00177117
0.00176634
0.00176117
0.00175567
0.00174984
0.00174369
0.00173725
0.0017305
0.00172345
0.00171611
0.00170842
0.00170023
0.00169124
0.00168084
0.00166936
0.00165727
0.00164476
0.00163196
0.00161889
0.00160561
0.00159212
0.00157845
0.00156462
0.00155063
0.0015365
0.00152224
0.00150787
0.0014934
0.00147883
0.00146419
0.00144947
0.0014347
0.00141988
0.00140502
0.00139013
0.00137523
0.00136031
0.00134538
0.00133045
0.00131551
0.00130056
0.0012856
0.00127058
0.00125545
0.0012401
0.00122427
0.00120725
0.00118567
0.00114857
9.82647e-06
6.94117e-05
0.000137953
0.000190269
0.000227303
0.000253305
0.000271929
0.000286038
0.000297724
0.000308384
0.00031887
0.000329659
0.000341016
0.000353104
0.000366052
0.00037998
0.000394998
0.000411207
0.000428688
0.000447498
0.00046766
0.000489169
0.000511987
0.000536054
0.000561283
0.000587576
0.000614825
0.000642918
0.000671743
0.000701194
0.000731174
0.000761594
0.000792374
0.000823444
0.000854741
0.000886212
0.000917813
0.000949506
0.00098126
0.00101305
0.00104486
0.00107666
0.00110845
0.00114021
0.00117193
0.0012036
0.00123522
0.00126677
0.00129824
0.00132963
0.00136092
0.0013921
0.00142316
0.00145408
0.00148486
0.00151547
0.0015459
0.00157614
0.00160617
0.00163596
0.00166551
0.00169479
0.00172379
0.00175248
0.00178084
0.00180886
0.00183651
0.00186376
0.0018906
0.00191699
0.00194291
0.00196832
0.00199321
0.0020175
0.00204111
0.00206419
0.00208678
0.00210892
0.00213061
0.00215186
0.00217265
0.002193
0.00221288
0.00223228
0.00225122
0.00226967
0.00228762
0.00230509
0.00232204
0.0023385
0.00235444
0.00236986
0.00238476
0.00239914
0.00241298
0.0024263
0.00243908
0.00245132
0.00246302
0.00247417
0.00248478
0.00249485
0.00250436
0.00251333
0.00252174
0.0025296
0.0025369
0.00254365
0.00254984
0.00255548
0.00256056
0.00256508
0.00256904
0.00257245
0.00257529
0.00257758
0.00257932
0.00258049
0.00258111
0.00258118
0.00258069
0.00257965
0.00257807
0.00257594
0.00257327
0.00257006
0.00256631
0.00256204
0.00255724
0.00255192
0.00254608
0.00253974
0.00253291
0.00252558
0.00251777
0.0025095
0.00250077
0.00249159
0.00248197
0.00247191
0.00246139
0.00245036
0.00243871
0.00242621
0.00241254
0.00239783
0.00238236
0.00236631
0.0023498
0.00233289
0.00231563
0.00229805
0.00228018
0.00226204
0.00224365
0.00222503
0.0022062
0.00218718
0.00216798
0.00214861
0.00212911
0.00210947
0.00208973
0.00206988
0.00204996
0.00202996
0.00200991
0.00198982
0.00196969
0.00194953
0.00192935
0.00190913
0.00188887
0.00186852
0.00184801
0.00182718
0.00180569
0.00178266
0.00175516
0.00171524
1.0693e-05
8.47904e-05
0.000166221
0.000228077
0.000272834
0.000305133
0.000329009
0.000347616
0.000363288
0.000377645
0.000391749
0.000406261
0.00042158
0.000437956
0.000455561
0.000474523
0.000494942
0.00051689
0.000540414
0.000565529
0.000592218
0.000620434
0.000650103
0.000681132
0.00071341
0.000746819
0.000781235
0.000816536
0.000852604
0.000889329
0.000926609
0.000964352
0.00100248
0.00104091
0.00107959
0.00111846
0.00115748
0.00119661
0.00123581
0.00127505
0.00131432
0.00135358
0.00139284
0.00143205
0.00147123
0.00151034
0.00154937
0.00158832
0.00162717
0.00166589
0.00170449
0.00174294
0.00178122
0.00181933
0.00185723
0.00189491
0.00193235
0.00196953
0.00200644
0.00204304
0.00207931
0.00211524
0.0021508
0.00218597
0.00222072
0.00225504
0.00228889
0.00232225
0.0023551
0.00238741
0.00241916
0.00245034
0.00248092
0.00251078
0.00253997
0.00256856
0.00259659
0.00262406
0.002651
0.0026774
0.00270325
0.00272854
0.00275327
0.00277743
0.00280101
0.00282401
0.00284641
0.00286821
0.0028894
0.00290997
0.00292992
0.00294925
0.00296794
0.002986
0.00300341
0.00302017
0.00303628
0.00305174
0.00306654
0.00308068
0.00309415
0.00310695
0.00311908
0.00313054
0.00314133
0.00315144
0.00316087
0.00316962
0.00317769
0.00318507
0.00319177
0.00319779
0.00320312
0.00320777
0.00321172
0.003215
0.00321758
0.00321948
0.00322069
0.00322123
0.00322107
0.00322024
0.00321873
0.00321655
0.00321369
0.00321017
0.00320598
0.00320114
0.00319564
0.0031895
0.00318272
0.00317531
0.00316728
0.00315864
0.0031494
0.00313958
0.00312918
0.00311821
0.00310669
0.00309459
0.00308193
0.00306865
0.00305467
0.00303986
0.00302405
0.00300727
0.00298969
0.00297143
0.00295259
0.00293324
0.00291343
0.0028932
0.00287259
0.00285161
0.0028303
0.00280867
0.00278675
0.00276456
0.00274213
0.00271946
0.00269659
0.00267353
0.0026503
0.00262693
0.00260342
0.0025798
0.00255608
0.00253228
0.00250842
0.0024845
0.00246053
0.00243652
0.00241243
0.00238826
0.0023639
0.00233922
0.00231383
0.00228691
0.00225622
0.00221722
1.13762e-05
9.6312e-05
0.000188301
0.000259275
0.00031168
0.000350393
0.000379703
0.000403001
0.000422833
0.000441021
0.000458813
0.000477027
0.000496182
0.000516608
0.000538512
0.000562029
0.000587243
0.000614196
0.0006429
0.000673332
0.00070544
0.000739148
0.000774359
0.000810963
0.000848836
0.000887854
0.000927891
0.000968825
0.00101054
0.00105292
0.00109588
0.00113931
0.00118315
0.00122731
0.00127174
0.00131638
0.00136118
0.0014061
0.0014511
0.00149616
0.00154124
0.00158632
0.00163138
0.0016764
0.00172135
0.00176623
0.00181101
0.00185568
0.00190022
0.00194461
0.00198883
0.00203286
0.00207669
0.00212028
0.00216364
0.00220672
0.0022495
0.00229198
0.00233411
0.00237589
0.00241727
0.00245825
0.0024988
0.00253888
0.00257849
0.00261759
0.00265615
0.00269417
0.00273161
0.00276846
0.00280469
0.00284028
0.00287522
0.0029094
0.00294289
0.00297574
0.00300797
0.00303959
0.00307061
0.00310102
0.00313081
0.00315999
0.00318854
0.00321645
0.00324371
0.00327032
0.00329626
0.00332153
0.00334612
0.00337002
0.00339322
0.00341573
0.00343752
0.0034586
0.00347896
0.00349859
0.00351748
0.00353565
0.00355307
0.00356974
0.00358567
0.00360084
0.00361525
0.00362891
0.0036418
0.00365393
0.00366529
0.00367588
0.0036857
0.00369474
0.00370301
0.0037105
0.00371721
0.00372314
0.00372829
0.00373266
0.00373625
0.00373905
0.00374107
0.00374232
0.00374278
0.00374247
0.00374138
0.00373952
0.00373689
0.00373349
0.00372933
0.00372442
0.00371876
0.00371236
0.00370523
0.00369736
0.00368878
0.0036795
0.00366952
0.00365886
0.00364752
0.00363553
0.00362288
0.00360958
0.00359562
0.00358096
0.00356557
0.00354936
0.00353224
0.00351423
0.00349539
0.00347583
0.00345561
0.0034348
0.00341344
0.00339159
0.00336926
0.0033465
0.00332332
0.00329976
0.00327583
0.00325157
0.003227
0.00320213
0.003177
0.00315162
0.00312602
0.00310021
0.00307423
0.0030481
0.00302183
0.00299544
0.00296895
0.00294238
0.00291574
0.00288904
0.00286227
0.00283541
0.00280839
0.00278108
0.00275314
0.00272388
0.0026917
0.00265429
1.23156e-05
0.000101796
0.000203392
0.000283527
0.000343733
0.000389043
0.000423992
0.000452185
0.000476352
0.00049849
0.000520002
0.000541843
0.000564639
0.000588787
0.000614534
0.000642025
0.000671334
0.000702485
0.000735463
0.000770221
0.000806686
0.000844764
0.000884347
0.000925316
0.000967549
0.00101092
0.0010553
0.00110058
0.00114664
0.00119338
0.00124071
0.00128852
0.00133675
0.00138532
0.00143416
0.00148323
0.00153247
0.00158184
0.00163129
0.0016808
0.00173033
0.00177986
0.00182936
0.0018788
0.00192816
0.00197743
0.00202657
0.00207558
0.00212443
0.0021731
0.00222157
0.00226982
0.00231782
0.00236557
0.00241302
0.00246017
0.00250698
0.00255344
0.00259951
0.00264518
0.00269042
0.00273521
0.00277952
0.00282333
0.00286661
0.00290934
0.0029515
0.00299307
0.00303402
0.00307434
0.00311401
0.003153
0.00319129
0.00322882
0.00326565
0.00330181
0.00333732
0.00337219
0.00340641
0.00343999
0.00347291
0.00350518
0.00353677
0.00356769
0.00359791
0.00362744
0.00365626
0.00368436
0.00371174
0.00373838
0.00376427
0.00378941
0.00381379
0.00383741
0.00386025
0.00388231
0.00390358
0.00392406
0.00394374
0.00396262
0.00398069
0.00399794
0.00401438
0.00403
0.00404479
0.00405876
0.00407189
0.00408419
0.00409565
0.00410626
0.00411604
0.00412497
0.00413305
0.00414029
0.00414667
0.0041522
0.00415688
0.00416071
0.00416369
0.00416581
0.00416708
0.0041675
0.00416707
0.0041658
0.00416368
0.00416072
0.00415693
0.00415232
0.00414687
0.00414061
0.00413354
0.00412567
0.00411701
0.00410757
0.00409736
0.00408639
0.00407468
0.00406224
0.00404906
0.00403517
0.00402055
0.00400518
0.00398905
0.0039721
0.0039543
0.00393563
0.00391615
0.00389592
0.00387498
0.00385338
0.00383119
0.00380842
0.00378512
0.00376132
0.00373704
0.00371231
0.00368716
0.00366161
0.0036357
0.00360943
0.00358285
0.00355597
0.00352881
0.00350141
0.00347379
0.00344596
0.00341796
0.00338982
0.00336154
0.00333316
0.00330469
0.00327615
0.00324754
0.00321886
0.00319006
0.00316104
0.00313153
0.00310098
0.00306829
0.0030322
1.30997e-05
0.000104475
0.000213421
0.000301675
0.000369276
0.000421078
0.000461704
0.000494887
0.000523489
0.000549634
0.00057485
0.000600201
0.000626402
0.000653917
0.000683033
0.000713913
0.000746635
0.000781217
0.000817631
0.000855819
0.0008957
0.000937172
0.000980125
0.00102444
0.00106999
0.00111667
0.00116434
0.0012129
0.00126223
0.00131225
0.00136284
0.00141393
0.00146545
0.0015173
0.00156945
0.00162182
0.00167436
0.00172703
0.00177979
0.0018326
0.00188543
0.00193824
0.00199101
0.00204372
0.00209633
0.00214882
0.00220118
0.00225339
0.00230541
0.00235723
0.00240883
0.00246018
0.00251127
0.00256207
0.00261257
0.00266272
0.00271253
0.00276195
0.00281097
0.00285955
0.00290769
0.00295535
0.0030025
0.00304913
0.00309521
0.00314072
0.00318563
0.00322993
0.00327359
0.0033166
0.00335894
0.0034006
0.0034415
0.00348166
0.00352113
0.00355993
0.00359806
0.00363553
0.00367234
0.00370849
0.00374397
0.00377876
0.00381287
0.00384627
0.00387896
0.00391092
0.00394215
0.00397264
0.00400236
0.00403133
0.00405951
0.00408691
0.00411352
0.00413933
0.00416433
0.00418851
0.00421186
0.00423439
0.00425607
0.00427691
0.0042969
0.00431603
0.00433431
0.00435171
0.00436825
0.00438392
0.0043987
0.00441261
0.00442562
0.00443774
0.00444898
0.00445931
0.00446876
0.0044773
0.00448494
0.00449167
0.0044975
0.00450242
0.00450645
0.00450956
0.00451176
0.00451306
0.00451345
0.00451296
0.00451155
0.00450925
0.00450605
0.00450197
0.004497
0.00449117
0.00448446
0.00447691
0.0044685
0.00445926
0.0044492
0.00443832
0.00442663
0.00441416
0.0044009
0.00438686
0.00437205
0.00435646
0.00434007
0.00432287
0.00430483
0.00428595
0.00426626
0.00424579
0.00422459
0.0042027
0.00418016
0.00415699
0.00413324
0.00410893
0.0040841
0.00405877
0.00403296
0.0040067
0.00398003
0.00395296
0.00392552
0.00389773
0.00386964
0.00384125
0.00381259
0.0037837
0.0037546
0.00372531
0.00369587
0.00366631
0.00363664
0.00360689
0.00357709
0.00354724
0.00351733
0.00348727
0.00345688
0.00342574
0.00339308
0.00335821
1.37212e-05
0.000105182
0.00021933
0.000314394
0.000388696
0.000446651
0.000492811
0.000530938
0.000563961
0.000594084
0.000622922
0.000651622
0.000680974
0.000711501
0.000743531
0.000777256
0.000812768
0.00085009
0.000889198
0.000930034
0.000972514
0.00101654
0.001062
0.00110879
0.00115678
0.00120585
0.00125591
0.00130682
0.00135851
0.00141085
0.00146377
0.00151719
0.00157101
0.00162518
0.00167964
0.00173431
0.00178916
0.00184413
0.00189919
0.00195429
0.0020094
0.00206449
0.00211953
0.0021745
0.00222937
0.00228411
0.00233871
0.00239314
0.00244739
0.00250143
0.00255524
0.00260881
0.0026621
0.0027151
0.00276779
0.00282014
0.00287213
0.00292373
0.00297493
0.0030257
0.00307601
0.00312583
0.00317515
0.00322394
0.00327218
0.00331984
0.0033669
0.00341334
0.00345913
0.00350427
0.00354874
0.0035925
0.00363552
0.00367783
0.00371946
0.00376043
0.00380073
0.00384038
0.00387937
0.00391769
0.00395533
0.00399228
0.00402853
0.00406407
0.00409889
0.00413296
0.00416629
0.00419886
0.00423065
0.00426166
0.00429187
0.00432127
0.00434987
0.00437763
0.00440457
0.00443066
0.0044559
0.00448028
0.0045038
0.00452644
0.00454819
0.00456906
0.00458903
0.00460811
0.00462628
0.00464355
0.00465991
0.00467534
0.00468985
0.00470343
0.00471608
0.0047278
0.00473859
0.00474845
0.00475735
0.00476531
0.00477232
0.00477838
0.00478352
0.0047877
0.00479092
0.00479318
0.00479451
0.00479489
0.00479433
0.00479283
0.00479039
0.00478703
0.00478274
0.00477754
0.00477143
0.00476441
0.00475651
0.00474773
0.00473808
0.00472757
0.00471621
0.00470401
0.00469099
0.00467714
0.00466249
0.00464702
0.00463073
0.00461362
0.00459568
0.0045769
0.00455732
0.00453695
0.00451582
0.00449398
0.00447144
0.00444825
0.00442442
0.0044
0.00437501
0.00434948
0.00432343
0.00429689
0.00426989
0.00424245
0.0042146
0.00418636
0.00415777
0.00412885
0.00409963
0.00407013
0.00404039
0.00401045
0.00398032
0.00395004
0.00391965
0.00388919
0.00385867
0.00382814
0.00379758
0.00376698
0.00373618
0.0037049
0.0036726
0.00363885
1.41995e-05
0.000104367
0.000221779
0.00032229
0.00040245
0.000466057
0.000517453
0.000560342
0.000597657
0.000631638
0.000663949
0.000695797
0.000728029
0.00076122
0.000795741
0.000831815
0.000869558
0.000909009
0.000950157
0.000992949
0.00103731
0.00108315
0.00113036
0.00117884
0.00122847
0.00127915
0.00133077
0.00138321
0.00143639
0.00149022
0.00154459
0.00159945
0.0016547
0.00171028
0.00176614
0.00182221
0.00187844
0.0019348
0.00199123
0.00204771
0.0021042
0.00216067
0.0022171
0.00227345
0.00232972
0.00238586
0.00244188
0.00249774
0.00255342
0.00260892
0.0026642
0.00271925
0.00277405
0.00282857
0.00288281
0.00293672
0.00299029
0.0030435
0.00309632
0.00314872
0.00320069
0.00325218
0.00330319
0.00335367
0.00340362
0.00345299
0.00350177
0.00354994
0.00359748
0.00364436
0.00369057
0.00373608
0.00378089
0.00382503
0.00386852
0.00391136
0.00395356
0.00399511
0.004036
0.00407624
0.00411579
0.00415466
0.00419284
0.00423029
0.00426702
0.004303
0.00433823
0.00437269
0.00440636
0.00443923
0.0044713
0.00450255
0.00453296
0.00456254
0.00459127
0.00461913
0.00464613
0.00467225
0.00469748
0.0047218
0.00474522
0.00476773
0.00478932
0.00480998
0.00482972
0.00484853
0.00486641
0.00488332
0.00489929
0.00491429
0.00492833
0.00494142
0.00495354
0.00496471
0.00497489
0.00498409
0.0049923
0.00499954
0.00500581
0.00501109
0.00501538
0.0050187
0.00502104
0.0050224
0.00502279
0.0050222
0.00502065
0.00501814
0.00501467
0.00501025
0.00500489
0.0049986
0.00499138
0.00498325
0.00497421
0.00496428
0.00495346
0.00494178
0.00492923
0.00491583
0.00490158
0.00488649
0.00487057
0.00485381
0.00483622
0.0048178
0.00479856
0.00477853
0.00475773
0.00473618
0.00471392
0.00469096
0.00466735
0.00464311
0.00461826
0.00459284
0.00456686
0.00454035
0.00451335
0.00448587
0.00445794
0.00442959
0.00440085
0.00437175
0.00434231
0.00431257
0.00428255
0.0042523
0.00422184
0.00419122
0.00416048
0.00412965
0.00409879
0.00406793
0.0040371
0.00400629
0.00397542
0.00394428
0.00391249
0.00387977
1.45524e-05
0.000102383
0.000221346
0.000325951
0.000411045
0.000479688
0.000535903
0.000583256
0.000624631
0.00066226
0.00069783
0.000732581
0.000767403
0.000802913
0.000839522
0.000877485
0.000916948
0.000957971
0.00100056
0.00104468
0.00109026
0.00113723
0.00118548
0.00123492
0.00128545
0.00133696
0.00138935
0.00144252
0.00149639
0.00155085
0.00160584
0.00166128
0.00171709
0.00177322
0.0018296
0.00188619
0.00194295
0.00199983
0.00205679
0.00211381
0.00217085
0.0022279
0.00228492
0.0023419
0.00239882
0.00245565
0.00251239
0.00256901
0.0026255
0.00268184
0.00273801
0.002794
0.00284977
0.00290532
0.00296062
0.00301565
0.00307038
0.00312478
0.00317883
0.00323251
0.00328578
0.00333861
0.00339099
0.00344286
0.00349422
0.00354503
0.00359527
0.00364491
0.00369393
0.0037423
0.00379002
0.00383707
0.00388349
0.00392928
0.00397444
0.00401899
0.00406291
0.0041062
0.00414885
0.00419085
0.00423218
0.00427284
0.00431279
0.00435204
0.00439055
0.00442832
0.00446532
0.00450155
0.00453699
0.00457162
0.00460543
0.00463842
0.00467056
0.00470185
0.00473228
0.00476184
0.00479051
0.00481829
0.00484516
0.0048711
0.00489612
0.0049202
0.00494335
0.00496555
0.00498681
0.00500712
0.00502648
0.00504485
0.00506224
0.00507865
0.00509407
0.0051085
0.00512195
0.00513441
0.00514586
0.00515631
0.00516576
0.0051742
0.00518164
0.00518808
0.00519351
0.00519793
0.00520135
0.00520377
0.00520518
0.00520561
0.00520504
0.00520348
0.00520094
0.00519743
0.00519295
0.0051875
0.00518111
0.00517377
0.00516551
0.00515632
0.00514622
0.00513521
0.00512332
0.00511056
0.00509692
0.00508242
0.00506706
0.00505086
0.00503382
0.00501594
0.00499724
0.00497774
0.00495745
0.0049364
0.00491462
0.00489212
0.00486894
0.0048451
0.00482063
0.00479554
0.00476988
0.00474365
0.0047169
0.00468963
0.00466189
0.0046337
0.00460508
0.00457606
0.00454668
0.00451697
0.00448696
0.00445668
0.00442618
0.0043955
0.00436468
0.00433377
0.00430284
0.00427192
0.00424108
0.00421031
0.00417959
0.00414877
0.00411757
0.00408578
1.47942e-05
9.95303e-05
0.000218553
0.000325946
0.000415007
0.000487987
0.000548507
0.000599929
0.000645037
0.000686024
0.000724568
0.000761925
0.000799011
0.000836474
0.00087476
0.000914156
0.000954835
0.000996883
0.00104033
0.00108514
0.00113129
0.00117869
0.00122726
0.00127692
0.00132757
0.00137912
0.00143146
0.00148453
0.00153823
0.00159248
0.00164721
0.00170235
0.00175785
0.00181365
0.0018697
0.00192597
0.00198241
0.002039
0.0020957
0.0021525
0.00220936
0.00226628
0.00232322
0.00238019
0.00243716
0.00249411
0.00255104
0.00260792
0.00266475
0.00272149
0.00277815
0.00283469
0.00289109
0.00294734
0.00300341
0.00305927
0.00311489
0.00317025
0.00322532
0.00328006
0.00333444
0.00338843
0.00344199
0.0034951
0.00354771
0.00359981
0.00365135
0.00370231
0.00375267
0.00380239
0.00385151
0.00390003
0.00394796
0.00399531