/*--------------------------------*- C++ -*----------------------------------*\
| =========                 |                                                 |
| \\      /  F ield         | OpenFOAM: The Open Source CFD Toolbox           |
|  \\    /   O peration     | Version:  2412                                  |
|   \\  /    A nd           | Website:  www.openfoam.com                      |
|    \\/     M anipulation  |                                                 |
\*---------------------------------------------------------------------------*/
FoamFile
{
    version     2.0;
    format      ascii;
    arch        "LSB;label=32;scalar=64";
    class       volScalarField;
    location    "0.28";
    object      p;
}
// * * * * * * * * * * * * * * * * * * * * * * * * * * * * * * * * * * * * * //

dimensions      [0 2 -2 0 0 0 0];

internalField   nonuniform List<scalar> 
12225
(
-10.3275
-9.73512
-9.07241
-8.51598
-8.00693
-7.55049
-7.15194
-6.80095
-6.48861
-6.20934
-5.95823
-5.73079
-5.52318
-5.33205
-5.15435
-4.98656
-4.82647
-4.65958
-10.7613
-9.7933
-9.10722
-8.55696
-8.04723
-7.59074
-7.19156
-6.83916
-6.52518
-6.24422
-5.99138
-5.76221
-5.5529
-5.36008
-5.18071
-5.01138
-4.84927
-4.69113
-10.9417
-9.82758
-9.14897
-8.60783
-8.09763
-7.64202
-7.24297
-6.88951
-6.574
-6.29124
-6.03646
-5.80528
-5.59393
-5.39912
-5.21781
-5.04682
-4.8833
-4.72221
-10.9656
-9.84329
-9.17365
-8.64178
-8.13428
-7.68153
-7.28436
-6.93146
-6.61578
-6.33242
-6.07672
-5.84443
-5.63189
-5.43591
-5.25354
-5.08204
-4.91814
-4.76101
-10.8954
-9.838
-9.17394
-8.65256
-8.1521
-7.70428
-7.31066
-6.95996
-6.64558
-6.36291
-6.10745
-5.87513
-5.66244
-5.46633
-5.28404
-5.11333
-4.95088
-4.80163
-10.7536
-9.80486
-9.15045
-8.6417
-8.15288
-7.71225
-7.32378
-6.97679
-6.66498
-6.38408
-6.12985
-5.89842
-5.68646
-5.49115
-5.30994
-5.14114
-4.98158
-4.84087
-10.551
-9.73843
-9.1042
-8.61002
-8.1373
-7.70665
-7.32508
-6.98329
-6.67529
-6.39721
-6.14514
-5.91545
-5.70506
-5.51138
-5.33215
-5.16615
-5.01045
-4.87802
-10.2981
-9.63609
-9.03602
-8.55807
-8.10528
-7.68785
-7.31513
-6.98012
-6.67726
-6.40308
-6.1541
-5.92702
-5.71902
-5.52779
-5.35135
-5.1889
-5.0377
-4.91314
-10.0056
-9.49755
-8.94704
-8.48749
-8.05735
-7.65645
-7.2947
-6.96804
-6.67166
-6.40251
-6.1576
-5.934
-5.7292
-5.54119
-5.36829
-5.20998
-5.06371
-4.94646
-9.68484
-9.3248
-8.83862
-8.40115
-7.9952
-7.61376
-7.26509
-6.94827
-6.65966
-6.39664
-6.15673
-5.93745
-5.73664
-5.55258
-5.38385
-5.23016
-5.08903
-4.97848
-9.34794
-9.12261
-8.7124
-8.30259
-7.92178
-7.56201
-7.2284
-6.92271
-6.64295
-6.38702
-6.15297
-5.93878
-5.74264
-5.56314
-5.39909
-5.25036
-5.11435
-5.01003
-9.03593
-8.91683
-8.58265
-8.20441
-7.84753
-7.50911
-7.19096
-6.89649
-6.62558
-6.37686
-6.1488
-5.93982
-5.74846
-5.57356
-5.41411
-5.27009
-5.13857
-5.03985
-8.74092
-8.70243
-8.44409
-8.10216
-7.7695
-7.45308
-7.15168
-6.86923
-6.60765
-6.36659
-6.14494
-5.94154
-5.75527
-5.58521
-5.4305
-5.29116
-5.16455
-5.06915
-8.43383
-8.45798
-8.27847
-7.98264
-7.67872
-7.38784
-7.10716
-6.83975
-6.58954
-6.35768
-6.14376
-5.94704
-5.76678
-5.60234
-5.45305
-5.31891
-5.19762
-5.10472
-8.1367
-8.20371
-8.09586
-7.85189
-7.58042
-7.31712
-7.0604
-6.81134
-6.57494
-6.35411
-6.14939
-5.96053
-5.78718
-5.62902
-5.48557
-5.35689
-5.24083
-5.15005
-7.87826
-7.9716
-7.9214
-7.72848
-7.49033
-7.25341
-7.02045
-6.79091
-6.56963
-6.36098
-6.16655
-5.98655
-5.82092
-5.66958
-5.53224
-5.409
-5.29791
-5.20868
-7.69059
-7.79868
-7.78997
-7.64115
-7.43439
-7.22084
-7.0084
-6.79626
-6.58863
-6.39074
-6.20527
-6.03295
-5.87393
-5.72831
-5.59587
-5.47663
-5.36896
-5.27886
-7.61397
-7.72629
-7.7388
-7.61717
-7.43219
-7.23527
-7.03744
-6.83819
-6.64109
-6.45158
-6.27292
-6.10618
-5.95155
-5.80903
-5.67856
-5.55989
-5.45201
-5.35623
-7.71327
-7.8203
-7.82664
-7.69999
-7.51177
-7.31303
-7.11438
-6.91514
-6.7187
-6.53027
-6.3529
-6.18739
-6.03375
-5.89176
-5.7611
-5.64107
-5.53142
-5.42898
-7.98949
-8.0839
-8.05048
-7.87891
-7.65734
-7.43463
-7.21624
-7.00089
-6.79255
-6.59574
-6.41235
-6.24241
-6.08548
-5.94097
-5.80818
-5.68603
-5.57426
-5.46722
-8.38286
-8.44097
-8.33859
-8.10416
-7.83983
-7.58487
-7.33875
-7.10096
-6.87588
-6.66662
-6.47361
-6.29617
-6.13342
-5.98444
-5.84825
-5.7236
-5.61008
-5.50173
-8.88324
-8.86298
-8.65477
-8.34498
-8.03294
-7.73895
-7.45927
-7.19577
-6.95195
-6.72856
-6.52461
-6.33873
-6.16953
-6.01562
-5.87565
-5.74822
-5.63254
-5.52291
-9.44726
-9.29168
-8.94778
-8.56491
-8.20829
-7.87477
-7.56277
-7.27614
-7.01558
-6.77933
-6.56536
-6.37172
-6.19652
-6.03794
-5.89431
-5.76406
-5.64613
-5.53542
-10.0117
-9.66569
-9.18259
-8.74479
-8.35085
-7.98133
-7.6419
-7.33622
-7.06143
-6.81403
-6.59139
-6.39107
-6.21067
-6.048
-5.90116
-5.76838
-5.6484
-5.53681
-10.5157
-9.9472
-9.35155
-8.87974
-8.45315
-8.05267
-7.69185
-7.37136
-7.08523
-6.82905
-6.59974
-6.39432
-6.20999
-6.04426
-5.89501
-5.76036
-5.63888
-5.52681
-10.9172
-10.1248
-9.4583
-8.96616
-8.51104
-8.08711
-7.71139
-7.38032
-7.08604
-6.82371
-6.58983
-6.38099
-6.19406
-6.02636
-5.87561
-5.73982
-5.61746
-5.50535
-11.1885
-10.2083
-9.50853
-9.00183
-8.52547
-8.08667
-7.70143
-7.36341
-7.06395
-6.79792
-6.5614
-6.35071
-6.16248
-5.9939
-5.84258
-5.70643
-5.58388
-5.47228
-11.2958
-10.2237
-9.50918
-8.98611
-8.49772
-8.05137
-7.66055
-7.31872
-7.01693
-6.74953
-6.51234
-6.30144
-6.11335
-5.94512
-5.7943
-5.65874
-5.53679
-5.42638
-11.1631
-10.1939
-9.47416
-8.92848
-8.43517
-7.9865
-7.59333
-7.25066
-6.94921
-6.68271
-6.44674
-6.23728
-6.05074
-5.88409
-5.73482
-5.60077
-5.48021
-5.37137
-10.632
-10.1016
-9.43158
-8.87157
-8.37652
-7.9276
-7.53398
-7.19194
-6.89182
-6.62687
-6.39252
-6.18472
-5.9998
-5.83471
-5.68692
-5.55428
-5.43494
-5.32708
-4.7167
-4.71637
-4.71727
-4.71922
-4.72172
-4.72441
-4.72718
-4.73005
-4.73312
-4.73644
-4.74007
-4.74411
-4.74867
-4.75383
-4.7597
-4.76638
-4.77399
-4.78264
-4.79247
-4.8036
-4.81615
-4.83022
-4.84592
-4.86329
-4.88237
-4.90315
-4.92557
-4.94955
-4.97497
-5.0017
-5.02951
-5.05812
-5.08728
-5.11679
-5.14641
-5.17595
-5.20519
-5.23392
-5.26196
-5.28913
-5.31526
-5.34018
-5.36375
-5.3858
-5.40622
-5.42485
-5.44157
-5.45626
-5.46879
-5.47905
-5.48691
-5.49227
-5.49502
-5.49504
-5.49224
-5.48651
-5.47776
-5.46589
-5.45082
-5.43245
-5.41071
-5.38552
-5.35682
-5.32454
-5.28863
-5.24903
-5.20571
-5.15862
-5.10774
-5.05306
-4.99456
-4.93229
-4.86631
-4.79663
-4.72315
-4.6457
-4.56424
-4.47891
-4.38979
-4.29695
-4.20044
-4.10031
-3.99662
-3.88942
-3.77877
-3.66475
-3.54742
-3.42687
-3.30319
-3.17645
-3.04676
-2.91421
-2.7789
-2.64094
-2.50045
-2.35752
-2.21229
-2.06487
-1.91539
-1.76396
-1.61073
-1.45581
-1.29935
-1.14148
-0.982343
-0.822069
-0.660801
-0.498683
-0.335856
-0.172465
-0.00865247
0.155436
0.319656
0.483863
0.647915
0.811667
0.974978
1.13771
1.29972
1.46087
1.62103
1.78006
1.93784
2.09425
2.24915
2.40243
2.55397
2.70367
2.85142
2.99712
3.14067
3.28198
3.42098
3.55757
3.69169
3.82328
3.95226
4.07859
4.20223
4.32313
4.44128
4.55664
4.66921
4.77896
4.88584
4.98978
5.09075
5.18879
5.28393
5.37619
5.46561
5.5522
5.63599
5.71702
5.79532
5.87091
5.94383
6.01412
6.08183
6.14697
6.20961
6.26976
6.32749
6.38282
6.4358
6.48648
6.53489
6.5811
6.62516
6.66714
6.70714
6.74529
6.78178
6.8169
6.85114
6.88532
6.92136
6.96238
7.02022
7.09534
-4.7165
-4.71673
-4.7177
-4.71942
-4.72137
-4.7232
-4.72478
-4.72615
-4.72752
-4.72913
-4.73113
-4.73363
-4.7367
-4.7404
-4.74483
-4.75011
-4.75636
-4.76374
-4.77241
-4.78252
-4.79424
-4.80768
-4.82296
-4.84012
-4.85918
-4.88011
-4.90282
-4.92718
-4.95302
-4.98016
-5.00833
-5.03731
-5.06682
-5.09665
-5.12657
-5.15635
-5.1858
-5.21472
-5.24293
-5.27025
-5.29653
-5.32161
-5.34535
-5.3676
-5.38824
-5.40714
-5.42416
-5.43919
-5.45211
-5.46281
-5.47115
-5.47704
-5.48037
-5.48102
-5.47889
-5.47387
-5.46588
-5.45482
-5.44059
-5.42311
-5.4023
-5.37809
-5.3504
-5.31917
-5.28435
-5.24588
-5.20372
-5.15783
-5.10819
-5.05476
-4.99752
-4.93644
-4.87149
-4.8026
-4.72968
-4.65289
-4.57245
-4.4883
-4.40043
-4.30886
-4.21363
-4.11478
-4.01236
-3.90643
-3.79704
-3.68426
-3.56817
-3.44884
-3.32635
-3.20079
-3.07226
-2.94085
-2.80665
-2.66979
-2.53035
-2.38847
-2.24425
-2.09781
-1.94927
-1.79877
-1.64642
-1.49236
-1.33672
-1.17964
-1.02125
-0.861695
-0.701107
-0.539631
-0.377409
-0.214584
-0.0512996
0.1123
0.276071
0.43987
0.603553
0.766977
0.930001
1.09248
1.25429
1.41527
1.57531
1.73426
1.892
2.0484
2.20333
2.35669
2.50835
2.6582
2.80613
2.95206
3.09587
3.23748
3.3768
3.51375
3.64827
3.78028
3.90971
4.03653
4.16068
4.28213
4.40084
4.5168
4.62998
4.74035
4.84786
4.95244
5.0541
5.15285
5.2487
5.34169
5.43182
5.51914
5.60367
5.68542
5.76444
5.84076
5.9144
5.98541
6.05382
6.11967
6.18299
6.24383
6.30223
6.35822
6.41186
6.46317
6.51222
6.55905
6.60373
6.64634
6.68698
6.72578
6.76296
6.79884
6.83395
6.86914
6.90631
6.94761
7.00364
7.06987
-4.71083
-4.71248
-4.71462
-4.71675
-4.71845
-4.71963
-4.72041
-4.721
-4.72163
-4.72251
-4.72378
-4.72556
-4.72797
-4.73115
-4.73521
-4.74032
-4.74662
-4.75427
-4.76341
-4.77417
-4.78665
-4.80093
-4.81703
-4.83494
-4.85462
-4.87597
-4.8989
-4.92323
-4.94882
-4.97546
-5.00296
-5.03111
-5.05969
-5.08852
-5.11739
-5.14613
-5.17454
-5.20246
-5.22972
-5.25616
-5.28164
-5.30601
-5.32913
-5.35085
-5.37106
-5.38962
-5.40641
-5.42129
-5.43416
-5.44489
-5.45337
-5.45947
-5.4631
-5.46412
-5.46245
-5.45798
-5.4506
-5.44022
-5.42674
-5.41008
-5.39015
-5.36688
-5.34019
-5.31001
-5.27629
-5.23897
-5.19801
-5.15335
-5.10497
-5.05284
-4.99692
-4.93719
-4.87361
-4.80615
-4.73485
-4.6597
-4.58079
-4.49815
-4.4118
-4.32175
-4.22805
-4.13073
-4.02985
-3.92544
-3.81757
-3.70631
-3.59172
-3.47388
-3.35287
-3.22877
-3.10168
-2.97169
-2.8389
-2.7034
-2.56532
-2.42475
-2.28182
-2.13664
-1.98933
-1.84002
-1.68883
-1.53589
-1.38133
-1.22529
-1.0679
-0.909306
-0.749635
-0.589032
-0.427639
-0.265597
-0.103049
0.0598622
0.222992
0.386199
0.549339
0.71227
0.874851
1.03694
1.1984
1.3591
1.5189
1.67766
1.83526
1.99158
2.14648
2.29985
2.45158
2.60154
2.74965
2.89578
3.03985
3.18177
3.32144
3.45879
3.59374
3.72623
3.85619
3.98356
4.1083
4.23037
4.34972
4.46633
4.58018
4.69123
4.79946
4.90485
5.00738
5.10704
5.20382
5.29774
5.38882
5.47709
5.56256
5.64526
5.72522
5.80247
5.87704
5.94897
6.0183
6.08504
6.14926
6.21097
6.27023
6.32706
6.38153
6.43366
6.48351
6.53114
6.5766
6.61999
6.66142
6.70103
6.73906
6.77583
6.81191
6.84812
6.8863
6.92773
6.98164
7.03488
-4.69951
-4.70316
-4.7071
-4.7104
-4.71268
-4.71413
-4.71507
-4.71581
-4.71659
-4.71763
-4.71911
-4.72119
-4.72401
-4.72772
-4.73247
-4.73839
-4.74563
-4.7543
-4.76451
-4.77634
-4.78983
-4.805
-4.82184
-4.8403
-4.86032
-4.88179
-4.9046
-4.92861
-4.95367
-4.97962
-5.0063
-5.03353
-5.06114
-5.08895
-5.11679
-5.14451
-5.17193
-5.19891
-5.22528
-5.25091
-5.27564
-5.29933
-5.32186
-5.34307
-5.36285
-5.38107
-5.39759
-5.4123
-5.42506
-5.43576
-5.44428
-5.45051
-5.45431
-5.4556
-5.45424
-5.45015
-5.44321
-5.43332
-5.42039
-5.40434
-5.38506
-5.36249
-5.33654
-5.30715
-5.27425
-5.23779
-5.19771
-5.15397
-5.10653
-5.05535
-5.0004
-4.94166
-4.87909
-4.8127
-4.74251
-4.66853
-4.59081
-4.50936
-4.4242
-4.33536
-4.24287
-4.14677
-4.0471
-3.94391
-3.83726
-3.72721
-3.61382
-3.49718
-3.37736
-3.25445
-3.12852
-2.99968
-2.86803
-2.73365
-2.59667
-2.45718
-2.31531
-2.17116
-2.02487
-1.87654
-1.7263
-1.57429
-1.42063
-1.26546
-1.10891
-0.951115
-0.792213
-0.632343
-0.471648
-0.310266
-0.148341
0.0139849
0.17657
0.33927
0.501945
0.664452
0.82665
0.9884
1.14956
1.31
1.46959
1.62818
1.78565
1.94188
2.09674
2.25011
2.40188
2.55193
2.70015
2.84645
2.99073
3.13289
3.27284
3.41051
3.54582
3.6787
3.80908
3.93691
4.06213
4.18472
4.30463
4.42181
4.53624
4.64786
4.75668
4.86269
4.96588
5.06623
5.16373
5.25839
5.35023
5.43925
5.52548
5.60895
5.68968
5.7677
5.84304
5.91574
5.98582
6.05331
6.11827
6.18072
6.2407
6.29825
6.35342
6.40624
6.45678
6.50508
6.55121
6.59526
6.63734
6.67761
6.7163
6.75374
6.79045
6.82717
6.86547
6.90579
6.95544
6.99638
-4.685
-4.69077
-4.69722
-4.70239
-4.7059
-4.70826
-4.70999
-4.71147
-4.71298
-4.71478
-4.71709
-4.72008
-4.72392
-4.72873
-4.73467
-4.74183
-4.75034
-4.76027
-4.77168
-4.78463
-4.79912
-4.81514
-4.83266
-4.8516
-4.87191
-4.89347
-4.91619
-4.93993
-4.96457
-4.98996
-5.01596
-5.04243
-5.06922
-5.09616
-5.12313
-5.14995
-5.1765
-5.20263
-5.2282
-5.25305
-5.27707
-5.30012
-5.32205
-5.34274
-5.36206
-5.37989
-5.39608
-5.41052
-5.42309
-5.43366
-5.4421
-5.4483
-5.45215
-5.45353
-5.45232
-5.44842
-5.44171
-5.43211
-5.41951
-5.40383
-5.38496
-5.36283
-5.33736
-5.30848
-5.27613
-5.24023
-5.20075
-5.15763
-5.11084
-5.06032
-5.00607
-4.94804
-4.88623
-4.82063
-4.75125
-4.67811
-4.60123
-4.52063
-4.43632
-4.34833
-4.25669
-4.16145
-4.06265
-3.96032
-3.85454
-3.74536
-3.63284
-3.51706
-3.3981
-3.27603
-3.15095
-3.02294
-2.89211
-2.75856
-2.62238
-2.48368
-2.34258
-2.1992
-2.05365
-1.90604
-1.75652
-1.6052
-1.45221
-1.29768
-1.14175
-0.984557
-0.826231
-0.666912
-0.506741
-0.345858
-0.184404
-0.022521
0.139649
0.301965
0.464285
0.626467
0.78837
0.949857
1.11079
1.27103
1.43044
1.5889
1.74627
1.90242
2.05724
2.2106
2.36239
2.5125
2.66081
2.80723
2.95165
3.09399
3.23415
3.37205
3.50762
3.64078
3.77148
3.89965
4.02525
4.14822
4.26853
4.38613
4.50097
4.61302
4.72226
4.8287
4.93234
5.03316
5.13116
5.22633
5.31869
5.40826
5.49504
5.57907
5.66036
5.73895
5.81485
5.88811
5.95876
6.02682
6.09234
6.15534
6.21588
6.27397
6.32968
6.38303
6.43409
6.4829
6.52954
6.57408
6.61665
6.65738
6.6965
6.73431
6.77128
6.80797
6.84561
6.88395
6.92881
6.95929
-4.67106
-4.67875
-4.68767
-4.69485
-4.69986
-4.70348
-4.70636
-4.70894
-4.71155
-4.71449
-4.71799
-4.72222
-4.72736
-4.73352
-4.74082
-4.74936
-4.7592
-4.77041
-4.78301
-4.79703
-4.81244
-4.82922
-4.84733
-4.86669
-4.88724
-4.90887
-4.93149
-4.955
-4.97927
-5.00418
-5.02961
-5.05543
-5.08151
-5.10772
-5.13392
-5.15999
-5.18578
-5.21117
-5.23602
-5.2602
-5.28358
-5.30603
-5.32742
-5.34762
-5.3665
-5.38394
-5.3998
-5.41396
-5.42629
-5.43667
-5.44497
-5.45108
-5.45488
-5.45625
-5.45507
-5.45123
-5.44464
-5.43517
-5.42274
-5.40725
-5.38861
-5.36674
-5.34155
-5.31298
-5.28096
-5.24542
-5.20631
-5.16359
-5.11721
-5.06713
-5.01334
-4.9558
-4.8945
-4.82944
-4.76062
-4.68805
-4.61174
-4.53171
-4.44798
-4.36058
-4.26954
-4.17489
-4.07668
-3.97496
-3.86978
-3.7612
-3.64929
-3.53412
-3.41577
-3.29431
-3.16983
-3.04243
-2.9122
-2.77923
-2.64364
-2.50552
-2.365
-2.22217
-2.07717
-1.93011
-1.78112
-1.63031
-1.47782
-1.32379
-1.16833
-1.0116
-0.853712
-0.694818
-0.535052
-0.374556
-0.213469
-0.0519333
0.109911
0.271921
0.433957
0.595878
0.757542
0.918813
1.07955
1.23962
1.39889
1.55723
1.7145
1.87058
2.02535
2.17869
2.33047
2.4806
2.62896
2.77545
2.91997
3.06242
3.20272
3.34078
3.47654
3.60991
3.74083
3.86925
3.99511
4.11835
4.23894
4.35683
4.47197
4.58432
4.69387
4.80063
4.9046
5.00577
5.10413
5.19968
5.29244
5.38241
5.4696
5.55405
5.63577
5.71479
5.79113
5.86483
5.93591
6.00442
6.07037
6.13382
6.19478
6.25331
6.30944
6.36321
6.41468
6.46389
6.51091
6.55583
6.59874
6.63979
6.67916
6.71712
6.75404
6.79034
6.82688
6.86287
6.90329
6.92501
-4.66105
-4.66994
-4.68073
-4.68968
-4.69619
-4.70112
-4.70523
-4.70902
-4.71286
-4.71705
-4.72182
-4.72735
-4.73381
-4.74131
-4.74993
-4.75975
-4.77082
-4.78316
-4.7968
-4.81173
-4.82792
-4.84534
-4.86393
-4.88363
-4.90436
-4.92605
-4.94861
-4.97192
-4.9959
-5.02044
-5.04542
-5.07073
-5.09625
-5.12188
-5.14747
-5.17293
-5.19811
-5.2229
-5.24716
-5.27079
-5.29364
-5.31559
-5.33652
-5.35629
-5.37479
-5.39187
-5.40741
-5.4213
-5.43339
-5.44356
-5.45169
-5.45766
-5.46135
-5.46264
-5.4614
-5.45754
-5.45094
-5.4415
-5.42911
-5.41369
-5.39513
-5.37336
-5.3483
-5.31987
-5.288
-5.25264
-5.21373
-5.17121
-5.12506
-5.07523
-5.0217
-4.96445
-4.90345
-4.83872
-4.77024
-4.69802
-4.62206
-4.54239
-4.45903
-4.37201
-4.28134
-4.18708
-4.08927
-3.98794
-3.88317
-3.775
-3.6635
-3.54874
-3.43081
-3.30977
-3.18572
-3.05874
-2.92894
-2.7964
-2.66123
-2.52354
-2.38343
-2.24103
-2.09644
-1.94979
-1.80119
-1.65078
-1.49868
-1.34502
-1.18994
-1.03356
-0.876025
-0.717467
-0.558026
-0.397842
-0.237054
-0.0758032
0.0857702
0.247526
0.409322
0.571019
0.732476
0.893555
1.05412
1.21403
1.37316
1.53138
1.68855
1.84454
1.99925
2.15254
2.3043
2.45441
2.60278
2.74929
2.89385
3.03636
3.17675
3.31491
3.45078
3.58429
3.71536
3.84394
3.96997
4.0934
4.21418
4.33227
4.44762
4.5602
4.66998
4.77699
4.8812
4.98263
5.08126
5.1771
5.27016
5.36043
5.44795
5.53272
5.61478
5.69413
5.77082
5.84486
5.9163
5.98515
6.05146
6.11525
6.17657
6.23545
6.29192
6.34603
6.39783
6.44735
6.49468
6.53987
6.58303
6.62426
6.66375
6.70169
6.73836
6.77402
6.80923
6.8428
6.87926
6.89363
-4.65648
-4.66587
-4.6777
-4.68792
-4.69565
-4.70175
-4.707
-4.71194
-4.71694
-4.72229
-4.72824
-4.73496
-4.7426
-4.75126
-4.76101
-4.77191
-4.78399
-4.79728
-4.81175
-4.82741
-4.84422
-4.86214
-4.88112
-4.90109
-4.92198
-4.94373
-4.96624
-4.98943
-5.0132
-5.03747
-5.06212
-5.08706
-5.11218
-5.13736
-5.16251
-5.1875
-5.21222
-5.23655
-5.26037
-5.28356
-5.306
-5.32756
-5.34811
-5.36753
-5.3857
-5.40248
-5.41774
-5.43137
-5.44323
-5.45319
-5.46114
-5.46694
-5.47048
-5.47163
-5.47028
-5.46632
-5.45963
-5.45011
-5.43767
-5.4222
-5.40361
-5.38181
-5.35674
-5.32831
-5.29646
-5.26112
-5.22225
-5.1798
-5.13371
-5.08397
-5.03055
-4.97341
-4.91256
-4.84797
-4.77966
-4.70761
-4.63184
-4.55236
-4.46919
-4.38237
-4.29192
-4.19788
-4.10029
-3.9992
-3.89467
-3.78675
-3.67552
-3.56103
-3.44337
-3.32261
-3.19884
-3.07216
-2.94265
-2.81041
-2.67555
-2.53816
-2.39836
-2.25627
-2.11198
-1.96564
-1.81735
-1.66724
-1.51544
-1.36208
-1.20729
-1.0512
-0.893945
-0.735661
-0.576486
-0.41656
-0.256023
-0.0950132
0.0663285
0.227863
0.389449
0.550946
0.712215
0.873118
1.03352
1.19328
1.35227
1.51036
1.66742
1.82332
1.97793
2.13115
2.28285
2.43293
2.58126
2.72776
2.87233
3.01486
3.15527
3.29348
3.42941
3.56298
3.69414
3.82281
3.94895
4.07249
4.1934
4.31161
4.42711
4.53984
4.64979
4.75697
4.86137
4.96299
5.06182
5.15787
5.25115
5.34166
5.42942
5.51444
5.59675
5.67637
5.75333
5.82765
5.89936
5.96849
6.03508
6.09916
6.16076
6.21992
6.27667
6.33106
6.38311
6.43289
6.48044
6.52584
6.56915
6.61048
6.64997
6.68774
6.72401
6.75887
6.79264
6.82382
6.85679
6.86503
-4.65759
-4.66686
-4.67896
-4.68983
-4.69838
-4.70536
-4.71154
-4.71742
-4.72339
-4.72972
-4.73665
-4.74435
-4.75294
-4.76253
-4.77317
-4.78492
-4.79778
-4.81178
-4.82689
-4.8431
-4.86038
-4.87868
-4.89795
-4.91813
-4.93916
-4.96096
-4.98346
-5.00657
-5.03022
-5.0543
-5.07874
-5.10343
-5.12827
-5.15316
-5.17799
-5.20266
-5.22706
-5.25106
-5.27456
-5.29744
-5.31957
-5.34083
-5.36109
-5.38024
-5.39814
-5.41467
-5.4297
-5.4431
-5.45474
-5.4645
-5.47224
-5.47785
-5.4812
-5.48218
-5.48066
-5.47653
-5.46969
-5.46002
-5.44743
-5.43181
-5.41309
-5.39117
-5.36598
-5.33743
-5.30548
-5.27005
-5.2311
-5.18857
-5.14243
-5.09265
-5.03919
-4.98205
-4.9212
-4.85663
-4.78834
-4.71632
-4.6406
-4.56117
-4.47807
-4.39132
-4.30095
-4.20701
-4.10952
-4.00855
-3.90414
-3.79636
-3.68526
-3.57093
-3.45344
-3.33286
-3.20928
-3.08279
-2.95348
-2.82145
-2.6868
-2.54963
-2.41006
-2.2682
-2.12415
-1.97804
-1.82999
-1.68012
-1.52857
-1.37545
-1.22089
-1.06504
-0.908018
-0.749966
-0.591019
-0.431317
-0.270999
-0.110203
0.0509313
0.212264
0.373656
0.534967
0.696057
0.85679
1.01703
1.17664
1.33548
1.49343
1.65036
1.80615
1.96066
2.11378
2.2654
2.41541
2.56368
2.71013
2.85466
2.99716
3.13756
3.27577
3.4117
3.5453
3.67648
3.80519
3.93137
4.05497
4.17594
4.29423
4.40981
4.52264
4.6327
4.74
4.84452
4.94627
5.04525
5.14145
5.23489
5.32557
5.4135
5.49872
5.58122
5.66104
5.73821
5.81274
5.88468
5.95403
6.02085
6.08516
6.14699
6.20637
6.26335
6.31795
6.37022
6.42019
6.46791
6.51344
6.55685
6.59819
6.63758
6.6751
6.71085
6.7448
6.77709
6.806
6.83588
6.839
-4.66377
-4.67244
-4.68412
-4.69504
-4.70396
-4.71148
-4.71828
-4.72486
-4.73155
-4.73862
-4.74629
-4.75472
-4.76402
-4.77429
-4.78558
-4.79793
-4.81135
-4.82585
-4.84141
-4.85802
-4.87563
-4.8942
-4.91368
-4.93402
-4.95515
-4.97701
-4.99952
-5.0226
-5.04618
-5.07017
-5.09448
-5.11902
-5.1437
-5.16841
-5.19305
-5.21753
-5.24172
-5.26551
-5.2888
-5.31147
-5.33339
-5.35444
-5.37449
-5.39343
-5.41113
-5.42745
-5.44227
-5.45546
-5.46689
-5.47644
-5.48397
-5.48936
-5.4925
-5.49326
-5.49152
-5.48717
-5.4801
-5.47021
-5.45739
-5.44156
-5.42262
-5.40048
-5.37507
-5.34632
-5.31417
-5.27855
-5.23941
-5.19672
-5.15042
-5.10049
-5.04691
-4.98965
-4.9287
-4.86404
-4.79567
-4.72358
-4.6478
-4.56833
-4.48519
-4.39842
-4.30804
-4.21409
-4.11662
-4.01567
-3.91131
-3.80358
-3.69255
-3.5783
-3.4609
-3.34043
-3.21696
-3.0906
-2.96143
-2.82955
-2.69506
-2.55806
-2.41867
-2.27698
-2.13312
-1.98721
-1.83935
-1.68969
-1.53834
-1.38542
-1.23108
-1.07544
-0.918627
-0.760784
-0.602047
-0.442552
-0.282438
-0.121843
0.0390925
0.200229
0.361428
0.52255
0.683457
0.844013
1.00408
1.16352
1.32221
1.48001
1.6368
1.79245
1.94684
2.09984
2.25135
2.40125
2.54943
2.6958
2.84024
2.98268
3.12302
3.26118
3.39708
3.53064
3.66181
3.79051
3.91669
4.04029
4.16127
4.27959
4.3952
4.50808
4.6182
4.72556
4.83016
4.93199
5.03106
5.12736
5.22091
5.31171
5.39977
5.48512
5.56777
5.64775
5.72507
5.79977
5.87188
5.94141
6.00841
6.0729
6.13492
6.19449
6.25165
6.30643
6.35886
6.40898
6.45683
6.50244
6.54588
6.58718
6.6264
6.66357
6.69873
6.73172
6.76255
6.78932
6.81649
6.81534
-4.67383
-4.68155
-4.69231
-4.70275
-4.71161
-4.71931
-4.72644
-4.73343
-4.74058
-4.74814
-4.75631
-4.76523
-4.77501
-4.78573
-4.79745
-4.81019
-4.82398
-4.8388
-4.85465
-4.87151
-4.88933
-4.90808
-4.92771
-4.94816
-4.96937
-4.99129
-5.01382
-5.03691
-5.06048
-5.08444
-5.1087
-5.13318
-5.15779
-5.18242
-5.20697
-5.23134
-5.25543
-5.27911
-5.30227
-5.32481
-5.34659
-5.3675
-5.3874
-5.40618
-5.4237
-5.43984
-5.45447
-5.46745
-5.47867
-5.48799
-5.49529
-5.50044
-5.50332
-5.50381
-5.5018
-5.49717
-5.48982
-5.47964
-5.46653
-5.4504
-5.43117
-5.40874
-5.38304
-5.35401
-5.32158
-5.28569
-5.24629
-5.20335
-5.15682
-5.10668
-5.0529
-4.99545
-4.93432
-4.8695
-4.80097
-4.72874
-4.65283
-4.57324
-4.49
-4.40314
-4.31269
-4.21868
-4.12117
-4.0202
-3.91582
-3.8081
-3.69709
-3.58288
-3.46553
-3.34512
-3.22174
-3.09547
-2.9664
-2.83464
-2.70028
-2.56343
-2.42418
-2.28265
-2.13896
-1.99322
-1.84555
-1.69607
-1.54491
-1.39219
-1.23805
-1.08261
-0.926004
-0.76837
-0.609842
-0.450557
-0.290651
-0.130263
0.0304666
0.191399
0.352396
0.51332
0.674032
0.834396
0.994276
1.15354
1.31205
1.46967
1.62629
1.78178
1.93601
2.08886
2.24022
2.38999
2.53804
2.68428
2.82862
2.97095
3.11119
3.24926
3.38507
3.51857
3.64966
3.77831
3.90444
4.028
4.14895
4.26724
4.38284
4.49572
4.60586
4.71324
4.81787
4.91974
5.01886
5.11522
5.20883
5.2997
5.38785
5.4733
5.55605
5.63614
5.71358
5.78841
5.86065
5.93033
5.99747
6.06212
6.12428
6.18401
6.24131
6.29623
6.3488
6.39903
6.44696
6.49262
6.53604
6.57725
6.61625
6.65303
6.68755
6.71957
6.74897
6.77376
6.79855
6.79385
-4.68635
-4.69292
-4.7024
-4.71195
-4.72038
-4.72793
-4.7351
-4.74223
-4.74961
-4.75743
-4.76588
-4.77508
-4.78513
-4.79612
-4.80807
-4.82104
-4.83502
-4.85003
-4.86604
-4.88303
-4.90098
-4.91983
-4.93955
-4.96007
-4.98135
-5.00331
-5.02589
-5.04901
-5.0726
-5.09658
-5.12085
-5.14534
-5.16994
-5.19455
-5.21908
-5.24343
-5.26747
-5.2911
-5.3142
-5.33665
-5.35834
-5.37913
-5.3989
-5.41753
-5.43489
-5.45085
-5.46527
-5.47804
-5.48901
-5.49808
-5.5051
-5.50996
-5.51254
-5.51271
-5.51038
-5.50541
-5.49771
-5.48718
-5.47372
-5.45723
-5.43764
-5.41486
-5.38881
-5.35944
-5.32668
-5.29047
-5.25076
-5.20753
-5.16072
-5.11032
-5.05629
-4.99861
-4.93725
-4.87221
-4.80348
-4.73107
-4.65499
-4.57525
-4.49187
-4.40489
-4.31434
-4.22025
-4.12267
-4.02165
-3.91724
-3.80951
-3.69851
-3.58432
-3.46701
-3.34666
-3.22335
-3.09716
-2.9682
-2.83655
-2.70232
-2.5656
-2.42651
-2.28514
-2.14163
-1.99607
-1.84858
-1.6993
-1.54834
-1.39583
-1.2419
-1.08667
-0.930282
-0.772869
-0.614564
-0.455503
-0.295822
-0.135659
0.0248456
0.185554
0.346327
0.507028
0.66752
0.827665
0.987329
1.14638
1.30468
1.4621
1.61852
1.7738
1.92784
2.08051
2.23169
2.38128
2.52916
2.67524
2.81942
2.96161
3.10171
3.23964
3.37533
3.50871
3.6397
3.76824
3.89427
4.01775
4.13863
4.25686
4.3724
4.48524
4.59535
4.70271
4.80733
4.90921
5.00833
5.10471
5.19835
5.28926
5.37746
5.46296
5.54579
5.62595
5.70348
5.77841
5.85075
5.92054
5.9878
6.05256
6.11485
6.1747
6.23213
6.28717
6.33983
6.39015
6.43814
6.48382
6.52719
6.56826
6.60701
6.64336
6.67722
6.70826
6.7363
6.75929
6.78196
6.77434
-4.69988
-4.70521
-4.71318
-4.72155
-4.72925
-4.73639
-4.74335
-4.75041
-4.75779
-4.76568
-4.77422
-4.78353
-4.7937
-4.80478
-4.81684
-4.82989
-4.84395
-4.85903
-4.8751
-4.89214
-4.91013
-4.92903
-4.94879
-4.96936
-4.99068
-5.01268
-5.0353
-5.05847
-5.0821
-5.10612
-5.13043
-5.15495
-5.17958
-5.20422
-5.22876
-5.25309
-5.27712
-5.30071
-5.32376
-5.34613
-5.36772
-5.38839
-5.40802
-5.42648
-5.44364
-5.45937
-5.47355
-5.48605
-5.49674
-5.50549
-5.51218
-5.51669
-5.51891
-5.51871
-5.51598
-5.51062
-5.50253
-5.49159
-5.47772
-5.46083
-5.44084
-5.41766
-5.39123
-5.36148
-5.32836
-5.2918
-5.25177
-5.20822
-5.16113
-5.11045
-5.05615
-4.99821
-4.93661
-4.87134
-4.8024
-4.7298
-4.65354
-4.57364
-4.49013
-4.40303
-4.31238
-4.21821
-4.12057
-4.01952
-3.91509
-3.80736
-3.69639
-3.58224
-3.46499
-3.34471
-3.22149
-3.09542
-2.96658
-2.83507
-2.70099
-2.56443
-2.42551
-2.28433
-2.14101
-1.99566
-1.84839
-1.69933
-1.54859
-1.39631
-1.24262
-1.08763
-0.931494
-0.774332
-0.61628
-0.457474
-0.29805
-0.138146
0.0220998
0.182549
0.343064
0.503507
0.663741
0.823631
0.983041
1.14184
1.29989
1.45707
1.61324
1.76829
1.9221
2.07453
2.22549
2.37486
2.52254
2.66841
2.81239
2.95438
3.0943
3.23206
3.36758
3.50079
3.63162
3.76002
3.88592
4.00927
4.13003
4.24815
4.36361
4.47636
4.5864
4.69371
4.79829
4.90012
4.99922
5.09558
5.18922
5.28014
5.36836
5.45388
5.53675
5.61696
5.69455
5.76955
5.84197
5.91184
5.9792
6.04406
6.10645
6.1664
6.22394
6.27907
6.33182
6.3822
6.43023
6.4759
6.5192
6.56011
6.59857
6.63448
6.66767
6.69777
6.72453
6.74586
6.76665
6.75663
-4.71309
-4.71717
-4.72354
-4.73056
-4.73731
-4.74383
-4.75039
-4.75719
-4.76441
-4.77221
-4.7807
-4.78998
-4.80013
-4.8112
-4.82325
-4.83629
-4.85034
-4.86539
-4.88145
-4.89848
-4.91646
-4.93535
-4.9551
-4.97567
-4.997
-5.01902
-5.04166
-5.06485
-5.08852
-5.11256
-5.1369
-5.16143
-5.18607
-5.2107
-5.23523
-5.25953
-5.2835
-5.30702
-5.32996
-5.35221
-5.37364
-5.39413
-5.41354
-5.43176
-5.44866
-5.4641
-5.47796
-5.49011
-5.50044
-5.50881
-5.5151
-5.5192
-5.52099
-5.52036
-5.51719
-5.51139
-5.50285
-5.49148
-5.47717
-5.45986
-5.43945
-5.41587
-5.38905
-5.35892
-5.32544
-5.28855
-5.2482
-5.20436
-5.157
-5.10605
-5.0515
-4.99332
-4.9315
-4.86602
-4.79689
-4.72412
-4.64772
-4.56769
-4.48408
-4.3969
-4.30619
-4.21198
-4.11433
-4.01328
-3.90888
-3.8012
-3.69029
-3.57622
-3.45907
-3.33892
-3.21584
-3.08992
-2.96125
-2.82992
-2.69603
-2.55969
-2.42098
-2.28004
-2.13696
-1.99185
-1.84484
-1.69605
-1.54559
-1.39359
-1.24018
-1.08548
-0.929634
-0.772767
-0.615013
-0.456508
-0.297387
-0.137788
0.0221531
0.182297
0.342507
0.502646
0.662576
0.822164
0.981273
1.13977
1.29753
1.45441
1.6103
1.76506
1.91859
2.07075
2.22144
2.37054
2.51795
2.66358
2.80731
2.94906
3.08875
3.22628
3.36158
3.49459
3.62523
3.75343
3.87915
4.00234
4.12294
4.24092
4.35624
4.46887
4.57881
4.68603
4.79052
4.89228
4.99132
5.08764
5.18124
5.27214
5.36034
5.44587
5.52875
5.60899
5.68661
5.76165
5.83413
5.90407
5.9715
6.03644
6.09892
6.15896
6.21658
6.2718
6.32462
6.37506
6.4231
6.46875
6.51196
6.5527
6.59087
6.62632
6.65886
6.68805
6.71361
6.73346
6.75254
6.74059
-4.72486
-4.72776
-4.73253
-4.73809
-4.74377
-4.74953
-4.75553
-4.76194
-4.76887
-4.77646
-4.78478
-4.79394
-4.80398
-4.81496
-4.82692
-4.83987
-4.85383
-4.8688
-4.88476
-4.90171
-4.9196
-4.93841
-4.95809
-4.9786
-4.99986
-5.02182
-5.04442
-5.06756
-5.09117
-5.11516
-5.13944
-5.16391
-5.18847
-5.21301
-5.23742
-5.26159
-5.2854
-5.30873
-5.33146
-5.35348
-5.37464
-5.39484
-5.41394
-5.43182
-5.44834
-5.4634
-5.47685
-5.48859
-5.49847
-5.50639
-5.51223
-5.51586
-5.51719
-5.51609
-5.51246
-5.5062
-5.4972
-5.48539
-5.47065
-5.45293
-5.43212
-5.40816
-5.38098
-5.35052
-5.31673
-5.27956
-5.23896
-5.19489
-5.14729
-5.09612
-5.04136
-4.98298
-4.92099
-4.85536
-4.78611
-4.71324
-4.63675
-4.55667
-4.47302
-4.38583
-4.29513
-4.20096
-4.10337
-4.00239
-3.89809
-3.79053
-3.67976
-3.56585
-3.44888
-3.32891
-3.20604
-3.08035
-2.95191
-2.82084
-2.68722
-2.55115
-2.41273
-2.27208
-2.12931
-1.98452
-1.83783
-1.68937
-1.53924
-1.38758
-1.23451
-1.08017
-0.924673
-0.768161
-0.610765
-0.45262
-0.29386
-0.134623
0.0249557
0.184737
0.344585
0.504363
0.663934
0.823163
0.981916
1.14006
1.29747
1.454
1.60955
1.76397
1.91716
2.06899
2.21936
2.36814
2.51524
2.66056
2.804
2.94546
3.08486
3.22212
3.35717
3.48992
3.62031
3.74829
3.87378
3.99676
4.11716
4.23495
4.3501
4.46258
4.57238
4.67946
4.78384
4.88551
4.98446
5.0807
5.17424
5.26508
5.35325
5.43876
5.52163
5.60187
5.67951
5.75458
5.8271
5.89709
5.96458
6.02959
6.09215
6.15227
6.20996
6.26525
6.31814
6.36861
6.41667
6.46229
6.50541
6.54596
6.58384
6.61885
6.65075
6.67909
6.70354
6.72204
6.73958
6.72611
-4.73465
-4.73659
-4.73979
-4.74385
-4.74835
-4.75322
-4.75854
-4.76443
-4.77096
-4.77823
-4.78629
-4.79522
-4.80507
-4.81586
-4.82762
-4.84038
-4.85414
-4.8689
-4.88465
-4.90137
-4.91903
-4.93761
-4.95706
-4.97733
-4.99837
-5.02011
-5.04247
-5.06539
-5.08878
-5.11254
-5.13658
-5.16081
-5.18511
-5.20937
-5.23349
-5.25735
-5.28083
-5.30381
-5.32618
-5.3478
-5.36855
-5.38832
-5.40698
-5.4244
-5.44045
-5.45502
-5.46799
-5.47922
-5.48861
-5.49603
-5.50138
-5.50452
-5.50536
-5.50379
-5.49971
-5.493
-5.48359
-5.47136
-5.45625
-5.43816
-5.41702
-5.39276
-5.36531
-5.3346
-5.3006
-5.26325
-5.22249
-5.17825
-5.1305
-5.07919
-5.02431
-4.96584
-4.90377
-4.8381
-4.76882
-4.69595
-4.61949
-4.53946
-4.45589
-4.3688
-4.27822
-4.18419
-4.08676
-3.98597
-3.88188
-3.77454
-3.66402
-3.55037
-3.43368
-3.31401
-3.19145
-3.06608
-2.93799
-2.80726
-2.674
-2.5383
-2.40027
-2.26001
-2.11764
-1.97325
-1.82698
-1.67893
-1.52923
-1.37799
-1.22536
-1.07145
-0.916386
-0.760312
-0.603355
-0.44565
-0.287331
-0.128535
0.0306032
0.189945
0.349355
0.508696
0.667832
0.826629
0.984953
1.14267
1.29966
1.45577
1.61091
1.76492