/*--------------------------------*- C++ -*----------------------------------*\
| =========                 |                                                 |
| \\      /  F ield         | OpenFOAM: The Open Source CFD Toolbox           |
|  \\    /   O peration     | Version:  2412                                  |
|   \\  /    A nd           | Website:  www.openfoam.com                      |
|    \\/     M anipulation  |                                                 |
\*---------------------------------------------------------------------------*/
FoamFile
{
    version     2.0;
    format      ascii;
    arch        "LSB;label=32;scalar=64";
    class       surfaceScalarField;
    location    "0.28";
    object      phi;
}
// * * * * * * * * * * * * * * * * * * * * * * * * * * * * * * * * * * * * * //

dimensions      [0 3 -1 0 0 0 0];

oriented        oriented;

internalField   nonuniform List<scalar> 
24170
(
1.36706e-07
-5.71619e-08
1.95622e-07
-5.89156e-08
2.5792e-07
-6.22983e-08
3.11676e-07
-5.37562e-08
3.61816e-07
-5.01401e-08
4.07928e-07
-4.61117e-08
4.49577e-07
-4.16485e-08
4.87104e-07
-3.75271e-08
5.20895e-07
-3.37915e-08
5.51288e-07
-3.03931e-08
5.78608e-07
-2.73192e-08
6.03144e-07
-2.45369e-08
6.25141e-07
-2.19969e-08
6.44774e-07
-1.96327e-08
6.62178e-07
-1.74042e-08
6.77224e-07
-1.50459e-08
6.89907e-07
-1.26823e-08
-8.01814e-09
6.97925e-07
3.26112e-07
-1.24822e-07
3.94133e-07
-1.26937e-07
4.55889e-07
-1.24054e-07
5.14189e-07
-1.12057e-07
5.67686e-07
-1.03636e-07
6.16644e-07
-9.50704e-08
6.61289e-07
-8.62928e-08
7.01842e-07
-7.80807e-08
7.38602e-07
-7.05515e-08
7.71889e-07
-6.36797e-08
8.02008e-07
-5.74379e-08
8.29232e-07
-5.17613e-08
8.53794e-07
-4.6559e-08
8.75873e-07
-4.17118e-08
8.95582e-07
-3.71128e-08
9.12917e-07
-3.23809e-08
9.27969e-07
-2.77343e-08
-1.99213e-08
9.39872e-07
5.17245e-07
-1.71611e-07
5.79152e-07
-1.88844e-07
6.38213e-07
-1.83115e-07
6.95372e-07
-1.69216e-07
7.48187e-07
-1.56451e-07
7.96794e-07
-1.43678e-07
8.41441e-07
-1.3094e-07
8.82263e-07
-1.18902e-07
9.19475e-07
-1.07764e-07
9.53342e-07
-9.75465e-08
9.84124e-07
-8.82199e-08
1.01206e-06
-7.9699e-08
1.03736e-06
-7.18615e-08
1.0602e-06
-6.45488e-08
1.08068e-06
-5.75904e-08
1.0989e-06
-5.06039e-08
1.11469e-06
-4.35217e-08
-3.34845e-08
1.12825e-06
7.4348e-07
-1.95421e-07
7.91922e-07
-2.37285e-07
8.43833e-07
-2.35026e-07
8.96367e-07
-2.2175e-07
9.46032e-07
-2.06116e-07
9.92314e-07
-1.89959e-07
1.03523e-06
-1.73856e-07
1.07478e-06
-1.58452e-07
1.11107e-06
-1.44057e-07
1.14429e-06
-1.30762e-07
1.17462e-06
-1.18554e-07
1.20227e-06
-1.07344e-07
1.2274e-06
-9.69917e-08
1.25016e-06
-8.73145e-08
1.27067e-06
-7.80977e-08
1.28903e-06
-6.89655e-08
1.30515e-06
-5.96428e-08
-4.80179e-08
1.31969e-06
1.01492e-06
-1.99876e-07
1.04731e-06
-2.6967e-07
1.08854e-06
-2.76254e-07
1.1334e-06
-2.66614e-07
1.17753e-06
-2.50246e-07
1.21953e-06
-2.31959e-07
1.25903e-06
-2.13351e-07
1.29582e-06
-1.95249e-07
1.32989e-06
-1.78119e-07
1.36128e-06
-1.62158e-07
1.39012e-06
-1.47395e-07
1.41654e-06
-1.33759e-07
1.44066e-06
-1.21111e-07
1.4626e-06
-1.09258e-07
1.48247e-06
-9.79666e-08
1.50039e-06
-8.6882e-08
1.5164e-06
-7.5655e-08
-6.28222e-08
1.5312e-06
1.33808e-06
-1.90517e-07
1.35427e-06
-2.85857e-07
1.38245e-06
-3.04438e-07
1.41696e-06
-3.01125e-07
1.45317e-06
-2.86455e-07
1.48885e-06
-2.67635e-07
1.52314e-06
-2.47643e-07
1.55561e-06
-2.27715e-07
1.58603e-06
-2.08547e-07
1.61435e-06
-1.90479e-07
1.64058e-06
-1.73619e-07
1.66475e-06
-1.57936e-07
1.68696e-06
-1.43313e-07
1.70727e-06
-1.29569e-07
1.72577e-06
-1.16473e-07
1.7426e-06
-1.03713e-07
1.7579e-06
-9.09515e-08
-7.72145e-08
1.77229e-06
1.71767e-06
-1.72907e-07
1.7193e-06
-2.87488e-07
1.73353e-06
-3.18671e-07
1.75572e-06
-3.23314e-07
1.78184e-06
-3.12573e-07
1.80918e-06
-2.94975e-07
1.83645e-06
-2.74909e-07
1.86294e-06
-2.54203e-07
1.88824e-06
-2.33849e-07
1.91213e-06
-2.14376e-07
1.93452e-06
-1.96005e-07
1.95535e-06
-1.78771e-07
1.97464e-06
-1.62602e-07
1.99242e-06
-1.47347e-07
2.00875e-06
-1.32804e-07
2.02376e-06
-1.18718e-07
2.03762e-06
-1.0481e-07
-9.0461e-08
2.05086e-06
2.15734e-06
-1.51553e-07
2.14717e-06
-2.77327e-07
2.14805e-06
-3.19547e-07
2.15705e-06
-3.32314e-07
2.17149e-06
-3.27008e-07
2.18875e-06
-3.12241e-07
2.20729e-06
-2.93447e-07
2.22619e-06
-2.73103e-07
2.24487e-06
-2.52527e-07
2.26296e-06
-2.32465e-07
2.28023e-06
-2.13279e-07
2.29656e-06
-1.95096e-07
2.31186e-06
-1.77908e-07
2.32613e-06
-1.61616e-07
2.33939e-06
-1.46065e-07
2.35174e-06
-1.31067e-07
2.36335e-06
-1.1642e-07
-1.01763e-07
2.37466e-06
2.66011e-06
-1.29475e-07
2.64127e-06
-2.58485e-07
2.63057e-06
-3.08849e-07
2.6268e-06
-3.2854e-07
2.62889e-06
-3.29099e-07
2.63493e-06
-3.18283e-07
2.64341e-06
-3.01925e-07
2.65334e-06
-2.8303e-07
2.66403e-06
-2.63217e-07
2.675e-06
-2.43436e-07
2.68592e-06
-2.24201e-07
2.69657e-06
-2.05748e-07
2.70681e-06
-1.88148e-07
2.71656e-06
-1.71368e-07
2.72581e-06
-1.55315e-07
2.73462e-06
-1.39871e-07
2.74312e-06
-1.2492e-07
-1.10278e-07
2.75163e-06
3.22874e-06
-1.08352e-07
3.204e-06
-2.33751e-07
3.18408e-06
-2.88925e-07
3.16904e-06
-3.13507e-07
3.15923e-06
-3.19291e-07
3.15377e-06
-3.12819e-07
3.1515e-06
-2.99651e-07
3.15153e-06
-2.83066e-07
3.1532e-06
-2.64886e-07
3.15598e-06
-2.46216e-07
3.15948e-06
-2.27699e-07
3.16341e-06
-2.0968e-07
3.16758e-06
-1.92313e-07
3.17185e-06
-1.75639e-07
3.17617e-06
-1.59633e-07
3.18054e-06
-1.44243e-07
3.18506e-06
-1.29439e-07
-1.15152e-07
3.18993e-06
3.8657e-06
-8.90287e-08
3.83718e-06
-2.05225e-07
3.81025e-06
-2.62001e-07
3.78607e-06
-2.89318e-07
3.76578e-06
-2.99008e-07
3.74952e-06
-2.96552e-07
3.73665e-06
-2.86788e-07
3.72657e-06
-2.72987e-07
3.71874e-06
-2.57055e-07
3.71269e-06
-2.40163e-07
3.70803e-06
-2.23037e-07
3.70445e-06
-2.06105e-07
3.70174e-06
-1.89597e-07
3.69972e-06
-1.73619e-07
3.6983e-06
-1.58213e-07
3.69744e-06
-1.43386e-07
3.69718e-06
-1.29181e-07
-1.15595e-07
3.69762e-06
3.81123e-06
-7.33563e-08
3.78552e-06
-1.79513e-07
3.75883e-06
-2.35316e-07
3.733e-06
-2.63484e-07
3.70932e-06
-2.7533e-07
3.68839e-06
-2.7562e-07
3.67011e-06
-2.68503e-07
3.65421e-06
-2.57088e-07
3.64041e-06
-2.43262e-07
3.62844e-06
-2.28188e-07
3.61802e-06
-2.12614e-07
3.60892e-06
-1.97005e-07
3.60095e-06
-1.81634e-07
3.59399e-06
-1.66654e-07
3.58792e-06
-1.52148e-07
3.58271e-06
-1.3817e-07
3.57828e-06
-1.24757e-07
-1.12152e-07
3.57484e-06
5.03713e-06
-5.77252e-08
5.00707e-06
-1.49455e-07
4.97361e-06
-2.01857e-07
4.93953e-06
-2.29401e-07
4.90653e-06
-2.42336e-07
4.87577e-06
-2.44853e-07
4.84753e-06
-2.40266e-07
4.8218e-06
-2.31355e-07
4.79846e-06
-2.1992e-07
4.77734e-06
-2.07068e-07
4.75824e-06
-1.93518e-07
4.74097e-06
-1.79739e-07
4.72537e-06
-1.66028e-07
4.71128e-06
-1.52569e-07
4.69861e-06
-1.39474e-07
4.68727e-06
-1.2683e-07
4.67721e-06
-1.14699e-07
-1.03424e-07
4.66848e-06
6.66244e-06
-4.26913e-08
6.62913e-06
-1.16146e-07
6.58918e-06
-1.61904e-07
6.54671e-06
-1.86936e-07
6.50387e-06
-1.99495e-07
6.46231e-06
-2.03298e-07
6.42284e-06
-2.00793e-07
6.38572e-06
-1.94234e-07
6.35104e-06
-1.85241e-07
6.3188e-06
-1.74826e-07
6.28892e-06
-1.63639e-07
6.2613e-06
-1.52116e-07
6.23582e-06
-1.40548e-07
6.21237e-06
-1.29125e-07
6.19087e-06
-1.17974e-07
6.17124e-06
-1.07193e-07
6.1534e-06
-9.68624e-08
-8.73474e-08
6.13732e-06
8.79086e-06
-2.88899e-08
8.75646e-06
-8.17459e-08
8.71176e-06
-1.172e-07
8.66209e-06
-1.37264e-07
8.61015e-06
-1.47559e-07
8.55807e-06
-1.51217e-07
8.50721e-06
-1.49938e-07
8.45827e-06
-1.45286e-07
8.41157e-06
-1.38546e-07
8.36731e-06
-1.30568e-07
8.32557e-06
-1.21893e-07
8.28634e-06
-1.1289e-07
8.2496e-06
-1.03811e-07
8.21531e-06
-9.48327e-08
8.18341e-06
-8.60733e-08
8.15384e-06
-7.76263e-08
8.12654e-06
-6.95598e-08
-6.22512e-08
8.10145e-06
1.15181e-05
-1.66171e-08
1.14848e-05
-4.84465e-08
1.14384e-05
-7.07997e-08
1.13845e-05
-8.34403e-08
1.13265e-05
-8.9479e-08
1.12665e-05
-9.12299e-08
1.12064e-05
-8.98375e-08
1.11473e-05
-8.62157e-08
1.10899e-05
-8.11957e-08
1.10347e-05
-7.53711e-08
1.0982e-05
-6.91173e-08
1.09318e-05
-6.2685e-08
1.08842e-05
-5.62538e-08
1.08393e-05
-4.99513e-08
1.07971e-05
-4.3871e-08
1.07576e-05
-3.809e-08
1.07207e-05
-3.26355e-08
-2.78907e-08
1.06863e-05
1.48842e-05
-5.41093e-09
1.48525e-05
-1.67313e-08
1.48063e-05
-2.45741e-08
1.47511e-05
-2.8216e-08
1.46904e-05
-2.88201e-08
1.46267e-05
-2.75555e-08
1.45619e-05
-2.50109e-08
1.44973e-05
-2.15832e-08
1.44337e-05
-1.76525e-08
1.43719e-05
-1.35127e-08
1.43121e-05
-9.34843e-09
1.42547e-05
-5.27765e-09
1.41998e-05
-1.3909e-09
1.41476e-05
2.26726e-09
1.40981e-05
5.64163e-09
1.40513e-05
8.68626e-09
1.40073e-05
1.14318e-08
1.3528e-08
1.39658e-05
1.8769e-05
6.26439e-09
1.87365e-05
1.58025e-08
1.86883e-05
2.3617e-08
1.86301e-05
2.99754e-08
1.85661e-05
3.52187e-08
1.84989e-05
3.96118e-08
1.84306e-05
4.33219e-08
1.83625e-05
4.6472e-08
1.82957e-05
4.91569e-08
1.82307e-05
5.14427e-08
1.8168e-05
5.3374e-08
1.81078e-05
5.49806e-08
1.80501e-05
5.62824e-08
1.79951e-05
5.72905e-08
1.79427e-05
5.80108e-08
1.7893e-05
5.84306e-08
1.78458e-05
5.86089e-08
5.82857e-08
1.7801e-05
2.26768e-05
1.69955e-08
2.26398e-05
5.27577e-08
2.25834e-05
8.00194e-08
2.25148e-05
9.8577e-08
2.24391e-05
1.10925e-07
2.23597e-05
1.19069e-07
2.22789e-05
1.24068e-07
2.21987e-05
1.267e-07
2.21202e-05
1.27661e-07
2.20442e-05
1.27474e-07
2.19711e-05
1.2648e-07
2.19011e-05
1.24905e-07
2.18345e-05
1.22909e-07
2.17712e-05
1.20605e-07
2.17111e-05
1.18071e-07
2.16542e-05
1.15352e-07
2.16003e-05
1.12512e-07
1.09407e-07
2.15492e-05
1.5604e-05
3.26419e-08
1.55641e-05
9.2619e-08
1.55091e-05
1.35035e-07
1.54456e-05
1.62014e-07
1.53777e-05
1.78856e-07
1.5308e-05
1.88776e-07
1.52386e-05
1.93492e-07
1.51708e-05
1.94465e-07
1.51055e-05
1.92937e-07
1.50432e-05
1.89773e-07
1.49842e-05
1.85536e-07
1.49285e-05
1.80612e-07
1.48761e-05
1.75275e-07
1.4827e-05
1.69716e-07
1.4781e-05
1.64066e-07
1.47379e-05
1.58418e-07
1.46976e-05
1.52831e-07
1.47248e-07
1.46598e-05
1.23902e-05
5.12345e-08
1.23448e-05
1.38095e-07
1.22864e-05
1.93398e-07
1.22225e-05
2.25902e-07
1.21566e-05
2.44757e-07
1.20913e-05
2.54077e-07
1.20284e-05
2.56395e-07
1.19688e-05
2.54043e-07
1.1913e-05
2.48774e-07
1.18611e-05
2.41711e-07
1.1813e-05
2.33579e-07
1.17687e-05
2.2488e-07
1.17281e-05
2.15953e-07
1.16908e-05
2.07026e-07
1.16566e-05
1.98246e-07
1.16253e-05
1.89711e-07
1.15966e-05
1.81465e-07
1.73497e-07
1.15704e-05
9.55928e-06
7.55426e-08
9.50978e-06
1.87599e-07
9.45371e-06
2.4947e-07
9.39689e-06
2.82719e-07
9.34169e-06
2.99954e-07
9.29011e-06
3.05658e-07
9.24309e-06
3.03413e-07
9.20078e-06
2.96357e-07
9.16302e-06
2.86535e-07
9.12955e-06
2.75177e-07
9.10005e-06
2.63081e-07
9.07415e-06
2.5078e-07
9.05149e-06
2.38615e-07
9.03172e-06
2.26793e-07
9.01453e-06
2.15438e-07
8.99962e-06
2.04618e-07
8.98674e-06
1.9435e-07
1.84639e-07
8.9756e-06
7.18003e-06
1.04962e-07
7.13264e-06
2.34993e-07
7.08699e-06
2.95113e-07
7.04542e-06
3.24296e-07
7.00919e-06
3.36181e-07
6.97925e-06
3.35596e-07
6.95527e-06
3.27389e-07
6.93649e-06
3.15139e-07
6.92217e-06
3.00855e-07
6.91164e-06
2.85705e-07
6.90429e-06
2.70431e-07
6.89959e-06
2.55487e-07
6.89707e-06
2.41132e-07
6.89636e-06
2.27502e-07
6.89714e-06
2.14655e-07
6.89915e-06
2.02607e-07
6.90217e-06
1.91336e-07
1.8084e-07
6.90597e-06
5.24556e-06
1.3812e-07
5.20786e-06
2.72692e-07
5.18042e-06
3.22547e-07
5.16161e-06
3.43113e-07
5.15134e-06
3.4645e-07
5.14856e-06
3.38373e-07
5.15145e-06
3.24502e-07
5.1585e-06
3.08088e-07
5.16862e-06
2.90738e-07
5.18095e-06
2.73375e-07
5.19483e-06
2.56548e-07
5.20977e-06
2.40552e-07
5.22538e-06
2.25523e-07
5.24138e-06
2.11502e-07
5.25755e-06
1.98478e-07
5.27375e-06
1.86412e-07
5.28984e-06
1.75249e-07
1.64972e-07
5.3057e-06
3.71461e-06
1.71643e-07
3.69607e-06
2.91237e-07
3.69442e-06
3.24197e-07
3.70434e-06
3.33195e-07
3.72341e-06
3.27377e-07
3.74838e-06
3.13402e-07
3.77668e-06
2.962e-07
3.80677e-06
2.78001e-07
3.83764e-06
2.59862e-07
3.86863e-06
2.42392e-07
3.89926e-06
2.25913e-07
3.92925e-06
2.10563e-07
3.95841e-06
1.96367e-07
3.98661e-06
1.83294e-07
4.01381e-06
1.7128e-07
4.03997e-06
1.6025e-07
4.0651e-06
1.50127e-07
1.40894e-07
4.08917e-06
2.5354e-06
1.96844e-07
2.54624e-06
2.80392e-07
2.57485e-06
2.95583e-07
2.61417e-06
2.93877e-07
2.65963e-06
2.81924e-07
2.70723e-06
2.65801e-07
2.75495e-06
2.4848e-07
2.80179e-06
2.31162e-07
2.84715e-06
2.14497e-07
2.89071e-06
1.98837e-07
2.93229e-06
1.84331e-07
2.97185e-06
1.71005e-07
3.00939e-06
1.5882e-07
3.04499e-06
1.47703e-07
3.0787e-06
1.37566e-07
3.11063e-06
1.28322e-07
3.14087e-06
1.19887e-07
1.12262e-07
3.1695e-06
1.65469e-06
1.99257e-07
1.70056e-06
2.34526e-07
1.75707e-06
2.39071e-07
1.81981e-06
2.31139e-07
1.88376e-06
2.17977e-07
1.94595e-06
2.03607e-07
2.00552e-06
1.88907e-07
2.06211e-06
1.74577e-07
2.11552e-06
1.61084e-07
2.16575e-06
1.48606e-07
2.2129e-06
1.37186e-07
2.2571e-06
1.26798e-07
2.29855e-06
1.17377e-07
2.33741e-06
1.0884e-07
2.37387e-06
1.01101e-07
2.40812e-06
9.40782e-08
2.44031e-06
8.76917e-08
8.19793e-08
2.4706e-06
1.01827e-06
1.63846e-07
1.09488e-06
1.57921e-07
1.17023e-06
1.63716e-07
1.24668e-06
1.54691e-07
1.32007e-06
1.4459e-07
1.38904e-06
1.34633e-07
1.45366e-06
1.24284e-07
1.51399e-06
1.14252e-07
1.57012e-06
1.04951e-07
1.62228e-06
9.6445e-08
1.67075e-06
8.87226e-08
1.7158e-06
8.17483e-08
1.75771e-06
7.54628e-08
1.79675e-06
6.97969e-08
1.83317e-06
6.46828e-08
1.86719e-06
6.00599e-08
1.89903e-06
5.58486e-08
5.21247e-08
1.92889e-06
5.69236e-07
8.45264e-08
6.58979e-07
6.81779e-08
7.40757e-07
8.19382e-08
8.20847e-07
7.46009e-08
8.9584e-07
6.95975e-08
9.65386e-07
6.50871e-08
1.0298e-06
5.98709e-08
1.0893e-06
5.47548e-08
1.14416e-06
5.00888e-08
1.19474e-06
4.58619e-08
1.24142e-06
4.20449e-08
1.28455e-06
3.86173e-08
1.32447e-06
3.55451e-08
1.36148e-06
3.27885e-08
1.39585e-06
3.03092e-08
1.42783e-06
2.80787e-08
1.45765e-06
2.60249e-08
2.41965e-08
1.48558e-06
2.22451e-07
2.90628e-07
3.72567e-07
4.47167e-07
5.16765e-07
5.81852e-07
6.41723e-07
6.96478e-07
7.46567e-07
7.92428e-07
8.34473e-07
8.73091e-07
9.08636e-07
9.41424e-07
9.71733e-07
9.99812e-07
1.02584e-06
1.05003e-06
1.81192e-08
-1.81192e-08
4.12352e-08
-2.3116e-08
6.15345e-08
-2.02993e-08
7.65018e-08
-1.49673e-08
8.5213e-08
-8.71119e-09
8.76019e-08
-2.38897e-09
8.41876e-08
3.41436e-09
7.59303e-08
8.25726e-09
6.3891e-08
1.20393e-08
4.89395e-08
1.49516e-08
3.16195e-08
1.732e-08
1.2161e-08
1.94585e-08
-9.44356e-09
2.16045e-08
-3.33649e-08
2.39214e-08
-5.98406e-08
2.64756e-08
-8.91008e-08
2.92602e-08
-1.21337e-07
3.22365e-08
-1.56675e-07
3.53381e-08
-1.9516e-07
3.84847e-08
-2.3675e-07
4.15896e-08
-2.81316e-07
4.45662e-08
-3.28649e-07
4.73332e-08
-3.78469e-07
4.98201e-08
-4.3044e-07
5.19706e-08
-4.84186e-07
5.37459e-08
-5.39311e-07
5.51249e-08
-5.95414e-07
5.61036e-08
-6.52108e-07
5.66937e-08
-7.09029e-07
5.69208e-08
-7.65853e-07
5.68246e-08
-8.22312e-07
5.64584e-08
-8.78188e-07
5.58766e-08
-9.33305e-07
5.51164e-08
-9.87509e-07
5.42044e-08
-1.04068e-06
5.31692e-08
-1.09272e-06
5.20369e-08
-1.14355e-06
5.08309e-08
-1.19312e-06
4.95714e-08
-1.24139e-06
4.82753e-08
-1.28835e-06
4.6956e-08
-1.33397e-06
4.56239e-08
-1.37826e-06
4.42868e-08
-1.42121e-06
4.29501e-08
-1.46283e-06
4.16174e-08
-1.50312e-06
4.02906e-08
-1.54209e-06
3.89706e-08
-1.57975e-06
3.76573e-08
-1.6161e-06
3.635e-08
-1.65114e-06
3.50477e-08
-1.68489e-06
3.37489e-08
-1.71734e-06
3.24523e-08
-1.7485e-06
3.11565e-08
-1.77836e-06
2.98601e-08
-1.80692e-06
2.85619e-08
-1.83418e-06
2.72608e-08
-1.86014e-06
2.5956e-08
-1.88479e-06
2.46469e-08
-1.90812e-06
2.33328e-08
-1.93013e-06
2.20135e-08
-1.95082e-06
2.06885e-08
-1.97018e-06
1.93577e-08
-1.9882e-06
1.8021e-08
-2.00488e-06
1.66779e-08
-2.02021e-06
1.53279e-08
-2.03418e-06
1.39704e-08
-2.04678e-06
1.26042e-08
-2.05801e-06
1.12273e-08
-2.06784e-06
9.83618e-09
-2.07627e-06
8.42699e-09
-2.08327e-06
6.99451e-09
-2.0888e-06
5.53149e-09
-2.09283e-06
4.0288e-09
-2.09531e-06
2.48182e-09
-2.09619e-06
8.78077e-10
-2.09555e-06
-6.35147e-10
-2.09362e-06
-1.92839e-09
-2.09046e-06
-3.15793e-09
-2.08612e-06
-4.34418e-09
-2.08061e-06
-5.50611e-09
-2.07396e-06
-6.65378e-09
-2.06617e-06
-7.79099e-09
-2.05725e-06
-8.91903e-09
-2.04721e-06
-1.0038e-08
-2.03606e-06
-1.11476e-08
-2.02382e-06
-1.22473e-08
-2.01048e-06
-1.33365e-08
-1.99607e-06
-1.44145e-08
-1.98059e-06
-1.54808e-08
-1.96405e-06
-1.65347e-08
-1.94647e-06
-1.75757e-08
-1.92787e-06
-1.86034e-08
-1.90825e-06
-1.96171e-08
-1.88764e-06
-2.06165e-08
-1.86604e-06
-2.16011e-08
-1.84347e-06
-2.25704e-08
-1.81994e-06
-2.3524e-08
-1.79548e-06
-2.44616e-08
-1.7701e-06
-2.53827e-08
-1.74381e-06
-2.62868e-08
-1.71664e-06
-2.71737e-08
-1.68859e-06
-2.80428e-08
-1.6597e-06
-2.88939e-08
-1.62997e-06
-2.97264e-08
-1.59943e-06
-3.054e-08
-1.5681e-06
-3.13343e-08
-1.53599e-06
-3.21088e-08
-1.50313e-06
-3.28631e-08
-1.46953e-06
-3.35967e-08
-1.43522e-06
-3.43092e-08
-1.40022e-06
-3.49999e-08
-1.36455e-06
-3.56686e-08
-1.32824e-06
-3.63145e-08
-1.2913e-06
-3.69374e-08
-1.25377e-06
-3.75366e-08
-1.21565e-06
-3.81116e-08
-1.17699e-06
-3.86618e-08
-1.1378e-06
-3.91868e-08
-1.09812e-06
-3.96861e-08
-1.05796e-06
-4.01592e-08
-1.01735e-06
-4.06056e-08
-9.76329e-07
-4.10248e-08
-9.34913e-07
-4.14163e-08
-8.93133e-07
-4.17798e-08
-8.51018e-07
-4.21149e-08
-8.08597e-07
-4.24212e-08
-7.65898e-07
-4.26984e-08
-7.22952e-07
-4.29462e-08
-6.79788e-07
-4.31643e-08
-6.36435e-07
-4.33526e-08
-5.92925e-07
-4.35108e-08
-5.49286e-07
-4.36388e-08
-5.05549e-07
-4.37365e-08
-4.61746e-07
-4.38037e-08
-4.17905e-07
-4.38402e-08
-3.74059e-07
-4.38461e-08
-3.30239e-07
-4.38208e-08
-2.86475e-07
-4.3764e-08
-2.42799e-07
-4.36751e-08
-1.99246e-07
-4.35534e-08
-1.5585e-07
-4.33964e-08
-1.12645e-07
-4.3205e-08
-6.9664e-08
-4.29807e-08
-2.69457e-08
-4.27182e-08
1.54728e-08
-4.24186e-08
5.75511e-08
-4.20782e-08
9.92586e-08
-4.17075e-08
1.4058e-07
-4.1321e-08
1.8151e-07
-4.09301e-08
2.22043e-07
-4.05333e-08
2.62171e-07
-4.0128e-08
3.01884e-07
-3.97127e-08
3.4117e-07
-3.92865e-08
3.8002e-07
-3.88494e-08
4.18421e-07
-3.84017e-08
4.56366e-07
-3.79442e-08
4.93844e-07
-3.74779e-08
5.30847e-07
-3.70039e-08
5.67371e-07
-3.65233e-08
6.03408e-07
-3.60373e-08
6.38955e-07
-3.55471e-08
6.74009e-07
-3.50536e-08
7.08567e-07
-3.45578e-08
7.42627e-07
-3.40601e-08
7.76187e-07
-3.35606e-08
8.09246e-07
-3.30587e-08
8.41799e-07
-3.2553e-08
8.73839e-07
-3.20404e-08
9.05355e-07
-3.1516e-08
9.36327e-07
-3.09716e-08
9.66722e-07
-3.03947e-08
9.96486e-07
-2.97648e-08
1.02554e-06
-2.90499e-08
1.05373e-06
-2.81962e-08
1.08084e-06
-2.71124e-08
1.10647e-06
-2.56212e-08
1.12985e-06
-2.33807e-08
1.14928e-06
-1.94342e-08
1.16091e-06
-1.16268e-08
1.15212e-06
8.7836e-09
5.40246e-08
1.0981e-06
1.76968e-08
-3.5816e-08
2.83665e-08
-3.37857e-08
3.13905e-08
-2.33232e-08
2.87904e-08
-1.23672e-08
2.18759e-08
-1.79672e-09
1.13858e-08
8.10117e-09
-2.35166e-09
1.71518e-08
-1.93542e-08
2.52598e-08
-3.97434e-08
3.24284e-08
-6.36019e-08
3.88101e-08
-9.09415e-08
4.46596e-08
-1.21728e-07
5.02447e-08
-1.55897e-07
5.57738e-08
-1.93344e-07
6.13681e-08
-2.33929e-07
6.70612e-08
-2.77482e-07
7.28129e-08
-3.23776e-07
7.85303e-08
-3.72528e-07
8.40907e-08
-4.23404e-07
8.93601e-08
-4.76023e-07
9.42086e-08
-5.29978e-07
9.85216e-08
-5.84852e-07
1.02208e-07
-6.40236e-07
1.05204e-07
-6.95743e-07
1.07478e-07
-7.51024e-07
1.09026e-07
-8.05773e-07
1.09874e-07
-8.59736e-07
1.10067e-07
-9.12712e-07
1.09669e-07
-9.64546e-07
1.08755e-07
-1.01513e-06
1.07407e-07
-1.06438e-06
1.05708e-07
-1.11223e-06
1.03734e-07
-1.15867e-06
1.01547e-07
-1.20366e-06
9.92004e-08
-1.24723e-06
9.67382e-08
-1.28939e-06
9.41986e-08
-1.33017e-06
9.16123e-08
-1.36961e-06
8.90032e-08
-1.40772e-06
8.63895e-08
-1.44455e-06
8.37843e-08
-1.48012e-06
8.11963e-08
-1.51446e-06
7.86307e-08
-1.5476e-06
7.60898e-08
-1.57956e-06
7.35739e-08
-1.61035e-06
7.10817e-08
-1.63999e-06
6.86109e-08
-1.66849e-06
6.61583e-08
-1.69586e-06
6.37204e-08
-1.72211e-06
6.12938e-08
-1.74724e-06
5.88749e-08
-1.77124e-06
5.64603e-08
-1.79413e-06
5.40471e-08
-1.81591e-06
5.16326e-08
-1.83656e-06
4.92144e-08
-1.85609e-06
4.67907e-08
-1.87449e-06
4.43601e-08
-1.89177e-06
4.19214e-08
-1.90791e-06
3.94739e-08
-1.92291e-06
3.70171e-08
-1.93677e-06
3.45507e-08
-1.94949e-06
3.2075e-08
-1.96106e-06
2.95899e-08
-1.97148e-06
2.70957e-08
-1.98074e-06
2.45928e-08
-1.98885e-06
2.20813e-08
-1.99581e-06
1.95618e-08
-2.00162e-06
1.70343e-08
-2.00628e-06
1.44994e-08
-2.00981e-06
1.1958e-08
-2.01223e-06
9.41215e-09
-2.01357e-06
6.86583e-09
-2.01386e-06
4.32706e-09
-2.0132e-06
1.81367e-09
-2.01167e-06
-6.48804e-10
-2.00924e-06
-3.06148e-09
-2.00577e-06
-5.39863e-09
-2.00122e-06
-7.7131e-09
-1.99555e-06
-1.00092e-08
-1.98877e-06
-1.22881e-08
-1.98087e-06
-1.45517e-08
-1.97186e-06
-1.68e-08
-1.96175e-06
-1.90326e-08
-1.95054e-06
-2.12485e-08
-1.93824e-06
-2.34466e-08
-1.92486e-06
-2.56255e-08
-1.91041e-06
-2.7784e-08
-1.89491e-06
-2.99207e-08
-1.87835e-06
-3.20344e-08
-1.86077e-06
-3.41238e-08
-1.84215e-06
-3.6188e-08
-1.82253e-06
-3.82257e-08
-1.80191e-06
-4.0236e-08
-1.78031e-06
-4.2218e-08
-1.75774e-06
-4.41707e-08
-1.73422e-06
-4.60933e-08
-1.70976e-06
-4.79848e-08
-1.68437e-06
-4.98445e-08
-1.65809e-06
-5.16715e-08
-1.63091e-06
-5.34649e-08
-1.60286e-06
-5.5224e-08
-1.57395e-06
-5.69479e-08
-1.54421e-06
-5.86357e-08
-1.51365e-06
-6.02867e-08
-1.48229e-06
-6.19001e-08
-1.45015e-06
-6.34749e-08
-1.41725e-06
-6.50104e-08
-1.38361e-06
-6.65056e-08
-1.34924e-06
-6.79596e-08
-1.31418e-06
-6.93712e-08
-1.27844e-06
-7.07397e-08
-1.24204e-06
-7.2064e-08
-1.20502e-06
-7.33431e-08
-1.16738e-06
-7.4576e-08
-1.12915e-06
-7.57617e-08
-1.09037e-06
-7.6899e-08
-1.05104e-06
-7.7987e-08
-1.0112e-06
-7.90247e-08
-9.70877e-07
-8.00109e-08
-9.30092e-07
-8.09448e-08
-8.88872e-07
-8.18254e-08
-8.47245e-07
-8.26516e-08
-8.05239e-07
-8.34227e-08
-7.62881e-07
-8.41378e-08
-7.202e-07
-8.47962e-08
-6.77224e-07
-8.53971e-08
-6.33982e-07
-8.59399e-08
-5.90504e-07
-8.64239e-08
-5.4682e-07
-8.68488e-08
-5.02958e-07
-8.72141e-08
-4.5895e-07
-8.75193e-08
-4.14824e-07
-8.77644e-08
-3.70612e-07
-8.79489e-08
-3.26343e-07
-8.80728e-08
-2.82047e-07
-8.81356e-08
-2.37756e-07
-8.81372e-08
-1.935e-07
-8.80772e-08
-1.49309e-07
-8.7955e-08
-1.05215e-07
-8.77691e-08
-6.12485e-08
-8.75197e-08
-1.74411e-08
-8.72037e-08
2.61744e-08
-8.68205e-08
6.95654e-08
-8.63717e-08
1.12704e-07
-8.58564e-08
1.55565e-07
-8.52801e-08
1.9813e-07
-8.46435e-08
2.40378e-07
-8.39551e-08
2.82289e-07
-8.32315e-08
3.23842e-07
-8.24832e-08
3.65021e-07
-8.17125e-08
4.05812e-07
-8.09189e-08
4.462e-07
-8.01016e-08
4.86175e-07
-7.92607e-08
5.25722e-07
-7.83968e-08
5.64832e-07
-7.75113e-08
6.03493e-07
-7.6606e-08
6.41698e-07
-7.56829e-08
6.79439e-07
-7.47443e-08
7.16708e-07
-7.37927e-08
7.53501e-07
-7.28305e-08
7.89814e-07
-7.186e-08
8.25644e-07
-7.08831e-08
8.60988e-07
-6.99017e-08
8.95844e-07
-6.89168e-08
9.30212e-07
-6.79285e-08
9.64089e-07
-6.69357e-08
9.97472e-07
-6.59353e-08
1.03035e-06
-6.49214e-08
1.06272e-06
-6.3884e-08
1.09456e-06
-6.28071e-08
1.12583e-06
-6.16653e-08
1.15648e-06
-6.04187e-08
1.18643e-06
-5.90039e-08
1.21556e-06
-5.73165e-08
1.24362e-06
-5.51804e-08
1.27027e-06
-5.22686e-08
1.29486e-06
-4.79722e-08
1.31628e-06
-4.08535e-08
1.33294e-06
-2.82898e-08
1.34325e-06
-1.52413e-09
5.34253e-08
1.34385e-06
4.8518e-09
-4.06678e-08
-3.02056e-12
-2.89309e-08
-9.71941e-09
-1.36068e-08
-2.2798e-08
7.11423e-10
-3.85558e-08
1.39611e-08
-5.68237e-08
2.63691e-08
-7.76104e-08
3.79385e-08
-1.01043e-07
4.86923e-08
-1.27298e-07
5.86833e-08
-1.56513e-07
6.80253e-08
-1.88729e-07
7.68757e-08
-2.23874e-07
8.53896e-08
-2.61776e-07
9.36758e-08
-3.02182e-07
1.01774e-07
-3.44775e-07
1.09655e-07
-3.89198e-07
1.17236e-07
-4.35068e-07
1.24399e-07
-4.81991e-07
1.31014e-07
-5.29586e-07
1.36955e-07
-5.7749e-07
1.42113e-07
-6.25378e-07
1.4641e-07
-6.7297e-07
1.49799e-07
-7.20034e-07
1.52268e-07
-7.66392e-07
1.53836e-07
-8.11915e-07
1.54549e-07
-8.56516e-07
1.54475e-07
-9.00144e-07
1.53696e-07
-9.42778e-07
1.52303e-07
-9.84414e-07
1.50391e-07
-1.02506e-06
1.48053e-07
-1.06473e-06
1.45374e-07
-1.10343e-06
1.42433e-07
-1.14117e-06
1.39293e-07
-1.17798e-06
1.36011e-07
-1.21387e-06
1.32631e-07
-1.24886e-06
1.29188e-07
-1.28296e-06
1.25712e-07
-1.31619e-06
1.22224e-07
-1.34853e-06
1.18739e-07
-1.38002e-06
1.15267e-07
-1.41064e-06
1.11814e-07
-1.44039e-06
1.08383e-07
-1.46927e-06
1.04975e-07
-1.49729e-06
1.01587e-07
-1.52442e-06
9.8217e-08
-1.55067e-06
9.48611e-08
-1.57603e-06
9.1515e-08
-1.60048e-06
8.81742e-08
-1.62402e-06
8.48344e-08
-1.64664e-06
8.14915e-08
-1.66832e-06
7.81416e-08
-1.68905e-06
7.47814e-08
-1.70883e-06
7.14081e-08
-1.72763e-06
6.80193e-08
-1.74546e-06
6.46133e-08
-1.76229e-06
6.11888e-08
-1.77811e-06
5.7745e-08
-1.79292e-06
5.42818e-08
-1.8067e-06
5.07992e-08
-1.81945e-06
4.72979e-08
-1.83115e-06
4.37786e-08
-1.8418e-06
4.02427e-08
-1.8514e-06
3.66915e-08
-1.85993e-06
3.31269e-08
-1.8674e-06
2.95507e-08
-1.87381e-06
2.59653e-08
-1.87915e-06
2.23734e-08
-1.88342e-06
1.87781e-08
-1.88665e-06
1.51836e-08
-1.88883e-06
1.15951e-08
-1.88999e-06
8.0195e-09
-1.89012e-06
4.46562e-09
-1.88925e-06
9.43667e-10
-1.88737e-06
-2.5361e-09
-1.88445e-06
-5.97942e-09
-1.88046e-06
-9.39193e-09
-1.87538e-06
-1.2785e-08
-1.86923e-06
-1.61613e-08
-1.862e-06
-1.95209e-08
-1.85369e-06
-2.28627e-08
-1.8443e-06
-2.61849e-08
-1.83385e-06
-2.94858e-08
-1.82234e-06
-3.27632e-08
-1.80977e-06
-3.60152e-08
-1.79615e-06
-3.92394e-08
-1.7815e-06
-4.2434e-08
-1.76583e-06
-4.55968e-08
-1.74913e-06
-4.87261e-08
-1.73144e-06
-5.182e-08
-1.71275e-06
-5.48767e-08
-1.69308e-06
-5.78947e-08
-1.67244e-06
-6.08724e-08
-1.65085e-06
-6.38084e-08
-1.62832e-06
-6.67013e-08
-1.60487e-06
-6.95498e-08
-1.5805e-06
-7.23525e-08
-1.55524e-06
-7.51081e-08
-1.52909e-06
-7.78155e-08
-1.50208e-06
-8.04732e-08
-1.47423e-06
-8.30801e-08
-1.44554e-06
-8.56348e-08
-1.41604e-06
-8.81362e-08
-1.38574e-06
-9.05829e-08
-1.35467e-06
-9.29737e-08
-1.32284e-06
-9.53074e-08
-1.29027e-06
-9.75827e-08
-1.25697e-06
-9.9798e-08
-1.22298e-06
-1.01952e-07
-1.18831e-06
-1.04043e-07
-1.15298e-06
-1.0607e-07
-1.11701e-06
-1.08032e-07
-1.08043e-06
-1.09926e-07
-1.04325e-06
-1.11751e-07
-1.00551e-06
-1.13506e-07
-9.67218e-07
-1.15189e-07
-9.28406e-07
-1.16799e-07
-8.89097e-07
-1.18334e-07
-8.49316e-07
-1.19792e-07
-8.09089e-07
-1.21172e-07
-7.68442e-07
-1.22473e-07
-7.274e-07
-1.23693e-07
-6.85992e-07
-1.24831e-07
-6.44245e-07
-1.25885e-07
-6.02186e-07
-1.26855e-07
-5.59843e-07
-1.2774e-07
-5.17245e-07
-1.28538e-07
-4.74421e-07
-1.29248e-07
-4.31399e-07
-1.29871e-07
-3.88208e-07
-1.30404e-07
-3.44879e-07
-1.30849e-07
-3.0144e-07
-1.31204e-07
-2.5792e-07
-1.31468e-07
-2.1435e-07
-1.31643e-07
-1.70759e-07
-1.31727e-07
-1.27176e-07
-1.3172e-07
-8.3632e-08
-1.31622e-07
-4.01553e-08
-1.31432e-07
3.22459e-09
-1.31149e-07
4.64771e-08
-1.30772e-07
8.95729e-08
-1.303e-07
1.32484e-07
-1.29731e-07
1.75181e-07
-1.29069e-07
2.17644e-07
-1.28319e-07
2.59853e-07
-1.2749e-07
3.01798e-07
-1.26588e-07
3.43456e-07
-1.25614e-07
3.84804e-07
-1.24579e-07
4.25815e-07
-1.23495e-07
4.6647e-07
-1.22367e-07
5.06749e-07
-1.21198e-07
5.46637e-07
-1.1999e-07
5.86121e-07
-1.18744e-07
6.25187e-07
-1.17463e-07
6.63825e-07
-1.16149e-07
7.02023e-07
-1.14804e-07
7.39774e-07
-1.13434e-07
7.77069e-07
-1.1204e-07
8.13902e-07
-1.10626e-07
8.50269e-07
-1.09197e-07
8.86165e-07
-1.07756e-07
9.21588e-07
-1.06306e-07
9.56535e-07
-1.04849e-07
9.91006e-07
-1.03387e-07
1.025e-06
-1.01921e-07
1.05851e-06
-1.00448e-07
1.09154e-06
-9.89646e-08
1.12408e-06
-9.74614e-08
1.15612e-06
-9.59238e-08
1.18764e-06
-9.43282e-08
1.21861e-06
-9.26373e-08
1.24899e-06
-9.07931e-08
1.27869e-06
-8.87036e-08
1.30759e-06
-8.62203e-08
1.33551e-06
-8.3096e-08
1.36213e-06
-7.88928e-08
1.38698e-06
-7.28244e-08
1.40939e-06
-6.32585e-08
1.42847e-06
-4.73753e-08
1.44476e-06
-1.78112e-08
3.63348e-08
1.46185e-06
-9.65831e-09
-3.10095e-08
-2.57684e-08
-1.28209e-08
-4.42292e-08
4.85407e-09
-6.43245e-08
2.08067e-08
-8.60709e-08
3.57075e-08
-1.09511e-07
4.98093e-08
-1.34776e-07
6.32034e-08
-1.62008e-07
7.59245e-08
-1.9133e-07
8.80047e-08
-2.22799e-07
9.94944e-08
-2.56378e-07
1.10455e-07
-2.91928e-07
1.20939e-07
-3.29218e-07
1.30965e-07
-3.67954e-07
1.4051e-07
-4.07805e-07
1.49506e-07
-4.48428e-07
1.57859e-07
-4.89491e-07
1.65462e-07
-5.30689e-07
1.72212e-07
-5.71755e-07
1.78021e-07
-6.12475e-07
1.82832e-07
-6.5268e-07
1.86615e-07
-6.92256e-07
1.89375e-07
-7.31131e-07
1.91143e-07
-7.6927e-07
1.91976e-07
-8.06671e-07
1.91949e-07
-8.43346e-07
1.9115e-07
-8.79325e-07
1.89674e-07
-9.14638e-07
1.87616e-07
-9.49317e-07
1.8507e-07
-9.83389e-07
1.82124e-07
-1.01687e-06
1.78858e-07
-1.04978e-06
1.7534e-07
-1.08212e-06
1.71632e-07
-1.11389e-06
1.67782e-07
-1.14509e-06
1.63832e-07
-1.17572e-06
1.59814e-07
-1.20576e-06
1.55752e-07
-1.2352e-06
1.51665e-07
-1.26403e-06
1.47567e-07
-1.29223e-06
1.43466e-07
-1.31978e-06
1.39367e-07
-1.34667e-06
1.35272e-07
-1.37287e-06
1.31181e-07
-1.39838e-06
1.27091e-07
-1.42316e-06
1.23e-07
-1.4472e-06
1.18904e-07
-1.47049e-06
1.14799e-07
-1.49299e-06
1.1068e-07
-1.5147e-06
1.06543e-07
-1.53559e-06
1.02384e-07
-1.55565e-06
9.82006e-08
-1.57486e-06
9.39889e-08
-1.5932e-06
8.97468e-08
-1.61065e-06
8.54725e-08
-1.6272e-06
8.11648e-08
-1.64284e-06
7.68232e-08
-1.65754e-06
7.24477e-08
-1.6713e-06
6.80389e-08
-1.6841e-06
6.35978e-08
-1.69593e-06
5.91261e-08
-1.70677e-06
5.46258e-08
-1.71663e-06
5.00994e-08
-1.72549e-06
4.55496e-08
-1.73334e-06
4.09797e-08
-1.74018e-06
3.63931e-08
-1.74601e-06
3.17938e-08
-1.75082e-06
2.7186e-08
-1.75462e-06
2.25747e-08
-1.7574e-06
1.7965e-08
-1.75917e-06
1.33631e-08
-1.75993e-06
8.77527e-09
-1.75967e-06
4.20816e-09
-1.75839e-06
-3.32637e-10
-1.75609e-06
-4.84342e-09
-1.75274e-06
-9.32626e-09
-1.74834e-06
-1.37862e-08
-1.7429e-06
-1.82274e-08
-1.73641e-06
-2.26505e-08
-1.72888e-06
-2.70544e-08
-1.7203e-06
-3.1437e-08
-1.71069e-06
-3.57956e-08
-1.70005e-06
-4.01274e-08
-1.68839e-06
-4.44295e-08
-1.6757e-06
-4.86988e-08
-1.66201e-06
-5.29326e-08
-1.64732e-06
-5.7128e-08
-1.63163e-06
-6.12824e-08
-1.61496e-06
-6.53932e-08
-1.59732e-06
-6.9458e-08
-1.57873e-06
-7.34744e-08
-1.55918e-06
-7.74405e-08
-1.5387e-06
-8.1354e-08
-1.51729e-06
-8.5213e-08
-1.49498e-06
-8.90157e-08
-1.47177e-06
-9.27603e-08
-1.44768e-06
-9.6445e-08
-1.42272e-06
-1.00068e-07
-1.3969e-06
-1.03628e-07
-1.37026e-06
-1.07123e-07
-1.34279e-06
-1.10551e-07
-1.31451e-06
-1.1391e-07
-1.28545e-06
-1.17199e-07