/*--------------------------------*- C++ -*----------------------------------*\
| =========                 |                                                 |
| \\      /  F ield         | OpenFOAM: The Open Source CFD Toolbox           |
|  \\    /   O peration     | Version:  2412                                  |
|   \\  /    A nd           | Website:  www.openfoam.com                      |
|    \\/     M anipulation  |                                                 |
\*---------------------------------------------------------------------------*/
FoamFile
{
    version     2.0;
    format      ascii;
    arch        "LSB;label=32;scalar=64";
    class       volVectorField;
    location    "0.28";
    object      U;
}
// * * * * * * * * * * * * * * * * * * * * * * * * * * * * * * * * * * * * * //

dimensions      [0 1 -1 0 0 0 0];

internalField   nonuniform List<vector> 
12225
(
(0.377183 -0.200896 0)
(0.543962 -0.0519273 0)
(0.711051 -0.0340154 0)
(0.893988 -0.030478 0)
(1.05913 -0.0297487 0)
(1.20888 -0.0284546 0)
(1.3462 -0.0265207 0)
(1.47051 -0.0245784 0)
(1.58227 -0.0227695 0)
(1.68275 -0.0210775 0)
(1.77313 -0.0194996 0)
(1.85435 -0.0180277 0)
(1.92724 -0.0166403 0)
(1.99249 -0.0152955 0)
(2.05043 -0.013969 0)
(2.10194 -0.0125087 0)
(2.14314 -0.0103396 0)
(2.1907 -0.0128212 0)
(0.933503 -0.0317784 0)
(1.0567 -0.058711 0)
(1.23665 -0.0689018 0)
(1.42156 -0.0644871 0)
(1.58554 -0.0618157 0)
(1.73444 -0.0589703 0)
(1.87135 -0.055569 0)
(1.99607 -0.0521825 0)
(2.10909 -0.0489412 0)
(2.21144 -0.0458525 0)
(2.30411 -0.0429308 0)
(2.38792 -0.040162 0)
(2.46362 -0.0375038 0)
(2.53182 -0.0348769 0)
(2.59293 -0.0322201 0)
(2.64732 -0.0290831 0)
(2.69448 -0.026062 0)
(2.73637 -0.015871 0)
(1.39962 -0.084682 0)
(1.49179 -0.105679 0)
(1.65466 -0.107239 0)
(1.82261 -0.101944 0)
(1.97269 -0.0979934 0)
(2.1104 -0.0936571 0)
(2.23778 -0.0887463 0)
(2.35453 -0.0838043 0)
(2.46099 -0.0790037 0)
(2.55793 -0.074391 0)
(2.64611 -0.0699916 0)
(2.7262 -0.0657867 0)
(2.79882 -0.0617166 0)
(2.86451 -0.0576742 0)
(2.92364 -0.0535272 0)
(2.97646 -0.0488533 0)
(3.02315 -0.0436236 0)
(3.063 -0.0340845 0)
(1.89741 -0.115425 0)
(1.94623 -0.14331 0)
(2.07521 -0.144986 0)
(2.21748 -0.140771 0)
(2.34799 -0.135784 0)
(2.46975 -0.130051 0)
(2.58355 -0.123703 0)
(2.68871 -0.117217 0)
(2.78529 -0.110832 0)
(2.87378 -0.104649 0)
(2.95468 -0.0987105 0)
(3.02849 -0.0929987 0)
(3.09567 -0.0874424 0)
(3.15665 -0.0819115 0)
(3.21178 -0.0762241 0)
(3.26122 -0.069956 0)
(3.30552 -0.0628138 0)
(3.34313 -0.0517942 0)
(2.43108 -0.125831 0)
(2.44051 -0.169894 0)
(2.52881 -0.177416 0)
(2.64003 -0.176178 0)
(2.74682 -0.171238 0)
(2.84905 -0.16474 0)
(2.9462 -0.157388 0)
(3.03705 -0.149691 0)
(3.1213 -0.141978 0)
(3.1991 -0.134423 0)
(3.27068 -0.1271 0)
(3.33634 -0.120001 0)
(3.39638 -0.113056 0)
(3.4511 -0.106123 0)
(3.50081 -0.0989915 0)
(3.54561 -0.0912536 0)
(3.58635 -0.0824737 0)
(3.62095 -0.0703806 0)
(2.99683 -0.123685 0)
(2.97698 -0.185373 0)
(3.02469 -0.201466 0)
(3.10204 -0.20496 0)
(3.18212 -0.201584 0)
(3.26199 -0.195269 0)
(3.33998 -0.187568 0)
(3.41427 -0.179179 0)
(3.48412 -0.170561 0)
(3.54932 -0.161979 0)
(3.60983 -0.153556 0)
(3.66573 -0.145312 0)
(3.71717 -0.137187 0)
(3.7643 -0.129045 0)
(3.80736 -0.120672 0)
(3.84642 -0.111697 0)
(3.88249 -0.101669 0)
(3.91302 -0.0890045 0)
(3.58832 -0.11451 0)
(3.5509 -0.190589 0)
(3.56321 -0.2159 0)
(3.60679 -0.225328 0)
(3.65876 -0.225019 0)
(3.71446 -0.219974 0)
(3.77143 -0.212702 0)
(3.82739 -0.204247 0)
(3.88115 -0.195238 0)
(3.93215 -0.18606 0)
(3.9801 -0.176902 0)
(4.02486 -0.167826 0)
(4.0664 -0.158801 0)
(4.10476 -0.149711 0)
(4.14006 -0.14036 0)
(4.17235 -0.13044 0)
(4.2027 -0.119559 0)
(4.22806 -0.106684 0)
(4.1988 -0.101769 0)
(4.15397 -0.187082 0)
(4.13919 -0.220716 0)
(4.15219 -0.236322 0)
(4.1767 -0.240155 0)
(4.20779 -0.237411 0)
(4.24284 -0.231383 0)
(4.27937 -0.223541 0)
(4.31587 -0.214719 0)
(4.35151 -0.205434 0)
(4.38575 -0.195965 0)
(4.41825 -0.186433 0)
(4.44883 -0.176845 0)
(4.4774 -0.167123 0)
(4.504 -0.15711 0)
(4.52858 -0.146572 0)
(4.55225 -0.135217 0)
(4.57141 -0.122414 0)
(4.82185 -0.0878121 0)
(4.77662 -0.176883 0)
(4.7439 -0.216855 0)
(4.73191 -0.237843 0)
(4.73179 -0.246143 0)
(4.73958 -0.246428 0)
(4.75307 -0.242355 0)
(4.77002 -0.235778 0)
(4.78883 -0.227728 0)
(4.80851 -0.218855 0)
(4.82835 -0.209539 0)
(4.84787 -0.199966 0)
(4.86675 -0.190199 0)
(4.88479 -0.180206 0)
(4.90193 -0.169886 0)
(4.91807 -0.159085 0)
(4.93425 -0.147618 0)
(4.94636 -0.135144 0)
(5.45146 -0.0741128 0)
(5.4095 -0.162019 0)
(5.36682 -0.205842 0)
(5.33654 -0.230663 0)
(5.31636 -0.242921 0)
(5.30385 -0.246442 0)
(5.29762 -0.244757 0)
(5.29604 -0.239942 0)
(5.2977 -0.233172 0)
(5.3016 -0.225199 0)
(5.307 -0.216489 0)
(5.31334 -0.207302 0)
(5.32022 -0.197757 0)
(5.32734 -0.187879 0)
(5.3346 -0.177627 0)
(5.34179 -0.166922 0)
(5.34991 -0.155692 0)
(5.35435 -0.143784 0)
(6.08167 -0.0613987 0)
(6.04411 -0.144182 0)
(5.99714 -0.189335 0)
(5.95494 -0.21618 0)
(5.92006 -0.23127 0)
(5.89157 -0.237649 0)
(5.86884 -0.238372 0)
(5.85102 -0.235528 0)
(5.83714 -0.230353 0)
(5.82639 -0.223642 0)
(5.8181 -0.215916 0)
(5.81173 -0.207493 0)
(5.80687 -0.198545 0)
(5.80319 -0.189151 0)
(5.80054 -0.17933 0)
(5.79865 -0.169069 0)
(5.79848 -0.158391 0)
(5.79494 -0.147275 0)
(6.65461 -0.0506073 0)
(6.62055 -0.126208 0)
(6.57305 -0.170589 0)
(6.52478 -0.197777 0)
(6.48114 -0.214239 0)
(6.44232 -0.222499 0)
(6.40817 -0.225056 0)
(6.37844 -0.223879 0)
(6.35267 -0.220188 0)
(6.33031 -0.214764 0)
(6.31089 -0.208135 0)
(6.29395 -0.200646 0)
(6.27914 -0.192504 0)
(6.26617 -0.183828 0)
(6.25487 -0.174679 0)
(6.24493 -0.165099 0)
(6.23731 -0.155146 0)
(6.22654 -0.144995 0)
(7.20973 -0.0406602 0)
(7.18016 -0.107396 0)
(7.13447 -0.149613 0)
(7.08343 -0.176146 0)
(7.03446 -0.192986 0)
(6.98882 -0.202366 0)
(6.94662 -0.206249 0)
(6.908 -0.206404 0)
(6.87294 -0.204007 0)
(6.8412 -0.1998 0)
(6.81251 -0.194285 0)
(6.78657 -0.187809 0)
(6.76312 -0.180597 0)
(6.74193 -0.172792 0)
(6.72285 -0.164485 0)
(6.70559 -0.155756 0)
(6.69105 -0.146675 0)
(6.67363 -0.137626 0)
(7.81811 -0.0310716 0)
(7.79338 -0.0861317 0)
(7.75173 -0.123851 0)
(7.70083 -0.148311 0)
(7.64927 -0.164351 0)
(7.59955 -0.173985 0)
(7.552 -0.178641 0)
(7.507 -0.179762 0)
(7.46483 -0.178432 0)
(7.42558 -0.175341 0)
(7.38917 -0.170947 0)
(7.35548 -0.165574 0)
(7.32436 -0.159443 0)
(7.29569 -0.152709 0)
(7.26937 -0.14548 0)
(7.24516 -0.137854 0)
(7.22389 -0.129924 0)
(7.20008 -0.122156 0)
(8.45855 -0.0222981 0)
(8.43893 -0.0637718 0)
(8.40342 -0.0942595 0)
(8.3561 -0.114681 0)
(8.30536 -0.128329 0)
(8.25484 -0.136941 0)
(8.20528 -0.141488 0)
(8.15716 -0.14297 0)
(8.11104 -0.142264 0)
(8.06723 -0.139972 0)
(8.02584 -0.136493 0)
(7.98689 -0.132111 0)
(7.95035 -0.127033 0)
(7.91618 -0.12141 0)
(7.88437 -0.115355 0)
(7.85471 -0.108969 0)
(7.82799 -0.102349 0)
(7.79912 -0.0959844 0)
(9.08866 -0.0143741 0)
(9.07383 -0.0417445 0)
(9.04561 -0.0628582 0)
(9.00497 -0.0772083 0)
(8.95897 -0.0866408 0)
(8.91169 -0.0925261 0)
(8.86421 -0.0955557 0)
(8.81708 -0.0963408 0)
(8.77099 -0.0954755 0)
(8.72647 -0.0934067 0)
(8.68381 -0.0904317 0)
(8.64316 -0.0867605 0)
(8.60456 -0.0825538 0)
(8.56807 -0.0779364 0)
(8.53373 -0.0730094 0)
(8.50137 -0.0678687 0)
(8.47174 -0.0625829 0)
(8.4405 -0.0576601 0)
(9.63295 -0.00707652 0)
(9.6217 -0.0207168 0)
(9.59988 -0.0314135 0)
(9.5666 -0.0384031 0)
(9.52747 -0.0424472 0)
(9.48645 -0.0443772 0)
(9.44473 -0.0446437 0)
(9.40277 -0.0435855 0)
(9.36114 -0.0415455 0)
(9.32042 -0.0388072 0)
(9.28098 -0.0355661 0)
(9.24301 -0.0319596 0)
(9.20665 -0.0280955 0)
(9.17196 -0.0240644 0)
(9.13904 -0.0199397 0)
(9.10778 -0.0158019 0)
(9.07876 -0.0116648 0)
(9.04896 -0.00802237 0)
(9.96404 0.000104244 0)
(9.95459 0.00015391 0)
(9.93649 0.000607864 0)
(9.90812 0.00184852 0)
(9.87423 0.0037879 0)
(9.83859 0.00623461 0)
(9.80247 0.00908429 0)
(9.76622 0.0122653 0)
(9.7303 0.0156936 0)
(9.6952 0.0192883 0)
(9.66123 0.0229869 0)
(9.62855 0.0267398 0)
(9.59722 0.0305009 0)
(9.56728 0.0342225 0)
(9.53877 0.0378622 0)
(9.51162 0.0413562 0)
(9.48602 0.0447293 0)
(9.46095 0.0475661 0)
(9.87499 0.00747089 0)
(9.86688 0.0217907 0)
(9.84987 0.0341999 0)
(9.82249 0.0443955 0)
(9.78959 0.0528018 0)
(9.75498 0.0599012 0)
(9.71993 0.0659907 0)
(9.68483 0.0712855 0)
(9.65014 0.0759825 0)
(9.61636 0.0802407 0)
(9.58381 0.0841678 0)
(9.55263 0.0878319 0)
(9.52287 0.0912756 0)
(9.49456 0.094522 0)
(9.46768 0.0975799 0)
(9.44224 0.100431 0)
(9.41796 0.103113 0)
(9.39589 0.105345 0)
(9.28437 0.0159164 0)
(9.27065 0.0461916 0)
(9.24578 0.0711729 0)
(9.2098 0.0903922 0)
(9.16896 0.105209 0)
(9.12725 0.116826 0)
(9.08575 0.125924 0)
(9.04487 0.133046 0)
(9.00514 0.138705 0)
(8.96707 0.143305 0)
(8.93091 0.147125 0)
(8.89675 0.150354 0)
(8.86459 0.153132 0)
(8.83441 0.155559 0)
(8.80611 0.157706 0)
(8.77968 0.159621 0)
(8.75462 0.161355 0)
(8.73295 0.162761 0)
(8.47101 0.0260887 0)
(8.45236 0.0738036 0)
(8.4197 0.11034 0)
(8.37625 0.136872 0)
(8.32995 0.156519 0)
(8.28452 0.171128 0)
(8.24067 0.181732 0)
(8.19873 0.189289 0)
(8.15917 0.194659 0)
(8.12227 0.198469 0)
(8.08808 0.201144 0)
(8.05654 0.202992 0)
(8.02753 0.204243 0)
(8.0009 0.205067 0)
(7.97648 0.20559 0)
(7.95418 0.205909 0)
(7.93346 0.206083 0)
(7.91636 0.20607 0)
(7.51239 0.0385223 0)
(7.4866 0.1045 0)
(7.44644 0.150223 0)
(7.39953 0.18135 0)
(7.35393 0.203326 0)
(7.31179 0.218452 0)
(7.27312 0.228252 0)
(7.23799 0.234267 0)
(7.20651 0.23771 0)
(7.17857 0.239381 0)
(7.15389 0.239821 0)
(7.13219 0.239423 0)
(7.11317 0.23847 0)
(7.09656 0.237165 0)
(7.08209 0.235651 0)
(7.06956 0.234035 0)
(7.05845 0.232375 0)
(7.05052 0.230692 0)
(6.48931 0.0542242 0)
(6.45655 0.1369 0)
(6.41294 0.186946 0)
(6.37062 0.218548 0)
(6.33486 0.239383 0)
(6.30523 0.25203 0)
(6.281 0.258731 0)
(6.26177 0.261566 0)
(6.24694 0.261924 0)
(6.23585 0.260659 0)
(6.22789 0.258351 0)
(6.22254 0.255413 0)
(6.21935 0.25213 0)
(6.21796 0.248693 0)
(6.21805 0.245231 0)
(6.21937 0.241833 0)
(6.22148 0.238545 0)
(6.22579 0.235423 0)
(5.45712 0.073389 0)
(5.41829 0.166488 0)
(5.37867 0.214113 0)
(5.35275 0.241937 0)
(5.33861 0.258325 0)
(5.33243 0.26608 0)
(5.33265 0.268254 0)
(5.33802 0.267176 0)
(5.34715 0.26416 0)
(5.35895 0.259993 0)
(5.37265 0.255205 0)
(5.38768 0.25015 0)
(5.40357 0.245053 0)
(5.42 0.240053 0)
(5.43671 0.235237 0)
(5.45353 0.230656 0)
(5.47012 0.226333 0)
(5.48764 0.222331 0)
(4.45282 0.0947768 0)
(4.41205 0.187409 0)
(4.39047 0.225931 0)
(4.39658 0.24639 0)
(4.41646 0.255913 0)
(4.44331 0.257815 0)
(4.47522 0.255565 0)
(4.51029 0.251178 0)
(4.54683 0.245634 0)
(4.5838 0.239528 0)
(4.62056 0.233259 0)
(4.6567 0.227067 0)
(4.69194 0.221093 0)
(4.7261 0.215413 0)
(4.75908 0.210066 0)
(4.79086 0.205067 0)
(4.82126 0.200417 0)
(4.85123 0.196181 0)
(3.50293 0.114452 0)
(3.47301 0.192919 0)
(3.48912 0.217646 0)
(3.54118 0.228884 0)
(3.60258 0.231458 0)
(3.66646 0.228823 0)
(3.73174 0.223817 0)
(3.79669 0.217707 0)
(3.85991 0.211097 0)
(3.92078 0.204383 0)
(3.97901 0.197821 0)
(4.03449 0.191551 0)
(4.0872 0.185643 0)
(4.13718 0.180126 0)
(4.18453 0.175002 0)
(4.2294 0.170262 0)
(4.27177 0.165892 0)
(4.31249 0.161967 0)
(2.62982 0.122983 0)
(2.63207 0.176388 0)
(2.70177 0.187968 0)
(2.80469 0.191083 0)
(2.90732 0.189109 0)
(3.00602 0.18459 0)
(3.10158 0.178916 0)
(3.19301 0.172732 0)
(3.27948 0.166438 0)
(3.36086 0.160289 0)
(3.43729 0.154432 0)
(3.50898 0.148938 0)
(3.57619 0.143834 0)
(3.63919 0.139119 0)
(3.69829 0.134778 0)
(3.75377 0.13079 0)
(3.80581 0.127131 0)
(3.85518 0.123895 0)
(1.85178 0.104826 0)
(1.90638 0.134438 0)
(2.03033 0.141897 0)
(2.17812 0.140513 0)
(2.31585 0.137036 0)
(2.44341 0.13292 0)
(2.56364 0.128101 0)
(2.67646 0.122989 0)
(2.78152 0.117942 0)
(2.87912 0.113115 0)
(2.96978 0.10858 0)
(3.05404 0.104373 0)
(3.13239 0.1005 0)
(3.20533 0.0969468 0)
(3.27331 0.093693 0)
(3.33679 0.0907153 0)
(3.39606 0.0879782 0)
(3.45187 0.0855888 0)
(1.17533 0.04169 0)
(1.28238 0.0661055 0)
(1.43868 0.0889866 0)
(1.61658 0.0891767 0)
(1.78033 0.0862297 0)
(1.92914 0.0833307 0)
(2.0674 0.0798332 0)
(2.19581 0.0761169 0)
(2.31429 0.0725272 0)
(2.4234 0.0691485 0)
(2.52402 0.066006 0)
(2.61695 0.0631154 0)
(2.70288 0.0604733 0)
(2.78247 0.0580635 0)
(2.85633 0.0558655 0)
(2.925 0.0538625 0)
(2.98891 0.0519926 0)
(3.04876 0.0503552 0)
(0.469485 0.226529 0)
(0.642364 0.069163 0)
(0.788937 0.0480256 0)
(0.972451 0.0444101 0)
(1.14912 0.0429718 0)
(1.30915 0.041679 0)
(1.45686 0.0396461 0)
(1.59323 0.0373307 0)
(1.71806 0.0351126 0)
(1.83211 0.0330647 0)
(1.93654 0.0311825 0)
(2.03239 0.029464 0)
(2.12053 0.0279027 0)
(2.20173 0.0264858 0)
(2.27672 0.0251972 0)
(2.34611 0.02403 0)
(2.41043 0.0229309 0)
(2.46998 0.0219787 0)
(0.00824708 -0.0169485 -2.69143e-20)
(0.0266532 -0.028528 2.62783e-20)
(0.0458884 -0.02981 0)
(0.0620829 -0.0254488 0)
(0.0729039 -0.0182494 0)
(0.0781069 -0.010062 -2.46525e-20)
(0.0776 -0.00221187 0)
(0.0721402 0.00425816 0)
(0.0629301 0.00890202 0)
(0.0508191 0.0119159 0)
(0.0364072 0.0138528 2.40894e-20)
(0.020029 0.015289 0)
(0.00175839 0.0166416 0)
(-0.0184921 0.0181881 0)
(-0.0409201 0.020088 0)
(-0.065761 0.0223856 2.2849e-20)
(-0.0932124 0.0250485 0)
(-0.123424 0.0280032 0)
(-0.156477 0.0311555 0)
(-0.192379 0.0343977 0)
(-0.231057 0.0376149 0)
(-0.272363 0.0406924 0)
(-0.316076 0.0435247 0)
(-0.361921 0.0460225 1.94422e-20)
(-0.409579 0.0481183 -1.90527e-20)
(-0.458702 0.0497691 1.86796e-20)
(-0.508928 0.0509568 1.83239e-20)
(-0.559906 0.0516877 0)
(-0.611309 0.0519923 0)
(-0.662825 0.0519239 -1.73673e-20)
(-0.714154 0.0515503 -1.70838e-20)
(-0.765089 0.0509392 0)
(-0.815493 0.0501338 0)
(-0.865194 0.0491611 -1.63267e-20)
(-0.914072 0.0480547 0)
(-0.962027 0.0468458 0)
(-1.00898 0.0455625 1.56894e-20)
(-1.05488 0.0442288 0)
(-1.09967 0.0428647 1.53156e-20)
(-1.14334 0.041486 3.02816e-20)
(-1.18587 0.0401051 0)
(-1.22725 0.0387309 0)
(-1.26746 0.0373699 0)
(-1.30653 0.0360262 0)
(-1.34444 0.0347022 0)
(-1.38121 0.0333991 2.84111e-20)
(-1.41683 0.032117 2.81236e-20)
(-1.45132 0.0308554 2.78399e-20)
(-1.48467 0.0296131 0)
(-1.51689 0.028389 -2.72799e-20)
(-1.54798 0.0271817 0)
(-1.57793 0.0259897 2.67239e-20)
(-1.60676 0.0248118 2.64454e-20)
(-1.63444 0.0236468 0)
(-1.66099 0.0224936 0)
(-1.68639 0.0213512 0)
(-1.71064 0.0202189 2.53138e-20)
(-1.73374 0.0190959 0)
(-1.75567 0.0179816 0)
(-1.77643 0.0168753 0)
(-1.79601 0.0157764 0)
(-1.81441 0.0146839 0)
(-1.83162 0.0135968 0)
(-1.84762 0.0125135 0)
(-1.86241 0.0114318 0)
(-1.87599 0.0103493 -2.25278e-20)
(-1.88833 0.00926258 0)
(-1.89943 0.00816763 0)
(-1.90927 0.00705956 2.1492e-20)
(-1.91783 0.0059333 2.1133e-20)
(-1.92507 0.00478541 0)
(-1.93097 0.00361928 -2.03942e-20)
(-1.9355 0.00245405 2.00146e-20)
(-1.93859 0.00132908 0)
(-1.94017 0.000293291 -1.92324e-20)
(-1.94046 -0.00061065 0)
(-1.93966 -0.0014044 0)
(-1.93774 -0.00215161 1.79907e-20)
(-1.93475 -0.00287217 0)
(-1.93069 -0.00357478 -1.71214e-20)
(-1.92557 -0.00426273 0)
(-1.9194 -0.00493735 1.62189e-20)
(-1.91219 -0.00559913 1.57553e-20)
(-1.90394 -0.00624818 1.52835e-20)
(-1.89465 -0.00688446 2.96074e-20)
(-1.88434 -0.00750788 -2.86319e-20)
(-1.87301 -0.00811834 0)
(-1.86068 -0.00871573 0)
(-1.84734 -0.00929997 0)
(-1.833 -0.00987099 -2.45764e-20)
(-1.81768 -0.0104287 -2.35256e-20)
(-1.80139 -0.0109732 2.24609e-20)
(-1.78414 -0.0115043 0)
(-1.76593 -0.0120221 -2.0291e-20)
(-1.74679 -0.0125265 -1.91866e-20)
(-1.72671 -0.0130175 -1.807e-20)
(-1.70571 -0.0134952 0)
(-1.68381 -0.0139595 0)
(-1.66102 -0.0144105 0)
(-1.63735 -0.014848 -1.34905e-20)
(-1.61281 -0.0152723 0)
(-1.58742 -0.0156831 0)
(-1.56119 -0.0160806 9.95283e-21)
(-1.53414 -0.0164648 0)
(-1.50628 -0.0168355 0)
(-1.47763 -0.0171928 6.34498e-21)
(-1.44821 -0.0175367 0)
(-1.41802 -0.017867 0)
(-1.38709 -0.0181837 -2.68501e-21)
(-1.35544 -0.0184868 -1.45676e-21)
(-1.32308 -0.0187762 0)
(-1.29003 -0.0190518 -1.00762e-21)
(-1.25631 -0.0193135 0)
(-1.22194 -0.0195613 3.47732e-21)
(-1.18694 -0.019795 0)
(-1.15133 -0.0200146 5.9459e-21)
(-1.11513 -0.02022 7.17772e-21)
(-1.07837 -0.020411 0)
(-1.04106 -0.0205877 0)
(-1.00322 -0.0207499 0)
(-0.964892 -0.0208975 0)
(-0.926087 -0.0210305 0)
(-0.88683 -0.0211488 0)
(-0.847148 -0.0212525 0)
(-0.807066 -0.0213414 1.68608e-20)
(-0.766609 -0.0214156 -1.80368e-20)
(-0.725803 -0.0214751 0)
(-0.684674 -0.0215198 0)
(-0.64325 -0.0215499 0)
(-0.601557 -0.0215653 0)
(-0.559624 -0.0215662 -4.74858e-20)
(-0.517476 -0.0215525 0)
(-0.475142 -0.0215243 5.18578e-20)
(-0.432651 -0.0214817 -5.39962e-20)
(-0.39003 -0.0214247 0)
(-0.347308 -0.0213533 0)
(-0.304514 -0.0212673 0)
(-0.261679 -0.0211664 6.21995e-20)
(-0.218833 -0.0210503 6.41562e-20)
(-0.176008 -0.0209174 0)
(-0.133236 -0.0207639 6.79484e-20)
(-0.0905512 -0.0205878 6.97822e-20)
(-0.0479834 -0.0203861 -7.15736e-20)
(-0.00556037 -0.0201343 0)
(0.0366298 -0.0197951 0)
(0.0785903 -0.0194136 -7.49528e-20)
(0.120307 -0.0190362 0)
(0.161764 -0.0186685 0)
(0.202953 -0.0183076 0)
(0.243866 -0.0179513 0)
(0.284495 -0.0175982 7.77893e-20)
(0.324828 -0.0172476 7.82125e-20)
(0.364856 -0.0168991 0)
(0.404567 -0.016553 7.89303e-20)
(0.44395 -0.0162094 0)
(0.482997 -0.0158685 0)
(0.521699 -0.0155309 7.97126e-20)
(0.560047 -0.0151969 0)
(0.598037 -0.0148669 8.00573e-20)
(0.635662 -0.0145413 0)
(0.672919 -0.0142203 0)
(0.709804 -0.0139042 8.0339e-20)
(0.746315 -0.0135931 0)
(0.782449 -0.013287 8.03856e-20)
(0.818205 -0.0129854 0)
(0.853579 -0.0126878 0)
(0.888565 -0.0123931 0)
(0.923153 -0.0120994 -8.01848e-20)
(0.957327 -0.011804 0)
(0.99106 -0.0115025 7.99583e-20)
(1.02431 -0.0111884 0)
(1.057 -0.010851 0)
(1.08902 -0.010473 0)
(1.12018 -0.0100254 0)
(1.15017 -0.00945056 0)
(1.17828 -0.00864167 0)
(1.2038 -0.00727724 0)
(1.22208 -0.00458321 -1.58038e-19)
(1.23598 0.00256252 0)
(1.19009 0.0176768 0)
(0.00979677 -0.0564509 7.93548e-20)
(0.0225941 -0.0624293 -7.50368e-20)
(0.0276034 -0.0485928 0)
(0.0274819 -0.0317651 4.47258e-20)
(0.0232441 -0.0149272 0)
(0.0154629 0.000848195 2.11655e-20)
(0.00475773 0.0148823 -4.15998e-20)
(-0.00883621 0.0267723 -4.08913e-20)
(-0.0254685 0.0365299 0)
(-0.0451892 0.0445824 -3.9334e-20)
(-0.0680206 0.0515444 -1.93137e-20)
(-0.093953 0.0580021 0)
(-0.12295 0.0643829 0)
(-0.154947 0.0709315 0)
(-0.189845 0.0777418 0)
(-0.227513 0.0847816 -1.74042e-20)
(-0.267779 0.0919246 0)
(-0.310421 0.0989917 3.32065e-20)
(-0.355165 0.105783 0)
(-0.401693 0.112103 0)
(-0.44965 0.117771 -3.10474e-20)
(-0.498667 0.122644 0)
(-0.548371 0.126615 2.972e-20)
(-0.598404 0.129622 -1.45922e-20)
(-0.648434 0.131648 1.42953e-20)
(-0.698166 0.132715 -1.40144e-20)
(-0.747349 0.13288 -1.37496e-20)
(-0.795777 0.132224 0)
(-0.843294 0.130851 0)
(-0.889781 0.128877 1.30483e-20)
(-0.935152 0.126427 -1.27751e-20)
(-0.979344 0.123613 0)
(-1.02232 0.120522 0)
(-1.06405 0.117224 1.22964e-20)
(-1.10454 0.113783 0)
(-1.1438 0.110253 0)
(-1.18185 0.106678 -1.18321e-20)
(-1.21872 0.103093 0)
(-1.25443 0.0995262 1.14851e-20)
(-1.28902 0.0959971 -2.28516e-20)
(-1.32251 0.09252 0)
(-1.35491 0.0891039 0)
(-1.38626 0.0857539 -4.40903e-20)
(-1.41658 0.0824716 -4.36246e-20)
(-1.44588 0.0792567 -4.31679e-20)
(-1.47417 0.0761071 2.12896e-20)
(-1.50146 0.0730194 -2.12061e-20)
(-1.52777 0.0699899 -6.28208e-20)
(-1.55309 0.0670145 4.13993e-20)
(-1.57743 0.0640888 2.05465e-20)
(-1.6008 0.0612091 0)
(-1.62318 0.0583716 -2.01083e-20)
(-1.64459 0.0555729 1.97724e-20)
(-1.66501 0.0528103 0)
(-1.68444 0.0500813 0)
(-1.70289 0.0473838 0)
(-1.72033 0.0447163 -1.89899e-20)
(-1.73678 0.0420776 0)
(-1.75222 0.0394667 3.69688e-20)
(-1.76664 0.0368831 0)
(-1.78005 0.0343261 3.60259e-20)
(-1.79244 0.0317955 0)
(-1.8038 0.0292909 -3.50529e-20)
(-1.81413 0.0268117 0)
(-1.82342 0.0243573 3.40463e-20)
(-1.83168 0.0219269 -1.67487e-20)
(-1.83889 0.0195191 0)
(-1.84508 0.0171323 -3.24677e-20)
(-1.85023 0.0147649 -1.59654e-20)
(-1.85436 0.0124147 -1.56837e-20)
(-1.8575 0.0100795 0)
(-1.85967 0.00775931 -1.51203e-20)
(-1.86092 0.005465 -1.48086e-20)
(-1.86133 0.00322922 0)
(-1.86099 0.00109885 1.41952e-20)
(-1.85978 -0.000904854 -2.77997e-20)
(-1.85756 -0.00280331 0)
(-1.85432 -0.00463528 -1.32316e-20)
(-1.85005 -0.00641645 0)
(-1.84475 -0.00815549 3.77614e-20)
(-1.83842 -0.00985588 0)
(-1.83106 -0.011519 -3.57085e-20)
(-1.82267 -0.0131452 -1.15211e-20)
(-1.81326 -0.0147344 1.12668e-20)
(-1.80283 -0.0162863 2.18235e-20)
(-1.7914 -0.0178005 -2.11035e-20)
(-1.77896 -0.0192767 0)
(-1.76552 -0.0207146 0)
(-1.7511 -0.022114 0)
(-1.7357 -0.0234748 5.37971e-20)
(-1.71933 -0.0247969 1.70544e-20)
(-1.702 -0.0260801 -1.62656e-20)
(-1.68373 -0.0273246 0)
(-1.66451 -0.0285303 -1.5009e-20)
(-1.64436 -0.0296973 1.3852e-20)
(-1.6233 -0.0308256 1.30328e-20)
(-1.60133 -0.0319155 0)
(-1.57846 -0.032967 0)
(-1.55472 -0.0339802 0)
(-1.53011 -0.0349553 9.69221e-21)
(-1.50464 -0.0358924 0)
(-1.47833 -0.0367916 -1.6412e-20)
(-1.4512 -0.0376532 -2.18354e-20)
(-1.42325 -0.0384772 1.29893e-20)
(-1.3945 -0.0392639 0)
(-1.36498 -0.0400134 5.00342e-21)
(-1.33469 -0.0407257 0)
(-1.30364 -0.041401 6.06274e-21)
(-1.27187 -0.0420393 -2.40608e-21)
(-1.23938 -0.0426407 -1.5366e-21)
(-1.20619 -0.0432053 0)
(-1.17233 -0.0437332 1.63771e-21)
(-1.1378 -0.0442244 -2.66888e-21)
(-1.10263 -0.0446791 -2.46849e-21)
(-1.06684 -0.0450974 0)
(-1.03045 -0.0454791 -4.21476e-21)
(-0.993482 -0.0458246 -1.47187e-20)
(-0.955955 -0.0461338 0)
(-0.917892 -0.0464069 -1.30873e-20)
(-0.879316 -0.046644 -1.48027e-20)
(-0.840251 -0.0468453 -1.65092e-20)
(-0.800719 -0.047011 0)
(-0.760746 -0.0471413 0)
(-0.720355 -0.0472365 0)
(-0.679572 -0.0472968 1.13387e-20)
(-0.638423 -0.0473226 1.271e-20)
(-0.596934 -0.0473143 0)
(-0.55513 -0.0472722 2.81189e-20)
(-0.513039 -0.0471968 2.97172e-20)
(-0.470687 -0.0470886 0)
(-0.428102 -0.046948 3.33988e-20)
(-0.38531 -0.0467757 6.8801e-20)
(-0.34234 -0.046572 -3.64552e-20)
(-0.299219 -0.0463376 -3.68906e-20)
(-0.255976 -0.0460728 0)
(-0.212638 -0.0457779 0)
(-0.169235 -0.0454532 0)
(-0.125795 -0.0450983 -4.36989e-20)
(-0.0823474 -0.0447121 4.40613e-20)
(-0.0389222 -0.0442934 9.1844e-20)
(0.00445041 -0.0438404 -4.76143e-20)
(0.0477391 -0.0433523 4.75879e-20)
(0.0909157 -0.0428332 4.93701e-20)
(0.133954 -0.0422864 0)
(0.176826 -0.0416986 0)
(0.219522 -0.0410759 -5.07829e-20)
(0.26202 -0.0404412 0)
(0.3043 -0.039805 0)
(0.346344 -0.0391687 1.06578e-19)
(0.388136 -0.0385316 0)
(0.429663 -0.037893 5.41106e-20)
(0.470912 -0.0372527 -5.54293e-20)
(0.511871 -0.0366108 0)
(0.552528 -0.0359679 5.57177e-20)
(0.592872 -0.035325 0)
(0.632895 -0.0346829 0)
(0.672586 -0.0340427 -5.77089e-20)
(0.71194 -0.0334056 1.15532e-19)
(0.75095 -0.0327725 -5.84277e-20)
(0.78961 -0.0321445 0)
(0.827919 -0.0315223 0)
(0.865871 -0.0309068 5.87614e-20)
(0.903466 -0.0302981 0)
(0.940702 -0.0296964 5.92731e-20)
(0.977576 -0.0291011 0)
(1.01409 -0.0285108 0)
(1.05023 -0.0279231 0)
(1.08599 -0.0273339 6.04984e-20)
(1.12135 -0.0267367 0)
(1.1563 -0.0261217 -6.0736e-20)
(1.19078 -0.0254733 0)
(1.22472 -0.024767 0)
(1.25803 -0.0239623 1.21582e-19)
(1.29051 -0.0229913 -1.21731e-19)
(1.32189 -0.0217241 0)
(1.35159 -0.019919 0)
(1.379 -0.0169402 0)
(1.40141 -0.0116102 3.68852e-19)
(1.42143 0.000700512 0)
(1.42386 0.0255358 -2.49514e-19)
(0.00382833 -0.0793233 -9.42156e-23)
(0.00354457 -0.064763 9.65997e-20)
(-0.00369384 -0.0387269 0)
(-0.0138833 -0.0142056 -8.14069e-20)
(-0.0266658 0.00834988 0)
(-0.0417696 0.0289185 0)
(-0.0591175 0.047556 3.66119e-23)
(-0.0787693 0.0643282 3.47041e-20)
(-0.100875 0.0793698 3.38568e-20)
(-0.125588 0.0929596 3.31446e-20)
(-0.152995 0.105485 0)
(-0.183088 0.117333 0)
(-0.215762 0.128795 -3.09421e-20)
(-0.250828 0.140015 -6.04729e-20)
(-0.288031 0.150995 5.90789e-20)
(-0.32707 0.16162 0)
(-0.367615 0.171706 5.63578e-20)
(-0.409317 0.181035 -2.7547e-20)
(-0.451829 0.18939 0)
(-0.494817 0.196582 5.25073e-20)
(-0.537971 0.202466 2.56625e-20)
(-0.581019 0.206952 -5.01398e-20)
(-0.623732 0.210005 -2.45152e-20)
(-0.665927 0.211649 0)
(-0.707466 0.211952 4.69393e-20)
(-0.748253 0.211024 4.59699e-20)
(-0.788228 0.209001 0)
(-0.82736 0.206035 4.41743e-20)
(-0.86564 0.202287 0)
(-0.903069 0.197912 4.25592e-20)
(-0.939656 0.193061 2.09112e-20)
(-0.975411 0.187862 0)
(-1.01034 0.182423 0)
(-1.04447 0.176835 0)
(-1.07781 0.171171 0)
(-1.11036 0.165488 0)
(-1.14215 0.159832 0)
(-1.17319 0.154236 3.75133e-20)
(-1.20348 0.148723 -5.55319e-20)
(-1.23302 0.143308 0)
(-1.26182 0.138001 0)
(-1.28988 0.132804 0)
(-1.3172 0.127718 7.74464e-23)
(-1.34377 0.122739 3.47579e-20)
(-1.36958 0.117862 6.85814e-20)
(-1.39464 0.113081 -6.77431e-20)
(-1.41892 0.108389 -3.34183e-20)
(-1.44243 0.10378 3.3094e-20)
(-1.46515 0.0992459 -8.12417e-23)
(-1.48707 0.094781 3.22133e-20)
(-1.50817 0.0903795 0)
(-1.52846 0.0860363 3.14264e-20)
(-1.54792 0.0817469 -7.40607e-23)
(-1.56652 0.0775076 0)
(-1.58427 0.0733156 0)
(-1.60115 0.0691684 -2.98617e-20)
(-1.61715 0.0650645 0)
(-1.63225 0.0610027 0)
(-1.64645 0.0569823 2.86218e-20)
(-1.65974 0.0530031 5.65484e-20)
(-1.6721 0.0490652 -2.79144e-20)
(-1.68353 0.045169 0)
(-1.69401 0.0413151 2.70841e-20)
(-1.70355 0.0375043 0)
(-1.71213 0.0337376 2.61849e-20)
(-1.71976 0.0300162 2.58029e-20)
(-1.72643 0.0263416 -5.07013e-20)
(-1.73213 0.022716 -2.49035e-20)
(-1.73688 0.0191427 0)
(-1.74069 0.0156267 4.80398e-20)
(-1.74355 0.0121754 0)
(-1.74548 0.00879891 6.92984e-20)
(-1.7465 0.00551015 4.52726e-20)
(-1.74659 0.00232081 4.43141e-20)
(-1.74575 -0.00076813 -4.33362e-20)
(-1.74394 -0.00377933 6.34871e-20)
(-1.74114 -0.00673111 0)
(-1.73734 -0.00962346 0)
(-1.73254 -0.012457 -3.93103e-20)
(-1.72675 -0.0152319 -5.73485e-20)
(-1.71995 -0.0179481 0)
(-1.71215 -0.0206051 1.80072e-20)
(-1.70336 -0.0232022 0)
(-1.69358 -0.0257388 -5.08961e-20)
(-1.68282 -0.0282142 1.72751e-22)
(-1.67107 -0.0306276 -1.83509e-22)
(-1.65836 -0.0329785 3.06365e-20)
(-1.64467 -0.0352665 0)
(-1.63003 -0.037491 -2.83446e-20)
(-1.61444 -0.039652 2.24955e-22)
(-1.5979 -0.0417491 0)
(-1.58043 -0.0437824 0)
(-1.56204 -0.0457518 0)
(-1.54273 -0.0476574 2.21619e-20)
(-1.52252 -0.0494993 0)
(-1.50141 -0.0512777 0)
(-1.47943 -0.0529927 0)
(-1.45657 -0.0546446 0)
(-1.43286 -0.0562335 0)
(-1.4083 -0.0577598 1.50259e-20)
(-1.38291 -0.0592237 0)
(-1.35669 -0.0606253 1.21756e-20)
(-1.32968 -0.0619651 1.09005e-20)
(-1.30187 -0.0632434 -9.62137e-21)
(-1.27328 -0.0644603 0)
(-1.24394 -0.0656162 -7.05358e-21)
(-1.21384 -0.0667112 0)
(-1.18302 -0.0677456 -4.47743e-21)
(-1.15148 -0.0687196 3.18787e-21)
(-1.11924 -0.0696332 6.45119e-21)
(-1.08632 -0.0704868 0)
(-1.05275 -0.0712805 -1.26061e-21)
(-1.01852 -0.0720146 -1.181e-21)
(-0.983677 -0.0726891 0)
(-0.948225 -0.0733044 -8.25584e-21)
(-0.912188 -0.0738605 -1.08005e-20)
(-0.875586 -0.0743577 2.04091e-20)
(-0.838441 -0.0747963 0)
(-0.800775 -0.0751766 9.59707e-21)
(-0.762609 -0.0754989 1.0849e-20)
(-0.723966 -0.0757634 3.54536e-20)
(-0.68487 -0.0759707 0)
(-0.645344 -0.0761211 0)
(-0.605413 -0.0762153 0)
(-0.5651 -0.0762537 1.61483e-20)
(-0.524432 -0.076237 0)
(-0.483433 -0.0761659 0)
(-0.442129 -0.0760411 -2.05328e-20)
(-0.400547 -0.0758635 -2.1692e-20)
(-0.358712 -0.075634 0)
(-0.316651 -0.0753534 0)
(-0.274391 -0.0750227 -5.01737e-20)
(-0.23196 -0.0746429 0)
(-0.189383 -0.0742148 5.45512e-20)
(-0.146689 -0.0737393 5.58902e-20)
(-0.103904 -0.0732171 0)
(-0.0610575 -0.0726485 0)
(-0.0181756 -0.0720341 -6.2117e-20)
(0.0247134 -0.0713742 -7.70763e-22)
(0.0675814 -0.0706682 -7.57528e-22)
(0.110401 -0.0699161 0)
(0.153145 -0.069119 -1.3746e-19)
(0.195788 -0.0682814 0)
(0.238311 -0.0674114 0)
(0.280704 -0.0665139 0)
(0.32295 -0.0655905 7.4384e-20)
(0.365027 -0.0646487 0)
(0.406909 -0.0636956 -1.52328e-19)
(0.448574 -0.0627343 -7.7961e-20)
(0.490002 -0.0617659 0)
(0.531177 -0.0607909 -8.01253e-20)
(0.572084 -0.0598102 0)
(0.612712 -0.0588247 0)
(0.653046 -0.0578357 -2.48031e-19)
(0.693078 -0.056845 1.66794e-19)
(0.732796 -0.0558542 0)
(0.772194 -0.054865 1.70183e-19)
(0.811263 -0.0538793 -8.63855e-20)
(0.849998 -0.0528989 0)
(0.888394 -0.0519253 0)
(0.926448 -0.05096 0)
(0.964158 -0.0500041 -2.66463e-19)
(1.00152 -0.0490582 0)
(1.03854 -0.0481223 -9.02817e-20)
(1.0752 -0.0471957 0)
(1.11151 -0.0462761 0)
(1.14747 -0.0453597 0)
(1.18306 -0.04444 0)
(1.21827 -0.0435069 0)
(1.25307 -0.0425447 0)
(1.28743 -0.0415289 -1.86034e-19)
(1.32128 -0.0404211 0)
(1.35452 -0.0391592 -9.40217e-20)
(1.387 -0.0376397 2.82378e-19)
(1.41845 -0.0356761 0)
(1.44845 -0.0329285 0)
(1.47655 -0.0286545 -1.90287e-19)
(1.50114 -0.0215403 -1.92e-19)
(1.52429 -0.00786547 1.93409e-19)
(1.53888 0.018297 1.96092e-19)
(-0.00449035 -0.0717729 -1.54712e-19)
(-0.0156103 -0.0425477 -1.39114e-19)
(-0.0309169 -0.0110328 -8.19628e-20)
(-0.0477764 0.0174719 -3.71696e-20)
(-0.0663267 0.0436249 0)
(-0.0864163 0.0678191 6.60162e-20)
(-0.108076 0.090236 -3.17456e-20)
(-0.131435 0.110985 0)
(-0.156627 0.130195 -3.00321e-20)
(-0.183745 0.148046 0)
(-0.212803 0.164754 5.71286e-20)
(-0.243726 0.180511 0)
(-0.276347 0.195434 2.72284e-20)
(-0.310431 0.209542 5.31358e-20)
(-0.345695 0.222757 -5.18377e-20)
(-0.381837 0.234935 0)
(-0.418551 0.245899 -4.93215e-20)
(-0.455551 0.255469 0)
(-0.49258 0.263494 0)
(-0.529422 0.26987 -4.57911e-20)
(-0.565906 0.274545 0)
(-0.601907 0.277527 -6.45647e-23)
(-0.63734 0.278876 0)
(-0.672161 0.278697 0)
(-0.706354 0.277127 7.24604e-23)
(-0.739926 0.274328 -3.98219e-20)
(-0.772896 0.270473 -3.90473e-20)
(-0.805292 0.265736 -3.81771e-20)
(-0.837143 0.260286 0)
(-0.868476 0.25428 -7.34408e-20)
(-0.89931 0.247859 0)
(-0.92966 0.241143 -3.5396e-20)
(-0.959533 0.234235 0)
(-0.988933 0.227218 0)
(-1.01786 0.220157 3.36036e-20)
(-1.04631 0.213105 0)
(-1.07427 0.2061 -3.25404e-20)
(-1.10173 0.19917 5.3813e-25)
(-1.12869 0.192335 6.31324e-20)
(-1.15512 0.185606 -6.22068e-20)
(-1.18101 0.178988 0)
(-1.20634 0.172483 0)
(-1.2311 0.166089 -2.97927e-20)
(-1.25527 0.159802 0)
(-1.27883 0.153615 -2.90366e-20)
(-1.30177 0.147523 2.86522e-20)
(-1.32406 0.141518 2.82751e-20)
(-1.34568 0.135592 0)
(-1.36662 0.12974 -2.7539e-20)
(-1.38686 0.123955 -2.71781e-20)
(-1.40639 0.118231 5.35861e-20)
(-1.42518 0.112564 -2.64663e-20)
(-1.44321 0.106949 -2.61139e-20)
(-1.46048 0.101385 0)
(-1.47697 0.0958681 0)
(-1.49265 0.0903975 2.50633e-20)
(-1.50752 0.0849722 0)
(-1.52156 0.0795922 0)