/*--------------------------------*- C++ -*----------------------------------*\
| =========                 |                                                 |
| \\      /  F ield         | OpenFOAM: The Open Source CFD Toolbox           |
|  \\    /   O peration     | Version:  2412                                  |
|   \\  /    A nd           | Website:  www.openfoam.com                      |
|    \\/     M anipulation  |                                                 |
\*---------------------------------------------------------------------------*/
FoamFile
{
    version     2.0;
    format      ascii;
    arch        "LSB;label=32;scalar=64";
    class       volVectorField;
    location    "0.69";
    object      U;
}
// * * * * * * * * * * * * * * * * * * * * * * * * * * * * * * * * * * * * * //

dimensions      [0 1 -1 0 0 0 0];

internalField   nonuniform List<vector> 
800
(
(0.00124056 0 0)
(0.0037217 0 0)
(0.00620283 0 0)
(0.00868395 0 0)
(0.0111651 0 0)
(0.0136461 0 0)
(0.0161272 0 0)
(0.0186082 0 0)
(0.0210892 0 0)
(0.0235701 0 0)
(0.026051 0 0)
(0.0285319 0 0)
(0.0310127 0 0)
(0.0334934 0 0)
(0.0359741 0 0)
(0.0384547 0 0)
(0.0409352 0 0)
(0.0434156 0 0)
(0.045896 0 0)
(0.0483762 0 0)
(0.0508564 0 0)
(0.0533364 0 0)
(0.0558164 0 0)
(0.0582962 0 0)
(0.060776 0 0)
(0.0632556 0 0)
(0.065735 0 0)
(0.0682144 0 0)
(0.0706936 0 0)
(0.0731727 0 0)
(0.0756516 0 0)
(0.0781304 0 0)
(0.080609 0 0)
(0.0830875 0 0)
(0.0855658 0 0)
(0.0880439 0 0)
(0.0905218 0 0)
(0.0929996 0 0)
(0.0954772 0 0)
(0.0979546 0 0)
(0.100432 0 0)
(0.102909 0 0)
(0.105386 0 0)
(0.107862 0 0)
(0.110338 0 0)
(0.112815 0 0)
(0.115291 0 0)
(0.117766 0 0)
(0.120242 0 0)
(0.122717 0 0)
(0.125192 0 0)
(0.127666 0 0)
(0.130141 0 0)
(0.132615 0 0)
(0.135089 0 0)
(0.137563 0 0)
(0.140036 0 0)
(0.142509 0 0)
(0.144982 0 0)
(0.147454 0 0)
(0.149927 0 0)
(0.152399 0 0)
(0.15487 0 0)
(0.157341 0 0)
(0.159812 0 0)
(0.162283 0 0)
(0.164753 0 0)
(0.167223 0 0)
(0.169693 0 0)
(0.172162 0 0)
(0.174631 0 0)
(0.1771 0 0)
(0.179568 0 0)
(0.182036 0 0)
(0.184503 0 0)
(0.18697 0 0)
(0.189437 0 0)
(0.191903 0 0)
(0.194369 0 0)
(0.196835 0 0)
(0.1993 0 0)
(0.201764 0 0)
(0.204229 0 0)
(0.206693 0 0)
(0.209156 0 0)
(0.211619 0 0)
(0.214082 0 0)
(0.216544 0 0)
(0.219005 0 0)
(0.221467 0 0)
(0.223927 0 0)
(0.226388 0 0)
(0.228847 0 0)
(0.231307 0 0)
(0.233766 0 0)
(0.236224 0 0)
(0.238682 0 0)
(0.241139 0 0)
(0.243596 0 0)
(0.246052 0 0)
(0.248508 0 0)
(0.250964 0 0)
(0.253418 0 0)
(0.255873 0 0)
(0.258326 0 0)
(0.260779 0 0)
(0.263232 0 0)
(0.265684 0 0)
(0.268135 0 0)
(0.270586 0 0)
(0.273037 0 0)
(0.275486 0 0)
(0.277935 0 0)
(0.280384 0 0)
(0.282832 0 0)
(0.285279 0 0)
(0.287726 0 0)
(0.290172 0 0)
(0.292617 0 0)
(0.295062 0 0)
(0.297506 0 0)
(0.29995 0 0)
(0.302393 0 0)
(0.304835 0 0)
(0.307277 0 0)
(0.309717 0 0)
(0.312158 0 0)
(0.314597 0 0)
(0.317036 0 0)
(0.319474 0 0)
(0.321912 0 0)
(0.324348 0 0)
(0.326784 0 0)
(0.32922 0 0)
(0.331654 0 0)
(0.334088 0 0)
(0.336521 0 0)
(0.338953 0 0)
(0.341385 0 0)
(0.343816 0 0)
(0.346246 0 0)
(0.348675 0 0)
(0.351103 0 0)
(0.353531 0 0)
(0.355958 0 0)
(0.358384 0 0)
(0.360809 0 0)
(0.363233 0 0)
(0.365657 0 0)
(0.36808 0 0)
(0.370501 0 0)
(0.372923 0 0)
(0.375343 0 0)
(0.377762 0 0)
(0.38018 0 0)
(0.382598 0 0)
(0.385015 0 0)
(0.38743 0 0)
(0.389845 0 0)
(0.392259 0 0)
(0.394672 0 0)
(0.397084 0 0)
(0.399496 0 0)
(0.401906 0 0)
(0.404315 0 0)
(0.406724 0 0)
(0.409131 0 0)
(0.411537 0 0)
(0.413943 0 0)
(0.416347 0 0)
(0.418751 0 0)
(0.421153 0 0)
(0.423554 0 0)
(0.425955 0 0)
(0.428354 0 0)
(0.430752 0 0)
(0.43315 0 0)
(0.435546 0 0)
(0.437941 0 0)
(0.440335 0 0)
(0.442728 0 0)
(0.44512 0 0)
(0.447511 0 0)
(0.449901 0 0)
(0.452289 0 0)
(0.454677 0 0)
(0.457063 0 0)
(0.459448 0 0)
(0.461832 0 0)
(0.464215 0 0)
(0.466597 0 0)
(0.468977 0 0)
(0.471357 0 0)
(0.473735 0 0)
(0.476112 0 0)
(0.478487 0 0)
(0.480862 0 0)
(0.483235 0 0)
(0.485607 0 0)
(0.487978 0 0)
(0.490347 0 0)
(0.492716 0 0)
(0.495082 0 0)
(0.497448 0 0)
(0.499812 0 0)
(0.502175 0 0)
(0.504537 0 0)
(0.506897 0 0)
(0.509256 0 0)
(0.511614 0 0)
(0.51397 0 0)
(0.516325 0 0)
(0.518679 0 0)
(0.521031 0 0)
(0.523381 0 0)
(0.525731 0 0)
(0.528078 0 0)
(0.530425 0 0)
(0.53277 0 0)
(0.535113 0 0)
(0.537455 0 0)
(0.539796 0 0)
(0.542135 0 0)
(0.544472 0 0)
(0.546808 0 0)
(0.549142 0 0)
(0.551475 0 0)
(0.553807 0 0)
(0.556136 0 0)
(0.558464 0 0)
(0.560791 0 0)
(0.563116 0 0)
(0.565439 0 0)
(0.567761 0 0)
(0.570081 0 0)
(0.572399 0 0)
(0.574716 0 0)
(0.577031 0 0)
(0.579344 0 0)
(0.581656 0 0)
(0.583965 0 0)
(0.586273 0 0)
(0.58858 0 0)
(0.590884 0 0)
(0.593187 0 0)
(0.595488 0 0)
(0.597787 0 0)
(0.600085 0 0)
(0.60238 0 0)
(0.604674 0 0)
(0.606965 0 0)
(0.609255 0 0)
(0.611543 0 0)
(0.613829 0 0)
(0.616113 0 0)
(0.618396 0 0)
(0.620676 0 0)
(0.622954 0 0)
(0.62523 0 0)
(0.627505 0 0)
(0.629777 0 0)
(0.632047 0 0)
(0.634315 0 0)
(0.636581 0 0)
(0.638845 0 0)
(0.641107 0 0)
(0.643366 0 0)
(0.645624 0 0)
(0.647879 0 0)
(0.650133 0 0)
(0.652384 0 0)
(0.654632 0 0)
(0.656879 0 0)
(0.659123 0 0)
(0.661365 0 0)
(0.663605 0 0)
(0.665842 0 0)
(0.668078 0 0)
(0.67031 0 0)
(0.672541 0 0)
(0.674769 0 0)
(0.676994 0 0)
(0.679217 0 0)
(0.681438 0 0)
(0.683656 0 0)
(0.685872 0 0)
(0.688085 0 0)
(0.690296 0 0)
(0.692504 0 0)
(0.69471 0 0)
(0.696913 0 0)
(0.699113 0 0)
(0.701311 0 0)
(0.703506 0 0)
(0.705698 0 0)
(0.707887 0 0)
(0.710074 0 0)
(0.712258 0 0)
(0.71444 0 0)
(0.716618 0 0)
(0.718794 0 0)
(0.720967 0 0)
(0.723137 0 0)
(0.725304 0 0)
(0.727468 0 0)
(0.729629 0 0)
(0.731787 0 0)
(0.733942 0 0)
(0.736094 0 0)
(0.738243 0 0)
(0.740388 0 0)
(0.742531 0 0)
(0.744671 0 0)
(0.746807 0 0)
(0.74894 0 0)
(0.75107 0 0)
(0.753197 0 0)
(0.75532 0 0)
(0.75744 0 0)
(0.759556 0 0)
(0.761669 0 0)
(0.763779 0 0)
(0.765885 0 0)
(0.767988 0 0)
(0.770087 0 0)
(0.772182 0 0)
(0.774274 0 0)
(0.776363 0 0)
(0.778447 0 0)
(0.780528 0 0)
(0.782605 0 0)
(0.784679 0 0)
(0.786748 0 0)
(0.788814 0 0)
(0.790875 0 0)
(0.792933 0 0)
(0.794987 0 0)
(0.797036 0 0)
(0.799082 0 0)
(0.801124 0 0)
(0.803161 0 0)
(0.805194 0 0)
(0.807223 0 0)
(0.809247 0 0)
(0.811268 0 0)
(0.813284 0 0)
(0.815295 0 0)
(0.817302 0 0)
(0.819304 0 0)
(0.821302 0 0)
(0.823295 0 0)
(0.825284 0 0)
(0.827267 0 0)
(0.829246 0 0)
(0.831221 0 0)
(0.83319 0 0)
(0.835154 0 0)
(0.837113 0 0)
(0.839067 0 0)
(0.841017 0 0)
(0.84296 0 0)
(0.844899 0 0)
(0.846832 0 0)
(0.84876 0 0)
(0.850683 0 0)
(0.8526 0 0)
(0.854511 0 0)
(0.856417 0 0)
(0.858317 0 0)
(0.860211 0 0)
(0.8621 0 0)
(0.863983 0 0)
(0.865859 0 0)
(0.86773 0 0)
(0.869594 0 0)
(0.871452 0 0)
(0.873304 0 0)
(0.875149 0 0)
(0.876988 0 0)
(0.878821 0 0)
(0.880646 0 0)
(0.882465 0 0)
(0.884278 0 0)
(0.886083 0 0)
(0.887881 0 0)
(0.889672 0 0)
(0.891456 0 0)
(0.893233 0 0)
(0.895002 0 0)
(0.896764 0 0)
(0.898518 0 0)
(0.900264 0 0)
(0.902003 0 0)
(0.903733 0 0)
(0.905456 0 0)
(0.907168 0 0)
(0.908902 0 0)
(0.910225 0 0)
(0.916754 0 0)
(0.523751 0 0)
(-0.522429 0 0)
(-0.916685 0 0)
(-0.910228 0 0)
(-0.9089 0 0)
(-0.907166 0 0)
(-0.905454 0 0)
(-0.903731 0 0)
(-0.902001 0 0)
(-0.900262 0 0)
(-0.898516 0 0)
(-0.896762 0 0)
(-0.895 0 0)
(-0.893231 0 0)
(-0.891454 0 0)
(-0.88967 0 0)
(-0.887879 0 0)
(-0.886081 0 0)
(-0.884275 0 0)
(-0.882463 0 0)
(-0.880644 0 0)
(-0.878818 0 0)
(-0.876986 0 0)
(-0.875147 0 0)
(-0.873302 0 0)
(-0.87145 0 0)
(-0.869592 0 0)
(-0.867727 0 0)
(-0.865857 0 0)
(-0.86398 0 0)
(-0.862098 0 0)
(-0.860209 0 0)
(-0.858315 0 0)
(-0.856415 0 0)
(-0.854509 0 0)
(-0.852598 0 0)
(-0.85068 0 0)
(-0.848758 0 0)
(-0.84683 0 0)
(-0.844897 0 0)
(-0.842958 0 0)
(-0.841014 0 0)
(-0.839065 0 0)
(-0.837111 0 0)
(-0.835152 0 0)
(-0.833187 0 0)
(-0.831218 0 0)
(-0.829244 0 0)
(-0.827265 0 0)
(-0.825281 0 0)
(-0.823293 0 0)
(-0.8213 0 0)
(-0.819302 0 0)
(-0.817299 0 0)
(-0.815293 0 0)
(-0.813281 0 0)
(-0.811265 0 0)
(-0.809245 0 0)
(-0.80722 0 0)
(-0.805192 0 0)
(-0.803158 0 0)
(-0.801121 0 0)
(-0.79908 0 0)
(-0.797034 0 0)
(-0.794984 0 0)
(-0.792931 0 0)
(-0.790873 0 0)
(-0.788811 0 0)
(-0.786746 0 0)
(-0.784676 0 0)
(-0.782603 0 0)
(-0.780526 0 0)
(-0.778445 0 0)
(-0.77636 0 0)
(-0.774272 0 0)
(-0.77218 0 0)
(-0.770085 0 0)
(-0.767985 0 0)
(-0.765883 0 0)
(-0.763777 0 0)
(-0.761667 0 0)
(-0.759554 0 0)
(-0.757437 0 0)
(-0.755317 0 0)
(-0.753194 0 0)
(-0.751068 0 0)
(-0.748938 0 0)
(-0.746805 0 0)
(-0.744668 0 0)
(-0.742529 0 0)
(-0.740386 0 0)
(-0.73824 0 0)
(-0.736091 0 0)
(-0.733939 0 0)
(-0.731784 0 0)
(-0.729626 0 0)
(-0.727465 0 0)
(-0.725301 0 0)
(-0.723134 0 0)
(-0.720964 0 0)
(-0.718792 0 0)
(-0.716616 0 0)
(-0.714437 0 0)
(-0.712256 0 0)
(-0.710072 0 0)
(-0.707885 0 0)
(-0.705696 0 0)
(-0.703503 0 0)
(-0.701308 0 0)
(-0.699111 0 0)
(-0.69691 0 0)
(-0.694707 0 0)
(-0.692502 0 0)
(-0.690294 0 0)
(-0.688083 0 0)
(-0.68587 0 0)
(-0.683654 0 0)
(-0.681436 0 0)
(-0.679215 0 0)
(-0.676992 0 0)
(-0.674766 0 0)
(-0.672538 0 0)
(-0.670308 0 0)
(-0.668075 0 0)
(-0.66584 0 0)
(-0.663603 0 0)
(-0.661363 0 0)
(-0.659121 0 0)
(-0.656877 0 0)
(-0.65463 0 0)
(-0.652382 0 0)
(-0.650131 0 0)
(-0.647877 0 0)
(-0.645622 0 0)
(-0.643364 0 0)
(-0.641105 0 0)
(-0.638843 0 0)
(-0.636579 0 0)
(-0.634313 0 0)
(-0.632045 0 0)
(-0.629775 0 0)
(-0.627503 0 0)
(-0.625228 0 0)
(-0.622952 0 0)
(-0.620674 0 0)
(-0.618394 0 0)
(-0.616112 0 0)
(-0.613827 0 0)
(-0.611541 0 0)
(-0.609253 0 0)
(-0.606964 0 0)
(-0.604672 0 0)
(-0.602378 0 0)
(-0.600083 0 0)
(-0.597785 0 0)
(-0.595486 0 0)
(-0.593185 0 0)
(-0.590882 0 0)
(-0.588578 0 0)
(-0.586272 0 0)
(-0.583964 0 0)
(-0.581654 0 0)
(-0.579342 0 0)
(-0.577029 0 0)
(-0.574714 0 0)
(-0.572397 0 0)
(-0.570079 0 0)
(-0.567759 0 0)
(-0.565437 0 0)
(-0.563114 0 0)
(-0.560789 0 0)
(-0.558463 0 0)
(-0.556135 0 0)
(-0.553805 0 0)
(-0.551474 0 0)
(-0.549141 0 0)
(-0.546806 0 0)
(-0.54447 0 0)
(-0.542133 0 0)
(-0.539794 0 0)
(-0.537454 0 0)
(-0.535112 0 0)
(-0.532768 0 0)
(-0.530423 0 0)
(-0.528077 0 0)
(-0.525729 0 0)
(-0.52338 0 0)
(-0.521029 0 0)
(-0.518677 0 0)
(-0.516324 0 0)
(-0.513969 0 0)
(-0.511613 0 0)
(-0.509255 0 0)
(-0.506896 0 0)
(-0.504536 0 0)
(-0.502174 0 0)
(-0.499811 0 0)
(-0.497447 0 0)
(-0.495081 0 0)
(-0.492714 0 0)
(-0.490346 0 0)
(-0.487977 0 0)
(-0.485606 0 0)
(-0.483234 0 0)
(-0.480861 0 0)
(-0.478486 0 0)
(-0.47611 0 0)
(-0.473734 0 0)
(-0.471355 0 0)
(-0.468976 0 0)
(-0.466596 0 0)
(-0.464214 0 0)
(-0.461831 0 0)
(-0.459447 0 0)
(-0.457062 0 0)
(-0.454675 0 0)
(-0.452288 0 0)
(-0.449899 0 0)
(-0.44751 0 0)
(-0.445119 0 0)
(-0.442727 0 0)
(-0.440334 0 0)
(-0.43794 0 0)
(-0.435545 0 0)
(-0.433149 0 0)
(-0.430751 0 0)
(-0.428353 0 0)
(-0.425954 0 0)
(-0.423553 0 0)
(-0.421152 0 0)
(-0.41875 0 0)
(-0.416346 0 0)
(-0.413942 0 0)
(-0.411536 0 0)
(-0.40913 0 0)
(-0.406723 0 0)
(-0.404314 0 0)
(-0.401905 0 0)
(-0.399495 0 0)
(-0.397084 0 0)
(-0.394671 0 0)
(-0.392258 0 0)
(-0.389844 0 0)
(-0.38743 0 0)
(-0.385014 0 0)
(-0.382597 0 0)
(-0.38018 0 0)
(-0.377761 0 0)
(-0.375342 0 0)
(-0.372922 0 0)
(-0.370501 0 0)
(-0.368079 0 0)
(-0.365656 0 0)
(-0.363233 0 0)
(-0.360808 0 0)
(-0.358383 0 0)
(-0.355957 0 0)
(-0.35353 0 0)
(-0.351102 0 0)
(-0.348674 0 0)
(-0.346245 0 0)
(-0.343815 0 0)
(-0.341384 0 0)
(-0.338953 0 0)
(-0.33652 0 0)
(-0.334087 0 0)
(-0.331653 0 0)
(-0.329219 0 0)
(-0.326784 0 0)
(-0.324348 0 0)
(-0.321911 0 0)
(-0.319474 0 0)
(-0.317035 0 0)
(-0.314597 0 0)
(-0.312157 0 0)
(-0.309717 0 0)
(-0.307276 0 0)
(-0.304834 0 0)
(-0.302392 0 0)
(-0.299949 0 0)
(-0.297506 0 0)
(-0.295062 0 0)
(-0.292617 0 0)
(-0.290171 0 0)
(-0.287725 0 0)
(-0.285279 0 0)
(-0.282831 0 0)
(-0.280383 0 0)
(-0.277935 0 0)
(-0.275486 0 0)
(-0.273036 0 0)
(-0.270586 0 0)
(-0.268135 0 0)
(-0.265683 0 0)
(-0.263231 0 0)
(-0.260779 0 0)
(-0.258326 0 0)
(-0.255872 0 0)
(-0.253418 0 0)
(-0.250963 0 0)
(-0.248508 0 0)
(-0.246052 0 0)
(-0.243596 0 0)
(-0.241139 0 0)
(-0.238681 0 0)
(-0.236224 0 0)
(-0.233765 0 0)
(-0.231306 0 0)
(-0.228847 0 0)
(-0.226387 0 0)
(-0.223927 0 0)
(-0.221466 0 0)
(-0.219005 0 0)
(-0.216543 0 0)
(-0.214081 0 0)
(-0.211619 0 0)
(-0.209156 0 0)
(-0.206692 0 0)
(-0.204228 0 0)
(-0.201764 0 0)
(-0.1993 0 0)
(-0.196834 0 0)
(-0.194369 0 0)
(-0.191903 0 0)
(-0.189437 0 0)
(-0.18697 0 0)
(-0.184503 0 0)
(-0.182035 0 0)
(-0.179568 0 0)
(-0.177099 0 0)
(-0.174631 0 0)
(-0.172162 0 0)
(-0.169693 0 0)
(-0.167223 0 0)
(-0.164753 0 0)
(-0.162283 0 0)
(-0.159812 0 0)
(-0.157341 0 0)
(-0.15487 0 0)
(-0.152398 0 0)
(-0.149926 0 0)
(-0.147454 0 0)
(-0.144982 0 0)
(-0.142509 0 0)
(-0.140036 0 0)
(-0.137563 0 0)
(-0.135089 0 0)
(-0.132615 0 0)
(-0.130141 0 0)
(-0.127666 0 0)
(-0.125192 0 0)
(-0.122717 0 0)
(-0.120242 0 0)
(-0.117766 0 0)
(-0.11529 0 0)
(-0.112815 0 0)
(-0.110338 0 0)
(-0.107862 0 0)
(-0.105385 0 0)
(-0.102909 0 0)
(-0.100432 0 0)
(-0.0979545 0 0)
(-0.0954771 0 0)
(-0.0929995 0 0)
(-0.0905218 0 0)
(-0.0880438 0 0)
(-0.0855657 0 0)
(-0.0830874 0 0)
(-0.080609 0 0)
(-0.0781303 0 0)
(-0.0756516 0 0)
(-0.0731726 0 0)
(-0.0706936 0 0)
(-0.0682144 0 0)
(-0.065735 0 0)
(-0.0632555 0 0)
(-0.0607759 0 0)
(-0.0582962 0 0)
(-0.0558164 0 0)
(-0.0533364 0 0)
(-0.0508564 0 0)
(-0.0483762 0 0)
(-0.045896 0 0)
(-0.0434156 0 0)
(-0.0409352 0 0)
(-0.0384547 0 0)
(-0.0359741 0 0)
(-0.0334934 0 0)
(-0.0310127 0 0)
(-0.0285319 0 0)
(-0.0260511 0 0)
(-0.0235702 0 0)
(-0.0210892 0 0)
(-0.0186082 0 0)
(-0.0161272 0 0)
(-0.0136462 0 0)
(-0.0111651 0 0)
(-0.00868397 0 0)
(-0.00620284 0 0)
(-0.00372171 0 0)
(-0.00124057 0 0)
)
;

boundaryField
{
    left
    {
        type            fixedValue;
        value           uniform (0 0 0);
    }
    right
    {
        type            fixedValue;
        value           uniform (0 0 0);
    }
    frontBackUpDown
    {
        type            empty;
    }
}


// ************************************************************************* //
