/*--------------------------------*- C++ -*----------------------------------*\
| =========                 |                                                 |
| \\      /  F ield         | OpenFOAM: The Open Source CFD Toolbox           |
|  \\    /   O peration     | Version:  2412                                  |
|   \\  /    A nd           | Website:  www.openfoam.com                      |
|    \\/     M anipulation  |                                                 |
\*---------------------------------------------------------------------------*/
FoamFile
{
    version     2.0;
    format      ascii;
    arch        "LSB;label=32;scalar=64";
    class       volVectorField;
    location    "0.69";
    object      U_0_0_0;
}
// * * * * * * * * * * * * * * * * * * * * * * * * * * * * * * * * * * * * * //

dimensions      [0 1 -1 0 0 0 0];

internalField   nonuniform List<vector> 
800
(
(0.00124241 0 0)
(0.00372724 0 0)
(0.00621206 0 0)
(0.00869687 0 0)
(0.0111817 0 0)
(0.0136664 0 0)
(0.0161512 0 0)
(0.0186359 0 0)
(0.0211206 0 0)
(0.0236052 0 0)
(0.0260898 0 0)
(0.0285743 0 0)
(0.0310588 0 0)
(0.0335432 0 0)
(0.0360276 0 0)
(0.0385119 0 0)
(0.0409961 0 0)
(0.0434802 0 0)
(0.0459642 0 0)
(0.0484482 0 0)
(0.050932 0 0)
(0.0534158 0 0)
(0.0558994 0 0)
(0.0583829 0 0)
(0.0608663 0 0)
(0.0633496 0 0)
(0.0658328 0 0)
(0.0683158 0 0)
(0.0707987 0 0)
(0.0732815 0 0)
(0.0757641 0 0)
(0.0782465 0 0)
(0.0807288 0 0)
(0.0832109 0 0)
(0.0856929 0 0)
(0.0881747 0 0)
(0.0906563 0 0)
(0.0931378 0 0)
(0.095619 0 0)
(0.0981001 0 0)
(0.100581 0 0)
(0.103062 0 0)
(0.105542 0 0)
(0.108022 0 0)
(0.110502 0 0)
(0.112982 0 0)
(0.115462 0 0)
(0.117941 0 0)
(0.12042 0 0)
(0.122899 0 0)
(0.125378 0 0)
(0.127856 0 0)
(0.130334 0 0)
(0.132812 0 0)
(0.135289 0 0)
(0.137767 0 0)
(0.140244 0 0)
(0.14272 0 0)
(0.145197 0 0)
(0.147673 0 0)
(0.150149 0 0)
(0.152624 0 0)
(0.1551 0 0)
(0.157575 0 0)
(0.160049 0 0)
(0.162523 0 0)
(0.164997 0 0)
(0.167471 0 0)
(0.169944 0 0)
(0.172417 0 0)
(0.17489 0 0)
(0.177362 0 0)
(0.179834 0 0)
(0.182305 0 0)
(0.184776 0 0)
(0.187247 0 0)
(0.189717 0 0)
(0.192187 0 0)
(0.194657 0 0)
(0.197126 0 0)
(0.199594 0 0)
(0.202063 0 0)
(0.204531 0 0)
(0.206998 0 0)
(0.209465 0 0)
(0.211932 0 0)
(0.214398 0 0)
(0.216863 0 0)
(0.219329 0 0)
(0.221793 0 0)
(0.224258 0 0)
(0.226722 0 0)
(0.229185 0 0)
(0.231648 0 0)
(0.23411 0 0)
(0.236572 0 0)
(0.239034 0 0)
(0.241495 0 0)
(0.243955 0 0)
(0.246415 0 0)
(0.248874 0 0)
(0.251333 0 0)
(0.253791 0 0)
(0.256249 0 0)
(0.258706 0 0)
(0.261163 0 0)
(0.263619 0 0)
(0.266075 0 0)
(0.26853 0 0)
(0.270984 0 0)
(0.273438 0 0)
(0.275891 0 0)
(0.278344 0 0)
(0.280796 0 0)
(0.283247 0 0)
(0.285698 0 0)
(0.288148 0 0)
(0.290598 0 0)
(0.293047 0 0)
(0.295495 0 0)
(0.297942 0 0)
(0.300389 0 0)
(0.302836 0 0)
(0.305281 0 0)
(0.307726 0 0)
(0.310171 0 0)
(0.312614 0 0)
(0.315057 0 0)
(0.3175 0 0)
(0.319941 0 0)
(0.322382 0 0)
(0.324822 0 0)
(0.327262 0 0)
(0.3297 0 0)
(0.332138 0 0)
(0.334575 0 0)
(0.337012 0 0)
(0.339448 0 0)
(0.341882 0 0)
(0.344317 0 0)
(0.34675 0 0)
(0.349183 0 0)
(0.351614 0 0)
(0.354045 0 0)
(0.356476 0 0)
(0.358905 0 0)
(0.361334 0 0)
(0.363761 0 0)
(0.366188 0 0)
(0.368614 0 0)
(0.37104 0 0)
(0.373464 0 0)
(0.375887 0 0)
(0.37831 0 0)
(0.380732 0 0)
(0.383153 0 0)
(0.385573 0 0)
(0.387992 0 0)
(0.39041 0 0)
(0.392827 0 0)
(0.395243 0 0)
(0.397659 0 0)
(0.400073 0 0)
(0.402487 0 0)
(0.404899 0 0)
(0.407311 0 0)
(0.409721 0 0)
(0.412131 0 0)
(0.41454 0 0)
(0.416947 0 0)
(0.419354 0 0)
(0.42176 0 0)
(0.424164 0 0)
(0.426568 0 0)
(0.42897 0 0)
(0.431372 0 0)
(0.433772 0 0)
(0.436172 0 0)
(0.43857 0 0)
(0.440967 0 0)
(0.443363 0 0)
(0.445759 0 0)
(0.448152 0 0)
(0.450545 0 0)
(0.452937 0 0)
(0.455328 0 0)
(0.457717 0 0)
(0.460105 0 0)
(0.462492 0 0)
(0.464878 0 0)
(0.467263 0 0)
(0.469647 0 0)
(0.472029 0 0)
(0.47441 0 0)
(0.47679 0 0)
(0.479169 0 0)
(0.481547 0 0)
(0.483923 0 0)
(0.486298 0 0)
(0.488672 0 0)
(0.491044 0 0)
(0.493415 0 0)
(0.495785 0 0)
(0.498154 0 0)
(0.500521 0 0)
(0.502887 0 0)
(0.505252 0 0)
(0.507615 0 0)
(0.509977 0 0)
(0.512337 0 0)
(0.514696 0 0)
(0.517054 0 0)
(0.519411 0 0)
(0.521766 0 0)
(0.524119 0 0)
(0.526471 0 0)
(0.528822 0 0)
(0.531171 0 0)
(0.533519 0 0)
(0.535865 0 0)
(0.53821 0 0)
(0.540553 0 0)
(0.542895 0 0)
(0.545235 0 0)
(0.547574 0 0)
(0.549911 0 0)
(0.552247 0 0)
(0.554581 0 0)
(0.556913 0 0)
(0.559244 0 0)
(0.561573 0 0)
(0.563901 0 0)
(0.566227 0 0)
(0.568551 0 0)
(0.570874 0 0)
(0.573195 0 0)
(0.575514 0 0)
(0.577832 0 0)
(0.580148 0 0)
(0.582462 0 0)
(0.584774 0 0)
(0.587085 0 0)
(0.589394 0 0)
(0.591701 0 0)
(0.594006 0 0)
(0.59631 0 0)
(0.598611 0 0)
(0.600911 0 0)
(0.603209 0 0)
(0.605505 0 0)
(0.607799 0 0)
(0.610092 0 0)
(0.612382 0 0)
(0.614671 0 0)
(0.616957 0 0)
(0.619242 0 0)
(0.621524 0 0)
(0.623805 0 0)
(0.626084 0 0)
(0.62836 0 0)
(0.630635 0 0)
(0.632907 0 0)
(0.635178 0 0)
(0.637446 0 0)
(0.639712 0 0)
(0.641976 0 0)
(0.644238 0 0)
(0.646498 0 0)
(0.648756 0 0)
(0.651011 0 0)
(0.653264 0 0)
(0.655515 0 0)
(0.657764 0 0)
(0.66001 0 0)
(0.662254 0 0)
(0.664496 0 0)
(0.666736 0 0)
(0.668973 0 0)
(0.671208 0 0)
(0.67344 0 0)
(0.67567 0 0)
(0.677898 0 0)
(0.680123 0 0)
(0.682345 0 0)
(0.684565 0 0)
(0.686783 0 0)
(0.688998 0 0)
(0.691211 0 0)
(0.693421 0 0)
(0.695628 0 0)
(0.697833 0 0)
(0.700035 0 0)
(0.702235 0 0)
(0.704431 0 0)
(0.706625 0 0)
(0.708817 0 0)
(0.711005 0 0)
(0.713191 0 0)
(0.715374 0 0)
(0.717554 0 0)
(0.719731 0 0)
(0.721906 0 0)
(0.724077 0 0)
(0.726246 0 0)
(0.728411 0 0)
(0.730574 0 0)
(0.732733 0 0)
(0.73489 0 0)
(0.737043 0 0)
(0.739194 0 0)
(0.741341 0 0)
(0.743485 0 0)
(0.745626 0 0)
(0.747763 0 0)
(0.749898 0 0)
(0.752029 0 0)
(0.754157 0 0)
(0.756281 0 0)
(0.758402 0 0)
(0.76052 0 0)
(0.762634 0 0)
(0.764745 0 0)
(0.766852 0 0)
(0.768956 0 0)
(0.771056 0 0)
(0.773152 0 0)
(0.775245 0 0)
(0.777334 0 0)
(0.77942 0 0)
(0.781502 0 0)
(0.78358 0 0)
(0.785654 0 0)
(0.787724 0 0)
(0.78979 0 0)
(0.791853 0 0)
(0.793911 0 0)
(0.795965 0 0)
(0.798016 0 0)
(0.800062 0 0)
(0.802104 0 0)
(0.804142 0 0)
(0.806175 0 0)
(0.808204 0 0)
(0.810229 0 0)
(0.81225 0 0)
(0.814266 0 0)
(0.816278 0 0)
(0.818285 0 0)
(0.820287 0 0)
(0.822285 0 0)
(0.824279 0 0)
(0.826267 0 0)
(0.828251 0 0)
(0.83023 0 0)
(0.832204 0 0)
(0.834173 0 0)
(0.836137 0 0)
(0.838096 0 0)
(0.84005 0 0)
(0.841999 0 0)
(0.843942 0 0)
(0.84588 0 0)
(0.847813 0 0)
(0.849741 0 0)
(0.851663 0 0)
(0.853579 0 0)
(0.85549 0 0)
(0.857395 0 0)
(0.859294 0 0)
(0.861188 0 0)
(0.863075 0 0)
(0.864957 0 0)
(0.866832 0 0)
(0.868702 0 0)
(0.870565 0 0)
(0.872422 0 0)
(0.874272 0 0)
(0.876116 0 0)
(0.877954 0 0)
(0.879785 0 0)
(0.881609 0 0)
(0.883427 0 0)
(0.885237 0 0)
(0.887041 0 0)
(0.888837 0 0)
(0.890626 0 0)
(0.892408 0 0)
(0.894183 0 0)
(0.89595 0 0)
(0.897709 0 0)
(0.899461 0 0)
(0.901205 0 0)
(0.902941 0 0)
(0.904669 0 0)
(0.906389 0 0)
(0.908098 0 0)
(0.909831 0 0)
(0.911132 0 0)
(0.917914 0 0)
(0.524802 0 0)
(-0.52348 0 0)
(-0.917846 0 0)
(-0.911134 0 0)
(-0.909829 0 0)
(-0.908096 0 0)
(-0.906387 0 0)
(-0.904667 0 0)
(-0.902939 0 0)
(-0.901203 0 0)
(-0.899459 0 0)
(-0.897707 0 0)
(-0.895948 0 0)
(-0.894181 0 0)
(-0.892406 0 0)
(-0.890624 0 0)
(-0.888835 0 0)
(-0.887038 0 0)
(-0.885235 0 0)
(-0.883424 0 0)
(-0.881607 0 0)
(-0.879783 0 0)
(-0.877952 0 0)
(-0.876114 0 0)
(-0.87427 0 0)
(-0.87242 0 0)
(-0.870563 0 0)
(-0.868699 0 0)
(-0.86683 0 0)
(-0.864954 0 0)
(-0.863073 0 0)
(-0.861185 0 0)
(-0.859292 0 0)
(-0.857392 0 0)
(-0.855487 0 0)
(-0.853577 0 0)
(-0.85166 0 0)
(-0.849738 0 0)
(-0.847811 0 0)
(-0.845878 0 0)
(-0.84394 0 0)
(-0.841996 0 0)
(-0.840048 0 0)
(-0.838094 0 0)
(-0.836135 0 0)
(-0.83417 0 0)
(-0.832201 0 0)
(-0.830227 0 0)
(-0.828248 0 0)
(-0.826265 0 0)
(-0.824276 0 0)
(-0.822283 0 0)
(-0.820285 0 0)
(-0.818282 0 0)
(-0.816275 0 0)
(-0.814264 0 0)
(-0.812247 0 0)
(-0.810227 0 0)
(-0.808202 0 0)
(-0.806173 0 0)
(-0.804139 0 0)
(-0.802101 0 0)
(-0.800059 0 0)
(-0.798013 0 0)
(-0.795963 0 0)
(-0.793908 0 0)
(-0.79185 0 0)
(-0.789788 0 0)
(-0.787721 0 0)
(-0.785651 0 0)
(-0.783577 0 0)
(-0.781499 0 0)
(-0.779417 0 0)
(-0.777332 0 0)
(-0.775243 0 0)
(-0.77315 0 0)
(-0.771053 0 0)
(-0.768953 0 0)
(-0.76685 0 0)
(-0.764742 0 0)
(-0.762632 0 0)
(-0.760517 0 0)
(-0.7584 0 0)
(-0.756279 0 0)
(-0.754154 0 0)
(-0.752026 0 0)
(-0.749895 0 0)
(-0.747761 0 0)
(-0.745623 0 0)
(-0.743483 0 0)
(-0.741339 0 0)
(-0.739191 0 0)
(-0.737041 0 0)
(-0.734888 0 0)
(-0.732731 0 0)
(-0.730572 0 0)
(-0.728409 0 0)
(-0.726243 0 0)
(-0.724075 0 0)
(-0.721903 0 0)
(-0.719729 0 0)
(-0.717552 0 0)
(-0.715372 0 0)
(-0.713189 0 0)
(-0.711003 0 0)
(-0.708814 0 0)
(-0.706623 0 0)
(-0.704429 0 0)
(-0.702232 0 0)
(-0.700033 0 0)
(-0.697831 0 0)
(-0.695626 0 0)
(-0.693419 0 0)
(-0.691209 0 0)
(-0.688996 0 0)
(-0.686781 0 0)
(-0.684563 0 0)
(-0.682343 0 0)
(-0.68012 0 0)
(-0.677895 0 0)
(-0.675668 0 0)
(-0.673438 0 0)
(-0.671205 0 0)
(-0.668971 0 0)
(-0.666734 0 0)
(-0.664494 0 0)
(-0.662252 0 0)
(-0.660008 0 0)
(-0.657762 0 0)
(-0.655513 0 0)
(-0.653262 0 0)
(-0.651009 0 0)
(-0.648753 0 0)
(-0.646496 0 0)
(-0.644236 0 0)
(-0.641974 0 0)
(-0.63971 0 0)
(-0.637444 0 0)
(-0.635176 0 0)
(-0.632905 0 0)
(-0.630633 0 0)
(-0.628358 0 0)
(-0.626082 0 0)
(-0.623803 0 0)
(-0.621522 0 0)
(-0.61924 0 0)
(-0.616955 0 0)
(-0.614669 0 0)
(-0.61238 0 0)
(-0.61009 0 0)
(-0.607798 0 0)
(-0.605503 0 0)
(-0.603207 0 0)
(-0.600909 0 0)
(-0.598609 0 0)
(-0.596308 0 0)
(-0.594004 0 0)
(-0.591699 0 0)
(-0.589392 0 0)
(-0.587083 0 0)
(-0.584772 0 0)
(-0.58246 0 0)
(-0.580146 0 0)
(-0.57783 0 0)
(-0.575512 0 0)
(-0.573193 0 0)
(-0.570872 0 0)
(-0.568549 0 0)
(-0.566225 0 0)
(-0.563899 0 0)
(-0.561571 0 0)
(-0.559242 0 0)
(-0.556911 0 0)
(-0.554579 0 0)
(-0.552245 0 0)
(-0.549909 0 0)
(-0.547572 0 0)
(-0.545234 0 0)
(-0.542893 0 0)
(-0.540552 0 0)
(-0.538208 0 0)
(-0.535864 0 0)
(-0.533517 0 0)
(-0.53117 0 0)
(-0.52882 0 0)
(-0.52647 0 0)
(-0.524118 0 0)
(-0.521764 0 0)
(-0.519409 0 0)
(-0.517053 0 0)
(-0.514695 0 0)
(-0.512336 0 0)
(-0.509975 0 0)
(-0.507613 0 0)
(-0.50525 0 0)
(-0.502886 0 0)
(-0.50052 0 0)
(-0.498152 0 0)
(-0.495784 0 0)
(-0.493414 0 0)
(-0.491043 0 0)
(-0.48867 0 0)
(-0.486297 0 0)
(-0.483922 0 0)
(-0.481545 0 0)
(-0.479168 0 0)
(-0.476789 0 0)
(-0.474409 0 0)
(-0.472028 0 0)
(-0.469646 0 0)
(-0.467262 0 0)
(-0.464877 0 0)
(-0.462491 0 0)
(-0.460104 0 0)
(-0.457716 0 0)
(-0.455326 0 0)
(-0.452936 0 0)
(-0.450544 0 0)
(-0.448151 0 0)
(-0.445757 0 0)
(-0.443362 0 0)
(-0.440966 0 0)
(-0.438569 0 0)
(-0.436171 0 0)
(-0.433771 0 0)
(-0.431371 0 0)
(-0.428969 0 0)
(-0.426567 0 0)
(-0.424163 0 0)
(-0.421759 0 0)
(-0.419353 0 0)
(-0.416946 0 0)
(-0.414539 0 0)
(-0.41213 0 0)
(-0.409721 0 0)
(-0.40731 0 0)
(-0.404898 0 0)
(-0.402486 0 0)
(-0.400072 0 0)
(-0.397658 0 0)
(-0.395242 0 0)
(-0.392826 0 0)
(-0.390409 0 0)
(-0.387991 0 0)
(-0.385572 0 0)
(-0.383152 0 0)
(-0.380731 0 0)
(-0.378309 0 0)
(-0.375887 0 0)
(-0.373463 0 0)
(-0.371039 0 0)
(-0.368614 0 0)
(-0.366187 0 0)
(-0.363761 0 0)
(-0.361333 0 0)
(-0.358904 0 0)
(-0.356475 0 0)
(-0.354045 0 0)
(-0.351614 0 0)
(-0.349182 0 0)
(-0.346749 0 0)
(-0.344316 0 0)
(-0.341882 0 0)
(-0.339447 0 0)
(-0.337011 0 0)
(-0.334575 0 0)
(-0.332138 0 0)
(-0.3297 0 0)
(-0.327261 0 0)
(-0.324822 0 0)
(-0.322381 0 0)
(-0.319941 0 0)
(-0.317499 0 0)
(-0.315057 0 0)
(-0.312614 0 0)
(-0.31017 0 0)
(-0.307726 0 0)
(-0.305281 0 0)
(-0.302835 0 0)
(-0.300389 0 0)
(-0.297942 0 0)
(-0.295494 0 0)
(-0.293046 0 0)
(-0.290597 0 0)
(-0.288148 0 0)
(-0.285697 0 0)
(-0.283247 0 0)
(-0.280795 0 0)
(-0.278343 0 0)
(-0.27589 0 0)
(-0.273437 0 0)
(-0.270983 0 0)
(-0.268529 0 0)
(-0.266074 0 0)
(-0.263619 0 0)
(-0.261163 0 0)
(-0.258706 0 0)
(-0.256249 0 0)
(-0.253791 0 0)
(-0.251333 0 0)
(-0.248874 0 0)
(-0.246414 0 0)
(-0.243955 0 0)
(-0.241494 0 0)
(-0.239033 0 0)
(-0.236572 0 0)
(-0.23411 0 0)
(-0.231648 0 0)
(-0.229185 0 0)
(-0.226721 0 0)
(-0.224257 0 0)
(-0.221793 0 0)
(-0.219328 0 0)
(-0.216863 0 0)
(-0.214397 0 0)
(-0.211931 0 0)
(-0.209465 0 0)
(-0.206998 0 0)
(-0.20453 0 0)
(-0.202062 0 0)
(-0.199594 0 0)
(-0.197125 0 0)
(-0.194656 0 0)
(-0.192187 0 0)
(-0.189717 0 0)
(-0.187247 0 0)
(-0.184776 0 0)
(-0.182305 0 0)
(-0.179833 0 0)
(-0.177362 0 0)
(-0.174889 0 0)
(-0.172417 0 0)
(-0.169944 0 0)
(-0.167471 0 0)
(-0.164997 0 0)
(-0.162523 0 0)
(-0.160049 0 0)
(-0.157574 0 0)
(-0.155099 0 0)
(-0.152624 0 0)
(-0.150149 0 0)
(-0.147673 0 0)
(-0.145197 0 0)
(-0.14272 0 0)
(-0.140244 0 0)
(-0.137767 0 0)
(-0.135289 0 0)
(-0.132812 0 0)
(-0.130334 0 0)
(-0.127856 0 0)
(-0.125377 0 0)
(-0.122899 0 0)
(-0.12042 0 0)
(-0.117941 0 0)
(-0.115462 0 0)
(-0.112982 0 0)
(-0.110502 0 0)
(-0.108022 0 0)
(-0.105542 0 0)
(-0.103062 0 0)
(-0.100581 0 0)
(-0.0981 0 0)
(-0.095619 0 0)
(-0.0931377 0 0)
(-0.0906563 0 0)
(-0.0881747 0 0)
(-0.0856929 0 0)
(-0.0832109 0 0)
(-0.0807288 0 0)
(-0.0782465 0 0)
(-0.075764 0 0)
(-0.0732814 0 0)
(-0.0707987 0 0)
(-0.0683158 0 0)
(-0.0658328 0 0)
(-0.0633496 0 0)
(-0.0608663 0 0)
(-0.0583829 0 0)
(-0.0558994 0 0)
(-0.0534157 0 0)
(-0.050932 0 0)
(-0.0484482 0 0)
(-0.0459642 0 0)
(-0.0434802 0 0)
(-0.0409961 0 0)
(-0.0385119 0 0)
(-0.0360276 0 0)
(-0.0335432 0 0)
(-0.0310588 0 0)
(-0.0285743 0 0)
(-0.0260898 0 0)
(-0.0236052 0 0)
(-0.0211206 0 0)
(-0.0186359 0 0)
(-0.0161512 0 0)
(-0.0136665 0 0)
(-0.0111817 0 0)
(-0.00869689 0 0)
(-0.00621207 0 0)
(-0.00372725 0 0)
(-0.00124242 0 0)
)
;

boundaryField
{
    left
    {
        type            fixedValue;
        value           uniform (0 0 0);
    }
    right
    {
        type            fixedValue;
        value           uniform (0 0 0);
    }
    frontBackUpDown
    {
        type            empty;
    }
}


// ************************************************************************* //
