/*--------------------------------*- C++ -*----------------------------------*\
| =========                 |                                                 |
| \\      /  F ield         | OpenFOAM: The Open Source CFD Toolbox           |
|  \\    /   O peration     | Version:  2412                                  |
|   \\  /    A nd           | Website:  www.openfoam.com                      |
|    \\/     M anipulation  |                                                 |
\*---------------------------------------------------------------------------*/
FoamFile
{
    version     2.0;
    format      ascii;
    arch        "LSB;label=32;scalar=64";
    class       volVectorField;
    location    "0.76";
    object      U_0;
}
// * * * * * * * * * * * * * * * * * * * * * * * * * * * * * * * * * * * * * //

dimensions      [0 1 -1 0 0 0 0];

internalField   nonuniform List<vector> 
800
(
(0.00116067 0 0)
(0.00348202 0 0)
(0.00580337 0 0)
(0.00812471 0 0)
(0.010446 0 0)
(0.0127674 0 0)
(0.0150886 0 0)
(0.0174099 0 0)
(0.0197311 0 0)
(0.0220523 0 0)
(0.0243735 0 0)
(0.0266946 0 0)
(0.0290157 0 0)
(0.0313368 0 0)
(0.0336578 0 0)
(0.0359787 0 0)
(0.0382996 0 0)
(0.0406204 0 0)
(0.0429411 0 0)
(0.0452618 0 0)
(0.0475824 0 0)
(0.0499029 0 0)
(0.0522234 0 0)
(0.0545437 0 0)
(0.056864 0 0)
(0.0591842 0 0)
(0.0615043 0 0)
(0.0638242 0 0)
(0.0661441 0 0)
(0.0684639 0 0)
(0.0707835 0 0)
(0.0731031 0 0)
(0.0754225 0 0)
(0.0777418 0 0)
(0.080061 0 0)
(0.08238 0 0)
(0.0846989 0 0)
(0.0870177 0 0)
(0.0893363 0 0)
(0.0916548 0 0)
(0.0939731 0 0)
(0.0962913 0 0)
(0.0986093 0 0)
(0.100927 0 0)
(0.103245 0 0)
(0.105562 0 0)
(0.10788 0 0)
(0.110197 0 0)
(0.112514 0 0)
(0.114831 0 0)
(0.117147 0 0)
(0.119464 0 0)
(0.12178 0 0)
(0.124096 0 0)
(0.126412 0 0)
(0.128727 0 0)
(0.131043 0 0)
(0.133358 0 0)
(0.135673 0 0)
(0.137988 0 0)
(0.140302 0 0)
(0.142616 0 0)
(0.14493 0 0)
(0.147244 0 0)
(0.149558 0 0)
(0.151871 0 0)
(0.154184 0 0)
(0.156497 0 0)
(0.158809 0 0)
(0.161122 0 0)
(0.163434 0 0)
(0.165745 0 0)
(0.168057 0 0)
(0.170368 0 0)
(0.172679 0 0)
(0.174989 0 0)
(0.1773 0 0)
(0.17961 0 0)
(0.181919 0 0)
(0.184229 0 0)
(0.186538 0 0)
(0.188847 0 0)
(0.191155 0 0)
(0.193463 0 0)
(0.195771 0 0)
(0.198078 0 0)
(0.200386 0 0)
(0.202692 0 0)
(0.204999 0 0)
(0.207305 0 0)
(0.209611 0 0)
(0.211916 0 0)
(0.214221 0 0)
(0.216526 0 0)
(0.21883 0 0)
(0.221134 0 0)
(0.223437 0 0)
(0.225741 0 0)
(0.228043 0 0)
(0.230346 0 0)
(0.232648 0 0)
(0.234949 0 0)
(0.23725 0 0)
(0.239551 0 0)
(0.241852 0 0)
(0.244152 0 0)
(0.246451 0 0)
(0.24875 0 0)
(0.251049 0 0)
(0.253347 0 0)
(0.255645 0 0)
(0.257942 0 0)
(0.260239 0 0)
(0.262535 0 0)
(0.264831 0 0)
(0.267127 0 0)
(0.269422 0 0)
(0.271716 0 0)
(0.27401 0 0)
(0.276304 0 0)
(0.278597 0 0)
(0.28089 0 0)
(0.283182 0 0)
(0.285474 0 0)
(0.287765 0 0)
(0.290055 0 0)
(0.292345 0 0)
(0.294635 0 0)
(0.296924 0 0)
(0.299212 0 0)
(0.3015 0 0)
(0.303788 0 0)
(0.306075 0 0)
(0.308361 0 0)
(0.310647 0 0)
(0.312932 0 0)
(0.315217 0 0)
(0.317501 0 0)
(0.319784 0 0)
(0.322067 0 0)
(0.324349 0 0)
(0.326631 0 0)
(0.328912 0 0)
(0.331193 0 0)
(0.333473 0 0)
(0.335752 0 0)
(0.338031 0 0)
(0.340309 0 0)
(0.342586 0 0)
(0.344863 0 0)
(0.347139 0 0)
(0.349415 0 0)
(0.35169 0 0)
(0.353964 0 0)
(0.356238 0 0)
(0.358511 0 0)
(0.360783 0 0)
(0.363054 0 0)
(0.365325 0 0)
(0.367595 0 0)
(0.369865 0 0)
(0.372134 0 0)
(0.374402 0 0)
(0.376669 0 0)
(0.378936 0 0)
(0.381202 0 0)
(0.383467 0 0)
(0.385732 0 0)
(0.387995 0 0)
(0.390258 0 0)
(0.392521 0 0)
(0.394782 0 0)
(0.397043 0 0)
(0.399303 0 0)
(0.401562 0 0)
(0.40382 0 0)
(0.406078 0 0)
(0.408335 0 0)
(0.410591 0 0)
(0.412846 0 0)
(0.4151 0 0)
(0.417354 0 0)
(0.419607 0 0)
(0.421859 0 0)
(0.42411 0 0)
(0.42636 0 0)
(0.428609 0 0)
(0.430858 0 0)
(0.433105 0 0)
(0.435352 0 0)
(0.437598 0 0)
(0.439843 0 0)
(0.442087 0 0)
(0.444331 0 0)
(0.446573 0 0)
(0.448814 0 0)
(0.451055 0 0)
(0.453294 0 0)
(0.455533 0 0)
(0.457771 0 0)
(0.460007 0 0)
(0.462243 0 0)
(0.464478 0 0)
(0.466712 0 0)
(0.468945 0 0)
(0.471177 0 0)
(0.473408 0 0)
(0.475638 0 0)
(0.477867 0 0)
(0.480095 0 0)
(0.482321 0 0)
(0.484547 0 0)
(0.486772 0 0)
(0.488996 0 0)
(0.491219 0 0)
(0.49344 0 0)
(0.495661 0 0)
(0.49788 0 0)
(0.500099 0 0)
(0.502316 0 0)
(0.504533 0 0)
(0.506748 0 0)
(0.508962 0 0)
(0.511175 0 0)
(0.513386 0 0)
(0.515597 0 0)
(0.517807 0 0)
(0.520015 0 0)
(0.522222 0 0)
(0.524428 0 0)
(0.526633 0 0)
(0.528837 0 0)
(0.531039 0 0)
(0.53324 0 0)
(0.53544 0 0)
(0.537639 0 0)
(0.539836 0 0)
(0.542033 0 0)
(0.544228 0 0)
(0.546422 0 0)
(0.548614 0 0)
(0.550805 0 0)
(0.552995 0 0)
(0.555184 0 0)
(0.557371 0 0)
(0.559557 0 0)
(0.561742 0 0)
(0.563925 0 0)
(0.566107 0 0)
(0.568288 0 0)
(0.570467 0 0)
(0.572645 0 0)
(0.574821 0 0)
(0.576996 0 0)
(0.57917 0 0)
(0.581342 0 0)
(0.583513 0 0)
(0.585682 0 0)
(0.58785 0 0)
(0.590016 0 0)
(0.592181 0 0)
(0.594345 0 0)
(0.596507 0 0)
(0.598667 0 0)
(0.600826 0 0)
(0.602983 0 0)
(0.605139 0 0)
(0.607293 0 0)
(0.609446 0 0)
(0.611597 0 0)
(0.613747 0 0)
(0.615894 0 0)
(0.618041 0 0)
(0.620185 0 0)
(0.622328 0 0)
(0.62447 0 0)
(0.626609 0 0)
(0.628747 0 0)
(0.630884 0 0)
(0.633018 0 0)
(0.635151 0 0)
(0.637282 0 0)
(0.639412 0 0)
(0.641539 0 0)
(0.643665 0 0)
(0.645789 0 0)
(0.647911 0 0)
(0.650032 0 0)
(0.65215 0 0)
(0.654267 0 0)
(0.656382 0 0)
(0.658495 0 0)
(0.660606 0 0)
(0.662715 0 0)
(0.664822 0 0)
(0.666928 0 0)
(0.669031 0 0)
(0.671132 0 0)
(0.673232 0 0)
(0.675329 0 0)
(0.677424 0 0)
(0.679518 0 0)
(0.681609 0 0)
(0.683698 0 0)
(0.685785 0 0)
(0.68787 0 0)
(0.689953 0 0)
(0.692034 0 0)
(0.694113 0 0)
(0.696189 0 0)
(0.698263 0 0)
(0.700335 0 0)
(0.702405 0 0)
(0.704473 0 0)
(0.706538 0 0)
(0.708601 0 0)
(0.710662 0 0)
(0.71272 0 0)
(0.714776 0 0)
(0.71683 0 0)
(0.718881 0 0)
(0.72093 0 0)
(0.722976 0 0)
(0.72502 0 0)
(0.727062 0 0)
(0.729101 0 0)
(0.731138 0 0)
(0.733172 0 0)
(0.735203 0 0)
(0.737232 0 0)
(0.739258 0 0)
(0.741282 0 0)
(0.743303 0 0)
(0.745321 0 0)
(0.747337 0 0)
(0.749349 0 0)
(0.75136 0 0)
(0.753367 0 0)
(0.755372 0 0)
(0.757373 0 0)
(0.759372 0 0)
(0.761368 0 0)
(0.763361 0 0)
(0.765351 0 0)
(0.767339 0 0)
(0.769323 0 0)
(0.771304 0 0)
(0.773282 0 0)
(0.775257 0 0)
(0.777229 0 0)
(0.779198 0 0)
(0.781164 0 0)
(0.783126 0 0)
(0.785086 0 0)
(0.787042 0 0)
(0.788995 0 0)
(0.790944 0 0)
(0.79289 0 0)
(0.794833 0 0)
(0.796772 0 0)
(0.798708 0 0)
(0.80064 0 0)
(0.802569 0 0)
(0.804494 0 0)
(0.806416 0 0)
(0.808334 0 0)
(0.810248 0 0)
(0.812159 0 0)
(0.814066 0 0)
(0.815969 0 0)
(0.817868 0 0)
(0.819763 0 0)
(0.821655 0 0)
(0.823542 0 0)
(0.825426 0 0)
(0.827305 0 0)
(0.829181 0 0)
(0.831052 0 0)
(0.832919 0 0)
(0.834782 0 0)
(0.83664 0 0)
(0.838495 0 0)
(0.840345 0 0)
(0.84219 0 0)
(0.844031 0 0)
(0.845867 0 0)
(0.847699 0 0)
(0.849527 0 0)
(0.851349 0 0)
(0.853167 0 0)
(0.85498 0 0)
(0.856788 0 0)
(0.858592 0 0)
(0.86039 0 0)
(0.862183 0 0)
(0.863972 0 0)
(0.865745 0 0)
(0.867782 0 0)
(0.862201 0 0)
(0.475819 0 0)
(-0.474538 0 0)
(-0.862087 0 0)
(-0.867784 0 0)
(-0.865743 0 0)
(-0.863969 0 0)
(-0.862181 0 0)
(-0.860388 0 0)
(-0.858589 0 0)
(-0.856786 0 0)
(-0.854978 0 0)
(-0.853165 0 0)
(-0.851347 0 0)
(-0.849524 0 0)
(-0.847697 0 0)
(-0.845865 0 0)
(-0.844029 0 0)
(-0.842188 0 0)
(-0.840342 0 0)
(-0.838492 0 0)
(-0.836638 0 0)
(-0.834779 0 0)
(-0.832917 0 0)
(-0.831049 0 0)
(-0.829178 0 0)
(-0.827303 0 0)
(-0.825423 0 0)
(-0.82354 0 0)
(-0.821652 0 0)
(-0.819761 0 0)
(-0.817866 0 0)
(-0.815966 0 0)
(-0.814063 0 0)
(-0.812156 0 0)
(-0.810246 0 0)
(-0.808331 0 0)
(-0.806413 0 0)
(-0.804492 0 0)
(-0.802567 0 0)
(-0.800638 0 0)
(-0.798705 0 0)
(-0.79677 0 0)
(-0.79483 0 0)
(-0.792888 0 0)
(-0.790942 0 0)
(-0.788992 0 0)
(-0.787039 0 0)
(-0.785083 0 0)
(-0.783124 0 0)
(-0.781162 0 0)
(-0.779196 0 0)
(-0.777227 0 0)
(-0.775255 0 0)
(-0.77328 0 0)
(-0.771302 0 0)
(-0.76932 0 0)
(-0.767336 0 0)
(-0.765349 0 0)
(-0.763359 0 0)
(-0.761366 0 0)
(-0.75937 0 0)
(-0.757371 0 0)
(-0.755369 0 0)
(-0.753365 0 0)
(-0.751357 0 0)
(-0.749347 0 0)
(-0.747334 0 0)
(-0.745319 0 0)
(-0.7433 0 0)
(-0.741279 0 0)
(-0.739256 0 0)
(-0.73723 0 0)
(-0.735201 0 0)
(-0.733169 0 0)
(-0.731135 0 0)
(-0.729099 0 0)
(-0.72706 0 0)
(-0.725018 0 0)
(-0.722974 0 0)
(-0.720928 0 0)
(-0.718879 0 0)
(-0.716828 0 0)
(-0.714774 0 0)
(-0.712718 0 0)
(-0.71066 0 0)
(-0.708599 0 0)
(-0.706536 0 0)
(-0.704471 0 0)
(-0.702403 0 0)
(-0.700333 0 0)
(-0.698261 0 0)
(-0.696187 0 0)
(-0.694111 0 0)
(-0.692032 0 0)
(-0.689951 0 0)
(-0.687868 0 0)
(-0.685783 0 0)
(-0.683696 0 0)
(-0.681607 0 0)
(-0.679516 0 0)
(-0.677422 0 0)
(-0.675327 0 0)
(-0.67323 0 0)
(-0.67113 0 0)
(-0.669029 0 0)
(-0.666925 0 0)
(-0.66482 0 0)
(-0.662713 0 0)
(-0.660604 0 0)
(-0.658493 0 0)
(-0.65638 0 0)
(-0.654265 0 0)
(-0.652148 0 0)
(-0.65003 0 0)
(-0.647909 0 0)
(-0.645787 0 0)
(-0.643663 0 0)
(-0.641537 0 0)
(-0.639409 0 0)
(-0.63728 0 0)
(-0.635149 0 0)
(-0.633016 0 0)
(-0.630882 0 0)
(-0.628745 0 0)
(-0.626607 0 0)
(-0.624468 0 0)
(-0.622326 0 0)
(-0.620183 0 0)
(-0.618039 0 0)
(-0.615893 0 0)
(-0.613745 0 0)
(-0.611595 0 0)
(-0.609444 0 0)
(-0.607291 0 0)
(-0.605137 0 0)
(-0.602981 0 0)
(-0.600824 0 0)
(-0.598665 0 0)
(-0.596505 0 0)
(-0.594343 0 0)
(-0.592179 0 0)
(-0.590015 0 0)
(-0.587848 0 0)
(-0.58568 0 0)
(-0.583511 0 0)
(-0.58134 0 0)
(-0.579168 0 0)
(-0.576994 0 0)
(-0.574819 0 0)
(-0.572643 0 0)
(-0.570465 0 0)
(-0.568286 0 0)
(-0.566105 0 0)
(-0.563923 0 0)
(-0.56174 0 0)
(-0.559555 0 0)
(-0.557369 0 0)
(-0.555182 0 0)
(-0.552994 0 0)
(-0.550804 0 0)
(-0.548612 0 0)
(-0.54642 0 0)
(-0.544226 0 0)
(-0.542031 0 0)
(-0.539835 0 0)
(-0.537637 0 0)
(-0.535439 0 0)
(-0.533239 0 0)
(-0.531037 0 0)
(-0.528835 0 0)
(-0.526631 0 0)
(-0.524427 0 0)
(-0.522221 0 0)
(-0.520013 0 0)
(-0.517805 0 0)
(-0.515596 0 0)
(-0.513385 0 0)
(-0.511173 0 0)
(-0.50896 0 0)
(-0.506746 0 0)
(-0.504531 0 0)
(-0.502315 0 0)
(-0.500098 0 0)
(-0.497879 0 0)
(-0.49566 0 0)
(-0.493439 0 0)
(-0.491217 0 0)
(-0.488995 0 0)
(-0.486771 0 0)
(-0.484546 0 0)
(-0.48232 0 0)
(-0.480093 0 0)
(-0.477865 0 0)
(-0.475636 0 0)
(-0.473406 0 0)
(-0.471176 0 0)
(-0.468944 0 0)
(-0.466711 0 0)
(-0.464477 0 0)
(-0.462242 0 0)
(-0.460006 0 0)
(-0.45777 0 0)
(-0.455532 0 0)
(-0.453293 0 0)
(-0.451054 0 0)
(-0.448813 0 0)
(-0.446572 0 0)
(-0.444329 0 0)
(-0.442086 0 0)
(-0.439842 0 0)
(-0.437597 0 0)
(-0.435351 0 0)
(-0.433104 0 0)
(-0.430857 0 0)
(-0.428608 0 0)
(-0.426359 0 0)
(-0.424109 0 0)
(-0.421858 0 0)
(-0.419606 0 0)
(-0.417353 0 0)
(-0.415099 0 0)
(-0.412845 0 0)
(-0.41059 0 0)
(-0.408334 0 0)
(-0.406077 0 0)
(-0.403819 0 0)
(-0.401561 0 0)
(-0.399302 0 0)
(-0.397042 0 0)
(-0.394781 0 0)
(-0.39252 0 0)
(-0.390257 0 0)
(-0.387994 0 0)
(-0.385731 0 0)
(-0.383466 0 0)
(-0.381201 0 0)
(-0.378935 0 0)
(-0.376668 0 0)
(-0.374401 0 0)
(-0.372133 0 0)
(-0.369864 0 0)
(-0.367595 0 0)
(-0.365325 0 0)
(-0.363054 0 0)
(-0.360782 0 0)
(-0.35851 0 0)
(-0.356237 0 0)
(-0.353963 0 0)
(-0.351689 0 0)
(-0.349414 0 0)
(-0.347139 0 0)
(-0.344863 0 0)
(-0.342586 0 0)
(-0.340308 0 0)
(-0.33803 0 0)
(-0.335752 0 0)
(-0.333472 0 0)
(-0.331192 0 0)
(-0.328912 0 0)
(-0.326631 0 0)
(-0.324349 0 0)
(-0.322067 0 0)
(-0.319784 0 0)
(-0.3175 0 0)
(-0.315216 0 0)
(-0.312931 0 0)
(-0.310646 0 0)
(-0.30836 0 0)
(-0.306074 0 0)
(-0.303787 0 0)
(-0.3015 0 0)
(-0.299212 0 0)
(-0.296923 0 0)
(-0.294634 0 0)
(-0.292345 0 0)
(-0.290055 0 0)
(-0.287764 0 0)
(-0.285473 0 0)
(-0.283181 0 0)
(-0.280889 0 0)
(-0.278597 0 0)
(-0.276304 0 0)
(-0.27401 0 0)
(-0.271716 0 0)
(-0.269421 0 0)
(-0.267126 0 0)
(-0.264831 0 0)
(-0.262535 0 0)
(-0.260239 0 0)
(-0.257942 0 0)
(-0.255644 0 0)
(-0.253347 0 0)
(-0.251048 0 0)
(-0.24875 0 0)
(-0.246451 0 0)
(-0.244151 0 0)
(-0.241851 0 0)
(-0.239551 0 0)
(-0.23725 0 0)
(-0.234949 0 0)
(-0.232647 0 0)
(-0.230345 0 0)
(-0.228043 0 0)
(-0.22574 0 0)
(-0.223437 0 0)
(-0.221134 0 0)
(-0.21883 0 0)
(-0.216525 0 0)
(-0.214221 0 0)
(-0.211916 0 0)
(-0.20961 0 0)
(-0.207305 0 0)
(-0.204999 0 0)
(-0.202692 0 0)
(-0.200385 0 0)
(-0.198078 0 0)
(-0.195771 0 0)
(-0.193463 0 0)
(-0.191155 0 0)
(-0.188846 0 0)
(-0.186538 0 0)
(-0.184229 0 0)
(-0.181919 0 0)
(-0.17961 0 0)
(-0.1773 0 0)
(-0.174989 0 0)
(-0.172679 0 0)
(-0.170368 0 0)
(-0.168057 0 0)
(-0.165745 0 0)
(-0.163433 0 0)
(-0.161121 0 0)
(-0.158809 0 0)
(-0.156497 0 0)
(-0.154184 0 0)
(-0.151871 0 0)
(-0.149558 0 0)
(-0.147244 0 0)
(-0.14493 0 0)
(-0.142616 0 0)
(-0.140302 0 0)
(-0.137987 0 0)
(-0.135673 0 0)
(-0.133358 0 0)
(-0.131043 0 0)
(-0.128727 0 0)
(-0.126412 0 0)
(-0.124096 0 0)
(-0.12178 0 0)
(-0.119464 0 0)
(-0.117147 0 0)
(-0.114831 0 0)
(-0.112514 0 0)
(-0.110197 0 0)
(-0.10788 0 0)
(-0.105562 0 0)
(-0.103245 0 0)
(-0.100927 0 0)
(-0.0986092 0 0)
(-0.0962912 0 0)
(-0.0939731 0 0)
(-0.0916547 0 0)
(-0.0893363 0 0)
(-0.0870176 0 0)
(-0.0846989 0 0)
(-0.08238 0 0)
(-0.0800609 0 0)
(-0.0777418 0 0)
(-0.0754225 0 0)
(-0.0731031 0 0)
(-0.0707835 0 0)
(-0.0684639 0 0)
(-0.0661441 0 0)
(-0.0638242 0 0)
(-0.0615042 0 0)
(-0.0591842 0 0)
(-0.056864 0 0)
(-0.0545437 0 0)
(-0.0522234 0 0)
(-0.0499029 0 0)
(-0.0475824 0 0)
(-0.0452618 0 0)
(-0.0429411 0 0)
(-0.0406204 0 0)
(-0.0382996 0 0)
(-0.0359787 0 0)
(-0.0336578 0 0)
(-0.0313368 0 0)
(-0.0290157 0 0)
(-0.0266946 0 0)
(-0.0243735 0 0)
(-0.0220524 0 0)
(-0.0197311 0 0)
(-0.0174099 0 0)
(-0.0150886 0 0)
(-0.0127674 0 0)
(-0.010446 0 0)
(-0.00812472 0 0)
(-0.00580338 0 0)
(-0.00348203 0 0)
(-0.00116068 0 0)
)
;

boundaryField
{
    left
    {
        type            fixedValue;
        value           uniform (0 0 0);
    }
    right
    {
        type            fixedValue;
        value           uniform (0 0 0);
    }
    frontBackUpDown
    {
        type            empty;
    }
}


// ************************************************************************* //
