/*--------------------------------*- C++ -*----------------------------------*\
| =========                 |                                                 |
| \\      /  F ield         | OpenFOAM: The Open Source CFD Toolbox           |
|  \\    /   O peration     | Version:  2412                                  |
|   \\  /    A nd           | Website:  www.openfoam.com                      |
|    \\/     M anipulation  |                                                 |
\*---------------------------------------------------------------------------*/
FoamFile
{
    version     2.0;
    format      ascii;
    arch        "LSB;label=32;scalar=64";
    class       volVectorField;
    location    "0.76";
    object      U_0_0_0;
}
// * * * * * * * * * * * * * * * * * * * * * * * * * * * * * * * * * * * * * //

dimensions      [0 1 -1 0 0 0 0];

internalField   nonuniform List<vector> 
800
(
(0.00116174 0 0)
(0.00348525 0 0)
(0.00580875 0 0)
(0.00813225 0 0)
(0.0104557 0 0)
(0.0127792 0 0)
(0.0151026 0 0)
(0.0174261 0 0)
(0.0197494 0 0)
(0.0220728 0 0)
(0.0243961 0 0)
(0.0267194 0 0)
(0.0290426 0 0)
(0.0313658 0 0)
(0.033689 0 0)
(0.0360121 0 0)
(0.0383351 0 0)
(0.040658 0 0)
(0.0429809 0 0)
(0.0453038 0 0)
(0.0476265 0 0)
(0.0499492 0 0)
(0.0522718 0 0)
(0.0545943 0 0)
(0.0569167 0 0)
(0.059239 0 0)
(0.0615613 0 0)
(0.0638834 0 0)
(0.0662054 0 0)
(0.0685273 0 0)
(0.0708491 0 0)
(0.0731708 0 0)
(0.0754924 0 0)
(0.0778138 0 0)
(0.0801352 0 0)
(0.0824563 0 0)
(0.0847774 0 0)
(0.0870983 0 0)
(0.0894191 0 0)
(0.0917397 0 0)
(0.0940602 0 0)
(0.0963805 0 0)
(0.0987006 0 0)
(0.101021 0 0)
(0.10334 0 0)
(0.10566 0 0)
(0.10798 0 0)
(0.110299 0 0)
(0.112618 0 0)
(0.114937 0 0)
(0.117256 0 0)
(0.119574 0 0)
(0.121893 0 0)
(0.124211 0 0)
(0.126529 0 0)
(0.128846 0 0)
(0.131164 0 0)
(0.133481 0 0)
(0.135798 0 0)
(0.138115 0 0)
(0.140432 0 0)
(0.142748 0 0)
(0.145064 0 0)
(0.14738 0 0)
(0.149696 0 0)
(0.152011 0 0)
(0.154327 0 0)
(0.156641 0 0)
(0.158956 0 0)
(0.161271 0 0)
(0.163585 0 0)
(0.165898 0 0)
(0.168212 0 0)
(0.170525 0 0)
(0.172838 0 0)
(0.175151 0 0)
(0.177463 0 0)
(0.179775 0 0)
(0.182087 0 0)
(0.184399 0 0)
(0.18671 0 0)
(0.189021 0 0)
(0.191331 0 0)
(0.193642 0 0)
(0.195951 0 0)
(0.198261 0 0)
(0.20057 0 0)
(0.202879 0 0)
(0.205188 0 0)
(0.207496 0 0)
(0.209804 0 0)
(0.212111 0 0)
(0.214418 0 0)
(0.216725 0 0)
(0.219031 0 0)
(0.221337 0 0)
(0.223643 0 0)
(0.225948 0 0)
(0.228253 0 0)
(0.230558 0 0)
(0.232862 0 0)
(0.235165 0 0)
(0.237469 0 0)
(0.239771 0 0)
(0.242074 0 0)
(0.244376 0 0)
(0.246677 0 0)
(0.248979 0 0)
(0.251279 0 0)
(0.25358 0 0)
(0.255879 0 0)
(0.258179 0 0)
(0.260478 0 0)
(0.262776 0 0)
(0.265074 0 0)
(0.267372 0 0)
(0.269669 0 0)
(0.271965 0 0)
(0.274262 0 0)
(0.276557 0 0)
(0.278852 0 0)
(0.281147 0 0)
(0.283441 0 0)
(0.285735 0 0)
(0.288028 0 0)
(0.290321 0 0)
(0.292613 0 0)
(0.294904 0 0)
(0.297195 0 0)
(0.299486 0 0)
(0.301776 0 0)
(0.304065 0 0)
(0.306354 0 0)
(0.308643 0 0)
(0.31093 0 0)
(0.313218 0 0)
(0.315504 0 0)
(0.31779 0 0)
(0.320076 0 0)
(0.322361 0 0)
(0.324645 0 0)
(0.326929 0 0)
(0.329212 0 0)
(0.331495 0 0)
(0.333777 0 0)
(0.336058 0 0)
(0.338339 0 0)
(0.340619 0 0)
(0.342898 0 0)
(0.345177 0 0)
(0.347455 0 0)
(0.349733 0 0)
(0.35201 0 0)
(0.354286 0 0)
(0.356561 0 0)
(0.358836 0 0)
(0.36111 0 0)
(0.363384 0 0)
(0.365657 0 0)
(0.367929 0 0)
(0.3702 0 0)
(0.372471 0 0)
(0.374741 0 0)
(0.37701 0 0)
(0.379279 0 0)
(0.381547 0 0)
(0.383814 0 0)
(0.386081 0 0)
(0.388346 0 0)
(0.390611 0 0)
(0.392875 0 0)
(0.395139 0 0)
(0.397401 0 0)
(0.399663 0 0)
(0.401924 0 0)
(0.404185 0 0)
(0.406444 0 0)
(0.408703 0 0)
(0.410961 0 0)
(0.413218 0 0)
(0.415474 0 0)
(0.41773 0 0)
(0.419984 0 0)
(0.422238 0 0)
(0.424491 0 0)
(0.426743 0 0)
(0.428994 0 0)
(0.431245 0 0)
(0.433494 0 0)
(0.435743 0 0)
(0.437991 0 0)
(0.440238 0 0)
(0.442484 0 0)
(0.444729 0 0)
(0.446973 0 0)
(0.449216 0 0)
(0.451459 0 0)
(0.4537 0 0)
(0.45594 0 0)
(0.45818 0 0)
(0.460419 0 0)
(0.462656 0 0)
(0.464893 0 0)
(0.467129 0 0)
(0.469363 0 0)
(0.471597 0 0)
(0.47383 0 0)
(0.476061 0 0)
(0.478292 0 0)
(0.480522 0 0)
(0.482751 0 0)
(0.484978 0 0)
(0.487205 0 0)
(0.48943 0 0)
(0.491655 0 0)
(0.493878 0 0)
(0.496101 0 0)
(0.498322 0 0)
(0.500542 0 0)
(0.502761 0 0)
(0.504979 0 0)
(0.507196 0 0)
(0.509412 0 0)
(0.511627 0 0)
(0.51384 0 0)
(0.516052 0 0)
(0.518264 0 0)
(0.520474 0 0)
(0.522683 0 0)
(0.52489 0 0)
(0.527097 0 0)
(0.529302 0 0)
(0.531506 0 0)
(0.533709 0 0)
(0.535911 0 0)
(0.538111 0 0)
(0.54031 0 0)
(0.542508 0 0)
(0.544705 0 0)
(0.5469 0 0)
(0.549095 0 0)
(0.551287 0 0)
(0.553479 0 0)
(0.555669 0 0)
(0.557858 0 0)
(0.560046 0 0)
(0.562232 0 0)
(0.564417 0 0)
(0.566601 0 0)
(0.568783 0 0)
(0.570963 0 0)
(0.573143 0 0)
(0.575321 0 0)
(0.577498 0 0)
(0.579673 0 0)
(0.581846 0 0)
(0.584019 0 0)
(0.58619 0 0)
(0.588359 0 0)
(0.590527 0 0)
(0.592693 0 0)
(0.594858 0 0)
(0.597022 0 0)
(0.599184 0 0)
(0.601344 0 0)
(0.603503 0 0)
(0.60566 0 0)
(0.607816 0 0)
(0.60997 0 0)
(0.612123 0 0)
(0.614274 0 0)
(0.616423 0 0)
(0.618571 0 0)
(0.620717 0 0)
(0.622861 0 0)
(0.625004 0 0)
(0.627145 0 0)
(0.629284 0 0)
(0.631422 0 0)
(0.633558 0 0)
(0.635692 0 0)
(0.637825 0 0)
(0.639955 0 0)
(0.642084 0 0)
(0.644212 0 0)
(0.646337 0 0)
(0.648461 0 0)
(0.650582 0 0)
(0.652702 0 0)
(0.65482 0 0)
(0.656936 0 0)
(0.659051 0 0)
(0.661163 0 0)
(0.663273 0 0)
(0.665382 0 0)
(0.667488 0 0)
(0.669593 0 0)
(0.671696 0 0)
(0.673796 0 0)
(0.675895 0 0)
(0.677992 0 0)
(0.680086 0 0)
(0.682179 0 0)
(0.684269 0 0)
(0.686357 0 0)
(0.688443 0 0)
(0.690527 0 0)
(0.692609 0 0)
(0.694689 0 0)
(0.696767 0 0)
(0.698842 0 0)
(0.700915 0 0)
(0.702986 0 0)
(0.705055 0 0)
(0.707121 0 0)
(0.709185 0 0)
(0.711247 0 0)
(0.713306 0 0)
(0.715363 0 0)
(0.717418 0 0)
(0.71947 0 0)
(0.72152 0 0)
(0.723568 0 0)
(0.725613 0 0)
(0.727655 0 0)
(0.729695 0 0)
(0.731732 0 0)
(0.733767 0 0)
(0.7358 0 0)
(0.737829 0 0)
(0.739857 0 0)
(0.741881 0 0)
(0.743903 0 0)
(0.745922 0 0)
(0.747938 0 0)
(0.749952 0 0)
(0.751963 0 0)
(0.753971 0 0)
(0.755976 0 0)
(0.757979 0 0)
(0.759979 0 0)
(0.761975 0 0)
(0.763969 0 0)
(0.76596 0 0)
(0.767948 0 0)
(0.769933 0 0)
(0.771915 0 0)
(0.773893 0 0)
(0.775869 0 0)
(0.777842 0 0)
(0.779811 0 0)
(0.781777 0 0)
(0.78374 0 0)
(0.7857 0 0)
(0.787657 0 0)
(0.78961 0 0)
(0.79156 0 0)
(0.793506 0 0)
(0.79545 0 0)
(0.797389 0 0)
(0.799325 0 0)
(0.801258 0 0)
(0.803187 0 0)
(0.805113 0 0)
(0.807035 0 0)
(0.808953 0 0)
(0.810868 0 0)
(0.812779 0 0)
(0.814686 0 0)
(0.816589 0 0)
(0.818488 0 0)
(0.820384 0 0)
(0.822276 0 0)
(0.824163 0 0)
(0.826047 0 0)
(0.827926 0 0)
(0.829802 0 0)
(0.831673 0 0)
(0.83354 0 0)
(0.835403 0 0)
(0.837261 0 0)
(0.839116 0 0)
(0.840965 0 0)
(0.842811 0 0)
(0.844651 0 0)
(0.846488 0 0)
(0.848319 0 0)
(0.850146 0 0)
(0.851969 0 0)
(0.853786 0 0)
(0.855599 0 0)
(0.857407 0 0)
(0.85921 0 0)
(0.861008 0 0)
(0.862801 0 0)
(0.864589 0 0)
(0.866362 0 0)
(0.868393 0 0)
(0.862989 0 0)
(0.476491 0 0)
(-0.475209 0 0)
(-0.862876 0 0)
(-0.868395 0 0)
(-0.866359 0 0)
(-0.864586 0 0)
(-0.862798 0 0)
(-0.861005 0 0)
(-0.859207 0 0)
(-0.857405 0 0)
(-0.855597 0 0)
(-0.853784 0 0)
(-0.851966 0 0)
(-0.850144 0 0)
(-0.848317 0 0)
(-0.846485 0 0)
(-0.844649 0 0)
(-0.842808 0 0)
(-0.840963 0 0)
(-0.839113 0 0)
(-0.837259 0 0)
(-0.8354 0 0)
(-0.833538 0 0)
(-0.831671 0 0)
(-0.829799 0 0)
(-0.827924 0 0)
(-0.826044 0 0)
(-0.824161 0 0)
(-0.822273 0 0)
(-0.820381 0 0)
(-0.818486 0 0)
(-0.816587 0 0)
(-0.814683 0 0)
(-0.812776 0 0)
(-0.810865 0 0)
(-0.808951 0 0)
(-0.807032 0 0)
(-0.80511 0 0)
(-0.803185 0 0)
(-0.801256 0 0)
(-0.799323 0 0)
(-0.797387 0 0)
(-0.795447 0 0)
(-0.793504 0 0)
(-0.791557 0 0)
(-0.789608 0 0)
(-0.787654 0 0)
(-0.785698 0 0)
(-0.783738 0 0)
(-0.781775 0 0)
(-0.779809 0 0)
(-0.777839 0 0)
(-0.775867 0 0)
(-0.773891 0 0)
(-0.771912 0 0)
(-0.76993 0 0)
(-0.767945 0 0)
(-0.765958 0 0)
(-0.763967 0 0)
(-0.761973 0 0)
(-0.759976 0 0)
(-0.757977 0 0)
(-0.755974 0 0)
(-0.753969 0 0)
(-0.751961 0 0)
(-0.74995 0 0)
(-0.747936 0 0)
(-0.74592 0 0)
(-0.7439 0 0)
(-0.741879 0 0)
(-0.739854 0 0)
(-0.737827 0 0)
(-0.735797 0 0)
(-0.733765 0 0)
(-0.73173 0 0)
(-0.729693 0 0)
(-0.727653 0 0)
(-0.72561 0 0)
(-0.723565 0 0)
(-0.721518 0 0)
(-0.719468 0 0)
(-0.717416 0 0)
(-0.715361 0 0)
(-0.713304 0 0)
(-0.711245 0 0)
(-0.709183 0 0)
(-0.707119 0 0)
(-0.705052 0 0)
(-0.702984 0 0)
(-0.700913 0 0)
(-0.69884 0 0)
(-0.696764 0 0)
(-0.694687 0 0)
(-0.692607 0 0)
(-0.690525 0 0)
(-0.688441 0 0)
(-0.686355 0 0)
(-0.684267 0 0)
(-0.682176 0 0)
(-0.680084 0 0)
(-0.677989 0 0)
(-0.675893 0 0)
(-0.673794 0 0)
(-0.671694 0 0)
(-0.669591 0 0)
(-0.667486 0 0)
(-0.66538 0 0)
(-0.663271 0 0)
(-0.661161 0 0)
(-0.659049 0 0)
(-0.656934 0 0)
(-0.654818 0 0)
(-0.6527 0 0)
(-0.65058 0 0)
(-0.648458 0 0)
(-0.646335 0 0)
(-0.64421 0 0)
(-0.642082 0 0)
(-0.639953 0 0)
(-0.637823 0 0)
(-0.63569 0 0)
(-0.633556 0 0)
(-0.63142 0 0)
(-0.629282 0 0)
(-0.627143 0 0)
(-0.625002 0 0)
(-0.622859 0 0)
(-0.620715 0 0)
(-0.618569 0 0)
(-0.616421 0 0)
(-0.614272 0 0)
(-0.612121 0 0)
(-0.609968 0 0)
(-0.607814 0 0)
(-0.605658 0 0)
(-0.603501 0 0)
(-0.601342 0 0)
(-0.599182 0 0)
(-0.59702 0 0)
(-0.594857 0 0)
(-0.592692 0 0)
(-0.590525 0 0)
(-0.588357 0 0)
(-0.586188 0 0)
(-0.584017 0 0)
(-0.581845 0 0)
(-0.579671 0 0)
(-0.577496 0 0)
(-0.575319 0 0)
(-0.573141 0 0)
(-0.570962 0 0)
(-0.568781 0 0)
(-0.566599 0 0)
(-0.564415 0 0)
(-0.56223 0 0)
(-0.560044 0 0)
(-0.557857 0 0)
(-0.555668 0 0)
(-0.553477 0 0)
(-0.551286 0 0)
(-0.549093 0 0)
(-0.546899 0 0)
(-0.544703 0 0)
(-0.542507 0 0)
(-0.540309 0 0)
(-0.53811 0 0)
(-0.535909 0 0)
(-0.533708 0 0)
(-0.531505 0 0)
(-0.529301 0 0)
(-0.527095 0 0)
(-0.524889 0 0)
(-0.522681 0 0)
(-0.520472 0 0)
(-0.518262 0 0)
(-0.516051 0 0)
(-0.513839 0 0)
(-0.511625 0 0)
(-0.509411 0 0)
(-0.507195 0 0)
(-0.504978 0 0)
(-0.50276 0 0)
(-0.500541 0 0)
(-0.498321 0 0)
(-0.496099 0 0)
(-0.493877 0 0)
(-0.491654 0 0)
(-0.489429 0 0)
(-0.487203 0 0)
(-0.484977 0 0)
(-0.482749 0 0)
(-0.480521 0 0)
(-0.478291 0 0)
(-0.47606 0 0)
(-0.473828 0 0)
(-0.471596 0 0)
(-0.469362 0 0)
(-0.467127 0 0)
(-0.464892 0 0)
(-0.462655 0 0)
(-0.460417 0 0)
(-0.458179 0 0)
(-0.455939 0 0)
(-0.453699 0 0)
(-0.451457 0 0)
(-0.449215 0 0)
(-0.446972 0 0)
(-0.444728 0 0)
(-0.442483 0 0)
(-0.440237 0 0)
(-0.43799 0 0)
(-0.435742 0 0)
(-0.433493 0 0)
(-0.431244 0 0)
(-0.428993 0 0)
(-0.426742 0 0)
(-0.42449 0 0)
(-0.422237 0 0)
(-0.419983 0 0)
(-0.417729 0 0)
(-0.415473 0 0)
(-0.413217 0 0)
(-0.41096 0 0)
(-0.408702 0 0)
(-0.406443 0 0)
(-0.404184 0 0)
(-0.401923 0 0)
(-0.399662 0 0)
(-0.3974 0 0)
(-0.395138 0 0)
(-0.392874 0 0)
(-0.39061 0 0)
(-0.388345 0 0)
(-0.38608 0 0)
(-0.383813 0 0)
(-0.381546 0 0)
(-0.379278 0 0)
(-0.37701 0 0)
(-0.37474 0 0)
(-0.37247 0 0)
(-0.3702 0 0)
(-0.367928 0 0)
(-0.365656 0 0)
(-0.363383 0 0)
(-0.36111 0 0)
(-0.358835 0 0)
(-0.356561 0 0)
(-0.354285 0 0)
(-0.352009 0 0)
(-0.349732 0 0)
(-0.347454 0 0)
(-0.345176 0 0)
(-0.342897 0 0)
(-0.340618 0 0)
(-0.338338 0 0)
(-0.336057 0 0)
(-0.333776 0 0)
(-0.331494 0 0)
(-0.329211 0 0)
(-0.326928 0 0)
(-0.324645 0 0)
(-0.32236 0 0)
(-0.320075 0 0)
(-0.31779 0 0)
(-0.315504 0 0)
(-0.313217 0 0)
(-0.31093 0 0)
(-0.308642 0 0)
(-0.306354 0 0)
(-0.304065 0 0)
(-0.301775 0 0)
(-0.299485 0 0)
(-0.297195 0 0)
(-0.294904 0 0)
(-0.292612 0 0)
(-0.29032 0 0)
(-0.288028 0 0)
(-0.285734 0 0)
(-0.283441 0 0)
(-0.281147 0 0)
(-0.278852 0 0)
(-0.276557 0 0)
(-0.274261 0 0)
(-0.271965 0 0)
(-0.269668 0 0)
(-0.267371 0 0)
(-0.265074 0 0)
(-0.262776 0 0)
(-0.260477 0 0)
(-0.258178 0 0)
(-0.255879 0 0)
(-0.253579 0 0)
(-0.251279 0 0)
(-0.248978 0 0)
(-0.246677 0 0)
(-0.244375 0 0)
(-0.242073 0 0)
(-0.239771 0 0)
(-0.237468 0 0)
(-0.235165 0 0)
(-0.232861 0 0)
(-0.230557 0 0)
(-0.228253 0 0)
(-0.225948 0 0)
(-0.223643 0 0)
(-0.221337 0 0)
(-0.219031 0 0)
(-0.216725 0 0)
(-0.214418 0 0)
(-0.212111 0 0)
(-0.209803 0 0)
(-0.207496 0 0)
(-0.205187 0 0)
(-0.202879 0 0)
(-0.20057 0 0)
(-0.198261 0 0)
(-0.195951 0 0)
(-0.193641 0 0)
(-0.191331 0 0)
(-0.189021 0 0)
(-0.18671 0 0)
(-0.184399 0 0)
(-0.182087 0 0)
(-0.179775 0 0)
(-0.177463 0 0)
(-0.175151 0 0)
(-0.172838 0 0)
(-0.170525 0 0)
(-0.168212 0 0)
(-0.165898 0 0)
(-0.163584 0 0)
(-0.16127 0 0)
(-0.158956 0 0)
(-0.156641 0 0)
(-0.154326 0 0)
(-0.152011 0 0)
(-0.149696 0 0)
(-0.14738 0 0)
(-0.145064 0 0)
(-0.142748 0 0)
(-0.140432 0 0)
(-0.138115 0 0)
(-0.135798 0 0)
(-0.133481 0 0)
(-0.131164 0 0)
(-0.128846 0 0)
(-0.126529 0 0)
(-0.124211 0 0)
(-0.121892 0 0)
(-0.119574 0 0)
(-0.117256 0 0)
(-0.114937 0 0)
(-0.112618 0 0)
(-0.110299 0 0)
(-0.10798 0 0)
(-0.10566 0 0)
(-0.10334 0 0)
(-0.101021 0 0)
(-0.0987006 0 0)
(-0.0963804 0 0)
(-0.0940601 0 0)
(-0.0917396 0 0)
(-0.089419 0 0)
(-0.0870982 0 0)
(-0.0847773 0 0)
(-0.0824563 0 0)
(-0.0801351 0 0)
(-0.0778138 0 0)
(-0.0754924 0 0)
(-0.0731708 0 0)
(-0.0708491 0 0)
(-0.0685273 0 0)
(-0.0662054 0 0)
(-0.0638834 0 0)
(-0.0615612 0 0)
(-0.059239 0 0)
(-0.0569167 0 0)
(-0.0545943 0 0)
(-0.0522718 0 0)
(-0.0499492 0 0)
(-0.0476265 0 0)
(-0.0453038 0 0)
(-0.0429809 0 0)
(-0.040658 0 0)
(-0.0383351 0 0)
(-0.0360121 0 0)
(-0.033689 0 0)
(-0.0313658 0 0)
(-0.0290426 0 0)
(-0.0267194 0 0)
(-0.0243961 0 0)
(-0.0220728 0 0)
(-0.0197494 0 0)
(-0.0174261 0 0)
(-0.0151026 0 0)
(-0.0127792 0 0)
(-0.0104557 0 0)
(-0.00813226 0 0)
(-0.00580877 0 0)
(-0.00348526 0 0)
(-0.00116175 0 0)
)
;

boundaryField
{
    left
    {
        type            fixedValue;
        value           uniform (0 0 0);
    }
    right
    {
        type            fixedValue;
        value           uniform (0 0 0);
    }
    frontBackUpDown
    {
        type            empty;
    }
}


// ************************************************************************* //
