/*--------------------------------*- C++ -*----------------------------------*\
| =========                 |                                                 |
| \\      /  F ield         | OpenFOAM: The Open Source CFD Toolbox           |
|  \\    /   O peration     | Version:  2412                                  |
|   \\  /    A nd           | Website:  www.openfoam.com                      |
|    \\/     M anipulation  |                                                 |
\*---------------------------------------------------------------------------*/
FoamFile
{
    version     2.0;
    format      ascii;
    arch        "LSB;label=32;scalar=64";
    class       surfaceScalarField;
    location    "0.24";
    object      phi;
}
// * * * * * * * * * * * * * * * * * * * * * * * * * * * * * * * * * * * * * //

dimensions      [0 3 -1 0 0 0 0];

oriented        oriented;

internalField   nonuniform List<scalar> 
799
(
4.47758e-05
8.95515e-05
0.000134326
0.000179099
0.00022387
0.000268639
0.000313404
0.000358166
0.000402924
0.000447677
0.000492425
0.000537167
0.000581903
0.000626632
0.000671354
0.000716069
0.000760775
0.000805472
0.00085016
0.000894838
0.000939506
0.000984163
0.00102881
0.00107344
0.00111806
0.00116267
0.00120727
0.00125185
0.00129641
0.00134096
0.0013855
0.00143002
0.00147452
0.00151901
0.00156347
0.00160792
0.00165235
0.00169676
0.00174116
0.00178553
0.00182988
0.00187421
0.00191851
0.0019628
0.00200706
0.00205129
0.00209551
0.00213969
0.00218386
0.00222799
0.0022721
0.00231619
0.00236024
0.00240427
0.00244827
0.00249224
0.00253618
0.00258008
0.00262396
0.00266781
0.00271162
0.0027554
0.00279915
0.00284287
0.00288655
0.00293019
0.0029738
0.00301737
0.00306091
0.00310441
0.00314787
0.00319129
0.00323467
0.00327801
0.00332131
0.00336457
0.00340779
0.00345097
0.0034941
0.00353719
0.00358024
0.00362324
0.0036662
0.0037091
0.00375197
0.00379478
0.00383755
0.00388027
0.00392293
0.00396555
0.00400812
0.00405064
0.0040931
0.00413551
0.00417787
0.00422017
0.00426242
0.00430461
0.00434675
0.00438883
0.00443085
0.00447282
0.00451472
0.00455657
0.00459835
0.00464007
0.00468174
0.00472333
0.00476487
0.00480634
0.00484775
0.00488909
0.00493036
0.00497156
0.0050127
0.00505377
0.00509477
0.0051357
0.00517656
0.00521734
0.00525805
0.00529869
0.00533926
0.00537975
0.00542016
0.00546049
0.00550075
0.00554093
0.00558103
0.00562105
0.00566099
0.00570084
0.00574061
0.0057803
0.0058199
0.00585942
0.00589885
0.00593819
0.00597744
0.00601661
0.00605568
0.00609466
0.00613355
0.00617234
0.00621104
0.00624965
0.00628816
0.00632657
0.00636488
0.00640309
0.0064412
0.00647921
0.00651712
0.00655492
0.00659262
0.00663021
0.00666769
0.00670507
0.00674233
0.00677949
0.00681653
0.00685346
0.00689028
0.00692698
0.00696356
0.00700003
0.00703637
0.0070726
0.0071087
0.00714469
0.00718054
0.00721627
0.00725188
0.00728736
0.0073227
0.00735792
0.007393
0.00742795
0.00746277
0.00749745
0.00753199
0.00756639
0.00760065
0.00763476
0.00766874
0.00770257
0.00773625
0.00776978
0.00780316
0.00783639
0.00786947
0.00790239
0.00793515
0.00796776
0.00800021
0.00803249
0.00806461
0.00809657
0.00812835
0.00815997
0.00819142
0.00822269
0.00825379
0.00828472
0.00831546
0.00834602
0.0083764
0.0084066
0.00843661
0.00846643
0.00849606
0.0085255
0.00855474
0.00858378
0.00861262
0.00864126
0.0086697
0.00869793
0.00872595
0.00875376
0.00878136
0.00880874
0.0088359
0.00886283
0.00888955
0.00891603
0.00894229
0.00896832
0.00899411
0.00901966
0.00904497
0.00907003
0.00909485
0.00911943
0.00914374
0.0091678
0.00919161
0.00921515
0.00923842
0.00926143
0.00928416
0.00930662
0.0093288
0.00935069
0.0093723
0.00939362
0.00941464
0.00943537
0.0094558
0.00947592
0.00949573
0.00951522
0.0095344
0.00955326
0.00957179
0.00958998
0.00960785
0.00962537
0.00964255
0.00965937
0.00967585
0.00969196
0.00970771
0.00972309
0.00973809
0.00975271
0.00976695
0.0097808
0.00979424
0.00980729
0.00981992
0.00983214
0.00984394
0.00985531
0.00986624
0.00987674
0.00988678
0.00989637
0.0099055
0.00991416
0.00992234
0.00993003
0.00993723
0.00994394
0.00995013
0.00995581
0.00996096
0.00996557
0.00996964
0.00997316
0.00997612
0.0099785
0.0099803
0.00998151
0.00998212
0.00998211
0.00998148
0.00998021
0.00997829
0.00997572
0.00997247
0.00996853
0.0099639
0.00995855
0.00995249
0.00994568
0.00993811
0.00992978
0.00992067
0.00991075
0.00990002
0.00988845
0.00987603
0.00986275
0.00984857
0.00983349
0.00981748
0.00980052
0.0097826
0.00976369
0.00974376
0.0097228
0.00970078
0.00967768
0.00965346
0.00962811
0.00960159
0.00957389
0.00954495
0.00951477
0.0094833
0.00945051
0.00941637
0.00938084
0.00934388
0.00930546
0.00926554
0.00922407
0.00918101
0.00913632
0.00908995
0.00904185
0.00899196
0.00894025
0.00888664
0.00883108
0.00877352
0.00871388
0.00865211
0.00858813
0.00852187
0.00845325
0.0083822
0.00830864
0.00823247
0.0081536
0.00807195
0.0079874
0.00789986
0.00780922
0.00771535
0.00761815
0.00751747
0.0074132
0.00730519
0.0071933
0.00707737
0.00695724
0.00683276
0.00670374
0.00657002
0.00643139
0.00628768
0.00613867
0.00598418
0.00582398
0.00565788
0.00548566
0.00530711
0.00512202
0.0049302
0.00473146
0.00452563
0.00431256
0.00409213
0.00386425
0.00362889
0.00338606
0.00313584
0.00287837
0.00261387
0.00234267
0.00206517
0.00178186
0.00149336
0.00120036
0.000903634
0.000604048
0.000302518
4.84533e-09
-0.000302507
-0.000604035
-0.000903618
-0.00120034
-0.00149334
-0.00178183
-0.00206513
-0.00234262
-0.00261382
-0.00287831
-0.00313577
-0.00338599
-0.00362881
-0.00386416
-0.00409203
-0.00431246
-0.00452553
-0.00473136
-0.00493009
-0.00512191
-0.005307
-0.00548555
-0.00565777
-0.00582387
-0.00598407
-0.00613856
-0.00628757
-0.00643128
-0.00656991
-0.00670364
-0.00683266
-0.00695714
-0.00707727
-0.0071932
-0.0073051
-0.00741311
-0.00751739
-0.00761806
-0.00771527
-0.00780914
-0.00789979
-0.00798733
-0.00807188
-0.00815354
-0.0082324
-0.00830858
-0.00838215
-0.0084532
-0.00852181
-0.00858808
-0.00865206
-0.00871384
-0.00877347
-0.00883104
-0.0088866
-0.00894021
-0.00899193
-0.00904181
-0.00908992
-0.00913629
-0.00918099
-0.00922404
-0.00926551
-0.00930544
-0.00934386
-0.00938082
-0.00941635
-0.00945049
-0.00948328
-0.00951475
-0.00954494
-0.00957387
-0.00960158
-0.0096281
-0.00965345
-0.00967767
-0.00970077
-0.00972279
-0.00974376
-0.00976368
-0.00978259
-0.00980052
-0.00981747
-0.00983348
-0.00984857
-0.00986274
-0.00987603
-0.00988845
-0.00990001
-0.00991075
-0.00992066
-0.00992978
-0.00993811
-0.00994568
-0.00995248
-0.00995855
-0.0099639
-0.00996853
-0.00997247
-0.00997571
-0.00997829
-0.00998021
-0.00998148
-0.00998211
-0.00998212
-0.00998151
-0.0099803
-0.0099785
-0.00997612
-0.00997316
-0.00996964
-0.00996557
-0.00996096
-0.00995581
-0.00995013
-0.00994394
-0.00993723
-0.00993003
-0.00992233
-0.00991415
-0.0099055
-0.00989637
-0.00988678
-0.00987673
-0.00986624
-0.00985531
-0.00984394
-0.00983214
-0.00981992
-0.00980728
-0.00979424
-0.00978079
-0.00976695
-0.00975271
-0.00973809
-0.00972308
-0.0097077
-0.00969195
-0.00967584
-0.00965937
-0.00964254
-0.00962536
-0.00960784
-0.00958998
-0.00957178
-0.00955325
-0.00953439
-0.00951521
-0.00949572
-0.00947591
-0.00945579
-0.00943536
-0.00941464
-0.00939361
-0.00937229
-0.00935068
-0.00932879
-0.00930661
-0.00928415
-0.00926142
-0.00923841
-0.00921514
-0.0091916
-0.00916779
-0.00914373
-0.00911941
-0.00909484
-0.00907002
-0.00904495
-0.00901964
-0.00899409
-0.0089683
-0.00894228
-0.00891602
-0.00888953
-0.00886282
-0.00883588
-0.00880872
-0.00878134
-0.00875375
-0.00872594
-0.00869792
-0.00866969
-0.00864125
-0.00861261
-0.00858376
-0.00855472
-0.00852548
-0.00849604
-0.00846641
-0.00843659
-0.00840658
-0.00837639
-0.00834601
-0.00831544
-0.0082847
-0.00825378
-0.00822268
-0.0081914
-0.00815995
-0.00812834
-0.00809655
-0.00806459
-0.00803247
-0.00800019
-0.00796774
-0.00793514
-0.00790237
-0.00786945
-0.00783637
-0.00780314
-0.00776976
-0.00773623
-0.00770255
-0.00766872
-0.00763475
-0.00760063
-0.00756637
-0.00753197
-0.00749743
-0.00746275
-0.00742794
-0.00739299
-0.0073579
-0.00732269
-0.00728734
-0.00725186
-0.00721626
-0.00718053
-0.00714467
-0.00710869
-0.00707258
-0.00703636
-0.00700001
-0.00696354
-0.00692696
-0.00689026
-0.00685345
-0.00681652
-0.00677947
-0.00674232
-0.00670505
-0.00666768
-0.00663019
-0.0065926
-0.0065549
-0.0065171
-0.0064792
-0.00644119
-0.00640308
-0.00636486
-0.00632655
-0.00628814
-0.00624963
-0.00621103
-0.00617233
-0.00613353
-0.00609465
-0.00605566
-0.00601659
-0.00597743
-0.00593818
-0.00589883
-0.0058594
-0.00581989
-0.00578029
-0.0057406
-0.00570083
-0.00566097
-0.00562103
-0.00558102
-0.00554092
-0.00550074
-0.00546048
-0.00542015
-0.00537973
-0.00533924
-0.00529868
-0.00525804
-0.00521733
-0.00517654
-0.00513569
-0.00509476
-0.00505376
-0.00501269
-0.00497155
-0.00493035
-0.00488907
-0.00484773
-0.00480633
-0.00476486
-0.00472332
-0.00468173
-0.00464006
-0.00459834
-0.00455656
-0.00451471
-0.00447281
-0.00443084
-0.00438882
-0.00434674
-0.00430461
-0.00426241
-0.00422016
-0.00417786
-0.0041355
-0.00409309
-0.00405063
-0.00400811
-0.00396555
-0.00392293
-0.00388026
-0.00383754
-0.00379477
-0.00375196
-0.0037091
-0.00366619
-0.00362323
-0.00358023
-0.00353719
-0.0034941
-0.00345096
-0.00340779
-0.00336457
-0.00332131
-0.00327801
-0.00323466
-0.00319128
-0.00314786
-0.0031044
-0.0030609
-0.00301737
-0.00297379
-0.00293019
-0.00288654
-0.00284286
-0.00279915
-0.0027554
-0.00271162
-0.0026678
-0.00262396
-0.00258008
-0.00253617
-0.00249223
-0.00244826
-0.00240427
-0.00236024
-0.00231618
-0.0022721
-0.00222799
-0.00218385
-0.00213969
-0.0020955
-0.00205129
-0.00200705
-0.00196279
-0.00191851
-0.0018742
-0.00182988
-0.00178553
-0.00174115
-0.00169676
-0.00165235
-0.00160792
-0.00156347
-0.001519
-0.00147452
-0.00143002
-0.0013855
-0.00134096
-0.00129641
-0.00125185
-0.00120726
-0.00116267
-0.00111806
-0.00107344
-0.00102881
-0.000984162
-0.000939505
-0.000894838
-0.00085016
-0.000805472
-0.000760774
-0.000716068
-0.000671354
-0.000626632
-0.000581903
-0.000537167
-0.000492425
-0.000447677
-0.000402924
-0.000358166
-0.000313405
-0.000268639
-0.000223871
-0.0001791
-0.000134327
-8.95519e-05
-4.47762e-05
)
;

boundaryField
{
    left
    {
        type            calculated;
        value           uniform 0;
    }
    right
    {
        type            calculated;
        value           uniform 0;
    }
    frontBackUpDown
    {
        type            empty;
    }
}


// ************************************************************************* //
