/*--------------------------------*- C++ -*----------------------------------*\
| =========                 |                                                 |
| \\      /  F ield         | OpenFOAM: The Open Source CFD Toolbox           |
|  \\    /   O peration     | Version:  2412                                  |
|   \\  /    A nd           | Website:  www.openfoam.com                      |
|    \\/     M anipulation  |                                                 |
\*---------------------------------------------------------------------------*/
FoamFile
{
    version     2.0;
    format      ascii;
    arch        "LSB;label=32;scalar=64";
    class       volVectorField;
    location    "0.24";
    object      U_0_0_0;
}
// * * * * * * * * * * * * * * * * * * * * * * * * * * * * * * * * * * * * * //

dimensions      [0 1 -1 0 0 0 0];

internalField   nonuniform List<vector> 
800
(
(0.0022448 0 0)
(0.00673446 0 0)
(0.011224 0 0)
(0.0157135 0 0)
(0.0202028 0 0)
(0.0246918 0 0)
(0.0291806 0 0)
(0.033669 0 0)
(0.038157 0 0)
(0.0426446 0 0)
(0.0471316 0 0)
(0.0516182 0 0)
(0.0561041 0 0)
(0.0605894 0 0)
(0.065074 0 0)
(0.0695578 0 0)
(0.0740408 0 0)
(0.078523 0 0)
(0.0830042 0 0)
(0.0874845 0 0)
(0.0919637 0 0)
(0.0964419 0 0)
(0.100919 0 0)
(0.105395 0 0)
(0.109869 0 0)
(0.114343 0 0)
(0.118815 0 0)
(0.123285 0 0)
(0.127755 0 0)
(0.132222 0 0)
(0.136688 0 0)
(0.141153 0 0)
(0.145616 0 0)
(0.150077 0 0)
(0.154536 0 0)
(0.158994 0 0)
(0.16345 0 0)
(0.167903 0 0)
(0.172355 0 0)
(0.176805 0 0)
(0.181253 0 0)
(0.185698 0 0)
(0.190141 0 0)
(0.194582 0 0)
(0.199021 0 0)
(0.203458 0 0)
(0.207892 0 0)
(0.212323 0 0)
(0.216752 0 0)
(0.221178 0 0)
(0.225602 0 0)
(0.230023 0 0)
(0.234441 0 0)
(0.238857 0 0)
(0.243269 0 0)
(0.247679 0 0)
(0.252085 0 0)
(0.256489 0 0)
(0.260889 0 0)
(0.265287 0 0)
(0.269681 0 0)
(0.274071 0 0)
(0.278459 0 0)
(0.282843 0 0)
(0.287224 0 0)
(0.291601 0 0)
(0.295974 0 0)
(0.300344 0 0)
(0.30471 0 0)
(0.309073 0 0)
(0.313431 0 0)
(0.317786 0 0)
(0.322137 0 0)
(0.326483 0 0)
(0.330826 0 0)
(0.335165 0 0)
(0.339499 0 0)
(0.343829 0 0)
(0.348155 0 0)
(0.352477 0 0)
(0.356794 0 0)
(0.361106 0 0)
(0.365414 0 0)
(0.369717 0 0)
(0.374016 0 0)
(0.37831 0 0)
(0.382599 0 0)
(0.386883 0 0)
(0.391162 0 0)
(0.395436 0 0)
(0.399705 0 0)
(0.403969 0 0)
(0.408227 0 0)
(0.412481 0 0)
(0.416729 0 0)
(0.420971 0 0)
(0.425208 0 0)
(0.42944 0 0)
(0.433665 0 0)
(0.437885 0 0)
(0.4421 0 0)
(0.446308 0 0)
(0.45051 0 0)
(0.454707 0 0)
(0.458897 0 0)
(0.463081 0 0)
(0.467259 0 0)
(0.471431 0 0)
(0.475596 0 0)
(0.479755 0 0)
(0.483907 0 0)
(0.488053 0 0)
(0.492192 0 0)
(0.496324 0 0)
(0.500449 0 0)
(0.504568 0 0)
(0.508679 0 0)
(0.512784 0 0)
(0.516881 0 0)
(0.520971 0 0)
(0.525053 0 0)
(0.529128 0 0)
(0.533196 0 0)
(0.537256 0 0)
(0.541309 0 0)
(0.545353 0 0)
(0.54939 0 0)
(0.553419 0 0)
(0.55744 0 0)
(0.561453 0 0)
(0.565458 0 0)
(0.569454 0 0)
(0.573442 0 0)
(0.577422 0 0)
(0.581393 0 0)
(0.585355 0 0)
(0.589309 0 0)
(0.593254 0 0)
(0.597189 0 0)
(0.601116 0 0)
(0.605034 0 0)
(0.608943 0 0)
(0.612842 0 0)
(0.616732 0 0)
(0.620612 0 0)
(0.624483 0 0)
(0.628344 0 0)
(0.632195 0 0)
(0.636036 0 0)
(0.639867 0 0)
(0.643688 0 0)
(0.647499 0 0)
(0.651299 0 0)
(0.655089 0 0)
(0.658869 0 0)
(0.662638 0 0)
(0.666396 0 0)
(0.670143 0 0)
(0.673879 0 0)
(0.677604 0 0)
(0.681317 0 0)
(0.685019 0 0)
(0.68871 0 0)
(0.692389 0 0)
(0.696057 0 0)
(0.699712 0 0)
(0.703356 0 0)
(0.706987 0 0)
(0.710607 0 0)
(0.714214 0 0)
(0.717808 0 0)
(0.72139 0 0)
(0.724959 0 0)
(0.728515 0 0)
(0.732058 0 0)
(0.735588 0 0)
(0.739104 0 0)
(0.742607 0 0)
(0.746097 0 0)
(0.749573 0 0)
(0.753035 0 0)
(0.756483 0 0)
(0.759916 0 0)
(0.763336 0 0)
(0.766741 0 0)
(0.770131 0 0)
(0.773507 0 0)
(0.776867 0 0)
(0.780213 0 0)
(0.783543 0 0)
(0.786858 0 0)
(0.790157 0 0)
(0.79344 0 0)
(0.796707 0 0)
(0.799959 0 0)
(0.803194 0 0)
(0.806412 0 0)
(0.809614 0 0)
(0.812799 0 0)
(0.815968 0 0)
(0.819118 0 0)
(0.822252 0 0)
(0.825368 0 0)
(0.828466 0 0)
(0.831546 0 0)
(0.834608 0 0)
(0.837652 0 0)
(0.840677 0 0)
(0.843683 0 0)
(0.846671 0 0)
(0.849639 0 0)
(0.852588 0 0)
(0.855517 0 0)
(0.858426 0 0)
(0.861315 0 0)
(0.864184 0 0)
(0.867032 0 0)
(0.869859 0 0)
(0.872666 0 0)
(0.875451 0 0)
(0.878214 0 0)
(0.880956 0 0)
(0.883676 0 0)
(0.886374 0 0)
(0.889049 0 0)
(0.891701 0 0)
(0.89433 0 0)
(0.896936 0 0)
(0.899518 0 0)
(0.902076 0 0)
(0.90461 0 0)
(0.90712 0 0)
(0.909604 0 0)
(0.912064 0 0)
(0.914498 0 0)
(0.916907 0 0)
(0.919289 0 0)
(0.921645 0 0)
(0.923975 0 0)
(0.926277 0 0)
(0.928552 0 0)
(0.930799 0 0)
(0.933018 0 0)
(0.935209 0 0)
(0.937371 0 0)
(0.939504 0 0)
(0.941608 0 0)
(0.943681 0 0)
(0.945724 0 0)
(0.947737 0 0)
(0.949718 0 0)
(0.951668 0 0)
(0.953586 0 0)
(0.955471 0 0)
(0.957324 0 0)
(0.959143 0 0)
(0.960929 0 0)
(0.962681 0 0)
(0.964398 0 0)
(0.966079 0 0)
(0.967726 0 0)
(0.969336 0 0)
(0.970909 0 0)
(0.972446 0 0)
(0.973944 0 0)
(0.975405 0 0)
(0.976827 0 0)
(0.978209 0 0)
(0.979552 0 0)
(0.980854 0 0)
(0.982115 0 0)
(0.983334 0 0)
(0.984511 0 0)
(0.985645 0 0)
(0.986735 0 0)
(0.987781 0 0)
(0.988782 0 0)
(0.989738 0 0)
(0.990647 0 0)
(0.991509 0 0)
(0.992323 0 0)
(0.993089 0 0)
(0.993805 0 0)
(0.994471 0 0)
(0.995086 0 0)
(0.995649 0 0)
(0.996159 0 0)
(0.996616 0 0)
(0.997018 0 0)
(0.997365 0 0)
(0.997655 0 0)
(0.997888 0 0)
(0.998063 0 0)
(0.998178 0 0)
(0.998233 0 0)
(0.998227 0 0)
(0.998158 0 0)
(0.998025 0 0)
(0.997827 0 0)
(0.997563 0 0)
(0.997232 0 0)
(0.996833 0 0)
(0.996363 0 0)
(0.995822 0 0)
(0.995209 0 0)
(0.994522 0 0)
(0.993759 0 0)
(0.992919 0 0)
(0.992001 0 0)
(0.991003 0 0)
(0.989923 0 0)
(0.98876 0 0)
(0.987512 0 0)
(0.986177 0 0)
(0.984753 0 0)
(0.983239 0 0)
(0.981632 0 0)
(0.979931 0 0)
(0.978132 0 0)
(0.976236 0 0)
(0.974238 0 0)
(0.972136 0 0)
(0.969929 0 0)
(0.967614 0 0)
(0.965188 0 0)
(0.962649 0 0)
(0.959994 0 0)
(0.957219 0 0)
(0.954323 0 0)
(0.951302 0 0)
(0.948154 0 0)
(0.944873 0 0)
(0.941459 0 0)
(0.937906 0 0)
(0.934211 0 0)
(0.930371 0 0)
(0.926381 0 0)
(0.922238 0 0)
(0.917936 0 0)
(0.913473 0 0)
(0.908843 0 0)
(0.904041 0 0)
(0.899062 0 0)
(0.893901 0 0)
(0.888553 0 0)
(0.883012 0 0)
(0.877273 0 0)
(0.871328 0 0)
(0.865172 0 0)
(0.858797 0 0)
(0.852197 0 0)
(0.845365 0 0)
(0.838292 0 0)
(0.830971 0 0)
(0.823394 0 0)
(0.815551 0 0)
(0.807433 0 0)
(0.79903 0 0)
(0.790333 0 0)
(0.781331 0 0)
(0.772013 0 0)
(0.762368 0 0)
(0.752382 0 0)
(0.742044 0 0)
(0.73134 0 0)
(0.720257 0 0)
(0.70878 0 0)
(0.696893 0 0)
(0.684581 0 0)
(0.671829 0 0)
(0.658617 0 0)
(0.644931 0 0)
(0.63075 0 0)
(0.616056 0 0)
(0.600831 0 0)
(0.585055 0 0)
(0.568708 0 0)
(0.551771 0 0)
(0.534223 0 0)
(0.516046 0 0)
(0.497221 0 0)
(0.47773 0 0)
(0.457558 0 0)
(0.43669 0 0)
(0.415115 0 0)
(0.392825 0 0)
(0.369815 0 0)
(0.346086 0 0)
(0.321644 0 0)
(0.2965 0 0)
(0.270675 0 0)
(0.244195 0 0)
(0.217096 0 0)
(0.189422 0 0)
(0.161228 0 0)
(0.132574 0 0)
(0.103532 0 0)
(0.0741791 0 0)
(0.0445996 0 0)
(0.0148823 0 0)
(-0.0148813 0 0)
(-0.0445986 0 0)
(-0.0741778 0 0)
(-0.10353 0 0)
(-0.132572 0 0)
(-0.161225 0 0)
(-0.189419 0 0)
(-0.217092 0 0)
(-0.24419 0 0)
(-0.270669 0 0)
(-0.296494 0 0)
(-0.321637 0 0)
(-0.346079 0 0)
(-0.369807 0 0)
(-0.392816 0 0)
(-0.415106 0 0)
(-0.436681 0 0)
(-0.457548 0 0)
(-0.47772 0 0)
(-0.49721 0 0)
(-0.516035 0 0)
(-0.534212 0 0)
(-0.55176 0 0)
(-0.568697 0 0)
(-0.585044 0 0)
(-0.600821 0 0)
(-0.616046 0 0)
(-0.630739 0 0)
(-0.64492 0 0)
(-0.658607 0 0)
(-0.671818 0 0)
(-0.684571 0 0)
(-0.696883 0 0)
(-0.70877 0 0)
(-0.720248 0 0)
(-0.731331 0 0)
(-0.742036 0 0)
(-0.752374 0 0)
(-0.76236 0 0)
(-0.772006 0 0)
(-0.781324 0 0)
(-0.790326 0 0)
(-0.799023 0 0)
(-0.807426 0 0)
(-0.815544 0 0)
(-0.823387 0 0)
(-0.830965 0 0)
(-0.838287 0 0)
(-0.845359 0 0)
(-0.852192 0 0)
(-0.858792 0 0)
(-0.865167 0 0)
(-0.871323 0 0)
(-0.877268 0 0)
(-0.883008 0 0)
(-0.888549 0 0)
(-0.893897 0 0)
(-0.899058 0 0)
(-0.904037 0 0)
(-0.908839 0 0)
(-0.91347 0 0)
(-0.917934 0 0)
(-0.922235 0 0)
(-0.926378 0 0)
(-0.930368 0 0)
(-0.934209 0 0)
(-0.937904 0 0)
(-0.941457 0 0)
(-0.944872 0 0)
(-0.948152 0 0)
(-0.951301 0 0)
(-0.954322 0 0)
(-0.957218 0 0)
(-0.959992 0 0)
(-0.962648 0 0)
(-0.965187 0 0)
(-0.967613 0 0)
(-0.969928 0 0)
(-0.972135 0 0)
(-0.974237 0 0)
(-0.976235 0 0)
(-0.978132 0 0)
(-0.97993 0 0)
(-0.981631 0 0)
(-0.983238 0 0)
(-0.984753 0 0)
(-0.986177 0 0)
(-0.987512 0 0)
(-0.98876 0 0)
(-0.989923 0 0)
(-0.991003 0 0)
(-0.992001 0 0)
(-0.992919 0 0)
(-0.993759 0 0)
(-0.994522 0 0)
(-0.995209 0 0)
(-0.995822 0 0)
(-0.996363 0 0)
(-0.996832 0 0)
(-0.997232 0 0)
(-0.997563 0 0)
(-0.997827 0 0)
(-0.998025 0 0)
(-0.998158 0 0)
(-0.998227 0 0)
(-0.998233 0 0)
(-0.998178 0 0)
(-0.998063 0 0)
(-0.997888 0 0)
(-0.997655 0 0)
(-0.997365 0 0)
(-0.997018 0 0)
(-0.996616 0 0)
(-0.996159 0 0)
(-0.995649 0 0)
(-0.995086 0 0)
(-0.994471 0 0)
(-0.993805 0 0)
(-0.993089 0 0)
(-0.992323 0 0)
(-0.991509 0 0)
(-0.990647 0 0)
(-0.989738 0 0)
(-0.988782 0 0)
(-0.987781 0 0)
(-0.986735 0 0)
(-0.985645 0 0)
(-0.984511 0 0)
(-0.983334 0 0)
(-0.982114 0 0)
(-0.980853 0 0)
(-0.979551 0 0)
(-0.978209 0 0)
(-0.976826 0 0)
(-0.975404 0 0)
(-0.973944 0 0)
(-0.972445 0 0)
(-0.970909 0 0)
(-0.969335 0 0)
(-0.967725 0 0)
(-0.966079 0 0)
(-0.964397 0 0)
(-0.96268 0 0)
(-0.960928 0 0)
(-0.959143 0 0)
(-0.957323 0 0)
(-0.95547 0 0)
(-0.953585 0 0)
(-0.951667 0 0)
(-0.949717 0 0)
(-0.947736 0 0)
(-0.945723 0 0)
(-0.94368 0 0)
(-0.941607 0 0)
(-0.939503 0 0)
(-0.93737 0 0)
(-0.935208 0 0)
(-0.933017 0 0)
(-0.930798 0 0)
(-0.928551 0 0)
(-0.926276 0 0)
(-0.923973 0 0)
(-0.921644 0 0)
(-0.919288 0 0)
(-0.916905 0 0)
(-0.914497 0 0)
(-0.912063 0 0)
(-0.909603 0 0)
(-0.907118 0 0)
(-0.904609 0 0)
(-0.902075 0 0)
(-0.899517 0 0)
(-0.896934 0 0)
(-0.894329 0 0)
(-0.8917 0 0)
(-0.889047 0 0)
(-0.886372 0 0)
(-0.883675 0 0)
(-0.880955 0 0)
(-0.878213 0 0)
(-0.875449 0 0)
(-0.872664 0 0)
(-0.869858 0 0)
(-0.86703 0 0)
(-0.864182 0 0)
(-0.861313 0 0)
(-0.858424 0 0)
(-0.855515 0 0)
(-0.852586 0 0)
(-0.849637 0 0)
(-0.846669 0 0)
(-0.843682 0 0)
(-0.840675 0 0)
(-0.83765 0 0)
(-0.834607 0 0)
(-0.831545 0 0)
(-0.828464 0 0)
(-0.825366 0 0)
(-0.82225 0 0)
(-0.819117 0 0)
(-0.815966 0 0)
(-0.812798 0 0)
(-0.809613 0 0)
(-0.806411 0 0)
(-0.803192 0 0)
(-0.799957 0 0)
(-0.796706 0 0)
(-0.793438 0 0)
(-0.790155 0 0)
(-0.786856 0 0)
(-0.783541 0 0)
(-0.780211 0 0)
(-0.776865 0 0)
(-0.773505 0 0)
(-0.770129 0 0)
(-0.766739 0 0)
(-0.763334 0 0)
(-0.759915 0 0)
(-0.756481 0 0)
(-0.753033 0 0)
(-0.749571 0 0)
(-0.746095 0 0)
(-0.742606 0 0)
(-0.739103 0 0)
(-0.735586 0 0)
(-0.732056 0 0)
(-0.728513 0 0)
(-0.724957 0 0)
(-0.721388 0 0)
(-0.717806 0 0)
(-0.714212 0 0)
(-0.710605 0 0)
(-0.706986 0 0)
(-0.703354 0 0)
(-0.699711 0 0)
(-0.696055 0 0)
(-0.692388 0 0)
(-0.688709 0 0)
(-0.685018 0 0)
(-0.681316 0 0)
(-0.677602 0 0)
(-0.673877 0 0)
(-0.670141 0 0)
(-0.666394 0 0)
(-0.662636 0 0)
(-0.658867 0 0)
(-0.655088 0 0)
(-0.651298 0 0)
(-0.647497 0 0)
(-0.643687 0 0)
(-0.639866 0 0)
(-0.636034 0 0)
(-0.632193 0 0)
(-0.628342 0 0)
(-0.624481 0 0)
(-0.62061 0 0)
(-0.61673 0 0)
(-0.61284 0 0)
(-0.608941 0 0)
(-0.605033 0 0)
(-0.601115 0 0)
(-0.597188 0 0)
(-0.593252 0 0)
(-0.589307 0 0)
(-0.585354 0 0)
(-0.581391 0 0)
(-0.57742 0 0)
(-0.573441 0 0)
(-0.569453 0 0)
(-0.565456 0 0)
(-0.561452 0 0)
(-0.557439 0 0)
(-0.553418 0 0)
(-0.549389 0 0)
(-0.545352 0 0)
(-0.541307 0 0)
(-0.537255 0 0)
(-0.533195 0 0)
(-0.529127 0 0)
(-0.525052 0 0)
(-0.520969 0 0)
(-0.51688 0 0)
(-0.512782 0 0)
(-0.508678 0 0)
(-0.504567 0 0)
(-0.500448 0 0)
(-0.496323 0 0)
(-0.492191 0 0)
(-0.488052 0 0)
(-0.483906 0 0)
(-0.479754 0 0)
(-0.475595 0 0)
(-0.47143 0 0)
(-0.467258 0 0)
(-0.46308 0 0)
(-0.458896 0 0)
(-0.454706 0 0)
(-0.450509 0 0)
(-0.446307 0 0)
(-0.442099 0 0)
(-0.437884 0 0)
(-0.433664 0 0)
(-0.429439 0 0)
(-0.425207 0 0)
(-0.42097 0 0)
(-0.416728 0 0)
(-0.41248 0 0)
(-0.408227 0 0)
(-0.403968 0 0)
(-0.399704 0 0)
(-0.395435 0 0)
(-0.391161 0 0)
(-0.386882 0 0)
(-0.382598 0 0)
(-0.378309 0 0)
(-0.374015 0 0)
(-0.369717 0 0)
(-0.365413 0 0)
(-0.361105 0 0)
(-0.356793 0 0)
(-0.352476 0 0)
(-0.348154 0 0)
(-0.343829 0 0)
(-0.339499 0 0)
(-0.335164 0 0)
(-0.330826 0 0)
(-0.326483 0 0)
(-0.322136 0 0)
(-0.317785 0 0)
(-0.313431 0 0)
(-0.309072 0 0)
(-0.30471 0 0)
(-0.300344 0 0)
(-0.295974 0 0)
(-0.2916 0 0)
(-0.287223 0 0)
(-0.282843 0 0)
(-0.278459 0 0)
(-0.274071 0 0)
(-0.26968 0 0)
(-0.265286 0 0)
(-0.260889 0 0)
(-0.256489 0 0)
(-0.252085 0 0)
(-0.247678 0 0)
(-0.243269 0 0)
(-0.238856 0 0)
(-0.234441 0 0)
(-0.230023 0 0)
(-0.225602 0 0)
(-0.221178 0 0)
(-0.216752 0 0)
(-0.212323 0 0)
(-0.207891 0 0)
(-0.203457 0 0)
(-0.199021 0 0)
(-0.194582 0 0)
(-0.190141 0 0)
(-0.185698 0 0)
(-0.181252 0 0)
(-0.176805 0 0)
(-0.172355 0 0)
(-0.167903 0 0)
(-0.163449 0 0)
(-0.158994 0 0)
(-0.154536 0 0)
(-0.150077 0 0)
(-0.145616 0 0)
(-0.141153 0 0)
(-0.136688 0 0)
(-0.132222 0 0)
(-0.127755 0 0)
(-0.123285 0 0)
(-0.118815 0 0)
(-0.114343 0 0)
(-0.109869 0 0)
(-0.105395 0 0)
(-0.100919 0 0)
(-0.0964418 0 0)
(-0.0919637 0 0)
(-0.0874844 0 0)
(-0.0830042 0 0)
(-0.0785229 0 0)
(-0.0740408 0 0)
(-0.0695578 0 0)
(-0.065074 0 0)
(-0.0605894 0 0)
(-0.0561041 0 0)
(-0.0516182 0 0)
(-0.0471317 0 0)
(-0.0426446 0 0)
(-0.038157 0 0)
(-0.033669 0 0)
(-0.0291806 0 0)
(-0.0246918 0 0)
(-0.0202028 0 0)
(-0.0157135 0 0)
(-0.0112241 0 0)
(-0.0067345 0 0)
(-0.00224484 0 0)
)
;

boundaryField
{
    left
    {
        type            fixedValue;
        value           uniform (0 0 0);
    }
    right
    {
        type            fixedValue;
        value           uniform (0 0 0);
    }
    frontBackUpDown
    {
        type            empty;
    }
}


// ************************************************************************* //
