/*--------------------------------*- C++ -*----------------------------------*\
| =========                 |                                                 |
| \\      /  F ield         | OpenFOAM: The Open Source CFD Toolbox           |
|  \\    /   O peration     | Version:  2412                                  |
|   \\  /    A nd           | Website:  www.openfoam.com                      |
|    \\/     M anipulation  |                                                 |
\*---------------------------------------------------------------------------*/
FoamFile
{
    version     2.0;
    format      ascii;
    arch        "LSB;label=32;scalar=64";
    class       volVectorField;
    location    "0.24";
    object      U_0_0;
}
// * * * * * * * * * * * * * * * * * * * * * * * * * * * * * * * * * * * * * //

dimensions      [0 1 -1 0 0 0 0];

internalField   nonuniform List<vector> 
800
(
(0.00224279 0 0)
(0.00672842 0 0)
(0.011214 0 0)
(0.0156994 0 0)
(0.0201847 0 0)
(0.0246697 0 0)
(0.0291544 0 0)
(0.0336388 0 0)
(0.0381228 0 0)
(0.0426064 0 0)
(0.0470894 0 0)
(0.051572 0 0)
(0.0560539 0 0)
(0.0605351 0 0)
(0.0650157 0 0)
(0.0694955 0 0)
(0.0739745 0 0)
(0.0784527 0 0)
(0.0829299 0 0)
(0.0874062 0 0)
(0.0918815 0 0)
(0.0963557 0 0)
(0.100829 0 0)
(0.105301 0 0)
(0.109771 0 0)
(0.114241 0 0)
(0.118709 0 0)
(0.123175 0 0)
(0.127641 0 0)
(0.132104 0 0)
(0.136567 0 0)
(0.141027 0 0)
(0.145486 0 0)
(0.149943 0 0)
(0.154399 0 0)
(0.158852 0 0)
(0.163304 0 0)
(0.167754 0 0)
(0.172202 0 0)
(0.176648 0 0)
(0.181092 0 0)
(0.185533 0 0)
(0.189973 0 0)
(0.19441 0 0)
(0.198845 0 0)
(0.203277 0 0)
(0.207708 0 0)
(0.212135 0 0)
(0.21656 0 0)
(0.220983 0 0)
(0.225403 0 0)
(0.22982 0 0)
(0.234234 0 0)
(0.238646 0 0)
(0.243055 0 0)
(0.247461 0 0)
(0.251864 0 0)
(0.256263 0 0)
(0.26066 0 0)
(0.265054 0 0)
(0.269444 0 0)
(0.273831 0 0)
(0.278215 0 0)
(0.282596 0 0)
(0.286972 0 0)
(0.291346 0 0)
(0.295716 0 0)
(0.300082 0 0)
(0.304445 0 0)
(0.308803 0 0)
(0.313159 0 0)
(0.31751 0 0)
(0.321857 0 0)
(0.3262 0 0)
(0.330539 0 0)
(0.334874 0 0)
(0.339205 0 0)
(0.343532 0 0)
(0.347854 0 0)
(0.352172 0 0)
(0.356486 0 0)
(0.360795 0 0)
(0.3651 0 0)
(0.3694 0 0)
(0.373695 0 0)
(0.377985 0 0)
(0.382271 0 0)
(0.386552 0 0)
(0.390828 0 0)
(0.395099 0 0)
(0.399364 0 0)
(0.403625 0 0)
(0.40788 0 0)
(0.412131 0 0)
(0.416375 0 0)
(0.420615 0 0)
(0.424849 0 0)
(0.429077 0 0)
(0.4333 0 0)
(0.437516 0 0)
(0.441728 0 0)
(0.445933 0 0)
(0.450132 0 0)
(0.454326 0 0)
(0.458513 0 0)
(0.462695 0 0)
(0.46687 0 0)
(0.471038 0 0)
(0.475201 0 0)
(0.479357 0 0)
(0.483506 0 0)
(0.487649 0 0)
(0.491785 0 0)
(0.495915 0 0)
(0.500037 0 0)
(0.504153 0 0)
(0.508262 0 0)
(0.512364 0 0)
(0.516458 0 0)
(0.520545 0 0)
(0.524625 0 0)
(0.528698 0 0)
(0.532763 0 0)
(0.536821 0 0)
(0.540871 0 0)
(0.544913 0 0)
(0.548948 0 0)
(0.552974 0 0)
(0.556993 0 0)
(0.561003 0 0)
(0.565006 0 0)
(0.569 0 0)
(0.572986 0 0)
(0.576963 0 0)
(0.580932 0 0)
(0.584892 0 0)
(0.588844 0 0)
(0.592786 0 0)
(0.59672 0 0)
(0.600645 0 0)
(0.604561 0 0)
(0.608468 0 0)
(0.612365 0 0)
(0.616253 0 0)
(0.620131 0 0)
(0.624 0 0)
(0.627859 0 0)
(0.631709 0 0)
(0.635548 0 0)
(0.639378 0 0)
(0.643197 0 0)
(0.647006 0 0)
(0.650805 0 0)
(0.654594 0 0)
(0.658372 0 0)
(0.662139 0 0)
(0.665896 0 0)
(0.669641 0 0)
(0.673376 0 0)
(0.6771 0 0)
(0.680812 0 0)
(0.684513 0 0)
(0.688203 0 0)
(0.691881 0 0)
(0.695547 0 0)
(0.699202 0 0)
(0.702845 0 0)
(0.706475 0 0)
(0.710093 0 0)
(0.713699 0 0)
(0.717293 0 0)
(0.720874 0 0)
(0.724442 0 0)
(0.727998 0 0)
(0.73154 0 0)
(0.73507 0 0)
(0.738586 0 0)
(0.742088 0 0)
(0.745577 0 0)
(0.749053 0 0)
(0.752514 0 0)
(0.755962 0 0)
(0.759396 0 0)
(0.762815 0 0)
(0.76622 0 0)
(0.76961 0 0)
(0.772986 0 0)
(0.776346 0 0)
(0.779692 0 0)
(0.783022 0 0)
(0.786337 0 0)
(0.789636 0 0)
(0.79292 0 0)
(0.796188 0 0)
(0.79944 0 0)
(0.802675 0 0)
(0.805894 0 0)
(0.809097 0 0)
(0.812283 0 0)
(0.815452 0 0)
(0.818603 0 0)
(0.821738 0 0)
(0.824855 0 0)
(0.827954 0 0)
(0.831035 0 0)
(0.834098 0 0)
(0.837143 0 0)
(0.84017 0 0)
(0.843177 0 0)
(0.846166 0 0)
(0.849136 0 0)
(0.852086 0 0)
(0.855017 0 0)
(0.857927 0 0)
(0.860818 0 0)
(0.863689 0 0)
(0.866539 0 0)
(0.869369 0 0)
(0.872177 0 0)
(0.874964 0 0)
(0.87773 0 0)
(0.880474 0 0)
(0.883197 0 0)
(0.885897 0 0)
(0.888574 0 0)
(0.891229 0 0)
(0.893861 0 0)
(0.89647 0 0)
(0.899055 0 0)
(0.901616 0 0)
(0.904153 0 0)
(0.906666 0 0)
(0.909154 0 0)
(0.911616 0 0)
(0.914054 0 0)
(0.916466 0 0)
(0.918852 0 0)
(0.921212 0 0)
(0.923545 0 0)
(0.925852 0 0)
(0.928131 0 0)
(0.930382 0 0)
(0.932606 0 0)
(0.934801 0 0)
(0.936967 0 0)
(0.939105 0 0)
(0.941213 0 0)
(0.943291 0 0)
(0.945339 0 0)
(0.947356 0 0)
(0.949343 0 0)
(0.951298 0 0)
(0.953221 0 0)
(0.955112 0 0)
(0.95697 0 0)
(0.958795 0 0)
(0.960587 0 0)
(0.962345 0 0)
(0.964068 0 0)
(0.965756 0 0)
(0.967408 0 0)
(0.969025 0 0)
(0.970605 0 0)
(0.972148 0 0)
(0.973654 0 0)
(0.975121 0 0)
(0.97655 0 0)
(0.97794 0 0)
(0.97929 0 0)
(0.980599 0 0)
(0.981868 0 0)
(0.983095 0 0)
(0.98428 0 0)
(0.985422 0 0)
(0.986521 0 0)
(0.987576 0 0)
(0.988586 0 0)
(0.98955 0 0)
(0.990468 0 0)
(0.991339 0 0)
(0.992163 0 0)
(0.992938 0 0)
(0.993664 0 0)
(0.994339 0 0)
(0.994964 0 0)
(0.995538 0 0)
(0.996059 0 0)
(0.996526 0 0)
(0.996939 0 0)
(0.997297 0 0)
(0.997598 0 0)
(0.997843 0 0)
(0.998029 0 0)
(0.998157 0 0)
(0.998224 0 0)
(0.998229 0 0)
(0.998173 0 0)
(0.998053 0 0)
(0.997868 0 0)
(0.997617 0 0)
(0.997299 0 0)
(0.996913 0 0)
(0.996458 0 0)
(0.995931 0 0)
(0.995332 0 0)
(0.99466 0 0)
(0.993912 0 0)
(0.993087 0 0)
(0.992185 0 0)
(0.991202 0 0)
(0.990138 0 0)
(0.988991 0 0)
(0.98776 0 0)
(0.986442 0 0)
(0.985035 0 0)
(0.983538 0 0)
(0.981949 0 0)
(0.980265 0 0)
(0.978485 0 0)
(0.976607 0 0)
(0.974628 0 0)
(0.972546 0 0)
(0.970358 0 0)
(0.968063 0 0)
(0.965657 0 0)
(0.963139 0 0)
(0.960504 0 0)
(0.957751 0 0)
(0.954877 0 0)
(0.951878 0 0)
(0.948751 0 0)
(0.945494 0 0)
(0.942102 0 0)
(0.938573 0 0)
(0.934902 0 0)
(0.931086 0 0)
(0.927121 0 0)
(0.923002 0 0)
(0.918726 0 0)
(0.914289 0 0)
(0.909684 0 0)
(0.904909 0 0)
(0.899957 0 0)
(0.894824 0 0)
(0.889504 0 0)
(0.883991 0 0)
(0.878279 0 0)
(0.872363 0 0)
(0.866236 0 0)
(0.859891 0 0)
(0.853321 0 0)
(0.846519 0 0)
(0.839477 0 0)
(0.832186 0 0)
(0.82464 0 0)
(0.816827 0 0)
(0.808741 0 0)
(0.80037 0 0)
(0.791705 0 0)
(0.782734 0 0)
(0.773448 0 0)
(0.763834 0 0)
(0.75388 0 0)
(0.743573 0 0)
(0.7329 0 0)
(0.721847 0 0)
(0.710399 0 0)
(0.698541 0 0)
(0.686258 0 0)
(0.673532 0 0)
(0.660346 0 0)
(0.646684 0 0)
(0.632525 0 0)
(0.617852 0 0)
(0.602645 0 0)
(0.586884 0 0)
(0.570549 0 0)
(0.553619 0 0)
(0.536076 0 0)
(0.517898 0 0)
(0.499067 0 0)
(0.479565 0 0)
(0.459374 0 0)
(0.438481 0 0)
(0.416873 0 0)
(0.394541 0 0)
(0.371481 0 0)
(0.347691 0 0)
(0.323177 0 0)
(0.297951 0 0)
(0.272033 0 0)
(0.245449 0 0)
(0.218234 0 0)
(0.190435 0 0)
(0.162104 0 0)
(0.133305 0 0)
(0.104109 0 0)
(0.0745964 0 0)
(0.044852 0 0)
(0.0149667 0 0)
(-0.0149658 0 0)
(-0.044851 0 0)
(-0.0745951 0 0)
(-0.104108 0 0)
(-0.133303 0 0)
(-0.162101 0 0)
(-0.190431 0 0)
(-0.21823 0 0)
(-0.245444 0 0)
(-0.272027 0 0)
(-0.297945 0 0)
(-0.32317 0 0)
(-0.347683 0 0)
(-0.371472 0 0)
(-0.394533 0 0)
(-0.416864 0 0)
(-0.438472 0 0)
(-0.459364 0 0)
(-0.479554 0 0)
(-0.499056 0 0)
(-0.517887 0 0)
(-0.536065 0 0)
(-0.553608 0 0)
(-0.570538 0 0)
(-0.586873 0 0)
(-0.602634 0 0)
(-0.617841 0 0)
(-0.632515 0 0)
(-0.646673 0 0)
(-0.660336 0 0)
(-0.673522 0 0)
(-0.686248 0 0)
(-0.698531 0 0)
(-0.710389 0 0)
(-0.721837 0 0)
(-0.732891 0 0)
(-0.743564 0 0)
(-0.753871 0 0)
(-0.763826 0 0)
(-0.77344 0 0)
(-0.782727 0 0)
(-0.791697 0 0)
(-0.800363 0 0)
(-0.808734 0 0)
(-0.816821 0 0)
(-0.824633 0 0)
(-0.83218 0 0)
(-0.839471 0 0)
(-0.846513 0 0)
(-0.853316 0 0)
(-0.859886 0 0)
(-0.866231 0 0)
(-0.872359 0 0)
(-0.878275 0 0)
(-0.883986 0 0)
(-0.8895 0 0)
(-0.89482 0 0)
(-0.899954 0 0)
(-0.904906 0 0)
(-0.909681 0 0)
(-0.914286 0 0)
(-0.918724 0 0)
(-0.923 0 0)
(-0.927118 0 0)
(-0.931084 0 0)
(-0.9349 0 0)
(-0.938571 0 0)
(-0.9421 0 0)
(-0.945492 0 0)
(-0.94875 0 0)
(-0.951876 0 0)
(-0.954875 0 0)
(-0.95775 0 0)
(-0.960503 0 0)
(-0.963138 0 0)
(-0.965656 0 0)
(-0.968062 0 0)
(-0.970357 0 0)
(-0.972545 0 0)
(-0.974627 0 0)
(-0.976606 0 0)
(-0.978485 0 0)
(-0.980265 0 0)
(-0.981948 0 0)
(-0.983537 0 0)
(-0.985034 0 0)
(-0.986441 0 0)
(-0.987759 0 0)
(-0.988991 0 0)
(-0.990138 0 0)
(-0.991202 0 0)
(-0.992184 0 0)
(-0.993087 0 0)
(-0.993912 0 0)
(-0.994659 0 0)
(-0.995332 0 0)
(-0.995931 0 0)
(-0.996458 0 0)
(-0.996913 0 0)
(-0.997299 0 0)
(-0.997617 0 0)
(-0.997868 0 0)
(-0.998053 0 0)
(-0.998173 0 0)
(-0.998229 0 0)
(-0.998224 0 0)
(-0.998156 0 0)
(-0.998029 0 0)
(-0.997843 0 0)
(-0.997598 0 0)
(-0.997297 0 0)
(-0.996939 0 0)
(-0.996526 0 0)
(-0.996058 0 0)
(-0.995538 0 0)
(-0.994964 0 0)
(-0.994339 0 0)
(-0.993664 0 0)
(-0.992938 0 0)
(-0.992163 0 0)
(-0.991339 0 0)
(-0.990468 0 0)
(-0.98955 0 0)
(-0.988585 0 0)
(-0.987576 0 0)
(-0.986521 0 0)
(-0.985422 0 0)
(-0.98428 0 0)
(-0.983095 0 0)
(-0.981868 0 0)
(-0.980599 0 0)
(-0.979289 0 0)
(-0.977939 0 0)
(-0.97655 0 0)
(-0.975121 0 0)
(-0.973653 0 0)
(-0.972148 0 0)
(-0.970604 0 0)
(-0.969024 0 0)
(-0.967408 0 0)
(-0.965755 0 0)
(-0.964067 0 0)
(-0.962344 0 0)
(-0.960586 0 0)
(-0.958795 0 0)
(-0.95697 0 0)
(-0.955111 0 0)
(-0.95322 0 0)
(-0.951297 0 0)
(-0.949342 0 0)
(-0.947355 0 0)
(-0.945338 0 0)
(-0.94329 0 0)
(-0.941212 0 0)
(-0.939104 0 0)
(-0.936966 0 0)
(-0.9348 0 0)
(-0.932605 0 0)
(-0.930381 0 0)
(-0.92813 0 0)
(-0.92585 0 0)
(-0.923544 0 0)
(-0.921211 0 0)
(-0.918851 0 0)
(-0.916465 0 0)
(-0.914053 0 0)
(-0.911615 0 0)
(-0.909152 0 0)
(-0.906664 0 0)
(-0.904152 0 0)
(-0.901614 0 0)
(-0.899053 0 0)
(-0.896468 0 0)
(-0.89386 0 0)
(-0.891228 0 0)
(-0.888573 0 0)
(-0.885895 0 0)
(-0.883195 0 0)
(-0.880473 0 0)
(-0.877729 0 0)
(-0.874963 0 0)
(-0.872176 0 0)
(-0.869367 0 0)
(-0.866538 0 0)
(-0.863687 0 0)
(-0.860817 0 0)
(-0.857926 0 0)
(-0.855015 0 0)
(-0.852084 0 0)
(-0.849134 0 0)
(-0.846164 0 0)
(-0.843176 0 0)
(-0.840168 0 0)
(-0.837142 0 0)
(-0.834097 0 0)
(-0.831033 0 0)
(-0.827952 0 0)
(-0.824853 0 0)
(-0.821736 0 0)
(-0.818602 0 0)
(-0.81545 0 0)
(-0.812281 0 0)
(-0.809095 0 0)
(-0.805893 0 0)
(-0.802674 0 0)
(-0.799438 0 0)
(-0.796186 0 0)
(-0.792918 0 0)
(-0.789635 0 0)
(-0.786335 0 0)
(-0.78302 0 0)
(-0.77969 0 0)
(-0.776344 0 0)
(-0.772984 0 0)
(-0.769608 0 0)
(-0.766218 0 0)
(-0.762813 0 0)
(-0.759394 0 0)
(-0.75596 0 0)
(-0.752513 0 0)
(-0.749051 0 0)
(-0.745576 0 0)
(-0.742087 0 0)
(-0.738584 0 0)
(-0.735068 0 0)
(-0.731538 0 0)
(-0.727996 0 0)
(-0.724441 0 0)
(-0.720872 0 0)
(-0.717291 0 0)
(-0.713698 0 0)
(-0.710092 0 0)
(-0.706473 0 0)
(-0.702843 0 0)
(-0.6992 0 0)
(-0.695546 0 0)
(-0.691879 0 0)
(-0.688201 0 0)
(-0.684512 0 0)
(-0.680811 0 0)
(-0.677098 0 0)
(-0.673375 0 0)
(-0.66964 0 0)
(-0.665894 0 0)
(-0.662138 0 0)
(-0.65837 0 0)
(-0.654592 0 0)
(-0.650804 0 0)
(-0.647005 0 0)
(-0.643196 0 0)
(-0.639376 0 0)
(-0.635547 0 0)
(-0.631707 0 0)
(-0.627858 0 0)
(-0.623999 0 0)
(-0.62013 0 0)
(-0.616251 0 0)
(-0.612363 0 0)
(-0.608466 0 0)
(-0.604559 0 0)
(-0.600644 0 0)
(-0.596719 0 0)
(-0.592785 0 0)
(-0.588842 0 0)
(-0.584891 0 0)
(-0.580931 0 0)
(-0.576962 0 0)
(-0.572984 0 0)
(-0.568999 0 0)
(-0.565004 0 0)
(-0.561002 0 0)
(-0.556992 0 0)
(-0.552973 0 0)
(-0.548946 0 0)
(-0.544912 0 0)
(-0.54087 0 0)
(-0.53682 0 0)
(-0.532762 0 0)
(-0.528697 0 0)
(-0.524624 0 0)
(-0.520544 0 0)
(-0.516457 0 0)
(-0.512362 0 0)
(-0.508261 0 0)
(-0.504152 0 0)
(-0.500036 0 0)
(-0.495914 0 0)
(-0.491784 0 0)
(-0.487648 0 0)
(-0.483505 0 0)
(-0.479356 0 0)
(-0.4752 0 0)
(-0.471037 0 0)
(-0.466869 0 0)
(-0.462694 0 0)
(-0.458512 0 0)
(-0.454325 0 0)
(-0.450131 0 0)
(-0.445932 0 0)
(-0.441727 0 0)
(-0.437516 0 0)
(-0.433299 0 0)
(-0.429076 0 0)
(-0.424848 0 0)
(-0.420614 0 0)
(-0.416374 0 0)
(-0.41213 0 0)
(-0.40788 0 0)
(-0.403624 0 0)
(-0.399364 0 0)
(-0.395098 0 0)
(-0.390827 0 0)
(-0.386551 0 0)
(-0.38227 0 0)
(-0.377985 0 0)
(-0.373694 0 0)
(-0.369399 0 0)
(-0.365099 0 0)
(-0.360795 0 0)
(-0.356485 0 0)
(-0.352172 0 0)
(-0.347854 0 0)
(-0.343532 0 0)
(-0.339205 0 0)
(-0.334874 0 0)
(-0.330539 0 0)
(-0.3262 0 0)
(-0.321856 0 0)
(-0.317509 0 0)
(-0.313158 0 0)
(-0.308803 0 0)
(-0.304444 0 0)
(-0.300082 0 0)
(-0.295715 0 0)
(-0.291345 0 0)
(-0.286972 0 0)
(-0.282595 0 0)
(-0.278215 0 0)
(-0.273831 0 0)
(-0.269444 0 0)
(-0.265053 0 0)
(-0.26066 0 0)
(-0.256263 0 0)
(-0.251863 0 0)
(-0.24746 0 0)
(-0.243055 0 0)
(-0.238646 0 0)
(-0.234234 0 0)
(-0.22982 0 0)
(-0.225402 0 0)
(-0.220983 0 0)
(-0.21656 0 0)
(-0.212135 0 0)
(-0.207707 0 0)
(-0.203277 0 0)
(-0.198845 0 0)
(-0.19441 0 0)
(-0.189973 0 0)
(-0.185533 0 0)
(-0.181092 0 0)
(-0.176648 0 0)
(-0.172202 0 0)
(-0.167754 0 0)
(-0.163304 0 0)
(-0.158852 0 0)
(-0.154399 0 0)
(-0.149943 0 0)
(-0.145486 0 0)
(-0.141027 0 0)
(-0.136566 0 0)
(-0.132104 0 0)
(-0.127641 0 0)
(-0.123175 0 0)
(-0.118709 0 0)
(-0.114241 0 0)
(-0.109771 0 0)
(-0.105301 0 0)
(-0.100829 0 0)
(-0.0963556 0 0)
(-0.0918814 0 0)
(-0.0874062 0 0)
(-0.0829299 0 0)
(-0.0784527 0 0)
(-0.0739745 0 0)
(-0.0694955 0 0)
(-0.0650157 0 0)
(-0.0605351 0 0)
(-0.0560539 0 0)
(-0.051572 0 0)
(-0.0470894 0 0)
(-0.0426064 0 0)
(-0.0381228 0 0)
(-0.0336388 0 0)
(-0.0291544 0 0)
(-0.0246697 0 0)
(-0.0201847 0 0)
(-0.0156994 0 0)
(-0.011214 0 0)
(-0.00672846 0 0)
(-0.00224283 0 0)
)
;

boundaryField
{
    left
    {
        type            fixedValue;
        value           uniform (0 0 0);
    }
    right
    {
        type            fixedValue;
        value           uniform (0 0 0);
    }
    frontBackUpDown
    {
        type            empty;
    }
}


// ************************************************************************* //
