/*--------------------------------*- C++ -*----------------------------------*\
| =========                 |                                                 |
| \\      /  F ield         | OpenFOAM: The Open Source CFD Toolbox           |
|  \\    /   O peration     | Version:  2412                                  |
|   \\  /    A nd           | Website:  www.openfoam.com                      |
|    \\/     M anipulation  |                                                 |
\*---------------------------------------------------------------------------*/
FoamFile
{
    version     2.0;
    format      ascii;
    arch        "LSB;label=32;scalar=64";
    class       surfaceScalarField;
    location    "0.17";
    object      phi;
}
// * * * * * * * * * * * * * * * * * * * * * * * * * * * * * * * * * * * * * //

dimensions      [0 3 -1 0 0 0 0];

oriented        oriented;

internalField   nonuniform List<scalar> 
799
(
5.11887e-05
0.000102377
0.000153564
0.000204748
0.000255928
0.000307104
0.000358275
0.00040944
0.000460598
0.000511747
0.000562888
0.00061402
0.00066514
0.00071625
0.000767347
0.00081843
0.0008695
0.000920555
0.000971593
0.00102262
0.00107362
0.00112461
0.00117557
0.00122652
0.00127744
0.00132835
0.00137923
0.00143008
0.00148091
0.00153172
0.0015825
0.00163325
0.00168397
0.00173466
0.00178533
0.00183596
0.00188656
0.00193713
0.00198766
0.00203816
0.00208862
0.00213905
0.00218944
0.00223979
0.0022901
0.00234037
0.0023906
0.00244078
0.00249092
0.00254102
0.00259108
0.00264109
0.00269105
0.00274096
0.00279082
0.00284064
0.0028904
0.00294011
0.00298977
0.00303937
0.00308892
0.00313842
0.00318786
0.00323723
0.00328656
0.00333582
0.00338502
0.00343415
0.00348323
0.00353224
0.00358119
0.00363007
0.00367888
0.00372763
0.00377631
0.00382492
0.00387345
0.00392192
0.00397031
0.00401862
0.00406686
0.00411503
0.00416312
0.00421112
0.00425905
0.0043069
0.00435467
0.00440235
0.00444995
0.00449746
0.00454489
0.00459223
0.00463948
0.00468664
0.00473371
0.00478069
0.00482758
0.00487437
0.00492106
0.00496766
0.00501416
0.00506056
0.00510686
0.00515306
0.00519915
0.00524514
0.00529103
0.00533681
0.00538248
0.00542804
0.00547349
0.00551883
0.00556406
0.00560917
0.00565417
0.00569905
0.00574381
0.00578845
0.00583297
0.00587737
0.00592164
0.00596579
0.00600981
0.00605371
0.00609747
0.00614111
0.00618461
0.00622798
0.00627121
0.0063143
0.00635726
0.00640008
0.00644276
0.00648529
0.00652768
0.00656993
0.00661202
0.00665397
0.00669577
0.00673742
0.00677891
0.00682025
0.00686143
0.00690245
0.00694331
0.00698401
0.00702455
0.00706492
0.00710512
0.00714515
0.00718502
0.00722471
0.00726423
0.00730357
0.00734273
0.00738172
0.00742052
0.00745914
0.00749758
0.00753582
0.00757388
0.00761175
0.00764943
0.00768691
0.00772419
0.00776127
0.00779815
0.00783483
0.00787131
0.00790758
0.00794363
0.00797948
0.00801511
0.00805053
0.00808573
0.0081207
0.00815546
0.00818999
0.00822429
0.00825836
0.0082922
0.00832581
0.00835918
0.00839231
0.0084252
0.00845784
0.00849024
0.00852239
0.00855428
0.00858593
0.00861731
0.00864843
0.0086793
0.00870989
0.00874022
0.00877028
0.00880006
0.00882957
0.0088588
0.00888774
0.0089164
0.00894477
0.00897285
0.00900063
0.00902812
0.00905531
0.00908219
0.00910876
0.00913503
0.00916098
0.00918661
0.00921192
0.00923691
0.00926156
0.00928589
0.00930989
0.00933354
0.00935685
0.00937982
0.00940243
0.0094247
0.0094466
0.00946815
0.00948933
0.00951013
0.00953057
0.00955063
0.0095703
0.00958959
0.00960849
0.009627
0.0096451
0.0096628
0.00968009
0.00969697
0.00971343
0.00972947
0.00974508
0.00976026
0.009775
0.0097893
0.00980315
0.00981655
0.00982949
0.00984197
0.00985397
0.00986551
0.00987656
0.00988712
0.0098972
0.00990678
0.00991585
0.00992442
0.00993247
0.00993999
0.00994699
0.00995346
0.00995938
0.00996475
0.00996957
0.00997383
0.00997752
0.00998064
0.00998317
0.00998511
0.00998646
0.0099872
0.00998733
0.00998683
0.00998571
0.00998396
0.00998155
0.0099785
0.00997478
0.0099704
0.00996533
0.00995958
0.00995313
0.00994598
0.00993811
0.00992952
0.00992019
0.00991012
0.0098993
0.00988771
0.00987535
0.00986221
0.00984827
0.00983352
0.00981796
0.00980157
0.00978434
0.00976625
0.00974731
0.00972749
0.00970679
0.00968519
0.00966267
0.00963923
0.00961486
0.00958953
0.00956324
0.00953597
0.00950772
0.00947845
0.00944817
0.00941686
0.00938449
0.00935107
0.00931656
0.00928097
0.00924426
0.00920643
0.00916745
0.00912732
0.00908602
0.00904352
0.00899982
0.00895489
0.00890873
0.0088613
0.00881259
0.00876259
0.00871127
0.00865863
0.00860463
0.00854926
0.00849251
0.00843434
0.00837475
0.00831371
0.00825121
0.00818722
0.00812173
0.00805471
0.00798614
0.00791601
0.0078443
0.00777098
0.00769604
0.00761945
0.0075412
0.00746127
0.00737964
0.00729628
0.00721119
0.00712434
0.00703571
0.00694529
0.00685306
0.006759
0.00666311
0.00656535
0.00646573
0.00636422
0.00626081
0.0061555
0.00604827
0.00593912
0.00582803
0.00571501
0.00560004
0.00548313
0.00536426
0.00524346
0.00512071
0.00499603
0.00486941
0.00474088
0.00461044
0.00447811
0.0043439
0.00420785
0.00406996
0.00393028
0.00378882
0.00364563
0.00350073
0.00335417
0.003206
0.00305626
0.00290499
0.00275227
0.00259813
0.00244265
0.00228589
0.00212791
0.0019688
0.00180861
0.00164743
0.00148535
0.00132243
0.00115878
0.00099447
0.000829596
0.000664249
0.000498521
0.000332507
0.000166302
5.53615e-10
-0.000166301
-0.000332506
-0.000498519
-0.000664247
-0.000829593
-0.000994466
-0.00115877
-0.00132243
-0.00148534
-0.00164743
-0.0018086
-0.00196878
-0.0021279
-0.00228588
-0.00244264
-0.00259812
-0.00275225
-0.00290497
-0.00305624
-0.00320598
-0.00335415
-0.0035007
-0.0036456
-0.00378879
-0.00393025
-0.00406993
-0.00420781
-0.00434387
-0.00447807
-0.0046104
-0.00474084
-0.00486937
-0.00499598
-0.00512067
-0.00524341
-0.00536422
-0.00548308
-0.00559999
-0.00571496
-0.00582799
-0.00593907
-0.00604823
-0.00615545
-0.00626077
-0.00636417
-0.00646568
-0.0065653
-0.00666306
-0.00675896
-0.00685301
-0.00694524
-0.00703566
-0.00712429
-0.00721114
-0.00729624
-0.00737959
-0.00746123
-0.00754116
-0.00761941
-0.007696
-0.00777094
-0.00784426
-0.00791598
-0.00798611
-0.00805467
-0.00812169
-0.00818719
-0.00825118
-0.00831368
-0.00837472
-0.00843431
-0.00849247
-0.00854923
-0.0086046
-0.0086586
-0.00871125
-0.00876256
-0.00881257
-0.00886127
-0.0089087
-0.00895487
-0.0089998
-0.0090435
-0.009086
-0.0091273
-0.00916744
-0.00920641
-0.00924424
-0.00928095
-0.00931655
-0.00935105
-0.00938448
-0.00941685
-0.00944816
-0.00947844
-0.00950771
-0.00953596
-0.00956323
-0.00958952
-0.00961485
-0.00963922
-0.00966266
-0.00968518
-0.00970678
-0.00972749
-0.00974731
-0.00976625
-0.00978433
-0.00980156
-0.00981795
-0.00983352
-0.00984826
-0.0098622
-0.00987535
-0.00988771
-0.0098993
-0.00991012
-0.00992019
-0.00992952
-0.00993811
-0.00994598
-0.00995313
-0.00995958
-0.00996533
-0.0099704
-0.00997478
-0.0099785
-0.00998155
-0.00998395
-0.00998571
-0.00998683
-0.00998733
-0.0099872
-0.00998646
-0.00998511
-0.00998317
-0.00998064
-0.00997752
-0.00997383
-0.00996957
-0.00996475
-0.00995938
-0.00995345
-0.00994699
-0.00993999
-0.00993246
-0.00992442
-0.00991585
-0.00990678
-0.0098972
-0.00988712
-0.00987656
-0.0098655
-0.00985397
-0.00984196
-0.00982949
-0.00981655
-0.00980315
-0.0097893
-0.009775
-0.00976026
-0.00974508
-0.00972947
-0.00971343
-0.00969697
-0.00968009
-0.0096628
-0.0096451
-0.00962699
-0.00960849
-0.00958959
-0.0095703
-0.00955062
-0.00953056
-0.00951013
-0.00948932
-0.00946814
-0.0094466
-0.00942469
-0.00940243
-0.00937981
-0.00935684
-0.00933353
-0.00930988
-0.00928588
-0.00926156
-0.0092369
-0.00921191
-0.0091866
-0.00916097
-0.00913502
-0.00910875
-0.00908218
-0.0090553
-0.00902811
-0.00900062
-0.00897284
-0.00894476
-0.00891639
-0.00888773
-0.00885878
-0.00882956
-0.00880005
-0.00877027
-0.00874021
-0.00870988
-0.00867928
-0.00864842
-0.0086173
-0.00858591
-0.00855427
-0.00852238
-0.00849023
-0.00845783
-0.00842519
-0.0083923
-0.00835917
-0.0083258
-0.00829219
-0.00825835
-0.00822428
-0.00818997
-0.00815544
-0.00812069
-0.00808571
-0.00805051
-0.0080151
-0.00797947
-0.00794362
-0.00790756
-0.00787129
-0.00783482
-0.00779814
-0.00776126
-0.00772417
-0.00768689
-0.00764941
-0.00761174
-0.00757387
-0.00753581
-0.00749756
-0.00745913
-0.00742051
-0.0073817
-0.00734272
-0.00730356
-0.00726421
-0.0072247
-0.007185
-0.00714514
-0.00710511
-0.0070649
-0.00702453
-0.006984
-0.0069433
-0.00690243
-0.00686141
-0.00682023
-0.0067789
-0.0067374
-0.00669576
-0.00665396
-0.00661201
-0.00656991
-0.00652767
-0.00648528
-0.00644274
-0.00640007
-0.00635725
-0.00631429
-0.00627119
-0.00622796
-0.00618459
-0.00614109
-0.00609746
-0.00605369
-0.0060098
-0.00596578
-0.00592163
-0.00587736
-0.00583296
-0.00578844
-0.0057438
-0.00569904
-0.00565416
-0.00560916
-0.00556405
-0.00551882
-0.00547348
-0.00542803
-0.00538247
-0.0053368
-0.00529102
-0.00524513
-0.00519914
-0.00515305
-0.00510685
-0.00506055
-0.00501415
-0.00496765
-0.00492105
-0.00487436
-0.00482757
-0.00478068
-0.0047337
-0.00468663
-0.00463947
-0.00459222
-0.00454488
-0.00449745
-0.00444994
-0.00440234
-0.00435466
-0.00430689
-0.00425905
-0.00421112
-0.00416311
-0.00411502
-0.00406686
-0.00401862
-0.0039703
-0.00392191
-0.00387344
-0.00382491
-0.0037763
-0.00372762
-0.00367888
-0.00363006
-0.00358118
-0.00353224
-0.00348323
-0.00343415
-0.00338501
-0.00333581
-0.00328655
-0.00323723
-0.00318785
-0.00313841
-0.00308892
-0.00303937
-0.00298977
-0.00294011
-0.0028904
-0.00284063
-0.00279082
-0.00274096
-0.00269104
-0.00264108
-0.00259107
-0.00254102
-0.00249092
-0.00244078
-0.00239059
-0.00234036
-0.00229009
-0.00223978
-0.00218943
-0.00213905
-0.00208862
-0.00203816
-0.00198766
-0.00193713
-0.00188656
-0.00183596
-0.00178533
-0.00173466
-0.00168397
-0.00163325
-0.0015825
-0.00153172
-0.00148091
-0.00143008
-0.00137922
-0.00132834
-0.00127744
-0.00122652
-0.00117557
-0.00112461
-0.00107362
-0.00102261
-0.000971593
-0.000920554
-0.0008695
-0.00081843
-0.000767346
-0.000716249
-0.00066514
-0.00061402
-0.000562888
-0.000511748
-0.000460598
-0.00040944
-0.000358276
-0.000307105
-0.000255929
-0.000204748
-0.000153564
-0.000102378
-5.11893e-05
)
;

boundaryField
{
    left
    {
        type            calculated;
        value           uniform 0;
    }
    right
    {
        type            calculated;
        value           uniform 0;
    }
    frontBackUpDown
    {
        type            empty;
    }
}


// ************************************************************************* //
