/*--------------------------------*- C++ -*----------------------------------*\
| =========                 |                                                 |
| \\      /  F ield         | OpenFOAM: The Open Source CFD Toolbox           |
|  \\    /   O peration     | Version:  2412                                  |
|   \\  /    A nd           | Website:  www.openfoam.com                      |
|    \\/     M anipulation  |                                                 |
\*---------------------------------------------------------------------------*/
FoamFile
{
    version     2.0;
    format      ascii;
    arch        "LSB;label=32;scalar=64";
    class       volVectorField;
    location    "0.17";
    object      U_0;
}
// * * * * * * * * * * * * * * * * * * * * * * * * * * * * * * * * * * * * * //

dimensions      [0 1 -1 0 0 0 0];

internalField   nonuniform List<vector> 
800
(
(0.00256205 0 0)
(0.00768619 0 0)
(0.0128102 0 0)
(0.017934 0 0)
(0.0230575 0 0)
(0.0281806 0 0)
(0.0333032 0 0)
(0.0384252 0 0)
(0.0435466 0 0)
(0.0486672 0 0)
(0.053787 0 0)
(0.0589059 0 0)
(0.0640237 0 0)
(0.0691404 0 0)
(0.074256 0 0)
(0.0793702 0 0)
(0.0844831 0 0)
(0.0895946 0 0)
(0.0947044 0 0)
(0.0998127 0 0)
(0.104919 0 0)
(0.110024 0 0)
(0.115127 0 0)
(0.120227 0 0)
(0.125326 0 0)
(0.130423 0 0)
(0.135517 0 0)
(0.140609 0 0)
(0.145698 0 0)
(0.150785 0 0)
(0.15587 0 0)
(0.160951 0 0)
(0.16603 0 0)
(0.171106 0 0)
(0.176179 0 0)
(0.181249 0 0)
(0.186315 0 0)
(0.191379 0 0)
(0.196439 0 0)
(0.201495 0 0)
(0.206548 0 0)
(0.211598 0 0)
(0.216643 0 0)
(0.221685 0 0)
(0.226723 0 0)
(0.231757 0 0)
(0.236787 0 0)
(0.241813 0 0)
(0.246834 0 0)
(0.251851 0 0)
(0.256863 0 0)
(0.261871 0 0)
(0.266874 0 0)
(0.271873 0 0)
(0.276866 0 0)
(0.281855 0 0)
(0.286839 0 0)
(0.291817 0 0)
(0.29679 0 0)
(0.301758 0 0)
(0.30672 0 0)
(0.311677 0 0)
(0.316628 0 0)
(0.321573 0 0)
(0.326513 0 0)
(0.331447 0 0)
(0.336374 0 0)
(0.341295 0 0)
(0.346211 0 0)
(0.351119 0 0)
(0.356022 0 0)
(0.360917 0 0)
(0.365806 0 0)
(0.370689 0 0)
(0.375564 0 0)
(0.380433 0 0)
(0.385294 0 0)
(0.390148 0 0)
(0.394995 0 0)
(0.399835 0 0)
(0.404667 0 0)
(0.409491 0 0)
(0.414307 0 0)
(0.419116 0 0)
(0.423917 0 0)
(0.42871 0 0)
(0.433494 0 0)
(0.438271 0 0)
(0.443039 0 0)
(0.447798 0 0)
(0.452549 0 0)
(0.457291 0 0)
(0.462024 0 0)
(0.466749 0 0)
(0.471464 0 0)
(0.47617 0 0)
(0.480867 0 0)
(0.485554 0 0)
(0.490232 0 0)
(0.4949 0 0)
(0.499558 0 0)
(0.504206 0 0)
(0.508845 0 0)
(0.513473 0 0)
(0.518091 0 0)
(0.522698 0 0)
(0.527295 0 0)
(0.531882 0 0)
(0.536457 0 0)
(0.541022 0 0)
(0.545576 0 0)
(0.550118 0 0)
(0.554649 0 0)
(0.559169 0 0)
(0.563677 0 0)
(0.568174 0 0)
(0.572658 0 0)
(0.577131 0 0)
(0.581592 0 0)
(0.58604 0 0)
(0.590476 0 0)
(0.5949 0 0)
(0.599311 0 0)
(0.603709 0 0)
(0.608094 0 0)
(0.612467 0 0)
(0.616826 0 0)
(0.621171 0 0)
(0.625503 0 0)
(0.629822 0 0)
(0.634127 0 0)
(0.638417 0 0)
(0.642694 0 0)
(0.646956 0 0)
(0.651204 0 0)
(0.655438 0 0)
(0.659657 0 0)
(0.663861 0 0)
(0.66805 0 0)
(0.672223 0 0)
(0.676382 0 0)
(0.680524 0 0)
(0.684652 0 0)
(0.688763 0 0)
(0.692858 0 0)
(0.696937 0 0)
(0.701 0 0)
(0.705047 0 0)
(0.709076 0 0)
(0.713089 0 0)
(0.717085 0 0)
(0.721063 0 0)
(0.725025 0 0)
(0.728968 0 0)
(0.732894 0 0)
(0.736802 0 0)
(0.740692 0 0)
(0.744563 0 0)
(0.748416 0 0)
(0.75225 0 0)
(0.756066 0 0)
(0.759862 0 0)
(0.763639 0 0)
(0.767397 0 0)
(0.771135 0 0)
(0.774853 0 0)
(0.778551 0 0)
(0.782229 0 0)
(0.785886 0 0)
(0.789522 0 0)
(0.793138 0 0)
(0.796732 0 0)
(0.800306 0 0)
(0.803857 0 0)
(0.807387 0 0)
(0.810895 0 0)
(0.81438 0 0)
(0.817843 0 0)
(0.821284 0 0)
(0.824701 0 0)
(0.828095 0 0)
(0.831466 0 0)
(0.834813 0 0)
(0.838136 0 0)
(0.841436 0 0)
(0.84471 0 0)
(0.84796 0 0)
(0.851186 0 0)
(0.854386 0 0)
(0.85756 0 0)
(0.860709 0 0)
(0.863832 0 0)
(0.866929 0 0)
(0.869999 0 0)
(0.873043 0 0)
(0.876059 0 0)
(0.879048 0 0)
(0.88201 0 0)
(0.884943 0 0)
(0.887849 0 0)
(0.890725 0 0)
(0.893573 0 0)
(0.896392 0 0)
(0.899182 0 0)
(0.901942 0 0)
(0.904672 0 0)
(0.907371 0 0)
(0.91004 0 0)
(0.912677 0 0)
(0.915284 0 0)
(0.917858 0 0)
(0.920401 0 0)
(0.922911 0 0)
(0.925389 0 0)
(0.927834 0 0)
(0.930245 0 0)
(0.932622 0 0)
(0.934965 0 0)
(0.937274 0 0)
(0.939547 0 0)
(0.941786 0 0)
(0.943989 0 0)
(0.946155 0 0)
(0.948286 0 0)
(0.950379 0 0)
(0.952435 0 0)
(0.954453 0 0)
(0.956434 0 0)
(0.958375 0 0)
(0.960278 0 0)
(0.962142 0 0)
(0.963965 0 0)
(0.965748 0 0)
(0.967491 0 0)
(0.969192 0 0)
(0.970852 0 0)
(0.972469 0 0)
(0.974044 0 0)
(0.975576 0 0)
(0.977064 0 0)
(0.978508 0 0)
(0.979907 0 0)
(0.981261 0 0)
(0.982569 0 0)
(0.983831 0 0)
(0.985047 0 0)
(0.986215 0 0)
(0.987335 0 0)
(0.988407 0 0)
(0.98943 0 0)
(0.990403 0 0)
(0.991326 0 0)
(0.992198 0 0)
(0.993019 0 0)
(0.993788 0 0)
(0.994504 0 0)
(0.995166 0 0)
(0.995775 0 0)
(0.99633 0 0)
(0.996829 0 0)
(0.997272 0 0)
(0.997658 0 0)
(0.997987 0 0)
(0.998258 0 0)
(0.99847 0 0)
(0.998623 0 0)
(0.998715 0 0)
(0.998747 0 0)
(0.998716 0 0)
(0.998623 0 0)
(0.998467 0 0)
(0.998246 0 0)
(0.997961 0 0)
(0.997609 0 0)
(0.997191 0 0)
(0.996706 0 0)
(0.996151 0 0)
(0.995528 0 0)
(0.994834 0 0)
(0.994069 0 0)
(0.993232 0 0)
(0.992322 0 0)
(0.991338 0 0)
(0.990279 0 0)
(0.989144 0 0)
(0.987932 0 0)
(0.986642 0 0)
(0.985273 0 0)
(0.983823 0 0)
(0.982293 0 0)
(0.98068 0 0)
(0.978983 0 0)
(0.977202 0 0)
(0.975335 0 0)
(0.973381 0 0)
(0.971339 0 0)
(0.969207 0 0)
(0.966985 0 0)
(0.964671 0 0)
(0.962264 0 0)
(0.959762 0 0)
(0.957165 0 0)
(0.95447 0 0)
(0.951677 0 0)
(0.948784 0 0)
(0.94579 0 0)
(0.942693 0 0)
(0.939492 0 0)
(0.936185 0 0)
(0.932772 0 0)
(0.929249 0 0)
(0.925617 0 0)
(0.921872 0 0)
(0.918014 0 0)
(0.914042 0 0)
(0.909953 0 0)
(0.905745 0 0)
(0.901418 0 0)
(0.896969 0 0)
(0.892397 0 0)
(0.887699 0 0)
(0.882875 0 0)
(0.877923 0 0)
(0.87284 0 0)
(0.867625 0 0)
(0.862275 0 0)
(0.85679 0 0)
(0.851167 0 0)
(0.845405 0 0)
(0.839501 0 0)
(0.833453 0 0)
(0.82726 0 0)
(0.82092 0 0)
(0.81443 0 0)
(0.807789 0 0)
(0.800995 0 0)
(0.794046 0 0)
(0.78694 0 0)
(0.779674 0 0)
(0.772248 0 0)
(0.764659 0 0)
(0.756904 0 0)
(0.748983 0 0)
(0.740893 0 0)
(0.732633 0 0)
(0.7242 0 0)
(0.715593 0 0)
(0.70681 0 0)
(0.697849 0 0)
(0.688709 0 0)
(0.679388 0 0)
(0.669884 0 0)
(0.660196 0 0)
(0.650323 0 0)
(0.640262 0 0)
(0.630014 0 0)
(0.619577 0 0)
(0.60895 0 0)
(0.598131 0 0)
(0.587121 0 0)
(0.575918 0 0)
(0.564522 0 0)
(0.552933 0 0)
(0.541151 0 0)
(0.529176 0 0)
(0.517007 0 0)
(0.504647 0 0)
(0.492094 0 0)
(0.47935 0 0)
(0.466416 0 0)
(0.453295 0 0)
(0.439986 0 0)
(0.426493 0 0)
(0.412817 0 0)
(0.398961 0 0)
(0.384929 0 0)
(0.370722 0 0)
(0.356346 0 0)
(0.341802 0 0)
(0.327097 0 0)
(0.312234 0 0)
(0.297217 0 0)
(0.282053 0 0)
(0.266748 0 0)
(0.251305 0 0)
(0.235733 0 0)
(0.220038 0 0)
(0.204226 0 0)
(0.188304 0 0)
(0.172281 0 0)
(0.156164 0 0)
(0.139962 0 0)
(0.123681 0 0)
(0.107332 0 0)
(0.0909224 0 0)
(0.0744616 0 0)
(0.0579586 0 0)
(0.0414226 0 0)
(0.024863 0 0)
(0.0082893 0 0)
(-0.00828919 0 0)
(-0.0248629 0 0)
(-0.0414225 0 0)
(-0.0579584 0 0)
(-0.0744613 0 0)
(-0.0909221 0 0)
(-0.107332 0 0)
(-0.123681 0 0)
(-0.139961 0 0)
(-0.156164 0 0)
(-0.172281 0 0)
(-0.188303 0 0)
(-0.204225 0 0)
(-0.220036 0 0)
(-0.235732 0 0)
(-0.251304 0 0)
(-0.266746 0 0)
(-0.282052 0 0)
(-0.297215 0 0)
(-0.312231 0 0)
(-0.327094 0 0)
(-0.3418 0 0)
(-0.356343 0 0)
(-0.370719 0 0)
(-0.384926 0 0)
(-0.398958 0 0)
(-0.412814 0 0)
(-0.426489 0 0)
(-0.439982 0 0)
(-0.453291 0 0)
(-0.466412 0 0)
(-0.479346 0 0)
(-0.49209 0 0)
(-0.504642 0 0)
(-0.517003 0 0)
(-0.529172 0 0)
(-0.541147 0 0)
(-0.552929 0 0)
(-0.564518 0 0)
(-0.575913 0 0)
(-0.587116 0 0)
(-0.598126 0 0)
(-0.608945 0 0)
(-0.619572 0 0)
(-0.63001 0 0)
(-0.640258 0 0)
(-0.650318 0 0)
(-0.660191 0 0)
(-0.669879 0 0)
(-0.679383 0 0)
(-0.688704 0 0)
(-0.697844 0 0)
(-0.706805 0 0)
(-0.715588 0 0)
(-0.724196 0 0)
(-0.732629 0 0)
(-0.740889 0 0)
(-0.748979 0 0)
(-0.7569 0 0)
(-0.764654 0 0)
(-0.772244 0 0)
(-0.77967 0 0)
(-0.786936 0 0)
(-0.794042 0 0)
(-0.800992 0 0)
(-0.807786 0 0)
(-0.814427 0 0)
(-0.820916 0 0)
(-0.827257 0 0)
(-0.83345 0 0)
(-0.839498 0 0)
(-0.845402 0 0)
(-0.851164 0 0)
(-0.856787 0 0)
(-0.862273 0 0)
(-0.867622 0 0)
(-0.872837 0 0)
(-0.87792 0 0)
(-0.882873 0 0)
(-0.887697 0 0)
(-0.892394 0 0)
(-0.896967 0 0)
(-0.901416 0 0)
(-0.905743 0 0)
(-0.909951 0 0)
(-0.91404 0 0)
(-0.918013 0 0)
(-0.92187 0 0)
(-0.925615 0 0)
(-0.929248 0 0)
(-0.93277 0 0)
(-0.936184 0 0)
(-0.939491 0 0)
(-0.942692 0 0)
(-0.945789 0 0)
(-0.948783 0 0)
(-0.951676 0 0)
(-0.954469 0 0)
(-0.957164 0 0)
(-0.959761 0 0)
(-0.962263 0 0)
(-0.96467 0 0)
(-0.966985 0 0)
(-0.969207 0 0)
(-0.971338 0 0)
(-0.97338 0 0)
(-0.975334 0 0)
(-0.977201 0 0)
(-0.978983 0 0)
(-0.980679 0 0)
(-0.982292 0 0)
(-0.983823 0 0)
(-0.985273 0 0)
(-0.986642 0 0)
(-0.987932 0 0)
(-0.989144 0 0)
(-0.990279 0 0)
(-0.991338 0 0)
(-0.992322 0 0)
(-0.993232 0 0)
(-0.994069 0 0)
(-0.994834 0 0)
(-0.995528 0 0)
(-0.996151 0 0)
(-0.996706 0 0)
(-0.997191 0 0)
(-0.997609 0 0)
(-0.997961 0 0)
(-0.998246 0 0)
(-0.998467 0 0)
(-0.998623 0 0)
(-0.998716 0 0)
(-0.998747 0 0)
(-0.998715 0 0)
(-0.998623 0 0)
(-0.99847 0 0)
(-0.998258 0 0)
(-0.997987 0 0)
(-0.997658 0 0)
(-0.997272 0 0)
(-0.996828 0 0)
(-0.99633 0 0)
(-0.995775 0 0)
(-0.995166 0 0)
(-0.994504 0 0)
(-0.993787 0 0)
(-0.993019 0 0)
(-0.992198 0 0)
(-0.991326 0 0)
(-0.990403 0 0)
(-0.989429 0 0)
(-0.988407 0 0)
(-0.987335 0 0)
(-0.986215 0 0)
(-0.985047 0 0)
(-0.983831 0 0)
(-0.982569 0 0)
(-0.981261 0 0)
(-0.979906 0 0)
(-0.978507 0 0)
(-0.977063 0 0)
(-0.975575 0 0)
(-0.974044 0 0)
(-0.972469 0 0)
(-0.970851 0 0)
(-0.969192 0 0)
(-0.96749 0 0)
(-0.965748 0 0)
(-0.963965 0 0)
(-0.962141 0 0)
(-0.960278 0 0)
(-0.958375 0 0)
(-0.956433 0 0)
(-0.954453 0 0)
(-0.952434 0 0)
(-0.950378 0 0)
(-0.948285 0 0)
(-0.946155 0 0)
(-0.943988 0 0)
(-0.941785 0 0)
(-0.939547 0 0)
(-0.937273 0 0)
(-0.934964 0 0)
(-0.932621 0 0)
(-0.930244 0 0)
(-0.927833 0 0)
(-0.925388 0 0)
(-0.922911 0 0)
(-0.9204 0 0)
(-0.917858 0 0)
(-0.915283 0 0)
(-0.912676 0 0)
(-0.910039 0 0)
(-0.90737 0 0)
(-0.904671 0 0)
(-0.901941 0 0)
(-0.899181 0 0)
(-0.896391 0 0)
(-0.893572 0 0)
(-0.890724 0 0)
(-0.887847 0 0)
(-0.884942 0 0)
(-0.882008 0 0)
(-0.879047 0 0)
(-0.876058 0 0)
(-0.873041 0 0)
(-0.869998 0 0)
(-0.866928 0 0)
(-0.863831 0 0)
(-0.860708 0 0)
(-0.857559 0 0)
(-0.854384 0 0)
(-0.851184 0 0)
(-0.847959 0 0)
(-0.844709 0 0)
(-0.841434 0 0)
(-0.838135 0 0)
(-0.834812 0 0)
(-0.831465 0 0)
(-0.828094 0 0)
(-0.8247 0 0)
(-0.821282 0 0)
(-0.817842 0 0)
(-0.814379 0 0)
(-0.810893 0 0)
(-0.807386 0 0)
(-0.803856 0 0)
(-0.800304 0 0)
(-0.796731 0 0)
(-0.793137 0 0)
(-0.789521 0 0)
(-0.785884 0 0)
(-0.782227 0 0)
(-0.77855 0 0)
(-0.774852 0 0)
(-0.771133 0 0)
(-0.767395 0 0)
(-0.763638 0 0)
(-0.759861 0 0)
(-0.756064 0 0)
(-0.752249 0 0)
(-0.748415 0 0)
(-0.744562 0 0)
(-0.74069 0 0)
(-0.7368 0 0)
(-0.732893 0 0)
(-0.728967 0 0)
(-0.725023 0 0)
(-0.721062 0 0)
(-0.717083 0 0)
(-0.713088 0 0)
(-0.709075 0 0)
(-0.705045 0 0)
(-0.700999 0 0)
(-0.696936 0 0)
(-0.692857 0 0)
(-0.688762 0 0)
(-0.68465 0 0)
(-0.680523 0 0)
(-0.67638 0 0)
(-0.672222 0 0)
(-0.668048 0 0)
(-0.663859 0 0)
(-0.659655 0 0)
(-0.655437 0 0)
(-0.651203 0 0)
(-0.646955 0 0)
(-0.642693 0 0)
(-0.638416 0 0)
(-0.634125 0 0)
(-0.629821 0 0)
(-0.625502 0 0)
(-0.62117 0 0)
(-0.616824 0 0)
(-0.612465 0 0)
(-0.608093 0 0)
(-0.603708 0 0)
(-0.59931 0 0)
(-0.594899 0 0)
(-0.590475 0 0)
(-0.586039 0 0)
(-0.581591 0 0)
(-0.57713 0 0)
(-0.572657 0 0)
(-0.568173 0 0)
(-0.563676 0 0)
(-0.559168 0 0)
(-0.554648 0 0)
(-0.550117 0 0)
(-0.545574 0 0)
(-0.541021 0 0)
(-0.536456 0 0)
(-0.531881 0 0)
(-0.527294 0 0)
(-0.522697 0 0)
(-0.51809 0 0)
(-0.513472 0 0)
(-0.508844 0 0)
(-0.504205 0 0)
(-0.499557 0 0)
(-0.494899 0 0)
(-0.490231 0 0)
(-0.485553 0 0)
(-0.480866 0 0)
(-0.476169 0 0)
(-0.471463 0 0)
(-0.466748 0 0)
(-0.462023 0 0)
(-0.45729 0 0)
(-0.452548 0 0)
(-0.447797 0 0)
(-0.443038 0 0)
(-0.43827 0 0)
(-0.433494 0 0)
(-0.428709 0 0)
(-0.423916 0 0)
(-0.419116 0 0)
(-0.414307 0 0)
(-0.40949 0 0)
(-0.404666 0 0)
(-0.399834 0 0)
(-0.394994 0 0)
(-0.390148 0 0)
(-0.385293 0 0)
(-0.380432 0 0)
(-0.375564 0 0)
(-0.370688 0 0)
(-0.365806 0 0)
(-0.360917 0 0)
(-0.356021 0 0)
(-0.351119 0 0)
(-0.34621 0 0)
(-0.341295 0 0)
(-0.336374 0 0)
(-0.331446 0 0)
(-0.326513 0 0)
(-0.321573 0 0)
(-0.316628 0 0)
(-0.311677 0 0)
(-0.30672 0 0)
(-0.301757 0 0)
(-0.29679 0 0)
(-0.291817 0 0)
(-0.286838 0 0)
(-0.281855 0 0)
(-0.276866 0 0)
(-0.271872 0 0)
(-0.266874 0 0)
(-0.261871 0 0)
(-0.256863 0 0)
(-0.25185 0 0)
(-0.246834 0 0)
(-0.241812 0 0)
(-0.236787 0 0)
(-0.231757 0 0)
(-0.226723 0 0)
(-0.221685 0 0)
(-0.216643 0 0)
(-0.211597 0 0)
(-0.206548 0 0)
(-0.201495 0 0)
(-0.196438 0 0)
(-0.191378 0 0)
(-0.186315 0 0)
(-0.181248 0 0)
(-0.176179 0 0)
(-0.171106 0 0)
(-0.16603 0 0)
(-0.160951 0 0)
(-0.15587 0 0)
(-0.150785 0 0)
(-0.145698 0 0)
(-0.140609 0 0)
(-0.135517 0 0)
(-0.130423 0 0)
(-0.125326 0 0)
(-0.120227 0 0)
(-0.115127 0 0)
(-0.110024 0 0)
(-0.104919 0 0)
(-0.0998126 0 0)
(-0.0947044 0 0)
(-0.0895945 0 0)
(-0.0844831 0 0)
(-0.0793702 0 0)
(-0.074256 0 0)
(-0.0691404 0 0)
(-0.0640237 0 0)
(-0.0589059 0 0)
(-0.053787 0 0)
(-0.0486672 0 0)
(-0.0435466 0 0)
(-0.0384253 0 0)
(-0.0333032 0 0)
(-0.0281806 0 0)
(-0.0230575 0 0)
(-0.0179341 0 0)
(-0.0128103 0 0)
(-0.00768624 0 0)
(-0.0025621 0 0)
)
;

boundaryField
{
    left
    {
        type            fixedValue;
        value           uniform (0 0 0);
    }
    right
    {
        type            fixedValue;
        value           uniform (0 0 0);
    }
    frontBackUpDown
    {
        type            empty;
    }
}


// ************************************************************************* //
