/*--------------------------------*- C++ -*----------------------------------*\
| =========                 |                                                 |
| \\      /  F ield         | OpenFOAM: The Open Source CFD Toolbox           |
|  \\    /   O peration     | Version:  2412                                  |
|   \\  /    A nd           | Website:  www.openfoam.com                      |
|    \\/     M anipulation  |                                                 |
\*---------------------------------------------------------------------------*/
FoamFile
{
    version     2.0;
    format      ascii;
    arch        "LSB;label=32;scalar=64";
    class       volVectorField;
    location    "0.17";
    object      U_0_0;
}
// * * * * * * * * * * * * * * * * * * * * * * * * * * * * * * * * * * * * * //

dimensions      [0 1 -1 0 0 0 0];

internalField   nonuniform List<vector> 
800
(
(0.00256467 0 0)
(0.00769407 0 0)
(0.0128233 0 0)
(0.0179524 0 0)
(0.0230811 0 0)
(0.0282095 0 0)
(0.0333373 0 0)
(0.0384646 0 0)
(0.0435912 0 0)
(0.0487171 0 0)
(0.0538421 0 0)
(0.0589662 0 0)
(0.0640893 0 0)
(0.0692112 0 0)
(0.074332 0 0)
(0.0794515 0 0)
(0.0845696 0 0)
(0.0896862 0 0)
(0.0948013 0 0)
(0.0999147 0 0)
(0.105026 0 0)
(0.110136 0 0)
(0.115244 0 0)
(0.12035 0 0)
(0.125454 0 0)
(0.130556 0 0)
(0.135655 0 0)
(0.140752 0 0)
(0.145847 0 0)
(0.150939 0 0)
(0.156028 0 0)
(0.161115 0 0)
(0.166199 0 0)
(0.17128 0 0)
(0.176358 0 0)
(0.181432 0 0)
(0.186504 0 0)
(0.191573 0 0)
(0.196638 0 0)
(0.201699 0 0)
(0.206757 0 0)
(0.211811 0 0)
(0.216862 0 0)
(0.221909 0 0)
(0.226952 0 0)
(0.23199 0 0)
(0.237025 0 0)
(0.242056 0 0)
(0.247082 0 0)
(0.252104 0 0)
(0.257121 0 0)
(0.262133 0 0)
(0.267141 0 0)
(0.272145 0 0)
(0.277143 0 0)
(0.282136 0 0)
(0.287124 0 0)
(0.292107 0 0)
(0.297085 0 0)
(0.302058 0 0)
(0.307025 0 0)
(0.311986 0 0)
(0.316942 0 0)
(0.321892 0 0)
(0.326836 0 0)
(0.331774 0 0)
(0.336706 0 0)
(0.341631 0 0)
(0.346551 0 0)
(0.351464 0 0)
(0.356371 0 0)
(0.361271 0 0)
(0.366164 0 0)
(0.371051 0 0)
(0.37593 0 0)
(0.380803 0 0)
(0.385669 0 0)
(0.390527 0 0)
(0.395378 0 0)
(0.400221 0 0)
(0.405058 0 0)
(0.409886 0 0)
(0.414707 0 0)
(0.419519 0 0)
(0.424324 0 0)
(0.429121 0 0)
(0.433909 0 0)
(0.438689 0 0)
(0.443461 0 0)
(0.448224 0 0)
(0.452979 0 0)
(0.457725 0 0)
(0.462462 0 0)
(0.46719 0 0)
(0.471908 0 0)
(0.476618 0 0)
(0.481318 0 0)
(0.486009 0 0)
(0.49069 0 0)
(0.495362 0 0)
(0.500023 0 0)
(0.504675 0 0)
(0.509317 0 0)
(0.513948 0 0)
(0.518569 0 0)
(0.52318 0 0)
(0.52778 0 0)
(0.532369 0 0)
(0.536948 0 0)
(0.541516 0 0)
(0.546072 0 0)
(0.550618 0 0)
(0.555152 0 0)
(0.559674 0 0)
(0.564185 0 0)
(0.568684 0 0)
(0.573172 0 0)
(0.577647 0 0)
(0.58211 0 0)
(0.586561 0 0)
(0.591 0 0)
(0.595426 0 0)
(0.599839 0 0)
(0.60424 0 0)
(0.608627 0 0)
(0.613002 0 0)
(0.617363 0 0)
(0.621711 0 0)
(0.626045 0 0)
(0.630366 0 0)
(0.634672 0 0)
(0.638965 0 0)
(0.643243 0 0)
(0.647508 0 0)
(0.651757 0 0)
(0.655993 0 0)
(0.660213 0 0)
(0.664418 0 0)
(0.668609 0 0)
(0.672784 0 0)
(0.676944 0 0)
(0.681088 0 0)
(0.685216 0 0)
(0.689329 0 0)
(0.693425 0 0)
(0.697506 0 0)
(0.701569 0 0)
(0.705617 0 0)
(0.709647 0 0)
(0.713661 0 0)
(0.717657 0 0)
(0.721637 0 0)
(0.725598 0 0)
(0.729542 0 0)
(0.733469 0 0)
(0.737377 0 0)
(0.741267 0 0)
(0.745139 0 0)
(0.748992 0 0)
(0.752827 0 0)
(0.756642 0 0)
(0.760438 0 0)
(0.764215 0 0)
(0.767973 0 0)
(0.771711 0 0)
(0.775428 0 0)
(0.779126 0 0)
(0.782803 0 0)
(0.78646 0 0)
(0.790096 0 0)
(0.793711 0 0)
(0.797304 0 0)
(0.800877 0 0)
(0.804427 0 0)
(0.807956 0 0)
(0.811463 0 0)
(0.814947 0 0)
(0.818409 0 0)
(0.821848 0 0)
(0.825263 0 0)
(0.828656 0 0)
(0.832025 0 0)
(0.835371 0 0)
(0.838692 0 0)
(0.84199 0 0)
(0.845262 0 0)
(0.84851 0 0)
(0.851733 0 0)
(0.854931 0 0)
(0.858103 0 0)
(0.86125 0 0)
(0.86437 0 0)
(0.867464 0 0)
(0.870532 0 0)
(0.873573 0 0)
(0.876586 0 0)
(0.879572 0 0)
(0.88253 0 0)
(0.885461 0 0)
(0.888363 0 0)
(0.891236 0 0)
(0.894081 0 0)
(0.896896 0 0)
(0.899682 0 0)
(0.902438 0 0)
(0.905164 0 0)
(0.907859 0 0)
(0.910524 0 0)
(0.913157 0 0)
(0.915759 0 0)
(0.918329 0 0)
(0.920867 0 0)
(0.923373 0 0)
(0.925846 0 0)
(0.928285 0 0)
(0.930691 0 0)
(0.933063 0 0)
(0.935401 0 0)
(0.937704 0 0)
(0.939973 0 0)
(0.942205 0 0)
(0.944402 0 0)
(0.946563 0 0)
(0.948687 0 0)
(0.950774 0 0)
(0.952824 0 0)
(0.954836 0 0)
(0.95681 0 0)
(0.958745 0 0)
(0.960641 0 0)
(0.962498 0 0)
(0.964314 0 0)
(0.96609 0 0)
(0.967825 0 0)
(0.969519 0 0)
(0.971171 0 0)
(0.972781 0 0)
(0.974348 0 0)
(0.975872 0 0)
(0.977352 0 0)
(0.978787 0 0)
(0.980178 0 0)
(0.981524 0 0)
(0.982823 0 0)
(0.984077 0 0)
(0.985283 0 0)
(0.986442 0 0)
(0.987553 0 0)
(0.988616 0 0)
(0.989629 0 0)
(0.990592 0 0)
(0.991506 0 0)
(0.992368 0 0)
(0.993178 0 0)
(0.993937 0 0)
(0.994643 0 0)
(0.995295 0 0)
(0.995893 0 0)
(0.996437 0 0)
(0.996925 0 0)
(0.997356 0 0)
(0.997732 0 0)
(0.998049 0 0)
(0.998309 0 0)
(0.998509 0 0)
(0.99865 0 0)
(0.99873 0 0)
(0.998749 0 0)
(0.998707 0 0)
(0.998601 0 0)
(0.998432 0 0)
(0.998199 0 0)
(0.9979 0 0)
(0.997535 0 0)
(0.997104 0 0)
(0.996605 0 0)
(0.996037 0 0)
(0.9954 0 0)
(0.994692 0 0)
(0.993913 0 0)
(0.993062 0 0)
(0.992138 0 0)
(0.991139 0 0)
(0.990066 0 0)
(0.988916 0 0)
(0.987689 0 0)
(0.986384 0 0)
(0.984999 0 0)
(0.983534 0 0)
(0.981988 0 0)
(0.980359 0 0)
(0.978647 0 0)
(0.97685 0 0)
(0.974967 0 0)
(0.972997 0 0)
(0.970938 0 0)
(0.96879 0 0)
(0.966552 0 0)
(0.964221 0 0)
(0.961797 0 0)
(0.959279 0 0)
(0.956664 0 0)
(0.953952 0 0)
(0.951142 0 0)
(0.948232 0 0)
(0.94522 0 0)
(0.942106 0 0)
(0.938887 0 0)
(0.935563 0 0)
(0.932132 0 0)
(0.928592 0 0)
(0.924941 0 0)
(0.921179 0 0)
(0.917303 0 0)
(0.913313 0 0)
(0.909206 0 0)
(0.904981 0 0)
(0.900635 0 0)
(0.896169 0 0)
(0.891579 0 0)
(0.886864 0 0)
(0.882022 0 0)
(0.877052 0 0)
(0.871951 0 0)
(0.866719 0 0)
(0.861352 0 0)
(0.85585 0 0)
(0.85021 0 0)
(0.84443 0 0)
(0.838509 0 0)
(0.832445 0 0)
(0.826236 0 0)
(0.81988 0 0)
(0.813374 0 0)
(0.806718 0 0)
(0.799908 0 0)
(0.792944 0 0)
(0.785823 0 0)
(0.778544 0 0)
(0.771104 0 0)
(0.763501 0 0)
(0.755734 0 0)
(0.7478 0 0)
(0.739699 0 0)
(0.731427 0 0)
(0.722983 0 0)
(0.714366 0 0)
(0.705574 0 0)
(0.696604 0 0)
(0.687456 0 0)
(0.678128 0 0)
(0.668618 0 0)
(0.658924 0 0)
(0.649046 0 0)
(0.638983 0 0)
(0.628732 0 0)
(0.618293 0 0)
(0.607665 0 0)
(0.596847 0 0)
(0.585838 0 0)
(0.574638 0 0)
(0.563247 0 0)
(0.551664 0 0)
(0.539888 0 0)
(0.527921 0 0)
(0.515762 0 0)
(0.503412 0 0)
(0.490872 0 0)
(0.478142 0 0)
(0.465224 0 0)
(0.452119 0 0)
(0.438829 0 0)
(0.425357 0 0)
(0.411703 0 0)
(0.397871 0 0)
(0.383864 0 0)
(0.369684 0 0)
(0.355336 0 0)
(0.340823 0 0)
(0.32615 0 0)
(0.31132 0 0)
(0.296339 0 0)
(0.281212 0 0)
(0.265945 0 0)
(0.250543 0 0)
(0.235012 0 0)
(0.21936 0 0)
(0.203592 0 0)
(0.187716 0 0)
(0.17174 0 0)
(0.155671 0 0)
(0.139517 0 0)
(0.123287 0 0)
(0.106988 0 0)
(0.0906304 0 0)
(0.0742218 0 0)
(0.0577715 0 0)
(0.0412887 0 0)
(0.0247826 0 0)
(0.00826245 0 0)
(-0.00826234 0 0)
(-0.0247824 0 0)
(-0.0412885 0 0)
(-0.0577713 0 0)
(-0.0742215 0 0)
(-0.0906301 0 0)
(-0.106988 0 0)
(-0.123286 0 0)
(-0.139517 0 0)
(-0.15567 0 0)
(-0.171739 0 0)
(-0.187715 0 0)
(-0.203591 0 0)
(-0.219358 0 0)
(-0.235011 0 0)
(-0.250541 0 0)
(-0.265943 0 0)
(-0.281211 0 0)
(-0.296337 0 0)
(-0.311318 0 0)
(-0.326147 0 0)
(-0.340821 0 0)
(-0.355333 0 0)
(-0.369681 0 0)
(-0.383861 0 0)
(-0.397868 0 0)
(-0.411699 0 0)
(-0.425353 0 0)
(-0.438826 0 0)
(-0.452115 0 0)
(-0.46522 0 0)
(-0.478138 0 0)
(-0.490868 0 0)
(-0.503408 0 0)
(-0.515758 0 0)
(-0.527917 0 0)
(-0.539884 0 0)
(-0.551659 0 0)
(-0.563242 0 0)
(-0.574634 0 0)
(-0.585834 0 0)
(-0.596842 0 0)
(-0.60766 0 0)
(-0.618288 0 0)
(-0.628727 0 0)
(-0.638978 0 0)
(-0.649042 0 0)
(-0.65892 0 0)
(-0.668613 0 0)
(-0.678123 0 0)
(-0.687452 0 0)
(-0.6966 0 0)
(-0.705569 0 0)
(-0.714362 0 0)
(-0.722979 0 0)
(-0.731423 0 0)
(-0.739694 0 0)
(-0.747796 0 0)
(-0.75573 0 0)
(-0.763497 0 0)
(-0.7711 0 0)
(-0.77854 0 0)
(-0.78582 0 0)
(-0.792941 0 0)
(-0.799905 0 0)
(-0.806714 0 0)
(-0.813371 0 0)
(-0.819876 0 0)
(-0.826233 0 0)
(-0.832442 0 0)
(-0.838506 0 0)
(-0.844427 0 0)
(-0.850207 0 0)
(-0.855847 0 0)
(-0.861349 0 0)
(-0.866716 0 0)
(-0.871949 0 0)
(-0.877049 0 0)
(-0.88202 0 0)
(-0.886861 0 0)
(-0.891576 0 0)
(-0.896167 0 0)
(-0.900633 0 0)
(-0.904979 0 0)
(-0.909204 0 0)
(-0.913311 0 0)
(-0.917302 0 0)
(-0.921177 0 0)
(-0.92494 0 0)
(-0.92859 0 0)
(-0.93213 0 0)
(-0.935562 0 0)
(-0.938886 0 0)
(-0.942105 0 0)
(-0.945219 0 0)
(-0.948231 0 0)
(-0.951141 0 0)
(-0.953951 0 0)
(-0.956663 0 0)
(-0.959278 0 0)
(-0.961796 0 0)
(-0.96422 0 0)
(-0.966551 0 0)
(-0.96879 0 0)
(-0.970938 0 0)
(-0.972996 0 0)
(-0.974966 0 0)
(-0.976849 0 0)
(-0.978647 0 0)
(-0.980359 0 0)
(-0.981988 0 0)
(-0.983534 0 0)
(-0.984999 0 0)
(-0.986383 0 0)
(-0.987689 0 0)
(-0.988916 0 0)
(-0.990065 0 0)
(-0.991139 0 0)
(-0.992138 0 0)
(-0.993062 0 0)
(-0.993913 0 0)
(-0.994692 0 0)
(-0.9954 0 0)
(-0.996037 0 0)
(-0.996605 0 0)
(-0.997104 0 0)
(-0.997535 0 0)
(-0.9979 0 0)
(-0.998199 0 0)
(-0.998432 0 0)
(-0.998601 0 0)
(-0.998707 0 0)
(-0.998749 0 0)
(-0.99873 0 0)
(-0.99865 0 0)
(-0.998509 0 0)
(-0.998309 0 0)
(-0.998049 0 0)
(-0.997732 0 0)
(-0.997356 0 0)
(-0.996925 0 0)
(-0.996437 0 0)
(-0.995893 0 0)
(-0.995295 0 0)
(-0.994643 0 0)
(-0.993937 0 0)
(-0.993178 0 0)
(-0.992368 0 0)
(-0.991505 0 0)
(-0.990592 0 0)
(-0.989629 0 0)
(-0.988615 0 0)
(-0.987553 0 0)
(-0.986442 0 0)
(-0.985283 0 0)
(-0.984077 0 0)
(-0.982823 0 0)
(-0.981523 0 0)
(-0.980178 0 0)
(-0.978787 0 0)
(-0.977351 0 0)
(-0.975871 0 0)
(-0.974348 0 0)
(-0.972781 0 0)
(-0.971171 0 0)
(-0.969519 0 0)
(-0.967825 0 0)
(-0.96609 0 0)
(-0.964314 0 0)
(-0.962497 0 0)
(-0.960641 0 0)
(-0.958745 0 0)
(-0.956809 0 0)
(-0.954836 0 0)
(-0.952824 0 0)
(-0.950774 0 0)
(-0.948687 0 0)
(-0.946562 0 0)
(-0.944402 0 0)
(-0.942205 0 0)
(-0.939972 0 0)
(-0.937704 0 0)
(-0.9354 0 0)
(-0.933063 0 0)
(-0.93069 0 0)
(-0.928284 0 0)
(-0.925845 0 0)
(-0.923372 0 0)
(-0.920866 0 0)
(-0.918328 0 0)
(-0.915758 0 0)
(-0.913156 0 0)
(-0.910523 0 0)
(-0.907858 0 0)
(-0.905163 0 0)
(-0.902437 0 0)
(-0.899681 0 0)
(-0.896895 0 0)
(-0.89408 0 0)
(-0.891235 0 0)
(-0.888362 0 0)
(-0.88546 0 0)
(-0.882529 0 0)
(-0.879571 0 0)
(-0.876585 0 0)
(-0.873571 0 0)
(-0.870531 0 0)
(-0.867463 0 0)
(-0.864369 0 0)
(-0.861249 0 0)
(-0.858102 0 0)
(-0.85493 0 0)
(-0.851732 0 0)
(-0.848509 0 0)
(-0.845261 0 0)
(-0.841988 0 0)
(-0.838691 0 0)
(-0.835369 0 0)
(-0.832024 0 0)
(-0.828655 0 0)
(-0.825262 0 0)
(-0.821846 0 0)
(-0.818407 0 0)
(-0.814945 0 0)
(-0.811461 0 0)
(-0.807954 0 0)
(-0.804426 0 0)
(-0.800875 0 0)
(-0.797303 0 0)
(-0.793709 0 0)
(-0.790094 0 0)
(-0.786458 0 0)
(-0.782802 0 0)
(-0.779124 0 0)
(-0.775427 0 0)
(-0.771709 0 0)
(-0.767971 0 0)
(-0.764214 0 0)
(-0.760437 0 0)
(-0.756641 0 0)
(-0.752825 0 0)
(-0.748991 0 0)
(-0.745138 0 0)
(-0.741266 0 0)
(-0.737376 0 0)
(-0.733467 0 0)
(-0.729541 0 0)
(-0.725597 0 0)
(-0.721635 0 0)
(-0.717656 0 0)
(-0.713659 0 0)
(-0.709646 0 0)
(-0.705615 0 0)
(-0.701568 0 0)
(-0.697504 0 0)
(-0.693424 0 0)
(-0.689327 0 0)
(-0.685215 0 0)
(-0.681086 0 0)
(-0.676942 0 0)
(-0.672782 0 0)
(-0.668607 0 0)
(-0.664417 0 0)
(-0.660212 0 0)
(-0.655991 0 0)
(-0.651756 0 0)
(-0.647506 0 0)
(-0.643242 0 0)
(-0.638964 0 0)
(-0.634671 0 0)
(-0.630364 0 0)
(-0.626044 0 0)
(-0.62171 0 0)
(-0.617362 0 0)
(-0.613001 0 0)
(-0.608626 0 0)
(-0.604239 0 0)
(-0.599838 0 0)
(-0.595425 0 0)
(-0.590999 0 0)
(-0.58656 0 0)
(-0.582109 0 0)
(-0.577646 0 0)
(-0.573171 0 0)
(-0.568683 0 0)
(-0.564184 0 0)
(-0.559673 0 0)
(-0.55515 0 0)
(-0.550616 0 0)
(-0.546071 0 0)
(-0.541514 0 0)
(-0.536947 0 0)
(-0.532368 0 0)
(-0.527779 0 0)
(-0.523179 0 0)
(-0.518568 0 0)
(-0.513947 0 0)
(-0.509316 0 0)
(-0.504674 0 0)
(-0.500022 0 0)
(-0.495361 0 0)
(-0.490689 0 0)
(-0.486008 0 0)
(-0.481317 0 0)
(-0.476617 0 0)
(-0.471907 0 0)
(-0.467189 0 0)
(-0.462461 0 0)
(-0.457724 0 0)
(-0.452978 0 0)
(-0.448224 0 0)
(-0.44346 0 0)
(-0.438689 0 0)
(-0.433908 0 0)
(-0.42912 0 0)
(-0.424323 0 0)
(-0.419519 0 0)
(-0.414706 0 0)
(-0.409885 0 0)
(-0.405057 0 0)
(-0.400221 0 0)
(-0.395377 0 0)
(-0.390526 0 0)
(-0.385668 0 0)
(-0.380802 0 0)
(-0.37593 0 0)
(-0.37105 0 0)
(-0.366164 0 0)
(-0.36127 0 0)
(-0.35637 0 0)
(-0.351464 0 0)
(-0.34655 0 0)
(-0.341631 0 0)
(-0.336705 0 0)
(-0.331773 0 0)
(-0.326835 0 0)
(-0.321891 0 0)
(-0.316941 0 0)
(-0.311986 0 0)
(-0.307024 0 0)
(-0.302057 0 0)
(-0.297085 0 0)
(-0.292107 0 0)
(-0.287124 0 0)
(-0.282136 0 0)
(-0.277143 0 0)
(-0.272144 0 0)
(-0.267141 0 0)
(-0.262133 0 0)
(-0.25712 0 0)
(-0.252103 0 0)
(-0.247081 0 0)
(-0.242055 0 0)
(-0.237025 0 0)
(-0.23199 0 0)
(-0.226951 0 0)
(-0.221909 0 0)
(-0.216862 0 0)
(-0.211811 0 0)
(-0.206757 0 0)
(-0.201699 0 0)
(-0.196637 0 0)
(-0.191572 0 0)
(-0.186504 0 0)
(-0.181432 0 0)
(-0.176357 0 0)
(-0.17128 0 0)
(-0.166199 0 0)
(-0.161115 0 0)
(-0.156028 0 0)
(-0.150939 0 0)
(-0.145847 0 0)
(-0.140752 0 0)
(-0.135655 0 0)
(-0.130556 0 0)
(-0.125454 0 0)
(-0.12035 0 0)
(-0.115244 0 0)
(-0.110136 0 0)
(-0.105026 0 0)
(-0.0999146 0 0)
(-0.0948012 0 0)
(-0.0896861 0 0)
(-0.0845695 0 0)
(-0.0794514 0 0)
(-0.074332 0 0)
(-0.0692112 0 0)
(-0.0640893 0 0)
(-0.0589662 0 0)
(-0.0538421 0 0)
(-0.0487171 0 0)
(-0.0435912 0 0)
(-0.0384646 0 0)
(-0.0333374 0 0)
(-0.0282095 0 0)
(-0.0230812 0 0)
(-0.0179524 0 0)
(-0.0128234 0 0)
(-0.00769412 0 0)
(-0.00256472 0 0)
)
;

boundaryField
{
    left
    {
        type            fixedValue;
        value           uniform (0 0 0);
    }
    right
    {
        type            fixedValue;
        value           uniform (0 0 0);
    }
    frontBackUpDown
    {
        type            empty;
    }
}


// ************************************************************************* //
