/*--------------------------------*- C++ -*----------------------------------*\
| =========                 |                                                 |
| \\      /  F ield         | OpenFOAM: The Open Source CFD Toolbox           |
|  \\    /   O peration     | Version:  2412                                  |
|   \\  /    A nd           | Website:  www.openfoam.com                      |
|    \\/     M anipulation  |                                                 |
\*---------------------------------------------------------------------------*/
FoamFile
{
    version     2.0;
    format      ascii;
    arch        "LSB;label=32;scalar=64";
    class       volVectorField;
    location    "0.17";
    object      U_0_0_0;
}
// * * * * * * * * * * * * * * * * * * * * * * * * * * * * * * * * * * * * * //

dimensions      [0 1 -1 0 0 0 0];

internalField   nonuniform List<vector> 
800
(
(0.00256731 0 0)
(0.00770197 0 0)
(0.0128365 0 0)
(0.0179708 0 0)
(0.0231048 0 0)
(0.0282384 0 0)
(0.0333715 0 0)
(0.0385041 0 0)
(0.0436359 0 0)
(0.0487671 0 0)
(0.0538973 0 0)
(0.0590267 0 0)
(0.064155 0 0)
(0.0692822 0 0)
(0.0744081 0 0)
(0.0795328 0 0)
(0.0846562 0 0)
(0.089778 0 0)
(0.0948983 0 0)
(0.100017 0 0)
(0.105134 0 0)
(0.110249 0 0)
(0.115362 0 0)
(0.120473 0 0)
(0.125582 0 0)
(0.130689 0 0)
(0.135794 0 0)
(0.140896 0 0)
(0.145995 0 0)
(0.151093 0 0)
(0.156187 0 0)
(0.161279 0 0)
(0.166368 0 0)
(0.171454 0 0)
(0.176537 0 0)
(0.181617 0 0)
(0.186693 0 0)
(0.191767 0 0)
(0.196837 0 0)
(0.201903 0 0)
(0.206966 0 0)
(0.212026 0 0)
(0.217081 0 0)
(0.222133 0 0)
(0.227181 0 0)
(0.232224 0 0)
(0.237264 0 0)
(0.242299 0 0)
(0.24733 0 0)
(0.252357 0 0)
(0.257379 0 0)
(0.262396 0 0)
(0.267409 0 0)
(0.272417 0 0)
(0.27742 0 0)
(0.282418 0 0)
(0.287411 0 0)
(0.292399 0 0)
(0.297381 0 0)
(0.302358 0 0)
(0.30733 0 0)
(0.312296 0 0)
(0.317256 0 0)
(0.32221 0 0)
(0.327159 0 0)
(0.332101 0 0)
(0.337038 0 0)
(0.341968 0 0)
(0.346892 0 0)
(0.351809 0 0)
(0.35672 0 0)
(0.361625 0 0)
(0.366522 0 0)
(0.371413 0 0)
(0.376297 0 0)
(0.381174 0 0)
(0.386044 0 0)
(0.390906 0 0)
(0.395761 0 0)
(0.400609 0 0)
(0.405449 0 0)
(0.410282 0 0)
(0.415106 0 0)
(0.419923 0 0)
(0.424732 0 0)
(0.429532 0 0)
(0.434325 0 0)
(0.439109 0 0)
(0.443884 0 0)
(0.448651 0 0)
(0.45341 0 0)
(0.458159 0 0)
(0.4629 0 0)
(0.467631 0 0)
(0.472354 0 0)
(0.477067 0 0)
(0.481771 0 0)
(0.486465 0 0)
(0.491149 0 0)
(0.495824 0 0)
(0.500489 0 0)
(0.505144 0 0)
(0.509789 0 0)
(0.514424 0 0)
(0.519048 0 0)
(0.523662 0 0)
(0.528265 0 0)
(0.532858 0 0)
(0.537439 0 0)
(0.54201 0 0)
(0.54657 0 0)
(0.551118 0 0)
(0.555655 0 0)
(0.56018 0 0)
(0.564694 0 0)
(0.569196 0 0)
(0.573686 0 0)
(0.578164 0 0)
(0.58263 0 0)
(0.587083 0 0)
(0.591524 0 0)
(0.595953 0 0)
(0.600369 0 0)
(0.604771 0 0)
(0.609161 0 0)
(0.613538 0 0)
(0.617901 0 0)
(0.622251 0 0)
(0.626587 0 0)
(0.63091 0 0)
(0.635218 0 0)
(0.639513 0 0)
(0.643793 0 0)
(0.648059 0 0)
(0.652311 0 0)
(0.656548 0 0)
(0.66077 0 0)
(0.664977 0 0)
(0.669169 0 0)
(0.673345 0 0)
(0.677506 0 0)
(0.681652 0 0)
(0.685782 0 0)
(0.689895 0 0)
(0.693993 0 0)
(0.698074 0 0)
(0.702139 0 0)
(0.706187 0 0)
(0.710219 0 0)
(0.714233 0 0)
(0.71823 0 0)
(0.72221 0 0)
(0.726173 0 0)
(0.730117 0 0)
(0.734044 0 0)
(0.737953 0 0)
(0.741843 0 0)
(0.745715 0 0)
(0.749569 0 0)
(0.753403 0 0)
(0.757219 0 0)
(0.761015 0 0)
(0.764792 0 0)
(0.768549 0 0)
(0.772287 0 0)
(0.776004 0 0)
(0.779701 0 0)
(0.783378 0 0)
(0.787034 0 0)
(0.790669 0 0)
(0.794284 0 0)
(0.797876 0 0)
(0.801448 0 0)
(0.804997 0 0)
(0.808525 0 0)
(0.812031 0 0)
(0.815514 0 0)
(0.818974 0 0)
(0.822412 0 0)
(0.825826 0 0)
(0.829217 0 0)
(0.832585 0 0)
(0.835929 0 0)
(0.839248 0 0)
(0.842544 0 0)
(0.845814 0 0)
(0.84906 0 0)
(0.852281 0 0)
(0.855477 0 0)
(0.858646 0 0)
(0.86179 0 0)
(0.864908 0 0)
(0.868 0 0)
(0.871065 0 0)
(0.874102 0 0)
(0.877113 0 0)
(0.880096 0 0)
(0.883051 0 0)
(0.885978 0 0)
(0.888877 0 0)
(0.891747 0 0)
(0.894588 0 0)
(0.897399 0 0)
(0.900181 0 0)
(0.902934 0 0)
(0.905655 0 0)
(0.908347 0 0)
(0.911007 0 0)
(0.913636 0 0)
(0.916234 0 0)
(0.918799 0 0)
(0.921333 0 0)
(0.923834 0 0)
(0.926301 0 0)
(0.928736 0 0)
(0.931137 0 0)
(0.933504 0 0)
(0.935836 0 0)
(0.938134 0 0)
(0.940397 0 0)
(0.942624 0 0)
(0.944815 0 0)
(0.94697 0 0)
(0.949088 0 0)
(0.951169 0 0)
(0.953213 0 0)
(0.955218 0 0)
(0.957185 0 0)
(0.959114 0 0)
(0.961003 0 0)
(0.962853 0 0)
(0.964662 0 0)
(0.966431 0 0)
(0.968159 0 0)
(0.969845 0 0)
(0.97149 0 0)
(0.973092 0 0)
(0.974651 0 0)
(0.976166 0 0)
(0.977638 0 0)
(0.979065 0 0)
(0.980448 0 0)
(0.981785 0 0)
(0.983076 0 0)
(0.98432 0 0)
(0.985518 0 0)
(0.986668 0 0)
(0.98777 0 0)
(0.988823 0 0)
(0.989826 0 0)
(0.99078 0 0)
(0.991683 0 0)
(0.992536 0 0)
(0.993336 0 0)
(0.994084 0 0)
(0.99478 0 0)
(0.995421 0 0)
(0.996009 0 0)
(0.996541 0 0)
(0.997018 0 0)
(0.997439 0 0)
(0.997803 0 0)
(0.998109 0 0)
(0.998357 0 0)
(0.998545 0 0)
(0.998674 0 0)
(0.998743 0 0)
(0.998749 0 0)
(0.998694 0 0)
(0.998576 0 0)
(0.998394 0 0)
(0.998148 0 0)
(0.997837 0 0)
(0.997459 0 0)
(0.997014 0 0)
(0.996502 0 0)
(0.99592 0 0)
(0.995269 0 0)
(0.994548 0 0)
(0.993755 0 0)
(0.992889 0 0)
(0.991951 0 0)
(0.990937 0 0)
(0.989849 0 0)
(0.988684 0 0)
(0.987442 0 0)
(0.986122 0 0)
(0.984722 0 0)
(0.983242 0 0)
(0.981681 0 0)
(0.980036 0 0)
(0.978308 0 0)
(0.976495 0 0)
(0.974596 0 0)
(0.97261 0 0)
(0.970535 0 0)
(0.96837 0 0)
(0.966115 0 0)
(0.963768 0 0)
(0.961327 0 0)
(0.958792 0 0)
(0.95616 0 0)
(0.953432 0 0)
(0.950604 0 0)
(0.947677 0 0)
(0.944648 0 0)
(0.941516 0 0)
(0.93828 0 0)
(0.934938 0 0)
(0.931489 0 0)
(0.927931 0 0)
(0.924263 0 0)
(0.920483 0 0)
(0.91659 0 0)
(0.912581 0 0)
(0.908457 0 0)
(0.904214 0 0)
(0.899851 0 0)
(0.895366 0 0)
(0.890758 0 0)
(0.886026 0 0)
(0.881166 0 0)
(0.876178 0 0)
(0.87106 0 0)
(0.86581 0 0)
(0.860427 0 0)
(0.854907 0 0)
(0.84925 0 0)
(0.843454 0 0)
(0.837516 0 0)
(0.831436 0 0)
(0.82521 0 0)
(0.818838 0 0)
(0.812317 0 0)
(0.805645 0 0)
(0.798821 0 0)
(0.791842 0 0)
(0.784706 0 0)
(0.777413 0 0)
(0.769959 0 0)
(0.762343 0 0)
(0.754563 0 0)
(0.746617 0 0)
(0.738504 0 0)
(0.730221 0 0)
(0.721767 0 0)
(0.71314 0 0)
(0.704339 0 0)
(0.695361 0 0)
(0.686205 0 0)
(0.676869 0 0)
(0.667353 0 0)
(0.657654 0 0)
(0.647772 0 0)
(0.637705 0 0)
(0.627451 0 0)
(0.617011 0 0)
(0.606383 0 0)
(0.595566 0 0)
(0.584559 0 0)
(0.573362 0 0)
(0.561975 0 0)
(0.550397 0 0)
(0.538629 0 0)
(0.52667 0 0)
(0.514521 0 0)
(0.502182 0 0)
(0.489654 0 0)
(0.476938 0 0)
(0.464036 0 0)
(0.450949 0 0)
(0.437678 0 0)
(0.424225 0 0)
(0.410593 0 0)
(0.396785 0 0)
(0.382803 0 0)
(0.368651 0 0)
(0.354332 0 0)
(0.339849 0 0)
(0.325208 0 0)
(0.310412 0 0)
(0.295466 0 0)
(0.280376 0 0)
(0.265147 0 0)
(0.249785 0 0)
(0.234295 0 0)
(0.218686 0 0)
(0.202962 0 0)
(0.187132 0 0)
(0.171202 0 0)
(0.155181 0 0)
(0.139076 0 0)
(0.122895 0 0)
(0.106647 0 0)
(0.0903402 0 0)
(0.0739835 0 0)
(0.0575856 0 0)
(0.0411556 0 0)
(0.0247026 0 0)
(0.00823577 0 0)
(-0.00823567 0 0)
(-0.0247025 0 0)
(-0.0411554 0 0)
(-0.0575854 0 0)
(-0.0739832 0 0)
(-0.0903399 0 0)
(-0.106647 0 0)
(-0.122894 0 0)
(-0.139075 0 0)
(-0.15518 0 0)
(-0.171201 0 0)
(-0.187131 0 0)
(-0.202961 0 0)
(-0.218684 0 0)
(-0.234294 0 0)
(-0.249783 0 0)
(-0.265145 0 0)
(-0.280374 0 0)
(-0.295464 0 0)
(-0.310409 0 0)
(-0.325205 0 0)
(-0.339846 0 0)
(-0.354329 0 0)
(-0.368648 0 0)
(-0.3828 0 0)
(-0.396782 0 0)
(-0.41059 0 0)
(-0.424222 0 0)
(-0.437674 0 0)
(-0.450945 0 0)
(-0.464032 0 0)
(-0.476934 0 0)
(-0.48965 0 0)
(-0.502178 0 0)
(-0.514516 0 0)
(-0.526665 0 0)
(-0.538624 0 0)
(-0.550393 0 0)
(-0.56197 0 0)
(-0.573358 0 0)
(-0.584554 0 0)
(-0.595561 0 0)
(-0.606378 0 0)
(-0.617006 0 0)
(-0.627447 0 0)
(-0.6377 0 0)
(-0.647767 0 0)
(-0.65765 0 0)
(-0.667348 0 0)
(-0.676865 0 0)
(-0.6862 0 0)
(-0.695356 0 0)
(-0.704334 0 0)
(-0.713136 0 0)
(-0.721763 0 0)
(-0.730217 0 0)
(-0.7385 0 0)
(-0.746613 0 0)
(-0.754559 0 0)
(-0.762339 0 0)
(-0.769955 0 0)
(-0.777409 0 0)
(-0.784702 0 0)
(-0.791838 0 0)
(-0.798817 0 0)
(-0.805641 0 0)
(-0.812313 0 0)
(-0.818834 0 0)
(-0.825207 0 0)
(-0.831433 0 0)
(-0.837513 0 0)
(-0.843451 0 0)
(-0.849247 0 0)
(-0.854904 0 0)
(-0.860424 0 0)
(-0.865808 0 0)
(-0.871058 0 0)
(-0.876176 0 0)
(-0.881164 0 0)
(-0.886023 0 0)
(-0.890756 0 0)
(-0.895364 0 0)
(-0.899848 0 0)
(-0.904212 0 0)
(-0.908455 0 0)
(-0.91258 0 0)
(-0.916588 0 0)
(-0.920481 0 0)
(-0.924261 0 0)
(-0.92793 0 0)
(-0.931488 0 0)
(-0.934937 0 0)
(-0.938279 0 0)
(-0.941515 0 0)
(-0.944647 0 0)
(-0.947676 0 0)
(-0.950603 0 0)
(-0.953431 0 0)
(-0.956159 0 0)
(-0.958791 0 0)
(-0.961326 0 0)
(-0.963767 0 0)
(-0.966115 0 0)
(-0.96837 0 0)
(-0.970534 0 0)
(-0.972609 0 0)
(-0.974595 0 0)
(-0.976495 0 0)
(-0.978308 0 0)
(-0.980036 0 0)
(-0.98168 0 0)
(-0.983242 0 0)
(-0.984722 0 0)
(-0.986122 0 0)
(-0.987442 0 0)
(-0.988684 0 0)
(-0.989849 0 0)
(-0.990937 0 0)
(-0.99195 0 0)
(-0.992889 0 0)
(-0.993755 0 0)
(-0.994548 0 0)
(-0.995269 0 0)
(-0.99592 0 0)
(-0.996502 0 0)
(-0.997014 0 0)
(-0.997459 0 0)
(-0.997837 0 0)
(-0.998148 0 0)
(-0.998394 0 0)
(-0.998576 0 0)
(-0.998694 0 0)
(-0.998749 0 0)
(-0.998742 0 0)
(-0.998674 0 0)
(-0.998545 0 0)
(-0.998357 0 0)
(-0.998109 0 0)
(-0.997803 0 0)
(-0.997439 0 0)
(-0.997018 0 0)
(-0.996541 0 0)
(-0.996009 0 0)
(-0.995421 0 0)
(-0.99478 0 0)
(-0.994084 0 0)
(-0.993336 0 0)
(-0.992536 0 0)
(-0.991683 0 0)
(-0.99078 0 0)
(-0.989826 0 0)
(-0.988822 0 0)
(-0.987769 0 0)
(-0.986668 0 0)
(-0.985518 0 0)
(-0.98432 0 0)
(-0.983076 0 0)
(-0.981785 0 0)
(-0.980448 0 0)
(-0.979065 0 0)
(-0.977638 0 0)
(-0.976166 0 0)
(-0.97465 0 0)
(-0.973091 0 0)
(-0.971489 0 0)
(-0.969845 0 0)
(-0.968158 0 0)
(-0.96643 0 0)
(-0.964661 0 0)
(-0.962852 0 0)
(-0.961002 0 0)
(-0.959113 0 0)
(-0.957185 0 0)
(-0.955218 0 0)
(-0.953212 0 0)
(-0.951168 0 0)
(-0.949087 0 0)
(-0.946969 0 0)
(-0.944814 0 0)
(-0.942623 0 0)
(-0.940396 0 0)
(-0.938133 0 0)
(-0.935836 0 0)
(-0.933503 0 0)
(-0.931136 0 0)
(-0.928735 0 0)
(-0.926301 0 0)
(-0.923833 0 0)
(-0.921332 0 0)
(-0.918798 0 0)
(-0.916233 0 0)
(-0.913635 0 0)
(-0.911006 0 0)
(-0.908346 0 0)
(-0.905654 0 0)
(-0.902933 0 0)
(-0.90018 0 0)
(-0.897398 0 0)
(-0.894587 0 0)
(-0.891746 0 0)
(-0.888876 0 0)
(-0.885977 0 0)
(-0.88305 0 0)
(-0.880095 0 0)
(-0.877112 0 0)
(-0.874101 0 0)
(-0.871063 0 0)
(-0.867999 0 0)
(-0.864907 0 0)
(-0.861789 0 0)
(-0.858645 0 0)
(-0.855475 0 0)
(-0.85228 0 0)
(-0.849059 0 0)
(-0.845813 0 0)
(-0.842542 0 0)
(-0.839247 0 0)
(-0.835927 0 0)
(-0.832584 0 0)
(-0.829216 0 0)
(-0.825825 0 0)
(-0.82241 0 0)
(-0.818973 0 0)
(-0.815512 0 0)
(-0.812029 0 0)
(-0.808524 0 0)
(-0.804996 0 0)
(-0.801446 0 0)
(-0.797875 0 0)
(-0.794282 0 0)
(-0.790668 0 0)
(-0.787033 0 0)
(-0.783377 0 0)
(-0.7797 0 0)
(-0.776003 0 0)
(-0.772285 0 0)
(-0.768548 0 0)
(-0.76479 0 0)
(-0.761014 0 0)
(-0.757217 0 0)
(-0.753402 0 0)
(-0.749567 0 0)
(-0.745714 0 0)
(-0.741842 0 0)
(-0.737951 0 0)
(-0.734043 0 0)
(-0.730116 0 0)
(-0.726171 0 0)
(-0.722209 0 0)
(-0.718229 0 0)
(-0.714232 0 0)
(-0.710217 0 0)
(-0.706186 0 0)
(-0.702138 0 0)
(-0.698073 0 0)
(-0.693991 0 0)
(-0.689894 0 0)
(-0.68578 0 0)
(-0.68165 0 0)
(-0.677505 0 0)
(-0.673344 0 0)
(-0.669167 0 0)
(-0.664975 0 0)
(-0.660768 0 0)
(-0.656546 0 0)
(-0.65231 0 0)
(-0.648058 0 0)
(-0.643792 0 0)
(-0.639512 0 0)
(-0.635217 0 0)
(-0.630909 0 0)
(-0.626586 0 0)
(-0.62225 0 0)
(-0.6179 0 0)
(-0.613537 0 0)
(-0.60916 0 0)
(-0.60477 0 0)
(-0.600367 0 0)
(-0.595952 0 0)
(-0.591523 0 0)
(-0.587082 0 0)
(-0.582629 0 0)
(-0.578163 0 0)
(-0.573685 0 0)
(-0.569195 0 0)
(-0.564693 0 0)
(-0.560179 0 0)
(-0.555654 0 0)
(-0.551117 0 0)
(-0.546569 0 0)
(-0.542009 0 0)
(-0.537438 0 0)
(-0.532857 0 0)
(-0.528264 0 0)
(-0.523661 0 0)
(-0.519047 0 0)
(-0.514423 0 0)
(-0.509788 0 0)
(-0.505143 0 0)
(-0.500488 0 0)
(-0.495823 0 0)
(-0.491148 0 0)
(-0.486464 0 0)
(-0.48177 0 0)
(-0.477066 0 0)
(-0.472353 0 0)
(-0.46763 0 0)
(-0.462899 0 0)
(-0.458158 0 0)
(-0.453409 0 0)
(-0.44865 0 0)
(-0.443884 0 0)
(-0.439108 0 0)
(-0.434324 0 0)
(-0.429532 0 0)
(-0.424731 0 0)
(-0.419922 0 0)
(-0.415106 0 0)
(-0.410281 0 0)
(-0.405449 0 0)
(-0.400609 0 0)
(-0.395761 0 0)
(-0.390906 0 0)
(-0.386043 0 0)
(-0.381174 0 0)
(-0.376297 0 0)
(-0.371413 0 0)
(-0.366522 0 0)
(-0.361624 0 0)
(-0.35672 0 0)
(-0.351809 0 0)
(-0.346891 0 0)
(-0.341967 0 0)
(-0.337037 0 0)
(-0.332101 0 0)
(-0.327158 0 0)
(-0.32221 0 0)
(-0.317255 0 0)
(-0.312295 0 0)
(-0.307329 0 0)
(-0.302358 0 0)
(-0.297381 0 0)
(-0.292398 0 0)
(-0.287411 0 0)
(-0.282418 0 0)
(-0.27742 0 0)
(-0.272417 0 0)
(-0.267409 0 0)
(-0.262396 0 0)
(-0.257379 0 0)
(-0.252356 0 0)
(-0.24733 0 0)
(-0.242299 0 0)
(-0.237264 0 0)
(-0.232224 0 0)
(-0.22718 0 0)
(-0.222133 0 0)
(-0.217081 0 0)
(-0.212025 0 0)
(-0.206966 0 0)
(-0.201903 0 0)
(-0.196837 0 0)
(-0.191767 0 0)
(-0.186693 0 0)
(-0.181616 0 0)
(-0.176537 0 0)
(-0.171454 0 0)
(-0.166368 0 0)
(-0.161279 0 0)
(-0.156187 0 0)
(-0.151092 0 0)
(-0.145995 0 0)
(-0.140896 0 0)
(-0.135793 0 0)
(-0.130689 0 0)
(-0.125582 0 0)
(-0.120473 0 0)
(-0.115362 0 0)
(-0.110249 0 0)
(-0.105134 0 0)
(-0.100017 0 0)
(-0.0948982 0 0)
(-0.089778 0 0)
(-0.0846561 0 0)
(-0.0795328 0 0)
(-0.0744081 0 0)
(-0.0692821 0 0)
(-0.064155 0 0)
(-0.0590267 0 0)
(-0.0538973 0 0)
(-0.0487671 0 0)
(-0.043636 0 0)
(-0.0385041 0 0)
(-0.0333716 0 0)
(-0.0282385 0 0)
(-0.0231049 0 0)
(-0.0179709 0 0)
(-0.0128366 0 0)
(-0.00770202 0 0)
(-0.00256736 0 0)
)
;

boundaryField
{
    left
    {
        type            fixedValue;
        value           uniform (0 0 0);
    }
    right
    {
        type            fixedValue;
        value           uniform (0 0 0);
    }
    frontBackUpDown
    {
        type            empty;
    }
}


// ************************************************************************* //
