/*--------------------------------*- C++ -*----------------------------------*\
| =========                 |                                                 |
| \\      /  F ield         | OpenFOAM: The Open Source CFD Toolbox           |
|  \\    /   O peration     | Version:  2412                                  |
|   \\  /    A nd           | Website:  www.openfoam.com                      |
|    \\/     M anipulation  |                                                 |
\*---------------------------------------------------------------------------*/
FoamFile
{
    version     2.0;
    format      ascii;
    arch        "LSB;label=32;scalar=64";
    class       volScalarField;
    location    "8.5";
    object      p;
}
// * * * * * * * * * * * * * * * * * * * * * * * * * * * * * * * * * * * * * //

dimensions      [0 2 -2 0 0 0 0];

internalField   nonuniform List<scalar> 
2200
(
0.629492
0.629654
0.631111
0.636291
0.649132
0.676436
0.727054
0.813952
0.955082
1.16503
1.40257
1.60108
1.73724
1.82456
1.87553
1.90338
1.91711
1.92293
1.92509
1.92535
0.624303
0.624597
0.626315
0.63156
0.644524
0.6726
0.724448
0.812897
0.953322
1.16265
1.39991
1.6003
1.73839
1.82533
1.87576
1.90252
1.91572
1.92095
1.92258
1.92266
0.615266
0.615485
0.617631
0.623756
0.637867
0.666217
0.719084
0.80902
0.950009
1.16131
1.40155
1.6053
1.74403
1.8297
1.87973
1.90587
1.91748
1.92217
1.92344
1.92359
0.601809
0.601968
0.604352
0.611184
0.626375
0.655909
0.709295
0.800715
0.94503
1.1619
1.40596
1.6115
1.75224
1.83902
1.88791
1.91228
1.9237
1.92842
1.92998
1.93033
0.581623
0.581455
0.583711
0.590695
0.606607
0.638035
0.694378
0.788402
0.936658
1.16065
1.41111
1.62155
1.764
1.85055
1.89911
1.92438
1.93685
1.94224
1.94415
1.9445
0.556676
0.556635
0.558305
0.563712
0.579191
0.611668
0.671278
0.769985
0.925203
1.1576
1.41624
1.63237
1.77734
1.8667
1.91749
1.94389
1.95717
1.96358
1.96598
1.96633
0.524558
0.525081
0.526917
0.531418
0.544752
0.576466
0.637352
0.741743
0.906484
1.15097
1.42064
1.64516
1.79562
1.8882
1.94106
1.97006
1.98522
1.99305
1.99618
1.99644
0.473838
0.474282
0.476377
0.482196
0.49716
0.529951
0.592705
0.701195
0.876067
1.13819
1.42534
1.66031
1.81679
1.91646
1.97466
2.007
2.02437
2.03261
2.03574
2.03604
0.407762
0.407629
0.410147
0.417501
0.434111
0.46759
0.53418
0.650276
0.837871
1.11958
1.42772
1.68031
1.85103
1.95763
2.02153
2.05723
2.07459
2.08165
2.0849
2.08572
0.334066
0.333324
0.336223
0.345777
0.36458
0.400196
0.469141
0.593018
0.795083
1.09827
1.43283
1.71051
1.89879
2.01824
2.0874
2.12488
2.14277
2.14961
2.15338
2.1548
0.258658
0.257637
0.260288
0.271031
0.292425
0.331774
0.40681
0.539365
0.754773
1.07921
1.44417
1.7556
1.97079
2.10453
2.18135
2.22277
2.24192
2.24964
2.25343
2.25505
0.175583
0.174923
0.178987
0.191377
0.216013
0.262587
0.346479
0.491019
0.721668
1.07012
1.47455
1.8282
2.07126
2.22138
2.30781
2.35259
2.37294
2.38161
2.38498
2.3863
0.0741735
0.0737253
0.0764926
0.0883259
0.117978
0.17592
0.276216
0.437415
0.692925
1.07899
1.52932
1.9235
2.19444
2.36185
2.45492
2.50113
2.52362
2.534
2.53689
2.53788
-0.0592039
-0.0589957
-0.0545469
-0.0434412
-0.01268
0.0528342
0.170087
0.360108
0.659913
1.10166
1.60711
2.04126
2.33323
2.51112
2.60676
2.65535
2.68221
2.69515
2.69848
2.69935
-0.230631
-0.230803
-0.226396
-0.213626
-0.177717
-0.10262
0.0298678
0.251467
0.6074
1.12229
1.69507
2.16472
2.47392
2.66174
2.76492
2.81844
2.84937
2.86436
2.86848
2.86947
-0.446961
-0.446653
-0.441373
-0.429664
-0.395466
-0.312169
-0.157672
0.103886
0.523735
1.12107
1.77099
2.28717
2.62177
2.82455
2.94163
3.00322
3.03467
3.05085
3.05646
3.05767
-0.708143
-0.708431
-0.702241
-0.68517
-0.644921
-0.558688
-0.389593
-0.0901556
0.39747
1.08509
1.8265
2.41004
2.78337
3.01054
3.1442
3.21726
3.24937
3.26563
3.27205
3.27303
-1.01254
-1.01263
-1.00602
-0.985437
-0.934877
-0.833893
-0.647233
-0.314988
0.236421
1.01772
1.86449
2.53647
2.96669
3.22688
3.38133
3.46384
3.49718
3.5123
3.51914
3.52014
-1.37891
-1.37803
-1.3701
-1.34749
-1.28888
-1.17211
-0.955323
-0.571766
0.0573875
0.940012
1.90432
2.68156
3.18321
3.48036
3.65068
3.73777
3.7747
3.7907
3.79808
3.79904
-1.80903
-1.80866
-1.80017
-1.7719
-1.70276
-1.56791
-1.31402
-0.863531
-0.1338
0.876722
1.97807
2.86123
3.43124
3.76877
3.94943
4.04003
4.08219
4.10004
4.10848
4.10973
-2.33928
-2.33729
-2.3268
-2.29364
-2.20813
-2.039
-1.72359
-1.18396
-0.318102
0.852971
2.10777
3.09998
3.73084
4.09499
4.2836
4.37722
4.42399
4.44438
4.45405
4.45511
-2.97617
-2.97449
-2.96324
-2.92671
-2.82688
-2.61153
-2.21136
-1.53876
-0.490466
0.878791
2.30704
3.40263
4.08639
4.46818
4.65706
4.75215
4.80181
4.82319
4.83427
4.83509
-3.78019
-3.77537
-3.75357
-3.69729
-3.56446
-3.28812
-2.77583
-1.9288
-0.656882
0.945096
2.57235
3.7682
4.48231
4.87809
5.07097
5.1645
5.2152
5.23833
5.25073
5.25138
-4.75739
-4.75199
-4.7288
-4.65087
-4.45623
-4.07548
-3.40854
-2.35042
-0.82764
1.02844
2.86858
4.17597
4.92948
5.32214
5.51879
5.61429
5.66058
5.68542
5.70005
5.70066
-6.05385
-6.02792
-5.95488
-5.80011
-5.50396
-4.97711
-4.1169
-2.80544
-1.00927
1.1187
3.18965
4.61906
5.40536
5.80539
6.00064
6.08282
6.11516
6.13417
6.14716
6.14861
-7.6976
-7.64169
-7.49399
-7.20383
-6.72134
-5.97791
-4.86797
-3.2581
-1.16468
1.25048
3.55363
5.10796
5.93309
6.3321
6.5083
6.56976
6.58167
6.58606
6.58881
6.59358
-9.72948
-9.55143
-9.20518
-8.70768
-7.99975
-6.9982
-5.59848
-3.66266
-1.24562
1.50078
4.07112
5.76666
6.66451
7.06569
7.20691
7.25838
7.26531
7.26009
7.24229
7.25695
-11.9923
-11.5175
-10.935
-10.2326
-9.28414
-8.00299
-6.27693
-3.98918
-1.21269
1.91371
4.81691
6.68124
7.63998
8.06378
8.23353
8.31394
8.33954
8.36024
8.3688
8.37679
-14.0616
-13.4009
-12.6461
-11.7536
-10.5603
-8.97721
-6.89238
-4.22173
-1.05724
2.45664
5.66297
7.66973
8.66753
9.13183
9.32242
9.40909
9.45479
9.47747
9.48577
9.49181
-15.6772
-14.9254
-14.1184
-13.0984
-11.7177
-9.86326
-7.43166
-4.37576
-0.821318
3.05147
6.52321
8.65588
9.70378
10.188
10.4188
10.5165
10.5647
10.5937
10.6096
10.6141
-17.0696
-16.1856
-15.3592
-14.2337
-12.6714
-10.5909
-7.87097
-4.46714
-0.575159
3.58725
7.31262
9.58524
10.6869
11.2422
11.4863
11.5921
11.6468
11.673
11.6859
11.688
-18.0806
-17.1347
-16.3456
-15.1399
-13.438
-11.1892
-8.23416
-4.52784
-0.366729
4.03358
8.01687
10.438
11.6512
12.2402
12.4928
12.6001
12.6541
12.6827
12.702
12.7054
-18.8499
-17.9381
-17.1347
-15.8031
-14.0136
-11.6532
-8.52848
-4.57298
-0.183955
4.45037
8.66939
11.2423
12.5416
13.15
13.4026
13.5191
13.5919
13.6366
13.6632
13.6658
-19.4056
-18.5262
-17.7154
-16.3517
-14.4878
-12.0216
-8.75019
-4.58544
0.00619614
4.87786
9.28142
11.9811
13.3289
13.953
14.2375
14.382
14.4638
14.5137
14.5489
14.5481
-19.8166
-18.9155
-18.1191
-16.7352
-14.8453
-12.3034
-8.88805
-4.57407
0.1966
5.27832
9.82375
12.6211
14.0214
14.689
15.0023
15.1659
15.267
15.3254
15.3621
15.3642
-20.116
-19.2284
-18.3735
-16.9768
-15.0926
-12.4848
-8.95566
-4.56062
0.350885
5.59022
10.2591
13.1524
14.6283
15.348
15.6999
15.8856
15.996
16.0686
16.1183
16.119
-20.3161
-19.4609
-18.5216
-17.1071
-15.2324
-12.5613
-9.00674
-4.55548
0.442053
5.7872
10.5806
13.5858
15.1539
15.942
16.33
16.5397
16.6687
16.7448
16.799
16.7988
-20.4521
-19.6
-18.6149
-17.1446
-15.2634
-12.5901
-9.03194
-4.55798
0.47906
5.89407
10.8137
13.9429
15.6088
16.4638
16.8969
17.1305
17.2724
17.3647
17.4335
17.429
-20.5381
-19.6973
-18.6737
-17.1409
-15.2118
-12.5714
-9.0306
-4.55581
0.495758
5.9598
10.9914
14.2411
15.9998
16.9219
17.4022
17.6672
17.8314
17.9286
18.0106
18.0032
-20.5972
-19.7647
-18.7003
-17.1328
-15.157
-12.5087
-8.99134
-4.52836
0.526882
6.02372
11.1377
14.494
16.3431
17.3273
17.8456
18.1396
18.3305
18.4485
18.5422
18.5305
-20.6505
-19.8108
-18.7259
-17.1273
-15.1186
-12.4295
-8.91719
-4.46659
0.587674
6.09959
11.2643
14.7062
16.6349
17.6754
18.234
18.5617
18.7909
18.9332
19.024
19.0094
-20.6976
-19.8496
-18.7525
-17.1363
-15.1047
-12.3565
-8.82834
-4.38031
0.670849
6.18063
11.3736
14.8798
16.8727
17.9657
18.5741
18.9382
19.1963
19.3565
19.4594
19.4432
-20.7396
-19.8959
-18.7667
-17.1734
-15.1058
-12.3109
-8.75319
-4.29286
0.756067
6.25293
11.4625
15.0126
17.0508
18.187
18.8571
19.2781
19.5687
19.7356
19.8397
19.8301
-20.7837
-19.9432
-18.798
-17.2178
-15.1313
-12.3121
-8.71933
-4.23106
0.820453
6.30435
11.525
15.0998
17.1668
18.3431
19.0925
19.5824
19.9186
20.0932
20.1683
20.1762
-20.8419
-19.9988
-18.8423
-17.2722
-15.1841
-12.3755
-8.74517
-4.21825
0.842946
6.32453
11.5521
15.1373
17.2239
18.4379
19.2681
19.8513
20.2725
20.49
20.4977
20.4757
-20.9199
-20.0694
-18.9076
-17.3508
-15.2753
-12.4962
-8.84592
-4.27646
0.802694
6.30076
11.5312
15.1171
17.2229
18.4846
19.3899
20.0707
20.6151
20.9602
20.9724
20.7621
-21.0141
-20.1564
-18.9975
-17.4552
-15.4032
-12.657
-9.01051
-4.40325
0.699123
6.22734
11.4526
15.0343
17.1508
18.4783
19.4446
20.2192
20.9081
21.5097
21.6455
21.5091
-21.1205
-20.2549
-19.108
-17.5764
-15.5511
-12.8311
-9.21582
-4.57887
0.544036
6.09731
11.3045
14.8795
16.9949
18.3872
19.396
20.2364
21.0086
21.5988
21.6689
21.5378
-21.2347
-20.3654
-19.2336
-17.7073
-15.7092
-13.012
-9.42147
-4.78184
0.3565
5.91841
11.0949
14.652
16.7769
18.1861
19.1932
20.0085
20.7295
21.1763
21.1665
21.0587
-21.3495
-20.4921
-19.3759
-17.8548
-15.8793
-13.1959
-9.62202
-5.00344
0.138397
5.69381
10.8359
14.3631
16.4928
17.8655
18.8335
19.5747
20.1278
20.3722
20.3399
20.315
-21.4642
-20.6365
-19.538
-18.0307
-16.0686
-13.3868
-9.82112
-5.2389
-0.109294
5.43062
10.5438
14.0296
16.129
17.4328
18.3205
18.9453
19.341
19.509
19.4782
19.5004
-21.5783
-20.7917
-19.7151
-18.2324
-16.2765
-13.587
-10.0272
-5.47805
-0.379282
5.13795
10.2286
13.6608
15.6837
16.8948
17.6758
18.187
18.47
18.5161
18.3949
18.5203
-21.6919
-20.9395
-19.8844
-18.428
-16.4788
-13.7778
-10.225
-5.70532
-0.647972
4.8343
9.89567
13.2541
15.1681
16.2601
16.9129
17.281
17.4335
17.3883
17.2658
17.4004
-21.7917
-21.0546
-20.0142
-18.5781
-16.6363
-13.9287
-10.3859
-5.9011
-0.885312
4.54717
9.54709
12.8068
14.598
15.5467
16.0577
16.3021
16.3175
16.0798
15.7917
15.8343
-21.8693
-21.1251
-20.0865
-18.6593
-16.7264
-14.0231
-10.4947
-6.05382
-1.08079
4.28897
9.18662
12.3248
13.9901
14.7908
15.1534
15.2543
15.1145
14.463
13.488
13.418
-21.9176
-21.1512
-20.1018
-18.6742
-16.749
-14.0607
-10.5517
-6.16371
-1.23698
4.06242
8.81213
11.8234
13.364
14.0278
14.232
14.1537
13.8333
12.7817
10.7549
8.97699
-21.943
-21.1436
-20.0775
-18.6387
-16.7199
-14.0511
-10.5691
-6.23028
-1.36487
3.85212
8.44656
11.3272
12.7499
13.3011
13.3487
13.0583
12.4945
11.4785
8.28983
-0.15589
-21.9446
-21.1201
-20.0312
-18.5773
-16.6595
-14.0092
-10.5564
-6.26246
-1.46594
3.64428
8.0906
10.8346
12.1488
12.6207
12.5431
12.0759
11.3963
10.6823
10.1962
6.98373
-21.9266
-21.0822
-19.9772
-18.5047
-16.5895
-13.9554
-10.5327
-6.28907
-1.56421
3.42439
7.7262
10.3377
11.5625
12.0013
11.9077
11.4832
10.99
10.8924
11.6816
10.9054
-21.8952
-21.039
-19.9194
-18.4361
-16.5246
-13.9055
-10.5151
-6.32697
-1.67619
3.18455
7.3523
9.85547
11.0206
11.4818
11.5083
11.3074
11.0443
10.9619
11.394
10.9618
-21.8436
-20.9858
-19.8642
-18.3681
-16.4701
-13.8647
-10.5088
-6.37935
-1.80841
2.92902
6.9715
9.4096
10.5492
11.0897
11.2942
11.3097
11.1708
10.9239
11.0197
10.9723
-21.7754
-20.9152
-19.7941
-18.2978
-16.4233
-13.8277
-10.5088
-6.4397
-1.97528
2.66373
6.60421
9.01835
10.1714
10.8251
11.1742
11.3369
11.2767
11.0273
11.122
11.1608
-21.6906
-20.8261
-19.7183
-18.2026
-16.3747
-13.7811
-10.507
-6.51609
-2.15316
2.39754
6.26354
8.68108
9.89037
10.6576
11.1066
11.3617
11.423
11.2796
11.3842
11.4184
-21.5592
-20.7105
-19.5957
-18.0903
-16.3101
-13.7106
-10.483
-6.61187
-2.32851
2.143
5.95672
8.37959
9.70759
10.5555
11.0741
11.41
11.6131
11.6138
11.7004
11.7115
-21.4028
-20.5411
-19.4408
-17.9347
-16.1877
-13.6129
-10.4643
-6.6885
-2.48634
1.91078
5.68728
8.1355
9.56758
10.4934
11.0761
11.4946
11.8457
11.9724
12.0571
12.0576
-21.1591
-20.3358
-19.2368
-17.7382
-15.9882
-13.4986
-10.4258
-6.73887
-2.61845
1.70524
5.45371
7.93227
9.45059
10.4591
11.136
11.635
12.0667
12.2893
12.3908
12.394
-20.8578
-20.0279
-18.9427
-17.5213
-15.7364
-13.3371
-10.3515
-6.75728
-2.72407
1.5244
5.24742
7.75517
9.3516
10.4588
11.2396
11.8063
12.2772
12.545
12.6503
12.6563
-20.4526
-19.664
-18.5813
-17.1969
-15.4487
-13.1346
-10.2363
-6.74445
-2.80721
1.36202
5.05633
7.59416
9.2693
10.4714
11.3405
11.9621
12.4442
12.7632
12.8918
12.9111
-19.9381
-19.1648
-18.1313
-16.7897
-15.1074
-12.8804
-10.0826
-6.70479
-2.8727
1.20928
4.86805
7.43386
9.19018
10.479
11.4193
12.0955
12.6259
13.0234
13.1946
13.2242
-19.2264
-18.5472
-17.5596
-16.2967
-14.6991
-12.5759
-9.89515
-6.64176
-2.92679
1.05858
4.67163
7.25791
9.08899
10.464
11.4867
12.243
12.8413
13.3068
13.5217
13.5596
-18.3799
-17.7664
-16.8815
-15.7201
-14.227
-12.2275
-9.67606
-6.56073
-2.9756
0.90233
4.45136
7.0449
8.94542
10.4148
11.5284
12.3566
12.9976
13.488
13.7397
13.792
-17.3222
-16.8338
-16.0682
-15.0564
-13.7017
-11.8429
-9.43384
-6.4701
-3.0285
0.725906
4.18808
6.77708
8.72856
10.263
11.4266
12.2747
12.9197
13.4117
13.6976
13.7717
-16.0809
-15.7895
-15.2102
-14.349
-13.1451
-11.4387
-9.18815
-6.38609
-3.09763
0.513379
3.85767
6.41033
8.35622
9.88293
11.035
11.8714
12.5138
13.0181
13.3382
13.4364
-14.8947
-14.7426
-14.3739
-13.6869
-12.6278
-11.0611
-8.96407
-6.31959
-3.19484
0.236036
3.42083
5.88164
7.75008
9.20602
10.3145
11.1398
11.784
12.2977
12.6382
12.7589
-14.2462
-14.1717
-13.8142
-13.1774
-12.2066
-10.7525
-8.77794
-6.28181
-3.33633
-0.129243
2.8529
5.16052
6.89281
8.24157
9.28924
10.0898
10.7158
11.2077
11.5561
11.7037
-14.037
-13.9568
-13.6828
-13.0316
-12.0221
-10.5639
-8.65012
-6.28321
-3.53265
-0.575618
2.16856
4.28048
5.85803
7.08083
8.03225
8.75161
9.29755
9.71536
10.02
10.1761
-14.0979
-14.0497
-14.0535
-13.3199
-12.102
-10.5058
-8.56988
-6.30042
-3.73905
-1.00178
1.52645
3.47703
4.93462
6.05227
6.89986
7.49671
7.91939
8.22696
8.43731
8.54138
-15.0344
-15.0937
-15.0782
-13.7561
-12.1862
-10.4245
-8.46326
-6.27605
-3.8786
-1.32606
0.993928
2.79021
4.12486
5.13634
5.87889
6.36855
6.69376
6.91506
7.04751
7.10137
-15.2227
-15.5388
-15.0607
-13.4555
-11.8006
-10.033
-8.15236
-6.10327
-3.89461
-1.56058
0.521825
2.11715
3.27391
4.12903
4.74082
5.12506
5.36904
5.52617
5.61576
5.6502
-12.6733
-12.942
-12.6101
-11.6741
-10.4576
-9.00463
-7.40818
-5.64203
-3.71094
-1.67402
0.13382
1.4987
2.45414
3.1455
3.63738
3.94331
4.13594
4.25885
4.32967
4.36017
-8.77629
-8.84236
-8.79676
-8.55969
-8.07069
-7.25907
-6.18103
-4.84904
-3.30846
-1.65828
-0.161362
0.968218
1.73415
2.28472
2.68538
2.93693
3.09506
3.19696
3.25763
3.28221
-5.16362
-5.2093
-5.27859
-5.35782
-5.34532
-5.11685
-4.60909
-3.79736
-2.73415
-1.51641
-0.349607
0.560826
1.16962
1.6101
1.94028
2.14461
2.27313
2.36243
2.41898
2.44412
-2.49709
-2.54569
-2.65413
-2.82362
-3.00651
-3.08662
-2.98969
-2.64231
-2.04188
-1.24639
-0.409814
0.306994
0.785406
1.13136
1.40743
1.57251
1.67749
1.75898
1.80994
1.83303
-0.8836
-0.926536
-1.03377
-1.19208
-1.37303
-1.5301
-1.62284
-1.57277
-1.32223
-0.87946
-0.330709
0.1968
0.567884
0.819684
1.05991
1.19192
1.27721
1.34588
1.38379
1.39844
-0.0621065
-0.0968219
-0.189539
-0.323325
-0.462576
-0.584934
-0.695157
-0.752512
-0.698819
-0.492625
-0.162511
0.195983
0.467547
0.653599
0.846635
0.94333
1.01284
1.06057
1.08545
1.09341
0.327217
0.295176
0.206015
0.0832403
-0.0293775
-0.110778
-0.187653
-0.247518
-0.254085
-0.166776
0.0221319
0.251401
0.443015
0.583264
0.711136
0.78279
0.832157
0.862969
0.876493
0.880557
0.469323
0.445279
0.365201
0.251832
0.153222
0.0892899
0.0374521
0.00249239
0.00330803
0.0557456
0.166627
0.314854
0.449949
0.550179
0.637172
0.684335
0.711449
0.725214
0.728886
0.730038
0.490658
0.47461
0.409382
0.307502
0.212175
0.143276
0.0972909
0.0854678
0.112054
0.168955
0.252279
0.359071
0.454732
0.519548
0.575747
0.599388
0.609549
0.613319
0.613043
0.612423
0.455663
0.445125
0.396922
0.315307
0.226205
0.148239
0.0884178
0.0785691
0.12059
0.192366
0.27799
0.367816
0.436084
0.469406
0.497582
0.505654
0.508346
0.509224
0.508016
0.506513
0.393335
0.386292
0.355218
0.302048
0.23659
0.165664
0.0915712
0.0630461
0.0916371
0.163318
0.252815
0.331466
0.379424
0.391967
0.405316
0.409953
0.40891
0.407364
0.405468
0.404163
0.32681
0.322335
0.305124
0.276661
0.242093
0.196171
0.131675
0.0885876
0.0847926
0.127321
0.200746
0.259962
0.292119
0.298497
0.30622
0.30822
0.308636
0.308834
0.307466
0.307175
0.272806
0.270682
0.263292
0.250332
0.238545
0.218259
0.180057
0.143651
0.114723
0.11644
0.150242
0.181812
0.206371
0.213276
0.219481
0.21724
0.21774
0.219893
0.220584
0.220615
0.235721
0.2349
0.233249
0.229222
0.228556
0.224084
0.208182
0.189701
0.157088
0.13155
0.123512
0.128331
0.147309
0.152238
0.157946
0.152693
0.150234
0.149425
0.147841
0.147247
0.2145
0.213734
0.213776
0.212503
0.214017
0.214179
0.208476
0.204473
0.179999
0.14921
0.122104
0.108901
0.116905
0.114794
0.116742
0.111438
0.10576
0.0995968
0.0936066
0.0920262
0.204602
0.203185
0.201714
0.197668
0.194399
0.189098
0.183594
0.184952
0.172108
0.152553
0.130913
0.109356
0.106202
0.0951171
0.091019
0.0831069
0.0746747
0.0653484
0.0556267
0.0532885
0.197649
0.195768
0.19102
0.181559
0.171145
0.157196
0.145669
0.145337
0.1426
0.142478
0.136491
0.114341
0.106477
0.0874498
0.0762522
0.0630825
0.0515518
0.0407174
0.0284449
0.0257423
0.184451
0.182872
0.175793
0.163224
0.1498
0.131585
0.1154
0.109802
0.107514
0.116879
0.123857
0.109084
0.103889
0.0794559
0.0642923
0.0474431
0.0337818
0.0235531
0.00925774
0.00710447
0.160823
0.159518
0.152564
0.142055
0.132784
0.118617
0.102995
0.0916334
0.0801804
0.0813394
0.0893388
0.0807066
0.0809797
0.059119
0.0463546
0.0317907
0.0187835
0.0134467
-0.000410236
-0.00173017
0.12733
0.126868
0.122051
0.116208
0.11371
0.106714
0.0965772
0.0842547
0.0629009
0.0518855
0.0515258
0.0402963
0.043854
0.0302783
0.0253348
0.0166372
0.00863506
0.00639385
-0.00321771
-0.00326827
0.0907928
0.0901719
0.0876604
0.0852168
0.0852755
0.0813696
0.0775948
0.0719005
0.0528599
0.0371195
0.0287567
0.0123687
0.0157038
0.0083906
0.00853049
0.00502271
-0.000410353
0.00219116
-0.00445784
-0.00442878
0.0557651
0.0556152
0.0531798
0.0513472
0.0507249
0.0444092
0.0453536
0.0471091
0.0386721
0.0291092
0.0200318
0.00235297
0.00550062
-0.000308458
0.00156563
0.00191209
-0.00291346
-0.000683025
-0.00633137
-0.00553691
0.0236706
0.0252212
0.0222328
0.0196708
0.018861
0.0112055
0.0126447
0.0150771
0.0122428
0.012363
0.00965987
0.000218668
0.00295731
-0.000443402
0.000469349
0.00237169
-0.00109692
0.001701
-0.00432653
-0.00339762
13.3131
16.7663
17.5353
18.5833
19.4021
20.1104
20.7075
21.1755
21.4589
21.4424
16.8973
18.5176
18.9663
19.6109
20.1501
20.5971
20.9482
21.1905
21.2909
21.2159
18.7002
19.4825
19.8407
20.2325
20.564
20.8351
21.0398
21.1708
21.2181
21.2146
19.6829
20.154
20.383
20.6206
20.8166
20.9745
21.0908
21.1671
21.2029
21.2237
20.3212
20.5571
20.7004
20.8455
20.9677
21.0666
21.1407
21.1908
21.2168
21.2465
20.6587
20.8274
20.9035
21.0065
21.0816
21.1436
21.1923
21.2291
21.253
21.2781
20.8968
21.0108
21.0475
21.1207
21.1697
21.2124
21.2476
21.2753
21.294
21.3193
21.0677
21.1399
21.1713
21.2129
21.2487
21.2794
21.3051
21.328
21.3463
21.3682
21.2016
21.2475
21.2716
21.2961
21.3219
21.3456
21.3666
21.3871
21.404
21.4246
21.3119
21.3399
21.3601
21.3781
21.397
21.4158
21.4331
21.4512
21.464
21.4828
21.411
21.43
21.4471
21.462
21.4772
21.4915
21.5039
21.5163
21.5246
21.5408
21.5045
21.5186
21.5338
21.5468
21.5584
21.569
21.5785
21.5871
21.5911
21.6028
21.5965
21.6078
21.6221
21.6319
21.6399
21.6478
21.6555
21.6624
21.6641
21.6717
21.697
21.7018
21.7103
21.7158
21.7195
21.724
21.73
21.7378
21.7415
21.751
21.8123
21.7992
21.7913
21.7852
21.7825
21.7838
21.79
21.8026
21.817
21.8466
21.9327
21.8766
21.8462
21.8289
21.8207
21.8209
21.8296
21.8486
21.8801
21.9495
)
;

boundaryField
{
    wall-4
    {
        type            zeroGradient;
    }
    pressure-outlet-7
    {
        type            fixedValue;
        value           uniform 0;
    }
    velocity-inlet-6
    {
        type            zeroGradient;
    }
    velocity-inlet-5
    {
        type            zeroGradient;
    }
    frontAndBackPlanes
    {
        type            empty;
    }
}


// ************************************************************************* //
