/*--------------------------------*- C++ -*----------------------------------*\
| =========                 |                                                 |
| \\      /  F ield         | OpenFOAM: The Open Source CFD Toolbox           |
|  \\    /   O peration     | Version:  2412                                  |
|   \\  /    A nd           | Website:  www.openfoam.com                      |
|    \\/     M anipulation  |                                                 |
\*---------------------------------------------------------------------------*/
FoamFile
{
    version     2.0;
    format      ascii;
    arch        "LSB;label=32;scalar=64";
    class       surfaceScalarField;
    location    "8.5";
    object      phi;
}
// * * * * * * * * * * * * * * * * * * * * * * * * * * * * * * * * * * * * * //

dimensions      [0 3 -1 0 0 0 0];

oriented        oriented;

internalField   nonuniform List<scalar> 
4262
(
-0.00151091
0.222024
-0.00359839
0.830741
-0.00579962
1.76934
-0.00808512
3.16745
-0.0110947
5.18761
-0.0141417
8.01741
-0.017023
11.85
-0.0192147
16.8219
-0.0217321
22.8843
-0.0222258
29.5288
-0.0221335
29.5283
-0.0204607
22.8801
-0.0178652
16.8171
-0.0146605
11.8439
-0.0114203
8.01112
-0.00857327
5.18176
-0.00644483
3.16304
-0.00475191
1.76545
-0.00275508
0.826656
0.217758
-0.00364322
0.225667
-0.00885151
0.835949
-0.0154818
1.77597
-0.0231799
3.17515
-0.0319563
5.19639
-0.0406412
8.0261
-0.0492138
11.8586
-0.0590247
16.8317
-0.0688524
22.8942
-0.0674153
29.5274
-0.0627552
29.5236
-0.0553776
22.8728
-0.0477181
16.8095
-0.0392114
11.8354
-0.0316434
8.00356
-0.0251412
5.17525
-0.0179462
3.15584
-0.0118788
1.75938
-0.00517243
0.81995
0.212585
-0.00638875
0.232055
-0.0151482
0.844708
-0.0261314
1.78696
-0.0391171
3.18814
-0.0533892
5.21066
-0.0674659
8.04017
-0.0819677
11.8731
-0.0931236
16.8429
-0.106363
22.9074
-0.107151
29.5282
-0.103506
29.52
-0.0943972
22.8637
-0.0807492
16.7958
-0.0659928
11.8207
-0.0513277
7.98889
-0.0383652
5.16229
-0.0267185
3.1442
-0.0151954
1.74786
-0.00537454
0.810129
0.207211
-0.00945162
0.241507
-0.0225614
0.857818
-0.0382672
1.80266
-0.0559259
3.20579
-0.0744394
5.22918
-0.092252
8.05799
-0.112409
11.8933
-0.129897
16.8604
-0.150438
22.9279
-0.149565
29.5273
-0.141234
29.5116
-0.125868
22.8483
-0.105677
16.7756
-0.0877678
11.8028
-0.0678177
7.96894
-0.0493398
5.14381
-0.0329017
3.12776
-0.0181637
1.73312
-0.00577013
0.797736
0.201441
-0.0128275
0.254335
-0.0298607
0.874851
-0.0503617
1.82316
-0.0734684
3.2289
-0.0971473
5.25285
-0.120137
8.08098
-0.143827
11.9169
-0.163912
16.8805
-0.187261
22.9513
-0.187212
29.5273
-0.179838
29.5043
-0.163092
22.8316
-0.137197
16.7498
-0.109038
11.7746
-0.0822745
7.94218
-0.0606667
5.12221
-0.0403283
3.10742
-0.0216594
1.71445
-0.00633097
0.782407
0.19511
-0.0166431
0.270978
-0.0387668
0.896975
-0.0638743
1.84827
-0.0918311
3.25686
-0.122556
5.28358
-0.150078
8.1085
-0.175754
11.9426
-0.203155
16.9079
-0.231964
22.9801
-0.231138
29.5264
-0.218139
29.4913
-0.191765
22.8052
-0.160074
16.7181
-0.128284
11.7428
-0.0997987
7.91369
-0.0717465
5.09415
-0.0471014
3.08278
-0.0261834
1.69354
-0.00829163
0.764515
0.186818
-0.0171753
0.288153
-0.0400937
0.919894
-0.0679343
1.87611
-0.100638
3.28956
-0.13738
5.32032
-0.176266
8.14738
-0.20843
11.9748
-0.239496
16.9389
-0.269726
23.0103
-0.268055
29.5248
-0.255499
29.4787
-0.226497
22.7762
-0.191883
16.6834
-0.150193
11.7011
-0.113632
7.87713
-0.082994
5.06352
-0.0556281
3.05541
-0.0320719
1.66998
-0.0114561
0.7439
0.175362
-0.0151881
0.303341
-0.0424043
0.94711
-0.0763808
1.91009
-0.115224
3.3284
-0.158119
5.36322
-0.203585
8.19285
-0.244492
12.0157
-0.282858
16.9773
-0.318404
23.0459
-0.315531
29.5219
-0.294816
29.458
-0.255168
22.7365
-0.211863
16.6401
-0.169826
11.6591
-0.13402
7.84132
-0.0980965
5.02759
-0.0658079
3.02312
-0.0377172
1.64189
-0.0146895
0.720872
0.160672
-0.0170139
0.320355
-0.0495792
0.979675
-0.0885736
1.94908
-0.131268
3.3711
-0.176103
5.40805
-0.226612
8.24336
-0.275703
12.0648
-0.321521
17.0231
-0.360953
23.0853
-0.355523
29.5165
-0.332255
29.4347
-0.29269
22.697
-0.250817
16.5983
-0.199503
11.6078
-0.150988
7.79281
-0.108144
4.98475
-0.0715681
2.98655
-0.0404236
1.61074
-0.0171866
0.697635
0.143486
-0.0231801
0.343535
-0.0627896
1.01928
-0.105376
1.99167
-0.150323
3.41605
-0.200944
5.45867
-0.258164
8.30058
-0.316013
12.1226
-0.36878
17.0759
-0.414868
23.1314
-0.409279
29.5109
-0.380013
29.4054
-0.332584
22.6495
-0.27614
16.5418
-0.221632
11.5533
-0.167835
7.73901
-0.115323
4.93224
-0.0702169
2.94144
-0.035257
1.57578
-0.0156284
0.678006
0.127857
-0.0313062
0.374841
-0.0817791
1.06976
-0.128509
2.0384
-0.178329
3.46587
-0.230462
5.5108
-0.286448
8.35657
-0.348126
12.1843
-0.40885
17.1366
-0.463317
23.1859
-0.457172
29.5047
-0.427418
29.3757
-0.378306
22.6004
-0.319718
16.4832
-0.250802
11.4844
-0.181425
7.66964
-0.122181
4.87299
-0.0696165
2.88887
-0.026474
1.53264
-0.0113509
0.662883
0.116506
-0.0374445
0.412286
-0.0955707
1.12788
-0.145697
2.08853
-0.199861
3.52003
-0.262596
5.57354
-0.33028
8.42425
-0.397185
12.2512
-0.462817
17.2022
-0.522024
23.2451
-0.519376
29.5021
-0.488851
29.3452
-0.429118
22.5407
-0.351407
16.4055
-0.275119
11.4081
-0.202333
7.59685
-0.131541
4.8022
-0.0702684
2.8276
-0.0214058
1.48378
-0.00927437
0.650752
0.107232
-0.0440894
0.456375
-0.111286
1.19508
-0.167901
2.14514
-0.229384
3.58151
-0.294763
5.63892
-0.365185
8.49467
-0.438473
12.3245
-0.515608
17.2794
-0.578325
23.3078
-0.580126
29.5039
-0.550225
29.3153
-0.483854
22.4743
-0.401744
16.3234
-0.310762
11.3171
-0.223824
7.50991
-0.147889
4.72626
-0.0806683
2.76038
-0.0259678
1.42908
-0.0114308
0.636215
0.0958013
-0.0444007
0.500776
-0.113921
1.2646
-0.176314
2.20754
-0.251933
3.65713
-0.334597
5.72158
-0.420798
8.58087
-0.50315
12.4069
-0.584326
17.3606
-0.651504
23.375
-0.655493
29.5079
-0.62318
29.283
-0.543547
22.3947
-0.439713
16.2196
-0.338615
11.216
-0.24906
7.42036
-0.167889
4.64509
-0.0968997
2.68939
-0.0379676
1.37015
-0.0166424
0.614889
0.0791588
-0.0509119
0.551688
-0.130503
1.34419
-0.198685
2.27572
-0.277662
3.73611
-0.370174
5.8141
-0.46804
8.67874
-0.565926
12.5047
-0.661083
17.4557
-0.731991
23.4459
-0.73648
29.5124
-0.692755
29.2392
-0.598375
22.3003
-0.490485
16.1117
-0.378893
11.1044
-0.276437
7.3179
-0.188987
4.55764
-0.115128
2.61553
-0.0511522
1.30617
-0.0220111
0.585748
0.0571477
-0.0488931
0.600581
-0.125732
1.42103
-0.210708
2.36069
-0.315941
3.84134
-0.422576
5.92073
-0.530983
8.78715
-0.642973
12.6167
-0.754863
17.5676
-0.834066
23.5251
-0.833126
29.5114
-0.771026
29.1771
-0.662088
22.1914
-0.535076
15.9847
-0.414066
10.9834
-0.304713
7.20855
-0.202979
4.45591
-0.122599
2.53515
-0.0585911
1.24216
-0.0253439
0.552501
0.0318038
-0.0633894
0.66397
-0.155233
1.51287
-0.244694
2.45015
-0.353782
3.95043
-0.476571
6.04352
-0.606634
8.91721
-0.738564
12.7487
-0.864719
17.6938
-0.945394
23.6058
-0.937053
29.5031
-0.862747
29.1028
-0.73748
22.0661
-0.602818
15.85
-0.466692
10.8473
-0.33394
7.0758
-0.219241
4.34121
-0.128397
2.44431
-0.0649463
1.17871
-0.0282798
0.515835
0.00352405
-0.0643304
0.7283
-0.166924
1.61547
-0.283313
2.56654
-0.414672
4.08179
-0.543758
6.17261
-0.684955
9.05841
-0.832559
12.8963
-0.988807
17.85
-1.07957
23.6965
-1.06344
29.487
-0.973678
29.0131
-0.832362
21.9248
-0.669104
15.6868
-0.512045
10.6902
-0.367255
6.93101
-0.240611
4.21457
-0.131895
2.33559
-0.0671679
1.11398
-0.029812
0.478479
-0.0262879
-0.0813369
0.809637
-0.197164
1.7313
-0.320053
2.68943
-0.462421
4.22416
-0.618565
6.32875
-0.783705
9.22355
-0.954018
13.0666
-1.12659
18.0226
-1.22098
23.7909
-1.20199
29.468
-1.09784
28.9089
-0.934437
21.7614
-0.754503
15.5068
-0.573972
10.5097
-0.404927
6.76196
-0.260446
4.07009
-0.134695
2.20984
-0.0725578
1.05185
-0.0332874
0.439208
-0.0595753
-0.0930712
0.902709
-0.226265
1.86449
-0.372481
2.83565
-0.535895
4.38757
-0.710485
6.50334
-0.900341
9.4134
-1.0918
13.258
-1.29427
18.225
-1.39049
23.8871
-1.36708
29.4446
-1.248
28.7898
-1.05556
21.5689
-0.834013
15.2853
-0.626305
10.302
-0.44288
6.57853
-0.284914
3.91212
-0.144327
2.06925
-0.0774945
0.985015
-0.0369799
0.398694
-0.0965552
-0.106943
1.00965
-0.258411
2.01596
-0.423385
3.00062
-0.600229
4.56441
-0.80489
6.708
-1.0254
9.63391
-1.25795
13.4906
-1.48582
18.4529
-1.5802
23.9815
-1.5515
29.4159
-1.40866
28.647
-1.18147
21.3417
-0.93347
15.0373
-0.691916
10.0604
-0.475157
6.36178
-0.300053
3.73702
-0.151564
1.92077
-0.0883742
0.921826
-0.0429693
0.353289
-0.139525
-0.13119
1.14084
-0.302348
2.18711
-0.492018
3.19029
-0.70882
4.78122
-0.951367
6.95055
-1.21317
9.89571
-1.47645
13.7539
-1.72361
18.7001
-1.81003
24.0679
-1.76848
29.3743
-1.59244
28.4709
-1.31923
21.0685
-1.02588
14.7439
-0.748945
9.78347
-0.507097
6.11993
-0.312142
3.54206
-0.16599
1.77461
-0.103619
0.859455
-0.0511451
0.300815
-0.19067
-0.146371
1.28721
-0.340726
2.38147
-0.567911
3.41748
-0.819087
5.03239
-1.11352
7.24499
-1.43024
10.2124
-1.73891
14.0625
-2.00158
18.9628
-2.07364
24.14
-2.01219
29.3129
-1.78963
28.2484
-1.46611
20.745
-1.12382
14.4016
-0.805491
9.46514
-0.532063
5.8465
-0.321896
3.33189
-0.175699
1.62842
-0.115842
0.799598
-0.0610938
0.246066
-0.251764
-0.193648
1.48086
-0.438747
2.62657
-0.705556
3.68429
-1.01217
5.339
-1.36693
7.59975
-1.72754
10.573
-2.07831
14.4133
-2.34098
19.2254
-2.39021
24.1892
-2.29621
29.2189
-2.00511
27.9573
-1.61473
20.3546
-1.21915
14.0061
-0.861929
9.10793
-0.563322
5.54789
-0.333648
3.10222
-0.20521
1.49998
-0.148798
0.743186
-0.0769541
0.174222
-0.328718
-0.228023
1.70888
-0.482602
2.88115
-0.843528
4.04521
-1.26148
5.75696
-1.6885
8.02677
-2.09325
10.9778
-2.47817
14.7982
-2.7206
19.4678
-2.73853
24.2071
-2.60669
29.087
-2.24287
27.5935
-1.76967
19.8814
-1.31426
13.5506
-0.922722
8.71639
-0.601484
5.22666
-0.357407
2.85814
-0.245491
1.38806
-0.200923
0.698618
-0.108213
0.0815121
-0.43693
-0.367967
2.07685
-0.802931
3.31611
-1.23467
4.47696
-1.66061
6.18289
-2.10687
8.47303
-2.5488
11.4197
-2.96285
15.2123
-3.16787
19.6729
-3.15279
24.1921
-2.95146
28.8857
-2.48266
27.1247
-1.93899
19.3378
-1.4235
13.0352
-0.969018
8.26191
-0.607056
4.86469
-0.338036
2.58912
-0.221463
1.27149
-0.174173
0.651327
-0.09088
-0.00178049
-0.52781
-0.282123
2.35897
-0.634541
3.66853
-1.00549
4.8479
-1.44242
6.61983
-1.91669
8.94729
-2.41376
11.9168
-2.91087
15.7094
-3.20583
19.9678
-3.34712
24.3334
-3.27576
28.8143
-2.84254
26.6915
-2.23503
18.7303
-1.60523
12.4054
-1.03892
7.6956
-0.592089
4.41786
-0.241388
2.23842
-0.0968999
1.127
-0.0324192
0.586846
-0.0455825
0.0113828
-0.573393
-0.163079
2.52205
-0.409223
3.91467
-0.702504
5.14118
-1.02175
6.93908
-1.36394
9.28948
-1.71701
12.2698
-2.07286
16.0652
-2.25943
20.1544
-2.33198
24.4059
-2.20818
28.6906
-1.80574
26.289
-1.28745
18.212
-0.792024
11.9099
-0.367939
7.27152
-0.0746349
4.12455
0.0821053
2.08168
0.131402
1.07771
0.117072
0.601176
0.0488509
0.0796038
-0.524542
-0.107897
2.62995
-0.253195
4.05997
-0.456457
5.34445
-0.689607
7.17223
-0.943075
9.54295
-1.18888
12.5156
-1.4141
16.2905
-1.52744
20.2677
-1.54387
24.4223
-1.38197
28.5287
-1.02775
25.9348
-0.622718
17.8069
-0.268331
11.5555
-0.011312
7.0145
0.147794
3.96545
0.179868
2.04961
0.167328
1.09025
0.13316
0.635344
0.0712613
0.141502
-0.453281
-0.0813363
2.71129
-0.203781
4.18242
-0.352574
5.49324
-0.503213
7.32287
-0.654603
9.69434
-0.803974
12.665
-0.933021
16.4195
-0.992775
20.3275
-0.964727
24.3943
-0.775666
28.3396
-0.46589
25.625
-0.165894
17.5069
0.102653
11.287
0.280286
6.83687
0.381372
3.86436
0.37496
2.05602
0.30746
1.15775
0.199169
0.743635
0.0768588
0.263813
-0.376422
-0.0321481
2.74344
-0.110628
4.2609
-0.206429
5.58904
-0.310802
7.42724
-0.416107
9.79964
-0.519556
12.7685
-0.5925
16.4925
-0.611978
20.347
-0.540054
24.3224
-0.336143
28.1357
-0.0593326
25.3482
0.174959
17.2726
0.342109
11.1198
0.411656
6.76732
0.428347
3.84767
0.363209
2.12116
0.254986
1.26597
0.160887
0.837734
0.0779745
0.346725
-0.298447
-0.0108669
2.7543
-0.116613
4.36664
-0.201122
5.67355
-0.238705
7.46482
-0.281669
9.84261
-0.327998
12.8148
-0.356013
16.5205
-0.337401
20.3284
-0.235455
24.2204
-0.0105619
27.9108
0.210048
25.1276
0.389594
17.0931
0.490263
11.0192
0.532914
6.72467
0.503264
3.87732
0.413656
2.21077
0.302583
1.37704
0.193449
0.946868
0.0856995
0.454474
-0.212748
0.00955419
2.74475
-0.0369674
4.41316
-0.0782875
5.71487
-0.11493
7.50147
-0.157174
9.88485
-0.186053
12.8437
-0.190563
16.525
-0.146002
20.2838
-0.0334496
24.1079
0.146339
27.731
0.36614
24.9078
0.507722
16.9515
0.576384
10.9505
0.577965
6.72309
0.542425
3.91286
0.456152
2.29704
0.322619
1.51057
0.195887
1.0736
0.0635062
0.586855
-0.149242
0.00430871
2.74044
-0.0544832
4.47196
-0.105577
5.76596
-0.105761
7.50165
-0.0993152
9.8784
-0.0942855
12.8386
-0.0747354
16.5054
-0.0168252
20.2259
0.0826701
24.0084
0.251028
27.5626
0.447208
24.7116
0.582027
16.8167
0.644794
10.8877
0.651684
6.7162
0.566729
3.99782
0.423958
2.43981
0.283413
1.65112
0.154572
1.20244
0.0520322
0.689395
-0.0972094
0.0355317
2.70491
0.0172351
4.49025
0.0090772
5.77412
-0.0340446
7.54477
-0.0462043
9.89056
-0.0363524
12.8288
0.00414495
16.4649
0.0501489
20.1799
0.147762
23.9107
0.312794
27.3976
0.494422
24.53
0.618231
16.6929
0.660047
10.8459
0.631824
6.74442
0.564839
4.0648
0.443548
2.5611
0.287939
1.80673
0.147008
1.34337
0.0406201
0.795783
-0.0565894
0.0218045
2.6831
-0.00439746
4.51645
-0.016313
5.78604
-0.0273535
7.55581
-0.0268108
9.89002
-0.000909802
12.8029
0.0315192
16.4325
0.0834177
20.128
0.18217
23.812
0.342036
27.2377
0.510774
24.3613
0.621782
16.5819
0.663639
10.8041
0.648321
6.75974
0.536317
4.17681
0.388896
2.70852
0.250962
1.94466
0.123995
1.47034
0.0225073
0.897271
-0.0340821
0.0472023
2.6359
0.0660599
4.4976
0.0445435
5.80755
0.0148455
7.58551
-0.00344551
9.90831
0.012885
12.7866
0.0447307
16.4007
0.0988753
20.0738
0.196128
23.7147
0.346853
27.087
0.502448
24.2057
0.598142
16.4862
0.625428
10.7768
0.594367
6.7908
0.514972
4.2562
0.377008
2.84649
0.214054
2.10762
0.0822972
1.6021
0.00625727
0.973311
-0.0278249
0.0362877
2.59961
0.0180074
4.51588
0.0167855
5.80877
0.00582148
7.59647
0.00385201
9.91028
0.0185568
12.7719
0.0520941
16.3671
0.105974
20.02
0.197547
23.6232
0.334582
26.95
0.474602
24.0656
0.552455
16.4083
0.578708
10.7505
0.555861
6.81365
0.442779
4.36928
0.305625
2.98364
0.188135
2.22511
0.069842
1.72039
0.000948281
1.0422
-0.0268766
0.0396834
2.55993
0.0596426
4.49592
0.0435571
5.82486
0.0324873
7.60754
0.0145327
9.92824
0.0218001
12.7646
0.0539416
16.335
0.106132
19.9678
0.189915
23.5394
0.311241
26.8287
0.432919
23.944
0.493518
16.3477
0.510227
10.7338
0.480869
6.84301
0.404679
4.44547
0.268322
3.12
0.117221
2.37621
0.0171152
1.82049
-0.0116999
1.07102
-0.0385764
0.0304539
2.52948
0.0140859
4.51229
0.0133535
5.82559
0.0120768
7.60882
0.0169372
9.92338
0.0262162
12.7553
0.0555602
16.3056
0.103321
19.92
0.177802
23.4649
0.282455
26.724
0.3816
23.8448
0.425125
16.3042
0.4365
10.7224
0.405961
6.87354
0.30743
4.544
0.193332
3.23409
0.0973143
2.47223
0.00307181
1.91474
-0.0219084
1.096
-0.0604849
0.0290441
2.50043
0.0369995
4.50433
0.0264322
5.83616
0.0221059
7.61315
0.0186095
9.92687
0.0276015
12.7463
0.0543305
16.2789
0.0974375
19.8769
0.16303
23.3993
0.251106
26.6359
0.327079
23.7688
0.35591
16.2754
0.360724
10.7176
0.330248
6.90402
0.253289
4.62096
0.133767
3.35362
0.00462625
2.60137
-0.0658037
1.98517
-0.0369091
1.06711
-0.097394
0.0173014
2.48313
0.000592958
4.52104
0.000218427
5.83653
0.00205512
7.61131
0.0140886
9.91484
0.0280469
12.7324
0.0532571
16.2537
0.0917329
19.8384
0.148542
23.3425
0.219908
26.5646
0.275067
23.7137
0.288484
16.262
0.283193
10.7229
0.236912
6.9503
0.142055
4.71582
0.0467808
3.44889
-0.0262818
2.67443
-0.0855229
2.04441
-0.0484055
1.02999
-0.145799
0.0152748
2.46786
0.0126885
4.52363
0.0104594
5.83876
0.00284953
7.61892
0.010681
9.90701
0.023931
12.7191
0.0490315
16.2286
0.0855743
19.8019
0.134443
23.2936
0.189626
26.5094
0.227212
23.6761
0.225336
16.2638
0.211236
10.737
0.15799
7.00355
0.0771997
4.79661
-0.0163544
3.54244
-0.102124
2.7602
-0.12911
2.07139
-0.0663752
0.967253
-0.212175
0.00492365
2.46293
-0.0108931
4.53944
-0.0140084
5.84188
-0.00955199
7.61446
0.00527769
9.89218
0.0194112
12.705
0.0447219
16.2033
0.0804294
19.7662
0.121176
23.2529
0.161735
26.4688
0.184895
23.6529
0.168461
16.2803
0.139466
10.766
0.0640827
7.07893
-0.0388977
4.89959
-0.114146
3.61769
-0.14359
2.78964
-0.137623
2.06543
-0.0673169
0.896946
-0.279492
0.00303497
2.4599
-0.00416325
4.54664
-0.00368034
5.84139
-0.0096806
7.62046
0.000254743
9.88224
0.0133326
12.6919
0.0381891
16.1784
0.0732282
19.7311
0.107796
23.2183
0.136328
26.4403
0.148006
23.6413
0.117545
16.3107
0.0722999
10.8113
-0.0110966
7.16233
-0.106242
4.99474
-0.188528
3.69998
-0.220185
2.8213
-0.142485
1.98773
-0.00040322
0.754864
-0.279895
-0.00485716
2.46475
-0.019907
4.56169
-0.0214353
5.84292
-0.0192045
7.61823
-0.00590627
9.86894
0.00891946
12.6771
0.0321448
16.1552
0.0646665
19.6986
0.0939508
23.189
0.114999
26.4192
0.117045
23.6392
0.0732556
16.3545
0.00382732
10.8807
-0.0906175
7.25677
-0.219205
5.12332
-0.306216
3.78699
-0.284914
2.8
-0.101418
1.80423
0.169967
0.483479
-0.109928
-0.00709017
2.47184
-0.0125518
4.56715
-0.0144157
5.84479
-0.0180127
7.62183
-0.00994862
9.86088
0.00335907
12.6638
0.0245514
16.134
0.0552191
19.6679
0.0813222
23.1629
0.10006
26.4005
0.0934317
23.6458
0.034383
16.4136
-0.0471658
10.9622
-0.172688
7.38229
-0.306962
5.2576
-0.416339
3.89637
-0.448659
2.83232
-0.294862
1.65043
-0.393415
0.582032
0.615139
-1.11848
-0.0122866
2.48413
-0.0223042
4.57717
-0.0282686
5.85075
-0.0233295
7.61689
-0.0138834
9.85143
-0.00252854
12.6524
0.018403
16.1131
0.0453932
19.641
0.0685922
23.1397
0.083643
26.3854
0.0680837
23.6614
-0.0065163
16.4882
-0.10831
11.064
-0.270881
7.54486
-0.482231
5.46895
-0.6898
4.10394
-0.764983
2.9075
-0.732018
1.61747
-1.23898
1.089
1.20511
-1.82895
-0.0137096
2.49784
-0.0147028
4.57816
-0.0214009
5.85745
-0.0192932
7.61478
-0.0142909
9.84643
-0.00652897
12.6447
0.0130144
16.0935
0.0365757
19.6174
0.0578108
23.1185
0.0685488
26.3747
0.0456933
23.6843
-0.0389123
16.5728
-0.172547
11.1977
-0.372881
7.7452
-0.603908
5.69997
-0.811934
4.31196
-0.850392
2.94596
-1.1154
1.88247
-1.63434
1.60794
1.5102
-1.93942
-0.0179387
2.51578
-0.0213438
4.58157
-0.0308255
5.86693
-0.0218484
7.60581
-0.0156223
9.84021
-0.00886634
12.6379
0.0105257
16.0741
0.029837
19.5981
0.0488318
23.0995
0.0554804
26.3681
0.0248231
23.7149
-0.0733848
16.671
-0.230628
11.3549
-0.470603
7.98517
-0.772804
6.00217
-1.03109
4.57025
-1.16276
3.07763
-1.50641
2.22612
-1.85644
1.95797
1.68552
-2.03176
-0.0163533
2.53213
-0.015077
4.58029
-0.0218007
5.87365
-0.0177785
7.60178
-0.0137797
9.83621
-0.00951623
12.6336
0.00782528
16.0568
0.0253318
19.5806
0.0415931
23.0832
0.0438009
26.3659
0.00403313
23.7547
-0.105666
16.7807
-0.286824
11.5361
-0.576334
8.27468
-0.877964
6.3038
-1.04132
4.73361
-1.20801
3.24431
-1.58559
2.6037
-1.91028
2.28267
1.88074
-2.10551
-0.015086
2.54722
-0.0216667
4.58687
-0.0271528
5.87914
-0.0207897
7.59542
-0.0137056
9.82912
-0.00882922
12.6288
0.00733432
16.0406
0.0233466
19.5646
0.0372089
23.0694
0.0346063
26.3685
-0.0152085
23.8045
-0.133699
16.8992
-0.337379
11.7398
-0.643797
8.5811
-0.954298
6.61431
-1.20268
4.98199
-1.55538
3.59701
-1.89671
2.94503
-2.13179
2.51775
2.00647
-2.25752
-0.0122816
2.5595
-0.0162096
4.5908
-0.0192741
5.88221
-0.0186105
7.59476
-0.0131378
9.82365
-0.00891687
12.6245
0.00641796
16.0253
0.0219045
19.5491
0.0328658
23.0584
0.0252117
26.3761
-0.0334962
23.8632
-0.159177
17.0249
-0.380833
11.9614
-0.707499
8.90777
-1.0263
6.93311
-1.2322
5.18789
-1.52217
3.88697
-1.86023
3.2831
-2.08791
2.74543
2.19463
-2.27608
-0.00946422
2.56896
-0.0224352
4.60377
-0.0268887
5.88666
-0.0230741
7.59094
-0.0159743
9.81655
-0.0107212
12.6193
0.00494463
16.0096
0.0188866
19.5351
0.0274468
23.0499
0.0163339
26.3872
-0.0496002
23.9291
-0.180252
17.1555
-0.408625
12.1898
-0.733756
9.2329
-1.0511
7.25045
-1.31507
5.45187
-1.68327
4.25517
-2.15122
3.75104
-2.49677
3.09098
2.47282
-2.77496
-0.00569459
2.57466
-0.0121423
4.61022
-0.0167355
5.89125
-0.0198641
7.59407
-0.0167081
9.81339
-0.013162
12.6157
0.00276362
15.9937
0.0157946
19.5221
0.0211701
23.0445
0.00812811
26.4003
-0.0645605
24.0018
-0.197226
17.2882
-0.424549
12.4171
-0.740862
9.54921
-1.07786
7.58745
-1.42282
5.79682
-1.76132
4.59367
-2.17923
4.16895
-2.62846
3.54022
2.66459
-2.82023
-0.00541839
2.58008
-0.0185319
4.62333
-0.0259946
5.89871
-0.0248192
7.5929
-0.0208787
9.80945
-0.0171498
12.612
-0.00197605
15.9785
0.0121819
19.5079
0.0155219
23.0411
-0.0029038
26.4187
-0.0753627
24.0743
-0.210755
17.4236
-0.444329
12.6507
-0.745356
9.85024
-1.03815
7.88024
-1.39005
6.14873
-1.91223
5.11585
-2.26421
4.52093
-2.70161
3.97761
3.31579
-3.35281
-0.00034216
2.58042
-0.00704546
4.63004
-0.0139914
5.90566
-0.0210963
7.6
-0.0219086
9.81027
-0.0207182
12.6108
-0.00730045
15.9651
0.00710618
19.4935
0.00975465
23.0385
-0.0112896
26.4397
-0.0777652
24.1408
-0.205934
17.5517
-0.430266
12.875
-0.699897
10.1199
-0.939959
8.1203
-1.24002
6.44879
-1.61831
5.49414
-1.79397
4.69659
-1.30415
3.48779
2.01164
-0.00411342
2.58453
-0.0160406
4.64196
-0.0258479
5.91547
-0.0266412
7.60079
-0.0254249
9.80905
-0.0235361
12.6089
-0.00920082
15.9508
0.00506843
19.4793
0.00865457
23.0349
-0.0123306
26.4607
-0.0768173
24.2053
-0.204962
17.6799
-0.432316
13.1024
-0.685373
10.3729
-0.858727
8.29366
-1.00674
6.59681
-1.02122
5.50862
-0.914887
4.59025
-0.635683
3.20859
1.37596
0.00306308
2.58147
-0.00423642
4.64926
-0.0112925
5.92252
-0.021712
7.61121
-0.0248257
9.81216
-0.0254963
12.6096
-0.0112484
15.9365
0.00446843
19.4636
0.0100311
23.0293
-0.0089776
26.4797
-0.0677006
24.264
-0.190665
17.8028
-0.407967
13.3197
-0.621673
10.5866
-0.742242
8.41423
-0.826165
6.68073
-0.901342
5.5838
-0.89627
4.58518
-0.757596
3.06991
0.618362
-0.00330242
2.58477
-0.0154182
4.66138
-0.0274676
5.93457
-0.0281292
7.61188
-0.0286637
9.8127
-0.0285913
12.6095
-0.0128591
15.9208
0.00628993
19.4444
0.0151858
23.0204
0.0027604
26.4922
-0.0449951
24.3117
-0.158687
17.9165
-0.354844
13.5158
-0.522011
10.7538
-0.639582
8.5318
-0.754002
6.79515
-0.842906
5.67271
-0.80117
4.54345
-0.384788
2.65353
0.233575
0.00452877
2.58024
-0.00350244
4.66941
-0.00908064
5.94015
-0.0213694
7.62416
-0.0257088
9.81704
-0.0274564
12.6113
-0.0110227
15.9044
0.0124204
19.421
0.0236543
23.0092
0.0196097
26.4962
-0.015467
24.3468
-0.110796
18.0119
-0.278692
13.6837
-0.447539
10.9226
-0.583463
8.66772
-0.690098
6.90179
-0.714422
5.69703
-0.547817
4.37684
-0.158055
2.26377
0.0755201
-0.00152833
2.58177
-0.0136064
4.68149
-0.0294225
5.95597
-0.0262437
7.62099
-0.0270948
9.81789
-0.0258522
12.61
-0.00598225
15.8845
0.0203465
19.3946
0.0381655
22.9914
0.042927
26.4914
0.0196423
24.3701
-0.0576581
18.0892
-0.215584
13.8416
-0.381609
11.0887
-0.492039
8.77815
-0.554316
6.96406
-0.528885
5.6716
-0.38973
4.23769
-0.143091
2.01713
-0.0675707
0.00895221
2.57282
-0.000548172
4.69099
-0.00147683
5.9569
-0.0144983
7.63401
-0.0195587
9.82295
-0.0169293
12.6074
0.00821591
15.8594
0.0352791
19.3676
0.0592313
22.9674
0.0753787
26.4753
0.0710786
24.3744
-0.00456733
18.1648
-0.148982
13.9861
-0.292827
11.2325
-0.370783
8.85611
-0.401494
6.99477
-0.382939
5.65304
-0.279324
4.13407
-0.0657348
1.80354
-0.133306
9.83774e-05
2.57272
-0.0077659
4.69885
-0.0266097
5.97574
-0.0152345
7.62263
-0.0140302
9.82174
-0.00521774
12.5986
0.02261
15.8315
0.0570466
19.3331
0.0901795
22.9343
0.119111
26.4464
0.137311
24.3562
0.0707821
18.2313
-0.0698688
14.1267
-0.17631
11.339
-0.232785
8.91258
-0.250904
7.01289
-0.230777
5.63292
-0.143145
4.04644
0.0206881
1.6397
-0.112617
0.0246243
2.5481
0.0113673
4.71211
0.0132244
5.97388
0.00173361
7.63412
0.00607542
9.8174
0.0162451
12.5884
0.0453491
15.8024
0.086595
19.2919
0.130629
22.8903
0.174667
26.4023
0.213155
24.3177
0.154334
18.2902
0.0268975
14.2541
-0.0620061
11.4279
-0.0883611
8.93894
-0.106561
7.03109
-0.0973022
5.62366
-0.0420624
3.9912
0.0575312
1.54011
-0.0550862
0.00185302
2.54624
0.00829151
4.70567
-5.14138e-05
5.98223
0.00760187
7.62647
0.0248769
9.80013
0.0402027
12.5731
0.0780746
15.7646
0.129205
19.2408
0.185438
22.834
0.246321
26.3414
0.299326
24.2647
0.24743
18.3421
0.13732
14.3643
0.0572985
11.5079
0.0236878
8.97255
0.028528
7.02625
0.023353
5.62883
0.0511637
3.96339
0.0675974
1.52368
0.0125113
0.0523214
2.49392
0.0388448
4.71915
0.0450627
5.97601
0.0409329
7.6306
0.0549551
9.78611
0.0757549
12.5523
0.123557
15.7167
0.184296
19.18
0.253123
22.7652
0.332035
26.2625
0.396699
24.2
0.351524
18.3872
0.255412
14.4604
0.188241
11.5751
0.152537
9.00825
0.130377
7.04841
0.144423
5.61479
0.154474
3.95334
0.0821479
1.596
0.0946592
0.0154202
2.4785
0.0406212
4.69395
0.05255
5.96408
0.0667002
7.61645
0.0967973
9.75601
0.128382
12.5207
0.187939
15.6572
0.260774
19.1072
0.342222
22.6838
0.436779
26.168
0.508517
24.1283
0.465346
18.4304
0.376788
14.5489
0.317165
11.6347
0.279366
9.04605
0.265687
7.06209
0.279519
5.60095
0.267123
3.96573
0.107689
1.75544
0.202348
0.0869622
2.39154
0.0995591
4.68135
0.112443
5.95119
0.132611
7.59628
0.158231
9.73039
0.200238
12.4787
0.271778
15.5857
0.356788
19.0222
0.451125
22.5894
0.559029
26.0601
0.634859
24.0525
0.590063
18.4752
0.507871
14.6311
0.454084
11.6885
0.423862
9.07627
0.41404
7.07191
0.413941
5.60105
0.357478
4.0222
0.148424
1.96449
0.350772
0.0627997
2.32874
0.125336
4.61881
0.159645
5.91689
0.203394
7.55253
0.246525
9.68726
0.306933
12.4183
0.389907
15.5027
0.488103
18.924
0.593141
22.4844
0.711056
25.9422
0.779802
23.9837
0.725908
18.5291
0.646245
14.7108
0.589169
11.7455
0.545499
9.11994
0.509958
7.10745
0.48484
5.62617
0.414177
4.09286
0.200976
2.17769
0.551748
0.170998
2.15774
0.230543
4.55927
0.283098
5.86433
0.32769
7.50794
0.376537
9.63841
0.447667
12.3472
0.543389
15.407
0.652459
18.8149
0.76581
22.371
0.891
25.817
0.947088
23.9276
0.879289
18.5969
0.78443
14.8056
0.700376
11.8296
0.625539
9.19478
0.569564
7.16343
0.529119
5.66662
0.448109
4.17387
0.228129
2.39767
0.779877
0.210888
1.94685
0.357705
4.41245
0.420508
5.80153
0.479353
7.4491
0.551195
9.56657
0.638826
12.2595
0.74872
15.2971
0.870818
18.6928
0.992409
22.2495
1.11871
25.6907
1.14239
23.904
1.03547
18.7038
0.90649
14.9346
0.790595
11.9455
0.688406
9.29697
0.611714
7.24012
0.55026
5.72807
0.450865
4.27326
0.22677
2.62177
1.00665
0.404601
1.54225
0.598256
4.2188
0.685366
5.71442
0.740355
7.39411
0.807513
9.49941
0.899782
12.1673
1.01564
15.1812
1.14965
18.5588
1.27809
22.121
1.39229
25.5765
1.37317
23.9231
1.2305
18.8465
1.07046
15.0947
0.925523
12.0904
0.792578
9.42991
0.684126
7.34857
0.588259
5.82394
0.459027
4.4025
0.226749
2.85405
1.2334
0.764262
0.777991
0.98325
3.99981
0.997973
5.6997
1.04637
7.34571
1.13123
9.41455
1.23762
12.0609
1.36204
15.0568
1.50856
18.4123
1.64658
21.983
1.74407
25.479
1.68279
23.9843
1.50973
19.0195
1.32403
15.2804
1.13684
12.2776
0.935496
9.63126
0.752197
7.53187
0.594496
5.98164
0.428011
4.56898
0.202001
3.08006
1.4354
0.723245
0.054746
1.4287
3.29435
1.58579
5.54261
1.58687
7.34463
1.60663
9.39479
1.68977
11.9777
1.81531
14.9313
1.97484
18.2527
2.1218
21.836
2.20193
25.3988
2.12092
24.0654
1.93005
19.2104
1.71522
15.4952
1.47354
12.5193
1.19312
9.91167
0.933251
7.79174
0.708932
6.20596
0.485342
4.79257
0.219739
3.34566
1.65514
0.561365
-0.506619
1.71596
2.13976
2.09672
5.16184
2.13609
7.30526
2.16904
9.36183
2.26466
11.8821
2.40064
14.7953
2.57646
18.0769
2.75155
21.6609
2.8533
25.2971
2.77987
24.1388
2.56779
19.4225
2.29623
15.7668
1.99632
12.8192
1.66365
10.2443
1.31717
8.13823
0.974293
6.54884
0.638167
5.1287
0.287372
3.69645
1.94251
0.418721
-0.925341
1.81822
0.740264
2.24527
4.73479
2.26346
7.28708
2.23267
9.39262
2.2472
11.8676
2.27097
14.7715
2.31208
18.0358
2.34892
21.6241
2.31167
25.3343
2.1422
24.3083
1.91219
19.6525
1.66271
16.0162
1.38984
13.0921
1.1219
10.5123
0.889901
8.37022
0.677435
6.7613
0.458409
5.34772
0.213107
3.94176
2.15562
0.265289
-1.19063
0.948312
0.0572417
1.39169
4.29141
1.51344
7.16532
1.47469
9.43138
1.47208
11.8702
1.53357
14.71
1.62726
17.9421
1.70953
21.5418
1.73352
25.3104
1.61865
24.4231
1.44405
19.8271
1.25733
16.203
1.06625
13.2832
0.851959
10.7266
0.64996
8.57222
0.475275
6.93599
0.307938
5.51506
0.138602
4.11109
2.29422
0.222914
-1.41354
-0.0191891
0.299345
0.242688
4.02954
0.41224
6.99577
0.51957
9.32405
0.645413
11.7444
0.796699
14.5587
0.9687
17.7701
1.12088
21.3897
1.21817
25.2131
1.16925
24.4721
1.06076
19.9356
0.929082
16.3346
0.785954
13.4263
0.626315
10.8862
0.474629
8.72391
0.343652
7.06696
0.219495
5.63922
0.0908096
4.23978
2.38503
-0.198937
-1.21461
-0.752295
0.852702
-0.91546
4.1927
-0.714982
6.79529
-0.420913
9.02998
-0.136928
11.4604
0.124776
14.297
0.363489
17.5314
0.590469
21.1627
0.758601
25.0449
0.788287
24.4424
0.742777
19.9811
0.66213
16.4153
0.56626
13.5222
0.453415
10.999
0.341155
8.83616
0.240474
7.16765
0.143487
5.7362
0.0480378
4.33523
2.43306
-0.427597
-0.78701
-0.973705
1.39881
-1.20119
4.42018
-1.14996
6.74406
-0.979471
8.8595
-0.718487
11.1994
-0.410603
13.9891
-0.115671
17.2365
0.156113
20.8909
0.386397
24.8146
0.481542
24.3472
0.48924
19.9734
0.451397
16.4531
0.39173
13.5818
0.311539
11.0792
0.229685
8.91802
0.155505
7.24183
0.0812755
5.81043
0.0120437
4.40446
2.44511
-0.472235
-0.314774
-0.955475
1.88205
-1.09978
4.56449
-1.14719
6.79147
-1.11205
8.82436
-0.971764
11.0591
-0.735985
13.7533
-0.45278
16.9533
-0.145411
20.5835
0.111188
24.558
0.244784
24.2136
0.289462
19.9287
0.282567
16.46
0.249909
13.6145
0.197338
11.1318
0.139105
8.97625
0.0828116
7.29812
0.0272028
5.86604
-0.0190201
4.45068
2.42609
-0.443319
0.128545
-0.803829
2.24256
-0.955563
4.71622
-0.990464
6.82637
-0.994667
8.82856
-0.962754
11.0272
-0.839108
13.6297
-0.61748
16.7316
-0.336738
20.3028
-0.0728532
24.2942
0.0749734
24.0658
0.137538
19.8661
0.153219
16.4443
0.138832
13.6289
0.106399
11.1642
0.0639176
9.01873
0.0197706
7.34227
-0.0214308
5.90724
-0.0481952
4.47745
2.37789
-0.329622
0.458167
-0.632634
2.54557
-0.792609
4.8762
-0.840817
6.87458
-0.848922
8.83667
-0.832725
11.011
-0.779837
13.5768
-0.635865
16.5877
-0.412835
20.0798
-0.185202
24.0665
-0.0357313
23.9163
0.0251787