/*--------------------------------*- C++ -*----------------------------------*\
| =========                 |                                                 |
| \\      /  F ield         | OpenFOAM: The Open Source CFD Toolbox           |
|  \\    /   O peration     | Version:  2412                                  |
|   \\  /    A nd           | Website:  www.openfoam.com                      |
|    \\/     M anipulation  |                                                 |
\*---------------------------------------------------------------------------*/
FoamFile
{
    version     2.0;
    format      ascii;
    arch        "LSB;label=32;scalar=64";
    class       volVectorField;
    location    "8.5";
    object      U;
}
// * * * * * * * * * * * * * * * * * * * * * * * * * * * * * * * * * * * * * //

dimensions      [0 1 -1 0 0 0 0];

internalField   nonuniform List<vector> 
2200
(
(0.380817 0.000293513 0)
(1.19487 0.00135485 0)
(2.12306 0.00224137 0)
(3.16898 0.00329783 0)
(4.32458 0.00425348 0)
(5.57058 0.00551317 0)
(6.86249 0.00687899 0)
(8.11906 0.00770249 0)
(9.20539 0.00812488 0)
(9.90062 0.00868609 0)
(9.90062 0.00900026 0)
(9.20625 0.00887359 0)
(8.12163 0.00815482 0)
(6.86533 0.00680734 0)
(5.57302 0.00598804 0)
(4.32534 0.00429436 0)
(3.16788 0.00350767 0)
(2.12205 0.00266141 0)
(1.1928 0.0017579 0)
(0.37733 0.00109524 0)
(0.385229 0.000856748 0)
(1.19911 0.0028366 0)
(2.12744 0.00566579 0)
(3.17266 0.00896066 0)
(4.33105 0.0126615 0)
(5.57779 0.0158978 0)
(6.86978 0.0189406 0)
(8.12622 0.0225814 0)
(9.21068 0.0265589 0)
(9.90132 0.0273585 0)
(9.9005 0.0262999 0)
(9.20558 0.0239566 0)
(8.1179 0.021388 0)
(6.85872 0.0187637 0)
(5.56581 0.0156599 0)
(4.31956 0.0131056 0)
(3.16335 0.00980827 0)
(2.11566 0.00699717 0)
(1.18371 0.00421545 0)
(0.370709 0.00110015 0)
(0.394663 0.00176712 0)
(1.20947 0.00467912 0)
(2.13785 0.00942941 0)
(3.18341 0.0146747 0)
(4.33707 0.020707 0)
(5.58173 0.027026 0)
(6.87126 0.0321874 0)
(8.12522 0.037324 0)
(9.2118 0.041154 0)
(9.90008 0.0439629 0)
(9.89888 0.0429651 0)
(9.20047 0.0411881 0)
(8.11211 0.0372174 0)
(6.85486 0.0320095 0)
(5.5608 0.0257463 0)
(4.31178 0.0203868 0)
(3.1508 0.0149985 0)
(2.10253 0.00957015 0)
(1.17148 0.00492315 0)
(0.362246 0.00052024 0)
(0.407146 0.00263265 0)
(1.22323 0.00684828 0)
(2.15212 0.0139787 0)
(3.19634 0.020735 0)
(4.35407 0.0289124 0)
(5.59763 0.0364198 0)
(6.88594 0.0442977 0)
(8.13872 0.0513043 0)
(9.22165 0.0595402 0)
(9.90078 0.0620165 0)
(9.89594 0.0608473 0)
(9.19572 0.0557161 0)
(8.10414 0.0492707 0)
(6.84014 0.0419178 0)
(5.54447 0.0354512 0)
(4.29527 0.0264706 0)
(3.13851 0.0184099 0)
(2.08947 0.0116448 0)
(1.1572 0.00548621 0)
(0.352669 0.000301534 0)
(0.428217 0.00360697 0)
(1.24768 0.0092579 0)
(2.17436 0.0182294 0)
(3.21704 0.0278403 0)
(4.36757 0.0371733 0)
(5.60843 0.0468332 0)
(6.89348 0.0567929 0)
(8.14219 0.0663456 0)
(9.22676 0.073883 0)
(9.89888 0.0785719 0)
(9.89393 0.0761623 0)
(9.18831 0.0725021 0)
(8.09309 0.0645254 0)
(6.83189 0.0549273 0)
(5.53393 0.0421825 0)
(4.28261 0.0321996 0)
(3.11888 0.0229157 0)
(2.06871 0.0135977 0)
(1.13731 0.00637145 0)
(0.342168 0.000150634 0)
(0.454184 0.0043822 0)
(1.2768 0.0115904 0)
(2.20498 0.0242749 0)
(3.24659 0.0348833 0)
(4.39857 0.0471102 0)
(5.63564 0.0587438 0)
(6.91635 0.0698892 0)
(8.16125 0.0805665 0)
(9.24128 0.0928254 0)
(9.90053 0.0971887 0)
(9.88921 0.0949446 0)
(9.17929 0.0866427 0)
(8.08105 0.0759196 0)
(6.81072 0.0626736 0)
(5.51061 0.051664 0)
(4.25854 0.0386321 0)
(3.09731 0.0262708 0)
(2.04434 0.0158256 0)
(1.11491 0.00752282 0)
(0.330723 0.000954625 0)
(0.483645 0.00351361 0)
(1.30974 0.0125566 0)
(2.23377 0.024367 0)
(3.2737 0.0384604 0)
(4.4185 0.0530779 0)
(5.65293 0.068364 0)
(6.92986 0.0825463 0)
(8.16974 0.0958272 0)
(9.25002 0.107835 0)
(9.89848 0.113573 0)
(9.88664 0.109881 0)
(9.17034 0.103243 0)
(8.06558 0.0907199 0)
(6.79807 0.0768166 0)
(5.49533 0.0581277 0)
(4.23789 0.0430074 0)
(3.07173 0.0306895 0)
(2.01958 0.0191776 0)
(1.08697 0.0090059 0)
(0.313641 0.00256457 0)
(0.509499 0.00195299 0)
(1.33861 0.0130589 0)
(2.26738 0.0259116 0)
(3.3075 0.0422911 0)
(4.45994 0.0620267 0)
(5.6912 0.0800605 0)
(6.96297 0.0967523 0)
(8.19622 0.112521 0)
(9.27033 0.127661 0)
(9.90118 0.133979 0)
(9.88096 0.129548 0)
(9.15727 0.118261 0)
(8.04918 0.102354 0)
(6.77024 0.0829729 0)
(5.46408 0.0674267 0)
(4.20801 0.0501348 0)
(3.04286 0.0358734 0)
(1.98666 0.0238768 0)
(1.05322 0.00991743 0)
(0.289645 0.00433016 0)
(0.54117 0.00173324 0)
(1.39466 0.0158482 0)
(2.32241 0.028379 0)
(3.35586 0.0486285 0)
(4.48851 0.0698748 0)
(5.71478 0.0900634 0)
(6.982 0.109377 0)
(8.21091 0.127397 0)
(9.28439 0.145516 0)
(9.90039 0.151418 0)
(9.87696 0.145962 0)
(9.14604 0.134373 0)
(8.02914 0.117763 0)
(6.7526 0.0997053 0)
(5.44208 0.0747234 0)
(4.17711 0.0561014 0)
(3.00466 0.0402995 0)
(1.94994 0.0260223 0)
(1.019 0.0100187 0)
(0.261781 0.00536478 0)
(0.569357 0.00317146 0)
(1.4329 0.0208046 0)
(2.36237 0.034747 0)
(3.39639 0.0559632 0)
(4.54152 0.0781869 0)
(5.76364 0.103326 0)
(7.02426 0.126152 0)
(8.24366 0.147495 0)
(9.30803 0.166905 0)
(9.9032 0.175383 0)
(9.87117 0.167264 0)
(9.12804 0.153028 0)
(8.00424 0.131255 0)
(6.71254 0.105857 0)
(5.39798 0.0862304 0)
(4.13752 0.0624869 0)
(2.97206 0.0413854 0)
(1.91831 0.0240944 0)
(0.99176 0.00795208 0)
(0.234367 0.00540679 0)
(0.627123 0.00457544 0)
(1.51647 0.0273109 0)
(2.43142 0.0463051 0)
(3.45035 0.0664608 0)
(4.57274 0.0900092 0)
(5.79037 0.113059 0)
(7.04663 0.139283 0)
(8.26322 0.164372 0)
(9.32543 0.188439 0)
(9.90257 0.194919 0)
(9.8635 0.187867 0)
(9.11109 0.170711 0)
(7.97678 0.149374 0)
(6.68642 0.125378 0)
(5.36609 0.0931196 0)
(4.09365 0.068547 0)
(2.91796 0.0431586 0)
(1.868 0.0205713 0)
(0.965781 0.0044949 0)
(0.2108 0.00490179 0)
(0.672156 0.00674712 0)
(1.57207 0.0308603 0)
(2.47275 0.0539299 0)
(3.49823 0.0770075 0)
(4.63264 0.0977812 0)
(5.84298 0.128999 0)
(7.09082 0.158932 0)
(8.29805 0.186834 0)
(9.34889 0.211793 0)
(9.90324 0.222555 0)
(9.85496 0.212149 0)
(9.08504 0.195864 0)
(7.93838 0.167742 0)
(6.62898 0.134314 0)
(5.30094 0.107502 0)
(4.03325 0.0758924 0)
(2.8635 0.0448757 0)
(1.81364 0.017708 0)
(0.947469 0.00339418 0)
(0.194127 0.00429293 0)
(0.761039 0.00764398 0)
(1.68942 0.0357111 0)
(2.55133 0.0658362 0)
(3.55423 0.0867983 0)
(4.67075 0.113078 0)
(5.87714 0.140857 0)
(7.11837 0.17388 0)
(8.32053 0.205905 0)
(9.36741 0.235942 0)
(9.89908 0.246067 0)
(9.83863 0.23984 0)
(9.05624 0.218946 0)
(7.89823 0.19058 0)
(6.5903 0.158636 0)
(5.25604 0.118861 0)
(3.97295 0.0847741 0)
(2.79252 0.0498055 0)
(1.74528 0.0205621 0)
(0.927015 0.00538171 0)
(0.175503 0.00435157 0)
(0.817516 0.00884136 0)
(1.75941 0.0345811 0)
(2.61354 0.0656233 0)
(3.63188 0.09751 0)
(4.75104 0.126956 0)
(5.94335 0.164423 0)
(7.17183 0.199243 0)
(8.36541 0.232379 0)
(9.39154 0.264275 0)
(9.89519 0.279312 0)
(9.82386 0.269289 0)
(9.02202 0.250072 0)
(7.84983 0.215265 0)
(6.5196 0.171395 0)
(5.17677 0.132417 0)
(3.90036 0.0927738 0)
(2.72474 0.0576467 0)
(1.68092 0.0263897 0)
(0.902795 0.0106356 0)
(0.152353 0.00447304 0)
(0.921455 0.0100281 0)
(1.89628 0.0400414 0)
(2.69518 0.0783468 0)
(3.69706 0.104092 0)
(4.807 0.144132 0)
(5.9999 0.183491 0)
(7.22124 0.223101 0)
(8.4001 0.260801 0)
(9.41406 0.297562 0)
(9.88814 0.31117 0)
(9.79951 0.303861 0)
(8.98175 0.278088 0)
(7.79761 0.239519 0)
(6.4729 0.195808 0)
(5.13006 0.14287 0)
(3.84194 0.101539 0)
(2.65172 0.0682823 0)
(1.6022 0.0327623 0)
(0.862647 0.0159885 0)
(0.116105 0.004776 0)
(0.989067 0.009624 0)
(1.98893 0.0383951 0)
(2.79333 0.074543 0)
(3.80641 0.120763 0)
(4.91067 0.164949 0)
(6.08086 0.211872 0)
(7.28561 0.252369 0)
(8.45965 0.297271 0)
(9.44492 0.337837 0)
(9.88591 0.354707 0)
(9.78253 0.34035 0)
(8.94395 0.311985 0)
(7.74603 0.266625 0)
(6.39637 0.209465 0)
(5.03604 0.156311 0)
(3.75043 0.108739 0)
(2.5742 0.0765338 0)
(1.52894 0.0340252 0)
(0.821829 0.0194571 0)
(0.0786257 0.00508497 0)
(1.09731 0.0151946 0)
(2.12054 0.0468629 0)
(2.88802 0.0955268 0)
(3.90224 0.125839 0)
(4.999 0.189007 0)
(6.1684 0.241027 0)
(7.36274 0.293141 0)
(8.51551 0.340975 0)
(9.47704 0.384922 0)
(9.8828 0.398515 0)
(9.75755 0.38305 0)
(8.89495 0.345799 0)
(7.67812 0.29326 0)
(6.3312 0.236831 0)
(4.9754 0.172822 0)
(3.67581 0.117661 0)
(2.49706 0.0841222 0)
(1.45147 0.033904 0)
(0.766203 0.0226576 0)
(0.0285034 0.00537145 0)
(1.2121 0.0115759 0)
(2.26434 0.0518675 0)
(3.03004 0.102402 0)
(4.03895 0.156695 0)
(5.11223 0.211926 0)
(6.26304 0.273495 0)
(7.44215 0.32842 0)
(8.5907 0.390795 0)
(9.51723 0.439887 0)
(9.88611 0.45557 0)
(9.7398 0.431579 0)
(8.85035 0.388381 0)
(7.61627 0.326798 0)
(6.23903 0.25702 0)
(4.85604 0.193466 0)
(3.55662 0.132868 0)
(2.38751 0.0884819 0)
(1.37343 0.0346223 0)
(0.716604 0.0229976 0)
(-0.0176134 0.00641935 0)
(1.3193 0.0208497 0)
(2.41422 0.0567509 0)
(3.16217 0.12659 0)
(4.16675 0.165173 0)
(5.22938 0.246604 0)
(6.37179 0.306875 0)
(7.53455 0.377862 0)
(8.66664 0.445998 0)
(9.55537 0.500552 0)
(9.88467 0.514575 0)
(9.71088 0.488083 0)
(8.78667 0.434798 0)
(7.52363 0.363728 0)
(6.14566 0.292856 0)
(4.76907 0.218945 0)
(3.46264 0.147102 0)
(2.27945 0.0897261 0)
(1.2973 0.036113 0)
(0.658358 0.0258597 0)
(-0.0743774 0.0071473 0)
(1.50561 0.0185833 0)
(2.61215 0.0719798 0)
(3.3416 0.138117 0)
(4.34125 0.201385 0)
(5.37893 0.278674 0)
(6.50244 0.354347 0)
(7.64577 0.430023 0)
(8.75691 0.513044 0)
(9.59711 0.571894 0)
(9.88465 0.586832 0)
(9.68115 0.553676 0)
(8.72452 0.494118 0)
(7.44028 0.409806 0)
(6.02756 0.320223 0)
(4.62553 0.242172 0)
(3.31488 0.161342 0)
(2.13706 0.0953214 0)
(1.2218 0.0398439 0)
(0.604144 0.0265017 0)
(-0.132586 0.00966917 0)
(1.63435 0.0270867 0)
(2.79748 0.0735789 0)
(3.51638 0.167353 0)
(4.49161 0.220811 0)
(5.52848 0.319844 0)
(6.63753 0.396456 0)
(7.75337 0.494772 0)
(8.85462 0.588551 0)
(9.63449 0.652152 0)
(9.87344 0.667537 0)
(9.63246 0.627648 0)
(8.6321 0.555967 0)
(7.31681 0.460393 0)
(5.90137 0.363015 0)
(4.51272 0.262172 0)
(3.20067 0.171747 0)
(1.99891 0.0972658 0)
(1.14154 0.0441926 0)
(0.544763 0.0309894 0)
(-0.200448 0.0113447 0)
(1.89852 0.0279498 0)
(3.06975 0.0982681 0)
(3.75601 0.180748 0)
(4.72167 0.271869 0)
(5.72942 0.371849 0)
(6.80819 0.473151 0)
(7.89964 0.577839 0)
(8.96246 0.683481 0)
(9.66718 0.751813 0)
(9.85834 0.76275 0)
(9.57649 0.713595 0)
(8.53566 0.62906 0)
(7.19183 0.516132 0)
(5.74761 0.393724 0)
(4.33121 0.284494 0)
(3.02575 0.177962 0)
(1.84041 0.102224 0)
(1.06305 0.0526309 0)
(0.46809 0.034378 0)
(-0.282214 0.0158681 0)
(2.07553 0.0383229 0)
(3.28845 0.0999734 0)
(3.97931 0.215723 0)
(4.92363 0.305968 0)
(5.93648 0.437852 0)
(6.99297 0.551496 0)
(8.03954 0.678083 0)
(9.08108 0.798544 0)
(9.69504 0.865999 0)
(9.83043 0.87344 0)
(9.49666 0.806731 0)
(8.40324 0.706718 0)
(7.03147 0.573443 0)
(5.5761 0.431596 0)
(4.17497 0.296494 0)
(2.87999 0.187068 0)
(1.71149 0.105546 0)
(1.00199 0.0557837 0)
(0.400033 0.041091 0)
(-0.375343 0.0189427 0)
(2.45046 0.0406614 0)
(3.67028 0.144656 0)
(4.32053 0.264469 0)
(5.2279 0.383478 0)
(6.19228 0.524668 0)
(7.20385 0.666789 0)
(8.22346 0.812964 0)
(9.20727 0.94357 0)
(9.71448 1.00838 0)
(9.80008 1.0026 0)
(9.40979 0.915882 0)
(8.26432 0.786132 0)
(6.86099 0.629797 0)
(5.38736 0.46811 0)
(3.95775 0.311285 0)
(2.68322 0.199438 0)
(1.5553 0.109575 0)
(0.922065 0.0734759 0)
(0.319036 0.0501148 0)
(-0.48591 0.0252322 0)
(2.70722 0.0625376 0)
(3.97236 0.145491 0)
(4.61068 0.300868 0)
(5.50661 0.462793 0)
(6.47412 0.646889 0)
(7.44535 0.813492 0)
(8.41929 0.976272 0)
(9.32726 1.11325 0)
(9.72891 1.16659 0)
(9.75947 1.14806 0)
(9.30243 1.03064 0)
(8.09339 0.876337 0)
(6.6552 0.687681 0)
(5.166 0.495833 0)
(3.75756 0.338868 0)
(2.48647 0.209499 0)
(1.44212 0.123602 0)
(0.867372 0.096096 0)
(0.193733 0.0707257 0)
(-0.647281 0.0329947 0)
(3.28644 0.0814166 0)
(4.46448 0.250578 0)
(5.07905 0.44756 0)
(5.91816 0.618312 0)
(6.80804 0.817554 -1.24617e-32)
(7.70846 1.00055 4.5629e-33)
(8.65808 1.18413 0)
(9.44758 1.31696 0)
(9.72809 1.35516 0)
(9.71235 1.31656 0)
(9.17929 1.16473 0)
(7.90455 0.967341 0)
(6.44167 0.741282 0)
(4.93971 0.535872 0)
(3.50192 0.347472 0)
(2.2683 0.201465 0)
(1.31663 0.114582 0)
(0.789189 0.084551 0)
(0.0172248 0.0707582 0)
(-0.887725 0.00870602 0)
(3.85728 0.209021 -1.40311e-18)
(4.92224 0.342112 1.17291e-18)
(5.47 0.596181 0)
(6.28304 0.824024 -6.7803e-19)
(7.14014 1.04359 5.47762e-19)
(7.99053 1.2421 -4.84127e-33)
(8.89786 1.43462 0)
(9.53048 1.5545 -8.08906e-20)
(9.71232 1.57763 1.27088e-19)
(9.63261 1.51072 -2.29327e-22)
(9.00247 1.32007 0)
(7.64345 1.08103 -2.64305e-19)
(6.11493 0.807839 -3.35088e-19)
(4.58802 0.556381 5.78399e-19)
(3.21057 0.353201 -4.71966e-19)
(1.98772 0.170892 0)
(1.18672 0.0772469 -1.78886e-19)
(0.745143 0.0348658 0)
(-0.0519733 0.0114542 -9.28393e-19)
(-0.986694 -0.026421 1.08103e-18)
(4.20041 0.407825 1.18882e-19)
(5.31054 0.594726 -5.14915e-18)
(5.83213 0.886473 7.60341e-19)
(6.5926 1.08428 2.77854e-18)
(7.38625 1.29971 1.21416e-18)
(8.1806 1.5032 -1.92908e-18)
(9.05042 1.70979 0)
(9.55393 1.81988 0)
(9.66513 1.83627 -1.92219e-19)
(9.52133 1.74677 0)
(8.80168 1.51618 8.60103e-19)
(7.37296 1.22911 2.88958e-19)
(5.83586 0.903909 -3.19834e-20)
(4.32934 0.592587 -7.33427e-19)
(2.9651 0.332615 0)
(1.7941 0.15325 0)
(1.11295 0.0704346 -3.04385e-18)
(0.722967 0.0111089 7.68272e-18)
(0.101843 -0.00697013 -4.58999e-18)
(-0.943836 -0.101516 -5.40914e-18)
(4.42383 0.645739 4.7407e-18)
(5.57036 0.923309 -1.84626e-18)
(6.05102 1.15861 -6.69406e-19)
(6.78928 1.35708 -5.15017e-18)
(7.5551 1.58136 4.08496e-19)
(8.31003 1.79459 5.29465e-18)
(9.12152 1.99967 -1.51272e-18)
(9.52747 2.10094 0)
(9.58375 2.10789 3.55453e-19)
(9.38159 1.99465 8.97407e-19)
(8.60146 1.72418 -2.45819e-18)
(7.13784 1.38358 1.33891e-18)
(5.59314 1.00149 -1.09919e-18)
(4.0959 0.647732 2.34461e-18)
(2.80096 0.384206 0)
(1.71431 0.19615 -8.70242e-19)
(1.08592 0.0990335 0)
(0.754545 0.0654379 4.71136e-18)
(0.143466 -0.0202543 -1.11362e-17)
(-0.848571 -0.13141 6.99143e-18)
(4.55266 0.885786 -1.94957e-17)
(5.79283 1.28376 1.01424e-17)
(6.26092 1.50607 1.79005e-18)
(6.94935 1.68088 0)
(7.66621 1.89751 3.4752e-18)
(8.37924 2.10893 -4.09314e-18)
(9.1334 2.30793 1.54551e-18)
(9.46386 2.39752 0)
(9.47647 2.39264 -2.37952e-19)
(9.22945 2.25372 -5.54803e-19)
(8.41344 1.9364 2.60191e-18)
(6.93517 1.54236 0)
(5.41558 1.10589 -2.4267e-18)
(3.96848 0.726815 1.28769e-18)
(2.68234 0.421116 3.41169e-18)
(1.68822 0.200666 -2.97239e-18)
(1.10409 0.102349 4.76976e-18)
(0.804891 0.0640653 -1.05273e-17)
(0.294801 0.00535389 6.66036e-18)
(-0.684979 -0.136079 -8.30976e-18)
(4.59457 1.0948 1.13627e-17)
(5.84623 1.58393 -1.05842e-17)
(6.32016 1.7642 5.79469e-18)
(7.00426 1.95508 -8.88164e-18)
(7.70514 2.19375 6.85783e-18)
(8.38887 2.42622 -1.58347e-18)
(9.09682 2.62243 8.67925e-20)
(9.37221 2.70398 1.55794e-18)
(9.35105 2.68271 1.28547e-19)
(9.07405 2.51435 -1.64061e-18)
(8.24222 2.15236 -5.87181e-18)
(6.76724 1.70319 -2.28139e-18)
(5.26121 1.22256 -5.14213e-20)
(3.83651 0.810884 -5.09133e-18)
(2.63789 0.517707 -5.93082e-20)
(1.7408 0.271234 4.74067e-18)
(1.21149 0.185438 -1.46727e-18)
(0.95072 0.170136 -7.93007e-19)
(0.446446 0.0517894 0)
(-0.592427 -0.145796 1.90869e-17)
(4.60438 1.24537 0)
(5.9505 1.95599 2.98461e-18)
(6.42672 2.10267 0)
(7.05423 2.2963 -3.26474e-19)
(7.7045 2.52741 -7.6511e-18)
(8.35854 2.75089 3.19951e-18)
(9.0257 2.94087 -1.88023e-18)
(9.26263 3.01289 -2.16622e-18)
(9.22009 2.97146 -2.20912e-19)
(8.92687 2.77848 1.72183e-19)
(8.08689 2.37426 3.30415e-18)
(6.62828 1.87669 5.14647e-18)
(5.15129 1.35686 -3.31616e-18)
(3.79057 0.92861 5.80524e-18)
(2.58752 0.562064 -4.64844e-18)
(1.72593 0.330889 0)
(1.25393 0.228539 -1.14802e-17)
(1.0009 0.206159 1.5393e-17)
(0.538098 0.0844252 1.18601e-18)
(-0.411306 -0.115423 -2.1414e-17)
(4.52755 1.44457 -3.63927e-19)
(5.88797 2.17487 -7.14699e-18)
(6.38416 2.29221 -2.54911e-17)
(6.99552 2.54182 1.56462e-17)
(7.65084 2.80511 -5.07317e-18)
(8.28878 3.055 3.56996e-18)
(8.92827 3.25218 -4.25972e-18)
(9.13885 3.317 1.34578e-18)
(9.08014 3.25456 5.3987e-20)
(8.77146 3.03939 -2.07972e-19)
(7.93353 2.59789 -4.14082e-18)
(6.49474 2.05719 -6.06558e-18)
(5.04088 1.49871 3.84644e-18)
(3.69865 1.02314 -2.15461e-18)
(2.60389 0.665157 5.34126e-18)
(1.8546 0.414089 0)
(1.43611 0.315097 -7.50202e-18)
(1.20248 0.311974 1.1137e-17)
(0.760285 0.180252 2.11004e-17)
(-0.29442 -0.075388 -2.46438e-17)
(4.49157 1.63764 -3.62361e-17)
(5.93651 2.48408 1.83913e-17)
(6.40444 2.6276 1.64626e-17)
(6.97171 2.87188 -1.67903e-17)
(7.58681 3.10864 3.51129e-19)
(8.19736 3.35245 8.09628e-18)
(8.81124 3.55236 1.85081e-18)
(9.00126 3.61213 4.89008e-19)
(8.92898 3.52988 -8.69058e-19)
(8.60645 3.29344 1.18146e-18)
(7.77875 2.81925 3.52469e-18)
(6.36621 2.23822 9.49531e-18)
(4.96913 1.64223 0)
(3.70748 1.14174 2.00549e-19)
(2.62639 0.723217 -1.53792e-17)
(1.8686 0.493293 3.65601e-18)
(1.47935 0.408481 1.70393e-17)
(1.25308 0.395653 -5.02349e-18)
(0.848953 0.26002 1.05342e-17)
(-0.213115 -0.0579288 -8.53023e-19)
(4.3516 1.75585 4.11996e-19)
(5.80514 2.64106 1.6038e-17)
(6.30725 2.768 1.18846e-17)
(6.86495 3.07849 -2.78004e-17)
(7.48704 3.36181 2.04577e-17)
(8.08453 3.62928 -8.87717e-18)
(8.67524 3.83946 -2.00706e-18)
(8.8507 3.89651 -2.60239e-18)
(8.7673 3.79551 7.55564e-20)
(8.43532 3.53839 -3.07098e-18)
(7.62557 3.03334 0)
(6.24863 2.41586 -4.00205e-18)
(4.89747 1.78293 4.58267e-18)
(3.65391 1.24807 5.88078e-18)
(2.66023 0.848879 -3.47399e-18)
(2.02031 0.604612 -8.14535e-18)
(1.67727 0.518054 -2.466e-18)
(1.44339 0.53982 -1.44546e-19)
(1.00903 0.357879 0)
(-0.125599 -0.0164327 0)
(4.28186 1.92371 -1.63332e-17)
(5.79483 2.90005 0)
(6.26715 3.04207 1.2909e-17)
(6.78351 3.3556 -5.5378e-18)
(7.3847 3.62004 -2.12049e-17)
(7.9559 3.89296 5.97177e-18)
(8.52663 4.11081 -2.19006e-18)
(8.69495 4.16666 2.24243e-18)
(8.60423 4.05131 -2.15175e-19)
(8.27006 3.77564 -2.13211e-18)
(7.48169 3.24186 2.23536e-18)
(6.14119 2.59295 1.30362e-17)
(4.84131 1.92834 3.91132e-19)
(3.66207 1.37262 -6.36286e-18)
(2.69121 0.927154 1.17401e-17)
(2.02973 0.715516 4.59443e-20)
(1.71684 0.628617 2.64095e-18)
(1.52637 0.633738 -1.29911e-17)
(1.12193 0.467617 1.32235e-17)
(-0.0798451 0.00355419 -1.55531e-17)
(4.1278 2.00681 -7.61462e-21)
(5.65802 3.01372 0)
(6.141 3.15181 0)
(6.65316 3.51646 5.45323e-18)
(7.2564 3.83267 7.81867e-18)
(7.81322 4.13408 -5.21837e-18)
(8.3723 4.36453 5.96146e-18)
(8.53625 4.42107 0)
(8.44384 4.29576 -3.29538e-19)
(8.11296 4.00505 5.00756e-18)
(7.34603 3.44549 8.03627e-18)
(6.0404 2.76887 -4.98819e-18)
(4.77939 2.07679 -6.11611e-18)
(3.62235 1.49277 1.4417e-17)
(2.73474 1.06941 -4.22807e-18)
(2.18788 0.845237 -4.98434e-18)
(1.89594 0.778209 -3.06736e-18)
(1.65531 0.800176 -1.44745e-17)
(1.20414 0.561065 2.05196e-18)
(-0.0662175 0.0155661 1.74667e-17)
(4.03384 2.11914 -6.3092e-18)
(5.60047 3.24051 -9.82802e-18)
(6.06685 3.40204 5.04962e-19)
(6.5444 3.74233 -8.4919e-21)
(7.13065 4.04493 3.26419e-18)
(7.668 4.35904 -1.18438e-17)
(8.21775 4.59815 0)
(8.38045 4.65781 -6.45322e-19)
(8.28967 4.52685 5.08011e-19)
(7.96427 4.22579 8.22523e-18)
(7.2156 3.64504 -1.76388e-18)
(5.94005 2.94367 2.29578e-18)
(4.71597 2.22894 0)
(3.61025 1.62347 -7.86867e-18)
(2.74864 1.17133 9.68992e-18)
(2.17779 0.975639 0)
(1.9265 0.888881 -6.72601e-18)
(1.75553 0.913596 1.974e-17)
(1.29845 0.671146 2.39175e-18)
(-0.0563762 0.0154784 -2.21137e-17)
(3.88385 2.1931 -1.33526e-17)
(5.46269 3.33903 1.64936e-17)
(5.93603 3.50018 0)
(6.4024 3.87717 1.25262e-17)
(6.9864 4.21369 0)
(7.51976 4.55918 1.19853e-17)
(8.06269 4.8136 0)
(8.22515 4.87662 0)
(8.13762 4.74246 -7.00938e-19)
(7.81709 4.43469 -8.26272e-18)
(7.0846 3.83751 -1.51618e-17)
(5.83854 3.1144 2.98639e-18)
(4.64669 2.38023 1.11359e-17)
(3.57285 1.75554 8.92606e-18)
(2.78592 1.3253 -3.14133e-17)
(2.32036 1.12356 -1.24821e-17)
(2.0642 1.06224 7.32621e-18)
(1.80912 1.07515 0)
(1.31182 0.745761 2.08859e-17)
(-0.0671618 0.0136341 -2.44405e-17)
(3.79308 2.27904 1.43361e-17)
(5.3938 3.53348 -1.77098e-17)
(5.8459 3.72272 0)
(6.28566 4.07775 -3.51188e-19)
(6.85779 4.38948 -5.14943e-18)
(7.37365 4.73959 0)
(7.91028 5.00699 -1.42512e-18)
(8.07243 5.07605 3.99847e-19)
(7.98725 4.94106 -1.89199e-19)
(7.67035 4.6296 5.96535e-19)
(6.95296 4.02113 0)
(5.73428 3.27944 1.22935e-17)
(4.56846 2.5281 3.0498e-19)
(3.53429 1.8886 4.89504e-18)
(2.77313 1.45132 5.70943e-18)
(2.28619 1.25903 0)
(2.08299 1.16794 -1.2288e-17)
(1.89978 1.19468 2.41876e-17)
(1.33726 0.835086 -2.56459e-17)
(-0.0909161 -0.00355257 5.37859e-17)
(3.66285 2.34345 0)
(5.26575 3.61736 0)
(5.71983 3.81202 -9.65754e-18)
(6.1521 4.19826 0)
(6.72298 4.53649 0)
(7.22858 4.90484 1.35571e-17)
(7.75793 5.1835 -1.51235e-18)
(7.91911 5.25757 8.17687e-19)
(7.83598 5.12235 2.98898e-19)
(7.5224 4.80913 0)
(6.81964 4.19329 -2.61678e-18)
(5.62875 3.43731 -1.02054e-17)
(4.4853 2.67154 -1.25698e-17)
(3.48864 2.01978 -5.11708e-18)
(2.80022 1.60605 6.3726e-18)
(2.40065 1.43321 -1.49443e-17)
(2.17648 1.35673 2.68789e-17)
(1.8995 1.33774 2.55183e-19)
(1.29408 0.879345 -2.43928e-17)
(-0.137125 -0.0278106 -3.7281e-18)
(3.58705 2.42378 0)
(5.19528 3.78862 -1.3073e-17)
(5.6315 4.00704 1.06785e-17)
(6.04419 4.37698 0)
(6.60258 4.6918 0)
(7.09 5.0579 -2.89908e-17)
(7.61094 5.34261 0)
(7.7698 5.42201 0)
(7.68766 5.28757 -8.35669e-19)
(7.37759 4.9743 1.99915e-18)
(6.6878 4.35398 -2.13773e-17)
(5.52288 3.58772 0)
(4.3988 2.81051 -1.39015e-17)
(3.4346 2.15303 2.64416e-19)
(2.76507 1.74318 -2.06415e-17)
(2.33491 1.56952 8.06235e-18)
(2.15106 1.46985 1.43472e-19)
(1.93686 1.43722 -2.89693e-17)
(1.2259 0.905323 1.29428e-17)
(-0.195942 -0.0691549 3.98391e-18)
(3.47698 2.48142 0)
(5.08637 3.86576 -1.44129e-17)
(5.517 4.08422 1.10988e-17)
(5.92696 4.48539 2.43906e-17)
(6.47838 4.82412 5.46272e-18)
(6.95684 5.20332 -3.33687e-18)
(7.46843 5.49204 2.6913e-18)
(7.6241 5.57344 -6.78446e-18)
(7.54316 5.43891 8.9566e-19)
(7.23665 5.12637 1.23002e-17)
(6.55787 4.50314 1.78371e-17)
(5.41763 3.72914 3.45781e-18)
(4.31274 2.94526 2.00388e-17)
(3.3854 2.28717 1.24498e-17)
(2.77512 1.89952 1.48379e-17)
(2.42175 1.75348 -8.93433e-18)
(2.21286 1.66205 -1.06602e-17)
(1.91174 1.5621 1.26202e-17)
(1.13604 0.899055 -7.15842e-18)
(-0.286307 -0.114006 1.312e-17)
(3.4194 2.55502 1.93496e-17)
(5.02041 4.01824 2.29745e-17)
(5.43626 4.25369 5.77557e-18)
(5.8313 4.64185 5.12012e-20)
(6.36715 4.96368 -1.84431e-17)
(6.83448 5.34071 8.22305e-18)
(7.33586 5.63093 -2.88111e-18)
(7.48701 5.71374 6.22544e-20)
(7.40684 5.579 -1.66877e-18)
(7.10312 5.26742 -1.39166e-17)
(6.43293 4.64227 1.08893e-18)
(5.31727 3.86346 0)
(4.2299 3.07459 0)
(3.33195 2.42727 -6.48598e-18)
(2.7197 2.05165 -2.42181e-17)
(2.31886 1.88585 1.93657e-17)
(2.14902 1.75551 1.16437e-17)
(1.89072 1.63225 0)
(1.01556 0.873809 2.35806e-17)
(-0.371256 -0.208618 -1.4346e-17)
(3.33301 2.60966 -1.01713e-17)
(4.92945 4.08899 8.49593e-18)
(5.33792 4.32225 -1.27835e-17)
(5.72756 4.73608 -1.45654e-17)
(6.25836 5.08239 -6.77868e-18)
(6.72294 5.47425 2.37765e-18)
(7.21235 5.76644 0)
(7.35815 5.84713 8.17441e-18)
(7.27885 5.71042 -3.34932e-19)
(6.97623 5.39884 0)
(6.31351 4.77226 0)
(5.22067 3.98969 2.41031e-18)
(4.15221 3.19978 3.29909e-18)
(3.28233 2.56916 -6.97957e-18)
(2.70669 2.22092 1.74078e-17)
(2.37339 2.07318 -2.08897e-17)
(2.16113 1.93538 -2.48674e-17)
(1.80883 1.68736 2.24852e-17)
(0.840676 0.811144 -8.73257e-18)
(-0.37682 -0.413821 5.13693e-18)
(3.29615 2.683 1.11597e-17)
(4.87176 4.22653 0)
(5.26868 4.47256 0)
(5.64588 4.87405 -4.83852e-18)
(6.16514 5.207 3.91079e-18)
(6.62213 5.60013 -2.14545e-19)
(7.10006 5.89568 -9.87181e-18)
(7.24097 5.97494 -9.67552e-18)
(7.1621 5.83574 2.76061e-18)
(6.85873 5.52289 -1.31415e-18)
(6.20288 4.89548 3.08822e-18)
(5.13279 4.11071 -2.09465e-17)
(4.07925 3.31868 -2.13906e-17)
(3.2283 2.71192 -3.70185e-18)
(2.63822 2.39197 0)
(2.23638 2.234 -2.25208e-19)
(2.02194 2.02183 1.33602e-17)
(1.69488 1.68587 -2.4112e-17)
(0.797252 0.62349 1.83356e-17)
(-0.290127 -0.499467 1.66459e-17)
(3.2356 2.74545 -2.38752e-17)
(4.79672 4.29322 -9.7954e-18)
(5.18786 4.53565 6.72667e-20)
(5.55976 4.95807 5.6523e-18)
(6.07658 5.31473 0)
(6.52883 5.72206 1.98211e-17)
(6.99651 6.02529 1.2193e-17)
(7.13085 6.10188 -1.14025e-18)
(7.05155 5.95947 -1.13541e-18)
(6.74543 5.64458 -1.2862e-18)
(6.09708 5.01742 1.19101e-18)
(5.04925 4.23292 1.83379e-17)
(4.01139 3.44403 2.07456e-17)
(3.17289 2.86124 3.57142e-18)
(2.60559 2.58159 1.80235e-17)
(2.26248 2.44299 0)
(1.9758 2.21929 0)
(1.45976 1.69503 1.5518e-17)
(0.275498 0.544554 -8.3656e-20)
(-0.134435 0.662927 -1.68228e-17)
(3.21546 2.8187 1.27768e-17)
(4.74725 4.41769 3.02251e-17)
(5.13156 4.67277 -4.66517e-17)
(5.49175 5.08308 2.91355e-17)
(5.99779 5.42944 -3.74542e-18)
(6.43947 5.8373 2.4386e-17)
(6.89761 6.15038 0)
(7.02529 6.22786 9.11719e-18)
(6.94506 6.08336 0)
(6.63603 5.76739 1.44657e-17)
(5.99575 5.14209 -1.83336e-18)
(4.96889 4.35833 2.05032e-18)
(3.94838 3.5796 2.3764e-17)
(3.12061 3.03043 -7.65027e-18)
(2.54173 2.79221 -9.31048e-18)
(2.09507 2.67666 0)
(1.70782 2.43292 0)
(0.915968 1.7075 0)
(0.339402 1.31878 -8.64119e-18)
(0.214381 2.39617 -5.37492e-18)
(3.17185 2.88552 0)
(4.68539 4.47889 0)
(5.06549 4.73043 1.65611e-17)
(5.41805 5.15821 -2.44121e-17)
(5.92085 5.52737 1.73726e-17)
(6.3561 5.94823 -2.2406e-17)
(6.80141 6.27125 -1.24395e-18)
(6.923 6.35162 9.63265e-19)
(6.84094 6.20519 5.74052e-19)
(6.53007 5.88946 -1.65317e-17)
(5.89865 5.26749 3.02619e-18)
(4.89335 4.48688 1.86405e-17)
(3.88576 3.72 -2.36739e-17)
(3.07153 3.21467 -2.58478e-17)
(2.51408 3.02936 8.80145e-18)
(2.12117 2.94194 0)
(1.63707 2.56462 1.24468e-17)
(0.978923 1.95322 1.39274e-17)
(0.507241 2.36543 -1.77607e-17)
(0.496908 2.96548 2.11144e-17)
(3.1625 2.95577 0)
(4.64509 4.59123 2.34231e-17)
(5.01933 4.8552 -4.28115e-18)
(5.36017 5.272 2.96287e-17)
(5.85174 5.63189 -1.82519e-17)
(6.27541 6.05361 0)
(6.70598 6.38422 0)
(6.82483 6.47166 0)
(6.74042 6.32485 -5.22084e-19)
(6.42922 6.01062 4.12153e-19)
(5.80624 5.3926 0)
(4.82164 4.61744 -1.84174e-17)
(3.82709 3.8634 0)
(3.04303 3.41146 1.85166e-17)
(2.49881 3.26842 -1.27909e-17)
(2.0214 3.17464 -1.0193e-17)
(1.40242 2.79978 -2.22861e-17)
(0.939023 2.51148 -1.38925e-17)
(0.646472 3.06904 -2.43894e-17)
(0.687494 3.31757 2.05452e-17)
(3.13153 3.02014 -7.77975e-18)
(4.59764 4.64828 1.7451e-19)
(4.9663 4.90885 -4.47276e-18)
(5.29889 5.3421 -2.34982e-17)
(5.78518 5.72197 0)
(6.19946 6.15528 0)
(6.61339 6.49276 0)
(6.72996 6.58838 -4.07329e-19)
(6.64263 6.44264 2.88622e-19)
(6.33122 6.13068 0)
(5.71543 5.51627 0)
(4.75131 4.74828 0)
(3.77643 4.01271 0)
(3.02374 3.61465 1.41198e-17)
(2.49809 3.51764 3.46302e-17)
(2.05651 3.41719 1.05018e-17)
(1.53766 2.98203 2.29856e-17)
(1.23414 2.9922 -2.08922e-17)
(0.9458 3.53161 7.92722e-18)
(0.829493 3.62737 0)
(3.1282 3.08129 7.55728e-18)
(4.56556 4.75172 -4.69126e-17)
(4.92833 5.02672 -1.36294e-17)
(5.25104 5.45215 -3.43734e-18)
(5.72353 5.82202 4.30053e-18)
(6.12427 6.25482 -3.05714e-17)
(6.52257 6.59686 2.09274e-18)
(6.63585 6.7006 1.20691e-17)
(6.54705 6.5593 0)
(6.23543 6.25007 -1.20337e-18)
(5.62586 5.63825 1.09778e-18)
(4.68217 4.8769 0)
(3.73559 4.16612 0)
(3.02388 3.82232 -1.76486e-17)
(2.52686 3.75496 3.4289e-18)
(2.04425 3.61541 -9.918e-18)
(1.4584 3.2761 2.25597e-17)
(1.07273 3.55965 2.00149e-17)
(0.900549 3.86104 -3.43253e-17)
(0.809186 3.90318 1.81027e-17)
(3.09785 3.13909 1.4087e-17)
(4.52051 4.80676 4.35908e-17)
(4.8767 5.07729 1.66279e-17)
(5.19009 5.52165 0)
(5.65561 5.91161 0)
(6.04626 6.35418 2.31067e-17)
(6.42896 6.70116 -1.36617e-17)
(6.53747 6.81142 -1.11098e-17)
(6.44779 6.67525 -3.43835e-19)
(6.13618 6.36936 1.15095e-17)
(5.53394 5.75982 -2.19183e-17)
(4.6144 5.0048 0)
(3.70519 4.32343 0)
(3.03618 4.03287 -1.29632e-17)
(2.55643 3.99411 -1.62616e-17)
(2.0653 3.84617 0)
(1.64587 3.59572 -3.22098e-17)
(1.36527 3.90773 -6.00331e-18)
(1.22359 4.26373 3.50179e-17)
(0.952663 4.27993 -1.8246e-17)
(3.09088 3.19842 -2.65554e-17)
(4.48022 4.91115 -2.06408e-17)
(4.8283 5.1971 0)
(5.13076 5.63261 0)
(5.58072 6.01263 0)
(5.95776 6.45389 0)
(6.32687 6.80307 1.44859e-17)
(6.43182 6.92005 -1.30001e-17)
(6.34175 6.78914 0)
(6.03195 6.4869 -1.02098e-17)
(5.44093 5.88065 3.9795e-17)
(4.54973 5.13189 1.7558e-18)
(3.68341 4.48013 2.66589e-18)
(3.06519 4.24152 2.20942e-17)
(2.61961 4.21811 -1.45985e-17)
(2.1232 4.02281 0)
(1.73189 3.91252 1.07071e-17)
(1.38853 4.44916 5.42168e-19)
(1.02607 4.59107 -5.6799e-18)
(0.64936 4.67945 1.10545e-17)
(3.04564 3.24536 1.25089e-17)
(4.42066 4.96024 -1.96009e-17)
(4.76023 5.23842 0)
(5.04971 5.69424 -5.39264e-18)
(5.49232 6.09817 2.05942e-17)
(5.86073 6.55171 0)
(6.21621 6.9036 0)
(6.31796 7.02683 2.33615e-17)
(6.22731 6.89964 -2.50492e-19)
(5.92034 6.60034 9.99374e-18)
(5.3465 6.00075 -1.89349e-17)
(4.488 5.25849 1.31417e-17)
(3.67166 4.63671 0)
(3.10604 4.44385 -1.21895e-17)
(2.67557 4.43032 7.44513e-18)
(2.22046 4.27916 8.2332e-18)
(1.87339 4.27096 0)
(1.5684 4.70003 5.46207e-18)
(1.17733 5.20027 9.65924e-18)
(1.05291 5.37806 2.76504e-18)
(3.02198 3.3069 -2.34225e-17)
(4.36118 5.06403 2.79233e-17)
(4.69083 5.35812 2.12317e-17)
(4.9686 5.80127 -5.60701e-18)
(5.39464 6.19446 -3.10738e-17)
(5.75144 6.64883 0)
(6.09537 7.00103 1.12357e-17)
(6.19513 7.12975 -9.53375e-18)
(6.10578 7.00758 -7.29746e-19)
(5.80439 6.70945 -8.71062e-18)
(5.25221 6.11788 -8.62771e-19)
(4.42872 5.38188 -1.46955e-17)
(3.66585 4.78878 1.81513e-17)
(3.15433 4.63331 5.6648e-18)
(2.76329 4.62582 -1.31673e-17)
(2.32094 4.44929 1.50524e-17)
(2.05028 4.46677 0)
(1.8076 5.28355 0)
(1.54241 5.71103 2.65191e-18)
(0.507314 5.7589 -7.59179e-18)
(2.96126 3.34237 1.10974e-17)
(4.28088 5.11239 2.59571e-17)
(4.60374 5.39251 -2.04969e-17)
(4.86536 5.85523 2.03852e-17)
(5.28525 6.2741 2.96278e-17)
(5.63551 6.74297 0)
(5.96835 7.09756 -1.20672e-17)
(6.06521 7.22903 -1.13941e-17)
(5.97847 7.11134 0)
(5.68644 6.81493 0)
(5.15657 6.22871 0)
(4.37113 5.4989 0)
(3.66535 4.93368 -2.06927e-17)
(3.20723 4.80503 -7.92362e-18)
(2.83988 4.79092 0)
(2.46684 4.6505 -7.40169e-18)
(2.30186 4.90054 0)
(2.3608 5.26404 -3.46815e-18)
(2.40771 5.19711 5.61609e-18)
(1.34173 5.22971 -2.91791e-18)
(2.91413 3.41262 -2.08041e-17)
(4.20238 5.22361 -1.63237e-17)
(4.51511 5.52062 -1.26052e-17)
(4.76587 5.96594 -1.9027e-17)