/*--------------------------------*- C++ -*----------------------------------*\
| =========                 |                                                 |
| \\      /  F ield         | OpenFOAM: The Open Source CFD Toolbox           |
|  \\    /   O peration     | Version:  2412                                  |
|   \\  /    A nd           | Website:  www.openfoam.com                      |
|    \\/     M anipulation  |                                                 |
\*---------------------------------------------------------------------------*/
FoamFile
{
    version     2.0;
    format      ascii;
    arch        "LSB;label=32;scalar=64";
    class       volVectorField;
    location    "0.52";
    object      U;
}
// * * * * * * * * * * * * * * * * * * * * * * * * * * * * * * * * * * * * * //

dimensions      [0 1 -1 0 0 0 0];

internalField   nonuniform List<vector> 
800
(
(0.00149176 0 0)
(0.0044753 0 0)
(0.00745884 0 0)
(0.0104423 0 0)
(0.0134258 0 0)
(0.0164092 0 0)
(0.0193926 0 0)
(0.0223759 0 0)
(0.0253591 0 0)
(0.0283423 0 0)
(0.0313253 0 0)
(0.0343083 0 0)
(0.0372911 0 0)
(0.0402738 0 0)
(0.0432563 0 0)
(0.0462387 0 0)
(0.049221 0 0)
(0.052203 0 0)
(0.0551849 0 0)
(0.0581666 0 0)
(0.0611481 0 0)
(0.0641294 0 0)
(0.0671105 0 0)
(0.0700913 0 0)
(0.0730719 0 0)
(0.0760523 0 0)
(0.0790324 0 0)
(0.0820122 0 0)
(0.0849917 0 0)
(0.087971 0 0)
(0.0909499 0 0)
(0.0939285 0 0)
(0.0969068 0 0)
(0.0998848 0 0)
(0.102862 0 0)
(0.10584 0 0)
(0.108817 0 0)
(0.111793 0 0)
(0.114769 0 0)
(0.117745 0 0)
(0.12072 0 0)
(0.123695 0 0)
(0.12667 0 0)
(0.129644 0 0)
(0.132617 0 0)
(0.13559 0 0)
(0.138563 0 0)
(0.141535 0 0)
(0.144507 0 0)
(0.147478 0 0)
(0.150449 0 0)
(0.153419 0 0)
(0.156388 0 0)
(0.159357 0 0)
(0.162326 0 0)
(0.165294 0 0)
(0.168261 0 0)
(0.171228 0 0)
(0.174194 0 0)
(0.177159 0 0)
(0.180124 0 0)
(0.183088 0 0)
(0.186052 0 0)
(0.189015 0 0)
(0.191977 0 0)
(0.194939 0 0)
(0.1979 0 0)
(0.20086 0 0)
(0.203819 0 0)
(0.206778 0 0)
(0.209736 0 0)
(0.212693 0 0)
(0.21565 0 0)
(0.218606 0 0)
(0.22156 0 0)
(0.224515 0 0)
(0.227468 0 0)
(0.23042 0 0)
(0.233372 0 0)
(0.236323 0 0)
(0.239273 0 0)
(0.242222 0 0)
(0.24517 0 0)
(0.248118 0 0)
(0.251064 0 0)
(0.25401 0 0)
(0.256954 0 0)
(0.259898 0 0)
(0.262841 0 0)
(0.265782 0 0)
(0.268723 0 0)
(0.271663 0 0)
(0.274602 0 0)
(0.27754 0 0)
(0.280476 0 0)
(0.283412 0 0)
(0.286347 0 0)
(0.28928 0 0)
(0.292213 0 0)
(0.295144 0 0)
(0.298075 0 0)
(0.301004 0 0)
(0.303932 0 0)
(0.306859 0 0)
(0.309785 0 0)
(0.31271 0 0)
(0.315633 0 0)
(0.318555 0 0)
(0.321476 0 0)
(0.324396 0 0)
(0.327315 0 0)
(0.330232 0 0)
(0.333148 0 0)
(0.336063 0 0)
(0.338977 0 0)
(0.341889 0 0)
(0.3448 0 0)
(0.34771 0 0)
(0.350618 0 0)
(0.353525 0 0)
(0.356431 0 0)
(0.359335 0 0)
(0.362238 0 0)
(0.365139 0 0)
(0.368039 0 0)
(0.370937 0 0)
(0.373835 0 0)
(0.37673 0 0)
(0.379624 0 0)
(0.382517 0 0)
(0.385408 0 0)
(0.388297 0 0)
(0.391186 0 0)
(0.394072 0 0)
(0.396957 0 0)
(0.39984 0 0)
(0.402722 0 0)
(0.405602 0 0)
(0.40848 0 0)
(0.411357 0 0)
(0.414232 0 0)
(0.417106 0 0)
(0.419977 0 0)
(0.422847 0 0)
(0.425716 0 0)
(0.428582 0 0)
(0.431447 0 0)
(0.43431 0 0)
(0.437171 0 0)
(0.440031 0 0)
(0.442888 0 0)
(0.445744 0 0)
(0.448598 0 0)
(0.45145 0 0)
(0.4543 0 0)
(0.457148 0 0)
(0.459994 0 0)
(0.462838 0 0)
(0.46568 0 0)
(0.468521 0 0)
(0.471359 0 0)
(0.474195 0 0)
(0.477029 0 0)
(0.479861 0 0)
(0.482691 0 0)
(0.485519 0 0)
(0.488345 0 0)
(0.491169 0 0)
(0.49399 0 0)
(0.49681 0 0)
(0.499627 0 0)
(0.502442 0 0)
(0.505255 0 0)
(0.508065 0 0)
(0.510873 0 0)
(0.513679 0 0)
(0.516483 0 0)
(0.519284 0 0)
(0.522083 0 0)
(0.524879 0 0)
(0.527673 0 0)
(0.530465 0 0)
(0.533254 0 0)
(0.536041 0 0)
(0.538825 0 0)
(0.541607 0 0)
(0.544386 0 0)
(0.547163 0 0)
(0.549937 0 0)
(0.552708 0 0)
(0.555477 0 0)
(0.558243 0 0)
(0.561007 0 0)
(0.563768 0 0)
(0.566526 0 0)
(0.569281 0 0)
(0.572034 0 0)
(0.574784 0 0)
(0.577531 0 0)
(0.580275 0 0)
(0.583016 0 0)
(0.585755 0 0)
(0.58849 0 0)
(0.591223 0 0)
(0.593953 0 0)
(0.596679 0 0)
(0.599403 0 0)
(0.602123 0 0)
(0.604841 0 0)
(0.607555 0 0)
(0.610266 0 0)
(0.612975 0 0)
(0.615679 0 0)
(0.618381 0 0)
(0.62108 0 0)
(0.623775 0 0)
(0.626467 0 0)
(0.629155 0 0)
(0.63184 0 0)
(0.634522 0 0)
(0.637201 0 0)
(0.639876 0 0)
(0.642547 0 0)
(0.645215 0 0)
(0.647879 0 0)
(0.65054 0 0)
(0.653197 0 0)
(0.655851 0 0)
(0.658501 0 0)
(0.661147 0 0)
(0.663789 0 0)
(0.666428 0 0)
(0.669063 0 0)
(0.671694 0 0)
(0.674321 0 0)
(0.676944 0 0)
(0.679563 0 0)
(0.682178 0 0)
(0.684789 0 0)
(0.687397 0 0)
(0.69 0 0)
(0.692598 0 0)
(0.695193 0 0)
(0.697783 0 0)
(0.70037 0 0)
(0.702952 0 0)
(0.705529 0 0)
(0.708102 0 0)
(0.710671 0 0)
(0.713235 0 0)
(0.715795 0 0)
(0.71835 0 0)
(0.7209 0 0)
(0.723446 0 0)
(0.725988 0 0)
(0.728524 0 0)
(0.731056 0 0)
(0.733583 0 0)
(0.736104 0 0)
(0.738621 0 0)
(0.741134 0 0)
(0.743641 0 0)
(0.746143 0 0)
(0.748639 0 0)
(0.751131 0 0)
(0.753617 0 0)
(0.756099 0 0)
(0.758574 0 0)
(0.761045 0 0)
(0.76351 0 0)
(0.765969 0 0)
(0.768423 0 0)
(0.770871 0 0)
(0.773314 0 0)
(0.775751 0 0)
(0.778182 0 0)
(0.780607 0 0)
(0.783026 0 0)
(0.785439 0 0)
(0.787847 0 0)
(0.790248 0 0)
(0.792643 0 0)
(0.795032 0 0)
(0.797414 0 0)
(0.79979 0 0)
(0.80216 0 0)
(0.804523 0 0)
(0.806879 0 0)
(0.809229 0 0)
(0.811572 0 0)
(0.813908 0 0)
(0.816238 0 0)
(0.81856 0 0)
(0.820875 0 0)
(0.823184 0 0)
(0.825485 0 0)
(0.827778 0 0)
(0.830065 0 0)
(0.832343 0 0)
(0.834615 0 0)
(0.836879 0 0)
(0.839134 0 0)
(0.841383 0 0)
(0.843623 0 0)
(0.845855 0 0)
(0.848079 0 0)
(0.850295 0 0)
(0.852503 0 0)
(0.854702 0 0)
(0.856892 0 0)
(0.859074 0 0)
(0.861248 0 0)
(0.863412 0 0)
(0.865568 0 0)
(0.867714 0 0)
(0.869851 0 0)
(0.871979 0 0)
(0.874098 0 0)
(0.876207 0 0)
(0.878306 0 0)
(0.880395 0 0)
(0.882475 0 0)
(0.884545 0 0)
(0.886604 0 0)
(0.888653 0 0)
(0.890691 0 0)
(0.892719 0 0)
(0.894736 0 0)
(0.896742 0 0)
(0.898737 0 0)
(0.900721 0 0)
(0.902693 0 0)
(0.904654 0 0)
(0.906603 0 0)
(0.90854 0 0)
(0.910465 0 0)
(0.912378 0 0)
(0.914278 0 0)
(0.916166 0 0)
(0.918041 0 0)
(0.919902 0 0)
(0.921751 0 0)
(0.923586 0 0)
(0.925407 0 0)
(0.927215 0 0)
(0.929008 0 0)
(0.930787 0 0)
(0.932551 0 0)
(0.934301 0 0)
(0.936036 0 0)
(0.937755 0 0)
(0.939458 0 0)
(0.941146 0 0)
(0.942818 0 0)
(0.944473 0 0)
(0.946111 0 0)
(0.947733 0 0)
(0.949337 0 0)
(0.950923 0 0)
(0.952492 0 0)
(0.954042 0 0)
(0.955573 0 0)
(0.957086 0 0)
(0.958579 0 0)
(0.960052 0 0)
(0.961505 0 0)
(0.962938 0 0)
(0.964349 0 0)
(0.96574 0 0)
(0.967108 0 0)
(0.968454 0 0)
(0.969777 0 0)
(0.971077 0 0)
(0.972353 0 0)
(0.973605 0 0)
(0.974832 0 0)
(0.976033 0 0)
(0.977208 0 0)
(0.978357 0 0)
(0.979478 0 0)
(0.980572 0 0)
(0.981637 0 0)
(0.982672 0 0)
(0.983677 0 0)
(0.984652 0 0)
(0.985594 0 0)
(0.986504 0 0)
(0.987381 0 0)
(0.988224 0 0)
(0.989031 0 0)
(0.989802 0 0)
(0.990535 0 0)
(0.99123 0 0)
(0.991885 0 0)
(0.992504 0 0)
(0.993042 0 0)
(0.993887 0 0)
(0.991458 0 0)
(1.01808 0 0)
(0.61961 0 0)
(-0.618174 0 0)
(-1.0181 0 0)
(-0.991456 0 0)
(-0.993887 0 0)
(-0.993042 0 0)
(-0.992504 0 0)
(-0.991885 0 0)
(-0.99123 0 0)
(-0.990535 0 0)
(-0.989801 0 0)
(-0.989031 0 0)
(-0.988223 0 0)
(-0.987381 0 0)
(-0.986504 0 0)
(-0.985594 0 0)
(-0.984651 0 0)
(-0.983677 0 0)
(-0.982671 0 0)
(-0.981636 0 0)
(-0.980571 0 0)
(-0.979478 0 0)
(-0.978356 0 0)
(-0.977208 0 0)
(-0.976032 0 0)
(-0.974831 0 0)
(-0.973604 0 0)
(-0.972352 0 0)
(-0.971076 0 0)
(-0.969776 0 0)
(-0.968453 0 0)
(-0.967107 0 0)
(-0.965739 0 0)
(-0.964348 0 0)
(-0.962937 0 0)
(-0.961504 0 0)
(-0.960051 0 0)
(-0.958578 0 0)
(-0.957085 0 0)
(-0.955572 0 0)
(-0.954041 0 0)
(-0.95249 0 0)
(-0.950922 0 0)
(-0.949335 0 0)
(-0.947731 0 0)
(-0.94611 0 0)
(-0.944471 0 0)
(-0.942816 0 0)
(-0.941145 0 0)
(-0.939457 0 0)
(-0.937753 0 0)
(-0.936034 0 0)
(-0.934299 0 0)
(-0.93255 0 0)
(-0.930785 0 0)
(-0.929006 0 0)
(-0.927213 0 0)
(-0.925406 0 0)
(-0.923584 0 0)
(-0.921749 0 0)
(-0.919901 0 0)
(-0.918039 0 0)
(-0.916164 0 0)
(-0.914276 0 0)
(-0.912376 0 0)
(-0.910463 0 0)
(-0.908538 0 0)
(-0.906601 0 0)
(-0.904652 0 0)
(-0.902691 0 0)
(-0.900719 0 0)
(-0.898735 0 0)
(-0.89674 0 0)
(-0.894734 0 0)
(-0.892717 0 0)
(-0.890689 0 0)
(-0.888651 0 0)
(-0.886602 0 0)
(-0.884543 0 0)
(-0.882473 0 0)
(-0.880393 0 0)
(-0.878304 0 0)
(-0.876205 0 0)
(-0.874096 0 0)
(-0.871977 0 0)
(-0.869849 0 0)
(-0.867712 0 0)
(-0.865565 0 0)
(-0.86341 0 0)
(-0.861245 0 0)
(-0.859072 0 0)
(-0.85689 0 0)
(-0.8547 0 0)
(-0.8525 0 0)
(-0.850293 0 0)
(-0.848077 0 0)
(-0.845853 0 0)
(-0.843621 0 0)
(-0.84138 0 0)
(-0.839132 0 0)
(-0.836876 0 0)
(-0.834613 0 0)
(-0.832341 0 0)
(-0.830062 0 0)
(-0.827776 0 0)
(-0.825482 0 0)
(-0.823181 0 0)
(-0.820873 0 0)
(-0.818558 0 0)
(-0.816235 0 0)
(-0.813906 0 0)
(-0.81157 0 0)
(-0.809227 0 0)
(-0.806877 0 0)
(-0.80452 0 0)
(-0.802157 0 0)
(-0.799788 0 0)
(-0.797412 0 0)
(-0.795029 0 0)
(-0.792641 0 0)
(-0.790246 0 0)
(-0.787844 0 0)
(-0.785437 0 0)
(-0.783024 0 0)
(-0.780605 0 0)
(-0.778179 0 0)
(-0.775748 0 0)
(-0.773312 0 0)
(-0.770869 0 0)
(-0.768421 0 0)
(-0.765967 0 0)
(-0.763507 0 0)
(-0.761042 0 0)
(-0.758572 0 0)
(-0.756096 0 0)
(-0.753615 0 0)
(-0.751129 0 0)
(-0.748637 0 0)
(-0.74614 0 0)
(-0.743638 0 0)
(-0.741131 0 0)
(-0.738619 0 0)
(-0.736102 0 0)
(-0.73358 0 0)
(-0.731053 0 0)
(-0.728522 0 0)
(-0.725985 0 0)
(-0.723444 0 0)
(-0.720898 0 0)
(-0.718348 0 0)
(-0.715793 0 0)
(-0.713233 0 0)
(-0.710669 0 0)
(-0.7081 0 0)
(-0.705527 0 0)
(-0.702949 0 0)
(-0.700367 0 0)
(-0.697781 0 0)
(-0.695191 0 0)
(-0.692596 0 0)
(-0.689997 0 0)
(-0.687394 0 0)
(-0.684787 0 0)
(-0.682176 0 0)
(-0.679561 0 0)
(-0.676942 0 0)
(-0.674319 0 0)
(-0.671692 0 0)
(-0.669061 0 0)
(-0.666426 0 0)
(-0.663787 0 0)
(-0.661145 0 0)
(-0.658499 0 0)
(-0.655849 0 0)
(-0.653195 0 0)
(-0.650538 0 0)
(-0.647877 0 0)
(-0.645213 0 0)
(-0.642545 0 0)
(-0.639874 0 0)
(-0.637199 0 0)
(-0.63452 0 0)
(-0.631838 0 0)
(-0.629153 0 0)
(-0.626465 0 0)
(-0.623773 0 0)
(-0.621078 0 0)
(-0.618379 0 0)
(-0.615678 0 0)
(-0.612973 0 0)
(-0.610265 0 0)
(-0.607553 0 0)
(-0.604839 0 0)
(-0.602121 0 0)
(-0.599401 0 0)
(-0.596677 0 0)
(-0.593951 0 0)
(-0.591221 0 0)
(-0.588489 0 0)
(-0.585753 0 0)
(-0.583015 0 0)
(-0.580273 0 0)
(-0.577529 0 0)
(-0.574782 0 0)
(-0.572032 0 0)
(-0.56928 0 0)
(-0.566524 0 0)
(-0.563766 0 0)
(-0.561005 0 0)
(-0.558242 0 0)
(-0.555476 0 0)
(-0.552707 0 0)
(-0.549935 0 0)
(-0.547161 0 0)
(-0.544384 0 0)
(-0.541605 0 0)
(-0.538824 0 0)
(-0.536039 0 0)
(-0.533253 0 0)
(-0.530463 0 0)
(-0.527672 0 0)
(-0.524878 0 0)
(-0.522081 0 0)
(-0.519282 0 0)
(-0.516481 0 0)
(-0.513678 0 0)
(-0.510872 0 0)
(-0.508064 0 0)
(-0.505253 0 0)
(-0.50244 0 0)
(-0.499626 0 0)
(-0.496808 0 0)
(-0.493989 0 0)
(-0.491168 0 0)
(-0.488344 0 0)
(-0.485518 0 0)
(-0.48269 0 0)
(-0.47986 0 0)
(-0.477028 0 0)
(-0.474194 0 0)
(-0.471358 0 0)
(-0.468519 0 0)
(-0.465679 0 0)
(-0.462837 0 0)
(-0.459993 0 0)
(-0.457147 0 0)
(-0.454298 0 0)
(-0.451448 0 0)
(-0.448596 0 0)
(-0.445743 0 0)
(-0.442887 0 0)
(-0.440029 0 0)
(-0.43717 0 0)
(-0.434309 0 0)
(-0.431446 0 0)
(-0.428581 0 0)
(-0.425715 0 0)
(-0.422846 0 0)
(-0.419976 0 0)
(-0.417105 0 0)
(-0.414231 0 0)
(-0.411356 0 0)
(-0.408479 0 0)
(-0.405601 0 0)
(-0.402721 0 0)
(-0.399839 0 0)
(-0.396956 0 0)
(-0.394071 0 0)
(-0.391185 0 0)
(-0.388297 0 0)
(-0.385407 0 0)
(-0.382516 0 0)
(-0.379623 0 0)
(-0.376729 0 0)
(-0.373834 0 0)
(-0.370937 0 0)
(-0.368038 0 0)
(-0.365138 0 0)
(-0.362237 0 0)
(-0.359334 0 0)
(-0.35643 0 0)
(-0.353524 0 0)
(-0.350617 0 0)
(-0.347709 0 0)
(-0.344799 0 0)
(-0.341888 0 0)
(-0.338976 0 0)
(-0.336063 0 0)
(-0.333148 0 0)
(-0.330232 0 0)
(-0.327314 0 0)
(-0.324396 0 0)
(-0.321476 0 0)
(-0.318555 0 0)
(-0.315632 0 0)
(-0.312709 0 0)
(-0.309784 0 0)
(-0.306859 0 0)
(-0.303932 0 0)
(-0.301003 0 0)
(-0.298074 0 0)
(-0.295144 0 0)
(-0.292212 0 0)
(-0.28928 0 0)
(-0.286346 0 0)
(-0.283412 0 0)
(-0.280476 0 0)
(-0.277539 0 0)
(-0.274601 0 0)
(-0.271663 0 0)
(-0.268723 0 0)
(-0.265782 0 0)
(-0.26284 0 0)
(-0.259898 0 0)
(-0.256954 0 0)
(-0.254009 0 0)
(-0.251064 0 0)
(-0.248117 0 0)
(-0.24517 0 0)
(-0.242222 0 0)
(-0.239273 0 0)
(-0.236323 0 0)
(-0.233372 0 0)
(-0.23042 0 0)
(-0.227468 0 0)
(-0.224514 0 0)
(-0.22156 0 0)
(-0.218605 0 0)
(-0.215649 0 0)
(-0.212693 0 0)
(-0.209736 0 0)
(-0.206778 0 0)
(-0.203819 0 0)
(-0.20086 0 0)
(-0.197899 0 0)
(-0.194938 0 0)
(-0.191977 0 0)
(-0.189015 0 0)
(-0.186052 0 0)
(-0.183088 0 0)
(-0.180124 0 0)
(-0.177159 0 0)
(-0.174194 0 0)
(-0.171227 0 0)
(-0.168261 0 0)
(-0.165293 0 0)
(-0.162326 0 0)
(-0.159357 0 0)
(-0.156388 0 0)
(-0.153418 0 0)
(-0.150448 0 0)
(-0.147478 0 0)
(-0.144507 0 0)
(-0.141535 0 0)
(-0.138563 0 0)
(-0.13559 0 0)
(-0.132617 0 0)
(-0.129643 0 0)
(-0.126669 0 0)
(-0.123695 0 0)
(-0.12072 0 0)
(-0.117745 0 0)
(-0.114769 0 0)
(-0.111793 0 0)
(-0.108816 0 0)
(-0.10584 0 0)
(-0.102862 0 0)
(-0.0998847 0 0)
(-0.0969067 0 0)
(-0.0939285 0 0)
(-0.0909498 0 0)
(-0.0879709 0 0)
(-0.0849917 0 0)
(-0.0820121 0 0)
(-0.0790323 0 0)
(-0.0760523 0 0)
(-0.0730719 0 0)
(-0.0700913 0 0)
(-0.0671105 0 0)
(-0.0641294 0 0)
(-0.0611481 0 0)
(-0.0581666 0 0)
(-0.0551849 0 0)
(-0.052203 0 0)
(-0.049221 0 0)
(-0.0462387 0 0)
(-0.0432563 0 0)
(-0.0402738 0 0)
(-0.0372911 0 0)
(-0.0343083 0 0)
(-0.0313253 0 0)
(-0.0283423 0 0)
(-0.0253592 0 0)
(-0.0223759 0 0)
(-0.0193926 0 0)
(-0.0164093 0 0)
(-0.0134258 0 0)
(-0.0104424 0 0)
(-0.00745886 0 0)
(-0.00447532 0 0)
(-0.00149178 0 0)
)
;

boundaryField
{
    left
    {
        type            fixedValue;
        value           uniform (0 0 0);
    }
    right
    {
        type            fixedValue;
        value           uniform (0 0 0);
    }
    frontBackUpDown
    {
        type            empty;
    }
}


// ************************************************************************* //
