/*--------------------------------*- C++ -*----------------------------------*\
| =========                 |                                                 |
| \\      /  F ield         | OpenFOAM: The Open Source CFD Toolbox           |
|  \\    /   O peration     | Version:  2412                                  |
|   \\  /    A nd           | Website:  www.openfoam.com                      |
|    \\/     M anipulation  |                                                 |
\*---------------------------------------------------------------------------*/
FoamFile
{
    version     2.0;
    format      ascii;
    arch        "LSB;label=32;scalar=64";
    class       volVectorField;
    location    "0.52";
    object      U_0_0;
}
// * * * * * * * * * * * * * * * * * * * * * * * * * * * * * * * * * * * * * //

dimensions      [0 1 -1 0 0 0 0];

internalField   nonuniform List<vector> 
800
(
(0.00149354 0 0)
(0.00448064 0 0)
(0.00746773 0 0)
(0.0104548 0 0)
(0.0134418 0 0)
(0.0164288 0 0)
(0.0194157 0 0)
(0.0224026 0 0)
(0.0253894 0 0)
(0.0283761 0 0)
(0.0313627 0 0)
(0.0343492 0 0)
(0.0373355 0 0)
(0.0403218 0 0)
(0.0433079 0 0)
(0.0462938 0 0)
(0.0492796 0 0)
(0.0522653 0 0)
(0.0552507 0 0)
(0.058236 0 0)
(0.061221 0 0)
(0.0642059 0 0)
(0.0671905 0 0)
(0.0701749 0 0)
(0.073159 0 0)
(0.0761429 0 0)
(0.0791265 0 0)
(0.0821099 0 0)
(0.085093 0 0)
(0.0880757 0 0)
(0.0910582 0 0)
(0.0940404 0 0)
(0.0970222 0 0)
(0.100004 0 0)
(0.102985 0 0)
(0.105966 0 0)
(0.108946 0 0)
(0.111926 0 0)
(0.114906 0 0)
(0.117885 0 0)
(0.120864 0 0)
(0.123842 0 0)
(0.12682 0 0)
(0.129798 0 0)
(0.132775 0 0)
(0.135751 0 0)
(0.138728 0 0)
(0.141703 0 0)
(0.144678 0 0)
(0.147653 0 0)
(0.150627 0 0)
(0.153601 0 0)
(0.156574 0 0)
(0.159546 0 0)
(0.162518 0 0)
(0.16549 0 0)
(0.16846 0 0)
(0.171431 0 0)
(0.1744 0 0)
(0.177369 0 0)
(0.180338 0 0)
(0.183305 0 0)
(0.186272 0 0)
(0.189239 0 0)
(0.192204 0 0)
(0.19517 0 0)
(0.198134 0 0)
(0.201097 0 0)
(0.20406 0 0)
(0.207023 0 0)
(0.209984 0 0)
(0.212945 0 0)
(0.215905 0 0)
(0.218864 0 0)
(0.221822 0 0)
(0.22478 0 0)
(0.227736 0 0)
(0.230692 0 0)
(0.233647 0 0)
(0.236602 0 0)
(0.239555 0 0)
(0.242508 0 0)
(0.245459 0 0)
(0.24841 0 0)
(0.25136 0 0)
(0.254309 0 0)
(0.257257 0 0)
(0.260204 0 0)
(0.26315 0 0)
(0.266095 0 0)
(0.269039 0 0)
(0.271982 0 0)
(0.274924 0 0)
(0.277866 0 0)
(0.280806 0 0)
(0.283745 0 0)
(0.286683 0 0)
(0.28962 0 0)
(0.292555 0 0)
(0.29549 0 0)
(0.298424 0 0)
(0.301356 0 0)
(0.304288 0 0)
(0.307218 0 0)
(0.310147 0 0)
(0.313075 0 0)
(0.316002 0 0)
(0.318927 0 0)
(0.321852 0 0)
(0.324775 0 0)
(0.327697 0 0)
(0.330617 0 0)
(0.333537 0 0)
(0.336455 0 0)
(0.339372 0 0)
(0.342287 0 0)
(0.345201 0 0)
(0.348114 0 0)
(0.351026 0 0)
(0.353936 0 0)
(0.356845 0 0)
(0.359752 0 0)
(0.362658 0 0)
(0.365562 0 0)
(0.368466 0 0)
(0.371367 0 0)
(0.374267 0 0)
(0.377166 0 0)
(0.380063 0 0)
(0.382959 0 0)
(0.385853 0 0)
(0.388746 0 0)
(0.391637 0 0)
(0.394527 0 0)
(0.397415 0 0)
(0.400301 0 0)
(0.403186 0 0)
(0.406069 0 0)
(0.40895 0 0)
(0.41183 0 0)
(0.414708 0 0)
(0.417585 0 0)
(0.420459 0 0)
(0.423333 0 0)
(0.426204 0 0)
(0.429073 0 0)
(0.431941 0 0)
(0.434807 0 0)
(0.437671 0 0)
(0.440533 0 0)
(0.443394 0 0)
(0.446253 0 0)
(0.449109 0 0)
(0.451964 0 0)
(0.454817 0 0)
(0.457668 0 0)
(0.460517 0 0)
(0.463364 0 0)
(0.466209 0 0)
(0.469053 0 0)
(0.471894 0 0)
(0.474733 0 0)
(0.47757 0 0)
(0.480405 0 0)
(0.483237 0 0)
(0.486068 0 0)
(0.488897 0 0)
(0.491723 0 0)
(0.494548 0 0)
(0.49737 0 0)
(0.50019 0 0)
(0.503007 0 0)
(0.505823 0 0)
(0.508636 0 0)
(0.511447 0 0)
(0.514255 0 0)
(0.517061 0 0)
(0.519865 0 0)
(0.522667 0 0)
(0.525466 0 0)
(0.528263 0 0)
(0.531057 0 0)
(0.533849 0 0)
(0.536638 0 0)
(0.539425 0 0)
(0.542209 0 0)
(0.544991 0 0)
(0.54777 0 0)
(0.550547 0 0)
(0.553321 0 0)
(0.556092 0 0)
(0.558861 0 0)
(0.561627 0 0)
(0.56439 0 0)
(0.56715 0 0)
(0.569908 0 0)
(0.572663 0 0)
(0.575416 0 0)
(0.578165 0 0)
(0.580911 0 0)
(0.583655 0 0)
(0.586396 0 0)
(0.589134 0 0)
(0.591869 0 0)
(0.594601 0 0)
(0.597329 0 0)
(0.600055 0 0)
(0.602778 0 0)
(0.605498 0 0)
(0.608214 0 0)
(0.610928 0 0)
(0.613638 0 0)
(0.616345 0 0)
(0.619049 0 0)
(0.621749 0 0)
(0.624447 0 0)
(0.627141 0 0)
(0.629831 0 0)
(0.632518 0 0)
(0.635202 0 0)
(0.637883 0 0)
(0.64056 0 0)
(0.643233 0 0)
(0.645903 0 0)
(0.648569 0 0)
(0.651232 0 0)
(0.653891 0 0)
(0.656546 0 0)
(0.659198 0 0)
(0.661846 0 0)
(0.66449 0 0)
(0.667131 0 0)
(0.669767 0 0)
(0.6724 0 0)
(0.675029 0 0)
(0.677654 0 0)
(0.680274 0 0)
(0.682891 0 0)
(0.685504 0 0)
(0.688113 0 0)
(0.690717 0 0)
(0.693318 0 0)
(0.695914 0 0)
(0.698506 0 0)
(0.701093 0 0)
(0.703677 0 0)
(0.706256 0 0)
(0.70883 0 0)
(0.7114 0 0)
(0.713966 0 0)
(0.716527 0 0)
(0.719083 0 0)
(0.721635 0 0)
(0.724182 0 0)
(0.726725 0 0)
(0.729262 0 0)
(0.731795 0 0)
(0.734323 0 0)
(0.736846 0 0)
(0.739364 0 0)
(0.741877 0 0)
(0.744385 0 0)
(0.746888 0 0)
(0.749386 0 0)
(0.751879 0 0)
(0.754366 0 0)
(0.756848 0 0)
(0.759325 0 0)
(0.761796 0 0)
(0.764262 0 0)
(0.766722 0 0)
(0.769176 0 0)
(0.771625 0 0)
(0.774068 0 0)
(0.776506 0 0)
(0.778937 0 0)
(0.781363 0 0)
(0.783783 0 0)
(0.786197 0 0)
(0.788604 0 0)
(0.791006 0 0)
(0.793401 0 0)
(0.79579 0 0)
(0.798173 0 0)
(0.800549 0 0)
(0.802919 0 0)
(0.805282 0 0)
(0.807639 0 0)
(0.809988 0 0)
(0.812332 0 0)
(0.814668 0 0)
(0.816997 0 0)
(0.819319 0 0)
(0.821634 0 0)
(0.823942 0 0)
(0.826243 0 0)
(0.828537 0 0)
(0.830823 0 0)
(0.833101 0 0)
(0.835372 0 0)
(0.837635 0 0)
(0.83989 0 0)
(0.842138 0 0)
(0.844377 0 0)
(0.846609 0 0)
(0.848832 0 0)
(0.851047 0 0)
(0.853254 0 0)
(0.855452 0 0)
(0.857642 0 0)
(0.859823 0 0)
(0.861995 0 0)
(0.864158 0 0)
(0.866312 0 0)
(0.868458 0 0)
(0.870593 0 0)
(0.87272 0 0)
(0.874837 0 0)
(0.876944 0 0)
(0.879042 0 0)
(0.88113 0 0)
(0.883207 0 0)
(0.885275 0 0)
(0.887332 0 0)
(0.889379 0 0)
(0.891416 0 0)
(0.893441 0 0)
(0.895456 0 0)
(0.89746 0 0)
(0.899452 0 0)
(0.901434 0 0)
(0.903404 0 0)
(0.905362 0 0)
(0.907308 0 0)
(0.909242 0 0)
(0.911164 0 0)
(0.913074 0 0)
(0.914971 0 0)
(0.916855 0 0)
(0.918727 0 0)
(0.920585 0 0)
(0.92243 0 0)
(0.924261 0 0)
(0.926079 0 0)
(0.927883 0 0)
(0.929672 0 0)
(0.931447 0 0)
(0.933207 0 0)
(0.934952 0 0)
(0.936682 0 0)
(0.938397 0 0)
(0.940096 0 0)
(0.941779 0 0)
(0.943445 0 0)
(0.945095 0 0)
(0.946728 0 0)
(0.948344 0 0)
(0.949943 0 0)
(0.951524 0 0)
(0.953086 0 0)
(0.95463 0 0)
(0.956155 0 0)
(0.957661 0 0)
(0.959148 0 0)
(0.960615 0 0)
(0.962061 0 0)
(0.963486 0 0)
(0.96489 0 0)
(0.966273 0 0)
(0.967634 0 0)
(0.968972 0 0)
(0.970286 0 0)
(0.971578 0 0)
(0.972845 0 0)
(0.974088 0 0)
(0.975306 0 0)
(0.976498 0 0)
(0.977663 0 0)
(0.978802 0 0)
(0.979913 0 0)
(0.980996 0 0)
(0.98205 0 0)
(0.983074 0 0)
(0.984068 0 0)
(0.98503 0 0)
(0.985961 0 0)
(0.986858 0 0)
(0.987722 0 0)
(0.988551 0 0)
(0.989344 0 0)
(0.990101 0 0)
(0.99082 0 0)
(0.991499 0 0)
(0.992139 0 0)
(0.992741 0 0)
(0.993262 0 0)
(0.994091 0 0)
(0.991639 0 0)
(1.01828 0 0)
(0.619777 0 0)
(-0.618341 0 0)
(-1.0183 0 0)
(-0.991637 0 0)
(-0.994091 0 0)
(-0.993262 0 0)
(-0.992741 0 0)
(-0.992139 0 0)
(-0.991499 0 0)
(-0.990819 0 0)
(-0.9901 0 0)
(-0.989344 0 0)
(-0.988551 0 0)
(-0.987721 0 0)
(-0.986858 0 0)
(-0.98596 0 0)
(-0.98503 0 0)
(-0.984067 0 0)
(-0.983073 0 0)
(-0.982049 0 0)
(-0.980995 0 0)
(-0.979912 0 0)
(-0.978801 0 0)
(-0.977663 0 0)
(-0.976497 0 0)
(-0.975305 0 0)
(-0.974087 0 0)
(-0.972844 0 0)
(-0.971577 0 0)
(-0.970286 0 0)
(-0.968971 0 0)
(-0.967633 0 0)
(-0.966272 0 0)
(-0.964889 0 0)
(-0.963485 0 0)
(-0.96206 0 0)
(-0.960613 0 0)
(-0.959147 0 0)
(-0.95766 0 0)
(-0.956154 0 0)
(-0.954629 0 0)
(-0.953085 0 0)
(-0.951522 0 0)
(-0.949942 0 0)
(-0.948343 0 0)
(-0.946727 0 0)
(-0.945094 0 0)
(-0.943444 0 0)
(-0.941777 0 0)
(-0.940094 0 0)
(-0.938395 0 0)
(-0.936681 0 0)
(-0.934951 0 0)
(-0.933206 0 0)
(-0.931445 0 0)
(-0.92967 0 0)
(-0.927881 0 0)
(-0.926077 0 0)
(-0.92426 0 0)
(-0.922428 0 0)
(-0.920583 0 0)
(-0.918725 0 0)
(-0.916854 0 0)
(-0.914969 0 0)
(-0.913072 0 0)
(-0.911162 0 0)
(-0.90924 0 0)
(-0.907306 0 0)
(-0.90536 0 0)
(-0.903402 0 0)
(-0.901432 0 0)
(-0.899451 0 0)
(-0.897458 0 0)
(-0.895454 0 0)
(-0.893439 0 0)
(-0.891414 0 0)
(-0.889377 0 0)
(-0.88733 0 0)
(-0.885273 0 0)
(-0.883205 0 0)
(-0.881128 0 0)
(-0.87904 0 0)
(-0.876942 0 0)
(-0.874835 0 0)
(-0.872718 0 0)
(-0.870591 0 0)
(-0.868455 0 0)
(-0.86631 0 0)
(-0.864156 0 0)
(-0.861993 0 0)
(-0.859821 0 0)
(-0.85764 0 0)
(-0.85545 0 0)
(-0.853252 0 0)
(-0.851045 0 0)
(-0.84883 0 0)
(-0.846607 0 0)
(-0.844375 0 0)
(-0.842136 0 0)
(-0.839888 0 0)
(-0.837633 0 0)
(-0.83537 0 0)
(-0.833099 0 0)
(-0.83082 0 0)
(-0.828534 0 0)
(-0.826241 0 0)
(-0.82394 0 0)
(-0.821632 0 0)
(-0.819317 0 0)
(-0.816995 0 0)
(-0.814665 0 0)
(-0.812329 0 0)
(-0.809986 0 0)
(-0.807636 0 0)
(-0.80528 0 0)
(-0.802917 0 0)
(-0.800547 0 0)
(-0.798171 0 0)
(-0.795788 0 0)
(-0.793399 0 0)
(-0.791004 0 0)
(-0.788602 0 0)
(-0.786194 0 0)
(-0.783781 0 0)
(-0.781361 0 0)
(-0.778935 0 0)
(-0.776504 0 0)
(-0.774066 0 0)
(-0.771623 0 0)
(-0.769174 0 0)
(-0.766719 0 0)
(-0.764259 0 0)
(-0.761794 0 0)
(-0.759322 0 0)
(-0.756846 0 0)
(-0.754364 0 0)
(-0.751876 0 0)
(-0.749384 0 0)
(-0.746886 0 0)
(-0.744383 0 0)
(-0.741875 0 0)
(-0.739362 0 0)
(-0.736844 0 0)
(-0.734321 0 0)
(-0.731793 0 0)
(-0.72926 0 0)
(-0.726722 0 0)
(-0.72418 0 0)
(-0.721633 0 0)
(-0.719081 0 0)
(-0.716525 0 0)
(-0.713964 0 0)
(-0.711398 0 0)
(-0.708828 0 0)
(-0.706254 0 0)
(-0.703675 0 0)
(-0.701091 0 0)
(-0.698504 0 0)
(-0.695912 0 0)
(-0.693316 0 0)
(-0.690715 0 0)
(-0.688111 0 0)
(-0.685502 0 0)
(-0.682889 0 0)
(-0.680272 0 0)
(-0.677651 0 0)
(-0.675027 0 0)
(-0.672398 0 0)
(-0.669765 0 0)
(-0.667129 0 0)
(-0.664488 0 0)
(-0.661844 0 0)
(-0.659196 0 0)
(-0.656544 0 0)
(-0.653889 0 0)
(-0.65123 0 0)
(-0.648567 0 0)
(-0.645901 0 0)
(-0.643231 0 0)
(-0.640558 0 0)
(-0.637881 0 0)
(-0.6352 0 0)
(-0.632517 0 0)
(-0.629829 0 0)
(-0.627139 0 0)
(-0.624445 0 0)
(-0.621748 0 0)
(-0.619047 0 0)
(-0.616343 0 0)
(-0.613636 0 0)
(-0.610926 0 0)
(-0.608212 0 0)
(-0.605496 0 0)
(-0.602776 0 0)
(-0.600053 0 0)
(-0.597328 0 0)
(-0.594599 0 0)
(-0.591867 0 0)
(-0.589132 0 0)
(-0.586394 0 0)
(-0.583653 0 0)
(-0.58091 0 0)
(-0.578163 0 0)
(-0.575414 0 0)
(-0.572662 0 0)
(-0.569907 0 0)
(-0.567149 0 0)
(-0.564388 0 0)
(-0.561625 0 0)
(-0.558859 0 0)
(-0.55609 0 0)
(-0.553319 0 0)
(-0.550545 0 0)
(-0.547768 0 0)
(-0.544989 0 0)
(-0.542207 0 0)
(-0.539423 0 0)
(-0.536636 0 0)
(-0.533847 0 0)
(-0.531055 0 0)
(-0.528261 0 0)
(-0.525464 0 0)
(-0.522665 0 0)
(-0.519864 0 0)
(-0.51706 0 0)
(-0.514254 0 0)
(-0.511445 0 0)
(-0.508634 0 0)
(-0.505821 0 0)
(-0.503006 0 0)
(-0.500188 0 0)
(-0.497368 0 0)
(-0.494546 0 0)
(-0.491722 0 0)
(-0.488895 0 0)
(-0.486067 0 0)
(-0.483236 0 0)
(-0.480403 0 0)
(-0.477568 0 0)
(-0.474731 0 0)
(-0.471892 0 0)
(-0.469051 0 0)
(-0.466208 0 0)
(-0.463363 0 0)
(-0.460516 0 0)
(-0.457667 0 0)
(-0.454816 0 0)
(-0.451963 0 0)
(-0.449108 0 0)
(-0.446251 0 0)
(-0.443393 0 0)
(-0.440532 0 0)
(-0.43767 0 0)
(-0.434806 0 0)
(-0.43194 0 0)
(-0.429072 0 0)
(-0.426203 0 0)
(-0.423331 0 0)
(-0.420458 0 0)
(-0.417584 0 0)
(-0.414707 0 0)
(-0.411829 0 0)
(-0.408949 0 0)
(-0.406068 0 0)
(-0.403185 0 0)
(-0.4003 0 0)
(-0.397414 0 0)
(-0.394526 0 0)
(-0.391636 0 0)
(-0.388745 0 0)
(-0.385852 0 0)
(-0.382958 0 0)
(-0.380063 0 0)
(-0.377165 0 0)
(-0.374267 0 0)
(-0.371366 0 0)
(-0.368465 0 0)
(-0.365562 0 0)
(-0.362657 0 0)
(-0.359751 0 0)
(-0.356844 0 0)
(-0.353935 0 0)
(-0.351025 0 0)
(-0.348113 0 0)
(-0.345201 0 0)
(-0.342286 0 0)
(-0.339371 0 0)
(-0.336454 0 0)
(-0.333536 0 0)
(-0.330617 0 0)
(-0.327696 0 0)
(-0.324774 0 0)
(-0.321851 0 0)
(-0.318927 0 0)
(-0.316001 0 0)
(-0.313075 0 0)
(-0.310147 0 0)
(-0.307218 0 0)
(-0.304287 0 0)
(-0.301356 0 0)
(-0.298423 0 0)
(-0.29549 0 0)
(-0.292555 0 0)
(-0.289619 0 0)
(-0.286682 0 0)
(-0.283744 0 0)
(-0.280805 0 0)
(-0.277865 0 0)
(-0.274924 0 0)
(-0.271982 0 0)
(-0.269039 0 0)
(-0.266095 0 0)
(-0.263149 0 0)
(-0.260203 0 0)
(-0.257256 0 0)
(-0.254308 0 0)
(-0.251359 0 0)
(-0.24841 0 0)
(-0.245459 0 0)
(-0.242507 0 0)
(-0.239555 0 0)
(-0.236601 0 0)
(-0.233647 0 0)
(-0.230692 0 0)
(-0.227736 0 0)
(-0.224779 0 0)
(-0.221822 0 0)
(-0.218863 0 0)
(-0.215904 0 0)
(-0.212944 0 0)
(-0.209984 0 0)
(-0.207022 0 0)
(-0.20406 0 0)
(-0.201097 0 0)
(-0.198134 0 0)
(-0.195169 0 0)
(-0.192204 0 0)
(-0.189239 0 0)
(-0.186272 0 0)
(-0.183305 0 0)
(-0.180337 0 0)
(-0.177369 0 0)
(-0.1744 0 0)
(-0.17143 0 0)
(-0.16846 0 0)
(-0.16549 0 0)
(-0.162518 0 0)
(-0.159546 0 0)
(-0.156574 0 0)
(-0.153601 0 0)
(-0.150627 0 0)
(-0.147653 0 0)
(-0.144678 0 0)
(-0.141703 0 0)
(-0.138727 0 0)
(-0.135751 0 0)
(-0.132775 0 0)
(-0.129798 0 0)
(-0.12682 0 0)
(-0.123842 0 0)
(-0.120864 0 0)
(-0.117885 0 0)
(-0.114906 0 0)
(-0.111926 0 0)
(-0.108946 0 0)
(-0.105966 0 0)
(-0.102985 0 0)
(-0.100004 0 0)
(-0.0970221 0 0)
(-0.0940403 0 0)
(-0.0910581 0 0)
(-0.0880757 0 0)
(-0.0850929 0 0)
(-0.0821098 0 0)
(-0.0791265 0 0)
(-0.0761429 0 0)
(-0.073159 0 0)
(-0.0701748 0 0)
(-0.0671905 0 0)
(-0.0642058 0 0)
(-0.061221 0 0)
(-0.0582359 0 0)
(-0.0552507 0 0)
(-0.0522653 0 0)
(-0.0492796 0 0)
(-0.0462938 0 0)
(-0.0433079 0 0)
(-0.0403218 0 0)
(-0.0373355 0 0)
(-0.0343492 0 0)
(-0.0313627 0 0)
(-0.0283761 0 0)
(-0.0253894 0 0)
(-0.0224026 0 0)
(-0.0194158 0 0)
(-0.0164288 0 0)
(-0.0134418 0 0)
(-0.0104548 0 0)
(-0.00746775 0 0)
(-0.00448066 0 0)
(-0.00149356 0 0)
)
;

boundaryField
{
    left
    {
        type            fixedValue;
        value           uniform (0 0 0);
    }
    right
    {
        type            fixedValue;
        value           uniform (0 0 0);
    }
    frontBackUpDown
    {
        type            empty;
    }
}


// ************************************************************************* //
