/*--------------------------------*- C++ -*----------------------------------*\
| =========                 |                                                 |
| \\      /  F ield         | OpenFOAM: The Open Source CFD Toolbox           |
|  \\    /   O peration     | Version:  2412                                  |
|   \\  /    A nd           | Website:  www.openfoam.com                      |
|    \\/     M anipulation  |                                                 |
\*---------------------------------------------------------------------------*/
FoamFile
{
    version     2.0;
    format      ascii;
    arch        "LSB;label=32;scalar=64";
    class       volVectorField;
    location    "0.5";
    object      U_0_0_0;
}
// * * * * * * * * * * * * * * * * * * * * * * * * * * * * * * * * * * * * * //

dimensions      [0 1 -1 0 0 0 0];

internalField   nonuniform List<vector> 
800
(
(0.00153097 0 0)
(0.00459294 0 0)
(0.0076549 0 0)
(0.0107168 0 0)
(0.0137787 0 0)
(0.0168406 0 0)
(0.0199023 0 0)
(0.022964 0 0)
(0.0260257 0 0)
(0.0290872 0 0)
(0.0321486 0 0)
(0.0352099 0 0)
(0.038271 0 0)
(0.0413321 0 0)
(0.0443929 0 0)
(0.0474536 0 0)
(0.0505142 0 0)
(0.0535745 0 0)
(0.0566346 0 0)
(0.0596946 0 0)
(0.0627543 0 0)
(0.0658138 0 0)
(0.068873 0 0)
(0.071932 0 0)
(0.0749907 0 0)
(0.0780491 0 0)
(0.0811072 0 0)
(0.0841651 0 0)
(0.0872226 0 0)
(0.0902798 0 0)
(0.0933366 0 0)
(0.0963931 0 0)
(0.0994493 0 0)
(0.102505 0 0)
(0.10556 0 0)
(0.108615 0 0)
(0.11167 0 0)
(0.114724 0 0)
(0.117778 0 0)
(0.120831 0 0)
(0.123884 0 0)
(0.126936 0 0)
(0.129988 0 0)
(0.13304 0 0)
(0.136091 0 0)
(0.139141 0 0)
(0.142191 0 0)
(0.14524 0 0)
(0.148289 0 0)
(0.151337 0 0)
(0.154385 0 0)
(0.157432 0 0)
(0.160479 0 0)
(0.163524 0 0)
(0.16657 0 0)
(0.169614 0 0)
(0.172658 0 0)
(0.175702 0 0)
(0.178744 0 0)
(0.181786 0 0)
(0.184827 0 0)
(0.187868 0 0)
(0.190908 0 0)
(0.193947 0 0)
(0.196985 0 0)
(0.200023 0 0)
(0.20306 0 0)
(0.206096 0 0)
(0.209131 0 0)
(0.212165 0 0)
(0.215199 0 0)
(0.218232 0 0)
(0.221264 0 0)
(0.224295 0 0)
(0.227325 0 0)
(0.230355 0 0)
(0.233383 0 0)
(0.236411 0 0)
(0.239437 0 0)
(0.242463 0 0)
(0.245488 0 0)
(0.248511 0 0)
(0.251534 0 0)
(0.254556 0 0)
(0.257577 0 0)
(0.260597 0 0)
(0.263615 0 0)
(0.266633 0 0)
(0.26965 0 0)
(0.272665 0 0)
(0.27568 0 0)
(0.278693 0 0)
(0.281706 0 0)
(0.284717 0 0)
(0.287727 0 0)
(0.290736 0 0)
(0.293743 0 0)
(0.29675 0 0)
(0.299755 0 0)
(0.302759 0 0)
(0.305762 0 0)
(0.308764 0 0)
(0.311764 0 0)
(0.314764 0 0)
(0.317761 0 0)
(0.320758 0 0)
(0.323753 0 0)
(0.326747 0 0)
(0.32974 0 0)
(0.332731 0 0)
(0.335721 0 0)
(0.33871 0 0)
(0.341697 0 0)
(0.344682 0 0)
(0.347667 0 0)
(0.350649 0 0)
(0.353631 0 0)
(0.356611 0 0)
(0.359589 0 0)
(0.362566 0 0)
(0.365541 0 0)
(0.368515 0 0)
(0.371487 0 0)
(0.374458 0 0)
(0.377427 0 0)
(0.380395 0 0)
(0.38336 0 0)
(0.386325 0 0)
(0.389287 0 0)
(0.392248 0 0)
(0.395207 0 0)
(0.398165 0 0)
(0.401121 0 0)
(0.404075 0 0)
(0.407027 0 0)
(0.409978 0 0)
(0.412926 0 0)
(0.415873 0 0)
(0.418819 0 0)
(0.421762 0 0)
(0.424703 0 0)
(0.427643 0 0)
(0.43058 0 0)
(0.433516 0 0)
(0.43645 0 0)
(0.439382 0 0)
(0.442312 0 0)
(0.44524 0 0)
(0.448165 0 0)
(0.451089 0 0)
(0.454011 0 0)
(0.456931 0 0)
(0.459849 0 0)
(0.462764 0 0)
(0.465678 0 0)
(0.468589 0 0)
(0.471498 0 0)
(0.474405 0 0)
(0.47731 0 0)
(0.480212 0 0)
(0.483113 0 0)
(0.486011 0 0)
(0.488906 0 0)
(0.4918 0 0)
(0.494691 0 0)
(0.49758 0 0)
(0.500466 0 0)
(0.50335 0 0)
(0.506232 0 0)
(0.509111 0 0)
(0.511987 0 0)
(0.514862 0 0)
(0.517733 0 0)
(0.520603 0 0)
(0.523469 0 0)
(0.526333 0 0)
(0.529195 0 0)
(0.532054 0 0)
(0.53491 0 0)
(0.537763 0 0)
(0.540614 0 0)
(0.543462 0 0)
(0.546308 0 0)
(0.549151 0 0)
(0.55199 0 0)
(0.554828 0 0)
(0.557662 0 0)
(0.560493 0 0)
(0.563322 0 0)
(0.566147 0 0)
(0.56897 0 0)
(0.57179 0 0)
(0.574606 0 0)
(0.57742 0 0)
(0.58023 0 0)
(0.583038 0 0)
(0.585842 0 0)
(0.588644 0 0)
(0.591442 0 0)
(0.594237 0 0)
(0.597029 0 0)
(0.599817 0 0)
(0.602602 0 0)
(0.605384 0 0)
(0.608163 0 0)
(0.610938 0 0)
(0.61371 0 0)
(0.616478 0 0)
(0.619243 0 0)
(0.622005 0 0)
(0.624763 0 0)
(0.627517 0 0)
(0.630268 0 0)
(0.633015 0 0)
(0.635758 0 0)
(0.638498 0 0)
(0.641234 0 0)
(0.643967 0 0)
(0.646695 0 0)
(0.64942 0 0)
(0.652141 0 0)
(0.654858 0 0)
(0.657571 0 0)
(0.66028 0 0)
(0.662986 0 0)
(0.665687 0 0)
(0.668384 0 0)
(0.671077 0 0)
(0.673765 0 0)
(0.67645 0 0)
(0.67913 0 0)
(0.681806 0 0)
(0.684478 0 0)
(0.687146 0 0)
(0.689809 0 0)
(0.692467 0 0)
(0.695121 0 0)
(0.697771 0 0)
(0.700416 0 0)
(0.703056 0 0)
(0.705692 0 0)
(0.708323 0 0)
(0.71095 0 0)
(0.713571 0 0)
(0.716188 0 0)
(0.7188 0 0)
(0.721407 0 0)
(0.724009 0 0)
(0.726606 0 0)
(0.729198 0 0)
(0.731784 0 0)
(0.734366 0 0)
(0.736942 0 0)
(0.739513 0 0)
(0.742079 0 0)
(0.744639 0 0)
(0.747194 0 0)
(0.749744 0 0)
(0.752288 0 0)
(0.754826 0 0)
(0.757358 0 0)
(0.759885 0 0)
(0.762406 0 0)
(0.764922 0 0)
(0.767431 0 0)
(0.769934 0 0)
(0.772432 0 0)
(0.774923 0 0)
(0.777408 0 0)
(0.779887 0 0)
(0.78236 0 0)
(0.784826 0 0)
(0.787286 0 0)
(0.789739 0 0)
(0.792186 0 0)
(0.794626 0 0)
(0.79706 0 0)
(0.799486 0 0)
(0.801906 0 0)
(0.804319 0 0)
(0.806725 0 0)
(0.809124 0 0)
(0.811516 0 0)
(0.8139 0 0)
(0.816278 0 0)
(0.818647 0 0)
(0.82101 0 0)
(0.823364 0 0)
(0.825711 0 0)
(0.828051 0 0)
(0.830382 0 0)
(0.832706 0 0)
(0.835021 0 0)
(0.837329 0 0)
(0.839628 0 0)
(0.841919 0 0)
(0.844201 0 0)
(0.846475 0 0)
(0.84874 0 0)
(0.850997 0 0)
(0.853245 0 0)
(0.855484 0 0)
(0.857713 0 0)
(0.859934 0 0)
(0.862145 0 0)
(0.864347 0 0)
(0.86654 0 0)
(0.868723 0 0)
(0.870896 0 0)
(0.873059 0 0)
(0.875212 0 0)
(0.877355 0 0)
(0.879488 0 0)
(0.88161 0 0)
(0.883722 0 0)
(0.885823 0 0)
(0.887913 0 0)
(0.889992 0 0)
(0.89206 0 0)
(0.894117 0 0)
(0.896162 0 0)
(0.898196 0 0)
(0.900218 0 0)
(0.902227 0 0)
(0.904225 0 0)
(0.906211 0 0)
(0.908184 0 0)
(0.910144 0 0)
(0.912091 0 0)
(0.914026 0 0)
(0.915947 0 0)
(0.917855 0 0)
(0.919749 0 0)
(0.921629 0 0)
(0.923495 0 0)
(0.925347 0 0)
(0.927184 0 0)
(0.929006 0 0)
(0.930814 0 0)
(0.932606 0 0)
(0.934383 0 0)
(0.936143 0 0)
(0.937888 0 0)
(0.939617 0 0)
(0.941329 0 0)
(0.943024 0 0)
(0.944702 0 0)
(0.946363 0 0)
(0.948005 0 0)
(0.94963 0 0)
(0.951236 0 0)
(0.952824 0 0)
(0.954392 0 0)
(0.955941 0 0)
(0.95747 0 0)
(0.958979 0 0)
(0.960467 0 0)
(0.961934 0 0)
(0.96338 0 0)
(0.964804 0 0)
(0.966206 0 0)
(0.967585 0 0)
(0.96894 0 0)
(0.970272 0 0)
(0.97158 0 0)
(0.972863 0 0)
(0.974121 0 0)
(0.975352 0 0)
(0.976558 0 0)
(0.977736 0 0)
(0.978887 0 0)
(0.980009 0 0)
(0.981102 0 0)
(0.982166 0 0)
(0.983199 0 0)
(0.984201 0 0)
(0.985171 0 0)
(0.986109 0 0)
(0.987012 0 0)
(0.987882 0 0)
(0.988715 0 0)
(0.989513 0 0)
(0.990272 0 0)
(0.990994 0 0)
(0.991676 0 0)
(0.992317 0 0)
(0.992916 0 0)
(0.993472 0 0)
(0.993983 0 0)
(0.994448 0 0)
(0.994866 0 0)
(0.995234 0 0)
(0.995552 0 0)
(0.995817 0 0)
(0.996032 0 0)
(0.996152 0 0)
(0.996568 0 0)
(0.993662 0 0)
(1.02007 0 0)
(0.620804 0 0)
(-0.619367 0 0)
(-1.02009 0 0)
(-0.99366 0 0)
(-0.996568 0 0)
(-0.996152 0 0)
(-0.996032 0 0)
(-0.995817 0 0)
(-0.995552 0 0)
(-0.995234 0 0)
(-0.994866 0 0)
(-0.994448 0 0)
(-0.993983 0 0)
(-0.993471 0 0)
(-0.992916 0 0)
(-0.992316 0 0)
(-0.991675 0 0)
(-0.990994 0 0)
(-0.990272 0 0)
(-0.989512 0 0)
(-0.988715 0 0)
(-0.987881 0 0)
(-0.987012 0 0)
(-0.986108 0 0)
(-0.985171 0 0)
(-0.984201 0 0)
(-0.983199 0 0)
(-0.982165 0 0)
(-0.981102 0 0)
(-0.980008 0 0)
(-0.978886 0 0)
(-0.977735 0 0)
(-0.976557 0 0)
(-0.975352 0 0)
(-0.97412 0 0)
(-0.972862 0 0)
(-0.971579 0 0)
(-0.970271 0 0)
(-0.968939 0 0)
(-0.967584 0 0)
(-0.966205 0 0)
(-0.964803 0 0)
(-0.963379 0 0)
(-0.961933 0 0)
(-0.960466 0 0)
(-0.958978 0 0)
(-0.957469 0 0)
(-0.95594 0 0)
(-0.954391 0 0)
(-0.952822 0 0)
(-0.951235 0 0)
(-0.949629 0 0)
(-0.948004 0 0)
(-0.946361 0 0)
(-0.944701 0 0)
(-0.943023 0 0)
(-0.941328 0 0)
(-0.939615 0 0)
(-0.937887 0 0)
(-0.936142 0 0)
(-0.934381 0 0)
(-0.932604 0 0)
(-0.930812 0 0)
(-0.929005 0 0)
(-0.927182 0 0)
(-0.925345 0 0)
(-0.923493 0 0)
(-0.921627 0 0)
(-0.919747 0 0)
(-0.917853 0 0)
(-0.915945 0 0)
(-0.914024 0 0)
(-0.91209 0 0)
(-0.910142 0 0)
(-0.908182 0 0)
(-0.906209 0 0)
(-0.904223 0 0)
(-0.902226 0 0)
(-0.900216 0 0)
(-0.898194 0 0)
(-0.89616 0 0)
(-0.894115 0 0)
(-0.892058 0 0)
(-0.88999 0 0)
(-0.887911 0 0)
(-0.885821 0 0)
(-0.88372 0 0)
(-0.881608 0 0)
(-0.879486 0 0)
(-0.877353 0 0)
(-0.87521 0 0)
(-0.873057 0 0)
(-0.870894 0 0)
(-0.868721 0 0)
(-0.866538 0 0)
(-0.864345 0 0)
(-0.862143 0 0)
(-0.859932 0 0)
(-0.857711 0 0)
(-0.855482 0 0)
(-0.853243 0 0)
(-0.850995 0 0)
(-0.848738 0 0)
(-0.846473 0 0)
(-0.844199 0 0)
(-0.841916 0 0)
(-0.839626 0 0)
(-0.837326 0 0)
(-0.835019 0 0)
(-0.832703 0 0)
(-0.83038 0 0)
(-0.828048 0 0)
(-0.825709 0 0)
(-0.823362 0 0)
(-0.821007 0 0)
(-0.818645 0 0)
(-0.816275 0 0)
(-0.813898 0 0)
(-0.811514 0 0)
(-0.809122 0 0)
(-0.806723 0 0)
(-0.804317 0 0)
(-0.801904 0 0)
(-0.799484 0 0)
(-0.797057 0 0)
(-0.794624 0 0)
(-0.792184 0 0)
(-0.789737 0 0)
(-0.787284 0 0)
(-0.784824 0 0)
(-0.782357 0 0)
(-0.779885 0 0)
(-0.777406 0 0)
(-0.774921 0 0)
(-0.772429 0 0)
(-0.769932 0 0)
(-0.767429 0 0)
(-0.764919 0 0)
(-0.762404 0 0)
(-0.759883 0 0)
(-0.757356 0 0)
(-0.754824 0 0)
(-0.752285 0 0)
(-0.749741 0 0)
(-0.747192 0 0)
(-0.744637 0 0)
(-0.742077 0 0)
(-0.739511 0 0)
(-0.73694 0 0)
(-0.734364 0 0)
(-0.731782 0 0)
(-0.729195 0 0)
(-0.726604 0 0)
(-0.724007 0 0)
(-0.721405 0 0)
(-0.718798 0 0)
(-0.716186 0 0)
(-0.713569 0 0)
(-0.710948 0 0)
(-0.708321 0 0)
(-0.70569 0 0)
(-0.703054 0 0)
(-0.700414 0 0)
(-0.697769 0 0)
(-0.695119 0 0)
(-0.692465 0 0)
(-0.689807 0 0)
(-0.687144 0 0)
(-0.684476 0 0)
(-0.681804 0 0)
(-0.679128 0 0)
(-0.676448 0 0)
(-0.673763 0 0)
(-0.671075 0 0)
(-0.668382 0 0)
(-0.665685 0 0)
(-0.662984 0 0)
(-0.660278 0 0)
(-0.657569 0 0)
(-0.654856 0 0)
(-0.652139 0 0)
(-0.649418 0 0)
(-0.646693 0 0)
(-0.643965 0 0)
(-0.641232 0 0)
(-0.638496 0 0)
(-0.635756 0 0)
(-0.633013 0 0)
(-0.630266 0 0)
(-0.627515 0 0)
(-0.624761 0 0)
(-0.622003 0 0)
(-0.619241 0 0)
(-0.616476 0 0)
(-0.613708 0 0)
(-0.610936 0 0)
(-0.608161 0 0)
(-0.605382 0 0)
(-0.6026 0 0)
(-0.599815 0 0)
(-0.597027 0 0)
(-0.594235 0 0)
(-0.59144 0 0)
(-0.588642 0 0)
(-0.585841 0 0)
(-0.583036 0 0)
(-0.580229 0 0)
(-0.577418 0 0)
(-0.574604 0 0)
(-0.571788 0 0)
(-0.568968 0 0)
(-0.566146 0 0)
(-0.56332 0 0)
(-0.560492 0 0)
(-0.55766 0 0)
(-0.554826 0 0)
(-0.551989 0 0)
(-0.549149 0 0)
(-0.546306 0 0)
(-0.543461 0 0)
(-0.540613 0 0)
(-0.537762 0 0)
(-0.534908 0 0)
(-0.532052 0 0)
(-0.529193 0 0)
(-0.526332 0 0)
(-0.523468 0 0)
(-0.520601 0 0)
(-0.517732 0 0)
(-0.51486 0 0)
(-0.511986 0 0)
(-0.509109 0 0)
(-0.50623 0 0)
(-0.503349 0 0)
(-0.500465 0 0)
(-0.497578 0 0)
(-0.494689 0 0)
(-0.491798 0 0)
(-0.488905 0 0)
(-0.486009 0 0)
(-0.483111 0 0)
(-0.480211 0 0)
(-0.477308 0 0)
(-0.474404 0 0)
(-0.471497 0 0)
(-0.468588 0 0)
(-0.465676 0 0)
(-0.462763 0 0)
(-0.459847 0 0)
(-0.45693 0 0)
(-0.45401 0 0)
(-0.451088 0 0)
(-0.448164 0 0)
(-0.445238 0 0)
(-0.442311 0 0)
(-0.439381 0 0)
(-0.436449 0 0)
(-0.433515 0 0)
(-0.430579 0 0)
(-0.427642 0 0)
(-0.424702 0 0)
(-0.421761 0 0)
(-0.418817 0 0)
(-0.415872 0 0)
(-0.412925 0 0)
(-0.409977 0 0)
(-0.407026 0 0)
(-0.404074 0 0)
(-0.40112 0 0)
(-0.398164 0 0)
(-0.395207 0 0)
(-0.392247 0 0)
(-0.389286 0 0)
(-0.386324 0 0)
(-0.38336 0 0)
(-0.380394 0 0)
(-0.377426 0 0)
(-0.374457 0 0)
(-0.371486 0 0)
(-0.368514 0 0)
(-0.36554 0 0)
(-0.362565 0 0)
(-0.359588 0 0)
(-0.35661 0 0)
(-0.35363 0 0)
(-0.350649 0 0)
(-0.347666 0 0)
(-0.344682 0 0)
(-0.341696 0 0)
(-0.338709 0 0)
(-0.33572 0 0)
(-0.33273 0 0)
(-0.329739 0 0)
(-0.326747 0 0)
(-0.323753 0 0)
(-0.320757 0 0)
(-0.317761 0 0)
(-0.314763 0 0)
(-0.311764 0 0)
(-0.308763 0 0)
(-0.305762 0 0)
(-0.302759 0 0)
(-0.299755 0 0)
(-0.296749 0 0)
(-0.293743 0 0)
(-0.290735 0 0)
(-0.287726 0 0)
(-0.284716 0 0)
(-0.281705 0 0)
(-0.278693 0 0)
(-0.275679 0 0)
(-0.272665 0 0)
(-0.269649 0 0)
(-0.266633 0 0)
(-0.263615 0 0)
(-0.260596 0 0)
(-0.257576 0 0)
(-0.254556 0 0)
(-0.251534 0 0)
(-0.248511 0 0)
(-0.245487 0 0)
(-0.242462 0 0)
(-0.239437 0 0)
(-0.23641 0 0)
(-0.233383 0 0)
(-0.230354 0 0)
(-0.227325 0 0)
(-0.224295 0 0)
(-0.221264 0 0)
(-0.218232 0 0)
(-0.215199 0 0)
(-0.212165 0 0)
(-0.209131 0 0)
(-0.206095 0 0)
(-0.203059 0 0)
(-0.200023 0 0)
(-0.196985 0 0)
(-0.193947 0 0)
(-0.190908 0 0)
(-0.187868 0 0)
(-0.184827 0 0)
(-0.181786 0 0)
(-0.178744 0 0)
(-0.175701 0 0)
(-0.172658 0 0)
(-0.169614 0 0)
(-0.166569 0 0)
(-0.163524 0 0)
(-0.160478 0 0)
(-0.157432 0 0)
(-0.154385 0 0)
(-0.151337 0 0)
(-0.148289 0 0)
(-0.14524 0 0)
(-0.142191 0 0)
(-0.139141 0 0)
(-0.136091 0 0)
(-0.13304 0 0)
(-0.129988 0 0)
(-0.126936 0 0)
(-0.123884 0 0)
(-0.120831 0 0)
(-0.117778 0 0)
(-0.114724 0 0)
(-0.11167 0 0)
(-0.108615 0 0)
(-0.10556 0 0)
(-0.102505 0 0)
(-0.0994492 0 0)
(-0.0963931 0 0)
(-0.0933366 0 0)
(-0.0902797 0 0)
(-0.0872225 0 0)
(-0.084165 0 0)
(-0.0811072 0 0)
(-0.0780491 0 0)
(-0.0749906 0 0)
(-0.0719319 0 0)
(-0.068873 0 0)
(-0.0658137 0 0)
(-0.0627543 0 0)
(-0.0596946 0 0)
(-0.0566346 0 0)
(-0.0535745 0 0)
(-0.0505142 0 0)
(-0.0474536 0 0)
(-0.0443929 0 0)
(-0.0413321 0 0)
(-0.038271 0 0)
(-0.0352099 0 0)
(-0.0321486 0 0)
(-0.0290872 0 0)
(-0.0260257 0 0)
(-0.022964 0 0)
(-0.0199023 0 0)
(-0.0168406 0 0)
(-0.0137787 0 0)
(-0.0107168 0 0)
(-0.00765492 0 0)
(-0.00459296 0 0)
(-0.00153099 0 0)
)
;

boundaryField
{
    left
    {
        type            fixedValue;
        value           uniform (0 0 0);
    }
    right
    {
        type            fixedValue;
        value           uniform (0 0 0);
    }
    frontBackUpDown
    {
        type            empty;
    }
}


// ************************************************************************* //
