/*--------------------------------*- C++ -*----------------------------------*\
| =========                 |                                                 |
| \\      /  F ield         | OpenFOAM: The Open Source CFD Toolbox           |
|  \\    /   O peration     | Version:  2412                                  |
|   \\  /    A nd           | Website:  www.openfoam.com                      |
|    \\/     M anipulation  |                                                 |
\*---------------------------------------------------------------------------*/
FoamFile
{
    version     2.0;
    format      ascii;
    arch        "LSB;label=32;scalar=64";
    class       volVectorField;
    location    "0.5";
    object      U_0_0;
}
// * * * * * * * * * * * * * * * * * * * * * * * * * * * * * * * * * * * * * //

dimensions      [0 1 -1 0 0 0 0];

internalField   nonuniform List<vector> 
800
(
(0.00153004 0 0)
(0.00459014 0 0)
(0.00765022 0 0)
(0.0107103 0 0)
(0.0137703 0 0)
(0.0168303 0 0)
(0.0198902 0 0)
(0.02295 0 0)
(0.0260098 0 0)
(0.0290694 0 0)
(0.0321289 0 0)
(0.0351884 0 0)
(0.0382477 0 0)
(0.0413068 0 0)
(0.0443658 0 0)
(0.0474247 0 0)
(0.0504833 0 0)
(0.0535418 0 0)
(0.0566001 0 0)
(0.0596581 0 0)
(0.062716 0 0)
(0.0657736 0 0)
(0.0688309 0 0)
(0.0718881 0 0)
(0.0749449 0 0)
(0.0780015 0 0)
(0.0810577 0 0)
(0.0841137 0 0)
(0.0871694 0 0)
(0.0902247 0 0)
(0.0932797 0 0)
(0.0963344 0 0)
(0.0993886 0 0)
(0.102443 0 0)
(0.105496 0 0)
(0.108549 0 0)
(0.111602 0 0)
(0.114654 0 0)
(0.117706 0 0)
(0.120758 0 0)
(0.123809 0 0)
(0.126859 0 0)
(0.129909 0 0)
(0.132959 0 0)
(0.136008 0 0)
(0.139056 0 0)
(0.142104 0 0)
(0.145152 0 0)
(0.148199 0 0)
(0.151245 0 0)
(0.154291 0 0)
(0.157336 0 0)
(0.160381 0 0)
(0.163425 0 0)
(0.166468 0 0)
(0.169511 0 0)
(0.172553 0 0)
(0.175595 0 0)
(0.178636 0 0)
(0.181676 0 0)
(0.184715 0 0)
(0.187754 0 0)
(0.190792 0 0)
(0.193829 0 0)
(0.196866 0 0)
(0.199902 0 0)
(0.202937 0 0)
(0.205971 0 0)
(0.209004 0 0)
(0.212037 0 0)
(0.215069 0 0)
(0.2181 0 0)
(0.22113 0 0)
(0.224159 0 0)
(0.227188 0 0)
(0.230215 0 0)
(0.233242 0 0)
(0.236268 0 0)
(0.239293 0 0)
(0.242316 0 0)
(0.245339 0 0)
(0.248361 0 0)
(0.251382 0 0)
(0.254402 0 0)
(0.257422 0 0)
(0.26044 0 0)
(0.263457 0 0)
(0.266472 0 0)
(0.269487 0 0)
(0.272501 0 0)
(0.275514 0 0)
(0.278526 0 0)
(0.281536 0 0)
(0.284546 0 0)
(0.287554 0 0)
(0.290561 0 0)
(0.293567 0 0)
(0.296572 0 0)
(0.299575 0 0)
(0.302578 0 0)
(0.305579 0 0)
(0.308579 0 0)
(0.311578 0 0)
(0.314575 0 0)
(0.317571 0 0)
(0.320566 0 0)
(0.32356 0 0)
(0.326552 0 0)
(0.329543 0 0)
(0.332533 0 0)
(0.335521 0 0)
(0.338508 0 0)
(0.341493 0 0)
(0.344477 0 0)
(0.34746 0 0)
(0.350441 0 0)
(0.35342 0 0)
(0.356399 0 0)
(0.359375 0 0)
(0.362351 0 0)
(0.365324 0 0)
(0.368296 0 0)
(0.371267 0 0)
(0.374236 0 0)
(0.377204 0 0)
(0.380169 0 0)
(0.383134 0 0)
(0.386096 0 0)
(0.389057 0 0)
(0.392016 0 0)
(0.394974 0 0)
(0.39793 0 0)
(0.400884 0 0)
(0.403837 0 0)
(0.406787 0 0)
(0.409736 0 0)
(0.412683 0 0)
(0.415629 0 0)
(0.418572 0 0)
(0.421514 0 0)
(0.424454 0 0)
(0.427392 0 0)
(0.430328 0 0)
(0.433262 0 0)
(0.436194 0 0)
(0.439125 0 0)
(0.442053 0 0)
(0.444979 0 0)
(0.447904 0 0)
(0.450826 0 0)
(0.453746 0 0)
(0.456665 0 0)
(0.459581 0 0)
(0.462495 0 0)
(0.465407 0 0)
(0.468317 0 0)
(0.471224 0 0)
(0.47413 0 0)
(0.477033 0 0)
(0.479934 0 0)
(0.482833 0 0)
(0.485729 0 0)
(0.488624 0 0)
(0.491516 0 0)
(0.494405 0 0)
(0.497293 0 0)
(0.500178 0 0)
(0.50306 0 0)
(0.50594 0 0)
(0.508818 0 0)
(0.511694 0 0)
(0.514566 0 0)
(0.517437 0 0)
(0.520305 0 0)
(0.52317 0 0)
(0.526032 0 0)
(0.528893 0 0)
(0.53175 0 0)
(0.534605 0 0)
(0.537457 0 0)
(0.540307 0 0)
(0.543154 0 0)
(0.545998 0 0)
(0.548839 0 0)
(0.551678 0 0)
(0.554513 0 0)
(0.557346 0 0)
(0.560176 0 0)
(0.563004 0 0)
(0.565828 0 0)
(0.568649 0 0)
(0.571468 0 0)
(0.574283 0 0)
(0.577096 0 0)
(0.579905 0 0)
(0.582711 0 0)
(0.585515 0 0)
(0.588315 0 0)
(0.591112 0 0)
(0.593905 0 0)
(0.596696 0 0)
(0.599483 0 0)
(0.602267 0 0)
(0.605048 0 0)
(0.607826 0 0)
(0.6106 0 0)
(0.61337 0 0)
(0.616138 0 0)
(0.618901 0 0)
(0.621662 0 0)
(0.624419 0 0)
(0.627172 0 0)
(0.629922 0 0)
(0.632668 0 0)
(0.63541 0 0)
(0.638149 0 0)
(0.640884 0 0)
(0.643616 0 0)
(0.646343 0 0)
(0.649067 0 0)
(0.651787 0 0)
(0.654503 0 0)
(0.657215 0 0)
(0.659923 0 0)
(0.662628 0 0)
(0.665328 0 0)
(0.668024 0 0)
(0.670716 0 0)
(0.673404 0 0)
(0.676088 0 0)
(0.678767 0 0)
(0.681442 0 0)
(0.684113 0 0)
(0.68678 0 0)
(0.689442 0 0)
(0.6921 0 0)
(0.694753 0 0)
(0.697402 0 0)
(0.700046 0 0)
(0.702686 0 0)
(0.705321 0 0)
(0.707951 0 0)
(0.710577 0 0)
(0.713198 0 0)
(0.715814 0 0)
(0.718425 0 0)
(0.721032 0 0)
(0.723633 0 0)
(0.726229 0 0)
(0.72882 0 0)
(0.731407 0 0)
(0.733988 0 0)
(0.736563 0 0)
(0.739134 0 0)
(0.741699 0 0)
(0.744259 0 0)
(0.746813 0 0)
(0.749362 0 0)
(0.751906 0 0)
(0.754443 0 0)
(0.756976 0 0)
(0.759502 0 0)
(0.762023 0 0)
(0.764538 0 0)
(0.767047 0 0)
(0.76955 0 0)
(0.772047 0 0)
(0.774538 0 0)
(0.777023 0 0)
(0.779501 0 0)
(0.781974 0 0)
(0.78444 0 0)
(0.786899 0 0)
(0.789353 0 0)
(0.791799 0 0)
(0.794239 0 0)
(0.796673 0 0)
(0.799099 0 0)
(0.801519 0 0)
(0.803932 0 0)
(0.806338 0 0)
(0.808737 0 0)
(0.811129 0 0)
(0.813513 0 0)
(0.81589 0 0)
(0.81826 0 0)
(0.820623 0 0)
(0.822977 0 0)
(0.825325 0 0)
(0.827664 0 0)
(0.829996 0 0)
(0.83232 0 0)
(0.834635 0 0)
(0.836943 0 0)
(0.839243 0 0)
(0.841534 0 0)
(0.843817 0 0)
(0.846091 0 0)
(0.848357 0 0)
(0.850614 0 0)
(0.852862 0 0)
(0.855101 0 0)
(0.857332 0 0)
(0.859553 0 0)
(0.861765 0 0)
(0.863968 0 0)
(0.866161 0 0)
(0.868344 0 0)
(0.870518 0 0)
(0.872682 0 0)
(0.874836 0 0)
(0.87698 0 0)
(0.879113 0 0)
(0.881237 0 0)
(0.883349 0 0)
(0.885451 0 0)
(0.887543 0 0)
(0.889623 0 0)
(0.891692 0 0)
(0.89375 0 0)
(0.895796 0 0)
(0.897831 0 0)
(0.899854 0 0)
(0.901866 0 0)
(0.903865 0 0)
(0.905852 0 0)
(0.907826 0 0)
(0.909788 0 0)
(0.911737 0 0)
(0.913673 0 0)
(0.915596 0 0)
(0.917505 0 0)
(0.919401 0 0)
(0.921283 0 0)
(0.923151 0 0)
(0.925005 0 0)
(0.926844 0 0)
(0.928668 0 0)
(0.930478 0 0)
(0.932272 0 0)
(0.934051 0 0)
(0.935815 0 0)
(0.937562 0 0)
(0.939293 0 0)
(0.941007 0 0)
(0.942705 0 0)
(0.944386 0 0)
(0.946049 0 0)
(0.947695 0 0)
(0.949322 0 0)
(0.950931 0 0)
(0.952522 0 0)
(0.954094 0 0)
(0.955646 0 0)
(0.957178 0 0)
(0.95869 0 0)
(0.960182 0 0)
(0.961653 0 0)
(0.963102 0 0)
(0.96453 0 0)
(0.965936 0 0)
(0.967319 0 0)
(0.968678 0 0)
(0.970015 0 0)
(0.971327 0 0)
(0.972614 0 0)
(0.973876 0 0)
(0.975113 0 0)
(0.976323 0 0)
(0.977506 0 0)
(0.978662 0 0)
(0.97979 0 0)
(0.980889 0 0)
(0.981958 0 0)
(0.982997 0 0)
(0.984005 0 0)
(0.984981 0 0)
(0.985925 0 0)
(0.986835 0 0)
(0.987711 0 0)
(0.988551 0 0)
(0.989356 0 0)
(0.990123 0 0)
(0.990852 0 0)
(0.991541 0 0)
(0.992191 0 0)
(0.992798 0 0)
(0.993362 0 0)
(0.993882 0 0)
(0.994357 0 0)
(0.994784 0 0)
(0.995162 0 0)
(0.99549 0 0)
(0.995766 0 0)
(0.995991 0 0)
(0.996123 0 0)
(0.99655 0 0)
(0.993655 0 0)
(1.02008 0 0)
(0.620839 0 0)
(-0.619402 0 0)
(-1.0201 0 0)
(-0.993653 0 0)
(-0.99655 0 0)
(-0.996123 0 0)
(-0.995991 0 0)
(-0.995765 0 0)
(-0.99549 0 0)
(-0.995162 0 0)
(-0.994784 0 0)
(-0.994356 0 0)
(-0.993882 0 0)
(-0.993362 0 0)
(-0.992798 0 0)
(-0.99219 0 0)
(-0.991541 0 0)
(-0.990852 0 0)
(-0.990123 0 0)
(-0.989355 0 0)
(-0.988551 0 0)
(-0.98771 0 0)
(-0.986835 0 0)
(-0.985924 0 0)
(-0.984981 0 0)
(-0.984004 0 0)
(-0.982996 0 0)
(-0.981957 0 0)
(-0.980888 0 0)
(-0.979789 0 0)
(-0.978662 0 0)
(-0.977506 0 0)
(-0.976322 0 0)
(-0.975112 0 0)
(-0.973876 0 0)
(-0.972613 0 0)
(-0.971326 0 0)
(-0.970014 0 0)
(-0.968678 0 0)
(-0.967318 0 0)
(-0.965935 0 0)
(-0.964529 0 0)
(-0.963101 0 0)
(-0.961652 0 0)
(-0.960181 0 0)
(-0.958689 0 0)
(-0.957177 0 0)
(-0.955645 0 0)
(-0.954092 0 0)
(-0.952521 0 0)
(-0.95093 0 0)
(-0.949321 0 0)
(-0.947693 0 0)
(-0.946048 0 0)
(-0.944384 0 0)
(-0.942704 0 0)
(-0.941006 0 0)
(-0.939291 0 0)
(-0.93756 0 0)
(-0.935813 0 0)
(-0.93405 0 0)
(-0.932271 0 0)
(-0.930476 0 0)
(-0.928667 0 0)
(-0.926842 0 0)
(-0.925003 0 0)
(-0.923149 0 0)
(-0.921281 0 0)
(-0.919399 0 0)
(-0.917504 0 0)
(-0.915594 0 0)
(-0.913671 0 0)
(-0.911735 0 0)
(-0.909786 0 0)
(-0.907824 0 0)
(-0.90585 0 0)
(-0.903863 0 0)
(-0.901864 0 0)
(-0.899853 0 0)
(-0.897829 0 0)
(-0.895794 0 0)
(-0.893748 0 0)
(-0.89169 0 0)
(-0.889621 0 0)
(-0.887541 0 0)
(-0.885449 0 0)
(-0.883347 0 0)
(-0.881235 0 0)
(-0.879111 0 0)
(-0.876978 0 0)
(-0.874834 0 0)
(-0.87268 0 0)
(-0.870516 0 0)
(-0.868342 0 0)
(-0.866159 0 0)
(-0.863965 0 0)
(-0.861763 0 0)
(-0.859551 0 0)
(-0.85733 0 0)
(-0.855099 0 0)
(-0.85286 0 0)
(-0.850612 0 0)
(-0.848355 0 0)
(-0.846089 0 0)
(-0.843814 0 0)
(-0.841532 0 0)
(-0.83924 0 0)
(-0.836941 0 0)
(-0.834633 0 0)
(-0.832317 0 0)
(-0.829994 0 0)
(-0.827662 0 0)
(-0.825322 0 0)
(-0.822975 0 0)
(-0.82062 0 0)
(-0.818258 0 0)
(-0.815888 0 0)
(-0.813511 0 0)
(-0.811126 0 0)
(-0.808735 0 0)
(-0.806336 0 0)
(-0.80393 0 0)
(-0.801517 0 0)
(-0.799097 0 0)
(-0.79667 0 0)
(-0.794237 0 0)
(-0.791797 0 0)
(-0.78935 0 0)
(-0.786897 0 0)
(-0.784437 0 0)
(-0.781971 0 0)
(-0.779499 0 0)
(-0.77702 0 0)
(-0.774535 0 0)
(-0.772044 0 0)
(-0.769547 0 0)
(-0.767044 0 0)
(-0.764535 0 0)
(-0.762021 0 0)
(-0.7595 0 0)
(-0.756973 0 0)
(-0.754441 0 0)
(-0.751903 0 0)
(-0.74936 0 0)
(-0.746811 0 0)
(-0.744257 0 0)
(-0.741697 0 0)
(-0.739132 0 0)
(-0.736561 0 0)
(-0.733985 0 0)
(-0.731404 0 0)
(-0.728818 0 0)
(-0.726227 0 0)
(-0.723631 0 0)
(-0.721029 0 0)
(-0.718423 0 0)
(-0.715812 0 0)
(-0.713196 0 0)
(-0.710575 0 0)
(-0.707949 0 0)
(-0.705319 0 0)
(-0.702684 0 0)
(-0.700044 0 0)
(-0.6974 0 0)
(-0.694751 0 0)
(-0.692098 0 0)
(-0.68944 0 0)
(-0.686778 0 0)
(-0.684111 0 0)
(-0.68144 0 0)
(-0.678765 0 0)
(-0.676086 0 0)
(-0.673402 0 0)
(-0.670714 0 0)
(-0.668022 0 0)
(-0.665326 0 0)
(-0.662626 0 0)
(-0.659921 0 0)
(-0.657213 0 0)
(-0.654501 0 0)
(-0.651785 0 0)
(-0.649065 0 0)
(-0.646341 0 0)
(-0.643614 0 0)
(-0.640882 0 0)
(-0.638147 0 0)
(-0.635408 0 0)
(-0.632666 0 0)
(-0.62992 0 0)
(-0.62717 0 0)
(-0.624417 0 0)
(-0.62166 0 0)
(-0.6189 0 0)
(-0.616136 0 0)
(-0.613368 0 0)
(-0.610598 0 0)
(-0.607824 0 0)
(-0.605046 0 0)
(-0.602266 0 0)
(-0.599481 0 0)
(-0.596694 0 0)
(-0.593904 0 0)
(-0.59111 0 0)
(-0.588313 0 0)
(-0.585513 0 0)
(-0.58271 0 0)
(-0.579903 0 0)
(-0.577094 0 0)
(-0.574282 0 0)
(-0.571466 0 0)
(-0.568648 0 0)
(-0.565826 0 0)
(-0.563002 0 0)
(-0.560175 0 0)
(-0.557345 0 0)
(-0.554512 0 0)
(-0.551676 0 0)
(-0.548837 0 0)
(-0.545996 0 0)
(-0.543152 0 0)
(-0.540305 0 0)
(-0.537456 0 0)
(-0.534603 0 0)
(-0.531749 0 0)
(-0.528891 0 0)
(-0.526031 0 0)
(-0.523168 0 0)
(-0.520303 0 0)
(-0.517435 0 0)
(-0.514565 0 0)
(-0.511692 0 0)
(-0.508817 0 0)
(-0.505939 0 0)
(-0.503059 0 0)
(-0.500176 0 0)
(-0.497291 0 0)
(-0.494404 0 0)
(-0.491514 0 0)
(-0.488622 0 0)
(-0.485728 0 0)
(-0.482832 0 0)
(-0.479933 0 0)
(-0.477032 0 0)
(-0.474128 0 0)
(-0.471223 0 0)
(-0.468315 0 0)
(-0.465406 0 0)
(-0.462494 0 0)
(-0.45958 0 0)
(-0.456663 0 0)
(-0.453745 0 0)
(-0.450825 0 0)
(-0.447903 0 0)
(-0.444978 0 0)
(-0.442052 0 0)
(-0.439124 0 0)
(-0.436193 0 0)
(-0.433261 0 0)
(-0.430327 0 0)
(-0.427391 0 0)
(-0.424453 0 0)
(-0.421513 0 0)
(-0.418571 0 0)
(-0.415628 0 0)
(-0.412683 0 0)
(-0.409735 0 0)
(-0.406786 0 0)
(-0.403836 0 0)
(-0.400883 0 0)
(-0.397929 0 0)
(-0.394973 0 0)
(-0.392016 0 0)
(-0.389056 0 0)
(-0.386095 0 0)
(-0.383133 0 0)
(-0.380169 0 0)
(-0.377203 0 0)
(-0.374235 0 0)
(-0.371266 0 0)
(-0.368296 0 0)
(-0.365323 0 0)
(-0.36235 0 0)
(-0.359375 0 0)
(-0.356398 0 0)
(-0.35342 0 0)
(-0.35044 0 0)
(-0.347459 0 0)
(-0.344476 0 0)
(-0.341492 0 0)
(-0.338507 0 0)
(-0.33552 0 0)
(-0.332532 0 0)
(-0.329542 0 0)
(-0.326551 0 0)
(-0.323559 0 0)
(-0.320566 0 0)
(-0.317571 0 0)
(-0.314575 0 0)
(-0.311577 0 0)
(-0.308578 0 0)
(-0.305579 0 0)
(-0.302577 0 0)
(-0.299575 0 0)
(-0.296571 0 0)
(-0.293567 0 0)
(-0.290561 0 0)
(-0.287553 0 0)
(-0.284545 0 0)
(-0.281536 0 0)
(-0.278525 0 0)
(-0.275514 0 0)
(-0.272501 0 0)
(-0.269487 0 0)
(-0.266472 0 0)
(-0.263456 0 0)
(-0.260439 0 0)
(-0.257421 0 0)
(-0.254402 0 0)
(-0.251382 0 0)
(-0.248361 0 0)
(-0.245339 0 0)
(-0.242316 0 0)
(-0.239292 0 0)
(-0.236267 0 0)
(-0.233242 0 0)
(-0.230215 0 0)
(-0.227187 0 0)
(-0.224159 0 0)
(-0.22113 0 0)
(-0.2181 0 0)
(-0.215069 0 0)
(-0.212037 0 0)
(-0.209004 0 0)
(-0.205971 0 0)
(-0.202936 0 0)
(-0.199901 0 0)
(-0.196866 0 0)
(-0.193829 0 0)
(-0.190792 0 0)
(-0.187754 0 0)
(-0.184715 0 0)
(-0.181676 0 0)
(-0.178635 0 0)
(-0.175595 0 0)
(-0.172553 0 0)
(-0.169511 0 0)
(-0.166468 0 0)
(-0.163425 0 0)
(-0.160381 0 0)
(-0.157336 0 0)
(-0.154291 0 0)
(-0.151245 0 0)
(-0.148199 0 0)
(-0.145152 0 0)
(-0.142104 0 0)
(-0.139056 0 0)
(-0.136008 0 0)
(-0.132959 0 0)
(-0.129909 0 0)
(-0.126859 0 0)
(-0.123809 0 0)
(-0.120758 0 0)
(-0.117706 0 0)
(-0.114654 0 0)
(-0.111602 0 0)
(-0.108549 0 0)
(-0.105496 0 0)
(-0.102442 0 0)
(-0.0993886 0 0)
(-0.0963343 0 0)
(-0.0932796 0 0)
(-0.0902246 0 0)
(-0.0871693 0 0)
(-0.0841137 0 0)
(-0.0810577 0 0)
(-0.0780014 0 0)
(-0.0749449 0 0)
(-0.071888 0 0)
(-0.0688309 0 0)
(-0.0657736 0 0)
(-0.0627159 0 0)
(-0.0596581 0 0)
(-0.0566 0 0)
(-0.0535418 0 0)
(-0.0504833 0 0)
(-0.0474247 0 0)
(-0.0443658 0 0)
(-0.0413068 0 0)
(-0.0382477 0 0)
(-0.0351884 0 0)
(-0.032129 0 0)
(-0.0290694 0 0)
(-0.0260098 0 0)
(-0.02295 0 0)
(-0.0198902 0 0)
(-0.0168303 0 0)
(-0.0137703 0 0)
(-0.0107103 0 0)
(-0.00765024 0 0)
(-0.00459016 0 0)
(-0.00153005 0 0)
)
;

boundaryField
{
    left
    {
        type            fixedValue;
        value           uniform (0 0 0);
    }
    right
    {
        type            fixedValue;
        value           uniform (0 0 0);
    }
    frontBackUpDown
    {
        type            empty;
    }
}


// ************************************************************************* //
