/*--------------------------------*- C++ -*----------------------------------*\
| =========                 |                                                 |
| \\      /  F ield         | OpenFOAM: The Open Source CFD Toolbox           |
|  \\    /   O peration     | Version:  2412                                  |
|   \\  /    A nd           | Website:  www.openfoam.com                      |
|    \\/     M anipulation  |                                                 |
\*---------------------------------------------------------------------------*/
FoamFile
{
    version     2.0;
    format      ascii;
    arch        "LSB;label=32;scalar=64";
    class       volScalarField;
    location    "1.5";
    object      p;
}
// * * * * * * * * * * * * * * * * * * * * * * * * * * * * * * * * * * * * * //

dimensions      [0 2 -2 0 0 0 0];

internalField   nonuniform List<scalar> 
2200
(
1.04411
1.03635
1.03601
1.04803
1.07584
1.12605
1.21928
1.37625
1.58757
1.81147
1.83272
1.64426
1.45419
1.30961
1.2235
1.17722
1.15096
1.13954
1.13995
1.14781
1.0803
1.0562
1.04931
1.07072
1.11288
1.19403
1.34244
1.53415
1.76128
2.01427
2.03552
1.81248
1.60751
1.4308
1.29061
1.21341
1.17335
1.15305
1.1605
1.18479
1.29386
1.24916
1.17469
1.13006
1.1721
1.29881
1.51291
1.81845
2.14747
2.38221
2.4013
2.19825
1.89251
1.59975
1.39465
1.27389
1.23485
1.28066
1.35569
1.40054
1.82408
1.76196
1.62603
1.42457
1.32821
1.40954
1.6344
2.07305
2.54446
2.89679
2.91551
2.60222
2.15544
1.73053
1.51416
1.43838
1.53614
1.7385
1.87478
1.9368
2.81098
2.73557
2.57145
2.31203
2.0503
1.92159
1.97658
2.29535
2.79354
3.32227
3.3451
2.8603
2.38993
2.08779
2.03908
2.16967
2.43262
2.69221
2.85608
2.93154
4.22664
4.15899
3.98984
3.7174
3.39291
3.12072
2.99024
2.98682
3.25089
3.6356
3.66466
3.32734
3.09341
3.11097
3.24981
3.52392
3.84941
4.122
4.29095
4.35841
5.77337
5.72078
5.57793
5.3261
4.99778
4.66503
4.48767
4.4027
4.47029
4.57545
4.60695
4.55138
4.52245
4.62675
4.81116
5.14727
5.47533
5.72516
5.86655
5.9186
7.15406
7.11568
7.01126
6.80882
6.52669
6.21275
6.03007
6.07342
6.23977
6.40183
6.4397
6.34039
6.21098
6.18995
6.38039
6.696
6.97618
7.17738
7.28146
7.31977
8.21568
8.18944
8.12249
7.98397
7.77226
7.55212
7.34967
7.41217
7.65384
7.91934
7.96321
7.77293
7.57531
7.53875
7.74548
7.96645
8.1795
8.31846
8.38557
8.41211
8.91798
8.90035
8.86146
8.77967
8.65373
8.47233
8.30178
8.26082
8.34828
8.50424
8.55826
8.48519
8.45447
8.51823
8.70509
8.893
9.01909
9.10023
9.13886
9.15634
9.29953
9.28625
9.26283
9.21481
9.14406
9.04679
8.9166
8.77158
8.8067
8.85982
8.92878
8.97704
9.00624
9.18199
9.33265
9.43663
9.5107
9.56101
9.58579
9.59912
9.45217
9.44171
9.42672
9.39835
9.35854
9.30279
9.23078
9.18812
9.21714
9.28273
9.357
9.42751
9.47286
9.56613
9.66253
9.72923
9.77737
9.81135
9.82961
9.84224
9.46648
9.45886
9.45028
9.43482
9.41737
9.39583
9.36998
9.38001
9.43701
9.53271
9.62384
9.69314
9.73382
9.79025
9.84828
9.89221
9.92398
9.94701
9.96053
9.97157
9.39636
9.39099
9.38732
9.38045
9.37465
9.37424
9.37446
9.39602
9.46978
9.56772
9.69682
9.7842
9.84292
9.90118
9.94825
9.982
10.0063
10.0229
10.0325
10.0408
9.26904
9.26532
9.26466
9.26473
9.26639
9.277
9.30013
9.3357
9.42375
9.53908
9.69771
9.8088
9.89593
9.9641
10.0109
10.0432
10.0651
10.0792
10.0863
10.0917
9.09689
9.09588
9.09877
9.10537
9.11763
9.13879
9.18129
9.24204
9.3512
9.50999
9.68898
9.83073
9.94471
10.0233
10.0763
10.1124
10.1349
10.1491
10.1557
10.1604
8.88916
8.89007
8.89597
8.90889
8.93144
8.96747
9.02834
9.11765
9.24973
9.46499
9.67731
9.86407
10.0074
10.1006
10.165
10.2081
10.2357
10.2526
10.2626
10.2682
8.63196
8.63582
8.64685
8.66568
8.69945
8.75206
8.83614
8.96385
9.13881
9.3943
9.6675
9.90987
10.0835
10.2015
10.2823
10.3352
10.3693
10.39
10.401
10.4052
8.31605
8.32056
8.3333
8.36005
8.40485
8.47633
8.58878
8.75984
8.99623
9.31817
9.66479
9.97004
10.1845
10.3324
10.432
10.4948
10.5347
10.56
10.5736
10.5781
7.90705
7.91542
7.9373
7.97321
8.0343
8.1321
8.27935
8.50394
8.81239
9.23184
9.67085
10.0495
10.3158
10.5008
10.6245
10.7046
10.7544
10.7858
10.8041
10.8113
7.40032
7.40984
7.43394
7.4843
7.57082
7.70695
7.91065
8.20866
8.61489
9.1435
9.69799
10.1647
10.4967
10.7288
10.8851
10.9871
11.0513
11.089
11.1094
11.1194
6.72568
6.74262
6.78652
6.86283
6.98346
7.17721
7.4639
7.8649
8.39918
9.05983
9.74917
10.3196
10.7296
11.0176
11.2131
11.342
11.4225
11.4719
11.5008
11.512
5.8426
5.86749
5.92876
6.03978
6.22877
6.51592
6.92034
7.46219
8.15471
8.98006
9.82596
10.5166
11.0163
11.3714
11.617
11.7829
11.8901
11.9523
11.985
11.9975
4.6272
4.67951
4.79117
4.98522
5.2831
5.70997
6.28576
7.01199
7.89759
8.91839
9.93996
10.765
11.3654
11.7982
12.106
12.3187
12.461
12.5525
12.604
12.6235
2.96631
3.07324
3.27804
3.6213
4.11546
4.76665
5.56892
6.52315
7.63641
8.87635
10.0868
11.0561
11.7659
12.2862
12.6684
12.9485
13.1474
13.2812
13.3629
13.3979
0.716054
0.872641
1.3059
1.95596
2.75916
3.70515
4.78779
6.01759
7.38964
8.86648
10.2759
11.3959
12.2216
12.8384
13.3024
13.6544
13.926
14.1288
14.2628
14.3086
-2.54445
-1.86344
-0.873513
0.190643
1.33909
2.60259
3.99534
5.52646
7.17438
8.90947
10.542
11.839
12.8091
13.5537
14.1365
14.5972
14.9699
15.2946
15.567
15.7094
-6.2733
-4.56992
-2.98319
-1.56426
-0.0828753
1.51007
3.22855
5.05644
6.97639
8.97825
10.8524
12.3493
13.4843
14.373
15.09
15.682
16.167
16.5568
16.9281
17.2482
-8.81043
-6.77309
-5.01888
-3.28616
-1.45065
0.489457
2.52027
4.61936
6.79589
9.04766
11.1413
12.8118
14.0797
15.0709
15.8623
16.5086
17.0458
17.4773
17.7652
18.1269
-10.5964
-8.41249
-6.75488
-4.80793
-2.66854
-0.418643
1.87726
4.22063
6.63411
9.10775
11.3856
13.1889
14.5435
15.5881
16.4043
17.0471
17.5683
18.0258
18.2989
18.6039
-11.909
-9.60375
-8.10533
-5.97018
-3.63542
-1.19357
1.29966
3.85099
6.47076
9.12858
11.5527
13.4515
14.8586
15.929
16.7557
17.3949
17.8889
18.3562
18.6336
18.933
-12.873
-10.5496
-9.07416
-6.75918
-4.33692
-1.81866
0.79413
3.50656
6.29403
9.10297
11.6509
13.6296
15.0802
16.1727
17.013
17.6618
18.147
18.6086
18.899
19.1767
-13.5969
-11.2892
-9.74263
-7.28354
-4.85715
-2.31845
0.369129
3.20438
6.12121
9.05674
11.7173
13.7721
15.2667
16.3832
17.2375
17.8991
18.3814
18.8386
19.1272
19.3949
-14.2714
-11.9026
-10.2737
-7.69259
-5.29311
-2.731
0.0221497
2.95635
5.96821
9.00952
11.772
13.8989
15.4374
16.5778
17.4438
18.1154
18.5975
19.05
19.3348
19.6038
-14.8269
-12.4658
-10.7869
-8.13042
-5.73022
-3.10979
-0.27643
2.74336
5.82545
8.95752
11.8116
14.0077
15.5909
16.7573
17.6356
18.3141
18.8012
19.2464
19.5276
19.8023
-15.3674
-12.9995
-11.2797
-8.59044
-6.17652
-3.48618
-0.554817
2.53425
5.67586
8.89023
11.8282
14.0941
15.7262
16.9237
17.8186
18.5058
19.0023
19.4453
19.7224
20.0038
-15.8958
-13.4931
-11.7634
-9.05349
-6.61217
-3.84379
-0.820197
2.31286
5.51053
8.80014
11.8173
14.1566
15.8454
17.0831
18.0032
18.7022
19.2093
19.6485
19.9226
20.2012
-16.3201
-13.949
-12.2218
-9.47766
-7.01775
-4.16947
-1.08174
2.07823
5.33163
8.68901
11.7802
14.1951
15.948
17.2356
18.1883
18.9067
19.4298
19.8768
20.1551
20.4277
-16.8043
-14.3698
-12.5966
-9.84983
-7.3716
-4.46292
-1.3436
1.84141
5.14798
8.56044
11.7154
14.2041
16.0283
17.38
18.3838
19.1353
19.6788
20.1193
20.4012
20.6676
-17.1561
-14.7218
-12.9754
-10.1792
-7.68589
-4.73412
-1.6005
1.60945
4.95954
8.41283
11.6219
14.1826
16.0835
17.508
18.5699
19.3606
19.9357
20.401
20.6932
20.9534
-17.5169
-15.069
-13.2819
-10.4709
-7.9783
-4.98908
-1.85073
1.3814
4.76544
8.25049
11.5034
14.1269
16.102
17.6082
18.756
19.6239
20.2511
20.7218
21.0257
21.2876
-17.891
-15.392
-13.5855
-10.7607
-8.25873
-5.23401
-2.09486
1.15822
4.56881
8.07645
11.3597
14.0346
16.0828
17.6757
18.9089
19.8489
20.5449
21.082
21.4072
21.6486
-18.1722
-15.7034
-13.9236
-11.0516
-8.53072
-5.47273
-2.33172
0.940861
4.36986
7.89102
11.194
13.9079
16.0171
17.6878
19.0249
20.0831
20.8826
21.493
21.8639
22.1197
-18.4694
-15.9995
-14.1722
-11.3081
-8.78611
-5.70274
-2.55945
0.728966
4.16936
7.69855
11.0124
13.7495
15.9068
17.6526
19.0838
20.2542
21.1888
21.9306
22.3918
22.6552
-18.7369
-16.2153
-14.4102
-11.5379
-9.02833
-5.92199
-2.77655
0.523104
3.97076
7.50417
10.818
13.5617
15.7508
17.5503
19.0637
20.346
21.4173
22.3429
22.9629
23.3253
-19.0335
-16.5206
-14.7038
-11.7936
-9.25748
-6.12527
-2.98253
0.325772
3.77826
7.3099
10.6118
13.3468
15.5506
17.3895
18.9654
20.34
21.556
22.6796
23.5513
24.0804
-19.3151
-16.8489
-15.0187
-12.0491
-9.46503
-6.31579
-3.1795
0.136421
3.58783
7.10966
10.3916
13.1038
15.3029
17.1649
18.7706
20.1961
21.5022
22.7709
23.9413
24.5545
-19.4913
-16.9261
-15.0958
-12.1829
-9.66032
-6.50856
-3.37252
-0.0547163
3.38726
6.8953
10.1499
12.8182
14.9795
16.8311
18.4485
19.8836
21.1607
22.2925
23.1222
23.5116
-19.6324
-16.9849
-15.1583
-12.2833
-9.87038
-6.69462
-3.56183
-0.250578
3.1802
6.67076
9.88406
12.4912
14.5881
16.393
17.9764
19.3388
20.4982
21.3896
21.944
22.3171
-19.9363
-17.4239
-15.6218
-12.6044
-10.0794
-6.86489
-3.75478
-0.450629
2.96808
6.43074
9.59547
12.134
14.1408
15.8346
17.3099
18.5571
19.56
20.305
20.6852
21.0232
-20.2778
-17.8162
-16.0109
-12.8853
-10.2627
-7.0462
-3.95344
-0.652855
2.74642
6.17567
9.29166
11.7444
13.6261
15.1611
16.4732
17.5834
18.468
19.1152
19.4292
19.7847
-20.4229
-17.7157
-15.8715
-12.8877
-10.4657
-7.24684
-4.15452
-0.864472
2.51079
5.90862
8.96876
11.3203
13.0646
14.4279
15.5377
16.4781
17.2659
17.8028
18.0046
18.3787
-20.4804
-17.6817
-15.9458
-12.9975
-10.6999
-7.43378
-4.36223
-1.08954
2.26593
5.62941
8.6255
10.8739
12.4701
13.6468
14.5555
15.2828
15.8505
16.2227
16.4249
16.8389
-20.7889
-18.1787
-16.4824
-13.3811
-10.9089
-7.61692
-4.57985
-1.31653
2.02152
5.34263
8.27362
10.4202
11.8606
12.8451
13.5511
14.0403
14.2955
14.2978
14.2355
14.5964
-21.0618
-18.5325
-16.7044
-13.5816
-11.1013
-7.82304
-4.79474
-1.53485
1.78093
5.05797
7.92463
9.97012
11.2592
12.0418
12.4944
12.7018
12.6194
11.9691
10.9935
11.2103
-21.1273
-18.4854
-16.6478
-13.6167
-11.3031
-8.01544
-4.99559
-1.74547
1.54588
4.78533
7.58016
9.52321
10.6665
11.235
11.4022
11.3007
10.9047
9.59303
7.21427
4.8938
-21.2778
-18.6832
-16.9104
-13.8482
-11.4991
-8.18082
-5.18784
-1.94938
1.32459
4.52802
7.23813
9.08433
10.11
10.4957
10.3855
9.96496
9.23941
7.72624
3.28971
-8.68204
-21.5846
-19.0586
-17.2408
-14.1156
-11.6882
-8.34929
-5.37725
-2.14479
1.11367
4.27233
6.89876
8.65756
9.59501
9.84878
9.51902
8.75675
7.76859
6.73939
5.613
0.739492
-21.7738
-19.2161
-17.3563
-14.2558
-11.8836
-8.5226
-5.56995
-2.34398
0.88951
4.00573
6.57145
8.24845
9.12651
9.30641
8.88222
8.04618
7.12006
6.72463
7.41677
6.17384
-21.919
-19.3452
-17.5092
-14.4276
-12.0892
-8.69226
-5.77095
-2.55849
0.649619
3.73999
6.2695
7.87546
8.72206
8.92651
8.60563
7.95865
7.23636
6.80299
7.22804
6.50718
-22.1593
-19.5969
-17.754
-14.658
-12.3023
-8.86932
-5.98994
-2.78697
0.411553
3.48143
5.99441
7.57517
8.44009
8.76844
8.69498
8.40928
7.89394
7.09754
7.11501
6.92642
-22.3857
-19.8227
-17.9517
-14.8482
-12.5181
-9.05405
-6.2264
-3.0059
0.190435
3.23374
5.7495
7.37869
8.32008
8.83947
9.00209
9.06836
9.12547
8.44548
8.36593
8.43161
-22.5583
-19.9992
-18.1254
-15.0291
-12.7262
-9.23207
-6.45952
-3.1944
-0.0171648
3.0045
5.53969
7.27905
8.3503
9.08672
9.53438
9.85368
10.3573
10.361
10.4971
10.646
-22.7314
-20.1859
-18.313
-15.215
-12.9025
-9.39153
-6.67834
-3.36111
-0.221234
2.80681
5.38229
7.24736
8.49279
9.40564
10.163
10.6639
11.2814
11.7468
12.1902
12.488
-22.884
-20.3445
-18.4611
-15.3621
-13.0361
-9.55199
-6.88918
-3.514
-0.410145
2.65475
5.29352
7.25633
8.66446
9.70104
10.61
11.2592
11.9313
12.5015
13.0286
13.3538
-22.9758
-20.4408
-18.5576
-15.4804
-13.1471
-9.7296
-7.05366
-3.64336
-0.561924
2.54063
5.24433
7.27551
8.7714
9.90082
10.8704
11.634
12.3584
12.9034
13.3835
13.7125
-23.0165
-20.4898
-18.6138
-15.5753
-13.2012
-9.88162
-7.12412
-3.75842
-0.682758
2.43612
5.18544
7.27969
8.83278
10.043
11.0565
11.8592
12.5944
13.1285
13.5721
13.9317
-22.9817
-20.4637
-18.5748
-15.6093
-13.1552
-9.96961
-7.12625
-3.86912
-0.791798
2.33316
5.10792
7.26655
8.88015
10.1446
11.1821
11.9788
12.6852
13.2383
13.6461
14.0304
-22.8245
-20.3292
-18.4173
-15.5381
-13.045
-9.989
-7.10907
-3.95051
-0.877902
2.23837
5.02439
7.22032
8.87727
10.1622
11.2025
11.999
12.6707
13.2357
13.6159
14.0025
-22.5372
-20.0931
-18.1394
-15.382
-12.8728
-9.92774
-7.06399
-3.97281
-0.93643
2.14356
4.92387
7.12622
8.78919
10.0723
11.1145
11.9131
12.5603
13.1226
13.49
13.8926
-22.0707
-19.6982
-17.7337
-15.0809
-12.5874
-9.74699
-6.94637
-3.93541
-0.974599
2.03829
4.78355
6.96406
8.613
9.88531
10.9241
11.7322
12.3608
12.9329
13.2922
13.7006
-21.3473
-19.0454
-17.1141
-14.5827
-12.148
-9.42949
-6.73302
-3.84953
-0.999954
1.91454
4.5878
6.72145
8.34517
9.60306
10.6256
11.4453
12.0633
12.6343
13.0022
13.4046
-20.262
-18.0762
-16.2308
-13.8492
-11.5325
-8.97381
-6.41945
-3.7075
-1.00359
1.77391
4.33572
6.39329
7.96978
9.20153
10.196
11.0107
11.6353
12.1982
12.5841
12.9868
-18.7532
-16.7326
-15.02
-12.8415
-10.7008
-8.35001
-5.99024
-3.49643
-0.982138
1.61168
4.01957
5.96429
7.46115
8.64186
9.59549
10.3868
11.0067
11.5621
11.9575
12.3617
-16.6525
-14.9336
-13.4278
-11.5173
-9.61854
-7.53657
-5.4377
-3.21437
-0.93843
1.42585
3.63532
5.42427
6.80133
7.89129
8.77241
9.51046
10.1027
10.6295
11.0348
11.436
-13.9239
-12.5282
-11.3761
-9.83692
-8.26755
-6.52982
-4.75378
-2.84787
-0.852953
1.23777
3.20096
4.78674
5.99722
6.94603
7.70371
8.33107
8.83453
9.2684
9.61864
9.97188
-10.2732
-9.40355
-8.88747
-7.79185
-6.62979
-5.33354
-3.95736
-2.40516
-0.720304
1.07341
2.77957
4.16041
5.20138
5.99982
6.61702
7.10583
7.48687
7.79195
8.00478
8.22761
-6.59169
-6.24318
-6.34833
-5.53142
-4.89569
-4.10031
-3.11789
-1.90919
-0.544167
0.953495
2.41339
3.60487
4.49696
5.16807
5.66869
6.04326
6.3164
6.52775
6.59412
6.69627
-4.02699
-3.91708
-4.135
-3.5419
-3.38996
-2.95596
-2.26823
-1.37323
-0.318677
0.890812
2.10399
3.09937
3.83511
4.37199
4.75171
5.0097
5.17029
5.29502
5.29245
5.33478
-2.57869
-2.44828
-2.58996
-2.11875
-2.20997
-1.91822
-1.45407
-0.837936
-0.0601276
0.88539
1.86322
2.66982
3.25647
3.66861
3.94388
4.11642
4.20776
4.29198
4.29122
4.32372
-1.68345
-1.62188
-1.6979
-1.30407
-1.43159
-1.13976
-0.809202
-0.388003
0.177079
0.898984
1.66693
2.30553
2.76545
3.08194
3.29073
3.42455
3.49721
3.57421
3.58295
3.61053
-1.09699
-1.08708
-1.1326
-0.857011
-0.978043
-0.674276
-0.414177
-0.0925193
0.34341
0.903342
1.50612
2.01162
2.37765
2.63282
2.80668
2.92478
2.991
3.05707
3.06539
3.08119
-0.653117
-0.656582
-0.690244
-0.525569
-0.628857
-0.376708
-0.181573
0.0823445
0.439797
0.890934
1.37483
1.78228
2.08026
2.29108
2.43625
2.53506
2.58789
2.63514
2.64187
2.64782
-0.297383
-0.300949
-0.321389
-0.220952
-0.28984
-0.122289
0.00973449
0.215392
0.50179
0.866253
1.25867
1.58953
1.83134
2.00112
2.11545
2.19109
2.23011
2.26198
2.26841
2.27201
-0.0361764
-0.038721
-0.0478445
0.0222263
-0.00915471
0.094008
0.183145
0.334426
0.552149
0.838079
1.15167
1.41697
1.60946
1.7426
1.83045
1.88786
1.91827
1.94137
1.94801
1.95114
0.140928
0.139753
0.135298
0.178498
0.173641
0.242779
0.310709
0.424587
0.589018
0.809843
1.05646
1.26621
1.41793
1.52244
1.59133
1.63648
1.66148
1.679
1.68504
1.68766
0.254415
0.253917
0.25228
0.277492
0.284341
0.333129
0.388536
0.478244
0.606103
0.778412
0.972209
1.13768
1.25759
1.3405
1.39539
1.43129
1.45171
1.46498
1.46996
1.47202
0.329377
0.329454
0.329456
0.344398
0.35461
0.389363
0.433841
0.50473
0.605519
0.741473
0.894672
1.02569
1.12076
1.18658
1.23014
1.25839
1.27471
1.28478
1.28878
1.29043
0.376916
0.377284
0.379009
0.388671
0.398751
0.423867
0.458748
0.513863
0.592776
0.69992
0.821151
0.924955
1.00022
1.05223
1.08658
1.1087
1.12167
1.12943
1.13266
1.13402
0.403016
0.403558
0.405484
0.412287
0.42128
0.440048
0.467401
0.510097
0.571584
0.655644
0.751259
0.833248
0.892631
0.933606
0.960683
0.978049
0.988358
0.994394
0.996957
0.998045
0.411127
0.411677
0.413436
0.418436
0.42603
0.440387
0.461958
0.495253
0.543301
0.609192
0.684409
0.749006
0.795808
0.828112
0.849489
0.863158
0.871316
0.876009
0.878013
0.878864
0.405351
0.405853
0.407345
0.411132
0.417331
0.428412
0.445426
0.471502
0.509162
0.560857
0.619995
0.670849
0.707696
0.733126
0.749945
0.76065
0.767051
0.770695
0.772245
0.772914
0.389169
0.389599
0.390817
0.393716
0.39866
0.407246
0.420619
0.441011
0.470486
0.510967
0.557358
0.597299
0.626259
0.646237
0.659437
0.667816
0.672835
0.675684
0.676908
0.677438
0.364483
0.36483
0.365807
0.368038
0.371938
0.378618
0.389089
0.404982
0.427977
0.459617
0.495975
0.527315
0.550004
0.565624
0.57594
0.582487
0.586433
0.588678
0.589639
0.590058
0.333675
0.333959
0.334725
0.336455
0.339529
0.344725
0.35287
0.365207
0.383079
0.407686
0.435986
0.460354
0.477985
0.490141
0.498193
0.503313
0.506394
0.508131
0.508863
0.509179
0.29752
0.297724
0.298313
0.299639
0.302018
0.306021
0.312311
0.321826
0.335616
0.354617
0.37649
0.395366
0.409066
0.418521
0.424793
0.428782
0.431174
0.432515
0.433079
0.433323
0.257645
0.257819
0.2583
0.259329
0.261162
0.264211
0.268999
0.276256
0.28678
0.301304
0.318062
0.332516
0.342967
0.350166
0.354916
0.357909
0.35969
0.360673
0.361073
0.361254
0.215047
0.215162
0.21549
0.216243
0.217608
0.219883
0.223471
0.228912
0.236811
0.247681
0.260141
0.270853
0.278629
0.284019
0.28757
0.289794
0.291113
0.291839
0.292135
0.292256
0.169701
0.169806
0.170081
0.170647
0.171633
0.173272
0.17587
0.179767
0.185371
0.19313
0.202107
0.209897
0.21551
0.219331
0.22183
0.223392
0.224318
0.224832
0.225015
0.225099
0.122724
0.12284
0.123066
0.123472
0.124157
0.125267
0.127
0.129611
0.133373
0.13854
0.144575
0.14982
0.153575
0.156053
0.157659
0.15867
0.15926
0.15958
0.159704
0.159775
0.0741805
0.0742132
0.0742559
0.074419
0.0747594
0.0753426
0.0762721
0.0777076
0.0798349
0.0827405
0.086278
0.0892746
0.0913328
0.0927201
0.0936378
0.0942368
0.0946175
0.0948516
0.0949715
0.0950408
0.0246164
0.0245677
0.0245271
0.0245459
0.0246211
0.0247718
0.0250351
0.0254666
0.0261597
0.0272478
0.0284762
0.0293909
0.0300097
0.0304577
0.0307699
0.0309742
0.0311163
0.0312155
0.0312527
0.031324
11.2353
16.1003
17.2924
18.7956
19.9938
21.1036
22.1459
23.1721
23.9948
24.4508
16.5262
18.9109
19.6368
20.5924
21.4705
22.2656
22.9662
23.5775
23.9915
24.1556
19.4242
20.6339
21.1939
21.8059
22.3755
22.8911
23.33
23.6879
23.8861
23.9216
21.085
21.7963
22.1551
22.5693
22.9307
23.2499
23.4895
23.6746
23.7565
23.7735
22.1348
22.5309
22.7507
23.005
23.2129
23.4101
23.5401
23.6465
23.6862
23.7036
22.7525
22.9978
23.1119
23.2844
23.3932
23.5167
23.5763
23.6442
23.6542
23.6783
23.1361
23.2798
23.3319
23.4462
23.4883
23.5811
23.5968
23.6613
23.6505
23.6868
23.3696
23.4679
23.477
23.5783
23.5719
23.6568
23.6359
23.7018
23.6787
23.7213
23.5375
23.6117
23.5997
23.6791
23.6528
23.7296
23.6987
23.756
23.7363
23.772
23.6622
23.7133
23.6956
23.7564
23.7349
23.783
23.7628
23.8038
23.7909
23.8105
23.736
23.7614
23.7604
23.7871
23.7856
23.8075
23.8024
23.8286
23.8207
23.834
23.778
23.7937
23.7982
23.8133
23.8222
23.8355
23.8435
23.8623
23.8604
23.8804
23.8514
23.8731
23.886
23.9004
23.9163
23.927
23.9406
23.9511
23.9502
23.9659
24.0005
24.0077
24.0201
24.0269
24.034
24.0388
24.0463
24.0548
24.0579
24.0696
24.1358
24.1227
24.1179
24.112
24.1074
24.1081
24.1121
24.1232
24.1355
24.164
24.248
24.1927
24.1625
24.1428
24.1343
24.1345
24.1429
24.1613
24.1908
24.2583
)
;

boundaryField
{
    wall-4
    {
        type            zeroGradient;
    }
    pressure-outlet-7
    {
        type            fixedValue;
        value           uniform 0;
    }
    velocity-inlet-6
    {
        type            zeroGradient;
    }
    velocity-inlet-5
    {
        type            zeroGradient;
    }
    frontAndBackPlanes
    {
        type            empty;
    }
}


// ************************************************************************* //
