/*--------------------------------*- C++ -*----------------------------------*\
| =========                 |                                                 |
| \\      /  F ield         | OpenFOAM: The Open Source CFD Toolbox           |
|  \\    /   O peration     | Version:  2412                                  |
|   \\  /    A nd           | Website:  www.openfoam.com                      |
|    \\/     M anipulation  |                                                 |
\*---------------------------------------------------------------------------*/
FoamFile
{
    version     2.0;
    format      ascii;
    arch        "LSB;label=32;scalar=64";
    class       surfaceScalarField;
    location    "1.5";
    object      phi;
}
// * * * * * * * * * * * * * * * * * * * * * * * * * * * * * * * * * * * * * //

dimensions      [0 3 -1 0 0 0 0];

oriented        oriented;

internalField   nonuniform List<scalar> 
4262
(
-0.0143893
0.234902
0.00259032
0.811674
0.00294264
1.76679
-0.00376764
3.17188
-0.014808
5.19564
-0.0279675
8.02752
-0.0372579
11.8564
-0.0365257
16.819
-0.0268152
22.8721
-0.00238291
29.5039
0.0237401
29.5022
0.0345217
22.871
0.0353649
16.8189
0.0264882
11.856
0.0136143
8.02724
0.00282333
5.19539
-0.00366764
3.17166
-0.00305589
1.76653
0.0141927
0.811405
0.234705
-0.0850641
0.319966
-0.101903
0.828513
-0.0758631
1.74075
-0.071382
3.1674
-0.0917711
5.21603
-0.107862
8.04362
-0.107323
11.8559
-0.0960882
16.8078
-0.0761382
22.8522
-0.00544085
29.4332
0.0657631
29.431
0.0872208
22.8496
0.100389
16.8057
0.102248
11.8542
0.0874556
8.04203
0.0685198
5.21433
0.0741656
3.16601
0.101016
1.73968
0.084669
0.827752
0.319374
-0.164808
0.484774
-0.271849
0.935554
-0.267762
1.73666
-0.230281
3.12991
-0.234018
5.21977
-0.259062
8.06866
-0.27352
11.8704
-0.232371
16.7666
-0.155858
22.7756
-0.00835075
29.2857
0.138513
29.2842
0.217156
22.7709
0.260788
16.7621
0.249688
11.8653
0.227423
8.0643
0.226046
5.21571
0.265326
3.12673
0.270879
1.73413
0.164598
0.934033
0.483972
-0.222693
0.707467
-0.464805
1.17767
-0.554865
1.82672
-0.571231
3.14628
-0.537276
5.18581
-0.493767
8.02515
-0.475771
11.8524
-0.388054
16.6789
-0.235735
22.6233
-0.0118813
29.0619
0.210911
29.0614
0.368678
22.6132
0.461459
16.6693
0.483289
11.8434
0.530078
8.01751
0.566775
5.17901
0.552496
3.14101
0.462673
1.82395
0.221298
1.17541
0.70527
-0.285896
0.993364
-0.649868
1.54164
-0.919509
2.09637
-1.06017
3.28695
-1.05819
5.18383
-0.974499
7.94146
-0.829212
11.7071
-0.667727
16.5174
-0.40218
22.3578
-0.0136888
28.6734
0.37532
28.6724
0.641341
22.3472
0.806661
16.504
0.957883
11.6922
1.04822
7.92717
1.05401
5.17323
0.915713
3.2793
0.649019
2.09065
0.286263
1.53816
0.991532
-0.340692
1.33406
-0.775057
1.976
-1.2099
2.53121
-1.49465
3.5717
-1.56976
5.25894
-1.49342
7.86512
-1.22868
11.4423
-0.985317
16.2741
-0.626778
21.9992
-0.0203093
28.0669
0.588515
28.0635
0.955132
21.9805
1.20705
16.2521
1.47739
11.4219
1.55945
7.84511
1.48797
5.24471
1.20597
3.5613
0.77251
2.52411
0.338948
1.97173
1.33048
-0.353581
1.68764
-0.819284
2.44171
-1.32407
3.036
-1.74023
3.98785
-1.95473
5.47344
-1.94291
7.8533
-1.66448
11.1639
-1.222
15.8316
-0.706809
21.4841
-0.0246278
27.3847
0.660252
27.3787
1.18194
21.4588
1.63529
15.7987
1.92357
11.1336
1.93985
7.82884
1.72917
5.45538
1.31518
3.97529
0.811502
3.02778
0.349497
2.43373
1.67998
-0.330174
2.01781
-0.79018
2.90171
-1.31279
3.55861
-1.8116
4.48666
-2.18135
5.84319
-2.27859
7.95053
-2.14435
11.0297
-1.61118
15.2984
-0.868019
20.7409
-0.0287423
26.5454
0.814034
26.5359
1.56534
20.7075
2.10487
15.2592
2.24991
10.9885
2.15947
7.91929
1.79679
5.81806
1.30305
4.46903
0.785757
3.54507
0.328868
2.89062
2.00885
-0.281755
2.29956
-0.703684
3.32364
-1.19793
4.05285
-1.71126
5
-2.16892
6.30085
-2.39414
8.17575
-2.37942
11.0149
-1.9573
14.8763
-1.10668
19.8903
-0.0385719
25.4773
1.0396
25.4577
1.90561
19.8415
2.33891
14.8259
2.35899
10.9685
2.14144
8.13684
1.68874
6.27076
1.18172
4.97606
0.693518
4.03327
0.275552
3.30859
2.2844
-0.219148
2.51871
-0.577916
3.68241
-1.00589
4.48083
-1.47101
5.46511
-1.92895
6.75878
-2.27234
8.51915
-2.32685
11.0695
-2.00529
14.5547
-1.19692
19.0819
-0.0442339
24.3246
1.11649
24.297
1.93052
19.0275
2.27002
14.4864
2.22474
11.0138
1.89121
8.47036
1.44146
6.72052
0.98364
5.43388
0.561373
4.45554
0.210275
3.65968
2.49467
-0.156413
2.67513
-0.440917
3.96691
-0.783928
4.82384
-1.1651
5.84628
-1.55634
7.15002
-1.89767
8.86048
-2.01475
11.1865
-1.77709
14.3171
-1.11904
18.4239
-0.0514852
23.2571
1.01583
23.2297
1.69048
18.3528
1.93339
14.2435
1.83097
11.1162
1.50265
8.79867
1.12484
7.09834
0.75559
5.80312
0.423736
4.78739
0.150131
3.93329
2.6448
-0.105151
2.78028
-0.318906
4.18067
-0.578647
5.08358
-0.870577
6.13821
-1.17604
7.45549
-1.44776
9.1322
-1.58445
11.3232
-1.4556
14.1882
-0.960958
17.9292
-0.0674631
22.3636
0.829935
22.3323
1.34498
17.8378
1.48529
14.1032
1.36608
11.2354
1.11044
9.05431
0.822057
7.38672
0.546432
6.07875
0.301328
5.0325
0.0972068
4.13741
2.74201
-0.0700555
2.85033
-0.226114
4.33673
-0.41657
5.27403
-0.632103
6.35375
-0.860428
7.68382
-1.07009
9.34186
-1.19261
11.4458
-1.14286
14.1385
-0.783829
17.5702
-0.091068
21.6708
0.618731
21.6225
0.99201
17.4645
1.07181
14.0234
0.970595
11.3366
0.782123
9.24278
0.57362
7.59522
0.376166
6.2762
0.201205
5.20746
0.0545016
4.28411
2.79651
-0.047418
2.89775
-0.159906
4.44922
-0.297338
5.41147
-0.45402
6.51043
-0.621324
7.85112
-0.778984
9.49952
-0.882351
11.5491
-0.867501
14.1236
-0.610987
17.3137
-0.111484
21.1713
0.407962
21.103
0.669865
17.2026
0.720419
13.9728
0.648407
11.4086
0.520764
9.37043
0.378577
7.73741
0.241784
6.41299
0.120228
5.32902
0.0241357
4.3802
2.82065
-0.0340113
2.93176
-0.115289
4.53049
-0.214657
5.51083
-0.328611
6.62438
-0.450808
7.97332
-0.569132
9.61784
-0.652933
11.6329
-0.647274
14.1179
-0.475789
17.1422
-0.130515
20.8261
0.2211
20.7514
0.403086
17.0206
0.441621
13.9343
0.397378
11.4529
0.316455
9.45135
0.226842
7.82702
0.140748
6.49909
0.0648392
5.40492
0.0116274
4.43342
2.83228
-0.0252202
2.95698
-0.0846239
4.5899
-0.157482
5.58369
-0.241206
6.70811
-0.331897
8.06401
-0.421282
9.70723
-0.490849
11.7025
-0.493084
14.1202
-0.400309
17.0494
-0.167663
20.5934
0.0654901
20.5183
0.195506
16.8906
0.231397
13.8984
0.212885
11.4714
0.168942
9.49529
0.119406
7.87656
0.0736206
6.54487
0.0365684
5.44198
0.0105276
4.45946
2.8428
-0.0253104
2.98229
-0.0721016
4.63669
-0.128911
5.6405
-0.194289
6.77348
-0.264537
8.13426
-0.33399
9.77668
-0.391722
11.7602
-0.409525
14.138
-0.379653
17.0195
-0.228132
20.4419
-0.0665792
20.3567
0.0355451
16.7885
0.0756815
13.8583
0.0811667
11.4659
0.0698881
9.50657
0.0519553
7.89449
0.0337149
6.56311
0.020146
5.45555
0.0059283
4.47367
2.84873
-0.0245247
3.00682
-0.0649884
4.67715
-0.113971
5.68948
-0.17001
6.82952
-0.232543
8.19679
-0.295226
9.83936
-0.349799
11.8148
-0.385255
14.1734
-0.39988
17.0342
-0.305711
20.3477
-0.18403
20.235
-0.0983026
16.7028
-0.0496795
13.8096
-0.0225781
11.4388
-0.00813841
9.49213
-0.00165119
7.888
9.80531e-05
6.56136
0.000557509
5.45509
-0.00214978
4.47638
2.84658
-0.0330397
3.03986
-0.0735859
4.7177
-0.120908
5.73681
-0.175962
6.88458
-0.236367
8.2572
-0.298305
9.9013
-0.353705
11.8702
-0.397486
14.2172
-0.444496
17.0812
-0.392033
20.2953
-0.29385
20.1368
-0.215881
16.6248
-0.15769
13.7514
-0.113733
11.3948
-0.0800602
9.45846
-0.0531776
7.86112
-0.0312894
6.53948
-0.0174704
5.44127
-0.0101423
4.46905
2.83644
-0.0341467
3.074
-0.0776155
4.76117
-0.130027
5.78922
-0.190349
6.9449
-0.258657
8.3255
-0.331524
9.97417
-0.398872
11.9375
-0.460727
14.2791
-0.519642
17.1401
-0.490193
20.2658
-0.408503
20.0552
-0.330683
16.547
-0.259684
13.6804
-0.198218
11.3334
-0.145881
9.40612
-0.102508
7.81775
-0.0668893
6.50386
-0.0408572
5.41524
-0.0238271
4.45202
2.81261
-0.0531339
3.12714
-0.107068
4.8151
-0.166807
5.84896
-0.235984
7.01408
-0.31625
8.40577
-0.403439
10.0614
-0.489911
12.024
-0.571945
14.3611
-0.620891
17.189
-0.606406
20.2513
-0.535691
19.9844
-0.451964
16.4632
-0.367937
13.5964
-0.292071
11.2575
-0.226435
9.34049
-0.170633
7.76195
-0.124473
6.4577
-0.0863203
5.37708
-0.0472073
4.41291
2.76541
-0.0556855
3.18282
-0.120469
4.87988
-0.201569
5.93006
-0.298581
7.11109
-0.405711
8.5129
-0.519881
10.1755
-0.632085
12.1362
-0.727531
14.4566
-0.766681
17.2282
-0.758105
20.2428
-0.687376
19.9137
-0.590403
16.3663
-0.488336
13.4943
-0.390839
11.16
-0.302019
9.25167
-0.224255
7.68418
-0.157104
6.39055
-0.100757
5.32074
-0.0489295
4.36108
2.71648
-0.0984382
3.28126
-0.193121
4.97457
-0.293194
6.03013
-0.406598
7.22449
-0.539043
8.64534
-0.680136
10.3166
-0.81321
12.2693
-0.919913
14.5633
-0.956666
17.2649
-0.946001
20.2321
-0.864612
19.8323
-0.748757
16.2504
-0.625434
13.371
-0.506692
11.0413
-0.397719
9.14269
-0.301867
7.58833
-0.2211
6.30978
-0.148044
5.24768
-0.0692964
4.28234
2.64718
-0.126014
3.40727
-0.237291
5.08585
-0.38477
6.17761
-0.561938
7.40166
-0.742459
8.82586
-0.910924
10.4851
-1.06343
12.4218
-1.17737
14.6772
-1.21165
17.2992
-1.18703
20.2075
-1.08199
19.7273
-0.94105
16.1095
-0.792248
13.2222
-0.647084
10.8961
-0.510576
9.00619
-0.382621
7.46037
-0.264774
6.19193
-0.16346
5.14637
-0.0763322
4.19521
2.57085
-0.238659
3.64593
-0.413617
5.2608
-0.628854
6.39284
-0.836813
7.60962
-1.03507
9.02412
-1.2247
10.6747
-1.38771
12.5848
-1.49621
14.7857
-1.51761
17.3206
-1.46621
20.1561
-1.32936
19.5904
-1.1597
15.9398
-0.98324
13.0458
-0.810961
10.7238
-0.650589
8.84581
-0.507384
7.31717
-0.378218
6.06277
-0.2533
5.02145
-0.123355
4.06526
2.44749
-0.348934
3.99487
-0.705566
5.61744
-1.0002
6.68748
-1.23817
7.84758
-1.45997
9.24592
-1.65527
10.87
-1.80534
12.7349
-1.888
14.8684
-1.88242
17.315
-1.79268
20.0663
-1.61808
19.4158
-1.4181
15.7398
-1.21604
12.8437
-1.02115
10.5289
-0.8355
8.66016
-0.659523
7.14119
-0.496226
5.89947
-0.339695
4.86492
-0.162166
3.88773
2.28533
-0.241006
4.23587
-0.526552
5.90298
-0.773249
6.93418
-1.05928
8.13362
-1.34147
9.52811
-1.59975
11.1283
-1.8178
12.9529
-1.99117
15.0417
-2.09637
17.4202
-2.10772
20.0777
-1.99095
19.2991
-1.79665
15.5455
-1.55984
12.6069
-1.30271
10.2718
-1.0397
8.39715
-0.779661
6.88116
-0.532359
5.65217
-0.31401
4.64657
-0.130545
3.70427
2.15478
-0.0992012
4.33507
-0.193147
5.99693
-0.413423
7.15445
-0.653438
8.37363
-0.889303
9.76398
-1.10147
11.3405
-1.29066
13.1421
-1.44755
15.1986
-1.53948
17.5122
-1.53423
20.0724
-1.41265
19.1775
-1.22816
15.361
-1.0149
12.3936
-0.796865
10.0538
-0.591587
8.19187
-0.408843
6.69841
-0.246027
5.48935
-0.101378
4.50192
-0.0237319
3.62662
2.13105
-0.0737103
4.40878
-0.155178
6.0784
-0.266994
7.26627
-0.432944
8.53958
-0.602738
9.93377
-0.770506
11.5082
-0.934871
13.3065
-1.07031
15.3341
-1.14673
17.5886
-1.13832
20.064
-1.0339
19.073
-0.882927
15.2101
-0.717925
12.2286
-0.55743
9.89327
-0.410702
8.04514
-0.282993
6.57071
-0.17555
5.38191
-0.0754313
4.4018
0.000792497
3.5504
2.13184
-0.0345911
4.44337
-0.153178
6.19698
-0.270864
7.38396
-0.351281
8.62
-0.444543
10.027
-0.572
11.6357
-0.705596
13.4401
-0.816956
15.4454
-0.880416
17.652
-0.875272
20.0589
-0.79234
18.9901
-0.673699
15.0914
-0.546462
12.1014
-0.423444
9.77026
-0.309024
7.93072
-0.205306
6.46699
-0.117845
5.29445
-0.0440622
4.32802
0.0032964
3.50304
2.13514
-0.0029326
4.44631
-0.103552
6.2976
-0.191627
7.47203
-0.27033
8.6987
-0.358009
10.1147
-0.459788
11.7375
-0.563737
13.544
-0.650669
15.5324
-0.701891
17.7033
-0.699169
20.0562
-0.632241
18.9232
-0.535523
14.9947
-0.431656
11.9975
-0.331887
9.67049
-0.240801
7.83963
-0.160157
6.38634
-0.0920784
5.22637
-0.0369731
4.27291
-0.000493885
3.46656
2.13464
-0.00327292
4.44958
-0.0801587
6.37449
-0.147581
7.53945
-0.209688
8.76081
-0.29994
10.205
-0.387984
11.8255
-0.470843
13.6269
-0.53811
15.5996
-0.580743
17.7459
-0.580751
20.0562
-0.5257
18.8681
-0.44422
14.9132
-0.356703
11.91
-0.273995
9.58778
-0.200451
7.76609
-0.135823
6.32171
-0.0823922
5.17294
-0.0402932
4.23081
-0.00893738
3.43521
2.12571
-0.00560099
4.45518
-0.0488843
6.41777
-0.103484
7.59405
-0.179474
8.8368
-0.257308
10.2828
-0.333463
11.9017
-0.404779
13.6982
-0.461586
15.6564
-0.501396
17.7857
-0.5044
20.0592
-0.45842
18.8222
-0.388432
14.8432
-0.312996
11.8346
-0.241888
9.51667
-0.179309
7.70351
-0.124806
6.26721
-0.0778707
5.126
-0.041987
4.19493
-0.0125958
3.40581
2.11311
0.0170435
4.43814
-0.0359277
6.47074
-0.0890175
7.64714
-0.151657
8.89944
-0.216338
10.3475
-0.28935
11.9747
-0.354317
13.7632
-0.406891
15.709
-0.447082
17.8259
-0.454501
20.0666
-0.418083
18.7857
-0.357869
14.783
-0.290919
11.7676
-0.226516
9.45227
-0.169227
7.64622
-0.12018
6.21816
-0.0767114
5.08253
-0.0432141
4.16143
-0.0153317
3.37793
2.09778
-0.0160042
4.45414
-0.0461436
6.50088
-0.0832587
7.68426
-0.137303
8.95348
-0.198492
10.4087
-0.25855
12.0347
-0.312668
13.8173
-0.365495
15.7618
-0.409563
17.87
-0.424468
20.0815
-0.397868
18.7591
-0.345234
14.7304
-0.283785
11.7062
-0.223463
9.39194
-0.169049
7.59181
-0.121857
6.17097
-0.0804911
5.04117
-0.0469397
4.12788
-0.0184706
3.34946
2.07931
0.0118457
4.4423
-0.035018
6.54774
-0.0757578
7.725
-0.123339
9.00106
-0.17763
10.463
-0.232602
12.0897
-0.282009
13.8667
-0.337074
15.8169
-0.383763
17.9167
-0.405567
20.1033
-0.388948
18.7425
-0.344344
14.6858
-0.287556
11.6494
-0.228658
9.33305
-0.173608
7.53676
-0.126025
6.12339
-0.0835269
4.99867
-0.0490051
4.09336
-0.0196749
3.32013
2.05963
-0.0138752
4.45617
-0.0433666
6.57724
-0.0739305
7.75556
-0.113166
9.0403
-0.16051
10.5103
-0.209907
12.1391
-0.25931
13.9161
-0.315412
15.873
-0.363446
17.9647
-0.394107
20.134
-0.390211
18.7386
-0.354734
14.6503
-0.301984
11.5966
-0.243996
9.27506
-0.188776
7.48154
-0.138783
6.0734
-0.0953623
4.95525
-0.0585198
4.05652
-0.0254619
3.28707
2.03417
-0.00706608
4.46324
-0.0378176
6.60799
-0.0649904
7.78273
-0.106199
9.0815
-0.148459
10.5526
-0.192672
12.1833
-0.242075
13.9655
-0.298404
15.9293
-0.348965
18.0153
-0.388986
20.174
-0.397618
18.7473
-0.372542
14.6252
-0.325407
11.5495
-0.266457
9.21611
-0.205365
7.42045
-0.15022
6.01825
-0.100352
4.90538
-0.0607063
4.01687
-0.0275452
3.25391
2.00663
0.00399545
4.45924
-0.0281187
6.6401
-0.060767
7.81538
-0.0970141
9.11775
-0.137966
10.5935
-0.179038
12.2244
-0.228494
14.015
-0.284067
15.9849
-0.33676
18.068
-0.384739
20.222
-0.406166
18.7687
-0.392267
14.6113
-0.351397
11.5086
-0.294775
9.15949
-0.234473
7.36014
-0.177909
5.96169
-0.127664
4.85514
-0.0813424
3.97055
-0.0367842
3.20936
1.96984
-0.0216407
4.48088
-0.0413399
6.6598
-0.0561654
7.83021
-0.0922031
9.15379
-0.129601
10.6309
-0.167623
12.2624
-0.216743
14.0641
-0.270788
16.0389
-0.325711
18.1229
-0.381437
20.2777
-0.416651
18.8039
-0.417994
14.6127
-0.390821
11.4815
-0.340229
9.10889
-0.272088
7.292
-0.197816
5.88742
-0.129642
4.78696
-0.0818532
3.92276
-0.0403545
3.16786
1.92949
0.00648876
4.47439
-0.0201968
6.68649
-0.0521162
7.86213
-0.0854841
9.18716
-0.120569
10.666
-0.157196
12.299
-0.205584
14.1125
-0.258131
16.0915
-0.315173
18.1799
-0.377253
20.3398
-0.424572
18.8512
-0.438676
14.6268
-0.418724
11.4615
-0.370708
9.06088
-0.30747
7.22877
-0.244523
5.82447
-0.18329
4.72573
-0.114021
3.85349
-0.0503628
3.1042
1.87913
-0.0122523
4.48665
-0.0358969
6.71013
-0.0484944
7.87472
-0.0800929
9.21876
-0.112281
10.6982
-0.147472
12.3342
-0.1945
14.1595
-0.245623
16.1426
-0.304254
18.2385
-0.3715
20.407
-0.429828
18.9095
-0.461096
14.6581
-0.464244
11.4647
-0.442608
9.03924
-0.387946
7.1741
-0.295882
5.73241
-0.195506
4.62535
-0.12963
3.78762
-0.0669083
3.04148
1.81222
-0.00370654
4.49035
-0.0235947
6.73002
-0.0457163
7.89685
-0.0742733
9.24731
-0.104291
10.7282
-0.138394
12.3683
-0.183517
14.2046
-0.233313
16.1924
-0.292984
18.2982
-0.364327
20.4784
-0.432222
18.9774
-0.477255
14.7031
-0.489231
11.4766
-0.464253
9.01426
-0.41629
7.12614
-0.360263
5.67638
-0.285306
4.5504
-0.171366
3.67368
-0.069929
2.94004
1.74229
-0.00521161
4.49556
-0.0286882
6.7535
-0.0417769
7.90993
-0.0699934
9.27553
-0.097257
10.7555
-0.130006
12.4011
-0.172706
14.2473
-0.221026
16.2407
-0.280916
18.3581
-0.355102
20.5525
-0.430622
19.053
-0.489292
14.7618
-0.526112
11.5135
-0.542748
9.0309
-0.522837
7.10623
-0.451298
5.60484
-0.338186
4.43729
-0.223874
3.55936
-0.0990601
2.81523
1.64323
-0.00484687
4.50041
-0.0230195
6.77167
-0.0395325
7.92645
-0.0657261
9.30172
-0.0910261
10.7808
-0.121808
12.4319
-0.162095
14.2876
-0.208831
16.2875
-0.268388
18.4177
-0.344697
20.6288
-0.427076
19.1353
-0.49833
14.833
-0.546347
11.5615
-0.558456
9.04301
-0.552972
7.10074
-0.537643
5.58951
-0.488855
4.3885
-0.354738
3.42525
-0.155153
2.61564
1.48807
-0.0048319
4.50524
-0.0231936
6.79003
-0.0346937
7.93795
-0.0606373
9.32767
-0.0831639
10.8033
-0.114428
12.4631
-0.15275
14.3259
-0.198099
16.3328
-0.257341
18.4769
-0.334957
20.7065
-0.421905
19.2223
-0.502152
14.9133
-0.570194
11.6295
-0.620605
9.09342
-0.640879
7.12102
-0.624085
5.57272
-0.579673
4.34409
-0.48015
3.32572
-0.242679
2.37817
1.2454
-0.00212389
4.50737
-0.0222775
6.81018
-0.033107
7.94878
-0.0578379
9.3524
-0.0798824
10.8253
-0.112995
12.4962
-0.151824
14.3648
-0.199587
16.3806
-0.263518
18.5408
-0.349722
20.7927
-0.451384
19.3239
-0.552742
15.0146
-0.645843
11.7226
-0.711573
9.15915
-0.745666
7.15511
-0.768666
5.59572
-0.805357
4.38078
-0.909925
3.43029
-0.914577
2.38282
1.32771
-0.996887
-0.00345946
4.51083
-0.0214766
6.8282
-0.0360057
7.96331
-0.0570665
9.37346
-0.0790115
10.8473
-0.108643
12.5259
-0.146014
14.4021
-0.194217
16.4288
-0.259858
18.6065
-0.350939
20.8837
-0.463212
19.4362
-0.581284
15.1327
-0.70261
11.8439
-0.824703
9.28124
-0.945592
7.276
-1.06185
5.71198
-1.16211
4.48104
-1.14418
3.41236
-0.993534
2.23218
1.47978
-1.14561
-0.00446475
4.51529
-0.0157795
6.83952
-0.0297139
7.97724
-0.0540788
9.39782
-0.0759809
10.8692
-0.103195
12.5531
-0.140144
14.4391
-0.18863
16.4773
-0.255671
18.6735
-0.351023
20.9791
-0.47262
19.5578
-0.606825
15.2669
-0.752419
11.9895
-0.904053
9.43288
-1.04685
7.4188
-1.18036
5.84548
-1.2739
4.57458
-1.24622
3.38468
-1.29026
2.27621
1.73268
-1.54315
-0.0070689
4.52236
-0.0198795
6.85233
-0.0266839
7.98405
-0.0454596
9.4166
-0.0675922
10.8913
-0.0971717
12.5827
-0.133599
14.4755
-0.181826
16.5255
-0.249737
18.7414
-0.348903
21.0783
-0.479639
19.6886
-0.630899
15.4182
-0.803786
12.1624
-0.997474
9.62657
-1.20745
7.62877
-1.38313
6.02116
-1.48243
4.67388
-1.51122
3.41347
-1.64774
2.41274
1.9294
-1.84446
-0.000777092
4.52314
-0.0185578
6.87011
-0.0231722
7.98866
-0.0437979
9.43722
-0.062778
10.9103
-0.0919193
12.6118
-0.126785
14.5104
-0.174746
16.5735
-0.243137
18.8098
-0.34547
21.1806
-0.483197
19.8263
-0.645497
15.5805
-0.834269
12.3512
-1.0421
9.8344
-1.24397
7.83064
-1.41943
6.19662
-1.5398
4.79426
-1.61177
3.48544
-1.80019
2.60115
2.12624
-1.99703
0.0054627
4.51767
-0.0143797
6.88995
-0.0295188
8.0038
-0.0483516
9.45606
-0.06369
10.9256
-0.0897889
12.6379
-0.1242
14.5448
-0.172189
16.6214
-0.241004
18.8786
-0.345899
21.2855
-0.488767
19.9691
-0.65904
15.7507
-0.862052
12.5542
-1.08551
10.0579
-1.32913
8.07426
-1.59828
6.46577
-1.79911
4.99509
-1.94692
3.63325
-2.14834
2.80257
2.29598
-2.31807
-0.00286847
4.52054
-0.0145848
6.90167
-0.0214823
8.0107
-0.0432891
9.47786
-0.0612743
10.9436
-0.0901095
12.6667
-0.125589
14.5803
-0.173803
16.6697
-0.243169
18.948
-0.350393
21.3927
-0.49765
20.1164
-0.670372
15.9234
-0.877059
12.7609
-1.12145
10.3022
-1.37328
8.32609
-1.57544
6.66794
-1.76274
5.18239
-1.98972
3.86023
-2.23275
3.04559
2.50451
-2.44127
0.00320505
4.51734
-0.0152832
6.92015
-0.0196642
8.01508
-0.0406339
9.49883
-0.059728
10.9627
-0.0911032
12.6981
-0.126267
14.6154
-0.174728
16.7181
-0.244282
19.0176
-0.35267
21.5011
-0.502003
20.2657
-0.673976
16.0954
-0.880501
12.9674
-1.12752
10.5493
-1.40183
8.6004
-1.67612
6.94223
-1.94973
5.456
-2.31176
4.22226
-2.72878
3.4626
2.80587
-3.03014
0.00705148
4.51029
-0.0150411
6.94225
-0.0263814
8.02642
-0.0488572
9.52131
-0.064721
10.9786
-0.0926549
12.726
-0.127125
14.6499
-0.175703
16.7667
-0.245101
19.087
-0.352708
21.6087
-0.502669
20.4157
-0.67517
16.2679
-0.87158
13.1638
-1.11577
10.7935
-1.41441
8.89904
-1.70233
7.23015
-1.9017
5.65537
-2.31986
4.64042
-2.88855
4.03129
3.03787
-3.12055
-0.000179763
4.51047
-0.0173386
6.95941
-0.0258712
8.03495
-0.0479411
9.54338
-0.0666057
10.9972
-0.0936082
12.7531
-0.128003
14.6843
-0.175837
16.8145
-0.244309
19.1554
-0.349149
21.7136
-0.496686
20.5632
-0.667188
16.4384
-0.857687
13.3543
-1.06589
11.0017
-1.32833
9.16149
-1.65615
7.55797
-2.09873
6.09795
-2.57158
5.11327
-3.19895
4.65866
3.90745
-4.06853
-0.00315787
4.51362
-0.0165063
6.97275
-0.023235
8.04168
-0.043447
9.56359
-0.0650181
11.0188
-0.0936599
12.7817
-0.127412
14.718
-0.173735
16.8609
-0.238843
19.2205
-0.336111
21.8108
-0.468906
20.696
-0.619869
16.5894
-0.787712
13.5222
-0.969861
11.1838
-1.16436
9.35598
-1.43894
7.83255
-1.83932
6.49832
-2.11445
5.3884
-1.55441
4.09863
2.35304
0.00403415
4.50959
-0.0152986
6.99209
-0.0257615
8.05214
-0.0471928
9.58502
-0.0664524
11.0381
-0.0948114
12.8101
-0.129017
14.7522
-0.176942
16.9088
-0.24346
19.2871
-0.341205
21.9086
-0.467967
20.8228
-0.610453
16.7319
-0.761853
13.6736
-0.915683
11.3376
-1.04869
9.48899
-1.10924
7.8931
-1.08967
6.47876
-0.979126
5.27785
-0.735113
3.85462
1.61792
0.00522047
4.50437
-0.0153994
7.01271
-0.0263615
8.0631
-0.047813
9.60647
-0.0671035
11.0574
-0.0941219
12.8371
-0.128603
14.7867
-0.176606
16.9568
-0.242798
19.3532
-0.339189
22.005
-0.455606
20.9392
-0.57966
16.8559
-0.70162
13.7955
-0.795644
11.4317
-0.823539
9.51688
-0.775852
7.84542
-0.761005
6.46391
-0.842615
5.35947
-0.796577
3.80858
0.821347
0.00233552
4.50203
-0.0132187
7.02826
-0.0237657
8.07365
-0.0438497
9.62656
-0.0642946
11.0778
-0.0909923
12.8638
-0.125571
14.8213
-0.173192
17.0044
-0.236706
19.4168
-0.328138
22.0964
-0.430653
21.0417
-0.521869
16.9471
-0.568061
13.8417
-0.61901
11.4826
-0.618496
9.51637
-0.602143
7.82906
-0.609067
6.47084
-0.596582
5.34698
-0.30247
3.51447
0.518877
0.00556706
4.49647
-0.00855861
7.04239
-0.0203083
8.0854
-0.0406883
9.64694
-0.0617979
11.0989
-0.086227
12.8882
-0.120577
14.8557
-0.165826
17.0496
-0.223759
19.4747
-0.305503
22.1781
-0.389084
21.1253
-0.442073
17.0001
-0.453435
13.8531
-0.431839
11.461
-0.382872
9.4674
-0.407614
7.85381
-0.339533
6.40275
-0.159233
5.16668
0.0386144
3.31662
0.557491
0.00567864
4.49079
-0.00706549
7.05513
-0.0179564
8.09629
-0.0384198
9.6674
-0.0564832
11.117
-0.0779894
12.9097
-0.112665
14.8903
-0.15299
17.09
-0.204097
19.5258
-0.271678
22.2457
-0.330214
21.1838
-0.344978
17.0149
-0.338341
13.8464
-0.249088
11.3718
-0.137395
9.35571
-0.0336174
7.75003
-0.00805437
6.37719
0.146361
5.01226
0.20948
3.2535
0.766971
0.00717194
4.48362
-0.0033786
7.06568
-0.012764
8.10568
-0.0293981
9.68404
-0.0452446
11.1328
-0.0665304
12.931
-0.102248
14.926
-0.133533
17.1213
-0.177375
19.5696
-0.229168
22.2975
-0.264205
21.2189
-0.252249
17.0029
-0.20721
13.8014
-0.115529
11.2801
-0.00491132
9.24509
0.141748
7.60337
0.346145
6.17279
0.43336
4.92505
0.398813
3.28805
1.16578
0.0087199
4.4749
0.00265797
7.07174
-0.00461164
8.11295
-0.0171178
9.69654
-0.0280067
11.1437
-0.0523918
12.9554
-0.0847316
14.9584
-0.104663
17.1412
-0.142854
19.6078
-0.180693
22.3353
-0.196908
21.2351
-0.172481
16.9785
-0.100005
13.7289
-0.00652511
11.1866
0.120416
9.11815
0.251134
7.47265
0.402057
6.02187
0.499457
4.82765
0.390389
3.39712
1.55617
0.0151399
4.45976
0.0115208
7.07536
0.00369566
8.12077
-0.00570812
9.70595
-0.0152067
11.1532
-0.0359476
12.9761
-0.0536927
14.9761
-0.0686946
17.1562
-0.101545
19.6407
-0.128509
22.3623
-0.133581
21.2402
-0.107842
16.9528
-0.0373899
13.6585
0.0606266
11.0886
0.203461
8.97532
0.315714
7.3604
0.382972
5.95461
0.413069
4.79755
0.300111
3.51007
1.85628
0.0169543
4.4428
0.018785
7.07353
0.0146985
8.12486
0.0109564
9.70969
0.0113864
11.1528
-0.0074417
12.9949
-0.00283883
14.9715
-0.0311513
17.1845
-0.0538544
19.6634
-0.072271
22.3807
-0.0717754
21.2397
-0.0443559
16.9254
0.0115558
13.6026
0.108476
10.9917
0.211095
8.8727
0.301697
7.2698
0.350475
5.90583
0.36293
4.7851
0.247223
3.62578
2.10351
0.0252424
4.41756
0.033181
7.06559
0.0338944
8.12414
0.0305816
9.713
0.0406771
11.1427
0.0229606
13.0127
0.0345473
14.9599
0.0112484
17.2078
0.000550057
19.6741
-0.0112997
22.3926
-0.00577396
21.2341
0.0255442
16.894
0.0766971
13.5514
0.136471
10.9319
0.17096
8.83821
0.24313
7.19763
0.280565
5.8684
0.293734
4.77193
0.192172
3.72734
2.29568
0.0303494
4.38721
0.0449588
7.05098
0.056294
8.11281
0.0618058
9.70749
0.0761083
11.1284
0.0840668
13.0047
0.0890988
14.9549
0.0910043
17.2059
0.0832525
19.6818
0.0708976
22.4049
0.0739817
21.2311
0.0988903
16.8691
0.130966
13.5193
0.157459
10.9054
0.147058
8.84861
0.186331
7.15835
0.202809
5.85192
0.203919
4.77082
0.124862
3.8064
2.42054
0.0403943
4.34682
0.060308
7.03107
0.0798942
8.09322
0.10249
9.68489
0.124394
11.1065
0.144381
12.9847
0.163319
14.936
0.173997
17.1952
0.175285
19.6805
0.166884
22.4133
0.161268
21.2367
0.165311
16.8651
0.178148
13.5065
0.179558
10.904
0.150498
8.87767
0.15112
7.15773
0.14067
5.86237
0.130983
4.78051
0.0670661
3.87032
2.48761
0.0496557
4.29716
0.0826778
6.99805
0.117209
8.05869
0.158426
9.64367
0.194021
11.0709
0.228774
12.95
0.262918
14.9018
0.282841
17.1753
0.289769
19.6736
0.279668
22.4234
0.259144
21.2572
0.237406
16.8868
0.219651
13.5243
0.197277
10.9264
0.162854
8.91209
0.136084
7.1845
0.107223
5.89123
0.0806652
4.80706
0.0345821
3.9164
2.52219
0.0691235
4.22804
0.122268
6.9449
0.16885
8.01211
0.22335
9.58918
0.277554
11.0167
0.328899
12.8986
0.377973
14.8528
0.41278
17.1405
0.428099
19.6583
0.417143
22.4344
0.381858
21.2925
0.33447
16.9342
0.283714
13.575
0.237241
10.9728
0.197746
8.95159
0.145356
7.23689
0.100683
5.9359
0.0571999
4.85055
0.0130284
3.96057
2.53522
0.0863602
4.14168
0.156771
6.87449
0.230083
7.9388
0.313025
9.50623
0.389731
10.94
0.467278
12.8211
0.535324
14.7847
0.587807
17.088
0.614443
19.6317
0.601229
22.4476
0.544476
21.3492
0.464892
17.0138
0.376635
13.6633
0.297331
11.0521
0.239035
9.00988
0.164675
7.31125
0.108825
5.99175
0.0558068
4.90357
0.016067
4.00031
2.55128
0.114747
4.02693
0.225942
6.7633
0.32448
7.84026
0.431876
9.39884
0.534529
10.8373
0.646614
12.709
0.742398
14.6889
0.816712
17.0137
0.856295
19.5921
0.841381
22.4625
0.763964
21.4267
0.654531
17.1232
0.53368
13.7841
0.421878
11.1639
0.334241
9.09752
0.239515
7.40598
0.162643
6.06863
0.0922923
4.97392
0.0376255
4.05498
2.58891
0.169325
3.8576
0.312574
6.62005
0.453841
7.69899
0.611639
9.24104
0.745995
10.703
0.894326
12.5607
1.02078
14.5625
1.1245
16.91
1.18408
19.5325
1.17266
22.4739
1.07612
21.5232
0.933272
17.2661
0.771264
13.9461
0.611674
11.3235
0.471952
9.23724
0.336758
7.54117
0.225585
6.1798
0.130254
5.06925
0.0571693
4.12806
2.64608
0.241162
3.61644
0.469336
6.39187
0.664248
7.50408
0.865709
9.03958
1.04
10.5287
1.2383
12.3624
1.40696
14.3938
1.54576
16.7712
1.63004
19.4482
1.62789
22.4761
1.51881
21.6323
1.34765
17.4372
1.14828
14.1455
0.94349
11.5283
0.75034
9.43039
0.564655
7.72686
0.39678
6.34767
0.248635
5.21739
0.117928
4.25877
2.76401
0.404004
3.21244
0.749361
6.04652
0.982142
7.2713
1.24591
8.77581
1.48
10.2946
1.72957
12.1128
1.94053
14.1828
2.12111
16.5906
2.24279
19.3265
2.26469
22.4542
2.15662
21.7404
1.96665
17.6272
1.73241
14.3797
1.47618
11.7845
1.21355
9.69302
0.948609
7.9918
0.69368
6.6026
0.455025
5.45605
0.230995
4.4828
2.995
0.302515
2.90992
0.627266
5.72177
0.897498
7.00107
1.22264
8.45067
1.4705
10.0467
1.68579
11.8975
1.84777
14.0209
1.95901
16.4794
1.98882
19.2967
1.9103
22.5327
1.73473
21.9159
1.525
17.8369
1.30697
14.5978
1.093
11.9985
0.889262
9.89677
0.694889
8.18617
0.509692
6.7878
0.339617
5.62612
0.168533
4.65388
3.16354
0.0484907
2.86143
0.19436
5.5759
0.422972
6.77245
0.673978
8.19966
0.89265
9.82805
1.1138
11.6764
1.31561
13.8191
1.46862
16.3263
1.54173
19.2236
1.5104
22.564
1.37858
22.0477
1.20259
18.0129
1.01095
14.7894
0.818019
12.1914
0.632555
10.0822
0.459115
8.35961
0.303087
6.94383
0.163794
5.76542
0.0626437
4.75503
3.22618
0.00969413
2.85174
0.13552
5.45007
0.234384
6.67359
0.382059
8.05199
0.554485
9.65563
0.751036
11.4798
0.936681
13.6334
1.08842
16.1746
1.18056
19.1315
1.18328
22.5613
1.08724
22.1438
0.941385
18.1588
0.777599
14.9532
0.613366
12.3557
0.460084
10.2355
0.325312
8.49439
0.211496
7.05764
0.114368
5.86254
0.0377039
4.8317
3.26388
-0.0492288
2.90097
0.0493677
5.35147
0.155539
6.56742
0.274854
7.93267
0.408621
9.52186
0.55057
11.3379
0.689086
13.4949
0.812999
16.0507
0.899105
19.0454
0.916731
22.5437
0.848934
22.2116
0.734511
18.2732
0.604498
15.0832
0.476536
12.4836
0.360156
10.3519
0.258755
8.59579
0.170696
7.1457
0.0905664
5.94267
0.0233427
4.89892
3.28723
-0.0944547
2.99542
-0.0184226
5.27544
0.0830332
6.46596
0.189041
7.82666
0.310227
9.40067
0.427654
11.2204
0.532592
13.39
0.625619
15.9577
0.693589
18.9774
0.711797
22.5255
0.663562
22.2598
0.57751
18.3593
0.478736
15.182
0.380703
12.5817
0.288885
10.4437
0.204793
8.67988
0.128941
7.22155
0.0595936
6.01202
0.00554531
4.95297
3.29277
-0.0796943
3.07512
-0.0395444
5.23529
0.0268966
6.39952
0.106094
7.74747
0.213633
9.29313
0.315671
11.1184
0.40696
13.2987
0.485652
15.879
0.541011
18.922
0.556835
22.5096
0.521236
22.2954
0.455303
18.4252
0.377591
15.2597
0.298081
12.6612
0.22173
10.5201
0.151449
8.75016
0.0896685
7.28334
0.0358702
6.06582
-0.00386924
4.99271
3.2889
-0.0557937
3.13091
-0.0325295
5.21203
0.00526319
6.36173
0.060752
7.69198
0.139975
9.21391
0.218348
11.04
0.296388
13.2206
0.366972
15.8084
0.417374
18.8716
0.434214
22.4928
0.408075
22.3216
0.355707
18.4776
0.292454
15.3229
0.227479
12.7262
0.166092
10.5814
0.111119
8.80513
0.0641066
7.33035
0.0243616
6.10556
-0.00535985
5.02243
3.28354
-0.03838
3.16929
-0.0203405
5.19399
0.00511285
6.33628
0.046897
7.65019
0.0996817
9.16113
0.155316
10.9844
0.215373
13.1606
0.273163
15.7506
0.317471
18.8273
0.335427
22.4749
0.317088
22.3399
0.275912
18.5187
0.225619
15.3732
0.174562
12.7772
0.12717
10.6288
0.0851774
8.84713
0.0490642
7.36646
0.0186721
6.13596
-0.00463629
5.04574
3.27891
-0.0262477
3.19554
-0.0112113
5.17895
0.00742703
6.31764
0.0414261
7.6162
0.0787145
9.12384
0.119509
10.9436
0.16402
13.1161
0.207785
15.7068
0.243106
18.792
0.259216
22.4587
0.246405
22.3527
0.214874
18.5503
0.176022
15.4121
0.136576