/*--------------------------------*- C++ -*----------------------------------*\
| =========                 |                                                 |
| \\      /  F ield         | OpenFOAM: The Open Source CFD Toolbox           |
|  \\    /   O peration     | Version:  2412                                  |
|   \\  /    A nd           | Website:  www.openfoam.com                      |
|    \\/     M anipulation  |                                                 |
\*---------------------------------------------------------------------------*/
FoamFile
{
    version     2.0;
    format      ascii;
    arch        "LSB;label=32;scalar=64";
    class       volVectorField;
    location    "1.5";
    object      U;
}
// * * * * * * * * * * * * * * * * * * * * * * * * * * * * * * * * * * * * * //

dimensions      [0 1 -1 0 0 0 0];

internalField   nonuniform List<vector> 
2200
(
(0.349505 0.0148815 0)
(1.15121 0.000244097 0)
(2.10045 -0.00261486 0)
(3.15369 -0.000493454 0)
(4.32053 0.00436295 0)
(5.5747 0.00932876 0)
(6.86884 0.0135895 0)
(8.12454 0.0160037 0)
(9.20806 0.0112523 0)
(9.89859 0.00567132 0)
(9.89802 -0.00383017 0)
(9.20791 -0.0107506 0)
(8.12452 -0.0149939 0)
(6.86848 -0.0128971 0)
(5.57446 -0.00878665 0)
(4.32047 -0.00388343 0)
(3.15363 0.00096895 0)
(2.10026 0.00287777 0)
(1.151 -0.000105376 0)
(0.34932 -0.0148523 0)
(0.427456 0.0337695 0)
(1.14378 0.0592524 0)
(2.08759 0.0372288 0)
(3.13549 0.0297097 0)
(4.30477 0.0341737 0)
(5.55609 0.0417257 0)
(6.85092 0.0407414 0)
(8.10652 0.0395379 0)
(9.18451 0.0328335 0)
(9.87603 0.0174253 0)
(9.87611 -0.0132285 0)
(9.18358 -0.0289097 0)
(8.10584 -0.0365821 0)
(6.85089 -0.038328 0)
(5.55608 -0.0395333 0)
(4.30426 -0.032613 0)
(3.13462 -0.0286947 0)
(2.08678 -0.0366586 0)
(1.14297 -0.0589837 0)
(0.426834 -0.0336536 0)
(0.653826 0.0479563 0)
(1.21431 0.123315 0)
(2.06903 0.150855 0)
(3.1496 0.114143 0)
(4.33673 0.0876209 0)
(5.56954 0.0980284 0)
(6.82828 0.110181 0)
(8.06558 0.095237 0)
(9.15761 0.0776084 0)
(9.83736 0.0414908 0)
(9.83722 -0.0340854 0)
(9.1587 -0.0711921 0)
(8.06576 -0.0894925 0)
(6.82725 -0.105515 0)
(5.56772 -0.0947737 0)
(4.33471 -0.0853218 0)
(3.14749 -0.112567 0)
(2.06694 -0.150035 0)
(1.21255 -0.123169 0)
(0.652013 -0.0478786 0)
(1.00831 0.0482843 0)
(1.45983 0.176079 0)
(2.10574 0.269092 0)
(3.14406 0.283701 0)
(4.39175 0.255961 0)
(5.64334 0.208854 0)
(6.8877 0.191177 0)
(8.06084 0.16535 0)
(9.08801 0.124071 0)
(9.73945 0.0445658 0)
(9.74029 -0.0341195 0)
(9.08459 -0.11521 0)
(8.05733 -0.158389 0)
(6.88411 -0.186227 0)
(5.63971 -0.204879 0)
(4.3873 -0.25308 0)
(3.13988 -0.282161 0)
(2.10181 -0.268295 0)
(1.4573 -0.174945 0)
(1.00733 -0.0479583 0)
(1.46049 0.0577766 0)
(1.9475 0.22153 0)
(2.30145 0.382053 0)
(3.20389 0.479337 0)
(4.35979 0.498536 0)
(5.63091 0.448093 0)
(6.92592 0.367047 0)
(8.07666 0.302996 0)
(9.08681 0.202237 0)
(9.68537 0.0766944 0)
(9.68535 -0.0656502 0)
(9.08256 -0.192069 0)
(8.07145 -0.29178 0)
(6.91818 -0.358331 0)
(5.62239 -0.442144 0)
(4.35182 -0.4949 0)
(3.19639 -0.477098 0)
(2.29765 -0.38059 0)
(1.94242 -0.221758 0)
(1.45307 -0.058 0)
(2.00478 0.07614 0)
(2.51905 0.240356 0)
(2.74855 0.469829 0)
(3.39053 0.635594 0)
(4.33353 0.709392 0)
(5.51912 0.680776 0)
(6.78027 0.583296 0)
(8.03207 0.453794 0)
(9.03122 0.332204 0)
(9.60749 0.139841 0)
(9.60625 -0.123446 0)
(9.02499 -0.31705 0)
(8.02364 -0.443295 0)
(6.77012 -0.574655 0)
(5.50686 -0.674816 0)
(4.32332 -0.705515 0)
(3.38199 -0.632951 0)
(2.73814 -0.468647 0)
(2.51375 -0.239221 0)
(2.00532 -0.0755134 0)
(2.60612 0.0846216 0)
(3.16413 0.240843 0)
(3.31101 0.494055 0)
(3.73391 0.705153 0)
(4.42001 0.850281 0)
(5.44346 0.874768 0)
(6.54156 0.796667 0)
(7.8098 0.596534 0)
(8.86263 0.39169 0)
(9.43306 0.173127 0)
(9.43118 -0.153087 0)
(8.85399 -0.372794 0)
(7.79645 -0.581616 0)
(6.5267 -0.786147 0)
(5.42799 -0.866953 0)
(4.40643 -0.844542 0)
(3.72075 -0.700716 0)
(3.30261 -0.489797 0)
(3.15511 -0.237996 0)
(2.59159 -0.0839418 0)
(3.20523 0.0797422 0)
(3.84004 0.226203 0)
(3.93963 0.475827 0)
(4.20578 0.702888 0)
(4.67009 0.910372 0)
(5.46701 1.00666 0)
(6.3957 0.986125 0)
(7.46414 0.820014 0)
(8.47194 0.489881 0)
(9.03966 0.203612 0)
(9.03733 -0.180303 0)
(8.46082 -0.469579 0)
(7.44472 -0.800885 0)
(6.3736 -0.971348 0)
(5.44801 -0.995084 0)
(4.65154 -0.901762 0)
(4.1916 -0.697316 0)
(3.9275 -0.472843 0)
(3.82588 -0.225534 0)
(3.19291 -0.079248 0)
(3.74461 0.0656575 0)
(4.48912 0.198203 0)
(4.56741 0.425632 0)
(4.7328 0.643284 0)
(5.03478 0.870757 0)
(5.55928 1.03703 0)
(6.36946 1.0575 0)
(7.22014 0.984011 0)
(8.10323 0.633114 0)
(8.63885 0.254374 0)
(8.63396 -0.223033 0)
(8.0845 -0.608189 0)
(7.20075 -0.966571 0)
(6.34343 -1.03931 0)
(5.53509 -1.02345 0)
(5.01096 -0.859687 0)
(4.71095 -0.634036 0)
(4.54539 -0.419749 0)
(4.46956 -0.194856 0)
(3.7251 -0.0637645 0)
(4.18459 0.047592 0)
(5.06329 0.160357 0)
(5.13601 0.352217 0)
(5.2415 0.543367 0)
(5.44018 0.751945 0)
(5.77803 0.944788 0)
(6.38005 1.04129 0)
(7.08611 0.978987 0)
(7.82227 0.699559 0)
(8.33297 0.277628 0)
(8.32702 -0.242494 0)
(7.80076 -0.666829 0)
(7.05703 -0.949032 0)
(6.35098 -1.01911 0)
(5.74711 -0.925952 0)
(5.41082 -0.736463 0)
(5.21216 -0.532406 0)
(5.10816 -0.343475 0)
(5.0372 -0.15511 0)
(4.14947 -0.0444354 0)
(4.51088 0.0305561 0)
(5.53332 0.120246 0)
(5.60738 0.271358 0)
(5.67657 0.426067 0)
(5.81069 0.599582 0)
(6.04393 0.764863 0)
(6.43424 0.898535 0)
(6.96276 0.851294 0)
(7.54185 0.655779 0)
(7.99107 0.264039 0)
(7.97938 -0.222111 0)
(7.51758 -0.616363 0)
(6.92536 -0.812059 0)
(6.39702 -0.867447 0)
(6.00424 -0.737865 0)
(5.77292 -0.57895 0)
(5.63991 -0.411558 0)
(5.57116 -0.260862 0)
(5.49291 -0.114671 0)
(4.46337 -0.0299641 0)
(4.7344 0.0179528 0)
(5.89353 0.0850599 0)
(5.97146 0.19851 0)
(6.01694 0.316522 0)
(6.10641 0.449636 0)
(6.26202 0.581285 0)
(6.51793 0.688642 0)
(6.86424 0.682945 0)
(7.29181 0.55597 0)
(7.63105 0.238769 0)
(7.62254 -0.181645 0)
(7.26125 -0.505208 0)
(6.82637 -0.640232 0)
(6.4698 -0.648435 0)
(6.21166 -0.548922 0)
(6.05524 -0.425741 0)
(5.96521 -0.298249 0)
(5.91827 -0.187221 0)
(5.83533 -0.0802065 0)
(4.6756 -0.0163601 0)
(4.88152 0.0104618 0)
(6.15693 0.0591981 0)
(6.23927 0.141575 0)
(6.26904 0.229351 0)
(6.32793 0.327768 0)
(6.4293 0.425698 0)
(6.59413 0.512013 0)
(6.8243 0.525439 0)
(7.11968 0.447408 0)
(7.35307 0.206852 0)
(7.34152 -0.132634 0)
(7.07857 -0.377616 0)
(6.77625 -0.470274 0)
(6.53635 -0.461302 0)
(6.36683 -0.388351 0)
(6.26035 -0.298265 0)
(6.198 -0.207348 0)
(6.16604 -0.127203 0)
(6.08646 -0.0517323 0)
(4.80381 -0.00431395 0)
(4.98015 0.0063078 0)
(6.34705 0.0415663 0)
(6.43272 0.100209 0)
(6.45257 0.163851 0)
(6.49169 0.237167 0)
(6.55677 0.307498 0)
(6.6626 0.371658 0)
(6.81948 0.398669 0)
(7.00719 0.342933 0)
(7.16628 0.167357 0)
(7.14334 -0.0772174 0)
(6.96036 -0.256141 0)
(6.75263 -0.319166 0)
(6.58977 -0.307976 0)
(6.47675 -0.258781 0)
(6.40602 -0.198326 0)
(6.36299 -0.135665 0)
(6.34118 -0.0798941 0)
(6.26092 -0.027448 0)
(4.86734 0.00139309 0)
(5.04826 0.00410707 0)
(6.48424 0.0305197 0)
(6.57247 0.0719334 0)
(6.58614 0.118023 0)
(6.61156 0.171568 0)
(6.65377 0.22519 0)
(6.71917 0.269592 0)
(6.81885 0.29944 0)
(6.92511 0.257021 0)
(7.03168 0.136775 0)
(7.00426 -0.0250581 0)
(6.87757 -0.153258 0)
(6.7343 -0.195086 0)
(6.62377 -0.18891 0)
(6.54728 -0.15832 0)
(6.50021 -0.120066 0)
(6.47399 -0.0802603 0)
(6.45993 -0.0455344 0)
(6.36603 -0.0119992 0)
(4.8892 -0.000677732 0)
(5.10015 0.00331668 0)
(6.5844 0.021887 0)
(6.67515 0.0533737 0)
(6.6844 0.0862457 0)
(6.69956 0.125038 0)
(6.72638 0.167049 0)
(6.76532 0.200382 0)
(6.81737 0.224283 0)
(6.87119 0.202167 0)
(6.93622 0.128313 0)
(6.91196 0.0195497 0)
(6.81899 -0.0697323 0)
(6.7191 -0.0996835 0)
(6.64409 -0.100922 0)
(6.59149 -0.0855753 0)
(6.55703 -0.0633174 0)
(6.53786 -0.0421104 0)
(6.52594 -0.0233798 0)
(6.41518 -0.00848565 0)
(4.91052 -0.00288863 0)
(5.13942 0.0037818 0)
(6.65894 0.0208376 0)
(6.75023 0.0429739 0)
(6.75635 0.0709055 0)
(6.76403 0.0991443 0)
(6.77873 0.132087 0)
(6.80045 0.15974 0)
(6.821 0.176675 0)
(6.84898 0.178929 0)
(6.87239 0.138777 0)
(6.84684 0.0588228 0)
(6.77098 -0.00230993 0)
(6.69844 -0.0281689 0)
(6.64465 -0.0370831 0)
(6.60682 -0.0345305 0)
(6.58102 -0.0267358 0)
(6.56471 -0.018951 0)
(6.55006 -0.0108756 0)
(6.44106 -0.00763943 0)
(4.92784 0.00085337 0)
(5.18743 0.00545339 0)
(6.72004 0.0170967 0)
(6.81359 0.0399606 0)
(6.8169 0.0611626 0)
(6.81896 0.0870802 0)
(6.8241 0.115677 0)
(6.83261 0.14213 0)
(6.83474 0.156691 0)
(6.8489 0.17696 0)
(6.83461 0.16145 0)
(6.80205 0.0981192 0)
(6.7349 0.0555485 0)
(6.67816 0.0288324 0)
(6.6352 0.0131349 0)
(6.6051 0.00526992 0)
(6.58487 0.00171165 0)
(6.57095 -0.000110927 0)
(6.55365 -0.000522003 0)
(6.45271 -0.000162999 0)
(4.92729 0.00210365 0)
(5.23029 0.00573702 0)
(6.78055 0.0251951 0)
(6.87051 0.0399712 0)
(6.87187 0.0652477 0)
(6.87058 0.088869 0)
(6.86841 0.11566 0)
(6.86583 0.144219 0)
(6.85507 0.157241 0)
(6.86091 0.183358 0)
(6.81104 0.191931 0)
(6.76446 0.138757 0)
(6.70024 0.107478 0)
(6.6498 0.0778756 0)
(6.61127 0.0568756 0)
(6.58469 0.0408133 0)
(6.56744 0.0284326 0)
(6.55718 0.0189303 0)
(6.54516 0.00850527 0)
(6.44966 0.00640969 0)
(4.91887 0.00288876 0)
(5.30127 0.0100625 0)
(6.83951 0.0199193 0)
(6.93484 0.0470154 0)
(6.93364 0.0687996 0)
(6.92718 0.0967323 0)
(6.91696 0.126386 0)
(6.90248 0.160792 0)
(6.88125 0.178955 0)
(6.88818 0.211682 0)
(6.79845 0.225593 0)
(6.73556 0.186031 0)
(6.67166 0.158452 0)
(6.62156 0.124902 0)
(6.58385 0.0977532 0)
(6.55785 0.073815 0)
(6.54048 0.0527126 0)
(6.5291 0.0367712 0)
(6.52217 0.0230605 0)
(6.43314 0.0119609 0)
(4.89283 0.00802438 0)
(5.36677 0.0092751 0)
(6.92127 0.0395183 0)
(7.00362 0.0565944 0)
(7.00047 0.0865104 0)
(6.98988 0.11906 0)
(6.97272 0.152942 0)
(6.94599 0.192847 0)
(6.91707 0.224577 0)
(6.90971 0.256509 0)
(6.79173 0.266321 0)
(6.71058 0.241897 0)
(6.6395 0.212222 0)
(6.58346 0.174614 0)
(6.54242 0.141252 0)
(6.51408 0.11107 0)
(6.49549 0.0851768 0)
(6.48381 0.0633036 0)
(6.47892 0.0448162 0)
(6.39303 0.0319171 0)
(4.82807 0.00990179 0)
(5.48232 0.0164779 0)
(6.998 0.0321518 0)
(7.09394 0.0696925 0)
(7.08478 0.109156 0)
(7.0688 0.150633 0)
(7.04137 0.19623 0)
(7.00111 0.24654 0)
(6.95676 0.29091 0)
(6.92265 0.320228 0)
(6.78523 0.326111 0)
(6.68534 0.310583 0)
(6.60201 0.274586 0)
(6.5378 0.230984 0)
(6.49214 0.188732 0)
(6.46101 0.148833 0)
(6.44079 0.112521 0)
(6.42885 0.0830286 0)
(6.42268 0.0562384 0)
(6.31714 0.0293657 0)
(4.72829 0.0156383 0)
(5.59695 0.0202243 0)
(7.13922 0.0664605 0)
(7.2074 0.104582 0)
(7.19681 0.146663 0)
(7.16903 0.199529 0)
(7.12847 0.258954 0)
(7.07148 0.31734 0)
(7.00517 0.372671 0)
(6.93786 0.401829 0)
(6.78451 0.406271 0)
(6.66366 0.39175 0)
(6.56323 0.347345 0)
(6.48762 0.295389 0)
(6.4336 0.24289 0)
(6.39605 0.193972 0)
(6.37134 0.149798 0)
(6.35577 0.110423 0)
(6.34687 0.0804357 0)
(6.23431 0.051286 0)
(4.64827 0.012941 0)
(5.819 0.0303889 0)
(7.27459 0.071531 0)
(7.35993 0.128352 0)
(7.3312 0.201319 0)
(7.28994 0.277441 0)
(7.23044 0.348486 0)
(7.1493 0.420906 0)
(7.05425 0.48298 0)
(6.94864 0.512729 0)
(6.77617 0.515014 0)
(6.63003 0.492692 0)
(6.50907 0.436658 0)
(6.41981 0.373818 0)
(6.35561 0.309706 0)
(6.31015 0.248151 0)
(6.27976 0.191669 0)
(6.26064 0.14004 0)
(6.24194 0.0897771 0)
(6.09833 0.0478604 0)
(4.49824 0.0205949 0)
(6.03298 0.052312 0)
(7.51015 0.13757 0)
(7.55596 0.217704 0)
(7.50856 0.305188 0)
(7.43984 0.389739 0)
(7.34736 0.48268 0)
(7.23496 0.561128 0)
(7.10532 0.622978 0)
(6.95954 0.6501 0)
(6.76496 0.645098 0)
(6.59284 0.608639 0)
(6.4516 0.53928 0)
(6.34765 0.463701 0)
(6.2714 0.38743 0)
(6.21547 0.314736 0)
(6.17454 0.246298 0)
(6.14569 0.186407 0)
(6.12117 0.134929 0)
(5.9754 0.0802671 0)
(4.38347 0.0250319 0)
(6.6697 0.122122 0)
(7.77336 0.206666 0)
(7.8029 0.338345 0)
(7.71279 0.462989 0)
(7.60175 0.581732 3.39876e-33)
(7.47093 0.674648 -2.1985e-33)
(7.32168 0.747739 0)
(7.15215 0.802416 0)
(6.96547 0.820525 0)
(6.74466 0.801952 0)
(6.54388 0.746682 0)
(6.38016 0.661738 0)
(6.25876 0.572838 0)
(6.16726 0.485277 0)
(6.09824 0.403207 0)
(6.04634 0.326187 0)
(6.00555 0.248297 0)
(5.96191 0.173075 0)
(5.75994 0.101988 0)
(4.08076 0.0486371 0)
(7.09692 0.284335 -2.9946e-19)
(8.14869 0.378774 2.64337e-19)
(8.07159 0.594286 0)
(7.91667 0.740099 5.74928e-20)
(7.75939 0.839724 -4.63126e-20)
(7.58752 0.920561 2.33157e-33)
(7.39634 0.984563 0)
(7.18428 1.02857 2.06142e-19)
(6.95688 1.03276 -7.32629e-19)
(6.70458 0.997692 1.60002e-19)
(6.47122 0.923106 0)
(6.28182 0.822908 -5.14218e-19)
(6.13922 0.721627 -6.43686e-19)
(6.02868 0.623518 1.13269e-18)
(5.94143 0.530466 -9.10955e-19)
(5.87172 0.446368 0)
(5.81426 0.375868 -3.52685e-19)
(5.74619 0.293901 0)
(5.4757 0.20225 -1.92796e-18)
(3.81521 0.13889 2.15115e-18)
(7.39489 0.634596 -1.10044e-19)
(8.40518 0.825217 -2.01224e-18)
(8.27584 0.985954 5.34826e-19)
(8.09264 1.06883 6.15428e-19)
(7.89872 1.14793 -8.86735e-20)
(7.68829 1.21285 1.81217e-19)
(7.45347 1.26845 0)
(7.20219 1.29738 0)
(6.93676 1.2863 1.16371e-18)
(6.65003 1.23598 0)
(6.38131 1.14586 1.796e-18)
(6.16156 1.03598 5.5986e-19)
(5.99161 0.930183 1.85131e-20)
(5.85528 0.832963 -1.28733e-18)
(5.74253 0.745631 0)
(5.64654 0.66586 0)
(5.56322 0.599339 -6.08535e-18)
(5.4804 0.572002 1.54466e-17)
(5.26361 0.47156 -9.0831e-18)
(3.67208 0.327381 -1.01218e-17)
(7.52727 0.984444 2.70741e-18)
(8.59558 1.394 -9.25342e-19)
(8.46989 1.43067 -2.29355e-19)
(8.24737 1.4475 -1.13356e-18)
(8.01534 1.49572 5.61312e-19)
(7.76116 1.54523 -3.16734e-19)
(7.48836 1.58178 2.68846e-19)
(7.20384 1.58627 0)
(6.9037 1.55601 -2.42709e-18)
(6.58339 1.4882 2.63694e-18)
(6.28153 1.38305 -4.90865e-18)
(6.03333 1.26581 2.38618e-18)
(5.83905 1.15892 -1.75544e-18)
(5.68197 1.0655 3.8474e-18)
(5.55232 0.987323 0)
(5.44359 0.921149 -1.50849e-18)
(5.35064 0.854105 0)
(5.26117 0.800987 8.79705e-18)
(5.07838 0.791142 -2.09948e-17)
(3.63673 0.463112 1.25598e-17)
(7.56433 1.26959 -1.29802e-17)
(8.66834 1.95285 6.29276e-18)
(8.57396 1.88292 9.07638e-19)
(8.34687 1.86777 0)
(8.08571 1.88709 5.27766e-19)
(7.79791 1.90762 -5.2892e-19)
(7.49666 1.90961 -3.2324e-19)
(7.18381 1.88553 0)
(6.85297 1.83424 1.71721e-18)
(6.50384 1.74715 -1.81472e-18)
(6.17559 1.6264 4.29238e-18)
(5.90697 1.50117 0)
(5.69831 1.39178 -3.67748e-18)
(5.53208 1.2985 2.03652e-18)
(5.398 1.22107 5.50165e-18)
(5.28912 1.16128 -4.83111e-18)
(5.1989 1.11073 8.06344e-18)
(5.11353 1.01946 -1.80028e-17)
(4.95286 1.04382 1.14719e-17)
(3.6247 0.653936 -1.46678e-17)
(7.55801 1.5549 8.76727e-18)
(8.69869 2.44172 -6.92871e-18)
(8.64272 2.2689 2.74748e-18)
(8.38088 2.28234 -3.75424e-18)
(8.09899 2.2902 2.3643e-18)
(7.79595 2.27709 -3.04033e-19)
(7.47962 2.2431 1.18457e-19)
(7.14601 2.18994 -1.27718e-18)
(6.7911 2.11551 -1.74702e-18)
(6.42091 2.00656 -3.90084e-18)
(6.07452 1.8689 -9.24282e-18)
(5.79369 1.73377 -3.07501e-18)
(5.57845 1.61925 1.21449e-19)
(5.40961 1.52333 -7.21869e-18)
(5.2753 1.4429 -2.54893e-19)
(5.168 1.37909 7.04308e-18)
(5.07763 1.3495 -2.1816e-18)
(5.0026 1.23747 -1.29922e-18)
(4.84849 1.27937 0)
(3.60011 0.828284 3.10394e-17)
(7.47878 1.86938 0)
(8.65933 2.89074 1.86325e-18)
(8.64171 2.64397 0)
(8.34889 2.6989 -4.71542e-19)
(8.06672 2.67348 -2.8066e-18)
(7.76182 2.63312 4.46068e-19)
(7.44045 2.56772 2.43741e-19)
(7.09193 2.49017 2.2537e-18)
(6.72084 2.39268 -1.04295e-18)
(6.33679 2.26184 1.74751e-18)
(5.97725 2.10713 4.97559e-18)
(5.68747 1.96035 6.79563e-18)
(5.46737 1.83844 -4.21542e-18)
(5.29624 1.73825 7.79996e-18)
(5.161 1.65425 -6.25641e-18)
(5.05406 1.58279 0)
(4.96011 1.56663 -1.6726e-17)
(4.89438 1.4455 2.24813e-17)
(4.7436 1.49103 1.7186e-18)
(3.55064 0.993857 -3.21343e-17)
(7.40108 2.2062 -9.27684e-19)
(8.61932 3.29632 -5.55844e-18)
(8.59337 2.99198 -1.44703e-17)
(8.27407 3.08201 7.72099e-18)
(7.99774 3.02896 -1.45572e-18)
(7.70258 2.96164 7.19863e-19)
(7.38027 2.87611 1.3583e-19)
(7.02208 2.78127 -3.28202e-19)
(6.64208 2.66309 -3.79329e-18)
(6.24782 2.51108 2.29253e-20)
(5.87652 2.3384 -5.39193e-18)
(5.57848 2.17812 -7.2009e-18)
(5.35376 2.04704 4.73839e-18)
(5.18035 1.94113 -2.79727e-18)
(5.04436 1.85339 6.78441e-18)
(4.9386 1.77308 0)
(4.8411 1.76431 -1.03236e-17)
(4.78507 1.63309 1.52714e-17)
(4.63424 1.68281 2.98464e-17)
(3.4875 1.13734 -3.31884e-17)
(7.28281 2.44981 -2.61201e-17)
(8.51958 3.66471 1.26286e-17)
(8.5203 3.33518 9.03505e-18)
(8.17826 3.43918 -8.06874e-18)
(7.92098 3.34644 4.57659e-19)
(7.62959 3.26316 1.84164e-18)
(7.3032 3.16693 -3.61895e-19)
(6.93652 3.05817 -9.28195e-19)
(6.55201 2.91989 -2.36613e-18)
(6.14983 2.74834 3.9448e-18)
(5.76949 2.55897 5.14682e-18)
(5.46523 2.38532 1.13079e-17)
(5.23718 2.24422 0)
(5.0626 2.13108 2.08729e-19)
(4.92684 2.03886 -1.88054e-17)
(4.82385 1.94976 4.31225e-18)
(4.72268 1.94261 2.20715e-17)
(4.6775 1.80498 -6.40831e-18)
(4.52108 1.85403 1.43707e-17)
(3.41745 1.26477 -8.55582e-19)
(7.19178 2.76117 1.08797e-18)
(8.44113 4.04759 1.15472e-17)
(8.4388 3.66043 6.56543e-18)
(8.07961 3.78033 -1.38057e-17)
(7.84043 3.64454 8.34058e-18)
(7.54785 3.54606 -2.25212e-18)
(7.21377 3.4397 3.12636e-19)
(6.84092 3.3176 2.25838e-18)
(6.45624 3.16188 4.24324e-18)
(6.04825 2.97526 -5.01722e-18)
(5.66079 2.77063 0)
(5.35103 2.58288 -4.43255e-18)
(5.12005 2.43048 5.08496e-18)
(4.94458 2.30862 6.82322e-18)
(4.80934 2.21082 -3.90436e-18)
(4.70884 2.11581 -9.89846e-18)
(4.60594 2.10228 -2.99906e-18)
(4.56851 1.96486 -3.69814e-20)
(4.4086 2.00668 0)
(3.34113 1.37876 0)
(7.08756 2.96824 -1.26501e-17)
(8.32054 4.35004 0)
(8.34839 3.9654 7.38445e-18)
(7.98296 4.0957 -3.50874e-18)
(7.75953 3.9219 -8.35694e-18)
(7.46306 3.81559 2.36274e-18)
(7.11779 3.70026 2.40931e-19)
(6.74406 3.56396 -1.29049e-18)
(6.35921 3.3918 2.93753e-18)
(5.94479 3.19071 -1.99453e-18)
(5.55104 2.97057 2.91348e-18)
(5.23617 2.76932 1.37996e-17)
(5.00241 2.60589 5.11707e-19)
(4.82632 2.47453 -6.93965e-18)
(4.6918 2.36923 1.34065e-17)
(4.59379 2.26851 1.84022e-19)
(4.49101 2.2465 3.20931e-18)
(4.46141 2.10845 -1.57319e-17)
(4.29798 2.14399 1.62385e-17)
(3.26282 1.47802 -1.66269e-17)
(6.98989 3.22733 -1.04628e-20)
(8.23549 4.68624 0)
(8.2552 4.25573 0)
(7.88467 4.39092 2.96342e-18)
(7.67499 4.18395 3.30896e-18)
(7.37186 4.0717 -1.66439e-18)
(7.01601 3.94728 4.58001e-19)
(6.64712 3.79443 0)
(6.26111 3.60725 -4.61595e-18)
(5.84215 3.39419 7.36126e-18)
(5.44351 3.1618 8.73498e-18)
(5.12307 2.94851 -5.18397e-18)
(4.88546 2.77317 -6.47375e-18)
(4.70725 2.63072 1.52764e-17)
(4.57238 2.5169 -4.73405e-18)
(4.4751 2.41237 -5.75989e-18)
(4.37308 2.37744 -3.50938e-18)
(4.3437 2.23785 -1.70051e-17)
(4.18116 2.26691 2.23528e-18)
(3.17905 1.56403 1.77067e-17)
(6.90943 3.43583 -5.04463e-18)
(8.09835 4.95741 -6.81085e-18)
(8.16514 4.51222 9.20095e-19)
(7.77697 4.66797 1.38198e-19)
(7.58663 4.42723 8.57849e-19)
(7.27224 4.31397 -4.60574e-18)
(6.91373 4.17935 0)
(6.55321 4.01033 9.95197e-19)
(6.16499 3.8121 -7.83174e-19)
(5.74194 3.58898 1.19078e-17)
(5.33719 3.34459 -2.1793e-18)
(5.0096 3.11889 2.39367e-18)
(4.76643 2.93188 0)
(4.58514 2.77824 -8.3321e-18)
(4.44962 2.65272 1.03461e-17)
(4.35308 2.53893 0)
(4.25517 2.4955 -7.73604e-18)
(4.23998 2.35215 2.25595e-17)
(4.07258 2.37666 2.75496e-18)
(3.09113 1.6364 -2.18506e-17)
(6.80821 3.61271 -1.05324e-17)
(8.00694 5.20835 1.27418e-17)
(8.05873 4.75882 0)
(7.67234 4.9175 7.2216e-18)
(7.49303 4.65192 0)
(7.1684 4.54059 4.11632e-18)
(6.81386 4.39565 0)
(6.45967 4.21183 0)
(6.06768 4.00399 -1.58238e-18)
(5.64201 3.77099 -1.15178e-17)
(5.23296 3.51688 -1.62465e-17)
(4.89922 3.28173 2.97504e-18)
(4.65026 3.08373 1.10109e-17)
(4.46435 2.91727 9.31474e-18)
(4.32679 2.78132 -3.31138e-17)
(4.22983 2.66404 -1.37791e-17)
(4.12849 2.60563 7.97422e-18)
(4.10062 2.45418 0)
(3.93513 2.46458 2.39327e-17)
(2.99655 1.69344 -2.33161e-17)
(6.73248 3.82725 1.1519e-17)
(7.87491 5.49298 -1.38399e-17)
(7.96319 4.97795 0)
(7.55836 5.1542 -3.80296e-19)
(7.39633 4.86068 -2.87977e-18)
(7.06325 4.75148 0)
(6.71589 4.59594 -3.13993e-20)
(6.3662 4.39917 1.02999e-18)
(5.97253 4.1838 -2.44268e-18)
(5.54705 3.94342 1.28935e-18)
(5.13376 3.68269 0)
(4.79132 3.4401 1.18693e-17)
(4.53202 3.23358 3.48314e-20)
(4.33661 3.05741 5.0291e-18)
(4.19148 2.90606 6.11495e-18)
(4.09007 2.76928 0)
(4.00016 2.69363 -1.35473e-17)
(4.00704 2.54306 2.65525e-17)
(3.8305 2.5531 -2.91291e-17)
(2.8953 1.73686 5.032e-17)
(6.63378 3.96427 0)
(7.75523 5.65677 0)
(7.86318 5.18593 -6.96136e-18)
(7.44637 5.3693 0)
(7.30199 5.05083 0)
(6.95857 4.94721 5.59684e-18)
(6.62087 4.78088 -8.60393e-20)
(6.27461 4.57379 5.69859e-19)
(5.88051 4.3522 -3.94647e-19)
(5.45484 4.10492 0)
(5.03678 3.83888 -2.56182e-18)
(4.68657 3.59095 -9.8073e-18)
(4.41955 3.37579 -1.22101e-17)
(4.21866 3.18548 -5.03586e-18)
(4.07363 3.02069 6.66638e-18)
(3.9721 2.88159 -1.58225e-17)
(3.86701 2.79712 2.92773e-17)
(3.83492 2.6266 5.23157e-19)
(3.66863 2.59774 -2.78177e-17)
(2.78558 1.76583 -3.43099e-18)
(6.56541 4.13724 0)
(7.65343 5.92875 -9.9355e-18)
(7.7543 5.36912 7.9032e-18)
(7.33777 5.57071 0)
(7.20918 5.22801 0)
(6.85648 5.12926 -1.22808e-17)
(6.52939 4.95159 0)
(6.18498 4.73603 0)
(5.79133 4.50874 -5.20141e-18)
(5.36655 4.25598 2.20381e-18)
(4.94586 3.9877 -2.12082e-17)
(4.58821 3.73773 0)
(4.30783 3.51972 -1.30141e-17)
(4.08636 3.3265 4.45468e-19)
(3.91166 3.1515 -2.08797e-17)
(3.78991 2.98327 8.57556e-18)
(3.7027 2.85254 2.20375e-19)
(3.72703 2.68167 -3.14336e-17)
(3.54151 2.67456 1.50592e-17)
(2.66213 1.7731 3.64568e-18)
(6.4791 4.26862 0)
(7.52557 6.0793 -1.16306e-17)
(7.67072 5.55441 8.19332e-18)
(7.23373 5.75683 1.56103e-17)
(7.11995 5.39274 2.90183e-18)
(6.75795 5.29868 -1.56884e-18)
(6.44128 5.10923 1.0159e-18)
(6.09787 4.88689 1.31914e-18)
(5.70614 4.65475 5.57279e-18)
(5.28311 4.39776 1.51693e-17)
(4.85979 4.12826 1.76288e-17)
(4.49382 3.8784 3.25826e-18)
(4.2026 3.65829 1.89292e-17)
(3.97726 3.45589 1.20492e-17)
(3.81705 3.26462 1.5062e-17)
(3.69936 3.0997 -9.359e-18)
(3.58561 2.97507 -1.15931e-17)
(3.53869 2.77802 1.36768e-17)
(3.35686 2.66009 -8.38459e-18)
(2.51954 1.76517 1.19322e-17)
(6.40579 4.40142 1.75564e-17)
(7.42863 6.28341 1.83992e-17)
(7.57136 5.71298 4.27852e-18)
(7.13239 5.93244 2.51489e-19)
(7.03276 5.54543 -1.03677e-17)
(6.66282 5.45627 3.63133e-18)
(6.35634 5.25492 -1.15031e-18)
(6.01392 5.02705 -3.55013e-19)
(5.6251 4.79033 -6.39902e-18)
(5.20412 4.52953 -1.67173e-17)
(4.77914 4.26033 1.13701e-18)
(4.40708 4.01368 0)
(4.10378 3.79635 0)
(3.85039 3.59727 -6.17032e-18)
(3.62881 3.40751 -2.40308e-17)
(3.46296 3.20042 2.00818e-17)
(3.34726 3.01518 1.23992e-17)
(3.36043 2.79338 0)
(3.19391 2.71915 2.70594e-17)
(2.36971 1.73352 -1.3405e-17)
(6.33389 4.52272 -8.86903e-18)
(7.33368 6.44957 7.41812e-18)
(7.48008 5.86478 -9.78558e-18)
(7.03141 6.0913 -9.80335e-18)
(6.94648 5.68753 -4.05222e-18)
(6.57124 5.60196 1.072e-18)
(6.27446 5.38929 0)
(5.93341 5.15712 -1.60702e-18)
(5.54819 4.91619 6.51483e-19)
(5.12939 4.65245 0)
(4.70321 4.38483 0)
(4.32507 4.14322 2.17583e-18)
(4.00933 3.93074 3.16113e-18)
(3.74873 3.73303 -6.5338e-18)
(3.55026 3.53841 1.73409e-17)
(3.38834 3.36971 -2.13075e-17)
(3.23824 3.20542 -2.64716e-17)
(3.15678 2.95469 2.44402e-17)
(2.91747 2.69031 -1.00009e-17)
(2.18409 1.68614 5.39294e-18)
(6.259 4.63407 1.04261e-17)
(7.19139 6.57396 0)
(7.38116 5.99512 0)
(6.93205 6.23166 -3.14804e-18)
(6.86509 5.81772 2.54194e-18)
(6.48312 5.7366 -2.98938e-19)
(6.19597 5.51336 -3.52847e-18)
(5.85656 5.27758 7.16319e-19)
(5.4749 5.03259 1.10728e-17)
(5.05847 4.76627 -1.31822e-18)
(4.63349 4.50089 2.8955e-18)
(4.25279 4.26618 -1.83657e-17)
(3.92809 4.06195 -1.90774e-17)
(3.64436 3.87525 -3.41523e-18)
(3.38298 3.69355 0)
(3.14084 3.48346 -3.64759e-19)
(2.94776 3.26505 1.35012e-17)
(2.86867 2.98069 -2.66987e-17)
(2.6855 2.74182 2.03725e-17)
(1.95092 1.61106 1.78446e-17)
(6.19685 4.74452 -2.24242e-17)
(7.14725 6.76105 -8.50552e-18)
(7.31456 6.13473 1.61248e-19)
(6.85134 6.37464 4.23242e-18)
(6.78658 5.93982 0)
(6.39747 5.86278 9.8124e-18)
(6.11951 5.62987 4.09326e-18)
(5.78081 5.39144 -5.77114e-19)
(5.4028 5.1431 -5.57306e-18)
(4.99019 4.87552 -1.27439e-18)
(4.56713 4.61373 1.17924e-18)
(4.18262 4.38803 1.60567e-17)
(3.84668 4.19548 1.85277e-17)
(3.54854 4.01519 3.24943e-18)
(3.29681 3.8397 1.72091e-17)
(3.09647 3.68046 0)
(2.87982 3.53442 0)
(2.65172 3.29118 1.73444e-17)
(2.10151 2.8256 1.90763e-19)
(0.980425 1.92037 -1.54618e-17)
(6.13711 4.84264 1.20639e-17)
(7.04807 6.88463 2.55213e-17)
(7.23927 6.27841 -3.70239e-17)
(6.76552 6.51454 2.05774e-17)
(6.70255 6.05779 -2.15759e-18)
(6.31434 5.98307 1.26631e-17)
(6.04391 5.7412 0)
(5.70593 5.50108 -7.93e-20)
(5.33266 5.25071 0)
(4.92348 4.98293 1.63021e-17)
(4.50112 4.7251 -1.60204e-18)
(4.11501 4.51048 1.79133e-18)
(3.7721 4.33421 2.07583e-17)
(3.45663 4.17614 -7.13775e-18)
(3.15744 4.03132 -9.10177e-18)
(2.83861 3.87735 0)
(2.53486 3.70536 0)
(2.24983 3.42512 0)
(1.67427 2.83371 -9.68135e-18)
(1.14848 2.31883 -5.45596e-18)
(6.05746 4.91997 0)
(6.93653 6.97823 0)
(7.11422 6.34116 1.31906e-17)
(6.65193 6.61394 -1.69763e-17)
(6.62461 6.16752 1.0989e-17)
(6.2341 6.09576 -1.14621e-17)
(5.96945 5.84673 -3.51215e-19)
(5.63352 5.6064 2.71972e-19)
(5.26453 5.35468 9.55503e-19)
(4.85789 5.08688 -1.8666e-17)
(4.43971 4.83457 2.7473e-18)
(4.05703 4.63362 1.57782e-17)
(3.71256 4.47927 -2.06062e-17)
(3.38701 4.34023 -2.32336e-17)
(3.07583 4.20212 8.08587e-18)
(2.81809 4.08745 0)
(2.5598 3.96848 1.27483e-17)
(2.22247 3.68657 1.56529e-17)
(1.61259 3.08041 -1.82941e-17)
(1.07928 2.98248 2.36467e-17)
(5.97904 5.0125 0)
(6.8191 7.08391 2.05006e-17)
(7.04019 6.45658 -3.29714e-18)
(6.58096 6.71203 2.13059e-17)
(6.56059 6.26927 -1.15516e-17)
(6.15385 6.20173 0)
(5.89784 5.94748 0)
(5.56371 5.7075 0)
(5.19783 5.45449 3.79436e-18)
(4.7957 5.18815 7.08684e-19)
(4.38275 4.94213 0)
(4.00031 4.75309 -1.55953e-17)
(3.64855 4.61768 0)
(3.31184 4.51126 1.65529e-17)
(2.99601 4.42215 -1.13472e-17)
(2.66564 4.33213 -9.25869e-18)
(2.33932 4.17267 -2.43186e-17)
(1.95795 3.79023 -1.40242e-17)
(1.32677 3.42721 -2.41638e-17)
(1.08894 3.4716 2.05448e-17)
(5.96339 5.11974 -7.47069e-18)
(6.81272 7.2605 1.67285e-19)
(7.02937 6.6116 -3.17827e-18)
(6.53886 6.86005 -1.64381e-17)
(6.48449 6.36941 0)
(6.07773 6.30432 0)
(5.82987 6.04416 0)
(5.49531 5.80458 1.20033e-19)
(5.13347 5.55135 -4.9099e-18)
(4.73662 5.28743 0)
(4.32783 5.04651 0)
(3.95183 4.87114 0)
(3.61225 4.76218 0)
(3.29045 4.69181 1.21427e-17)
(2.96979 4.62404 3.10784e-17)
(2.69059 4.53867 9.89355e-18)
(2.41832 4.39682 2.35178e-17)
(1.95248 4.02144 -1.98636e-17)
(1.4246 3.81923 7.86843e-18)
(1.21282 3.90149 0)
(5.91351 5.17541 7.07423e-18)
(6.74003 7.33552 -3.94977e-17)
(6.91838 6.69191 -1.00947e-17)
(6.42485 6.95492 -2.58899e-18)
(6.40242 6.46977 2.56092e-18)
(6.00709 6.40556 -1.65022e-17)
(5.76135 6.13846 1.02568e-18)
(5.42805 5.89956 2.11338e-18)
(5.07128 5.64668 0)
(4.6787 5.38434 -1.16977e-18)
(4.27638 5.14872 1.06496e-18)
(3.91052 4.98617 0)
(3.57727 4.89643 0)
(3.25453 4.85217 -1.51959e-17)
(2.95384 4.83266 2.64072e-18)
(2.64286 4.79797 -9.24063e-18)
(2.23761 4.63624 2.0757e-17)
(1.67474 4.27399 1.79109e-17)
(1.19131 4.17105 -3.25792e-17)
(1.04901 4.2142 1.6056e-17)
(5.7852 5.2622 1.02332e-17)
(6.56825 7.37789 3.62357e-17)
(6.79258 6.73418 1.31028e-17)
(6.324 7.01382 0)
(6.34201 6.56432 0)
(5.92882 6.50345 1.24088e-17)
(5.68967 6.23319 -5.94932e-18)
(5.36003 5.99559 -2.08004e-18)
(5.00768 5.74217 4.14742e-20)
(4.62046 5.48109 1.35025e-17)
(4.22762 5.25067 -1.90628e-17)
(3.8736 5.09931 0)
(3.55656 5.03017 0)
(3.2586 5.01866 -1.07711e-17)
(2.96116 5.03373 -1.41155e-17)
(2.66423 5.00669 0)
(2.3218 4.78656 -3.00938e-17)
(1.80771 4.51524 -5.38705e-18)
(1.42504 4.62708 3.12069e-17)
(1.26748 4.7247 -1.4539e-17)
(5.74355 5.34743 -1.96643e-17)
(6.51042 7.5312 -1.72376e-17)
(6.77029 6.88753 0)
(6.27844 7.14959 0)
(6.26712 6.66399 0)
(5.84299 6.60512 0)
(5.61644 6.33029 6.22546e-18)
(5.28837 6.09262 -3.2539e-18)
(4.9407 5.8374 0)
(4.5613 5.57755 -1.219e-17)
(4.1793 5.35053 3.44764e-17)
(3.84026 5.20649 1.46277e-18)
(3.54403 5.15487 2.1817e-18)
(3.2624 5.16712 1.82452e-17)
(2.98871 5.19906 -1.2155e-17)
(2.69587 5.18537 0)
(2.27847 5.06855 9.47868e-18)
(1.67561 4.92029 7.65361e-19)
(1.15561 5.08595 -5.15147e-18)
(0.803364 5.20802 1.0085e-17)
(5.69673 5.44281 1.17451e-17)
(6.47783 7.68 -1.68064e-17)
(6.69073 7.01878 0)
(6.17829 7.28213 -3.72026e-18)
(6.16782 6.7726 1.38211e-17)
(5.7579 6.71283 0)
(5.53737 6.42898 0)
(5.21117 6.18997 5.94959e-18)
(4.87002 5.93234 -6.1705e-19)
(4.49998 5.67285 1.20634e-17)
(4.1303 5.44755 -1.64352e-17)
(3.80874 5.30869 1.05573e-17)
(3.53461 5.26707 0)
(3.27864 5.29877 -9.97783e-18)
(3.02681 5.365 6.23877e-18)
(2.76261 5.37905 6.80997e-18)
(2.40693 5.21742 0)
(1.89934 5.17274 4.66492e-18)
(1.36459 5.79994 7.84743e-18)
(1.29146 6.09881 2.3599e-18)
(5.5749 5.50732 -2.17125e-17)
(6.3266 7.75477 2.44026e-17)
(6.5323 7.08153 1.70891e-17)
(6.05042 7.36052 -4.34099e-18)
(6.07657 6.87701 -2.08462e-17)
(5.6638 6.81921 0)
(5.45052 6.52815 5.52606e-18)
(5.12893 6.28702 -2.60912e-18)
(4.79612 6.02671 -4.94774e-20)
(4.43572 5.76543 -1.04859e-17)
(4.08009 5.54079 -8.29911e-19)
(3.77914 5.40411 -1.18445e-17)
(3.53546 5.37318 1.44169e-17)
(3.31728 5.42468 4.53132e-18)
(3.11215 5.50657 -1.05265e-17)
(2.89006 5.51324 1.1889e-17)
(2.5788 5.40884 0)
(2.08183 5.78995 0)
(1.80001 6.67035 9.32607e-19)
(0.432095 6.76143 -4.46719e-18)
(5.47274 5.60092 1.05304e-17)
(6.19978 7.87246 2.24999e-17)
(6.43641 7.20617 -1.70427e-17)
(5.95919 7.4762 1.50968e-17)
(5.98161 6.9826 2.02409e-17)
(5.56027 6.92407 0)
(5.35913 6.62701 -5.84342e-18)
(5.04293 6.3839 -3.74821e-18)
(4.71861 6.11917 0)
(4.36816 5.85385 0)
(4.03137 5.63052 0)
(3.75528 5.49455 0)
(3.54064 5.46069 -1.64204e-17)
(3.35984 5.51658 -6.19166e-18)
(3.2025 5.61865 0)
(3.03496 5.64459 -5.88463e-18)
(2.81095 5.6208 0)
(2.70578 5.909 -2.45791e-18)
(2.74282 6.10031 -6.42986e-19)
(1.5071 6.18322 2.42498e-18)
(5.39127 5.71891 -2.01557e-17)
(6.11188 8.02801 -1.42974e-17)
(6.3341 7.35379 -1.07129e-17)
(5.84585 7.61495 -1.4075e-17)
(5.86669 7.09889 -9.49509e-18)
(5.45112 7.03489 0)
(5.26156 6.7282 -1.04275e-18)
(4.9506 6.48137 4.96886e-19)
(4.63481 6.21028 -1.35103e-18)
(4.29894 5.94152 0)
(3.98336 5.71827 9.74233e-19)
(3.73053 5.57955 -1.10761e-18)