/*--------------------------------*- C++ -*----------------------------------*\
| =========                 |                                                 |
| \\      /  F ield         | OpenFOAM: The Open Source CFD Toolbox           |
|  \\    /   O peration     | Version:  2412                                  |
|   \\  /    A nd           | Website:  www.openfoam.com                      |
|    \\/     M anipulation  |                                                 |
\*---------------------------------------------------------------------------*/
FoamFile
{
    version     2.0;
    format      ascii;
    arch        "LSB;label=32;scalar=64";
    class       surfaceScalarField;
    location    "0.78";
    object      phi;
}
// * * * * * * * * * * * * * * * * * * * * * * * * * * * * * * * * * * * * * //

dimensions      [0 3 -1 0 0 0 0];

oriented        oriented;

internalField   nonuniform List<scalar> 
799
(
2.27807e-05
4.55615e-05
6.83423e-05
9.11229e-05
0.000113903
0.000136684
0.000159464
0.000182244
0.000205023
0.000227803
0.000250582
0.00027336
0.000296138
0.000318916
0.000341693
0.00036447
0.000387246
0.000410021
0.000432796
0.00045557
0.000478344
0.000501117
0.000523889
0.00054666
0.00056943
0.0005922
0.000614968
0.000637736
0.000660502
0.000683268
0.000706032
0.000728796
0.000751558
0.000774319
0.000797079
0.000819838
0.000842595
0.000865352
0.000888106
0.00091086
0.000933612
0.000956362
0.000979112
0.00100186
0.00102461
0.00104735
0.00107009
0.00109283
0.00111557
0.00113831
0.00116105
0.00118378
0.00120651
0.00122924
0.00125197
0.0012747
0.00129742
0.00132015
0.00134287
0.00136558
0.0013883
0.00141101
0.00143373
0.00145644
0.00147914
0.00150185
0.00152455
0.00154725
0.00156995
0.00159264
0.00161534
0.00163803
0.00166071
0.0016834
0.00170608
0.00172876
0.00175144
0.00177411
0.00179678
0.00181945
0.00184212
0.00186478
0.00188744
0.0019101
0.00193275
0.0019554
0.00197805
0.00200069
0.00202333
0.00204597
0.0020686
0.00209123
0.00211386
0.00213649
0.00215911
0.00218172
0.00220434
0.00222695
0.00224956
0.00227216
0.00229476
0.00231735
0.00233995
0.00236253
0.00238512
0.0024077
0.00243027
0.00245285
0.00247541
0.00249798
0.00252054
0.00254309
0.00256565
0.00258819
0.00261074
0.00263328
0.00265581
0.00267834
0.00270087
0.00272339
0.0027459
0.00276842
0.00279092
0.00281343
0.00283593
0.00285842
0.00288091
0.00290339
0.00292587
0.00294834
0.00297081
0.00299328
0.00301574
0.00303819
0.00306064
0.00308308
0.00310552
0.00312795
0.00315038
0.0031728
0.00319522
0.00321763
0.00324003
0.00326243
0.00328483
0.00330722
0.0033296
0.00335198
0.00337435
0.00339671
0.00341907
0.00344143
0.00346377
0.00348612
0.00350845
0.00353078
0.0035531
0.00357542
0.00359773
0.00362003
0.00364233
0.00366462
0.00368691
0.00370918
0.00373146
0.00375372
0.00377598
0.00379823
0.00382047
0.00384271
0.00386494
0.00388716
0.00390938
0.00393159
0.00395379
0.00397598
0.00399817
0.00402035
0.00404252
0.00406469
0.00408685
0.004109
0.00413114
0.00415327
0.0041754
0.00419752
0.00421963
0.00424173
0.00426383
0.00428591
0.00430799
0.00433006
0.00435213
0.00437418
0.00439623
0.00441826
0.00444029
0.00446231
0.00448432
0.00450633
0.00452832
0.00455031
0.00457228
0.00459425
0.00461621
0.00463816
0.0046601
0.00468203
0.00470395
0.00472586
0.00474777
0.00476966
0.00479154
0.00481342
0.00483528
0.00485714
0.00487898
0.00490082
0.00492264
0.00494446
0.00496626
0.00498806
0.00500984
0.00503161
0.00505338
0.00507513
0.00509687
0.0051186
0.00514033
0.00516204
0.00518374
0.00520542
0.0052271
0.00524877
0.00527042
0.00529206
0.0053137
0.00533532
0.00535693
0.00537852
0.00540011
0.00542168
0.00544324
0.00546479
0.00548633
0.00550786
0.00552937
0.00555087
0.00557236
0.00559384
0.0056153
0.00563675
0.00565819
0.00567961
0.00570103
0.00572242
0.00574381
0.00576518
0.00578654
0.00580789
0.00582922
0.00585054
0.00587184
0.00589313
0.00591441
0.00593567
0.00595692
0.00597815
0.00599937
0.00602058
0.00604177
0.00606294
0.0060841
0.00610525
0.00612638
0.0061475
0.0061686
0.00618968
0.00621075
0.0062318
0.00625284
0.00627386
0.00629487
0.00631586
0.00633683
0.00635779
0.00637873
0.00639965
0.00642056
0.00644145
0.00646232
0.00648318
0.00650402
0.00652484
0.00654564
0.00656643
0.00658719
0.00660794
0.00662867
0.00664939
0.00667008
0.00669076
0.00671142
0.00673206
0.00675267
0.00677328
0.00679386
0.00681442
0.00683496
0.00685548
0.00687598
0.00689647
0.00691693
0.00693737
0.00695779
0.00697819
0.00699857
0.00701893
0.00703926
0.00705958
0.00707987
0.00710014
0.00712039
0.00714062
0.00716082
0.007181
0.00720116
0.0072213
0.00724141
0.0072615
0.00728157
0.00730161
0.00732163
0.00734162
0.00736159
0.00738153
0.00740145
0.00742135
0.00744122
0.00746106
0.00748088
0.00750067
0.00752043
0.00754017
0.00755989
0.00757957
0.00759923
0.00761886
0.00763846
0.00765804
0.00767758
0.0076971
0.00771659
0.00773605
0.00775548
0.00777488
0.00779426
0.0078136
0.00783291
0.00785219
0.00787144
0.00789065
0.00790984
0.00792899
0.00794812
0.0079672
0.00798626
0.00800528
0.00802427
0.00804323
0.00806215
0.00808103
0.00809988
0.0081187
0.00813748
0.00815622
0.00817493
0.0081936
0.00821223
0.00823083
0.00824939
0.00826791
0.00828639
0.00830483
0.00832323
0.00834159
0.00835991
0.00837818
0.00839642
0.00841462
0.00843277
0.00845088
0.00846894
0.00848696
0.00850494
0.00852282
0.00854229
0.00850687
0.00654154
6.35338e-06
-0.00653455
-0.00850625
-0.00854229
-0.0085228
-0.00850492
-0.00848694
-0.00846892
-0.00845085
-0.00843274
-0.00841459
-0.0083964
-0.00837816
-0.00835988
-0.00834156
-0.0083232
-0.0083048
-0.00828636
-0.00826788
-0.00824936
-0.00823081
-0.00821221
-0.00819358
-0.00817491
-0.0081562
-0.00813746
-0.00811868
-0.00809986
-0.00808101
-0.00806212
-0.0080432
-0.00802425
-0.00800526
-0.00798624
-0.00796718
-0.00794809
-0.00792897
-0.00790982
-0.00789063
-0.00787141
-0.00785216
-0.00783288
-0.00781357
-0.00779423
-0.00777486
-0.00775546
-0.00773603
-0.00771657
-0.00769708
-0.00767756
-0.00765801
-0.00763844
-0.00761884
-0.0075992
-0.00757955
-0.00755986
-0.00754015
-0.00752041
-0.00750064
-0.00748085
-0.00746104
-0.00744119
-0.00742132
-0.00740143
-0.00738151
-0.00736156
-0.0073416
-0.0073216
-0.00730158
-0.00728154
-0.00726148
-0.00724139
-0.00722127
-0.00720114
-0.00718098
-0.0071608
-0.00714059
-0.00712037
-0.00710012
-0.00707985
-0.00705955
-0.00703924
-0.0070189
-0.00699855
-0.00697817
-0.00695777
-0.00693735
-0.00691691
-0.00689644
-0.00687596
-0.00685546
-0.00683494
-0.0068144
-0.00679383
-0.00677325
-0.00675265
-0.00673203
-0.0067114
-0.00669074
-0.00667006
-0.00664937
-0.00662865
-0.00660792
-0.00658717
-0.0065664
-0.00654562
-0.00652482
-0.00650399
-0.00648316
-0.0064623
-0.00644143
-0.00642054
-0.00639963
-0.00637871
-0.00635777
-0.00633681
-0.00631584
-0.00629485
-0.00627384
-0.00625282
-0.00623178
-0.00621073
-0.00618966
-0.00616858
-0.00614748
-0.00612636
-0.00610523
-0.00608409
-0.00606292
-0.00604175
-0.00602056
-0.00599935
-0.00597814
-0.0059569
-0.00593565
-0.00591439
-0.00589311
-0.00587182
-0.00585052
-0.0058292
-0.00580787
-0.00578652
-0.00576517
-0.00574379
-0.00572241
-0.00570101
-0.0056796
-0.00565817
-0.00563673
-0.00561528
-0.00559382
-0.00557234
-0.00555086
-0.00552936
-0.00550784
-0.00548632
-0.00546478
-0.00544323
-0.00542167
-0.00540009
-0.00537851
-0.00535691
-0.0053353
-0.00531368
-0.00529205
-0.00527041
-0.00524875
-0.00522709
-0.00520541
-0.00518372
-0.00516202
-0.00514031
-0.00511859
-0.00509686
-0.00507512
-0.00505336
-0.0050316
-0.00500983
-0.00498804
-0.00496625
-0.00494444
-0.00492263
-0.0049008
-0.00487897
-0.00485712
-0.00483527
-0.0048134
-0.00479153
-0.00476965
-0.00474775
-0.00472585
-0.00470394
-0.00468202
-0.00466009
-0.00463815
-0.0046162
-0.00459424
-0.00457227
-0.00455029
-0.00452831
-0.00450632
-0.00448431
-0.0044623
-0.00444028
-0.00441825
-0.00439621
-0.00437417
-0.00435212
-0.00433005
-0.00430798
-0.0042859
-0.00426382
-0.00424172
-0.00421962
-0.00419751
-0.00417539
-0.00415326
-0.00413113
-0.00410899
-0.00408684
-0.00406468
-0.00404251
-0.00402034
-0.00399816
-0.00397598
-0.00395378
-0.00393158
-0.00390937
-0.00388715
-0.00386493
-0.0038427
-0.00382046
-0.00379822
-0.00377597
-0.00375371
-0.00373145
-0.00370918
-0.0036869
-0.00366461
-0.00364232
-0.00362003
-0.00359772
-0.00357541
-0.0035531
-0.00353077
-0.00350844
-0.00348611
-0.00346377
-0.00344142
-0.00341907
-0.00339671
-0.00337434
-0.00335197
-0.00332959
-0.00330721
-0.00328482
-0.00326243
-0.00324003
-0.00321762
-0.00319521
-0.0031728
-0.00315037
-0.00312795
-0.00310551
-0.00308308
-0.00306063
-0.00303818
-0.00301573
-0.00299327
-0.00297081
-0.00294834
-0.00292586
-0.00290339
-0.0028809
-0.00285841
-0.00283592
-0.00281342
-0.00279092
-0.00276841
-0.0027459
-0.00272338
-0.00270086
-0.00267834
-0.00265581
-0.00263327
-0.00261073
-0.00258819
-0.00256564
-0.00254309
-0.00252053
-0.00249797
-0.00247541
-0.00245284
-0.00243027
-0.00240769
-0.00238511
-0.00236253
-0.00233994
-0.00231735
-0.00229475
-0.00227216
-0.00224955
-0.00222695
-0.00220434
-0.00218172
-0.0021591
-0.00213648
-0.00211386
-0.00209123
-0.0020686
-0.00204597
-0.00202333
-0.00200069
-0.00197804
-0.0019554
-0.00193275
-0.00191009
-0.00188744
-0.00186478
-0.00184211
-0.00181945
-0.00179678
-0.00177411
-0.00175144
-0.00172876
-0.00170608
-0.0016834
-0.00166071
-0.00163802
-0.00161533
-0.00159264
-0.00156995
-0.00154725
-0.00152455
-0.00150185
-0.00147914
-0.00145643
-0.00143372
-0.00141101
-0.0013883
-0.00136558
-0.00134286
-0.00132014
-0.00129742
-0.0012747
-0.00125197
-0.00122924
-0.00120651
-0.00118378
-0.00116105
-0.00113831
-0.00111557
-0.00109283
-0.00107009
-0.00104735
-0.0010246
-0.00100186
-0.000979111
-0.000956362
-0.000933611
-0.000910859
-0.000888106
-0.000865351
-0.000842595
-0.000819838
-0.000797079
-0.000774319
-0.000751558
-0.000728795
-0.000706032
-0.000683268
-0.000660502
-0.000637735
-0.000614968
-0.000592199
-0.00056943
-0.00054666
-0.000523888
-0.000501116
-0.000478344
-0.00045557
-0.000432796
-0.000410021
-0.000387246
-0.00036447
-0.000341693
-0.000318916
-0.000296138
-0.00027336
-0.000250582
-0.000227803
-0.000205023
-0.000182244
-0.000159464
-0.000136684
-0.000113904
-9.1123e-05
-6.83424e-05
-4.55616e-05
-2.27808e-05
)
;

boundaryField
{
    left
    {
        type            calculated;
        value           uniform 0;
    }
    right
    {
        type            calculated;
        value           uniform 0;
    }
    frontBackUpDown
    {
        type            empty;
    }
}


// ************************************************************************* //
