/*--------------------------------*- C++ -*----------------------------------*\
| =========                 |                                                 |
| \\      /  F ield         | OpenFOAM: The Open Source CFD Toolbox           |
|  \\    /   O peration     | Version:  2412                                  |
|   \\  /    A nd           | Website:  www.openfoam.com                      |
|    \\/     M anipulation  |                                                 |
\*---------------------------------------------------------------------------*/
FoamFile
{
    version     2.0;
    format      ascii;
    arch        "LSB;label=32;scalar=64";
    class       volVectorField;
    location    "0.78";
    object      U;
}
// * * * * * * * * * * * * * * * * * * * * * * * * * * * * * * * * * * * * * //

dimensions      [0 1 -1 0 0 0 0];

internalField   nonuniform List<vector> 
800
(
(0.00113903 0 0)
(0.00341711 0 0)
(0.00569519 0 0)
(0.00797326 0 0)
(0.0102513 0 0)
(0.0125294 0 0)
(0.0148074 0 0)
(0.0170854 0 0)
(0.0193634 0 0)
(0.0216413 0 0)
(0.0239192 0 0)
(0.0261971 0 0)
(0.0284749 0 0)
(0.0307527 0 0)
(0.0330305 0 0)
(0.0353081 0 0)
(0.0375858 0 0)
(0.0398634 0 0)
(0.0421409 0 0)
(0.0444183 0 0)
(0.0466957 0 0)
(0.048973 0 0)
(0.0512503 0 0)
(0.0535274 0 0)
(0.0558045 0 0)
(0.0580815 0 0)
(0.0603584 0 0)
(0.0626352 0 0)
(0.0649119 0 0)
(0.0671885 0 0)
(0.069465 0 0)
(0.0717414 0 0)
(0.0740177 0 0)
(0.0762939 0 0)
(0.07857 0 0)
(0.0808459 0 0)
(0.0831217 0 0)
(0.0853974 0 0)
(0.0876729 0 0)
(0.0899483 0 0)
(0.0922236 0 0)
(0.0944988 0 0)
(0.0967737 0 0)
(0.0990486 0 0)
(0.101323 0 0)
(0.103598 0 0)
(0.105872 0 0)
(0.108146 0 0)
(0.11042 0 0)
(0.112694 0 0)
(0.114968 0 0)
(0.117241 0 0)
(0.119515 0 0)
(0.121788 0 0)
(0.124061 0 0)
(0.126334 0 0)
(0.128606 0 0)
(0.130878 0 0)
(0.133151 0 0)
(0.135423 0 0)
(0.137694 0 0)
(0.139966 0 0)
(0.142237 0 0)
(0.144508 0 0)
(0.146779 0 0)
(0.14905 0 0)
(0.15132 0 0)
(0.15359 0 0)
(0.15586 0 0)
(0.15813 0 0)
(0.160399 0 0)
(0.162668 0 0)
(0.164937 0 0)
(0.167206 0 0)
(0.169474 0 0)
(0.171742 0 0)
(0.17401 0 0)
(0.176278 0 0)
(0.178545 0 0)
(0.180812 0 0)
(0.183078 0 0)
(0.185345 0 0)
(0.187611 0 0)
(0.189877 0 0)
(0.192142 0 0)
(0.194407 0 0)
(0.196672 0 0)
(0.198937 0 0)
(0.201201 0 0)
(0.203465 0 0)
(0.205729 0 0)
(0.207992 0 0)
(0.210255 0 0)
(0.212518 0 0)
(0.21478 0 0)
(0.217042 0 0)
(0.219303 0 0)
(0.221564 0 0)
(0.223825 0 0)
(0.226086 0 0)
(0.228346 0 0)
(0.230606 0 0)
(0.232865 0 0)
(0.235124 0 0)
(0.237383 0 0)
(0.239641 0 0)
(0.241899 0 0)
(0.244156 0 0)
(0.246413 0 0)
(0.24867 0 0)
(0.250926 0 0)
(0.253182 0 0)
(0.255437 0 0)
(0.257692 0 0)
(0.259947 0 0)
(0.262201 0 0)
(0.264454 0 0)
(0.266708 0 0)
(0.268961 0 0)
(0.271213 0 0)
(0.273465 0 0)
(0.275716 0 0)
(0.277967 0 0)
(0.280218 0 0)
(0.282468 0 0)
(0.284717 0 0)
(0.286966 0 0)
(0.289215 0 0)
(0.291463 0 0)
(0.293711 0 0)
(0.295958 0 0)
(0.298205 0 0)
(0.300451 0 0)
(0.302696 0 0)
(0.304941 0 0)
(0.307186 0 0)
(0.30943 0 0)
(0.311674 0 0)
(0.313917 0 0)
(0.316159 0 0)
(0.318401 0 0)
(0.320643 0 0)
(0.322883 0 0)
(0.325124 0 0)
(0.327363 0 0)
(0.329602 0 0)
(0.331841 0 0)
(0.334079 0 0)
(0.336316 0 0)
(0.338553 0 0)
(0.34079 0 0)
(0.343025 0 0)
(0.34526 0 0)
(0.347495 0 0)
(0.349729 0 0)
(0.351962 0 0)
(0.354194 0 0)
(0.356426 0 0)
(0.358658 0 0)
(0.360888 0 0)
(0.363118 0 0)
(0.365348 0 0)
(0.367577 0 0)
(0.369805 0 0)
(0.372032 0 0)
(0.374259 0 0)
(0.376485 0 0)
(0.378711 0 0)
(0.380935 0 0)
(0.383159 0 0)
(0.385383 0 0)
(0.387605 0 0)
(0.389827 0 0)
(0.392049 0 0)
(0.394269 0 0)
(0.396489 0 0)
(0.398708 0 0)
(0.400926 0 0)
(0.403144 0 0)
(0.405361 0 0)
(0.407577 0 0)
(0.409792 0 0)
(0.412007 0 0)
(0.414221 0 0)
(0.416434 0 0)
(0.418646 0 0)
(0.420858 0 0)
(0.423068 0 0)
(0.425278 0 0)
(0.427487 0 0)
(0.429696 0 0)
(0.431903 0 0)
(0.43411 0 0)
(0.436316 0 0)
(0.438521 0 0)
(0.440725 0 0)
(0.442928 0 0)
(0.44513 0 0)
(0.447332 0 0)
(0.449533 0 0)
(0.451733 0 0)
(0.453932 0 0)
(0.45613 0 0)
(0.458327 0 0)
(0.460523 0 0)
(0.462719 0 0)
(0.464913 0 0)
(0.467107 0 0)
(0.469299 0 0)
(0.471491 0 0)
(0.473682 0 0)
(0.475872 0 0)
(0.47806 0 0)
(0.480248 0 0)
(0.482435 0 0)
(0.484621 0 0)
(0.486806 0 0)
(0.48899 0 0)
(0.491173 0 0)
(0.493355 0 0)
(0.495536 0 0)
(0.497716 0 0)
(0.499895 0 0)
(0.502073 0 0)
(0.50425 0 0)
(0.506426 0 0)
(0.5086 0 0)
(0.510774 0 0)
(0.512947 0 0)
(0.515118 0 0)
(0.517289 0 0)
(0.519458 0 0)
(0.521626 0 0)
(0.523794 0 0)
(0.52596 0 0)
(0.528125 0 0)
(0.530288 0 0)
(0.532451 0 0)
(0.534612 0 0)
(0.536773 0 0)
(0.538932 0 0)
(0.54109 0 0)
(0.543247 0 0)
(0.545402 0 0)
(0.547557 0 0)
(0.54971 0 0)
(0.551862 0 0)
(0.554013 0 0)
(0.556162 0 0)
(0.55831 0 0)
(0.560457 0 0)
(0.562603 0 0)
(0.564747 0 0)
(0.56689 0 0)
(0.569032 0 0)
(0.571173 0 0)
(0.573312 0 0)
(0.57545 0 0)
(0.577587 0 0)
(0.579722 0 0)
(0.581856 0 0)
(0.583988 0 0)
(0.586119 0 0)
(0.588249 0 0)
(0.590377 0 0)
(0.592504 0 0)
(0.59463 0 0)
(0.596754 0 0)
(0.598877 0 0)
(0.600998 0 0)
(0.603118 0 0)
(0.605236 0 0)
(0.607353 0 0)
(0.609468 0 0)
(0.611582 0 0)
(0.613694 0 0)
(0.615805 0 0)
(0.617914 0 0)
(0.620022 0 0)
(0.622128 0 0)
(0.624233 0 0)
(0.626336 0 0)
(0.628437 0 0)
(0.630537 0 0)
(0.632635 0 0)
(0.634731 0 0)
(0.636826 0 0)
(0.638919 0 0)
(0.641011 0 0)
(0.643101 0 0)
(0.645189 0 0)
(0.647275 0 0)
(0.64936 0 0)
(0.651443 0 0)
(0.653524 0 0)
(0.655604 0 0)
(0.657681 0 0)
(0.659757 0 0)
(0.661831 0 0)
(0.663904 0 0)
(0.665974 0 0)
(0.668043 0 0)
(0.670109 0 0)
(0.672174 0 0)
(0.674237 0 0)
(0.676298 0 0)
(0.678357 0 0)
(0.680414 0 0)
(0.682469 0 0)
(0.684523 0 0)
(0.686574 0 0)
(0.688623 0 0)
(0.69067 0 0)
(0.692715 0 0)
(0.694758 0 0)
(0.696799 0 0)
(0.698838 0 0)
(0.700875 0 0)
(0.70291 0 0)
(0.704942 0 0)
(0.706973 0 0)
(0.709001 0 0)
(0.711027 0 0)
(0.713051 0 0)
(0.715072 0 0)
(0.717092 0 0)
(0.719109 0 0)
(0.721124 0 0)
(0.723136 0 0)
(0.725146 0 0)
(0.727154 0 0)
(0.729159 0 0)
(0.731162 0 0)
(0.733163 0 0)
(0.735161 0 0)
(0.737157 0 0)
(0.73915 0 0)
(0.741141 0 0)
(0.743129 0 0)
(0.745114 0 0)
(0.747097 0 0)
(0.749078 0 0)
(0.751056 0 0)
(0.753031 0 0)
(0.755004 0 0)
(0.756973 0 0)
(0.758941 0 0)
(0.760905 0 0)
(0.762867 0 0)
(0.764826 0 0)
(0.766782 0 0)
(0.768735 0 0)
(0.770685 0 0)
(0.772633 0 0)
(0.774577 0 0)
(0.776519 0 0)
(0.778458 0 0)
(0.780393 0 0)
(0.782326 0 0)
(0.784256 0 0)
(0.786182 0 0)
(0.788105 0 0)
(0.790025 0 0)
(0.791942 0 0)
(0.793856 0 0)
(0.795767 0 0)
(0.797674 0 0)
(0.799578 0 0)
(0.801479 0 0)
(0.803376 0 0)
(0.80527 0 0)
(0.80716 0 0)
(0.809047 0 0)
(0.81093 0 0)
(0.81281 0 0)
(0.814686 0 0)
(0.816559 0 0)
(0.818428 0 0)
(0.820293 0 0)
(0.822154 0 0)
(0.824012 0 0)
(0.825866 0 0)
(0.827716 0 0)
(0.829562 0 0)
(0.831404 0 0)
(0.833242 0 0)
(0.835076 0 0)
(0.836906 0 0)
(0.838731 0 0)
(0.840553 0 0)
(0.84237 0 0)
(0.844183 0 0)
(0.845992 0 0)
(0.847797 0 0)
(0.849596 0 0)
(0.851392 0 0)
(0.853173 0 0)
(0.855286 0 0)
(0.846089 0 0)
(0.462219 0 0)
(-0.460949 0 0)
(-0.845962 0 0)
(-0.855287 0 0)
(-0.85317 0 0)
(-0.85139 0 0)
(-0.849594 0 0)
(-0.847794 0 0)
(-0.84599 0 0)
(-0.844181 0 0)
(-0.842368 0 0)
(-0.840551 0 0)
(-0.838729 0 0)
(-0.836903 0 0)
(-0.835073 0 0)
(-0.833239 0 0)
(-0.831401 0 0)
(-0.829559 0 0)
(-0.827713 0 0)
(-0.825863 0 0)
(-0.824009 0 0)
(-0.822152 0 0)
(-0.82029 0 0)
(-0.818425 0 0)
(-0.816556 0 0)
(-0.814684 0 0)
(-0.812807 0 0)
(-0.810928 0 0)
(-0.809044 0 0)
(-0.807157 0 0)
(-0.805267 0 0)
(-0.803373 0 0)
(-0.801476 0 0)
(-0.799576 0 0)
(-0.797672 0 0)
(-0.795764 0 0)
(-0.793854 0 0)
(-0.79194 0 0)
(-0.790023 0 0)
(-0.788103 0 0)
(-0.78618 0 0)
(-0.784253 0 0)
(-0.782324 0 0)
(-0.780391 0 0)
(-0.778455 0 0)
(-0.776517 0 0)
(-0.774575 0 0)
(-0.77263 0 0)
(-0.770683 0 0)
(-0.768733 0 0)
(-0.766779 0 0)
(-0.764823 0 0)
(-0.762864 0 0)
(-0.760903 0 0)
(-0.758938 0 0)
(-0.756971 0 0)
(-0.755001 0 0)
(-0.753029 0 0)
(-0.751053 0 0)
(-0.749076 0 0)
(-0.747095 0 0)
(-0.745112 0 0)
(-0.743126 0 0)
(-0.741138 0 0)
(-0.739147 0 0)
(-0.737154 0 0)
(-0.735159 0 0)
(-0.73316 0 0)
(-0.73116 0 0)
(-0.729157 0 0)
(-0.727152 0 0)
(-0.725144 0 0)
(-0.723134 0 0)
(-0.721121 0 0)
(-0.719107 0 0)
(-0.717089 0 0)
(-0.71507 0 0)
(-0.713049 0 0)
(-0.711025 0 0)
(-0.708999 0 0)
(-0.706971 0 0)
(-0.70494 0 0)
(-0.702908 0 0)
(-0.700873 0 0)
(-0.698836 0 0)
(-0.696797 0 0)
(-0.694756 0 0)
(-0.692713 0 0)
(-0.690668 0 0)
(-0.688621 0 0)
(-0.686572 0 0)
(-0.68452 0 0)
(-0.682467 0 0)
(-0.680412 0 0)
(-0.678355 0 0)
(-0.676296 0 0)
(-0.674235 0 0)
(-0.672172 0 0)
(-0.670107 0 0)
(-0.66804 0 0)
(-0.665972 0 0)
(-0.663901 0 0)
(-0.661829 0 0)
(-0.659755 0 0)
(-0.657679 0 0)
(-0.655602 0 0)
(-0.653522 0 0)
(-0.651441 0 0)
(-0.649358 0 0)
(-0.647273 0 0)
(-0.645187 0 0)
(-0.643099 0 0)
(-0.641009 0 0)
(-0.638917 0 0)
(-0.636824 0 0)
(-0.634729 0 0)
(-0.632633 0 0)
(-0.630535 0 0)
(-0.628435 0 0)
(-0.626334 0 0)
(-0.624231 0 0)
(-0.622126 0 0)
(-0.62002 0 0)
(-0.617912 0 0)
(-0.615803 0 0)
(-0.613692 0 0)
(-0.61158 0 0)
(-0.609466 0 0)
(-0.607351 0 0)
(-0.605234 0 0)
(-0.603116 0 0)
(-0.600996 0 0)
(-0.598875 0 0)
(-0.596752 0 0)
(-0.594628 0 0)
(-0.592503 0 0)
(-0.590376 0 0)
(-0.588247 0 0)
(-0.586118 0 0)
(-0.583986 0 0)
(-0.581854 0 0)
(-0.57972 0 0)
(-0.577585 0 0)
(-0.575448 0 0)
(-0.57331 0 0)
(-0.571171 0 0)
(-0.569031 0 0)
(-0.566889 0 0)
(-0.564746 0 0)
(-0.562601 0 0)
(-0.560456 0 0)
(-0.558309 0 0)
(-0.55616 0 0)
(-0.554011 0 0)
(-0.55186 0 0)
(-0.549708 0 0)
(-0.547555 0 0)
(-0.545401 0 0)
(-0.543245 0 0)
(-0.541088 0 0)
(-0.53893 0 0)
(-0.536771 0 0)
(-0.534611 0 0)
(-0.532449 0 0)
(-0.530287 0 0)
(-0.528123 0 0)
(-0.525958 0 0)
(-0.523792 0 0)
(-0.521625 0 0)
(-0.519457 0 0)
(-0.517287 0 0)
(-0.515117 0 0)
(-0.512945 0 0)
(-0.510773 0 0)
(-0.508599 0 0)
(-0.506424 0 0)
(-0.504248 0 0)
(-0.502072 0 0)
(-0.499894 0 0)
(-0.497715 0 0)
(-0.495535 0 0)
(-0.493354 0 0)
(-0.491172 0 0)
(-0.488989 0 0)
(-0.486805 0 0)
(-0.48462 0 0)
(-0.482434 0 0)
(-0.480247 0 0)
(-0.478059 0 0)
(-0.47587 0 0)
(-0.47368 0 0)
(-0.47149 0 0)
(-0.469298 0 0)
(-0.467105 0 0)
(-0.464912 0 0)
(-0.462717 0 0)
(-0.460522 0 0)
(-0.458326 0 0)
(-0.456128 0 0)
(-0.45393 0 0)
(-0.451731 0 0)
(-0.449532 0 0)
(-0.447331 0 0)
(-0.445129 0 0)
(-0.442927 0 0)
(-0.440724 0 0)
(-0.438519 0 0)
(-0.436314 0 0)
(-0.434109 0 0)
(-0.431902 0 0)
(-0.429695 0 0)
(-0.427486 0 0)
(-0.425277 0 0)
(-0.423067 0 0)
(-0.420857 0 0)
(-0.418645 0 0)
(-0.416433 0 0)
(-0.41422 0 0)
(-0.412006 0 0)
(-0.409791 0 0)
(-0.407576 0 0)
(-0.40536 0 0)
(-0.403143 0 0)
(-0.400925 0 0)
(-0.398707 0 0)
(-0.396488 0 0)
(-0.394268 0 0)
(-0.392048 0 0)
(-0.389826 0 0)
(-0.387604 0 0)
(-0.385382 0 0)
(-0.383158 0 0)
(-0.380934 0 0)
(-0.37871 0 0)
(-0.376484 0 0)
(-0.374258 0 0)
(-0.372031 0 0)
(-0.369804 0 0)
(-0.367576 0 0)
(-0.365347 0 0)
(-0.363118 0 0)
(-0.360888 0 0)
(-0.358657 0 0)
(-0.356426 0 0)
(-0.354194 0 0)
(-0.351961 0 0)
(-0.349728 0 0)
(-0.347494 0 0)
(-0.34526 0 0)
(-0.343025 0 0)
(-0.340789 0 0)
(-0.338553 0 0)
(-0.336316 0 0)
(-0.334078 0 0)
(-0.33184 0 0)
(-0.329602 0 0)
(-0.327363 0 0)
(-0.325123 0 0)
(-0.322883 0 0)
(-0.320642 0 0)
(-0.318401 0 0)
(-0.316159 0 0)
(-0.313916 0 0)
(-0.311673 0 0)
(-0.30943 0 0)
(-0.307186 0 0)
(-0.304941 0 0)
(-0.302696 0 0)
(-0.30045 0 0)
(-0.298204 0 0)
(-0.295957 0 0)
(-0.29371 0 0)
(-0.291463 0 0)
(-0.289215 0 0)
(-0.286966 0 0)
(-0.284717 0 0)
(-0.282467 0 0)
(-0.280217 0 0)
(-0.277967 0 0)
(-0.275716 0 0)
(-0.273464 0 0)
(-0.271212 0 0)
(-0.26896 0 0)
(-0.266707 0 0)
(-0.264454 0 0)
(-0.2622 0 0)
(-0.259946 0 0)
(-0.257692 0 0)
(-0.255437 0 0)
(-0.253181 0 0)
(-0.250926 0 0)
(-0.248669 0 0)
(-0.246413 0 0)
(-0.244156 0 0)
(-0.241898 0 0)
(-0.23964 0 0)
(-0.237382 0 0)
(-0.235124 0 0)
(-0.232865 0 0)
(-0.230605 0 0)
(-0.228346 0 0)
(-0.226085 0 0)
(-0.223825 0 0)
(-0.221564 0 0)
(-0.219303 0 0)
(-0.217041 0 0)
(-0.21478 0 0)
(-0.212517 0 0)
(-0.210255 0 0)
(-0.207992 0 0)
(-0.205728 0 0)
(-0.203465 0 0)
(-0.201201 0 0)
(-0.198937 0 0)
(-0.196672 0 0)
(-0.194407 0 0)
(-0.192142 0 0)
(-0.189877 0 0)
(-0.187611 0 0)
(-0.185345 0 0)
(-0.183078 0 0)
(-0.180812 0 0)
(-0.178545 0 0)
(-0.176277 0 0)
(-0.17401 0 0)
(-0.171742 0 0)
(-0.169474 0 0)
(-0.167206 0 0)
(-0.164937 0 0)
(-0.162668 0 0)
(-0.160399 0 0)
(-0.158129 0 0)
(-0.15586 0 0)
(-0.15359 0 0)
(-0.15132 0 0)
(-0.149049 0 0)
(-0.146779 0 0)
(-0.144508 0 0)
(-0.142237 0 0)
(-0.139966 0 0)
(-0.137694 0 0)
(-0.135422 0 0)
(-0.13315 0 0)
(-0.130878 0 0)
(-0.128606 0 0)
(-0.126333 0 0)
(-0.124061 0 0)
(-0.121788 0 0)
(-0.119515 0 0)
(-0.117241 0 0)
(-0.114968 0 0)
(-0.112694 0 0)
(-0.11042 0 0)
(-0.108146 0 0)
(-0.105872 0 0)
(-0.103598 0 0)
(-0.101323 0 0)
(-0.0990485 0 0)
(-0.0967737 0 0)
(-0.0944987 0 0)
(-0.0922236 0 0)
(-0.0899483 0 0)
(-0.0876729 0 0)
(-0.0853973 0 0)
(-0.0831217 0 0)
(-0.0808458 0 0)
(-0.0785699 0 0)
(-0.0762939 0 0)
(-0.0740177 0 0)
(-0.0717414 0 0)
(-0.069465 0 0)
(-0.0671885 0 0)
(-0.0649119 0 0)
(-0.0626352 0 0)
(-0.0603584 0 0)
(-0.0580815 0 0)
(-0.0558045 0 0)
(-0.0535274 0 0)
(-0.0512503 0 0)
(-0.048973 0 0)
(-0.0466957 0 0)
(-0.0444183 0 0)
(-0.0421409 0 0)
(-0.0398634 0 0)
(-0.0375858 0 0)
(-0.0353081 0 0)
(-0.0330305 0 0)
(-0.0307527 0 0)
(-0.0284749 0 0)
(-0.0261971 0 0)
(-0.0239192 0 0)
(-0.0216413 0 0)
(-0.0193634 0 0)
(-0.0170854 0 0)
(-0.0148074 0 0)
(-0.0125294 0 0)
(-0.0102513 0 0)
(-0.00797327 0 0)
(-0.0056952 0 0)
(-0.00341713 0 0)
(-0.00113904 0 0)
)
;

boundaryField
{
    left
    {
        type            fixedValue;
        value           uniform (0 0 0);
    }
    right
    {
        type            fixedValue;
        value           uniform (0 0 0);
    }
    frontBackUpDown
    {
        type            empty;
    }
}


// ************************************************************************* //
