/*--------------------------------*- C++ -*----------------------------------*\
| =========                 |                                                 |
| \\      /  F ield         | OpenFOAM: The Open Source CFD Toolbox           |
|  \\    /   O peration     | Version:  2412                                  |
|   \\  /    A nd           | Website:  www.openfoam.com                      |
|    \\/     M anipulation  |                                                 |
\*---------------------------------------------------------------------------*/
FoamFile
{
    version     2.0;
    format      ascii;
    arch        "LSB;label=32;scalar=64";
    class       volVectorField;
    location    "0.78";
    object      U_0_0_0;
}
// * * * * * * * * * * * * * * * * * * * * * * * * * * * * * * * * * * * * * //

dimensions      [0 1 -1 0 0 0 0];

internalField   nonuniform List<vector> 
800
(
(0.00114059 0 0)
(0.00342178 0 0)
(0.00570297 0 0)
(0.00798415 0 0)
(0.0102653 0 0)
(0.0125465 0 0)
(0.0148276 0 0)
(0.0171087 0 0)
(0.0193898 0 0)
(0.0216709 0 0)
(0.0239519 0 0)
(0.0262329 0 0)
(0.0285138 0 0)
(0.0307947 0 0)
(0.0330756 0 0)
(0.0353564 0 0)
(0.0376371 0 0)
(0.0399178 0 0)
(0.0421984 0 0)
(0.044479 0 0)
(0.0467595 0 0)
(0.0490399 0 0)
(0.0513202 0 0)
(0.0536005 0 0)
(0.0558807 0 0)
(0.0581608 0 0)
(0.0604408 0 0)
(0.0627207 0 0)
(0.0650005 0 0)
(0.0672802 0 0)
(0.0695598 0 0)
(0.0718393 0 0)
(0.0741187 0 0)
(0.076398 0 0)
(0.0786772 0 0)
(0.0809562 0 0)
(0.0832351 0 0)
(0.0855139 0 0)
(0.0877925 0 0)
(0.0900711 0 0)
(0.0923494 0 0)
(0.0946277 0 0)
(0.0969057 0 0)
(0.0991837 0 0)
(0.101461 0 0)
(0.103739 0 0)
(0.106016 0 0)
(0.108294 0 0)
(0.110571 0 0)
(0.112848 0 0)
(0.115125 0 0)
(0.117401 0 0)
(0.119678 0 0)
(0.121954 0 0)
(0.12423 0 0)
(0.126506 0 0)
(0.128781 0 0)
(0.131057 0 0)
(0.133332 0 0)
(0.135607 0 0)
(0.137882 0 0)
(0.140156 0 0)
(0.142431 0 0)
(0.144705 0 0)
(0.146979 0 0)
(0.149252 0 0)
(0.151526 0 0)
(0.153799 0 0)
(0.156072 0 0)
(0.158345 0 0)
(0.160617 0 0)
(0.162889 0 0)
(0.165161 0 0)
(0.167433 0 0)
(0.169705 0 0)
(0.171976 0 0)
(0.174247 0 0)
(0.176517 0 0)
(0.178787 0 0)
(0.181058 0 0)
(0.183327 0 0)
(0.185597 0 0)
(0.187866 0 0)
(0.190135 0 0)
(0.192403 0 0)
(0.194671 0 0)
(0.196939 0 0)
(0.199207 0 0)
(0.201474 0 0)
(0.203741 0 0)
(0.206008 0 0)
(0.208274 0 0)
(0.21054 0 0)
(0.212806 0 0)
(0.215071 0 0)
(0.217336 0 0)
(0.219601 0 0)
(0.221865 0 0)
(0.224129 0 0)
(0.226392 0 0)
(0.228655 0 0)
(0.230918 0 0)
(0.23318 0 0)
(0.235442 0 0)
(0.237704 0 0)
(0.239965 0 0)
(0.242226 0 0)
(0.244487 0 0)
(0.246747 0 0)
(0.249006 0 0)
(0.251265 0 0)
(0.253524 0 0)
(0.255783 0 0)
(0.258041 0 0)
(0.260298 0 0)
(0.262555 0 0)
(0.264812 0 0)
(0.267068 0 0)
(0.269324 0 0)
(0.271579 0 0)
(0.273834 0 0)
(0.276088 0 0)
(0.278342 0 0)
(0.280596 0 0)
(0.282849 0 0)
(0.285101 0 0)
(0.287353 0 0)
(0.289605 0 0)
(0.291856 0 0)
(0.294107 0 0)
(0.296357 0 0)
(0.298606 0 0)
(0.300855 0 0)
(0.303104 0 0)
(0.305352 0 0)
(0.307599 0 0)
(0.309846 0 0)
(0.312093 0 0)
(0.314339 0 0)
(0.316584 0 0)
(0.318829 0 0)
(0.321073 0 0)
(0.323317 0 0)
(0.32556 0 0)
(0.327803 0 0)
(0.330045 0 0)
(0.332286 0 0)
(0.334527 0 0)
(0.336768 0 0)
(0.339007 0 0)
(0.341246 0 0)
(0.343485 0 0)
(0.345723 0 0)
(0.34796 0 0)
(0.350197 0 0)
(0.352433 0 0)
(0.354668 0 0)
(0.356903 0 0)
(0.359137 0 0)
(0.361371 0 0)
(0.363604 0 0)
(0.365836 0 0)
(0.368068 0 0)
(0.370299 0 0)
(0.372529 0 0)
(0.374759 0 0)
(0.376988 0 0)
(0.379216 0 0)
(0.381443 0 0)
(0.38367 0 0)
(0.385896 0 0)
(0.388122 0 0)
(0.390347 0 0)
(0.392571 0 0)
(0.394794 0 0)
(0.397017 0 0)
(0.399238 0 0)
(0.40146 0 0)
(0.40368 0 0)
(0.4059 0 0)
(0.408118 0 0)
(0.410337 0 0)
(0.412554 0 0)
(0.414771 0 0)
(0.416986 0 0)
(0.419201 0 0)
(0.421416 0 0)
(0.423629 0 0)
(0.425842 0 0)
(0.428053 0 0)
(0.430264 0 0)
(0.432475 0 0)
(0.434684 0 0)
(0.436893 0 0)
(0.4391 0 0)
(0.441307 0 0)
(0.443513 0 0)
(0.445718 0 0)
(0.447922 0 0)
(0.450126 0 0)
(0.452328 0 0)
(0.45453 0 0)
(0.456731 0 0)
(0.458931 0 0)
(0.46113 0 0)
(0.463328 0 0)
(0.465525 0 0)
(0.467721 0 0)
(0.469916 0 0)
(0.47211 0 0)
(0.474304 0 0)
(0.476496 0 0)
(0.478688 0 0)
(0.480878 0 0)
(0.483068 0 0)
(0.485256 0 0)
(0.487444 0 0)
(0.48963 0 0)
(0.491816 0 0)
(0.494001 0 0)
(0.496184 0 0)
(0.498367 0 0)
(0.500548 0 0)
(0.502729 0 0)
(0.504908 0 0)
(0.507086 0 0)
(0.509264 0 0)
(0.51144 0 0)
(0.513615 0 0)
(0.515789 0 0)
(0.517962 0 0)
(0.520134 0 0)
(0.522305 0 0)
(0.524474 0 0)
(0.526643 0 0)
(0.52881 0 0)
(0.530976 0 0)
(0.533141 0 0)
(0.535305 0 0)
(0.537468 0 0)
(0.53963 0 0)
(0.54179 0 0)
(0.543949 0 0)
(0.546107 0 0)
(0.548264 0 0)
(0.550419 0 0)
(0.552574 0 0)
(0.554727 0 0)
(0.556879 0 0)
(0.559029 0 0)
(0.561179 0 0)
(0.563327 0 0)
(0.565473 0 0)
(0.567619 0 0)
(0.569763 0 0)
(0.571906 0 0)
(0.574047 0 0)
(0.576188 0 0)
(0.578326 0 0)
(0.580464 0 0)
(0.5826 0 0)
(0.584735 0 0)
(0.586868 0 0)
(0.589 0 0)
(0.591131 0 0)
(0.59326 0 0)
(0.595388 0 0)
(0.597514 0 0)
(0.599639 0 0)
(0.601762 0 0)
(0.603884 0 0)
(0.606005 0 0)
(0.608124 0 0)
(0.610241 0 0)
(0.612357 0 0)
(0.614471 0 0)
(0.616584 0 0)
(0.618696 0 0)
(0.620805 0 0)
(0.622914 0 0)
(0.62502 0 0)
(0.627125 0 0)
(0.629229 0 0)
(0.63133 0 0)
(0.633431 0 0)
(0.635529 0 0)
(0.637626 0 0)
(0.639721 0 0)
(0.641815 0 0)
(0.643906 0 0)
(0.645997 0 0)
(0.648085 0 0)
(0.650172 0 0)
(0.652257 0 0)
(0.65434 0 0)
(0.656421 0 0)
(0.658501 0 0)
(0.660578 0 0)
(0.662654 0 0)
(0.664728 0 0)
(0.666801 0 0)
(0.668871 0 0)
(0.670939 0 0)
(0.673006 0 0)
(0.675071 0 0)
(0.677134 0 0)
(0.679194 0 0)
(0.681253 0 0)
(0.68331 0 0)
(0.685365 0 0)
(0.687418 0 0)
(0.689469 0 0)
(0.691518 0 0)
(0.693565 0 0)
(0.695609 0 0)
(0.697652 0 0)
(0.699693 0 0)
(0.701731 0 0)
(0.703767 0 0)
(0.705801 0 0)
(0.707833 0 0)
(0.709863 0 0)
(0.711891 0 0)
(0.713916 0 0)
(0.715939 0 0)
(0.71796 0 0)
(0.719978 0 0)
(0.721994 0 0)
(0.724008 0 0)
(0.72602 0 0)
(0.728029 0 0)
(0.730036 0 0)
(0.73204 0 0)
(0.734042 0 0)
(0.736041 0 0)
(0.738038 0 0)
(0.740033 0 0)
(0.742025 0 0)
(0.744014 0 0)
(0.746001 0 0)
(0.747986 0 0)
(0.749967 0 0)
(0.751946 0 0)
(0.753923 0 0)
(0.755896 0 0)
(0.757867 0 0)
(0.759836 0 0)
(0.761801 0 0)
(0.763764 0 0)
(0.765724 0 0)
(0.767681 0 0)
(0.769635 0 0)
(0.771586 0 0)
(0.773535 0 0)
(0.77548 0 0)
(0.777423 0 0)
(0.779362 0 0)
(0.781299 0 0)
(0.783232 0 0)
(0.785162 0 0)
(0.78709 0 0)
(0.789014 0 0)
(0.790935 0 0)
(0.792852 0 0)
(0.794767 0 0)
(0.796678 0 0)
(0.798586 0 0)
(0.80049 0 0)
(0.802391 0 0)
(0.804289 0 0)
(0.806183 0 0)
(0.808074 0 0)
(0.809962 0 0)
(0.811845 0 0)
(0.813726 0 0)
(0.815602 0 0)
(0.817475 0 0)
(0.819344 0 0)
(0.82121 0 0)
(0.823071 0 0)
(0.824929 0 0)
(0.826783 0 0)
(0.828633 0 0)
(0.830479 0 0)
(0.832321 0 0)
(0.834159 0 0)
(0.835993 0 0)
(0.837823 0 0)
(0.839649 0 0)
(0.84147 0 0)
(0.843288 0 0)
(0.8451 0 0)
(0.846909 0 0)
(0.848713 0 0)
(0.850513 0 0)
(0.852308 0 0)
(0.854088 0 0)
(0.856198 0 0)
(0.847265 0 0)
(0.463204 0 0)
(-0.461932 0 0)
(-0.847139 0 0)
(-0.856199 0 0)
(-0.854086 0 0)
(-0.852306 0 0)
(-0.85051 0 0)
(-0.848711 0 0)
(-0.846907 0 0)
(-0.845098 0 0)
(-0.843285 0 0)
(-0.841468 0 0)
(-0.839646 0 0)
(-0.837821 0 0)
(-0.835991 0 0)
(-0.834157 0 0)
(-0.832319 0 0)
(-0.830477 0 0)
(-0.828631 0 0)
(-0.826781 0 0)
(-0.824927 0 0)
(-0.823069 0 0)
(-0.821207 0 0)
(-0.819342 0 0)
(-0.817473 0 0)
(-0.8156 0 0)
(-0.813723 0 0)
(-0.811843 0 0)
(-0.809959 0 0)
(-0.808072 0 0)
(-0.806181 0 0)
(-0.804287 0 0)
(-0.802389 0 0)
(-0.800488 0 0)
(-0.798583 0 0)
(-0.796675 0 0)
(-0.794764 0 0)
(-0.79285 0 0)
(-0.790932 0 0)
(-0.789011 0 0)
(-0.787087 0 0)
(-0.78516 0 0)
(-0.78323 0 0)
(-0.781296 0 0)
(-0.77936 0 0)
(-0.77742 0 0)
(-0.775478 0 0)
(-0.773532 0 0)
(-0.771584 0 0)
(-0.769633 0 0)
(-0.767678 0 0)
(-0.765721 0 0)
(-0.763761 0 0)
(-0.761799 0 0)
(-0.759833 0 0)
(-0.757865 0 0)
(-0.755894 0 0)
(-0.75392 0 0)
(-0.751944 0 0)
(-0.749965 0 0)
(-0.747983 0 0)
(-0.745999 0 0)
(-0.744012 0 0)
(-0.742023 0 0)
(-0.740031 0 0)
(-0.738036 0 0)
(-0.736039 0 0)
(-0.73404 0 0)
(-0.732038 0 0)
(-0.730033 0 0)
(-0.728027 0 0)
(-0.726018 0 0)
(-0.724006 0 0)
(-0.721992 0 0)
(-0.719976 0 0)
(-0.717957 0 0)
(-0.715937 0 0)
(-0.713914 0 0)
(-0.711888 0 0)
(-0.709861 0 0)
(-0.707831 0 0)
(-0.705799 0 0)
(-0.703765 0 0)
(-0.701729 0 0)
(-0.69969 0 0)
(-0.69765 0 0)
(-0.695607 0 0)
(-0.693562 0 0)
(-0.691516 0 0)
(-0.689467 0 0)
(-0.687416 0 0)
(-0.685363 0 0)
(-0.683308 0 0)
(-0.681251 0 0)
(-0.679192 0 0)
(-0.677131 0 0)
(-0.675069 0 0)
(-0.673004 0 0)
(-0.670937 0 0)
(-0.668869 0 0)
(-0.666798 0 0)
(-0.664726 0 0)
(-0.662652 0 0)
(-0.660576 0 0)
(-0.658498 0 0)
(-0.656419 0 0)
(-0.654338 0 0)
(-0.652254 0 0)
(-0.65017 0 0)
(-0.648083 0 0)
(-0.645995 0 0)
(-0.643904 0 0)
(-0.641813 0 0)
(-0.639719 0 0)
(-0.637624 0 0)
(-0.635527 0 0)
(-0.633429 0 0)
(-0.631328 0 0)
(-0.629227 0 0)
(-0.627123 0 0)
(-0.625018 0 0)
(-0.622912 0 0)
(-0.620803 0 0)
(-0.618694 0 0)
(-0.616582 0 0)
(-0.614469 0 0)
(-0.612355 0 0)
(-0.610239 0 0)
(-0.608122 0 0)
(-0.606003 0 0)
(-0.603882 0 0)
(-0.60176 0 0)
(-0.599637 0 0)
(-0.597512 0 0)
(-0.595386 0 0)
(-0.593258 0 0)
(-0.591129 0 0)
(-0.588998 0 0)
(-0.586866 0 0)
(-0.584733 0 0)
(-0.582598 0 0)
(-0.580462 0 0)
(-0.578325 0 0)
(-0.576186 0 0)
(-0.574046 0 0)
(-0.571904 0 0)
(-0.569761 0 0)
(-0.567617 0 0)
(-0.565472 0 0)
(-0.563325 0 0)
(-0.561177 0 0)
(-0.559028 0 0)
(-0.556877 0 0)
(-0.554725 0 0)
(-0.552572 0 0)
(-0.550418 0 0)
(-0.548262 0 0)
(-0.546106 0 0)
(-0.543948 0 0)
(-0.541788 0 0)
(-0.539628 0 0)
(-0.537466 0 0)
(-0.535304 0 0)
(-0.53314 0 0)
(-0.530975 0 0)
(-0.528809 0 0)
(-0.526641 0 0)
(-0.524473 0 0)
(-0.522303 0 0)
(-0.520132 0 0)
(-0.51796 0 0)
(-0.515788 0 0)
(-0.513614 0 0)
(-0.511438 0 0)
(-0.509262 0 0)
(-0.507085 0 0)
(-0.504907 0 0)
(-0.502727 0 0)
(-0.500547 0 0)
(-0.498365 0 0)
(-0.496183 0 0)
(-0.493999 0 0)
(-0.491815 0 0)
(-0.489629 0 0)
(-0.487443 0 0)
(-0.485255 0 0)
(-0.483066 0 0)
(-0.480877 0 0)
(-0.478686 0 0)
(-0.476495 0 0)
(-0.474303 0 0)
(-0.472109 0 0)
(-0.469915 0 0)
(-0.46772 0 0)
(-0.465523 0 0)
(-0.463326 0 0)
(-0.461128 0 0)
(-0.458929 0 0)
(-0.45673 0 0)
(-0.454529 0 0)
(-0.452327 0 0)
(-0.450125 0 0)
(-0.447921 0 0)
(-0.445717 0 0)
(-0.443512 0 0)
(-0.441306 0 0)
(-0.439099 0 0)
(-0.436891 0 0)
(-0.434683 0 0)
(-0.432474 0 0)
(-0.430263 0 0)
(-0.428052 0 0)
(-0.425841 0 0)
(-0.423628 0 0)
(-0.421415 0 0)
(-0.4192 0 0)
(-0.416985 0 0)
(-0.41477 0 0)
(-0.412553 0 0)
(-0.410336 0 0)
(-0.408118 0 0)
(-0.405899 0 0)
(-0.403679 0 0)
(-0.401459 0 0)
(-0.399238 0 0)
(-0.397016 0 0)
(-0.394793 0 0)
(-0.39257 0 0)
(-0.390346 0 0)
(-0.388121 0 0)
(-0.385896 0 0)
(-0.383669 0 0)
(-0.381443 0 0)
(-0.379215 0 0)
(-0.376987 0 0)
(-0.374758 0 0)
(-0.372528 0 0)
(-0.370298 0 0)
(-0.368067 0 0)
(-0.365835 0 0)
(-0.363603 0 0)
(-0.36137 0 0)
(-0.359137 0 0)
(-0.356903 0 0)
(-0.354668 0 0)
(-0.352432 0 0)
(-0.350196 0 0)
(-0.34796 0 0)
(-0.345722 0 0)
(-0.343484 0 0)
(-0.341246 0 0)
(-0.339007 0 0)
(-0.336767 0 0)
(-0.334527 0 0)
(-0.332286 0 0)
(-0.330044 0 0)
(-0.327802 0 0)
(-0.32556 0 0)
(-0.323316 0 0)
(-0.321073 0 0)
(-0.318828 0 0)
(-0.316584 0 0)
(-0.314338 0 0)
(-0.312092 0 0)
(-0.309846 0 0)
(-0.307599 0 0)
(-0.305351 0 0)
(-0.303103 0 0)
(-0.300855 0 0)
(-0.298606 0 0)
(-0.296356 0 0)
(-0.294106 0 0)
(-0.291856 0 0)
(-0.289604 0 0)
(-0.287353 0 0)
(-0.285101 0 0)
(-0.282848 0 0)
(-0.280595 0 0)
(-0.278342 0 0)
(-0.276088 0 0)
(-0.273834 0 0)
(-0.271579 0 0)
(-0.269323 0 0)
(-0.267068 0 0)
(-0.264811 0 0)
(-0.262555 0 0)
(-0.260298 0 0)
(-0.25804 0 0)
(-0.255782 0 0)
(-0.253524 0 0)
(-0.251265 0 0)
(-0.249006 0 0)
(-0.246746 0 0)
(-0.244486 0 0)
(-0.242226 0 0)
(-0.239965 0 0)
(-0.237704 0 0)
(-0.235442 0 0)
(-0.23318 0 0)
(-0.230918 0 0)
(-0.228655 0 0)
(-0.226392 0 0)
(-0.224128 0 0)
(-0.221865 0 0)
(-0.2196 0 0)
(-0.217336 0 0)
(-0.215071 0 0)
(-0.212806 0 0)
(-0.21054 0 0)
(-0.208274 0 0)
(-0.206008 0 0)
(-0.203741 0 0)
(-0.201474 0 0)
(-0.199207 0 0)
(-0.196939 0 0)
(-0.194671 0 0)
(-0.192403 0 0)
(-0.190134 0 0)
(-0.187866 0 0)
(-0.185596 0 0)
(-0.183327 0 0)
(-0.181057 0 0)
(-0.178787 0 0)
(-0.176517 0 0)
(-0.174246 0 0)
(-0.171975 0 0)
(-0.169704 0 0)
(-0.167433 0 0)
(-0.165161 0 0)
(-0.162889 0 0)
(-0.160617 0 0)
(-0.158345 0 0)
(-0.156072 0 0)
(-0.153799 0 0)
(-0.151526 0 0)
(-0.149252 0 0)
(-0.146979 0 0)
(-0.144705 0 0)
(-0.142431 0 0)
(-0.140156 0 0)
(-0.137882 0 0)
(-0.135607 0 0)
(-0.133332 0 0)
(-0.131057 0 0)
(-0.128781 0 0)
(-0.126506 0 0)
(-0.12423 0 0)
(-0.121954 0 0)
(-0.119678 0 0)
(-0.117401 0 0)
(-0.115125 0 0)
(-0.112848 0 0)
(-0.110571 0 0)
(-0.108294 0 0)
(-0.106016 0 0)
(-0.103739 0 0)
(-0.101461 0 0)
(-0.0991836 0 0)
(-0.0969057 0 0)
(-0.0946276 0 0)
(-0.0923494 0 0)
(-0.090071 0 0)
(-0.0877925 0 0)
(-0.0855138 0 0)
(-0.0832351 0 0)
(-0.0809562 0 0)
(-0.0786771 0 0)
(-0.076398 0 0)
(-0.0741187 0 0)
(-0.0718393 0 0)
(-0.0695598 0 0)
(-0.0672802 0 0)
(-0.0650005 0 0)
(-0.0627207 0 0)
(-0.0604408 0 0)
(-0.0581608 0 0)
(-0.0558807 0 0)
(-0.0536005 0 0)
(-0.0513202 0 0)
(-0.0490399 0 0)
(-0.0467595 0 0)
(-0.044479 0 0)
(-0.0421984 0 0)
(-0.0399178 0 0)
(-0.0376371 0 0)
(-0.0353564 0 0)
(-0.0330756 0 0)
(-0.0307947 0 0)
(-0.0285138 0 0)
(-0.0262329 0 0)
(-0.0239519 0 0)
(-0.0216709 0 0)
(-0.0193898 0 0)
(-0.0171087 0 0)
(-0.0148276 0 0)
(-0.0125465 0 0)
(-0.0102653 0 0)
(-0.00798416 0 0)
(-0.00570298 0 0)
(-0.00342179 0 0)
(-0.0011406 0 0)
)
;

boundaryField
{
    left
    {
        type            fixedValue;
        value           uniform (0 0 0);
    }
    right
    {
        type            fixedValue;
        value           uniform (0 0 0);
    }
    frontBackUpDown
    {
        type            empty;
    }
}


// ************************************************************************* //
