/*--------------------------------*- C++ -*----------------------------------*\
| =========                 |                                                 |
| \\      /  F ield         | OpenFOAM: The Open Source CFD Toolbox           |
|  \\    /   O peration     | Version:  2412                                  |
|   \\  /    A nd           | Website:  www.openfoam.com                      |
|    \\/     M anipulation  |                                                 |
\*---------------------------------------------------------------------------*/
FoamFile
{
    version     2.0;
    format      ascii;
    arch        "LSB;label=32;scalar=64";
    class       volVectorField;
    location    "0.78";
    object      U_0_0;
}
// * * * * * * * * * * * * * * * * * * * * * * * * * * * * * * * * * * * * * //

dimensions      [0 1 -1 0 0 0 0];

internalField   nonuniform List<vector> 
800
(
(0.00114007 0 0)
(0.00342022 0 0)
(0.00570038 0 0)
(0.00798052 0 0)
(0.0102607 0 0)
(0.0125408 0 0)
(0.0148209 0 0)
(0.0171009 0 0)
(0.019381 0 0)
(0.021661 0 0)
(0.023941 0 0)
(0.0262209 0 0)
(0.0285008 0 0)
(0.0307807 0 0)
(0.0330605 0 0)
(0.0353403 0 0)
(0.03762 0 0)
(0.0398996 0 0)
(0.0421792 0 0)
(0.0444588 0 0)
(0.0467382 0 0)
(0.0490176 0 0)
(0.0512969 0 0)
(0.0535761 0 0)
(0.0558553 0 0)
(0.0581343 0 0)
(0.0604133 0 0)
(0.0626922 0 0)
(0.064971 0 0)
(0.0672496 0 0)
(0.0695282 0 0)
(0.0718067 0 0)
(0.074085 0 0)
(0.0763633 0 0)
(0.0786414 0 0)
(0.0809194 0 0)
(0.0831973 0 0)
(0.085475 0 0)
(0.0877526 0 0)
(0.0900301 0 0)
(0.0923075 0 0)
(0.0945846 0 0)
(0.0968617 0 0)
(0.0991386 0 0)
(0.101415 0 0)
(0.103692 0 0)
(0.105968 0 0)
(0.108245 0 0)
(0.110521 0 0)
(0.112797 0 0)
(0.115072 0 0)
(0.117348 0 0)
(0.119623 0 0)
(0.121898 0 0)
(0.124173 0 0)
(0.126448 0 0)
(0.128723 0 0)
(0.130997 0 0)
(0.133271 0 0)
(0.135545 0 0)
(0.137819 0 0)
(0.140093 0 0)
(0.142366 0 0)
(0.144639 0 0)
(0.146912 0 0)
(0.149185 0 0)
(0.151457 0 0)
(0.153729 0 0)
(0.156001 0 0)
(0.158273 0 0)
(0.160544 0 0)
(0.162816 0 0)
(0.165087 0 0)
(0.167357 0 0)
(0.169628 0 0)
(0.171898 0 0)
(0.174168 0 0)
(0.176437 0 0)
(0.178707 0 0)
(0.180976 0 0)
(0.183244 0 0)
(0.185513 0 0)
(0.187781 0 0)
(0.190049 0 0)
(0.192316 0 0)
(0.194583 0 0)
(0.19685 0 0)
(0.199117 0 0)
(0.201383 0 0)
(0.203649 0 0)
(0.205915 0 0)
(0.20818 0 0)
(0.210445 0 0)
(0.21271 0 0)
(0.214974 0 0)
(0.217238 0 0)
(0.219501 0 0)
(0.221765 0 0)
(0.224027 0 0)
(0.22629 0 0)
(0.228552 0 0)
(0.230814 0 0)
(0.233075 0 0)
(0.235336 0 0)
(0.237597 0 0)
(0.239857 0 0)
(0.242117 0 0)
(0.244376 0 0)
(0.246635 0 0)
(0.248894 0 0)
(0.251152 0 0)
(0.25341 0 0)
(0.255667 0 0)
(0.257924 0 0)
(0.260181 0 0)
(0.262437 0 0)
(0.264693 0 0)
(0.266948 0 0)
(0.269203 0 0)
(0.271457 0 0)
(0.273711 0 0)
(0.275964 0 0)
(0.278217 0 0)
(0.28047 0 0)
(0.282722 0 0)
(0.284973 0 0)
(0.287224 0 0)
(0.289475 0 0)
(0.291725 0 0)
(0.293975 0 0)
(0.296224 0 0)
(0.298472 0 0)
(0.30072 0 0)
(0.302968 0 0)
(0.305215 0 0)
(0.307462 0 0)
(0.309708 0 0)
(0.311953 0 0)
(0.314198 0 0)
(0.316442 0 0)
(0.318686 0 0)
(0.32093 0 0)
(0.323172 0 0)
(0.325415 0 0)
(0.327656 0 0)
(0.329897 0 0)
(0.332138 0 0)
(0.334378 0 0)
(0.336617 0 0)
(0.338856 0 0)
(0.341094 0 0)
(0.343332 0 0)
(0.345569 0 0)
(0.347805 0 0)
(0.350041 0 0)
(0.352276 0 0)
(0.35451 0 0)
(0.356744 0 0)
(0.358977 0 0)
(0.36121 0 0)
(0.363442 0 0)
(0.365673 0 0)
(0.367904 0 0)
(0.370134 0 0)
(0.372363 0 0)
(0.374592 0 0)
(0.37682 0 0)
(0.379047 0 0)
(0.381274 0 0)
(0.3835 0 0)
(0.385725 0 0)
(0.38795 0 0)
(0.390173 0 0)
(0.392396 0 0)
(0.394619 0 0)
(0.396841 0 0)
(0.399061 0 0)
(0.401282 0 0)
(0.403501 0 0)
(0.40572 0 0)
(0.407938 0 0)
(0.410155 0 0)
(0.412371 0 0)
(0.414587 0 0)
(0.416802 0 0)
(0.419016 0 0)
(0.421229 0 0)
(0.423442 0 0)
(0.425654 0 0)
(0.427865 0 0)
(0.430075 0 0)
(0.432284 0 0)
(0.434492 0 0)
(0.4367 0 0)
(0.438907 0 0)
(0.441113 0 0)
(0.443318 0 0)
(0.445522 0 0)
(0.447725 0 0)
(0.449928 0 0)
(0.45213 0 0)
(0.45433 0 0)
(0.45653 0 0)
(0.458729 0 0)
(0.460927 0 0)
(0.463124 0 0)
(0.465321 0 0)
(0.467516 0 0)
(0.46971 0 0)
(0.471904 0 0)
(0.474096 0 0)
(0.476288 0 0)
(0.478478 0 0)
(0.480668 0 0)
(0.482857 0 0)
(0.485044 0 0)
(0.487231 0 0)
(0.489417 0 0)
(0.491602 0 0)
(0.493785 0 0)
(0.495968 0 0)
(0.49815 0 0)
(0.50033 0 0)
(0.50251 0 0)
(0.504688 0 0)
(0.506866 0 0)
(0.509042 0 0)
(0.511218 0 0)
(0.513392 0 0)
(0.515565 0 0)
(0.517737 0 0)
(0.519908 0 0)
(0.522078 0 0)
(0.524247 0 0)
(0.526415 0 0)
(0.528581 0 0)
(0.530747 0 0)
(0.532911 0 0)
(0.535074 0 0)
(0.537236 0 0)
(0.539397 0 0)
(0.541556 0 0)
(0.543715 0 0)
(0.545872 0 0)
(0.548028 0 0)
(0.550183 0 0)
(0.552336 0 0)
(0.554489 0 0)
(0.55664 0 0)
(0.558789 0 0)
(0.560938 0 0)
(0.563085 0 0)
(0.565231 0 0)
(0.567376 0 0)
(0.569519 0 0)
(0.571661 0 0)
(0.573802 0 0)
(0.575942 0 0)
(0.57808 0 0)
(0.580216 0 0)
(0.582352 0 0)
(0.584486 0 0)
(0.586618 0 0)
(0.58875 0 0)
(0.590879 0 0)
(0.593008 0 0)
(0.595135 0 0)
(0.59726 0 0)
(0.599385 0 0)
(0.601507 0 0)
(0.603628 0 0)
(0.605748 0 0)
(0.607866 0 0)
(0.609983 0 0)
(0.612098 0 0)
(0.614212 0 0)
(0.616324 0 0)
(0.618435 0 0)
(0.620544 0 0)
(0.622652 0 0)
(0.624757 0 0)
(0.626862 0 0)
(0.628965 0 0)
(0.631066 0 0)
(0.633165 0 0)
(0.635263 0 0)
(0.637359 0 0)
(0.639454 0 0)
(0.641547 0 0)
(0.643638 0 0)
(0.645727 0 0)
(0.647815 0 0)
(0.649901 0 0)
(0.651985 0 0)
(0.654068 0 0)
(0.656148 0 0)
(0.658227 0 0)
(0.660304 0 0)
(0.66238 0 0)
(0.664453 0 0)
(0.666525 0 0)
(0.668595 0 0)
(0.670663 0 0)
(0.672729 0 0)
(0.674793 0 0)
(0.676855 0 0)
(0.678915 0 0)
(0.680973 0 0)
(0.68303 0 0)
(0.685084 0 0)
(0.687136 0 0)
(0.689187 0 0)
(0.691235 0 0)
(0.693281 0 0)
(0.695326 0 0)
(0.697368 0 0)
(0.699408 0 0)
(0.701446 0 0)
(0.703481 0 0)
(0.705515 0 0)
(0.707546 0 0)
(0.709576 0 0)
(0.711603 0 0)
(0.713627 0 0)
(0.71565 0 0)
(0.71767 0 0)
(0.719688 0 0)
(0.721704 0 0)
(0.723717 0 0)
(0.725728 0 0)
(0.727737 0 0)
(0.729743 0 0)
(0.731747 0 0)
(0.733749 0 0)
(0.735748 0 0)
(0.737744 0 0)
(0.739738 0 0)
(0.74173 0 0)
(0.743719 0 0)
(0.745705 0 0)
(0.747689 0 0)
(0.749671 0 0)
(0.751649 0 0)
(0.753625 0 0)
(0.755599 0 0)
(0.757569 0 0)
(0.759537 0 0)
(0.761502 0 0)
(0.763465 0 0)
(0.765424 0 0)
(0.767381 0 0)
(0.769335 0 0)
(0.771286 0 0)
(0.773234 0 0)
(0.775179 0 0)
(0.777121 0 0)
(0.779061 0 0)
(0.780997 0 0)
(0.78293 0 0)
(0.78486 0 0)
(0.786787 0 0)
(0.788711 0 0)
(0.790631 0 0)
(0.792549 0 0)
(0.794463 0 0)
(0.796374 0 0)
(0.798282 0 0)
(0.800186 0 0)
(0.802087 0 0)
(0.803985 0 0)
(0.805879 0 0)
(0.807769 0 0)
(0.809657 0 0)
(0.81154 0 0)
(0.81342 0 0)
(0.815297 0 0)
(0.817169 0 0)
(0.819038 0 0)
(0.820904 0 0)
(0.822765 0 0)
(0.824623 0 0)
(0.826477 0 0)
(0.828327 0 0)
(0.830173 0 0)
(0.832015 0 0)
(0.833853 0 0)
(0.835687 0 0)
(0.837517 0 0)
(0.839343 0 0)
(0.841164 0 0)
(0.842982 0 0)
(0.844795 0 0)
(0.846603 0 0)
(0.848407 0 0)
(0.850207 0 0)
(0.852003 0 0)
(0.853783 0 0)
(0.855894 0 0)
(0.846873 0 0)
(0.462875 0 0)
(-0.461604 0 0)
(-0.846747 0 0)
(-0.855895 0 0)
(-0.85378 0 0)
(-0.852 0 0)
(-0.850205 0 0)
(-0.848405 0 0)
(-0.846601 0 0)
(-0.844792 0 0)
(-0.842979 0 0)
(-0.841162 0 0)
(-0.839341 0 0)
(-0.837515 0 0)
(-0.835685 0 0)
(-0.833851 0 0)
(-0.832013 0 0)
(-0.830171 0 0)
(-0.828325 0 0)
(-0.826475 0 0)
(-0.824621 0 0)
(-0.822763 0 0)
(-0.820901 0 0)
(-0.819036 0 0)
(-0.817167 0 0)
(-0.815294 0 0)
(-0.813418 0 0)
(-0.811538 0 0)
(-0.809654 0 0)
(-0.807767 0 0)
(-0.805876 0 0)
(-0.803982 0 0)
(-0.802085 0 0)
(-0.800184 0 0)
(-0.798279 0 0)
(-0.796372 0 0)
(-0.794461 0 0)
(-0.792546 0 0)
(-0.790629 0 0)
(-0.788708 0 0)
(-0.786785 0 0)
(-0.784858 0 0)
(-0.782927 0 0)
(-0.780994 0 0)
(-0.779058 0 0)
(-0.777119 0 0)
(-0.775177 0 0)
(-0.773232 0 0)
(-0.771283 0 0)
(-0.769332 0 0)
(-0.767379 0 0)
(-0.765422 0 0)
(-0.763462 0 0)
(-0.7615 0 0)
(-0.759535 0 0)
(-0.757567 0 0)
(-0.755596 0 0)
(-0.753623 0 0)
(-0.751647 0 0)
(-0.749668 0 0)
(-0.747687 0 0)
(-0.745703 0 0)
(-0.743717 0 0)
(-0.741728 0 0)
(-0.739736 0 0)
(-0.737742 0 0)
(-0.735745 0 0)
(-0.733746 0 0)
(-0.731745 0 0)
(-0.729741 0 0)
(-0.727735 0 0)
(-0.725726 0 0)
(-0.723715 0 0)
(-0.721702 0 0)
(-0.719686 0 0)
(-0.717668 0 0)
(-0.715648 0 0)
(-0.713625 0 0)
(-0.7116 0 0)
(-0.709573 0 0)
(-0.707544 0 0)
(-0.705513 0 0)
(-0.703479 0 0)
(-0.701443 0 0)
(-0.699405 0 0)
(-0.697365 0 0)
(-0.695323 0 0)
(-0.693279 0 0)
(-0.691233 0 0)
(-0.689185 0 0)
(-0.687134 0 0)
(-0.685082 0 0)
(-0.683028 0 0)
(-0.680971 0 0)
(-0.678913 0 0)
(-0.676853 0 0)
(-0.67479 0 0)
(-0.672726 0 0)
(-0.67066 0 0)
(-0.668592 0 0)
(-0.666523 0 0)
(-0.664451 0 0)
(-0.662378 0 0)
(-0.660302 0 0)
(-0.658225 0 0)
(-0.656146 0 0)
(-0.654066 0 0)
(-0.651983 0 0)
(-0.649899 0 0)
(-0.647813 0 0)
(-0.645725 0 0)
(-0.643636 0 0)
(-0.641545 0 0)
(-0.639452 0 0)
(-0.637357 0 0)
(-0.635261 0 0)
(-0.633163 0 0)
(-0.631064 0 0)
(-0.628963 0 0)
(-0.62686 0 0)
(-0.624756 0 0)
(-0.62265 0 0)
(-0.620542 0 0)
(-0.618433 0 0)
(-0.616322 0 0)
(-0.61421 0 0)
(-0.612096 0 0)
(-0.609981 0 0)
(-0.607865 0 0)
(-0.605746 0 0)
(-0.603627 0 0)
(-0.601505 0 0)
(-0.599383 0 0)
(-0.597259 0 0)
(-0.595133 0 0)
(-0.593006 0 0)
(-0.590878 0 0)
(-0.588748 0 0)
(-0.586617 0 0)
(-0.584484 0 0)
(-0.58235 0 0)
(-0.580215 0 0)
(-0.578078 0 0)
(-0.57594 0 0)
(-0.5738 0 0)
(-0.57166 0 0)
(-0.569518 0 0)
(-0.567374 0 0)
(-0.565229 0 0)
(-0.563084 0 0)
(-0.560936 0 0)
(-0.558788 0 0)
(-0.556638 0 0)
(-0.554487 0 0)
(-0.552335 0 0)
(-0.550181 0 0)
(-0.548026 0 0)
(-0.54587 0 0)
(-0.543713 0 0)
(-0.541555 0 0)
(-0.539395 0 0)
(-0.537235 0 0)
(-0.535073 0 0)
(-0.532909 0 0)
(-0.530745 0 0)
(-0.52858 0 0)
(-0.526413 0 0)
(-0.524246 0 0)
(-0.522077 0 0)
(-0.519907 0 0)
(-0.517736 0 0)
(-0.515564 0 0)
(-0.513391 0 0)
(-0.511216 0 0)
(-0.509041 0 0)
(-0.506865 0 0)
(-0.504687 0 0)
(-0.502508 0 0)
(-0.500329 0 0)
(-0.498148 0 0)
(-0.495967 0 0)
(-0.493784 0 0)
(-0.4916 0 0)
(-0.489416 0 0)
(-0.48723 0 0)
(-0.485043 0 0)
(-0.482855 0 0)
(-0.480667 0 0)
(-0.478477 0 0)
(-0.476287 0 0)
(-0.474095 0 0)
(-0.471903 0 0)
(-0.469709 0 0)
(-0.467515 0 0)
(-0.465319 0 0)
(-0.463123 0 0)
(-0.460926 0 0)
(-0.458728 0 0)
(-0.456529 0 0)
(-0.454329 0 0)
(-0.452128 0 0)
(-0.449927 0 0)
(-0.447724 0 0)
(-0.445521 0 0)
(-0.443317 0 0)
(-0.441112 0 0)
(-0.438906 0 0)
(-0.436699 0 0)
(-0.434491 0 0)
(-0.432283 0 0)
(-0.430074 0 0)
(-0.427864 0 0)
(-0.425653 0 0)
(-0.423441 0 0)
(-0.421228 0 0)
(-0.419015 0 0)
(-0.416801 0 0)
(-0.414586 0 0)
(-0.41237 0 0)
(-0.410154 0 0)
(-0.407937 0 0)
(-0.405719 0 0)
(-0.4035 0 0)
(-0.401281 0 0)
(-0.399061 0 0)
(-0.39684 0 0)
(-0.394618 0 0)
(-0.392396 0 0)
(-0.390172 0 0)
(-0.387949 0 0)
(-0.385724 0 0)
(-0.383499 0 0)
(-0.381273 0 0)
(-0.379046 0 0)
(-0.376819 0 0)
(-0.374591 0 0)
(-0.372362 0 0)
(-0.370133 0 0)
(-0.367903 0 0)
(-0.365673 0 0)
(-0.363441 0 0)
(-0.361209 0 0)
(-0.358977 0 0)
(-0.356743 0 0)
(-0.35451 0 0)
(-0.352275 0 0)
(-0.35004 0 0)
(-0.347804 0 0)
(-0.345568 0 0)
(-0.343331 0 0)
(-0.341093 0 0)
(-0.338855 0 0)
(-0.336616 0 0)
(-0.334377 0 0)
(-0.332137 0 0)
(-0.329897 0 0)
(-0.327656 0 0)
(-0.325414 0 0)
(-0.323172 0 0)
(-0.320929 0 0)
(-0.318686 0 0)
(-0.316442 0 0)
(-0.314197 0 0)
(-0.311952 0 0)
(-0.309707 0 0)
(-0.307461 0 0)
(-0.305214 0 0)
(-0.302967 0 0)
(-0.30072 0 0)
(-0.298472 0 0)
(-0.296223 0 0)
(-0.293974 0 0)
(-0.291724 0 0)
(-0.289474 0 0)
(-0.287224 0 0)
(-0.284973 0 0)
(-0.282721 0 0)
(-0.280469 0 0)
(-0.278217 0 0)
(-0.275964 0 0)
(-0.27371 0 0)
(-0.271456 0 0)
(-0.269202 0 0)
(-0.266947 0 0)
(-0.264692 0 0)
(-0.262436 0 0)
(-0.26018 0 0)
(-0.257924 0 0)
(-0.255667 0 0)
(-0.25341 0 0)
(-0.251152 0 0)
(-0.248894 0 0)
(-0.246635 0 0)
(-0.244376 0 0)
(-0.242117 0 0)
(-0.239857 0 0)
(-0.237596 0 0)
(-0.235336 0 0)
(-0.233075 0 0)
(-0.230814 0 0)
(-0.228552 0 0)
(-0.22629 0 0)
(-0.224027 0 0)
(-0.221764 0 0)
(-0.219501 0 0)
(-0.217238 0 0)
(-0.214974 0 0)
(-0.212709 0 0)
(-0.210445 0 0)
(-0.20818 0 0)
(-0.205915 0 0)
(-0.203649 0 0)
(-0.201383 0 0)
(-0.199117 0 0)
(-0.19685 0 0)
(-0.194583 0 0)
(-0.192316 0 0)
(-0.190048 0 0)
(-0.187781 0 0)
(-0.185512 0 0)
(-0.183244 0 0)
(-0.180975 0 0)
(-0.178706 0 0)
(-0.176437 0 0)
(-0.174167 0 0)
(-0.171898 0 0)
(-0.169627 0 0)
(-0.167357 0 0)
(-0.165086 0 0)
(-0.162815 0 0)
(-0.160544 0 0)
(-0.158273 0 0)
(-0.156001 0 0)
(-0.153729 0 0)
(-0.151457 0 0)
(-0.149185 0 0)
(-0.146912 0 0)
(-0.144639 0 0)
(-0.142366 0 0)
(-0.140093 0 0)
(-0.137819 0 0)
(-0.135545 0 0)
(-0.133271 0 0)
(-0.130997 0 0)
(-0.128723 0 0)
(-0.126448 0 0)
(-0.124173 0 0)
(-0.121898 0 0)
(-0.119623 0 0)
(-0.117348 0 0)
(-0.115072 0 0)
(-0.112797 0 0)
(-0.110521 0 0)
(-0.108245 0 0)
(-0.105968 0 0)
(-0.103692 0 0)
(-0.101415 0 0)
(-0.0991385 0 0)
(-0.0968616 0 0)
(-0.0945846 0 0)
(-0.0923074 0 0)
(-0.0900301 0 0)
(-0.0877526 0 0)
(-0.085475 0 0)
(-0.0831972 0 0)
(-0.0809194 0 0)
(-0.0786414 0 0)
(-0.0763632 0 0)
(-0.074085 0 0)
(-0.0718066 0 0)
(-0.0695282 0 0)
(-0.0672496 0 0)
(-0.0649709 0 0)
(-0.0626922 0 0)
(-0.0604133 0 0)
(-0.0581343 0 0)
(-0.0558553 0 0)
(-0.0535761 0 0)
(-0.0512969 0 0)
(-0.0490176 0 0)
(-0.0467382 0 0)
(-0.0444587 0 0)
(-0.0421792 0 0)
(-0.0398996 0 0)
(-0.03762 0 0)
(-0.0353403 0 0)
(-0.0330605 0 0)
(-0.0307807 0 0)
(-0.0285008 0 0)
(-0.0262209 0 0)
(-0.023941 0 0)
(-0.021661 0 0)
(-0.019381 0 0)
(-0.0171009 0 0)
(-0.0148209 0 0)
(-0.0125408 0 0)
(-0.0102607 0 0)
(-0.00798053 0 0)
(-0.00570039 0 0)
(-0.00342024 0 0)
(-0.00114008 0 0)
)
;

boundaryField
{
    left
    {
        type            fixedValue;
        value           uniform (0 0 0);
    }
    right
    {
        type            fixedValue;
        value           uniform (0 0 0);
    }
    frontBackUpDown
    {
        type            empty;
    }
}


// ************************************************************************* //
