/*--------------------------------*- C++ -*----------------------------------*\
| =========                 |                                                 |
| \\      /  F ield         | OpenFOAM: The Open Source CFD Toolbox           |
|  \\    /   O peration     | Version:  2412                                  |
|   \\  /    A nd           | Website:  www.openfoam.com                      |
|    \\/     M anipulation  |                                                 |
\*---------------------------------------------------------------------------*/
FoamFile
{
    version     2.0;
    format      ascii;
    arch        "LSB;label=32;scalar=64";
    class       volVectorField;
    location    "0.65";
    object      U;
}
// * * * * * * * * * * * * * * * * * * * * * * * * * * * * * * * * * * * * * //

dimensions      [0 1 -1 0 0 0 0];

internalField   nonuniform List<vector> 
800
(
(0.00129174 0 0)
(0.00387523 0 0)
(0.00645871 0 0)
(0.00904219 0 0)
(0.0116256 0 0)
(0.0142091 0 0)
(0.0167925 0 0)
(0.0193758 0 0)
(0.0219591 0 0)
(0.0245424 0 0)
(0.0271256 0 0)
(0.0297087 0 0)
(0.0322918 0 0)
(0.0348748 0 0)
(0.0374578 0 0)
(0.0400406 0 0)
(0.0426234 0 0)
(0.045206 0 0)
(0.0477886 0 0)
(0.0503711 0 0)
(0.0529534 0 0)
(0.0555356 0 0)
(0.0581177 0 0)
(0.0606997 0 0)
(0.0632815 0 0)
(0.0658632 0 0)
(0.0684448 0 0)
(0.0710262 0 0)
(0.0736074 0 0)
(0.0761885 0 0)
(0.0787693 0 0)
(0.0813501 0 0)
(0.0839306 0 0)
(0.0865109 0 0)
(0.0890911 0 0)
(0.091671 0 0)
(0.0942508 0 0)
(0.0968303 0 0)
(0.0994096 0 0)
(0.101989 0 0)
(0.104568 0 0)
(0.107146 0 0)
(0.109725 0 0)
(0.112303 0 0)
(0.114881 0 0)
(0.117458 0 0)
(0.120036 0 0)
(0.122613 0 0)
(0.125189 0 0)
(0.127766 0 0)
(0.130342 0 0)
(0.132918 0 0)
(0.135494 0 0)
(0.138069 0 0)
(0.140644 0 0)
(0.143219 0 0)
(0.145793 0 0)
(0.148367 0 0)
(0.150941 0 0)
(0.153514 0 0)
(0.156087 0 0)
(0.15866 0 0)
(0.161232 0 0)
(0.163804 0 0)
(0.166375 0 0)
(0.168947 0 0)
(0.171517 0 0)
(0.174088 0 0)
(0.176658 0 0)
(0.179227 0 0)
(0.181796 0 0)
(0.184365 0 0)
(0.186933 0 0)
(0.189501 0 0)
(0.192069 0 0)
(0.194636 0 0)
(0.197202 0 0)
(0.199768 0 0)
(0.202334 0 0)
(0.204899 0 0)
(0.207464 0 0)
(0.210028 0 0)
(0.212591 0 0)
(0.215155 0 0)
(0.217717 0 0)
(0.220279 0 0)
(0.222841 0 0)
(0.225402 0 0)
(0.227963 0 0)
(0.230523 0 0)
(0.233082 0 0)
(0.235641 0 0)
(0.2382 0 0)
(0.240758 0 0)
(0.243315 0 0)
(0.245872 0 0)
(0.248428 0 0)
(0.250983 0 0)
(0.253538 0 0)
(0.256092 0 0)
(0.258646 0 0)
(0.261199 0 0)
(0.263752 0 0)
(0.266303 0 0)
(0.268855 0 0)
(0.271405 0 0)
(0.273955 0 0)
(0.276504 0 0)
(0.279053 0 0)
(0.281601 0 0)
(0.284148 0 0)
(0.286694 0 0)
(0.28924 0 0)
(0.291785 0 0)
(0.29433 0 0)
(0.296873 0 0)
(0.299416 0 0)
(0.301959 0 0)
(0.3045 0 0)
(0.307041 0 0)
(0.309581 0 0)
(0.31212 0 0)
(0.314658 0 0)
(0.317196 0 0)
(0.319733 0 0)
(0.322269 0 0)
(0.324804 0 0)
(0.327339 0 0)
(0.329872 0 0)
(0.332405 0 0)
(0.334937 0 0)
(0.337468 0 0)
(0.339999 0 0)
(0.342528 0 0)
(0.345057 0 0)
(0.347584 0 0)
(0.350111 0 0)
(0.352637 0 0)
(0.355162 0 0)
(0.357686 0 0)
(0.360209 0 0)
(0.362732 0 0)
(0.365253 0 0)
(0.367773 0 0)
(0.370293 0 0)
(0.372811 0 0)
(0.375329 0 0)
(0.377846 0 0)
(0.380361 0 0)
(0.382876 0 0)
(0.385389 0 0)
(0.387902 0 0)
(0.390414 0 0)
(0.392924 0 0)
(0.395434 0 0)
(0.397942 0 0)
(0.40045 0 0)
(0.402956 0 0)
(0.405461 0 0)
(0.407965 0 0)
(0.410469 0 0)
(0.412971 0 0)
(0.415471 0 0)
(0.417971 0 0)
(0.42047 0 0)
(0.422967 0 0)
(0.425464 0 0)
(0.427959 0 0)
(0.430453 0 0)
(0.432946 0 0)
(0.435438 0 0)
(0.437928 0 0)
(0.440418 0 0)
(0.442906 0 0)
(0.445393 0 0)
(0.447878 0 0)
(0.450363 0 0)
(0.452846 0 0)
(0.455328 0 0)
(0.457808 0 0)
(0.460287 0 0)
(0.462765 0 0)
(0.465242 0 0)
(0.467718 0 0)
(0.470192 0 0)
(0.472664 0 0)
(0.475136 0 0)
(0.477606 0 0)
(0.480074 0 0)
(0.482541 0 0)
(0.485007 0 0)
(0.487472 0 0)
(0.489935 0 0)
(0.492396 0 0)
(0.494857 0 0)
(0.497315 0 0)
(0.499772 0 0)
(0.502228 0 0)
(0.504682 0 0)
(0.507135 0 0)
(0.509587 0 0)
(0.512036 0 0)
(0.514484 0 0)
(0.516931 0 0)
(0.519376 0 0)
(0.52182 0 0)
(0.524262 0 0)
(0.526702 0 0)
(0.529141 0 0)
(0.531578 0 0)
(0.534013 0 0)
(0.536447 0 0)
(0.538879 0 0)
(0.54131 0 0)
(0.543738 0 0)
(0.546165 0 0)
(0.548591 0 0)
(0.551014 0 0)
(0.553436 0 0)
(0.555856 0 0)
(0.558275 0 0)
(0.560691 0 0)
(0.563106 0 0)
(0.565519 0 0)
(0.56793 0 0)
(0.570339 0 0)
(0.572746 0 0)
(0.575152 0 0)
(0.577555 0 0)
(0.579957 0 0)
(0.582357 0 0)
(0.584755 0 0)
(0.587151 0 0)
(0.589545 0 0)
(0.591936 0 0)
(0.594326 0 0)
(0.596714 0 0)
(0.5991 0 0)
(0.601484 0 0)
(0.603866 0 0)
(0.606245 0 0)
(0.608623 0 0)
(0.610998 0 0)
(0.613372 0 0)
(0.615743 0 0)
(0.618112 0 0)
(0.620478 0 0)
(0.622843 0 0)
(0.625205 0 0)
(0.627565 0 0)
(0.629923 0 0)
(0.632279 0 0)
(0.634632 0 0)
(0.636983 0 0)
(0.639332 0 0)
(0.641678 0 0)
(0.644022 0 0)
(0.646363 0 0)
(0.648702 0 0)
(0.651039 0 0)
(0.653373 0 0)
(0.655704 0 0)
(0.658034 0 0)
(0.66036 0 0)
(0.662684 0 0)
(0.665006 0 0)
(0.667325 0 0)
(0.669641 0 0)
(0.671955 0 0)
(0.674266 0 0)
(0.676574 0 0)
(0.67888 0 0)
(0.681183 0 0)
(0.683483 0 0)
(0.68578 0 0)
(0.688075 0 0)
(0.690366 0 0)
(0.692655 0 0)
(0.694941 0 0)
(0.697225 0 0)
(0.699505 0 0)
(0.701782 0 0)
(0.704056 0 0)
(0.706328 0 0)
(0.708596 0 0)
(0.710861 0 0)
(0.713123 0 0)
(0.715382 0 0)
(0.717638 0 0)
(0.719891 0 0)
(0.72214 0 0)
(0.724387 0 0)
(0.72663 0 0)
(0.72887 0 0)
(0.731106 0 0)
(0.733339 0 0)
(0.735569 0 0)
(0.737795 0 0)
(0.740018 0 0)
(0.742237 0 0)
(0.744453 0 0)
(0.746666 0 0)
(0.748874 0 0)
(0.75108 0 0)
(0.753281 0 0)
(0.755479 0 0)
(0.757673 0 0)
(0.759863 0 0)
(0.76205 0 0)
(0.764233 0 0)
(0.766412 0 0)
(0.768587 0 0)
(0.770758 0 0)
(0.772925 0 0)
(0.775088 0 0)
(0.777247 0 0)
(0.779402 0 0)
(0.781553 0 0)
(0.783699 0 0)
(0.785842 0 0)
(0.78798 0 0)
(0.790114 0 0)
(0.792243 0 0)
(0.794368 0 0)
(0.796489 0 0)
(0.798605 0 0)
(0.800717 0 0)
(0.802824 0 0)
(0.804926 0 0)
(0.807024 0 0)
(0.809117 0 0)
(0.811205 0 0)
(0.813289 0 0)
(0.815367 0 0)
(0.817441 0 0)
(0.819509 0 0)
(0.821573 0 0)
(0.823631 0 0)
(0.825684 0 0)
(0.827732 0 0)
(0.829775 0 0)
(0.831812 0 0)
(0.833844 0 0)
(0.835871 0 0)
(0.837892 0 0)
(0.839907 0 0)
(0.841917 0 0)
(0.843921 0 0)
(0.845919 0 0)
(0.847911 0 0)
(0.849897 0 0)
(0.851878 0 0)
(0.853852 0 0)
(0.85582 0 0)
(0.857782 0 0)
(0.859738 0 0)
(0.861687 0 0)
(0.86363 0 0)
(0.865566 0 0)
(0.867496 0 0)
(0.869418 0 0)
(0.871335 0 0)
(0.873244 0 0)
(0.875146 0 0)
(0.877041 0 0)
(0.878929 0 0)
(0.88081 0 0)
(0.882683 0 0)
(0.884549 0 0)
(0.886407 0 0)
(0.888258 0 0)
(0.890101 0 0)
(0.891936 0 0)
(0.893763 0 0)
(0.895582 0 0)
(0.897393 0 0)
(0.899195 0 0)
(0.900989 0 0)
(0.902775 0 0)
(0.904551 0 0)
(0.906319 0 0)
(0.908078 0 0)
(0.909828 0 0)
(0.911568 0 0)
(0.913299 0 0)
(0.915021 0 0)
(0.916733 0 0)
(0.918435 0 0)
(0.920127 0 0)
(0.921809 0 0)
(0.923481 0 0)
(0.925142 0 0)
(0.926792 0 0)
(0.928432 0 0)
(0.930061 0 0)
(0.931672 0 0)
(0.933359 0 0)
(0.93398 0 0)
(0.947046 0 0)
(0.551647 0 0)
(-0.550298 0 0)
(-0.947003 0 0)
(-0.933981 0 0)
(-0.933357 0 0)
(-0.93167 0 0)
(-0.930059 0 0)
(-0.92843 0 0)
(-0.92679 0 0)
(-0.92514 0 0)
(-0.923479 0 0)
(-0.921807 0 0)
(-0.920125 0 0)
(-0.918433 0 0)
(-0.916731 0 0)
(-0.915019 0 0)
(-0.913297 0 0)
(-0.911566 0 0)
(-0.909826 0 0)
(-0.908076 0 0)
(-0.906317 0 0)
(-0.904549 0 0)
(-0.902773 0 0)
(-0.900987 0 0)
(-0.899193 0 0)
(-0.897391 0 0)
(-0.89558 0 0)
(-0.893761 0 0)
(-0.891934 0 0)
(-0.890099 0 0)
(-0.888256 0 0)
(-0.886405 0 0)
(-0.884547 0 0)
(-0.882681 0 0)
(-0.880808 0 0)
(-0.878927 0 0)
(-0.877039 0 0)
(-0.875144 0 0)
(-0.873241 0 0)
(-0.871332 0 0)
(-0.869416 0 0)
(-0.867493 0 0)
(-0.865564 0 0)
(-0.863627 0 0)
(-0.861685 0 0)
(-0.859735 0 0)
(-0.85778 0 0)
(-0.855818 0 0)
(-0.85385 0 0)
(-0.851875 0 0)
(-0.849895 0 0)
(-0.847909 0 0)
(-0.845916 0 0)
(-0.843918 0 0)
(-0.841914 0 0)
(-0.839905 0 0)
(-0.837889 0 0)
(-0.835868 0 0)
(-0.833842 0 0)
(-0.83181 0 0)
(-0.829772 0 0)
(-0.82773 0 0)
(-0.825682 0 0)
(-0.823629 0 0)
(-0.82157 0 0)
(-0.819507 0 0)
(-0.817438 0 0)
(-0.815365 0 0)
(-0.813286 0 0)
(-0.811203 0 0)
(-0.809115 0 0)
(-0.807022 0 0)
(-0.804924 0 0)
(-0.802822 0 0)
(-0.800714 0 0)
(-0.798603 0 0)
(-0.796487 0 0)
(-0.794366 0 0)
(-0.792241 0 0)
(-0.790111 0 0)
(-0.787978 0 0)
(-0.785839 0 0)
(-0.783697 0 0)
(-0.78155 0 0)
(-0.7794 0 0)
(-0.777245 0 0)
(-0.775086 0 0)
(-0.772923 0 0)
(-0.770755 0 0)
(-0.768584 0 0)
(-0.766409 0 0)
(-0.76423 0 0)
(-0.762048 0 0)
(-0.759861 0 0)
(-0.757671 0 0)
(-0.755477 0 0)
(-0.753279 0 0)
(-0.751077 0 0)
(-0.748872 0 0)
(-0.746663 0 0)
(-0.744451 0 0)
(-0.742235 0 0)
(-0.740016 0 0)
(-0.737793 0 0)
(-0.735566 0 0)
(-0.733337 0 0)
(-0.731104 0 0)
(-0.728867 0 0)
(-0.726627 0 0)
(-0.724384 0 0)
(-0.722138 0 0)
(-0.719889 0 0)
(-0.717636 0 0)
(-0.71538 0 0)
(-0.713121 0 0)
(-0.710859 0 0)
(-0.708594 0 0)
(-0.706325 0 0)
(-0.704054 0 0)
(-0.70178 0 0)
(-0.699503 0 0)
(-0.697222 0 0)
(-0.694939 0 0)
(-0.692653 0 0)
(-0.690364 0 0)
(-0.688072 0 0)
(-0.685778 0 0)
(-0.683481 0 0)
(-0.68118 0 0)
(-0.678877 0 0)
(-0.676572 0 0)
(-0.674264 0 0)
(-0.671953 0 0)
(-0.669639 0 0)
(-0.667323 0 0)
(-0.665004 0 0)
(-0.662682 0 0)
(-0.660358 0 0)
(-0.658031 0 0)
(-0.655702 0 0)
(-0.653371 0 0)
(-0.651037 0 0)
(-0.6487 0 0)
(-0.646361 0 0)
(-0.64402 0 0)
(-0.641676 0 0)
(-0.63933 0 0)
(-0.636981 0 0)
(-0.63463 0 0)
(-0.632277 0 0)
(-0.629921 0 0)
(-0.627563 0 0)
(-0.625203 0 0)
(-0.622841 0 0)
(-0.620477 0 0)
(-0.61811 0 0)
(-0.615741 0 0)
(-0.61337 0 0)
(-0.610996 0 0)
(-0.608621 0 0)
(-0.606243 0 0)
(-0.603864 0 0)
(-0.601482 0 0)
(-0.599098 0 0)
(-0.596712 0 0)
(-0.594325 0 0)
(-0.591935 0 0)
(-0.589543 0 0)
(-0.587149 0 0)
(-0.584753 0 0)
(-0.582355 0 0)
(-0.579955 0 0)
(-0.577554 0 0)
(-0.57515 0 0)
(-0.572745 0 0)
(-0.570337 0 0)
(-0.567928 0 0)
(-0.565517 0 0)
(-0.563104 0 0)
(-0.560689 0 0)
(-0.558273 0 0)
(-0.555855 0 0)
(-0.553434 0 0)
(-0.551013 0 0)
(-0.548589 0 0)
(-0.546164 0 0)
(-0.543737 0 0)
(-0.541308 0 0)
(-0.538878 0 0)
(-0.536445 0 0)
(-0.534012 0 0)
(-0.531576 0 0)
(-0.529139 0 0)
(-0.5267 0 0)
(-0.52426 0 0)
(-0.521818 0 0)
(-0.519375 0 0)
(-0.51693 0 0)
(-0.514483 0 0)
(-0.512035 0 0)
(-0.509585 0 0)
(-0.507134 0 0)
(-0.504681 0 0)
(-0.502227 0 0)
(-0.499771 0 0)
(-0.497314 0 0)
(-0.494855 0 0)
(-0.492395 0 0)
(-0.489933 0 0)
(-0.48747 0 0)
(-0.485006 0 0)
(-0.48254 0 0)
(-0.480073 0 0)
(-0.477604 0 0)
(-0.475134 0 0)
(-0.472663 0 0)
(-0.47019 0 0)
(-0.467716 0 0)
(-0.465241 0 0)
(-0.462764 0 0)
(-0.460286 0 0)
(-0.457807 0 0)
(-0.455326 0 0)
(-0.452844 0 0)
(-0.450361 0 0)
(-0.447877 0 0)
(-0.445391 0 0)
(-0.442905 0 0)
(-0.440416 0 0)
(-0.437927 0 0)
(-0.435437 0 0)
(-0.432945 0 0)
(-0.430452 0 0)
(-0.427958 0 0)
(-0.425463 0 0)
(-0.422966 0 0)
(-0.420469 0 0)
(-0.41797 0 0)
(-0.41547 0 0)
(-0.41297 0 0)
(-0.410468 0 0)
(-0.407964 0 0)
(-0.40546 0 0)
(-0.402955 0 0)
(-0.400449 0 0)
(-0.397941 0 0)
(-0.395433 0 0)
(-0.392923 0 0)
(-0.390413 0 0)
(-0.387901 0 0)
(-0.385389 0 0)
(-0.382875 0 0)
(-0.38036 0 0)
(-0.377845 0 0)
(-0.375328 0 0)
(-0.372811 0 0)
(-0.370292 0 0)
(-0.367773 0 0)
(-0.365252 0 0)
(-0.362731 0 0)
(-0.360209 0 0)
(-0.357685 0 0)
(-0.355161 0 0)
(-0.352636 0 0)
(-0.35011 0 0)
(-0.347584 0 0)
(-0.345056 0 0)
(-0.342527 0 0)
(-0.339998 0 0)
(-0.337468 0 0)
(-0.334936 0 0)
(-0.332405 0 0)
(-0.329872 0 0)
(-0.327338 0 0)
(-0.324804 0 0)
(-0.322268 0 0)
(-0.319732 0 0)
(-0.317195 0 0)
(-0.314658 0 0)
(-0.312119 0 0)
(-0.30958 0 0)
(-0.30704 0 0)
(-0.304499 0 0)
(-0.301958 0 0)
(-0.299416 0 0)
(-0.296873 0 0)
(-0.294329 0 0)
(-0.291785 0 0)
(-0.28924 0 0)
(-0.286694 0 0)
(-0.284147 0 0)
(-0.2816 0 0)
(-0.279052 0 0)
(-0.276504 0 0)
(-0.273955 0 0)
(-0.271405 0 0)
(-0.268854 0 0)
(-0.266303 0 0)
(-0.263751 0 0)
(-0.261199 0 0)
(-0.258646 0 0)
(-0.256092 0 0)
(-0.253538 0 0)
(-0.250983 0 0)
(-0.248427 0 0)
(-0.245871 0 0)
(-0.243314 0 0)
(-0.240757 0 0)
(-0.238199 0 0)
(-0.235641 0 0)
(-0.233082 0 0)
(-0.230522 0 0)
(-0.227962 0 0)
(-0.225402 0 0)
(-0.222841 0 0)
(-0.220279 0 0)
(-0.217717 0 0)
(-0.215154 0 0)
(-0.212591 0 0)
(-0.210027 0 0)
(-0.207463 0 0)
(-0.204899 0 0)
(-0.202334 0 0)
(-0.199768 0 0)
(-0.197202 0 0)
(-0.194635 0 0)
(-0.192068 0 0)
(-0.189501 0 0)
(-0.186933 0 0)
(-0.184365 0 0)
(-0.181796 0 0)
(-0.179227 0 0)
(-0.176657 0 0)
(-0.174087 0 0)
(-0.171517 0 0)
(-0.168946 0 0)
(-0.166375 0 0)
(-0.163804 0 0)
(-0.161232 0 0)
(-0.15866 0 0)
(-0.156087 0 0)
(-0.153514 0 0)
(-0.150941 0 0)
(-0.148367 0 0)
(-0.145793 0 0)
(-0.143219 0 0)
(-0.140644 0 0)
(-0.138069 0 0)
(-0.135494 0 0)
(-0.132918 0 0)
(-0.130342 0 0)
(-0.127766 0 0)
(-0.125189 0 0)
(-0.122613 0 0)
(-0.120035 0 0)
(-0.117458 0 0)
(-0.11488 0 0)
(-0.112303 0 0)
(-0.109724 0 0)
(-0.107146 0 0)
(-0.104567 0 0)
(-0.101989 0 0)
(-0.0994096 0 0)
(-0.0968302 0 0)
(-0.0942507 0 0)
(-0.091671 0 0)
(-0.089091 0 0)
(-0.0865109 0 0)
(-0.0839305 0 0)
(-0.08135 0 0)
(-0.0787693 0 0)
(-0.0761884 0 0)
(-0.0736073 0 0)
(-0.0710261 0 0)
(-0.0684447 0 0)
(-0.0658632 0 0)
(-0.0632815 0 0)
(-0.0606997 0 0)
(-0.0581177 0 0)
(-0.0555356 0 0)
(-0.0529534 0 0)
(-0.0503711 0 0)
(-0.0477886 0 0)
(-0.045206 0 0)
(-0.0426234 0 0)
(-0.0400406 0 0)
(-0.0374578 0 0)
(-0.0348748 0 0)
(-0.0322918 0 0)
(-0.0297088 0 0)
(-0.0271256 0 0)
(-0.0245424 0 0)
(-0.0219591 0 0)
(-0.0193758 0 0)
(-0.0167925 0 0)
(-0.0142091 0 0)
(-0.0116256 0 0)
(-0.0090422 0 0)
(-0.00645873 0 0)
(-0.00387524 0 0)
(-0.00129175 0 0)
)
;

boundaryField
{
    left
    {
        type            fixedValue;
        value           uniform (0 0 0);
    }
    right
    {
        type            fixedValue;
        value           uniform (0 0 0);
    }
    frontBackUpDown
    {
        type            empty;
    }
}


// ************************************************************************* //
