/*--------------------------------*- C++ -*----------------------------------*\
| =========                 |                                                 |
| \\      /  F ield         | OpenFOAM: The Open Source CFD Toolbox           |
|  \\    /   O peration     | Version:  2412                                  |
|   \\  /    A nd           | Website:  www.openfoam.com                      |
|    \\/     M anipulation  |                                                 |
\*---------------------------------------------------------------------------*/
FoamFile
{
    version     2.0;
    format      ascii;
    arch        "LSB;label=32;scalar=64";
    class       volVectorField;
    location    "0.65";
    object      U_0;
}
// * * * * * * * * * * * * * * * * * * * * * * * * * * * * * * * * * * * * * //

dimensions      [0 1 -1 0 0 0 0];

internalField   nonuniform List<vector> 
800
(
(0.0012924 0 0)
(0.00387723 0 0)
(0.00646205 0 0)
(0.00904685 0 0)
(0.0116316 0 0)
(0.0142164 0 0)
(0.0168011 0 0)
(0.0193858 0 0)
(0.0219705 0 0)
(0.0245551 0 0)
(0.0271396 0 0)
(0.0297241 0 0)
(0.0323085 0 0)
(0.0348928 0 0)
(0.0374771 0 0)
(0.0400613 0 0)
(0.0426454 0 0)
(0.0452294 0 0)
(0.0478133 0 0)
(0.050397 0 0)
(0.0529807 0 0)
(0.0555643 0 0)
(0.0581477 0 0)
(0.060731 0 0)
(0.0633142 0 0)
(0.0658972 0 0)
(0.0684801 0 0)
(0.0710628 0 0)
(0.0736453 0 0)
(0.0762277 0 0)
(0.0788099 0 0)
(0.081392 0 0)
(0.0839738 0 0)
(0.0865555 0 0)
(0.089137 0 0)
(0.0917183 0 0)
(0.0942993 0 0)
(0.0968802 0 0)
(0.0994608 0 0)
(0.102041 0 0)
(0.104621 0 0)
(0.107201 0 0)
(0.109781 0 0)
(0.112361 0 0)
(0.11494 0 0)
(0.117519 0 0)
(0.120097 0 0)
(0.122676 0 0)
(0.125254 0 0)
(0.127832 0 0)
(0.130409 0 0)
(0.132986 0 0)
(0.135563 0 0)
(0.13814 0 0)
(0.140716 0 0)
(0.143292 0 0)
(0.145868 0 0)
(0.148443 0 0)
(0.151018 0 0)
(0.153593 0 0)
(0.156167 0 0)
(0.158741 0 0)
(0.161315 0 0)
(0.163888 0 0)
(0.166461 0 0)
(0.169033 0 0)
(0.171605 0 0)
(0.174177 0 0)
(0.176748 0 0)
(0.179319 0 0)
(0.18189 0 0)
(0.18446 0 0)
(0.187029 0 0)
(0.189598 0 0)
(0.192167 0 0)
(0.194735 0 0)
(0.197303 0 0)
(0.199871 0 0)
(0.202437 0 0)
(0.205004 0 0)
(0.20757 0 0)
(0.210135 0 0)
(0.2127 0 0)
(0.215265 0 0)
(0.217829 0 0)
(0.220392 0 0)
(0.222955 0 0)
(0.225517 0 0)
(0.228079 0 0)
(0.230641 0 0)
(0.233201 0 0)
(0.235762 0 0)
(0.238321 0 0)
(0.240881 0 0)
(0.243439 0 0)
(0.245997 0 0)
(0.248554 0 0)
(0.251111 0 0)
(0.253667 0 0)
(0.256223 0 0)
(0.258778 0 0)
(0.261332 0 0)
(0.263886 0 0)
(0.266439 0 0)
(0.268992 0 0)
(0.271543 0 0)
(0.274095 0 0)
(0.276645 0 0)
(0.279195 0 0)
(0.281744 0 0)
(0.284292 0 0)
(0.28684 0 0)
(0.289387 0 0)
(0.291934 0 0)
(0.294479 0 0)
(0.297024 0 0)
(0.299568 0 0)
(0.302112 0 0)
(0.304655 0 0)
(0.307197 0 0)
(0.309738 0 0)
(0.312278 0 0)
(0.314818 0 0)
(0.317357 0 0)
(0.319895 0 0)
(0.322432 0 0)
(0.324969 0 0)
(0.327504 0 0)
(0.330039 0 0)
(0.332573 0 0)
(0.335107 0 0)
(0.337639 0 0)
(0.34017 0 0)
(0.342701 0 0)
(0.345231 0 0)
(0.34776 0 0)
(0.350288 0 0)
(0.352815 0 0)
(0.355341 0 0)
(0.357866 0 0)
(0.360391 0 0)
(0.362914 0 0)
(0.365437 0 0)
(0.367959 0 0)
(0.370479 0 0)
(0.372999 0 0)
(0.375518 0 0)
(0.378035 0 0)
(0.380552 0 0)
(0.383068 0 0)
(0.385583 0 0)
(0.388097 0 0)
(0.390609 0 0)
(0.393121 0 0)
(0.395632 0 0)
(0.398141 0 0)
(0.40065 0 0)
(0.403158 0 0)
(0.405664 0 0)
(0.408169 0 0)
(0.410674 0 0)
(0.413177 0 0)
(0.415679 0 0)
(0.41818 0 0)
(0.42068 0 0)
(0.423178 0 0)
(0.425676 0 0)
(0.428172 0 0)
(0.430668 0 0)
(0.433162 0 0)
(0.435654 0 0)
(0.438146 0 0)
(0.440636 0 0)
(0.443126 0 0)
(0.445614 0 0)
(0.4481 0 0)
(0.450586 0 0)
(0.45307 0 0)
(0.455553 0 0)
(0.458035 0 0)
(0.460515 0 0)
(0.462994 0 0)
(0.465472 0 0)
(0.467949 0 0)
(0.470424 0 0)
(0.472898 0 0)
(0.47537 0 0)
(0.477841 0 0)
(0.480311 0 0)
(0.482779 0 0)
(0.485246 0 0)
(0.487712 0 0)
(0.490176 0 0)
(0.492638 0 0)
(0.4951 0 0)
(0.497559 0 0)
(0.500018 0 0)
(0.502475 0 0)
(0.50493 0 0)
(0.507384 0 0)
(0.509836 0 0)
(0.512287 0 0)
(0.514736 0 0)
(0.517184 0 0)
(0.51963 0 0)
(0.522074 0 0)
(0.524517 0 0)
(0.526959 0 0)
(0.529398 0 0)
(0.531836 0 0)
(0.534273 0 0)
(0.536708 0 0)
(0.539141 0 0)
(0.541572 0 0)
(0.544002 0 0)
(0.54643 0 0)
(0.548856 0 0)
(0.551281 0 0)
(0.553704 0 0)
(0.556125 0 0)
(0.558544 0 0)
(0.560962 0 0)
(0.563377 0 0)
(0.565791 0 0)
(0.568203 0 0)
(0.570613 0 0)
(0.573022 0 0)
(0.575428 0 0)
(0.577833 0 0)
(0.580235 0 0)
(0.582636 0 0)
(0.585035 0 0)
(0.587432 0 0)
(0.589826 0 0)
(0.592219 0 0)
(0.59461 0 0)
(0.596999 0 0)
(0.599386 0 0)
(0.60177 0 0)
(0.604153 0 0)
(0.606533 0 0)
(0.608912 0 0)
(0.611288 0 0)
(0.613662 0 0)
(0.616034 0 0)
(0.618404 0 0)
(0.620772 0 0)
(0.623137 0 0)
(0.6255 0 0)
(0.627861 0 0)
(0.63022 0 0)
(0.632576 0 0)
(0.63493 0 0)
(0.637282 0 0)
(0.639631 0 0)
(0.641978 0 0)
(0.644323 0 0)
(0.646665 0 0)
(0.649005 0 0)
(0.651342 0 0)
(0.653677 0 0)
(0.65601 0 0)
(0.65834 0 0)
(0.660667 0 0)
(0.662992 0 0)
(0.665314 0 0)
(0.667634 0 0)
(0.669951 0 0)
(0.672265 0 0)
(0.674577 0 0)
(0.676886 0 0)
(0.679192 0 0)
(0.681496 0 0)
(0.683797 0 0)
(0.686095 0 0)
(0.68839 0 0)
(0.690682 0 0)
(0.692972 0 0)
(0.695259 0 0)
(0.697542 0 0)
(0.699823 0 0)
(0.702101 0 0)
(0.704376 0 0)
(0.706648 0 0)
(0.708917 0 0)
(0.711183 0 0)
(0.713445 0 0)
(0.715705 0 0)
(0.717962 0 0)
(0.720215 0 0)
(0.722465 0 0)
(0.724712 0 0)
(0.726955 0 0)
(0.729196 0 0)
(0.731433 0 0)
(0.733666 0 0)
(0.735896 0 0)
(0.738123 0 0)
(0.740346 0 0)
(0.742566 0 0)
(0.744783 0 0)
(0.746995 0 0)
(0.749205 0 0)
(0.75141 0 0)
(0.753612 0 0)
(0.75581 0 0)
(0.758005 0 0)
(0.760196 0 0)
(0.762383 0 0)
(0.764566 0 0)
(0.766745 0 0)
(0.768921 0 0)
(0.771092 0 0)
(0.773259 0 0)
(0.775423 0 0)
(0.777582 0 0)
(0.779737 0 0)
(0.781888 0 0)
(0.784035 0 0)
(0.786178 0 0)
(0.788316 0 0)
(0.790451 0 0)
(0.79258 0 0)
(0.794706 0 0)
(0.796826 0 0)
(0.798943 0 0)
(0.801054 0 0)
(0.803162 0 0)
(0.805264 0 0)
(0.807362 0 0)
(0.809455 0 0)
(0.811543 0 0)
(0.813627 0 0)
(0.815705 0 0)
(0.817779 0 0)
(0.819848 0 0)
(0.821911 0 0)
(0.823969 0 0)
(0.826023 0 0)
(0.828071 0 0)
(0.830113 0 0)
(0.83215 0 0)
(0.834182 0 0)
(0.836209 0 0)
(0.83823 0 0)
(0.840245 0 0)
(0.842254 0 0)
(0.844258 0 0)
(0.846256 0 0)
(0.848248 0 0)
(0.850234 0 0)
(0.852215 0 0)
(0.854189 0 0)
(0.856156 0 0)
(0.858118 0 0)
(0.860073 0 0)
(0.862022 0 0)
(0.863965 0 0)
(0.8659 0 0)
(0.86783 0 0)
(0.869752 0 0)
(0.871668 0 0)
(0.873576 0 0)
(0.875478 0 0)
(0.877373 0 0)
(0.87926 0 0)
(0.88114 0 0)
(0.883013 0 0)
(0.884878 0 0)
(0.886736 0 0)
(0.888586 0 0)
(0.890428 0 0)
(0.892263 0 0)
(0.894089 0 0)
(0.895907 0 0)
(0.897717 0 0)
(0.899519 0 0)
(0.901312 0 0)
(0.903096 0 0)
(0.904872 0 0)
(0.906639 0 0)
(0.908397 0 0)
(0.910145 0 0)
(0.911885 0 0)
(0.913615 0 0)
(0.915335 0 0)
(0.917046 0 0)
(0.918747 0 0)
(0.920438 0 0)
(0.922118 0 0)
(0.923788 0 0)
(0.925448 0 0)
(0.927097 0 0)
(0.928735 0 0)
(0.930363 0 0)
(0.931972 0 0)
(0.933659 0 0)
(0.934269 0 0)
(0.947414 0 0)
(0.551991 0 0)
(-0.550642 0 0)
(-0.947371 0 0)
(-0.934271 0 0)
(-0.933657 0 0)
(-0.93197 0 0)
(-0.930361 0 0)
(-0.928734 0 0)
(-0.927096 0 0)
(-0.925446 0 0)
(-0.923787 0 0)
(-0.922116 0 0)
(-0.920436 0 0)
(-0.918745 0 0)
(-0.917044 0 0)
(-0.915333 0 0)
(-0.913613 0 0)
(-0.911883 0 0)
(-0.910143 0 0)
(-0.908395 0 0)
(-0.906637 0 0)
(-0.90487 0 0)
(-0.903094 0 0)
(-0.90131 0 0)
(-0.899517 0 0)
(-0.897715 0 0)
(-0.895905 0 0)
(-0.894087 0 0)
(-0.892261 0 0)
(-0.890426 0 0)
(-0.888584 0 0)
(-0.886734 0 0)
(-0.884876 0 0)
(-0.883011 0 0)
(-0.881138 0 0)
(-0.879258 0 0)
(-0.877371 0 0)
(-0.875476 0 0)
(-0.873574 0 0)
(-0.871666 0 0)
(-0.86975 0 0)
(-0.867827 0 0)
(-0.865898 0 0)
(-0.863962 0 0)
(-0.86202 0 0)
(-0.860071 0 0)
(-0.858116 0 0)
(-0.856154 0 0)
(-0.854186 0 0)
(-0.852212 0 0)
(-0.850232 0 0)
(-0.848246 0 0)
(-0.846254 0 0)
(-0.844256 0 0)
(-0.842252 0 0)
(-0.840242 0 0)
(-0.838227 0 0)
(-0.836206 0 0)
(-0.83418 0 0)
(-0.832148 0 0)
(-0.830111 0 0)
(-0.828068 0 0)
(-0.82602 0 0)
(-0.823967 0 0)
(-0.821909 0 0)
(-0.819845 0 0)
(-0.817777 0 0)
(-0.815703 0 0)
(-0.813624 0 0)
(-0.811541 0 0)
(-0.809453 0 0)
(-0.80736 0 0)
(-0.805262 0 0)
(-0.803159 0 0)
(-0.801052 0 0)
(-0.79894 0 0)
(-0.796824 0 0)
(-0.794703 0 0)
(-0.792578 0 0)
(-0.790448 0 0)
(-0.788314 0 0)
(-0.786176 0 0)
(-0.784033 0 0)
(-0.781886 0 0)
(-0.779735 0 0)
(-0.77758 0 0)
(-0.77542 0 0)
(-0.773257 0 0)
(-0.77109 0 0)
(-0.768918 0 0)
(-0.766743 0 0)
(-0.764564 0 0)
(-0.76238 0 0)
(-0.760193 0 0)
(-0.758003 0 0)
(-0.755808 0 0)
(-0.75361 0 0)
(-0.751408 0 0)
(-0.749202 0 0)
(-0.746993 0 0)
(-0.74478 0 0)
(-0.742564 0 0)
(-0.740344 0 0)
(-0.738121 0 0)
(-0.735894 0 0)
(-0.733664 0 0)
(-0.73143 0 0)
(-0.729193 0 0)
(-0.726953 0 0)
(-0.724709 0 0)
(-0.722463 0 0)
(-0.720213 0 0)
(-0.717959 0 0)
(-0.715703 0 0)
(-0.713443 0 0)
(-0.71118 0 0)
(-0.708915 0 0)
(-0.706646 0 0)
(-0.704374 0 0)
(-0.702099 0 0)
(-0.699821 0 0)
(-0.69754 0 0)
(-0.695256 0 0)
(-0.69297 0 0)
(-0.69068 0 0)
(-0.688388 0 0)
(-0.686093 0 0)
(-0.683794 0 0)
(-0.681494 0 0)
(-0.67919 0 0)
(-0.676884 0 0)
(-0.674575 0 0)
(-0.672263 0 0)
(-0.669949 0 0)
(-0.667632 0 0)
(-0.665312 0 0)
(-0.66299 0 0)
(-0.660665 0 0)
(-0.658338 0 0)
(-0.656008 0 0)
(-0.653675 0 0)
(-0.65134 0 0)
(-0.649003 0 0)
(-0.646663 0 0)
(-0.644321 0 0)
(-0.641976 0 0)
(-0.639629 0 0)
(-0.63728 0 0)
(-0.634928 0 0)
(-0.632574 0 0)
(-0.630218 0 0)
(-0.627859 0 0)
(-0.625498 0 0)
(-0.623135 0 0)
(-0.62077 0 0)
(-0.618402 0 0)
(-0.616032 0 0)
(-0.61366 0 0)
(-0.611286 0 0)
(-0.60891 0 0)
(-0.606532 0 0)
(-0.604151 0 0)
(-0.601768 0 0)
(-0.599384 0 0)
(-0.596997 0 0)
(-0.594608 0 0)
(-0.592217 0 0)
(-0.589825 0 0)
(-0.58743 0 0)
(-0.585033 0 0)
(-0.582634 0 0)
(-0.580234 0 0)
(-0.577831 0 0)
(-0.575426 0 0)
(-0.57302 0 0)
(-0.570612 0 0)
(-0.568202 0 0)
(-0.56579 0 0)
(-0.563376 0 0)
(-0.56096 0 0)
(-0.558543 0 0)
(-0.556123 0 0)
(-0.553702 0 0)
(-0.551279 0 0)
(-0.548855 0 0)
(-0.546428 0 0)
(-0.544 0 0)
(-0.541571 0 0)
(-0.539139 0 0)
(-0.536706 0 0)
(-0.534271 0 0)
(-0.531835 0 0)
(-0.529397 0 0)
(-0.526957 0 0)
(-0.524516 0 0)
(-0.522073 0 0)
(-0.519628 0 0)
(-0.517182 0 0)
(-0.514735 0 0)
(-0.512285 0 0)
(-0.509835 0 0)
(-0.507382 0 0)
(-0.504928 0 0)
(-0.502473 0 0)
(-0.500016 0 0)
(-0.497558 0 0)
(-0.495098 0 0)
(-0.492637 0 0)
(-0.490174 0 0)
(-0.48771 0 0)
(-0.485245 0 0)
(-0.482778 0 0)
(-0.48031 0 0)
(-0.47784 0 0)
(-0.475369 0 0)
(-0.472896 0 0)
(-0.470423 0 0)
(-0.467947 0 0)
(-0.465471 0 0)
(-0.462993 0 0)
(-0.460514 0 0)
(-0.458034 0 0)
(-0.455552 0 0)
(-0.453069 0 0)
(-0.450585 0 0)
(-0.448099 0 0)
(-0.445613 0 0)
(-0.443125 0 0)
(-0.440635 0 0)
(-0.438145 0 0)
(-0.435653 0 0)
(-0.43316 0 0)
(-0.430666 0 0)
(-0.428171 0 0)
(-0.425675 0 0)
(-0.423177 0 0)
(-0.420679 0 0)
(-0.418179 0 0)
(-0.415678 0 0)
(-0.413176 0 0)
(-0.410673 0 0)
(-0.408168 0 0)
(-0.405663 0 0)
(-0.403157 0 0)
(-0.400649 0 0)
(-0.398141 0 0)
(-0.395631 0 0)
(-0.39312 0 0)
(-0.390608 0 0)
(-0.388096 0 0)
(-0.385582 0 0)
(-0.383067 0 0)
(-0.380551 0 0)
(-0.378035 0 0)
(-0.375517 0 0)
(-0.372998 0 0)
(-0.370478 0 0)
(-0.367958 0 0)
(-0.365436 0 0)
(-0.362914 0 0)
(-0.36039 0 0)
(-0.357866 0 0)
(-0.35534 0 0)
(-0.352814 0 0)
(-0.350287 0 0)
(-0.347759 0 0)
(-0.34523 0 0)
(-0.3427 0 0)
(-0.34017 0 0)
(-0.337638 0 0)
(-0.335106 0 0)
(-0.332573 0 0)
(-0.330039 0 0)
(-0.327504 0 0)
(-0.324968 0 0)
(-0.322432 0 0)
(-0.319894 0 0)
(-0.317356 0 0)
(-0.314817 0 0)
(-0.312278 0 0)
(-0.309737 0 0)
(-0.307196 0 0)
(-0.304654 0 0)
(-0.302111 0 0)
(-0.299568 0 0)
(-0.297024 0 0)
(-0.294479 0 0)
(-0.291933 0 0)
(-0.289387 0 0)
(-0.28684 0 0)
(-0.284292 0 0)
(-0.281743 0 0)
(-0.279194 0 0)
(-0.276645 0 0)
(-0.274094 0 0)
(-0.271543 0 0)
(-0.268991 0 0)
(-0.266439 0 0)
(-0.263886 0 0)
(-0.261332 0 0)
(-0.258778 0 0)
(-0.256223 0 0)
(-0.253667 0 0)
(-0.251111 0 0)
(-0.248554 0 0)
(-0.245997 0 0)
(-0.243439 0 0)
(-0.24088 0 0)
(-0.238321 0 0)
(-0.235761 0 0)
(-0.233201 0 0)
(-0.23064 0 0)
(-0.228079 0 0)
(-0.225517 0 0)
(-0.222955 0 0)
(-0.220392 0 0)
(-0.217828 0 0)
(-0.215264 0 0)
(-0.2127 0 0)
(-0.210135 0 0)
(-0.20757 0 0)
(-0.205004 0 0)
(-0.202437 0 0)
(-0.19987 0 0)
(-0.197303 0 0)
(-0.194735 0 0)
(-0.192167 0 0)
(-0.189598 0 0)
(-0.187029 0 0)
(-0.184459 0 0)
(-0.181889 0 0)
(-0.179319 0 0)
(-0.176748 0 0)
(-0.174177 0 0)
(-0.171605 0 0)
(-0.169033 0 0)
(-0.166461 0 0)
(-0.163888 0 0)
(-0.161315 0 0)
(-0.158741 0 0)
(-0.156167 0 0)
(-0.153593 0 0)
(-0.151018 0 0)
(-0.148443 0 0)
(-0.145868 0 0)
(-0.143292 0 0)
(-0.140716 0 0)
(-0.13814 0 0)
(-0.135563 0 0)
(-0.132986 0 0)
(-0.130409 0 0)
(-0.127832 0 0)
(-0.125254 0 0)
(-0.122676 0 0)
(-0.120097 0 0)
(-0.117519 0 0)
(-0.11494 0 0)
(-0.11236 0 0)
(-0.109781 0 0)
(-0.107201 0 0)
(-0.104621 0 0)
(-0.102041 0 0)
(-0.0994608 0 0)
(-0.0968801 0 0)
(-0.0942993 0 0)
(-0.0917182 0 0)
(-0.0891369 0 0)
(-0.0865555 0 0)
(-0.0839738 0 0)
(-0.0813919 0 0)
(-0.0788099 0 0)
(-0.0762277 0 0)
(-0.0736453 0 0)
(-0.0710627 0 0)
(-0.06848 0 0)
(-0.0658972 0 0)
(-0.0633141 0 0)
(-0.060731 0 0)
(-0.0581477 0 0)
(-0.0555643 0 0)
(-0.0529807 0 0)
(-0.050397 0 0)
(-0.0478132 0 0)
(-0.0452294 0 0)
(-0.0426454 0 0)
(-0.0400613 0 0)
(-0.0374771 0 0)
(-0.0348928 0 0)
(-0.0323085 0 0)
(-0.0297241 0 0)
(-0.0271396 0 0)
(-0.0245551 0 0)
(-0.0219705 0 0)
(-0.0193858 0 0)
(-0.0168011 0 0)
(-0.0142164 0 0)
(-0.0116316 0 0)
(-0.00904686 0 0)
(-0.00646206 0 0)
(-0.00387724 0 0)
(-0.00129241 0 0)
)
;

boundaryField
{
    left
    {
        type            fixedValue;
        value           uniform (0 0 0);
    }
    right
    {
        type            fixedValue;
        value           uniform (0 0 0);
    }
    frontBackUpDown
    {
        type            empty;
    }
}


// ************************************************************************* //
