/*--------------------------------*- C++ -*----------------------------------*\
| =========                 |                                                 |
| \\      /  F ield         | OpenFOAM: The Open Source CFD Toolbox           |
|  \\    /   O peration     | Version:  2412                                  |
|   \\  /    A nd           | Website:  www.openfoam.com                      |
|    \\/     M anipulation  |                                                 |
\*---------------------------------------------------------------------------*/
FoamFile
{
    version     2.0;
    format      ascii;
    arch        "LSB;label=32;scalar=64";
    class       volVectorField;
    location    "0.65";
    object      U_0_0;
}
// * * * * * * * * * * * * * * * * * * * * * * * * * * * * * * * * * * * * * //

dimensions      [0 1 -1 0 0 0 0];

internalField   nonuniform List<vector> 
800
(
(0.00129307 0 0)
(0.00387923 0 0)
(0.00646538 0 0)
(0.00905152 0 0)
(0.0116376 0 0)
(0.0142237 0 0)
(0.0168098 0 0)
(0.0193958 0 0)
(0.0219818 0 0)
(0.0245677 0 0)
(0.0271536 0 0)
(0.0297394 0 0)
(0.0323252 0 0)
(0.0349108 0 0)
(0.0374964 0 0)
(0.040082 0 0)
(0.0426674 0 0)
(0.0452527 0 0)
(0.0478379 0 0)
(0.050423 0 0)
(0.0530081 0 0)
(0.0555929 0 0)
(0.0581777 0 0)
(0.0607623 0 0)
(0.0633468 0 0)
(0.0659312 0 0)
(0.0685154 0 0)
(0.0710994 0 0)
(0.0736833 0 0)
(0.076267 0 0)
(0.0788506 0 0)
(0.081434 0 0)
(0.0840171 0 0)
(0.0866001 0 0)
(0.0891829 0 0)
(0.0917655 0 0)
(0.0943479 0 0)
(0.0969301 0 0)
(0.0995121 0 0)
(0.102094 0 0)
(0.104675 0 0)
(0.107257 0 0)
(0.109838 0 0)
(0.112418 0 0)
(0.114999 0 0)
(0.117579 0 0)
(0.120159 0 0)
(0.122739 0 0)
(0.125318 0 0)
(0.127897 0 0)
(0.130476 0 0)
(0.133055 0 0)
(0.135633 0 0)
(0.138211 0 0)
(0.140789 0 0)
(0.143366 0 0)
(0.145943 0 0)
(0.14852 0 0)
(0.151096 0 0)
(0.153672 0 0)
(0.156248 0 0)
(0.158823 0 0)
(0.161398 0 0)
(0.163972 0 0)
(0.166546 0 0)
(0.16912 0 0)
(0.171694 0 0)
(0.174267 0 0)
(0.176839 0 0)
(0.179411 0 0)
(0.181983 0 0)
(0.184554 0 0)
(0.187125 0 0)
(0.189696 0 0)
(0.192266 0 0)
(0.194835 0 0)
(0.197404 0 0)
(0.199973 0 0)
(0.202541 0 0)
(0.205109 0 0)
(0.207676 0 0)
(0.210243 0 0)
(0.212809 0 0)
(0.215375 0 0)
(0.21794 0 0)
(0.220505 0 0)
(0.223069 0 0)
(0.225633 0 0)
(0.228196 0 0)
(0.230759 0 0)
(0.233321 0 0)
(0.235882 0 0)
(0.238443 0 0)
(0.241004 0 0)
(0.243563 0 0)
(0.246123 0 0)
(0.248681 0 0)
(0.251239 0 0)
(0.253797 0 0)
(0.256354 0 0)
(0.25891 0 0)
(0.261466 0 0)
(0.264021 0 0)
(0.266575 0 0)
(0.269129 0 0)
(0.271682 0 0)
(0.274234 0 0)
(0.276786 0 0)
(0.279337 0 0)
(0.281887 0 0)
(0.284437 0 0)
(0.286986 0 0)
(0.289534 0 0)
(0.292082 0 0)
(0.294629 0 0)
(0.297175 0 0)
(0.299721 0 0)
(0.302265 0 0)
(0.304809 0 0)
(0.307352 0 0)
(0.309895 0 0)
(0.312437 0 0)
(0.314978 0 0)
(0.317518 0 0)
(0.320057 0 0)
(0.322596 0 0)
(0.325133 0 0)
(0.32767 0 0)
(0.330206 0 0)
(0.332742 0 0)
(0.335276 0 0)
(0.33781 0 0)
(0.340342 0 0)
(0.342874 0 0)
(0.345405 0 0)
(0.347935 0 0)
(0.350465 0 0)
(0.352993 0 0)
(0.35552 0 0)
(0.358047 0 0)
(0.360573 0 0)
(0.363097 0 0)
(0.365621 0 0)
(0.368144 0 0)
(0.370666 0 0)
(0.373187 0 0)
(0.375707 0 0)
(0.378226 0 0)
(0.380744 0 0)
(0.383261 0 0)
(0.385776 0 0)
(0.388291 0 0)
(0.390805 0 0)
(0.393318 0 0)
(0.39583 0 0)
(0.398341 0 0)
(0.400851 0 0)
(0.403359 0 0)
(0.405867 0 0)
(0.408374 0 0)
(0.410879 0 0)
(0.413383 0 0)
(0.415887 0 0)
(0.418389 0 0)
(0.42089 0 0)
(0.42339 0 0)
(0.425888 0 0)
(0.428386 0 0)
(0.430882 0 0)
(0.433377 0 0)
(0.435871 0 0)
(0.438364 0 0)
(0.440856 0 0)
(0.443346 0 0)
(0.445835 0 0)
(0.448323 0 0)
(0.45081 0 0)
(0.453295 0 0)
(0.455779 0 0)
(0.458262 0 0)
(0.460743 0 0)
(0.463224 0 0)
(0.465703 0 0)
(0.46818 0 0)
(0.470656 0 0)
(0.473131 0 0)
(0.475605 0 0)
(0.478077 0 0)
(0.480548 0 0)
(0.483017 0 0)
(0.485485 0 0)
(0.487952 0 0)
(0.490417 0 0)
(0.492881 0 0)
(0.495343 0 0)
(0.497804 0 0)
(0.500263 0 0)
(0.502721 0 0)
(0.505177 0 0)
(0.507632 0 0)
(0.510086 0 0)
(0.512537 0 0)
(0.514988 0 0)
(0.517436 0 0)
(0.519884 0 0)
(0.522329 0 0)
(0.524773 0 0)
(0.527216 0 0)
(0.529656 0 0)
(0.532095 0 0)
(0.534533 0 0)
(0.536969 0 0)
(0.539403 0 0)
(0.541835 0 0)
(0.544266 0 0)
(0.546695 0 0)
(0.549122 0 0)
(0.551548 0 0)
(0.553972 0 0)
(0.556394 0 0)
(0.558814 0 0)
(0.561233 0 0)
(0.563649 0 0)
(0.566064 0 0)
(0.568477 0 0)
(0.570888 0 0)
(0.573297 0 0)
(0.575705 0 0)
(0.57811 0 0)
(0.580514 0 0)
(0.582915 0 0)
(0.585315 0 0)
(0.587713 0 0)
(0.590108 0 0)
(0.592502 0 0)
(0.594894 0 0)
(0.597284 0 0)
(0.599671 0 0)
(0.602057 0 0)
(0.60444 0 0)
(0.606822 0 0)
(0.609201 0 0)
(0.611578 0 0)
(0.613953 0 0)
(0.616326 0 0)
(0.618697 0 0)
(0.621065 0 0)
(0.623431 0 0)
(0.625796 0 0)
(0.628157 0 0)
(0.630517 0 0)
(0.632874 0 0)
(0.635229 0 0)
(0.637581 0 0)
(0.639932 0 0)
(0.642279 0 0)
(0.644625 0 0)
(0.646968 0 0)
(0.649308 0 0)
(0.651647 0 0)
(0.653982 0 0)
(0.656315 0 0)
(0.658646 0 0)
(0.660974 0 0)
(0.6633 0 0)
(0.665623 0 0)
(0.667943 0 0)
(0.670261 0 0)
(0.672576 0 0)
(0.674888 0 0)
(0.677198 0 0)
(0.679505 0 0)
(0.681809 0 0)
(0.684111 0 0)
(0.68641 0 0)
(0.688706 0 0)
(0.690999 0 0)
(0.693289 0 0)
(0.695576 0 0)
(0.697861 0 0)
(0.700142 0 0)
(0.702421 0 0)
(0.704696 0 0)
(0.706969 0 0)
(0.709238 0 0)
(0.711505 0 0)
(0.713768 0 0)
(0.716028 0 0)
(0.718285 0 0)
(0.720539 0 0)
(0.722789 0 0)
(0.725037 0 0)
(0.727281 0 0)
(0.729522 0 0)
(0.731759 0 0)
(0.733993 0 0)
(0.736224 0 0)
(0.738451 0 0)
(0.740675 0 0)
(0.742895 0 0)
(0.745112 0 0)
(0.747326 0 0)
(0.749535 0 0)
(0.751741 0 0)
(0.753944 0 0)
(0.756142 0 0)
(0.758337 0 0)
(0.760528 0 0)
(0.762716 0 0)
(0.764899 0 0)
(0.767079 0 0)
(0.769255 0 0)
(0.771426 0 0)
(0.773594 0 0)
(0.775758 0 0)
(0.777917 0 0)
(0.780073 0 0)
(0.782224 0 0)
(0.784372 0 0)
(0.786514 0 0)
(0.788653 0 0)
(0.790787 0 0)
(0.792917 0 0)
(0.795043 0 0)
(0.797164 0 0)
(0.79928 0 0)
(0.801392 0 0)
(0.8035 0 0)
(0.805602 0 0)
(0.8077 0 0)
(0.809793 0 0)
(0.811882 0 0)
(0.813965 0 0)
(0.816044 0 0)
(0.818118 0 0)
(0.820186 0 0)
(0.82225 0 0)
(0.824308 0 0)
(0.826361 0 0)
(0.828409 0 0)
(0.830452 0 0)
(0.832489 0 0)
(0.834521 0 0)
(0.836547 0 0)
(0.838568 0 0)
(0.840583 0 0)
(0.842592 0 0)
(0.844596 0 0)
(0.846594 0 0)
(0.848586 0 0)
(0.850572 0 0)
(0.852551 0 0)
(0.854525 0 0)
(0.856493 0 0)
(0.858454 0 0)
(0.860409 0 0)
(0.862358 0 0)
(0.8643 0 0)
(0.866235 0 0)
(0.868164 0 0)
(0.870086 0 0)
(0.872001 0 0)
(0.873909 0 0)
(0.87581 0 0)
(0.877705 0 0)
(0.879591 0 0)
(0.881471 0 0)
(0.883343 0 0)
(0.885208 0 0)
(0.887065 0 0)
(0.888914 0 0)
(0.890756 0 0)
(0.892589 0 0)
(0.894415 0 0)
(0.896232 0 0)
(0.898041 0 0)
(0.899842 0 0)
(0.901634 0 0)
(0.903418 0 0)
(0.905192 0 0)
(0.906958 0 0)
(0.908715 0 0)
(0.910463 0 0)
(0.912201 0 0)
(0.91393 0 0)
(0.915649 0 0)
(0.917359 0 0)
(0.919058 0 0)
(0.920748 0 0)
(0.922427 0 0)
(0.924096 0 0)
(0.925755 0 0)
(0.927402 0 0)
(0.929039 0 0)
(0.930665 0 0)
(0.932272 0 0)
(0.933958 0 0)
(0.934559 0 0)
(0.947781 0 0)
(0.552335 0 0)
(-0.550986 0 0)
(-0.947738 0 0)
(-0.93456 0 0)
(-0.933956 0 0)
(-0.932271 0 0)
(-0.930663 0 0)
(-0.929037 0 0)
(-0.9274 0 0)
(-0.925753 0 0)
(-0.924094 0 0)
(-0.922425 0 0)
(-0.920746 0 0)
(-0.919057 0 0)
(-0.917357 0 0)
(-0.915647 0 0)
(-0.913928 0 0)
(-0.912199 0 0)
(-0.910461 0 0)
(-0.908713 0 0)
(-0.906956 0 0)
(-0.90519 0 0)
(-0.903416 0 0)
(-0.901632 0 0)
(-0.89984 0 0)
(-0.898039 0 0)
(-0.89623 0 0)
(-0.894413 0 0)
(-0.892587 0 0)
(-0.890754 0 0)
(-0.888912 0 0)
(-0.887063 0 0)
(-0.885206 0 0)
(-0.883341 0 0)
(-0.881469 0 0)
(-0.879589 0 0)
(-0.877702 0 0)
(-0.875808 0 0)
(-0.873907 0 0)
(-0.871999 0 0)
(-0.870084 0 0)
(-0.868162 0 0)
(-0.866233 0 0)
(-0.864297 0 0)
(-0.862355 0 0)
(-0.860407 0 0)
(-0.858452 0 0)
(-0.856491 0 0)
(-0.854523 0 0)
(-0.852549 0 0)
(-0.850569 0 0)
(-0.848583 0 0)
(-0.846591 0 0)
(-0.844594 0 0)
(-0.84259 0 0)
(-0.840581 0 0)
(-0.838565 0 0)
(-0.836545 0 0)
(-0.834518 0 0)
(-0.832487 0 0)
(-0.830449 0 0)
(-0.828407 0 0)
(-0.826359 0 0)
(-0.824306 0 0)
(-0.822247 0 0)
(-0.820184 0 0)
(-0.818115 0 0)
(-0.816042 0 0)
(-0.813963 0 0)
(-0.811879 0 0)
(-0.809791 0 0)
(-0.807698 0 0)
(-0.8056 0 0)
(-0.803497 0 0)
(-0.80139 0 0)
(-0.799278 0 0)
(-0.797161 0 0)
(-0.79504 0 0)
(-0.792915 0 0)
(-0.790785 0 0)
(-0.788651 0 0)
(-0.786512 0 0)
(-0.784369 0 0)
(-0.782222 0 0)
(-0.780071 0 0)
(-0.777915 0 0)
(-0.775755 0 0)
(-0.773592 0 0)
(-0.771424 0 0)
(-0.769252 0 0)
(-0.767076 0 0)
(-0.764897 0 0)
(-0.762713 0 0)
(-0.760526 0 0)
(-0.758335 0 0)
(-0.75614 0 0)
(-0.753941 0 0)
(-0.751739 0 0)
(-0.749533 0 0)
(-0.747323 0 0)
(-0.74511 0 0)
(-0.742893 0 0)
(-0.740673 0 0)
(-0.738449 0 0)
(-0.736222 0 0)
(-0.733991 0 0)
(-0.731757 0 0)
(-0.729519 0 0)
(-0.727279 0 0)
(-0.725035 0 0)
(-0.722787 0 0)
(-0.720537 0 0)
(-0.718283 0 0)
(-0.716026 0 0)
(-0.713766 0 0)
(-0.711502 0 0)
(-0.709236 0 0)
(-0.706966 0 0)
(-0.704694 0 0)
(-0.702418 0 0)
(-0.70014 0 0)
(-0.697858 0 0)
(-0.695574 0 0)
(-0.693287 0 0)
(-0.690996 0 0)
(-0.688703 0 0)
(-0.686407 0 0)
(-0.684109 0 0)
(-0.681807 0 0)
(-0.679503 0 0)
(-0.677196 0 0)
(-0.674886 0 0)
(-0.672574 0 0)
(-0.670259 0 0)
(-0.667941 0 0)
(-0.665621 0 0)
(-0.663298 0 0)
(-0.660972 0 0)
(-0.658644 0 0)
(-0.656313 0 0)
(-0.65398 0 0)
(-0.651644 0 0)
(-0.649306 0 0)
(-0.646966 0 0)
(-0.644623 0 0)
(-0.642277 0 0)
(-0.63993 0 0)
(-0.637579 0 0)
(-0.635227 0 0)
(-0.632872 0 0)
(-0.630515 0 0)
(-0.628155 0 0)
(-0.625794 0 0)
(-0.62343 0 0)
(-0.621063 0 0)
(-0.618695 0 0)
(-0.616324 0 0)
(-0.613951 0 0)
(-0.611576 0 0)
(-0.609199 0 0)
(-0.60682 0 0)
(-0.604438 0 0)
(-0.602055 0 0)
(-0.599669 0 0)
(-0.597282 0 0)
(-0.594892 0 0)
(-0.5925 0 0)
(-0.590107 0 0)
(-0.587711 0 0)
(-0.585313 0 0)
(-0.582914 0 0)
(-0.580512 0 0)
(-0.578108 0 0)
(-0.575703 0 0)
(-0.573296 0 0)
(-0.570886 0 0)
(-0.568475 0 0)
(-0.566062 0 0)
(-0.563647 0 0)
(-0.561231 0 0)
(-0.558812 0 0)
(-0.556392 0 0)
(-0.55397 0 0)
(-0.551546 0 0)
(-0.549121 0 0)
(-0.546693 0 0)
(-0.544264 0 0)
(-0.541834 0 0)
(-0.539401 0 0)
(-0.536967 0 0)
(-0.534531 0 0)
(-0.532094 0 0)
(-0.529655 0 0)
(-0.527214 0 0)
(-0.524772 0 0)
(-0.522328 0 0)
(-0.519882 0 0)
(-0.517435 0 0)
(-0.514986 0 0)
(-0.512536 0 0)
(-0.510084 0 0)
(-0.507631 0 0)
(-0.505176 0 0)
(-0.50272 0 0)
(-0.500262 0 0)
(-0.497802 0 0)
(-0.495342 0 0)
(-0.492879 0 0)
(-0.490416 0 0)
(-0.48795 0 0)
(-0.485484 0 0)
(-0.483016 0 0)
(-0.480547 0 0)
(-0.478076 0 0)
(-0.475604 0 0)
(-0.47313 0 0)
(-0.470655 0 0)
(-0.468179 0 0)
(-0.465701 0 0)
(-0.463222 0 0)
(-0.460742 0 0)
(-0.458261 0 0)
(-0.455778 0 0)
(-0.453294 0 0)
(-0.450808 0 0)
(-0.448322 0 0)
(-0.445834 0 0)
(-0.443345 0 0)
(-0.440855 0 0)
(-0.438363 0 0)
(-0.43587 0 0)
(-0.433376 0 0)
(-0.430881 0 0)
(-0.428385 0 0)
(-0.425887 0 0)
(-0.423389 0 0)
(-0.420889 0 0)
(-0.418388 0 0)
(-0.415886 0 0)
(-0.413382 0 0)
(-0.410878 0 0)
(-0.408373 0 0)
(-0.405866 0 0)
(-0.403359 0 0)
(-0.40085 0 0)
(-0.39834 0 0)
(-0.395829 0 0)
(-0.393317 0 0)
(-0.390804 0 0)
(-0.388291 0 0)
(-0.385776 0 0)
(-0.38326 0 0)
(-0.380743 0 0)
(-0.378225 0 0)
(-0.375706 0 0)
(-0.373186 0 0)
(-0.370665 0 0)
(-0.368143 0 0)
(-0.36562 0 0)
(-0.363097 0 0)
(-0.360572 0 0)
(-0.358046 0 0)
(-0.35552 0 0)
(-0.352992 0 0)
(-0.350464 0 0)
(-0.347935 0 0)
(-0.345405 0 0)
(-0.342874 0 0)
(-0.340342 0 0)
(-0.337809 0 0)
(-0.335275 0 0)
(-0.332741 0 0)
(-0.330206 0 0)
(-0.32767 0 0)
(-0.325133 0 0)
(-0.322595 0 0)
(-0.320056 0 0)
(-0.317517 0 0)
(-0.314977 0 0)
(-0.312436 0 0)
(-0.309894 0 0)
(-0.307352 0 0)
(-0.304809 0 0)
(-0.302265 0 0)
(-0.29972 0 0)
(-0.297175 0 0)
(-0.294628 0 0)
(-0.292082 0 0)
(-0.289534 0 0)
(-0.286986 0 0)
(-0.284437 0 0)
(-0.281887 0 0)
(-0.279337 0 0)
(-0.276785 0 0)
(-0.274234 0 0)
(-0.271681 0 0)
(-0.269128 0 0)
(-0.266575 0 0)
(-0.26402 0 0)
(-0.261465 0 0)
(-0.25891 0 0)
(-0.256353 0 0)
(-0.253796 0 0)
(-0.251239 0 0)
(-0.248681 0 0)
(-0.246122 0 0)
(-0.243563 0 0)
(-0.241003 0 0)
(-0.238443 0 0)
(-0.235882 0 0)
(-0.23332 0 0)
(-0.230758 0 0)
(-0.228196 0 0)
(-0.225633 0 0)
(-0.223069 0 0)
(-0.220505 0 0)
(-0.21794 0 0)
(-0.215375 0 0)
(-0.212809 0 0)
(-0.210243 0 0)
(-0.207676 0 0)
(-0.205109 0 0)
(-0.202541 0 0)
(-0.199973 0 0)
(-0.197404 0 0)
(-0.194835 0 0)
(-0.192265 0 0)
(-0.189695 0 0)
(-0.187125 0 0)
(-0.184554 0 0)
(-0.181983 0 0)
(-0.179411 0 0)
(-0.176839 0 0)
(-0.174266 0 0)
(-0.171693 0 0)
(-0.16912 0 0)
(-0.166546 0 0)
(-0.163972 0 0)
(-0.161398 0 0)
(-0.158823 0 0)
(-0.156247 0 0)
(-0.153672 0 0)
(-0.151096 0 0)
(-0.14852 0 0)
(-0.145943 0 0)
(-0.143366 0 0)
(-0.140789 0 0)
(-0.138211 0 0)
(-0.135633 0 0)
(-0.133055 0 0)
(-0.130476 0 0)
(-0.127897 0 0)
(-0.125318 0 0)
(-0.122739 0 0)
(-0.120159 0 0)
(-0.117579 0 0)
(-0.114999 0 0)
(-0.112418 0 0)
(-0.109838 0 0)
(-0.107257 0 0)
(-0.104675 0 0)
(-0.102094 0 0)
(-0.099512 0 0)
(-0.0969301 0 0)
(-0.0943479 0 0)
(-0.0917655 0 0)
(-0.0891829 0 0)
(-0.0866001 0 0)
(-0.0840171 0 0)
(-0.0814339 0 0)
(-0.0788505 0 0)
(-0.076267 0 0)
(-0.0736833 0 0)
(-0.0710994 0 0)
(-0.0685153 0 0)
(-0.0659311 0 0)
(-0.0633468 0 0)
(-0.0607623 0 0)
(-0.0581777 0 0)
(-0.0555929 0 0)
(-0.053008 0 0)
(-0.050423 0 0)
(-0.0478379 0 0)
(-0.0452527 0 0)
(-0.0426674 0 0)
(-0.0400819 0 0)
(-0.0374964 0 0)
(-0.0349108 0 0)
(-0.0323252 0 0)
(-0.0297394 0 0)
(-0.0271536 0 0)
(-0.0245677 0 0)
(-0.0219818 0 0)
(-0.0193958 0 0)
(-0.0168098 0 0)
(-0.0142237 0 0)
(-0.0116377 0 0)
(-0.00905153 0 0)
(-0.0064654 0 0)
(-0.00387924 0 0)
(-0.00129308 0 0)
)
;

boundaryField
{
    left
    {
        type            fixedValue;
        value           uniform (0 0 0);
    }
    right
    {
        type            fixedValue;
        value           uniform (0 0 0);
    }
    frontBackUpDown
    {
        type            empty;
    }
}


// ************************************************************************* //
