/*--------------------------------*- C++ -*----------------------------------*\
| =========                 |                                                 |
| \\      /  F ield         | OpenFOAM: The Open Source CFD Toolbox           |
|  \\    /   O peration     | Version:  2412                                  |
|   \\  /    A nd           | Website:  www.openfoam.com                      |
|    \\/     M anipulation  |                                                 |
\*---------------------------------------------------------------------------*/
FoamFile
{
    version     2.0;
    format      ascii;
    arch        "LSB;label=32;scalar=64";
    class       volVectorField;
    location    "0.67";
    object      U;
}
// * * * * * * * * * * * * * * * * * * * * * * * * * * * * * * * * * * * * * //

dimensions      [0 1 -1 0 0 0 0];

internalField   nonuniform List<vector> 
800
(
(0.00126563 0 0)
(0.00379691 0 0)
(0.00632819 0 0)
(0.00885945 0 0)
(0.0113907 0 0)
(0.0139219 0 0)
(0.0164531 0 0)
(0.0189843 0 0)
(0.0215154 0 0)
(0.0240464 0 0)
(0.0265775 0 0)
(0.0291084 0 0)
(0.0316393 0 0)
(0.0341702 0 0)
(0.0367009 0 0)
(0.0392316 0 0)
(0.0417622 0 0)
(0.0442927 0 0)
(0.0468232 0 0)
(0.0493535 0 0)
(0.0518837 0 0)
(0.0544138 0 0)
(0.0569438 0 0)
(0.0594737 0 0)
(0.0620034 0 0)
(0.0645331 0 0)
(0.0670625 0 0)
(0.0695919 0 0)
(0.0721211 0 0)
(0.0746501 0 0)
(0.077179 0 0)
(0.0797077 0 0)
(0.0822363 0 0)
(0.0847647 0 0)
(0.0872929 0 0)
(0.0898209 0 0)
(0.0923487 0 0)
(0.0948763 0 0)
(0.0974038 0 0)
(0.099931 0 0)
(0.102458 0 0)
(0.104985 0 0)
(0.107511 0 0)
(0.110038 0 0)
(0.112564 0 0)
(0.11509 0 0)
(0.117615 0 0)
(0.120141 0 0)
(0.122666 0 0)
(0.125191 0 0)
(0.127715 0 0)
(0.130239 0 0)
(0.132764 0 0)
(0.135287 0 0)
(0.137811 0 0)
(0.140334 0 0)
(0.142857 0 0)
(0.145379 0 0)
(0.147902 0 0)
(0.150423 0 0)
(0.152945 0 0)
(0.155466 0 0)
(0.157987 0 0)
(0.160508 0 0)
(0.163028 0 0)
(0.165548 0 0)
(0.168068 0 0)
(0.170587 0 0)
(0.173106 0 0)
(0.175624 0 0)
(0.178142 0 0)
(0.18066 0 0)
(0.183177 0 0)
(0.185694 0 0)
(0.18821 0 0)
(0.190726 0 0)
(0.193242 0 0)
(0.195757 0 0)
(0.198272 0 0)
(0.200786 0 0)
(0.2033 0 0)
(0.205814 0 0)
(0.208327 0 0)
(0.210839 0 0)
(0.213351 0 0)
(0.215863 0 0)
(0.218374 0 0)
(0.220885 0 0)
(0.223395 0 0)
(0.225905 0 0)
(0.228414 0 0)
(0.230923 0 0)
(0.233431 0 0)
(0.235938 0 0)
(0.238446 0 0)
(0.240952 0 0)
(0.243458 0 0)
(0.245964 0 0)
(0.248469 0 0)
(0.250973 0 0)
(0.253477 0 0)
(0.25598 0 0)
(0.258483 0 0)
(0.260985 0 0)
(0.263487 0 0)
(0.265987 0 0)
(0.268488 0 0)
(0.270987 0 0)
(0.273487 0 0)
(0.275985 0 0)
(0.278483 0 0)
(0.28098 0 0)
(0.283477 0 0)
(0.285973 0 0)
(0.288468 0 0)
(0.290963 0 0)
(0.293456 0 0)
(0.29595 0 0)
(0.298442 0 0)
(0.300934 0 0)
(0.303425 0 0)
(0.305916 0 0)
(0.308406 0 0)
(0.310895 0 0)
(0.313383 0 0)
(0.315871 0 0)
(0.318358 0 0)
(0.320844 0 0)
(0.323329 0 0)
(0.325814 0 0)
(0.328298 0 0)
(0.330781 0 0)
(0.333263 0 0)
(0.335745 0 0)
(0.338225 0 0)
(0.340705 0 0)
(0.343184 0 0)
(0.345663 0 0)
(0.34814 0 0)
(0.350617 0 0)
(0.353093 0 0)
(0.355568 0 0)
(0.358042 0 0)
(0.360515 0 0)
(0.362987 0 0)
(0.365459 0 0)
(0.367929 0 0)
(0.370399 0 0)
(0.372868 0 0)
(0.375336 0 0)
(0.377803 0 0)
(0.380269 0 0)
(0.382734 0 0)
(0.385198 0 0)
(0.387661 0 0)
(0.390124 0 0)
(0.392585 0 0)
(0.395045 0 0)
(0.397505 0 0)
(0.399963 0 0)
(0.402421 0 0)
(0.404877 0 0)
(0.407332 0 0)
(0.409787 0 0)
(0.41224 0 0)
(0.414692 0 0)
(0.417143 0 0)
(0.419593 0 0)
(0.422042 0 0)
(0.42449 0 0)
(0.426937 0 0)
(0.429383 0 0)
(0.431828 0 0)
(0.434271 0 0)
(0.436714 0 0)
(0.439155 0 0)
(0.441595 0 0)
(0.444034 0 0)
(0.446472 0 0)
(0.448909 0 0)
(0.451345 0 0)
(0.453779 0 0)
(0.456212 0 0)
(0.458644 0 0)
(0.461075 0 0)
(0.463504 0 0)
(0.465933 0 0)
(0.46836 0 0)
(0.470785 0 0)
(0.47321 0 0)
(0.475633 0 0)
(0.478055 0 0)
(0.480476 0 0)
(0.482895 0 0)
(0.485313 0 0)
(0.48773 0 0)
(0.490145 0 0)
(0.492559 0 0)
(0.494972 0 0)
(0.497383 0 0)
(0.499793 0 0)
(0.502201 0 0)
(0.504608 0 0)
(0.507014 0 0)
(0.509418 0 0)
(0.511821 0 0)
(0.514222 0 0)
(0.516622 0 0)
(0.519021 0 0)
(0.521418 0 0)
(0.523813 0 0)
(0.526207 0 0)
(0.528599 0 0)
(0.53099 0 0)
(0.533379 0 0)
(0.535767 0 0)
(0.538153 0 0)
(0.540538 0 0)
(0.542921 0 0)
(0.545303 0 0)
(0.547682 0 0)
(0.550061 0 0)
(0.552437 0 0)
(0.554812 0 0)
(0.557185 0 0)
(0.559557 0 0)
(0.561926 0 0)
(0.564295 0 0)
(0.566661 0 0)
(0.569026 0 0)
(0.571389 0 0)
(0.57375 0 0)
(0.576109 0 0)
(0.578467 0 0)
(0.580822 0 0)
(0.583176 0 0)
(0.585528 0 0)
(0.587879 0 0)
(0.590227 0 0)
(0.592573 0 0)
(0.594918 0 0)
(0.597261 0 0)
(0.599601 0 0)
(0.60194 0 0)
(0.604277 0 0)
(0.606612 0 0)
(0.608945 0 0)
(0.611276 0 0)
(0.613605 0 0)
(0.615931 0 0)
(0.618256 0 0)
(0.620579 0 0)
(0.622899 0 0)
(0.625218 0 0)
(0.627534 0 0)
(0.629848 0 0)
(0.632161 0 0)
(0.63447 0 0)
(0.636778 0 0)
(0.639084 0 0)
(0.641387 0 0)
(0.643688 0 0)
(0.645987 0 0)
(0.648283 0 0)
(0.650577 0 0)
(0.652869 0 0)
(0.655159 0 0)
(0.657446 0 0)
(0.65973 0 0)
(0.662013 0 0)
(0.664293 0 0)
(0.66657 0 0)
(0.668845 0 0)
(0.671118 0 0)
(0.673388 0 0)
(0.675655 0 0)
(0.67792 0 0)
(0.680182 0 0)
(0.682442 0 0)
(0.684699 0 0)
(0.686954 0 0)
(0.689205 0 0)
(0.691455 0 0)
(0.693701 0 0)
(0.695945 0 0)
(0.698186 0 0)
(0.700424 0 0)
(0.702659 0 0)
(0.704892 0 0)
(0.707121 0 0)
(0.709348 0 0)
(0.711572 0 0)
(0.713793 0 0)
(0.716011 0 0)
(0.718226 0 0)
(0.720438 0 0)
(0.722647 0 0)
(0.724853 0 0)
(0.727056 0 0)
(0.729256 0 0)
(0.731452 0 0)
(0.733646 0 0)
(0.735836 0 0)
(0.738023 0 0)
(0.740206 0 0)
(0.742387 0 0)
(0.744564 0 0)
(0.746737 0 0)
(0.748908 0 0)
(0.751074 0 0)
(0.753238 0 0)
(0.755398 0 0)
(0.757554 0 0)
(0.759707 0 0)
(0.761856 0 0)
(0.764002 0 0)
(0.766144 0 0)
(0.768282 0 0)
(0.770416 0 0)
(0.772547 0 0)
(0.774674 0 0)
(0.776797 0 0)
(0.778916 0 0)
(0.781032 0 0)
(0.783143 0 0)
(0.78525 0 0)
(0.787354 0 0)
(0.789453 0 0)
(0.791548 0 0)
(0.793639 0 0)
(0.795725 0 0)
(0.797808 0 0)
(0.799886 0 0)
(0.80196 0 0)
(0.804029 0 0)
(0.806094 0 0)
(0.808155 0 0)
(0.81021 0 0)
(0.812262 0 0)
(0.814309 0 0)
(0.816351 0 0)
(0.818388 0 0)
(0.82042 0 0)
(0.822448 0 0)
(0.824471 0 0)
(0.826489 0 0)
(0.828502 0 0)
(0.830509 0 0)
(0.832512 0 0)
(0.83451 0 0)
(0.836502 0 0)
(0.838489 0 0)
(0.840471 0 0)
(0.842447 0 0)
(0.844417 0 0)
(0.846383 0 0)
(0.848342 0 0)
(0.850296 0 0)
(0.852244 0 0)
(0.854187 0 0)
(0.856123 0 0)
(0.858054 0 0)
(0.859978 0 0)
(0.861896 0 0)
(0.863809 0 0)
(0.865715 0 0)
(0.867614 0 0)
(0.869507 0 0)
(0.871394 0 0)
(0.873274 0 0)
(0.875147 0 0)
(0.877014 0 0)
(0.878874 0 0)
(0.880727 0 0)
(0.882572 0 0)
(0.884411 0 0)
(0.886242 0 0)
(0.888067 0 0)
(0.889883 0 0)
(0.891692 0 0)
(0.893494 0 0)
(0.895288 0 0)
(0.897074 0 0)
(0.898851 0 0)
(0.900621 0 0)
(0.902383 0 0)
(0.904136 0 0)
(0.905881 0 0)
(0.907617 0 0)
(0.909345 0 0)
(0.911064 0 0)
(0.912774 0 0)
(0.914474 0 0)
(0.916166 0 0)
(0.917848 0 0)
(0.919516 0 0)
(0.921231 0 0)
(0.922227 0 0)
(0.932089 0 0)
(0.537759 0 0)
(-0.536424 0 0)
(-0.932033 0 0)
(-0.922229 0 0)
(-0.921229 0 0)
(-0.919515 0 0)
(-0.917846 0 0)
(-0.916164 0 0)
(-0.914472 0 0)
(-0.912772 0 0)
(-0.911062 0 0)
(-0.909343 0 0)
(-0.907615 0 0)
(-0.905879 0 0)
(-0.904134 0 0)
(-0.902381 0 0)
(-0.900619 0 0)
(-0.898849 0 0)
(-0.897071 0 0)
(-0.895286 0 0)
(-0.893492 0 0)
(-0.89169 0 0)
(-0.889881 0 0)
(-0.888064 0 0)
(-0.88624 0 0)
(-0.884409 0 0)
(-0.88257 0 0)
(-0.880724 0 0)
(-0.878872 0 0)
(-0.877012 0 0)
(-0.875145 0 0)
(-0.873272 0 0)
(-0.871392 0 0)
(-0.869505 0 0)
(-0.867612 0 0)
(-0.865712 0 0)
(-0.863806 0 0)
(-0.861894 0 0)
(-0.859976 0 0)
(-0.858051 0 0)
(-0.856121 0 0)
(-0.854184 0 0)
(-0.852242 0 0)
(-0.850294 0 0)
(-0.84834 0 0)
(-0.84638 0 0)
(-0.844415 0 0)
(-0.842444 0 0)
(-0.840468 0 0)
(-0.838487 0 0)
(-0.8365 0 0)
(-0.834507 0 0)
(-0.83251 0 0)
(-0.830507 0 0)
(-0.828499 0 0)
(-0.826486 0 0)
(-0.824469 0 0)
(-0.822446 0 0)
(-0.820418 0 0)
(-0.818385 0 0)
(-0.816348 0 0)
(-0.814306 0 0)
(-0.812259 0 0)
(-0.810208 0 0)
(-0.808152 0 0)
(-0.806092 0 0)
(-0.804027 0 0)
(-0.801957 0 0)
(-0.799884 0 0)
(-0.797805 0 0)
(-0.795723 0 0)
(-0.793636 0 0)
(-0.791545 0 0)
(-0.78945 0 0)
(-0.787351 0 0)
(-0.785248 0 0)
(-0.783141 0 0)
(-0.781029 0 0)
(-0.778914 0 0)
(-0.776795 0 0)
(-0.774672 0 0)
(-0.772545 0 0)
(-0.770414 0 0)
(-0.76828 0 0)
(-0.766141 0 0)
(-0.763999 0 0)
(-0.761854 0 0)
(-0.759705 0 0)
(-0.757552 0 0)
(-0.755395 0 0)
(-0.753235 0 0)
(-0.751072 0 0)
(-0.748905 0 0)
(-0.746735 0 0)
(-0.744561 0 0)
(-0.742384 0 0)
(-0.740204 0 0)
(-0.73802 0 0)
(-0.735833 0 0)
(-0.733643 0 0)
(-0.73145 0 0)
(-0.729253 0 0)
(-0.727054 0 0)
(-0.724851 0 0)
(-0.722645 0 0)
(-0.720436 0 0)
(-0.718224 0 0)
(-0.716009 0 0)
(-0.713791 0 0)
(-0.71157 0 0)
(-0.709346 0 0)
(-0.707119 0 0)
(-0.70489 0 0)
(-0.702657 0 0)
(-0.700422 0 0)
(-0.698183 0 0)
(-0.695943 0 0)
(-0.693699 0 0)
(-0.691452 0 0)
(-0.689203 0 0)
(-0.686951 0 0)
(-0.684697 0 0)
(-0.68244 0 0)
(-0.68018 0 0)
(-0.677918 0 0)
(-0.675653 0 0)
(-0.673385 0 0)
(-0.671115 0 0)
(-0.668843 0 0)
(-0.666568 0 0)
(-0.66429 0 0)
(-0.662011 0 0)
(-0.659728 0 0)
(-0.657444 0 0)
(-0.655156 0 0)
(-0.652867 0 0)
(-0.650575 0 0)
(-0.648281 0 0)
(-0.645985 0 0)
(-0.643686 0 0)
(-0.641385 0 0)
(-0.639082 0 0)
(-0.636776 0 0)
(-0.634468 0 0)
(-0.632159 0 0)
(-0.629847 0 0)
(-0.627532 0 0)
(-0.625216 0 0)
(-0.622897 0 0)
(-0.620577 0 0)
(-0.618254 0 0)
(-0.615929 0 0)
(-0.613603 0 0)
(-0.611274 0 0)
(-0.608943 0 0)
(-0.60661 0 0)
(-0.604275 0 0)
(-0.601938 0 0)
(-0.5996 0 0)
(-0.597259 0 0)
(-0.594916 0 0)
(-0.592572 0 0)
(-0.590225 0 0)
(-0.587877 0 0)
(-0.585527 0 0)
(-0.583174 0 0)
(-0.580821 0 0)
(-0.578465 0 0)
(-0.576107 0 0)
(-0.573748 0 0)
(-0.571387 0 0)
(-0.569024 0 0)
(-0.566659 0 0)
(-0.564293 0 0)
(-0.561925 0 0)
(-0.559555 0 0)
(-0.557183 0 0)
(-0.55481 0 0)
(-0.552435 0 0)
(-0.550059 0 0)
(-0.547681 0 0)
(-0.545301 0 0)
(-0.54292 0 0)
(-0.540537 0 0)
(-0.538152 0 0)
(-0.535766 0 0)
(-0.533378 0 0)
(-0.530989 0 0)
(-0.528598 0 0)
(-0.526205 0 0)
(-0.523811 0 0)
(-0.521416 0 0)
(-0.519019 0 0)
(-0.516621 0 0)
(-0.514221 0 0)
(-0.51182 0 0)
(-0.509417 0 0)
(-0.507012 0 0)
(-0.504607 0 0)
(-0.5022 0 0)
(-0.499791 0 0)
(-0.497381 0 0)
(-0.49497 0 0)
(-0.492558 0 0)
(-0.490144 0 0)
(-0.487728 0 0)
(-0.485312 0 0)
(-0.482894 0 0)
(-0.480474 0 0)
(-0.478054 0 0)
(-0.475632 0 0)
(-0.473209 0 0)
(-0.470784 0 0)
(-0.468358 0 0)
(-0.465931 0 0)
(-0.463503 0 0)
(-0.461074 0 0)
(-0.458643 0 0)
(-0.456211 0 0)
(-0.453778 0 0)
(-0.451343 0 0)
(-0.448908 0 0)
(-0.446471 0 0)
(-0.444033 0 0)
(-0.441594 0 0)
(-0.439154 0 0)
(-0.436713 0 0)
(-0.43427 0 0)
(-0.431827 0 0)
(-0.429382 0 0)
(-0.426936 0 0)
(-0.424489 0 0)
(-0.422041 0 0)
(-0.419592 0 0)
(-0.417142 0 0)
(-0.414691 0 0)
(-0.412239 0 0)
(-0.409786 0 0)
(-0.407331 0 0)
(-0.404876 0 0)
(-0.40242 0 0)
(-0.399962 0 0)
(-0.397504 0 0)
(-0.395045 0 0)
(-0.392584 0 0)
(-0.390123 0 0)
(-0.387661 0 0)
(-0.385197 0 0)
(-0.382733 0 0)
(-0.380268 0 0)
(-0.377802 0 0)
(-0.375335 0 0)
(-0.372867 0 0)
(-0.370398 0 0)
(-0.367929 0 0)
(-0.365458 0 0)
(-0.362987 0 0)
(-0.360514 0 0)
(-0.358041 0 0)
(-0.355567 0 0)
(-0.353092 0 0)
(-0.350616 0 0)
(-0.34814 0 0)
(-0.345662 0 0)
(-0.343184 0 0)
(-0.340705 0 0)
(-0.338225 0 0)
(-0.335744 0 0)
(-0.333262 0 0)
(-0.33078 0 0)
(-0.328297 0 0)
(-0.325813 0 0)
(-0.323329 0 0)
(-0.320843 0 0)
(-0.318357 0 0)
(-0.31587 0 0)
(-0.313383 0 0)
(-0.310894 0 0)
(-0.308405 0 0)
(-0.305915 0 0)
(-0.303425 0 0)
(-0.300934 0 0)
(-0.298442 0 0)
(-0.295949 0 0)
(-0.293456 0 0)
(-0.290962 0 0)
(-0.288467 0 0)
(-0.285972 0 0)
(-0.283476 0 0)
(-0.28098 0 0)
(-0.278482 0 0)
(-0.275985 0 0)
(-0.273486 0 0)
(-0.270987 0 0)
(-0.268487 0 0)
(-0.265987 0 0)
(-0.263486 0 0)
(-0.260985 0 0)
(-0.258482 0 0)
(-0.25598 0 0)
(-0.253477 0 0)
(-0.250973 0 0)
(-0.248468 0 0)
(-0.245963 0 0)
(-0.243458 0 0)
(-0.240952 0 0)
(-0.238445 0 0)
(-0.235938 0 0)
(-0.23343 0 0)
(-0.230922 0 0)
(-0.228414 0 0)
(-0.225904 0 0)
(-0.223395 0 0)
(-0.220885 0 0)
(-0.218374 0 0)
(-0.215863 0 0)
(-0.213351 0 0)
(-0.210839 0 0)
(-0.208326 0 0)
(-0.205813 0 0)
(-0.2033 0 0)
(-0.200786 0 0)
(-0.198272 0 0)
(-0.195757 0 0)
(-0.193242 0 0)
(-0.190726 0 0)
(-0.18821 0 0)
(-0.185694 0 0)
(-0.183177 0 0)
(-0.180659 0 0)
(-0.178142 0 0)
(-0.175624 0 0)
(-0.173105 0 0)
(-0.170587 0 0)
(-0.168067 0 0)
(-0.165548 0 0)
(-0.163028 0 0)
(-0.160508 0 0)
(-0.157987 0 0)
(-0.155466 0 0)
(-0.152945 0 0)
(-0.150423 0 0)
(-0.147901 0 0)
(-0.145379 0 0)
(-0.142857 0 0)
(-0.140334 0 0)
(-0.137811 0 0)
(-0.135287 0 0)
(-0.132763 0 0)
(-0.130239 0 0)
(-0.127715 0 0)
(-0.12519 0 0)
(-0.122666 0 0)
(-0.120141 0 0)
(-0.117615 0 0)
(-0.11509 0 0)
(-0.112564 0 0)
(-0.110038 0 0)
(-0.107511 0 0)
(-0.104985 0 0)
(-0.102458 0 0)
(-0.0999309 0 0)
(-0.0974037 0 0)
(-0.0948763 0 0)
(-0.0923486 0 0)
(-0.0898208 0 0)
(-0.0872928 0 0)
(-0.0847646 0 0)
(-0.0822362 0 0)
(-0.0797077 0 0)
(-0.077179 0 0)
(-0.0746501 0 0)
(-0.072121 0 0)
(-0.0695919 0 0)
(-0.0670625 0 0)
(-0.064533 0 0)
(-0.0620034 0 0)
(-0.0594737 0 0)
(-0.0569438 0 0)
(-0.0544138 0 0)
(-0.0518837 0 0)
(-0.0493535 0 0)
(-0.0468232 0 0)
(-0.0442927 0 0)
(-0.0417622 0 0)
(-0.0392316 0 0)
(-0.0367009 0 0)
(-0.0341702 0 0)
(-0.0316393 0 0)
(-0.0291084 0 0)
(-0.0265775 0 0)
(-0.0240464 0 0)
(-0.0215154 0 0)
(-0.0189843 0 0)
(-0.0164531 0 0)
(-0.0139219 0 0)
(-0.0113907 0 0)
(-0.00885946 0 0)
(-0.0063282 0 0)
(-0.00379692 0 0)
(-0.00126564 0 0)
)
;

boundaryField
{
    left
    {
        type            fixedValue;
        value           uniform (0 0 0);
    }
    right
    {
        type            fixedValue;
        value           uniform (0 0 0);
    }
    frontBackUpDown
    {
        type            empty;
    }
}


// ************************************************************************* //
