/*--------------------------------*- C++ -*----------------------------------*\
| =========                 |                                                 |
| \\      /  F ield         | OpenFOAM: The Open Source CFD Toolbox           |
|  \\    /   O peration     | Version:  2412                                  |
|   \\  /    A nd           | Website:  www.openfoam.com                      |
|    \\/     M anipulation  |                                                 |
\*---------------------------------------------------------------------------*/
FoamFile
{
    version     2.0;
    format      ascii;
    arch        "LSB;label=32;scalar=64";
    class       surfaceScalarField;
    location    "0.75";
    object      phi;
}
// * * * * * * * * * * * * * * * * * * * * * * * * * * * * * * * * * * * * * //

dimensions      [0 3 -1 0 0 0 0];

oriented        oriented;

internalField   nonuniform List<scalar> 
799
(
2.34196e-05
4.68393e-05
7.02589e-05
9.36784e-05
0.000117098
0.000140517
0.000163936
0.000187354
0.000210773
0.000234191
0.000257608
0.000281025
0.000304442
0.000327858
0.000351274
0.000374689
0.000398103
0.000421517
0.00044493
0.000468342
0.000491754
0.000515165
0.000538574
0.000561983
0.000585391
0.000608798
0.000632204
0.000655609
0.000679013
0.000702416
0.000725817
0.000749218
0.000772617
0.000796014
0.000819411
0.000842806
0.000866199
0.000889592
0.000912982
0.000936371
0.000959759
0.000983145
0.00100653
0.00102991
0.00105329
0.00107667
0.00110005
0.00112342
0.0011468
0.00117017
0.00119354
0.00121691
0.00124027
0.00126364
0.001287
0.00131036
0.00133371
0.00135707
0.00138042
0.00140377
0.00142712
0.00145046
0.0014738
0.00149714
0.00152048
0.00154382
0.00156715
0.00159048
0.00161381
0.00163713
0.00166045
0.00168377
0.00170708
0.0017304
0.00175371
0.00177701
0.00180032
0.00182362
0.00184691
0.00187021
0.0018935
0.00191679
0.00194007
0.00196335
0.00198663
0.0020099
0.00203317
0.00205644
0.00207971
0.00210296
0.00212622
0.00214947
0.00217272
0.00219597
0.00221921
0.00224244
0.00226568
0.00228891
0.00231213
0.00233535
0.00235857
0.00238178
0.00240499
0.00242819
0.00245139
0.00247459
0.00249778
0.00252097
0.00254415
0.00256733
0.0025905
0.00261367
0.00263683
0.00265999
0.00268315
0.0027063
0.00272944
0.00275258
0.00277571
0.00279884
0.00282197
0.00284509
0.0028682
0.00289131
0.00291441
0.00293751
0.0029606
0.00298369
0.00300677
0.00302985
0.00305292
0.00307599
0.00309905
0.0031221
0.00314515
0.00316819
0.00319123
0.00321426
0.00323728
0.0032603
0.00328331
0.00330632
0.00332932
0.00335231
0.0033753
0.00339828
0.00342125
0.00344422
0.00346718
0.00349014
0.00351309
0.00353603
0.00355896
0.00358189
0.00360481
0.00362772
0.00365063
0.00367353
0.00369642
0.00371931
0.00374219
0.00376506
0.00378792
0.00381078
0.00383363
0.00385647
0.0038793
0.00390213
0.00392495
0.00394776
0.00397056
0.00399336
0.00401614
0.00403892
0.00406169
0.00408446
0.00410721
0.00412996
0.00415269
0.00417542
0.00419814
0.00422086
0.00424356
0.00426626
0.00428894
0.00431162
0.00433429
0.00435695
0.0043796
0.00440224
0.00442487
0.0044475
0.00447011
0.00449272
0.00451531
0.0045379
0.00456047
0.00458304
0.0046056
0.00462814
0.00465068
0.00467321
0.00469572
0.00471823
0.00474073
0.00476321
0.00478569
0.00480816
0.00483061
0.00485306
0.00487549
0.00489791
0.00492033
0.00494273
0.00496512
0.0049875
0.00500987
0.00503222
0.00505457
0.00507691
0.00509923
0.00512154
0.00514384
0.00516613
0.0051884
0.00521067
0.00523292
0.00525516
0.00527739
0.00529961
0.00532181
0.005344
0.00536618
0.00538835
0.0054105
0.00543264
0.00545477
0.00547688
0.00549898
0.00552107
0.00554315
0.00556521
0.00558726
0.00560929
0.00563131
0.00565332
0.00567531
0.00569729
0.00571925
0.0057412
0.00576314
0.00578506
0.00580697
0.00582886
0.00585074
0.0058726
0.00589445
0.00591628
0.0059381
0.0059599
0.00598169
0.00600346
0.00602521
0.00604695
0.00606868
0.00609038
0.00611208
0.00613375
0.00615541
0.00617705
0.00619868
0.00622028
0.00624188
0.00626345
0.00628501
0.00630655
0.00632807
0.00634957
0.00637106
0.00639253
0.00641398
0.00643541
0.00645682
0.00647822
0.0064996
0.00652096
0.00654229
0.00656361
0.00658492
0.0066062
0.00662746
0.0066487
0.00666992
0.00669113
0.00671231
0.00673347
0.00675461
0.00677573
0.00679683
0.00681791
0.00683897
0.00686
0.00688102
0.00690201
0.00692298
0.00694393
0.00696486
0.00698576
0.00700664
0.0070275
0.00704834
0.00706915
0.00708994
0.0071107
0.00713144
0.00715216
0.00717285
0.00719352
0.00721417
0.00723479
0.00725538
0.00727595
0.00729649
0.00731701
0.0073375
0.00735797
0.0073784
0.00739882
0.0074192
0.00743956
0.00745989
0.00748019
0.00750047
0.00752071
0.00754093
0.00756112
0.00758128
0.00760141
0.00762151
0.00764158
0.00766162
0.00768164
0.00770162
0.00772157
0.00774148
0.00776137
0.00778123
0.00780105
0.00782084
0.0078406
0.00786032
0.00788001
0.00789967
0.00791929
0.00793888
0.00795843
0.00797795
0.00799744
0.00801688
0.00803629
0.00805567
0.00807501
0.00809431
0.00811357
0.00813279
0.00815198
0.00817113
0.00819023
0.0082093
0.00822833
0.00824731
0.00826626
0.00828516
0.00830402
0.00832284
0.00834162
0.00836035
0.00837904
0.00839769
0.00841628
0.00843484
0.00845335
0.00847181
0.00849022
0.00850859
0.00852691
0.00854518
0.0085634
0.00858157
0.00859969
0.00861776
0.00863577
0.00865374
0.00867165
0.00868951
0.00870727
0.00872602
0.0087164
0.00675956
6.43074e-06
-0.00675259
-0.00871588
-0.00872602
-0.00870725
-0.00868948
-0.00867162
-0.00865371
-0.00863575
-0.00861773
-0.00859966
-0.00858154
-0.00856337
-0.00854515
-0.00852688
-0.00850857
-0.0084902
-0.00847178
-0.00845332
-0.00843481
-0.00841626
-0.00839766
-0.00837902
-0.00836033
-0.0083416
-0.00832282
-0.008304
-0.00828514
-0.00826623
-0.00824729
-0.0082283
-0.00820928
-0.00819021
-0.0081711
-0.00815195
-0.00813277
-0.00811354
-0.00809428
-0.00807498
-0.00805564
-0.00803627
-0.00801686
-0.00799741
-0.00797793
-0.00795841
-0.00793886
-0.00791927
-0.00789964
-0.00787999
-0.0078603
-0.00784057
-0.00782081
-0.00780102
-0.0077812
-0.00776135
-0.00774146
-0.00772154
-0.00770159
-0.00768161
-0.0076616
-0.00764156
-0.00762149
-0.00760139
-0.00758125
-0.00756109
-0.00754091
-0.00752069
-0.00750044
-0.00748017
-0.00745986
-0.00743953
-0.00741918
-0.00739879
-0.00737838
-0.00735794
-0.00733748
-0.00731699
-0.00729647
-0.00727593
-0.00725536
-0.00723476
-0.00721414
-0.0071935
-0.00717283
-0.00715214
-0.00713142
-0.00711068
-0.00708992
-0.00706913
-0.00704831
-0.00702748
-0.00700662
-0.00698574
-0.00696484
-0.00694391
-0.00692296
-0.00690199
-0.006881
-0.00685998
-0.00683895
-0.00681789
-0.00679681
-0.00677571
-0.00675459
-0.00673345
-0.00671229
-0.0066911
-0.0066699
-0.00664868
-0.00662744
-0.00660618
-0.00658489
-0.00656359
-0.00654227
-0.00652093
-0.00649958
-0.0064782
-0.0064568
-0.00643539
-0.00641396
-0.00639251
-0.00637104
-0.00634955
-0.00632805
-0.00630653
-0.00628499
-0.00626343
-0.00624186
-0.00622026
-0.00619866
-0.00617703
-0.00615539
-0.00613373
-0.00611206
-0.00609037
-0.00606866
-0.00604694
-0.0060252
-0.00600344
-0.00598167
-0.00595988
-0.00593808
-0.00591626
-0.00589443
-0.00587258
-0.00585072
-0.00582884
-0.00580695
-0.00578504
-0.00576312
-0.00574119
-0.00571924
-0.00569727
-0.00567529
-0.0056533
-0.00563129
-0.00560927
-0.00558724
-0.00556519
-0.00554313
-0.00552106
-0.00549897
-0.00547687
-0.00545475
-0.00543262
-0.00541048
-0.00538833
-0.00536616
-0.00534399
-0.00532179
-0.00529959
-0.00527738
-0.00525515
-0.00523291
-0.00521065
-0.00518839
-0.00516611
-0.00514383
-0.00512153
-0.00509921
-0.00507689
-0.00505456
-0.00503221
-0.00500985
-0.00498748
-0.00496511
-0.00494271
-0.00492031
-0.0048979
-0.00487548
-0.00485304
-0.0048306
-0.00480814
-0.00478568
-0.0047632
-0.00474072
-0.00471822
-0.00469571
-0.00467319
-0.00465067
-0.00462813
-0.00460558
-0.00458303
-0.00456046
-0.00453788
-0.0045153
-0.0044927
-0.0044701
-0.00444749
-0.00442486
-0.00440223
-0.00437959
-0.00435694
-0.00433428
-0.00431161
-0.00428893
-0.00426625
-0.00424355
-0.00422085
-0.00419813
-0.00417541
-0.00415268
-0.00412995
-0.0041072
-0.00408445
-0.00406168
-0.00403891
-0.00401613
-0.00399335
-0.00397055
-0.00394775
-0.00392494
-0.00390212
-0.00387929
-0.00385646
-0.00383362
-0.00381077
-0.00378791
-0.00376505
-0.00374218
-0.0037193
-0.00369642
-0.00367352
-0.00365062
-0.00362772
-0.0036048
-0.00358188
-0.00355895
-0.00353602
-0.00351308
-0.00349013
-0.00346718
-0.00344421
-0.00342125
-0.00339827
-0.00337529
-0.0033523
-0.00332931
-0.00330631
-0.0032833
-0.00326029
-0.00323727
-0.00321425
-0.00319122
-0.00316818
-0.00314514
-0.00312209
-0.00309904
-0.00307598
-0.00305292
-0.00302984
-0.00300677
-0.00298369
-0.0029606
-0.00293751
-0.00291441
-0.0028913
-0.0028682
-0.00284508
-0.00282196
-0.00279884
-0.00277571
-0.00275257
-0.00272944
-0.00270629
-0.00268314
-0.00265999
-0.00263683
-0.00261366
-0.0025905
-0.00256732
-0.00254415
-0.00252096
-0.00249778
-0.00247459
-0.00245139
-0.00242819
-0.00240499
-0.00238178
-0.00235857
-0.00233535
-0.00231213
-0.0022889
-0.00226567
-0.00224244
-0.0022192
-0.00219596
-0.00217272
-0.00214947
-0.00212622
-0.00210296
-0.0020797
-0.00205644
-0.00203317
-0.0020099
-0.00198663
-0.00196335
-0.00194007
-0.00191679
-0.0018935
-0.00187021
-0.00184691
-0.00182362
-0.00180032
-0.00177701
-0.0017537
-0.0017304
-0.00170708
-0.00168377
-0.00166045
-0.00163713
-0.0016138
-0.00159048
-0.00156715
-0.00154381
-0.00152048
-0.00149714
-0.0014738
-0.00145046
-0.00142711
-0.00140377
-0.00138042
-0.00135707
-0.00133371
-0.00131035
-0.001287
-0.00126363
-0.00124027
-0.00121691
-0.00119354
-0.00117017
-0.0011468
-0.00112342
-0.00110005
-0.00107667
-0.00105329
-0.00102991
-0.00100653
-0.000983144
-0.000959758
-0.000936371
-0.000912982
-0.000889591
-0.000866199
-0.000842805
-0.00081941
-0.000796014
-0.000772616
-0.000749217
-0.000725817
-0.000702415
-0.000679013
-0.000655609
-0.000632204
-0.000608798
-0.000585391
-0.000561983
-0.000538574
-0.000515164
-0.000491754
-0.000468342
-0.00044493
-0.000421517
-0.000398103
-0.000374689
-0.000351274
-0.000327858
-0.000304442
-0.000281025
-0.000257608
-0.000234191
-0.000210773
-0.000187354
-0.000163936
-0.000140517
-0.000117098
-9.36785e-05
-7.0259e-05
-4.68394e-05
-2.34197e-05
)
;

boundaryField
{
    left
    {
        type            calculated;
        value           uniform 0;
    }
    right
    {
        type            calculated;
        value           uniform 0;
    }
    frontBackUpDown
    {
        type            empty;
    }
}


// ************************************************************************* //
