/*--------------------------------*- C++ -*----------------------------------*\
| =========                 |                                                 |
| \\      /  F ield         | OpenFOAM: The Open Source CFD Toolbox           |
|  \\    /   O peration     | Version:  2412                                  |
|   \\  /    A nd           | Website:  www.openfoam.com                      |
|    \\/     M anipulation  |                                                 |
\*---------------------------------------------------------------------------*/
FoamFile
{
    version     2.0;
    format      ascii;
    arch        "LSB;label=32;scalar=64";
    class       volVectorField;
    location    "0.75";
    object      U_0_0;
}
// * * * * * * * * * * * * * * * * * * * * * * * * * * * * * * * * * * * * * //

dimensions      [0 1 -1 0 0 0 0];

internalField   nonuniform List<vector> 
800
(
(0.00117207 0 0)
(0.00351623 0 0)
(0.00586039 0 0)
(0.00820454 0 0)
(0.0105487 0 0)
(0.0128928 0 0)
(0.0152369 0 0)
(0.0175809 0 0)
(0.019925 0 0)
(0.022269 0 0)
(0.024613 0 0)
(0.0269569 0 0)
(0.0293008 0 0)
(0.0316446 0 0)
(0.0339884 0 0)
(0.0363321 0 0)
(0.0386758 0 0)
(0.0410194 0 0)
(0.0433629 0 0)
(0.0457064 0 0)
(0.0480497 0 0)
(0.050393 0 0)
(0.0527362 0 0)
(0.0550794 0 0)
(0.0574224 0 0)
(0.0597653 0 0)
(0.0621082 0 0)
(0.0644509 0 0)
(0.0667935 0 0)
(0.0691361 0 0)
(0.0714784 0 0)
(0.0738207 0 0)
(0.0761629 0 0)
(0.0785049 0 0)
(0.0808468 0 0)
(0.0831885 0 0)
(0.0855302 0 0)
(0.0878716 0 0)
(0.090213 0 0)
(0.0925541 0 0)
(0.0948951 0 0)
(0.097236 0 0)
(0.0995767 0 0)
(0.101917 0 0)
(0.104258 0 0)
(0.106598 0 0)
(0.108938 0 0)
(0.111278 0 0)
(0.113617 0 0)
(0.115957 0 0)
(0.118296 0 0)
(0.120635 0 0)
(0.122974 0 0)
(0.125312 0 0)
(0.127651 0 0)
(0.129989 0 0)
(0.132327 0 0)
(0.134665 0 0)
(0.137002 0 0)
(0.139339 0 0)
(0.141676 0 0)
(0.144013 0 0)
(0.14635 0 0)
(0.148686 0 0)
(0.151022 0 0)
(0.153358 0 0)
(0.155693 0 0)
(0.158029 0 0)
(0.160364 0 0)
(0.162698 0 0)
(0.165033 0 0)
(0.167367 0 0)
(0.169701 0 0)
(0.172034 0 0)
(0.174368 0 0)
(0.1767 0 0)
(0.179033 0 0)
(0.181366 0 0)
(0.183698 0 0)
(0.186029 0 0)
(0.188361 0 0)
(0.190692 0 0)
(0.193022 0 0)
(0.195353 0 0)
(0.197683 0 0)
(0.200013 0 0)
(0.202342 0 0)
(0.204671 0 0)
(0.207 0 0)
(0.209328 0 0)
(0.211656 0 0)
(0.213983 0 0)
(0.216311 0 0)
(0.218637 0 0)
(0.220964 0 0)
(0.22329 0 0)
(0.225615 0 0)
(0.227941 0 0)
(0.230266 0 0)
(0.23259 0 0)
(0.234914 0 0)
(0.237238 0 0)
(0.239561 0 0)
(0.241883 0 0)
(0.244206 0 0)
(0.246528 0 0)
(0.248849 0 0)
(0.25117 0 0)
(0.253491 0 0)
(0.255811 0 0)
(0.25813 0 0)
(0.260449 0 0)
(0.262768 0 0)
(0.265086 0 0)
(0.267404 0 0)
(0.269721 0 0)
(0.272038 0 0)
(0.274354 0 0)
(0.27667 0 0)
(0.278986 0 0)
(0.2813 0 0)
(0.283615 0 0)
(0.285928 0 0)
(0.288242 0 0)
(0.290554 0 0)
(0.292866 0 0)
(0.295178 0 0)
(0.297489 0 0)
(0.2998 0 0)
(0.30211 0 0)
(0.304419 0 0)
(0.306728 0 0)
(0.309036 0 0)
(0.311344 0 0)
(0.313651 0 0)
(0.315958 0 0)
(0.318264 0 0)
(0.320569 0 0)
(0.322874 0 0)
(0.325178 0 0)
(0.327482 0 0)
(0.329784 0 0)
(0.332087 0 0)
(0.334388 0 0)
(0.33669 0 0)
(0.33899 0 0)
(0.34129 0 0)
(0.343589 0 0)
(0.345887 0 0)
(0.348185 0 0)
(0.350482 0 0)
(0.352779 0 0)
(0.355075 0 0)
(0.35737 0 0)
(0.359664 0 0)
(0.361958 0 0)
(0.364251 0 0)
(0.366543 0 0)
(0.368835 0 0)
(0.371126 0 0)
(0.373416 0 0)
(0.375706 0 0)
(0.377994 0 0)
(0.380282 0 0)
(0.38257 0 0)
(0.384856 0 0)
(0.387142 0 0)
(0.389427 0 0)
(0.391711 0 0)
(0.393994 0 0)
(0.396277 0 0)
(0.398559 0 0)
(0.40084 0 0)
(0.40312 0 0)
(0.4054 0 0)
(0.407678 0 0)
(0.409956 0 0)
(0.412233 0 0)
(0.414509 0 0)
(0.416784 0 0)
(0.419059 0 0)
(0.421332 0 0)
(0.423605 0 0)
(0.425877 0 0)
(0.428148 0 0)
(0.430418 0 0)
(0.432687 0 0)
(0.434956 0 0)
(0.437223 0 0)
(0.43949 0 0)
(0.441755 0 0)
(0.44402 0 0)
(0.446284 0 0)
(0.448546 0 0)
(0.450808 0 0)
(0.453069 0 0)
(0.455329 0 0)
(0.457588 0 0)
(0.459846 0 0)
(0.462103 0 0)
(0.464359 0 0)
(0.466614 0 0)
(0.468868 0 0)
(0.471121 0 0)
(0.473373 0 0)
(0.475624 0 0)
(0.477874 0 0)
(0.480123 0 0)
(0.482371 0 0)
(0.484618 0 0)
(0.486864 0 0)
(0.489108 0 0)
(0.491352 0 0)
(0.493595 0 0)
(0.495836 0 0)
(0.498076 0 0)
(0.500315 0 0)
(0.502554 0 0)
(0.50479 0 0)
(0.507026 0 0)
(0.509261 0 0)
(0.511494 0 0)
(0.513727 0 0)
(0.515958 0 0)
(0.518188 0 0)
(0.520417 0 0)
(0.522644 0 0)
(0.524871 0 0)
(0.527096 0 0)
(0.52932 0 0)
(0.531542 0 0)
(0.533764 0 0)
(0.535984 0 0)
(0.538203 0 0)
(0.540421 0 0)
(0.542637 0 0)
(0.544852 0 0)
(0.547066 0 0)
(0.549278 0 0)
(0.551489 0 0)
(0.553699 0 0)
(0.555908 0 0)
(0.558115 0 0)
(0.560321 0 0)
(0.562525 0 0)
(0.564728 0 0)
(0.56693 0 0)
(0.56913 0 0)
(0.571329 0 0)
(0.573526 0 0)
(0.575722 0 0)
(0.577916 0 0)
(0.580109 0 0)
(0.582301 0 0)
(0.584491 0 0)
(0.58668 0 0)
(0.588867 0 0)
(0.591052 0 0)
(0.593236 0 0)
(0.595419 0 0)
(0.5976 0 0)
(0.599779 0 0)
(0.601957 0 0)
(0.604133 0 0)
(0.606308 0 0)
(0.608481 0 0)
(0.610652 0 0)
(0.612822 0 0)
(0.61499 0 0)
(0.617157 0 0)
(0.619322 0 0)
(0.621485 0 0)
(0.623646 0 0)
(0.625806 0 0)
(0.627964 0 0)
(0.63012 0 0)
(0.632275 0 0)
(0.634427 0 0)
(0.636578 0 0)
(0.638727 0 0)
(0.640875 0 0)
(0.64302 0 0)
(0.645164 0 0)
(0.647306 0 0)
(0.649446 0 0)
(0.651584 0 0)
(0.65372 0 0)
(0.655854 0 0)
(0.657987 0 0)
(0.660117 0 0)
(0.662246 0 0)
(0.664372 0 0)
(0.666497 0 0)
(0.668619 0 0)
(0.67074 0 0)
(0.672858 0 0)
(0.674974 0 0)
(0.677089 0 0)
(0.679201 0 0)
(0.681311 0 0)
(0.683419 0 0)
(0.685525 0 0)
(0.687629 0 0)
(0.68973 0 0)
(0.69183 0 0)
(0.693927 0 0)
(0.696022 0 0)
(0.698114 0 0)
(0.700205 0 0)
(0.702293 0 0)
(0.704379 0 0)
(0.706462 0 0)
(0.708543 0 0)
(0.710622 0 0)
(0.712698 0 0)
(0.714772 0 0)
(0.716844 0 0)
(0.718913 0 0)
(0.72098 0 0)
(0.723044 0 0)
(0.725105 0 0)
(0.727164 0 0)
(0.729221 0 0)
(0.731275 0 0)
(0.733326 0 0)
(0.735375 0 0)
(0.737421 0 0)
(0.739465 0 0)
(0.741505 0 0)
(0.743543 0 0)
(0.745578 0 0)
(0.747611 0 0)
(0.749641 0 0)
(0.751667 0 0)
(0.753691 0 0)
(0.755713 0 0)
(0.757731 0 0)
(0.759746 0 0)
(0.761758 0 0)
(0.763768 0 0)
(0.765774 0 0)
(0.767778 0 0)
(0.769778 0 0)
(0.771775 0 0)
(0.773769 0 0)
(0.77576 0 0)
(0.777747 0 0)
(0.779732 0 0)
(0.781713 0 0)
(0.783691 0 0)
(0.785666 0 0)
(0.787637 0 0)
(0.789605 0 0)
(0.791569 0 0)
(0.79353 0 0)
(0.795488 0 0)
(0.797442 0 0)
(0.799393 0 0)
(0.801339 0 0)
(0.803283 0 0)
(0.805222 0 0)
(0.807158 0 0)
(0.80909 0 0)
(0.811019 0 0)
(0.812943 0 0)
(0.814864 0 0)
(0.816781 0 0)
(0.818694 0 0)
(0.820603 0 0)
(0.822508 0 0)
(0.824408 0 0)
(0.826305 0 0)
(0.828198 0 0)
(0.830086 0 0)
(0.83197 0 0)
(0.83385 0 0)
(0.835725 0 0)
(0.837596 0 0)
(0.839463 0 0)
(0.841325 0 0)
(0.843182 0 0)
(0.845035 0 0)
(0.846884 0 0)
(0.848727 0 0)
(0.850566 0 0)
(0.8524 0 0)
(0.854229 0 0)
(0.856053 0 0)
(0.857872 0 0)
(0.859686 0 0)
(0.861495 0 0)
(0.863299 0 0)
(0.865098 0 0)
(0.866891 0 0)
(0.868679 0 0)
(0.870461 0 0)
(0.872231 0 0)
(0.874204 0 0)
(0.870477 0 0)
(0.482902 0 0)
(-0.481615 0 0)
(-0.87037 0 0)
(-0.874207 0 0)
(-0.872228 0 0)
(-0.870459 0 0)
(-0.868677 0 0)
(-0.866889 0 0)
(-0.865095 0 0)
(-0.863297 0 0)
(-0.861493 0 0)
(-0.859684 0 0)
(-0.85787 0 0)
(-0.856051 0 0)
(-0.854227 0 0)
(-0.852398 0 0)
(-0.850564 0 0)
(-0.848725 0 0)
(-0.846881 0 0)
(-0.845033 0 0)
(-0.84318 0 0)
(-0.841322 0 0)
(-0.83946 0 0)
(-0.837594 0 0)
(-0.835723 0 0)
(-0.833847 0 0)
(-0.831968 0 0)
(-0.830084 0 0)
(-0.828195 0 0)
(-0.826303 0 0)
(-0.824406 0 0)
(-0.822505 0 0)
(-0.8206 0 0)
(-0.818691 0 0)
(-0.816779 0 0)
(-0.814862 0 0)
(-0.812941 0 0)
(-0.811016 0 0)
(-0.809088 0 0)
(-0.807156 0 0)
(-0.80522 0 0)
(-0.80328 0 0)
(-0.801337 0 0)
(-0.79939 0 0)
(-0.79744 0 0)
(-0.795486 0 0)
(-0.793528 0 0)
(-0.791567 0 0)
(-0.789603 0 0)
(-0.787635 0 0)
(-0.785663 0 0)
(-0.783689 0 0)
(-0.781711 0 0)
(-0.77973 0 0)
(-0.777745 0 0)
(-0.775757 0 0)
(-0.773767 0 0)
(-0.771773 0 0)
(-0.769775 0 0)
(-0.767775 0 0)
(-0.765772 0 0)
(-0.763765 0 0)
(-0.761756 0 0)
(-0.759744 0 0)
(-0.757728 0 0)
(-0.75571 0 0)
(-0.753689 0 0)
(-0.751665 0 0)
(-0.749638 0 0)
(-0.747609 0 0)
(-0.745576 0 0)
(-0.743541 0 0)
(-0.741503 0 0)
(-0.739462 0 0)
(-0.737419 0 0)
(-0.735373 0 0)
(-0.733324 0 0)
(-0.731273 0 0)
(-0.729219 0 0)
(-0.727162 0 0)
(-0.725103 0 0)
(-0.723041 0 0)
(-0.720977 0 0)
(-0.718911 0 0)
(-0.716842 0 0)
(-0.71477 0 0)
(-0.712696 0 0)
(-0.71062 0 0)
(-0.708541 0 0)
(-0.70646 0 0)
(-0.704376 0 0)
(-0.702291 0 0)
(-0.700203 0 0)
(-0.698112 0 0)
(-0.696019 0 0)
(-0.693925 0 0)
(-0.691827 0 0)
(-0.689728 0 0)
(-0.687627 0 0)
(-0.685523 0 0)
(-0.683417 0 0)
(-0.681309 0 0)
(-0.679199 0 0)
(-0.677087 0 0)
(-0.674972 0 0)
(-0.672856 0 0)
(-0.670738 0 0)
(-0.668617 0 0)
(-0.666495 0 0)
(-0.66437 0 0)
(-0.662244 0 0)
(-0.660115 0 0)
(-0.657985 0 0)
(-0.655852 0 0)
(-0.653718 0 0)
(-0.651582 0 0)
(-0.649444 0 0)
(-0.647304 0 0)
(-0.645162 0 0)
(-0.643018 0 0)
(-0.640873 0 0)
(-0.638725 0 0)
(-0.636576 0 0)
(-0.634425 0 0)
(-0.632273 0 0)
(-0.630118 0 0)
(-0.627962 0 0)
(-0.625804 0 0)
(-0.623644 0 0)
(-0.621483 0 0)
(-0.61932 0 0)
(-0.617155 0 0)
(-0.614988 0 0)
(-0.61282 0 0)
(-0.61065 0 0)
(-0.608479 0 0)
(-0.606306 0 0)
(-0.604131 0 0)
(-0.601955 0 0)
(-0.599777 0 0)
(-0.597598 0 0)
(-0.595417 0 0)
(-0.593235 0 0)
(-0.59105 0 0)
(-0.588865 0 0)
(-0.586678 0 0)
(-0.584489 0 0)
(-0.582299 0 0)
(-0.580108 0 0)
(-0.577915 0 0)
(-0.57572 0 0)
(-0.573524 0 0)
(-0.571327 0 0)
(-0.569128 0 0)
(-0.566928 0 0)
(-0.564726 0 0)
(-0.562523 0 0)
(-0.560319 0 0)
(-0.558113 0 0)
(-0.555906 0 0)
(-0.553698 0 0)
(-0.551488 0 0)
(-0.549277 0 0)
(-0.547064 0 0)
(-0.544851 0 0)
(-0.542635 0 0)
(-0.540419 0 0)
(-0.538201 0 0)
(-0.535982 0 0)
(-0.533762 0 0)
(-0.531541 0 0)
(-0.529318 0 0)
(-0.527094 0 0)
(-0.524869 0 0)
(-0.522643 0 0)
(-0.520415 0 0)
(-0.518186 0 0)
(-0.515956 0 0)
(-0.513725 0 0)
(-0.511493 0 0)
(-0.509259 0 0)
(-0.507025 0 0)
(-0.504789 0 0)
(-0.502552 0 0)
(-0.500314 0 0)
(-0.498075 0 0)
(-0.495835 0 0)
(-0.493593 0 0)
(-0.491351 0 0)
(-0.489107 0 0)
(-0.486862 0 0)
(-0.484617 0 0)
(-0.48237 0 0)
(-0.480122 0 0)
(-0.477873 0 0)
(-0.475623 0 0)
(-0.473372 0 0)
(-0.47112 0 0)
(-0.468867 0 0)
(-0.466613 0 0)
(-0.464358 0 0)
(-0.462102 0 0)
(-0.459845 0 0)
(-0.457587 0 0)
(-0.455328 0 0)
(-0.453068 0 0)
(-0.450807 0 0)
(-0.448545 0 0)
(-0.446282 0 0)
(-0.444019 0 0)
(-0.441754 0 0)
(-0.439488 0 0)
(-0.437222 0 0)
(-0.434955 0 0)
(-0.432686 0 0)
(-0.430417 0 0)
(-0.428147 0 0)
(-0.425876 0 0)
(-0.423604 0 0)
(-0.421331 0 0)
(-0.419058 0 0)
(-0.416783 0 0)
(-0.414508 0 0)
(-0.412232 0 0)
(-0.409955 0 0)
(-0.407677 0 0)
(-0.405399 0 0)
(-0.403119 0 0)
(-0.400839 0 0)
(-0.398558 0 0)
(-0.396276 0 0)
(-0.393993 0 0)
(-0.39171 0 0)
(-0.389426 0 0)
(-0.387141 0 0)
(-0.384855 0 0)
(-0.382569 0 0)
(-0.380281 0 0)
(-0.377993 0 0)
(-0.375705 0 0)
(-0.373415 0 0)
(-0.371125 0 0)
(-0.368834 0 0)
(-0.366543 0 0)
(-0.36425 0 0)
(-0.361957 0 0)
(-0.359663 0 0)
(-0.357369 0 0)
(-0.355074 0 0)
(-0.352778 0 0)
(-0.350482 0 0)
(-0.348185 0 0)
(-0.345887 0 0)
(-0.343588 0 0)
(-0.341289 0 0)
(-0.338989 0 0)
(-0.336689 0 0)
(-0.334388 0 0)
(-0.332086 0 0)
(-0.329784 0 0)
(-0.327481 0 0)
(-0.325177 0 0)
(-0.322873 0 0)
(-0.320568 0 0)
(-0.318263 0 0)
(-0.315957 0 0)
(-0.313651 0 0)
(-0.311343 0 0)
(-0.309036 0 0)
(-0.306727 0 0)
(-0.304419 0 0)
(-0.302109 0 0)
(-0.299799 0 0)
(-0.297489 0 0)
(-0.295178 0 0)
(-0.292866 0 0)
(-0.290554 0 0)
(-0.288241 0 0)
(-0.285928 0 0)
(-0.283614 0 0)
(-0.2813 0 0)
(-0.278985 0 0)
(-0.27667 0 0)
(-0.274354 0 0)
(-0.272038 0 0)
(-0.269721 0 0)
(-0.267404 0 0)
(-0.265086 0 0)
(-0.262768 0 0)
(-0.260449 0 0)
(-0.25813 0 0)
(-0.25581 0 0)
(-0.25349 0 0)
(-0.25117 0 0)
(-0.248849 0 0)
(-0.246527 0 0)
(-0.244205 0 0)
(-0.241883 0 0)
(-0.23956 0 0)
(-0.237237 0 0)
(-0.234914 0 0)
(-0.23259 0 0)
(-0.230265 0 0)
(-0.22794 0 0)
(-0.225615 0 0)
(-0.22329 0 0)
(-0.220963 0 0)
(-0.218637 0 0)
(-0.21631 0 0)
(-0.213983 0 0)
(-0.211656 0 0)
(-0.209328 0 0)
(-0.206999 0 0)
(-0.204671 0 0)
(-0.202342 0 0)
(-0.200012 0 0)
(-0.197683 0 0)
(-0.195353 0 0)
(-0.193022 0 0)
(-0.190691 0 0)
(-0.18836 0 0)
(-0.186029 0 0)
(-0.183697 0 0)
(-0.181365 0 0)
(-0.179033 0 0)
(-0.1767 0 0)
(-0.174367 0 0)
(-0.172034 0 0)
(-0.169701 0 0)
(-0.167367 0 0)
(-0.165033 0 0)
(-0.162698 0 0)
(-0.160363 0 0)
(-0.158028 0 0)
(-0.155693 0 0)
(-0.153358 0 0)
(-0.151022 0 0)
(-0.148686 0 0)
(-0.14635 0 0)
(-0.144013 0 0)
(-0.141676 0 0)
(-0.139339 0 0)
(-0.137002 0 0)
(-0.134664 0 0)
(-0.132327 0 0)
(-0.129989 0 0)
(-0.127651 0 0)
(-0.125312 0 0)
(-0.122974 0 0)
(-0.120635 0 0)
(-0.118296 0 0)
(-0.115956 0 0)
(-0.113617 0 0)
(-0.111277 0 0)
(-0.108938 0 0)
(-0.106598 0 0)
(-0.104257 0 0)
(-0.101917 0 0)
(-0.0995766 0 0)
(-0.0972359 0 0)
(-0.0948951 0 0)
(-0.0925541 0 0)
(-0.0902129 0 0)
(-0.0878716 0 0)
(-0.0855301 0 0)
(-0.0831885 0 0)
(-0.0808467 0 0)
(-0.0785049 0 0)
(-0.0761628 0 0)
(-0.0738207 0 0)
(-0.0714784 0 0)
(-0.069136 0 0)
(-0.0667935 0 0)
(-0.0644509 0 0)
(-0.0621082 0 0)
(-0.0597653 0 0)
(-0.0574224 0 0)
(-0.0550794 0 0)
(-0.0527362 0 0)
(-0.050393 0 0)
(-0.0480497 0 0)
(-0.0457063 0 0)
(-0.0433629 0 0)
(-0.0410194 0 0)
(-0.0386758 0 0)
(-0.0363321 0 0)
(-0.0339884 0 0)
(-0.0316446 0 0)
(-0.0293008 0 0)
(-0.0269569 0 0)
(-0.024613 0 0)
(-0.022269 0 0)
(-0.019925 0 0)
(-0.017581 0 0)
(-0.0152369 0 0)
(-0.0128928 0 0)
(-0.0105487 0 0)
(-0.00820455 0 0)
(-0.0058604 0 0)
(-0.00351624 0 0)
(-0.00117208 0 0)
)
;

boundaryField
{
    left
    {
        type            fixedValue;
        value           uniform (0 0 0);
    }
    right
    {
        type            fixedValue;
        value           uniform (0 0 0);
    }
    frontBackUpDown
    {
        type            empty;
    }
}


// ************************************************************************* //
