/*--------------------------------*- C++ -*----------------------------------*\
| =========                 |                                                 |
| \\      /  F ield         | OpenFOAM: The Open Source CFD Toolbox           |
|  \\    /   O peration     | Version:  2412                                  |
|   \\  /    A nd           | Website:  www.openfoam.com                      |
|    \\/     M anipulation  |                                                 |
\*---------------------------------------------------------------------------*/
FoamFile
{
    version     2.0;
    format      ascii;
    arch        "LSB;label=32;scalar=64";
    class       surfaceScalarField;
    location    "0.21";
    object      phi;
}
// * * * * * * * * * * * * * * * * * * * * * * * * * * * * * * * * * * * * * //

dimensions      [0 3 -1 0 0 0 0];

oriented        oriented;

internalField   nonuniform List<scalar> 
799
(
4.7316e-05
9.46317e-05
0.000141946
0.000189259
0.000236569
0.000283876
0.000331179
0.000378477
0.00042577
0.000473058
0.000520339
0.000567613
0.000614879
0.000662137
0.000709386
0.000756626
0.000803855
0.000851073
0.000898279
0.000945473
0.000992655
0.00103982
0.00108698
0.00113411
0.00118124
0.00122834
0.00127543
0.00132251
0.00136956
0.0014166
0.00146361
0.00151061
0.00155759
0.00160454
0.00165147
0.00169838
0.00174527
0.00179213
0.00183897
0.00188578
0.00193256
0.00197932
0.00202605
0.00207275
0.00211943
0.00216607
0.00221269
0.00225927
0.00230582
0.00235234
0.00239883
0.00244528
0.0024917
0.00253808
0.00258443
0.00263074
0.00267701
0.00272325
0.00276945
0.0028156
0.00286172
0.0029078
0.00295383
0.00299983
0.00304578
0.00309168
0.00313754
0.00318336
0.00322913
0.00327486
0.00332053
0.00336616
0.00341174
0.00345727
0.00350275
0.00354818
0.00359355
0.00363887
0.00368414
0.00372936
0.00377452
0.00381962
0.00386467
0.00390966
0.00395459
0.00399946
0.00404427
0.00408903
0.00413371
0.00417834
0.00422291
0.00426741
0.00431184
0.00435621
0.00440051
0.00444475
0.00448891
0.00453301
0.00457704
0.00462099
0.00466488
0.00470869
0.00475242
0.00479609
0.00483967
0.00488319
0.00492662
0.00496997
0.00501325
0.00505645
0.00509956
0.00514259
0.00518554
0.00522841
0.00527119
0.00531389
0.0053565
0.00539902
0.00544145
0.00548379
0.00552604
0.0055682
0.00561026
0.00565224
0.00569411
0.00573589
0.00577758
0.00581916
0.00586065
0.00590203
0.00594332
0.0059845
0.00602557
0.00606655
0.00610741
0.00614817
0.00618882
0.00622936
0.00626979
0.00631011
0.00635032
0.00639041
0.00643039
0.00647024
0.00650999
0.00654961
0.00658911
0.00662849
0.00666774
0.00670688
0.00674588
0.00678476
0.00682351
0.00686213
0.00690062
0.00693898
0.0069772
0.00701529
0.00705324
0.00709106
0.00712873
0.00716626
0.00720365
0.0072409
0.007278
0.00731495
0.00735176
0.00738841
0.00742491
0.00746126
0.00749746
0.00753349
0.00756937
0.00760509
0.00764065
0.00767604
0.00771127
0.00774633
0.00778123
0.00781595
0.0078505
0.00788488
0.00791908
0.00795311
0.00798695
0.00802061
0.00805409
0.00808738
0.00812049
0.00815341
0.00818613
0.00821867
0.008251
0.00828314
0.00831508
0.00834682
0.00837835
0.00840967
0.00844079
0.0084717
0.00850239
0.00853287
0.00856313
0.00859317
0.00862299
0.00865258
0.00868194
0.00871108
0.00873998
0.00876864
0.00879707
0.00882525
0.0088532
0.00888089
0.00890834
0.00893554
0.00896248
0.00898916
0.00901559
0.00904175
0.00906764
0.00909326
0.00911861
0.00914369
0.00916848
0.00919299
0.00921722
0.00924116
0.0092648
0.00928815
0.0093112
0.00933394
0.00935638
0.00937851
0.00940032
0.00942182
0.00944299
0.00946384
0.00948435
0.00950453
0.00952438
0.00954388
0.00956303
0.00958184
0.00960028
0.00961837
0.00963609
0.00965344
0.00967042
0.00968702
0.00970323
0.00971906
0.00973449
0.00974952
0.00976415
0.00977836
0.00979216
0.00980554
0.0098185
0.00983102
0.0098431
0.00985473
0.00986592
0.00987665
0.00988691
0.00989671
0.00990602
0.00991486
0.0099232
0.00993105
0.00993839
0.00994522
0.00995153
0.00995731
0.00996256
0.00996727
0.00997142
0.00997501
0.00997804
0.00998049
0.00998236
0.00998363
0.0099843
0.00998435
0.00998378
0.00998258
0.00998074
0.00997824
0.00997508
0.00997125
0.00996673
0.00996152
0.00995559
0.00994895
0.00994157
0.00993345
0.00992457
0.00991493
0.00990449
0.00989327
0.00988123
0.00986836
0.00985466
0.0098401
0.00982466
0.00980835
0.00979113
0.00977299
0.00975391
0.00973388
0.00971288
0.00969089
0.00966788
0.00964385
0.00961877
0.00959262
0.00956538
0.00953703
0.00950754
0.0094769
0.00944507
0.00941204
0.00937778
0.00934227
0.00930547
0.00926736
0.00922792
0.00918711
0.00914491
0.00910129
0.0090562
0.00900963
0.00896154
0.00891189
0.00886066
0.0088078
0.00875327
0.00869705
0.00863909
0.00857934
0.00851778
0.00845435
0.00838902
0.00832173
0.00825245
0.00818112
0.00810769
0.00803213
0.00795436
0.00787435
0.00779204
0.00770737
0.00762029
0.00753073
0.00743865
0.00734398
0.00724666
0.00714663
0.00704382
0.00693818
0.00682963
0.00671812
0.00660357
0.00648593
0.00636513
0.00624111
0.00611379
0.00598313
0.00584906
0.00571152
0.00557046
0.00542582
0.00527757
0.00512565
0.00497003
0.00481068
0.00464758
0.00448071
0.00431006
0.00413566
0.0039575
0.00377563
0.00359008
0.00340092
0.00320822
0.00301208
0.0028126
0.00260991
0.00240418
0.00219555
0.00198422
0.00177039
0.00155429
0.00133615
0.00111625
0.000894835
0.000672206
0.000448655
0.000224484
1.78898e-09
-0.00022448
-0.000448651
-0.000672201
-0.000894827
-0.00111624
-0.00133614
-0.00155427
-0.00177037
-0.00198419
-0.00219552
-0.00240415
-0.00260988
-0.00281256
-0.00301204
-0.00320818
-0.00340087
-0.00359003
-0.00377557
-0.00395744
-0.0041356
-0.00431
-0.00448064
-0.00464751
-0.00481061
-0.00496996
-0.00512558
-0.00527749
-0.00542575
-0.00557038
-0.00571144
-0.00584898
-0.00598305
-0.00611372
-0.00624103
-0.00636506
-0.00648586
-0.0066035
-0.00671804
-0.00682956
-0.0069381
-0.00704375
-0.00714656
-0.00724659
-0.00734391
-0.00743859
-0.00753067
-0.00762022
-0.00770731
-0.00779198
-0.00787429
-0.00795431
-0.00803207
-0.00810764
-0.00818107
-0.0082524
-0.00832169
-0.00838897
-0.00845431
-0.00851774
-0.0085793
-0.00863905
-0.00869701
-0.00875324
-0.00880776
-0.00886063
-0.00891186
-0.00896151
-0.0090096
-0.00905618
-0.00910126
-0.00914489
-0.00918709
-0.0092279
-0.00926734
-0.00930545
-0.00934225
-0.00937777
-0.00941203
-0.00944506
-0.00947688
-0.00950753
-0.00953702
-0.00956537
-0.00959261
-0.00961876
-0.00964384
-0.00966787
-0.00969088
-0.00971287
-0.00973387
-0.0097539
-0.00977298
-0.00979112
-0.00980834
-0.00982466
-0.00984009
-0.00985465
-0.00986836
-0.00988122
-0.00989326
-0.00990449
-0.00991492
-0.00992457
-0.00993345
-0.00994157
-0.00994895
-0.00995559
-0.00996151
-0.00996673
-0.00997125
-0.00997508
-0.00997824
-0.00998074
-0.00998258
-0.00998378
-0.00998435
-0.0099843
-0.00998363
-0.00998236
-0.00998049
-0.00997804
-0.00997501
-0.00997142
-0.00996727
-0.00996256
-0.00995731
-0.00995153
-0.00994522
-0.00993839
-0.00993105
-0.0099232
-0.00991486
-0.00990602
-0.0098967
-0.00988691
-0.00987664
-0.00986592
-0.00985473
-0.00984309
-0.00983101
-0.00981849
-0.00980554
-0.00979216
-0.00977836
-0.00976414
-0.00974952
-0.00973448
-0.00971905
-0.00970323
-0.00968701
-0.00967041
-0.00965344
-0.00963608
-0.00961836
-0.00960028
-0.00958183
-0.00956303
-0.00954387
-0.00952437
-0.00950453
-0.00948434
-0.00946383
-0.00944298
-0.00942181
-0.00940031
-0.0093785
-0.00935637
-0.00933393
-0.00931119
-0.00928814
-0.00926479
-0.00924115
-0.00921721
-0.00919298
-0.00916847
-0.00914367
-0.0091186
-0.00909325
-0.00906763
-0.00904173
-0.00901557
-0.00898915
-0.00896247
-0.00893553
-0.00890833
-0.00888088
-0.00885318
-0.00882524
-0.00879706
-0.00876863
-0.00873996
-0.00871106
-0.00868193
-0.00865256
-0.00862297
-0.00859316
-0.00856312
-0.00853286
-0.00850238
-0.00847168
-0.00844078
-0.00840966
-0.00837833
-0.0083468
-0.00831506
-0.00828312
-0.00825099
-0.00821865
-0.00818612
-0.00815339
-0.00812048
-0.00808737
-0.00805408
-0.0080206
-0.00798693
-0.00795309
-0.00791907
-0.00788486
-0.00785049
-0.00781594
-0.00778121
-0.00774632
-0.00771126
-0.00767603
-0.00764063
-0.00760507
-0.00756936
-0.00753348
-0.00749744
-0.00746124
-0.0074249
-0.00738839
-0.00735174
-0.00731493
-0.00727798
-0.00724088
-0.00720364
-0.00716625
-0.00712871
-0.00709104
-0.00705323
-0.00701527
-0.00697719
-0.00693896
-0.00690061
-0.00686212
-0.0068235
-0.00678475
-0.00674587
-0.00670686
-0.00666773
-0.00662847
-0.00658909
-0.00654959
-0.00650997
-0.00647023
-0.00643037
-0.0063904
-0.0063503
-0.0063101
-0.00626978
-0.00622935
-0.00618881
-0.00614816
-0.0061074
-0.00606653
-0.00602556
-0.00598448
-0.0059433
-0.00590202
-0.00586063
-0.00581915
-0.00577756
-0.00573588
-0.0056941
-0.00565222
-0.00561025
-0.00556819
-0.00552603
-0.00548378
-0.00544143
-0.005399
-0.00535648
-0.00531388
-0.00527118
-0.0052284
-0.00518553
-0.00514258
-0.00509955
-0.00505644
-0.00501324
-0.00496996
-0.00492661
-0.00488317
-0.00483966
-0.00479608
-0.00475241
-0.00470868
-0.00466487
-0.00462098
-0.00457703
-0.004533
-0.0044889
-0.00444474
-0.0044005
-0.0043562
-0.00431183
-0.0042674
-0.0042229
-0.00417833
-0.00413371
-0.00408902
-0.00404427
-0.00399945
-0.00395458
-0.00390965
-0.00386466
-0.00381962
-0.00377451
-0.00372935
-0.00368414
-0.00363887
-0.00359355
-0.00354817
-0.00350274
-0.00345726
-0.00341173
-0.00336616
-0.00332053
-0.00327485
-0.00322913
-0.00318336
-0.00313754
-0.00309168
-0.00304577
-0.00299982
-0.00295383
-0.00290779
-0.00286172
-0.0028156
-0.00276944
-0.00272325
-0.00267701
-0.00263074
-0.00258443
-0.00253808
-0.0024917
-0.00244528
-0.00239882
-0.00235234
-0.00230582
-0.00225927
-0.00221268
-0.00216607
-0.00211943
-0.00207275
-0.00202605
-0.00197932
-0.00193256
-0.00188578
-0.00183896
-0.00179213
-0.00174527
-0.00169838
-0.00165147
-0.00160454
-0.00155758
-0.00151061
-0.00146361
-0.0014166
-0.00136956
-0.00132251
-0.00127543
-0.00122834
-0.00118124
-0.00113411
-0.00108698
-0.00103982
-0.000992654
-0.000945473
-0.000898279
-0.000851072
-0.000803854
-0.000756625
-0.000709386
-0.000662137
-0.000614879
-0.000567613
-0.000520339
-0.000473058
-0.000425771
-0.000378477
-0.000331179
-0.000283876
-0.000236569
-0.000189259
-0.000141947
-9.46322e-05
-4.73164e-05
)
;

boundaryField
{
    left
    {
        type            calculated;
        value           uniform 0;
    }
    right
    {
        type            calculated;
        value           uniform 0;
    }
    frontBackUpDown
    {
        type            empty;
    }
}


// ************************************************************************* //
