/*--------------------------------*- C++ -*----------------------------------*\
| =========                 |                                                 |
| \\      /  F ield         | OpenFOAM: The Open Source CFD Toolbox           |
|  \\    /   O peration     | Version:  2412                                  |
|   \\  /    A nd           | Website:  www.openfoam.com                      |
|    \\/     M anipulation  |                                                 |
\*---------------------------------------------------------------------------*/
FoamFile
{
    version     2.0;
    format      ascii;
    arch        "LSB;label=32;scalar=64";
    class       volVectorField;
    location    "0.21";
    object      U;
}
// * * * * * * * * * * * * * * * * * * * * * * * * * * * * * * * * * * * * * //

dimensions      [0 1 -1 0 0 0 0];

internalField   nonuniform List<vector> 
800
(
(0.00236579 0 0)
(0.00709741 0 0)
(0.0118289 0 0)
(0.0165603 0 0)
(0.0212915 0 0)
(0.0260223 0 0)
(0.0307528 0 0)
(0.0354829 0 0)
(0.0402125 0 0)
(0.0449416 0 0)
(0.04967 0 0)
(0.0543978 0 0)
(0.0591248 0 0)
(0.0638511 0 0)
(0.0685764 0 0)
(0.0733008 0 0)
(0.0780243 0 0)
(0.0827466 0 0)
(0.0874679 0 0)
(0.0921879 0 0)
(0.0969067 0 0)
(0.101624 0 0)
(0.10634 0 0)
(0.111055 0 0)
(0.115768 0 0)
(0.12048 0 0)
(0.125189 0 0)
(0.129898 0 0)
(0.134604 0 0)
(0.139308 0 0)
(0.144011 0 0)
(0.148712 0 0)
(0.15341 0 0)
(0.158107 0 0)
(0.162801 0 0)
(0.167493 0 0)
(0.172183 0 0)
(0.17687 0 0)
(0.181555 0 0)
(0.186238 0 0)
(0.190918 0 0)
(0.195595 0 0)
(0.200269 0 0)
(0.204941 0 0)
(0.20961 0 0)
(0.214276 0 0)
(0.218939 0 0)
(0.223599 0 0)
(0.228255 0 0)
(0.232909 0 0)
(0.237559 0 0)
(0.242206 0 0)
(0.24685 0 0)
(0.25149 0 0)
(0.256126 0 0)
(0.260759 0 0)
(0.265389 0 0)
(0.270014 0 0)
(0.274636 0 0)
(0.279254 0 0)
(0.283867 0 0)
(0.288477 0 0)
(0.293083 0 0)
(0.297684 0 0)
(0.302281 0 0)
(0.306874 0 0)
(0.311463 0 0)
(0.316046 0 0)
(0.320626 0 0)
(0.325201 0 0)
(0.329771 0 0)
(0.334336 0 0)
(0.338896 0 0)
(0.343452 0 0)
(0.348002 0 0)
(0.352548 0 0)
(0.357088 0 0)
(0.361623 0 0)
(0.366152 0 0)
(0.370677 0 0)
(0.375195 0 0)
(0.379708 0 0)
(0.384216 0 0)
(0.388718 0 0)
(0.393214 0 0)
(0.397704 0 0)
(0.402188 0 0)
(0.406667 0 0)
(0.411139 0 0)
(0.415604 0 0)
(0.420064 0 0)
(0.424517 0 0)
(0.428964 0 0)
(0.433404 0 0)
(0.437838 0 0)
(0.442265 0 0)
(0.446685 0 0)
(0.451098 0 0)
(0.455504 0 0)
(0.459903 0 0)
(0.464295 0 0)
(0.46868 0 0)
(0.473057 0 0)
(0.477427 0 0)
(0.48179 0 0)
(0.486145 0 0)
(0.490492 0 0)
(0.494832 0 0)
(0.499163 0 0)
(0.503487 0 0)
(0.507802 0 0)
(0.51211 0 0)
(0.516409 0 0)
(0.5207 0 0)
(0.524982 0 0)
(0.529256 0 0)
(0.533521 0 0)
(0.537778 0 0)
(0.542025 0 0)
(0.546264 0 0)
(0.550494 0 0)
(0.554714 0 0)
(0.558925 0 0)
(0.563127 0 0)
(0.56732 0 0)
(0.571503 0 0)
(0.575676 0 0)
(0.579839 0 0)
(0.583993 0 0)
(0.588137 0 0)
(0.59227 0 0)
(0.596393 0 0)
(0.600506 0 0)
(0.604609 0 0)
(0.608701 0 0)
(0.612782 0 0)
(0.616853 0 0)
(0.620912 0 0)
(0.624961 0 0)
(0.628998 0 0)
(0.633024 0 0)
(0.637039 0 0)
(0.641043 0 0)
(0.645034 0 0)
(0.649015 0 0)
(0.652983 0 0)
(0.656939 0 0)
(0.660883 0 0)
(0.664815 0 0)
(0.668734 0 0)
(0.672641 0 0)
(0.676535 0 0)
(0.680417 0 0)
(0.684285 0 0)
(0.688141 0 0)
(0.691983 0 0)
(0.695812 0 0)
(0.699628 0 0)
(0.70343 0 0)
(0.707218 0 0)
(0.710993 0 0)
(0.714753 0 0)
(0.718499 0 0)
(0.722231 0 0)
(0.725948 0 0)
(0.729651 0 0)
(0.733339 0 0)
(0.737012 0 0)
(0.74067 0 0)
(0.744313 0 0)
(0.74794 0 0)
(0.751551 0 0)
(0.755147 0 0)
(0.758727 0 0)
(0.762291 0 0)
(0.765839 0 0)
(0.76937 0 0)
(0.772885 0 0)
(0.776382 0 0)
(0.779863 0 0)
(0.783327 0 0)
(0.786774 0 0)
(0.790203 0 0)
(0.793614 0 0)
(0.797007 0 0)
(0.800383 0 0)
(0.80374 0 0)
(0.807078 0 0)
(0.810398 0 0)
(0.8137 0 0)
(0.816982 0 0)
(0.820245 0 0)
(0.823488 0 0)
(0.826712 0 0)
(0.829916 0 0)
(0.8331 0 0)
(0.836263 0 0)
(0.839406 0 0)
(0.842529 0 0)
(0.84563 0 0)
(0.84871 0 0)
(0.851769 0 0)
(0.854805 0 0)
(0.857821 0 0)
(0.860813 0 0)
(0.863784 0 0)
(0.866732 0 0)
(0.869657 0 0)
(0.872558 0 0)
(0.875437 0 0)
(0.878291 0 0)
(0.881122 0 0)
(0.883929 0 0)
(0.886711 0 0)
(0.889468 0 0)
(0.8922 0 0)
(0.894907 0 0)
(0.897589 0 0)
(0.900244 0 0)
(0.902873 0 0)
(0.905476 0 0)
(0.908052 0 0)
(0.9106 0 0)
(0.913122 0 0)
(0.915615 0 0)
(0.918081 0 0)
(0.920518 0 0)
(0.922926 0 0)
(0.925305 0 0)
(0.927655 0 0)
(0.929975 0 0)
(0.932265 0 0)
(0.934524 0 0)
(0.936752 0 0)
(0.938949 0 0)
(0.941115 0 0)
(0.943248 0 0)
(0.945349 0 0)
(0.947418 0 0)
(0.949453 0 0)
(0.951454 0 0)
(0.953421 0 0)
(0.955354 0 0)
(0.957252 0 0)
(0.959115 0 0)
(0.960942 0 0)
(0.962732 0 0)
(0.964486 0 0)
(0.966203 0 0)
(0.967881 0 0)
(0.969522 0 0)
(0.971124 0 0)
(0.972687 0 0)
(0.974211 0 0)
(0.975694 0 0)
(0.977136 0 0)
(0.978537 0 0)
(0.979896 0 0)
(0.981213 0 0)
(0.982486 0 0)
(0.983717 0 0)
(0.984903 0 0)
(0.986044 0 0)
(0.98714 0 0)
(0.98819 0 0)
(0.989193 0 0)
(0.990148 0 0)
(0.991056 0 0)
(0.991915 0 0)
(0.992725 0 0)
(0.993485 0 0)
(0.994193 0 0)
(0.99485 0 0)
(0.995455 0 0)
(0.996007 0 0)
(0.996505 0 0)
(0.996948 0 0)
(0.997336 0 0)
(0.997667 0 0)
(0.997941 0 0)
(0.998157 0 0)
(0.998314 0 0)
(0.998412 0 0)
(0.998448 0 0)
(0.998422 0 0)
(0.998334 0 0)
(0.998182 0 0)
(0.997966 0 0)
(0.997683 0 0)
(0.997334 0 0)
(0.996916 0 0)
(0.99643 0 0)
(0.995873 0 0)
(0.995245 0 0)
(0.994544 0 0)
(0.99377 0 0)
(0.99292 0 0)
(0.991994 0 0)
(0.990991 0 0)
(0.989908 0 0)
(0.988745 0 0)
(0.9875 0 0)
(0.986172 0 0)
(0.984759 0 0)
(0.98326 0 0)
(0.981673 0 0)
(0.979996 0 0)
(0.978229 0 0)
(0.976369 0 0)
(0.974414 0 0)
(0.972362 0 0)
(0.970213 0 0)
(0.967964 0 0)
(0.965613 0 0)
(0.963158 0 0)
(0.960597 0 0)
(0.957928 0 0)
(0.955149 0 0)
(0.952257 0 0)
(0.949251 0 0)
(0.946128 0 0)
(0.942886 0 0)
(0.939522 0 0)
(0.936034 0 0)
(0.932419 0 0)
(0.928675 0 0)
(0.924798 0 0)
(0.920786 0 0)
(0.916637 0 0)
(0.912346 0 0)
(0.907911 0 0)
(0.903329 0 0)
(0.898597 0 0)
(0.893711 0 0)
(0.888668 0 0)
(0.883464 0 0)
(0.878096 0 0)
(0.872559 0 0)
(0.866851 0 0)
(0.860967 0 0)
(0.854902 0 0)
(0.848654 0 0)
(0.842217 0 0)
(0.835587 0 0)
(0.82876 0 0)
(0.82173 0 0)
(0.814494 0 0)
(0.807045 0 0)
(0.79938 0 0)
(0.791493 0 0)
(0.783378 0 0)
(0.77503 0 0)
(0.766444 0 0)
(0.757613 0 0)
(0.748533 0 0)
(0.739197 0 0)
(0.729599 0 0)
(0.719733 0 0)
(0.709593 0 0)
(0.699172 0 0)
(0.688464 0 0)
(0.677462 0 0)
(0.666161 0 0)
(0.654554 0 0)
(0.642633 0 0)
(0.630393 0 0)
(0.617828 0 0)
(0.604931 0 0)
(0.591695 0 0)
(0.578116 0 0)
(0.564188 0 0)
(0.549904 0 0)
(0.535261 0 0)
(0.520253 0 0)
(0.504877 0 0)
(0.489129 0 0)
(0.473007 0 0)
(0.456508 0 0)
(0.439633 0 0)
(0.42238 0 0)
(0.404751 0 0)
(0.386749 0 0)
(0.368376 0 0)
(0.349639 0 0)
(0.330544 0 0)
(0.3111 0 0)
(0.291315 0 0)
(0.271204 0 0)
(0.250779 0 0)
(0.230056 0 0)
(0.209053 0 0)
(0.18779 0 0)
(0.166288 0 0)
(0.14457 0 0)
(0.122661 0 0)
(0.100588 0 0)
(0.0783789 0 0)
(0.0560624 0 0)
(0.0336686 0 0)
(0.0112282 0 0)
(-0.0112278 0 0)
(-0.0336682 0 0)
(-0.0560619 0 0)
(-0.0783782 0 0)
(-0.100587 0 0)
(-0.12266 0 0)
(-0.144568 0 0)
(-0.166286 0 0)
(-0.187788 0 0)
(-0.209051 0 0)
(-0.230054 0 0)
(-0.250776 0 0)
(-0.271201 0 0)
(-0.291312 0 0)
(-0.311095 0 0)
(-0.33054 0 0)
(-0.349634 0 0)
(-0.368371 0 0)
(-0.386743 0 0)
(-0.404745 0 0)
(-0.422374 0 0)
(-0.439626 0 0)
(-0.456502 0 0)
(-0.473 0 0)
(-0.489122 0 0)
(-0.50487 0 0)
(-0.520245 0 0)
(-0.535253 0 0)
(-0.549896 0 0)
(-0.56418 0 0)
(-0.578109 0 0)
(-0.591688 0 0)
(-0.604923 0 0)
(-0.61782 0 0)
(-0.630386 0 0)
(-0.642626 0 0)
(-0.654546 0 0)
(-0.666154 0 0)
(-0.677455 0 0)
(-0.688456 0 0)
(-0.699165 0 0)
(-0.709586 0 0)
(-0.719726 0 0)
(-0.729592 0 0)
(-0.73919 0 0)
(-0.748527 0 0)
(-0.757607 0 0)
(-0.766438 0 0)
(-0.775024 0 0)
(-0.783372 0 0)
(-0.791487 0 0)
(-0.799374 0 0)
(-0.80704 0 0)
(-0.814488 0 0)
(-0.821725 0 0)
(-0.828755 0 0)
(-0.835582 0 0)
(-0.842212 0 0)
(-0.848649 0 0)
(-0.854898 0 0)
(-0.860963 0 0)
(-0.866847 0 0)
(-0.872556 0 0)
(-0.878092 0 0)
(-0.883461 0 0)
(-0.888665 0 0)
(-0.893708 0 0)
(-0.898594 0 0)
(-0.903327 0 0)
(-0.907909 0 0)
(-0.912343 0 0)
(-0.916634 0 0)
(-0.920784 0 0)
(-0.924796 0 0)
(-0.928673 0 0)
(-0.932417 0 0)
(-0.936032 0 0)
(-0.939521 0 0)
(-0.942885 0 0)
(-0.946127 0 0)
(-0.94925 0 0)
(-0.952256 0 0)
(-0.955147 0 0)
(-0.957927 0 0)
(-0.960596 0 0)
(-0.963157 0 0)
(-0.965612 0 0)
(-0.967963 0 0)
(-0.970212 0 0)
(-0.972362 0 0)
(-0.974413 0 0)
(-0.976368 0 0)
(-0.978228 0 0)
(-0.979996 0 0)
(-0.981673 0 0)
(-0.98326 0 0)
(-0.984759 0 0)
(-0.986172 0 0)
(-0.9875 0 0)
(-0.988745 0 0)
(-0.989908 0 0)
(-0.990991 0 0)
(-0.991994 0 0)
(-0.99292 0 0)
(-0.99377 0 0)
(-0.994544 0 0)
(-0.995245 0 0)
(-0.995873 0 0)
(-0.99643 0 0)
(-0.996916 0 0)
(-0.997334 0 0)
(-0.997683 0 0)
(-0.997966 0 0)
(-0.998182 0 0)
(-0.998334 0 0)
(-0.998422 0 0)
(-0.998448 0 0)
(-0.998412 0 0)
(-0.998314 0 0)
(-0.998157 0 0)
(-0.997941 0 0)
(-0.997667 0 0)
(-0.997336 0 0)
(-0.996948 0 0)
(-0.996505 0 0)
(-0.996007 0 0)
(-0.995455 0 0)
(-0.99485 0 0)
(-0.994193 0 0)
(-0.993484 0 0)
(-0.992725 0 0)
(-0.991915 0 0)
(-0.991056 0 0)
(-0.990148 0 0)
(-0.989192 0 0)
(-0.988189 0 0)
(-0.987139 0 0)
(-0.986044 0 0)
(-0.984902 0 0)
(-0.983716 0 0)
(-0.982486 0 0)
(-0.981212 0 0)
(-0.979896 0 0)
(-0.978536 0 0)
(-0.977135 0 0)
(-0.975693 0 0)
(-0.97421 0 0)
(-0.972687 0 0)
(-0.971124 0 0)
(-0.969522 0 0)
(-0.967881 0 0)
(-0.966202 0 0)
(-0.964485 0 0)
(-0.962732 0 0)
(-0.960941 0 0)
(-0.959114 0 0)
(-0.957252 0 0)
(-0.955354 0 0)
(-0.953421 0 0)
(-0.951453 0 0)
(-0.949452 0 0)
(-0.947417 0 0)
(-0.945349 0 0)
(-0.943248 0 0)
(-0.941114 0 0)
(-0.938949 0 0)
(-0.936751 0 0)
(-0.934523 0 0)
(-0.932264 0 0)
(-0.929974 0 0)
(-0.927654 0 0)
(-0.925304 0 0)
(-0.922925 0 0)
(-0.920517 0 0)
(-0.91808 0 0)
(-0.915614 0 0)
(-0.913121 0 0)
(-0.910599 0 0)
(-0.908051 0 0)
(-0.905475 0 0)
(-0.902872 0 0)
(-0.900243 0 0)
(-0.897587 0 0)
(-0.894906 0 0)
(-0.892199 0 0)
(-0.889467 0 0)
(-0.88671 0 0)
(-0.883927 0 0)
(-0.881121 0 0)
(-0.87829 0 0)
(-0.875435 0 0)
(-0.872557 0 0)
(-0.869655 0 0)
(-0.86673 0 0)
(-0.863782 0 0)
(-0.860812 0 0)
(-0.857819 0 0)
(-0.854804 0 0)
(-0.851767 0 0)
(-0.848708 0 0)
(-0.845628 0 0)
(-0.842527 0 0)
(-0.839405 0 0)
(-0.836262 0 0)
(-0.833098 0 0)
(-0.829914 0 0)
(-0.826711 0 0)
(-0.823487 0 0)
(-0.820243 0 0)
(-0.81698 0 0)
(-0.813698 0 0)
(-0.810397 0 0)
(-0.807077 0 0)
(-0.803738 0 0)
(-0.800381 0 0)
(-0.797006 0 0)
(-0.793612 0 0)
(-0.790201 0 0)
(-0.786772 0 0)
(-0.783325 0 0)
(-0.779862 0 0)
(-0.776381 0 0)
(-0.772883 0 0)
(-0.769368 0 0)
(-0.765837 0 0)
(-0.762289 0 0)
(-0.758726 0 0)
(-0.755146 0 0)
(-0.75155 0 0)
(-0.747938 0 0)
(-0.744311 0 0)
(-0.740668 0 0)
(-0.73701 0 0)
(-0.733337 0 0)
(-0.729649 0 0)
(-0.725947 0 0)
(-0.722229 0 0)
(-0.718498 0 0)
(-0.714751 0 0)
(-0.710991 0 0)
(-0.707217 0 0)
(-0.703428 0 0)
(-0.699626 0 0)
(-0.695811 0 0)
(-0.691982 0 0)
(-0.688139 0 0)
(-0.684284 0 0)
(-0.680415 0 0)
(-0.676534 0 0)
(-0.672639 0 0)
(-0.668733 0 0)
(-0.664813 0 0)
(-0.660881 0 0)
(-0.656937 0 0)
(-0.652981 0 0)
(-0.649013 0 0)
(-0.645033 0 0)
(-0.641041 0 0)
(-0.637038 0 0)
(-0.633023 0 0)
(-0.628997 0 0)
(-0.624959 0 0)
(-0.620911 0 0)
(-0.616851 0 0)
(-0.612781 0 0)
(-0.608699 0 0)
(-0.604607 0 0)
(-0.600505 0 0)
(-0.596392 0 0)
(-0.592269 0 0)
(-0.588135 0 0)
(-0.583992 0 0)
(-0.579838 0 0)
(-0.575675 0 0)
(-0.571501 0 0)
(-0.567319 0 0)
(-0.563126 0 0)
(-0.558924 0 0)
(-0.554713 0 0)
(-0.550492 0 0)
(-0.546263 0 0)
(-0.542024 0 0)
(-0.537777 0 0)
(-0.53352 0 0)
(-0.529255 0 0)
(-0.524981 0 0)
(-0.520699 0 0)
(-0.516408 0 0)
(-0.512109 0 0)
(-0.507801 0 0)
(-0.503486 0 0)
(-0.499162 0 0)
(-0.494831 0 0)
(-0.490491 0 0)
(-0.486144 0 0)
(-0.481789 0 0)
(-0.477426 0 0)
(-0.473056 0 0)
(-0.468679 0 0)
(-0.464294 0 0)
(-0.459902 0 0)
(-0.455503 0 0)
(-0.451097 0 0)
(-0.446684 0 0)
(-0.442264 0 0)
(-0.437837 0 0)
(-0.433403 0 0)
(-0.428963 0 0)
(-0.424516 0 0)
(-0.420063 0 0)
(-0.415604 0 0)
(-0.411138 0 0)
(-0.406666 0 0)
(-0.402188 0 0)
(-0.397703 0 0)
(-0.393213 0 0)
(-0.388717 0 0)
(-0.384215 0 0)
(-0.379708 0 0)
(-0.375195 0 0)
(-0.370676 0 0)
(-0.366152 0 0)
(-0.361622 0 0)
(-0.357087 0 0)
(-0.352547 0 0)
(-0.348002 0 0)
(-0.343451 0 0)
(-0.338896 0 0)
(-0.334335 0 0)
(-0.32977 0 0)
(-0.3252 0 0)
(-0.320625 0 0)
(-0.316046 0 0)
(-0.311462 0 0)
(-0.306874 0 0)
(-0.302281 0 0)
(-0.297684 0 0)
(-0.293082 0 0)
(-0.288477 0 0)
(-0.283867 0 0)
(-0.279253 0 0)
(-0.274635 0 0)
(-0.270014 0 0)
(-0.265388 0 0)
(-0.260759 0 0)
(-0.256126 0 0)
(-0.25149 0 0)
(-0.24685 0 0)
(-0.242206 0 0)
(-0.237559 0 0)
(-0.232909 0 0)
(-0.228255 0 0)
(-0.223598 0 0)
(-0.218939 0 0)
(-0.214276 0 0)
(-0.20961 0 0)
(-0.204941 0 0)
(-0.200269 0 0)
(-0.195595 0 0)
(-0.190917 0 0)
(-0.186238 0 0)
(-0.181555 0 0)
(-0.17687 0 0)
(-0.172183 0 0)
(-0.167493 0 0)
(-0.162801 0 0)
(-0.158107 0 0)
(-0.15341 0 0)
(-0.148712 0 0)
(-0.144011 0 0)
(-0.139308 0 0)
(-0.134604 0 0)
(-0.129897 0 0)
(-0.125189 0 0)
(-0.120479 0 0)
(-0.115768 0 0)
(-0.111055 0 0)
(-0.10634 0 0)
(-0.101624 0 0)
(-0.0969067 0 0)
(-0.0921879 0 0)
(-0.0874678 0 0)
(-0.0827466 0 0)
(-0.0780242 0 0)
(-0.0733008 0 0)
(-0.0685764 0 0)
(-0.063851 0 0)
(-0.0591248 0 0)
(-0.0543978 0 0)
(-0.04967 0 0)
(-0.0449416 0 0)
(-0.0402125 0 0)
(-0.0354829 0 0)
(-0.0307528 0 0)
(-0.0260223 0 0)
(-0.0212915 0 0)
(-0.0165603 0 0)
(-0.011829 0 0)
(-0.00709745 0 0)
(-0.00236583 0 0)
)
;

boundaryField
{
    left
    {
        type            fixedValue;
        value           uniform (0 0 0);
    }
    right
    {
        type            fixedValue;
        value           uniform (0 0 0);
    }
    frontBackUpDown
    {
        type            empty;
    }
}


// ************************************************************************* //
