/*--------------------------------*- C++ -*----------------------------------*\
| =========                 |                                                 |
| \\      /  F ield         | OpenFOAM: The Open Source CFD Toolbox           |
|  \\    /   O peration     | Version:  2412                                  |
|   \\  /    A nd           | Website:  www.openfoam.com                      |
|    \\/     M anipulation  |                                                 |
\*---------------------------------------------------------------------------*/
FoamFile
{
    version     2.0;
    format      ascii;
    arch        "LSB;label=32;scalar=64";
    class       volVectorField;
    location    "0.21";
    object      U_0;
}
// * * * * * * * * * * * * * * * * * * * * * * * * * * * * * * * * * * * * * //

dimensions      [0 1 -1 0 0 0 0];

internalField   nonuniform List<vector> 
800
(
(0.00236802 0 0)
(0.00710412 0 0)
(0.0118401 0 0)
(0.016576 0 0)
(0.0213116 0 0)
(0.0260469 0 0)
(0.0307819 0 0)
(0.0355165 0 0)
(0.0402506 0 0)
(0.0449841 0 0)
(0.049717 0 0)
(0.0544492 0 0)
(0.0591807 0 0)
(0.0639114 0 0)
(0.0686412 0 0)
(0.0733701 0 0)
(0.078098 0 0)
(0.0828248 0 0)
(0.0875505 0 0)
(0.092275 0 0)
(0.0969982 0 0)
(0.10172 0 0)
(0.106441 0 0)
(0.11116 0 0)
(0.115877 0 0)
(0.120593 0 0)
(0.125307 0 0)
(0.13002 0 0)
(0.134731 0 0)
(0.13944 0 0)
(0.144147 0 0)
(0.148852 0 0)
(0.153555 0 0)
(0.158255 0 0)
(0.162954 0 0)
(0.16765 0 0)
(0.172345 0 0)
(0.177036 0 0)
(0.181725 0 0)
(0.186412 0 0)
(0.191096 0 0)
(0.195778 0 0)
(0.200457 0 0)
(0.205132 0 0)
(0.209806 0 0)
(0.214476 0 0)
(0.219143 0 0)
(0.223807 0 0)
(0.228468 0 0)
(0.233126 0 0)
(0.23778 0 0)
(0.242431 0 0)
(0.247079 0 0)
(0.251723 0 0)
(0.256364 0 0)
(0.261001 0 0)
(0.265634 0 0)
(0.270264 0 0)
(0.27489 0 0)
(0.279511 0 0)
(0.284129 0 0)
(0.288743 0 0)
(0.293353 0 0)
(0.297958 0 0)
(0.302559 0 0)
(0.307156 0 0)
(0.311748 0 0)
(0.316336 0 0)
(0.320919 0 0)
(0.325498 0 0)
(0.330072 0 0)
(0.334641 0 0)
(0.339205 0 0)
(0.343765 0 0)
(0.348319 0 0)
(0.352868 0 0)
(0.357412 0 0)
(0.361951 0 0)
(0.366484 0 0)
(0.371012 0 0)
(0.375534 0 0)
(0.380051 0 0)
(0.384562 0 0)
(0.389068 0 0)
(0.393567 0 0)
(0.398061 0 0)
(0.402549 0 0)
(0.407031 0 0)
(0.411506 0 0)
(0.415975 0 0)
(0.420438 0 0)
(0.424895 0 0)
(0.429345 0 0)
(0.433789 0 0)
(0.438226 0 0)
(0.442656 0 0)
(0.447079 0 0)
(0.451496 0 0)
(0.455905 0 0)
(0.460308 0 0)
(0.464703 0 0)
(0.469091 0 0)
(0.473471 0 0)
(0.477845 0 0)
(0.48221 0 0)
(0.486568 0 0)
(0.490918 0 0)
(0.495261 0 0)
(0.499595 0 0)
(0.503922 0 0)
(0.508241 0 0)
(0.512551 0 0)
(0.516853 0 0)
(0.521147 0 0)
(0.525432 0 0)
(0.529708 0 0)
(0.533976 0 0)
(0.538235 0 0)
(0.542486 0 0)
(0.546727 0 0)
(0.550959 0 0)
(0.555182 0 0)
(0.559396 0 0)
(0.5636 0 0)
(0.567795 0 0)
(0.571981 0 0)
(0.576156 0 0)
(0.580322 0 0)
(0.584478 0 0)
(0.588624 0 0)
(0.592759 0 0)
(0.596885 0 0)
(0.601 0 0)
(0.605104 0 0)
(0.609198 0 0)
(0.613282 0 0)
(0.617354 0 0)
(0.621416 0 0)
(0.625466 0 0)
(0.629506 0 0)
(0.633534 0 0)
(0.63755 0 0)
(0.641556 0 0)
(0.645549 0 0)
(0.649531 0 0)
(0.6535 0 0)
(0.657458 0 0)
(0.661404 0 0)
(0.665337 0 0)
(0.669258 0 0)
(0.673166 0 0)
(0.677062 0 0)
(0.680945 0 0)
(0.684814 0 0)
(0.688671 0 0)
(0.692515 0 0)
(0.696345 0 0)
(0.700161 0 0)
(0.703964 0 0)
(0.707754 0 0)
(0.711529 0 0)
(0.71529 0 0)
(0.719037 0 0)
(0.722769 0 0)
(0.726487 0 0)
(0.730191 0 0)
(0.733879 0 0)
(0.737553 0 0)
(0.741211 0 0)
(0.744854 0 0)
(0.748482 0 0)
(0.752093 0 0)
(0.75569 0 0)
(0.75927 0 0)
(0.762834 0 0)
(0.766381 0 0)
(0.769912 0 0)
(0.773427 0 0)
(0.776925 0 0)
(0.780405 0 0)
(0.783869 0 0)
(0.787315 0 0)
(0.790744 0 0)
(0.794154 0 0)
(0.797547 0 0)
(0.800922 0 0)
(0.804278 0 0)
(0.807616 0 0)
(0.810936 0 0)
(0.814236 0 0)
(0.817517 0 0)
(0.820779 0 0)
(0.824021 0 0)
(0.827244 0 0)
(0.830447 0 0)
(0.833629 0 0)
(0.836791 0 0)
(0.839933 0 0)
(0.843054 0 0)
(0.846153 0 0)
(0.849232 0 0)
(0.852288 0 0)
(0.855323 0 0)
(0.858337 0 0)
(0.861327 0 0)
(0.864296 0 0)
(0.867241 0 0)
(0.870164 0 0)
(0.873063 0 0)
(0.875939 0 0)
(0.878792 0 0)
(0.88162 0 0)
(0.884424 0 0)
(0.887203 0 0)
(0.889957 0 0)
(0.892686 0 0)
(0.89539 0 0)
(0.898068 0 0)
(0.900721 0 0)
(0.903346 0 0)
(0.905946 0 0)
(0.908518 0 0)
(0.911063 0 0)
(0.913581 0 0)
(0.91607 0 0)
(0.918532 0 0)
(0.920965 0 0)
(0.923369 0 0)
(0.925744 0 0)
(0.928089 0 0)
(0.930405 0 0)
(0.93269 0 0)
(0.934944 0 0)
(0.937168 0 0)
(0.93936 0 0)
(0.941521 0 0)
(0.943649 0 0)
(0.945745 0 0)
(0.947808 0 0)
(0.949837 0 0)
(0.951833 0 0)
(0.953794 0 0)
(0.955721 0 0)
(0.957613 0 0)
(0.95947 0 0)
(0.96129 0 0)
(0.963075 0 0)
(0.964822 0 0)
(0.966532 0 0)
(0.968204 0 0)
(0.969838 0 0)
(0.971433 0 0)
(0.972989 0 0)
(0.974505 0 0)
(0.97598 0 0)
(0.977415 0 0)
(0.978808 0 0)
(0.98016 0 0)
(0.981468 0 0)
(0.982734 0 0)
(0.983956 0 0)
(0.985133 0 0)
(0.986266 0 0)
(0.987353 0 0)
(0.988394 0 0)
(0.989388 0 0)
(0.990335 0 0)
(0.991233 0 0)
(0.992083 0 0)
(0.992883 0 0)
(0.993632 0 0)
(0.994331 0 0)
(0.994978 0 0)
(0.995572 0 0)
(0.996114 0 0)
(0.996601 0 0)
(0.997033 0 0)
(0.99741 0 0)
(0.99773 0 0)
(0.997992 0 0)
(0.998197 0 0)
(0.998342 0 0)
(0.998427 0 0)
(0.998451 0 0)
(0.998414 0 0)
(0.998313 0 0)
(0.998148 0 0)
(0.997919 0 0)
(0.997623 0 0)
(0.99726 0 0)
(0.996829 0 0)
(0.996329 0 0)
(0.995758 0 0)
(0.995116 0 0)
(0.994401 0 0)
(0.993612 0 0)
(0.992748 0 0)
(0.991807 0 0)
(0.990788 0 0)
(0.98969 0 0)
(0.988511 0 0)
(0.98725 0 0)
(0.985906 0 0)
(0.984477 0 0)
(0.982961 0 0)
(0.981357 0 0)
(0.979664 0 0)
(0.977879 0 0)
(0.976001 0 0)
(0.974028 0 0)
(0.971959 0 0)
(0.969792 0 0)
(0.967524 0 0)
(0.965154 0 0)
(0.96268 0 0)
(0.9601 0 0)
(0.957412 0 0)
(0.954614 0 0)
(0.951702 0 0)
(0.948677 0 0)
(0.945533 0 0)
(0.942271 0 0)
(0.938886 0 0)
(0.935377 0 0)
(0.931741 0 0)
(0.927976 0 0)
(0.924077 0 0)
(0.920044 0 0)
(0.915872 0 0)
(0.91156 0 0)
(0.907103 0 0)
(0.902498 0 0)
(0.897744 0 0)
(0.892835 0 0)
(0.887769 0 0)
(0.882542 0 0)
(0.87715 0 0)
(0.871591 0 0)
(0.865859 0 0)
(0.859952 0 0)
(0.853864 0 0)
(0.847592 0 0)
(0.841132 0 0)
(0.834478 0 0)
(0.827627 0 0)
(0.820575 0 0)
(0.813315 0 0)
(0.805844 0 0)
(0.798155 0 0)
(0.790245 0 0)
(0.782108 0 0)
(0.773738 0 0)
(0.76513 0 0)
(0.756279 0 0)
(0.747178 0 0)
(0.737821 0 0)
(0.728204 0 0)
(0.718318 0 0)
(0.70816 0 0)
(0.697722 0 0)
(0.686997 0 0)
(0.67598 0 0)
(0.664665 0 0)
(0.653044 0 0)
(0.641112 0 0)
(0.628862 0 0)
(0.616288 0 0)
(0.603384 0 0)
(0.590144 0 0)
(0.576562 0 0)
(0.562633 0 0)
(0.548351 0 0)
(0.533712 0 0)
(0.518711 0 0)
(0.503345 0 0)
(0.48761 0 0)
(0.471505 0 0)
(0.455026 0 0)
(0.438174 0 0)
(0.420948 0 0)
(0.40335 0 0)
(0.385383 0 0)
(0.36705 0 0)
(0.348357 0 0)
(0.32931 0 0)
(0.309918 0 0)
(0.290191 0 0)
(0.270141 0 0)
(0.249781 0 0)
(0.229128 0 0)
(0.2082 0 0)
(0.187014 0 0)
(0.165594 0 0)
(0.143961 0 0)
(0.122141 0 0)
(0.100159 0 0)
(0.0780424 0 0)
(0.0558208 0 0)
(0.0335231 0 0)
(0.0111796 0 0)
(-0.0111793 0 0)
(-0.0335227 0 0)
(-0.0558203 0 0)
(-0.0780418 0 0)
(-0.100158 0 0)
(-0.12214 0 0)
(-0.14396 0 0)
(-0.165592 0 0)
(-0.187013 0 0)
(-0.208198 0 0)
(-0.229126 0 0)
(-0.249778 0 0)
(-0.270137 0 0)
(-0.290187 0 0)
(-0.309914 0 0)
(-0.329305 0 0)
(-0.348352 0 0)
(-0.367045 0 0)
(-0.385378 0 0)
(-0.403345 0 0)
(-0.420942 0 0)
(-0.438167 0 0)
(-0.455019 0 0)
(-0.471498 0 0)
(-0.487603 0 0)
(-0.503338 0 0)
(-0.518704 0 0)
(-0.533705 0 0)
(-0.548343 0 0)
(-0.562625 0 0)
(-0.576554 0 0)
(-0.590136 0 0)
(-0.603377 0 0)
(-0.616281 0 0)
(-0.628855 0 0)
(-0.641105 0 0)
(-0.653037 0 0)
(-0.664657 0 0)
(-0.675973 0 0)
(-0.68699 0 0)
(-0.697714 0 0)
(-0.708153 0 0)
(-0.718312 0 0)
(-0.728197 0 0)
(-0.737815 0 0)
(-0.747171 0 0)
(-0.756272 0 0)
(-0.765124 0 0)
(-0.773732 0 0)
(-0.782102 0 0)
(-0.79024 0 0)
(-0.79815 0 0)
(-0.805838 0 0)
(-0.81331 0 0)
(-0.82057 0 0)
(-0.827623 0 0)
(-0.834474 0 0)
(-0.841127 0 0)
(-0.847588 0 0)
(-0.85386 0 0)
(-0.859948 0 0)
(-0.865855 0 0)
(-0.871587 0 0)
(-0.877147 0 0)
(-0.882538 0 0)
(-0.887766 0 0)
(-0.892832 0 0)
(-0.897741 0 0)
(-0.902496 0 0)
(-0.9071 0 0)
(-0.911557 0 0)
(-0.91587 0 0)
(-0.920042 0 0)
(-0.924075 0 0)
(-0.927974 0 0)
(-0.931739 0 0)
(-0.935376 0 0)
(-0.938885 0 0)
(-0.942269 0 0)
(-0.945532 0 0)
(-0.948675 0 0)
(-0.951701 0 0)
(-0.954612 0 0)
(-0.957411 0 0)
(-0.960099 0 0)
(-0.962679 0 0)
(-0.965153 0 0)
(-0.967523 0 0)
(-0.969791 0 0)
(-0.971959 0 0)
(-0.974028 0 0)
(-0.976 0 0)
(-0.977878 0 0)
(-0.979663 0 0)
(-0.981357 0 0)
(-0.982961 0 0)
(-0.984476 0 0)
(-0.985906 0 0)
(-0.98725 0 0)
(-0.988511 0 0)
(-0.989689 0 0)
(-0.990788 0 0)
(-0.991806 0 0)
(-0.992747 0 0)
(-0.993612 0 0)
(-0.994401 0 0)
(-0.995116 0 0)
(-0.995758 0 0)
(-0.996329 0 0)
(-0.996829 0 0)
(-0.99726 0 0)
(-0.997623 0 0)
(-0.997919 0 0)
(-0.998148 0 0)
(-0.998313 0 0)
(-0.998414 0 0)
(-0.998451 0 0)
(-0.998427 0 0)
(-0.998342 0 0)
(-0.998197 0 0)
(-0.997992 0 0)
(-0.99773 0 0)
(-0.99741 0 0)
(-0.997033 0 0)
(-0.996601 0 0)
(-0.996114 0 0)
(-0.995572 0 0)
(-0.994978 0 0)
(-0.994331 0 0)
(-0.993632 0 0)
(-0.992882 0 0)
(-0.992082 0 0)
(-0.991233 0 0)
(-0.990334 0 0)
(-0.989388 0 0)
(-0.988394 0 0)
(-0.987353 0 0)
(-0.986266 0 0)
(-0.985133 0 0)
(-0.983956 0 0)
(-0.982734 0 0)
(-0.981468 0 0)
(-0.980159 0 0)
(-0.978808 0 0)
(-0.977415 0 0)
(-0.97598 0 0)
(-0.974504 0 0)
(-0.972988 0 0)
(-0.971433 0 0)
(-0.969837 0 0)
(-0.968204 0 0)
(-0.966531 0 0)
(-0.964821 0 0)
(-0.963074 0 0)
(-0.96129 0 0)
(-0.959469 0 0)
(-0.957613 0 0)
(-0.955721 0 0)
(-0.953794 0 0)
(-0.951832 0 0)
(-0.949836 0 0)
(-0.947807 0 0)
(-0.945744 0 0)
(-0.943648 0 0)
(-0.94152 0 0)
(-0.939359 0 0)
(-0.937167 0 0)
(-0.934943 0 0)
(-0.932689 0 0)
(-0.930404 0 0)
(-0.928088 0 0)
(-0.925743 0 0)
(-0.923368 0 0)
(-0.920964 0 0)
(-0.918531 0 0)
(-0.916069 0 0)
(-0.913579 0 0)
(-0.911062 0 0)
(-0.908517 0 0)
(-0.905944 0 0)
(-0.903345 0 0)
(-0.900719 0 0)
(-0.898067 0 0)
(-0.895389 0 0)
(-0.892685 0 0)
(-0.889956 0 0)
(-0.887201 0 0)
(-0.884422 0 0)
(-0.881618 0 0)
(-0.87879 0 0)
(-0.875938 0 0)
(-0.873062 0 0)
(-0.870163 0 0)
(-0.86724 0 0)
(-0.864294 0 0)
(-0.861326 0 0)
(-0.858335 0 0)
(-0.855322 0 0)
(-0.852287 0 0)
(-0.84923 0 0)
(-0.846152 0 0)
(-0.843052 0 0)
(-0.839931 0 0)
(-0.83679 0 0)
(-0.833628 0 0)
(-0.830445 0 0)
(-0.827243 0 0)
(-0.82402 0 0)
(-0.820778 0 0)
(-0.817516 0 0)
(-0.814234 0 0)
(-0.810934 0 0)
(-0.807615 0 0)
(-0.804277 0 0)
(-0.80092 0 0)
(-0.797546 0 0)
(-0.794153 0 0)
(-0.790742 0 0)
(-0.787313 0 0)
(-0.783867 0 0)
(-0.780404 0 0)
(-0.776923 0 0)
(-0.773425 0 0)
(-0.769911 0 0)
(-0.76638 0 0)
(-0.762832 0 0)
(-0.759268 0 0)
(-0.755688 0 0)
(-0.752092 0 0)
(-0.74848 0 0)
(-0.744852 0 0)
(-0.741209 0 0)
(-0.737551 0 0)
(-0.733878 0 0)
(-0.730189 0 0)
(-0.726486 0 0)
(-0.722768 0 0)
(-0.719035 0 0)
(-0.715288 0 0)
(-0.711527 0 0)
(-0.707752 0 0)
(-0.703963 0 0)
(-0.70016 0 0)
(-0.696343 0 0)
(-0.692513 0 0)
(-0.68867 0 0)
(-0.684813 0 0)
(-0.680943 0 0)
(-0.67706 0 0)
(-0.673165 0 0)
(-0.669256 0 0)
(-0.665335 0 0)
(-0.661402 0 0)
(-0.657457 0 0)
(-0.653499 0 0)
(-0.649529 0 0)
(-0.645548 0 0)
(-0.641554 0 0)
(-0.637549 0 0)
(-0.633532 0 0)
(-0.629504 0 0)
(-0.625465 0 0)
(-0.621414 0 0)
(-0.617353 0 0)
(-0.61328 0 0)
(-0.609197 0 0)
(-0.605103 0 0)
(-0.600998 0 0)
(-0.596883 0 0)
(-0.592758 0 0)
(-0.588622 0 0)
(-0.584476 0 0)
(-0.580321 0 0)
(-0.576155 0 0)
(-0.571979 0 0)
(-0.567794 0 0)
(-0.563599 0 0)
(-0.559395 0 0)
(-0.555181 0 0)
(-0.550958 0 0)
(-0.546726 0 0)
(-0.542484 0 0)
(-0.538234 0 0)
(-0.533975 0 0)
(-0.529707 0 0)
(-0.52543 0 0)
(-0.521145 0 0)
(-0.516852 0 0)
(-0.51255 0 0)
(-0.508239 0 0)
(-0.503921 0 0)
(-0.499594 0 0)
(-0.49526 0 0)
(-0.490917 0 0)
(-0.486567 0 0)
(-0.482209 0 0)
(-0.477844 0 0)
(-0.47347 0 0)
(-0.46909 0 0)
(-0.464702 0 0)
(-0.460307 0 0)
(-0.455904 0 0)
(-0.451495 0 0)
(-0.447078 0 0)
(-0.442655 0 0)
(-0.438225 0 0)
(-0.433788 0 0)
(-0.429344 0 0)
(-0.424894 0 0)
(-0.420438 0 0)
(-0.415975 0 0)
(-0.411505 0 0)
(-0.40703 0 0)
(-0.402548 0 0)
(-0.39806 0 0)
(-0.393567 0 0)
(-0.389067 0 0)
(-0.384562 0 0)
(-0.38005 0 0)
(-0.375534 0 0)
(-0.371011 0 0)
(-0.366483 0 0)
(-0.36195 0 0)
(-0.357411 0 0)
(-0.352867 0 0)
(-0.348318 0 0)
(-0.343764 0 0)
(-0.339205 0 0)
(-0.334641 0 0)
(-0.330071 0 0)
(-0.325498 0 0)
(-0.320919 0 0)
(-0.316336 0 0)
(-0.311748 0 0)
(-0.307155 0 0)
(-0.302559 0 0)
(-0.297958 0 0)
(-0.293352 0 0)
(-0.288743 0 0)
(-0.284129 0 0)
(-0.279511 0 0)
(-0.274889 0 0)
(-0.270263 0 0)
(-0.265634 0 0)
(-0.261001 0 0)
(-0.256364 0 0)
(-0.251723 0 0)
(-0.247079 0 0)
(-0.242431 0 0)
(-0.23778 0 0)
(-0.233125 0 0)
(-0.228468 0 0)
(-0.223807 0 0)
(-0.219143 0 0)
(-0.214476 0 0)
(-0.209805 0 0)
(-0.205132 0 0)
(-0.200456 0 0)
(-0.195778 0 0)
(-0.191096 0 0)
(-0.186412 0 0)
(-0.181725 0 0)
(-0.177036 0 0)
(-0.172344 0 0)
(-0.16765 0 0)
(-0.162954 0 0)
(-0.158255 0 0)
(-0.153554 0 0)
(-0.148851 0 0)
(-0.144146 0 0)
(-0.139439 0 0)
(-0.134731 0 0)
(-0.13002 0 0)
(-0.125307 0 0)
(-0.120593 0 0)
(-0.115877 0 0)
(-0.11116 0 0)
(-0.106441 0 0)
(-0.10172 0 0)
(-0.0969981 0 0)
(-0.0922749 0 0)
(-0.0875504 0 0)
(-0.0828248 0 0)
(-0.078098 0 0)
(-0.0733701 0 0)
(-0.0686412 0 0)
(-0.0639114 0 0)
(-0.0591807 0 0)
(-0.0544492 0 0)
(-0.049717 0 0)
(-0.0449841 0 0)
(-0.0402506 0 0)
(-0.0355165 0 0)
(-0.0307819 0 0)
(-0.026047 0 0)
(-0.0213116 0 0)
(-0.016576 0 0)
(-0.0118402 0 0)
(-0.00710417 0 0)
(-0.00236807 0 0)
)
;

boundaryField
{
    left
    {
        type            fixedValue;
        value           uniform (0 0 0);
    }
    right
    {
        type            fixedValue;
        value           uniform (0 0 0);
    }
    frontBackUpDown
    {
        type            empty;
    }
}


// ************************************************************************* //
