/*--------------------------------*- C++ -*----------------------------------*\
| =========                 |                                                 |
| \\      /  F ield         | OpenFOAM: The Open Source CFD Toolbox           |
|  \\    /   O peration     | Version:  2412                                  |
|   \\  /    A nd           | Website:  www.openfoam.com                      |
|    \\/     M anipulation  |                                                 |
\*---------------------------------------------------------------------------*/
FoamFile
{
    version     2.0;
    format      ascii;
    arch        "LSB;label=32;scalar=64";
    class       volVectorField;
    location    "0.21";
    object      U_0_0;
}
// * * * * * * * * * * * * * * * * * * * * * * * * * * * * * * * * * * * * * //

dimensions      [0 1 -1 0 0 0 0];

internalField   nonuniform List<vector> 
800
(
(0.00237027 0 0)
(0.00711085 0 0)
(0.0118513 0 0)
(0.0165917 0 0)
(0.0213318 0 0)
(0.0260716 0 0)
(0.0308111 0 0)
(0.0355501 0 0)
(0.0402887 0 0)
(0.0450267 0 0)
(0.0497641 0 0)
(0.0545008 0 0)
(0.0592367 0 0)
(0.0639719 0 0)
(0.0687062 0 0)
(0.0734395 0 0)
(0.0781718 0 0)
(0.0829031 0 0)
(0.0876332 0 0)
(0.0923622 0 0)
(0.0970898 0 0)
(0.101816 0 0)
(0.106541 0 0)
(0.111265 0 0)
(0.115986 0 0)
(0.120707 0 0)
(0.125425 0 0)
(0.130142 0 0)
(0.134858 0 0)
(0.139571 0 0)
(0.144282 0 0)
(0.148992 0 0)
(0.153699 0 0)
(0.158404 0 0)
(0.163107 0 0)
(0.167808 0 0)
(0.172506 0 0)
(0.177202 0 0)
(0.181896 0 0)
(0.186587 0 0)
(0.191275 0 0)
(0.195961 0 0)
(0.200644 0 0)
(0.205324 0 0)
(0.210002 0 0)
(0.214676 0 0)
(0.219347 0 0)
(0.224016 0 0)
(0.228681 0 0)
(0.233343 0 0)
(0.238002 0 0)
(0.242657 0 0)
(0.247309 0 0)
(0.251957 0 0)
(0.256602 0 0)
(0.261243 0 0)
(0.26588 0 0)
(0.270514 0 0)
(0.275144 0 0)
(0.27977 0 0)
(0.284392 0 0)
(0.289009 0 0)
(0.293623 0 0)
(0.298232 0 0)
(0.302837 0 0)
(0.307438 0 0)
(0.312035 0 0)
(0.316626 0 0)
(0.321214 0 0)
(0.325796 0 0)
(0.330374 0 0)
(0.334947 0 0)
(0.339515 0 0)
(0.344078 0 0)
(0.348636 0 0)
(0.353189 0 0)
(0.357737 0 0)
(0.362279 0 0)
(0.366816 0 0)
(0.371348 0 0)
(0.375874 0 0)
(0.380394 0 0)
(0.384909 0 0)
(0.389418 0 0)
(0.393921 0 0)
(0.398419 0 0)
(0.40291 0 0)
(0.407395 0 0)
(0.411874 0 0)
(0.416347 0 0)
(0.420814 0 0)
(0.425274 0 0)
(0.429727 0 0)
(0.434174 0 0)
(0.438614 0 0)
(0.443048 0 0)
(0.447475 0 0)
(0.451894 0 0)
(0.456307 0 0)
(0.460713 0 0)
(0.465111 0 0)
(0.469502 0 0)
(0.473886 0 0)
(0.478262 0 0)
(0.482631 0 0)
(0.486992 0 0)
(0.491345 0 0)
(0.495691 0 0)
(0.500028 0 0)
(0.504358 0 0)
(0.508679 0 0)
(0.512992 0 0)
(0.517297 0 0)
(0.521594 0 0)
(0.525882 0 0)
(0.530161 0 0)
(0.534432 0 0)
(0.538694 0 0)
(0.542946 0 0)
(0.54719 0 0)
(0.551425 0 0)
(0.555651 0 0)
(0.559867 0 0)
(0.564074 0 0)
(0.568271 0 0)
(0.572459 0 0)
(0.576637 0 0)
(0.580805 0 0)
(0.584963 0 0)
(0.589111 0 0)
(0.593249 0 0)
(0.597377 0 0)
(0.601494 0 0)
(0.605601 0 0)
(0.609697 0 0)
(0.613782 0 0)
(0.617857 0 0)
(0.62192 0 0)
(0.625973 0 0)
(0.630014 0 0)
(0.634044 0 0)
(0.638062 0 0)
(0.642069 0 0)
(0.646064 0 0)
(0.650048 0 0)
(0.654019 0 0)
(0.657978 0 0)
(0.661925 0 0)
(0.66586 0 0)
(0.669782 0 0)
(0.673692 0 0)
(0.677589 0 0)
(0.681473 0 0)
(0.685344 0 0)
(0.689202 0 0)
(0.693046 0 0)
(0.696878 0 0)
(0.700695 0 0)
(0.704499 0 0)
(0.708289 0 0)
(0.712066 0 0)
(0.715828 0 0)
(0.719575 0 0)
(0.723308 0 0)
(0.727027 0 0)
(0.730731 0 0)
(0.73442 0 0)
(0.738094 0 0)
(0.741753 0 0)
(0.745396 0 0)
(0.749024 0 0)
(0.752636 0 0)
(0.756232 0 0)
(0.759813 0 0)
(0.763377 0 0)
(0.766924 0 0)
(0.770455 0 0)
(0.77397 0 0)
(0.777467 0 0)
(0.780948 0 0)
(0.784411 0 0)
(0.787857 0 0)
(0.791285 0 0)
(0.794695 0 0)
(0.798088 0 0)
(0.801462 0 0)
(0.804817 0 0)
(0.808155 0 0)
(0.811473 0 0)
(0.814772 0 0)
(0.818053 0 0)
(0.821314 0 0)
(0.824555 0 0)
(0.827776 0 0)
(0.830978 0 0)
(0.834159 0 0)
(0.83732 0 0)
(0.84046 0 0)
(0.843579 0 0)
(0.846677 0 0)
(0.849753 0 0)
(0.852808 0 0)
(0.855841 0 0)
(0.858853 0 0)
(0.861841 0 0)
(0.864808 0 0)
(0.867751 0 0)
(0.870671 0 0)
(0.873568 0 0)
(0.876442 0 0)
(0.879291 0 0)
(0.882117 0 0)
(0.884918 0 0)
(0.887694 0 0)
(0.890446 0 0)
(0.893172 0 0)
(0.895873 0 0)
(0.898548 0 0)
(0.901197 0 0)
(0.903819 0 0)
(0.906415 0 0)
(0.908984 0 0)
(0.911525 0 0)
(0.914039 0 0)
(0.916525 0 0)
(0.918982 0 0)
(0.921411 0 0)
(0.923811 0 0)
(0.926182 0 0)
(0.928523 0 0)
(0.930834 0 0)
(0.933114 0 0)
(0.935364 0 0)
(0.937583 0 0)
(0.93977 0 0)
(0.941925 0 0)
(0.944049 0 0)
(0.946139 0 0)
(0.948196 0 0)
(0.95022 0 0)
(0.952211 0 0)
(0.954166 0 0)
(0.956088 0 0)
(0.957973 0 0)
(0.959824 0 0)
(0.961638 0 0)
(0.963416 0 0)
(0.965157 0 0)
(0.96686 0 0)
(0.968525 0 0)
(0.970152 0 0)
(0.97174 0 0)
(0.973289 0 0)
(0.974798 0 0)
(0.976266 0 0)
(0.977693 0 0)
(0.979078 0 0)
(0.980422 0 0)
(0.981723 0 0)
(0.98298 0 0)
(0.984194 0 0)
(0.985363 0 0)
(0.986487 0 0)
(0.987565 0 0)
(0.988597 0 0)
(0.989582 0 0)
(0.990519 0 0)
(0.991408 0 0)
(0.992248 0 0)
(0.993038 0 0)
(0.993778 0 0)
(0.994467 0 0)
(0.995103 0 0)
(0.995687 0 0)
(0.996218 0 0)
(0.996695 0 0)
(0.997116 0 0)
(0.997481 0 0)
(0.99779 0 0)
(0.998041 0 0)
(0.998234 0 0)
(0.998368 0 0)
(0.998441 0 0)
(0.998453 0 0)
(0.998402 0 0)
(0.998289 0 0)
(0.998112 0 0)
(0.997869 0 0)
(0.99756 0 0)
(0.997184 0 0)
(0.996739 0 0)
(0.996225 0 0)
(0.995641 0 0)
(0.994984 0 0)
(0.994255 0 0)
(0.993451 0 0)
(0.992572 0 0)
(0.991616 0 0)
(0.990582 0 0)
(0.989468 0 0)
(0.988274 0 0)
(0.986997 0 0)
(0.985637 0 0)
(0.984191 0 0)
(0.982659 0 0)
(0.981038 0 0)
(0.979328 0 0)
(0.977525 0 0)
(0.97563 0 0)
(0.97364 0 0)
(0.971553 0 0)
(0.969367 0 0)
(0.967081 0 0)
(0.964693 0 0)
(0.9622 0 0)
(0.959601 0 0)
(0.956893 0 0)
(0.954075 0 0)
(0.951144 0 0)
(0.948098 0 0)
(0.944935 0 0)
(0.941652 0 0)
(0.938247 0 0)
(0.934717 0 0)
(0.93106 0 0)
(0.927273 0 0)
(0.923353 0 0)
(0.919298 0 0)
(0.915105 0 0)
(0.91077 0 0)
(0.906291 0 0)
(0.901664 0 0)
(0.896887 0 0)
(0.891955 0 0)
(0.886867 0 0)
(0.881617 0 0)
(0.876202 0 0)
(0.870619 0 0)
(0.864865 0 0)
(0.858934 0 0)
(0.852823 0 0)
(0.846527 0 0)
(0.840044 0 0)
(0.833367 0 0)
(0.826493 0 0)
(0.819417 0 0)
(0.812134 0 0)
(0.80464 0 0)
(0.796929 0 0)
(0.788997 0 0)
(0.780837 0 0)
(0.772445 0 0)
(0.763816 0 0)
(0.754943 0 0)
(0.745822 0 0)
(0.736445 0 0)
(0.726808 0 0)
(0.716904 0 0)
(0.706728 0 0)
(0.696272 0 0)
(0.685531 0 0)
(0.6745 0 0)
(0.66317 0 0)
(0.651537 0 0)
(0.639593 0 0)
(0.627333 0 0)
(0.614751 0 0)
(0.601841 0 0)
(0.588596 0 0)
(0.575012 0 0)
(0.561082 0 0)
(0.546803 0 0)
(0.532168 0 0)
(0.517175 0 0)
(0.501819 0 0)
(0.486098 0 0)
(0.470009 0 0)
(0.45355 0 0)
(0.436722 0 0)
(0.419523 0 0)
(0.401957 0 0)
(0.384025 0 0)
(0.365732 0 0)
(0.347082 0 0)
(0.328083 0 0)
(0.308743 0 0)
(0.289073 0 0)
(0.269084 0 0)
(0.248791 0 0)
(0.228208 0 0)
(0.207353 0 0)
(0.186245 0 0)
(0.164906 0 0)
(0.143357 0 0)
(0.121624 0 0)
(0.0997326 0 0)
(0.0777088 0 0)
(0.0555812 0 0)
(0.0333789 0 0)
(0.0111314 0 0)
(-0.0111311 0 0)
(-0.0333785 0 0)
(-0.0555807 0 0)
(-0.0777082 0 0)
(-0.0997318 0 0)
(-0.121623 0 0)
(-0.143356 0 0)
(-0.164904 0 0)
(-0.186243 0 0)
(-0.20735 0 0)
(-0.228205 0 0)
(-0.248788 0 0)
(-0.269081 0 0)
(-0.28907 0 0)
(-0.308739 0 0)
(-0.328079 0 0)
(-0.347077 0 0)
(-0.365726 0 0)
(-0.38402 0 0)
(-0.401951 0 0)
(-0.419517 0 0)
(-0.436715 0 0)
(-0.453544 0 0)
(-0.470002 0 0)
(-0.486091 0 0)
(-0.501812 0 0)
(-0.517168 0 0)
(-0.532161 0 0)
(-0.546795 0 0)
(-0.561075 0 0)
(-0.575004 0 0)
(-0.588589 0 0)
(-0.601833 0 0)
(-0.614744 0 0)
(-0.627326 0 0)
(-0.639586 0 0)
(-0.651529 0 0)
(-0.663163 0 0)
(-0.674492 0 0)
(-0.685524 0 0)
(-0.696265 0 0)
(-0.706721 0 0)
(-0.716897 0 0)
(-0.726801 0 0)
(-0.736439 0 0)
(-0.745815 0 0)
(-0.754937 0 0)
(-0.76381 0 0)
(-0.772439 0 0)
(-0.780831 0 0)
(-0.788991 0 0)
(-0.796924 0 0)
(-0.804635 0 0)
(-0.812129 0 0)
(-0.819412 0 0)
(-0.826488 0 0)
(-0.833362 0 0)
(-0.840039 0 0)
(-0.846523 0 0)
(-0.852819 0 0)
(-0.85893 0 0)
(-0.864861 0 0)
(-0.870616 0 0)
(-0.876199 0 0)
(-0.881613 0 0)
(-0.886863 0 0)
(-0.891952 0 0)
(-0.896884 0 0)
(-0.901661 0 0)
(-0.906288 0 0)
(-0.910767 0 0)
(-0.915102 0 0)
(-0.919296 0 0)
(-0.923351 0 0)
(-0.927271 0 0)
(-0.931058 0 0)
(-0.934715 0 0)
(-0.938245 0 0)
(-0.94165 0 0)
(-0.944933 0 0)
(-0.948097 0 0)
(-0.951143 0 0)
(-0.954074 0 0)
(-0.956892 0 0)
(-0.9596 0 0)
(-0.962199 0 0)
(-0.964692 0 0)
(-0.96708 0 0)
(-0.969366 0 0)
(-0.971552 0 0)
(-0.973639 0 0)
(-0.975629 0 0)
(-0.977525 0 0)
(-0.979327 0 0)
(-0.981038 0 0)
(-0.982658 0 0)
(-0.984191 0 0)
(-0.985636 0 0)
(-0.986997 0 0)
(-0.988273 0 0)
(-0.989468 0 0)
(-0.990581 0 0)
(-0.991616 0 0)
(-0.992572 0 0)
(-0.993451 0 0)
(-0.994255 0 0)
(-0.994984 0 0)
(-0.995641 0 0)
(-0.996225 0 0)
(-0.996739 0 0)
(-0.997184 0 0)
(-0.99756 0 0)
(-0.997869 0 0)
(-0.998112 0 0)
(-0.998289 0 0)
(-0.998402 0 0)
(-0.998453 0 0)
(-0.998441 0 0)
(-0.998368 0 0)
(-0.998234 0 0)
(-0.998041 0 0)
(-0.99779 0 0)
(-0.997481 0 0)
(-0.997116 0 0)
(-0.996694 0 0)
(-0.996218 0 0)
(-0.995687 0 0)
(-0.995103 0 0)
(-0.994467 0 0)
(-0.993778 0 0)
(-0.993038 0 0)
(-0.992248 0 0)
(-0.991408 0 0)
(-0.990519 0 0)
(-0.989582 0 0)
(-0.988597 0 0)
(-0.987565 0 0)
(-0.986486 0 0)
(-0.985362 0 0)
(-0.984193 0 0)
(-0.98298 0 0)
(-0.981722 0 0)
(-0.980421 0 0)
(-0.979078 0 0)
(-0.977693 0 0)
(-0.976265 0 0)
(-0.974797 0 0)
(-0.973289 0 0)
(-0.97174 0 0)
(-0.970152 0 0)
(-0.968525 0 0)
(-0.966859 0 0)
(-0.965156 0 0)
(-0.963415 0 0)
(-0.961637 0 0)
(-0.959823 0 0)
(-0.957973 0 0)
(-0.956087 0 0)
(-0.954166 0 0)
(-0.95221 0 0)
(-0.95022 0 0)
(-0.948196 0 0)
(-0.946138 0 0)
(-0.944048 0 0)
(-0.941925 0 0)
(-0.939769 0 0)
(-0.937582 0 0)
(-0.935363 0 0)
(-0.933113 0 0)
(-0.930833 0 0)
(-0.928522 0 0)
(-0.926181 0 0)
(-0.92381 0 0)
(-0.92141 0 0)
(-0.918981 0 0)
(-0.916524 0 0)
(-0.914038 0 0)
(-0.911524 0 0)
(-0.908983 0 0)
(-0.906414 0 0)
(-0.903818 0 0)
(-0.901196 0 0)
(-0.898547 0 0)
(-0.895872 0 0)
(-0.893171 0 0)
(-0.890445 0 0)
(-0.887693 0 0)
(-0.884917 0 0)
(-0.882116 0 0)
(-0.87929 0 0)
(-0.876441 0 0)
(-0.873567 0 0)
(-0.87067 0 0)
(-0.86775 0 0)
(-0.864806 0 0)
(-0.86184 0 0)
(-0.858851 0 0)
(-0.85584 0 0)
(-0.852807 0 0)
(-0.849752 0 0)
(-0.846675 0 0)
(-0.843577 0 0)
(-0.840458 0 0)
(-0.837318 0 0)
(-0.834157 0 0)
(-0.830976 0 0)
(-0.827775 0 0)
(-0.824553 0 0)
(-0.821312 0 0)
(-0.818051 0 0)
(-0.814771 0 0)
(-0.811471 0 0)
(-0.808153 0 0)
(-0.804816 0 0)
(-0.80146 0 0)
(-0.798086 0 0)
(-0.794694 0 0)
(-0.791283 0 0)
(-0.787855 0 0)
(-0.784409 0 0)
(-0.780946 0 0)
(-0.777466 0 0)
(-0.773968 0 0)
(-0.770454 0 0)
(-0.766923 0 0)
(-0.763375 0 0)
(-0.759811 0 0)
(-0.756231 0 0)
(-0.752634 0 0)
(-0.749022 0 0)
(-0.745394 0 0)
(-0.741751 0 0)
(-0.738092 0 0)
(-0.734418 0 0)
(-0.730729 0 0)
(-0.727025 0 0)
(-0.723307 0 0)
(-0.719574 0 0)
(-0.715826 0 0)
(-0.712064 0 0)
(-0.708288 0 0)
(-0.704498 0 0)
(-0.700694 0 0)
(-0.696876 0 0)
(-0.693045 0 0)
(-0.6892 0 0)
(-0.685342 0 0)
(-0.681471 0 0)
(-0.677587 0 0)
(-0.67369 0 0)
(-0.669781 0 0)
(-0.665858 0 0)
(-0.661924 0 0)
(-0.657977 0 0)
(-0.654017 0 0)
(-0.650046 0 0)
(-0.646063 0 0)
(-0.642068 0 0)
(-0.638061 0 0)
(-0.634042 0 0)
(-0.630012 0 0)
(-0.625971 0 0)
(-0.621919 0 0)
(-0.617855 0 0)
(-0.613781 0 0)
(-0.609696 0 0)
(-0.605599 0 0)
(-0.601493 0 0)
(-0.597376 0 0)
(-0.593248 0 0)
(-0.58911 0 0)
(-0.584962 0 0)
(-0.580804 0 0)
(-0.576636 0 0)
(-0.572458 0 0)
(-0.56827 0 0)
(-0.564073 0 0)
(-0.559866 0 0)
(-0.55565 0 0)
(-0.551424 0 0)
(-0.547189 0 0)
(-0.542945 0 0)
(-0.538692 0 0)
(-0.534431 0 0)
(-0.53016 0 0)
(-0.525881 0 0)
(-0.521593 0 0)
(-0.517296 0 0)
(-0.512991 0 0)
(-0.508678 0 0)
(-0.504357 0 0)
(-0.500027 0 0)
(-0.49569 0 0)
(-0.491344 0 0)
(-0.486991 0 0)
(-0.48263 0 0)
(-0.478261 0 0)
(-0.473885 0 0)
(-0.469501 0 0)
(-0.46511 0 0)
(-0.460712 0 0)
(-0.456306 0 0)
(-0.451893 0 0)
(-0.447474 0 0)
(-0.443047 0 0)
(-0.438614 0 0)
(-0.434173 0 0)
(-0.429726 0 0)
(-0.425273 0 0)
(-0.420813 0 0)
(-0.416346 0 0)
(-0.411874 0 0)
(-0.407395 0 0)
(-0.402909 0 0)
(-0.398418 0 0)
(-0.393921 0 0)
(-0.389418 0 0)
(-0.384908 0 0)
(-0.380394 0 0)
(-0.375873 0 0)
(-0.371347 0 0)
(-0.366815 0 0)
(-0.362278 0 0)
(-0.357736 0 0)
(-0.353188 0 0)
(-0.348635 0 0)
(-0.344077 0 0)
(-0.339514 0 0)
(-0.334946 0 0)
(-0.330373 0 0)
(-0.325796 0 0)
(-0.321213 0 0)
(-0.316626 0 0)
(-0.312034 0 0)
(-0.307438 0 0)
(-0.302837 0 0)
(-0.298232 0 0)
(-0.293623 0 0)
(-0.289009 0 0)
(-0.284391 0 0)
(-0.279769 0 0)
(-0.275143 0 0)
(-0.270514 0 0)
(-0.26588 0 0)
(-0.261243 0 0)
(-0.256601 0 0)
(-0.251957 0 0)
(-0.247308 0 0)
(-0.242657 0 0)
(-0.238001 0 0)
(-0.233343 0 0)
(-0.228681 0 0)
(-0.224015 0 0)
(-0.219347 0 0)
(-0.214676 0 0)
(-0.210001 0 0)
(-0.205324 0 0)
(-0.200644 0 0)
(-0.195961 0 0)
(-0.191275 0 0)
(-0.186587 0 0)
(-0.181896 0 0)
(-0.177202 0 0)
(-0.172506 0 0)
(-0.167808 0 0)
(-0.163107 0 0)
(-0.158404 0 0)
(-0.153699 0 0)
(-0.148992 0 0)
(-0.144282 0 0)
(-0.139571 0 0)
(-0.134857 0 0)
(-0.130142 0 0)
(-0.125425 0 0)
(-0.120707 0 0)
(-0.115986 0 0)
(-0.111264 0 0)
(-0.106541 0 0)
(-0.101816 0 0)
(-0.0970898 0 0)
(-0.0923621 0 0)
(-0.0876332 0 0)
(-0.0829031 0 0)
(-0.0781718 0 0)
(-0.0734395 0 0)
(-0.0687062 0 0)
(-0.0639719 0 0)
(-0.0592367 0 0)
(-0.0545008 0 0)
(-0.0497641 0 0)
(-0.0450267 0 0)
(-0.0402887 0 0)
(-0.0355501 0 0)
(-0.0308111 0 0)
(-0.0260716 0 0)
(-0.0213318 0 0)
(-0.0165917 0 0)
(-0.0118514 0 0)
(-0.0071109 0 0)
(-0.00237031 0 0)
)
;

boundaryField
{
    left
    {
        type            fixedValue;
        value           uniform (0 0 0);
    }
    right
    {
        type            fixedValue;
        value           uniform (0 0 0);
    }
    frontBackUpDown
    {
        type            empty;
    }
}


// ************************************************************************* //
