/*--------------------------------*- C++ -*----------------------------------*\
| =========                 |                                                 |
| \\      /  F ield         | OpenFOAM: The Open Source CFD Toolbox           |
|  \\    /   O peration     | Version:  2412                                  |
|   \\  /    A nd           | Website:  www.openfoam.com                      |
|    \\/     M anipulation  |                                                 |
\*---------------------------------------------------------------------------*/
FoamFile
{
    version     2.0;
    format      ascii;
    arch        "LSB;label=32;scalar=64";
    class       volVectorField;
    location    "0.21";
    object      U_0_0_0;
}
// * * * * * * * * * * * * * * * * * * * * * * * * * * * * * * * * * * * * * //

dimensions      [0 1 -1 0 0 0 0];

internalField   nonuniform List<vector> 
800
(
(0.00237252 0 0)
(0.0071176 0 0)
(0.0118626 0 0)
(0.0166074 0 0)
(0.021352 0 0)
(0.0260963 0 0)
(0.0308403 0 0)
(0.0355838 0 0)
(0.0403269 0 0)
(0.0450693 0 0)
(0.0498112 0 0)
(0.0545524 0 0)
(0.0592929 0 0)
(0.0640325 0 0)
(0.0687712 0 0)
(0.073509 0 0)
(0.0782458 0 0)
(0.0829816 0 0)
(0.0877161 0 0)
(0.0924495 0 0)
(0.0971816 0 0)
(0.101912 0 0)
(0.106642 0 0)
(0.11137 0 0)
(0.116096 0 0)
(0.120821 0 0)
(0.125544 0 0)
(0.130265 0 0)
(0.134985 0 0)
(0.139702 0 0)
(0.144418 0 0)
(0.149132 0 0)
(0.153844 0 0)
(0.158553 0 0)
(0.163261 0 0)
(0.167966 0 0)
(0.172668 0 0)
(0.177369 0 0)
(0.182067 0 0)
(0.186762 0 0)
(0.191455 0 0)
(0.196145 0 0)
(0.200832 0 0)
(0.205516 0 0)
(0.210198 0 0)
(0.214877 0 0)
(0.219552 0 0)
(0.224225 0 0)
(0.228894 0 0)
(0.23356 0 0)
(0.238223 0 0)
(0.242883 0 0)
(0.247539 0 0)
(0.252191 0 0)
(0.25684 0 0)
(0.261485 0 0)
(0.266127 0 0)
(0.270765 0 0)
(0.275399 0 0)
(0.280029 0 0)
(0.284654 0 0)
(0.289276 0 0)
(0.293894 0 0)
(0.298507 0 0)
(0.303116 0 0)
(0.307721 0 0)
(0.312321 0 0)
(0.316917 0 0)
(0.321508 0 0)
(0.326095 0 0)
(0.330676 0 0)
(0.335253 0 0)
(0.339825 0 0)
(0.344392 0 0)
(0.348954 0 0)
(0.35351 0 0)
(0.358062 0 0)
(0.362608 0 0)
(0.367149 0 0)
(0.371684 0 0)
(0.376214 0 0)
(0.380738 0 0)
(0.385257 0 0)
(0.389769 0 0)
(0.394276 0 0)
(0.398777 0 0)
(0.403272 0 0)
(0.407761 0 0)
(0.412243 0 0)
(0.41672 0 0)
(0.421189 0 0)
(0.425653 0 0)
(0.43011 0 0)
(0.43456 0 0)
(0.439004 0 0)
(0.443441 0 0)
(0.447871 0 0)
(0.452294 0 0)
(0.45671 0 0)
(0.461119 0 0)
(0.46552 0 0)
(0.469914 0 0)
(0.474301 0 0)
(0.478681 0 0)
(0.483053 0 0)
(0.487417 0 0)
(0.491773 0 0)
(0.496121 0 0)
(0.500462 0 0)
(0.504794 0 0)
(0.509119 0 0)
(0.513435 0 0)
(0.517742 0 0)
(0.522042 0 0)
(0.526332 0 0)
(0.530615 0 0)
(0.534888 0 0)
(0.539152 0 0)
(0.543408 0 0)
(0.547655 0 0)
(0.551892 0 0)
(0.55612 0 0)
(0.560339 0 0)
(0.564548 0 0)
(0.568748 0 0)
(0.572938 0 0)
(0.577118 0 0)
(0.581289 0 0)
(0.585449 0 0)
(0.5896 0 0)
(0.59374 0 0)
(0.59787 0 0)
(0.601989 0 0)
(0.606098 0 0)
(0.610196 0 0)
(0.614283 0 0)
(0.61836 0 0)
(0.622425 0 0)
(0.62648 0 0)
(0.630523 0 0)
(0.634554 0 0)
(0.638575 0 0)
(0.642583 0 0)
(0.64658 0 0)
(0.650565 0 0)
(0.654538 0 0)
(0.658499 0 0)
(0.662447 0 0)
(0.666383 0 0)
(0.670307 0 0)
(0.674218 0 0)
(0.678116 0 0)
(0.682002 0 0)
(0.685874 0 0)
(0.689733 0 0)
(0.693579 0 0)
(0.697411 0 0)
(0.70123 0 0)
(0.705035 0 0)
(0.708826 0 0)
(0.712603 0 0)
(0.716365 0 0)
(0.720114 0 0)
(0.723848 0 0)
(0.727567 0 0)
(0.731272 0 0)
(0.734961 0 0)
(0.738636 0 0)
(0.742295 0 0)
(0.745939 0 0)
(0.749567 0 0)
(0.753179 0 0)
(0.756776 0 0)
(0.760356 0 0)
(0.76392 0 0)
(0.767468 0 0)
(0.770999 0 0)
(0.774513 0 0)
(0.77801 0 0)
(0.781491 0 0)
(0.784954 0 0)
(0.788399 0 0)
(0.791827 0 0)
(0.795236 0 0)
(0.798628 0 0)
(0.802002 0 0)
(0.805357 0 0)
(0.808693 0 0)
(0.812011 0 0)
(0.815309 0 0)
(0.818588 0 0)
(0.821848 0 0)
(0.825088 0 0)
(0.828309 0 0)
(0.831509 0 0)
(0.834688 0 0)
(0.837848 0 0)
(0.840986 0 0)
(0.844104 0 0)
(0.8472 0 0)
(0.850275 0 0)
(0.853328 0 0)
(0.856359 0 0)
(0.859369 0 0)
(0.862355 0 0)
(0.865319 0 0)
(0.868261 0 0)
(0.871179 0 0)
(0.874073 0 0)
(0.876944 0 0)
(0.879791 0 0)
(0.882614 0 0)
(0.885412 0 0)
(0.888186 0 0)
(0.890935 0 0)
(0.893658 0 0)
(0.896355 0 0)
(0.899027 0 0)
(0.901673 0 0)
(0.904292 0 0)
(0.906884 0 0)
(0.909449 0 0)
(0.911987 0 0)
(0.914497 0 0)
(0.916979 0 0)
(0.919432 0 0)
(0.921857 0 0)
(0.924253 0 0)
(0.926619 0 0)
(0.928955 0 0)
(0.931262 0 0)
(0.933538 0 0)
(0.935783 0 0)
(0.937997 0 0)
(0.940179 0 0)
(0.942329 0 0)
(0.944447 0 0)
(0.946533 0 0)
(0.948585 0 0)
(0.950603 0 0)
(0.952587 0 0)
(0.954537 0 0)
(0.956453 0 0)
(0.958333 0 0)
(0.960177 0 0)
(0.961985 0 0)
(0.963756 0 0)
(0.96549 0 0)
(0.967187 0 0)
(0.968846 0 0)
(0.970466 0 0)
(0.972047 0 0)
(0.973588 0 0)
(0.975089 0 0)
(0.97655 0 0)
(0.977969 0 0)
(0.979347 0 0)
(0.980683 0 0)
(0.981975 0 0)
(0.983224 0 0)
(0.98443 0 0)
(0.98559 0 0)
(0.986705 0 0)
(0.987775 0 0)
(0.988798 0 0)
(0.989774 0 0)
(0.990702 0 0)
(0.991581 0 0)
(0.992412 0 0)
(0.993192 0 0)
(0.993922 0 0)
(0.9946 0 0)
(0.995227 0 0)
(0.9958 0 0)
(0.99632 0 0)
(0.996786 0 0)
(0.997196 0 0)
(0.997551 0 0)
(0.997848 0 0)
(0.998088 0 0)
(0.998269 0 0)
(0.998391 0 0)
(0.998452 0 0)
(0.998451 0 0)
(0.998389 0 0)
(0.998263 0 0)
(0.998072 0 0)
(0.997817 0 0)
(0.997495 0 0)
(0.997105 0 0)
(0.996647 0 0)
(0.996119 0 0)
(0.99552 0 0)
(0.99485 0 0)
(0.994106 0 0)
(0.993287 0 0)
(0.992393 0 0)
(0.991422 0 0)
(0.990373 0 0)
(0.989244 0 0)
(0.988033 0 0)
(0.986741 0 0)
(0.985364 0 0)
(0.983902 0 0)
(0.982353 0 0)
(0.980716 0 0)
(0.978988 0 0)
(0.977169 0 0)
(0.975256 0 0)
(0.973248 0 0)
(0.971143 0 0)
(0.968939 0 0)
(0.966635 0 0)
(0.964228 0 0)
(0.961716 0 0)
(0.959098 0 0)
(0.956371 0 0)
(0.953533 0 0)
(0.950583 0 0)
(0.947517 0 0)
(0.944333 0 0)
(0.94103 0 0)
(0.937604 0 0)
(0.934053 0 0)
(0.930375 0 0)
(0.926567 0 0)
(0.922626 0 0)
(0.918549 0 0)
(0.914334 0 0)
(0.909977 0 0)
(0.905476 0 0)
(0.900827 0 0)
(0.896027 0 0)
(0.891073 0 0)
(0.885961 0 0)
(0.880689 0 0)
(0.875251 0 0)
(0.869645 0 0)
(0.863867 0 0)
(0.857913 0 0)
(0.851779 0 0)
(0.84546 0 0)
(0.838953 0 0)
(0.832254 0 0)
(0.825357 0 0)
(0.818258 0 0)
(0.810952 0 0)
(0.803435 0 0)
(0.795701 0 0)
(0.787746 0 0)
(0.779565 0 0)
(0.771151 0 0)
(0.762501 0 0)
(0.753607 0 0)
(0.744465 0 0)
(0.735069 0 0)
(0.725412 0 0)
(0.71549 0 0)
(0.705296 0 0)
(0.694823 0 0)
(0.684067 0 0)
(0.67302 0 0)
(0.661677 0 0)
(0.650031 0 0)
(0.638077 0 0)
(0.625807 0 0)
(0.613217 0 0)
(0.600301 0 0)
(0.587052 0 0)
(0.573465 0 0)
(0.559536 0 0)
(0.545259 0 0)
(0.530629 0 0)
(0.515644 0 0)
(0.500299 0 0)
(0.484591 0 0)
(0.468519 0 0)
(0.452081 0 0)
(0.435276 0 0)
(0.418106 0 0)
(0.400571 0 0)
(0.382674 0 0)
(0.364421 0 0)
(0.345815 0 0)
(0.326864 0 0)
(0.307577 0 0)
(0.287963 0 0)
(0.268035 0 0)
(0.247807 0 0)
(0.227293 0 0)
(0.206512 0 0)
(0.185481 0 0)
(0.164223 0 0)
(0.142759 0 0)
(0.121112 0 0)
(0.09931 0 0)
(0.0773778 0 0)
(0.0553436 0 0)
(0.0332358 0 0)
(0.0110837 0 0)
(-0.0110833 0 0)
(-0.0332354 0 0)
(-0.0553431 0 0)
(-0.0773772 0 0)
(-0.0993093 0 0)
(-0.121111 0 0)
(-0.142757 0 0)
(-0.164221 0 0)
(-0.18548 0 0)
(-0.20651 0 0)
(-0.227291 0 0)
(-0.247804 0 0)
(-0.268032 0 0)
(-0.28796 0 0)
(-0.307573 0 0)
(-0.32686 0 0)
(-0.34581 0 0)
(-0.364415 0 0)
(-0.382669 0 0)
(-0.400565 0 0)
(-0.4181 0 0)
(-0.43527 0 0)
(-0.452074 0 0)
(-0.468512 0 0)
(-0.484584 0 0)
(-0.500292 0 0)
(-0.515637 0 0)
(-0.530622 0 0)
(-0.545251 0 0)
(-0.559529 0 0)
(-0.573458 0 0)
(-0.587044 0 0)
(-0.600293 0 0)
(-0.61321 0 0)
(-0.6258 0 0)
(-0.638069 0 0)
(-0.650024 0 0)
(-0.66167 0 0)
(-0.673013 0 0)
(-0.68406 0 0)
(-0.694816 0 0)
(-0.705289 0 0)
(-0.715483 0 0)
(-0.725406 0 0)
(-0.735062 0 0)
(-0.744459 0 0)
(-0.753601 0 0)
(-0.762495 0 0)
(-0.771146 0 0)
(-0.779559 0 0)
(-0.787741 0 0)
(-0.795696 0 0)
(-0.803429 0 0)
(-0.810947 0 0)
(-0.818253 0 0)
(-0.825352 0 0)
(-0.832249 0 0)
(-0.838949 0 0)
(-0.845456 0 0)
(-0.851775 0 0)
(-0.857909 0 0)
(-0.863863 0 0)
(-0.869642 0 0)
(-0.875248 0 0)
(-0.880685 0 0)
(-0.885958 0 0)
(-0.89107 0 0)
(-0.896024 0 0)
(-0.900824 0 0)
(-0.905473 0 0)
(-0.909974 0 0)
(-0.914331 0 0)
(-0.918547 0 0)
(-0.922624 0 0)
(-0.926565 0 0)
(-0.930373 0 0)
(-0.934051 0 0)
(-0.937602 0 0)
(-0.941028 0 0)
(-0.944332 0 0)
(-0.947515 0 0)
(-0.950581 0 0)
(-0.953532 0 0)
(-0.95637 0 0)
(-0.959097 0 0)
(-0.961715 0 0)
(-0.964227 0 0)
(-0.966634 0 0)
(-0.968938 0 0)
(-0.971142 0 0)
(-0.973247 0 0)
(-0.975255 0 0)
(-0.977168 0 0)
(-0.978988 0 0)
(-0.980715 0 0)
(-0.982353 0 0)
(-0.983902 0 0)
(-0.985364 0 0)
(-0.986741 0 0)
(-0.988033 0 0)
(-0.989243 0 0)
(-0.990372 0 0)
(-0.991422 0 0)
(-0.992393 0 0)
(-0.993287 0 0)
(-0.994106 0 0)
(-0.99485 0 0)
(-0.99552 0 0)
(-0.996119 0 0)
(-0.996647 0 0)
(-0.997105 0 0)
(-0.997495 0 0)
(-0.997817 0 0)
(-0.998072 0 0)
(-0.998263 0 0)
(-0.998389 0 0)
(-0.998451 0 0)
(-0.998452 0 0)
(-0.998391 0 0)
(-0.998269 0 0)
(-0.998088 0 0)
(-0.997848 0 0)
(-0.997551 0 0)
(-0.997196 0 0)
(-0.996786 0 0)
(-0.99632 0 0)
(-0.9958 0 0)
(-0.995227 0 0)
(-0.9946 0 0)
(-0.993922 0 0)
(-0.993192 0 0)
(-0.992411 0 0)
(-0.991581 0 0)
(-0.990702 0 0)
(-0.989773 0 0)
(-0.988798 0 0)
(-0.987775 0 0)
(-0.986705 0 0)
(-0.98559 0 0)
(-0.984429 0 0)
(-0.983224 0 0)
(-0.981975 0 0)
(-0.980682 0 0)
(-0.979347 0 0)
(-0.977969 0 0)
(-0.976549 0 0)
(-0.975089 0 0)
(-0.973587 0 0)
(-0.972046 0 0)
(-0.970465 0 0)
(-0.968845 0 0)
(-0.967186 0 0)
(-0.96549 0 0)
(-0.963755 0 0)
(-0.961984 0 0)
(-0.960176 0 0)
(-0.958332 0 0)
(-0.956452 0 0)
(-0.954537 0 0)
(-0.952587 0 0)
(-0.950602 0 0)
(-0.948584 0 0)
(-0.946532 0 0)
(-0.944447 0 0)
(-0.942329 0 0)
(-0.940178 0 0)
(-0.937996 0 0)
(-0.935782 0 0)
(-0.933537 0 0)
(-0.931261 0 0)
(-0.928955 0 0)
(-0.926618 0 0)
(-0.924252 0 0)
(-0.921856 0 0)
(-0.919431 0 0)
(-0.916978 0 0)
(-0.914496 0 0)
(-0.911986 0 0)
(-0.909448 0 0)
(-0.906883 0 0)
(-0.904291 0 0)
(-0.901671 0 0)
(-0.899026 0 0)
(-0.896354 0 0)
(-0.893657 0 0)
(-0.890933 0 0)
(-0.888185 0 0)
(-0.885411 0 0)
(-0.882613 0 0)
(-0.87979 0 0)
(-0.876943 0 0)
(-0.874072 0 0)
(-0.871177 0 0)
(-0.868259 0 0)
(-0.865318 0 0)
(-0.862354 0 0)
(-0.859367 0 0)
(-0.856358 0 0)
(-0.853327 0 0)
(-0.850274 0 0)
(-0.847199 0 0)
(-0.844102 0 0)
(-0.840985 0 0)
(-0.837846 0 0)
(-0.834687 0 0)
(-0.831507 0 0)
(-0.828307 0 0)
(-0.825087 0 0)
(-0.821847 0 0)
(-0.818587 0 0)
(-0.815308 0 0)
(-0.812009 0 0)
(-0.808692 0 0)
(-0.805355 0 0)
(-0.802 0 0)
(-0.798627 0 0)
(-0.795235 0 0)
(-0.791825 0 0)
(-0.788397 0 0)
(-0.784952 0 0)
(-0.781489 0 0)
(-0.778009 0 0)
(-0.774511 0 0)
(-0.770997 0 0)
(-0.767466 0 0)
(-0.763918 0 0)
(-0.760354 0 0)
(-0.756774 0 0)
(-0.753177 0 0)
(-0.749565 0 0)
(-0.745937 0 0)
(-0.742293 0 0)
(-0.738634 0 0)
(-0.73496 0 0)
(-0.73127 0 0)
(-0.727566 0 0)
(-0.723846 0 0)
(-0.720112 0 0)
(-0.716364 0 0)
(-0.712601 0 0)
(-0.708824 0 0)
(-0.705033 0 0)
(-0.701228 0 0)
(-0.69741 0 0)
(-0.693577 0 0)
(-0.689732 0 0)
(-0.685872 0 0)
(-0.682 0 0)
(-0.678115 0 0)
(-0.674217 0 0)
(-0.670306 0 0)
(-0.666382 0 0)
(-0.662446 0 0)
(-0.658497 0 0)
(-0.654536 0 0)
(-0.650563 0 0)
(-0.646578 0 0)
(-0.642582 0 0)
(-0.638573 0 0)
(-0.634553 0 0)
(-0.630521 0 0)
(-0.626478 0 0)
(-0.622424 0 0)
(-0.618358 0 0)
(-0.614282 0 0)
(-0.610195 0 0)
(-0.606096 0 0)
(-0.601988 0 0)
(-0.597868 0 0)
(-0.593739 0 0)
(-0.589598 0 0)
(-0.585448 0 0)
(-0.581288 0 0)
(-0.577117 0 0)
(-0.572937 0 0)
(-0.568747 0 0)
(-0.564547 0 0)
(-0.560338 0 0)
(-0.556119 0 0)
(-0.551891 0 0)
(-0.547653 0 0)
(-0.543407 0 0)
(-0.539151 0 0)
(-0.534887 0 0)
(-0.530613 0 0)
(-0.526331 0 0)
(-0.522041 0 0)
(-0.517741 0 0)
(-0.513434 0 0)
(-0.509118 0 0)
(-0.504793 0 0)
(-0.500461 0 0)
(-0.49612 0 0)
(-0.491772 0 0)
(-0.487416 0 0)
(-0.483051 0 0)
(-0.47868 0 0)
(-0.4743 0 0)
(-0.469913 0 0)
(-0.465519 0 0)
(-0.461118 0 0)
(-0.456709 0 0)
(-0.452293 0 0)
(-0.44787 0 0)
(-0.44344 0 0)
(-0.439003 0 0)
(-0.434559 0 0)
(-0.430109 0 0)
(-0.425652 0 0)
(-0.421189 0 0)
(-0.416719 0 0)
(-0.412242 0 0)
(-0.40776 0 0)
(-0.403271 0 0)
(-0.398776 0 0)
(-0.394275 0 0)
(-0.389769 0 0)
(-0.385256 0 0)
(-0.380737 0 0)
(-0.376213 0 0)
(-0.371684 0 0)
(-0.367148 0 0)
(-0.362607 0 0)
(-0.358061 0 0)
(-0.35351 0 0)
(-0.348953 0 0)
(-0.344391 0 0)
(-0.339824 0 0)
(-0.335253 0 0)
(-0.330676 0 0)
(-0.326094 0 0)
(-0.321508 0 0)
(-0.316917 0 0)
(-0.312321 0 0)
(-0.307721 0 0)
(-0.303116 0 0)
(-0.298507 0 0)
(-0.293893 0 0)
(-0.289276 0 0)
(-0.284654 0 0)
(-0.280028 0 0)
(-0.275398 0 0)
(-0.270764 0 0)
(-0.266127 0 0)
(-0.261485 0 0)
(-0.25684 0 0)
(-0.252191 0 0)
(-0.247538 0 0)
(-0.242882 0 0)
(-0.238223 0 0)
(-0.23356 0 0)
(-0.228894 0 0)
(-0.224225 0 0)
(-0.219552 0 0)
(-0.214876 0 0)
(-0.210198 0 0)
(-0.205516 0 0)
(-0.200832 0 0)
(-0.196144 0 0)
(-0.191454 0 0)
(-0.186762 0 0)
(-0.182066 0 0)
(-0.177369 0 0)
(-0.172668 0 0)
(-0.167965 0 0)
(-0.16326 0 0)
(-0.158553 0 0)
(-0.153844 0 0)
(-0.149132 0 0)
(-0.144418 0 0)
(-0.139702 0 0)
(-0.134985 0 0)
(-0.130265 0 0)
(-0.125544 0 0)
(-0.120821 0 0)
(-0.116096 0 0)
(-0.11137 0 0)
(-0.106642 0 0)
(-0.101912 0 0)
(-0.0971816 0 0)
(-0.0924495 0 0)
(-0.0877161 0 0)
(-0.0829815 0 0)
(-0.0782458 0 0)
(-0.073509 0 0)
(-0.0687712 0 0)
(-0.0640325 0 0)
(-0.0592928 0 0)
(-0.0545524 0 0)
(-0.0498112 0 0)
(-0.0450694 0 0)
(-0.0403269 0 0)
(-0.0355838 0 0)
(-0.0308403 0 0)
(-0.0260964 0 0)
(-0.0213521 0 0)
(-0.0166075 0 0)
(-0.0118626 0 0)
(-0.00711764 0 0)
(-0.00237256 0 0)
)
;

boundaryField
{
    left
    {
        type            fixedValue;
        value           uniform (0 0 0);
    }
    right
    {
        type            fixedValue;
        value           uniform (0 0 0);
    }
    frontBackUpDown
    {
        type            empty;
    }
}


// ************************************************************************* //
