/*--------------------------------*- C++ -*----------------------------------*\
| =========                 |                                                 |
| \\      /  F ield         | OpenFOAM: The Open Source CFD Toolbox           |
|  \\    /   O peration     | Version:  2412                                  |
|   \\  /    A nd           | Website:  www.openfoam.com                      |
|    \\/     M anipulation  |                                                 |
\*---------------------------------------------------------------------------*/
FoamFile
{
    version     2.0;
    format      ascii;
    arch        "LSB;label=32;scalar=64";
    class       surfaceScalarField;
    location    "0.43";
    object      phi;
}
// * * * * * * * * * * * * * * * * * * * * * * * * * * * * * * * * * * * * * //

dimensions      [0 3 -1 0 0 0 0];

oriented        oriented;

internalField   nonuniform List<scalar> 
799
(
3.34186e-05
6.68372e-05
0.000100256
0.000133673
0.000167091
0.000200507
0.000233923
0.000267337
0.00030075
0.000334161
0.000367571
0.00040098
0.000434386
0.00046779
0.000501192
0.000534592
0.000567989
0.000601383
0.000634774
0.000668162
0.000701547
0.000734929
0.000768307
0.000801681
0.000835052
0.000868418
0.000901781
0.000935138
0.000968492
0.00100184
0.00103518
0.00106852
0.00110186
0.00113518
0.00116851
0.00120182
0.00123514
0.00126844
0.00130174
0.00133503
0.00136832
0.0014016
0.00143487
0.00146814
0.00150139
0.00153465
0.00156789
0.00160112
0.00163435
0.00166757
0.00170078
0.00173399
0.00176718
0.00180037
0.00183354
0.00186671
0.00189987
0.00193302
0.00196616
0.00199929
0.00203241
0.00206552
0.00209862
0.00213171
0.00216479
0.00219785
0.00223091
0.00226396
0.00229699
0.00233001
0.00236302
0.00239602
0.00242901
0.00246198
0.00249494
0.00252789
0.00256083
0.00259375
0.00262666
0.00265956
0.00269244
0.00272531
0.00275817
0.00279101
0.00282383
0.00285665
0.00288944
0.00292223
0.00295499
0.00298774
0.00302048
0.0030532
0.00308591
0.00311859
0.00315127
0.00318392
0.00321656
0.00324918
0.00328179
0.00331437
0.00334694
0.0033795
0.00341203
0.00344455
0.00347704
0.00350952
0.00354198
0.00357442
0.00360684
0.00363925
0.00367163
0.00370399
0.00373633
0.00376865
0.00380096
0.00383324
0.00386549
0.00389773
0.00392995
0.00396214
0.00399432
0.00402647
0.0040586
0.0040907
0.00412278
0.00415484
0.00418688
0.00421889
0.00425088
0.00428284
0.00431478
0.0043467
0.00437859
0.00441045
0.00444229
0.00447411
0.00450589
0.00453766
0.00456939
0.0046011
0.00463278
0.00466444
0.00469606
0.00472766
0.00475924
0.00479078
0.00482229
0.00485378
0.00488523
0.00491666
0.00494806
0.00497943
0.00501076
0.00504207
0.00507334
0.00510459
0.0051358
0.00516698
0.00519813
0.00522925
0.00526033
0.00529138
0.0053224
0.00535338
0.00538433
0.00541524
0.00544612
0.00547697
0.00550778
0.00553855
0.00556929
0.00559999
0.00563066
0.00566129
0.00569188
0.00572243
0.00575295
0.00578343
0.00581386
0.00584426
0.00587462
0.00590494
0.00593522
0.00596546
0.00599566
0.00602581
0.00605593
0.006086
0.00611603
0.00614601
0.00617596
0.00620585
0.00623571
0.00626552
0.00629528
0.006325
0.00635468
0.0063843
0.00641388
0.00644342
0.0064729
0.00650234
0.00653172
0.00656106
0.00659035
0.00661959
0.00664878
0.00667792
0.006707
0.00673604
0.00676502
0.00679394
0.00682282
0.00685164
0.0068804
0.00690911
0.00693777
0.00696637
0.00699491
0.00702339
0.00705182
0.00708018
0.00710849
0.00713674
0.00716493
0.00719306
0.00722112
0.00724912
0.00727706
0.00730494
0.00733275
0.0073605
0.00738819
0.0074158
0.00744335
0.00747084
0.00749825
0.0075256
0.00755287
0.00758008
0.00760721
0.00763427
0.00766126
0.00768818
0.00771502
0.00774179
0.00776849
0.0077951
0.00782164
0.0078481
0.00787448
0.00790078
0.007927
0.00795314
0.0079792
0.00800517
0.00803106
0.00805687
0.00808258
0.00810821
0.00813376
0.00815921
0.00818457
0.00820984
0.00823502
0.00826011
0.0082851
0.00830999
0.00833479
0.00835949
0.00838409
0.0084086
0.008433
0.00845729
0.00848149
0.00850558
0.00852956
0.00855343
0.0085772
0.00860085
0.0086244
0.00864783
0.00867114
0.00869434
0.00871742
0.00874038
0.00876323
0.00878595
0.00880854
0.00883101
0.00885336
0.00887557
0.00889765
0.00891961
0.00894142
0.0089631
0.00898465
0.00900605
0.00902731
0.00904843
0.0090694
0.00909023
0.0091109
0.00913143
0.00915179
0.00917201
0.00919206
0.00921195
0.00923168
0.00925124
0.00927063
0.00928985
0.0093089
0.00932776
0.00934645
0.00936496
0.00938328
0.00940142
0.00941936
0.0094371
0.00945465
0.009472
0.00948914
0.00950607
0.00952279
0.0095393
0.00955559
0.00957165
0.00958749
0.00960309
0.00961846
0.00963359
0.00964847
0.0096631
0.00967748
0.0096916
0.00970546
0.00971904
0.00973235
0.00974539
0.00975813
0.00977058
0.00978274
0.00979459
0.00980613
0.00981735
0.00982824
0.0098388
0.00984903
0.0098589
0.00986842
0.00987757
0.00988635
0.00989475
0.00990276
0.00991037
0.00991756
0.00992433
0.00993067
0.00993656
0.009942
0.00994696
0.00995145
0.00995543
0.00995891
0.00996185
0.00996426
0.00996611
0.00996738
0.00996806
0.00996812
0.00996754
0.00996632
0.00996441
0.0099618
0.00995846
0.00995436
0.00994949
0.00994379
0.00993725
0.00992983
0.00992149
0.00991219
0.0099019
0.00989055
0.00987811
0.00986452
0.00984972
0.00983366
0.00981625
0.00979744
0.00977714
0.00975525
0.00973168
0.00970629
0.00967947
0.00964431
0.00968359
0.00772163
6.53741e-06
-0.00771492
-0.00968342
-0.0096443
-0.00967944
-0.00970627
-0.00973166
-0.00975523
-0.00977712
-0.00979743
-0.00981624
-0.00983365
-0.00984971
-0.00986451
-0.0098781
-0.00989054
-0.00990189
-0.00991219
-0.00992149
-0.00992983
-0.00993725
-0.00994379
-0.00994948
-0.00995436
-0.00995846
-0.0099618
-0.00996441
-0.00996631
-0.00996754
-0.00996812
-0.00996805
-0.00996738
-0.00996611
-0.00996426
-0.00996185
-0.00995891
-0.00995543
-0.00995144
-0.00994696
-0.009942
-0.00993656
-0.00993067
-0.00992433
-0.00991756
-0.00991036
-0.00990276
-0.00989475
-0.00988635
-0.00987757
-0.00986841
-0.0098589
-0.00984902
-0.0098388
-0.00982824
-0.00981734
-0.00980612
-0.00979458
-0.00978273
-0.00977058
-0.00975812
-0.00974538
-0.00973235
-0.00971904
-0.00970545
-0.00969159
-0.00967747
-0.00966309
-0.00964846
-0.00963358
-0.00961845
-0.00960308
-0.00958748
-0.00957164
-0.00955558
-0.00953929
-0.00952278
-0.00950606
-0.00948913
-0.00947199
-0.00945464
-0.00943709
-0.00941934
-0.0094014
-0.00938327
-0.00936495
-0.00934644
-0.00932775
-0.00930888
-0.00928983
-0.00927061
-0.00925122
-0.00923166
-0.00921193
-0.00919204
-0.00917199
-0.00915178
-0.00913141
-0.00911089
-0.00909021
-0.00906939
-0.00904842
-0.0090273
-0.00900603
-0.00898463
-0.00896309
-0.0089414
-0.00891959
-0.00889764
-0.00887555
-0.00885334
-0.00883099
-0.00880852
-0.00878593
-0.00876321
-0.00874036
-0.0087174
-0.00869432
-0.00867112
-0.00864781
-0.00862438
-0.00860083
-0.00857718
-0.00855341
-0.00852954
-0.00850555
-0.00848147
-0.00845727
-0.00843297
-0.00840857
-0.00838407
-0.00835947
-0.00833477
-0.00830997
-0.00828508
-0.00826008
-0.008235
-0.00820982
-0.00818455
-0.00815919
-0.00813373
-0.00810819
-0.00808256
-0.00805684
-0.00803104
-0.00800515
-0.00797918
-0.00795312
-0.00792698
-0.00790076
-0.00787446
-0.00784808
-0.00782162
-0.00779508
-0.00776846
-0.00774177
-0.007715
-0.00768816
-0.00766124
-0.00763425
-0.00760719
-0.00758005
-0.00755285
-0.00752557
-0.00749823
-0.00747081
-0.00744333
-0.00741578
-0.00738816
-0.00736048
-0.00733273
-0.00730492
-0.00727704
-0.0072491
-0.0072211
-0.00719303
-0.00716491
-0.00713672
-0.00710847
-0.00708016
-0.0070518
-0.00702337
-0.00699489
-0.00696635
-0.00693775
-0.00690909
-0.00688038
-0.00685162
-0.0068228
-0.00679392
-0.006765
-0.00673601
-0.00670698
-0.0066779
-0.00664876
-0.00661957
-0.00659033
-0.00656104
-0.0065317
-0.00650232
-0.00647288
-0.0064434
-0.00641386
-0.00638428
-0.00635466
-0.00632498
-0.00629526
-0.0062655
-0.00623569
-0.00620584
-0.00617594
-0.00614599
-0.00611601
-0.00608598
-0.00605591
-0.00602579
-0.00599564
-0.00596544
-0.0059352
-0.00590492
-0.0058746
-0.00584424
-0.00581385
-0.00578341
-0.00575293
-0.00572242
-0.00569186
-0.00566127
-0.00563064
-0.00559998
-0.00556928
-0.00553854
-0.00550776
-0.00547695
-0.00544611
-0.00541523
-0.00538431
-0.00535336
-0.00532238
-0.00529136
-0.00526031
-0.00522923
-0.00519811
-0.00516697
-0.00513579
-0.00510457
-0.00507333
-0.00504205
-0.00501075
-0.00497941
-0.00494804
-0.00491665
-0.00488522
-0.00485376
-0.00482228
-0.00479077
-0.00475922
-0.00472765
-0.00469605
-0.00466443
-0.00463277
-0.00460109
-0.00456938
-0.00453765
-0.00450588
-0.0044741
-0.00444228
-0.00441044
-0.00437858
-0.00434669
-0.00431477
-0.00428283
-0.00425087
-0.00421888
-0.00418687
-0.00415483
-0.00412277
-0.00409069
-0.00405859
-0.00402646
-0.00399431
-0.00396214
-0.00392994
-0.00389772
-0.00386549
-0.00383323
-0.00380095
-0.00376865
-0.00373632
-0.00370398
-0.00367162
-0.00363924
-0.00360684
-0.00357442
-0.00354197
-0.00350951
-0.00347704
-0.00344454
-0.00341202
-0.00337949
-0.00334694
-0.00331437
-0.00328178
-0.00324918
-0.00321655
-0.00318392
-0.00315126
-0.00311859
-0.0030859
-0.0030532
-0.00302048
-0.00298774
-0.00295499
-0.00292222
-0.00288944
-0.00285664
-0.00282383
-0.002791
-0.00275816
-0.00272531
-0.00269244
-0.00265956
-0.00262666
-0.00259375
-0.00256083
-0.00252789
-0.00249494
-0.00246198
-0.002429
-0.00239602
-0.00236302
-0.00233001
-0.00229699
-0.00226395
-0.00223091
-0.00219785
-0.00216478
-0.00213171
-0.00209862
-0.00206552
-0.00203241
-0.00199929
-0.00196616
-0.00193302
-0.00189987
-0.00186671
-0.00183354
-0.00180037
-0.00176718
-0.00173398
-0.00170078
-0.00166757
-0.00163435
-0.00160112
-0.00156789
-0.00153464
-0.00150139
-0.00146813
-0.00143487
-0.0014016
-0.00136832
-0.00133503
-0.00130174
-0.00126844
-0.00123513
-0.00120182
-0.00116851
-0.00113518
-0.00110186
-0.00106852
-0.00103518
-0.00100184
-0.000968491
-0.000935138
-0.00090178
-0.000868418
-0.000835051
-0.000801681
-0.000768307
-0.000734929
-0.000701547
-0.000668162
-0.000634774
-0.000601383
-0.000567988
-0.000534592
-0.000501192
-0.00046779
-0.000434386
-0.00040098
-0.000367572
-0.000334162
-0.00030075
-0.000267337
-0.000233923
-0.000200507
-0.000167091
-0.000133674
-0.000100256
-6.68375e-05
-3.34188e-05
)
;

boundaryField
{
    left
    {
        type            calculated;
        value           uniform 0;
    }
    right
    {
        type            calculated;
        value           uniform 0;
    }
    frontBackUpDown
    {
        type            empty;
    }
}


// ************************************************************************* //
