/*--------------------------------*- C++ -*----------------------------------*\
| =========                 |                                                 |
| \\      /  F ield         | OpenFOAM: The Open Source CFD Toolbox           |
|  \\    /   O peration     | Version:  2412                                  |
|   \\  /    A nd           | Website:  www.openfoam.com                      |
|    \\/     M anipulation  |                                                 |
\*---------------------------------------------------------------------------*/
FoamFile
{
    version     2.0;
    format      ascii;
    arch        "LSB;label=32;scalar=64";
    class       volVectorField;
    location    "0.43";
    object      U;
}
// * * * * * * * * * * * * * * * * * * * * * * * * * * * * * * * * * * * * * //

dimensions      [0 1 -1 0 0 0 0];

internalField   nonuniform List<vector> 
800
(
(0.00167092 0 0)
(0.00501279 0 0)
(0.00835465 0 0)
(0.0116965 0 0)
(0.0150382 0 0)
(0.0183799 0 0)
(0.0217215 0 0)
(0.025063 0 0)
(0.0284044 0 0)
(0.0317456 0 0)
(0.0350867 0 0)
(0.0384276 0 0)
(0.0417683 0 0)
(0.0451089 0 0)
(0.0484492 0 0)
(0.0517892 0 0)
(0.0551291 0 0)
(0.0584686 0 0)
(0.0618079 0 0)
(0.0651469 0 0)
(0.0684856 0 0)
(0.0718239 0 0)
(0.0751619 0 0)
(0.0784995 0 0)
(0.0818368 0 0)
(0.0851736 0 0)
(0.0885101 0 0)
(0.0918461 0 0)
(0.0951816 0 0)
(0.0985167 0 0)
(0.101851 0 0)
(0.105185 0 0)
(0.108519 0 0)
(0.111852 0 0)
(0.115185 0 0)
(0.118517 0 0)
(0.121848 0 0)
(0.125179 0 0)
(0.128509 0 0)
(0.131839 0 0)
(0.135168 0 0)
(0.138496 0 0)
(0.141824 0 0)
(0.14515 0 0)
(0.148477 0 0)
(0.151802 0 0)
(0.155127 0 0)
(0.158451 0 0)
(0.161774 0 0)
(0.165096 0 0)
(0.168418 0 0)
(0.171739 0 0)
(0.175059 0 0)
(0.178378 0 0)
(0.181696 0 0)
(0.185013 0 0)
(0.188329 0 0)
(0.191645 0 0)
(0.194959 0 0)
(0.198273 0 0)
(0.201585 0 0)
(0.204897 0 0)
(0.208207 0 0)
(0.211517 0 0)
(0.214825 0 0)
(0.218132 0 0)
(0.221439 0 0)
(0.224744 0 0)
(0.228048 0 0)
(0.23135 0 0)
(0.234652 0 0)
(0.237953 0 0)
(0.241252 0 0)
(0.24455 0 0)
(0.247847 0 0)
(0.251142 0 0)
(0.254436 0 0)
(0.257729 0 0)
(0.261021 0 0)
(0.264311 0 0)
(0.2676 0 0)
(0.270888 0 0)
(0.274174 0 0)
(0.277459 0 0)
(0.280742 0 0)
(0.284024 0 0)
(0.287305 0 0)
(0.290584 0 0)
(0.293861 0 0)
(0.297137 0 0)
(0.300412 0 0)
(0.303685 0 0)
(0.306956 0 0)
(0.310225 0 0)
(0.313493 0 0)
(0.31676 0 0)
(0.320025 0 0)
(0.323288 0 0)
(0.326549 0 0)
(0.329809 0 0)
(0.333066 0 0)
(0.336322 0 0)
(0.339577 0 0)
(0.342829 0 0)
(0.34608 0 0)
(0.349329 0 0)
(0.352576 0 0)
(0.355821 0 0)
(0.359064 0 0)
(0.362305 0 0)
(0.365544 0 0)
(0.368781 0 0)
(0.372017 0 0)
(0.37525 0 0)
(0.378481 0 0)
(0.38171 0 0)
(0.384937 0 0)
(0.388162 0 0)
(0.391385 0 0)
(0.394605 0 0)
(0.397824 0 0)
(0.40104 0 0)
(0.404254 0 0)
(0.407465 0 0)
(0.410675 0 0)
(0.413882 0 0)
(0.417087 0 0)
(0.420289 0 0)
(0.423489 0 0)
(0.426687 0 0)
(0.429882 0 0)
(0.433075 0 0)
(0.436265 0 0)
(0.439453 0 0)
(0.442638 0 0)
(0.445821 0 0)
(0.449001 0 0)
(0.452178 0 0)
(0.455353 0 0)
(0.458525 0 0)
(0.461695 0 0)
(0.464862 0 0)
(0.468026 0 0)
(0.471187 0 0)
(0.474346 0 0)
(0.477501 0 0)
(0.480654 0 0)
(0.483804 0 0)
(0.486951 0 0)
(0.490095 0 0)
(0.493237 0 0)
(0.496375 0 0)
(0.49951 0 0)
(0.502642 0 0)
(0.505771 0 0)
(0.508897 0 0)
(0.51202 0 0)
(0.51514 0 0)
(0.518256 0 0)
(0.52137 0 0)
(0.52448 0 0)
(0.527586 0 0)
(0.53069 0 0)
(0.53379 0 0)
(0.536886 0 0)
(0.539979 0 0)
(0.543069 0 0)
(0.546156 0 0)
(0.549238 0 0)
(0.552318 0 0)
(0.555393 0 0)
(0.558465 0 0)
(0.561534 0 0)
(0.564598 0 0)
(0.567659 0 0)
(0.570717 0 0)
(0.57377 0 0)
(0.57682 0 0)
(0.579865 0 0)
(0.582907 0 0)
(0.585945 0 0)
(0.588979 0 0)
(0.592009 0 0)
(0.595035 0 0)
(0.598057 0 0)
(0.601074 0 0)
(0.604088 0 0)
(0.607097 0 0)
(0.610102 0 0)
(0.613103 0 0)
(0.6161 0 0)
(0.619092 0 0)
(0.622079 0 0)
(0.625063 0 0)
(0.628041 0 0)
(0.631015 0 0)
(0.633985 0 0)
(0.63695 0 0)
(0.63991 0 0)
(0.642866 0 0)
(0.645817 0 0)
(0.648763 0 0)
(0.651704 0 0)
(0.654641 0 0)
(0.657572 0 0)
(0.660498 0 0)
(0.66342 0 0)
(0.666336 0 0)
(0.669247 0 0)
(0.672153 0 0)
(0.675054 0 0)
(0.677949 0 0)
(0.680839 0 0)
(0.683724 0 0)
(0.686603 0 0)
(0.689477 0 0)
(0.692345 0 0)
(0.695208 0 0)
(0.698065 0 0)
(0.700916 0 0)
(0.703762 0 0)
(0.706602 0 0)
(0.709435 0 0)
(0.712263 0 0)
(0.715085 0 0)
(0.717901 0 0)
(0.72071 0 0)
(0.723514 0 0)
(0.726311 0 0)
(0.729102 0 0)
(0.731886 0 0)
(0.734665 0 0)
(0.737436 0 0)
(0.740201 0 0)
(0.742959 0 0)
(0.745711 0 0)
(0.748456 0 0)
(0.751194 0 0)
(0.753925 0 0)
(0.756649 0 0)
(0.759366 0 0)
(0.762076 0 0)
(0.764779 0 0)
(0.767474 0 0)
(0.770162 0 0)
(0.772843 0 0)
(0.775516 0 0)
(0.778181 0 0)
(0.780839 0 0)
(0.783489 0 0)
(0.786131 0 0)
(0.788765 0 0)
(0.791391 0 0)
(0.794009 0 0)
(0.796619 0 0)
(0.799221 0 0)
(0.801814 0 0)
(0.804399 0 0)
(0.806975 0 0)
(0.809542 0 0)
(0.812101 0 0)
(0.81465 0 0)
(0.817191 0 0)
(0.819723 0 0)
(0.822245 0 0)
(0.824759 0 0)
(0.827263 0 0)
(0.829757 0 0)
(0.832242 0 0)
(0.834717 0 0)
(0.837182 0 0)
(0.839637 0 0)
(0.842082 0 0)
(0.844517 0 0)
(0.846942 0 0)
(0.849356 0 0)
(0.851759 0 0)
(0.854152 0 0)
(0.856534 0 0)
(0.858905 0 0)
(0.861265 0 0)
(0.863614 0 0)
(0.865951 0 0)
(0.868277 0 0)
(0.870591 0 0)
(0.872893 0 0)
(0.875184 0 0)
(0.877462 0 0)
(0.879728 0 0)
(0.881981 0 0)
(0.884222 0 0)
(0.88645 0 0)
(0.888664 0 0)
(0.890866 0 0)
(0.893055 0 0)
(0.89523 0 0)
(0.897391 0 0)
(0.899539 0 0)
(0.901672 0 0)
(0.903791 0 0)
(0.905896 0 0)
(0.907985 0 0)
(0.91006 0 0)
(0.91212 0 0)
(0.914165 0 0)
(0.916194 0 0)
(0.918207 0 0)
(0.920204 0 0)
(0.922185 0 0)
(0.92415 0 0)
(0.926098 0 0)
(0.928028 0 0)
(0.929942 0 0)
(0.931837 0 0)
(0.933715 0 0)
(0.935575 0 0)
(0.937417 0 0)
(0.93924 0 0)
(0.941043 0 0)
(0.942828 0 0)
(0.944593 0 0)
(0.946338 0 0)
(0.948062 0 0)
(0.949766 0 0)
(0.951449 0 0)
(0.95311 0 0)
(0.95475 0 0)
(0.956367 0 0)
(0.957963 0 0)
(0.959535 0 0)
(0.961083 0 0)
(0.962608 0 0)
(0.964109 0 0)
(0.965585 0 0)
(0.967036 0 0)
(0.968461 0 0)
(0.96986 0 0)
(0.971232 0 0)
(0.972577 0 0)
(0.973894 0 0)
(0.975183 0 0)
(0.976443 0 0)
(0.977674 0 0)
(0.978874 0 0)
(0.980043 0 0)
(0.981182 0 0)
(0.982287 0 0)
(0.983361 0 0)
(0.9844 0 0)
(0.985405 0 0)
(0.986375 0 0)
(0.987309 0 0)
(0.988206 0 0)
(0.989065 0 0)
(0.989886 0 0)
(0.990666 0 0)
(0.991407 0 0)
(0.992105 0 0)
(0.992761 0 0)
(0.993373 0 0)
(0.99394 0 0)
(0.99446 0 0)
(0.994933 0 0)
(0.995356 0 0)
(0.99573 0 0)
(0.996051 0 0)
(0.99632 0 0)
(0.996533 0 0)
(0.996689 0 0)
(0.996787 0 0)
(0.996824 0 0)
(0.996799 0 0)
(0.99671 0 0)
(0.996553 0 0)
(0.996328 0 0)
(0.996031 0 0)
(0.99566 0 0)
(0.995212 0 0)
(0.994685 0 0)
(0.994074 0 0)
(0.993377 0 0)
(0.99259 0 0)
(0.991709 0 0)
(0.99073 0 0)
(0.989649 0 0)
(0.988461 0 0)
(0.987161 0 0)
(0.985743 0 0)
(0.984201 0 0)
(0.98253 0 0)
(0.980721 0 0)
(0.978767 0 0)
(0.97666 0 0)
(0.97439 0 0)
(0.971947 0 0)
(0.969311 0 0)
(0.966583 0 0)
(0.96228 0 0)
(0.974438 0 0)
(0.569888 0 0)
(-0.568581 0 0)
(-0.974403 0 0)
(-0.962281 0 0)
(-0.96658 0 0)
(-0.969309 0 0)
(-0.971944 0 0)
(-0.974388 0 0)
(-0.976658 0 0)
(-0.978766 0 0)
(-0.98072 0 0)
(-0.982529 0 0)
(-0.9842 0 0)
(-0.985742 0 0)
(-0.98716 0 0)
(-0.98846 0 0)
(-0.989648 0 0)
(-0.99073 0 0)
(-0.991708 0 0)
(-0.992589 0 0)
(-0.993376 0 0)
(-0.994074 0 0)
(-0.994685 0 0)
(-0.995212 0 0)
(-0.99566 0 0)
(-0.996031 0 0)
(-0.996328 0 0)
(-0.996553 0 0)
(-0.99671 0 0)
(-0.996799 0 0)
(-0.996824 0 0)
(-0.996787 0 0)
(-0.996689 0 0)
(-0.996533 0 0)
(-0.996319 0 0)
(-0.996051 0 0)
(-0.99573 0 0)
(-0.995356 0 0)
(-0.994933 0 0)
(-0.99446 0 0)
(-0.993939 0 0)
(-0.993373 0 0)
(-0.992761 0 0)
(-0.992105 0 0)
(-0.991406 0 0)
(-0.990666 0 0)
(-0.989885 0 0)
(-0.989065 0 0)
(-0.988205 0 0)
(-0.987308 0 0)
(-0.986375 0 0)
(-0.985405 0 0)
(-0.9844 0 0)
(-0.98336 0 0)
(-0.982287 0 0)
(-0.981181 0 0)
(-0.980043 0 0)
(-0.978873 0 0)
(-0.977673 0 0)
(-0.976442 0 0)
(-0.975182 0 0)
(-0.973893 0 0)
(-0.972576 0 0)
(-0.971231 0 0)
(-0.969859 0 0)
(-0.96846 0 0)
(-0.967035 0 0)
(-0.965584 0 0)
(-0.964108 0 0)
(-0.962607 0 0)
(-0.961082 0 0)
(-0.959534 0 0)
(-0.957961 0 0)
(-0.956366 0 0)
(-0.954749 0 0)
(-0.953109 0 0)
(-0.951448 0 0)
(-0.949765 0 0)
(-0.948061 0 0)
(-0.946336 0 0)
(-0.944591 0 0)
(-0.942827 0 0)
(-0.941042 0 0)
(-0.939238 0 0)
(-0.937415 0 0)
(-0.935574 0 0)
(-0.933714 0 0)
(-0.931836 0 0)
(-0.92994 0 0)
(-0.928027 0 0)
(-0.926096 0 0)
(-0.924148 0 0)
(-0.922184 0 0)
(-0.920203 0 0)
(-0.918206 0 0)
(-0.916192 0 0)
(-0.914163 0 0)
(-0.912119 0 0)
(-0.910059 0 0)
(-0.907984 0 0)
(-0.905894 0 0)
(-0.903789 0 0)
(-0.90167 0 0)
(-0.899537 0 0)
(-0.897389 0 0)
(-0.895228 0 0)
(-0.893053 0 0)
(-0.890864 0 0)
(-0.888663 0 0)
(-0.886448 0 0)
(-0.88422 0 0)
(-0.881979 0 0)
(-0.879726 0 0)
(-0.87746 0 0)
(-0.875182 0 0)
(-0.872891 0 0)
(-0.870589 0 0)
(-0.868275 0 0)
(-0.865949 0 0)
(-0.863612 0 0)
(-0.861263 0 0)
(-0.858903 0 0)
(-0.856532 0 0)
(-0.85415 0 0)
(-0.851757 0 0)
(-0.849354 0 0)
(-0.84694 0 0)
(-0.844515 0 0)
(-0.84208 0 0)
(-0.839635 0 0)
(-0.83718 0 0)
(-0.834715 0 0)
(-0.832239 0 0)
(-0.829755 0 0)
(-0.82726 0 0)
(-0.824757 0 0)
(-0.822243 0 0)
(-0.819721 0 0)
(-0.817189 0 0)
(-0.814648 0 0)
(-0.812099 0 0)
(-0.80954 0 0)
(-0.806972 0 0)
(-0.804396 0 0)
(-0.801812 0 0)
(-0.799219 0 0)
(-0.796617 0 0)
(-0.794007 0 0)
(-0.791389 0 0)
(-0.788763 0 0)
(-0.786129 0 0)
(-0.783487 0 0)
(-0.780837 0 0)
(-0.778179 0 0)
(-0.775514 0 0)
(-0.772841 0 0)
(-0.77016 0 0)
(-0.767472 0 0)
(-0.764777 0 0)
(-0.762074 0 0)
(-0.759364 0 0)
(-0.756647 0 0)
(-0.753923 0 0)
(-0.751192 0 0)
(-0.748454 0 0)
(-0.745709 0 0)
(-0.742957 0 0)
(-0.740199 0 0)
(-0.737434 0 0)
(-0.734662 0 0)
(-0.731884 0 0)
(-0.7291 0 0)
(-0.726309 0 0)
(-0.723512 0 0)
(-0.720708 0 0)
(-0.717899 0 0)
(-0.715083 0 0)
(-0.712261 0 0)
(-0.709433 0 0)
(-0.706599 0 0)
(-0.70376 0 0)
(-0.700914 0 0)
(-0.698063 0 0)
(-0.695206 0 0)
(-0.692343 0 0)
(-0.689475 0 0)
(-0.686601 0 0)
(-0.683722 0 0)
(-0.680837 0 0)
(-0.677947 0 0)
(-0.675052 0 0)
(-0.672151 0 0)
(-0.669245 0 0)
(-0.666334 0 0)
(-0.663418 0 0)
(-0.660496 0 0)
(-0.65757 0 0)
(-0.654639 0 0)
(-0.651702 0 0)
(-0.648761 0 0)
(-0.645815 0 0)
(-0.642864 0 0)
(-0.639909 0 0)
(-0.636948 0 0)
(-0.633983 0 0)
(-0.631014 0 0)
(-0.628039 0 0)
(-0.625061 0 0)
(-0.622077 0 0)
(-0.61909 0 0)
(-0.616098 0 0)
(-0.613101 0 0)
(-0.6101 0 0)
(-0.607095 0 0)
(-0.604086 0 0)
(-0.601073 0 0)
(-0.598055 0 0)
(-0.595033 0 0)
(-0.592007 0 0)
(-0.588977 0 0)
(-0.585943 0 0)
(-0.582906 0 0)
(-0.579864 0 0)
(-0.576818 0 0)
(-0.573768 0 0)
(-0.570715 0 0)
(-0.567658 0 0)
(-0.564597 0 0)
(-0.561532 0 0)
(-0.558464 0 0)
(-0.555392 0 0)
(-0.552316 0 0)
(-0.549237 0 0)
(-0.546154 0 0)
(-0.543068 0 0)
(-0.539978 0 0)
(-0.536885 0 0)
(-0.533788 0 0)
(-0.530688 0 0)
(-0.527585 0 0)
(-0.524478 0 0)
(-0.521368 0 0)
(-0.518255 0 0)
(-0.515138 0 0)
(-0.512019 0 0)
(-0.508896 0 0)
(-0.50577 0 0)
(-0.502641 0 0)
(-0.499509 0 0)
(-0.496374 0 0)
(-0.493235 0 0)
(-0.490094 0 0)
(-0.48695 0 0)
(-0.483803 0 0)
(-0.480653 0 0)
(-0.4775 0 0)
(-0.474344 0 0)
(-0.471186 0 0)
(-0.468025 0 0)
(-0.464861 0 0)
(-0.461694 0 0)
(-0.458524 0 0)
(-0.455352 0 0)
(-0.452177 0 0)
(-0.449 0 0)
(-0.44582 0 0)
(-0.442637 0 0)
(-0.439452 0 0)
(-0.436264 0 0)
(-0.433074 0 0)
(-0.429881 0 0)
(-0.426686 0 0)
(-0.423488 0 0)
(-0.420288 0 0)
(-0.417086 0 0)
(-0.413881 0 0)
(-0.410674 0 0)
(-0.407464 0 0)
(-0.404253 0 0)
(-0.401039 0 0)
(-0.397823 0 0)
(-0.394604 0 0)
(-0.391384 0 0)
(-0.388161 0 0)
(-0.384936 0 0)
(-0.381709 0 0)
(-0.37848 0 0)
(-0.375249 0 0)
(-0.372016 0 0)
(-0.368781 0 0)
(-0.365543 0 0)
(-0.362304 0 0)
(-0.359063 0 0)
(-0.35582 0 0)
(-0.352575 0 0)
(-0.349328 0 0)
(-0.346079 0 0)
(-0.342829 0 0)
(-0.339576 0 0)
(-0.336322 0 0)
(-0.333066 0 0)
(-0.329808 0 0)
(-0.326548 0 0)
(-0.323287 0 0)
(-0.320024 0 0)
(-0.316759 0 0)
(-0.313493 0 0)
(-0.310225 0 0)
(-0.306955 0 0)
(-0.303684 0 0)
(-0.300411 0 0)
(-0.297137 0 0)
(-0.293861 0 0)
(-0.290583 0 0)
(-0.287304 0 0)
(-0.284024 0 0)
(-0.280742 0 0)
(-0.277459 0 0)
(-0.274174 0 0)
(-0.270888 0 0)
(-0.2676 0 0)
(-0.264311 0 0)
(-0.261021 0 0)
(-0.257729 0 0)
(-0.254436 0 0)
(-0.251142 0 0)
(-0.247846 0 0)
(-0.244549 0 0)
(-0.241251 0 0)
(-0.237952 0 0)
(-0.234652 0 0)
(-0.23135 0 0)
(-0.228047 0 0)
(-0.224743 0 0)
(-0.221438 0 0)
(-0.218132 0 0)
(-0.214825 0 0)
(-0.211516 0 0)
(-0.208207 0 0)
(-0.204896 0 0)
(-0.201585 0 0)
(-0.198273 0 0)
(-0.194959 0 0)
(-0.191645 0 0)
(-0.188329 0 0)
(-0.185013 0 0)
(-0.181696 0 0)
(-0.178377 0 0)
(-0.175058 0 0)
(-0.171739 0 0)
(-0.168418 0 0)
(-0.165096 0 0)
(-0.161774 0 0)
(-0.158451 0 0)
(-0.155127 0 0)
(-0.151802 0 0)
(-0.148477 0 0)
(-0.14515 0 0)
(-0.141823 0 0)
(-0.138496 0 0)
(-0.135168 0 0)
(-0.131839 0 0)
(-0.128509 0 0)
(-0.125179 0 0)
(-0.121848 0 0)
(-0.118517 0 0)
(-0.115185 0 0)
(-0.111852 0 0)
(-0.108519 0 0)
(-0.105185 0 0)
(-0.101851 0 0)
(-0.0985167 0 0)
(-0.0951816 0 0)
(-0.091846 0 0)
(-0.08851 0 0)
(-0.0851736 0 0)
(-0.0818367 0 0)
(-0.0784995 0 0)
(-0.0751619 0 0)
(-0.0718239 0 0)
(-0.0684855 0 0)
(-0.0651469 0 0)
(-0.0618079 0 0)
(-0.0584686 0 0)
(-0.0551291 0 0)
(-0.0517892 0 0)
(-0.0484492 0 0)
(-0.0451089 0 0)
(-0.0417683 0 0)
(-0.0384276 0 0)
(-0.0350867 0 0)
(-0.0317456 0 0)
(-0.0284044 0 0)
(-0.025063 0 0)
(-0.0217215 0 0)
(-0.0183799 0 0)
(-0.0150382 0 0)
(-0.0116965 0 0)
(-0.00835467 0 0)
(-0.00501282 0 0)
(-0.00167094 0 0)
)
;

boundaryField
{
    left
    {
        type            fixedValue;
        value           uniform (0 0 0);
    }
    right
    {
        type            fixedValue;
        value           uniform (0 0 0);
    }
    frontBackUpDown
    {
        type            empty;
    }
}


// ************************************************************************* //
