/*--------------------------------*- C++ -*----------------------------------*\
| =========                 |                                                 |
| \\      /  F ield         | OpenFOAM: The Open Source CFD Toolbox           |
|  \\    /   O peration     | Version:  2412                                  |
|   \\  /    A nd           | Website:  www.openfoam.com                      |
|    \\/     M anipulation  |                                                 |
\*---------------------------------------------------------------------------*/
FoamFile
{
    version     2.0;
    format      ascii;
    arch        "LSB;label=32;scalar=64";
    class       volVectorField;
    location    "0.43";
    object      U_0_0;
}
// * * * * * * * * * * * * * * * * * * * * * * * * * * * * * * * * * * * * * //

dimensions      [0 1 -1 0 0 0 0];

internalField   nonuniform List<vector> 
800
(
(0.00167315 0 0)
(0.00501949 0 0)
(0.00836581 0 0)
(0.0117121 0 0)
(0.0150583 0 0)
(0.0184045 0 0)
(0.0217505 0 0)
(0.0250965 0 0)
(0.0284423 0 0)
(0.031788 0 0)
(0.0351336 0 0)
(0.0384789 0 0)
(0.0418241 0 0)
(0.0451691 0 0)
(0.0485139 0 0)
(0.0518584 0 0)
(0.0552027 0 0)
(0.0585467 0 0)
(0.0618904 0 0)
(0.0652339 0 0)
(0.068577 0 0)
(0.0719198 0 0)
(0.0752622 0 0)
(0.0786043 0 0)
(0.081946 0 0)
(0.0852873 0 0)
(0.0886281 0 0)
(0.0919686 0 0)
(0.0953086 0 0)
(0.0986481 0 0)
(0.101987 0 0)
(0.105326 0 0)
(0.108664 0 0)
(0.112001 0 0)
(0.115338 0 0)
(0.118675 0 0)
(0.12201 0 0)
(0.125346 0 0)
(0.12868 0 0)
(0.132014 0 0)
(0.135348 0 0)
(0.13868 0 0)
(0.142012 0 0)
(0.145344 0 0)
(0.148674 0 0)
(0.152004 0 0)
(0.155333 0 0)
(0.158661 0 0)
(0.161989 0 0)
(0.165316 0 0)
(0.168642 0 0)
(0.171967 0 0)
(0.175291 0 0)
(0.178614 0 0)
(0.181937 0 0)
(0.185258 0 0)
(0.188579 0 0)
(0.191899 0 0)
(0.195218 0 0)
(0.198535 0 0)
(0.201852 0 0)
(0.205168 0 0)
(0.208483 0 0)
(0.211797 0 0)
(0.215109 0 0)
(0.218421 0 0)
(0.221731 0 0)
(0.225041 0 0)
(0.228349 0 0)
(0.231656 0 0)
(0.234962 0 0)
(0.238267 0 0)
(0.24157 0 0)
(0.244872 0 0)
(0.248173 0 0)
(0.251473 0 0)
(0.254772 0 0)
(0.258069 0 0)
(0.261365 0 0)
(0.264659 0 0)
(0.267952 0 0)
(0.271244 0 0)
(0.274535 0 0)
(0.277823 0 0)
(0.281111 0 0)
(0.284397 0 0)
(0.287682 0 0)
(0.290965 0 0)
(0.294246 0 0)
(0.297526 0 0)
(0.300805 0 0)
(0.304082 0 0)
(0.307357 0 0)
(0.310631 0 0)
(0.313903 0 0)
(0.317174 0 0)
(0.320442 0 0)
(0.323709 0 0)
(0.326975 0 0)
(0.330238 0 0)
(0.3335 0 0)
(0.33676 0 0)
(0.340019 0 0)
(0.343275 0 0)
(0.34653 0 0)
(0.349782 0 0)
(0.353033 0 0)
(0.356282 0 0)
(0.359529 0 0)
(0.362774 0 0)
(0.366018 0 0)
(0.369259 0 0)
(0.372498 0 0)
(0.375735 0 0)
(0.37897 0 0)
(0.382203 0 0)
(0.385434 0 0)
(0.388662 0 0)
(0.391889 0 0)
(0.395113 0 0)
(0.398335 0 0)
(0.401555 0 0)
(0.404773 0 0)
(0.407989 0 0)
(0.411202 0 0)
(0.414413 0 0)
(0.417621 0 0)
(0.420827 0 0)
(0.424031 0 0)
(0.427232 0 0)
(0.430431 0 0)
(0.433627 0 0)
(0.436821 0 0)
(0.440013 0 0)
(0.443202 0 0)
(0.446388 0 0)
(0.449572 0 0)
(0.452753 0 0)
(0.455931 0 0)
(0.459107 0 0)
(0.46228 0 0)
(0.46545 0 0)
(0.468618 0 0)
(0.471783 0 0)
(0.474945 0 0)
(0.478104 0 0)
(0.48126 0 0)
(0.484414 0 0)
(0.487564 0 0)
(0.490712 0 0)
(0.493856 0 0)
(0.496998 0 0)
(0.500136 0 0)
(0.503272 0 0)
(0.506404 0 0)
(0.509533 0 0)
(0.512659 0 0)
(0.515782 0 0)
(0.518902 0 0)
(0.522018 0 0)
(0.525132 0 0)
(0.528241 0 0)
(0.531348 0 0)
(0.534451 0 0)
(0.537551 0 0)
(0.540647 0 0)
(0.54374 0 0)
(0.546829 0 0)
(0.549915 0 0)
(0.552997 0 0)
(0.556076 0 0)
(0.559151 0 0)
(0.562222 0 0)
(0.56529 0 0)
(0.568354 0 0)
(0.571414 0 0)
(0.57447 0 0)
(0.577523 0 0)
(0.580571 0 0)
(0.583616 0 0)
(0.586657 0 0)
(0.589693 0 0)
(0.592726 0 0)
(0.595755 0 0)
(0.598779 0 0)
(0.601799 0 0)
(0.604816 0 0)
(0.607828 0 0)
(0.610835 0 0)
(0.613838 0 0)
(0.616837 0 0)
(0.619832 0 0)
(0.622822 0 0)
(0.625808 0 0)
(0.628789 0 0)
(0.631766 0 0)
(0.634738 0 0)
(0.637705 0 0)
(0.640668 0 0)
(0.643626 0 0)
(0.646579 0 0)
(0.649527 0 0)
(0.65247 0 0)
(0.655409 0 0)
(0.658342 0 0)
(0.661271 0 0)
(0.664194 0 0)
(0.667113 0 0)
(0.670026 0 0)
(0.672934 0 0)
(0.675837 0 0)
(0.678734 0 0)
(0.681626 0 0)
(0.684512 0 0)
(0.687394 0 0)
(0.690269 0 0)
(0.693139 0 0)
(0.696003 0 0)
(0.698862 0 0)
(0.701715 0 0)
(0.704562 0 0)
(0.707403 0 0)
(0.710239 0 0)
(0.713068 0 0)
(0.715891 0 0)
(0.718709 0 0)
(0.72152 0 0)
(0.724324 0 0)
(0.727123 0 0)
(0.729915 0 0)
(0.732701 0 0)
(0.73548 0 0)
(0.738253 0 0)
(0.741019 0 0)
(0.743778 0 0)
(0.746531 0 0)
(0.749277 0 0)
(0.752016 0 0)
(0.754748 0 0)
(0.757473 0 0)
(0.760191 0 0)
(0.762901 0 0)
(0.765605 0 0)
(0.768301 0 0)
(0.770989 0 0)
(0.77367 0 0)
(0.776344 0 0)
(0.77901 0 0)
(0.781668 0 0)
(0.784318 0 0)
(0.786961 0 0)
(0.789595 0 0)
(0.792222 0 0)
(0.79484 0 0)
(0.79745 0 0)
(0.800051 0 0)
(0.802644 0 0)
(0.805229 0 0)
(0.807805 0 0)
(0.810372 0 0)
(0.812931 0 0)
(0.81548 0 0)
(0.81802 0 0)
(0.820552 0 0)
(0.823074 0 0)
(0.825587 0 0)
(0.82809 0 0)
(0.830583 0 0)
(0.833067 0 0)
(0.835542 0 0)
(0.838006 0 0)
(0.84046 0 0)
(0.842904 0 0)
(0.845338 0 0)
(0.847762 0 0)
(0.850174 0 0)
(0.852577 0 0)
(0.854968 0 0)
(0.857349 0 0)
(0.859718 0 0)
(0.862077 0 0)
(0.864424 0 0)
(0.866759 0 0)
(0.869083 0 0)
(0.871395 0 0)
(0.873695 0 0)
(0.875984 0 0)
(0.878259 0 0)
(0.880523 0 0)
(0.882774 0 0)
(0.885012 0 0)
(0.887238 0 0)
(0.88945 0 0)
(0.891649 0 0)
(0.893835 0 0)
(0.896007 0 0)
(0.898165 0 0)
(0.900309 0 0)
(0.902439 0 0)
(0.904555 0 0)
(0.906656 0 0)
(0.908742 0 0)
(0.910813 0 0)
(0.91287 0 0)
(0.91491 0 0)
(0.916935 0 0)
(0.918944 0 0)
(0.920937 0 0)
(0.922914 0 0)
(0.924873 0 0)
(0.926816 0 0)
(0.928742 0 0)
(0.930651 0 0)
(0.932541 0 0)
(0.934414 0 0)
(0.936268 0 0)
(0.938104 0 0)
(0.939921 0 0)
(0.941719 0 0)
(0.943498 0 0)
(0.945256 0 0)
(0.946995 0 0)
(0.948713 0 0)
(0.95041 0 0)
(0.952086 0 0)
(0.95374 0 0)
(0.955372 0 0)
(0.956983 0 0)
(0.95857 0 0)
(0.960134 0 0)
(0.961675 0 0)
(0.963191 0 0)
(0.964683 0 0)
(0.966151 0 0)
(0.967592 0 0)
(0.969008 0 0)
(0.970398 0 0)
(0.97176 0 0)
(0.973096 0 0)
(0.974403 0 0)
(0.975681 0 0)
(0.97693 0 0)
(0.97815 0 0)
(0.979339 0 0)
(0.980497 0 0)
(0.981623 0 0)
(0.982717 0 0)
(0.983777 0 0)
(0.984804 0 0)
(0.985795 0 0)
(0.986752 0 0)
(0.987671 0 0)
(0.988554 0 0)
(0.989399 0 0)
(0.990204 0 0)
(0.990969 0 0)
(0.991693 0 0)
(0.992375 0 0)
(0.993014 0 0)
(0.993609 0 0)
(0.994157 0 0)
(0.994659 0 0)
(0.995113 0 0)
(0.995517 0 0)
(0.99587 0 0)
(0.996171 0 0)
(0.996418 0 0)
(0.996609 0 0)
(0.996742 0 0)
(0.996816 0 0)
(0.996829 0 0)
(0.996779 0 0)
(0.996664 0 0)
(0.99648 0 0)
(0.996227 0 0)
(0.995902 0 0)
(0.995501 0 0)
(0.995022 0 0)
(0.994462 0 0)
(0.993818 0 0)
(0.993086 0 0)
(0.992263 0 0)
(0.991345 0 0)
(0.990327 0 0)
(0.989206 0 0)
(0.987975 0 0)
(0.986631 0 0)
(0.985167 0 0)
(0.983577 0 0)
(0.981854 0 0)
(0.979992 0 0)
(0.977982 0 0)
(0.975815 0 0)
(0.973482 0 0)
(0.970973 0 0)
(0.968268 0 0)
(0.965459 0 0)
(0.961128 0 0)
(0.972803 0 0)
(0.568181 0 0)
(-0.566878 0 0)
(-0.972766 0 0)
(-0.961128 0 0)
(-0.965456 0 0)
(-0.968266 0 0)
(-0.970971 0 0)
(-0.973481 0 0)
(-0.975814 0 0)
(-0.97798 0 0)
(-0.979991 0 0)
(-0.981853 0 0)
(-0.983576 0 0)
(-0.985166 0 0)
(-0.98663 0 0)
(-0.987975 0 0)
(-0.989205 0 0)
(-0.990327 0 0)
(-0.991345 0 0)
(-0.992263 0 0)
(-0.993086 0 0)
(-0.993818 0 0)
(-0.994462 0 0)
(-0.995022 0 0)
(-0.995501 0 0)
(-0.995902 0 0)
(-0.996227 0 0)
(-0.99648 0 0)
(-0.996664 0 0)
(-0.996779 0 0)
(-0.996829 0 0)
(-0.996816 0 0)
(-0.996742 0 0)
(-0.996608 0 0)
(-0.996418 0 0)
(-0.996171 0 0)
(-0.99587 0 0)
(-0.995517 0 0)
(-0.995113 0 0)
(-0.994659 0 0)
(-0.994157 0 0)
(-0.993608 0 0)
(-0.993014 0 0)
(-0.992375 0 0)
(-0.991693 0 0)
(-0.990969 0 0)
(-0.990204 0 0)
(-0.989398 0 0)
(-0.988554 0 0)
(-0.987671 0 0)
(-0.986751 0 0)
(-0.985795 0 0)
(-0.984803 0 0)
(-0.983777 0 0)
(-0.982716 0 0)
(-0.981622 0 0)
(-0.980496 0 0)
(-0.979338 0 0)
(-0.978149 0 0)
(-0.97693 0 0)
(-0.97568 0 0)
(-0.974402 0 0)
(-0.973095 0 0)
(-0.97176 0 0)
(-0.970397 0 0)
(-0.969008 0 0)
(-0.967592 0 0)
(-0.96615 0 0)
(-0.964683 0 0)
(-0.96319 0 0)
(-0.961674 0 0)
(-0.960133 0 0)
(-0.958569 0 0)
(-0.956982 0 0)
(-0.955371 0 0)
(-0.953739 0 0)
(-0.952085 0 0)
(-0.950409 0 0)
(-0.948711 0 0)
(-0.946993 0 0)
(-0.945255 0 0)
(-0.943496 0 0)
(-0.941718 0 0)
(-0.93992 0 0)
(-0.938103 0 0)
(-0.936267 0 0)
(-0.934413 0 0)
(-0.93254 0 0)
(-0.930649 0 0)
(-0.928741 0 0)
(-0.926815 0 0)
(-0.924872 0 0)
(-0.922912 0 0)
(-0.920935 0 0)
(-0.918943 0 0)
(-0.916933 0 0)
(-0.914909 0 0)
(-0.912868 0 0)
(-0.910812 0 0)
(-0.90874 0 0)
(-0.906654 0 0)
(-0.904553 0 0)
(-0.902437 0 0)
(-0.900307 0 0)
(-0.898163 0 0)
(-0.896005 0 0)
(-0.893833 0 0)
(-0.891647 0 0)
(-0.889448 0 0)
(-0.887236 0 0)
(-0.88501 0 0)
(-0.882772 0 0)
(-0.880521 0 0)
(-0.878258 0 0)
(-0.875982 0 0)
(-0.873693 0 0)
(-0.871393 0 0)
(-0.869081 0 0)
(-0.866757 0 0)
(-0.864422 0 0)
(-0.862075 0 0)
(-0.859716 0 0)
(-0.857347 0 0)
(-0.854966 0 0)
(-0.852575 0 0)
(-0.850172 0 0)
(-0.847759 0 0)
(-0.845336 0 0)
(-0.842902 0 0)
(-0.840458 0 0)
(-0.838004 0 0)
(-0.83554 0 0)
(-0.833065 0 0)
(-0.830581 0 0)
(-0.828088 0 0)
(-0.825584 0 0)
(-0.823072 0 0)
(-0.82055 0 0)
(-0.818018 0 0)
(-0.815478 0 0)
(-0.812928 0 0)
(-0.81037 0 0)
(-0.807803 0 0)
(-0.805227 0 0)
(-0.802642 0 0)
(-0.800049 0 0)
(-0.797448 0 0)
(-0.794838 0 0)
(-0.792219 0 0)
(-0.789593 0 0)
(-0.786959 0 0)
(-0.784316 0 0)
(-0.781666 0 0)
(-0.779008 0 0)
(-0.776342 0 0)
(-0.773668 0 0)
(-0.770987 0 0)
(-0.768298 0 0)
(-0.765602 0 0)
(-0.762899 0 0)
(-0.760188 0 0)
(-0.757471 0 0)
(-0.754746 0 0)
(-0.752014 0 0)
(-0.749275 0 0)
(-0.746529 0 0)
(-0.743776 0 0)
(-0.741017 0 0)
(-0.738251 0 0)
(-0.735478 0 0)
(-0.732699 0 0)
(-0.729913 0 0)
(-0.727121 0 0)
(-0.724322 0 0)
(-0.721517 0 0)
(-0.718706 0 0)
(-0.715889 0 0)
(-0.713066 0 0)
(-0.710237 0 0)
(-0.707401 0 0)
(-0.70456 0 0)
(-0.701713 0 0)
(-0.69886 0 0)
(-0.696001 0 0)
(-0.693137 0 0)
(-0.690267 0 0)
(-0.687392 0 0)
(-0.68451 0 0)
(-0.681624 0 0)
(-0.678732 0 0)
(-0.675834 0 0)
(-0.672932 0 0)
(-0.670024 0 0)
(-0.667111 0 0)
(-0.664192 0 0)
(-0.661269 0 0)
(-0.65834 0 0)
(-0.655407 0 0)
(-0.652468 0 0)
(-0.649525 0 0)
(-0.646577 0 0)
(-0.643624 0 0)
(-0.640666 0 0)
(-0.637703 0 0)
(-0.634736 0 0)
(-0.631764 0 0)
(-0.628787 0 0)
(-0.625806 0 0)
(-0.62282 0 0)
(-0.61983 0 0)
(-0.616836 0 0)
(-0.613837 0 0)
(-0.610833 0 0)
(-0.607826 0 0)
(-0.604814 0 0)
(-0.601798 0 0)
(-0.598777 0 0)
(-0.595753 0 0)
(-0.592724 0 0)
(-0.589692 0 0)
(-0.586655 0 0)
(-0.583614 0 0)
(-0.58057 0 0)
(-0.577521 0 0)
(-0.574469 0 0)
(-0.571412 0 0)
(-0.568352 0 0)
(-0.565288 0 0)
(-0.562221 0 0)
(-0.55915 0 0)
(-0.556075 0 0)
(-0.552996 0 0)
(-0.549914 0 0)
(-0.546828 0 0)
(-0.543739 0 0)
(-0.540646 0 0)
(-0.537549 0 0)
(-0.53445 0 0)
(-0.531346 0 0)
(-0.52824 0 0)
(-0.52513 0 0)
(-0.522017 0 0)
(-0.518901 0 0)
(-0.515781 0 0)
(-0.512658 0 0)
(-0.509532 0 0)
(-0.506403 0 0)
(-0.50327 0 0)
(-0.500135 0 0)
(-0.496996 0 0)
(-0.493855 0 0)
(-0.49071 0 0)
(-0.487563 0 0)
(-0.484412 0 0)
(-0.481259 0 0)
(-0.478103 0 0)
(-0.474943 0 0)
(-0.471781 0 0)
(-0.468617 0 0)
(-0.465449 0 0)
(-0.462279 0 0)
(-0.459106 0 0)
(-0.45593 0 0)
(-0.452752 0 0)
(-0.44957 0 0)
(-0.446387 0 0)
(-0.4432 0 0)
(-0.440012 0 0)
(-0.43682 0 0)
(-0.433626 0 0)
(-0.43043 0 0)
(-0.427231 0 0)
(-0.42403 0 0)
(-0.420826 0 0)
(-0.41762 0 0)
(-0.414412 0 0)
(-0.411201 0 0)
(-0.407988 0 0)
(-0.404772 0 0)
(-0.401555 0 0)
(-0.398335 0 0)
(-0.395112 0 0)
(-0.391888 0 0)
(-0.388662 0 0)
(-0.385433 0 0)
(-0.382202 0 0)
(-0.378969 0 0)
(-0.375734 0 0)
(-0.372497 0 0)
(-0.369258 0 0)
(-0.366017 0 0)
(-0.362774 0 0)
(-0.359529 0 0)
(-0.356282 0 0)
(-0.353033 0 0)
(-0.349782 0 0)
(-0.346529 0 0)
(-0.343274 0 0)
(-0.340018 0 0)
(-0.33676 0 0)
(-0.3335 0 0)
(-0.330238 0 0)
(-0.326974 0 0)
(-0.323709 0 0)
(-0.320442 0 0)
(-0.317173 0 0)
(-0.313903 0 0)
(-0.31063 0 0)
(-0.307357 0 0)
(-0.304081 0 0)
(-0.300804 0 0)
(-0.297526 0 0)
(-0.294246 0 0)
(-0.290964 0 0)
(-0.287681 0 0)
(-0.284397 0 0)
(-0.281111 0 0)
(-0.277823 0 0)
(-0.274534 0 0)
(-0.271244 0 0)
(-0.267952 0 0)
(-0.264659 0 0)
(-0.261364 0 0)
(-0.258068 0 0)
(-0.254771 0 0)
(-0.251473 0 0)
(-0.248173 0 0)
(-0.244872 0 0)
(-0.24157 0 0)
(-0.238266 0 0)
(-0.234961 0 0)
(-0.231656 0 0)
(-0.228349 0 0)
(-0.22504 0 0)
(-0.221731 0 0)
(-0.21842 0 0)
(-0.215109 0 0)
(-0.211796 0 0)
(-0.208483 0 0)
(-0.205168 0 0)
(-0.201852 0 0)
(-0.198535 0 0)
(-0.195217 0 0)
(-0.191899 0 0)
(-0.188579 0 0)
(-0.185258 0 0)
(-0.181937 0 0)
(-0.178614 0 0)
(-0.175291 0 0)
(-0.171967 0 0)
(-0.168641 0 0)
(-0.165316 0 0)
(-0.161989 0 0)
(-0.158661 0 0)
(-0.155333 0 0)
(-0.152004 0 0)
(-0.148674 0 0)
(-0.145343 0 0)
(-0.142012 0 0)
(-0.13868 0 0)
(-0.135347 0 0)
(-0.132014 0 0)
(-0.12868 0 0)
(-0.125346 0 0)
(-0.12201 0 0)
(-0.118675 0 0)
(-0.115338 0 0)
(-0.112001 0 0)
(-0.108664 0 0)
(-0.105326 0 0)
(-0.101987 0 0)
(-0.098648 0 0)
(-0.0953085 0 0)
(-0.0919685 0 0)
(-0.0886281 0 0)
(-0.0852872 0 0)
(-0.0819459 0 0)
(-0.0786042 0 0)
(-0.0752622 0 0)
(-0.0719197 0 0)
(-0.068577 0 0)
(-0.0652339 0 0)
(-0.0618904 0 0)
(-0.0585467 0 0)
(-0.0552027 0 0)
(-0.0518584 0 0)
(-0.0485139 0 0)
(-0.0451691 0 0)
(-0.0418241 0 0)
(-0.0384789 0 0)
(-0.0351336 0 0)
(-0.031788 0 0)
(-0.0284423 0 0)
(-0.0250965 0 0)
(-0.0217505 0 0)
(-0.0184045 0 0)
(-0.0150583 0 0)
(-0.0117121 0 0)
(-0.00836584 0 0)
(-0.00501952 0 0)
(-0.00167318 0 0)
)
;

boundaryField
{
    left
    {
        type            fixedValue;
        value           uniform (0 0 0);
    }
    right
    {
        type            fixedValue;
        value           uniform (0 0 0);
    }
    frontBackUpDown
    {
        type            empty;
    }
}


// ************************************************************************* //
