/*--------------------------------*- C++ -*----------------------------------*\
| =========                 |                                                 |
| \\      /  F ield         | OpenFOAM: The Open Source CFD Toolbox           |
|  \\    /   O peration     | Version:  2412                                  |
|   \\  /    A nd           | Website:  www.openfoam.com                      |
|    \\/     M anipulation  |                                                 |
\*---------------------------------------------------------------------------*/
FoamFile
{
    version     2.0;
    format      ascii;
    arch        "LSB;label=32;scalar=64";
    class       surfaceScalarField;
    location    "0.68";
    object      phi;
}
// * * * * * * * * * * * * * * * * * * * * * * * * * * * * * * * * * * * * * //

dimensions      [0 3 -1 0 0 0 0];

oriented        oriented;

internalField   nonuniform List<scalar> 
799
(
2.50595e-05
5.0119e-05
7.51785e-05
0.000100238
0.000125297
0.000150356
0.000175414
0.000200473
0.00022553
0.000250588
0.000275644
0.000300701
0.000325756
0.000350811
0.000375866
0.000400919
0.000425972
0.000451024
0.000476074
0.000501124
0.000526173
0.000551221
0.000576268
0.000601313
0.000626357
0.0006514
0.000676442
0.000701482
0.000726521
0.000751558
0.000776594
0.000801628
0.000826661
0.000851692
0.000876721
0.000901748
0.000926774
0.000951797
0.000976819
0.00100184
0.00102686
0.00105187
0.00107688
0.0011019
0.0011269
0.00115191
0.00117691
0.00120192
0.00122692
0.00125191
0.00127691
0.0013019
0.00132689
0.00135187
0.00137685
0.00140183
0.00142681
0.00145179
0.00147676
0.00150173
0.00152669
0.00155165
0.00157661
0.00160157
0.00162652
0.00165147
0.00167641
0.00170135
0.00172629
0.00175123
0.00177616
0.00180108
0.00182601
0.00185093
0.00187584
0.00190075
0.00192566
0.00195056
0.00197546
0.00200036
0.00202525
0.00205013
0.00207502
0.00209989
0.00212477
0.00214963
0.0021745
0.00219936
0.00222421
0.00224906
0.00227391
0.00229875
0.00232358
0.00234841
0.00237324
0.00239806
0.00242287
0.00244768
0.00247249
0.00249728
0.00252208
0.00254687
0.00257165
0.00259642
0.0026212
0.00264596
0.00267072
0.00269547
0.00272022
0.00274496
0.0027697
0.00279443
0.00281915
0.00284387
0.00286858
0.00289328
0.00291798
0.00294267
0.00296736
0.00299204
0.00301671
0.00304137
0.00306603
0.00309068
0.00311532
0.00313996
0.00316459
0.00318921
0.00321383
0.00323844
0.00326304
0.00328763
0.00331222
0.00333679
0.00336136
0.00338593
0.00341048
0.00343503
0.00345957
0.0034841
0.00350862
0.00353314
0.00355764
0.00358214
0.00360663
0.00363111
0.00365559
0.00368005
0.00370451
0.00372895
0.00375339
0.00377782
0.00380224
0.00382665
0.00385105
0.00387545
0.00389983
0.0039242
0.00394857
0.00397292
0.00399727
0.00402161
0.00404593
0.00407025
0.00409455
0.00411885
0.00414314
0.00416741
0.00419168
0.00421593
0.00424018
0.00426441
0.00428864
0.00431285
0.00433705
0.00436124
0.00438542
0.00440959
0.00443375
0.0044579
0.00448203
0.00450616
0.00453027
0.00455437
0.00457846
0.00460254
0.0046266
0.00465065
0.0046747
0.00469873
0.00472274
0.00474675
0.00477074
0.00479472
0.00481869
0.00484264
0.00486658
0.00489051
0.00491443
0.00493833
0.00496222
0.00498609
0.00500995
0.0050338
0.00505764
0.00508146
0.00510526
0.00512906
0.00515284
0.0051766
0.00520035
0.00522409
0.00524781
0.00527151
0.00529521
0.00531888
0.00534254
0.00536619
0.00538982
0.00541344
0.00543704
0.00546062
0.00548419
0.00550774
0.00553128
0.0055548
0.00557831
0.00560179
0.00562527
0.00564872
0.00567216
0.00569558
0.00571898
0.00574237
0.00576574
0.00578909
0.00581243
0.00583574
0.00585904
0.00588232
0.00590558
0.00592883
0.00595205
0.00597526
0.00599845
0.00602162
0.00604477
0.0060679
0.00609101
0.0061141
0.00613718
0.00616023
0.00618326
0.00620627
0.00622927
0.00625224
0.00627519
0.00629812
0.00632103
0.00634392
0.00636678
0.00638963
0.00641245
0.00643525
0.00645803
0.00648079
0.00650353
0.00652624
0.00654893
0.00657159
0.00659424
0.00661686
0.00663945
0.00666203
0.00668457
0.0067071
0.0067296
0.00675208
0.00677453
0.00679695
0.00681935
0.00684173
0.00686408
0.0068864
0.0069087
0.00693097
0.00695321
0.00697543
0.00699762
0.00701979
0.00704192
0.00706403
0.00708611
0.00710816
0.00713019
0.00715218
0.00717415
0.00719609
0.00721799
0.00723987
0.00726172
0.00728354
0.00730532
0.00732708
0.0073488
0.0073705
0.00739216
0.00741379
0.00743539
0.00745695
0.00747848
0.00749998
0.00752145
0.00754288
0.00756427
0.00758564
0.00760696
0.00762826
0.00764951
0.00767073
0.00769192
0.00771307
0.00773418
0.00775525
0.00777629
0.00779729
0.00781825
0.00783917
0.00786005
0.00788089
0.0079017
0.00792246
0.00794318
0.00796386
0.0079845
0.00800509
0.00802565
0.00804616
0.00806663
0.00808705
0.00810743
0.00812776
0.00814805
0.0081683
0.00818849
0.00820864
0.00822875
0.0082488
0.00826881
0.00828876
0.00830867
0.00832853
0.00834834
0.00836809
0.0083878
0.00840745
0.00842705
0.00844659
0.00846609
0.00848552
0.0085049
0.00852423
0.00854349
0.0085627
0.00858186
0.00860095
0.00861998
0.00863895
0.00865787
0.00867671
0.0086955
0.00871422
0.00873288
0.00875147
0.00877
0.00878846
0.00880685
0.00882518
0.00884343
0.00886161
0.00887972
0.00889776
0.00891572
0.00893361
0.00895143
0.00896917
0.00898682
0.0090044
0.0090219
0.00903932
0.00905666
0.00907391
0.00909108
0.00910816
0.00912514
0.00914222
0.00915668
0.00920355
0.0072761
6.63992e-06
-0.00726915
-0.00920325
-0.00915668
-0.0091422
-0.00912512
-0.00910814
-0.00909106
-0.00907389
-0.00905664
-0.0090393
-0.00902188
-0.00900438
-0.0089868
-0.00896914
-0.00895141
-0.00893359
-0.0089157
-0.00889774
-0.0088797
-0.00886159
-0.00884341
-0.00882515
-0.00880683
-0.00878844
-0.00876998
-0.00875145
-0.00873286
-0.0087142
-0.00869548
-0.00867669
-0.00865784
-0.00863893
-0.00861996
-0.00860093
-0.00858183
-0.00856268
-0.00854347
-0.0085242
-0.00850488
-0.0084855
-0.00846606
-0.00844657
-0.00842703
-0.00840743
-0.00838777
-0.00836807
-0.00834831
-0.00832851
-0.00830865
-0.00828874
-0.00826878
-0.00824878
-0.00822872
-0.00820862
-0.00818847
-0.00816827
-0.00814803
-0.00812774
-0.00810741
-0.00808703
-0.0080666
-0.00804614
-0.00802562
-0.00800507
-0.00798447
-0.00796384
-0.00794316
-0.00792243
-0.00790167
-0.00788087
-0.00786003
-0.00783915
-0.00781822
-0.00779726
-0.00777627
-0.00775523
-0.00773415
-0.00771304
-0.0076919
-0.00767071
-0.00764949
-0.00762823
-0.00760694
-0.00758561
-0.00756425
-0.00754285
-0.00752142
-0.00749996
-0.00747846
-0.00745693
-0.00743536
-0.00741376
-0.00739214
-0.00737047
-0.00734878
-0.00732706
-0.0073053
-0.00728351
-0.0072617
-0.00723985
-0.00721797
-0.00719606
-0.00717413
-0.00715216
-0.00713017
-0.00710814
-0.00708609
-0.00706401
-0.0070419
-0.00701976
-0.0069976
-0.00697541
-0.00695319
-0.00693095
-0.00690868
-0.00688638
-0.00686405
-0.00684171
-0.00681933
-0.00679693
-0.0067745
-0.00675205
-0.00672958
-0.00670708
-0.00668455
-0.00666201
-0.00663943
-0.00661684
-0.00659422
-0.00657157
-0.00654891
-0.00652622
-0.00650351
-0.00648077
-0.00645801
-0.00643523
-0.00641243
-0.00638961
-0.00636676
-0.0063439
-0.00632101
-0.0062981
-0.00627517
-0.00625222
-0.00622925
-0.00620626
-0.00618324
-0.00616021
-0.00613716
-0.00611409
-0.00609099
-0.00606788
-0.00604475
-0.0060216
-0.00599843
-0.00597524
-0.00595204
-0.00592881
-0.00590557
-0.0058823
-0.00585902
-0.00583572
-0.00581241
-0.00578907
-0.00576572
-0.00574235
-0.00571897
-0.00569556
-0.00567214
-0.0056487
-0.00562525
-0.00560178
-0.00557829
-0.00555478
-0.00553126
-0.00550773
-0.00548417
-0.00546061
-0.00543702
-0.00541342
-0.00538981
-0.00536617
-0.00534253
-0.00531887
-0.00529519
-0.0052715
-0.00524779
-0.00522407
-0.00520034
-0.00517659
-0.00515282
-0.00512904
-0.00510525
-0.00508144
-0.00505762
-0.00503379
-0.00500994
-0.00498608
-0.0049622
-0.00493831
-0.00491441
-0.0048905
-0.00486657
-0.00484263
-0.00481867
-0.00479471
-0.00477073
-0.00474673
-0.00472273
-0.00469871
-0.00467468
-0.00465064
-0.00462659
-0.00460252
-0.00457845
-0.00455436
-0.00453026
-0.00450614
-0.00448202
-0.00445788
-0.00443374
-0.00440958
-0.00438541
-0.00436123
-0.00433704
-0.00431284
-0.00428862
-0.0042644
-0.00424017
-0.00421592
-0.00419167
-0.0041674
-0.00414313
-0.00411884
-0.00409454
-0.00407024
-0.00404592
-0.0040216
-0.00399726
-0.00397292
-0.00394856
-0.0039242
-0.00389982
-0.00387544
-0.00385105
-0.00382664
-0.00380223
-0.00377781
-0.00375338
-0.00372895
-0.0037045
-0.00368004
-0.00365558
-0.00363111
-0.00360662
-0.00358214
-0.00355764
-0.00353313
-0.00350862
-0.00348409
-0.00345956
-0.00343502
-0.00341048
-0.00338592
-0.00336136
-0.00333679
-0.00331221
-0.00328762
-0.00326303
-0.00323843
-0.00321382
-0.00318921
-0.00316458
-0.00313995
-0.00311532
-0.00309067
-0.00306602
-0.00304137
-0.0030167
-0.00299203
-0.00296735
-0.00294267
-0.00291798
-0.00289328
-0.00286857
-0.00284386
-0.00281915
-0.00279442
-0.00276969
-0.00274496
-0.00272022
-0.00269547
-0.00267072
-0.00264596
-0.00262119
-0.00259642
-0.00257164
-0.00254686
-0.00252207
-0.00249728
-0.00247248
-0.00244768
-0.00242287
-0.00239805
-0.00237323
-0.00234841
-0.00232358
-0.00229874
-0.0022739
-0.00224906
-0.00222421
-0.00219935
-0.0021745
-0.00214963
-0.00212476
-0.00209989
-0.00207501
-0.00205013
-0.00202524
-0.00200035
-0.00197546
-0.00195056
-0.00192566
-0.00190075
-0.00187584
-0.00185092
-0.001826
-0.00180108
-0.00177615
-0.00175122
-0.00172629
-0.00170135
-0.00167641
-0.00165146
-0.00162652
-0.00160156
-0.00157661
-0.00155165
-0.00152669
-0.00150172
-0.00147676
-0.00145178
-0.00142681
-0.00140183
-0.00137685
-0.00135187
-0.00132688
-0.0013019
-0.0012769
-0.00125191
-0.00122691
-0.00120191
-0.00117691
-0.00115191
-0.0011269
-0.00110189
-0.00107688
-0.00105187
-0.00102686
-0.00100184
-0.000976818
-0.000951797
-0.000926773
-0.000901748
-0.00087672
-0.000851691
-0.000826661
-0.000801628
-0.000776594
-0.000751558
-0.000726521
-0.000701482
-0.000676442
-0.0006514
-0.000626357
-0.000601313
-0.000576268
-0.000551221
-0.000526173
-0.000501124
-0.000476074
-0.000451023
-0.000425972
-0.000400919
-0.000375866
-0.000350811
-0.000325756
-0.000300701
-0.000275645
-0.000250588
-0.00022553
-0.000200473
-0.000175414
-0.000150356
-0.000125297
-0.000100238
-7.51786e-05
-5.01192e-05
-2.50596e-05
)
;

boundaryField
{
    left
    {
        type            calculated;
        value           uniform 0;
    }
    right
    {
        type            calculated;
        value           uniform 0;
    }
    frontBackUpDown
    {
        type            empty;
    }
}


// ************************************************************************* //
