/*--------------------------------*- C++ -*----------------------------------*\
| =========                 |                                                 |
| \\      /  F ield         | OpenFOAM: The Open Source CFD Toolbox           |
|  \\    /   O peration     | Version:  2412                                  |
|   \\  /    A nd           | Website:  www.openfoam.com                      |
|    \\/     M anipulation  |                                                 |
\*---------------------------------------------------------------------------*/
FoamFile
{
    version     2.0;
    format      ascii;
    arch        "LSB;label=32;scalar=64";
    class       volVectorField;
    location    "0.68";
    object      U_0;
}
// * * * * * * * * * * * * * * * * * * * * * * * * * * * * * * * * * * * * * //

dimensions      [0 1 -1 0 0 0 0];

internalField   nonuniform List<vector> 
800
(
(0.0012536 0 0)
(0.00376081 0 0)
(0.00626802 0 0)
(0.00877521 0 0)
(0.0112824 0 0)
(0.0137895 0 0)
(0.0162967 0 0)
(0.0188038 0 0)
(0.0213108 0 0)
(0.0238178 0 0)
(0.0263248 0 0)
(0.0288317 0 0)
(0.0313385 0 0)
(0.0338453 0 0)
(0.036352 0 0)
(0.0388587 0 0)
(0.0413652 0 0)
(0.0438717 0 0)
(0.0463781 0 0)
(0.0488844 0 0)
(0.0513906 0 0)
(0.0538967 0 0)
(0.0564027 0 0)
(0.0589085 0 0)
(0.0614143 0 0)
(0.0639199 0 0)
(0.0664254 0 0)
(0.0689307 0 0)
(0.0714359 0 0)
(0.073941 0 0)
(0.0764459 0 0)
(0.0789506 0 0)
(0.0814552 0 0)
(0.0839596 0 0)
(0.0864639 0 0)
(0.0889679 0 0)
(0.0914718 0 0)
(0.0939755 0 0)
(0.096479 0 0)
(0.0989823 0 0)
(0.101485 0 0)
(0.103988 0 0)
(0.106491 0 0)
(0.108993 0 0)
(0.111496 0 0)
(0.113998 0 0)
(0.116499 0 0)
(0.119001 0 0)
(0.121502 0 0)
(0.124003 0 0)
(0.126504 0 0)
(0.129005 0 0)
(0.131505 0 0)
(0.134005 0 0)
(0.136504 0 0)
(0.139004 0 0)
(0.141503 0 0)
(0.144002 0 0)
(0.1465 0 0)
(0.148998 0 0)
(0.151496 0 0)
(0.153994 0 0)
(0.156491 0 0)
(0.158988 0 0)
(0.161485 0 0)
(0.163981 0 0)
(0.166477 0 0)
(0.168972 0 0)
(0.171468 0 0)
(0.173962 0 0)
(0.176457 0 0)
(0.178951 0 0)
(0.181445 0 0)
(0.183938 0 0)
(0.186431 0 0)
(0.188924 0 0)
(0.191416 0 0)
(0.193908 0 0)
(0.196399 0 0)
(0.19889 0 0)
(0.20138 0 0)
(0.20387 0 0)
(0.20636 0 0)
(0.208849 0 0)
(0.211338 0 0)
(0.213826 0 0)
(0.216314 0 0)
(0.218801 0 0)
(0.221288 0 0)
(0.223775 0 0)
(0.226261 0 0)
(0.228746 0 0)
(0.231231 0 0)
(0.233716 0 0)
(0.2362 0 0)
(0.238683 0 0)
(0.241166 0 0)
(0.243648 0 0)
(0.24613 0 0)
(0.248612 0 0)
(0.251092 0 0)
(0.253573 0 0)
(0.256052 0 0)
(0.258532 0 0)
(0.26101 0 0)
(0.263488 0 0)
(0.265966 0 0)
(0.268442 0 0)
(0.270919 0 0)
(0.273394 0 0)
(0.275869 0 0)
(0.278344 0 0)
(0.280818 0 0)
(0.283291 0 0)
(0.285763 0 0)
(0.288235 0 0)
(0.290707 0 0)
(0.293177 0 0)
(0.295647 0 0)
(0.298117 0 0)
(0.300585 0 0)
(0.303053 0 0)
(0.305521 0 0)
(0.307987 0 0)
(0.310453 0 0)
(0.312918 0 0)
(0.315383 0 0)
(0.317847 0 0)
(0.32031 0 0)
(0.322772 0 0)
(0.325234 0 0)
(0.327694 0 0)
(0.330155 0 0)
(0.332614 0 0)
(0.335073 0 0)
(0.33753 0 0)
(0.339987 0 0)
(0.342444 0 0)
(0.344899 0 0)
(0.347354 0 0)
(0.349808 0 0)
(0.352261 0 0)
(0.354713 0 0)
(0.357164 0 0)
(0.359615 0 0)
(0.362064 0 0)
(0.364513 0 0)
(0.366961 0 0)
(0.369408 0 0)
(0.371855 0 0)
(0.3743 0 0)
(0.376745 0 0)
(0.379188 0 0)
(0.381631 0 0)
(0.384073 0 0)
(0.386514 0 0)
(0.388953 0 0)
(0.391392 0 0)
(0.39383 0 0)
(0.396268 0 0)
(0.398704 0 0)
(0.401139 0 0)
(0.403573 0 0)
(0.406006 0 0)
(0.408439 0 0)
(0.41087 0 0)
(0.4133 0 0)
(0.415729 0 0)
(0.418157 0 0)
(0.420584 0 0)
(0.423011 0 0)
(0.425436 0 0)
(0.42786 0 0)
(0.430282 0 0)
(0.432704 0 0)
(0.435125 0 0)
(0.437545 0 0)
(0.439963 0 0)
(0.442381 0 0)
(0.444797 0 0)
(0.447212 0 0)
(0.449626 0 0)
(0.452039 0 0)
(0.454451 0 0)
(0.456861 0 0)
(0.459271 0 0)
(0.461679 0 0)
(0.464086 0 0)
(0.466492 0 0)
(0.468896 0 0)
(0.4713 0 0)
(0.473702 0 0)
(0.476103 0 0)
(0.478502 0 0)
(0.480901 0 0)
(0.483298 0 0)
(0.485694 0 0)
(0.488088 0 0)
(0.490481 0 0)
(0.492873 0 0)
(0.495264 0 0)
(0.497653 0 0)
(0.500041 0 0)
(0.502427 0 0)
(0.504813 0 0)
(0.507196 0 0)
(0.509579 0 0)
(0.51196 0 0)
(0.514339 0 0)
(0.516717 0 0)
(0.519094 0 0)
(0.521469 0 0)
(0.523843 0 0)
(0.526216 0 0)
(0.528586 0 0)
(0.530956 0 0)
(0.533324 0 0)
(0.53569 0 0)
(0.538055 0 0)
(0.540418 0 0)
(0.54278 0 0)
(0.54514 0 0)
(0.547499 0 0)
(0.549856 0 0)
(0.552211 0 0)
(0.554565 0 0)
(0.556917 0 0)
(0.559268 0 0)
(0.561617 0 0)
(0.563964 0 0)
(0.566309 0 0)
(0.568653 0 0)
(0.570995 0 0)
(0.573336 0 0)
(0.575675 0 0)
(0.578011 0 0)
(0.580347 0 0)
(0.58268 0 0)
(0.585012 0 0)
(0.587342 0 0)
(0.58967 0 0)
(0.591996 0 0)
(0.59432 0 0)
(0.596643 0 0)
(0.598963 0 0)
(0.601282 0 0)
(0.603599 0 0)
(0.605914 0 0)
(0.608227 0 0)
(0.610538 0 0)
(0.612847 0 0)
(0.615154 0 0)
(0.617459 0 0)
(0.619762 0 0)
(0.622063 0 0)
(0.624362 0 0)
(0.626659 0 0)
(0.628954 0 0)
(0.631247 0 0)
(0.633537 0 0)
(0.635826 0 0)
(0.638112 0 0)
(0.640397 0 0)
(0.642679 0 0)
(0.644958 0 0)
(0.647236 0 0)
(0.649511 0 0)
(0.651784 0 0)
(0.654055 0 0)
(0.656324 0 0)
(0.65859 0 0)
(0.660854 0 0)
(0.663115 0 0)
(0.665375 0 0)
(0.667631 0 0)
(0.669886 0 0)
(0.672138 0 0)
(0.674387 0 0)
(0.676634 0 0)
(0.678879 0 0)
(0.681121 0 0)
(0.68336 0 0)
(0.685597 0 0)
(0.687831 0 0)
(0.690063 0 0)
(0.692292 0 0)
(0.694518 0 0)
(0.696742 0 0)
(0.698963 0 0)
(0.701182 0 0)
(0.703397 0 0)
(0.70561 0 0)
(0.70782 0 0)
(0.710027 0 0)
(0.712232 0 0)
(0.714433 0 0)
(0.716632 0 0)
(0.718827 0 0)
(0.72102 0 0)
(0.72321 0 0)
(0.725397 0 0)
(0.727581 0 0)
(0.729761 0 0)
(0.731939 0 0)
(0.734113 0 0)
(0.736285 0 0)
(0.738453 0 0)
(0.740618 0 0)
(0.74278 0 0)
(0.744938 0 0)
(0.747094 0 0)
(0.749246 0 0)
(0.751394 0 0)
(0.75354 0 0)
(0.755681 0 0)
(0.75782 0 0)
(0.759955 0 0)
(0.762086 0 0)
(0.764214 0 0)
(0.766338 0 0)
(0.768459 0 0)
(0.770576 0 0)
(0.772689 0 0)
(0.774799 0 0)
(0.776905 0 0)
(0.779007 0 0)
(0.781105 0 0)
(0.783199 0 0)
(0.78529 0 0)
(0.787376 0 0)
(0.789459 0 0)
(0.791537 0 0)
(0.793611 0 0)
(0.795682 0 0)
(0.797748 0 0)
(0.79981 0 0)
(0.801867 0 0)
(0.803921 0 0)
(0.80597 0 0)
(0.808015 0 0)
(0.810055 0 0)
(0.812091 0 0)
(0.814122 0 0)
(0.816149 0 0)
(0.818171 0 0)
(0.820188 0 0)
(0.822201 0 0)
(0.824209 0 0)
(0.826212 0 0)
(0.82821 0 0)
(0.830203 0 0)
(0.832192 0 0)
(0.834175 0 0)
(0.836153 0 0)
(0.838126 0 0)
(0.840094 0 0)
(0.842056 0 0)
(0.844013 0 0)
(0.845965 0 0)
(0.847911 0 0)
(0.849852 0 0)
(0.851787 0 0)
(0.853716 0 0)
(0.85564 0 0)
(0.857558 0 0)
(0.85947 0 0)
(0.861376 0 0)
(0.863276 0 0)
(0.86517 0 0)
(0.867057 0 0)
(0.868939 0 0)
(0.870814 0 0)
(0.872682 0 0)
(0.874544 0 0)
(0.8764 0 0)
(0.878249 0 0)
(0.880091 0 0)
(0.881926 0 0)
(0.883754 0 0)
(0.885576 0 0)
(0.88739 0 0)
(0.889197 0 0)
(0.890996 0 0)
(0.892788 0 0)
(0.894573 0 0)
(0.896349 0 0)
(0.898119 0 0)
(0.89988 0 0)
(0.901633 0 0)
(0.903378 0 0)
(0.905115 0 0)
(0.906843 0 0)
(0.908563 0 0)
(0.910275 0 0)
(0.911978 0 0)
(0.913668 0 0)
(0.915393 0 0)
(0.91655 0 0)
(0.924843 0 0)
(0.53111 0 0)
(-0.529782 0 0)
(-0.924781 0 0)
(-0.916553 0 0)
(-0.915391 0 0)
(-0.913666 0 0)
(-0.911976 0 0)
(-0.910273 0 0)
(-0.908561 0 0)
(-0.906841 0 0)
(-0.905113 0 0)
(-0.903376 0 0)
(-0.901631 0 0)
(-0.899878 0 0)
(-0.898116 0 0)
(-0.896347 0 0)
(-0.894571 0 0)
(-0.892786 0 0)
(-0.890994 0 0)
(-0.889194 0 0)
(-0.887388 0 0)
(-0.885573 0 0)
(-0.883752 0 0)
(-0.881924 0 0)
(-0.880089 0 0)
(-0.878247 0 0)
(-0.876398 0 0)
(-0.874542 0 0)
(-0.87268 0 0)
(-0.870811 0 0)
(-0.868936 0 0)
(-0.867055 0 0)
(-0.865167 0 0)
(-0.863273 0 0)
(-0.861373 0 0)
(-0.859467 0 0)
(-0.857555 0 0)
(-0.855638 0 0)
(-0.853714 0 0)
(-0.851785 0 0)
(-0.849849 0 0)
(-0.847909 0 0)
(-0.845963 0 0)
(-0.844011 0 0)
(-0.842054 0 0)
(-0.840091 0 0)
(-0.838124 0 0)
(-0.836151 0 0)
(-0.834172 0 0)
(-0.832189 0 0)
(-0.830201 0 0)
(-0.828208 0 0)
(-0.826209 0 0)
(-0.824206 0 0)
(-0.822198 0 0)
(-0.820186 0 0)
(-0.818168 0 0)
(-0.816146 0 0)
(-0.81412 0 0)
(-0.812088 0 0)
(-0.810053 0 0)
(-0.808012 0 0)
(-0.805968 0 0)
(-0.803918 0 0)
(-0.801865 0 0)
(-0.799807 0 0)
(-0.797745 0 0)
(-0.795679 0 0)
(-0.793609 0 0)
(-0.791535 0 0)
(-0.789456 0 0)
(-0.787374 0 0)
(-0.785287 0 0)
(-0.783197 0 0)
(-0.781102 0 0)
(-0.779004 0 0)
(-0.776902 0 0)
(-0.774796 0 0)
(-0.772687 0 0)
(-0.770573 0 0)
(-0.768456 0 0)
(-0.766336 0 0)
(-0.764211 0 0)
(-0.762084 0 0)
(-0.759952 0 0)
(-0.757817 0 0)
(-0.755679 0 0)
(-0.753537 0 0)
(-0.751392 0 0)
(-0.749243 0 0)
(-0.747091 0 0)
(-0.744936 0 0)
(-0.742778 0 0)
(-0.740616 0 0)
(-0.738451 0 0)
(-0.736283 0 0)
(-0.734111 0 0)
(-0.731937 0 0)
(-0.729759 0 0)
(-0.727578 0 0)
(-0.725395 0 0)
(-0.723208 0 0)
(-0.721018 0 0)
(-0.718825 0 0)
(-0.716629 0 0)
(-0.714431 0 0)
(-0.712229 0 0)
(-0.710025 0 0)
(-0.707818 0 0)
(-0.705608 0 0)
(-0.703395 0 0)
(-0.701179 0 0)
(-0.698961 0 0)
(-0.69674 0 0)
(-0.694516 0 0)
(-0.69229 0 0)
(-0.690061 0 0)
(-0.687829 0 0)
(-0.685595 0 0)
(-0.683358 0 0)
(-0.681118 0 0)
(-0.678876 0 0)
(-0.676632 0 0)
(-0.674385 0 0)
(-0.672135 0 0)
(-0.669884 0 0)
(-0.667629 0 0)
(-0.665372 0 0)
(-0.663113 0 0)
(-0.660852 0 0)
(-0.658588 0 0)
(-0.656322 0 0)
(-0.654053 0 0)
(-0.651782 0 0)
(-0.649509 0 0)
(-0.647234 0 0)
(-0.644956 0 0)
(-0.642676 0 0)
(-0.640394 0 0)
(-0.63811 0 0)
(-0.635824 0 0)
(-0.633535 0 0)
(-0.631245 0 0)
(-0.628952 0 0)
(-0.626657 0 0)
(-0.62436 0 0)
(-0.622061 0 0)
(-0.61976 0 0)
(-0.617457 0 0)
(-0.615152 0 0)
(-0.612845 0 0)
(-0.610536 0 0)
(-0.608225 0 0)
(-0.605912 0 0)
(-0.603597 0 0)
(-0.60128 0 0)
(-0.598962 0 0)
(-0.596641 0 0)
(-0.594318 0 0)
(-0.591994 0 0)
(-0.589668 0 0)
(-0.58734 0 0)
(-0.58501 0 0)
(-0.582678 0 0)
(-0.580345 0 0)
(-0.57801 0 0)
(-0.575673 0 0)
(-0.573334 0 0)
(-0.570994 0 0)
(-0.568652 0 0)
(-0.566308 0 0)
(-0.563962 0 0)
(-0.561615 0 0)
(-0.559266 0 0)
(-0.556915 0 0)
(-0.554563 0 0)
(-0.55221 0 0)
(-0.549854 0 0)
(-0.547497 0 0)
(-0.545138 0 0)
(-0.542778 0 0)
(-0.540417 0 0)
(-0.538053 0 0)
(-0.535688 0 0)
(-0.533322 0 0)
(-0.530954 0 0)
(-0.528585 0 0)
(-0.526214 0 0)
(-0.523842 0 0)
(-0.521468 0 0)
(-0.519093 0 0)
(-0.516716 0 0)
(-0.514338 0 0)
(-0.511958 0 0)
(-0.509577 0 0)
(-0.507195 0 0)
(-0.504811 0 0)
(-0.502426 0 0)
(-0.500039 0 0)
(-0.497652 0 0)
(-0.495262 0 0)
(-0.492872 0 0)
(-0.49048 0 0)
(-0.488087 0 0)
(-0.485692 0 0)
(-0.483296 0 0)
(-0.480899 0 0)
(-0.478501 0 0)
(-0.476101 0 0)
(-0.473701 0 0)
(-0.471298 0 0)
(-0.468895 0 0)
(-0.466491 0 0)
(-0.464085 0 0)
(-0.461678 0 0)
(-0.45927 0 0)
(-0.45686 0 0)
(-0.45445 0 0)
(-0.452038 0 0)
(-0.449625 0 0)
(-0.447211 0 0)
(-0.444796 0 0)
(-0.44238 0 0)
(-0.439962 0 0)
(-0.437544 0 0)
(-0.435124 0 0)
(-0.432703 0 0)
(-0.430281 0 0)
(-0.427858 0 0)
(-0.425435 0 0)
(-0.423009 0 0)
(-0.420583 0 0)
(-0.418156 0 0)
(-0.415728 0 0)
(-0.413299 0 0)
(-0.410869 0 0)
(-0.408438 0 0)
(-0.406005 0 0)
(-0.403572 0 0)
(-0.401138 0 0)
(-0.398703 0 0)
(-0.396267 0 0)
(-0.39383 0 0)
(-0.391392 0 0)
(-0.388953 0 0)
(-0.386513 0 0)
(-0.384072 0 0)
(-0.38163 0 0)
(-0.379187 0 0)
(-0.376744 0 0)
(-0.374299 0 0)
(-0.371854 0 0)
(-0.369408 0 0)
(-0.366961 0 0)
(-0.364513 0 0)
(-0.362064 0 0)
(-0.359614 0 0)
(-0.357163 0 0)
(-0.354712 0 0)
(-0.35226 0 0)
(-0.349807 0 0)
(-0.347353 0 0)
(-0.344898 0 0)
(-0.342443 0 0)
(-0.339987 0 0)
(-0.33753 0 0)
(-0.335072 0 0)
(-0.332613 0 0)
(-0.330154 0 0)
(-0.327694 0 0)
(-0.325233 0 0)
(-0.322771 0 0)
(-0.320309 0 0)
(-0.317846 0 0)
(-0.315382 0 0)
(-0.312918 0 0)
(-0.310453 0 0)
(-0.307987 0 0)
(-0.30552 0 0)
(-0.303053 0 0)
(-0.300585 0 0)
(-0.298116 0 0)
(-0.295647 0 0)
(-0.293177 0 0)
(-0.290706 0 0)
(-0.288235 0 0)
(-0.285763 0 0)
(-0.28329 0 0)
(-0.280817 0 0)
(-0.278343 0 0)
(-0.275869 0 0)
(-0.273394 0 0)
(-0.270918 0 0)
(-0.268442 0 0)
(-0.265965 0 0)
(-0.263488 0 0)
(-0.26101 0 0)
(-0.258531 0 0)
(-0.256052 0 0)
(-0.253572 0 0)
(-0.251092 0 0)
(-0.248611 0 0)
(-0.24613 0 0)
(-0.243648 0 0)
(-0.241166 0 0)
(-0.238683 0 0)
(-0.236199 0 0)
(-0.233715 0 0)
(-0.231231 0 0)
(-0.228746 0 0)
(-0.22626 0 0)
(-0.223775 0 0)
(-0.221288 0 0)
(-0.218801 0 0)
(-0.216314 0 0)
(-0.213826 0 0)
(-0.211338 0 0)
(-0.208849 0 0)
(-0.20636 0 0)
(-0.20387 0 0)
(-0.20138 0 0)
(-0.19889 0 0)
(-0.196399 0 0)
(-0.193907 0 0)
(-0.191416 0 0)
(-0.188923 0 0)
(-0.186431 0 0)
(-0.183938 0 0)
(-0.181445 0 0)
(-0.178951 0 0)
(-0.176457 0 0)
(-0.173962 0 0)
(-0.171467 0 0)
(-0.168972 0 0)
(-0.166477 0 0)
(-0.163981 0 0)
(-0.161485 0 0)
(-0.158988 0 0)
(-0.156491 0 0)
(-0.153994 0 0)
(-0.151496 0 0)
(-0.148998 0 0)
(-0.1465 0 0)
(-0.144002 0 0)
(-0.141503 0 0)
(-0.139004 0 0)
(-0.136504 0 0)
(-0.134005 0 0)
(-0.131505 0 0)
(-0.129004 0 0)
(-0.126504 0 0)
(-0.124003 0 0)
(-0.121502 0 0)
(-0.119001 0 0)
(-0.116499 0 0)
(-0.113998 0 0)
(-0.111496 0 0)
(-0.108993 0 0)
(-0.106491 0 0)
(-0.103988 0 0)
(-0.101485 0 0)
(-0.0989823 0 0)
(-0.096479 0 0)
(-0.0939755 0 0)
(-0.0914718 0 0)
(-0.0889679 0 0)
(-0.0864638 0 0)
(-0.0839596 0 0)
(-0.0814552 0 0)
(-0.0789506 0 0)
(-0.0764458 0 0)
(-0.0739409 0 0)
(-0.0714359 0 0)
(-0.0689307 0 0)
(-0.0664253 0 0)
(-0.0639199 0 0)
(-0.0614142 0 0)
(-0.0589085 0 0)
(-0.0564026 0 0)
(-0.0538967 0 0)
(-0.0513906 0 0)
(-0.0488844 0 0)
(-0.0463781 0 0)
(-0.0438717 0 0)
(-0.0413652 0 0)
(-0.0388587 0 0)
(-0.036352 0 0)
(-0.0338453 0 0)
(-0.0313385 0 0)
(-0.0288317 0 0)
(-0.0263248 0 0)
(-0.0238178 0 0)
(-0.0213108 0 0)
(-0.0188038 0 0)
(-0.0162967 0 0)
(-0.0137896 0 0)
(-0.0112824 0 0)
(-0.00877522 0 0)
(-0.00626803 0 0)
(-0.00376082 0 0)
(-0.00125361 0 0)
)
;

boundaryField
{
    left
    {
        type            fixedValue;
        value           uniform (0 0 0);
    }
    right
    {
        type            fixedValue;
        value           uniform (0 0 0);
    }
    frontBackUpDown
    {
        type            empty;
    }
}


// ************************************************************************* //
