/*--------------------------------*- C++ -*----------------------------------*\
| =========                 |                                                 |
| \\      /  F ield         | OpenFOAM: The Open Source CFD Toolbox           |
|  \\    /   O peration     | Version:  2412                                  |
|   \\  /    A nd           | Website:  www.openfoam.com                      |
|    \\/     M anipulation  |                                                 |
\*---------------------------------------------------------------------------*/
FoamFile
{
    version     2.0;
    format      ascii;
    arch        "LSB;label=32;scalar=64";
    class       volVectorField;
    location    "0.68";
    object      U_0_0;
}
// * * * * * * * * * * * * * * * * * * * * * * * * * * * * * * * * * * * * * //

dimensions      [0 1 -1 0 0 0 0];

internalField   nonuniform List<vector> 
800
(
(0.00125422 0 0)
(0.00376269 0 0)
(0.00627115 0 0)
(0.0087796 0 0)
(0.011288 0 0)
(0.0137964 0 0)
(0.0163048 0 0)
(0.0188132 0 0)
(0.0213215 0 0)
(0.0238297 0 0)
(0.026338 0 0)
(0.0288461 0 0)
(0.0313542 0 0)
(0.0338623 0 0)
(0.0363702 0 0)
(0.0388781 0 0)
(0.041386 0 0)
(0.0438937 0 0)
(0.0464013 0 0)
(0.0489089 0 0)
(0.0514163 0 0)
(0.0539237 0 0)
(0.0564309 0 0)
(0.058938 0 0)
(0.061445 0 0)
(0.0639519 0 0)
(0.0664586 0 0)
(0.0689652 0 0)
(0.0714716 0 0)
(0.073978 0 0)
(0.0764841 0 0)
(0.0789901 0 0)
(0.081496 0 0)
(0.0840016 0 0)
(0.0865071 0 0)
(0.0890124 0 0)
(0.0915176 0 0)
(0.0940225 0 0)
(0.0965273 0 0)
(0.0990318 0 0)
(0.101536 0 0)
(0.10404 0 0)
(0.106544 0 0)
(0.109048 0 0)
(0.111551 0 0)
(0.114055 0 0)
(0.116558 0 0)
(0.11906 0 0)
(0.121563 0 0)
(0.124065 0 0)
(0.126567 0 0)
(0.129069 0 0)
(0.13157 0 0)
(0.134072 0 0)
(0.136573 0 0)
(0.139073 0 0)
(0.141574 0 0)
(0.144074 0 0)
(0.146573 0 0)
(0.149073 0 0)
(0.151572 0 0)
(0.154071 0 0)
(0.156569 0 0)
(0.159067 0 0)
(0.161565 0 0)
(0.164063 0 0)
(0.16656 0 0)
(0.169057 0 0)
(0.171553 0 0)
(0.174049 0 0)
(0.176545 0 0)
(0.17904 0 0)
(0.181535 0 0)
(0.18403 0 0)
(0.186524 0 0)
(0.189018 0 0)
(0.191511 0 0)
(0.194004 0 0)
(0.196497 0 0)
(0.198989 0 0)
(0.20148 0 0)
(0.203972 0 0)
(0.206463 0 0)
(0.208953 0 0)
(0.211443 0 0)
(0.213933 0 0)
(0.216422 0 0)
(0.21891 0 0)
(0.221398 0 0)
(0.223886 0 0)
(0.226373 0 0)
(0.22886 0 0)
(0.231346 0 0)
(0.233832 0 0)
(0.236317 0 0)
(0.238801 0 0)
(0.241286 0 0)
(0.243769 0 0)
(0.246252 0 0)
(0.248735 0 0)
(0.251217 0 0)
(0.253698 0 0)
(0.256179 0 0)
(0.25866 0 0)
(0.261139 0 0)
(0.263619 0 0)
(0.266097 0 0)
(0.268575 0 0)
(0.271053 0 0)
(0.27353 0 0)
(0.276006 0 0)
(0.278481 0 0)
(0.280956 0 0)
(0.283431 0 0)
(0.285905 0 0)
(0.288378 0 0)
(0.29085 0 0)
(0.293322 0 0)
(0.295793 0 0)
(0.298264 0 0)
(0.300733 0 0)
(0.303203 0 0)
(0.305671 0 0)
(0.308139 0 0)
(0.310606 0 0)
(0.313072 0 0)
(0.315538 0 0)
(0.318003 0 0)
(0.320467 0 0)
(0.322931 0 0)
(0.325393 0 0)
(0.327855 0 0)
(0.330317 0 0)
(0.332777 0 0)
(0.335237 0 0)
(0.337696 0 0)
(0.340154 0 0)
(0.342612 0 0)
(0.345068 0 0)
(0.347524 0 0)
(0.349979 0 0)
(0.352433 0 0)
(0.354887 0 0)
(0.357339 0 0)
(0.359791 0 0)
(0.362242 0 0)
(0.364692 0 0)
(0.367141 0 0)
(0.369589 0 0)
(0.372036 0 0)
(0.374483 0 0)
(0.376929 0 0)
(0.379373 0 0)
(0.381817 0 0)
(0.38426 0 0)
(0.386702 0 0)
(0.389143 0 0)
(0.391583 0 0)
(0.394022 0 0)
(0.39646 0 0)
(0.398898 0 0)
(0.401334 0 0)
(0.403769 0 0)
(0.406204 0 0)
(0.408637 0 0)
(0.411069 0 0)
(0.413501 0 0)
(0.415931 0 0)
(0.41836 0 0)
(0.420788 0 0)
(0.423215 0 0)
(0.425642 0 0)
(0.428067 0 0)
(0.430491 0 0)
(0.432914 0 0)
(0.435335 0 0)
(0.437756 0 0)
(0.440176 0 0)
(0.442594 0 0)
(0.445012 0 0)
(0.447428 0 0)
(0.449843 0 0)
(0.452257 0 0)
(0.45467 0 0)
(0.457081 0 0)
(0.459492 0 0)
(0.461901 0 0)
(0.464309 0 0)
(0.466716 0 0)
(0.469122 0 0)
(0.471526 0 0)
(0.473929 0 0)
(0.476331 0 0)
(0.478732 0 0)
(0.481131 0 0)
(0.483529 0 0)
(0.485926 0 0)
(0.488321 0 0)
(0.490716 0 0)
(0.493109 0 0)
(0.4955 0 0)
(0.49789 0 0)
(0.500279 0 0)
(0.502667 0 0)
(0.505053 0 0)
(0.507438 0 0)
(0.509821 0 0)
(0.512203 0 0)
(0.514584 0 0)
(0.516963 0 0)
(0.519341 0 0)
(0.521717 0 0)
(0.524092 0 0)
(0.526465 0 0)
(0.528837 0 0)
(0.531207 0 0)
(0.533576 0 0)
(0.535943 0 0)
(0.538309 0 0)
(0.540673 0 0)
(0.543036 0 0)
(0.545397 0 0)
(0.547757 0 0)
(0.550115 0 0)
(0.552471 0 0)
(0.554826 0 0)
(0.557179 0 0)
(0.55953 0 0)
(0.56188 0 0)
(0.564228 0 0)
(0.566575 0 0)
(0.568919 0 0)
(0.571262 0 0)
(0.573604 0 0)
(0.575943 0 0)
(0.578281 0 0)
(0.580617 0 0)
(0.582952 0 0)
(0.585284 0 0)
(0.587615 0 0)
(0.589944 0 0)
(0.592271 0 0)
(0.594596 0 0)
(0.596919 0 0)
(0.599241 0 0)
(0.601561 0 0)
(0.603878 0 0)
(0.606194 0 0)
(0.608508 0 0)
(0.61082 0 0)
(0.61313 0 0)
(0.615437 0 0)
(0.617743 0 0)
(0.620047 0 0)
(0.622349 0 0)
(0.624649 0 0)
(0.626947 0 0)
(0.629242 0 0)
(0.631536 0 0)
(0.633827 0 0)
(0.636117 0 0)
(0.638404 0 0)
(0.640689 0 0)
(0.642971 0 0)
(0.645252 0 0)
(0.64753 0 0)
(0.649806 0 0)
(0.65208 0 0)
(0.654352 0 0)
(0.656621 0 0)
(0.658888 0 0)
(0.661153 0 0)
(0.663415 0 0)
(0.665675 0 0)
(0.667932 0 0)
(0.670187 0 0)
(0.67244 0 0)
(0.67469 0 0)
(0.676938 0 0)
(0.679183 0 0)
(0.681426 0 0)
(0.683666 0 0)
(0.685903 0 0)
(0.688138 0 0)
(0.69037 0 0)
(0.6926 0 0)
(0.694827 0 0)
(0.697052 0 0)
(0.699273 0 0)
(0.701492 0 0)
(0.703708 0 0)
(0.705922 0 0)
(0.708132 0 0)
(0.71034 0 0)
(0.712545 0 0)
(0.714747 0 0)
(0.716946 0 0)
(0.719143 0 0)
(0.721336 0 0)
(0.723526 0 0)
(0.725714 0 0)
(0.727898 0 0)
(0.730079 0 0)
(0.732257 0 0)
(0.734432 0 0)
(0.736604 0 0)
(0.738773 0 0)
(0.740938 0 0)
(0.743101 0 0)
(0.74526 0 0)
(0.747415 0 0)
(0.749568 0 0)
(0.751717 0 0)
(0.753862 0 0)
(0.756005 0 0)
(0.758143 0 0)
(0.760279 0 0)
(0.76241 0 0)
(0.764539 0 0)
(0.766663 0 0)
(0.768784 0 0)
(0.770902 0 0)
(0.773015 0 0)
(0.775125 0 0)
(0.777231 0 0)
(0.779334 0 0)
(0.781432 0 0)
(0.783527 0 0)
(0.785617 0 0)
(0.787704 0 0)
(0.789787 0 0)
(0.791866 0 0)
(0.79394 0 0)
(0.796011 0 0)
(0.798077 0 0)
(0.800139 0 0)
(0.802197 0 0)
(0.804251 0 0)
(0.8063 0 0)
(0.808345 0 0)
(0.810385 0 0)
(0.812421 0 0)
(0.814452 0 0)
(0.816479 0 0)
(0.818501 0 0)
(0.820519 0 0)
(0.822531 0 0)
(0.824539 0 0)
(0.826542 0 0)
(0.82854 0 0)
(0.830534 0 0)
(0.832522 0 0)
(0.834505 0 0)
(0.836483 0 0)
(0.838456 0 0)
(0.840424 0 0)
(0.842386 0 0)
(0.844343 0 0)
(0.846294 0 0)
(0.848241 0 0)
(0.850181 0 0)
(0.852116 0 0)
(0.854045 0 0)
(0.855968 0 0)
(0.857886 0 0)
(0.859798 0 0)
(0.861703 0 0)
(0.863603 0 0)
(0.865497 0 0)
(0.867384 0 0)
(0.869265 0 0)
(0.87114 0 0)
(0.873008 0 0)
(0.874869 0 0)
(0.876725 0 0)
(0.878573 0 0)
(0.880414 0 0)
(0.882249 0 0)
(0.884077 0 0)
(0.885898 0 0)
(0.887711 0 0)
(0.889517 0 0)
(0.891316 0 0)
(0.893107 0 0)
(0.894891 0 0)
(0.896667 0 0)
(0.898436 0 0)
(0.900196 0 0)
(0.901948 0 0)
(0.903693 0 0)
(0.905429 0 0)
(0.907156 0 0)
(0.908875 0 0)
(0.910586 0 0)
(0.912287 0 0)
(0.913977 0 0)
(0.915701 0 0)
(0.91685 0 0)
(0.925226 0 0)
(0.531461 0 0)
(-0.530132 0 0)
(-0.925165 0 0)
(-0.916853 0 0)
(-0.915699 0 0)
(-0.913975 0 0)
(-0.912286 0 0)
(-0.910584 0 0)
(-0.908873 0 0)
(-0.907154 0 0)
(-0.905427 0 0)
(-0.903691 0 0)
(-0.901946 0 0)
(-0.900194 0 0)
(-0.898433 0 0)
(-0.896665 0 0)
(-0.894889 0 0)
(-0.893105 0 0)
(-0.891314 0 0)
(-0.889515 0 0)
(-0.887709 0 0)
(-0.885895 0 0)
(-0.884075 0 0)
(-0.882247 0 0)
(-0.880412 0 0)
(-0.878571 0 0)
(-0.876722 0 0)
(-0.874867 0 0)
(-0.873006 0 0)
(-0.871137 0 0)
(-0.869263 0 0)
(-0.867382 0 0)
(-0.865494 0 0)
(-0.863601 0 0)
(-0.861701 0 0)
(-0.859795 0 0)
(-0.857884 0 0)
(-0.855966 0 0)
(-0.854043 0 0)
(-0.852114 0 0)
(-0.850179 0 0)
(-0.848238 0 0)
(-0.846292 0 0)
(-0.844341 0 0)
(-0.842384 0 0)
(-0.840421 0 0)
(-0.838454 0 0)
(-0.836481 0 0)
(-0.834503 0 0)
(-0.83252 0 0)
(-0.830531 0 0)
(-0.828538 0 0)
(-0.82654 0 0)
(-0.824537 0 0)
(-0.822529 0 0)
(-0.820516 0 0)
(-0.818499 0 0)
(-0.816477 0 0)
(-0.81445 0 0)
(-0.812418 0 0)
(-0.810383 0 0)
(-0.808342 0 0)
(-0.806297 0 0)
(-0.804248 0 0)
(-0.802195 0 0)
(-0.800137 0 0)
(-0.798075 0 0)
(-0.796008 0 0)
(-0.793938 0 0)
(-0.791863 0 0)
(-0.789784 0 0)
(-0.787702 0 0)
(-0.785615 0 0)
(-0.783524 0 0)
(-0.78143 0 0)
(-0.779331 0 0)
(-0.777229 0 0)
(-0.775123 0 0)
(-0.773013 0 0)
(-0.770899 0 0)
(-0.768782 0 0)
(-0.766661 0 0)
(-0.764536 0 0)
(-0.762408 0 0)
(-0.760276 0 0)
(-0.758141 0 0)
(-0.756002 0 0)
(-0.75386 0 0)
(-0.751714 0 0)
(-0.749565 0 0)
(-0.747413 0 0)
(-0.745257 0 0)
(-0.743098 0 0)
(-0.740936 0 0)
(-0.73877 0 0)
(-0.736602 0 0)
(-0.73443 0 0)
(-0.732255 0 0)
(-0.730077 0 0)
(-0.727896 0 0)
(-0.725711 0 0)
(-0.723524 0 0)
(-0.721334 0 0)
(-0.71914 0 0)
(-0.716944 0 0)
(-0.714745 0 0)
(-0.712543 0 0)
(-0.710338 0 0)
(-0.70813 0 0)
(-0.70592 0 0)
(-0.703706 0 0)
(-0.70149 0 0)
(-0.699271 0 0)
(-0.697049 0 0)
(-0.694825 0 0)
(-0.692598 0 0)
(-0.690368 0 0)
(-0.688136 0 0)
(-0.685901 0 0)
(-0.683663 0 0)
(-0.681423 0 0)
(-0.679181 0 0)
(-0.676936 0 0)
(-0.674688 0 0)
(-0.672438 0 0)
(-0.670185 0 0)
(-0.66793 0 0)
(-0.665673 0 0)
(-0.663413 0 0)
(-0.661151 0 0)
(-0.658886 0 0)
(-0.656619 0 0)
(-0.65435 0 0)
(-0.652078 0 0)
(-0.649804 0 0)
(-0.647528 0 0)
(-0.64525 0 0)
(-0.642969 0 0)
(-0.640687 0 0)
(-0.638402 0 0)
(-0.636115 0 0)
(-0.633825 0 0)
(-0.631534 0 0)
(-0.62924 0 0)
(-0.626945 0 0)
(-0.624647 0 0)
(-0.622347 0 0)
(-0.620045 0 0)
(-0.617741 0 0)
(-0.615436 0 0)
(-0.613128 0 0)
(-0.610818 0 0)
(-0.608506 0 0)
(-0.606192 0 0)
(-0.603876 0 0)
(-0.601559 0 0)
(-0.599239 0 0)
(-0.596918 0 0)
(-0.594594 0 0)
(-0.592269 0 0)
(-0.589942 0 0)
(-0.587613 0 0)
(-0.585282 0 0)
(-0.58295 0 0)
(-0.580616 0 0)
(-0.578279 0 0)
(-0.575942 0 0)
(-0.573602 0 0)
(-0.571261 0 0)
(-0.568918 0 0)
(-0.566573 0 0)
(-0.564226 0 0)
(-0.561878 0 0)
(-0.559529 0 0)
(-0.557177 0 0)
(-0.554824 0 0)
(-0.552469 0 0)
(-0.550113 0 0)
(-0.547755 0 0)
(-0.545395 0 0)
(-0.543034 0 0)
(-0.540672 0 0)
(-0.538307 0 0)
(-0.535942 0 0)
(-0.533574 0 0)
(-0.531206 0 0)
(-0.528835 0 0)
(-0.526463 0 0)
(-0.52409 0 0)
(-0.521715 0 0)
(-0.519339 0 0)
(-0.516961 0 0)
(-0.514582 0 0)
(-0.512202 0 0)
(-0.50982 0 0)
(-0.507436 0 0)
(-0.505052 0 0)
(-0.502665 0 0)
(-0.500278 0 0)
(-0.497889 0 0)
(-0.495499 0 0)
(-0.493107 0 0)
(-0.490714 0 0)
(-0.48832 0 0)
(-0.485925 0 0)
(-0.483528 0 0)
(-0.48113 0 0)
(-0.47873 0 0)
(-0.47633 0 0)
(-0.473928 0 0)
(-0.471525 0 0)
(-0.46912 0 0)
(-0.466715 0 0)
(-0.464308 0 0)
(-0.4619 0 0)
(-0.459491 0 0)
(-0.45708 0 0)
(-0.454668 0 0)
(-0.452256 0 0)
(-0.449842 0 0)
(-0.447427 0 0)
(-0.44501 0 0)
(-0.442593 0 0)
(-0.440175 0 0)
(-0.437755 0 0)
(-0.435334 0 0)
(-0.432912 0 0)
(-0.43049 0 0)
(-0.428066 0 0)
(-0.425641 0 0)
(-0.423214 0 0)
(-0.420787 0 0)
(-0.418359 0 0)
(-0.41593 0 0)
(-0.4135 0 0)
(-0.411068 0 0)
(-0.408636 0 0)
(-0.406203 0 0)
(-0.403768 0 0)
(-0.401333 0 0)
(-0.398897 0 0)
(-0.39646 0 0)
(-0.394021 0 0)
(-0.391582 0 0)
(-0.389142 0 0)
(-0.386701 0 0)
(-0.384259 0 0)
(-0.381816 0 0)
(-0.379372 0 0)
(-0.376928 0 0)
(-0.374482 0 0)
(-0.372036 0 0)
(-0.369588 0 0)
(-0.36714 0 0)
(-0.364691 0 0)
(-0.362241 0 0)
(-0.35979 0 0)
(-0.357338 0 0)
(-0.354886 0 0)
(-0.352432 0 0)
(-0.349978 0 0)
(-0.347523 0 0)
(-0.345067 0 0)
(-0.342611 0 0)
(-0.340153 0 0)
(-0.337695 0 0)
(-0.335236 0 0)
(-0.332777 0 0)
(-0.330316 0 0)
(-0.327855 0 0)
(-0.325393 0 0)
(-0.32293 0 0)
(-0.320467 0 0)
(-0.318002 0 0)
(-0.315537 0 0)
(-0.313072 0 0)
(-0.310605 0 0)
(-0.308138 0 0)
(-0.305671 0 0)
(-0.303202 0 0)
(-0.300733 0 0)
(-0.298263 0 0)
(-0.295793 0 0)
(-0.293321 0 0)
(-0.29085 0 0)
(-0.288377 0 0)
(-0.285904 0 0)
(-0.28343 0 0)
(-0.280956 0 0)
(-0.278481 0 0)
(-0.276005 0 0)
(-0.273529 0 0)
(-0.271052 0 0)
(-0.268575 0 0)
(-0.266097 0 0)
(-0.263618 0 0)
(-0.261139 0 0)
(-0.258659 0 0)
(-0.256179 0 0)
(-0.253698 0 0)
(-0.251216 0 0)
(-0.248734 0 0)
(-0.246252 0 0)
(-0.243769 0 0)
(-0.241285 0 0)
(-0.238801 0 0)
(-0.236316 0 0)
(-0.233831 0 0)
(-0.231346 0 0)
(-0.228859 0 0)
(-0.226373 0 0)
(-0.223886 0 0)
(-0.221398 0 0)
(-0.21891 0 0)
(-0.216421 0 0)
(-0.213932 0 0)
(-0.211443 0 0)
(-0.208953 0 0)
(-0.206462 0 0)
(-0.203971 0 0)
(-0.20148 0 0)
(-0.198988 0 0)
(-0.196496 0 0)
(-0.194004 0 0)
(-0.191511 0 0)
(-0.189017 0 0)
(-0.186524 0 0)
(-0.184029 0 0)
(-0.181535 0 0)
(-0.17904 0 0)
(-0.176545 0 0)
(-0.174049 0 0)
(-0.171553 0 0)
(-0.169056 0 0)
(-0.16656 0 0)
(-0.164063 0 0)
(-0.161565 0 0)
(-0.159067 0 0)
(-0.156569 0 0)
(-0.154071 0 0)
(-0.151572 0 0)
(-0.149073 0 0)
(-0.146573 0 0)
(-0.144073 0 0)
(-0.141573 0 0)
(-0.139073 0 0)
(-0.136572 0 0)
(-0.134071 0 0)
(-0.13157 0 0)
(-0.129069 0 0)
(-0.126567 0 0)
(-0.124065 0 0)
(-0.121563 0 0)
(-0.11906 0 0)
(-0.116558 0 0)
(-0.114055 0 0)
(-0.111551 0 0)
(-0.109048 0 0)
(-0.106544 0 0)
(-0.10404 0 0)
(-0.101536 0 0)
(-0.0990317 0 0)
(-0.0965272 0 0)
(-0.0940225 0 0)
(-0.0915175 0 0)
(-0.0890124 0 0)
(-0.0865071 0 0)
(-0.0840016 0 0)
(-0.0814959 0 0)
(-0.0789901 0 0)
(-0.0764841 0 0)
(-0.0739779 0 0)
(-0.0714716 0 0)
(-0.0689652 0 0)
(-0.0664586 0 0)
(-0.0639518 0 0)
(-0.061445 0 0)
(-0.058938 0 0)
(-0.0564309 0 0)
(-0.0539236 0 0)
(-0.0514163 0 0)
(-0.0489089 0 0)
(-0.0464013 0 0)
(-0.0438937 0 0)
(-0.0413859 0 0)
(-0.0388781 0 0)
(-0.0363702 0 0)
(-0.0338623 0 0)
(-0.0313542 0 0)
(-0.0288461 0 0)
(-0.026338 0 0)
(-0.0238298 0 0)
(-0.0213215 0 0)
(-0.0188132 0 0)
(-0.0163048 0 0)
(-0.0137965 0 0)
(-0.011288 0 0)
(-0.00877962 0 0)
(-0.00627117 0 0)
(-0.00376271 0 0)
(-0.00125424 0 0)
)
;

boundaryField
{
    left
    {
        type            fixedValue;
        value           uniform (0 0 0);
    }
    right
    {
        type            fixedValue;
        value           uniform (0 0 0);
    }
    frontBackUpDown
    {
        type            empty;
    }
}


// ************************************************************************* //
