/*--------------------------------*- C++ -*----------------------------------*\
| =========                 |                                                 |
| \\      /  F ield         | OpenFOAM: The Open Source CFD Toolbox           |
|  \\    /   O peration     | Version:  2412                                  |
|   \\  /    A nd           | Website:  www.openfoam.com                      |
|    \\/     M anipulation  |                                                 |
\*---------------------------------------------------------------------------*/
FoamFile
{
    version     2.0;
    format      ascii;
    arch        "LSB;label=32;scalar=64";
    class       volVectorField;
    location    "0.68";
    object      U_0_0_0;
}
// * * * * * * * * * * * * * * * * * * * * * * * * * * * * * * * * * * * * * //

dimensions      [0 1 -1 0 0 0 0];

internalField   nonuniform List<vector> 
800
(
(0.00125485 0 0)
(0.00376458 0 0)
(0.0062743 0 0)
(0.008784 0 0)
(0.0112937 0 0)
(0.0138034 0 0)
(0.016313 0 0)
(0.0188226 0 0)
(0.0213322 0 0)
(0.0238417 0 0)
(0.0263512 0 0)
(0.0288606 0 0)
(0.0313699 0 0)
(0.0338792 0 0)
(0.0363885 0 0)
(0.0388976 0 0)
(0.0414067 0 0)
(0.0439157 0 0)
(0.0464246 0 0)
(0.0489334 0 0)
(0.0514421 0 0)
(0.0539507 0 0)
(0.0564591 0 0)
(0.0589675 0 0)
(0.0614758 0 0)
(0.0639839 0 0)
(0.0664919 0 0)
(0.0689997 0 0)
(0.0715074 0 0)
(0.074015 0 0)
(0.0765224 0 0)
(0.0790296 0 0)
(0.0815367 0 0)
(0.0840437 0 0)
(0.0865504 0 0)
(0.089057 0 0)
(0.0915634 0 0)
(0.0940695 0 0)
(0.0965755 0 0)
(0.0990813 0 0)
(0.101587 0 0)
(0.104092 0 0)
(0.106597 0 0)
(0.109102 0 0)
(0.111607 0 0)
(0.114112 0 0)
(0.116616 0 0)
(0.11912 0 0)
(0.121624 0 0)
(0.124127 0 0)
(0.12663 0 0)
(0.129133 0 0)
(0.131636 0 0)
(0.134139 0 0)
(0.136641 0 0)
(0.139143 0 0)
(0.141644 0 0)
(0.144146 0 0)
(0.146646 0 0)
(0.149147 0 0)
(0.151648 0 0)
(0.154148 0 0)
(0.156647 0 0)
(0.159147 0 0)
(0.161646 0 0)
(0.164145 0 0)
(0.166643 0 0)
(0.169141 0 0)
(0.171639 0 0)
(0.174136 0 0)
(0.176633 0 0)
(0.179129 0 0)
(0.181626 0 0)
(0.184121 0 0)
(0.186617 0 0)
(0.189112 0 0)
(0.191606 0 0)
(0.194101 0 0)
(0.196594 0 0)
(0.199088 0 0)
(0.201581 0 0)
(0.204073 0 0)
(0.206565 0 0)
(0.209057 0 0)
(0.211548 0 0)
(0.214039 0 0)
(0.216529 0 0)
(0.219019 0 0)
(0.221508 0 0)
(0.223997 0 0)
(0.226486 0 0)
(0.228973 0 0)
(0.231461 0 0)
(0.233948 0 0)
(0.236434 0 0)
(0.23892 0 0)
(0.241405 0 0)
(0.24389 0 0)
(0.246374 0 0)
(0.248858 0 0)
(0.251341 0 0)
(0.253824 0 0)
(0.256306 0 0)
(0.258788 0 0)
(0.261269 0 0)
(0.263749 0 0)
(0.266229 0 0)
(0.268708 0 0)
(0.271187 0 0)
(0.273665 0 0)
(0.276142 0 0)
(0.278619 0 0)
(0.281095 0 0)
(0.283571 0 0)
(0.286046 0 0)
(0.28852 0 0)
(0.290994 0 0)
(0.293467 0 0)
(0.295939 0 0)
(0.298411 0 0)
(0.300882 0 0)
(0.303352 0 0)
(0.305822 0 0)
(0.308291 0 0)
(0.310759 0 0)
(0.313227 0 0)
(0.315693 0 0)
(0.31816 0 0)
(0.320625 0 0)
(0.32309 0 0)
(0.325554 0 0)
(0.328017 0 0)
(0.330479 0 0)
(0.332941 0 0)
(0.335402 0 0)
(0.337862 0 0)
(0.340321 0 0)
(0.34278 0 0)
(0.345237 0 0)
(0.347694 0 0)
(0.350151 0 0)
(0.352606 0 0)
(0.35506 0 0)
(0.357514 0 0)
(0.359967 0 0)
(0.362419 0 0)
(0.36487 0 0)
(0.36732 0 0)
(0.36977 0 0)
(0.372218 0 0)
(0.374666 0 0)
(0.377113 0 0)
(0.379558 0 0)
(0.382003 0 0)
(0.384447 0 0)
(0.38689 0 0)
(0.389333 0 0)
(0.391774 0 0)
(0.394214 0 0)
(0.396653 0 0)
(0.399092 0 0)
(0.401529 0 0)
(0.403966 0 0)
(0.406401 0 0)
(0.408835 0 0)
(0.411269 0 0)
(0.413701 0 0)
(0.416133 0 0)
(0.418563 0 0)
(0.420992 0 0)
(0.423421 0 0)
(0.425848 0 0)
(0.428274 0 0)
(0.430699 0 0)
(0.433123 0 0)
(0.435546 0 0)
(0.437968 0 0)
(0.440388 0 0)
(0.442808 0 0)
(0.445226 0 0)
(0.447644 0 0)
(0.45006 0 0)
(0.452475 0 0)
(0.454889 0 0)
(0.457301 0 0)
(0.459713 0 0)
(0.462123 0 0)
(0.464532 0 0)
(0.46694 0 0)
(0.469347 0 0)
(0.471752 0 0)
(0.474157 0 0)
(0.476559 0 0)
(0.478961 0 0)
(0.481362 0 0)
(0.483761 0 0)
(0.486159 0 0)
(0.488555 0 0)
(0.49095 0 0)
(0.493344 0 0)
(0.495737 0 0)
(0.498128 0 0)
(0.500518 0 0)
(0.502906 0 0)
(0.505294 0 0)
(0.507679 0 0)
(0.510064 0 0)
(0.512447 0 0)
(0.514828 0 0)
(0.517208 0 0)
(0.519587 0 0)
(0.521964 0 0)
(0.52434 0 0)
(0.526714 0 0)
(0.529087 0 0)
(0.531458 0 0)
(0.533828 0 0)
(0.536197 0 0)
(0.538563 0 0)
(0.540929 0 0)
(0.543292 0 0)
(0.545654 0 0)
(0.548015 0 0)
(0.550374 0 0)
(0.552731 0 0)
(0.555087 0 0)
(0.557441 0 0)
(0.559793 0 0)
(0.562144 0 0)
(0.564493 0 0)
(0.56684 0 0)
(0.569186 0 0)
(0.57153 0 0)
(0.573872 0 0)
(0.576212 0 0)
(0.578551 0 0)
(0.580888 0 0)
(0.583223 0 0)
(0.585557 0 0)
(0.587888 0 0)
(0.590218 0 0)
(0.592546 0 0)
(0.594872 0 0)
(0.597196 0 0)
(0.599519 0 0)
(0.601839 0 0)
(0.604158 0 0)
(0.606474 0 0)
(0.608789 0 0)
(0.611102 0 0)
(0.613412 0 0)
(0.615721 0 0)
(0.618028 0 0)
(0.620333 0 0)
(0.622635 0 0)
(0.624936 0 0)
(0.627234 0 0)
(0.629531 0 0)
(0.631825 0 0)
(0.634117 0 0)
(0.636407 0 0)
(0.638695 0 0)
(0.640981 0 0)
(0.643265 0 0)
(0.645546 0 0)
(0.647825 0 0)
(0.650102 0 0)
(0.652376 0 0)
(0.654649 0 0)
(0.656919 0 0)
(0.659186 0 0)
(0.661452 0 0)
(0.663715 0 0)
(0.665975 0 0)
(0.668233 0 0)
(0.670489 0 0)
(0.672742 0 0)
(0.674993 0 0)
(0.677242 0 0)
(0.679487 0 0)
(0.681731 0 0)
(0.683971 0 0)
(0.68621 0 0)
(0.688445 0 0)
(0.690678 0 0)
(0.692909 0 0)
(0.695136 0 0)
(0.697361 0 0)
(0.699583 0 0)
(0.701803 0 0)
(0.70402 0 0)
(0.706234 0 0)
(0.708445 0 0)
(0.710653 0 0)
(0.712859 0 0)
(0.715062 0 0)
(0.717261 0 0)
(0.719458 0 0)
(0.721652 0 0)
(0.723843 0 0)
(0.726031 0 0)
(0.728215 0 0)
(0.730397 0 0)
(0.732576 0 0)
(0.734751 0 0)
(0.736924 0 0)
(0.739093 0 0)
(0.741259 0 0)
(0.743421 0 0)
(0.745581 0 0)
(0.747737 0 0)
(0.74989 0 0)
(0.752039 0 0)
(0.754185 0 0)
(0.756328 0 0)
(0.758467 0 0)
(0.760603 0 0)
(0.762735 0 0)
(0.764863 0 0)
(0.766988 0 0)
(0.76911 0 0)
(0.771227 0 0)
(0.773341 0 0)
(0.775452 0 0)
(0.777558 0 0)
(0.779661 0 0)
(0.78176 0 0)
(0.783854 0 0)
(0.785945 0 0)
(0.788032 0 0)
(0.790115 0 0)
(0.792194 0 0)
(0.794269 0 0)
(0.79634 0 0)
(0.798406 0 0)
(0.800469 0 0)
(0.802527 0 0)
(0.80458 0 0)
(0.80663 0 0)
(0.808675 0 0)
(0.810715 0 0)
(0.812751 0 0)
(0.814782 0 0)
(0.816809 0 0)
(0.818832 0 0)
(0.820849 0 0)
(0.822862 0 0)
(0.82487 0 0)
(0.826873 0 0)
(0.828871 0 0)
(0.830864 0 0)
(0.832852 0 0)
(0.834836 0 0)
(0.836813 0 0)
(0.838786 0 0)
(0.840754 0 0)
(0.842716 0 0)
(0.844673 0 0)
(0.846624 0 0)
(0.84857 0 0)
(0.85051 0 0)
(0.852445 0 0)
(0.854374 0 0)
(0.856297 0 0)
(0.858214 0 0)
(0.860126 0 0)
(0.862031 0 0)
(0.863931 0 0)
(0.865824 0 0)
(0.867711 0 0)
(0.869591 0 0)
(0.871466 0 0)
(0.873333 0 0)
(0.875195 0 0)
(0.877049 0 0)
(0.878897 0 0)
(0.880738 0 0)
(0.882572 0 0)
(0.884399 0 0)
(0.886219 0 0)
(0.888032 0 0)
(0.889838 0 0)
(0.891636 0 0)
(0.893427 0 0)
(0.89521 0 0)
(0.896985 0 0)
(0.898753 0 0)
(0.900512 0 0)
(0.902264 0 0)
(0.904007 0 0)
(0.905742 0 0)
(0.907469 0 0)
(0.909187 0 0)
(0.910896 0 0)
(0.912597 0 0)
(0.914286 0 0)
(0.916009 0 0)
(0.91715 0 0)
(0.925609 0 0)
(0.531811 0 0)
(-0.530482 0 0)
(-0.925548 0 0)
(-0.917152 0 0)
(-0.916007 0 0)
(-0.914284 0 0)
(-0.912595 0 0)
(-0.910894 0 0)
(-0.909185 0 0)
(-0.907467 0 0)
(-0.90574 0 0)
(-0.904005 0 0)
(-0.902262 0 0)
(-0.90051 0 0)
(-0.898751 0 0)
(-0.896983 0 0)
(-0.895208 0 0)
(-0.893425 0 0)
(-0.891634 0 0)
(-0.889836 0 0)
(-0.88803 0 0)
(-0.886217 0 0)
(-0.884397 0 0)
(-0.88257 0 0)
(-0.880736 0 0)
(-0.878895 0 0)
(-0.877047 0 0)
(-0.875192 0 0)
(-0.873331 0 0)
(-0.871463 0 0)
(-0.869589 0 0)
(-0.867708 0 0)
(-0.865821 0 0)
(-0.863928 0 0)
(-0.862029 0 0)
(-0.860124 0 0)
(-0.858212 0 0)
(-0.856295 0 0)
(-0.854372 0 0)
(-0.852443 0 0)
(-0.850508 0 0)
(-0.848568 0 0)
(-0.846622 0 0)
(-0.84467 0 0)
(-0.842714 0 0)
(-0.840751 0 0)
(-0.838784 0 0)
(-0.836811 0 0)
(-0.834833 0 0)
(-0.83285 0 0)
(-0.830862 0 0)
(-0.828869 0 0)
(-0.82687 0 0)
(-0.824867 0 0)
(-0.822859 0 0)
(-0.820847 0 0)
(-0.818829 0 0)
(-0.816807 0 0)
(-0.81478 0 0)
(-0.812749 0 0)
(-0.810713 0 0)
(-0.808672 0 0)
(-0.806627 0 0)
(-0.804578 0 0)
(-0.802524 0 0)
(-0.800466 0 0)
(-0.798404 0 0)
(-0.796337 0 0)
(-0.794267 0 0)
(-0.792192 0 0)
(-0.790113 0 0)
(-0.78803 0 0)
(-0.785943 0 0)
(-0.783852 0 0)
(-0.781757 0 0)
(-0.779658 0 0)
(-0.777556 0 0)
(-0.775449 0 0)
(-0.773339 0 0)
(-0.771225 0 0)
(-0.769107 0 0)
(-0.766986 0 0)
(-0.764861 0 0)
(-0.762733 0 0)
(-0.7606 0 0)
(-0.758465 0 0)
(-0.756326 0 0)
(-0.754183 0 0)
(-0.752037 0 0)
(-0.749887 0 0)
(-0.747735 0 0)
(-0.745579 0 0)
(-0.743419 0 0)
(-0.741256 0 0)
(-0.73909 0 0)
(-0.736921 0 0)
(-0.734749 0 0)
(-0.732573 0 0)
(-0.730395 0 0)
(-0.728213 0 0)
(-0.726028 0 0)
(-0.72384 0 0)
(-0.72165 0 0)
(-0.719456 0 0)
(-0.717259 0 0)
(-0.715059 0 0)
(-0.712857 0 0)
(-0.710651 0 0)
(-0.708443 0 0)
(-0.706232 0 0)
(-0.704018 0 0)
(-0.701801 0 0)
(-0.699581 0 0)
(-0.697359 0 0)
(-0.695134 0 0)
(-0.692906 0 0)
(-0.690676 0 0)
(-0.688443 0 0)
(-0.686207 0 0)
(-0.683969 0 0)
(-0.681729 0 0)
(-0.679485 0 0)
(-0.677239 0 0)
(-0.674991 0 0)
(-0.67274 0 0)
(-0.670487 0 0)
(-0.668231 0 0)
(-0.665973 0 0)
(-0.663712 0 0)
(-0.66145 0 0)
(-0.659184 0 0)
(-0.656917 0 0)
(-0.654647 0 0)
(-0.652374 0 0)
(-0.6501 0 0)
(-0.647823 0 0)
(-0.645544 0 0)
(-0.643262 0 0)
(-0.640979 0 0)
(-0.638693 0 0)
(-0.636405 0 0)
(-0.634115 0 0)
(-0.631823 0 0)
(-0.629529 0 0)
(-0.627232 0 0)
(-0.624934 0 0)
(-0.622633 0 0)
(-0.620331 0 0)
(-0.618026 0 0)
(-0.615719 0 0)
(-0.61341 0 0)
(-0.6111 0 0)
(-0.608787 0 0)
(-0.606472 0 0)
(-0.604156 0 0)
(-0.601837 0 0)
(-0.599517 0 0)
(-0.597195 0 0)
(-0.59487 0 0)
(-0.592544 0 0)
(-0.590216 0 0)
(-0.587887 0 0)
(-0.585555 0 0)
(-0.583222 0 0)
(-0.580886 0 0)
(-0.578549 0 0)
(-0.576211 0 0)
(-0.57387 0 0)
(-0.571528 0 0)
(-0.569184 0 0)
(-0.566838 0 0)
(-0.564491 0 0)
(-0.562142 0 0)
(-0.559791 0 0)
(-0.557439 0 0)
(-0.555085 0 0)
(-0.552729 0 0)
(-0.550372 0 0)
(-0.548013 0 0)
(-0.545653 0 0)
(-0.543291 0 0)
(-0.540927 0 0)
(-0.538562 0 0)
(-0.536195 0 0)
(-0.533827 0 0)
(-0.531457 0 0)
(-0.529086 0 0)
(-0.526713 0 0)
(-0.524339 0 0)
(-0.521963 0 0)
(-0.519586 0 0)
(-0.517207 0 0)
(-0.514827 0 0)
(-0.512445 0 0)
(-0.510062 0 0)
(-0.507678 0 0)
(-0.505292 0 0)
(-0.502905 0 0)
(-0.500517 0 0)
(-0.498127 0 0)
(-0.495735 0 0)
(-0.493343 0 0)
(-0.490949 0 0)
(-0.488554 0 0)
(-0.486157 0 0)
(-0.483759 0 0)
(-0.48136 0 0)
(-0.47896 0 0)
(-0.476558 0 0)
(-0.474155 0 0)
(-0.471751 0 0)
(-0.469346 0 0)
(-0.466939 0 0)
(-0.464531 0 0)
(-0.462122 0 0)
(-0.459712 0 0)
(-0.4573 0 0)
(-0.454888 0 0)
(-0.452474 0 0)
(-0.450059 0 0)
(-0.447643 0 0)
(-0.445225 0 0)
(-0.442807 0 0)
(-0.440387 0 0)
(-0.437967 0 0)
(-0.435545 0 0)
(-0.433122 0 0)
(-0.430698 0 0)
(-0.428273 0 0)
(-0.425847 0 0)
(-0.42342 0 0)
(-0.420991 0 0)
(-0.418562 0 0)
(-0.416132 0 0)
(-0.4137 0 0)
(-0.411268 0 0)
(-0.408834 0 0)
(-0.4064 0 0)
(-0.403965 0 0)
(-0.401528 0 0)
(-0.399091 0 0)
(-0.396653 0 0)
(-0.394213 0 0)
(-0.391773 0 0)
(-0.389332 0 0)
(-0.38689 0 0)
(-0.384447 0 0)
(-0.382003 0 0)
(-0.379558 0 0)
(-0.377112 0 0)
(-0.374665 0 0)
(-0.372217 0 0)
(-0.369769 0 0)
(-0.36732 0 0)
(-0.364869 0 0)
(-0.362418 0 0)
(-0.359966 0 0)
(-0.357513 0 0)
(-0.35506 0 0)
(-0.352605 0 0)
(-0.35015 0 0)
(-0.347694 0 0)
(-0.345237 0 0)
(-0.342779 0 0)
(-0.34032 0 0)
(-0.337861 0 0)
(-0.335401 0 0)
(-0.33294 0 0)
(-0.330478 0 0)
(-0.328016 0 0)
(-0.325553 0 0)
(-0.323089 0 0)
(-0.320624 0 0)
(-0.318159 0 0)
(-0.315693 0 0)
(-0.313226 0 0)
(-0.310758 0 0)
(-0.30829 0 0)
(-0.305821 0 0)
(-0.303352 0 0)
(-0.300881 0 0)
(-0.29841 0 0)
(-0.295939 0 0)
(-0.293466 0 0)
(-0.290993 0 0)
(-0.28852 0 0)
(-0.286045 0 0)
(-0.28357 0 0)
(-0.281095 0 0)
(-0.278619 0 0)
(-0.276142 0 0)
(-0.273664 0 0)
(-0.271186 0 0)
(-0.268708 0 0)
(-0.266228 0 0)
(-0.263749 0 0)
(-0.261268 0 0)
(-0.258787 0 0)
(-0.256306 0 0)
(-0.253824 0 0)
(-0.251341 0 0)
(-0.248858 0 0)
(-0.246374 0 0)
(-0.24389 0 0)
(-0.241405 0 0)
(-0.23892 0 0)
(-0.236434 0 0)
(-0.233947 0 0)
(-0.23146 0 0)
(-0.228973 0 0)
(-0.226485 0 0)
(-0.223997 0 0)
(-0.221508 0 0)
(-0.219019 0 0)
(-0.216529 0 0)
(-0.214039 0 0)
(-0.211548 0 0)
(-0.209057 0 0)
(-0.206565 0 0)
(-0.204073 0 0)
(-0.20158 0 0)
(-0.199088 0 0)
(-0.196594 0 0)
(-0.1941 0 0)
(-0.191606 0 0)
(-0.189112 0 0)
(-0.186617 0 0)
(-0.184121 0 0)
(-0.181625 0 0)
(-0.179129 0 0)
(-0.176633 0 0)
(-0.174136 0 0)
(-0.171638 0 0)
(-0.169141 0 0)
(-0.166643 0 0)
(-0.164144 0 0)
(-0.161646 0 0)
(-0.159147 0 0)
(-0.156647 0 0)
(-0.154147 0 0)
(-0.151647 0 0)
(-0.149147 0 0)
(-0.146646 0 0)
(-0.144145 0 0)
(-0.141644 0 0)
(-0.139142 0 0)
(-0.136641 0 0)
(-0.134138 0 0)
(-0.131636 0 0)
(-0.129133 0 0)
(-0.12663 0 0)
(-0.124127 0 0)
(-0.121624 0 0)
(-0.11912 0 0)
(-0.116616 0 0)
(-0.114112 0 0)
(-0.111607 0 0)
(-0.109102 0 0)
(-0.106597 0 0)
(-0.104092 0 0)
(-0.101587 0 0)
(-0.0990813 0 0)
(-0.0965755 0 0)
(-0.0940695 0 0)
(-0.0915633 0 0)
(-0.0890569 0 0)
(-0.0865503 0 0)
(-0.0840436 0 0)
(-0.0815367 0 0)
(-0.0790296 0 0)
(-0.0765224 0 0)
(-0.0740149 0 0)
(-0.0715074 0 0)
(-0.0689997 0 0)
(-0.0664918 0 0)
(-0.0639838 0 0)
(-0.0614757 0 0)
(-0.0589675 0 0)
(-0.0564591 0 0)
(-0.0539506 0 0)
(-0.051442 0 0)
(-0.0489334 0 0)
(-0.0464246 0 0)
(-0.0439157 0 0)
(-0.0414067 0 0)
(-0.0388976 0 0)
(-0.0363885 0 0)
(-0.0338792 0 0)
(-0.0313699 0 0)
(-0.0288606 0 0)
(-0.0263512 0 0)
(-0.0238417 0 0)
(-0.0213322 0 0)
(-0.0188226 0 0)
(-0.016313 0 0)
(-0.0138034 0 0)
(-0.0112937 0 0)
(-0.00878402 0 0)
(-0.00627431 0 0)
(-0.00376459 0 0)
(-0.00125486 0 0)
)
;

boundaryField
{
    left
    {
        type            fixedValue;
        value           uniform (0 0 0);
    }
    right
    {
        type            fixedValue;
        value           uniform (0 0 0);
    }
    frontBackUpDown
    {
        type            empty;
    }
}


// ************************************************************************* //
