/*--------------------------------*- C++ -*----------------------------------*\
| =========                 |                                                 |
| \\      /  F ield         | OpenFOAM: The Open Source CFD Toolbox           |
|  \\    /   O peration     | Version:  2412                                  |
|   \\  /    A nd           | Website:  www.openfoam.com                      |
|    \\/     M anipulation  |                                                 |
\*---------------------------------------------------------------------------*/
FoamFile
{
    version     2.0;
    format      ascii;
    arch        "LSB;label=32;scalar=64";
    class       volScalarField;
    location    "0.05";
    object      epsilon;
}
// * * * * * * * * * * * * * * * * * * * * * * * * * * * * * * * * * * * * * //

dimensions      [0 2 -3 0 0 0 0];

internalField   nonuniform List<scalar> 
12225
(
448.25
622.716
830.007
1003.76
1148.68
1267.73
1365.27
1445.32
1511
1564.88
1609.04
1645.14
1674.48
1698.07
1716.74
1731
1741.81
1753.71
173.746
302.033
402.948
479.882
538.875
585.027
621.24
649.714
672.156
689.834
703.711
714.539
722.909
729.283
734.052
737.429
740.092
738.966
119.443
232.398
315.47
376.153
420.986
454.765
480.267
499.487
513.942
524.745
532.719
538.493
542.554
545.282
546.992
547.911
548.39
547.446
97.6574
200.015
277.812
334.854
376.768
407.82
430.78
447.656
459.957
468.796
475.001
479.195
481.86
483.37
484.031
484.095
483.867
483.156
83.6777
176.36
251.684
308.679
351.245
382.873
406.215
423.284
435.614
444.357
450.38
454.344
456.754
458.009
458.434
458.306
457.925
457.359
72.0244
154.073
226.481
284.057
328.485
362.174
387.412
406.112
419.786
429.612
436.496
441.14
444.09
445.779
446.559
446.734
446.599
446.289
61.3818
131.402
198.845
255.9
301.962
338.101
365.952
387.141
403.062
414.856
423.439
429.538
433.732
436.486
438.182
439.145
439.66
439.867
51.7094
108.859
168.737
223.017
269.282
307.229
337.608
361.55
380.189
394.534
405.443
413.632
419.687
424.091
427.242
429.479
431.075
432.149
43.2619
87.772
137.942
186.74
230.891
269.02
300.951
327.172
348.412
365.435
378.957
389.617
397.964
404.468
409.524
413.466
416.553
418.867
36.2069
69.358
108.874
149.909
189.359
225.366
257.053
284.273
307.272
326.479
342.383
355.473
366.206
374.993
382.193
388.113
392.984
396.841
30.532
54.2405
83.5421
115.684
148.381
179.911
209.121
235.423
258.643
278.856
296.277
311.195
323.918
334.753
343.986
351.867
358.579
364.098
26.4063
43.2848
64.4656
88.5601
114.151
139.983
165.028
188.58
210.239
229.837
247.363
262.907
276.624
288.693
299.303
308.627
316.786
323.677
23.1681
34.819
49.4625
66.5322
85.2947
105.005
124.939
144.486
163.204
180.802
197.123
212.106
225.762
238.15
249.355
259.466
268.53
276.382
20.3992
27.7508
36.8652
47.6252
59.7621
72.9569
86.8436
101.049
115.242
129.156
142.59
155.407
167.522
178.893
189.511
199.379
208.476
216.583
18.1659
22.2813
27.2271
33.0477
39.7014
47.113
55.1703
63.7291
72.6332
81.732
90.8897
99.9895
108.936
117.655
126.09
134.195
141.911
149.018
16.4818
18.3832
20.5755
23.1074
25.9961
29.2482
32.8588
36.806
41.054
45.5588
50.2722
55.1443
60.1264
65.1723
70.2396
75.2873
80.2638
85.0226
15.3346
15.8874
16.5205
17.2514
18.0889
19.0406
20.1137
21.3127
22.6368
24.0819
25.6423
27.3098
29.0745
30.9246
32.8475
34.8292
36.8523
38.8768
14.7525
14.6793
14.6425
14.6435
14.6812
14.7551
14.8653
15.0127
15.1985
15.4245
15.691
15.9982
16.3457
16.7327
17.1577
17.619
18.1136
18.6337
14.8942
14.9658
15.0752
15.2256
15.4168
15.6484
15.9205
16.2325
16.5834
16.9714
17.3943
17.8493
18.3335
18.8435
19.3758
19.927
20.4924
21.0565
15.9616
17.2393
18.6889
20.3355
22.1837
24.231
26.4692
28.8808
31.4411
34.1204
36.8876
39.7111
42.5607
45.4085
48.2297
51.0028
53.7058
56.2885
18.0342
21.9583
26.6168
32.025
38.1164
44.7922
51.9263
59.3716
66.9772
74.6041
82.1324
89.4639
96.5222
103.251
109.614
115.588
121.157
126.283
21.5406
30.5914
41.7978
54.8237
69.16
84.2871
99.6955
114.928
129.624
143.53
156.484
168.401
179.251
189.047
197.831
205.663
212.606
218.71
27.1887
45.2131
67.6058
92.6245
118.622
144.313
168.725
191.224
211.491
229.439
245.121
258.678
270.294
280.173
288.517
295.518
301.351
306.178
35.6788
67.5656
105.45
144.567
181.951
215.975
245.841
271.384
292.831
310.589
325.121
336.884
346.303
353.755
359.566
364.018
367.349
369.785
47.3695
97.4884
151.786
202.306
246.321
283.204
313.243
337.232
356.11
370.764
381.971
390.392
396.571
400.954
403.903
405.712
406.622
406.869
61.8524
131.639
198.497
254.503
299.44
334.592
361.56
381.945
397.133
408.25
416.193
421.664
425.217
427.282
428.196
428.222
427.576
426.469
78.4399
165.681
239.521
296.532
339.585
371.752
395.551
412.956
425.497
434.344
440.38
444.275
446.535
447.548
447.613
446.958
445.766
444.223
99.5844
200.931
279.443
337.799
380.459
411.846
434.974
451.904
464.181
472.96
479.088
483.195
485.755
487.129
487.595
487.366
486.609
485.493
144.785
258.334
348.692
417.762
468.735
507.139
536.402
558.731
575.796
588.843
598.783
606.297
611.908
616.021
618.95
620.946
622.2
622.911
366.939
498.611
666.979
808.787
924.648
1018.39
1093.99
1155.27
1205.22
1246.09
1279.67
1307.38
1330.34
1349.43
1365.36
1378.69
1389.85
1399.28
6.70461
8.05669
11.7626
14.5978
16.6694
18.1071
19.0229
19.509
19.6792
19.9195
20.4056
21.1404
22.2207
23.7968
26.0227
28.8967
32.2455
35.8591
39.8925
45.4863
52.3085
60.6575
70.5927
82.0175
94.7264
108.469
122.992
138.065
153.482
169.068
184.676
200.184
215.498
230.542
245.262
259.624
273.605
287.199
300.408
313.242
325.715
337.847
349.657
361.169
372.402
383.376
394.111
404.625
414.933
425.05
434.99
444.764
454.383
463.858
473.197
482.407
491.496
500.471
509.338
518.103
526.77
535.346
543.833
552.238
560.564
568.816
576.998
585.114
593.171
601.174
609.13
617.052
624.954
632.859
640.799
648.822
657
665.305
673.61
681.931
690.274
698.645
707.045
715.473
723.927
732.404
740.898
749.403
757.91
766.408
774.883
783.318
791.695
799.989
808.175
816.221
824.092
831.745
839.136
846.212
852.913
859.174
864.921
870.073
874.542
878.231
881.036
882.845
883.541
883.002
881.1
877.709
872.706
865.979
857.446
847.123
835.406
824.513
821.29
823.024
823.947
823.154
820.435
815.738
809.074
800.497
790.099
777.997
764.333
749.264
732.959
715.593
697.34
678.371
658.848
638.925
618.739
598.414
578.059
557.767
537.616
517.667
497.968
478.549
459.429
440.603
421.968
403.34
384.961
366.961
349.205
331.666
314.369
297.362
280.7
264.443
248.654
233.39
218.701
204.625
191.181
178.371
166.177
154.57
143.516
132.982
122.95
113.42
104.413
95.9809
88.1984
81.1764
75.0742
70.028
65.777
62.1181
58.9109
55.9859
53.2507
50.0173
21.8675
15.0214
13.392
12.7608
12.5628
12.6578
13.0042
13.6147
14.5739
15.9852
17.8833
20.351
23.5478
27.6961
33.109
39.3016
45.851
52.4992
59.0648
65.485
71.683
77.669
83.4704
89.1064
94.5863
99.9194
105.121
110.21
115.209
120.135
125.003
129.821
134.593
139.319
143.998
148.626
153.199
157.716
162.172
166.568
170.9
175.171
179.379
183.526
187.612
191.64
195.61
199.524
203.384
207.19
210.945
214.649
218.304
221.911
225.472
228.987
232.458
235.886
239.272
242.618
245.923
249.19
252.42
255.614
258.773
261.9
264.995
268.062
271.103
274.122
277.122
280.111
283.097
286.091
289.108
292.168
295.297
298.527
301.777
305.04
308.319
311.616
314.932
318.269
321.628
325.009
328.411
331.835
335.278
338.74
342.216
345.704
349.199
352.694
356.182
359.654
363.1
366.506
369.86
373.142
376.334
379.414
382.356
385.13
387.706
390.047
392.114
393.864
395.251
396.225
396.736
396.732
396.162
394.984
393.175
390.759
387.884
385.014
382.974
381.104
378.691
375.533
371.58
366.83
361.306
355.047
348.106
340.545
332.434
323.847
314.864
305.562
296.02
286.311
276.505
266.666
256.852
247.114
237.496
228.034
218.758
209.693
200.857
192.263
183.92
175.831
167.998
160.442
153.413
147.116
141.238
135.691
130.431
125.435
120.682
116.154
111.827
107.671
103.648
99.715
95.8212
91.915
87.9465
83.8735
79.6674
75.3181
70.8371
66.2582
61.6358
57.0404
52.5539
48.2635
44.254
40.5911
37.3089
34.4378
32.0186
30.1412
28.8999
28.9576
39.8611
21.8083
17.7662
16.3046
15.8197
15.9231
16.5269
17.6819
19.413
21.7925
24.9061
28.806
33.5406
39.0468
45.1082
51.321
57.2803
62.715
67.5211
71.7427
75.5075
78.9767
82.2966
85.5754
88.8824
92.2577
95.7208
99.2765
102.919
106.633
110.401
114.202
118.013
121.816
125.596
129.337
133.032
136.674
140.259
143.784
147.25
150.656
154.004
157.294
160.529
163.71
166.839
169.918
172.947
175.928
178.863
181.752
184.598
187.399
190.159
192.877
195.555
198.192
200.792
203.353
205.878
208.367
210.822
213.244
215.636
217.998
220.335
222.647
224.94
227.216
229.481
231.74
234
236.268
238.552
240.861
243.202
245.565
247.936
250.313
252.697
255.09
257.494
259.911
262.342
264.789
267.254
269.738
272.242
274.765
277.308
279.87
282.45
285.045
287.654
290.271
292.892
295.509
298.114
300.698
303.248
305.749
308.185
310.535
312.777
314.884
316.828
318.575
320.088
321.329
322.256
322.824
322.991
322.717
321.971
320.747
319.078
317.15
315.051
312.598
309.603
305.984
301.718
296.813
291.294
285.199
278.577
271.487
263.991
256.156
248.052
239.748
231.31
222.803
214.284
205.809
197.424
189.17
181.081
173.187
165.509
158.064
150.865
143.918
137.227
130.795
124.62
118.706
113.077
107.787
102.836
98.1713
93.7666
89.6019
85.6605
81.9266
78.3842
75.0158
71.8009
68.7158
65.7331
62.8218
59.9489
57.0816
54.1899
51.2509
48.2515
45.1915
42.0846
38.9582
35.8513
32.8106
29.8858
27.1234
24.564
22.2443
20.2008
18.4863
17.1678
16.4758
57.7897
28.1815
22.6304
20.9048
20.5352
20.9653
22.0822
23.8014
26.0922
29.0229
32.6242
36.8648
41.6353
46.7312
51.8705
56.7512
61.1442
64.9572
68.2369
71.1253
73.7982
76.4157
79.0946
81.9041
84.874
88.0078
91.2936
94.7105
98.2335
101.836
105.492
109.177
112.87
116.552
120.208
123.827
127.4
130.922
134.388
137.796
141.146
144.436
147.669
150.844
153.964
157.028
160.04
162.999
165.908
168.767
171.578
174.342
177.06
179.734
182.362
184.948
187.492
189.994
192.455
194.877
197.261
199.607
201.917
204.193
206.437
208.649
210.833
212.992
215.127
217.243
219.342
221.43
223.51
225.586
227.662
229.742
231.827
233.911
235.991
238.066
240.139
242.212
244.288
246.367
248.453
250.548
252.653
254.771
256.903
259.051
261.216
263.398
265.599
267.817
270.05
272.299
274.558
276.824
279.09
281.35
283.594
285.811
287.986
290.102
292.141
294.08
295.891
297.546
299.011
300.249
301.22
301.882
302.19
302.102
301.576
300.586
299.158
297.317
295.055
292.302
288.987
285.074
280.554
275.44
269.76
263.554
256.871
249.77
242.313
234.567
226.6
218.479
210.27
202.033
193.827
185.701
177.699
169.861
162.217
154.792
147.605
140.671
133.998
127.591
121.451
115.576
109.963
104.607
99.5068
94.6657
90.0946
85.7696
81.672
77.7859
74.0966
70.5903
67.2533
64.0718
61.031
58.1149
55.3059
52.5846
49.9302
47.3209
44.7358
42.1564
39.5692
36.9673
34.3528
31.737
29.1402
26.5898
24.1182
21.7588
19.5444
17.5058
15.6712
14.0729
12.7446
11.7623
75.8145
35.0762
28.3112
26.4196
26.1739
26.863
28.1881
30.0326
32.412
35.3219
38.7163
42.4954
46.5049
50.5517
54.4374
58.0055
61.1825
63.9922
66.5347
68.9456
71.3551
73.862
76.5257
79.3713
82.3995
85.5966
88.9413
92.4097
95.9769
99.6187
103.312
107.037
110.774
114.508
118.225
121.914
125.566
129.176
132.737
136.246
139.701
143.1
146.443
149.73
152.96
156.135
159.256
162.323
165.337
168.299
171.21
174.071
176.883
179.647
182.363
185.033
187.658
190.237
192.772
195.264
197.714
200.123
202.491
204.821
207.113
209.369
211.592
213.782
215.942
218.075
220.182
222.267
224.332
226.38
228.413
230.433
232.438
234.427
236.401
238.359
240.305
242.239
244.165
246.086
248.002
249.917
251.833
253.752
255.676
257.607
259.547
261.497
263.459
265.431
267.414
269.407
271.407
273.412
275.416
277.414
279.397
281.355
283.276
285.145
286.943
288.65
290.24
291.685
292.954
294.011
294.815
295.326
295.496
295.28
294.637
293.546
291.994
289.968
287.443
284.383
280.754
276.541
271.744
266.381
260.481
254.087
247.249
240.025
232.479
224.678
216.689
208.579
200.413
192.251
184.147
176.151
168.305
160.646
153.201
145.995
139.044
132.359
125.948
119.812
113.952
108.363
103.039
97.9722
93.154
88.5769
84.2383
80.1239
76.2179
72.5056
68.9732
65.6072
62.3946
59.3225
56.3778
53.5474
50.8172
48.1728
45.599
43.0803
40.6016
38.1495
35.7133
33.287
30.87
28.4686
26.0955
23.7697
21.5142
19.3546
17.3167
15.4253
13.7024
12.1695
10.8449
9.75706
91.9805
42.2135
34.2299
32.1168
31.8928
32.535
33.7313
35.4073
37.5198
40.0176
42.8241
45.8337
48.9202
51.9567
54.8409
57.5186
59.9945
62.3256
64.5992
66.9064
69.3218
71.8939
74.6459
77.5812
80.6906
83.958
87.364
90.8883
94.5106
98.2111
101.971
105.773
109.601
113.439
117.276
121.1
124.902
128.672
132.406
136.097
139.742
143.338
146.882
150.374
153.811
157.194
160.523
163.797
167.018
170.185
173.299
176.36
179.37
182.328
185.236
188.093
190.901
193.66
196.371
199.033
201.649
204.218
206.741
209.22
211.654
214.046
216.396
218.706
220.977
223.21
225.407
227.57
229.7
231.799
233.868
235.91
237.921
239.902
241.854
243.779
245.678
247.554
249.41
251.246
253.066
254.872
256.665
258.449
260.225
261.996
263.762
265.526
267.288
269.05
270.81
272.567
274.321
276.068
277.804
279.523
281.219
282.88
284.497
286.054
287.534
288.918
290.181
291.297
292.235
292.959
293.431
293.61
293.448
292.906
291.95
290.548
288.676
286.31
283.425
279.999
276.014
271.464
266.357
260.714
254.568
247.961
240.947
233.583
225.934
218.064
210.042
201.932
193.798
185.696
177.68
169.797
162.085
154.579
147.305
140.283
133.527
127.047
120.848
114.93
109.29
103.923
98.8205
93.9731
89.3694
84.9979
80.8482
76.9077
73.1621
69.597
66.199
62.9546
59.8509
56.8754
54.0156
51.2595
48.5948
46.0093
43.4907
41.0272
38.6072
36.2207
33.8598
31.5201
29.2012
26.9077
24.6493
22.4407
20.2999
18.2477
16.3052
14.4928
12.8285
11.3282
10.0035
8.8669
104.237
48.3116
39.4599
37.1396
36.7083
37.1391
38.1101
39.485
41.186
43.1482
45.302
47.5704
49.8768
52.1575
54.3745
56.5232
58.631
60.7475
62.9298
65.229
67.6817
70.3084
73.1152
76.0979
79.246
82.546
85.9823
89.5391
93.2002
96.9498
100.772
104.652
108.575
112.527
116.495
120.468
124.436
128.389
132.319
136.22
140.086
143.911
147.694
151.429
155.116
158.753
162.337
165.869
169.348
172.773
176.145
179.462
182.726
185.937
189.093
192.197
195.247
198.245
201.189
204.081
206.92
209.707
212.442
215.126
217.758
220.339
222.87
225.351
227.783
230.167
232.503
234.793
237.036
239.236
241.392
243.503
245.568
247.59
249.568
251.505
253.403
255.263
257.087
258.878
260.637
262.366
264.067
265.742
267.394
269.022
270.63
272.218
273.787
275.337
276.869
278.38
279.869
281.333
282.768
284.168
285.527
286.835
288.08
289.25
290.327
291.292
292.124
292.795
293.276
293.534
293.531
293.228
292.588
291.574
290.151
288.289
285.959
283.137
279.804
275.942
271.546
266.617
261.167
255.223
248.819
242
234.819
227.335
219.61
211.709
203.697
195.636
187.585
179.599
171.727
164.011
156.488
149.186
142.13
135.336
128.815
122.574
116.615
110.937
105.535
100.403
95.5299
90.9053
86.5164
82.3496
78.3908
74.6275
71.0461
67.6328
64.3743
61.2572
58.2687
55.3965
52.6285
49.9533
47.3595
44.8364
42.3736
39.9613
37.5903
35.2531
32.944
30.66
28.4015
26.1727
23.9822
21.8421
19.7678
17.777
15.8878
14.1178
12.4826
10.9952
9.66464
8.49821
111.829
52.7453
43.3094
40.671
40.0577
40.3266
41.0865
42.1682
43.4824
44.97
46.5833
48.281
50.0292
51.807
53.61
55.451
57.3563
59.3586
61.4901
63.7758
66.2319
68.8651
71.6747
74.6552
77.7975
81.0911
84.5244
88.0852
91.7608
95.5381
99.4039
103.345
107.348
111.4
115.488
119.601
123.728
127.858
131.982
136.093
140.182
144.244
148.273
152.266
156.217
160.124
163.986
167.798
171.561
175.272
178.93
182.535
186.086
189.582
193.023
196.409
199.738
203.01
206.226
209.384
212.485
215.527
218.511
221.436
224.302
227.109
229.857
232.544
235.173
237.741
240.25
242.7
245.091
247.424
249.698
251.911
254.063
256.156
258.19
260.168
262.091
263.959
265.776
267.541
269.257
270.925
272.547
274.124
275.657
277.147
278.596
280.004
281.371
282.697
283.981
285.222
286.418
287.564
288.658
289.692
290.659
291.551
292.357
293.062
293.652
294.107
294.407
294.527
294.437
294.109
293.51
292.607
291.366
289.756
287.743
285.299
282.401
279.028
275.165
270.804
265.946
260.599
254.782
248.524
241.864
234.847
227.528
219.963
212.214
204.342
196.408
188.471
180.584
172.797
165.154
157.691
150.44
143.425
136.665
130.173
123.957
118.02
112.361
106.978
101.863
97.0085
92.4028
88.0342
83.889
79.9523
76.2079
72.644
69.2477
66.0059
62.9052
59.9327
57.0758
54.3224
51.6608
49.08
46.5697
44.1199
41.7217
39.3666
37.0476
34.7587
32.4959
30.2577
28.0453
25.863
23.7189
21.6239
19.5918
17.6383
15.7798
14.0321
12.4094
10.9235
9.58284
8.3932
116.708
55.3207
45.382
42.5934
41.8971
42.0702
42.6858
43.5583
44.5965
45.7518
46.9973
48.3187
49.7112
51.178
52.7299
54.3836
56.1589
58.0754
60.1495
62.3926
64.8106
67.4048
70.1725
73.1088
76.2071
79.4597
82.8582
86.3933
90.0553
93.8335
97.7169
101.694
105.752
109.88
114.065
118.295
122.559
126.847
131.148
135.453
139.753
144.041
148.311
152.555
156.77
160.95
165.092
169.192
173.248
177.257
181.216
185.124
188.98
192.782
196.527
200.216
203.847
207.418
210.929
214.379
217.766
221.089
224.347
227.54
230.666
233.724
236.713
239.633
242.482
245.26
247.967
250.601
253.163
255.653
258.068
260.404
262.665
264.85
266.96
268.997
270.962
272.854
274.675
276.427
278.109
279.723
281.27
282.75
284.163
285.512
286.794
288.011
289.161
290.245
291.259
292.203
293.073
293.865
294.574
295.195
295.718
296.135
296.435
296.605
296.629
296.49
296.167
295.64
294.884
293.872
292.578
290.972
289.026
286.713
284.007
280.884
277.328
273.324
268.866
263.953
258.593
252.802
246.605
240.035
233.133
225.948
218.532
210.941
203.232
195.463
187.689
179.963
172.331
164.837
157.517
150.401
143.515
136.877
130.5
124.393
118.559
112.999
107.708
102.682
97.9112
93.3862
89.0953
85.0254
81.1623
77.4903
73.9919
70.6572
67.474
64.4292
61.5103
58.7045
55.9997
53.3841
50.8466
48.3768
45.9649
43.6021
41.2803
38.9925
36.7329
34.4973
32.2829
30.0894
27.9188
25.776
23.6687
21.6075
19.6052
17.6764
15.8363
14.0999
12.4808
10.9904
9.63714
8.42717
123.626
56.9782
46.2163
43.2073
42.4312
42.55
43.0934
43.8585
44.75
45.7249
46.7682
47.8814
49.0749
50.3639
51.7657
53.2973
54.974
56.8081
58.8084
60.9803
63.3258
65.8448
68.535
71.3932
74.4151
77.5957
80.9293
84.4093
88.0284
91.7781
95.6493
99.632
103.716
107.889
112.14
116.458
120.832
125.25
129.702
134.177
138.666
143.161
147.654
152.137
156.603
161.047
165.463
169.848
174.196
178.503
182.768
186.985
191.153
195.269
199.331
203.336
207.282
211.167
214.989
218.746
222.436
226.057
229.608
233.085
236.489
239.816
243.065
246.234
249.323
252.329
255.25
258.087
260.838
263.501
266.071
268.547
270.931
273.223
275.422
277.53
279.546
281.471
283.304
285.047
286.699
288.26
289.731
291.11
292.399
293.597
294.702
295.713
296.63
297.45
298.171
298.79
299.303
299.704
299.989
300.15
300.179
300.067
299.801
299.37
298.761
297.956
296.938
295.689
294.186
292.409
290.335
287.94
285.203
282.103
278.622
274.745
270.463
265.77
260.67
255.169
249.286
243.043
236.471
229.607
222.497
215.188
207.731
200.179
192.586
185.002
177.475
170.05
162.767
155.659
148.754
142.077
135.643
129.466
123.552
117.905
112.524
107.406
102.545
97.9329
93.5588
89.4119
85.4797
81.7487
78.2043
74.83
71.609
68.5332
65.5906
62.7688
60.0555
57.4386
54.9065
52.4479
50.0523
47.7099
45.4117
43.1497
40.9169
38.7073
36.5164
34.3412
32.1802
30.0341
27.9059
25.8009
23.727
21.6946
19.7161
17.8055
15.9776
14.2469
12.627
11.1293
9.76279
8.53441
126.945
57.2358
45.9165
42.7434
41.9176
42.024
42.5597
43.3062
44.1615
45.0815
46.0543
47.0863
48.1935
49.3957
50.7126
52.1615
53.7559
55.5062
57.4189
59.4981
61.7457
64.1623
66.7473
69.4997
72.4176
75.4986
78.7394
82.136
85.683
89.3744
93.2028
97.1599
101.237
105.423
109.708
114.082
118.533
123.05
127.622
132.239
136.891
141.568
146.261
150.961
155.661
160.353
165.032
169.69
174.322
178.923
183.489
188.014
192.495
196.928
201.31
205.636
209.904
214.11
218.252
222.326
226.33
230.26
234.113
237.888
241.581
245.189
248.71
252.141
255.481
258.726
261.875
264.926
267.877
270.722
273.458
276.084
278.601
281.008
283.304
285.489
287.561
289.522
291.37
293.104
294.724
296.23
297.619
298.892
300.047
301.083
301.996
302.786
303.45
303.985
304.388
304.654
304.778
304.755
304.576
304.237
303.728
303.038
302.158
301.076
299.778
298.25
296.476
294.441
292.128
289.519
286.597
283.347
279.754
275.806
271.493
266.812
261.761
256.347
250.583
244.486
238.083
231.403
224.485
217.37
210.103
202.732
195.306
187.873
180.478
173.166
165.975
158.941
152.093
145.456
139.049
132.887
126.979
121.33
115.943
110.815
105.942
101.317
96.9305
92.7735
88.8341
85.1002
81.5589
78.1964
74.9978
71.9461
69.0269
66.2335
63.554
60.9761
58.4883
56.0789
53.737
51.4518
49.2136
47.0131
44.8422
42.6936
40.5611
38.4401
36.3268
34.2195
32.1178
30.0235
27.9402
25.874
23.8331
21.828
19.871
17.9759
16.1574
14.4301
12.8076
11.3019
9.92273
8.6778
126.743
56.268
44.7237
41.4763
40.6398
40.7688
41.3432
42.1336
43.0302
43.9834
44.9774
46.0166
47.1157
48.2944
49.5724
50.9673
52.4936
54.1621
55.9806
57.9546
60.088
62.3834
64.8431
67.4682
70.2597
73.2176
76.3412
79.6285
83.0767
86.6816
90.4381
94.3394
98.3782
102.546
106.833
111.23
115.726
120.31
124.972
129.701
134.486
139.317
144.185
149.08
153.992
158.914
163.837
168.754
173.657
178.541
183.4
188.226
193.015
197.762
202.462
207.109
211.7
216.229
220.694
225.088
229.409
233.653
237.815
241.892
245.88
249.775
253.574
257.274
260.871
264.362
267.744
271.014
274.17
277.202
280.11
282.891
285.544
288.068
290.463
292.725
294.855
296.85
298.709
300.43
302.013
303.455
304.754
305.909
306.918
307.778
308.484
309.033
309.423
309.65
309.708
309.594
309.3
308.82
308.147
307.272
306.187
304.882
303.346
301.568
299.536
297.237
294.66
291.79
288.616
285.127
281.311
277.161
272.671
267.838
262.665
257.157
251.326
245.19
238.773
232.103
225.214
218.146
210.941
203.642
196.295
188.946
181.639
174.414
167.309
160.358
153.59
147.028
140.692
134.596
128.751
123.162
117.831
112.757
107.936
103.361
99.0257
94.9192
91.0309
87.3494
83.8624
80.5574
77.4213
74.4404
71.6
68.881
66.2782
63.7808
61.3773
59.0562
56.8063
54.6167
52.4767
50.3766
48.3068
46.2591
44.2258
42.2004
40.1777
38.1537
36.1258
34.0932
32.0565
30.0183
27.9832
25.9579
23.951
21.9733
20.0375
18.1573
16.3475
14.6231
12.9981
11.4851
10.0946
8.83523
123.533
54.3447
42.899
39.6722
38.8625
39.0382
39.678
40.5473
41.53
42.569
43.6415
44.745
45.8893
47.0903
48.366
49.734
51.2098
52.8065
54.5347
56.4024
58.4161
60.5819
62.9048
65.3894
68.0392
70.857
73.8445
77.0023
80.3298
83.8249
87.4846
91.3041
95.2777
99.3985
103.658
108.049
112.56
117.182
121.904
126.716
131.607
136.566
141.582
146.647
151.748
156.878
162.026
167.184
172.343
177.495
182.633
187.75
192.837
197.889
202.9
207.862
212.77
217.619
222.402
227.115
231.751
236.307
240.776
245.154
249.436
253.618
257.695
261.662
265.516
269.252
272.866
276.356
279.712
282.932
286.009
288.942
291.729
294.368
296.855
299.19
301.37
303.391
305.253
306.952
308.485
309.851
311.046
312.068
312.912
313.576
314.054
314.343
314.437
314.332
314.022
313.501
312.762
311.797
310.597
309.155
307.461
305.505
303.277
300.767
297.964
294.859
291.441
287.702
283.636
279.236
274.501
269.43
264.028
258.304
252.272
245.95
239.363
232.54
225.518
218.336
211.035
203.661
196.26
188.876
181.552
174.33
167.244
160.328
153.608
147.107
140.84
134.822
129.059
123.556
118.314
113.331
108.602
104.119
99.8762
95.8619
92.0661
88.4771
85.083
81.8717
78.8308
75.9479
73.2103
70.6048
68.1171
65.7294
63.4403
61.2382
59.1116
57.0492
55.0401
53.0738
51.1402
49.23
47.3342
45.445
43.5554
41.6595
39.7526
37.8316
35.8947
33.9419
31.9746
29.9964
28.0125
26.0303
24.0591
22.1099
20.1958
18.3309
16.5304
14.8096
13.1832
11.6644
10.2645
8.9929
117.843
51.7139
40.6669
37.5539
36.8061
37.0438
37.7599
38.7219
39.8101
40.9608
42.1432
43.3467
44.5736
45.8336
47.1409
48.5118
49.9627
51.5094
53.167
54.9443
56.8478
58.8889
61.0768
63.4194
65.9234
68.5944
71.4369
74.4539
77.6473
81.0174
84.5632
88.2821
92.1703
96.2226
100.432
104.793
109.294
113.928
118.685
123.554
128.525
133.586
138.727
143.937
149.204
154.519
159.871
165.249
170.644
176.046
181.447
186.837
192.207
197.55
202.857
208.121
213.335
218.491
223.582
228.602
233.543
238.4
243.167
247.837
252.404
256.862
261.207
265.433
269.535
273.506
277.344
281.04
284.586
287.979
291.215
294.289
297.198
299.939
302.509
304.903
307.119
309.152
311.001
312.661
314.129
315.401
316.473
317.34
318
318.446
318.673
318.677
318.45
317.988
317.282
316.326
315.112
313.632
311.876
309.835
307.501
304.863
301.913
298.641
295.039
291.1
286.818
282.19
277.215
271.896
266.237
260.251
253.952
247.363
240.509
233.423
226.143
218.712
211.176
203.583
195.982
188.424
180.953
173.612
166.439
159.466
152.719
146.218
139.978
134.008
128.311
122.89
117.741
112.859
108.236
103.863
99.7318
95.8298
92.1461
88.6687
85.3857
82.285
79.3545
76.5823
73.9566
71.4659
69.0985
66.8421
64.6831
62.6073
60.6146
58.693
56.8308
55.0169
53.2406
51.4916
49.7602
48.0373
46.3144
44.5837
42.8388
41.0741
39.2856
37.4704
35.6274
33.7573
31.8624
29.9466
28.0162
26.0789
24.1447
22.2252
20.3338
18.4853
16.6952
14.9794
13.3531
11.8304
10.4232
9.14193
110.111
48.5677
38.1974
35.29
34.6392
34.9514
35.7477
36.8048
38.0036
39.2764
40.5857
41.9136
43.2567
44.6122
45.9884
47.3999
48.8623
50.3914
52.0028
53.71
55.526
57.4636
59.535
61.7513
64.1223
66.6567
69.3617
72.243
75.3049
78.5503
81.9802
85.5942
89.3906
93.3658
97.515
101.832
106.31
110.941
115.715
120.622
125.652
130.795
136.038
141.371
146.781
152.257
157.789
163.363
168.97
174.599
180.238
185.878
191.507
197.118
202.699
208.243
213.739
219.18
224.557
229.862
235.087
240.224
245.266
250.206
255.037
259.752
264.345
268.808
273.136
277.324
281.362
285.243
288.959
292.506
295.879
299.073
302.083
304.903
307.531
309.962
312.19
314.212
316.023
317.619
318.995
320.146
321.068
321.754
322.2
322.4
322.347
322.035
321.457
320.605
319.472
318.049
316.328
314.3
311.955
309.285
306.281
302.933
299.233
295.175
290.754
285.966
280.809
275.288
269.408
263.18
256.621
249.753
242.605
235.211
227.611
219.853
211.987
204.068
196.151
188.293
180.546
172.959
165.576
158.431
151.555
144.967
138.679
132.699
127.026
121.656
116.581
111.79
107.271
103.011
98.9955
95.2112
91.6445
88.2823
85.1118
82.1209
79.2976
76.6304
74.1085
71.7211
69.4579
67.3088
65.2637
63.3117
61.4402
59.6411
57.9129
56.2429
54.6197
53.0322
51.4698
49.9223
48.3801
46.8341
45.2758
43.6977
42.0931
40.4568
38.7848
37.0747
35.3258
33.5389
31.717
29.8647
27.9886
26.0973
24.201
22.3121
20.4445
18.6135
16.835
15.1257
13.5015
11.9771
10.5651
9.2765
100.241
44.9538
35.5378
32.9359
32.4248
32.8315
33.7189
34.8788
36.1972
37.6051
39.06
40.5362
42.0203
43.5067
44.9975
46.5012
48.0295
49.5969
51.2188
52.911
54.6895
56.5699
58.5672
60.6956
62.9682
65.3964
67.9906
70.7593
73.7094
76.8463
80.1733
83.6924
87.4037
91.3057
95.3953
99.6679
104.118
108.737
113.519
118.452
123.528
128.735
134.062
139.498
145.03
150.645
156.332
162.078
167.871
173.699
179.549
185.41
191.271
197.12
202.946
208.739
214.488
220.183
225.816
231.375
236.852
242.239
247.526
252.705
257.769
262.709
267.518
272.188
276.713
281.083
285.288
289.32
293.174
296.841
300.317
303.595
306.668
309.533
312.182
314.611
316.814
318.785
320.519
322.01
323.253
324.241
324.97
325.431
325.62
325.528
325.149
324.476
323.499
322.211
320.604
318.668
316.394
313.774
310.797
307.455
303.741
299.646
295.165
290.294
285.031
279.379
273.342
266.931
260.161
253.054
245.638
237.948
230.027
221.923
213.692
205.394
197.092
188.85
180.731
172.793
165.09
157.665
150.553
143.78
137.36
131.298
125.592
120.231
115.203
110.488
106.067
101.92
98.0271
94.3682
90.9261
87.6845
84.6287
81.7454
79.0225
76.4488
74.0143
71.7094
69.5253
67.4536
65.486
63.6146
61.8313
60.1272
58.49
56.924
55.4185
53.9621
52.5436
51.1522
49.7772
48.4086
47.0364
45.6512
44.2444
42.8081
41.3355
39.821
38.2608
36.6522
34.9948
33.2896
31.5397
29.7504
27.9285
26.0831
24.2251
22.3674
20.5242
18.7116
16.9461
15.2449
13.6247
12.1006
10.6861
9.39276
90.8432
41.875
33.2558
30.9142
30.5322
31.0302
32.0072
33.2723
34.7178
36.276
37.9007
39.5608
41.2355
42.9125
44.5872
46.2612
47.9413
49.638
51.365
53.1376
54.9723
56.8863
58.8964
61.0193
63.2704
65.664
68.213
70.9286
73.8203
76.8958
80.1609
83.6197
87.2743
91.1252
95.1709
99.4084
103.833
108.439
113.219
118.164
123.266
128.512
133.893
139.396
145.008
150.719
156.513
162.379
168.304
174.273
180.275
186.295
192.323
198.345
204.35
210.325
216.258
222.14
227.959
233.704
239.365
244.932
250.397
255.748
260.978
266.078
271.038
275.852
280.508
284.995
289.303
293.426
297.355
301.082
304.601
307.904
310.985
313.836
316.45
318.823
320.945
322.812
324.417
325.752
326.811
327.587
328.073
328.262
328.146
327.716
326.966
325.886
324.467
322.701
320.578
318.088
315.224
311.975
308.333
304.29
299.84
294.977
289.699
284.006
277.901
271.393
264.495
257.226
249.613
241.689
233.496
225.084
216.509
207.837
199.135
190.476
181.934
173.578
165.473
157.677
150.235
143.182
136.539
130.315
124.507
119.103
114.083
109.422
105.09
101.058
97.2961
93.7772
90.4759
87.3702
84.4408
81.6716
79.0489
76.5614
74.1993
71.9546
69.82
67.7893
65.8565
64.0161
62.2629
60.5913
58.996
57.4708
56.0089
54.6137
53.2739
51.9786
50.7171
49.4786
48.2527
47.0289
45.7969
44.5468
43.2694
41.9562
40.5998
39.1943
37.7351
36.2196
34.6467
33.0178
31.3359
29.6063
27.8363
26.0353
24.2147
22.3876
20.569
18.7754
17.024
15.3324
13.718
12.1966
10.7821
9.48655
81.6028
38.947
31.2537
29.2286
29.0204
29.6559
30.7731
32.1984
33.8319
35.607
37.4754
39.4008
41.3555
43.32
45.2819
47.2353
49.1806
51.1233
53.0731
55.0433
57.0491
59.1079
61.2372
63.4551
65.7789
68.225
70.8087
73.5435
76.4414
79.5122
82.7642
86.2033
89.8338
93.6578
97.6757
101.886
106.285
110.869
115.631
120.564
125.659
130.905
136.293
141.811
147.446
153.186
159.018
164.929
170.905
176.932
182.998
189.089
195.191
201.292
207.379
213.439
219.46
225.429
231.336
237.169
242.917
248.569
254.116
259.546
264.85
270.019
275.044
279.912
284.61
289.129
293.459
297.592
301.518
305.23
308.72
311.978
314.997
317.77
320.288
322.544
324.531
326.24
327.663
328.794
329.624
330.146
330.35
330.229
329.774
328.976
327.826
326.315
324.433
322.171