/*--------------------------------*- C++ -*----------------------------------*\
| =========                 |                                                 |
| \\      /  F ield         | OpenFOAM: The Open Source CFD Toolbox           |
|  \\    /   O peration     | Version:  2412                                  |
|   \\  /    A nd           | Website:  www.openfoam.com                      |
|    \\/     M anipulation  |                                                 |
\*---------------------------------------------------------------------------*/
FoamFile
{
    version     2.0;
    format      ascii;
    arch        "LSB;label=32;scalar=64";
    class       volScalarField;
    location    "0.05";
    object      k;
}
// * * * * * * * * * * * * * * * * * * * * * * * * * * * * * * * * * * * * * //

dimensions      [0 2 -2 0 0 0 0];

internalField   nonuniform List<scalar> 
12225
(
0.316794
0.39442
0.4777
0.542238
0.593252
0.633569
0.665668
0.691444
0.712244
0.729083
0.742742
0.753817
0.76276
0.769918
0.775561
0.779862
0.78312
0.786697
0.569134
0.788813
0.952334
1.06757
1.15058
1.21187
1.25712
1.29043
1.31479
1.33236
1.34469
1.35297
1.35811
1.36079
1.36158
1.36078
1.3595
1.35679
0.670064
0.972099
1.18306
1.33169
1.43896
1.51794
1.57607
1.61863
1.64951
1.67155
1.68682
1.69689
1.70295
1.70592
1.70655
1.7054
1.70341
1.70084
0.722136
1.07677
1.32648
1.50435
1.6338
1.72936
1.79993
1.8518
1.88961
1.91674
1.93571
1.94843
1.95635
1.9606
1.9621
1.96161
1.96012
1.95834
0.742835
1.12935
1.41242
1.61835
1.77038
1.88348
1.96769
2.03016
2.07619
2.10967
2.13356
2.15007
2.16092
2.16747
2.1708
2.17186
2.17169
2.17114
0.740019
1.13803
1.44679
1.67873
1.85367
1.98576
2.08544
2.16047
2.21666
2.25836
2.28889
2.3108
2.32608
2.33628
2.34268
2.34638
2.34846
2.34975
0.719768
1.10921
1.432
1.68495
1.88146
2.03318
2.14991
2.2395
2.308
2.36007
2.39933
2.42862
2.45015
2.4657
2.47671
2.48442
2.48992
2.49393
0.687831
1.05097
1.37274
1.63779
1.85147
2.0214
2.1555
2.2609
2.34347
2.40792
2.45801
2.49674
2.52653
2.54932
2.5667
2.58001
2.59032
2.59822
0.649215
0.972989
1.27772
1.54246
1.7652
1.94881
2.09823
2.21902
2.31626
2.39429
2.45677
2.50671
2.54657
2.57841
2.60391
2.62444
2.64108
2.65422
0.607747
0.884766
1.15871
1.40931
1.62992
1.81922
1.97883
2.112
2.22244
2.31367
2.38888
2.45085
2.50192
2.54412
2.57911
2.60827
2.63261
2.65232
0.566106
0.79404
1.02815
1.25236
1.4586
1.64308
1.80465
1.94418
2.06364
2.16535
2.25168
2.32488
2.38698
2.43977
2.48479
2.52331
2.55621
2.58346
0.529045
0.712828
0.906515
1.09857
1.28173
1.45164
1.60581
1.74343
1.86495
1.97147
2.06442
2.14534
2.21576
2.2771
2.33064
2.37745
2.41822
2.45257
0.494949
0.63799
0.791882
0.949048
1.10377
1.25217
1.39144
1.5199
1.6369
1.7425
1.83722
1.92186
1.99734
2.06462
2.12461
2.17811
2.22554
2.26622
0.460953
0.562809
0.674339
0.79157
0.910679
1.0288
1.1436
1.25327
1.35664
1.45306
1.54231
1.62448
1.69982
1.76875
1.83173
1.88916
1.94116
1.98669
0.429582
0.493309
0.563798
0.639874
0.719683
0.801581
0.884079
0.965829
1.04573
1.12295
1.19694
1.26734
1.33395
1.39672
1.45567
1.51084
1.56206
1.60804
0.403347
0.435797
0.4717
0.51119
0.553862
0.599207
0.646663
0.695598
0.745372
0.795404
0.845194
0.894327
0.94247
0.98936
1.0348
1.07859
1.12044
1.15915
0.384192
0.394852
0.406895
0.420525
0.43576
0.452574
0.470917
0.490685
0.511706
0.533776
0.556703
0.580288
0.604339
0.628673
0.653118
0.677507
0.701632
0.724981
0.374076
0.373771
0.37419
0.375353
0.377242
0.379837
0.383128
0.387106
0.39177
0.397113
0.403109
0.409724
0.416917
0.424641
0.432842
0.441463
0.450428
0.459573
0.376546
0.378794
0.381777
0.385538
0.390049
0.395268
0.401157
0.407668
0.41474
0.422306
0.430297
0.438642
0.447272
0.456122
0.465129
0.474235
0.483366
0.492282
0.394795
0.417435
0.442363
0.469637
0.498961
0.529959
0.562232
0.595341
0.628836
0.6623
0.695373
0.727752
0.759193
0.789512
0.818572
0.846282
0.872547
0.897068
0.427541
0.488527
0.555278
0.62652
0.700399
0.775262
0.849673
0.922378
0.992379
1.05896
1.12167
1.18026
1.23462
1.28479
1.33088
1.37306
1.4115
1.44629
0.475457
0.594293
0.722395
0.854069
0.984424
1.11014
1.22884
1.33895
1.43966
1.53079
1.61257
1.68547
1.75013
1.80724
1.85752
1.90166
1.94032
1.97401
0.536554
0.727976
0.927324
1.12169
1.3035
1.46911
1.6168
1.74638
1.85874
1.95535
2.03791
2.10811
2.16755
2.21771
2.25989
2.29523
2.32472
2.34922
0.603881
0.8733
1.13894
1.38051
1.59185
1.77264
1.9246
2.0508
2.15477
2.23994
2.30935
2.36564
2.41103
2.44741
2.47631
2.49905
2.51669
2.53018
0.66811
1.00711
1.31544
1.57386
1.78514
1.95558
2.09155
2.19927
2.28418
2.35074
2.40257
2.44256
2.47306
2.49591
2.51262
2.52437
2.53216
2.53685
0.717162
1.09881
1.41354
1.65799
1.84699
1.99265
2.10437
2.18974
2.25463
2.30357
2.34004
2.36674
2.38576
2.39873
2.40692
2.41136
2.41285
2.41212
0.73564
1.11842
1.40705
1.61949
1.77735
1.89535
1.98358
2.04931
2.09794
2.13349
2.159
2.17675
2.18847
2.19552
2.19893
2.19951
2.19791
2.19471
0.708172
1.04713
1.29076
1.46566
1.59193
1.68457
1.75288
1.803
1.83948
1.86566
1.88398
1.89629
1.90396
1.90804
1.90937
1.90856
1.90612
1.90251
0.616917
0.86264
1.04909
1.18298
1.27724
1.34558
1.39569
1.43232
1.45894
1.47804
1.49145
1.50049
1.50616
1.50925
1.51033
1.50986
1.50821
1.50577
0.333269
0.408857
0.496367
0.564438
0.617128
0.658161
0.690338
0.71588
0.736363
0.752913
0.766375
0.777394
0.786464
0.793964
0.800193
0.805389
0.809725
0.813375
0.0267222
0.0501267
0.0645163
0.0745003
0.0813766
0.0859684
0.0888143
0.0902862
0.0907752
0.091501
0.0929613
0.0951529
0.0983417
0.102917
0.109222
0.117091
0.12593
0.135135
0.145158
0.158491
0.17399
0.192029
0.212406
0.234645
0.258159
0.282394
0.306886
0.331276
0.355295
0.37875
0.401503
0.423464
0.444578
0.464819
0.484184
0.502687
0.520358
0.537234
0.553362
0.568789
0.583566
0.597741
0.611363
0.624476
0.637123
0.64934
0.661162
0.672621
0.683745
0.694557
0.705081
0.715336
0.72534
0.735109
0.744656
0.753996
0.763138
0.772095
0.780876
0.789489
0.797942
0.806244
0.814401
0.822421
0.830309
0.838071
0.845713
0.853243
0.860664
0.867986
0.875216
0.882364
0.889445
0.896478
0.903491
0.910524
0.917636
0.924868
0.932054
0.939205
0.946331
0.953437
0.960525
0.967594
0.974644
0.981671
0.988671
0.99564
1.00257
1.00945
1.01627
1.02302
1.02968
1.03624
1.04266
1.04894
1.05504
1.06093
1.06657
1.07192
1.07694
1.08158
1.08577
1.08947
1.0926
1.09508
1.09684
1.09779
1.09784
1.09689
1.09483
1.09157
1.087
1.08102
1.07355
1.06455
1.05422
1.04378
1.03829
1.03874
1.03905
1.03802
1.03539
1.03111
1.02516
1.01757
1.0084
0.997726
0.985646
0.972269
0.957716
0.942113
0.925592
0.908282
0.890308
0.871792
0.852845
0.833569
0.814058
0.794392
0.774639
0.754858
0.735094
0.715378
0.69573
0.676154
0.656587
0.636836
0.616917
0.597192
0.577472
0.557699
0.537881
0.518057
0.498279
0.478613
0.459129
0.439903
0.421007
0.402505
0.384446
0.366857
0.349745
0.333092
0.31687
0.301045
0.285597
0.270527
0.255871
0.241713
0.228189
0.215505
0.203967
0.194005
0.185456
0.177937
0.171205
0.164962
0.159049
0.152104
0.0588173
0.0959599
0.123351
0.14237
0.156092
0.166664
0.175582
0.18406
0.193403
0.203553
0.214907
0.228845
0.246685
0.269414
0.297709
0.328466
0.35923
0.388656
0.416158
0.44196
0.466658
0.491125
0.516118
0.54214
0.569446
0.598113
0.6281
0.659285
0.691475
0.724429
0.757872
0.791516
0.825082
0.858317
0.891004
0.922972
0.954097
0.984296
1.01353
1.04177
1.06905
1.09538
1.12082
1.14539
1.16916
1.19217
1.21447
1.23611
1.25714
1.27758
1.29748
1.31688
1.3358
1.35427
1.37231
1.38996
1.40723
1.42415
1.44073
1.45699
1.47296
1.48864
1.50406
1.51924
1.53418
1.54892
1.56346
1.57782
1.59202
1.60608
1.62002
1.63384
1.64759
1.66126
1.67488
1.68847
1.70206
1.71547
1.72889
1.74236
1.7559
1.76953
1.78327
1.79714
1.81114
1.82531
1.83963
1.85413
1.86881
1.88368
1.89874
1.91397
1.92939
1.94497
1.96069
1.97655
1.99249
2.00849
2.0245
2.04046
2.0563
2.07194
2.08728
2.10222
2.11663
2.13037
2.14328
2.15518
2.16588
2.17516
2.18279
2.18854
2.19214
2.19335
2.1919
2.18761
2.18038
2.17033
2.15839
2.14405
2.12647
2.10538
2.08071
2.0525
2.02088
1.986
1.94807
1.90736
1.86415
1.81875
1.7715
1.72272
1.67276
1.62194
1.57058
1.51897
1.46737
1.41604
1.36517
1.31497
1.26559
1.21716
1.16978
1.12353
1.07848
1.03467
0.992108
0.950727
0.910232
0.870711
0.832969
0.797092
0.763112
0.731027
0.700808
0.672404
0.645734
0.620681
0.597084
0.574735
0.553385
0.532747
0.512519
0.492403
0.472132
0.451493
0.430346
0.408637
0.386401
0.363762
0.340927
0.318173
0.29584
0.274295
0.253859
0.234837
0.21752
0.20238
0.189499
0.182069
0.0878047
0.139525
0.177137
0.202679
0.221569
0.237015
0.251202
0.266009
0.281896
0.299436
0.319671
0.343455
0.371357
0.403057
0.437272
0.471891
0.505042
0.535772
0.564161
0.591102
0.617878
0.645759
0.675712
0.708283
0.74363
0.781616
0.821899
0.864021
0.907462
0.951692
0.996211
1.04057
1.0844
1.1274
1.16935
1.21011
1.2496
1.28778
1.32465
1.36025
1.39462
1.42781
1.4599
1.49095
1.52102
1.55017
1.57846
1.60594
1.63265
1.65865
1.68397
1.70864
1.7327
1.75618
1.77909
1.80148
1.82335
1.84473
1.86564
1.8861
1.90612
1.92573
1.94493
1.96376
1.98222
2.00033
2.01812
2.0356
2.0528
2.06973
2.08643
2.10291
2.11921
2.13535
2.15136
2.16727
2.18307
2.19873
2.21431
2.22986
2.24539
2.26093
2.2765
2.29213
2.30783
2.32362
2.33952
2.35555
2.37172
2.38803
2.40451
2.42115
2.43795
2.4549
2.472
2.48923
2.50655
2.52394
2.54135
2.55871
2.57597
2.59302
2.60978
2.62611
2.64187
2.65692
2.67105
2.68407
2.69575
2.70582
2.71402
2.72005
2.72359
2.72433
2.72194
2.71614
2.70667
2.69379
2.67744
2.65729
2.63298
2.60434
2.57134
2.53405
2.49261
2.44724
2.39822
2.34587
2.29055
2.23268
2.17265
2.11091
2.04786
1.98393
1.91951
1.85495
1.79059
1.72674
1.66364
1.60152
1.54058
1.48096
1.42278
1.36614
1.31109
1.25767
1.20589
1.15571
1.10693
1.0593
1.01297
0.968184
0.924989
0.883432
0.84354
0.805321
0.76877
0.733865
0.700563
0.668788
0.638431
0.60934
0.581325
0.554166
0.527626
0.501468
0.475483
0.449506
0.423441
0.397273
0.371072
0.344997
0.319283
0.294221
0.270123
0.247311
0.226074
0.206791
0.189608
0.175889
0.112487
0.188554
0.236169
0.267438
0.290763
0.31044
0.329223
0.348008
0.367435
0.388777
0.412873
0.440093
0.470243
0.502506
0.535612
0.568245
0.599566
0.629525
0.658822
0.688608
0.720089
0.754218
0.791529
0.832126
0.875779
0.922037
0.970337
1.02008
1.0707
1.12167
1.17254
1.22292
1.27253
1.32113
1.36858
1.41476
1.45962
1.50314
1.54534
1.58623
1.62587
1.66429
1.70155
1.73771
1.77283
1.80695
1.84012
1.87239
1.9038
1.9344
1.96422
1.99328
2.02163
2.04928
2.07626
2.1026
2.12832
2.15343
2.17795
2.20191
2.22531
2.24818
2.27052
2.29237
2.31373
2.33463
2.35508
2.3751
2.39471
2.41394
2.43281
2.45135
2.46957
2.48752
2.5052
2.52267
2.53985
2.55679
2.57354
2.59011
2.60655
2.62287
2.63911
2.65528
2.67141
2.68753
2.70364
2.71978
2.73596
2.75219
2.76849
2.78488
2.80134
2.81789
2.83452
2.85121
2.86794
2.88469
2.9014
2.91803
2.93451
2.95074
2.96664
2.98208
2.99691
3.01096
3.02405
3.03596
3.04644
3.05521
3.06199
3.06645
3.06824
3.06701
3.06238
3.05401
3.04181
3.02564
3.0053
2.98055
2.95116
2.91703
2.87814
2.8346
2.78656
2.73427
2.67806
2.61827
2.55533
2.48969
2.42182
2.35219
2.28127
2.20953
2.1374
2.06528
1.99354
1.9225
1.85245
1.78363
1.71624
1.65044
1.58635
1.52405
1.46361
1.40506
1.34839
1.29356
1.24045
1.18891
1.13876
1.09013
1.043
0.997372
0.953244
0.910604
0.869433
0.829709
0.7914
0.754459
0.718823
0.684406
0.651094
0.618748
0.587209
0.556306
0.52587
0.495756
0.46586
0.436135
0.406607
0.377379
0.348629
0.3206
0.293579
0.267874
0.243776
0.221612
0.201551
0.184203
0.134802
0.238985
0.295713
0.332661
0.360591
0.384233
0.405402
0.425366
0.445758
0.467665
0.491695
0.517984
0.546233
0.575822
0.60604
0.636376
0.666761
0.697624
0.729752
0.76403
0.801181
0.841613
0.885381
0.93225
0.981788
1.03347
1.08673
1.14105
1.19594
1.25098
1.30583
1.36017
1.41378
1.46647
1.51812
1.56862
1.61793
1.66599
1.71282
1.7584
1.80277
1.84595
1.88797
1.92887
1.96869
2.00747
2.04524
2.08205
2.11793
2.1529
2.18701
2.22028
2.25274
2.28441
2.31531
2.34546
2.37488
2.40359
2.43161
2.45894
2.48561
2.51163
2.53702
2.56178
2.58594
2.60951
2.6325
2.65493
2.67683
2.69821
2.71909
2.73949
2.75943
2.77893
2.79803
2.81673
2.83499
2.85286
2.87038
2.88757
2.90447
2.92111
2.93751
2.95369
2.96969
2.98551
3.0012
3.01676
3.03222
3.0476
3.06291
3.07817
3.09338
3.10855
3.12367
3.13874
3.15374
3.16864
3.18341
3.19799
3.21233
3.22633
3.23991
3.25294
3.26529
3.27678
3.28723
3.29642
3.30409
3.30999
3.31378
3.31516
3.31374
3.30916
3.30107
3.28921
3.27335
3.25325
3.22869
3.19947
3.16543
3.12649
3.08266
3.03405
2.98085
2.92333
2.86182
2.79672
2.72846
2.65753
2.58443
2.50965
2.43369
2.35704
2.28015
2.20344
2.12729
2.05203
1.97796
1.90531
1.83429
1.76506
1.69773
1.63238
1.56906
1.50779
1.44856
1.39131
1.33596
1.28237
1.23035
1.17987
1.13088
1.08334
1.0372
0.992431
0.948986
0.906821
0.86589
0.826141
0.787517
0.749947
0.713348
0.677622
0.642656
0.60833
0.574524
0.541131
0.508075
0.475321
0.442895
0.410887
0.379453
0.348812
0.319232
0.291004
0.264418
0.239766
0.217239
0.197215
0.15332
0.283581
0.350605
0.394063
0.426603
0.452407
0.474132
0.494065
0.513767
0.534297
0.55628
0.579966
0.605309
0.632114
0.660205
0.689585
0.720507
0.753439
0.788921
0.827414
0.869173
0.914208
0.962308
1.01311
1.06616
1.12098
1.17712
1.23414
1.29168
1.34939
1.40699
1.46425
1.52095
1.57695
1.6321
1.68631
1.7395
1.79162
1.84263
1.89252
1.94128
1.9889
2.03541
2.08082
2.12514
2.16841
2.21065
2.25188
2.29212
2.3314
2.36975
2.40718
2.44372
2.47939
2.51419
2.54816
2.5813
2.61363
2.64516
2.6759
2.70586
2.73506
2.76351
2.79122
2.81819
2.84444
2.86999
2.89484
2.91901
2.94251
2.96536
2.98757
3.00916
3.03015
3.05055
3.07037
3.08957
3.10821
3.12631
3.14393
3.16107
3.17777
3.19405
3.20994
3.22546
3.24063
3.25548
3.27002
3.28429
3.29829
3.31205
3.32557
3.33887
3.35195
3.36482
3.37746
3.38987
3.40201
3.41386
3.42537
3.43648
3.44712
3.4572
3.46659
3.47517
3.48278
3.48924
3.49433
3.49781
3.49942
3.49885
3.49577
3.48981
3.4807
3.46809
3.45171
3.43128
3.40656
3.37734
3.34343
3.30473
3.26118
3.21281
3.15977
3.10224
3.04051
2.97493
2.90592
2.83393
2.75944
2.68297
2.60502
2.52609
2.44668
2.36722
2.28815
2.20983
2.13259
2.05671
1.98242
1.90992
1.83934
1.7708
1.70436
1.64005
1.57788
1.51783
1.45983
1.4038
1.3496
1.29706
1.24606
1.19652
1.14838
1.10157
1.05602
1.01166
0.968435
0.926275
0.885116
0.844894
0.80554
0.766981
0.729137
0.691921
0.655247
0.61903
0.583199
0.547706
0.512542
0.477743
0.443406
0.409683
0.376785
0.344969
0.314518
0.285717
0.258846
0.234114
0.211818
0.166629
0.320849
0.3973
0.446635
0.481992
0.509142
0.53147
0.551185
0.569875
0.588698
0.608466
0.629698
0.6527
0.677656
0.704734
0.734153
0.766198
0.80117
0.839313
0.880747
0.925431
0.973176
1.02368
1.07656
1.13143
1.1879
1.2456
1.30418
1.36336
1.42286
1.48244
1.54191
1.60107
1.65976
1.71787
1.77527
1.83186
1.88759
1.94238
1.99619
2.049
2.10077
2.1515
2.20118
2.24981
2.2974
2.34396
2.38949
2.43402
2.47754
2.52008
2.56165
2.60226
2.64193
2.68066
2.71847
2.75536
2.79135
2.82645
2.86065
2.89397
2.92641
2.95798
2.98869
3.01854
3.04753
3.07568
3.10298
3.12946
3.15511
3.17994
3.20397
3.22721
3.24967
3.27137
3.29225
3.31233
3.33167
3.35029
3.36821
3.38547
3.40209
3.41808
3.43348
3.4483
3.46257
3.47631
3.48952
3.50225
3.51449
3.52627
3.5376
3.54848
3.55893
3.56895
3.57852
3.58764
3.59628
3.60442
3.61202
3.61901
3.62533
3.6309
3.6356
3.63933
3.64192
3.64322
3.64301
3.64107
3.63716
3.63096
3.62223
3.61066
3.59595
3.5778
3.55593
3.53009
3.50005
3.46563
3.42669
3.38314
3.33496
3.28224
3.2251
3.16377
3.09856
3.02981
2.95796
2.88345
2.80678
2.72843
2.64892
2.56873
2.48833
2.40814
2.32857
2.24997
2.17263
2.09682
2.02275
1.95059
1.88045
1.81242
1.74655
1.68286
1.62133
1.56192
1.50457
1.44918
1.39561
1.34369
1.29325
1.24422
1.19651
1.15003
1.1047
1.06042
1.01712
0.974714
0.933124
0.892277
0.8521
0.812523
0.773475
0.734887
0.696691
0.658831
0.621261
0.583961
0.546944
0.510264
0.474026
0.438391
0.40357
0.369817
0.337413
0.306646
0.277798
0.251095
0.226821
0.174608
0.348311
0.431834
0.484801
0.522822
0.551893
0.575339
0.595373
0.613651
0.631471
0.649856
0.669594
0.691276
0.715346
0.742144
0.771943
0.804949
0.841291
0.880999
0.923992
0.97009
1.01903
1.0705
1.12418
1.17972
1.23682
1.29519
1.35454
1.41465
1.47528
1.53623
1.59731
1.65836
1.71923
1.77976
1.83985
1.89937
1.95825
2.01639
2.07373
2.13021
2.1858
2.24044
2.29413
2.34683
2.39854
2.44924
2.49894
2.54762
2.59529
2.64195
2.6876
2.73226
2.77591
2.81857
2.86023
2.90091
2.94059
2.97929
3.017
3.05373
3.08947
3.12422
3.15799
3.19077
3.22256
3.25337
3.28319
3.31202
3.33986
3.36673
3.39261
3.41752
3.44147
3.46445
3.4864
3.50736
3.52738
3.54647
3.56466
3.58196
3.59841
3.61402
3.6288
3.64278
3.65597
3.66838
3.68005
3.69097
3.70116
3.71064
3.71942
3.7275
3.73488
3.74157
3.74756
3.75283
3.75737
3.76115
3.76412
3.76625
3.76746
3.76767
3.76681
3.76475
3.76134
3.75646
3.74992
3.74147
3.73098
3.71818
3.70281
3.68462
3.66334
3.63871
3.6105
3.57848
3.54246
3.50232
3.45794
3.40929
3.3564
3.29937
3.23837
3.17365
3.10551
3.03433
2.96053
2.88454
2.80684
2.72792
2.64824
2.56826
2.48841
2.40909
2.33066
2.25342
2.17765
2.10356
2.03133
1.9611
1.89295
1.82694
1.76311
1.70144
1.64189
1.58443
1.52895
1.47535
1.4235
1.3732
1.32429
1.27668
1.23028
1.18499
1.14069
1.0973
1.05471
1.01283
0.971575
0.930854
0.890594
0.850724
0.811179
0.7719
0.732835
0.693947
0.655211
0.616631
0.578237
0.540103
0.502348
0.465141
0.428698
0.393279
0.359171
0.326671
0.296067
0.267614
0.241602
0.179681
0.363768
0.451596
0.508033
0.548905
0.580262
0.60541
0.626557
0.645393
0.663303
0.681453
0.700806
0.722133
0.746021
0.772888
0.803005
0.836513
0.873432
0.913682
0.957099
1.00346
1.05249
1.10393
1.15748
1.21288
1.26988
1.32824
1.38774
1.44819
1.50938
1.57115
1.63332
1.69573
1.75823
1.82068
1.88295
1.94491
2.00646
2.0675
2.12794
2.1877
2.24673
2.30495
2.36233
2.41882
2.4744
2.52903
2.58269
2.63537
2.68705
2.73772
2.78738
2.836
2.88359
2.93014
2.97564
3.02009
3.06348
3.1058
3.14705
3.18722
3.22629
3.26427
3.30115
3.33691
3.37155
3.40506
3.43744
3.46867
3.49876
3.5277
3.55547
3.5821
3.60756
3.63183
3.65487
3.67672
3.69742
3.71697
3.7354
3.75272
3.76895
3.7841
3.79819
3.81122
3.82321
3.83417
3.84411
3.85304
3.86097
3.8679
3.87385
3.87882
3.8828
3.88579
3.88778
3.88876
3.88871
3.8876
3.88539
3.88204
3.87748
3.87165
3.86448
3.85585
3.84562
3.83372
3.81999
3.80426
3.78635
3.76606
3.74318
3.7175
3.68882
3.65692
3.62161
3.58274
3.54018
3.49383
3.44367
3.3897
3.33201
3.27073
3.20608
3.13832
3.06777
2.99481
2.91985
2.84331
2.76564
2.68728
2.60867
2.53021
2.45229
2.37525
2.29939
2.22497
2.1522
2.08127
2.01231
1.94539
1.88059
1.81792
1.75739
1.69895
1.64256
1.58814
1.5356
1.48481
1.43562
1.38782
1.34128
1.2959
1.25158
1.2082
1.16566
1.12383
1.08261
1.0419
1.0016
0.961617
0.921873
0.882295
0.842822
0.803403
0.763999
0.724585
0.685157
0.645735
0.60637
0.567151
0.528211
0.48973
0.451938
0.4151
0.379516
0.345496
0.313345
0.283345
0.255805
0.18675
0.369768
0.459648
0.518403
0.561674
0.595358
0.622629
0.645604
0.665922
0.684964
0.703932
0.723855
0.745577
0.769747
0.796821
0.827071
0.860614
0.897439
0.937437
0.980435
1.02622
1.07456
1.12522
1.17798
1.23261
1.28892
1.34673
1.40585
1.46611
1.52735
1.58942
1.65216
1.71541
1.77903
1.84288
1.90681
1.97071
2.03445
2.09791
2.16099
2.2236
2.28566
2.34708
2.4078
2.46777
2.52692
2.58521
2.64261
2.69909
2.7546
2.80913
2.86265
2.91514
2.96658
3.01695
3.06623
3.11442
3.16148
3.20741
3.25219
3.2958
3.33823
3.37945
3.41945
3.45822
3.49574
3.53199
3.56696
3.60063
3.633
3.66403
3.69374
3.7221
3.7491
3.77467
3.79883
3.82159
3.84297
3.86299
3.88166
3.89898
3.91496
3.92962
3.94295
3.95496
3.96567
3.97507
3.98316
3.98996
3.99547
3.99968
4.00259
4.00421
4.00453
4.00354
4.00122
3.99755
3.99252
3.98611
3.97828
3.96897
3.95811
3.94567
3.93161
3.91583
3.89822
3.8787
3.85714
3.83341
3.80738
3.7789
3.74781
3.71396
3.6772
3.63739
3.59441
3.54817
3.49862
3.44573
3.38954
3.33013
3.26763
3.20224
3.13419
3.06379
2.99135
2.91726
2.84191
2.7657
2.68903
2.61229
2.53587
2.4601
2.38532
2.31178
2.23974
2.16938
2.10087
2.03431
1.9698
1.90737
1.84704
1.78879
1.73261
1.67841
1.62614
1.5757
1.52696
1.47981
1.43407
1.38952
1.34607
1.30361
1.26202
1.22118
1.18098
1.14129
1.102
1.06299
1.02417
0.985431
0.946695
0.90789
0.868956
0.829849
0.79054
0.751016
0.711289
0.671395
0.6314
0.591411
0.551575
0.512086
0.473185
0.435153
0.398302
0.362961
0.329455
0.298094
0.269212
0.190121
0.367831
0.457975
0.518026
0.563172
0.599061
0.628667
0.65395
0.676423
0.697376
0.717951
0.739145
0.761796
0.786562
0.813912
0.844136
0.877367
0.913617
0.952805
0.994793
1.03941
1.08648
1.13582
1.18725
1.24061
1.29575
1.35251
1.41076
1.47036
1.53116
1.59302
1.65582
1.7194
1.78362
1.84835
1.91344
1.97876
2.04418
2.10958
2.17483
2.23984
2.3045
2.36871
2.4324
2.49548
2.55788
2.61954
2.68041
2.74043
2.79955
2.85774
2.91495
2.97115
3.02631
3.08039
3.13337
3.1852
3.23588
3.28537
3.33363
3.38065
3.4264
3.47085
3.51398
3.55575
3.59615
3.63515
3.67271
3.70883
3.74348
3.77664
3.80828
3.8384
3.86692
3.89382
3.9191
3.94278
3.96487
3.98536
4.00426
4.02157
4.03729
4.05142
4.06396
4.07491
4.08427
4.09203
4.0982
4.10276
4.10572
4.10706
4.10679
4.10489
4.10135
4.09616
4.08929
4.08072
4.07042
4.05839
4.04459
4.02898
4.0115
3.99212
3.97078
3.94741
3.92195
3.89432
3.86444
3.83222
3.79756
3.76037
3.72056
3.67804
3.63273
3.58458
3.53355
3.47963
3.42284
3.36325
3.30098
3.23617
3.16903
3.09979
3.02874
2.95619
2.88248
2.80797
2.73303
2.65801
2.58328
2.50915
2.43593
2.3639
2.2933
2.22432
2.15714
2.09186
2.02859
1.96738
1.90825
1.85121
1.79621
1.74323
1.69219
1.643
1.59557
1.5498
1.50554
1.46266
1.42096
1.38026
1.34047
1.30147
1.26313
1.22534
1.18797
1.15088
1.11396
1.0771
1.04017
1.00309
0.965763
0.928122
0.89011
0.851686
0.812829
0.773539
0.733839
0.69378
0.653445
0.612954
0.572471
0.532205
0.492411
0.453386
0.415461
0.378982
0.3443
0.311751
0.281694
0.189973
0.359604
0.448672
0.509192
0.555704
0.593559
0.625504
0.653302
0.678295
0.701622
0.724296
0.747218
0.77116
0.796749
0.824452
0.854581
0.887311
0.922702
0.960734
1.00133
1.04438
1.08977
1.13736
1.18705
1.23872
1.29225
1.34754
1.40447
1.46294
1.52282
1.58401
1.64637
1.70977
1.77409
1.83918
1.90491
1.97114
2.03774
2.10458
2.17152
2.23846
2.30527
2.37185
2.43809
2.5039
2.56919
2.63388
2.6979
2.76118
2.82366
2.88527
2.94596
3.00567
3.06437
3.122
3.17853
3.2339
3.28807
3.34101
3.39268
3.44304
3.49204
3.53966
3.58586
3.6306
3.67383
3.71554
3.75568
3.79423
3.83114
3.86639
3.89996
3.9318
3.96183
3.99006
4.01647
4.04107
4.06385
4.0848
4.10392
4.1212
4.13664
4.15022
4.16194
4.17178
4.17975
4.18582
4.18999
4.19224
4.19256
4.19093
4.18735
4.1818
4.17426
4.16471
4.15314
4.1395
4.12378
4.10595
4.08599
4.06386
4.03951
4.01291
3.98401
3.95278
3.91917
3.88312
3.8446
3.80356
3.75995
3.71375
3.66492
3.61347
3.55938
3.5027
3.44348
3.38181
3.3178
3.25161
3.18345
3.11353
3.04214
2.96955
2.89608
2.82206
2.74784
2.67373
2.60007
2.52715
2.45528
2.38469
2.3156
2.24822
2.18268
2.1191
2.05758
1.99815
1.94085
1.88567
1.83257
1.78152
1.73243
1.68524
1.63985
1.59615
1.55403
1.51336
1.474
1.4358
1.39853
1.36208
1.32634
1.29118
1.25648
1.2221
1.18791
1.15377
1.11957
1.08517
1.05047
1.01536
0.979757
0.94359
0.906801
0.869357
0.831241
0.792463
0.753058
0.71309
0.672655
0.63189
0.590973
0.550131
0.509634
0.469797
0.430971
0.393524
0.35783
0.324252
0.293173
0.186813
0.346661
0.433729
0.494095
0.541514
0.581024
0.615139
0.645422
0.673026
0.698909
0.723922
0.748829
0.774301
0.800901
0.829076
0.859152
0.891347
0.925786
0.962517
1.00153
1.04278
1.08622
1.13178
1.17941
1.22904
1.28061
1.33403
1.38924
1.44616
1.50468
1.56472
1.62617
1.68891
1.75282
1.81778
1.88364
1.95027
2.01755
2.08533
2.15347
2.22186
2.29036
2.35884
2.42721
2.49534
2.56313
2.63048
2.69731
2.76352
2.82904
2.89378
2.95768
3.02067
3.08267
3.14365
3.20352
3.26224
3.31974
3.37599
3.43091
3.48448
3.53662
3.5873
3.63646
3.68406
3.73005
3.77439
3.81702
3.85792
3.89703
3.93432
3.96975
4.00324
4.03476
4.06428
4.09179
4.11727
4.14071
4.1621
4.18141
4.19863
4.21374
4.22673
4.23758
4.24627
4.25279
4.25711
4.25922
4.2591
4.25671
4.25206
4.2451
4.23583
4.22422
4.21024
4.19386
4.17505
4.1538
4.13006
4.10382
4.07503
4.04367
4.0097
3.97311
3.93386
3.89194
3.84733
3.80003
3.75004
3.69738
3.64207
3.58418
3.52378
3.46095
3.39584
3.32859
3.2594
3.1885
3.11613
3.04259
2.96818
2.89322
2.81806
2.74302
2.66845
2.59464
2.5219
2.45048
2.38062
2.31252
2.24635
2.18222
2.12023
2.06045
2.0029
1.94759
1.89451
1.8436
1.79481
1.74807
1.70328
1.66035
1.61916
1.57961
1.54158
1.50492
1.46952
1.43521
1.40184
1.36918
1.33716
1.30567
1.27455
1.24368
1.21292
1.18212
1.15115
1.11987
1.08816
1.05591
1.023
0.98935
0.954883
0.919546
0.883306
0.846154
0.808107
0.769209
0.729536
0.689199
0.648348
0.607179
0.565932
0.524899
0.484412
0.444842
0.406581
0.370027
0.335567
0.303607
0.181101
0.330339
0.414845
0.474633
0.52258
0.563411
0.599426
0.632001
0.662107
0.690524
0.717933
0.744949
0.772121
0.799919
0.828743
0.85892
0.890703
0.924282
0.959801
0.997273
1.03667
1.07805
1.12141
1.16678
1.21413
1.26344
1.31469
1.36783
1.42282
1.47959
1.53806
1.59816
1.65978
1.72281
1.78714
1.85264
1.91918
1.98662
2.05484
2.12369
2.19303
2.26273
2.33266
2.40269
2.47269
2.54255
2.61215
2.68138
2.75014
2.81833
2.88586
2.95264
3.01858
3.0836
3.14763
3.21059
3.2724
3.333
3.39232
3.45029
3.50685
3.56194
3.61549
3.66744
3.71774
3.76633
3.81314
3.85814
3.90125
3.94243
3.98163
4.01878
4.05382
4.08672
4.11745
4.14598
4.17227
4.19631
4.21806
4.23751
4.25461
4.26935
4.2817
4.29164
4.29913
4.30415
4.30668
4.30668
4.30413
4.299
4.29127
4.28089
4.26785
4.2521
4.23363
4.2124
4.18838
4.16153
4.13183
4.09925
4.06376
4.02534
3.98397
3.93964
3.89236
3.84213
3.78897
3.73293
3.67407
3.61246
3.5482
3.48145
3.41236
3.34113
3.268
3.19323
3.11713
3.04002
2.96226
2.88423
2.80629
2.72883
2.6522
2.57674
2.50276
2.43052
2.36026
2.29215
2.22634
2.16293
2.10197
2.04349
1.98749
1.93394
1.8828
1.83398
1.78742
1.74301
1.70066
1.66025
1.62167
1.58479
1.54949
1.51564
1.48312
1.45179
1.42151
1.39214
1.36349
1.33538
1.30776
1.28049
1.25342
1.22641
1.1993
1.17195
1.14422
1.11596
1.08704
1.05735
1.02677
0.995212
0.962592
0.928858
0.893979
0.857951
0.820794
0.782563
0.743344
0.703259
0.662475
0.621201
0.579697
0.53827
0.497275
0.457103
0.418169
0.380893
0.345686
0.312973
0.173168
0.311644
0.393334
0.452315
0.500526
0.542388
0.580013
0.614617
0.647015
0.677831
0.707592
0.73678
0.765853
0.795091
0.824821
0.855364
0.886983
0.919891
0.954258
0.9902
1.02781
1.06716
1.10835
1.15141
1.1964
1.24334
1.29224
1.34311
1.39593
1.45067
1.50727
1.56567
1.6258
1.68756
1.75085
1.81555
1.88154
1.9487
2.01688
2.08594
2.15575
2.22616
2.29704
2.36824
2.43963
2.51107
2.58244
2.65361
2.72447
2.7949
2.86479
2.93403
3.00252
3.07017
3.13687
3.20255
3.2671
3.33046
3.39253
3.45323
3.51249
3.57023
3.62638
3.68086
3.73361
3.78454
3.8336
3.88072
3.92584
3.96888
4.00979
4.04849
4.08494
4.11908
4.15088
4.18029
4.20727
4.23179
4.2538
4.27327
4.29016
4.30443
4.31606
4.32499
4.33121
4.33466
4.33533
4.33316
4.32813
4.32019
4.30932
4.29547
4.27861
4.25871
4.23571
4.2096
4.18033
4.14788
4.11221
4.0733
4.03113
3.98569
3.93698
3.885
3.8298
3.7714
3.70988
3.64532
3.57786
3.50763
3.43484
3.35971
3.28251
3.20354
3.12316
3.04176
2.95973
2.87753
2.79559
2.71436
2.63427
2.55572
2.47906
2.40462
2.33263
2.2633
2.19677
2.1331
2.07233
2.01445
1.9594
1.90711
1.85748
1.81041
1.76577
1.72343
1.68326
1.64514
1.60894
1.57451
1.54173
1.51048
1.48062
1.45202
1.42457
1.39813
1.37256
1.34773
1.32346
1.2996
1.27613
1.25286
1.22965
1.20633
1.18274
1.15875
1.13418
1.10891
1.08277
1.05566
1.02743
0.998009
0.967299
0.935245
0.901817
0.867009
0.830848
0.793393
0.75474
0.715024
0.674423
0.633163
0.591521
0.549823
0.508443
0.467794
0.428313
0.390442
0.354612
0.321267
0.162744
0.290367
0.369334
0.427506
0.475901
0.518681
0.557769
0.594237
0.628788
0.661916
0.694005
0.725387
0.756355
0.787168
0.818078
0.849335
0.881174
0.913811
0.947442
0.98224
1.01836
1.05595
1.09513
1.13601
1.1787
1.22327
1.26978
1.31827
1.36876
1.42125
1.47572
1.53214
1.59045
1.65058
1.71243
1.77592
1.84093
1.90733
1.97499
2.04378
2.11356
2.18417
2.25548
2.32733
2.39959
2.4721
2.54473
2.61734
2.6898
2.76198
2.83374
2.90497
2.97556
3.04538
3.11433
3.18231
3.2492
3.31491
3.37935
3.44241
3.50401
3.56406
3.62247
3.67915
3.73403
3.78701
3.83803
3.887
3.93384
3.97848
4.02085
4.06089
4.09852
4.13371
4.16637
4.19647
4.22395
4.24876
4.27085
4.29017
4.30667
4.32032
4.33105
4.33883
4.34361
4.34535
4.34401
4.33953
4.33187
4.321
4.30686
4.28941
4.26862
4.24443
4.21681
4.18573
4.15113
4.11301
4.07132
4.02605
3.9772
3.92476
3.86876
3.80924
3.74625
3.67988
3.61026
3.53752
3.46188
3.38355
3.30284
3.22006
3.13561
3.0499
2.9634
2.87662
2.79008
2.70431
2.61983
2.53713
2.45667
2.37883
2.30394
2.23224
2.16389
2.09898
2.03752
1.97948
1.92474
1.87318
1.82463
1.77893
1.73588
1.69532
1.65707
1.62096
1.58683
1.55453
1.52393
1.49489
1.46729
1.44099
1.4159
1.39188
1.36883
1.34664
1.32518
1.30432
1.28387
1.26385
1.2441
1.22446
1.20476
1.18485
1.16454
1.14369
1.12213
1.09969
1.07624
1.05162
1.02571
0.998393
0.96959
0.939231
0.907283
0.873738
0.838625
0.802009
0.763993
0.72472
0.684384
0.643225
0.601536
0.559663
0.518001
0.476981
0.437062
0.398707
0.362366
0.328495
0.152498
0.269853
0.346173
0.403594
0.452056
0.495456
0.535648
0.57364
0.610039
0.645238
0.679511
0.713071
0.746101
0.778771
0.811255
0.843733
0.876398
0.909442
0.943062
0.97745
1.01279
1.04928
1.08707
1.12632
1.16718
1.20977
1.25419
1.30053
1.34883
1.39915
1.45148
1.50582
1.56215
1.62041
1.68054
1.74246
1.80606
1.87123
1.93786
2.0058
2.07493
2.1451
2.21617
2.28797
2.36037
2.43321
2.50634
2.57962
2.6529
2.72605
2.79891
2.87136
2.94327
3.01451
3.08495
3.15449
3.22299
3.29035
3.35645
3.4212
3.48448
3.54619
3.60624
3.66452
3.72094
3.77541
3.82784
3.87813
3.92621
3.972
4.01541
4.05638
4.09482
4.13068
4.16387
4.19433
4.222
4.24681
4.26871
4.28763
4.30352
4.31633
4.32598
4.33243
4.33563
4.33552
4.33205
4.32515
4.31479
4.30091
4.28346
4.26239
4.23765
4.20919
4.17698
4.14097
4.10113
4.05743
4.00985
3.95839
3.90305
3.84386
3.78086
3.71412
3.64375
3.56988
3.4927
3.41242
3.32934
3.24377
3.15611
3.06681
2.97637
2.88534
2.7943
2.70388
2.61469
2.52734
2.44238
2.36034
2.28164
2.20661
2.1355
2.06844
2.00545
1.94649
1.89143
1.84007
1.79218
1.74752
1.70581
1.66681
1.63026
1.59595