/*--------------------------------*- C++ -*----------------------------------*\
| =========                 |                                                 |
| \\      /  F ield         | OpenFOAM: The Open Source CFD Toolbox           |
|  \\    /   O peration     | Version:  2412                                  |
|   \\  /    A nd           | Website:  www.openfoam.com                      |
|    \\/     M anipulation  |                                                 |
\*---------------------------------------------------------------------------*/
FoamFile
{
    version     2.0;
    format      ascii;
    arch        "LSB;label=32;scalar=64";
    class       volScalarField;
    location    "0.05";
    object      nut;
}
// * * * * * * * * * * * * * * * * * * * * * * * * * * * * * * * * * * * * * //

dimensions      [0 2 -1 0 0 0 0];

internalField   nonuniform List<scalar> 
12225
(
2.01501e-05
2.24838e-05
2.47441e-05
2.63629e-05
2.75754e-05
2.84972e-05
2.92105e-05
2.9771e-05
3.02158e-05
3.05713e-05
3.08568e-05
3.10864e-05
3.12708e-05
3.14178e-05
3.15333e-05
3.16214e-05
3.16882e-05
3.17614e-05
0.000167787
0.000185411
0.000202568
0.000213747
0.000221099
0.000225933
0.000228949
0.000230668
0.000231466
0.0002316
0.000231255
0.000230566
0.000229631
0.000228523
0.000227301
0.000225993
0.000224758
0.000224202
0.000338311
0.000365958
0.000399297
0.000424314
0.000442661
0.000455999
0.000465491
0.000472077
0.000476475
0.000479219
0.000480709
0.000481248
0.000481064
0.00048033
0.000479183
0.000477732
0.0004762
0.000475587
0.000480591
0.00052171
0.000570026
0.000608256
0.00063763
0.000660003
0.000676861
0.000689427
0.000698665
0.000705316
0.000709953
0.000713016
0.000714849
0.000715718
0.000715835
0.000715381
0.000714628
0.000714384
0.000593495
0.000650877
0.00071337
0.000763627
0.000803088
0.000833893
0.000857827
0.00087634
0.000890582
0.00090145
0.000909645
0.00091572
0.000920109
0.000923155
0.000925137
0.000926295
0.000926921
0.0009276
0.000684303
0.000756534
0.000831812
0.000892892
0.00094144
0.000979895
0.00101033
0.00103442
0.00105344
0.00106844
0.00108022
0.00108941
0.00109653
0.00110197
0.00110609
0.00110915
0.00111146
0.00111344
0.000759605
0.000842687
0.000928143
0.000998499
0.00105507
0.00110039
0.00113674
0.00116594
0.00118943
0.00120835
0.00122358
0.00123583
0.00124568
0.00125358
0.00125991
0.00126499
0.0012691
0.00127259
0.000823449
0.000913189
0.0010051
0.00108249
0.0011457
0.00119698
0.00123859
0.00127244
0.00130005
0.00132264
0.00134115
0.00135636
0.00136888
0.00137921
0.00138777
0.0013949
0.00140086
0.00140592
0.000876826
0.000970738
0.00106516
0.00114665
0.00121457
0.00127056
0.0013166
0.00135453
0.00138587
0.00141185
0.00143345
0.00145148
0.0014666
0.00147932
0.0014901
0.00149926
0.00150707
0.00151371
0.000918114
0.00101579
0.00110986
0.00119242
0.00126266
0.00132168
0.00137099
0.0014122
0.0014467
0.00147567
0.0015001
0.00152079
0.00153838
0.00155344
0.00156639
0.00157758
0.00158723
0.00159543
0.000944676
0.00104617
0.00113881
0.00122019
0.00129044
0.00135053
0.00140162
0.001445
0.00148187
0.00151328
0.00154013
0.00156319
0.00158309
0.00160035
0.0016154
0.00162857
0.00164003
0.00164979
0.000953938
0.00105652
0.00114727
0.00122648
0.00129526
0.00135484
0.00140628
0.00145063
0.00148888
0.00152195
0.00155061
0.00157555
0.00159735
0.00161648
0.00163336
0.00164828
0.00166137
0.00167253
0.00095164
0.00105209
0.00114101
0.00121839
0.00128552
0.00134388
0.00139468
0.00143895
0.0014776
0.00151141
0.00154109
0.00156724
0.00159037
0.00161091
0.00162923
0.00164559
0.00166005
0.00167239
0.000937438
0.00102728
0.00111015
0.00118409
0.00124896
0.00130569
0.00135536
0.00139895
0.00143734
0.00147128
0.00150141
0.00152826
0.00155231
0.00157392
0.00159342
0.00161101
0.00162671
0.00164014
0.000914276
0.000982969
0.00105072
0.00111504
0.00117414
0.00122743
0.00127503
0.00131736
0.00135501
0.00138858
0.00141864
0.00144568
0.00147011
0.00149228
0.00151248
0.00153088
0.00154747
0.00156169
0.000888376
0.000929799
0.000973249
0.00101779
0.00106203
0.00110483
0.00114537
0.00118315
0.00121796
0.00124981
0.00127887
0.00130537
0.00132957
0.00135172
0.00137205
0.0013907
0.00140766
0.0014223
0.000866297
0.000883199
0.000901954
0.000922573
0.000944769
0.00096815
0.000992291
0.00101674
0.00104104
0.00106481
0.00108776
0.00110971
0.00113056
0.00115024
0.00116876
0.00118611
0.00120225
0.00121676
0.000853684
0.000856544
0.000860616
0.00086592
0.000872411
0.000880028
0.000888702
0.000898349
0.000908873
0.000920153
0.000932045
0.000944397
0.000957058
0.000969885
0.000982746
0.000995517
0.00100807
0.00102012
0.000856762
0.000862874
0.000870162
0.000878626
0.000888149
0.000898575
0.000909735
0.000921445
0.000933513
0.000945757
0.000958016
0.000970155
0.000982067
0.000993672
0.00100491
0.00101575
0.00102613
0.00103582
0.000878841
0.000909706
0.000942361
0.000976143
0.00101005
0.00104317
0.00107482
0.0011045
0.00113193
0.00115701
0.00117977
0.00120032
0.00121882
0.00123544
0.00125038
0.0012638
0.00127585
0.00128669
0.00091222
0.000978185
0.00104257
0.00110312
0.0011583
0.00120764
0.00125129
0.00128968
0.00132334
0.00135283
0.00137867
0.00140136
0.00142129
0.00143883
0.00145429
0.00146793
0.00147998
0.00149076
0.000944509
0.00103907
0.00112367
0.00119746
0.00126111
0.00131593
0.00136319
0.00140393
0.00143906
0.00146937
0.00149557
0.00151824
0.00153787
0.0015549
0.00156968
0.00158254
0.00159372
0.00160351
0.000952971
0.0010549
0.00114478
0.00122253
0.00128913
0.00134599
0.00139437
0.00143542
0.00147023
0.00149977
0.00152487
0.00154621
0.00156439
0.00157988
0.0015931
0.00160439
0.00161403
0.00162224
0.000919889
0.00101588
0.00110714
0.00118646
0.00125342
0.00130942
0.00135603
0.00139478
0.00142701
0.00145388
0.00147631
0.00149506
0.00151075
0.00152389
0.00153488
0.00154408
0.00155175
0.00155809
0.000848086
0.000936364
0.00102601
0.00110197
0.00116436
0.00121533
0.0012569
0.00129084
0.00131861
0.00134139
0.00136007
0.00137541
0.001388
0.00139832
0.00140675
0.00141362
0.00141917
0.00142356
0.000748378
0.000825473
0.000905952
0.00097211
0.00102532
0.00106804
0.00110232
0.00112986
0.00115201
0.00116982
0.00118412
0.00119558
0.00120472
0.00121196
0.00121766
0.00122208
0.00122544
0.00122788
0.00062092
0.000679485
0.000743908
0.000796028
0.00083722
0.000869692
0.000895235
0.000915278
0.000930959
0.000943174
0.000952622
0.000959857
0.000965315
0.000969342
0.000972215
0.000974156
0.000975339
0.000975881
0.00045324
0.000491129
0.000536589
0.000572333
0.000599494
0.000620138
0.000635744
0.000647426
0.000656065
0.000662342
0.000666778
0.000669775
0.000671644
0.000672628
0.000672919
0.000672666
0.000671988
0.000670985
0.000236577
0.000259251
0.000284069
0.000301487
0.000313226
0.000321318
0.000326838
0.000330463
0.000332695
0.0003339
0.000334341
0.000334212
0.000333657
0.000332787
0.000331686
0.000330418
0.000329032
0.000327592
2.72419e-05
3.01734e-05
3.32458e-05
3.5452e-05
3.70695e-05
3.82818e-05
3.92061e-05
3.99244e-05
4.04912e-05
4.09433e-05
4.13074e-05
4.16029e-05
4.18444e-05
4.2043e-05
4.22072e-05
4.23435e-05
4.24569e-05
4.2552e-05
9.58548e-06
2.80688e-05
3.18477e-05
3.42192e-05
3.57537e-05
3.67343e-05
3.73191e-05
3.76054e-05
3.76851e-05
3.78282e-05
3.81152e-05
3.85456e-05
3.91706e-05
4.00589e-05
4.12578e-05
4.27015e-05
4.42619e-05
4.58331e-05
4.75372e-05
4.97016e-05
5.20857e-05
5.47131e-05
5.75196e-05
6.04168e-05
6.33209e-05
6.61682e-05
6.89158e-05
7.15384e-05
7.40227e-05
7.63637e-05
7.85618e-05
8.06207e-05
8.25461e-05
8.43454e-05
8.60265e-05
8.75979e-05
8.90681e-05
9.04454e-05
9.1738e-05
9.29534e-05
9.40989e-05
9.51808e-05
9.62051e-05
9.71772e-05
9.81018e-05
9.89832e-05
9.98252e-05
0.000100631
0.000101403
0.000102145
0.000102859
0.000103546
0.000104209
0.000104848
0.000105466
0.000106064
0.000106642
0.000107203
0.000107746
0.000108272
0.000108784
0.00010928
0.000109762
0.000110231
0.000110687
0.00011113
0.000111562
0.000111982
0.000112391
0.000112789
0.000113178
0.000113558
0.000113928
0.000114292
0.000114649
0.000115001
0.00011535
0.000115713
0.000116069
0.000116419
0.000116763
0.000117104
0.000117439
0.00011777
0.000118097
0.00011842
0.000118738
0.000119051
0.000119358
0.000119661
0.000119957
0.000120246
0.000120529
0.000120802
0.000121067
0.000121321
0.000121564
0.000121793
0.000122007
0.000122204
0.000122383
0.000122539
0.000122672
0.000122777
0.000122852
0.000122893
0.000122896
0.000122857
0.00012277
0.000122632
0.000122437
0.000122179
0.000121853
0.000121452
0.00012097
0.000120401
0.000119732
0.000118922
0.000118137
0.00011799
0.000117929
0.000117807
0.0001176
0.0001173
0.000116905
0.000116415
0.000115831
0.000115156
0.000114394
0.000113548
0.000112625
0.00011163
0.00011057
0.00010945
0.000108277
0.000107058
0.000105797
0.000104502
0.000103177
0.000101826
0.000100454
9.90655e-05
9.76622e-05
9.6247e-05
9.48212e-05
9.3387e-05
9.19491e-05
9.04955e-05
8.89774e-05
8.74682e-05
8.59456e-05
8.43998e-05
8.28276e-05
8.12291e-05
7.96059e-05
7.79611e-05
7.62986e-05
7.46232e-05
7.29406e-05
7.12568e-05
6.95773e-05
6.79069e-05
6.62483e-05
6.46019e-05
6.29656e-05
6.13355e-05
5.97063e-05
5.8073e-05
5.64325e-05
5.47845e-05
5.31336e-05
5.14905e-05
4.98739e-05
4.83724e-05
4.70597e-05
4.5873e-05
4.47796e-05
4.37456e-05
4.27542e-05
4.16295e-05
1.42381e-05
5.5171e-05
0.000102254
0.000142955
0.000174548
0.000197501
0.000213364
0.000223952
0.00023099
0.00023328
0.000232432
0.000231601
0.000232583
0.000235866
0.000240924
0.000247066
0.000253302
0.000258953
0.000263895
0.000268452
0.000273416
0.000279498
0.000287215
0.000296863
0.000308545
0.000322224
0.000337763
0.000354949
0.000373516
0.000393156
0.000413537
0.000434328
0.000455213
0.000475912
0.000496187
0.000515853
0.000534774
0.000552865
0.000570079
0.000586407
0.000601861
0.000616474
0.000630289
0.000643359
0.000655735
0.000667472
0.000678621
0.00068923
0.000699345
0.000709007
0.000718254
0.000727119
0.000735634
0.000743826
0.00075172
0.000759339
0.000766705
0.000773837
0.000780753
0.000787471
0.000794005
0.000800372
0.000806587
0.000812662
0.000818612
0.00082445
0.000830188
0.000835836
0.000841405
0.000846903
0.000852333
0.000857696
0.000862986
0.000868189
0.000873276
0.000878209
0.000882939
0.000887211
0.000891443
0.000895698
0.000899997
0.000904354
0.000908782
0.000913294
0.0009179
0.000922612
0.000927442
0.0009324
0.000937496
0.000942739
0.000948136
0.000953694
0.000959419
0.000965315
0.000971383
0.000977623
0.000984033
0.000990607
0.000997337
0.00100421
0.00101121
0.00101832
0.0010255
0.00103274
0.00103999
0.00104721
0.00105436
0.00106136
0.00106816
0.00107469
0.00108085
0.00108656
0.00109171
0.00109617
0.00109977
0.00110224
0.00110307
0.00110108
0.00109479
0.0010856
0.00107468
0.00106232
0.0010486
0.00103358
0.0010173
0.000999801
0.000981163
0.000961466
0.000940804
0.000919283
0.000897017
0.000874124
0.000850726
0.000826945
0.000802899
0.000778703
0.000754465
0.000730286
0.000706256
0.000682459
0.000658967
0.000635843
0.000613141
0.000590904
0.000569169
0.000547963
0.000527297
0.000507034
0.000486054
0.0004638
0.000442128
0.000421412
0.000401825
0.000383435
0.000366267
0.000350323
0.000335585
0.000322018
0.000309564
0.000298139
0.000287631
0.000277906
0.000268809
0.000260171
0.000251819
0.000243582
0.000235298
0.000226819
0.000218015
0.000208783
0.000199049
0.000188778
0.000177994
0.000166819
0.000155459
0.000144125
0.000132996
0.000122297
0.000111831
0.000103027
1.74072e-05
8.03387e-05
0.000158952
0.00022675
0.000279295
0.000317517
0.000343636
0.000360168
0.000368408
0.000370291
0.000369271
0.000368552
0.000370044
0.000374446
0.000381497
0.000390508
0.000400767
0.000411938
0.000424237
0.000438318
0.000455049
0.000475209
0.000499325
0.000527603
0.000559939
0.000595972
0.000635146
0.000676776
0.000720121
0.00076444
0.000809042
0.000853323
0.000896786
0.00093905
0.000979842
0.00101899
0.0010564
0.00109204
0.00112594
0.00115816
0.00118877
0.00121786
0.00124554
0.00127191
0.00129705
0.00132107
0.00134404
0.00136603
0.00138714
0.0014074
0.00142689
0.00144565
0.00146374
0.00148119
0.00149804
0.00151433
0.00153008
0.00154533
0.0015601
0.00157442
0.00158831
0.00160178
0.00161486
0.00162757
0.00163992
0.00165193
0.00166362
0.00167498
0.00168604
0.00169681
0.00170727
0.00171745
0.00172732
0.0017369
0.00174616
0.00175509
0.00176364
0.00177182
0.00177984
0.00178778
0.00179567
0.00180353
0.00181139
0.00181927
0.00182718
0.00183515
0.0018432
0.00185133
0.00185958
0.00186794
0.00187644
0.00188508
0.00189387
0.00190281
0.00191192
0.00192118
0.00193059
0.00194013
0.00194979
0.00195955
0.00196936
0.0019792
0.00198901
0.00199874
0.00200832
0.00201766
0.00202667
0.00203526
0.00204329
0.00205064
0.00205716
0.00206267
0.00206698
0.00206985
0.00207102
0.00207008
0.00206642
0.00205923
0.00204786
0.00203298
0.00201526
0.00199498
0.00197224
0.0019471
0.00191964
0.00188994
0.00185812
0.00182432
0.00178869
0.00175142
0.00171269
0.00167273
0.00163174
0.00158992
0.0015475
0.00150467
0.00146163
0.00141854
0.00137558
0.00133289
0.00129059
0.00124881
0.00120763
0.00116713
0.00112737
0.00108839
0.00105019
0.00101266
0.000975239
0.000936946
0.000898035
0.000859356
0.000821235
0.00078392
0.000747607
0.000712451
0.000678588
0.000646134
0.000615187
0.000585819
0.000558067
0.000531926
0.00050734
0.000484203
0.000462356
0.000441599
0.000421698
0.000402399
0.000383447
0.000364604
0.000345664
0.000326483
0.000306994
0.00028724
0.000267343
0.000247462
0.000227707
0.000208189
0.000188471
0.000168996
1.97059e-05
0.00011354
0.000221818
0.000307924
0.00037053
0.000413711
0.000441755
0.00045795
0.000465686
0.000468708
0.000470258
0.000472846
0.000477998
0.000486316
0.000497764
0.000512081
0.000529129
0.000549087
0.00057248
0.000600015
0.000632367
0.000669969
0.0007129
0.000760878
0.000813312
0.000869396
0.000928212
0.000988818
0.00105032
0.00111192
0.00117294
0.00123284
0.00129121
0.00134777
0.00140232
0.00145476
0.00150505
0.00155322
0.0015993
0.00164339
0.00168556
0.00172593
0.00176459
0.00180165
0.0018372
0.00187135
0.00190417
0.00193575
0.00196617
0.00199548
0.00202376
0.00205105
0.00207741
0.00210289
0.00212751
0.00215133
0.00217437
0.00219667
0.00221825
0.00223913
0.00225934
0.00227891
0.00229785
0.00231617
0.0023339
0.00235105
0.00236763
0.00238365
0.00239913
0.00241408
0.00242849
0.00244239
0.00245578
0.00246866
0.00248106
0.002493
0.00250434
0.00251526
0.00252586
0.00253619
0.00254631
0.00255624
0.002566
0.00257562
0.00258512
0.00259452
0.00260385
0.00261312
0.00262236
0.00263157
0.00264077
0.00264997
0.00265919
0.00266842
0.00267766
0.00268692
0.00269618
0.00270543
0.00271465
0.0027238
0.00273285
0.00274175
0.00275044
0.00275885
0.00276691
0.00277452
0.00278156
0.00278791
0.00279344
0.00279798
0.00280135
0.00280335
0.00280377
0.00280233
0.00279876
0.00279264
0.0027836
0.00277114
0.00275496
0.00273528
0.00271237
0.00268637
0.00265737
0.00262542
0.00259061
0.00255304
0.00251285
0.00247019
0.00242527
0.0023783
0.00232952
0.00227917
0.00222751
0.0021748
0.00212129
0.00206722
0.00201283
0.00195832
0.00190389
0.00184972
0.00179597
0.00174276
0.00169021
0.00163841
0.00158743
0.00153732
0.00148807
0.00143963
0.00139172
0.00134383
0.00129541
0.00124699
0.00119877
0.00115095
0.0011037
0.0010572
0.00101158
0.000967003
0.000923601
0.000881509
0.000840844
0.000801698
0.000764128
0.000728144
0.000693702
0.000660702
0.000628987
0.000598357
0.000568578
0.000539409
0.000510623
0.000482039
0.00045355
0.000425143
0.00039689
0.00036891
0.000341289
0.000314084
0.000286872
0.000259621
2.15716e-05
0.000146545
0.000277987
0.000376982
0.0004471
0.000494625
0.000524746
0.00054222
0.000551739
0.000557272
0.000562004
0.000568243
0.000577431
0.000590315
0.000607222
0.00062835
0.000653967
0.000684477
0.000720353
0.000762002
0.000809615
0.00086307
0.000921925
0.000985471
0.00105282
0.001123
0.00119504
0.00126804
0.0013412
0.00141386
0.00148546
0.00155559
0.00162393
0.00169027
0.00175447
0.00181646
0.00187623
0.00193379
0.00198918
0.00204247
0.00209375
0.0021431
0.0021906
0.00223635
0.00228043
0.00232294
0.00236393
0.0024035
0.00244172
0.00247863
0.0025143
0.00254879
0.00258214
0.00261439
0.00264559
0.00267577
0.00270496
0.00273319
0.00276048
0.00278687
0.00281237
0.002837
0.00286077
0.00288372
0.00290584
0.00292716
0.00294768
0.00296742
0.00298639
0.00300461
0.00302208
0.00303882
0.00305484
0.00307016
0.00308479
0.00309877
0.00311199
0.00312461
0.00313669
0.0031483
0.00315948
0.00317026
0.00318066
0.00319071
0.00320043
0.00320985
0.00321899
0.00322786
0.00323649
0.00324489
0.00325308
0.00326106
0.00326886
0.00327647
0.00328389
0.00329112
0.00329816
0.003305
0.0033116
0.00331794
0.00332399
0.0033297
0.00333502
0.00333987
0.00334418
0.00334785
0.00335078
0.00335283
0.00335388
0.00335375
0.00335228
0.00334927
0.00334448
0.00333768
0.00332862
0.00331703
0.00330257
0.00328494
0.00326396
0.00323963
0.00321204
0.00318123
0.00314726
0.00311018
0.00307006
0.00302703
0.00298121
0.0029328
0.002882
0.00282904
0.00277418
0.00271767
0.00265979
0.00260081
0.002541
0.00248062
0.0024199
0.00235907
0.00229834
0.00223788
0.00217785
0.00211839
0.00205962
0.00200162
0.00194446
0.00188818
0.00183279
0.00177823
0.00172437
0.0016709
0.00161731
0.00156369
0.00151014
0.00145679
0.00140374
0.00135111
0.00129902
0.00124758
0.0011969
0.00114713
0.00109838
0.00105075
0.00100436
0.000959267
0.000915498
0.000873038
0.000831819
0.000791723
0.000752595
0.000714252
0.000676517
0.000639238
0.000602327
0.000565774
0.000529652
0.000494093
0.000459225
0.000425152
0.000391646
0.000358758
2.30008e-05
0.000171453
0.000323202
0.000435153
0.000513569
0.000566175
0.000599803
0.000620464
0.000633162
0.000642033
0.000650342
0.000660484
0.000674076
0.000692137
0.000715312
0.000744063
0.000778768
0.000819732
0.000867127
0.000920917
0.000980811
0.00104626
0.00111652
0.00119069
0.00126783
0.00134703
0.00142742
0.00150823
0.00158881
0.00166862
0.00174722
0.0018243
0.0018996
0.00197294
0.00204421
0.00211335
0.00218034
0.00224517
0.00230788
0.00236851
0.00242711
0.00248375
0.0025385
0.00259143
0.00264261
0.0026921
0.00273997
0.00278628
0.00283109
0.00287446
0.00291644
0.00295706
0.00299638
0.00303443
0.00307125
0.00310687
0.00314131
0.00317461
0.00320678
0.00323784
0.00326782
0.00329674
0.00332459
0.00335141
0.00337719
0.00340197
0.00342573
0.00344851
0.0034703
0.00349112
0.00351099
0.00352991
0.00354791
0.00356499
0.00358118
0.00359647
0.00361082
0.00362433
0.00363709
0.00364915
0.00366053
0.00367127
0.0036814
0.00369094
0.00369991
0.00370834
0.00371625
0.00372365
0.00373057
0.00373702
0.00374302
0.00374858
0.00375371
0.00375843
0.00376272
0.0037666
0.00377006
0.00377309
0.00377568
0.00377781
0.00377944
0.00378054
0.00378106
0.00378094
0.00378012
0.00377851
0.00377603
0.00377254
0.00376794
0.00376209
0.0037548
0.00374592
0.00373522
0.0037226
0.0037078
0.00369056
0.00367066
0.00364786
0.00362203
0.00359311
0.00356109
0.00352597
0.00348779
0.00344658
0.00340243
0.00335545
0.00330579
0.00325363
0.00319918
0.00314268
0.00308437
0.00302452
0.00296341
0.0029013
0.00283845
0.00277512
0.00271153
0.00264791
0.00258446
0.00252133
0.00245868
0.00239664
0.0023353
0.00227474
0.00221502
0.00215616
0.00209818
0.00204101
0.00198456
0.00192862
0.00187281
0.00181697
0.00176115
0.00170538
0.00164973
0.00159425
0.00153901
0.00148409
0.00142956
0.00137553
0.00132208
0.00126932
0.00121735
0.00116624
0.00111606
0.00106683
0.00101855
0.000971154
0.000924565
0.000878668
0.000833348
0.000788513
0.000744119
0.0007002
0.000656866
0.000614301
0.000572713
0.000532311
0.000493112
0.000455405
2.39732e-05
0.000191776
0.000360017
0.000483404
0.000569583
0.000628187
0.000667051
0.000692478
0.000709663
0.000722877
0.000735525
0.000750189
0.000768725
0.000792399
0.000822049
0.000858202
0.00090115
0.000950961
0.00100747
0.0010703
0.00113883
0.00121232
0.00128991
0.00137072
0.00145386
0.00153853
0.00162401
0.00170965
0.00179493
0.0018794
0.00196273
0.00204462
0.00212487
0.00220333
0.0022799
0.00235449
0.00242708
0.00249764
0.00256618
0.00263273
0.00269732
0.00275997
0.00282074
0.00287968
0.00293683
0.00299224
0.00304597
0.00309806
0.00314855
0.00319748
0.00324491
0.00329086
0.00333537
0.00337847
0.00342019
0.00346055
0.00349958
0.0035373
0.00357372
0.00360886
0.00364274
0.00367536
0.00370675
0.0037369
0.00376584
0.00379356
0.00382008
0.0038454
0.00386953
0.00389249
0.00391428
0.00393492
0.00395442
0.00397279
0.00399006
0.00400611
0.00402104
0.00403491
0.00404779
0.0040597
0.0040707
0.0040808
0.00409004
0.00409843
0.00410599
0.00411276
0.00411874
0.00412396
0.00412843
0.00413217
0.0041352
0.00413754
0.00413919
0.00414016
0.00414047
0.00414011
0.0041391
0.00413742
0.00413508
0.00413205
0.00412833
0.00412388
0.00411867
0.00411266
0.0041058
0.00409803
0.00408927
0.00407943
0.00406841
0.00405611
0.00404233
0.00402708
0.00401014
0.00399136
0.00397054
0.00394749
0.00392203
0.00389399
0.00386327
0.00382977
0.00379348
0.00375437
0.00371247
0.00366782
0.00362051
0.00357064
0.00351836
0.00346386
0.00340734
0.00334903
0.00328916
0.003228
0.0031658
0.0031028
0.00303927
0.00297543
0.00291149
0.00284764
0.00278407
0.00272093
0.00265832
0.00259638
0.00253516
0.00247473
0.00241512
0.00235634
0.00229839
0.0022412
0.00218469
0.00212868
0.00207288
0.00201701
0.00196108
0.00190509
0.00184905
0.00179296
0.00173686
0.00168076
0.00162471
0.00156876
0.00151298
0.00145745
0.00140223
0.0013474
0.00129303
0.00123916
0.00118581
0.00113297
0.00108061
0.00102868
0.00097711
0.000925878
0.000874999
0.000824559
0.000774731
0.000725767
0.000677972
0.000631679
0.00058713
0.000544854
2.45367e-05
0.000207011
0.000387519
0.000520098
0.000614134
0.000679769
0.000725087
0.000756546
0.00077942
0.000798043
0.000815917
0.000835775
0.000859652
0.000888969
0.000924643
0.000967172
0.00101671
0.00107313
0.00113603
0.00120482
0.00127879
0.00135712
0.00143898
0.00152354
0.00161004
0.0016978
0.00178618
0.00187467
0.00196283
0.00205028
0.00213673
0.00222195
0.00230573
0.00238794
0.00246847
0.00254723
0.00262418
0.00269928
0.00277252
0.00284388
0.00291337
0.00298101
0.00304683
0.00311083
0.00317306
0.00323354
0.00329231
0.00334939
0.00340481
0.00345861
0.00351082
0.00356145
0.00361054
0.0036581
0.00370416
0.00374874
0.00379184
0.00383349
0.00387369
0.00391247
0.00394981
0.00398574
0.00402026
0.00405337
0.00408508
0.00411539
0.00414431
0.00417184
0.00419798
0.00422275
0.00424614
0.00426816
0.00428882
0.00430812
0.00432608
0.0043426
0.00435776
0.00437163
0.00438425
0.00439566
0.00440589
0.00441496
0.00442291
0.00442974
0.00443548
0.00444015
0.00444376
0.00444634
0.00444789
0.00444844
0.00444801
0.00444661
0.00444425
0.00444095
0.00443671
0.00443156
0.00442548
0.00441851
0.00441063
0.00440184
0.00439214
0.00438151
0.00436994
0.00435743
0.00434391
0.00432934
0.00431372
0.00429695
0.00427893
0.00425972
0.00423916
0.00421717
0.00419361
0.00416836
0.00414127
0.00411222
0.00408106
0.00404768
0.004012
0.00397394
0.00393348
0.00389061
0.00384535
0.00379776
0.00374791
0.00369593
0.00364196
0.00358617
0.00352875
0.00346993
0.00340993
0.00334898
0.00328732
0.00322516
0.00316273
0.00310023
0.00303784
0.00297572
0.00291403
0.00285287
0.00279235
0.00273253
0.00267347
0.00261521
0.00255774
0.00250106
0.00244513
0.00238989
0.00233523
0.00228101
0.00222694
0.00217274
0.00211837
0.0020638
0.00200901
0.00195396
0.00189864
0.00184303
0.00178714
0.00173097
0.00167457
0.00161796
0.0015612
0.00150435
0.00144745
0.00139057
0.00133372
0.00127694
0.00122021
0.00116352
0.00110688
0.00105031
0.000993887
0.000937753
0.000882152
0.000827416
0.000773947
0.000722202
0.000672617
0.000625918
2.48971e-05
0.00021528
0.000404444
0.00054536
0.000647221
0.000720304
0.000772784
0.000811135
0.000840601
0.000865482
0.000889286
0.000914793
0.000944111
0.000978725
0.00101957
0.00106712
0.00112142
0.00118225
0.00124911
0.00132137
0.00139828
0.00147908
0.00156299
0.0016493
0.00173733
0.0018265
0.00191628
0.00200623
0.00209596
0.00218516
0.00227358
0.00236098
0.0024472
0.00253209
0.00261554
0.00269745
0.00277777
0.00285644
0.00293341
0.00300867
0.00308218
0.00315396
0.00322399
0.00329227
0.00335883
0.00342365
0.00348677
0.00354819
0.00360792
0.003666
0.00372241
0.0037772
0.00383035
0.0038819
0.00393185
0.0039802
0.00402697
0.00407217
0.00411579
0.00415784
0.00419833
0.00423724
0.00427459
0.00431038
0.00434459
0.00437723
0.0044083
0.00443779
0.00446571
0.00449205
0.0045168
0.00453998
0.00456159
0.00458162
0.00460001
0.00461677
0.00463194
0.00464558
0.00465772
0.00466841
0.00467765
0.00468547
0.0046919
0.00469694
0.00470062
0.00470294
0.00470394
0.00470361
0.00470198
0.00469906
0.00469487
0.00468943
0.00468276
0.00467486
0.00466575
0.00465545
0.00464397
0.00463132
0.00461753
0.0046026
0.00458653
0.00456932
0.00455098
0.00453155
0.00451096
0.00448916
0.00446628
0.00444227
0.00441705
0.00439061
0.0043629
0.00433384
0.00430337
0.0042714
0.00423784
0.00420261
0.00416563
0.00412682
0.00408612
0.00404352
0.00399898
0.00395253
0.0039042
0.00385405
0.00380218
0.00374869
0.00369374
0.00363749
0.00358012
0.00352183
0.00346282
0.00340328
0.00334344
0.00328346
0.00322354
0.00316384
0.00310449
0.00304564
0.00298737
0.00292978
0.00287291
0.00281681
0.0027615
0.00270697
0.00265321
0.00260018
0.00254781
0.00249603
0.00244472
0.00239371
0.00234274
0.00229153
0.00224002
0.00218815
0.00213587
0.00208311
0.00202982
0.00197595
0.00192147
0.00186635
0.00181059
0.00175419
0.00169718
0.00163958
0.00158144
0.0015228
0.00146369
0.00140414
0.00134417
0.00128381
0.00122311
0.00116212
0.00110099
0.00103993
0.000979255
0.000919366
0.000860769
0.000804036
0.000749764
0.00069884
2.53895e-05
0.000215969
0.000411431
0.000559784
0.000669154
0.000749721
0.000809638
0.000855306
0.000891859
0.000923477
0.000953572
0.000984869
0.00101945
0.00105881
0.00110388
0.00115511
0.00121256
0.00127597
0.00134489
0.0014187
0.00149673
0.00157827
0.00166267
0.00174927
0.00183752
0.0019269
0.00201695
0.0021073
0.00219762
0.00228761
0.00237705
0.00246573
0.00255349
0.00264017
0.00272567
0.00280988
0.00289272
0.00297411
0.00305401
0.00313236
0.00320912
0.00328428
0.00335779
0.00342966
0.00349986
0.00356839
0.00363524
0.00370041
0.00376391
0.00382572
0.00388585
0.00394431
0.00400109
0.0040562
0.00410963
0.0041614
0.00421148
0.00425989
0.00430662
0.00435166
0.004395
0.00443665
0.0044766
0.00451482
0.00455133
0.0045861
0.00461913
0.0046504
0.00467992
0.00470767
0.00473364
0.00475782
0.00478022
0.00480081
0.00481952
0.00483638
0.00485145
0.00486475
0.00487631
0.00488615
0.0048943
0.00490077
0.00490557
0.00490872
0.00491023
0.00491011
0.00490837
0.00490502
0.00490009
0.00489357
0.0048855
0.00487589
0.00486476
0.00485212
0.00483799
0.00482238
0.0048053
0.0047868
0.0047669
0.00474563
0.00472299
0.00469896
0.00467361
0.00464703
0.0046192
0.00459011
0.00455982
0.00452833
0.00449564
0.00446175
0.00442665
0.00439032
0.00435275
0.00431389
0.00427373
0.00423222
0.00418933
0.00414505
0.00409935
0.00405225
0.00400376
0.00395391
0.00390277
0.00385042
0.00379695
0.00374249
0.00368717
0.00363115
0.0035746
0.00351768
0.00346057
0.00340344
0.00334645
0.00328974
0.00323346
0.00317771
0.0031226
0.00306821
0.0030146
0.00296179
0.00290981
0.00285866
0.00280832
0.00275876
0.00270992
0.00266173
0.00261411
0.00256696
0.00252013
0.00247346
0.00242665
0.00237946
0.00233182
0.00228365
0.00223486
0.00218537
0.00213508
0.00208391
0.0020318
0.00197869
0.00192454
0.00186932
0.00181303
0.00175568
0.00169728
0.00163785
0.00157744
0.00151608
0.00145379
0.00139065
0.00132672
0.00126212
0.00119703
0.00113175
0.00106663
0.00100218
0.000938994
0.000877747
0.000819174
0.000764289
2.56265e-05
0.000212751
0.000411109
0.000565036
0.00068097
0.000768576
0.000835767
0.000888754
0.000932471
0.000970909
0.00100731
0.00104426
0.00108375
0.00112725
0.00117566
0.00122947
0.00128878
0.00135341
0.00142297
0.00149694
0.00157475
0.0016558
0.00173951
0.00182534
0.0019128
0.00200145
0.0020909
0.0021808
0.00227087
0.00236085
0.00245052
0.00253969
0.0026282
0.00271589
0.00280266
0.00288838
0.00297296
0.00305632
0.00313839
0.0032191
0.00329839
0.00337622
0.00345255
0.00352734
0.00360055
0.00367218
0.00374218
0.00381055
0.00387727
0.00394232
0.00400569
0.00406738
0.00412736
0.00418563
0.00424218
0.004297
0.00435007
0.00440139
0.00445094
0.0044987
0.00454467
0.00458882
0.00463115
0.00467163
0.00471025
0.00474698
0.00478182
0.00481474
0.00484573
0.00487476
0.00490183
0.00492692
0.00495002
0.00497106
0.00499003
0.00500696
0.00502187
0.00503479
0.00504574
0.00505473
0.00506177
0.00506687
0.00507005
0.0050713
0.00507064
0.00506807
0.00506361
0.00505725
0.00504901
0.0050389
0.00502694
0.00501316
0.00499756
0.00498017
0.004961
0.00494007
0.00491736
0.00489295
0.00486692
0.00483927
0.00481004
0.00477924
0.00474695
0.00471322
0.00467809
0.0046416
0.0046038
0.00456475
0.00452449
0.00448306
0.00444049
0.00439683
0.0043521
0.00430632
0.00425952
0.00421173
0.00416297
0.00411326
0.00406265
0.00401119
0.00395892
0.00390593
0.00385228
0.00379809
0.00374346
0.00368851
0.00363339
0.00357822
0.00352316
0.00346834
0.0034139
0.00335998
0.00330668
0.00325412
0.00320236
0.00315149
0.00310154
0.00305254
0.00300451
0.00295743
0.00291128
0.00286602
0.00282158
0.00277789
0.00273488
0.00269244
0.00265045
0.0026088
0.00256732
0.00252581
0.00248398
0.00244162
0.00239864
0.00235494
0.0023104
0.00226491
0.00221836
0.00217063
0.00212162
0.00207126
0.00201946
0.00196617
0.00191136
0.00185501
0.00179711
0.00173767
0.00167672
0.0016143
0.00155045
0.00148524
0.00141879
0.00135125
0.00128287
0.00121397
0.00114501
0.00107655
0.00100928
0.000943986
0.00088151
0.000822976
2.56273e-05
0.000206838
0.000405101
0.000562607
0.000683878
0.000777756
0.000851723
0.000911678
0.000962291
0.0010073
0.00104974
0.001092
0.00113597
0.00118301
0.00123405
0.00128961
0.00134986
0.00141472
0.00148392
0.00155707
0.0016337
0.00171332
0.00179547
0.00187968
0.00196555
0.00205268
0.00214076
0.00222946
0.00231855
0.00240777
0.00249693
0.00258585
0.00267436
0.00276232
0.0028496
0.00293609
0.00302167
0.00310626
0.00318977
0.00327212
0.00335323
0.00343305
0.00351152
0.00358858
0.00366418
0.00373829
0.00381087
0.00388188
0.0039513
0.00401909
0.00408522
0.00414969
0.00421245
0.00427349
0.00433278
0.00439031
0.00444605
0.00449998
0.00455207
0.00460231
0.00465066
0.00469711
0.00474163
0.00478419
0.00482476
0.00486332
0.00489983
0.00493429
0.00496665