/*--------------------------------*- C++ -*----------------------------------*\
| =========                 |                                                 |
| \\      /  F ield         | OpenFOAM: The Open Source CFD Toolbox           |
|  \\    /   O peration     | Version:  2412                                  |
|   \\  /    A nd           | Website:  www.openfoam.com                      |
|    \\/     M anipulation  |                                                 |
\*---------------------------------------------------------------------------*/
FoamFile
{
    version     2.0;
    format      ascii;
    arch        "LSB;label=32;scalar=64";
    class       volScalarField;
    location    "0.05";
    object      p;
}
// * * * * * * * * * * * * * * * * * * * * * * * * * * * * * * * * * * * * * //

dimensions      [0 2 -2 0 0 0 0];

internalField   nonuniform List<scalar> 
12225
(
-10.4247
-9.83253
-9.16987
-8.61317
-8.10345
-7.64588
-7.24565
-6.89243
-6.57733
-6.29478
-6.03988
-5.80818
-5.59587
-5.39971
-5.21683
-5.04424
-4.88101
-4.71754
-10.8585
-9.89066
-9.20453
-8.6539
-8.14342
-7.6857
-7.28475
-6.93004
-6.61321
-6.32887
-6.07216
-5.83863
-5.62453
-5.42659
-5.24193
-5.06757
-4.90147
-4.74053
-11.0389
-9.92486
-9.24608
-8.70445
-8.19336
-7.73638
-7.33544
-6.97955
-6.66105
-6.3748
-6.11601
-5.88034
-5.66407
-5.46397
-5.27714
-5.10064
-4.93173
-4.76404
-11.0627
-9.94054
-9.27062
-8.73813
-8.22962
-7.77538
-7.37618
-7.02071
-6.70193
-6.41495
-6.15511
-5.91819
-5.70058
-5.49912
-5.31092
-5.13326
-4.96255
-4.7964
-10.9927
-9.93531
-9.27086
-8.74876
-8.24718
-7.79775
-7.40199
-7.04862
-6.73104
-6.44463
-6.18492
-5.94785
-5.72993
-5.52815
-5.33969
-5.1622
-4.99183
-4.83211
-10.8511
-9.90236
-9.24747
-8.73789
-8.24784
-7.80551
-7.41481
-7.06505
-6.74994
-6.46522
-6.20665
-5.97037
-5.75307
-5.5519
-5.36424
-5.18816
-5.01997
-4.86818
-10.6489
-9.83631
-9.20151
-8.70639
-8.23235
-7.7999
-7.41602
-7.07138
-6.76002
-6.47804
-6.22156
-5.98696
-5.77113
-5.57146
-5.38557
-5.21201
-5.04737
-4.90393
-10.3967
-9.73464
-9.13389
-8.65488
-8.20068
-7.78138
-7.40627
-7.06834
-6.76206
-6.48395
-6.23053
-5.9985
-5.78502
-5.58773
-5.40456
-5.23447
-5.07443
-4.93941
-10.1053
-9.59715
-9.04586
-8.58514
-8.15349
-7.75064
-7.38643
-7.05681
-6.75699
-6.48389
-6.23453
-6.00598
-5.79573
-5.60171
-5.42214
-5.25637
-5.10167
-4.97491
-9.78621
-9.42598
-8.93891
-8.50016
-8.0926
-7.70913
-7.35796
-7.03816
-6.7461
-6.47915
-6.23484
-6.01069
-5.80453
-5.61461
-5.43946
-5.27871
-5.12986
-5.01099
-9.45158
-9.22606
-8.81487
-8.40366
-8.02115
-7.65929
-7.32315
-7.01449
-6.7313
-6.47151
-6.23317
-6.01425
-5.81298
-5.62791
-5.45785
-5.30268
-5.1599
-5.04865
-9.14241
-9.02312
-8.68792
-8.30818
-7.94954
-7.60899
-7.28831
-6.99089
-6.71663
-6.46417
-6.23198
-6.0185
-5.82229
-5.64222
-5.47731
-5.32761
-5.19034
-5.08606
-8.85102
-8.81237
-8.55299
-8.20952
-7.87504
-7.55648
-7.25257
-6.96723
-6.70242
-6.45778
-6.23223
-6.02463
-5.83391
-5.65919
-5.49969
-5.35553
-5.2243
-5.12474
-8.54928
-8.57332
-8.39282
-8.09543
-7.78969
-7.49672
-7.21362
-6.94347
-6.69022
-6.45506
-6.2376
-6.03714
-5.85301
-5.68464
-5.53147
-5.39365
-5.2691
-5.17364
-8.26016
-8.32707
-8.21833
-7.9729
-7.69971
-7.43447
-7.17555
-6.92403
-6.68495
-6.46126
-6.25356
-6.06164
-5.88525
-5.72417
-5.57804
-5.44708
-5.32937
-5.23781
-8.01363
-8.10689
-8.05592
-7.86175
-7.62215
-7.38361
-7.14887
-6.9174
-6.69409
-6.48333
-6.28676
-6.10469
-5.93715
-5.78418
-5.64564
-5.52178
-5.41085
-5.32277
-7.84332
-7.95133
-7.94208
-7.79241
-7.5847
-7.37012
-7.15658
-6.94335
-6.73473
-6.53595
-6.3497
-6.1768
-6.01749
-5.87192
-5.74004
-5.62198
-5.51619
-5.4288
-7.79096
-7.90316
-7.91551
-7.79374
-7.60866
-7.4117
-7.2139
-7.01478
-6.81788
-6.62877
-6.45085
-6.28521
-6.13212
-5.9917
-5.86388
-5.74848
-5.64453
-5.55351
-7.92074
-8.02791
-8.0347
-7.9088
-7.72155
-7.524
-7.32677
-7.12923
-6.93481
-6.74878
-6.57421
-6.41195
-6.26203
-6.12429
-5.99848
-5.88397
-5.78055
-5.6853
-8.22328
-8.31791
-8.28537
-8.11524
-7.89543
-7.67477
-7.45877
-7.24619
-7.041
-6.84774
-6.66829
-6.50271
-6.35054
-6.21118
-6.08393
-5.96763
-5.86196
-5.76115
-8.63339
-8.69168
-8.5903
-8.35749
-8.09515
-7.8425
-7.59909
-7.36442
-7.14287
-6.93756
-6.74892
-6.57627
-6.41872
-6.27535
-6.14516
-6.0269
-5.92017
-5.81901
-9.14469
-9.12464
-8.91747
-8.60933
-8.29929
-8.00765
-7.73074
-7.47046
-7.2303
-7.01101
-6.8116
-6.63069
-6.46687
-6.31874
-6.18493
-6.064
-5.95516
-5.85266
-9.71548
-9.56015
-9.21724
-8.83589
-8.48111
-8.14982
-7.84051
-7.55703
-7.3001
-7.06795
-6.85854
-6.6699
-6.50011
-6.34734
-6.2099
-6.08616
-5.97507
-5.87147
-10.2839
-9.93814
-9.45589
-9.0194
-8.62712
-8.25966
-7.92278
-7.62016
-7.34892
-7.10557
-6.88745
-6.69209
-6.51709
-6.36021
-6.21952
-6.09323
-5.98005
-5.8755
-10.7901
-10.2218
-9.62683
-9.15612
-8.731
-8.33243
-7.97404
-7.6565
-7.37383
-7.12161
-6.89674
-6.69624
-6.51723
-6.35723
-6.21408
-6.08585
-5.9711
-5.866
-11.1928
-10.4004
-9.73446
-9.24325
-8.78943
-8.36728
-7.99385
-7.66561
-7.37468
-7.11622
-6.88669
-6.68266
-6.50097
-6.33892
-6.19418
-6.06473
-5.949
-5.84378
-11.4646
-10.4844
-9.78496
-9.27903
-8.80382
-8.36666
-7.98358
-7.64825
-7.35202
-7.08972
-6.85744
-6.65144
-6.46835
-6.30531
-6.15989
-6.02998
-5.91395
-5.80914
-11.5719
-10.4998
-9.78555
-9.26308
-8.77569
-8.33082
-7.94199
-7.60271
-7.30399
-7.04019
-6.80709
-6.60075
-6.41766
-6.25484
-6.10979
-5.98034
-5.86479
-5.76106
-11.4392
-10.4699
-9.75031
-9.20506
-8.71257
-8.2652
-7.87386
-7.53357
-7.23503
-6.97197
-6.73994
-6.5349
-6.35321
-6.19182
-6.04819
-5.92012
-5.80583
-5.70354
-10.9081
-10.3776
-9.70753
-9.14781
-8.65345
-8.2057
-7.81378
-7.47399
-7.17667
-6.91504
-6.68451
-6.48101
-6.30084
-6.1409
-5.99865
-5.87188
-5.75871
-5.65728
-5.27342
-5.26702
-5.26807
-5.27758
-5.29292
-5.3111
-5.32942
-5.34548
-5.3574
-5.36503
-5.36913
-5.37086
-5.37141
-5.372
-5.37374
-5.37758
-5.38418
-5.39413
-5.40804
-5.42668
-5.45109
-5.48257
-5.52262
-5.57271
-5.63393
-5.70679
-5.79106
-5.88574
-5.98916
-6.09922
-6.21356
-6.32982
-6.4458
-6.55959
-6.66964
-6.7748
-6.87425
-6.96749
-7.05428
-7.13457
-7.20846
-7.27613
-7.33783
-7.39383
-7.4444
-7.48983
-7.53036
-7.56621
-7.59759
-7.62467
-7.6476
-7.66649
-7.68143
-7.69248
-7.6997
-7.70309
-7.70266
-7.69837
-7.69021
-7.67809
-7.66194
-7.64166
-7.61714
-7.58825
-7.55482
-7.51671
-7.47371
-7.42562
-7.37223
-7.31331
-7.24858
-7.1778
-7.10069
-7.01703
-6.92661
-6.82906
-6.72368
-6.61
-6.48722
-6.35514
-6.21338
-6.0615
-5.89898
-5.72529
-5.5399
-5.34223
-5.13173
-4.90781
-4.66993
-4.41751
-4.15003
-3.86697
-3.56786
-3.25226
-2.91981
-2.57022
-2.20326
-1.81885
-1.41699
-0.997851
-0.561759
-0.109222
0.359042
0.842089
1.33872
1.84748
2.36661
2.89406
3.42749
3.96423
4.50132
5.03553
5.56336
6.08107
6.58476
7.07034
7.53363
7.97065
8.37853
8.75401
9.09316
9.39306
9.65155
9.86711
10.0389
10.1667
10.2511
10.2934
10.2955
10.26
10.1898
10.0885
9.96
9.80824
9.63742
9.45173
9.25529
9.05207
8.84582
8.64003
8.43787
8.24217
8.05543
7.87977
7.71704
7.56875
7.43631
7.32208
7.22649
7.14299
7.07222
7.01539
6.97277
6.94357
6.92674
6.92111
6.92548
6.93859
6.95926
6.98635
7.01878
7.05555
7.09572
7.13843
7.1829
7.22846
7.27461
7.32098
7.36741
7.41393
7.46076
7.50832
7.55728
7.60852
7.66333
7.72383
7.79379
7.87617
7.98417
8.09892
-5.29707
-5.29365
-5.29877
-5.31187
-5.32856
-5.3453
-5.35997
-5.37134
-5.37867
-5.38028
-5.37598
-5.36723
-5.35629
-5.34539
-5.33641
-5.33068
-5.32902
-5.33189
-5.33975
-5.35324
-5.37364
-5.40289
-5.44309
-5.49609
-5.56303
-5.64398
-5.73792
-5.8429
-5.9563
-6.07522
-6.19678
-6.31836
-6.43777
-6.55329
-6.66366
-6.76808
-6.86605
-6.95737
-7.04205
-7.12022
-7.19209
-7.25794
-7.31805
-7.37271
-7.42221
-7.4668
-7.5067
-7.54214
-7.57329
-7.6003
-7.62329
-7.64238
-7.65764
-7.66912
-7.67686
-7.68088
-7.68116
-7.67768
-7.67041
-7.65928
-7.64421
-7.62512
-7.60189
-7.57439
-7.54248
-7.506
-7.46476
-7.41857
-7.36721
-7.31043
-7.24798
-7.17957
-7.10488
-7.02354
-6.93515
-6.83932
-6.73546
-6.62345
-6.5033
-6.37434
-6.23601
-6.08779
-5.92916
-5.75961
-5.57857
-5.38551
-5.17986
-4.96106
-4.72856
-4.48181
-4.22027
-3.94345
-3.65087
-3.34212
-3.01681
-2.67466
-2.31545
-1.93907
-1.54553
-1.13497
-0.707697
-0.264194
0.19486
0.668561
1.15577
1.65507
2.1648
2.68299
3.20736
3.73537
4.26417
4.79062
5.31138
5.82287
6.32138
6.80309
7.2642
7.70077
8.10792
8.48189
8.82063
9.12153
9.38245
9.60184
9.7788
9.91311
10.0052
10.0564
10.0682
10.0433
9.98443
9.89499
9.77863
9.63925
9.48087
9.30755
9.1233
8.93197
8.73722
8.54247
8.35084
8.1651
7.98771
7.82081
7.66616
7.52515
7.39897
7.28795
7.19194
7.11239
7.0475
6.99682
6.95971
6.93534
6.92276
6.92093
6.92866
6.94473
6.96792
6.99706
7.03106
7.06889
7.10961
7.15238
7.19648
7.24129
7.28636
7.33141
7.37634
7.42122
7.46635
7.5122
7.55948
7.60901
7.66197
7.72015
7.78682
7.86371
7.96175
8.05837
-5.31436
-5.31802
-5.32633
-5.33871
-5.35198
-5.36352
-5.37191
-5.37647
-5.37681
-5.37274
-5.36463
-5.35352
-5.34091
-5.32846
-5.31781
-5.31038
-5.30741
-5.31019
-5.32028
-5.33941
-5.36929
-5.41126
-5.46608
-5.53377
-5.6136
-5.70416
-5.80355
-5.90959
-6.02006
-6.13282
-6.24594
-6.35778
-6.467
-6.57255
-6.67365
-6.76975
-6.86052
-6.94577
-7.02543
-7.09955
-7.16823
-7.23161
-7.28987
-7.34318
-7.39175
-7.43575
-7.47535
-7.51071
-7.54196
-7.56924
-7.59265
-7.61225
-7.62813
-7.64033
-7.64886
-7.65375
-7.65498
-7.65253
-7.64636
-7.6364
-7.62258
-7.60481
-7.58299
-7.55698
-7.52664
-7.49182
-7.45235
-7.40802
-7.35863
-7.30394
-7.24371
-7.17765
-7.10548
-7.02685
-6.94135
-6.84847
-6.74827
-6.64004
-6.52359
-6.39847
-6.26419
-6.12026
-5.96616
-5.80139
-5.6254
-5.43766
-5.23761
-5.02471
-4.7984
-4.55815
-4.30345
-4.03378
-3.74869
-3.44775
-3.13061
-2.79696
-2.44659
-2.07938
-1.69533
-1.29456
-0.877365
-0.444192
0.00430899
0.467278
0.943623
1.432
1.93079
2.43812
2.95181
3.46939
3.98813
4.50502
5.01682
5.5201
6.01127
6.48657
6.94211
7.37402
7.77864
8.15268
8.49323
8.79753
9.06334
9.28906
9.47371
9.61697
9.71922
9.78149
9.80543
9.7933
9.74783
9.67222
9.56996
9.44482
9.30066
9.14141
8.97096
8.79306
8.6113
8.429
8.24923
8.07474
7.90793
7.75091
7.60541
7.47276
7.35408
7.25006
7.16089
7.08682
7.0268
6.98056
6.94737
6.9265
6.91706
6.91801
6.92822
6.94649
6.97163
7.00248
7.03791
7.0769
7.11849
7.16181
7.20612
7.25082
7.29546
7.33978
7.38369
7.4273
7.47094
7.51508
7.56039
7.60768
7.65805
7.71293
7.7748
7.844
7.92683
7.99715
-5.30327
-5.31502
-5.32668
-5.33864
-5.34931
-5.35751
-5.36255
-5.36407
-5.36196
-5.35651
-5.34847
-5.33896
-5.3294
-5.32128
-5.31615
-5.31553
-5.32092
-5.33384
-5.35574
-5.38786
-5.43099
-5.48535
-5.55054
-5.62565
-5.70942
-5.80035
-5.89684
-5.99729
-6.10016
-6.20404
-6.30763
-6.40982
-6.50965
-6.60635
-6.69931
-6.78808
-6.87235
-6.95192
-7.0267
-7.09667
-7.16185
-7.22233
-7.27821
-7.32961
-7.37667
-7.4195
-7.45824
-7.49301
-7.5239
-7.55101
-7.57442
-7.59419
-7.61037
-7.623
-7.63208
-7.63763
-7.63962
-7.63803
-7.63281
-7.6239
-7.61122
-7.59469
-7.57419
-7.54961
-7.52079
-7.48759
-7.44983
-7.40732
-7.35985
-7.30718
-7.24907
-7.18525
-7.11542
-7.03927
-6.95644
-6.86658
-6.76943
-6.66458
-6.55165
-6.43022
-6.2998
-6.15994
-6.01012
-5.84983
-5.67855
-5.49574
-5.30085
-5.09334
-4.87267
-4.6383
-4.3897
-4.12639
-3.84789
-3.55379
-3.2437
-2.91733
-2.57445
-2.21492
-1.83872
-1.44597
-1.0369
-0.611963
-0.171752
0.282909
0.750974
1.23115
1.72188
2.22134
2.72742
3.23773
3.74959
4.26007
4.766
5.26398
5.7504
6.22155
6.67375
7.10336
7.50691
7.88112
8.22289
8.52944
8.79854
9.02855
9.21845
9.36789
9.47717
9.54726
9.57973
9.57675
9.54097
9.47549
9.38371
9.26927
9.13596
8.98762
8.82802
8.66085
8.48962
8.31758
8.14774
7.9828
7.82511
7.67674
7.53938
7.41435
7.30271
7.20497
7.12126
7.0518
6.99654
6.95474
6.92575
6.9088
6.90297
6.90723
6.92044
6.94144
6.96904
7.00209
7.03947
7.08013
7.12311
7.16752
7.21262
7.25779
7.30258
7.34672
7.39014
7.43295
7.47546
7.51812
7.56157
7.60654
7.65396
7.70485
7.76076
7.82082
7.88741
7.93581
-5.25146
-5.27148
-5.29027
-5.30601
-5.31788
-5.32613
-5.33098
-5.33262
-5.33146
-5.32817
-5.32372
-5.31935
-5.31645
-5.31651
-5.32103
-5.33142
-5.34898
-5.37481
-5.40971
-5.45411
-5.50799
-5.57095
-5.64218
-5.72068
-5.80524
-5.89462
-5.98755
-6.08283
-6.17931
-6.27595
-6.37182
-6.4661
-6.5581
-6.64726
-6.73313
-6.81535
-6.89368
-6.96794
-7.03804
-7.10392
-7.16559
-7.22308
-7.27645
-7.32577
-7.37112
-7.41259
-7.45026
-7.48422
-7.51455
-7.5413
-7.56453
-7.5843
-7.60062
-7.61353
-7.62302
-7.62909
-7.63172
-7.63087
-7.62649
-7.61852
-7.60689
-7.59149
-7.57223
-7.54897
-7.52158
-7.48991
-7.45378
-7.41301
-7.36738
-7.31667
-7.26064
-7.19901
-7.13152
-7.05784
-6.97766
-6.89066
-6.79648
-6.69477
-6.58512
-6.46711
-6.34028
-6.20416
-6.05826
-5.90206
-5.73505
-5.55669
-5.36643
-5.16373
-4.94805
-4.71885
-4.4756
-4.2178
-3.94498
-3.6567
-3.35259
-3.03231
-2.69564
-2.3424
-1.97257
-1.58622
-1.18358
-0.765032
-0.331158
0.117266
0.579235
1.0535
1.53856
2.03262
2.53363
3.03925
3.54683
4.05348
4.55605
5.0511
5.5351
6.00443
6.45538
6.88428
7.28762
7.66213
8.00476
8.3128
8.58404
8.81682
9.01012
9.16356
9.27743
9.35267
9.39083
9.39403
9.36491
9.30648
9.2221
9.11538
8.99002
8.84979
8.69842
8.53952
8.37653
8.21265
8.05082
7.89369
7.74358
7.60248
7.47205
7.35359
7.24807
7.15599
7.07754
7.01297
6.96215
6.92453
6.89948
6.88622
6.88383
6.89129
6.90748
6.93124
6.96141
6.99683
7.03637
7.07898
7.12366
7.16953
7.21582
7.2619
7.3073
7.35173
7.3951
7.4375
7.47921
7.52065
7.56238
7.60501
7.64927
7.69577
7.74524
7.79596
7.84779
7.8794
-5.17042
-5.19873
-5.22782
-5.25031
-5.26593
-5.27664
-5.28371
-5.28798
-5.29032
-5.29178
-5.29355
-5.29696
-5.30338
-5.31413
-5.33045
-5.35338
-5.38373
-5.42206
-5.46856
-5.52313
-5.58534
-5.6545
-5.72975
-5.81009
-5.89449
-5.98192
-6.07141
-6.16202
-6.25294
-6.34339
-6.43272
-6.52034
-6.60576
-6.68855
-6.76839
-6.845
-6.91818
-6.98779
-7.05371
-7.11591
-7.17436
-7.22907
-7.28005
-7.32736
-7.37103
-7.41113
-7.44772
-7.48084
-7.51055
-7.53689
-7.5599
-7.5796
-7.59602
-7.60916
-7.61902
-7.62558
-7.62881
-7.62868
-7.62512
-7.61808
-7.60747
-7.5932
-7.57517
-7.55323
-7.52727
-7.49713
-7.46264
-7.4236
-7.37982
-7.33108
-7.27713
-7.21771
-7.15256
-7.08136
-7.00381
-6.91957
-6.8283
-6.72963
-6.62315
-6.50844
-6.38506
-6.25253
-6.11036
-5.95804
-5.79506
-5.62087
-5.43494
-5.23672
-5.02566
-4.80121
-4.56285
-4.31006
-4.04237
-3.75932
-3.46053
-3.14564
-2.81441
-2.46665
-2.10229
-1.7214
-1.32416
-0.910936
-0.482264
-0.0388858
0.418233
0.887881
1.36859
1.85862
2.35595
2.85825
3.36292
3.86705
4.36747
4.86083
5.34361
5.81214
6.26268
6.69154
7.09519
7.47034
7.81396
8.12336
8.39634
8.63125
8.82707
8.98342
9.1006
9.17954
9.22181
9.22953
9.2053
9.15214
9.0734
8.97262
8.85349
8.71973
8.57502
8.42291
8.26678
8.10979
7.95482
7.80446
7.66098
7.52633
7.40211
7.28959
7.18969
7.10293
7.0296
6.9698
6.92339
6.88991
6.86876
6.85915
6.86018
6.87083
6.89002
6.91659
6.94939
6.98725
7.02907
7.07376
7.12033
7.16789
7.21563
7.26292
7.30926
7.35434
7.39802
7.44036
7.48159
7.52206
7.56224
7.60261
7.64368
7.68571
7.72877
7.77064
7.80973
7.82816
-5.08141
-5.11764
-5.15635
-5.18577
-5.206
-5.22047
-5.23133
-5.23992
-5.24746
-5.25526
-5.26467
-5.27701
-5.29352
-5.3153
-5.34319
-5.37783
-5.41955
-5.46843
-5.52426
-5.58662
-5.65488
-5.72828
-5.80598
-5.88711
-5.9708
-6.05624
-6.14267
-6.22941
-6.31582
-6.40136
-6.48553
-6.5679
-6.6481
-6.72583
-6.80083
-6.87288
-6.94184
-7.00757
-7.07
-7.12906
-7.18474
-7.23701
-7.2859
-7.33141
-7.37359
-7.41246
-7.44806
-7.48042
-7.50957
-7.53555
-7.55837
-7.57805
-7.59459
-7.608
-7.61825
-7.62533
-7.62919
-7.6298
-7.6271
-7.62102
-7.61147
-7.59836
-7.58158
-7.56102
-7.53652
-7.50795
-7.47512
-7.43787
-7.39598
-7.34923
-7.2974
-7.24022
-7.17743
-7.10872
-7.03378
-6.9523
-6.86391
-6.76824
-6.66489
-6.55343
-6.43343
-6.3044
-6.16586
-6.01731
-5.85822
-5.68806
-5.50627
-5.31232
-5.10564
-4.88569
-4.65193
-4.40383
-4.14091
-3.86271
-3.5688
-3.25884
-2.93254
-2.58972
-2.23026
-1.8542
-1.4617
-1.0531
-0.628894
-0.18979
0.26328
0.729135
1.20635
1.6932
2.18769
2.68751
3.19004
3.69238
4.19145
4.68385
5.16603
5.63428
6.08486
6.51406
6.91831
7.29428
7.63891
7.94952
8.22392
8.46047
8.65815
8.81662
8.93618
9.0178
9.06307
9.07412
9.05359
9.0045
8.93019
8.83419
8.72017
8.59181
8.45275
8.30651
8.1564
8.00553
7.85673
7.71253
7.57515
7.44648
7.32809
7.2212
7.1267
7.04514
6.9768
6.92173
6.87977
6.85051
6.83334
6.82748
6.83205
6.84604
6.86837
6.89789
6.93346
6.97392
7.01815
7.06509
7.11372
7.16314
7.21255
7.26127
7.30879
7.35477
7.39903
7.44158
7.48257
7.52228
7.56108
7.59931
7.63728
7.67493
7.71189
7.74568
7.77395
7.78194
-5.00312
-5.04444
-5.09008
-5.12504
-5.14962
-5.16818
-5.18341
-5.19696
-5.21026
-5.22476
-5.24181
-5.26265
-5.28834
-5.3197
-5.35729
-5.40135
-5.4519
-5.50869
-5.57129
-5.6391
-5.71144
-5.78754
-5.86664
-5.94799
-6.03088
-6.11464
-6.19867
-6.28243
-6.36544
-6.44727
-6.52755
-6.60596
-6.6822
-6.75605
-6.82732
-6.89584
-6.96148
-7.02416
-7.08379
-7.14034
-7.19378
-7.24409
-7.29127
-7.33534
-7.3763
-7.41418
-7.449
-7.48078
-7.50954
-7.53529
-7.55804
-7.5778
-7.59457
-7.60832
-7.61905
-7.62672
-7.63129
-7.63272
-7.63094
-7.62588
-7.61745
-7.60557
-7.59012
-7.57098
-7.54801
-7.52106
-7.48997
-7.45455
-7.4146
-7.36991
-7.32025
-7.26535
-7.20495
-7.13875
-7.06646
-6.98774
-6.90223
-6.80955
-6.70931
-6.60108
-6.48442
-6.35884
-6.22388
-6.07902
-5.92373
-5.75748
-5.57972
-5.38989
-5.18743
-4.97179
-4.74241
-4.49878
-4.24037
-3.96672
-3.67739
-3.37201
-3.05029
-2.71199
-2.35701
-1.98533
-1.59709
-1.1926
-0.772331
-0.336946
0.112657
0.575309
1.04961
1.53388
2.02609
2.52397
3.02493
3.5261
4.02432
4.5162
4.99815
5.46644
5.9173
6.34697
6.75186
7.12857
7.47403
7.78554
8.06091
8.29852
8.49739
8.65719
8.77828
8.86168
8.909
8.92244
8.90466
8.8587
8.78791
8.69584
8.58613
8.46244
8.32837
8.18739
8.04277
7.89756
7.75453
7.61615
7.48459
7.36168
7.24896
7.14759
7.05845
6.98208
6.91873
6.86847
6.83108
6.80618
6.79316
6.79125
6.79956
6.81709
6.84276
6.87544
6.91398
6.95724
7.00408
7.05345
7.10432
7.15579
7.20704
7.25739
7.30629
7.35337
7.39841
7.44136
7.4823
7.52143
7.559
7.59524
7.63024
7.66375
7.69506
7.72163
7.74081
7.74056
-4.94607
-4.98919
-5.03823
-5.0765
-5.10431
-5.12636
-5.14557
-5.16372
-5.1823
-5.20274
-5.22634
-5.25418
-5.28714
-5.32583
-5.37055
-5.42133
-5.47798
-5.54008
-5.60708
-5.67833
-5.75314
-5.83078
-5.91055
-5.9918
-6.07391
-6.15632
-6.23852
-6.32008
-6.4006
-6.47973
-6.55718
-6.63269
-6.70605
-6.77707
-6.84559
-6.9115
-6.9747
-7.03511
-7.09268
-7.14736
-7.19914
-7.248
-7.29394
-7.33696
-7.37707
-7.41428
-7.4486
-7.48005
-7.50863
-7.53436
-7.55722
-7.57723
-7.59436
-7.6086
-7.61993
-7.62831
-7.63369
-7.63603
-7.63527
-7.63132
-7.62411
-7.61354
-7.59949
-7.58185
-7.56049
-7.53524
-7.50594
-7.47242
-7.43448
-7.3919
-7.34445
-7.29188
-7.23392
-7.17027
-7.10065
-7.02471
-6.94209
-6.85241
-6.75528
-6.65026
-6.53691
-6.41476
-6.28332
-6.14209
-5.99053
-5.82811
-5.65427
-5.46844
-5.27007
-5.05858
-4.83343
-4.59406
-4.33996
-4.07063
-3.78564
-3.48458
-3.16714
-2.83307
-2.48223
-2.11459
-1.73025
-1.32948
-0.912755
-0.480684
-0.0341386
0.425714
0.897489
1.37955
1.8699
2.36625
2.86603
3.36633
3.86398
4.35556
4.83744
5.30585
5.75699
6.18705
6.59238
6.96955
7.31544
7.62736
7.90312
8.14114
8.34046
8.50081
8.62262
8.70696
8.75551
8.77052
8.75471
8.71115
8.64321
8.55445
8.44849
8.32898
8.19947
8.0634
7.92397
7.78417
7.64672
7.51403
7.3882
7.27101
7.16395
7.06815
6.98444
6.91335
6.85513
6.80983
6.77721
6.75688
6.74822
6.75049
6.76278
6.7841
6.81337
6.84945
6.89121
6.93749
6.98717
7.03917
7.09249
7.1462
7.19947
7.25162
7.30207
7.35042
7.39641
7.43992
7.48097
7.51967
7.55617
7.59056
7.62281
7.65248
7.67866
7.6989
7.7105
7.70372
-4.91367
-4.95548
-5.00408
-5.04313
-5.07257
-5.09691
-5.11903
-5.1407
-5.16336
-5.18834
-5.21678
-5.24965
-5.28764
-5.3312
-5.3805
-5.43545
-5.49574
-5.56089
-5.63033
-5.70339
-5.77939
-5.85765
-5.93753
-6.01843
-6.09978
-6.1811
-6.26193
-6.3419
-6.42065
-6.49791
-6.5734
-6.64694
-6.71832
-6.78741
-6.85407
-6.91822
-6.97977
-7.03866
-7.09485
-7.14831
-7.19902
-7.24696
-7.29214
-7.33455
-7.3742
-7.4111
-7.44525
-7.47666
-7.50533
-7.53127
-7.55446
-7.57491
-7.59259
-7.60748
-7.61956
-7.62878
-7.63511
-7.63849
-7.63886
-7.63613
-7.63023
-7.62106
-7.6085
-7.59245
-7.57276
-7.54928
-7.52186
-7.4903
-7.45442
-7.41401
-7.36883
-7.31862
-7.26314
-7.20208
-7.13515
-7.06201
-6.98228
-6.8956
-6.80155
-6.69973
-6.58966
-6.4709
-6.34294
-6.20528
-6.05738
-5.8987
-5.72867
-5.54674
-5.35232
-5.14485
-4.92376
-4.6885
-4.43851
-4.17332
-3.89244
-3.59546
-3.28206
-2.95197
-2.60501
-2.24112
-1.86038
-1.46306
-1.04958
-0.620556
-0.176817
0.28052
0.750078
1.2302
1.71893
2.21396
2.71271
3.21225
3.70939
4.20067
4.68241
5.15081
5.60199
6.03212
6.43748
6.8146
7.16035
7.47203
7.74747
7.98513
8.18411
8.34421
8.46592
8.55041
8.59944
8.61532
8.60083
8.55909
8.49349
8.4076
8.30503
8.1894
8.06423
7.93289
7.79854
7.6641
7.53221
7.40522
7.28518
7.1738
7.07252
6.98242
6.90431
6.8387
6.78582
6.7457
6.71809
6.70258
6.69857
6.70529
6.72184
6.74722
6.78036
6.82012
6.86535
6.91491
6.96766
7.02252
7.0785
7.13464
7.19013
7.24425
7.29642
7.34619
7.39326
7.43747
7.47877
7.51718
7.55276
7.5855
7.61522
7.6414
7.66301
7.67774
7.68303
7.67107
-4.90357
-4.94145
-4.98628
-5.02357
-5.05285
-5.07802
-5.10168
-5.12547
-5.15069
-5.17853
-5.20999
-5.24587
-5.28676
-5.33299
-5.38465
-5.44161
-5.50353
-5.56994
-5.64025
-5.71384
-5.79004
-5.86822
-5.94777
-6.02811
-6.10872
-6.18915
-6.26897
-6.34783
-6.42542
-6.50146
-6.57573
-6.64804
-6.71823
-6.78616
-6.85174
-6.91487
-6.97549
-7.03355
-7.08902
-7.14186
-7.19206
-7.23961
-7.28452
-7.32677
-7.36637
-7.40333
-7.43765
-7.46933
-7.49837
-7.52478
-7.54854
-7.56964
-7.58806
-7.60378
-7.61678
-7.627
-7.63441
-7.63896
-7.64057
-7.63917
-7.63468
-7.627
-7.61603
-7.60164
-7.5837
-7.56206
-7.53657
-7.50704
-7.47328
-7.43507
-7.3922
-7.3444
-7.29142
-7.23297
-7.16875
-7.09839
-7.02155
-6.93784
-6.84686
-6.74819
-6.64137
-6.52593
-6.40138
-6.26721
-6.12287
-5.96783
-5.80151
-5.62334
-5.43274
-5.22913
-5.01194
-4.7806
-4.53455
-4.27328
-3.9963
-3.70319
-3.3936
-3.06724
-2.72393
-2.36357
-1.98623
-1.59212
-1.18166
-0.755434
-0.314279
0.140724
0.608216
1.08654
1.57373
2.06749
2.5652
3.06393
3.56042
4.05119
4.53251
5.00052
5.45129
5.88092
6.28568
6.66204
7.00687
7.31749
7.59175
7.82817
8.02593
8.18492
8.30572
8.3896
8.4384
8.45453
8.44082
8.40044
8.33682
8.25351
8.15413
8.04225
7.92135
7.79473
7.66549
7.53647
7.41025
7.2891
7.17501
7.06962
6.97432
6.89015
6.81788
6.758
6.71072
6.67605
6.65372
6.64333
6.64425
6.65572
6.67684
6.70659
6.74389
6.78761
6.83659
6.88969
6.94576
7.00373
7.06257
7.12136
7.17925
7.23551
7.28955
7.34088
7.38918
7.43422
7.4759
7.51416
7.54897
7.58024
7.60771
7.63076
7.64834
7.65833
7.65839
7.64228
-4.9095
-4.94164
-4.98037
-5.01385
-5.04132
-5.06585
-5.08965
-5.11412
-5.1404
-5.1695
-5.20228
-5.23942
-5.2814
-5.3285
-5.38078
-5.43809
-5.50012
-5.56642
-5.63645
-5.7096
-5.78527
-5.86283
-5.94171
-6.02134
-6.10123
-6.18093
-6.26002
-6.33817
-6.41506
-6.49044
-6.56408
-6.6358
-6.70545
-6.7729
-6.83805
-6.90083
-6.96116
-7.01901
-7.07433
-7.12712
-7.17734
-7.225
-7.27009
-7.31261
-7.35256
-7.38995
-7.42477
-7.45703
-7.48673
-7.51386
-7.53842
-7.56039
-7.57975
-7.59649
-7.61056
-7.62194
-7.63057
-7.6364
-7.63937
-7.63941
-7.63643
-7.63033
-7.62102
-7.60836
-7.59224
-7.5725
-7.54899
-7.52153
-7.48992
-7.45396
-7.41341
-7.36804
-7.31758
-7.26174
-7.2002
-7.13261
-7.05862
-6.97784
-6.88987
-6.79428
-6.69063
-6.57843
-6.45719
-6.3264
-6.18551
-6.03397
-5.87121
-5.69665
-5.5097
-5.30977
-5.09629
-4.86866
-4.62633
-4.36878
-4.0955
-3.80605
-3.50004
-3.17719
-2.83727
-2.48021
-2.10603
-1.71494
-1.30731
-0.883726
-0.445006
0.00777744
0.473272
0.949822
1.43545
1.92784
2.42436
2.92203
3.41757
3.90742
4.38782
4.85485
5.30451
5.73289
6.13618
6.51087
6.85381
7.16235
7.43443
7.66861
7.86419
8.02115
8.14021
8.22272
8.27064
8.28647
8.27309
8.23374
8.17185
8.09097
7.9947
7.88656
7.76998
7.64819
7.5242
7.40079
7.28044
7.16535
7.05744
6.9583
6.86924
6.79127
6.72512
6.67126
6.62987
6.60094
6.58422
6.57925
6.58541
6.60195
6.62793
6.66235
6.70412
6.7521
6.80512
6.86202
6.92167
6.98298
7.04492
7.10655
7.16703
7.2256
7.28166
7.3347
7.38435
7.43035
7.47253
7.51077
7.54498
7.57499
7.60046
7.62075
7.63482
7.64077
7.63648
7.61704
-4.92386
-4.94933
-4.9806
-5.00885
-5.0332
-5.05587
-5.07858
-5.10247
-5.12851
-5.15753
-5.19025
-5.22726
-5.26895
-5.31557
-5.36718
-5.42365
-5.4847
-5.54994
-5.61887
-5.69092
-5.76552
-5.84209
-5.92006
-5.99889
-6.07808
-6.15717
-6.23577
-6.31352
-6.39011
-6.46527
-6.53877
-6.61043
-6.68009
-6.74761
-6.8129
-6.87588
-6.93648
-6.99465
-7.05036
-7.10358
-7.1543
-7.20251
-7.24821
-7.29138
-7.33205
-7.3702
-7.40584
-7.43897
-7.46958
-7.49768
-7.52326
-7.5463
-7.56679
-7.5847
-7.60001
-7.61267
-7.62265
-7.62988
-7.63432
-7.63588
-7.63448
-7.63004
-7.62245
-7.6116
-7.59734
-7.57954
-7.55805
-7.53268
-7.50325
-7.46954
-7.43133
-7.38838
-7.34042
-7.28715
-7.22824
-7.16337
-7.09216
-7.01424
-6.92919
-6.8366
-6.736
-6.62692
-6.50886
-6.3813
-6.2437
-6.09549
-5.93612
-5.76498
-5.58148
-5.38502
-5.17502
-4.95088
-4.71203
-4.45794
-4.18809
-3.90204
-3.59938
-3.27978
-2.94305
-2.58905
-2.21782
-1.82954
-1.42458
-1.0035
-0.567119
-0.116504
0.346991
0.821701
1.30563
1.79645
2.29148
2.7877
3.28179
3.77013
4.24891
4.71414
5.1618
5.58792
5.98867
6.36055
6.70045
7.00575
7.27448
7.50532
7.69767
7.85166
7.96812
8.04854
8.09498
8.11002
8.09663
8.05806
7.99776
7.91927
7.82615
7.72186
7.60975
7.49298
7.37448
7.25692
7.14271
7.03396
6.93252
6.83991
6.75738
6.68591
6.62619
6.57864
6.54345
6.52058
6.50975
6.51052
6.52225
6.54416
6.57532
6.61473
6.66126
6.71379
6.77113
6.83211
6.89559
6.96048
7.02574
7.09041
7.15365
7.21471
7.27293
7.32782
7.37895
7.42602
7.46883
7.5072
7.54096
7.56991
7.59365
7.61155
7.6226
7.62512
7.61722
7.59509
-4.93949
-4.95803
-4.98133
-5.00357
-5.02393
-5.04383
-5.06452
-5.08688
-5.11168
-5.1396
-5.17124
-5.2071
-5.24753
-5.29274
-5.34281
-5.39764
-5.45701
-5.52056
-5.58786
-5.65839
-5.73161
-5.80696
-5.8839
-5.96188
-6.0404
-6.11902
-6.19732
-6.27492
-6.35151
-6.4268
-6.50056
-6.57257
-6.64268
-6.71073
-6.77663
-6.84027
-6.90159
-6.96053
-7.01705
-7.07113
-7.12274
-7.17188
-7.21853
-7.2627
-7.30439
-7.34359
-7.38031
-7.41455
-7.44631
-7.47558
-7.50237
-7.52665
-7.54842
-7.56765
-7.58432
-7.59838
-7.6098
-7.61853
-7.62451
-7.62767
-7.62793
-7.6252
-7.61938
-7.61035
-7.59799
-7.58216
-7.56269
-7.53943
-7.51216
-7.4807
-7.44481
-7.40425
-7.35874
-7.30797
-7.25163
-7.18938
-7.12086
-7.04567
-6.96343
-6.87369
-6.77599
-6.66987
-6.55481
-6.4303
-6.29579
-6.15071
-5.99449
-5.82653
-5.64623
-5.45299
-5.24621
-5.02528
-4.78964
-4.53873
-4.27204
-3.9891
-3.68949
-3.3729
-3.03907
-2.68791
-2.31941
-1.93375
-1.5313
-1.11262
-0.678514
-0.230065
0.231363
0.704087
1.18609
1.675
2.1681
2.66233
3.1543
3.64036
4.11661
4.57904
5.02357
5.44621
5.84316
6.21091
6.54642
6.84717
7.11129
7.33759
7.52563
7.67567
7.7887
7.86634
7.91077
7.92464
7.91097
7.87304
7.8143
7.73826
7.64842
7.54816
7.44076
7.32928
7.21654
7.10513
6.99736
6.89526
6.80058
6.7148
6.6391
6.57442
6.52142
6.48048
6.45179
6.43527
6.43064
6.43744
6.45504
6.48262
6.51927
6.56395
6.61555
6.67291
6.73484
6.80016
6.86773
6.93642
7.00521
7.07313
7.13931
7.203
7.26355
7.3204
7.37313
7.4214
7.46496
7.50359
7.53708
7.56516
7.58745
7.60329
7.61176
7.61138
7.60049
7.57619
-4.9504
-4.96239
-4.97783
-4.99381
-5.00972
-5.02632
-5.04438
-5.06456
-5.08743
-5.11356
-5.14345
-5.1775
-5.21606
-5.25931
-5.30735
-5.3601
-5.41739
-5.47892
-5.5443
-5.61308
-5.68473
-5.75874
-5.83457
-5.91169
-5.9896
-6.06783
-6.14597
-6.22362
-6.30044
-6.37613
-6.45043
-6.52311
-6.594
-6.66293
-6.72977
-6.79443
-6.85682
-6.91687
-6.97454
-7.0298
-7.08261
-7.13297
-7.18086
-7.22628
-7.26923
-7.30971
-7.34772
-7.38326
-7.41634
-7.44695
-7.47509
-7.50075
-7.52391
-7.54457
-7.56269
-7.57824
-7.59118
-7.60147
-7.60905
-7.61385
-7.6158
-7.61481
-7.61079
-7.60361
-7.59315
-7.57928
-7.56184
-7.54066
-7.51554
-7.48629
-7.45267
-7.41442
-7.37127
-7.32291
-7.26902
-7.20928
-7.1433
-7.07072
-6.99111
-6.90405
-6.80908
-6.70571
-6.59344
-6.47175
-6.34008
-6.19787
-6.04453
-5.87948
-5.70209
-5.51176
-5.30788
-5.08986
-4.8571
-4.60905
-4.34519
-4.06503
-3.76817
-3.45426
-3.12307
-2.77447
-2.40847
-2.02525
-1.62516
-1.20878
-0.776924
-0.330687
0.128545
0.599059
1.0788
1.56536
2.05597
2.5475
3.03652
3.51931
3.99193
4.45032
4.89039
5.30815
5.69981
6.06194
6.39159
6.68635
6.94451
7.16504
7.34766
7.49282
7.60165
7.67591
7.71787
7.73028
7.71618
7.67886
7.62175
7.54831
7.46195
7.366
7.26359
7.1577
7.05104
6.94609
6.84506
6.7499
6.66228
6.5836
6.51502
6.4574
6.41137
6.37731
6.35538
6.34548
6.34732
6.36043
6.38416
6.4177
6.46011
6.51035
6.56728
6.62973
6.69651
6.76642
6.83829
6.91102
6.98353
7.05488
7.12418
7.19066
7.25366
7.31261
7.36705
7.41664
7.46107
7.50009
7.53346
7.5609
7.58197
7.59609
7.60237
7.59956
7.58619
7.56012
-4.95267
-4.95916
-4.96714
-4.97693
-4.98816
-5.00106
-5.01604
-5.03354
-5.05398
-5.07782
-5.10546
-5.13726
-5.17352
-5.21444
-5.26009
-5.31047
-5.36542
-5.4247
-5.48797
-5.55481
-5.62477
-5.69733
-5.77197
-5.8482
-5.92549
-6.00339
-6.08144
-6.15925
-6.23645
-6.31271
-6.38775
-6.46133
-6.53324
-6.6033
-6.67136
-6.7373
-6.80102
-6.86246
-6.92154
-6.97823
-7.0325
-7.08432
-7.13367
-7.18056
-7.22498
-7.26693
-7.30642
-7.34344
-7.378
-7.41009
-7.43973
-7.4669
-7.49159
-7.51378
-7.53346
-7.5506
-7.56516
-7.5771
-7.58636
-7.59288
-7.59659
-7.59741
-7.59523
-7.58994
-7.58143
-7.56956
-7.55417
-7.53509
-7.51213
-7.48509
-7.4537
-7.41772
-7.37686
-7.33084
-7.27932
-7.22198
-7.15845
-7.08833
-7.01122
-6.92669
-6.83426
-6.73346
-6.62378
-6.50469
-6.37563
-6.23604
-6.08532
-5.92289
-5.74811
-5.56039
-5.35911
-5.14366
-4.91346
-4.66794
-4.40657
-4.12887
-3.83444
-3.52292
-3.19408
-2.84779
-2.48407
-2.1031
-1.70525
-1.29111
-0.861516
-0.417588
0.0392526
0.507253
0.98431
1.46796
1.95537
2.44335
2.92842
3.40679
3.87448
4.32741
4.76148
5.17273
5.55744
5.91227
6.23441
6.52162
6.77235
6.9858
7.16186
7.30118
7.40504
7.47533
7.51444
7.52515
7.51054
7.47389
7.41857
7.34797
7.26541
7.1741
7.07706
6.97715
6.87696
6.77886
6.68496
6.59711
6.5169
6.44567
6.38452
6.33429
6.29556
6.2687
6.25384
6.25087
6.25949
6.27922
6.30941
6.34922
6.3977
6.45379
6.51636
6.58421
6.65612