/*--------------------------------*- C++ -*----------------------------------*\
| =========                 |                                                 |
| \\      /  F ield         | OpenFOAM: The Open Source CFD Toolbox           |
|  \\    /   O peration     | Version:  2412                                  |
|   \\  /    A nd           | Website:  www.openfoam.com                      |
|    \\/     M anipulation  |                                                 |
\*---------------------------------------------------------------------------*/
FoamFile
{
    version     2.0;
    format      ascii;
    arch        "LSB;label=32;scalar=64";
    class       surfaceScalarField;
    location    "0.05";
    object      phi;
}
// * * * * * * * * * * * * * * * * * * * * * * * * * * * * * * * * * * * * * //

dimensions      [0 3 -1 0 0 0 0];

oriented        oriented;

internalField   nonuniform List<scalar> 
24170
(
1.3671e-07
-5.71661e-08
1.95524e-07
-5.88138e-08
2.5762e-07
-6.20955e-08
3.11085e-07
-5.34651e-08
3.60857e-07
-4.97717e-08
4.06532e-07
-4.56752e-08
4.47682e-07
-4.11502e-08
4.84654e-07
-3.69721e-08
5.17838e-07
-3.3184e-08
5.47575e-07
-2.97366e-08
5.74192e-07
-2.66173e-08
5.97986e-07
-2.37938e-08
6.19205e-07
-2.12196e-08
6.38042e-07
-1.88362e-08
6.54666e-07
-1.66244e-08
6.6906e-07
-1.43939e-08
6.8169e-07
-1.263e-08
-9.92094e-09
6.91611e-07
3.26092e-07
-1.24805e-07
3.93983e-07
-1.26705e-07
4.55498e-07
-1.2361e-07
5.13459e-07
-1.11426e-07
5.66528e-07
-1.02841e-07
6.14982e-07
-9.41287e-08
6.5905e-07
-8.52184e-08
6.98962e-07
-7.68843e-08
7.3502e-07
-6.92418e-08
7.67548e-07
-6.22642e-08
7.96854e-07
-5.59239e-08
8.23218e-07
-5.01574e-08
8.46877e-07
-4.48788e-08
8.68024e-07
-3.99837e-08
8.86802e-07
-3.54018e-08
9.03273e-07
-3.08658e-08
9.17541e-07
-2.68976e-08
-2.07598e-08
9.2838e-07
5.17202e-07
-1.71551e-07
5.78952e-07
-1.88455e-07
6.3774e-07
-1.82399e-07
6.94523e-07
-1.68208e-07
7.46867e-07
-1.55186e-07
7.94919e-07
-1.42181e-07
8.38934e-07
-1.29234e-07
8.79053e-07
-1.17003e-07
9.15497e-07
-1.05685e-07
9.48533e-07
-9.53005e-08
9.78427e-07
-8.58174e-08
1.00542e-06
-7.71526e-08
1.02973e-06
-6.91902e-08
1.05154e-06
-6.17895e-08
1.07096e-06
-5.48206e-08
1.08809e-06
-4.80027e-08
1.10266e-06
-4.14647e-08
-3.25713e-08
1.11447e-06
7.43417e-07
-1.95298e-07
7.91672e-07
-2.3671e-07
8.43277e-07
-2.34004e-07
8.95396e-07
-2.20328e-07
9.44546e-07
-2.04336e-07
9.90224e-07
-1.87859e-07
1.03245e-06
-1.71463e-07
1.07124e-06
-1.55791e-07
1.1067e-06
-1.41146e-07
1.13902e-06
-1.27618e-07
1.16839e-06
-1.1519e-07
1.19502e-06
-1.03777e-07
1.21907e-06
-9.32443e-08
1.24071e-06
-8.34258e-08
1.26003e-06
-7.41421e-08
1.27711e-06
-6.50887e-08
1.29174e-06
-5.60932e-08
-4.50836e-08
1.30425e-06
1.01484e-06
-1.9967e-07
1.04701e-06
-2.68877e-07
1.08789e-06
-2.74888e-07
1.1323e-06
-2.64734e-07
1.17587e-06
-2.47904e-07
1.21721e-06
-2.29201e-07
1.25596e-06
-2.10214e-07
1.29194e-06
-1.91763e-07
1.3251e-06
-1.74309e-07
1.35552e-06
-1.58044e-07
1.38333e-06
-1.42995e-07
1.40864e-06
-1.29091e-07
1.4316e-06
-1.16199e-07
1.45231e-06
-1.04138e-07
1.47087e-06
-9.26989e-08
1.48734e-06
-8.15658e-08
1.50167e-06
-7.04212e-08
-5.77424e-08
1.51433e-06
1.33798e-06
-1.90214e-07
1.35392e-06
-2.84814e-07
1.38172e-06
-3.02688e-07
1.41573e-06
-2.98741e-07
1.45132e-06
-2.83499e-07
1.48628e-06
-2.64162e-07
1.51977e-06
-2.43699e-07
1.55134e-06
-2.23338e-07
1.5808e-06
-2.03765e-07
1.60807e-06
-1.85318e-07
1.63318e-06
-1.681e-07
1.65617e-06
-1.5208e-07
1.67711e-06
-1.37142e-07
1.69608e-06
-1.23111e-07
1.71315e-06
-1.0977e-07
1.7284e-06
-9.68157e-08
1.74188e-06
-8.38962e-08
-6.99408e-08
1.75408e-06
1.71756e-06
-1.72494e-07
1.71891e-06
-2.86166e-07
1.73272e-06
-3.16494e-07
1.75435e-06
-3.20373e-07
1.77979e-06
-3.08944e-07
1.80636e-06
-2.90724e-07
1.83275e-06
-2.70089e-07
1.85827e-06
-2.4886e-07
1.88252e-06
-2.28018e-07
1.90529e-06
-2.08087e-07
1.92647e-06
-1.89281e-07
1.94603e-06
-1.71635e-07
1.96396e-06
-1.55072e-07
1.98029e-06
-1.39444e-07
1.99507e-06
-1.24548e-07
2.00837e-06
-1.10118e-07
2.02031e-06
-9.58357e-08
-8.09846e-08
2.03135e-06
2.15722e-06
-1.5102e-07
2.14675e-06
-2.75696e-07
2.14715e-06
-3.169e-07
2.15554e-06
-3.28762e-07
2.16924e-06
-3.22645e-07
2.18566e-06
-3.07143e-07
2.20325e-06
-2.87678e-07
2.22111e-06
-2.66715e-07
2.23865e-06
-2.45563e-07
2.25552e-06
-2.24959e-07
2.2715e-06
-2.05257e-07
2.28645e-06
-1.86582e-07
2.30029e-06
-1.68917e-07
2.31301e-06
-1.52159e-07
2.3246e-06
-1.36144e-07
2.33515e-06
-1.2066e-07
2.34477e-06
-1.0546e-07
-9.00952e-08
2.35388e-06
2.65999e-06
-1.28819e-07
2.64081e-06
-2.56525e-07
2.62961e-06
-3.05694e-07
2.62517e-06
-3.24325e-07
2.62646e-06
-3.23937e-07
2.63159e-06
-3.12265e-07
2.63903e-06
-2.95126e-07
2.64783e-06
-2.75512e-07
2.6573e-06
-2.55029e-07
2.66696e-06
-2.34618e-07
2.67648e-06
-2.14784e-07
2.68566e-06
-1.95754e-07
2.69433e-06
-1.77591e-07
2.70242e-06
-1.60252e-07
2.7099e-06
-1.43627e-07
2.71682e-06
-1.27572e-07
2.72328e-06
-1.11924e-07
-9.6437e-08
2.72962e-06
3.22861e-06
-1.07569e-07
3.20353e-06
-2.31445e-07
3.18306e-06
-2.85229e-07
3.16732e-06
-3.08579e-07
3.15665e-06
-3.13267e-07
3.15019e-06
-3.05808e-07
3.14681e-06
-2.91742e-07
3.14562e-06
-2.7433e-07
3.14598e-06
-2.55383e-07
3.14735e-06
-2.35989e-07
3.14935e-06
-2.16785e-07
3.1517e-06
-1.98103e-07
3.15419e-06
-1.80086e-07
3.1567e-06
-1.62762e-07
3.15916e-06
-1.46086e-07
3.16157e-06
-1.29981e-07
3.16402e-06
-1.14376e-07
-9.9161e-08
3.16675e-06
3.86557e-06
-8.81149e-08
3.83669e-06
-2.0256e-07
3.8092e-06
-2.57741e-07
3.78426e-06
-2.8364e-07
3.76306e-06
-2.92069e-07
3.74574e-06
-2.88482e-07
3.73169e-06
-2.77691e-07
3.72031e-06
-2.62949e-07
3.71107e-06
-2.46144e-07
3.70351e-06
-2.28432e-07
3.69725e-06
-2.10528e-07
3.692e-06
-1.92845e-07
3.68751e-06
-1.75601e-07
3.68364e-06
-1.58889e-07
3.68028e-06
-1.42728e-07
3.6774e-06
-1.27103e-07
3.67505e-06
-1.12028e-07
-9.7476e-08
3.67337e-06
3.81112e-06
-7.23291e-08
3.7851e-06
-1.76537e-07
3.75792e-06
-2.30565e-07
3.73143e-06
-2.57149e-07
3.70695e-06
-2.67588e-07
3.68508e-06
-2.66614e-07
3.66574e-06
-2.58354e-07
3.64869e-06
-2.45893e-07
3.63364e-06
-2.31099e-07
3.62033e-06
-2.1512e-07
3.60849e-06
-1.98688e-07
3.5979e-06
-1.82254e-07
3.58837e-06
-1.66077e-07
3.57978e-06
-1.50296e-07
3.57203e-06
-1.34975e-07
3.56507e-06
-1.20148e-07
3.55888e-06
-1.05831e-07
-9.22558e-08
3.55366e-06
5.03699e-06
-5.65648e-08
5.00657e-06
-1.46117e-07
4.97254e-06
-1.96535e-07
4.9377e-06
-2.22302e-07
4.90376e-06
-2.33653e-07
4.8719e-06
-2.34747e-07
4.84241e-06
-2.28873e-07
4.81531e-06
-2.18787e-07
4.79048e-06
-2.0627e-07
4.76777e-06
-1.92408e-07
4.74698e-06
-1.77905e-07
4.72795e-06
-1.63217e-07
4.71049e-06
-1.48624e-07
4.69449e-06
-1.34296e-07
4.67985e-06
-1.2033e-07
4.6665e-06
-1.06797e-07
4.65441e-06
-9.37482e-08
-8.15189e-08
4.64368e-06
6.66228e-06
-4.13763e-08
6.62856e-06
-1.12391e-07
6.58795e-06
-1.55932e-07
6.54462e-06
-1.78969e-07
6.50071e-06
-1.8974e-07
6.45789e-06
-1.91933e-07
6.41699e-06
-1.87971e-07
6.37829e-06
-1.80083e-07
6.34189e-06
-1.69868e-07
6.3078e-06
-1.58319e-07
6.27596e-06
-1.46069e-07
6.24628e-06
-1.33539e-07
6.21867e-06
-1.21007e-07
6.19302e-06
-1.08648e-07
6.16927e-06
-9.6578e-08
6.14735e-06
-8.48836e-08
6.12725e-06
-7.36413e-08
-6.32155e-08
6.10894e-06
8.79069e-06
-2.74033e-08
8.75583e-06
-7.75328e-08
8.71041e-06
-1.10515e-07
8.65979e-06
-1.28346e-07
8.60668e-06
-1.36631e-07
8.55322e-06
-1.38473e-07
8.5008e-06
-1.35546e-07
8.4501e-06
-1.2939e-07
8.4015e-06
-1.21268e-07
8.3552e-06
-1.12013e-07
8.31128e-06
-1.0215e-07
8.26977e-06
-9.20327e-08
8.23067e-06
-8.19034e-08
8.19395e-06
-7.19254e-08
8.15958e-06
-6.22094e-08
8.12754e-06
-5.28419e-08
8.09778e-06
-4.38902e-08
-3.57348e-08
8.0703e-06
1.15179e-05
-1.49582e-08
1.14841e-05
-4.37748e-08
1.1437e-05
-6.33981e-08
1.13822e-05
-7.35671e-08
1.1323e-05
-7.73683e-08
1.12616e-05
-7.70913e-08
1.11999e-05
-7.3855e-08
1.11391e-05
-6.85493e-08
1.10798e-05
-6.19799e-08
1.10225e-05
-5.47289e-08
1.09675e-05
-4.7159e-08
1.0915e-05
-3.95079e-08
1.0865e-05
-3.19449e-08
1.08177e-05
-2.45914e-08
1.0773e-05
-1.75329e-08
1.0731e-05
-1.08428e-08
1.06917e-05
-4.55247e-09
9.51437e-10
1.0655e-05
1.48841e-05
-3.60891e-09
1.4852e-05
-1.16891e-08
1.48052e-05
-1.65974e-08
1.47492e-05
-1.75736e-08
1.46876e-05
-1.57546e-08
1.46228e-05
-1.22855e-08
1.45567e-05
-7.73343e-09
1.44906e-05
-2.48956e-09
1.44255e-05
3.11678e-09
1.4362e-05
8.78604e-09
1.43005e-05
1.43489e-08
1.42413e-05
1.97037e-08
1.41846e-05
2.47756e-08
1.41305e-05
2.95092e-08
1.40791e-05
3.38664e-08
1.40304e-05
3.78025e-08
1.39845e-05
4.1346e-08
4.41502e-08
1.39413e-05
1.8769e-05
8.12919e-09
1.87363e-05
2.09555e-08
1.8688e-05
3.17617e-08
1.86295e-05
4.08388e-08
1.85652e-05
4.85559e-08
1.84977e-05
5.52014e-08
1.84291e-05
6.0964e-08
1.83606e-05
6.59876e-08
1.82933e-05
7.03865e-08
1.82279e-05
7.42344e-08
1.81646e-05
7.75846e-08
1.81038e-05
8.04767e-08
1.80457e-05
8.29374e-08
1.79902e-05
8.49825e-08
1.79375e-05
8.66246e-08
1.78874e-05
8.78551e-08
1.784e-05
8.87347e-08
8.90077e-08
1.77952e-05
2.26769e-05
1.87398e-08
2.26403e-05
5.7603e-08
2.25844e-05
8.76724e-08
2.25164e-05
1.08773e-07
2.24416e-05
1.23419e-07
2.23631e-05
1.3364e-07
2.22836e-05
1.40515e-07
2.22047e-05
1.44841e-07
2.21278e-05
1.47331e-07
2.20535e-05
1.48519e-07
2.19823e-05
1.48757e-07
2.19145e-05
1.48278e-07
2.18502e-05
1.47248e-07
2.17894e-05
1.45785e-07
2.17321e-05
1.43967e-07
2.16781e-05
1.41843e-07
2.16273e-05
1.39474e-07
1.36719e-07
2.15796e-05
1.56042e-05
3.41614e-08
1.55649e-05
9.68861e-08
1.55108e-05
1.41788e-07
1.54486e-05
1.71003e-07
1.53821e-05
1.89851e-07
1.53142e-05
2.01566e-07
1.52468e-05
2.0789e-07
1.51814e-05
2.10302e-07
1.51186e-05
2.10059e-07
1.50591e-05
2.0804e-07
1.5003e-05
2.04818e-07
1.49505e-05
2.0079e-07
1.49015e-05
1.96234e-07
1.4856e-05
1.9135e-07
1.48137e-05
1.86273e-07
1.47744e-05
1.81102e-07
1.4738e-05
1.75903e-07
1.70624e-07
1.47041e-05
1.23905e-05
5.2505e-08
1.23457e-05
1.41706e-07
1.22883e-05
1.99129e-07
1.22258e-05
2.33528e-07
1.21616e-05
2.54068e-07
1.20983e-05
2.64884e-07
1.20376e-05
2.68532e-07
1.19806e-05
2.6736e-07
1.19275e-05
2.63141e-07
1.18785e-05
2.57007e-07
1.18336e-05
2.49696e-07
1.17927e-05
2.41715e-07
1.17555e-05
2.33412e-07
1.17219e-05
2.2502e-07
1.16915e-05
2.16689e-07
1.1664e-05
2.08522e-07
1.16394e-05
2.00567e-07
1.92817e-07
1.16172e-05
9.55953e-06
7.65699e-08
9.51067e-06
1.90561e-07
9.45561e-06
2.54186e-07
9.40015e-06
2.88993e-07
9.34662e-06
3.07601e-07
9.29698e-06
3.14519e-07
9.25216e-06
3.1335e-07
9.21228e-06
3.07249e-07
9.17714e-06
2.98273e-07
9.14649e-06
2.87664e-07
9.11995e-06
2.76229e-07
9.09716e-06
2.64507e-07
9.07773e-06
2.52843e-07
9.0613e-06
2.4145e-07
9.04754e-06
2.30454e-07
9.03613e-06
2.19926e-07
9.02681e-06
2.09887e-07
2.00345e-07
9.01928e-06
7.18025e-06
1.05766e-07
7.13347e-06
2.37347e-07
7.08878e-06
2.98878e-07
7.04846e-06
3.29307e-07
7.01378e-06
3.42287e-07
6.98562e-06
3.42672e-07
6.96365e-06
3.35325e-07
6.94706e-06
3.23841e-07
6.93509e-06
3.10237e-07
6.92707e-06
2.9569e-07
6.92235e-06
2.80948e-07
6.92038e-06
2.66471e-07
6.92071e-06
2.5252e-07
6.92292e-06
2.39234e-07
6.9267e-06
2.26676e-07
6.93176e-06
2.14862e-07
6.93788e-06
2.03774e-07
1.9341e-07
6.94481e-06
5.24576e-06
1.38719e-07
5.20862e-06
2.74493e-07
5.18204e-06
3.25452e-07
5.16435e-06
3.46996e-07
5.15545e-06
3.51195e-07
5.15423e-06
3.43883e-07
5.15887e-06
3.30695e-07
5.16782e-06
3.14888e-07
5.17998e-06
2.98079e-07
5.19447e-06
2.81196e-07
5.21063e-06
2.64793e-07
5.22793e-06
2.49168e-07
5.24599e-06
2.3446e-07
5.26451e-06
2.20714e-07
5.28327e-06
2.07919e-07
5.30209e-06
1.9604e-07
5.32084e-06
1.8502e-07
1.74849e-07
5.3394e-06
3.7148e-06
1.72056e-07
3.69674e-06
2.92549e-07
3.69584e-06
3.26357e-07
3.70672e-06
3.36108e-07
3.72696e-06
3.30958e-07
3.75327e-06
3.17577e-07
3.78306e-06
3.00904e-07
3.81477e-06
2.83177e-07
3.84739e-06
2.65458e-07
3.88023e-06
2.48359e-07
3.91281e-06
2.3221e-07
3.94483e-06
2.17148e-07
3.97609e-06
2.03201e-07
4.00646e-06
1.90341e-07
4.03587e-06
1.78505e-07
4.0643e-06
1.67619e-07
4.09171e-06
1.57608e-07
1.48456e-07
4.1181e-06
2.53556e-06
1.97095e-07
2.54681e-06
2.81296e-07
2.57605e-06
2.9712e-07
2.61618e-06
2.95978e-07
2.66261e-06
2.84524e-07
2.71134e-06
2.68846e-07
2.76033e-06
2.51919e-07
2.80855e-06
2.34953e-07
2.85541e-06
2.186e-07
2.90055e-06
2.03218e-07
2.9438e-06
1.88956e-07
2.98511e-06
1.75845e-07
3.02446e-06
1.63845e-07
3.06192e-06
1.52886e-07
3.09754e-06
1.42882e-07
3.13141e-06
1.33745e-07
3.16363e-06
1.25393e-07
1.17829e-07
3.19426e-06
1.65482e-06
1.99383e-07
1.70101e-06
2.35102e-07
1.75804e-06
2.40098e-07
1.82145e-06
2.32563e-07
1.88622e-06
2.19752e-07
1.94938e-06
2.05693e-07
2.01003e-06
1.91268e-07
2.0678e-06
1.77183e-07
2.12249e-06
1.63908e-07
2.17408e-06
1.51623e-07
2.22267e-06
1.40373e-07
2.26838e-06
1.30134e-07
2.31138e-06
1.20842e-07
2.35185e-06
1.12415e-07
2.38996e-06
1.04769e-07
2.42589e-06
9.78201e-08
2.45979e-06
9.14911e-08
8.58208e-08
2.4918e-06
1.01836e-06
1.63887e-07
1.09521e-06
1.58244e-07
1.17099e-06
1.64326e-07
1.248e-06
1.5555e-07
1.32208e-06
1.45668e-07
1.39187e-06
1.35902e-07
1.45742e-06
1.25723e-07
1.51876e-06
1.15842e-07
1.57599e-06
1.06674e-07
1.62933e-06
9.82873e-08
1.67903e-06
9.06696e-08
1.72538e-06
8.37869e-08
1.76864e-06
7.75806e-08
1.80908e-06
7.19823e-08
1.84692e-06
6.69246e-08
1.88239e-06
6.23472e-08
1.91571e-06
5.81706e-08
5.44713e-08
1.94706e-06
5.69278e-07
8.45257e-08
6.5921e-07
6.83127e-08
7.41327e-07
8.22088e-08
8.21891e-07
7.49865e-08
8.97475e-07
7.00842e-08
9.67716e-07
6.56615e-08
1.03292e-06
6.05224e-08
1.09328e-06
5.5475e-08
1.14909e-06
5.08699e-08
1.20068e-06
4.66969e-08
1.24842e-06
4.29275e-08
1.29267e-06
3.95414e-08
1.33374e-06
3.65051e-08
1.37194e-06
3.3779e-08
1.40754e-06
3.13252e-08
1.44078e-06
2.91152e-08
1.47187e-06
2.7076e-08
2.52551e-08
1.50109e-06
2.2245e-07
2.90762e-07
3.72971e-07
4.47958e-07
5.18042e-07
5.83703e-07
6.44226e-07
6.99701e-07
7.50571e-07
7.97268e-07
8.40195e-07
8.79736e-07
9.16242e-07
9.50021e-07
9.81346e-07
1.01046e-06
1.03754e-06
1.06279e-06
4.39586e-08
-4.39586e-08
1.22544e-07
-7.85854e-08
2.06278e-07
-8.37343e-08
2.83004e-07
-7.67259e-08
3.47588e-07
-6.45834e-08
3.97848e-07
-5.02607e-08
4.32987e-07
-3.51383e-08
4.52845e-07
-1.98583e-08
4.57816e-07
-4.97085e-09
4.47356e-07
1.04602e-08
4.23105e-07
2.4251e-08
3.87896e-07
3.52086e-08
3.44643e-07
4.32531e-08
2.95596e-07
4.90468e-08
2.42198e-07
5.3398e-08
1.84703e-07
5.74946e-08
1.22223e-07
6.24806e-08
5.3003e-08
6.92197e-08
-2.50744e-08
7.80774e-08
-1.1415e-07
8.9076e-08
-2.15607e-07
1.01457e-07
-3.29583e-07
1.13976e-07
-4.55052e-07
1.25469e-07
-5.89965e-07
1.34913e-07
-7.31613e-07
1.41648e-07
-8.77009e-07
1.45396e-07
-1.02321e-06
1.46199e-07
-1.16754e-06
1.44331e-07
-1.30776e-06
1.40217e-07
-1.44211e-06
1.3435e-07
-1.56934e-06
1.27238e-07
-1.6887e-06
1.19352e-07
-1.7998e-06
1.11103e-07
-1.90262e-06
1.02826e-07
-1.9974e-06
9.47759e-08
-2.08454e-06
8.71347e-08
-2.16455e-06
8.00181e-08
-2.23804e-06
7.34884e-08
-2.30561e-06
6.75667e-08
-2.36785e-06
6.2244e-08
-2.42534e-06
5.74906e-08
-2.47861e-06
5.32647e-08
-2.52813e-06
4.95176e-08
-2.57432e-06
4.61988e-08
-2.61758e-06
4.32583e-08
-2.65823e-06
4.0649e-08
-2.69656e-06
3.83274e-08
-2.73281e-06
3.62543e-08
-2.76721e-06
3.43946e-08
-2.79993e-06
3.27175e-08
-2.83112e-06
3.11957e-08
-2.86093e-06
2.98056e-08
-2.88945e-06
2.85262e-08
-2.91679e-06
2.73394e-08
-2.94302e-06
2.6229e-08
-2.9682e-06
2.51809e-08
-2.99238e-06
2.41824e-08
-3.01561e-06
2.32219e-08
-3.0379e-06
2.22892e-08
-3.05927e-06
2.13746e-08
-3.07974e-06
2.04692e-08
-3.0993e-06
1.95643e-08
-3.11796e-06
1.86518e-08
-3.13568e-06
1.77232e-08
-3.15245e-06
1.67704e-08
-3.16823e-06
1.57848e-08
-3.18299e-06
1.47575e-08
-3.19667e-06
1.3679e-08
-3.20921e-06
1.25391e-08
-3.22054e-06
1.13266e-08
-3.23056e-06
1.00285e-08
-3.23919e-06
8.63057e-09
-3.24631e-06
7.11798e-09
-3.25179e-06
5.47478e-09
-3.25548e-06
3.69015e-09
-3.25725e-06
1.7731e-09
-3.25706e-06
-1.91881e-10
-3.25508e-06
-1.98187e-09
-3.25127e-06
-3.80986e-09
-3.24557e-06
-5.69734e-09
-3.23789e-06
-7.68072e-09
-3.22811e-06
-9.7788e-09
-3.21611e-06
-1.20036e-08
-3.20174e-06
-1.43644e-08
-3.18487e-06
-1.68697e-08
-3.16535e-06
-1.95274e-08
-3.143e-06
-2.23452e-08
-3.11767e-06
-2.5331e-08
-3.08918e-06
-2.84924e-08
-3.05734e-06
-3.18368e-08
-3.02197e-06
-3.53717e-08
-2.98286e-06
-3.9104e-08
-2.93982e-06
-4.30401e-08
-2.89264e-06
-4.71858e-08
-2.84109e-06
-5.15462e-08
-2.78497e-06
-5.61254e-08
-2.72404e-06
-6.0926e-08
-2.65809e-06
-6.59496e-08
-2.5869e-06
-7.11955e-08
-2.51023e-06
-7.66613e-08
-2.42789e-06
-8.23417e-08
-2.33966e-06
-8.8229e-08
-2.24535e-06
-9.43118e-08
-2.14478e-06
-1.00575e-07
-2.03778e-06
-1.07e-07
-1.92421e-06
-1.13563e-07
-1.80398e-06
-1.20235e-07
-1.67699e-06
-1.26983e-07
-1.54323e-06
-1.33766e-07
-1.40269e-06
-1.40539e-07
-1.25544e-06
-1.4725e-07
-1.1016e-06
-1.53843e-07
-9.41342e-07
-1.60254e-07
-7.7493e-07
-1.66412e-07
-6.02696e-07
-1.72234e-07
-4.25086e-07
-1.7761e-07
-2.42695e-07
-1.82391e-07
-5.62914e-08
-1.86404e-07
1.33726e-07
-1.90018e-07
3.26887e-07
-1.93161e-07
5.22275e-07
-1.95389e-07
7.19077e-07
-1.96802e-07
9.1645e-07
-1.97373e-07
1.11352e-06
-1.9707e-07
1.30939e-06
-1.95871e-07
1.50316e-06
-1.93766e-07
1.69392e-06
-1.90762e-07
1.8808e-06
-1.86878e-07
2.06294e-06
-1.82148e-07
2.23956e-06
-1.76618e-07
2.40991e-06
-1.70343e-07
2.57329e-06
-1.63387e-07
2.72911e-06
-1.55819e-07
2.87682e-06
-1.47712e-07
3.01597e-06
-1.39143e-07
3.14615e-06
-1.30187e-07
3.26707e-06
-1.20917e-07
3.37848e-06
-1.11406e-07
3.4802e-06
-1.01719e-07
3.57211e-06
-9.19181e-08
3.65417e-06
-8.20589e-08
3.72636e-06
-7.21921e-08
3.78872e-06
-6.23604e-08
3.8413e-06
-5.25737e-08
3.88412e-06
-4.28199e-08
3.91734e-06
-3.32172e-08
3.94084e-06
-2.35061e-08
3.9526e-06
-1.17542e-08
3.94903e-06
3.56442e-09
3.93016e-06
1.88761e-08
3.89803e-06
3.21206e-08
3.8544e-06
4.3636e-08
3.80065e-06
5.37518e-08
3.73799e-06
6.26584e-08
3.66758e-06
7.04038e-08
3.59062e-06
7.69668e-08
3.50834e-06
8.22815e-08
3.42206e-06
8.62795e-08
3.33313e-06
8.8923e-08
3.24291e-06
9.02248e-08
3.15265e-06
9.0258e-08
3.0635e-06
8.91532e-08
2.97641e-06
8.70854e-08
2.89216e-06
8.4255e-08
2.81129e-06
8.08675e-08
2.73417e-06
7.71187e-08
2.66099e-06
7.31859e-08
2.59176e-06
6.92276e-08
2.52637e-06
6.53901e-08
2.46455e-06
6.18179e-08
2.40588e-06
5.867e-08
2.34974e-06
5.61411e-08
2.29528e-06
5.44568e-08
2.24152e-06
5.37612e-08
2.18713e-06
5.43875e-08
2.12985e-06
5.72836e-08
2.06548e-06
6.43737e-08
1.98772e-06
7.7757e-08
1.87953e-06
1.0819e-07
1.47335e-07
1.73219e-06
8.29503e-08
-1.26909e-07
1.57086e-07
-1.52721e-07
2.08458e-07
-1.35107e-07
2.42416e-07
-1.10684e-07
2.62952e-07
-8.51194e-08
2.72267e-07
-5.95759e-08
2.71581e-07
-3.44517e-08
2.61663e-07
-9.94095e-09
2.42824e-07
1.38685e-08
2.1633e-07
3.69543e-08
1.8151e-07
5.90709e-08
1.36985e-07
7.97338e-08
8.15943e-08
9.86438e-08
1.46376e-08
1.16003e-07
-6.44758e-08
1.32511e-07
-1.56151e-07
1.4917e-07
-2.60551e-07
1.66881e-07
-3.77327e-07
1.85995e-07
-5.05353e-07
2.06104e-07
-6.42417e-07
2.2614e-07
-7.85603e-07
2.44643e-07
-9.31726e-07
2.60099e-07
-1.07753e-06
2.71269e-07
-1.22003e-06
2.77418e-07
-1.35676e-06
2.78379e-07
-1.48585e-06
2.74482e-07
-1.60606e-06
2.66415e-07
-1.7168e-06
2.55064e-07
-1.81795e-06
2.41375e-07
-1.90985e-06
2.26249e-07
-1.99309e-06
2.10477e-07
-2.06844e-06
1.94698e-07
-2.13673e-06
1.79395e-07
-2.19881e-06
1.64906e-07
-2.25547e-06
1.51438e-07
-2.30744e-06
1.39099e-07
-2.35534e-06
1.27919e-07
-2.39972e-06
1.17871e-07
-2.44105e-06
1.08895e-07
-2.47971e-06
1.00907e-07
-2.51603e-06
9.38126e-08
-2.55029e-06
8.75172e-08
-2.5827e-06
8.19271e-08
-2.61345e-06
7.69544e-08
-2.64271e-06
7.25188e-08
-2.67061e-06
6.85479e-08
-2.69726e-06
6.49773e-08
-2.72276e-06
6.17501e-08
-2.74718e-06
5.88164e-08
-2.77059e-06
5.61324e-08
-2.79306e-06
5.36597e-08
-2.81462e-06
5.13647e-08
-2.83531e-06
4.92179e-08
-2.85516e-06
4.7193e-08
-2.8742e-06
4.52668e-08
-2.89244e-06
4.34184e-08
-2.90988e-06
4.1629e-08
-2.92654e-06
3.98815e-08
-2.94241e-06
3.81601e-08
-2.95749e-06
3.64501e-08
-2.97176e-06
3.47377e-08
-2.9852e-06
3.30097e-08
-2.99781e-06
3.12537e-08
-3.00954e-06
2.94573e-08
-3.02038e-06
2.76086e-08
-3.03029e-06
2.56959e-08
-3.03924e-06
2.37073e-08
-3.04719e-06
2.16316e-08
-3.05411e-06
1.94576e-08
-3.05996e-06
1.71746e-08
-3.0647e-06
1.47727e-08
-3.06831e-06
1.22435e-08
-3.07078e-06
9.58162e-09
-3.07209e-06
6.78635e-09
-3.07226e-06
3.86127e-09
-3.07135e-06
8.61521e-10
-3.0692e-06
-2.34201e-09
-3.06554e-06
-5.64321e-09
-3.06019e-06
-9.15312e-09
-3.05301e-06
-1.28776e-08
-3.04387e-06
-1.68302e-08
-3.03262e-06
-2.10268e-08
-3.01914e-06
-2.5483e-08
-3.00329e-06
-3.02142e-08
-2.98492e-06
-3.52358e-08
-2.96389e-06
-4.05628e-08
-2.94002e-06
-4.62103e-08
-2.91316e-06
-5.21934e-08
-2.88312e-06
-5.8527e-08
-2.84974e-06
-6.52255e-08
-2.8128e-06
-7.2303e-08
-2.77214e-06
-7.9773e-08
-2.72753e-06
-8.76476e-08
-2.67878e-06
-9.5938e-08
-2.62567e-06
-1.04653e-07
-2.56799e-06
-1.13802e-07
-2.50553e-06
-1.23387e-07
-2.43807e-06
-1.33412e-07
-2.36539e-06
-1.43875e-07
-2.28728e-06
-1.54769e-07
-2.20354e-06
-1.66084e-07
-2.11396e-06
-1.77804e-07
-2.01837e-06
-1.89905e-07
-1.91659e-06
-2.02357e-07
-1.80847e-06
-2.15121e-07
-1.69388e-06
-2.2815e-07
-1.57273e-06
-2.41385e-07
-1.44496e-06
-2.54759e-07
-1.31053e-06
-2.68192e-07
-1.16947e-06
-2.81594e-07
-1.02186e-06
-2.94862e-07
-8.67826e-07
-3.07881e-07
-7.07555e-07
-3.20526e-07
-5.41309e-07
-3.32658e-07
-3.69418e-07
-3.44125e-07
-1.92268e-07
-3.5476e-07
-1.02466e-08
-3.64412e-07
1.76306e-07
-3.72956e-07
3.66618e-07
-3.80329e-07
5.5984e-07
-3.86383e-07
7.55377e-07
-3.90926e-07
9.52456e-07
-3.9388e-07
1.15025e-06
-3.95169e-07
1.34791e-06
-3.94725e-07
1.54454e-06
-3.92505e-07
1.73927e-06
-3.88495e-07
1.93121e-06
-3.82707e-07
2.11952e-06
-3.75184e-07
2.30336e-06
-3.65991e-07
2.48196e-06
-3.55219e-07
2.6546e-06
-3.42976e-07
2.8206e-06
-3.29387e-07
2.97937e-06
-3.14589e-07
3.13038e-06
-2.98726e-07
3.27318e-06
-2.81947e-07
3.4074e-06
-2.644e-07
3.53271e-06
-2.46231e-07
3.64888e-06
-2.27577e-07
3.75574e-06
-2.08571e-07
3.85315e-06
-1.89334e-07
3.94107e-06
-1.69976e-07
4.01947e-06
-1.50593e-07
4.08838e-06
-1.31267e-07
4.14785e-06
-1.12049e-07
4.198e-06
-9.29671e-08
4.23886e-06
-7.40778e-08
4.27064e-06
-5.5282e-08
4.29505e-06
-3.61658e-08
4.31457e-06
-1.59581e-08
4.32864e-06
4.80594e-09
4.3354e-06
2.53583e-08
4.33389e-06
4.51495e-08
4.32367e-06
6.39713e-08
4.30462e-06
8.17114e-08
4.27677e-06
9.82542e-08
4.24027e-06
1.13465e-07
4.19538e-06
1.27174e-07
4.14246e-06
1.39193e-07
4.08204e-06
1.49341e-07
4.0148e-06
1.57467e-07
3.94158e-06
1.63476e-07
3.86339e-06
1.67343e-07
3.78136e-06
1.69119e-07
3.69669e-06
1.68924e-07
3.61062e-06
1.66938e-07
3.52436e-06
1.63382e-07
3.43903e-06
1.5851e-07
3.35566e-06
1.526e-07
3.2751e-06
1.45953e-07
3.19802e-06
1.38899e-07
3.12487e-06
1.31816e-07
3.05587e-06
1.25146e-07
2.99094e-06
1.19382e-07
2.92973e-06
1.14972e-07
2.87154e-06
1.12575e-07
2.81542e-06
1.13407e-07
2.75967e-06
1.20124e-07
2.70214e-06
1.35285e-07
2.63792e-06
1.72417e-07
2.29169e-07
2.55608e-06
6.44451e-08
-1.91354e-07
9.74517e-08
-1.85728e-07
1.12218e-07
-1.49873e-07
1.15804e-07
-1.1427e-07
1.10726e-07
-8.00413e-08
9.79149e-08
-4.67645e-08
7.76506e-08
-1.41875e-08
4.98865e-08
1.78231e-08
1.43914e-08
4.93635e-08
-2.91382e-08
8.0484e-08
-8.11934e-08
1.11126e-07
-1.42565e-07
1.41106e-07
-2.14193e-07
1.70271e-07
-2.96844e-07
1.98655e-07
-3.90805e-07
2.26472e-07
-4.9556e-07
2.53924e-07
-6.09605e-07
2.80927e-07
-7.30507e-07
3.06897e-07
-8.55154e-07
3.30751e-07
-9.80147e-07
3.51132e-07
-1.10224e-06
3.66733e-07
-1.21874e-06
3.76601e-07
-1.32778e-06
3.80308e-07
-1.42835e-06
3.77988e-07
-1.52021e-06
3.7024e-07
-1.60371e-06
3.57979e-07
-1.67956e-06
3.42266e-07
-1.74867e-06
3.24172e-07
-1.81197e-06
3.04683e-07
-1.87036e-06
2.84638e-07
-1.9246e-06
2.64711e-07
-1.9753e-06
2.45405e-07
-2.02298e-06
2.27072e-07
-2.06801e-06
2.09933e-07
-2.11068e-06
1.94107e-07
-2.15121e-06
1.7963e-07
-2.18977e-06
1.66483e-07
-2.22651e-06
1.54609e-07
-2.26154e-06
1.43922e-07
-2.29496e-06
1.34327e-07
-2.32686e-06
1.25719e-07
-2.35734e-06
1.17997e-07
-2.38648e-06
1.11062e-07
-2.41435e-06
1.04822e-07
-2.44102e-06
9.91913e-08
-2.46656e-06
9.40933e-08
-2.49104e-06
8.94583e-08
-2.51452e-06
8.52239e-08
-2.53704e-06
8.13349e-08
-2.55865e-06
7.77419e-08
-2.57939e-06
7.44008e-08
-2.5993e-06
7.12725e-08
-2.6184e-06
6.83221e-08
-2.63672e-06
6.5518e-08
-2.65429e-06
6.28319e-08
-2.67111e-06
6.02379e-08
-2.68719e-06
5.77125e-08
-2.70255e-06
5.5234e-08
-2.71717e-06
5.27823e-08
-2.73106e-06
5.03384e-08
-2.7442e-06
4.78845e-08
-2.7566e-06
4.54036e-08
-2.76822e-06
4.28794e-08
-2.77906e-06
4.02963e-08
-2.78909e-06
3.76388e-08
-2.79829e-06
3.4892e-08
-2.80662e-06
3.20414e-08
-2.81406e-06
2.90729e-08
-2.82058e-06
2.59726e-08
-2.82613e-06
2.27276e-08
-2.83068e-06
1.93255e-08
-2.83419e-06
1.57547e-08
-2.83662e-06
1.20047e-08
-2.8379e-06
8.0658e-09
-2.83796e-06
3.92814e-09
-2.83668e-06
-4.20065e-10
-2.834e-06
-5.02633e-09
-2.82974e-06
-9.90597e-09
-2.8238e-06
-1.50922e-08
-2.81607e-06
-2.06075e-08
-2.80643e-06
-2.64715e-08
-2.79475e-06
-3.27045e-08
-2.7809e-06
-3.93279e-08
-2.76475e-06
-4.63632e-08
-2.74616e-06
-5.38325e-08
-2.72496e-06
-6.17581e-08
-2.70101e-06
-7.0162e-08
-2.67414e-06
-7.90665e-08
-2.64417e-06
-8.84935e-08
-2.61093e-06
-9.84644e-08
-2.57423e-06
-1.09e-07
-2.53389e-06
-1.20119e-07
-2.48969e-06
-1.31841e-07
-2.44145e-06
-1.44181e-07
-2.38895e-06
-1.57153e-07
-2.33199e-06
-1.70768e-07
-2.27034e-06
-1.85032e-07
-2.2038e-06
-1.99948e-07
-2.13217e-06
-2.15513e-07
-2.05522e-06
-2.31717e-07
-1.97276e-06
-2.48545e-07
-1.88459e-06
-2.6597e-07
-1.79054e-06
-2.83957e-07
-1.69043e-06
-3.02462e-07
-1.58413e-06
-3.21426e-07
-1.4715e-06
-3.40778e-07
-1.35245e-06
-3.60431e-07
-1.22693e-06
-3.80283e-07
-1.09491e-06
-4.00217e-07
-9.56404e-07
-4.20096e-07
-8.11497e-07
-4.39769e-07
-6.60312e-07
-4.59065e-07
-5.03036e-07
-4.77802e-07
-3.39916e-07
-4.95778e-07
-1.71253e-07
-5.12788e-07
2.60934e-09
-5.28622e-07
1.81268e-07
-5.43071e-07
3.64247e-07
-5.55936e-07
5.50926e-07
-5.67007e-07
7.40597e-07
-5.76054e-07
9.32556e-07
-5.82884e-07
1.12603e-06
-5.87352e-07
1.32019e-06
-5.89333e-07
1.5142e-06
-5.88735e-07
1.70719e-06
-5.85499e-07
1.89831e-06
-5.79607e-07
2.08668e-06
-5.71082e-07
2.27149e-06
-5.59988e-07
2.45192e-06
-5.46423e-07
2.62722e-06
-5.30523e-07
2.7967e-06
-5.1245e-07
2.9597e-06
-4.92388e-07
3.11565e-06
-4.70541e-07
3.26405e-06
-4.47123e-07
3.40445e-06
-4.22353e-07
3.5365e-06
-3.9645e-07
3.6599e-06
-3.69629e-07
3.77442e-06
-3.42098e-07
3.8799e-06
-3.14048e-07
3.97622e-06
-2.85661e-07
4.06335e-06
-2.57099e-07
4.14126e-06
-2.28506e-07
4.21e-06
-2.00005e-07
4.26964e-06
-1.7169e-07
4.3203e-06
-1.43633e-07
4.36211e-06
-1.15886e-07
4.39526e-06
-8.84275e-08
4.4203e-06
-6.12039e-08
4.43834e-06
-3.39975e-08
4.44996e-06
-6.81494e-09
4.45518e-06
2.01366e-08
4.45386e-06
4.64726e-08
4.44586e-06
7.19675e-08
4.43115e-06
9.64237e-08
4.40974e-06
1.19666e-07
4.38168e-06
1.41515e-07
4.34709e-06
1.6177e-07
4.30607e-06
1.80211e-07
4.25881e-06
1.96605e-07
4.20554e-06
2.1073e-07
4.14663e-06
2.22387e-07
4.08255e-06
2.31425e-07
4.01392e-06
2.37751e-07
3.9415e-06
2.41342e-07
3.86619e-06
2.42248e-07
3.78898e-06
2.40592e-07
3.71092e-06
2.36571e-07
3.63306e-06
2.30458e-07
3.55641e-06
2.22604e-07
3.48186e-06
2.13447e-07
3.41016e-06
2.03521e-07
3.34183e-06
1.93473e-07
3.27717e-06
1.84045e-07
3.21612e-06
1.76023e-07
3.15825e-06
1.70445e-07
3.1028e-06
1.68856e-07
3.04875e-06
1.7417e-07
2.99454e-06
1.89494e-07
2.94104e-06
2.25922e-07
2.83609e-07
2.8866e-06
2.15383e-08
-2.12892e-07
1.60171e-08
-1.80207e-07
3.34185e-09
-1.37198e-07
-1.4451e-08
-9.64768e-08
-3.74553e-08
-5.70369e-08
-6.60243e-08
-1.81955e-08
-1.0062e-07
2.04078e-08
-1.41758e-07
5.89611e-08
-1.89935e-07
9.75414e-08
-2.4557e-07
1.36118e-07
-3.0898e-07
1.74536e-07
-3.80403e-07
2.12528e-07
-4.59899e-07
2.49768e-07
-5.47153e-07
2.8591e-07
-6.41242e-07
3.20561e-07
-7.40501e-07
3.53183e-07
-8.42582e-07
3.83008e-07
-9.44721e-07
4.09036e-07
-1.04415e-06
4.30181e-07
-1.13851e-06
4.45488e-07
-1.22613e-06
4.54355e-07
-1.30618e-06
4.56657e-07
-1.37862e-06
4.52744e-07
-1.44398e-06
4.43351e-07
-1.50319e-06
4.29445e-07
-1.5573e-06
4.12087e-07
-1.60735e-06
3.92315e-07
-1.65424e-06
3.71067e-07
-1.69871e-06
3.49147e-07
-1.74127e-06
3.27202e-07
-1.78229e-06
3.05733e-07
-1.82199e-06
2.85104e-07
-1.86048e-06
2.65566e-07
-1.89782e-06
2.4727e-07
-1.93401e-06
2.30295e-07
-1.96904e-06
2.14658e-07
-2.00289e-06
2.00334e-07
-2.03555e-06
1.87268e-07
-2.06701e-06
1.75385e-07
-2.09728e-06
1.64599e-07
-2.12638e-06
1.54816e-07
-2.15432e-06
1.45944e-07
-2.18115e-06
1.3789e-07
-2.2069e-06
1.30569e-07
-2.2316e-06
1.23897e-07
-2.25531e-06
1.17801e-07
-2.27806e-06
1.12209e-07
-2.2999e-06
1.07058e-07
-2.32085e-06
1.02292e-07
-2.34097e-06
9.7857e-08
-2.36027e-06
9.3707e-08
-2.3788e-06
8.97987e-08
-2.39657e-06
8.60932e-08
-2.41361e-06
8.25551e-08
-2.42993e-06
7.9152e-08
-2.44555e-06
7.5854e-08
-2.46047e-06
7.26334e-08
-2.4747e-06
6.94647e-08
-2.48824e-06
6.63238e-08
-2.50109e-06
6.3188e-08
-2.51324e-06
6.00355e-08
-2.52468e-06
5.68459e-08
-2.5354e-06
5.35991e-08
-2.54538e-06
5.02758e-08
-2.5546e-06
4.6857e-08
-2.56303e-06
4.33241e-08
-2.57065e-06
3.9659e-08
-2.57742e-06
3.58433e-08
-2.58331e-06
3.18594e-08
-2.58827e-06
2.76894e-08
-2.59226e-06
2.33154e-08
-2.59522e-06
1.87194e-08
-2.5971e-06
1.38826e-08
-2.59782e-06
8.78527e-09
-2.5973e-06
3.4051e-09
-2.59543e-06
-2.28581e-09
-2.59214e-06
-8.32107e-09
-2.58731e-06
-1.4732e-08
-2.58085e-06
-2.15497e-08
-2.57266e-06
-2.88026e-08
-2.56261e-06
-3.65176e-08
-2.55059e-06
-4.47219e-08
-2.53648e-06
-5.34436e-08
-2.52013e-06
-6.2711e-08
-2.50141e-06
-7.25531e-08
-2.48017e-06
-8.2999e-08
-2.45625e-06
-9.40781e-08
-2.4295e-06
-1.05819e-07
-2.39974e-06
-1.18252e-07
-2.3668e-06
-1.31405e-07
-2.3305e-06
-1.45304e-07
-2.29064e-06
-1.59975e-07
-2.24704e-06
-1.75443e-07
-2.19949e-06
-1.91729e-07
-2.1478e-06
-2.08849e-07
-2.09175e-06
-2.26819e-07
-2.03113e-06
-2.45647e-07
-1.96574e-06
-2.65335e-07
-1.89538e-06
-2.85881e-07
-1.81982e-06
-3.07271e-07
-1.73888e-06
-3.29482e-07
-1.65237e-06
-3.52482e-07
-1.5601e-06
-3.76224e-07
-1.46192e-06
-4.00647e-07
-1.35767e-06
-4.25674e-07
-1.24724e-06
-4.5121e-07
-1.13053e-06
-4.77141e-07
-1.00748e-06
-5.03332e-07
-8.7807e-07
-5.29627e-07
-7.42319e-07
-5.55847e-07
-6.00298e-07