/*--------------------------------*- C++ -*----------------------------------*\
| =========                 |                                                 |
| \\      /  F ield         | OpenFOAM: The Open Source CFD Toolbox           |
|  \\    /   O peration     | Version:  2412                                  |
|   \\  /    A nd           | Website:  www.openfoam.com                      |
|    \\/     M anipulation  |                                                 |
\*---------------------------------------------------------------------------*/
FoamFile
{
    version     2.0;
    format      ascii;
    arch        "LSB;label=32;scalar=64";
    class       volVectorField;
    location    "0.05";
    object      U;
}
// * * * * * * * * * * * * * * * * * * * * * * * * * * * * * * * * * * * * * //

dimensions      [0 1 -1 0 0 0 0];

internalField   nonuniform List<vector> 
12225
(
(0.377225 -0.200916 0)
(0.543898 -0.0518773 0)
(0.710493 -0.0339067 0)
(0.892652 -0.030317 0)
(1.05675 -0.0295389 0)
(1.20524 -0.0281985 0)
(1.3411 -0.02622 0)
(1.46375 -0.024234 0)
(1.57369 -0.0223818 0)
(1.67219 -0.0206464 0)
(1.76043 -0.019025 0)
(1.83939 -0.0175101 0)
(1.90989 -0.0160821 0)
(1.97267 -0.0147053 0)
(2.02814 -0.0133732 0)
(2.07735 -0.0119757 0)
(2.11729 -0.0103234 0)
(2.16554 -0.0136958 0)
(0.933531 -0.03177 0)
(1.05654 -0.0585939 0)
(1.23593 -0.0686663 0)
(1.42 -0.0641369 0)
(1.58285 -0.0613558 0)
(1.73038 -0.0584039 0)
(1.86571 -0.0548972 0)
(1.98865 -0.0514048 0)
(2.0997 -0.0480563 0)
(2.19991 -0.0448584 0)
(2.29027 -0.0418257 0)
(2.37164 -0.0389452 0)
(2.44475 -0.0361795 0)
(2.51026 -0.0334637 0)
(2.56864 -0.030773 0)
(2.62034 -0.0277901 0)
(2.66509 -0.02552 0)
(2.70444 -0.0179613 0)
(1.39963 -0.0846575 0)
(1.49155 -0.105475 0)
(1.65382 -0.106841 0)
(1.82088 -0.101358 0)
(1.9698 -0.0972245 0)
(2.10611 -0.0927089 0)
(2.23187 -0.0876197 0)
(2.34679 -0.0824976 0)
(2.45124 -0.0775139 0)
(2.546 -0.0727138 0)
(2.63183 -0.0681229 0)
(2.70942 -0.0637241 0)
(2.7794 -0.0594646 0)
(2.84232 -0.0552566 0)
(2.8986 -0.0510162 0)
(2.94848 -0.0464588 0)
(2.9921 -0.0418851 0)
(3.02824 -0.0341235 0)
(1.8974 -0.115368 0)
(1.94592 -0.142995 0)
(2.07426 -0.144393 0)
(2.21561 -0.139906 0)
(2.34494 -0.134655 0)
(2.46527 -0.128661 0)
(2.57742 -0.122053 0)
(2.68073 -0.115305 0)
(2.77528 -0.108652 0)
(2.86157 -0.102195 0)
(2.9401 -0.0959766 0)
(3.01138 -0.0899796 0)
(3.07589 -0.0841408 0)
(3.13406 -0.0783508 0)
(3.18625 -0.0724755 0)
(3.23258 -0.0662023 0)
(3.27344 -0.0594419 0)
(3.30683 -0.0493886 0)
(2.43106 -0.125727 0)
(2.44014 -0.169446 0)
(2.52777 -0.1766 0)
(2.63803 -0.175001 0)
(2.74361 -0.169708 0)
(2.84438 -0.16286 0)
(2.93987 -0.15516 0)
(3.02885 -0.147111 0)
(3.11106 -0.139039 0)
(3.18663 -0.131117 0)
(3.25583 -0.123416 0)
(3.31894 -0.115932 0)
(3.37629 -0.108598 0)
(3.42817 -0.101294 0)
(3.47487 -0.0938452 0)
(3.51643 -0.0859152 0)
(3.55354 -0.0771621 0)
(3.58374 -0.0653097 0)
(2.9968 -0.123523 0)
(2.97657 -0.18477 0)
(3.02358 -0.200399 0)
(3.09993 -0.203439 0)
(3.17876 -0.199616 0)
(3.25716 -0.192857 0)
(3.33346 -0.184713 0)
(3.40587 -0.175876 0)
(3.47365 -0.166802 0)
(3.53661 -0.157752 0)
(3.59473 -0.148848 0)
(3.64807 -0.140108 0)
(3.69679 -0.131479 0)
(3.74105 -0.122835 0)
(3.78105 -0.113985 0)
(3.8168 -0.104592 0)
(3.84915 -0.0942146 0)
(3.87531 -0.081172 0)
(3.58829 -0.114282 0)
(3.55047 -0.18981 0)
(3.56204 -0.214555 0)
(3.6046 -0.223427 0)
(3.65529 -0.222572 0)
(3.70948 -0.216983 0)
(3.76475 -0.209168 0)
(3.8188 -0.200163 0)
(3.87047 -0.190594 0)
(3.91922 -0.18084 0)
(3.96476 -0.171089 0)
(4.00695 -0.1614 0)
(4.04576 -0.151743 0)
(4.08122 -0.142005 0)
(4.11344 -0.131998 0)
(4.14238 -0.121414 0)
(4.16903 -0.109824 0)
(4.19016 -0.096062 0)
(4.19877 -0.101468 0)
(4.15354 -0.186108 0)
(4.138 -0.219062 0)
(4.14994 -0.234004 0)
(4.17315 -0.237184 0)
(4.20271 -0.23379 0)
(4.23603 -0.227112 0)
(4.27063 -0.218612 0)
(4.30503 -0.209119 0)
(4.33839 -0.199144 0)
(4.3702 -0.188963 0)
(4.40013 -0.17869 0)
(4.42797 -0.168332 0)
(4.45363 -0.157804 0)
(4.47714 -0.146944 0)
(4.49839 -0.135496 0)
(4.51842 -0.123104 0)
(4.53356 -0.10901 0)
(4.82182 -0.087434 0)
(4.7762 -0.175699 0)
(4.74271 -0.214864 0)
(4.72965 -0.235068 0)
(4.72822 -0.2426 0)
(4.73445 -0.242122 0)
(4.74618 -0.237284 0)
(4.76118 -0.229934 0)
(4.77788 -0.221095 0)
(4.79527 -0.211412 0)
(4.81267 -0.201255 0)
(4.82961 -0.190808 0)
(4.84574 -0.180123 0)
(4.86088 -0.16916 0)
(4.87495 -0.157798 0)
(4.8878 -0.145848 0)
(4.90045 -0.133059 0)
(4.90876 -0.118979 0)
(5.45143 -0.0736555 0)
(5.40909 -0.160612 0)
(5.36566 -0.20349 0)
(5.33431 -0.227395 0)
(5.31281 -0.238758 0)
(5.29874 -0.241393 0)
(5.29073 -0.238822 0)
(5.28719 -0.23311 0)
(5.28672 -0.225426 0)
(5.28834 -0.216514 0)
(5.2913 -0.20683 0)
(5.29505 -0.196627 0)
(5.29919 -0.186011 0)
(5.30344 -0.174993 0)
(5.30766 -0.163507 0)
(5.31165 -0.151434 0)
(5.31638 -0.13864 0)
(5.31725 -0.124887 0)
(6.08164 -0.0608603 0)
(6.04372 -0.142543 0)
(5.99602 -0.186604 0)
(5.95277 -0.21239 0)
(5.91659 -0.226446 0)
(5.88654 -0.231805 0)
(5.86205 -0.231508 0)
(5.84228 -0.227636 0)
(5.82627 -0.221414 0)
(5.81324 -0.213628 0)
(5.80252 -0.204789 0)
(5.79358 -0.195201 0)
(5.78601 -0.185027 0)
(5.7795 -0.174324 0)
(5.77387 -0.163084 0)
(5.76888 -0.151259 0)
(5.76548 -0.138817 0)
(5.75862 -0.125678 0)
(6.65458 -0.0499923 0)
(6.62017 -0.124349 0)
(6.57197 -0.167496 0)
(6.52269 -0.193482 0)
(6.47778 -0.208773 0)
(6.43744 -0.215879 0)
(6.40155 -0.217284 0)
(6.3699 -0.21495 0)
(6.34202 -0.210081 0)
(6.31741 -0.20345 0)
(6.29559 -0.195572 0)
(6.27612 -0.18678 0)
(6.25865 -0.177267 0)
(6.2429 -0.167129 0)
(6.22871 -0.156404 0)
(6.21579 -0.1451 0)
(6.2051 -0.133233 0)
(6.19123 -0.12094 0)
(7.2097 -0.0399641 0)
(7.1798 -0.105312 0)
(7.13344 -0.146152 0)
(7.08144 -0.171339 0)
(7.03124 -0.186864 0)
(6.98415 -0.194949 0)
(6.94026 -0.197542 0)
(6.89977 -0.196402 0)
(6.86266 -0.192692 0)
(6.82873 -0.18714 0)
(6.79769 -0.180239 0)
(6.76928 -0.17232 0)
(6.74324 -0.163592 0)
(6.71936 -0.15418 0)
(6.6975 -0.144151 0)
(6.67739 -0.133559 0)
(6.65995 -0.122443 0)
(6.63964 -0.111164 0)
(7.81807 -0.0302844 0)
(7.79303 -0.0837889 0)
(7.75076 -0.119968 0)
(7.69897 -0.142917 0)
(7.64626 -0.157475 0)
(7.59517 -0.165647 0)
(7.54605 -0.168846 0)
(7.49928 -0.168506 0)
(7.45517 -0.165697 0)
(7.41383 -0.161097 0)
(7.37518 -0.155154 0)
(7.33913 -0.148174 0)
(7.30556 -0.140366 0)
(7.27434 -0.131867 0)
(7.24541 -0.122765 0)
(7.21854 -0.11314 0)
(7.19459 -0.103065 0)
(7.16813 -0.0929978 0)
(8.45851 -0.0214109 0)
(8.43861 -0.06114 0)
(8.40255 -0.0899045 0)
(8.35441 -0.108631 0)
(8.30265 -0.120609 0)
(8.2509 -0.127569 0)
(8.19992 -0.130469 0)
(8.15021 -0.130297 0)
(8.10233 -0.127919 0)
(8.05661 -0.123927 0)
(8.0132 -0.118708 0)
(7.9721 -0.112535 0)
(7.93332 -0.1056 0)
(7.89684 -0.0980434 0)
(7.86267 -0.0899633 0)
(7.83062 -0.0814492 0)
(7.80153 -0.0725901 0)
(7.77032 -0.0638732 0)
(9.08862 -0.0133843 0)
(9.07356 -0.0388121 0)
(9.04489 -0.0580069 0)
(9.00358 -0.0704637 0)
(8.95674 -0.0780245 0)
(8.90844 -0.0820522 0)
(8.85978 -0.0832286 0)
(8.81133 -0.0821537 0)
(8.76377 -0.0794081 0)
(8.71766 -0.0754288 0)
(8.67331 -0.0705053 0)
(8.63086 -0.06484 0)
(8.5904 -0.0585855 0)
(8.55199 -0.0518606 0)
(8.51569 -0.0447599 0)
(8.48139 -0.0373741 0)
(8.44983 -0.0297753 0)
(8.41669 -0.0224782 0)
(9.63293 -0.00599253 0)
(9.62152 -0.0175094 0)
(9.5994 -0.0261068 0)
(9.56568 -0.0310185 0)
(9.526 -0.0329991 0)
(9.4843 -0.0328733 0)
(9.4418 -0.0310838 0)
(9.39894 -0.0279618 0)
(9.35635 -0.0238454 0)
(9.31459 -0.0190109 0)
(9.27405 -0.0136452 0)
(9.23493 -0.00787792 0)
(9.19738 -0.00181117 0)
(9.16148 0.0044689 0)
(9.12734 0.0108893 0)
(9.09486 0.0173671 0)
(9.06464 0.0238802 0)
(9.03366 0.0299296 0)
(9.96404 0.00123637 0)
(9.95453 0.00351177 0)
(9.93636 0.00617449 0)
(9.90789 0.00960669 0)
(9.87387 0.0137272 0)
(9.83807 0.0183515 0)
(9.80177 0.0233821 0)
(9.76531 0.0287542 0)
(9.72916 0.0343861 0)
(9.6938 0.0402011 0)
(9.65956 0.0461418 0)
(9.62661 0.0521618 0)
(9.59501 0.0582166 0)
(9.56482 0.0642593 0)
(9.53608 0.0702456 0)
(9.50874 0.0761081 0)
(9.48301 0.0818657 0)
(9.45782 0.0871043 0)
(9.875 0.0085786 0)
(9.86698 0.0250796 0)
(9.85014 0.0396571 0)
(9.82301 0.0520043 0)
(9.79044 0.0625492 0)
(9.75623 0.0717791 0)
(9.72167 0.0799966 0)
(9.68713 0.0874221 0)
(9.65308 0.0942586 0)
(9.62002 0.100667 0)
(9.58827 0.106756 0)
(9.55797 0.11259 0)
(9.52918 0.118208 0)
(9.50192 0.123626 0)
(9.47617 0.128849 0)
(9.45196 0.133848 0)
(9.42901 0.138652 0)
(9.40832 0.142971 0)
(9.2844 0.0169347 0)
(9.2709 0.0492051 0)
(9.24647 0.0761572 0)
(9.21112 0.0973188 0)
(9.17109 0.114051 0)
(9.13035 0.127561 0)
(9.08999 0.138534 0)
(9.0504 0.147517 0)
(9.01212 0.155027 0)
(8.97564 0.16147 0)
(8.9412 0.167122 0)
(8.90888 0.172175 0)
(8.87867 0.176764 0)
(8.85055 0.180986 0)
(8.8244 0.184906 0)
(8.80021 0.188567 0)
(8.77744 0.192009 0)
(8.75812 0.195078 0)
(8.47105 0.0269689 0)
(8.45269 0.0764084 0)
(8.42059 0.114643 0)
(8.37796 0.142839 0)
(8.33271 0.164113 0)
(8.28854 0.180319 0)
(8.24614 0.192494 0)
(8.20583 0.201603 0)
(8.16807 0.208508 0)
(8.13313 0.213839 0)
(8.10104 0.218024 0)
(8.07173 0.221369 0)
(8.04506 0.224105 0)
(8.02087 0.226401 0)
(7.99898 0.22838 0)
(7.97929 0.230137 0)
(7.96125 0.231731 0)
(7.94689 0.233123 0)
(7.51243 0.0392547 0)
(7.48696 0.106675 0)
(7.44746 0.15382 0)
(7.40148 0.186335 0)
(7.35707 0.209661 0)
(7.31636 0.226103 0)
(7.27931 0.237194 0)
(7.246 0.244479 0)
(7.21651 0.249176 0)
(7.1907 0.252088 0)
(7.16829 0.253758 0)
(7.14898 0.254578 0)
(7.13245 0.254832 0)
(7.11842 0.254722 0)
(7.10661 0.254386 0)
(7.0968 0.253932 0)
(7.08847 0.253409 0)
(7.08335 0.252839 0)
(6.48935 0.0548108 0)
(6.45694 0.138659 0)
(6.41403 0.189866 0)
(6.37272 0.222593 0)
(6.33823 0.244516 0)
(6.31011 0.258221 0)
(6.28759 0.265959 0)
(6.27024 0.269816 0)
(6.25747 0.271182 0)
(6.24857 0.270916 0)
(6.24293 0.269599 0)
(6.24 0.267644 0)
(6.23934 0.265335 0)
(6.24055 0.26286 0)
(6.2433 0.260348 0)
(6.24735 0.257884 0)
(6.25224 0.25551 0)
(6.25937 0.253282 0)
(5.45715 0.0738394 0)
(5.41869 0.167865 0)
(5.37981 0.21641 0)
(5.35494 0.245122 0)
(5.34209 0.262368 0)
(5.33743 0.270961 0)
(5.33937 0.273958 0)
(5.34663 0.273693 0)
(5.3578 0.271482 0)
(5.37178 0.268112 0)
(5.38778 0.264114 0)
(5.40521 0.259844 0)
(5.42361 0.255523 0)
(5.44262 0.251291 0)
(5.46197 0.247231 0)
(5.48148 0.243394 0)
(5.50082 0.239797 0)
(5.52111 0.236505 0)
(4.45285 0.095103 0)
(4.41247 0.188441 0)
(4.39163 0.227673 0)
(4.39878 0.24882 0)
(4.41993 0.25901 0)
(4.44827 0.261566 0)
(4.48186 0.25996 0)
(4.51878 0.256209 0)
(4.55733 0.251294 0)
(4.59644 0.245813 0)
(4.63546 0.240161 0)
(4.67398 0.234583 0)
(4.71168 0.229216 0)
(4.74838 0.224135 0)
(4.78397 0.219379 0)
(4.81841 0.214959 0)
(4.85152 0.210875 0)
(4.88424 0.207191 0)
(3.50296 0.114667 0)
(3.47342 0.193652 0)
(3.49025 0.218913 0)
(3.5433 0.230673 0)
(3.60593 0.233754 0)
(3.67125 0.231616 0)
(3.73816 0.227099 0)
(3.80493 0.221471 0)
(3.87012 0.215338 0)
(3.93309 0.209096 0)
(3.99355 0.203003 0)
(4.05137 0.197197 0)
(4.10651 0.191748 0)
(4.15901 0.186684 0)
(4.20894 0.182006 0)
(4.25644 0.177704 0)
(4.30149 0.173762 0)
(4.34493 0.170254 0)
(2.62985 0.123106 0)
(2.63244 0.176874 0)
(2.70281 0.188844 0)
(2.80666 0.192337 0)
(2.91048 0.190731 0)
(3.01058 0.186572 0)
(3.10774 0.18125 0)
(3.20095 0.175412 0)
(3.28936 0.169462 0)
(3.37281 0.163653 0)
(3.45144 0.158133 0)
(3.52545 0.152973 0)
(3.59506 0.148199 0)
(3.66056 0.14381 0)
(3.72221 0.13979 0)
(3.78031 0.136116 0)
(3.83501 0.132764 0)
(3.88707 0.129828 0)
(1.85179 0.10488 0)
(1.90668 0.134734 0)
(2.03124 0.142457 0)
(2.17992 0.141327 0)
(2.31879 0.138095 0)
(2.44772 0.134218 0)
(2.56952 0.129633 0)
(2.68409 0.124751 0)
(2.79106 0.119931 0)
(2.89072 0.11533 0)
(2.98356 0.111018 0)
(3.07011 0.107032 0)
(3.15085 0.103377 0)
(3.22626 0.10004 0)
(3.29678 0.0969978 0)
(3.36285 0.0942277 0)
(3.42477 0.091693 0)
(3.48326 0.0895003 0)
(1.17531 0.041707 0)
(1.28258 0.0662667 0)
(1.43944 0.0893052 0)
(1.61819 0.0896459 0)
(1.78304 0.0868432 0)
(1.93318 0.0840825 0)
(2.07298 0.0807191 0)
(2.20311 0.077134 0)
(2.32347 0.0736733 0)
(2.4346 0.0704218 0)
(2.53737 0.0674047 0)
(2.63256 0.0646376 0)
(2.72084 0.0621172 0)
(2.80287 0.0598268 0)
(2.87924 0.0577458 0)
(2.95048 0.055857 0)
(3.017 0.0540971 0)
(3.07951 0.0525636 0)
(0.469449 0.226513 0)
(0.642442 0.0692321 0)
(0.789514 0.0481747 0)
(0.973813 0.0446296 0)
(1.15152 0.0432572 0)
(1.31282 0.0420255 0)
(1.46199 0.0400503 0)
(1.59999 0.0377901 0)
(1.72661 0.0356246 0)
(1.84258 0.0336273 0)
(1.94906 0.0317938 0)
(2.04706 0.0301223 0)
(2.13744 0.0286063 0)
(2.22097 0.0272329 0)
(2.29834 0.025986 0)
(2.37018 0.0248586 0)
(2.43698 0.0237966 0)
(2.49904 0.0228788 0)
(0.0182041 -0.0169509 -2.95073e-20)
(0.0732641 -0.0721086 2.76755e-20)
(0.144903 -0.0991662 0)
(0.217681 -0.104529 0)
(0.281629 -0.0969977 0)
(0.333271 -0.0826834 -2.38194e-20)
(0.371653 -0.0651421 0)
(0.396499 -0.0461427 0)
(0.408549 -0.0263331 0)
(0.406428 -0.00656219 0)
(0.390537 0.0116583 2.28788e-20)
(0.363568 0.0267848 0)
(0.328207 0.0378638 0)
(0.286753 0.0446728 0)
(0.240929 0.0477861 0)
(0.19157 0.0485477 2.35867e-20)
(0.138428 0.0489071 0)
(0.0802675 0.0509481 0)
(0.0150206 0.0561337 0)
(-0.0592303 0.0649999 0)
(-0.144226 0.0771141 0)
(-0.240892 0.09147 0)
(-0.348749 0.106278 0)
(-0.466314 0.119687 2.04625e-20)
(-0.591336 0.130353 -1.97138e-20)
(-0.721163 0.137546 1.90548e-20)
(-0.853069 0.141073 1.84881e-20)
(-0.984499 0.141141 0)
(-1.11323 0.138226 0)
(-1.23747 0.132945 -1.72854e-20)
(-1.35589 0.125953 -1.70174e-20)
(-1.46758 0.117871 0)
(-1.57206 0.109238 0)
(-1.66915 0.100491 -1.64669e-20)
(-1.75897 0.0919576 0)
(-1.84181 0.0838657 0)
(-1.91808 0.0763571 1.61333e-20)
(-1.98829 0.0695053 0)
(-2.05298 0.0633323 1.5964e-20)
(-2.11269 0.0578239 3.17732e-20)
(-2.16793 0.0529428 0)
(-2.2192 0.0486377 0)
(-2.26695 0.0448514 0)
(-2.31159 0.0415251 0)
(-2.35346 0.0386021 0)
(-2.39289 0.0360296 3.08692e-20)
(-2.43015 0.0337597 3.07095e-20)
(-2.46549 0.0317497 3.05452e-20)
(-2.4991 0.029962 0)
(-2.53117 0.0283639 -3.02011e-20)
(-2.56184 0.0269269 0)
(-2.59124 0.0256266 2.98345e-20)
(-2.61949 0.0244416 2.96421e-20)
(-2.64666 0.0233537 0)
(-2.67284 0.0223467 0)
(-2.69809 0.0214068 0)
(-2.72245 0.0205216 2.88078e-20)
(-2.74597 0.01968 0)
(-2.76867 0.0188721 0)
(-2.79057 0.0180886 0)
(-2.81169 0.0173211 0)
(-2.83202 0.0165612 0)
(-2.85157 0.0158009 0)
(-2.87032 0.0150322 0)
(-2.88824 0.0142466 0)
(-2.90533 0.0134356 -2.6485e-20)
(-2.92153 0.0125903 0)
(-2.9368 0.0117013 0)
(-2.95109 0.010759 2.55419e-20)
(-2.96434 0.00975446 2.52049e-20)
(-2.97648 0.00867913 0)
(-2.9874 0.00752653 -2.44938e-20)
(-2.99702 0.00629591 2.41184e-20)
(-3.00522 0.00499335 0)
(-3.01188 0.00363973 -2.33251e-20)
(-3.01685 0.00228386 0)
(-3.01997 0.000974008 0)
(-3.02135 -0.000268831 2.20051e-20)
(-3.02115 -0.00146386 0)
(-3.01924 -0.00268032 -2.10188e-20)
(-3.01555 -0.00394567 0)
(-3.00998 -0.00527202 1.99383e-20)
(-3.00241 -0.00666661 1.9359e-20)
(-2.9927 -0.00813482 1.87514e-20)
(-2.98073 -0.00968132 3.62279e-20)
(-2.96635 -0.0113105 -3.48894e-20)
(-2.94941 -0.0130268 0)
(-2.92974 -0.0148346 0)
(-2.90718 -0.0167382 0)
(-2.88155 -0.0187419 -2.88209e-20)
(-2.85267 -0.0208502 -2.71038e-20)
(-2.82034 -0.0230672 2.52977e-20)
(-2.78437 -0.0253969 0)
(-2.74456 -0.0278432 -2.1399e-20)
(-2.70068 -0.0304096 -1.92965e-20)
(-2.65253 -0.0330994 -1.70852e-20)
(-2.59988 -0.0359152 0)
(-2.5425 -0.0388591 0)
(-2.48018 -0.0419326 0)
(-2.41268 -0.045136 -7.04957e-21)
(-2.33979 -0.0484689 0)
(-2.26128 -0.0519293 0)
(-2.17695 -0.0555141 -1.86423e-21)
(-2.08659 -0.0592183 0)
(-1.99002 -0.0630351 0)
(-1.88707 -0.0669555 -1.20928e-20)
(-1.77761 -0.0709683 0)
(-1.66152 -0.0750597 0)
(-1.53872 -0.0792129 2.37033e-20)
(-1.40918 -0.0834084 2.78822e-20)
(-1.2729 -0.0876233 0)
(-1.12995 -0.0918305 -3.66891e-20)
(-0.980427 -0.0959974 0)
(-0.824529 -0.10008 4.60599e-20)
(-0.662521 -0.10401 0)
(-0.494781 -0.10766 5.59298e-20)
(-0.321833 -0.110769 6.10264e-20)
(-0.144337 -0.11286 0)
(0.0371704 -0.113425 0)
(0.222455 -0.112817 0)
(0.410829 -0.111698 0)
(0.601468 -0.110203 0)
(0.793553 -0.108337 0)
(0.986255 -0.106104 0)
(1.17872 -0.103513 6.84071e-20)
(1.37006 -0.100576 -6.73405e-20)
(1.55941 -0.0973149 0)
(1.74589 -0.0937536 0)
(1.92864 -0.0899217 0)
(2.10685 -0.085852 0)
(2.27975 -0.0815794 -1.1955e-19)
(2.44661 -0.0771404 0)
(2.60679 -0.0725717 1.12378e-19)
(2.75969 -0.0679098 -1.08741e-19)
(2.90479 -0.0631898 0)
(3.04166 -0.0584447 0)
(3.1699 -0.0537055 0)
(3.28923 -0.0489999 9.47414e-20)
(3.39939 -0.0443527 9.15312e-20)
(3.50022 -0.0397853 0)
(3.5916 -0.0353151 8.56207e-20)
(3.67344 -0.0309584 8.29526e-20)
(3.74574 -0.0267282 -8.04923e-20)
(3.8085 -0.0226126 0)
(3.86172 -0.0185943 0)
(3.90537 -0.0147946 -7.44357e-20)
(3.93973 -0.0110902 0)
(3.96478 -0.00602256 0)
(3.97519 0.000671773 0)
(3.96933 0.00752303 0)
(3.94931 0.0135614 6.90203e-20)
(3.91689 0.0185349 6.8601e-20)
(3.87351 0.0225361 0)
(3.82041 0.0257149 6.83504e-20)
(3.75875 0.0281662 0)
(3.68965 0.0299304 0)
(3.6143 0.0310216 6.91995e-20)
(3.53399 0.0314517 0)
(3.45007 0.0312481 7.03794e-20)
(3.3639 0.0304652 0)
(3.27683 0.0291881 0)
(3.19009 0.0275271 7.27021e-20)
(3.10478 0.0256062 0)
(3.02179 0.0235487 7.4419e-20)
(2.94181 0.0214653 0)
(2.86532 0.0194459 0)
(2.79262 0.017559 0)
(2.72382 0.015855 -7.78015e-20)
(2.6589 0.014373 0)
(2.59767 0.0131499 7.93747e-20)
(2.5398 0.0122299 0)
(2.48476 0.0116759 0)
(2.43183 0.0115448 0)
(2.37992 0.0117918 0)
(2.32808 0.0124271 0)
(2.27436 0.013745 0)
(2.21647 0.0163744 0)
(2.14523 0.020897 -1.72433e-19)
(2.06697 0.031069 0)
(1.89704 0.0414642 0)
(0.0459837 -0.16767 8.4377e-20)
(0.112583 -0.238492 -7.48591e-20)
(0.164925 -0.226875 0)
(0.202169 -0.193354 4.18875e-20)
(0.226372 -0.154077 0)
(0.239654 -0.11369 1.91791e-20)
(0.243533 -0.0739007 -3.7825e-20)
(0.238812 -0.0354423 -3.74749e-20)
(0.225756 0.00138852 0)
(0.206018 0.0358942 -3.71119e-20)
(0.179421 0.0669318 -1.85546e-20)
(0.144513 0.0934491 0)
(0.100215 0.115187 0)
(0.045768 0.132949 0)
(-0.0193834 0.148544 0)
(-0.0956408 0.164443 -1.80387e-20)
(-0.183256 0.182888 0)
(-0.282251 0.205057 3.3147e-20)
(-0.392092 0.230669 0)
(-0.511278 0.258136 0)
(-0.637521 0.28513 -2.95198e-20)
(-0.768051 0.309159 0)
(-0.899895 0.328031 2.75522e-20)
(-1.03019 0.340296 -1.3417e-20)
(-1.15642 0.3454 1.30471e-20)
(-1.27661 0.343585 -1.27374e-20)
(-1.38934 0.335667 -1.2484e-20)
(-1.49379 0.322803 0)
(-1.58967 0.306279 0)
(-1.67711 0.287353 1.1993e-20)
(-1.75653 0.267151 -1.19553e-20)
(-1.82858 0.246608 0)
(-1.89399 0.226448 0)
(-1.95352 0.207195 1.1694e-20)
(-2.0079 0.189194 0)
(-2.05783 0.172637 0)
(-2.1039 0.157606 -1.15609e-20)
(-2.14663 0.144094 0)
(-2.18648 0.132038 1.14338e-20)
(-2.22382 0.121335 -2.2881e-20)
(-2.25896 0.111866 0)
(-2.29218 0.103502 0)
(-2.32368 0.0961154 -4.51062e-20)
(-2.35366 0.0895851 -4.49198e-20)
(-2.38227 0.0837991 -4.47292e-20)
(-2.40963 0.0786564 2.21861e-20)
(-2.43586 0.0740674 -2.2248e-20)
(-2.46104 0.069953 -6.62715e-20)
(-2.48526 0.0662443 4.39141e-20)
(-2.50858 0.0628818 2.19272e-20)
(-2.53106 0.0598135 0)
(-2.55273 0.0569949 -2.16941e-20)
(-2.57364 0.0543871 2.14216e-20)
(-2.59381 0.0519566 0)
(-2.61327 0.049674 0)
(-2.63204 0.0475138 0)
(-2.65012 0.0454535 -2.10358e-20)
(-2.66751 0.0434729 0)
(-2.68423 0.0415543 4.13579e-20)
(-2.70026 0.0396815 0)
(-2.71559 0.0378397 4.07311e-20)
(-2.73021 0.0360156 0)
(-2.74411 0.0341962 -4.0056e-20)
(-2.75726 0.0323697 0)
(-2.76963 0.0305245 3.93271e-20)
(-2.7812 0.0286494 -1.9438e-20)
(-2.79193 0.026733 0)
(-2.80179 0.0247643 -3.81192e-20)
(-2.81075 0.0227317 -1.88586e-20)
(-2.81877 0.0206242 -1.86253e-20)
(-2.82581 0.01843 0)
(-2.83185 0.0161378 -1.81271e-20)
(-2.83686 0.0137375 -1.78618e-20)
(-2.84082 0.0112236 0)
(-2.84374 0.00860069 1.72939e-20)
(-2.84565 0.00590372 -3.4029e-20)
(-2.84656 0.00319091 0)
(-2.84625 0.000448158 -1.63258e-20)
(-2.84443 -0.0023472 0)
(-2.84098 -0.00523937 4.68871e-20)
(-2.83577 -0.00825561 0)
(-2.82868 -0.0114122 -4.45012e-20)
(-2.81958 -0.0147207 -1.43513e-20)
(-2.80834 -0.0181905 1.40785e-20)
(-2.79482 -0.0218299 2.72406e-20)
(-2.77887 -0.0256467 -2.62774e-20)
(-2.76035 -0.0296483 0)
(-2.73909 -0.0338419 0)
(-2.71492 -0.0382343 0)
(-2.68767 -0.0428319 6.4374e-20)
(-2.65715 -0.0476408 1.99391e-20)
(-2.62318 -0.0526661 -1.85789e-20)
(-2.58556 -0.0579123 0)
(-2.54409 -0.0633829 -1.65813e-20)
(-2.49855 -0.0690803 1.40826e-20)
(-2.44874 -0.0750054 1.24372e-20)
(-2.39445 -0.0811573 0)
(-2.33544 -0.0875336 0)
(-2.2715 -0.0941292 0)
(-2.20242 -0.100937 5.06715e-21)
(-2.12798 -0.107945 0)
(-2.04797 -0.115141 -3.37711e-21)
(-1.96218 -0.122507 2.27514e-21)
(-1.87044 -0.130021 -5.44308e-21)
(-1.77255 -0.137656 0)
(-1.66838 -0.145381 -6.4485e-21)
(-1.55779 -0.153158 0)
(-1.44068 -0.160946 -2.49659e-20)
(-1.31699 -0.168696 1.39363e-20)
(-1.18668 -0.176354 1.65637e-20)
(-1.04978 -0.18386 0)
(-0.90636 -0.191147 7.12699e-20)
(-0.75655 -0.198146 -5.22875e-20)
(-0.600539 -0.204777 -3.04426e-20)
(-0.438588 -0.210954 0)
(-0.271019 -0.216571 -3.63343e-20)
(-0.0982063 -0.221487 -1.14351e-19)
(0.0795082 -0.2255 0)
(0.261686 -0.228327 -8.17536e-20)
(0.447551 -0.229967 -8.39143e-20)
(0.636387 -0.230606 -8.5693e-20)
(0.827548 -0.230299 0)
(1.02028 -0.229039 0)
(1.21377 -0.226814 0)
(1.40719 -0.223628 4.32163e-20)
(1.59967 -0.219494 4.57598e-20)
(1.79035 -0.214444 0)
(1.97839 -0.208525 8.80514e-20)
(2.16295 -0.201795 8.71743e-20)
(2.34325 -0.194324 0)
(2.51853 -0.186188 8.66734e-20)
(2.68809 -0.177473 1.66627e-19)
(2.8513 -0.168264 -8.33677e-20)
(3.00758 -0.158651 -7.8502e-20)
(3.15643 -0.14872 0)
(3.29741 -0.138558 0)
(3.43015 -0.128244 0)
(3.55435 -0.117852 -7.38886e-20)
(3.66977 -0.107453 7.00914e-20)
(3.77624 -0.097105 1.38675e-19)
(3.87363 -0.0868628 -6.84694e-20)
(3.96188 -0.0767718 6.54756e-20)
(4.04094 -0.066868 6.53258e-20)
(4.11082 -0.0571662 0)
(4.17158 -0.0476687 0)
(4.22329 -0.0384162 -6.08137e-20)
(4.26593 -0.0292383 0)
(4.2996 -0.0192292 0)
(4.32803 -0.00827726 1.18022e-19)
(4.35211 0.00263814 0)
(4.36968 0.0128497 5.79103e-20)
(4.37931 0.0221627 -5.7983e-20)
(4.38034 0.0306245 0)
(4.37249 0.0382859 5.7661e-20)
(4.35569 0.0451407 0)
(4.33 0.0511489 0)
(4.29558 0.0562518 -5.848e-20)
(4.25269 0.0603876 1.17912e-19)
(4.20175 0.0635063 -5.94576e-20)
(4.14332 0.0655848 0)
(4.07815 0.0666361 0)
(4.00715 0.0667131 6.17056e-20)
(3.9314 0.0659059 0)
(3.85209 0.064333 6.33812e-20)
(3.77048 0.0621309 0)
(3.68781 0.0594428 0)
(3.60531 0.0564108 0)
(3.5241 0.0531711 6.68187e-20)
(3.44517 0.0498548 0)
(3.36932 0.046591 -6.87036e-20)
(3.29716 0.0435152 0)
(3.22907 0.0407788 0)
(3.16515 0.038545 1.43164e-19)
(3.10516 0.0369563 -1.45071e-19)
(3.04865 0.0362591 0)
(2.99456 0.0369641 0)
(2.94242 0.0402035 0)
(2.88736 0.0469392 4.59785e-19)
(2.83684 0.063384 0)
(2.75227 0.0855574 -3.14801e-19)
(0.0374908 -0.327493 3.16162e-23)
(0.0771003 -0.345 9.46415e-20)
(0.0950148 -0.28332 0)
(0.102559 -0.220363 -7.60927e-20)
(0.101998 -0.161106 0)
(0.0941546 -0.104899 0)
(0.0795417 -0.0512441 -8.09149e-24)
(0.0582816 0.000134205 3.3192e-20)
(0.0302795 0.0494227 3.28808e-20)
(-0.00468763 0.0968291 3.26447e-20)
(-0.0470081 0.142268 0)
(-0.0973067 0.185347 0)
(-0.156409 0.225827 -3.05206e-20)
(-0.22515 0.264077 -5.92161e-20)
(-0.304072 0.301073 5.72414e-20)
(-0.39312 0.337952 0)
(-0.49141 0.375353 5.31775e-20)
(-0.597183 0.412897 -2.56131e-20)
(-0.707928 0.449096 0)
(-0.820651 0.481693 4.77478e-20)
(-0.932271 0.508234 2.2995e-20)
(-1.04005 0.526659 -4.48827e-20)
(-1.14189 0.535736 -2.16291e-20)
(-1.23651 0.535212 0)
(-1.32336 0.52573 4.17065e-20)
(-1.40253 0.508586 4.08977e-20)
(-1.47453 0.485445 0)
(-1.54013 0.458079 3.95607e-20)
(-1.60017 0.428175 0)
(-1.65549 0.397201 3.85083e-20)
(-1.70684 0.366348 1.88632e-20)
(-1.75482 0.336511 0)
(-1.79995 0.30831 0)
(-1.8426 0.282126 0)
(-1.88308 0.258152 0)
(-1.9216 0.236434 0)
(-1.95833 0.216917 0)
(-1.99341 0.199478 3.58619e-20)
(-2.02694 0.183954 -5.34629e-20)
(-2.05903 0.170165 0)
(-2.08976 0.157926 0)
(-2.11921 0.147057 0)
(-2.14745 0.137389 9.51375e-23)
(-2.17455 0.128769 3.46941e-20)
(-2.20058 0.121058 6.89044e-20)
(-2.2256 0.114134 -6.8524e-20)
(-2.24967 0.107887 -3.40167e-20)
(-2.27285 0.102223 3.39366e-20)
(-2.29517 0.0970593 -1.10261e-22)
(-2.31669 0.0923239 3.34412e-20)
(-2.33743 0.0879542 0)
(-2.35745 0.0838953 3.30485e-20)
(-2.37675 0.0800995 -1.01887e-22)
(-2.39538 0.0765248 0)
(-2.41334 0.0731343 0)
(-2.43065 0.0698953 -3.22221e-20)
(-2.44732 0.0667786 0)
(-2.46336 0.0637582 0)
(-2.47876 0.0608106 3.14729e-20)
(-2.49353 0.0579142 6.26285e-20)
(-2.50766 0.0550495 -3.1138e-20)
(-2.52114 0.0521985 0)
(-2.53396 0.0493444 3.06158e-20)
(-2.54609 0.0464714 0)
(-2.55753 0.0435649 2.99699e-20)
(-2.56824 0.0406112 2.97612e-20)
(-2.5782 0.0375974 -5.88502e-20)
(-2.58739 0.0345116 -2.90916e-20)
(-2.59576 0.031343 0)
(-2.6033 0.0280824 5.69042e-20)
(-2.60995 0.0247221 0)
(-2.61569 0.0212566 8.31876e-20)
(-2.62047 0.0176829 5.46984e-20)
(-2.62425 0.0139992 5.38962e-20)
(-2.62696 0.0102017 -5.30565e-20)
(-2.62851 0.00628026 7.82052e-20)
(-2.62881 0.00221557 0)
(-2.62775 -0.00203256 0)
(-2.62518 -0.00649126 -4.91876e-20)
(-2.62102 -0.0111679 -7.2034e-20)
(-2.61514 -0.0160718 0)
(-2.60744 -0.0212147 2.2731e-20)
(-2.59778 -0.0266087 0)
(-2.58604 -0.0322659 -6.45093e-20)
(-2.57208 -0.0381979 3.68896e-22)
(-2.55576 -0.0444162 -4.05549e-22)
(-2.53692 -0.0509315 3.86645e-20)
(-2.51542 -0.0577542 0)
(-2.49108 -0.0648942 -3.52982e-20)
(-2.46373 -0.0723604 5.69801e-22)
(-2.43319 -0.0801607 0)
(-2.39928 -0.0883021 0)
(-2.36179 -0.0967899 0)
(-2.32055 -0.105627 2.45188e-20)
(-2.27533 -0.114816 0)
(-2.22593 -0.124356 0)
(-2.17214 -0.134241 0)
(-2.11374 -0.144466 0)
(-2.05053 -0.155018 0)
(-1.98227 -0.165883 9.82814e-21)
(-1.90877 -0.17704 0)
(-1.82982 -0.188462 2.53971e-21)
(-1.74522 -0.200118 -7.14307e-22)
(-1.65478 -0.211967 4.07651e-21)
(-1.55834 -0.223962 0)
(-1.45575 -0.236049 1.11088e-20)
(-1.34688 -0.248165 0)
(-1.23163 -0.260235 1.85124e-20)
(-1.10994 -0.272179 -2.2334e-20)
(-0.981788 -0.283906 -7.50454e-20)
(-0.847191 -0.295316 0)
(-0.706221 -0.306301 -9.85678e-20)
(-0.559004 -0.316747 -3.4143e-20)
(-0.405722 -0.326529 0)
(-0.246619 -0.335522 -8.82206e-20)
(-0.0819901 -0.3436 -9.58512e-20)
(0.0878219 -0.350645 1.55284e-19)
(0.262455 -0.356538 0)
(0.441401 -0.361202 5.78548e-20)
(0.624009 -0.364535 5.98114e-20)
(0.809609 -0.366431 1.80304e-19)
(0.997507 -0.366829 0)
(1.18694 -0.365685 0)
(1.37711 -0.362971 0)
(1.56719 -0.358686 6.19464e-20)
(1.75633 -0.352852 0)
(1.94371 -0.345515 0)
(2.12849 -0.336745 -6.6427e-20)
(2.30986 -0.326633 -6.62224e-20)
(2.48706 -0.315285 0)
(2.65935 -0.302823 0)
(2.82607 -0.28938 -1.29177e-19)
(2.9866 -0.275094 0)
(3.14038 -0.260105 1.2571e-19)
(3.28692 -0.244553 1.21448e-19)
(3.42582 -0.228576 0)
(3.55671 -0.212302 0)
(3.67931 -0.195855 -1.15456e-19)
(3.79341 -0.179346 -1.64219e-21)
(3.89882 -0.162875 -1.49634e-21)
(3.99544 -0.146531 0)
(4.08321 -0.13039 -2.16616e-19)
(4.16211 -0.114514 0)
(4.23217 -0.0989457 0)
(4.29343 -0.0837118 0)
(4.34601 -0.0688233 1.02787e-19)
(4.38999 -0.0542442 0)
(4.42555 -0.0399571 -2.00826e-19)
(4.45367 -0.0257742 -1.00478e-19)
(4.47537 -0.0115662 0)
(4.49083 0.00242101 -9.98648e-20)
(4.49985 0.0159359 0)
(4.50225 0.0288159 0)
(4.49792 0.0409446 -3.00721e-19)
(4.48681 0.0522306 2.01638e-19)
(4.46893 0.0625901 0)
(4.44433 0.0719309 2.05308e-19)
(4.41308 0.0801524 -1.0384e-19)
(4.3753 0.0871548 0)
(4.33117 0.092851 0)
(4.28094 0.097179 0)
(4.22502 0.100111 -3.29096e-19)
(4.16391 0.101661 0)
(4.09833 0.101881 -1.13112e-19)
(4.02909 0.100862 0)
(3.95716 0.0987281 0)
(3.8836 0.0956286 0)
(3.8095 0.0917375 0)
(3.73594 0.0872502 0)
(3.66391 0.0823854 0)
(3.59431 0.0773913 -2.53723e-19)
(3.52779 0.0725538 0)
(3.46485 0.0681862 -1.31013e-19)
(3.40561 0.0645891 3.99525e-19)
(3.34988 0.0621592 0)
(3.29692 0.0615332 0)
(3.24628 0.0640167 -2.79597e-19)
(3.19512 0.070918 -2.84884e-19)
(3.14804 0.0878662 2.88513e-19)
(3.08811 0.114968 2.93961e-19)
(0.0119606 -0.404055 -1.5803e-19)
(0.019164 -0.356764 -1.36055e-19)
(0.0094008 -0.277191 -7.83044e-20)
(-0.00404001 -0.203072 -3.50275e-20)
(-0.0219807 -0.132868 0)
(-0.0447471 -0.065346 6.20977e-20)
(-0.0726921 0.000158596 -2.98411e-20)
(-0.106235 0.0640103 0)
(-0.145854 0.12645 -2.83789e-20)
(-0.191986 0.187627 0)
(-0.244971 0.247492 5.39729e-20)
(-0.305074 0.305809 0)
(-0.372472 0.362299 2.56663e-20)
(-0.447107 0.416773 4.973e-20)
(-0.528479 0.469062 -4.80606e-20)
(-0.615452 0.518776 0)
(-0.706208 0.565023 -4.47443e-20)
(-0.798394 0.606306 0)
(-0.889448 0.640712 0)
(-0.97699 0.666338 -4.03899e-20)
(-1.05916 0.681768 0)
(-1.13482 0.686395 -5.57847e-22)
(-1.20359 0.680519 0)
(-1.26574 0.665217 0)
(-1.32196 0.642094 5.99208e-22)
(-1.3732 0.613008 -3.47037e-20)
(-1.4204 0.579825 -3.46159e-20)
(-1.46446 0.544257 -3.35242e-20)
(-1.50611 0.507758 0)
(-1.54591 0.471491 -6.55442e-20)
(-1.58425 0.43633 0)
(-1.62138 0.402887 -3.20908e-20)
(-1.65744 0.371553 0)
(-1.69249 0.342542 0)
(-1.72656 0.31593 3.1049e-20)
(-1.75964 0.291695 0)
(-1.79172 0.269744 -3.04843e-20)
(-1.82276 0.249939 4.81607e-23)
(-1.85277 0.232117 5.99583e-20)
(-1.88175 0.216102 -5.95348e-20)
(-1.9097 0.201718 0)
(-1.93663 0.188791 0)
(-1.96258 0.177159 -2.91229e-20)
(-1.98757 0.16667 0)
(-2.01164 0.157187 -2.88108e-20)
(-2.03483 0.148584 2.86317e-20)
(-2.05717 0.140751 2.84542e-20)
(-2.07869 0.133587 0)
(-2.09944 0.127003 -2.81015e-20)
(-2.11944 0.120922 -2.79252e-20)
(-2.13873 0.115273 5.53936e-20)
(-2.15733 0.109995 -2.75702e-20)
(-2.17527 0.105033 -2.73907e-20)
(-2.19257 0.100338 0)
(-2.20924 0.0958677 0)
(-2.2253 0.091582 2.68387e-20)
(-2.24075 0.0874461 0)
(-2.2556 0.0834283 0)
(-2.26985 0.0794996 -5.25152e-20)
(-2.28351 0.0756336 -5.21108e-20)
(-2.29656 0.071806 0)
(-2.309 0.0679942 0)
(-2.32081 0.0641773 0)
(-2.33198 0.0603354 0)
(-2.34249 0.0564502 -4.99156e-20)
(-2.35232 0.0525041 4.9428e-20)
(-2.36145 0.0484805 4.8936e-20)
(-2.36983 0.0443638 9.68553e-20)
(-2.37745 0.0401393 0)
(-2.38426 0.035793 4.1224e-23)
(-2.39021 0.031312 0)
(-2.39528 0.0266836 -4.61402e-20)
(-2.39939 0.021896 8.33355e-23)
(-2.40248 0.0169368 -4.4849e-20)
(-2.40449 0.0117929 4.41583e-20)
(-2.40531 0.00644332 1.33549e-22)