/*--------------------------------*- C++ -*----------------------------------*\
| =========                 |                                                 |
| \\      /  F ield         | OpenFOAM: The Open Source CFD Toolbox           |
|  \\    /   O peration     | Version:  2412                                  |
|   \\  /    A nd           | Website:  www.openfoam.com                      |
|    \\/     M anipulation  |                                                 |
\*---------------------------------------------------------------------------*/
FoamFile
{
    version     2.0;
    format      ascii;
    arch        "LSB;label=32;scalar=64";
    class       volScalarField;
    location    "0.14";
    object      epsilon;
}
// * * * * * * * * * * * * * * * * * * * * * * * * * * * * * * * * * * * * * //

dimensions      [0 2 -3 0 0 0 0];

internalField   nonuniform List<scalar> 
12225
(
448.248
622.892
830.55
1004.82
1150.38
1270.18
1368.57
1449.57
1516.29
1571.28
1616.63
1653.98
1684.64
1709.6
1729.63
1745.14
1756.51
1766.67
173.744
302.083
403.1
480.174
539.339
585.689
622.126
650.846
673.554
691.517
705.696
716.843
725.549
732.279
737.438
741.269
744.56
744.352
119.436
232.402
315.511
376.253
421.16
455.026
480.626
499.954
514.527
525.454
533.559
539.472
543.68
546.569
548.47
549.643
550.515
550.151
97.6416
199.98
277.777
334.833
376.773
407.859
430.863
447.788
460.144
469.043
475.311
479.573
482.311
483.905
484.675
484.894
484.897
484.482
83.653
176.29
251.579
308.55
351.102
382.724
406.067
423.144
435.487
444.246
450.29
454.276
456.714
458.005
458.482
458.434
458.164
457.705
71.9922
153.974
226.312
283.826
328.199
361.841
387.04
405.707
419.354
429.156
436.02
440.647
443.583
445.264
446.045
446.232
446.109
445.771
61.3447
131.283
198.627
255.581
301.544
337.591
365.357
386.468
402.317
414.044
422.563
428.6
432.736
435.435
437.077
437.983
438.422
438.498
51.6702
108.732
168.49
222.634
268.759
306.566
336.81
360.623
379.138
393.363
404.158
412.235
418.179
422.47
425.506
427.615
429.054
429.913
43.223
87.6468
137.688
186.329
230.304
268.249
299.994
326.031
347.09
363.935
377.283
387.771
395.946
402.274
407.146
410.885
413.736
415.764
36.1702
69.2425
108.634
149.505
188.759
224.55
256.008
282.993
305.755
324.724
340.39
353.242
363.734
372.274
379.217
384.859
389.419
392.926
30.4988
54.1395
83.3304
115.317
147.819
179.12
208.076
234.107
257.043
276.964
294.088
308.703
321.117
331.635
340.537
348.066
354.398
359.51
26.3769
43.1983
64.2847
88.2421
113.652
139.262
164.05
187.316
208.667
227.939
245.125
260.318
273.672
285.365
295.584
304.497
312.22
318.659
23.1428
34.7474
49.3147
66.2714
84.8795
104.392
124.088
143.36
161.77
179.034
194.997
209.602
222.863
234.837
245.609
255.266
263.856
271.222
20.3785
27.6951
36.7533
47.4295
59.449
72.4889
86.181
100.152
114.074
127.681
140.777
153.226
164.947
175.9
186.075
195.478
204.088
211.703
18.1502
22.2411
27.1498
32.9155
39.4921
46.7995
54.7224
63.1137
71.8159
80.6785
89.5662
98.3632
106.976
115.331
123.374
131.062
138.337
144.998
16.4708
18.3571
20.5279
23.0293
25.8758
29.0711
32.6071
36.4595
40.5902
44.9536
49.5003
54.1799
58.9437
63.7456
68.5438
73.2985
77.9613
82.3991
15.3282
15.8732
16.4962
17.2138
18.0335
18.9619
20.0051
21.1663
22.4449
23.8374
25.3376
26.9372
28.6255
30.3884
32.2124
34.0834
35.9839
37.8715
14.7508
14.6758
14.637
14.6353
14.6699
14.7398
14.8451
14.9863
15.1634
15.3763
15.6248
15.9083
16.226
16.5782
16.9642
17.3817
17.8281
18.2992
14.8977
14.9732
15.0872
15.2432
15.4415
15.6818
15.9644
16.2892
16.6554
17.0613
17.5049
17.9835
18.4942
19.0335
19.598
20.1838
20.7866
21.3925
15.9707
17.2603
18.7261
20.3948
22.2727
24.3592
26.6474
29.1216
31.7579
34.5276
37.3996
40.3424
43.3253
46.3197
49.2995
52.242
55.1223
57.8806
18.0494
21.9965
26.6893
32.147
38.3069
45.0729
52.3213
59.9061
67.676
75.491
83.2293
90.7901
98.0941
105.083
111.715
117.967
123.817
129.222
21.5629
30.6522
41.9198
55.0354
69.4935
84.776
100.373
115.823
130.763
144.932
158.166
170.372
181.517
191.611
200.692
208.816
216.044
222.42
27.2182
45.2997
67.7848
92.9348
119.1
144.994
169.634
192.38
212.906
231.118
247.065
260.882
272.754
282.879
291.458
298.683
304.728
309.752
35.7142
67.6755
105.676
144.947
182.511
216.735
246.809
272.56
294.214
312.171
326.893
338.835
348.422
356.03
361.987
366.572
370.024
372.57
47.4075
97.61
152.027
202.686
246.849
283.88
314.064
338.189
357.193
371.962
383.274
391.789
398.052
402.51
405.525
407.39
408.35
408.637
61.8877
131.751
198.703
254.803
299.83
335.065
362.105
382.553
397.793
408.954
416.931
422.43
426.003
428.082
429.004
429.033
428.384
427.271
78.4667
165.761
239.651
296.702
339.785
371.973
395.784
413.191
425.726
434.56
440.578
444.449
446.68
447.661
447.689
446.995
445.76
444.173
99.5996
200.964
279.478
337.82
380.456
411.806
434.889
451.766
463.982
472.693
478.748
482.777
485.256
486.546
486.924
486.605
485.757
484.55
144.791
258.315
348.614
417.599
468.468
506.751
535.876
558.055
574.959
587.834
597.593
604.92
610.337
614.25
616.976
618.764
619.808
620.309
366.941
498.484
666.587
808.035
923.458
1016.7
1091.73
1152.4
1201.69
1241.86
1274.71
1301.66
1323.83
1342.11
1357.21
1369.71
1380.02
1388.59
1.27099
1.18848
1.69261
2.10831
2.43749
2.74652
3.10592
3.4916
3.90798
4.37356
4.93361
5.69512
6.58826
7.60629
8.74498
10.0095
11.4075
12.9462
14.6306
16.4639
18.4476
20.582
22.8668
25.302
27.8886
30.6294
33.5306
36.6028
39.8629
43.3104
46.9062
50.6437
54.5194
58.53
62.6723
66.9435
71.3408
75.8616
80.5035
85.2639
90.1406
95.1311
100.233
105.443
110.759
116.178
121.697
127.312
133.019
138.815
144.695
150.654
156.689
162.793
168.961
175.188
181.467
187.793
194.159
200.558
206.984
213.43
219.888
226.352
232.814
239.267
245.703
252.115
258.498
264.844
271.152
277.421
283.657
289.879
296.112
302.245
308.279
314.214
320.046
325.768
331.375
336.86
342.216
347.435
352.512
357.44
362.212
366.823
371.267
375.538
379.631
383.541
387.263
390.793
394.127
397.26
400.19
402.911
405.423
407.721
409.803
411.667
413.312
414.734
415.933
416.908
417.657
418.181
418.478
418.55
418.395
418.016
417.412
416.585
415.537
414.269
412.784
411.083
409.171
407.049
404.722
402.193
399.467
396.547
393.439
390.147
386.677
383.035
379.226
375.256
371.133
366.862
362.45
357.905
353.234
348.442
343.542
338.535
333.44
328.257
322.997
317.718
312.556
308.791
306.075
303.374
300.607
297.768
294.862
291.891
288.862
285.778
282.645
279.468
276.252
273.002
269.723
266.42
263.098
259.762
256.416
253.065
249.713
246.364
243.021
239.689
236.368
233.062
229.771
226.494
223.228
219.965
216.694
213.394
210.026
206.515
202.702
198.171
192.355
184.484
3.77978
2.07168
1.85017
1.93444
2.15959
2.48944
2.90437
3.39233
3.95391
4.59126
5.30789
6.10612
6.97601
7.90993
8.9023
9.9491
11.0469
12.1924
13.3825
14.6145
15.8861
17.1962
18.544
19.9299
21.3548
22.8201
24.3276
25.8786
27.4738
29.1121
30.7908
32.5094
34.2679
36.0662
37.9043
39.7819
41.6988
43.6546
45.6488
47.6809
49.7502
51.8561
53.9977
56.174
58.384
60.6267
62.9009
65.2051
67.5382
69.8985
72.2845
74.6946
77.1271
79.5802
82.0519
84.5403
87.0435
89.5593
92.0855
94.62
97.1605
99.7047
102.25
104.795
107.336
109.872
112.4
114.918
117.424
119.919
122.401
124.872
127.338
129.804
132.3
134.772
137.209
139.611
141.974
144.296
146.574
148.806
150.99
153.121
155.199
157.22
159.183
161.084
162.922
164.695
166.399
168.035
169.599
171.089
172.505
173.844
175.105
176.287
177.387
178.406
179.341
180.193
180.958
181.638
182.232
182.737
183.155
183.484
183.725
183.877
183.939
183.913
183.797
183.593
183.301
182.92
182.452
181.898
181.257
180.532
179.723
178.831
177.858
176.805
175.674
174.466
173.183
171.827
170.4
168.904
167.342
165.715
164.027
162.279
160.474
158.615
156.705
154.744
152.742
150.693
148.602
146.519
144.481
142.692
141.101
139.538
137.963
136.367
134.748
133.109
131.45
129.774
128.082
126.377
124.661
122.936
121.205
119.469
117.73
115.992
114.255
112.521
110.794
109.073
107.361
105.66
103.971
102.295
100.633
98.9868
97.3555
95.7395
94.1379
92.5493
90.9707
89.3991
87.8272
86.268
84.974
85.0445
6.60723
3.20941
2.74886
2.79137
3.01708
3.35668
3.79572
4.32608
4.9399
5.62754
6.37817
7.18083
8.02503
8.9028
9.80893
10.7404
11.6956
12.674
13.6757
14.7014
15.7519
16.8286
17.9328
19.0658
20.229
21.4232
22.6492
23.907
25.1965
26.5172
27.8684
29.2497
30.6606
32.1008
33.5697
35.067
36.5921
38.1446
39.7239
41.3295
42.9608
44.6172
46.2982
48.0031
49.7312
51.4818
53.2542
55.0474
56.8606
58.693
60.5434
62.4109
64.2943
66.1926
68.1044
70.0285
71.9636
73.9083
75.8612
77.8208
79.7857
81.7543
83.7252
85.6968
87.6678
89.6369
91.6027
93.5644
95.5213
97.473
99.4197
101.362
103.301
105.24
107.172
109.084
110.971
112.832
114.662
116.461
118.226
119.954
121.645
123.295
124.904
126.468
127.987
129.458
130.879
132.249
133.567
134.831
136.038
137.189
138.281
139.314
140.286
141.196
142.043
142.826
143.544
144.197
144.784
145.304
145.756
146.14
146.457
146.704
146.883
146.992
147.033
147.004
146.907
146.74
146.505
146.202
145.831
145.393
144.888
144.318
143.682
142.982
142.22
141.395
140.509
139.564
138.561
137.5
136.385
135.216
133.995
132.724
131.405
130.039
128.628
127.174
125.681
124.144
122.578
120.986
119.369
117.748
116.145
114.619
113.159
111.718
110.274
108.819
107.353
105.875
104.385
102.887
101.381
99.8687
98.3521
96.8329
95.3126
93.7931
92.2759
90.7627
89.2549
87.7541
86.2618
84.7794
83.3081
81.8493
80.4042
78.9739
77.5596
76.1621
74.7824
73.4216
72.0807
70.7614
69.4666
68.2028
66.9835
65.8546
64.9544
64.849
9.48392
4.51209
3.81085
3.76024
3.94316
4.26641
4.69821
5.22236
5.82568
6.49472
7.21599
7.97725
8.7688
9.58404
10.4194
11.2736
12.1468
13.0403
13.9555
14.8943
15.8582
16.8488
17.8673
18.9145
19.9912
21.0975
22.2336
23.3991
24.5937
25.8168
27.068
28.3466
29.6524
30.9849
32.3436
33.7281
35.1382
36.5734
38.0333
39.5176
41.026
42.558
44.1133
45.6914
47.2919
48.9142
50.5579
52.2222
53.9066
55.6103
57.3326
59.0725
60.8292
62.6017
64.3889
66.1897
68.0029
69.8274
71.6617
73.5047
75.3549
77.2109
79.0714
80.935
82.8004
84.6662
86.5313
88.3945
90.255
92.1118
93.9644
95.8119
97.6539
99.4876
101.307
103.106
104.882
106.632
108.353
110.044
111.702
113.325
114.911
116.459
117.965
119.43
120.85
122.223
123.549
124.826
126.052
127.225
128.345
129.41
130.419
131.37
132.263
133.096
133.869
134.581
135.231
135.818
136.342
136.802
137.198
137.529
137.795
137.997
138.132
138.203
138.208
138.147
138.022
137.831
137.577
137.257
136.875
136.429
135.921
135.351
134.72
134.03
133.28
132.473
131.61
130.691
129.717
128.692
127.615
126.489
125.315
124.095
122.829
121.522
120.173
118.782
117.361
115.907
114.425
112.918
111.391
109.855
108.323
106.818
105.34
103.87
102.4
100.923
99.4386
97.9468
96.4485
94.9449
93.4375
91.9279
90.4176
88.9082
87.4013
85.8985
84.4011
82.9107
81.4287
79.9565
78.4954
77.0467
75.6117
74.1914
72.7871
71.3999
70.0309
68.6813
67.3522
66.0451
64.7619
63.5055
62.2808
61.0974
59.9735
58.9538
58.1311
57.7699
11.9968
5.79354
4.8117
4.65277
4.7817
5.06895
5.46873
5.95826
6.52155
7.14468
7.81504
8.52202
9.25762
10.0168
10.7969
11.5976
12.4195
13.2641
14.1329
15.0276
15.9495
16.8998
17.8793
18.8886
19.928
20.9974
22.0968
23.2259
24.3844
25.5719
26.788
28.0324
29.3048
30.6048
31.9324
33.2871
34.6688
36.0774
37.5125
38.974
40.4617
41.9754
43.5148
45.0796
46.6694
48.284
49.9228
51.5853
53.2709
54.9791
56.7089
58.4597
60.2304
62.0202
63.8279
65.6524
67.4924
69.3467
71.2139
73.0925
74.9811
76.8781
78.7821
80.6914
82.6045
84.5198
86.4358
88.351
90.264
92.1733
94.0775
95.975
97.864
99.7398
101.598
103.434
105.245
107.029
108.784
110.505
112.193
113.844
115.456
117.027
118.555
120.038
121.475
122.863
124.2
125.486
126.719
127.896
129.018
130.081
131.086
132.031
132.915
133.737
134.496
135.192
135.823
136.389
136.89
137.324
137.693
137.994
138.229
138.397
138.498
138.531
138.498
138.398
138.231
137.998
137.7
137.336
136.908
136.416
135.861
135.244
134.565
133.827
133.029
132.173
131.261
130.293
129.271
128.198
127.073
125.899
124.679
123.413
122.1
120.749
119.361
117.936
116.478
114.99
113.475
111.936
110.377
108.806
107.231
105.664
104.105
102.55
100.994
99.4326
97.8668
96.2964
94.7223
93.146
91.5688
89.9924
88.4182
86.8479
85.283
83.7251
82.1755
80.6358
79.1073
77.5914
76.0894
74.6024
73.1318
71.6787
70.2442
68.8296
67.4359
66.0645
64.7167
63.3944
62.0998
60.8367
59.6109
58.433
57.3216
56.3151
55.4764
54.9305
15.1108
7.01697
5.69123
5.40978
5.47382
5.714
6.07048
6.5149
7.02959
7.60112
8.21852
8.87303
9.55827
10.2702
11.0068
11.7677
12.5534
13.365
14.2036
15.0707
15.9671
16.8938
17.8514
18.8402
19.8606
20.9127
21.9963
23.1115
24.2581
25.4359
26.6449
27.8849
29.1558
30.4575
31.79
33.1532
34.5472
35.9718
37.427
38.9128
40.4291
41.9758
43.5527
45.1597
46.7965
48.4628
50.1581
51.882
53.6339
55.413
57.2187
59.0501
60.906
62.7856
64.6874
66.6103
68.5528
70.5135
72.4907
74.4828
76.488
78.5046
80.5306
82.5643
84.6036
86.6467
88.6915
90.7361
92.7785
94.8167
96.8486
98.8723
100.884
102.878
104.852
106.801
108.723
110.615
112.474
114.298
116.083
117.828
119.531
121.188
122.799
124.36
125.87
127.327
128.729
130.074
131.361
132.588
133.754
134.857
135.896
136.87
137.778
138.619
139.391
140.096
140.73
141.295
141.79
142.213
142.566
142.847
143.057
143.195
143.262
143.258
143.182
143.036
142.819
142.532
142.177
141.752
141.26
140.7
140.075
139.384
138.63
137.813
136.934
135.995
134.998
133.944
132.833
131.669
130.454
129.187
127.872
126.515
125.113
123.671
122.192
120.676
119.128
117.55
115.944
114.315
112.665
111.001
109.329
107.654
105.981
104.307
102.631
100.951
99.2687
97.5839
95.8979
94.2122
92.5283
90.8479
89.1724
87.5037
85.8432
84.1925
82.5531
80.9265
79.3141
77.7171
76.137
74.575
73.0322
71.51
70.0094
68.5317
67.0781
65.65
64.249
62.8771
61.537
60.2328
58.9708
57.7618
56.6229
55.5858
54.6924
54.0035
18.7487
8.1926
6.43954
6.01249
6.00212
6.19033
6.50117
6.90024
7.36816
7.89187
8.4617
9.07035
9.7126
10.3851
11.0861
11.815
12.572
13.3579
14.1735
15.0197
15.8975
16.8075
17.7503
18.7265
19.7365
20.7804
21.8585
22.9711
24.1183
25.3002
26.517
27.7688
29.0559
30.3783
31.7363
33.13
34.5597
36.0254
37.5273
39.0655
40.64
42.251
43.8983
45.5818
47.3013
49.0565
50.847
52.6723
54.5317
56.4245
58.3498
60.3067
62.2938
64.31
66.3539
68.4239
70.5182
72.6353
74.773
76.9295
79.1027
81.2902
83.49
85.6997
87.9169
90.1392
92.3641
94.589
96.8116
99.0292
101.239
103.439
105.623
107.786
109.925
112.036
114.116
116.162
118.17
120.139
122.065
123.946
125.779
127.562
129.291
130.966
132.583
134.141
135.638
137.071
138.44
139.742
140.976
142.141
143.235
144.257
145.206
146.082
146.882
147.607
148.256
148.829
149.324
149.743
150.083
150.346
150.532
150.639
150.67
150.623
150.5
150.3
150.024
149.673
149.248
148.75
148.178
147.535
146.822
146.04
145.189
144.273
143.29
142.245
141.139
139.972
138.744
137.464
136.131
134.745
133.311
131.832
130.308
128.743
127.139
125.499
123.826
122.123
120.391
118.636
116.86
115.067
113.264
111.454
109.64
107.824
106.005
104.184
102.362
100.539
98.7169
96.8978
95.0831
93.2745
91.4737
89.6824
87.9023
86.1349
84.3819
82.6447
80.9248
79.2236
77.5423
75.8823
74.2448
72.6311
71.0423
69.4798
67.9448
66.4389
64.9637
63.5215
62.1152
60.7493
59.43
58.1677
56.9778
55.8852
54.9176
54.1062
22.0349
9.18841
7.02534
6.45439
6.36955
6.50674
6.77451
7.13256
7.55951
8.04223
8.57177
9.14179
9.74787
10.3871
11.0579
11.7595
12.4921
13.2559
14.0518
14.8805
15.7429
16.6396
17.5714
18.5391
19.5433
20.5844
21.6632
22.7801
23.9356
25.1302
26.3644
27.6387
28.9536
30.3096
31.707
33.1464
34.6281
36.1526
37.7201
39.3309
40.9853
42.6833
44.425
46.2104
48.0393
49.9113
51.826
53.7829
55.7812
57.8201
59.8985
62.0151
64.1687
66.3575
68.5801
70.8344
73.1185
75.4301
77.7671
80.1269
82.5071
84.905
87.3178
89.7427
92.1769
94.6174
97.0611
99.505
101.946
104.381
106.807
109.22
111.612
113.98
116.319
118.626
120.897
123.129
125.319
127.463
129.558
131.602
133.592
135.524
137.397
139.207
140.953
142.632
144.242
145.782
147.248
148.64
149.956
151.195
152.355
153.435
154.435
155.352
156.186
156.937
157.604
158.186
158.684
159.097
159.425
159.667
159.825
159.898
159.886
159.79
159.611
159.349
159.005
158.579
158.073
157.488
156.824
156.083
155.267
154.376
153.414
152.38
151.276
150.105
148.87
147.572
146.213
144.797
143.325
141.799
140.223
138.599
136.929
135.217
133.465
131.676
129.853
127.999
126.117
124.21
122.283
120.338
118.38
116.414
114.441
112.465
110.486
108.506
106.526
104.548
102.573
100.603
98.64
96.686
94.7427
92.8119
90.8953
88.9945
87.1113
85.2472
83.4036
81.582
79.7838
78.0102
76.2626
74.5422
72.8503
71.1882
69.5574
67.9593
66.3959
64.8695
63.3833
61.9416
60.5507
59.2202
57.9633
56.7996
55.7467
54.8214
24.8352
9.9821
7.45089
6.7476
6.59316
6.68308
6.91216
7.23459
7.62687
8.07538
8.57144
9.10921
9.68475
10.2955
10.9401
11.6177
12.3284
13.0726
13.8508
14.6639
15.5129
16.3986
17.3221
18.2843
19.2861
20.3286
21.4127
22.5393
23.7093
24.9236
26.1831
27.4886
28.841
30.2412
31.6898
33.1877
34.7355
36.3338
37.9832
39.6841
41.4369
43.2418
45.099
47.0084
48.9699
50.9831
53.0475
55.1624
57.327
59.5401
61.8006
64.1068
66.4571
68.8497
71.2825
73.7531
76.2591
78.7979
81.3666
83.9625
86.5823
89.223
91.8812
94.5536
97.2367
99.927
102.621
105.315
108.005
110.688
113.36
116.013
118.641
121.239
123.804
126.331
128.817
131.258
133.65
135.989
138.273
140.499
142.662
144.76
146.79
148.75
150.636
152.448
154.181
155.835
157.407
158.896
160.3
161.618
162.848
163.989
165.04
166
166.868
167.644
168.327
168.917
169.414
169.817
170.126
170.343
170.466
170.496
170.434
170.281
170.037
169.702
169.278
168.765
168.167
167.482
166.713
165.861
164.926
163.913
162.824
161.658
160.419
159.109
157.731
156.286
154.777
153.207
151.579
149.895
148.158
146.371
144.537
142.659
140.74
138.783
136.791
134.768
132.716
130.639
128.541
126.426
124.296
122.157
120.011
117.861
115.709
113.556
111.406
109.259
107.118
104.984
102.861
100.749
98.6502
96.5674
94.502
92.4558
90.4305
88.4276
86.4487
84.4953
82.5689
80.6706
78.802
76.9643
75.1587
73.3868
71.6499
69.9497
68.2882
66.6678
65.0918
63.5644
62.0917
60.6822
59.3472
58.1018
56.9568
55.9217
27.0949
10.5788
7.73291
6.9135
6.69657
6.74393
6.93876
7.23044
7.59342
8.01333
8.4814
8.99203
9.54156
10.1277
10.7492
11.4055
12.0966
12.823
13.5855
14.385
15.2228
16.1
17.0179
17.9779
18.9814
20.0297
21.1242
22.2664
23.4575
24.699
25.9921
27.3382
28.7385
30.1942
31.7064
33.2762
34.9046
36.5925
38.3406
40.1496
42.02
43.952
45.946
48.0018
50.1192
52.2979
54.5371
56.8361
59.1937
61.6085
64.0789
66.6032
69.1792
71.8045
74.4767
77.193
79.9503
82.7454
85.5751
88.4357
91.3236
94.2352
97.1664
100.113
103.072
106.038
109.007
111.976
114.939
117.893
120.833
123.746
126.629
129.477
132.285
135.049
137.764
140.428
143.034
145.581
148.064
150.48
152.824
155.095
157.289
159.403
161.435
163.381
165.24
167.01
168.689
170.274
171.765
173.16
174.457
175.656
176.755
177.753
178.65
179.444
180.137
180.727
181.215
181.6
181.883
182.064
182.143
182.12
181.998
181.775
181.454
181.035
180.519
179.908
179.203
178.406
177.519
176.542
175.479
174.331
173.101
171.791
170.402
168.938
167.402
165.795
164.122
162.384
160.584
158.727
156.814
154.849
152.835
150.776
148.675
146.534
144.359
142.151
139.915
137.654
135.371
133.071
130.757
128.432
126.101
123.766
121.431
119.096
116.765
114.44
112.123
109.817
107.523
105.244
102.981
100.738
98.5147
96.3144
94.1384
91.9885
89.8662
87.7731
85.7105
83.6799
81.6827
79.7202
77.7937
75.9047
74.0547
72.2455
70.4789
68.7576
67.0847
65.4645
63.9025
62.4064
60.9855
59.6513
58.4098
57.2674
28.7942
10.9926
7.89245
6.97584
6.70472
6.71445
6.87902
7.14387
7.48167
7.87725
8.32159
8.80913
9.33637
9.90124
10.5027
11.1403
11.8144
12.5257
13.2752
14.0642
14.8941
15.7665
16.6833
17.6461
18.6568
19.7174
20.8297
21.9955
23.2169
24.4956
25.8335
27.2323
28.6937
30.2194
31.8108
33.4693
35.1963
36.9929
38.86
40.7984
42.8088
44.8915
47.0466
49.2742
51.5737
53.9448
56.3863
58.8973
61.4763
64.1214
66.8307
69.6019
72.4324
75.3192
78.2593
81.2493
84.2854
87.3639
90.4807
93.6316
96.8123
100.019
103.246
106.489
109.744
113.006
116.271
119.532
122.787
126.029
129.247
132.434
135.582
138.689
141.748
144.755
147.706
150.596
153.421
156.177
158.86
161.466
163.992
166.434
168.789
171.053
173.225
175.302
177.281
179.161
180.938
182.613
184.182
185.645
187
188.247
189.384
190.41
191.325
192.127
192.818
193.397
193.864
194.219
194.463
194.595
194.617
194.529
194.333
194.029
193.618
193.101
192.481
191.758
190.935
190.014
188.995
187.882
186.676
185.38
183.996
182.528
180.976
179.346
177.638
175.857
174.005
172.086
170.102
168.058
165.957
163.801
161.596
159.343
157.047
154.712
152.341
149.938
147.506
145.049
142.571
140.076
137.567
135.049
132.524
129.997
127.47
124.947
122.428
119.919
117.419
114.933
112.463
110.011
107.578
105.168
102.782
100.422
98.0899
95.7876
93.5167
91.2787
89.075
86.9072
84.7766
82.6846
80.6325
78.6219
76.6543
74.7314
72.8553
71.0284
69.254
67.5361
65.8798
64.2916
62.7794
61.3517
60.0115
58.7636
29.9327
11.2403
7.95036
6.9572
6.64098
6.61816
6.7561
6.99737
7.31323
7.68785
8.11198
8.57999
9.08852
9.63569
10.2207
10.8434
11.5045
12.2048
12.946
13.7295
14.5574
15.4317
16.3547
17.3287
18.3561
19.4393
20.5809
21.7832
23.0488
24.38
25.7792
27.2485
28.7903
30.4065
32.0989
33.8693
35.7193
37.6502
39.663
41.7587
43.9378
46.2007
48.5473
50.9775
53.4905
56.0856
58.7613
61.5161
64.3481
67.255
70.2341
73.2825
76.3971
79.5742
82.81
86.1004
89.4411
92.8273
96.2541
99.7167
103.21
106.73
110.27
113.825
117.391
120.962
124.533
128.098
131.652
135.188
138.688
142.149
145.563
148.927
152.235
155.482
158.663
161.773
164.809
167.765
170.639
173.426
176.122
178.723
181.226
183.628
185.926
188.119
190.203
192.177
194.039
195.787
197.419
198.934
200.332
201.611
202.77
203.808
204.723
205.517
206.19
206.741
207.171
207.48
207.668
207.737
207.687
207.519
207.234
206.833
206.319
205.691
204.952
204.105
203.15
202.09
200.927
199.663
198.301
196.844
195.295
193.655
191.929
190.119
188.229
186.261
184.22
182.108
179.93
177.689
175.388
173.032
170.625
168.169
165.67
163.131
160.556
157.948
155.312
152.652
149.972
147.275
144.565
141.847
139.124
136.4
133.677
130.96
128.251
125.552
122.867
120.199
117.549
114.92
112.314
109.734
107.182
104.66
102.17
99.7124
97.2903
94.905
92.558
90.2506
87.9843
85.7605
83.5806
81.4461
79.3585
77.3196
75.3315
73.3967
71.5181
69.6995
67.9457
66.2622
64.6553
63.1316
61.6918
60.3405
30.5195
11.3381
7.92537
6.8775
6.52604
6.47614
6.59118
6.812
7.10901
7.46598
7.87351
8.326
8.82023
9.35456
9.92847
10.5422
11.1968
11.8937
12.6348
13.4223
14.2586
15.1465
16.0888
17.0884
18.1485
19.2719
20.4619
21.7215
23.0537
24.4615
25.9477
27.5152
29.1664
30.9037
32.7293
34.6451
36.6529
38.754
40.9495
43.2401
45.6263
48.1082
50.6853
53.3571
56.1225
58.9799
61.9275
64.963
68.0838
71.2869
74.5689
77.9261
81.3544
84.8496
88.4071
92.0221
95.6894
99.4028
103.157
106.946
110.765
114.608
118.469
122.343
126.224
130.107
133.985
137.853
141.706
145.522
149.294
153.017
156.684
160.29
163.83
167.299
170.691
174.002
177.227
180.363
183.405
186.35
189.195
191.931
194.558
197.074
199.474
201.759
203.924
205.968
207.889
209.686
211.357
212.901
214.317
215.604
216.761
217.788
218.684
219.449
220.083
220.586
220.96
221.203
221.318
221.306
221.165
220.9
220.509
219.996
219.361
218.606
217.734
216.746
215.645
214.432
213.111
211.684
210.154
208.523
206.796
204.974
203.061
201.062
198.978
196.814
194.574
192.261
189.879
187.432
184.925
182.361
179.745
177.08
174.371
171.622
168.837
166.02
163.176
160.308
157.421
154.519
151.605
148.685
145.761
142.837
139.918
137.006
134.105
131.217
128.346
125.494
122.664
119.858
117.08
114.33
111.612
108.928
106.279
103.667
101.094
98.5615
96.0712
93.6244
91.2226
88.8671
86.5594
84.301
82.0933
79.9383
77.8378
75.7943
73.8107
71.8905
70.0378
68.2575
66.5547
64.9342
63.3954
61.943
30.5647
11.3004
7.83354
6.75383
6.37787
6.30716
6.40381
6.60812
6.8903
7.23409
7.63015
8.07308
8.55994
9.08942
9.6614
10.2766
10.9366
11.6434
12.3994
13.2076
14.0711
14.9933
15.9778
17.0283
18.1485
19.3419
20.6124
21.9635
23.399
24.9222
26.5366
28.2451
30.0507
31.9559
33.9629
36.0736
38.2897
40.6123
43.0421
45.5796
48.2245
50.9765
53.8345
56.7971
59.8624
63.0281
66.2914
69.6492
73.0979
76.6334
80.2515
83.9475
87.7165
91.5534
95.4527
99.4094
103.419
107.47
111.558
115.677
119.822
123.986
128.163
132.348
136.534
140.715
144.887
149.043
153.163
157.234
161.25
165.205
169.093
172.909
176.648
180.304
183.872
187.347
190.726
194.003
197.176
200.24
203.191
206.026
208.741
211.333
213.801
216.142
218.354
220.434
222.382
224.196
225.874
227.416
228.82
230.087
231.214
232.202
233.051
233.76
234.33
234.762
235.055
235.211
235.23
235.114
234.863
234.48
233.965
233.32
232.548
231.649
230.627
229.483
228.22
226.841
225.348
223.745
222.034
220.218
218.302
216.287
214.179
211.98
209.694
207.326
204.88
202.359
199.767
197.11
194.39
191.614
188.785
185.907
182.985
180.023
177.026
173.998
170.944
167.868
164.774
161.666
158.548
155.426
152.302
149.181
146.067
142.962
139.871
136.796
133.741
130.709
127.702
124.723
121.774
118.858
115.977
113.133
110.329
107.565
104.844
102.167
99.5366
96.9531
94.4183
91.9336
89.5004
87.1201
84.7944
82.5249
80.3137
78.1629
76.0754
74.0542
72.1033
70.2266
68.4282
66.7118
65.0759
63.5256
30.0805
11.1403
7.68919
6.60127
6.21271
6.12895
6.21353
6.40747
6.68149
7.01977
7.41339
7.85742
8.3494
8.88856
9.47538
10.1113
10.7984
11.5396
12.338
13.1974
14.1218
15.1153
16.1825
17.3279
18.5566
19.8712
21.2763
22.7765
24.3757
26.0777
27.886
29.8037
31.8336
33.9779
36.2386
38.6172
41.1145
43.731
46.4666
49.3209
52.2926
55.3801
58.5815
61.8941
65.3148
68.8401
72.4661
76.1884
80.0023
83.9027
87.8843
91.9413
96.0679
100.258
104.505
108.804
113.146
117.525
121.935
126.368
130.818
135.28
139.746
144.212
148.671
153.118
157.548
161.94
166.276
170.552
174.76
178.895
182.951
186.924
190.806
194.594
198.284
201.869
205.346
208.712
211.962
215.092
218.1
220.981
223.734
226.355
228.842
231.193
233.405
235.478
237.41
239.199
240.844
242.344
243.699
244.908
245.971
246.887
247.655
248.278
248.754
249.084
249.269
249.311
249.209
248.965
248.581
248.058
247.397
246.601
245.672
244.612
243.423
242.107
240.668
239.109
237.431
235.639
233.736
231.725
229.61
227.394
225.082
222.677
220.184
217.606
214.949
212.215
209.411
206.54
203.607
200.616
197.573
194.482
191.347
188.174
184.967
181.73
178.468
175.185
171.887
168.577
165.26
161.94
158.621
155.308
152.003
148.711
145.436
142.18
138.948
135.741
132.562
129.415
126.303
123.226
120.188
117.191
114.237
111.327
108.464
105.648
102.882
100.167
97.5043
94.8951
92.341
89.8433
87.4037
85.0236
82.7051
80.4503
78.2618
76.1424
74.0954
72.1244
70.2325
68.4227
66.693
65.0488
29.0483
10.9067
7.51153
6.43231
6.04303
5.95619
6.0385
6.2329
6.51152
6.85955
7.26885
7.73541
8.25767
8.8358
9.47122
10.1663
10.9242
11.7487
12.6441
13.6149
14.6661
15.8028
17.0301
18.3531
19.7768
21.3057
22.9442
24.6966
26.5667
28.558
30.6733
32.915
35.285
37.7844
40.414
43.1738
46.0632
49.0811
52.2258
55.4952
58.8863
62.396
66.0205
69.7556
73.5968
77.5389
81.5768
85.7049
89.9171
94.2073
98.5693
102.996
107.482
112.02
116.603
121.223
125.876
130.552
135.247
139.952
144.663
149.372
154.075
158.766
163.44
168.093
172.7
177.243
181.717
186.116
190.435
194.668
198.81
202.856
206.802
210.642
214.372
217.988
221.487
224.864
228.117
231.241
234.234
237.093
239.815
242.398
244.839
247.137
249.29
251.296
253.154
254.863
256.422
257.829
259.085
260.189
261.141
261.939
262.586
263.08
263.423
263.614
263.656
263.548
263.292
262.889
262.341
261.65
260.817
259.844
258.733
257.488
256.11
254.603
252.968
251.21
249.331
247.335
245.225
243.005
240.679
238.251
235.725
233.104
230.395
227.6
224.725
221.774
218.752
215.663
212.513
209.306
206.048
202.742
199.395
196.01
192.594
189.149
185.682
182.196
178.697
175.189
171.676
168.163
164.654
161.154
157.665
154.192
150.739
147.309
143.905
140.53
137.187
133.879
130.609
127.379
124.191
121.047
117.95
114.901
111.902
108.954
106.059
103.218
100.433
97.7053
95.0358
92.426
89.8773
87.3915
84.9702
82.6155
80.3297
78.1155
75.9758
73.9135
71.9312
70.0313
68.2114
66.4778
27.6868
10.639
7.34664
6.29196
5.91438
5.83886
5.93652
6.1528
6.46168
6.85007
7.31161
7.84383
8.44672
9.12199
9.87255
10.7022
11.6156
12.6177
13.7138
14.9096
16.2106
17.6224
19.1502
20.7992
22.5737
24.4776
26.5145
28.6871
30.9976
33.4473
36.0371
38.7669
41.636
44.6433
47.7866
51.0633
54.4705
58.0043
61.6608
65.4355
69.3233
73.3191
77.4175
81.6125
85.8984
90.2689
94.7176
99.2383
103.824
108.469
113.166
117.909
122.69
127.504
132.343
137.202
142.074
146.952
151.832
156.706
161.571
166.42
171.25
176.055
180.834
185.55
190.194
194.761
199.247
203.646
207.953
212.164
216.275
220.28
224.176
227.959
231.624
235.169
238.589
241.881
245.043
248.07
250.962
253.714
256.325
258.792
261.113
263.287
265.312
267.187
268.909
270.479
271.895
273.156
274.262
275.213
276.008
276.647
277.131
277.459
277.633
277.652
277.518
277.232
276.795
276.209
275.474
274.594
273.569
272.402
271.095
269.651
268.072
266.362
264.523
262.558
260.472
258.267
255.947
253.516
250.978
248.338
245.599
242.767
239.845
236.838
233.751
230.589
227.357
224.06
220.702
217.289
213.826
210.318
206.769
203.186
199.573
195.934
192.275
188.601
184.916
181.224
177.531
173.84
170.157
166.484
162.827
159.189
155.574
151.984
148.424
144.897
141.405
137.952
134.539
131.17
127.846
124.569
121.343
118.167
115.045
111.977
108.966
106.011
103.116
100.28
97.5055
94.7936
92.1455
89.5629
87.0474
84.6008
82.2254
79.9235
77.6976
75.5504
73.4838
71.5
69.5963
67.7799
26.1068
10.3148
7.18649
6.18565
5.84506
5.80853
5.95427
6.23183
6.61843
7.10391
7.68471
8.36108
9.13562
10.0125
10.9967
12.0941
13.3105
14.652
16.1243
17.7328
19.4822
21.3766
23.4191
25.6121
27.9569
30.4539
33.1026
35.9017
38.8489
41.9413
45.1754
48.5471
52.0515
55.6838
59.4384
63.3097
67.2919
71.3789
75.5646
79.8429
84.2074
88.6521
93.1708
97.7572
102.405
107.109
111.862
116.659
121.493
126.359
131.252
136.165
141.092
146.029
150.97
155.91
160.843
165.766
170.673
175.56
180.425
185.263
190.073
194.842
199.537
204.155
208.691
213.142
217.503
221.77
225.94
230.007
233.968
237.82
241.558
245.179
248.681
252.059
255.31
258.432
261.421
264.275
266.991
269.568
272.002
274.292
276.435
278.431
280.276