/*--------------------------------*- C++ -*----------------------------------*\
| =========                 |                                                 |
| \\      /  F ield         | OpenFOAM: The Open Source CFD Toolbox           |
|  \\    /   O peration     | Version:  2412                                  |
|   \\  /    A nd           | Website:  www.openfoam.com                      |
|    \\/     M anipulation  |                                                 |
\*---------------------------------------------------------------------------*/
FoamFile
{
    version     2.0;
    format      ascii;
    arch        "LSB;label=32;scalar=64";
    class       volScalarField;
    location    "0.14";
    object      k;
}
// * * * * * * * * * * * * * * * * * * * * * * * * * * * * * * * * * * * * * //

dimensions      [0 2 -2 0 0 0 0];

internalField   nonuniform List<scalar> 
12225
(
0.316793
0.394492
0.477904
0.54261
0.593824
0.634368
0.666718
0.692771
0.713868
0.731026
0.745025
0.756457
0.765776
0.773321
0.779351
0.784002
0.787404
0.790437
0.569139
0.788913
0.95258
1.06799
1.15119
1.21269
1.25816
1.2917
1.3163
1.3341
1.34669
1.35524
1.36065
1.36361
1.3647
1.36425
1.36345
1.36134
0.670061
0.972154
1.18323
1.33202
1.43945
1.5186
1.57692
1.61968
1.65076
1.67301
1.68849
1.69878
1.70507
1.70829
1.7092
1.7084
1.70689
1.70485
0.722108
1.07674
1.32651
1.50447
1.63403
1.72971
1.80042
1.85243
1.89038
1.91766
1.93678
1.94966
1.95775
1.96219
1.96392
1.96372
1.96259
1.96112
0.742772
1.1292
1.41224
1.61818
1.77023
1.88337
1.96763
2.03016
2.07625
2.1098
2.13375
2.15034
2.16127
2.16792
2.17137
2.1726
2.17261
2.17209
0.739915
1.13776
1.44638
1.6782
1.85305
1.98506
2.08467
2.15965
2.21578
2.25743
2.28791
2.30978
2.32501
2.33518
2.34156
2.34525
2.34726
2.34827
0.719621
1.10881
1.43133
1.68403
1.88029
2.03178
2.14829
2.23767
2.30596
2.35783
2.39689
2.42597
2.44729
2.46263
2.47343
2.4809
2.48604
2.48945
0.687643
1.05046
1.37184
1.63648
1.84974
2.01926
2.15294
2.25794
2.34011
2.40416
2.45385
2.49217
2.52154
2.5439
2.56082
2.57359
2.58323
2.59021
0.648988
0.972383
1.27662
1.54081
1.76295
1.94594
2.09474
2.21489
2.31149
2.38889
2.45072
2.5
2.53919
2.57032
2.59506
2.61474
2.63037
2.64228
0.607486
0.884092
1.15748
1.4074
1.62725
1.81574
1.97449
2.10678
2.21632
2.30664
2.38092
2.44193
2.49203
2.5332
2.5671
2.59506
2.61804
2.63621
0.565821
0.793325
1.02685
1.25031
1.45568
1.63918
1.79968
1.93809
2.05638
2.15689
2.24198
2.31391
2.37469
2.4261
2.46967
2.50663
2.53783
2.56323
0.528748
0.712099
0.90519
1.09648
1.2787
1.44753
1.60048
1.73679
1.85692
1.96198
2.05342
2.13277
2.20156
2.26119
2.31295
2.35786
2.39661
2.42884
0.494654
0.637276
0.790593
0.947004
1.10079
1.24806
1.38605
1.51308
1.62853
1.73247
1.82545
1.90826
1.98183
2.04711
2.10501
2.15631
2.20144
2.23975
0.460677
0.562149
0.673155
0.789693
0.907924
1.02497
1.13851
1.24674
1.34849
1.44315
1.53052
1.61066
1.68388
1.75057
1.8112
1.86617
1.91563
1.95859
0.429347
0.492752
0.562807
0.638304
0.717371
0.798344
0.879727
0.960168
1.03857
1.11412
1.18626
1.25465
1.31911
1.37959
1.43613
1.48876
1.53735
1.58069
0.403169
0.435387
0.470982
0.510062
0.552202
0.596874
0.6435
0.691439
0.740044
0.788737
0.83702
0.884488
0.930812
0.97574
1.01908
1.06065
1.10018
1.13658
0.384083
0.394611
0.406485
0.419897
0.434852
0.451309
0.469207
0.488433
0.508829
0.530211
0.552385
0.575155
0.598327
0.62169
0.645063
0.668285
0.691151
0.713121
0.374047
0.37371
0.37409
0.375207
0.377038
0.379561
0.382764
0.386632
0.391144
0.396269
0.401974
0.408219
0.414961
0.422176
0.429819
0.437833
0.446152
0.454664
0.376606
0.378923
0.381988
0.385848
0.390481
0.395848
0.401915
0.408637
0.415956
0.423805
0.432114
0.440812
0.449828
0.459093
0.468545
0.478119
0.487743
0.497197
0.394946
0.417777
0.442953
0.470549
0.500286
0.531802
0.564708
0.59857
0.632941
0.667404
0.701592
0.735195
0.767961
0.799691
0.830237
0.859492
0.887331
0.913351
0.427769
0.489062
0.556223
0.628002
0.702563
0.778263
0.85367
0.927525
0.998818
1.06682
1.13107
1.19128
1.24734
1.29927
1.34715
1.39115
1.43141
1.46797
0.475738
0.594968
0.7236
0.855964
0.987175
1.11391
1.23378
1.34518
1.44729
1.5399
1.6232
1.69767
1.7639
1.8226
1.87445
1.92014
1.9603
1.99543
0.536844
0.728689
0.928615
1.12371
1.3064
1.47301
1.62179
1.75251
1.86605
1.96387
2.04763
2.11901
2.17963
2.23092
2.27421
2.31061
2.34112
2.36657
0.604139
0.873963
1.14015
1.38238
1.59446
1.77603
1.9288
2.05581
2.16059
2.24655
2.31673
2.37376
2.41986
2.45691
2.48646
2.5098
2.52801
2.54201
0.668313
1.00766
1.31642
1.57531
1.78708
1.958
2.09445
2.20263
2.28797
2.35495
2.40716
2.44753
2.47836
2.50152
2.51852
2.53054
2.53856
2.54346
0.717302
1.09919
1.41418
1.65888
1.84811
1.99398
2.1059
2.19143
2.25648
2.30555
2.34214
2.36894
2.38804
2.40107
2.40932
2.41379
2.4153
2.41458
0.735717
1.11862
1.40734
1.61983
1.77771
1.89572
1.98395
2.04966
2.09825
2.13376
2.15921
2.17688
2.18853
2.19548
2.19879
2.19927
2.19755
2.19423
0.708199
1.04716
1.29075
1.46557
1.59175
1.68428
1.75245
1.80244
1.83877
1.86479
1.88295
1.89508
1.90257
1.90648
1.90761
1.90661
1.90397
1.90016
0.616921
0.862574
1.0489
1.18265
1.27674
1.34491
1.39484
1.43127
1.45767
1.47657
1.48975
1.49856
1.50401
1.50686
1.5077
1.50699
1.5051
1.50241
0.33327
0.408789
0.496177
0.564095
0.616609
0.657445
0.689407
0.714717
0.734953
0.751243
0.764434
0.775171
0.783948
0.791149
0.797072
0.801956
0.805975
0.809309
0.00887474
0.0140717
0.0178084
0.0206116
0.0226995
0.0245727
0.026665
0.0288213
0.0310607
0.0334709
0.0362574
0.0398846
0.0439381
0.0483399
0.0530349
0.0580136
0.0632777
0.068826
0.0746509
0.0807394
0.087075
0.09364
0.100417
0.107393
0.114558
0.121907
0.129448
0.137194
0.145175
0.15338
0.161703
0.170127
0.178639
0.187232
0.195897
0.204628
0.213417
0.222261
0.231153
0.240089
0.249065
0.258077
0.267121
0.276193
0.285288
0.294402
0.303531
0.31267
0.321814
0.330959
0.340098
0.349226
0.358337
0.367426
0.376486
0.385511
0.394494
0.403429
0.412309
0.421128
0.429878
0.438553
0.447147
0.455652
0.464062
0.47237
0.48057
0.488656
0.496623
0.504467
0.512187
0.519787
0.527278
0.534683
0.542037
0.549207
0.556197
0.563011
0.569648
0.576104
0.582375
0.588457
0.594345
0.600034
0.60552
0.610799
0.615866
0.620719
0.625352
0.629764
0.63395
0.637909
0.641637
0.645133
0.648393
0.651415
0.654199
0.656742
0.659043
0.661101
0.662915
0.664484
0.665807
0.666884
0.667715
0.668299
0.668637
0.668729
0.668575
0.668176
0.667533
0.666646
0.665518
0.66415
0.662543
0.660699
0.65862
0.656309
0.653768
0.651001
0.648009
0.644797
0.641367
0.637725
0.633873
0.629816
0.625558
0.621105
0.616461
0.611632
0.606623
0.601439
0.596087
0.590573
0.584903
0.579082
0.573121
0.567021
0.5608
0.554458
0.548004
0.541503
0.535105
0.530261
0.526631
0.523012
0.51931
0.515519
0.51164
0.507679
0.503641
0.49953
0.495352
0.491112
0.486816
0.48247
0.478078
0.473646
0.46918
0.464684
0.460165
0.455626
0.451074
0.446512
0.441946
0.437378
0.432811
0.428249
0.423691
0.419136
0.414581
0.410017
0.405429
0.400788
0.396047
0.39111
0.385772
0.379495
0.371529
0.360829
0.0183539
0.0293015
0.0386586
0.0462362
0.0531734
0.0598355
0.0662484
0.0728036
0.0797574
0.0871811
0.0950498
0.103303
0.111847
0.120628
0.129632
0.138867
0.148351
0.158101
0.168134
0.178463
0.189101
0.200054
0.211331
0.222934
0.234865
0.247122
0.2597
0.272592
0.285786
0.299264
0.313008
0.327005
0.341243
0.355711
0.370396
0.385287
0.400375
0.415649
0.4311
0.446719
0.462499
0.47843
0.494505
0.510717
0.527058
0.543521
0.560097
0.576777
0.593554
0.610419
0.627362
0.644373
0.661443
0.67856
0.695713
0.712892
0.730083
0.747276
0.764457
0.781615
0.798736
0.815807
0.832816
0.849749
0.866594
0.883338
0.899968
0.91647
0.932834
0.949046
0.965095
0.980966
0.996648
1.01213
1.02721
1.04202
1.05658
1.07087
1.08491
1.09866
1.11214
1.12532
1.1382
1.15076
1.163
1.1749
1.18645
1.19766
1.2085
1.21897
1.22906
1.23877
1.24809
1.257
1.26551
1.27361
1.28129
1.28855
1.29538
1.30178
1.30775
1.31327
1.31835
1.32298
1.32716
1.33089
1.33417
1.33699
1.33935
1.34125
1.34269
1.34367
1.34419
1.34424
1.34384
1.34298
1.34166
1.33988
1.33765
1.33497
1.33184
1.32826
1.32424
1.31979
1.31491
1.3096
1.30388
1.29774
1.29119
1.28425
1.27692
1.26921
1.26112
1.25268
1.24388
1.23474
1.22527
1.21546
1.20537
1.19498
1.18427
1.17341
1.16241
1.15149
1.14062
1.12959
1.11838
1.10699
1.09542
1.08371
1.07185
1.05987
1.04777
1.03556
1.02327
1.0109
0.998472
0.98599
0.973469
0.960922
0.948361
0.935797
0.923241
0.910706
0.8982
0.885733
0.873315
0.860953
0.848654
0.836422
0.824259
0.812164
0.800131
0.788145
0.776182
0.764202
0.752108
0.739768
0.725606
0.710454
0.0266341
0.0467164
0.0605088
0.0712492
0.0805223
0.0890982
0.0975903
0.10635
0.115551
0.125228
0.135331
0.145785
0.156524
0.167517
0.178767
0.190302
0.20216
0.214381
0.227003
0.240056
0.253561
0.267534
0.281978
0.296892
0.312266
0.328086
0.34433
0.360977
0.378
0.395374
0.413074
0.431078
0.449366
0.467918
0.486717
0.505747
0.524995
0.544448
0.564094
0.583925
0.603929
0.6241
0.644427
0.664905
0.685523
0.706274
0.72715
0.748142
0.76924
0.790435
0.811715
0.833071
0.854491
0.875961
0.89747
0.919005
0.940551
0.962094
0.98362
1.00511
1.02656
1.04794
1.06925
1.09046
1.11156
1.13253
1.15336
1.17404
1.19455
1.21487
1.235
1.25492
1.27462
1.29402
1.31311
1.33189
1.35036
1.36851
1.38632
1.40379
1.4209
1.43764
1.45399
1.46994
1.48547
1.50058
1.51525
1.52947
1.54323
1.55652
1.56932
1.58164
1.59345
1.60475
1.61553
1.62579
1.63551
1.6447
1.65334
1.66142
1.66895
1.67592
1.68232
1.68815
1.69341
1.69808
1.70218
1.7057
1.70863
1.71097
1.71273
1.7139
1.71449
1.71448
1.71389
1.71271
1.71095
1.70861
1.7057
1.7022
1.69814
1.69351
1.68833
1.68259
1.6763
1.66947
1.66211
1.65422
1.64583
1.63692
1.62752
1.61764
1.60729
1.59648
1.58522
1.57352
1.56141
1.54886
1.53598
1.52276
1.5092
1.49538
1.48132
1.46716
1.45286
1.43836
1.42364
1.4087
1.39356
1.37822
1.36271
1.34705
1.33125
1.31532
1.29928
1.28316
1.26697
1.25071
1.23442
1.2181
1.20177
1.18544
1.16913
1.15286
1.13663
1.12046
1.10436
1.08835
1.07243
1.05661
1.0409
1.0253
1.00983
0.994467
0.979226
0.964106
0.949097
0.934237
0.919016
0.903436
0.0338914
0.0635845
0.0814538
0.0943195
0.105113
0.115078
0.124869
0.134858
0.145239
0.156076
0.167355
0.179037
0.191087
0.203493
0.216272
0.229455
0.243083
0.257195
0.271825
0.286995
0.302718
0.318997
0.335826
0.35319
0.371067
0.389434
0.408262
0.427522
0.447185
0.467224
0.487612
0.508326
0.529345
0.550651
0.572227
0.594058
0.616131
0.638435
0.660959
0.683695
0.706632
0.729765
0.753083
0.77658
0.800248
0.824077
0.848059
0.872184
0.896443
0.920823
0.945315
0.969905
0.99458
1.01933
1.04413
1.06897
1.09384
1.11872
1.14359
1.16843
1.19323
1.21796
1.24262
1.26717
1.29161
1.31591
1.34006
1.36403
1.38782
1.4114
1.43476
1.45788
1.48074
1.50328
1.52547
1.54732
1.56881
1.58993
1.61065
1.63097
1.65087
1.67033
1.68933
1.70787
1.72591
1.74346
1.76048
1.77698
1.79293
1.80833
1.82316
1.83742
1.85108
1.86414
1.87659
1.88843
1.89963
1.91021
1.92014
1.92942
1.93805
1.94602
1.95332
1.95996
1.96592
1.97121
1.97581
1.97974
1.98298
1.98553
1.9874
1.98859
1.98908
1.9889
1.98802
1.98647
1.98423
1.98132
1.97774
1.97349
1.96858
1.96301
1.95679
1.94992
1.94243
1.9343
1.92556
1.91621
1.90627
1.89574
1.88464
1.87299
1.86078
1.84805
1.8348
1.82103
1.80683
1.79218
1.77711
1.76165
1.74582
1.72965
1.7132
1.69653
1.67964
1.66251
1.64513
1.62751
1.60966
1.5916
1.57334
1.55491
1.53633
1.51761
1.49878
1.47985
1.46085
1.44179
1.42268
1.40356
1.38443
1.36532
1.34623
1.3272
1.30822
1.28933
1.27053
1.25183
1.23326
1.21482
1.19653
1.1784
1.16044
1.14267
1.12512
1.10782
1.09084
1.07431
1.05814
1.04238
0.0396412
0.0787677
0.0996644
0.114413
0.12662
0.137703
0.148409
0.159175
0.170248
0.18175
0.193724
0.206177
0.219106
0.232516
0.246427
0.260864
0.275857
0.291432
0.307609
0.324398
0.3418
0.359807
0.378403
0.397569
0.417278
0.437505
0.458219
0.479394
0.501001
0.523015
0.545411
0.56817
0.591271
0.614698
0.638436
0.662471
0.686792
0.711387
0.736248
0.761365
0.78673
0.812335
0.838172
0.864231
0.890505
0.916984
0.943657
0.970515
0.997546
1.02474
1.05208
1.07955
1.10713
1.13482
1.1626
1.19044
1.21832
1.24624
1.27416
1.30207
1.32994
1.35776
1.3855
1.41315
1.44067
1.46804
1.49526
1.52228
1.5491
1.57569
1.60203
1.62811
1.65388
1.67929
1.70432
1.72897
1.7532
1.77701
1.80038
1.82328
1.8457
1.86762
1.88902
1.90988
1.93018
1.94991
1.96905
1.98758
2.0055
2.02277
2.0394
2.05537
2.07067
2.08528
2.0992
2.11242
2.12492
2.13669
2.14774
2.15805
2.16762
2.17643
2.18449
2.1918
2.19834
2.20411
2.20911
2.21334
2.2168
2.21948
2.22139
2.22252
2.22287
2.22246
2.22127
2.21931
2.21659
2.21311
2.20887
2.20388
2.19814
2.19167
2.18447
2.17654
2.16791
2.15858
2.14855
2.13784
2.12647
2.11445
2.10179
2.08851
2.0746
2.06013
2.0451
2.02954
2.01346
1.9969
1.97987
1.9624
1.94452
1.92626
1.90766
1.88876
1.8696
1.85016
1.83044
1.81046
1.79023
1.76977
1.7491
1.72825
1.70724
1.68609
1.66481
1.64344
1.62199
1.60049
1.57895
1.55739
1.53584
1.51432
1.49284
1.47142
1.45008
1.42883
1.40771
1.38672
1.36588
1.3452
1.32472
1.30444
1.28439
1.2646
1.24511
1.22601
1.20739
1.18945
1.17225
1.15592
0.0462323
0.0908502
0.114472
0.131002
0.144506
0.15657
0.168036
0.179406
0.190988
0.202961
0.215426
0.22843
0.242001
0.256157
0.270918
0.286301
0.302324
0.319001
0.336337
0.354333
0.37298
0.392266
0.412172
0.432677
0.453755
0.475381
0.497531
0.520177
0.543298
0.56687
0.590872
0.615287
0.640098
0.665289
0.690848
0.716761
0.743019
0.769611
0.796528
0.823761
0.851301
0.87914
0.907268
0.935677
0.964356
0.993296
1.02248
1.05191
1.08156
1.11141
1.14146
1.17168
1.20206
1.23258
1.26322
1.29396
1.32477
1.35564
1.38653
1.41743
1.44831
1.47914
1.5099
1.54056
1.5711
1.60149
1.63171
1.66172
1.6915
1.72104
1.7503
1.77926
1.80786
1.83606
1.86385
1.89119
1.91808
1.9445
1.97041
1.9958
2.02065
2.04493
2.06863
2.09172
2.11418
2.136
2.15715
2.17762
2.1974
2.21646
2.2348
2.25239
2.26923
2.2853
2.30059
2.31509
2.32879
2.34169
2.35377
2.36502
2.37544
2.38503
2.39377
2.40167
2.40872
2.41491
2.42025
2.42473
2.42834
2.4311
2.433
2.43403
2.43421
2.43353
2.432
2.42961
2.42638
2.42231
2.41741
2.41167
2.40512
2.39775
2.38958
2.38061
2.37087
2.36035
2.34906
2.33705
2.3243
2.31082
2.29666
2.28183
2.26635
2.25025
2.23354
2.21625
2.1984
2.18002
2.16113
2.14176
2.12193
2.10169
2.08106
2.06009
2.0388
2.0172
1.9953
1.97312
1.95068
1.928
1.90509
1.882
1.85873
1.83532
1.81179
1.78816
1.76445
1.74069
1.71691
1.69311
1.66933
1.64559
1.62191
1.5983
1.5748
1.55141
1.52816
1.50508
1.48217
1.45946
1.43699
1.41476
1.39282
1.37121
1.35
1.32927
1.30916
1.28988
1.27155
1.25435
0.0533865
0.10037
0.126016
0.143993
0.158608
0.171546
0.183705
0.195629
0.207672
0.220059
0.232933
0.246378
0.260444
0.275165
0.290559
0.306641
0.323421
0.340903
0.359085
0.377961
0.39752
0.417748
0.438626
0.460135
0.482252
0.504958
0.528229
0.552046
0.576388
0.601238
0.626578
0.652393
0.678669
0.705393
0.732553
0.760138
0.788139
0.816545
0.845348
0.874538
0.904108
0.934046
0.964343
0.99499
1.02597
1.05728
1.0889
1.12082
1.15302
1.18549
1.2182
1.25114
1.28428
1.31761
1.35109
1.38471
1.41844
1.45225
1.48611
1.52
1.55388
1.58772
1.62151
1.65519
1.68875
1.72215
1.75537
1.78837
1.82112
1.85359
1.88576
1.91759
1.94901
1.97998
2.0105
2.04052
2.07004
2.09903
2.12745
2.15529
2.18253
2.20914
2.23509
2.26036
2.28494
2.3088
2.33191
2.35427
2.37586
2.39665
2.41663
2.43579
2.45411
2.47158
2.48819
2.50392
2.51877
2.53273
2.54578
2.55792
2.56915
2.57945
2.58882
2.59726
2.60477
2.61133
2.61696
2.62164
2.62537
2.62816
2.63001
2.63091
2.63088
2.62991
2.628
2.62516
2.6214
2.61672
2.61113
2.60464
2.59725
2.58898
2.57983
2.56982
2.55897
2.54728
2.53474
2.52143
2.50733
2.49247
2.47686
2.46054
2.44352
2.42582
2.40747
2.3885
2.36893
2.34878
2.32808
2.30687
2.28516
2.263
2.24043
2.21746
2.19414
2.17048
2.1465
2.12222
2.09767
2.07286
2.04783
2.02259
1.99718
1.97163
1.94595
1.92018
1.89433
1.86844
1.84253
1.81662
1.79074
1.7649
1.73914
1.71348
1.68793
1.66253
1.63729
1.61223
1.58739
1.56278
1.53844
1.5144
1.4907
1.46739
1.44456
1.42231
1.40079
1.38018
1.36061
1.34222
0.0594593
0.107336
0.134429
0.153528
0.169063
0.182771
0.195571
0.208031
0.220528
0.233316
0.246565
0.260387
0.274851
0.29
0.305861
0.322447
0.339766
0.357818
0.376601
0.396105
0.416321
0.437236
0.458833
0.481097
0.504012
0.527561
0.551727
0.576495
0.60185
0.627777
0.654263
0.681296
0.708866
0.73696
0.76557
0.794686
0.824299
0.8544
0.884979
0.916029
0.947539
0.979498
1.0119
1.04472
1.07796
1.1116
1.14562
1.18001
1.21475
1.24982
1.28519
1.32084
1.35676
1.3929
1.42925
1.46577
1.50243
1.53921
1.57606
1.61296
1.64986
1.68675
1.72357
1.7603
1.7969
1.83334
1.86957
1.90557
1.94129
1.97672
2.01179
2.0465
2.08073
2.11447
2.1477
2.1804
2.21252
2.24406
2.27497
2.30524
2.33483
2.36373
2.3919
2.41932
2.44597
2.47182
2.49686
2.52106
2.5444
2.56687
2.58845
2.60912
2.62888
2.6477
2.66557
2.68248
2.69843
2.71339
2.72736
2.74034
2.75232
2.76329
2.77324
2.78218
2.79009
2.79698
2.80285
2.80769
2.8115
2.81428
2.81604
2.81678
2.8165
2.8152
2.81289
2.80957
2.80525
2.79994
2.79364
2.78638
2.77815
2.76896
2.75882
2.74776
2.7358
2.72294
2.70921
2.69462
2.6792
2.66296
2.64593
2.62813
2.60959
2.59032
2.57037
2.54974
2.52848
2.5066
2.48414
2.46113
2.43759
2.41357
2.38909
2.3642
2.33891
2.31327
2.28728
2.26098
2.23439
2.20755
2.18046
2.15318
2.12571
2.0981
2.07036
2.04254
2.01464
1.98671
1.95877
1.93084
1.90294
1.87511
1.84737
1.81974
1.79225
1.76493
1.73779
1.71086
1.68418
1.65776
1.63166
1.60589
1.58052
1.55561
1.53124
1.50752
1.48461
1.46267
1.44179
1.42208
0.0643991
0.111996
0.140027
0.159945
0.176206
0.190564
0.203942
0.216909
0.229848
0.243024
0.256624
0.270775
0.285561
0.301036
0.317234
0.334172
0.351861
0.370303
0.389497
0.409436
0.430114
0.451521
0.473647
0.496481
0.520013
0.544231
0.569124
0.594682
0.620895
0.647753
0.675248
0.703371
0.732113
0.761466
0.791423
0.821976
0.853117
0.884837
0.917128
0.949979
0.983382
1.01732
1.05179
1.08678
1.12226
1.15822
1.19464
1.23151
1.26879
1.30647
1.34452
1.38292
1.42162
1.46061
1.49985
1.5393
1.57892
1.61869
1.65856
1.6985
1.73846
1.7784
1.81829
1.85808
1.89774
1.93721
1.97647
2.01547
2.05417
2.09253
2.13053
2.16806
2.20509
2.24157
2.27749
2.31282
2.34752
2.38157
2.41493
2.44757
2.47948
2.51061
2.54095
2.57046
2.59913
2.62691
2.65381
2.67979
2.70483
2.72891
2.75202
2.77415
2.79527
2.81537
2.83445
2.85248
2.86945
2.88536
2.9002
2.91395
2.92662
2.9382
2.94867
2.95805
2.96633
2.97349
2.97955
2.98451
2.98835
2.99108
2.99271
2.99324
2.99268
2.99102
2.98827
2.98444
2.97955
2.97358
2.96655
2.95849
2.9494
2.9393
2.92818
2.91609
2.90303
2.88902
2.87408
2.85824
2.8415
2.82391
2.80547
2.78621
2.76617
2.74537
2.72383
2.70159
2.67867
2.6551
2.63092
2.60615
2.58083
2.55499
2.52867
2.5019
2.47472
2.44716
2.41924
2.39099
2.36244
2.33363
2.30457
2.27531
2.24586
2.21627
2.18657
2.15677
2.12691
2.09702
2.06713
2.03726
2.00744
1.9777
1.94806
1.91856
1.88921
1.86005
1.83109
1.80238
1.77394
1.7458
1.71801
1.6906
1.66364
1.63718
1.61133
1.58619
1.56191
1.53862
1.5164
1.49532
0.0682516
0.114665
0.143203
0.163668
0.180466
0.195346
0.209217
0.222638
0.235983
0.24952
0.263438
0.277873
0.292918
0.308637
0.32507
0.342244
0.360174
0.378868
0.39833
0.418558
0.439553
0.461309
0.483824
0.507093
0.53111
0.555872
0.581374
0.60761
0.634576
0.662268
0.690681
0.719809
0.749649
0.780195
0.811441
0.84338
0.876007
0.909312
0.943288
0.977924
1.01321
1.04913
1.08567
1.12282
1.16055
1.19885
1.2377
1.27706
1.31692
1.35725
1.39801
1.43917
1.4807
1.52256
1.56471
1.60712
1.64973
1.69251
1.73542
1.7784
1.82142
1.86442
1.90737
1.95021
1.9929
2.0354
2.07765
2.11962
2.16127
2.20254
2.24339
2.28371
2.32347
2.36264
2.40118
2.43907
2.47627
2.51275
2.54848
2.58343
2.61756
2.65085
2.68327
2.71478
2.74537
2.77501
2.80367
2.83133
2.85798
2.88359
2.90814
2.93163
2.95403
2.97533
2.99552
3.01458
3.03251
3.04929
3.06491
3.07937
3.09265
3.10477
3.1157
3.12545
3.13403
3.14141
3.14761
3.15262
3.15644
3.15908
3.16054
3.16082
3.15993
3.15787
3.15465
3.15029
3.14479
3.13815
3.1304
3.12154
3.11159
3.10057
3.08848
3.07536
3.06121
3.04606
3.02993
3.01284
2.99481
2.97587
2.95605
2.93537
2.91386
2.89155
2.86847
2.84464
2.82011
2.7949
2.76904
2.74257
2.71551
2.68792
2.65982
2.63125
2.60224
2.57283
2.54304
2.51292
2.4825
2.45179
2.42085
2.38969
2.35835
2.32687
2.29527
2.26359
2.23185
2.20009
2.16834
2.13662
2.10496
2.0734
2.04195
2.01066
1.97954
1.94862
1.91794
1.88753
1.85741
1.82763
1.79823
1.76925
1.74076
1.71283
1.68554
1.65902
1.63338
1.60876
1.58518
1.56271
0.071079
0.115657
0.144354
0.165137
0.182299
0.197568
0.211833
0.225632
0.239329
0.253179
0.267371
0.282042
0.297289
0.313185
0.329777
0.347101
0.365178
0.384026
0.403654
0.42407
0.445281
0.46729
0.4901
0.513715
0.538136
0.563366
0.589407
0.616259
0.643923
0.672401
0.701692
0.731794
0.762707
0.794428
0.826953
0.860277
0.894395
0.929297
0.964975
1.00142
1.03861
1.07654
1.11519
1.15455
1.19457
1.23526
1.27657
1.31847
1.36095
1.40395
1.44746
1.49142
1.5358
1.58055
1.62563
1.671
1.7166
1.76239
1.80831
1.85432
1.90036
1.94639
1.99234
2.03818
2.08385
2.1293
2.17448
2.21935
2.26385
2.30795
2.35153
2.39453
2.43691
2.47864
2.51969
2.56003
2.5996
2.63839
2.67636
2.71347
2.7497
2.78501
2.81937
2.85276
2.88514
2.91649
2.94678
2.976
3.00412
3.03113
3.05701
3.08173
3.10529
3.12768
3.14887
3.16886
3.18764
3.20519
3.22149
3.23656
3.25037
3.26293
3.27424
3.28429
3.29309
3.30062
3.30689
3.31189
3.31564
3.31812
3.31936
3.31935
3.3181
3.31562
3.31191
3.30699
3.30087
3.29355
3.28506
3.2754
3.2646
3.25266
3.2396
3.22546
3.21023
3.19396
3.17665
3.15834
3.13905
3.11881
3.09763
3.07557
3.05263
3.02885
3.00427
2.97892
2.95283
2.92603
2.89855
2.87044
2.84172
2.81244
2.78263
2.75233
2.72158
2.69041
2.65885
2.62695
2.59473
2.56223
2.52949
2.49653
2.46339
2.43011
2.39672
2.36325
2.32973
2.29619
2.26267
2.2292
2.1958
2.16251
2.12935
2.09636
2.06356
2.03099
1.99867
1.96664
1.93493
1.90359
1.87266
1.84219
1.81224
1.78289
1.75422
1.72635
1.69939
1.67344
1.64852
1.62467
0.0729428
0.115259
0.143847
0.164761
0.182138
0.197672
0.212227
0.226321
0.240298
0.254403
0.268817
0.283674
0.299076
0.315098
0.331795
0.349212
0.367378
0.38632
0.406057
0.426606
0.447982
0.470196
0.493262
0.517189
0.541988
0.567667
0.594236
0.621701
0.65007
0.679348
0.709539
0.740645
0.772669
0.80561
0.839466
0.874232
0.909902
0.946468
0.98392
1.02224
1.06142
1.10144
1.14227
1.1839
1.22629
1.26942
1.31325
1.35775
1.40288
1.44861
1.49488
1.54166
1.58889
1.63653
1.68453
1.73283
1.78139
1.83013
1.87901
1.92797
1.97695
2.0259
2.07477
2.12349
2.17201
2.22028
2.26825
2.31586
2.36307
2.40981
2.45594
2.50144
2.54626
2.59038
2.63374
2.67632
2.71808
2.75897
2.79898
2.83807
2.8762
2.91334
2.94947
2.98453
3.01852
3.05139
3.08314
3.11374
3.14317
3.1714
3.19843
3.22424
3.24881
3.27212
3.29417
3.31496
3.33446
3.35264
3.36951
3.38506
3.3993
3.4122
3.42378
3.43404
3.44296
3.45056
3.45682
3.46176
3.46536
3.46765
3.46862
3.46828
3.46664
3.4637
3.45948
3.45399
3.44723
3.43922
3.42998
3.41953
3.40787
3.39502
3.38101
3.36586
3.34958
3.33221
3.31376
3.29427
3.27375
3.25224
3.22977
3.20636
3.18205
3.15687
3.13086
3.10404
3.07646
3.04814
3.01913
2.98946
2.95916
2.92828
2.89685
2.86492
2.83252
2.79968
2.76646
2.73287
2.69897
2.66478
2.63035
2.5957
2.56087
2.52591
2.49083
2.45568
2.42049
2.38529
2.35012
2.315
2.27997
2.24506
2.21029
2.17571
2.14133
2.1072
2.07334
2.03979
2.00659
1.97378
1.94141
1.90953
1.8782
1.84749
1.81751
1.78834
1.76009
1.73285
1.7066
1.68142
0.0738952
0.113716
0.142001
0.162908
0.18038
0.196071
0.21082
0.225123
0.239308
0.253608
0.268194
0.283197
0.298718
0.314837
0.331615
0.349104
0.367343
0.386368
0.406209
0.426893
0.448443
0.470882
0.49423
0.518508
0.543733
0.569921
0.597086
0.625244
0.654404
0.684579
0.715775
0.747999
0.781254
0.815541
0.850858
0.887199
0.924558
0.962924
1.00228
1.04262
1.08391
1.12613
1.16926
1.21326
1.25811
1.30376
1.35018
1.39733
1.44516
1.49362
1.54267
1.59225
1.64231
1.69279
1.74364
1.7948
1.84621
1.89779
1.9495
2.00126
2.05302
2.10471
2.15629
2.20769
2.25885
2.30972
2.36025
2.41037
2.46005
2.50912
2.55754
2.60527
2.65226
2.69847
2.74387
2.78842
2.83209
2.87482
2.9166
2.95738
2.99715
3.03587
3.0735
3.11
3.14534
3.1795
3.21247
3.24421
3.27472
3.30397
3.33194
3.35863
3.384
3.40806
3.43079
3.45218
3.47222
3.49088
3.50817
3.52408
3.53861
3.55175
3.56349
3.57385
3.58282
3.59039
3.59657
3.60137
3.60478
3.6068
3.60746
3.60675
3.60467
3.60125
3.59649
3.59041
3.58301
3.5743
3.56432
3.55306
3.54056
3.52683
3.51189
3.49576
3.47846
3.46003
3.44048
3.41985
3.39816
3.37545
3.35173
3.32706
3.30145
3.27495
3.24758
3.21938
3.1904
3.16066
3.1302
3.09907
3.0673
3.03492
3.00199
2.96853
2.9346
2.90022
2.86545
2.83031
2.79484
2.75909
2.72309
2.68688
2.65049
2.61397
2.57734
2.54064
2.5039
2.46717
2.43046
2.39383
2.35729
2.32088
2.28463
2.24857
2.21274
2.17716
2.14188
2.10692
2.07233
2.03816
2.00444
1.97123
1.93861
1.90663
1.8754
1.84499
1.8155
1.78701
1.7595
1.73303
0.0739702
0.111238
0.139087
0.159889
0.177368
0.193133
0.207998
0.222441
0.236775
0.251222
0.265947
0.281076
0.296711
0.312933
0.329811
0.347403
0.36576
0.384925
0.40494
0.42584
0.447662
0.470436
0.494195
0.518966
0.544775
0.571641
0.599586
0.628628
0.658785
0.690071
0.722495
0.756064
0.790782
0.826649
0.863661
0.90181
0.941084
0.981469
1.02294
1.06549
1.10907
1.15367
1.19924
1.24575
1.29316
1.34142
1.39049
1.44031
1.49084
1.54202
1.59379
1.6461
1.69888
1.75207
1.80562
1.85946
1.91354
1.96775
2.02204
2.07634
2.13059
2.18474
2.23873
2.29248
2.34595
2.39908
2.45182
2.50411
2.55582
2.60685
2.65718
2.70675
2.75552
2.80346
2.85052
2.89667
2.94186
2.98607
3.02925
3.07138
3.11242
3.15234
3.19112
3.22871
3.2651
3.30024
3.33414
3.36675
3.39807
3.42808
3.45675
3.48407
3.51004
3.53463
3.55783
3.57963
3.60003
3.619
3.63655
3.65266
3.66733
3.68057
3.69236
3.70271
3.71161
3.71907
3.72508
3.72966
3.73279
3.7345
3.73479
3.73366
3.73112
3.72718
3.72186
3.71517
3.70712
3.69772
3.68699
3.67496
3.66164
3.64704
3.6312
3.61413
3.59587
3.57643
3.55584
3.53414
3.51135
3.4875
3.46263
3.43677
3.40996
3.38222
3.3536
3.32413
3.29386
3.26281
3.23103
3.19856
3.16543
3.13169
3.09738
3.06254
3.02721
2.99143
2.95525
2.9187
2.88182
2.84465
2.80723
2.76961
2.7318
2.69387
2.65583
2.61773
2.57959
2.54147
2.50338
2.46537
2.42747
2.3897
2.3521
2.31471
2.27755
2.24066
2.20408
2.16784
2.13199
2.09656
2.0616
2.02718
1.99335
1.9602
1.92779
1.89622
1.86556
1.83588
1.80716
1.77947
0.0731889
0.107973
0.135314
0.155959
0.173399
0.189188
0.204121
0.218663
0.233118
0.2477
0.262568
0.277849
0.293644
0.31004
0.327112
0.344925
0.363538
0.383007
0.403381
0.424709
0.447034
0.4704
0.494846
0.520413
0.547139
0.575024
0.604101
0.634394
0.665923
0.698702
0.73274
0.768042
0.804608
0.842432
0.881506
0.921815
0.963338
1.00605
1.04993
1.09494
1.14105
1.18821
1.23638
1.28552
1.33557
1.38648
1.43819
1.49066
1.54381
1.59759
1.65193
1.70677
1.76204
1.81769
1.87363
1.92981
1.98615
2.04259
2.09905
2.15547
2.21179
2.26794
2.32386
2.3795
2.4348
2.48971
2.54417
2.59806
2.65127
2.70375
2.75547
2.80638
2.85643
2.90559
2.95382
3.00108
3.04734
3.09255
3.13669
3.17972
3.22161
3.26234
3.30187
3.34017
3.37722
3.41299
3.44746
3.48061
3.51243
3.54288
3.57196
3.59965
3.62593
3.6508
3.67424
3.69623
3.71678
3.73586
3.75348
3.76962
3.78428
3.79746
3.80916
3.81936
3.82809
3.83532
3.84108
3.84535
3.84815
3.84947
3.84933
3.84774
3.8447
3.84023
3.83433
3.82702
3.81831
3.80823
3.79678
3.784
3.76988
3.75447
3.73778
3.71983
3.70065
3.68028
3.65873
3.63604
3.61224
3.58736
3.56143
3.53449
3.50658
3.47773
3.44798
3.41737
3.38593
3.35371
3.32075
3.28708
3.25275
3.2178
3.18226
3.1462
3.10963
3.07262
3.03519
2.99739
2.95927
2.92085
2.88219
2.84331
2.80427
2.76509
2.72581
2.68648
2.64712
2.60777
2.56847
2.52924
2.49013
2.45116
2.41238
2.3738
2.33547
2.29742
2.25968
2.2223
2.18531
2.14875
2.11269
2.07717
2.04225
2.00802
1.97453
1.94188
1.91014
1.87935
1.8495
1.82068
0.0715057
0.103778
0.130635
0.151163
0.168574
0.184389
0.199393
0.21405
0.228662
0.243442
0.258544
0.274099
0.290215
0.306985
0.324491
0.342808
0.362004
0.382143
0.403287
0.425491
0.448809
0.473289
0.498977
0.525913
0.554133
0.58366
0.614519
0.646729
0.680304
0.715251
0.751573
0.789265
0.828317
0.868711
0.910427
0.953437
0.99771
1.04321
1.08989
1.13771
1.18663
1.23658
1.28752
1.33938
1.39212
1.44566
1.49995
1.55492
1.6105
1.66664
1.72326
1.78029
1.83767
1.89534
1.95322
2.01124
2.06935
2.12747
2.18553
2.24348
2.30124
2.35877
2.41601
2.47289
2.52938
2.58542
2.64087
2.69564
2.74968
2.80294
2.85539
2.90698
2.95767
3.00743
3.05621
3.10398
3.15071
3.19636
3.2409
3.2843
3.32652
3.36755
3.40735
3.44589
3.48316
3.51912
3.55375
3.58704
3.61896
3.6495
3.67863
3.70636
3.73264
3.75749
3.78088
3.8028
3.82324
3.8422
3.85966
3.87562
3.89007
3.90301
3.91444
3.92435
3.93275
3.93963
3.945
3.94886
3.95122
3.95207
3.95143
3.94931
3.94572
3.94066
3.93415
3.9262
3.91682
3.90605
3.89388
3.88035
3.86547
3.84926
3.83175
3.81297
3.79294
3.77168
3.74924
3.72563
3.7009
3.67507
3.64818
3.62027
3.59137
3.56151
3.53075
3.49912
3.46665
3.43339
3.39937
3.36465
3.32926
3.29324
3.25664
3.21949
3.18185
3.14376
3.10525
3.06637
3.02716
2.98767
2.94792
2.90797
2.86785
2.82759
2.78725
2.74684
2.70642
2.66601
2.62565
2.58538
2.54522
2.50521
2.46539
2.42578
2.38642
2.34735
2.3086
2.2702
2.23221
2.19466
2.15761
2.1211
2.0852
2.04998
2.01552
1.98188
1.94912
1.91731
1.88642
1.85654
0.0692573
0.0995817
0.125867
0.146235
0.163623
0.179493
0.194621
0.209469
0.224346
0.239472
0.255017
0.271117
0.28789
0.305438
0.323855
0.343224
0.363624
0.385126
0.407797
0.431698
0.456884
0.483404
0.5113
0.540606
0.571349
0.603547
0.637211
0.672345
0.708946
0.747003
0.786498
0.827408
0.869702
0.913344
0.958294
1.00451
1.05193
1.10052
1.15021
1.20096
1.25269
1.30535
1.35887
1.4132
1.46827
1.52401
1.58037
1.63727
1.69465
1.75245
1.8106
1.86904
1.9277
1.98653
2.04546
2.10442
2.16336
2.22222
2.28093
2.33944
2.3977
2.45565
2.51325
2.57043
2.62718
2.6833
2.73875
2.79348
2.84744
2.9006
2.95292
3.00435
3.05487
3.10444
3.15301
3.20056
3.24705
3.29246
3.33674
3.37987
3.42183
3.46258
3.5021
3.54035
3.57733
3.613
3.64734
3.68033
3.71195
3.74218
3.77101
3.79842
3.82439
3.84891
3.87197
3.89355
3.91365
3.93225
3.94935
3.96494
3.97901
3.99156
4.00258
4.01208
4.02005
4.02649
4.0314
4.03479
4.03665
4.03701
4.03585
4.0332
4.02905
4.02342
4.01633
4.00778
3.9978
3.98639
3.97359
3.95939
3.94384