/*--------------------------------*- C++ -*----------------------------------*\
| =========                 |                                                 |
| \\      /  F ield         | OpenFOAM: The Open Source CFD Toolbox           |
|  \\    /   O peration     | Version:  2412                                  |
|   \\  /    A nd           | Website:  www.openfoam.com                      |
|    \\/     M anipulation  |                                                 |
\*---------------------------------------------------------------------------*/
FoamFile
{
    version     2.0;
    format      ascii;
    arch        "LSB;label=32;scalar=64";
    class       volScalarField;
    location    "0.14";
    object      nut;
}
// * * * * * * * * * * * * * * * * * * * * * * * * * * * * * * * * * * * * * //

dimensions      [0 2 -1 0 0 0 0];

internalField   nonuniform List<scalar> 
12225
(
2.015e-05
2.24858e-05
2.4749e-05
2.63713e-05
2.75878e-05
2.8514e-05
2.92321e-05
2.97977e-05
3.0248e-05
3.06094e-05
3.09011e-05
3.11373e-05
3.13285e-05
3.14824e-05
3.16049e-05
3.16991e-05
3.17678e-05
3.18288e-05
0.000167792
0.000185428
0.000202597
0.000213786
0.000221145
0.000225984
0.000229001
0.000230719
0.000231514
0.000231643
0.000231292
0.000230594
0.00022965
0.000228531
0.000227296
0.00022597
0.00022471
0.000224077
0.000338328
0.000365993
0.000399361
0.000424406
0.000442778
0.000456137
0.000465647
0.000472247
0.000476656
0.000479408
0.000480904
0.000481445
0.000481262
0.000480528
0.000479375
0.000477903
0.000476303
0.000475479
0.000480631
0.00052177
0.000570121
0.000608389
0.000637801
0.000660208
0.000677096
0.000689689
0.00069895
0.000705622
0.000710277
0.000713356
0.000715203
0.000716083
0.000716205
0.000715737
0.000714914
0.000714451
0.000593569
0.000650966
0.000713489
0.000763784
0.000803282
0.000834121
0.000858086
0.000876627
0.000890893
0.000901781
0.000909995
0.000916085
0.000920487
0.000923543
0.000925529
0.00092667
0.000927224
0.000927706
0.000684416
0.000756655
0.000831949
0.000893052
0.000941624
0.000980102
0.00101056
0.00103465
0.00105369
0.0010687
0.00108048
0.00108966
0.00109677
0.00110221
0.0011063
0.00110933
0.00111154
0.00111333
0.000759755
0.000842838
0.00092829
0.000998647
0.00105522
0.00110054
0.00113687
0.00116606
0.00118953
0.00120842
0.00122362
0.00123584
0.00124564
0.00125349
0.00125975
0.00126474
0.00126872
0.00127198
0.000823623
0.000913363
0.00100525
0.00108261
0.00114578
0.00119702
0.00123858
0.00127237
0.00129992
0.00132244
0.00134087
0.00135598
0.0013684
0.00137862
0.00138705
0.00139402
0.00139977
0.00140454
0.000877001
0.000970914
0.0010653
0.00114672
0.00121456
0.00127046
0.0013164
0.00135422
0.00138543
0.00141127
0.00143273
0.0014506
0.00146554
0.00147807
0.00148863
0.00149754
0.00150505
0.00151131
0.000918256
0.00101593
0.00110995
0.00119241
0.00126253
0.00132141
0.00137056
0.00141158
0.00144588
0.00147465
0.00149885
0.00151928
0.00153661
0.00155138
0.00156401
0.00157484
0.00158408
0.00159181
0.000944751
0.00104624
0.0011388
0.00122006
0.00129016
0.00135005
0.00140091
0.00144404
0.00148062
0.00151173
0.00153826
0.00156097
0.00158049
0.00159735
0.00161197
0.00162466
0.0016356
0.00164477
0.00095393
0.00105647
0.00114713
0.00122621
0.0012948
0.00135414
0.00140529
0.00144932
0.00148722
0.00151989
0.00154814
0.00157263
0.00159394
0.00161256
0.00162889
0.00164322
0.00165568
0.00166615
0.000951547
0.0010519
0.0011407
0.00121792
0.00128483
0.00134291
0.00139338
0.00143727
0.00147548
0.00150882
0.00153799
0.00156359
0.00158613
0.00160605
0.0016237
0.00163935
0.00165306
0.00166463
0.000937268
0.00102694
0.00110962
0.00118334
0.00124795
0.00130436
0.00135364
0.00139679
0.00143467
0.00146805
0.00149757
0.00152377
0.00154711
0.00156797
0.00158667
0.00160343
0.00161826
0.0016308
0.000914069
0.000982523
0.00105001
0.00111403
0.00117279
0.00122569
0.00127284
0.00131466
0.00135174
0.00138467
0.00141403
0.00144031
0.00146393
0.00148525
0.00150454
0.001522
0.00153762
0.00155086
0.000888184
0.000929371
0.000972537
0.00101673
0.00106058
0.00110293
0.00114295
0.00118015
0.00121433
0.0012455
0.00127382
0.00129953
0.00132291
0.00134419
0.0013636
0.00138131
0.0013973
0.00141098
0.000866167
0.000882907
0.000901463
0.000921835
0.000943724
0.000966736
0.000990444
0.0010144
0.00103817
0.00106141
0.00108383
0.00110525
0.00112556
0.00114467
0.00116258
0.0011793
0.00119476
0.00120853
0.000853647
0.000856465
0.000860485
0.000865726
0.00087214
0.000879661
0.00088822
0.000897727
0.000908069
0.000919116
0.00093073
0.000942768
0.000955095
0.000967588
0.000980124
0.000992585
0.00100485
0.0010167
0.000856836
0.000863038
0.00087043
0.00087902
0.000888694
0.000899298
0.000910664
0.000922609
0.000934937
0.000947462
0.000960018
0.000972465
0.000984691
0.000996612
0.00100817
0.00101932
0.00103001
0.00104001
0.000879012
0.000910087
0.000942997
0.000977088
0.00101136
0.00104491
0.00107705
0.00110728
0.00113532
0.00116106
0.00118453
0.00120583
0.00122512
0.00124257
0.00125836
0.00127264
0.00128554
0.00129713
0.000912425
0.000978627
0.00104328
0.00110414
0.00115968
0.00120943
0.00125355
0.00129248
0.00132673
0.00135685
0.00138339
0.00140679
0.00142748
0.0014458
0.00146204
0.00147648
0.00148933
0.00150087
0.00094465
0.00103936
0.00112414
0.00119815
0.00126208
0.00131725
0.0013649
0.00140608
0.00144168
0.00147251
0.00149925
0.00152247
0.00154268
0.00156028
0.00157565
0.00158908
0.00160084
0.00161118
0.000952969
0.00105495
0.00114494
0.00122286
0.00128968
0.0013468
0.00139546
0.00143683
0.00147198
0.00150188
0.00152733
0.00154905
0.0015676
0.00158348
0.00159708
0.00160874
0.00161874
0.0016273
0.000919763
0.00101577
0.00110711
0.00118655
0.00125365
0.00130982
0.00135662
0.00139555
0.00142799
0.00145507
0.00147771
0.00149667
0.00151258
0.00152593
0.00153714
0.00154654
0.00155442
0.00156096
0.000847921
0.000936213
0.00102591
0.00110193
0.0011644
0.00121544
0.00125709
0.00129112
0.00131899
0.00134186
0.00136064
0.00137608
0.00138877
0.00139919
0.00140772
0.00141468
0.00142032
0.0014248
0.000748242
0.000825345
0.000905837
0.000972006
0.00102523
0.00106796
0.00110226
0.00112982
0.00115199
0.00116982
0.00118415
0.00119563
0.00120479
0.00121206
0.00121778
0.00122223
0.00122561
0.00122806
0.000620839
0.000679398
0.000743805
0.000795903
0.000837073
0.000869524
0.000895048
0.000915074
0.000930741
0.000942942
0.000952379
0.000959603
0.00096505
0.000969067
0.00097193
0.00097386
0.00097503
0.000975558
0.000453206
0.00049108
0.000536514
0.000572229
0.00059936
0.000619978
0.000635561
0.000647221
0.000655841
0.000662101
0.000666521
0.000669503
0.000671357
0.000672328
0.000672606
0.00067234
0.000671649
0.000670632
0.00023657
0.000259231
0.000284033
0.000301437
0.000313163
0.000321244
0.000326757
0.000330376
0.000332604
0.000333806
0.000334245
0.000334114
0.00033356
0.000332691
0.000331591
0.000330324
0.00032894
0.000327502
2.7242e-05
3.0171e-05
3.32398e-05
3.54419e-05
3.70549e-05
3.82622e-05
3.91812e-05
3.9894e-05
4.04548e-05
4.09007e-05
4.12582e-05
4.15469e-05
4.17815e-05
4.19729e-05
4.21298e-05
4.22586e-05
4.23644e-05
4.24519e-05
5.57714e-06
1.4995e-05
1.68631e-05
1.81356e-05
1.90254e-05
1.97863e-05
2.06032e-05
2.14114e-05
2.22183e-05
2.30538e-05
2.39812e-05
2.51391e-05
2.63726e-05
2.76491e-05
2.89473e-05
3.02615e-05
3.15902e-05
3.2931e-05
3.42807e-05
3.56352e-05
3.69904e-05
3.83422e-05
3.96876e-05
4.10243e-05
4.2351e-05
4.3668e-05
4.49768e-05
4.62804e-05
4.75838e-05
4.88863e-05
5.01707e-05
5.14353e-05
5.26798e-05
5.39044e-05
5.51091e-05
5.62941e-05
5.74598e-05
5.86065e-05
5.97346e-05
6.08446e-05
6.19368e-05
6.30115e-05
6.40692e-05
6.51102e-05
6.61346e-05
6.71428e-05
6.81348e-05
6.91109e-05
7.00712e-05
7.10157e-05
7.19444e-05
7.28573e-05
7.37545e-05
7.46358e-05
7.55011e-05
7.63504e-05
7.71835e-05
7.80004e-05
7.88008e-05
7.95847e-05
8.03518e-05
8.11021e-05
8.18353e-05
8.25514e-05
8.32501e-05
8.39314e-05
8.45951e-05
8.52412e-05
8.58695e-05
8.64803e-05
8.70737e-05
8.76505e-05
8.82119e-05
8.87601e-05
8.92986e-05
8.98164e-05
9.03142e-05
9.07927e-05
9.12523e-05
9.16929e-05
9.21146e-05
9.25173e-05
9.29009e-05
9.32654e-05
9.36108e-05
9.39369e-05
9.42437e-05
9.45312e-05
9.47994e-05
9.50483e-05
9.52778e-05
9.54879e-05
9.56788e-05
9.58503e-05
9.60025e-05
9.61354e-05
9.62491e-05
9.63436e-05
9.64189e-05
9.64752e-05
9.65124e-05
9.65306e-05
9.65299e-05
9.65103e-05
9.6472e-05
9.64149e-05
9.63393e-05
9.6245e-05
9.61323e-05
9.60012e-05
9.58519e-05
9.56843e-05
9.54987e-05
9.52952e-05
9.50738e-05
9.48347e-05
9.4578e-05
9.43039e-05
9.40126e-05
9.37041e-05
9.33787e-05
9.30365e-05
9.26778e-05
9.23027e-05
9.19114e-05
9.15042e-05
9.10814e-05
9.06431e-05
9.01896e-05
8.97212e-05
8.92382e-05
8.87409e-05
8.82295e-05
8.77045e-05
8.71662e-05
8.66148e-05
8.60509e-05
8.54746e-05
8.4887e-05
8.4288e-05
8.3678e-05
8.30619e-05
8.24503e-05
8.19515e-05
8.15504e-05
8.11497e-05
8.07416e-05
8.03254e-05
7.99012e-05
7.94695e-05
7.90305e-05
7.85845e-05
7.8132e-05
7.76734e-05
7.7209e-05
7.67391e-05
7.62643e-05
7.57849e-05
7.53013e-05
7.48139e-05
7.4323e-05
7.38292e-05
7.33326e-05
7.28337e-05
7.23329e-05
7.18303e-05
7.13263e-05
7.0821e-05
7.03145e-05
6.98066e-05
6.92969e-05
6.87848e-05
6.8269e-05
6.7747e-05
6.72146e-05
6.66637e-05
6.60763e-05
6.54056e-05
6.45839e-05
6.35167e-05
8.02107e-06
3.72991e-05
7.26982e-05
9.94605e-05
0.000117831
0.000129437
0.000136
0.000140621
0.000144796
0.000148989
0.000153187
0.000157292
0.000161392
0.000165564
0.000169889
0.000174445
0.0001793
0.00018451
0.000190114
0.000196136
0.000202586
0.000209462
0.000216752
0.000224434
0.000232478
0.00024085
0.000249511
0.000258422
0.000267549
0.000276871
0.000286373
0.000296035
0.000305832
0.000315744
0.000325751
0.000335835
0.000345982
0.000356178
0.000366412
0.000376676
0.000386962
0.000397264
0.000407577
0.000417896
0.000428219
0.000438541
0.000448861
0.000459174
0.000469477
0.000479768
0.000490043
0.000500298
0.000510529
0.000520732
0.000530902
0.000541035
0.000551126
0.000561169
0.00057116
0.000581092
0.000590961
0.000600761
0.000610487
0.000620132
0.000629692
0.000639161
0.000648532
0.000657798
0.00066695
0.000675975
0.000684854
0.00069356
0.000702051
0.000710269
0.000717798
0.000725099
0.00073225
0.000739261
0.000746134
0.000752867
0.000759458
0.000765904
0.000772203
0.000778352
0.00078435
0.000790193
0.000795881
0.00080141
0.00080678
0.000811988
0.000817032
0.000821913
0.000826627
0.000831174
0.000835553
0.000839762
0.000843801
0.00084767
0.000851366
0.000854889
0.000858239
0.000861416
0.000864417
0.000867245
0.000869896
0.000872372
0.000874672
0.000876795
0.000878742
0.000880511
0.000882103
0.000883518
0.000884755
0.000885814
0.000886695
0.000887399
0.000887926
0.000888275
0.000888447
0.000888442
0.00088826
0.000887903
0.000887371
0.000886665
0.000885785
0.000884733
0.000883509
0.000882116
0.000880554
0.000878826
0.000876932
0.000874875
0.000872657
0.000870281
0.000867748
0.000865059
0.000862224
0.000859236
0.000856108
0.000852842
0.000849416
0.000845767
0.000841679
0.000836302
0.000829836
0.000822984
0.000815938
0.000808757
0.000801464
0.000794075
0.000786597
0.000779039
0.000771408
0.000763711
0.000755952
0.00074814
0.000740278
0.000732374
0.000724432
0.000716459
0.000708459
0.000700439
0.000692403
0.000684355
0.000676302
0.000668248
0.000660196
0.00065215
0.000644113
0.000636087
0.000628072
0.000620068
0.000612068
0.000604062
0.000596029
0.000587931
0.000579661
0.000570932
0.000557646
0.000534155
9.66274e-06
6.12007e-05
0.000119874
0.000163676
0.000193414
0.000212848
0.00022582
0.000235301
0.00024326
0.000250798
0.000258429
0.000266375
0.000274763
0.000283683
0.000293222
0.000303466
0.000314492
0.000326364
0.000339122
0.000352785
0.000367347
0.000382782
0.000399048
0.000416086
0.000433828
0.000452201
0.00047113
0.000490543
0.000510371
0.000530556
0.000551044
0.000571787
0.000592737
0.000613856
0.000635108
0.000656463
0.000677899
0.000699394
0.000720932
0.000742499
0.000764086
0.000785683
0.000807283
0.00082888
0.000850466
0.000872038
0.000893588
0.000915112
0.000936602
0.000958051
0.000979453
0.0010008
0.00102208
0.00104328
0.00106441
0.00108543
0.00110635
0.00112716
0.00114783
0.00116836
0.00118874
0.00120895
0.00122897
0.00124881
0.00126843
0.00128782
0.00130697
0.00132586
0.00134447
0.00136276
0.00138072
0.00139829
0.00141545
0.00143201
0.00144799
0.00146359
0.00147887
0.00149384
0.00150852
0.00152289
0.00153695
0.00155069
0.00156412
0.00157722
0.00159
0.00160244
0.00161454
0.00162629
0.0016377
0.00164876
0.00165946
0.00166981
0.00167979
0.00168942
0.00169867
0.00170756
0.00171608
0.00172422
0.00173199
0.00173938
0.0017464
0.00175304
0.0017593
0.00176518
0.00177067
0.00177579
0.00178052
0.00178486
0.00178882
0.0017924
0.00179559
0.0017984
0.00180082
0.00180285
0.0018045
0.00180576
0.00180663
0.00180712
0.00180723
0.00180695
0.00180629
0.00180525
0.00180383
0.00180204
0.00179987
0.00179732
0.00179441
0.00179113
0.00178749
0.00178349
0.00177913
0.00177443
0.00176937
0.00176398
0.00175826
0.00175221
0.00174585
0.00173918
0.0017322
0.00172492
0.0017173
0.0017092
0.00170036
0.0016902
0.00167881
0.0016667
0.00165414
0.00164125
0.00162809
0.00161469
0.00160108
0.00158726
0.00157327
0.0015591
0.00154478
0.00153032
0.00151573
0.00150102
0.0014862
0.00147129
0.0014563
0.00144123
0.00142611
0.00141093
0.00139571
0.00138045
0.00136518
0.00134988
0.00133458
0.00131927
0.00130395
0.00128862
0.00127326
0.00125784
0.00124232
0.00122656
0.00121031
0.00119281
0.00117026
0.00113275
1.09002e-05
8.06432e-05
0.000156691
0.000212927
0.000252178
0.000279361
0.000298687
0.000313423
0.000325885
0.000337561
0.000349322
0.000361639
0.000374768
0.00038886
0.000404018
0.000420317
0.000437814
0.000456543
0.000476512
0.000497703
0.000520074
0.000543561
0.000568086
0.000593558
0.000619883
0.000646962
0.0006747
0.000703007
0.000731802
0.000761008
0.00079056
0.000820399
0.000850473
0.000880737
0.000911153
0.00094169
0.000972321
0.00100302
0.00103378
0.00106457
0.0010954
0.00112623
0.00115707
0.0011879
0.00121872
0.00124952
0.00128028
0.001311
0.00134167
0.00137227
0.00140279
0.00143323
0.00146356
0.00149377
0.00152384
0.00155376
0.00158352
0.00161309
0.00164246
0.0016716
0.0017005
0.00172915
0.00175751
0.00178558
0.00181332
0.00184071
0.00186774
0.00189438
0.0019206
0.00194638
0.00197168
0.00199648
0.00202075
0.00204434
0.00206735
0.00208987
0.00211195
0.00213358
0.00215479
0.00217555
0.00219588
0.00221575
0.00223517
0.00225413
0.00227261
0.00229061
0.00230813
0.00232516
0.0023417
0.00235773
0.00237325
0.00238827
0.00240277
0.00241674
0.0024302
0.00244313
0.00245552
0.00246739
0.00247871
0.0024895
0.00249975
0.00250945
0.00251861
0.00252722
0.00253528
0.0025428
0.00254976
0.00255617
0.00256202
0.00256732
0.00257207
0.00257626
0.00257989
0.00258296
0.00258548
0.00258744
0.00258884
0.00258969
0.00258998
0.00258971
0.0025889
0.00258753
0.00258561
0.00258315
0.00258014
0.0025766
0.00257252
0.0025679
0.00256276
0.0025571
0.00255092
0.00254424
0.00253706
0.00252938
0.00252123
0.00251261
0.00250352
0.00249399
0.002484
0.00247354
0.00246257
0.00245098
0.00243858
0.00242503
0.00241037
0.00239487
0.00237874
0.00236212
0.00234508
0.00232766
0.0023099
0.00229184
0.00227348
0.00225485
0.00223597
0.00221686
0.00219753
0.002178
0.0021583
0.00213842
0.0021184
0.00209824
0.00207797
0.00205759
0.00203712
0.00201658
0.00199597
0.00197532
0.00195462
0.00193388
0.0019131
0.00189229
0.00187142
0.00185045
0.00182931
0.00180783
0.00178568
0.00176192
0.0017335
0.00169276
1.17889e-05
9.63818e-05
0.000185791
0.000253209
0.000301764
0.000336677
0.000362476
0.000382713
0.000399996
0.000416109
0.000432193
0.00044893
0.000466713
0.00048576
0.000506195
0.000528082
0.000551448
0.000576289
0.000602574
0.000630248
0.000659235
0.000689445
0.000720777
0.000753124
0.000786377
0.000820431
0.000855183
0.000890541
0.000926418
0.000962736
0.000999426
0.00103643
0.00107369
0.00111116
0.0011488
0.00118659
0.00122448
0.00126247
0.00130051
0.00133861
0.00137673
0.00141488
0.00145302
0.00149115
0.00152926
0.00156734
0.00160536
0.00164332
0.0016812
0.00171898
0.00175665
0.00179419
0.00183159
0.00186881
0.00190586
0.00194269
0.0019793
0.00201567
0.00205176
0.00208755
0.00212304
0.00215818
0.00219296
0.00222736
0.00226134
0.00229489
0.00232799
0.00236059
0.0023927
0.00242426
0.00245528
0.00248571
0.00251552
0.00254464
0.00257314
0.00260107
0.00262847
0.00265533
0.00268167
0.00270748
0.00273274
0.00275746
0.00278162
0.00280523
0.00282825
0.0028507
0.00287256
0.00289383
0.00291449
0.00293455
0.00295399
0.0029728
0.00299099
0.00300855
0.00302548
0.00304176
0.00305739
0.00307238
0.00308671
0.00310038
0.00311339
0.00312574
0.00313742
0.00314844
0.00315878
0.00316845
0.00317745
0.00318576
0.0031934
0.00320035
0.00320662
0.00321221
0.00321711
0.00322133
0.00322486
0.0032277
0.00322986
0.00323133
0.00323211
0.00323221
0.00323162
0.00323036
0.00322841
0.00322578
0.00322248
0.00321852
0.00321388
0.00320859
0.00320264
0.00319604
0.0031888
0.00318093
0.00317244
0.00316334
0.00315363
0.00314334
0.00313246
0.00312101
0.00310897
0.00309635
0.0030831
0.00306915
0.00305437
0.00303859
0.00302181
0.00300416
0.00298579
0.00296681
0.00294729
0.00292729
0.00290684
0.00288598
0.00286474
0.00284313
0.00282119
0.00279893
0.00277637
0.00275354
0.00273046
0.00270714
0.00268361
0.00265989
0.00263598
0.00261192
0.00258772
0.0025634
0.00253897
0.00251445
0.00248986
0.00246519
0.00244047
0.00241568
0.00239081
0.00236582
0.00234065
0.00231512
0.00228887
0.00226104
0.00222933
0.00218919
1.27305e-05
0.000105863
0.000207223
0.000285509
0.000343337
0.000386117
0.000418624
0.000444641
0.000467008
0.000487745
0.00050821
0.000529268
0.000551437
0.000575011
0.000600142
0.000626896
0.00065528
0.000685265
0.000716791
0.000749777
0.00078413
0.000819742
0.000856504
0.000894301
0.000933023
0.000972562
0.00101282
0.0010537
0.00109512
0.001137
0.00117928
0.00122188
0.00126477
0.00130788
0.00135119
0.00139465
0.00143824
0.00148192
0.00152567
0.00156947
0.0016133
0.00165714
0.00170098
0.00174479
0.00178856
0.00183228
0.00187592
0.00191947
0.00196291
0.00200622
0.00204939
0.00209239
0.00213519
0.00217779
0.00222016
0.00226227
0.0023041
0.00234562
0.00238683
0.00242768
0.00246815
0.00250823
0.00254788
0.00258708
0.0026258
0.00266403
0.00270174
0.00273891
0.0027755
0.00281151
0.00284691
0.0028817
0.00291576
0.00294913
0.00298185
0.00301396
0.00304547
0.0030764
0.00310673
0.00313646
0.00316559
0.00319411
0.00322201
0.00324928
0.00327591
0.00330189
0.00332722
0.00335187
0.00337586
0.00339916
0.00342178
0.0034437
0.00346491
0.00348542
0.00350521
0.00352428
0.00354263
0.00356024
0.00357711
0.00359325
0.00360864
0.00362328
0.00363717
0.0036503
0.00366268
0.00367429
0.00368513
0.00369521
0.00370451
0.00371305
0.0037208
0.00372778
0.00373398
0.0037394
0.00374404
0.00374789
0.00375097
0.00375325
0.00375476
0.00375548
0.00375542
0.00375458
0.00375296
0.00375056
0.00374739
0.00374345
0.00373875
0.00373329
0.00372707
0.00372012
0.00371242
0.00370399
0.00369484
0.00368498
0.00367443
0.00366318
0.00365126
0.00363866
0.00362539
0.00361145
0.0035968
0.00358139
0.00356516
0.003548
0.00352992
0.00351098
0.00349127
0.00347088
0.00344987
0.00342828
0.00340616
0.00338355
0.00336048
0.00333696
0.00331304
0.00328872
0.00326404
0.00323902
0.00321368
0.00318804
0.00316212
0.00313596
0.00310957
0.00308296
0.00305617
0.00302921
0.0030021
0.00297487
0.00294752
0.00292008
0.00289255
0.00286494
0.00283725
0.00280944
0.00278145
0.00275315
0.0027242
0.00269389
0.00266062
0.00262214
1.36815e-05
0.00011067
0.000221941
0.000310362
0.000377213
0.000427851
0.000467188
0.000499167
0.000526793
0.000552259
0.000577094
0.000602311
0.000628546
0.000656171
0.000685381
0.00071626
0.000748815
0.000783007
0.000818766
0.000856001
0.000894608
0.000934478
0.000975495
0.00101755
0.00106053
0.00110433
0.00114886
0.00119402
0.00123973
0.00128591
0.0013325
0.00137944
0.00142667
0.00147415
0.00152182
0.00156966
0.00161763
0.00166569
0.00171383
0.00176201
0.00181021
0.00185841
0.00190659
0.00195474
0.00200282
0.00205083
0.00209873
0.00214652
0.00219417
0.00224166
0.00228898
0.00233609
0.00238297
0.00242961
0.00247598
0.00252206
0.00256782
0.00261323
0.00265828
0.00270293
0.00274717
0.00279097
0.00283429
0.00287713
0.00291945
0.00296123
0.00300245
0.00304309
0.00308312
0.00312253
0.0031613
0.00319941
0.00323677
0.00327343
0.00330943
0.00334479
0.00337952
0.00341362
0.0034471
0.00347994
0.00351213
0.00354368
0.00357457
0.00360478
0.00363431
0.00366316
0.0036913
0.00371873
0.00374543
0.00377141
0.00379666
0.00382115
0.0038449
0.00386788
0.00389009
0.00391153
0.00393219
0.00395206
0.00397113
0.00398941
0.00400688
0.00402354
0.00403939
0.00405442
0.00406863
0.00408201
0.00409456
0.00410628
0.00411716
0.0041272
0.0041364
0.00414475
0.00415225
0.0041589
0.0041647
0.00416965
0.00417374
0.00417697
0.00417935
0.00418088
0.00418154
0.00418135
0.00418032
0.00417843
0.00417568
0.0041721
0.00416769
0.00416243
0.00415634
0.00414942
0.0041417
0.00413317
0.00412384
0.00411374
0.00410285
0.0040912
0.0040788
0.00406565
0.00405176
0.00403712
0.00402172
0.00400554
0.00398852
0.00397062
0.00395184
0.00393222
0.0039118
0.00389064
0.00386881
0.00384635
0.00382329
0.00379966
0.00377551
0.00375085
0.00372572
0.00370014
0.00367413
0.00364773
0.00362095
0.00359381
0.00356635
0.00353859
0.00351055
0.00348225
0.00345372
0.00342498
0.00339605
0.00336697
0.00333774
0.00330839
0.00327893
0.00324939
0.00321976
0.00319003
0.00316017
0.00313005
0.00309942
0.00306773
0.00303387
0.0029967
1.44401e-05
0.000112848
0.000231507
0.000328673
0.000403862
0.000462053
0.000508126
0.000546076
0.000578997
0.000609194
0.000638317
0.000667497
0.000697472
0.000728692
0.000761408
0.000795736
0.000831702
0.000869275
0.000908389
0.000948955
0.00099087
0.00103403
0.00107831
0.00112362
0.00116984
0.00121688
0.00126465
0.00131304
0.00136199
0.00141142
0.00146127
0.00151146
0.00156195
0.00161269
0.00166363
0.00171474
0.00176597
0.0018173
0.00186869
0.00192011
0.00197155
0.00202298
0.00207437
0.00212571
0.00217697
0.00222814
0.00227918
0.00233009
0.00238084
0.0024314
0.00248177
0.00253191
0.00258181
0.00263143
0.00268077
0.00272978
0.00277846
0.00282677
0.00287469
0.00292219
0.00296926
0.00301586
0.00306196
0.00310756
0.00315261
0.00319711
0.00324102
0.00328433
0.00332702
0.00336906
0.00341044
0.00345114
0.0034911
0.00353036
0.00356896
0.0036069
0.00364421
0.00368087
0.00371689
0.00375225
0.00378695
0.00382098
0.00385433
0.00388698
0.00391893
0.00395016
0.00398066
0.00401042
0.00403943
0.00406769
0.00409517
0.00412188
0.0041478
0.00417293
0.00419725
0.00422076
0.00424345
0.00426531
0.00428634
0.00430653
0.00432586
0.00434435
0.00436198
0.00437875
0.00439465
0.00440968
0.00442382
0.00443709
0.00444947
0.00446096
0.00447155
0.00448125
0.00449006
0.00449795
0.00450495
0.00451103
0.0045162
0.00452047
0.00452383
0.00452628
0.0045278
0.00452842
0.00452815
0.00452695
0.00452485
0.00452184
0.00451793
0.00451314
0.00450745
0.00450089
0.00449345
0.00448515
0.004476
0.004466
0.00445518
0.00444353
0.00443106
0.0044178
0.00440373
0.00438887
0.0043732
0.00435672
0.0043394
0.00432122
0.00430218
0.0042823
0.00426161
0.00424017
0.004218
0.00419515
0.00417165
0.00414754
0.00412285
0.00409761
0.00407184
0.00404556
0.00401881
0.00399162
0.003964
0.00393598
0.00390759
0.00387885
0.00384978
0.00382042
0.00379079
0.00376092
0.00373082
0.00370053
0.00367007
0.00363948
0.00360876
0.00357795
0.00354706
0.0035161
0.00348505
0.00345383
0.00342226
0.00338991
0.00335605
0.00332003
1.50292e-05
0.00011309
0.000236843
0.000341221
0.000423829
0.000489044
0.000541554
0.000585307
0.000623413
0.000658231
0.000691488
0.000724403
0.000757797
0.000792194
0.000827906
0.000865092
0.000903811
0.000944054
0.000985769
0.00102888
0.00107329
0.0011189
0.00116561
0.00121331
0.0012619
0.0013113
0.0013614
0.00141212
0.00146339
0.00151514
0.00156729
0.00161979
0.00167258
0.00172562
0.00177885
0.00183224
0.00188576
0.00193936
0.00199301
0.0020467
0.00210039
0.00215406
0.00220768
0.00226124
0.00231471
0.00236808
0.00242132
0.00247441
0.00252734
0.00258008
0.00263261
0.00268491
0.00273696
0.00278874
0.00284023
0.00289139
0.00294221
0.00299266
0.00304271
0.00309235
0.00314154
0.00319026
0.00323849
0.0032862
0.00333337
0.00337997
0.00342599
0.0034714
0.00351618
0.00356031
0.00360379
0.00364654
0.00368859
0.00372997
0.0037707
0.00381079
0.00385024
0.00388904
0.00392719
0.00396469
0.00400151
0.00403766
0.00407312
0.00410787
0.0041419
0.00417521
0.00420777
0.00423957
0.00427061
0.00430087
0.00433034
0.00435901
0.00438688
0.00441392
0.00444014
0.00446552
0.00449005
0.00451373
0.00453654
0.00455848
0.00457954
0.00459971
0.004619
0.00463739
0.00465488
0.00467147
0.00468714
0.00470189
0.00471571
0.0047286
0.00474057
0.0047516
0.0047617
0.00477086
0.00477906
0.00478631
0.00479261
0.00479797
0.00480239
0.00480583
0.00480831
0.00480984
0.00481042
0.00481005
0.00480873
0.00480646
0.00480325
0.0047991
0.00479402
0.00478802
0.0047811
0.00477327
0.00476455
0.00475494
0.00474445
0.00473309
0.00472087
0.0047078
0.00469389
0.00467915
0.00466357
0.00464714
0.00462987
0.00461175
0.00459277
0.00457296
0.00455233
0.00453092
0.00450876
0.00448588
0.00446232
0.00443811
0.00441327
0.00438784
0.00436184
0.00433529
0.00430824
0.00428069
0.00425267
0.00422422
0.00419535
0.0041661
0.00413649
0.00410655
0.00407629
0.00404577
0.00401499
0.00398399
0.0039528
0.00392146
0.00388999
0.00385842
0.00382678
0.00379511
0.00376339
0.00373159
0.00369957
0.00366706
0.00363351
0.00359858
1.54732e-05
0.000111858
0.000238674
0.000348718
0.000437706
0.000509259
0.000567748
0.000616985
0.000660036
0.000699263
0.000736433
0.00077282
0.000809312
0.0008465
0.000884752
0.000924278
0.000965175
0.00100747
0.00105112
0.00109608
0.00114227
0.0011896
0.00123797
0.00128729
0.00133747
0.00138841
0.00144003
0.00149225
0.001545
0.0015982
0.00165179
0.00170572
0.00175993
0.00181437
0.001869
0.00192378
0.00197867
0.00203365
0.00208868
0.00214373
0.00219879
0.00225383
0.00230883
0.00236376
0.00241862
0.00247337
0.00252801
0.00258252
0.00263687
0.00269105
0.00274503
0.0027988
0.00285235
0.00290563
0.00295864
0.00301134
0.00306372
0.00311575
0.00316741
0.00321866
0.00326948
0.00331985
0.00336973
0.00341911
0.00346795
0.00351624
0.00356395
0.00361106
0.00365755
0.0037034
0.00374858
0.00379307
0.00383691
0.0038801
0.00392267
0.00396461
0.00400592
0.0040466
0.00408663
0.00412601
0.00416473
0.00420277
0.00424011
0.00427675
0.00431266
0.00434784
0.00438226
0.00441592
0.00444881
0.0044809
0.00451219
0.00454267
0.00457232
0.00460114
0.00462912
0.00465623
0.00468249
0.00470786
0.00473235
0.00475594
0.00477862
0.0048004
0.00482126
0.0048412
0.00486022
0.00487831
0.00489545
0.00491164
0.00492687
0.00494115
0.00495446
0.00496681
0.00497822
0.00498863
0.00499806
0.0050065
0.00501396
0.00502043
0.00502593
0.00503043
0.00503394
0.00503646
0.005038
0.00503855
0.00503812
0.00503671
0.00503433
0.00503097
0.00502665
0.00502137
0.00501514
0.00500796
0.00499986
0.00499082
0.00498088
0.00497003
0.00495828
0.00494565
0.00493215
0.00491777
0.00490254
0.00488644
0.00486949
0.00485167
0.004833
0.00481349
0.00479316
0.00477204
0.00475014
0.0047275
0.00470415
0.00468012
0.00465543
0.00463011
0.00460419
0.00457769
0.00455064
0.00452307
0.004495
0.00446645
0.00443746
0.00440805
0.00437825
0.00434808
0.00431758
0.00428677
0.00425569
0.00422436
0.00419282
0.00416111
0.00412927
0.00409733
0.00406534
0.00403333
0.00400133
0.00396932
0.00393723
0.00390485
0.00387181
0.00383788
1.57914e-05
0.000109519
0.000237624
0.00035183
0.000446097
0.000523197
0.000587088
0.000641375
0.000689023
0.000732359
0.000773152
0.00081271
0.000851968
0.000891567
0.000931932
0.00097332
0.00101587
0.00105964
0.00110464
0.00115081
0.00119811
0.00124646
0.00129578
0.00134598
0.00139698
0.00144869
0.00150103
0.00155394
0.00160734
0.00166116
0.00171535
0.00176985
0.00182462
0.00187961
0.00193477
0.00199009
0.00204552
0.00210103
0.00215661
0.00221223
0.00226786
0.0023235
0.00237912
0.0024347
0.00249023
0.0025457
0.00260109
0.00265638
0.00271155
0.00276659
0.00282148
0.00287621
0.00293074
0.00298506
0.00303914
0.00309297
0.0031465
0.00319973
0.00325261
0.00330513
0.00335725
0.00340894
0.00346018
0.00351094
0.00356118
0.00361089
0.00366004
0.00370859
0.00375654
0.00380386
0.00385054
0.00389658
0.00394202
0.00398685
0.00403108
0.00407471
0.00411773
0.00416013
0.00420189
0.00424302
0.00428349
0.00432328
0.00436239
0.00440078
0.00443845
0.00447539
0.00451156
0.00454697
0.00458159
0.00461541
0.00464842
0.0046806
0.00471195
0.00474245
0.0047721
0.00480088
0.00482878
0.00485577
0.00488186
0.00490704
0.00493129
0.00495461
0.004977
0.00499844
0.00501894
0.00503851
0.00505709
0.00507469
0.00509132
0.00510695
0.0051216
0.00513527
0.00514794
0.00515961
0.00517028
0.00517993
0.00518858
0.00519622
0.00520284
0.00520845
0.00521305
0.00521663
0.0052192
0.00522076
0.00522131
0.00522086
0.0052194
0.00521694
0.0052135
0.00520906
0.00520365
0.00519727
0.00518992
0.00518163
0.00517239
0.00516222
0.00515112
0.00513911
0.0051262
0.0051124
0.00509771
0.00508214
0.0050657
0.0050484
0.00503023
0.00501122
0.00499138
0.00497074
0.0049493
0.00492711
0.00490419
0.00488055
0.00485624
0.00483126
0.00480566
0.00477945
0.00475266
0.00472532
0.00469745
0.00466908
0.00464023
0.00461094
0.00458122
0.00455112
0.00452065
0.00448985
0.00445875
0.00442739
0.0043958
0.00436402
0.0043321
0.00430009
0.00426803
0.00423598
0.00420398
0.00417204
0.00414011
0.00410807
0.00407563
0.00404265
1.59979e-05
0.000106368
0.000234238
0.000351171
0.000449586
0.000531371
0.000599998
0.000658806
0.000710612
0.000757672
0.000801731
0.000844103
0.000885753
0.000927364
0.000969402
0.00101217
0.00105585
0.00110054
0.00114626
0.001193
0.00124074
0.0012894
0.00133892
0.00138923
0.00144026
0.00149193
0.00154417
0.00159692
0.00165012
0.0017037
0.00175762
0.00181184
0.00186631
0.001921
0.00197587
0.0020309
0.00208607
0.00214135
0.00219673
0.00225218
0.0023077
0.00236328
0.00241889
0.00247452
0.00253017
0.00258582
0.00264146
0.00269707
0.00275263
0.00280814
0.00286356
0.00291888
0.00297408
0.00302914
0.00308402
0.00313871
0.00319316
0.00324736
0.00330128
0.00335487
0.0034081
0.00346095
0.00351338
0.00356536
0.00361686
0.00366784
0.00371827
0.00376814
0.00381741
0.00386607
0.00391416
0.00396168
0.00400864
0.00405503