/*--------------------------------*- C++ -*----------------------------------*\
| =========                 |                                                 |
| \\      /  F ield         | OpenFOAM: The Open Source CFD Toolbox           |
|  \\    /   O peration     | Version:  2412                                  |
|   \\  /    A nd           | Website:  www.openfoam.com                      |
|    \\/     M anipulation  |                                                 |
\*---------------------------------------------------------------------------*/
FoamFile
{
    version     2.0;
    format      ascii;
    arch        "LSB;label=32;scalar=64";
    class       volScalarField;
    location    "0.14";
    object      p;
}
// * * * * * * * * * * * * * * * * * * * * * * * * * * * * * * * * * * * * * //

dimensions      [0 2 -2 0 0 0 0];

internalField   nonuniform List<scalar> 
12225
(
-10.3415
-9.74917
-9.08646
-8.53002
-8.02096
-7.5645
-7.16592
-6.81488
-6.50248
-6.22314
-5.97196
-5.74443
-5.53672
-5.34547
-5.16766
-4.99979
-4.83975
-4.6734
-10.7753
-9.80735
-9.12127
-8.571
-8.06125
-7.60474
-7.20553
-6.85308
-6.53905
-6.25801
-6.0051
-5.77584
-5.56641
-5.37349
-5.19399
-5.02457
-4.86244
-4.70432
-10.9557
-9.84162
-9.16301
-8.62186
-8.11165
-7.65601
-7.25693
-6.90342
-6.58785
-6.30502
-6.05016
-5.81888
-5.60743
-5.4125
-5.23106
-5.05995
-4.89631
-4.73496
-10.9796
-9.85734
-9.18769
-8.65582
-8.1483
-7.69552
-7.2983
-6.94535
-6.62962
-6.34619
-6.0904
-5.85801
-5.64536
-5.44926
-5.26675
-5.09509
-4.93097
-4.77344
-10.9095
-9.85205
-9.18798
-8.6666
-8.16611
-7.71826
-7.3246
-6.97385
-6.65941
-6.37667
-6.12112
-5.88869
-5.67589
-5.47965
-5.29721
-5.12631
-4.96358
-4.81386
-10.7677
-9.81892
-9.1645
-8.65574
-8.16689
-7.72623
-7.33772
-6.99068
-6.6788
-6.39783
-6.14351
-5.91198
-5.6999
-5.50446
-5.32309
-5.15407
-4.99421
-4.85303
-10.565
-9.75249
-9.11825
-8.62405
-8.15131
-7.72063
-7.33902
-6.99718
-6.68912
-6.41096
-6.1588
-5.92901
-5.7185
-5.52469
-5.34529
-5.17907
-5.02307
-4.89022
-10.3121
-9.65016
-9.05008
-8.57211
-8.1193
-7.70184
-7.32908
-6.99401
-6.69109
-6.41684
-6.16778
-5.9406
-5.73248
-5.54111
-5.36451
-5.20185
-5.05038
-4.92547
-10.0197
-9.51164
-8.96111
-8.50155
-8.07138
-7.67045
-7.30865
-6.98194
-6.68551
-6.41629
-6.17129
-5.94759
-5.74269
-5.55455
-5.3815
-5.22301
-5.07651
-4.95901
-9.69896
-9.33891
-8.85271
-8.41523
-8.00926
-7.62778
-7.27907
-6.9622
-6.67353
-6.41044
-6.17046
-5.95109
-5.75018
-5.56601
-5.39715
-5.24332
-5.10202
-4.99131
-9.36208
-9.13676
-8.72653
-8.3167
-7.93586
-7.57606
-7.24241
-6.93668
-6.65686
-6.40088
-6.16675
-5.95248
-5.75626
-5.57667
-5.41252
-5.26369
-5.12759
-5.0232
-9.05012
-8.93101
-8.59682
-8.21856
-7.86166
-7.52321
-7.20502
-6.91051
-6.63955
-6.39078
-6.16266
-5.95361
-5.76219
-5.58722
-5.4277
-5.28363
-5.15208
-5.05338
-8.75516
-8.71667
-8.45832
-8.11637
-7.78369
-7.46723
-7.1658
-6.88331
-6.6217
-6.38058
-6.15889
-5.95544
-5.76912
-5.59902
-5.44429
-5.30494
-5.17836
-5.08305
-8.44814
-8.4723
-8.29278
-7.99693
-7.69299
-7.40208
-7.12138
-6.85394
-6.60369
-6.3718
-6.15785
-5.9611
-5.78082
-5.61638
-5.46711
-5.33301
-5.21182
-5.11908
-8.15114
-8.21815
-8.11029
-7.86631
-7.59482
-7.3315
-7.07476
-6.82568
-6.58925
-6.36841
-6.16368
-5.97482
-5.80149
-5.64336
-5.49998
-5.3714
-5.2555
-5.16495
-7.89286
-7.98621
-7.936
-7.74307
-7.50491
-7.26798
-7.03501
-6.80546
-6.58419
-6.37554
-6.18113
-6.00117
-5.83559
-5.68433
-5.5471
-5.42401
-5.31313
-5.22417
-7.70545
-7.81354
-7.80483
-7.656
-7.44925
-7.2357
-7.02326
-6.81113
-6.60352
-6.40566
-6.22025
-6.04799
-5.88905
-5.74357
-5.61128
-5.49222
-5.38479
-5.29496
-7.62917
-7.74149
-7.75401
-7.63238
-7.44742
-7.25051
-7.05271
-6.8535
-6.65644
-6.46698
-6.2884
-6.12176
-5.96724
-5.82485
-5.69455
-5.57608
-5.46844
-5.37292
-7.7289
-7.83593
-7.84228
-7.71564
-7.52745
-7.32874
-7.13014
-6.93095
-6.73457
-6.54622
-6.36894
-6.20354
-6.05001
-5.90816
-5.77767
-5.65783
-5.54838
-5.44617
-8.00547
-8.09989
-8.06648
-7.89494
-7.6734
-7.45073
-7.23239
-7.0171
-6.80882
-6.61209
-6.42879
-6.25895
-6.10213
-5.95774
-5.82509
-5.70308
-5.59146
-5.48458
-8.39907
-8.45719
-8.35482
-8.12042
-7.85612
-7.6012
-7.35513
-7.1174
-6.89238
-6.68319
-6.49026
-6.31291
-6.15026
-6.00139
-5.86531
-5.74078
-5.62739
-5.51917
-8.8996
-8.87934
-8.67114
-8.36139
-8.04937
-7.75542
-7.47578
-7.21234
-6.96858
-6.74526
-6.54139
-6.35558
-6.18647
-6.03265
-5.89279
-5.76546
-5.64989
-5.54037
-9.46372
-9.30814
-8.96425
-8.5814
-8.22481
-7.89132
-7.57937
-7.29278
-7.03228
-6.7961
-6.58219
-6.38863
-6.21352
-6.05502
-5.91148
-5.78133
-5.66349
-5.55288
-10.0282
-9.6822
-9.19911
-8.76133
-8.36742
-7.99793
-7.65854
-7.35291
-7.07816
-6.83083
-6.60825
-6.408
-6.22768
-6.06509
-5.91833
-5.78564
-5.66575
-5.55425
-10.5322
-9.96374
-9.3681
-8.8963
-8.46974
-8.06928
-7.7085
-7.38806
-7.10198
-6.84586
-6.61661
-6.41126
-6.227
-6.06135
-5.91218
-5.77761
-5.65622
-5.54423
-10.9338
-10.1413
-9.47486
-8.98274
-8.52764
-8.10374
-7.72805
-7.39702
-7.10278
-6.84052
-6.6067
-6.39793
-6.21107
-6.04344
-5.89277
-5.75705
-5.63477
-5.52274
-11.2051
-10.2249
-9.52509
-9.01841
-8.54206
-8.10329
-7.71809
-7.3801
-7.0807
-6.81471
-6.57826
-6.36763
-6.17947
-6.01096
-5.85972
-5.72365
-5.60117
-5.48965
-11.3123
-10.2402
-9.52575
-9.00268
-8.51431
-8.06799
-7.67719
-7.33541
-7.03366
-6.76632
-6.52918
-6.31835
-6.13032
-5.96217
-5.81141
-5.67593
-5.55406
-5.44373
-11.1796
-10.2104
-9.49072
-8.94505
-8.45176
-8.00311
-7.60997
-7.26733
-6.96592
-6.69948
-6.46356
-6.25417
-6.06769
-5.90111
-5.75191
-5.61794
-5.49745
-5.38869
-10.6485
-10.1182
-9.44814
-8.88814
-8.39309
-7.9442
-7.55061
-7.2086
-6.90853
-6.64362
-6.40933
-6.20159
-6.01674
-5.85172
-5.704
-5.57143
-5.45217
-5.34438
-4.73608
-4.73586
-4.7372
-4.73974
-4.74268
-4.74565
-4.74869
-4.75193
-4.75545
-4.75937
-4.7638
-4.76885
-4.77465
-4.7813
-4.7889
-4.79758
-4.80745
-4.81862
-4.8312
-4.84527
-4.8609
-4.87813
-4.89697
-4.91739
-4.93933
-4.96272
-4.98744
-5.01337
-5.04031
-5.06802
-5.09627
-5.12488
-5.15366
-5.18241
-5.21096
-5.23913
-5.26675
-5.29365
-5.31968
-5.34468
-5.36851
-5.39104
-5.41213
-5.43164
-5.44946
-5.46546
-5.47953
-5.49153
-5.50135
-5.50889
-5.51402
-5.51664
-5.51665
-5.51392
-5.50837
-5.4999
-5.48841
-5.4738
-5.456
-5.43491
-5.41047
-5.3826
-5.35124
-5.31631
-5.27778
-5.2356
-5.18972
-5.14012
-5.08676
-5.02964
-4.96877
-4.90421
-4.836
-4.76406
-4.68835
-4.60858
-4.52495
-4.43752
-4.34639
-4.2516
-4.15319
-4.05122
-3.94574
-3.8368
-3.72448
-3.60884
-3.48996
-3.3679
-3.24277
-3.11464
-2.98361
-2.84978
-2.71324
-2.57411
-2.4325
-2.2885
-2.14225
-1.99386
-1.84345
-1.69115
-1.53709
-1.38138
-1.22418
-1.06561
-0.905799
-0.744896
-0.583036
-0.42036
-0.257008
-0.0931232
0.0711526
0.235676
0.400305
0.564896
0.729308
0.893398
1.05703
1.22005
1.38234
1.54376
1.70417
1.86344
2.02144
2.17806
2.33316
2.48664
2.63837
2.78826
2.93618
3.08205
3.22577
3.36725
3.50641
3.64317
3.77745
3.90919
4.03834
4.16483
4.28863
4.40971
4.52802
4.64357
4.75631
4.86619
4.97315
5.07712
5.17815
5.27624
5.37143
5.46373
5.55316
5.63975
5.72351
5.80447
5.88266
5.9581
6.03083
6.10087
6.16827
6.23305
6.29526
6.35491
6.41206
6.46674
6.51899
6.56885
6.61636
6.66158
6.70457
6.7454
6.78418
6.82103
6.85618
6.88993
6.92282
6.95572
6.99065
7.03097
7.08869
7.16428
-4.7353
-4.73597
-4.73745
-4.73957
-4.74165
-4.7433
-4.74452
-4.74563
-4.74702
-4.74899
-4.75167
-4.75512
-4.75942
-4.76464
-4.77092
-4.77838
-4.78716
-4.7974
-4.80921
-4.82271
-4.83796
-4.85499
-4.87379
-4.89432
-4.91649
-4.94018
-4.96523
-4.99147
-5.01869
-5.04668
-5.0752
-5.10407
-5.13308
-5.16205
-5.19078
-5.21911
-5.24687
-5.27391
-5.30008
-5.32523
-5.34923
-5.37194
-5.39325
-5.41301
-5.43112
-5.44744
-5.46187
-5.47427
-5.48455
-5.49258
-5.49826
-5.50147
-5.5021
-5.50005
-5.49522
-5.48751
-5.47682
-5.46306
-5.44614
-5.42598
-5.40251
-5.37564
-5.34531
-5.31147
-5.27406
-5.23302
-5.18833
-5.13995
-5.08784
-5.03198
-4.97234
-4.90889
-4.84163
-4.77041
-4.69512
-4.61626
-4.53375
-4.44756
-4.35769
-4.26417
-4.16704
-4.06634
-3.96213
-3.85446
-3.74339
-3.62899
-3.51133
-3.39048
-3.26654
-3.13958
-3.0097
-2.877
-2.74157
-2.60352
-2.46296
-2.31999
-2.17474
-2.02732
-1.87786
-1.72647
-1.57328
-1.41843
-1.26204
-1.10425
-0.945188
-0.784996
-0.623811
-0.461773
-0.299022
-0.1357
0.0280512
0.192089
0.356271
0.520455
0.684498
0.848261
1.0116
1.17438
1.33646
1.49771
1.658
1.81718
1.97514
2.13175
2.28688
2.44043
2.59227
2.7423
2.89041
3.0365
3.18047
3.32224
3.46172
3.59883
3.7335
3.86566
3.99526
4.12224
4.24655
4.36816
4.48705
4.60318
4.71653
4.82703
4.93461
5.03925
5.14096
5.23976
5.33566
5.42868
5.51884
5.60616
5.69065
5.77235
5.85127
5.92745
6.00092
6.07169
6.13982
6.20533
6.26825
6.32862
6.38648
6.44185
6.49479
6.54534
6.59353
6.63943
6.68309
6.72461
6.76408
6.80166
6.83756
6.87214
6.90596
6.93991
6.976
7.01645
7.07223
7.13839
-4.72687
-4.72996
-4.73288
-4.73548
-4.73723
-4.73817
-4.73866
-4.73911
-4.73987
-4.74118
-4.74323
-4.74615
-4.75006
-4.75509
-4.76138
-4.76905
-4.77822
-4.789
-4.80145
-4.81562
-4.83152
-4.84913
-4.86839
-4.88921
-4.91149
-4.93508
-4.95983
-4.98559
-5.01216
-5.03938
-5.06705
-5.095
-5.12306
-5.15106
-5.17884
-5.20625
-5.23313
-5.25935
-5.28476
-5.30923
-5.33263
-5.35482
-5.37569
-5.3951
-5.41294
-5.42908
-5.44341
-5.45581
-5.46616
-5.47435
-5.48026
-5.48378
-5.48481
-5.48322
-5.47893
-5.47183
-5.46181
-5.4488
-5.43268
-5.41339
-5.39085
-5.36496
-5.33567
-5.30292
-5.26664
-5.22679
-5.18331
-5.13618
-5.08535
-5.0308
-4.9725
-4.91041
-4.84447
-4.77479
-4.70123
-4.62393
-4.54293
-4.45825
-4.36989
-4.27789
-4.18229
-4.08312
-3.98044
-3.87429
-3.76474
-3.65184
-3.53568
-3.41632
-3.29384
-3.16834
-3.03989
-2.9086
-2.77456
-2.63788
-2.49866
-2.357
-2.21303
-2.06687
-1.91862
-1.76841
-1.61638
-1.46263
-1.30732
-1.15056
-0.992496
-0.833258
-0.672985
-0.511815
-0.349888
-0.187345
-0.0243267
0.139025
0.302568
0.466162
0.629664
0.792934
0.955832
1.11822
1.27996
1.44092
1.60096
1.75996
1.91778
2.0743
2.22939
2.38295
2.53486
2.68499
2.83326
2.97956
3.12378
3.26585
3.40568
3.54318
3.67828
3.81092
3.94103
4.06855
4.19345
4.31567
4.43518
4.55194
4.66593
4.77712
4.88547
4.99096
5.09356
5.19328
5.29011
5.38407
5.47517
5.56344
5.64889
5.73154
5.81142
5.88856
5.96297
6.03469
6.10376
6.17019
6.23404
6.29532
6.35408
6.41035
6.46417
6.51558
6.56464
6.61139
6.65591
6.69827
6.73861
6.77707
6.8139
6.84945
6.8843
6.91934
6.95645
6.99696
7.0503
7.10302
-4.71188
-4.71735
-4.723
-4.72737
-4.73011
-4.73175
-4.73284
-4.73383
-4.73509
-4.73689
-4.73947
-4.74299
-4.74759
-4.75341
-4.76057
-4.76917
-4.77928
-4.79097
-4.80427
-4.81917
-4.83565
-4.85367
-4.87315
-4.89399
-4.91609
-4.93933
-4.96357
-4.98866
-5.01447
-5.04082
-5.06758
-5.09459
-5.1217
-5.14876
-5.17562
-5.20215
-5.2282
-5.25364
-5.27834
-5.30216
-5.32498
-5.34667
-5.36711
-5.38617
-5.40373
-5.41967
-5.43387
-5.44621
-5.45657
-5.46483
-5.47089
-5.47461
-5.47591
-5.47465
-5.47075
-5.46409
-5.45457
-5.44211
-5.4266
-5.40795
-5.3861
-5.36095
-5.33244
-5.3005
-5.26508
-5.2261
-5.18354
-5.13733
-5.08746
-5.03387
-4.97655
-4.91546
-4.85059
-4.78195
-4.70956
-4.63344
-4.55363
-4.47014
-4.38298
-4.29219
-4.1978
-4.09985
-3.99838
-3.89345
-3.78511
-3.67342
-3.55846
-3.4403
-3.31901
-3.19468
-3.0674
-2.93726
-2.80435
-2.66878
-2.53065
-2.39007
-2.24716
-2.10202
-1.95477
-1.80555
-1.65446
-1.50165
-1.34722
-1.19133
-1.0341
-0.875658
-0.71615
-0.55571
-0.394478
-0.232594
-0.0701965
0.092572
0.255571
0.41866
0.581697
0.744543
0.907058
1.0691
1.23054
1.39124
1.55107
1.70989
1.86758
2.02401
2.17906
2.33262
2.48456
2.63477
2.78316
2.92962
3.07404
3.21635
3.35645
3.49427
3.62972
3.76274
3.89327
4.02124
4.14662
4.26936
4.38941
4.50673
4.62128
4.73302
4.84197
4.94809
5.05137
5.15179
5.24935
5.34406
5.43592
5.52496
5.61118
5.69461
5.77527
5.85319
5.92839
6.0009
6.07075
6.13796
6.20258
6.26463
6.32415
6.38118
6.43575
6.4879
6.53769
6.58517
6.63041
6.6735
6.71456
6.75374
6.7913
6.82757
6.86312
6.8987
6.93592
6.97524
7.02402
7.06413
-4.69442
-4.70243
-4.71136
-4.71824
-4.72277
-4.72584
-4.72821
-4.73039
-4.73279
-4.73573
-4.73945
-4.74415
-4.74996
-4.757
-4.76537
-4.77514
-4.78636
-4.79905
-4.81322
-4.82884
-4.84589
-4.86429
-4.88397
-4.90484
-4.92681
-4.94976
-4.97357
-4.99813
-5.02329
-5.04893
-5.07492
-5.10112
-5.1274
-5.15363
-5.17967
-5.20541
-5.23069
-5.25541
-5.27943
-5.30263
-5.32489
-5.34607
-5.36605
-5.38472
-5.40195
-5.41762
-5.43161
-5.44379
-5.45406
-5.46228
-5.46834
-5.47213
-5.47354
-5.47245
-5.46875
-5.46234
-5.45312
-5.44098
-5.42585
-5.40761
-5.3862
-5.36153
-5.33353
-5.30213
-5.26727
-5.22889
-5.18694
-5.14138
-5.09216
-5.03926
-4.98265
-4.9223
-4.85821
-4.79038
-4.71881
-4.64354
-4.56457
-4.48192
-4.39561
-4.30568
-4.21215
-4.11506
-4.01446
-3.9104
-3.80293
-3.69211
-3.57801
-3.46071
-3.34028
-3.2168
-3.09036
-2.96105
-2.82896
-2.69421
-2.55688
-2.41709
-2.27495
-2.13057
-1.98407
-1.83557
-1.68519
-1.53306
-1.37931
-1.22406
-1.06744
-0.909604
-0.750671
-0.590781
-0.430073
-0.268686
-0.10676
0.055566
0.218151
0.380854
0.543535
0.706055
0.868275
1.03006
1.19126
1.35176
1.51142
1.6701
1.82768
1.98403
2.13904
2.29258
2.44454
2.59481
2.74328
2.88985
3.03442
3.1769
3.3172
3.45525
3.59095
3.72426
3.8551
3.98342
4.10916
4.23228
4.35272
4.47044
4.58539
4.69754
4.80689
4.91345
5.01719
5.11809
5.21616
5.31139
5.40379
5.49337
5.58015
5.66415
5.74539
5.82389
5.89967
5.97276
6.0432
6.111
6.17621
6.23885
6.29895
6.35656
6.4117
6.46443
6.51478
6.56282
6.60861
6.65225
6.69383
6.73353
6.77157
6.80826
6.84409
6.87965
6.91619
6.95343
6.99721
7.02664
-4.67958
-4.68971
-4.70145
-4.71081
-4.71734
-4.72213
-4.72608
-4.72976
-4.73361
-4.73797
-4.7431
-4.74919
-4.75637
-4.76475
-4.7744
-4.78536
-4.79767
-4.81132
-4.8263
-4.84258
-4.86012
-4.87886
-4.89871
-4.9196
-4.94145
-4.96414
-4.98758
-5.01167
-5.03628
-5.0613
-5.08663
-5.11213
-5.1377
-5.16321
-5.18854
-5.21358
-5.23819
-5.26227
-5.28568
-5.30832
-5.33005
-5.35075
-5.37031
-5.3886
-5.4055
-5.42088
-5.43463
-5.44662
-5.45674
-5.46486
-5.47086
-5.47462
-5.47604
-5.475
-5.47138
-5.46509
-5.45602
-5.44406
-5.42913
-5.41113
-5.38998
-5.3656
-5.3379
-5.30683
-5.27232
-5.23432
-5.19276
-5.14761
-5.09883
-5.04639
-4.99025
-4.93041
-4.86685
-4.79957
-4.72857
-4.65387
-4.57547
-4.4934
-4.40768
-4.31834
-4.2254
-4.12891
-4.02891
-3.92546
-3.81859
-3.70838
-3.5949
-3.47821
-3.35838
-3.23551
-3.10968
-2.98097
-2.84949
-2.71532
-2.57859
-2.43938
-2.29781
-2.15399
-2.00804
-1.86008
-1.71023
-1.55862
-1.40537
-1.25061
-1.09447
-0.937092
-0.778601
-0.619136
-0.458834
-0.297835
-0.136277
0.0256996
0.187956
0.350353
0.512749
0.675005
0.836983
0.998546
1.15956
1.31988
1.47939
1.63795
1.79543
1.95171
2.10666
2.26017
2.41213
2.56242
2.71093
2.85757
3.00223
3.14482
3.28526
3.42346
3.55935
3.69286
3.82393
3.95248
4.07847
4.20185
4.32257
4.44057
4.5558
4.66825
4.77791
4.88479
4.98886
5.09012
5.18855
5.28417
5.37697
5.46697
5.55418
5.63861
5.72028
5.79923
5.87546
5.94901
6.01991
6.08817
6.15384
6.21694
6.27751
6.33557
6.39117
6.44435
6.49515
6.54363
6.58985
6.63389
6.67586
6.71591
6.75423
6.7911
6.8269
6.86206
6.89746
6.93228
6.97143
6.99194
-4.67107
-4.68222
-4.69579
-4.70709
-4.71539
-4.72181
-4.7273
-4.73247
-4.73777
-4.74355
-4.75005
-4.75748
-4.76594
-4.77555
-4.78634
-4.79835
-4.81159
-4.82605
-4.84171
-4.85854
-4.87648
-4.89548
-4.91546
-4.93637
-4.95811
-4.98059
-5.00374
-5.02744
-5.05162
-5.07615
-5.10094
-5.12589
-5.15089
-5.17582
-5.20057
-5.22504
-5.2491
-5.27265
-5.29556
-5.31772
-5.33901
-5.35931
-5.37849
-5.39644
-5.41304
-5.42815
-5.44166
-5.45345
-5.46339
-5.47137
-5.47726
-5.48094
-5.4823
-5.48122
-5.4776
-5.47132
-5.46228
-5.45037
-5.43552
-5.41761
-5.39657
-5.37231
-5.34476
-5.31385
-5.27952
-5.24171
-5.20036
-5.15544
-5.1069
-5.05472
-4.99886
-4.93932
-4.87608
-4.80913
-4.73848
-4.66413
-4.5861
-4.5044
-4.41905
-4.33009
-4.23754
-4.14144
-4.04184
-3.93878
-3.83232
-3.72253
-3.60946
-3.49319
-3.37379
-3.25134
-3.12594
-2.99766
-2.86661
-2.73287
-2.59656
-2.45778
-2.31663
-2.17324
-2.0277
-1.88015
-1.73071
-1.57949
-1.42663
-1.27225
-1.11649
-0.959466
-0.801325
-0.642199
-0.482225
-0.321541
-0.160285
0.00140482
0.163388
0.325527
0.48768
0.649709
0.811476
0.972844
1.13368
1.29384
1.45321
1.61164
1.76901
1.92521
2.08009
2.23355
2.38547
2.53574
2.68426
2.83091
2.97562
3.11827
3.25879
3.39709
3.53309
3.66673
3.79794
3.92665
4.05281
4.17636
4.29726
4.41545
4.5309
4.64357
4.75347
4.86058
4.9649
5.06643
5.16514
5.26105
5.35416
5.44448
5.53201
5.61678
5.69881
5.7781
5.8547
5.92861
5.99987
6.06851
6.13455
6.19803
6.25897
6.31741
6.37339
6.42693
6.47809
6.52692
6.57347
6.61782
6.66006
6.70033
6.73878
6.77564
6.8112
6.8457
6.87972
6.91204
6.94709
6.96014
-4.66956
-4.68092
-4.69529
-4.70781
-4.71742
-4.72515
-4.73194
-4.73839
-4.74495
-4.75195
-4.75964
-4.76819
-4.77772
-4.78832
-4.80003
-4.81287
-4.82685
-4.84194
-4.85813
-4.87537
-4.89362
-4.91282
-4.93291
-4.95383
-4.97549
-4.99782
-5.02075
-5.04418
-5.06802
-5.09219
-5.11659
-5.14112
-5.16568
-5.19018
-5.21449
-5.23853
-5.26217
-5.28531
-5.30783
-5.32961
-5.35055
-5.37051
-5.38939
-5.40705
-5.42338
-5.43826
-5.45155
-5.46314
-5.4729
-5.48071
-5.48646
-5.49001
-5.49125
-5.49008
-5.48637
-5.48002
-5.47091
-5.45896
-5.44407
-5.42614
-5.40508
-5.38082
-5.35327
-5.32238
-5.28808
-5.25031
-5.20902
-5.16417
-5.11572
-5.06363
-5.00789
-4.94849
-4.88539
-4.81861
-4.74813
-4.67396
-4.59612
-4.51461
-4.42947
-4.34071
-4.24838
-4.15251
-4.05314
-3.95032
-3.84412
-3.73458
-3.62177
-3.50577
-3.38666
-3.2645
-3.13938
-3.0114
-2.88065
-2.74722
-2.61122
-2.47275
-2.33191
-2.18883
-2.0436
-1.89637
-1.74723
-1.59632
-1.44376
-1.28969
-1.13422
-0.977487
-0.819631
-0.660782
-0.501078
-0.340656
-0.179654
-0.0182096
0.143539
0.305452
0.467391
0.629216
0.790791
0.951979
1.11264
1.27265
1.43188
1.59018
1.74744
1.90352
2.05832
2.2117
2.36356
2.51378
2.66227
2.80891
2.95361
3.09627
3.23682
3.37516
3.51121
3.64492
3.7762
3.905
4.03126
4.15493
4.27594
4.39427
4.50985
4.62268
4.73274
4.84003
4.94454
5.04626
5.14518
5.24132
5.33466
5.42521
5.513
5.59803
5.68033
5.7599
5.83678
5.91099
5.98255
6.05148
6.11783
6.18161
6.24286
6.3016
6.35788
6.41172
6.46317
6.51228
6.55908
6.60366
6.64608
6.68646
6.72493
6.76164
6.79678
6.83045
6.86298
6.89284
6.92428
6.93111
-4.67473
-4.68561
-4.69987
-4.71281
-4.72317
-4.73179
-4.73952
-4.74695
-4.75448
-4.76242
-4.77102
-4.78043
-4.79077
-4.80211
-4.8145
-4.82795
-4.84245
-4.858
-4.87456
-4.8921
-4.91057
-4.92992
-4.95009
-4.97101
-4.99263
-5.01486
-5.03763
-5.06087
-5.0845
-5.10841
-5.13254
-5.15678
-5.18105
-5.20523
-5.22924
-5.25297
-5.27631
-5.29916
-5.32139
-5.3429
-5.36357
-5.38329
-5.40192
-5.41935
-5.43546
-5.45013
-5.46322
-5.47462
-5.48419
-5.49183
-5.4974
-5.50079
-5.50188
-5.50055
-5.49669
-5.49019
-5.48095
-5.46886
-5.45383
-5.43577
-5.4146
-5.39022
-5.36257
-5.33158
-5.29718
-5.25933
-5.21797
-5.17306
-5.12456
-5.07245
-5.0167
-4.95729
-4.89421
-4.82744
-4.757
-4.68287
-4.60508
-4.52363
-4.43856
-4.34988
-4.25764
-4.16187
-4.06261
-3.95991
-3.85384
-3.74444
-3.63179
-3.51595
-3.39701
-3.27503
-3.15011
-3.02233
-2.89178
-2.75857
-2.62278
-2.48454
-2.34393
-2.20108
-2.0561
-1.90911
-1.76021
-1.60955
-1.45724
-1.3034
-1.14818
-0.991691
-0.834073
-0.675461
-0.515989
-0.355796
-0.195017
-0.0337908
0.127745
0.289453
0.451193
0.612827
0.774219
0.935231
1.09573
1.25558
1.41465
1.57281
1.72994
1.8859
2.04059
2.19387
2.34565
2.4958
2.64421
2.7908
2.93546
3.07809
3.21862
3.35695
3.49301
3.62673
3.75804
3.88687
4.01317
4.13689
4.25797
4.37636
4.49204
4.60497
4.71514
4.82255
4.92718
5.02904
5.12811
5.2244
5.31791
5.40865
5.49663
5.58186
5.66436
5.74416
5.82126
5.8957
5.96749
6.03667
6.10326
6.16729
6.22879
6.28779
6.34431
6.3984
6.45008
6.49939
6.54639
6.59113
6.63366
6.67407
6.71244
6.74889
6.7835
6.81624
6.84724
6.87476
6.90301
6.90467
-4.68532
-4.69524
-4.70865
-4.72132
-4.73187
-4.7409
-4.74919
-4.75724
-4.76542
-4.77402
-4.78325
-4.79325
-4.80415
-4.81599
-4.82884
-4.84269
-4.85754
-4.87339
-4.89019
-4.90792
-4.92654
-4.94598
-4.9662
-4.98714
-5.00873
-5.03091
-5.0536
-5.07673
-5.10022
-5.12399
-5.14795
-5.17202
-5.19611
-5.22011
-5.24393
-5.26747
-5.29062
-5.31327
-5.33532
-5.35664
-5.37713
-5.39665
-5.4151
-5.43235
-5.44828
-5.46276
-5.47566
-5.48687
-5.49626
-5.5037
-5.50908
-5.51227
-5.51315
-5.51162
-5.50755
-5.50084
-5.49138
-5.47908
-5.46384
-5.44556
-5.42417
-5.39959
-5.37173
-5.34054
-5.30596
-5.26792
-5.22639
-5.18132
-5.13267
-5.08043
-5.02456
-4.96504
-4.90187
-4.83502
-4.7645
-4.69031
-4.61246
-4.53098
-4.44588
-4.35718
-4.26493
-4.16917
-4.06993
-3.96727
-3.86124
-3.75191
-3.63933
-3.52358
-3.40473
-3.28287
-3.15807
-3.03042
-2.90002
-2.76696
-2.63135
-2.49327
-2.35285
-2.21019
-2.0654
-1.9186
-1.76991
-1.61945
-1.46735
-1.31373
-1.15872
-1.00245
-0.845044
-0.686646
-0.527388
-0.367406
-0.206836
-0.0458168
0.115515
0.27702
0.438561
0.600002
0.761206
0.922036
1.08236
1.24204
1.40094
1.55895
1.71593
1.87176
2.02631
2.17947
2.33113
2.48117
2.62949
2.77598
2.92056
3.06312
3.20359
3.34187
3.47789
3.61157
3.74286
3.87168
3.99797
4.12169
4.24278
4.3612
4.47692
4.5899
4.70013
4.80761
4.91232
5.01426
5.11344
5.20983
5.30346
5.39433
5.48245
5.56783
5.65049
5.73045
5.80773
5.88235
5.95434
6.02371
6.0905
6.15474
6.21644
6.27564
6.33237
6.38665
6.43852
6.488
6.53514
6.57998
6.62255
6.66292
6.70113
6.73723
6.77123
6.80298
6.83247
6.85779
6.88324
6.88059
-4.69964
-4.70827
-4.72033
-4.73216
-4.74238
-4.75142
-4.75989
-4.76824
-4.77677
-4.78575
-4.79535
-4.80571
-4.81693
-4.82908
-4.8422
-4.85628
-4.87134
-4.88736
-4.90431
-4.92215
-4.94086
-4.96036
-4.98063
-5.00159
-5.02318
-5.04534
-5.068
-5.09109
-5.11453
-5.13824
-5.16214
-5.18613
-5.21014
-5.23405
-5.25778
-5.28122
-5.30427
-5.32682
-5.34875
-5.36996
-5.39032
-5.40971
-5.42802
-5.44511
-5.46088
-5.47518
-5.4879
-5.49891
-5.50809
-5.51531
-5.52046
-5.5234
-5.52403
-5.52224
-5.5179
-5.51091
-5.50117
-5.48858
-5.47305
-5.45449
-5.43281
-5.40793
-5.37979
-5.34833
-5.31347
-5.27517
-5.23339
-5.18808
-5.13921
-5.08676
-5.0307
-4.971
-4.90765
-4.84064
-4.76997
-4.69565
-4.61768
-4.53608
-4.45088
-4.36211
-4.26979
-4.17398
-4.0747
-3.97202
-3.86599
-3.75667
-3.64412
-3.52841
-3.40963
-3.28783
-3.16312
-3.03558
-2.90529
-2.77235
-2.63687
-2.49894
-2.35868
-2.21618
-2.07156
-1.92494
-1.77644
-1.62618
-1.47427
-1.32085
-1.16604
-1.00998
-0.852785
-0.694601
-0.535557
-0.375788
-0.215432
-0.0546243
0.106496
0.267792
0.429127
0.590364
0.751367
0.912
1.07213
1.23162
1.39034
1.54817
1.70497
1.86063
2.01502
2.16803
2.31953
2.46943
2.61762
2.76399
2.90845
3.0509
3.19126
3.32945
3.46538
3.59899
3.73021
3.85897
3.98521
4.10889
4.22995
4.34835
4.46405
4.57704
4.68729
4.79479
4.89954
5.00153
5.10076
5.19722
5.29093
5.38188
5.4701
5.55559
5.63836
5.71845
5.79586
5.87063
5.94276
6.0123
6.07925
6.14366
6.20553
6.2649
6.3218
6.37624
6.42825
6.47787
6.52511
6.57
6.61257
6.65285
6.69084
6.72653
6.75987
6.79061
6.81863
6.84192
6.86491
6.85869
-4.71589
-4.72306
-4.73341
-4.74399
-4.7535
-4.76219
-4.77053
-4.77888
-4.78751
-4.79662
-4.80638
-4.81691
-4.8283
-4.84059
-4.85383
-4.86803
-4.88319
-4.89929
-4.91631
-4.93422
-4.95297
-4.97252
-4.99283
-5.01382
-5.03544
-5.05763
-5.08031
-5.10342
-5.12687
-5.15059
-5.1745
-5.19849
-5.22249
-5.2464
-5.27011
-5.29352
-5.31653
-5.33903
-5.36089
-5.38202
-5.40228
-5.42156
-5.43973
-5.45668
-5.47227
-5.48638
-5.49889
-5.50968
-5.51861
-5.52557
-5.53043
-5.53308
-5.5334
-5.53128
-5.52661
-5.51928
-5.5092
-5.49626
-5.48037
-5.46145
-5.43941
-5.41419
-5.3857
-5.3539
-5.31871
-5.2801
-5.23802
-5.19242
-5.14329
-5.09058
-5.03427
-4.97434
-4.91077
-4.84355
-4.77268
-4.69818
-4.62004
-4.5383
-4.45297
-4.36408
-4.27167
-4.17578
-4.07645
-3.97373
-3.86767
-3.75834
-3.64581
-3.53013
-3.41139
-3.28966
-3.16502
-3.03757
-2.90739
-2.77457
-2.63922
-2.50144
-2.36133
-2.219
-2.07456
-1.92813
-1.77982
-1.62975
-1.47805
-1.32484
-1.17025
-1.0144
-0.857432
-0.699473
-0.540657
-0.381117
-0.22099
-0.0604126
0.100478
0.261544
0.42265
0.583659
0.744435
0.904844
1.06475
1.22402
1.38253
1.54015
1.69674
1.8522
2.00639
2.1592
2.31052
2.46024
2.60826
2.75446
2.89876
3.04106
3.18128
3.31933
3.45513
3.58862
3.71972
3.84838
3.97453
4.09812
4.21911
4.33745
4.4531
4.56606
4.67628
4.78377
4.88852
4.99051
5.08975
5.18625
5.27999
5.371
5.45927
5.54483
5.62769
5.70787
5.78539
5.86026
5.93252
6.00218
6.06927
6.13381
6.19583
6.25534
6.31238
6.36695
6.41909
6.4688
6.51611
6.56103
6.60356
6.6437
6.68143
6.71668
6.74934
6.77908
6.80569
6.82712
6.84793
6.83876
-4.73234
-4.738
-4.74648
-4.75553
-4.76402
-4.77208
-4.78004
-4.78817
-4.79669
-4.80576
-4.81553
-4.82608
-4.83749
-4.84982
-4.8631
-4.87733
-4.89252
-4.90865
-4.9257
-4.94365
-4.96243
-4.98203
-5.00237
-5.02341
-5.04508
-5.06733
-5.09007
-5.11323
-5.13675
-5.16053
-5.18448
-5.20853
-5.23256
-5.25649
-5.28022
-5.30363
-5.32662
-5.34907
-5.37088
-5.39192
-5.41207
-5.43122
-5.44923
-5.46599
-5.48137
-5.49525
-5.5075
-5.518
-5.52662
-5.53325
-5.53777
-5.54007
-5.54001
-5.53751
-5.53244
-5.52471
-5.51422
-5.50087
-5.48458
-5.46525
-5.44281
-5.41719
-5.38833
-5.35615
-5.3206
-5.28165
-5.23924
-5.19334
-5.14392
-5.09093
-5.03436
-4.97417
-4.91036
-4.84291
-4.77184
-4.69715
-4.61884
-4.53694
-4.45148
-4.36248
-4.26998
-4.17401
-4.07463
-3.97188
-3.86581
-3.75649
-3.64399
-3.52835
-3.40968
-3.28803
-3.16349
-3.03615
-2.90609
-2.77342
-2.63823
-2.50061
-2.36068
-2.21854
-2.0743
-1.92807
-1.77998
-1.63014
-1.47867
-1.32569
-1.17134
-1.01574
-0.859025
-0.70132
-0.542761
-0.383481
-0.223616
-0.0633016
0.0973253
0.258128
0.41897
0.579715
0.740229
0.900377
1.06002
1.21904
1.37729
1.53466
1.69101
1.84622
2.00017
2.15275
2.30385
2.45334
2.60114
2.74713
2.89123
3.03333
3.17336
3.31123
3.44686
3.58018
3.71113
3.83964
3.96566
4.08912
4.20999
4.32823
4.4438
4.55668
4.66684
4.77428
4.87898
4.98095
5.08018
5.17666
5.27041
5.36143
5.44974
5.53534
5.61825
5.6985
5.77609
5.85105
5.9234
5.99316
6.06036
6.12502
6.18716
6.24679
6.30394
6.35863
6.41087
6.46066
6.50801
6.55293
6.59539
6.63537
6.67281
6.7076
6.73957
6.76833
6.79362
6.81335
6.83222
6.82064
-4.7475
-4.75168
-4.75824
-4.7656
-4.7729
-4.78013
-4.78752
-4.79527
-4.80353
-4.81243
-4.82208
-4.83256
-4.84393
-4.85623
-4.86949
-4.88371
-4.8989
-4.91503
-4.9321
-4.95006
-4.96888
-4.98851
-5.0089
-5.02999
-5.05172
-5.07403
-5.09684
-5.12007
-5.14365
-5.16749
-5.1915
-5.21559
-5.23965
-5.26359
-5.28731
-5.31068
-5.33362
-5.35599
-5.37768
-5.39857
-5.41855
-5.4375
-5.45528
-5.47178
-5.48687
-5.50043
-5.51234
-5.52248
-5.53073
-5.53696
-5.54107
-5.54293
-5.54244
-5.53949
-5.53398
-5.5258
-5.51485
-5.50106
-5.48433
-5.46457
-5.44171
-5.41569
-5.38643
-5.35388
-5.31799
-5.2787
-5.23598
-5.18979
-5.14009
-5.08684
-5.03
-4.96957
-4.90554
-4.83789
-4.76663
-4.69177
-4.61332
-4.53131
-4.44575
-4.35667
-4.26411
-4.16811
-4.06871
-3.96597
-3.85994
-3.75067
-3.63823
-3.52268
-3.40411
-3.28259
-3.15819
-3.031
-2.90112
-2.76863
-2.63364
-2.49623
-2.35652
-2.21462
-2.07062
-1.92465
-1.77682
-1.62724
-1.47605
-1.32335
-1.16929
-1.01398
-0.85756
-0.700154
-0.541897
-0.382922
-0.223364
-0.0633575
0.0969601
0.257453
0.417986
0.578422
0.738628
0.898468
1.05781
1.21652
1.37448
1.53154
1.6876
1.84252
1.99619
2.14848
2.2993
2.44853
2.59606
2.74179
2.88564
3.0275
3.16729
3.30493
3.44035
3.57346
3.70421
3.83253
3.95837
4.08167
4.20238
4.32048
4.43592
4.54868
4.65875
4.7661
4.87073
4.97263
5.07181
5.16826
5.26198
5.35299
5.4413
5.52692
5.60986
5.69014
5.76778
5.8428
5.91523
5.98508
6.05237
6.11712
6.17936
6.2391
6.29635
6.35114
6.40345
6.45331
6.50069
6.54559
6.58796
6.62777
6.66491
6.69923
6.73052
6.75835
6.7824
6.8006
6.81772
6.80419
-4.76006
-4.76295
-4.76763
-4.77326
-4.77924
-4.78552
-4.79223
-4.79948
-4.80739
-4.81604
-4.82552
-4.83587
-4.84715
-4.85939
-4.8726
-4.88679
-4.90196
-4.91809
-4.93515
-4.95311
-4.97194
-4.99159
-5.012
-5.03311
-5.05487
-5.07721
-5.10004
-5.12329
-5.14688
-5.17072
-5.19471
-5.21877
-5.24278
-5.26664
-5.29025
-5.31349
-5.33626
-5.35844
-5.37991
-5.40055
-5.42025
-5.43888
-5.45633
-5.47246
-5.48717
-5.50032
-5.51181
-5.5215
-5.52929
-5.53505
-5.53869
-5.54007
-5.5391
-5.53567
-5.52968
-5.52103
-5.50963
-5.49539
-5.47822
-5.45805
-5.43479
-5.40839
-5.37878
-5.34589
-5.30969
-5.27012
-5.22715
-5.18071
-5.13077
-5.07728
-5.02024
-4.95961
-4.89541
-4.82761
-4.75623
-4.68127
-4.60274
-4.52067
-4.43507
-4.34599
-4.25344
-4.15748
-4.05814
-3.95548
-3.84954
-3.74039
-3.62809
-3.51271
-3.39431
-3.27298
-3.14879
-3.02183
-2.89219
-2.75995
-2.62522
-2.48809
-2.34867
-2.20706
-2.06338
-1.91772
-1.77021
-1.62097
-1.47011
-1.31776
-1.16404
-1.00908
-0.853013
-0.695965
-0.538068
-0.379455
-0.220261
-0.0606203
0.0993314
0.259458
0.419625
0.579696
0.739537
0.899014
1.058
1.21635
1.37395
1.53066
1.68637
1.84094
1.99427
2.14623
2.29672
2.44563
2.59284
2.73827
2.88181
3.02338
3.16289
3.30026
3.43541
3.56827
3.69877
3.82686
3.95247
4.07556
4.19608
4.314
4.42928
4.54189
4.65182
4.75905
4.86357
4.96538
5.06448
5.16086
5.25453
5.34551
5.43379
5.5194
5.60234
5.68264
5.76031
5.83538
5.90786
5.97777
6.04514
6.10998
6.17231
6.23214
6.28949
6.34435
6.39674
6.44665
6.49405
6.53892
6.5812
6.62082
6.65766
6.69153
6.72216
6.7491
6.77201
6.78883
6.80436
6.7893
-4.76964
-4.7713
-4.77419
-4.77811
-4.78271
-4.78795
-4.79387
-4.80054
-4.80802
-4.81636
-4.8256
-4.83578
-4.84693
-4.85907
-4.87219
-4.88631
-4.9014
-4.91745
-4.93444
-4.95232
-4.97107
-4.99063
-5.01095
-5.03197
-5.05363
-5.07585
-5.09856
-5.12169
-5.14513
-5.1688
-5.19261
-5.21646
-5.24024
-5.26386
-5.28719
-5.31013
-5.33257
-5.35439
-5.37548
-5.39572
-5.41499
-5.43318
-5.45016
-5.46581
-5.48002
-5.49267
-5.50365
-5.51283
-5.5201
-5.52535
-5.52847
-5.52935
-5.52789
-5.52398
-5.51752
-5.50842
-5.49659
-5.48194
-5.46438
-5.44385
-5.42026
-5.39355
-5.36365
-5.33053
-5.29411
-5.25436
-5.21121
-5.16459
-5.11448
-5.06085
-5.00368
-4.94296
-4.87868
-4.81083
-4.73942
-4.66446
-4.58596
-4.50394
-4.41842
-4.32943
-4.237
-4.14118
-4.04201
-3.93953
-3.8338
-3.72488
-3.61282
-3.4977
-3.37958
-3.25854
-3.13466
-3.00803
-2.87872
-2.74683
-2.61246
-2.4757
-2.33666
-2.19544
-2.05215
-1.9069
-1.7598
-1.61097
-1.46054
-1.30861
-1.15532
-1.0008
-0.84517
-0.68856
-0.531103
-0.372932
-0.214181
-0.0549831
0.104526
0.26421
0.423935
0.583566
0.742969
0.902011
1.06056
1.21848
1.37565
1.53195
1.68723