/*--------------------------------*- C++ -*----------------------------------*\
| =========                 |                                                 |
| \\      /  F ield         | OpenFOAM: The Open Source CFD Toolbox           |
|  \\    /   O peration     | Version:  2412                                  |
|   \\  /    A nd           | Website:  www.openfoam.com                      |
|    \\/     M anipulation  |                                                 |
\*---------------------------------------------------------------------------*/
FoamFile
{
    version     2.0;
    format      ascii;
    arch        "LSB;label=32;scalar=64";
    class       surfaceScalarField;
    location    "0.14";
    object      phi;
}
// * * * * * * * * * * * * * * * * * * * * * * * * * * * * * * * * * * * * * //

dimensions      [0 3 -1 0 0 0 0];

oriented        oriented;

internalField   nonuniform List<scalar> 
24170
(
1.36706e-07
-5.71619e-08
1.9562e-07
-5.89139e-08
2.57915e-07
-6.22951e-08
3.11667e-07
-5.37517e-08
3.61801e-07
-5.01344e-08
4.07906e-07
-4.6105e-08
4.49547e-07
-4.16408e-08
4.87065e-07
-3.75183e-08
5.20847e-07
-3.37817e-08
5.51229e-07
-3.03823e-08
5.78537e-07
-2.73074e-08
6.03061e-07
-2.4524e-08
6.25044e-07
-2.19833e-08
6.44663e-07
-1.96191e-08
6.62056e-07
-1.73929e-08
6.77101e-07
-1.50449e-08
6.89831e-07
-1.27295e-08
-8.21884e-09
6.98049e-07
3.26112e-07
-1.24821e-07
3.94131e-07
-1.26933e-07
4.55883e-07
-1.24047e-07
5.14178e-07
-1.12047e-07
5.67668e-07
-1.03624e-07
6.16619e-07
-9.50559e-08
6.61254e-07
-8.62761e-08
7.01798e-07
-7.80619e-08
7.38546e-07
-7.05305e-08
7.71821e-07
-6.36565e-08
8.01926e-07
-5.74125e-08
8.29135e-07
-5.17338e-08
8.53682e-07
-4.65298e-08
8.75745e-07
-4.16822e-08
8.95439e-07
-3.70869e-08
9.12765e-07
-3.23712e-08
9.27812e-07
-2.77762e-08
-2.0086e-08
9.39679e-07
5.17244e-07
-1.7161e-07
5.79149e-07
-1.88838e-07
6.38206e-07
-1.83104e-07
6.95359e-07
-1.692e-07
7.48167e-07
-1.56432e-07
7.96766e-07
-1.43655e-07
8.41403e-07
-1.30913e-07
8.82213e-07
-1.18872e-07
9.19413e-07
-1.07731e-07
9.53267e-07
-9.75098e-08
9.84034e-07
-8.81798e-08
1.01196e-06
-7.96555e-08
1.03724e-06
-7.1815e-08
1.06006e-06
-6.4501e-08
1.08052e-06
-5.75458e-08
1.09872e-06
-5.05739e-08
1.11448e-06
-4.35315e-08
-3.35716e-08
1.12796e-06
7.43479e-07
-1.95419e-07
7.91918e-07
-2.37276e-07
8.43825e-07
-2.35011e-07
8.96353e-07
-2.21728e-07
9.46009e-07
-2.06089e-07
9.92282e-07
-1.89927e-07
1.03519e-06
-1.73819e-07
1.07473e-06
-1.5841e-07
1.11101e-06
-1.44011e-07
1.14421e-06
-1.30711e-07
1.17452e-06
-1.18498e-07
1.20215e-06
-1.07283e-07
1.22726e-06
-9.69263e-08
1.25001e-06
-8.72462e-08
1.27049e-06
-7.80301e-08
1.28883e-06
-6.89069e-08
1.3049e-06
-5.96075e-08
-4.80187e-08
1.31935e-06
1.01492e-06
-1.99872e-07
1.04731e-06
-2.69658e-07
1.08853e-06
-2.76233e-07
1.13338e-06
-2.66586e-07
1.17751e-06
-2.5021e-07
1.2195e-06
-2.31917e-07
1.25898e-06
-2.13303e-07
1.29576e-06
-1.95194e-07
1.32981e-06
-1.78059e-07
1.36119e-06
-1.62091e-07
1.39002e-06
-1.47322e-07
1.41641e-06
-1.3368e-07
1.44051e-06
-1.21025e-07
1.46243e-06
-1.09167e-07
1.48228e-06
-9.78722e-08
1.50016e-06
-8.67888e-08
1.51612e-06
-7.55681e-08
-6.27386e-08
1.53084e-06
1.33808e-06
-1.90512e-07
1.35426e-06
-2.85841e-07
1.38244e-06
-3.04412e-07
1.41694e-06
-3.01089e-07
1.45314e-06
-2.8641e-07
1.48881e-06
-2.67582e-07
1.52309e-06
-2.47582e-07
1.55554e-06
-2.27647e-07
1.58595e-06
-2.08471e-07
1.61426e-06
-1.90395e-07
1.64046e-06
-1.73528e-07
1.66462e-06
-1.57837e-07
1.6868e-06
-1.43205e-07
1.70709e-06
-1.29452e-07
1.72556e-06
-1.16349e-07
1.74235e-06
-1.03582e-07
1.7576e-06
-9.08112e-08
-7.70537e-08
1.77191e-06
1.71767e-06
-1.72901e-07
1.7193e-06
-2.87468e-07
1.73352e-06
-3.18638e-07
1.7557e-06
-3.2327e-07
1.78181e-06
-3.12518e-07
1.80914e-06
-2.9491e-07
1.83639e-06
-2.74835e-07
1.86287e-06
-2.5412e-07
1.88815e-06
-2.33757e-07
1.91203e-06
-2.14275e-07
1.9344e-06
-1.95894e-07
1.95521e-06
-1.7865e-07
1.97447e-06
-1.6247e-07
1.99223e-06
-1.47203e-07
2.00852e-06
-1.32648e-07
2.02349e-06
-1.18547e-07
2.0373e-06
-1.04617e-07
-9.02326e-08
2.05047e-06
2.15733e-06
-1.51544e-07
2.14717e-06
-2.77302e-07
2.14804e-06
-3.19507e-07
2.15703e-06
-3.3226e-07
2.17145e-06
-3.26943e-07
2.18871e-06
-3.12164e-07
2.20723e-06
-2.93359e-07
2.22612e-06
-2.73005e-07
2.24478e-06
-2.52418e-07
2.26285e-06
-2.32345e-07
2.2801e-06
-2.13147e-07
2.2964e-06
-1.94953e-07
2.31168e-06
-1.77751e-07
2.32592e-06
-1.61444e-07
2.33915e-06
-1.45876e-07
2.35146e-06
-1.30856e-07
2.36302e-06
-1.16179e-07
-1.01478e-07
2.37427e-06
2.66011e-06
-1.29465e-07
2.64126e-06
-2.58455e-07
2.63056e-06
-3.08802e-07
2.62677e-06
-3.28477e-07
2.62885e-06
-3.29022e-07
2.63488e-06
-3.18192e-07
2.64334e-06
-3.01822e-07
2.65325e-06
-2.82915e-07
2.66393e-06
-2.6309e-07
2.67488e-06
-2.43296e-07
2.68578e-06
-2.24048e-07
2.69641e-06
-2.05581e-07
2.70662e-06
-1.87965e-07
2.71634e-06
-1.71166e-07
2.72556e-06
-1.55092e-07
2.73433e-06
-1.39621e-07
2.74278e-06
-1.24635e-07
-1.09945e-07
2.75125e-06
3.22873e-06
-1.08341e-07
3.204e-06
-2.33717e-07
3.18406e-06
-2.8887e-07
3.16902e-06
-3.13433e-07
3.1592e-06
-3.19201e-07
3.15372e-06
-3.12715e-07
3.15143e-06
-2.99532e-07
3.15145e-06
-2.82933e-07
3.1531e-06
-2.64739e-07
3.15586e-06
-2.46054e-07
3.15933e-06
-2.27523e-07
3.16324e-06
-2.09488e-07
3.16738e-06
-1.92103e-07
3.17162e-06
-1.75408e-07
3.1759e-06
-1.59378e-07
3.18024e-06
-1.43959e-07
3.18472e-06
-1.29117e-07
-1.14782e-07
3.18956e-06
3.8657e-06
-8.90149e-08
3.83717e-06
-2.05185e-07
3.81024e-06
-2.61938e-07
3.78604e-06
-2.89235e-07
3.76575e-06
-2.98905e-07
3.74946e-06
-2.96433e-07
3.73658e-06
-2.86652e-07
3.72648e-06
-2.72835e-07
3.71863e-06
-2.56888e-07
3.71256e-06
-2.3998e-07
3.70787e-06
-2.22838e-07
3.70427e-06
-2.05888e-07
3.70153e-06
-1.89359e-07
3.69948e-06
-1.7336e-07
3.69803e-06
-1.57928e-07
3.69714e-06
-1.4307e-07
3.69685e-06
-1.28827e-07
-1.15195e-07
3.69726e-06
3.81123e-06
-7.33409e-08
3.78551e-06
-1.79468e-07
3.75882e-06
-2.35246e-07
3.73298e-06
-2.63391e-07
3.70929e-06
-2.75217e-07
3.68834e-06
-2.75487e-07
3.67004e-06
-2.68352e-07
3.65413e-06
-2.5692e-07
3.64032e-06
-2.43077e-07
3.62833e-06
-2.27986e-07
3.61788e-06
-2.12394e-07
3.60876e-06
-1.96766e-07
3.60078e-06
-1.81374e-07
3.59379e-06
-1.66371e-07
3.5877e-06
-1.51838e-07
3.58246e-06
-1.37829e-07
3.57801e-06
-1.2438e-07
-1.11734e-07
3.57455e-06
5.03713e-06
-5.77079e-08
5.00706e-06
-1.49406e-07
4.9736e-06
-2.01779e-07
4.9395e-06
-2.29297e-07
4.9065e-06
-2.4221e-07
4.87571e-06
-2.44705e-07
4.84746e-06
-2.40099e-07
4.82171e-06
-2.31168e-07
4.79835e-06
-2.19715e-07
4.7772e-06
-2.06844e-07
4.75809e-06
-1.93275e-07
4.7408e-06
-1.79476e-07
4.72517e-06
-1.65744e-07
4.71106e-06
-1.52261e-07
4.69836e-06
-1.3914e-07
4.68699e-06
-1.26466e-07
4.67692e-06
-1.14303e-07
-1.0299e-07
4.66817e-06
6.66244e-06
-4.26719e-08
6.62912e-06
-1.16091e-07
6.58916e-06
-1.61817e-07
6.54668e-06
-1.8682e-07
6.50383e-06
-1.99354e-07
6.46225e-06
-2.03133e-07
6.42276e-06
-2.00607e-07
6.38562e-06
-1.94026e-07
6.35092e-06
-1.85013e-07
6.31865e-06
-1.74579e-07
6.28875e-06
-1.63371e-07
6.2611e-06
-1.51828e-07
6.23559e-06
-1.40238e-07
6.21213e-06
-1.28792e-07
6.1906e-06
-1.17616e-07
6.17094e-06
-1.06808e-07
6.15309e-06
-9.64493e-08
-8.69045e-08
6.137e-06
8.79086e-06
-2.88682e-08
8.75645e-06
-8.16848e-08
8.71174e-06
-1.17104e-07
8.66206e-06
-1.37136e-07
8.6101e-06
-1.47403e-07
8.55801e-06
-1.51035e-07
8.50713e-06
-1.49732e-07
8.45816e-06
-1.45057e-07
8.41144e-06
-1.38295e-07
8.36716e-06
-1.30296e-07
8.32539e-06
-1.21601e-07
8.28614e-06
-1.12576e-07
8.24938e-06
-1.03477e-07
8.21506e-06
-9.44766e-08
8.18314e-06
-8.56951e-08
8.15356e-06
-7.72256e-08
8.12624e-06
-6.91366e-08
-6.18057e-08
8.10115e-06
1.15181e-05
-1.65932e-08
1.14847e-05
-4.83795e-08
1.14383e-05
-7.06945e-08
1.13845e-05
-8.33007e-08
1.13264e-05
-8.93082e-08
1.12664e-05
-9.10306e-08
1.12063e-05
-8.9612e-08
1.11472e-05
-8.59659e-08
1.10898e-05
-8.09231e-08
1.10346e-05
-7.50769e-08
1.09818e-05
-6.88025e-08
1.09316e-05
-6.23504e-08
1.0884e-05
-5.59e-08
1.08391e-05
-4.95781e-08
1.07969e-05
-4.34798e-08
1.07573e-05
-3.76819e-08
1.07204e-05
-3.22116e-08
-2.74527e-08
1.06861e-05
1.48842e-05
-5.3853e-09
1.48525e-05
-1.666e-08
1.48063e-05
-2.44622e-08
1.4751e-05
-2.80677e-08
1.46904e-05
-2.86388e-08
1.46267e-05
-2.73442e-08
1.45618e-05
-2.47722e-08
1.44972e-05
-2.13194e-08
1.44336e-05
-1.73658e-08
1.43718e-05
-1.32048e-08
1.4312e-05
-9.02095e-09
1.42546e-05
-4.93231e-09
1.41997e-05
-1.03267e-09
1.41475e-05
2.64374e-09
1.4098e-05
6.03032e-09
1.40512e-05
9.08621e-09
1.40071e-05
1.1841e-08
1.39441e-08
1.39658e-05
1.8769e-05
6.29047e-09
1.87365e-05
1.58744e-08
1.86883e-05
2.37295e-08
1.86301e-05
3.01243e-08
1.85661e-05
3.54004e-08
1.84989e-05
3.9823e-08
1.84306e-05
4.35597e-08
1.83625e-05
4.67337e-08
1.82957e-05
4.94398e-08
1.82308e-05
5.17446e-08
1.8168e-05
5.36926e-08
1.81078e-05
5.53137e-08
1.80501e-05
5.66279e-08
1.79951e-05
5.76467e-08
1.79428e-05
5.83746e-08
1.78931e-05
5.87997e-08
1.78459e-05
5.89808e-08
5.8658e-08
1.78012e-05
2.26768e-05
1.70195e-08
2.26399e-05
5.28244e-08
2.25835e-05
8.01235e-08
2.25149e-05
9.87145e-08
2.24392e-05
1.11092e-07
2.23597e-05
1.19262e-07
2.2279e-05
1.24284e-07
2.21988e-05
1.26936e-07
2.21203e-05
1.27914e-07
2.20443e-05
1.27742e-07
2.19713e-05
1.26761e-07
2.19014e-05
1.25195e-07
2.18348e-05
1.23207e-07
2.17715e-05
1.20908e-07
2.17115e-05
1.18375e-07
2.16547e-05
1.15657e-07
2.16009e-05
1.12814e-07
1.09705e-07
2.15498e-05
1.5604e-05
3.26628e-08
1.55641e-05
9.26774e-08
1.55091e-05
1.35127e-07
1.54457e-05
1.62134e-07
1.53778e-05
1.79001e-07
1.53081e-05
1.88944e-07
1.52387e-05
1.93679e-07
1.5171e-05
1.94668e-07
1.51057e-05
1.93154e-07
1.50435e-05
1.90001e-07
1.49845e-05
1.85772e-07
1.49288e-05
1.80855e-07
1.48765e-05
1.75523e-07
1.48274e-05
1.69966e-07
1.47815e-05
1.64317e-07
1.47385e-05
1.58666e-07
1.46982e-05
1.53077e-07
1.47488e-07
1.46604e-05
1.23902e-05
5.1252e-08
1.23448e-05
1.38144e-07
1.22864e-05
1.93475e-07
1.22226e-05
2.26004e-07
1.21567e-05
2.4488e-07
1.20914e-05
2.54218e-07
1.20285e-05
2.56552e-07
1.1969e-05
2.54212e-07
1.19132e-05
2.48954e-07
1.18613e-05
2.41899e-07
1.18133e-05
2.33774e-07
1.17691e-05
2.25079e-07
1.17284e-05
2.16155e-07
1.16912e-05
2.07229e-07
1.1657e-05
1.98448e-07
1.16258e-05
1.8991e-07
1.15972e-05
1.81661e-07
1.73688e-07
1.1571e-05
9.55929e-06
7.55568e-08
9.50979e-06
1.8764e-07
9.45373e-06
2.49533e-07
9.39693e-06
2.82803e-07
9.34176e-06
3.00054e-07
9.2902e-06
3.05773e-07
9.24322e-06
3.0354e-07
9.20093e-06
2.96495e-07
9.1632e-06
2.86681e-07
9.12977e-06
2.75329e-07
9.10031e-06
2.63238e-07
9.07445e-06
2.5094e-07
9.05183e-06
2.38777e-07
9.0321e-06
2.26956e-07
9.01495e-06
2.15599e-07
9.00008e-06
2.04777e-07
8.98724e-06
1.94505e-07
1.84789e-07
8.97614e-06
7.18003e-06
1.04973e-07
7.13265e-06
2.35025e-07
7.08702e-06
2.95164e-07
7.04546e-06
3.24363e-07
7.00925e-06
3.36261e-07
6.97933e-06
3.35688e-07
6.95538e-06
3.2749e-07
6.93663e-06
3.15248e-07
6.92234e-06
3.00971e-07
6.91184e-06
2.85827e-07
6.90453e-06
2.70556e-07
6.89985e-06
2.55615e-07
6.89737e-06
2.41261e-07
6.89669e-06
2.2763e-07
6.89751e-06
2.14782e-07
6.89955e-06
2.02732e-07
6.9026e-06
1.91459e-07
1.80958e-07
6.90643e-06
5.24556e-06
1.38129e-07
5.20787e-06
2.72717e-07
5.18045e-06
3.22587e-07
5.16164e-06
3.43165e-07
5.15139e-06
3.46513e-07
5.14864e-06
3.38444e-07
5.15155e-06
3.24581e-07
5.15862e-06
3.08173e-07
5.16876e-06
2.90829e-07
5.18112e-06
2.73469e-07
5.19503e-06
2.56645e-07
5.20999e-06
2.40651e-07
5.22563e-06
2.25623e-07
5.24166e-06
2.11602e-07
5.25787e-06
1.98577e-07
5.27409e-06
1.8651e-07
5.2902e-06
1.75343e-07
1.65064e-07
5.3061e-06
3.71461e-06
1.71649e-07
3.69608e-06
2.91255e-07
3.69444e-06
3.24226e-07
3.70437e-06
3.33234e-07
3.72346e-06
3.27425e-07
3.74844e-06
3.13456e-07
3.77676e-06
2.9626e-07
3.80687e-06
2.78066e-07
3.83777e-06
2.59931e-07
3.86877e-06
2.42464e-07
3.89943e-06
2.25988e-07
3.92945e-06
2.10639e-07
3.95862e-06
1.96444e-07
3.98686e-06
1.8337e-07
4.01408e-06
1.71355e-07
4.04026e-06
1.60324e-07
4.06541e-06
1.50199e-07
1.40964e-07
4.08951e-06
2.5354e-06
1.96847e-07
2.54625e-06
2.80405e-07
2.57487e-06
2.95604e-07
2.6142e-06
2.93906e-07
2.65967e-06
2.81958e-07
2.70728e-06
2.6584e-07
2.75502e-06
2.48524e-07
2.80187e-06
2.31209e-07
2.84726e-06
2.14548e-07
2.89083e-06
1.9889e-07
2.93243e-06
1.84385e-07
2.97201e-06
1.71061e-07
3.00958e-06
1.58876e-07
3.04519e-06
1.47759e-07
3.07893e-06
1.37621e-07
3.11087e-06
1.28376e-07
3.14113e-06
1.1994e-07
1.12313e-07
3.16978e-06
1.6547e-06
1.99259e-07
1.70057e-06
2.34534e-07
1.75708e-06
2.39085e-07
1.81983e-06
2.31158e-07
1.88379e-06
2.18e-07
1.946e-06
2.03634e-07
2.00558e-06
1.88937e-07
2.06218e-06
1.7461e-07
2.11561e-06
1.61119e-07
2.16586e-06
1.48643e-07
2.21302e-06
1.37224e-07
2.25724e-06
1.26836e-07
2.29871e-06
1.17415e-07
2.33759e-06
1.08878e-07
2.37407e-06
1.01139e-07
2.40833e-06
9.41154e-08
2.44054e-06
8.77278e-08
8.20141e-08
2.47084e-06
1.01827e-06
1.63847e-07
1.09488e-06
1.57925e-07
1.17024e-06
1.63725e-07
1.2467e-06
1.54703e-07
1.32009e-06
1.44605e-07
1.38908e-06
1.34649e-07
1.45371e-06
1.24302e-07
1.51405e-06
1.14272e-07
1.5702e-06
1.04972e-07
1.62237e-06
9.64673e-08
1.67085e-06
8.87455e-08
1.71592e-06
8.17716e-08
1.75785e-06
7.54863e-08
1.7969e-06
6.98203e-08
1.83334e-06
6.4706e-08
1.86737e-06
6.00825e-08
1.89923e-06
5.58705e-08
5.21457e-08
1.9291e-06
5.69237e-07
8.45265e-08
6.58982e-07
6.81799e-08
7.40765e-07
8.1942e-08
8.20862e-07
7.46061e-08
8.95863e-07
6.9604e-08
9.65417e-07
6.50947e-08
1.02984e-06
5.98793e-08
1.08935e-06
5.47639e-08
1.14422e-06
5.00984e-08
1.19482e-06
4.5872e-08
1.24151e-06
4.20553e-08
1.28465e-06
3.86278e-08
1.32458e-06
3.55557e-08
1.3616e-06
3.2799e-08
1.39599e-06
3.03197e-08
1.42798e-06
2.80889e-08
1.45782e-06
2.60347e-08
2.42059e-08
1.48576e-06
2.22451e-07
2.9063e-07
3.72572e-07
4.47179e-07
5.16783e-07
5.81877e-07
6.41757e-07
6.9652e-07
7.46619e-07
7.92491e-07
8.34546e-07
8.73174e-07
9.0873e-07
9.41529e-07
9.71848e-07
9.99937e-07
1.02597e-06
1.05018e-06
2.32374e-08
-2.32374e-08
4.97208e-08
-2.64833e-08
7.07328e-08
-2.1012e-08
8.39996e-08
-1.32668e-08
8.89477e-08
-4.94803e-09
8.59976e-08
2.95012e-09
7.64079e-08
9.58961e-09
6.17402e-08
1.46677e-08
4.34e-08
1.83402e-08
2.23545e-08
2.10455e-08
-9.00905e-10
2.32554e-08
-2.62805e-08
2.53796e-08
-5.39273e-08
2.76468e-08
-8.40401e-08
3.01128e-08
-1.16801e-07
3.27612e-08
-1.52326e-07
3.55248e-08
-1.90647e-07
3.83208e-08
-2.31712e-07
4.10649e-08
-2.75391e-07
4.36789e-08
-3.21484e-07
4.60937e-08
-3.69737e-07
4.82524e-08
-4.19849e-07
5.01118e-08
-4.71492e-07
5.16437e-08
-5.24327e-07
5.28344e-08
-5.7801e-07
5.36838e-08
-6.32214e-07
5.42035e-08
-6.8663e-07
5.44159e-08
-7.40984e-07
5.43539e-08
-7.95045e-07
5.40613e-08
-8.4863e-07
5.35853e-08
-9.01589e-07
5.29591e-08
-9.53792e-07
5.22028e-08
-1.00513e-06
5.13385e-08
-1.05552e-06
5.0387e-08
-1.10488e-06
4.9367e-08
-1.15318e-06
4.82947e-08
-1.20036e-06
4.71837e-08
-1.24641e-06
4.60453e-08
-1.2913e-06
4.48881e-08
-1.33502e-06
4.37188e-08
-1.37756e-06
4.25423e-08
-1.41892e-06
4.13616e-08
-1.4591e-06
4.01789e-08
-1.49809e-06
3.89951e-08
-1.5359e-06
3.78104e-08
-1.57253e-06
3.66246e-08
-1.60797e-06
3.54369e-08
-1.64221e-06
3.42465e-08
-1.67526e-06
3.30524e-08
-1.70712e-06
3.18535e-08
-1.73777e-06
3.06488e-08
-1.7672e-06
2.94375e-08
-1.79542e-06
2.82188e-08
-1.82241e-06
2.69921e-08
-1.84817e-06
2.5757e-08
-1.87268e-06
2.45131e-08
-1.89594e-06
2.32604e-08
-1.91794e-06
2.19987e-08
-1.93867e-06
2.07281e-08
-1.95812e-06
1.94487e-08
-1.97628e-06
1.81606e-08
-1.99314e-06
1.68638e-08
-2.0087e-06
1.55582e-08
-2.02295e-06
1.42433e-08
-2.03586e-06
1.29184e-08
-2.04745e-06
1.15823e-08
-2.05768e-06
1.02324e-08
-2.06654e-06
8.86511e-09
-2.07402e-06
7.47643e-09
-2.08008e-06
6.06011e-09
-2.08469e-06
4.60744e-09
-2.0878e-06
3.11173e-09
-2.08937e-06
1.57399e-09
-2.08931e-06
-6.2643e-11
-2.08796e-06
-1.35314e-09
-2.08537e-06
-2.58727e-09
-2.0816e-06
-3.77156e-09
-2.07667e-06
-4.92581e-09
-2.07061e-06
-6.06405e-09
-2.06342e-06
-7.19147e-09
-2.05511e-06
-8.31019e-09
-2.04569e-06
-9.42066e-09
-2.03516e-06
-1.05227e-08
-2.02355e-06
-1.16157e-08
-2.01085e-06
-1.26993e-08
-1.99708e-06
-1.37728e-08
-1.98224e-06
-1.48355e-08
-1.96635e-06
-1.58869e-08
-1.94943e-06
-1.69264e-08
-1.93147e-06
-1.79535e-08
-1.91251e-06
-1.89678e-08
-1.89254e-06
-1.99686e-08
-1.87158e-06
-2.09557e-08
-1.84965e-06
-2.19284e-08
-1.82677e-06
-2.28866e-08
-1.80294e-06
-2.38296e-08
-1.77818e-06
-2.47571e-08
-1.75251e-06
-2.56687e-08
-1.72595e-06
-2.65641e-08
-1.69851e-06
-2.74427e-08
-1.6702e-06
-2.83043e-08
-1.64105e-06
-2.91484e-08
-1.61108e-06
-2.99747e-08
-1.5803e-06
-3.07827e-08
-1.54872e-06
-3.1572e-08
-1.51638e-06
-3.23422e-08
-1.48329e-06
-3.30928e-08
-1.44946e-06
-3.38234e-08
-1.41493e-06
-3.45334e-08
-1.37971e-06
-3.52225e-08
-1.34382e-06
-3.58901e-08
-1.30728e-06
-3.65357e-08
-1.27012e-06
-3.71588e-08
-1.23237e-06
-3.7759e-08
-1.19403e-06
-3.83356e-08
-1.15514e-06
-3.88881e-08
-1.11573e-06
-3.94161e-08
-1.07581e-06
-3.99191e-08
-1.03541e-06
-4.03966e-08
-9.94562e-07
-4.0848e-08
-9.53289e-07
-4.1273e-08
-9.11618e-07
-4.1671e-08
-8.69576e-07
-4.20417e-08
-8.27191e-07
-4.23847e-08
-7.84492e-07
-4.26995e-08
-7.41506e-07
-4.2986e-08
-6.98262e-07
-4.32437e-08
-6.5479e-07
-4.34724e-08
-6.11118e-07
-4.36718e-08
-5.67276e-07
-4.38417e-08
-5.23294e-07
-4.3982e-08
-4.79202e-07
-4.40923e-08
-4.3503e-07
-4.41724e-08
-3.90808e-07
-4.4222e-08
-3.46567e-07
-4.42409e-08
-3.02338e-07
-4.42283e-08
-2.58155e-07
-4.41836e-08
-2.14048e-07
-4.41063e-08
-1.70054e-07
-4.39943e-08
-1.26208e-07
-4.38462e-08
-8.25423e-08
-4.36656e-08
-3.90926e-08
-4.34497e-08
4.09848e-09
-4.3191e-08
4.69919e-08
-4.28934e-08
8.95564e-08
-4.25645e-08
1.3177e-07
-4.22133e-08
1.73626e-07
-4.18564e-08
2.15119e-07
-4.14928e-08
2.56238e-07
-4.11192e-08
2.96972e-07
-4.07336e-08
3.37306e-07
-4.03346e-08
3.77228e-07
-3.99216e-08
4.16723e-07
-3.94946e-08
4.55777e-07
-3.90541e-08
4.94377e-07
-3.86006e-08
5.32512e-07
-3.81348e-08
5.70169e-07
-3.76575e-08
6.07339e-07
-3.71696e-08
6.44011e-07
-3.66719e-08
6.80176e-07
-3.61651e-08
7.15826e-07
-3.56499e-08
7.50953e-07
-3.51267e-08
7.85548e-07
-3.45955e-08
8.19604e-07
-3.40561e-08
8.53111e-07
-3.35073e-08
8.86059e-07
-3.29471e-08
9.18431e-07
-3.23722e-08
9.50208e-07
-3.17769e-08
9.8136e-07
-3.11527e-08
1.01185e-06
-3.04861e-08
1.0416e-06
-2.97561e-08
1.07053e-06
-2.89295e-08
1.09848e-06
-2.79509e-08
1.12521e-06
-2.67266e-08
1.15028e-06
-2.50748e-08
1.17292e-06
-2.26401e-08
1.19137e-06
-1.84459e-08
1.20154e-06
-1.01692e-08
1.19037e-06
1.11682e-08
5.70467e-08
1.13332e-06
1.85492e-08
-4.17867e-08
2.61079e-08
-3.40421e-08
2.50728e-08
-1.99768e-08
1.80021e-08
-6.19614e-09
6.39987e-09
6.65416e-09
-8.97604e-09
1.8326e-08
-2.80164e-08
2.863e-08
-5.08194e-08
3.74707e-08
-7.74434e-08
4.49642e-08
-1.0782e-07
5.1422e-08
-1.41785e-07
5.72202e-08
-1.79083e-07
6.26783e-08
-2.19431e-07
6.79948e-08
-2.62555e-07
7.32361e-08
-3.08165e-07
7.83716e-08
-3.55955e-07
8.33151e-08
-4.05594e-07
8.7959e-08
-4.56726e-07
9.21973e-08
-5.08986e-07
9.59387e-08
-5.62006e-07
9.91138e-08
-6.15432e-07
1.01678e-07
-6.68933e-07
1.03613e-07
-7.22213e-07
1.04924e-07
-7.75014e-07
1.05635e-07
-8.27121e-07
1.05791e-07
-8.78362e-07
1.05444e-07
-9.28606e-07
1.0466e-07
-9.77758e-07
1.03505e-07
-1.02575e-06
1.0205e-07
-1.07252e-06
1.00356e-07
-1.11803e-06
9.84757e-08
-1.16228e-06
9.64514e-08
-1.20526e-06
9.43198e-08
-1.24699e-06
9.21116e-08
-1.28747e-06
8.98521e-08
-1.32674e-06
8.75613e-08
-1.36481e-06
8.52545e-08
-1.40171e-06
8.2943e-08
-1.43745e-06
8.06345e-08
-1.47207e-06
7.83338e-08
-1.50557e-06
7.60434e-08
-1.53797e-06
7.3764e-08
-1.56929e-06
7.14951e-08
-1.59953e-06
6.9235e-08
-1.6287e-06
6.69814e-08
-1.65681e-06
6.47318e-08
-1.68385e-06
6.24832e-08
-1.70984e-06
6.0233e-08
-1.73477e-06
5.79786e-08
-1.75863e-06
5.57173e-08
-1.78143e-06
5.34472e-08
-1.80316e-06
5.11663e-08
-1.82381e-06
4.88732e-08
-1.84339e-06
4.65667e-08
-1.86188e-06
4.42461e-08
-1.87927e-06
4.19108e-08
-1.89557e-06
3.95606e-08
-1.91077e-06
3.71956e-08
-1.92486e-06
3.4816e-08
-1.93783e-06
3.24222e-08
-1.94969e-06
3.00149e-08
-1.96042e-06
2.75947e-08
-1.97002e-06
2.5162e-08
-1.9785e-06
2.27175e-08
-1.98584e-06
2.02619e-08
-1.99205e-06
1.77956e-08
-1.99714e-06
1.53192e-08
-2.00111e-06
1.28334e-08
-2.00397e-06
1.03397e-08
-2.00575e-06
7.84129e-09
-2.00649e-06
5.34354e-09
-2.00623e-06
2.85697e-09
-2.00508e-06
4.23197e-10
-2.00314e-06
-2.00085e-09
-2.00018e-06
-4.31412e-09
-1.99617e-06
-6.603e-09
-1.99106e-06
-8.87541e-09
-1.98486e-06
-1.11315e-08
-1.97755e-06
-1.33734e-08
-1.96914e-06
-1.56015e-08
-1.95963e-06
-1.78156e-08
-1.94904e-06
-2.0015e-08
-1.93736e-06
-2.21984e-08
-1.92461e-06
-2.43647e-08
-1.9108e-06
-2.65126e-08
-1.89593e-06
-2.86407e-08
-1.88002e-06
-3.07478e-08
-1.86307e-06
-3.28327e-08
-1.84511e-06
-3.48942e-08
-1.82613e-06
-3.69313e-08
-1.80615e-06
-3.8943e-08
-1.78519e-06
-4.09283e-08
-1.76326e-06
-4.28863e-08
-1.74038e-06
-4.4816e-08
-1.71655e-06
-4.67167e-08
-1.69179e-06
-4.85876e-08
-1.66612e-06
-5.04277e-08
-1.63955e-06
-5.22362e-08
-1.6121e-06
-5.40125e-08
-1.58379e-06
-5.57555e-08
-1.55463e-06
-5.74645e-08
-1.52464e-06
-5.91388e-08
-1.49383e-06
-6.07775e-08
-1.46224e-06
-6.23798e-08
-1.42986e-06
-6.39449e-08
-1.39674e-06
-6.54719e-08
-1.36287e-06
-6.69598e-08
-1.32828e-06
-6.84077e-08
-1.293e-06
-6.98147e-08
-1.25705e-06
-7.11797e-08
-1.22043e-06
-7.25018e-08
-1.18319e-06
-7.37801e-08
-1.14533e-06
-7.50135e-08
-1.10689e-06
-7.6201e-08
-1.06789e-06
-7.73414e-08
-1.02834e-06
-7.84338e-08
-9.8828e-07
-7.94772e-08
-9.47728e-07
-8.04706e-08
-9.06712e-07
-8.1413e-08
-8.65257e-07
-8.23034e-08
-8.23389e-07
-8.31409e-08
-7.81135e-07
-8.39246e-08
-7.38523e-07
-8.46538e-08
-6.9558e-07
-8.53275e-08
-6.52335e-07
-8.59452e-08
-6.08814e-07
-8.6506e-08
-5.65049e-07
-8.70096e-08
-5.21066e-07
-8.74552e-08
-4.76895e-07
-8.78424e-08
-4.32566e-07
-8.81707e-08
-3.88108e-07
-8.84398e-08
-3.43551e-07
-8.86493e-08
-2.98925e-07
-8.87987e-08
-2.54259e-07
-8.88875e-08
-2.09585e-07
-8.89152e-08
-1.64932e-07
-8.88811e-08
-1.20332e-07
-8.87836e-08
-7.58165e-08
-8.86222e-08
-3.14159e-08
-8.83949e-08
1.28372e-08
-8.80993e-08
5.69094e-08
-8.77378e-08
1.0077e-07
-8.73101e-08
1.44397e-07
-8.6818e-08
1.87768e-07
-8.62647e-08
2.3086e-07
-8.56564e-08
2.73654e-07
-8.50072e-08
3.16128e-07
-8.43301e-08
3.58262e-07
-8.36277e-08
4.00042e-07
-8.28988e-08
4.41451e-07
-8.21421e-08
4.82472e-07
-8.13566e-08
5.23093e-07
-8.05422e-08
5.63298e-07
-7.96996e-08
6.03074e-07
-7.88297e-08
6.42407e-07
-7.79339e-08
6.81286e-07
-7.70139e-08
7.197e-07
-7.60712e-08
7.57638e-07
-7.51077e-08
7.95091e-07
-7.41249e-08
8.32051e-07
-7.31246e-08
8.68508e-07
-7.21078e-08
9.04457e-07
-7.10755e-08
9.3989e-07
-7.00279e-08
9.74798e-07
-6.89641e-08
1.00917e-06
-6.78822e-08
1.043e-06
-6.67781e-08
1.07628e-06
-6.56449e-08
1.10897e-06
-6.44716e-08
1.14106e-06
-6.3241e-08
1.1725e-06
-6.19265e-08
1.20323e-06
-6.04866e-08
1.23316e-06
-5.8856e-08
1.26213e-06
-5.69275e-08
1.28993e-06
-5.45206e-08
1.31615e-06
-5.13007e-08
1.34016e-06
-4.66428e-08
1.36079e-06
-3.90836e-08
1.37655e-06
-2.59244e-08
1.3859e-06
1.81481e-09
5.80372e-08
1.38491e-06
-1.97463e-10
-4.15892e-08
-1.03641e-08
-2.38754e-08
-2.5294e-08
-5.04703e-09
-4.33059e-08
1.18158e-08
-6.38746e-08
2.72229e-08
-8.6875e-08
4.13265e-08
-1.12396e-07
5.41512e-08
-1.4063e-07
6.57048e-08
-1.71742e-07
7.60757e-08
-2.05764e-07
8.54442e-08
-2.42569e-07
9.40254e-08
-2.81892e-07
1.02001e-07
-3.23374e-07
1.09477e-07
-3.66619e-07
1.16481e-07
-4.11222e-07
1.22974e-07
-4.56793e-07
1.28886e-07
-5.02968e-07
1.34134e-07
-5.49417e-07
1.38647e-07
-5.95851e-07
1.42373e-07
-6.42024e-07
1.45287e-07
-6.87737e-07
1.47391e-07
-7.32834e-07
1.48711e-07
-7.77203e-07
1.49292e-07
-8.20766e-07
1.49199e-07
-8.63476e-07
1.48501e-07
-9.0531e-07
1.47278e-07
-9.4626e-07
1.4561e-07
-9.86327e-07
1.43572e-07
-1.02552e-06
1.41239e-07
-1.06383e-06
1.38672e-07
-1.10128e-06
1.35928e-07
-1.13788e-06
1.33051e-07
-1.17364e-06
1.30077e-07
-1.20857e-06
1.27039e-07
-1.24268e-06
1.23958e-07
-1.27597e-06
1.20854e-07
-1.30845e-06
1.17739e-07
-1.34013e-06
1.14622e-07
-1.37101e-06
1.11509e-07
-1.40108e-06
1.08402e-07
-1.43033e-06
1.05303e-07
-1.45878e-06
1.02209e-07
-1.4864e-06
9.91191e-08
-1.5132e-06
9.603e-08
-1.53916e-06
9.29382e-08
-1.56426e-06
8.98402e-08
-1.58851e-06
8.67322e-08
-1.61189e-06
8.36108e-08
-1.63438e-06
8.04728e-08
-1.65598e-06
7.73153e-08
-1.67667e-06
7.41359e-08
-1.69644e-06
7.09327e-08
-1.71527e-06
6.77041e-08
-1.73315e-06
6.44493e-08
-1.75007e-06
6.11675e-08
-1.76602e-06
5.78587e-08
-1.78098e-06
5.45233e-08
-1.79495e-06
5.11618e-08
-1.80791e-06
4.77752e-08
-1.81985e-06
4.4365e-08
-1.83077e-06
4.09325e-08
-1.84065e-06
3.74797e-08
-1.8495e-06
3.40084e-08
-1.8573e-06
3.05209e-08
-1.86406e-06
2.70194e-08
-1.86977e-06
2.35068e-08
-1.87444e-06
1.9986e-08
-1.87807e-06
1.6461e-08
-1.88066e-06
1.29364e-08
-1.88224e-06
9.41826e-09
-1.88281e-06
5.91444e-09
-1.88239e-06
2.43534e-09
-1.88096e-06
-1.00753e-09
-1.87854e-06
-4.41564e-09
-1.87507e-06
-7.78881e-09
-1.87053e-06
-1.11424e-08
-1.86493e-06
-1.44808e-08
-1.85825e-06
-1.78048e-08
-1.85051e-06
-2.11137e-08
-1.84171e-06
-2.44059e-08
-1.83184e-06
-2.76796e-08
-1.82093e-06
-3.09328e-08
-1.80896e-06
-3.41634e-08
-1.79596e-06
-3.73693e-08
-1.78192e-06
-4.05485e-08
-1.76686e-06
-4.3699e-08
-1.75079e-06
-4.68188e-08
-1.73372e-06
-4.99062e-08
-1.71565e-06
-5.29594e-08
-1.69661e-06
-5.59767e-08
-1.67659e-06
-5.89567e-08
-1.65562e-06
-6.18979e-08
-1.63371e-06
-6.47988e-08
-1.61087e-06
-6.76582e-08
-1.58711e-06
-7.04747e-08
-1.56245e-06
-7.32471e-08
-1.5369e-06
-7.5974e-08
-1.51049e-06
-7.86544e-08
-1.48321e-06
-8.12868e-08
-1.4551e-06
-8.38701e-08
-1.42616e-06
-8.64031e-08
-1.39641e-06
-8.88844e-08
-1.36588e-06
-9.1313e-08
-1.33457e-06
-9.36875e-08
-1.30251e-06
-9.60068e-08
-1.26971e-06
-9.82694e-08
-1.2362e-06
-1.00474e-07
-1.20199e-06
-1.02619e-07
-1.1671e-06
-1.04703e-07
-1.13155e-06
-1.06725e-07
-1.09537e-06
-1.08683e-07
-1.05858e-06
-1.10576e-07
-1.02119e-06
-1.12401e-07
-9.83229e-07
-1.14159e-07
-9.44724e-07
-1.15846e-07
-9.05696e-07
-1.17462e-07
-8.66168e-07
-1.19005e-07
-8.26165e-07
-1.20474e-07
-7.85712e-07
-1.21866e-07
-7.44834e-07
-1.23181e-07
-7.03557e-07
-1.24418e-07
-6.61907e-07
-1.25574e-07
-6.19912e-07
-1.26649e-07
-5.77599e-07
-1.27641e-07
-5.34993e-07
-1.2855e-07
-4.92125e-07
-1.29375e-07
-4.49021e-07
-1.30114e-07
-4.0571e-07
-1.30766e-07
-3.6222e-07
-1.31332e-07
-3.1858e-07
-1.3181e-07
-2.74819e-07
-1.32201e-07
-2.30966e-07
-1.32502e-07
-1.87051e-07
-1.32714e-07
-1.43101e-07
-1.32837e-07
-9.91475e-08
-1.32869e-07
-5.5219e-08
-1.3281e-07
-1.13445e-08
-1.32658e-07
3.24457e-08
-1.32412e-07
7.61216e-08
-1.32071e-07
1.19655e-07
-1.31633e-07
1.63018e-07
-1.311e-07
2.06185e-07
-1.30477e-07
2.49139e-07
-1.29772e-07
2.91867e-07
-1.28992e-07
3.34348e-07
-1.28138e-07
3.76558e-07
-1.27217e-07
4.18469e-07
-1.26241e-07
4.60058e-07
-1.25217e-07
5.01305e-07
-1.24146e-07
5.42192e-07
-1.23029e-07
5.82703e-07
-1.21867e-07
6.22821e-07
-1.2066e-07
6.62532e-07
-1.19411e-07
7.01823e-07
-1.18121e-07
7.40681e-07
-1.16792e-07
7.79095e-07
-1.15427e-07
8.17053e-07
-1.1403e-07
8.54546e-07
-1.12601e-07
8.91566e-07
-1.11144e-07
9.28103e-07
-1.09662e-07
9.64151e-07
-1.08156e-07
9.99702e-07
-1.06627e-07
1.03475e-06
-1.05076e-07
1.06929e-06
-1.03502e-07
1.10331e-06
-1.01902e-07
1.1368e-06
-1.00269e-07
1.16975e-06
-9.85944e-08
1.20214e-06
-9.68608e-08
1.23394e-06
-9.50433e-08
1.26512e-06
-9.31028e-08
1.29561e-06
-9.0979e-08
1.32533e-06
-8.85774e-08
1.35415e-06
-8.57456e-08
1.38186e-06
-8.22311e-08
1.40815e-06
-7.75866e-08
1.43251e-06
-7.10102e-08
1.45427e-06
-6.08421e-08
1.47257e-06
-4.42193e-08
1.488e-06
-1.36185e-08
4.19725e-08
1.50406e-06
-1.65711e-08
-2.50181e-08
-3.88806e-08
-1.56593e-09
-6.26613e-08
1.87337e-08
-8.76906e-08
3.68451e-08
-1.13959e-07
5.34909e-08
-1.41588e-07
6.89561e-08
-1.70745e-07
8.33078e-08
-2.01595e-07
9.65552e-08
-2.34246e-07
1.08727e-07
-2.68692e-07
1.1989e-07
-3.04798e-07
1.30131e-07
-3.42323e-07
1.39526e-07
-3.80962e-07
1.48116e-07
-4.20382e-07
1.55901e-07
-4.60262e-07
1.62855e-07
-5.00313e-07
1.68937e-07
-5.40287e-07
1.74108e-07
-5.79985e-07
1.78345e-07
-6.19258e-07
1.81646e-07
-6.58001e-07
1.84029e-07
-6.96145e-07
1.85535e-07
-7.33658e-07
1.86223e-07
-7.70528e-07
1.86163e-07
-8.06762e-07
1.85433e-07
-8.42378e-07
1.84117e-07
-8.77396e-07
1.82297e-07
-9.11839e-07
1.80053e-07
-9.45725e-07
1.77458e-07
-9.79068e-07
1.74581e-07
-1.01188e-06
1.7148e-07
-1.04415e-06
1.68204e-07
-1.0759e-06
1.64795e-07
-1.10711e-06
1.61288e-07
-1.13778e-06
1.5771e-07
-1.1679e-06
1.54081e-07
-1.19746e-06
1.50417e-07
-1.22645e-06
1.4673e-07
-1.25486e-06
1.43027e-07
-1.28266e-06
1.39313e-07
-1.30985e-06
1.35588e-07
-1.3364e-06
1.31853e-07
-1.36229e-06
1.28106e-07
-1.38752e-06
1.24344e-07
-1.41206e-06
1.20565e-07
-1.43588e-06
1.16765e-07
-1.45898e-06
1.12939e-07
-1.48133e-06
1.09085e-07
-1.50292e-06
1.05199e-07
-1.52373e-06
1.01277e-07
-1.54373e-06
9.73175e-08
-1.56291e-06
9.33179e-08
-1.58125e-06
8.92767e-08
-1.59874e-06
8.5193e-08
-1.61536e-06
8.10661e-08
-1.63109e-06
7.68963e-08
-1.64591e-06
7.26841e-08
-1.65982e-06
6.84305e-08
-1.6728e-06
6.41372e-08
-1.68483e-06
5.98062e-08
-1.6959e-06
5.54399e-08
-1.70601e-06
5.10408e-08
-1.71514e-06
4.66123e-08
-1.72329e-06
4.21575e-08
-1.73045e-06
3.76801e-08
-1.73662e-06
3.31841e-08
-1.74178e-06
2.86738e-08
-1.74595e-06
2.41539e-08
-1.74912e-06
1.96296e-08
-1.75129e-06
1.51067e-08
-1.75246e-06
1.05914e-08
-1.75264e-06
6.09042e-09
-1.75181e-06
1.61024e-09
-1.74998e-06
-2.84456e-09
-1.74712e-06
-7.27291e-09
-1.74323e-06
-1.16786e-08
-1.73831e-06
-1.60674e-08
-1.73235e-06
-2.04407e-08
-1.72535e-06
-2.47981e-08
-1.71733e-06
-2.91378e-08
-1.70828e-06
-3.34572e-08
-1.6982e-06
-3.77536e-08
-1.68711e-06
-4.20242e-08
-1.67501e-06
-4.62659e-08
-1.6619e-06
-5.0476e-08
-1.6478e-06
-5.46516e-08
-1.63271e-06
-5.879e-08
-1.61664e-06
-6.28888e-08
-1.5996e-06
-6.69453e-08
-1.5816e-06
-7.09575e-08
-1.56265e-06
-7.49229e-08
-1.54277e-06
-7.88396e-08
-1.52196e-06
-8.27057e-08
-1.50024e-06
-8.65192e-08
-1.47762e-06
-9.02783e-08
-1.45412e-06
-9.39813e-08
-1.42974e-06
-9.76266e-08
-1.4045e-06
-1.01212e-07
-1.37842e-06
-1.04737e-07
-1.3515e-06
-1.08199e-07
-1.32378e-06
-1.11596e-07
-1.29526e-06
-1.14927e-07
-1.26595e-06
-1.1819e-07