/*--------------------------------*- C++ -*----------------------------------*\
| =========                 |                                                 |
| \\      /  F ield         | OpenFOAM: The Open Source CFD Toolbox           |
|  \\    /   O peration     | Version:  2412                                  |
|   \\  /    A nd           | Website:  www.openfoam.com                      |
|    \\/     M anipulation  |                                                 |
\*---------------------------------------------------------------------------*/
FoamFile
{
    version     2.0;
    format      ascii;
    arch        "LSB;label=32;scalar=64";
    class       volVectorField;
    location    "0.14";
    object      U;
}
// * * * * * * * * * * * * * * * * * * * * * * * * * * * * * * * * * * * * * //

dimensions      [0 1 -1 0 0 0 0];

internalField   nonuniform List<vector> 
12225
(
(0.377183 -0.200896 0)
(0.543961 -0.0519265 0)
(0.711041 -0.0340137 0)
(0.893966 -0.0304756 0)
(1.05909 -0.0297455 0)
(1.20882 -0.0284507 0)
(1.34612 -0.0265161 0)
(1.47041 -0.024573 0)
(1.58213 -0.0227633 0)
(1.68258 -0.0210704 0)
(1.77292 -0.0194916 0)
(1.85411 -0.0180188 0)
(1.92695 -0.0166306 0)
(1.99216 -0.0152855 0)
(2.05006 -0.0139605 0)
(2.10155 -0.0125065 0)
(2.14281 -0.0103798 0)
(2.19057 -0.012938 0)
(0.933503 -0.0317782 0)
(1.0567 -0.0587091 0)
(1.23663 -0.0688981 0)
(1.42154 -0.0644817 0)
(1.5855 -0.0618087 0)
(1.73438 -0.0589616 0)
(1.87126 -0.0555586 0)
(1.99596 -0.0521702 0)
(2.10895 -0.048927 0)
(2.21126 -0.0458362 0)
(2.30389 -0.0429123 0)
(2.38766 -0.0401411 0)
(2.46331 -0.0374808 0)
(2.53147 -0.0348529 0)
(2.59254 -0.0321988 0)
(2.64689 -0.0290782 0)
(2.69403 -0.0261194 0)
(2.73587 -0.0161381 0)
(1.39962 -0.0846815 0)
(1.49179 -0.105675 0)
(1.65465 -0.107233 0)
(1.82258 -0.101935 0)
(1.97265 -0.0979816 0)
(2.11033 -0.0936425 0)
(2.23769 -0.0887288 0)
(2.35441 -0.0837837 0)
(2.46084 -0.0789799 0)
(2.55775 -0.0743635 0)
(2.64588 -0.0699604 0)
(2.72593 -0.0657513 0)
(2.79851 -0.0616774 0)
(2.86415 -0.0576326 0)
(2.92323 -0.053488 0)
(2.97599 -0.0488309 0)
(3.02262 -0.0436567 0)
(3.06235 -0.0342509 0)
(1.89741 -0.115424 0)
(1.94623 -0.143305 0)
(2.0752 -0.144977 0)
(2.21745 -0.140757 0)
(2.34795 -0.135767 0)
(2.46968 -0.13003 0)
(2.58346 -0.123677 0)
(2.68858 -0.117187 0)
(2.78514 -0.110797 0)
(2.87359 -0.104609 0)
(2.95446 -0.0986649 0)
(3.02822 -0.0929471 0)
(3.09536 -0.0873849 0)
(3.15629 -0.0818494 0)
(3.21136 -0.0761618 0)
(3.26074 -0.0699053 0)
(3.30495 -0.0627998 0)
(3.34241 -0.0518501 0)
(2.43108 -0.125829 0)
(2.4405 -0.169887 0)
(2.5288 -0.177403 0)
(2.64 -0.17616 0)
(2.74677 -0.171214 0)
(2.84898 -0.164711 0)
(2.9461 -0.157353 0)
(3.03693 -0.14965 0)
(3.12115 -0.141931 0)
(3.19891 -0.13437 0)
(3.27045 -0.127038 0)
(3.33606 -0.119932 0)
(3.39606 -0.112978 0)
(3.45073 -0.106037 0)
(3.50038 -0.0989013 0)
(3.54511 -0.0911658 0)
(3.58575 -0.0823999 0)
(3.6202 -0.0703261 0)
(2.99683 -0.123682 0)
(2.97697 -0.185364 0)
(3.02468 -0.20145 0)
(3.10201 -0.204937 0)
(3.18207 -0.201554 0)
(3.26192 -0.195232 0)
(3.33988 -0.187524 0)
(3.41415 -0.179127 0)
(3.48396 -0.170501 0)
(3.54913 -0.161911 0)
(3.6096 -0.153478 0)
(3.66546 -0.145224 0)
(3.71685 -0.137087 0)
(3.76393 -0.128934 0)
(3.80693 -0.12055 0)
(3.84591 -0.111567 0)
(3.88188 -0.10153 0)
(3.91228 -0.0888468 0)
(3.58832 -0.114506 0)
(3.55089 -0.190577 0)
(3.56319 -0.21588 0)
(3.60676 -0.225299 0)
(3.65871 -0.224982 0)
(3.71438 -0.219928 0)
(3.77133 -0.212648 0)
(3.82726 -0.204183 0)
(3.88099 -0.195165 0)
(3.93196 -0.185975 0)
(3.97987 -0.176806 0)
(4.02459 -0.167717 0)
(4.06608 -0.158677 0)
(4.10438 -0.149571 0)
(4.13963 -0.140203 0)
(4.17184 -0.130263 0)
(4.2021 -0.119355 0)
(4.22734 -0.106434 0)
(4.1988 -0.101764 0)
(4.15397 -0.187067 0)
(4.13917 -0.220691 0)
(4.15215 -0.236287 0)
(4.17665 -0.24011 0)
(4.20772 -0.237356 0)
(4.24274 -0.231318 0)
(4.27925 -0.223465 0)
(4.31571 -0.214631 0)
(4.35131 -0.205333 0)
(4.38551 -0.19585 0)
(4.41798 -0.186301 0)
(4.44851 -0.176696 0)
(4.47703 -0.166953 0)
(4.50357 -0.156916 0)
(4.52808 -0.146349 0)
(4.55167 -0.134952 0)
(4.57073 -0.122086 0)
(4.82185 -0.0878062 0)
(4.77661 -0.176865 0)
(4.74388 -0.216825 0)
(4.73187 -0.237802 0)
(4.73174 -0.24609 0)
(4.7395 -0.246363 0)
(4.75297 -0.242278 0)
(4.76989 -0.235688 0)
(4.78867 -0.227624 0)
(4.80831 -0.218737 0)
(4.82812 -0.209403 0)
(4.8476 -0.199812 0)
(4.86643 -0.190023 0)
(4.88442 -0.180005 0)
(4.90151 -0.169655 0)
(4.91758 -0.158815 0)
(4.93369 -0.147297 0)
(4.94571 -0.13475 0)
(5.45146 -0.0741058 0)
(5.40949 -0.161998 0)
(5.3668 -0.205806 0)
(5.33651 -0.230614 0)
(5.31631 -0.242859 0)
(5.30378 -0.246367 0)
(5.29752 -0.244668 0)
(5.29591 -0.239838 0)
(5.29754 -0.233052 0)
(5.30141 -0.225061 0)
(5.30677 -0.216332 0)
(5.31307 -0.207123 0)
(5.3199 -0.197553 0)
(5.32699 -0.187646 0)
(5.33419 -0.177359 0)
(5.34132 -0.16661 0)
(5.34938 -0.155321 0)
(5.35375 -0.143337 0)
(6.08167 -0.0613905 0)
(6.0441 -0.144157 0)
(5.99712 -0.189294 0)
(5.95491 -0.216124 0)
(5.92001 -0.231198 0)
(5.8915 -0.237562 0)
(5.86874 -0.238269 0)
(5.8509 -0.235408 0)
(5.83699 -0.230215 0)
(5.8262 -0.223485 0)
(5.81788 -0.215738 0)
(5.81147 -0.20729 0)
(5.80657 -0.198314 0)
(5.80285 -0.188888 0)
(5.80015 -0.179027 0)
(5.79821 -0.168717 0)
(5.79799 -0.157979 0)
(5.7944 -0.146786 0)
(6.65461 -0.050598 0)
(6.62054 -0.12618 0)
(6.57303 -0.170543 0)
(6.52475 -0.197714 0)
(6.48109 -0.214158 0)
(6.44225 -0.222401 0)
(6.40807 -0.22494 0)
(6.37832 -0.223745 0)
(6.35252 -0.220034 0)
(6.33013 -0.214588 0)
(6.31067 -0.207936 0)
(6.2937 -0.20042 0)
(6.27886 -0.192248 0)
(6.26585 -0.183537 0)
(6.2545 -0.174346 0)
(6.24452 -0.164715 0)
(6.23686 -0.154701 0)
(6.22606 -0.144476 0)
(7.20973 -0.0406498 0)
(7.18016 -0.107365 0)
(7.13446 -0.149562 0)
(7.0834 -0.176075 0)
(7.03441 -0.192896 0)
(6.98876 -0.202257 0)
(6.94653 -0.20612 0)
(6.90789 -0.206255 0)
(6.8728 -0.203836 0)
(6.84103 -0.199605 0)
(6.81231 -0.194065 0)
(6.78634 -0.187561 0)
(6.76285 -0.180316 0)
(6.74162 -0.172474 0)
(6.72251 -0.164124 0)
(6.70521 -0.155345 0)
(6.69064 -0.146204 0)
(6.67319 -0.137086 0)
(7.81811 -0.03106 0)
(7.79338 -0.0860973 0)
(7.75172 -0.123794 0)
(7.70081 -0.148233 0)
(7.64923 -0.164251 0)
(7.59949 -0.173864 0)
(7.55192 -0.178498 0)
(7.50689 -0.179596 0)
(7.4647 -0.178242 0)
(7.42543 -0.175125 0)
(7.38899 -0.170704 0)
(7.35526 -0.1653 0)
(7.32412 -0.159136 0)
(7.29541 -0.152364 0)
(7.26907 -0.145092 0)
(7.24483 -0.137417 0)
(7.22354 -0.12943 0)
(7.19971 -0.121601 0)
(8.45855 -0.0222851 0)
(8.43892 -0.0637335 0)
(8.40341 -0.0941966 0)
(8.35607 -0.114594 0)
(8.30532 -0.128218 0)
(8.25479 -0.136806 0)
(8.20521 -0.141329 0)
(8.15707 -0.142786 0)
(8.11092 -0.142053 0)
(8.06709 -0.139734 0)
(8.02568 -0.136226 0)
(7.9867 -0.131812 0)
(7.95014 -0.126699 0)
(7.91595 -0.121038 0)
(7.88412 -0.114941 0)
(7.85444 -0.108509 0)
(7.82771 -0.101839 0)
(7.79883 -0.0954207 0)
(9.08866 -0.0143597 0)
(9.07382 -0.0417022 0)
(9.0456 -0.0627889 0)
(9.00495 -0.0771124 0)
(8.95894 -0.0865185 0)
(8.91165 -0.0923773 0)
(8.86415 -0.0953803 0)
(8.81701 -0.0961381 0)
(8.7709 -0.0952448 0)
(8.72636 -0.0931468 0)
(8.68369 -0.0901412 0)
(8.64302 -0.0864377 0)
(8.60441 -0.0821967 0)
(8.5679 -0.0775423 0)
(8.53354 -0.0725762 0)
(8.50118 -0.0673943 0)
(8.47155 -0.0620657 0)
(8.44031 -0.0570989 0)
(9.63295 -0.00706105 0)
(9.6217 -0.0206712 0)
(9.59987 -0.0313386 0)
(9.56659 -0.0382995 0)
(9.52746 -0.0423151 0)
(9.48643 -0.0442166 0)
(9.4447 -0.0444545 0)
(9.40272 -0.0433673 0)
(9.36109 -0.0412979 0)
(9.32036 -0.0385294 0)
(9.28091 -0.0352574 0)
(9.24294 -0.031619 0)
(9.20656 -0.0277221 0)
(9.17188 -0.0236578 0)
(9.13895 -0.0194991 0)
(9.1077 -0.0153267 0)
(9.07868 -0.0111551 0)
(9.0489 -0.00747875 0)
(9.96404 0.000120177 0)
(9.95459 0.000201066 0)
(9.93649 0.000685322 0)
(9.90812 0.0019557 0)
(9.87423 0.00392448 0)
(9.83859 0.00640042 0)
(9.80247 0.00927924 0)
(9.76622 0.0124894 0)
(9.7303 0.0159468 0)
(9.6952 0.0195709 0)
(9.66124 0.0232989 0)
(9.62856 0.0270812 0)
(9.59724 0.0308718 0)
(9.56731 0.0346218 0)
(9.53881 0.0382894 0)
(9.51167 0.0418105 0)
(9.48609 0.0452094 0)
(9.46104 0.0480702 0)
(9.87499 0.00748629 0)
(9.86688 0.0218363 0)
(9.84987 0.0342747 0)
(9.8225 0.0444989 0)
(9.7896 0.0529333 0)
(9.755 0.0600603 0)
(9.71996 0.0661769 0)
(9.68487 0.0714985 0)
(9.65019 0.0762217 0)
(9.61643 0.0805055 0)
(9.58389 0.0844577 0)
(9.55273 0.0881461 0)
(9.52299 0.091613 0)
(9.49471 0.0948816 0)
(9.46785 0.0979602 0)
(9.44244 0.10083 0)
(9.41818 0.103528 0)
(9.39614 0.105774 0)
(9.28437 0.0159304 0)
(9.27065 0.0462329 0)
(9.24579 0.0712404 0)
(9.20982 0.0904852 0)
(9.16899 0.105327 0)
(9.12729 0.116967 0)
(9.08581 0.126089 0)
(9.04494 0.133233 0)
(9.00524 0.138913 0)
(8.9672 0.143534 0)
(8.93106 0.147373 0)
(8.89693 0.15062 0)
(8.8648 0.153415 0)
(8.83464 0.155858 0)
(8.80637 0.158018 0)
(8.77998 0.159945 0)
(8.75495 0.161688 0)
(8.73331 0.163101 0)
(8.47101 0.0261008 0)
(8.45237 0.0738391 0)
(8.41971 0.110398 0)
(8.37627 0.136952 0)
(8.32999 0.156619 0)
(8.28458 0.171248 0)
(8.24075 0.181871 0)
(8.19883 0.189446 0)
(8.15929 0.194833 0)
(8.12241 0.198659 0)
(8.08826 0.201349 0)
(8.05675 0.203211 0)
(8.02777 0.204474 0)
(8.00117 0.20531 0)
(7.97678 0.205843 0)
(7.95451 0.20617 0)
(7.93383 0.20635 0)
(7.91676 0.206342 0)
(7.51239 0.0385323 0)
(7.4866 0.10453 0)
(7.44646 0.150271 0)
(7.39956 0.181416 0)
(7.35397 0.20341 0)
(7.31186 0.218551 0)
(7.2732 0.228367 0)
(7.2381 0.234396 0)
(7.20664 0.237852 0)
(7.17873 0.239536 0)
(7.15408 0.239989 0)
(7.13241 0.239601 0)
(7.11342 0.238657 0)
(7.09684 0.23736 0)
(7.0824 0.235853 0)
(7.0699 0.234244 0)
(7.05883 0.232588 0)
(7.05093 0.230907 0)
(6.48931 0.0542323 0)
(6.45656 0.136924 0)
(6.41296 0.186985 0)
(6.37065 0.218602 0)
(6.3349 0.23945 0)
(6.30529 0.252111 0)
(6.28109 0.258824 0)
(6.26188 0.26167 0)
(6.24708 0.262039 0)
(6.23602 0.260783 0)
(6.22808 0.258485 0)
(6.22276 0.255555 0)
(6.21961 0.25228 0)
(6.21825 0.248849 0)
(6.21836 0.245392 0)
(6.21971 0.241998 0)
(6.22186 0.238713 0)
(6.2262 0.235592 0)
(5.45712 0.0733952 0)
(5.41829 0.166507 0)
(5.37869 0.214144 0)
(5.35278 0.24198 0)
(5.33865 0.258378 0)
(5.33249 0.266143 0)
(5.33274 0.268327 0)
(5.33813 0.267257 0)
(5.34729 0.264251 0)
(5.35911 0.260091 0)
(5.37284 0.25531 0)
(5.3879 0.250262 0)
(5.40382 0.24517 0)
(5.42028 0.240176 0)
(5.43702 0.235363 0)
(5.45387 0.230785 0)
(5.47049 0.226464 0)
(5.48803 0.222463 0)
(4.45282 0.0947814 0)
(4.41206 0.187423 0)
(4.39048 0.225955 0)
(4.39661 0.246423 0)
(4.4165 0.255954 0)
(4.44338 0.257863 0)
(4.47531 0.255621 0)
(4.5104 0.251241 0)
(4.54697 0.245703 0)
(4.58396 0.239604 0)
(4.62075 0.23334 0)
(4.65692 0.227153 0)
(4.69218 0.221184 0)
(4.72638 0.215508 0)
(4.75939 0.210164 0)
(4.79119 0.205167 0)
(4.82161 0.200518 0)
(4.85161 0.196282 0)
(3.50293 0.114455 0)
(3.47301 0.192929 0)
(3.48914 0.217663 0)
(3.54121 0.228908 0)
(3.60263 0.231488 0)
(3.66653 0.228859 0)
(3.73182 0.223859 0)
(3.79679 0.217754 0)
(3.86005 0.211149 0)
(3.92093 0.20444 0)
(3.97919 0.197882 0)
(4.0347 0.191616 0)
(4.08744 0.185711 0)
(4.13745 0.180196 0)
(4.18483 0.175075 0)
(4.22972 0.170336 0)
(4.27212 0.165968 0)
(4.31287 0.162042 0)
(2.62982 0.122984 0)
(2.63208 0.176394 0)
(2.70178 0.18798 0)
(2.80471 0.1911 0)
(2.90736 0.189131 0)
(3.00608 0.184616 0)
(3.10166 0.178946 0)
(3.19311 0.172765 0)
(3.27961 0.166475 0)
(3.36101 0.16033 0)
(3.43747 0.154475 0)
(3.50918 0.148984 0)
(3.57642 0.143882 0)
(3.63946 0.13917 0)
(3.69858 0.13483 0)
(3.75409 0.130843 0)
(3.80616 0.127184 0)
(3.85554 0.123949 0)
(1.85178 0.104827 0)
(1.90639 0.134442 0)
(2.03034 0.141905 0)
(2.17815 0.140524 0)
(2.31589 0.13705 0)
(2.44346 0.132937 0)
(2.56372 0.12812 0)
(2.67656 0.123011 0)
(2.78164 0.117966 0)
(2.87927 0.113141 0)
(2.96996 0.108609 0)
(3.05424 0.104404 0)
(3.13262 0.100532 0)
(3.20559 0.09698 0)
(3.2736 0.0937272 0)
(3.3371 0.0907501 0)
(3.39639 0.0880134 0)
(3.45223 0.085624 0)
(1.17533 0.0416903 0)
(1.28238 0.0661079 0)
(1.43869 0.088991 0)
(1.61661 0.0891831 0)
(1.78037 0.0862379 0)
(1.9292 0.0833406 0)
(2.06748 0.0798446 0)
(2.19591 0.0761297 0)
(2.31441 0.0725413 0)
(2.42355 0.0691638 0)
(2.52419 0.0660224 0)
(2.61714 0.0631328 0)
(2.7031 0.0604915 0)
(2.78272 0.0580823 0)
(2.8566 0.0558849 0)
(2.9253 0.0538821 0)
(2.98923 0.0520123 0)
(3.04912 0.0503749 0)
(0.469484 0.226529 0)
(0.642366 0.069164 0)
(0.788946 0.0480277 0)
(0.97247 0.0444131 0)
(1.14915 0.0429756 0)
(1.3092 0.0416835 0)
(1.45693 0.0396512 0)
(1.59332 0.0373365 0)
(1.71817 0.0351189 0)
(1.83224 0.0330714 0)
(1.9367 0.0311896 0)
(2.03258 0.0294715 0)
(2.12074 0.0279105 0)
(2.20197 0.0264937 0)
(2.27698 0.0252053 0)
(2.3464 0.0240381 0)
(2.41074 0.0229389 0)
(2.47031 0.0219866 0)
(0.011306 -0.024255 -2.69249e-20)
(0.0331475 -0.0362667 2.6194e-20)
(0.0539461 -0.0344901 0)
(0.0698329 -0.0263828 0)
(0.0784726 -0.0156497 0)
(0.07951 -0.0046462 -2.46359e-20)
(0.0735183 0.00478504 0)
(0.0624004 0.0115866 0)
(0.0475187 0.0157985 0)
(0.0298702 0.018171 0)
(0.0100673 0.019608 2.43336e-20)
(-0.0115941 0.0208575 0)
(-0.0351651 0.022372 0)
(-0.0608854 0.0243158 0)
(-0.088926 0.0266658 0)
(-0.119427 0.0293178 2.23415e-20)
(-0.152459 0.0321505 0)
(-0.188017 0.0350452 0)
(-0.226021 0.0378901 0)
(-0.266323 0.0405839 0)
(-0.308722 0.043039 0)
(-0.352969 0.0451854 0)
(-0.398782 0.0469729 0)
(-0.445862 0.0483714 1.90106e-20)
(-0.493899 0.0493709 -1.86558e-20)
(-0.542596 0.0499802 1.8319e-20)
(-0.591673 0.0502262 1.80001e-20)
(-0.640873 0.0501539 0)
(-0.689942 0.0498208 0)
(-0.738687 0.0492857 -1.71446e-20)
(-0.78701 0.0485893 -1.68901e-20)
(-0.83476 0.0477502 0)
(-0.881832 0.0467947 0)
(-0.928138 0.0457476 -1.62061e-20)
(-0.973609 0.0446313 0)
(-1.01819 0.0434654 0)
(-1.06184 0.0422662 1.5619e-20)
(-1.10452 0.0410472 0)
(-1.14623 0.0398187 1.52681e-20)
(-1.18693 0.0385886 3.02043e-20)
(-1.22663 0.0373628 0)
(-1.26531 0.036145 0)
(-1.30298 0.034938 0)
(-1.33962 0.033743 0)
(-1.37524 0.0325606 0)
(-1.40984 0.0313906 2.83879e-20)
(-1.44342 0.0302327 2.81034e-20)
(-1.47596 0.029086 2.78214e-20)
(-1.50747 0.0279497 0)
(-1.53793 0.0268229 -2.72618e-20)
(-1.56735 0.0257046 0)
(-1.59572 0.0245942 2.67029e-20)
(-1.62303 0.0234908 2.64221e-20)
(-1.64926 0.022394 0)
(-1.67442 0.0213032 0)
(-1.69849 0.0202181 0)
(-1.72145 0.0191385 2.52762e-20)
(-1.74331 0.018064 0)
(-1.76405 0.0169943 0)
(-1.78366 0.0159293 0)
(-1.80214 0.0148684 0)
(-1.81946 0.0138109 0)
(-1.83563 0.0127557 0)
(-1.85062 0.0117013 0)
(-1.86444 0.0106455 0)
(-1.87706 0.00958578 -2.24433e-20)
(-1.88848 0.00851867 0)
(-1.89868 0.00744005 0)
(-1.90763 0.00634516 2.13903e-20)
(-1.91531 0.00522968 2.10256e-20)
(-1.9217 0.00409312 0)
(-1.92676 0.00294602 -2.02758e-20)
(-1.93044 0.00181583 1.98908e-20)
(-1.93266 0.00074136 0)
(-1.9334 -0.000228708 -1.90951e-20)
(-1.93312 -0.00104431 0)
(-1.93171 -0.00180042 0)
(-1.92924 -0.00252422 1.78359e-20)
(-1.92571 -0.0032283 0)
(-1.92113 -0.0039172 -1.69552e-20)
(-1.91552 -0.00459288 0)
(-1.90887 -0.00525606 1.60415e-20)
(-1.90119 -0.00590695 1.55725e-20)
(-1.89248 -0.00654555 1.50954e-20)
(-1.88276 -0.00717177 2.92206e-20)
(-1.87202 -0.00778552 -2.82348e-20)
(-1.86028 -0.00838669 0)
(-1.84755 -0.00897517 0)
(-1.83382 -0.00955089 0)
(-1.81911 -0.0101138 -2.414e-20)
(-1.80344 -0.0106638 -2.30799e-20)
(-1.7868 -0.0112009 2.2006e-20)
(-1.7692 -0.0117251 0)
(-1.75067 -0.0122364 -1.98183e-20)
(-1.73121 -0.0127347 -1.87053e-20)
(-1.71082 -0.0132201 -1.75802e-20)
(-1.68953 -0.0136925 0)
(-1.66734 -0.0141519 0)
(-1.64426 -0.0145984 0)
(-1.62031 -0.015032 -1.29686e-20)
(-1.59551 -0.0154526 0)
(-1.56986 -0.0158602 0)
(-1.54337 -0.0162549 9.40833e-21)
(-1.51607 -0.0166366 0)
(-1.48797 -0.0170053 0)
(-1.45908 -0.017361 5.77899e-21)
(-1.42941 -0.0177037 0)
(-1.39899 -0.0180331 0)
(-1.36782 -0.0183494 -2.09841e-21)
(-1.33594 -0.0186524 -8.63452e-22)
(-1.30334 -0.0189421 0)
(-1.27006 -0.0192184 -1.61417e-21)
(-1.2361 -0.0194812 0)
(-1.2015 -0.0197304 4.09692e-21)
(-1.16626 -0.0199659 0)
(-1.13041 -0.0201876 6.57847e-21)
(-1.09397 -0.0203955 7.81675e-21)
(-1.05696 -0.0205895 0)
(-1.0194 -0.0207694 0)
(-0.981306 -0.0209353 0)
(-0.942712 -0.0210869 0)
(-0.903636 -0.0212243 0)
(-0.864103 -0.0213474 0)
(-0.824135 -0.0214561 0)
(-0.783758 -0.0215504 1.75525e-20)
(-0.742997 -0.0216304 -1.87354e-20)
(-0.701876 -0.0216959 0)
(-0.660422 -0.0217471 0)
(-0.618661 -0.0217838 0)
(-0.576619 -0.0218061 0)
(-0.534322 -0.021814 -4.8955e-20)
(-0.491799 -0.0218076 0)
(-0.449076 -0.0217867 5.33575e-20)
(-0.40618 -0.0217515 -5.55116e-20)
(-0.363141 -0.0217017 0)
(-0.319987 -0.0216372 0)
(-0.276748 -0.0215578 0)
(-0.233454 -0.021463 6.37808e-20)
(-0.190136 -0.0213515 6.57548e-20)
(-0.146828 -0.0212202 0)
(-0.103563 -0.0210661 6.95826e-20)
(-0.0603693 -0.0208871 7.14351e-20)
(-0.0172769 -0.0206677 -7.3197e-20)
(0.0256321 -0.0203575 0)
(0.0683476 -0.0199857 0)
(0.110861 -0.0196145 -7.59155e-20)
(0.153151 -0.0192526 0)
(0.195209 -0.0188973 0)
(0.237026 -0.0185458 0)
(0.278592 -0.0181964 0)
(0.319894 -0.0178482 7.86691e-20)
(0.360918 -0.0175008 7.90761e-20)
(0.401651 -0.0171541 0)
(0.442078 -0.0168082 7.97618e-20)
(0.482186 -0.0164633 0)
(0.521963 -0.0161197 0)
(0.561397 -0.0157778 8.0496e-20)
(0.600474 -0.0154378 0)
(0.639187 -0.0151 8.08085e-20)
(0.677523 -0.0147648 0)
(0.715474 -0.0144323 0)
(0.753032 -0.0141026 8.10413e-20)
(0.790187 -0.0137758 0)
(0.826931 -0.0134517 8.1055e-20)
(0.863254 -0.0131299 0)
(0.899146 -0.0128096 0)
(0.934592 -0.0124896 0)
(0.969573 -0.0121681 -8.07884e-20)
(1.00406 -0.0118422 0)
(1.03803 -0.0115074 8.05301e-20)
(1.07141 -0.0111569 0)
(1.10412 -0.01078 0)
(1.13605 -0.0103589 0)
(1.16697 -0.00986398 0)
(1.19656 -0.00923675 0)
(1.2241 -0.00836574 0)
(1.24878 -0.00692761 0)
(1.26604 -0.00405872 -1.59033e-19)
(1.27805 0.00328037 0)
(1.22895 0.0184893 0)
(0.0109093 -0.0698204 7.91798e-20)
(0.0221824 -0.0680284 -7.44093e-20)
(0.0237909 -0.0469891 0)
(0.0199485 -0.024702 4.41437e-20)
(0.0116352 -0.00357572 0)
(-0.000297336 0.0153237 2.08461e-20)
(-0.0154743 0.0312426 -4.07171e-20)
(-0.0340994 0.0439412 -3.98548e-20)
(-0.0561581 0.0538462 0)
(-0.0816098 0.0617725 -3.82448e-20)
(-0.110347 0.0685754 -1.87648e-20)
(-0.142184 0.0749201 0)
(-0.176895 0.0812019 0)
(-0.214239 0.0875656 0)
(-0.25397 0.0939649 0)
(-0.29583 0.100254 -1.68364e-20)
(-0.339536 0.106255 0)
(-0.384783 0.111791 3.21108e-20)
(-0.431248 0.116711 0)
(-0.478604 0.120897 0)
(-0.526525 0.12427 -3.00897e-20)
(-0.574704 0.126788 0)
(-0.622859 0.128448 2.88849e-20)
(-0.670742 0.129276 -1.42052e-20)
(-0.71814 0.129327 1.39413e-20)
(-0.764879 0.128673 -1.36927e-20)
(-0.810827 0.127402 -1.34589e-20)
(-0.855881 0.125614 0)
(-0.899968 0.123413 0)
(-0.94303 0.120895 1.28384e-20)
(-0.985028 0.118135 -1.2582e-20)
(-1.02594 0.11519 0)
(-1.06575 0.112112 0)
(-1.10448 0.108946 1.21597e-20)
(-1.14213 0.105729 0)
(-1.17872 0.10249 0)
(-1.21427 0.0992524 -1.17302e-20)
(-1.24879 0.0960346 0)
(-1.28231 0.0928489 1.13949e-20)
(-1.31485 0.0897038 -2.2693e-20)
(-1.34642 0.0866044 0)
(-1.37703 0.0835532 0)
(-1.40669 0.0805507 -4.38235e-20)
(-1.43542 0.0775957 -4.33716e-20)
(-1.46322 0.0746863 -4.29264e-20)
(-1.49009 0.0718198 2.11722e-20)
(-1.51604 0.0689933 -2.10949e-20)
(-1.54107 0.0662036 -6.24937e-20)
(-1.56517 0.0634477 4.11854e-20)
(-1.58835 0.0607229 2.04412e-20)
(-1.6106 0.0580267 0)
(-1.63191 0.0553569 -2.00043e-20)
(-1.65229 0.0527117 1.96697e-20)
(-1.67171 0.0500897 0)
(-1.69019 0.0474899 0)
(-1.7077 0.0449116 0)
(-1.72424 0.0423541 -1.88825e-20)
(-1.73982 0.0398175 0)
(-1.75441 0.0373016 3.67509e-20)
(-1.76801 0.0348066 0)
(-1.78062 0.0323326 3.58009e-20)
(-1.79223 0.0298799 0)
(-1.80283 0.0274484 -3.48196e-20)
(-1.81242 0.025038 0)
(-1.82099 0.0226482 3.38039e-20)
(-1.82855 0.0202784 -1.66272e-20)
(-1.8351 0.0179272 0)
(-1.84062 0.0155935 -3.22109e-20)
(-1.84515 0.0132754 -1.58325e-20)
(-1.84867 0.0109707 -1.55483e-20)
(-1.85123 0.00867755 0)
(-1.85286 0.00640032 -1.49839e-20)
(-1.85363 0.00416239 -1.46661e-20)
(-1.85362 0.00200823 0)
(-1.85289 -3.04418e-05 1.40454e-20)
(-1.85114 -0.00194357 -2.75001e-20)
(-1.8484 -0.0037835 0)
(-1.84465 -0.00556852 -1.30752e-20)
(-1.83988 -0.00731046 0)
(-1.83408 -0.00901401 3.72826e-20)
(-1.82727 -0.0106812 0)
(-1.81945 -0.0123127 -3.52162e-20)
(-1.81061 -0.0139084 -1.13534e-20)
(-1.80076 -0.0154681 1.1101e-20)
(-1.78991 -0.0169914 2.14877e-20)
(-1.77806 -0.0184781 -2.07635e-20)
(-1.76522 -0.0199277 0)
(-1.75141 -0.02134 0)
(-1.73661 -0.0227148 0)
(-1.72085 -0.024052 5.27141e-20)
(-1.70413 -0.0253515 1.66873e-20)
(-1.68646 -0.0266132 -1.58949e-20)
(-1.66785 -0.0278372 0)
(-1.64832 -0.0290235 -1.46384e-20)
(-1.62786 -0.0301721 1.3471e-20)
(-1.6065 -0.0312831 1.26486e-20)
(-1.58423 -0.0323567 0)
(-1.56109 -0.0333929 0)
(-1.53707 -0.0343919 0)
(-1.51218 -0.0353537 9.29566e-21)
(-1.48645 -0.0362786 0)
(-1.45989 -0.0371667 -1.56137e-20)
(-1.4325 -0.0380181 -2.06263e-20)
(-1.40431 -0.0388329 1.21797e-20)
(-1.37532 -0.0396114 0)
(-1.34556 -0.0403535 4.5963e-21)
(-1.31503 -0.0410594 0)
(-1.28376 -0.0417292 5.23173e-21)
(-1.25175 -0.0423629 -1.99102e-21)
(-1.21903 -0.0429606 -1.11894e-21)
(-1.18561 -0.0435224 0)
(-1.15152 -0.0440483 2.9184e-21)
(-1.11676 -0.0445385 -3.52581e-21)
(-1.08136 -0.0449929 -2.90261e-21)
(-1.04534 -0.0454117 0)
(-1.00871 -0.0457948 -4.65414e-21)
(-0.971505 -0.0461423 -1.60387e-20)
(-0.933736 -0.0464545 0)
(-0.895427 -0.0467313 -1.39761e-20)
(-0.8566 -0.0469729 -1.56971e-20)
(-0.817277 -0.0471795 -1.74093e-20)
(-0.777481 -0.0473511 0)
(-0.737237 -0.0474882 0)
(-0.696568 -0.0475908 0)
(-0.655498 -0.0476592 1.17976e-20)
(-0.614052 -0.0476937 1.31789e-20)
(-0.572256 -0.0476948 0)
(-0.530136 -0.0476627 2.90635e-20)
(-0.487716 -0.0475979 3.0669e-20)
(-0.445024 -0.0475007 0)
(-0.402085 -0.0473716 3.43731e-20)
(-0.358928 -0.0472109 7.07508e-20)
(-0.315579 -0.0470192 -3.74459e-20)
(-0.272065 -0.0467966 -3.78747e-20)
(-0.228414 -0.0465436 0)
(-0.184655 -0.04626 0)
(-0.140815 -0.0459458 0)
(-0.0969253 -0.0455998 -4.47359e-20)
(-0.0530137 -0.0452208 4.50923e-20)
(-0.00911106 -0.0448072 9.38133e-20)
(0.0347519 -0.0443576 -4.84559e-20)
(0.0785453 -0.0438745 4.83269e-20)
(0.122244 -0.0433636 5.01192e-20)
(0.16582 -0.0428117 0)
(0.209258 -0.0422191 0)
(0.25254 -0.0416088 -5.15356e-20)
(0.295644 -0.0409945 0)
(0.338549 -0.0403783 0)
(0.381239 -0.0397595 1.08066e-19)
(0.423699 -0.0391368 0)
(0.465912 -0.0385096 5.48397e-20)
(0.507864 -0.0378777 -5.61634e-20)
(0.549541 -0.0372416 0)
(0.590929 -0.0366017 5.64315e-20)
(0.632015 -0.0359589 0)
(0.672785 -0.0353138 0)
(0.713229 -0.0346675 -5.84158e-20)
(0.753335 -0.0340207 1.16925e-19)
(0.793093 -0.0333743 -5.91227e-20)
(0.832494 -0.032729 0)
(0.87153 -0.0320854 0)
(0.910192 -0.031444 5.94305e-20)
(0.948472 -0.0308047 0)
(0.986363 -0.0301675 5.99296e-20)
(1.02386 -0.0295313 0)
(1.06094 -0.0288947 0)
(1.0976 -0.0282548 0)
(1.13382 -0.0276073 6.11293e-20)
(1.16958 -0.0269456 0)
(1.20483 -0.0262593 -6.13512e-20)
(1.23954 -0.0255323 0)
(1.2736 -0.0247395 0)
(1.30692 -0.0238396 1.22773e-19)
(1.33927 -0.0227631 -1.2291e-19)
(1.37038 -0.0213771 0)
(1.39965 -0.0194324 0)
(1.42644 -0.0162826 0)
(1.44799 -0.0106842 3.72384e-19)
(1.46723 0.00202113 0)
(1.46849 0.0273816 -2.51859e-19)
(0.00204773 -0.0868113 -1.29054e-22)
(-0.00320302 -0.0600156 9.50543e-20)
(-0.015355 -0.0275334 0)
(-0.0298916 0.00193198 -7.86991e-20)
(-0.0469701 0.0284057 0)
(-0.0663224 0.0520453 0)
(-0.0878876 0.0729004 4.23335e-23)
(-0.111801 0.0910244 3.3444e-20)
(-0.138236 0.106668 3.26073e-20)
(-0.167297 0.120305 3.19021e-20)
(-0.198948 0.13248 0)
(-0.23301 0.143654 0)
(-0.269201 0.154102 -2.97265e-20)
(-0.307179 0.163914 -5.80758e-20)
(-0.346584 0.173039 5.67264e-20)
(-0.387062 0.181346 0)
(-0.428275 0.188682 5.41276e-20)
(-0.469913 0.19491 -2.64607e-20)
(-0.5117 0.199925 0)
(-0.553395 0.203673 5.05327e-20)
(-0.594801 0.206143 2.47186e-20)
(-0.635758 0.207371 -4.83662e-20)
(-0.676149 0.20743 -2.36792e-20)
(-0.715889 0.20642 0)
(-0.754923 0.204465 4.54775e-20)
(-0.793221 0.201697 4.46084e-20)
(-0.830769 0.198251 0)
(-0.867566 0.194263 4.30011e-20)
(-0.903614 0.189855 0)
(-0.938918 0.185139 4.15531e-20)
(-0.973483 0.180206 2.04565e-20)
(-1.00732 0.17513 0)
(-1.04043 0.169974 0)
(-1.07283 0.164787 0)
(-1.10453 0.159606 0)
(-1.13554 0.154462 0)
(-1.16585 0.149375 0)
(-1.19548 0.144358 3.69552e-20)
(-1.22442 0.13942 -5.47539e-20)
(-1.25267 0.134565 0)
(-1.28023 0.129794 0)
(-1.3071 0.125106 0)
(-1.33327 0.120496 8.44296e-23)
(-1.35872 0.11596 3.43687e-20)
(-1.38346 0.111492 6.78317e-20)
(-1.40747 0.107089 -6.70239e-20)
(-1.43074 0.102743 -3.30707e-20)
(-1.45327 0.0984505 3.27609e-20)
(-1.47503 0.0942063 -8.27155e-23)
(-1.49602 0.0900064 3.18983e-20)
(-1.51622 0.0858472 0)
(-1.53562 0.0817259 3.11269e-20)
(-1.5542 0.0776402 -7.34673e-23)
(-1.57197 0.0735884 0)
(-1.58889 0.0695693 0)
(-1.60496 0.0655823 -2.95824e-20)
(-1.62016 0.0616273 0)
(-1.63449 0.0577044 0)
(-1.64793 0.0538141 2.83529e-20)
(-1.66047 0.0499573 5.60097e-20)
(-1.6721 0.046135 -2.76438e-20)
(-1.68282 0.0423483 0)
(-1.69261 0.0385985 2.68151e-20)
(-1.70147 0.0348869 0)
(-1.70939 0.0312151 2.59223e-20)
(-1.71636 0.0275848 2.55343e-20)
(-1.7224 0.0239981 -5.01696e-20)
(-1.7275 0.020458 -2.46403e-20)
(-1.73165 0.0169689 0)
(-1.73488 0.0135368 4.75052e-20)
(-1.73719 0.0101705 0)
(-1.73859 0.00688125 6.84888e-20)
(-1.73909 0.00368266 4.47293e-20)
(-1.73867 0.000587035 4.37625e-20)
(-1.73733 -0.00241824 -4.27849e-20)
(-1.735 -0.00536677 6.26552e-20)
(-1.73169 -0.00825805 0)
(-1.72739 -0.0110927 0)
(-1.72211 -0.0138709 -3.87516e-20)
(-1.71584 -0.0165925 -5.65039e-20)
(-1.70858 -0.0192571 0)
(-1.70033 -0.0218641 1.77212e-20)
(-1.69111 -0.0244128 0)
(-1.68091 -0.0269023 -5.00372e-20)
(-1.66973 -0.0293321 1.78526e-22)
(-1.65759 -0.0317014 -1.89204e-22)
(-1.64448 -0.0340097 3.00589e-20)
(-1.63042 -0.0362566 0)
(-1.61541 -0.0384416 -2.77625e-20)
(-1.59947 -0.0405646 2.30331e-22)
(-1.58259 -0.0426255 0)
(-1.56479 -0.0446241 0)
(-1.54607 -0.0465605 0)
(-1.52645 -0.0484347 2.15645e-20)
(-1.50593 -0.0502469 0)
(-1.48454 -0.0519973 0)
(-1.46226 -0.0536859 0)
(-1.43913 -0.0553131 0)
(-1.41514 -0.0568789 0)
(-1.39032 -0.0583837 1.44232e-20)
(-1.36467 -0.0598276 0)
(-1.3382 -0.061211 1.15652e-20)
(-1.31094 -0.0625341 1.02886e-20)
(-1.28288 -0.0637972 -9.00797e-21)
(-1.25406 -0.0650004 0)
(-1.22447 -0.0661442 -6.43725e-21)
(-1.19415 -0.0672285 0)
(-1.16309 -0.0682536 -3.85815e-21)
(-1.13132 -0.0692197 2.56709e-21)
(-1.09886 -0.0701269 4.59314e-21)
(-1.06572 -0.0709754 0)
(-1.03191 -0.0717654 -3.12826e-21)
(-0.997462 -0.0724971 -1.79927e-21)
(-0.962387 -0.0731705 0)
(-0.926706 -0.073786 -9.5084e-21)
(-0.890437 -0.0743436 -1.20568e-20)
(-0.853601 -0.0748435 2.23041e-20)
(-0.816218 -0.075286 0)
(-0.77831 -0.0756715 1.02361e-20)
(-0.739897 -0.0760001 1.14904e-20)
(-0.701002 -0.0762722 3.7376e-20)
(-0.661648 -0.0764881 0)
(-0.621857 -0.0766484 0)
(-0.581653 -0.0767535 0)
(-0.541061 -0.0768039 1.6794e-20)
(-0.500103 -0.0768003 0)
(-0.458806 -0.0767432 0)
(-0.417193 -0.0766334 -2.11992e-20)
(-0.375292 -0.0764716 -2.23625e-20)
(-0.333126 -0.0762586 0)
(-0.290723 -0.0759952 0)
(-0.248108 -0.0756822 -5.15417e-20)
(-0.205309 -0.0753203 0)
(-0.16235 -0.0749103 5.59398e-20)
(-0.119261 -0.0744527 5.72786e-20)
(-0.0760671 -0.0739477 0)
(-0.0327962 -0.0733956 0)
(0.0105241 -0.0727968 -6.33988e-20)
(0.0538659 -0.0721508 -7.79313e-22)
(0.0972019 -0.0714572 -7.66224e-22)
(0.140505 -0.0707169 0)
(0.183749 -0.0699335 -1.39724e-19)
(0.226913 -0.0691141 0)
(0.269986 -0.0682649 0)
(0.312954 -0.0673876 0)
(0.355793 -0.0664879 7.55619e-20)
(0.398477 -0.0655733 0)
(0.440982 -0.0646472 -1.54673e-19)
(0.483287 -0.0637105 -7.91429e-20)
(0.525373 -0.0627634 0)
(0.567223 -0.0618061 -8.13075e-20)
(0.608821 -0.0608393 0)
(0.650154 -0.0598637 0)
(0.691207 -0.0588807 -2.5156e-19)
(0.731967 -0.0578915 1.69142e-19)
(0.772421 -0.0568976 0)
(0.812559 -0.0559004 1.72531e-19)
(0.85237 -0.0549013 -8.75665e-20)
(0.891845 -0.0539018 0)
(0.930975 -0.0529031 0)
(0.969751 -0.0519061 0)
(1.00817 -0.0509115 -2.69979e-19)
(1.04622 -0.0499195 0)
(1.08389 -0.0489297 -9.14536e-20)
(1.12118 -0.0479409 0)
(1.15808 -0.0469504 0)
(1.19457 -0.0459539 0)
(1.23064 -0.0449445 0)
(1.26627 -0.0439116 0)
(1.30142 -0.0428388 0)
(1.33604 -0.041701 -1.88337e-19)
(1.37005 -0.0404588 0)
(1.40336 -0.0390488 -9.51679e-20)
(1.43577 -0.0373653 2.85821e-19)
(1.46704 -0.035218 0)
(1.4967 -0.0322595 0)
(1.52431 -0.0277343 -1.92616e-19)
(1.5482 -0.0203059 -1.94356e-19)
(1.57061 -0.00617091 1.95832e-19)
(1.58428 0.0206548 1.98472e-19)
(-0.00899643 -0.0664571 -1.54121e-19)
(-0.0250629 -0.0272722 -1.36537e-19)
(-0.0449992 0.0100146 -7.92505e-20)
(-0.0663347 0.0428265 -3.56589e-20)
(-0.0891103 0.0724226 0)
(-0.11309 0.0992852 6.31897e-20)
(-0.138353 0.123574 -3.03772e-20)
(-0.165068 0.145379 0)
(-0.193379 0.164862 -2.87186e-20)
(-0.22334 0.182275 0)
(-0.254889 0.197911 5.46032e-20)
(-0.287858 0.212011 0)
(-0.321994 0.224725 2.60011e-20)
(-0.357009 0.236096 5.07345e-20)
(-0.392606 0.246094 -4.9497e-20)
(-0.428511 0.254649 0)
(-0.464483 0.26169 -4.71231e-20)
(-0.500324 0.267171 0)
(-0.535877 0.271085 0)
(-0.57103 0.273466 -4.38518e-20)
(-0.605708 0.274389 0)
(-0.639865 0.273961 -6.54132e-23)
(-0.673485 0.272313 0)
(-0.706566 0.269591 0)
(-0.73912 0.265949 6.12155e-23)
(-0.771165 0.261537 -3.84614e-20)
(-0.802722 0.256503 -3.77607e-20)
(-0.833808 0.250979 -3.69934e-20)
(-0.864437 0.245085 0)
(-0.89462 0.238925 -7.13699e-20)
(-0.92436 0.232586 0)
(-0.95366 0.226137 -3.44886e-20)
(-0.982518 0.219637 0)
(-1.01093 0.213128 0)
(-1.03889 0.206646 3.28675e-20)
(-1.06638 0.200214 0)
(-1.0934 0.19385 -3.18965e-20)
(-1.11994 0.187564 -1.17749e-23)
(-1.14598 0.181361 6.20085e-20)
(-1.17149 0.175245 -6.11379e-20)
(-1.19648 0.169213 0)
(-1.22092 0.163262 0)
(-1.2448 0.157388 -2.93331e-20)
(-1.2681 0.151586 0)
(-1.29079 0.14585 -2.86302e-20)
(-1.31287 0.140174 2.82629e-20)
(-1.33431 0.134552 2.79012e-20)
(-1.35511 0.128979 0)
(-1.37523 0.123451 -2.71913e-20)
(-1.39466 0.117964 -2.68416e-20)
(-1.41338 0.112515 5.29309e-20)
(-1.43138 0.107101 -2.61488e-20)
(-1.44865 0.10172 -2.58045e-20)
(-1.46515 0.0963725 0)
(-1.48088 0.0910571 0)
(-1.49582 0.0857744 2.47733e-20)
(-1.50996 0.0805251 0)
(-1.52328 0.0753107 0)