/*--------------------------------*- C++ -*----------------------------------*\
| =========                 |                                                 |
| \\      /  F ield         | OpenFOAM: The Open Source CFD Toolbox           |
|  \\    /   O peration     | Version:  2412                                  |
|   \\  /    A nd           | Website:  www.openfoam.com                      |
|    \\/     M anipulation  |                                                 |
\*---------------------------------------------------------------------------*/
FoamFile
{
    version     2.0;
    format      ascii;
    arch        "LSB;label=32;scalar=64";
    class       volScalarField;
    location    "9.5";
    object      p;
}
// * * * * * * * * * * * * * * * * * * * * * * * * * * * * * * * * * * * * * //

dimensions      [0 2 -2 0 0 0 0];

internalField   nonuniform List<scalar> 
2200
(
1.32778
1.32797
1.32976
1.33597
1.35128
1.38324
1.44288
1.54531
1.70983
1.95655
2.23765
2.47455
2.63619
2.73749
2.79777
2.83091
2.84679
2.85364
2.85607
2.85634
1.32266
1.32299
1.32496
1.33113
1.34632
1.37879
1.43916
1.54212
1.70728
1.95425
2.23498
2.47184
2.63449
2.73881
2.79885
2.83041
2.84585
2.85206
2.85395
2.85403
1.31272
1.3129
1.3151
1.32172
1.3376
1.37063
1.43161
1.53608
1.70238
1.95154
2.23367
2.47349
2.63983
2.74284
2.80196
2.83328
2.84791
2.85352
2.85508
2.85516
1.29841
1.29857
1.30096
1.30785
1.32425
1.35787
1.42005
1.52584
1.69384
1.94805
2.23609
2.48033
2.64677
2.75046
2.80998
2.83993
2.85362
2.8592
2.86108
2.86133
1.27732
1.27743
1.28007
1.28785
1.30468
1.33853
1.40176
1.51044
1.68287
1.94403
2.23851
2.48818
2.65873
2.7623
2.82108
2.85158
2.86606
2.87228
2.87444
2.87475
1.24617
1.24595
1.24798
1.25493
1.27335
1.3101
1.37577
1.48789
1.66682
1.93787
2.24234
2.49877
2.67128
2.77798
2.83887
2.87104
2.88725
2.89422
2.89662
2.89688
1.20892
1.20903
1.21094
1.21656
1.23235
1.26861
1.33844
1.45595
1.64338
1.92719
2.24372
2.50848
2.68708
2.79866
2.86306
2.89777
2.91526
2.92359
2.92668
2.92685
1.15971
1.16018
1.16266
1.16884
1.18431
1.21968
1.28904
1.41209
1.61072
1.9101
2.24311
2.52145
2.70882
2.82608
2.89516
2.93336
2.95322
2.96263
2.96595
2.96594
1.09094
1.09145
1.09423
1.10158
1.1196
1.15733
1.23066
1.3586
1.56831
1.88722
2.24178
2.53623
2.73618
2.86358
2.93898
2.98044
3.00141
3.0103
3.01348
3.01365
1.0019
1.002
1.00564
1.01493
1.035
1.07504
1.15331
1.29123
1.51676
1.85857
2.23979
2.55928
2.77734
2.91459
2.99495
3.03827
3.05858
3.06682
3.0704
3.07112
0.897989
0.897555
0.900829
0.911995
0.936183
0.982845
1.06774
1.21627
1.45955
1.82759
2.24258
2.59418
2.83411
2.98341
3.06895
3.11356
3.13424
3.14247
3.14642
3.14755
0.782491
0.781759
0.786322
0.799436
0.825594
0.876445
0.972464
1.1375
1.40268
1.80003
2.25371
2.64441
2.91165
3.07533
3.16771
3.21592
3.23816
3.24714
3.25114
3.25246
0.653357
0.65261
0.655262
0.669603
0.701739
0.760093
0.86596
1.04909
1.34458
1.77916
2.27986
2.71658
3.0131
3.19383
3.2961
3.34847
3.37238
3.38252
3.3863
3.38745
0.500147
0.50022
0.504858
0.518318
0.553012
0.625108
0.749983
0.955425
1.28239
1.76543
2.3239
2.80735
3.13425
3.33409
3.44624
3.50299
3.52996
3.54181
3.54508
3.54549
0.311794
0.311176
0.315457
0.330401
0.368317
0.446082
0.589715
0.82827
1.20589
1.75469
2.38192
2.91332
3.26834
3.48445
3.60373
3.66685
3.69906
3.71252
3.71532
3.71502
0.0837123
0.0844188
0.0897562
0.104185
0.14425
0.230499
0.387628
0.657869
1.09674
1.73094
2.43874
3.01772
3.40052
3.63476
3.76442
3.83265
3.86871
3.88394
3.88752
3.88703
-0.206547
-0.205783
-0.198003
-0.180706
-0.138267
-0.0429945
0.13812
0.445474
0.950989
1.67802
2.47783
3.11695
3.53292
3.78833
3.9331
4.00712
4.04409
4.06131
4.06663
4.06675
-0.56124
-0.561189
-0.553684
-0.532704
-0.484525
-0.380105
-0.177515
0.177424
0.761316
1.58831
2.4919
3.21088
3.67677
3.95859
4.11951
4.20322
4.2396
4.25671
4.26312
4.26377
-0.992481
-0.991425
-0.981728
-0.955247
-0.893273
-0.769271
-0.53946
-0.138009
0.529431
1.46867
2.4956
3.3128
3.83767
4.15611
4.33652
4.42652
4.46258
4.47888
4.48572
4.48622
-1.49536
-1.49486
-1.48409
-1.45531
-1.38466
-1.23617
-0.963998
-0.494992
0.27734
1.34171
2.5047
3.43666
4.0342
4.38599
4.58127
4.67727
4.71457
4.72932
4.73569
4.73567
-2.10507
-2.10378
-2.09037
-2.05267
-1.9648
-1.78865
-1.46394
-0.896763
0.0148528
1.23193
2.54507
3.59053
4.25202
4.63862
4.84431
4.94303
4.98566
5.00022
5.00662
5.00565
-2.82926
-2.82786
-2.8182
-2.77459
-2.6638
-2.44274
-2.0364
-1.3371
-0.252312
1.15216
2.63619
3.78746
4.49904
4.90349
5.11363
5.21681
5.26298
5.27944
5.28706
5.28567
-3.74493
-3.73858
-3.71095
-3.65168
-3.51117
-3.22292
-2.69689
-1.81813
-0.520887
1.10609
2.77845
4.03075
4.78487
5.1925
5.3911
5.49155
5.54182
5.56281
5.57371
5.57309
-4.86108
-4.85391
-4.82607
-4.73714
-4.53192
-4.13686
-3.44889
-2.34679
-0.795714
1.08992
2.97701
4.32522
5.10149
5.50272
5.68898
5.78014
5.82913
5.85346
5.86904
5.86886
-6.35522
-6.32529
-6.24802
-6.07818
-5.74686
-5.18332
-4.27527
-2.90529
-1.07015
1.10313
3.22201
4.67045
5.46687
5.85305
6.02244
6.09438
6.1255
6.14054
6.15015
6.15429
-8.2107
-8.14448
-7.97148
-7.65847
-7.14469
-6.347
-5.16029
-3.47722
-1.32748
1.16141
3.51845
5.07163
5.88568
6.2609
6.41018
6.45068
6.45433
6.45277
6.45131
6.46649
-10.4926
-10.3066
-9.93054
-9.37615
-8.59838
-7.51626
-6.03454
-4.01758
-1.52368
1.30998
3.93374
5.61371
6.46323
6.8351
6.9665
6.99689
6.9939
6.99521
6.98952
7.01041
-13.0543
-12.5438
-11.9019
-11.1206
-10.0896
-8.71317
-6.87314
-4.48353
-1.61831
1.58971
4.50745
6.33228
7.24376
7.62533
7.76312
7.82253
7.83791
7.85483
7.84644
7.86625
-15.3947
-14.6622
-13.8275
-12.8326
-11.5363
-9.8479
-7.63402
-4.86364
-1.61134
1.97141
5.16514
7.12163
8.07259
8.47528
8.6316
8.68845
8.71286
8.72456
8.7264
8.74215
-17.1949
-16.3923
-15.5004
-14.3722
-12.8544
-10.851
-8.28074
-5.13581
-1.50274
2.43004
5.89505
7.97368
8.94111
9.36017
9.50583
9.56601
9.59579
9.61337
9.62301
9.63366
-18.7136
-17.7702
-16.8829
-15.6482
-13.9368
-11.6989
-8.82082
-5.30678
-1.31795
2.92415
6.64594
8.83212
9.81092
10.2444
10.4184
10.4793
10.5075
10.5209
10.5271
10.5339
-19.8594
-18.8362
-17.9719
-16.6262
-14.7882
-12.3832
-9.25076
-5.41167
-1.11761
3.39351
7.3475
9.64321
10.6736
11.1434
11.3178
11.3774
11.402
11.4096
11.4105
11.4189
-20.6773
-19.6583
-18.8157
-17.3639
-15.4343
-12.9011
-9.56828
-5.47328
-0.940911
3.79571
7.96782
10.3872
11.5153
12.0073
12.1809
12.2412
12.279
12.3021
12.318
12.3194
-21.2666
-20.3114
-19.4369
-17.924
-15.9296
-13.2894
-9.80396
-5.51682
-0.798938
4.14651
8.51726
11.0812
12.2902
12.7905
12.9763
13.0523
13.0893
13.1091
13.1203
13.1216
-21.7081
-20.8025
-19.8488
-18.3426
-16.3111
-13.5839
-9.98906
-5.55617
-0.678758
4.46553
9.02142
11.7127
12.9768
13.508
13.7156
13.799
13.8443
13.8651
13.8741
13.8755
-22.0147
-21.1255
-20.131
-18.6336
-16.5803
-13.8046
-10.127
-5.58729
-0.566126
4.76401
9.47224
12.2669
13.5853
14.1559
14.3913
14.4885
14.5361
14.5636
14.5787
14.5774
-22.2032
-21.3322
-20.3178
-18.808
-16.7484
-13.9465
-10.2148
-5.59613
-0.454747
5.02464
9.84798
12.7307
14.1152
14.7402
15.0076
15.1184
15.1769
15.2037
15.216
15.2163
-22.3242
-21.4831
-20.4203
-18.887
-16.8189
-14.0106
-10.2494
-5.57689
-0.35604
5.21769
10.1314
13.1018
14.5762
15.268
15.5664
15.6894
15.7537
15.7904
15.8104
15.8076
-22.4022
-21.5779
-20.4763
-18.9022
-16.8166
-14.0074
-10.2357
-5.53918
-0.286979
5.32944
10.3252
13.3993
14.978
15.7317
16.0678
16.2107
16.2881
16.3283
16.3518
16.3468
-22.4573
-21.6349
-20.5001
-18.8887
-16.7737
-13.9559
-10.1867
-5.49401
-0.248986
5.37621
10.4525
13.6503
15.3337
16.1477
16.5166
16.6755
16.7618
16.8108
16.8433
16.8359
-22.4916
-21.6753
-20.5209
-18.8723
-16.7208
-13.8816
-10.1185
-5.44575
-0.225373
5.39494
10.549
13.8727
15.6488
16.5145
16.9102
17.0884
17.1908
17.2509
17.2871
17.273
-22.5174
-21.7102
-20.5423
-18.8688
-16.6829
-13.811
-10.0475
-5.39305
-0.19382
5.42252
10.6431
14.0705
15.9188
16.8345
17.2634
17.4616
17.5788
17.6355
17.6686
17.6561
-22.55
-21.7446
-20.5707
-18.8824
-16.6694
-13.7635
-9.98706
-5.33722
-0.144384
5.47589
10.7429
14.2363
16.1378
17.1042
17.5733
17.797
17.9274
17.9804
17.9933
17.9907
-22.5885
-21.7846
-20.6064
-18.9161
-16.6864
-13.7513
-9.95181
-5.29119
-0.0883341
5.54621
10.8396
14.3626
16.3003
17.3195
17.8405
18.1031
18.2677
18.3098
18.2644
18.2925
-22.637
-21.8309
-20.6546
-18.9711
-16.7368
-13.786
-9.96286
-5.28123
-0.0556098
5.60479
10.9157
14.4463
16.4064
17.4788
18.0606
18.3936
18.5989
18.676
18.5715
18.5796
-22.69
-21.8902
-20.7203
-19.052
-16.8284
-13.883
-10.0479
-5.34351
-0.0853627
5.61595
10.9506
14.4864
16.4594
17.5809
18.2264
18.6461
18.9467
19.1331
19.0333
18.8186
-22.755
-21.9637
-20.8033
-19.1565
-16.9585
-14.0407
-10.2106
-5.48557
-0.189755
5.56195
10.9285
14.4763
16.4573
17.6214
18.3314
18.8384
19.2859
19.7098
19.7881
19.5794
-22.8313
-22.0493
-20.8993
-19.2731
-17.113
-14.2387
-10.427
-5.68623
-0.356694
5.43814
10.8327
14.3959
16.3812
17.5833
18.3478
18.9203
19.4076
19.7758
19.752
19.6043
-22.9215
-22.1439
-21.0051
-19.3989
-17.2821
-14.4555
-10.6678
-5.91576
-0.559954
5.26219
10.6682
14.2387
16.2236
17.4481
18.2241
18.7861
19.2033
19.4598
19.3511
19.1909
-23.0199
-22.2532
-21.1267
-19.5431
-17.4696
-14.6867
-10.9232
-6.16434
-0.789809
5.04394
10.4423
14.0033
15.9867
17.2031
17.9499
18.4484
18.74
18.7943
18.6813
18.6161
-23.1199
-22.3815
-21.2738
-19.7198
-17.6834
-14.9313
-11.1885
-6.42755
-1.04212
4.79002
10.1653
13.7023
15.6747
16.8458
17.5182
17.9017
18.1166
18.116
17.9811
17.9539
-23.2121
-22.5261
-21.4431
-19.9272
-17.9187
-15.1811
-11.4546
-6.70032
-1.31528
4.50312
9.84702
13.3517
15.2934
16.3829
16.9641
17.2652
17.4009
17.3153
17.1152
17.1559
-23.2966
-22.6647
-21.6084
-20.1323
-18.1418
-15.407
-11.6955
-6.96152
-1.59429
4.19587
9.50159
12.9657
14.8482
15.8333
16.3154
16.5255
16.5399
16.3764
16.1788
16.2253
-23.3621
-22.7679
-21.7338
-20.2866
-18.3077
-15.5732
-11.8802
-7.18125
-1.85269
3.89192
9.14866
12.555
14.3485
15.2176
15.5962
15.7066
15.5741
15.2643
14.923
14.8857
-23.4086
-22.821
-21.796
-20.3649
-18.3952
-15.6645
-11.9972
-7.34506
-2.07233
3.61004
8.80215
12.1263
13.8099
14.5599
14.8254
14.8207
14.5501
13.8706
12.94
12.8019
-23.4265
-22.8269
-21.7963
-20.3695
-18.4057
-15.6862
-12.0518
-7.45361
-2.24644
3.36011
8.46757
11.6853
13.2522
13.8885
14.0234
13.8835
13.4747
12.457
10.6106
8.99333
-23.4189
-22.7949
-21.7486
-20.3183
-18.3576
-15.6563
-12.0594
-7.51465
-2.37433
3.14801
8.14972
11.2446
12.7024
13.239
13.2544
12.9554
12.3618
11.3944
8.61639
1.25387
-23.3782
-22.7392
-21.6697
-20.2312
-18.2746
-15.5958
-12.0364
-7.53823
-2.46154
2.97015
7.84145
10.8022
12.1605
12.6235
12.5557
12.1231
11.4556
10.7539
10.3726
7.63092
-23.3141
-22.6627
-21.5743
-20.1302
-18.1798
-15.5252
-12.0046
-7.54987
-2.53603
2.79791
7.5215
10.354
11.6286
12.0583
11.9905
11.6065
11.1263
10.9711
11.6986
11.0392
-23.2217
-22.5738
-21.4741
-20.0296
-18.0868
-15.457
-11.9776
-7.57125
-2.62448
2.60765
7.18583
9.91827
11.141
11.5853
11.6159
11.4143
11.143
11.0456
11.4405
11.0401
-23.1084
-22.4671
-21.3693
-19.9306
-17.999
-15.3962
-11.9622
-7.61504
-2.74293
2.38891
6.8428
9.51139
10.7319
11.2273
11.4069
11.3873
11.232
11.0212
11.1114
11.0622
-22.9694
-22.3431
-21.2512
-19.8277
-17.9142
-15.3434
-11.9608
-7.68383
-2.8936
2.14507
6.507
9.14909
10.4067
10.9821
11.2884
11.4157
11.3486
11.1155
11.1967
11.2318
-22.8012
-22.1911
-21.1142
-19.7101
-17.8226
-15.2915
-11.9665
-7.76855
-3.06475
1.89
6.19026
8.83697
10.1579
10.8372
11.2287
11.4521
11.51
11.3423
11.4242
11.4581
-22.5936
-21.9995
-20.94
-19.5668
-17.7149
-15.2317
-11.9704
-7.85559
-3.23757
1.6418
5.90035
8.57972
9.97863
10.7611
11.2129
11.5011
11.7028
11.6555
11.7154
11.734
-22.3371
-21.7638
-20.7245
-19.3803
-17.5712
-15.1478
-11.9595
-7.93156
-3.39616
1.41609
5.64456
8.37218
9.85195
10.7211
11.2543
11.5882
11.9439
12.0219
12.0891
12.0986
-22.0166
-21.4614
-20.4469
-19.1433
-17.384
-15.0274
-11.9202
-7.98418
-3.5315
1.21838
5.42538
8.20359
9.75788
10.7043
11.3229
11.7702
12.1698
12.4008
12.5009
12.5063
-21.6217
-21.0881
-20.1023
-18.8382
-17.1353
-14.8563
-11.8402
-8.00479
-3.64091
1.04437
5.23333
8.05657
9.67812
10.7093
11.4258
11.9637
12.4207
12.7293
12.8531
12.8554
-21.1303
-20.6287
-19.6797
-18.4665
-16.8287
-14.635
-11.7198
-7.99421
-3.72779
0.884343
5.05037
7.91219
9.60222
10.7256
11.5338
12.1371
12.6208
12.9583
13.0938
13.1014
-20.5282
-20.0555
-19.1584
-18.0086
-16.4525
-14.3611
-11.5614
-7.9585
-3.80109
0.726163
4.86107
7.75331
9.50995
10.7194
11.602
12.2465
12.7423
13.11
13.2666
13.287
-19.8073
-19.3897
-18.5489
-17.4735
-16.0149
-14.0406
-11.3715
-7.90621
-3.87115
0.557916
4.64952
7.56089
9.37717
10.6609
11.6076
12.2974
12.8346
13.2558
13.4474
13.4803
-18.9081
-18.5844
-17.8307
-16.8597
-15.5229
-13.6813
-11.1549
-7.84434
-3.94963
0.368024
4.39907
7.31411
9.18091
10.5359
11.5611
12.3242
12.919
13.3862
13.6174
13.6629
-17.9118
-17.6177
-17.0103
-16.1807
-14.9841
-13.2917
-10.9263
-7.7854
-4.04457
0.144791
4.09212
6.98693
8.90168
10.3379
11.4473
12.2702
12.8966
13.3787
13.6462
13.7096
-16.7968
-16.6495
-16.1599
-15.4588
-14.4136
-12.8887
-10.6961
-7.73511
-4.1629
-0.125116
3.71095
6.56105
8.50654
9.99377
11.1374
11.9722
12.604
13.0955
13.3994
13.4878
-15.7815
-15.6823
-15.3317
-14.7618
-13.8731
-12.5135
-10.4861
-7.70644
-4.31557
-0.45414
3.23429
5.99762
7.91346
9.37698
10.4958
11.3195
11.9548
12.4625
12.798
12.9107
-14.9584
-14.8327
-14.5551
-14.1341
-13.4189
-12.2044
-10.3162
-7.71225
-4.51428
-0.856303
2.63265
5.24101
7.05725
8.43971
9.50354
10.3068
10.9338
11.4359
11.7924
11.9349
-14.2075
-14.1187
-14.0537
-13.7965
-13.1571
-11.9914
-10.1953
-7.74597
-4.75066
-1.33629
1.89845
4.30471
5.98196
7.2428
8.2166
8.95248
9.51313
9.94583
10.2602
10.4134
-14.0451
-13.9511
-14.2345
-13.9881
-13.2249
-11.9506
-10.1376
-7.7852
-4.97505
-1.80961
1.18457
3.41592
4.96224
6.11074
6.98802
7.61187
8.055
8.37311
8.58971
8.69558
-15.4973
-15.5852
-15.5803
-14.7533
-13.5005
-11.9296
-10.024
-7.74531
-5.1112
-2.1897
0.570821
2.62105
4.03617
5.08923
5.87583
6.40094
6.74761
6.97975
7.12255
7.18041
-16.4877
-16.7556
-16.5001
-15.2266
-13.5374
-11.7329
-9.78508
-7.58392
-5.12854
-2.47222
0.0218092
1.83814
3.08325
4.0044
4.67465
5.09641
5.35746
5.52404
5.62188
5.6582
-14.6616
-14.8994
-14.6935
-13.7922
-12.4977
-10.9737
-9.21489
-7.20866
-4.98493
-2.61604
-0.411799
1.14741
2.20842
2.98484
3.53385
3.86596
4.06637
4.19528
4.2716
4.30258
-10.4479
-10.5491
-10.5806
-10.4375
-10.0113
-9.21476
-8.01448
-6.45326
-4.60799
-2.59177
-0.713355
0.579908
1.45737
2.09313
2.53768
2.80377
2.96753
3.07796
3.1456
3.17026
-6.70752
-6.75377
-6.85247
-6.95744
-6.9621
-6.75244
-6.20112
-5.24792
-3.93595
-2.38398
-0.887805
0.148695
0.853143
1.36258
1.73328
1.95583
2.09706
2.19791
2.26144
2.28667
-3.87479
-3.91918
-4.02795
-4.18915
-4.35981
-4.42155
-4.28178
-3.83459
-3.05446
-2.00932
-0.935897
-0.12663
0.426946
0.827625
1.15346
1.33739
1.45665
1.55822
1.61003
1.63082
-1.97732
-2.01763
-2.11123
-2.25684
-2.42476
-2.57267
-2.64175
-2.52064
-2.15204
-1.54409
-0.839895
-0.236723
0.192353
0.503206
0.777831
0.925149
1.03013
1.10768
1.15729
1.17599
-0.833377
-0.866266
-0.944439
-1.0577
-1.18214
-1.30324
-1.41595
-1.45535
-1.34981
-1.05519
-0.630244
-0.207364
0.111075
0.353268
0.551224
0.672589
0.755091
0.810139
0.843108
0.854337
-0.130902
-0.163917
-0.246768
-0.357965
-0.467532
-0.55736
-0.644306
-0.707905
-0.710534
-0.601435
-0.370102
-0.0949686
0.122484
0.296114
0.433771
0.520118
0.576219
0.610202
0.627838
0.632591
0.235841
0.211486
0.134124
0.0224379
-0.0841862
-0.164415
-0.231973
-0.276602
-0.289552
-0.247869
-0.127913
0.0372311
0.171603
0.283598
0.374662
0.427634
0.457659
0.472243
0.477806
0.478823
0.396523
0.38005
0.314939
0.213036
0.111043
0.0285317
-0.0390125
-0.0734767
-0.0727024
-0.0351415
0.0406173
0.140475
0.220635
0.285987
0.33899
0.36378
0.372568
0.373555
0.371564
0.37037
0.451406
0.440064
0.388922
0.302603
0.207128
0.119842
0.0447591
0.00728624
0.0137363
0.0574251
0.12007
0.192079
0.242947
0.276608
0.299039
0.303374
0.301466
0.297106
0.29183
0.289439
0.45978
0.452156
0.414565
0.346724
0.260909
0.171028
0.084672
0.0361877
0.035459
0.0777007
0.13413
0.194653
0.22758
0.240054
0.244123
0.239072
0.233907
0.228238
0.222256
0.219333
0.442936
0.438049
0.412434
0.365739
0.299156
0.217349
0.123939
0.0585251
0.0375347
0.0645224
0.111126
0.161316
0.181009
0.180617
0.178962
0.172151
0.166566
0.161079
0.155744
0.153263
0.404126
0.40123
0.385822
0.358277
0.318799
0.261143
0.178805
0.103491
0.0577335
0.051554
0.0740915
0.107108
0.116671
0.110973
0.109426
0.10417
0.100241
0.0969574
0.0942364
0.0929964
0.353305
0.35163
0.34421
0.330452
0.313224
0.28399
0.230796
0.165827
0.103519
0.0602892
0.0455653
0.0540436
0.0556897
0.0496761
0.0491738
0.0442967
0.0417612
0.0411016
0.0407351
0.0400596
0.303984
0.303147
0.300503
0.294408
0.287966
0.276684
0.249364
0.209061
0.15283
0.0899424
0.0419484
0.0251752
0.0190796
0.0125874
0.0108574
0.00409057
-8.19688e-05
-0.00286254
-0.00501377
-0.00617747
0.263267
0.262449
0.261838
0.258065
0.253357
0.246408
0.230222
0.211044
0.174937
0.119622
0.0616875
0.0296482
0.0150619
0.00156579
-0.0051369
-0.0162488
-0.0253704
-0.0325585
-0.0386411
-0.0409721
0.231296
0.230073
0.228979
0.223836
0.216069
0.205357
0.18917
0.179248
0.160165
0.126007
0.082954
0.0505511
0.0289278
0.005788
-0.00887081
-0.0250398
-0.039627
-0.0519428
-0.0616242
-0.0643853
0.20407
0.202567
0.200009
0.19178
0.180081
0.1639
0.144051
0.133699
0.121825
0.108871
0.0889695
0.0630835
0.0394999
0.0107505
-0.00939503
-0.029471
-0.0459455
-0.0596943
-0.0719788
-0.0748428
0.176338
0.174479
0.170347
0.160402
0.14751
0.130063
0.108905
0.0954753
0.0830298
0.0803669
0.0762561
0.0588687
0.0403706
0.0111551
-0.00953073
-0.0310294
-0.0474614
-0.0609614
-0.0748134
-0.0767965
0.144246
0.142929
0.138557
0.129759
0.120798
0.106965
0.0886838
0.0749088
0.0574104
0.0505085
0.0479838
0.0368839
0.0277877
0.00255907
-0.0127256
-0.0310186
-0.0453508
-0.0536552
-0.0666559
-0.0676202
0.106201
0.105156
0.102359
0.0976552
0.0949277
0.0887071
0.0772354
0.065075
0.0429386
0.0278592
0.0189304
0.00638776
0.00570044
-0.0104369
-0.0177583
-0.0284442
-0.037305
-0.0416807
-0.0500855
-0.0499465
0.0654953
0.0651555
0.0636865
0.0614157
0.0626512
0.0599688
0.0544978
0.0492448
0.0294873
0.0140971
0.00315605
-0.0131522
-0.00975259
-0.0173209
-0.0168856
-0.0211549
-0.0250386
-0.025491
-0.030525
-0.0305303
0.027236
0.0285733
0.0269495
0.0232589
0.0237986
0.0182463
0.0172225
0.0196226
0.00991858
0.00482833
0.00146532
-0.0113961
-0.00713023
-0.011795
-0.00820672
-0.00686372
-0.00652665
-0.004428
-0.00969617
-0.0096123
12.6438
15.6389
16.2644
17.1513
17.8205
18.393
18.8762
19.2524
19.4872
19.3261
15.6815
17.0695
17.4081
17.949
18.3902
18.7502
19.0285
19.2114
19.2541
19.1335
17.1583
17.821
18.1014
18.4251
18.6954
18.912
19.0702
19.1607
19.1704
19.1497
17.9585
18.3498
18.5337
18.7276
18.8865
19.0111
19.0971
19.1466
19.1608
19.176
18.4722
18.6714
18.7858
18.9051
19.0034
19.0817
19.1346
19.1687
19.1836
19.2135
18.7463
18.8902
18.9467
19.041
19.0972
19.1465
19.183
19.2106
19.23
19.256
18.948
19.0418
19.0758
19.1359
19.1739
19.2095
19.2385
19.2623
19.2791
19.3055
19.0943
19.156
19.1828
19.2181
19.2486
19.2753
19.2982
19.3198
19.338
19.3605
19.214
19.2536
19.2765
19.2983
19.3215
19.343
19.3629
19.3823
19.3976
19.4182
19.3178
19.3443
19.3631
19.3799
19.3971
19.4139
19.4294
19.4452
19.4573
19.4764
19.4138
19.4316
19.4474
19.461
19.4749
19.4881
19.5
19.5119
19.5205
19.5371
19.5034
19.5169
19.5317
19.5441
19.5554
19.5661
19.5758
19.5846
19.5886
19.6002
19.5948
19.6061
19.6203
19.6303
19.6384
19.646
19.6533
19.6598
19.6608
19.668
19.6959
19.7006
19.7087
19.7134
19.7167
19.721
19.7267
19.7341
19.738
19.7477
19.8097
19.7962
19.7883
19.7821
19.7793
19.7807
19.7867
19.7992
19.8141
19.8439
19.9295
19.8736
19.8433
19.8264
19.8182
19.818
19.8272
19.8465
19.8777
19.947
)
;

boundaryField
{
    wall-4
    {
        type            zeroGradient;
    }
    pressure-outlet-7
    {
        type            fixedValue;
        value           uniform 0;
    }
    velocity-inlet-6
    {
        type            zeroGradient;
    }
    velocity-inlet-5
    {
        type            zeroGradient;
    }
    frontAndBackPlanes
    {
        type            empty;
    }
}


// ************************************************************************* //
