/*--------------------------------*- C++ -*----------------------------------*\
| =========                 |                                                 |
| \\      /  F ield         | OpenFOAM: The Open Source CFD Toolbox           |
|  \\    /   O peration     | Version:  2412                                  |
|   \\  /    A nd           | Website:  www.openfoam.com                      |
|    \\/     M anipulation  |                                                 |
\*---------------------------------------------------------------------------*/
FoamFile
{
    version     2.0;
    format      ascii;
    arch        "LSB;label=32;scalar=64";
    class       surfaceScalarField;
    location    "9.5";
    object      phi;
}
// * * * * * * * * * * * * * * * * * * * * * * * * * * * * * * * * * * * * * //

dimensions      [0 3 -1 0 0 0 0];

oriented        oriented;

internalField   nonuniform List<scalar> 
4262
(
-0.00199133
0.222504
-0.00444471
0.831107
-0.00698844
1.76969
-0.009993
3.16817
-0.013503
5.18811
-0.0168304
8.01769
-0.0197869
11.8501
-0.0221284
16.8221
-0.0246689
22.8844
-0.0245055
29.5282
-0.0250862
29.5289
-0.0238236
22.8806
-0.0216247
16.8175
-0.0174219
11.8429
-0.013511
8.01045
-0.0101873
5.18128
-0.00744594
3.16243
-0.00518239
1.76488
-0.00276035
0.826231
0.217752
-0.00456589
0.22707
-0.0110117
0.837552
-0.0187855
1.77746
-0.0270628
3.17645
-0.0370774
5.19813
-0.0474445
8.02806
-0.0577661
11.8604
-0.0692291
16.8335
-0.0817796
22.8969
-0.0820611
29.5285
-0.0761913
29.5231
-0.0663144
22.8707
-0.0559767
16.8072
-0.0464852
11.8334
-0.0377515
8.00172
-0.0289688
5.1725
-0.0207233
3.15418
-0.0135338
1.75769
-0.00573513
0.818433
0.212017
-0.00714642
0.234216
-0.0174874
0.847893
-0.0305413
1.79051
-0.0461456
3.19205
-0.0624088
5.21439
-0.0788058
8.04446
-0.0961278
11.8777
-0.110183
16.8476
-0.125852
22.9126
-0.125832
29.5285
-0.121718
29.519
-0.112071
22.861
-0.0978362
16.793
-0.0800201
11.8156
-0.0612964
7.983
-0.0467611
5.15796
-0.0325038
3.13992
-0.0185328
1.74372
-0.00679565
0.806695
0.205222
-0.0105976
0.244814
-0.0262261
0.863522
-0.0445743
1.80886
-0.06536
3.21284
-0.0871256
5.23616
-0.108771
8.0661
-0.132924
11.9019
-0.153749
16.8684
-0.178466
22.9373
-0.178857
29.5288
-0.1705
29.5106
-0.152273
22.8428
-0.126585
16.7673
-0.105395
11.7944
-0.0835345
7.96114
-0.0610385
5.13547
-0.0408877
3.11977
-0.0232609
1.72609
-0.00818531
0.79162
0.197036
-0.0136219
0.258436
-0.0332567
0.883157
-0.0562372
1.83184
-0.0819839
3.23859
-0.111705
5.26588
-0.140586
8.09498
-0.16892
11.9302
-0.194069
16.8936
-0.222462
22.9657
-0.223171
29.5296
-0.214184
29.5016
-0.194691
22.8233
-0.167635
16.7402
-0.13468
11.7615
-0.10145
7.92791
-0.0743314
5.10835
-0.0498965
3.09534
-0.0277249
1.70392
-0.00915435
0.773049
0.187882
-0.01612
0.274556
-0.0413885
0.908425
-0.0713083
1.86176
-0.104172
3.27145
-0.138558
5.30026
-0.172909
8.12933
-0.206652
11.964
-0.239963
16.9269
-0.275092
23.0008
-0.275374
29.5298
-0.263667
29.4899
-0.234194
22.7938
-0.19453
16.7006
-0.156987
11.7239
-0.123437
7.89436
-0.0902105
5.07512
-0.0593996
3.06453
-0.0324148
1.67694
-0.0107929
0.751427
0.177089
-0.0197491
0.294305
-0.047817
0.936493
-0.0809058
1.89485
-0.120153
3.3107
-0.161703
5.34181
-0.20409
8.17172
-0.242459
12.0023
-0.282099
16.9665
-0.321212
23.0399
-0.322113
29.5307
-0.306865
29.4747
-0.27373
22.7607
-0.235907
16.6627
-0.187678
11.6757
-0.143031
7.84971
-0.104471
5.03656
-0.0699076
3.02996
-0.0397731
1.6468
-0.0140995
0.725754
0.162989
-0.0203302
0.314635
-0.0522796
0.968442
-0.0895899
1.93216
-0.131342
3.35245
-0.181899
5.39237
-0.237081
8.2269
-0.286389
12.0516
-0.332225
17.0124
-0.376585
23.0843
-0.375845
29.53
-0.35716
29.456
-0.314859
22.7184
-0.26277
16.6106
-0.212238
11.6252
-0.167407
7.80488
-0.122457
4.99161
-0.0821507
2.98966
-0.04654
1.61119
-0.0169253
0.696139
0.146064
-0.0203312
0.334966
-0.0570834
1.00519
-0.101189
1.97627
-0.151914
3.40317
-0.204259
5.44472
-0.261916
8.28456
-0.320379
12.1101
-0.37726
17.0692
-0.427587
23.1346
-0.427444
29.5299
-0.403148
29.4317
-0.357094
22.6724
-0.308396
16.562
-0.24945
11.5662
-0.192346
7.74777
-0.140561
4.93982
-0.094247
2.94334
-0.0534902
1.57043
-0.020454
0.663103
0.12561
-0.0228822
0.357848
-0.0634451
1.04576
-0.112826
2.02565
-0.166547
3.45689
-0.228226
5.50639
-0.297014
8.35335
-0.365413
12.1785
-0.430476
17.1343
-0.487925
23.1921
-0.486187
29.5281
-0.458841
29.4043
-0.408284
22.6218
-0.342768
16.4964
-0.277227
11.5007
-0.214002
7.68455
-0.153329
4.87915
-0.100742
2.89076
-0.0574288
1.52712
-0.0233237
0.628998
0.102286
-0.0278082
0.385657
-0.0763033
1.09425
-0.133148
2.08249
-0.195489
3.51923
-0.260792
5.5717
-0.331403
8.42396
-0.408155
12.2553
-0.481226
17.2074
-0.545591
23.2564
-0.545342
29.5279
-0.515473
29.3745
-0.458293
22.5646
-0.390657
16.4288
-0.313605
11.4236
-0.234367
7.60531
-0.165208
4.80999
-0.104729
2.83028
-0.0546994
1.47709
-0.0221561
0.596454
0.0801302
-0.0348168
0.420473
-0.0911323
1.15057
-0.150849
2.14221
-0.220167
3.58855
-0.297077
5.64861
-0.37693
8.50381
-0.456163
12.3345
-0.540965
17.2922
-0.612361
23.3278
-0.614234
29.5297
-0.58348
29.3437
-0.517932
22.4991
-0.430264
16.3411
-0.340061
11.3334
-0.255818
7.52107
-0.175828
4.73
-0.105174
2.75962
-0.0476679
1.41958
-0.0189909
0.567777
0.0611393
-0.0444448
0.464918
-0.113499
1.21962
-0.182059
2.21077
-0.253397
3.65989
-0.333298
5.72851
-0.423339
8.59385
-0.516714
12.4279
-0.606583
17.382
-0.680017
23.4013
-0.685528
29.5352
-0.653981
29.3122
-0.57838
22.4235
-0.483051
16.2458
-0.379499
11.2299
-0.279375
7.42094
-0.188535
4.63916
-0.107956
2.67904
-0.0431652
1.35479
-0.0168108
0.541423
0.0443285
-0.0484366
0.513355
-0.122726
1.29391
-0.200474
2.28852
-0.289139
3.74856
-0.382545
5.82192
-0.478797
8.6901
-0.575039
12.5241
-0.681672
17.4887
-0.762829
23.4824
-0.770889
29.5433
-0.735902
29.2772
-0.647658
22.3352
-0.532809
16.131
-0.415761
11.1128
-0.306952
7.31213
-0.204574
4.53678
-0.116249
2.59072
-0.047154
1.2857
-0.0177371
0.512006
0.0265915
-0.0574644
0.570819
-0.147206
1.38365
-0.226689
2.368
-0.316406
3.83827
-0.4222
5.92771
-0.535864
8.80377
-0.650661
12.6389
-0.762941
17.601
-0.849448
23.5689
-0.861601
29.5555
-0.819214
29.2348
-0.718825
22.2348
-0.595856
16.008
-0.464716
10.9817
-0.341336
7.18875
-0.232979
4.42843
-0.136939
2.49468
-0.0598067
1.20857
-0.0218188
0.474018
0.00477268
-0.0583404
0.62916
-0.150526
1.47584
-0.251861
2.46934
-0.363782
3.95019
-0.480118
6.04405
-0.605867
8.92951
-0.734731
12.7678
-0.868658
17.7349
-0.960333
23.6606
-0.970238
29.5654
-0.913491
29.178
-0.794529
22.1159
-0.653368
15.8668
-0.513621
10.842
-0.383091
7.05823
-0.26374
4.30908
-0.159667
2.39061
-0.0757151
1.12461
-0.0282152
0.426518
-0.0234425
-0.068845
0.698005
-0.16897
1.57596
-0.268028
2.56839
-0.388197
4.07036
-0.527081
6.18293
-0.670405
9.07284
-0.820989
12.9184
-0.976187
17.8901
-1.07794
23.7624
-1.08576
29.5732
-1.01654
29.1088
-0.884231
21.9836
-0.730839
15.7134
-0.573491
10.6846
-0.420657
6.90539
-0.287082
4.1755
-0.178232
2.28176
-0.0901054
1.03649
-0.0345537
0.370967
-0.0579961
-0.0705397
0.768544
-0.179218
1.68464
-0.301722
2.6909
-0.445318
4.21396
-0.600689
6.3383
-0.768196
9.24035
-0.938064
13.0882
-1.11518
18.0672
-1.22096
23.8681
-1.22316
29.5754
-1.13726
29.0229
-0.984341
21.8306
-0.805517
15.5346
-0.627491
10.5066
-0.460262
6.73816
-0.310211
4.02545
-0.187647
2.15919
-0.0963467
0.945187
-0.0382609
0.312881
-0.096257
-0.0823208
0.850865
-0.206409
1.80873
-0.342552
2.82704
-0.498005
4.36941
-0.672205
6.5125
-0.857851
9.42599
-1.05379
13.2842
-1.26175
18.2752
-1.37256
23.979
-1.37152
29.5743
-1.27368
28.9251
-1.09948
21.6564
-0.895846
15.331
-0.690152
10.3009
-0.495375
6.54339
-0.327073
3.85715
-0.188641
2.02076
-0.100753
0.857299
-0.0410357
0.253163
-0.137293
-0.0990021
0.949867
-0.237772
1.9475
-0.391938
2.98121
-0.578173
4.55565
-0.774695
6.70902
-0.986791
9.63809
-1.20996
13.5073
-1.4414
18.5066
-1.55488
24.0924
-1.54984
29.5693
-1.43137
28.8066
-1.22819
21.4533
-0.993769
15.0966
-0.762088
10.0692
-0.542224
6.32352
-0.350008
3.66493
-0.192867
1.86362
-0.1037
0.768132
-0.0433197
0.192783
-0.180612
-0.107734
1.0576
-0.264487
2.10425
-0.447007
3.16373
-0.652761
4.7614
-0.88059
6.93685
-1.12797
9.88547
-1.38504
13.7644
-1.64195
18.7635
-1.75183
24.2023
-1.74329
29.5608
-1.6093
28.6726
-1.37123
21.2152
-1.10017
14.8255
-0.83593
9.80497
-0.593366
6.08096
-0.382697
3.45426
-0.203071
1.68399
-0.113954
0.679015
-0.0479513
0.126781
-0.228564
-0.139505
1.19711
-0.331549
2.2963
-0.538578
3.37076
-0.769353
4.99218
-1.02312
7.19062
-1.30738
10.1697
-1.61277
14.0698
-1.88976
19.0405
-1.99298
24.3055
-1.97318
29.5409
-1.80439
28.5038
-1.52553
20.9363
-1.21719
14.5171
-0.914201
9.50198
-0.645862
5.81262
-0.413137
3.22154
-0.224768
1.49562
-0.133563
0.58781
-0.0566399
0.0498578
-0.285204
-0.147852
1.34496
-0.345465
2.49391
-0.585264
3.61056
-0.869293
5.2762
-1.18941
7.51073
-1.539
10.5193
-1.88695
14.4178
-2.16897
19.3225
-2.26049
24.3971
-2.22532
29.5058
-2.01145
28.29
-1.67967
20.6045
-1.31935
14.1568
-0.982603
9.16523
-0.685957
5.51597
-0.437928
2.97351
-0.245613
1.30331
-0.153447
0.495644
-0.0709265
-0.0326629
-0.35613
-0.206662
1.55162
-0.468235
2.75548
-0.750701
3.89302
-1.0729
5.5984
-1.44515
7.88299
-1.83772
10.9119
-2.23007
14.8101
-2.50954
19.602
-2.58006
24.4676
-2.52029
29.446
-2.24134
28.011
-1.84083
20.204
-1.42135
13.7374
-1.03135
8.77523
-0.701411
5.18603
-0.44726
2.71936
-0.278011
1.13406
-0.194893
0.412525
-0.0886079
-0.138948
-0.444738
-0.232926
1.78455
-0.494416
3.01697
-0.859993
4.2586
-1.30401
6.04242
-1.76128
8.34025
-2.21031
11.3609
-2.63827
15.2381
-2.89631
19.86
-2.94217
24.5134
-2.84468
29.3485
-2.47708
27.6434
-1.985
19.7119
-1.50287
13.2552
-1.07309
8.34544
-0.71426
4.82721
-0.446036
2.45113
-0.302933
0.990958
-0.22756
0.337153
-0.104811
-0.261697
-0.549549
-0.38836
2.1729
-0.852982
3.4816
-1.31673
4.72235
-1.77196
6.49765
-2.23507
8.80337
-2.70357
11.8294
-3.14122
15.6757
-3.35227
20.0711
-3.37002
24.5312
-3.19291
29.1714
-2.72423
27.1747
-2.1555
19.1432
-1.59585
12.6956
-1.09143
7.84103
-0.679397
4.41517
-0.386818
2.15855
-0.241027
0.845167
-0.159817
0.255942
-0.0754707
-0.346043
-0.62502
-0.297671
2.47058
-0.665649
3.84957
-1.04241
5.09911
-1.484
6.93923
-1.99743
9.3168
-2.55241
12.3844
-3.08855
16.2119
-3.40502
20.3875
-3.60013
24.7263
-3.57659
29.1479
-3.15075
26.7489
-2.5233
18.5158
-1.85454
12.0268
-1.2325
7.21899
-0.70687
3.88955
-0.300282
1.75197
-0.114458
0.659343
-0.0358726
0.177357
-0.0424628
-0.339453
-0.667483
-0.173722
2.6443
-0.43675
4.1126
-0.753288
5.41565
-1.098
7.28395
-1.46422
9.68302
-1.84788
12.768
-2.21642
16.5804
-2.4345
20.6056
-2.56493
24.8567
-2.48585
29.0688
-2.09609
26.3591
-1.56444
17.9841
-1.05364
11.516
-0.606428
6.77178
-0.272427
3.55554
-0.0480171
1.52756
0.0434918
0.567834
0.0697978
0.15105
0.0268229
-0.296478
-0.64066
-0.105029
2.74933
-0.243385
4.25096
-0.449912
5.62218
-0.704283
7.53832
-0.998405
9.97714
-1.28914
13.0588
-1.53476
16.826
-1.68234
20.7532
-1.75042
24.9248
-1.62796
28.9463
-1.29392
26.0251
-0.888982
17.5792
-0.508202
11.1352
-0.223602
6.48718
-0.0529944
3.38494
0.040138
1.43442
0.0757508
0.532221
0.0833859
0.143416
0.0428159
-0.255908
-0.597844
-0.0840003
2.83333
-0.226093
4.39305
-0.387179
5.78326
-0.551403
7.70255
-0.698329
10.1241
-0.864884
13.2253
-1.01884
16.98
-1.12079
20.8552
-1.13621
24.9402
-0.99002
28.8001
-0.713707
25.7488
-0.414341
17.2798
-0.171866
10.8928
0.0436827
6.27163
0.177685
3.25093
0.202298
1.40981
0.18821
0.546309
0.129691
0.201934
0.0489264
-0.175143
-0.548917
-0.0407284
2.87406
-0.0995581
4.45188
-0.195079
5.87878
-0.309393
7.81686
-0.436908
10.2516
-0.557902
13.3463
-0.651475
17.0735
-0.703526
20.9072
-0.675968
24.9127
-0.523287
28.6475
-0.288976
25.5145
-0.0741979
17.065
0.138119
10.6804
0.24445
6.1653
0.276242
3.21914
0.247615
1.43844
0.183856
0.610068
0.119378
0.266412
0.0548219
-0.110587
-0.494095
0.0106511
2.8634
-0.0985311
4.56106
-0.204983
5.98523
-0.237892
7.84977
-0.276935
10.2906
-0.335141
13.4045
-0.387293
17.1257
-0.402373
20.9223
-0.344863
24.8552
-0.182174
28.4848
0.0239735
25.3083
0.206141
16.8829
0.312717
10.5739
0.37325
6.10477
0.380898
3.21149
0.315899
1.50344
0.232852
0.693115
0.151232
0.348032
0.0578824
-0.0172375
-0.436213
0.0234775
2.83993
-0.0252751
4.60982
-0.0456627
6.00562
-0.0806027
7.88471
-0.136849
10.3469
-0.177459
13.4451
-0.200898
17.1491
-0.189904
20.9113
-0.112714
24.778
0.0506899
28.3214
0.236904
25.1221
0.36998
16.7498
0.449622
10.4942
0.443881
6.11051
0.424333
3.23104
0.365352
1.56242
0.261349
0.797117
0.154666
0.454716
0.0516695
0.0857585
-0.384544
0.0108553
2.82907
-0.0334961
4.65417
-0.0621189
6.03424
-0.0655669
7.88816
-0.0659535
10.3473
-0.0652048
13.4444
-0.062558
17.1465
-0.0390931
20.8878
0.0386486
24.7002
0.177132
28.1829
0.349465
24.9498
0.462511
16.6367
0.528822
10.4279
0.531681
6.10765
0.45787
3.30485
0.338316
1.68197
0.225336
0.910097
0.125071
0.55498
0.0412516
0.169578
-0.343292
0.0552199
2.77385
0.0606429
4.64874
0.0448838
6.05
0.0142706
7.91877
0.00322296
10.3583
0.014347
13.4333
0.0259281
17.1349
0.0520413
20.8617
0.128125
24.6242
0.257699
28.0533
0.410374
24.7971
0.515423
16.5317
0.562162
10.3812
0.525226
6.14459
0.471989
3.35809
0.375009
1.77895
0.246507
1.0386
0.12654
0.674948
0.031816
0.264301
-0.311476
0.0474355
2.72642
0.0189739
4.67721
0.0253535
6.04362
0.0121775
7.93195
0.0257795
10.3447
0.0489496
13.4101
0.0698653
17.114
0.107145
20.8244
0.181233
24.5501
0.303302
27.9312
0.442559
24.6578
0.534502
16.4397
0.566155
10.3495
0.541175
6.16956
0.444059
3.45521
0.327143
1.89587
0.21582
1.14992
0.110439
0.78033
0.0212479
0.353492
-0.290228
0.0606459
2.66577
0.0941099
4.64374
0.0838475
6.05389
0.0637726
7.95202
0.0545119
10.354
0.0745709
13.39
0.0989665
17.0896
0.138874
20.7845
0.20911
24.4798
0.323637
27.8167
0.451747
24.5297
0.529554
16.3619
0.54859
10.3305
0.510343
6.20781
0.451519
3.51403
0.338889
2.0085
0.198329
1.29048
0.0816187
0.897039
0.0080447
0.427066
-0.282183
0.0535167
2.61225
0.058413
4.63885
0.0614337
6.05087
0.0605412
7.95291
0.0656941
10.3488
0.0888575
13.3669
0.116343
17.0621
0.155961
20.7449
0.221771
24.414
0.327245
27.7112
0.443391
24.4136
0.502713
16.3026
0.508859
10.3243
0.476982
6.23969
0.38507
3.60594
0.281793
2.11178
0.185794
1.38648
0.0812131
1.00162
0.00791645
0.500363
-0.274267
0.0594269
2.55283
0.0881788
4.61009
0.0926249
6.04642
0.0900385
7.9555
0.082995
10.3559
0.098913
13.351
0.125566
17.0355
0.164276
20.7062
0.225618
24.3527
0.318982
27.6179
0.415261
24.3173
0.458369
16.2595
0.459827
10.3229
0.432771
6.26674
0.383212
3.6555
0.267845
2.22714
0.130164
1.52416
0.0343452
1.09744
-0.00217483
0.536883
-0.276442
0.0504445
2.50238
0.0574266
4.60311
0.0651842
6.03866
0.0775046
7.94318
0.0888674
10.3445
0.104223
13.3356
0.131039
17.0086
0.168494
20.6687
0.224622
24.2965
0.303595
27.5389
0.375043
24.2459
0.405157
16.2294
0.39804
10.33
0.365967
6.29882
0.290217
3.73125
0.195665
2.3217
0.109467
1.61036
0.0208555
1.18605
-0.00866406
0.566402
-0.285106
0.0469915
2.45539
0.068593
4.58151
0.0780427
6.02921
0.0865472
7.93467
0.0932091
10.3378
0.107549
13.3213
0.133391
16.9828
0.169692
20.6324
0.220393
24.2458
0.283078
27.4762
0.329212
24.1997
0.345759
16.2129
0.333055
10.3427
0.31291
6.31896
0.269499
3.77466
0.171586
2.41961
0.0474906
1.73445
-0.036234
1.26977
-0.0221371
0.552306
-0.307243
0.0377011
2.41769
0.0426711
4.57654
0.0519509
6.01993
0.0671068
7.91952
0.0870706
10.3179
0.108395
13.2999
0.134899
16.9563
0.169487
20.5979
0.213987
24.2013
0.26032
27.4299
0.284441
24.1756
0.287347
16.2099
0.268741
10.3613
0.238817
6.34889
0.176314
3.83717
0.0932104
2.50271
0.0101406
1.81752
-0.0593175
1.33923
-0.034892
0.52788
-0.342135
0.0332744
2.38442
0.0477878
4.56203
0.0572253
6.0105
0.0664925
7.91025
0.0823999
10.302
0.106334
13.276
0.133595
16.929
0.166919
20.5645
0.205436
24.1628
0.236735
27.3986
0.242643
24.1697
0.230909
16.2217
0.204721
10.3875
0.179447
6.37416
0.133318
3.88329
0.0539204
2.58211
-0.0221415
1.89359
-0.0688184
1.38591
-0.044572
0.503634
-0.386707
0.0245045
2.35991
0.0278817
4.55865
0.036413
6.00196
0.0503503
7.89631
0.0745197
10.2778
0.102253
13.2483
0.1312
16.9001
0.163493
20.5322
0.195969
24.1304
0.214323
27.3802
0.20599
24.178
0.180061
16.2476
0.144485
10.4231
0.1064
6.41225
0.0432329
3.94646
-0.0157114
2.64105
-0.0631132
1.94099
-0.0613528
1.38415
-0.0156006
0.457881
-0.402308
0.0207942
2.33912
0.0282311
4.55121
0.0394158
5.99078
0.0490828
7.88665
0.0687558
10.2581
0.09608
13.2209
0.126142
16.87
0.158152
20.5002
0.185857
24.1026
0.19322
27.3729
0.174026
24.1972
0.134515
16.2871
0.0853034
10.4723
0.0429405
6.45461
-0.0171653
4.00657
-0.0723291
2.69622
-0.0862911
1.95495
-0.0402816
1.33814
0.0625471
0.355053
-0.33976
0.0132084
2.32591
0.0153513
4.54907
0.0241767
5.98195
0.0382376
7.87259
0.0622982
10.2341
0.0901746
13.1931
0.121197
16.839
0.15185
20.4696
0.174845
24.0797
0.175526
27.3722
0.147643
24.2251
0.0943576
16.3404
0.0317575
10.5349
-0.0274223
6.51379
-0.112763
4.09191
-0.173735
2.75719
-0.151059
1.93227
0.0500607
1.13702
0.241478
0.163635
-0.0982825
0.0108811
2.31503
0.0168093
4.54314
0.0266705
5.97209
0.0386613
7.8606
0.058417
10.2143
0.0852337
13.1663
0.11747
16.8068
0.147424
20.4396
0.168268
24.0588
0.167513
27.3729
0.131441
24.2612
0.061996
16.4098
-0.0195459
10.6164
-0.0975922
6.59184
-0.188915
4.18323
-0.267758
2.83603
-0.290378
1.95489
-0.246856
1.0935
-0.555681
0.472461
0.68507
-1.33903
0.0036429
2.31138
0.00868691
4.5381
0.0157707
5.96501
0.0318181
7.84455
0.0542376
10.1919
0.0803206
13.1402
0.112211
16.7749
0.140504
20.4113
0.158897
24.0404
0.155189
27.3767
0.111625
24.3047
0.0267683
16.4947
-0.0669465
10.7101
-0.183453
6.70834
-0.363781
4.36356
-0.579229
3.05148
-0.694406
2.07007
-0.818366
1.21746
-1.42257
1.07667
1.20735
-1.94485
0.00342302
2.30796
0.0115545
4.52997
0.0186895
5.95787
0.0342851
7.82895
0.0530537
10.1731
0.0769728
13.1163
0.107625
16.7442
0.134289
20.3847
0.150851
24.0239
0.144248
27.3833
0.0933254
24.3557
-0.00743184
16.5955
-0.122154
10.8249
-0.27945
6.86564
-0.481586
4.56569
-0.691402
3.2613
-0.823459
2.20213
-1.24959
1.64359
-1.7983
1.62538
1.46264
-2.05359
-0.00169508
2.30966
0.00598311
4.52229
0.0116814
5.95218
0.0304548
7.81018
0.0514134
10.1522
0.0745593
13.0931
0.104072
16.7147
0.12967
20.3591
0.144688
24.0088
0.135307
27.3926
0.0780714
24.4129
-0.0313111
16.7048
-0.171871
10.9654
-0.365473
7.05924
-0.664015
4.86424
-0.953874
3.55116
-1.23352
2.48178
-1.63506
2.04513
-1.93468
1.92501
1.61171
-2.08375
7.84058e-05
2.30958
0.0084402
4.51393
0.0156666
5.94495
0.0334831
7.79236
0.0521599
10.1335
0.0743178
13.0709
0.102335
16.6867
0.126494
20.3349
0.140129
23.9952
0.128267
27.4045
0.0646216
24.4765
-0.0555355
16.825
-0.220183
11.1301
-0.460554
7.29961
-0.752496
5.15618
-0.950981
3.74964
-1.26685
2.79765
-1.69851
2.47679
-1.95919
2.18568
1.7769
-2.12438
-0.0017562
2.31133
0.00545649
4.50671
0.0127476
5.93766
0.0320263
7.77308
0.0543711
10.1111
0.0782923
13.047
0.105968
16.659
0.129027
20.3119
0.141001
23.9832
0.125647
27.4199
0.0541443
24.548
-0.0779929
16.9571
-0.256693
11.3088
-0.513416
7.55633
-0.825661
5.46842
-1.17345
4.09744
-1.58769
3.21188
-1.92618
2.81529
-2.12141
2.3809
1.89016
-2.23467
0.00398912
2.30735
0.0105488
4.50016
0.0208066
5.9274
0.0381627
7.75573
0.0598648
10.0894
0.084912
13.022
0.112362
16.6316
0.133994
20.2902
0.143921
23.9733
0.124351
27.4394
0.0446897
24.6277
-0.0980511
17.0999
-0.288663
11.4994
-0.577755
7.84543
-0.910214
5.80088
-1.20852
4.39574
-1.54709
3.55045
-1.87489
3.14309
-2.07329
2.5793
2.0696
-2.25273
0.00394823
2.3034
0.00979955
4.4943
0.0193846
5.91782
0.0383048
7.73681
0.0635346
10.0642
0.0906804
12.9948
0.118316
16.6039
0.138771
20.2698
0.146621
23.9654
0.122897
27.4631
0.0371029
24.7135
-0.112068
17.2491
-0.307906
11.6952
-0.600626
8.13815
-0.942673
6.14293
-1.27694
4.73001
-1.67753
3.95103
-2.0997
3.56526
-2.41935
2.89895
2.3239
-2.67365
0.0120151
2.29138
0.0189814
4.48734
0.0305189
5.90628
0.0463008
7.72103
0.0691878
10.0413
0.0965146
12.9675
0.124106
16.5763
0.143165
20.2507
0.14881
23.9598
0.12125
27.4907
0.0318603
24.8029
-0.119831
17.4007
-0.318122
11.8935
-0.612265
8.43229
-0.976149
6.50681
-1.37675
5.13061
-1.73844
4.31273
-2.10733
3.93414
-2.51018
3.30181
2.50122
-2.6875
0.0109135
2.28047
0.0192004
4.47905
0.02937
5.89611
0.0477661
7.70263
0.0732248
10.0159
0.101895
12.9388
0.130014
16.5482
0.14818
20.2325
0.151825
23.9562
0.12103
27.5215
0.0308154
24.8931
-0.11976
17.5513
-0.319055
12.0928
-0.612723
8.72596
-0.944152
6.83824
-1.32804
5.5145
-1.83006
4.81474
-2.13759
4.24167
-2.52354
3.68776
3.08924
-3.11156
0.0202023
2.26027
0.0305883
4.46866
0.0425981
5.8841
0.0574744
7.68775
0.0789081
9.99442
0.105956
12.9118
0.133503
16.5207
0.150138
20.2159
0.151754
23.9545
0.119312
27.5539
0.0325204
24.9799
-0.110557
17.6944
-0.304849
12.2871
-0.568135
8.98924
-0.853527
7.12363
-1.17597
5.83695
-1.52793
5.1667
-1.67485
4.38859
-1.20968
3.22259
1.87957
0.0154766
2.24479
0.0288425
4.4553
0.0409397
5.872
0.0604567
7.66824
0.0863049
9.96857
0.115867
12.8822
0.146135
16.4904
0.164685
20.1974
0.166893
23.9523
0.133453
27.5874
0.0454245
25.0679
-0.0990001
17.8388
-0.297199
12.4853
-0.550357
9.2424
-0.774143
7.34742
-0.953223
6.01603
-0.946915
5.16039
-0.839956
4.28163
-0.576985
2.95961
1.30258
0.027136
2.21765
0.0409859
4.44145
0.0566497
5.85634
0.0744688
7.65042
0.0981775
9.94486
0.12746
12.8529
0.159243
16.4586
0.180256
20.1763
0.184293
23.9483
0.152413
27.6193
0.0665599
25.1538
-0.0722237
17.9776
-0.262893
12.676
-0.486902
9.46641
-0.649939
7.51046
-0.770629
6.13672
-0.835312
5.22507
-0.831848
4.27817
-0.710205
2.83797
0.592378
0.0172208
2.20043
0.0355711
4.4231
0.0519633
5.83995
0.0764028
7.62598
0.106938
9.91433
0.13971
12.8202
0.174636
16.4237
0.199325
20.1517
0.207178
23.9404
0.179928
27.6465
0.0982588
25.2354
-0.0331017
18.109
-0.20089
12.8438
-0.392694
9.65821
-0.552478
7.67024
-0.679739
6.26398
-0.772574
5.31791
-0.740865
4.24646
-0.36467
2.46178
0.227708
0.0328027
2.16763
0.0489502
4.40695
0.0694002
5.8195
0.0926895
7.60269
0.122432
9.88459
0.15625
12.7864
0.193923
16.386
0.222698
20.1229
0.235787
23.9274
0.215609
27.6667
0.141917
25.3091
0.0183345
18.2325
-0.122031
12.9841
-0.314724
9.85091
-0.491956
7.84747
-0.615067
6.38709
-0.651528
5.35437
-0.505955
4.10089
-0.152219
2.10804
0.0754891
0.0182851
2.14935
0.0419417
4.38329
0.0624803
5.79896
0.0941787
7.57099
0.133158
9.84561
0.173503
12.746
0.217359
16.3422
0.252047
20.0882
0.272401
23.907
0.261771
27.6773
0.200038
25.3709
0.0950778
18.3375
-0.0479009
13.1271
-0.240058
10.0431
-0.394867
8.00228
-0.489485
6.48171
-0.47781
5.3427
-0.364168
3.98724
-0.142683
1.88656
-0.0671943
0.039546
2.1098
0.0586712
4.36417
0.085607
5.77202
0.116317
7.54028
0.154989
9.80694
0.198463
12.7025
0.247737
16.2929
0.288636
20.0473
0.317152
23.8785
0.317697
27.6768
0.271602
25.417
0.181705
18.4274
0.0328292
13.276
-0.143846
10.2197
-0.274224
8.13266
-0.330895
6.53838
-0.325147
5.33695
-0.249589
3.91168
-0.0683608
1.70533
-0.135555
0.0223325
2.08747
0.0527055
4.3338
0.078638
5.74609
0.12
7.49892
0.170956
9.75598
0.224387
12.6491
0.283593
16.2337
0.333252
19.9976
0.372076
23.8397
0.386607
27.6622
0.358673
25.4449
0.27718
18.5089
0.130619
13.4225
-0.0368355
10.3872
-0.133838
8.22966
-0.177736
6.58228
-0.169236
5.32845
-0.107952
3.8504
0.0179707
1.57941
-0.117584
0.0498422
2.03762
0.0758829
4.30776
0.113156
5.70882
0.154175
7.4579
0.204739
9.70541
0.262753
12.5911
0.329631
16.1668
0.388102
19.9392
0.438026
23.7897
0.466455
27.6338
0.45351
25.4578
0.381874
18.5805
0.23722
13.5672
0.0811279
10.5433
-0.0037978
8.31459
-0.0215331
6.60001
-0.0303205
5.33723
0.000365559
3.81972
0.0572583
1.52251
-0.060326
0.0320966
2.00553
0.0733319
4.26652
0.109088
5.67306
0.163667
7.40332
0.232086
9.637
0.303334
12.5198
0.383218
16.0869
0.453402
19.869
0.516473
23.7267
0.560328
27.59
0.559028
25.4591
0.494899
18.6447
0.358969
13.7031
0.21507
10.6872
0.127572
8.40209
0.0941061
6.63348
0.0929516
5.33839
0.0990362
3.81363
0.0868663
1.53468
0.0265403
0.0685715
1.93696
0.107649
4.22744
0.160944
5.61977
0.21646
7.3478
0.285466
9.56799
0.362528
12.4428
0.452181
15.9973
0.533479
19.7877
0.609207
23.6509
0.665989
27.5332
0.676099
25.449
0.622581
18.6982
0.489918
13.8358
0.342286
10.8348
0.242463
8.50191
0.187373
6.68857
0.164798
5.36096
0.148522
3.82991
0.0963656
1.58684
0.122906
0.0491114
1.88784
0.113019
4.16354
0.167682
5.5651
0.240234
7.27525
0.33295
9.47527
0.426693
12.349
0.532971
15.891
0.628902
19.6918
0.718635
23.5612
0.789019
27.4628
0.80995
25.4281
0.759202
18.7489
0.616222
13.9788
0.459406
10.9916
0.344317
8.617
0.271348
6.76154
0.242077
5.39024
0.214744
3.85724
0.0969474
1.70463
0.219853
0.108176
1.77967
0.16714
4.10457
0.239208
5.49303
0.322217
7.19225
0.415686
9.3818
0.517906
12.2468
0.636192
15.7727
0.745486
19.5825
0.848606
23.4581
0.928065
27.3833
0.957538
25.3986
0.905437
18.801
0.747761
14.1364
0.581354
11.158
0.465034
8.73332
0.39619
6.83038
0.355698
5.43073
0.289787
3.92315
0.112721
1.8817
0.332574
0.0858401
1.69383
0.195188
3.99522
0.282986
5.40524
0.385713
7.08952
0.499898
9.26762
0.622017
12.1247
0.759529
15.6352
0.886605
19.4554
1.00413
23.3406
1.09293
27.2945
1.12705
25.3645
1.06262
18.8655
0.890196
14.3089
0.720905
11.3273
0.601983
8.85224
0.519545
6.91282
0.458623
5.49165
0.367307
4.01447
0.157354
2.09165
0.489928
0.162424
1.53141
0.282288
3.87536
0.394713
5.29281
0.511882
6.97235
0.635832
9.14367
0.768725
11.9918
0.918293
15.4856
1.05932
19.3144
1.1898
23.2101
1.28367
27.2007
1.3172
25.331
1.23759
18.9451
1.05076
14.4957
0.868701
11.5094
0.724985
8.99596
0.614991
7.02281
0.531397
5.57524
0.424993
4.12087
0.201813
2.31483
0.691741
0.234963
1.29644
0.401608
3.70871
0.51545
5.17897
0.642892
6.84491
0.791737
8.99482
0.943434
11.8401
1.11327
15.3158
1.27421
19.1534
1.41923
23.0651
1.51927
27.1006
1.5449
25.3054
1.43461
19.0553
1.21231
14.718
0.993266
11.7284
0.809462
9.17976
0.671621
7.16065
0.567719
5.67914
0.448613
4.23998
0.221487
2.54196
0.913227
0.344206
0.952236
0.570843
3.48208
0.734456
5.01536
0.881904
6.69746
1.03382
8.84291
1.19097
11.683
1.36866
15.1381
1.54195
18.9801
1.69903
22.908
1.80345
26.9962
1.80756
25.3013
1.64786
19.2151
1.37991
14.9859
1.12868
11.9797
0.921688
9.38676
0.762233
7.32011
0.632963
5.80841
0.485432
4.38751
0.236452
2.79094
1.14968
0.576194
0.376043
0.867542
3.19073
0.996112
4.88679
1.14625
6.54732
1.32386
8.6653
1.49799
11.5088
1.69365
14.9424
1.8871
18.7867
2.05786
22.7372
2.16555
26.8885
2.13413
25.3327
1.92299
19.4262
1.62251
15.2864
1.33838
12.2638
1.07967
9.64546
0.857999
7.54178
0.673721
5.99269
0.486015
4.57521
0.232378
3.04458
1.38206
0.493751
-0.117708
1.17407
2.51041
1.46278
4.59808
1.601
6.40909
1.73341
8.53289
1.90188
11.3404
2.1075
14.7368
2.31888
18.5753
2.50588
22.5502
2.62248
26.7719
2.56676
25.3884
2.32467
19.6683
2.0076
15.6035
1.68205
12.5893
1.34969
9.97782
1.05116
7.84031
0.797564
6.24629
0.55259
4.82019
0.25671
3.34046
1.63877
0.380032
-0.49774
1.52582
1.36462
1.95544
4.16846
2.11156
6.25298
2.25032
8.39413
2.42165
11.169
2.64238
14.5161
2.88185
18.3358
3.0999
22.3322
3.2597
26.6121
3.20856
25.4395
2.94001
19.9368
2.56998
15.9735
2.19107
12.9682
1.81043
10.3585
1.42385
8.22689
1.04556
6.62459
0.684362
5.18138
0.309727
3.71509
1.94849
0.294295
-0.792035
1.64995
0.00895973
2.21636
3.60206
2.27327
6.19607
2.27716
8.39024
2.34915
11.097
2.4458
14.4194
2.53722
18.2444
2.59667
22.2727
2.58984
26.6189
2.42953
25.5998
2.15362
20.2128
1.83158
16.2956
1.50801
13.2918
1.20545
10.661
0.949423
8.48291
0.719738
6.85427
0.486554
5.41457
0.227062
3.97459
2.17556
0.430508
-1.22254
1.01954
-0.580069
1.60284
3.01876
1.70477
6.09414
1.6615
8.43351
1.647
11.1115
1.70438
14.3621
1.80817
18.1406
1.89726
22.1836
1.93863
26.5776
1.85375
25.6847
1.64971
20.4168
1.40943
16.5358
1.1699
13.5313
0.924419
10.9065
0.700927
8.70641
0.508269
7.04693
0.325434
5.5974
0.142087
4.15793
2.31764
0.41405
-1.63659
0.165446
-0.331464
0.339987
2.84421
0.579568
5.85456
0.705277
8.3078
0.80582
11.011
0.945098
14.2228
1.1149
17.9708
1.26012
22.0384
1.36133
26.4764
1.3596
25.6864
1.22513
20.5513
1.04485
16.7161
0.863058
13.7131
0.676938
11.0926
0.505717
8.87763
0.357862
7.19479
0.222831
5.73243
0.0888951
4.29187
2.40654
-0.11315
-1.52344
-0.756789
0.312174
-1.00696
3.09439
-0.799156
5.64675
-0.452241
7.96089
-0.118049
10.6768
0.167896
13.9368
0.430733
17.708
0.666422
21.8027
0.847263
26.2955
0.928548
25.6052
0.860223
20.6196
0.740252
16.8361
0.612397
13.841
0.479092
11.2259
0.355034
9.00168
0.246327
7.3035
0.144031
5.83473
0.0459535
4.38994
2.45249
-0.486578
-1.03687
-0.966004
0.7916
-1.2737
3.40208
-1.27517
5.64822
-1.11909
7.80481
-0.845311
10.403
-0.511325
13.6028
-0.162337
17.359
0.142316
21.4981
0.398241
26.0396
0.555955
25.4474
0.55434
20.6212
0.492452
16.898
0.412585
13.9209
0.321623
11.3169
0.234243
9.08906
0.155715
7.38202
0.0785704
5.91187
0.00822694
4.46029
2.46072
-0.466686
-0.57018
-0.94459
1.2695
-1.17731
3.6348
-1.27576
5.74667
-1.27917
7.80822
-1.15974
10.2836
-0.927214
13.3703
-0.610776
17.0426
-0.274882
21.1622
0.0446396
25.7201
0.251979
25.2401
0.307863
20.5653
0.292247
16.9136
0.24799
13.9651
0.19189
11.373
0.131686
9.14927
0.0728461
7.44086
0.0207336
5.96398
-0.023131
4.50415
2.43759
-0.435021
-0.13516
-0.825742
1.66023
-1.05496
3.86402
-1.16061
5.85232
-1.23068
7.87829
-1.22526
10.2782
-1.10163
13.2467
-0.860043
16.801
-0.556791
20.8589
-0.214137
25.3774
0.0299701
24.996
0.110243
20.4851
0.131648
16.8922
0.112087
13.9847
0.081414
11.4037
0.039788
9.19089
0.00258682
7.47806
-0.0360833
6.00265
-0.0585362
4.52661
2.37905
-0.339926
0.204766
-0.693046
2.01335
-0.917568
4.08854
-1.03914
5.97389
-1.11102
7.95017
-1.14296
10.3101
-1.11537
13.2191
-0.957599
16.6432
-0.70414
20.6055
-0.377649
25.0509
-0.13801
24.7564
-0.0399496
20.387
-0.00594215
16.8582
0.0106875
13.968
-0.0115941
11.426
-0.0376758
9.21698
-0.0658316
7.50622
-0.0883353
6.02516
-0.0829775
4.52125
2.29607
-0.299093
0.503859
-0.604582
2.31884
-0.810232
4.29419
-0.947418
6.11108
-1.03028
8.03304
-1.05326
10.3331
-1.02536
13.1912
-0.938331
16.5562
-0.751517
20.4186
-0.465582
24.765
-0.249976
24.5407
-0.145136
20.2821
-0.0974024
16.8105
-0.0782341
13.9489