/*--------------------------------*- C++ -*----------------------------------*\
| =========                 |                                                 |
| \\      /  F ield         | OpenFOAM: The Open Source CFD Toolbox           |
|  \\    /   O peration     | Version:  2412                                  |
|   \\  /    A nd           | Website:  www.openfoam.com                      |
|    \\/     M anipulation  |                                                 |
\*---------------------------------------------------------------------------*/
FoamFile
{
    version     2.0;
    format      ascii;
    arch        "LSB;label=32;scalar=64";
    class       volVectorField;
    location    "9.5";
    object      U;
}
// * * * * * * * * * * * * * * * * * * * * * * * * * * * * * * * * * * * * * //

dimensions      [0 1 -1 0 0 0 0];

internalField   nonuniform List<vector> 
2200
(
(0.381575 0.000472164 0)
(1.19507 0.00167446 0)
(2.12311 0.00274926 0)
(3.16907 0.00389756 0)
(4.32432 0.00536771 0)
(5.5702 0.00668974 0)
(6.86164 0.00790968 0)
(8.11787 0.00900777 0)
(9.20439 0.00935971 0)
(9.90019 0.00962962 0)
(9.90135 0.00975479 0)
(9.20726 0.0102128 0)
(8.12029 0.0095236 0)
(6.86612 0.00884391 0)
(5.5736 0.00637922 0)
(4.32666 0.00543474 0)
(3.16769 0.00408767 0)
(2.12175 0.00297258 0)
(1.1928 0.001936 0)
(0.37773 0.000982032 0)
(0.386883 0.00104026 0)
(1.20057 0.00358477 0)
(2.12867 0.00699727 0)
(3.17433 0.0107255 0)
(4.33239 0.0144704 0)
(5.5789 0.0185917 0)
(6.87078 0.0224249 0)
(8.12737 0.0265963 0)
(9.21193 0.0307259 0)
(9.90171 0.0334045 0)
(9.9003 0.0319048 0)
(9.20411 0.0291914 0)
(8.11879 0.0253422 0)
(6.8572 0.0211399 0)
(5.56479 0.0196028 0)
(4.31746 0.0150602 0)
(3.1625 0.0112631 0)
(2.11509 0.00818005 0)
(1.1834 0.00463579 0)
(0.370696 0.00128275 0)
(0.398161 0.0017424 0)
(1.21304 0.00551129 0)
(2.14045 0.0108783 0)
(3.18467 0.0175217 0)
(4.33946 0.0245777 0)
(5.58378 0.0312473 0)
(6.87283 0.0378953 0)
(8.12656 0.0435764 0)
(9.21275 0.049381 0)
(9.9001 0.0510913 0)
(9.89851 0.0511015 0)
(9.20131 0.0480007 0)
(8.11055 0.0443672 0)
(6.85351 0.0393968 0)
(5.55869 0.0306712 0)
(4.3096 0.0243254 0)
(3.14841 0.0184483 0)
(2.09989 0.0117037 0)
(1.1686 0.00589218 0)
(0.360467 0.00103214 0)
(0.412498 0.00258468 0)
(1.23064 0.00803043 0)
(2.15988 0.016258 0)
(3.20464 0.0245482 0)
(4.35974 0.0341836 0)
(5.60277 0.0432638 0)
(6.89064 0.051967 0)
(8.14223 0.0612739 0)
(9.22516 0.0697319 0)
(9.90148 0.0747623 0)
(9.89685 0.0720211 0)
(9.19337 0.0680266 0)
(8.10215 0.0594055 0)
(6.83621 0.0492643 0)
(5.53951 0.0427758 0)
(4.2903 0.0329846 0)
(3.13205 0.0229103 0)
(2.08228 0.0146507 0)
(1.15082 0.00710213 0)
(0.347553 0.00112359 0)
(0.434595 0.00326195 0)
(1.25726 0.0103688 0)
(2.18247 0.0203091 0)
(3.22442 0.0307202 0)
(4.3753 0.0427778 0)
(5.61548 0.0553015 0)
(6.89968 0.0669455 0)
(8.14731 0.0774735 0)
(9.23185 0.0885883 0)
(9.9001 0.0924244 0)
(9.89226 0.0920484 0)
(9.18637 0.0851635 0)
(8.08876 0.0775629 0)
(6.82635 0.0678037 0)
(5.5269 0.0520224 0)
(4.27318 0.0394132 0)
(3.10961 0.0279924 0)
(2.0597 0.0175613 0)
(1.12692 0.00820869 0)
(0.332491 0.00104613 0)
(0.460582 0.00391584 0)
(1.2899 0.0121152 0)
(2.21635 0.0262378 0)
(3.25647 0.0395654 0)
(4.41133 0.0530424 0)
(5.64737 0.0675908 0)
(6.92694 0.0818388 0)
(8.16954 0.0960078 0)
(9.24839 0.109055 0)
(9.90155 0.11619 0)
(9.89047 0.112353 0)
(9.17551 0.106421 0)
(8.07423 0.092303 0)
(6.80052 0.0753052 0)
(5.49823 0.0637025 0)
(4.24558 0.0477147 0)
(3.08329 0.0334862 0)
(2.02913 0.0203033 0)
(1.09908 0.00939006 0)
(0.316175 0.00153324 0)
(0.492773 0.00441805 0)
(1.33357 0.0145463 0)
(2.25931 0.029189 0)
(3.29664 0.0455332 0)
(4.4345 0.0636326 0)
(5.6676 0.0792307 0)
(6.9429 0.0960161 0)
(8.18049 0.112188 0)
(9.26115 0.128683 0)
(9.9005 0.135001 0)
(9.88355 0.133349 0)
(9.16393 0.122679 0)
(8.05611 0.109878 0)
(6.78583 0.0949946 0)
(5.4795 0.0723251 0)
(4.21838 0.0552459 0)
(3.04829 0.0387535 0)
(1.9948 0.0238431 0)
(1.065 0.0116035 0)
(0.294709 0.0026652 0)
(0.524115 0.00370053 0)
(1.36467 0.0158999 0)
(2.28928 0.0318992 0)
(3.32961 0.0496433 0)
(4.48276 0.069449 0)
(5.71158 0.0933424 0)
(6.98056 0.113363 0)
(8.21111 0.132335 0)
(9.28271 0.15063 0)
(9.90334 0.159548 0)
(9.88212 0.154082 0)
(9.15149 0.144654 0)
(8.03633 0.12575 0)
(6.75084 0.102414 0)
(5.44006 0.0849987 0)
(4.18183 0.0633103 0)
(3.01584 0.0449969 0)
(1.95718 0.0290296 0)
(1.02411 0.0130894 0)
(0.267104 0.00393107 0)
(0.56419 0.00304658 0)
(1.42842 0.0169853 0)
(2.35204 0.0347382 0)
(3.38025 0.0555898 0)
(4.51316 0.0812836 0)
(5.73942 0.102697 0)
(7.00462 0.126902 0)
(8.22887 0.149475 0)
(9.30113 0.171882 0)
(9.90284 0.180448 0)
(9.87317 0.176659 0)
(9.13399 0.162355 0)
(8.01077 0.143276 0)
(6.72987 0.123093 0)
(5.4141 0.095048 0)
(4.14307 0.0728201 0)
(2.96441 0.0526264 0)
(1.90541 0.0336774 0)
(0.976338 0.0145098 0)
(0.234128 0.00535563 0)
(0.594186 0.00349441 0)
(1.46987 0.0196805 0)
(2.39599 0.0368376 0)
(3.43465 0.0621105 0)
(4.57582 0.0873431 0)
(5.7928 0.118543 0)
(7.04833 0.144754 0)
(8.26667 0.171047 0)
(9.32753 0.196188 0)
(9.90701 0.207133 0)
(9.87101 0.199652 0)
(9.11929 0.185671 0)
(7.98611 0.162279 0)
(6.68403 0.132864 0)
(5.36025 0.108239 0)
(4.09317 0.0810489 0)
(2.92175 0.0569391 0)
(1.86166 0.0359545 0)
(0.930772 0.0154197 0)
(0.196675 0.00622042 0)
(0.648851 0.0041386 0)
(1.5532 0.02417 0)
(2.47702 0.0457381 0)
(3.49163 0.0709626 0)
(4.61689 0.102211 0)
(5.83412 0.129866 0)
(7.08651 0.162985 0)
(8.29502 0.192003 0)
(9.35063 0.220655 0)
(9.90677 0.231513 0)
(9.85961 0.225145 0)
(9.09323 0.207137 0)
(7.94775 0.181417 0)
(6.65108 0.154336 0)
(5.32538 0.119789 0)
(4.04639 0.0889022 0)
(2.8641 0.0605022 0)
(1.80524 0.0361195 0)
(0.882638 0.0137097 0)
(0.156937 0.00620378 0)
(0.689078 0.00608184 0)
(1.60742 0.0293373 0)
(2.53629 0.0518968 0)
(3.56758 0.0826664 0)
(4.6923 0.112395 0)
(5.89245 0.149091 0)
(7.13196 0.180044 0)
(8.33496 0.215523 0)
(9.37915 0.248254 0)
(9.91044 0.261804 0)
(9.85397 0.253103 0)
(9.07301 0.234289 0)
(7.91562 0.204199 0)
(6.59368 0.166866 0)
(5.25255 0.132593 0)
(3.97722 0.0965553 0)
(2.80186 0.0632933 0)
(1.74464 0.0329784 0)
(0.840228 0.0114254 0)
(0.122624 0.0055771 0)
(0.774687 0.00778065 0)
(1.72232 0.0361574 0)
(2.6191 0.0695161 0)
(3.62491 0.093556 0)
(4.74256 0.127496 0)
(5.94722 0.162376 0)
(7.18115 0.205991 0)
(8.37496 0.241662 0)
(9.40455 0.276872 0)
(9.90838 0.291196 0)
(9.8379 0.28339 0)
(9.03568 0.261866 0)
(7.86123 0.228095 0)
(6.54305 0.190482 0)
(5.20508 0.145901 0)
(3.91417 0.105846 0)
(2.72302 0.0659251 0)
(1.66504 0.0309051 0)
(0.799169 0.0102469 0)
(0.0913044 0.00515875 0)
(0.836283 0.00949545 0)
(1.80027 0.0379842 0)
(2.70758 0.0709203 0)
(3.72068 0.113447 0)
(4.82894 0.144548 0)
(6.01324 0.187427 0)
(7.23554 0.225832 0)
(8.41857 0.271119 0)
(9.43473 0.310733 0)
(9.90973 0.326725 0)
(9.82539 0.318714 0)
(9.0058 0.295248 0)
(7.81746 0.255983 0)
(6.47103 0.208108 0)
(5.10851 0.162476 0)
(3.81825 0.114981 0)
(2.63591 0.069557 0)
(1.58741 0.0331053 0)
(0.761621 0.0123338 0)
(0.062839 0.00484575 0)
(0.946904 0.0112285 0)
(1.94028 0.0452356 0)
(2.7961 0.0889128 0)
(3.79365 0.117038 0)
(4.90125 0.165526 0)
(6.08385 0.207876 0)
(7.29205 0.257857 0)
(8.47121 0.302054 0)
(9.46304 0.344975 0)
(9.90517 0.364239 0)
(9.80241 0.35589 0)
(8.95663 0.330086 0)
(7.74813 0.286058 0)
(6.40263 0.236173 0)
(5.04695 0.179319 0)
(3.74281 0.127104 0)
(2.54424 0.0804983 0)
(1.49454 0.040767 0)
(0.708873 0.0166988 0)
(0.0269042 0.00501018 0)
(1.03428 0.0106946 0)
(2.06335 0.0458727 0)
(2.91789 0.088788 0)
(3.91641 0.143646 0)
(5.00727 0.183613 0)
(6.17588 0.240108 0)
(7.37559 0.29015 0)
(8.53247 0.343423 0)
(9.49929 0.390288 0)
(9.90582 0.409219 0)
(9.78385 0.400341 0)
(8.91752 0.369223 0)
(7.69306 0.318404 0)
(6.32021 0.256354 0)
(4.9374 0.19769 0)
(3.63142 0.14298 0)
(2.43711 0.0939908 0)
(1.39947 0.0490335 0)
(0.651236 0.0221865 0)
(-0.0129169 0.00596783 0)
(1.14665 0.0161005 0)
(2.1994 0.0508521 0)
(3.02128 0.101302 0)
(4.0078 0.142502 0)
(5.10348 0.20838 0)
(6.26328 0.263144 0)
(7.44297 0.324519 0)
(8.60321 0.384548 0)
(9.53548 0.437496 0)
(9.90391 0.459635 0)
(9.75822 0.445942 0)
(8.86143 0.410527 0)
(7.61539 0.352892 0)
(6.23924 0.287978 0)
(4.86205 0.215175 0)
(3.54726 0.154911 0)
(2.34119 0.106361 0)
(1.29553 0.0542442 0)
(0.571406 0.0276143 0)
(-0.0703691 0.00679884 0)
(1.28146 0.0123054 0)
(2.36754 0.0575153 0)
(3.17952 0.106158 0)
(4.17418 0.168461 0)
(5.24397 0.231015 0)
(6.38774 0.306092 0)
(7.55632 0.371782 0)
(8.68706 0.439415 0)
(9.58011 0.498024 0)
(9.90941 0.518814 0)
(9.73848 0.501568 0)
(8.81242 0.456014 0)
(7.54354 0.39018 0)
(6.13954 0.313404 0)
(4.73112 0.237959 0)
(3.41011 0.168362 0)
(2.21878 0.116538 0)
(1.18757 0.0554027 0)
(0.493406 0.0296679 0)
(-0.131318 0.00804325 0)
(1.38538 0.0197519 0)
(2.50727 0.0599226 0)
(3.30979 0.130043 0)
(4.29426 0.182002 0)
(5.37384 0.262342 0)
(6.50403 0.337795 0)
(7.64913 0.416527 0)
(8.77906 0.497633 0)
(9.62486 0.561459 0)
(9.9123 0.583827 0)
(9.71006 0.560366 0)
(8.74505 0.509428 0)
(7.44798 0.433283 0)
(6.03248 0.349236 0)
(4.6297 0.260838 0)
(3.29652 0.182432 0)
(2.09721 0.118852 0)
(1.07943 0.0555043 0)
(0.405862 0.0320832 0)
(-0.201929 0.0085869 0)
(1.58502 0.0198366 0)
(2.7459 0.0769689 0)
(3.52746 0.140788 0)
(4.50623 0.217503 0)
(5.5411 0.300901 0)
(6.64999 0.389215 0)
(7.78102 0.476871 0)
(8.88569 0.568217 0)
(9.67411 0.639852 0)
(9.91869 0.661743 0)
(9.68138 0.632649 0)
(8.67502 0.568604 0)
(7.3482 0.481891 0)
(5.90201 0.388305 0)
(4.46307 0.291198 0)
(3.12907 0.19744 0)
(1.94366 0.123059 0)
(0.975011 0.057099 0)
(0.322115 0.0325698 0)
(-0.272568 0.0103206 0)
(1.71453 0.0263041 0)
(2.89861 0.0778407 0)
(3.67805 0.166932 0)
(4.66655 0.240653 0)
(5.71659 0.343957 0)
(6.80901 0.443801 0)
(7.91087 0.54166 0)
(8.99542 0.648877 0)
(9.71689 0.72401 0)
(9.91599 0.745895 0)
(9.63859 0.710841 0)
(8.58442 0.639819 0)
(7.21982 0.538413 0)
(5.75638 0.427492 0)
(4.3222 0.322238 0)
(2.97527 0.216332 0)
(1.78279 0.129321 0)
(0.869504 0.061277 0)
(0.234945 0.0363407 0)
(-0.3502 0.0116362 0)
(1.98957 0.0279274 0)
(3.23004 0.106193 0)
(3.98927 0.202312 0)
(4.93801 0.289676 0)
(5.92157 0.401784 0)
(6.98952 0.507969 0)
(8.06525 0.626979 0)
(9.12396 0.749943 0)
(9.76225 0.828576 0)
(9.91203 0.846714 0)
(9.58597 0.802805 0)
(8.48105 0.716286 0)
(7.0887 0.598616 0)
(5.59595 0.477376 0)
(4.12899 0.348647 0)
(2.7809 0.235381 0)
(1.58316 0.137147 0)
(0.753375 0.072629 0)
(0.1262 0.0410179 0)
(-0.441077 0.0154674 0)
(2.17166 0.039985 0)
(3.43424 0.101436 0)
(4.17907 0.213768 0)
(5.13745 0.325239 0)
(6.14816 0.463566 0)
(7.19265 0.593503 0)
(8.23621 0.730301 0)
(9.25112 0.868497 0)
(9.79521 0.945006 0)
(9.8953 0.958616 0)
(9.51482 0.901541 0)
(8.3542 0.798498 0)
(6.9158 0.659931 0)
(5.40484 0.512629 0)
(3.94899 0.378543 0)
(2.58657 0.244779 0)
(1.40829 0.147799 0)
(0.657364 0.0797578 0)
(0.0162337 0.0500148 0)
(-0.545806 0.0197261 0)
(2.56239 0.0406229 0)
(3.85691 0.156633 0)
(4.58093 0.282661 0)
(5.49722 0.400535 0)
(6.42493 0.556271 0)
(7.42996 0.70549 0)
(8.43733 0.867374 0)
(9.3883 1.01634 0)
(9.82942 1.0878 0)
(9.87537 1.09089 0)
(9.4287 1.01408 0)
(8.2061 0.888426 0)
(6.74026 0.722693 0)
(5.20553 0.551612 0)
(3.72091 0.385478 0)
(2.37997 0.25263 0)
(1.21158 0.153074 0)
(0.544657 0.0993116 0)
(-0.107753 0.0626669 0)
(-0.671281 0.0252485 0)
(2.82929 0.0648021 0)
(4.14632 0.147867 0)
(4.8482 0.308317 0)
(5.76334 0.47373 0)
(6.71347 0.672762 0)
(7.68499 0.848865 0)
(8.66705 1.0378 0)
(9.51672 1.19017 0)
(9.84412 1.24941 0)
(9.84092 1.23897 0)
(9.31864 1.1345 0)
(8.03008 0.975312 0)
(6.51718 0.778126 0)
(4.96143 0.576813 0)
(3.49081 0.396834 0)
(2.15067 0.255142 0)
(1.05069 0.155109 0)
(0.445469 0.117543 0)
(-0.295082 0.0758354 0)
(-0.870374 0.0230913 0)
(3.43676 0.0888528 0)
(4.70044 0.267463 0)
(5.37422 0.466899 0)
(6.2393 0.661261 0)
(7.08407 0.86366 -1.33383e-32)
(7.9867 1.05511 4.87811e-33)
(8.91656 1.25721 0)
(9.63723 1.39811 0)
(9.85642 1.441 0)
(9.79903 1.41108 0)
(9.18981 1.2687 0)
(7.82699 1.07269 0)
(6.28264 0.834879 0)
(4.70684 0.598923 0)
(3.21004 0.388794 0)
(1.91438 0.234054 0)
(0.898136 0.12707 0)
(0.328926 0.0907596 0)
(-0.481839 0.0616289 0)
(-1.06023 -0.00147527 0)
(4.03562 0.216885 -1.50717e-18)
(5.1492 0.367908 1.2524e-18)
(5.7473 0.61857 0)
(6.56851 0.834524 -7.24974e-19)
(7.40577 1.07829 5.8979e-19)
(8.275 1.29709 -5.17506e-33)
(9.17984 1.51812 0)
(9.72353 1.63936 -9.05076e-20)
(9.85298 1.66955 1.58311e-19)
(9.72256 1.61396 -5.02739e-21)
(9.00635 1.42842 0)
(7.54577 1.17901 -2.53486e-19)
(5.93494 0.893752 -3.24503e-19)
(4.31933 0.618308 5.6243e-19)
(2.85043 0.387341 -4.56549e-19)
(1.60753 0.189935 0)
(0.745186 0.0742419 -1.69998e-19)
(0.258757 0.0178797 0)
(-0.526952 -0.000341899 -8.8931e-19)
(-1.12873 -0.0346639 1.0327e-18)
(4.40468 0.424107 1.28278e-19)
(5.62722 0.637075 -5.53841e-18)
(6.18222 0.933038 8.25363e-19)
(6.95051 1.15324 3.00378e-18)
(7.70899 1.37552 1.32165e-18)
(8.50765 1.57897 -2.09633e-18)
(9.33926 1.8004 0)
(9.75517 1.91106 0)
(9.81939 1.9342 -2.63976e-19)
(9.61862 1.85488 0)
(8.80748 1.62484 7.9343e-19)
(7.27158 1.3241 2.77067e-19)
(5.63629 0.974387 -2.34961e-20)
(4.03283 0.656477 -6.92095e-19)
(2.5781 0.375389 0)
(1.36347 0.159526 0)
(0.61602 0.057801 -2.89132e-18)
(0.203663 -0.0138398 7.23982e-18)
(-0.430204 -0.0391867 -4.26621e-18)
(-1.13086 -0.123357 -5.03158e-18)
(4.62995 0.674042 5.14674e-18)
(5.80273 0.954561 -2.01505e-18)
(6.34791 1.19671 -7.25542e-19)
(7.10874 1.39547 -5.59326e-18)
(7.86588 1.64868 4.39855e-19)
(8.65946 1.88096 5.79189e-18)
(9.41784 2.10353 -1.65526e-18)
(9.74059 2.20085 0)
(9.75623 2.2126 5.58829e-19)
(9.49458 2.10525 7.47385e-19)
(8.61911 1.82953 -2.25158e-18)
(7.03834 1.47196 1.23422e-18)
(5.39043 1.07139 -1.01244e-18)
(3.79217 0.687961 2.17862e-18)
(2.38451 0.396558 0)
(1.20389 0.176417 -8.18481e-19)
(0.544206 0.0574879 0)
(0.179152 0.000334402 4.31453e-18)
(-0.414202 -0.0805743 -1.01642e-17)
(-1.06303 -0.17154 6.431e-18)
(4.76042 0.919268 -2.11879e-17)
(6.10012 1.35901 1.10962e-17)
(6.62493 1.59494 1.95296e-18)
(7.33623 1.78656 0)
(8.01473 1.98676 3.82016e-18)
(8.74199 2.20359 -4.49484e-18)
(9.43591 2.4126 1.72253e-18)
(9.69223 2.49981 0)
(9.66696 2.50011 -3.99895e-19)
(9.35949 2.36244 -4.43438e-19)
(8.43909 2.03978 2.35847e-18)
(6.83607 1.62988 0)
(5.20058 1.17038 -2.23098e-18)
(3.63529 0.76136 1.19065e-18)
(2.26687 0.409914 3.07547e-18)
(1.16613 0.165542 -2.78035e-18)
(0.525274 0.0374198 4.28866e-18)
(0.191776 -0.0265308 -9.5357e-18)
(-0.303906 -0.0899374 5.98801e-18)
(-0.959012 -0.202984 -7.54482e-18)
(4.80127 1.16215 1.19048e-17)
(6.1112 1.64663 -1.15814e-17)
(6.64858 1.83669 6.33945e-18)
(7.35571 2.02363 -9.74233e-18)
(8.0412 2.2934 7.54789e-18)
(8.76448 2.53312 -1.754e-18)
(9.40864 2.73319 1.04683e-19)
(9.61393 2.80781 1.85639e-18)
(9.55354 2.79024 3.34185e-19)
(9.21224 2.62225 -1.36131e-18)
(8.26509 2.25299 -5.34252e-18)
(6.65806 1.78044 -2.10418e-18)
(5.04724 1.26635 -5.49263e-20)
(3.49513 0.797819 -4.6289e-18)
(2.20356 0.461258 -3.88035e-20)
(1.18903 0.195536 4.19353e-18)
(0.590081 0.0634703 -1.32254e-18)
(0.299258 0.0231906 -7.16717e-19)
(-0.180361 -0.0838603 0)
(-0.889752 -0.231383 1.72022e-17)
(4.8256 1.29519 0)
(6.24126 2.02774 3.26726e-18)
(6.78224 2.20061 0)
(7.4346 2.41219 -3.54236e-19)
(8.06406 2.6377 -8.4188e-18)
(8.74164 2.85953 3.53735e-18)
(9.34371 3.05261 -2.10871e-18)
(9.51354 3.11801 -2.64067e-18)
(9.42671 3.0805 -1.13205e-19)
(9.06341 2.88265 9.28452e-21)
(8.10539 2.46798 3.01658e-18)
(6.51294 1.93519 4.73807e-18)
(4.92906 1.36742 -3.03309e-18)
(3.43945 0.898044 5.24826e-18)
(2.16355 0.494196 -4.19506e-18)
(1.17352 0.206443 0)
(0.611292 0.0721857 -1.03285e-17)
(0.330781 0.0249449 1.38608e-17)
(-0.110504 -0.0866727 1.06764e-18)
(-0.759096 -0.227515 -1.92746e-17)
(4.694 1.47655 -4.06817e-19)
(6.14114 2.25674 -7.76976e-18)
(6.70916 2.39519 -2.77423e-17)
(7.35587 2.63477 1.71934e-17)
(7.99873 2.92083 -5.60324e-18)
(8.67353 3.17167 3.96125e-18)
(9.25038 3.36823 -4.79517e-18)
(9.395 3.42526 1.5415e-18)
(9.29081 3.36595 5.47169e-19)
(8.91524 3.14077 -1.85081e-19)
(7.95989 2.68385 -3.80318e-18)
(6.39013 2.0982 -5.60539e-18)
(4.82667 1.48606 3.51887e-18)
(3.35275 0.959276 -1.94724e-18)
(2.13233 0.563984 4.84504e-18)
(1.27363 0.259095 0)
(0.765707 0.117321 -6.76883e-18)
(0.506501 0.0904327 1.00584e-17)
(0.0900112 -0.0289167 1.90329e-17)
(-0.667945 -0.219113 -2.22503e-17)
(4.64553 1.68925 -3.97291e-17)
(6.18514 2.57471 1.99821e-17)
(6.74268 2.72223 1.78937e-17)
(7.33659 2.99023 -1.8439e-17)
(7.93947 3.23066 3.76189e-19)
(8.57843 3.47163 8.95967e-18)
(9.13399 3.66996 2.12236e-18)
(9.26486 3.72117 6.85787e-19)
(9.1513 3.64333 -5.68902e-19)
(8.7692 3.39427 8.09539e-19)
(7.82152 2.89997 3.18521e-18)
(6.27428 2.26855 8.76789e-18)
(4.7396 1.61161 0)
(3.35585 1.06336 1.77044e-19)
(2.17208 0.605958 -1.40084e-17)
(1.28069 0.312032 3.34411e-18)
(0.799032 0.178507 1.5416e-17)
(0.549791 0.13629 -4.55234e-18)
(0.161131 0.0115967 9.49417e-18)
(-0.594505 -0.221185 -7.69457e-19)
(4.48283 1.80508 4.14202e-19)
(6.05725 2.72171 1.77966e-17)
(6.61228 2.86683 1.30311e-17)
(7.21047 3.18634 -3.05024e-17)
(7.82848 3.4808 2.24844e-17)
(8.46124 3.75053 -9.82161e-18)
(9.0078 3.95848 -2.31269e-18)
(9.128 4.00567 -3.26448e-18)
(9.00727 3.90999 -5.32438e-19)
(8.61916 3.64026 -2.60969e-18)
(7.68212 3.11297 0)
(6.16445 2.4391 -3.70718e-18)
(4.67286 1.74516 4.24369e-18)
(3.32193 1.15563 5.38611e-18)
(2.19563 0.706685 -3.19361e-18)
(1.41784 0.385193 -7.40889e-18)
(0.973047 0.244923 -2.23784e-18)
(0.713102 0.231279 -1.35229e-19)
(0.307702 0.0732715 0)
(-0.518687 -0.201486 0)
(4.38429 1.94504 -1.78721e-17)
(6.01588 2.9839 0)
(6.56832 3.15771 1.41658e-17)
(7.14055 3.47914 -6.07487e-18)
(7.72723 3.74826 -2.33363e-17)
(8.33282 4.0162 6.5435e-18)
(8.86943 4.22911 -2.54173e-18)
(8.98497 4.27459 2.73679e-18)
(8.85931 4.16536 -7.4698e-19)
(8.46722 3.87783 -2.03777e-18)
(7.54549 3.32107 2.00738e-18)
(6.0626 2.60924 1.21649e-17)
(4.61301 1.88022 3.34808e-19)
(3.32175 1.26895 -5.88145e-18)
(2.21913 0.767793 1.07342e-17)
(1.42153 0.470451 2.33212e-20)
(1.00935 0.321824 2.39569e-18)
(0.799398 0.295337 -1.17587e-17)
(0.426297 0.150956 1.19691e-17)
(-0.47508 -0.199695 -1.40892e-17)
(4.19803 2.02427 -8.25668e-21)
(5.86343 3.09981 0)
(6.42591 3.26738 0)
(6.99294 3.6362 6.00608e-18)
(7.59149 3.95789 8.59944e-18)
(8.19401 4.25639 -5.80572e-18)
(8.72591 4.4819 6.75716e-18)
(8.83726 4.52807 0)
(8.70709 4.40798 4.21114e-19)
(8.31342 4.10497 4.37527e-18)
(7.41206 3.52217 7.53661e-18)
(5.96718 2.77719 -4.66452e-18)
(4.56306 2.01847 -5.67021e-18)
(3.30856 1.37943 1.33505e-17)
(2.26719 0.882576 -3.87626e-18)
(1.56142 0.553324 -4.54663e-18)
(1.17081 0.423116 -2.79323e-18)
(0.906476 0.407978 -1.31189e-17)
(0.494583 0.208076 1.87285e-18)
(-0.454434 -0.201656 1.56945e-17)
(4.07666 2.1237 -6.89044e-18)
(5.78449 3.30572 -1.07787e-17)
(6.34069 3.50797 5.3499e-19)
(6.89072 3.87215 -2.2049e-20)
(7.46634 4.1767 3.6345e-18)
(8.04843 4.48032 -1.3166e-17)
(8.57566 4.71458 0)
(8.68537 4.76365 -9.08816e-19)
(8.55469 4.63717 7.15585e-19)
(8.16583 4.32234 7.32446e-18)
(7.28815 3.71724 -1.59727e-18)
(5.88036 2.94462 2.15435e-18)
(4.51188 2.15873 0)
(3.29002 1.49826 -7.28018e-18)
(2.26302 0.960141 8.92579e-18)
(1.55225 0.656072 0)
(1.20604 0.501499 -6.10715e-18)
(1.02577 0.492113 1.79436e-17)
(0.619365 0.300449 2.16771e-18)
(-0.428295 -0.207092 -1.98636e-17)
(3.9031 2.1746 -1.45894e-17)
(5.63406 3.40367 1.80409e-17)
(6.19482 3.60582 0)
(6.73445 3.999 1.38186e-17)
(7.3185 4.34599 0)
(7.89814 4.67887 1.3358e-17)
(8.42365 4.92845 0)
(8.53309 4.98225 0)
(8.4058 4.85182 -5.31229e-19)
(8.02537 4.52939 -7.43057e-18)
(7.1702 3.90574 -1.4229e-17)
(5.79419 3.1107 2.80135e-18)
(4.45835 2.30225 1.04277e-17)
(3.27083 1.61969 8.25968e-18)
(2.31558 1.07694 -2.89986e-17)
(1.67989 0.752265 -1.14039e-17)
(1.33606 0.630039 6.71166e-18)
(1.0733 0.612151 0)
(0.642777 0.349675 1.89444e-17)
(-0.421243 -0.217842 -2.21832e-17)
(3.78278 2.24789 1.56525e-17)
(5.53914 3.5699 -1.936e-17)
(6.08942 3.81122 0)
(6.61852 4.19587 -3.77107e-19)
(7.18512 4.52361 -5.69015e-18)
(7.7477 4.86186 0)
(8.27153 5.12239 -1.6496e-18)
(8.38367 5.1826 2.91591e-19)
(8.26341 5.05183 2.17485e-19)
(7.8938 4.72622 4.53903e-19)
(7.05827 4.08821 0)
(5.70573 3.27302 1.15864e-17)
(4.39711 2.44342 3.22164e-19)
(3.23524 1.74051 4.54036e-18)
(2.28418 1.1708 5.24847e-18)
(1.65261 0.864705 0)
(1.3602 0.714801 -1.12e-17)
(1.17524 0.712181 2.20206e-17)
(0.695662 0.424742 -2.33476e-17)
(-0.418103 -0.233166 4.88588e-17)
(3.62726 2.29149 0)
(5.39433 3.65613 0)
(5.95224 3.90168 -1.05853e-17)
(6.4693 4.30656 0)
(7.03995 4.66535 0)
(7.59857 5.02538 1.51613e-17)
(8.12236 5.29972 -1.75507e-18)
(8.23849 5.36645 8.51129e-19)
(8.12606 5.2361 4.21964e-19)
(7.76576 4.91032 0)
(6.94535 4.26193 -2.46249e-18)
(5.61155 3.43051 -9.62453e-18)
(4.3293 2.58229 -1.1814e-17)
(3.19531 1.85942 -4.79102e-18)
(2.32221 1.29092 5.8779e-18)
(1.76438 0.981923 -1.37107e-17)
(1.46763 0.856014 2.45396e-17)
(1.20157 0.830954 1.67903e-19)
(0.66941 0.463632 -2.2403e-17)
(-0.434828 -0.257581 -3.38643e-18)
(3.51821 2.35235 0)
(5.30483 3.79798 -1.43053e-17)
(5.8462 4.08 1.16888e-17)
(6.35574 4.47883 0)
(6.91263 4.81766 0)
(7.45559 5.17803 -3.2431e-17)
(7.97859 5.46035 0)
(8.09877 5.53346 0)
(7.993 5.40478 1.96524e-19)
(7.6401 5.08086 1.8303e-18)
(6.83181 4.42533 -1.99899e-17)
(5.51362 3.5802 0)
(4.25717 2.71515 -1.31552e-17)
(3.14706 1.97266 2.0735e-19)
(2.27481 1.38987 -1.91971e-17)
(1.71581 1.08777 7.38392e-18)
(1.46388 0.946536 1.10459e-19)
(1.24932 0.926268 -2.63493e-17)
(0.625382 0.479095 1.19205e-17)
(-0.470597 -0.28969 3.61874e-18)
(3.39008 2.38914 0)
(5.17397 3.87154 -1.57434e-17)
(5.72427 4.16247 1.21658e-17)
(6.22201 4.57948 2.68405e-17)
(6.78031 4.94389 6.04301e-18)
(7.31842 5.31881 -3.75619e-18)
(7.84037 5.60926 3.03505e-18)
(7.96324 5.68687 -8.45068e-18)
(7.86206 5.55841 -2.10593e-19)
(7.5137 5.23634 1.08049e-17)
(6.71609 4.57646 1.66918e-17)
(5.4148 3.722 3.2639e-18)
(4.18333 2.84347 1.89276e-17)
(3.0931 2.08447 1.1721e-17)
(2.28616 1.50733 1.37886e-17)
(1.79595 1.2258 -8.17811e-18)
(1.54082 1.09361 -9.71968e-18)
(1.26938 1.00814 1.15081e-17)
(0.569896 0.471963 -6.55772e-18)
(-0.531164 -0.340856 1.19105e-17)
(3.30115 2.4491 2.10016e-17)
(5.09645 3.996 2.51008e-17)
(5.62568 4.3165 6.34568e-18)
(6.11803 4.73101 4.62087e-20)
(6.66576 5.07916 -2.03924e-17)
(7.1904 5.45255 9.22084e-18)
(7.70995 5.7467 -3.24766e-18)
(7.83397 5.8276 4.66741e-20)
(7.73555 5.69927 -3.13942e-19)
(7.39018 5.37888 -1.23309e-17)
(6.60316 4.7161 1.00111e-18)
(5.31951 3.85537 0)
(4.1105 2.96656 0)
(3.03909 2.1953 -6.13058e-18)
(2.23068 1.61109 -2.26525e-17)
(1.72263 1.32227 1.76732e-17)
(1.50942 1.16947 1.07188e-17)
(1.26609 1.08302 0)
(0.511168 0.451528 2.13851e-17)
(-0.548447 -0.455215 -1.29885e-17)
(3.19862 2.48304 -1.10599e-17)
(4.98133 4.06014 9.2431e-18)
(5.52053 4.39003 -1.40167e-17)
(6.00241 4.82156 -1.60034e-17)
(6.54993 5.19325 -7.48448e-18)
(7.07019 5.579 2.68695e-18)
(7.58725 5.8776 0)
(7.71146 5.96029 1.03285e-17)
(7.61461 5.83058 -5.27148e-19)
(7.27069 5.5103 0)
(6.49427 4.84517 0)
(5.22849 3.98041 2.2979e-18)
(4.03963 3.08556 3.12344e-18)
(2.97909 2.30707 -6.62285e-18)
(2.2203 1.73809 1.62639e-17)
(1.76479 1.47706 -1.90312e-17)
(1.53712 1.30071 -2.28054e-17)
(1.23996 1.07747 1.82897e-17)
(0.421105 0.385657 -7.86592e-18)
(-0.431479 -0.548923 4.62307e-18)
(3.12661 2.54409 1.20814e-17)
(4.91781 4.17263 0)
(5.43483 4.52384 0)
(5.91214 4.95441 -5.32252e-18)
(6.45172 5.31485 4.30255e-18)
(6.96166 5.70118 -1.94734e-19)
(7.47582 6.0028 -1.11727e-17)
(7.59991 6.08694 -1.2098e-17)
(7.50397 5.95597 2.47046e-19)
(7.16068 5.6351 -1.22074e-18)
(6.39379 4.96674 2.91792e-18)
(5.14449 4.09801 -2.01103e-17)
(3.97231 3.19946 -2.04962e-17)
(2.92412 2.41948 -3.52767e-18)
(2.15543 1.86419 0)
(1.64651 1.59066 -1.582e-19)
(1.43727 1.38288 1.23098e-17)
(1.16292 1.08604 -2.04579e-17)
(0.417513 0.127531 1.68751e-17)
(-0.369986 -0.573269 1.50193e-17)
(3.04745 2.57522 -2.5826e-17)
(4.82045 4.22862 -1.06407e-17)
(5.34692 4.58964 7.93256e-20)
(5.81479 5.03566 6.19707e-18)
(6.35422 5.41878 0)
(6.86163 5.81943 2.20138e-17)
(7.3734 6.12708 1.38713e-17)
(7.49602 6.21328 -1.31549e-18)
(7.39978 6.08097 2.07887e-19)
(7.0559 5.75883 -1.19888e-18)
(6.29796 5.08734 1.11058e-18)
(5.06383 4.21443 1.76168e-17)
(3.90635 3.31452 1.98735e-17)
(2.8637 2.54034 3.41672e-18)
(2.12222 2.01956 1.70377e-17)
(1.67349 1.76832 0)
(1.37202 1.54517 0)
(0.897384 1.02004 1.39088e-17)
(0.00739075 0.327725 -1.3977e-19)
(-0.197347 0.992916 -1.58004e-17)
(2.99451 2.63805 1.38151e-17)
(4.77119 4.33241 3.29481e-17)
(5.27392 4.70795 -5.10032e-17)
(5.73666 5.15355 3.19345e-17)
(6.2701 5.52987 -4.13715e-18)
(6.76876 5.93514 2.70787e-17)
(7.27638 6.24936 0)
(7.39737 6.3389 1.13063e-17)
(7.30043 6.20697 0)
(6.95621 5.88547 1.28812e-17)
(6.20699 5.21181 -1.76763e-18)
(4.98802 4.3351 1.97653e-18)
(3.8443 3.43604 2.29447e-17)
(2.81201 2.67468 -7.273e-18)
(2.06045 2.19653 -8.74118e-18)
(1.52099 2.0054 0)
(1.12251 1.78817 0)
(0.520162 1.31473 0)
(0.153567 1.42332 -8.23714e-18)
(0.153227 2.50242 -4.86129e-18)
(2.93764 2.66983 0)
(4.68904 4.38152 0)
(5.19914 4.76689 1.80978e-17)
(5.65245 5.22503 -2.67621e-17)
(6.18635 5.62312 1.91185e-17)
(6.68174 6.04504 -2.48995e-17)
(7.1847 6.36872 -1.44778e-18)
(7.30173 6.46262 1.11668e-18)
(7.20338 6.3316 4.11489e-19)
(6.85931 6.01162 -1.47046e-17)
(6.12015 5.33802 2.89146e-18)
(4.91733 4.45885 1.81477e-17)
(3.78603 3.56289 -2.28767e-17)
(2.75776 2.82337 -2.4799e-17)
(2.02236 2.40689 8.39948e-18)
(1.53717 2.22991 0)
(1.06598 1.93794 1.15181e-17)
(0.696007 1.71855 1.35098e-17)
(0.39904 2.58557 -1.63435e-17)
(0.408663 3.00469 1.93167e-17)
(2.89927 2.73295 0)
(4.65103 4.47866 2.54374e-17)
(5.13688 4.87237 -4.67445e-18)
(5.58537 5.33012 3.24146e-17)
(6.11375 5.72258 -2.00849e-17)
(6.59877 6.15045 0)
(7.09486 6.48301 0)
(7.20899 6.5824 0)
(7.10961 6.45368 -1.89263e-18)
(6.76679 6.13716 2.85787e-19)
(6.03852 5.46545 0)
(4.85404 4.58629 -1.79304e-17)
(3.73467 3.69495 0)
(2.72511 2.98215 1.77878e-17)
(2.01094 2.62437 -1.22955e-17)
(1.48078 2.51128 -9.71171e-18)
(0.936512 2.30465 -2.26737e-17)
(0.652249 2.47223 -1.35698e-17)
(0.592138 3.12625 -2.22765e-17)
(0.583909 3.2913 1.91416e-17)
(2.85934 2.76632 -8.3864e-18)
(4.58292 4.52317 1.5925e-19)
(5.07562 4.92767 -4.87685e-18)
(5.5161 5.3961 -2.57103e-17)
(6.04318 5.80783 0)
(6.52128 6.25129 0)
(7.00978 6.59439 0)
(7.11842 6.69977 -5.53702e-19)
(7.01727 6.57371 1.96441e-18)
(6.67597 6.26096 0)
(5.95987 5.59302 0)
(4.79536 4.71627 0)
(3.68883 3.83127 0)
(2.69839 3.15375 1.3673e-17)
(2.01519 2.86682 3.3136e-17)
(1.53323 2.74793 9.65442e-18)
(1.23225 2.57264 2.19115e-17)
(0.972746 3.01546 -1.93843e-17)
(0.845922 3.47705 7.34824e-18)
(0.686519 3.54413 0)
(2.82717 2.82355 8.15783e-18)
(4.55557 4.61636 -5.09043e-17)
(5.02533 5.02807 -1.47903e-17)
(5.46061 5.49665 -3.74109e-18)
(5.97997 5.90228 4.75561e-18)
(6.44397 6.34951 -3.41247e-17)
(6.92354 6.70156 2.35518e-18)
(7.02835 6.8142 1.46697e-17)
(6.92654 6.69221 0)
(6.58796 6.38454 -1.12204e-18)
(5.88421 5.72081 1.02445e-18)
(4.74046 4.84709 0)
(3.65023 3.96967 0)
(2.69887 3.33037 -1.7081e-17)
(2.06781 3.08812 3.38195e-18)
(1.56989 2.98467 -9.50822e-18)
(1.1807 3.01656 2.18981e-17)
(0.929132 3.52505 1.89604e-17)
(0.802105 3.74041 -3.27367e-17)
(0.677654 3.75956 1.70911e-17)
(2.79207 2.84754 1.51874e-17)
(4.49049 4.65373 4.72666e-17)
(4.9666 5.08073 1.8058e-17)
(5.39419 5.56164 0)
(5.90899 5.98543 0)
(6.36219 6.44587 2.57868e-17)
(6.83337 6.80801 -1.55997e-17)
(6.93368 6.9288 -1.34512e-17)
(6.83199 6.81141 -4.53309e-19)
(6.49721 6.50849 9.9115e-18)
(5.80717 5.84909 -2.10218e-17)
(4.68598 4.97821 0)
(3.6185 4.1098 0)
(2.71067 3.51339 -1.26647e-17)
(2.11315 3.33302 -1.56603e-17)
(1.66457 3.28491 0)
(1.36508 3.33102 -3.15029e-17)
(1.21246 3.82179 -5.75079e-18)
(1.07093 4.07483 3.35835e-17)
(0.832134 4.08905 -1.68455e-17)
(2.75261 2.89726 -2.85925e-17)
(4.45842 4.74668 -2.23635e-17)
(4.90706 5.18031 0)
(5.32754 5.66074 0)
(5.83095 6.07687 0)
(6.26894 6.53946 0)
(6.73248 6.91019 1.65744e-17)
(6.83102 7.04059 -1.56579e-17)
(6.73198 6.92935 0)
(6.40327 6.6322 -8.72589e-18)
(5.72804 5.97673 3.81598e-17)
(4.63235 5.10803 1.70666e-18)
(3.59556 4.25019 2.61556e-18)
(2.74173 3.6957 2.16384e-17)
(2.19706 3.55368 -1.42421e-17)
(1.76384 3.49779 0)
(1.48918 3.69525 1.0074e-17)
(1.2904 4.26966 4.58388e-19)
(0.909196 4.35918 -5.457e-18)
(0.576715 4.43912 1.02906e-17)
(2.70973 2.90698 1.34497e-17)
(4.37494 4.76783 -2.11885e-17)
(4.8298 5.22224 0)
(5.23944 5.71522 -5.89529e-18)
(5.73709 6.15211 2.25786e-17)
(6.16453 6.62889 0)
(6.62213 7.01001 0)
(6.71922 7.15021 2.8184e-17)
(6.62395 7.04525 -8.90788e-20)
(6.30246 6.75336 8.23779e-18)
(5.64422 6.10178 -1.81175e-17)
(4.57953 5.23596 1.29824e-17)
(3.58047 4.38949 0)
(2.7839 3.87669 -1.19745e-17)
(2.2741 3.77587 7.26338e-18)
(1.88994 3.78431 8.02965e-18)
(1.67396 4.06835 0)
(1.45105 4.48694 5.22779e-18)
(1.06485 4.8989 9.30222e-18)
(0.953459 5.05928 2.64457e-18)
(2.65359 2.95563 -2.51689e-17)
(4.32498 4.8595 3.01228e-17)
(4.74854 5.316 2.3013e-17)
(5.1488 5.8066 -6.08618e-18)
(5.6338 6.23563 -3.40863e-17)
(6.04738 6.71523 0)
(6.50043 7.10535 1.27873e-17)
(6.5986 7.25559 -1.14561e-17)
(6.50895 7.15707 -9.39719e-19)
(6.19676 6.87109 -7.18523e-18)
(5.55792 6.22346 -7.9206e-19)
(4.52867 5.36033 -1.44959e-17)
(3.57312 4.52483 1.8048e-17)
(2.83762 4.05031 5.59584e-18)
(2.3837 3.9822 -1.29757e-17)
(2.04 3.99553 1.48237e-17)
(1.87907 4.24291 0)
(1.7013 4.98542 0)
(1.40366 5.31895 2.79805e-18)
(0.506303 5.37448 -7.66311e-18)
(2.59386 2.95178 1.1889e-17)
(4.21677 4.86884 2.80133e-17)
(4.64862 5.34819 -2.21744e-17)
(5.03721 5.85057 2.21797e-17)
(5.51629 6.30204 3.24723e-17)
(5.92112 6.79809 0)
(6.37056 7.19909 -1.37645e-17)
(6.47029 7.35832 -1.36524e-17)
(6.38688 7.26455 0)
(6.0851 6.9829 0)
(5.46897 6.33938 0)
(4.48055 5.47963 0)
(3.57076 4.65296 -2.05888e-17)
(2.89837 4.21004 -7.9206e-18)
(2.4901 4.16255 0)
(2.19638 4.20005 -7.41462e-18)
(2.14116 4.64186 0)
(2.20304 4.92879 -3.49271e-18)
(2.23713 4.81772 6.49725e-18)
(1.27174 4.86578 -3.72012e-18)
(2.51411 3.00385 -2.2229e-17)
(4.14666 4.96903 -1.76074e-17)
(4.5464 5.44384 -1.36156e-17)