/*--------------------------------*- C++ -*----------------------------------*\
| =========                 |                                                 |
| \\      /  F ield         | OpenFOAM: The Open Source CFD Toolbox           |
|  \\    /   O peration     | Version:  2412                                  |
|   \\  /    A nd           | Website:  www.openfoam.com                      |
|    \\/     M anipulation  |                                                 |
\*---------------------------------------------------------------------------*/
FoamFile
{
    version     2.0;
    format      ascii;
    arch        "LSB;label=32;scalar=64";
    class       surfaceScalarField;
    location    "0.84";
    object      phi;
}
// * * * * * * * * * * * * * * * * * * * * * * * * * * * * * * * * * * * * * //

dimensions      [0 3 -1 0 0 0 0];

oriented        oriented;

internalField   nonuniform List<scalar> 
799
(
2.16022e-05
4.32045e-05
6.48067e-05
8.64088e-05
0.000108011
0.000129613
0.000151214
0.000172816
0.000194417
0.000216018
0.000237619
0.000259219
0.00028082
0.000302419
0.000324019
0.000345617
0.000367216
0.000388814
0.000410411
0.000432008
0.000453605
0.0004752
0.000496795
0.00051839
0.000539984
0.000561577
0.000583169
0.000604761
0.000626352
0.000647941
0.000669531
0.000691119
0.000712706
0.000734292
0.000755878
0.000777462
0.000799046
0.000820628
0.000842209
0.000863789
0.000885368
0.000906946
0.000928523
0.000950098
0.000971672
0.000993245
0.00101482
0.00103639
0.00105796
0.00107952
0.00110109
0.00112265
0.00114422
0.00116578
0.00118734
0.0012089
0.00123045
0.00125201
0.00127356
0.00129511
0.00131666
0.00133821
0.00135976
0.0013813
0.00140284
0.00142439
0.00144592
0.00146746
0.001489
0.00151053
0.00153206
0.00155359
0.00157512
0.00159664
0.00161816
0.00163968
0.0016612
0.00168272
0.00170423
0.00172574
0.00174725
0.00176876
0.00179026
0.00181177
0.00183326
0.00185476
0.00187626
0.00189775
0.00191924
0.00194072
0.00196221
0.00198369
0.00200517
0.00202664
0.00204812
0.00206959
0.00209105
0.00211252
0.00213398
0.00215544
0.00217689
0.00219835
0.0022198
0.00224124
0.00226269
0.00228413
0.00230556
0.002327
0.00234843
0.00236985
0.00239128
0.0024127
0.00243412
0.00245553
0.00247694
0.00249835
0.00251975
0.00254115
0.00256255
0.00258394
0.00260533
0.00262672
0.0026481
0.00266947
0.00269085
0.00271222
0.00273359
0.00275495
0.00277631
0.00279766
0.00281901
0.00284036
0.0028617
0.00288304
0.00290437
0.0029257
0.00294703
0.00296835
0.00298967
0.00301098
0.00303229
0.00305359
0.00307489
0.00309619
0.00311748
0.00313877
0.00316005
0.00318133
0.0032026
0.00322387
0.00324513
0.00326639
0.00328764
0.00330889
0.00333013
0.00335137
0.0033726
0.00339383
0.00341505
0.00343627
0.00345749
0.00347869
0.0034999
0.00352109
0.00354229
0.00356347
0.00358465
0.00360583
0.003627
0.00364817
0.00366933
0.00369048
0.00371163
0.00373277
0.00375391
0.00377504
0.00379616
0.00381728
0.00383839
0.0038595
0.0038806
0.0039017
0.00392279
0.00394387
0.00396495
0.00398602
0.00400708
0.00402814
0.00404919
0.00407024
0.00409127
0.00411231
0.00413333
0.00415435
0.00417536
0.00419637
0.00421737
0.00423836
0.00425934
0.00428032
0.00430129
0.00432226
0.00434322
0.00436417
0.00438511
0.00440604
0.00442697
0.00444789
0.00446881
0.00448971
0.00451061
0.0045315
0.00455239
0.00457326
0.00459413
0.00461499
0.00463585
0.00465669
0.00467753
0.00469836
0.00471918
0.00473999
0.0047608
0.00478159
0.00480238
0.00482316
0.00484394
0.0048647
0.00488545
0.0049062
0.00492694
0.00494767
0.00496839
0.0049891
0.0050098
0.0050305
0.00505118
0.00507186
0.00509252
0.00511318
0.00513383
0.00515447
0.0051751
0.00519572
0.00521633
0.00523693
0.00525752
0.0052781
0.00529868
0.00531924
0.00533979
0.00536033
0.00538087
0.00540139
0.0054219
0.0054424
0.0054629
0.00548338
0.00550385
0.00552431
0.00554476
0.0055652
0.00558562
0.00560604
0.00562645
0.00564684
0.00566723
0.0056876
0.00570796
0.00572831
0.00574865
0.00576898
0.0057893
0.0058096
0.00582989
0.00585018
0.00587045
0.0058907
0.00591095
0.00593118
0.0059514
0.00597161
0.00599181
0.00601199
0.00603216
0.00605232
0.00607246
0.0060926
0.00611272
0.00613282
0.00615292
0.006173
0.00619306
0.00621312
0.00623316
0.00625318
0.00627319
0.00629319
0.00631318
0.00633315
0.0063531
0.00637305
0.00639297
0.00641289
0.00643279
0.00645267
0.00647254
0.00649239
0.00651223
0.00653206
0.00655187
0.00657166
0.00659144
0.0066112
0.00663095
0.00665068
0.00667039
0.00669009
0.00670977
0.00672944
0.00674909
0.00676872
0.00678834
0.00680794
0.00682752
0.00684709
0.00686664
0.00688617
0.00690568
0.00692518
0.00694465
0.00696411
0.00698356
0.00700298
0.00702238
0.00704177
0.00706114
0.00708049
0.00709982
0.00711913
0.00713842
0.00715769
0.00717694
0.00719618
0.00721539
0.00723458
0.00725375
0.00727291
0.00729204
0.00731115
0.00733024
0.00734931
0.00736835
0.00738738
0.00740638
0.00742536
0.00744432
0.00746326
0.00748217
0.00750107
0.00751994
0.00753878
0.00755761
0.0075764
0.00759518
0.00761393
0.00763266
0.00765136
0.00767004
0.0076887
0.00770732
0.00772593
0.00774451
0.00776306
0.00778159
0.00780009
0.00781856
0.00783701
0.00785543
0.00787382
0.00789219
0.00791052
0.00792883
0.00794711
0.00796537
0.00798359
0.00800179
0.00801995
0.00803809
0.00805619
0.00807427
0.00809231
0.00811033
0.00812831
0.00814626
0.00816417
0.00818301
0.00809492
0.00612052
6.2147e-06
-0.00611348
-0.00809409
-0.00818299
-0.00816414
-0.00814624
-0.00812829
-0.0081103
-0.00809229
-0.00807425
-0.00805617
-0.00803806
-0.00801993
-0.00800176
-0.00798357
-0.00796534
-0.00794709
-0.00792881
-0.0079105
-0.00789216
-0.0078738
-0.0078554
-0.00783698
-0.00781854
-0.00780006
-0.00778156
-0.00776304
-0.00774448
-0.0077259
-0.0077073
-0.00768867
-0.00767002
-0.00765134
-0.00763264
-0.00761391
-0.00759516
-0.00757638
-0.00755758
-0.00753876
-0.00751991
-0.00750104
-0.00748215
-0.00746324
-0.0074443
-0.00742534
-0.00740636
-0.00738735
-0.00736833
-0.00734928
-0.00733021
-0.00731112
-0.00729201
-0.00727288
-0.00725373
-0.00723456
-0.00721537
-0.00719615
-0.00717692
-0.00715767
-0.0071384
-0.00711911
-0.00709979
-0.00708046
-0.00706112
-0.00704175
-0.00702236
-0.00700296
-0.00698353
-0.00696409
-0.00694463
-0.00692515
-0.00690566
-0.00688615
-0.00686661
-0.00684707
-0.0068275
-0.00680792
-0.00678832
-0.0067687
-0.00674907
-0.00672942
-0.00670975
-0.00669007
-0.00667037
-0.00665066
-0.00663093
-0.00661118
-0.00659142
-0.00657164
-0.00655185
-0.00653204
-0.00651221
-0.00649237
-0.00647252
-0.00645265
-0.00643277
-0.00641287
-0.00639295
-0.00637303
-0.00635309
-0.00633313
-0.00631316
-0.00629317
-0.00627318
-0.00625316
-0.00623314
-0.0062131
-0.00619304
-0.00617298
-0.0061529
-0.0061328
-0.0061127
-0.00609258
-0.00607245
-0.0060523
-0.00603214
-0.00601197
-0.00599179
-0.00597159
-0.00595138
-0.00593116
-0.00591093
-0.00589068
-0.00587043
-0.00585016
-0.00582988
-0.00580958
-0.00578928
-0.00576896
-0.00574864
-0.0057283
-0.00570795
-0.00568758
-0.00566721
-0.00564683
-0.00562643
-0.00560603
-0.00558561
-0.00556518
-0.00554474
-0.00552429
-0.00550383
-0.00548336
-0.00546288
-0.00544239
-0.00542189
-0.00540137
-0.00538085
-0.00536032
-0.00533978
-0.00531922
-0.00529866
-0.00527809
-0.00525751
-0.00523692
-0.00521632
-0.0051957
-0.00517508
-0.00515445
-0.00513382
-0.00511317
-0.00509251
-0.00507184
-0.00505117
-0.00503048
-0.00500979
-0.00498909
-0.00496837
-0.00494765
-0.00492692
-0.00490619
-0.00488544
-0.00486469
-0.00484392
-0.00482315
-0.00480237
-0.00478158
-0.00476078
-0.00473998
-0.00471917
-0.00469835
-0.00467752
-0.00465668
-0.00463583
-0.00461498
-0.00459412
-0.00457325
-0.00455238
-0.00453149
-0.0045106
-0.0044897
-0.0044688
-0.00444788
-0.00442696
-0.00440603
-0.0043851
-0.00436415
-0.0043432
-0.00432225
-0.00430128
-0.00428031
-0.00425933
-0.00423835
-0.00421736
-0.00419636
-0.00417535
-0.00415434
-0.00413332
-0.0041123
-0.00409126
-0.00407023
-0.00404918
-0.00402813
-0.00400707
-0.00398601
-0.00396494
-0.00394386
-0.00392278
-0.00390169
-0.00388059
-0.00385949
-0.00383839
-0.00381727
-0.00379615
-0.00377503
-0.0037539
-0.00373276
-0.00371162
-0.00369047
-0.00366932
-0.00364816
-0.00362699
-0.00360582
-0.00358465
-0.00356347
-0.00354228
-0.00352109
-0.00349989
-0.00347869
-0.00345748
-0.00343627
-0.00341505
-0.00339382
-0.0033726
-0.00335136
-0.00333012
-0.00330888
-0.00328763
-0.00326638
-0.00324512
-0.00322386
-0.00320259
-0.00318132
-0.00316004
-0.00313876
-0.00311748
-0.00309618
-0.00307489
-0.00305359
-0.00303229
-0.00301098
-0.00298966
-0.00296835
-0.00294702
-0.0029257
-0.00290437
-0.00288303
-0.0028617
-0.00284035
-0.00281901
-0.00279766
-0.0027763
-0.00275494
-0.00273358
-0.00271221
-0.00269084
-0.00266947
-0.00264809
-0.00262671
-0.00260533
-0.00258394
-0.00256254
-0.00254115
-0.00251975
-0.00249834
-0.00247694
-0.00245553
-0.00243411
-0.0024127
-0.00239128
-0.00236985
-0.00234842
-0.00232699
-0.00230556
-0.00228412
-0.00226268
-0.00224124
-0.00221979
-0.00219834
-0.00217689
-0.00215543
-0.00213398
-0.00211251
-0.00209105
-0.00206958
-0.00204811
-0.00202664
-0.00200516
-0.00198369
-0.0019622
-0.00194072
-0.00191923
-0.00189775
-0.00187625
-0.00185476
-0.00183326
-0.00181176
-0.00179026
-0.00176876
-0.00174725
-0.00172574
-0.00170423
-0.00168272
-0.0016612
-0.00163968
-0.00161816
-0.00159664
-0.00157511
-0.00155359
-0.00153206
-0.00151053
-0.001489
-0.00146746
-0.00144592
-0.00142438
-0.00140284
-0.0013813
-0.00135976
-0.00133821
-0.00131666
-0.00129511
-0.00127356
-0.00125201
-0.00123045
-0.00120889
-0.00118734
-0.00116578
-0.00114422
-0.00112265
-0.00110109
-0.00107952
-0.00105795
-0.00103639
-0.00101482
-0.000993244
-0.000971671
-0.000950097
-0.000928522
-0.000906945
-0.000885368
-0.000863789
-0.000842209
-0.000820627
-0.000799045
-0.000777462
-0.000755877
-0.000734292
-0.000712706
-0.000691118
-0.00066953
-0.000647941
-0.000626351
-0.000604761
-0.000583169
-0.000561577
-0.000539984
-0.00051839
-0.000496795
-0.0004752
-0.000453605
-0.000432008
-0.000410411
-0.000388814
-0.000367216
-0.000345617
-0.000324019
-0.000302419
-0.00028082
-0.000259219
-0.000237619
-0.000216018
-0.000194417
-0.000172816
-0.000151214
-0.000129613
-0.000108011
-8.64089e-05
-6.48068e-05
-4.32046e-05
-2.16023e-05
)
;

boundaryField
{
    left
    {
        type            calculated;
        value           uniform 0;
    }
    right
    {
        type            calculated;
        value           uniform 0;
    }
    frontBackUpDown
    {
        type            empty;
    }
}


// ************************************************************************* //
