/*--------------------------------*- C++ -*----------------------------------*\
| =========                 |                                                 |
| \\      /  F ield         | OpenFOAM: The Open Source CFD Toolbox           |
|  \\    /   O peration     | Version:  2412                                  |
|   \\  /    A nd           | Website:  www.openfoam.com                      |
|    \\/     M anipulation  |                                                 |
\*---------------------------------------------------------------------------*/
FoamFile
{
    version     2.0;
    format      ascii;
    arch        "LSB;label=32;scalar=64";
    class       volVectorField;
    location    "0.84";
    object      U_0;
}
// * * * * * * * * * * * * * * * * * * * * * * * * * * * * * * * * * * * * * //

dimensions      [0 1 -1 0 0 0 0];

internalField   nonuniform List<vector> 
800
(
(0.00108057 0 0)
(0.00324173 0 0)
(0.00540289 0 0)
(0.00756404 0 0)
(0.00972518 0 0)
(0.0118863 0 0)
(0.0140474 0 0)
(0.0162085 0 0)
(0.0183696 0 0)
(0.0205306 0 0)
(0.0226917 0 0)
(0.0248526 0 0)
(0.0270136 0 0)
(0.0291745 0 0)
(0.0313354 0 0)
(0.0334963 0 0)
(0.0356571 0 0)
(0.0378178 0 0)
(0.0399785 0 0)
(0.0421392 0 0)
(0.0442998 0 0)
(0.0464603 0 0)
(0.0486208 0 0)
(0.0507812 0 0)
(0.0529415 0 0)
(0.0551018 0 0)
(0.057262 0 0)
(0.0594221 0 0)
(0.0615822 0 0)
(0.0637421 0 0)
(0.065902 0 0)
(0.0680618 0 0)
(0.0702215 0 0)
(0.0723811 0 0)
(0.0745407 0 0)
(0.0767001 0 0)
(0.0788594 0 0)
(0.0810186 0 0)
(0.0831777 0 0)
(0.0853367 0 0)
(0.0874956 0 0)
(0.0896544 0 0)
(0.091813 0 0)
(0.0939715 0 0)
(0.0961299 0 0)
(0.0982882 0 0)
(0.100446 0 0)
(0.102604 0 0)
(0.104762 0 0)
(0.10692 0 0)
(0.109078 0 0)
(0.111235 0 0)
(0.113392 0 0)
(0.115549 0 0)
(0.117706 0 0)
(0.119863 0 0)
(0.12202 0 0)
(0.124176 0 0)
(0.126333 0 0)
(0.128489 0 0)
(0.130645 0 0)
(0.132801 0 0)
(0.134956 0 0)
(0.137112 0 0)
(0.139267 0 0)
(0.141422 0 0)
(0.143577 0 0)
(0.145732 0 0)
(0.147887 0 0)
(0.150041 0 0)
(0.152195 0 0)
(0.154349 0 0)
(0.156503 0 0)
(0.158656 0 0)
(0.160809 0 0)
(0.162962 0 0)
(0.165115 0 0)
(0.167268 0 0)
(0.16942 0 0)
(0.171572 0 0)
(0.173724 0 0)
(0.175876 0 0)
(0.178028 0 0)
(0.180179 0 0)
(0.18233 0 0)
(0.184481 0 0)
(0.186631 0 0)
(0.188781 0 0)
(0.190931 0 0)
(0.193081 0 0)
(0.19523 0 0)
(0.197379 0 0)
(0.199528 0 0)
(0.201677 0 0)
(0.203825 0 0)
(0.205973 0 0)
(0.208121 0 0)
(0.210269 0 0)
(0.212416 0 0)
(0.214563 0 0)
(0.216709 0 0)
(0.218856 0 0)
(0.221002 0 0)
(0.223147 0 0)
(0.225293 0 0)
(0.227438 0 0)
(0.229583 0 0)
(0.231727 0 0)
(0.233871 0 0)
(0.236015 0 0)
(0.238159 0 0)
(0.240302 0 0)
(0.242445 0 0)
(0.244587 0 0)
(0.246729 0 0)
(0.248871 0 0)
(0.251012 0 0)
(0.253153 0 0)
(0.255294 0 0)
(0.257434 0 0)
(0.259574 0 0)
(0.261714 0 0)
(0.263853 0 0)
(0.265992 0 0)
(0.268131 0 0)
(0.270269 0 0)
(0.272407 0 0)
(0.274544 0 0)
(0.276681 0 0)
(0.278817 0 0)
(0.280954 0 0)
(0.283089 0 0)
(0.285225 0 0)
(0.28736 0 0)
(0.289494 0 0)
(0.291628 0 0)
(0.293762 0 0)
(0.295895 0 0)
(0.298028 0 0)
(0.30016 0 0)
(0.302292 0 0)
(0.304424 0 0)
(0.306555 0 0)
(0.308686 0 0)
(0.310816 0 0)
(0.312945 0 0)
(0.315075 0 0)
(0.317204 0 0)
(0.319332 0 0)
(0.32146 0 0)
(0.323587 0 0)
(0.325714 0 0)
(0.32784 0 0)
(0.329966 0 0)
(0.332092 0 0)
(0.334217 0 0)
(0.336341 0 0)
(0.338465 0 0)
(0.340589 0 0)
(0.342712 0 0)
(0.344834 0 0)
(0.346956 0 0)
(0.349077 0 0)
(0.351198 0 0)
(0.353319 0 0)
(0.355438 0 0)
(0.357558 0 0)
(0.359676 0 0)
(0.361795 0 0)
(0.363912 0 0)
(0.366029 0 0)
(0.368146 0 0)
(0.370262 0 0)
(0.372377 0 0)
(0.374492 0 0)
(0.376606 0 0)
(0.37872 0 0)
(0.380833 0 0)
(0.382945 0 0)
(0.385057 0 0)
(0.387168 0 0)
(0.389279 0 0)
(0.391389 0 0)
(0.393499 0 0)
(0.395607 0 0)
(0.397716 0 0)
(0.399823 0 0)
(0.40193 0 0)
(0.404036 0 0)
(0.406142 0 0)
(0.408247 0 0)
(0.410351 0 0)
(0.412455 0 0)
(0.414558 0 0)
(0.416661 0 0)
(0.418762 0 0)
(0.420863 0 0)
(0.422964 0 0)
(0.425063 0 0)
(0.427162 0 0)
(0.429261 0 0)
(0.431358 0 0)
(0.433455 0 0)
(0.435551 0 0)
(0.437647 0 0)
(0.439742 0 0)
(0.441836 0 0)
(0.443929 0 0)
(0.446021 0 0)
(0.448113 0 0)
(0.450204 0 0)
(0.452295 0 0)
(0.454384 0 0)
(0.456473 0 0)
(0.458561 0 0)
(0.460648 0 0)
(0.462735 0 0)
(0.464821 0 0)
(0.466905 0 0)
(0.46899 0 0)
(0.471073 0 0)
(0.473155 0 0)
(0.475237 0 0)
(0.477318 0 0)
(0.479398 0 0)
(0.481477 0 0)
(0.483556 0 0)
(0.485633 0 0)
(0.48771 0 0)
(0.489786 0 0)
(0.491861 0 0)
(0.493935 0 0)
(0.496008 0 0)
(0.49808 0 0)
(0.500152 0 0)
(0.502223 0 0)
(0.504292 0 0)
(0.506361 0 0)
(0.508429 0 0)
(0.510496 0 0)
(0.512562 0 0)
(0.514627 0 0)
(0.516691 0 0)
(0.518755 0 0)
(0.520817 0 0)
(0.522878 0 0)
(0.524939 0 0)
(0.526998 0 0)
(0.529057 0 0)
(0.531114 0 0)
(0.533171 0 0)
(0.535226 0 0)
(0.537281 0 0)
(0.539334 0 0)
(0.541387 0 0)
(0.543438 0 0)
(0.545488 0 0)
(0.547538 0 0)
(0.549586 0 0)
(0.551633 0 0)
(0.55368 0 0)
(0.555725 0 0)
(0.557769 0 0)
(0.559812 0 0)
(0.561854 0 0)
(0.563894 0 0)
(0.565934 0 0)
(0.567973 0 0)
(0.57001 0 0)
(0.572047 0 0)
(0.574082 0 0)
(0.576116 0 0)
(0.578149 0 0)
(0.58018 0 0)
(0.582211 0 0)
(0.58424 0 0)
(0.586269 0 0)
(0.588296 0 0)
(0.590321 0 0)
(0.592346 0 0)
(0.594369 0 0)
(0.596391 0 0)
(0.598412 0 0)
(0.600432 0 0)
(0.60245 0 0)
(0.604468 0 0)
(0.606483 0 0)
(0.608498 0 0)
(0.610511 0 0)
(0.612523 0 0)
(0.614534 0 0)
(0.616543 0 0)
(0.618551 0 0)
(0.620558 0 0)
(0.622563 0 0)
(0.624567 0 0)
(0.62657 0 0)
(0.628571 0 0)
(0.630571 0 0)
(0.632569 0 0)
(0.634566 0 0)
(0.636561 0 0)
(0.638556 0 0)
(0.640548 0 0)
(0.642539 0 0)
(0.644529 0 0)
(0.646517 0 0)
(0.648504 0 0)
(0.650489 0 0)
(0.652473 0 0)
(0.654456 0 0)
(0.656436 0 0)
(0.658415 0 0)
(0.660393 0 0)
(0.662369 0 0)
(0.664343 0 0)
(0.666316 0 0)
(0.668288 0 0)
(0.670257 0 0)
(0.672225 0 0)
(0.674192 0 0)
(0.676156 0 0)
(0.678119 0 0)
(0.680081 0 0)
(0.68204 0 0)
(0.683998 0 0)
(0.685954 0 0)
(0.687909 0 0)
(0.689862 0 0)
(0.691813 0 0)
(0.693762 0 0)
(0.695709 0 0)
(0.697655 0 0)
(0.699599 0 0)
(0.70154 0 0)
(0.703481 0 0)
(0.705419 0 0)
(0.707355 0 0)
(0.70929 0 0)
(0.711222 0 0)
(0.713153 0 0)
(0.715081 0 0)
(0.717008 0 0)
(0.718933 0 0)
(0.720855 0 0)
(0.722776 0 0)
(0.724695 0 0)
(0.726611 0 0)
(0.728526 0 0)
(0.730439 0 0)
(0.732349 0 0)
(0.734257 0 0)
(0.736163 0 0)
(0.738067 0 0)
(0.739969 0 0)
(0.741869 0 0)
(0.743766 0 0)
(0.745662 0 0)
(0.747555 0 0)
(0.749445 0 0)
(0.751334 0 0)
(0.75322 0 0)
(0.755104 0 0)
(0.756985 0 0)
(0.758864 0 0)
(0.760741 0 0)
(0.762615 0 0)
(0.764487 0 0)
(0.766357 0 0)
(0.768224 0 0)
(0.770088 0 0)
(0.77195 0 0)
(0.77381 0 0)
(0.775666 0 0)
(0.777521 0 0)
(0.779372 0 0)
(0.781221 0 0)
(0.783068 0 0)
(0.784911 0 0)
(0.786752 0 0)
(0.78859 0 0)
(0.790426 0 0)
(0.792258 0 0)
(0.794088 0 0)
(0.795915 0 0)
(0.797739 0 0)
(0.79956 0 0)
(0.801379 0 0)
(0.803194 0 0)
(0.805006 0 0)
(0.806815 0 0)
(0.808622 0 0)
(0.810425 0 0)
(0.812225 0 0)
(0.814021 0 0)
(0.815815 0 0)
(0.817602 0 0)
(0.819587 0 0)
(0.800072 0 0)
(0.424714 0 0)
(-0.42347 0 0)
(-0.799907 0 0)
(-0.819586 0 0)
(-0.8176 0 0)
(-0.815813 0 0)
(-0.814019 0 0)
(-0.812222 0 0)
(-0.810422 0 0)
(-0.808619 0 0)
(-0.806813 0 0)
(-0.805004 0 0)
(-0.803191 0 0)
(-0.801376 0 0)
(-0.799558 0 0)
(-0.797737 0 0)
(-0.795913 0 0)
(-0.794086 0 0)
(-0.792256 0 0)
(-0.790423 0 0)
(-0.788588 0 0)
(-0.78675 0 0)
(-0.784909 0 0)
(-0.783065 0 0)
(-0.781219 0 0)
(-0.77937 0 0)
(-0.777518 0 0)
(-0.775664 0 0)
(-0.773807 0 0)
(-0.771948 0 0)
(-0.770086 0 0)
(-0.768221 0 0)
(-0.766354 0 0)
(-0.764485 0 0)
(-0.762613 0 0)
(-0.760739 0 0)
(-0.758862 0 0)
(-0.756983 0 0)
(-0.755101 0 0)
(-0.753218 0 0)
(-0.751331 0 0)
(-0.749443 0 0)
(-0.747552 0 0)
(-0.745659 0 0)
(-0.743764 0 0)
(-0.741867 0 0)
(-0.739967 0 0)
(-0.738065 0 0)
(-0.736161 0 0)
(-0.734255 0 0)
(-0.732347 0 0)
(-0.730436 0 0)
(-0.728524 0 0)
(-0.726609 0 0)
(-0.724693 0 0)
(-0.722774 0 0)
(-0.720853 0 0)
(-0.71893 0 0)
(-0.717006 0 0)
(-0.715079 0 0)
(-0.71315 0 0)
(-0.71122 0 0)
(-0.709287 0 0)
(-0.707353 0 0)
(-0.705416 0 0)
(-0.703478 0 0)
(-0.701538 0 0)
(-0.699596 0 0)
(-0.697653 0 0)
(-0.695707 0 0)
(-0.69376 0 0)
(-0.69181 0 0)
(-0.689859 0 0)
(-0.687907 0 0)
(-0.685952 0 0)
(-0.683996 0 0)
(-0.682038 0 0)
(-0.680078 0 0)
(-0.678117 0 0)
(-0.676154 0 0)
(-0.674189 0 0)
(-0.672223 0 0)
(-0.670255 0 0)
(-0.668285 0 0)
(-0.666314 0 0)
(-0.664341 0 0)
(-0.662367 0 0)
(-0.660391 0 0)
(-0.658413 0 0)
(-0.656434 0 0)
(-0.654453 0 0)
(-0.652471 0 0)
(-0.650487 0 0)
(-0.648502 0 0)
(-0.646515 0 0)
(-0.644527 0 0)
(-0.642537 0 0)
(-0.640546 0 0)
(-0.638554 0 0)
(-0.636559 0 0)
(-0.634564 0 0)
(-0.632567 0 0)
(-0.630569 0 0)
(-0.628569 0 0)
(-0.626568 0 0)
(-0.624565 0 0)
(-0.622561 0 0)
(-0.620556 0 0)
(-0.618549 0 0)
(-0.616541 0 0)
(-0.614532 0 0)
(-0.612521 0 0)
(-0.610509 0 0)
(-0.608496 0 0)
(-0.606481 0 0)
(-0.604466 0 0)
(-0.602449 0 0)
(-0.60043 0 0)
(-0.598411 0 0)
(-0.59639 0 0)
(-0.594368 0 0)
(-0.592344 0 0)
(-0.59032 0 0)
(-0.588294 0 0)
(-0.586267 0 0)
(-0.584239 0 0)
(-0.582209 0 0)
(-0.580179 0 0)
(-0.578147 0 0)
(-0.576114 0 0)
(-0.57408 0 0)
(-0.572045 0 0)
(-0.570009 0 0)
(-0.567971 0 0)
(-0.565933 0 0)
(-0.563893 0 0)
(-0.561852 0 0)
(-0.55981 0 0)
(-0.557767 0 0)
(-0.555723 0 0)
(-0.553678 0 0)
(-0.551632 0 0)
(-0.549584 0 0)
(-0.547536 0 0)
(-0.545487 0 0)
(-0.543436 0 0)
(-0.541385 0 0)
(-0.539332 0 0)
(-0.537279 0 0)
(-0.535225 0 0)
(-0.533169 0 0)
(-0.531113 0 0)
(-0.529055 0 0)
(-0.526997 0 0)
(-0.524937 0 0)
(-0.522877 0 0)
(-0.520816 0 0)
(-0.518753 0 0)
(-0.51669 0 0)
(-0.514626 0 0)
(-0.512561 0 0)
(-0.510495 0 0)
(-0.508428 0 0)
(-0.50636 0 0)
(-0.504291 0 0)
(-0.502221 0 0)
(-0.500151 0 0)
(-0.498079 0 0)
(-0.496007 0 0)
(-0.493934 0 0)
(-0.491859 0 0)
(-0.489784 0 0)
(-0.487709 0 0)
(-0.485632 0 0)
(-0.483554 0 0)
(-0.481476 0 0)
(-0.479397 0 0)
(-0.477317 0 0)
(-0.475236 0 0)
(-0.473154 0 0)
(-0.471072 0 0)
(-0.468988 0 0)
(-0.466904 0 0)
(-0.464819 0 0)
(-0.462734 0 0)
(-0.460647 0 0)
(-0.45856 0 0)
(-0.456472 0 0)
(-0.454383 0 0)
(-0.452294 0 0)
(-0.450203 0 0)
(-0.448112 0 0)
(-0.44602 0 0)
(-0.443928 0 0)
(-0.441835 0 0)
(-0.43974 0 0)
(-0.437646 0 0)
(-0.43555 0 0)
(-0.433454 0 0)
(-0.431357 0 0)
(-0.42926 0 0)
(-0.427161 0 0)
(-0.425062 0 0)
(-0.422963 0 0)
(-0.420862 0 0)
(-0.418761 0 0)
(-0.41666 0 0)
(-0.414557 0 0)
(-0.412454 0 0)
(-0.41035 0 0)
(-0.408246 0 0)
(-0.406141 0 0)
(-0.404035 0 0)
(-0.401929 0 0)
(-0.399822 0 0)
(-0.397715 0 0)
(-0.395606 0 0)
(-0.393498 0 0)
(-0.391388 0 0)
(-0.389278 0 0)
(-0.387168 0 0)
(-0.385056 0 0)
(-0.382944 0 0)
(-0.380832 0 0)
(-0.378719 0 0)
(-0.376605 0 0)
(-0.374491 0 0)
(-0.372376 0 0)
(-0.370261 0 0)
(-0.368145 0 0)
(-0.366028 0 0)
(-0.363911 0 0)
(-0.361794 0 0)
(-0.359676 0 0)
(-0.357557 0 0)
(-0.355438 0 0)
(-0.353318 0 0)
(-0.351198 0 0)
(-0.349077 0 0)
(-0.346955 0 0)
(-0.344833 0 0)
(-0.342711 0 0)
(-0.340588 0 0)
(-0.338465 0 0)
(-0.336341 0 0)
(-0.334216 0 0)
(-0.332091 0 0)
(-0.329966 0 0)
(-0.32784 0 0)
(-0.325713 0 0)
(-0.323587 0 0)
(-0.321459 0 0)
(-0.319331 0 0)
(-0.317203 0 0)
(-0.315074 0 0)
(-0.312945 0 0)
(-0.310815 0 0)
(-0.308685 0 0)
(-0.306554 0 0)
(-0.304423 0 0)
(-0.302292 0 0)
(-0.30016 0 0)
(-0.298027 0 0)
(-0.295895 0 0)
(-0.293761 0 0)
(-0.291628 0 0)
(-0.289494 0 0)
(-0.287359 0 0)
(-0.285224 0 0)
(-0.283089 0 0)
(-0.280953 0 0)
(-0.278817 0 0)
(-0.27668 0 0)
(-0.274543 0 0)
(-0.272406 0 0)
(-0.270268 0 0)
(-0.26813 0 0)
(-0.265992 0 0)
(-0.263853 0 0)
(-0.261714 0 0)
(-0.259574 0 0)
(-0.257434 0 0)
(-0.255294 0 0)
(-0.253153 0 0)
(-0.251012 0 0)
(-0.24887 0 0)
(-0.246729 0 0)
(-0.244587 0 0)
(-0.242444 0 0)
(-0.240301 0 0)
(-0.238158 0 0)
(-0.236015 0 0)
(-0.233871 0 0)
(-0.231727 0 0)
(-0.229582 0 0)
(-0.227438 0 0)
(-0.225293 0 0)
(-0.223147 0 0)
(-0.221001 0 0)
(-0.218855 0 0)
(-0.216709 0 0)
(-0.214563 0 0)
(-0.212416 0 0)
(-0.210268 0 0)
(-0.208121 0 0)
(-0.205973 0 0)
(-0.203825 0 0)
(-0.201677 0 0)
(-0.199528 0 0)
(-0.197379 0 0)
(-0.19523 0 0)
(-0.193081 0 0)
(-0.190931 0 0)
(-0.188781 0 0)
(-0.186631 0 0)
(-0.18448 0 0)
(-0.18233 0 0)
(-0.180179 0 0)
(-0.178027 0 0)
(-0.175876 0 0)
(-0.173724 0 0)
(-0.171572 0 0)
(-0.16942 0 0)
(-0.167268 0 0)
(-0.165115 0 0)
(-0.162962 0 0)
(-0.160809 0 0)
(-0.158656 0 0)
(-0.156502 0 0)
(-0.154349 0 0)
(-0.152195 0 0)
(-0.150041 0 0)
(-0.147886 0 0)
(-0.145732 0 0)
(-0.143577 0 0)
(-0.141422 0 0)
(-0.139267 0 0)
(-0.137112 0 0)
(-0.134956 0 0)
(-0.132801 0 0)
(-0.130645 0 0)
(-0.128489 0 0)
(-0.126333 0 0)
(-0.124176 0 0)
(-0.12202 0 0)
(-0.119863 0 0)
(-0.117706 0 0)
(-0.115549 0 0)
(-0.113392 0 0)
(-0.111235 0 0)
(-0.109077 0 0)
(-0.10692 0 0)
(-0.104762 0 0)
(-0.102604 0 0)
(-0.100446 0 0)
(-0.0982881 0 0)
(-0.0961299 0 0)
(-0.0939715 0 0)
(-0.0918129 0 0)
(-0.0896543 0 0)
(-0.0874955 0 0)
(-0.0853367 0 0)
(-0.0831777 0 0)
(-0.0810186 0 0)
(-0.0788593 0 0)
(-0.0767 0 0)
(-0.0745406 0 0)
(-0.0723811 0 0)
(-0.0702215 0 0)
(-0.0680618 0 0)
(-0.065902 0 0)
(-0.0637421 0 0)
(-0.0615821 0 0)
(-0.0594221 0 0)
(-0.057262 0 0)
(-0.0551018 0 0)
(-0.0529415 0 0)
(-0.0507812 0 0)
(-0.0486207 0 0)
(-0.0464603 0 0)
(-0.0442997 0 0)
(-0.0421391 0 0)
(-0.0399785 0 0)
(-0.0378178 0 0)
(-0.035657 0 0)
(-0.0334962 0 0)
(-0.0313354 0 0)
(-0.0291745 0 0)
(-0.0270136 0 0)
(-0.0248526 0 0)
(-0.0226917 0 0)
(-0.0205306 0 0)
(-0.0183696 0 0)
(-0.0162085 0 0)
(-0.0140474 0 0)
(-0.0118863 0 0)
(-0.00972519 0 0)
(-0.00756405 0 0)
(-0.0054029 0 0)
(-0.00324174 0 0)
(-0.00108058 0 0)
)
;

boundaryField
{
    left
    {
        type            fixedValue;
        value           uniform (0 0 0);
    }
    right
    {
        type            fixedValue;
        value           uniform (0 0 0);
    }
    frontBackUpDown
    {
        type            empty;
    }
}


// ************************************************************************* //
