/*--------------------------------*- C++ -*----------------------------------*\
| =========                 |                                                 |
| \\      /  F ield         | OpenFOAM: The Open Source CFD Toolbox           |
|  \\    /   O peration     | Version:  2412                                  |
|   \\  /    A nd           | Website:  www.openfoam.com                      |
|    \\/     M anipulation  |                                                 |
\*---------------------------------------------------------------------------*/
FoamFile
{
    version     2.0;
    format      ascii;
    arch        "LSB;label=32;scalar=64";
    class       volVectorField;
    location    "0.84";
    object      U_0_0_0;
}
// * * * * * * * * * * * * * * * * * * * * * * * * * * * * * * * * * * * * * //

dimensions      [0 1 -1 0 0 0 0];

internalField   nonuniform List<vector> 
800
(
(0.0010815 0 0)
(0.00324453 0 0)
(0.00540755 0 0)
(0.00757057 0 0)
(0.00973357 0 0)
(0.0118966 0 0)
(0.0140595 0 0)
(0.0162225 0 0)
(0.0183854 0 0)
(0.0205484 0 0)
(0.0227112 0 0)
(0.0248741 0 0)
(0.0270369 0 0)
(0.0291997 0 0)
(0.0313625 0 0)
(0.0335252 0 0)
(0.0356878 0 0)
(0.0378504 0 0)
(0.040013 0 0)
(0.0421755 0 0)
(0.044338 0 0)
(0.0465004 0 0)
(0.0486627 0 0)
(0.050825 0 0)
(0.0529872 0 0)
(0.0551493 0 0)
(0.0573114 0 0)
(0.0594734 0 0)
(0.0616353 0 0)
(0.0637971 0 0)
(0.0659589 0 0)
(0.0681205 0 0)
(0.0702821 0 0)
(0.0724436 0 0)
(0.074605 0 0)
(0.0767662 0 0)
(0.0789274 0 0)
(0.0810885 0 0)
(0.0832494 0 0)
(0.0854103 0 0)
(0.087571 0 0)
(0.0897317 0 0)
(0.0918922 0 0)
(0.0940526 0 0)
(0.0962128 0 0)
(0.0983729 0 0)
(0.100533 0 0)
(0.102693 0 0)
(0.104853 0 0)
(0.107012 0 0)
(0.109172 0 0)
(0.111331 0 0)
(0.11349 0 0)
(0.115649 0 0)
(0.117808 0 0)
(0.119967 0 0)
(0.122125 0 0)
(0.124283 0 0)
(0.126442 0 0)
(0.1286 0 0)
(0.130758 0 0)
(0.132915 0 0)
(0.135073 0 0)
(0.13723 0 0)
(0.139387 0 0)
(0.141544 0 0)
(0.143701 0 0)
(0.145857 0 0)
(0.148014 0 0)
(0.15017 0 0)
(0.152326 0 0)
(0.154482 0 0)
(0.156637 0 0)
(0.158793 0 0)
(0.160948 0 0)
(0.163103 0 0)
(0.165257 0 0)
(0.167412 0 0)
(0.169566 0 0)
(0.17172 0 0)
(0.173874 0 0)
(0.176027 0 0)
(0.178181 0 0)
(0.180334 0 0)
(0.182486 0 0)
(0.184639 0 0)
(0.186791 0 0)
(0.188943 0 0)
(0.191095 0 0)
(0.193247 0 0)
(0.195398 0 0)
(0.197549 0 0)
(0.1997 0 0)
(0.20185 0 0)
(0.204 0 0)
(0.20615 0 0)
(0.2083 0 0)
(0.210449 0 0)
(0.212598 0 0)
(0.214747 0 0)
(0.216895 0 0)
(0.219043 0 0)
(0.221191 0 0)
(0.223339 0 0)
(0.225486 0 0)
(0.227633 0 0)
(0.229779 0 0)
(0.231926 0 0)
(0.234072 0 0)
(0.236217 0 0)
(0.238363 0 0)
(0.240507 0 0)
(0.242652 0 0)
(0.244796 0 0)
(0.24694 0 0)
(0.249084 0 0)
(0.251227 0 0)
(0.25337 0 0)
(0.255512 0 0)
(0.257655 0 0)
(0.259796 0 0)
(0.261938 0 0)
(0.264079 0 0)
(0.266219 0 0)
(0.26836 0 0)
(0.2705 0 0)
(0.272639 0 0)
(0.274778 0 0)
(0.276917 0 0)
(0.279055 0 0)
(0.281193 0 0)
(0.283331 0 0)
(0.285468 0 0)
(0.287605 0 0)
(0.289741 0 0)
(0.291877 0 0)
(0.294012 0 0)
(0.296147 0 0)
(0.298282 0 0)
(0.300416 0 0)
(0.30255 0 0)
(0.304683 0 0)
(0.306816 0 0)
(0.308948 0 0)
(0.31108 0 0)
(0.313212 0 0)
(0.315343 0 0)
(0.317473 0 0)
(0.319603 0 0)
(0.321733 0 0)
(0.323862 0 0)
(0.325991 0 0)
(0.328119 0 0)
(0.330247 0 0)
(0.332374 0 0)
(0.334501 0 0)
(0.336627 0 0)
(0.338752 0 0)
(0.340878 0 0)
(0.343002 0 0)
(0.345126 0 0)
(0.34725 0 0)
(0.349373 0 0)
(0.351496 0 0)
(0.353618 0 0)
(0.355739 0 0)
(0.35786 0 0)
(0.359981 0 0)
(0.362101 0 0)
(0.36422 0 0)
(0.366339 0 0)
(0.368457 0 0)
(0.370575 0 0)
(0.372692 0 0)
(0.374808 0 0)
(0.376924 0 0)
(0.37904 0 0)
(0.381154 0 0)
(0.383268 0 0)
(0.385382 0 0)
(0.387495 0 0)
(0.389607 0 0)
(0.391719 0 0)
(0.39383 0 0)
(0.395941 0 0)
(0.398051 0 0)
(0.40016 0 0)
(0.402268 0 0)
(0.404376 0 0)
(0.406484 0 0)
(0.40859 0 0)
(0.410696 0 0)
(0.412802 0 0)
(0.414906 0 0)
(0.417011 0 0)
(0.419114 0 0)
(0.421217 0 0)
(0.423319 0 0)
(0.42542 0 0)
(0.427521 0 0)
(0.429621 0 0)
(0.43172 0 0)
(0.433818 0 0)
(0.435916 0 0)
(0.438013 0 0)
(0.44011 0 0)
(0.442205 0 0)
(0.4443 0 0)
(0.446394 0 0)
(0.448488 0 0)
(0.45058 0 0)
(0.452672 0 0)
(0.454764 0 0)
(0.456854 0 0)
(0.458944 0 0)
(0.461032 0 0)
(0.463121 0 0)
(0.465208 0 0)
(0.467294 0 0)
(0.46938 0 0)
(0.471465 0 0)
(0.473549 0 0)
(0.475632 0 0)
(0.477715 0 0)
(0.479796 0 0)
(0.481877 0 0)
(0.483957 0 0)
(0.486036 0 0)
(0.488115 0 0)
(0.490192 0 0)
(0.492268 0 0)
(0.494344 0 0)
(0.496419 0 0)
(0.498493 0 0)
(0.500566 0 0)
(0.502638 0 0)
(0.504709 0 0)
(0.50678 0 0)
(0.508849 0 0)
(0.510918 0 0)
(0.512985 0 0)
(0.515052 0 0)
(0.517117 0 0)
(0.519182 0 0)
(0.521246 0 0)
(0.523309 0 0)
(0.525371 0 0)
(0.527432 0 0)
(0.529492 0 0)
(0.531551 0 0)
(0.533609 0 0)
(0.535666 0 0)
(0.537722 0 0)
(0.539777 0 0)
(0.54183 0 0)
(0.543883 0 0)
(0.545935 0 0)
(0.547986 0 0)
(0.550036 0 0)
(0.552085 0 0)
(0.554132 0 0)
(0.556179 0 0)
(0.558224 0 0)
(0.560269 0 0)
(0.562312 0 0)
(0.564354 0 0)
(0.566395 0 0)
(0.568435 0 0)
(0.570474 0 0)
(0.572512 0 0)
(0.574549 0 0)
(0.576584 0 0)
(0.578618 0 0)
(0.580651 0 0)
(0.582683 0 0)
(0.584714 0 0)
(0.586744 0 0)
(0.588772 0 0)
(0.590799 0 0)
(0.592825 0 0)
(0.59485 0 0)
(0.596873 0 0)
(0.598895 0 0)
(0.600916 0 0)
(0.602936 0 0)
(0.604955 0 0)
(0.606972 0 0)
(0.608988 0 0)
(0.611002 0 0)
(0.613015 0 0)
(0.615027 0 0)
(0.617038 0 0)
(0.619047 0 0)
(0.621055 0 0)
(0.623062 0 0)
(0.625067 0 0)
(0.627071 0 0)
(0.629073 0 0)
(0.631074 0 0)
(0.633074 0 0)
(0.635072 0 0)
(0.637069 0 0)
(0.639064 0 0)
(0.641058 0 0)
(0.643051 0 0)
(0.645042 0 0)
(0.647031 0 0)
(0.649019 0 0)
(0.651005 0 0)
(0.65299 0 0)
(0.654974 0 0)
(0.656956 0 0)
(0.658936 0 0)
(0.660915 0 0)
(0.662892 0 0)
(0.664867 0 0)
(0.666841 0 0)
(0.668814 0 0)
(0.670785 0 0)
(0.672754 0 0)
(0.674721 0 0)
(0.676687 0 0)
(0.678651 0 0)
(0.680613 0 0)
(0.682574 0 0)
(0.684533 0 0)
(0.68649 0 0)
(0.688446 0 0)
(0.6904 0 0)
(0.692352 0 0)
(0.694302 0 0)
(0.69625 0 0)
(0.698197 0 0)
(0.700142 0 0)
(0.702085 0 0)
(0.704026 0 0)
(0.705965 0 0)
(0.707902 0 0)
(0.709838 0 0)
(0.711771 0 0)
(0.713703 0 0)
(0.715632 0 0)
(0.71756 0 0)
(0.719485 0 0)
(0.721409 0 0)
(0.723331 0 0)
(0.72525 0 0)
(0.727168 0 0)
(0.729083 0 0)
(0.730997 0 0)
(0.732908 0 0)
(0.734817 0 0)
(0.736724 0 0)
(0.738629 0 0)
(0.740532 0 0)
(0.742432 0 0)
(0.74433 0 0)
(0.746226 0 0)
(0.74812 0 0)
(0.750011 0 0)
(0.751901 0 0)
(0.753788 0 0)
(0.755672 0 0)
(0.757554 0 0)
(0.759434 0 0)
(0.761311 0 0)
(0.763186 0 0)
(0.765059 0 0)
(0.766929 0 0)
(0.768797 0 0)
(0.770662 0 0)
(0.772524 0 0)
(0.774384 0 0)
(0.776242 0 0)
(0.778097 0 0)
(0.779949 0 0)
(0.781798 0 0)
(0.783645 0 0)
(0.785489 0 0)
(0.787331 0 0)
(0.789169 0 0)
(0.791005 0 0)
(0.792838 0 0)
(0.794668 0 0)
(0.796496 0 0)
(0.79832 0 0)
(0.800142 0 0)
(0.801961 0 0)
(0.803776 0 0)
(0.805589 0 0)
(0.807398 0 0)
(0.809205 0 0)
(0.811008 0 0)
(0.812809 0 0)
(0.814606 0 0)
(0.8164 0 0)
(0.818187 0 0)
(0.820178 0 0)
(0.800833 0 0)
(0.425318 0 0)
(-0.424074 0 0)
(-0.800669 0 0)
(-0.820177 0 0)
(-0.818184 0 0)
(-0.816397 0 0)
(-0.814603 0 0)
(-0.812806 0 0)
(-0.811006 0 0)
(-0.809202 0 0)
(-0.807396 0 0)
(-0.805586 0 0)
(-0.803774 0 0)
(-0.801958 0 0)
(-0.800139 0 0)
(-0.798318 0 0)
(-0.796493 0 0)
(-0.794666 0 0)
(-0.792836 0 0)
(-0.791003 0 0)
(-0.789167 0 0)
(-0.787328 0 0)
(-0.785487 0 0)
(-0.783643 0 0)
(-0.781796 0 0)
(-0.779946 0 0)
(-0.778094 0 0)
(-0.776239 0 0)
(-0.774382 0 0)
(-0.772522 0 0)
(-0.770659 0 0)
(-0.768794 0 0)
(-0.766927 0 0)
(-0.765057 0 0)
(-0.763184 0 0)
(-0.761309 0 0)
(-0.759432 0 0)
(-0.757552 0 0)
(-0.75567 0 0)
(-0.753785 0 0)
(-0.751898 0 0)
(-0.750009 0 0)
(-0.748118 0 0)
(-0.746224 0 0)
(-0.744328 0 0)
(-0.74243 0 0)
(-0.740529 0 0)
(-0.738627 0 0)
(-0.736722 0 0)
(-0.734815 0 0)
(-0.732906 0 0)
(-0.730994 0 0)
(-0.729081 0 0)
(-0.727165 0 0)
(-0.725248 0 0)
(-0.723328 0 0)
(-0.721407 0 0)
(-0.719483 0 0)
(-0.717558 0 0)
(-0.71563 0 0)
(-0.7137 0 0)
(-0.711769 0 0)
(-0.709835 0 0)
(-0.7079 0 0)
(-0.705963 0 0)
(-0.704024 0 0)
(-0.702082 0 0)
(-0.70014 0 0)
(-0.698195 0 0)
(-0.696248 0 0)
(-0.6943 0 0)
(-0.69235 0 0)
(-0.690398 0 0)
(-0.688444 0 0)
(-0.686488 0 0)
(-0.684531 0 0)
(-0.682572 0 0)
(-0.680611 0 0)
(-0.678649 0 0)
(-0.676685 0 0)
(-0.674719 0 0)
(-0.672752 0 0)
(-0.670782 0 0)
(-0.668812 0 0)
(-0.666839 0 0)
(-0.664865 0 0)
(-0.66289 0 0)
(-0.660913 0 0)
(-0.658934 0 0)
(-0.656954 0 0)
(-0.654972 0 0)
(-0.652988 0 0)
(-0.651003 0 0)
(-0.649017 0 0)
(-0.647029 0 0)
(-0.645039 0 0)
(-0.643049 0 0)
(-0.641056 0 0)
(-0.639062 0 0)
(-0.637067 0 0)
(-0.63507 0 0)
(-0.633072 0 0)
(-0.631072 0 0)
(-0.629071 0 0)
(-0.627069 0 0)
(-0.625065 0 0)
(-0.62306 0 0)
(-0.621053 0 0)
(-0.619045 0 0)
(-0.617036 0 0)
(-0.615026 0 0)
(-0.613014 0 0)
(-0.611 0 0)
(-0.608986 0 0)
(-0.60697 0 0)
(-0.604953 0 0)
(-0.602934 0 0)
(-0.600915 0 0)
(-0.598894 0 0)
(-0.596871 0 0)
(-0.594848 0 0)
(-0.592823 0 0)
(-0.590797 0 0)
(-0.58877 0 0)
(-0.586742 0 0)
(-0.584712 0 0)
(-0.582682 0 0)
(-0.58065 0 0)
(-0.578617 0 0)
(-0.576582 0 0)
(-0.574547 0 0)
(-0.57251 0 0)
(-0.570473 0 0)
(-0.568434 0 0)
(-0.566394 0 0)
(-0.564353 0 0)
(-0.56231 0 0)
(-0.560267 0 0)
(-0.558223 0 0)
(-0.556177 0 0)
(-0.554131 0 0)
(-0.552083 0 0)
(-0.550034 0 0)
(-0.547984 0 0)
(-0.545934 0 0)
(-0.543882 0 0)
(-0.541829 0 0)
(-0.539775 0 0)
(-0.53772 0 0)
(-0.535664 0 0)
(-0.533607 0 0)
(-0.531549 0 0)
(-0.52949 0 0)
(-0.52743 0 0)
(-0.525369 0 0)
(-0.523307 0 0)
(-0.521245 0 0)
(-0.519181 0 0)
(-0.517116 0 0)
(-0.51505 0 0)
(-0.512984 0 0)
(-0.510916 0 0)
(-0.508848 0 0)
(-0.506778 0 0)
(-0.504708 0 0)
(-0.502637 0 0)
(-0.500565 0 0)
(-0.498491 0 0)
(-0.496418 0 0)
(-0.494343 0 0)
(-0.492267 0 0)
(-0.490191 0 0)
(-0.488113 0 0)
(-0.486035 0 0)
(-0.483956 0 0)
(-0.481876 0 0)
(-0.479795 0 0)
(-0.477713 0 0)
(-0.475631 0 0)
(-0.473548 0 0)
(-0.471464 0 0)
(-0.469379 0 0)
(-0.467293 0 0)
(-0.465207 0 0)
(-0.463119 0 0)
(-0.461031 0 0)
(-0.458942 0 0)
(-0.456853 0 0)
(-0.454762 0 0)
(-0.452671 0 0)
(-0.450579 0 0)
(-0.448487 0 0)
(-0.446393 0 0)
(-0.444299 0 0)
(-0.442204 0 0)
(-0.440108 0 0)
(-0.438012 0 0)
(-0.435915 0 0)
(-0.433817 0 0)
(-0.431719 0 0)
(-0.429619 0 0)
(-0.42752 0 0)
(-0.425419 0 0)
(-0.423318 0 0)
(-0.421216 0 0)
(-0.419113 0 0)
(-0.41701 0 0)
(-0.414906 0 0)
(-0.412801 0 0)
(-0.410695 0 0)
(-0.408589 0 0)
(-0.406483 0 0)
(-0.404375 0 0)
(-0.402267 0 0)
(-0.400159 0 0)
(-0.39805 0 0)
(-0.39594 0 0)
(-0.393829 0 0)
(-0.391718 0 0)
(-0.389606 0 0)
(-0.387494 0 0)
(-0.385381 0 0)
(-0.383268 0 0)
(-0.381153 0 0)
(-0.379039 0 0)
(-0.376923 0 0)
(-0.374807 0 0)
(-0.372691 0 0)
(-0.370574 0 0)
(-0.368456 0 0)
(-0.366338 0 0)
(-0.364219 0 0)
(-0.3621 0 0)
(-0.35998 0 0)
(-0.35786 0 0)
(-0.355739 0 0)
(-0.353617 0 0)
(-0.351495 0 0)
(-0.349373 0 0)
(-0.347249 0 0)
(-0.345126 0 0)
(-0.343002 0 0)
(-0.340877 0 0)
(-0.338752 0 0)
(-0.336626 0 0)
(-0.3345 0 0)
(-0.332373 0 0)
(-0.330246 0 0)
(-0.328118 0 0)
(-0.32599 0 0)
(-0.323862 0 0)
(-0.321732 0 0)
(-0.319603 0 0)
(-0.317473 0 0)
(-0.315342 0 0)
(-0.313211 0 0)
(-0.31108 0 0)
(-0.308948 0 0)
(-0.306815 0 0)
(-0.304683 0 0)
(-0.302549 0 0)
(-0.300416 0 0)
(-0.298281 0 0)
(-0.296147 0 0)
(-0.294012 0 0)
(-0.291876 0 0)
(-0.28974 0 0)
(-0.287604 0 0)
(-0.285467 0 0)
(-0.28333 0 0)
(-0.281193 0 0)
(-0.279055 0 0)
(-0.276917 0 0)
(-0.274778 0 0)
(-0.272639 0 0)
(-0.270499 0 0)
(-0.268359 0 0)
(-0.266219 0 0)
(-0.264078 0 0)
(-0.261937 0 0)
(-0.259796 0 0)
(-0.257654 0 0)
(-0.255512 0 0)
(-0.253369 0 0)
(-0.251227 0 0)
(-0.249083 0 0)
(-0.24694 0 0)
(-0.244796 0 0)
(-0.242652 0 0)
(-0.240507 0 0)
(-0.238362 0 0)
(-0.236217 0 0)
(-0.234071 0 0)
(-0.231925 0 0)
(-0.229779 0 0)
(-0.227633 0 0)
(-0.225486 0 0)
(-0.223338 0 0)
(-0.221191 0 0)
(-0.219043 0 0)
(-0.216895 0 0)
(-0.214747 0 0)
(-0.212598 0 0)
(-0.210449 0 0)
(-0.208299 0 0)
(-0.20615 0 0)
(-0.204 0 0)
(-0.20185 0 0)
(-0.199699 0 0)
(-0.197549 0 0)
(-0.195398 0 0)
(-0.193246 0 0)
(-0.191095 0 0)
(-0.188943 0 0)
(-0.186791 0 0)
(-0.184639 0 0)
(-0.182486 0 0)
(-0.180333 0 0)
(-0.17818 0 0)
(-0.176027 0 0)
(-0.173874 0 0)
(-0.17172 0 0)
(-0.169566 0 0)
(-0.167412 0 0)
(-0.165257 0 0)
(-0.163102 0 0)
(-0.160948 0 0)
(-0.158792 0 0)
(-0.156637 0 0)
(-0.154482 0 0)
(-0.152326 0 0)
(-0.15017 0 0)
(-0.148014 0 0)
(-0.145857 0 0)
(-0.143701 0 0)
(-0.141544 0 0)
(-0.139387 0 0)
(-0.13723 0 0)
(-0.135073 0 0)
(-0.132915 0 0)
(-0.130757 0 0)
(-0.1286 0 0)
(-0.126442 0 0)
(-0.124283 0 0)
(-0.122125 0 0)
(-0.119966 0 0)
(-0.117808 0 0)
(-0.115649 0 0)
(-0.11349 0 0)
(-0.111331 0 0)
(-0.109171 0 0)
(-0.107012 0 0)
(-0.104852 0 0)
(-0.102693 0 0)
(-0.100533 0 0)
(-0.0983729 0 0)
(-0.0962127 0 0)
(-0.0940525 0 0)
(-0.0918921 0 0)
(-0.0897316 0 0)
(-0.087571 0 0)
(-0.0854103 0 0)
(-0.0832494 0 0)
(-0.0810884 0 0)
(-0.0789274 0 0)
(-0.0767662 0 0)
(-0.0746049 0 0)
(-0.0724435 0 0)
(-0.0702821 0 0)
(-0.0681205 0 0)
(-0.0659589 0 0)
(-0.0637971 0 0)
(-0.0616353 0 0)
(-0.0594734 0 0)
(-0.0573114 0 0)
(-0.0551493 0 0)
(-0.0529872 0 0)
(-0.050825 0 0)
(-0.0486627 0 0)
(-0.0465004 0 0)
(-0.044338 0 0)
(-0.0421755 0 0)
(-0.040013 0 0)
(-0.0378504 0 0)
(-0.0356878 0 0)
(-0.0335252 0 0)
(-0.0313625 0 0)
(-0.0291997 0 0)
(-0.0270369 0 0)
(-0.0248741 0 0)
(-0.0227112 0 0)
(-0.0205484 0 0)
(-0.0183854 0 0)
(-0.0162225 0 0)
(-0.0140596 0 0)
(-0.0118966 0 0)
(-0.00973358 0 0)
(-0.00757058 0 0)
(-0.00540756 0 0)
(-0.00324454 0 0)
(-0.00108151 0 0)
)
;

boundaryField
{
    left
    {
        type            fixedValue;
        value           uniform (0 0 0);
    }
    right
    {
        type            fixedValue;
        value           uniform (0 0 0);
    }
    frontBackUpDown
    {
        type            empty;
    }
}


// ************************************************************************* //
