/*--------------------------------*- C++ -*----------------------------------*\
| =========                 |                                                 |
| \\      /  F ield         | OpenFOAM: The Open Source CFD Toolbox           |
|  \\    /   O peration     | Version:  2412                                  |
|   \\  /    A nd           | Website:  www.openfoam.com                      |
|    \\/     M anipulation  |                                                 |
\*---------------------------------------------------------------------------*/
FoamFile
{
    version     2.0;
    format      ascii;
    arch        "LSB;label=32;scalar=64";
    class       volVectorField;
    location    "0.84";
    object      U_0_0;
}
// * * * * * * * * * * * * * * * * * * * * * * * * * * * * * * * * * * * * * //

dimensions      [0 1 -1 0 0 0 0];

internalField   nonuniform List<vector> 
800
(
(0.00108104 0 0)
(0.00324313 0 0)
(0.00540522 0 0)
(0.0075673 0 0)
(0.00972937 0 0)
(0.0118914 0 0)
(0.0140535 0 0)
(0.0162155 0 0)
(0.0183775 0 0)
(0.0205395 0 0)
(0.0227014 0 0)
(0.0248634 0 0)
(0.0270253 0 0)
(0.0291871 0 0)
(0.0313489 0 0)
(0.0335107 0 0)
(0.0356724 0 0)
(0.0378341 0 0)
(0.0399958 0 0)
(0.0421573 0 0)
(0.0443189 0 0)
(0.0464803 0 0)
(0.0486417 0 0)
(0.0508031 0 0)
(0.0529644 0 0)
(0.0551256 0 0)
(0.0572867 0 0)
(0.0594477 0 0)
(0.0616087 0 0)
(0.0637696 0 0)
(0.0659304 0 0)
(0.0680912 0 0)
(0.0702518 0 0)
(0.0724123 0 0)
(0.0745728 0 0)
(0.0767331 0 0)
(0.0788934 0 0)
(0.0810535 0 0)
(0.0832136 0 0)
(0.0853735 0 0)
(0.0875333 0 0)
(0.089693 0 0)
(0.0918526 0 0)
(0.094012 0 0)
(0.0961714 0 0)
(0.0983306 0 0)
(0.10049 0 0)
(0.102649 0 0)
(0.104807 0 0)
(0.106966 0 0)
(0.109125 0 0)
(0.111283 0 0)
(0.113441 0 0)
(0.115599 0 0)
(0.117757 0 0)
(0.119915 0 0)
(0.122072 0 0)
(0.12423 0 0)
(0.126387 0 0)
(0.128544 0 0)
(0.130701 0 0)
(0.132858 0 0)
(0.135015 0 0)
(0.137171 0 0)
(0.139327 0 0)
(0.141483 0 0)
(0.143639 0 0)
(0.145795 0 0)
(0.14795 0 0)
(0.150105 0 0)
(0.15226 0 0)
(0.154415 0 0)
(0.15657 0 0)
(0.158724 0 0)
(0.160879 0 0)
(0.163033 0 0)
(0.165186 0 0)
(0.16734 0 0)
(0.169493 0 0)
(0.171646 0 0)
(0.173799 0 0)
(0.175952 0 0)
(0.178104 0 0)
(0.180256 0 0)
(0.182408 0 0)
(0.18456 0 0)
(0.186711 0 0)
(0.188862 0 0)
(0.191013 0 0)
(0.193164 0 0)
(0.195314 0 0)
(0.197464 0 0)
(0.199614 0 0)
(0.201764 0 0)
(0.203913 0 0)
(0.206062 0 0)
(0.20821 0 0)
(0.210359 0 0)
(0.212507 0 0)
(0.214655 0 0)
(0.216802 0 0)
(0.21895 0 0)
(0.221096 0 0)
(0.223243 0 0)
(0.225389 0 0)
(0.227535 0 0)
(0.229681 0 0)
(0.231826 0 0)
(0.233971 0 0)
(0.236116 0 0)
(0.23826 0 0)
(0.240405 0 0)
(0.242548 0 0)
(0.244692 0 0)
(0.246835 0 0)
(0.248977 0 0)
(0.25112 0 0)
(0.253262 0 0)
(0.255403 0 0)
(0.257544 0 0)
(0.259685 0 0)
(0.261826 0 0)
(0.263966 0 0)
(0.266106 0 0)
(0.268245 0 0)
(0.270384 0 0)
(0.272523 0 0)
(0.274661 0 0)
(0.276799 0 0)
(0.278936 0 0)
(0.281073 0 0)
(0.28321 0 0)
(0.285346 0 0)
(0.287482 0 0)
(0.289617 0 0)
(0.291752 0 0)
(0.293887 0 0)
(0.296021 0 0)
(0.298155 0 0)
(0.300288 0 0)
(0.302421 0 0)
(0.304553 0 0)
(0.306685 0 0)
(0.308817 0 0)
(0.310948 0 0)
(0.313079 0 0)
(0.315209 0 0)
(0.317338 0 0)
(0.319468 0 0)
(0.321596 0 0)
(0.323725 0 0)
(0.325852 0 0)
(0.32798 0 0)
(0.330106 0 0)
(0.332233 0 0)
(0.334359 0 0)
(0.336484 0 0)
(0.338609 0 0)
(0.340733 0 0)
(0.342857 0 0)
(0.34498 0 0)
(0.347103 0 0)
(0.349225 0 0)
(0.351347 0 0)
(0.353468 0 0)
(0.355589 0 0)
(0.357709 0 0)
(0.359829 0 0)
(0.361948 0 0)
(0.364066 0 0)
(0.366184 0 0)
(0.368301 0 0)
(0.370418 0 0)
(0.372534 0 0)
(0.37465 0 0)
(0.376765 0 0)
(0.37888 0 0)
(0.380993 0 0)
(0.383107 0 0)
(0.385219 0 0)
(0.387332 0 0)
(0.389443 0 0)
(0.391554 0 0)
(0.393664 0 0)
(0.395774 0 0)
(0.397883 0 0)
(0.399991 0 0)
(0.402099 0 0)
(0.404206 0 0)
(0.406313 0 0)
(0.408419 0 0)
(0.410524 0 0)
(0.412628 0 0)
(0.414732 0 0)
(0.416836 0 0)
(0.418938 0 0)
(0.42104 0 0)
(0.423141 0 0)
(0.425242 0 0)
(0.427341 0 0)
(0.429441 0 0)
(0.431539 0 0)
(0.433637 0 0)
(0.435734 0 0)
(0.43783 0 0)
(0.439926 0 0)
(0.44202 0 0)
(0.444114 0 0)
(0.446208 0 0)
(0.4483 0 0)
(0.450392 0 0)
(0.452483 0 0)
(0.454574 0 0)
(0.456663 0 0)
(0.458752 0 0)
(0.46084 0 0)
(0.462928 0 0)
(0.465014 0 0)
(0.4671 0 0)
(0.469185 0 0)
(0.471269 0 0)
(0.473352 0 0)
(0.475435 0 0)
(0.477516 0 0)
(0.479597 0 0)
(0.481677 0 0)
(0.483756 0 0)
(0.485835 0 0)
(0.487912 0 0)
(0.489989 0 0)
(0.492065 0 0)
(0.494139 0 0)
(0.496213 0 0)
(0.498287 0 0)
(0.500359 0 0)
(0.50243 0 0)
(0.504501 0 0)
(0.50657 0 0)
(0.508639 0 0)
(0.510707 0 0)
(0.512774 0 0)
(0.514839 0 0)
(0.516904 0 0)
(0.518968 0 0)
(0.521031 0 0)
(0.523094 0 0)
(0.525155 0 0)
(0.527215 0 0)
(0.529274 0 0)
(0.531332 0 0)
(0.53339 0 0)
(0.535446 0 0)
(0.537501 0 0)
(0.539555 0 0)
(0.541608 0 0)
(0.543661 0 0)
(0.545712 0 0)
(0.547762 0 0)
(0.549811 0 0)
(0.551859 0 0)
(0.553906 0 0)
(0.555952 0 0)
(0.557996 0 0)
(0.56004 0 0)
(0.562083 0 0)
(0.564124 0 0)
(0.566165 0 0)
(0.568204 0 0)
(0.570242 0 0)
(0.572279 0 0)
(0.574315 0 0)
(0.57635 0 0)
(0.578383 0 0)
(0.580416 0 0)
(0.582447 0 0)
(0.584477 0 0)
(0.586506 0 0)
(0.588534 0 0)
(0.59056 0 0)
(0.592585 0 0)
(0.594609 0 0)
(0.596632 0 0)
(0.598654 0 0)
(0.600674 0 0)
(0.602693 0 0)
(0.604711 0 0)
(0.606727 0 0)
(0.608743 0 0)
(0.610757 0 0)
(0.612769 0 0)
(0.614781 0 0)
(0.61679 0 0)
(0.618799 0 0)
(0.620806 0 0)
(0.622812 0 0)
(0.624817 0 0)
(0.62682 0 0)
(0.628822 0 0)
(0.630822 0 0)
(0.632821 0 0)
(0.634819 0 0)
(0.636815 0 0)
(0.63881 0 0)
(0.640803 0 0)
(0.642795 0 0)
(0.644785 0 0)
(0.646774 0 0)
(0.648761 0 0)
(0.650747 0 0)
(0.652732 0 0)
(0.654715 0 0)
(0.656696 0 0)
(0.658676 0 0)
(0.660654 0 0)
(0.66263 0 0)
(0.664605 0 0)
(0.666579 0 0)
(0.668551 0 0)
(0.670521 0 0)
(0.672489 0 0)
(0.674456 0 0)
(0.676422 0 0)
(0.678385 0 0)
(0.680347 0 0)
(0.682307 0 0)
(0.684266 0 0)
(0.686222 0 0)
(0.688177 0 0)
(0.690131 0 0)
(0.692082 0 0)
(0.694032 0 0)
(0.69598 0 0)
(0.697926 0 0)
(0.69987 0 0)
(0.701812 0 0)
(0.703753 0 0)
(0.705692 0 0)
(0.707629 0 0)
(0.709563 0 0)
(0.711496 0 0)
(0.713428 0 0)
(0.715357 0 0)
(0.717284 0 0)
(0.719209 0 0)
(0.721132 0 0)
(0.723053 0 0)
(0.724972 0 0)
(0.72689 0 0)
(0.728805 0 0)
(0.730718 0 0)
(0.732628 0 0)
(0.734537 0 0)
(0.736444 0 0)
(0.738348 0 0)
(0.74025 0 0)
(0.74215 0 0)
(0.744048 0 0)
(0.745944 0 0)
(0.747837 0 0)
(0.749728 0 0)
(0.751617 0 0)
(0.753504 0 0)
(0.755388 0 0)
(0.75727 0 0)
(0.759149 0 0)
(0.761026 0 0)
(0.762901 0 0)
(0.764773 0 0)
(0.766643 0 0)
(0.76851 0 0)
(0.770375 0 0)
(0.772237 0 0)
(0.774097 0 0)
(0.775954 0 0)
(0.777809 0 0)
(0.77966 0 0)
(0.78151 0 0)
(0.783356 0 0)
(0.7852 0 0)
(0.787041 0 0)
(0.78888 0 0)
(0.790715 0 0)
(0.792548 0 0)
(0.794378 0 0)
(0.796205 0 0)
(0.79803 0 0)
(0.799851 0 0)
(0.801669 0 0)
(0.803485 0 0)
(0.805297 0 0)
(0.807107 0 0)
(0.808913 0 0)
(0.810716 0 0)
(0.812517 0 0)
(0.814314 0 0)
(0.816107 0 0)
(0.817894 0 0)
(0.819883 0 0)
(0.800452 0 0)
(0.425016 0 0)
(-0.423772 0 0)
(-0.800288 0 0)
(-0.819881 0 0)
(-0.817892 0 0)
(-0.816105 0 0)
(-0.814311 0 0)
(-0.812514 0 0)
(-0.810714 0 0)
(-0.808911 0 0)
(-0.807104 0 0)
(-0.805295 0 0)
(-0.803482 0 0)
(-0.801667 0 0)
(-0.799849 0 0)
(-0.798027 0 0)
(-0.796203 0 0)
(-0.794376 0 0)
(-0.792546 0 0)
(-0.790713 0 0)
(-0.788877 0 0)
(-0.787039 0 0)
(-0.785198 0 0)
(-0.783354 0 0)
(-0.781507 0 0)
(-0.779658 0 0)
(-0.777806 0 0)
(-0.775952 0 0)
(-0.774094 0 0)
(-0.772235 0 0)
(-0.770372 0 0)
(-0.768508 0 0)
(-0.76664 0 0)
(-0.764771 0 0)
(-0.762898 0 0)
(-0.761024 0 0)
(-0.759147 0 0)
(-0.757267 0 0)
(-0.755385 0 0)
(-0.753501 0 0)
(-0.751615 0 0)
(-0.749726 0 0)
(-0.747835 0 0)
(-0.745942 0 0)
(-0.744046 0 0)
(-0.742148 0 0)
(-0.740248 0 0)
(-0.738346 0 0)
(-0.736441 0 0)
(-0.734535 0 0)
(-0.732626 0 0)
(-0.730715 0 0)
(-0.728802 0 0)
(-0.726887 0 0)
(-0.72497 0 0)
(-0.723051 0 0)
(-0.72113 0 0)
(-0.719207 0 0)
(-0.717282 0 0)
(-0.715354 0 0)
(-0.713425 0 0)
(-0.711494 0 0)
(-0.709561 0 0)
(-0.707626 0 0)
(-0.70569 0 0)
(-0.703751 0 0)
(-0.70181 0 0)
(-0.699868 0 0)
(-0.697924 0 0)
(-0.695977 0 0)
(-0.69403 0 0)
(-0.69208 0 0)
(-0.690128 0 0)
(-0.688175 0 0)
(-0.68622 0 0)
(-0.684263 0 0)
(-0.682305 0 0)
(-0.680345 0 0)
(-0.678383 0 0)
(-0.676419 0 0)
(-0.674454 0 0)
(-0.672487 0 0)
(-0.670519 0 0)
(-0.668548 0 0)
(-0.666577 0 0)
(-0.664603 0 0)
(-0.662628 0 0)
(-0.660652 0 0)
(-0.658673 0 0)
(-0.656694 0 0)
(-0.654712 0 0)
(-0.65273 0 0)
(-0.650745 0 0)
(-0.648759 0 0)
(-0.646772 0 0)
(-0.644783 0 0)
(-0.642793 0 0)
(-0.640801 0 0)
(-0.638808 0 0)
(-0.636813 0 0)
(-0.634817 0 0)
(-0.632819 0 0)
(-0.63082 0 0)
(-0.62882 0 0)
(-0.626818 0 0)
(-0.624815 0 0)
(-0.62281 0 0)
(-0.620804 0 0)
(-0.618797 0 0)
(-0.616789 0 0)
(-0.614779 0 0)
(-0.612767 0 0)
(-0.610755 0 0)
(-0.608741 0 0)
(-0.606726 0 0)
(-0.604709 0 0)
(-0.602691 0 0)
(-0.600672 0 0)
(-0.598652 0 0)
(-0.59663 0 0)
(-0.594608 0 0)
(-0.592584 0 0)
(-0.590558 0 0)
(-0.588532 0 0)
(-0.586504 0 0)
(-0.584475 0 0)
(-0.582445 0 0)
(-0.580414 0 0)
(-0.578382 0 0)
(-0.576348 0 0)
(-0.574313 0 0)
(-0.572277 0 0)
(-0.57024 0 0)
(-0.568202 0 0)
(-0.566163 0 0)
(-0.564123 0 0)
(-0.562081 0 0)
(-0.560039 0 0)
(-0.557995 0 0)
(-0.55595 0 0)
(-0.553904 0 0)
(-0.551857 0 0)
(-0.549809 0 0)
(-0.54776 0 0)
(-0.54571 0 0)
(-0.543659 0 0)
(-0.541607 0 0)
(-0.539554 0 0)
(-0.537499 0 0)
(-0.535444 0 0)
(-0.533388 0 0)
(-0.531331 0 0)
(-0.529273 0 0)
(-0.527213 0 0)
(-0.525153 0 0)
(-0.523092 0 0)
(-0.52103 0 0)
(-0.518967 0 0)
(-0.516903 0 0)
(-0.514838 0 0)
(-0.512772 0 0)
(-0.510705 0 0)
(-0.508638 0 0)
(-0.506569 0 0)
(-0.504499 0 0)
(-0.502429 0 0)
(-0.500357 0 0)
(-0.498285 0 0)
(-0.496212 0 0)
(-0.494138 0 0)
(-0.492063 0 0)
(-0.489987 0 0)
(-0.487911 0 0)
(-0.485833 0 0)
(-0.483755 0 0)
(-0.481676 0 0)
(-0.479596 0 0)
(-0.477515 0 0)
(-0.475433 0 0)
(-0.473351 0 0)
(-0.471268 0 0)
(-0.469183 0 0)
(-0.467099 0 0)
(-0.465013 0 0)
(-0.462926 0 0)
(-0.460839 0 0)
(-0.458751 0 0)
(-0.456662 0 0)
(-0.454573 0 0)
(-0.452482 0 0)
(-0.450391 0 0)
(-0.448299 0 0)
(-0.446207 0 0)
(-0.444113 0 0)
(-0.442019 0 0)
(-0.439924 0 0)
(-0.437829 0 0)
(-0.435733 0 0)
(-0.433636 0 0)
(-0.431538 0 0)
(-0.429439 0 0)
(-0.42734 0 0)
(-0.425241 0 0)
(-0.42314 0 0)
(-0.421039 0 0)
(-0.418937 0 0)
(-0.416835 0 0)
(-0.414731 0 0)
(-0.412627 0 0)
(-0.410523 0 0)
(-0.408418 0 0)
(-0.406312 0 0)
(-0.404205 0 0)
(-0.402098 0 0)
(-0.39999 0 0)
(-0.397882 0 0)
(-0.395773 0 0)
(-0.393663 0 0)
(-0.391553 0 0)
(-0.389442 0 0)
(-0.387331 0 0)
(-0.385219 0 0)
(-0.383106 0 0)
(-0.380993 0 0)
(-0.378879 0 0)
(-0.376764 0 0)
(-0.374649 0 0)
(-0.372534 0 0)
(-0.370417 0 0)
(-0.368301 0 0)
(-0.366183 0 0)
(-0.364065 0 0)
(-0.361947 0 0)
(-0.359828 0 0)
(-0.357708 0 0)
(-0.355588 0 0)
(-0.353467 0 0)
(-0.351346 0 0)
(-0.349225 0 0)
(-0.347102 0 0)
(-0.34498 0 0)
(-0.342856 0 0)
(-0.340732 0 0)
(-0.338608 0 0)
(-0.336483 0 0)
(-0.334358 0 0)
(-0.332232 0 0)
(-0.330106 0 0)
(-0.327979 0 0)
(-0.325852 0 0)
(-0.323724 0 0)
(-0.321596 0 0)
(-0.319467 0 0)
(-0.317338 0 0)
(-0.315208 0 0)
(-0.313078 0 0)
(-0.310947 0 0)
(-0.308816 0 0)
(-0.306685 0 0)
(-0.304553 0 0)
(-0.30242 0 0)
(-0.300288 0 0)
(-0.298154 0 0)
(-0.296021 0 0)
(-0.293886 0 0)
(-0.291752 0 0)
(-0.289617 0 0)
(-0.287482 0 0)
(-0.285346 0 0)
(-0.283209 0 0)
(-0.281073 0 0)
(-0.278936 0 0)
(-0.276798 0 0)
(-0.274661 0 0)
(-0.272522 0 0)
(-0.270384 0 0)
(-0.268245 0 0)
(-0.266105 0 0)
(-0.263966 0 0)
(-0.261825 0 0)
(-0.259685 0 0)
(-0.257544 0 0)
(-0.255403 0 0)
(-0.253261 0 0)
(-0.251119 0 0)
(-0.248977 0 0)
(-0.246834 0 0)
(-0.244691 0 0)
(-0.242548 0 0)
(-0.240404 0 0)
(-0.23826 0 0)
(-0.236116 0 0)
(-0.233971 0 0)
(-0.231826 0 0)
(-0.229681 0 0)
(-0.227535 0 0)
(-0.225389 0 0)
(-0.223243 0 0)
(-0.221096 0 0)
(-0.218949 0 0)
(-0.216802 0 0)
(-0.214654 0 0)
(-0.212507 0 0)
(-0.210359 0 0)
(-0.20821 0 0)
(-0.206061 0 0)
(-0.203913 0 0)
(-0.201763 0 0)
(-0.199614 0 0)
(-0.197464 0 0)
(-0.195314 0 0)
(-0.193163 0 0)
(-0.191013 0 0)
(-0.188862 0 0)
(-0.186711 0 0)
(-0.18456 0 0)
(-0.182408 0 0)
(-0.180256 0 0)
(-0.178104 0 0)
(-0.175951 0 0)
(-0.173799 0 0)
(-0.171646 0 0)
(-0.169493 0 0)
(-0.16734 0 0)
(-0.165186 0 0)
(-0.163032 0 0)
(-0.160878 0 0)
(-0.158724 0 0)
(-0.15657 0 0)
(-0.154415 0 0)
(-0.15226 0 0)
(-0.150105 0 0)
(-0.14795 0 0)
(-0.145795 0 0)
(-0.143639 0 0)
(-0.141483 0 0)
(-0.139327 0 0)
(-0.137171 0 0)
(-0.135014 0 0)
(-0.132858 0 0)
(-0.130701 0 0)
(-0.128544 0 0)
(-0.126387 0 0)
(-0.12423 0 0)
(-0.122072 0 0)
(-0.119915 0 0)
(-0.117757 0 0)
(-0.115599 0 0)
(-0.113441 0 0)
(-0.111283 0 0)
(-0.109124 0 0)
(-0.106966 0 0)
(-0.104807 0 0)
(-0.102648 0 0)
(-0.10049 0 0)
(-0.0983305 0 0)
(-0.0961713 0 0)
(-0.094012 0 0)
(-0.0918525 0 0)
(-0.0896929 0 0)
(-0.0875332 0 0)
(-0.0853734 0 0)
(-0.0832135 0 0)
(-0.0810535 0 0)
(-0.0788933 0 0)
(-0.0767331 0 0)
(-0.0745728 0 0)
(-0.0724123 0 0)
(-0.0702518 0 0)
(-0.0680911 0 0)
(-0.0659304 0 0)
(-0.0637696 0 0)
(-0.0616087 0 0)
(-0.0594477 0 0)
(-0.0572867 0 0)
(-0.0551255 0 0)
(-0.0529643 0 0)
(-0.0508031 0 0)
(-0.0486417 0 0)
(-0.0464803 0 0)
(-0.0443189 0 0)
(-0.0421573 0 0)
(-0.0399957 0 0)
(-0.0378341 0 0)
(-0.0356724 0 0)
(-0.0335107 0 0)
(-0.0313489 0 0)
(-0.0291871 0 0)
(-0.0270253 0 0)
(-0.0248634 0 0)
(-0.0227014 0 0)
(-0.0205395 0 0)
(-0.0183775 0 0)
(-0.0162155 0 0)
(-0.0140535 0 0)
(-0.0118914 0 0)
(-0.00972938 0 0)
(-0.00756731 0 0)
(-0.00540523 0 0)
(-0.00324314 0 0)
(-0.00108105 0 0)
)
;

boundaryField
{
    left
    {
        type            fixedValue;
        value           uniform (0 0 0);
    }
    right
    {
        type            fixedValue;
        value           uniform (0 0 0);
    }
    frontBackUpDown
    {
        type            empty;
    }
}


// ************************************************************************* //
