/*--------------------------------*- C++ -*----------------------------------*\
| =========                 |                                                 |
| \\      /  F ield         | OpenFOAM: The Open Source CFD Toolbox           |
|  \\    /   O peration     | Version:  2412                                  |
|   \\  /    A nd           | Website:  www.openfoam.com                      |
|    \\/     M anipulation  |                                                 |
\*---------------------------------------------------------------------------*/
FoamFile
{
    version     2.0;
    format      ascii;
    arch        "LSB;label=32;scalar=64";
    class       volScalarField;
    location    "0";
    object      T_0;
}
// * * * * * * * * * * * * * * * * * * * * * * * * * * * * * * * * * * * * * //

dimensions      [0 0 0 1 0 0 0];

internalField   nonuniform List<scalar> 
4000
(
1.292512567382655e-14
1.345227038499377e-14
1.400056440801272e-14
1.457084178353473e-14
1.516396885327608e-14
1.578084548732363e-14
1.642240635713886e-14
1.708962225592699e-14
1.778350146809423e-14
1.850509118958137e-14
1.925547900092077e-14
2.00357943949353e-14
2.084721036105851e-14
2.169094502833392e-14
2.256826336921648e-14
2.348047896637989e-14
2.442895584480769e-14
2.541511037153147e-14
2.644041322545429e-14
2.750639143979604e-14
2.861463051977166e-14
2.976677663822293e-14
3.096453891199912e-14
3.220969176200436e-14
3.350407735990605e-14
3.484960816463029e-14
3.624826955185427e-14
3.770212253984167e-14
3.921330661506359e-14
4.078404266118477e-14
4.241663599510833e-14
4.411347951390852e-14
4.587705695660704e-14
4.770994628490034e-14
4.961482318706597e-14
5.159446470945095e-14
5.36517530200702e-14
5.578967930902534e-14
5.801134783059719e-14
6.031998009205052e-14
6.271891919434719e-14
6.52116343301666e-14
6.780172544478728e-14
7.049292806561466e-14
7.328911830629722e-14
7.619431805161993e-14
7.921270032954146e-14
8.234859487698837e-14
8.560649390622455e-14
8.899105807887339e-14
9.250712269488069e-14
9.615970410399859e-14
9.995400634758455e-14
1.03895428038812e-13
1.079895694896547e-13
1.122422400932887e-13
1.16659465970847e-13
1.212474978917933e-13
1.260128194774554e-13
1.309621556976309e-13
1.361024816704703e-13
1.414410317762234e-13
1.469853090957864e-13
1.527430951853373e-13
1.587224601987678e-13
1.649317733699831e-13
1.713797138675698e-13
1.780752820347439e-13
1.850278110279424e-13
1.92246978867846e-13
1.997428209171204e-13
2.075257427996265e-13
2.156065337763348e-13
2.239963805937063e-13
2.32706881820872e-13
2.417500626923786e-13
2.511383904739796e-13
2.608847903694016e-13
2.710026619867228e-13
2.815058963835371e-13
2.924088937108079e-13
3.037265814758586e-13
3.154744334458073e-13
3.276684892132502e-13
3.403253744469234e-13
3.534623218506793e-13
3.670971928549999e-13
3.812485000659687e-13
3.959354304975988e-13
4.111778696140531e-13
4.269964262094492e-13
4.434124581535715e-13
4.604480990330209e-13
4.781262857180484e-13
4.964707868865755e-13
5.155062325376694e-13
5.352581445281435e-13
5.557529681666316e-13
5.770181049010854e-13
5.990819461364042e-13
6.219739082204474e-13
6.45724468637655e-13
6.703652034510605e-13
6.959288260345054e-13
7.224492271386262e-13
7.499615163351092e-13
7.785020648857352e-13
8.081085500836714e-13
8.388200011165551e-13
8.706768465020522e-13
9.037209631486258e-13
9.379957270956185e-13
9.73546065988842e-13
1.010418513349307e-12
1.048661264695075e-12
1.088324235577571e-12
1.129459121596342e-12
1.172119460457624e-12
1.216360696144838e-12
1.26224024527081e-12
1.309817565684139e-12
1.359154227404131e-12
1.410313985961561e-12
1.463362858224368e-12
1.518369200790723e-12
1.575403791033676e-12
1.634539910885169e-12
1.695853433449223e-12
1.759422912537616e-12
1.825329675223809e-12
1.893657917514503e-12
1.964494803240714e-12
2.03793056627423e-12
2.114058616177916e-12
2.192975647402688e-12
2.274781752146335e-12
2.359580536994631e-12
2.447479243467123e-12
2.538588872595807e-12
2.63302431366707e-12
2.730904477263254e-12
2.832352432742636e-12
2.937495550302677e-12
3.046465647774798e-12
3.159399142304198e-12
3.276437207072705e-12
3.397725933228177e-12
3.52341649718812e-12
3.653665333491725e-12
3.788634313378707e-12
3.928490929280029e-12
4.073408485410337e-12
4.223566294659075e-12
4.379149881981798e-12
4.540351194501573e-12
4.707368818534376e-12
4.88040820376169e-12
5.059681894778153e-12
5.245409770250904e-12
5.437819289933127e-12
5.637145749783657e-12
5.843632545450089e-12
6.057531444382401e-12
6.279102866852562e-12
6.508616176161936e-12
6.746349978329721e-12
6.992592431563549e-12
7.247641565820776e-12
7.511805612782834e-12
7.78540334656978e-12
8.06876443553712e-12
8.362229805502524e-12
8.666152014766209e-12
8.980895641294171e-12
9.306837682449054e-12
9.644367967663996e-12
9.993889584464765e-12
1.035581931826177e-11
1.073058810634209e-11
1.111864150650809e-11
1.152044018082193e-11
1.193646039492679e-11
1.236719453343376e-11
1.281315163187539e-11
1.327485792574378e-11
1.375285741714404e-11
1.424771245961365e-11
1.476000436167257e-11
1.529033400968571e-11
1.583932251063841e-11
1.640761185544117e-11
1.699586560340341e-11
1.760476958852717e-11
1.823503264829981e-11
1.888738737567857e-11
1.956259089498434e-11
2.026142566244166e-11
2.098470029212482e-11
2.17332504080904e-11
2.250793952350534e-11
2.330965994759627e-11
2.413933372127636e-11
2.499791358232635e-11
2.588638396104047e-11
2.680576200726238e-11
2.775709864977759e-11
2.874147968904509e-11
2.976002692429081e-11
3.08138993160039e-11
3.1904294184922e-11
3.303244844860619e-11
3.419963989675755e-11
3.540718850644303e-11
3.665645779844822e-11
3.794885623599688e-11
3.928583866712645e-11
4.066890781203103e-11
4.209961579674133e-11
4.357956573452702e-11
4.511041335647346e-11
4.669386869270177e-11
4.833169780576681e-11
5.002572457779032e-11
5.177783255295486e-11
5.358996683700644e-11
5.546413605548668e-11
5.74024143724394e-11
5.940694357141452e-11
6.147993520061541e-11
6.362367278411856e-11
6.584051410111994e-11
6.813289353525218e-11
7.05033244960355e-11
7.295440191463057e-11
7.548880481607579e-11
7.81092989702971e-11
8.081873962420888e-11
8.362007431731933e-11
8.651634578329742e-11
8.95106949400512e-11
9.260636397091947e-11
9.580669949967089e-11
9.911515586206527e-11
1.025352984768274e-10
1.060708073189376e-10
1.097254804982667e-10
1.135032379466158e-10
1.174081252163659e-10
1.214443173939761e-10
1.256161231317083e-10
1.299279888010184e-10
1.34384502771166e-10
1.389903998166914e-10
1.437505656575199e-10
1.486700416355286e-10
1.537540295315612e-10
1.590078965269513e-10
1.64437180313756e-10
1.700475943579862e-10
1.758450333202833e-10
1.818355786385668e-10
1.880255042773483e-10
1.944212826485023e-10
2.010295907084357e-10
2.078573162367345e-10
2.149115643015071e-10
2.221996639167595e-10
2.297291748973503e-10
2.37507894917133e-10
2.455438667761626e-10
2.538453858828694e-10
2.624210079574137e-10
2.712795569624592e-10
2.804301332679029e-10
2.89882122056181e-10
2.996452019750013e-10
3.097293540445348e-10
3.201448708262934e-10
3.309023658610588e-10
3.420127833835595e-10
3.53487408321634e-10
3.653378765879864e-10
3.775761856727485e-10
3.902147055453153e-10
4.032661898742224e-10
4.167437875739095e-10
4.306610546876696e-10
4.450319666160869e-10
4.598709307007599e-10
4.751927991731876e-10
4.910128824790563e-10
5.073469629883755e-10
5.242113091023114e-10
5.416226897676565e-10
5.595983894104097e-10
5.781562232999821e-10
5.973145533561314e-10
6.170923044108112e-10
6.375089809375661e-10
6.585846842614081e-10
6.803401302624998e-10
7.027966675872474e-10
7.259762963807919e-10
7.499016875552706e-10
7.745962026086415e-10
8.000839140091637e-10
8.263896261610615e-10
8.535388969673115e-10
8.815580600059911e-10
9.104742473368639e-10
9.403154129555264e-10
9.711103569127139e-10
1.002888750116981e-09
1.035681159839363e-09
1.069519075939058e-09
1.104434937829762e-09
1.140462162206837e-09
1.177635171555781e-09
1.21598942346336e-09
1.255561440752902e-09
1.296388842466241e-09
1.338510375714946e-09
1.381965948424509e-09
1.426796662995234e-09
1.473044850904861e-09
1.520754108277809e-09
1.569969332447358e-09
1.620736759537033e-09
1.673104003088835e-09
1.727120093765943e-09
1.78283552015889e-09
1.84030227072438e-09
1.899573876887233e-09
1.960705457336003e-09
2.023753763544473e-09
2.088777226551077e-09
2.155836005030088e-09
2.224992034688289e-09
2.296309079022635e-09
2.369852781474643e-09
2.44569071901823e-09
2.52389245721919e-09
2.604529606804591e-09
2.687675881782062e-09
2.773407159149706e-09
2.861801540238095e-09
2.952939413727486e-09
3.046903520383577e-09
3.143779019557333e-09
3.243653557494339e-09
3.346617337501347e-09
3.452763192017942e-09
3.562186656643148e-09
3.674986046167663e-09
3.791262532663921e-09
3.911120225686874e-09
4.034666254640355e-09
4.162010853365465e-09
4.293267447007366e-09
4.428552741219989e-09
4.567986813768525e-09
4.711693208591467e-09
4.859799032385537e-09
5.012435053777667e-09
5.169735805150925e-09
5.331839687191943e-09
5.498889076229615e-09
5.671030434436204e-09
5.848414422963295e-09
6.03119601808884e-09
6.219534630449835e-09
6.413594227440715e-09
6.613543458856319e-09
6.819555785863267e-09
7.031809613382124e-09
7.250488425967959e-09
7.475780927276636e-09
7.707881183207983e-09
7.946988768817784e-09
8.193308919093261e-09
8.447052683689874e-09
8.708437085727422e-09
8.977685284748758e-09
9.255026743943311e-09
9.54069740174334e-09
9.834939847901697e-09
1.013800350416235e-08
1.045014480963784e-08
1.07716274110112e-08
1.110272235768186e-08
1.144370830197751e-08
1.179487170455749e-08
1.215650704513708e-08
1.252891703866169e-08
1.29124128570681e-08
1.33073143567679e-08
1.371395031199484e-08
1.413265865416006e-08
1.456378671736309e-08
1.500769149020658e-08
1.546473987407362e-08
1.593530894801994e-08
1.641978624044771e-08
1.691857000772146e-08
1.743206951989767e-08
1.796070535374013e-08
1.850490969319805e-08
1.906512663752653e-08
1.964181251723547e-08
2.023543621805517e-08
2.084647951311337e-08
2.147543740351987e-08
2.212281846756046e-08
2.278914521871125e-08
2.347495447267804e-08
2.418079772368473e-08
2.49072415302242e-08
2.565486791050531e-08
2.642427474782001e-08
2.721607620607441e-08
2.803090315571777e-08
2.886940361032283e-08
2.9732243174068e-08
3.062010550037752e-08
3.153369276198621e-08
3.247372613269845e-08
3.344094628111705e-08
3.443611387662091e-08
3.546001010788696e-08
3.651343721424118e-08
3.759721903014911e-08
3.871220154314792e-08
3.985925346553377e-08
4.10392668201324e-08
4.22531575404722e-08
4.350186608570232e-08
4.478635807059667e-08
4.610762491099298e-08
4.746668448502275e-08
4.886458181050739e-08
5.030238973887945e-08
5.178120966602468e-08
5.330217226042625e-08
5.48664382090117e-08
5.647519898110955e-08
5.812967761093474e-08
5.983112949901953e-08
6.158084323303297e-08
6.338014142842148e-08
6.523038158933716e-08
6.713295699029618e-08
6.908929757906229e-08
7.110087090121533e-08
7.316918304691158e-08
7.529577962033478e-08
7.748224673234652e-08
7.97302120168639e-08
8.204134567149917e-08
8.441736152300889e-08
8.686001811810658e-08
8.937111984020506e-08
9.195251805268519e-08
9.460611226926337e-08
9.733385135207956e-08
1.00137734738114e-07
1.030198136945742e-07
1.059821926038787e-07
1.090270302789194e-07
1.121565413092494e-07
1.153729974388976e-07
1.186787289764997e-07
1.220761262384658e-07
1.25567641025907e-07
1.291557881360621e-07
1.328431469089895e-07
1.366323628102959e-07
1.405261490506804e-07
1.445272882431108e-07
1.486386340984501e-07
1.528631131603731e-07
1.572037265804158e-07
1.616635519340438e-07
1.662457450786245e-07
1.709535420542119e-07
1.757902610280599e-07
1.807593042838162e-07
1.858641602563639e-07
1.911084056132866e-07
1.964957073839518e-07
2.020298251372446e-07
2.077146132089883e-07
2.135540229801209e-07
2.195521052066941e-07
2.2571301240281e-07
2.320410012776271e-07
2.385404352275724e-07
2.452157868849312e-07
2.520716407240083e-07
2.59112695726086e-07
2.66343768104409e-07
2.737697940904555e-07
2.813958327827945e-07
2.892270690598438e-07
2.972688165578493e-07
3.055265207154707e-07
3.140057618863469e-07
3.227122585210709e-07
3.31651870420019e-07
3.408306020584863e-07
3.502546059856594e-07
3.599301862989064e-07
3.698638021950212e-07
3.800620715999045e-07
3.905317748783985e-07
4.012798586258352e-07
4.123134395430563e-07
4.236398083965465e-07
4.352664340654395e-07
4.472009676772372e-07
4.594512468339063e-07
4.720252999303553e-07
4.8493135056704e-07
4.981778220586554e-07
5.117733420409018e-07
5.257267471772047e-07
5.400470879674869e-07
5.547436336610178e-07
5.698258772754464e-07
5.853035407240826e-07
6.0118658005372e-07
6.174851907950523e-07
6.34209813428077e-07
6.513711389646569e-07
6.689801146506586e-07
6.870479497899541e-07
7.055861216927869e-07
7.246063817508997e-07
7.441207616419064e-07
7.641415796655437e-07
7.846814472142978e-07
8.057532753811049e-07
8.273702817067355e-07
8.495459970697047e-07
8.722942727213894e-07
8.956292874692172e-07
9.195655550107862e-07
9.441179314218776e-07
9.693016228013386e-07
9.95132193075765e-07
1.021625571967257e-06
1.048798063127162e-06
1.0766663524392e-06
1.105247516495054e-06
1.134559031245841e-06
1.164618780832718e-06
1.195445066600184e-06
1.227056616295366e-06
1.25947259345696e-06
1.29271260699737e-06
1.326796720981729e-06
1.361745464607437e-06
1.397579842388061e-06
1.434321344545455e-06
1.471991957613941e-06
1.51061417526056e-06
1.550211009325421e-06
1.590806001086186e-06
1.632423232751082e-06
1.675087339184353e-06
1.718823519868744e-06
1.763657551109201e-06
1.809615798482372e-06
1.856725229536426e-06
1.905013426745655e-06
1.954508600724646e-06
2.005239603706811e-06
2.057235943291996e-06
2.11052779646812e-06
2.165146023911772e-06
2.22112218457297e-06
2.278488550549112e-06
2.337278122253308e-06
2.397524643882476e-06
2.459262619190614e-06
2.522527327572681e-06
2.587354840464605e-06
2.653782038065148e-06
2.721846626385319e-06
2.79158715463126e-06
2.863043032926324e-06
2.936254550378541e-06
3.011262893499474e-06
3.088110164980811e-06
3.166839402834703e-06
3.2474945999045e-06
3.330120723752267e-06
3.414763736929718e-06
3.501470617639131e-06
3.590289380791075e-06
3.681269099466082e-06
3.774459926786819e-06
3.86991311820816e-06
3.967681054232292e-06
4.067817263556157e-06
4.170376446658673e-06
4.275414499835165e-06
4.382988539686696e-06
4.493156928072208e-06
4.605979297531003e-06
4.721516577183892e-06
4.839831019120854e-06
4.960986225283504e-06
5.085047174850735e-06
5.212080252135961e-06
5.342153275004465e-06
5.475335523819601e-06
5.611697770926855e-06
5.751312310684044e-06
5.894252990047793e-06
6.040595239724405e-06
6.19041610589513e-06
6.343794282525127e-06
6.500810144265434e-06
6.661545779958075e-06
6.826085026753871e-06
6.994513504853234e-06
7.166918652879402e-06
7.343389763895429e-06
7.524018022074361e-06
7.7088965400334e-06
7.898120396843485e-06
8.091786676723652e-06
8.289994508432781e-06
8.492845105368474e-06
8.700441806385064e-06
8.912890117342346e-06
9.130297753395677e-06
9.352774682040218e-06
9.58043316692051e-06
9.813387812417526e-06
1.005175560902595e-05
1.029565597953243e-05
1.05452108260099e-05
1.080054457763766e-05
1.10617842393626e-05
1.132905944141278e-05
1.160250248967723e-05
1.188224841696537e-05
1.216843503515919e-05
1.24612029882722e-05
1.276069580642834e-05
1.306705996077538e-05
1.338044491934706e-05
1.370100320388744e-05
1.402889044765301e-05
1.436426545420651e-05
1.470729025721739e-05
1.505813018128445e-05
1.541695390379496e-05
1.578393351783665e-05
1.615924459617691e-05
1.654306625632657e-05
1.693558122670223e-05
1.733697591390503e-05
1.77474404711313e-05
1.816716886773083e-05
1.85963589599313e-05
1.903521256274405e-05
1.94839355230689e-05
1.99427377940153e-05
2.041183351045718e-05
2.089144106583839e-05
2.138178319024849e-05
2.188308702978422e-05
2.239558422721731e-05
2.291951100398481e-05
2.345510824352322e-05
2.400262157596185e-05
2.45623014641976e-05
2.513440329136834e-05
2.571918744974502e-05
2.631691943106184e-05
2.692786991830435e-05
2.755231487897589e-05
2.819053565986193e-05
2.8842819083313e-05
2.950945754506652e-05
3.019074911362885e-05
3.088699763123876e-05
3.159851281643294e-05
3.232561036823399e-05
3.306861207198536e-05
3.382784590685229e-05
3.460364615501326e-05
3.539635351256055e-05
3.620631520213747e-05
3.703388508732964e-05
3.787942378883803e-05
3.874329880245266e-05
3.962588461885351e-05
4.052756284526e-05
4.14487223289535e-05
4.238975928269821e-05
4.335107741208148e-05
4.433308804479969e-05
4.533621026191699e-05
4.636087103111492e-05
4.740750534196493e-05
4.847655634324333e-05
4.956847548231987e-05
5.068372264663911e-05
5.182276630732593e-05
5.298608366493633e-05
5.417416079738568e-05
5.538749281007494e-05
5.662658398824365e-05
5.789194795157884e-05
5.918410781110324e-05
6.050359632837224e-05
6.185095607700622e-05
6.322673960658676e-05
6.463150960894296e-05
6.606583908685783e-05
6.753031152521983e-05
6.90255210646546e-05
7.055207267765549e-05
7.211058234725127e-05
7.370167724823379e-05
7.532599593097871e-05
7.698418850788546e-05
7.867691684246752e-05
8.040485474112427e-05
8.21686881476192e-05
8.396911534030384e-05
8.58068471321039e-05
8.768260707331567e-05
8.959713165722435e-05
9.155117052859066e-05
9.354548669502997e-05
9.558085674131182e-05
9.765807104661678e-05
9.977793400478514e-05
0.0001019412642475739
0.0001041488948709726
0.0001064016736645988
0.0001087004633442059
0.0001110461417873388
0.0001134396022721682
0.0001158817537195349
0.0001183735209382409
0.0001209158448736126
0.0001235096828593771
0.0001261560088728768
0.0001288558137936658
0.0001316101056655049
0.000134419909961811
0.0001372862698545699
0.0001402102464867649
0.0001431929192483482
0.0001462353860557808
0.0001493387636351946
0.0001525041878091877
0.0001557328137872999
0.0001590258164602053
0.0001623843906976417
0.0001658097516501322
0.000169303135054505
0.000172865797543277
0.0001764990169579102
0.0001802040926659894
0.0001839823458823495
0.000187835119994193
0.000191763780890216
0.0001957697172938023
0.0001998543411003023
0.0002040190877184289
0.0002082654164158176
0.0002125948106687794
0.0002170087785162757
0.0002215088529181535
0.0002260965921176848
0.0002307735800084208
0.000235541426505427
0.0002404017679208952
0.0002453562673442068
0.0002504066150264533
0.0002555545287694484
0.000260801754319291
0.0002661500657644763
0.0002716012659386261
0.0002771571868278295
0.0002828196899826837
0.0002885906669349948
0.0002944720396192537
0.0003004657607988412
0.0003065738144970567
0.0003127982164329719
0.0003191410144621394
0.0003256042890222152
0.0003321901535834807
0.0003389007551043612
0.0003457382744919018
0.0003527049270672824
0.0003598029630363828
0.000367034667965429
0.0003744023632617555
0.0003819084066597075
0.0003895551927117263
0.0003973451532846237
0.0004052807580611056
0.0004133645150465395
0.0004215989710810264
0.0004299867123567755
0.0004385303649408369
0.0004472325953032133
0.000456096110850337
0.0004651236604640174
0.0004743180350457948
0.0004836820680668308
0.0004932186361232417
0.0005029306594969763
0.0005128211027222825
0.0005228929751576927
0.0005331493315636506
0.0005435932726857344
0.0005542279458435334
0.0005650565455251895
0.0005760823139876162
0.0005873085418624373
0.0005987385687676258
0.0006103757839249207
0.0006222236267829838
0.0006342855876463442
0.000646565208310125
0.0006590660827006249
0.0006717918575216831
0.0006847462329069133
0.0006979329630777934
0.0007113558570076347
0.0007250187790914136
0.0007389256498215336
0.0007530804464694527
0.0007674872037732867
0.0007821500146312839
0.0007970730308012518
0.0008122604636059693
0.0008277165846444816
0.0008434457265094177
0.0008594522835102077
0.0008757407124023192
0.0008923155331224251
0.0009091813295295649
0.0009263427501522702
0.0009438045089416389
0.0009615713860304222
0.0009796482284980543
0.0009980399511416267
0.001016751537252876
0.001035788039401071
0.00105515458022189
0.001074856353212199
0.001094898623530791
0.001115286728805037
0.001136026079943448
0.001157122161954116
0.001178580534769047
0.001200406834074385
0.001222606772146439
0.00124518613869357
0.001268150801703905
0.001291506708298798
0.001315259885592088
0.001339416441555126
0.001363982565887436
0.00138896453089321
0.001414368692363314
0.001440201490463038
0.00146646945062541
0.001493179184450072
0.00152033739060774
0.001547950855750106
0.001576026455425248
0.001604571154998434
0.001633592010578341
0.001663096169948601
0.00169309087350464
0.001723583455195763
0.001754581343472458
0.001786092062238871
0.001818123231810312
0.001850682569875913
0.001883777892466207
0.001917417114925645
0.001951608252890036
0.0019863594232688
0.002021678845231907
0.002057574841201605
0.00209405583784872
0.002131130367093503
0.002168807067110988
0.002207094683340746
0.002246002069501024
0.002285538188607068
0.002325712113993657
0.002366533030341807
0.002408010234709375
0.002450153137565711
0.002492971263830076
0.00253647425391381
0.002580671864766288
0.002625573970924265
0.002671190565564842
0.002717531761561743
0.002764607792544814
0.002812429013962833
0.002861005904149266
0.002910349065390993
0.002960469224999956
0.003011377236387424
0.003063084080141016
0.003115600865104034
0.003168938829457397
0.00322310934180364
0.003278123902253194
0.003333994143512524
0.003390731831974283
0.003448348868809094
0.003506857291059022
0.003566269272732413
0.003626597125900138
0.003687853301793055
0.003750050391900382
0.003813201129069048
0.003877318388603748
0.0039424151893676
0.004008504694883275
0.004075600214434206
0.004143715204166136
0.004212863268188464
0.004283058159675467
0.004354313781966917
0.00442664418966839
0.004500063589750659
0.004574586342648208
0.004650226963356628
0.004727000122528735
0.004804920647569217
0.004884003523727544
0.00496426389518915
0.005045717066164427
0.005128378501975485
0.005212263830140512
0.005297388841455446
0.005383769491072808
0.005471421899577274
0.005560362354058301
0.005650607309178865
0.005742173388240793
0.005835077384245871
0.005929336260953029
0.006024967153930903
0.006121987371605983
0.006220414396305721
0.006320265885296505
0.006421559671816586
0.006524313766103174
0.006628546356413566
0.006734275810040682
0.00684152067432181
0.006950299677640964
0.007060631730424511
0.007172535926129361
0.0072860315422243
0.007401138041163225
0.00751787507135072
0.007636262468099596
0.007756320254579682
0.007878068642758029
0.008001528034330355
0.008126719021642912
0.008253662388604808
0.00838237911159084
0.008512890360333633
0.008645217498806011
0.00877938208609191
0.008915405877246863
0.009053310824146924
0.009193119076325994
0.009334852981801126
0.00947853508788575
0.009624188141990113
0.009771835092409135
0.009921499089096873
0.01007320348442748
0.01022697183394254
0.01038282789708388
0.01054079563791222
0.010700899225811
0.01086316303617474
0.01102761165108235
0.0111942698599544
0.01136316266019414
0.01153431525781218
0.01170775306803445
0.01188350171589257
0.01206158703679712
0.01224203507709269
0.01242487209459514
0.01261012455910956
0.01279781915293005
0.01298798277131945
0.01318064252297038
0.01337582573044508
0.01357355993059569
0.01377387287496367
0.01397679253015765
0.01418234707821032
0.01439056491691316
0.01460147466012888
0.01481510513808142
0.01503148539762303
0.01525064470247758
0.01547261253346068
0.01569741858867515
0.01592509278368228
0.01615566525164836
0.01638916634346531
0.0166256266278464
0.0168650768913956
0.01710754813865016
0.01735307159209695
0.01760167869216123
0.01785340109716814
0.01810827068327587
0.01836631954438022
0.01862757999199145
0.01889208455508084
0.01915986597989799
0.0194309572297588
0.01970539148480209
0.01998320214171637
0.02026442281343484
0.02054908732879976
0.02083722973219341
0.02112888428313847
0.02142408545586422
0.02172286793884087
0.02202526663427934
0.02233131665759787
0.02264105333685427
0.02295451221214308
0.02327172903495848
0.02359273976752046
0.02391758058206666
0.02424628786010689
0.02457889819164172
0.02491544837434361
0.02525597541270097
0.02560051651712411
0.02594910910301332
0.02630179078978881
0.02665859939988069
0.02701957295768092
0.02738474968845426
0.02775416801721076
0.02812786656753623
0.02850588416038312
0.02888825981282001
0.0292750327367388
0.02966624233752176
0.03006192821266408
0.03046213015035565
0.03086688812801952
0.03127624231080621
0.03169023305004556
0.0321089008816538
0.03253228652449668
0.03296043087870733
0.03339337502396011
0.03383116021769866
0.0342738278933177
0.03472141965829963
0.0351739772923048
0.03563154274521457
0.03609415813512754
0.03656186574630962
0.03703470802709485
0.03751272758773931
0.03799596719822684
0.03848446978602677
0.03897827843380112
0.03947743637706509
0.03998198700179723
0.0404919738419996
0.04100744057720804
0.04152843102995365
0.04205498916317355
0.04258715907756964
0.04312498500891652
0.04366851132532239
0.04421778252443267
0.04477284323058594
0.04533373819191798
0.04590051227741152
0.04647321047389589
0.04705187788299479
0.04763655971801797
0.0482273013008053
0.04882414805851348
0.04942714552035113
0.05003633931426229
0.05065177516355344
0.05127349888346971
0.05190155637771508
0.05253599363492072
0.05317685672505738
0.05382419179579589
0.05447804506881079
0.05513846283603224
0.05580549145584204
0.05647917734921423
0.05715956699580425
0.05784670692997958
0.05854064373679917
0.05924142404793527
0.05994909453754164
0.06066370191806779
0.0613852929360165
0.06211391436764764
0.06284961301462742
0.06359243569962124
0.06434242926183266
0.06509964055248899
0.06586411643026736
0.06663590375667279
0.06741504939135497
0.06820160018737401
0.06899560298641191
0.06979710461392748
0.07060615187425782
0.07142279154566597
0.07224707037533337
0.07307903507429836
0.07391873231234267
0.0747662087128214
0.07562151084744077
0.07648468523098269
0.07735577831597493
0.07823483648730865
0.07912190605680537
0.08001703325772709
0.08092026423923654
0.08183164506080591
0.08275122168657141
0.0836790399796379
0.08461514569633208
0.08555958448040289
0.08651240185717436
0.08747364322764398
0.08844335386253302
0.0894215788962892
0.09040836332103497
0.09140375198047138
0.09240778956372953
0.09342052059917712
0.0944419894481741
0.09547224029878282
0.09651131715942964
0.09755926385252096
0.09861612400801345
0.09968194105693645
0.1007567582248713
0.1018406185253854
0.1029335647534218
0.1040356394786428
0.1051468850387371
0.1062673435326751
0.1073970568139297
0.1085360664836525
0.1096844138838078
0.1108421400902688
0.1120092859058741
0.113185891853442
0.1143719981687496
0.1155676447934739
0.1167728713680923
0.1179877172247531
0.119212221380102
0.1204464225280807
0.121690359032689
0.1229440689207102
0.1242075898744081
0.1254809592241903
0.1267642139412388
0.1280573906301124
0.129360525521318
0.1306736544638518
0.1319968129177168
0.1333300359464089
0.1346733582093764
0.1360268139544588
0.1373904370102959
0.1387642607787148
0.1401483182270963
0.1415426418807151
0.1429472638150643
0.1443622156481547
0.1457875285327984
0.1472232331488749
0.148669359695578
0.1501259378836446
0.1515929969275741
0.1530705655378326
0.1545586719130371
0.1560573437321383
0.1575666081465842
0.1590864917724771
0.1606170206827253
0.1621582203991786
0.1637101158847653
0.1652727315356203
0.1668460911732112
0.1684302180364549
0.1700251347738441
0.1716308634355592
0.173247425465592
0.1748748416938642
0.1765131323283511
0.1781623169472095
0.1798224144909101
0.1814934432543778
0.183175420879137
0.1848683643454677
0.1865722899645742
0.1882872133707599
0.1900131495136182
0.1917501126502374
0.1934981163374237
0.1952571734239313
0.1970272960427236
0.1988084956032431
0.2006007827837106
0.2024041675234358
0.2042186590151642
0.2060442656974369
0.2078809952469853
0.2097288545711499
0.2115878498003241
0.2134579862804374
0.2153392685654603
0.2172317004099527
0.2191352847616362
0.221050023754009
0.2229759186989978
0.2249129700796489
0.2268611775428527
0.2288205398921227
0.2307910550804022
0.2327727202029312
0.2347655314901466
0.2367694843006391
0.2387845731141522
0.2408107915246364
0.2428481322333542
0.2448965870420376
0.2469561468461011
0.24902680162791
0.2511085404501112
0.2532013514490137
0.2553052218280454
0.2574201378512535
0.2595460848368866
0.2616830471510267
0.2638310082013027
0.2659899504306592
0.2681598553112055
0.2703407033381282
0.2725324740236804
0.2747351458912504
0.2769486964694924
0.2791731022865478
0.2814083388643426
0.2836543807129575
0.2859112013250903
0.2881787731705971
0.2904570676911142
0.2927460552947762
0.29504570535101
0.2973559861854299
0.2996768650748127
0.3020083082421744
0.3043502808519363
0.3067027470051811
0.3090656697350162
0.3114390110020296
0.3138227316898414
0.3162167916007669
0.3186211494515661
0.3210357628693179
0.3234605883873769
0.3258955814414553
0.3283406963658027
0.3307958863895015
0.3332611036328618
0.3357362991039444
0.338221422695185
0.3407164231801397
0.3432212482103438
0.345735844312287
0.3482601568845133
0.350794130194834
0.3533377073776679
0.3558908304314967
0.3584534402164588
0.3610254764520491
0.3636068777149634
0.3661975814370563
0.3687975239034399
0.3714066402507047
0.3740248644652735
0.3766521293818913
0.3792883666822454
0.3819335068937215
0.3845874793882984
0.387250212381574
0.3899216329319338
0.3926016669398643
0.3952902391473912
0.3979872731376717
0.4006926913347334
0.4034064150033361
0.4061283642490087
0.4088584580181946
0.4115966140985818
0.4143427491195501
0.4170967785527843
0.4198586167130323
0.4226281767590038
0.4254053706944381
0.4281901093693091
0.4309823024811892
0.4337818585767611
0.4365886850534962
0.4394026881614688
0.4422237730053518
0.4450518435465374
0.4478868026054422
0.4507285518639577
0.4535769918680595
0.456432022030575
0.4592935406341198
0.4621614448341761
0.4650356306623544
0.4679159930297955
0.4708024257307525
0.4736948214463177
0.4765930717483254
0.4794970671034142
0.4824066968772467
0.485321849338904
0.4882424116654339
0.4911682699465663
0.494099309189604
0.4970354133244623
0.4999764652088771
0.5029223466337942
0.5058729383289045
0.5088281199683552
0.5117877701766222
0.5147517665345575
0.5177199855855873
0.520692302842093
0.5236685927919439
0.5266487289052081
0.5296325836410175
0.5326200284546135
0.5356109338045379
0.5386051691600118
0.5416026030084672
0.544603102863243
0.5476065352714479