/*--------------------------------*- C++ -*----------------------------------*\
| =========                 |                                                 |
| \\      /  F ield         | OpenFOAM: The Open Source CFD Toolbox           |
|  \\    /   O peration     | Version:  2412                                  |
|   \\  /    A nd           | Website:  www.openfoam.com                      |
|    \\/     M anipulation  |                                                 |
\*---------------------------------------------------------------------------*/
FoamFile
{
    version     2.0;
    format      ascii;
    arch        "LSB;label=32;scalar=64";
    class       volScalarField;
    location    "0";
    object      T_0_0;
}
// * * * * * * * * * * * * * * * * * * * * * * * * * * * * * * * * * * * * * //

dimensions      [0 0 0 1 0 0 0];

internalField   nonuniform List<scalar> 
4000
(
1.293029509346832e-14
1.345764727238799e-14
1.400615694759635e-14
1.457665847682658e-14
1.517001853092846e-14
1.578713732162389e-14
1.64289498749754e-14
1.709642735223828e-14
1.779057841981707e-14
1.85124506701174e-14
1.926313209513973e-14
2.00437526147346e-14
2.08554856614991e-14
2.169954982437428e-14
2.257721055306442e-14
2.348978192548671e-14
2.443862848052694e-14
2.542516711846558e-14
2.645086907151584e-14
2.751726194700724e-14
2.862593184583057e-14
2.977852555886255e-14
3.097675284416884e-14
3.222238878790289e-14
3.35172762518971e-14
3.4863328411071e-14
3.626253138387148e-14
3.771694695908835e-14
3.922871542249032e-14
4.08000584868652e-14
4.243328232915201e-14
4.41307807385042e-14
4.589503837923391e-14
4.772863417274965e-14
4.963424480271779e-14
5.16146483478485e-14
5.367272804683777e-14
5.581147620018113e-14
5.803399821370509e-14
6.034351678886784e-14
6.274337626501606e-14
6.523704711900803e-14
6.782813062775145e-14
7.052036369944725e-14
7.331762387948328e-14
7.622393453716886e-14
7.924347023967127e-14
8.238056231978793e-14
8.563970464435281e-14
8.902555959037153e-14
9.254296423617535e-14
9.619693677516476e-14
9.99926831599531e-14
1.039356039850055e-13
1.080313016161322e-13
1.122855875754885e-13
1.167044901910216e-13
1.212942625196265e-13
1.260613905535597e-13
1.310126017200288e-13
1.36154873684161e-13
1.414954434659406e-13
1.470418168820632e-13
1.52801778323986e-13
1.587834008839072e-13
1.649950568407125e-13
1.714454285184488e-13
1.781435195301725e-13
1.850986664206149e-13
1.923205507213877e-13
1.998192114330689e-13
2.076050579489074e-13
2.156888834353774e-13
2.24081878685369e-13
2.327956464603398e-13
2.418422163381981e-13
2.512340600844266e-13
2.609841075643333e-13
2.711057632151414e-13
2.816129230970281e-13
2.925199925430612e-13
3.038419044285106e-13
3.155941380807779e-13
3.277927388518146e-13
3.404543383757654e-13
3.535961755351308e-13
3.672361181597429e-13
3.813926854834394e-13
3.960850713843507e-13
4.113331684353679e-13
4.271575927924551e-13
4.435797099491724e-13
4.606216613869355e-13
4.783063921512569e-13
4.966576793854958e-13
5.157001618544145e-13
5.354593704911524e-13
5.559617600020902e-13
5.772347415654355e-13
5.993067166603482e-13
6.222071120648617e-13
6.459664160617404e-13
6.706162158932176e-13
6.961892365063164e-13
7.227193806323969e-13
7.502417702454387e-13
7.787927894455447e-13
8.084101288152293e-13
8.391328312979599e-13
8.710013396497034e-13
9.040575455162292e-13
9.383448401902444e-13
9.739081671046511e-13
1.010794076119489e-12
1.049050779662615e-12
1.088728210785533e-12
1.129878083198191e-12
1.172553953348374e-12
1.216811284613676e-12
1.26270751367583e-12
1.310302119150097e-12
1.359656692543771e-12
1.410835011621463e-12
1.46390311625602e-12
1.518929386847683e-12
1.575984625395734e-12
1.635142139310321e-12
1.696477828054356e-12
1.760070272709019e-12
1.826000828558219e-12
1.894353720791955e-12
1.96521614343004e-12
2.038678361572384e-12
2.114833817084214e-12
2.193779237829055e-12
2.275614750564806e-12
2.360443997623247e-12
2.448374257495566e-12
2.53951656945197e-12
2.633985862325986e-12
2.731901087599675e-12
2.833385356928694e-12
2.938566084252254e-12
3.047575132635779e-12
3.160548966000558e-12
3.277628805897659e-12
3.398960793490437e-12
3.524696156912572e-12
3.654991384176633e-12
3.790008401810972e-12
3.929914759410638e-12
4.074883820291751e-12
4.225094958446607e-12
4.380733762001121e-12
4.541992243384244e-12
4.70906905642385e-12
4.882169720591943e-12
5.061506852627143e-12
5.247300405771399e-12
5.43977791686348e-12
5.639174761540633e-12
5.845734417806904e-12
6.05970873823443e-12
6.281358231073354e-12
6.510952350552642e-12
6.748769796665074e-12
6.995098824736779e-12
7.250237565091352e-12
7.514494353129945e-12
7.788188070154793e-12
8.071648495278674e-12
8.36521666876783e-12
8.669245267181993e-12
8.984098990681129e-12
9.310154962884006e-12
9.647803143673316e-12
9.997446755353373e-12
1.035950272258209e-11
1.073440212650701e-11
1.11225906735532e-11
1.152452917932049e-11
1.194069406806344e-11
1.237157788824109e-11
1.281768984463905e-11
1.32795563475806e-11
1.37577215797598e-11
1.42527480812446e-11
1.47652173532175e-11
1.529573048103433e-11
1.584490877720145e-11
1.641339444488942e-11
1.700185126262151e-11
1.761096529078895e-11
1.824144560067238e-11
1.889402502666146e-11
1.956946094239176e-11
2.02685360615349e-11
2.099205926400254e-11
2.174086644834517e-11
2.251582141115376e-11
2.331781675429204e-11
2.414777482081387e-11
2.500664866044554e-11
2.589542302553969e-11
2.681511539843066e-11
2.776677705115526e-11
2.875149413852293e-11
2.977038882555785e-11
3.082462045035519e-11
3.191538672343607e-11
3.30439249647046e-11
3.421151337915768e-11
3.541947237251589e-11
3.666916590799378e-11
3.796200290544988e-11
3.929943868420464e-11
4.068297645084048e-11
4.211416883335179e-11
4.359461946303174e-11
4.512598460554865e-11
4.670997484267941e-11
4.834835680623686e-11
5.004295496574989e-11
5.179565347151754e-11
5.360839805469123e-11
5.548319798610268e-11
5.742212809558429e-11
5.942733085360592e-11
6.150101851707223e-11
6.364547534121332e-11
6.586305985952263e-11
6.815620723378254e-11
7.052743167625078e-11
7.297932894616463e-11
7.551457892275568e-11
7.813594825705872e-11
8.084629310483532e-11
8.364856194302772e-11
8.65457984721965e-11
8.954114460749833e-11
9.263784356080019e-11
9.583924301663474e-11
9.914879840473674e-11
1.025700762720271e-10
1.061067577569426e-10
1.097626421691399e-10
1.135416506776333e-10
1.174478301105793e-10
1.214853568699376e-10
1.256585409643977e-10
1.299718301640018e-10
1.344298142800268e-10
1.390372295737711e-10
1.437989632979994e-10
1.487200583748951e-10
1.538057182145052e-10
1.590613116777214e-10
1.644923781880309e-10
1.7010463299629e-10
1.759039726030067e-10
1.818964803426252e-10
1.880884321345329e-10
1.9448630240557e-10
2.010967701889903e-10
2.079267254049447e-10
2.149832753277233e-10
2.22273751245074e-10
2.298057153151635e-10
2.375869676267835e-10
2.456255534686702e-10
2.539297708138668e-10
2.625081780253166e-10
2.713696017889443e-10
2.805231452807609e-10
2.899781965746055e-10
2.997444372973888e-10
3.098318515388701e-10
3.202507350231772e-10
3.310117045494783e-10
3.421257077094586e-10
3.536040328893619e-10
3.654583195647287e-10
3.777005688959956e-10
3.903431546334745e-10
4.03398834340447e-10
4.16880760943257e-10
4.308024946176542e-10
4.451780150207435e-10
4.600217338783066e-10
4.753485079373982e-10
4.911736522944288e-10
5.075129541092209e-10
5.243826867158611e-10
5.417996241413051e-10
5.597810560432032e-10
5.783448030784818e-10
5.975092327147539e-10
6.172932754967884e-10
6.377164417806419e-10
6.587988389484149e-10
6.805611891169281e-10
7.030248473539682e-10
7.262118204160635e-10
7.501447860221762e-10
7.748471126781085e-10
8.003428800667173e-10
8.266569000194671e-10
8.538147380852822e-10
8.818427357130934e-10
9.107680330648368e-10
9.406185924761469e-10
9.714232225823996e-10
1.003211603128351e-09
1.036014310479878e-09
1.06986284385699e-09
1.104789652307667e-09
1.140828162442735e-09
1.178012806952254e-09
1.216379053924802e-09
1.255963436991098e-09
1.296803586314542e-09
1.33893826045125e-09
1.382407379103283e-09
1.42725205678887e-09
1.473514637454504e-09
1.521238730054023e-09
1.570469245120868e-09
1.621252432359774e-09
1.673635919285621e-09
1.727668750936992e-09
1.783401430693575e-09
1.840885962226439e-09
1.900175892611763e-09
1.961326356638543e-09
2.024394122342541e-09
2.08943763779841e-09
2.156517079203994e-09
2.225694400290424e-09
2.297033383093593e-09
2.370599690122663e-09
2.446460917962424e-09
2.524686652347714e-09
2.605348524748118e-09
2.6885202705029e-09
2.77427778854711e-09
2.862699202770054e-09
2.953864925049481e-09
3.047857720004787e-09
3.14476277151472e-09
3.244667751045006e-09
3.347662887833754e-09
3.453841040982413e-09
3.563297773502166e-09
3.676131428366533e-09
3.79244320662219e-09
3.912337247611251e-09
4.035920711359403e-09
4.163303863187009e-09
4.29460016059875e-09
4.429926342512234e-09
4.569402520884597e-09
4.713152274799591e-09
4.861302747077942e-09
5.013984743475676e-09
5.171332834536742e-09
5.333485460168175e-09
5.500585037006978e-09
5.672778068650207e-09
5.850215258820746e-09
6.033051627544706e-09
6.221446630415443e-09
6.415564281023989e-09
6.615573276634877e-09
6.821647127191193e-09
7.033964287731382e-09
7.252708294305116e-09
7.47806790347586e-09
7.710237235501504e-09
7.94941592128426e-09
8.195809253185376e-09
8.449628339802121e-09
8.711090264804858e-09
8.980418249937864e-09
9.257841822286272e-09
9.543596985916474e-09
9.837926397999065e-09
1.014107954952617e-08
1.045331295073636e-08
1.077489032136559e-08
1.110608278584295e-08
1.144716907355389e-08
1.179843572429637e-08
1.216017729905857e-08
1.253269659624873e-08
1.291630487351278e-08
1.331132207527543e-08
1.371807706614728e-08
1.413690787034082e-08
1.456816191724329e-08
1.501219629329588e-08
1.546937800033608e-08
1.594008422055688e-08
1.642470258824903e-08
1.692363146848779e-08
1.743728024293396e-08
1.796606960292315e-08
1.851043185001967e-08
1.907081120421403e-08
1.964766411995098e-08
2.02414596101768e-08
2.085267957859919e-08
2.148181916035619e-08
2.212938707129887e-08
2.279590596609342e-08
2.348191280535262e-08
2.418795923201762e-08
2.491461195720465e-08
2.566245315575002e-08
2.643208087167808e-08
2.722410943383419e-08
2.803916988191984e-08
2.887791040318057e-08
2.974099677999799e-08
3.062911284864366e-08
3.154296096945826e-08
3.248326250873032e-08
3.345075833254497e-08
3.444620931288659e-08
3.547039684628644e-08
3.652412338530449e-08
3.760821298315298e-08
3.872351185176307e-08
3.987088893361335e-08
4.105123648764129e-08
4.226547068956279e-08
4.351453224693915e-08
4.479938702933442e-08
4.612102671390894e-08
4.748046944681126e-08
4.887876052073575e-08
5.031697306901285e-08
5.179620877662028e-08
5.331759860850385e-08
5.488230355560318e-08
5.649151539899135e-08
5.814645749254722e-08
5.984838556457892e-08
6.159858853883805e-08
6.33983893753632e-08
6.524914593160978e-08
6.715225184432279e-08
6.910913743262983e-08
7.112127062283334e-08
7.319015789539264e-08
7.531734525460546e-08
7.750441922149296e-08
7.975300785041683e-08
8.206478176996555e-08
8.444145524865301e-08
8.688478728598724e-08
8.939658272947778e-08
9.197869341816954e-08
9.463301935328561e-08
9.736150989659649e-08
1.001661649971214e-07
1.030490364468094e-07
1.060122291658222e-07
1.09057902518103e-07
1.121882716578749e-07
1.154056089077795e-07
1.187122451693307e-07
1.221105713664176e-07
1.256030399225733e-07
1.29192166272749e-07
1.328805304103635e-07
1.366707784703955e-07
1.405656243492997e-07
1.445678513625665e-07
1.48680313940732e-07
1.529059393646946e-07
1.572477295411722e-07
1.617087628191814e-07
1.662921958484364e-07
1.710012654805627e-07
1.758392907140568e-07
1.808096746839297e-07
1.859159066970104e-07
1.911615643138797e-07
1.965503154784397e-07
2.020859206961346e-07
2.077722352618776e-07
2.136132115387352e-07
2.196129012884568e-07
2.257754580549407e-07
2.32105139601787e-07
2.386063104050722e-07
2.452834442025034e-07
2.521411266001653e-07
2.591840577380694e-07
2.664170550157493e-07
2.738450558791449e-07
2.814731206700985e-07
2.893064355397565e-07
2.973503154272046e-07
3.056102071047316e-07
3.140916922910769e-07
3.228004908341118e-07
3.317424639643791e-07
3.409236176209659e-07
3.503501058512156e-07
3.600282342857798e-07
3.699644636906468e-07
3.801654135976084e-07
3.906378660149051e-07
4.013887692196016e-07
4.124252416334512e-07
4.237545757838865e-07
4.353842423519014e-07
4.473218943086734e-07
4.59575371142565e-07
4.721527031785402e-07
4.850621159917188e-07
4.983120349170354e-07
5.119110896570005e-07
5.258681189894304e-07
5.401921755772483e-07
5.548925308823838e-07
5.699786801858783e-07
5.854603477162681e-07
6.013474918885078e-07
6.176503106555369e-07
6.343792469748437e-07
6.515449943921997e-07
6.691585027450216e-07
6.872309839875861e-07
7.057739181406764e-07
7.247990593679548e-07
7.443184421816768e-07
7.643443877802425e-07
7.848895105202148e-07
8.059667245253665e-07
8.275892504355011e-07
8.497706222977967e-07
8.725246946033819e-07
8.958656494720327e-07
9.198080039877983e-07
9.443666176885874e-07
9.695567002126246e-07
9.95393819104744e-07
1.021893907785797e-06
1.04907327368807e-06
1.076948606560118e-06
1.105536986944092e-06
1.134855894829004e-06
1.164923218483123e-06
1.19575726346912e-06
1.227376761845244e-06
1.259800881556172e-06
1.293049236017098e-06
1.327141893894739e-06
1.362099389088908e-06
1.397942730918458e-06
1.434693414515524e-06
1.472373431431835e-06
1.511005280461132e-06
1.550611978681774e-06
1.591217072723445e-06
1.632844650262509e-06
1.675519351749778e-06
1.719266382375404e-06
1.764111524275009e-06
1.810081148981682e-06
1.857202230128281e-06
1.905502356404668e-06
1.955009744774457e-06
2.00575325395622e-06
2.057762398173805e-06
2.111067361180767e-06
2.165699010563766e-06
2.221688912330165e-06
2.279069345784953e-06
2.337873318701999e-06
2.39813458279521e-06
2.459887649494854e-06
2.523167806034574e-06
2.588011131854631e-06
2.654454515326956e-06
2.7225356708079e-06
2.792293156024486e-06
2.863766389799909e-06
2.936995670124445e-06
3.012022192577945e-06
3.088888069109919e-06
3.167636347183648e-06
3.248311029290574e-06
3.330957092841688e-06
3.41562051044227e-06
3.502348270556798e-06
3.591188398570602e-06
3.682189978255695e-06
3.775403173647036e-06
3.870879251336793e-06
3.968670603193797e-06
4.068830769515328e-06
4.171414462618735e-06
4.276477590880426e-06
4.384077283229744e-06
4.494271914105797e-06
4.6071211288847e-06
4.722685869785515e-06
4.841028402262824e-06
4.962212341894232e-06
5.086302681771017e-06
5.213365820400552e-06
5.343469590128973e-06
5.476683286092562e-06
5.613077695707387e-06
5.752725128704908e-06
5.89569944772409e-06
6.042076099468001e-06
6.191932146434809e-06
6.345346299232662e-06
6.502398949487664e-06
6.663172203354994e-06
6.827749915642976e-06
6.99621772456008e-06
7.168663087094565e-06
7.345175315037992e-06
7.52584561166192e-06
7.710767109058793e-06
7.900034906158366e-06
8.093746107428903e-06
8.291999862275995e-06
8.494897405148538e-06
8.702542096364038e-06
8.915039463664685e-06
9.132497244514879e-06
9.355025429153116e-06
9.582736304409325e-06
9.815744498299652e-06
1.005416702541178e-05
1.029812333309119e-05
1.054773534844382e-05
1.080312752616438e-05
1.106442689720603e-05
1.133176311830257e-05
1.160526852235709e-05
1.188507816971e-05
1.21713299003005e-05
1.246416438673446e-05
1.276372518827266e-05
1.307015880575362e-05
1.338361473746525e-05
1.370424553597903e-05
1.40322068659618e-05
1.436765756297963e-05
1.471075969330853e-05
1.506167861476722e-05
1.542058303858675e-05
1.578764509233321e-05
1.616304038389756e-05
1.654694806657023e-05
1.69395509052149e-05
1.734103534355809e-05
1.775159157261133e-05
1.817141360024123e-05
1.86006993219054e-05
1.903965059257016e-05
1.948847329982749e-05
1.994737743822838e-05
2.041657718485023e-05
2.089629097611475e-05
2.138674158587655e-05
2.188815620479763e-05
2.240076652102824e-05
2.292480880221076e-05
2.346052397882703e-05
2.400815772890576e-05
2.456796056411075e-05
2.514018791722895e-05
2.572510023107633e-05
2.632296304884278e-05
2.693404710589495e-05
2.755862842305732e-05
2.819698840139197e-05
2.884941391849643e-05
2.951619742634121e-05
3.019763705066763e-05
3.089403669196715e-05
3.160570612806269e-05
3.233296111831344e-05
3.307612350946624e-05
3.383552134317303e-05
3.461148896519963e-05
3.540436713634352e-05
3.621450314508799e-05
3.704225092201189e-05
3.788797115598017e-05
3.875203141213551e-05
3.963480625171825e-05
4.053667735373356e-05
4.145803363849385e-05
4.239927139305792e-05
4.33607943985909e-05
4.434301405966988e-05
4.534634953556242e-05
4.637122787349565e-05
4.741808414395019e-05
4.848736157799466e-05
4.957951170669587e-05
5.069499450262072e-05
5.183427852346322e-05
5.299784105781726e-05
5.418616827312608e-05
5.539975536583131e-05
5.66391067137477e-05
5.790473603069541e-05
5.919716652341059e-05
6.051693105076549e-05
6.186457228532516e-05
6.324064287726642e-05
6.464570562068866e-05
6.608033362234473e-05
6.754511047281696e-05
6.904063042017352e-05
7.056749854612444e-05
7.212633094471466e-05
7.37177549035777e-05
7.534240908778234e-05
7.700094372629858e-05
7.869402080111486e-05
8.042231423903725e-05
8.218651010619416e-05
8.398730680528812e-05
8.582541527561031e-05
8.770155919586423e-05
8.961647518981301e-05
9.157091303479457e-05
9.356563587313049e-05
9.560142042645387e-05
9.767905721299648e-05
9.979935076786791e-05
0.0001019631198663418
0.0001041711977502036
0.0001064244323571759
0.0001087236865534584
0.0001110698383694144
0.0001134637812384385
0.0001159064242390303
0.0001183986923401223
0.0001209415266496722
0.0001235358846665745
0.0001261827405359077
0.0001288830853075649
0.0001316379271982845
0.0001344482918571325
0.0001373152226344492
0.0001402397808543163
0.0001432230460905613
0.0001462661164463342
0.0001493701088373057
0.0001525361592784992
0.0001557654231748038
0.0001590590756152026
0.0001624183116707423
0.0001658443466962893
0.0001693384166360916
0.0001729017783331978
0.0001765357098427551
0.0001802415107492244
0.0001840205024875483
0.0001878740286683079
0.0001918034554068905
0.0001958101716567235
0.0001998955895465937
0.0002040611447220856
0.0002083082966911837
0.0002126385291740659
0.0002170533504571216
0.0002215542937512309
0.0002261429175543458
0.0002308208060183871
0.0002355895693205252
0.0002404508440388348
0.0002454062935324033
0.0002504576083258972
0.0002556065064986167
0.0002608547340781061
0.0002662040654383114
0.0002716563037023543
0.0002772132811499227
0.0002828768596293543
0.0002886489309743868
0.0002945314174256848
0.0003005262720570854
0.0003066354792066798
0.0003128610549127152
0.0003192050473543524
0.0003256695372973332
0.0003322566385445589
0.0003389684983916529
0.0003458072980874877
0.0003527752532997548
0.0003598746145855731
0.0003671076678671913
0.0003744767349128008
0.0003819841738224876
0.0003896323795193718
0.0003974237842459328
0.000405360858065586
0.0004134461093695019
0.0004216820853887341
0.0004300713727116424
0.0004386165978066843
0.0004473204275505757
0.0004561855697618276
0.0004652147737397417
0.0004744108308088244
0.000483776574868728
0.0004933148829496414
0.0005030286757732235
0.0005129209183191248
0.0005229946203970274
0.0005332528372243303
0.0005436986700094272
0.0005543352665406416
0.000565165821780822
0.0005761935784676191
0.000587421827719484
0.0005988539096473607
0.0006104932139721654
0.0006223431806479936
0.0006344073004911285
0.0006466891158148247
0.0006591922210699487
0.0006719202634913972
0.0006848769437503959
0.0006980660166126452
0.0007114912916023459
0.000725156633672096
0.0007390659638787033
0.0007532232600648822
0.000767632557546903
0.0007822979498081424
0.0007972235891985499
0.0008124136876401422
0.0008278725173383349
0.0008436044114993378
0.0008596137650534213
0.0008759050353842174
0.0008924827430639409
0.0009093514725946204
0.0009265158731552737
0.0009439806593550498
0.0009617506119923661
0.0009798305788200116
0.0009982254753161674
0.001016940285461458
0.001035980062521904
0.001055349929837851
0.001075055081618808
0.001095100783744254
0.001115492374570336
0.001136235265742505
0.001157334943013998
0.001178796967070244
0.001200626974359142
0.001222830677927142
0.001245413868261198
0.001268382414136535
0.001291742263470168
0.001315499444180222
0.001339660065051006
0.001364230316603748
0.001389216471973129
0.001414624887789354
0.001440462005065963
0.001466734350093187
0.001493448535336894
0.001520611260343099
0.001548229312647916
0.001576309568693026
0.001604858994746536
0.001633884647829259
0.001663393676646296
0.00169339332252394
0.001723890920351804
0.001754893899530196
0.001786409784922626
0.001818446197813364
0.001851010856870161
0.001884111579111869
0.001917756280881005
0.001951952978821241
0.00198670979085971
0.00202203493719399
0.002057936741283876
0.002094423630847721
0.002131504138863349
0.002169186904573427
0.002207480674495287
0.002246394303435098
0.002285936755506235
0.002326117105151847
0.002366944538171616
0.002408428352752379
0.002450577960502845
0.002493402887492022
0.002536912775291457
0.002581117382021192
0.002626026583399173
0.002671650373794227
0.002717998867282391
0.002765082298706437
0.002812911024738708
0.002861495524946911
0.002910846402862863
0.002960974387054181
0.003011890332198558
0.003063605220160826
0.003116130161072303
0.003169476394412758
0.003223655290094418
0.003278678349548291
0.0033345572068123
0.003391303629621471
0.003448929520499729
0.003507446917853377
0.003566867997065963
0.003627205071594517
0.003688470594067045
0.0037506771573809
0.003813837495802142
0.003877964486065598
0.003943071148475539
0.004009170648006776
0.004076276295405926
0.004144401548292914
0.004213560012262341
0.004283765441984683
0.004355031742306929
0.00442737296935287
0.004500803331622474
0.004575337191090408
0.004650989064303413
0.004727773623476406
0.004805705697587122
0.004884800273468984
0.004965072496902295
0.005046537673703183
0.005129211270810357
0.00521310891736944
0.005298246405814591
0.005384639692947332
0.005472304901012098
0.005561258318768782
0.005651516402561492
0.005743095777383805
0.005836013237939836
0.00593028574970144
0.006025930449960635
0.006122964648877763
0.006221405830524543
0.006321271653921966
0.006422579954073211
0.006525348742990644
0.006629596210716898
0.006735340726340353
0.006842600839003803
0.006951395278906791
0.007061742958301092
0.007173662972478898
0.007287174600754045
0.007402297307435155
0.00751905074279119
0.00763745474400883
0.007757529336141247
0.007879294733048188
0.008002771338327313
0.008127979746236013
0.008254940742603606
0.008383675305734053
0.008514204607298048
0.008646550013215208
0.008780733084524978
0.008916775578246888
0.00905469944822946
0.009194526845987337
0.009336280121526567
0.009479981824157588
0.009625654703295608
0.009773321709248337
0.009923005993990293
0.01007473091192361
0.01022852002062529
0.01038439708157981
0.01054238606089765
0.01070251113001899
0.01086479666640189
0.01102926725419543
0.01119594768489687
0.0113648629579925
0.01153603828158204
0.01170949907298664
0.01188527095933887
0.01206337977815596
0.01224385157789455
0.01242671261848789
0.01261198937186348
0.01279970852244282
0.01298989696762073
0.01318258181822644
0.01337779039896303
0.01357555024882758
0.0137758891215104
0.01397883498577261
0.01418441602580288
0.0143926606415519
0.01460359744904459
0.01481725528066987
0.01503366318544758
0.0152528504292714
0.01547484649512896
0.0156996810832968
0.01592738411151159
0.01615798571511633
0.01639151624718074
0.01662800627859665
0.01686748659814725
0.01710998821254921
0.01735554234646888
0.0176041804425108
0.01785593416117878
0.01811083538080894
0.01836891619747385
0.0186302089248592
0.01889474609411
0.01916256045364764
0.01943368496895746
0.01970815282234522
0.01998599741266341
0.02026725235500608
0.0205519514803727
0.02084012883529907
0.02113181868145707
0.02142705549522077
0.02172587396720032
0.02202830900174144
0.02233439571639158
0.022644169441332
0.02295766571877443
0.0232749203023237
0.02359596915630358
0.02392084845504814
0.02424959458215603
0.02458224412970868
0.02491883389745099
0.02525940089193506
0.02560398232562584
0.02595261561596859
0.02630533838441877
0.02666218845543134
0.02702320385541241
0.02738842281162988
0.02775788375108537
0.02813162529934447
0.02850968627932701
0.02889210571005629
0.02927892280536578
0.02967017697256573
0.03006590781106542
0.03046615511095434
0.03087095885154039
0.03128035919984359
0.03169439650904757
0.03211311131690629
0.03253654434410654
0.03296473649258548
0.03339772884380404
0.03383556265697441
0.03427827936724152
0.03472592058381905
0.03517852808807932
0.03563614383159589
0.03609880993413926
0.0365665686816265
0.03703946252402152
0.03751753407318868
0.03800082610069782
0.0384893815355816
0.03898324346204235
0.03948245511711167
0.03998705988826059
0.04049710131095886
0.04101262306618505
0.04153366897788704
0.04206028301039288
0.04259250926576856
0.04313039198112571
0.04367397552588175
0.04422330439896324
0.04477842322596116
0.04533937675623449
0.04590620985995925
0.04647896752512801
0.04705769485449676
0.0476424370624763
0.04823323947197561
0.04883014751118821
0.04943320671032655
0.05004246269830503
0.05065796119936666
0.05127974802965844
0.0519078690937511
0.05254237038110716
0.0531832979624925
0.05383069798633627
0.05448461667503424
0.05514510032120009
0.05581219528386062
0.0564859479845962
0.05716640490362916
0.05785361257585377
0.05854761758681553
0.05924846656863197
0.0599562061958606
0.06067088318131263
0.06139254427180973
0.06212123624388743
0.06285700589944389
0.06359990006133201
0.06434996556889806
0.06510724927346664
0.06587179803376601
0.06664365871130598
0.06742287816569387
0.06820950324989976
0.06900358080546755
0.06980515765766911
0.07061428061060547
0.07143099644225366
0.07225535189945888
0.07308739369287229
0.0739271684918371
0.07477472291921775
0.07563010354617751
0.07649335688690215
0.07736452939326983
0.07824366744946801
0.07913081736655989
0.08002602537699395
0.08092933762906376
0.08184080018131626
0.08276045899690559
0.08368835993789729
0.0846245487595212
0.08556907110437091
0.0865219724965566
0.08748329833580244
0.0884530938914968
0.08943140429669412
0.09041827454206293
0.09141374946978914
0.09241787376742694
0.09343069196170481
0.0944522484122811
0.09548258730545321
0.09652175264781895
0.0975697882598921
0.09862673776967223
0.09969264460616664
0.1007675519928689
0.1018515029411932
0.1029445402438626
0.1040467064682531
0.1051580439496994
0.1062785947847506
0.1074084008243905
0.1085475036672126
0.1096959446525545
0.1108537648535939
0.1120210050704033
0.1131977058229657
0.1143839073441523
0.1155796495726631
0.1167849721459276
0.1179999143929746
0.1192245153272587
0.1204588136394579
0.1217028476902357
0.1229566555029668
0.1242202747564326
0.1254937427774848
0.1267770965336763
0.1280703726258618
0.1293736072807702
0.1306868363435448
0.1320100952702608
0.1333434191204112
0.1346868425493653
0.1360403998008084
0.1374041246991499
0.1387780506419103
0.1401622105920873
0.1415566370704957
0.142961362148092
0.1443764174382733
0.1458018340891606
0.1472376427758649
0.148683873692734
0.150140556545581
0.1516077205439034
0.1530853943930878
0.154573606286593
0.1560723838981336
0.1575817543738431
0.1591017443244303
0.1606323798173324
0.1621736863688485
0.1637256889362783
0.1652884119100487
0.1668618791058408
0.1684461137567065
0.1700411385051942
0.1716469753954616
0.1732636458653985
0.1748911707387465
0.1765295702172215
0.1781788638726423
0.179839070639063
0.1815102088049136
0.1831922960051446
0.1848853492133841
0.1865893847341062
0.1883044181948058
0.1900304645381897
0.191767538014382
0.1935156521731465
0.1952748198561183
0.1970450531890632
0.1988263635741499
0.2006187616822483
0.2024222574452401
0.2042368600483663
0.2060625779225879
0.2078994187369797
0.20974738939115
0.2116064960076848
0.2134767439246311
0.2153581376880021
0.217250681044326
0.2191543769332186
0.2210692274799989
0.2229952339883406
0.2249323969329646
0.2268807159523632
0.2288401898415797
0.2308108165450157
0.2327925931492979
0.2347855158761799
0.2367895800754982
0.238804780218173
0.2408311098892617
0.2428685617810654
0.2449171276862862
0.2469767984912417
0.2490475641691327
0.2511294137733754
0.2532223354309824
0.2553263163360196
0.2574413427431083
0.2595673999610064
0.2617044723462425
0.2638525432968296
0.2660115952460341
0.2681816096562261
0.2703625670127925
0.272554446818127
0.2747572275856994
0.2769708868341874
0.2791954010816983
0.2814307458400673
0.2836768956092285
0.2859338238716785
0.2882015030870173
0.2904799046865722
0.2927689990681166
0.2950687555906643
0.2973791425693658
0.2997001272704847
0.3020316759064746
0.3043737536311469
0.3067263245349273
0.3090893516402204
0.3114627968968663
0.3138466211776934
0.3162407842741823
0.3186452448922162
0.3210599606479571
0.323484888063802
0.3259199825644671
0.328365198473169
0.3308204890079195
0.3332858062779236
0.3357611012801022
0.3382463238957181
0.3407414228871226
0.3432463458946154
0.3457610394334208
0.3482854488907889
0.3508195185232103
0.3533631914537567
0.3559164096695382
0.3584791140192978
0.3610512442111131
0.3636327388102409
0.3662235352370781
0.3688235697652597
0.3714327775198828
0.3740510924758606
0.376678447456414
0.3793147741316934
0.3819600030175356
0.3846140634743602
0.3872768837061968
0.389948390759855
0.3926285105242393
0.3953171677297887
0.3980142859480699
0.4007197875915184
0.4034335939133012
0.4061556250073554
0.4088857998085351
0.4116240360929425
0.4143702504783773
0.417124358424951
0.4198862742358462
0.4226559110582176
0.4254331808842607
0.428217994552418
0.4310102617487456
0.4338098910084253
0.4366167897174455
0.4394308641144161
0.4422520192925666
0.4450801592018677
0.4479151866513386
0.4507570033114981
0.4536055097169766
0.4564606052692843
0.4593221882397502
0.4621901557726015
0.4650644038882266
0.4679448274865795
0.4708313203507629
0.4737237751507573
0.4766220834473243
0.4795261356960716
0.4824358212516741
0.4853510283722697
0.4882716442240094
0.4911975548857745
0.4941286453540685
0.4970647995480588
0.5000059003147866
0.5029518294345576
0.5059024676264785
0.5088576945541705
0.511817388831643
0.5147814280293429
0.517749688680354
0.5207220462867799
0.5236983753262786
0.5266785492587744
0.5296624405333253
0.5326499205951698
0.5356408598929194
0.53863512788594
0.5416325930518844
0.5446331228943899