/*--------------------------------*- C++ -*----------------------------------*\
| =========                 |                                                 |
| \\      /  F ield         | OpenFOAM: The Open Source CFD Toolbox           |
|  \\    /   O peration     | Version:  2412                                  |
|   \\  /    A nd           | Website:  www.openfoam.com                      |
|    \\/     M anipulation  |                                                 |
\*---------------------------------------------------------------------------*/
FoamFile
{
    version     2.0;
    format      ascii;
    arch        "LSB;label=32;scalar=64";
    class       volVectorField;
    location    "0.39";
    object      U;
}
// * * * * * * * * * * * * * * * * * * * * * * * * * * * * * * * * * * * * * //

dimensions      [0 1 -1 0 0 0 0];

internalField   nonuniform List<vector> 
800
(
(0.00176516 0 0)
(0.0052955 0 0)
(0.00882582 0 0)
(0.0123561 0 0)
(0.0158863 0 0)
(0.0194164 0 0)
(0.0229464 0 0)
(0.0264763 0 0)
(0.030006 0 0)
(0.0335356 0 0)
(0.0370649 0 0)
(0.0405941 0 0)
(0.044123 0 0)
(0.0476517 0 0)
(0.0511801 0 0)
(0.0547082 0 0)
(0.058236 0 0)
(0.0617634 0 0)
(0.0652906 0 0)
(0.0688173 0 0)
(0.0723437 0 0)
(0.0758696 0 0)
(0.0793951 0 0)
(0.0829202 0 0)
(0.0864448 0 0)
(0.0899689 0 0)
(0.0934924 0 0)
(0.0970155 0 0)
(0.100538 0 0)
(0.10406 0 0)
(0.107581 0 0)
(0.111102 0 0)
(0.114622 0 0)
(0.118141 0 0)
(0.12166 0 0)
(0.125178 0 0)
(0.128696 0 0)
(0.132212 0 0)
(0.135728 0 0)
(0.139243 0 0)
(0.142757 0 0)
(0.146271 0 0)
(0.149783 0 0)
(0.153295 0 0)
(0.156806 0 0)
(0.160316 0 0)
(0.163825 0 0)
(0.167333 0 0)
(0.17084 0 0)
(0.174346 0 0)
(0.177851 0 0)
(0.181355 0 0)
(0.184858 0 0)
(0.18836 0 0)
(0.191861 0 0)
(0.19536 0 0)
(0.198859 0 0)
(0.202356 0 0)
(0.205853 0 0)
(0.209348 0 0)
(0.212841 0 0)
(0.216334 0 0)
(0.219825 0 0)
(0.223315 0 0)
(0.226804 0 0)
(0.230291 0 0)
(0.233777 0 0)
(0.237261 0 0)
(0.240745 0 0)
(0.244226 0 0)
(0.247707 0 0)
(0.251185 0 0)
(0.254663 0 0)
(0.258138 0 0)
(0.261612 0 0)
(0.265085 0 0)
(0.268556 0 0)
(0.272026 0 0)
(0.275493 0 0)
(0.278959 0 0)
(0.282424 0 0)
(0.285887 0 0)
(0.289348 0 0)
(0.292807 0 0)
(0.296264 0 0)
(0.29972 0 0)
(0.303174 0 0)
(0.306626 0 0)
(0.310076 0 0)
(0.313524 0 0)
(0.31697 0 0)
(0.320414 0 0)
(0.323857 0 0)
(0.327297 0 0)
(0.330735 0 0)
(0.334171 0 0)
(0.337605 0 0)
(0.341038 0 0)
(0.344467 0 0)
(0.347895 0 0)
(0.351321 0 0)
(0.354744 0 0)
(0.358165 0 0)
(0.361584 0 0)
(0.365 0 0)
(0.368415 0 0)
(0.371826 0 0)
(0.375236 0 0)
(0.378643 0 0)
(0.382048 0 0)
(0.38545 0 0)
(0.38885 0 0)
(0.392247 0 0)
(0.395641 0 0)
(0.399034 0 0)
(0.402423 0 0)
(0.40581 0 0)
(0.409194 0 0)
(0.412576 0 0)
(0.415954 0 0)
(0.419331 0 0)
(0.422704 0 0)
(0.426074 0 0)
(0.429442 0 0)
(0.432807 0 0)
(0.436169 0 0)
(0.439528 0 0)
(0.442884 0 0)
(0.446237 0 0)
(0.449587 0 0)
(0.452934 0 0)
(0.456278 0 0)
(0.459619 0 0)
(0.462956 0 0)
(0.466291 0 0)
(0.469622 0 0)
(0.47295 0 0)
(0.476275 0 0)
(0.479596 0 0)
(0.482914 0 0)
(0.486229 0 0)
(0.48954 0 0)
(0.492848 0 0)
(0.496153 0 0)
(0.499453 0 0)
(0.502751 0 0)
(0.506045 0 0)
(0.509335 0 0)
(0.512621 0 0)
(0.515904 0 0)
(0.519183 0 0)
(0.522458 0 0)
(0.52573 0 0)
(0.528997 0 0)
(0.532261 0 0)
(0.535521 0 0)
(0.538777 0 0)
(0.542028 0 0)
(0.545276 0 0)
(0.54852 0 0)
(0.55176 0 0)
(0.554995 0 0)
(0.558226 0 0)
(0.561453 0 0)
(0.564676 0 0)
(0.567895 0 0)
(0.571109 0 0)
(0.574318 0 0)
(0.577524 0 0)
(0.580724 0 0)
(0.583921 0 0)
(0.587112 0 0)
(0.590299 0 0)
(0.593481 0 0)
(0.596659 0 0)
(0.599832 0 0)
(0.603 0 0)
(0.606163 0 0)
(0.609321 0 0)
(0.612475 0 0)
(0.615623 0 0)
(0.618766 0 0)
(0.621904 0 0)
(0.625038 0 0)
(0.628165 0 0)
(0.631288 0 0)
(0.634405 0 0)
(0.637517 0 0)
(0.640624 0 0)
(0.643725 0 0)
(0.64682 0 0)
(0.64991 0 0)
(0.652995 0 0)
(0.656074 0 0)
(0.659147 0 0)
(0.662214 0 0)
(0.665275 0 0)
(0.668331 0 0)
(0.67138 0 0)
(0.674424 0 0)
(0.677461 0 0)
(0.680493 0 0)
(0.683518 0 0)
(0.686536 0 0)
(0.689549 0 0)
(0.692555 0 0)
(0.695555 0 0)
(0.698548 0 0)
(0.701535 0 0)
(0.704515 0 0)
(0.707488 0 0)
(0.710454 0 0)
(0.713414 0 0)
(0.716367 0 0)
(0.719312 0 0)
(0.722251 0 0)
(0.725182 0 0)
(0.728107 0 0)
(0.731024 0 0)
(0.733933 0 0)
(0.736836 0 0)
(0.73973 0 0)
(0.742618 0 0)
(0.745497 0 0)
(0.748369 0 0)
(0.751233 0 0)
(0.754089 0 0)
(0.756937 0 0)
(0.759777 0 0)
(0.762608 0 0)
(0.765432 0 0)
(0.768247 0 0)
(0.771054 0 0)
(0.773852 0 0)
(0.776642 0 0)
(0.779423 0 0)
(0.782195 0 0)
(0.784958 0 0)
(0.787712 0 0)
(0.790458 0 0)
(0.793194 0 0)
(0.79592 0 0)
(0.798638 0 0)
(0.801345 0 0)
(0.804044 0 0)
(0.806732 0 0)
(0.809411 0 0)
(0.81208 0 0)
(0.814738 0 0)
(0.817387 0 0)
(0.820025 0 0)
(0.822653 0 0)
(0.82527 0 0)
(0.827877 0 0)
(0.830473 0 0)
(0.833058 0 0)
(0.835632 0 0)
(0.838195 0 0)
(0.840747 0 0)
(0.843287 0 0)
(0.845816 0 0)
(0.848333 0 0)
(0.850838 0 0)
(0.853331 0 0)
(0.855812 0 0)
(0.858281 0 0)
(0.860738 0 0)
(0.863182 0 0)
(0.865613 0 0)
(0.868031 0 0)
(0.870436 0 0)
(0.872828 0 0)
(0.875207 0 0)
(0.877572 0 0)
(0.879923 0 0)
(0.88226 0 0)
(0.884584 0 0)
(0.886893 0 0)
(0.889187 0 0)
(0.891467 0 0)
(0.893732 0 0)
(0.895982 0 0)
(0.898217 0 0)
(0.900436 0 0)
(0.902639 0 0)
(0.904827 0 0)
(0.906999 0 0)
(0.909154 0 0)
(0.911292 0 0)
(0.913414 0 0)
(0.915519 0 0)
(0.917606 0 0)
(0.919676 0 0)
(0.921728 0 0)
(0.923762 0 0)
(0.925777 0 0)
(0.927774 0 0)
(0.929752 0 0)
(0.931711 0 0)
(0.933651 0 0)
(0.93557 0 0)
(0.93747 0 0)
(0.939349 0 0)
(0.941207 0 0)
(0.943045 0 0)
(0.944861 0 0)
(0.946655 0 0)
(0.948427 0 0)
(0.950176 0 0)
(0.951903 0 0)
(0.953607 0 0)
(0.955287 0 0)
(0.956943 0 0)
(0.958574 0 0)
(0.960181 0 0)
(0.961762 0 0)
(0.963318 0 0)
(0.964847 0 0)
(0.96635 0 0)
(0.967825 0 0)
(0.969273 0 0)
(0.970692 0 0)
(0.972083 0 0)
(0.973445 0 0)
(0.974777 0 0)
(0.976078 0 0)
(0.977348 0 0)
(0.978587 0 0)
(0.979793 0 0)
(0.980967 0 0)
(0.982107 0 0)
(0.983212 0 0)
(0.984283 0 0)
(0.985317 0 0)
(0.986315 0 0)
(0.987276 0 0)
(0.988199 0 0)
(0.989082 0 0)
(0.989926 0 0)
(0.990729 0 0)
(0.991489 0 0)
(0.992208 0 0)
(0.992882 0 0)
(0.993511 0 0)
(0.994094 0 0)
(0.994631 0 0)
(0.995118 0 0)
(0.995557 0 0)
(0.995944 0 0)
(0.996279 0 0)
(0.99656 0 0)
(0.996786 0 0)
(0.996955 0 0)
(0.997066 0 0)
(0.997117 0 0)
(0.997106 0 0)
(0.997032 0 0)
(0.996891 0 0)
(0.996684 0 0)
(0.996406 0 0)
(0.996056 0 0)
(0.995632 0 0)
(0.995131 0 0)
(0.99455 0 0)
(0.993887 0 0)
(0.993138 0 0)
(0.992301 0 0)
(0.991372 0 0)
(0.990348 0 0)
(0.989224 0 0)
(0.987997 0 0)
(0.986663 0 0)
(0.985217 0 0)
(0.983654 0 0)
(0.981968 0 0)
(0.980155 0 0)
(0.978208 0 0)
(0.97612 0 0)
(0.973885 0 0)
(0.971494 0 0)
(0.968939 0 0)
(0.966212 0 0)
(0.963301 0 0)
(0.960195 0 0)
(0.956883 0 0)
(0.953351 0 0)
(0.949584 0 0)
(0.945564 0 0)
(0.941272 0 0)
(0.936688 0 0)
(0.931785 0 0)
(0.926537 0 0)
(0.920909 0 0)
(0.914863 0 0)
(0.908353 0 0)
(0.901325 0 0)
(0.893669 0 0)
(0.886192 0 0)
(0.864391 0 0)
(0.463307 0 0)
(-0.462306 0 0)
(-0.864263 0 0)
(-0.886183 0 0)
(-0.893657 0 0)
(-0.901315 0 0)
(-0.908344 0 0)
(-0.914855 0 0)
(-0.920902 0 0)
(-0.92653 0 0)
(-0.93178 0 0)
(-0.936683 0 0)
(-0.941268 0 0)
(-0.945559 0 0)
(-0.94958 0 0)
(-0.953348 0 0)
(-0.95688 0 0)
(-0.960192 0 0)
(-0.963298 0 0)
(-0.966209 0 0)
(-0.968937 0 0)
(-0.971492 0 0)
(-0.973883 0 0)
(-0.976119 0 0)
(-0.978207 0 0)
(-0.980154 0 0)
(-0.981967 0 0)
(-0.983653 0 0)
(-0.985216 0 0)
(-0.986662 0 0)
(-0.987997 0 0)
(-0.989224 0 0)
(-0.990347 0 0)
(-0.991372 0 0)
(-0.992301 0 0)
(-0.993138 0 0)
(-0.993886 0 0)
(-0.99455 0 0)
(-0.995131 0 0)
(-0.995632 0 0)
(-0.996056 0 0)
(-0.996406 0 0)
(-0.996684 0 0)
(-0.996891 0 0)
(-0.997032 0 0)
(-0.997106 0 0)
(-0.997117 0 0)
(-0.997066 0 0)
(-0.996955 0 0)
(-0.996786 0 0)
(-0.99656 0 0)
(-0.996279 0 0)
(-0.995944 0 0)
(-0.995556 0 0)
(-0.995118 0 0)
(-0.99463 0 0)
(-0.994094 0 0)
(-0.993511 0 0)
(-0.992882 0 0)
(-0.992207 0 0)
(-0.991489 0 0)
(-0.990728 0 0)
(-0.989926 0 0)
(-0.989082 0 0)
(-0.988198 0 0)
(-0.987276 0 0)
(-0.986315 0 0)
(-0.985317 0 0)
(-0.984282 0 0)
(-0.983212 0 0)
(-0.982106 0 0)
(-0.980966 0 0)
(-0.979793 0 0)
(-0.978586 0 0)
(-0.977348 0 0)
(-0.976077 0 0)
(-0.974776 0 0)
(-0.973444 0 0)
(-0.972082 0 0)
(-0.970692 0 0)
(-0.969272 0 0)
(-0.967824 0 0)
(-0.966349 0 0)
(-0.964846 0 0)
(-0.963317 0 0)
(-0.961761 0 0)
(-0.96018 0 0)
(-0.958573 0 0)
(-0.956942 0 0)
(-0.955286 0 0)
(-0.953606 0 0)
(-0.951902 0 0)
(-0.950175 0 0)
(-0.948426 0 0)
(-0.946654 0 0)
(-0.944859 0 0)
(-0.943043 0 0)
(-0.941206 0 0)
(-0.939348 0 0)
(-0.937469 0 0)
(-0.935569 0 0)
(-0.933649 0 0)
(-0.93171 0 0)
(-0.929751 0 0)
(-0.927773 0 0)
(-0.925776 0 0)
(-0.92376 0 0)
(-0.921726 0 0)
(-0.919674 0 0)
(-0.917605 0 0)
(-0.915517 0 0)
(-0.913412 0 0)
(-0.911291 0 0)
(-0.909152 0 0)
(-0.906997 0 0)
(-0.904825 0 0)
(-0.902638 0 0)
(-0.900434 0 0)
(-0.898215 0 0)
(-0.89598 0 0)
(-0.89373 0 0)
(-0.891465 0 0)
(-0.889185 0 0)
(-0.886891 0 0)
(-0.884582 0 0)
(-0.882259 0 0)
(-0.879921 0 0)
(-0.87757 0 0)
(-0.875205 0 0)
(-0.872826 0 0)
(-0.870434 0 0)
(-0.868029 0 0)
(-0.865611 0 0)
(-0.86318 0 0)
(-0.860736 0 0)
(-0.858279 0 0)
(-0.85581 0 0)
(-0.853329 0 0)
(-0.850836 0 0)
(-0.848331 0 0)
(-0.845814 0 0)
(-0.843285 0 0)
(-0.840745 0 0)
(-0.838193 0 0)
(-0.83563 0 0)
(-0.833056 0 0)
(-0.830471 0 0)
(-0.827875 0 0)
(-0.825268 0 0)
(-0.822651 0 0)
(-0.820023 0 0)
(-0.817385 0 0)
(-0.814736 0 0)
(-0.812077 0 0)
(-0.809409 0 0)
(-0.80673 0 0)
(-0.804042 0 0)
(-0.801343 0 0)
(-0.798635 0 0)
(-0.795918 0 0)
(-0.793191 0 0)
(-0.790455 0 0)
(-0.78771 0 0)
(-0.784956 0 0)
(-0.782193 0 0)
(-0.779421 0 0)
(-0.77664 0 0)
(-0.77385 0 0)
(-0.771052 0 0)
(-0.768245 0 0)
(-0.76543 0 0)
(-0.762606 0 0)
(-0.759775 0 0)
(-0.756935 0 0)
(-0.754087 0 0)
(-0.751231 0 0)
(-0.748367 0 0)
(-0.745495 0 0)
(-0.742615 0 0)
(-0.739728 0 0)
(-0.736834 0 0)
(-0.733931 0 0)
(-0.731022 0 0)
(-0.728105 0 0)
(-0.72518 0 0)
(-0.722249 0 0)
(-0.71931 0 0)
(-0.716364 0 0)
(-0.713412 0 0)
(-0.710452 0 0)
(-0.707486 0 0)
(-0.704513 0 0)
(-0.701533 0 0)
(-0.698546 0 0)
(-0.695553 0 0)
(-0.692553 0 0)
(-0.689547 0 0)
(-0.686534 0 0)
(-0.683516 0 0)
(-0.680491 0 0)
(-0.677459 0 0)
(-0.674422 0 0)
(-0.671378 0 0)
(-0.668329 0 0)
(-0.665273 0 0)
(-0.662212 0 0)
(-0.659145 0 0)
(-0.656072 0 0)
(-0.652993 0 0)
(-0.649909 0 0)
(-0.646819 0 0)
(-0.643723 0 0)
(-0.640622 0 0)
(-0.637515 0 0)
(-0.634403 0 0)
(-0.631286 0 0)
(-0.628164 0 0)
(-0.625036 0 0)
(-0.621903 0 0)
(-0.618764 0 0)
(-0.615621 0 0)
(-0.612473 0 0)
(-0.60932 0 0)
(-0.606161 0 0)
(-0.602998 0 0)
(-0.59983 0 0)
(-0.596657 0 0)
(-0.59348 0 0)
(-0.590297 0 0)
(-0.58711 0 0)
(-0.583919 0 0)
(-0.580723 0 0)
(-0.577522 0 0)
(-0.574317 0 0)
(-0.571107 0 0)
(-0.567893 0 0)
(-0.564675 0 0)
(-0.561452 0 0)
(-0.558225 0 0)
(-0.554994 0 0)
(-0.551758 0 0)
(-0.548518 0 0)
(-0.545275 0 0)
(-0.542027 0 0)
(-0.538775 0 0)
(-0.535519 0 0)
(-0.532259 0 0)
(-0.528996 0 0)
(-0.525728 0 0)
(-0.522457 0 0)
(-0.519181 0 0)
(-0.515902 0 0)
(-0.51262 0 0)
(-0.509333 0 0)
(-0.506043 0 0)
(-0.502749 0 0)
(-0.499452 0 0)
(-0.496151 0 0)
(-0.492847 0 0)
(-0.489539 0 0)
(-0.486228 0 0)
(-0.482913 0 0)
(-0.479595 0 0)
(-0.476274 0 0)
(-0.472949 0 0)
(-0.469621 0 0)
(-0.46629 0 0)
(-0.462955 0 0)
(-0.459617 0 0)
(-0.456277 0 0)
(-0.452933 0 0)
(-0.449586 0 0)
(-0.446236 0 0)
(-0.442883 0 0)
(-0.439527 0 0)
(-0.436168 0 0)
(-0.432806 0 0)
(-0.429441 0 0)
(-0.426073 0 0)
(-0.422703 0 0)
(-0.41933 0 0)
(-0.415954 0 0)
(-0.412575 0 0)
(-0.409193 0 0)
(-0.405809 0 0)
(-0.402422 0 0)
(-0.399033 0 0)
(-0.395641 0 0)
(-0.392246 0 0)
(-0.388849 0 0)
(-0.385449 0 0)
(-0.382047 0 0)
(-0.378642 0 0)
(-0.375235 0 0)
(-0.371826 0 0)
(-0.368414 0 0)
(-0.365 0 0)
(-0.361583 0 0)
(-0.358164 0 0)
(-0.354743 0 0)
(-0.35132 0 0)
(-0.347894 0 0)
(-0.344467 0 0)
(-0.341037 0 0)
(-0.337605 0 0)
(-0.334171 0 0)
(-0.330735 0 0)
(-0.327296 0 0)
(-0.323856 0 0)
(-0.320414 0 0)
(-0.316969 0 0)
(-0.313523 0 0)
(-0.310075 0 0)
(-0.306625 0 0)
(-0.303173 0 0)
(-0.299719 0 0)
(-0.296264 0 0)
(-0.292806 0 0)
(-0.289347 0 0)
(-0.285886 0 0)
(-0.282423 0 0)
(-0.278959 0 0)
(-0.275493 0 0)
(-0.272025 0 0)
(-0.268556 0 0)
(-0.265085 0 0)
(-0.261612 0 0)
(-0.258138 0 0)
(-0.254662 0 0)
(-0.251185 0 0)
(-0.247706 0 0)
(-0.244226 0 0)
(-0.240744 0 0)
(-0.237261 0 0)
(-0.233777 0 0)
(-0.230291 0 0)
(-0.226803 0 0)
(-0.223315 0 0)
(-0.219825 0 0)
(-0.216334 0 0)
(-0.212841 0 0)
(-0.209347 0 0)
(-0.205852 0 0)
(-0.202356 0 0)
(-0.198859 0 0)
(-0.19536 0 0)
(-0.191861 0 0)
(-0.18836 0 0)
(-0.184858 0 0)
(-0.181355 0 0)
(-0.177851 0 0)
(-0.174346 0 0)
(-0.17084 0 0)
(-0.167333 0 0)
(-0.163825 0 0)
(-0.160316 0 0)
(-0.156806 0 0)
(-0.153295 0 0)
(-0.149783 0 0)
(-0.146271 0 0)
(-0.142757 0 0)
(-0.139243 0 0)
(-0.135728 0 0)
(-0.132212 0 0)
(-0.128695 0 0)
(-0.125178 0 0)
(-0.12166 0 0)
(-0.118141 0 0)
(-0.114622 0 0)
(-0.111102 0 0)
(-0.107581 0 0)
(-0.10406 0 0)
(-0.100538 0 0)
(-0.0970154 0 0)
(-0.0934924 0 0)
(-0.0899688 0 0)
(-0.0864447 0 0)
(-0.0829201 0 0)
(-0.0793951 0 0)
(-0.0758696 0 0)
(-0.0723436 0 0)
(-0.0688173 0 0)
(-0.0652905 0 0)
(-0.0617634 0 0)
(-0.058236 0 0)
(-0.0547082 0 0)
(-0.0511801 0 0)
(-0.0476517 0 0)
(-0.044123 0 0)
(-0.0405941 0 0)
(-0.0370649 0 0)
(-0.0335356 0 0)
(-0.030006 0 0)
(-0.0264763 0 0)
(-0.0229464 0 0)
(-0.0194164 0 0)
(-0.0158863 0 0)
(-0.0123561 0 0)
(-0.00882585 0 0)
(-0.00529553 0 0)
(-0.00176518 0 0)
)
;

boundaryField
{
    left
    {
        type            fixedValue;
        value           uniform (0 0 0);
    }
    right
    {
        type            fixedValue;
        value           uniform (0 0 0);
    }
    frontBackUpDown
    {
        type            empty;
    }
}


// ************************************************************************* //
