/*--------------------------------*- C++ -*----------------------------------*\
| =========                 |                                                 |
| \\      /  F ield         | OpenFOAM: The Open Source CFD Toolbox           |
|  \\    /   O peration     | Version:  2412                                  |
|   \\  /    A nd           | Website:  www.openfoam.com                      |
|    \\/     M anipulation  |                                                 |
\*---------------------------------------------------------------------------*/
FoamFile
{
    version     2.0;
    format      ascii;
    arch        "LSB;label=32;scalar=64";
    class       volScalarField;
    location    "0.16";
    object      epsilon;
}
// * * * * * * * * * * * * * * * * * * * * * * * * * * * * * * * * * * * * * //

dimensions      [0 2 -3 0 0 0 0];

internalField   nonuniform List<scalar> 
12225
(
448.248
622.892
830.552
1004.82
1150.39
1270.19
1368.59
1449.58
1516.31
1571.3
1616.66
1654.02
1684.68
1709.65
1729.68
1745.19
1756.53
1766.57
173.744
302.083
403.1
480.175
539.34
585.691
622.129
650.85
673.559
691.523
705.703
716.851
725.559
732.291
737.452
741.288
744.59
744.404
119.436
232.402
315.511
376.254
421.16
455.027
480.627
499.955
514.528
525.456
533.562
539.475
543.683
546.574
548.476
549.654
550.535
550.187
97.6416
199.979
277.776
334.832
376.772
407.859
430.863
447.788
460.144
469.043
475.311
479.573
482.312
483.907
484.678
484.901
484.91
484.503
83.6529
176.289
251.578
308.55
351.101
382.723
406.066
423.143
435.486
444.245
450.288
454.274
456.712
458.004
458.482
458.437
458.171
457.715
71.9921
153.973
226.312
283.825
328.198
361.839
387.038
405.704
419.351
429.153
436.017
440.644
443.58
445.262
446.043
446.232
446.11
445.772
61.3445
131.283
198.626
255.58
301.542
337.589
365.355
386.465
402.314
414.04
422.558
428.596
432.731
435.429
437.072
437.978
438.417
438.49
51.67
108.731
168.489
222.633
268.756
306.564
336.806
360.618
379.133
393.358
404.152
412.228
418.172
422.463
425.498
427.606
429.043
429.899
43.2229
87.6463
137.687
186.327
230.302
268.246
299.989
326.026
347.084
363.929
377.276
387.763
395.937
402.263
407.134
410.872
413.72
415.744
36.1701
69.242
108.633
149.503
188.757
224.547
256.004
282.988
305.749
324.717
340.381
353.232
363.723
372.261
379.202
384.842
389.399
392.902
30.4987
54.1391
83.3296
115.316
147.817
179.117
208.072
234.102
257.037
276.956
294.079
308.692
321.105
331.621
340.52
348.046
354.375
359.483
26.3768
43.1979
64.284
88.2408
113.65
139.259
164.046
187.31
208.66
227.931
245.115
260.307
273.659
285.35
295.567
304.477
312.197
318.631
23.1427
34.7471
49.3141
66.2704
84.8779
104.39
124.085
143.356
161.764
179.027
194.989
209.592
222.85
234.822
245.592
255.246
263.832
271.195
20.3784
27.6948
36.7529
47.4287
59.4478
72.4871
86.1783
100.149
114.069
127.675
140.769
153.217
164.936
175.887
186.06
195.46
204.068
211.679
18.1501
22.241
27.1495
32.915
39.4912
46.7983
54.7207
63.1113
71.8127
80.6744
89.5609
98.3567
106.968
115.321
123.363
131.049
138.322
144.98
16.4707
18.357
20.5277
23.029
25.8753
29.0704
32.6062
36.4582
40.5884
44.9513
49.4973
54.1762
58.9391
63.74
68.537
73.2905
77.9519
82.3883
15.3282
15.8732
16.4961
17.2136
18.0333
18.9616
20.0047
21.1657
22.4442
23.8365
25.3365
26.9357
28.6236
30.3863
32.2099
34.0805
35.9806
37.8677
14.7508
14.6758
14.6369
14.6353
14.6698
14.7397
14.8451
14.9862
15.1633
15.3762
15.6246
15.9081
16.2257
16.5778
16.9636
17.381
17.8273
18.2982
14.8977
14.9732
15.0872
15.2433
15.4416
15.6819
15.9645
16.2894
16.6556
17.0616
17.5053
17.984
18.4947
19.0341
19.5987
20.1847
20.7875
21.3935
15.9707
17.2604
18.7262
20.395
22.273
24.3596
26.648
29.1224
31.759
34.5289
37.4013
40.3444
43.3277
46.3224
49.3027
52.2456
55.1263
57.885
18.0495
21.9966
26.6896
32.1475
38.3075
45.0738
52.3227
59.9078
67.6783
75.4938
83.2327
90.7942
98.0988
105.088
111.721
117.973
123.824
129.229
21.563
30.6524
41.9203
55.0361
69.4947
84.7777
100.375
115.826
130.766
144.937
158.171
170.378
181.524
191.618
200.699
208.824
216.052
222.429
27.2183
45.3
67.7855
92.9359
119.102
144.996
169.637
192.384
212.911
231.123
247.07
260.889
272.761
282.886
291.466
298.691
304.736
309.76
35.7143
67.6759
105.677
144.949
182.513
216.738
246.812
272.564
294.218
312.176
326.898
338.841
348.428
356.037
361.993
366.578
370.03
372.576
47.4076
97.6105
152.028
202.687
246.85
283.883
314.066
338.192
357.196
371.966
383.278
391.793
398.056
402.514
405.529
407.394
408.353
408.641
61.8879
131.751
198.704
254.804
299.832
335.066
362.107
382.555
397.795
408.956
416.934
422.433
426.006
428.084
429.006
429.035
428.386
427.273
78.4669
165.761
239.651
296.703
339.785
371.974
395.785
413.191
425.727
434.561
440.579
444.449
446.68
447.661
447.689
446.994
445.76
444.172
99.5996
200.964
279.478
337.82
380.456
411.807
434.889
451.765
463.981
472.692
478.747
482.776
485.255
486.544
486.922
486.603
485.755
484.547
144.791
258.315
348.614
417.598
468.467
506.75
535.875
558.053
574.956
587.831
597.59
604.915
610.332
614.244
616.97
618.758
619.802
620.302
366.941
498.483
666.586
808.032
923.454
1016.69
1091.72
1152.39
1201.68
1241.85
1274.69
1301.64
1323.81
1342.09
1357.19
1369.68
1379.99
1388.56
1.11311
1.04349
1.49792
1.88043
2.18804
2.46445
2.79385
3.14957
3.53264
3.95523
4.4453
5.0829
5.87962
6.79416
7.82369
8.97291
10.2505
11.6652
13.2244
14.9333
16.7952
18.8116
20.983
23.3093
25.7908
28.4289
31.227
34.1923
37.3369
40.68
44.2049
47.8804
51.7004
55.6609
59.7583
63.9892
68.3504
72.8387
77.4514
82.1856
87.0386
92.0077
97.0902
102.283
107.584
112.99
118.496
124.101
129.8
135.589
141.464
147.42
153.453
159.557
165.728
171.958
178.244
184.577
190.953
197.364
203.803
210.264
216.74
223.223
229.706
236.181
242.642
249.081
255.491
261.866
268.203
274.5
280.763
287.005
293.258
299.434
305.511
311.487
317.361
323.126
328.778
334.308
339.71
344.977
350.103
355.08
359.903
364.565
369.06
373.384
377.53
381.493
385.269
388.854
392.242
395.43
398.414
401.191
403.758
406.111
408.249
410.169
411.868
413.346
414.6
415.63
416.434
417.013
417.365
417.491
417.39
417.065
416.515
415.742
414.747
413.532
412.099
410.451
408.591
406.522
404.246
401.769
399.094
396.225
393.168
389.927
386.508
382.916
379.157
375.238
371.164
366.943
362.581
358.086
353.465
348.724
343.873
338.919
333.871
328.743
323.52
318.272
313.045
308.487
305.599
302.903
300.155
297.337
294.451
291.501
288.493
285.432
282.322
279.169
275.979
272.755
269.504
266.231
262.94
259.637
256.327
253.013
249.7
246.393
243.095
239.809
236.538
233.284
230.047
226.826
223.618
220.416
217.208
213.971
210.668
207.224
203.479
199.03
193.203
185.32
3.34204
1.82927
1.63177
1.70542
1.90188
2.19142
2.56288
3.00103
3.50705
4.08344
4.73418
5.46384
6.26955
7.14376
8.08118
9.07795
10.1308
11.2363
12.3912
13.5922
14.8367
16.1224
17.448
18.813
20.2176
21.663
23.1504
24.6815
26.2577
27.8792
29.544
31.2499
32.9963
34.7833
36.6106
38.478
40.3853
42.3321
44.3179
46.3423
48.4044
50.5037
52.6393
54.8102
57.0155
59.2541
61.5248
63.8262
66.157
68.5158
70.901
73.311
75.744
78.1982
80.6718
83.1629
85.6693
88.189
90.7199
93.2597
95.8062
98.3571
100.91
103.463
106.012
108.557
111.095
113.623
116.14
118.645
121.138
123.619
126.093
128.566
131.064
133.55
136.004
138.422
140.802
143.141
145.437
147.687
149.889
152.039
154.136
156.178
158.16
160.082
161.94
163.734
165.46
167.117
168.702
170.215
171.652
173.014
174.297
175.501
176.624
177.665
178.623
179.497
180.285
180.988
181.603
182.132
182.572
182.924
183.187
183.362
183.447
183.443
183.35
183.168
182.898
182.54
182.095
181.562
180.944
180.241
179.454
178.584
177.633
176.602
175.492
174.306
173.045
171.711
170.305
168.831
167.291
165.686
164.019
162.293
160.51
158.672
156.784
154.846
152.864
150.842
148.761
146.684
144.622
142.698
141.061
139.495
137.928
136.343
134.737
133.11
131.464
129.801
128.122
126.43
124.728
123.017
121.299
119.577
117.853
116.128
114.405
112.686
110.973
109.267
107.569
105.883
104.208
102.546
100.898
99.2642
97.6456
96.0415
94.451
92.8722
91.3019
89.7367
88.1684
86.6094
85.2601
85.296
5.87157
2.84361
2.42557
2.46152
2.66703
2.97529
3.3748
3.8594
4.42354
5.06018
5.76106
6.51751
7.32081
8.16327
9.03919
9.94476
10.8776
11.8363
12.8202
13.8293
14.8642
15.9256
17.0149
18.1331
19.2817
20.4616
21.6737
22.9184
24.1959
25.5058
26.8472
28.2196
29.6225
31.0553
32.5176
34.0088
35.5284
37.0759
38.6508
40.2524
41.8802
43.5335
45.2118
46.9144
48.6406
50.3896
52.1608
53.9532
55.7661
57.5984
59.4493
61.3176
63.2024
65.1023
67.0163
68.943
70.8811
72.8293
74.7861
76.7502
78.7199
80.6938
82.6704
84.6481
86.6257
88.6015
90.5746
92.5437
94.5081
96.4674
98.4217
100.372
102.318
104.263
106.203
108.127
110.027
111.9
113.744
115.556
117.335
119.078
120.784
122.449
124.073
125.653
127.187
128.674
130.112
131.499
132.833
134.114
135.339
136.506
137.616
138.666
139.655
140.583
141.447
142.248
142.984
143.654
144.259
144.796
145.266
145.668
146.002
146.267
146.463
146.591
146.649
146.638
146.557
146.408
146.191
145.905
145.552
145.131
144.643
144.09
143.472
142.789
142.043
141.236
140.367
139.439
138.453
137.409
136.311
135.159
133.955
132.701
131.398
130.049
128.656
127.218
125.742
124.224
122.671
121.094
119.487
117.87
116.259
114.694
113.216
111.774
110.336
108.89
107.434
105.966
104.488
103
101.505
100.003
98.4975
96.989
95.4793
93.9702
92.4632
90.96
89.4619
87.9706
86.4873
85.0135
83.5504
82.0992
80.6611
79.2371
77.8283
76.4354
75.0593
73.701
72.3612
71.0415
69.7446
68.4767
67.2505
66.1106
65.1811
65.05
8.44926
4.0023
3.37399
3.33804
3.51259
3.81507
4.21802
4.70808
5.27468
5.90685
6.59315
7.32278
8.08657
8.87777
9.69211
10.5275
11.3834
12.2604
13.1597
14.0827
15.031
16.0061
17.0094
18.0418
19.1042
20.197
21.3204
22.4742
23.6581
24.8715
26.114
27.3848
28.6834
30.0094
31.3623
32.7416
34.1468
35.5777
37.0337
38.5145
40.0197
41.5489
43.1017
44.6776
46.2762
47.897
49.5394
51.2029
52.8867
54.5902
56.3126
58.0531
59.8107
61.5845
63.3734
65.1764
66.9922
68.8196
70.6574
72.5043
74.3588
76.2196
78.0852
79.9544
81.8257
83.6978
85.5695
87.4397
89.3073
91.1715
93.0315
94.8867
96.7363
98.579
100.408
102.219
104.007
105.769
107.504
109.208
110.879
112.516
114.117
115.679
117.201
118.68
120.116
121.505
122.847
124.139
125.381
126.571
127.707
128.788
129.813
130.781
131.69
132.54
133.33
134.058
134.725
135.328
135.869
136.346
136.758
137.106
137.389
137.607
137.759
137.846
137.867
137.823
137.714
137.54
137.301
136.998
136.632
136.202
135.71
135.156
134.542
133.867
133.134
132.342
131.494
130.591
129.634
128.624
127.563
126.452
125.294
124.089
122.84
121.547
120.215
118.839
117.432
115.993
114.524
113.03
111.513
109.983
108.45
106.934
105.45
103.982
102.517
101.049
99.5735
98.0914
96.6031
95.1095
93.6121
92.1123
90.6117
89.1118
87.6141
86.1201
84.6312
83.149
81.6746
80.2096
78.755
77.3123
75.8825
74.4667
73.0662
71.6818
70.3146
68.9657
67.6362
66.3273
65.041
63.7799
62.5488
61.357
60.2223
59.1887
58.3453
57.9611
10.7186
5.15535
4.28701
4.15885
4.29144
4.56911
4.95144
5.4187
5.95723
6.55498
7.20077
7.88479
8.59932
9.33906
10.1011
10.8844
11.6892
12.5169
13.3688
14.2465
15.1517
16.0855
17.049
18.0428
19.0673
20.1228
21.2092
22.3261
23.4734
24.6506
25.8572
27.0928
28.3572
29.6498
30.9705
32.3189
33.6948
35.0979
36.528
37.9849
39.4683
40.978
42.5138
44.0753
45.6622
47.2742
48.9108
50.5714
52.2555
53.9626
55.6917
57.4422
59.2131
61.0035
62.8123
64.6383
66.4804
68.3372
70.2075
72.0896
73.9822
75.8838
77.7928
79.7075
81.6266
83.5483
85.4711
87.3935
89.3141
91.2313
93.1438
95.0499
96.9483
98.8345
100.704
102.552
104.376
106.174
107.942
109.677
111.379
113.045
114.672
116.258
117.802
119.301
120.754
122.158
123.512
124.814
126.063
127.258
128.396
129.476
130.498
131.46
132.361
133.2
133.976
134.689
135.337
135.92
136.437
136.889
137.274
137.593
137.844
138.029
138.146
138.196
138.179
138.096
137.946
137.729
137.447
137.1
136.688
136.212
135.673
135.072
134.409
133.686
132.904
132.064
131.168
130.216
129.21
128.152
127.044
125.886
124.68
123.43
122.134
120.796
119.423
118.012
116.569
115.095
113.593
112.067
110.518
108.955
107.384
105.816
104.259
102.708
101.158
99.6058
98.0492
96.4884
94.9241
93.3575
91.7899
90.2229
88.6578
87.0963
85.5399
83.9899
82.4478
80.9151
79.3929
77.8827
76.3857
74.903
73.4358
71.9852
70.5524
69.1383
67.744
66.3709
65.0201
63.6933
62.3929
61.1223
59.8874
58.6985
57.574
56.552
55.6944
55.1269
13.3784
6.25559
5.09572
4.86449
4.9442
5.18482
5.53336
5.96481
6.46353
7.01757
7.61694
8.25345
8.92093
9.61533
10.3345
11.0779
11.8458
12.6395
13.4601
14.3091
15.1876
16.0967
17.0371
18.0094
19.0139
20.0507
21.12
22.2215
23.3553
24.521
25.7186
26.9479
28.2087
29.5009
30.8244
32.1792
33.5651
34.9822
36.4303
37.9094
39.4194
40.9602
42.5316
44.1335
45.7656
47.4276
49.1191
50.8396
52.5886
54.3653
56.169
57.999
59.854
61.7332
63.6353
65.559
67.503
69.4657
71.4455
73.4408
75.4499
77.471
79.5021
81.5414
83.587
85.6369
87.689
89.7415
91.7922
93.8393
95.8805
97.9137
99.9366
101.943
103.93
105.893
107.829
109.735
111.609
113.448
115.249
117.01
118.729
120.403
122.031
123.609
125.137
126.611
128.031
129.394
130.698
131.943
133.127
134.248
135.305
136.298
137.224
138.082
138.873
139.596
140.248
140.831
141.344
141.785
142.155
142.454
142.682
142.837
142.922
142.934
142.876
142.747
142.548
142.278
141.939
141.532
141.056
140.514
139.905
139.231
138.493
137.693
136.83
135.908
134.927
133.889
132.795
131.647
130.448
129.198
127.898
126.556
125.17
123.744
122.279
120.779
119.245
117.681
116.089
114.473
112.835
111.18
109.515
107.846
106.178
104.51
102.842
101.172
99.4989
97.8239
96.1478
94.4718
92.7974
91.1262
89.4596
87.7993
86.1467
84.5034
82.8709
81.2504
79.6434
78.0511
76.4749
74.9158
73.3751
71.8538
70.3532
68.8743
67.4183
65.9865
64.5805
63.2021
61.8541
60.5404
59.2672
58.0452
56.8917
55.8377
54.9253
54.216
16.7304
7.34726
5.79747
5.43577
5.45055
5.6468
5.95658
6.34907
6.80682
7.31799
7.87369
8.4671
9.09329
9.74904
10.4327
11.1436
11.8822
12.6493
13.4459
14.2731
15.1318
16.023
16.9474
17.9055
18.8978
19.9248
20.9865
22.0833
23.2153
24.3826
25.5854
26.8238
28.098
29.4081
30.7542
32.1366
33.5554
35.0107
36.5027
38.0315
39.5971
41.1996
42.8389
44.5148
46.2273
47.9761
49.7606
51.5806
53.4352
55.3239
57.2457
59.1996
61.1846
63.1993
65.2424
67.3123
69.4074
71.5259
73.6658
75.8253
78.0022
80.1943
82.3993
84.615
86.8389
89.0685
91.3015
93.5353
95.7673
97.9949
100.216
102.427
104.624
106.8
108.954
111.08
113.175
115.238
117.263
119.249
121.193
123.091
124.943
126.744
128.492
130.186
131.822
133.399
134.915
136.368
137.757
139.078
140.332
141.517
142.631
143.672
144.641
145.536
146.357
147.101
147.77
148.361
148.876
149.314
149.673
149.955
150.159
150.286
150.335
150.307
150.202
150.02
149.763
149.43
149.023
148.542
147.989
147.364
146.668
145.903
145.071
144.172
143.207
142.179
141.09
139.94
138.731
137.466
136.15
134.782
133.364
131.901
130.393
128.844
127.256
125.632
123.974
122.285
120.569
118.827
117.064
115.283
113.489
111.688
109.883
108.075
106.265
104.454
102.642
100.829
99.0175
97.2084
95.4033
93.6039
91.8118
90.0288
88.2563
86.496
84.7493
83.0176
81.3024
79.605
77.9266
76.2685
74.6319
73.0179
71.4277
69.8625
68.3235
66.8123
65.3304
63.88
62.464
61.0868
59.7546
58.4777
57.2715
56.1609
55.1737
54.3415
19.7928
8.28373
6.35471
5.86131
5.80884
5.95948
6.23077
6.58628
7.00658
7.47967
7.99732
8.55365
9.14456
9.76742
10.4208
11.1041
11.8177
12.562
13.338
14.1466
14.9887
15.8652
16.777
17.7249
18.7095
19.7314
20.7914
21.8898
23.0273
24.2043
25.4214
26.6791
27.9778
29.318
30.7002
32.1248
33.5922
35.1029
36.6572
38.2553
39.8974
41.5839
43.3146
45.0895
46.9086
48.7714
50.6777
52.6269
54.6182
56.6509
58.7238
60.8359
62.9857
65.1717
67.3923
69.6456
71.9295
74.242
76.5807
78.9433
81.3271
83.7295
86.1479
88.5792
91.0207
93.4694
95.9221
98.3759
100.828
103.274
105.712
108.139
110.546
112.929
115.284
117.608
119.897
122.148
124.356
126.52
128.635
130.699
132.709
134.662
136.556
138.388
140.155
141.855
143.487
145.048
146.536
147.95
149.288
150.548
151.73
152.832
153.852
154.791
155.647
156.419
157.107
157.711
158.229
158.663
159.011
159.274
159.452
159.545
159.554
159.478
159.319
159.076
158.751
158.345
157.859
157.293
156.648
155.927
155.129
154.258
153.314
152.299
151.214
150.061
148.844
147.565
146.224
144.825
143.371
141.863
140.305
138.698
137.046
135.35
133.615
131.843
130.036
128.198
126.331
124.44
122.526
120.595
118.649
116.693
114.731
112.766
110.798
108.828
106.859
104.892
102.927
100.968
99.0148
97.0702
95.1356
93.213
91.3038
89.4098
87.5325
85.6734
83.8339
82.0154
80.2192
78.4466
76.6988
74.977
73.2825
71.6164
69.9802
68.3753
66.8037
65.2675
63.77
62.3154
60.9101
59.5635
58.289
57.1061
56.0325
55.0856
22.4293
9.03787
6.76482
6.14859
6.03189
6.13898
6.37449
6.69678
7.08443
7.52494
8.01033
8.53525
9.09612
9.69068
10.3177
10.9768
11.668
12.3919
13.1493
13.9413
14.7687
15.6327
16.5344
17.4747
18.4548
19.4756
20.538
21.6432
22.792
23.9853
25.2242
26.5094
27.8419
29.2225
30.652
32.1312
33.6608
35.2415
36.8737
38.5581
40.295
42.0847
43.9274
45.823
47.7714
49.7724
51.8254
53.9299
56.085
58.2895
60.5424
62.8421
65.187
67.5752
70.0047
72.4732
74.9782
77.5172
80.0873
82.6856
85.3091
87.9546
90.6187
93.2981
95.9893
98.6887
101.393
104.098
106.8
109.495
112.181
114.85
117.495
120.112
122.696
125.243
127.749
130.21
132.623
134.985
137.291
139.539
141.725
143.846
145.9
147.883
149.793
151.629
153.386
155.064
156.66
158.173
159.602
160.943
162.197
163.362
164.437
165.42
166.312
167.111
167.817
168.43
168.949
169.375
169.707
169.946
170.091
170.143
170.103
169.971
169.748
169.435
169.032
168.541
167.963
167.299
166.551
165.72
164.805
163.812
162.743
161.598
160.379
159.088
157.729
156.304
154.815
153.264
151.655
149.99
148.272
146.503
144.688
142.828
140.927
138.987
137.013
135.007
132.972
130.911
128.829
126.728
124.612
122.486
120.352
118.214
116.074
113.934
111.795
109.66
107.53
105.407
103.294
101.191
99.1016
97.0269
94.9689
92.9292
90.9094
88.9112
86.9359
84.9849
83.0598
81.1617
79.2919
77.4517
75.6423
73.8651
72.1216
70.4132
68.742
67.1104
65.5216
63.9798
62.4912
61.0643
59.7105
58.4447
57.2779
56.2202
24.5802
9.61087
7.04065
6.31533
6.14001
6.20705
6.4101
6.70302
7.06244
7.4752
7.93324
8.43145
8.96653
9.53651
10.1403
10.7777
11.4488
12.1543
12.8951
13.6723
14.4871
15.3409
16.235
17.171
18.1501
19.1739
20.2438
21.3613
22.5277
23.7446
25.0132
26.3349
27.7111
29.143
30.6318
32.1787
33.7846
35.4505
37.1772
38.9654
40.8158
42.7286
44.7041
46.7423
48.8432
51.0062
53.2309
55.5164
57.8617
60.2653
62.7259
65.2415
67.8102
70.4296
73.0972
75.8103
78.5658
81.3605
84.1912
87.0542
89.9459
92.8626
95.8002
98.7549
101.722
104.699
107.68
110.661
113.638
116.606
119.563
122.495
125.397
128.266
131.095
133.881
136.619
139.306
141.937
144.508
147.016
149.457
151.827
154.124
156.344
158.485
160.543
162.516
164.402
166.198
167.903
169.516
171.033
172.454
173.777
175.002
176.127
177.151
178.074
178.894
179.612
180.227
180.739
181.149
181.456
181.661
181.764
181.766
181.667
181.468
181.17
180.775
180.281
179.693
179.01
178.236
177.371
176.417
175.375
174.249
173.041
171.752
170.385
168.942
167.427
165.842
164.189
162.471
160.692
158.855
156.962
155.017
153.023
150.984
148.902
146.78
144.623
142.434
140.216
137.972
135.706
133.422
131.124
128.814
126.497
124.176
121.854
119.532
117.214
114.901
112.596
110.301
108.017
105.748
103.494
101.259
99.0434
96.8494
94.6788
92.5331
90.4138
88.3225
86.2606
84.2293
82.23
80.264
78.3327
76.4373
74.5794
72.7606
70.9831
69.2492
67.5621
65.9261
64.3469
62.8321
61.391
60.0353
58.771
57.6048
26.2199
10.0138
7.20049
6.38271
6.15581
6.18683
6.36068
6.62752
6.96229
7.35111
7.7857
8.26098
8.77383
9.32245
9.90599
10.5243
11.1779
11.8674
12.5941
13.3594
14.1648
15.0119
15.9027
16.839
17.8227
18.8557
19.94
21.0776
22.2705
23.5206
24.8298
26.1999
27.6327
29.13
30.6934
32.3242
34.024
35.7939
37.6349
39.548
41.5339
43.593
45.7255
47.9315
50.2106
52.5624
54.986
57.4804
60.0441
62.6755
65.3725
68.133
70.9543
73.8337
76.7679
79.7537
82.7874
85.8651
88.9828
92.1362
95.321
98.5329
101.767
105.019
108.285
111.558
114.835
118.111
121.381
124.639
127.879
131.086
134.258
137.387
140.471
143.503
146.48
149.396
152.248
155.032
157.743
160.377
162.932
165.403
167.787
170.081
172.282
174.388
176.397
178.305
180.113
181.816
183.415
184.906
186.291
187.566
188.732
189.786
190.729
191.559
192.277
192.883
193.377
193.759
194.029
194.188
194.236
194.174
194.003
193.724
193.338
192.847
192.252
191.553
190.755
189.857
188.863
187.773
186.591
185.318
183.958
182.513
180.985
179.377
177.692
175.933
174.104
172.207
170.245
168.223
166.143
164.009
161.824
159.593
157.318
155.003
152.652
150.268
147.855
145.417
142.958
140.48
137.989
135.487
132.978
130.466
127.954
125.444
122.939
120.442
117.955
115.481
113.022
110.579
108.156
105.754
103.375
101.022
98.6947
96.3963
94.128
91.8912
89.6875
87.5182
85.3847
83.2882
81.2302
79.2121
77.2353
75.3017
73.4133
71.5726
69.7827
68.0477
66.3728
64.7647
63.2311
61.7807
60.4166
59.1439
27.3433
10.2611
7.26331
6.37157
6.1011
6.10048
6.24826
6.49184
6.80487
7.17282
7.58721
8.04291
8.53691
9.06758
9.63428
10.2371
10.8768
11.5544
12.2715
13.0298
13.8314
14.6783
15.5729
16.5175
17.5148
18.5672
19.6772
20.8474
22.0804
23.3787
24.7446
26.1806
27.689
29.2719
30.9312
32.6689
34.4867
36.3858
38.3677
40.4332
42.5832
44.8179
47.1376
49.542
52.0307
54.6029
57.2573
59.9924
62.8063
65.6969
68.6615
71.6974
74.8012
77.9695
81.1984
84.484
87.8218
91.2071
94.635
98.1006
101.599
105.125
108.673
112.239
115.816
119.4
122.985
126.567
130.138
133.695
137.218
140.703
144.143
147.534
150.869
154.144
157.354
160.494
163.559
166.546
169.451
172.269
174.997
177.63
180.166
182.6
184.931
187.156
189.273
191.279
193.172
194.952
196.616
198.163
199.591
200.901
202.092
203.161
204.107
204.931
205.633
206.214
206.673
207.011
207.228
207.325
207.303
207.163
206.906
206.532
206.045
205.444
204.732
203.911
202.982
201.948
200.811
199.573
198.237
196.805
195.281
193.666
191.965
190.179
188.313
186.37
184.352
182.265
180.11
177.892
175.615
173.282
170.897
168.464
165.987
163.469
160.916
158.329
155.714
153.074
150.413
147.736
145.044
142.344
139.638
136.93
134.223
131.521
128.826
126.141
123.47
120.813
118.174
115.556
112.96
110.388
107.843
105.327
102.841
100.388
97.9678
95.5832
93.2354
90.9258
88.6557
86.4265
84.2397
82.0965
79.9987
77.948
75.9463
73.9963
72.101
70.2641
68.4905
66.7858
65.1564
63.609
62.1443
60.7671
27.9568
10.3678
7.24663
6.30072
5.99551
5.96811
6.09313
6.31626
6.61035
6.9605
7.35807
7.79796
8.27728
8.7946
9.34956
9.94259
10.5747
11.2476
11.963
12.7233
13.5311
14.389
15.3001
16.2673
17.2937
18.3826
19.5371
20.7604
22.0556
23.4258
24.874
26.4031
28.0157
29.7146
31.5019
33.3798
35.3502
37.4145
39.574
41.8296
44.182
46.6312
49.1772
51.8193
54.5566
57.3877
60.3109
63.3239
66.4242
69.6089
72.8747
76.2178
79.6343
83.1198
86.6699
90.2797
93.944
97.6571
101.413
105.206
109.031
112.882
116.753
120.638
124.532
128.43
132.324
136.211
140.083
143.925
147.724
151.474
155.17
158.806
162.377
165.877
169.301
172.645
175.903
179.072
182.148
185.127
188.007
190.779
193.442
195.992
198.429
200.748
202.948
205.027
206.983
208.814
210.52
212.098
213.548
214.868
216.059
217.119
218.048
218.845
219.511
220.046
220.451
220.726
220.872
220.89
220.78
220.544
220.183
219.699
219.094
218.368
217.524
216.565
215.492
214.307
213.014
211.614
210.111
208.508
206.807
205.012
203.127
201.153
199.096
196.958
194.743
192.456
190.099
187.678
185.195
182.656
180.064
177.423
174.737
172.011
169.249
166.455
163.633
160.787
157.92
155.039
152.145
149.243
146.337
143.432
140.529
137.633
134.747
131.874
129.016
126.177
123.358
120.563
117.794
115.053
112.343
109.664
107.02
104.411
101.839
99.3072
96.8155
94.3657
91.9593
89.5975
87.2819
85.0137
82.7947
80.6266
78.5114
76.4516
74.45
72.5103
70.6367
68.8341
67.1076
65.4623
63.8977
62.4186
28.0698
10.3474
7.16571
6.18644
5.85621
5.80772
5.91406
6.12035
6.39921
6.73569
7.12125
7.55094
8.02212
8.53368
9.08562
9.6788
10.3148
10.9957
11.724
12.5026
13.3348
14.2239
15.1738
16.188
17.2706
18.4254
19.6561
20.9664
22.3602
23.8409
25.4121
27.0772
28.839
30.7004
32.6639
34.7316
36.9052
39.1861
41.5752
44.0732
46.68
49.3954
52.2185
55.1481
58.1823
61.319
64.5555
67.8888
71.3153
74.8312
78.4321
82.1134
85.8702
89.6973
93.5894
97.541
101.547
105.6
109.691
113.816
117.968
122.142
126.33
130.528
134.729
138.927
143.117
147.293
151.44
155.539
159.585
163.571
167.491
171.341
175.113
178.803
182.406
185.918
189.332
192.647
195.856
198.957
201.946
204.819
207.572
210.202
212.708
215.087
217.336
219.454
221.439
223.29
225.005
226.583
228.024
229.326
230.489
231.513
232.397
233.141
233.745
234.211
234.538
234.727
234.779
234.696
234.478
234.126
233.643
233.03
232.288
231.421
230.429
229.316
228.083
226.734
225.271
223.697
222.016
220.229
218.341
216.356
214.276
212.105
209.848
207.507
205.088
202.594
200.03
197.399
194.707
191.956
189.153
186.3
183.403
180.466
177.494
174.49
171.459
168.405
165.333
162.247
159.151
156.049
152.944
149.842
146.745
143.657
140.582
137.523
134.482
131.462
128.467
125.499
122.56
119.652
116.778
113.94
111.14
108.379
105.659
102.982
100.349
97.7618
95.2215
92.7296
90.2874
87.8965
85.5583
83.2746
81.0475
78.8792
76.7725
74.7308
72.7577
70.8576
69.0346
67.2924
65.6298
64.0519
27.6951
10.2122
7.03378
6.04289
5.6986
5.63616
5.72965
5.92477
6.19457
6.52456
6.9066
7.33621
7.81116
8.33085
8.89585
9.50766
10.1685
10.8812
11.649
12.4757
13.3653
14.322
15.3503
16.4549
17.6405
18.9121
20.2736
21.7284
23.281
24.9355
26.6957
28.5649
30.5461
32.6418
34.8543
37.1852
39.6357
42.2065
44.8977
47.7089
50.6394
53.6875
56.8516
60.129
63.5168
67.0117
70.6099
74.307
78.0984
81.979
85.9435
89.9863
94.1014
98.2827
102.524
106.819
111.16
115.542
119.956
124.396
128.856
133.329
137.808
142.289
146.765
151.23
155.68
160.099
164.466
168.773
173.014
177.182
181.273
185.281
189.2
193.026
196.753
200.376
203.893
207.297
210.586
213.757
216.805
219.726
222.519
225.18
227.707
230.098
232.351
234.463
236.434
238.263
239.947
241.486
242.879
244.126
245.227
246.18
246.986
247.645
248.158
248.524
248.745
248.822
248.755
248.546
248.197
247.708
247.081
246.319
245.423
244.396
243.239
241.956
240.55
239.022
237.377
235.616
233.744
231.765
229.68
227.495
225.214
222.839
220.375
217.827
215.199
212.495
209.719
206.877
203.972
201.009
197.993
194.929
191.821
188.674
185.492
182.28
179.043
175.785
172.51
169.223
165.928
162.629
159.33
156.036
152.75
149.476
146.218
142.978
139.759
136.566
133.4
130.264
127.161
124.092
121.061
118.07
115.119
112.212
109.349
106.532
103.763
101.044
98.3746
95.7573
93.1932
90.6838
88.2306
85.8352
83.4997
81.2262
79.0174
76.8763
74.8062
72.8107
70.8933
69.0568
67.2994
65.6269
26.8072
9.99542
6.86311
5.88014
5.53382
5.46693
5.55676
5.75077
6.0233
6.36088
6.75641
7.20655
7.70951
8.26551
8.87614
9.54389
10.272
11.0643
11.925
12.8589
13.871
14.9663
16.1502
17.4279
18.8046
20.2853
21.8746
23.5767
25.3955
27.3347
29.3975
31.5866
33.904
36.3513
38.9294
41.6386
44.4786
47.4486
50.547
53.7719
57.1207
60.5902
64.1769
67.8768
71.6853
75.5975
79.6083
83.7121
87.9029
92.1747
96.5212
100.936
105.412
109.942
114.521
119.141
123.794
128.475
133.175
137.89
142.611
147.333
152.051
156.759
161.451
166.124
170.759
175.333
179.839
184.271
188.625
192.894
197.073
201.157
205.14
209.02
212.79
216.446
219.986
223.404
226.698
229.863
232.898
235.799
238.563
241.187
243.67
246.01
248.205
250.252
252.152
253.902
255.501
256.949
258.245
259.389
260.38
261.219
261.904
262.437
262.818
263.048
263.127
263.057
262.838
262.472
261.961
261.306
260.509
259.571
258.497
257.287
255.944
254.471
252.871
251.147
249.301
247.339
245.263
243.076
240.783
238.387
235.893
233.305
230.627
227.864
225.02
222.1
219.108
216.05
212.93
209.752
206.523
203.246
199.927
196.57
193.18
189.762
186.32
182.86
179.386
175.901
172.412
168.921
165.433
161.953
158.484
155.029
151.593
148.179
144.789
141.428
138.098
134.801
131.541
128.318
125.137
121.998
118.904
115.857
112.857
109.908
107.009
104.163
101.371
98.6337
95.9532
93.3306
90.7673
88.265
85.8255
83.451
81.1439
78.9068
76.7429
74.6552
72.6464
70.719
68.8707
67.1081
25.6195
9.75446
6.7079
5.74278
5.40521
5.34742
5.45038
5.66385
5.964
6.33904
6.78339
7.29507
7.87426
8.52282
9.2438
10.0412
10.9196
11.8843
12.9406
14.0944
15.3513
16.717
18.197
19.7965
21.5203
23.3725
25.3567
27.4761
29.7328
32.1286
34.6645
37.3407
40.1569
43.1119
46.2041
49.4311
52.7899
56.2772
59.8891
63.6212
67.4687
71.4266
75.4895
79.6518
83.9075
88.2506
92.6749
97.1738
101.741
106.37
111.054
115.786
120.56
125.368
130.206
135.065
139.939
144.823
149.709
154.593
159.469
164.332
169.177
173.999
178.796
183.542
188.217
192.816
197.335
201.768
206.111
210.358
214.506
218.55
222.484
226.307
230.012
233.597
237.058
240.392
243.596
246.666
249.599
252.394
255.048
257.557
259.921
262.138
264.206
266.122
267.887
269.499
270.957
272.26
273.408
274.4
275.236
275.917
276.441
276.81
277.023
277.083
276.988
276.742
276.344
275.796
275.1
274.258
273.271
272.142
270.872
269.466
267.924
266.25
264.448
262.519
260.469
258.3
256.015
253.62
251.117
248.511
245.807
243.008
240.12
237.147
234.093
230.964
227.764
224.498
221.172
217.79
214.358
210.879
207.361
203.806
200.221
196.611
192.979
189.331
185.671
182.004
178.335
174.667
171.006
167.354
163.717
160.098
156.5
152.927
149.382
145.868
142.389
138.946
135.543
132.181
128.863
125.592
122.368
119.193
116.07
113
109.984
107.023
104.119
101.273
98.4869
95.761
93.0973
90.4971
87.9624
85.4949
83.0971
80.7713
78.5203
76.3467
74.2527
72.2406
70.3079
68.4619
24.2254
9.46328
6.5574
5.63786
5.33244
5.30957
5.45644
5.72669
6.09962
6.56633
7.12407
7.77364
8.51803
9.36168
10.31
11.369
12.5449
13.8439
15.2721
16.8349
18.5375
20.3839
22.3777
24.5213
26.8162
29.2631
31.8616
34.6104
37.5076
40.5503
43.7351
47.058
50.5145
54.0998
57.8086
61.6353
65.5744
69.6198
73.7657
78.0059
82.3345
86.7453
91.2322
95.7892
100.41
105.089
109.82
114.597
119.414
124.266
129.146
134.05
138.97
143.902
148.841
153.78
158.716
163.643
168.556
173.452
178.327
183.176
187.997
192.786
197.509
202.155
206.721
211.203
215.595
219.895
224.099
228.201
232.198
236.087
239.863
243.523
247.063
250.481
253.772
256.935
259.965
262.861
265.619
268.237
270.714
273.046
275.232
277.27