/*--------------------------------*- C++ -*----------------------------------*\
| =========                 |                                                 |
| \\      /  F ield         | OpenFOAM: The Open Source CFD Toolbox           |
|  \\    /   O peration     | Version:  2412                                  |
|   \\  /    A nd           | Website:  www.openfoam.com                      |
|    \\/     M anipulation  |                                                 |
\*---------------------------------------------------------------------------*/
FoamFile
{
    version     2.0;
    format      ascii;
    arch        "LSB;label=32;scalar=64";
    class       volScalarField;
    location    "0.16";
    object      k;
}
// * * * * * * * * * * * * * * * * * * * * * * * * * * * * * * * * * * * * * //

dimensions      [0 2 -2 0 0 0 0];

internalField   nonuniform List<scalar> 
12225
(
0.316793
0.394493
0.477905
0.542612
0.593827
0.634371
0.666723
0.692776
0.713875
0.731034
0.745034
0.756468
0.765789
0.773335
0.779366
0.784016
0.787409
0.790406
0.569139
0.788914
0.952581
1.06799
1.1512
1.2127
1.25817
1.2917
1.3163
1.33411
1.3467
1.35524
1.36065
1.36362
1.36471
1.36426
1.36348
1.36138
0.670061
0.972154
1.18323
1.33202
1.43945
1.51861
1.57693
1.61968
1.65077
1.67301
1.6885
1.69878
1.70507
1.70829
1.70921
1.70841
1.70691
1.70489
0.722108
1.07674
1.32651
1.50447
1.63403
1.72971
1.80042
1.85243
1.89038
1.91766
1.93679
1.94966
1.95775
1.96219
1.96392
1.96373
1.96262
1.96115
0.742771
1.1292
1.41224
1.61818
1.77023
1.88337
1.96763
2.03016
2.07624
2.1098
2.13375
2.15033
2.16127
2.16791
2.17138
2.1726
2.17262
2.1721
0.739914
1.13776
1.44637
1.6782
1.85304
1.98505
2.08467
2.15964
2.21577
2.25742
2.2879
2.30977
2.325
2.33517
2.34155
2.34524
2.34726
2.34825
0.71962
1.1088
1.43133
1.68402
1.88029
2.03177
2.14828
2.23766
2.30595
2.35781
2.39687
2.42595
2.44728
2.46262
2.47342
2.48088
2.48602
2.48941
0.687642
1.05045
1.37183
1.63647
1.84973
2.01925
2.15293
2.25792
2.34009
2.40414
2.45382
2.49215
2.52152
2.54387
2.56078
2.57355
2.58318
2.59015
0.648987
0.97238
1.27662
1.5408
1.76294
1.94593
2.09472
2.21487
2.31147
2.38886
2.45069
2.49997
2.53915
2.57028
2.59501
2.61469
2.6303
2.6422
0.607485
0.884089
1.15748
1.4074
1.62724
1.81572
1.97447
2.10676
2.21629
2.30661
2.38089
2.44189
2.49198
2.53314
2.56703
2.59499
2.61795
2.6361
0.56582
0.793322
1.02684
1.2503
1.45567
1.63916
1.79966
1.93807
2.05635
2.15685
2.24194
2.31386
2.37463
2.42604
2.46959
2.50654
2.53772
2.5631
0.528747
0.712096
0.905185
1.09647
1.27869
1.44751
1.60046
1.73676
1.85688
1.96194
2.05337
2.13271
2.20149
2.26112
2.31286
2.35776
2.39649
2.4287
0.494653
0.637273
0.790587
0.946995
1.10077
1.24805
1.38603
1.51305
1.62849
1.73243
1.8254
1.9082
1.98176
2.04703
2.10491
2.1562
2.20131
2.23961
0.460676
0.562147
0.67315
0.789685
0.907913
1.02496
1.13849
1.24671
1.34846
1.44311
1.53047
1.6106
1.68381
1.75049
1.81111
1.86607
1.91551
1.95844
0.429346
0.49275
0.562803
0.638297
0.717361
0.798331
0.87971
0.960146
1.03854
1.11408
1.18622
1.2546
1.31905
1.37952
1.43604
1.48866
1.53724
1.58056
0.403168
0.435385
0.470979
0.510058
0.552196
0.596865
0.643488
0.691423
0.740024
0.78871
0.836988
0.884449
0.930766
0.975685
1.01901
1.06057
1.10009
1.13649
0.384083
0.39461
0.406483
0.419895
0.434849
0.451304
0.4692
0.488425
0.508818
0.530197
0.552368
0.575134
0.598302
0.621661
0.645031
0.668249
0.69111
0.713075
0.374047
0.373709
0.374089
0.375206
0.377037
0.37956
0.382763
0.386631
0.391142
0.396267
0.401971
0.408215
0.414956
0.422169
0.42981
0.437823
0.446139
0.454649
0.376606
0.378923
0.381988
0.38585
0.390482
0.39585
0.401917
0.40864
0.41596
0.42381
0.43212
0.440819
0.449836
0.459103
0.468556
0.478132
0.487757
0.497212
0.394947
0.417778
0.442955
0.470552
0.500291
0.531809
0.564716
0.598581
0.632955
0.667421
0.701612
0.735219
0.767988
0.799722
0.830273
0.859531
0.887374
0.913397
0.42777
0.489064
0.556226
0.628007
0.702571
0.778274
0.853683
0.927542
0.99884
1.06685
1.1311
1.19131
1.24738
1.29931
1.3472
1.3912
1.43147
1.46803
0.475739
0.59497
0.723604
0.855971
0.987184
1.11392
1.23379
1.3452
1.44732
1.53992
1.62323
1.6977
1.76394
1.82264
1.87449
1.92019
1.96035
1.99549
0.536845
0.728692
0.92862
1.12372
1.30641
1.47302
1.62181
1.75254
1.86608
1.9639
2.04766
2.11905
2.17966
2.23096
2.27424
2.31065
2.34116
2.36661
0.60414
0.873966
1.14016
1.38239
1.59447
1.77604
1.92882
2.05583
2.16061
2.24657
2.31675
2.37378
2.41989
2.45694
2.48649
2.50983
2.52803
2.54204
0.668314
1.00766
1.31642
1.57532
1.78709
1.95801
2.09446
2.20264
2.28798
2.35496
2.40718
2.44754
2.47837
2.50154
2.51853
2.53055
2.53858
2.54347
0.717303
1.09919
1.41419
1.65888
1.84811
1.99398
2.1059
2.19144
2.25648
2.30556
2.34215
2.36895
2.38804
2.40108
2.40933
2.4138
2.41531
2.41458
0.735718
1.11862
1.40734
1.61983
1.77772
1.89573
1.98395
2.04966
2.09826
2.13376
2.15921
2.17688
2.18853
2.19548
2.19879
2.19927
2.19755
2.19422
0.708199
1.04716
1.29075
1.46557
1.59175
1.68428
1.75245
1.80244
1.83877
1.86479
1.88295
1.89508
1.90257
1.90647
1.9076
1.9066
1.90396
1.90015
0.616921
0.862574
1.0489
1.18265
1.27674
1.34491
1.39483
1.43127
1.45767
1.47656
1.48975
1.49856
1.504
1.50685
1.50769
1.50699
1.50509
1.50241
0.33327
0.408789
0.496176
0.564093
0.616607
0.657443
0.689404
0.714713
0.734949
0.751238
0.764427
0.775163
0.78394
0.79114
0.797062
0.801945
0.805964
0.809297
0.00812626
0.0129076
0.0164219
0.0191062
0.0211318
0.022869
0.0248569
0.0269168
0.029049
0.0313124
0.0338369
0.0369846
0.0407419
0.0448504
0.0492591
0.0539556
0.058945
0.0642316
0.0698136
0.0756826
0.0818246
0.0882224
0.0948578
0.101714
0.108776
0.116036
0.12349
0.131145
0.139021
0.14715
0.15548
0.163927
0.172474
0.18111
0.189824
0.19861
0.207459
0.216364
0.225321
0.234323
0.243365
0.252444
0.261555
0.270694
0.279856
0.289036
0.298232
0.307436
0.316646
0.325856
0.33506
0.344253
0.35343
0.362584
0.371709
0.3808
0.389849
0.39885
0.407797
0.416683
0.425501
0.434244
0.442906
0.45148
0.459958
0.468336
0.476605
0.484761
0.492798
0.500711
0.508499
0.516165
0.523716
0.531174
0.538579
0.545827
0.552892
0.559778
0.566486
0.573013
0.579355
0.585508
0.591466
0.597226
0.602783
0.608132
0.613269
0.618191
0.622894
0.627375
0.63163
0.635657
0.639453
0.643015
0.646342
0.649431
0.65228
0.654889
0.657254
0.659376
0.661253
0.662885
0.66427
0.665409
0.666301
0.666945
0.667343
0.667494
0.667399
0.667059
0.666473
0.665645
0.664574
0.663262
0.661711
0.659923
0.6579
0.655644
0.653158
0.650445
0.647507
0.644349
0.640973
0.637385
0.633586
0.629583
0.625379
0.620979
0.616389
0.611614
0.606659
0.601529
0.596232
0.590773
0.585158
0.579393
0.573488
0.567447
0.56128
0.555001
0.548592
0.542128
0.535663
0.529933
0.526104
0.522491
0.51881
0.515041
0.511186
0.507248
0.503233
0.499147
0.494995
0.490782
0.486514
0.482197
0.477837
0.473439
0.469008
0.464551
0.460072
0.455577
0.451072
0.446559
0.442045
0.437533
0.433026
0.428527
0.424035
0.41955
0.415068
0.41058
0.406071
0.401513
0.396856
0.392007
0.38676
0.380594
0.372628
0.361931
0.0169142
0.0268965
0.0355725
0.0426262
0.0490677
0.0553489
0.0614511
0.0676679
0.074255
0.0812943
0.0887748
0.0966534
0.104862
0.113339
0.12206
0.131025
0.140245
0.149737
0.159516
0.169596
0.179989
0.190706
0.201754
0.213138
0.224864
0.236931
0.249337
0.262076
0.275139
0.288511
0.302175
0.316112
0.330307
0.344749
0.359423
0.374318
0.38942
0.40472
0.420206
0.435867
0.451696
0.467682
0.483816
0.500092
0.516499
0.533031
0.549679
0.566434
0.583288
0.600231
0.617255
0.634349
0.651503
0.668707
0.685949
0.703218
0.720502
0.737789
0.755068
0.772324
0.789546
0.80672
0.823834
0.840875
0.857828
0.874682
0.891424
0.90804
0.924519
0.940847
0.957013
0.973004
0.988808
1.00441
1.01966
1.03461
1.04929
1.06371
1.07787
1.09176
1.10536
1.11867
1.13168
1.14437
1.15673
1.16877
1.18045
1.19179
1.20276
1.21336
1.22358
1.23342
1.24287
1.25191
1.26055
1.26878
1.27659
1.28398
1.29093
1.29746
1.30355
1.3092
1.3144
1.31915
1.32346
1.32731
1.33071
1.33365
1.33613
1.33815
1.33971
1.34081
1.34144
1.34162
1.34133
1.34058
1.33938
1.33771
1.3356
1.33303
1.33001
1.32654
1.32264
1.3183
1.31353
1.30833
1.30272
1.29669
1.29025
1.28342
1.2762
1.2686
1.26062
1.25229
1.2436
1.23456
1.22521
1.21552
1.20554
1.19528
1.18465
1.17388
1.16293
1.15195
1.14112
1.13018
1.11907
1.10778
1.09632
1.08471
1.07296
1.06108
1.04908
1.03699
1.0248
1.01254
1.00022
0.987852
0.975444
0.96301
0.950563
0.938114
0.925673
0.913252
0.90086
0.888507
0.876201
0.863949
0.851756
0.839628
0.827564
0.815563
0.803616
0.79171
0.779816
0.767895
0.755845
0.743552
0.729511
0.714207
0.0246287
0.0428228
0.0556719
0.0657125
0.0745073
0.0826655
0.0907633
0.0991263
0.107923
0.117197
0.126911
0.136998
0.147394
0.158061
0.168992
0.180204
0.191731
0.203612
0.215885
0.228585
0.24174
0.255371
0.26949
0.284099
0.299196
0.314769
0.330801
0.34727
0.364152
0.381418
0.399041
0.416997
0.43526
0.45381
0.472626
0.49169
0.510985
0.530497
0.550211
0.570117
0.590203
0.610459
0.630876
0.651446
0.67216
0.693009
0.713984
0.735076
0.756276
0.777575
0.798961
0.820424
0.841953
0.863534
0.885156
0.906806
0.92847
0.950133
0.97178
0.993398
1.01497
1.03648
1.05792
1.07926
1.1005
1.12161
1.14258
1.1634
1.18405
1.20452
1.22479
1.24485
1.26469
1.28428
1.30353
1.32247
1.3411
1.35941
1.37739
1.39502
1.41229
1.42919
1.44571
1.46182
1.47752
1.4928
1.50764
1.52202
1.53595
1.5494
1.56237
1.57485
1.58683
1.5983
1.60925
1.61967
1.62956
1.63891
1.64771
1.65596
1.66365
1.67078
1.67734
1.68333
1.68874
1.69358
1.69783
1.7015
1.70459
1.70709
1.709
1.71033
1.71106
1.71121
1.71077
1.70974
1.70813
1.70594
1.70317
1.69983
1.69592
1.69143
1.68639
1.6808
1.67466
1.66797
1.66076
1.65302
1.64477
1.63601
1.62676
1.61702
1.60681
1.59614
1.58503
1.57348
1.56152
1.54914
1.53637
1.52329
1.50986
1.49616
1.4822
1.46808
1.45388
1.4395
1.42491
1.41011
1.3951
1.3799
1.36453
1.349
1.33334
1.31755
1.30165
1.28567
1.26961
1.2535
1.23734
1.22116
1.20497
1.18878
1.17261
1.15647
1.14037
1.12433
1.10835
1.09246
1.07665
1.06094
1.04533
1.02983
1.01443
0.999144
0.983959
0.968882
0.953899
0.939057
0.923911
0.908253
0.031393
0.0585283
0.0751638
0.087327
0.0975979
0.107131
0.116529
0.126138
0.136139
0.146596
0.157499
0.168809
0.180488
0.192521
0.204916
0.217702
0.230919
0.244609
0.258812
0.27356
0.288873
0.304763
0.321229
0.338264
0.35585
0.373965
0.392582
0.411671
0.431202
0.451143
0.471465
0.492142
0.513149
0.534465
0.556068
0.577941
0.60007
0.62244
0.64504
0.667857
0.690882
0.714107
0.737522
0.761118
0.784887
0.80882
0.832909
0.857143
0.881512
0.906006
0.930613
0.95532
0.980115
1.00498
1.02991
1.05488
1.07988
1.1049
1.1299
1.15489
1.17983
1.20471
1.22951
1.25422
1.27882
1.30327
1.32758
1.35172
1.37567
1.39942
1.42295
1.44624
1.46928
1.492
1.51438
1.53642
1.55809
1.5794
1.60031
1.62082
1.64091
1.66056
1.67976
1.69849
1.71673
1.73447
1.75169
1.76839
1.78454
1.80013
1.81516
1.82961
1.84346
1.85672
1.86937
1.8814
1.8928
1.90356
1.91368
1.92316
1.93198
1.94013
1.94763
1.95445
1.9606
1.96607
1.97086
1.97497
1.97839
1.98113
1.98318
1.98455
1.98522
1.98522
1.98452
1.98315
1.98109
1.97836
1.97495
1.97088
1.96614
1.96075
1.9547
1.94801
1.94069
1.93274
1.92417
1.915
1.90523
1.89488
1.88395
1.87247
1.86044
1.84788
1.83481
1.82121
1.80717
1.7927
1.77779
1.7625
1.74682
1.7308
1.71448
1.69792
1.68116
1.66418
1.64695
1.62949
1.6118
1.5939
1.5758
1.55754
1.53911
1.52056
1.50188
1.48311
1.46427
1.44536
1.42641
1.40744
1.38846
1.36949
1.35055
1.33166
1.31282
1.29405
1.27537
1.2568
1.23833
1.22
1.2018
1.18375
1.16586
1.14815
1.13063
1.11335
1.09637
1.07983
1.06367
1.04788
0.0367895
0.0727884
0.0923913
0.106344
0.117987
0.128627
0.138948
0.149352
0.160065
0.1712
0.182797
0.194859
0.207382
0.220369
0.233837
0.247817
0.26234
0.277442
0.293149
0.309481
0.326447
0.344046
0.362269
0.381099
0.400514
0.420486
0.440987
0.461987
0.483457
0.505367
0.52769
0.550403
0.573481
0.596907
0.62066
0.644727
0.669092
0.693742
0.718668
0.743857
0.769301
0.794991
0.820916
0.847069
0.873441
0.900021
0.926799
0.953765
0.980908
1.00821
1.03567
1.06326
1.09098
1.1188
1.1467
1.17468
1.20271
1.23077
1.25884
1.2869
1.31493
1.34292
1.37082
1.39864
1.42633
1.45388
1.48128
1.50849
1.53549
1.56227
1.5888
1.61507
1.64105
1.66667
1.69191
1.71677
1.74122
1.76524
1.78882
1.81194
1.83458
1.85672
1.87833
1.89942
1.91994
1.93989
1.95926
1.97801
1.99615
2.01365
2.03051
2.0467
2.06222
2.07705
2.09119
2.10462
2.11734
2.12934
2.1406
2.15113
2.16091
2.16994
2.17822
2.18573
2.19249
2.19847
2.20368
2.20812
2.21179
2.21468
2.21679
2.21813
2.21869
2.21848
2.21749
2.21574
2.21322
2.20994
2.2059
2.20112
2.19558
2.18931
2.18231
2.17459
2.16616
2.15702
2.1472
2.13669
2.12553
2.1137
2.10124
2.08816
2.07447
2.06018
2.04535
2.02998
2.0141
1.99773
1.9809
1.96362
1.94591
1.92783
1.90939
1.89065
1.87165
1.85238
1.83284
1.81303
1.79299
1.77271
1.75223
1.73156
1.71073
1.68975
1.66865
1.64745
1.62617
1.60484
1.58346
1.56207
1.54067
1.5193
1.49797
1.47669
1.45548
1.43437
1.41336
1.39248
1.37174
1.35115
1.33074
1.31053
1.29053
1.27077
1.25131
1.2322
1.21356
1.19558
1.17835
1.16201
0.0426441
0.0843204
0.106534
0.122199
0.135096
0.146693
0.157764
0.168769
0.179989
0.191591
0.203663
0.216251
0.229382
0.243076
0.257354
0.272241
0.287761
0.303936
0.320781
0.338303
0.356503
0.375373
0.394897
0.415058
0.435831
0.457192
0.479114
0.501569
0.524533
0.547979
0.571885
0.596229
0.620992
0.646155
0.671704
0.697624
0.723902
0.750526
0.777485
0.80477
0.83237
0.860277
0.888479
0.916968
0.945734
0.974764
1.00405
1.03357
1.06333
1.0933
1.12346
1.15381
1.18432
1.21497
1.24575
1.27663
1.30759
1.33861
1.36966
1.40073
1.43178
1.46279
1.49373
1.52458
1.55531
1.58589
1.6163
1.64652
1.67651
1.70626
1.73573
1.7649
1.79374
1.82218
1.8502
1.87779
1.90492
1.93157
1.95772
1.98336
2.00845
2.03298
2.05692
2.08026
2.10297
2.12504
2.14644
2.16717
2.18719
2.2065
2.22509
2.24293
2.26001
2.27633
2.29187
2.30662
2.32056
2.3337
2.34602
2.35752
2.36818
2.37801
2.38699
2.39512
2.40241
2.40884
2.41441
2.41912
2.42297
2.42596
2.42808
2.42935
2.42976
2.42931
2.428
2.42585
2.42285
2.41901
2.41433
2.40882
2.40249
2.39535
2.38741
2.37867
2.36915
2.35886
2.3478
2.33601
2.32349
2.31025
2.2963
2.2817
2.26645
2.25057
2.23408
2.21701
2.19938
2.18122
2.16254
2.14339
2.12377
2.10373
2.0833
2.06252
2.04142
2.02001
1.99832
1.97634
1.9541
1.93162
1.90891
1.88602
1.86295
1.83973
1.81639
1.79294
1.76942
1.74584
1.72223
1.6986
1.67498
1.6514
1.62786
1.60439
1.58102
1.55775
1.53461
1.51163
1.48881
1.46617
1.44376
1.42158
1.39966
1.37807
1.35685
1.33609
1.31594
1.2966
1.2782
1.26092
0.049502
0.0935182
0.117683
0.134737
0.1487
0.161134
0.172868
0.184404
0.196065
0.208058
0.220517
0.23352
0.24712
0.26135
0.276236
0.291801
0.30806
0.325026
0.342705
0.361099
0.380202
0.400004
0.420489
0.441639
0.463435
0.485853
0.508873
0.532471
0.556626
0.581318
0.606527
0.632236
0.658428
0.685088
0.712203
0.73976
0.767747
0.796154
0.824969
0.854184
0.883787
0.913768
0.944118
0.974825
1.00588
1.03726
1.06897
1.10098
1.13327
1.16584
1.19867
1.23173
1.265
1.29846
1.33208
1.36585
1.39973
1.4337
1.46773
1.5018
1.53586
1.5699
1.60388
1.63776
1.67153
1.70515
1.73858
1.77181
1.80479
1.83749
1.8699
1.90198
1.93365
1.96489
1.99566
2.02595
2.05574
2.08499
2.11368
2.1418
2.1693
2.19618
2.22241
2.24796
2.27281
2.29694
2.32034
2.34297
2.36483
2.3859
2.40615
2.42559
2.44418
2.46193
2.47881
2.49481
2.50993
2.52415
2.53747
2.54988
2.56137
2.57194
2.58157
2.59028
2.59804
2.60487
2.61075
2.61569
2.61968
2.62273
2.62483
2.62599
2.62621
2.62549
2.62383
2.62125
2.61774
2.61331
2.60798
2.60174
2.5946
2.58658
2.57769
2.56793
2.55733
2.54589
2.53362
2.52054
2.5067
2.49209
2.47673
2.46066
2.44389
2.42644
2.40834
2.38961
2.37028
2.35038
2.32993
2.30895
2.28749
2.26556
2.24321
2.22046
2.19736
2.17392
2.15017
2.12611
2.10178
2.0772
2.05238
2.02737
2.00217
1.97682
1.95135
1.92577
1.90012
1.87442
1.84869
1.82295
1.79723
1.77155
1.74594
1.72041
1.69499
1.66969
1.64455
1.61958
1.59481
1.57026
1.54596
1.52194
1.49825
1.47494
1.45207
1.42977
1.40817
1.38748
1.36781
1.34931
0.055375
0.10033
0.1259
0.144031
0.158867
0.172027
0.184361
0.196396
0.208478
0.220844
0.233651
0.247008
0.260983
0.275624
0.290962
0.307019
0.323807
0.341336
0.359609
0.378623
0.398373
0.418848
0.440036
0.461923
0.484491
0.507725
0.531608
0.556122
0.581251
0.60698
0.633293
0.660178
0.68762
0.715609
0.744131
0.773178
0.802737
0.8328
0.863356
0.894395
0.925906
0.957879
0.990302
1.02316
1.05645
1.09014
1.12423
1.1587
1.19352
1.22868
1.26416
1.29992
1.33596
1.37224
1.40872
1.4454
1.48222
1.51916
1.55619
1.59328
1.63038
1.66747
1.70451
1.74146
1.77829
1.81495
1.85143
1.88767
1.92365
1.95933
1.99467
2.02965
2.06416
2.09819
2.13171
2.16469
2.19711
2.22894
2.26015
2.29071
2.32061
2.3498
2.37828
2.406
2.43295
2.45911
2.48445
2.50895
2.53259
2.55537
2.57725
2.59822
2.61827
2.63739
2.65556
2.67277
2.68901
2.70427
2.71853
2.7318
2.74407
2.75532
2.76556
2.77479
2.78299
2.79016
2.79631
2.80143
2.80552
2.80858
2.81062
2.81164
2.81163
2.81061
2.80858
2.80554
2.8015
2.79646
2.79044
2.78345
2.7755
2.76659
2.75674
2.74595
2.73426
2.72169
2.70823
2.69392
2.67877
2.66281
2.64606
2.62854
2.61027
2.59128
2.5716
2.55124
2.53025
2.50865
2.48646
2.46371
2.44044
2.41668
2.39245
2.36781
2.34277
2.31737
2.29164
2.26559
2.23924
2.21264
2.18579
2.15874
2.1315
2.10411
2.0766
2.04898
2.02129
1.99355
1.96579
1.93804
1.91031
1.88264
1.85504
1.82754
1.80017
1.77295
1.74589
1.71904
1.69241
1.66604
1.63995
1.61419
1.5888
1.56385
1.53943
1.51564
1.49262
1.47057
1.44956
1.42971
0.0601919
0.104952
0.131438
0.150352
0.165872
0.179637
0.192506
0.205006
0.217492
0.230214
0.243346
0.25701
0.271291
0.286245
0.301911
0.318312
0.335465
0.353378
0.372055
0.391495
0.411694
0.432646
0.454342
0.476774
0.49993
0.5238
0.548372
0.573636
0.599581
0.626196
0.653472
0.681398
0.709965
0.739164
0.768987
0.799424
0.830466
0.862105
0.894331
0.927132
0.9605
0.994421
1.02888
1.06387
1.09937
1.13536
1.17183
1.20875
1.24611
1.28387
1.32201
1.36051
1.39934
1.43845
1.47783
1.51743
1.55723
1.59717
1.63723
1.67736
1.71753
1.75769
1.79781
1.83784
1.87773
1.91746
1.95698
1.99625
2.03522
2.07387
2.11215
2.14999
2.18733
2.22413
2.26036
2.29601
2.33103
2.36539
2.39908
2.43205
2.46428
2.49575
2.52641
2.55625
2.58525
2.61337
2.64059
2.6669
2.69227
2.71668
2.74012
2.76257
2.78402
2.80445
2.82384
2.84219
2.85949
2.87572
2.89087
2.90494
2.91792
2.92981
2.9406
2.95028
2.95886
2.96634
2.9727
2.97796
2.98211
2.98514
2.98708
2.98791
2.98765
2.98629
2.98384
2.98032
2.97572
2.97006
2.96333
2.95557
2.94678
2.93698
2.92618
2.91438
2.90163
2.88792
2.87329
2.85774
2.84131
2.82402
2.80588
2.78693
2.76719
2.74669
2.72545
2.70351
2.68089
2.65762
2.63373
2.60926
2.58423
2.55868
2.53265
2.50616
2.47925
2.45196
2.42431
2.39633
2.36805
2.3395
2.3107
2.28169
2.25249
2.22314
2.19366
2.16409
2.13444
2.10475
2.07505
2.04536
2.01571
1.98613
1.95663
1.92725
1.89801
1.86894
1.84007
1.81141
1.78301
1.7549
1.7271
1.69968
1.67267
1.64616
1.62022
1.59498
1.57057
1.54715
1.52477
1.50351
0.0639836
0.10766
0.134642
0.154076
0.170097
0.184342
0.197662
0.210574
0.223432
0.236483
0.249908
0.263837
0.278363
0.293551
0.309446
0.326078
0.343467
0.361627
0.380564
0.400282
0.420782
0.442065
0.464126
0.486964
0.510573
0.534951
0.560091
0.58599
0.612642
0.640042
0.668186
0.697067
0.726681
0.757021
0.788082
0.819856
0.852336
0.885513
0.919378
0.953921
0.98913
1.02499
1.06149
1.09861
1.13633
1.17464
1.21351
1.25291
1.29282
1.33321
1.37405
1.41531
1.45695
1.49894
1.54123
1.58379
1.62658
1.66954
1.71264
1.75583
1.79907
1.8423
1.88549
1.92859
1.97154
2.01431
2.05685
2.09911
2.14105
2.18263
2.2238
2.26446
2.30455
2.34406
2.38295
2.42118
2.45873
2.49556
2.53164
2.56694
2.60143
2.63507
2.66784
2.69972
2.73066
2.76066
2.78967
2.81769
2.84469
2.87066
2.89557
2.91941
2.94216
2.9638
2.98434
3.00375
3.02202
3.03915
3.05511
3.0699
3.08353
3.09597
3.10724
3.11733
3.12623
3.13395
3.14047
3.14581
3.14996
3.15292
3.15471
3.15532
3.15475
3.15302
3.15013
3.14609
3.14092
3.13461
3.12718
3.11865
3.10903
3.09833
3.08657
3.07378
3.05996
3.04514
3.02933
3.01257
2.99488
2.97627
2.95678
2.93643
2.91525
2.89326
2.87051
2.84701
2.8228
2.79792
2.77238
2.74623
2.7195
2.69222
2.66443
2.63617
2.60746
2.57835
2.54887
2.51904
2.4889
2.45848
2.42781
2.39692
2.36585
2.33462
2.30326
2.27181
2.2403
2.20875
2.17719
2.14565
2.11417
2.08276
2.05145
2.02027
1.98926
1.95842
1.92781
1.89744
1.86734
1.83757
1.80814
1.77912
1.75057
1.72255
1.69516
1.66851
1.64272
1.61793
1.59417
1.5715
0.0668004
0.108744
0.13588
0.155609
0.171963
0.186561
0.200236
0.213492
0.226667
0.240003
0.25368
0.267828
0.282545
0.297902
0.31395
0.330727
0.348258
0.366564
0.385658
0.405551
0.426251
0.447764
0.470095
0.493249
0.517227
0.542034
0.567671
0.594141
0.621443
0.649579
0.678549
0.708352
0.738986
0.770448
0.802735
0.835842
0.869761
0.904486
0.940007
0.976312
1.01339
1.05122
1.08979
1.12908
1.16907
1.20973
1.25103
1.29296
1.33546
1.37852
1.4221
1.46614
1.51063
1.5555
1.60073
1.64625
1.69202
1.738
1.78413
1.83036
1.87663
1.9229
1.96912
2.01523
2.06118
2.10693
2.15241
2.19759
2.24241
2.28683
2.33077
2.37413
2.41688
2.45898
2.5004
2.5411
2.58105
2.62022
2.65856
2.69605
2.73266
2.76836
2.8031
2.83687
2.86964
2.90137
2.93205
2.96165
2.99015
3.01754
3.04379
3.06889
3.09283
3.11558
3.13715
3.15751
3.17665
3.19457
3.21124
3.22667
3.24084
3.25376
3.26543
3.27583
3.28498
3.29287
3.29949
3.30484
3.30894
3.31177
3.31336
3.3137
3.3128
3.31067
3.30731
3.30274
3.29697
3.29
3.28186
3.27255
3.26209
3.25051
3.23781
3.22402
3.20915
3.19323
3.17628
3.15832
3.13939
3.1195
3.09869
3.07697
3.05439
3.03098
3.00675
2.98175
2.95601
2.92957
2.90244
2.87468
2.84631
2.81737
2.7879
2.75794
2.72751
2.69667
2.66543
2.63385
2.60194
2.56974
2.53729
2.50463
2.47177
2.43875
2.40562
2.37239
2.3391
2.30579
2.27247
2.23918
2.20596
2.17282
2.13979
2.10691
2.07421
2.04171
2.00944
1.97744
1.94574
1.91439
1.88341
1.85288
1.82284
1.79338
1.76459
1.73656
1.70943
1.68329
1.65815
1.63408
0.0686969
0.108474
0.1355
0.155342
0.171883
0.186715
0.200647
0.214164
0.227591
0.241158
0.255037
0.269357
0.284218
0.299693
0.31584
0.332704
0.350318
0.36871
0.387902
0.407913
0.428758
0.450454
0.473013
0.496447
0.520767
0.545984
0.572107
0.599144
0.627103
0.655989
0.685807
0.716561
0.748252
0.78088
0.814445
0.848941
0.884363
0.920702
0.957949
0.996089
1.03511
1.07499
1.1157
1.15723
1.19955
1.24263
1.28643
1.33093
1.37608
1.42184
1.46817
1.51503
1.56236
1.61012
1.65826
1.70672
1.75545
1.8044
1.85349
1.90268
1.95192
2.00113
2.05027
2.09928
2.1481
2.19669
2.24498
2.29292
2.34048
2.38758
2.43409
2.47997
2.52518
2.56969
2.61345
2.65642
2.69858
2.73988
2.78029
2.81978
2.85832
2.89587
2.9324
2.96788
3.00227
3.03556
3.06771
3.09872
3.12855
3.15719
3.18462
3.21082
3.23578
3.25949
3.28194
3.30311
3.323
3.34158
3.35884
3.37477
3.38939
3.40267
3.41463
3.42527
3.43457
3.44254
3.44918
3.45448
3.45846
3.46112
3.46246
3.4625
3.46123
3.45866
3.45481
3.44969
3.44331
3.43568
3.42681
3.41673
3.40545
3.39298
3.37935
3.36457
3.34868
3.33169
3.31362
3.29451
3.27438
3.25325
3.23116
3.20814
3.18422
3.15942
3.13379
3.10736
3.08016
3.05222
3.02359
2.99429
2.96437
2.93386
2.9028
2.87123
2.83918
2.8067
2.77382
2.74057
2.707
2.67314
2.63902
2.60468
2.57015
2.53546
2.50065
2.46576
2.43081
2.39584
2.36087
2.32594
2.29108
2.25632
2.22169
2.18721
2.15293
2.11886
2.08504
2.05151
2.0183
1.98546
1.95302
1.92105
1.88961
1.85878
1.82864
1.7993
1.77085
1.74339
1.71691
1.69147
0.0697222
0.10709
0.133812
0.153627
0.170238
0.185199
0.199296
0.212995
0.226605
0.240345
0.254379
0.268831
0.283801
0.299365
0.315586
0.332515
0.350194
0.368659
0.387942
0.40807
0.42907
0.450966
0.473779
0.497531
0.522242
0.547928
0.574606
0.602291
0.630995
0.660729
0.691502
0.723322
0.756192
0.790115
0.825089
0.861111
0.898172
0.936264
0.975373
1.01548
1.05657
1.09862
1.1416
1.18548
1.23022
1.2758
1.32218
1.3693
1.41713
1.46562
1.51472
1.56437
1.61452
1.66512
1.71611
1.76744
1.81903
1.87082
1.92275
1.97476
2.02678
2.07875
2.13062
2.18233
2.23381
2.28501
2.33588
2.38636
2.4364
2.48587
2.53469
2.58282
2.63022
2.67685
2.72267
2.76764
2.81173
2.85489
2.89709
2.9383
2.97849
3.01763
3.05571
3.09264
3.12841
3.163
3.19639
3.22856
3.2595
3.28917
3.31757
3.34467
3.37047
3.39494
3.41808
3.43988
3.46033
3.47941
3.4971
3.51342
3.52835
3.54189
3.55403
3.56479
3.57415
3.58212
3.5887
3.59389
3.59769
3.60012
3.60116
3.60085
3.59917
3.59614
3.59178
3.58609
3.57908
3.57078
3.56119
3.55034
3.53824
3.52491
3.51037
3.49464
3.47776
3.45973
3.44059
3.42037
3.39909
3.37679
3.35349
3.32922
3.30403
3.27793
3.25098
3.22319
3.19462
3.16529
3.13524
3.10451
3.07314
3.04116
3.00862
2.97555
2.942
2.908
2.87359
2.83882
2.8037
2.7683
2.73263
2.69674
2.66067
2.62444
2.58809
2.55166
2.51517
2.47867
2.44218
2.40574
2.36937
2.33311
2.29699
2.26104
2.22529
2.18977
2.15451
2.11956
2.08494
2.05071
2.01692
1.98361
1.95085
1.91872
1.88731
1.8567
1.82699
1.79826
1.77049
1.74374
0.0699114
0.104797
0.13108
0.150772
0.167366
0.182374
0.196559
0.210372
0.224108
0.237976
0.252131
0.266696
0.281769
0.297427
0.31374
0.330764
0.34855
0.367144
0.386585
0.406913
0.428164
0.45037
0.473563
0.497775
0.523032
0.549361
0.576781
0.605312
0.63497
0.66577
0.697725
0.730844
0.765131
0.800588
0.837211
0.874995
0.91393
0.953999
0.995186
1.03747
1.08082
1.12521
1.1706
1.21696
1.26425
1.31241
1.36142
1.41121
1.46173
1.51292
1.56474
1.61712
1.66999
1.72331
1.777
1.831
1.88527
1.9397
1.99423
2.04879
2.10332
2.15776
2.21205
2.26612
2.31992
2.3734
2.42649
2.47915
2.53126
2.58272
2.63346
2.68346
2.73266
2.78103
2.82853
2.87511
2.92074
2.96539
3.00902
3.05159
3.09308
3.13345
3.17268
3.21072
3.24755
3.28315
3.31748
3.35054
3.38231
3.41275
3.44187
3.46963
3.49603
3.52105
3.54468
3.56692
3.58774
3.60714
3.62511
3.64165
3.65675
3.6704
3.68261
3.69338
3.7027
3.71057
3.717
3.72199
3.72555
3.72767
3.72837
3.72766
3.72553
3.72202
3.71711
3.71084
3.70321
3.69423
3.68393
3.67232
3.65942
3.64525
3.62984
3.6132
3.59537
3.57636
3.55621
3.53495
3.51259
3.48918
3.46475
3.43933
3.41295
3.38566
3.35747
3.32845
3.29861
3.26799
3.23665
3.2046
3.17191
3.13859
3.1047
3.07027
3.03535
2.99997
2.96418
2.92801
2.89151
2.85471
2.81764
2.78035
2.74288
2.70525
2.66751
2.62969
2.59181
2.55393
2.51606
2.47825
2.44052
2.4029
2.36543
2.32814
2.29105
2.25421
2.21765
2.1814
2.1455
2.11
2.07495
2.04041
2.00643
1.9731
1.94049
1.90869
1.87779
1.84785
1.81885
1.79086
0.0692892
0.10175
0.127519
0.147031
0.163557
0.178561
0.192787
0.206672
0.220504
0.234485
0.248767
0.26347
0.278691
0.294514
0.311009
0.328243
0.346275
0.365158
0.384944
0.405681
0.427415
0.450187
0.47404
0.499011
0.525139
0.552461
0.580994
0.610745
0.641741
0.674
0.707532
0.742347
0.778445
0.815823
0.854474
0.894385
0.935537
0.977908
1.02147
1.06619
1.11204
1.15898
1.20695
1.25592
1.30584
1.35664
1.40829
1.46071
1.51385
1.56764
1.62202
1.67693
1.73231
1.78807
1.84416
1.90052
1.95706
2.01372
2.07043
2.12711
2.18371
2.24015
2.29639
2.35236
2.408
2.46326
2.51808
2.57238
2.626
2.67891
2.73106
2.7824
2.8329
2.88251
2.93118
2.97889
3.0256
3.07127
3.11586
3.15935
3.2017
3.24289
3.28288
3.32164
3.35915
3.39538
3.43031
3.46392
3.49619
3.5271
3.55663
3.58477
3.6115
3.63682
3.6607
3.68315
3.70413
3.72366
3.74172
3.7583
3.7734
3.78702
3.79915
3.8098
3.81895
3.82662
3.83281
3.83752
3.84075
3.84251
3.84281
3.84165
3.83905
3.83502
3.82956
3.82269
3.81443
3.80479
3.79379
3.78145
3.76779
3.75282
3.73659
3.71909
3.70038
3.68046
3.65937
3.63714
3.6138
3.58939
3.56392
3.53745
3.51001
3.48162
3.45234
3.42219
3.39122
3.35946
3.32695
3.29374
3.25987
3.22536
3.19028
3.15464
3.11851
3.08192
3.04491
3.00752
2.96978
2.93175
2.89346
2.85494
2.81624
2.77739
2.73842
2.69937
2.66028
2.62118
2.5821
2.54308
2.50414
2.46533
2.42666
2.38818
2.34992
2.3119
2.27417
2.23677
2.19972
2.16308
2.12691
2.09124
2.05616
2.02172
1.98802
1.95512
1.92311
1.89204
1.86189
1.83276
0.0678007
0.0978267
0.123121
0.142462
0.158918
0.173911
0.188176
0.202144
0.2161
0.230246
0.244739
0.259707
0.27524
0.291423
0.30834
0.326064
0.344664
0.364204
0.384745
0.406343
0.429051
0.452922
0.478
0.504328
0.531944
0.56088
0.591161
0.622804
0.655823
0.690228
0.726024
0.763209
0.801773
0.841704
0.882981
0.925578
0.969465
1.01461
1.06096
1.10849
1.15714
1.20686
1.25759
1.30929
1.36188
1.41532
1.46953
1.52446
1.58003
1.63618
1.69284
1.74995
1.80743
1.86522
1.92325
1.98145
2.03975
2.09809
2.1564
2.21461
2.27265
2.33048
2.38803
2.44524
2.50207
2.55846
2.61431
2.66949
2.72394
2.77763
2.83051
2.88253
2.93367
2.98387
3.0331
3.08133
3.12851
3.17462
3.21962
3.26348
3.30617
3.34766
3.38792
3.42693
3.46466
3.50109
3.53619
3.56994
3.60232
3.63332
3.66292
3.69111
3.71786
3.74316
3.76701
3.78938
3.81028
3.82969
3.84761
3.86402
3.87893
3.89232
3.9042
3.91457
3.92342
3.93075
3.93658
3.94089
3.9437
3.94501
3.94483
3.94316
3.94002
3.93542
3.92937
3.92189
3.91298
3.90267
3.89097
3.87791
3.8635
3.84777
3.83074
3.81244
3.79289
3.77212
3.75016
3.72704
3.7028
3.67746
3.65106
3.62364
3.59523
3.56587
3.5356
3.50446
3.47248
3.4397
3.40618
3.37194
3.33702
3.30148
3.26534
3.22866
3.19148
3.15383
3.11576
3.0773
3.03851
2.99941
2.96006
2.92048
2.88071
2.84079
2.80077
2.76066
2.72051
2.68036
2.64023
2.60016
2.56018
2.52032
2.48061
2.4411
2.4018
2.36276
2.324
2.28557
2.24751
2.20987
2.17268
2.13601
2.09993
2.06449
2.02978
1.99588
1.96284
1.93072
1.89951
1.8693
0.0657861
0.0938739
0.11857
0.137738
0.154142
0.16916
0.183517
0.197649
0.211847
0.226321
0.241233
0.256716
0.272878
0.289819
0.307628
0.326389
0.346179
0.36707
0.389128
0.412416
0.436989
0.462898
0.490185
0.518887
0.549034
0.580646
0.613736
0.648309
0.684363
0.721889
0.76087
0.801286
0.843108
0.886301
0.930826
0.97664
1.02369
1.07194
1.12132
1.17177
1.22325
1.27568
1.32901
1.38317
1.43811
1.49375
1.55002
1.60688
1.66424
1.72205
1.78024
1.83874
1.8975
1.95644
2.0155
2.07463
2.13376
2.19282
2.25176
2.31052
2.36905
2.42728
2.48517
2.54267
2.59974
2.65624
2.71207
2.76719
2.82155
2.87512
2.92786
2.97972
3.03066
3.08066
3.12967
3.17767
3.2246
3.27046
3.31519
3.35878
3.4012
3.4424
3.48238
3.5211
3.55854
3.59467
3.62948
3.66293
3.69502
3.72572
3.75501
3.78288
3.80932
3.8343
3.85783
3.87988
3.90044
3.9195
3.93707
3.95312
3.96766
3.98067
3.99216
4.00212
4.01056
4.01746
4.02284
4.0267
4.02904
4.02986
4.02918
4.027
4.02333
4.01818
4.01157
4.00351
3.99401
3.98309
3.97078
3.95708
3.94202