/*--------------------------------*- C++ -*----------------------------------*\
| =========                 |                                                 |
| \\      /  F ield         | OpenFOAM: The Open Source CFD Toolbox           |
|  \\    /   O peration     | Version:  2412                                  |
|   \\  /    A nd           | Website:  www.openfoam.com                      |
|    \\/     M anipulation  |                                                 |
\*---------------------------------------------------------------------------*/
FoamFile
{
    version     2.0;
    format      ascii;
    arch        "LSB;label=32;scalar=64";
    class       volScalarField;
    location    "0.16";
    object      nut;
}
// * * * * * * * * * * * * * * * * * * * * * * * * * * * * * * * * * * * * * //

dimensions      [0 2 -1 0 0 0 0];

internalField   nonuniform List<scalar> 
12225
(
2.015e-05
2.24858e-05
2.47491e-05
2.63714e-05
2.75879e-05
2.85141e-05
2.92322e-05
2.97978e-05
3.02482e-05
3.06095e-05
3.09013e-05
3.11375e-05
3.13287e-05
3.14827e-05
3.16052e-05
3.16994e-05
3.17679e-05
3.18283e-05
0.000167792
0.000185428
0.000202597
0.000213786
0.000221145
0.000225984
0.000229001
0.00023072
0.000231514
0.000231643
0.000231292
0.000230594
0.00022965
0.000228531
0.000227295
0.00022597
0.000224709
0.000224074
0.000338328
0.000365994
0.000399361
0.000424406
0.000442779
0.000456137
0.000465648
0.000472247
0.000476656
0.000479408
0.000480904
0.000481446
0.000481263
0.000480528
0.000479375
0.000477902
0.0004763
0.000475469
0.000480631
0.00052177
0.000570121
0.00060839
0.000637801
0.000660208
0.000677097
0.000689689
0.000698951
0.000705623
0.000710277
0.000713357
0.000715204
0.000716084
0.000716206
0.000715737
0.000714911
0.00071444
0.00059357
0.000650967
0.000713489
0.000763784
0.000803282
0.000834121
0.000858087
0.000876628
0.000890893
0.000901781
0.000909995
0.000916086
0.000920487
0.000923544
0.000925529
0.000926669
0.00092722
0.000927696
0.000684417
0.000756655
0.00083195
0.000893053
0.000941624
0.000980102
0.00101056
0.00103465
0.00105369
0.0010687
0.00108048
0.00108966
0.00109677
0.00110221
0.0011063
0.00110932
0.00111154
0.00111332
0.000759755
0.000842838
0.000928291
0.000998647
0.00105522
0.00110054
0.00113687
0.00116606
0.00118953
0.00120842
0.00122362
0.00123583
0.00124564
0.00125348
0.00125975
0.00126474
0.00126871
0.00127197
0.000823624
0.000913364
0.00100525
0.00108261
0.00114578
0.00119702
0.00123857
0.00127237
0.00129992
0.00132243
0.00134086
0.00135598
0.0013684
0.00137862
0.00138705
0.00139401
0.00139976
0.00140452
0.000877002
0.000970915
0.0010653
0.00114672
0.00121456
0.00127046
0.0013164
0.00135422
0.00138543
0.00141127
0.00143272
0.00145059
0.00146553
0.00147806
0.00148862
0.00149753
0.00150503
0.00151129
0.000918257
0.00101593
0.00110995
0.00119241
0.00126253
0.0013214
0.00137056
0.00141158
0.00144588
0.00147464
0.00149884
0.00151927
0.0015366
0.00155136
0.00156399
0.00157482
0.00158405
0.00159178
0.000944751
0.00104624
0.0011388
0.00122006
0.00129015
0.00135004
0.00140091
0.00144403
0.00148061
0.00151172
0.00153825
0.00156096
0.00158048
0.00159733
0.00161194
0.00162463
0.00163556
0.00164473
0.00095393
0.00105647
0.00114713
0.00122621
0.0012948
0.00135413
0.00140529
0.00144931
0.00148721
0.00151988
0.00154812
0.00157261
0.00159392
0.00161254
0.00162887
0.00164319
0.00165564
0.00166611
0.000951546
0.0010519
0.0011407
0.00121792
0.00128483
0.00134291
0.00139338
0.00143726
0.00147547
0.00150881
0.00153798
0.00156357
0.00158611
0.00160602
0.00162367
0.00163931
0.00165302
0.00166458
0.000937268
0.00102693
0.00110962
0.00118334
0.00124794
0.00130435
0.00135363
0.00139678
0.00143466
0.00146804
0.00149755
0.00152374
0.00154708
0.00156794
0.00158664
0.00160339
0.00161822
0.00163074
0.000914068
0.000982521
0.00105001
0.00111402
0.00117278
0.00122568
0.00127283
0.00131465
0.00135172
0.00138465
0.00141401
0.00144029
0.0014639
0.00148522
0.0015045
0.00152196
0.00153757
0.0015508
0.000888183
0.000929369
0.000972534
0.00101673
0.00106058
0.00110292
0.00114294
0.00118014
0.00121431
0.00124548
0.0012738
0.00129951
0.00132288
0.00134416
0.00136356
0.00138126
0.00139725
0.00141093
0.000866166
0.000882906
0.000901461
0.000921832
0.00094372
0.000966731
0.000990437
0.00101439
0.00103816
0.00106139
0.00108381
0.00110523
0.00112554
0.00114465
0.00116256
0.00117927
0.00119473
0.00120849
0.000853647
0.000856464
0.000860484
0.000865725
0.000872139
0.00087966
0.000888218
0.000897725
0.000908066
0.000919113
0.000930726
0.000942764
0.00095509
0.000967581
0.000980116
0.000992576
0.00100484
0.00101668
0.000856837
0.000863038
0.000870431
0.000879021
0.000888696
0.0008993
0.000910668
0.000922613
0.000934942
0.000947468
0.000960025
0.000972473
0.0009847
0.000996623
0.00100818
0.00101933
0.00103002
0.00104002
0.000879013
0.000910089
0.000942999
0.000977091
0.00101137
0.00104492
0.00107705
0.00110729
0.00113533
0.00116107
0.00118454
0.00120585
0.00122514
0.00124259
0.00125838
0.00127267
0.00128557
0.00129717
0.000912426
0.000978629
0.00104329
0.00110414
0.00115968
0.00120944
0.00125356
0.00129249
0.00132674
0.00135687
0.0013834
0.00140681
0.0014275
0.00144582
0.00146207
0.00147651
0.00148936
0.0015009
0.00094465
0.00103936
0.00112414
0.00119815
0.00126208
0.00131725
0.0013649
0.00140608
0.00144169
0.00147252
0.00149926
0.00152249
0.00154269
0.0015603
0.00157567
0.0015891
0.00160086
0.0016112
0.000952969
0.00105495
0.00114494
0.00122286
0.00128968
0.0013468
0.00139547
0.00143684
0.00147199
0.00150188
0.00152734
0.00154906
0.00156761
0.00158349
0.00159709
0.00160875
0.00161875
0.00162731
0.000919763
0.00101577
0.00110711
0.00118655
0.00125366
0.00130983
0.00135662
0.00139556
0.00142799
0.00145507
0.00147771
0.00149668
0.00151258
0.00152593
0.00153714
0.00154655
0.00155443
0.00156096
0.00084792
0.000936213
0.00102591
0.00110193
0.0011644
0.00121544
0.00125709
0.00129112
0.00131899
0.00134186
0.00136064
0.00137609
0.00138877
0.00139919
0.00140772
0.00141468
0.00142032
0.0014248
0.000748242
0.000825345
0.000905837
0.000972006
0.00102523
0.00106796
0.00110226
0.00112982
0.00115199
0.00116982
0.00118415
0.00119563
0.00120479
0.00121206
0.00121778
0.00122223
0.00122561
0.00122806
0.000620839
0.000679398
0.000743805
0.000795903
0.000837072
0.000869523
0.000895047
0.000915073
0.00093074
0.000942942
0.000952379
0.000959602
0.000965049
0.000969066
0.000971929
0.000973858
0.000975029
0.000975557
0.000453206
0.00049108
0.000536514
0.000572229
0.00059936
0.000619978
0.00063556
0.000647221
0.000655841
0.0006621
0.00066652
0.000669502
0.000671356
0.000672327
0.000672604
0.000672339
0.000671648
0.000670631
0.00023657
0.000259231
0.000284033
0.000301437
0.000313163
0.000321244
0.000326757
0.000330375
0.000332603
0.000333805
0.000334244
0.000334114
0.000333559
0.00033269
0.00033159
0.000330324
0.00032894
0.000327502
2.7242e-05
3.0171e-05
3.32398e-05
3.54418e-05
3.70548e-05
3.82622e-05
3.91811e-05
3.98939e-05
4.04547e-05
4.09005e-05
4.1258e-05
4.15467e-05
4.17813e-05
4.19727e-05
4.21295e-05
4.22583e-05
4.23641e-05
4.24516e-05
5.33931e-06
1.43697e-05
1.62032e-05
1.74717e-05
1.8368e-05
1.90992e-05
1.99037e-05
2.07033e-05
2.14984e-05
2.23102e-05
2.31805e-05
2.42199e-05
2.54083e-05
2.66464e-05
2.79128e-05
2.92e-05
3.05065e-05
3.18308e-05
3.31701e-05
3.45206e-05
3.58778e-05
3.7237e-05
3.85942e-05
3.99459e-05
4.129e-05
4.26251e-05
4.39516e-05
4.52711e-05
4.65871e-05
4.79053e-05
4.92175e-05
5.05108e-05
5.17839e-05
5.30365e-05
5.42686e-05
5.54802e-05
5.66716e-05
5.78431e-05
5.8995e-05
6.01278e-05
6.12419e-05
6.23376e-05
6.34153e-05
6.44755e-05
6.55182e-05
6.6544e-05
6.75529e-05
6.85452e-05
6.95211e-05
7.04805e-05
7.14236e-05
7.23505e-05
7.32611e-05
7.41554e-05
7.50334e-05
7.58949e-05
7.67399e-05
7.75683e-05
7.838e-05
7.91748e-05
7.99526e-05
8.07132e-05
8.14566e-05
8.21826e-05
8.28911e-05
8.35818e-05
8.42548e-05
8.49098e-05
8.5547e-05
8.61663e-05
8.6768e-05
8.73527e-05
8.79215e-05
8.84763e-05
8.90209e-05
8.9547e-05
9.00526e-05
9.05386e-05
9.10055e-05
9.14532e-05
9.18819e-05
9.22914e-05
9.26817e-05
9.30528e-05
9.34046e-05
9.37371e-05
9.40501e-05
9.43438e-05
9.4618e-05
9.48727e-05
9.5108e-05
9.53238e-05
9.55202e-05
9.56971e-05
9.58547e-05
9.59929e-05
9.61117e-05
9.62113e-05
9.62916e-05
9.63527e-05
9.63947e-05
9.64176e-05
9.64215e-05
9.64065e-05
9.63726e-05
9.632e-05
9.62486e-05
9.61587e-05
9.60502e-05
9.59233e-05
9.5778e-05
9.56145e-05
9.54329e-05
9.52334e-05
9.50159e-05
9.47807e-05
9.45279e-05
9.42577e-05
9.39701e-05
9.36655e-05
9.33438e-05
9.30054e-05
9.26504e-05
9.22791e-05
9.18916e-05
9.14881e-05
9.1069e-05
9.06345e-05
9.01848e-05
8.97203e-05
8.92411e-05
8.87477e-05
8.82404e-05
8.77194e-05
8.71851e-05
8.66378e-05
8.60781e-05
8.55062e-05
8.49227e-05
8.43285e-05
8.3722e-05
8.3109e-05
8.24933e-05
8.19308e-05
8.15144e-05
8.11142e-05
8.07076e-05
8.0293e-05
7.98706e-05
7.94405e-05
7.90033e-05
7.85592e-05
7.81086e-05
7.76519e-05
7.71895e-05
7.67219e-05
7.62494e-05
7.57725e-05
7.52915e-05
7.4807e-05
7.43192e-05
7.38286e-05
7.33355e-05
7.28405e-05
7.23437e-05
7.18455e-05
7.13461e-05
7.08458e-05
7.03446e-05
6.98423e-05
6.93386e-05
6.88329e-05
6.83237e-05
6.78087e-05
6.72837e-05
6.67405e-05
6.61615e-05
6.55012e-05
6.46817e-05
6.3617e-05
7.70434e-06
3.55924e-05
6.97931e-05
9.58879e-05
0.000113934
0.000125815
0.000132609
0.000137321
0.000141498
0.000145658
0.000149822
0.000153879
0.000157849
0.000161836
0.000165926
0.0001702
0.000174733
0.000179589
0.000184816
0.000190452
0.000196517
0.000203021
0.000209962
0.000217325
0.000225088
0.000233222
0.000241689
0.000250452
0.000259471
0.000268713
0.000278158
0.00028779
0.000297587
0.000307523
0.000317576
0.000327725
0.000337953
0.000348243
0.000358581
0.000368956
0.000379358
0.00038978
0.000400215
0.000410658
0.000421104
0.000431548
0.000441988
0.000452421
0.000462842
0.000473248
0.000483637
0.000494003
0.000504344
0.000514656
0.000524933
0.000535171
0.000545365
0.000555511
0.000565603
0.000575636
0.000585604
0.000595502
0.000605324
0.000615066
0.000624721
0.000634284
0.000643749
0.00065311
0.000662356
0.000671476
0.000680453
0.000689263
0.000697869
0.000706221
0.000713955
0.000721356
0.000728588
0.000735677
0.000742626
0.000749433
0.000756098
0.000762617
0.000768987
0.000775208
0.000781276
0.000787189
0.000792945
0.000798542
0.000803978
0.000809252
0.000814362
0.000819306
0.000824083
0.000828693
0.000833133
0.000837403
0.000841501
0.000845428
0.000849182
0.000852762
0.000856169
0.0008594
0.000862456
0.000865337
0.000868041
0.000870569
0.00087292
0.000875094
0.00087709
0.000878908
0.000880549
0.000882011
0.000883295
0.0008844
0.000885327
0.000886076
0.000886647
0.000887039
0.000887254
0.000887292
0.000887152
0.000886836
0.000886345
0.000885678
0.000884838
0.000883825
0.000882639
0.000881284
0.000879759
0.000878067
0.000876209
0.000874188
0.000872005
0.000869663
0.000867165
0.00086451
0.000861708
0.000858756
0.000855658
0.000852426
0.000849053
0.00084549
0.000841623
0.000836934
0.000830799
0.000824096
0.00081715
0.000810055
0.000802843
0.000795532
0.000788133
0.000780654
0.000773103
0.000765485
0.000757808
0.000750077
0.000742299
0.000734478
0.000726621
0.000718732
0.000710817
0.000702882
0.000694931
0.000686968
0.000678999
0.000671027
0.000663057
0.000655091
0.000647131
0.00063918
0.000631238
0.000623301
0.000615366
0.00060742
0.000599441
0.000591392
0.00058317
0.000574513
0.000561773
0.000538223
9.2976e-06
5.80394e-05
0.000115001
0.000157883
0.000187332
0.00020671
0.000219693
0.00022914
0.000236975
0.000244293
0.000251618
0.000259174
0.000267083
0.000275441
0.000284344
0.000293884
0.000304154
0.000315234
0.000327185
0.000340046
0.000353835
0.000368545
0.000384148
0.000400599
0.00041784
0.000435801
0.000454406
0.00047358
0.000493247
0.000513341
0.0005338
0.00055457
0.000575598
0.000596837
0.000618245
0.000639786
0.00066143
0.000683149
0.000704925
0.000726739
0.000748577
0.000770427
0.000792281
0.00081413
0.000835967
0.000857786
0.000879579
0.000901342
0.000923068
0.000944749
0.000966378
0.000987948
0.00100945
0.00103087
0.00105221
0.00107345
0.00109458
0.00111559
0.00113647
0.0011572
0.00117778
0.00119819
0.00121842
0.00123845
0.00125827
0.00127786
0.00129721
0.0013163
0.0013351
0.0013536
0.00137175
0.00138953
0.00140688
0.00142374
0.00143995
0.00145574
0.00147118
0.00148632
0.00150116
0.00151568
0.0015299
0.0015438
0.00155738
0.00157064
0.00158356
0.00159615
0.00160839
0.00162029
0.00163184
0.00164304
0.00165389
0.00166437
0.00167449
0.00168425
0.00169363
0.00170265
0.0017113
0.00171957
0.00172746
0.00173498
0.00174212
0.00174888
0.00175526
0.00176126
0.00176687
0.0017721
0.00177694
0.0017814
0.00178548
0.00178916
0.00179246
0.00179538
0.0017979
0.00180004
0.00180179
0.00180316
0.00180414
0.00180473
0.00180494
0.00180476
0.0018042
0.00180326
0.00180194
0.00180024
0.00179816
0.00179571
0.0017929
0.00178971
0.00178616
0.00178225
0.00177799
0.00177337
0.00176841
0.00176311
0.00175748
0.00175152
0.00174524
0.00173866
0.00173177
0.00172458
0.0017171
0.0017092
0.00170072
0.00169123
0.00168031
0.0016685
0.00165616
0.00164346
0.00163047
0.00161723
0.00160378
0.00159012
0.00157629
0.00156229
0.00154813
0.00153384
0.00151941
0.00150488
0.00149023
0.0014755
0.00146068
0.0014458
0.00143085
0.00141586
0.00140083
0.00138577
0.00137068
0.00135558
0.00134047
0.00132535
0.00131023
0.00129509
0.00127992
0.0012647
0.00124936
0.00123379
0.00121773
0.00120048
0.00117864
0.00114132
1.04976e-05
7.70307e-05
0.000150701
0.000205612
0.000244059
0.000270752
0.000289736
0.000304152
0.000316236
0.000327438
0.000338613
0.000350232
0.000362557
0.000375747
0.000389921
0.000405174
0.000421587
0.000439219
0.000458106
0.000478257
0.000499653
0.000522253
0.000545991
0.000570788
0.000596553
0.000623187
0.000650593
0.000678672
0.000707333
0.000736491
0.000766071
0.000796004
0.000826227
0.000856688
0.000887341
0.000918144
0.000949066
0.000980077
0.00101116
0.00104228
0.00107344
0.00110461
0.00113579
0.00116696
0.00119812
0.00122924
0.00126034
0.00129138
0.00132237
0.00135329
0.00138412
0.00141486
0.0014455
0.00147601
0.00150638
0.0015366
0.00156665
0.00159652
0.00162617
0.0016556
0.00168479
0.00171372
0.00174237
0.00177072
0.00179874
0.00182642
0.00185373
0.00188065
0.00190715
0.00193321
0.0019588
0.00198389
0.00200846
0.00203234
0.00205563
0.0020784
0.00210071
0.00212259
0.00214402
0.00216501
0.00218556
0.00220566
0.00222529
0.00224446
0.00226316
0.00228138
0.00229911
0.00231635
0.00233309
0.00234932
0.00236505
0.00238026
0.00239496
0.00240913
0.00242278
0.00243589
0.00244848
0.00246053
0.00247204
0.00248301
0.00249344
0.00250332
0.00251266
0.00252145
0.00252968
0.00253737
0.0025445
0.00255108
0.00255711
0.00256257
0.00256748
0.00257184
0.00257563
0.00257887
0.00258155
0.00258367
0.00258523
0.00258624
0.00258669
0.00258658
0.00258592
0.00258471
0.00258295
0.00258064
0.00257779
0.0025744
0.00257047
0.002566
0.00256102
0.00255551
0.00254948
0.00254295
0.00253591
0.00252838
0.00252038
0.0025119
0.00250296
0.00249358
0.00248375
0.00247346
0.0024627
0.00245139
0.00243937
0.00242639
0.00241221
0.00239709
0.00238127
0.00236492
0.00234813
0.00233095
0.00231343
0.00229559
0.00227746
0.00225907
0.00224042
0.00222155
0.00220246
0.00218318
0.00216372
0.0021441
0.00212433
0.00210444
0.00208443
0.00206432
0.00204413
0.00202387
0.00200355
0.00198319
0.00196279
0.00194235
0.00192188
0.00190138
0.00188082
0.00186017
0.00183935
0.00181821
0.00179639
0.00177303
0.00174521
0.00170501
1.13645e-05
9.24928e-05
0.000179205
0.000244733
0.000291952
0.000325892
0.000350927
0.000370482
0.000387071
0.00040242
0.00041764
0.000433405
0.000450111
0.000467993
0.000487195
0.000507809
0.000529891
0.000553467
0.000578535
0.000605066
0.000633006
0.00066228
0.000692799
0.000724461
0.000757158
0.000790781
0.000825221
0.000860377
0.000896152
0.000932457
0.000969214
0.00100635
0.0010438
0.00108152
0.00111944
0.00115754
0.00119578
0.00123412
0.00127255
0.00131103
0.00134954
0.00138808
0.00142663
0.00146516
0.00150367
0.00154214
0.00158055
0.0016189
0.00165717
0.00169533
0.00173338
0.0017713
0.00180907
0.00184667
0.00188408
0.00192128
0.00195825
0.00199497
0.00203142
0.00206757
0.00210341
0.0021389
0.00217403
0.00220878
0.00224311
0.00227701
0.00231044
0.00234339
0.00237584
0.00240775
0.0024391
0.00246987
0.00250004
0.0025295
0.00255831
0.00258655
0.00261424
0.00264139
0.00266801
0.00269409
0.00271963
0.00274462
0.00276906
0.00279292
0.00281622
0.00283893
0.00286105
0.00288257
0.00290349
0.0029238
0.00294349
0.00296255
0.00298099
0.00299879
0.00301596
0.00303248
0.00304835
0.00306357
0.00307813
0.00309204
0.00310528
0.00311786
0.00312977
0.003141
0.00315157
0.00316146
0.00317068
0.00317921
0.00318706
0.00319423
0.00320072
0.00320653
0.00321164
0.00321607
0.00321982
0.00322287
0.00322524
0.00322692
0.00322791
0.00322822
0.00322785
0.00322679
0.00322505
0.00322264
0.00321955
0.00321578
0.00321136
0.00320627
0.00320053
0.00319414
0.00318711
0.00317944
0.00317116
0.00316226
0.00315276
0.00314267
0.003132
0.00312076
0.00310894
0.00309656
0.00308358
0.00306995
0.00305557
0.00304028
0.00302397
0.00300674
0.00298874
0.00297009
0.00295089
0.00293119
0.00291104
0.00289047
0.00286951
0.0028482
0.00282655
0.00280458
0.00278233
0.0027598
0.00273702
0.00271402
0.00269081
0.00266741
0.00264383
0.00262011
0.00259626
0.00257229
0.00254822
0.00252407
0.00249985
0.00247557
0.00245123
0.00242684
0.00240238
0.00237781
0.00235306
0.00232797
0.00230218
0.00227485
0.00224377
0.00220442
1.22336e-05
0.000102291
0.000200453
0.000276272
0.000332222
0.000373532
0.000404826
0.000429765
0.000451094
0.000470765
0.0004901
0.000509946
0.000530825
0.000553046
0.000576784
0.000602133
0.000629131
0.000657776
0.000688035
0.000719851
0.000753146
0.000787825
0.000823785
0.000860914
0.0008991
0.00093823
0.000978196
0.0010189
0.00106024
0.00110213
0.00114449
0.00118725
0.00123036
0.00127374
0.00131736
0.00136116
0.00140512
0.0014492
0.00149336
0.00153759
0.00158185
0.00162614
0.00167042
0.00171468
0.0017589
0.00180306
0.00184715
0.00189114
0.00193502
0.00197877
0.00202237
0.0020658
0.00210904
0.00215206
0.00219485
0.00223737
0.00227962
0.00232156
0.00236317
0.00240443
0.00244531
0.00248579
0.00252584
0.00256544
0.00260456
0.00264319
0.00268129
0.00271884
0.00275582
0.00279221
0.00282798
0.00286313
0.0028976
0.00293135
0.00296443
0.00299688
0.00302873
0.00305998
0.00309063
0.00312068
0.00315012
0.00317895
0.00320716
0.00323474
0.00326167
0.00328795
0.00331357
0.00333853
0.00336281
0.0033864
0.0034093
0.00343151
0.00345301
0.0034738
0.00349387
0.00351322
0.00353184
0.00354972
0.00356687
0.00358328
0.00359894
0.00361385
0.003628
0.0036414
0.00365404
0.00366591
0.00367702
0.00368736
0.00369692
0.00370571
0.00371373
0.00372097
0.00372743
0.0037331
0.003738
0.00374211
0.00374544
0.00374799
0.00374975
0.00375073
0.00375093
0.00375034
0.00374898
0.00374684
0.00374393
0.00374025
0.00373581
0.00373061
0.00372465
0.00371796
0.00371052
0.00370235
0.00369346
0.00368386
0.00367357
0.00366258
0.00365092
0.0036386
0.0036256
0.00361195
0.00359761
0.00358257
0.00356674
0.00355004
0.00353242
0.00351392
0.00349462
0.00347461
0.00345396
0.00343273
0.00341096
0.00338869
0.00336595
0.00334278
0.00331919
0.00329522
0.00327088
0.00324621
0.00322122
0.00319594
0.0031704
0.0031446
0.00311858
0.00309236
0.00306596
0.0030394
0.00301271
0.00298589
0.00295897
0.00293196
0.00290488
0.00287773
0.00285051
0.00282318
0.00279569
0.0027679
0.00273948
0.00270974
0.0026771
0.00263931
1.3182e-05
0.00010713
0.000214996
0.000300576
0.000365108
0.000413824
0.000451518
0.000482028
0.000508272
0.000532379
0.000555837
0.000579638
0.000604418
0.000630559
0.000658279
0.000687684
0.000718809
0.000751641
0.000786129
0.000822202
0.000859768
0.000898726
0.000938966
0.000980374
0.00102284
0.00106625
0.0011105
0.0011555
0.00120114
0.00124735
0.00129405
0.00134116
0.00138862
0.00143638
0.00148438
0.00153259
0.00158095
0.00162943
0.001678
0.00172664
0.00177531
0.00182399
0.00187265
0.00192128
0.00196985
0.00201834
0.00206674
0.00211501
0.00216314
0.00221112
0.00225891
0.00230649
0.00235385
0.00240096
0.00244779
0.00249433
0.00254054
0.00258641
0.00263191
0.00267702
0.0027217
0.00276594
0.0028097
0.00285297
0.00289573
0.00293794
0.00297958
0.00302064
0.0030611
0.00310092
0.0031401
0.00317863
0.0032164
0.00325346
0.00328984
0.00332557
0.00336067
0.00339512
0.00342895
0.00346213
0.00349467
0.00352656
0.00355778
0.00358833
0.0036182
0.00364737
0.00367584
0.00370359
0.00373062
0.00375692
0.00378248
0.00380729
0.00383135
0.00385465
0.00387717
0.00389892
0.00391989
0.00394006
0.00395944
0.00397802
0.00399579
0.00401275
0.0040289
0.00404423
0.00405874
0.00407242
0.00408527
0.00409728
0.00410846
0.00411879
0.00412829
0.00413693
0.00414473
0.00415168
0.00415778
0.00416302
0.00416741
0.00417095
0.00417363
0.00417545
0.00417642
0.00417653
0.0041758
0.00417421
0.00417178
0.0041685
0.00416439
0.00415944
0.00415366
0.00414705
0.00413964
0.00413142
0.0041224
0.0041126
0.00410203
0.0040907
0.00407861
0.00406579
0.00405222
0.00403792
0.00402288
0.00400708
0.00399048
0.00397304
0.00395472
0.00393555
0.00391556
0.00389483
0.00387341
0.00385134
0.00382866
0.00380543
0.00378165
0.00375738
0.00373263
0.00370742
0.0036818
0.00365578
0.00362939
0.00360264
0.00357558
0.00354822
0.00352058
0.00349269
0.00346458
0.00343627
0.00340778
0.00337914
0.00335036
0.00332147
0.00329249
0.00326344
0.00323431
0.0032051
0.00317576
0.0031462
0.00311614
0.00308505
0.00305184
0.00301531
1.39432e-05
0.000109366
0.000224491
0.000318537
0.000391042
0.000446916
0.000490954
0.000527071
0.000558289
0.000586854
0.000614376
0.000641966
0.000670355
0.0007
0.000731166
0.000763988
0.000798515
0.000834733
0.000872595
0.000912022
0.000952924
0.000995197
0.00103873
0.00108342
0.00112915
0.00117582
0.00122332
0.00127157
0.00132046
0.00136993
0.00141988
0.00147026
0.00152099
0.00157203
0.00162331
0.00167479
0.00172644
0.0017782
0.00183005
0.00188196
0.00193389
0.00198582
0.00203772
0.00208957
0.00214135
0.00219303
0.00224459
0.00229601
0.00234728
0.00239836
0.00244923
0.00249988
0.00255028
0.0026004
0.00265023
0.00269974
0.00274891
0.0027977
0.0028461
0.00289408
0.00294162
0.00298869
0.00303527
0.00308132
0.00312684
0.00317179
0.00321616
0.00325991
0.00330304
0.00334553
0.00338735
0.00342849
0.00346887
0.00350855
0.00354754
0.00358588
0.00362357
0.00366061
0.003697
0.00373273
0.00376779
0.00380219
0.00383589
0.0038689
0.0039012
0.00393279
0.00396364
0.00399375
0.00402311
0.00405171
0.00407953
0.00410658
0.00413284
0.0041583
0.00418296
0.00420681
0.00422983
0.00425202
0.00427338
0.0042939
0.00431357
0.00433238
0.00435034
0.00436743
0.00438366
0.00439901
0.00441349
0.00442708
0.00443979
0.00445161
0.00446253
0.00447256
0.00448169
0.00448993
0.00449725
0.00450367
0.00450917
0.00451378
0.00451748
0.00452026
0.00452213
0.00452309
0.00452316
0.00452231
0.00452056
0.0045179
0.00451434
0.0045099
0.00450456
0.00449835
0.00449127
0.00448333
0.00447453
0.0044649
0.00445443
0.00444314
0.00443105
0.00441815
0.00440446
0.00438998
0.00437471
0.00435865
0.00434177
0.00432405
0.00430548
0.00428606
0.00426584
0.00424484
0.00422311
0.0042007
0.00417763
0.00415394
0.00412966
0.00410483
0.00407947
0.00405361
0.00402727
0.00400049
0.00397328
0.00394567
0.0039177
0.00388937
0.00386073
0.0038318
0.0038026
0.00377316
0.00374351
0.00371367
0.00368367
0.00365354
0.0036233
0.00359298
0.0035626
0.00353216
0.00350165
0.00347099
0.00343999
0.00340826
0.00337503
0.00333964
1.4538e-05
0.000109688
0.00022984
0.00033089
0.000410522
0.000473086
0.00052322
0.000564818
0.000600932
0.000633874
0.000665334
0.000696509
0.000728211
0.000760965
0.00079509
0.000830759
0.000868045
0.000906952
0.000947442
0.000989446
0.00103288
0.00107764
0.00112362
0.00117073
0.00121885
0.0012679
0.00131775
0.00136834
0.00141957
0.00147136
0.00152363
0.00157632
0.00162936
0.0016827
0.00173629
0.00179007
0.00184401
0.00189806
0.00195219
0.00200637
0.00206056
0.00211475
0.0021689
0.00222299
0.00227699
0.0023309
0.00238467
0.0024383
0.00249176
0.00254504
0.0025981
0.00265092
0.0027035
0.0027558
0.00280779
0.00285947
0.00291079
0.00296175
0.0030123
0.00306244
0.00311212
0.00316133
0.00321005
0.00325824
0.00330589
0.00335297
0.00339945
0.00344533
0.00349057
0.00353516
0.00357908
0.0036223
0.00366479
0.0037066
0.00374775
0.00378824
0.00382808
0.00386728
0.00390582
0.0039437
0.00398091
0.00401743
0.00405327
0.00408839
0.0041228
0.00415647
0.0041894
0.00422157
0.00425298
0.0042836
0.00431343
0.00434246
0.00437069
0.00439809
0.00442466
0.00445039
0.00447528
0.00449931
0.00452248
0.00454477
0.00456618
0.00458671
0.00460635
0.00462509
0.00464294
0.00465987
0.0046759
0.004691
0.00470518
0.00471843
0.00473075
0.00474214
0.0047526
0.00476212
0.00477068
0.0047783
0.00478497
0.00479069
0.00479549
0.00479931
0.00480217
0.00480408
0.00480504
0.00480505
0.00480411
0.00480223
0.00479941
0.00479566
0.00479097
0.00478537
0.00477885
0.00477142
0.0047631
0.00475389
0.0047438
0.00473285
0.00472104
0.00470839
0.0046949
0.00468058
0.00466544
0.00464946
0.00463266
0.00461501
0.00459652
0.00457719
0.00455705
0.00453611
0.00451442
0.00449201
0.00446891
0.00444515
0.00442076
0.00439577
0.00437021
0.0043441
0.00431747
0.00429035
0.00426277
0.00423474
0.0042063
0.00417748
0.00414829
0.00411878
0.00408896
0.00405886
0.00402852
0.00399796
0.00396722
0.00393633
0.00390532
0.00387422
0.00384308
0.0038119
0.0037807
0.00374944
0.00371799
0.00368606
0.00365314
0.00361881
1.49897e-05
0.00010854
0.000231734
0.00033831
0.000424097
0.000492729
0.000548558
0.000595365
0.000636175
0.000673315
0.000708518
0.000743038
0.000777751
0.000813243
0.000849884
0.000887892
0.000927371
0.000968353
0.00101082
0.00105471
0.00109996
0.00114647
0.00119416
0.00124291
0.00129265
0.00134326
0.00139466
0.00144676
0.00149947
0.00155273
0.00160645
0.00166058
0.00171505
0.0017698
0.00182479
0.00187996
0.00193529
0.00199072
0.00204623
0.00210178
0.00215735
0.00221291
0.00226844
0.00232391
0.00237931
0.00243461
0.00248979
0.00254484
0.00259973
0.00265444
0.00270897
0.00276327
0.00281734
0.00287115
0.00292468
0.00297791
0.0030308
0.00308335
0.00313551
0.00318727
0.00323859
0.00328946
0.00333984
0.00338972
0.00343905
0.00348783
0.00353602
0.00358361
0.00363057
0.00367689
0.00372254
0.00376749
0.00381177
0.0038554
0.00389839
0.00394075
0.00398247
0.00402355
0.00406398
0.00410376
0.00414287
0.0041813
0.00421904
0.00425606
0.00429236
0.00432792
0.00436273
0.00439677
0.00443004
0.00446251
0.00449418
0.00452503
0.00455506
0.00458425
0.0046126
0.00464009
0.00466672
0.00469247
0.00471733
0.00474129
0.00476435
0.0047865
0.00480773
0.00482804
0.00484743
0.0048659
0.00488342
0.00489998
0.0049156
0.00493025
0.00494395
0.00495668
0.00496846
0.00497927
0.00498909
0.00499793
0.00500578
0.00501266
0.00501856
0.00502347
0.00502739
0.00503032
0.00503228
0.00503325
0.00503324
0.00503225
0.00503029
0.00502737
0.00502348
0.00501863
0.00501284
0.00500611
0.00499845
0.00498986
0.00498036
0.00496996
0.00495867
0.0049465
0.00493345
0.00491955
0.00490479
0.00488917
0.00487271
0.0048554
0.00483723
0.00481824
0.00479841
0.00477779
0.00475639
0.00473425
0.00471139
0.00468784
0.00466362
0.00463877
0.00461331
0.00458727
0.00456067
0.00453354
0.00450591
0.0044778
0.00444924
0.00442026
0.00439088
0.00436113
0.00433105
0.00430066
0.00426999
0.00423908
0.00420797
0.00417668
0.00414527
0.00411377
0.00408223
0.00405068
0.00401915
0.00398765
0.00395608
0.00392425
0.00389178
0.00385843
1.53168e-05
0.00010628
0.000230777
0.000341433
0.000432339
0.000506311
0.000567316
0.000618948
0.000664149
0.000705219
0.000743904
0.000781489
0.000818895
0.000856759
0.0008955
0.000935376
0.000976532
0.00101903
0.00106287
0.00110802
0.00115442
0.001202
0.00125067
0.00130034
0.00135093
0.00140234
0.00145449
0.0015073
0.00156068
0.00161458
0.00166891
0.00172362
0.00177865
0.00183395
0.00188948
0.00194519
0.00200105
0.00205702
0.00211307
0.00216918
0.00222532
0.00228147
0.00233761
0.00239372
0.00244978
0.00250579
0.00256171
0.00261753
0.00267323
0.00272881
0.00278423
0.00283948
0.00289453
0.00294937
0.00300397
0.00305831
0.00311237
0.00316611
0.0032195
0.00327253
0.00332516
0.00337736
0.0034291
0.00348035
0.0035311
0.0035813
0.00363093
0.00367998
0.00372841
0.00377621
0.00382336
0.00386986
0.00391574
0.00396101
0.00400567
0.00404972
0.00409315
0.00413596
0.00417814
0.00421968
0.00426055
0.00430074
0.00434025
0.00437905
0.00441712
0.00445445
0.00449102
0.00452682
0.00456183
0.00459604
0.00462944
0.00466202
0.00469376
0.00472465
0.00475468
0.00478385
0.00481213
0.00483952
0.004866
0.00489157
0.00491621
0.00493992
0.00496269
0.00498453
0.00500542
0.00502537
0.00504436
0.00506236
0.00507938
0.00509542
0.00511048
0.00512455
0.00513763
0.00514972
0.0051608
0.00517088
0.00517994
0.00518801
0.00519507
0.00520111
0.00520615
0.00521017
0.00521319
0.0052152
0.0052162
0.0052162
0.00521521
0.00521322
0.00521024
0.00520628
0.00520135
0.00519544
0.00518858
0.00518077
0.00517202
0.00516234
0.00515174
0.00514023
0.00512782
0.00511452
0.00510035
0.0050853
0.00506938
0.0050526
0.00503497
0.0050165
0.00499719
0.00497708
0.00495617
0.0049345
0.00491209
0.00488896
0.00486514
0.00484066
0.00481554
0.0047898
0.00476348
0.0047366
0.00470918
0.00468125
0.00465283
0.00462396
0.00459466
0.00456497
0.0045349
0.0045045
0.00447379
0.00444282
0.00441161
0.00438022
0.00434869
0.00431707
0.00428542
0.00425378
0.0042222
0.00419069
0.00415923
0.00412768
0.00409576
0.0040633
1.55334e-05
0.000103204
0.000227503
0.000340856
0.000435812
0.000514323
0.000579893
0.000635871
0.000685067
0.000729719
0.000771554
0.00081187
0.000851615
0.000891464
0.000931876
0.000973151
0.00101547
0.00105892
0.00110354
0.00114931
0.0011962
0.00124414
0.00129306
0.0013429
0.00139356
0.00144496
0.00149704
0.00154972
0.00160292
0.00165659
0.00171067
0.0017651
0.00181983
0.00187483
0.00193005
0.00198547
0.00204104
0.00209676
0.00215259
0.00220851
0.00226451
0.00232058
0.00237668
0.00243282
0.00248898
0.00254514
0.00260128
0.0026574
0.00271347
0.00276949
0.00282542
0.00288125
0.00293695
0.00299251
0.0030479
0.00310309
0.00315805
0.00321276
0.00326718
0.00332127
0.00337501
0.00342837
0.0034813
0.00353378
0.00358578
0.00363726
0.00368819
0.00373855
0.00378831
0.00383745
0.00388601
0.00393398
0.00398138
0.00402821
0.00407446