/*--------------------------------*- C++ -*----------------------------------*\
| =========                 |                                                 |
| \\      /  F ield         | OpenFOAM: The Open Source CFD Toolbox           |
|  \\    /   O peration     | Version:  2412                                  |
|   \\  /    A nd           | Website:  www.openfoam.com                      |
|    \\/     M anipulation  |                                                 |
\*---------------------------------------------------------------------------*/
FoamFile
{
    version     2.0;
    format      ascii;
    arch        "LSB;label=32;scalar=64";
    class       volScalarField;
    location    "0.16";
    object      p;
}
// * * * * * * * * * * * * * * * * * * * * * * * * * * * * * * * * * * * * * //

dimensions      [0 2 -2 0 0 0 0];

internalField   nonuniform List<scalar> 
12225
(
-10.3329
-9.74059
-9.07788
-8.52144
-8.01238
-7.55593
-7.15735
-6.80632
-6.49394
-6.21462
-5.96345
-5.73595
-5.52825
-5.33703
-5.15923
-4.99136
-4.83124
-4.66458
-10.7667
-9.79877
-9.11269
-8.56242
-8.05268
-7.59617
-7.19696
-6.84453
-6.53051
-6.24949
-5.99659
-5.76735
-5.55795
-5.36505
-5.18557
-5.01615
-4.85398
-4.69577
-10.9472
-9.83304
-9.15443
-8.61328
-8.10307
-7.64744
-7.24837
-6.89487
-6.57931
-6.2965
-6.04166
-5.8104
-5.59897
-5.40407
-5.22265
-5.05155
-4.88791
-4.72661
-10.971
-9.84876
-9.17911
-8.64724
-8.13972
-7.68695
-7.28975
-6.93681
-6.62108
-6.33768
-6.08191
-5.84954
-5.63692
-5.44084
-5.25836
-5.08672
-4.92266
-4.76524
-10.9009
-9.84347
-9.1794
-8.65802
-8.15754
-7.70969
-7.31604
-6.96531
-6.65088
-6.36816
-6.11263
-5.88023
-5.66745
-5.47125
-5.28884
-5.11799
-4.95533
-4.80577
-10.7591
-9.81034
-9.15592
-8.64716
-8.15832
-7.71766
-7.32917
-6.98213
-6.67028
-6.38932
-6.13503
-5.90352
-5.69147
-5.49606
-5.31473
-5.14578
-4.98601
-4.84501
-10.5565
-9.7439
-9.10967
-8.61548
-8.14274
-7.71207
-7.33047
-6.98863
-6.68059
-6.40246
-6.15032
-5.92055
-5.71008
-5.5163
-5.33695
-5.1708
-5.0149
-4.88222
-10.3035
-9.64157
-9.0415
-8.56353
-8.11072
-7.69327
-7.32052
-6.98547
-6.68256
-6.40833
-6.15929
-5.93214
-5.72405
-5.53272
-5.35618
-5.19359
-5.04222
-4.91745
-10.0111
-9.50305
-8.95253
-8.49297
-8.0628
-7.66188
-7.3001
-6.9734
-6.67698
-6.40778
-6.1628
-5.93913
-5.73426
-5.54616
-5.37316
-5.21474
-5.06834
-4.95095
-9.69036
-9.33032
-8.84412
-8.40664
-8.00067
-7.61921
-7.2705
-6.95365
-6.665
-6.40193
-6.16196
-5.94262
-5.74175
-5.55761
-5.3888
-5.23502
-5.0938
-4.98317
-9.35348
-9.12815
-8.71793
-8.3081
-7.92727
-7.56748
-7.23384
-6.92812
-6.64832
-6.39235
-6.15825
-5.944
-5.74781
-5.56825
-5.40414
-5.25535
-5.1193
-5.01496
-9.04151
-8.9224
-8.58821
-8.20995
-7.85306
-7.51462
-7.19644
-6.90194
-6.63099
-6.38223
-6.15413
-5.94511
-5.75371
-5.57877
-5.41928
-5.27524
-5.14372
-5.04504
-8.74653
-8.70805
-8.44969
-8.10775
-7.77507
-7.45863
-7.1572
-6.87472
-6.61312
-6.37202
-6.15034
-5.94691
-5.76061
-5.59053
-5.43581
-5.29648
-5.16991
-5.0746
-8.43949
-8.46365
-8.28413
-7.98828
-7.68435
-7.39345
-7.11275
-6.84532
-6.59508
-6.3632
-6.14926
-5.95252
-5.77226
-5.60782
-5.45855
-5.32445
-5.20325
-5.11048
-8.14245
-8.20946
-8.10161
-7.85763
-7.58615
-7.32283
-7.0661
-6.81702
-6.5806
-6.35976
-6.15504
-5.96618
-5.79285
-5.63472
-5.49133
-5.36272
-5.24678
-5.15617
-7.88413
-7.97748
-7.92727
-7.73434
-7.49619
-7.25926
-7.02629
-6.79675
-6.57547
-6.36683
-6.17241
-5.99244
-5.82685
-5.67556
-5.53831
-5.41518
-5.30424
-5.2152
-7.69665
-7.80474
-7.79603
-7.6472
-7.44045
-7.2269
-7.01446
-6.80232
-6.59471
-6.39684
-6.21141
-6.03914
-5.88018
-5.73466
-5.60233
-5.48321
-5.37571
-5.2858
-7.62027
-7.7326
-7.74511
-7.62348
-7.43851
-7.24161
-7.04379
-6.84457
-6.6475
-6.45803
-6.27943
-6.11275
-5.9582
-5.81578
-5.68542
-5.56689
-5.45918
-5.36358
-7.71988
-7.82691
-7.83326
-7.70662
-7.51842
-7.31971
-7.12109
-6.92188
-6.72548
-6.53711
-6.3598
-6.19437
-6.04081
-5.89892
-5.76837
-5.64848
-5.53896
-5.43668
-7.99636
-8.09078
-8.05736
-7.88582
-7.66427
-7.44158
-7.22323
-7.00792
-6.79963
-6.60288
-6.41955
-6.24968
-6.09282
-5.9484
-5.81571
-5.69366
-5.58199
-5.47506
-8.38989
-8.44801
-8.34564
-8.11123
-7.84692
-7.59199
-7.34591
-7.10816
-6.88313
-6.67391
-6.48096
-6.30358
-6.14091
-5.99201
-5.85589
-5.73133
-5.6179
-5.50964
-8.89038
-8.87012
-8.66192
-8.35216
-8.04013
-7.74617
-7.46652
-7.20306
-6.95928
-6.73595
-6.53205
-6.34623
-6.17709
-6.02325
-5.88336
-5.756
-5.64039
-5.53084
-9.45447
-9.29889
-8.955
-8.57215
-8.21555
-7.88205
-7.57009
-7.28349
-7.02297
-6.78677
-6.57285
-6.37926
-6.20412
-6.0456
-5.90204
-5.77185
-5.65399
-5.54336
-10.0189
-9.67294
-9.18985
-8.75206
-8.35815
-7.98864
-7.64924
-7.3436
-7.06884
-6.82149
-6.5989
-6.39863
-6.21828
-6.05567
-5.90889
-5.77617
-5.65626
-5.54473
-10.5229
-9.95448
-9.35883
-8.88703
-8.46046
-8.06
-7.6992
-7.37875
-7.09265
-6.83652
-6.60725
-6.40189
-6.2176
-6.05193
-5.90274
-5.76815
-5.64673
-5.53472
-10.9245
-10.1321
-9.46559
-8.97346
-8.51835
-8.09445
-7.71875
-7.38771
-7.09346
-6.83118
-6.59734
-6.38855
-6.20167
-6.03402
-5.88333
-5.74759
-5.62529
-5.51324
-11.1958
-10.2156
-9.51582
-9.00913
-8.53278
-8.094
-7.70879
-7.37079
-7.07137
-6.80537
-6.56891
-6.35825
-6.17008
-6.00155
-5.85028
-5.7142
-5.59169
-5.48015
-11.3031
-10.231
-9.51647
-8.99341
-8.50503
-8.0587
-7.6679
-7.3261
-7.02434
-6.75698
-6.51983
-6.30898
-6.12094
-5.95276
-5.80199
-5.66649
-5.54459
-5.43424
-11.1704
-10.2012
-9.48145
-8.93578
-8.44248
-7.99382
-7.60067
-7.25803
-6.95661
-6.69015
-6.45422
-6.24481
-6.05831
-5.89171
-5.74249
-5.6085
-5.48799
-5.37921
-10.6393
-10.1089
-9.43887
-8.87886
-8.38382
-7.93492
-7.54132
-7.1993
-6.89921
-6.6343
-6.39999
-6.19223
-6.00736
-5.84232
-5.69459
-5.562
-5.44271
-5.33491
-4.72376
-4.72351
-4.72472
-4.72706
-4.72985
-4.73273
-4.73567
-4.73882
-4.74223
-4.74598
-4.75018
-4.75493
-4.76034
-4.76651
-4.77354
-4.78153
-4.79062
-4.8009
-4.81249
-4.8255
-4.84
-4.85607
-4.87375
-4.89303
-4.9139
-4.9363
-4.96013
-4.98529
-5.01164
-5.03897
-5.06703
-5.09559
-5.12446
-5.15345
-5.18237
-5.21102
-5.23922
-5.26679
-5.29358
-5.31941
-5.34413
-5.3676
-5.38967
-5.41021
-5.42909
-5.44617
-5.46134
-5.47447
-5.48544
-5.49413
-5.50044
-5.50424
-5.50543
-5.50391
-5.49956
-5.49229
-5.482
-5.4686
-5.452
-5.43212
-5.40887
-5.38219
-5.35201
-5.31826
-5.28089
-5.23985
-5.1951
-5.14661
-5.09435
-5.03831
-4.97849
-4.91494
-4.84771
-4.77675
-4.70205
-4.62329
-4.5406
-4.45409
-4.36384
-4.2699
-4.17232
-4.07114
-3.96644
-3.85825
-3.74665
-3.63171
-3.51349
-3.39208
-3.26756
-3.14003
-3.00957
-2.87628
-2.74027
-2.60163
-2.46049
-2.31695
-2.17113
-2.02315
-1.87314
-1.72121
-1.5675
-1.41214
-1.25527
-1.09701
-0.937498
-0.776884
-0.615302
-0.452895
-0.289804
-0.126173
0.0378545
0.202134
0.366522
0.530874
0.695047
0.858898
1.02229
1.18507
1.34711
1.50827
1.66842
1.82743
1.98516
2.1415
2.29631
2.44948
2.6009
2.75046
2.89805
3.04357
3.18693
3.32804
3.46682
3.60318
3.73706
3.86839
3.99711
4.12318
4.24654
4.36716
4.48502
4.6001
4.71239
4.82185
4.9284
5.032
5.13265
5.23038
5.32521
5.41718
5.50631
5.59262
5.67615
5.75692
5.83496
5.91031
5.98301
6.05309
6.1206
6.18556
6.24802
6.30802
6.3656
6.4208
6.47367
6.52425
6.57258
6.61872
6.66273
6.70468
6.74467
6.78283
6.81936
6.85456
6.88893
6.92331
6.95966
7.00118
7.05993
7.13639
-4.72308
-4.72362
-4.72494
-4.72692
-4.72895
-4.73066
-4.73202
-4.73325
-4.7347
-4.73662
-4.73915
-4.74236
-4.7463
-4.75105
-4.75673
-4.76345
-4.77135
-4.78058
-4.79127
-4.80355
-4.81751
-4.83323
-4.85073
-4.87001
-4.89102
-4.91366
-4.93781
-4.96332
-4.98999
-5.01761
-5.04596
-5.07481
-5.10395
-5.13318
-5.16231
-5.19115
-5.21952
-5.24724
-5.27417
-5.30015
-5.32503
-5.34868
-5.37095
-5.39172
-5.41086
-5.42825
-5.44376
-5.45727
-5.46867
-5.47783
-5.48466
-5.48903
-5.49083
-5.48996
-5.48631
-5.47978
-5.47028
-5.45771
-5.44198
-5.423
-5.40071
-5.37502
-5.34586
-5.31318
-5.27691
-5.23702
-5.19345
-5.14617
-5.09515
-5.04037
-4.98179
-4.91939
-4.85314
-4.78298
-4.7087
-4.63075
-4.54915
-4.46385
-4.37485
-4.28219
-4.18588
-4.08599
-3.98256
-3.87564
-3.76529
-3.65159
-3.5346
-3.4144
-3.29108
-3.16472
-3.03541
-2.90326
-2.76835
-2.63081
-2.49072
-2.34822
-2.2034
-2.0564
-1.90733
-1.75632
-1.60349
-1.44899
-1.29292
-1.13545
-0.976686
-0.816783
-0.655876
-0.494107
-0.331616
-0.168547
-0.0050424
0.158753
0.322697
0.486645
0.650454
0.813981
0.977086
1.13963
1.30147
1.46247
1.6225
1.78143
1.93912
2.09546
2.25031
2.40356
2.5551
2.70482
2.8526
2.99835
3.14198
3.28339
3.4225
3.55923
3.6935
3.82526
3.95444
4.081
4.20488
4.32605
4.44448
4.56016
4.67306
4.78314
4.89033
4.99459
5.09593
5.19436
5.28991
5.3826
5.47245
5.55949
5.64374
5.72524
5.80401
5.88009
5.9535
6.0243
6.0925
6.15816
6.22131
6.28199
6.34024
6.3961
6.44962
6.50084
6.5498
6.59657
6.6412
6.68377
6.7244
6.76322
6.80045
6.8364
6.87164
6.90702
6.9445
6.98625
7.04303
7.11033
-4.71552
-4.71813
-4.72078
-4.72323
-4.72497
-4.72601
-4.72662
-4.72717
-4.72795
-4.72918
-4.73104
-4.73363
-4.73708
-4.74152
-4.74707
-4.75387
-4.76204
-4.77172
-4.783
-4.79595
-4.81062
-4.82701
-4.84511
-4.86485
-4.88614
-4.90888
-4.93291
-4.9581
-4.98426
-5.01121
-5.03876
-5.06673
-5.09493
-5.1232
-5.15135
-5.17923
-5.20667
-5.23352
-5.25963
-5.28486
-5.30907
-5.33212
-5.35389
-5.37425
-5.39306
-5.41021
-5.42557
-5.43902
-5.45044
-5.45972
-5.46673
-5.47137
-5.47353
-5.47308
-5.46994
-5.46399
-5.45514
-5.44328
-5.42834
-5.41021
-5.38882
-5.3641
-5.33596
-5.30436
-5.26921
-5.23048
-5.18812
-5.14209
-5.09234
-5.03886
-4.98162
-4.92057
-4.85568
-4.78698
-4.7144
-4.63805
-4.55797
-4.47418
-4.3867
-4.29555
-4.20078
-4.10241
-4.00051
-3.89512
-3.78629
-3.6741
-3.55861
-3.4399
-3.31806
-3.19315
-3.06528
-2.93454
-2.80103
-2.66486
-2.52612
-2.38492
-2.24139
-2.09565
-1.9478
-1.79797
-1.6463
-1.4929
-1.33792
-1.18148
-1.02371
-0.864767
-0.704772
-0.54387
-0.382203
-0.219912
-0.0571384
0.105974
0.269282
0.432643
0.595914
0.758954
0.921622
1.08378
1.24528
1.406
1.5658
1.72455
1.88211
2.03837
2.19319
2.34647
2.49808
2.64792
2.79587
2.94184
3.08574
3.22746
3.36693
3.50406
3.63878
3.77102
3.90073
4.02785
4.15232
4.27412
4.3932
4.50953
4.62309
4.73385
4.84179
4.94688
5.0491
5.14845
5.24493
5.33856
5.42935
5.51734
5.60254
5.68498
5.76469
5.8417
5.91604
5.98776
6.05687
6.12343
6.18746
6.24901
6.30812
6.36482
6.41917
6.4712
6.52096
6.56852
6.61393
6.65729
6.69871
6.73834
6.77641
6.81326
6.84947
6.88587
6.92434
6.96618
7.02068
7.07473
-4.70175
-4.7066
-4.71168
-4.71571
-4.71831
-4.7199
-4.72097
-4.72191
-4.72306
-4.72466
-4.72691
-4.72997
-4.734
-4.73912
-4.74546
-4.75314
-4.76226
-4.77289
-4.78509
-4.79888
-4.81428
-4.83126
-4.84976
-4.86971
-4.89101
-4.91356
-4.93723
-4.96188
-4.98736
-5.01352
-5.0402
-5.06725
-5.0945
-5.12181
-5.14902
-5.17597
-5.20253
-5.22855
-5.2539
-5.27842
-5.302
-5.3245
-5.34578
-5.36573
-5.38421
-5.40111
-5.41629
-5.42963
-5.44102
-5.45033
-5.45745
-5.46226
-5.46466
-5.46451
-5.46173
-5.4562
-5.44782
-5.43649
-5.42213
-5.40463
-5.38392
-5.35992
-5.33254
-5.30174
-5.26743
-5.22958
-5.18812
-5.143
-5.09421
-5.04169
-4.98541
-4.92536
-4.86152
-4.79386
-4.72243
-4.64726
-4.56837
-4.48577
-4.39949
-4.30955
-4.21599
-4.11884
-4.01815
-3.91398
-3.80637
-3.69539
-3.58111
-3.4636
-3.34294
-3.21921
-3.09251
-2.96292
-2.83054
-2.69548
-2.55784
-2.41772
-2.27525
-2.13053
-1.98369
-1.83485
-1.68413
-1.53166
-1.37757
-1.22199
-1.06506
-0.906909
-0.747679
-0.587507
-0.426533
-0.264898
-0.102744
0.0597872
0.222554
0.385413
0.548224
0.710845
0.873134
1.03495
1.19617
1.35663
1.51622
1.6748
1.83224
1.98842
2.14321
2.29649
2.44815
2.59807
2.74616
2.8923
3.0364
3.17837
3.31813
3.45559
3.59067
3.72331
3.85344
3.98102
4.10599
4.22831
4.34794
4.46485
4.57898
4.69032
4.79885
4.90457
5.00747
5.10752
5.20472
5.29909
5.39064
5.47938
5.56535
5.64856
5.72903
5.80681
5.88192
5.9544
6.02427
6.09157
6.15635
6.21863
6.27846
6.33587
6.39092
6.44364
6.49408
6.54231
6.58839
6.63241
6.67448
6.71477
6.75351
6.79102
6.82787
6.86477
6.90333
6.94401
6.99412
7.03567
-4.68544
-4.69266
-4.70073
-4.70702
-4.71121
-4.71405
-4.71622
-4.71819
-4.72032
-4.7229
-4.72617
-4.73031
-4.73546
-4.74174
-4.74927
-4.75814
-4.7684
-4.78011
-4.79329
-4.80794
-4.82405
-4.84156
-4.86043
-4.88057
-4.90189
-4.92429
-4.94766
-4.97186
-4.99679
-5.0223
-5.04826
-5.07452
-5.10096
-5.12744
-5.15382
-5.17996
-5.20572
-5.23099
-5.25561
-5.27947
-5.30244
-5.32438
-5.34516
-5.36467
-5.38278
-5.39936
-5.41429
-5.42744
-5.43869
-5.44793
-5.45503
-5.45987
-5.46235
-5.46234
-5.45974
-5.45444
-5.44633
-5.43532
-5.42131
-5.40421
-5.38392
-5.36038
-5.33351
-5.30323
-5.26948
-5.23221
-5.19136
-5.14688
-5.09874
-5.04689
-4.99132
-4.932
-4.86892
-4.80207
-4.73147
-4.65713
-4.57908
-4.49733
-4.4119
-4.32281
-4.23011
-4.13383
-4.03401
-3.9307
-3.82395
-3.71384
-3.60042
-3.48377
-3.36397
-3.2411
-3.11524
-2.98648
-2.85493
-2.72068
-2.58384
-2.44452
-2.30282
-2.15886
-2.01276
-1.86464
-1.71463
-1.56285
-1.40942
-1.25449
-1.09818
-0.940628
-0.781971
-0.622348
-0.461896
-0.300757
-0.139071
0.0230208
0.185376
0.347854
0.510313
0.672612
0.83461
0.99617
1.15715
1.31742
1.47685
1.63529
1.79263
1.94874
2.10349
2.25677
2.40846
2.55844
2.70661
2.85288
2.99713
3.13929
3.27925
3.41694
3.55229
3.68522
3.81568
3.94361
4.06895
4.19166
4.31169
4.42901
4.54356
4.65531
4.76426
4.87042
4.97377
5.07429
5.172
5.26689
5.35897
5.44826
5.53477
5.61854
5.69958
5.77792
5.8536
5.92664
5.99707
6.06494
6.13027
6.19311
6.25349
6.31145
6.36703
6.42028
6.47125
6.51999
6.56657
6.61108
6.65363
6.69438
6.73355
6.77144
6.80852
6.84539
6.88326
6.9219
6.96711
6.99806
-4.67106
-4.6803
-4.69104
-4.69964
-4.70565
-4.71005
-4.71364
-4.71696
-4.7204
-4.72429
-4.72887
-4.73433
-4.7408
-4.74841
-4.75723
-4.76733
-4.77875
-4.79152
-4.80563
-4.82108
-4.83782
-4.85582
-4.875
-4.8953
-4.91662
-4.93888
-4.96198
-4.98581
-5.01026
-5.03521
-5.06054
-5.08614
-5.11188
-5.13764
-5.1633
-5.18872
-5.2138
-5.23839
-5.26238
-5.28564
-5.30805
-5.32948
-5.3498
-5.3689
-5.38663
-5.40289
-5.41755
-5.43047
-5.44155
-5.45065
-5.45766
-5.46246
-5.46492
-5.46494
-5.4624
-5.4572
-5.44922
-5.43838
-5.42456
-5.40767
-5.38764
-5.36437
-5.3378
-5.30784
-5.27443
-5.23752
-5.19706
-5.15299
-5.10527
-5.05388
-4.99878
-4.93995
-4.87739
-4.81109
-4.74106
-4.66729
-4.58981
-4.50864
-4.42379
-4.33529
-4.24318
-4.1475
-4.04828
-3.94557
-3.83943
-3.72993
-3.61712
-3.50108
-3.38189
-3.25962
-3.13437
-3.00622
-2.87526
-2.74161
-2.60535
-2.46661
-2.32548
-2.18208
-2.03654
-1.88896
-1.73947
-1.58821
-1.43528
-1.28084
-1.125
-0.967907
-0.80969
-0.650488
-0.490441
-0.329686
-0.168366
-0.00661962
0.155411
0.317586
0.479764
0.641803
0.803565
0.964911
1.1257
1.28581
1.44509
1.60342
1.76066
1.9167
2.0714
2.22466
2.37635
2.52636
2.67458
2.82092
2.96527
3.10754
3.24765
3.38551
3.52105
3.65419
3.78488
3.91305
4.03865
4.16163
4.28195
4.39955
4.5144
4.62646
4.73572
4.84219
4.94587
5.04675
5.14482
5.24009
5.33256
5.42226
5.50919
5.59337
5.67484
5.75362
5.82973
5.90321
5.97408
6.04239
6.10816
6.17143
6.23225
6.29064
6.34664
6.40031
6.45168
6.50082
6.54779
6.59267
6.63557
6.67663
6.71604
6.75407
6.79111
6.82756
6.8643
6.90054
6.94122
6.96329
-4.66229
-4.67257
-4.68511
-4.69557
-4.70324
-4.70913
-4.71414
-4.71883
-4.72363
-4.72886
-4.73476
-4.74152
-4.74928
-4.75812
-4.76813
-4.77935
-4.79179
-4.80547
-4.82037
-4.83648
-4.85374
-4.87213
-4.89156
-4.91198
-4.93331
-4.95546
-4.97834
-5.00187
-5.02593
-5.05044
-5.07528
-5.10035
-5.12553
-5.15072
-5.1758
-5.20065
-5.22516
-5.2492
-5.27267
-5.29543
-5.31737
-5.33836
-5.35828
-5.37701
-5.39442
-5.41038
-5.42477
-5.43747
-5.44835
-5.45729
-5.46417
-5.46886
-5.47124
-5.47121
-5.46865
-5.46344
-5.45549
-5.44468
-5.43092
-5.41412
-5.39419
-5.37104
-5.3446
-5.31479
-5.28156
-5.24484
-5.20457
-5.16072
-5.11324
-5.0621
-5.00728
-4.94875
-4.8865
-4.82053
-4.75084
-4.67743
-4.60031
-4.5195
-4.43502
-4.3469
-4.25518
-4.15988
-4.06105
-3.95874
-3.85301
-3.74392
-3.63153
-3.5159
-3.39713
-3.27529
-3.15046
-3.02274
-2.89221
-2.75898
-2.62316
-2.48483
-2.34413
-2.20115
-2.05601
-1.90884
-1.75976
-1.60889
-1.45635
-1.30229
-1.14682
-0.990082
-0.832213
-0.673347
-0.513623
-0.35318
-0.192157
-0.0306951
0.131067
0.292988
0.454927
0.616744
0.778299
0.939455
1.10008
1.26003
1.41917
1.57738
1.73452
1.89048
2.04512
2.19833
2.34999
2.49999
2.64822
2.79458
2.93898
3.08132
3.22151
3.35947
3.49513
3.62841
3.75924
3.88758
4.01335
4.13652
4.25702
4.37483
4.48989
4.60217
4.71166
4.81838
4.92231
5.02345
5.12179
5.21735
5.31013
5.40013
5.48738
5.57189
5.65369
5.73281
5.80926
5.88309
5.95431
6.02297
6.08909
6.15272
6.21388
6.27262
6.32896
6.38297
6.43467
6.48413
6.53139
6.57655
6.61969
6.66094
6.70046
6.73846
6.77523
6.81102
6.8464
6.88017
6.91681
6.93147
-4.65993
-4.6705
-4.6839
-4.69557
-4.7045
-4.71164
-4.71788
-4.72379
-4.7298
-4.73621
-4.74327
-4.75116
-4.76001
-4.7699
-4.78088
-4.793
-4.80626
-4.82066
-4.83619
-4.85281
-4.87049
-4.88917
-4.9088
-4.92932
-4.95066
-4.97273
-4.99546
-5.01876
-5.04255
-5.06673
-5.09121
-5.11588
-5.14064
-5.1654
-5.19004
-5.21446
-5.23854
-5.26216
-5.28522
-5.3076
-5.32916
-5.34981
-5.3694
-5.38782
-5.40494
-5.42065
-5.4348
-5.44728
-5.45796
-5.46672
-5.47344
-5.47799
-5.48025
-5.48011
-5.47745
-5.47216
-5.46414
-5.45327
-5.43947
-5.42263
-5.40268
-5.37952
-5.35307
-5.32328
-5.29007
-5.25338
-5.21317
-5.16938
-5.12198
-5.07094
-5.01623
-4.95782
-4.89572
-4.82991
-4.76038
-4.68715
-4.61021
-4.5296
-4.44532
-4.35741
-4.2659
-4.17082
-4.07223
-3.97016
-3.86468
-3.75584
-3.64371
-3.52836
-3.40986
-3.2883
-3.16376
-3.03633
-2.9061
-2.77318
-2.63765
-2.49964
-2.35924
-2.21657
-2.07175
-1.92488
-1.77611
-1.62554
-1.47331
-1.31954
-1.16436
-1.00791
-0.850322
-0.69173
-0.532273
-0.372088
-0.211315
-0.0500937
0.111437
0.273137
0.434867
0.596485
0.757853
0.918834
1.07929
1.23909
1.3981
1.55618
1.71321
1.86907
2.02363
2.17676
2.32837
2.47833
2.62653
2.77289
2.91729
3.05964
3.19987
3.33787
3.47359
3.60694
3.73786
3.86628
3.99216
4.11544
4.23607
4.35401
4.46921
4.58164
4.69131
4.7982
4.90231
5.00364
5.10219
5.19796
5.29096
5.38119
5.46868
5.55345
5.63551
5.71489
5.79161
5.86571
5.93721
6.00615
6.07256
6.13647
6.19791
6.25693
6.31355
6.36783
6.41979
6.4695
6.51699
6.56235
6.60565
6.64699
6.6865
6.72433
6.76068
6.79565
6.82956
6.8609
6.89397
6.90244
-4.66385
-4.67407
-4.68746
-4.69962
-4.70931
-4.71732
-4.72449
-4.73135
-4.73831
-4.74567
-4.75365
-4.76243
-4.77212
-4.7828
-4.79453
-4.80732
-4.82118
-4.83612
-4.8521
-4.8691
-4.88708
-4.90599
-4.92577
-4.94637
-4.96771
-4.98974
-5.01237
-5.03553
-5.05913
-5.08309
-5.10731
-5.13171
-5.15619
-5.18065
-5.20499
-5.2291
-5.25287
-5.2762
-5.29897
-5.32105
-5.34235
-5.36272
-5.38206
-5.40024
-5.41713
-5.43261
-5.44655
-5.45883
-5.46932
-5.47789
-5.48443
-5.48881
-5.4909
-5.4906
-5.48778
-5.48234
-5.47417
-5.46316
-5.44922
-5.43226
-5.41217
-5.38889
-5.36234
-5.33244
-5.29913
-5.26236
-5.22207
-5.17822
-5.13077
-5.07969
-5.02496
-4.96655
-4.90446
-4.83867
-4.76917
-4.69597
-4.61909
-4.53853
-4.45432
-4.36648
-4.27506
-4.18008
-4.08159
-3.97964
-3.87428
-3.76558
-3.6536
-3.53841
-3.42008
-3.2987
-3.17435
-3.04711
-2.91709
-2.78438
-2.64907
-2.51128
-2.37111
-2.22867
-2.08408
-1.93746
-1.78892
-1.63859
-1.4866
-1.33307
-1.17814
-1.02192
-0.864571
-0.706211
-0.546982
-0.387021
-0.226467
-0.0654596
0.0958635
0.257363
0.418898
0.58033
0.74152
0.902331
1.06263
1.22227
1.38113
1.53908
1.69599
1.85173
2.00618
2.15922
2.31075
2.46063
2.60878
2.75509
2.89945
3.04178
3.18199
3.31999
3.45571
3.58908
3.72003
3.84849
3.97442
4.09775
4.21845
4.33645
4.45174
4.56427
4.67405
4.78105
4.88529
4.98675
5.08544
5.18136
5.27452
5.36493
5.4526
5.53755
5.61981
5.69939
5.77632
5.85064
5.92236
5.99152
6.05816
6.12229
6.18397
6.24321
6.30006
6.35455
6.40673
6.45662
6.50429
6.54978
6.59317
6.63452
6.67393
6.71149
6.74731
6.78135
6.81375
6.84277
6.87271
6.87602
-4.67304
-4.6824
-4.6951
-4.70709
-4.71701
-4.72548
-4.73321
-4.74071
-4.74834
-4.75637
-4.76501
-4.77442
-4.7847
-4.79594
-4.80817
-4.82143
-4.83571
-4.851
-4.8673
-4.88455
-4.90273
-4.9218
-4.94169
-4.96235
-4.98371
-5.00572
-5.0283
-5.05138
-5.07487
-5.0987
-5.12278
-5.14702
-5.17133
-5.19561
-5.21976
-5.24368
-5.26726
-5.29039
-5.31297
-5.33486
-5.35596
-5.37615
-5.3953
-5.41328
-5.42998
-5.44527
-5.45902
-5.47111
-5.4814
-5.48978
-5.49611
-5.50028
-5.50217
-5.50166
-5.49863
-5.49298
-5.48459
-5.47336
-5.45921
-5.44202
-5.42173
-5.39823
-5.37147
-5.34137
-5.30787
-5.27091
-5.23045
-5.18643
-5.13883
-5.08761
-5.03276
-4.97424
-4.91205
-4.84617
-4.7766
-4.70333
-4.62639
-4.54579
-4.46155
-4.37369
-4.28226
-4.18729
-4.08881
-3.98689
-3.88158
-3.77294
-3.66103
-3.54592
-3.42769
-3.30641
-3.18218
-3.05508
-2.92519
-2.79263
-2.65749
-2.51986
-2.37987
-2.23762
-2.09322
-1.94679
-1.79845
-1.64832
-1.49654
-1.34322
-1.18849
-1.03249
-0.875347
-0.717198
-0.558178
-0.398424
-0.238075
-0.0772688
0.0838551
0.245157
0.406499
0.567743
0.72875
0.889384
1.04951
1.20899
1.36769
1.52549
1.68225
1.83786
1.99218
2.14511
2.29652
2.44631
2.59436
2.74058
2.88487
3.02713
3.16728
3.30523
3.44092
3.57426
3.70518
3.83364
3.95956
4.08289
4.2036
4.32163
4.43695
4.54954
4.65937
4.76644
4.87075
4.97229
5.07107
5.1671
5.26036
5.35089
5.43869
5.52378
5.60618
5.68591
5.76301
5.83749
5.90938
5.97872
6.04554
6.10986
6.17172
6.23115
6.28819
6.34285
6.39519
6.44524
6.49302
6.5386
6.58201
6.62331
6.66255
6.69976
6.73497
6.76804
6.79894
6.82579
6.85297
6.85198
-4.68595
-4.69415
-4.70565
-4.71691
-4.7266
-4.73513
-4.74309
-4.75092
-4.75893
-4.76736
-4.77641
-4.78622
-4.79688
-4.80846
-4.82101
-4.83455
-4.84908
-4.8646
-4.88108
-4.89849
-4.9168
-4.93596
-4.95593
-4.97664
-4.99804
-5.02005
-5.04263
-5.06568
-5.08914
-5.11292
-5.13694
-5.16111
-5.18534
-5.20954
-5.2336
-5.25742
-5.2809
-5.30393
-5.32639
-5.34816
-5.36913
-5.38918
-5.40818
-5.42602
-5.44255
-5.45766
-5.47123
-5.48311
-5.4932
-5.50135
-5.50746
-5.51138
-5.51302
-5.51225
-5.50895
-5.50302
-5.49434
-5.48283
-5.46839
-5.45091
-5.43032
-5.40654
-5.37949
-5.34911
-5.31534
-5.27811
-5.23739
-5.19314
-5.14531
-5.09389
-5.03883
-4.98013
-4.91777
-4.85172
-4.78199
-4.70859
-4.63152
-4.55081
-4.46647
-4.37853
-4.28702
-4.192
-4.09349
-3.99154
-3.88622
-3.77759
-3.6657
-3.55063
-3.43245
-3.31125
-3.1871
-3.06009
-2.93032
-2.79787
-2.66286
-2.52538
-2.38554
-2.24345
-2.09921
-1.95296
-1.8048
-1.65487
-1.50327
-1.35015
-1.19562
-1.03983
-0.88289
-0.724949
-0.566139
-0.406595
-0.246454
-0.0858553
0.0750628
0.236161
0.397301
0.558346
0.719157
0.8796
1.03954
1.19883
1.35736
1.51498
1.67158
1.82702
1.98118
2.13396
2.28522
2.43487
2.5828
2.72889
2.87306
3.01522
3.15527
3.29314
3.42874
3.562
3.69286
3.82125
3.94713
4.07042
4.19109
4.3091
4.42441
4.537
4.64684
4.75394
4.85828
4.95986
5.05869
5.15477
5.2481
5.3387
5.42659
5.51177
5.59428
5.67412
5.75134
5.82594
5.89797
5.96746
6.03442
6.09889
6.1609
6.22048
6.27767
6.33248
6.38495
6.4351
6.48298
6.5286
6.57199
6.61319
6.65219
6.68901
6.72356
6.75563
6.78508
6.80993
6.83468
6.83012
-4.70093
-4.70779
-4.71774
-4.72788
-4.73695
-4.7452
-4.75308
-4.76096
-4.76911
-4.77772
-4.78697
-4.79697
-4.80782
-4.81959
-4.8323
-4.84598
-4.86065
-4.87628
-4.89286
-4.91036
-4.92874
-4.94797
-4.96799
-4.98874
-5.01018
-5.03223
-5.05483
-5.0779
-5.10138
-5.12517
-5.1492
-5.17337
-5.1976
-5.22179
-5.24583
-5.26962
-5.29306
-5.31604
-5.33843
-5.36012
-5.381
-5.40093
-5.41981
-5.43749
-5.45386
-5.46878
-5.48214
-5.4938
-5.50364
-5.51153
-5.51736
-5.521
-5.52232
-5.52123
-5.5176
-5.51133
-5.50231
-5.49045
-5.47565
-5.45782
-5.43687
-5.41274
-5.38534
-5.35462
-5.32052
-5.28298
-5.24195
-5.19741
-5.14931
-5.09763
-5.04233
-4.98339
-4.9208
-4.85454
-4.78462
-4.71104
-4.6338
-4.55294
-4.46846
-4.3804
-4.2888
-4.19369
-4.09512
-3.99313
-3.88779
-3.77914
-3.66726
-3.55222
-3.43408
-3.31294
-3.18886
-3.06194
-2.93227
-2.79994
-2.66506
-2.52772
-2.38803
-2.2461
-2.10204
-1.95597
-1.808
-1.65826
-1.50687
-1.35395
-1.19963
-1.04405
-0.887334
-0.729614
-0.571027
-0.411707
-0.251791
-0.0914174
0.0692754
0.230149
0.391065
0.551886
0.712477
0.8727
1.03242
1.1915
1.34982
1.50723
1.66363
1.81887
1.97285
2.12543
2.27652
2.42599
2.57374
2.71968
2.86369
3.0057
3.14561
3.28334
3.41881
3.55196
3.68271
3.811
3.93678
4.05999
4.18058
4.29853
4.41378
4.52633
4.63614
4.74322
4.84755
4.94913
5.04797
5.14406
5.23743
5.32807
5.416
5.50124
5.58382
5.66374
5.74104
5.81575
5.88788
5.95747
6.02455
6.08915
6.15128
6.21099
6.26829
6.32322
6.37579
6.42604
6.47397
6.5196
6.56294
6.604
6.64274
6.67911
6.713
6.74407
6.77214
6.79515
6.81775
6.81024
-4.71637
-4.72183
-4.73004
-4.73878
-4.74694
-4.75463
-4.76219
-4.76991
-4.77798
-4.78659
-4.79586
-4.80592
-4.81682
-4.82864
-4.84141
-4.85515
-4.86986
-4.88553
-4.90215
-4.91969
-4.93811
-4.95738
-4.97744
-4.99824
-5.01972
-5.04182
-5.06447
-5.0876
-5.11112
-5.13497
-5.15904
-5.18326
-5.20752
-5.23173
-5.25578
-5.27957
-5.30299
-5.32592
-5.34825
-5.36986
-5.39063
-5.41044
-5.42915
-5.44666
-5.46282
-5.47751
-5.49062
-5.502
-5.51154
-5.51911
-5.5246
-5.52788
-5.52884
-5.52736
-5.52334
-5.51667
-5.50725
-5.49498
-5.47977
-5.46153
-5.44019
-5.41566
-5.38788
-5.35679
-5.32232
-5.28443
-5.24308
-5.19823
-5.14984
-5.09788
-5.04232
-4.98313
-4.92029
-4.85381
-4.78367
-4.7099
-4.63249
-4.55147
-4.46686
-4.37869
-4.28699
-4.1918
-4.09317
-3.99115
-3.88579
-3.77715
-3.6653
-3.5503
-3.43222
-3.31115
-3.18717
-3.06036
-2.93082
-2.79863
-2.66389
-2.52672
-2.3872
-2.24546
-2.1016
-1.95573
-1.80798
-1.65846
-1.50729
-1.3546
-1.20053
-1.04519
-0.888716
-0.731246
-0.572912
-0.413847
-0.254189
-0.0940737
0.06636
0.226974
0.387631
0.548195
0.708528
0.868495
1.02796
1.18679
1.34486
1.50203
1.65818
1.81319
1.96693
2.11928
2.27014
2.4194
2.56694
2.71266
2.85648
2.99829
3.13802
3.27557
3.41087
3.54385
3.67445
3.80259
3.92823
4.05131
4.17179
4.28963
4.40479
4.51726
4.627
4.73402
4.8383
4.93985
5.03866
5.13474
5.2281
5.31875
5.4067
5.49197
5.57458
5.65455
5.73191
5.80669
5.8789
5.94858
6.01575
6.08044
6.14268
6.2025
6.2599
6.31493
6.36758
6.41789
6.46585
6.51147
6.55474
6.59563
6.63409
6.67
6.70321
6.73332
6.76009
6.78142
6.8021
6.79218
-4.73083
-4.73491
-4.74133
-4.74851
-4.75556
-4.7625
-4.76956
-4.77693
-4.78478
-4.79324
-4.80243
-4.81242
-4.8233
-4.83509
-4.84785
-4.86157
-4.87627
-4.89194
-4.90856
-4.92611
-4.94455
-4.96384
-4.98392
-5.00476
-5.02628
-5.04843
-5.07113
-5.09431
-5.11788
-5.14177
-5.16589
-5.19013
-5.21441
-5.23862
-5.26266
-5.28641
-5.30977
-5.33262
-5.35484
-5.37631
-5.39691
-5.41652
-5.43501
-5.45226
-5.46814
-5.48253
-5.4953
-5.50632
-5.51549
-5.52267
-5.52774
-5.5306
-5.53113
-5.52921
-5.52474
-5.51763
-5.50776
-5.49504
-5.47939
-5.46073
-5.43896
-5.41403
-5.38586
-5.35439
-5.31957
-5.28135
-5.23969
-5.19455
-5.14589
-5.09366
-5.03783
-4.9784
-4.91534
-4.84865
-4.77833
-4.70439
-4.62684
-4.54569
-4.46098
-4.37273
-4.28097
-4.18575
-4.08711
-3.98509
-3.87976
-3.77117
-3.65938
-3.54446
-3.42649
-3.30555
-3.1817
-3.05505
-2.92567
-2.79366
-2.65912
-2.52215
-2.38286
-2.24135
-2.09773
-1.95211
-1.80461
-1.65536
-1.50446
-1.35206
-1.19826
-1.04321
-0.887032
-0.729858
-0.571821
-0.413057
-0.253702
-0.0938905
0.0662384
0.226548
0.3869
0.547159
0.707188
0.866852
1.02602
1.18455
1.34232
1.4992
1.65506
1.80978
1.96324
2.11531
2.2659
2.41489
2.56217
2.70764
2.85121
2.99278
3.13227
3.2696
3.40468
3.53746
3.66785
3.79581
3.92126
4.04418
4.1645
4.28219
4.39722
4.50957
4.61921
4.72613
4.83033
4.93181
5.03056
5.12659
5.21991
5.31054
5.39848
5.48375
5.56637
5.64637
5.72377
5.79859
5.87086
5.94061
6.00785
6.07263
6.13495
6.19486
6.25235
6.30746
6.36018
6.41054
6.45852
6.50412
6.54729
6.58801
6.62616
6.66161
6.69415
6.72334
6.74889
6.7687
6.78765
6.77579
-4.74309
-4.74593
-4.75059
-4.75615
-4.76198
-4.76804
-4.77446
-4.78138
-4.7889
-4.79712
-4.80614
-4.81601
-4.82679
-4.83852
-4.85121
-4.86489
-4.87955
-4.89518
-4.91177
-4.92929
-4.94771
-4.96698
-4.98705
-5.00788
-5.0294
-5.05154
-5.07423
-5.0974
-5.12097
-5.14483
-5.16891
-5.19311
-5.21732
-5.24144
-5.26537
-5.28898
-5.31218
-5.33483
-5.35683
-5.37805
-5.39837
-5.41767
-5.43583
-5.45272
-5.46822
-5.4822
-5.49455
-5.50513
-5.51385
-5.52056
-5.52517
-5.52755
-5.5276
-5.52521
-5.52027
-5.51268
-5.50236
-5.4892
-5.47312
-5.45403
-5.43187
-5.40656
-5.37803
-5.34623
-5.3111
-5.2726
-5.23068
-5.1853
-5.13639
-5.08394
-5.0279
-4.96828
-4.90505
-4.83821
-4.76776
-4.69372
-4.61609
-4.53488
-4.45014
-4.36188
-4.27013
-4.17494
-4.07636
-3.97442
-3.86919
-3.76071
-3.64906
-3.53431
-3.41651
-3.29575
-3.17212
-3.04568
-2.91654
-2.78479
-2.65051
-2.51382
-2.37481
-2.23359
-2.09028
-1.94497
-1.7978
-1.64887
-1.49831
-1.34624
-1.19279
-1.03809
-0.882258
-0.725438
-0.567758
-0.409353
-0.250357
-0.0909078
0.068859
0.228806
0.388797
0.548695
0.708364
0.867669
1.02648
1.18466
1.34207
1.4986
1.65412
1.8085
1.96162
2.11337
2.26363
2.4123
2.55927
2.70443
2.8477
2.98899
3.12819
3.26525
3.40007
3.53258
3.66273
3.79045
3.91569
4.03839
4.15851
4.27602
4.39088
4.50307
4.61257
4.71936
4.82345
4.92482
5.02348
5.11944
5.2127
5.30327
5.39118
5.47643
5.55904
5.63905
5.71646
5.79131
5.86362
5.93342
6.00073
6.06557
6.12797
6.18795
6.24552
6.3007
6.35349
6.40389
6.45188
6.49744
6.54052
6.58105
6.6189
6.6539
6.68579
6.71411
6.73853
6.75698
6.77436
6.76097
-4.75273
-4.75442
-4.75743
-4.76135
-4.76587
-4.77095
-4.77663
-4.78299
-4.79009
-4.79801
-4.80679
-4.81647
-4.8271
-4.83869
-4.85127
-4.86483
-4.87938
-4.8949
-4.91137
-4.92876
-4.94705
-4.96618
-4.98612
-5.0068
-5.02817
-5.05016
-5.07269
-5.09569
-5.11908
-5.14275
-5.16662
-5.19059
-5.21456
-5.23841
-5.26205
-5.28535
-5.30821
-5.33051
-5.35212
-5.37293
-5.39283
-5.41169
-5.42938
-5.44579
-5.4608
-5.47428
-5.48612
-5.4962
-5.5044
-5.51061
-5.5147
-5.51659
-5.51614
-5.51327
-5.50787
-5.49983
-5.48907
-5.47551
-5.45904
-5.43959
-5.4171
-5.39148
-5.36267
-5.33062
-5.29529
-5.2566
-5.21451
-5.16896
-5.11989
-5.06729
-5.01113
-4.95141
-4.8881
-4.82122
-4.75075
-4.6767
-4.59909
-4.51794
-4.43327
-4.3451
-4.25348
-4.15843
-4.06001
-3.95826
-3.85323
-3.74498
-3.63357
-3.51908
-3.40156
-3.2811
-3.15777
-3.03166
-2.90285
-2.77145
-2.63753
-2.50121
-2.36258
-2.22175
-2.07883
-1.93393
-1.78716
-1.63865
-1.48851
-1.33686
-1.18384
-1.02957
-0.874174
-0.717789
-0.560547
-0.402581
-0.244025
-0.0850147
0.0743126
0.233821
0.393374
0.552835
0.71207
0.870944
1.02932
1.18707
1.34407
1.50018
1.65529
1.80926
1.96198
2.11333