/*--------------------------------*- C++ -*----------------------------------*\
| =========                 |                                                 |
| \\      /  F ield         | OpenFOAM: The Open Source CFD Toolbox           |
|  \\    /   O peration     | Version:  2412                                  |
|   \\  /    A nd           | Website:  www.openfoam.com                      |
|    \\/     M anipulation  |                                                 |
\*---------------------------------------------------------------------------*/
FoamFile
{
    version     2.0;
    format      ascii;
    arch        "LSB;label=32;scalar=64";
    class       surfaceScalarField;
    location    "0.16";
    object      phi;
}
// * * * * * * * * * * * * * * * * * * * * * * * * * * * * * * * * * * * * * //

dimensions      [0 3 -1 0 0 0 0];

oriented        oriented;

internalField   nonuniform List<scalar> 
24170
(
1.36706e-07
-5.71619e-08
1.95621e-07
-5.89144e-08
2.57917e-07
-6.22961e-08
3.1167e-07
-5.37531e-08
3.61806e-07
-5.0136e-08
4.07913e-07
-4.6107e-08
4.49556e-07
-4.1643e-08
4.87077e-07
-3.75209e-08
5.20861e-07
-3.37846e-08
5.51247e-07
-3.03854e-08
5.78557e-07
-2.73107e-08
6.03085e-07
-2.45275e-08
6.25072e-07
-2.19868e-08
6.44694e-07
-1.96221e-08
6.62088e-07
-1.73942e-08
6.77129e-07
-1.50405e-08
6.89831e-07
-1.27023e-08
-8.121e-09
6.97952e-07
3.26112e-07
-1.24822e-07
3.94132e-07
-1.26934e-07
4.55885e-07
-1.24049e-07
5.14181e-07
-1.1205e-07
5.67673e-07
-1.03628e-07
6.16626e-07
-9.50601e-08
6.61264e-07
-8.6281e-08
7.01811e-07
-7.80674e-08
7.38563e-07
-7.05366e-08
7.7184e-07
-6.36631e-08
8.01949e-07
-5.74196e-08
8.29163e-07
-5.17413e-08
8.53714e-07
-4.65373e-08
8.7578e-07
-4.16889e-08
8.95477e-07
-3.70906e-08
9.12802e-07
-3.23655e-08
9.27844e-07
-2.77444e-08
-1.9994e-08
9.39717e-07
5.17244e-07
-1.7161e-07
5.7915e-07
-1.8884e-07
6.38208e-07
-1.83107e-07
6.95363e-07
-1.69205e-07
7.48173e-07
-1.56438e-07
7.96774e-07
-1.43661e-07
8.41414e-07
-1.30921e-07
8.82228e-07
-1.18881e-07
9.19431e-07
-1.0774e-07
9.53288e-07
-9.75203e-08
9.8406e-07
-8.8191e-08
1.01199e-06
-7.96673e-08
1.03728e-06
-7.1827e-08
1.0601e-06
-6.4512e-08
1.08056e-06
-5.75533e-08
1.09877e-06
-5.05718e-08
1.11453e-06
-4.3507e-08
-3.35048e-08
1.12804e-06
7.4348e-07
-1.9542e-07
7.91919e-07
-2.37279e-07
8.43827e-07
-2.35015e-07
8.96357e-07
-2.21735e-07
9.46016e-07
-2.06097e-07
9.92291e-07
-1.89937e-07
1.0352e-06
-1.73829e-07
1.07474e-06
-1.58422e-07
1.11102e-06
-1.44024e-07
1.14423e-06
-1.30725e-07
1.17455e-06
-1.18514e-07
1.20218e-06
-1.07299e-07
1.2273e-06
-9.69433e-08
1.25005e-06
-8.72624e-08
1.27054e-06
-7.80432e-08
1.28888e-06
-6.8912e-08
1.30497e-06
-5.95963e-08
-4.79821e-08
1.31945e-06
1.01492e-06
-1.99873e-07
1.04731e-06
-2.69662e-07
1.08853e-06
-2.76239e-07
1.13339e-06
-2.66594e-07
1.17751e-06
-2.50221e-07
1.21951e-06
-2.31929e-07
1.25899e-06
-2.13316e-07
1.29578e-06
-1.9521e-07
1.32983e-06
-1.78076e-07
1.36122e-06
-1.6211e-07
1.39005e-06
-1.47343e-07
1.41645e-06
-1.33701e-07
1.44055e-06
-1.21047e-07
1.46248e-06
-1.09189e-07
1.48233e-06
-9.78924e-08
1.50022e-06
-8.68038e-08
1.5162e-06
-7.55736e-08
-6.27326e-08
1.53095e-06
1.33808e-06
-1.90514e-07
1.35426e-06
-2.85846e-07
1.38244e-06
-3.0442e-07
1.41695e-06
-3.011e-07
1.45315e-06
-2.86423e-07
1.48882e-06
-2.67597e-07
1.5231e-06
-2.476e-07
1.55556e-06
-2.27666e-07
1.58598e-06
-2.08493e-07
1.61428e-06
-1.90419e-07
1.64049e-06
-1.73553e-07
1.66466e-06
-1.57864e-07
1.68684e-06
-1.43234e-07
1.70714e-06
-1.29482e-07
1.72562e-06
-1.16378e-07
1.74243e-06
-1.03608e-07
1.75769e-06
-9.08347e-08
-7.70763e-08
1.77203e-06
1.71767e-06
-1.72903e-07
1.7193e-06
-2.87474e-07
1.73353e-06
-3.18647e-07
1.75571e-06
-3.23282e-07
1.78182e-06
-3.12534e-07
1.80915e-06
-2.94929e-07
1.83641e-06
-2.74856e-07
1.86288e-06
-2.54144e-07
1.88818e-06
-2.33783e-07
1.91206e-06
-2.14303e-07
1.93443e-06
-1.95924e-07
1.95525e-06
-1.78683e-07
1.97452e-06
-1.62505e-07
1.99228e-06
-1.4724e-07
2.00859e-06
-1.32686e-07
2.02357e-06
-1.18586e-07
2.03739e-06
-1.04659e-07
-9.02806e-08
2.0506e-06
2.15733e-06
-1.51547e-07
2.14717e-06
-2.77309e-07
2.14804e-06
-3.19518e-07
2.15703e-06
-3.32276e-07
2.17146e-06
-3.26961e-07
2.18872e-06
-3.12186e-07
2.20725e-06
-2.93384e-07
2.22614e-06
-2.73032e-07
2.2448e-06
-2.52449e-07
2.26288e-06
-2.32379e-07
2.28014e-06
-2.13184e-07
2.29645e-06
-1.94992e-07
2.31173e-06
-1.77793e-07
2.32598e-06
-1.61489e-07
2.33922e-06
-1.45924e-07
2.35154e-06
-1.30908e-07
2.36312e-06
-1.16238e-07
-1.01547e-07
2.37439e-06
2.66011e-06
-1.29468e-07
2.64126e-06
-2.58464e-07
2.63056e-06
-3.08816e-07
2.62678e-06
-3.28495e-07
2.62886e-06
-3.29044e-07
2.6349e-06
-3.18218e-07
2.64336e-06
-3.01851e-07
2.65328e-06
-2.82948e-07
2.66395e-06
-2.63125e-07
2.67491e-06
-2.43335e-07
2.68582e-06
-2.2409e-07
2.69645e-06
-2.05627e-07
2.70667e-06
-1.88015e-07
2.7164e-06
-1.7122e-07
2.72563e-06
-1.55151e-07
2.73441e-06
-1.39686e-07
2.74288e-06
-1.24709e-07
-1.10032e-07
2.75137e-06
3.22873e-06
-1.08344e-07
3.204e-06
-2.33727e-07
3.18407e-06
-2.88885e-07
3.16903e-06
-3.13454e-07
3.15921e-06
-3.19227e-07
3.15373e-06
-3.12744e-07
3.15145e-06
-2.99566e-07
3.15147e-06
-2.8297e-07
3.15313e-06
-2.64781e-07
3.15589e-06
-2.46099e-07
3.15937e-06
-2.27572e-07
3.16329e-06
-2.09541e-07
3.16743e-06
-1.9216e-07
3.17168e-06
-1.75471e-07
3.17598e-06
-1.59447e-07
3.18033e-06
-1.44036e-07
3.18482e-06
-1.29204e-07
-1.14884e-07
3.18967e-06
3.8657e-06
-8.90189e-08
3.83717e-06
-2.05197e-07
3.81024e-06
-2.61956e-07
3.78605e-06
-2.89258e-07
3.76576e-06
-2.98934e-07
3.74948e-06
-2.96466e-07
3.7366e-06
-2.8669e-07
3.72651e-06
-2.72877e-07
3.71866e-06
-2.56934e-07
3.71259e-06
-2.40031e-07
3.70792e-06
-2.22893e-07
3.70432e-06
-2.05948e-07
3.70159e-06
-1.89425e-07
3.69955e-06
-1.73431e-07
3.69811e-06
-1.58006e-07
3.69723e-06
-1.43157e-07
3.69695e-06
-1.28925e-07
-1.15308e-07
3.69737e-06
3.81123e-06
-7.33453e-08
3.78552e-06
-1.79481e-07
3.75883e-06
-2.35267e-07
3.73298e-06
-2.63417e-07
3.7093e-06
-2.75249e-07
3.68836e-06
-2.75524e-07
3.67006e-06
-2.68394e-07
3.65415e-06
-2.56967e-07
3.64035e-06
-2.43129e-07
3.62836e-06
-2.28043e-07
3.61792e-06
-2.12456e-07
3.6088e-06
-1.96832e-07
3.60083e-06
-1.81446e-07
3.59384e-06
-1.6645e-07
3.58776e-06
-1.51924e-07
3.58253e-06
-1.37925e-07
3.57809e-06
-1.24486e-07
-1.11854e-07
3.57464e-06
5.03713e-06
-5.77128e-08
5.00707e-06
-1.4942e-07
4.9736e-06
-2.01802e-07
4.93951e-06
-2.29327e-07
4.90651e-06
-2.42245e-07
4.87573e-06
-2.44747e-07
4.84748e-06
-2.40146e-07
4.82173e-06
-2.31221e-07
4.79838e-06
-2.19772e-07
4.77724e-06
-2.06907e-07
4.75813e-06
-1.93343e-07
4.74085e-06
-1.79549e-07
4.72522e-06
-1.65823e-07
4.71112e-06
-1.52347e-07
4.69843e-06
-1.39234e-07
4.68707e-06
-1.26569e-07
4.677e-06
-1.14416e-07
-1.03116e-07
4.66826e-06
6.66244e-06
-4.26774e-08
6.62912e-06
-1.16107e-07
6.58916e-06
-1.61842e-07
6.54669e-06
-1.86853e-07
6.50384e-06
-1.99394e-07
6.46227e-06
-2.03179e-07
6.42278e-06
-2.00659e-07
6.38565e-06
-1.94084e-07
6.35095e-06
-1.85077e-07
6.31869e-06
-1.74648e-07
6.2888e-06
-1.63446e-07
6.26116e-06
-1.51908e-07
6.23566e-06
-1.40325e-07
6.2122e-06
-1.28886e-07
6.19068e-06
-1.17717e-07
6.17103e-06
-1.06917e-07
6.15318e-06
-9.65679e-08
-8.70332e-08
6.1371e-06
8.79086e-06
-2.88743e-08
8.75646e-06
-8.17023e-08
8.71174e-06
-1.17132e-07
8.66206e-06
-1.37172e-07
8.61012e-06
-1.47447e-07
8.55802e-06
-1.51086e-07
8.50715e-06
-1.4979e-07
8.45819e-06
-1.45121e-07
8.41148e-06
-1.38365e-07
8.3672e-06
-1.30372e-07
8.32544e-06
-1.21682e-07
8.28619e-06
-1.12664e-07
8.24944e-06
-1.03571e-07
8.21513e-06
-9.45767e-08
8.18322e-06
-8.5802e-08
8.15364e-06
-7.73397e-08
8.12633e-06
-6.92581e-08
-6.19348e-08
8.10123e-06
1.15181e-05
-1.65999e-08
1.14848e-05
-4.83987e-08
1.14383e-05
-7.07245e-08
1.13845e-05
-8.33402e-08
1.13264e-05
-8.93563e-08
1.12664e-05
-9.10865e-08
1.12063e-05
-8.9675e-08
1.11472e-05
-8.60356e-08
1.10899e-05
-8.0999e-08
1.10346e-05
-7.51589e-08
1.09819e-05
-6.88902e-08
1.09316e-05
-6.24437e-08
1.08841e-05
-5.59989e-08
1.08392e-05
-4.96828e-08
1.0797e-05
-4.35901e-08
1.07574e-05
-3.77975e-08
1.07205e-05
-3.23325e-08
-2.75784e-08
1.06861e-05
1.48842e-05
-5.39245e-09
1.48525e-05
-1.66804e-08
1.48063e-05
-2.4494e-08
1.4751e-05
-2.81096e-08
1.46904e-05
-2.86898e-08
1.46267e-05
-2.74034e-08
1.45619e-05
-2.48388e-08
1.44972e-05
-2.13929e-08
1.44337e-05
-1.74455e-08
1.43718e-05
-1.32904e-08
1.4312e-05
-9.11195e-09
1.42546e-05
-5.02834e-09
1.41997e-05
-1.13222e-09
1.41475e-05
2.53877e-09
1.4098e-05
5.92168e-09
1.40512e-05
8.9741e-09
1.40072e-05
1.17259e-08
1.38268e-08
1.39658e-05
1.8769e-05
6.28321e-09
1.87365e-05
1.58539e-08
1.86883e-05
2.36976e-08
1.86301e-05
3.00823e-08
1.85661e-05
3.53494e-08
1.84989e-05
3.9764e-08
1.84306e-05
4.34935e-08
1.83625e-05
4.6661e-08
1.82957e-05
4.93614e-08
1.82308e-05
5.16611e-08
1.8168e-05
5.36046e-08
1.81078e-05
5.52218e-08
1.80501e-05
5.65326e-08
1.79951e-05
5.75485e-08
1.79428e-05
5.82743e-08
1.7893e-05
5.8698e-08
1.78459e-05
5.88784e-08
5.85557e-08
1.78012e-05
2.26768e-05
1.70128e-08
2.26399e-05
5.28054e-08
2.25835e-05
8.0094e-08
2.25149e-05
9.86758e-08
2.24392e-05
1.11045e-07
2.23597e-05
1.19208e-07
2.2279e-05
1.24224e-07
2.21988e-05
1.2687e-07
2.21203e-05
1.27845e-07
2.20443e-05
1.27669e-07
2.19712e-05
1.26684e-07
2.19013e-05
1.25116e-07
2.18347e-05
1.23126e-07
2.17714e-05
1.20825e-07
2.17114e-05
1.18293e-07
2.16546e-05
1.15575e-07
2.16007e-05
1.12733e-07
1.09625e-07
2.15496e-05
1.5604e-05
3.26569e-08
1.55641e-05
9.26607e-08
1.55091e-05
1.35101e-07
1.54457e-05
1.621e-07
1.53778e-05
1.78961e-07
1.53081e-05
1.88897e-07
1.52387e-05
1.93627e-07
1.51709e-05
1.94612e-07
1.51057e-05
1.93094e-07
1.50434e-05
1.89938e-07
1.49844e-05
1.85708e-07
1.49287e-05
1.80789e-07
1.48764e-05
1.75455e-07
1.48273e-05
1.69899e-07
1.47813e-05
1.6425e-07
1.47383e-05
1.586e-07
1.4698e-05
1.53012e-07
1.47425e-07
1.46602e-05
1.23902e-05
5.12471e-08
1.23448e-05
1.3813e-07
1.22864e-05
1.93453e-07
1.22225e-05
2.25975e-07
1.21567e-05
2.44846e-07
1.20914e-05
2.54178e-07
1.20285e-05
2.56508e-07
1.19689e-05
2.54165e-07
1.19131e-05
2.48904e-07
1.18612e-05
2.41847e-07
1.18132e-05
2.33721e-07
1.1769e-05
2.25025e-07
1.17283e-05
2.161e-07
1.16911e-05
2.07174e-07
1.16569e-05
1.98394e-07
1.16257e-05
1.89857e-07
1.15971e-05
1.8161e-07
1.73638e-07
1.15708e-05
9.55929e-06
7.55528e-08
9.50979e-06
1.87628e-07
9.45373e-06
2.49515e-07
9.39692e-06
2.82779e-07
9.34174e-06
3.00026e-07
9.29018e-06
3.05741e-07
9.24318e-06
3.03505e-07
9.20089e-06
2.96457e-07
9.16315e-06
2.86641e-07
9.12971e-06
2.75287e-07
9.10024e-06
2.63195e-07
9.07437e-06
2.50897e-07
9.05173e-06
2.38733e-07
9.032e-06
2.26912e-07
9.01483e-06
2.15556e-07
8.99996e-06
2.04734e-07
8.9871e-06
1.94465e-07
1.8475e-07
8.97599e-06
7.18003e-06
1.0497e-07
7.13264e-06
2.35015e-07
7.08701e-06
2.9515e-07
7.04545e-06
3.24344e-07
7.00923e-06
3.36239e-07
6.97931e-06
3.35662e-07
6.95535e-06
3.27462e-07
6.93659e-06
3.15218e-07
6.92229e-06
3.00939e-07
6.91179e-06
2.85793e-07
6.90446e-06
2.70522e-07
6.89978e-06
2.5558e-07
6.89729e-06
2.41226e-07
6.8966e-06
2.27596e-07
6.89741e-06
2.14748e-07
6.89944e-06
2.02699e-07
6.90248e-06
1.91426e-07
1.80927e-07
6.90631e-06
5.24556e-06
1.38126e-07
5.20787e-06
2.7271e-07
5.18044e-06
3.22575e-07
5.16163e-06
3.4315e-07
5.15138e-06
3.46495e-07
5.14862e-06
3.38424e-07
5.15152e-06
3.24559e-07
5.15859e-06
3.08149e-07
5.16872e-06
2.90803e-07
5.18107e-06
2.73443e-07
5.19498e-06
2.56619e-07
5.20993e-06
2.40624e-07
5.22556e-06
2.25595e-07
5.24158e-06
2.11575e-07
5.25778e-06
1.9855e-07
5.274e-06
1.86484e-07
5.2901e-06
1.75318e-07
1.6504e-07
5.30599e-06
3.71461e-06
1.71647e-07
3.69607e-06
2.91249e-07
3.69443e-06
3.24218e-07
3.70436e-06
3.33223e-07
3.72344e-06
3.27411e-07
3.74843e-06
3.13441e-07
3.77674e-06
2.96243e-07
3.80684e-06
2.78048e-07
3.83773e-06
2.59912e-07
3.86873e-06
2.42444e-07
3.89939e-06
2.25967e-07
3.92939e-06
2.10618e-07
3.95856e-06
1.96423e-07
3.98679e-06
1.83349e-07
4.01401e-06
1.71335e-07
4.04018e-06
1.60304e-07
4.06532e-06
1.5018e-07
1.40946e-07
4.08942e-06
2.5354e-06
1.96846e-07
2.54625e-06
2.80401e-07
2.57487e-06
2.95598e-07
2.61419e-06
2.93898e-07
2.65965e-06
2.81948e-07
2.70727e-06
2.65829e-07
2.755e-06
2.48511e-07
2.80185e-06
2.31196e-07
2.84723e-06
2.14534e-07
2.8908e-06
1.98875e-07
2.93239e-06
1.8437e-07
2.97197e-06
1.71045e-07
3.00953e-06
1.58861e-07
3.04513e-06
1.47743e-07
3.07886e-06
1.37606e-07
3.11081e-06
1.28361e-07
3.14106e-06
1.19925e-07
1.12299e-07
3.16971e-06
1.65469e-06
1.99258e-07
1.70056e-06
2.34532e-07
1.75708e-06
2.39081e-07
1.81983e-06
2.31153e-07
1.88378e-06
2.17994e-07
1.94598e-06
2.03626e-07
2.00557e-06
1.88928e-07
2.06216e-06
1.74601e-07
2.11559e-06
1.61109e-07
2.16583e-06
1.48633e-07
2.21299e-06
1.37213e-07
2.25721e-06
1.26826e-07
2.29866e-06
1.17405e-07
2.33754e-06
1.08868e-07
2.37401e-06
1.01129e-07
2.40827e-06
9.41052e-08
2.44048e-06
8.7718e-08
8.20046e-08
2.47077e-06
1.01827e-06
1.63846e-07
1.09488e-06
1.57924e-07
1.17024e-06
1.63722e-07
1.24669e-06
1.547e-07
1.32009e-06
1.44601e-07
1.38907e-06
1.34645e-07
1.4537e-06
1.24297e-07
1.51403e-06
1.14266e-07
1.57018e-06
1.04966e-07
1.62235e-06
9.6461e-08
1.67082e-06
8.87391e-08
1.71588e-06
8.17651e-08
1.75781e-06
7.54797e-08
1.79686e-06
6.98138e-08
1.83329e-06
6.46995e-08
1.86732e-06
6.00762e-08
1.89917e-06
5.58645e-08
5.21399e-08
1.92904e-06
5.69237e-07
8.45265e-08
6.58981e-07
6.81793e-08
7.40763e-07
8.19409e-08
8.20858e-07
7.46046e-08
8.95856e-07
6.96021e-08
9.65408e-07
6.50925e-08
1.02983e-06
5.98769e-08
1.08933e-06
5.47613e-08
1.1442e-06
5.00957e-08
1.1948e-06
4.58691e-08
1.24148e-06
4.20523e-08
1.28462e-06
3.86249e-08
1.32455e-06
3.55527e-08
1.36157e-06
3.27961e-08
1.39595e-06
3.03167e-08
1.42794e-06
2.80861e-08
1.45777e-06
2.6032e-08
2.42032e-08
1.48571e-06
2.22451e-07
2.9063e-07
3.72571e-07
4.47175e-07
5.16778e-07
5.8187e-07
6.41747e-07
6.96508e-07
7.46604e-07
7.92473e-07
8.34525e-07
8.7315e-07
9.08703e-07
9.41499e-07
9.71816e-07
9.99902e-07
1.02593e-06
1.05014e-06
2.15919e-08
-2.15919e-08
4.67973e-08
-2.52054e-08
6.72727e-08
-2.04754e-08
8.07343e-08
-1.34616e-08
8.65454e-08
-5.81111e-09
8.5002e-08
1.5434e-09
7.71704e-08
7.83155e-09
6.44597e-08
1.27107e-08
4.81748e-08
1.62849e-08
2.92351e-08
1.89398e-08
8.1274e-09
2.11077e-08
-1.50273e-08
2.31547e-08
-4.03521e-08
2.53248e-08
-6.80595e-08
2.77074e-08
-9.83609e-08
3.03014e-08
-1.31421e-07
3.30604e-08
-1.67335e-07
3.59133e-08
-2.06115e-07
3.87802e-08
-2.47696e-07
4.15811e-08
-2.91936e-07
4.42401e-08
-3.38625e-07
4.66894e-08
-3.87498e-07
4.88722e-08
-4.38243e-07
5.07457e-08
-4.90525e-07
5.22814e-08
-5.4399e-07
5.34658e-08
-5.9829e-07
5.42993e-08
-6.53084e-07
5.47946e-08
-7.0806e-07
5.49756e-08
-7.62938e-07
5.48783e-08
-8.17488e-07
5.45498e-08
-8.71525e-07
5.40365e-08
-9.24893e-07
5.33681e-08
-9.77459e-07
5.25663e-08
-1.02911e-06
5.16544e-08
-1.07977e-06
5.06537e-08
-1.12935e-06
4.95838e-08
-1.17781e-06
4.84613e-08
-1.22511e-06
4.73003e-08
-1.27122e-06
4.61123e-08
-1.31613e-06
4.49064e-08
-1.35982e-06
4.36892e-08
-1.40229e-06
4.24656e-08
-1.44353e-06
4.1239e-08
-1.48354e-06
4.00114e-08
-1.52232e-06
3.87838e-08
-1.55988e-06
3.75563e-08
-1.59621e-06
3.63288e-08
-1.63131e-06
3.51005e-08
-1.66518e-06
3.38705e-08
-1.69781e-06
3.26379e-08
-1.72922e-06
3.14015e-08
-1.75938e-06
3.01605e-08
-1.78829e-06
2.8914e-08
-1.81595e-06
2.76612e-08
-1.84235e-06
2.64016e-08
-1.86749e-06
2.51346e-08
-1.89135e-06
2.38601e-08
-1.91393e-06
2.25779e-08
-1.93521e-06
2.12879e-08
-1.9552e-06
1.99901e-08
-1.97389e-06
1.86844e-08
-1.99126e-06
1.7371e-08
-2.00731e-06
1.60496e-08
-2.02203e-06
1.47198e-08
-2.03541e-06
1.33809e-08
-2.04744e-06
1.20318e-08
-2.05811e-06
1.06702e-08
-2.0674e-06
9.29251e-09
-2.0753e-06
7.89494e-09
-2.08177e-06
6.4716e-09
-2.08678e-06
5.01423e-09
-2.0903e-06
3.51494e-09
-2.09227e-06
1.97461e-09
-2.09259e-06
3.18697e-10
-2.09155e-06
-1.03928e-09
-2.08925e-06
-2.30291e-09
-2.08574e-06
-3.50722e-09
-2.08107e-06
-4.67558e-09
-2.07524e-06
-5.8246e-09
-2.06828e-06
-6.9614e-09
-2.06019e-06
-8.08877e-09
-2.05099e-06
-9.20752e-09
-2.04067e-06
-1.03175e-08
-2.02925e-06
-1.14184e-08
-2.01674e-06
-1.25096e-08
-2.00315e-06
-1.35905e-08
-1.98849e-06
-1.46604e-08
-1.97277e-06
-1.57189e-08
-1.95601e-06
-1.67651e-08
-1.93821e-06
-1.77988e-08
-1.91939e-06
-1.88192e-08
-1.89956e-06
-1.9826e-08
-1.87874e-06
-2.08187e-08
-1.85695e-06
-2.17969e-08
-1.83419e-06
-2.276e-08
-1.81048e-06
-2.37078e-08
-1.78584e-06
-2.46396e-08
-1.76028e-06
-2.55553e-08
-1.73383e-06
-2.64543e-08
-1.70649e-06
-2.73362e-08
-1.67829e-06
-2.82006e-08
-1.64924e-06
-2.90472e-08
-1.61937e-06
-2.98755e-08
-1.58868e-06
-3.06851e-08
-1.55721e-06
-3.14756e-08
-1.52496e-06
-3.22465e-08
-1.49196e-06
-3.29974e-08
-1.45824e-06
-3.37277e-08
-1.4238e-06
-3.4437e-08
-1.38867e-06
-3.51249e-08
-1.35288e-06
-3.57907e-08
-1.31645e-06
-3.6434e-08
-1.2794e-06
-3.70543e-08
-1.24174e-06
-3.76511e-08
-1.20352e-06
-3.82237e-08
-1.16475e-06
-3.87717e-08
-1.12545e-06
-3.92945e-08
-1.08566e-06
-3.97917e-08
-1.0454e-06
-4.02627e-08
-1.00469e-06
-4.07071e-08
-9.63569e-07
-4.11243e-08
-9.22055e-07
-4.15139e-08
-8.8018e-07
-4.18756e-08
-8.37971e-07
-4.22088e-08
-7.95458e-07
-4.25133e-08
-7.52669e-07
-4.27886e-08
-7.09634e-07
-4.30346e-08
-6.66383e-07
-4.3251e-08
-6.22946e-07
-4.34375e-08
-5.79352e-07
-4.35939e-08
-5.35632e-07
-4.37201e-08
-4.91816e-07
-4.3816e-08
-4.47934e-07
-4.38814e-08
-4.04018e-07
-4.3916e-08
-3.60099e-07
-4.39198e-08
-3.16206e-07
-4.38923e-08
-2.72373e-07
-4.3833e-08
-2.28632e-07
-4.37414e-08
-1.85016e-07
-4.36164e-08
-1.41561e-07
-4.34546e-08
-9.83005e-08
-4.32605e-08
-5.52671e-08
-4.30334e-08
-1.25028e-08
-4.27642e-08
2.99571e-08
-4.24599e-08
7.20732e-08
-4.21161e-08
1.13819e-07
-4.17459e-08
1.55186e-07
-4.13667e-08
1.96169e-07
-4.09831e-08
2.36762e-07
-4.05927e-08
2.76955e-07
-4.01932e-08
3.16738e-07
-3.97833e-08
3.56101e-07
-3.93624e-08
3.95031e-07
-3.89307e-08
4.3352e-07
-3.84887e-08
4.71557e-07
-3.80372e-08
5.09134e-07
-3.75772e-08
5.46244e-07
-3.71099e-08
5.82881e-07
-3.66364e-08
6.19039e-07
-3.6158e-08
6.54714e-07
-3.56757e-08
6.89905e-07
-3.51905e-08
7.24608e-07
-3.47032e-08
7.58822e-07
-3.42142e-08
7.92546e-07
-3.37235e-08
8.25776e-07
-3.32304e-08
8.58509e-07
-3.27332e-08
8.90738e-07
-3.22288e-08
9.2245e-07
-3.17118e-08
9.53624e-07
-3.1174e-08
9.84226e-07
-3.06021e-08
1.0142e-06
-2.99754e-08
1.04346e-06
-2.92609e-08
1.07187e-06
-2.8404e-08
1.09918e-06
-2.73118e-08
1.12498e-06
-2.58044e-08
1.14852e-06
-2.35354e-08
1.16805e-06
-1.9535e-08
1.17967e-06
-1.16131e-08
1.17053e-06
9.13379e-09
5.48434e-08
1.11569e-06
1.79019e-08
-3.94938e-08
2.60235e-08
-3.3327e-08
2.59873e-08
-2.04393e-08
2.01607e-08
-7.63494e-09
9.97236e-09
4.37722e-09
-3.82877e-09
1.53445e-08
-2.10887e-08
2.50915e-08
-4.19037e-08
3.35257e-08
-6.63581e-08
4.07392e-08
-9.4427e-08
4.70086e-08
-1.26002e-07
5.26823e-08
-1.60914e-07
5.80671e-08
-1.98955e-07
6.33659e-08
-2.39912e-07
6.8664e-08
-2.83559e-07
7.39489e-08
-3.29644e-07
7.91454e-08
-3.77878e-07
8.41469e-08
-4.27936e-07
8.88381e-08
-4.79466e-07
9.31109e-08
-5.32099e-07
9.68735e-08
-5.85466e-07
1.00056e-07
-6.39209e-07
1.02615e-07
-6.92995e-07
1.04532e-07
-7.46524e-07
1.05811e-07
-7.99538e-07
1.06479e-07
-8.5182e-07
1.06581e-07
-9.03199e-07
1.06174e-07
-9.53544e-07
1.05321e-07
-1.00276e-06
1.04095e-07
-1.05078e-06
1.02565e-07
-1.09753e-06
1.00795e-07
-1.143e-06
9.88358e-08
-1.18717e-06
9.67313e-08
-1.23003e-06
9.45189e-08
-1.27161e-06
9.223e-08
-1.31191e-06
8.98903e-08
-1.35097e-06
8.75202e-08
-1.38881e-06
8.51353e-08
-1.42544e-06
8.27471e-08
-1.4609e-06
8.03633e-08
-1.4952e-06
7.79888e-08
-1.52836e-06
7.56261e-08
-1.5604e-06
7.32759e-08
-1.59132e-06
7.09376e-08
-1.62115e-06
6.86094e-08
-1.64988e-06
6.62892e-08
-1.67753e-06
6.39743e-08
-1.70409e-06
6.16619e-08
-1.72957e-06
5.93493e-08
-1.75396e-06
5.70337e-08
-1.77727e-06
5.4713e-08
-1.7995e-06
5.23849e-08
-1.82063e-06
5.00476e-08
-1.84067e-06
4.76998e-08
-1.85961e-06
4.53403e-08
-1.87744e-06
4.29685e-08
-1.89417e-06
4.05837e-08
-1.90977e-06
3.8186e-08
-1.92426e-06
3.57753e-08
-1.93762e-06
3.33518e-08
-1.94986e-06
3.09161e-08
-1.96095e-06
2.84685e-08
-1.97091e-06
2.60097e-08
-1.97973e-06
2.354e-08
-1.98741e-06
2.10601e-08
-1.99395e-06
1.85705e-08
-1.99935e-06
1.60714e-08
-2.00362e-06
1.35637e-08
-2.00678e-06
1.10485e-08
-2.00883e-06
8.52838e-09
-2.00983e-06
6.00823e-09
-2.00981e-06
3.49797e-09
-2.00886e-06
1.02201e-09
-2.00712e-06
-1.42005e-09
-2.00439e-06
-3.77106e-09
-2.00061e-06
-6.08196e-09
-1.99574e-06
-8.37399e-09
-1.98977e-06
-1.06486e-08
-1.98269e-06
-1.29078e-08
-1.97449e-06
-1.51526e-08
-1.9652e-06
-1.73828e-08
-1.95481e-06
-1.95979e-08
-1.94333e-06
-2.17967e-08
-1.93077e-06
-2.39781e-08
-1.91714e-06
-2.61407e-08
-1.90245e-06
-2.82831e-08
-1.8867e-06
-3.04042e-08
-1.86992e-06
-3.25027e-08
-1.85211e-06
-3.45773e-08
-1.83328e-06
-3.66271e-08
-1.81345e-06
-3.86509e-08
-1.79263e-06
-4.06478e-08
-1.77083e-06
-4.26168e-08
-1.74807e-06
-4.4557e-08
-1.72436e-06
-4.64675e-08
-1.69972e-06
-4.83475e-08
-1.67416e-06
-5.01962e-08
-1.64771e-06
-5.20126e-08
-1.62037e-06
-5.3796e-08
-1.59216e-06
-5.55454e-08
-1.5631e-06
-5.72601e-08
-1.5332e-06
-5.89392e-08
-1.5025e-06
-6.05819e-08
-1.471e-06
-6.21874e-08
-1.43872e-06
-6.37548e-08
-1.40568e-06
-6.52832e-08
-1.37191e-06
-6.67716e-08
-1.33741e-06
-6.82192e-08
-1.30223e-06
-6.96248e-08
-1.26636e-06
-7.09875e-08
-1.22985e-06
-7.23062e-08
-1.1927e-06
-7.358e-08
-1.15495e-06
-7.48079e-08
-1.11661e-06
-7.59888e-08
-1.07771e-06
-7.71215e-08
-1.03828e-06
-7.8205e-08
-9.98336e-07
-7.92382e-08
-9.57908e-07
-8.02203e-08
-9.1702e-07
-8.11501e-08
-8.75701e-07
-8.20267e-08
-8.33976e-07
-8.28491e-08
-7.91874e-07
-8.36164e-08
-7.49421e-07
-8.43277e-08
-7.06648e-07
-8.49824e-08
-6.63581e-07
-8.55797e-08
-6.20251e-07
-8.61188e-08
-5.76686e-07
-8.65993e-08
-5.32917e-07
-8.70207e-08
-4.88972e-07
-8.73825e-08
-4.44881e-07
-8.76843e-08
-4.00676e-07
-8.79258e-08
-3.56385e-07
-8.81068e-08
-3.12039e-07
-8.8227e-08
-2.67669e-07
-8.82862e-08
-2.23305e-07
-8.82839e-08
-1.78978e-07
-8.82197e-08
-1.34718e-07
-8.80928e-08
-9.05568e-08
-8.79023e-08
-4.6526e-08
-8.76472e-08
-2.65666e-09
-8.7324e-08
4.1018e-08
-8.69351e-08
8.44655e-08
-8.64809e-08
1.27662e-07
-8.59604e-08
1.70582e-07
-8.53803e-08
2.13207e-07
-8.47414e-08
2.55518e-07
-8.40563e-08
2.97492e-07
-8.33413e-08
3.39112e-07
-8.26032e-08
3.80362e-07
-8.18428e-08
4.21228e-07
-8.10592e-08
4.61697e-07
-8.02519e-08
5.01756e-07
-7.94211e-08
5.41393e-07
-7.85678e-08
5.80598e-07
-7.76935e-08
6.1936e-07
-7.68e-08
6.57673e-07
-7.58896e-08
6.95528e-07
-7.49646e-08
7.32918e-07
-7.40274e-08
7.69841e-07
-7.30803e-08
8.06291e-07
-7.21257e-08
8.42266e-07
-7.11654e-08
8.77764e-07
-7.02012e-08
9.12783e-07
-6.92338e-08
9.47323e-07
-6.82633e-08
9.81381e-07
-6.72882e-08
1.01495e-06
-6.63051e-08
1.04803e-06
-6.53077e-08
1.08061e-06
-6.42856e-08
1.11265e-06
-6.32221e-08
1.14414e-06
-6.20909e-08
1.17502e-06
-6.08512e-08
1.2052e-06
-5.94381e-08
1.23454e-06
-5.77455e-08
1.26282e-06
-5.55944e-08
1.28967e-06
-5.26532e-08
1.31444e-06
-4.83056e-08
1.336e-06
-4.10966e-08
1.35276e-06
-2.83746e-08
1.36316e-06
-1.26242e-09
5.43446e-08
1.36366e-06
1.01338e-09
-4.05072e-08
-7.69597e-09
-2.46176e-08
-2.10928e-08
-7.04248e-09
-3.7553e-08
8.82525e-09
-5.65422e-08
2.33665e-08
-7.79299e-08
3.67321e-08
-1.01793e-07
4.89548e-08
-1.28318e-07
6.00508e-08
-1.57684e-07
7.0105e-08
-1.89963e-07
7.92873e-08
-2.25084e-07
8.78032e-08
-2.62848e-07
9.58312e-08
-3.02962e-07
1.03481e-07
-3.45079e-07
1.10781e-07
-3.88825e-07
1.17695e-07
-4.33824e-07
1.24144e-07
-4.79708e-07
1.30031e-07
-5.2613e-07
1.3526e-07
-5.7277e-07
1.39751e-07
-6.19348e-07
1.43451e-07
-6.65623e-07
1.46332e-07
-7.11403e-07
1.48395e-07
-7.56535e-07
1.49664e-07
-8.00912e-07
1.50188e-07
-8.4446e-07
1.50027e-07
-8.87135e-07
1.49256e-07
-9.28915e-07
1.47954e-07
-9.69794e-07
1.46201e-07
-1.00978e-06
1.44076e-07
-1.04886e-06
1.41652e-07
-1.08706e-06
1.38994e-07
-1.12438e-06
1.36155e-07
-1.16083e-06
1.33183e-07
-1.19643e-06
1.30115e-07
-1.23118e-06
1.2698e-07
-1.26509e-06
1.23805e-07
-1.29818e-06
1.20605e-07
-1.33044e-06
1.17396e-07
-1.36188e-06
1.14185e-07
-1.39249e-06
1.10979e-07
-1.42228e-06
1.0778e-07
-1.45125e-06
1.04588e-07
-1.47937e-06
1.01404e-07
-1.50666e-06
9.82244e-08
-1.5331e-06
9.50464e-08
-1.55867e-06
9.18668e-08
-1.58338e-06
8.86821e-08
-1.60721e-06
8.54885e-08
-1.63014e-06
8.22829e-08
-1.65217e-06
7.90621e-08
-1.67328e-06
7.58234e-08
-1.69346e-06
7.25645e-08
-1.7127e-06
6.92836e-08
-1.73098e-06
6.59794e-08
-1.74829e-06
6.2651e-08
-1.76462e-06
5.92979e-08
-1.77995e-06
5.59203e-08
-1.79429e-06
5.25185e-08
-1.8076e-06
4.90932e-08
-1.8199e-06
4.56457e-08
-1.83116e-06
4.21771e-08
-1.84138e-06
3.86893e-08
-1.85055e-06
3.51839e-08
-1.85868e-06
3.1663e-08
-1.86575e-06
2.81289e-08
-1.87176e-06
2.45842e-08
-1.87672e-06
2.10318e-08
-1.88063e-06
1.74752e-08
-1.8835e-06
1.39191e-08
-1.88534e-06
1.03689e-08
-1.88617e-06
6.83243e-09
-1.88599e-06
3.31956e-09
-1.8848e-06
-1.63522e-10
-1.88262e-06
-3.60068e-09
-1.87939e-06
-7.00513e-09
-1.87508e-06
-1.03857e-08
-1.86971e-06
-1.37494e-08
-1.86326e-06
-1.70979e-08
-1.85574e-06
-2.04307e-08
-1.84714e-06
-2.37462e-08
-1.83748e-06
-2.70428e-08
-1.82676e-06
-3.03186e-08
-1.81499e-06
-3.35714e-08
-1.80217e-06
-3.67991e-08
-1.78831e-06
-3.99996e-08
-1.77342e-06
-4.3171e-08
-1.75751e-06
-4.63112e-08
-1.7406e-06
-4.94183e-08
-1.72268e-06
-5.24906e-08
-1.70378e-06
-5.55264e-08
-1.68391e-06
-5.85241e-08
-1.66308e-06
-6.14822e-08
-1.64129e-06
-6.43992e-08
-1.61858e-06
-6.72739e-08
-1.59494e-06
-7.01048e-08
-1.5704e-06
-7.28907e-08
-1.54496e-06
-7.56302e-08
-1.51865e-06
-7.8322e-08
-1.49148e-06
-8.0965e-08
-1.46347e-06
-8.35577e-08
-1.43463e-06
-8.6099e-08
-1.40499e-06
-8.85875e-08
-1.37454e-06
-9.10221e-08
-1.34333e-06
-9.34013e-08
-1.31136e-06
-9.57241e-08
-1.27866e-06
-9.79888e-08
-1.24523e-06
-1.00194e-07
-1.21111e-06
-1.02339e-07
-1.17632e-06
-1.04421e-07
-1.14087e-06
-1.0644e-07
-1.10478e-06
-1.08393e-07
-1.06808e-06
-1.10279e-07
-1.03079e-06
-1.12097e-07
-9.92935e-07
-1.13845e-07
-9.54535e-07
-1.15521e-07
-9.15616e-07
-1.17124e-07
-8.76202e-07
-1.18652e-07
-8.36318e-07
-1.20104e-07
-7.9599e-07
-1.21478e-07
-7.55243e-07
-1.22773e-07
-7.14105e-07
-1.23988e-07
-6.72601e-07
-1.2512e-07
-6.3076e-07
-1.26169e-07
-5.88609e-07
-1.27133e-07
-5.46177e-07
-1.28012e-07
-5.03491e-07
-1.28805e-07
-4.6058e-07
-1.2951e-07
-4.17473e-07
-1.30127e-07
-3.742e-07
-1.30656e-07
-3.30789e-07
-1.31095e-07
-2.8727e-07
-1.31445e-07
-2.43672e-07
-1.31704e-07
-2.00025e-07
-1.31874e-07
-1.56359e-07
-1.31952e-07
-1.12703e-07
-1.3194e-07
-6.90872e-08
-1.31836e-07
-2.55403e-08
-1.3164e-07
1.79078e-08
-1.3135e-07
6.12265e-08
-1.30966e-07
1.04388e-07
-1.30485e-07
1.47362e-07
-1.2991e-07
1.90124e-07
-1.29242e-07
2.32652e-07
-1.28489e-07
2.74932e-07
-1.2766e-07
3.16949e-07
-1.26759e-07
3.58681e-07
-1.25788e-07
4.00102e-07
-1.24762e-07
4.41187e-07
-1.23689e-07
4.81918e-07
-1.22573e-07
5.22276e-07
-1.21418e-07
5.62248e-07
-1.20223e-07
6.01819e-07
-1.18992e-07
6.40978e-07
-1.17726e-07
6.79712e-07
-1.16428e-07
7.18014e-07
-1.15101e-07
7.55874e-07
-1.13749e-07
7.93284e-07
-1.12375e-07
8.3024e-07
-1.10983e-07
8.66737e-07
-1.09577e-07
9.02771e-07
-1.08159e-07
9.38339e-07
-1.06734e-07
9.7344e-07
-1.05302e-07
1.00807e-06
-1.03867e-07
1.04224e-06
-1.02427e-07
1.07593e-06
-1.0098e-07
1.10915e-06
-9.95225e-08
1.14188e-06
-9.80439e-08
1.17413e-06
-9.6529e-08
1.20586e-06
-9.49533e-08
1.23704e-06
-9.32785e-08
1.26764e-06
-9.14449e-08
1.29756e-06
-8.93588e-08
1.32668e-06
-8.68688e-08
1.35481e-06
-8.37241e-08
1.38164e-06
-7.94808e-08
1.40668e-06
-7.33433e-08
1.42924e-06
-6.36607e-08
1.44845e-06
-4.75848e-08
1.46485e-06
-1.76605e-08
3.71538e-08
1.48204e-06
-1.46009e-08
-2.59063e-08
-3.49625e-08
-4.25596e-09
-5.70407e-08
1.50357e-08
-8.04521e-08
3.22367e-08
-1.05186e-07
4.81001e-08
-1.31357e-07
6.29035e-08
-1.59128e-07
7.67256e-08
-1.88666e-07
8.95894e-08
-2.20093e-07
1.01532e-07
-2.53428e-07
1.12622e-07
-2.88572e-07
1.22947e-07
-3.25317e-07
1.32576e-07
-3.63381e-07
1.41545e-07
-4.02448e-07
1.49847e-07
-4.4219e-07
1.57438e-07
-4.82302e-07
1.64256e-07
-5.22509e-07
1.70238e-07
-5.62579e-07
1.75329e-07
-6.02325e-07
1.79498e-07
-6.41608e-07
1.82734e-07
-6.8033e-07
1.85054e-07
-7.18431e-07
1.86496e-07
-7.55883e-07
1.87116e-07
-7.9268e-07
1.86984e-07
-8.28831e-07
1.86178e-07
-8.64356e-07
1.84782e-07
-8.99279e-07
1.82877e-07
-9.33622e-07
1.80544e-07
-9.67404e-07
1.77857e-07
-1.00064e-06
1.74885e-07
-1.03333e-06
1.71685e-07
-1.06548e-06
1.68309e-07
-1.0971e-06
1.64798e-07
-1.12817e-06
1.61186e-07
-1.15869e-06
1.57502e-07
-1.18865e-06
1.53766e-07
-1.21804e-06
1.49995e-07
-1.24684e-06
1.46199e-07
-1.27505e-06
1.42387e-07
-1.30263e-06
1.38563e-07
-1.32958e-06
1.34728e-07
-1.35587e-06
1.30883e-07
-1.38149e-06
1.27026e-07
-1.40642e-06
1.23154e-07
-1.43064e-06
1.19266e-07
-1.45413e-06
1.15356e-07
-1.47687e-06
1.11423e-07
-1.49885e-06
1.07461e-07
-1.52003e-06
1.03468e-07
-1.54041e-06
9.94417e-08
-1.55997e-06
9.53789e-08
-1.57868e-06
9.12779e-08
-1.59653e-06
8.71375e-08
-1.61351e-06
8.29567e-08
-1.6296e-06
7.87355e-08
-1.64477e-06
7.4474e-08
-1.65902e-06
7.01732e-08
-1.67234e-06
6.58342e-08
-1.68471e-06
6.14589e-08
-1.69611e-06
5.70494e-08
-1.70654e-06
5.26083e-08
-1.71599e-06
4.81385e-08
-1.72445e-06
4.36431e-08
-1.73191e-06
3.91257e-08
-1.73837e-06
3.45901e-08
-1.74383e-06
3.00405e-08
-1.74828e-06
2.54816e-08
-1.75172e-06
2.09182e-08
-1.75416e-06
1.63562e-08
-1.75559e-06
1.18016e-08
-1.75602e-06
7.26113e-09
-1.75544e-06
2.74126e-09
-1.75385e-06
-1.75343e-09
-1.75123e-06
-6.21894e-09
-1.74758e-06
-1.06597e-08
-1.74288e-06
-1.50814e-08
-1.73715e-06
-1.94862e-08
-1.73037e-06
-2.38744e-08
-1.72256e-06
-2.82443e-08
-1.71371e-06
-3.25936e-08
-1.70383e-06
-3.69194e-08
-1.69293e-06
-4.1219e-08
-1.68102e-06
-4.54893e-08
-1.66809e-06
-4.97274e-08
-1.65416e-06
-5.39306e-08
-1.63923e-06
-5.8096e-08
-1.62332e-06
-6.22211e-08
-1.60644e-06
-6.63032e-08
-1.58859e-06
-7.03401e-08
-1.56978e-06
-7.43295e-08
-1.55004e-06
-7.82692e-08
-1.52936e-06
-8.21572e-08
-1.50777e-06
-8.59917e-08
-1.48527e-06
-8.97707e-08
-1.46189e-06
-9.34925e-08
-1.43762e-06
-9.71553e-08
-1.41249e-06
-1.00757e-07
-1.38652e-06
-1.04297e-07
-1.35971e-06
-1.07772e-07
-1.33209e-06
-1.11182e-07
-1.30366e-06
-1.14524e-07
-1.27445e-06