/*--------------------------------*- C++ -*----------------------------------*\
| =========                 |                                                 |
| \\      /  F ield         | OpenFOAM: The Open Source CFD Toolbox           |
|  \\    /   O peration     | Version:  2412                                  |
|   \\  /    A nd           | Website:  www.openfoam.com                      |
|    \\/     M anipulation  |                                                 |
\*---------------------------------------------------------------------------*/
FoamFile
{
    version     2.0;
    format      ascii;
    arch        "LSB;label=32;scalar=64";
    class       volVectorField;
    location    "0.16";
    object      U;
}
// * * * * * * * * * * * * * * * * * * * * * * * * * * * * * * * * * * * * * //

dimensions      [0 1 -1 0 0 0 0];

internalField   nonuniform List<vector> 
12225
(
(0.377183 -0.200896 0)
(0.543961 -0.0519268 0)
(0.711044 -0.0340142 0)
(0.893973 -0.0304763 0)
(1.0591 -0.0297464 0)
(1.20884 -0.0284518 0)
(1.34614 -0.0265174 0)
(1.47044 -0.0245746 0)
(1.58217 -0.0227651 0)
(1.68263 -0.0210725 0)
(1.77298 -0.0194939 0)
(1.85418 -0.0180212 0)
(1.92704 -0.0166331 0)
(1.99225 -0.0152877 0)
(2.05016 -0.0139614 0)
(2.10164 -0.0125037 0)
(2.14286 -0.010357 0)
(2.19051 -0.0128772 0)
(0.933503 -0.0317783 0)
(1.0567 -0.0587096 0)
(1.23664 -0.0688992 0)
(1.42155 -0.0644833 0)
(1.58551 -0.0618107 0)
(1.7344 -0.0589641 0)
(1.87129 -0.0555616 0)
(1.99599 -0.0521738 0)
(2.10899 -0.0489311 0)
(2.21132 -0.0458409 0)
(2.30395 -0.0429175 0)
(2.38773 -0.0401468 0)
(2.4634 -0.0374867 0)
(2.53157 -0.0348583 0)
(2.59265 -0.0322015 0)
(2.647 -0.0290714 0)
(2.69413 -0.0260816 0)
(2.73597 -0.0160016 0)
(1.39962 -0.0846817 0)
(1.49179 -0.105676 0)
(1.65465 -0.107235 0)
(1.82259 -0.101938 0)
(1.97266 -0.0979851 0)
(2.11035 -0.0936468 0)
(2.23772 -0.0887339 0)
(2.35445 -0.0837897 0)
(2.46088 -0.0789868 0)
(2.5578 -0.0743714 0)
(2.64595 -0.0699691 0)
(2.72601 -0.065761 0)
(2.7986 -0.0616875 0)
(2.86425 -0.0576421 0)
(2.92334 -0.0534941 0)
(2.97612 -0.048826 0)
(3.02276 -0.0436216 0)
(3.06252 -0.0341471 0)
(1.89741 -0.115424 0)
(1.94623 -0.143307 0)
(2.0752 -0.14498 0)
(2.21746 -0.140761 0)
(2.34796 -0.135772 0)
(2.4697 -0.130036 0)
(2.58348 -0.123685 0)
(2.68862 -0.117196 0)
(2.78518 -0.110807 0)
(2.87365 -0.10462 0)
(2.95452 -0.0986776 0)
(3.02829 -0.0929611 0)
(3.09544 -0.0873998 0)
(3.15639 -0.081864 0)
(3.21147 -0.0761731 0)
(3.26087 -0.0699066 0)
(3.3051 -0.0627774 0)
(3.34261 -0.0517844 0)
(2.43108 -0.12583 0)
(2.4405 -0.169889 0)
(2.5288 -0.177407 0)
(2.64001 -0.176165 0)
(2.74679 -0.171221 0)
(2.849 -0.164719 0)
(2.94613 -0.157363 0)
(3.03696 -0.149662 0)
(3.12119 -0.141945 0)
(3.19896 -0.134385 0)
(3.27052 -0.127056 0)
(3.33614 -0.119951 0)
(3.39615 -0.112998 0)
(3.45084 -0.106058 0)
(3.5005 -0.0989197 0)
(3.54525 -0.0911772 0)
(3.58592 -0.0823961 0)
(3.62042 -0.0702998 0)
(2.99683 -0.123683 0)
(2.97697 -0.185367 0)
(3.02468 -0.201454 0)
(3.10201 -0.204944 0)
(3.18208 -0.201563 0)
(3.26194 -0.195243 0)
(3.33991 -0.187537 0)
(3.41418 -0.179142 0)
(3.48401 -0.170518 0)
(3.54918 -0.16193 0)
(3.60967 -0.1535 0)
(3.66554 -0.145248 0)
(3.71694 -0.137113 0)
(3.76403 -0.128962 0)
(3.80705 -0.120577 0)
(3.84605 -0.111591 0)
(3.88205 -0.101548 0)
(3.9125 -0.0888584 0)
(3.58832 -0.114507 0)
(3.55089 -0.19058 0)
(3.5632 -0.215886 0)
(3.60677 -0.225307 0)
(3.65872 -0.224993 0)
(3.7144 -0.219941 0)
(3.77136 -0.212663 0)
(3.8273 -0.204201 0)
(3.88103 -0.195186 0)
(3.93201 -0.185999 0)
(3.97994 -0.176832 0)
(4.02467 -0.167747 0)
(4.06617 -0.15871 0)
(4.10449 -0.149607 0)
(4.13975 -0.14024 0)
(4.17198 -0.130302 0)
(4.20227 -0.119395 0)
(4.22755 -0.10648 0)
(4.1988 -0.101766 0)
(4.15397 -0.187071 0)
(4.13918 -0.220698 0)
(4.15216 -0.236297 0)
(4.17666 -0.240123 0)
(4.20774 -0.237372 0)
(4.24277 -0.231336 0)
(4.27928 -0.223487 0)
(4.31576 -0.214656 0)
(4.35137 -0.205361 0)
(4.38558 -0.195882 0)
(4.41805 -0.186337 0)
(4.4486 -0.176736 0)
(4.47713 -0.166997 0)
(4.50369 -0.156964 0)
(4.52823 -0.146403 0)
(4.55184 -0.135014 0)
(4.57094 -0.122161 0)
(4.82185 -0.0878079 0)
(4.77662 -0.176871 0)
(4.74389 -0.216834 0)
(4.73188 -0.237813 0)
(4.73176 -0.246105 0)
(4.73952 -0.246382 0)
(4.75299 -0.2423 0)
(4.76993 -0.235714 0)
(4.78872 -0.227653 0)
(4.80837 -0.21877 0)
(4.82818 -0.209441 0)
(4.84768 -0.199854 0)
(4.86652 -0.19007 0)
(4.88452 -0.180059 0)
(4.90163 -0.169715 0)
(4.91772 -0.158884 0)
(4.93385 -0.147379 0)
(4.94591 -0.13485 0)
(5.45146 -0.0741078 0)
(5.40949 -0.162004 0)
(5.36681 -0.205817 0)
(5.33651 -0.230628 0)
(5.31633 -0.242876 0)
(5.3038 -0.246388 0)
(5.29755 -0.244693 0)
(5.29594 -0.239867 0)
(5.29758 -0.233085 0)
(5.30146 -0.2251 0)
(5.30684 -0.216376 0)
(5.31315 -0.207172 0)
(5.31999 -0.197609 0)
(5.32709 -0.187709 0)
(5.33431 -0.17743 0)
(5.34146 -0.166693 0)
(5.34954 -0.15542 0)
(5.35393 -0.143458 0)
(6.08167 -0.0613929 0)
(6.0441 -0.144165 0)
(5.99712 -0.189306 0)
(5.95491 -0.21614 0)
(5.92003 -0.231218 0)
(5.89152 -0.237587 0)
(5.86877 -0.238298 0)
(5.85093 -0.235442 0)
(5.83703 -0.230254 0)
(5.82626 -0.223529 0)
(5.81794 -0.215787 0)
(5.81155 -0.207346 0)
(5.80665 -0.198377 0)
(5.80295 -0.18896 0)
(5.80026 -0.179109 0)
(5.79834 -0.168814 0)
(5.79813 -0.158092 0)
(5.79456 -0.146923 0)
(6.65461 -0.0506007 0)
(6.62055 -0.126188 0)
(6.57303 -0.170556 0)
(6.52476 -0.197732 0)
(6.48111 -0.214181 0)
(6.44227 -0.222428 0)
(6.4081 -0.224972 0)
(6.37835 -0.223782 0)
(6.35256 -0.220077 0)
(6.33018 -0.214637 0)
(6.31073 -0.207991 0)
(6.29377 -0.200482 0)
(6.27894 -0.192319 0)
(6.26594 -0.183617 0)
(6.25461 -0.174438 0)
(6.24464 -0.164822 0)
(6.23699 -0.154826 0)
(6.2262 -0.144624 0)
(7.20973 -0.0406528 0)
(7.18016 -0.107374 0)
(7.13446 -0.149576 0)
(7.08341 -0.176095 0)
(7.03442 -0.192922 0)
(6.98878 -0.202288 0)
(6.94656 -0.206156 0)
(6.90792 -0.206297 0)
(6.87284 -0.203884 0)
(6.84108 -0.199659 0)
(6.81237 -0.194127 0)
(6.7864 -0.18763 0)
(6.76293 -0.180395 0)
(6.74171 -0.172563 0)
(6.7226 -0.164225 0)
(6.70532 -0.155461 0)
(6.69076 -0.146338 0)
(6.67332 -0.137242 0)
(7.81811 -0.0310633 0)
(7.79338 -0.0861072 0)
(7.75172 -0.12381 0)
(7.70082 -0.148255 0)
(7.64924 -0.164279 0)
(7.59951 -0.173898 0)
(7.55195 -0.178538 0)
(7.50692 -0.179643 0)
(7.46474 -0.178295 0)
(7.42547 -0.175185 0)
(7.38904 -0.170772 0)
(7.35532 -0.165376 0)
(7.32419 -0.159222 0)
(7.29549 -0.152461 0)
(7.26916 -0.145201 0)
(7.24493 -0.137541 0)
(7.22364 -0.129572 0)
(7.19982 -0.121762 0)
(8.45855 -0.0222888 0)
(8.43893 -0.0637445 0)
(8.40342 -0.0942146 0)
(8.35608 -0.114619 0)
(8.30533 -0.128249 0)
(8.2548 -0.136844 0)
(8.20523 -0.141373 0)
(8.1571 -0.142837 0)
(8.11096 -0.142112 0)
(8.06713 -0.1398 0)
(8.02573 -0.1363 0)
(7.98676 -0.131896 0)
(7.9502 -0.126793 0)
(7.91602 -0.121142 0)
(7.88419 -0.115058 0)
(7.85451 -0.10864 0)
(7.82779 -0.101986 0)
(7.79891 -0.0955845 0)
(9.08866 -0.0143638 0)
(9.07382 -0.0417143 0)
(9.04561 -0.0628086 0)
(9.00495 -0.0771395 0)
(8.95895 -0.086553 0)
(8.91166 -0.092419 0)
(8.86417 -0.0954294 0)
(8.81703 -0.0961947 0)
(8.77092 -0.0953091 0)
(8.72639 -0.0932192 0)
(8.68373 -0.0902222 0)
(8.64305 -0.0865278 0)
(8.60445 -0.0822967 0)
(8.56795 -0.0776531 0)
(8.53359 -0.0726986 0)
(8.50123 -0.0675291 0)
(8.4716 -0.0622139 0)
(8.44036 -0.0572609 0)
(9.63295 -0.00706537 0)
(9.6217 -0.0206842 0)
(9.59987 -0.0313599 0)
(9.56659 -0.0383288 0)
(9.52746 -0.0423522 0)
(9.48643 -0.0442616 0)
(9.44471 -0.0445074 0)
(9.40274 -0.0434281 0)
(9.3611 -0.0413668 0)
(9.32037 -0.0386067 0)
(9.28093 -0.0353433 0)
(9.24296 -0.0317139 0)
(9.20659 -0.0278263 0)
(9.1719 -0.0237716 0)
(9.13897 -0.0196229 0)
(9.10772 -0.0154608 0)
(9.0787 -0.0112996 0)
(9.04891 -0.00763358 0)
(9.96404 0.000115739 0)
(9.95459 0.000187605 0)
(9.93649 0.000663328 0)
(9.90812 0.00192544 0)
(9.87423 0.00388612 0)
(9.83859 0.00635404 0)
(9.80247 0.00922489 0)
(9.76622 0.0124271 0)
(9.7303 0.0158765 0)
(9.6952 0.0194925 0)
(9.66123 0.0232125 0)
(9.62855 0.0269866 0)
(9.59723 0.030769 0)
(9.5673 0.0345111 0)
(9.53879 0.0381708 0)
(9.51166 0.0416842 0)
(9.48606 0.0450758 0)
(9.46101 0.0479299 0)
(9.87499 0.007482 0)
(9.86688 0.0218233 0)
(9.84987 0.0342535 0)
(9.8225 0.0444698 0)
(9.7896 0.0528964 0)
(9.75499 0.0600158 0)
(9.71995 0.0661251 0)
(9.68486 0.0714395 0)
(9.65018 0.0761556 0)
(9.61641 0.0804325 0)
(9.58387 0.0843779 0)
(9.5527 0.0880598 0)
(9.52296 0.0915205 0)
(9.49467 0.0947832 0)
(9.4678 0.0978563 0)
(9.44238 0.100721 0)
(9.41812 0.103415 0)
(9.39607 0.105658 0)
(9.28437 0.0159265 0)
(9.27065 0.0462211 0)
(9.24579 0.0712213 0)
(9.20982 0.090459 0)
(9.16899 0.105294 0)
(9.12728 0.116928 0)
(9.08579 0.126043 0)
(9.04492 0.133181 0)
(9.00522 0.138856 0)
(8.96716 0.143471 0)
(8.93102 0.147305 0)
(8.89688 0.150548 0)
(8.86474 0.153338 0)
(8.83457 0.155777 0)
(8.8063 0.157934 0)
(8.77989 0.159858 0)
(8.75486 0.161599 0)
(8.73321 0.163011 0)
(8.47101 0.0260974 0)
(8.45236 0.073829 0)
(8.41971 0.110382 0)
(8.37626 0.13693 0)
(8.32998 0.156591 0)
(8.28456 0.171214 0)
(8.24073 0.181832 0)
(8.1988 0.189402 0)
(8.15925 0.194785 0)
(8.12237 0.198607 0)
(8.08821 0.201293 0)
(8.05669 0.203151 0)
(8.0277 0.204412 0)
(8.00109 0.205245 0)
(7.9767 0.205775 0)
(7.95442 0.2061 0)
(7.93372 0.20628 0)
(7.91665 0.206271 0)
(7.51239 0.0385295 0)
(7.4866 0.104521 0)
(7.44645 0.150257 0)
(7.39955 0.181397 0)
(7.35396 0.203386 0)
(7.31184 0.218523 0)
(7.27318 0.228335 0)
(7.23807 0.234361 0)
(7.20661 0.237813 0)
(7.17868 0.239494 0)
(7.15403 0.239943 0)
(7.13235 0.239552 0)
(7.11335 0.238606 0)
(7.09677 0.237308 0)
(7.08232 0.235799 0)
(7.06981 0.234189 0)
(7.05873 0.232532 0)
(7.05081 0.230851 0)
(6.48931 0.05423 0)
(6.45656 0.136917 0)
(6.41295 0.186974 0)
(6.37064 0.218587 0)
(6.33489 0.239431 0)
(6.30528 0.252088 0)
(6.28107 0.258798 0)
(6.26185 0.261642 0)
(6.24704 0.262007 0)
(6.23597 0.260749 0)
(6.22803 0.258448 0)
(6.2227 0.255517 0)
(6.21954 0.252239 0)
(6.21817 0.248807 0)
(6.21827 0.245349 0)
(6.21962 0.241955 0)
(6.22176 0.238669 0)
(6.22609 0.235548 0)
(5.45712 0.0733935 0)
(5.41829 0.166501 0)
(5.37868 0.214135 0)
(5.35277 0.241968 0)
(5.33864 0.258363 0)
(5.33247 0.266126 0)
(5.33272 0.268306 0)
(5.3381 0.267235 0)
(5.34725 0.264226 0)
(5.35907 0.260064 0)
(5.37279 0.255281 0)
(5.38784 0.250231 0)
(5.40375 0.245138 0)
(5.42021 0.240143 0)
(5.43694 0.235329 0)
(5.45377 0.230751 0)
(5.47039 0.226429 0)
(5.48792 0.222428 0)
(4.45282 0.0947801 0)
(4.41206 0.187419 0)
(4.39048 0.225948 0)
(4.3966 0.246414 0)
(4.41649 0.255942 0)
(4.44336 0.25785 0)
(4.47528 0.255605 0)
(4.51037 0.251223 0)
(4.54693 0.245684 0)
(4.58391 0.239583 0)
(4.62069 0.233318 0)
(4.65686 0.22713 0)
(4.69212 0.221159 0)
(4.7263 0.215482 0)
(4.7593 0.210137 0)
(4.7911 0.20514 0)
(4.82152 0.200491 0)
(4.85151 0.196256 0)
(3.50293 0.114454 0)
(3.47301 0.192927 0)
(3.48913 0.217658 0)
(3.5412 0.228901 0)
(3.60262 0.23148 0)
(3.66651 0.228849 0)
(3.7318 0.223847 0)
(3.79676 0.217741 0)
(3.86001 0.211134 0)
(3.92089 0.204424 0)
(3.97914 0.197865 0)
(4.03464 0.191598 0)
(4.08737 0.185693 0)
(4.13737 0.180177 0)
(4.18475 0.175055 0)
(4.22963 0.170316 0)
(4.27202 0.165948 0)
(4.31276 0.162022 0)
(2.62982 0.122984 0)
(2.63207 0.176393 0)
(2.70178 0.187977 0)
(2.8047 0.191095 0)
(2.90735 0.189124 0)
(3.00606 0.184609 0)
(3.10163 0.178938 0)
(3.19308 0.172756 0)
(3.27957 0.166465 0)
(3.36097 0.160319 0)
(3.43741 0.154463 0)
(3.50913 0.148971 0)
(3.57636 0.143869 0)
(3.63938 0.139156 0)
(3.6985 0.134816 0)
(3.754 0.130828 0)
(3.80606 0.12717 0)
(3.85544 0.123934 0)
(1.85178 0.104826 0)
(1.90639 0.134441 0)
(2.03034 0.141903 0)
(2.17814 0.140521 0)
(2.31588 0.137046 0)
(2.44345 0.132932 0)
(2.56369 0.128115 0)
(2.67653 0.123005 0)
(2.78161 0.117959 0)
(2.87923 0.113134 0)
(2.96991 0.108601 0)
(3.05419 0.104395 0)
(3.13256 0.100523 0)
(3.20552 0.0969708 0)
(3.27352 0.0937178 0)
(3.33701 0.0907405 0)
(3.3963 0.0880037 0)
(3.45213 0.0856144 0)
(1.17533 0.0416902 0)
(1.28238 0.0661072 0)
(1.43869 0.0889897 0)
(1.6166 0.0891812 0)
(1.78036 0.0862355 0)
(1.92918 0.0833378 0)
(2.06745 0.0798413 0)
(2.19588 0.0761261 0)
(2.31437 0.0725373 0)
(2.42351 0.0691595 0)
(2.52415 0.0660178 0)
(2.61709 0.0631279 0)
(2.70304 0.0604864 0)
(2.78265 0.0580771 0)
(2.85653 0.0558795 0)
(2.92522 0.0538767 0)
(2.98914 0.0520068 0)
(3.04902 0.0503694 0)
(0.469484 0.226529 0)
(0.642365 0.0691637 0)
(0.788943 0.0480271 0)
(0.972465 0.0444122 0)
(1.14914 0.0429745 0)
(1.30919 0.0416822 0)
(1.45691 0.0396498 0)
(1.59329 0.0373349 0)
(1.71814 0.0351171 0)
(1.83221 0.0330695 0)
(1.93666 0.0311876 0)
(2.03252 0.0294693 0)
(2.12068 0.0279083 0)
(2.2019 0.0264915 0)
(2.2769 0.025203 0)
(2.34631 0.0240358 0)
(2.41065 0.0229366 0)
(2.47021 0.0219844 0)
(0.0103639 -0.0221421 -2.68871e-20)
(0.0309964 -0.0338161 2.61904e-20)
(0.0510596 -0.0327556 0)
(0.0667447 -0.0256525 0)
(0.0757513 -0.0159514 0)
(0.0778938 -0.00583011 -2.4632e-20)
(0.0733442 0.00302449 0)
(0.0638959 0.00954865 0)
(0.0508162 0.0136871 0)
(0.0350317 0.0160781 0)
(0.0171498 0.0175368 2.42518e-20)
(-0.00256399 0.0187308 0)
(-0.0241251 0.0201074 0)
(-0.0477259 0.0218712 0)
(-0.0735786 0.0240475 0)
(-0.10186 0.0265716 2.24836e-20)
(-0.132693 0.0293472 0)
(-0.16613 0.0322694 0)
(-0.20215 0.0352313 0)
(-0.240663 0.0381281 0)
(-0.281514 0.0408614 0)
(-0.324489 0.043345 0)
(-0.369331 0.0455091 0)
(-0.415749 0.0473032 1.91468e-20)
(-0.463434 0.0486975 -1.87816e-20)
(-0.512068 0.0496826 1.84336e-20)
(-0.561346 0.0502687 1.81032e-20)
(-0.610983 0.0504861 0)
(-0.66071 0.0503838 0)
(-0.710264 0.0500218 -1.72159e-20)
(-0.759479 0.0494587 -1.69516e-20)
(-0.80823 0.0487277 0)
(-0.85637 0.0478509 0)
(-0.90379 0.0468556 -1.62432e-20)
(-0.950402 0.0457677 0)
(-0.996132 0.0446102 0)
(-1.04093 0.0434034 1.56389e-20)
(-1.08475 0.0421641 0)
(-1.12756 0.0409058 1.52799e-20)
(-1.16934 0.0396393 3.02217e-20)
(-1.21008 0.0383726 0)
(-1.24978 0.0371115 0)
(-1.28841 0.03586 0)
(-1.32599 0.0346207 0)
(-1.3625 0.0333948 0)
(-1.39796 0.032183 2.83864e-20)
(-1.43235 0.0309851 2.8101e-20)
(-1.46568 0.0298005 2.78186e-20)
(-1.49794 0.0286286 0)
(-1.52913 0.0274684 -2.72594e-20)
(-1.55924 0.026319 0)
(-1.58827 0.0251795 2.67022e-20)
(-1.61622 0.024049 2.64226e-20)
(-1.64307 0.022927 0)
(-1.66882 0.0218127 0)
(-1.69346 0.0207056 0)
(-1.71699 0.0196054 2.52836e-20)
(-1.73938 0.0185118 0)
(-1.76064 0.0174242 0)
(-1.78075 0.0163424 0)
(-1.79971 0.0152659 0)
(-1.81751 0.0141938 0)
(-1.83413 0.0131252 0)
(-1.84957 0.0120586 0)
(-1.86381 0.0109919 0)
(-1.87685 0.0099224 -2.24725e-20)
(-1.88868 0.00884697 0)
(-1.89927 0.00776147 0)
(-1.90862 0.00666105 2.14273e-20)
(-1.91668 0.0055409 2.10652e-20)
(-1.92345 0.00439913 0)
(-1.92888 0.00324346 -2.03204e-20)
(-1.93293 0.0020981 1.99378e-20)
(-1.93553 0.000999905 0)
(-1.93661 -7.76329e-06 -1.91483e-20)
(-1.93658 -0.000858262 0)
(-1.93544 -0.00163035 0)
(-1.9332 -0.00236429 1.78969e-20)
(-1.9299 -0.00307579 0)
(-1.92555 -0.00377098 -1.70213e-20)
(-1.92015 -0.00445235 0)
(-1.9137 -0.00512087 1.61125e-20)
(-1.90622 -0.00577686 1.56458e-20)
(-1.89771 -0.00642036 1.51711e-20)
(-1.88817 -0.0070513 2.93767e-20)
(-1.87761 -0.00766957 -2.83954e-20)
(-1.86604 -0.00827508 0)
(-1.85347 -0.00886771 0)
(-1.83991 -0.00944738 0)
(-1.82535 -0.010014 -2.43177e-20)
(-1.80982 -0.0105676 -2.32617e-20)
(-1.79333 -0.0111081 2.21918e-20)
(-1.77587 -0.0116354 0)
(-1.75747 -0.0121495 -2.00117e-20)
(-1.73813 -0.0126505 -1.89025e-20)
(-1.71787 -0.0131383 -1.77811e-20)
(-1.6967 -0.0136129 0)
(-1.67462 -0.0140744 0)
(-1.65166 -0.0145226 0)
(-1.62782 -0.0149576 -1.31835e-20)
(-1.60312 -0.0153795 0)
(-1.57758 -0.0157881 0)
(-1.5512 -0.0161835 9.63314e-21)
(-1.524 -0.0165657 0)
(-1.49599 -0.0169347 0)
(-1.4672 -0.0172903 6.0135e-21)
(-1.43763 -0.0176325 0)
(-1.40731 -0.0179614 0)
(-1.37625 -0.0182768 -2.34256e-21)
(-1.34446 -0.0185786 -1.11084e-21)
(-1.31197 -0.0188667 0)
(-1.27879 -0.0191412 -1.3602e-21)
(-1.24495 -0.0194019 0)
(-1.21045 -0.0196487 3.8362e-21)
(-1.17533 -0.0198815 0)
(-1.1396 -0.0201002 6.31072e-21)
(-1.10328 -0.0203047 7.54536e-21)
(-1.0664 -0.020495 0)
(-1.02898 -0.0206709 0)
(-0.991032 -0.0208323 0)
(-0.952589 -0.0209793 0)
(-0.913673 -0.0211116 0)
(-0.874308 -0.0212293 0)
(-0.834519 -0.0213323 0)
(-0.794331 -0.0214205 1.72476e-20)
(-0.753769 -0.0214941 -1.84256e-20)
(-0.71286 -0.0215529 0)
(-0.67163 -0.0215971 0)
(-0.630105 -0.0216265 0)
(-0.588314 -0.0216413 0)
(-0.546282 -0.0216415 -4.82801e-20)
(-0.504038 -0.0216271 0)
(-0.46161 -0.0215983 5.26574e-20)
(-0.419025 -0.0215549 -5.47983e-20)
(-0.376312 -0.0214971 0)
(-0.3335 -0.0214247 0)
(-0.290618 -0.0213377 0)
(-0.247697 -0.0212356 6.30097e-20)
(-0.204767 -0.0211179 6.49681e-20)
(-0.161862 -0.0209821 0)
(-0.119014 -0.0208247 6.87633e-20)
(-0.0762537 -0.0206439 7.05986e-20)
(-0.0336117 -0.0204342 -7.2392e-20)
(0.00886785 -0.0201546 0)
(0.0511124 -0.0197927 0)
(0.0931371 -0.019413 -7.54332e-20)
(0.13492 -0.0190413 0)
(0.176449 -0.0186784 0)
(0.217716 -0.0183214 0)
(0.258715 -0.0179684 0)
(0.299435 -0.0176181 7.82185e-20)
(0.339865 -0.0172701 7.86325e-20)
(0.379996 -0.0169243 0)
(0.419816 -0.0165808 7.93332e-20)
(0.459316 -0.0162398 0)
(0.498485 -0.0159018 0)
(0.537316 -0.015567 8.00925e-20)
(0.575802 -0.015236 0)
(0.613937 -0.014909 8.04235e-20)
(0.651717 -0.0145865 0)
(0.689137 -0.0142686 0)
(0.726194 -0.0139557 8.06869e-20)
(0.762888 -0.0136478 0)
(0.799215 -0.0133448 8.07228e-20)
(0.835173 -0.0130462 0)
(0.870759 -0.0127515 0)
(0.905967 -0.0124594 0)
(0.940786 -0.0121681 -8.05039e-20)
(0.9752 -0.0118746 0)
(1.00918 -0.0115745 8.02702e-20)
(1.04268 -0.0112611 0)
(1.07563 -0.0109235 0)
(1.10791 -0.010544 0)
(1.13931 -0.0100933 0)
(1.16955 -0.00951319 0)
(1.19788 -0.00869548 0)
(1.22357 -0.00731538 0)
(1.24195 -0.00458735 -1.58658e-19)
(1.25582 0.00265946 0)
(1.20923 0.0178537 0)
(0.0103939 -0.0652081 7.91422e-20)
(0.0217575 -0.0653924 -7.45238e-20)
(0.0241346 -0.0465372 0)
(0.0212802 -0.0260369 4.42758e-20)
(0.0141508 -0.00641338 0)
(0.00349385 0.0113038 2.09425e-20)
(-0.0101789 0.0263806 -4.09667e-20)
(-0.0271093 0.0385318 -4.01143e-20)
(-0.0473007 0.0480983 0)
(-0.0707415 0.0558043 -3.85354e-20)
(-0.0973669 0.0624433 -1.89152e-20)
(-0.127057 0.0686533 0)
(-0.159655 0.074838 0)
(-0.194982 0.0811756 0)
(-0.23285 0.0876629 0)
(-0.273051 0.0941834 -1.70141e-20)
(-0.315349 0.100568 0)
(-0.359471 0.106635 3.24645e-20)
(-0.405116 0.112212 0)
(-0.451962 0.117152 0)
(-0.499676 0.12134 -3.04094e-20)
(-0.547931 0.124699 0)
(-0.596418 0.127188 2.91689e-20)
(-0.644851 0.128805 -1.43379e-20)
(-0.69298 0.129578 1.40637e-20)
(-0.74059 0.129564 -1.38048e-20)
(-0.78751 0.128837 -1.3561e-20)
(-0.833605 0.127488 0)
(-0.878774 0.125621 0)
(-0.92294 0.123342 1.29139e-20)
(-0.966049 0.120747 -1.26519e-20)
(-1.00806 0.117908 0)
(-1.04895 0.114883 0)
(-1.08871 0.111727 1.22102e-20)
(-1.12736 0.108483 0)
(-1.1649 0.105189 0)
(-1.20135 0.101876 -1.17683e-20)
(-1.23674 0.0985673 0)
(-1.27108 0.095281 1.14287e-20)
(-1.30439 0.0920298 -2.27527e-20)
(-1.33669 0.088822 0)
(-1.368 0.0856629 0)
(-1.39832 0.0825547 -4.39237e-20)
(-1.42768 0.0794978 -4.34667e-20)
(-1.45608 0.0764912 -4.30172e-20)
(-1.48353 0.0735326 2.12162e-20)
(-1.51004 0.0706195 -2.11368e-20)
(-1.53559 0.0677487 -6.2617e-20)
(-1.5602 0.0649172 4.12661e-20)
(-1.58387 0.062122 2.04811e-20)
(-1.60659 0.0593602 0)
(-1.62836 0.0566294 -2.00438e-20)
(-1.64918 0.0539275 1.97087e-20)
(-1.66903 0.0512526 0)
(-1.68792 0.0486033 0)
(-1.70583 0.0459786 0)
(-1.72277 0.0433777 -1.8924e-20)
(-1.73872 0.0408002 0)
(-1.75368 0.0382456 3.68356e-20)
(-1.76765 0.0357141 0)
(-1.7806 0.0332055 3.5889e-20)
(-1.79255 0.0307198 0)
(-1.80349 0.0282571 -3.49116e-20)
(-1.8134 0.0258171 0)
(-1.82229 0.0233993 3.39001e-20)
(-1.83015 0.021003 -1.66755e-20)
(-1.83699 0.0186269 0)
(-1.84281 0.0162697 -3.23138e-20)
(-1.8476 0.0139296 -1.58859e-20)
(-1.85139 0.0116044 -1.56029e-20)
(-1.8542 0.009292 0)
(-1.85606 0.00699507 -1.50389e-20)
(-1.85704 0.00473169 -1.47238e-20)
(-1.85721 0.00253976 0)
(-1.85666 0.000457697 1.41063e-20)
(-1.85514 -0.00149418 -2.7622e-20)
(-1.85263 -0.00336022 0)
(-1.8491 -0.00516628 -1.3139e-20)
(-1.84454 -0.00692613 0)
(-1.83896 -0.00864603 3.74784e-20)
(-1.83235 -0.0103286 0)
(-1.82473 -0.0119748 -3.54179e-20)
(-1.81608 -0.0135847 -1.14222e-20)
(-1.80641 -0.0151581 1.11689e-20)
(-1.79574 -0.0166947 2.16254e-20)
(-1.78407 -0.0181942 -2.0903e-20)
(-1.7714 -0.0196561 0)
(-1.75774 -0.0210803 0)
(-1.7431 -0.0224665 0)
(-1.72748 -0.0238145 5.31593e-20)
(-1.71091 -0.0251243 1.68382e-20)
(-1.69338 -0.0263958 -1.60474e-20)
(-1.6749 -0.027629 0)
(-1.6555 -0.028824 -1.47909e-20)
(-1.63516 -0.0299807 1.36278e-20)
(-1.61392 -0.0310994 1.28068e-20)
(-1.59177 -0.03218 0)
(-1.56874 -0.0332226 0)
(-1.54483 -0.0342274 0)
(-1.52005 -0.0351945 9.45912e-21)
(-1.49443 -0.0361241 0)
(-1.46797 -0.0370162 -1.59431e-20)
(-1.44068 -0.0378711 -2.11255e-20)
(-1.41259 -0.0386888 1.25142e-20)
(-1.3837 -0.0394695 0)
(-1.35403 -0.0402132 4.76478e-21)
(-1.3236 -0.0409202 0)
(-1.29242 -0.0415903 5.57658e-21)
(-1.26051 -0.0422238 -2.16343e-21)
(-1.22789 -0.0428207 -1.29271e-21)
(-1.19458 -0.0433809 0)
(-1.16058 -0.0439047 2.38306e-21)
(-1.12593 -0.0443921 -3.16686e-21)
(-1.09064 -0.0448431 -2.72014e-21)
(-1.05473 -0.0452577 0)
(-1.01822 -0.045636 -4.46834e-21)
(-0.981137 -0.0459782 -1.5479e-20)
(-0.943494 -0.0462842 0)
(-0.905318 -0.0465543 -1.35966e-20)
(-0.86663 -0.0467885 -1.53135e-20)
(-0.827454 -0.0469869 -1.70216e-20)
(-0.787813 -0.0471498 0)
(-0.747732 -0.0472774 0)
(-0.707235 -0.0473699 0)
(-0.666347 -0.0474276 1.15962e-20)
(-0.625095 -0.0474509 1.29708e-20)
(-0.583503 -0.0474401 0)
(-0.541598 -0.0473956 2.86399e-20)
(-0.499408 -0.0473178 3.02392e-20)
(-0.456957 -0.0472072 0)
(-0.414275 -0.0470642 3.39252e-20)
(-0.371388 -0.0468895 6.98505e-20)
(-0.328323 -0.0466835 -3.69832e-20)
(-0.28511 -0.0464466 -3.74146e-20)
(-0.241775 -0.0461793 0)
(-0.198347 -0.0458817 0)
(-0.154855 -0.0455541 0)
(-0.111328 -0.0451956 -4.42307e-20)
(-0.0677951 -0.0448052 4.45895e-20)
(-0.024287 -0.0443819 9.29065e-20)
(0.0191665 -0.0439233 -4.80721e-20)
(0.0625339 -0.0434299 4.79649e-20)
(0.105789 -0.0429079 4.97443e-20)
(0.148905 -0.0423536 0)
(0.191858 -0.0417568 0)
(0.234638 -0.0411333 -5.11545e-20)
(0.277223 -0.040503 0)
(0.319592 -0.0398723 0)
(0.361728 -0.0392412 1.07296e-19)
(0.403617 -0.038609 0)
(0.445246 -0.0379751 5.44608e-20)
(0.486602 -0.0373392 -5.57765e-20)
(0.527674 -0.0367019 0)
(0.568449 -0.0360639 5.60568e-20)
(0.608919 -0.0354259 0)
(0.649073 -0.0347891 0)
(0.688904 -0.0341545 -5.80398e-20)
(0.728405 -0.0335232 1.16187e-19)
(0.76757 -0.0328962 -5.87536e-20)
(0.806395 -0.0322744 0)
(0.844876 -0.0316588 0)
(0.883012 -0.0310499 5.90795e-20)
(0.920799 -0.030448 0)
(0.958238 -0.029853 5.9588e-20)
(0.995325 -0.0292642 0)
(1.03206 -0.0286802 0)
(1.06843 -0.0280984 0)
(1.10443 -0.0275144 6.08112e-20)
(1.14005 -0.0269217 0)
(1.17525 -0.0263099 -6.10484e-20)
(1.21 -0.0256631 0)
(1.24422 -0.0249564 0)
(1.27779 -0.0241485 1.22208e-19)
(1.31054 -0.0231704 -1.2236e-19)
(1.34218 -0.0218907 0)
(1.37212 -0.0200644 0)
(1.39975 -0.0170484 0)
(1.42232 -0.0116485 3.70848e-19)
(1.44248 0.000829825 0)
(1.44504 0.0259481 -2.50913e-19)
(0.00239083 -0.0831945 -1.17783e-22)
(-0.001615 -0.0599664 9.54106e-20)
(-0.0123115 -0.0297594 0)
(-0.0254891 -0.00214828 -7.93834e-20)
(-0.0411827 0.0227669 0)
(-0.0591152 0.0450969 0)
(-0.0792219 0.0649058 4.05657e-23)
(-0.10163 0.0822561 3.3797e-20)
(-0.126518 0.0973743 3.29648e-20)
(-0.154009 0.110692 3.22651e-20)
(-0.184113 0.122721 0)
(-0.216709 0.133909 0)
(-0.251576 0.144539 -3.0104e-20)
(-0.288424 0.154716 -5.88347e-20)
(-0.32693 0.1644 5.74844e-20)
(-0.366759 0.173459 0)
(-0.40758 0.181722 5.48689e-20)
(-0.449071 0.189017 -2.68274e-20)
(-0.490935 0.195197 0)
(-0.532902 0.200158 5.12145e-20)
(-0.57474 0.203842 2.50486e-20)
(-0.616254 0.20624 -4.8992e-20)
(-0.657291 0.207387 -2.39775e-20)
(-0.697735 0.207357 0)
(-0.737505 0.206253 4.60084e-20)
(-0.77655 0.204198 4.51073e-20)
(-0.814842 0.201326 0)
(-0.852369 0.197776 4.34385e-20)
(-0.88913 0.193683 0)
(-0.925129 0.189173 4.19343e-20)
(-0.960369 0.184356 2.06308e-20)
(-0.994856 0.179323 0)
(-1.0286 0.17415 0)
(-1.06161 0.168899 0)
(-1.09389 0.163619 0)
(-1.12546 0.158349 0)
(-1.15632 0.153118 0)
(-1.18647 0.147947 3.71774e-20)
(-1.21593 0.14285 -5.50653e-20)
(-1.24467 0.137834 0)
(-1.27272 0.132905 0)
(-1.30005 0.128063 0)
(-1.32668 0.123305 8.20218e-23)
(-1.35258 0.118629 3.45269e-20)
(-1.37775 0.11403 6.81366e-20)
(-1.40219 0.109502 -6.73168e-20)
(-1.42588 0.10504 -3.32123e-20)
(-1.44881 0.10064 3.28969e-20)
(-1.47098 0.0962948 -8.22986e-23)
(-1.49236 0.0920011 3.2027e-20)
(-1.51294 0.0877547 0)
(-1.53272 0.0835521 3.12494e-20)
(-1.55168 0.0793905 -7.38429e-23)
(-1.5698 0.0752676 0)
(-1.58708 0.0711819 0)
(-1.6035 0.0671322 -2.96969e-20)
(-1.61905 0.0631179 0)
(-1.63372 0.0591389 0)
(-1.64749 0.0551954 2.84632e-20)
(-1.66036 0.0512879 5.6231e-20)
(-1.67231 0.047417 -2.77552e-20)
(-1.68333 0.0435838 0)
(-1.69343 0.0397894 2.69259e-20)
(-1.70258 0.0360348 0)
(-1.71079 0.0323216 2.60304e-20)
(-1.71805 0.0286511 2.56451e-20)
(-1.72437 0.0250255 -5.03889e-20)
(-1.72973 0.0214472 -2.47488e-20)
(-1.73415 0.0179202 0)
(-1.73762 0.0144501 4.77259e-20)
(-1.74017 0.0110452 0)
(-1.74181 0.00771686 6.88235e-20)
(-1.74253 0.00447808 4.49557e-20)
(-1.74234 0.00133932 4.39906e-20)
(-1.74121 -0.00170228 -4.30129e-20)
(-1.73911 -0.00467974 6.29993e-20)
(-1.73602 -0.00759881 0)
(-1.73194 -0.0104601 0)
(-1.72686 -0.0132639 -3.89828e-20)
(-1.72079 -0.0160102 -5.68533e-20)
(-1.71373 -0.0186987 0)
(-1.70568 -0.021329 1.78395e-20)
(-1.69664 -0.0239002 0)
(-1.68661 -0.0264116 -5.03924e-20)
(-1.67561 -0.0288626 1.7607e-22)
(-1.66363 -0.0312523 -1.86788e-22)
(-1.65069 -0.0335804 3.02976e-20)
(-1.63679 -0.0358462 0)
(-1.62193 -0.0380495 -2.80029e-20)
(-1.60613 -0.0401899 2.28069e-22)
(-1.58939 -0.0422673 0)
(-1.57172 -0.0442817 0)
(-1.55314 -0.0462329 0)
(-1.53365 -0.0481212 2.18109e-20)
(-1.51325 -0.0499465 0)
(-1.49197 -0.0517091 0)
(-1.46981 -0.0534091 0)
(-1.44679 -0.0550467 0)
(-1.42291 -0.056622 0)
(-1.39819 -0.0581353 1.46716e-20)
(-1.37265 -0.0595869 0)
(-1.34628 -0.060977 1.1817e-20)
(-1.31912 -0.0623058 1.05412e-20)
(-1.29116 -0.0635736 -9.2613e-21)
(-1.26243 -0.0647807 0)
(-1.23295 -0.0659273 -6.6922e-21)
(-1.20271 -0.0670135 0)
(-1.17176 -0.0680395 -4.11491e-21)
(-1.14008 -0.0690055 2.82485e-21)
(-1.10772 -0.0699116 5.36559e-21)
(-1.07467 -0.070758 0)
(-1.04097 -0.0715448 -2.34877e-21)
(-1.00662 -0.0722724 -1.54096e-21)
(-0.971657 -0.0729408 0)
(-0.936085 -0.07355 -8.98175e-21)
(-0.89993 -0.0741004 -1.15269e-20)
(-0.863212 -0.0745921 2.15018e-20)
(-0.825953 -0.0750254 0)
(-0.788174 -0.0754006 9.96313e-21)
(-0.749896 -0.0757179 1.12152e-20)
(-0.711143 -0.0759776 3.65482e-20)
(-0.671939 -0.0761802 0)
(-0.632306 -0.076326 0)
(-0.592268 -0.0764157 0)
(-0.551852 -0.0764498 1.65108e-20)
(-0.51108 -0.0764289 0)
(-0.469979 -0.0763536 0)
(-0.428575 -0.0762248 -2.08996e-20)
(-0.386893 -0.0760432 -2.20589e-20)
(-0.34496 -0.0758098 0)
(-0.302803 -0.0755253 0)
(-0.260448 -0.0751908 -5.09079e-20)
(-0.217922 -0.0748071 0)
(-0.175252 -0.0743751 5.5286e-20)
(-0.132466 -0.0738956 5.6622e-20)
(-0.0895908 -0.0733692 0)
(-0.0466544 -0.0727961 0)
(-0.00368428 -0.072177 -6.27802e-20)
(0.0392913 -0.0715118 -7.72235e-22)
(0.082245 -0.0708002 -7.58964e-22)
(0.125149 -0.0700423 0)
(0.167977 -0.0692403 -1.38598e-19)
(0.210706 -0.0684001 0)
(0.253318 -0.0675295 0)
(0.295805 -0.0666318 0)
(0.338148 -0.0657102 7.49549e-20)
(0.38032 -0.064773 0)
(0.422299 -0.0638259 -1.53457e-19)
(0.464062 -0.062871 -7.85233e-20)
(0.505592 -0.061909 0)
(0.546873 -0.0609405 -8.06819e-20)
(0.587891 -0.0599665 0)
(0.628634 -0.0589879 0)
(0.66909 -0.0580064 -2.49678e-19)
(0.709249 -0.0570234 1.67888e-19)
(0.749101 -0.0560408 0)
(0.788639 -0.0550603 1.71273e-19)
(0.827857 -0.0540839 -8.69313e-20)
(0.866749 -0.0531131 0)
(0.90531 -0.0521495 0)
(0.943538 -0.0511946 0)
(0.98143 -0.0502493 -2.681e-19)
(1.01899 -0.0493141 0)
(1.0562 -0.048389 -9.08309e-20)
(1.09308 -0.0474729 0)
(1.12961 -0.0465634 0)
(1.1658 -0.0456565 0)
(1.20163 -0.0447454 0)
(1.23709 -0.0438195 0)
(1.27215 -0.0428627 0)
(1.30678 -0.0418499 -1.87169e-19)
(1.34089 -0.0407418 0)
(1.3744 -0.0394754 -9.46024e-20)
(1.40714 -0.0379456 2.84136e-19)
(1.43886 -0.0359634 0)
(1.4691 -0.0331847 0)
(1.49743 -0.0288588 -1.91517e-19)
(1.52221 -0.0216583 -1.93267e-19)
(1.54552 -0.00781335 1.94714e-19)
(1.56027 0.0186687 1.97441e-19)
(-0.00771654 -0.0662862 -1.5417e-19)
(-0.0223001 -0.0303606 -1.37206e-19)
(-0.0407528 0.00472016 -7.99857e-20)
(-0.0606317 0.0357581 -3.60754e-20)
(-0.0819989 0.063853 0)
(-0.104643 0.0894627 6.40002e-20)
(-0.128636 0.112759 -3.07768e-20)
(-0.154144 0.133846 0)
(-0.181316 0.152888 -2.91155e-20)
(-0.210225 0.170131 0)
(-0.240838 0.185853 5.53914e-20)
(-0.273016 0.200289 0)
(-0.306538 0.213577 2.63976e-20)
(-0.341131 0.225752 5.15227e-20)
(-0.376504 0.23676 -5.02771e-20)
(-0.412373 0.2465 0)
(-0.448475 0.25486 -4.78761e-20)
(-0.484586 0.261742 0)
(-0.520517 0.267087 0)
(-0.556124 0.270878 -4.45396e-20)
(-0.5913 0.273144 0)
(-0.625978 0.273957 -6.40509e-23)
(-0.660118 0.273421 0)
(-0.693707 0.271667 0)
(-0.726748 0.26884 6.41001e-23)
(-0.759254 0.265093 -3.89716e-20)
(-0.791246 0.260577 -3.82458e-20)
(-0.822746 0.255438 -3.74446e-20)
(-0.853771 0.249811 0)
(-0.884335 0.243816 -7.21702e-20)
(-0.914447 0.237555 0)
(-0.944112 0.231116 -3.48436e-20)
(-0.973329 0.224569 0)
(-1.0021 0.217971 0)
(-1.03041 0.211367 3.31608e-20)
(-1.05826 0.20479 0)
(-1.08564 0.198265 -3.21557e-20)
(-1.11253 0.19181 -7.66217e-24)
(-1.13892 0.185434 6.24656e-20)
(-1.16479 0.179143 -6.15736e-20)
(-1.19014 0.172941 0)
(-1.21494 0.166824 0)
(-1.23917 0.160791 -2.95216e-20)
(-1.26282 0.154838 0)
(-1.28587 0.148957 -2.87984e-20)
(-1.3083 0.143146 2.84242e-20)
(-1.33009 0.137396 2.80563e-20)
(-1.35123 0.131704 0)
(-1.3717 0.126065 -2.73358e-20)
(-1.39147 0.120473 -2.69815e-20)
(-1.41054 0.114925 5.32032e-20)
(-1.42887 0.109419 -2.6281e-20)
(-1.44647 0.103952 -2.59334e-20)
(-1.4633 0.0985224 0)
(-1.47936 0.0931297 0)
(-1.49462 0.0877735 2.48941e-20)
(-1.50907 0.0824544 0)
(-1.52271 0.0771732 0)