/*--------------------------------*- C++ -*----------------------------------*\
| =========                 |                                                 |
| \\      /  F ield         | OpenFOAM: The Open Source CFD Toolbox           |
|  \\    /   O peration     | Version:  2412                                  |
|   \\  /    A nd           | Website:  www.openfoam.com                      |
|    \\/     M anipulation  |                                                 |
\*---------------------------------------------------------------------------*/
FoamFile
{
    version     2.0;
    format      ascii;
    arch        "LSB;label=32;scalar=64";
    class       volVectorField;
    location    "0.29";
    object      U_0_0_0;
}
// * * * * * * * * * * * * * * * * * * * * * * * * * * * * * * * * * * * * * //

dimensions      [0 1 -1 0 0 0 0];

internalField   nonuniform List<vector> 
800
(
(0.00206002 0 0)
(0.00618011 0 0)
(0.0103002 0 0)
(0.0144201 0 0)
(0.0185399 0 0)
(0.0226596 0 0)
(0.026779 0 0)
(0.0308982 0 0)
(0.0350172 0 0)
(0.0391358 0 0)
(0.043254 0 0)
(0.0473719 0 0)
(0.0514894 0 0)
(0.0556064 0 0)
(0.0597228 0 0)
(0.0638388 0 0)
(0.0679542 0 0)
(0.0720689 0 0)
(0.076183 0 0)
(0.0802965 0 0)
(0.0844092 0 0)
(0.0885211 0 0)
(0.0926322 0 0)
(0.0967425 0 0)
(0.100852 0 0)
(0.10496 0 0)
(0.109068 0 0)
(0.113175 0 0)
(0.11728 0 0)
(0.121385 0 0)
(0.125488 0 0)
(0.12959 0 0)
(0.133691 0 0)
(0.137791 0 0)
(0.14189 0 0)
(0.145987 0 0)
(0.150083 0 0)
(0.154178 0 0)
(0.158271 0 0)
(0.162363 0 0)
(0.166453 0 0)
(0.170542 0 0)
(0.174629 0 0)
(0.178715 0 0)
(0.182798 0 0)
(0.186881 0 0)
(0.190961 0 0)
(0.19504 0 0)
(0.199117 0 0)
(0.203192 0 0)
(0.207265 0 0)
(0.211337 0 0)
(0.215406 0 0)
(0.219474 0 0)
(0.223539 0 0)
(0.227602 0 0)
(0.231663 0 0)
(0.235722 0 0)
(0.239779 0 0)
(0.243834 0 0)
(0.247886 0 0)
(0.251936 0 0)
(0.255983 0 0)
(0.260029 0 0)
(0.264071 0 0)
(0.268111 0 0)
(0.272149 0 0)
(0.276184 0 0)
(0.280217 0 0)
(0.284247 0 0)
(0.288274 0 0)
(0.292298 0 0)
(0.29632 0 0)
(0.300338 0 0)
(0.304354 0 0)
(0.308367 0 0)
(0.312377 0 0)
(0.316384 0 0)
(0.320388 0 0)
(0.324389 0 0)
(0.328386 0 0)
(0.332381 0 0)
(0.336372 0 0)
(0.34036 0 0)
(0.344344 0 0)
(0.348326 0 0)
(0.352303 0 0)
(0.356278 0 0)
(0.360249 0 0)
(0.364216 0 0)
(0.368179 0 0)
(0.372139 0 0)
(0.376096 0 0)
(0.380048 0 0)
(0.383997 0 0)
(0.387942 0 0)
(0.391883 0 0)
(0.39582 0 0)
(0.399753 0 0)
(0.403682 0 0)
(0.407607 0 0)
(0.411528 0 0)
(0.415444 0 0)
(0.419356 0 0)
(0.423264 0 0)
(0.427168 0 0)
(0.431067 0 0)
(0.434962 0 0)
(0.438852 0 0)
(0.442738 0 0)
(0.446619 0 0)
(0.450496 0 0)
(0.454367 0 0)
(0.458234 0 0)
(0.462096 0 0)
(0.465954 0 0)
(0.469806 0 0)
(0.473653 0 0)
(0.477495 0 0)
(0.481332 0 0)
(0.485164 0 0)
(0.488991 0 0)
(0.492812 0 0)
(0.496628 0 0)
(0.500439 0 0)
(0.504244 0 0)
(0.508044 0 0)
(0.511838 0 0)
(0.515626 0 0)
(0.519409 0 0)
(0.523186 0 0)
(0.526957 0 0)
(0.530722 0 0)
(0.534481 0 0)
(0.538235 0 0)
(0.541982 0 0)
(0.545723 0 0)
(0.549457 0 0)
(0.553186 0 0)
(0.556908 0 0)
(0.560624 0 0)
(0.564333 0 0)
(0.568035 0 0)
(0.571731 0 0)
(0.575421 0 0)
(0.579103 0 0)
(0.582779 0 0)
(0.586448 0 0)
(0.59011 0 0)
(0.593764 0 0)
(0.597412 0 0)
(0.601053 0 0)
(0.604686 0 0)
(0.608312 0 0)
(0.61193 0 0)
(0.615541 0 0)
(0.619144 0 0)
(0.62274 0 0)
(0.626328 0 0)
(0.629908 0 0)
(0.63348 0 0)
(0.637044 0 0)
(0.6406 0 0)
(0.644148 0 0)
(0.647688 0 0)
(0.651219 0 0)
(0.654742 0 0)
(0.658257 0 0)
(0.661763 0 0)
(0.66526 0 0)
(0.668749 0 0)
(0.672228 0 0)
(0.675699 0 0)
(0.679161 0 0)
(0.682613 0 0)
(0.686056 0 0)
(0.689491 0 0)
(0.692915 0 0)
(0.69633 0 0)
(0.699736 0 0)
(0.703131 0 0)
(0.706517 0 0)
(0.709893 0 0)
(0.713259 0 0)
(0.716615 0 0)
(0.719961 0 0)
(0.723296 0 0)
(0.726621 0 0)
(0.729935 0 0)
(0.733239 0 0)
(0.736532 0 0)
(0.739814 0 0)
(0.743085 0 0)
(0.746345 0 0)
(0.749593 0 0)
(0.752831 0 0)
(0.756056 0 0)
(0.75927 0 0)
(0.762473 0 0)
(0.765663 0 0)
(0.768842 0 0)
(0.772008 0 0)
(0.775163 0 0)
(0.778304 0 0)
(0.781434 0 0)
(0.78455 0 0)
(0.787654 0 0)
(0.790745 0 0)
(0.793823 0 0)
(0.796888 0 0)
(0.799939 0 0)
(0.802977 0 0)
(0.806001 0 0)
(0.809011 0 0)
(0.812008 0 0)
(0.81499 0 0)
(0.817958 0 0)
(0.820912 0 0)
(0.823851 0 0)
(0.826775 0 0)
(0.829684 0 0)
(0.832578 0 0)
(0.835457 0 0)
(0.838321 0 0)
(0.841168 0 0)
(0.844 0 0)
(0.846816 0 0)
(0.849616 0 0)
(0.8524 0 0)
(0.855167 0 0)
(0.857917 0 0)
(0.86065 0 0)
(0.863366 0 0)
(0.866065 0 0)
(0.868746 0 0)
(0.871409 0 0)
(0.874054 0 0)
(0.876682 0 0)
(0.87929 0 0)
(0.88188 0 0)
(0.884451 0 0)
(0.887003 0 0)
(0.889536 0 0)
(0.892049 0 0)
(0.894542 0 0)
(0.897015 0 0)
(0.899468 0 0)
(0.9019 0 0)
(0.904312 0 0)
(0.906702 0 0)
(0.90907 0 0)
(0.911417 0 0)
(0.913742 0 0)
(0.916045 0 0)
(0.918325 0 0)
(0.920583 0 0)
(0.922817 0 0)
(0.925027 0 0)
(0.927214 0 0)
(0.929377 0 0)
(0.931515 0 0)
(0.933629 0 0)
(0.935717 0 0)
(0.93778 0 0)
(0.939817 0 0)
(0.941828 0 0)
(0.943812 0 0)
(0.945769 0 0)
(0.947699 0 0)
(0.949602 0 0)
(0.951476 0 0)
(0.953321 0 0)
(0.955138 0 0)
(0.956925 0 0)
(0.958682 0 0)
(0.960409 0 0)
(0.962106 0 0)
(0.963771 0 0)
(0.965404 0 0)
(0.967005 0 0)
(0.968574 0 0)
(0.970109 0 0)
(0.971611 0 0)
(0.973078 0 0)
(0.97451 0 0)
(0.975907 0 0)
(0.977268 0 0)
(0.978593 0 0)
(0.97988 0 0)
(0.98113 0 0)
(0.982341 0 0)
(0.983513 0 0)
(0.984645 0 0)
(0.985736 0 0)
(0.986787 0 0)
(0.987796 0 0)
(0.988762 0 0)
(0.989684 0 0)
(0.990563 0 0)
(0.991396 0 0)
(0.992184 0 0)
(0.992925 0 0)
(0.993618 0 0)
(0.994263 0 0)
(0.994858 0 0)
(0.995403 0 0)
(0.995897 0 0)
(0.996338 0 0)
(0.996726 0 0)
(0.997059 0 0)
(0.997337 0 0)
(0.997558 0 0)
(0.997721 0 0)
(0.997825 0 0)
(0.997868 0 0)
(0.99785 0 0)
(0.997768 0 0)
(0.997622 0 0)
(0.99741 0 0)
(0.997131 0 0)
(0.996782 0 0)
(0.996363 0 0)
(0.995872 0 0)
(0.995307 0 0)
(0.994665 0 0)
(0.993947 0 0)
(0.993148 0 0)
(0.992269 0 0)
(0.991305 0 0)
(0.990256 0 0)
(0.989118 0 0)
(0.987891 0 0)
(0.98657 0 0)
(0.985154 0 0)
(0.98364 0 0)
(0.982025 0 0)
(0.980307 0 0)
(0.978481 0 0)
(0.976546 0 0)
(0.974498 0 0)
(0.972333 0 0)
(0.970048 0 0)
(0.967638 0 0)
(0.965101 0 0)
(0.962431 0 0)
(0.959625 0 0)
(0.956677 0 0)
(0.953583 0 0)
(0.950337 0 0)
(0.946934 0 0)
(0.943369 0 0)
(0.939635 0 0)
(0.935725 0 0)
(0.931633 0 0)
(0.927352 0 0)
(0.922873 0 0)
(0.918189 0 0)
(0.91329 0 0)
(0.908168 0 0)
(0.902811 0 0)
(0.897209 0 0)
(0.891351 0 0)
(0.885224 0 0)
(0.878814 0 0)
(0.872108 0 0)
(0.865088 0 0)
(0.857739 0 0)
(0.850041 0 0)
(0.841974 0 0)
(0.833516 0 0)
(0.824643 0 0)
(0.815328 0 0)
(0.805542 0 0)
(0.795252 0 0)
(0.784422 0 0)
(0.773012 0 0)
(0.760978 0 0)
(0.748268 0 0)
(0.734825 0 0)
(0.720587 0 0)
(0.705478 0 0)
(0.689417 0 0)
(0.672306 0 0)
(0.654035 0 0)
(0.634476 0 0)
(0.613479 0 0)
(0.590869 0 0)
(0.566444 0 0)
(0.539965 0 0)
(0.511157 0 0)
(0.479705 0 0)
(0.445254 0 0)
(0.407426 0 0)
(0.365838 0 0)
(0.320156 0 0)
(0.270165 0 0)
(0.215864 0 0)
(0.157571 0 0)
(0.0959984 0 0)
(0.0322556 0 0)
(-0.0322478 0 0)
(-0.0959894 0 0)
(-0.15756 0 0)
(-0.21585 0 0)
(-0.270148 0 0)
(-0.320137 0 0)
(-0.365817 0 0)
(-0.407403 0 0)
(-0.445231 0 0)
(-0.479681 0 0)
(-0.511134 0 0)
(-0.539942 0 0)
(-0.566421 0 0)
(-0.590847 0 0)
(-0.613457 0 0)
(-0.634455 0 0)
(-0.654016 0 0)
(-0.672287 0 0)
(-0.689399 0 0)
(-0.705462 0 0)
(-0.720571 0 0)
(-0.73481 0 0)
(-0.748253 0 0)
(-0.760964 0 0)
(-0.773 0 0)
(-0.78441 0 0)
(-0.795241 0 0)
(-0.805531 0 0)
(-0.815318 0 0)
(-0.824633 0 0)
(-0.833507 0 0)
(-0.841965 0 0)
(-0.850033 0 0)
(-0.857731 0 0)
(-0.865081 0 0)
(-0.872101 0 0)
(-0.878808 0 0)
(-0.885218 0 0)
(-0.891346 0 0)
(-0.897204 0 0)
(-0.902806 0 0)
(-0.908163 0 0)
(-0.913286 0 0)
(-0.918185 0 0)
(-0.92287 0 0)
(-0.927349 0 0)
(-0.93163 0 0)
(-0.935722 0 0)
(-0.939632 0 0)
(-0.943366 0 0)
(-0.946932 0 0)
(-0.950335 0 0)
(-0.953581 0 0)
(-0.956675 0 0)
(-0.959623 0 0)
(-0.96243 0 0)
(-0.965099 0 0)
(-0.967637 0 0)
(-0.970047 0 0)
(-0.972332 0 0)
(-0.974497 0 0)
(-0.976545 0 0)
(-0.978481 0 0)
(-0.980306 0 0)
(-0.982024 0 0)
(-0.983639 0 0)
(-0.985153 0 0)
(-0.986569 0 0)
(-0.98789 0 0)
(-0.989118 0 0)
(-0.990255 0 0)
(-0.991305 0 0)
(-0.992268 0 0)
(-0.993148 0 0)
(-0.993947 0 0)
(-0.994665 0 0)
(-0.995306 0 0)
(-0.995872 0 0)
(-0.996363 0 0)
(-0.996782 0 0)
(-0.997131 0 0)
(-0.99741 0 0)
(-0.997622 0 0)
(-0.997768 0 0)
(-0.99785 0 0)
(-0.997868 0 0)
(-0.997825 0 0)
(-0.997721 0 0)
(-0.997558 0 0)
(-0.997337 0 0)
(-0.997059 0 0)
(-0.996726 0 0)
(-0.996338 0 0)
(-0.995897 0 0)
(-0.995403 0 0)
(-0.994858 0 0)
(-0.994263 0 0)
(-0.993618 0 0)
(-0.992924 0 0)
(-0.992184 0 0)
(-0.991396 0 0)
(-0.990563 0 0)
(-0.989684 0 0)
(-0.988761 0 0)
(-0.987795 0 0)
(-0.986787 0 0)
(-0.985736 0 0)
(-0.984644 0 0)
(-0.983512 0 0)
(-0.98234 0 0)
(-0.981129 0 0)
(-0.97988 0 0)
(-0.978592 0 0)
(-0.977268 0 0)
(-0.975907 0 0)
(-0.97451 0 0)
(-0.973077 0 0)
(-0.97161 0 0)
(-0.970108 0 0)
(-0.968573 0 0)
(-0.967005 0 0)
(-0.965404 0 0)
(-0.96377 0 0)
(-0.962105 0 0)
(-0.960409 0 0)
(-0.958682 0 0)
(-0.956924 0 0)
(-0.955137 0 0)
(-0.95332 0 0)
(-0.951475 0 0)
(-0.949601 0 0)
(-0.947699 0 0)
(-0.945769 0 0)
(-0.943811 0 0)
(-0.941827 0 0)
(-0.939816 0 0)
(-0.937779 0 0)
(-0.935716 0 0)
(-0.933628 0 0)
(-0.931514 0 0)
(-0.929376 0 0)
(-0.927213 0 0)
(-0.925026 0 0)
(-0.922815 0 0)
(-0.920581 0 0)
(-0.918324 0 0)
(-0.916044 0 0)
(-0.913741 0 0)
(-0.911416 0 0)
(-0.909069 0 0)
(-0.9067 0 0)
(-0.90431 0 0)
(-0.901899 0 0)
(-0.899467 0 0)
(-0.897014 0 0)
(-0.894541 0 0)
(-0.892048 0 0)
(-0.889535 0 0)
(-0.887002 0 0)
(-0.88445 0 0)
(-0.881879 0 0)
(-0.879289 0 0)
(-0.87668 0 0)
(-0.874053 0 0)
(-0.871407 0 0)
(-0.868744 0 0)
(-0.866063 0 0)
(-0.863364 0 0)
(-0.860648 0 0)
(-0.857915 0 0)
(-0.855165 0 0)
(-0.852398 0 0)
(-0.849615 0 0)
(-0.846815 0 0)
(-0.843999 0 0)
(-0.841167 0 0)
(-0.838319 0 0)
(-0.835455 0 0)
(-0.832576 0 0)
(-0.829682 0 0)
(-0.826773 0 0)
(-0.823849 0 0)
(-0.82091 0 0)
(-0.817956 0 0)
(-0.814988 0 0)
(-0.812006 0 0)
(-0.80901 0 0)
(-0.805999 0 0)
(-0.802975 0 0)
(-0.799937 0 0)
(-0.796886 0 0)
(-0.793821 0 0)
(-0.790743 0 0)
(-0.787652 0 0)
(-0.784549 0 0)
(-0.781432 0 0)
(-0.778303 0 0)
(-0.775161 0 0)
(-0.772007 0 0)
(-0.76884 0 0)
(-0.765661 0 0)
(-0.762471 0 0)
(-0.759269 0 0)
(-0.756054 0 0)
(-0.752829 0 0)
(-0.749591 0 0)
(-0.746343 0 0)
(-0.743083 0 0)
(-0.739812 0 0)
(-0.73653 0 0)
(-0.733237 0 0)
(-0.729934 0 0)
(-0.726619 0 0)
(-0.723294 0 0)
(-0.719959 0 0)
(-0.716613 0 0)
(-0.713258 0 0)
(-0.709892 0 0)
(-0.706516 0 0)
(-0.70313 0 0)
(-0.699734 0 0)
(-0.696328 0 0)
(-0.692913 0 0)
(-0.689489 0 0)
(-0.686055 0 0)
(-0.682611 0 0)
(-0.679159 0 0)
(-0.675697 0 0)
(-0.672226 0 0)
(-0.668747 0 0)
(-0.665258 0 0)
(-0.661761 0 0)
(-0.658255 0 0)
(-0.654741 0 0)
(-0.651218 0 0)
(-0.647686 0 0)
(-0.644146 0 0)
(-0.640598 0 0)
(-0.637042 0 0)
(-0.633478 0 0)
(-0.629906 0 0)
(-0.626326 0 0)
(-0.622738 0 0)
(-0.619142 0 0)
(-0.615539 0 0)
(-0.611928 0 0)
(-0.60831 0 0)
(-0.604684 0 0)
(-0.601051 0 0)
(-0.59741 0 0)
(-0.593763 0 0)
(-0.590108 0 0)
(-0.586446 0 0)
(-0.582777 0 0)
(-0.579102 0 0)
(-0.575419 0 0)
(-0.57173 0 0)
(-0.568034 0 0)
(-0.564331 0 0)
(-0.560622 0 0)
(-0.556906 0 0)
(-0.553184 0 0)
(-0.549456 0 0)
(-0.545721 0 0)
(-0.54198 0 0)
(-0.538233 0 0)
(-0.53448 0 0)
(-0.530721 0 0)
(-0.526956 0 0)
(-0.523185 0 0)
(-0.519408 0 0)
(-0.515625 0 0)
(-0.511837 0 0)
(-0.508043 0 0)
(-0.504243 0 0)
(-0.500438 0 0)
(-0.496627 0 0)
(-0.492811 0 0)
(-0.48899 0 0)
(-0.485163 0 0)
(-0.481331 0 0)
(-0.477494 0 0)
(-0.473652 0 0)
(-0.469805 0 0)
(-0.465952 0 0)
(-0.462095 0 0)
(-0.458233 0 0)
(-0.454366 0 0)
(-0.450495 0 0)
(-0.446618 0 0)
(-0.442737 0 0)
(-0.438851 0 0)
(-0.434961 0 0)
(-0.431066 0 0)
(-0.427167 0 0)
(-0.423264 0 0)
(-0.419356 0 0)
(-0.415443 0 0)
(-0.411527 0 0)
(-0.407606 0 0)
(-0.403681 0 0)
(-0.399752 0 0)
(-0.395819 0 0)
(-0.391882 0 0)
(-0.387941 0 0)
(-0.383996 0 0)
(-0.380048 0 0)
(-0.376095 0 0)
(-0.372139 0 0)
(-0.368179 0 0)
(-0.364215 0 0)
(-0.360248 0 0)
(-0.356277 0 0)
(-0.352303 0 0)
(-0.348325 0 0)
(-0.344344 0 0)
(-0.340359 0 0)
(-0.336371 0 0)
(-0.33238 0 0)
(-0.328386 0 0)
(-0.324388 0 0)
(-0.320387 0 0)
(-0.316383 0 0)
(-0.312376 0 0)
(-0.308367 0 0)
(-0.304354 0 0)
(-0.300338 0 0)
(-0.296319 0 0)
(-0.292297 0 0)
(-0.288273 0 0)
(-0.284246 0 0)
(-0.280216 0 0)
(-0.276184 0 0)
(-0.272149 0 0)
(-0.268111 0 0)
(-0.264071 0 0)
(-0.260028 0 0)
(-0.255983 0 0)
(-0.251935 0 0)
(-0.247886 0 0)
(-0.243833 0 0)
(-0.239779 0 0)
(-0.235722 0 0)
(-0.231663 0 0)
(-0.227602 0 0)
(-0.223539 0 0)
(-0.219473 0 0)
(-0.215406 0 0)
(-0.211337 0 0)
(-0.207265 0 0)
(-0.203192 0 0)
(-0.199117 0 0)
(-0.19504 0 0)
(-0.190961 0 0)
(-0.186881 0 0)
(-0.182798 0 0)
(-0.178714 0 0)
(-0.174629 0 0)
(-0.170542 0 0)
(-0.166453 0 0)
(-0.162363 0 0)
(-0.158271 0 0)
(-0.154178 0 0)
(-0.150083 0 0)
(-0.145987 0 0)
(-0.14189 0 0)
(-0.137791 0 0)
(-0.133691 0 0)
(-0.12959 0 0)
(-0.125488 0 0)
(-0.121385 0 0)
(-0.11728 0 0)
(-0.113175 0 0)
(-0.109068 0 0)
(-0.10496 0 0)
(-0.100852 0 0)
(-0.0967425 0 0)
(-0.0926322 0 0)
(-0.0885211 0 0)
(-0.0844091 0 0)
(-0.0802964 0 0)
(-0.076183 0 0)
(-0.0720689 0 0)
(-0.0679541 0 0)
(-0.0638388 0 0)
(-0.0597228 0 0)
(-0.0556063 0 0)
(-0.0514894 0 0)
(-0.0473719 0 0)
(-0.043254 0 0)
(-0.0391358 0 0)
(-0.0350172 0 0)
(-0.0308982 0 0)
(-0.026779 0 0)
(-0.0226596 0 0)
(-0.0185399 0 0)
(-0.0144201 0 0)
(-0.0103002 0 0)
(-0.00618015 0 0)
(-0.00206006 0 0)
)
;

boundaryField
{
    left
    {
        type            fixedValue;
        value           uniform (0 0 0);
    }
    right
    {
        type            fixedValue;
        value           uniform (0 0 0);
    }
    frontBackUpDown
    {
        type            empty;
    }
}


// ************************************************************************* //
