/*--------------------------------*- C++ -*----------------------------------*\
| =========                 |                                                 |
| \\      /  F ield         | OpenFOAM: The Open Source CFD Toolbox           |
|  \\    /   O peration     | Version:  2412                                  |
|   \\  /    A nd           | Website:  www.openfoam.com                      |
|    \\/     M anipulation  |                                                 |
\*---------------------------------------------------------------------------*/
FoamFile
{
    version     2.0;
    format      ascii;
    arch        "LSB;label=32;scalar=64";
    class       volVectorField;
    location    "0.29";
    object      U_0_0;
}
// * * * * * * * * * * * * * * * * * * * * * * * * * * * * * * * * * * * * * //

dimensions      [0 1 -1 0 0 0 0];

internalField   nonuniform List<vector> 
800
(
(0.00205833 0 0)
(0.00617503 0 0)
(0.0102917 0 0)
(0.0144082 0 0)
(0.0185247 0 0)
(0.0226409 0 0)
(0.026757 0 0)
(0.0308728 0 0)
(0.0349884 0 0)
(0.0391036 0 0)
(0.0432185 0 0)
(0.047333 0 0)
(0.0514471 0 0)
(0.0555607 0 0)
(0.0596738 0 0)
(0.0637863 0 0)
(0.0678983 0 0)
(0.0720097 0 0)
(0.0761205 0 0)
(0.0802305 0 0)
(0.0843399 0 0)
(0.0884485 0 0)
(0.0925562 0 0)
(0.0966632 0 0)
(0.100769 0 0)
(0.104874 0 0)
(0.108979 0 0)
(0.113082 0 0)
(0.117184 0 0)
(0.121285 0 0)
(0.125385 0 0)
(0.129484 0 0)
(0.133582 0 0)
(0.137678 0 0)
(0.141774 0 0)
(0.145868 0 0)
(0.14996 0 0)
(0.154052 0 0)
(0.158142 0 0)
(0.16223 0 0)
(0.166317 0 0)
(0.170403 0 0)
(0.174486 0 0)
(0.178569 0 0)
(0.182649 0 0)
(0.186728 0 0)
(0.190806 0 0)
(0.194881 0 0)
(0.198955 0 0)
(0.203027 0 0)
(0.207097 0 0)
(0.211165 0 0)
(0.215231 0 0)
(0.219295 0 0)
(0.223358 0 0)
(0.227418 0 0)
(0.231476 0 0)
(0.235531 0 0)
(0.239585 0 0)
(0.243636 0 0)
(0.247685 0 0)
(0.251732 0 0)
(0.255777 0 0)
(0.259819 0 0)
(0.263858 0 0)
(0.267895 0 0)
(0.27193 0 0)
(0.275962 0 0)
(0.279991 0 0)
(0.284018 0 0)
(0.288042 0 0)
(0.292063 0 0)
(0.296082 0 0)
(0.300097 0 0)
(0.30411 0 0)
(0.30812 0 0)
(0.312127 0 0)
(0.316131 0 0)
(0.320132 0 0)
(0.32413 0 0)
(0.328124 0 0)
(0.332116 0 0)
(0.336104 0 0)
(0.340089 0 0)
(0.344071 0 0)
(0.348049 0 0)
(0.352024 0 0)
(0.355995 0 0)
(0.359963 0 0)
(0.363927 0 0)
(0.367888 0 0)
(0.371845 0 0)
(0.375799 0 0)
(0.379748 0 0)
(0.383694 0 0)
(0.387636 0 0)
(0.391575 0 0)
(0.395509 0 0)
(0.399439 0 0)
(0.403365 0 0)
(0.407288 0 0)
(0.411206 0 0)
(0.415119 0 0)
(0.419029 0 0)
(0.422934 0 0)
(0.426835 0 0)
(0.430732 0 0)
(0.434624 0 0)
(0.438512 0 0)
(0.442395 0 0)
(0.446273 0 0)
(0.450147 0 0)
(0.454016 0 0)
(0.457881 0 0)
(0.46174 0 0)
(0.465595 0 0)
(0.469445 0 0)
(0.473289 0 0)
(0.477129 0 0)
(0.480964 0 0)
(0.484793 0 0)
(0.488617 0 0)
(0.492436 0 0)
(0.49625 0 0)
(0.500058 0 0)
(0.503861 0 0)
(0.507659 0 0)
(0.51145 0 0)
(0.515236 0 0)
(0.519017 0 0)
(0.522791 0 0)
(0.52656 0 0)
(0.530323 0 0)
(0.53408 0 0)
(0.537831 0 0)
(0.541576 0 0)
(0.545315 0 0)
(0.549048 0 0)
(0.552774 0 0)
(0.556494 0 0)
(0.560208 0 0)
(0.563915 0 0)
(0.567616 0 0)
(0.57131 0 0)
(0.574997 0 0)
(0.578678 0 0)
(0.582352 0 0)
(0.586018 0 0)
(0.589678 0 0)
(0.593331 0 0)
(0.596977 0 0)
(0.600616 0 0)
(0.604247 0 0)
(0.607871 0 0)
(0.611488 0 0)
(0.615097 0 0)
(0.618699 0 0)
(0.622293 0 0)
(0.625879 0 0)
(0.629458 0 0)
(0.633028 0 0)
(0.636591 0 0)
(0.640146 0 0)
(0.643692 0 0)
(0.64723 0 0)
(0.65076 0 0)
(0.654282 0 0)
(0.657795 0 0)
(0.6613 0 0)
(0.664796 0 0)
(0.668283 0 0)
(0.671761 0 0)
(0.675231 0 0)
(0.678691 0 0)
(0.682143 0 0)
(0.685585 0 0)
(0.689018 0 0)
(0.692442 0 0)
(0.695856 0 0)
(0.69926 0 0)
(0.702655 0 0)
(0.70604 0 0)
(0.709415 0 0)
(0.71278 0 0)
(0.716135 0 0)
(0.71948 0 0)
(0.722815 0 0)
(0.726139 0 0)
(0.729453 0 0)
(0.732756 0 0)
(0.736048 0 0)
(0.739329 0 0)
(0.7426 0 0)
(0.745859 0 0)
(0.749107 0 0)
(0.752344 0 0)
(0.75557 0 0)
(0.758783 0 0)
(0.761986 0 0)
(0.765176 0 0)
(0.768354 0 0)
(0.771521 0 0)
(0.774675 0 0)
(0.777816 0 0)
(0.780946 0 0)
(0.784062 0 0)
(0.787166 0 0)
(0.790257 0 0)
(0.793336 0 0)
(0.7964 0 0)
(0.799452 0 0)
(0.80249 0 0)
(0.805515 0 0)
(0.808525 0 0)
(0.811522 0 0)
(0.814505 0 0)
(0.817474 0 0)
(0.820428 0 0)
(0.823367 0 0)
(0.826292 0 0)
(0.829202 0 0)
(0.832097 0 0)
(0.834977 0 0)
(0.837842 0 0)
(0.84069 0 0)
(0.843523 0 0)
(0.846341 0 0)
(0.849142 0 0)
(0.851926 0 0)
(0.854694 0 0)
(0.857446 0 0)
(0.860181 0 0)
(0.862898 0 0)
(0.865598 0 0)
(0.868281 0 0)
(0.870946 0 0)
(0.873593 0 0)
(0.876222 0 0)
(0.878833 0 0)
(0.881425 0 0)
(0.883998 0 0)
(0.886552 0 0)
(0.889087 0 0)
(0.891602 0 0)
(0.894097 0 0)
(0.896573 0 0)
(0.899028 0 0)
(0.901463 0 0)
(0.903877 0 0)
(0.906269 0 0)
(0.908641 0 0)
(0.910991 0 0)
(0.913319 0 0)
(0.915624 0 0)
(0.917908 0 0)
(0.920168 0 0)
(0.922405 0 0)
(0.92462 0 0)
(0.92681 0 0)
(0.928976 0 0)
(0.931118 0 0)
(0.933235 0 0)
(0.935327 0 0)
(0.937394 0 0)
(0.939435 0 0)
(0.94145 0 0)
(0.943439 0 0)
(0.9454 0 0)
(0.947335 0 0)
(0.949242 0 0)
(0.95112 0 0)
(0.952971 0 0)
(0.954792 0 0)
(0.956584 0 0)
(0.958347 0 0)
(0.960079 0 0)
(0.96178 0 0)
(0.963451 0 0)
(0.96509 0 0)
(0.966697 0 0)
(0.968271 0 0)
(0.969812 0 0)
(0.97132 0 0)
(0.972793 0 0)
(0.974232 0 0)
(0.975636 0 0)
(0.977003 0 0)
(0.978335 0 0)
(0.979629 0 0)
(0.980886 0 0)
(0.982104 0 0)
(0.983283 0 0)
(0.984423 0 0)
(0.985522 0 0)
(0.986581 0 0)
(0.987598 0 0)
(0.988572 0 0)
(0.989503 0 0)
(0.99039 0 0)
(0.991232 0 0)
(0.992029 0 0)
(0.992779 0 0)
(0.993481 0 0)
(0.994136 0 0)
(0.994741 0 0)
(0.995296 0 0)
(0.9958 0 0)
(0.996251 0 0)
(0.99665 0 0)
(0.996994 0 0)
(0.997283 0 0)
(0.997515 0 0)
(0.99769 0 0)
(0.997805 0 0)
(0.997861 0 0)
(0.997855 0 0)
(0.997786 0 0)
(0.997653 0 0)
(0.997454 0 0)
(0.997188 0 0)
(0.996853 0 0)
(0.996448 0 0)
(0.995971 0 0)
(0.99542 0 0)
(0.994794 0 0)
(0.994091 0 0)
(0.993308 0 0)
(0.992444 0 0)
(0.991497 0 0)
(0.990465 0 0)
(0.989345 0 0)
(0.988134 0 0)
(0.986832 0 0)
(0.985434 0 0)
(0.983939 0 0)
(0.982344 0 0)
(0.980645 0 0)
(0.97884 0 0)
(0.976926 0 0)
(0.974898 0 0)
(0.972755 0 0)
(0.970492 0 0)
(0.968106 0 0)
(0.965592 0 0)
(0.962946 0 0)
(0.960165 0 0)
(0.957242 0 0)
(0.954174 0 0)
(0.950955 0 0)
(0.94758 0 0)
(0.944043 0 0)
(0.940338 0 0)
(0.936458 0 0)
(0.932397 0 0)
(0.928147 0 0)
(0.923701 0 0)
(0.91905 0 0)
(0.914186 0 0)
(0.909099 0 0)
(0.903779 0 0)
(0.898215 0 0)
(0.892396 0 0)
(0.886309 0 0)
(0.879941 0 0)
(0.873277 0 0)
(0.866302 0 0)
(0.858999 0 0)
(0.851349 0 0)
(0.843331 0 0)
(0.834924 0 0)
(0.826104 0 0)
(0.816845 0 0)
(0.807115 0 0)
(0.796885 0 0)
(0.786117 0 0)
(0.774771 0 0)
(0.762802 0 0)
(0.750161 0 0)
(0.736791 0 0)
(0.722627 0 0)
(0.707596 0 0)
(0.691614 0 0)
(0.674586 0 0)
(0.6564 0 0)
(0.636927 0 0)
(0.616017 0 0)
(0.593494 0 0)
(0.569153 0 0)
(0.542753 0 0)
(0.514014 0 0)
(0.482613 0 0)
(0.448187 0 0)
(0.410343 0 0)
(0.368684 0 0)
(0.322853 0 0)
(0.272615 0 0)
(0.217953 0 0)
(0.159179 0 0)
(0.0970151 0 0)
(0.0326039 0 0)
(-0.0325959 0 0)
(-0.0970059 0 0)
(-0.159167 0 0)
(-0.217939 0 0)
(-0.272598 0 0)
(-0.322834 0 0)
(-0.368662 0 0)
(-0.41032 0 0)
(-0.448164 0 0)
(-0.482589 0 0)
(-0.51399 0 0)
(-0.54273 0 0)
(-0.569131 0 0)
(-0.593472 0 0)
(-0.615995 0 0)
(-0.636906 0 0)
(-0.65638 0 0)
(-0.674567 0 0)
(-0.691596 0 0)
(-0.707579 0 0)
(-0.722611 0 0)
(-0.736776 0 0)
(-0.750147 0 0)
(-0.762789 0 0)
(-0.774758 0 0)
(-0.786104 0 0)
(-0.796873 0 0)
(-0.807105 0 0)
(-0.816834 0 0)
(-0.826095 0 0)
(-0.834915 0 0)
(-0.843323 0 0)
(-0.851341 0 0)
(-0.858991 0 0)
(-0.866295 0 0)
(-0.873271 0 0)
(-0.879935 0 0)
(-0.886303 0 0)
(-0.89239 0 0)
(-0.89821 0 0)
(-0.903774 0 0)
(-0.909094 0 0)
(-0.914182 0 0)
(-0.919046 0 0)
(-0.923697 0 0)
(-0.928144 0 0)
(-0.932394 0 0)
(-0.936455 0 0)
(-0.940335 0 0)
(-0.94404 0 0)
(-0.947578 0 0)
(-0.950953 0 0)
(-0.954172 0 0)
(-0.95724 0 0)
(-0.960163 0 0)
(-0.962945 0 0)
(-0.965591 0 0)
(-0.968105 0 0)
(-0.970491 0 0)
(-0.972754 0 0)
(-0.974897 0 0)
(-0.976925 0 0)
(-0.978839 0 0)
(-0.980644 0 0)
(-0.982343 0 0)
(-0.983939 0 0)
(-0.985434 0 0)
(-0.986831 0 0)
(-0.988134 0 0)
(-0.989344 0 0)
(-0.990465 0 0)
(-0.991497 0 0)
(-0.992444 0 0)
(-0.993308 0 0)
(-0.994091 0 0)
(-0.994794 0 0)
(-0.99542 0 0)
(-0.995971 0 0)
(-0.996448 0 0)
(-0.996853 0 0)
(-0.997188 0 0)
(-0.997454 0 0)
(-0.997653 0 0)
(-0.997786 0 0)
(-0.997855 0 0)
(-0.997861 0 0)
(-0.997805 0 0)
(-0.99769 0 0)
(-0.997515 0 0)
(-0.997283 0 0)
(-0.996994 0 0)
(-0.99665 0 0)
(-0.996251 0 0)
(-0.9958 0 0)
(-0.995296 0 0)
(-0.994741 0 0)
(-0.994136 0 0)
(-0.993481 0 0)
(-0.992778 0 0)
(-0.992028 0 0)
(-0.991232 0 0)
(-0.99039 0 0)
(-0.989503 0 0)
(-0.988572 0 0)
(-0.987597 0 0)
(-0.986581 0 0)
(-0.985522 0 0)
(-0.984423 0 0)
(-0.983283 0 0)
(-0.982103 0 0)
(-0.980885 0 0)
(-0.979628 0 0)
(-0.978334 0 0)
(-0.977003 0 0)
(-0.975635 0 0)
(-0.974232 0 0)
(-0.972793 0 0)
(-0.971319 0 0)
(-0.969812 0 0)
(-0.96827 0 0)
(-0.966696 0 0)
(-0.965089 0 0)
(-0.96345 0 0)
(-0.96178 0 0)
(-0.960078 0 0)
(-0.958346 0 0)
(-0.956583 0 0)
(-0.954791 0 0)
(-0.95297 0 0)
(-0.951119 0 0)
(-0.949241 0 0)
(-0.947334 0 0)
(-0.945399 0 0)
(-0.943438 0 0)
(-0.941449 0 0)
(-0.939434 0 0)
(-0.937393 0 0)
(-0.935326 0 0)
(-0.933234 0 0)
(-0.931117 0 0)
(-0.928975 0 0)
(-0.926809 0 0)
(-0.924618 0 0)
(-0.922404 0 0)
(-0.920167 0 0)
(-0.917906 0 0)
(-0.915623 0 0)
(-0.913317 0 0)
(-0.910989 0 0)
(-0.908639 0 0)
(-0.906268 0 0)
(-0.903875 0 0)
(-0.901461 0 0)
(-0.899027 0 0)
(-0.896571 0 0)
(-0.894096 0 0)
(-0.8916 0 0)
(-0.889085 0 0)
(-0.88655 0 0)
(-0.883996 0 0)
(-0.881423 0 0)
(-0.878831 0 0)
(-0.87622 0 0)
(-0.873591 0 0)
(-0.870944 0 0)
(-0.868279 0 0)
(-0.865597 0 0)
(-0.862896 0 0)
(-0.860179 0 0)
(-0.857444 0 0)
(-0.854693 0 0)
(-0.851925 0 0)
(-0.84914 0 0)
(-0.846339 0 0)
(-0.843522 0 0)
(-0.840689 0 0)
(-0.83784 0 0)
(-0.834975 0 0)
(-0.832096 0 0)
(-0.829201 0 0)
(-0.826291 0 0)
(-0.823366 0 0)
(-0.820426 0 0)
(-0.817472 0 0)
(-0.814503 0 0)
(-0.81152 0 0)
(-0.808524 0 0)
(-0.805513 0 0)
(-0.802488 0 0)
(-0.79945 0 0)
(-0.796399 0 0)
(-0.793334 0 0)
(-0.790256 0 0)
(-0.787164 0 0)
(-0.784061 0 0)
(-0.780944 0 0)
(-0.777815 0 0)
(-0.774673 0 0)
(-0.771519 0 0)
(-0.768352 0 0)
(-0.765174 0 0)
(-0.761984 0 0)
(-0.758781 0 0)
(-0.755568 0 0)
(-0.752342 0 0)
(-0.749105 0 0)
(-0.745857 0 0)
(-0.742598 0 0)
(-0.739327 0 0)
(-0.736046 0 0)
(-0.732754 0 0)
(-0.729451 0 0)
(-0.726137 0 0)
(-0.722813 0 0)
(-0.719478 0 0)
(-0.716133 0 0)
(-0.712778 0 0)
(-0.709413 0 0)
(-0.706038 0 0)
(-0.702653 0 0)
(-0.699258 0 0)
(-0.695854 0 0)
(-0.69244 0 0)
(-0.689016 0 0)
(-0.685583 0 0)
(-0.682141 0 0)
(-0.67869 0 0)
(-0.675229 0 0)
(-0.67176 0 0)
(-0.668281 0 0)
(-0.664794 0 0)
(-0.661298 0 0)
(-0.657793 0 0)
(-0.65428 0 0)
(-0.650759 0 0)
(-0.647229 0 0)
(-0.64369 0 0)
(-0.640144 0 0)
(-0.636589 0 0)
(-0.633027 0 0)
(-0.629456 0 0)
(-0.625877 0 0)
(-0.622291 0 0)
(-0.618697 0 0)
(-0.615096 0 0)
(-0.611486 0 0)
(-0.60787 0 0)
(-0.604246 0 0)
(-0.600614 0 0)
(-0.596976 0 0)
(-0.59333 0 0)
(-0.589677 0 0)
(-0.586017 0 0)
(-0.58235 0 0)
(-0.578676 0 0)
(-0.574996 0 0)
(-0.571308 0 0)
(-0.567614 0 0)
(-0.563914 0 0)
(-0.560206 0 0)
(-0.556493 0 0)
(-0.552773 0 0)
(-0.549046 0 0)
(-0.545314 0 0)
(-0.541575 0 0)
(-0.53783 0 0)
(-0.534079 0 0)
(-0.530322 0 0)
(-0.526559 0 0)
(-0.52279 0 0)
(-0.519015 0 0)
(-0.515235 0 0)
(-0.511449 0 0)
(-0.507657 0 0)
(-0.50386 0 0)
(-0.500057 0 0)
(-0.496249 0 0)
(-0.492435 0 0)
(-0.488616 0 0)
(-0.484792 0 0)
(-0.480963 0 0)
(-0.477128 0 0)
(-0.473288 0 0)
(-0.469444 0 0)
(-0.465594 0 0)
(-0.461739 0 0)
(-0.45788 0 0)
(-0.454015 0 0)
(-0.450146 0 0)
(-0.446272 0 0)
(-0.442394 0 0)
(-0.438511 0 0)
(-0.434623 0 0)
(-0.430731 0 0)
(-0.426834 0 0)
(-0.422933 0 0)
(-0.419028 0 0)
(-0.415119 0 0)
(-0.411205 0 0)
(-0.407287 0 0)
(-0.403365 0 0)
(-0.399438 0 0)
(-0.395508 0 0)
(-0.391574 0 0)
(-0.387636 0 0)
(-0.383694 0 0)
(-0.379748 0 0)
(-0.375798 0 0)
(-0.371845 0 0)
(-0.367888 0 0)
(-0.363927 0 0)
(-0.359962 0 0)
(-0.355994 0 0)
(-0.352023 0 0)
(-0.348048 0 0)
(-0.34407 0 0)
(-0.340088 0 0)
(-0.336103 0 0)
(-0.332115 0 0)
(-0.328124 0 0)
(-0.324129 0 0)
(-0.320131 0 0)
(-0.31613 0 0)
(-0.312126 0 0)
(-0.30812 0 0)
(-0.30411 0 0)
(-0.300097 0 0)
(-0.296081 0 0)
(-0.292063 0 0)
(-0.288041 0 0)
(-0.284017 0 0)
(-0.279991 0 0)
(-0.275961 0 0)
(-0.271929 0 0)
(-0.267895 0 0)
(-0.263858 0 0)
(-0.259818 0 0)
(-0.255776 0 0)
(-0.251732 0 0)
(-0.247685 0 0)
(-0.243636 0 0)
(-0.239585 0 0)
(-0.235531 0 0)
(-0.231475 0 0)
(-0.227417 0 0)
(-0.223357 0 0)
(-0.219295 0 0)
(-0.215231 0 0)
(-0.211165 0 0)
(-0.207097 0 0)
(-0.203027 0 0)
(-0.198955 0 0)
(-0.194881 0 0)
(-0.190806 0 0)
(-0.186728 0 0)
(-0.182649 0 0)
(-0.178569 0 0)
(-0.174486 0 0)
(-0.170402 0 0)
(-0.166317 0 0)
(-0.16223 0 0)
(-0.158142 0 0)
(-0.154052 0 0)
(-0.14996 0 0)
(-0.145868 0 0)
(-0.141774 0 0)
(-0.137678 0 0)
(-0.133582 0 0)
(-0.129484 0 0)
(-0.125385 0 0)
(-0.121285 0 0)
(-0.117184 0 0)
(-0.113082 0 0)
(-0.108979 0 0)
(-0.104874 0 0)
(-0.100769 0 0)
(-0.0966631 0 0)
(-0.0925562 0 0)
(-0.0884484 0 0)
(-0.0843398 0 0)
(-0.0802305 0 0)
(-0.0761204 0 0)
(-0.0720097 0 0)
(-0.0678983 0 0)
(-0.0637863 0 0)
(-0.0596738 0 0)
(-0.0555607 0 0)
(-0.051447 0 0)
(-0.047333 0 0)
(-0.0432185 0 0)
(-0.0391036 0 0)
(-0.0349884 0 0)
(-0.0308728 0 0)
(-0.026757 0 0)
(-0.022641 0 0)
(-0.0185247 0 0)
(-0.0144083 0 0)
(-0.0102917 0 0)
(-0.00617507 0 0)
(-0.00205836 0 0)
)
;

boundaryField
{
    left
    {
        type            fixedValue;
        value           uniform (0 0 0);
    }
    right
    {
        type            fixedValue;
        value           uniform (0 0 0);
    }
    frontBackUpDown
    {
        type            empty;
    }
}


// ************************************************************************* //
