/*--------------------------------*- C++ -*----------------------------------*\
| =========                 |                                                 |
| \\      /  F ield         | OpenFOAM: The Open Source CFD Toolbox           |
|  \\    /   O peration     | Version:  2412                                  |
|   \\  /    A nd           | Website:  www.openfoam.com                      |
|    \\/     M anipulation  |                                                 |
\*---------------------------------------------------------------------------*/
FoamFile
{
    version     2.0;
    format      ascii;
    arch        "LSB;label=32;scalar=64";
    class       volVectorField;
    location    "0.14";
    object      U;
}
// * * * * * * * * * * * * * * * * * * * * * * * * * * * * * * * * * * * * * //

dimensions      [0 1 -1 0 0 0 0];

internalField   nonuniform List<vector> 
800
(
(0.00272686 0 0)
(0.00818064 0 0)
(0.0136343 0 0)
(0.0190876 0 0)
(0.0245405 0 0)
(0.029993 0 0)
(0.0354448 0 0)
(0.0408958 0 0)
(0.0463461 0 0)
(0.0517953 0 0)
(0.0572435 0 0)
(0.0626905 0 0)
(0.0681362 0 0)
(0.0735805 0 0)
(0.0790232 0 0)
(0.0844643 0 0)
(0.0899036 0 0)
(0.0953411 0 0)
(0.100777 0 0)
(0.10621 0 0)
(0.111641 0 0)
(0.11707 0 0)
(0.122496 0 0)
(0.12792 0 0)
(0.133341 0 0)
(0.13876 0 0)
(0.144175 0 0)
(0.149588 0 0)
(0.154997 0 0)
(0.160403 0 0)
(0.165806 0 0)
(0.171205 0 0)
(0.176601 0 0)
(0.181993 0 0)
(0.187381 0 0)
(0.192765 0 0)
(0.198145 0 0)
(0.203521 0 0)
(0.208893 0 0)
(0.21426 0 0)
(0.219622 0 0)
(0.22498 0 0)
(0.230334 0 0)
(0.235682 0 0)
(0.241025 0 0)
(0.246363 0 0)
(0.251696 0 0)
(0.257024 0 0)
(0.262346 0 0)
(0.267662 0 0)
(0.272973 0 0)
(0.278278 0 0)
(0.283577 0 0)
(0.28887 0 0)
(0.294156 0 0)
(0.299436 0 0)
(0.30471 0 0)
(0.309977 0 0)
(0.315237 0 0)
(0.320491 0 0)
(0.325737 0 0)
(0.330977 0 0)
(0.336209 0 0)
(0.341434 0 0)
(0.346651 0 0)
(0.351861 0 0)
(0.357063 0 0)
(0.362257 0 0)
(0.367444 0 0)
(0.372622 0 0)
(0.377791 0 0)
(0.382953 0 0)
(0.388106 0 0)
(0.39325 0 0)
(0.398386 0 0)
(0.403512 0 0)
(0.40863 0 0)
(0.413738 0 0)
(0.418837 0 0)
(0.423927 0 0)
(0.429006 0 0)
(0.434077 0 0)
(0.439137 0 0)
(0.444188 0 0)
(0.449228 0 0)
(0.454258 0 0)
(0.459277 0 0)
(0.464286 0 0)
(0.469285 0 0)
(0.474272 0 0)
(0.479248 0 0)
(0.484214 0 0)
(0.489168 0 0)
(0.49411 0 0)
(0.499042 0 0)
(0.503961 0 0)
(0.508868 0 0)
(0.513764 0 0)
(0.518647 0 0)
(0.523518 0 0)
(0.528377 0 0)
(0.533223 0 0)
(0.538056 0 0)
(0.542876 0 0)
(0.547683 0 0)
(0.552477 0 0)
(0.557258 0 0)
(0.562025 0 0)
(0.566778 0 0)
(0.571518 0 0)
(0.576243 0 0)
(0.580955 0 0)
(0.585651 0 0)
(0.590334 0 0)
(0.595002 0 0)
(0.599655 0 0)
(0.604293 0 0)
(0.608915 0 0)
(0.613523 0 0)
(0.618115 0 0)
(0.622691 0 0)
(0.627251 0 0)
(0.631796 0 0)
(0.636324 0 0)
(0.640836 0 0)
(0.645331 0 0)
(0.649809 0 0)
(0.654271 0 0)
(0.658716 0 0)
(0.663143 0 0)
(0.667553 0 0)
(0.671945 0 0)
(0.676319 0 0)
(0.680675 0 0)
(0.685013 0 0)
(0.689333 0 0)
(0.693634 0 0)
(0.697917 0 0)
(0.70218 0 0)
(0.706424 0 0)
(0.710649 0 0)
(0.714854 0 0)
(0.71904 0 0)
(0.723205 0 0)
(0.727351 0 0)
(0.731476 0 0)
(0.73558 0 0)
(0.739664 0 0)
(0.743726 0 0)
(0.747768 0 0)
(0.751788 0 0)
(0.755786 0 0)
(0.759762 0 0)
(0.763717 0 0)
(0.767649 0 0)
(0.771558 0 0)
(0.775445 0 0)
(0.779309 0 0)
(0.78315 0 0)
(0.786967 0 0)
(0.79076 0 0)
(0.79453 0 0)
(0.798275 0 0)
(0.801996 0 0)
(0.805692 0 0)
(0.809364 0 0)
(0.81301 0 0)
(0.816631 0 0)
(0.820227 0 0)
(0.823796 0 0)
(0.82734 0 0)
(0.830857 0 0)
(0.834347 0 0)
(0.83781 0 0)
(0.841247 0 0)
(0.844656 0 0)
(0.848037 0 0)
(0.85139 0 0)
(0.854715 0 0)
(0.858011 0 0)
(0.861279 0 0)
(0.864517 0 0)
(0.867727 0 0)
(0.870906 0 0)
(0.874056 0 0)
(0.877175 0 0)
(0.880264 0 0)
(0.883321 0 0)
(0.886348 0 0)
(0.889344 0 0)
(0.892307 0 0)
(0.895238 0 0)
(0.898138 0 0)
(0.901004 0 0)
(0.903837 0 0)
(0.906637 0 0)
(0.909404 0 0)
(0.912136 0 0)
(0.914834 0 0)
(0.917497 0 0)
(0.920125 0 0)
(0.922718 0 0)
(0.925275 0 0)
(0.927796 0 0)
(0.930281 0 0)
(0.932729 0 0)
(0.935139 0 0)
(0.937513 0 0)
(0.939848 0 0)
(0.942145 0 0)
(0.944403 0 0)
(0.946623 0 0)
(0.948802 0 0)
(0.950942 0 0)
(0.953042 0 0)
(0.955102 0 0)
(0.95712 0 0)
(0.959097 0 0)
(0.961032 0 0)
(0.962924 0 0)
(0.964774 0 0)
(0.966581 0 0)
(0.968344 0 0)
(0.970064 0 0)
(0.971739 0 0)
(0.973369 0 0)
(0.974954 0 0)
(0.976493 0 0)
(0.977985 0 0)
(0.979431 0 0)
(0.98083 0 0)
(0.982181 0 0)
(0.983484 0 0)
(0.984738 0 0)
(0.985944 0 0)
(0.987099 0 0)
(0.988205 0 0)
(0.989259 0 0)
(0.990263 0 0)
(0.991215 0 0)
(0.992114 0 0)
(0.992961 0 0)
(0.993755 0 0)
(0.994495 0 0)
(0.99518 0 0)
(0.99581 0 0)
(0.996385 0 0)
(0.996904 0 0)
(0.997366 0 0)
(0.99777 0 0)
(0.998117 0 0)
(0.998406 0 0)
(0.998635 0 0)
(0.998804 0 0)
(0.998913 0 0)
(0.998962 0 0)
(0.998948 0 0)
(0.998873 0 0)
(0.998734 0 0)
(0.998532 0 0)
(0.998266 0 0)
(0.997935 0 0)
(0.997538 0 0)
(0.997076 0 0)
(0.996546 0 0)
(0.995948 0 0)
(0.995282 0 0)
(0.994547 0 0)
(0.993743 0 0)
(0.992867 0 0)
(0.991921 0 0)
(0.990902 0 0)
(0.989811 0 0)
(0.988646 0 0)
(0.987407 0 0)
(0.986092 0 0)
(0.984702 0 0)
(0.983235 0 0)
(0.98169 0 0)
(0.980068 0 0)
(0.978366 0 0)
(0.976584 0 0)
(0.974721 0 0)
(0.972777 0 0)
(0.97075 0 0)
(0.968639 0 0)
(0.966445 0 0)
(0.964165 0 0)
(0.961799 0 0)
(0.959347 0 0)
(0.956806 0 0)
(0.954177 0 0)
(0.951458 0 0)
(0.948649 0 0)
(0.945748 0 0)
(0.942755 0 0)
(0.939669 0 0)
(0.936488 0 0)
(0.933212 0 0)
(0.92984 0 0)
(0.92637 0 0)
(0.922803 0 0)
(0.919136 0 0)
(0.91537 0 0)
(0.911502 0 0)
(0.907532 0 0)
(0.903459 0 0)
(0.899282 0 0)
(0.895001 0 0)
(0.890613 0 0)
(0.886118 0 0)
(0.881515 0 0)
(0.876803 0 0)
(0.871982 0 0)
(0.867049 0 0)
(0.862004 0 0)
(0.856847 0 0)
(0.851576 0 0)
(0.846189 0 0)
(0.840687 0 0)
(0.835068 0 0)
(0.829332 0 0)
(0.823476 0 0)
(0.817501 0 0)
(0.811406 0 0)
(0.805189 0 0)
(0.79885 0 0)
(0.792387 0 0)
(0.785801 0 0)
(0.779089 0 0)
(0.772252 0 0)
(0.765289 0 0)
(0.758198 0 0)
(0.750979 0 0)
(0.743632 0 0)
(0.736155 0 0)
(0.728548 0 0)
(0.72081 0 0)
(0.712942 0 0)
(0.704941 0 0)
(0.696808 0 0)
(0.688543 0 0)
(0.680144 0 0)
(0.671612 0 0)
(0.662947 0 0)
(0.654147 0 0)
(0.645213 0 0)
(0.636145 0 0)
(0.626942 0 0)
(0.617605 0 0)
(0.608133 0 0)
(0.598528 0 0)
(0.588788 0 0)
(0.578915 0 0)
(0.568909 0 0)
(0.558769 0 0)
(0.548498 0 0)
(0.538094 0 0)
(0.52756 0 0)
(0.516896 0 0)
(0.506102 0 0)
(0.495181 0 0)
(0.484132 0 0)
(0.472958 0 0)
(0.461659 0 0)
(0.450237 0 0)
(0.438694 0 0)
(0.427031 0 0)
(0.41525 0 0)
(0.403354 0 0)
(0.391343 0 0)
(0.379221 0 0)
(0.366989 0 0)
(0.35465 0 0)
(0.342207 0 0)
(0.329661 0 0)
(0.317017 0 0)
(0.304277 0 0)
(0.291443 0 0)
(0.27852 0 0)
(0.265509 0 0)
(0.252416 0 0)
(0.239243 0 0)
(0.225993 0 0)
(0.212671 0 0)
(0.199281 0 0)
(0.185825 0 0)
(0.172309 0 0)
(0.158737 0 0)
(0.145112 0 0)
(0.131439 0 0)
(0.117722 0 0)
(0.103966 0 0)
(0.0901748 0 0)
(0.0763534 0 0)
(0.0625062 0 0)
(0.0486379 0 0)
(0.0347532 0 0)
(0.0208566 0 0)
(0.00695301 0 0)
(-0.00695296 0 0)
(-0.0208566 0 0)
(-0.0347531 0 0)
(-0.0486378 0 0)
(-0.0625061 0 0)
(-0.0763532 0 0)
(-0.0901746 0 0)
(-0.103966 0 0)
(-0.117722 0 0)
(-0.131439 0 0)
(-0.145112 0 0)
(-0.158736 0 0)
(-0.172309 0 0)
(-0.185825 0 0)
(-0.19928 0 0)
(-0.212671 0 0)
(-0.225992 0 0)
(-0.239242 0 0)
(-0.252415 0 0)
(-0.265508 0 0)
(-0.278518 0 0)
(-0.291442 0 0)
(-0.304275 0 0)
(-0.317015 0 0)
(-0.32966 0 0)
(-0.342205 0 0)
(-0.354648 0 0)
(-0.366987 0 0)
(-0.379219 0 0)
(-0.391341 0 0)
(-0.403351 0 0)
(-0.415248 0 0)
(-0.427029 0 0)
(-0.438692 0 0)
(-0.450235 0 0)
(-0.461656 0 0)
(-0.472955 0 0)
(-0.484129 0 0)
(-0.495178 0 0)
(-0.5061 0 0)
(-0.516893 0 0)
(-0.527557 0 0)
(-0.538091 0 0)
(-0.548495 0 0)
(-0.558766 0 0)
(-0.568905 0 0)
(-0.578912 0 0)
(-0.588785 0 0)
(-0.598525 0 0)
(-0.60813 0 0)
(-0.617601 0 0)
(-0.626939 0 0)
(-0.636141 0 0)
(-0.645209 0 0)
(-0.654143 0 0)
(-0.662943 0 0)
(-0.671609 0 0)
(-0.680141 0 0)
(-0.688539 0 0)
(-0.696805 0 0)
(-0.704938 0 0)
(-0.712938 0 0)
(-0.720807 0 0)
(-0.728545 0 0)
(-0.736152 0 0)
(-0.743628 0 0)
(-0.750976 0 0)
(-0.758195 0 0)
(-0.765286 0 0)
(-0.772249 0 0)
(-0.779086 0 0)
(-0.785798 0 0)
(-0.792384 0 0)
(-0.798847 0 0)
(-0.805186 0 0)
(-0.811403 0 0)
(-0.817499 0 0)
(-0.823474 0 0)
(-0.829329 0 0)
(-0.835066 0 0)
(-0.840685 0 0)
(-0.846187 0 0)
(-0.851573 0 0)
(-0.856845 0 0)
(-0.862002 0 0)
(-0.867047 0 0)
(-0.87198 0 0)
(-0.876801 0 0)
(-0.881513 0 0)
(-0.886116 0 0)
(-0.890611 0 0)
(-0.894999 0 0)
(-0.899281 0 0)
(-0.903458 0 0)
(-0.90753 0 0)
(-0.9115 0 0)
(-0.915368 0 0)
(-0.919135 0 0)
(-0.922802 0 0)
(-0.926369 0 0)
(-0.929839 0 0)
(-0.933211 0 0)
(-0.936487 0 0)
(-0.939668 0 0)
(-0.942754 0 0)
(-0.945748 0 0)
(-0.948648 0 0)
(-0.951458 0 0)
(-0.954176 0 0)
(-0.956806 0 0)
(-0.959346 0 0)
(-0.961799 0 0)
(-0.964164 0 0)
(-0.966444 0 0)
(-0.968639 0 0)
(-0.970749 0 0)
(-0.972776 0 0)
(-0.974721 0 0)
(-0.976583 0 0)
(-0.978365 0 0)
(-0.980067 0 0)
(-0.98169 0 0)
(-0.983235 0 0)
(-0.984702 0 0)
(-0.986092 0 0)
(-0.987406 0 0)
(-0.988646 0 0)
(-0.989811 0 0)
(-0.990902 0 0)
(-0.991921 0 0)
(-0.992867 0 0)
(-0.993743 0 0)
(-0.994547 0 0)
(-0.995282 0 0)
(-0.995948 0 0)
(-0.996546 0 0)
(-0.997075 0 0)
(-0.997538 0 0)
(-0.997935 0 0)
(-0.998266 0 0)
(-0.998532 0 0)
(-0.998734 0 0)
(-0.998873 0 0)
(-0.998948 0 0)
(-0.998962 0 0)
(-0.998913 0 0)
(-0.998804 0 0)
(-0.998635 0 0)
(-0.998406 0 0)
(-0.998117 0 0)
(-0.99777 0 0)
(-0.997366 0 0)
(-0.996904 0 0)
(-0.996385 0 0)
(-0.99581 0 0)
(-0.99518 0 0)
(-0.994495 0 0)
(-0.993755 0 0)
(-0.992961 0 0)
(-0.992114 0 0)
(-0.991215 0 0)
(-0.990263 0 0)
(-0.989259 0 0)
(-0.988204 0 0)
(-0.987099 0 0)
(-0.985943 0 0)
(-0.984738 0 0)
(-0.983484 0 0)
(-0.982181 0 0)
(-0.98083 0 0)
(-0.979431 0 0)
(-0.977985 0 0)
(-0.976492 0 0)
(-0.974953 0 0)
(-0.973369 0 0)
(-0.971738 0 0)
(-0.970064 0 0)
(-0.968344 0 0)
(-0.966581 0 0)
(-0.964774 0 0)
(-0.962924 0 0)
(-0.961031 0 0)
(-0.959096 0 0)
(-0.957119 0 0)
(-0.955101 0 0)
(-0.953042 0 0)
(-0.950942 0 0)
(-0.948802 0 0)
(-0.946622 0 0)
(-0.944403 0 0)
(-0.942144 0 0)
(-0.939847 0 0)
(-0.937512 0 0)
(-0.935139 0 0)
(-0.932728 0 0)
(-0.93028 0 0)
(-0.927796 0 0)
(-0.925275 0 0)
(-0.922717 0 0)
(-0.920124 0 0)
(-0.917496 0 0)
(-0.914833 0 0)
(-0.912135 0 0)
(-0.909403 0 0)
(-0.906636 0 0)
(-0.903836 0 0)
(-0.901003 0 0)
(-0.898137 0 0)
(-0.895238 0 0)
(-0.892306 0 0)
(-0.889343 0 0)
(-0.886347 0 0)
(-0.88332 0 0)
(-0.880263 0 0)
(-0.877174 0 0)
(-0.874055 0 0)
(-0.870905 0 0)
(-0.867726 0 0)
(-0.864516 0 0)
(-0.861278 0 0)
(-0.85801 0 0)
(-0.854714 0 0)
(-0.851389 0 0)
(-0.848036 0 0)
(-0.844654 0 0)
(-0.841246 0 0)
(-0.837809 0 0)
(-0.834346 0 0)
(-0.830855 0 0)
(-0.827338 0 0)
(-0.823795 0 0)
(-0.820225 0 0)
(-0.81663 0 0)
(-0.813009 0 0)
(-0.809363 0 0)
(-0.805691 0 0)
(-0.801995 0 0)
(-0.798274 0 0)
(-0.794528 0 0)
(-0.790759 0 0)
(-0.786965 0 0)
(-0.783148 0 0)
(-0.779308 0 0)
(-0.775444 0 0)
(-0.771557 0 0)
(-0.767648 0 0)
(-0.763716 0 0)
(-0.759761 0 0)
(-0.755785 0 0)
(-0.751786 0 0)
(-0.747766 0 0)
(-0.743725 0 0)
(-0.739662 0 0)
(-0.735579 0 0)
(-0.731474 0 0)
(-0.727349 0 0)
(-0.723204 0 0)
(-0.719039 0 0)
(-0.714853 0 0)
(-0.710648 0 0)
(-0.706423 0 0)
(-0.702179 0 0)
(-0.697915 0 0)
(-0.693633 0 0)
(-0.689332 0 0)
(-0.685012 0 0)
(-0.680674 0 0)
(-0.676318 0 0)
(-0.671943 0 0)
(-0.667551 0 0)
(-0.663142 0 0)
(-0.658714 0 0)
(-0.65427 0 0)
(-0.649808 0 0)
(-0.64533 0 0)
(-0.640834 0 0)
(-0.636323 0 0)
(-0.631795 0 0)
(-0.62725 0 0)
(-0.62269 0 0)
(-0.618114 0 0)
(-0.613522 0 0)
(-0.608914 0 0)
(-0.604291 0 0)
(-0.599654 0 0)
(-0.595001 0 0)
(-0.590333 0 0)
(-0.58565 0 0)
(-0.580953 0 0)
(-0.576242 0 0)
(-0.571517 0 0)
(-0.566777 0 0)
(-0.562024 0 0)
(-0.557257 0 0)
(-0.552476 0 0)
(-0.547682 0 0)
(-0.542875 0 0)
(-0.538055 0 0)
(-0.533222 0 0)
(-0.528376 0 0)
(-0.523517 0 0)
(-0.518646 0 0)
(-0.513763 0 0)
(-0.508867 0 0)
(-0.50396 0 0)
(-0.499041 0 0)
(-0.49411 0 0)
(-0.489167 0 0)
(-0.484213 0 0)
(-0.479248 0 0)
(-0.474271 0 0)
(-0.469284 0 0)
(-0.464285 0 0)
(-0.459277 0 0)
(-0.454257 0 0)
(-0.449227 0 0)
(-0.444187 0 0)
(-0.439136 0 0)
(-0.434076 0 0)
(-0.429006 0 0)
(-0.423926 0 0)
(-0.418836 0 0)
(-0.413737 0 0)
(-0.408629 0 0)
(-0.403511 0 0)
(-0.398385 0 0)
(-0.393249 0 0)
(-0.388105 0 0)
(-0.382952 0 0)
(-0.377791 0 0)
(-0.372621 0 0)
(-0.367443 0 0)
(-0.362257 0 0)
(-0.357063 0 0)
(-0.351861 0 0)
(-0.346651 0 0)
(-0.341434 0 0)
(-0.336209 0 0)
(-0.330976 0 0)
(-0.325737 0 0)
(-0.320491 0 0)
(-0.315237 0 0)
(-0.309977 0 0)
(-0.30471 0 0)
(-0.299436 0 0)
(-0.294156 0 0)
(-0.288869 0 0)
(-0.283576 0 0)
(-0.278278 0 0)
(-0.272973 0 0)
(-0.267662 0 0)
(-0.262346 0 0)
(-0.257024 0 0)
(-0.251696 0 0)
(-0.246363 0 0)
(-0.241025 0 0)
(-0.235682 0 0)
(-0.230333 0 0)
(-0.22498 0 0)
(-0.219622 0 0)
(-0.21426 0 0)
(-0.208892 0 0)
(-0.203521 0 0)
(-0.198145 0 0)
(-0.192765 0 0)
(-0.187381 0 0)
(-0.181993 0 0)
(-0.176601 0 0)
(-0.171205 0 0)
(-0.165806 0 0)
(-0.160403 0 0)
(-0.154997 0 0)
(-0.149588 0 0)
(-0.144175 0 0)
(-0.13876 0 0)
(-0.133341 0 0)
(-0.12792 0 0)
(-0.122496 0 0)
(-0.11707 0 0)
(-0.111641 0 0)
(-0.10621 0 0)
(-0.100777 0 0)
(-0.0953411 0 0)
(-0.0899036 0 0)
(-0.0844643 0 0)
(-0.0790232 0 0)
(-0.0735804 0 0)
(-0.0681362 0 0)
(-0.0626905 0 0)
(-0.0572435 0 0)
(-0.0517953 0 0)
(-0.0463461 0 0)
(-0.0408958 0 0)
(-0.0354448 0 0)
(-0.029993 0 0)
(-0.0245406 0 0)
(-0.0190876 0 0)
(-0.0136343 0 0)
(-0.0081807 0 0)
(-0.00272692 0 0)
)
;

boundaryField
{
    left
    {
        type            fixedValue;
        value           uniform (0 0 0);
    }
    right
    {
        type            fixedValue;
        value           uniform (0 0 0);
    }
    frontBackUpDown
    {
        type            empty;
    }
}


// ************************************************************************* //
