/*--------------------------------*- C++ -*----------------------------------*\
| =========                 |                                                 |
| \\      /  F ield         | OpenFOAM: The Open Source CFD Toolbox           |
|  \\    /   O peration     | Version:  2412                                  |
|   \\  /    A nd           | Website:  www.openfoam.com                      |
|    \\/     M anipulation  |                                                 |
\*---------------------------------------------------------------------------*/
FoamFile
{
    version     2.0;
    format      ascii;
    arch        "LSB;label=32;scalar=64";
    class       volVectorField;
    location    "0.14";
    object      U_0;
}
// * * * * * * * * * * * * * * * * * * * * * * * * * * * * * * * * * * * * * //

dimensions      [0 1 -1 0 0 0 0];

internalField   nonuniform List<vector> 
800
(
(0.00272984 0 0)
(0.00818957 0 0)
(0.0136491 0 0)
(0.0191084 0 0)
(0.0245673 0 0)
(0.0300257 0 0)
(0.0354834 0 0)
(0.0409404 0 0)
(0.0463966 0 0)
(0.0518518 0 0)
(0.0573059 0 0)
(0.0627588 0 0)
(0.0682104 0 0)
(0.0736606 0 0)
(0.0791093 0 0)
(0.0845563 0 0)
(0.0900015 0 0)
(0.0954449 0 0)
(0.100886 0 0)
(0.106325 0 0)
(0.111763 0 0)
(0.117197 0 0)
(0.122629 0 0)
(0.128059 0 0)
(0.133486 0 0)
(0.13891 0 0)
(0.144332 0 0)
(0.14975 0 0)
(0.155165 0 0)
(0.160577 0 0)
(0.165985 0 0)
(0.17139 0 0)
(0.176791 0 0)
(0.182189 0 0)
(0.187583 0 0)
(0.192973 0 0)
(0.198358 0 0)
(0.20374 0 0)
(0.209117 0 0)
(0.21449 0 0)
(0.219858 0 0)
(0.225222 0 0)
(0.23058 0 0)
(0.235934 0 0)
(0.241283 0 0)
(0.246627 0 0)
(0.251965 0 0)
(0.257298 0 0)
(0.262625 0 0)
(0.267947 0 0)
(0.273263 0 0)
(0.278573 0 0)
(0.283877 0 0)
(0.289175 0 0)
(0.294467 0 0)
(0.299753 0 0)
(0.305031 0 0)
(0.310304 0 0)
(0.315569 0 0)
(0.320828 0 0)
(0.326079 0 0)
(0.331324 0 0)
(0.336561 0 0)
(0.341791 0 0)
(0.347013 0 0)
(0.352228 0 0)
(0.357435 0 0)
(0.362634 0 0)
(0.367825 0 0)
(0.373008 0 0)
(0.378182 0 0)
(0.383348 0 0)
(0.388506 0 0)
(0.393655 0 0)
(0.398795 0 0)
(0.403926 0 0)
(0.409048 0 0)
(0.414161 0 0)
(0.419264 0 0)
(0.424358 0 0)
(0.429442 0 0)
(0.434517 0 0)
(0.439582 0 0)
(0.444636 0 0)
(0.449681 0 0)
(0.454715 0 0)
(0.459738 0 0)
(0.464751 0 0)
(0.469754 0 0)
(0.474745 0 0)
(0.479725 0 0)
(0.484695 0 0)
(0.489652 0 0)
(0.494599 0 0)
(0.499534 0 0)
(0.504457 0 0)
(0.509368 0 0)
(0.514267 0 0)
(0.519154 0 0)
(0.524028 0 0)
(0.52889 0 0)
(0.533739 0 0)
(0.538576 0 0)
(0.543399 0 0)
(0.54821 0 0)
(0.553007 0 0)
(0.557791 0 0)
(0.562561 0 0)
(0.567317 0 0)
(0.572059 0 0)
(0.576788 0 0)
(0.581502 0 0)
(0.586201 0 0)
(0.590887 0 0)
(0.595557 0 0)
(0.600212 0 0)
(0.604853 0 0)
(0.609478 0 0)
(0.614088 0 0)
(0.618682 0 0)
(0.623261 0 0)
(0.627823 0 0)
(0.63237 0 0)
(0.6369 0 0)
(0.641414 0 0)
(0.645911 0 0)
(0.650391 0 0)
(0.654854 0 0)
(0.659301 0 0)
(0.66373 0 0)
(0.668141 0 0)
(0.672535 0 0)
(0.67691 0 0)
(0.681268 0 0)
(0.685607 0 0)
(0.689928 0 0)
(0.69423 0 0)
(0.698514 0 0)
(0.702778 0 0)
(0.707023 0 0)
(0.711249 0 0)
(0.715455 0 0)
(0.719641 0 0)
(0.723807 0 0)
(0.727953 0 0)
(0.732079 0 0)
(0.736183 0 0)
(0.740267 0 0)
(0.74433 0 0)
(0.748371 0 0)
(0.752391 0 0)
(0.75639 0 0)
(0.760366 0 0)
(0.76432 0 0)
(0.768252 0 0)
(0.772161 0 0)
(0.776047 0 0)
(0.77991 0 0)
(0.78375 0 0)
(0.787567 0 0)
(0.791359 0 0)
(0.795128 0 0)
(0.798872 0 0)
(0.802592 0 0)
(0.806287 0 0)
(0.809957 0 0)
(0.813602 0 0)
(0.817222 0 0)
(0.820815 0 0)
(0.824383 0 0)
(0.827925 0 0)
(0.83144 0 0)
(0.834928 0 0)
(0.83839 0 0)
(0.841824 0 0)
(0.84523 0 0)
(0.848609 0 0)
(0.85196 0 0)
(0.855282 0 0)
(0.858576 0 0)
(0.86184 0 0)
(0.865076 0 0)
(0.868282 0 0)
(0.871458 0 0)
(0.874605 0 0)
(0.877721 0 0)
(0.880806 0 0)
(0.88386 0 0)
(0.886883 0 0)
(0.889875 0 0)
(0.892834 0 0)
(0.895762 0 0)
(0.898657 0 0)
(0.901519 0 0)
(0.904348 0 0)
(0.907143 0 0)
(0.909905 0 0)
(0.912632 0 0)
(0.915325 0 0)
(0.917984 0 0)
(0.920607 0 0)
(0.923195 0 0)
(0.925746 0 0)
(0.928262 0 0)
(0.930741 0 0)
(0.933183 0 0)
(0.935588 0 0)
(0.937955 0 0)
(0.940285 0 0)
(0.942575 0 0)
(0.944827 0 0)
(0.94704 0 0)
(0.949214 0 0)
(0.951347 0 0)
(0.95344 0 0)
(0.955492 0 0)
(0.957504 0 0)
(0.959473 0 0)
(0.961401 0 0)
(0.963286 0 0)
(0.965129 0 0)
(0.966928 0 0)
(0.968683 0 0)
(0.970395 0 0)
(0.972061 0 0)
(0.973683 0 0)
(0.97526 0 0)
(0.97679 0 0)
(0.978274 0 0)
(0.979712 0 0)
(0.981101 0 0)
(0.982444 0 0)
(0.983737 0 0)
(0.984982 0 0)
(0.986178 0 0)
(0.987324 0 0)
(0.98842 0 0)
(0.989465 0 0)
(0.990458 0 0)
(0.9914 0 0)
(0.99229 0 0)
(0.993126 0 0)
(0.993909 0 0)
(0.994638 0 0)
(0.995313 0 0)
(0.995932 0 0)
(0.996496 0 0)
(0.997004 0 0)
(0.997454 0 0)
(0.997848 0 0)
(0.998183 0 0)
(0.99846 0 0)
(0.998677 0 0)
(0.998835 0 0)
(0.998932 0 0)
(0.998968 0 0)
(0.998942 0 0)
(0.998854 0 0)
(0.998703 0 0)
(0.998488 0 0)
(0.998209 0 0)
(0.997865 0 0)
(0.997456 0 0)
(0.996979 0 0)
(0.996436 0 0)
(0.995825 0 0)
(0.995146 0 0)
(0.994397 0 0)
(0.993579 0 0)
(0.99269 0 0)
(0.991729 0 0)
(0.990697 0 0)
(0.989591 0 0)
(0.988412 0 0)
(0.987158 0 0)
(0.985829 0 0)
(0.984424 0 0)
(0.982943 0 0)
(0.981384 0 0)
(0.979746 0 0)
(0.978029 0 0)
(0.976232 0 0)
(0.974354 0 0)
(0.972395 0 0)
(0.970353 0 0)
(0.968227 0 0)
(0.966017 0 0)
(0.963722 0 0)
(0.961341 0 0)
(0.958873 0 0)
(0.956317 0 0)
(0.953672 0 0)
(0.950938 0 0)
(0.948113 0 0)
(0.945197 0 0)
(0.942188 0 0)
(0.939086 0 0)
(0.93589 0 0)
(0.932598 0 0)
(0.92921 0 0)
(0.925725 0 0)
(0.922142 0 0)
(0.91846 0 0)
(0.914678 0 0)
(0.910795 0 0)
(0.90681 0 0)
(0.902722 0 0)
(0.89853 0 0)
(0.894233 0 0)
(0.88983 0 0)
(0.88532 0 0)
(0.880703 0 0)
(0.875976 0 0)
(0.87114 0 0)
(0.866193 0 0)
(0.861134 0 0)
(0.855963 0 0)
(0.850678 0 0)
(0.845278 0 0)
(0.839762 0 0)
(0.83413 0 0)
(0.828381 0 0)
(0.822513 0 0)
(0.816525 0 0)
(0.810418 0 0)
(0.804189 0 0)
(0.797838 0 0)
(0.791365 0 0)
(0.784768 0 0)
(0.778046 0 0)
(0.771199 0 0)
(0.764226 0 0)
(0.757126 0 0)
(0.749898 0 0)
(0.742542 0 0)
(0.735058 0 0)
(0.727444 0 0)
(0.719699 0 0)
(0.711824 0 0)
(0.703818 0 0)
(0.69568 0 0)
(0.68741 0 0)
(0.679008 0 0)
(0.670472 0 0)
(0.661804 0 0)
(0.653002 0 0)
(0.644067 0 0)
(0.634998 0 0)
(0.625795 0 0)
(0.616459 0 0)
(0.606989 0 0)
(0.597386 0 0)
(0.58765 0 0)
(0.577781 0 0)
(0.567779 0 0)
(0.557645 0 0)
(0.54738 0 0)
(0.536984 0 0)
(0.526458 0 0)
(0.515803 0 0)
(0.50502 0 0)
(0.494109 0 0)
(0.483073 0 0)
(0.471911 0 0)
(0.460626 0 0)
(0.449219 0 0)
(0.437692 0 0)
(0.426046 0 0)
(0.414283 0 0)
(0.402405 0 0)
(0.390414 0 0)
(0.378312 0 0)
(0.366102 0 0)
(0.353786 0 0)
(0.341366 0 0)
(0.328845 0 0)
(0.316226 0 0)
(0.303512 0 0)
(0.290705 0 0)
(0.27781 0 0)
(0.264828 0 0)
(0.251764 0 0)
(0.238621 0 0)
(0.225403 0 0)
(0.212113 0 0)
(0.198755 0 0)
(0.185333 0 0)
(0.171851 0 0)
(0.158313 0 0)
(0.144723 0 0)
(0.131085 0 0)
(0.117404 0 0)
(0.103685 0 0)
(0.0899303 0 0)
(0.0761459 0 0)
(0.0623361 0 0)
(0.0485054 0 0)
(0.0346584 0 0)
(0.0207997 0 0)
(0.00693402 0 0)
(-0.00693398 0 0)
(-0.0207996 0 0)
(-0.0346583 0 0)
(-0.0485053 0 0)
(-0.062336 0 0)
(-0.0761458 0 0)
(-0.0899301 0 0)
(-0.103684 0 0)
(-0.117404 0 0)
(-0.131085 0 0)
(-0.144722 0 0)
(-0.158312 0 0)
(-0.17185 0 0)
(-0.185332 0 0)
(-0.198754 0 0)
(-0.212112 0 0)
(-0.225402 0 0)
(-0.238621 0 0)
(-0.251763 0 0)
(-0.264827 0 0)
(-0.277808 0 0)
(-0.290704 0 0)
(-0.30351 0 0)
(-0.316224 0 0)
(-0.328843 0 0)
(-0.341364 0 0)
(-0.353784 0 0)
(-0.3661 0 0)
(-0.37831 0 0)
(-0.390412 0 0)
(-0.402403 0 0)
(-0.414281 0 0)
(-0.426044 0 0)
(-0.43769 0 0)
(-0.449217 0 0)
(-0.460624 0 0)
(-0.471909 0 0)
(-0.48307 0 0)
(-0.494107 0 0)
(-0.505017 0 0)
(-0.5158 0 0)
(-0.526455 0 0)
(-0.536981 0 0)
(-0.547377 0 0)
(-0.557642 0 0)
(-0.567776 0 0)
(-0.577777 0 0)
(-0.587647 0 0)
(-0.597383 0 0)
(-0.606986 0 0)
(-0.616456 0 0)
(-0.625792 0 0)
(-0.634995 0 0)
(-0.644063 0 0)
(-0.652999 0 0)
(-0.6618 0 0)
(-0.670469 0 0)
(-0.679004 0 0)
(-0.687407 0 0)
(-0.695677 0 0)
(-0.703815 0 0)
(-0.711821 0 0)
(-0.719696 0 0)
(-0.72744 0 0)
(-0.735055 0 0)
(-0.742539 0 0)
(-0.749895 0 0)
(-0.757123 0 0)
(-0.764223 0 0)
(-0.771196 0 0)
(-0.778043 0 0)
(-0.784765 0 0)
(-0.791362 0 0)
(-0.797836 0 0)
(-0.804186 0 0)
(-0.810415 0 0)
(-0.816523 0 0)
(-0.82251 0 0)
(-0.828378 0 0)
(-0.834128 0 0)
(-0.83976 0 0)
(-0.845275 0 0)
(-0.850675 0 0)
(-0.855961 0 0)
(-0.861132 0 0)
(-0.866191 0 0)
(-0.871138 0 0)
(-0.875974 0 0)
(-0.880701 0 0)
(-0.885318 0 0)
(-0.889828 0 0)
(-0.894231 0 0)
(-0.898528 0 0)
(-0.90272 0 0)
(-0.906808 0 0)
(-0.910793 0 0)
(-0.914676 0 0)
(-0.918459 0 0)
(-0.922141 0 0)
(-0.925724 0 0)
(-0.929209 0 0)
(-0.932597 0 0)
(-0.935888 0 0)
(-0.939085 0 0)
(-0.942187 0 0)
(-0.945196 0 0)
(-0.948112 0 0)
(-0.950937 0 0)
(-0.953672 0 0)
(-0.956316 0 0)
(-0.958872 0 0)
(-0.96134 0 0)
(-0.963721 0 0)
(-0.966017 0 0)
(-0.968226 0 0)
(-0.970352 0 0)
(-0.972394 0 0)
(-0.974354 0 0)
(-0.976232 0 0)
(-0.978029 0 0)
(-0.979746 0 0)
(-0.981383 0 0)
(-0.982943 0 0)
(-0.984424 0 0)
(-0.985829 0 0)
(-0.987158 0 0)
(-0.988412 0 0)
(-0.989591 0 0)
(-0.990696 0 0)
(-0.991729 0 0)
(-0.99269 0 0)
(-0.993579 0 0)
(-0.994397 0 0)
(-0.995146 0 0)
(-0.995825 0 0)
(-0.996436 0 0)
(-0.996979 0 0)
(-0.997455 0 0)
(-0.997865 0 0)
(-0.998209 0 0)
(-0.998488 0 0)
(-0.998703 0 0)
(-0.998854 0 0)
(-0.998942 0 0)
(-0.998968 0 0)
(-0.998932 0 0)
(-0.998835 0 0)
(-0.998677 0 0)
(-0.998459 0 0)
(-0.998183 0 0)
(-0.997848 0 0)
(-0.997454 0 0)
(-0.997004 0 0)
(-0.996496 0 0)
(-0.995932 0 0)
(-0.995313 0 0)
(-0.994638 0 0)
(-0.993909 0 0)
(-0.993126 0 0)
(-0.99229 0 0)
(-0.9914 0 0)
(-0.990458 0 0)
(-0.989465 0 0)
(-0.98842 0 0)
(-0.987324 0 0)
(-0.986178 0 0)
(-0.984982 0 0)
(-0.983737 0 0)
(-0.982443 0 0)
(-0.981101 0 0)
(-0.979711 0 0)
(-0.978274 0 0)
(-0.97679 0 0)
(-0.975259 0 0)
(-0.973683 0 0)
(-0.972061 0 0)
(-0.970394 0 0)
(-0.968683 0 0)
(-0.966927 0 0)
(-0.965128 0 0)
(-0.963286 0 0)
(-0.9614 0 0)
(-0.959473 0 0)
(-0.957503 0 0)
(-0.955492 0 0)
(-0.95344 0 0)
(-0.951346 0 0)
(-0.949213 0 0)
(-0.94704 0 0)
(-0.944827 0 0)
(-0.942575 0 0)
(-0.940284 0 0)
(-0.937955 0 0)
(-0.935587 0 0)
(-0.933183 0 0)
(-0.93074 0 0)
(-0.928261 0 0)
(-0.925746 0 0)
(-0.923194 0 0)
(-0.920606 0 0)
(-0.917983 0 0)
(-0.915325 0 0)
(-0.912632 0 0)
(-0.909904 0 0)
(-0.907142 0 0)
(-0.904347 0 0)
(-0.901518 0 0)
(-0.898656 0 0)
(-0.895761 0 0)
(-0.892833 0 0)
(-0.889874 0 0)
(-0.886882 0 0)
(-0.883859 0 0)
(-0.880805 0 0)
(-0.877719 0 0)
(-0.874604 0 0)
(-0.871457 0 0)
(-0.868281 0 0)
(-0.865075 0 0)
(-0.861839 0 0)
(-0.858574 0 0)
(-0.855281 0 0)
(-0.851958 0 0)
(-0.848608 0 0)
(-0.845229 0 0)
(-0.841822 0 0)
(-0.838388 0 0)
(-0.834927 0 0)
(-0.831439 0 0)
(-0.827924 0 0)
(-0.824382 0 0)
(-0.820814 0 0)
(-0.81722 0 0)
(-0.813601 0 0)
(-0.809956 0 0)
(-0.806286 0 0)
(-0.802591 0 0)
(-0.798871 0 0)
(-0.795126 0 0)
(-0.791358 0 0)
(-0.787565 0 0)
(-0.783749 0 0)
(-0.779909 0 0)
(-0.776046 0 0)
(-0.77216 0 0)
(-0.76825 0 0)
(-0.764319 0 0)
(-0.760365 0 0)
(-0.756388 0 0)
(-0.75239 0 0)
(-0.74837 0 0)
(-0.744329 0 0)
(-0.740266 0 0)
(-0.736182 0 0)
(-0.732077 0 0)
(-0.727952 0 0)
(-0.723806 0 0)
(-0.71964 0 0)
(-0.715454 0 0)
(-0.711248 0 0)
(-0.707022 0 0)
(-0.702777 0 0)
(-0.698513 0 0)
(-0.694229 0 0)
(-0.689927 0 0)
(-0.685606 0 0)
(-0.681267 0 0)
(-0.676909 0 0)
(-0.672533 0 0)
(-0.66814 0 0)
(-0.663728 0 0)
(-0.659299 0 0)
(-0.654853 0 0)
(-0.65039 0 0)
(-0.64591 0 0)
(-0.641412 0 0)
(-0.636899 0 0)
(-0.632368 0 0)
(-0.627822 0 0)
(-0.623259 0 0)
(-0.618681 0 0)
(-0.614087 0 0)
(-0.609477 0 0)
(-0.604852 0 0)
(-0.600211 0 0)
(-0.595556 0 0)
(-0.590885 0 0)
(-0.5862 0 0)
(-0.581501 0 0)
(-0.576787 0 0)
(-0.572058 0 0)
(-0.567316 0 0)
(-0.56256 0 0)
(-0.55779 0 0)
(-0.553006 0 0)
(-0.548209 0 0)
(-0.543398 0 0)
(-0.538575 0 0)
(-0.533738 0 0)
(-0.528889 0 0)
(-0.524027 0 0)
(-0.519153 0 0)
(-0.514266 0 0)
(-0.509367 0 0)
(-0.504456 0 0)
(-0.499533 0 0)
(-0.494598 0 0)
(-0.489652 0 0)
(-0.484694 0 0)
(-0.479725 0 0)
(-0.474744 0 0)
(-0.469753 0 0)
(-0.464751 0 0)
(-0.459738 0 0)
(-0.454714 0 0)
(-0.44968 0 0)
(-0.444635 0 0)
(-0.439581 0 0)
(-0.434516 0 0)
(-0.429442 0 0)
(-0.424357 0 0)
(-0.419263 0 0)
(-0.41416 0 0)
(-0.409047 0 0)
(-0.403925 0 0)
(-0.398794 0 0)
(-0.393654 0 0)
(-0.388505 0 0)
(-0.383348 0 0)
(-0.378182 0 0)
(-0.373007 0 0)
(-0.367824 0 0)
(-0.362633 0 0)
(-0.357434 0 0)
(-0.352227 0 0)
(-0.347013 0 0)
(-0.34179 0 0)
(-0.336561 0 0)
(-0.331323 0 0)
(-0.326079 0 0)
(-0.320827 0 0)
(-0.315569 0 0)
(-0.310303 0 0)
(-0.305031 0 0)
(-0.299752 0 0)
(-0.294467 0 0)
(-0.289175 0 0)
(-0.283877 0 0)
(-0.278573 0 0)
(-0.273263 0 0)
(-0.267947 0 0)
(-0.262625 0 0)
(-0.257298 0 0)
(-0.251965 0 0)
(-0.246626 0 0)
(-0.241283 0 0)
(-0.235934 0 0)
(-0.23058 0 0)
(-0.225221 0 0)
(-0.219858 0 0)
(-0.21449 0 0)
(-0.209117 0 0)
(-0.20374 0 0)
(-0.198358 0 0)
(-0.192972 0 0)
(-0.187583 0 0)
(-0.182189 0 0)
(-0.176791 0 0)
(-0.17139 0 0)
(-0.165985 0 0)
(-0.160577 0 0)
(-0.155165 0 0)
(-0.14975 0 0)
(-0.144331 0 0)
(-0.13891 0 0)
(-0.133486 0 0)
(-0.128059 0 0)
(-0.122629 0 0)
(-0.117197 0 0)
(-0.111762 0 0)
(-0.106325 0 0)
(-0.100886 0 0)
(-0.0954448 0 0)
(-0.0900015 0 0)
(-0.0845562 0 0)
(-0.0791093 0 0)
(-0.0736606 0 0)
(-0.0682104 0 0)
(-0.0627588 0 0)
(-0.0573059 0 0)
(-0.0518518 0 0)
(-0.0463966 0 0)
(-0.0409405 0 0)
(-0.0354835 0 0)
(-0.0300257 0 0)
(-0.0245674 0 0)
(-0.0191085 0 0)
(-0.0136492 0 0)
(-0.00818963 0 0)
(-0.0027299 0 0)
)
;

boundaryField
{
    left
    {
        type            fixedValue;
        value           uniform (0 0 0);
    }
    right
    {
        type            fixedValue;
        value           uniform (0 0 0);
    }
    frontBackUpDown
    {
        type            empty;
    }
}


// ************************************************************************* //
