/*--------------------------------*- C++ -*----------------------------------*\
| =========                 |                                                 |
| \\      /  F ield         | OpenFOAM: The Open Source CFD Toolbox           |
|  \\    /   O peration     | Version:  2412                                  |
|   \\  /    A nd           | Website:  www.openfoam.com                      |
|    \\/     M anipulation  |                                                 |
\*---------------------------------------------------------------------------*/
FoamFile
{
    version     2.0;
    format      ascii;
    arch        "LSB;label=32;scalar=64";
    class       volVectorField;
    location    "0.14";
    object      U_0_0;
}
// * * * * * * * * * * * * * * * * * * * * * * * * * * * * * * * * * * * * * //

dimensions      [0 1 -1 0 0 0 0];

internalField   nonuniform List<vector> 
800
(
(0.00273282 0 0)
(0.00819852 0 0)
(0.0136641 0 0)
(0.0191293 0 0)
(0.0245942 0 0)
(0.0300585 0 0)
(0.0355222 0 0)
(0.0409852 0 0)
(0.0464473 0 0)
(0.0519084 0 0)
(0.0573685 0 0)
(0.0628273 0 0)
(0.0682849 0 0)
(0.073741 0 0)
(0.0791955 0 0)
(0.0846485 0 0)
(0.0900996 0 0)
(0.0955488 0 0)
(0.100996 0 0)
(0.106441 0 0)
(0.111884 0 0)
(0.117325 0 0)
(0.122763 0 0)
(0.128198 0 0)
(0.133631 0 0)
(0.139061 0 0)
(0.144488 0 0)
(0.149912 0 0)
(0.155333 0 0)
(0.160751 0 0)
(0.166165 0 0)
(0.171575 0 0)
(0.176983 0 0)
(0.182386 0 0)
(0.187785 0 0)
(0.193181 0 0)
(0.198572 0 0)
(0.203959 0 0)
(0.209342 0 0)
(0.21472 0 0)
(0.220094 0 0)
(0.225463 0 0)
(0.230828 0 0)
(0.236187 0 0)
(0.241541 0 0)
(0.24689 0 0)
(0.252234 0 0)
(0.257572 0 0)
(0.262905 0 0)
(0.268232 0 0)
(0.273554 0 0)
(0.278869 0 0)
(0.284179 0 0)
(0.289482 0 0)
(0.294779 0 0)
(0.300069 0 0)
(0.305354 0 0)
(0.310631 0 0)
(0.315902 0 0)
(0.321165 0 0)
(0.326422 0 0)
(0.331671 0 0)
(0.336914 0 0)
(0.342148 0 0)
(0.347376 0 0)
(0.352595 0 0)
(0.357807 0 0)
(0.363011 0 0)
(0.368207 0 0)
(0.373394 0 0)
(0.378574 0 0)
(0.383744 0 0)
(0.388907 0 0)
(0.39406 0 0)
(0.399205 0 0)
(0.40434 0 0)
(0.409467 0 0)
(0.414584 0 0)
(0.419692 0 0)
(0.42479 0 0)
(0.429879 0 0)
(0.434958 0 0)
(0.440027 0 0)
(0.445086 0 0)
(0.450134 0 0)
(0.455173 0 0)
(0.4602 0 0)
(0.465217 0 0)
(0.470224 0 0)
(0.475219 0 0)
(0.480203 0 0)
(0.485176 0 0)
(0.490138 0 0)
(0.495088 0 0)
(0.500027 0 0)
(0.504953 0 0)
(0.509868 0 0)
(0.514771 0 0)
(0.519661 0 0)
(0.524539 0 0)
(0.529404 0 0)
(0.534257 0 0)
(0.539097 0 0)
(0.543923 0 0)
(0.548737 0 0)
(0.553537 0 0)
(0.558324 0 0)
(0.563097 0 0)
(0.567856 0 0)
(0.572602 0 0)
(0.577333 0 0)
(0.58205 0 0)
(0.586752 0 0)
(0.59144 0 0)
(0.596113 0 0)
(0.600771 0 0)
(0.605414 0 0)
(0.610042 0 0)
(0.614654 0 0)
(0.61925 0 0)
(0.623831 0 0)
(0.628396 0 0)
(0.632944 0 0)
(0.637477 0 0)
(0.641992 0 0)
(0.646491 0 0)
(0.650973 0 0)
(0.655439 0 0)
(0.659887 0 0)
(0.664317 0 0)
(0.66873 0 0)
(0.673125 0 0)
(0.677502 0 0)
(0.681861 0 0)
(0.686202 0 0)
(0.690524 0 0)
(0.694827 0 0)
(0.699112 0 0)
(0.703377 0 0)
(0.707623 0 0)
(0.711849 0 0)
(0.716056 0 0)
(0.720243 0 0)
(0.72441 0 0)
(0.728556 0 0)
(0.732682 0 0)
(0.736787 0 0)
(0.740871 0 0)
(0.744934 0 0)
(0.748976 0 0)
(0.752996 0 0)
(0.756994 0 0)
(0.76097 0 0)
(0.764924 0 0)
(0.768855 0 0)
(0.772764 0 0)
(0.776649 0 0)
(0.780512 0 0)
(0.784351 0 0)
(0.788167 0 0)
(0.791958 0 0)
(0.795726 0 0)
(0.799469 0 0)
(0.803188 0 0)
(0.806882 0 0)
(0.810551 0 0)
(0.814194 0 0)
(0.817812 0 0)
(0.821404 0 0)
(0.82497 0 0)
(0.82851 0 0)
(0.832023 0 0)
(0.835509 0 0)
(0.838969 0 0)
(0.842401 0 0)
(0.845805 0 0)
(0.849181 0 0)
(0.852529 0 0)
(0.855849 0 0)
(0.85914 0 0)
(0.862402 0 0)
(0.865634 0 0)
(0.868837 0 0)
(0.87201 0 0)
(0.875153 0 0)
(0.878266 0 0)
(0.881348 0 0)
(0.884398 0 0)
(0.887418 0 0)
(0.890405 0 0)
(0.893361 0 0)
(0.896284 0 0)
(0.899175 0 0)
(0.902033 0 0)
(0.904857 0 0)
(0.907648 0 0)
(0.910405 0 0)
(0.913128 0 0)
(0.915816 0 0)
(0.91847 0 0)
(0.921088 0 0)
(0.92367 0 0)
(0.926217 0 0)
(0.928727 0 0)
(0.9312 0 0)
(0.933637 0 0)
(0.936036 0 0)
(0.938397 0 0)
(0.94072 0 0)
(0.943005 0 0)
(0.945251 0 0)
(0.947457 0 0)
(0.949624 0 0)
(0.95175 0 0)
(0.953837 0 0)
(0.955882 0 0)
(0.957886 0 0)
(0.959849 0 0)
(0.961769 0 0)
(0.963647 0 0)
(0.965481 0 0)
(0.967273 0 0)
(0.969021 0 0)
(0.970724 0 0)
(0.972383 0 0)
(0.973996 0 0)
(0.975564 0 0)
(0.977086 0 0)
(0.978562 0 0)
(0.97999 0 0)
(0.981371 0 0)
(0.982704 0 0)
(0.983989 0 0)
(0.985225 0 0)
(0.986411 0 0)
(0.987547 0 0)
(0.988633 0 0)
(0.989668 0 0)
(0.990652 0 0)
(0.991584 0 0)
(0.992463 0 0)
(0.993289 0 0)
(0.994062 0 0)
(0.99478 0 0)
(0.995444 0 0)
(0.996052 0 0)
(0.996605 0 0)
(0.997101 0 0)
(0.997541 0 0)
(0.997923 0 0)
(0.998246 0 0)
(0.998511 0 0)
(0.998717 0 0)
(0.998862 0 0)
(0.998947 0 0)
(0.998971 0 0)
(0.998933 0 0)
(0.998833 0 0)
(0.998669 0 0)
(0.998442 0 0)
(0.99815 0 0)
(0.997793 0 0)
(0.99737 0 0)
(0.996881 0 0)
(0.996324 0 0)
(0.9957 0 0)
(0.995007 0 0)
(0.994245 0 0)
(0.993412 0 0)
(0.992509 0 0)
(0.991535 0 0)
(0.990488 0 0)
(0.989368 0 0)
(0.988175 0 0)
(0.986907 0 0)
(0.985564 0 0)
(0.984144 0 0)
(0.982648 0 0)
(0.981074 0 0)
(0.979421 0 0)
(0.97769 0 0)
(0.975878 0 0)
(0.973985 0 0)
(0.97201 0 0)
(0.969953 0 0)
(0.967812 0 0)
(0.965587 0 0)
(0.963276 0 0)
(0.96088 0 0)
(0.958396 0 0)
(0.955825 0 0)
(0.953165 0 0)
(0.950415 0 0)
(0.947575 0 0)
(0.944643 0 0)
(0.941618 0 0)
(0.938501 0 0)
(0.935289 0 0)
(0.931981 0 0)
(0.928578 0 0)
(0.925078 0 0)
(0.921479 0 0)
(0.917781 0 0)
(0.913984 0 0)
(0.910085 0 0)
(0.906085 0 0)
(0.901982 0 0)
(0.897775 0 0)
(0.893463 0 0)
(0.889045 0 0)
(0.88452 0 0)
(0.879888 0 0)
(0.875147 0 0)
(0.870297 0 0)
(0.865335 0 0)
(0.860263 0 0)
(0.855077 0 0)
(0.849778 0 0)
(0.844365 0 0)
(0.838836 0 0)
(0.833191 0 0)
(0.827429 0 0)
(0.821548 0 0)
(0.815549 0 0)
(0.809429 0 0)
(0.803189 0 0)
(0.796827 0 0)
(0.790342 0 0)
(0.783734 0 0)
(0.777002 0 0)
(0.770145 0 0)
(0.763163 0 0)
(0.756054 0 0)
(0.748818 0 0)
(0.741454 0 0)
(0.733961 0 0)
(0.72634 0 0)
(0.718589 0 0)
(0.710708 0 0)
(0.702696 0 0)
(0.694553 0 0)
(0.686279 0 0)
(0.677872 0 0)
(0.669334 0 0)
(0.660663 0 0)
(0.651859 0 0)
(0.642923 0 0)
(0.633853 0 0)
(0.624651 0 0)
(0.615316 0 0)
(0.605848 0 0)
(0.596247 0 0)
(0.586514 0 0)
(0.576649 0 0)
(0.566652 0 0)
(0.556524 0 0)
(0.546266 0 0)
(0.535877 0 0)
(0.52536 0 0)
(0.514714 0 0)
(0.503941 0 0)
(0.493041 0 0)
(0.482017 0 0)
(0.470868 0 0)
(0.459597 0 0)
(0.448205 0 0)
(0.436694 0 0)
(0.425064 0 0)
(0.413319 0 0)
(0.40146 0 0)
(0.389488 0 0)
(0.377407 0 0)
(0.365219 0 0)
(0.352925 0 0)
(0.340528 0 0)
(0.328032 0 0)
(0.315438 0 0)
(0.30275 0 0)
(0.289971 0 0)
(0.277103 0 0)
(0.26415 0 0)
(0.251116 0 0)
(0.238003 0 0)
(0.224816 0 0)
(0.211558 0 0)
(0.198232 0 0)
(0.184843 0 0)
(0.171395 0 0)
(0.157891 0 0)
(0.144336 0 0)
(0.130734 0 0)
(0.117088 0 0)
(0.103405 0 0)
(0.089687 0 0)
(0.0759396 0 0)
(0.0621669 0 0)
(0.0483735 0 0)
(0.0345641 0 0)
(0.0207431 0 0)
(0.00691514 0 0)
(-0.00691509 0 0)
(-0.020743 0 0)
(-0.034564 0 0)
(-0.0483734 0 0)
(-0.0621668 0 0)
(-0.0759394 0 0)
(-0.0896868 0 0)
(-0.103405 0 0)
(-0.117088 0 0)
(-0.130733 0 0)
(-0.144335 0 0)
(-0.157891 0 0)
(-0.171394 0 0)
(-0.184843 0 0)
(-0.198232 0 0)
(-0.211557 0 0)
(-0.224815 0 0)
(-0.238002 0 0)
(-0.251115 0 0)
(-0.264149 0 0)
(-0.277102 0 0)
(-0.289969 0 0)
(-0.302749 0 0)
(-0.315437 0 0)
(-0.32803 0 0)
(-0.340527 0 0)
(-0.352923 0 0)
(-0.365217 0 0)
(-0.377405 0 0)
(-0.389486 0 0)
(-0.401458 0 0)
(-0.413317 0 0)
(-0.425062 0 0)
(-0.436691 0 0)
(-0.448203 0 0)
(-0.459595 0 0)
(-0.470866 0 0)
(-0.482014 0 0)
(-0.493039 0 0)
(-0.503938 0 0)
(-0.514711 0 0)
(-0.525357 0 0)
(-0.535874 0 0)
(-0.546262 0 0)
(-0.556521 0 0)
(-0.566649 0 0)
(-0.576645 0 0)
(-0.586511 0 0)
(-0.596244 0 0)
(-0.605844 0 0)
(-0.615312 0 0)
(-0.624648 0 0)
(-0.63385 0 0)
(-0.642919 0 0)
(-0.651856 0 0)
(-0.660659 0 0)
(-0.66933 0 0)
(-0.677869 0 0)
(-0.686275 0 0)
(-0.69455 0 0)
(-0.702693 0 0)
(-0.710705 0 0)
(-0.718586 0 0)
(-0.726337 0 0)
(-0.733958 0 0)
(-0.741451 0 0)
(-0.748815 0 0)
(-0.756051 0 0)
(-0.76316 0 0)
(-0.770142 0 0)
(-0.776999 0 0)
(-0.783732 0 0)
(-0.79034 0 0)
(-0.796824 0 0)
(-0.803186 0 0)
(-0.809427 0 0)
(-0.815546 0 0)
(-0.821546 0 0)
(-0.827426 0 0)
(-0.833189 0 0)
(-0.838834 0 0)
(-0.844363 0 0)
(-0.849776 0 0)
(-0.855075 0 0)
(-0.860261 0 0)
(-0.865333 0 0)
(-0.870295 0 0)
(-0.875145 0 0)
(-0.879886 0 0)
(-0.884519 0 0)
(-0.889043 0 0)
(-0.893461 0 0)
(-0.897773 0 0)
(-0.90198 0 0)
(-0.906083 0 0)
(-0.910084 0 0)
(-0.913982 0 0)
(-0.91778 0 0)
(-0.921478 0 0)
(-0.925076 0 0)
(-0.928577 0 0)
(-0.93198 0 0)
(-0.935288 0 0)
(-0.9385 0 0)
(-0.941617 0 0)
(-0.944642 0 0)
(-0.947574 0 0)
(-0.950414 0 0)
(-0.953164 0 0)
(-0.955824 0 0)
(-0.958396 0 0)
(-0.960879 0 0)
(-0.963276 0 0)
(-0.965586 0 0)
(-0.967811 0 0)
(-0.969952 0 0)
(-0.97201 0 0)
(-0.973984 0 0)
(-0.975877 0 0)
(-0.977689 0 0)
(-0.979421 0 0)
(-0.981074 0 0)
(-0.982648 0 0)
(-0.984144 0 0)
(-0.985563 0 0)
(-0.986907 0 0)
(-0.988175 0 0)
(-0.989368 0 0)
(-0.990488 0 0)
(-0.991535 0 0)
(-0.992509 0 0)
(-0.993412 0 0)
(-0.994245 0 0)
(-0.995007 0 0)
(-0.9957 0 0)
(-0.996324 0 0)
(-0.996881 0 0)
(-0.99737 0 0)
(-0.997793 0 0)
(-0.99815 0 0)
(-0.998442 0 0)
(-0.998669 0 0)
(-0.998833 0 0)
(-0.998933 0 0)
(-0.998971 0 0)
(-0.998947 0 0)
(-0.998862 0 0)
(-0.998717 0 0)
(-0.998511 0 0)
(-0.998246 0 0)
(-0.997923 0 0)
(-0.997541 0 0)
(-0.997101 0 0)
(-0.996605 0 0)
(-0.996052 0 0)
(-0.995444 0 0)
(-0.99478 0 0)
(-0.994061 0 0)
(-0.993289 0 0)
(-0.992463 0 0)
(-0.991584 0 0)
(-0.990652 0 0)
(-0.989668 0 0)
(-0.988633 0 0)
(-0.987547 0 0)
(-0.986411 0 0)
(-0.985224 0 0)
(-0.983989 0 0)
(-0.982704 0 0)
(-0.981371 0 0)
(-0.97999 0 0)
(-0.978561 0 0)
(-0.977086 0 0)
(-0.975564 0 0)
(-0.973996 0 0)
(-0.972382 0 0)
(-0.970724 0 0)
(-0.96902 0 0)
(-0.967273 0 0)
(-0.965481 0 0)
(-0.963646 0 0)
(-0.961768 0 0)
(-0.959848 0 0)
(-0.957886 0 0)
(-0.955882 0 0)
(-0.953836 0 0)
(-0.95175 0 0)
(-0.949623 0 0)
(-0.947456 0 0)
(-0.94525 0 0)
(-0.943004 0 0)
(-0.94072 0 0)
(-0.938396 0 0)
(-0.936035 0 0)
(-0.933636 0 0)
(-0.9312 0 0)
(-0.928726 0 0)
(-0.926216 0 0)
(-0.92367 0 0)
(-0.921087 0 0)
(-0.918469 0 0)
(-0.915816 0 0)
(-0.913127 0 0)
(-0.910405 0 0)
(-0.907648 0 0)
(-0.904857 0 0)
(-0.902032 0 0)
(-0.899174 0 0)
(-0.896283 0 0)
(-0.89336 0 0)
(-0.890404 0 0)
(-0.887417 0 0)
(-0.884397 0 0)
(-0.881347 0 0)
(-0.878265 0 0)
(-0.875152 0 0)
(-0.872009 0 0)
(-0.868836 0 0)
(-0.865633 0 0)
(-0.862401 0 0)
(-0.859139 0 0)
(-0.855848 0 0)
(-0.852528 0 0)
(-0.84918 0 0)
(-0.845804 0 0)
(-0.842399 0 0)
(-0.838968 0 0)
(-0.835508 0 0)
(-0.832022 0 0)
(-0.828509 0 0)
(-0.824969 0 0)
(-0.821403 0 0)
(-0.817811 0 0)
(-0.814193 0 0)
(-0.810549 0 0)
(-0.806881 0 0)
(-0.803187 0 0)
(-0.799468 0 0)
(-0.795725 0 0)
(-0.791957 0 0)
(-0.788165 0 0)
(-0.78435 0 0)
(-0.780511 0 0)
(-0.776648 0 0)
(-0.772762 0 0)
(-0.768854 0 0)
(-0.764922 0 0)
(-0.760969 0 0)
(-0.756992 0 0)
(-0.752994 0 0)
(-0.748974 0 0)
(-0.744933 0 0)
(-0.74087 0 0)
(-0.736786 0 0)
(-0.732681 0 0)
(-0.728555 0 0)
(-0.724408 0 0)
(-0.720242 0 0)
(-0.716055 0 0)
(-0.711848 0 0)
(-0.707622 0 0)
(-0.703376 0 0)
(-0.69911 0 0)
(-0.694826 0 0)
(-0.690523 0 0)
(-0.686201 0 0)
(-0.68186 0 0)
(-0.677501 0 0)
(-0.673124 0 0)
(-0.668729 0 0)
(-0.664316 0 0)
(-0.659885 0 0)
(-0.655437 0 0)
(-0.650972 0 0)
(-0.64649 0 0)
(-0.641991 0 0)
(-0.637475 0 0)
(-0.632943 0 0)
(-0.628395 0 0)
(-0.62383 0 0)
(-0.619249 0 0)
(-0.614653 0 0)
(-0.61004 0 0)
(-0.605413 0 0)
(-0.60077 0 0)
(-0.596112 0 0)
(-0.591439 0 0)
(-0.586751 0 0)
(-0.582049 0 0)
(-0.577332 0 0)
(-0.572601 0 0)
(-0.567855 0 0)
(-0.563096 0 0)
(-0.558323 0 0)
(-0.553536 0 0)
(-0.548736 0 0)
(-0.543922 0 0)
(-0.539096 0 0)
(-0.534256 0 0)
(-0.529403 0 0)
(-0.524538 0 0)
(-0.51966 0 0)
(-0.51477 0 0)
(-0.509867 0 0)
(-0.504952 0 0)
(-0.500026 0 0)
(-0.495087 0 0)
(-0.490137 0 0)
(-0.485175 0 0)
(-0.480202 0 0)
(-0.475218 0 0)
(-0.470223 0 0)
(-0.465217 0 0)
(-0.460199 0 0)
(-0.455172 0 0)
(-0.450134 0 0)
(-0.445085 0 0)
(-0.440026 0 0)
(-0.434957 0 0)
(-0.429878 0 0)
(-0.42479 0 0)
(-0.419691 0 0)
(-0.414584 0 0)
(-0.409466 0 0)
(-0.40434 0 0)
(-0.399204 0 0)
(-0.39406 0 0)
(-0.388906 0 0)
(-0.383744 0 0)
(-0.378573 0 0)
(-0.373394 0 0)
(-0.368206 0 0)
(-0.36301 0 0)
(-0.357807 0 0)
(-0.352595 0 0)
(-0.347375 0 0)
(-0.342148 0 0)
(-0.336913 0 0)
(-0.331671 0 0)
(-0.326422 0 0)
(-0.321165 0 0)
(-0.315901 0 0)
(-0.310631 0 0)
(-0.305353 0 0)
(-0.300069 0 0)
(-0.294779 0 0)
(-0.289482 0 0)
(-0.284178 0 0)
(-0.278869 0 0)
(-0.273553 0 0)
(-0.268232 0 0)
(-0.262905 0 0)
(-0.257572 0 0)
(-0.252234 0 0)
(-0.24689 0 0)
(-0.241541 0 0)
(-0.236187 0 0)
(-0.230827 0 0)
(-0.225463 0 0)
(-0.220094 0 0)
(-0.21472 0 0)
(-0.209342 0 0)
(-0.203959 0 0)
(-0.198572 0 0)
(-0.193181 0 0)
(-0.187785 0 0)
(-0.182386 0 0)
(-0.176982 0 0)
(-0.171575 0 0)
(-0.166165 0 0)
(-0.16075 0 0)
(-0.155333 0 0)
(-0.149912 0 0)
(-0.144488 0 0)
(-0.139061 0 0)
(-0.133631 0 0)
(-0.128198 0 0)
(-0.122763 0 0)
(-0.117325 0 0)
(-0.111884 0 0)
(-0.106441 0 0)
(-0.100996 0 0)
(-0.0955488 0 0)
(-0.0900996 0 0)
(-0.0846484 0 0)
(-0.0791955 0 0)
(-0.073741 0 0)
(-0.0682849 0 0)
(-0.0628273 0 0)
(-0.0573685 0 0)
(-0.0519084 0 0)
(-0.0464473 0 0)
(-0.0409852 0 0)
(-0.0355222 0 0)
(-0.0300585 0 0)
(-0.0245942 0 0)
(-0.0191294 0 0)
(-0.0136641 0 0)
(-0.00819858 0 0)
(-0.00273288 0 0)
)
;

boundaryField
{
    left
    {
        type            fixedValue;
        value           uniform (0 0 0);
    }
    right
    {
        type            fixedValue;
        value           uniform (0 0 0);
    }
    frontBackUpDown
    {
        type            empty;
    }
}


// ************************************************************************* //
