/*--------------------------------*- C++ -*----------------------------------*\
| =========                 |                                                 |
| \\      /  F ield         | OpenFOAM: The Open Source CFD Toolbox           |
|  \\    /   O peration     | Version:  2412                                  |
|   \\  /    A nd           | Website:  www.openfoam.com                      |
|    \\/     M anipulation  |                                                 |
\*---------------------------------------------------------------------------*/
FoamFile
{
    version     2.0;
    format      ascii;
    arch        "LSB;label=32;scalar=64";
    class       volScalarField;
    location    "8";
    object      p;
}
// * * * * * * * * * * * * * * * * * * * * * * * * * * * * * * * * * * * * * //

dimensions      [0 2 -2 0 0 0 0];

internalField   nonuniform List<scalar> 
2200
(
0.38547
0.385623
0.386933
0.39156
0.403239
0.428296
0.474514
0.554198
0.682439
0.873033
1.08795
1.26764
1.39138
1.47052
1.5167
1.54175
1.55428
1.55962
1.56164
1.56191
0.380125
0.380413
0.382028
0.386983
0.399015
0.424589
0.47225
0.55338
0.681298
0.871104
1.08679
1.26879
1.39313
1.47116
1.51685
1.54113
1.55291
1.55764
1.55906
1.55914
0.371258
0.371469
0.373538
0.379363
0.392493
0.418653
0.466988
0.548906
0.678568
0.872005
1.09032
1.27378
1.39867
1.47621
1.52097
1.54423
1.55463
1.55874
1.55985
1.56005
0.358335
0.358397
0.360734
0.367429
0.381958
0.409841
0.459369
0.542834
0.674798
0.87342
1.09515
1.28086
1.40791
1.48574
1.52892
1.5505
1.5609
1.56521
1.56664
1.56703
0.340298
0.340095
0.342235
0.348784
0.364055
0.394173
0.447541
0.534876
0.670386
0.873958
1.10158
1.29232
1.42034
1.49737
1.54105
1.56348
1.57424
1.57922
1.58103
1.5814
0.318273
0.31845
0.319971
0.324548
0.338568
0.369248
0.425051
0.518166
0.662086
0.874117
1.10861
1.30379
1.43465
1.51487
1.55955
1.58242
1.59415
1.60021
1.60263
1.60301
0.285776
0.28634
0.287889
0.292054
0.304673
0.334718
0.392513
0.48965
0.642571
0.868801
1.11596
1.31893
1.45329
1.53635
1.5828
1.60856
1.62248
1.62977
1.63287
1.6332
0.235338
0.235418
0.23715
0.242732
0.257404
0.288354
0.34825
0.451099
0.61503
0.858569
1.1219
1.33525
1.47671
1.56521
1.61737
1.6467
1.66226
1.66956
1.67265
1.67326
0.177289
0.1766
0.178675
0.186073
0.201475
0.231811
0.293348
0.403595
0.581319
0.843447
1.1266
1.35753
1.51252
1.60923
1.66692
1.69999
1.71608
1.72231
1.72573
1.72697
0.119676
0.118626
0.121165
0.130671
0.147967
0.179597
0.242241
0.35666
0.544529
0.826059
1.13495
1.39097
1.56594
1.67727
1.74244
1.77833
1.79558
1.80212
1.80578
1.80746
0.0624472
0.0615178
0.0642168
0.0746908
0.094367
0.130261
0.199094
0.320344
0.515237
0.814083
1.15444
1.44658
1.6496
1.77617
1.8506
1.89058
1.90866
1.91599
1.9193
1.9208
-0.00842465
-0.00890958
-0.00501196
0.00618764
0.0294846
0.0749528
0.154646
0.285642
0.4956
0.819828
1.19836
1.52892
1.75807
1.90311
1.98499
2.0259
2.04531
2.05438
2.05723
2.05846
-0.102437
-0.102837
-0.100163
-0.0900627
-0.0621245
-0.00576016
0.0904785
0.241827
0.482854
0.847019
1.2687
1.63696
1.89077
2.04681
2.13104
2.17181
2.19358
2.20489
2.20791
2.20917
-0.229852
-0.229666
-0.225333
-0.215416
-0.185281
-0.119484
-0.00721619
0.176444
0.465574
0.886019
1.36268
1.76737
2.03462
2.19569
2.28165
2.32486
2.35061
2.36447
2.36854
2.37002
-0.39293
-0.393623
-0.390117
-0.379535
-0.34611
-0.271795
-0.14046
0.07975
0.427508
0.920624
1.46152
1.89968
2.18288
2.35176
2.44711
2.49745
2.52555
2.54052
2.54535
2.54699
-0.589599
-0.589615
-0.584823
-0.573819
-0.541624
-0.464518
-0.315684
-0.0564015
0.355092
0.930531
1.54848
2.03452
2.34345
2.52757
2.63735
2.69865
2.72715
2.74231
2.74823
2.74994
-0.822398
-0.822661
-0.816639
-0.798925
-0.756857
-0.675525
-0.516296
-0.22838
0.242545
0.906194
1.61421
2.16731
2.51827
2.72946
2.85756
2.93014
2.96107
2.97633
2.9832
2.98463
-1.09962
-1.09977
-1.09428
-1.07556
-1.02646
-0.930026
-0.750243
-0.426985
0.10301
0.856181
1.66657
2.3089
2.72239
2.96975
3.1167
3.19611
3.22984
3.24534
3.25304
3.25464
-1.43066
-1.4299
-1.42361
-1.40231
-1.34617
-1.23692
-1.02776
-0.656537
-0.0535451
0.803336
1.73466
2.4778
2.96285
3.25356
3.41288
3.49506
3.53393
3.55205
3.56092
3.56269
-1.82226
-1.8223
-1.816
-1.78986
-1.72282
-1.59072
-1.33963
-0.908362
-0.205624
0.779623
1.84762
2.70034
3.25439
3.58196
3.75327
3.83833
3.8819
3.90211
3.91214
3.91427
-2.30335
-2.30181
-2.29408
-2.26743
-2.18821
-2.02035
-1.70692
-1.18034
-0.334236
0.811458
2.0345
2.99824
3.612
3.96383
4.1432
4.23141
4.27878
4.30058
4.31129
4.3131
-2.87883
-2.87789
-2.86768
-2.83392
-2.7412
-2.53325
-2.14123
-1.48034
-0.445901
0.900555
2.30199
3.36671
4.02078
4.395
4.58027
4.67087
4.72019
4.74198
4.75355
4.75472
-3.6076
-3.60317
-3.58495
-3.53469
-3.40834
-3.13865
-2.63793
-1.81143
-0.55436
1.02232
2.6153
3.78826
4.48048
4.8593
5.05532
5.15161
5.20053
5.224
5.23609
5.23696
-4.51099
-4.5055
-4.4817
-4.40861
-4.22622
-3.85766
-3.21493
-2.18247
-0.68258
1.14322
2.94764
4.2366
4.97272
5.35756
5.56222
5.66383
5.71101
5.73731
5.7519
5.75247
-5.71612
-5.69292
-5.62603
-5.47727
-5.19316
-4.69076
-3.86528
-2.5868
-0.818574
1.27076
3.30254
4.71236
5.48999
5.89782
6.10456
6.19575
6.23361
6.25677
6.27225
6.2738
-7.251
-7.19677
-7.05733
-6.78388
-6.32153
-5.60873
-4.53784
-2.97472
-0.927835
1.4399
3.70245
5.24169
6.09239
6.50483
6.68319
6.75954
6.78185
6.79089
6.79483
6.79934
-9.17455
-8.99715
-8.66272
-8.18962
-7.51209
-6.54436
-5.19084
-3.31025
-0.952752
1.74573
4.29773
5.99934
6.91926
7.34236
7.49466
7.56017
7.57807
7.57877
7.56771
7.57535
-11.3171
-10.8559
-10.2951
-9.63132
-8.71974
-7.47403
-5.79515
-3.55166
-0.816695
2.27105
5.16039
7.03722
8.00436
8.45097
8.65713
8.73671
8.77259
8.8004
8.81059
8.81628
-13.2567
-12.6109
-11.8832
-11.0364
-9.89733
-8.36719
-6.3361
-3.6987
-0.561793
2.91082
6.08271
8.09466
9.11927
9.61594
9.86283
9.9664
10.0235
10.052
10.0648
10.0687
-14.8094
-14.0675
-13.2784
-12.2993
-10.9626
-9.17234
-6.80892
-3.80165
-0.298879
3.51261
6.94494
9.10408
10.2056
10.7622
11.0305
11.154
11.2209
11.2612
11.2858
11.288
-16.0825
-15.2359
-14.44
-13.3558
-11.8596
-9.85556
-7.21329
-3.88506
-0.0759345
4.01637
7.71957
10.0538
11.2384
11.8565
12.1411
12.2838
12.363
12.405
12.4295
12.4307
-17.071
-16.1651
-15.36
-14.1948
-12.5772
-10.4111
-7.55211
-3.94097
0.142862
4.48347
8.46191
10.9484
12.2344
12.8832
13.1865
13.3365
13.4201
13.4692
13.5034
13.5085
-17.8045
-16.9086
-16.1054
-14.8647
-13.1398
-10.847
-7.81479
-3.94723
0.398561
4.98622
9.17097
11.7936
13.1418
13.8118
14.1233
14.2888
14.398
14.4707
14.5183
14.5268
-18.3331
-17.4271
-16.6593
-15.3722
-13.5776
-11.1878
-7.99899
-3.90248
0.667341
5.47903
9.8132
12.5398
13.9398
14.6349
14.9845
15.1805
15.2986
15.3752
15.4322
15.4317
-18.768
-17.8485
-17.0627
-15.7258
-13.8921
-11.4265
-8.11579
-3.83446
0.887608
5.87431
10.3413
13.1667
14.6388
15.3839
15.7623
15.9824
16.1258
16.2148
16.2747
16.2809
-19.0427
-18.1415
-17.3272
-15.9505
-14.1081
-11.5885
-8.19193
-3.78735
1.02625
6.13926
10.7469
13.6864
15.2442
16.0447
16.4661
16.7112
16.8682
16.9775
17.0562
17.0608
-19.2536
-18.3492
-17.461
-16.0316
-14.2182
-11.6767
-8.23757
-3.76973
1.09324
6.30333
11.0546
14.1166
15.7642
16.6296
17.092
17.3672
17.5474
17.6626
17.7516
17.7546
-19.3855
-18.4845
-17.5494
-16.0542
-14.2345
-11.6914
-8.24349
-3.76416
1.12974
6.41718
11.2937
14.4698
16.2063
17.1349
17.6501
17.9554
18.1514
18.2851
18.3926
18.3907
-19.4739
-18.5893
-17.5856
-16.0508
-14.1938
-11.6404
-8.20535
-3.74002
1.1714
6.51385
11.4821
14.7547
16.5827
17.5784
18.1397
18.4823
18.7093
18.8484
18.9729
18.9693
-19.5506
-18.6508
-17.6182
-16.0415
-14.1313
-11.549
-8.1228
-3.68904
1.22849
6.60116
11.6305
14.9855
16.9027
17.9612
18.5646
18.9413
19.2059
19.3765
19.5101
19.4985
-19.6065
-18.7111
-17.6248
-16.0331
-14.077
-11.4523
-8.01515
-3.61719
1.29382
6.67508
11.7466
15.1719
17.1606
18.2791
18.9323
19.3506
19.6631
19.862
19.9906
19.9782
-19.6538
-18.7557
-17.6189
-16.0495
-14.0484
-11.3806
-7.91444
-3.53641
1.35864
6.73393
11.8351
15.3188
17.3568
18.5248
19.2436
19.7117
20.0593
20.2858
20.4381
20.4211
-19.7006
-18.7997
-17.6376
-16.0753
-14.049
-11.3487
-7.84581
-3.46484
1.41785
6.78051
11.897
15.4218
17.4879
18.6943
19.4958
20.0353
20.4245
20.6725
20.8346
20.8232
-19.7543
-18.8477
-17.6768
-16.1224
-14.0827
-11.3612
-7.82377
-3.42043
1.46555
6.81425
11.927
15.4683
17.5575
18.8031
19.6905
20.3167
20.7689
21.0384
21.1838
21.1842
-19.8237
-18.9104
-17.7367
-16.187
-14.1454
-11.4186
-7.8561
-3.42209
1.4866
6.82514
11.9152
15.4508
17.5579
18.8604
19.8274
20.5518
21.11
21.4302
21.5127
21.4949
-19.9102
-18.9919
-17.8188
-16.2756
-14.2409
-11.5219
-7.94736
-3.48769
1.45318
6.79428
11.8495
15.3768
17.491
18.8672
19.9104
20.732
21.4164
21.8718
21.9747
21.7844
-20.0174
-19.0917
-17.9234
-16.3858
-14.3653
-11.6635
-8.0884
-3.61907
1.35637
6.7101
11.7199
15.2415
17.3607
18.8147
19.9168
20.8355
21.6635
22.3609
22.5636
22.4552
-20.1433
-19.2072
-18.0467
-16.5101
-14.5089
-11.8272
-8.25883
-3.79606
1.20117
6.56314
11.5179
15.0235
17.1802
18.668
19.8104
20.7961
21.684
22.4094
22.6027
22.4624
-20.2793
-19.3376
-18.1862
-16.6441
-14.6625
-11.9986
-8.43936
-3.9937
1.00267
6.36461
11.2677
14.7495
16.9293
18.411
19.55
20.5252
21.39
21.9287
22.0168
21.9337
-20.4193
-19.4808
-18.3435
-16.7972
-14.8293
-12.1769
-8.62567
-4.20416
0.772651
6.12257
10.9876
14.4397
16.5918
18.0416
19.1414
20.0386
20.7899
21.1048
21.0883
21.0837
-20.559
-19.6383
-18.5152
-16.9757
-15.015
-12.3642
-8.81733
-4.4251
0.522877
5.84797
10.6892
14.0933
16.1727
17.563
18.5808
19.341
19.8756
20.1378
20.1413
20.1841
-20.6966
-19.8067
-18.697
-17.1755
-15.2186
-12.557
-9.01299
-4.65402
0.262473
5.55714
10.3646
13.6977
15.68
16.9724
17.8703
18.5022
18.8919
19.0214
18.9383
19.101
-20.8311
-19.9684
-18.8753
-17.3741
-15.4154
-12.737
-9.19785
-4.8753
0.00674371
5.26382
10.0097
13.2479
15.1195
16.2785
17.029
17.507
17.7349
17.7666
17.6947
17.8824
-20.9529
-20.0951
-19.0171
-17.5307
-15.5691
-12.8796
-9.34849
-5.06533
-0.224845
4.97847
9.63342
12.7548
14.5023
15.5048
16.0998
16.4311
16.525
16.3453
16.0912
16.1793
-21.0546
-20.1808
-19.1019
-17.6193
-15.661
-12.9698
-9.45314
-5.21295
-0.423809
4.70437
9.24564
12.235
13.851
14.6946
15.1226
15.2966
15.2231
14.5871
13.6135
13.583
-21.1308
-20.231
-19.1394
-17.6505
-15.6957
-13.0082
-9.51449
-5.32046
-0.592728
4.44103
8.85277
11.7049
13.1883
13.8873
14.1333
14.0999
13.8198
12.7618
10.6652
8.81502
-21.1888
-20.2594
-19.1463
-17.6417
-15.6876
-13.0092
-9.5435
-5.39766
-0.738189
4.19021
8.4647
11.1799
12.5444
13.1272
13.1959
12.9031
12.3464
11.3418
7.95163
-1.017
-21.2264
-20.2707
-19.1327
-17.6085
-15.6535
-12.9866
-9.55067
-5.4555
-0.867689
3.95045
8.07905
10.656
11.92
12.4189
12.3523
11.8586
11.1576
10.4736
9.94059
6.49811
-21.2546
-20.2728
-19.111
-17.5673
-15.6116
-12.9554
-9.55318
-5.51359
-1.00084
3.70507
7.68523
10.1286
11.3159
11.7726
11.6905
11.2605
10.7576
10.6946
11.5057
10.6772
-21.267
-20.2726
-19.0944
-17.5352
-15.5762
-12.9299
-9.56407
-5.58386
-1.14835
3.44827
7.29255
9.619
10.7639
11.2371
11.2699
11.0863
10.85
10.7683
11.2035
10.754
-21.2753
-20.2682
-19.0803
-17.5087
-15.5509
-12.9166
-9.58827
-5.67018
-1.31202
3.18127
6.91256
9.14603
10.2899
10.8441
11.0478
11.0698
10.9429
10.7153
10.8113
10.7601
-21.2618
-20.2561
-19.0636
-17.4843
-15.531
-12.9112
-9.62229
-5.76907
-1.48688
2.91006
6.55374
8.72638
9.9089
10.5751
10.9339
11.0885
11.025
10.8012
10.9054
10.9451
-21.2268
-20.2144
-19.0259
-17.4449
-15.5055
-12.9014
-9.65457
-5.87071
-1.66414
2.64333
6.21948
8.36791
9.62532
10.3948
10.8614
11.1156
11.1665
11.0453
11.159
11.195
-21.1711
-20.1485
-18.9636
-17.3784
-15.4604
-12.8731
-9.67405
-5.96599
-1.83379
2.38811
5.91029
8.07509
9.42405
10.2773
10.8085
11.154
11.3566
11.3751
11.469
11.4778
-21.0673
-20.0441
-18.8668
-17.2661
-15.3889
-12.8152
-9.67145
-6.04442
-1.98871
2.14711
5.61966
7.85288
9.27545
10.2121
10.8023
11.2335
11.5889
11.7173
11.803
11.8019
-20.9087
-19.8889
-18.7101
-17.1029
-15.2834
-12.7168
-9.64295
-6.09794
-2.125
1.92228
5.36746
7.66104
9.15861
10.1971
10.8749
11.3676
11.8125
12.0005
12.0922
12.1014
-20.6889
-19.6552
-18.4884
-16.8745
-15.128
-12.573
-9.58852
-6.11396
-2.2592
1.71899
5.14595
7.49775
9.08216
10.1993
10.9814
11.5419
12.0024
12.2479
12.3411
12.3521
-20.3133
-19.3648
-18.1766
-16.6075
-14.8789
-12.3944
-9.49741
-6.12884
-2.37164
1.53611
4.94693
7.35189
9.02271
10.229
11.0922
11.712
12.1991
12.5201
12.652
12.6767
-19.8779
-18.9044
-17.7697
-16.2762
-14.5328
-12.1852
-9.38485
-6.11576
-2.46376
1.37097
4.75986
7.2113
8.96752
10.2656
11.211
11.9033
12.4563
12.872
13.0564
13.0908
-19.187
-18.3732
-17.251
-15.843
-14.1563
-11.9247
-9.23477
-6.08127
-2.53803
1.21794
4.57294
7.06087
8.89717
10.2941
11.3373
12.1182
12.738
13.2151
13.442
13.4828
-18.3712
-17.5875
-16.6027
-15.3242
-13.7184
-11.6113
-9.05217
-6.02657
-2.60065
1.06551
4.36911
6.8822
8.79196
10.2832
11.4113
12.2493
12.8955
13.3839
13.6447
13.7028
-17.3506
-16.7323
-15.8726
-14.7221
-13.2343
-11.2675
-8.8531
-5.96064
-2.66019
0.897106
4.12876
6.64853
8.59432
10.1285
11.2866
12.1274
12.7676
13.2585
13.5537
13.6342
-16.1097
-15.7565
-15.0853
-14.0785
-12.7311
-10.9114
-8.64666
-5.8925
-2.72852
0.684733
3.81632
6.29988
8.21776
9.72338
10.8572
11.6837
12.3223
12.8269
13.1516
13.2537
-14.9242
-14.7555
-14.3135
-13.4781
-12.2684
-10.5807
-8.44551
-5.83081
-2.82744
0.400865
3.39454
5.77988
7.59945
9.02081
10.1092
10.9278
11.5672
12.0731
12.4115
12.5351
-14.4813
-14.4538
-13.9539
-13.0939
-11.9202
-10.3165
-8.2797
-5.80046
-2.9791
0.0403603
2.84367
5.06228
6.73861
8.05405
9.08666
9.87917
10.4955
10.9749
11.3166
11.4675
-14.589
-14.5041
-14.0434
-13.0933
-11.8154
-10.1711
-8.16628
-5.80639
-3.17676
-0.384362
2.18234
4.20514
5.74203
6.94656
7.88257
8.58733
9.12044
9.52991
9.8303
9.9879
-14.682
-14.6248
-14.3887
-13.3352
-11.8759
-10.1081
-8.08556
-5.82776
-3.36462
-0.785
1.57919
3.46088
4.8854
5.98458
6.80751
7.38637
7.79922
8.10249
8.30959
8.41343
-14.9782
-15.0632
-14.8424
-13.372
-11.6972
-9.87058
-7.90445
-5.76849
-3.46308
-1.0911
1.09506
2.83307
4.12587
5.10277
5.81569
6.28844
6.60724
6.82409
6.9523
7.00607
-14.3969
-14.6523
-14.1897
-12.6071
-10.974
-9.2526
-7.45827
-5.51847
-3.42673
-1.29822
0.668648
2.19806
3.29821
4.10973
4.69534
5.06871
5.30891
5.4628
5.55076
5.58568
-11.743
-11.9585
-11.6309
-10.7014
-9.53394
-8.16306
-6.66572
-5.01938
-3.22807
-1.39
0.306074
1.5966
2.49317
3.14513
3.61952
3.91999
4.10943
4.22861
4.29651
4.32619
-7.9386
-8.00878
-7.95354
-7.70875
-7.24631
-6.49777
-5.49541
-4.27547
-2.86549
-1.37314
0.0172995
1.07652
1.79859
2.32177
2.70714
2.95034
3.1022
3.1987
3.25472
3.2791
-4.55876
-4.59988
-4.63948
-4.69414
-4.68783
-4.47863
-4.01994
-3.30145
-2.3584
-1.23648
-0.169453
0.68441
1.26581
1.68509
1.99534
2.18794
2.31036
2.39555
2.45036
2.47729
-2.11947
-2.1628
-2.25525
-2.40266
-2.56064
-2.62735
-2.5431
-2.24599
-1.71695
-0.997406
-0.2264
0.44597
0.904635
1.23033
1.48132
1.63725
1.74066
1.8195
1.86726
1.88797
-0.681167
-0.7249
-0.830722
-0.979236
-1.14272
-1.27797
-1.35207
-1.30471
-1.07894
-0.674214
-0.165291
0.344292
0.694079
0.933422
1.14164
1.2713
1.35721
1.41986
1.45449
1.46891
0.0259934
-0.00860842
-0.100643
-0.230491
-0.362091
-0.466648
-0.556591
-0.601493
-0.543893
-0.343804
-0.0354491
0.331707
0.597921
0.75651
0.933673
1.03566
1.10152
1.14477
1.16651
1.17424
0.344821
0.313508
0.22662
0.109093
0.00523504
-0.0597881
-0.120442
-0.167374
-0.160262
-0.0654339
0.116827
0.343322
0.577046
0.654703
0.814692
0.882859
0.926059
0.952569
0.964842
0.968709
0.448534
0.42528
0.34744
0.235794
0.140323
0.0853873
0.0479146
0.0352476
0.0560993
0.120507
0.236992
0.392662
0.552184
0.617293
0.732836
0.773649
0.798301
0.812126
0.818143
0.819907
0.441309
0.426355
0.364525
0.26653
0.172668
0.105896
0.0670758
0.0782354
0.127163
0.20269
0.304746
0.423121
0.536038
0.589292
0.659396
0.679783
0.690739
0.695794
0.697114
0.696653
0.383866
0.374052
0.331898
0.262312
0.185597
0.114562
0.0568491
0.0593477
0.114693
0.204861
0.312952
0.413361
0.495332
0.523539
0.563528
0.575574
0.579702
0.58052
0.579639
0.578361
0.317161
0.310692
0.28603
0.246614
0.200704
0.145231
0.0826352
0.0618261
0.0907987
0.170986
0.27627
0.35841
0.415136
0.426419
0.449687
0.458635
0.462611
0.464299
0.463483
0.463136
0.266295
0.262801
0.249816
0.230177
0.210484
0.179298
0.134364
0.104633
0.100467
0.144604
0.2222
0.273886
0.316225
0.326486
0.340055
0.345292
0.350903
0.355984
0.356573
0.356871
0.234207
0.23285
0.227614
0.219301
0.215924
0.204742
0.181657
0.161755
0.139421
0.144536
0.177332
0.198719
0.236433
0.247668
0.257323
0.255932
0.258496
0.262006
0.262557
0.262682
0.217253
0.216571
0.215485
0.213629
0.216867
0.216569
0.20917
0.202868
0.176557
0.157953
0.155938
0.158617
0.18466
0.190631
0.199097
0.195013
0.192955
0.190536
0.187085
0.186404
0.213027
0.212008
0.210804
0.208717
0.209724
0.208812
0.207647
0.208731
0.189311
0.167737
0.153929
0.142419
0.153368
0.151613
0.157442
0.152575
0.147614
0.14081
0.133017
0.13141
0.21385
0.212214
0.207773
0.200167
0.193139
0.183484
0.177919
0.180325
0.176015
0.17005
0.161484
0.14161
0.143121
0.131527
0.131697
0.121387
0.112912
0.104101
0.0933127
0.09095
0.209812
0.208074
0.200103
0.186837
0.173188
0.155422
0.141877
0.141325
0.1449
0.1557
0.159726
0.142647
0.141458
0.120841
0.112981
0.0989748
0.0853394
0.0756707
0.0625207
0.059947
0.192521
0.19127
0.182555
0.16927
0.156521
0.138437
0.122445
0.114745
0.110787
0.120285
0.131852
0.123952
0.124422
0.10202
0.0896108
0.0755432
0.0618511
0.054599
0.0404841
0.0385601
0.161807
0.160859
0.15408
0.145802
0.140156
0.128941
0.116414
0.103719
0.0861614
0.0828096
0.08973
0.0844257
0.086515
0.0695738
0.0610692
0.0518436
0.0407528
0.0387739
0.0270653
0.0258007
0.124404
0.124213
0.120069
0.116573
0.116067
0.110392
0.104291
0.0945008
0.0731161
0.0596836
0.0562927
0.046103
0.0476324
0.0383761
0.0350094
0.03061
0.0232486
0.0250532
0.0164704
0.0163276
0.0887803
0.0882563
0.0856192
0.0839587
0.0835032
0.0785126
0.0771228
0.0748278
0.0631058
0.0509241
0.0406273
0.025841
0.0255724
0.0196185
0.0174782
0.0175244
0.0105691
0.014002
0.0074316
0.00693571
0.0556435
0.0555528
0.0526574
0.0507641
0.0496425
0.0425546
0.0440898
0.0456897
0.0427078
0.039963
0.0318524
0.0178125
0.0168364
0.0125356
0.0089553
0.00951812
0.00281938
0.00658691
0.000180647
0.000412284
0.0239298
0.0254254
0.0224684
0.0202816
0.0184521
0.0112732
0.0130638
0.0141441
0.0121886
0.0149395
0.0131664
0.0075522
0.00738193
0.00645284
0.00137081
0.00604956
-0.000692593
0.00263024
-0.00260513
-0.00193122
13.5176
17.213
18.0727
19.2133
20.114
20.896
21.5555
22.0771
22.3932
22.4185
17.4008
19.1484
19.6611
20.3647
20.958
21.4532
21.8464
22.123
22.2484
22.1894
19.3869
20.2345
20.6353
21.0643
21.4296
21.7306
21.9598
22.1114
22.176
22.1773
20.4695
20.9832
21.2385
21.4998
21.7155
21.8909
22.022
22.1095
22.154
22.1769
21.1731
21.4315
21.5893
21.7476
21.8815
21.9907
22.0734
22.1307
22.1617
22.1915
21.5474
21.7271
21.8123
21.921
22.0041
22.0721
22.126
22.1666
22.193
22.2179
21.8043
21.9234
21.9658
22.0406
22.096
22.1428
22.181
22.2109
22.2309
22.2556
21.9852
22.0588
22.0945
22.1392
22.1777
22.2106
22.238
22.2616
22.2799
22.3013
22.1239
22.1733
22.1986
22.2247
22.2519
22.2764
22.2976
22.3182
22.3351
22.3556
22.2384
22.2677
22.2883
22.3067
22.3261
22.3454
22.3634
22.3816
22.3953
22.4143
22.3388
22.3582
22.3755
22.3906
22.4063
22.4213
22.4344
22.4475
22.4561
22.4724
22.4334
22.4477
22.4634
22.4771
22.4892
22.4998
22.5093
22.5176
22.5213
22.5328
22.5266
22.5382
22.5526
22.5623
22.5702
22.5779
22.5853
22.5921
22.5939
22.6018
22.6263
22.6311
22.6397
22.6454
22.6491
22.6538
22.66
22.6679
22.672
22.6814
22.7419
22.7287
22.721
22.7151
22.7125
22.7137
22.7203
22.733
22.7472
22.7767
22.863
22.8071
22.7766
22.7589
22.7507
22.751
22.7596
22.7785
22.81
22.8794
)
;

boundaryField
{
    wall-4
    {
        type            zeroGradient;
    }
    pressure-outlet-7
    {
        type            fixedValue;
        value           uniform 0;
    }
    velocity-inlet-6
    {
        type            zeroGradient;
    }
    velocity-inlet-5
    {
        type            zeroGradient;
    }
    frontAndBackPlanes
    {
        type            empty;
    }
}


// ************************************************************************* //
