/*--------------------------------*- C++ -*----------------------------------*\
| =========                 |                                                 |
| \\      /  F ield         | OpenFOAM: The Open Source CFD Toolbox           |
|  \\    /   O peration     | Version:  2412                                  |
|   \\  /    A nd           | Website:  www.openfoam.com                      |
|    \\/     M anipulation  |                                                 |
\*---------------------------------------------------------------------------*/
FoamFile
{
    version     2.0;
    format      ascii;
    arch        "LSB;label=32;scalar=64";
    class       surfaceScalarField;
    location    "8";
    object      phi;
}
// * * * * * * * * * * * * * * * * * * * * * * * * * * * * * * * * * * * * * //

dimensions      [0 3 -1 0 0 0 0];

oriented        oriented;

internalField   nonuniform List<scalar> 
4262
(
-0.00124911
0.221762
-0.00316302
0.830567
-0.00522971
1.76921
-0.00737273
3.16731
-0.0102131
5.18744
-0.0131446
8.0173
-0.0158845
11.8499
-0.0180284
16.8219
-0.0204434
22.8842
-0.0205871
29.5285
-0.0204204
29.5282
-0.018605
22.88
-0.0156944
16.8168
-0.0129486
11.8444
-0.0101675
8.01158
-0.00784098
5.18228
-0.0060192
3.16334
-0.00456137
1.76569
-0.00279905
0.826891
0.217714
-0.00320383
0.224966
-0.00778358
0.835147
-0.0137467
1.77517
-0.0208737
3.17444
-0.0292487
5.19582
-0.0371314
8.02518
-0.0442151
11.857
-0.0528354
16.8305
-0.0615768
22.893
-0.060557
29.5275
-0.0560302
29.5237
-0.0498252
22.8738
-0.0438005
16.8108
-0.0355554
11.8361
-0.0287073
8.00474
-0.0227584
5.17633
-0.0161765
3.15676
-0.0108777
1.76039
-0.00481764
0.820831
0.212896
-0.00596009
0.230926
-0.0138176
0.843004
-0.0237736
1.78513
-0.0352602
3.18592
-0.0481085
5.20867
-0.0610771
8.03815
-0.0747858
11.8707
-0.0850084
16.8407
-0.0969197
22.9049
-0.0974119
29.528
-0.0939527
29.5202
-0.0848132
22.8647
-0.0718921
16.7979
-0.0593527
11.8236
-0.0460531
7.99144
-0.0340691
5.16434
-0.0237449
3.14644
-0.0133638
1.75001
-0.00447652
0.811944
0.208419
-0.00911132
0.240037
-0.0210439
0.854937
-0.0357267
1.79981
-0.0526646
3.20286
-0.0691422
5.22514
-0.0843504
8.05336
-0.102597
11.8889
-0.117896
16.856
-0.136175
22.9232
-0.134453
29.5262
-0.126157
29.5119
-0.11275
22.8513
-0.0944633
16.7796
-0.0775507
11.8067
-0.0594174
7.9733
-0.0436794
5.14861
-0.0289655
3.13173
-0.0154616
1.7365
-0.00435854
0.800841
0.204061
-0.0131768
0.253214
-0.0291514
0.870911
-0.0480846
1.81874
-0.0690568
3.22383
-0.090642
5.24673
-0.110796
8.07351
-0.131327
11.9095
-0.148816
16.8735
-0.169719
22.9441
-0.169849
29.5264
-0.162423
29.5045
-0.146059
22.8349
-0.121635
16.7552
-0.0963707
11.7814
-0.0727133
7.94965
-0.0529424
5.12884
-0.0349953
3.11378
-0.0186515
1.72016
-0.00484588
0.787035
0.199215
-0.0164418
0.269655
-0.036328
0.890798
-0.0589724
1.84139
-0.0842186
3.24908
-0.113125
5.27564
-0.13807
8.09845
-0.160777
11.9322
-0.184581
16.8973
-0.20944
22.9689
-0.207163
29.5241
-0.194905
29.4922
-0.170605
22.8106
-0.142036
16.7266
-0.113005
11.7524
-0.0864176
7.92306
-0.0615773
5.10399
-0.0402579
3.09246
-0.0226511
1.70255
-0.00679676
0.771181
0.192418
-0.0148571
0.284513
-0.0350495
0.91099
-0.0613685
1.86771
-0.0928867
3.2806
-0.12664
5.30939
-0.162694
8.13451
-0.191435
11.9609
-0.219014
16.9249
-0.244825
22.9947
-0.242334
29.5216
-0.229396
29.4793
-0.201293
22.7825
-0.168184
16.6935
-0.129385
11.7136
-0.097581
7.89125
-0.0715911
5.07801
-0.0478637
3.06873
-0.0275486
1.68224
-0.00990217
0.753534
0.182516
-0.0135551
0.298068
-0.0397165
0.937151
-0.072106
1.9001
-0.10844
3.31693
-0.148089
5.34904
-0.189541
8.17596
-0.225533
11.9969
-0.25888
16.9582
-0.289046
23.0249
-0.283097
29.5157
-0.262387
29.4586
-0.225109
22.7452
-0.18608
16.6545
-0.147938
11.6755
-0.115829
7.85915
-0.0836595
5.04584
-0.0556073
3.04068
-0.0316619
1.65829
-0.0130545
0.734927
0.169462
-0.0179132
0.315981
-0.05065
0.969888
-0.0868365
1.93628
-0.124274
3.35437
-0.164139
5.3889
-0.210684
8.22251
-0.255029
12.0412
-0.295159
16.9984
-0.328435
23.0582
-0.321209
29.5084
-0.296965
29.4343
-0.258988
22.7072
-0.219795
16.6153
-0.172715
11.6284
-0.128744
7.81517
-0.0894211
5.00651
-0.0564686
3.00773
-0.0296904
1.63151
-0.0135121
0.718748
0.15595
-0.0256459
0.341627
-0.067915
1.01216
-0.106267
1.97464
-0.145804
3.39391
-0.189649
5.43275
-0.2393
8.27216
-0.290703
12.0926
-0.338514
17.0462
-0.378891
23.0986
-0.369047
29.4986
-0.337988
29.4033
-0.293123
22.6624
-0.241865
16.564
-0.192213
11.5787
-0.142345
7.76531
-0.0939813
4.95815
-0.0520583
2.9658
-0.0201639
1.59962
-0.00958744
0.708172
0.146362
-0.0333707
0.374998
-0.085752
1.06454
-0.126612
2.0155
-0.169283
3.43658
-0.215214
5.47868
-0.265577
8.32252
-0.320363
12.1474
-0.372942
17.0988
-0.422526
23.1481
-0.413334
29.4894
-0.383758
29.3737
-0.338353
22.617
-0.283462
16.5091
-0.219884
11.5152
-0.155804
7.70123
-0.101023
4.90337
-0.0528209
2.9176
-0.0123793
1.55918
-0.00562003
0.701413
0.140742
-0.0372592
0.412257
-0.0941848
1.12146
-0.138215
2.05953
-0.187333
3.48569
-0.243091
5.53444
-0.302769
8.3822
-0.362626
12.2073
-0.422366
17.1585
-0.475308
23.2011
-0.471486
29.4856
-0.440395
29.3426
-0.383556
22.5601
-0.313015
16.4386
-0.243307
11.4454
-0.177378
7.6353
-0.113203
4.83919
-0.0572407
2.86164
-0.0120509
1.51399
-0.00586799
0.69523
0.134874
-0.0421449
0.454402
-0.106872
1.18619
-0.1558
2.10845
-0.212726
3.54262
-0.274511
5.59622
-0.338304
8.44599
-0.403961
12.2729
-0.470307
17.2249
-0.526069
23.2568
-0.524978
29.4845
-0.497142
29.3148
-0.436368
22.4994
-0.358445
16.3607
-0.273327
11.3603
-0.194219
7.55619
-0.128889
4.77386
-0.0704831
2.80323
-0.0204779
1.46398
-0.00986109
0.684613
0.125013
-0.0410149
0.495417
-0.10617
1.25135
-0.16187
2.16415
-0.232342
3.61309
-0.310992
5.67487
-0.391151
8.52615
-0.465622
12.3474
-0.536519
17.2957
-0.595599
23.3159
-0.597887
29.4868
-0.565349
29.2822
-0.486185
22.4202
-0.387893
16.2624
-0.295612
11.268
-0.215768
7.47634
-0.143163
4.70126
-0.0835605
2.74363
-0.0316129
1.41203
-0.0150805
0.668081
0.109932
-0.0478439
0.54326
-0.121901
1.3254
-0.185688
2.22794
-0.263555
3.69096
-0.347256
5.75857
-0.435226
8.61412
-0.52401
12.4362
-0.609827
17.3816
-0.672434
23.3785
-0.670764
29.4851
-0.625036
29.2365
-0.534442
22.3296
-0.432944
16.1609
-0.329364
11.1645
-0.236361
7.38334
-0.156615
4.62151
-0.0944598
2.68147
-0.0408482
1.35842
-0.0192154
0.646448
0.090717
-0.0475504
0.590811
-0.12176
1.39961
-0.203487
2.30967
-0.305876
3.79335
-0.404711
5.85741
-0.507005
8.71641
-0.609951
12.5391
-0.704616
17.4762
-0.771967
23.4459
-0.762583
29.4757
-0.695839
29.1698
-0.590209
22.224
-0.470567
16.0412
-0.360684
11.0546
-0.261154
7.28381
-0.168736
4.52909
-0.0958027
2.60854
-0.0442415
1.30686
-0.0210925
0.623299
0.0696245
-0.0625143
0.653325
-0.153441
1.49054
-0.24094
2.39717
-0.341574
3.89398
-0.451089
5.96692
-0.569818
8.83514
-0.69056
12.6599
-0.808108
17.5938
-0.879849
23.5176
-0.86065
29.4565
-0.78099
29.0901
-0.659671
22.1026
-0.534485
15.916
-0.408948
10.929
-0.287785
7.16265
-0.185829
4.42714
-0.0993809
2.52209
-0.0489048
1.25638
-0.0236503
0.598044
0.0459742
-0.0627694
0.716094
-0.162749
1.59052
-0.273861
2.50828
-0.396523
4.01665
-0.518985
6.08938
-0.650117
8.96627
-0.787058
12.7968
-0.925995
17.7327
-1.00793
23.5996
-0.980668
29.4293
-0.885316
28.9947
-0.748227
21.9656
-0.59395
15.7618
-0.447076
10.7822
-0.317548
7.03312
-0.204118
4.31371
-0.101255
2.41923
-0.0500936
1.20522
-0.0246357
0.572586
0.0213385
-0.0822707
0.798365
-0.196638
1.70489
-0.314106
2.62575
-0.442384
4.14492
-0.592651
6.23965
-0.749846
9.12347
-0.903819
12.9508
-1.06131
17.8902
-1.14361
23.6819
-1.11274
29.3984
-1.0048
28.8868
-0.843375
21.8041
-0.670204
15.5886
-0.499928
10.6119
-0.344971
6.87816
-0.217466
4.1862
-0.101861
2.30363
-0.0542792
1.15764
-0.027967
0.546274
-0.0066285
-0.0911945
0.88956
-0.222129
1.83582
-0.363729
2.76735
-0.512998
4.29419
-0.67756
6.40421
-0.854642
9.30055
-1.03364
13.1298
-1.22151
18.0781
-1.30718
23.7675
-1.2723
29.3635
-1.14702
28.7615
-0.957753
21.6149
-0.7415
15.3723
-0.54242
10.4128
-0.368677
6.70442
-0.230481
4.04801
-0.107547
2.18069
-0.0567361
1.10683
-0.0303736
0.519912
-0.0370021
-0.108332
0.997892
-0.25623
1.98372
-0.417279
2.9284
-0.586106
4.46302
-0.784799
6.60291
-0.992151
9.5079
-1.20505
13.3427
-1.41087
18.2839
-1.49114
23.8478
-1.4499
29.3223
-1.3022
28.6138
-1.07322
21.3859
-0.83444
15.1336
-0.603892
10.1823
-0.395075
6.4956
-0.235062
3.888
-0.110873
2.0565
-0.066967
1.06292
-0.0367257
0.48967
-0.0737278
-0.129871
1.12776
-0.299433
2.15328
-0.487807
3.11677
-0.695475
4.67069
-0.928514
6.83595
-1.17119
9.75058
-1.41456
13.5861
-1.64348
18.5128
-1.71824
23.9226
-1.66274
29.2668
-1.48019
28.4313
-1.20755
21.1133
-0.917455
14.8435
-0.651543
9.91636
-0.42437
6.26843
-0.246405
3.71003
-0.124884
1.93498
-0.0811415
1.01918
-0.0453278
0.453857
-0.119056
-0.148127
1.27589
-0.343978
2.34913
-0.566798
3.33959
-0.806334
4.91022
-1.08929
7.1189
-1.38667
10.048
-1.6779
13.8773
-1.92315
18.7581
-1.98106
23.9805
-1.89934
29.1851
-1.66528
28.1972
-1.34474
20.7927
-1.01622
14.5149
-0.714477
9.61461
-0.458148
6.0121
-0.259502
3.51138
-0.136442
1.81192
-0.0938383
0.976579
-0.0562287
0.416247
-0.175284
-0.188136
1.46402
-0.421835
2.58283
-0.686845
3.6046
-0.994968
5.21834
-1.34188
7.46581
-1.68224
10.3883
-2.00742
14.2025
-2.25512
19.0058
-2.29139
24.0167
-2.17514
29.0688
-1.87799
27.9001
-1.49329
20.408
-1.10729
14.1289
-0.7734
9.28072
-0.49962
5.73832
-0.280604
3.29237
-0.172114
1.70343
-0.129816
0.93428
-0.0718733
0.358305
-0.247158
-0.227187
1.69121
-0.484338
2.83998
-0.838702
3.95897
-1.24045
5.6201
-1.64659
7.87195
-2.03105
10.7728
-2.39748
14.5689
-2.63298
19.2413
-2.63649
24.0202
-2.48225
28.9146
-2.10781
27.5256
-1.64459
19.9448
-1.20574
13.6901
-0.832908
8.90789
-0.537344
5.44275
-0.309034
3.06406
-0.211244
1.60564
-0.183013
0.906049
-0.108138
0.28343
-0.355296
-0.36201
2.05322
-0.782933
3.26091
-1.20208
4.37811
-1.61805
6.03606
-2.05162
8.30553
-2.48
11.2012
-2.87426
14.9632
-3.07286
19.4399
-3.03455
23.9819
-2.81345
28.6935
-2.34274
27.0549
-1.81036
19.4124
-1.31199
13.1917
-0.874511
8.47041
-0.543227
5.11147
-0.294757
2.81559
-0.198586
1.50947
-0.170551
0.878015
-0.0994866
0.212366
-0.454783
-0.275155
2.32838
-0.615529
3.60128
-0.975752
4.73833
-1.40091
6.46122
-1.86269
8.76731
-2.3394
11.6779
-2.81924
15.443
-3.10078
19.7214
-3.21059
24.0918
-3.10853
28.5914
-2.67039
26.6168
-2.06301
18.805
-1.44479
12.5735
-0.897274
7.9229
-0.483063
4.69726
-0.186883
2.51941
-0.0799785
1.40257
-0.0343692
0.832405
-0.0442694
0.222266
-0.499052
-0.161398
2.48977
-0.407422
3.84731
-0.69266
5.02357
-0.999952
6.76852
-1.3253
9.09265
-1.65969
12.0123
-1.99767
15.781
-2.16663
19.8904
-2.21192
24.137
-2.06174
28.4412
-1.64358
26.1986
-1.11962
18.2811
-0.629622
12.0835
-0.234985
7.52826
0.0500287
4.41225
0.168973
2.40046
0.193241
1.3783
0.149244
0.876402
0.0601875
0.311323
-0.438865
-0.109268
2.59904
-0.247731
3.98577
-0.450041
5.22588
-0.681192
6.99967
-0.923128
9.33459
-1.15543
12.2446
-1.36534
15.9909
-1.45891
19.9839
-1.44616
24.1243
-1.25082
28.2459
-0.873414
25.8212
-0.466595
17.8742
-0.122171
11.7391
0.119974
7.28611
0.264101
4.26812
0.264865
2.3997
0.217825
1.42534
0.159696
0.934531
0.0855527
0.385466
-0.353312
-0.07946
2.6785
-0.201671
4.10798
-0.347836
5.37205
-0.490504
7.14234
-0.637668
9.48175
-0.785713
12.3926
-0.906343
16.1115
-0.945209
20.0228
-0.884476
24.0636
-0.658173
28.0196
-0.324245
25.4873
-0.0306621
17.5807
0.232491
11.4759
0.38943
7.12918
0.470247
4.1873
0.452667
2.41728
0.357662
1.52034
0.226518
1.06567
0.0872081
0.524776
-0.266104
-0.0424907
2.72099
-0.137966
4.20345
-0.236949
5.47103
-0.336024
7.24141
-0.434731
9.58046
-0.526728
12.4846
-0.58414
16.1689
-0.57779
20.0165
-0.474294
23.9601
-0.232674
27.778
0.0547493
25.1998
0.303641
17.3318
0.4434
11.3362
0.513117
7.05946
0.508941
4.19148
0.41578
2.51044
0.285173
1.65095
0.17785
1.173
0.0879185
0.614708
-0.178185
-0.0228749
2.74387
-0.110391
4.29097
-0.188551
5.54919
-0.239129
7.29199
-0.29127
9.6326
-0.340706
12.534
-0.356622
16.1849
-0.316023
19.9759
-0.191414
23.8355
0.0497196
27.5368
0.300729
24.9488
0.489944
17.1426
0.590152
11.236
0.630964
7.01865
0.585527
4.23692
0.479765
2.6162
0.35041
1.7803
0.223504
1.2999
0.101476
0.736736
-0.0767095
-0.00136665
2.74523
-0.0766233
4.36623
-0.135445
5.60801
-0.164388
7.32093
-0.194033
9.66224
-0.212538
12.5525
-0.202026
16.1743
-0.142042
19.9159
-0.00704312
23.7005
0.19856
27.3312
0.440445
24.707
0.599858
16.9831
0.674855
11.161
0.680516
7.01299
0.629926
4.28751
0.517122
2.72901
0.360479
1.93695
0.21834
1.44204
0.0731797
0.881896
-0.00352977
0.00629899
2.73894
-0.0566606
4.42919
-0.111948
5.6633
-0.132788
7.34177
-0.136337
9.66579
-0.132059
12.5483
-0.104645
16.1469
-0.032818
19.844
0.091918
23.5757
0.294267
27.1289
0.518554
24.4827
0.669447
16.8323
0.743687
11.0867
0.748642
7.00803
0.646102
4.39005
0.480153
2.89495
0.317671
2.09943
0.167935
1.59178
0.0557458
0.994085
0.0522161
0.01843
2.72051
-0.0123452
4.45996
-0.0407104
5.69167
-0.0814775
7.38254
-0.0905053
9.67482
-0.0839099
12.5417
-0.049415
16.1124
0.0245062
19.7701
0.146293
23.4539
0.345976
26.9292
0.55847
24.2702
0.69414
16.6966
0.749258
11.0316
0.723387
7.0339
0.633062
4.48037
0.4859
3.04212
0.311282
2.27405
0.157335
1.74573
0.0438247
1.1076
0.0960409
0.0135783
2.70693
-0.0203467
4.49389
-0.046606
5.71793
-0.0734999
7.40943
-0.0779589
9.67928
-0.0606669
12.5244
-0.0196115
16.0714
0.0495731
19.7009
0.171153
23.3324
0.362758
26.7376
0.563892
24.069
0.686732
16.5737
0.74565
10.9727
0.726262
7.05329
0.59262
4.61401
0.42043
3.21431
0.264961
2.42952
0.127293
1.88339
0.0246403
1.21025
0.120681
0.0353587
2.67157
0.0329694
4.49628
0.0112012
5.73969
-0.0276738
7.44831
-0.057607
9.70921
-0.0480654
12.5148
-0.0054578
16.0288
0.0603344
19.6351
0.175824
23.2169
0.353959
26.5594
0.54237
23.8806
0.648275
16.4678
0.689808
10.9312
0.652098
7.091
0.547213
4.7189
0.389751
3.37177
0.215247
2.60402
0.0781999
2.02044
0.00322943
1.28522
0.123911
0.01713
2.65444
-0.00327572
4.51668
-0.0188307
5.75525
-0.0320642
7.46154
-0.0510786
9.72823
-0.0429314
12.5067
-0.00260215
15.9884
0.0609862
19.5716
0.167398
23.1105
0.328608
26.3982
0.502137
23.7071
0.591131
16.3788
0.633521
10.8888
0.599135
7.12539
0.463795
4.85424
0.30761
3.52795
0.179478
2.73215
0.0584698
2.14145
-0.00485841
1.34855
0.119052
0.0306094
2.62383
0.0312966
4.51599
0.0124293
5.77412
-0.018479
7.49245
-0.0361744
9.74592
-0.0368172
12.5073
-0.00232593
15.954
0.055267
19.514
0.15064
23.0151
0.293945
26.2549
0.44896
23.5521
0.518372
16.3094
0.544326
10.8628
0.501092
7.16862
0.402318
4.95301
0.258139
3.67213
0.106491
2.8838
0.00844427
2.2395
-0.0185912
1.37558
0.100461
0.015399
2.60843
-0.0080176
4.53941
-0.0261964
5.79229
-0.0301954
7.49645
-0.0368563
9.75258
-0.0347547
12.5052
-0.00437076
15.9236
0.0468604
19.4627
0.130661
22.9313
0.255227
26.1304
0.38548
23.4218
0.43961
16.2553
0.460289
10.8421
0.414992
7.21392
0.297188
5.07082
0.172757
3.79656
0.076886
2.97967
-0.0131246
2.32951
-0.0307675
1.39323
0.0696935
0.0162862
2.59214
0.0070931
4.5486
-0.00282626
5.80221
-0.026191
7.51981
-0.0339029
9.7603
-0.033475
12.5048
-0.00784003
15.8979
0.0378621
19.417
0.109688
22.8595
0.215362
26.0247
0.318812
23.3184
0.360299
16.2138
0.3663
10.8361
0.313114
7.2671
0.219817
5.16411
0.0956014
3.92078
-0.0227618
3.09804
-0.0814819
2.38823
-0.0458279
1.35757
0.0238656
0.00584529
2.5863
-0.0200379
4.57449
-0.0374745
5.81965
-0.0420416
7.52438
-0.0409597
9.75921
-0.0365582
12.5004
-0.0121676
15.8735
0.0295402
19.3753
0.0902476
22.7987
0.176642
25.9383
0.255968
23.2391
0.284261
16.1855
0.278702
10.8417
0.208695
7.33711
0.106032
5.26678
0.0129397
4.01387
-0.0534002
3.16438
-0.101204
2.43603
-0.0561871
1.31255
-0.0323215
0.00233091
2.58397
-0.0121451
4.58896
-0.0222496
5.82976
-0.0404319
7.54256
-0.0430357
9.76182
-0.0402384
12.4976
-0.0174987
15.8508
0.0212847
19.3365
0.0726132
22.7474
0.140354
25.8706
0.198956
23.1804
0.213844
16.1706
0.193995
10.8615
0.112186
7.41892
0.016848
5.36211
-0.0777496
4.10847
-0.150035
3.23666
-0.153347
2.43934
-0.0725105
1.23172
-0.104832
-0.00577759
2.58975
-0.0324021
4.61559
-0.0452604
5.84261
-0.0525639
7.54987
-0.0500625
9.75932
-0.0453949
12.4929
-0.0237004
15.8291
0.0130082
19.2998
0.0561747
22.7043
0.107911
25.8188
0.149494
23.1389
0.149685
16.1704
0.111859
10.8994
0.0140613
7.51672
-0.0969921
5.47317
-0.170571
4.18205
-0.190801
3.25689
-0.174545
2.42309
-0.0830633
1.14024
-0.187895
-0.00924872
2.59899
-0.0239493
4.63029
-0.0333042
5.85197
-0.0494186
7.56598
-0.0518228
9.76172
-0.0500207
12.4911
-0.0306819
15.8098
0.00388041
19.2653
0.0408777
22.6673
0.0798255
25.7799
0.106829
23.1119
0.0931285
16.1841
0.0327276
10.9598
-0.0714902
7.62093
-0.181103
5.58278
-0.264317
4.26526
-0.289949
3.28253
-0.19767
2.33081
-0.0378124
0.980379
-0.225708
-0.0143258
2.61332
-0.0374928
4.65346
-0.0493003
5.86378
-0.0566711
7.57335
-0.0548831
9.75993
-0.0535487
12.4898
-0.0364948
15.7927
-0.00588608
19.2347
0.0267663
22.6346
0.0571276
25.7495
0.0704238
23.0986
0.0420677
16.2125
-0.0305893
11.0324
-0.150914
7.74126
-0.28835
5.72022
-0.369293
4.3462
-0.342075
3.25531
-0.172465
2.1612
0.126169
0.681744
-0.0995385
-0.0159971
2.62932
-0.0294132
4.66687
-0.0402542
5.87462
-0.0539379
7.58704
-0.0571543
9.76315
-0.0606122
12.4933
-0.0465923
15.7787
-0.0189759
19.207
0.0113467
22.6043
0.0378446
25.723
0.0405502
23.0959
-0.00527233
16.2583
-0.097622
11.1248
-0.242899
7.88654
-0.386771
5.86409
-0.498701
4.45813
-0.539097
3.2957
-0.346929
1.96903
-0.333618
0.668434
0.587524
-1.02068
-0.0212839
2.6506
-0.0379054
4.68349
-0.053372
5.89008
-0.0577159
7.59138
-0.0596195
9.76505
-0.0648426
12.4985
-0.0534671
15.7673
-0.0295308
19.1831
-0.00433501
22.5791
0.0200886
25.6986
0.0117381
23.1042
-0.0445895
16.3147
-0.16723
11.2474
-0.349676
8.06898
-0.551447
6.06586
-0.71934
4.62603
-0.761371
3.33773
-0.696083
1.90374
-1.15557
1.12792
1.1943
-1.76235
-0.0223056
2.67291
-0.0296139
4.6908
-0.0451169
5.90559
-0.0521212
7.59838
-0.059012
9.77194
-0.0677885
12.5073
-0.0590427
15.7586
-0.0385023
19.1626
-0.0178597
22.5584
0.000457626
25.6803
-0.0162718
23.1209
-0.0885352
16.3869
-0.237321
11.3962
-0.452671
8.28433
-0.67511
6.2883
-0.873207
4.82412
-0.891763
3.35629
-1.05078
2.06276
-1.54811
1.62525
1.52019
-1.87399
-0.0248822
2.69779
-0.0351655
4.70108
-0.0544094
5.92483
-0.0533645
7.59734
-0.0591971
9.77778
-0.0684939
12.5166
-0.061824
15.7519
-0.0447395
19.1455
-0.028484
22.5422
-0.0177783
25.6696
-0.0428974
23.1461
-0.12941
16.4734
-0.306076
11.5729
-0.559205
8.53746
-0.848213
6.57731
-1.08746
5.06337
-1.15833
3.42717
-1.45638
2.3608
-1.81858
1.98745
1.71685
-2.01524
-0.0229141
2.7207
-0.0286342
4.7068
-0.0443011
5.9405
-0.0488536
7.60189
-0.0568637
9.78579
-0.0673769
12.5271
-0.0625462
15.7471
-0.0489084
19.1318
-0.0368799
22.5302
-0.0338327
25.6665
-0.0672241
23.1795
-0.166313
16.5725
-0.372485
11.779
-0.670695
8.83567
-0.957383
6.86399
-1.1014
5.20739
-1.19536
3.52112
-1.54121
2.70666
-1.88176
2.32801
1.9263
-2.09121
-0.0219829
2.74269
-0.0353214
4.72014
-0.0498001
5.95498
-0.0533175
7.60541
-0.0574358
9.7899
-0.0665992
12.5362
-0.0628314
15.7433
-0.0520875
19.1211
-0.0438371
22.5219
-0.0480899
25.6708
-0.0890828
23.2204
-0.200345
16.6838
-0.43171
12.0104
-0.743254
9.14721
-1.03446
7.1552
-1.2464
5.41933
-1.54572
3.82044
-1.87707
3.038
-2.13247
2.58342
2.06135
-2.26752
-0.019444
2.76213
-0.0306317
4.73133
-0.042956
5.9673
-0.0538289
7.61628
-0.0608769
9.79695
-0.0709085
12.5463
-0.0676102
15.74
-0.0585869
19.1121
-0.0531111
22.5164
-0.063013
25.6807
-0.110448
23.2679
-0.233455
16.8068
-0.480511
12.2575
-0.806976
9.47368
-1.10598
7.4542
-1.26836
5.58171
-1.52772
4.07979
-1.8558
3.36608
-2.09654
2.82416
2.25597
-2.29116
-0.0163419
2.77847
-0.0366859
4.75167
-0.0523072
5.98292
-0.0608685
7.62484
-0.0668566
9.80294
-0.0763324
12.5557
-0.0733583
15.737
-0.0660951
19.1048
-0.0630489
22.5134
-0.077226
25.6948
-0.129705
23.3204
-0.261662
16.9387
-0.512308
12.5081
-0.834266
9.79564
-1.13144
7.75138
-1.3471
5.79737
-1.69826
4.43095
-2.17856
3.84638
-2.53811
3.18372
2.54504
-2.82718
-0.01256
2.79103
-0.0275326
4.76665
-0.0434896
5.99888
-0.0602678
7.64162
-0.0722809
9.81495
-0.0837621
12.5672
-0.0811139
15.7344
-0.0749375
19.0986
-0.0735141
22.512
-0.0907288
25.7121
-0.149001
23.3786
-0.288676
17.0784
-0.533425
12.7529
-0.837631
10.0998
-1.15043
8.06417
-1.46611
6.11306
-1.78876
4.7536
-2.2215
4.27913
-2.69103
3.65324
2.74263
-2.88862
-0.0116946
2.80273
-0.0347724
4.78973
-0.054589
6.01869
-0.0675353
7.65457
-0.0789571
9.82638
-0.0905723
12.5788
-0.088563
15.7324
-0.0834467
19.0935
-0.0829973
22.5115
-0.101878
25.7309
-0.165099
23.4419
-0.310709
17.224
-0.560362
13.0025
-0.843617
10.3831
-1.10493
8.32548
-1.42291
6.43104
-1.95602
5.28671
-2.32945
4.65256
-2.7892
4.11299
3.42118
-3.46775
-0.00875762
2.81148
-0.0242323
4.8052
-0.04352
6.03798
-0.0658183
7.67687
-0.0837353
9.84429
-0.0978931
12.593
-0.0960516
15.7305
-0.0907195
19.0882
-0.0898347
22.5106
-0.10823
25.7493
-0.166159
23.4998
-0.305601
17.3635
-0.542062
13.239
-0.793689
10.6347
-0.99628
8.52807
-1.28064
6.7154
-1.6731
5.67917
-1.85461
4.83407
-1.35116
3.60953
2.07002
-0.00902473
2.82051
-0.03479
4.83096
-0.0574713
6.06066
-0.074247
7.69364
-0.089855
9.8599
-0.104129
12.6073
-0.102876
15.7293
-0.0977776
19.0831
-0.0968036
22.5097
-0.115299
25.7678
-0.170919
23.5554
-0.313385
17.5059
-0.549364
13.4749
-0.781708
10.8671
-0.923579
8.66994
-1.04729
6.83912
-1.07498
5.70685
-0.958198
4.71729
-0.666755
3.31809
1.40326
-0.00601315
2.82652
-0.0226838
4.84764
-0.0441796
6.08216
-0.0713827
7.72084
-0.0942344
9.88275
-0.111375
12.6244
-0.11029
15.7282
-0.104628
19.0774
-0.102349
22.5074
-0.117895
25.7834
-0.16823
23.6057
-0.309545
17.6473
-0.529631
13.695
-0.713449
11.0509
-0.80769
8.76418
-0.879587
6.91101
-0.951986
5.77925
-0.938208
4.70351
-0.780461
3.16035
0.622803
-0.00948211
2.836
-0.0386443
4.8768
-0.0635973
6.10711
-0.0814781
7.73873
-0.100572
9.90185
-0.116127
12.64
-0.114367
15.7264
-0.108098
19.0712
-0.103417
22.5027
-0.112949
25.7929
-0.153441
23.6462
-0.287936
17.7817
-0.48027
13.8874
-0.615571
11.1862
-0.708414
8.85703
-0.821611
7.02421
-0.881001
5.83864
-0.830926
4.65344
-0.390473
2.71989
0.23233
-0.00424111
2.84024
-0.0231892
4.89575
-0.0468208
6.13074
-0.0778262
7.76973
-0.103916
9.92794
-0.121218
12.6573
-0.118024
15.7232
-0.109276
19.0624
-0.100143
22.4936
-0.100802
25.7936
-0.127817
23.6732
-0.246028
17.9
-0.404873
14.0462
-0.544831
11.3261
-0.65169
8.96389
-0.733106
7.10563
-0.741095
5.84663
-0.563982
4.47633
-0.157697
2.31361
0.0746337
-0.0132955
2.85354
-0.0438021
4.92625
-0.0708864
6.15783
-0.0892184
7.78806
-0.109623
9.94834
-0.123131
12.6708
-0.116866
15.717
-0.104932
19.0505
-0.0898556
22.4785
-0.0792668
25.783
-0.0922933
23.6863
-0.194537
18.0022
-0.341834
14.1935
-0.477561
11.4619
-0.556177
9.0425
-0.598707
7.14816
-0.563458
5.81138
-0.407253
4.32012
-0.142803
2.04916
-0.0681693
0.000355425
2.85318
-0.0218442
4.94845
-0.0478068
6.18379
-0.0816243
7.82188
-0.108249
9.97496
-0.121865
12.6844
-0.112253
15.7074
-0.0954869
19.0337
-0.072805
22.4558
-0.0496202
25.7598
-0.0501041
23.6868
-0.141828
18.0939
-0.276924
14.3286
-0.385664
11.5706
-0.429396
9.08624
-0.443558
7.16232
-0.409815
5.77764
-0.295321
4.20563
-0.0667255
1.82056
-0.134895
-0.00896295
2.86215
-0.0411465
4.98064
-0.0714022
6.21405
-0.0881844
7.83866
-0.108528
9.99531
-0.115374
12.6912
-0.099387
15.6914
-0.0769608
19.0113
-0.045322
22.4242
-0.00910698
25.7236
-0.00347841
23.6811
-0.0818248
18.1723
-0.198109
14.4449
-0.265192
11.6377
-0.292363
9.11341
-0.294335
7.16429
-0.258583
5.74189
-0.16079
4.10783
0.017181
1.64259
-0.117714
0.00910094
2.85305
-0.0118274
5.00156
-0.0361105
6.23833
-0.0684789
7.87103
-0.0948712
10.0217
-0.0983142
12.6947
-0.0773141
15.6704
-0.0480393
18.982
-0.00573715
22.3819
0.0415984
25.6762
0.06244
23.6603
-0.00778833
18.2425
-0.101118
14.5382
-0.141517
11.6781
-0.145843
9.11773
-0.149086
7.16753
-0.126212
5.71902
-0.0556844
4.03731
0.0552778
1.53163
-0.0624358
0.00665243
2.84639
-0.0246502
5.03287
-0.0555166
6.2692
-0.0621798
7.87769
-0.0824264
10.0419
-0.0728733
12.6851
-0.0435061
15.641
-0.000602524
18.9391
0.0479161
22.3333
0.111833
25.6123
0.145183
23.6269
0.0848294
18.3029
0.0153787
14.6077
-0.0214681
11.7149
-0.0221859
9.11845
0.000425288
7.14492
0.00597989
5.71346
0.0448553
3.99843
0.059496
1.51699
-0.00293982
0.0344412
2.81195
0.0229395
5.04437
0.00662873
6.28551
-0.0282097
7.91253
-0.0417598
10.0555
-0.0259482
12.6693
0.00972821
15.6053
0.0553611
18.8935
0.113902
22.2748
0.197838
25.5284
0.237919
23.5868
0.18894
18.3518
0.137687
14.6589
0.115038
11.7376
0.115979
9.11751
0.125622
7.13528
0.166328
5.67276
0.184404
3.98035
0.0843256
1.61706
0.0813858
0.0326032
2.77935
0.0143097
5.06266
0.00825525
6.29156
-0.00872401
7.92951
0.0124948
10.0343
0.0281102
12.6537
0.0701672
15.5633
0.128229
18.8354
0.200647
22.2024
0.302251
25.4268
0.345556
23.5435
0.307112
18.3903
0.269251
14.6968
0.260361
11.7465
0.260915
9.11696
0.277837
7.11836
0.314241
5.63635
0.306869
3.98773
0.125782
1.79815
0.207168
0.0797594
2.69959
0.0968427
5.04558
0.0802946
6.30811
0.0679631
7.94184
0.0769684
10.0253
0.106369
12.6243
0.158849
15.5108
0.229507
18.7648
0.313944
22.1179
0.425924
25.3148
0.468371
23.5011
0.43628
18.4224
0.410358
14.7227
0.406322
11.7505
0.40978
9.1135
0.422969
7.10517
0.440449
5.61887
0.39056
4.03762
0.173602
2.01511
0.38077
0.0863589
2.61323
0.112906
5.01903
0.1233
6.29772
0.146123
7.91902
0.165928
10.0055
0.214007
12.5762
0.27604
15.4488
0.361033
18.6798
0.457881
22.0211
0.57652
25.1962
0.611526
23.4661
0.579488
18.4544
0.551981
14.7502
0.533808
11.7687
0.514816
9.13249
0.498925
7.12106
0.48845
5.62935
0.427949
4.09812
0.218501
2.22456
0.59927
0.180611
2.43262
0.24308
4.95656
0.266547
6.27425
0.27894
7.90663
0.304109
9.9803
0.363193
12.5171
0.43543
15.3765
0.531321
18.5839
0.636489
21.9159
0.755671
25.077
0.776909
23.4449
0.730563
18.5008
0.678839
14.8019
0.628236
11.8193
0.578444
9.18228
0.546605
7.1529
0.52349
5.65246
0.45157
4.17004
0.233299
2.44283
0.832569
0.26288
2.16974
0.393809
4.82563
0.425893
6.24216
0.449669
7.88285
0.494305
9.93566
0.561174
12.4503
0.644139
15.2936
0.754548
18.4735
0.868754
21.8017
0.976522
24.9692
0.96755
23.4538
0.886598
18.5817
0.800393
14.8881
0.719601
11.9001
0.641039
9.26084
0.584309
7.20963
0.535581
5.70119
0.442507
4.26311
0.224482
2.66085
1.05705
0.462686
1.70705
0.647879
4.64044
0.692245
6.1978
0.710778
7.86432
0.753043
9.8934
0.82514
12.3782
0.914087
15.2046
1.03243
18.3551
1.15259
21.6816
1.24107
24.8807
1.20139
23.4935
1.09115
18.6919
0.97288
15.0064
0.860121
12.0128
0.745106
9.37586
0.647283
7.30745
0.557081
5.79139
0.432808
4.38738
0.214516
2.87914
1.27157
0.845999
0.861055
1.08814
4.3983
1.07331
6.21263
1.07182
7.86581
1.11321
9.85201
1.18486
12.3065
1.27717
15.1123
1.40237
18.2299
1.52376
21.5602
1.59067
24.8138
1.5187
23.5655
1.38012
18.8305
1.23389
15.1526
1.07137
12.1754
0.881369
9.56586
0.704294
7.48453
0.551197
5.94449
0.390875
4.54771
0.17956
3.09046
1.45113
0.787401
0.0736547
1.54556
3.64014
1.67683
6.08136
1.62645
7.91619
1.60283
9.87563
1.6441
12.2652
1.73934
15.0171
1.8706
18.0987
1.99262
21.4381
2.052
24.7545
1.97463
23.6428
1.82014
18.985
1.63575
15.337
1.41251
12.3986
1.14331
9.83506
0.893201
7.73463
0.677156
6.16053
0.459558
4.7653
0.206226
3.34379
1.65735
0.614429
-0.540774
1.78052
2.47405
2.16289
5.69899
2.18525
7.89383
2.18626
9.87461
2.24517
12.2063
2.35003
14.9122
2.49086
17.9578
2.63369
21.2953
2.71717
24.671
2.6507
23.7093
2.46943
19.1663
2.22603
15.5804
1.94818
12.6765
1.62769
10.1555
1.29086
8.07147
0.95803
6.49336
0.628991
5.09434
0.285339
3.68744
1.94269
0.433095
-0.97387
1.76102
1.14612
2.19962
5.26039
2.2466
7.84685
2.21638
9.90484
2.21095
12.2118
2.22826
14.8949
2.25807
17.928
2.28183
21.2715
2.22635
24.7265
2.06178
23.8739
1.85247
19.3756
1.62087
15.812
1.36243
12.9349
1.10538
10.4126
0.878127
8.29872
0.668264
6.70323
0.452537
5.31007
0.211958
3.92802
2.15465
0.207786
-1.18166
0.798548
0.555362
1.26713
4.79181
1.42987
7.68411
1.41922
9.91548
1.42642
12.2046
1.49906
14.8223
1.58914
17.8379
1.67747
21.1832
1.67759
24.7263
1.56269
23.9888
1.40237
19.5359
1.22714
15.9872
1.04628
13.1158
0.841059
10.6178
0.6434
8.49638
0.47175
6.87488
0.307349
5.47447
0.140796
4.09458
2.29545
0.0926714
-1.27433
-0.0487873
0.696821
0.210631
4.53239
0.390428
7.50432
0.524764
9.78115
0.66744
12.0619
0.817646
14.6721
0.978273
17.6773
1.1339
21.0276
1.19625
24.664
1.14078
24.0443
1.0405
19.6362
0.91615
16.1116
0.777774
13.2541
0.623194
10.7724
0.474224
8.64535
0.343556
7.00554
0.21894
5.59909
0.0902417
4.22327
2.38569
-0.252122
-1.0222
-0.717688
1.16239
-0.856818
4.67152
-0.631334
7.27883
-0.325437
9.47525
-0.0435517
11.78
0.207225
14.4213
0.438763
17.4458
0.654353
20.812
0.780625
24.5377
0.794206
24.0307
0.746991
19.6834
0.66561
16.193
0.568462
13.3513
0.454982
10.8859
0.341309
8.75903
0.239732
7.10712
0.143238
5.69558
0.0492281
4.31728
2.43492
-0.411213
-0.610992
-0.930559
1.68173
-1.08951
4.83048
-1.00414
7.19345
-0.814284
9.2854
-0.553626
11.5193
-0.262656
14.1303
0.0197395
17.1634
0.27106
20.5607
0.451579
24.3572
0.519886
23.9624
0.514838
19.6885
0.469095
16.2387
0.402814
13.4176
0.318825
10.9699
0.233541
8.84431
0.159657
7.18101
0.0864938
5.76874
0.0165409
4.38724
2.45146
-0.442297
-0.168695
-0.90565
2.14508
-0.980831
4.90566
-0.983637
7.19626
-0.909909
9.21167
-0.758859
11.3683
-0.529126
13.9006
-0.252924
16.8872
0.0105132
20.2972
0.209497
24.1582
0.307621
23.8643
0.330415
19.6657
0.312793
16.2563
0.272813
13.4575
0.214926
11.0278
0.149876
8.90936
0.0912643
7.23962
0.0338598
5.82615
-0.0146253
4.43572
2.43683
-0.429386
0.260691
-0.763809
2.47951
-0.866705
5.00855
-0.846195
7.17575
-0.795126
9.16061
-0.728825
11.302
-0.594974
13.7667
-0.381751
16.674
-0.146342
20.0618
0.0464518
23.9654
0.15527
23.7554
0.19331
19.6276
0.19617
16.2535
0.174532
13.4792
0.132945
11.0693
0.0798587
8.96245
0.0310143
7.28846
-0.0137675
5.87093
-0.0416706
4.46362
2.39516
-0.312494
0.573186
-0.588029
2.75504
-0.714022
5.13455
-0.712533
7.17426
-0.672897
9.12097
-0.617669
11.2468
-0.535391
13.6844
-0.392774
16.5313