/*--------------------------------*- C++ -*----------------------------------*\
| =========                 |                                                 |
| \\      /  F ield         | OpenFOAM: The Open Source CFD Toolbox           |
|  \\    /   O peration     | Version:  2412                                  |
|   \\  /    A nd           | Website:  www.openfoam.com                      |
|    \\/     M anipulation  |                                                 |
\*---------------------------------------------------------------------------*/
FoamFile
{
    version     2.0;
    format      ascii;
    arch        "LSB;label=32;scalar=64";
    class       volVectorField;
    location    "8";
    object      U;
}
// * * * * * * * * * * * * * * * * * * * * * * * * * * * * * * * * * * * * * //

dimensions      [0 1 -1 0 0 0 0];

internalField   nonuniform List<vector> 
2200
(
(0.380344 0.0001935 0)
(1.19476 0.0011823 0)
(2.12304 0.00198272 0)
(3.16878 0.00305754 0)
(4.32472 0.00380443 0)
(5.57089 0.00520293 0)
(6.86359 0.0063164 0)
(8.12021 0.00716893 0)
(9.20581 0.00776949 0)
(9.90034 0.00808679 0)
(9.90046 0.00834379 0)
(9.20675 0.00818131 0)
(8.12193 0.007292 0)
(6.86506 0.00589924 0)
(5.57247 0.00533584 0)
(4.32499 0.00388874 0)
(3.16806 0.00320813 0)
(2.12217 0.00252706 0)
(1.19269 0.00168948 0)
(0.377004 0.00116756 0)
(0.384343 0.000799549 0)
(1.19834 0.00244308 0)
(2.12691 0.0050617 0)
(3.17242 0.00787176 0)
(4.33048 0.0116422 0)
(5.57706 0.0145216 0)
(6.86823 0.0171097 0)
(8.12459 0.0202945 0)
(9.20998 0.0235201 0)
(9.90141 0.024807 0)
(9.90098 0.0233429 0)
(9.20535 0.0214494 0)
(8.11729 0.0194861 0)
(6.85939 0.0174041 0)
(5.5669 0.0139689 0)
(4.32084 0.0119983 0)
(3.16372 0.00881663 0)
(2.11583 0.00629942 0)
(1.18398 0.00397892 0)
(0.370657 0.000953198 0)
(0.392735 0.00181159 0)
(1.2074 0.00418809 0)
(2.13602 0.00859688 0)
(3.18173 0.013246 0)
(4.33589 0.0185179 0)
(5.58084 0.0240966 0)
(6.87075 0.0297104 0)
(8.12558 0.0338434 0)
(9.21147 0.0377193 0)
(9.89992 0.0396042 0)
(9.89793 0.0394954 0)
(9.20081 0.0372562 0)
(8.11372 0.0332841 0)
(6.85517 0.0282917 0)
(5.56131 0.023784 0)
(4.31192 0.0178857 0)
(3.15216 0.0133758 0)
(2.10438 0.00842478 0)
(1.1731 0.00434944 0)
(0.363302 0.000157218 0)
(0.404579 0.00279904 0)
(1.21963 0.00637072 0)
(2.14883 0.0129392 0)
(3.19284 0.0193893 0)
(4.35096 0.0269975 0)
(5.5949 0.033333 0)
(6.88342 0.0400925 0)
(8.13637 0.0470682 0)
(9.21981 0.0536982 0)
(9.9001 0.0563523 0)
(9.8968 0.0540957 0)
(9.19674 0.0499543 0)
(8.10454 0.0441116 0)
(6.8426 0.037943 0)
(5.54726 0.0306487 0)
(4.29888 0.0236035 0)
(3.1417 0.0161791 0)
(2.09263 0.0100164 0)
(1.16032 0.00463681 0)
(0.355702 -0.000227937 0)
(0.426024 0.00401776 0)
(1.24325 0.00907882 0)
(2.17095 0.0177569 0)
(3.21465 0.0263731 0)
(4.36364 0.0343121 0)
(5.60454 0.0434693 0)
(6.88994 0.0519442 0)
(8.13949 0.059983 0)
(9.22453 0.0673349 0)
(9.89896 0.0709966 0)
(9.89309 0.0694336 0)
(9.18879 0.0650345 0)
(8.09608 0.0578142 0)
(6.83447 0.0483816 0)
(5.5378 0.0374851 0)
(4.28692 0.0284402 0)
(3.12331 0.0199572 0)
(2.07312 0.0114917 0)
(1.14245 0.00545871 0)
(0.347748 -0.000354753 0)
(0.451988 0.00437092 0)
(1.26901 0.0109766 0)
(2.19689 0.0227607 0)
(3.23852 0.0320137 0)
(4.39215 0.0432678 0)
(5.62944 0.0539202 0)
(6.91087 0.0639421 0)
(8.15649 0.073402 0)
(9.23636 0.0839139 0)
(9.89907 0.0875797 0)
(9.8901 0.0847223 0)
(9.1819 0.0776405 0)
(8.08384 0.0672794 0)
(6.81597 0.0559459 0)
(5.51674 0.0454563 0)
(4.265 0.0330307 0)
(3.10548 0.022464 0)
(2.05332 0.0135296 0)
(1.12292 0.00635202 0)
(0.339073 0.000669665 0)
(0.479096 0.00269412 0)
(1.29741 0.0113056 0)
(2.22274 0.0212765 0)
(3.26399 0.0351996 0)
(4.41055 0.0493221 0)
(5.64565 0.0628738 0)
(6.92352 0.0756473 0)
(8.1643 0.0879704 0)
(9.24563 0.0978523 0)
(9.898 0.102894 0)
(9.88631 0.0992107 0)
(9.17187 0.0923656 0)
(8.07097 0.0808334 0)
(6.80437 0.0668959 0)
(5.50341 0.0498956 0)
(4.24863 0.0365946 0)
(3.08341 0.0263946 0)
(2.03222 0.016752 0)
(1.09812 0.0073092 0)
(0.324494 0.00260163 0)
(0.502023 0.00114927 0)
(1.32629 0.0126965 0)
(2.25913 0.0235912 0)
(3.30001 0.039648 0)
(4.44983 0.0586563 0)
(5.68125 0.0751129 0)
(6.95405 0.0895885 0)
(8.18893 0.102396 0)
(9.26303 0.116696 0)
(9.89965 0.120636 0)
(9.88136 0.116198 0)
(9.16152 0.104892 0)
(8.05538 0.0904078 0)
(6.78004 0.0732299 0)
(5.47648 0.0580881 0)
(4.22182 0.0428185 0)
(3.05784 0.0302462 0)
(2.00307 0.020612 0)
(1.06966 0.00761919 0)
(0.303078 0.00444348 0)
(0.532434 0.00159613 0)
(1.38036 0.017183 0)
(2.30847 0.0275122 0)
(3.34215 0.046935 0)
(4.47699 0.0653791 0)
(5.70451 0.0843605 0)
(6.97254 0.101431 0)
(8.20151 0.117738 0)
(9.27575 0.132007 0)
(9.89843 0.138007 0)
(9.87801 0.130946 0)
(9.14989 0.120582 0)
(8.03739 0.104118 0)
(6.76384 0.0863014 0)
(5.45618 0.0644733 0)
(4.19495 0.0469515 0)
(3.02641 0.0326623 0)
(1.97469 0.0202725 0)
(1.04486 0.00635505 0)
(0.280147 0.0050874 0)
(0.564198 0.00351755 0)
(1.42011 0.0229732 0)
(2.34638 0.0365301 0)
(3.37709 0.0547489 0)
(4.52162 0.0747634 0)
(5.74584 0.0959179 0)
(7.00891 0.116806 0)
(8.23178 0.135686 0)
(9.29739 0.153648 0)
(9.90134 0.158065 0)
(9.87108 0.150854 0)
(9.13432 0.135115 0)
(8.01517 0.115545 0)
(6.72744 0.0922071 0)
(5.41697 0.0734548 0)
(4.15837 0.0528846 0)
(2.99492 0.032377 0)
(1.94566 0.0161032 0)
(1.02888 0.00288124 0)
(0.261243 0.00473953 0)
(0.625416 0.00487893 0)
(1.50809 0.0289486 0)
(2.40537 0.0472457 0)
(3.4242 0.0647526 0)
(4.54825 0.082798 0)
(5.76817 0.104752 0)
(7.02692 0.128952 0)
(8.24612 0.151472 0)
(9.31147 0.171436 0)
(9.89899 0.177611 0)
(9.86521 0.168061 0)
(9.11734 0.15392 0)
(7.98727 0.132825 0)
(6.70199 0.109943 0)
(5.38353 0.0811116 0)
(4.11515 0.0585649 0)
(2.943 0.0346116 0)
(1.89694 0.0126569 0)
(1.01496 -0.000137715 0)
(0.247713 0.0042773 0)
(0.672486 0.00684228 0)
(1.56341 0.0303278 0)
(2.44095 0.0530384 0)
(3.46246 0.0722735 0)
(4.60031 0.0902544 0)
(5.81428 0.117828 0)
(7.065 0.145537 0)
(8.27638 0.170657 0)
(9.33283 0.193161 0)
(9.89898 0.201651 0)
(9.85307 0.192952 0)
(9.09145 0.175083 0)
(7.95207 0.149683 0)
(6.64739 0.118959 0)
(5.32459 0.0953628 0)
(4.05936 0.0668626 0)
(2.89308 0.0375317 0)
(1.84573 0.012187 0)
(1.007 0.000554253 0)
(0.23888 0.003869 0)
(0.759308 0.00732492 0)
(1.67821 0.0341408 0)
(2.51255 0.0624537 0)
(3.52067 0.0803963 0)
(4.63627 0.104717 0)
(5.84475 0.131212 0)
(7.08931 0.160294 0)
(8.297 0.187548 0)
(9.34667 0.214755 0)
(9.89178 0.223992 0)
(9.83875 0.215809 0)
(9.06538 0.19776 0)
(7.9144 0.171729 0)
(6.61237 0.14201 0)
(5.28314 0.10326 0)
(4.00639 0.0736235 0)
(2.82905 0.0436851 0)
(1.7835 0.0168685 0)
(0.993946 0.00402244 0)
(0.224355 0.00397615 0)
(0.811214 0.00844541 0)
(1.74381 0.0317973 0)
(2.56242 0.0616328 0)
(3.58614 0.0890992 0)
(4.71409 0.118018 0)
(5.90808 0.153958 0)
(7.14141 0.183853 0)
(8.33454 0.213006 0)
(9.36812 0.24185 0)
(9.88654 0.255233 0)
(9.82017 0.245064 0)
(9.02887 0.225582 0)
(7.86677 0.192669 0)
(6.54687 0.151353 0)
(5.21471 0.114781 0)
(3.94721 0.0782219 0)
(2.77435 0.050693 0)
(1.72661 0.021305 0)
(0.975417 0.00947439 0)
(0.203994 0.00382957 0)
(0.909968 0.00968916 0)
(1.87462 0.0376064 0)
(2.64303 0.0733357 0)
(3.65486 0.0978113 0)
(4.76467 0.137791 0)
(5.95646 0.171879 0)
(7.18079 0.204944 0)
(8.36663 0.240095 0)
(9.38691 0.273899 0)
(9.87817 0.284635 0)
(9.7983 0.27571 0)
(8.99422 0.250187 0)
(7.82301 0.214629 0)
(6.50839 0.173184 0)
(5.17197 0.122136 0)
(3.89092 0.0833501 0)
(2.71226 0.0590276 0)
(1.65843 0.0244659 0)
(0.94466 0.0139665 0)
(0.171301 0.00383288 0)
(0.97178 0.00992192 0)
(1.95705 0.0366827 0)
(2.73199 0.0739417 0)
(3.76091 0.114055 0)
(4.86551 0.160876 0)
(6.03959 0.203002 0)
(7.24939 0.240566 0)
(8.42125 0.278662 0)
(9.4151 0.312792 0)
(9.87386 0.326446 0)
(9.77944 0.30993 0)
(8.95413 0.281935 0)
(7.76839 0.23677 0)
(6.43228 0.183437 0)
(5.08591 0.135736 0)
(3.80817 0.0894611 0)
(2.64669 0.0653858 0)
(1.59947 0.0227279 0)
(0.916021 0.0163399 0)
(0.140399 0.00392148 0)
(1.08175 0.0152307 0)
(2.09143 0.0458238 0)
(2.82654 0.0963066 0)
(3.84953 0.121522 0)
(4.93517 0.180597 0)
(6.11055 0.227475 0)
(7.31097 0.273349 0)
(8.46872 0.319633 0)
(9.44449 0.358564 0)
(9.87031 0.367523 0)
(9.75574 0.350466 0)
(8.91151 0.311857 0)
(7.71226 0.260514 0)
(6.37957 0.208456 0)
(5.03122 0.150691 0)
(3.74032 0.100633 0)
(2.57173 0.0704811 0)
(1.5366 0.0224364 0)
(0.876166 0.0190206 0)
(0.0973334 0.00432944 0)
(1.19013 0.0117478 0)
(2.22876 0.0494346 0)
(2.96461 0.102418 0)
(3.97878 0.147981 0)
(5.04678 0.205432 0)
(6.20258 0.25695 0)
(7.38743 0.311493 0)
(8.54089 0.368105 0)
(9.48127 0.410581 0)
(9.87047 0.422523 0)
(9.73764 0.395309 0)
(8.86625 0.351997 0)
(7.64731 0.290796 0)
(6.28681 0.224569 0)
(4.92016 0.170155 0)
(3.63399 0.114723 0)
(2.46742 0.0716456 0)
(1.47437 0.0235806 0)
(0.843291 0.0187446 0)
(0.0598058 0.00540382 0)
(1.30083 0.0215398 0)
(2.37915 0.0560438 0)
(3.08832 0.128147 0)
(4.09797 0.157795 0)
(5.15874 0.237066 0)
(6.30739 0.292677 0)
(7.47632 0.359504 0)
(8.60463 0.422171 0)
(9.51619 0.469612 0)
(9.86704 0.477973 0)
(9.70691 0.449629 0)
(8.80759 0.396072 0)
(7.56579 0.324785 0)
(6.20409 0.25716 0)
(4.84669 0.190726 0)
(3.55114 0.124357 0)
(2.36723 0.0711352 0)
(1.41565 0.0243315 0)
(0.803095 0.0214419 0)
(0.0118623 0.00610877 0)
(1.48358 0.0183154 0)
(2.56959 0.0699999 0)
(3.26109 0.136945 0)
(4.24833 0.195853 0)
(5.29646 0.265877 0)
(6.42455 0.334258 0)
(7.56857 0.408721 0)
(8.69325 0.484978 0)
(9.5542 0.537335 0)
(9.86199 0.550167 0)
(9.67526 0.511208 0)
(8.74289 0.450832 0)
(7.481 0.370297 0)
(6.08871 0.281942 0)
(4.7105 0.206247 0)
(3.42075 0.132749 0)
(2.23764 0.0739905 0)
(1.35793 0.0270973 0)
(0.768569 0.0209655 0)
(-0.0351443 0.00861739 0)
(1.61372 0.0278921 0)
(2.76021 0.072865 0)
(3.43566 0.165203 0)
(4.40025 0.219401 0)
(5.44703 0.311169 0)
(6.55686 0.385906 0)
(7.67813 0.47695 0)
(8.77569 0.558321 0)
(9.58274 0.617404 0)
(9.84458 0.62623 0)
(9.6223 0.583199 0)
(8.65096 0.510572 0)
(7.35865 0.417244 0)
(5.96909 0.32158 0)
(4.60265 0.22522 0)
(3.3208 0.137772 0)
(2.12083 0.0731033 0)
(1.29736 0.0307848 0)
(0.729376 0.0256738 0)
(-0.0918608 0.0103602 0)
(1.87719 0.027787 0)
(3.01195 0.0973626 0)
(3.66189 0.178609 0)
(4.61082 0.269479 0)
(5.63718 0.364486 0)
(6.71465 0.460994 0)
(7.80477 0.555152 0)
(8.8779 0.651427 0)
(9.61009 0.713278 0)
(9.82187 0.722389 0)
(9.56059 0.66524 0)
(8.55038 0.582196 0)
(7.24077 0.471222 0)
(5.81783 0.347816 0)
(4.42649 0.240772 0)
(3.15653 0.145503 0)
(1.9892 0.0778668 0)
(1.24506 0.0384828 0)
(0.675728 0.0287888 0)
(-0.163131 0.0156635 0)
(2.05591 0.0380823 0)
(3.25308 0.0997504 0)
(3.89922 0.21897 0)
(4.8107 0.302838 0)
(5.83381 0.42927 0)
(6.88282 0.537391 0)
(7.93922 0.65777 0)
(8.98263 0.766005 0)
(9.62943 0.829144 0)
(9.78678 0.828751 0)
(9.47821 0.757973 0)
(8.4186 0.651453 0)
(7.07788 0.523017 0)
(5.6589 0.390981 0)
(4.28444 0.253654 0)
(3.02814 0.158648 0)
(1.88234 0.0810785 0)
(1.20225 0.0423252 0)
(0.632572 0.0361396 0)
(-0.247363 0.0188001 0)
(2.42605 0.0409069 0)
(3.60599 0.138867 0)
(4.21181 0.252657 0)
(5.09943 0.379573 0)
(6.08559 0.515389 0)
(7.08445 0.656271 0)
(8.10765 0.786195 0)
(9.104 0.908343 0)
(9.64569 0.967498 0)
(9.75207 0.95616 0)
(9.3924 0.861677 0)
(8.28526 0.733772 0)
(6.91881 0.57699 0)
(5.47849 0.418321 0)
(4.07883 0.280703 0)
(2.83115 0.171907 0)
(1.74772 0.0897079 0)
(1.14117 0.0621898 0)
(0.571653 0.0453753 0)
(-0.353594 0.0249427 0)
(2.67846 0.0604442 0)
(3.91561 0.144126 0)
(4.52675 0.306362 0)
(5.38461 0.452495 0)
(6.35466 0.63458 0)
(7.31146 0.791522 0)
(8.29607 0.944741 0)
(9.21982 1.07662 0)
(9.65759 1.12434 0)
(9.70733 1.09977 0)
(9.28375 0.976869 0)
(8.1172 0.818411 0)
(6.72433 0.629509 0)
(5.27804 0.453106 0)
(3.90044 0.305466 0)
(2.65663 0.181772 0)
(1.65826 0.106909 0)
(1.10878 0.08251 0)
(0.474474 0.0670201 0)
(-0.496424 0.0370006 0)
(3.25145 0.0800835 0)
(4.3992 0.242498 0)
(4.95603 0.43515 0)
(5.77359 0.611411 0)
(6.67595 0.79616 -1.17067e-32)
(7.56532 0.977238 4.27228e-33)
(8.51818 1.14812 0)
(9.33657 1.27885 0)
(9.65044 1.31083 0)
(9.65506 1.26259 0)
(9.16308 1.1062 0)
(7.94207 0.90672 0)
(6.51428 0.684992 0)
(5.05637 0.490692 0)
(3.66669 0.314626 0)
(2.44999 0.173605 0)
(1.54668 0.10049 0)
(1.05733 0.0783868 0)
(0.318793 0.0702007 0)
(-0.750829 0.0188732 0)
(3.80936 0.207579 -1.32534e-18)
(4.83205 0.328957 1.10506e-18)
(5.3504 0.584272 0)
(6.13193 0.804631 -6.36953e-19)
(6.99561 1.01894 5.14608e-19)
(7.83495 1.21024 -4.53222e-33)
(8.74853 1.39332 0)
(9.41888 1.51056 -7.08403e-20)
(9.62933 1.52782 9.46647e-20)
(9.57402 1.45527 5.22038e-21)
(8.98604 1.25738 0)
(7.67763 1.0253 -2.76897e-19)
(6.19755 0.761383 -3.48094e-19)
(4.71687 0.508645 6.00001e-19)
(3.40486 0.319904 -4.90574e-19)
(2.20008 0.152089 0)
(1.44658 0.0763784 -1.84432e-19)
(1.03002 0.0433005 0)
(0.254859 0.0206462 -9.68338e-19)
(-0.874983 -0.0214212 1.13089e-18)
(4.14655 0.403286 1.10821e-19)
(5.21415 0.583966 -4.85252e-18)
(5.69291 0.870877 7.16708e-19)
(6.43221 1.06709 2.61345e-18)
(7.23769 1.27106 1.13726e-18)
(8.01692 1.46993 -1.80547e-18)
(8.89602 1.6639 0)
(9.43586 1.77075 0)
(9.56805 1.78199 -1.23995e-19)
(9.44746 1.69214 0)
(8.77548 1.45707 9.22815e-19)
(7.40263 1.17268 3.0275e-19)
(5.92307 0.854265 -3.54744e-20)
(4.47358 0.552589 -7.69956e-19)
(3.16017 0.305521 0)
(2.04615 0.148586 0)
(1.40453 0.0711377 -3.16248e-18)
(1.03696 0.0248793 8.17518e-18)
(0.430742 0.0130021 -4.83272e-18)
(-0.80531 -0.0822654 -5.69228e-18)
(4.36864 0.639801 4.47949e-18)
(5.48528 0.909705 -1.73803e-18)
(5.91832 1.1339 -6.29376e-19)
(6.62176 1.3336 -4.83215e-18)
(7.39395 1.55265 3.92342e-19)
(8.13523 1.76077 4.9379e-18)
(8.95755 1.95349 -1.40555e-18)
(9.39538 2.05209 0)
(9.47072 2.05311 1.81957e-19)
(9.29313 1.9396 1.02404e-18)
(8.56803 1.66157 -2.63775e-18)
(7.16752 1.32767 1.42306e-18)
(5.68211 0.952321 -1.1597e-18)
(4.25572 0.621642 2.46976e-18)
(3.01332 0.379767 0)
(2.00719 0.200316 -9.11828e-19)
(1.40806 0.128021 0)
(1.10291 0.105356 4.99878e-18)
(0.483397 0.0185285 -1.18115e-17)
(-0.694139 -0.103765 7.41535e-18)
(4.49695 0.876558 -1.84488e-17)
(5.66566 1.25254 9.56747e-18)
(6.10261 1.47511 1.68276e-18)
(6.77151 1.643 0)
(7.49586 1.85693 3.24206e-18)
(8.19628 2.06809 -3.81869e-18)
(8.96161 2.26108 1.4189e-18)
(9.32524 2.35017 0)
(9.35643 2.33819 -1.08368e-19)
(9.13783 2.19617 -6.46544e-19)
(8.38365 1.87264 2.75738e-18)
(6.97376 1.48659 0)
(5.51327 1.06869 -2.55923e-18)
(4.13393 0.712936 1.36417e-18)
(2.89394 0.433267 3.62501e-18)
(1.97725 0.227536 -3.1411e-18)
(1.44878 0.148271 5.07327e-18)
(1.17211 0.124941 -1.1192e-17)
(0.658661 0.0667143 7.08024e-18)
(-0.504723 -0.0935037 -8.83341e-18)
(4.55141 1.08012 1.08333e-17)
(5.77869 1.58986 -9.96433e-18)
(6.19908 1.75097 5.4409e-18)
(6.83636 1.94022 -8.334e-18)
(7.5341 2.16872 6.42322e-18)
(8.20492 2.38893 -1.47435e-18)
(8.92015 2.57752 8.04247e-20)
(9.22893 2.6554 1.35519e-18)
(9.23241 2.62715 -1.0221e-20)
(8.98595 2.45658 -1.82918e-18)
(8.21645 2.09053 -6.20966e-18)
(6.81183 1.65821 -2.39341e-18)
(5.36854 1.20115 -4.68198e-20)
(4.0134 0.820584 -5.40326e-18)
(2.87558 0.536581 -7.2861e-20)
(2.05057 0.321549 5.02059e-18)
(1.57575 0.260591 -1.55831e-18)
(1.33397 0.261218 -8.42911e-19)
(0.813368 0.132264 0)
(-0.404574 -0.0923742 2.028e-17)
(4.5554 1.26943 0)
(5.83421 1.9013 2.81311e-18)
(6.26645 2.05538 0)
(6.86344 2.24805 -3.17234e-19)
(7.52906 2.47899 -7.16343e-18)
(8.17016 2.70418 2.9773e-18)
(8.84727 2.89327 -1.72372e-18)
(9.11786 2.96089 -1.84556e-18)
(9.0965 2.91421 -2.9565e-19)
(8.83186 2.72079 2.58078e-19)
(8.05427 2.31552 3.4874e-18)
(6.6649 1.84147 5.40079e-18)
(5.26042 1.34668 -3.48409e-18)
(3.95393 0.93501 6.11757e-18)
(2.82226 0.591389 -4.90292e-18)
(2.04662 0.396928 0)
(1.63252 0.317073 -1.21827e-17)
(1.39543 0.30952 1.63275e-17)
(0.920888 0.184886 1.25994e-18)
(-0.2016 -0.048871 -2.2735e-17)
(4.53733 1.44484 -3.48031e-19)
(5.83778 2.18582 -6.76418e-18)
(6.26654 2.30381 -2.39812e-17)
(6.8414 2.52618 1.47066e-17)
(7.48462 2.7728 -4.74193e-18)
(8.10316 3.01083 3.32128e-18)
(8.74667 3.20199 -3.89664e-18)
(8.98465 3.26207 1.21065e-18)
(8.94122 3.19533 -3.38694e-19)
(8.65848 2.97836 -2.44978e-19)
(7.88734 2.53996 -4.37873e-18)
(6.51903 2.02437 -6.35622e-18)
(5.15095 1.49081 4.03713e-18)
(3.87726 1.03877 -2.26926e-18)
(2.86625 0.707884 5.6236e-18)
(2.19523 0.497632 0)
(1.83547 0.43204 -7.9529e-18)
(1.61492 0.443601 1.18004e-17)
(1.15573 0.303984 2.24161e-17)
(-0.0634015 0.0103314 -2.61852e-17)
(4.46864 1.61394 -3.42012e-17)
(5.83338 2.44869 1.73342e-17)
(6.27041 2.57462 1.54741e-17)
(6.79893 2.8175 -1.57732e-17)
(7.41455 3.06623 3.44415e-19)
(8.01157 3.3051 7.52628e-18)
(8.62276 3.50203 1.65474e-18)
(8.83501 3.55678 3.38073e-19)
(8.77366 3.47078 -1.11865e-18)
(8.4777 3.22863 1.4991e-18)
(7.72277 2.75909 3.78477e-18)
(6.3885 2.20428 9.95956e-18)
(5.08037 1.63445 0)
(3.87706 1.15786 2.17311e-19)
(2.87986 0.774666 -1.61941e-17)
(2.21736 0.595676 3.83308e-18)
(1.88795 0.544 1.80252e-17)
(1.67465 0.553219 -5.31598e-18)
(1.25299 0.408013 1.11783e-17)
(0.017973 0.0406404 -9.08109e-19)
(4.38295 1.77666 4.20532e-19)
(5.76493 2.64746 1.53323e-17)
(6.20922 2.75836 1.12331e-17)
(6.71618 3.05149 -2.612e-17)
(7.32267 3.32285 1.91579e-17)
(7.89813 3.58235 -8.23993e-18)
(8.48101 3.78993 -1.78446e-18)
(8.67346 3.84125 -2.10041e-18)
(8.60077 3.73755 5.64114e-19)
(8.29989 3.47157 -3.39297e-18)
(7.56498 2.9718 0)
(6.26999 2.38159 -4.17741e-18)
(4.9996 1.77833 4.78444e-18)
(3.82635 1.273 6.17292e-18)
(2.93836 0.920567 -3.63929e-18)
(2.38955 0.737537 -8.57335e-18)
(2.10632 0.685641 -2.60292e-18)
(1.8832 0.725201 -1.49216e-19)
(1.42027 0.527624 0)
(0.113639 0.0943806 0)
(4.29994 1.92382 -1.54676e-17)
(5.74257 2.89884 0)
(6.16801 3.00785 1.22127e-17)
(6.63059 3.31122 -5.22305e-18)
(7.21441 3.58369 -1.97991e-17)
(7.77105 3.84595 5.58008e-18)
(8.32929 4.06278 -1.97106e-18)
(8.50963 4.11267 1.87022e-18)
(8.43356 3.99489 1.77747e-19)
(8.13284 3.70898 -2.1707e-18)
(7.41617 3.18152 2.38178e-18)
(6.16098 2.55997 1.35638e-17)
(4.93863 1.9307 4.21112e-19)
(3.83379 1.40115 -6.64579e-18)
(2.96999 1.01734 1.2331e-17)
(2.40548 0.867852 6.06003e-20)
(2.14651 0.818284 2.78874e-18)
(1.96214 0.840538 -1.3738e-17)
(1.52619 0.653858 1.39859e-17)
(0.155083 0.120995 -1.65089e-17)
(4.17705 2.03156 -9.71154e-21)
(5.62975 3.03074 0)
(6.06459 3.14537 0)
(6.50847 3.49364 5.10789e-18)
(7.09498 3.79776 7.30202e-18)
(7.63519 4.0877 -4.84281e-18)
(8.17321 4.31777 5.44502e-18)
(8.34705 4.36812 0)
(8.27023 4.23979 -8.78509e-19)
(7.97082 3.93867 5.43031e-18)
(7.26942 3.3872 8.38485e-18)
(6.0534 2.73755 -5.18057e-18)
(4.86181 2.08449 -6.37394e-18)
(3.79202 1.5341 1.50282e-17)
(3.0278 1.18746 -4.4329e-18)
(2.57853 1.03424 -5.24263e-18)
(2.33695 1.00076 -3.22798e-18)
(2.1029 1.038 -1.52863e-17)
(1.61052 0.766915 2.15462e-18)
(0.166277 0.143194 1.84911e-17)
(4.09482 2.16191 -5.98253e-18)
(5.58159 3.26487 -9.27007e-18)
(5.99024 3.37915 4.9827e-19)
(6.39797 3.7133 3.14184e-21)
(6.96616 4.00953 3.02137e-18)
(7.49355 4.31115 -1.09831e-17)
(8.01494 4.55249 0)
(8.18592 4.60543 -4.4001e-19)
(8.1099 4.47019 3.46407e-19)
(7.81096 4.15851 8.96974e-18)
(7.12293 3.58781 -1.8345e-18)
(5.9458 2.91445 2.38865e-18)
(4.79224 2.2417 0)
(3.7869 1.67598 -8.20247e-18)
(3.0445 1.31231 1.01185e-17)
(2.56643 1.18141 0)
(2.36026 1.13074 -7.09059e-18)
(2.1827 1.16464 2.07959e-17)
(1.68113 0.884579 2.52352e-18)
(0.165862 0.147794 -2.32086e-17)
(3.96845 2.24321 -1.26409e-17)
(5.4629 3.37326 1.55988e-17)
(5.87507 3.496 0)
(6.26986 3.86693 1.17291e-17)
(6.83568 4.18297 0)
(7.34968 4.50965 1.11016e-17)
(7.85601 4.76538 0)
(8.02522 4.82321 0)
(7.94806 4.68391 -8.48848e-19)
(7.64933 4.36512 -8.94521e-18)
(6.97466 3.77986 -1.58317e-17)
(5.83699 3.08761 3.09474e-18)
(4.70866 2.39623 1.1528e-17)
(3.74188 1.82404 9.29448e-18)
(3.08558 1.49741 -3.27521e-17)
(2.71517 1.36366 -1.30856e-17)
(2.50221 1.32705 7.67384e-18)
(2.24467 1.34748 0)
(1.69148 0.974069 2.20249e-17)
(0.141195 0.148641 -2.54438e-17)
(3.89758 2.34719 1.35818e-17)
(5.40151 3.57904 -1.67566e-17)
(5.7895 3.71409 0)
(6.15757 4.06262 -3.39825e-19)
(6.7046 4.36252 -4.81231e-18)
(7.20502 4.69318 0)
(7.69758 4.95771 -1.24861e-18)
(7.86526 5.02175 5.13133e-19)
(7.78733 4.88094 -5.51714e-19)
(7.4893 4.55804 7.24791e-19)
(6.82705 3.96252 0)
(5.72536 3.25667 1.26955e-17)
(4.62262 2.54887 2.77306e-19)
(3.70864 1.97174 5.08668e-18)
(3.07781 1.64271 5.96515e-18)
(2.66874 1.51653 0)
(2.50385 1.44669 -1.29109e-17)
(2.30991 1.46972 2.5404e-17)
(1.6998 1.06659 -2.68908e-17)
(0.0986268 0.131738 5.60292e-17)
(3.78552 2.42709 0)
(5.28973 3.67778 0)
(5.67804 3.8141 -9.08423e-18)
(6.03561 4.1993 0)
(6.57746 4.51447 0)
(7.06506 4.85989 1.24756e-17)
(7.54274 5.13175 -1.31795e-18)
(7.70754 5.20194 8.01885e-19)
(7.62889 5.06197 1.92025e-19)
(7.33162 4.73711 0)
(6.68005 4.13403 -2.70991e-18)
(5.61049 3.41833 -1.05288e-17)
(4.53111 2.69921 -1.29842e-17)
(3.65695 2.1244 -5.28864e-18)
(3.10002 1.82687 6.63658e-18)
(2.78199 1.72312 -1.55735e-17)
(2.58174 1.65823 2.81809e-17)
(2.2986 1.62425 3.07756e-19)
(1.64587 1.11472 -2.53967e-17)
(0.0357761 0.105056 -3.89439e-18)
(3.72511 2.51272 0)
(5.22735 3.86215 -1.23302e-17)
(5.58857 4.00942 1.00752e-17)
(5.9321 4.37472 0)
(6.45653 4.67597 0)
(6.93134 5.01948 -2.66791e-17)
(7.39419 5.2923 0)
(7.55437 5.36602 0)
(7.47641 5.22821 -1.62534e-18)
(7.17944 4.90346 2.11421e-18)
(6.53578 4.29519 -2.22387e-17)
(5.49376 3.57156 0)
(4.43917 2.84554 -1.4266e-17)
(3.60953 2.27976 2.94573e-19)
(3.06476 1.98099 -2.13727e-17)
(2.70404 1.86653 8.44023e-18)
(2.54168 1.77627 1.59678e-19)
(2.32262 1.7234 -3.03918e-17)
(1.56217 1.14431 1.34917e-17)
(-0.0371526 0.0584109 4.17948e-18)
(3.63297 2.58737 0)
(5.12511 3.95498 -1.36315e-17)
(5.48964 4.0978 1.04342e-17)
(5.82516 4.49257 2.28179e-17)
(6.3416 4.81409 5.0625e-18)
(6.80672 5.16889 -3.05404e-18)
(7.25392 5.44252 2.44972e-18)
(7.40696 5.5166 -5.48245e-18)
(7.32981 5.38069 1.7422e-18)
(7.03175 5.05718 1.33087e-17)
(6.39453 4.44556 1.85489e-17)
(5.37736 3.71592 3.56585e-18)
(4.35091 2.98674 2.05842e-17)
(3.56127 2.44182 1.27857e-17)
(3.06338 2.16499 1.53685e-17)
(2.77535 2.07754 -9.32544e-18)
(2.58519 1.98653 -1.11576e-17)
(2.27067 1.86119 1.32098e-17)
(1.45684 1.13527 -7.49753e-18)
(-0.140988 0.0107027 1.37785e-17)
(3.58828 2.66709 1.84046e-17)
(5.06883 4.11937 2.17022e-17)
(5.41287 4.27452 5.4234e-18)
(5.73427 4.64872 5.8012e-20)
(6.23673 4.96007 -1.71433e-17)
(6.69106 5.31318 7.55812e-18)
(7.12293 5.585 -2.62381e-18)
(7.26795 5.65678 3.51621e-20)
(7.19053 5.52094 -2.63512e-18)
(6.89072 5.19922 -1.49797e-17)
(6.25934 4.58644 1.1441e-18)
(5.26502 3.85205 0)
(4.26606 3.12241 0)
(3.50978 2.60645 -6.64691e-18)
(3.00517 2.3383 -2.49573e-17)
(2.66784 2.21162 2.01662e-17)
(2.49906 2.08164 1.21242e-17)
(2.22321 1.92653 0)
(1.30911 1.1153 2.45805e-17)
(-0.24437 -0.0796001 -1.50576e-17)
(3.52068 2.74427 -9.649e-18)
(4.97974 4.20152 8.0604e-18)
(5.3304 4.35283 -1.20342e-17)
(5.64384 4.75227 -1.3657e-17)
(6.13796 5.08491 -6.31599e-18)
(6.58483 5.44967 2.20994e-18)
(7.00147 5.72145 0)
(7.13727 5.78929 6.53835e-18)
(7.05842 5.65119 -2.08338e-19)
(6.75658 5.33058 0)
(6.13163 4.71828 0)
(5.16163 3.98282 2.45762e-18)
(4.18682 3.25494 3.37372e-18)
(3.45778 2.76785 -7.13301e-18)
(2.98139 2.52975 1.79484e-17)
(2.70138 2.42515 -2.18202e-17)
(2.49381 2.27918 -2.5916e-17)
(2.11156 2.00765 2.35e-17)
(1.09192 1.01928 -9.21509e-18)
(-0.3053 -0.260732 5.39939e-18)
(3.49547 2.8258 1.06307e-17)
(4.93334 4.34897 0)
(5.26689 4.51065 0)
(5.56695 4.89144 -4.52846e-18)
(6.05029 5.21583 3.65961e-18)
(6.48868 5.5809 -1.86419e-19)
(6.89052 5.8523 -8.85447e-18)
(7.01817 5.91672 -7.87951e-18)
(6.93675 5.77466 4.6014e-18)
(6.63261 5.4536 -1.3741e-18)
(6.01464 4.84305 3.18277e-18)
(5.06486 4.10667 -2.12783e-17)
(4.11623 3.3885 -2.16725e-17)
(3.39961 2.93095 -3.77017e-18)
(2.90907 2.713 0)
(2.56497 2.58277 -2.58583e-19)
(2.3358 2.35753 1.38448e-17)
(1.97665 1.98379 -2.51886e-17)
(1.01124 0.887961 1.93941e-17)
(-0.252466 -0.450389 1.75333e-17)
(3.44871 2.90428 -2.24273e-17)
(4.85961 4.42313 -9.30523e-18)
(5.19965 4.58149 6.95859e-20)
(5.49213 4.98395 5.32329e-18)
(5.96722 5.32891 0)
(6.39927 5.70671 1.82337e-17)
(6.78624 5.98015 1.08782e-17)
(6.90622 6.0428 -1.0409e-18)
(6.82137 5.89654 -2.12766e-18)
(6.51479 5.57398 -1.34137e-18)
(5.90421 4.96689 1.24175e-18)
(4.9732 4.22936 1.8619e-17)
(4.04877 3.52741 2.10246e-17)
(3.34138 3.10271 3.62544e-18)
(2.87105 2.91295 1.84221e-17)
(2.56232 2.80406 0)
(2.28712 2.57502 0)
(1.73094 2.05666 1.6079e-17)
(0.457276 0.684201 -3.84529e-20)
(-0.103987 0.560789 -1.7632e-17)
(3.43914 2.98738 1.19967e-17)
(4.82231 4.55748 2.86379e-17)
(5.14822 4.72569 -4.40965e-17)
(5.42699 5.11117 2.74051e-17)
(5.89275 5.44898 -3.47843e-18)
(6.31627 5.82896 2.24534e-17)
(6.68725 6.1043 0)
(6.79988 6.16793 7.518e-18)
(6.71132 6.01923 0)
(6.40217 5.69501 1.5563e-17)
(5.79959 5.09357 -1.85722e-18)
(4.88693 4.35838 2.07708e-18)
(3.97722 3.67253 2.39972e-17)
(3.28505 3.29336 -7.79112e-18)
(2.80301 3.13301 -9.55674e-18)
(2.404 3.02293 0)
(2.01999 2.7397 0)
(1.24246 1.9236 0)
(0.43309 1.31758 -9.02606e-18)
(0.236289 2.3327 -5.6453e-18)
(3.40875 3.06539 0)
(4.76152 4.62584 0)
(5.09254 4.79059 1.5664e-17)
(5.36216 5.19485 -2.29503e-17)
(5.81998 5.55219 1.62249e-17)
(6.23587 5.94519 -2.06114e-17)
(6.59076 6.22371 -1.08626e-18)
(6.69612 6.28934 8.44296e-19)
(6.60542 6.14077 6.86955e-19)
(6.29374 5.81453 -1.77868e-17)
(5.69938 5.2192 3.0878e-18)
(4.80224 4.48951 1.87438e-17)
(3.90893 3.82546 -2.3897e-17)
(3.23876 3.49341 -2.61634e-17)
(2.76632 3.36951 8.93764e-18)
(2.40008 3.27809 0)
(1.94853 2.90985 1.29476e-17)
(1.15543 2.1355 1.60646e-17)
(0.612069 2.2815 -1.84118e-17)
(0.533563 2.9338 2.17227e-17)
(3.40746 3.14682 0)
(4.73154 4.74989 2.2289e-17)
(5.05034 4.92337 -4.046e-18)
(5.3063 5.31184 2.79108e-17)
(5.75513 5.66151 -1.70472e-17)
(6.16072 6.05656 0)
(6.4989 6.33725 0)
(6.59699 6.40625 0)
(6.50425 6.26014 4.15727e-19)
(6.19099 5.93322 4.97371e-19)
(5.60132 5.34178 0)
(4.71812 4.6188 -1.85225e-17)
(3.84933 3.98551 0)
(3.2051 3.70325 1.87253e-17)
(2.73315 3.61318 -1.29269e-17)
(2.28441 3.51551 -1.03263e-17)
(1.65517 3.07014 -2.20738e-17)
(1.06178 2.60233 -1.47352e-17)
(0.716039 3.03859 -2.55145e-17)
(0.729202 3.32356 2.06269e-17)
(3.38555 3.22097 -7.45219e-18)
(4.68237 4.81335 1.89817e-19)
(5.00506 4.98504 -4.22994e-18)
(5.25245 5.39206 -2.21145e-17)
(5.69155 5.75727 0)
(6.08771 6.16358 0)
(6.40902 6.44665 0)
(6.49992 6.51914 -3.05359e-19)
(6.40533 6.37651 -8.57316e-19)
(6.09125 6.05069 0)
(5.50332 5.46102 0)
(4.63617 4.74597 0)
(3.79853 4.15119 0)
(3.17958 3.9167 1.41994e-17)
(2.71416 3.8566 3.5098e-17)
(2.28288 3.74406 1.08012e-17)
(1.73189 3.2277 2.25604e-17)
(1.38816 3.06389 -2.13639e-17)
(1.00774 3.55068 8.168e-18)
(0.891832 3.66269 0)
(3.38731 3.29443 7.22979e-18)
(4.65952 4.92945 -4.4623e-17)
(4.96988 5.10899 -1.2947e-17)
(5.20449 5.50502 -3.25216e-18)
(5.63358 5.86204 4.00502e-18)
(6.01715 6.26841 -2.82041e-17)
(6.32087 6.55277 1.90482e-18)
(6.40514 6.62944 1.02679e-17)
(6.30799 6.49036 0)
(5.99269 6.16626 -1.24798e-18)
(5.40694 5.5787 1.13798e-18)
(4.55995 4.87279 0)
(3.75777 4.31896 0)
(3.1717 4.13362 -1.77531e-17)
(2.7262 4.09362 3.39227e-18)
(2.26258 3.93796 -1.01847e-17)
(1.62278 3.45888 2.29502e-17)
(1.16856 3.599 2.058e-17)
(0.948404 3.91708 -3.46536e-17)
(0.868965 3.96888 1.81639e-17)
(3.36414 3.3648 1.33769e-17)
(4.61308 4.98777 4.1482e-17)
(4.92499 5.1671 1.57734e-17)
(5.15154 5.58369 0)
(5.56916 5.95748 0)
(5.94026 6.37347 2.13228e-17)
(6.22708 6.65991 -1.22349e-17)
(6.30529 6.73944 -9.48412e-18)
(6.20617 6.60311 -2.69115e-19)
(5.89029 6.2803 1.25729e-17)
(5.31058 5.69619 -2.21467e-17)
(4.48884 5.00133 0)
(3.72632 4.48959 0)
(3.17691 4.34949 -1.29458e-17)
(2.74411 4.32787 -1.63977e-17)
(2.26573 4.14083 0)
(1.75705 3.74944 -3.27696e-17)
(1.45698 3.97298 -6.15607e-18)
(1.2912 4.35851 3.60297e-17)
(1.01009 4.37212 -1.88289e-17)
(3.36077 3.43387 -2.52493e-17)
(4.58353 5.10415 -1.96529e-17)
(4.88307 5.29534 0)
(5.09455 5.7 0)
(5.49854 6.06325 0)
(5.85658 6.47839 0)
(6.12655 6.76536 1.29552e-17)
(6.19934 6.84761 -1.11874e-17)
(6.0987 6.71394 0)
(5.78416 6.39255 -1.12105e-17)
(5.21421 5.81244 4.01454e-17)
(4.42254 5.12997 1.7572e-18)
(3.7054 4.65997 2.65289e-18)
(3.19978 4.56207 2.20286e-17)
(2.79048 4.54292 -1.45949e-17)
(2.27808 4.28858 0)
(1.86174 4.07195 1.0722e-17)
(1.44859 4.53163 5.89162e-19)
(1.07317 4.71058 -5.77052e-18)
(0.683417 4.79767 1.13953e-17)
(3.32071 3.49734 1.19547e-17)
(4.52101 5.15536 -1.87015e-17)
(4.82184 5.34504 0)
(5.02217 5.77239 -5.07542e-18)
(5.41422 6.15654 1.93209e-17)
(5.76199 6.5832 0)
(6.01581 6.87023 0)
(6.08421 6.95335 2.00784e-17)
(5.98352 6.82184 -3.54643e-19)
(5.6731 6.50228 1.10128e-17)
(5.11659 5.92606 -1.90986e-17)
(4.35982 5.25726 1.3014e-17)
(3.69325 4.82801 0)
(3.23072 4.76245 -1.21265e-17)
(2.82984 4.7413 7.44195e-18)
(2.3667 4.52614 8.23239e-18)
(1.94712 4.40227 0)
(1.63037 4.80541 5.52845e-18)
(1.22454 5.35127 9.70814e-18)
(1.09737 5.53438 2.79724e-18)
(3.30172 3.56584 -2.241e-17)
(4.4731 5.27817 2.66904e-17)
(4.76105 5.4759 2.01984e-17)
(4.94437 5.88669 -5.32312e-18)
(5.3237 6.25943 -2.91388e-17)
(5.65929 6.68488 0)
(5.89818 6.97135 1.01048e-17)
(5.96288 7.05566 -8.22423e-18)
(5.86303 6.92642 -5.91029e-19)
(5.5593 6.60901 -9.60044e-18)
(5.0189 6.03588 -8.91218e-19)
(4.30012 5.38068 -1.45637e-17)
(3.68695 4.98939 1.78787e-17)
(3.2693 4.94807 5.61542e-18)
(2.90291 4.92737 -1.3074e-17)
(2.42959 4.67659 1.47539e-17)
(2.14799 4.60932 0)
(1.85391 5.42422 0)
(1.6016 5.90039 2.52585e-18)
(0.506278 5.94028 -7.43374e-18)
(3.24222 3.62387 1.06743e-17)
(4.39221 5.32999 2.48217e-17)
(4.68188 5.5216 -1.95457e-17)
(4.85325 5.95489 1.93111e-17)
(5.22137 6.35001 2.78134e-17)
(5.54744 6.78715 0)
(5.77231 7.07235 -1.08365e-17)
(5.83433 7.15535 -9.87868e-18)
(5.73747 7.02709 0)
(5.44291 6.71117 0)
(4.92162 6.14031 0)
(4.24419 5.49903 0)
(3.68509 5.14128 -2.03769e-17)
(3.31144 5.11151 -7.80278e-18)
(2.9638 5.07156 0)
(2.5687 4.8634 -7.32371e-18)
(2.39053 5.04841 0)
(2.42759 5.42898 -3.39593e-18)
(2.4823 5.37499 5.0272e-18)
(1.37187 5.39944 -2.40241e-18)
(3.20747 3.69569 -2.00797e-17)
(4.32633 5.46809 -1.5628e-17)
(4.60392 5.66475 -1.20429e-17)
(4.75835 6.07581 -1.80227e-17)
(5.11422 6.45487 -1.29404e-17)
(5.42905 6.88898 0)