/*--------------------------------*- C++ -*----------------------------------*\
| =========                 |                                                 |
| \\      /  F ield         | OpenFOAM: The Open Source CFD Toolbox           |
|  \\    /   O peration     | Version:  2412                                  |
|   \\  /    A nd           | Website:  www.openfoam.com                      |
|    \\/     M anipulation  |                                                 |
\*---------------------------------------------------------------------------*/
FoamFile
{
    version     2.0;
    format      ascii;
    arch        "LSB;label=32;scalar=64";
    class       surfaceScalarField;
    location    "0.44";
    object      phi;
}
// * * * * * * * * * * * * * * * * * * * * * * * * * * * * * * * * * * * * * //

dimensions      [0 3 -1 0 0 0 0];

oriented        oriented;

internalField   nonuniform List<scalar> 
799
(
3.29785e-05
6.5957e-05
9.89352e-05
0.000131913
0.00016489
0.000197867
0.000230842
0.000263817
0.00029679
0.000329762
0.000362732
0.0003957
0.000428667
0.000461632
0.000494595
0.000527555
0.000560513
0.000593468
0.000626421
0.000659371
0.000692317
0.000725261
0.000758201
0.000791137
0.00082407
0.000856999
0.000889924
0.000922845
0.000955762
0.000988674
0.00102158
0.00105448
0.00108738
0.00112027
0.00115316
0.00118604
0.00121892
0.00125179
0.00128466
0.00131752
0.00135037
0.00138321
0.00141605
0.00144889
0.00148171
0.00151453
0.00154735
0.00158015
0.00161295
0.00164574
0.00167852
0.0017113
0.00174406
0.00177682
0.00180957
0.00184231
0.00187504
0.00190776
0.00194048
0.00197318
0.00200588
0.00203856
0.00207124
0.00210391
0.00213656
0.00216921
0.00220184
0.00223447
0.00226708
0.00229968
0.00233227
0.00236486
0.00239742
0.00242998
0.00246253
0.00249506
0.00252758
0.00256009
0.00259259
0.00262507
0.00265754
0.00269
0.00272244
0.00275487
0.00278729
0.00281969
0.00285208
0.00288446
0.00291682
0.00294916
0.0029815
0.00301381
0.00304611
0.0030784
0.00311067
0.00314293
0.00317517
0.00320739
0.0032396
0.00327179
0.00330396
0.00333612
0.00336826
0.00340038
0.00343248
0.00346457
0.00349664
0.00352869
0.00356073
0.00359274
0.00362474
0.00365672
0.00368867
0.00372061
0.00375253
0.00378443
0.00381631
0.00384817
0.00388001
0.00391183
0.00394363
0.0039754
0.00400716
0.00403889
0.00407061
0.0041023
0.00413396
0.00416561
0.00419723
0.00422883
0.00426041
0.00429196
0.0043235
0.004355
0.00438648
0.00441794
0.00444938
0.00448079
0.00451217
0.00454353
0.00457486
0.00460617
0.00463745
0.00466871
0.00469994
0.00473114
0.00476231
0.00479346
0.00482458
0.00485567
0.00488674
0.00491777
0.00494878
0.00497976
0.00501071
0.00504162
0.00507251
0.00510337
0.0051342
0.005165
0.00519577
0.0052265
0.00525721
0.00528788
0.00531852
0.00534913
0.00537971
0.00541025
0.00544076
0.00547124
0.00550168
0.00553208
0.00556246
0.0055928
0.0056231
0.00565336
0.0056836
0.00571379
0.00574395
0.00577407
0.00580415
0.0058342
0.00586421
0.00589418
0.00592411
0.005954
0.00598385
0.00601366
0.00604344
0.00607317
0.00610286
0.00613251
0.00616212
0.00619168
0.0062212
0.00625068
0.00628012
0.00630951
0.00633886
0.00636817
0.00639742
0.00642664
0.00645581
0.00648493
0.006514
0.00654303
0.00657201
0.00660094
0.00662982
0.00665866
0.00668744
0.00671618
0.00674486
0.00677349
0.00680207
0.0068306
0.00685908
0.0068875
0.00691588
0.00694419
0.00697245
0.00700066
0.00702881
0.00705691
0.00708495
0.00711293
0.00714085
0.00716871
0.00719652
0.00722427
0.00725195
0.00727958
0.00730714
0.00733464
0.00736208
0.00738946
0.00741677
0.00744402
0.0074712
0.00749831
0.00752536
0.00755234
0.00757926
0.0076061
0.00763288
0.00765958
0.00768622
0.00771278
0.00773927
0.00776569
0.00779203
0.0078183
0.00784449
0.00787061
0.00789664
0.00792261
0.00794849
0.00797429
0.00800001
0.00802565
0.00805121
0.00807668
0.00810207
0.00812737
0.00815259
0.00817772
0.00820276
0.00822771
0.00825257
0.00827734
0.00830202
0.00832661
0.0083511
0.00837549
0.00839979
0.00842399
0.00844809
0.00847209
0.00849598
0.00851978
0.00854347
0.00856705
0.00859053
0.0086139
0.00863716
0.00866031
0.00868335
0.00870627
0.00872908
0.00875177
0.00877435
0.0087968
0.00881913
0.00884134
0.00886343
0.00888539
0.00890722
0.00892892
0.00895049
0.00897192
0.00899323
0.00901439
0.00903541
0.0090563
0.00907704
0.00909764
0.00911808
0.00913838
0.00915853
0.00917853
0.00919836
0.00921804
0.00923756
0.00925692
0.00927611
0.00929513
0.00931398
0.00933265
0.00935115
0.00936947
0.00938761
0.00940557
0.00942333
0.0094409
0.00945828
0.00947546
0.00949244
0.00950921
0.00952577
0.00954213
0.00955826
0.00957418
0.00958987
0.00960534
0.00962057
0.00963556
0.00965031
0.00966482
0.00967908
0.00969308
0.00970682
0.0097203
0.0097335
0.00974642
0.00975907
0.00977142
0.00978348
0.00979524
0.00980669
0.00981783
0.00982864
0.00983913
0.00984928
0.00985908
0.00986853
0.00987762
0.00988634
0.00989468
0.00990264
0.00991019
0.00991733
0.00992406
0.00993035
0.0099362
0.0099416
0.00994652
0.00995097
0.00995492
0.00995836
0.00996127
0.00996364
0.00996546
0.00996669
0.00996733
0.00996736
0.00996675
0.00996548
0.00996353
0.00996087
0.00995747
0.00995332
0.00994837
0.0099426
0.00993597
0.00992845
0.00992
0.00991057
0.00990013
0.00988862
0.00987598
0.00986217
0.00984713
0.00983078
0.00981305
0.0097938
0.00977376
0.00974349
0.00980498
0.00786814
6.73907e-06
-0.0078613
-0.00980488
-0.00974348
-0.00977374
-0.00979379
-0.00981304
-0.00983076
-0.00984712
-0.00986217
-0.00987598
-0.00988861
-0.00990012
-0.00991057
-0.00992
-0.00992845
-0.00993597
-0.0099426
-0.00994837
-0.00995332
-0.00995747
-0.00996086
-0.00996352
-0.00996548
-0.00996675
-0.00996736
-0.00996733
-0.00996669
-0.00996546
-0.00996364
-0.00996127
-0.00995836
-0.00995492
-0.00995097
-0.00994652
-0.00994159
-0.0099362
-0.00993035
-0.00992406
-0.00991733
-0.00991019
-0.00990263
-0.00989468
-0.00988634
-0.00987762
-0.00986853
-0.00985908
-0.00984927
-0.00983912
-0.00982864
-0.00981782
-0.00980669
-0.00979524
-0.00978348
-0.00977142
-0.00975906
-0.00974642
-0.00973349
-0.00972029
-0.00970681
-0.00969307
-0.00967907
-0.00966481
-0.00965031
-0.00963555
-0.00962056
-0.00960533
-0.00958986
-0.00957417
-0.00955825
-0.00954212
-0.00952576
-0.0095092
-0.00949243
-0.00947545
-0.00945827
-0.00944089
-0.00942332
-0.00940555
-0.0093876
-0.00936946
-0.00935114
-0.00933264
-0.00931396
-0.00929511
-0.00927609
-0.0092569
-0.00923755
-0.00921803
-0.00919835
-0.00917851
-0.00915852
-0.00913837
-0.00911807
-0.00909762
-0.00907702
-0.00905628
-0.0090354
-0.00901437
-0.00899321
-0.00897191
-0.00895047
-0.0089289
-0.0089072
-0.00888537
-0.00886341
-0.00884132
-0.00881911
-0.00879678
-0.00877433
-0.00875175
-0.00872906
-0.00870625
-0.00868333
-0.00866029
-0.00863714
-0.00861388
-0.00859051
-0.00856703
-0.00854345
-0.00851976
-0.00849596
-0.00847207
-0.00844807
-0.00842397
-0.00839977
-0.00837547
-0.00835108
-0.00832659
-0.008302
-0.00827732
-0.00825255
-0.00822769
-0.00820274
-0.0081777
-0.00815257
-0.00812735
-0.00810205
-0.00807666
-0.00805118
-0.00802563
-0.00799999
-0.00797427
-0.00794846
-0.00792258
-0.00789662
-0.00787058
-0.00784447
-0.00781828
-0.00779201
-0.00776566
-0.00773925
-0.00771276
-0.0076862
-0.00765956
-0.00763286
-0.00760608
-0.00757924
-0.00755232
-0.00752534
-0.00749829
-0.00747118
-0.00744399
-0.00741675
-0.00738944
-0.00736206
-0.00733462
-0.00730712
-0.00727956
-0.00725193
-0.00722425
-0.0071965
-0.00716869
-0.00714083
-0.00711291
-0.00708492
-0.00705689
-0.00702879
-0.00700064
-0.00697243
-0.00694417
-0.00691585
-0.00688748
-0.00685906
-0.00683058
-0.00680205
-0.00677347
-0.00674484
-0.00671616
-0.00668742
-0.00665864
-0.0066298
-0.00660092
-0.00657199
-0.00654301
-0.00651398
-0.00648491
-0.00645579
-0.00642662
-0.00639741
-0.00636815
-0.00633884
-0.00630949
-0.0062801
-0.00625066
-0.00622119
-0.00619166
-0.0061621
-0.00613249
-0.00610284
-0.00607315
-0.00604342
-0.00601365
-0.00598383
-0.00595398
-0.00592409
-0.00589416
-0.00586419
-0.00583418
-0.00580414
-0.00577405
-0.00574393
-0.00571377
-0.00568358
-0.00565335
-0.00562308
-0.00559278
-0.00556244
-0.00553207
-0.00550166
-0.00547122
-0.00544074
-0.00541024
-0.00537969
-0.00534912
-0.00531851
-0.00528787
-0.0052572
-0.00522649
-0.00519575
-0.00516499
-0.00513419
-0.00510336
-0.0050725
-0.00504161
-0.00501069
-0.00497974
-0.00494876
-0.00491776
-0.00488672
-0.00485566
-0.00482457
-0.00479345
-0.0047623
-0.00473112
-0.00469992
-0.00466869
-0.00463744
-0.00460616
-0.00457485
-0.00454352
-0.00451216
-0.00448077
-0.00444937
-0.00441793
-0.00438647
-0.00435499
-0.00432348
-0.00429195
-0.0042604
-0.00422882
-0.00419722
-0.0041656
-0.00413395
-0.00410229
-0.0040706
-0.00403888
-0.00400715
-0.00397539
-0.00394362
-0.00391182
-0.00388
-0.00384816
-0.0038163
-0.00378442
-0.00375252
-0.0037206
-0.00368867
-0.00365671
-0.00362473
-0.00359273
-0.00356072
-0.00352869
-0.00349663
-0.00346457
-0.00343248
-0.00340037
-0.00336825
-0.00333611
-0.00330395
-0.00327178
-0.00323959
-0.00320738
-0.00317516
-0.00314292
-0.00311067
-0.0030784
-0.00304611
-0.00301381
-0.00298149
-0.00294916
-0.00291681
-0.00288445
-0.00285208
-0.00281969
-0.00278728
-0.00275487
-0.00272244
-0.00268999
-0.00265754
-0.00262507
-0.00259258
-0.00256009
-0.00252758
-0.00249506
-0.00246252
-0.00242998
-0.00239742
-0.00236485
-0.00233227
-0.00229968
-0.00226708
-0.00223446
-0.00220184
-0.0021692
-0.00213656
-0.0021039
-0.00207124
-0.00203856
-0.00200588
-0.00197318
-0.00194048
-0.00190776
-0.00187504
-0.00184231
-0.00180957
-0.00177682
-0.00174406
-0.00171129
-0.00167852
-0.00164574
-0.00161295
-0.00158015
-0.00154734
-0.00151453
-0.00148171
-0.00144889
-0.00141605
-0.00138321
-0.00135037
-0.00131751
-0.00128466
-0.00125179
-0.00121892
-0.00118604
-0.00115316
-0.00112027
-0.00108738
-0.00105448
-0.00102158
-0.000988673
-0.000955761
-0.000922845
-0.000889924
-0.000856999
-0.00082407
-0.000791137
-0.0007582
-0.00072526
-0.000692317
-0.000659371
-0.000626421
-0.000593468
-0.000560513
-0.000527555
-0.000494595
-0.000461632
-0.000428667
-0.000395701
-0.000362732
-0.000329762
-0.00029679
-0.000263817
-0.000230842
-0.000197867
-0.00016489
-0.000131913
-9.89354e-05
-6.59572e-05
-3.29787e-05
)
;

boundaryField
{
    left
    {
        type            calculated;
        value           uniform 0;
    }
    right
    {
        type            calculated;
        value           uniform 0;
    }
    frontBackUpDown
    {
        type            empty;
    }
}


// ************************************************************************* //
