/*--------------------------------*- C++ -*----------------------------------*\
| =========                 |                                                 |
| \\      /  F ield         | OpenFOAM: The Open Source CFD Toolbox           |
|  \\    /   O peration     | Version:  2412                                  |
|   \\  /    A nd           | Website:  www.openfoam.com                      |
|    \\/     M anipulation  |                                                 |
\*---------------------------------------------------------------------------*/
FoamFile
{
    version     2.0;
    format      ascii;
    arch        "LSB;label=32;scalar=64";
    class       volVectorField;
    location    "0.44";
    object      U_0;
}
// * * * * * * * * * * * * * * * * * * * * * * * * * * * * * * * * * * * * * //

dimensions      [0 1 -1 0 0 0 0];

internalField   nonuniform List<vector> 
800
(
(0.00165 0 0)
(0.00495004 0 0)
(0.00825005 0 0)
(0.01155 0 0)
(0.01485 0 0)
(0.0181498 0 0)
(0.0214496 0 0)
(0.0247493 0 0)
(0.0280488 0 0)
(0.0313482 0 0)
(0.0346475 0 0)
(0.0379466 0 0)
(0.0412456 0 0)
(0.0445443 0 0)
(0.0478429 0 0)
(0.0511412 0 0)
(0.0544393 0 0)
(0.0577371 0 0)
(0.0610347 0 0)
(0.064332 0 0)
(0.067629 0 0)
(0.0709256 0 0)
(0.074222 0 0)
(0.077518 0 0)
(0.0808136 0 0)
(0.0841089 0 0)
(0.0874037 0 0)
(0.0906982 0 0)
(0.0939922 0 0)
(0.0972858 0 0)
(0.100579 0 0)
(0.103872 0 0)
(0.107164 0 0)
(0.110456 0 0)
(0.113747 0 0)
(0.117037 0 0)
(0.120327 0 0)
(0.123617 0 0)
(0.126906 0 0)
(0.130194 0 0)
(0.133482 0 0)
(0.136769 0 0)
(0.140056 0 0)
(0.143341 0 0)
(0.146626 0 0)
(0.149911 0 0)
(0.153195 0 0)
(0.156478 0 0)
(0.15976 0 0)
(0.163041 0 0)
(0.166322 0 0)
(0.169602 0 0)
(0.172881 0 0)
(0.176159 0 0)
(0.179437 0 0)
(0.182714 0 0)
(0.185989 0 0)
(0.189264 0 0)
(0.192538 0 0)
(0.195811 0 0)
(0.199083 0 0)
(0.202354 0 0)
(0.205625 0 0)
(0.208894 0 0)
(0.212162 0 0)
(0.215429 0 0)
(0.218695 0 0)
(0.22196 0 0)
(0.225224 0 0)
(0.228487 0 0)
(0.231749 0 0)
(0.23501 0 0)
(0.238269 0 0)
(0.241528 0 0)
(0.244785 0 0)
(0.248041 0 0)
(0.251296 0 0)
(0.254549 0 0)
(0.257801 0 0)
(0.261052 0 0)
(0.264302 0 0)
(0.267551 0 0)
(0.270798 0 0)
(0.274044 0 0)
(0.277288 0 0)
(0.280531 0 0)
(0.283773 0 0)
(0.287013 0 0)
(0.290252 0 0)
(0.293489 0 0)
(0.296725 0 0)
(0.299959 0 0)
(0.303192 0 0)
(0.306424 0 0)
(0.309654 0 0)
(0.312882 0 0)
(0.316109 0 0)
(0.319334 0 0)
(0.322557 0 0)
(0.325779 0 0)
(0.328999 0 0)
(0.332218 0 0)
(0.335434 0 0)
(0.338649 0 0)
(0.341863 0 0)
(0.345074 0 0)
(0.348284 0 0)
(0.351492 0 0)
(0.354698 0 0)
(0.357903 0 0)
(0.361105 0 0)
(0.364306 0 0)
(0.367504 0 0)
(0.370701 0 0)
(0.373896 0 0)
(0.377089 0 0)
(0.38028 0 0)
(0.383469 0 0)
(0.386655 0 0)
(0.38984 0 0)
(0.393023 0 0)
(0.396203 0 0)
(0.399382 0 0)
(0.402558 0 0)
(0.405732 0 0)
(0.408904 0 0)
(0.412074 0 0)
(0.415242 0 0)
(0.418407 0 0)
(0.42157 0 0)
(0.424731 0 0)
(0.427889 0 0)
(0.431045 0 0)
(0.434199 0 0)
(0.43735 0 0)
(0.440499 0 0)
(0.443645 0 0)
(0.446789 0 0)
(0.44993 0 0)
(0.453069 0 0)
(0.456206 0 0)
(0.459339 0 0)
(0.462471 0 0)
(0.465599 0 0)
(0.468725 0 0)
(0.471848 0 0)
(0.474969 0 0)
(0.478087 0 0)
(0.481202 0 0)
(0.484314 0 0)
(0.487423 0 0)
(0.49053 0 0)
(0.493634 0 0)
(0.496735 0 0)
(0.499833 0 0)
(0.502928 0 0)
(0.50602 0 0)
(0.509109 0 0)
(0.512195 0 0)
(0.515278 0 0)
(0.518358 0 0)
(0.521435 0 0)
(0.524508 0 0)
(0.527579 0 0)
(0.530646 0 0)
(0.53371 0 0)
(0.536771 0 0)
(0.539828 0 0)
(0.542882 0 0)
(0.545933 0 0)
(0.54898 0 0)
(0.552024 0 0)
(0.555065 0 0)
(0.558102 0 0)
(0.561135 0 0)
(0.564165 0 0)
(0.567191 0 0)
(0.570214 0 0)
(0.573233 0 0)
(0.576249 0 0)
(0.57926 0 0)
(0.582268 0 0)
(0.585272 0 0)
(0.588272 0 0)
(0.591269 0 0)
(0.594261 0 0)
(0.59725 0 0)
(0.600234 0 0)
(0.603215 0 0)
(0.606191 0 0)
(0.609164 0 0)
(0.612132 0 0)
(0.615096 0 0)
(0.618056 0 0)
(0.621012 0 0)
(0.623963 0 0)
(0.62691 0 0)
(0.629853 0 0)
(0.632791 0 0)
(0.635725 0 0)
(0.638654 0 0)
(0.641579 0 0)
(0.644499 0 0)
(0.647414 0 0)
(0.650325 0 0)
(0.653232 0 0)
(0.656133 0 0)
(0.65903 0 0)
(0.661921 0 0)
(0.664808 0 0)
(0.66769 0 0)
(0.670567 0 0)
(0.673439 0 0)
(0.676306 0 0)
(0.679167 0 0)
(0.682024 0 0)
(0.684875 0 0)
(0.687721 0 0)
(0.690562 0 0)
(0.693397 0 0)
(0.696227 0 0)
(0.699051 0 0)
(0.70187 0 0)
(0.704683 0 0)
(0.70749 0 0)
(0.710292 0 0)
(0.713088 0 0)
(0.715878 0 0)
(0.718663 0 0)
(0.721441 0 0)
(0.724213 0 0)
(0.726979 0 0)
(0.729739 0 0)
(0.732493 0 0)
(0.735241 0 0)
(0.737982 0 0)
(0.740717 0 0)
(0.743446 0 0)
(0.746168 0 0)
(0.748883 0 0)
(0.751592 0 0)
(0.754294 0 0)
(0.756989 0 0)
(0.759677 0 0)
(0.762359 0 0)
(0.765033 0 0)
(0.7677 0 0)
(0.770361 0 0)
(0.773014 0 0)
(0.775659 0 0)
(0.778297 0 0)
(0.780928 0 0)
(0.783551 0 0)
(0.786167 0 0)
(0.788775 0 0)
(0.791375 0 0)
(0.793967 0 0)
(0.796552 0 0)
(0.799128 0 0)
(0.801696 0 0)
(0.804256 0 0)
(0.806807 0 0)
(0.80935 0 0)
(0.811885 0 0)
(0.814411 0 0)
(0.816928 0 0)
(0.819436 0 0)
(0.821936 0 0)
(0.824426 0 0)
(0.826908 0 0)
(0.82938 0 0)
(0.831843 0 0)
(0.834296 0 0)
(0.83674 0 0)
(0.839174 0 0)
(0.841598 0 0)
(0.844013 0 0)
(0.846417 0 0)
(0.848812 0 0)
(0.851196 0 0)
(0.853569 0 0)
(0.855932 0 0)
(0.858285 0 0)
(0.860627 0 0)
(0.862957 0 0)
(0.865277 0 0)
(0.867586 0 0)
(0.869883 0 0)
(0.872168 0 0)
(0.874443 0 0)
(0.876705 0 0)
(0.878955 0 0)
(0.881193 0 0)
(0.883419 0 0)
(0.885633 0 0)
(0.887834 0 0)
(0.890022 0 0)
(0.892197 0 0)
(0.89436 0 0)
(0.896508 0 0)
(0.898644 0 0)
(0.900766 0 0)
(0.902873 0 0)
(0.904967 0 0)
(0.907047 0 0)
(0.909112 0 0)
(0.911163 0 0)
(0.913198 0 0)
(0.915219 0 0)
(0.917224 0 0)
(0.919213 0 0)
(0.921187 0 0)
(0.923145 0 0)
(0.925086 0 0)
(0.927011 0 0)
(0.92892 0 0)
(0.930811 0 0)
(0.932685 0 0)
(0.934541 0 0)
(0.936379 0 0)
(0.9382 0 0)
(0.940001 0 0)
(0.941784 0 0)
(0.943548 0 0)
(0.945293 0 0)
(0.947018 0 0)
(0.948722 0 0)
(0.950407 0 0)
(0.95207 0 0)
(0.953713 0 0)
(0.955334 0 0)
(0.956933 0 0)
(0.95851 0 0)
(0.960064 0 0)
(0.961594 0 0)
(0.963102 0 0)
(0.964585 0 0)
(0.966044 0 0)
(0.967478 0 0)
(0.968886 0 0)
(0.970269 0 0)
(0.971625 0 0)
(0.972954 0 0)
(0.974256 0 0)
(0.975529 0 0)
(0.976774 0 0)
(0.97799 0 0)
(0.979175 0 0)
(0.98033 0 0)
(0.981454 0 0)
(0.982545 0 0)
(0.983604 0 0)
(0.98463 0 0)
(0.985621 0 0)
(0.986577 0 0)
(0.987498 0 0)
(0.988381 0 0)
(0.989227 0 0)
(0.990035 0 0)
(0.990802 0 0)
(0.99153 0 0)
(0.992215 0 0)
(0.992858 0 0)
(0.993457 0 0)
(0.99401 0 0)
(0.994518 0 0)
(0.994977 0 0)
(0.995387 0 0)
(0.995747 0 0)
(0.996055 0 0)
(0.996309 0 0)
(0.996508 0 0)
(0.996649 0 0)
(0.996732 0 0)
(0.996753 0 0)
(0.996712 0 0)
(0.996606 0 0)
(0.996432 0 0)
(0.996188 0 0)
(0.995871 0 0)
(0.995479 0 0)
(0.99501 0 0)
(0.994458 0 0)
(0.993823 0 0)
(0.993099 0 0)
(0.992283 0 0)
(0.991371 0 0)
(0.990359 0 0)
(0.989242 0 0)
(0.988014 0 0)
(0.986671 0 0)
(0.985206 0 0)
(0.983613 0 0)
(0.981885 0 0)
(0.980015 0 0)
(0.977979 0 0)
(0.975944 0 0)
(0.971881 0 0)
(0.988046 0 0)
(0.584284 0 0)
(-0.582938 0 0)
(-0.988025 0 0)
(-0.971882 0 0)
(-0.975942 0 0)
(-0.977977 0 0)
(-0.980013 0 0)
(-0.981884 0 0)
(-0.983612 0 0)
(-0.985205 0 0)
(-0.98667 0 0)
(-0.988014 0 0)
(-0.989241 0 0)
(-0.990359 0 0)
(-0.991371 0 0)
(-0.992283 0 0)
(-0.993099 0 0)
(-0.993822 0 0)
(-0.994458 0 0)
(-0.995009 0 0)
(-0.995479 0 0)
(-0.995871 0 0)
(-0.996187 0 0)
(-0.996431 0 0)
(-0.996605 0 0)
(-0.996712 0 0)
(-0.996753 0 0)
(-0.996732 0 0)
(-0.996649 0 0)
(-0.996508 0 0)
(-0.996309 0 0)
(-0.996055 0 0)
(-0.995747 0 0)
(-0.995387 0 0)
(-0.994977 0 0)
(-0.994517 0 0)
(-0.99401 0 0)
(-0.993456 0 0)
(-0.992858 0 0)
(-0.992215 0 0)
(-0.991529 0 0)
(-0.990802 0 0)
(-0.990034 0 0)
(-0.989227 0 0)
(-0.988381 0 0)
(-0.987497 0 0)
(-0.986577 0 0)
(-0.985621 0 0)
(-0.984629 0 0)
(-0.983604 0 0)
(-0.982545 0 0)
(-0.981453 0 0)
(-0.980329 0 0)
(-0.979174 0 0)
(-0.977989 0 0)
(-0.976773 0 0)
(-0.975529 0 0)
(-0.974255 0 0)
(-0.972953 0 0)
(-0.971624 0 0)
(-0.970268 0 0)
(-0.968886 0 0)
(-0.967477 0 0)
(-0.966043 0 0)
(-0.964584 0 0)
(-0.963101 0 0)
(-0.961593 0 0)
(-0.960063 0 0)
(-0.958508 0 0)
(-0.956932 0 0)
(-0.955333 0 0)
(-0.953712 0 0)
(-0.952069 0 0)
(-0.950406 0 0)
(-0.948721 0 0)
(-0.947016 0 0)
(-0.945292 0 0)
(-0.943547 0 0)
(-0.941783 0 0)
(-0.94 0 0)
(-0.938198 0 0)
(-0.936378 0 0)
(-0.93454 0 0)
(-0.932683 0 0)
(-0.930809 0 0)
(-0.928918 0 0)
(-0.92701 0 0)
(-0.925085 0 0)
(-0.923143 0 0)
(-0.921186 0 0)
(-0.919212 0 0)
(-0.917222 0 0)
(-0.915217 0 0)
(-0.913196 0 0)
(-0.911161 0 0)
(-0.90911 0 0)
(-0.907045 0 0)
(-0.904966 0 0)
(-0.902872 0 0)
(-0.900764 0 0)
(-0.898642 0 0)
(-0.896507 0 0)
(-0.894358 0 0)
(-0.892196 0 0)
(-0.89002 0 0)
(-0.887832 0 0)
(-0.885631 0 0)
(-0.883417 0 0)
(-0.881191 0 0)
(-0.878953 0 0)
(-0.876703 0 0)
(-0.874441 0 0)
(-0.872167 0 0)
(-0.869881 0 0)
(-0.867584 0 0)
(-0.865275 0 0)
(-0.862955 0 0)
(-0.860625 0 0)
(-0.858283 0 0)
(-0.85593 0 0)
(-0.853567 0 0)
(-0.851194 0 0)
(-0.84881 0 0)
(-0.846415 0 0)
(-0.844011 0 0)
(-0.841596 0 0)
(-0.839172 0 0)
(-0.836738 0 0)
(-0.834294 0 0)
(-0.831841 0 0)
(-0.829378 0 0)
(-0.826906 0 0)
(-0.824424 0 0)
(-0.821934 0 0)
(-0.819434 0 0)
(-0.816926 0 0)
(-0.814409 0 0)
(-0.811883 0 0)
(-0.809348 0 0)
(-0.806805 0 0)
(-0.804253 0 0)
(-0.801694 0 0)
(-0.799126 0 0)
(-0.796549 0 0)
(-0.793965 0 0)
(-0.791373 0 0)
(-0.788773 0 0)
(-0.786165 0 0)
(-0.783549 0 0)
(-0.780926 0 0)
(-0.778295 0 0)
(-0.775657 0 0)
(-0.773011 0 0)
(-0.770358 0 0)
(-0.767698 0 0)
(-0.765031 0 0)
(-0.762357 0 0)
(-0.759675 0 0)
(-0.756987 0 0)
(-0.754292 0 0)
(-0.75159 0 0)
(-0.748881 0 0)
(-0.746165 0 0)
(-0.743444 0 0)
(-0.740715 0 0)
(-0.73798 0 0)
(-0.735239 0 0)
(-0.732491 0 0)
(-0.729737 0 0)
(-0.726977 0 0)
(-0.724211 0 0)
(-0.721439 0 0)
(-0.71866 0 0)
(-0.715876 0 0)
(-0.713086 0 0)
(-0.71029 0 0)
(-0.707488 0 0)
(-0.704681 0 0)
(-0.701868 0 0)
(-0.699049 0 0)
(-0.696225 0 0)
(-0.693395 0 0)
(-0.69056 0 0)
(-0.687719 0 0)
(-0.684873 0 0)
(-0.682022 0 0)
(-0.679165 0 0)
(-0.676304 0 0)
(-0.673437 0 0)
(-0.670565 0 0)
(-0.667688 0 0)
(-0.664806 0 0)
(-0.661919 0 0)
(-0.659028 0 0)
(-0.656131 0 0)
(-0.65323 0 0)
(-0.650323 0 0)
(-0.647413 0 0)
(-0.644497 0 0)
(-0.641577 0 0)
(-0.638652 0 0)
(-0.635723 0 0)
(-0.632789 0 0)
(-0.629851 0 0)
(-0.626908 0 0)
(-0.623961 0 0)
(-0.62101 0 0)
(-0.618054 0 0)
(-0.615094 0 0)
(-0.61213 0 0)
(-0.609162 0 0)
(-0.606189 0 0)
(-0.603213 0 0)
(-0.600232 0 0)
(-0.597248 0 0)
(-0.594259 0 0)
(-0.591267 0 0)
(-0.588271 0 0)
(-0.58527 0 0)
(-0.582266 0 0)
(-0.579258 0 0)
(-0.576247 0 0)
(-0.573232 0 0)
(-0.570212 0 0)
(-0.56719 0 0)
(-0.564163 0 0)
(-0.561134 0 0)
(-0.5581 0 0)
(-0.555063 0 0)
(-0.552023 0 0)
(-0.548979 0 0)
(-0.545931 0 0)
(-0.542881 0 0)
(-0.539827 0 0)
(-0.536769 0 0)
(-0.533708 0 0)
(-0.530644 0 0)
(-0.527577 0 0)
(-0.524507 0 0)
(-0.521433 0 0)
(-0.518356 0 0)
(-0.515277 0 0)
(-0.512194 0 0)
(-0.509108 0 0)
(-0.506018 0 0)
(-0.502926 0 0)
(-0.499831 0 0)
(-0.496733 0 0)
(-0.493633 0 0)
(-0.490529 0 0)
(-0.487422 0 0)
(-0.484313 0 0)
(-0.4812 0 0)
(-0.478085 0 0)
(-0.474968 0 0)
(-0.471847 0 0)
(-0.468724 0 0)
(-0.465598 0 0)
(-0.462469 0 0)
(-0.459338 0 0)
(-0.456205 0 0)
(-0.453068 0 0)
(-0.449929 0 0)
(-0.446788 0 0)
(-0.443644 0 0)
(-0.440498 0 0)
(-0.437349 0 0)
(-0.434198 0 0)
(-0.431044 0 0)
(-0.427888 0 0)
(-0.42473 0 0)
(-0.421569 0 0)
(-0.418406 0 0)
(-0.415241 0 0)
(-0.412073 0 0)
(-0.408903 0 0)
(-0.405731 0 0)
(-0.402557 0 0)
(-0.399381 0 0)
(-0.396203 0 0)
(-0.393022 0 0)
(-0.389839 0 0)
(-0.386655 0 0)
(-0.383468 0 0)
(-0.380279 0 0)
(-0.377088 0 0)
(-0.373895 0 0)
(-0.3707 0 0)
(-0.367504 0 0)
(-0.364305 0 0)
(-0.361104 0 0)
(-0.357902 0 0)
(-0.354698 0 0)
(-0.351491 0 0)
(-0.348283 0 0)
(-0.345074 0 0)
(-0.341862 0 0)
(-0.338649 0 0)
(-0.335434 0 0)
(-0.332217 0 0)
(-0.328998 0 0)
(-0.325778 0 0)
(-0.322556 0 0)
(-0.319333 0 0)
(-0.316108 0 0)
(-0.312881 0 0)
(-0.309653 0 0)
(-0.306423 0 0)
(-0.303192 0 0)
(-0.299959 0 0)
(-0.296724 0 0)
(-0.293489 0 0)
(-0.290251 0 0)
(-0.287012 0 0)
(-0.283772 0 0)
(-0.280531 0 0)
(-0.277287 0 0)
(-0.274043 0 0)
(-0.270797 0 0)
(-0.26755 0 0)
(-0.264302 0 0)
(-0.261052 0 0)
(-0.257801 0 0)
(-0.254549 0 0)
(-0.251295 0 0)
(-0.24804 0 0)
(-0.244784 0 0)
(-0.241527 0 0)
(-0.238269 0 0)
(-0.235009 0 0)
(-0.231749 0 0)
(-0.228487 0 0)
(-0.225224 0 0)
(-0.22196 0 0)
(-0.218695 0 0)
(-0.215429 0 0)
(-0.212162 0 0)
(-0.208894 0 0)
(-0.205624 0 0)
(-0.202354 0 0)
(-0.199083 0 0)
(-0.195811 0 0)
(-0.192538 0 0)
(-0.189264 0 0)
(-0.185989 0 0)
(-0.182713 0 0)
(-0.179437 0 0)
(-0.176159 0 0)
(-0.172881 0 0)
(-0.169602 0 0)
(-0.166322 0 0)
(-0.163041 0 0)
(-0.15976 0 0)
(-0.156477 0 0)
(-0.153194 0 0)
(-0.149911 0 0)
(-0.146626 0 0)
(-0.143341 0 0)
(-0.140055 0 0)
(-0.136769 0 0)
(-0.133482 0 0)
(-0.130194 0 0)
(-0.126906 0 0)
(-0.123617 0 0)
(-0.120327 0 0)
(-0.117037 0 0)
(-0.113747 0 0)
(-0.110455 0 0)
(-0.107164 0 0)
(-0.103872 0 0)
(-0.100579 0 0)
(-0.0972858 0 0)
(-0.0939922 0 0)
(-0.0906981 0 0)
(-0.0874037 0 0)
(-0.0841088 0 0)
(-0.0808136 0 0)
(-0.0775179 0 0)
(-0.074222 0 0)
(-0.0709256 0 0)
(-0.0676289 0 0)
(-0.064332 0 0)
(-0.0610347 0 0)
(-0.0577371 0 0)
(-0.0544393 0 0)
(-0.0511412 0 0)
(-0.0478429 0 0)
(-0.0445443 0 0)
(-0.0412456 0 0)
(-0.0379466 0 0)
(-0.0346475 0 0)
(-0.0313482 0 0)
(-0.0280488 0 0)
(-0.0247493 0 0)
(-0.0214496 0 0)
(-0.0181498 0 0)
(-0.01485 0 0)
(-0.0115501 0 0)
(-0.00825007 0 0)
(-0.00495006 0 0)
(-0.00165002 0 0)
)
;

boundaryField
{
    left
    {
        type            fixedValue;
        value           uniform (0 0 0);
    }
    right
    {
        type            fixedValue;
        value           uniform (0 0 0);
    }
    frontBackUpDown
    {
        type            empty;
    }
}


// ************************************************************************* //
