/*--------------------------------*- C++ -*----------------------------------*\
| =========                 |                                                 |
| \\      /  F ield         | OpenFOAM: The Open Source CFD Toolbox           |
|  \\    /   O peration     | Version:  2412                                  |
|   \\  /    A nd           | Website:  www.openfoam.com                      |
|    \\/     M anipulation  |                                                 |
\*---------------------------------------------------------------------------*/
FoamFile
{
    version     2.0;
    format      ascii;
    arch        "LSB;label=32;scalar=64";
    class       volVectorField;
    location    "0.44";
    object      U_0_0;
}
// * * * * * * * * * * * * * * * * * * * * * * * * * * * * * * * * * * * * * //

dimensions      [0 1 -1 0 0 0 0];

internalField   nonuniform List<vector> 
800
(
(0.00165109 0 0)
(0.0049533 0 0)
(0.00825549 0 0)
(0.0115576 0 0)
(0.0148597 0 0)
(0.0181618 0 0)
(0.0214637 0 0)
(0.0247656 0 0)
(0.0280673 0 0)
(0.0313689 0 0)
(0.0346704 0 0)
(0.0379717 0 0)
(0.0412728 0 0)
(0.0445737 0 0)
(0.0478744 0 0)
(0.0511749 0 0)
(0.0544752 0 0)
(0.0577752 0 0)
(0.0610749 0 0)
(0.0643744 0 0)
(0.0676735 0 0)
(0.0709724 0 0)
(0.0742709 0 0)
(0.077569 0 0)
(0.0808668 0 0)
(0.0841642 0 0)
(0.0874613 0 0)
(0.0907579 0 0)
(0.0940541 0 0)
(0.0973498 0 0)
(0.100645 0 0)
(0.10394 0 0)
(0.107234 0 0)
(0.110528 0 0)
(0.113821 0 0)
(0.117114 0 0)
(0.120406 0 0)
(0.123698 0 0)
(0.126989 0 0)
(0.13028 0 0)
(0.13357 0 0)
(0.136859 0 0)
(0.140147 0 0)
(0.143435 0 0)
(0.146723 0 0)
(0.150009 0 0)
(0.153295 0 0)
(0.15658 0 0)
(0.159865 0 0)
(0.163148 0 0)
(0.166431 0 0)
(0.169713 0 0)
(0.172994 0 0)
(0.176275 0 0)
(0.179554 0 0)
(0.182833 0 0)
(0.186111 0 0)
(0.189388 0 0)
(0.192664 0 0)
(0.195939 0 0)
(0.199213 0 0)
(0.202487 0 0)
(0.205759 0 0)
(0.20903 0 0)
(0.212301 0 0)
(0.21557 0 0)
(0.218838 0 0)
(0.222105 0 0)
(0.225371 0 0)
(0.228636 0 0)
(0.2319 0 0)
(0.235163 0 0)
(0.238424 0 0)
(0.241685 0 0)
(0.244944 0 0)
(0.248202 0 0)
(0.251459 0 0)
(0.254715 0 0)
(0.257969 0 0)
(0.261222 0 0)
(0.264474 0 0)
(0.267724 0 0)
(0.270973 0 0)
(0.274221 0 0)
(0.277468 0 0)
(0.280713 0 0)
(0.283956 0 0)
(0.287199 0 0)
(0.29044 0 0)
(0.293679 0 0)
(0.296917 0 0)
(0.300153 0 0)
(0.303388 0 0)
(0.306622 0 0)
(0.309853 0 0)
(0.313084 0 0)
(0.316312 0 0)
(0.319539 0 0)
(0.322765 0 0)
(0.325989 0 0)
(0.329211 0 0)
(0.332431 0 0)
(0.33565 0 0)
(0.338867 0 0)
(0.342082 0 0)
(0.345296 0 0)
(0.348508 0 0)
(0.351717 0 0)
(0.354926 0 0)
(0.358132 0 0)
(0.361336 0 0)
(0.364539 0 0)
(0.367739 0 0)
(0.370938 0 0)
(0.374135 0 0)
(0.377329 0 0)
(0.380522 0 0)
(0.383713 0 0)
(0.386902 0 0)
(0.390088 0 0)
(0.393273 0 0)
(0.396455 0 0)
(0.399636 0 0)
(0.402814 0 0)
(0.40599 0 0)
(0.409164 0 0)
(0.412335 0 0)
(0.415504 0 0)
(0.418672 0 0)
(0.421836 0 0)
(0.424999 0 0)
(0.428159 0 0)
(0.431317 0 0)
(0.434472 0 0)
(0.437625 0 0)
(0.440776 0 0)
(0.443924 0 0)
(0.44707 0 0)
(0.450213 0 0)
(0.453353 0 0)
(0.456492 0 0)
(0.459627 0 0)
(0.46276 0 0)
(0.46589 0 0)
(0.469018 0 0)
(0.472143 0 0)
(0.475265 0 0)
(0.478384 0 0)
(0.481501 0 0)
(0.484615 0 0)
(0.487726 0 0)
(0.490835 0 0)
(0.49394 0 0)
(0.497043 0 0)
(0.500142 0 0)
(0.503239 0 0)
(0.506332 0 0)
(0.509423 0 0)
(0.512511 0 0)
(0.515595 0 0)
(0.518677 0 0)
(0.521755 0 0)
(0.52483 0 0)
(0.527902 0 0)
(0.530971 0 0)
(0.534037 0 0)
(0.537099 0 0)
(0.540158 0 0)
(0.543213 0 0)
(0.546266 0 0)
(0.549315 0 0)
(0.55236 0 0)
(0.555402 0 0)
(0.55844 0 0)
(0.561475 0 0)
(0.564507 0 0)
(0.567534 0 0)
(0.570558 0 0)
(0.573579 0 0)
(0.576596 0 0)
(0.579609 0 0)
(0.582618 0 0)
(0.585623 0 0)
(0.588625 0 0)
(0.591623 0 0)
(0.594616 0 0)
(0.597606 0 0)
(0.600592 0 0)
(0.603574 0 0)
(0.606552 0 0)
(0.609525 0 0)
(0.612495 0 0)
(0.61546 0 0)
(0.618421 0 0)
(0.621378 0 0)
(0.624331 0 0)
(0.627279 0 0)
(0.630223 0 0)
(0.633162 0 0)
(0.636097 0 0)
(0.639028 0 0)
(0.641954 0 0)
(0.644875 0 0)
(0.647792 0 0)
(0.650704 0 0)
(0.653611 0 0)
(0.656513 0 0)
(0.659411 0 0)
(0.662304 0 0)
(0.665192 0 0)
(0.668075 0 0)
(0.670952 0 0)
(0.673825 0 0)
(0.676693 0 0)
(0.679556 0 0)
(0.682413 0 0)
(0.685265 0 0)
(0.688112 0 0)
(0.690954 0 0)
(0.69379 0 0)
(0.69662 0 0)
(0.699445 0 0)
(0.702265 0 0)
(0.705079 0 0)
(0.707887 0 0)
(0.71069 0 0)
(0.713486 0 0)
(0.716277 0 0)
(0.719062 0 0)
(0.721841 0 0)
(0.724614 0 0)
(0.727381 0 0)
(0.730142 0 0)
(0.732896 0 0)
(0.735644 0 0)
(0.738386 0 0)
(0.741122 0 0)
(0.743851 0 0)
(0.746573 0 0)
(0.749289 0 0)
(0.751998 0 0)
(0.754701 0 0)
(0.757396 0 0)
(0.760085 0 0)
(0.762767 0 0)
(0.765442 0 0)
(0.768109 0 0)
(0.77077 0 0)
(0.773423 0 0)
(0.776069 0 0)
(0.778708 0 0)
(0.781339 0 0)
(0.783962 0 0)
(0.786578 0 0)
(0.789186 0 0)
(0.791786 0 0)
(0.794378 0 0)
(0.796963 0 0)
(0.799539 0 0)
(0.802107 0 0)
(0.804667 0 0)
(0.807218 0 0)
(0.809761 0 0)
(0.812296 0 0)
(0.814821 0 0)
(0.817338 0 0)
(0.819847 0 0)
(0.822346 0 0)
(0.824836 0 0)
(0.827317 0 0)
(0.829789 0 0)
(0.832252 0 0)
(0.834705 0 0)
(0.837148 0 0)
(0.839582 0 0)
(0.842006 0 0)
(0.84442 0 0)
(0.846824 0 0)
(0.849217 0 0)
(0.851601 0 0)
(0.853974 0 0)
(0.856336 0 0)
(0.858688 0 0)
(0.861029 0 0)
(0.863359 0 0)
(0.865678 0 0)
(0.867985 0 0)
(0.870282 0 0)
(0.872566 0 0)
(0.874839 0 0)
(0.877101 0 0)
(0.87935 0 0)
(0.881587 0 0)
(0.883812 0 0)
(0.886024 0 0)
(0.888224 0 0)
(0.890411 0 0)
(0.892585 0 0)
(0.894745 0 0)
(0.896893 0 0)
(0.899027 0 0)
(0.901147 0 0)
(0.903253 0 0)
(0.905345 0 0)
(0.907423 0 0)
(0.909486 0 0)
(0.911535 0 0)
(0.913569 0 0)
(0.915587 0 0)
(0.91759 0 0)
(0.919578 0 0)
(0.92155 0 0)
(0.923505 0 0)
(0.925445 0 0)
(0.927367 0 0)
(0.929273 0 0)
(0.931162 0 0)
(0.933033 0 0)
(0.934887 0 0)
(0.936722 0 0)
(0.93854 0 0)
(0.940339 0 0)
(0.942119 0 0)
(0.94388 0 0)
(0.945621 0 0)
(0.947343 0 0)
(0.949045 0 0)
(0.950726 0 0)
(0.952386 0 0)
(0.954025 0 0)
(0.955642 0 0)
(0.957237 0 0)
(0.95881 0 0)
(0.96036 0 0)
(0.961887 0 0)
(0.963391 0 0)
(0.96487 0 0)
(0.966324 0 0)
(0.967754 0 0)
(0.969158 0 0)
(0.970536 0 0)
(0.971887 0 0)
(0.973211 0 0)
(0.974508 0 0)
(0.975776 0 0)
(0.977015 0 0)
(0.978225 0 0)
(0.979405 0 0)
(0.980554 0 0)
(0.981672 0 0)
(0.982758 0 0)
(0.98381 0 0)
(0.98483 0 0)
(0.985814 0 0)
(0.986764 0 0)
(0.987677 0 0)
(0.988554 0 0)
(0.989392 0 0)
(0.990192 0 0)
(0.990952 0 0)
(0.991671 0 0)
(0.992348 0 0)
(0.992983 0 0)
(0.993573 0 0)
(0.994117 0 0)
(0.994615 0 0)
(0.995065 0 0)
(0.995466 0 0)
(0.995816 0 0)
(0.996113 0 0)
(0.996356 0 0)
(0.996544 0 0)
(0.996674 0 0)
(0.996745 0 0)
(0.996754 0 0)
(0.9967 0 0)
(0.99658 0 0)
(0.996393 0 0)
(0.996135 0 0)
(0.995804 0 0)
(0.995397 0 0)
(0.994912 0 0)
(0.994344 0 0)
(0.993692 0 0)
(0.99295 0 0)
(0.992116 0 0)
(0.991185 0 0)
(0.990153 0 0)
(0.989015 0 0)
(0.987766 0 0)
(0.9864 0 0)
(0.984911 0 0)
(0.983293 0 0)
(0.981538 0 0)
(0.97964 0 0)
(0.977576 0 0)
(0.975507 0 0)
(0.971433 0 0)
(0.987411 0 0)
(0.583604 0 0)
(-0.58226 0 0)
(-0.98739 0 0)
(-0.971434 0 0)
(-0.975505 0 0)
(-0.977574 0 0)
(-0.979639 0 0)
(-0.981537 0 0)
(-0.983292 0 0)
(-0.98491 0 0)
(-0.986399 0 0)
(-0.987765 0 0)
(-0.989014 0 0)
(-0.990152 0 0)
(-0.991185 0 0)
(-0.992116 0 0)
(-0.99295 0 0)
(-0.993691 0 0)
(-0.994344 0 0)
(-0.994911 0 0)
(-0.995397 0 0)
(-0.995804 0 0)
(-0.996135 0 0)
(-0.996393 0 0)
(-0.99658 0 0)
(-0.9967 0 0)
(-0.996754 0 0)
(-0.996745 0 0)
(-0.996674 0 0)
(-0.996544 0 0)
(-0.996356 0 0)
(-0.996113 0 0)
(-0.995816 0 0)
(-0.995466 0 0)
(-0.995065 0 0)
(-0.994615 0 0)
(-0.994117 0 0)
(-0.993573 0 0)
(-0.992983 0 0)
(-0.992348 0 0)
(-0.991671 0 0)
(-0.990952 0 0)
(-0.990192 0 0)
(-0.989392 0 0)
(-0.988553 0 0)
(-0.987677 0 0)
(-0.986763 0 0)
(-0.985814 0 0)
(-0.984829 0 0)
(-0.98381 0 0)
(-0.982757 0 0)
(-0.981672 0 0)
(-0.980554 0 0)
(-0.979405 0 0)
(-0.978225 0 0)
(-0.977015 0 0)
(-0.975775 0 0)
(-0.974507 0 0)
(-0.97321 0 0)
(-0.971886 0 0)
(-0.970535 0 0)
(-0.969157 0 0)
(-0.967753 0 0)
(-0.966323 0 0)
(-0.964869 0 0)
(-0.96339 0 0)
(-0.961886 0 0)
(-0.960359 0 0)
(-0.958809 0 0)
(-0.957236 0 0)
(-0.955641 0 0)
(-0.954024 0 0)
(-0.952385 0 0)
(-0.950724 0 0)
(-0.949043 0 0)
(-0.947342 0 0)
(-0.94562 0 0)
(-0.943879 0 0)
(-0.942118 0 0)
(-0.940337 0 0)
(-0.938539 0 0)
(-0.936721 0 0)
(-0.934885 0 0)
(-0.933032 0 0)
(-0.93116 0 0)
(-0.929272 0 0)
(-0.927366 0 0)
(-0.925443 0 0)
(-0.923504 0 0)
(-0.921548 0 0)
(-0.919576 0 0)
(-0.917589 0 0)
(-0.915586 0 0)
(-0.913567 0 0)
(-0.911533 0 0)
(-0.909485 0 0)
(-0.907421 0 0)
(-0.905344 0 0)
(-0.903251 0 0)
(-0.901145 0 0)
(-0.899025 0 0)
(-0.896891 0 0)
(-0.894744 0 0)
(-0.892583 0 0)
(-0.890409 0 0)
(-0.888222 0 0)
(-0.886022 0 0)
(-0.88381 0 0)
(-0.881585 0 0)
(-0.879348 0 0)
(-0.877099 0 0)
(-0.874837 0 0)
(-0.872564 0 0)
(-0.87028 0 0)
(-0.867983 0 0)
(-0.865676 0 0)
(-0.863357 0 0)
(-0.861027 0 0)
(-0.858686 0 0)
(-0.856334 0 0)
(-0.853972 0 0)
(-0.851599 0 0)
(-0.849215 0 0)
(-0.846821 0 0)
(-0.844418 0 0)
(-0.842004 0 0)
(-0.83958 0 0)
(-0.837146 0 0)
(-0.834703 0 0)
(-0.83225 0 0)
(-0.829787 0 0)
(-0.827315 0 0)
(-0.824834 0 0)
(-0.822344 0 0)
(-0.819845 0 0)
(-0.817336 0 0)
(-0.814819 0 0)
(-0.812293 0 0)
(-0.809759 0 0)
(-0.807216 0 0)
(-0.804665 0 0)
(-0.802105 0 0)
(-0.799537 0 0)
(-0.79696 0 0)
(-0.794376 0 0)
(-0.791784 0 0)
(-0.789184 0 0)
(-0.786576 0 0)
(-0.78396 0 0)
(-0.781336 0 0)
(-0.778705 0 0)
(-0.776067 0 0)
(-0.773421 0 0)
(-0.770768 0 0)
(-0.768107 0 0)
(-0.76544 0 0)
(-0.762765 0 0)
(-0.760083 0 0)
(-0.757394 0 0)
(-0.754699 0 0)
(-0.751996 0 0)
(-0.749287 0 0)
(-0.746571 0 0)
(-0.743849 0 0)
(-0.74112 0 0)
(-0.738384 0 0)
(-0.735642 0 0)
(-0.732894 0 0)
(-0.73014 0 0)
(-0.727379 0 0)
(-0.724612 0 0)
(-0.721839 0 0)
(-0.71906 0 0)
(-0.716275 0 0)
(-0.713484 0 0)
(-0.710688 0 0)
(-0.707885 0 0)
(-0.705077 0 0)
(-0.702263 0 0)
(-0.699443 0 0)
(-0.696618 0 0)
(-0.693788 0 0)
(-0.690952 0 0)
(-0.68811 0 0)
(-0.685263 0 0)
(-0.682411 0 0)
(-0.679554 0 0)
(-0.676691 0 0)
(-0.673823 0 0)
(-0.67095 0 0)
(-0.668073 0 0)
(-0.66519 0 0)
(-0.662302 0 0)
(-0.659409 0 0)
(-0.656511 0 0)
(-0.653609 0 0)
(-0.650702 0 0)
(-0.64779 0 0)
(-0.644873 0 0)
(-0.641952 0 0)
(-0.639026 0 0)
(-0.636095 0 0)
(-0.63316 0 0)
(-0.630221 0 0)
(-0.627277 0 0)
(-0.624329 0 0)
(-0.621376 0 0)
(-0.61842 0 0)
(-0.615458 0 0)
(-0.612493 0 0)
(-0.609524 0 0)
(-0.60655 0 0)
(-0.603572 0 0)
(-0.60059 0 0)
(-0.597605 0 0)
(-0.594615 0 0)
(-0.591621 0 0)
(-0.588623 0 0)
(-0.585622 0 0)
(-0.582616 0 0)
(-0.579607 0 0)
(-0.576594 0 0)
(-0.573577 0 0)
(-0.570557 0 0)
(-0.567533 0 0)
(-0.564505 0 0)
(-0.561474 0 0)
(-0.558439 0 0)
(-0.5554 0 0)
(-0.552358 0 0)
(-0.549313 0 0)
(-0.546264 0 0)
(-0.543212 0 0)
(-0.540156 0 0)
(-0.537097 0 0)
(-0.534035 0 0)
(-0.53097 0 0)
(-0.527901 0 0)
(-0.524829 0 0)
(-0.521754 0 0)
(-0.518675 0 0)
(-0.515594 0 0)
(-0.512509 0 0)
(-0.509422 0 0)
(-0.506331 0 0)
(-0.503237 0 0)
(-0.500141 0 0)
(-0.497041 0 0)
(-0.493939 0 0)
(-0.490833 0 0)
(-0.487725 0 0)
(-0.484614 0 0)
(-0.4815 0 0)
(-0.478383 0 0)
(-0.475264 0 0)
(-0.472142 0 0)
(-0.469017 0 0)
(-0.465889 0 0)
(-0.462759 0 0)
(-0.459626 0 0)
(-0.45649 0 0)
(-0.453352 0 0)
(-0.450212 0 0)
(-0.447069 0 0)
(-0.443923 0 0)
(-0.440775 0 0)
(-0.437624 0 0)
(-0.434471 0 0)
(-0.431316 0 0)
(-0.428158 0 0)
(-0.424998 0 0)
(-0.421835 0 0)
(-0.418671 0 0)
(-0.415503 0 0)
(-0.412334 0 0)
(-0.409163 0 0)
(-0.405989 0 0)
(-0.402813 0 0)
(-0.399635 0 0)
(-0.396454 0 0)
(-0.393272 0 0)
(-0.390087 0 0)
(-0.386901 0 0)
(-0.383712 0 0)
(-0.380521 0 0)
(-0.377329 0 0)
(-0.374134 0 0)
(-0.370937 0 0)
(-0.367739 0 0)
(-0.364538 0 0)
(-0.361335 0 0)
(-0.358131 0 0)
(-0.354925 0 0)
(-0.351717 0 0)
(-0.348507 0 0)
(-0.345295 0 0)
(-0.342082 0 0)
(-0.338866 0 0)
(-0.335649 0 0)
(-0.332431 0 0)
(-0.32921 0 0)
(-0.325988 0 0)
(-0.322764 0 0)
(-0.319539 0 0)
(-0.316312 0 0)
(-0.313083 0 0)
(-0.309853 0 0)
(-0.306621 0 0)
(-0.303388 0 0)
(-0.300153 0 0)
(-0.296916 0 0)
(-0.293678 0 0)
(-0.290439 0 0)
(-0.287198 0 0)
(-0.283956 0 0)
(-0.280712 0 0)
(-0.277467 0 0)
(-0.274221 0 0)
(-0.270973 0 0)
(-0.267724 0 0)
(-0.264473 0 0)
(-0.261222 0 0)
(-0.257968 0 0)
(-0.254714 0 0)
(-0.251459 0 0)
(-0.248202 0 0)
(-0.244944 0 0)
(-0.241684 0 0)
(-0.238424 0 0)
(-0.235162 0 0)
(-0.2319 0 0)
(-0.228636 0 0)
(-0.225371 0 0)
(-0.222105 0 0)
(-0.218838 0 0)
(-0.215569 0 0)
(-0.2123 0 0)
(-0.20903 0 0)
(-0.205759 0 0)
(-0.202486 0 0)
(-0.199213 0 0)
(-0.195939 0 0)
(-0.192664 0 0)
(-0.189388 0 0)
(-0.186111 0 0)
(-0.182833 0 0)
(-0.179554 0 0)
(-0.176275 0 0)
(-0.172994 0 0)
(-0.169713 0 0)
(-0.166431 0 0)
(-0.163148 0 0)
(-0.159864 0 0)
(-0.15658 0 0)
(-0.153295 0 0)
(-0.150009 0 0)
(-0.146723 0 0)
(-0.143435 0 0)
(-0.140147 0 0)
(-0.136859 0 0)
(-0.133569 0 0)
(-0.13028 0 0)
(-0.126989 0 0)
(-0.123698 0 0)
(-0.120406 0 0)
(-0.117114 0 0)
(-0.113821 0 0)
(-0.110528 0 0)
(-0.107234 0 0)
(-0.10394 0 0)
(-0.100645 0 0)
(-0.0973498 0 0)
(-0.094054 0 0)
(-0.0907578 0 0)
(-0.0874612 0 0)
(-0.0841642 0 0)
(-0.0808668 0 0)
(-0.077569 0 0)
(-0.0742708 0 0)
(-0.0709723 0 0)
(-0.0676735 0 0)
(-0.0643743 0 0)
(-0.0610749 0 0)
(-0.0577752 0 0)
(-0.0544752 0 0)
(-0.0511749 0 0)
(-0.0478744 0 0)
(-0.0445737 0 0)
(-0.0412728 0 0)
(-0.0379717 0 0)
(-0.0346704 0 0)
(-0.0313689 0 0)
(-0.0280673 0 0)
(-0.0247656 0 0)
(-0.0214637 0 0)
(-0.0181618 0 0)
(-0.0148598 0 0)
(-0.0115577 0 0)
(-0.00825551 0 0)
(-0.00495332 0 0)
(-0.00165111 0 0)
)
;

boundaryField
{
    left
    {
        type            fixedValue;
        value           uniform (0 0 0);
    }
    right
    {
        type            fixedValue;
        value           uniform (0 0 0);
    }
    frontBackUpDown
    {
        type            empty;
    }
}


// ************************************************************************* //
