/*--------------------------------*- C++ -*----------------------------------*\
| =========                 |                                                 |
| \\      /  F ield         | OpenFOAM: The Open Source CFD Toolbox           |
|  \\    /   O peration     | Version:  2412                                  |
|   \\  /    A nd           | Website:  www.openfoam.com                      |
|    \\/     M anipulation  |                                                 |
\*---------------------------------------------------------------------------*/
FoamFile
{
    version     2.0;
    format      ascii;
    arch        "LSB;label=32;scalar=64";
    class       volVectorField;
    location    "0.44";
    object      U_0_0_0;
}
// * * * * * * * * * * * * * * * * * * * * * * * * * * * * * * * * * * * * * //

dimensions      [0 1 -1 0 0 0 0];

internalField   nonuniform List<vector> 
800
(
(0.00165218 0 0)
(0.00495657 0 0)
(0.00826094 0 0)
(0.0115653 0 0)
(0.0148695 0 0)
(0.0181738 0 0)
(0.0214779 0 0)
(0.0247819 0 0)
(0.0280858 0 0)
(0.0313896 0 0)
(0.0346932 0 0)
(0.0379967 0 0)
(0.0413 0 0)
(0.0446031 0 0)
(0.047906 0 0)
(0.0512087 0 0)
(0.0545111 0 0)
(0.0578133 0 0)
(0.0611152 0 0)
(0.0644168 0 0)
(0.0677181 0 0)
(0.0710191 0 0)
(0.0743198 0 0)
(0.0776201 0 0)
(0.0809201 0 0)
(0.0842197 0 0)
(0.0875189 0 0)
(0.0908177 0 0)
(0.094116 0 0)
(0.0974139 0 0)
(0.100711 0 0)
(0.104008 0 0)
(0.107305 0 0)
(0.110601 0 0)
(0.113896 0 0)
(0.117191 0 0)
(0.120486 0 0)
(0.12378 0 0)
(0.127073 0 0)
(0.130365 0 0)
(0.133657 0 0)
(0.136949 0 0)
(0.14024 0 0)
(0.14353 0 0)
(0.146819 0 0)
(0.150108 0 0)
(0.153396 0 0)
(0.156683 0 0)
(0.15997 0 0)
(0.163255 0 0)
(0.16654 0 0)
(0.169824 0 0)
(0.173108 0 0)
(0.17639 0 0)
(0.179672 0 0)
(0.182953 0 0)
(0.186233 0 0)
(0.189512 0 0)
(0.19279 0 0)
(0.196067 0 0)
(0.199344 0 0)
(0.202619 0 0)
(0.205893 0 0)
(0.209167 0 0)
(0.212439 0 0)
(0.215711 0 0)
(0.218981 0 0)
(0.22225 0 0)
(0.225518 0 0)
(0.228785 0 0)
(0.232051 0 0)
(0.235316 0 0)
(0.23858 0 0)
(0.241842 0 0)
(0.245104 0 0)
(0.248364 0 0)
(0.251623 0 0)
(0.25488 0 0)
(0.258137 0 0)
(0.261392 0 0)
(0.264646 0 0)
(0.267898 0 0)
(0.271149 0 0)
(0.274399 0 0)
(0.277648 0 0)
(0.280895 0 0)
(0.28414 0 0)
(0.287385 0 0)
(0.290628 0 0)
(0.293869 0 0)
(0.297109 0 0)
(0.300347 0 0)
(0.303584 0 0)
(0.30682 0 0)
(0.310053 0 0)
(0.313286 0 0)
(0.316516 0 0)
(0.319745 0 0)
(0.322973 0 0)
(0.326199 0 0)
(0.329423 0 0)
(0.332645 0 0)
(0.335866 0 0)
(0.339085 0 0)
(0.342302 0 0)
(0.345517 0 0)
(0.348731 0 0)
(0.351943 0 0)
(0.355153 0 0)
(0.358361 0 0)
(0.361568 0 0)
(0.364772 0 0)
(0.367974 0 0)
(0.371175 0 0)
(0.374374 0 0)
(0.37757 0 0)
(0.380765 0 0)
(0.383957 0 0)
(0.387148 0 0)
(0.390337 0 0)
(0.393523 0 0)
(0.396707 0 0)
(0.399889 0 0)
(0.403069 0 0)
(0.406247 0 0)
(0.409423 0 0)
(0.412596 0 0)
(0.415768 0 0)
(0.418936 0 0)
(0.422103 0 0)
(0.425267 0 0)
(0.428429 0 0)
(0.431589 0 0)
(0.434746 0 0)
(0.437901 0 0)
(0.441053 0 0)
(0.444203 0 0)
(0.447351 0 0)
(0.450496 0 0)
(0.453638 0 0)
(0.456778 0 0)
(0.459915 0 0)
(0.46305 0 0)
(0.466182 0 0)
(0.469311 0 0)
(0.472437 0 0)
(0.475561 0 0)
(0.478683 0 0)
(0.481801 0 0)
(0.484917 0 0)
(0.488029 0 0)
(0.491139 0 0)
(0.494246 0 0)
(0.497351 0 0)
(0.500452 0 0)
(0.50355 0 0)
(0.506645 0 0)
(0.509738 0 0)
(0.512827 0 0)
(0.515913 0 0)
(0.518996 0 0)
(0.522076 0 0)
(0.525153 0 0)
(0.528226 0 0)
(0.531297 0 0)
(0.534364 0 0)
(0.537427 0 0)
(0.540488 0 0)
(0.543545 0 0)
(0.546599 0 0)
(0.549649 0 0)
(0.552696 0 0)
(0.555739 0 0)
(0.558779 0 0)
(0.561816 0 0)
(0.564848 0 0)
(0.567878 0 0)
(0.570903 0 0)
(0.573925 0 0)
(0.576943 0 0)
(0.579958 0 0)
(0.582968 0 0)
(0.585975 0 0)
(0.588978 0 0)
(0.591977 0 0)
(0.594972 0 0)
(0.597963 0 0)
(0.60095 0 0)
(0.603933 0 0)
(0.606913 0 0)
(0.609887 0 0)
(0.612858 0 0)
(0.615825 0 0)
(0.618787 0 0)
(0.621745 0 0)
(0.624699 0 0)
(0.627648 0 0)
(0.630593 0 0)
(0.633534 0 0)
(0.63647 0 0)
(0.639402 0 0)
(0.642329 0 0)
(0.645251 0 0)
(0.648169 0 0)
(0.651082 0 0)
(0.65399 0 0)
(0.656894 0 0)
(0.659793 0 0)
(0.662686 0 0)
(0.665575 0 0)
(0.668459 0 0)
(0.671338 0 0)
(0.674212 0 0)
(0.677081 0 0)
(0.679944 0 0)
(0.682803 0 0)
(0.685656 0 0)
(0.688503 0 0)
(0.691346 0 0)
(0.694183 0 0)
(0.697014 0 0)
(0.69984 0 0)
(0.702661 0 0)
(0.705475 0 0)
(0.708284 0 0)
(0.711088 0 0)
(0.713885 0 0)
(0.716677 0 0)
(0.719462 0 0)
(0.722242 0 0)
(0.725015 0 0)
(0.727783 0 0)
(0.730544 0 0)
(0.733299 0 0)
(0.736048 0 0)
(0.738791 0 0)
(0.741527 0 0)
(0.744256 0 0)
(0.746979 0 0)
(0.749696 0 0)
(0.752405 0 0)
(0.755108 0 0)
(0.757804 0 0)
(0.760493 0 0)
(0.763175 0 0)
(0.765851 0 0)
(0.768519 0 0)
(0.771179 0 0)
(0.773833 0 0)
(0.776479 0 0)
(0.779118 0 0)
(0.781749 0 0)
(0.784373 0 0)
(0.786989 0 0)
(0.789597 0 0)
(0.792197 0 0)
(0.794789 0 0)
(0.797374 0 0)
(0.79995 0 0)
(0.802518 0 0)
(0.805078 0 0)
(0.807629 0 0)
(0.810172 0 0)
(0.812707 0 0)
(0.815232 0 0)
(0.817749 0 0)
(0.820257 0 0)
(0.822756 0 0)
(0.825246 0 0)
(0.827727 0 0)
(0.830199 0 0)
(0.832661 0 0)
(0.835113 0 0)
(0.837556 0 0)
(0.83999 0 0)
(0.842413 0 0)
(0.844827 0 0)
(0.84723 0 0)
(0.849623 0 0)
(0.852006 0 0)
(0.854378 0 0)
(0.85674 0 0)
(0.859091 0 0)
(0.861431 0 0)
(0.86376 0 0)
(0.866078 0 0)
(0.868385 0 0)
(0.87068 0 0)
(0.872964 0 0)
(0.875236 0 0)
(0.877496 0 0)
(0.879745 0 0)
(0.88198 0 0)
(0.884204 0 0)
(0.886415 0 0)
(0.888614 0 0)
(0.890799 0 0)
(0.892972 0 0)
(0.895131 0 0)
(0.897277 0 0)
(0.899409 0 0)
(0.901528 0 0)
(0.903633 0 0)
(0.905723 0 0)
(0.907799 0 0)
(0.909861 0 0)
(0.911907 0 0)
(0.913939 0 0)
(0.915956 0 0)
(0.917957 0 0)
(0.919942 0 0)
(0.921912 0 0)
(0.923865 0 0)
(0.925802 0 0)
(0.927723 0 0)
(0.929626 0 0)
(0.931512 0 0)
(0.933381 0 0)
(0.935232 0 0)
(0.937065 0 0)
(0.93888 0 0)
(0.940676 0 0)
(0.942453 0 0)
(0.944211 0 0)
(0.945949 0 0)
(0.947668 0 0)
(0.949366 0 0)
(0.951044 0 0)
(0.9527 0 0)
(0.954336 0 0)
(0.95595 0 0)
(0.957541 0 0)
(0.95911 0 0)
(0.960657 0 0)
(0.962179 0 0)
(0.963679 0 0)
(0.965153 0 0)
(0.966604 0 0)
(0.968029 0 0)
(0.969428 0 0)
(0.970801 0 0)
(0.972148 0 0)
(0.973467 0 0)
(0.974758 0 0)
(0.976021 0 0)
(0.977256 0 0)
(0.97846 0 0)
(0.979634 0 0)
(0.980778 0 0)
(0.981889 0 0)
(0.982969 0 0)
(0.984015 0 0)
(0.985028 0 0)
(0.986006 0 0)
(0.986949 0 0)
(0.987855 0 0)
(0.988724 0 0)
(0.989556 0 0)
(0.990348 0 0)
(0.9911 0 0)
(0.991811 0 0)
(0.99248 0 0)
(0.993106 0 0)
(0.993687 0 0)
(0.994223 0 0)
(0.994712 0 0)
(0.995152 0 0)
(0.995543 0 0)
(0.995882 0 0)
(0.996169 0 0)
(0.996401 0 0)
(0.996578 0 0)
(0.996696 0 0)
(0.996755 0 0)
(0.996752 0 0)
(0.996685 0 0)
(0.996553 0 0)
(0.996351 0 0)
(0.996079 0 0)
(0.995734 0 0)
(0.995312 0 0)
(0.99481 0 0)
(0.994227 0 0)
(0.993557 0 0)
(0.992798 0 0)
(0.991945 0 0)
(0.990995 0 0)
(0.989943 0 0)
(0.988784 0 0)
(0.987513 0 0)
(0.986124 0 0)
(0.984611 0 0)
(0.982968 0 0)
(0.981187 0 0)
(0.979261 0 0)
(0.977167 0 0)
(0.975065 0 0)
(0.970979 0 0)
(0.986768 0 0)
(0.582916 0 0)
(-0.581574 0 0)
(-0.986746 0 0)
(-0.97098 0 0)
(-0.975063 0 0)
(-0.977165 0 0)
(-0.979259 0 0)
(-0.981186 0 0)
(-0.982967 0 0)
(-0.98461 0 0)
(-0.986123 0 0)
(-0.987512 0 0)
(-0.988783 0 0)
(-0.989942 0 0)
(-0.990995 0 0)
(-0.991945 0 0)
(-0.992797 0 0)
(-0.993557 0 0)
(-0.994226 0 0)
(-0.99481 0 0)
(-0.995311 0 0)
(-0.995733 0 0)
(-0.996079 0 0)
(-0.996351 0 0)
(-0.996553 0 0)
(-0.996685 0 0)
(-0.996752 0 0)
(-0.996755 0 0)
(-0.996696 0 0)
(-0.996578 0 0)
(-0.996401 0 0)
(-0.996169 0 0)
(-0.995882 0 0)
(-0.995543 0 0)
(-0.995152 0 0)
(-0.994711 0 0)
(-0.994223 0 0)
(-0.993687 0 0)
(-0.993106 0 0)
(-0.99248 0 0)
(-0.991811 0 0)
(-0.9911 0 0)
(-0.990348 0 0)
(-0.989555 0 0)
(-0.988724 0 0)
(-0.987855 0 0)
(-0.986948 0 0)
(-0.986006 0 0)
(-0.985028 0 0)
(-0.984015 0 0)
(-0.982968 0 0)
(-0.981889 0 0)
(-0.980777 0 0)
(-0.979634 0 0)
(-0.978459 0 0)
(-0.977255 0 0)
(-0.976021 0 0)
(-0.974758 0 0)
(-0.973466 0 0)
(-0.972147 0 0)
(-0.9708 0 0)
(-0.969427 0 0)
(-0.968028 0 0)
(-0.966603 0 0)
(-0.965152 0 0)
(-0.963678 0 0)
(-0.962178 0 0)
(-0.960656 0 0)
(-0.959109 0 0)
(-0.95754 0 0)
(-0.955948 0 0)
(-0.954335 0 0)
(-0.952699 0 0)
(-0.951043 0 0)
(-0.949365 0 0)
(-0.947667 0 0)
(-0.945948 0 0)
(-0.94421 0 0)
(-0.942452 0 0)
(-0.940675 0 0)
(-0.938878 0 0)
(-0.937064 0 0)
(-0.935231 0 0)
(-0.93338 0 0)
(-0.931511 0 0)
(-0.929625 0 0)
(-0.927721 0 0)
(-0.925801 0 0)
(-0.923864 0 0)
(-0.92191 0 0)
(-0.919941 0 0)
(-0.917955 0 0)
(-0.915954 0 0)
(-0.913938 0 0)
(-0.911906 0 0)
(-0.909859 0 0)
(-0.907797 0 0)
(-0.905721 0 0)
(-0.903631 0 0)
(-0.901526 0 0)
(-0.899408 0 0)
(-0.897275 0 0)
(-0.895129 0 0)
(-0.89297 0 0)
(-0.890797 0 0)
(-0.888612 0 0)
(-0.886413 0 0)
(-0.884202 0 0)
(-0.881979 0 0)
(-0.879743 0 0)
(-0.877494 0 0)
(-0.875234 0 0)
(-0.872962 0 0)
(-0.870678 0 0)
(-0.868383 0 0)
(-0.866076 0 0)
(-0.863758 0 0)
(-0.861429 0 0)
(-0.859089 0 0)
(-0.856738 0 0)
(-0.854376 0 0)
(-0.852004 0 0)
(-0.849621 0 0)
(-0.847228 0 0)
(-0.844824 0 0)
(-0.842411 0 0)
(-0.839988 0 0)
(-0.837554 0 0)
(-0.835111 0 0)
(-0.832659 0 0)
(-0.830197 0 0)
(-0.827725 0 0)
(-0.825244 0 0)
(-0.822754 0 0)
(-0.820255 0 0)
(-0.817747 0 0)
(-0.81523 0 0)
(-0.812704 0 0)
(-0.81017 0 0)
(-0.807627 0 0)
(-0.805076 0 0)
(-0.802516 0 0)
(-0.799948 0 0)
(-0.797372 0 0)
(-0.794787 0 0)
(-0.792195 0 0)
(-0.789595 0 0)
(-0.786986 0 0)
(-0.78437 0 0)
(-0.781747 0 0)
(-0.779116 0 0)
(-0.776477 0 0)
(-0.773831 0 0)
(-0.771177 0 0)
(-0.768516 0 0)
(-0.765848 0 0)
(-0.763173 0 0)
(-0.760491 0 0)
(-0.757802 0 0)
(-0.755106 0 0)
(-0.752403 0 0)
(-0.749693 0 0)
(-0.746977 0 0)
(-0.744254 0 0)
(-0.741525 0 0)
(-0.738789 0 0)
(-0.736046 0 0)
(-0.733297 0 0)
(-0.730542 0 0)
(-0.727781 0 0)
(-0.725013 0 0)
(-0.72224 0 0)
(-0.71946 0 0)
(-0.716674 0 0)
(-0.713883 0 0)
(-0.711085 0 0)
(-0.708282 0 0)
(-0.705473 0 0)
(-0.702658 0 0)
(-0.699838 0 0)
(-0.697012 0 0)
(-0.694181 0 0)
(-0.691344 0 0)
(-0.688501 0 0)
(-0.685654 0 0)
(-0.682801 0 0)
(-0.679942 0 0)
(-0.677079 0 0)
(-0.67421 0 0)
(-0.671336 0 0)
(-0.668457 0 0)
(-0.665573 0 0)
(-0.662684 0 0)
(-0.659791 0 0)
(-0.656892 0 0)
(-0.653988 0 0)
(-0.65108 0 0)
(-0.648167 0 0)
(-0.645249 0 0)
(-0.642327 0 0)
(-0.6394 0 0)
(-0.636468 0 0)
(-0.633532 0 0)
(-0.630592 0 0)
(-0.627647 0 0)
(-0.624697 0 0)
(-0.621743 0 0)
(-0.618785 0 0)
(-0.615823 0 0)
(-0.612856 0 0)
(-0.609886 0 0)
(-0.606911 0 0)
(-0.603932 0 0)
(-0.600949 0 0)
(-0.597961 0 0)
(-0.59497 0 0)
(-0.591975 0 0)
(-0.588976 0 0)
(-0.585973 0 0)
(-0.582966 0 0)
(-0.579956 0 0)
(-0.576941 0 0)
(-0.573923 0 0)
(-0.570901 0 0)
(-0.567876 0 0)
(-0.564847 0 0)
(-0.561814 0 0)
(-0.558778 0 0)
(-0.555738 0 0)
(-0.552694 0 0)
(-0.549648 0 0)
(-0.546597 0 0)
(-0.543543 0 0)
(-0.540486 0 0)
(-0.537426 0 0)
(-0.534362 0 0)
(-0.531295 0 0)
(-0.528225 0 0)
(-0.525151 0 0)
(-0.522074 0 0)
(-0.518995 0 0)
(-0.515912 0 0)
(-0.512825 0 0)
(-0.509736 0 0)
(-0.506644 0 0)
(-0.503549 0 0)
(-0.50045 0 0)
(-0.497349 0 0)
(-0.494245 0 0)
(-0.491138 0 0)
(-0.488028 0 0)
(-0.484915 0 0)
(-0.4818 0 0)
(-0.478681 0 0)
(-0.47556 0 0)
(-0.472436 0 0)
(-0.46931 0 0)
(-0.46618 0 0)
(-0.463048 0 0)
(-0.459914 0 0)
(-0.456777 0 0)
(-0.453637 0 0)
(-0.450494 0 0)
(-0.447349 0 0)
(-0.444202 0 0)
(-0.441052 0 0)
(-0.4379 0 0)
(-0.434745 0 0)
(-0.431588 0 0)
(-0.428428 0 0)
(-0.425266 0 0)
(-0.422102 0 0)
(-0.418935 0 0)
(-0.415767 0 0)
(-0.412595 0 0)
(-0.409422 0 0)
(-0.406246 0 0)
(-0.403069 0 0)
(-0.399889 0 0)
(-0.396706 0 0)
(-0.393522 0 0)
(-0.390336 0 0)
(-0.387147 0 0)
(-0.383957 0 0)
(-0.380764 0 0)
(-0.377569 0 0)
(-0.374373 0 0)
(-0.371174 0 0)
(-0.367974 0 0)
(-0.364771 0 0)
(-0.361567 0 0)
(-0.35836 0 0)
(-0.355152 0 0)
(-0.351942 0 0)
(-0.34873 0 0)
(-0.345517 0 0)
(-0.342301 0 0)
(-0.339084 0 0)
(-0.335865 0 0)
(-0.332644 0 0)
(-0.329422 0 0)
(-0.326198 0 0)
(-0.322972 0 0)
(-0.319745 0 0)
(-0.316516 0 0)
(-0.313285 0 0)
(-0.310053 0 0)
(-0.306819 0 0)
(-0.303584 0 0)
(-0.300347 0 0)
(-0.297108 0 0)
(-0.293868 0 0)
(-0.290627 0 0)
(-0.287384 0 0)
(-0.28414 0 0)
(-0.280894 0 0)
(-0.277647 0 0)
(-0.274399 0 0)
(-0.271149 0 0)
(-0.267898 0 0)
(-0.264645 0 0)
(-0.261391 0 0)
(-0.258136 0 0)
(-0.25488 0 0)
(-0.251622 0 0)
(-0.248363 0 0)
(-0.245103 0 0)
(-0.241842 0 0)
(-0.238579 0 0)
(-0.235316 0 0)
(-0.232051 0 0)
(-0.228785 0 0)
(-0.225518 0 0)
(-0.22225 0 0)
(-0.218981 0 0)
(-0.21571 0 0)
(-0.212439 0 0)
(-0.209167 0 0)
(-0.205893 0 0)
(-0.202619 0 0)
(-0.199344 0 0)
(-0.196067 0 0)
(-0.19279 0 0)
(-0.189512 0 0)
(-0.186233 0 0)
(-0.182953 0 0)
(-0.179672 0 0)
(-0.17639 0 0)
(-0.173108 0 0)
(-0.169824 0 0)
(-0.16654 0 0)
(-0.163255 0 0)
(-0.159969 0 0)
(-0.156683 0 0)
(-0.153396 0 0)
(-0.150108 0 0)
(-0.146819 0 0)
(-0.143529 0 0)
(-0.140239 0 0)
(-0.136949 0 0)
(-0.133657 0 0)
(-0.130365 0 0)
(-0.127073 0 0)
(-0.123779 0 0)
(-0.120486 0 0)
(-0.117191 0 0)
(-0.113896 0 0)
(-0.110601 0 0)
(-0.107305 0 0)
(-0.104008 0 0)
(-0.100711 0 0)
(-0.0974139 0 0)
(-0.094116 0 0)
(-0.0908176 0 0)
(-0.0875188 0 0)
(-0.0842196 0 0)
(-0.0809201 0 0)
(-0.0776201 0 0)
(-0.0743198 0 0)
(-0.0710191 0 0)
(-0.0677181 0 0)
(-0.0644168 0 0)
(-0.0611152 0 0)
(-0.0578133 0 0)
(-0.0545111 0 0)
(-0.0512087 0 0)
(-0.047906 0 0)
(-0.0446031 0 0)
(-0.0413 0 0)
(-0.0379967 0 0)
(-0.0346932 0 0)
(-0.0313896 0 0)
(-0.0280858 0 0)
(-0.0247819 0 0)
(-0.0214779 0 0)
(-0.0181738 0 0)
(-0.0148696 0 0)
(-0.0115653 0 0)
(-0.00826096 0 0)
(-0.00495659 0 0)
(-0.0016522 0 0)
)
;

boundaryField
{
    left
    {
        type            fixedValue;
        value           uniform (0 0 0);
    }
    right
    {
        type            fixedValue;
        value           uniform (0 0 0);
    }
    frontBackUpDown
    {
        type            empty;
    }
}


// ************************************************************************* //
