/*--------------------------------*- C++ -*----------------------------------*\
| =========                 |                                                 |
| \\      /  F ield         | OpenFOAM: The Open Source CFD Toolbox           |
|  \\    /   O peration     | Version:  2412                                  |
|   \\  /    A nd           | Website:  www.openfoam.com                      |
|    \\/     M anipulation  |                                                 |
\*---------------------------------------------------------------------------*/
FoamFile
{
    version     2.0;
    format      ascii;
    arch        "LSB;label=32;scalar=64";
    class       volVectorField;
    location    "0.25";
    object      U_0_0;
}
// * * * * * * * * * * * * * * * * * * * * * * * * * * * * * * * * * * * * * //

dimensions      [0 1 -1 0 0 0 0];

internalField   nonuniform List<vector> 
800
(
(0.0022033 0 0)
(0.00660994 0 0)
(0.0110165 0 0)
(0.015423 0 0)
(0.0198293 0 0)
(0.0242353 0 0)
(0.0286411 0 0)
(0.0330466 0 0)
(0.0374517 0 0)
(0.0418564 0 0)
(0.0462607 0 0)
(0.0506644 0 0)
(0.0550676 0 0)
(0.0594702 0 0)
(0.0638721 0 0)
(0.0682734 0 0)
(0.0726738 0 0)
(0.0770735 0 0)
(0.0814723 0 0)
(0.0858703 0 0)
(0.0902672 0 0)
(0.0946632 0 0)
(0.0990582 0 0)
(0.103452 0 0)
(0.107845 0 0)
(0.112236 0 0)
(0.116626 0 0)
(0.121015 0 0)
(0.125403 0 0)
(0.129789 0 0)
(0.134174 0 0)
(0.138557 0 0)
(0.142939 0 0)
(0.147319 0 0)
(0.151698 0 0)
(0.156075 0 0)
(0.16045 0 0)
(0.164823 0 0)
(0.169195 0 0)
(0.173564 0 0)
(0.177932 0 0)
(0.182298 0 0)
(0.186661 0 0)
(0.191023 0 0)
(0.195382 0 0)
(0.199739 0 0)
(0.204094 0 0)
(0.208447 0 0)
(0.212797 0 0)
(0.217145 0 0)
(0.22149 0 0)
(0.225833 0 0)
(0.230174 0 0)
(0.234511 0 0)
(0.238846 0 0)
(0.243179 0 0)
(0.247508 0 0)
(0.251835 0 0)
(0.256159 0 0)
(0.26048 0 0)
(0.264798 0 0)
(0.269113 0 0)
(0.273424 0 0)
(0.277733 0 0)
(0.282038 0 0)
(0.286341 0 0)
(0.290639 0 0)
(0.294935 0 0)
(0.299227 0 0)
(0.303515 0 0)
(0.3078 0 0)
(0.312082 0 0)
(0.316359 0 0)
(0.320634 0 0)
(0.324904 0 0)
(0.32917 0 0)
(0.333433 0 0)
(0.337691 0 0)
(0.341946 0 0)
(0.346196 0 0)
(0.350443 0 0)
(0.354685 0 0)
(0.358923 0 0)
(0.363157 0 0)
(0.367386 0 0)
(0.371611 0 0)
(0.375831 0 0)
(0.380047 0 0)
(0.384258 0 0)
(0.388465 0 0)
(0.392667 0 0)
(0.396864 0 0)
(0.401056 0 0)
(0.405243 0 0)
(0.409426 0 0)
(0.413603 0 0)
(0.417775 0 0)
(0.421942 0 0)
(0.426104 0 0)
(0.43026 0 0)
(0.434411 0 0)
(0.438557 0 0)
(0.442697 0 0)
(0.446831 0 0)
(0.45096 0 0)
(0.455083 0 0)
(0.459201 0 0)
(0.463312 0 0)
(0.467418 0 0)
(0.471517 0 0)
(0.475611 0 0)
(0.479698 0 0)
(0.48378 0 0)
(0.487855 0 0)
(0.491923 0 0)
(0.495985 0 0)
(0.500041 0 0)
(0.50409 0 0)
(0.508133 0 0)
(0.512168 0 0)
(0.516197 0 0)
(0.520219 0 0)
(0.524234 0 0)
(0.528242 0 0)
(0.532243 0 0)
(0.536237 0 0)
(0.540224 0 0)
(0.544203 0 0)
(0.548175 0 0)
(0.552139 0 0)
(0.556096 0 0)
(0.560045 0 0)
(0.563986 0 0)
(0.567919 0 0)
(0.571845 0 0)
(0.575762 0 0)
(0.579671 0 0)
(0.583572 0 0)
(0.587465 0 0)
(0.59135 0 0)
(0.595226 0 0)
(0.599093 0 0)
(0.602952 0 0)
(0.606802 0 0)
(0.610644 0 0)
(0.614476 0 0)
(0.6183 0 0)
(0.622114 0 0)
(0.625919 0 0)
(0.629715 0 0)
(0.633501 0 0)
(0.637278 0 0)
(0.641045 0 0)
(0.644803 0 0)
(0.648551 0 0)
(0.652289 0 0)
(0.656017 0 0)
(0.659735 0 0)
(0.663442 0 0)
(0.667139 0 0)
(0.670826 0 0)
(0.674503 0 0)
(0.678168 0 0)
(0.681823 0 0)
(0.685467 0 0)
(0.6891 0 0)
(0.692722 0 0)
(0.696333 0 0)
(0.699932 0 0)
(0.70352 0 0)
(0.707096 0 0)
(0.710661 0 0)
(0.714214 0 0)
(0.717755 0 0)
(0.721283 0 0)
(0.7248 0 0)
(0.728304 0 0)
(0.731796 0 0)
(0.735275 0 0)
(0.738742 0 0)
(0.742195 0 0)
(0.745636 0 0)
(0.749063 0 0)
(0.752477 0 0)
(0.755878 0 0)
(0.759265 0 0)
(0.762639 0 0)
(0.765999 0 0)
(0.769344 0 0)
(0.772676 0 0)
(0.775993 0 0)
(0.779296 0 0)
(0.782584 0 0)
(0.785858 0 0)
(0.789116 0 0)
(0.79236 0 0)
(0.795588 0 0)
(0.7988 0 0)
(0.801998 0 0)
(0.805179 0 0)
(0.808345 0 0)
(0.811494 0 0)
(0.814627 0 0)
(0.817744 0 0)
(0.820844 0 0)
(0.823927 0 0)
(0.826993 0 0)
(0.830042 0 0)
(0.833074 0 0)
(0.836088 0 0)
(0.839084 0 0)
(0.842062 0 0)
(0.845022 0 0)
(0.847964 0 0)
(0.850887 0 0)
(0.853792 0 0)
(0.856677 0 0)
(0.859543 0 0)
(0.862389 0 0)
(0.865216 0 0)
(0.868023 0 0)
(0.87081 0 0)
(0.873576 0 0)
(0.876322 0 0)
(0.879047 0 0)
(0.881751 0 0)
(0.884433 0 0)
(0.887094 0 0)
(0.889733 0 0)
(0.89235 0 0)
(0.894944 0 0)
(0.897516 0 0)
(0.900065 0 0)
(0.90259 0 0)
(0.905092 0 0)
(0.90757 0 0)
(0.910024 0 0)
(0.912454 0 0)
(0.914859 0 0)
(0.917239 0 0)
(0.919594 0 0)
(0.921923 0 0)
(0.924226 0 0)
(0.926503 0 0)
(0.928753 0 0)
(0.930976 0 0)
(0.933172 0 0)
(0.93534 0 0)
(0.93748 0 0)
(0.939592 0 0)
(0.941675 0 0)
(0.943729 0 0)
(0.945753 0 0)
(0.947747 0 0)
(0.949711 0 0)
(0.951644 0 0)
(0.953546 0 0)
(0.955416 0 0)
(0.957255 0 0)
(0.95906 0 0)
(0.960833 0 0)
(0.962573 0 0)
(0.964278 0 0)
(0.965949 0 0)
(0.967586 0 0)
(0.969187 0 0)
(0.970752 0 0)
(0.97228 0 0)
(0.973772 0 0)
(0.975226 0 0)
(0.976643 0 0)
(0.97802 0 0)
(0.979359 0 0)
(0.980658 0 0)
(0.981916 0 0)
(0.983133 0 0)
(0.984309 0 0)
(0.985442 0 0)
(0.986533 0 0)
(0.98758 0 0)
(0.988582 0 0)
(0.98954 0 0)
(0.990452 0 0)
(0.991317 0 0)
(0.992135 0 0)
(0.992905 0 0)
(0.993626 0 0)
(0.994298 0 0)
(0.994919 0 0)
(0.995489 0 0)
(0.996006 0 0)
(0.99647 0 0)
(0.996881 0 0)
(0.997236 0 0)
(0.997535 0 0)
(0.997777 0 0)
(0.997961 0 0)
(0.998086 0 0)
(0.998151 0 0)
(0.998155 0 0)
(0.998096 0 0)
(0.997973 0 0)
(0.997786 0 0)
(0.997532 0 0)
(0.997211 0 0)
(0.996822 0 0)
(0.996362 0 0)
(0.995831 0 0)
(0.995227 0 0)
(0.994549 0 0)
(0.993794 0 0)
(0.992963 0 0)
(0.992052 0 0)
(0.99106 0 0)
(0.989985 0 0)
(0.988827 0 0)
(0.987582 0 0)
(0.986249 0 0)
(0.984825 0 0)
(0.98331 0 0)
(0.981701 0 0)
(0.979995 0 0)
(0.97819 0 0)
(0.976284 0 0)
(0.974275 0 0)
(0.97216 0 0)
(0.969936 0 0)
(0.967601 0 0)
(0.965152 0 0)
(0.962586 0 0)
(0.959899 0 0)
(0.95709 0 0)
(0.954154 0 0)
(0.951088 0 0)
(0.947889 0 0)
(0.944553 0 0)
(0.941076 0 0)
(0.937454 0 0)
(0.933682 0 0)
(0.929758 0 0)
(0.925676 0 0)
(0.92143 0 0)
(0.917018 0 0)
(0.912432 0 0)
(0.907669 0 0)
(0.902721 0 0)
(0.897584 0 0)
(0.89225 0 0)
(0.886715 0 0)
(0.880969 0 0)
(0.875008 0 0)
(0.868822 0 0)
(0.862404 0 0)
(0.855746 0 0)
(0.848839 0 0)
(0.841674 0 0)
(0.834241 0 0)
(0.826529 0 0)
(0.818528 0 0)
(0.810227 0 0)
(0.801613 0 0)
(0.792674 0 0)
(0.783396 0 0)
(0.773765 0 0)
(0.763766 0 0)
(0.753384 0 0)
(0.7426 0 0)
(0.731397 0 0)
(0.719757 0 0)
(0.70766 0 0)
(0.695084 0 0)
(0.682007 0 0)
(0.668406 0 0)
(0.654257 0 0)
(0.639532 0 0)
(0.624204 0 0)
(0.608246 0 0)
(0.591628 0 0)
(0.574319 0 0)
(0.556287 0 0)
(0.5375 0 0)
(0.517927 0 0)
(0.497534 0 0)
(0.476291 0 0)
(0.454168 0 0)
(0.431138 0 0)
(0.407177 0 0)
(0.382267 0 0)
(0.356396 0 0)
(0.329561 0 0)
(0.30177 0 0)
(0.273041 0 0)
(0.243408 0 0)
(0.212919 0 0)
(0.18164 0 0)
(0.149655 0 0)
(0.117063 0 0)
(0.08398 0 0)
(0.0505359 0 0)
(0.0168706 0 0)
(-0.0168692 0 0)
(-0.0505343 0 0)
(-0.0839781 0 0)
(-0.11706 0 0)
(-0.149652 0 0)
(-0.181636 0 0)
(-0.212914 0 0)
(-0.243402 0 0)
(-0.273034 0 0)
(-0.301762 0 0)
(-0.329553 0 0)
(-0.356387 0 0)
(-0.382257 0 0)
(-0.407166 0 0)
(-0.431126 0 0)
(-0.454156 0 0)
(-0.476279 0 0)
(-0.497522 0 0)
(-0.517914 0 0)
(-0.537488 0 0)
(-0.556274 0 0)
(-0.574306 0 0)
(-0.591615 0 0)
(-0.608234 0 0)
(-0.624192 0 0)
(-0.639519 0 0)
(-0.654245 0 0)
(-0.668395 0 0)
(-0.681996 0 0)
(-0.695073 0 0)
(-0.707649 0 0)
(-0.719747 0 0)
(-0.731387 0 0)
(-0.74259 0 0)
(-0.753374 0 0)
(-0.763757 0 0)
(-0.773757 0 0)
(-0.783388 0 0)
(-0.792666 0 0)
(-0.801606 0 0)
(-0.81022 0 0)
(-0.818521 0 0)
(-0.826522 0 0)
(-0.834234 0 0)
(-0.841668 0 0)
(-0.848833 0 0)
(-0.855741 0 0)
(-0.862399 0 0)
(-0.868817 0 0)
(-0.875003 0 0)
(-0.880965 0 0)
(-0.88671 0 0)
(-0.892246 0 0)
(-0.89758 0 0)
(-0.902717 0 0)
(-0.907665 0 0)
(-0.912429 0 0)
(-0.917015 0 0)
(-0.921427 0 0)
(-0.925673 0 0)
(-0.929755 0 0)
(-0.93368 0 0)
(-0.937451 0 0)
(-0.941073 0 0)
(-0.944551 0 0)
(-0.947887 0 0)
(-0.951086 0 0)
(-0.954152 0 0)
(-0.957088 0 0)
(-0.959898 0 0)
(-0.962584 0 0)
(-0.965151 0 0)
(-0.9676 0 0)
(-0.969935 0 0)
(-0.972159 0 0)
(-0.974274 0 0)
(-0.976283 0 0)
(-0.978189 0 0)
(-0.979994 0 0)
(-0.9817 0 0)
(-0.98331 0 0)
(-0.984825 0 0)
(-0.986248 0 0)
(-0.987581 0 0)
(-0.988826 0 0)
(-0.989985 0 0)
(-0.991059 0 0)
(-0.992051 0 0)
(-0.992962 0 0)
(-0.993794 0 0)
(-0.994549 0 0)
(-0.995227 0 0)
(-0.995831 0 0)
(-0.996362 0 0)
(-0.996822 0 0)
(-0.997211 0 0)
(-0.997532 0 0)
(-0.997786 0 0)
(-0.997973 0 0)
(-0.998096 0 0)
(-0.998155 0 0)
(-0.998151 0 0)
(-0.998086 0 0)
(-0.997961 0 0)
(-0.997777 0 0)
(-0.997535 0 0)
(-0.997236 0 0)
(-0.996881 0 0)
(-0.99647 0 0)
(-0.996006 0 0)
(-0.995489 0 0)
(-0.994919 0 0)
(-0.994298 0 0)
(-0.993626 0 0)
(-0.992905 0 0)
(-0.992135 0 0)
(-0.991317 0 0)
(-0.990452 0 0)
(-0.98954 0 0)
(-0.988582 0 0)
(-0.98758 0 0)
(-0.986533 0 0)
(-0.985442 0 0)
(-0.984309 0 0)
(-0.983133 0 0)
(-0.981916 0 0)
(-0.980657 0 0)
(-0.979358 0 0)
(-0.97802 0 0)
(-0.976642 0 0)
(-0.975226 0 0)
(-0.973772 0 0)
(-0.97228 0 0)
(-0.970751 0 0)
(-0.969186 0 0)
(-0.967585 0 0)
(-0.965949 0 0)
(-0.964278 0 0)
(-0.962572 0 0)
(-0.960833 0 0)
(-0.95906 0 0)
(-0.957254 0 0)
(-0.955416 0 0)
(-0.953545 0 0)
(-0.951643 0 0)
(-0.94971 0 0)
(-0.947746 0 0)
(-0.945752 0 0)
(-0.943728 0 0)
(-0.941674 0 0)
(-0.939591 0 0)
(-0.937479 0 0)
(-0.935339 0 0)
(-0.933171 0 0)
(-0.930975 0 0)
(-0.928752 0 0)
(-0.926502 0 0)
(-0.924225 0 0)
(-0.921922 0 0)
(-0.919593 0 0)
(-0.917238 0 0)
(-0.914858 0 0)
(-0.912453 0 0)
(-0.910023 0 0)
(-0.907569 0 0)
(-0.905091 0 0)
(-0.902589 0 0)
(-0.900063 0 0)
(-0.897514 0 0)
(-0.894943 0 0)
(-0.892348 0 0)
(-0.889731 0 0)
(-0.887093 0 0)
(-0.884432 0 0)
(-0.881749 0 0)
(-0.879045 0 0)
(-0.876321 0 0)
(-0.873575 0 0)
(-0.870808 0 0)
(-0.868022 0 0)
(-0.865215 0 0)
(-0.862388 0 0)
(-0.859541 0 0)
(-0.856675 0 0)
(-0.85379 0 0)
(-0.850886 0 0)
(-0.847963 0 0)
(-0.845021 0 0)
(-0.842061 0 0)
(-0.839082 0 0)
(-0.836086 0 0)
(-0.833072 0 0)
(-0.830041 0 0)
(-0.826992 0 0)
(-0.823925 0 0)
(-0.820842 0 0)
(-0.817742 0 0)
(-0.814625 0 0)
(-0.811492 0 0)
(-0.808343 0 0)
(-0.805177 0 0)
(-0.801996 0 0)
(-0.798799 0 0)
(-0.795586 0 0)
(-0.792358 0 0)
(-0.789114 0 0)
(-0.785856 0 0)
(-0.782582 0 0)
(-0.779294 0 0)
(-0.775991 0 0)
(-0.772674 0 0)
(-0.769343 0 0)
(-0.765997 0 0)
(-0.762637 0 0)
(-0.759264 0 0)
(-0.755876 0 0)
(-0.752476 0 0)
(-0.749061 0 0)
(-0.745634 0 0)
(-0.742193 0 0)
(-0.73874 0 0)
(-0.735273 0 0)
(-0.731794 0 0)
(-0.728302 0 0)
(-0.724798 0 0)
(-0.721282 0 0)
(-0.717753 0 0)
(-0.714212 0 0)
(-0.710659 0 0)
(-0.707095 0 0)
(-0.703518 0 0)
(-0.69993 0 0)
(-0.696331 0 0)
(-0.69272 0 0)
(-0.689098 0 0)
(-0.685465 0 0)
(-0.681821 0 0)
(-0.678167 0 0)
(-0.674501 0 0)
(-0.670825 0 0)
(-0.667138 0 0)
(-0.66344 0 0)
(-0.659733 0 0)
(-0.656015 0 0)
(-0.652287 0 0)
(-0.648549 0 0)
(-0.644801 0 0)
(-0.641044 0 0)
(-0.637277 0 0)
(-0.6335 0 0)
(-0.629713 0 0)
(-0.625917 0 0)
(-0.622112 0 0)
(-0.618298 0 0)
(-0.614475 0 0)
(-0.610642 0 0)
(-0.606801 0 0)
(-0.602951 0 0)
(-0.599092 0 0)
(-0.595224 0 0)
(-0.591348 0 0)
(-0.587464 0 0)
(-0.583571 0 0)
(-0.57967 0 0)
(-0.575761 0 0)
(-0.571843 0 0)
(-0.567918 0 0)
(-0.563984 0 0)
(-0.560043 0 0)
(-0.556094 0 0)
(-0.552138 0 0)
(-0.548173 0 0)
(-0.544202 0 0)
(-0.540222 0 0)
(-0.536236 0 0)
(-0.532242 0 0)
(-0.528241 0 0)
(-0.524233 0 0)
(-0.520218 0 0)
(-0.516196 0 0)
(-0.512167 0 0)
(-0.508131 0 0)
(-0.504089 0 0)
(-0.50004 0 0)
(-0.495984 0 0)
(-0.491922 0 0)
(-0.487853 0 0)
(-0.483779 0 0)
(-0.479697 0 0)
(-0.47561 0 0)
(-0.471516 0 0)
(-0.467417 0 0)
(-0.463311 0 0)
(-0.4592 0 0)
(-0.455082 0 0)
(-0.450959 0 0)
(-0.44683 0 0)
(-0.442696 0 0)
(-0.438556 0 0)
(-0.43441 0 0)
(-0.430259 0 0)
(-0.426103 0 0)
(-0.421941 0 0)
(-0.417774 0 0)
(-0.413602 0 0)
(-0.409425 0 0)
(-0.405242 0 0)
(-0.401055 0 0)
(-0.396863 0 0)
(-0.392666 0 0)
(-0.388464 0 0)
(-0.384258 0 0)
(-0.380046 0 0)
(-0.37583 0 0)
(-0.37161 0 0)
(-0.367385 0 0)
(-0.363156 0 0)
(-0.358922 0 0)
(-0.354684 0 0)
(-0.350442 0 0)
(-0.346196 0 0)
(-0.341945 0 0)
(-0.337691 0 0)
(-0.333432 0 0)
(-0.32917 0 0)
(-0.324903 0 0)
(-0.320633 0 0)
(-0.316359 0 0)
(-0.312081 0 0)
(-0.3078 0 0)
(-0.303515 0 0)
(-0.299226 0 0)
(-0.294934 0 0)
(-0.290639 0 0)
(-0.28634 0 0)
(-0.282038 0 0)
(-0.277733 0 0)
(-0.273424 0 0)
(-0.269112 0 0)
(-0.264797 0 0)
(-0.260479 0 0)
(-0.256159 0 0)
(-0.251835 0 0)
(-0.247508 0 0)
(-0.243178 0 0)
(-0.238846 0 0)
(-0.234511 0 0)
(-0.230173 0 0)
(-0.225833 0 0)
(-0.22149 0 0)
(-0.217145 0 0)
(-0.212797 0 0)
(-0.208447 0 0)
(-0.204094 0 0)
(-0.199739 0 0)
(-0.195382 0 0)
(-0.191023 0 0)
(-0.186661 0 0)
(-0.182297 0 0)
(-0.177932 0 0)
(-0.173564 0 0)
(-0.169195 0 0)
(-0.164823 0 0)
(-0.16045 0 0)
(-0.156075 0 0)
(-0.151698 0 0)
(-0.147319 0 0)
(-0.142939 0 0)
(-0.138557 0 0)
(-0.134174 0 0)
(-0.129789 0 0)
(-0.125403 0 0)
(-0.121015 0 0)
(-0.116626 0 0)
(-0.112236 0 0)
(-0.107845 0 0)
(-0.103452 0 0)
(-0.0990581 0 0)
(-0.0946632 0 0)
(-0.0902672 0 0)
(-0.0858702 0 0)
(-0.0814723 0 0)
(-0.0770735 0 0)
(-0.0726738 0 0)
(-0.0682733 0 0)
(-0.0638721 0 0)
(-0.0594702 0 0)
(-0.0550676 0 0)
(-0.0506644 0 0)
(-0.0462607 0 0)
(-0.0418565 0 0)
(-0.0374517 0 0)
(-0.0330466 0 0)
(-0.0286411 0 0)
(-0.0242353 0 0)
(-0.0198293 0 0)
(-0.015423 0 0)
(-0.0110166 0 0)
(-0.00660998 0 0)
(-0.00220333 0 0)
)
;

boundaryField
{
    left
    {
        type            fixedValue;
        value           uniform (0 0 0);
    }
    right
    {
        type            fixedValue;
        value           uniform (0 0 0);
    }
    frontBackUpDown
    {
        type            empty;
    }
}


// ************************************************************************* //
