/*--------------------------------*- C++ -*----------------------------------*\
| =========                 |                                                 |
| \\      /  F ield         | OpenFOAM: The Open Source CFD Toolbox           |
|  \\    /   O peration     | Version:  2412                                  |
|   \\  /    A nd           | Website:  www.openfoam.com                      |
|    \\/     M anipulation  |                                                 |
\*---------------------------------------------------------------------------*/
FoamFile
{
    version     2.0;
    format      ascii;
    arch        "LSB;label=32;scalar=64";
    class       surfaceScalarField;
    location    "0.09";
    object      phi;
}
// * * * * * * * * * * * * * * * * * * * * * * * * * * * * * * * * * * * * * //

dimensions      [0 3 -1 0 0 0 0];

oriented        oriented;

internalField   nonuniform List<scalar> 
799
(
6.12144e-05
0.000122428
0.000183637
0.000244842
0.000306039
0.000367227
0.000428405
0.00048957
0.00055072
0.000611855
0.000672971
0.000734068
0.000795143
0.000856195
0.000917222
0.000978221
0.00103919
0.00110013
0.00116104
0.00122192
0.00128275
0.00134355
0.00140431
0.00146503
0.00152571
0.00158634
0.00164693
0.00170746
0.00176795
0.00182838
0.00188876
0.00194908
0.00200935
0.00206955
0.0021297
0.00218978
0.00224979
0.00230974
0.00236962
0.00242943
0.00248917
0.00254883
0.00260841
0.00266792
0.00272735
0.0027867
0.00284596
0.00290513
0.00296422
0.00302322
0.00308213
0.00314095
0.00319967
0.00325829
0.00331681
0.00337524
0.00343356
0.00349177
0.00354988
0.00360788
0.00366577
0.00372355
0.00378122
0.00383876
0.00389619
0.0039535
0.00401069
0.00406775
0.00412469
0.0041815
0.00423817
0.00429472
0.00435113
0.00440741
0.00446355
0.00451955
0.0045754
0.00463111
0.00468668
0.00474209
0.00479736
0.00485248
0.00490744
0.00496224
0.00501688
0.00507137
0.00512569
0.00517984
0.00523383
0.00528765
0.0053413
0.00539478
0.00544808
0.0055012
0.00555414
0.0056069
0.00565948
0.00571186
0.00576407
0.00581608
0.00586789
0.00591951
0.00597094
0.00602216
0.00607319
0.006124
0.00617462
0.00622502
0.00627521
0.00632519
0.00637495
0.0064245
0.00647382
0.00652293
0.0065718
0.00662045
0.00666887
0.00671706
0.00676502
0.00681273
0.00686021
0.00690745
0.00695444
0.00700119
0.00704768
0.00709393
0.00713992
0.00718565
0.00723113
0.00727634
0.00732129
0.00736598
0.00741039
0.00745453
0.0074984
0.007542
0.00758531
0.00762834
0.00767109
0.00771354
0.00775571
0.00779759
0.00783917
0.00788045
0.00792144
0.00796211
0.00800249
0.00804255
0.0080823
0.00812174
0.00816086
0.00819966
0.00823814
0.00827629
0.00831411
0.0083516
0.00838876
0.00842558
0.00846206
0.0084982
0.00853399
0.00856943
0.00860452
0.00863925
0.00867363
0.00870764
0.0087413
0.00877458
0.0088075
0.00884004
0.0088722
0.00890399
0.00893539
0.00896641
0.00899704
0.00902727
0.00905712
0.00908656
0.0091156
0.00914424
0.00917246
0.00920028
0.00922768
0.00925466
0.00928122
0.00930736
0.00933307
0.00935835
0.00938319
0.00940759
0.00943155
0.00945507
0.00947813
0.00950075
0.00952291
0.00954461
0.00956584
0.00958661
0.00960691
0.00962674
0.00964609
0.00966495
0.00968334
0.00970123
0.00971863
0.00973554
0.00975195
0.00976785
0.00978325
0.00979814
0.00981251
0.00982636
0.0098397
0.0098525
0.00986478
0.00987652
0.00988773
0.00989839
0.00990851
0.00991808
0.0099271
0.00993556
0.00994345
0.00995079
0.00995755
0.00996374
0.00996936
0.00997439
0.00997884
0.0099827
0.00998596
0.00998863
0.0099907
0.00999216
0.00999301
0.00999325
0.00999287
0.00999187
0.00999024
0.00998799
0.00998509
0.00998156
0.00997739
0.00997257
0.0099671
0.00996098
0.00995419
0.00994674
0.00993863
0.00992984
0.00992038
0.00991023
0.00989941
0.00988789
0.00987568
0.00986278
0.00984917
0.00983486
0.00981984
0.00980411
0.00978766
0.00977049
0.0097526
0.00973398
0.00971462
0.00969452
0.00967369
0.00965211
0.00962978
0.0096067
0.00958286
0.00955826
0.0095329
0.00950677
0.00947987
0.00945219
0.00942373
0.00939449
0.00936447
0.00933365
0.00930205
0.00926964
0.00923644
0.00920243
0.00916762
0.009132
0.00909556
0.00905831
0.00902025
0.00898136
0.00894164
0.0089011
0.00885973
0.00881753
0.0087745
0.00873062
0.00868591
0.00864036
0.00859396
0.00854672
0.00849863
0.00844969
0.0083999
0.00834926
0.00829777
0.00824542
0.00819221
0.00813815
0.00808323
0.00802745
0.00797081
0.00791331
0.00785495
0.00779574
0.00773566
0.00767472
0.00761292
0.00755026
0.00748674
0.00742237
0.00735714
0.00729106
0.00722412
0.00715633
0.00708768
0.00701819
0.00694786
0.00687668
0.00680466
0.0067318
0.00665811
0.00658358
0.00650823
0.00643205
0.00635506
0.00627724
0.00619862
0.00611919
0.00603896
0.00595793
0.00587612
0.00579351
0.00571013
0.00562598
0.00554106
0.00545538
0.00536896
0.00528178
0.00519387
0.00510524
0.00501588
0.00492581
0.00483504
0.00474357
0.00465142
0.0045586
0.00446511
0.00437097
0.00427618
0.00418076
0.00408472
0.00398807
0.00389082
0.00379298
0.00369457
0.00359559
0.00349607
0.00339601
0.00329542
0.00319433
0.00309273
0.00299066
0.00288812
0.00278512
0.00268169
0.00257783
0.00247356
0.0023689
0.00226386
0.00215845
0.0020527
0.00194663
0.00184023
0.00173354
0.00162657
0.00151933
0.00141185
0.00130414
0.00119621
0.00108809
0.000979794
0.000871334
0.000762731
0.000654003
0.000545167
0.000436241
0.000327244
0.000218193
0.000109105
5.33204e-11
-0.000109105
-0.000218192
-0.000327244
-0.000436241
-0.000545166
-0.000654002
-0.00076273
-0.000871333
-0.000979793
-0.00108809
-0.00119621
-0.00130414
-0.00141185
-0.00151933
-0.00162657
-0.00173354
-0.00184023
-0.00194662
-0.0020527
-0.00215845
-0.00226385
-0.00236889
-0.00247355
-0.00257782
-0.00268168
-0.00278511
-0.00288811
-0.00299065
-0.00309273
-0.00319432
-0.00329541
-0.003396
-0.00349606
-0.00359558
-0.00369456
-0.00379297
-0.00389081
-0.00398806
-0.00408471
-0.00418075
-0.00427617
-0.00437096
-0.0044651
-0.00455859
-0.00465141
-0.00474356
-0.00483503
-0.0049258
-0.00501587
-0.00510522
-0.00519386
-0.00528177
-0.00536894
-0.00545537
-0.00554105
-0.00562596
-0.00571012
-0.0057935
-0.0058761
-0.00595792
-0.00603894
-0.00611917
-0.0061986
-0.00627723
-0.00635504
-0.00643204
-0.00650821
-0.00658356
-0.00665809
-0.00673178
-0.00680464
-0.00687666
-0.00694784
-0.00701818
-0.00708767
-0.00715631
-0.0072241
-0.00729104
-0.00735712
-0.00742235
-0.00748673
-0.00755024
-0.0076129
-0.0076747
-0.00773564
-0.00779572
-0.00785494
-0.0079133
-0.0079708
-0.00802744
-0.00808322
-0.00813814
-0.0081922
-0.0082454
-0.00829775
-0.00834925
-0.00839989
-0.00844968
-0.00849862
-0.00854671
-0.00859395
-0.00864035
-0.0086859
-0.00873061
-0.00877449
-0.00881752
-0.00885972
-0.00890109
-0.00894163
-0.00898135
-0.00902024
-0.00905831
-0.00909556
-0.00913199
-0.00916761
-0.00920243
-0.00923643
-0.00926964
-0.00930204
-0.00933365
-0.00936446
-0.00939449
-0.00942373
-0.00945218
-0.00947986
-0.00950676
-0.00953289
-0.00955826
-0.00958286
-0.00960669
-0.00962978
-0.0096521
-0.00967369
-0.00969452
-0.00971461
-0.00973397
-0.0097526
-0.00977049
-0.00978766
-0.00980411
-0.00981984
-0.00983486
-0.00984917
-0.00986278
-0.00987568
-0.00988789
-0.0098994
-0.00991023
-0.00992038
-0.00992984
-0.00993863
-0.00994674
-0.00995419
-0.00996098
-0.0099671
-0.00997257
-0.00997739
-0.00998156
-0.00998509
-0.00998799
-0.00999024
-0.00999187
-0.00999287
-0.00999325
-0.00999301
-0.00999216
-0.0099907
-0.00998863
-0.00998596
-0.0099827
-0.00997884
-0.00997439
-0.00996936
-0.00996374
-0.00995755
-0.00995079
-0.00994345
-0.00993555
-0.0099271
-0.00991808
-0.00990851
-0.00989839
-0.00988773
-0.00987652
-0.00986478
-0.0098525
-0.00983969
-0.00982636
-0.00981251
-0.00979814
-0.00978325
-0.00976785
-0.00975195
-0.00973554
-0.00971863
-0.00970123
-0.00968333
-0.00966495
-0.00964608
-0.00962673
-0.00960691
-0.00958661
-0.00956584
-0.0095446
-0.0095229
-0.00950074
-0.00947813
-0.00945506
-0.00943155
-0.00940759
-0.00938318
-0.00935834
-0.00933306
-0.00930736
-0.00928122
-0.00925466
-0.00922767
-0.00920027
-0.00917246
-0.00914423
-0.00911559
-0.00908655
-0.00905711
-0.00902727
-0.00899703
-0.0089664
-0.00893538
-0.00890398
-0.0088722
-0.00884003
-0.00880749
-0.00877457
-0.00874129
-0.00870764
-0.00867362
-0.00863924
-0.00860451
-0.00856942
-0.00853398
-0.00849819
-0.00846205
-0.00842557
-0.00838875
-0.00835159
-0.0083141
-0.00827628
-0.00823813
-0.00819965
-0.00816085
-0.00812173
-0.00808229
-0.00804254
-0.00800248
-0.0079621
-0.00792143
-0.00788044
-0.00783916
-0.00779758
-0.0077557
-0.00771353
-0.00767108
-0.00762833
-0.0075853
-0.00754199
-0.00749839
-0.00745453
-0.00741038
-0.00736597
-0.00732128
-0.00727633
-0.00723112
-0.00718564
-0.00713991
-0.00709392
-0.00704767
-0.00700118
-0.00695443
-0.00690744
-0.0068602
-0.00681272
-0.00676501
-0.00671705
-0.00666886
-0.00662044
-0.00657179
-0.00652292
-0.00647381
-0.00642449
-0.00637494
-0.00632518
-0.0062752
-0.00622501
-0.00617461
-0.006124
-0.00607318
-0.00602215
-0.00597093
-0.00591951
-0.00586788
-0.00581607
-0.00576406
-0.00571186
-0.00565947
-0.00560689
-0.00555413
-0.00550119
-0.00544807
-0.00539477
-0.00534129
-0.00528764
-0.00523383
-0.00517984
-0.00512568
-0.00507136
-0.00501688
-0.00496223
-0.00490743
-0.00485247
-0.00479736
-0.00474209
-0.00468667
-0.00463111
-0.0045754
-0.00451954
-0.00446354
-0.0044074
-0.00435113
-0.00429472
-0.00423817
-0.00418149
-0.00412468
-0.00406775
-0.00401068
-0.0039535
-0.00389619
-0.00383876
-0.00378121
-0.00372355
-0.00366577
-0.00360788
-0.00354988
-0.00349177
-0.00343355
-0.00337523
-0.00331681
-0.00325829
-0.00319966
-0.00314094
-0.00308213
-0.00302322
-0.00296422
-0.00290513
-0.00284596
-0.00278669
-0.00272735
-0.00266792
-0.00260841
-0.00254883
-0.00248916
-0.00242943
-0.00236962
-0.00230974
-0.00224979
-0.00218977
-0.00212969
-0.00206955
-0.00200934
-0.00194908
-0.00188876
-0.00182838
-0.00176795
-0.00170746
-0.00164692
-0.00158634
-0.00152571
-0.00146503
-0.00140431
-0.00134355
-0.00128275
-0.00122191
-0.00116104
-0.00110013
-0.00103919
-0.000978221
-0.000917221
-0.000856195
-0.000795143
-0.000734068
-0.000672971
-0.000611855
-0.00055072
-0.00048957
-0.000428405
-0.000367228
-0.000306039
-0.000244842
-0.000183638
-0.000122428
-6.12151e-05
)
;

boundaryField
{
    left
    {
        type            calculated;
        value           uniform 0;
    }
    right
    {
        type            calculated;
        value           uniform 0;
    }
    frontBackUpDown
    {
        type            empty;
    }
}


// ************************************************************************* //
