/*--------------------------------*- C++ -*----------------------------------*\
| =========                 |                                                 |
| \\      /  F ield         | OpenFOAM: The Open Source CFD Toolbox           |
|  \\    /   O peration     | Version:  2412                                  |
|   \\  /    A nd           | Website:  www.openfoam.com                      |
|    \\/     M anipulation  |                                                 |
\*---------------------------------------------------------------------------*/
FoamFile
{
    version     2.0;
    format      ascii;
    arch        "LSB;label=32;scalar=64";
    class       volVectorField;
    location    "0.09";
    object      U;
}
// * * * * * * * * * * * * * * * * * * * * * * * * * * * * * * * * * * * * * //

dimensions      [0 1 -1 0 0 0 0];

internalField   nonuniform List<vector> 
800
(
(0.00306071 0 0)
(0.00918217 0 0)
(0.0153034 0 0)
(0.0214241 0 0)
(0.0275443 0 0)
(0.0336636 0 0)
(0.0397819 0 0)
(0.0458991 0 0)
(0.0520149 0 0)
(0.0581292 0 0)
(0.0642418 0 0)
(0.0703525 0 0)
(0.0764611 0 0)
(0.0825675 0 0)
(0.0886715 0 0)
(0.0947728 0 0)
(0.100871 0 0)
(0.106967 0 0)
(0.11306 0 0)
(0.119149 0 0)
(0.125234 0 0)
(0.131316 0 0)
(0.137394 0 0)
(0.143468 0 0)
(0.149538 0 0)
(0.155604 0 0)
(0.161665 0 0)
(0.167721 0 0)
(0.173772 0 0)
(0.179818 0 0)
(0.185858 0 0)
(0.191893 0 0)
(0.197923 0 0)
(0.203946 0 0)
(0.209964 0 0)
(0.215975 0 0)
(0.22198 0 0)
(0.227978 0 0)
(0.23397 0 0)
(0.239954 0 0)
(0.245932 0 0)
(0.251902 0 0)
(0.257864 0 0)
(0.263819 0 0)
(0.269766 0 0)
(0.275704 0 0)
(0.281635 0 0)
(0.287557 0 0)
(0.29347 0 0)
(0.299375 0 0)
(0.30527 0 0)
(0.311156 0 0)
(0.317033 0 0)
(0.3229 0 0)
(0.328758 0 0)
(0.334605 0 0)
(0.340442 0 0)
(0.346269 0 0)
(0.352086 0 0)
(0.357891 0 0)
(0.363686 0 0)
(0.369469 0 0)
(0.375241 0 0)
(0.381002 0 0)
(0.386751 0 0)
(0.392488 0 0)
(0.398213 0 0)
(0.403925 0 0)
(0.409625 0 0)
(0.415312 0 0)
(0.420987 0 0)
(0.426648 0 0)
(0.432296 0 0)
(0.437931 0 0)
(0.443551 0 0)
(0.449158 0 0)
(0.454751 0 0)
(0.460329 0 0)
(0.465893 0 0)
(0.471442 0 0)
(0.476977 0 0)
(0.482496 0 0)
(0.487999 0 0)
(0.493488 0 0)
(0.49896 0 0)
(0.504417 0 0)
(0.509857 0 0)
(0.515281 0 0)
(0.520688 0 0)
(0.526078 0 0)
(0.531452 0 0)
(0.536808 0 0)
(0.542147 0 0)
(0.547468 0 0)
(0.552771 0 0)
(0.558057 0 0)
(0.563323 0 0)
(0.568572 0 0)
(0.573801 0 0)
(0.579012 0 0)
(0.584203 0 0)
(0.589375 0 0)
(0.594528 0 0)
(0.59966 0 0)
(0.604773 0 0)
(0.609865 0 0)
(0.614936 0 0)
(0.619987 0 0)
(0.625017 0 0)
(0.630025 0 0)
(0.635013 0 0)
(0.639978 0 0)
(0.644922 0 0)
(0.649843 0 0)
(0.654742 0 0)
(0.659619 0 0)
(0.664472 0 0)
(0.669303 0 0)
(0.67411 0 0)
(0.678893 0 0)
(0.683653 0 0)
(0.688389 0 0)
(0.693101 0 0)
(0.697787 0 0)
(0.70245 0 0)
(0.707087 0 0)
(0.711699 0 0)
(0.716285 0 0)
(0.720846 0 0)
(0.72538 0 0)
(0.729888 0 0)
(0.73437 0 0)
(0.738825 0 0)
(0.743253 0 0)
(0.747654 0 0)
(0.752027 0 0)
(0.756372 0 0)
(0.760689 0 0)
(0.764978 0 0)
(0.769239 0 0)
(0.77347 0 0)
(0.777672 0 0)
(0.781845 0 0)
(0.785989 0 0)
(0.790102 0 0)
(0.794185 0 0)
(0.798238 0 0)
(0.80226 0 0)
(0.80625 0 0)
(0.81021 0 0)
(0.814138 0 0)
(0.818034 0 0)
(0.821898 0 0)
(0.825729 0 0)
(0.829528 0 0)
(0.833294 0 0)
(0.837026 0 0)
(0.840725 0 0)
(0.84439 0 0)
(0.848021 0 0)
(0.851618 0 0)
(0.855179 0 0)
(0.858706 0 0)
(0.862197 0 0)
(0.865653 0 0)
(0.869073 0 0)
(0.872456 0 0)
(0.875803 0 0)
(0.879113 0 0)
(0.882386 0 0)
(0.885621 0 0)
(0.888819 0 0)
(0.891979 0 0)
(0.8951 0 0)
(0.898182 0 0)
(0.901225 0 0)
(0.904229 0 0)
(0.907194 0 0)
(0.910118 0 0)
(0.913002 0 0)
(0.915845 0 0)
(0.918647 0 0)
(0.921408 0 0)
(0.924128 0 0)
(0.926805 0 0)
(0.92944 0 0)
(0.932032 0 0)
(0.934582 0 0)
(0.937088 0 0)
(0.93955 0 0)
(0.941968 0 0)
(0.944342 0 0)
(0.946671 0 0)
(0.948956 0 0)
(0.951194 0 0)
(0.953387 0 0)
(0.955534 0 0)
(0.957634 0 0)
(0.959688 0 0)
(0.961694 0 0)
(0.963653 0 0)
(0.965564 0 0)
(0.967427 0 0)
(0.969241 0 0)
(0.971006 0 0)
(0.972721 0 0)
(0.974387 0 0)
(0.976003 0 0)
(0.977568 0 0)
(0.979082 0 0)
(0.980545 0 0)
(0.981957 0 0)
(0.983316 0 0)
(0.984623 0 0)
(0.985877 0 0)
(0.987078 0 0)
(0.988226 0 0)
(0.989319 0 0)
(0.990359 0 0)
(0.991343 0 0)
(0.992273 0 0)
(0.993147 0 0)
(0.993965 0 0)
(0.994726 0 0)
(0.995431 0 0)
(0.996079 0 0)
(0.996669 0 0)
(0.997202 0 0)
(0.997676 0 0)
(0.998092 0 0)
(0.998448 0 0)
(0.998745 0 0)
(0.998982 0 0)
(0.999158 0 0)
(0.999274 0 0)
(0.999329 0 0)
(0.999322 0 0)
(0.999253 0 0)
(0.999121 0 0)
(0.998927 0 0)
(0.99867 0 0)
(0.998349 0 0)
(0.997964 0 0)
(0.997514 0 0)
(0.997 0 0)
(0.99642 0 0)
(0.995775 0 0)
(0.995063 0 0)
(0.994285 0 0)
(0.99344 0 0)
(0.992528 0 0)
(0.991548 0 0)
(0.990499 0 0)
(0.989382 0 0)
(0.988196 0 0)
(0.98694 0 0)
(0.985615 0 0)
(0.984219 0 0)
(0.982753 0 0)
(0.981216 0 0)
(0.979607 0 0)
(0.977926 0 0)
(0.976173 0 0)
(0.974347 0 0)
(0.972448 0 0)
(0.970476 0 0)
(0.968429 0 0)
(0.966309 0 0)
(0.964113 0 0)
(0.961843 0 0)
(0.959497 0 0)
(0.957075 0 0)
(0.954577 0 0)
(0.952003 0 0)
(0.949351 0 0)
(0.946622 0 0)
(0.943816 0 0)
(0.940931 0 0)
(0.937968 0 0)
(0.934926 0 0)
(0.931805 0 0)
(0.928604 0 0)
(0.925324 0 0)
(0.921964 0 0)
(0.918523 0 0)
(0.915001 0 0)
(0.911398 0 0)
(0.907714 0 0)
(0.903948 0 0)
(0.900101 0 0)
(0.896171 0 0)
(0.892158 0 0)
(0.888063 0 0)
(0.883884 0 0)
(0.879622 0 0)
(0.875277 0 0)
(0.870848 0 0)
(0.866335 0 0)
(0.861737 0 0)
(0.857055 0 0)
(0.852289 0 0)
(0.847437 0 0)
(0.842501 0 0)
(0.83748 0 0)
(0.832373 0 0)
(0.827181 0 0)
(0.821903 0 0)
(0.81654 0 0)
(0.81109 0 0)
(0.805556 0 0)
(0.799935 0 0)
(0.794228 0 0)
(0.788435 0 0)
(0.782556 0 0)
(0.776591 0 0)
(0.77054 0 0)
(0.764403 0 0)
(0.75818 0 0)
(0.751872 0 0)
(0.745477 0 0)
(0.738997 0 0)
(0.732431 0 0)
(0.72578 0 0)
(0.719043 0 0)
(0.712222 0 0)
(0.705315 0 0)
(0.698324 0 0)
(0.691248 0 0)
(0.684088 0 0)
(0.676844 0 0)
(0.669516 0 0)
(0.662105 0 0)
(0.654611 0 0)
(0.647035 0 0)
(0.639376 0 0)
(0.631635 0 0)
(0.623813 0 0)
(0.615911 0 0)
(0.607927 0 0)
(0.599864 0 0)
(0.591722 0 0)
(0.583501 0 0)
(0.575202 0 0)
(0.566825 0 0)
(0.558371 0 0)
(0.549841 0 0)
(0.541236 0 0)
(0.532555 0 0)
(0.523801 0 0)
(0.514974 0 0)
(0.506074 0 0)
(0.497102 0 0)
(0.48806 0 0)
(0.478948 0 0)
(0.469767 0 0)
(0.460518 0 0)
(0.451202 0 0)
(0.44182 0 0)
(0.432374 0 0)
(0.422863 0 0)
(0.41329 0 0)
(0.403655 0 0)
(0.393959 0 0)
(0.384205 0 0)
(0.374392 0 0)
(0.364522 0 0)
(0.354597 0 0)
(0.344617 0 0)
(0.334584 0 0)
(0.3245 0 0)
(0.314365 0 0)
(0.304182 0 0)
(0.29395 0 0)
(0.283673 0 0)
(0.273351 0 0)
(0.262986 0 0)
(0.252579 0 0)
(0.242132 0 0)
(0.231647 0 0)
(0.221124 0 0)
(0.210566 0 0)
(0.199975 0 0)
(0.189351 0 0)
(0.178696 0 0)
(0.168012 0 0)
(0.157302 0 0)
(0.146565 0 0)
(0.135805 0 0)
(0.125023 0 0)
(0.11422 0 0)
(0.103399 0 0)
(0.0925602 0 0)
(0.0817066 0 0)
(0.0708396 0 0)
(0.0599609 0 0)
(0.0490724 0 0)
(0.0381758 0 0)
(0.0272729 0 0)
(0.0163656 0 0)
(0.00545549 0 0)
(-0.00545548 0 0)
(-0.0163656 0 0)
(-0.0272729 0 0)
(-0.0381758 0 0)
(-0.0490724 0 0)
(-0.0599609 0 0)
(-0.0708395 0 0)
(-0.0817065 0 0)
(-0.0925601 0 0)
(-0.103398 0 0)
(-0.11422 0 0)
(-0.125023 0 0)
(-0.135805 0 0)
(-0.146565 0 0)
(-0.157301 0 0)
(-0.168012 0 0)
(-0.178696 0 0)
(-0.18935 0 0)
(-0.199974 0 0)
(-0.210566 0 0)
(-0.221124 0 0)
(-0.231646 0 0)
(-0.242132 0 0)
(-0.252579 0 0)
(-0.262985 0 0)
(-0.273351 0 0)
(-0.283672 0 0)
(-0.29395 0 0)
(-0.304181 0 0)
(-0.314364 0 0)
(-0.324499 0 0)
(-0.334583 0 0)
(-0.344616 0 0)
(-0.354596 0 0)
(-0.364521 0 0)
(-0.374391 0 0)
(-0.384204 0 0)
(-0.393958 0 0)
(-0.403654 0 0)
(-0.413289 0 0)
(-0.422862 0 0)
(-0.432372 0 0)
(-0.441819 0 0)
(-0.451201 0 0)
(-0.460517 0 0)
(-0.469766 0 0)
(-0.478947 0 0)
(-0.488059 0 0)
(-0.497101 0 0)
(-0.506072 0 0)
(-0.514972 0 0)
(-0.5238 0 0)
(-0.532554 0 0)
(-0.541234 0 0)
(-0.54984 0 0)
(-0.55837 0 0)
(-0.566823 0 0)
(-0.5752 0 0)
(-0.583499 0 0)
(-0.59172 0 0)
(-0.599863 0 0)
(-0.607926 0 0)
(-0.615909 0 0)
(-0.623812 0 0)
(-0.631634 0 0)
(-0.639374 0 0)
(-0.647033 0 0)
(-0.654609 0 0)
(-0.662103 0 0)
(-0.669514 0 0)
(-0.676842 0 0)
(-0.684086 0 0)
(-0.691246 0 0)
(-0.698322 0 0)
(-0.705313 0 0)
(-0.71222 0 0)
(-0.719042 0 0)
(-0.725778 0 0)
(-0.73243 0 0)
(-0.738995 0 0)
(-0.745476 0 0)
(-0.75187 0 0)
(-0.758179 0 0)
(-0.764402 0 0)
(-0.770539 0 0)
(-0.77659 0 0)
(-0.782554 0 0)
(-0.788433 0 0)
(-0.794226 0 0)
(-0.799933 0 0)
(-0.805554 0 0)
(-0.811089 0 0)
(-0.816538 0 0)
(-0.821902 0 0)
(-0.827179 0 0)
(-0.832372 0 0)
(-0.837478 0 0)
(-0.8425 0 0)
(-0.847436 0 0)
(-0.852288 0 0)
(-0.857054 0 0)
(-0.861736 0 0)
(-0.866333 0 0)
(-0.870847 0 0)
(-0.875276 0 0)
(-0.879621 0 0)
(-0.883883 0 0)
(-0.888062 0 0)
(-0.892157 0 0)
(-0.89617 0 0)
(-0.9001 0 0)
(-0.903948 0 0)
(-0.907713 0 0)
(-0.911398 0 0)
(-0.915 0 0)
(-0.918522 0 0)
(-0.921963 0 0)
(-0.925323 0 0)
(-0.928604 0 0)
(-0.931804 0 0)
(-0.934925 0 0)
(-0.937967 0 0)
(-0.94093 0 0)
(-0.943815 0 0)
(-0.946622 0 0)
(-0.949351 0 0)
(-0.952002 0 0)
(-0.954577 0 0)
(-0.957075 0 0)
(-0.959496 0 0)
(-0.961842 0 0)
(-0.964113 0 0)
(-0.966308 0 0)
(-0.968429 0 0)
(-0.970475 0 0)
(-0.972448 0 0)
(-0.974347 0 0)
(-0.976173 0 0)
(-0.977926 0 0)
(-0.979607 0 0)
(-0.981216 0 0)
(-0.982753 0 0)
(-0.984219 0 0)
(-0.985615 0 0)
(-0.98694 0 0)
(-0.988196 0 0)
(-0.989382 0 0)
(-0.990499 0 0)
(-0.991547 0 0)
(-0.992528 0 0)
(-0.99344 0 0)
(-0.994285 0 0)
(-0.995063 0 0)
(-0.995775 0 0)
(-0.99642 0 0)
(-0.997 0 0)
(-0.997514 0 0)
(-0.997964 0 0)
(-0.998349 0 0)
(-0.99867 0 0)
(-0.998927 0 0)
(-0.999121 0 0)
(-0.999253 0 0)
(-0.999322 0 0)
(-0.999329 0 0)
(-0.999274 0 0)
(-0.999158 0 0)
(-0.998982 0 0)
(-0.998745 0 0)
(-0.998448 0 0)
(-0.998092 0 0)
(-0.997676 0 0)
(-0.997202 0 0)
(-0.996669 0 0)
(-0.996079 0 0)
(-0.995431 0 0)
(-0.994726 0 0)
(-0.993964 0 0)
(-0.993146 0 0)
(-0.992273 0 0)
(-0.991343 0 0)
(-0.990359 0 0)
(-0.989319 0 0)
(-0.988226 0 0)
(-0.987078 0 0)
(-0.985877 0 0)
(-0.984623 0 0)
(-0.983316 0 0)
(-0.981957 0 0)
(-0.980545 0 0)
(-0.979082 0 0)
(-0.977568 0 0)
(-0.976003 0 0)
(-0.974387 0 0)
(-0.972721 0 0)
(-0.971005 0 0)
(-0.96924 0 0)
(-0.967426 0 0)
(-0.965564 0 0)
(-0.963653 0 0)
(-0.961694 0 0)
(-0.959688 0 0)
(-0.957634 0 0)
(-0.955534 0 0)
(-0.953387 0 0)
(-0.951194 0 0)
(-0.948955 0 0)
(-0.946671 0 0)
(-0.944342 0 0)
(-0.941968 0 0)
(-0.939549 0 0)
(-0.937087 0 0)
(-0.934581 0 0)
(-0.932032 0 0)
(-0.929439 0 0)
(-0.926804 0 0)
(-0.924127 0 0)
(-0.921408 0 0)
(-0.918647 0 0)
(-0.915845 0 0)
(-0.913001 0 0)
(-0.910117 0 0)
(-0.907193 0 0)
(-0.904229 0 0)
(-0.901225 0 0)
(-0.898181 0 0)
(-0.895099 0 0)
(-0.891978 0 0)
(-0.888818 0 0)
(-0.885621 0 0)
(-0.882385 0 0)
(-0.879112 0 0)
(-0.875802 0 0)
(-0.872455 0 0)
(-0.869072 0 0)
(-0.865652 0 0)
(-0.862197 0 0)
(-0.858705 0 0)
(-0.855179 0 0)
(-0.851617 0 0)
(-0.84802 0 0)
(-0.84439 0 0)
(-0.840725 0 0)
(-0.837026 0 0)
(-0.833293 0 0)
(-0.829527 0 0)
(-0.825729 0 0)
(-0.821897 0 0)
(-0.818033 0 0)
(-0.814137 0 0)
(-0.810209 0 0)
(-0.806249 0 0)
(-0.802259 0 0)
(-0.798237 0 0)
(-0.794184 0 0)
(-0.790101 0 0)
(-0.785988 0 0)
(-0.781844 0 0)
(-0.777672 0 0)
(-0.773469 0 0)
(-0.769238 0 0)
(-0.764977 0 0)
(-0.760689 0 0)
(-0.756371 0 0)
(-0.752026 0 0)
(-0.747653 0 0)
(-0.743252 0 0)
(-0.738824 0 0)
(-0.734369 0 0)
(-0.729888 0 0)
(-0.725379 0 0)
(-0.720845 0 0)
(-0.716284 0 0)
(-0.711698 0 0)
(-0.707086 0 0)
(-0.702449 0 0)
(-0.697787 0 0)
(-0.6931 0 0)
(-0.688388 0 0)
(-0.683652 0 0)
(-0.678893 0 0)
(-0.674109 0 0)
(-0.669302 0 0)
(-0.664471 0 0)
(-0.659618 0 0)
(-0.654741 0 0)
(-0.649842 0 0)
(-0.644921 0 0)
(-0.639977 0 0)
(-0.635012 0 0)
(-0.630025 0 0)
(-0.625016 0 0)
(-0.619986 0 0)
(-0.614935 0 0)
(-0.609864 0 0)
(-0.604772 0 0)
(-0.599659 0 0)
(-0.594527 0 0)
(-0.589374 0 0)
(-0.584202 0 0)
(-0.579011 0 0)
(-0.5738 0 0)
(-0.568571 0 0)
(-0.563323 0 0)
(-0.558056 0 0)
(-0.552771 0 0)
(-0.547467 0 0)
(-0.542146 0 0)
(-0.536807 0 0)
(-0.531451 0 0)
(-0.526078 0 0)
(-0.520687 0 0)
(-0.51528 0 0)
(-0.509856 0 0)
(-0.504416 0 0)
(-0.498959 0 0)
(-0.493487 0 0)
(-0.487999 0 0)
(-0.482495 0 0)
(-0.476976 0 0)
(-0.471442 0 0)
(-0.465893 0 0)
(-0.460329 0 0)
(-0.45475 0 0)
(-0.449158 0 0)
(-0.443551 0 0)
(-0.43793 0 0)
(-0.432296 0 0)
(-0.426648 0 0)
(-0.420986 0 0)
(-0.415312 0 0)
(-0.409625 0 0)
(-0.403925 0 0)
(-0.398212 0 0)
(-0.392487 0 0)
(-0.38675 0 0)
(-0.381002 0 0)
(-0.375241 0 0)
(-0.369469 0 0)
(-0.363685 0 0)
(-0.357891 0 0)
(-0.352085 0 0)
(-0.346269 0 0)
(-0.340442 0 0)
(-0.334605 0 0)
(-0.328757 0 0)
(-0.3229 0 0)
(-0.317033 0 0)
(-0.311156 0 0)
(-0.30527 0 0)
(-0.299374 0 0)
(-0.29347 0 0)
(-0.287557 0 0)
(-0.281635 0 0)
(-0.275704 0 0)
(-0.269765 0 0)
(-0.263819 0 0)
(-0.257864 0 0)
(-0.251901 0 0)
(-0.245931 0 0)
(-0.239954 0 0)
(-0.23397 0 0)
(-0.227978 0 0)
(-0.22198 0 0)
(-0.215975 0 0)
(-0.209964 0 0)
(-0.203946 0 0)
(-0.197923 0 0)
(-0.191893 0 0)
(-0.185858 0 0)
(-0.179817 0 0)
(-0.173772 0 0)
(-0.16772 0 0)
(-0.161664 0 0)
(-0.155604 0 0)
(-0.149538 0 0)
(-0.143468 0 0)
(-0.137394 0 0)
(-0.131316 0 0)
(-0.125234 0 0)
(-0.119149 0 0)
(-0.113059 0 0)
(-0.106967 0 0)
(-0.100871 0 0)
(-0.0947728 0 0)
(-0.0886715 0 0)
(-0.0825675 0 0)
(-0.0764611 0 0)
(-0.0703525 0 0)
(-0.0642418 0 0)
(-0.0581292 0 0)
(-0.0520149 0 0)
(-0.0458991 0 0)
(-0.0397819 0 0)
(-0.0336636 0 0)
(-0.0275443 0 0)
(-0.0214242 0 0)
(-0.0153034 0 0)
(-0.00918224 0 0)
(-0.00306078 0 0)
)
;

boundaryField
{
    left
    {
        type            fixedValue;
        value           uniform (0 0 0);
    }
    right
    {
        type            fixedValue;
        value           uniform (0 0 0);
    }
    frontBackUpDown
    {
        type            empty;
    }
}


// ************************************************************************* //
