/*--------------------------------*- C++ -*----------------------------------*\
| =========                 |                                                 |
| \\      /  F ield         | OpenFOAM: The Open Source CFD Toolbox           |
|  \\    /   O peration     | Version:  2412                                  |
|   \\  /    A nd           | Website:  www.openfoam.com                      |
|    \\/     M anipulation  |                                                 |
\*---------------------------------------------------------------------------*/
FoamFile
{
    version     2.0;
    format      ascii;
    arch        "LSB;label=32;scalar=64";
    class       volVectorField;
    location    "0.09";
    object      U_0_0_0;
}
// * * * * * * * * * * * * * * * * * * * * * * * * * * * * * * * * * * * * * //

dimensions      [0 1 -1 0 0 0 0];

internalField   nonuniform List<vector> 
800
(
(0.00307199 0 0)
(0.00921602 0 0)
(0.0153598 0 0)
(0.0215031 0 0)
(0.0276458 0 0)
(0.0337877 0 0)
(0.0399285 0 0)
(0.0460682 0 0)
(0.0522065 0 0)
(0.0583432 0 0)
(0.0644783 0 0)
(0.0706114 0 0)
(0.0767424 0 0)
(0.0828712 0 0)
(0.0889974 0 0)
(0.0951211 0 0)
(0.101242 0 0)
(0.10736 0 0)
(0.113474 0 0)
(0.119586 0 0)
(0.125693 0 0)
(0.131797 0 0)
(0.137897 0 0)
(0.143993 0 0)
(0.150085 0 0)
(0.156172 0 0)
(0.162254 0 0)
(0.168332 0 0)
(0.174405 0 0)
(0.180472 0 0)
(0.186534 0 0)
(0.192591 0 0)
(0.198641 0 0)
(0.204686 0 0)
(0.210725 0 0)
(0.216757 0 0)
(0.222783 0 0)
(0.228802 0 0)
(0.234814 0 0)
(0.240819 0 0)
(0.246817 0 0)
(0.252807 0 0)
(0.25879 0 0)
(0.264764 0 0)
(0.270731 0 0)
(0.27669 0 0)
(0.28264 0 0)
(0.288582 0 0)
(0.294515 0 0)
(0.300438 0 0)
(0.306353 0 0)
(0.312258 0 0)
(0.318154 0 0)
(0.32404 0 0)
(0.329916 0 0)
(0.335782 0 0)
(0.341638 0 0)
(0.347483 0 0)
(0.353318 0 0)
(0.359141 0 0)
(0.364954 0 0)
(0.370755 0 0)
(0.376544 0 0)
(0.382322 0 0)
(0.388088 0 0)
(0.393842 0 0)
(0.399584 0 0)
(0.405313 0 0)
(0.41103 0 0)
(0.416733 0 0)
(0.422424 0 0)
(0.428101 0 0)
(0.433765 0 0)
(0.439415 0 0)
(0.445051 0 0)
(0.450673 0 0)
(0.45628 0 0)
(0.461874 0 0)
(0.467452 0 0)
(0.473016 0 0)
(0.478564 0 0)
(0.484097 0 0)
(0.489614 0 0)
(0.495116 0 0)
(0.500602 0 0)
(0.506071 0 0)
(0.511524 0 0)
(0.516961 0 0)
(0.522381 0 0)
(0.527783 0 0)
(0.533169 0 0)
(0.538537 0 0)
(0.543887 0 0)
(0.549219 0 0)
(0.554533 0 0)
(0.559829 0 0)
(0.565107 0 0)
(0.570365 0 0)
(0.575605 0 0)
(0.580825 0 0)
(0.586026 0 0)
(0.591207 0 0)
(0.596368 0 0)
(0.601509 0 0)
(0.60663 0 0)
(0.61173 0 0)
(0.61681 0 0)
(0.621868 0 0)
(0.626905 0 0)
(0.631921 0 0)
(0.636915 0 0)
(0.641887 0 0)
(0.646836 0 0)
(0.651764 0 0)
(0.656668 0 0)
(0.66155 0 0)
(0.666409 0 0)
(0.671244 0 0)
(0.676055 0 0)
(0.680843 0 0)
(0.685607 0 0)
(0.690346 0 0)
(0.695061 0 0)
(0.69975 0 0)
(0.704415 0 0)
(0.709055 0 0)
(0.713668 0 0)
(0.718256 0 0)
(0.722818 0 0)
(0.727354 0 0)
(0.731863 0 0)
(0.736345 0 0)
(0.7408 0 0)
(0.745227 0 0)
(0.749627 0 0)
(0.753999 0 0)
(0.758343 0 0)
(0.762659 0 0)
(0.766946 0 0)
(0.771204 0 0)
(0.775432 0 0)
(0.779631 0 0)
(0.783801 0 0)
(0.78794 0 0)
(0.79205 0 0)
(0.796128 0 0)
(0.800176 0 0)
(0.804193 0 0)
(0.808178 0 0)
(0.812132 0 0)
(0.816053 0 0)
(0.819943 0 0)
(0.8238 0 0)
(0.827624 0 0)
(0.831415 0 0)
(0.835173 0 0)
(0.838897 0 0)
(0.842587 0 0)
(0.846243 0 0)
(0.849864 0 0)
(0.85345 0 0)
(0.857002 0 0)
(0.860518 0 0)
(0.863998 0 0)
(0.867442 0 0)
(0.87085 0 0)
(0.874221 0 0)
(0.877555 0 0)
(0.880852 0 0)
(0.884112 0 0)
(0.887334 0 0)
(0.890517 0 0)
(0.893662 0 0)
(0.896768 0 0)
(0.899835 0 0)
(0.902863 0 0)
(0.905851 0 0)
(0.908799 0 0)
(0.911706 0 0)
(0.914573 0 0)
(0.917398 0 0)
(0.920183 0 0)
(0.922925 0 0)
(0.925626 0 0)
(0.928284 0 0)
(0.930899 0 0)
(0.933472 0 0)
(0.936001 0 0)
(0.938486 0 0)
(0.940927 0 0)
(0.943324 0 0)
(0.945676 0 0)
(0.947983 0 0)
(0.950244 0 0)
(0.95246 0 0)
(0.954629 0 0)
(0.956752 0 0)
(0.958829 0 0)
(0.960858 0 0)
(0.962839 0 0)
(0.964772 0 0)
(0.966658 0 0)
(0.968494 0 0)
(0.970282 0 0)
(0.97202 0 0)
(0.973708 0 0)
(0.975346 0 0)
(0.976934 0 0)
(0.978471 0 0)
(0.979957 0 0)
(0.981391 0 0)
(0.982773 0 0)
(0.984103 0 0)
(0.985379 0 0)
(0.986603 0 0)
(0.987774 0 0)
(0.98889 0 0)
(0.989952 0 0)
(0.99096 0 0)
(0.991912 0 0)
(0.992809 0 0)
(0.99365 0 0)
(0.994435 0 0)
(0.995164 0 0)
(0.995835 0 0)
(0.996449 0 0)
(0.997005 0 0)
(0.997503 0 0)
(0.997942 0 0)
(0.998322 0 0)
(0.998643 0 0)
(0.998904 0 0)
(0.999105 0 0)
(0.999246 0 0)
(0.999325 0 0)
(0.999343 0 0)
(0.999299 0 0)
(0.999193 0 0)
(0.999024 0 0)
(0.998792 0 0)
(0.998497 0 0)
(0.998138 0 0)
(0.997715 0 0)
(0.997227 0 0)
(0.996674 0 0)
(0.996055 0 0)
(0.995371 0 0)
(0.99462 0 0)
(0.993802 0 0)
(0.992918 0 0)
(0.991966 0 0)
(0.990946 0 0)
(0.989858 0 0)
(0.988701 0 0)
(0.987475 0 0)
(0.986179 0 0)
(0.984813 0 0)
(0.983378 0 0)
(0.981871 0 0)
(0.980293 0 0)
(0.978644 0 0)
(0.976923 0 0)
(0.975129 0 0)
(0.973263 0 0)
(0.971323 0 0)
(0.969311 0 0)
(0.967224 0 0)
(0.965063 0 0)
(0.962828 0 0)
(0.960517 0 0)
(0.958131 0 0)
(0.95567 0 0)
(0.953132 0 0)
(0.950518 0 0)
(0.947827 0 0)
(0.945059 0 0)
(0.942213 0 0)
(0.939289 0 0)
(0.936288 0 0)
(0.933207 0 0)
(0.930048 0 0)
(0.92681 0 0)
(0.923492 0 0)
(0.920094 0 0)
(0.916616 0 0)
(0.913058 0 0)
(0.909419 0 0)
(0.905699 0 0)
(0.901898 0 0)
(0.898015 0 0)
(0.89405 0 0)
(0.890003 0 0)
(0.885874 0 0)
(0.881663 0 0)
(0.877368 0 0)
(0.87299 0 0)
(0.86853 0 0)
(0.863985 0 0)
(0.859357 0 0)
(0.854646 0 0)
(0.84985 0 0)
(0.84497 0 0)
(0.840006 0 0)
(0.834957 0 0)
(0.829823 0 0)
(0.824605 0 0)
(0.819303 0 0)
(0.813915 0 0)
(0.808442 0 0)
(0.802885 0 0)
(0.797242 0 0)
(0.791514 0 0)
(0.785701 0 0)
(0.779803 0 0)
(0.773819 0 0)
(0.767751 0 0)
(0.761598 0 0)
(0.755359 0 0)
(0.749036 0 0)
(0.742628 0 0)
(0.736136 0 0)
(0.729558 0 0)
(0.722897 0 0)
(0.716151 0 0)
(0.709321 0 0)
(0.702408 0 0)
(0.69541 0 0)
(0.68833 0 0)
(0.681166 0 0)
(0.67392 0 0)
(0.666591 0 0)
(0.65918 0 0)
(0.651688 0 0)
(0.644114 0 0)
(0.636459 0 0)
(0.628723 0 0)
(0.620908 0 0)
(0.613013 0 0)
(0.605039 0 0)
(0.596986 0 0)
(0.588855 0 0)
(0.580647 0 0)
(0.572363 0 0)
(0.564001 0 0)
(0.555565 0 0)
(0.547053 0 0)
(0.538468 0 0)
(0.529809 0 0)
(0.521077 0 0)
(0.512274 0 0)
(0.503399 0 0)
(0.494454 0 0)
(0.48544 0 0)
(0.476358 0 0)
(0.467208 0 0)
(0.457991 0 0)
(0.448709 0 0)
(0.439362 0 0)
(0.429952 0 0)
(0.420479 0 0)
(0.410945 0 0)
(0.40135 0 0)
(0.391696 0 0)
(0.381984 0 0)
(0.372216 0 0)
(0.362391 0 0)
(0.352513 0 0)
(0.342581 0 0)
(0.332597 0 0)
(0.322563 0 0)
(0.31248 0 0)
(0.302349 0 0)
(0.292171 0 0)
(0.281949 0 0)
(0.271683 0 0)
(0.261374 0 0)
(0.251025 0 0)
(0.240637 0 0)
(0.230211 0 0)
(0.219749 0 0)
(0.209253 0 0)
(0.198723 0 0)
(0.188162 0 0)
(0.177571 0 0)
(0.166952 0 0)
(0.156307 0 0)
(0.145636 0 0)
(0.134943 0 0)
(0.124227 0 0)
(0.113492 0 0)
(0.102738 0 0)
(0.0919682 0 0)
(0.0811834 0 0)
(0.0703854 0 0)
(0.0595762 0 0)
(0.0487573 0 0)
(0.0379305 0 0)
(0.0270976 0 0)
(0.0162603 0 0)
(0.0054204 0 0)
(-0.00542039 0 0)
(-0.0162603 0 0)
(-0.0270976 0 0)
(-0.0379305 0 0)
(-0.0487572 0 0)
(-0.0595761 0 0)
(-0.0703854 0 0)
(-0.0811833 0 0)
(-0.0919681 0 0)
(-0.102738 0 0)
(-0.113492 0 0)
(-0.124227 0 0)
(-0.134942 0 0)
(-0.145636 0 0)
(-0.156307 0 0)
(-0.166952 0 0)
(-0.177571 0 0)
(-0.188162 0 0)
(-0.198723 0 0)
(-0.209252 0 0)
(-0.219749 0 0)
(-0.230211 0 0)
(-0.240637 0 0)
(-0.251025 0 0)
(-0.261374 0 0)
(-0.271682 0 0)
(-0.281948 0 0)
(-0.292171 0 0)
(-0.302348 0 0)
(-0.312479 0 0)
(-0.322563 0 0)
(-0.332597 0 0)
(-0.34258 0 0)
(-0.352512 0 0)
(-0.362391 0 0)
(-0.372215 0 0)
(-0.381983 0 0)
(-0.391695 0 0)
(-0.401349 0 0)
(-0.410944 0 0)
(-0.420478 0 0)
(-0.429951 0 0)
(-0.439361 0 0)
(-0.448708 0 0)
(-0.45799 0 0)
(-0.467207 0 0)
(-0.476357 0 0)
(-0.485439 0 0)
(-0.494453 0 0)
(-0.503398 0 0)
(-0.512272 0 0)
(-0.521076 0 0)
(-0.529807 0 0)
(-0.538466 0 0)
(-0.547052 0 0)
(-0.555563 0 0)
(-0.564 0 0)
(-0.572361 0 0)
(-0.580646 0 0)
(-0.588854 0 0)
(-0.596985 0 0)
(-0.605037 0 0)
(-0.613011 0 0)
(-0.620906 0 0)
(-0.628722 0 0)
(-0.636457 0 0)
(-0.644112 0 0)
(-0.651686 0 0)
(-0.659179 0 0)
(-0.666589 0 0)
(-0.673918 0 0)
(-0.681165 0 0)
(-0.688328 0 0)
(-0.695409 0 0)
(-0.702406 0 0)
(-0.709319 0 0)
(-0.716149 0 0)
(-0.722895 0 0)
(-0.729557 0 0)
(-0.736134 0 0)
(-0.742627 0 0)
(-0.749035 0 0)
(-0.755358 0 0)
(-0.761596 0 0)
(-0.76775 0 0)
(-0.773818 0 0)
(-0.779801 0 0)
(-0.785699 0 0)
(-0.791512 0 0)
(-0.79724 0 0)
(-0.802883 0 0)
(-0.808441 0 0)
(-0.813914 0 0)
(-0.819301 0 0)
(-0.824604 0 0)
(-0.829822 0 0)
(-0.834955 0 0)
(-0.840004 0 0)
(-0.844969 0 0)
(-0.849849 0 0)
(-0.854644 0 0)
(-0.859356 0 0)
(-0.863984 0 0)
(-0.868528 0 0)
(-0.872989 0 0)
(-0.877367 0 0)
(-0.881661 0 0)
(-0.885873 0 0)
(-0.890002 0 0)
(-0.894049 0 0)
(-0.898014 0 0)
(-0.901897 0 0)
(-0.905698 0 0)
(-0.909418 0 0)
(-0.913057 0 0)
(-0.916616 0 0)
(-0.920094 0 0)
(-0.923491 0 0)
(-0.926809 0 0)
(-0.930048 0 0)
(-0.933207 0 0)
(-0.936287 0 0)
(-0.939289 0 0)
(-0.942212 0 0)
(-0.945058 0 0)
(-0.947826 0 0)
(-0.950517 0 0)
(-0.953131 0 0)
(-0.955669 0 0)
(-0.958131 0 0)
(-0.960517 0 0)
(-0.962827 0 0)
(-0.965063 0 0)
(-0.967224 0 0)
(-0.96931 0 0)
(-0.971323 0 0)
(-0.973263 0 0)
(-0.975129 0 0)
(-0.976922 0 0)
(-0.978644 0 0)
(-0.980293 0 0)
(-0.981871 0 0)
(-0.983377 0 0)
(-0.984813 0 0)
(-0.986179 0 0)
(-0.987475 0 0)
(-0.988701 0 0)
(-0.989858 0 0)
(-0.990946 0 0)
(-0.991966 0 0)
(-0.992918 0 0)
(-0.993802 0 0)
(-0.99462 0 0)
(-0.995371 0 0)
(-0.996055 0 0)
(-0.996674 0 0)
(-0.997227 0 0)
(-0.997715 0 0)
(-0.998138 0 0)
(-0.998497 0 0)
(-0.998792 0 0)
(-0.999024 0 0)
(-0.999193 0 0)
(-0.999299 0 0)
(-0.999343 0 0)
(-0.999325 0 0)
(-0.999246 0 0)
(-0.999105 0 0)
(-0.998904 0 0)
(-0.998643 0 0)
(-0.998322 0 0)
(-0.997942 0 0)
(-0.997503 0 0)
(-0.997005 0 0)
(-0.996449 0 0)
(-0.995835 0 0)
(-0.995164 0 0)
(-0.994435 0 0)
(-0.99365 0 0)
(-0.992809 0 0)
(-0.991912 0 0)
(-0.99096 0 0)
(-0.989952 0 0)
(-0.98889 0 0)
(-0.987774 0 0)
(-0.986603 0 0)
(-0.985379 0 0)
(-0.984102 0 0)
(-0.982773 0 0)
(-0.981391 0 0)
(-0.979957 0 0)
(-0.978471 0 0)
(-0.976934 0 0)
(-0.975346 0 0)
(-0.973708 0 0)
(-0.97202 0 0)
(-0.970281 0 0)
(-0.968494 0 0)
(-0.966657 0 0)
(-0.964772 0 0)
(-0.962839 0 0)
(-0.960857 0 0)
(-0.958828 0 0)
(-0.956752 0 0)
(-0.954629 0 0)
(-0.952459 0 0)
(-0.950244 0 0)
(-0.947982 0 0)
(-0.945675 0 0)
(-0.943323 0 0)
(-0.940927 0 0)
(-0.938485 0 0)
(-0.936 0 0)
(-0.933471 0 0)
(-0.930899 0 0)
(-0.928283 0 0)
(-0.925625 0 0)
(-0.922925 0 0)
(-0.920182 0 0)
(-0.917398 0 0)
(-0.914572 0 0)
(-0.911705 0 0)
(-0.908798 0 0)
(-0.90585 0 0)
(-0.902862 0 0)
(-0.899835 0 0)
(-0.896768 0 0)
(-0.893661 0 0)
(-0.890516 0 0)
(-0.887333 0 0)
(-0.884111 0 0)
(-0.880852 0 0)
(-0.877555 0 0)
(-0.87422 0 0)
(-0.870849 0 0)
(-0.867441 0 0)
(-0.863997 0 0)
(-0.860517 0 0)
(-0.857001 0 0)
(-0.85345 0 0)
(-0.849863 0 0)
(-0.846242 0 0)
(-0.842586 0 0)
(-0.838896 0 0)
(-0.835172 0 0)
(-0.831414 0 0)
(-0.827623 0 0)
(-0.823799 0 0)
(-0.819942 0 0)
(-0.816052 0 0)
(-0.812131 0 0)
(-0.808177 0 0)
(-0.804192 0 0)
(-0.800175 0 0)
(-0.796127 0 0)
(-0.792049 0 0)
(-0.78794 0 0)
(-0.7838 0 0)
(-0.779631 0 0)
(-0.775431 0 0)
(-0.771203 0 0)
(-0.766945 0 0)
(-0.762658 0 0)
(-0.758342 0 0)
(-0.753998 0 0)
(-0.749626 0 0)
(-0.745226 0 0)
(-0.740799 0 0)
(-0.736344 0 0)
(-0.731862 0 0)
(-0.727353 0 0)
(-0.722817 0 0)
(-0.718255 0 0)
(-0.713667 0 0)
(-0.709054 0 0)
(-0.704414 0 0)
(-0.69975 0 0)
(-0.69506 0 0)
(-0.690345 0 0)
(-0.685606 0 0)
(-0.680842 0 0)
(-0.676054 0 0)
(-0.671243 0 0)
(-0.666408 0 0)
(-0.661549 0 0)
(-0.656667 0 0)
(-0.651763 0 0)
(-0.646835 0 0)
(-0.641886 0 0)
(-0.636914 0 0)
(-0.63192 0 0)
(-0.626904 0 0)
(-0.621867 0 0)
(-0.616809 0 0)
(-0.611729 0 0)
(-0.606629 0 0)
(-0.601508 0 0)
(-0.596367 0 0)
(-0.591206 0 0)
(-0.586025 0 0)
(-0.580824 0 0)
(-0.575604 0 0)
(-0.570364 0 0)
(-0.565106 0 0)
(-0.559828 0 0)
(-0.554533 0 0)
(-0.549218 0 0)
(-0.543886 0 0)
(-0.538536 0 0)
(-0.533168 0 0)
(-0.527783 0 0)
(-0.52238 0 0)
(-0.51696 0 0)
(-0.511524 0 0)
(-0.506071 0 0)
(-0.500601 0 0)
(-0.495115 0 0)
(-0.489614 0 0)
(-0.484096 0 0)
(-0.478563 0 0)
(-0.473015 0 0)
(-0.467451 0 0)
(-0.461873 0 0)
(-0.45628 0 0)
(-0.450672 0 0)
(-0.44505 0 0)
(-0.439414 0 0)
(-0.433764 0 0)
(-0.4281 0 0)
(-0.422423 0 0)
(-0.416733 0 0)
(-0.411029 0 0)
(-0.405313 0 0)
(-0.399584 0 0)
(-0.393842 0 0)
(-0.388088 0 0)
(-0.382322 0 0)
(-0.376544 0 0)
(-0.370754 0 0)
(-0.364953 0 0)
(-0.359141 0 0)
(-0.353317 0 0)
(-0.347483 0 0)
(-0.341638 0 0)
(-0.335782 0 0)
(-0.329916 0 0)
(-0.32404 0 0)
(-0.318154 0 0)
(-0.312258 0 0)
(-0.306353 0 0)
(-0.300438 0 0)
(-0.294514 0 0)
(-0.288581 0 0)
(-0.28264 0 0)
(-0.27669 0 0)
(-0.270731 0 0)
(-0.264764 0 0)
(-0.258789 0 0)
(-0.252807 0 0)
(-0.246816 0 0)
(-0.240819 0 0)
(-0.234814 0 0)
(-0.228801 0 0)
(-0.222782 0 0)
(-0.216757 0 0)
(-0.210724 0 0)
(-0.204686 0 0)
(-0.198641 0 0)
(-0.19259 0 0)
(-0.186534 0 0)
(-0.180472 0 0)
(-0.174405 0 0)
(-0.168332 0 0)
(-0.162254 0 0)
(-0.156172 0 0)
(-0.150085 0 0)
(-0.143993 0 0)
(-0.137897 0 0)
(-0.131797 0 0)
(-0.125693 0 0)
(-0.119586 0 0)
(-0.113474 0 0)
(-0.10736 0 0)
(-0.101242 0 0)
(-0.0951211 0 0)
(-0.0889974 0 0)
(-0.0828711 0 0)
(-0.0767424 0 0)
(-0.0706114 0 0)
(-0.0644783 0 0)
(-0.0583432 0 0)
(-0.0522065 0 0)
(-0.0460682 0 0)
(-0.0399285 0 0)
(-0.0337877 0 0)
(-0.0276458 0 0)
(-0.0215032 0 0)
(-0.0153599 0 0)
(-0.0092161 0 0)
(-0.00307206 0 0)
)
;

boundaryField
{
    left
    {
        type            fixedValue;
        value           uniform (0 0 0);
    }
    right
    {
        type            fixedValue;
        value           uniform (0 0 0);
    }
    frontBackUpDown
    {
        type            empty;
    }
}


// ************************************************************************* //
