/*--------------------------------*- C++ -*----------------------------------*\
| =========                 |                                                 |
| \\      /  F ield         | OpenFOAM: The Open Source CFD Toolbox           |
|  \\    /   O peration     | Version:  2412                                  |
|   \\  /    A nd           | Website:  www.openfoam.com                      |
|    \\/     M anipulation  |                                                 |
\*---------------------------------------------------------------------------*/
FoamFile
{
    version     2.0;
    format      ascii;
    arch        "LSB;label=32;scalar=64";
    class       volScalarField;
    location    "0.03";
    object      epsilon;
}
// * * * * * * * * * * * * * * * * * * * * * * * * * * * * * * * * * * * * * //

dimensions      [0 2 -3 0 0 0 0];

internalField   nonuniform List<scalar> 
12225
(
448.257
622.608
829.679
1003.12
1147.67
1266.26
1363.27
1442.7
1507.69
1560.77
1604
1639.01
1667.07
1689.12
1705.86
1717.64
1725.08
1731.89
173.754
302.028
402.91
479.793
538.722
584.796
620.916
649.282
671.602
689.144
702.869
713.53
721.717
727.895
732.462
735.659
738.227
737.285
119.456
232.426
315.504
376.186
421.014
454.785
480.273
499.477
513.915
524.701
532.662
538.431
542.502
545.27
547.072
548.185
549.058
548.867
97.6772
200.068
277.892
334.956
376.891
407.962
430.942
447.837
460.161
469.031
475.276
479.53
482.281
483.923
484.791
485.188
485.509
485.674
83.704
176.434
251.804
308.841
351.448
383.116
406.499
423.613
435.994
444.798
450.899
454.964
457.512
458.962
459.667
459.954
460.199
460.537
72.0557
154.164
226.635
284.274
328.764
362.514
387.816
406.584
420.336
430.251
437.246
442.03
445.163
447.099
448.219
448.87
449.404
449.993
61.4157
131.503
199.025
256.163
302.309
338.534
366.474
387.757
403.784
415.698
424.425
430.702
435.122
438.171
440.258
441.742
442.951
444.033
51.7437
108.962
168.93
223.31
269.682
307.74
338.234
362.301
381.075
395.573
406.663
415.068
421.391
426.132
429.715
432.504
434.801
436.716
43.2947
87.8706
138.134
187.043
231.318
269.581
301.654
328.028
349.435
366.645
380.382
391.296
399.949
406.826
412.343
416.854
420.632
423.743
36.2368
69.4467
109.05
150.198
189.781
225.937
257.788
285.185
308.38
327.804
343.954
357.33
368.398
377.584
385.262
391.751
397.288
401.889
30.5584
54.3163
83.6941
115.94
148.766
180.449
209.831
236.327
259.76
280.211
297.902
313.125
326.201
337.447
347.157
355.589
362.928
369.126
26.4292
43.3486
64.5933
88.7781
114.486
140.463
165.677
189.423
211.301
231.144
248.946
264.804
278.876
291.351
302.423
312.27
321.009
328.516
23.1875
34.871
49.5649
66.7076
85.5685
105.404
125.49
145.217
164.141
181.975
198.563
213.846
227.842
240.614
252.248
262.835
272.42
280.813
20.4147
27.7904
36.9411
47.7539
59.9635
73.2539
87.2609
101.612
115.979
130.094
143.759
156.839
169.249
180.952
191.937
202.208
211.737
220.288
18.1776
22.3093
27.2784
33.1323
39.8321
47.3053
55.4423
64.1006
73.1256
82.3682
91.6939
100.987
110.153
119.117
127.824
136.223
144.25
151.673
16.4898
18.4012
20.6065
23.156
26.0686
29.3525
33.0045
37.004
41.3166
45.8996
50.7056
55.6857
60.7916
65.9769
71.1964
76.3873
81.4979
86.3904
15.3392
15.897
16.5359
17.2742
18.1211
19.0847
20.1718
21.3861
22.7281
24.1951
25.7817
27.4802
29.2806
31.1713
33.141
35.192
37.3049
39.4289
14.7536
14.6816
14.646
14.6483
14.6875
14.7631
14.8763
15.029
15.2221
15.4566
15.7329
16.0514
16.4119
16.8134
17.2547
17.7342
18.2492
18.7899
14.8919
14.9611
15.068
15.2156
15.4036
15.6316
15.8993
16.2065
16.5519
16.9339
17.3503
17.7985
18.2755
18.7784
19.3037
19.8482
20.4075
20.9654
15.9555
17.2261
18.6671
20.303
22.1377
24.1683
26.3862
28.7741
31.3071
33.9562
36.6908
39.4801
42.2949
45.1082
47.8966
50.6395
53.3163
55.8797
18.024
21.9345
26.5749
31.9587
38.0188
44.6557
51.7437
59.1366
66.6848
74.2514
81.7186
88.9903
95.9924
102.671
108.991
114.931
120.477
125.591
21.5257
30.5534
41.7267
54.7077
68.9873
84.047
99.3799
114.532
129.147
142.973
155.854
167.705
178.501
188.256
197.013
204.832
211.779
217.901
27.1685
45.1579
67.4994
92.4513
118.369
143.973
168.295
190.706
210.892
228.768
244.391
257.902
269.488
279.353
287.698
294.715
300.581
305.455
35.6536
67.4934
105.311
144.35
181.647
215.586
245.372
270.844
292.232
309.944
324.444
336.189
345.604
353.066
358.902
363.39
366.768
369.263
47.3412
97.4051
151.633
202.078
246.021
282.838
312.822
336.767
355.613
370.247
381.446
389.869
396.061
400.467
403.449
405.299
406.258
406.559
61.8242
131.556
198.355
254.305
299.193
334.304
361.242
381.605
396.782
407.896
415.844
421.328
424.901
426.992
427.937
428.001
427.395
426.334
78.416
165.614
239.412
296.389
339.414
371.562
395.349
412.749
425.291
434.146
440.195
444.107
446.389
447.428
447.522
446.898
445.74
444.231
99.5677
200.888
279.378
337.72
380.373
411.758
434.891
451.832
464.125
472.923
479.074
483.207
485.795
487.199
487.695
487.498
486.774
485.69
144.774
258.32
348.686
417.772
468.772
507.21
536.513
558.889
576.007
589.11
599.108
606.681
612.352
616.524
619.511
621.563
622.869
623.629
366.933
498.677
667.174
809.155
925.224
1019.2
1095.05
1156.61
1206.83
1247.99
1281.86
1309.86
1333.1
1352.45
1368.63
1382.19
1393.56
1403.17
13.6013
13.0783
17.7353
21.1723
23.6517
25.3784
26.5367
27.3628
28.3869
30.085
32.3002
34.9456
37.9208
41.1185
44.4283
47.7797
51.1766
54.8116
59.3662
66.1629
74.2912
83.889
95.0459
107.814
122.173
138.033
155.248
173.639
193.009
213.16
233.905
255.072
276.508
298.081
319.678
341.204
362.584
383.754
404.665
425.278
445.564
465.499
485.068
504.257
523.059
541.467
559.479
577.094
594.313
611.139
627.581
643.65
659.364
674.749
689.841
704.69
719.365
733.958
748.591
763.334
777.741
791.833
805.637
819.166
832.425
845.413
858.127
870.561
882.707
894.554
906.087
917.287
928.13
938.586
948.621
958.191
967.245
975.722
983.553
990.657
996.94
1002.3
1006.61
1009.76
1011.59
1011.96
1010.69
1007.64
1002.61
995.44
985.967
974.04
959.537
942.385
922.614
900.52
877.24
856.469
843.572
832.909
820.345
805.295
787.734
767.792
745.667
721.597
695.842
668.672
640.363
611.183
581.393
551.237
520.941
490.711
460.734
431.175
402.18
373.879
346.386
319.795
294.155
269.447
245.692
223.245
202.395
183.105
165.418
149.383
135.027
122.339
111.269
101.727
93.5937
86.728
80.9789
76.1943
72.229
68.95
66.2396
63.9969
62.1388
60.6053
59.3729
58.4322
57.7039
57.1341
56.6857
56.3324
56.0554
55.8408
55.678
55.5589
55.4768
55.4266
55.404
55.4054
55.4277
55.4684
55.525
55.5955
55.6781
55.7711
55.8725
55.9809
56.0943
56.2109
56.3283
56.444
56.5548
56.6565
56.7438
56.8096
56.8441
56.8333
56.757
56.583
56.2669
55.7057
54.8505
53.0197
37.3011
22.4558
19.3355
18.827
19.5219
21.0248
23.2347
26.218
30.0057
34.5813
40.0502
46.579
54.2453
62.6155
71.7131
81.3945
91.4323
101.564
111.526
121.052
129.86
137.841
144.995
151.393
157.155
162.42
167.325
171.994
176.529
181.015
185.513
190.065
194.697
199.423
204.243
209.153
214.139
219.186
224.278
229.396
234.524
239.645
244.744
249.81
254.83
259.797
264.704
269.547
274.324
279.036
283.687
288.284
292.84
297.372
301.904
306.468
311.106
315.868
320.813
326.066
331.332
336.565
341.769
346.944
352.094
357.218
362.317
367.388
372.43
377.438
382.408
387.334
392.205
397.012
401.741
406.375
410.894
415.275
419.49
423.506
427.286
430.787
433.961
436.753
439.103
440.946
442.211
442.821
442.7
441.767
439.945
437.163
433.36
428.502
422.592
415.716
408.097
400.177
392.697
384.832
376.078
366.349
355.681
344.156
331.878
318.962
305.529
291.699
277.592
263.322
248.995
234.707
220.548
206.594
192.913
179.563
166.594
154.049
141.966
130.376
119.308
108.794
98.8898
89.7376
81.6077
74.2368
67.5231
61.4283
55.9244
50.9822
46.5665
42.6369
39.1494
36.0595
33.3251
30.9082
28.7756
26.8987
25.2527
23.8157
22.5675
21.4899
20.5667
19.782
19.118
18.5576
18.0855
17.6882
17.3543
17.0739
16.8388
16.6422
16.4783
16.3423
16.2304
16.1391
16.0657
16.008
15.9641
15.9323
15.9115
15.9006
15.8988
15.9057
15.9208
15.9443
15.9762
16.0173
16.0685
16.1316
16.2092
16.3053
16.4259
16.5807
16.7852
17.0659
17.4697
18.0869
19.0885
20.9604
63.0535
32.2984
26.9726
26.2145
27.3828
29.8606
33.5588
38.1878
43.6979
50.139
57.4711
65.5596
74.1672
82.9797
91.6927
100.003
107.645
114.424
120.241
125.098
129.091
132.39
135.202
137.738
140.184
142.691
145.368
148.283
151.466
154.92
158.622
162.533
166.607
170.793
175.04
179.304
183.546
187.735
191.851
195.877
199.806
203.634
207.363
210.999
214.548
218.019
221.424
224.775
228.083
231.363
234.628
237.893
241.174
244.486
247.845
251.268
254.769
258.36
262.05
265.811
269.587
273.368
277.151
280.937
284.728
288.526
292.332
296.146
299.97
303.804
307.645
311.491
315.339
319.184
323.018
326.831
330.612
334.346
338.014
341.593
345.057
348.374
351.506
354.411
357.041
359.341
361.251
362.705
363.633
363.962
363.617
362.526
360.621
357.845
354.159
349.548
344.023
337.86
331.176
323.774
315.559
306.53
296.742
286.275
275.226
263.699
251.803
239.646
227.332
214.96
202.62
190.395
178.357
166.568
155.081
143.939
133.178
122.827
112.908
103.439
94.4349
85.9116
77.8855
70.3774
63.4182
57.033
51.195
45.8743
41.0468
36.6891
32.7771
29.2848
26.1849
23.4489
21.0478
18.9529
17.136
15.5698
14.2278
13.0851
12.1179
11.304
10.623
10.0561
9.58609
9.19782
8.8779
8.61479
8.39871
8.22142
8.07608
7.95704
7.85967
7.78019
7.71552
7.66316
7.6211
7.58768
7.5616
7.54177
7.52736
7.51769
7.51223
7.5106
7.51255
7.51794
7.52678
7.53921
7.55557
7.57644
7.60276
7.63598
7.67833
7.73343
7.80714
7.90968
8.05967
8.29381
8.69224
9.43132
91.1943
43.7409
36.962
36.3271
38.0882
41.2979
45.4422
50.4721
56.3029
62.7925
69.7376
76.8829
83.9451
90.6516
96.7791
102.177
106.784
110.627
113.809
116.492
118.862
121.107
123.393
125.849
128.56
131.572
134.895
138.511
142.385
146.467
150.704
155.039
159.422
163.804
168.149
172.423
176.606
180.68
184.64
188.48
192.204
195.817
199.326
202.741
206.074
209.334
212.535
215.687
218.803
221.893
224.969
228.04
231.117
234.207
237.318
240.456
243.625
246.828
250.067
253.32
256.573
259.822
263.067
266.31
269.555
272.803
276.057
279.32
282.594
285.882
289.184
292.501
295.834
299.18
302.537
305.899
309.26
312.61
315.936
319.22
322.442
325.577
328.594
331.455
334.118
336.534
338.647
340.394
341.708
342.514
342.735
342.294
341.112
339.114
336.23
332.401
327.696
322.216
315.947
308.857
300.941
292.234
282.797
272.715
262.08
250.995
239.565
227.896
216.089
204.24
192.437
180.76
169.278
158.05
147.126
136.548
126.346
116.547
107.167
98.2215
89.7195
81.6685
74.0738
66.9401
60.2728
54.079
48.3661
43.1234
38.3368
33.9914
30.0709
26.5568
23.4284
20.663
18.2363
16.1225
14.2951
12.7273
11.3922
10.2636
9.31644
8.52684
7.87275
7.33401
6.89253
6.53232
6.23948
6.00211
5.81013
5.65511
5.53009
5.42935
5.34823
5.28297
5.23053
5.18849
5.15489
5.12818
5.10714
5.09078
5.07832
5.06915
5.06281
5.05892
5.05725
5.0576
5.05992
5.06419
5.07054
5.07921
5.09061
5.1054
5.12463
5.14996
5.18409
5.23163
5.30072
5.40698
5.58112
5.88248
118.923
56.4463
47.9846
47.2005
48.815
51.6826
55.4979
60.0563
65.1566
70.5788
76.0893
81.4608
86.497
91.0564
95.0683
98.5357
101.527
104.16
106.578
108.929
111.347
113.941
116.786
119.921
123.36
127.09
131.082
135.297
139.687
144.206
148.806
153.443
158.078
162.679
167.217
171.672
176.029
180.279
184.416
188.44
192.352
196.158
199.862
203.472
206.997
210.445
213.824
217.142
220.407
223.627
226.808
229.957
233.077
236.174
239.25
242.31
245.354
248.385
251.406
254.405
257.377
260.321
263.239
266.134
269.009
271.868
274.714
277.551
280.384
283.217
286.053
288.895
291.746
294.609
297.483
300.368
303.26
306.155
309.044
311.916
314.755
317.541
320.249
322.849
325.302
327.564
329.585
331.305
332.659
333.574
333.972
333.77
332.884
331.228
328.714
325.347
321.143
316.099
310.208
303.471
295.91
287.565
278.502
268.798
258.545
247.839
236.784
225.48
214.026
202.516
191.036
179.663
168.467
157.506
146.83
136.479
126.484
116.871
107.657
98.8555
90.4742
82.5187
74.9919
67.8955
61.2312
55.0019
49.2135
43.8661
38.953
34.4661
30.3953
26.728
23.4487
20.5389
17.9777
15.7416
13.8055
12.143
10.7272
9.53105
8.52837
7.69407
7.0047
6.43878
5.97692
5.60197
5.29898
5.0551
4.85943
4.70286
4.57782
4.47812
4.3987
4.33549
4.28521
4.24527
4.21358
4.18849
4.16871
4.15322
4.1412
4.13204
4.12525
4.12044
4.11735
4.11578
4.11559
4.11674
4.11923
4.12317
4.12875
4.13632
4.14645
4.16002
4.17849
4.20428
4.24151
4.29772
4.38602
4.52873
141.533
67.9966
57.8721
56.2026
57.2124
59.5388
62.6868
66.3726
70.3689
74.4709
78.4976
82.3063
85.8057
88.9629
91.8008
94.388
96.8227
99.215
101.672
104.284
107.12
110.223
113.614
117.293
121.245
125.442
129.851
134.435
139.155
143.972
148.849
153.753
158.653
163.524
168.343
173.093
177.761
182.336
186.812
191.186
195.456
199.623
203.688
207.656
211.529
215.311
219.008
222.623
226.16
229.622
233.013
236.334
239.589
242.779
245.904
248.968
251.969
254.912
257.798
260.622
263.383
266.081
268.72
271.303
273.834
276.317
278.758
281.162
283.534
285.88
288.206
290.518
292.821
295.12
297.419
299.72
302.025
304.333
306.641
308.941
311.224
313.476
315.678
317.805
319.826
321.704
323.392
324.838
325.979
326.748
327.068
326.855
326.023
324.479
322.197
319.139
315.281
310.604
305.101
298.776
291.654
283.774
275.195
265.989
256.24
246.037
235.476
224.651
213.657
202.58
191.505
180.505
169.646
158.987
148.575
138.451
128.647
119.188
110.092
101.374
93.0426
85.1039
77.5616
70.4188
63.6781
57.3435
51.4214
45.9143
40.8216
36.1412
31.869
27.9978
24.5174
21.4138
18.6697
16.2646
14.175
12.3757
10.8398
9.54
8.4491
7.5408
6.7902
6.17431
5.67223
5.26537
4.93744
4.67439
4.46426
4.29699
4.16421
4.05907
3.97595
3.91033
3.85857
3.81777
3.78564
3.76037
3.74052
3.72498
3.71287
3.70352
3.6964
3.69111
3.68734
3.68486
3.68351
3.68321
3.68391
3.68564
3.68849
3.69266
3.69847
3.70646
3.71748
3.73295
3.75519
3.7882
3.83832
3.91486
162.382
76.7134
64.4443
62.0776
62.6034
64.3878
66.8479
69.6807
72.6819
75.6986
78.6208
81.3832
83.9669
86.395
88.7231
91.0262
93.3855
95.8771
98.564
101.492
104.69
108.169
111.926
115.95
120.218
124.706
129.383
134.219
139.182
144.242
149.368
154.533
159.711
164.88
170.02
175.112
180.142
185.099
189.973
194.757
199.444
204.032
208.518
212.9
217.176
221.348
225.414
229.374
233.229
236.978
240.621
244.156
247.584
250.904
254.114
257.215
260.206
263.088
265.863
268.529
271.089
273.544
275.9
278.159
280.328
282.411
284.414
286.344
288.208
290.014
291.769
293.481
295.159
296.809
298.439
300.055
301.662
303.262
304.858
306.447
308.026
309.584
311.111
312.588
313.991
315.29
316.446
317.414
318.139
318.557
318.597
318.177
317.227
315.684
313.498
310.623
307.023
302.673
297.56
291.688
285.074
277.752
269.774
261.2
252.105
242.569
232.675
222.509
212.155
201.694
191.2
180.743
170.384
160.176
150.167
140.394
130.89
121.679
112.781
104.213
95.9832
88.1016
80.5742
73.4065
66.6044
60.175
54.1272
48.4649
43.1932
38.3161
33.8352
29.7493
26.0537
22.7395
19.7938
17.1994
14.9358
12.9791
11.3034
9.88132
8.68508
7.6873
6.86172
6.18376
5.63095
5.18313
4.82253
4.53374
4.30358
4.12092
3.9765
3.86266
3.77315
3.7029
3.64786
3.60477
3.57107
3.54473
3.52416
3.50812
3.49564
3.48598
3.47855
3.47291
3.46873
3.46574
3.46378
3.4627
3.46245
3.46299
3.46438
3.46671
3.47018
3.47513
3.4821
3.49198
3.50618
3.527
3.55782
3.60292
181.025
82.1632
67.9134
64.8933
64.9993
66.3463
68.279
70.4894
72.8036
75.1179
77.3774
79.567
81.7048
83.8332
86.0087
88.2921
90.7399
93.3988
96.303
99.4735
102.919
106.64
110.625
114.861
119.329
124.005
128.867
133.888
139.044
144.308
149.656
155.063
160.506
165.964
171.417
176.846
182.236
187.573
192.842
198.034
203.138
208.146
213.052
217.848
222.53
227.092
231.53
235.84
240.017
244.057
247.957
251.712
255.319
258.775
262.075
265.218
268.2
271.021
273.681
276.181
278.527
280.724
282.776
284.69
286.47
288.124
289.658
291.08
292.398
293.623
294.763
295.828
296.829
297.775
298.676
299.542
300.379
301.195
301.994
302.78
303.553
304.309
305.042
305.74
306.388
306.963
307.434
307.765
307.909
307.809
307.406
306.638
305.445
303.768
301.553
298.755
295.333
291.26
286.52
281.111
275.045
268.348
261.061
253.235
244.929
236.212
227.153
217.827
208.303
198.651
188.937
179.219
169.552
159.984
150.557
141.305
132.26
123.445
114.88
106.582
98.5639
90.8363
83.4087
76.2904
69.4909
63.0219
56.8949
51.1166
45.6984
40.6504
35.9806
31.6939
27.7915
24.2703
21.1225
18.3354
15.8916
13.77
11.9459
10.3927
9.08234
7.98676
7.07851
6.33158
5.72194
5.22783
4.82996
4.51149
4.25796
4.05712
3.8987
3.77421
3.67669
3.60051
3.5411
3.49486
3.4589
3.43096
3.40927
3.39243
3.37938
3.36929
3.36152
3.35557
3.35108
3.34775
3.34539
3.34385
3.34302
3.34286
3.34337
3.3446
3.34667
3.3498
3.35436
3.36091
3.37037
3.38416
3.40425
3.43279
192.107
84.4083
68.6383
65.0713
64.8515
65.9053
67.518
69.3747
71.32
73.2804
75.2324
77.1859
79.1728
81.2372
83.4275
85.7889
88.3597
91.1687
94.2348
97.5677
101.169
105.035
109.156
113.518
118.107
122.903
127.888
133.041
138.341
143.765
149.292
154.9
160.568
166.275
172
177.725
183.432
189.104
194.725
200.281
205.759
211.146
216.43
221.602
226.651
231.568
236.344
240.972
245.442
249.747
253.88
257.833
261.599
265.171
268.544
271.711
274.668
277.41
279.936
282.252
284.367
286.288
288.02
289.571
290.948
292.157
293.208
294.11
294.872
295.505
296.02
296.43
296.746
296.979
297.142
297.245
297.299
297.311
297.29
297.242
297.172
297.081
296.965
296.819
296.636
296.402
296.09
295.675
295.124
294.394
293.439
292.209
290.654
288.722
286.366
283.543
280.216
276.356
271.948
266.985
261.474
255.432
248.889
241.885
234.465
226.681
218.59
210.247
201.712
193.037
184.275
175.475
166.681
157.932
149.264
140.706
132.286
124.025
115.943
108.056
100.38
92.9266
85.7085
78.7386
72.0307
65.6015
59.4628
53.6286
48.1165
42.9425
38.1212
33.6639
29.5784
25.868
22.5306
19.5585
16.9389
14.6536
12.6804
10.9938
9.56621
8.36926
7.37464
6.55513
5.88528
5.34181
4.90394
4.55342
4.27447
4.05368
3.87977
3.74338
3.63681
3.55382
3.48936
3.43939
3.40071
3.37081
3.34771
3.32987
3.3161
3.30548
3.2973
3.29103
3.28626
3.28266
3.28001
3.27814
3.27693
3.27631
3.27626
3.27678
3.27794
3.27991
3.28291
3.28734
3.29383
3.3033
3.31698
3.33608
196.195
84.0243
67.2569
63.2784
62.8266
63.7125
65.1775
66.8949
68.7134
70.5699
72.4519
74.3766
76.3773
78.4942
80.7668
83.2302
85.9123
88.8329
92.0046
95.4333
99.1197
103.06
107.246
111.669
116.316
121.172
126.223
131.451
136.838
142.366
148.014
153.764
159.594
165.484
171.415
177.366
183.319
189.254
195.153
200.999
206.776
212.467
218.058
223.535
228.882
234.089
239.141
244.026
248.733
253.251
257.567
261.672
265.555
269.206
272.616
275.777
278.68
281.318
283.688
285.803
287.674
289.31
290.718
291.907
292.884
293.659
294.241
294.642
294.871
294.942
294.867
294.659
294.33
293.895
293.365
292.753
292.069
291.322
290.52
289.674
288.791
287.875
286.924
285.932
284.909
283.844
282.721
281.523
280.226
278.803
277.221
275.444
273.435
271.153
268.561
265.623
262.308
258.592
254.459
249.902
244.921
239.528
233.74
227.586
221.095
214.306
207.257
199.989
192.543
184.957
177.271
169.518
161.732
153.943
146.176
138.456
130.804
123.239
115.778
108.437
101.23
94.1711
87.2759
80.5596
74.04
67.7376
61.6656
55.8469
50.3043
45.0604
40.1359
35.5491
31.3147
27.4425
23.937
20.7963
18.0126
15.5717
13.4545
11.6373
10.0937
8.79545
7.71376
6.82054
6.08912
5.49489
5.01565
4.63179
4.32625
4.08448
3.89418
3.74512
3.62885
3.5385
3.46851
3.41442
3.37272
3.3406
3.31589
3.29689
3.28228
3.27105
3.26242
3.2558
3.25074
3.24689
3.244
3.24188
3.24039
3.23944
3.23899
3.23902
3.23957
3.24074
3.2427
3.24573
3.25026
3.25695
3.2666
3.27999
194.447
81.7101
64.4646
60.2169
59.6094
60.4099
61.8348
63.5451
65.3835
67.2836
69.2302
71.2366
73.3315
75.5488
77.9217
80.4794
83.2449
86.2353
89.4615
92.9298
96.6419
100.596
104.789
109.212
113.857
118.714
123.769
129.009
134.419
139.981
145.679
151.495
157.408
163.4
169.45
175.538
181.644
187.748
193.829
199.869
205.849
211.748
217.551
223.238
228.794
234.201
239.443
244.505
249.372
254.029
258.462
262.657
266.601
270.281
273.684
276.8
279.616
282.125
284.324
286.231
287.86
289.219
290.318
291.168
291.778
292.158
292.32
292.275
292.037
291.617
291.029
290.286
289.402
288.392
287.268
286.041
284.722
283.317
281.832
280.277
278.671
277.013
275.303
273.543
271.737
269.881
267.97
265.997
263.951
261.817
259.577
257.21
254.692
251.998
249.103
245.981
242.611
238.975
235.059
230.855
226.361
221.58
216.521
211.199
205.631
199.838
193.843
187.671
181.346
174.892
168.332
161.689
154.982
148.232
141.454
134.666
127.882
121.116
114.382
107.692
101.06
94.5004
88.0291
81.6634
75.4235
69.3305
63.4053
57.6758
52.1703
46.9171
41.9432
37.2739
32.9308
28.9307
25.2849
21.998
19.0675
16.4842
14.2326
12.2917
10.6367
9.24005
8.07302
7.10698
6.31432
5.66927
5.14839
4.73079
4.39823
4.13502
3.9279
3.76575
3.63941
3.54137
3.46557
3.40714
3.3622
3.3277
3.30125
3.28097
3.26544
3.25353
3.24441
3.23741
3.23205
3.22795
3.22484
3.2225
3.22078
3.21958
3.21883
3.21851
3.21862
3.21924
3.22047
3.22253
3.22574
3.23057
3.2376
3.24737
188.055
78.1001
60.8691
56.4922
55.7865
56.5429
57.9749
59.7358
61.6592
63.6686
65.7383
67.8721
70.0897
72.4181
74.8851
77.5165
80.3337
83.3536
86.5884
90.0462
93.7315
97.6458
101.788
106.154
110.739
115.534
120.528
125.711
131.069
136.589
142.255
148.05
153.956
159.955
166.026
172.149
178.304
184.469
190.624
196.748
202.819
208.817
214.722
220.513
226.171
231.677
237.011
242.156
247.095
251.808
256.281
260.496
264.438
268.091
271.442
274.476
277.179
279.539
281.566
283.276
284.683
285.798
286.632
287.196
287.501
287.56
287.384
286.987
286.383
285.583
284.601
283.448
282.136
280.685
279.105
277.405
275.592
273.674
271.656
269.546
267.35
265.073
262.717
260.286
257.785
255.216
252.584
249.889
247.132
244.312
241.426
238.467
235.429
232.301
229.073
225.732
222.267
218.667
214.922
211.024
206.967
202.748
198.366
193.824
189.125
184.276
179.286
174.164
168.92
163.564
158.107
152.558
146.928
141.224
135.456
129.63
123.756
117.839
111.89
105.918
99.933
93.9478
87.9774
82.0393
76.1542
70.3442
64.6379
59.0665
53.6627
48.4597
43.4909
38.7877
34.3787
30.2878
26.5332
23.1261
20.0702
17.3614
14.9885
12.9339
11.1749
9.68516
8.43659
7.40033
6.54816
5.85341
5.29155
4.84059
4.48116
4.19656
3.97256
3.79723
3.6607
3.55485
3.47312
3.41021
3.36193
3.32496
3.29667
3.27506
3.25854
3.24591
3.23625
3.22886
3.22319
3.21884
3.21551
3.21297
3.21105
3.20964
3.20866
3.20807
3.20786
3.20807
3.20878
3.21016
3.21245
3.21601
3.22128
3.22867
177.945
73.6877
56.9336
52.5639
51.8049
52.5309
53.9753
55.7924
57.809
59.9375
62.1394
64.4062
66.7466
69.1781
71.7235
74.4054
77.2448
80.2592
83.4628
86.8665
90.4779
94.3018
98.3405
102.594
107.062
111.734
116.6
121.652
126.881
132.276
137.823
143.506
149.309
155.214
161.201
167.252
173.345
179.46
185.574
191.666
197.713
203.694
209.587
215.37
221.022
226.521
231.846
236.978
241.896
246.582
251.017
255.183
259.063
262.64
265.899
268.823
271.399
273.611
275.483
277.03
278.262
279.192
279.832
280.193
280.288
280.13
279.731
279.106
278.268
277.228
276.001
274.596
273.026
271.302
269.432
267.423
265.28
263.008
260.608
258.084
255.439
252.677
249.8
246.814
243.725
240.542
237.275
233.935
230.535
227.086
223.6
220.088
216.558
213.018
209.47
205.918
202.357
198.785
195.194
191.574
187.916
184.208
180.441
176.605
172.692
168.695
164.611
160.437
156.171
151.813
147.364
142.824
138.193
133.472
128.661
123.762
118.775
113.701
108.544
103.307
97.9979
92.6249
87.2002
81.7388
76.26
70.7915
65.3631
60.008
54.7623
49.6637
44.7504
40.0599
35.6272
31.4831
27.6524
24.1532
20.9954
18.1805
15.7021
13.5461
11.6926
10.1172
8.79261
7.69019
6.78147
6.03915
5.43783
4.95455
4.56898
4.26345
4.02288
3.83456
3.68793
3.57431
3.48665
3.41926
3.36761
3.32812
3.29797
3.27498
3.25745
3.24408
3.23386
3.22605
3.22006
3.21545
3.21191
3.20918
3.20709
3.2055
3.20433
3.20353
3.20307
3.20297
3.20331
3.2042
3.20584
3.20852
3.21258
3.21836
164.57
68.8312
53.0046
48.7667
47.9882
48.6813
50.1199
51.9693
54.0544
56.2794
58.5949
60.9815
63.4365
65.9582
68.566
71.2801
74.1198
77.1032
80.2461
83.5616
87.0604
90.7502
94.6362
98.721
103.005
107.483
112.152
117.003
122.029
127.22
132.565
138.049
143.657
149.373
155.178
161.054
166.98
172.935
178.899
184.848
190.761
196.615
202.387
208.054
213.593
218.984
224.203
229.23
234.044
238.624
242.952
247.009
250.776
254.238
257.378
260.18
262.63
264.723
266.486
267.929
269.061
269.895
270.441
270.711
270.718
270.475
269.994
269.288
268.368
267.247
265.935
264.44
262.771
260.934
258.933
256.771
254.448
251.966
249.323
246.517
243.55
240.421
237.136
233.7
230.123
226.419
222.606
218.705
214.74
210.737
206.724
202.727
198.773
194.883
191.076
187.364
183.753
180.242
176.824
173.487
170.213
166.982
163.773
160.567
157.343
154.085
150.779
147.413
143.978
140.468
136.876
133.198
129.428
125.564
121.598
117.528
113.347
109.052
104.64
100.109
95.4598
90.6967
85.8264
80.858
75.816
70.7254
65.6154
60.52
55.4769
50.527
45.7128
41.0766
36.6592
32.4974
28.6229
25.0599
21.8247
18.9245
16.3576
14.1143
12.1777
10.5255
9.13173
7.96847
7.00724
6.22037
5.58185
5.06792
4.65741
4.33182
4.0753
3.87442
3.718
3.59681
3.50335
3.43155
3.37658
3.3346
3.3026
3.27823
3.25968
3.24555
3.23477
3.22653
3.22021
3.21535
3.2116
3.20869
3.20643
3.20469
3.20336
3.20238
3.20172
3.2014
3.20146
3.20199
3.20317
3.20522
3.20845
3.21311
149.72
64.8087
49.5873
45.4148
44.5949
45.2326
46.6355
48.4814
50.5963
52.8789
55.2696
57.7358
60.2626
62.8464
65.4953
68.2227
71.0447
73.9781
77.039
80.242
83.6
87.1233
90.8198
94.695
98.7514
102.989
107.406
111.997
116.757
121.678
126.749
131.959
137.294
142.739
148.277
153.891
159.56
165.266
170.986
176.7
182.385
188.018
193.578
199.04
204.383
209.584
214.621
219.472
224.116
228.534
232.706
236.614
240.241
243.571
246.589
249.279
251.624
253.651
255.37
256.785
257.908
258.746
259.309
259.61
259.658
259.464
259.041
258.397
257.543
256.487
255.234
253.792
252.162
250.346
248.343
246.151
243.765
241.182
238.395
235.402
232.199
228.787
225.17
221.358
217.365
213.212
208.926
204.538
200.087
195.614
191.161
186.774
182.494
178.355
174.389
170.615
167.043
163.67
160.486
157.469
154.593
151.826
149.137
146.492
143.864
141.226
138.559
135.844
133.071
130.23
127.313
124.314
121.229
118.05
114.771
111.385
107.883
104.256
100.496
96.5956
92.55
88.3562
84.0137
79.5288
74.9265
70.2264
65.455
60.6449
55.8345
51.0661
46.385
41.8375
37.4689
33.3216
29.433
25.8334
22.5449
19.5804
16.9431
14.6275
12.6202
10.9012
9.44637
8.2286
7.21981
6.39221
5.7194
5.17702
4.74324
4.39885
4.12729
3.91453
3.74879
3.62038
3.52136
3.44533
3.38714
3.34274
3.30893
3.28321
3.26366
3.24878
3.23745
3.22878
3.22214
3.21703
3.21307
3.20999
3.20759
3.2057
3.20423
3.20311
3.2023
3.2018
3.20165
3.20193
3.20278
3.20439
3.20701
3.2109
131.905
60.7065
46.5429
42.4975
41.6386
42.2012
43.5353
45.3362
47.4355
49.7302
52.1544
54.6662
57.2409
59.8667
62.5422
65.2734
68.0711
70.9487
73.9209
77.0025
80.2072
83.5474
87.0332
90.6726
94.4713
98.4322
102.556
106.842
111.285
115.88
120.62
125.493
130.49
135.595
140.795
146.073
151.411
156.79
162.191
167.592
172.973
178.312
183.587
188.775
193.854
198.803
203.601
208.225
212.656
216.875
220.863
224.604
228.082
231.282
234.193
236.804
239.104
241.132
242.886
244.368
245.583
246.537
247.237
247.691
247.907
247.894
247.658
247.207
246.545
245.675
244.601
243.32
241.832
240.13
238.209
236.061
233.677
231.048
228.166
225.024
221.62
217.955
214.037
209.88
205.506
200.945
196.234
191.421
186.557
181.701
176.912
172.25
167.769
163.518
159.531
155.831
152.425
149.304
146.446
143.819
141.382
139.091
136.899
134.765
132.651
130.525
128.363
126.148
123.866
121.511
119.079
116.567
113.972
111.29
108.518
105.648
102.67
99.5727
96.345
92.9743
89.4489
85.7584
81.8917
77.8664
73.6898
69.3765
64.9489
60.4371
55.8778
51.3138
46.7916
42.3601
38.0683
33.9631
30.0867
26.475
23.1556
20.1466
17.4561
15.0829
13.017
11.2414
9.73365
8.4679
7.4167
6.5524
5.84843
5.28002
4.8248
4.46298
4.17743
3.95355
3.77907
3.64385
3.53957
3.45951
3.39826
3.35155
3.316
3.28898
3.26846
3.25285
3.24097
3.2319
3.22494
3.21958
3.21543
3.21219
3.20964
3.20763
3.20604
3.2048
3.20387
3.20324
3.20294
3.20303
3.20363
3.20493
3.20713
3.21045
113.446
56.6859
44.0729
40.2825
39.4292
39.9305
41.1917
42.9305
44.9881
47.2642
49.691
52.2213
54.8237
57.4786
60.1765
62.916
65.7014
68.5416
71.4479
74.4331
77.5104
80.6924
83.9903
87.414
90.9711
94.6671
98.5053
102.487
106.61
110.872
115.267
119.788
124.424
129.166
133.999
138.91
143.882
148.898
153.941
158.991
164.028
169.033
173.983
178.86
183.641
188.306
192.835
197.208
201.407
205.413
209.211
212.785
216.121
219.209
222.039
224.601
226.922
229.011
230.863
232.477
233.854
234.995
235.905
236.587
237.044
237.28
237.299
237.099
236.683
236.046
235.185
234.093
232.761
231.179
229.335
227.215
224.806
222.098
219.081
215.748
212.099
208.14
203.884
199.355
194.585
189.616
184.502
179.305
174.095
168.947
163.937
159.137
154.613
150.417
146.584
143.131
140.054
137.332
134.925
132.784
130.851
129.067
127.372
125.716
124.053
122.348
120.577
118.723
116.779
114.741
112.613
110.398
108.102
105.726
103.271
100.734
98.1061
95.3773
92.5336
89.559
86.4368
83.1485
79.6855
76.0545
72.2537
68.2909
64.1832
59.9565
55.6449
51.2895
46.9369
42.637
38.4411
34.3992
30.5576
26.9564
23.628
20.5952
17.8705
15.4568
13.3473
11.5279
9.97803
8.67333
7.58712
6.69213
5.96178
5.37113
4.89743
4.52049
4.22271
3.98905
3.80685
3.66557
3.55659
3.47291
3.4089
3.36009
3.32296
3.29476
3.27334
3.25707
3.24469
3.23523
3.22799
3.2224
3.21807
3.21468
3.21201
3.20989
3.20821
3.20688
3.20585
3.20512
3.20471
3.20467
3.20511
3.20618
3.20808
3.211
95.5112
52.4617
41.9027
38.5754
37.8329
38.3392
39.5737
41.2834
43.3233
45.5987
48.0429
50.6068
53.2544
55.9606
58.7091
61.4919
64.3071
67.1581
70.052
72.9986
76.0088
79.0944
82.2666
85.5357
88.9106
92.3986
96.0049
99.7327
103.583
107.555
111.646
115.85
120.159
124.567
129.06
133.628
138.256
142.929
147.632
152.347
157.056
161.741
166.383
170.963
175.462
179.86
184.14
188.283
192.273
196.093
199.73
203.169
206.401
209.417
212.211
214.782
217.162
219.343
221.318
223.083
224.636
225.976
227.1
228.009
228.701
229.175
229.427
229.452
229.245
228.796
228.096
227.131
225.887
224.348
222.498
220.32
217.801
214.928
211.692
208.091
204.131
199.823
195.191
190.269
185.104
179.753
174.285