/*--------------------------------*- C++ -*----------------------------------*\
| =========                 |                                                 |
| \\      /  F ield         | OpenFOAM: The Open Source CFD Toolbox           |
|  \\    /   O peration     | Version:  2412                                  |
|   \\  /    A nd           | Website:  www.openfoam.com                      |
|    \\/     M anipulation  |                                                 |
\*---------------------------------------------------------------------------*/
FoamFile
{
    version     2.0;
    format      ascii;
    arch        "LSB;label=32;scalar=64";
    class       volScalarField;
    location    "0.03";
    object      k;
}
// * * * * * * * * * * * * * * * * * * * * * * * * * * * * * * * * * * * * * //

dimensions      [0 2 -2 0 0 0 0];

internalField   nonuniform List<scalar> 
12225
(
0.316797
0.394371
0.477565
0.541992
0.592877
0.633043
0.66497
0.690552
0.71113
0.727717
0.741088
0.751827
0.760376
0.767058
0.772113
0.775655
0.777884
0.779919
0.569145
0.788796
0.952267
1.06744
1.15039
1.21161
1.25679
1.29001
1.31428
1.33174
1.34396
1.35212
1.35712
1.35965
1.36028
1.35933
1.35796
1.35542
0.670093
0.972142
1.18309
1.3317
1.43894
1.51789
1.57599
1.61851
1.64937
1.67137
1.68662
1.69667
1.70273
1.70574
1.70648
1.70555
1.70404
1.70242
0.722194
1.0769
1.32664
1.50453
1.634
1.72958
1.80017
1.85206
1.8899
1.91708
1.93612
1.94894
1.95702
1.96151
1.9634
1.96352
1.96302
1.96281
0.742929
1.12957
1.41274
1.61875
1.77085
1.88403
1.96833
2.0309
2.07704
2.11067
2.13473
2.15149
2.16268
2.1697
2.17371
2.17576
2.17706
2.17858
0.740151
1.13836
1.44729
1.67938
1.85448
1.98672
2.08657
2.16179
2.21819
2.26014
2.29099
2.31332
2.32913
2.34005
2.34743
2.3525
2.35645
2.36018
0.719934
1.10962
1.43267
1.68587
1.88263
2.0346
2.1516
2.24149
2.31032
2.36278
2.40252
2.43239
2.45468
2.4712
2.4835
2.4929
2.50061
2.50733
0.688029
1.05147
1.37357
1.63897
1.853
2.0233
2.15779
2.26361
2.34666
2.41165
2.46239
2.50191
2.53267
2.55668
2.57562
2.5909
2.60366
2.61446
0.649437
0.973542
1.27867
1.54385
1.76705
1.95115
2.1011
2.22246
2.32032
2.39907
2.46238
2.51329
2.55435
2.58764
2.61493
2.63765
2.6569
2.67303
0.607986
0.885352
1.15973
1.41084
1.632
1.82192
1.98218
2.11607
2.22729
2.31941
2.39563
2.45877
2.51123
2.55508
2.59204
2.62353
2.65056
2.67325
0.566354
0.794633
1.02919
1.25393
1.4608
1.64598
1.80832
1.9487
2.06909
2.17184
2.25935
2.33389
2.39753
2.45212
2.49923
2.54014
2.57574
2.60588
0.529292
0.71341
0.907531
1.10013
1.28394
1.4546
1.60961
1.74817
1.87072
1.9784
2.07264
2.15503
2.2271
2.29032
2.34599
2.39519
2.43859
2.47571
0.495185
0.638539
0.792837
0.95052
1.10588
1.25503
1.39516
1.5246
1.64269
1.74951
1.84559
1.93175
2.00893
2.07811
2.14021
2.19602
2.24596
2.28922
0.461166
0.563297
0.675182
0.79287
0.912549
1.03136
1.14698
1.25759
1.36203
1.45965
1.55025
1.6339
1.7109
1.78165
1.84661
1.90618
1.96045
2.00827
0.429759
0.493706
0.564475
0.640913
0.721182
0.803647
0.886829
0.969382
1.05021
1.12848
1.20366
1.27537
1.34343
1.40778
1.46843
1.52539
1.57845
1.62625
0.403478
0.436082
0.472173
0.511904
0.554883
0.600612
0.648539
0.698035
0.748464
0.799248
0.849889
0.899973
0.949163
0.997189
1.04381
1.08865
1.13143
1.17106
0.38427
0.395016
0.407156
0.420907
0.436292
0.45329
0.47184
0.491825
0.513088
0.535447
0.558706
0.582668
0.607139
0.631932
0.656888
0.681984
0.706974
0.731238
0.374096
0.373812
0.374252
0.375439
0.377355
0.379982
0.383326
0.387395
0.392178
0.397656
0.403805
0.410591
0.417972
0.4259
0.434323
0.443184
0.452405
0.461791
0.376505
0.378712
0.381651
0.385364
0.389819
0.394974
0.400791
0.407221
0.414205
0.421677
0.429568
0.43781
0.446338
0.455087
0.464
0.47302
0.482076
0.490918
0.394694
0.417219
0.442015
0.469131
0.498264
0.529036
0.561049
0.593865
0.627041
0.660165
0.692886
0.724912
0.756008
0.786
0.814762
0.842212
0.868269
0.89266
0.427386
0.488185
0.554713
0.625682
0.699237
0.773727
0.847724
0.919986
0.989527
1.05565
1.11792
1.17608
1.23007
1.27992
1.32575
1.36774
1.40609
1.44085
0.47526
0.593848
0.721645
0.852954
0.982889
1.10814
1.22636
1.33599
1.43623
1.52692
1.6083
1.68087
1.74527
1.80219
1.85237
1.89649
1.93521
1.96905
0.536338
0.727475
0.926475
1.12044
1.30181
1.46697
1.61423
1.7434
1.85539
1.95169
2.034
2.10402
2.16335
2.21347
2.25569
2.29114
2.32081
2.34556
0.603673
0.8728
1.1381
1.3793
1.59027
1.77071
1.92236
2.04828
2.15204
2.23704
2.30635
2.36259
2.40799
2.44442
2.47345
2.49636
2.51422
2.52797
0.667929
1.00667
1.3147
1.57286
1.78389
1.9541
2.0899
2.19748
2.28229
2.3488
2.40062
2.44065
2.47121
2.49417
2.51102
2.52295
2.53094
2.53586
0.717021
1.09846
1.413
1.65729
1.84615
1.99171
2.10336
2.18868
2.25356
2.30252
2.33903
2.3658
2.3849
2.39798
2.40631
2.4109
2.41255
2.412
0.735545
1.1182
1.40673
1.6191
1.77691
1.89489
1.98311
2.04886
2.09752
2.13312
2.1587
2.17652
2.18833
2.19548
2.199
2.1997
2.19822
2.19514
0.708122
1.04702
1.29063
1.46552
1.59181
1.68448
1.75281
1.80299
1.83952
1.86576
1.88416
1.89654
1.90429
1.90846
1.90987
1.90915
1.9068
1.90327
0.616896
0.862623
1.0491
1.18303
1.27733
1.34573
1.3959
1.4326
1.45928
1.47847
1.49195
1.50106
1.50682
1.50998
1.51113
1.51074
1.50915
1.50676
0.333265
0.408896
0.496473
0.564624
0.617408
0.658542
0.690828
0.716484
0.737086
0.753757
0.76734
0.77848
0.787666
0.79528
0.801616
0.806913
0.811341
0.815074
0.0430051
0.0696296
0.0853548
0.096084
0.10347
0.108464
0.111746
0.114009
0.116603
0.120993
0.126678
0.133373
0.14079
0.148612
0.156531
0.164359
0.172071
0.18002
0.189484
0.203333
0.219565
0.238011
0.258633
0.281306
0.30579
0.331763
0.358859
0.386715
0.414994
0.443402
0.471695
0.499678
0.527198
0.554142
0.580428
0.606001
0.630825
0.654885
0.678174
0.700696
0.722463
0.743492
0.763801
0.783412
0.802348
0.82063
0.838282
0.855326
0.871784
0.88768
0.903038
0.917885
0.932251
0.946173
0.959693
0.972866
0.985758
0.998454
1.01106
1.02372
1.036
1.04792
1.0595
1.07076
1.08172
1.09238
1.10275
1.11282
1.12259
1.13207
1.14124
1.15009
1.15861
1.16678
1.17458
1.18198
1.18895
1.19544
1.2014
1.20677
1.2115
1.2155
1.21869
1.22097
1.22224
1.22238
1.22127
1.21877
1.21474
1.20905
1.20154
1.19209
1.18055
1.16684
1.15089
1.13281
1.11314
1.09401
1.08038
1.07112
1.06078
1.04836
1.0337
1.01684
0.997871
0.976946
0.954225
0.929884
0.904109
0.877087
0.849004
0.82004
0.790366
0.760145
0.729527
0.69865
0.667641
0.636617
0.605685
0.574946
0.544469
0.514251
0.48425
0.454631
0.426129
0.39873
0.372564
0.347817
0.324685
0.30334
0.28391
0.266463
0.251005
0.23748
0.225781
0.215758
0.207239
0.200038
0.193972
0.18887
0.18458
0.18098
0.178004
0.175657
0.173808
0.172328
0.171127
0.170143
0.169331
0.16866
0.168103
0.167643
0.167263
0.166953
0.166701
0.166501
0.166344
0.166224
0.166138
0.166079
0.166044
0.166029
0.16603
0.166043
0.166066
0.166092
0.166119
0.16614
0.16615
0.16614
0.1661
0.166016
0.165869
0.165631
0.165265
0.164707
0.163872
0.162558
0.160667
0.15685
0.0843751
0.134918
0.170997
0.196791
0.217703
0.236661
0.255552
0.275913
0.297561
0.319984
0.344633
0.372201
0.402549
0.433707
0.465447
0.497223
0.528422
0.558493
0.586999
0.613623
0.63815
0.660781
0.681912
0.702063
0.7218
0.741659
0.762108
0.783515
0.806138
0.830129
0.85554
0.882335
0.910408
0.939604
0.969731
1.00058
1.03195
1.06364
1.09547
1.12729
1.15896
1.19039
1.22148
1.25219
1.28248
1.31231
1.34169
1.3706
1.39905
1.42704
1.4546
1.48173
1.50845
1.53477
1.56073
1.58634
1.61163
1.63665
1.66143
1.68565
1.70964
1.73351
1.75729
1.78101
1.8047
1.82837
1.85204
1.87572
1.89943
1.92316
1.94693
1.97073
1.99454
2.01834
2.04211
2.06579
2.08935
2.11271
2.13577
2.15844
2.18059
2.20206
2.22268
2.24226
2.26055
2.2773
2.29223
2.30501
2.31531
2.32277
2.32702
2.32766
2.32433
2.31668
2.30441
2.28728
2.2652
2.23822
2.20797
2.17382
2.13505
2.09163
2.04374
1.99167
1.9358
1.87653
1.81433
1.74963
1.68291
1.61462
1.54519
1.47504
1.40454
1.33405
1.26387
1.19428
1.12553
1.05782
0.991354
0.926301
0.862824
0.801083
0.741217
0.68325
0.627145
0.574087
0.524552
0.478667
0.436471
0.397918
0.362896
0.331244
0.30277
0.277277
0.254567
0.234453
0.216758
0.201306
0.187925
0.176435
0.166653
0.158396
0.151482
0.145739
0.141
0.137109
0.133927
0.13133
0.129214
0.12749
0.126087
0.124944
0.124012
0.123251
0.12263
0.122121
0.121705
0.121364
0.121085
0.120858
0.120673
0.120524
0.120407
0.120316
0.120248
0.120203
0.120179
0.120176
0.120196
0.120241
0.120315
0.120427
0.120588
0.120818
0.121149
0.121641
0.122385
0.123639
0.125582
0.130591
0.119753
0.203811
0.255488
0.291339
0.321121
0.348872
0.377642
0.406715
0.436535
0.468087
0.501584
0.536568
0.572085
0.606997
0.640396
0.671601
0.700217
0.726184
0.749781
0.771591
0.792424
0.813224
0.83493
0.858373
0.884205
0.912864
0.944565
0.979308
1.01691
1.05704
1.09926
1.14306
1.18791
1.23331
1.27879
1.32394
1.36843
1.412
1.45447
1.49573
1.53571
1.57441
1.61184
1.64805
1.6831
1.71707
1.75004
1.78209
1.81331
1.84377
1.87356
1.90275
1.9314
1.9596
1.9874
2.01487
2.04206
2.06903
2.09582
2.12235
2.14868
2.17487
2.20092
2.22688
2.25276
2.2786
2.30443
2.33026
2.35613
2.38206
2.40805
2.43412
2.46028
2.48651
2.5128
2.53912
2.56542
2.59165
2.61772
2.64353
2.66894
2.69379
2.71789
2.74102
2.76292
2.78327
2.80175
2.81796
2.8315
2.84192
2.84874
2.85148
2.84963
2.84271
2.83026
2.81185
2.78709
2.75658
2.72072
2.67918
2.63179
2.57867
2.52006
2.45634
2.38796
2.31543
2.23929
2.16011
2.07846
1.9949
1.90997
1.82418
1.73799
1.65182
1.56607
1.48105
1.39707
1.31438
1.2332
1.15373
1.07615
1.00063
0.927333
0.856341
0.787731
0.721605
0.658675
0.599276
0.543628
0.491889
0.444156
0.400465
0.360798
0.325082
0.2932
0.264994
0.240268
0.218797
0.200332
0.184606
0.171341
0.160258
0.151083
0.143555
0.13743
0.132486
0.128525
0.125375
0.122886
0.120931
0.119405
0.11822
0.117306
0.116603
0.116067
0.11566
0.115351
0.115119
0.114945
0.114815
0.114717
0.114644
0.114588
0.114545
0.11451
0.114481
0.114456
0.114432
0.114409
0.114386
0.114363
0.114339
0.114317
0.114299
0.114292
0.114312
0.114381
0.114602
0.115018
0.11646
0.153034
0.278163
0.344369
0.389531
0.426631
0.460199
0.491129
0.521638
0.552812
0.584934
0.617696
0.650411
0.682248
0.712494
0.740734
0.766928
0.791403
0.814807
0.838006
0.861977
0.887683
0.915962
0.947449
0.982528
1.02132
1.06372
1.10941
1.15794
1.20874
1.26123
1.31478
1.36882
1.42282
1.47633
1.52896
1.58043
1.63052
1.67909
1.72604
1.77136
1.81505
1.85716
1.89774
1.93689
1.97468
2.01121
2.04658
2.08087
2.11418
2.14659
2.17818
2.20903
2.2392
2.26876
2.29777
2.32626
2.3543
2.38191
2.40914
2.43597
2.46245
2.4886
2.51448
2.54012
2.56554
2.59079
2.61591
2.64094
2.6659
2.69085
2.71581
2.74081
2.76587
2.79101
2.81624
2.84153
2.86688
2.89224
2.91755
2.94273
2.96766
2.99219
3.01616
3.03933
3.06145
3.08221
3.10127
3.11823
3.13263
3.14399
3.15179
3.15547
3.15445
3.14815
3.13598
3.11735
3.09225
3.0609
3.02319
2.97902
2.92838
2.87144
2.80847
2.73987
2.66611
2.58773
2.50532
2.41947
2.33081
2.23994
2.14745
2.05387
1.95973
1.86549
1.77156
1.67831
1.58606
1.49508
1.40561
1.31788
1.23205
1.14832
1.06684
0.98775
0.911203
0.837361
0.766508
0.69911
0.635426
0.57569
0.520092
0.468769
0.421798
0.379192
0.340901
0.306812
0.27676
0.250523
0.227845
0.208433
0.191977
0.17816
0.166662
0.157179
0.149422
0.143129
0.138061
0.134009
0.130791
0.128253
0.126262
0.124711
0.123508
0.122581
0.12187
0.121327
0.120914
0.120602
0.120366
0.120187
0.120051
0.119947
0.119866
0.1198
0.119746
0.119699
0.119655
0.119613
0.119571
0.119527
0.119481
0.119432
0.11938
0.119326
0.119274
0.119233
0.119213
0.119262
0.119387
0.119848
0.18273
0.347422
0.429538
0.484213
0.525222
0.558669
0.588631
0.617253
0.645553
0.673813
0.701866
0.729349
0.75594
0.781527
0.806299
0.830741
0.855567
0.881621
0.909752
0.940717
0.975096
1.01325
1.05529
1.10113
1.15047
1.2029
1.2579
1.31489
1.37331
1.43258
1.49219
1.55165
1.61056
1.66856
1.72539
1.78081
1.83469
1.88692
1.93744
1.98623
2.03332
2.07872
2.12251
2.16474
2.20549
2.24483
2.28285
2.31961
2.3552
2.38968
2.42311
2.45555
2.48707
2.5177
2.54748
2.57647
2.60469
2.63218
2.65898
2.68512
2.71064
2.73558
2.76001
2.78394
2.80744
2.83055
2.85332
2.8758
2.89804
2.92009
2.94201
2.96384
2.98564
3.00743
3.02925
3.05113
3.07306
3.09503
3.11703
3.13899
3.16084
3.18245
3.2037
3.22438
3.24426
3.26307
3.28047
3.29606
3.30942
3.32004
3.32738
3.33086
3.32984
3.32367
3.31169
3.29359
3.26923
3.23844
3.20107
3.15702
3.10632
3.04913
2.98569
2.91639
2.84168
2.76208
2.67817
2.59054
2.4998
2.40656
2.31142
2.21492
2.1176
2.01991
1.92229
1.82512
1.72872
1.63338
1.53936
1.44687
1.35611
1.26725
1.18048
1.09596
1.01387
0.934436
0.857901
0.784651
0.714992
0.649219
0.587593
0.53033
0.477587
0.429454
0.385943
0.346997
0.312483
0.282202
0.255901
0.233282
0.214017
0.197761
0.184168
0.172897
0.163629
0.156066
0.149938
0.145007
0.141064
0.13793
0.135453
0.133506
0.131982
0.130794
0.129873
0.12916
0.12861
0.128187
0.12786
0.127608
0.127411
0.127257
0.127134
0.127034
0.12695
0.126876
0.12681
0.126747
0.126686
0.126624
0.126561
0.126496
0.126427
0.126357
0.126286
0.12622
0.126169
0.126159
0.126196
0.126398
0.205366
0.406465
0.501705
0.561235
0.604088
0.637767
0.666372
0.692287
0.716858
0.740766
0.764313
0.787654
0.810988
0.83466
0.859189
0.885221
0.913455
0.944543
0.97902
1.01724
1.05938
1.1054
1.1551
1.20816
1.26415
1.3226
1.383
1.44483
1.50761
1.57086
1.63417
1.69714
1.75945
1.82081
1.88099
1.9398
1.9971
2.05279
2.10679
2.15908
2.20964
2.25848
2.30563
2.35112
2.39499
2.4373
2.4781
2.51743
2.55535
2.59189
2.62711
2.66105
2.69373
2.7252
2.75548
2.78459
2.81258
2.83947
2.86529
2.89009
2.91393
2.93687
2.95896
2.98025
3.00079
3.02065
3.03987
3.05853
3.0767
3.09443
3.11181
3.12889
3.14576
3.16248
3.17911
3.1957
3.21229
3.22891
3.24557
3.26226
3.27893
3.29553
3.31196
3.32806
3.34366
3.35852
3.37233
3.38477
3.3954
3.40376
3.40931
3.41145
3.40956
3.40293
3.39115
3.37381
3.3506
3.32124
3.28553
3.24335
3.1947
3.13967
3.07848
3.01145
2.93899
2.86156
2.77969
2.69394
2.60488
2.51308
2.4191
2.32346
2.22667
2.12919
2.03142
1.93374
1.83646
1.73988
1.64425
1.54978
1.45668
1.36513
1.27531
1.18743
1.1017
1.01835
0.937699
0.86005
0.785756
0.715169
0.648619
0.586398
0.528741
0.475818
0.427716
0.384437
0.345898
0.311936
0.282314
0.256738
0.234872
0.216355
0.200814
0.187883
0.177209
0.168464
0.16135
0.155601
0.150983
0.147294
0.144362
0.142043
0.140217
0.138785
0.137664
0.13679
0.13611
0.13558
0.135167
0.134844
0.13459
0.134388
0.134226
0.134093
0.133981
0.133884
0.133797
0.133717
0.13364
0.133565
0.133489
0.133411
0.133331
0.133248
0.133164
0.133082
0.13301
0.132963
0.132948
0.133034
0.224532
0.445756
0.549189
0.614031
0.659854
0.694616
0.722753
0.747007
0.769149
0.790344
0.811393
0.83291
0.855458
0.879612
0.905962
0.93508
0.96746
1.00348
1.04335
1.08714
1.13475
1.18597
1.24048
1.2979
1.35782
1.4198
1.48338
1.54816
1.6137
1.67963
1.74558
1.81124
1.8763
1.94052
2.00367
2.06558
2.12608
2.18507
2.24245
2.29815
2.35214
2.40438
2.45487
2.5036
2.55059
2.59585
2.6394
2.68126
2.72146
2.76001
2.79693
2.83223
2.86595
2.89808
2.92864
2.95765
2.98513
3.01108
3.03555
3.05857
3.08024
3.10061
3.11976
3.13773
3.15459
3.17041
3.18525
3.19919
3.21231
3.22471
3.23646
3.24766
3.2584
3.26879
3.27891
3.28884
3.29866
3.30844
3.31823
3.32807
3.33797
3.34791
3.35785
3.36771
3.37735
3.38661
3.39524
3.40295
3.40939
3.41411
3.41662
3.41634
3.41269
3.40514
3.3932
3.37645
3.35448
3.32697
3.29367
3.25441
3.20915
3.15793
3.10088
3.03827
2.97042
2.89773
2.82064
2.73965
2.65525
2.56794
2.47823
2.38658
2.29345
2.19924
2.10433
2.00907
1.91374
1.81863
1.72397
1.62996
1.53682
1.44473
1.35389
1.26451
1.17683
1.09114
1.00776
0.926976
0.849199
0.774832
0.704272
0.637889
0.576001
0.518862
0.46664
0.419411
0.377155
0.339754
0.307003
0.278624
0.254283
0.233607
0.216207
0.20169
0.189676
0.179808
0.17176
0.165238
0.159983
0.155773
0.152417
0.149753
0.147647
0.145988
0.144685
0.143663
0.142863
0.142237
0.141747
0.141361
0.141056
0.140813
0.140617
0.140455
0.14032
0.140204
0.140101
0.140007
0.139918
0.139833
0.139748
0.139662
0.139574
0.139483
0.13939
0.139298
0.139212
0.139142
0.139094
0.139116
0.241639
0.466401
0.574986
0.643807
0.692542
0.729159
0.758176
0.78253
0.804289
0.82498
0.845764
0.867562
0.891135
0.917129
0.946087
0.978436
1.01447
1.05436
1.09811
1.14563
1.19672
1.25111
1.30846
1.36842
1.43062
1.49468
1.56021
1.62686
1.69428
1.76212
1.83008
1.89786
1.96521
2.03186
2.09761
2.16227
2.22568
2.28768
2.34816
2.40703
2.4642
2.51962
2.57324
2.62502
2.67494
2.72297
2.76911
2.81334
2.85566
2.89606
2.93452
2.97106
3.00564
3.03828
3.06896
3.09768
3.12443
3.14922
3.17206
3.19301
3.21218
3.22963
3.24544
3.25967
3.2724
3.2837
3.29364
3.30231
3.30981
3.31624
3.3217
3.32632
3.33021
3.33349
3.33627
3.33868
3.34083
3.34281
3.34474
3.34668
3.3487
3.35085
3.35313
3.35552
3.35798
3.36038
3.36256
3.3643
3.36531
3.36522
3.36357
3.35991
3.35374
3.34456
3.33191
3.31532
3.2944
3.26877
3.23816
3.20236
3.16126
3.11485
3.0632
3.00647
2.94492
2.87885
2.8086
2.73457
2.65717
2.5768
2.49387
2.40877
2.32188
2.23354
2.14407
2.05375
1.96285
1.87159
1.7802
1.68887
1.59779
1.50715
1.41715
1.32801
1.24
1.15344
1.06865
0.985956
0.905795
0.828635
0.75494
0.685156
0.619689
0.558878
0.502982
0.452161
0.406468
0.365843
0.330128
0.299072
0.272351
0.249592
0.230393
0.21434
0.20103
0.190078
0.18113
0.173866
0.168003
0.163298
0.159539
0.156549
0.154181
0.152311
0.150838
0.149681
0.148773
0.14806
0.147499
0.147058
0.146708
0.146428
0.146203
0.146018
0.145864
0.145732
0.145617
0.145513
0.145416
0.145323
0.145232
0.145141
0.145049
0.144954
0.144857
0.14476
0.144667
0.144584
0.144518
0.144508
0.251581
0.471678
0.582066
0.653296
0.704586
0.743604
0.774702
0.800795
0.824045
0.846139
0.86842
0.891956
0.91759
0.94597
0.977573
1.01272
1.05157
1.09418
1.14047
1.1903
1.24342
1.29958
1.35848
1.4198
1.48323
1.54843
1.61508
1.68287
1.7515
1.82066
1.89007
1.95947
2.02859
2.09721
2.16509
2.23205
2.29789
2.36246
2.42561
2.48721
2.54716
2.60536
2.66172
2.71618
2.76868
2.81916
2.86758
2.91389
2.95807
3.00006
3.03985
3.07738
3.11264
3.1456
3.17621
3.20447
3.23033
3.25379
3.27483
3.29354
3.31003
3.32438
3.33668
3.347
3.35541
3.36199
3.36683
3.37003
3.3717
3.37195
3.3709
3.36869
3.36546
3.36135
3.35651
3.35107
3.34518
3.33898
3.3326
3.32616
3.31979
3.31357
3.30756
3.30178
3.2963
3.29106
3.28595
3.28083
3.27553
3.26973
3.26311
3.25527
3.2458
3.23427
3.22024
3.20327
3.18296
3.15895
3.13093
3.09868
3.06203
3.02092
2.97534
2.92538
2.87119
2.81297
2.75096
2.68545
2.61673
2.5451
2.47085
2.39429
2.31568
2.23528
2.15334
2.07007
1.98567
1.90033
1.81422
1.72751
1.64037
1.55297
1.46552
1.37824
1.29142
1.2054
1.12048
1.03704
0.955572
0.876596
0.800639
0.728223
0.659838
0.595917
0.536811
0.482773
0.433937
0.390317
0.35181
0.318204
0.289198
0.264427
0.243482
0.225937
0.211365
0.199358
0.189535
0.181552
0.175103
0.16992
0.165776
0.162476
0.159859
0.15779
0.156158
0.154874
0.153865
0.153072
0.152448
0.151956
0.151566
0.151255
0.151005
0.1508
0.15063
0.150486
0.150361
0.150249
0.150147
0.15005
0.149956
0.149863
0.149769
0.149673
0.149576
0.149479
0.149383
0.149297
0.149225
0.1492
0.255264
0.464808
0.574314
0.646553
0.699887
0.741506
0.77543
0.804376
0.830409
0.855195
0.880092
0.906194
0.934351
0.965194
0.999158
1.03651
1.07736
1.12173
1.16952
1.22057
1.2747
1.33165
1.39118
1.45301
1.51688
1.58251
1.64961
1.71791
1.78714
1.85703
1.92731
1.99775
2.06808
2.13807
2.2075
2.27616
2.34386
2.41041
2.47564
2.5394
2.60155
2.66197
2.72055
2.77717
2.83175
2.88421
2.93447
2.98246
3.02811
3.07135
3.11213
3.15039
3.18607
3.21912
3.24948
3.2771
3.30194
3.32396
3.3431
3.3595
3.37329
3.38455
3.39336
3.39981
3.40397
3.40593
3.4058
3.40367
3.39966
3.39391
3.38654
3.3777
3.36755
3.35627
3.34401
3.33094
3.31722
3.30299
3.28843
3.2737
3.25899
3.24441
3.23005
3.21595
3.20232
3.18919
3.17648
3.16414
3.15205
3.14003
3.12784
3.1152
3.10179
3.08725
3.07118
3.05322
3.03299
3.01015
2.98439
2.95545
2.92316
2.88738
2.84806
2.80519
2.75884
2.70909
2.65608
2.59998
2.54095
2.47919
2.41486
2.34816
2.27926
2.2083
2.13543
2.0608
1.98453
1.90674
1.82755
1.74708
1.66547
1.58288
1.49949
1.41552
1.33126
1.24706
1.1632
1.08015
0.99842
0.918586
0.841236
0.766962
0.696339
0.629891
0.568068
0.511216
0.459563
0.413203
0.372099
0.336089
0.304907
0.278203
0.255571
0.236578
0.220778
0.207744
0.19707
0.188388
0.181369
0.175724
0.171208
0.16761
0.164755
0.162496
0.160714
0.159311
0.158207
0.15734
0.156658
0.156119
0.155693
0.155354
0.155081
0.154859
0.154676
0.154522
0.154389
0.154272
0.154165
0.154066
0.153971
0.153878
0.153785
0.153692
0.153597
0.153502
0.15341
0.153327
0.153257
0.15323
0.253829
0.449097
0.555847
0.627996
0.682789
0.726873
0.76386
0.796162
0.825624
0.853755
0.881814
0.910828
0.941608
0.974761
1.0107
1.04969
1.09185
1.1372
1.18567
1.23715
1.29147
1.34845
1.40788
1.46953
1.53317
1.59857
1.66548
1.73366
1.80286
1.87285
1.94337
2.01418
2.08504
2.15574
2.22602
2.29569
2.36453
2.43234
2.49894
2.56415
2.62782
2.68978
2.74991
2.80806
2.86412
2.91798
2.96953
3.01868
3.06533
3.1094
3.15079
3.18943
3.22523
3.25812
3.28802
3.31486
3.33855
3.35904
3.3763
3.39048
3.40169
3.41002
3.41557
3.41841
3.41864
3.41636
3.41166
3.40466
3.39549
3.38427
3.37116
3.3563
3.33987
3.32207
3.30308
3.28307
3.2622
3.24065
3.21855
3.19611
3.17365
3.15127
3.12909
3.10724
3.08586
3.06505
3.04486
3.0253
3.00635
2.98794
2.96994
2.95217
2.9344
2.91637
2.89778
2.87831
2.85764
2.83546
2.81148
2.78545
2.75716
2.72643
2.69315
2.65723
2.61866
2.57741
2.53354
2.48706
2.43806
2.3866
2.33273
2.27653
2.21807
2.15738
2.09452
2.02954
1.96247
1.89337
1.82229
1.74929
1.67446
1.59792
1.51982
1.44038
1.35986
1.27859
1.19689
1.11526
1.03426
0.954479
0.876577
0.80121
0.729032
0.660657
0.59663
0.537398
0.483283
0.434467
0.390989
0.352747
0.319517
0.290976
0.266729
0.246339
0.229353
0.215322
0.203821
0.19446
0.186888
0.180796
0.175921
0.172035
0.168951
0.166511
0.164585
0.163069
0.161876
0.160939
0.160202
0.159621
0.159161
0.158796
0.158503
0.158266
0.158071
0.157909
0.15777
0.157649
0.15754
0.15744
0.157345
0.157253
0.157163
0.157073
0.156983
0.156894
0.156809
0.156732
0.156671
0.156648
0.248285
0.42744
0.530347
0.601652
0.657342
0.703524
0.743402
0.779055
0.81205
0.843671
0.875001
0.906948
0.940246
0.975462
1.01301
1.05315
1.09605
1.14176
1.19028
1.24152
1.29539
1.35174
1.41041
1.47124
1.53403
1.59856
1.66463
1.73203
1.80052
1.8699
1.93994
2.01039
2.08105
2.15166
2.22202
2.2919
2.36108
2.42936
2.49653
2.5624
2.62679
2.68953
2.75046
2.80943
2.86628
2.92088
2.97312
3.02285
3.06998
3.11438
3.15595
3.1946
3.23021
3.26268
3.29193
3.31784
3.34034
3.35931
3.37479
3.38693
3.39583
3.40158
3.40427
3.404
3.40085
3.39493
3.38635
3.37522
3.36169
3.34588
3.32794
3.30801
3.28625
3.26296
3.2383
3.21242
3.18552
3.15776
3.12934
3.10046
3.07132
3.04211
3.013
2.98414
2.95572
2.92787
2.90072
2.87438
2.84891
2.82433
2.80063
2.77774
2.75553
2.73385
2.71248
2.69119
2.66972
2.64781
2.62519
2.60161
2.57684
2.55068
2.52295
2.49351
2.46223
2.42904
2.39385
2.35663
2.31732
2.2759
2.23231
2.18654
2.13854
2.08826
2.03566
1.9807
1.92332
1.86349
1.80119
1.73641
1.66919
1.59957
1.52769
1.4537
1.37786
1.30043
1.22182
1.14253
1.06312
0.984237
0.90657
0.830839
0.757771
0.688064
0.622359
0.561197
0.504999
0.45404
0.408439
0.368162
0.333037
0.302775
0.276999
0.255279
0.237154
0.222163
0.209865
0.199848
0.191741
0.185217
0.179995
0.175833
0.172528
0.169914
0.167851
0.166227
0.16495
0.163947
0.163158
0.162537
0.162046
0.161657
0.161346
0.161095
0.16089
0.16072
0.160576
0.160452
0.160342
0.160242
0.160148
0.160059
0.159972
0.159887
0.159803
0.159721
0.159645
0.159578
0.159528
0.159514
0.239342
0.402092
0.500719
0.570773
0.626902
0.67472
0.717076
0.755743
0.79201
0.82692
0.861355
0.896069
0.931691
0.96872
1.00755
1.04848
1.09169
1.13729
1.18533
1.2358
1.28865
1.34379
1.40112
1.46051
1.52184
1.5849
1.64945
1.71534
1.7824
1.85041
1.91917
1.98847
2.05808
2.12779
2.19737
2.2666
2.33527
2.40314
2.47003
2.53571
2.60001
2.66272
2.72367
2.78268
2.8396
2.89427
2.94653
2.99626
3.04331
3.08756
3.12888
3.16716
3.20226
3.23409
3.26252
3.28744
3.30873
3.32628
3.34021
3.35063
3.35763
3.3613
3.36173
3.35901
3.35322
3.34449
3.33292
3.31864
3.30177
3.28247
3.26089
3.23717
3.21151
3.1841
3.15512
3.12476
3.09318
3.06057
3.02712
2.99302
2.95845
2.92362
2.88872
2.85393
2.81947
2.78552
2.75228
2.71993
2.6886
2.65844
2.62951
2.60187
2.57551
2.55035
2.5263
2.5032
2.48086
2.45906
2.43756
2.41611
2.39445
2.37234
2.34956
2.3259
2.30116
2.27518
2.24782
2.21894
2.18843
2.15617
2.12204
2.08594
2.04775
2.00734
1.96458
1.91935
1.87151
1.82095
1.76755
1.71125
1.65199
1.58976
1.52462
1.45669
1.38614
1.31328
1.2385
1.16228
1.08522
1.00796
0.931228
0.855799
0.782463
0.711998
0.645129
0.582493
0.524606
0.471836
0.424385
0.382295
0.34545
0.313603
0.286404
0.263432
0.244229
0.228326
0.215265
0.204619
0.195999
0.189061
0.183506
0.179078
0.175563
0.172782
0.170588
0.168861
0.167504
0.166438
0.1656
0.164942
0.164422
0.164011
0.163683
0.163419
0.163205
0.163028
0.16288
0.162753
0.162642
0.162542
0.162451
0.162364
0.162282
0.162202
0.162125
0.162051
0.161984
0.161929
0.161891
0.161889
0.227238
0.374469
0.468983
0.537719
0.594007
0.643043
0.687394
0.72859
0.767684
0.805501
0.842733
0.879999
0.917812
0.95647
0.996379
1.03784
1.08108
1.12625
1.17345
1.22272
1.27407
1.32748
1.38289
1.44021
1.49935
1.56016
1.62248
1.68616
1.75104
1.81694
1.88366
1.951
2.01877
2.08674
2.1547
2.22243
2.28972
2.35634
2.42208
2.48673
2.55008
2.61194
2.67212
2.73042
2.78668
2.84072
2.89238
2.9415
2.98794
3.03155
3.0722
3.10976
3.14409
3.17508
3.20259
3.22649
3.24666
3.26303
3.27577
3.28494
3.29062
3.29288
3.29181
3.28748
3.28
3.26947
3.256
3.23971
3.22073
3.1992
3.17528
3.14911
3.12087
3.09072
3.05883
3.02538
2.99053
2.95445
2.91732
2.87931
2.84062
2.80145
2.76198
2.72246
2.68309
2.64414
2.60584
2.56843
2.53217
2.49725
2.46388
2.4322
2.40232
2.37426
2.34802
2.32352
2.30061
2.27912
2.2588
2.2394
2.22062
2.20217
2.18378
2.16515
2.14606
2.12626
2.10556
2.08377
2.06073
2.03627
2.01025
1.98251
1.95288
1.92119
1.88724
1.85085
1.81182
1.76994
1.72504
1.67696
1.62555
1.57074
1.51249
1.45083
1.38594
1.3181
1.24766
1.17508
1.10093
1.02588
0.95068
0.876134
0.80309
0.732395
0.664852
0.601187
0.542005
0.487765
0.438756
0.395093
0.356724
0.323448
0.294948
0.270821
0.250613
0.233853
0.220073
0.208832
0.199725
0.192392
0.18652
0.181839
0.178124
0.175185
0.172866
0.171042
0.169608
0.168483
0.1676
0.166906
0.166359
0.165926
0.165582
0.165307
0.165084
0.164901
0.164749
0.16462
0.164509
0.16441
0.16432
0.164237
0.164159
0.164085
0.164014
0.163949
0.163892
0.163848
0.163823
0.163832
0.213341
0.344692
0.435834
0.503771
0.560318
0.610385
0.656376
0.699659
0.741117
0.781393
0.821
0.860379
0.899902
0.939889
0.980647
1.02244
1.06551
1.11002
1.15611
1.20389
1.25342
1.30471
1.35777
1.41256
1.46902
1.52705
1.58656
1.6474
1.70945
1.77254
1.83651
1.90118
1.96635
2.03182
2.09738
2.16283
2.22795
2.29253
2.35634
2.41919
2.48085
2.54113
2.59982
2.65673
2.71168
2.76449
2.81498
2.86299
2.90836
2.95094
2.99059
3.02718
3.06055
3.09059
3.11716
3.14012
3.15931
3.17487
3.18686
3.19532
3.20031
3.20189
3.20012
3.19508
3.18686
3.17555
3.16126
3.14409
3.12418
3.10165
3.07664
3.04928
3.01972
2.98811
2.9546
2.91935
2.88249
2.84419
2.80461
2.76391
2.72228
2.67992
2.63704
2.59388
2.55071
2.50782
2.46551
2.42411
2.38393
2.34529
2.30847
2.27374
2.2413
2.21127
2.18372
2.15862
2.13586
2.11526
2.09656
2.07945
2.0636
2.04863
2.03421
2.01998
2.00566
1.99095
1.97564
1.9595
1.94237
1.92407
1.90445
1.88336
1.86061
1.83601
1.80936
1.78043
1.74897
1.71471
1.67741
1.63682
1.59272
1.54494
1.49333
1.43787
1.37873
1.31609
1.25025
1.18164
1.1108
1.03839
0.965173
0.891984
0.81971
0.749253
0.681485
0.617209
0.557115
0.501748
0.451478
0.406497
0.366815
0.332284
0.302622
0.27745
0.256324
0.238775
0.224328
0.212532
0.202969
0.195267
0.189096
0.184178
0.180273
0.177185
0.174749
0.172833
0.171328
0.170147
0.16922
0.168493
0.16792
0.167468
0.16711
0.166823
0.166592
0.166404
0.166249
0.166118
0.166006
0.165907
0.16582
0.16574
0.165666
0.165597
0.165534
0.165477
0.165429
0.165396
0.165383
0.165404
0.196104
0.313844
0.401199
0.468556
0.525491
0.576508
0.623883
0.668885
0.712287
0.754603
0.796208
0.837407
0.878461
0.919616
0.961106
1.00316
1.04597
1.08975
1.13464
1.18078
1.22828
1.27721
1.32762
1.37951
1.43288
1.48769
1.54386
1.60131
1.65993
1.71959
1.78014
1.84144
1.9033
1.96555
2.02799
2.09042
2.15264
2.21443
2.2756
2.33592
2.39519
2.45321
2.50977
2.56468
2.61774
2.66877
2.7176
2.76406
2.80798
2.84921
2.8876
2.92301
2.9553
2.98435
3.01002
3.03218
3.05072
3.06587
3.07762
3.08597
3.09095
3.09259
3.09095
3.08608
3.07806
3.06697
3.05288
3.03591
3.01615
2.99371
2.96871
2.94126
2.91149
2.87951
2.84546
2.80945
2.77162
2.73211
2.69105
2.64862
2.60499
2.56038
2.515
2.46915
2.42312
2.37726
2.33194
2.28756
2.24455
2.2033
2.16422
2.12766
2.0939
2.06316
2.03553
2.01102
1.98949
1.97073
1.95442
1.94017
1.92755
1.91613
1.90547
1.89517
1.88487
1.87426
1.86311
1.8512
1.83837
1.8245
1.80947
1.79315
1.7754
1.75606
1.73494
1.71179
1.68636
1.65835
1.62745
1.59334
1.55572
1.51431
1.46883
1.41934
1.36583
1.30839
1.24725
1.1828
1.11552
1.04607
0.975193
0.903744
0.832639
0.762822
0.695222
0.630712
0.570057
0.513879
0.462631
0.416576
0.375788
0.340174
0.30949
0.283384
0.261429
0.243159
0.228099
0.21579
0.205803
0.197755
0.191306
0.186164
0.182082
0.178853
0.176307
0.174304
0.172731
0.171498
0.17053
0.169771
0.169174
0.168703
0.168331
0.168034
0.167795
0.167601
0.167442
0.167309
0.167196
0.167098
0.167012
0.166934
0.166864
0.1668
0.166743
0.166693
0.166654
0.16663
0.166628
0.166658
0.177427
0.286664
0.369981
0.436532
0.493692
0.545409
0.593794
0.640039
0.684849
0.728659
0.771756
0.814353
0.856626
0.898738
0.94086
0.98316
1.02581
1.06899
1.11286
1.15756
1.20322
1.24995
1.29784
1.34693
1.39725
1.4488
1.50156
1.55547
1.61047
1.66645
1.72331
1.7809
1.83909
1.8977
1.95657
2.01552
2.07434
2.13286
2.19086
2.24815
2.30452
2.35977
2.4137
2.46613
2.51685
2.5657
2.61248
2.65703
2.69919
2.7388
2.77572
2.8098
2.84092
2.86893
2.89372
2.91515
2.93337
2.94843
2.9603
2.96895
2.97438
2.9766
2.97563
2.97152
2.96432
2.95408
2.94086
2.92474
2.90581
2.88413
2.8598
2.8329
2.80353
2.77178
2.73775
2.70153
2.66325
2.62302
2.58098
2.53729
2.49215
2.44577
2.39844
2.35047
2.30221
2.2541
2.20659
2.16017
2.11536
2.07269
2.03264
1.99565
1.96208