/*--------------------------------*- C++ -*----------------------------------*\
| =========                 |                                                 |
| \\      /  F ield         | OpenFOAM: The Open Source CFD Toolbox           |
|  \\    /   O peration     | Version:  2412                                  |
|   \\  /    A nd           | Website:  www.openfoam.com                      |
|    \\/     M anipulation  |                                                 |
\*---------------------------------------------------------------------------*/
FoamFile
{
    version     2.0;
    format      ascii;
    arch        "LSB;label=32;scalar=64";
    class       volScalarField;
    location    "0.03";
    object      nut;
}
// * * * * * * * * * * * * * * * * * * * * * * * * * * * * * * * * * * * * * //

dimensions      [0 2 -1 0 0 0 0];

internalField   nonuniform List<scalar> 
12225
(
2.01502e-05
2.24822e-05
2.47399e-05
2.63557e-05
2.75649e-05
2.8483e-05
2.91921e-05
2.9748e-05
3.01876e-05
3.05373e-05
3.08161e-05
3.10382e-05
3.12137e-05
3.13501e-05
3.14528e-05
3.15244e-05
3.15692e-05
3.16098e-05
0.000167785
0.000185406
0.000202559
0.000213736
0.000221089
0.000225927
0.000228947
0.000230673
0.000231477
0.000231619
0.000231283
0.000230602
0.000229676
0.000228576
0.000227359
0.000226055
0.000224816
0.000224262
0.000338303
0.000365946
0.000399274
0.000424279
0.000442618
0.000455949
0.000465437
0.00047202
0.000476416
0.000479157
0.000480644
0.000481178
0.000480985
0.000480238
0.000479069
0.000477579
0.000475975
0.000475233
0.000480571
0.000521693
0.000569999
0.000608214
0.000637575
0.000659936
0.000676785
0.000689341
0.000698571
0.000705214
0.000709842
0.000712894
0.000714714
0.000715565
0.000715656
0.000715158
0.000714326
0.000713928
0.000593459
0.000650858
0.000713351
0.000763602
0.000803055
0.000833853
0.000857782
0.000876293
0.000890533
0.000901402
0.0009096
0.000915681
0.000920077
0.000923134
0.000925129
0.000926296
0.000926909
0.000927519
0.00068425
0.000756516
0.000831813
0.000892903
0.000941459
0.000979923
0.00101037
0.00103447
0.00105352
0.00106854
0.00108035
0.00108958
0.00109675
0.00110227
0.00110647
0.00110963
0.00111205
0.00111411
0.000759537
0.000842673
0.000928173
0.000998564
0.00105517
0.00110052
0.00113691
0.00116615
0.0011897
0.00120868
0.00122398
0.00123633
0.00124629
0.00125434
0.00126085
0.00126615
0.00127051
0.00127424
0.000823376
0.000913185
0.00100516
0.00108262
0.00114589
0.00119724
0.00123892
0.00127285
0.00130056
0.00132326
0.0013419
0.00135727
0.00136998
0.00138055
0.00138939
0.00139686
0.0014032
0.00140866
0.000876762
0.000970752
0.00106527
0.00114686
0.00121487
0.00127097
0.00131713
0.00135518
0.00138666
0.0014128
0.0014346
0.00145286
0.00146825
0.0014813
0.00149246
0.00150208
0.0015104
0.00151756
0.000918078
0.00101583
0.00111002
0.0011927
0.00126308
0.00132225
0.00137173
0.00141311
0.0014478
0.00147701
0.00150169
0.00152268
0.00154063
0.0015561
0.00156953
0.00158127
0.00159152
0.00160036
0.000944687
0.00104627
0.00113903
0.00122056
0.00129099
0.00135126
0.00140257
0.00144618
0.0014833
0.001515
0.00154218
0.00156562
0.00158594
0.00160369
0.0016193
0.00163309
0.00164523
0.00165568
0.000954
0.00105668
0.00114757
0.00122694
0.00129592
0.00135572
0.00140741
0.00145204
0.0014906
0.00152401
0.00155305
0.00157842
0.0016007
0.00162038
0.00163787
0.00165346
0.00166726
0.00167913
0.000951752
0.00105233
0.0011414
0.00121896
0.0012863
0.0013449
0.00139599
0.00144058
0.00147957
0.00151378
0.00154389
0.00157052
0.00159418
0.00161532
0.00163428
0.00165133
0.00166651
0.00167958
0.000937589
0.0010276
0.00111064
0.00118478
0.00124988
0.00130688
0.00135686
0.0014008
0.00143958
0.00147395
0.00150456
0.00153194
0.00155655
0.00157878
0.00159894
0.00161723
0.00163364
0.00164776
0.000914439
0.000983314
0.00105127
0.00111581
0.00117516
0.00122875
0.00127668
0.00131938
0.00135744
0.00139147
0.00142202
0.0014496
0.00147461
0.00149739
0.00151823
0.00153728
0.00155449
0.0015693
0.000888518
0.000930103
0.000973736
0.00101849
0.00106299
0.00110608
0.00114694
0.00118508
0.00122028
0.00125256
0.00128207
0.00130905
0.00133377
0.00135645
0.00137731
0.00139637
0.00141367
0.00142867
0.000866391
0.000883398
0.000902269
0.000923028
0.000945391
0.000968968
0.000993317
0.00101796
0.00104247
0.00106647
0.00108968
0.0011119
0.00113302
0.001153
0.00117182
0.00118945
0.00120582
0.00122052
0.00085371
0.000856597
0.000860697
0.000866033
0.000872561
0.000880223
0.000888964
0.000898712
0.000909355
0.000920758
0.000932775
0.00094525
0.00095803
0.000970966
0.000983924
0.000996776
0.00100938
0.00102143
0.000856712
0.000862771
0.000870002
0.000878405
0.00088786
0.000898208
0.000909284
0.000920904
0.000932878
0.000945027
0.000957192
0.00096924
0.000981068
0.000992598
0.00100378
0.00101457
0.00102491
0.00103456
0.000878725
0.000909461
0.000941975
0.000975597
0.00100932
0.00104224
0.00107366
0.00110311
0.00113029
0.00115512
0.00117763
0.00119794
0.00121621
0.00123263
0.00124738
0.00126065
0.0012726
0.0012834
0.000912074
0.000977878
0.0010421
0.00110245
0.00115743
0.00120654
0.00124995
0.0012881
0.00132151
0.00135076
0.00137638
0.00139886
0.00141862
0.00143601
0.00145136
0.00146492
0.00147694
0.00148772
0.000944383
0.0010388
0.00112325
0.00119687
0.00126033
0.00131496
0.00136201
0.00140255
0.00143749
0.00146764
0.00149369
0.00151623
0.00153577
0.00155273
0.00156748
0.00158033
0.00159154
0.00160139
0.000952915
0.00105474
0.00114448
0.00122209
0.00128854
0.00134525
0.00139349
0.0014344
0.0014691
0.00149854
0.00152356
0.00154485
0.00156299
0.00157847
0.00159171
0.00160303
0.00161273
0.00162102
0.000919903
0.00101581
0.00110695
0.00118617
0.00125302
0.00130893
0.00135546
0.00139413
0.00142631
0.00145314
0.00147555
0.00149429
0.00150998
0.00152314
0.00153417
0.00154342
0.00155116
0.00155758
0.000848132
0.000936334
0.0010259
0.0011018
0.00116414
0.00121507
0.0012566
0.00129052
0.00131828
0.00134105
0.00135974
0.0013751
0.00138771
0.00139806
0.00140654
0.00141346
0.00141907
0.00142353
0.000748423
0.000825466
0.000905907
0.000972042
0.00102524
0.00106795
0.00110223
0.00112978
0.00115194
0.00116977
0.00118409
0.00119557
0.00120475
0.00121203
0.00121777
0.00122224
0.00122565
0.00122814
0.00062095
0.000679489
0.000743904
0.000796029
0.00083723
0.000869715
0.000895274
0.000915336
0.000931038
0.000943277
0.000952752
0.000960016
0.000965505
0.000969565
0.000972473
0.000974449
0.000975666
0.000976242
0.000453253
0.000491137
0.000536605
0.000572363
0.000599538
0.000620197
0.000635819
0.000647518
0.000656174
0.000662468
0.000666923
0.000669938
0.000671825
0.000672828
0.000673137
0.000672902
0.00067224
0.000671251
0.000236579
0.000259255
0.000284079
0.000301504
0.000313248
0.000321344
0.000326868
0.000330497
0.000332732
0.00033394
0.000334384
0.000334257
0.000333705
0.000332838
0.000331739
0.000330472
0.000329088
0.000327648
2.72418e-05
3.01752e-05
3.32502e-05
3.54593e-05
3.708e-05
3.82957e-05
3.92236e-05
3.99457e-05
4.05164e-05
4.09725e-05
4.13406e-05
4.16401e-05
4.18857e-05
4.20882e-05
4.22562e-05
4.23962e-05
4.25131e-05
4.26114e-05
1.22378e-05
3.33641e-05
3.69709e-05
3.92444e-05
4.07389e-05
4.17206e-05
4.23504e-05
4.27522e-05
4.31069e-05
4.37938e-05
4.47136e-05
4.58126e-05
4.70446e-05
4.83405e-05
4.96346e-05
5.08843e-05
5.20697e-05
5.32125e-05
5.44311e-05
5.62396e-05
5.84023e-05
6.07757e-05
6.334e-05
6.6058e-05
6.88834e-05
7.17654e-05
7.46558e-05
7.75135e-05
8.03061e-05
8.30102e-05
8.56101e-05
8.80966e-05
9.04652e-05
9.2715e-05
9.48477e-05
9.68666e-05
9.87763e-05
0.000100582
0.000102289
0.000103903
0.00010543
0.000106875
0.000108243
0.00010954
0.000110769
0.000111935
0.000113042
0.000114093
0.000115092
0.000116042
0.000116946
0.000117806
0.000118627
0.00011941
0.00012016
0.000120879
0.000121572
0.000122244
0.0001229
0.000123563
0.000124203
0.000124815
0.000125402
0.000125968
0.000126512
0.000127035
0.000127539
0.000128024
0.00012849
0.000128938
0.000129367
0.000129777
0.000130169
0.000130541
0.000130893
0.000131224
0.000131532
0.000131816
0.000132074
0.000132303
0.000132502
0.000132665
0.00013279
0.000132873
0.000132908
0.00013289
0.000132814
0.000132672
0.000132458
0.000132164
0.000131783
0.000131305
0.000130723
0.000130028
0.000129208
0.000128251
0.000127124
0.000125768
0.000124531
0.000123973
0.000123453
0.000122831
0.000122082
0.000121199
0.000120184
0.000119039
0.00011777
0.000116382
0.000114884
0.000113281
0.000111581
0.000109793
0.000107922
0.000105977
0.000103962
0.000101885
9.97488e-05
9.7559e-05
9.53183e-05
9.30303e-05
9.0701e-05
8.83325e-05
8.58998e-05
8.33255e-05
8.07467e-05
7.81448e-05
7.55199e-05
7.28858e-05
7.02664e-05
6.76921e-05
6.51973e-05
6.28173e-05
6.05842e-05
5.85245e-05
5.66559e-05
5.49864e-05
5.35147e-05
5.22314e-05
5.11213e-05
5.01661e-05
4.93457e-05
4.86401e-05
4.80302e-05
4.75247e-05
4.71169e-05
4.67797e-05
4.64948e-05
4.62499e-05
4.60361e-05
4.58472e-05
4.56784e-05
4.5526e-05
4.53872e-05
4.52597e-05
4.51419e-05
4.50321e-05
4.49291e-05
4.48318e-05
4.47394e-05
4.46511e-05
4.45661e-05
4.44837e-05
4.44035e-05
4.43247e-05
4.42469e-05
4.41693e-05
4.40914e-05
4.40124e-05
4.39313e-05
4.38472e-05
4.37586e-05
4.36636e-05
4.35597e-05
4.34435e-05
4.33097e-05
4.31501e-05
4.29535e-05
4.26933e-05
4.23563e-05
4.17614e-05
1.71771e-05
7.29546e-05
0.000136101
0.000185127
0.000218499
0.000239752
0.000252966
0.000261329
0.000265577
0.000266476
0.000266903
0.000267675
0.000268855
0.000270367
0.000271885
0.000273369
0.000274856
0.000276399
0.000278061
0.000279945
0.000282237
0.000285087
0.000288634
0.000293015
0.000298365
0.000304798
0.000312403
0.000321236
0.000331317
0.000342625
0.000355099
0.000368644
0.000383138
0.000398434
0.000414378
0.00043081
0.000447577
0.000464539
0.000481572
0.000498572
0.000515459
0.000532169
0.00054866
0.000564903
0.000580885
0.000596599
0.000612046
0.000627231
0.00064216
0.000656836
0.000671259
0.000685423
0.000699313
0.000712902
0.000726153
0.000739008
0.000751393
0.000763216
0.000774383
0.000784278
0.000793942
0.00080357
0.000813196
0.000822839
0.000832514
0.000842238
0.000852026
0.000861893
0.000871853
0.000881921
0.000892107
0.000902423
0.000912878
0.000923479
0.000934228
0.000945127
0.000956172
0.000967353
0.000978657
0.000990064
0.00100155
0.00101307
0.00102458
0.00103604
0.00104738
0.00105852
0.00106937
0.00107984
0.00108981
0.00109916
0.00110775
0.00111542
0.00112199
0.00112726
0.00113094
0.00113262
0.00113159
0.00112667
0.0011173
0.00110514
0.00109089
0.00107478
0.0010569
0.00103734
0.00101621
0.000993611
0.000969663
0.000944495
0.00091824
0.000891034
0.000863011
0.000834301
0.000805026
0.0007753
0.000745226
0.000714893
0.000684377
0.000653743
0.00062304
0.000592311
0.000561589
0.000530875
0.000500014
0.000468195
0.000433757
0.000399557
0.000366748
0.000335693
0.000306585
0.000279519
0.000254527
0.000231607
0.000210739
0.000191889
0.000175015
0.000160059
0.000146949
0.00013559
0.000125864
0.000117638
0.000110761
0.000105074
0.000100415
9.66327e-05
9.35922e-05
9.11708e-05
8.9258e-05
8.77575e-05
8.6587e-05
8.56774e-05
8.49719e-05
8.4424e-05
8.39963e-05
8.3659e-05
8.33884e-05
8.31659e-05
8.29769e-05
8.28102e-05
8.26572e-05
8.25111e-05
8.23669e-05
8.22205e-05
8.20689e-05
8.19095e-05
8.17402e-05
8.15588e-05
8.13632e-05
8.11507e-05
8.09183e-05
8.06616e-05
8.03748e-05
8.00498e-05
7.96748e-05
7.92328e-05
7.86973e-05
7.80316e-05
7.71636e-05
7.60656e-05
7.43578e-05
7.32268e-05
2.04696e-05
0.000115749
0.000217802
0.000291405
0.000338923
0.000366839
0.000382469
0.000389852
0.000392483
0.000393296
0.000393986
0.000395235
0.000397148
0.000399616
0.000402536
0.00040593
0.000409935
0.000414783
0.000420785
0.000428317
0.000437786
0.000449582
0.000464043
0.000481438
0.000501937
0.000525603
0.000552379
0.000582092
0.000614459
0.00064911
0.000685611
0.000723494
0.000762285
0.000801532
0.000840826
0.000879816
0.000918213
0.000955796
0.000992404
0.00102793
0.00106231
0.00109553
0.00112759
0.00115851
0.00118833
0.00121709
0.00124484
0.00127162
0.00129746
0.0013224
0.00134647
0.00136969
0.00139206
0.00141359
0.00143428
0.00145412
0.00147311
0.00149125
0.00150857
0.00152512
0.0015413
0.00155726
0.00157303
0.00158864
0.00160414
0.00161955
0.00163491
0.00165024
0.00166557
0.00168094
0.00169638
0.00171191
0.00172756
0.00174333
0.00175926
0.00177535
0.0017916
0.001808
0.00182454
0.0018412
0.00185792
0.00187467
0.00189136
0.00190792
0.00192425
0.0019402
0.00195565
0.00197042
0.00198433
0.00199715
0.00200865
0.00201857
0.0020266
0.00203242
0.00203562
0.00203573
0.00203216
0.00202416
0.00201165
0.00199527
0.00197545
0.00195237
0.00192613
0.00189687
0.0018647
0.00182977
0.00179226
0.00175236
0.00171028
0.00166621
0.00162037
0.00157298
0.00152422
0.00147428
0.00142333
0.00137153
0.00131901
0.00126588
0.00121224
0.00115816
0.00110371
0.00104892
0.000993705
0.000937783
0.000880613
0.000821704
0.000762705
0.000704574
0.000647989
0.000593526
0.00054168
0.000492866
0.000447424
0.000405608
0.000367591
0.000333455
0.000303195
0.000276721
0.000253866
0.000234399
0.000218041
0.00020448
0.000193388
0.000184438
0.000177322
0.000171749
0.000167459
0.000164217
0.00016182
0.000160092
0.000158886
0.000158079
0.000157571
0.000157281
0.000157143
0.000157108
0.000157134
0.000157192
0.000157257
0.000157313
0.000157347
0.000157348
0.000157309
0.000157224
0.000157088
0.000156896
0.000156642
0.000156319
0.000155918
0.000155426
0.000154824
0.000154087
0.000153178
0.000152039
0.000150584
0.000148684
0.000146095
0.00014252
0.000136976
0.000129427
2.31126e-05
0.000159204
0.00028876
0.00037592
0.000430087
0.000461536
0.000477721
0.00048521
0.000488503
0.000490398
0.000492409
0.000495209
0.000499036
0.000503998
0.000510253
0.000518079
0.000527874
0.000540121
0.00055534
0.000574036
0.000596646
0.000623488
0.00065473
0.000690369
0.000730232
0.000773987
0.00082117
0.000871222
0.000923524
0.000977439
0.00103235
0.00108766
0.00114287
0.00119752
0.00125125
0.00130376
0.00135485
0.00140436
0.00145218
0.00149827
0.00154262
0.00158522
0.00162612
0.00166536
0.00170299
0.00173907
0.00177365
0.00180679
0.00183854
0.00186894
0.00189805
0.0019259
0.00195253
0.00197797
0.00200227
0.00202546
0.00204759
0.00206871
0.00208887
0.00210822
0.00212699
0.00214525
0.00216309
0.00218053
0.00219762
0.00221441
0.00223095
0.00224727
0.00226343
0.00227948
0.00229545
0.00231139
0.00232734
0.00234333
0.00235941
0.00237558
0.00239187
0.00240829
0.00242483
0.00244148
0.0024582
0.00247496
0.00249167
0.00250826
0.00252462
0.00254062
0.00255608
0.00257084
0.00258467
0.00259733
0.00260854
0.00261801
0.00262539
0.00263032
0.0026324
0.00263119
0.00262615
0.00261694
0.00260351
0.00258602
0.00256458
0.00253928
0.00251019
0.00247738
0.00244098
0.00240113
0.002358
0.00231178
0.00226269
0.00221093
0.00215674
0.00210033
0.00204191
0.00198168
0.00191983
0.00185653
0.00179191
0.00172612
0.00165926
0.00159142
0.0015227
0.00145316
0.00138285
0.00131175
0.0012398
0.00116692
0.00109329
0.00102005
0.000947886
0.000877506
0.000809573
0.000744707
0.000683455
0.000626279
0.000573538
0.000525481
0.000482237
0.000443817
0.000410123
0.000380955
0.000356035
0.000335021
0.000317533
0.000303172
0.000291538
0.000282247
0.000274938
0.000269282
0.000264982
0.00026178
0.000259453
0.000257811
0.000256698
0.000255982
0.000255557
0.000255339
0.000255258
0.000255263
0.000255312
0.000255372
0.000255421
0.000255438
0.000255412
0.000255329
0.000255182
0.000254962
0.00025466
0.000254266
0.000253769
0.000253151
0.000252389
0.000251451
0.000250289
0.000248835
0.000246982
0.000244566
0.000241299
0.000236751
0.000229843
0.000219759
2.52696e-05
0.000192451
0.000346054
0.000447064
0.000508598
0.000543509
0.000561891
0.000570967
0.000575636
0.000578959
0.000582676
0.000587712
0.000594588
0.000603699
0.000615459
0.000630347
0.000648886
0.000671591
0.000698912
0.00073117
0.000768525
0.000810947
0.00085822
0.000909963
0.000965657
0.00102469
0.0010864
0.0011501
0.00121513
0.00128085
0.00134669
0.00141215
0.0014768
0.00154027
0.00160227
0.00166257
0.00172102
0.00177748
0.00183189
0.00188421
0.00193444
0.00198258
0.00202867
0.00207276
0.00211489
0.00215512
0.00219351
0.00223013
0.00226502
0.00229824
0.00232986
0.00235991
0.00238846
0.00241556
0.00244125
0.00246559
0.00248863
0.00251043
0.00253103
0.0025506
0.0025693
0.00258722
0.00260442
0.00262097
0.00263692
0.00265233
0.00266725
0.00268173
0.00269585
0.00270967
0.00272323
0.00273661
0.00274986
0.00276304
0.00277621
0.00278939
0.00280265
0.002816
0.00282946
0.00284305
0.00285676
0.00287056
0.00288441
0.00289825
0.00291198
0.00292549
0.00293864
0.00295125
0.00296311
0.00297398
0.00298359
0.00299162
0.00299775
0.00300159
0.00300278
0.00300078
0.00299527
0.00298602
0.00297289
0.00295582
0.00293478
0.00290975
0.00288074
0.0028478
0.00281098
0.00277042
0.00272625
0.00267863
0.00262776
0.00257382
0.00251702
0.00245755
0.0023956
0.00233136
0.00226499
0.00219664
0.00212645
0.00205452
0.00198098
0.0019059
0.00182939
0.00175153
0.00167242
0.00159217
0.0015109
0.00142877
0.00134596
0.00126318
0.00118115
0.00110061
0.00102232
0.00094704
0.000875448
0.000808161
0.000745687
0.000688408
0.000636564
0.00059025
0.000549416
0.000513884
0.000483362
0.000457476
0.000435792
0.000417845
0.000403168
0.000391305
0.000381832
0.00037436
0.000368544
0.000364082
0.000360714
0.000358217
0.000356406
0.000355125
0.000354247
0.000353666
0.000353299
0.000353077
0.000352947
0.000352867
0.000352804
0.000352731
0.00035263
0.000352483
0.000352279
0.000352006
0.000351653
0.000351208
0.000350657
0.000349983
0.000349162
0.000348162
0.000346936
0.000345416
0.000343503
0.000341042
0.000337776
0.000333306
0.000326785
0.0003175
2.6819e-05
0.000218677
0.000391444
0.000504401
0.000574054
0.000614845
0.000637529
0.00064987
0.000657246
0.00066316
0.000669774
0.000678392
0.000689851
0.000704779
0.000723724
0.000747187
0.000775603
0.000809298
0.000848448
0.000893051
0.000942923
0.000997713
0.00105693
0.00112
0.00118626
0.00125504
0.00132568
0.00139754
0.00147001
0.00154256
0.00161469
0.00168599
0.0017561
0.0018247
0.00189157
0.00195649
0.00201933
0.00207997
0.00213836
0.00219444
0.00224821
0.00229967
0.00234885
0.00239579
0.00244052
0.0024831
0.0025236
0.00256205
0.00259852
0.00263307
0.00266576
0.00269663
0.00272574
0.00275314
0.00277888
0.002803
0.00282556
0.00284659
0.00286615
0.00288439
0.00290144
0.00291742
0.00293239
0.00294641
0.00295957
0.00297191
0.0029835
0.00299442
0.00300474
0.00301453
0.00302387
0.00303285
0.00304153
0.00305
0.00305834
0.00306661
0.00307488
0.00308322
0.00309168
0.0031003
0.0031091
0.00311809
0.00312728
0.00313664
0.0031461
0.00315559
0.00316501
0.0031742
0.00318298
0.00319115
0.00319843
0.00320455
0.00320915
0.0032119
0.00321228
0.00320999
0.00320473
0.00319622
0.00318427
0.00316872
0.00314945
0.00312635
0.00309938
0.00306854
0.00303384
0.00299535
0.00295318
0.00290743
0.00285825
0.0028058
0.00275023
0.00269169
0.00263034
0.00256631
0.00249975
0.00243075
0.00235943
0.00228586
0.00221014
0.00213233
0.00205252
0.00197078
0.00188725
0.00180207
0.00171544
0.00162763
0.00153896
0.00144991
0.00136122
0.00127367
0.0011881
0.00110536
0.00102625
0.000951547
0.000881891
0.000817806
0.000759655
0.000707627
0.000661738
0.000621835
0.00058762
0.000558676
0.000534502
0.000514552
0.000498264
0.000485097
0.000474548
0.000466168
0.000459566
0.000454408
0.000450417
0.00044736
0.000445045
0.000443314
0.000442037
0.000441106
0.000440433
0.000439948
0.000439593
0.000439321
0.000439095
0.000438886
0.000438669
0.000438427
0.000438142
0.000437802
0.000437394
0.000436905
0.000436321
0.000435625
0.000434793
0.000433797
0.000432594
0.000431125
0.000429303
0.000427001
0.000424012
0.00042002
0.00041444
0.000406865
2.79422e-05
0.000233112
0.000421213
0.000546624
0.000625951
0.000674417
0.000703291
0.000720742
0.00073255
0.000742655
0.000753646
0.000767191
0.000784389
0.000806002
0.00083258
0.000864516
0.000902047
0.000945241
0.000993994
0.00104804
0.00110697
0.00117027
0.00123734
0.00130754
0.00138025
0.00145481
0.00153064
0.00160716
0.00168386
0.00176027
0.00183598
0.00191061
0.00198386
0.00205546
0.00212518
0.00219285
0.00225832
0.00232149
0.00238229
0.00244066
0.00249659
0.00255006
0.00260109
0.00264971
0.00269595
0.00273985
0.00278146
0.00282083
0.002858
0.00289304
0.00292598
0.00295687
0.00298577
0.0030127
0.00303771
0.00306085
0.00308213
0.00310161
0.00311931
0.00313537
0.00314992
0.00316308
0.00317492
0.00318552
0.00319494
0.00320325
0.00321054
0.00321687
0.00322234
0.00322703
0.00323104
0.00323446
0.0032374
0.00323996
0.00324224
0.00324434
0.00324636
0.0032484
0.00325056
0.0032529
0.00325552
0.00325845
0.00326174
0.00326541
0.00326947
0.00327387
0.00327856
0.00328344
0.00328836
0.00329315
0.00329758
0.0033014
0.00330421
0.00330567
0.00330542
0.00330315
0.00329853
0.00329129
0.00328115
0.00326791
0.00325137
0.00323139
0.00320785
0.00318069
0.00314989
0.00311546
0.00307743
0.00303588
0.00299088
0.00294253
0.00289093
0.00283618
0.00277839
0.00271763
0.00265398
0.00258752
0.00251829
0.00244634
0.00237171
0.00229445
0.0022146
0.00213223
0.00204746
0.00196044
0.00187141
0.00178068
0.00168864
0.0015957
0.00150261
0.00141019
0.00131934
0.00123099
0.00114609
0.00106553
0.000990097
0.000920469
0.000857145
0.000800435
0.000750443
0.000707072
0.000670041
0.000638911
0.000613124
0.000592048
0.000575022
0.000561395
0.000550567
0.000542005
0.000535256
0.000529949
0.000525784
0.000522524
0.000519981
0.000518004
0.000516474
0.000515293
0.000514381
0.000513673
0.000513113
0.000512658
0.000512271
0.000511921
0.000511584
0.00051124
0.000510872
0.000510464
0.000510004
0.000509478
0.000508872
0.000508169
0.000507349
0.000506384
0.000505239
0.000503864
0.000502187
0.000500106
0.000497463
0.000494027
0.00048941
0.000483442
2.90295e-05
0.000238278
0.000438129
0.00057485
0.000664088
0.000721224
0.000757698
0.000781845
0.000799676
0.000815428
0.000832007
0.000851355
0.000874745
0.000902999
0.000936617
0.000975856
0.00102077
0.00107122
0.00112693
0.00118748
0.00125237
0.00132103
0.00139287
0.00146727
0.00154364
0.00162142
0.00170007
0.0017791
0.00185805
0.00193652
0.00201414
0.00209057
0.00216555
0.00223881
0.00231015
0.0023794
0.00244642
0.00251109
0.00257334
0.00263309
0.00269033
0.00274502
0.00279717
0.00284678
0.00289389
0.00293851
0.00298068
0.00302045
0.00305784
0.0030929
0.00312566
0.00315616
0.00318444
0.00321052
0.00323444
0.00325621
0.00327586
0.00329341
0.00330889
0.00332239
0.00333407
0.00334402
0.00335233
0.00335907
0.00336431
0.00336813
0.00337061
0.00337183
0.00337189
0.00337089
0.00336893
0.00336614
0.00336264
0.00335855
0.00335401
0.00334915
0.00334411
0.00333902
0.00333401
0.00332922
0.00332477
0.00332077
0.0033173
0.00331444
0.00331227
0.00331079
0.00331001
0.00330989
0.00331033
0.00331121
0.00331231
0.00331338
0.00331412
0.00331421
0.00331333
0.00331116
0.00330737
0.00330165
0.0032937
0.00328326
0.00327009
0.003254
0.00323482
0.00321243
0.00318676
0.00315775
0.00312538
0.00308966
0.0030506
0.00300824
0.0029626
0.00291374
0.00286167
0.00280642
0.00274801
0.00268645
0.00262173
0.00255384
0.00248278
0.00240853
0.00233113
0.00225059
0.00216701
0.00208054
0.0019914
0.00189993
0.00180652
0.00171157
0.00161585
0.00152021
0.0014256
0.00133305
0.00124359
0.00115825
0.00107796
0.00100355
0.000935678
0.000874783
0.000821087
0.000774579
0.000735025
0.000701994
0.000674898
0.000653037
0.000635656
0.000621993
0.000611335
0.000603045
0.00059659
0.000591541
0.000587565
0.000584413
0.000581899
0.000579885
0.000578266
0.000576961
0.000575904
0.000575041
0.000574329
0.000573728
0.000573206
0.000572735
0.000572293
0.00057186
0.000571418
0.000570953
0.000570451
0.000569897
0.00056928
0.000568582
0.000567785
0.000566866
0.000565794
0.000564527
0.000563009
0.000561158
0.000558859
0.000555944
0.000552163
0.000547491
2.96521e-05
0.000237218
0.000444242
0.0005903
0.000688954
0.000755102
0.000800005
0.000831926
0.000856906
0.000879302
0.000902188
0.000927666
0.000957114
0.000991384
0.00103094
0.00107594
0.00112633
0.00118189
0.00124223
0.00130691
0.00137541
0.00144716
0.00152161
0.00159821
0.00167642
0.00175574
0.00183569
0.00191584
0.00199577
0.00207513
0.00215359
0.00223083
0.0023066
0.00238067
0.00245283
0.0025229
0.00259075
0.00265626
0.00271933
0.0027799
0.0028379
0.00289331
0.00294612
0.00299632
0.0030439
0.0030889
0.00313133
0.0031712
0.00320855
0.00324341
0.00327579
0.00330573
0.00333323
0.00335832
0.00338101
0.00340132
0.00341924
0.00343479
0.00344796
0.00345885
0.00346758
0.00347426
0.00347896
0.00348175
0.00348271
0.00348191
0.00347943
0.00347537
0.00346982
0.0034629
0.00345472
0.00344543
0.00343516
0.00342408
0.00341235
0.00340012
0.00338758
0.00337489
0.00336224
0.0033498
0.00333777
0.00332629
0.00331552
0.00330559
0.00329664
0.00328878
0.00328201
0.00327639
0.0032719
0.00326842
0.00326578
0.00326379
0.0032622
0.00326074
0.00325909
0.00325694
0.00325396
0.00324981
0.00324417
0.00323675
0.00322726
0.00321547
0.00320117
0.00318419
0.00316438
0.00314164
0.00311589
0.00308707
0.00305513
0.00302003
0.00298174
0.00294022
0.00289543
0.00284732
0.00279584
0.00274093
0.00268252
0.00262054
0.00255493
0.00248561
0.00241256
0.00233577
0.00225529
0.00217123
0.00208381
0.00199339
0.00190023
0.00180483
0.00170795
0.00161047
0.00151339
0.00141778
0.00132477
0.00123552
0.0011511
0.00107249
0.00100049
0.000935697
0.000878472
0.00082891
0.000786853
0.000751912
0.000723497
0.000700867
0.000683192
0.00066961
0.000659293
0.000651492
0.000645575
0.000641038
0.000637499
0.000634685
0.000632404
0.000630527
0.000628965
0.000627654
0.000626547
0.000625606
0.000624799
0.000624098
0.000623478
0.000622916
0.000622392
0.000621889
0.00062139
0.000620882
0.00062035
0.000619782
0.000619164
0.000618482
0.000617719
0.000616855
0.000615863
0.000614711
0.000613351
0.000611724
0.000609742
0.00060729
0.000604207
0.000600543
2.98905e-05
0.000231411
0.000441372
0.00059456
0.000701705
0.000776688
0.00083029
0.000870497
0.000903203
0.000932723
0.000962163
0.000993685
0.00102872
0.00106816
0.00111244
0.00116173
0.00121594
0.00127481
0.00133797
0.00140498
0.00147536
0.00154858
0.00162415
0.00170157
0.00178036
0.00186007
0.00194028
0.00202059
0.00210064
0.00218008
0.00225862
0.00233598
0.0024119
0.00248616
0.00255856
0.00262893
0.00269711
0.00276299
0.00282645
0.00288742
0.00294583
0.00300163
0.00305479
0.00310529
0.00315312
0.00319828
0.00324078
0.00328061
0.00331781
0.00335236
0.0033843
0.00341362
0.00344033
0.00346443
0.00348593
0.00350482
0.00352108
0.00353472
0.00354568
0.00355407
0.00355999
0.00356353
0.00356476
0.00356375
0.00356056
0.00355526
0.00354794
0.00353869
0.00352762
0.00351483
0.00350048
0.0034847
0.00346767
0.00344957
0.0034306
0.00341095
0.00339082
0.00337043
0.00334999
0.00332975
0.00330997
0.00329086
0.00327261
0.00325534
0.00323942
0.00322495
0.00321201
0.00320067
0.00319096
0.00318283
0.00317619
0.0031709
0.00316675
0.00316352
0.0031609
0.0031586
0.00315627
0.00315357
0.00315017
0.00314573
0.00313994
0.00313254
0.00312326
0.00311189
0.00309824
0.00308215
0.00306348
0.00304211
0.00301792
0.00299081
0.00296068
0.00292741
0.00289089
0.002851
0.00280761
0.00276058
0.00270978
0.00265506
0.00259628
0.00253333
0.0024661
0.00239454
0.00231864
0.00223849
0.00215426
0.00206629
0.00197475
0.00188023
0.00178346
0.00168534
0.00158688
0.00148923
0.00139359
0.00130122
0.00121332
0.00113101
0.00105525
0.000986809
0.000926174
0.000873571
0.000828943
0.000791967
0.000762082
0.000738535
0.000720446
0.000706871
0.000696878
0.000689605
0.000684313
0.000680408
0.000677447
0.000675116
0.000673209
0.000671597
0.000670204
0.000668984
0.000667908
0.000666955
0.000666108
0.000665352
0.00066467
0.000664047
0.000663466
0.000662914
0.000662376
0.00066184
0.000661292
0.000660721
0.000660114
0.000659458
0.000658737
0.000657934
0.000657028
0.000655991
0.000654787
0.00065337
0.000651678
0.000649631
0.000647127
0.000644252
2.9821e-05
0.00022215
0.000431352
0.000589438
0.000703884
0.00078714
0.000849253
0.000897766
0.000938294
0.00097499
0.00101088
0.00104812
0.00108816
0.00113191
0.00117986
0.0012322
0.00128888
0.00134968
0.00141428
0.00148229
0.00155328
0.00162679
0.00170239
0.00177962
0.00185807
0.00193733
0.00201701
0.00209676
0.00217625
0.00225516
0.00233321
0.00241013
0.00248569
0.00255966
0.00263185
0.00270208
0.0027702
0.00283607
0.00289958
0.00296063
0.00301916
0.00307508
0.00312837
0.00317897
0.00322687
0.00327205
0.00331449
0.0033542
0.00339117
0.0034254
0.00345688
0.00348561
0.00351158
0.00353478
0.00355519
0.00357278
0.00358754
0.00359943
0.00360838
0.0036145
0.00361785
0.00361852
0.00361655
0.003612
0.00360494
0.00359544
0.00358357
0.00356943
0.00355312
0.00353476
0.00351451
0.00349251
0.00346897
0.00344412
0.00341817
0.00339135
0.00336391
0.00333606
0.00330805
0.00328018
0.00325289
0.00322638
0.00320087
0.00317662
0.0031539
0.0031329
0.00311379
0.00309672
0.00308176
0.00306894
0.00305823
0.00304955
0.00304274
0.00303759
0.00303385
0.0030312
0.00302932
0.00302787
0.00302647
0.00302479
0.00302249
0.00301926
0.00301482
0.00300891
0.00300131
0.0029918
0.0029802
0.00296633
0.00295002
0.00293111
0.00290942
0.00288477
0.00285699
0.00282588
0.00279122
0.00275281
0.00271043
0.00266386
0.00261288
0.00255731
0.00249697
0.00243175
0.00236158
0.00228648
0.00220661
0.00212218
0.00203342
0.0019409
0.00184533
0.00174761
0.00164877
0.00154999
0.00145256
0.0013578
0.00126704
0.00118155
0.00110243
0.00103059
0.00096669
0.000911079
0.00086382
0.000824675
0.000793136
0.000768467
0.000749763
0.000736022
0.000726222
0.000719398
0.000714704
0.000711449
0.000709115
0.000707338
0.000705885
0.000704621
0.000703475
0.000702416
0.000701432
0.00070052
0.000699679
0.000698906
0.000698193
0.000697535
0.00069692
0.000696338
0.000695778
0.000695227
0.000694676
0.000694112
0.000693525
0.000692902
0.00069223
0.000691494
0.000690675
0.000689752
0.000688698
0.000687477
0.000686047
0.000684352
0.000682332
0.000680084
2.95026e-05
0.000210543
0.000415877
0.000576693
0.000697102
0.000787812
0.000857926
0.000914416
0.000962521
0.00100615
0.00104819
0.00109073
0.0011352
0.00118254
0.00123331
0.00128775
0.00134588
0.00140757
0.00147258
0.00154058
0.00161122
0.00168412
0.00175889
0.00183515
0.00191252
0.00199064
0.00206915
0.00214773
0.00222608
0.00230391
0.00238095
0.00245695
0.00253167
0.00260492
0.00267648
0.00274618
0.00281387
0.00287939
0.00294263