/*--------------------------------*- C++ -*----------------------------------*\
| =========                 |                                                 |
| \\      /  F ield         | OpenFOAM: The Open Source CFD Toolbox           |
|  \\    /   O peration     | Version:  2412                                  |
|   \\  /    A nd           | Website:  www.openfoam.com                      |
|    \\/     M anipulation  |                                                 |
\*---------------------------------------------------------------------------*/
FoamFile
{
    version     2.0;
    format      ascii;
    arch        "LSB;label=32;scalar=64";
    class       volScalarField;
    location    "0.03";
    object      p;
}
// * * * * * * * * * * * * * * * * * * * * * * * * * * * * * * * * * * * * * //

dimensions      [0 2 -2 0 0 0 0];

internalField   nonuniform List<scalar> 
12225
(
-10.4024
-9.81036
-9.14749
-8.59002
-8.07884
-7.61902
-7.21569
-6.85847
-6.53842
-6.2499
-5.98795
-5.74798
-5.52602
-5.31855
-5.12226
-4.93348
-4.74978
-4.55944
-10.8361
-9.86842
-9.18202
-8.63055
-8.11855
-7.65852
-7.2544
-6.89562
-6.57376
-6.28337
-6.01949
-5.77758
-5.55367
-5.34422
-5.14591
-4.95507
-4.76832
-4.58074
-11.0165
-9.90255
-9.22342
-8.68085
-8.16816
-7.70879
-7.30459
-6.94453
-6.62091
-6.3285
-6.06242
-5.81822
-5.59197
-5.38019
-5.17952
-4.98641
-4.79705
-4.604
-11.0404
-9.91821
-9.24786
-8.71437
-8.20418
-7.74747
-7.34495
-6.98525
-6.66127
-6.36805
-6.10085
-5.85533
-5.6277
-5.41454
-5.2126
-5.01868
-4.82854
-4.63952
-10.9704
-9.91305
-9.24813
-8.72497
-8.22165
-7.76971
-7.37059
-7.01295
-6.69013
-6.39748
-6.13043
-5.8848
-5.65698
-5.44372
-5.24198
-5.04912
-4.86106
-4.68178
-10.829
-9.8803
-9.22489
-8.71421
-8.2224
-7.77754
-7.38347
-7.02944
-6.70913
-6.41822
-6.15241
-5.90776
-5.68083
-5.46867
-5.26852
-5.07842
-4.89482
-4.72714
-10.6271
-9.81461
-9.17927
-8.68301
-8.20721
-7.77224
-7.385
-7.03615
-6.71968
-6.43166
-6.16815
-5.92548
-5.70051
-5.49058
-5.29333
-5.10747
-4.93008
-4.77456
-10.3755
-9.71353
-9.11223
-8.63208
-8.17612
-7.75433
-7.37593
-7.0339
-6.72267
-6.43874
-6.17861
-5.93899
-5.71704
-5.51048
-5.31738
-5.13706
-4.96714
-4.82389
-10.0851
-9.57697
-9.02511
-8.56325
-8.12987
-7.7246
-7.35722
-7.02366
-6.71912
-6.44054
-6.18493
-5.94944
-5.73162
-5.52955
-5.34176
-5.16806
-5.00653
-4.87528
-9.7673
-9.40715
-8.91952
-8.47964
-8.07041
-7.68463
-7.33045
-7.00695
-6.7105
-6.43851
-6.18857
-5.9583
-5.74567
-5.54918
-5.36774
-5.20155
-5.04895
-4.92919
-9.43454
-9.20912
-8.79739
-8.38509
-8.001
-7.63698
-7.29807
-6.98602
-6.69888
-6.43464
-6.19143
-5.96739
-5.76095
-5.57099
-5.39676
-5.23874
-5.09527
-4.98651
-9.12766
-9.00854
-8.67285
-8.29208
-7.93196
-7.58945
-7.26626
-6.96584
-6.68813
-6.43186
-6.19565
-5.97813
-5.77812
-5.59485
-5.42781
-5.27766
-5.1424
-5.04347
-8.83917
-8.80076
-8.54097
-8.19655
-7.86074
-7.54044
-7.23436
-6.94646
-6.67879
-6.4311
-6.20249
-5.99205
-5.79899
-5.62282
-5.46327
-5.32101
-5.19432
-5.10268
-8.54172
-8.56603
-8.38523
-8.08706
-7.78021
-7.48582
-7.20101
-6.9289
-6.67357
-6.43635
-6.21705
-6.01524
-5.83055
-5.66281
-5.51191
-5.37852
-5.26115
-5.17618
-8.25889
-8.3261
-8.21719
-7.97121
-7.69725
-7.43106
-7.17106
-6.91839
-6.67824
-6.45375
-6.24571
-6.05421
-5.87931
-5.72115
-5.57978
-5.45584
-5.34784
-5.26912
-8.02148
-8.11506
-8.06411
-7.8697
-7.62978
-7.39093
-7.15594
-6.92436
-6.70122
-6.49112
-6.29597
-6.1163
-5.95245
-5.80477
-5.67346
-5.55907
-5.46002
-5.38649
-7.8641
-7.97242
-7.96339
-7.8139
-7.60646
-7.39234
-7.1796
-6.96756
-6.76055
-6.56405
-6.38104
-6.21252
-6.05894
-5.92068
-5.79789
-5.69089
-5.59831
-5.52647
-7.82941
-7.94174
-7.95451
-7.83342
-7.64931
-7.45365
-7.25755
-7.06066
-6.8668
-6.68159
-6.50852
-6.34885
-6.20301
-6.07129
-5.95371
-5.85019
-5.75982
-5.68411
-7.98074
-8.0881
-8.09553
-7.97075
-7.78507
-7.58957
-7.39499
-7.20076
-7.01042
-6.82927
-6.66047
-6.50496
-6.36282
-6.23397
-6.11817
-6.01482
-5.92371
-5.84191
-8.30171
-8.39643
-8.36462
-8.1958
-7.97782
-7.75954
-7.54652
-7.33758
-7.13672
-6.94853
-6.7749
-6.61591
-6.47111
-6.3399
-6.22155
-6.11486
-6.01944
-5.92943
-8.72364
-8.78194
-8.68122
-8.44974
-8.18925
-7.93902
-7.69863
-7.46764
-7.25043
-7.05012
-6.86716
-6.70085
-6.55028
-6.41451
-6.29249
-6.18295
-6.08543
-5.99393
-9.24278
-9.22271
-9.01618
-8.70933
-8.4011
-8.11185
-7.83794
-7.5813
-7.34542
-7.13106
-6.93718
-6.76237
-6.60522
-6.46426
-6.33809
-6.22522
-6.12479
-6.03097
-9.81849
-9.66316
-9.32086
-8.94072
-8.58769
-8.25873
-7.95237
-7.6725
-7.41981
-7.19251
-6.98852
-6.80584
-6.64252
-6.49666
-6.36652
-6.25044
-6.14726
-6.05179
-10.3899
-10.0441
-9.56242
-9.12706
-8.73646
-8.37129
-8.03734
-7.7383
-7.47128
-7.23273
-7.01998
-6.83051
-6.66186
-6.51174
-6.37816
-6.25928
-6.15373
-6.05698
-10.8977
-10.3294
-9.73496
-9.26532
-8.84184
-8.44552
-8.09004
-7.77607
-7.49759
-7.25016
-7.03063
-6.83596
-6.66325
-6.50993
-6.37379
-6.25283
-6.14556
-6.04808
-11.3012
-10.5089
-9.84338
-9.35319
-8.90097
-8.48104
-8.1105
-7.78581
-7.49905
-7.24536
-7.02115
-6.82293
-6.6475
-6.49208
-6.3543
-6.23205
-6.12373
-6.02602
-11.5734
-10.5932
-9.8942
-9.38924
-8.91558
-8.4806
-8.10037
-7.76856
-7.47648
-7.21892
-6.99194
-6.79174
-6.61488
-6.45844
-6.31994
-6.19721
-6.08854
-5.99121
-11.6808
-10.6087
-9.89483
-9.37325
-8.88734
-8.4446
-8.05857
-7.72275
-7.42814
-7.16905
-6.94121
-6.74065
-6.56376
-6.40753
-6.26938
-6.1471
-6.03891
-5.94265
-11.5481
-10.5788
-9.85946
-9.315
-8.82392
-8.3786
-7.98998
-7.6531
-7.35862
-7.10022
-6.87342
-6.67412
-6.49862
-6.3438
-6.20707
-6.08617
-5.97924
-5.88445
-11.017
-10.4864
-9.81652
-9.25753
-8.76451
-8.31875
-7.9295
-7.59307
-7.29976
-7.04276
-6.81743
-6.61964
-6.44564
-6.29227
-6.15692
-6.03731
-5.93152
-5.83761
-5.49349
-5.49001
-5.50374
-5.53277
-5.56912
-5.60781
-5.64632
-5.68309
-5.71761
-5.75129
-5.78517
-5.81985
-5.85583
-5.89376
-5.93441
-5.97851
-6.02684
-6.08029
-6.1399
-6.20673
-6.28255
-6.36869
-6.4668
-6.57861
-6.70582
-6.84986
-7.01177
-7.19196
-7.39013
-7.6052
-7.83537
-8.0782
-8.33078
-8.58994
-8.85243
-9.11505
-9.37481
-9.62903
-9.87535
-10.1117
-10.3365
-10.5483
-10.7459
-10.9284
-11.095
-11.2451
-11.378
-11.4933
-11.5903
-11.6687
-11.7278
-11.7673
-11.7866
-11.7852
-11.7629
-11.7193
-11.6547
-11.5684
-11.4592
-11.325
-11.1632
-10.9746
-10.7594
-10.5174
-10.2483
-9.95181
-9.62745
-9.27492
-8.89396
-8.48434
-8.04595
-7.57877
-7.08286
-6.55845
-6.0059
-5.42574
-4.81869
-4.18569
-3.52792
-2.84682
-2.14416
-1.42198
-0.68272
0.0708429
0.835539
1.60781
2.3837
3.15888
3.92869
4.68815
5.43202
6.15494
6.85142
7.51602
8.14341
8.7285
9.26682
9.7553
10.1928
10.5765
10.903
11.1717
11.3831
11.5385
11.6405
11.6921
11.6972
11.6602
11.5858
11.4791
11.3453
11.1896
11.0169
10.832
10.6395
10.4433
10.2471
10.0541
9.86702
9.6882
9.5196
9.36299
9.22102
9.09493
8.9749
8.86373
8.76153
8.66896
8.58585
8.51168
8.44592
8.38803
8.33746
8.2936
8.25582
8.22345
8.19578
8.17215
8.15192
8.13452
8.11945
8.10632
8.09477
8.08443
8.07498
8.06632
8.0584
8.05113
8.04442
8.03821
8.03242
8.027
8.0219
8.01708
8.01252
8.00817
8.00403
8.00009
7.99632
7.99276
7.98939
7.98627
7.98341
7.9809
7.97879
7.97722
7.97631
7.97626
7.97733
7.97985
7.9843
7.99129
8.00171
8.01675
8.03824
8.0687
8.11248
8.17431
8.26929
8.38277
-5.52505
-5.53073
-5.54732
-5.57371
-5.60456
-5.63587
-5.66596
-5.69443
-5.72071
-5.74439
-5.7673
-5.79116
-5.81688
-5.84498
-5.87589
-5.91018
-5.94875
-5.99295
-6.04445
-6.10457
-6.17482
-6.25736
-6.35446
-6.4683
-6.60086
-6.75363
-6.9274
-7.12201
-7.33636
-7.56839
-7.8153
-8.07374
-8.34009
-8.61071
-8.88211
-9.15115
-9.41504
-9.67145
-9.91841
-10.1544
-10.378
-10.5884
-10.7847
-10.9661
-11.132
-11.2821
-11.4156
-11.5321
-11.6312
-11.7122
-11.7746
-11.8178
-11.8412
-11.8442
-11.8258
-11.7854
-11.7219
-11.6347
-11.5231
-11.3872
-11.2291
-11.0468
-10.8392
-10.6055
-10.3452
-10.0578
-9.74297
-9.40029
-9.0295
-8.6304
-8.20286
-7.74686
-7.26248
-6.74993
-6.20956
-5.64188
-5.04759
-4.42759
-3.78302
-3.11527
-2.42603
-1.71728
-0.991334
-0.250876
0.50106
1.26106
2.02533
2.78972
3.54976
4.30065
5.03739
5.75481
6.44767
7.1108
7.73919
8.32815
8.87336
9.37047
9.81453
10.2034
10.5372
10.8152
11.0379
11.2066
11.3233
11.3911
11.4133
11.3943
11.3384
11.2505
11.1354
10.9982
10.8436
10.6762
10.5003
10.32
10.1386
9.95938
9.78498
9.61759
9.45902
9.3108
9.17315
9.04476
8.92942
8.82616
8.73155
8.64574
8.56832
8.49882
8.43684
8.38197
8.33377
8.29174
8.25536
8.22403
8.19711
8.17399
8.15408
8.13684
8.12182
8.10862
8.09693
8.08646
8.07693
8.06819
8.06016
8.05277
8.04593
8.03957
8.03365
8.02809
8.02287
8.01794
8.01327
8.00882
8.00459
8.00055
7.99671
7.99306
7.98962
7.98642
7.98349
7.98089
7.9787
7.97702
7.97599
7.97581
7.9767
7.979
7.98314
7.98972
7.99954
8.01372
8.03386
8.06212
8.10223
8.15733
8.23932
8.33168
-5.50634
-5.52441
-5.54529
-5.56921
-5.59389
-5.61776
-5.63971
-5.66051
-5.68034
-5.6996
-5.71912
-5.73977
-5.76233
-5.78762
-5.81668
-5.8508
-5.89164
-5.9412
-6.00181
-6.07577
-6.16513
-6.27162
-6.39655
-6.54063
-6.70392
-6.88581
-7.08503
-7.29978
-7.52782
-7.76665
-8.01363
-8.26612
-8.52156
-8.77755
-9.03192
-9.28269
-9.52811
-9.76666
-9.99697
-10.2179
-10.4283
-10.6274
-10.8143
-10.9882
-11.1484
-11.2942
-11.425
-11.5401
-11.639
-11.7209
-11.7852
-11.8312
-11.8584
-11.866
-11.8533
-11.8197
-11.7641
-11.6855
-11.5838
-11.4582
-11.3088
-11.1349
-10.936
-10.7113
-10.4603
-10.1827
-9.87784
-9.54551
-9.1854
-8.7973
-8.3811
-7.93676
-7.46437
-6.96412
-6.43637
-5.88161
-5.30052
-4.69397
-4.06306
-3.40915
-2.73384
-2.03907
-1.32706
-0.600391
0.138004
0.884837
1.63646
2.38886
3.13773
3.87844
4.60616
5.3159
6.00259
6.66123
7.28695
7.87513
8.42128
8.92131
9.37195
9.77106
10.1172
10.4096
10.6482
10.8343
10.9696
11.0569
11.0995
11.1013
11.0665
10.9996
10.9055
10.7888
10.6541
10.506
10.3485
10.1854
10.0204
9.8563
9.69584
9.54114
9.39394
9.25572
9.1273
9.00869
8.90146
8.80112
8.71058
8.62847
8.55421
8.48748
8.42792
8.37514
8.32871
8.28816
8.25297
8.22258
8.19641
8.17387
8.1544
8.1375
8.12273
8.10972
8.09815
8.08775
8.07827
8.06957
8.06156
8.05415
8.04727
8.04086
8.03486
8.02924
8.02393
8.01891
8.01415
8.00961
8.00529
8.00116
7.99723
7.99349
7.98996
7.98667
7.98364
7.98094
7.97863
7.97683
7.97565
7.97528
7.97595
7.97796
7.98172
7.98777
7.99684
8.00992
8.02838
8.05394
8.08937
8.13624
8.20071
8.26247
-5.4158
-5.44862
-5.48003
-5.50787
-5.53197
-5.55334
-5.57371
-5.59299
-5.61212
-5.63205
-5.65375
-5.67825
-5.70673
-5.74051
-5.78118
-5.83051
-5.89038
-5.96263
-6.04896
-6.15071
-6.26872
-6.40334
-6.55433
-6.72103
-6.90235
-7.09696
-7.3033
-7.51972
-7.7445
-7.97591
-8.21221
-8.45169
-8.6927
-8.93364
-9.17296
-9.40921
-9.64102
-9.86713
-10.0863
-10.2976
-10.4998
-10.6921
-10.8735
-11.0433
-11.2007
-11.3448
-11.4749
-11.5903
-11.6902
-11.7739
-11.8406
-11.8897
-11.9203
-11.9318
-11.9233
-11.8942
-11.8437
-11.7711
-11.6759
-11.5575
-11.4155
-11.2491
-11.0578
-10.841
-10.5981
-10.3287
-10.0323
-9.7086
-9.35731
-8.9782
-8.57115
-8.13611
-7.67314
-7.18244
-6.66432
-6.11924
-5.54786
-4.951
-4.32972
-3.68531
-3.01933
-2.33364
-1.63039
-0.912084
-0.181572
0.55794
1.30289
2.04934
2.79307
3.52952
4.25391
4.96129
5.64663
6.30489
6.93114
7.5206
8.06918
8.57331
9.02984
9.43629
9.79089
10.0928
10.342
10.5395
10.6871
10.7874
10.8436
10.8595
10.8391
10.787
10.7077
10.6057
10.4856
10.3518
10.2081
10.0585
9.90629
9.75435
9.60527
9.46113
9.32363
9.19404
9.07303
8.96085
8.85808
8.76369
8.67837
8.60119
8.53162
8.46924
8.41362
8.36432
8.3209
8.28288
8.24977
8.22103
8.19615
8.17458
8.15583
8.13944
8.12502
8.11223
8.10077
8.09041
8.08093
8.0722
8.06413
8.05663
8.04964
8.04311
8.03697
8.0312
8.02574
8.02057
8.01565
8.01097
8.0065
8.00223
7.99815
7.99427
7.9906
7.98717
7.98399
7.98113
7.97866
7.97666
7.97526
7.97462
7.97496
7.97655
7.97976
7.98507
7.99311
8.00471
8.02095
8.0431
8.0729
8.11051
8.15755
8.1946
-5.27119
-5.31919
-5.36826
-5.40641
-5.43544
-5.4598
-5.48222
-5.50441
-5.52785
-5.5539
-5.58394
-5.61931
-5.66145
-5.71188
-5.77215
-5.84374
-5.92799
-6.02589
-6.1381
-6.2648
-6.40579
-6.56051
-6.72812
-6.90759
-7.09776
-7.29744
-7.50536
-7.72028
-7.94093
-8.16604
-8.39434
-8.62457
-8.8555
-9.08589
-9.31455
-9.54034
-9.76213
-9.97885
-10.1895
-10.3931
-10.5887
-10.7753
-10.9522
-11.1185
-11.2733
-11.4158
-11.5453
-11.6608
-11.7617
-11.8471
-11.9161
-11.9681
-12.0022
-12.0176
-12.0136
-11.9893
-11.944
-11.8771
-11.7878
-11.6755
-11.5397
-11.3797
-11.1949
-10.9847
-10.7486
-10.4861
-10.1968
-9.88025
-9.53622
-9.16447
-8.76485
-8.33728
-7.88183
-7.39863
-6.88798
-6.35031
-5.78621
-5.19646
-4.58208
-3.94429
-3.28458
-2.60474
-1.90687
-1.19339
-0.46709
0.268891
1.01104
1.75548
2.498
3.23406
3.95889
4.66752
5.35482
6.01567
6.64503
7.23828
7.79127
8.30024
8.76199
9.17404
9.53471
9.84315
10.0995
10.3046
10.4603
10.5692
10.6344
10.6597
10.6492
10.6071
10.5381
10.4466
10.3371
10.2137
10.0805
9.94118
9.7989
9.6566
9.51671
9.38127
9.25189
9.12975
9.01553
8.90962
8.8124
8.72362
8.64316
8.57058
8.50539
8.44711
8.39528
8.34944
8.3091
8.27379
8.24301
8.21623
8.19297
8.17271
8.15502
8.13946
8.12567
8.11335
8.10224
8.09211
8.0828
8.07418
8.06615
8.05866
8.05163
8.04503
8.03881
8.03293
8.02735
8.02206
8.01701
8.0122
8.00759
8.00319
7.99898
7.99496
7.99115
7.98756
7.98423
7.9812
7.97853
7.97631
7.97465
7.97369
7.97362
7.9747
7.97724
7.98165
7.98845
7.9983
8.01199
8.03031
8.05412
8.08249
8.1143
8.13278
-5.11664
-5.17864
-5.2448
-5.29466
-5.33092
-5.36103
-5.38926
-5.4182
-5.44996
-5.4864
-5.52918
-5.57977
-5.63957
-5.70981
-5.79158
-5.88571
-5.99273
-6.11285
-6.24593
-6.39153
-6.54897
-6.71739
-6.89583
-7.08327
-7.27868
-7.48102
-7.68929
-7.90248
-8.11961
-8.33973
-8.56187
-8.78507
-9.00839
-9.23088
-9.45161
-9.66963
-9.88403
-10.0939
-10.2983
-10.4963
-10.6872
-10.8699
-11.0437
-11.2077
-11.361
-11.5029
-11.6323
-11.7486
-11.8508
-11.9381
-12.0096
-12.0646
-12.1021
-12.1214
-12.1216
-12.1019
-12.0615
-11.9997
-11.9158
-11.8091
-11.679
-11.5248
-11.3459
-11.1418
-10.9118
-10.6555
-10.3725
-10.0624
-9.72476
-9.35948
-8.96634
-8.54526
-8.09626
-7.61945
-7.11508
-6.58354
-6.02538
-5.44133
-4.83233
-4.19956
-3.54444
-2.8687
-2.17436
-1.4638
-0.739741
-0.00527461
0.736119
1.48059
2.22392
2.96157
3.68871
4.40028
5.09104
5.75581
6.38957
6.98765
7.54564
8.05968
8.52657
8.94382
9.30979
9.6237
9.88564
10.0966
10.2585
10.3738
10.4457
10.4781
10.4749
10.4405
10.3795
10.2962
10.1951
10.0802
9.95567
9.82491
9.69115
9.5572
9.42544
9.29782
9.17588
9.06076
8.95317
8.85356
8.76216
8.67886
8.60347
8.53566
8.47495
8.42087
8.37295
8.33068
8.29358
8.26115
8.23289
8.20831
8.18691
8.16823
8.15186
8.13739
8.12449
8.11288
8.10233
8.09264
8.08367
8.07529
8.06744
8.06005
8.05308
8.04649
8.04025
8.03432
8.02868
8.0233
8.01816
8.01324
8.00852
8.004
7.99966
7.99552
7.99157
7.98783
7.98434
7.98112
7.97824
7.97576
7.9738
7.97247
7.97194
7.97242
7.97418
7.97756
7.98295
7.99085
8.00176
8.01605
8.03386
8.05357
8.07258
8.07675
-4.99051
-5.06147
-5.14016
-5.19994
-5.24398
-5.28135
-5.31732
-5.35508
-5.39713
-5.4456
-5.50224
-5.56844
-5.64532
-5.7337
-5.8341
-5.94675
-6.0716
-6.20831
-6.35632
-6.51492
-6.68325
-6.86041
-7.04549
-7.23756
-7.43573
-7.63916
-7.84701
-8.0585
-8.27285
-8.4893
-8.7071
-8.92548
-9.14368
-9.36092
-9.57642
-9.78938
-9.99899
-10.2044
-10.4049
-10.5995
-10.7875
-10.968
-11.1402
-11.3032
-11.4561
-11.5982
-11.7284
-11.846
-11.9501
-12.0397
-12.1141
-12.1723
-12.2134
-12.2366
-12.241
-12.2259
-12.1903
-12.1334
-12.0548
-11.9534
-11.8288
-11.6802
-11.507
-11.3086
-11.0845
-10.8342
-10.5571
-10.253
-9.92144
-9.56221
-9.17511
-8.76002
-8.31692
-7.84591
-7.34718
-6.82108
-6.26811
-5.68894
-5.08447
-4.45579
-3.80428
-3.13159
-2.43969
-1.7309
-1.00789
-0.273721
0.468158
1.21389
1.95926
2.69965
3.43012
4.14553
4.84059
5.51011
6.14894
6.75219
7.31536
7.83451
8.30638
8.72849
9.09917
9.41771
9.68426
9.89991
10.0665
10.1868
10.264
10.3019
10.3045
10.2764
10.2219
10.1455
10.0516
9.94422
9.82728
9.70428
9.57833
9.45217
9.32809
9.20799
9.09335
8.98525
8.8844
8.79123
8.70591
8.62839
8.55845
8.49578
8.4399
8.39035
8.34662
8.30821
8.27461
8.24531
8.21983
8.19767
8.17837
8.16149
8.14664
8.13346
8.12164
8.11093
8.10111
8.09201
8.08352
8.07552
8.06795
8.06077
8.05395
8.04745
8.04125
8.03534
8.02967
8.02425
8.01905
8.01406
8.00925
8.00463
8.00019
7.99592
7.99184
7.98796
7.98429
7.98088
7.97777
7.97502
7.97273
7.97098
7.96994
7.96975
7.97065
7.97289
7.97676
7.98257
7.99058
8.00081
8.01287
8.0247
8.03303
8.02608
-4.9149
-4.98887
-5.07296
-5.13895
-5.1894
-5.23364
-5.2773
-5.32377
-5.37566
-5.43513
-5.50382
-5.58295
-5.67333
-5.77541
-5.88933
-6.0149
-6.15175
-6.29926
-6.45671
-6.62328
-6.79812
-6.98036
-7.16917
-7.36373
-7.56329
-7.76711
-7.97451
-8.18482
-8.39739
-8.61158
-8.82675
-9.04225
-9.25743
-9.4716
-9.68407
-9.89414
-10.1011
-10.3041
-10.5025
-10.6955
-10.8823
-11.062
-11.2339
-11.3971
-11.5506
-11.6938
-11.8256
-11.9452
-12.0518
-12.1442
-12.2218
-12.2835
-12.3286
-12.3559
-12.3648
-12.3543
-12.3237
-12.272
-12.1985
-12.1026
-11.9834
-11.8405
-11.673
-11.4804
-11.2621
-11.0177
-10.7465
-10.4484
-10.1228
-9.76947
-9.38825
-8.97896
-8.54157
-8.0761
-7.58273
-7.06175
-6.51359
-5.93889
-5.33847
-4.71338
-4.06493
-3.39469
-2.7046
-1.99691
-1.27425
-0.539647
0.203449
0.95115
1.69919
2.44287
3.17722
3.89703
4.59697
5.27161
5.91568
6.52413
7.09237
7.61636
8.09279
8.51915
8.89382
9.21612
9.48632
9.70557
9.87588
10
10.0813
10.1236
10.1311
10.1082
10.0595
9.9892
9.90179
9.80132
9.69156
9.57597
9.45759
9.33907
9.22265
9.11014
9.00294
8.9021
8.8083
8.72192
8.64312
8.57182
8.50781
8.45073
8.40012
8.35549
8.31634
8.28213
8.25235
8.22649
8.20405
8.18456
8.16759
8.15273
8.1396
8.12789
8.11731
8.10765
8.0987
8.09034
8.08244
8.07492
8.06774
8.06086
8.05427
8.04793
8.04184
8.03598
8.03035
8.02493
8.0197
8.01466
8.0098
8.0051
8.00056
7.99619
7.99198
7.98795
7.98411
7.9805
7.97715
7.97411
7.97146
7.96927
7.96766
7.96677
7.96674
7.96777
7.97003
7.97368
7.97877
7.98505
7.99172
7.99654
7.99599
7.98039
-4.89335
-4.96439
-5.04691
-5.11457
-5.16881
-5.21811
-5.26783
-5.32125
-5.38084
-5.4486
-5.52601
-5.61409
-5.71343
-5.82424
-5.94645
-6.07969
-6.22342
-6.37695
-6.53951
-6.71029
-6.88846
-7.07324
-7.26385
-7.45957
-7.6597
-7.86361
-8.07066
-8.28028
-8.49187
-8.70486
-8.91868
-9.13273
-9.34642
-9.55913
-9.77024
-9.97908
-10.185
-10.3872
-10.5851
-10.7779
-10.9648
-11.145
-11.3177
-11.482
-11.6372
-11.7823
-11.9165
-12.0388
-12.1484
-12.2442
-12.3255
-12.3912
-12.4405
-12.4723
-12.486
-12.4804
-12.4549
-12.4085
-12.3405
-12.2502
-12.1367
-11.9996
-11.838
-11.6513
-11.4391
-11.2006
-10.9356
-10.6435
-10.324
-9.97668
-9.6014
-9.19796
-8.76628
-8.30635
-7.81829
-7.30235
-6.7589
-6.18853
-5.592
-4.97031
-4.32469
-3.65666
-2.96808
-2.26119
-1.53861
-0.803309
-0.0587952
0.691025
1.44189
2.18906
2.92749
3.65183
4.35658
5.03619
5.6852
6.29847
6.87126
7.39946
7.87971
8.3095
8.68727
9.0124
9.28526
9.50716
9.68021
9.8073
9.89187
9.93788
9.94958
9.93141
9.88786
9.82338
9.74224
9.64849
9.54584
9.43767
9.32696
9.21627
9.10775
9.00313
8.90377
8.81062
8.72434
8.64526
8.57349
8.50896
8.45139
8.40041
8.35555
8.31631
8.28215
8.25254
8.22693
8.20482
8.18573
8.16919
8.15479
8.14215
8.13094
8.12087
8.11169
8.10321
8.09527
8.08774
8.08054
8.0736
8.06689
8.06039
8.05408
8.04797
8.04204
8.0363
8.03074
8.02535
8.02013
8.01508
8.01017
8.00541
8.0008
7.99633
7.992
7.98782
7.98382
7.98
7.9764
7.97306
7.97002
7.96737
7.96517
7.96352
7.96253
7.9623
7.96292
7.96441
7.96663
7.96912
7.97084
7.96949
7.9616
7.9392
-4.91614
-4.97943
-5.05472
-5.11966
-5.17453
-5.22628
-5.27958
-5.33734
-5.40177
-5.47461
-5.55714
-5.65023
-5.75434
-5.86957
-5.99575
-6.13248
-6.27918
-6.43517
-6.59971
-6.77201
-6.95132
-7.13687
-7.32796
-7.5239
-7.72405
-7.92781
-8.1346
-8.34385
-8.55501
-8.76754
-8.9809
-9.19452
-9.40785
-9.6203
-9.83127
-10.0401
-10.2462
-10.4489
-10.6475
-10.8412
-11.0292
-11.2109
-11.3854
-11.5518
-11.7094
-11.8572
-11.9944
-12.12
-12.2331
-12.3329
-12.4183
-12.4884
-12.5422
-12.579
-12.5976
-12.5974
-12.5772
-12.5364
-12.4742
-12.3897
-12.2823
-12.1512
-11.9957
-11.8153
-11.6093
-11.3772
-11.1184
-10.8326
-10.5194
-10.1783
-9.80918
-9.41177
-8.98596
-8.53171
-8.04908
-7.53827
-6.99961
-6.43362
-5.84101
-5.22274
-4.57997
-3.91418
-3.22716
-2.52119
-1.79885
-1.06305
-0.3173
0.434498
1.18799
1.93838
2.68049
3.40886
4.11784
4.80171
5.45489
6.07207
6.64844
7.17982
7.66281
8.09493
8.47469
8.80158
9.07612
9.29973
9.47469
9.60401
9.69127
9.74049
9.75601
9.74229
9.70385
9.64511
9.5703
9.48342
9.38812
9.28768
9.185
9.08255
8.9824
8.8862
8.79521
8.71035
8.63217
8.561
8.49688
8.43969
8.38915
8.34482
8.30623
8.27285
8.24414
8.21952
8.19846
8.18046
8.16501
8.1517
8.14012
8.12993
8.12083
8.11257
8.10494
8.09777
8.09093
8.08434
8.07792
8.07163
8.06546
8.0594
8.05345
8.04761
8.0419
8.03632
8.03086
8.02555
8.02037
8.01531
8.01039
8.00559
8.00091
7.99635
7.99191
7.9876
7.98342
7.97939
7.97554
7.97188
7.96846
7.96532
7.9625
7.96008
7.9581
7.9566
7.95557
7.95493
7.95438
7.95332
7.95055
7.9438
7.92982
7.90206
-4.96562
-5.01818
-5.08247
-5.14124
-5.19383
-5.24542
-5.29975
-5.35924
-5.42574
-5.50074
-5.58532
-5.68022
-5.78582
-5.90221
-6.02921
-6.16645
-6.31339
-6.46939
-6.63375
-6.80575
-6.98467
-7.1698
-7.36045
-7.55598
-7.75577
-7.95922
-8.16576
-8.37486
-8.58596
-8.79854
-9.01206
-9.22597
-9.43973
-9.65276
-9.86448
-10.0743
-10.2815
-10.4855
-10.6856
-10.881
-11.0711
-11.255
-11.432
-11.6012
-11.7618
-11.9129
-12.0536
-12.183
-12.3002
-12.4042
-12.4941
-12.5689
-12.6277
-12.6696
-12.6936
-12.6989
-12.6844
-12.6495
-12.5933
-12.5149
-12.4137
-12.289
-12.1399
-11.966
-11.7665
-11.541
-11.2889
-11.0096
-10.7029
-10.3683
-10.0056
-9.61443
-9.19471
-8.74634
-8.26933
-7.76385
-7.23016
-6.66873
-6.08025
-5.46565
-4.82602
-4.16279
-3.47775
-2.77307
-2.0513
-1.31543
-0.56895
0.184207
0.939615
1.69239
2.43726
3.16862
3.88066
4.56754
5.22353
5.84322
6.4217
6.95475
7.43901
7.87205
8.25246
8.5799
8.85502
9.07941
9.25551
9.38646
9.47596
9.52813
9.54734
9.53808
9.50488
9.45211
9.38397
9.30437
9.21688
9.1247
9.03063
8.93705
8.84592
8.7588
8.67687
8.60097
8.5316
8.469
8.4132
8.36401
8.32108
8.28399
8.25221
8.2252
8.20238
8.18319
8.16707
8.15352
8.14204
8.13224
8.12373
8.11621
8.10941
8.10312
8.09716
8.09142
8.0858
8.08023
8.07467
8.06911
8.06354
8.05797
8.05242
8.04691
8.04145
8.03606
8.03075
8.02554
8.02041
8.01539
8.01047
8.00564
8.00091
7.99627
7.99173
7.98729
7.98294
7.9787
7.97459
7.97061
7.96679
7.96315
7.95972
7.95651
7.95353
7.95076
7.94812
7.9454
7.94223
7.93787
7.93106
7.91963
7.90058
7.86854
-5.02225
-5.06289
-5.11435
-5.16477
-5.21296
-5.26232
-5.31562
-5.37473
-5.44115
-5.51609
-5.60046
-5.6949
-5.79977
-5.91515
-6.04091
-6.17673
-6.32215
-6.47658
-6.6394
-6.80993
-6.9875
-7.17143
-7.36106
-7.55576
-7.75491
-7.95793
-8.16425
-8.37332
-8.58459
-8.79754
-9.01163
-9.2263
-9.441
-9.65517
-9.86822
-10.0795
-10.2885
-10.4944
-10.6966
-10.8944
-11.0871
-11.2738
-11.4538
-11.6262
-11.7903
-11.9451
-12.0897
-12.2232
-12.3447
-12.4532
-12.5479
-12.6277
-12.6916
-12.7389
-12.7684
-12.7794
-12.7708
-12.7419
-12.6919
-12.6199
-12.5252
-12.407
-12.2646
-12.0974
-11.9047
-11.686
-11.4407
-11.1683
-10.8684
-10.5405
-10.1844
-9.79967
-9.38627
-8.94403
-8.47291
-7.97303
-7.44462
-6.88812
-6.30412
-5.69349
-5.05735
-4.39709
-3.71448
-3.01165
-2.29116
-1.55601
-0.809703
-0.0562253
0.699926
1.45378
2.19994
2.93269
3.64608
4.33414
4.99102
5.61123
6.18984
6.72262
7.20627
7.63846
8.01795
8.34452
8.61903
8.84324
9.01974
9.15181
9.24326
9.29826
9.32122
9.31665
9.28903
9.2427
9.18176
9.11006
9.03105
8.94785
8.86313
8.77917
8.69783
8.62058
8.5485
8.48234
8.42254
8.36926
8.32248
8.28195
8.24728
8.21801
8.1936
8.17347
8.15702
8.14368
8.13289
8.12413
8.11695
8.11093
8.10575
8.10111
8.09679
8.09263
8.08849
8.08429
8.07997
8.0755
8.07087
8.06609
8.06117
8.05614
8.05104
8.04589
8.04072
8.03556
8.03042
8.02533
8.0203
8.01533
8.01042
8.00558
8.00081
7.99611
7.99147
7.9869
7.98239
7.97795
7.97358
7.96928
7.96506
7.96092
7.95686
7.95287
7.9489
7.94488
7.94067
7.93598
7.93034
7.92295
7.91253
7.89704
7.87377
7.83828
-5.06853
-5.09767
-5.13613
-5.1773
-5.21989
-5.26575
-5.31667
-5.37402
-5.43895
-5.51241
-5.59518
-5.6878
-5.79061
-5.90373
-6.02707
-6.16038
-6.30328
-6.45527
-6.61578
-6.78418
-6.95985
-7.14213
-7.33039
-7.52401
-7.72237
-7.92488
-8.13098
-8.3401
-8.55169
-8.76519
-8.98007
-9.19576
-9.41171
-9.62733
-9.84204
-10.0552
-10.2663
-10.4745
-10.6791
-10.8796
-11.0751
-11.2649
-11.4482
-11.6241
-11.7918
-11.9504
-12.0991
-12.2369
-12.3628
-12.476
-12.5755
-12.6604
-12.7296
-12.7822
-12.8174
-12.8341
-12.8316
-12.8088
-12.7651
-12.6996
-12.6115
-12.5
-12.3644
-12.204
-12.0183
-11.8066
-11.5683
-11.3029
-11.01
-10.689
-10.3397
-9.96176
-9.55486
-9.1189
-8.65383
-8.15973
-7.63681
-7.08545
-6.50625
-5.90001
-5.26783
-4.6111
-3.93158
-3.23139
-2.5131
-1.77974
-1.03484
-0.282454
0.472851
1.22601
1.97152
2.70353
3.416
4.10285
4.75815
5.37639
5.95264
6.48276
6.96353
7.39281
7.76951
8.09364
8.36624
8.58926
8.76543
8.89817
8.99135
9.04919
9.07612
9.07661
9.05507
9.01578
8.96275
8.8997
8.82998
8.75659
8.68208
8.60862
8.53795
8.47143
8.41005
8.35446
8.30502
8.26184
8.22482
8.19364
8.16788
8.14704
8.13055
8.11781
8.1082
8.10114
8.09605
8.09244
8.08985
8.0879
8.08628
8.08473
8.08308
8.0812
8.079
8.07645
8.07352
8.07022
8.06658
8.06263
8.05841
8.05397
8.04935
8.04459
8.03974
8.03484
8.0299
8.02496
8.02004
8.01513
8.01026
8.00543
8.00063
7.99587
7.99115
7.98645
7.98179
7.97714
7.97252
7.9679
7.96329
7.95865
7.95398
7.94921
7.94428
7.93905
7.93333
7.92677
7.91883
7.90869
7.89507
7.87607
7.84925
7.81097
-5.08989
-5.11068
-5.13729
-5.16945
-5.20612
-5.2479
-5.29575
-5.3506
-5.41328
-5.48454
-5.56502
-5.65519
-5.75537
-5.86571
-5.98618
-6.11659
-6.25662
-6.40584
-6.56375
-6.72978
-6.90333
-7.08379
-7.27053
-7.46295
-7.66044
-7.8624
-8.06825
-8.27741
-8.48933
-8.70343
-8.91916
-9.13595
-9.35323
-9.57041
-9.78689
-10.002
-10.2152
-10.4258
-10.6331
-10.8363
-11.0347
-11.2276
-11.4142
-11.5936
-11.7649
-11.9274
-12.0801
-12.2221
-12.3524
-12.4702
-12.5745
-12.6643
-12.7387
-12.7967
-12.8374
-12.8598
-12.8632
-12.8466
-12.8092
-12.7501
-12.6685
-12.5637
-12.4349
-12.2815
-12.1027
-11.898
-11.6668
-11.4084
-11.1225
-10.8085
-10.466
-10.0948
-9.69448
-9.26491
-8.80603
-8.31786
-7.80062
-7.25466
-6.68055
-6.07911
-5.45141
-4.79886
-4.12321
-3.42661
-2.71164
-1.98139
-1.23942
-0.489869
0.262625
1.0129
1.75534
2.48402
3.1928
3.87553
4.52629
5.13958
5.71055
6.23521
6.71053
7.13455
7.50643
7.8264
8.09572
8.3165
8.49164
8.62462
8.71939
8.78018
8.81136
8.81737
8.80252
8.77098
8.72663
8.67307
8.61354
8.55086
8.48748
8.42544
8.36635
8.31146
8.26166
8.2175
8.17925
8.14696
8.12042
8.09928
8.08308
8.07128
8.06327
8.05842
8.05611
8.05573
8.05673
8.0586
8.06091
8.06328
8.06545
8.0672
8.06839
8.06893
8.06879
8.06798
8.06653
8.06447
8.06187
8.0588
8.05531
8.05149
8.04738
8.04305
8.03855
8.03392
8.02921
8.02444
8.01964
8.01482
8.01
8.00519
8.00038
7.99557
7.99077
7.98596
7.98115
7.97631
7.97143
7.96651
7.9615
7.95639
7.95111
7.94559
7.93972
7.93334
7.92618
7.91787
7.90783
7.89519
7.87873
7.85669
7.82691
7.78633
-5.08024
-5.0928
-5.11028
-5.13505
-5.16633
-5.2041
-5.2488
-5.301
-5.36128
-5.4302
-5.50829
-5.59595
-5.6935
-5.80109
-5.91872
-6.04627
-6.18347
-6.32997
-6.48531
-6.64898
-6.82042
-6.99904
-7.18425
-7.37544
-7.572
-7.77335
-7.97889
-8.18804
-8.40021
-8.61484
-8.83135
-9.04916
-9.26768
-9.48632
-9.70446
-9.92148
-10.1367
-10.3495
-10.5592
-10.765
-10.9662
-11.162
-11.3517
-11.5343
-11.7091
-11.8752
-12.0317
-12.1776
-12.3121
-12.4343
-12.543
-12.6375
-12.7168
-12.7799
-12.8259
-12.8539
-12.863
-12.8523
-12.8209
-12.7681
-12.6929
-12.5946
-12.4725
-12.3258
-12.1539
-11.9561
-11.7317
-11.4803
-11.2012
-10.8941
-10.5584
-10.1937
-9.79992
-9.3767
-8.92399
-8.44181
-7.93035
-7.38997
-6.82125
-6.225
-5.60233
-4.95465
-4.28375
-3.5918
-2.88145
-2.15582
-1.41856
-0.673862
0.0735231
0.818348
1.55492
2.27723
2.97909
3.65437
4.29719
4.90217
5.46461
5.98073
6.44776
6.86401
7.22891
7.54293
7.80755
8.02505
8.19845
8.3313
8.42756
8.49142
8.52721
8.53923
8.5317
8.50863
8.47378
8.43058
8.38212
8.33108
8.27976
8.23005
8.18346
8.1411
8.10375
8.07187
8.04563
8.02497
8.00964
7.99922
7.99322
7.99103
7.99202
7.99556
8.00098
8.00769
8.01513
8.02279
8.03027
8.03722
8.0434
8.04862
8.05281
8.05591
8.05795
8.05897
8.05906
8.0583
8.05679
8.05464
8.05192
8.04874
8.04517
8.04129
8.03715
8.03283
8.02836
8.02378
8.01912
8.01441
8.00965
8.00487
8.00005
7.99521
7.99034
7.98544
7.98048
7.97545
7.97034
7.96511
7.95973
7.95415
7.94829
7.94205
7.93529
7.92781
7.91931
7.90937
7.8974
7.88252
7.86356
7.8389
7.80661
7.76414
-5.03958
-5.04419
-5.05365
-5.07181
-5.0982
-5.13219
-5.17384
-5.22343
-5.28138
-5.34809
-5.42397
-5.50939
-5.6046
-5.70977
-5.82491
-5.94994
-6.08464
-6.2287
-6.38171
-6.5432
-6.71266
-6.88953
-7.07323
-7.26317
-7.45876
-7.6594
-7.8645
-8.07348
-8.28574
-8.5007
-8.71777
-8.93637
-9.15589
-9.37572
-9.59526
-9.81385
-10.0308
-10.2456
-10.4573
-10.6654
-10.869
-11.0674
-11.2598
-11.4453
-11.6232
-11.7925
-11.9524
-12.1019
-12.2402
-12.3662
-12.4792
-12.578
-12.6619
-12.7297
-12.7807
-12.8139
-12.8285
-12.8234
-12.7979
-12.7511
-12.6821
-12.5902
-12.4745
-12.3343
-12.169
-11.9779
-11.7603
-11.5155
-11.2432
-10.9427
-10.6135
-10.2554
-9.86796
-9.451
-9.00442
-8.52825
-8.02268
-7.4881
-6.92508
-6.33449
-5.71745
-5.07542
-4.41023
-3.72413
-3.01982
-2.30049
-1.56988
-0.832295
-0.0925585
0.643984
1.37157
2.08414
2.77552
3.43964
4.07074
4.66364
5.2139
5.71804
6.17361
6.57926
6.93471
7.24073
7.499
7.71197
7.88276
8.01495
8.11248
8.17947
8.22015
8.23868
8.23912
8.22531
8.20084
8.16897
8.13259
8.09425
8.05607
8.0198
7.9868
7.95806
7.93423
7.91566
7.90242
7.89436
7.89113
7.89227
7.89724
7.90539
7.91606
7.92857
7.94227
7.95655
7.97085
7.9847
7.99769
8.00951
8.01995
8.02888
8.03625
8.04207
8.04641
8.04938
8.0511
8.0517
8.05134
8.05015
8.04824
8.04573
8.04272
8.03931
8.03558
8.03157
8.02736
8.02299
8.0185
8.0139
8.00922
8.00448
7.99968
7.99481
7.98989
7.98488
7.97979
7.97459
7.96925
7.96374
7.958
7.95196
7.94554
7.93862
7.93101
7.9225
7.91276
7.90133
7.8876
7.87072
7.84956
7.82265
7.78824
7.74421
-4.97279
-4.96894
-4.97112
-4.9834
-5.0052
-5.03556
-5.07426
-5.12146
-5.17738
-5.24231
-5.31656
-5.40039
-5.49401
-5.59754
-5.711
-5.83429
-5.96723