/*--------------------------------*- C++ -*----------------------------------*\
| =========                 |                                                 |
| \\      /  F ield         | OpenFOAM: The Open Source CFD Toolbox           |
|  \\    /   O peration     | Version:  2412                                  |
|   \\  /    A nd           | Website:  www.openfoam.com                      |
|    \\/     M anipulation  |                                                 |
\*---------------------------------------------------------------------------*/
FoamFile
{
    version     2.0;
    format      ascii;
    arch        "LSB;label=32;scalar=64";
    class       surfaceScalarField;
    location    "0.03";
    object      phi;
}
// * * * * * * * * * * * * * * * * * * * * * * * * * * * * * * * * * * * * * //

dimensions      [0 3 -1 0 0 0 0];

oriented        oriented;

internalField   nonuniform List<scalar> 
24170
(
1.36697e-07
-5.71531e-08
1.9539e-07
-5.86928e-08
2.5728e-07
-6.189e-08
3.10472e-07
-5.31916e-08
3.59911e-07
-4.94395e-08
4.052e-07
-4.5289e-08
4.45911e-07
-4.07107e-08
4.82388e-07
-3.64768e-08
5.15015e-07
-3.26272e-08
5.44124e-07
-2.91088e-08
5.70028e-07
-2.59039e-08
5.93001e-07
-2.29731e-08
6.1326e-07
-2.02593e-08
6.30947e-07
-1.76872e-08
6.46153e-07
-1.52057e-08
6.58717e-07
-1.25642e-08
6.68815e-07
-1.00974e-08
-5.86422e-09
6.74679e-07
3.26057e-07
-1.24758e-07
3.9381e-07
-1.26446e-07
4.55096e-07
-1.23175e-07
5.12752e-07
-1.10848e-07
5.6545e-07
-1.02138e-07
6.13472e-07
-9.33104e-08
6.57048e-07
-8.42868e-08
6.96406e-07
-7.58345e-08
7.31841e-07
-6.80623e-08
7.63667e-07
-6.09355e-08
7.92179e-07
-5.44162e-08
8.17633e-07
-4.84267e-08
8.40234e-07
-4.286e-08
8.60125e-07
-3.75784e-08
8.77371e-07
-3.24516e-08
8.91913e-07
-2.71063e-08
9.03638e-07
-2.18222e-08
-1.33169e-08
9.1109e-07
5.17152e-07
-1.71454e-07
5.7875e-07
-1.88044e-07
6.37292e-07
-1.81717e-07
6.93748e-07
-1.67304e-07
7.45695e-07
-1.54085e-07
7.93285e-07
-1.409e-07
8.36773e-07
-1.27775e-07
8.76298e-07
-1.1536e-07
9.12076e-07
-1.0384e-07
9.44364e-07
-9.3224e-08
9.73413e-07
-8.34647e-08
9.99444e-07
-7.44578e-08
1.02264e-06
-6.60566e-08
1.04314e-06
-5.80729e-08
1.06098e-06
-5.02967e-08
1.07619e-06
-4.23116e-08
1.08834e-06
-3.39791e-08
-2.21784e-08
1.0972e-06
7.43355e-07
-1.95139e-07
7.91441e-07
-2.3613e-07
8.42782e-07
-2.33059e-07
8.94554e-07
-2.19076e-07
9.43283e-07
-2.02814e-07
9.88469e-07
-1.86086e-07
1.03014e-06
-1.69445e-07
1.0683e-06
-1.53518e-07
1.10305e-06
-1.38596e-07
1.13458e-06
-1.24751e-07
1.16306e-06
-1.11948e-07
1.18868e-06
-1.00073e-07
1.21157e-06
-8.89523e-08
1.23186e-06
-7.83623e-08
1.2496e-06
-6.8031e-08
1.26479e-06
-5.75073e-08
1.27718e-06
-4.63648e-08
-3.21489e-08
1.28715e-06
1.01477e-06
-1.99438e-07
1.04675e-06
-2.68111e-07
1.08735e-06
-2.73659e-07
1.13139e-06
-2.63112e-07
1.17451e-06
-2.45934e-07
1.21533e-06
-2.26907e-07
1.25349e-06
-2.07604e-07
1.2888e-06
-1.88826e-07
1.32122e-06
-1.71017e-07
1.35081e-06
-1.54348e-07
1.37769e-06
-1.38823e-07
1.40195e-06
-1.24338e-07
1.42372e-06
-1.10715e-07
1.44306e-06
-9.77083e-08
1.46004e-06
-8.50122e-08
1.4747e-06
-7.21689e-08
1.48698e-06
-5.86435e-08
-4.26403e-08
1.49747e-06
1.3379e-06
-1.89899e-07
1.35363e-06
-2.83844e-07
1.38113e-06
-3.01154e-07
1.41474e-06
-2.96723e-07
1.44986e-06
-2.81052e-07
1.48426e-06
-2.61316e-07
1.51712e-06
-2.40463e-07
1.548e-06
-2.19699e-07
1.57667e-06
-1.99693e-07
1.60308e-06
-1.80755e-07
1.62722e-06
-1.62963e-07
1.64913e-06
-1.46247e-07
1.66886e-06
-1.30444e-07
1.68647e-06
-1.15314e-07
1.702e-06
-1.00544e-07
1.71554e-06
-8.57068e-08
1.72717e-06
-7.02791e-08
-5.30144e-08
1.73754e-06
1.71747e-06
-1.72089e-07
1.7186e-06
-2.84973e-07
1.73208e-06
-3.14629e-07
1.75328e-06
-3.17933e-07
1.77822e-06
-3.05991e-07
1.8042e-06
-2.87294e-07
1.82993e-06
-2.66193e-07
1.85472e-06
-2.44486e-07
1.87815e-06
-2.2313e-07
1.90002e-06
-2.02622e-07
1.92021e-06
-1.83147e-07
1.93866e-06
-1.64699e-07
1.95537e-06
-1.47153e-07
1.97035e-06
-1.30297e-07
1.98365e-06
-1.13844e-07
1.99537e-06
-9.74254e-08
2.00569e-06
-8.05997e-08
-6.25529e-08
2.01523e-06
2.15712e-06
-1.5052e-07
2.14641e-06
-2.74266e-07
2.14647e-06
-3.14682e-07
2.15441e-06
-3.25871e-07
2.16757e-06
-3.19154e-07
2.18337e-06
-3.03095e-07
2.20026e-06
-2.83087e-07
2.21735e-06
-2.6157e-07
2.23405e-06
-2.39826e-07
2.24999e-06
-2.18563e-07
2.26494e-06
-1.98104e-07
2.27878e-06
-1.78532e-07
2.29141e-06
-1.59786e-07
2.30281e-06
-1.41702e-07
2.31302e-06
-1.24048e-07
2.32213e-06
-1.06534e-07
2.33036e-06
-8.8832e-08
-7.04575e-08
2.33826e-06
2.65989e-06
-1.2822e-07
2.64047e-06
-2.54843e-07
2.62889e-06
-3.03103e-07
2.62397e-06
-3.20955e-07
2.62469e-06
-3.19878e-07
2.62917e-06
-3.07567e-07
2.63589e-06
-2.89808e-07
2.64388e-06
-2.69566e-07
2.65247e-06
-2.48416e-07
2.66118e-06
-2.2727e-07
2.66967e-06
-2.06599e-07
2.67774e-06
-1.86594e-07
2.68522e-06
-1.67274e-07
2.69207e-06
-1.48546e-07
2.69827e-06
-1.30247e-07
2.70391e-06
-1.12178e-07
2.70922e-06
-9.41367e-08
-7.58756e-08
2.71463e-06
3.22851e-06
-1.06871e-07
3.20317e-06
-2.29503e-07
3.18231e-06
-2.82247e-07
3.16607e-06
-3.04709e-07
3.1548e-06
-3.08614e-07
3.14767e-06
-3.00432e-07
3.14353e-06
-2.85669e-07
3.14152e-06
-2.67556e-07
3.14098e-06
-2.47871e-07
3.14138e-06
-2.27675e-07
3.14235e-06
-2.0757e-07
3.14361e-06
-1.87853e-07
3.14497e-06
-1.68631e-07
3.14631e-06
-1.4989e-07
3.14762e-06
-1.31551e-07
3.14894e-06
-1.13503e-07
3.15047e-06
-9.56631e-08
-7.79447e-08
3.15254e-06
3.86548e-06
-8.73191e-08
3.83633e-06
-2.00354e-07
3.80844e-06
-2.5436e-07
3.78299e-06
-2.79255e-07
3.76117e-06
-2.86802e-07
3.74315e-06
-2.82407e-07
3.72832e-06
-2.70843e-07
3.7161e-06
-2.5533e-07
3.70595e-06
-2.37726e-07
3.69743e-06
-2.19154e-07
3.69016e-06
-2.00299e-07
3.68385e-06
-1.81545e-07
3.6783e-06
-1.63076e-07
3.67337e-06
-1.44958e-07
3.669e-06
-1.27188e-07
3.66524e-06
-1.09737e-07
3.6622e-06
-9.26253e-08
-7.58623e-08
3.66012e-06
3.81104e-06
-7.145e-08
3.78479e-06
-1.74107e-07
3.75727e-06
-2.26845e-07
3.73035e-06
-2.52326e-07
3.70534e-06
-2.61797e-07
3.68288e-06
-2.59942e-07
3.66288e-06
-2.50846e-07
3.64511e-06
-2.3756e-07
3.6293e-06
-2.21921e-07
3.61519e-06
-2.05043e-07
3.60253e-06
-1.87633e-07
3.5911e-06
-1.70114e-07
3.58074e-06
-1.52721e-07
3.57135e-06
-1.35572e-07
3.56288e-06
-1.18717e-07
3.55534e-06
-1.02192e-07
3.54874e-06
-8.60282e-08
-7.04992e-08
3.54338e-06
5.0369e-06
-5.55933e-08
5.00623e-06
-1.43433e-07
4.97181e-06
-1.92432e-07
4.93647e-06
-2.16983e-07
4.90194e-06
-2.27268e-07
4.8694e-06
-2.27399e-07
4.83917e-06
-2.2062e-07
4.81126e-06
-2.09652e-07
4.78559e-06
-1.96243e-07
4.76199e-06
-1.81453e-07
4.74032e-06
-1.65959e-07
4.7204e-06
-1.50193e-07
4.7021e-06
-1.3442e-07
4.68532e-06
-1.18795e-07
4.67002e-06
-1.03414e-07
4.65619e-06
-8.83577e-08
4.64386e-06
-7.36987e-08
-5.98161e-08
4.63317e-06
6.66218e-06
-4.03045e-08
6.62818e-06
-1.09428e-07
6.58715e-06
-1.51408e-07
6.54328e-06
-1.73108e-07
6.49872e-06
-1.8271e-07
6.45517e-06
-1.8385e-07
6.41346e-06
-1.78911e-07
6.3739e-06
-1.70085e-07
6.3366e-06
-1.58942e-07
6.30159e-06
-1.46449e-07
6.26885e-06
-1.33215e-07
6.2383e-06
-1.19646e-07
6.20989e-06
-1.06006e-07
6.18356e-06
-9.24682e-08
6.1593e-06
-7.91512e-08
6.1371e-06
-6.6158e-08
6.11699e-06
-5.35905e-08
-4.18519e-08
6.09902e-06
8.79059e-06
-2.62284e-08
8.75544e-06
-7.42803e-08
8.70959e-06
-1.05555e-07
8.65841e-06
-1.21929e-07
8.60464e-06
-1.2894e-07
8.55043e-06
-1.29645e-07
8.4972e-06
-1.25675e-07
8.44565e-06
-1.18537e-07
8.39617e-06
-1.09467e-07
8.349e-06
-9.9276e-08
8.30426e-06
-8.84699e-08
8.262e-06
-7.739e-08
8.22227e-06
-6.62731e-08
8.18508e-06
-5.52835e-08
8.15047e-06
-4.45409e-08
8.11846e-06
-3.41493e-08
8.08907e-06
-2.42026e-08
-1.51114e-08
8.06233e-06
1.15178e-05
-1.36916e-08
1.14838e-05
-4.02566e-08
1.14363e-05
-5.80418e-08
1.1381e-05
-6.66457e-08
1.13211e-05
-6.90854e-08
1.12591e-05
-6.7604e-08
1.11967e-05
-6.32783e-08
1.11351e-05
-5.69683e-08
1.10751e-05
-4.9465e-08
1.10172e-05
-4.13254e-08
1.09616e-05
-3.2896e-08
1.09086e-05
-2.44081e-08
1.08584e-05
-1.60302e-08
1.0811e-05
-7.88869e-09
1.07665e-05
-8.35062e-11
1.07251e-05
7.30461e-09
1.06866e-05
1.42277e-08
2.02871e-08
1.06512e-05
1.4884e-05
-2.28267e-09
1.48518e-05
-7.98731e-09
1.48047e-05
-1.0975e-08
1.47484e-05
-1.03226e-08
1.46864e-05
-7.09861e-09
1.46212e-05
-2.41431e-09
1.45547e-05
3.21152e-09
1.44883e-05
9.4375e-09
1.44229e-05
1.59068e-08
1.43592e-05
2.23662e-08
1.42977e-05
2.86544e-08
1.42386e-05
3.46701e-08
1.41822e-05
4.03391e-08
1.41287e-05
4.56025e-08
1.40782e-05
5.04159e-08
1.40308e-05
5.4725e-08
1.39865e-05
5.85468e-08
6.15265e-08
1.39453e-05
1.87689e-05
9.47214e-09
1.87363e-05
2.46534e-08
1.8688e-05
3.73667e-08
1.86296e-05
4.80461e-08
1.85654e-05
5.71301e-08
1.8498e-05
6.49485e-08
1.84295e-05
7.17232e-08
1.83613e-05
7.76192e-08
1.82945e-05
8.27614e-08
1.82296e-05
8.72428e-08
1.81671e-05
9.11273e-08
1.81073e-05
9.44576e-08
1.80504e-05
9.7261e-08
1.79964e-05
9.95522e-08
1.79455e-05
1.01341e-07
1.78976e-05
1.02618e-07
1.78527e-05
1.0344e-07
1.03549e-07
1.78107e-05
2.2677e-05
1.99881e-08
2.26406e-05
6.10351e-08
2.25851e-05
9.28584e-08
2.25178e-05
1.15413e-07
2.24436e-05
1.31274e-07
2.23661e-05
1.42506e-07
2.22876e-05
1.50218e-07
2.221e-05
1.55228e-07
2.21345e-05
1.58267e-07
2.20618e-05
1.59881e-07
2.19925e-05
1.6043e-07
2.19268e-05
1.60154e-07
2.18649e-05
1.59222e-07
2.18067e-05
1.57754e-07
2.17522e-05
1.5583e-07
2.17013e-05
1.53501e-07
2.16539e-05
1.50831e-07
1.47675e-07
2.16098e-05
1.56043e-05
3.52616e-08
1.55654e-05
9.99237e-08
1.55119e-05
1.46375e-07
1.54505e-05
1.7686e-07
1.5385e-05
1.9675e-07
1.53182e-05
2.09314e-07
1.52521e-05
2.16321e-07
1.5188e-05
2.19271e-07
1.51269e-05
2.19438e-07
1.5069e-05
2.17713e-07
1.50148e-05
2.14679e-07
1.49642e-05
2.10738e-07
1.49173e-05
2.06175e-07
1.48738e-05
2.01192e-07
1.48337e-05
1.95929e-07
1.47967e-05
1.9049e-07
1.47626e-05
1.84945e-07
1.79247e-07
1.4731e-05
1.23906e-05
5.3444e-08
1.23463e-05
1.44307e-07
1.22896e-05
2.03058e-07
1.22279e-05
2.38534e-07
1.21647e-05
2.59944e-07
1.21026e-05
2.71456e-07
1.20432e-05
2.75653e-07
1.19876e-05
2.74903e-07
1.19361e-05
2.70992e-07
1.18887e-05
2.65066e-07
1.18455e-05
2.57869e-07
1.18063e-05
2.49916e-07
1.1771e-05
2.41559e-07
1.17391e-05
2.33035e-07
1.17105e-05
2.24499e-07
1.1685e-05
2.16057e-07
1.16622e-05
2.07764e-07
1.99614e-07
1.16418e-05
9.55969e-06
7.73476e-08
9.51127e-06
1.92727e-07
9.45687e-06
2.57461e-07
9.40224e-06
2.9316e-07
9.3497e-06
3.12481e-07
9.30119e-06
3.19964e-07
9.25761e-06
3.19235e-07
9.21905e-06
3.13467e-07
9.18531e-06
3.04729e-07
9.1561e-06
2.94273e-07
9.13106e-06
2.82913e-07
9.10978e-06
2.71192e-07
9.09188e-06
2.59462e-07
9.07698e-06
2.47938e-07
9.06473e-06
2.36749e-07
9.05481e-06
2.25971e-07
9.04695e-06
2.1563e-07
2.05737e-07
9.04082e-06
7.18041e-06
1.06391e-07
7.13403e-06
2.39101e-07
7.08995e-06
3.01538e-07
7.05042e-06
3.32692e-07
7.01666e-06
3.46248e-07
6.98953e-06
3.47088e-07
6.96867e-06
3.40095e-07
6.95326e-06
3.28876e-07
6.94253e-06
3.1546e-07
6.93577e-06
3.01031e-07
6.93234e-06
2.86343e-07
6.93168e-06
2.71858e-07
6.9333e-06
2.57843e-07
6.93679e-06
2.4444e-07
6.94183e-06
2.31714e-07
6.94811e-06
2.19687e-07
6.9554e-06
2.08342e-07
1.97683e-07
6.96346e-06
5.24591e-06
1.39201e-07
5.20914e-06
2.7587e-07
5.18312e-06
3.27556e-07
5.16613e-06
3.49678e-07
5.15804e-06
3.54337e-07
5.15774e-06
3.4739e-07
5.16335e-06
3.34484e-07
5.17334e-06
3.18888e-07
5.18657e-06
3.02228e-07
5.20217e-06
2.85436e-07
5.21944e-06
2.69072e-07
5.23786e-06
2.53438e-07
5.25703e-06
2.38675e-07
5.27664e-06
2.2483e-07
5.29646e-06
2.11897e-07
5.3163e-06
1.99842e-07
5.33603e-06
1.88612e-07
1.78201e-07
5.35551e-06
3.71493e-06
1.72407e-07
3.69721e-06
2.93593e-07
3.69679e-06
3.27971e-07
3.70829e-06
3.38175e-07
3.72924e-06
3.33386e-07
3.75634e-06
3.20289e-07
3.78699e-06
3.03837e-07
3.81961e-06
2.86274e-07
3.85316e-06
2.68669e-07
3.88696e-06
2.51641e-07
3.92051e-06
2.35521e-07
3.9535e-06
2.20449e-07
3.98572e-06
2.06458e-07
4.01703e-06
1.93519e-07
4.04735e-06
1.81573e-07
4.07664e-06
1.70548e-07
4.10489e-06
1.60371e-07
1.51032e-07
4.13205e-06
2.53567e-06
1.97332e-07
2.54721e-06
2.82052e-07
2.57687e-06
2.98311e-07
2.61754e-06
2.97513e-07
2.66459e-06
2.86331e-07
2.71401e-06
2.70866e-07
2.76375e-06
2.54103e-07
2.81276e-06
2.37259e-07
2.86044e-06
2.20992e-07
2.90642e-06
2.05661e-07
2.95052e-06
1.9142e-07
2.99267e-06
1.78301e-07
3.03286e-06
1.66267e-07
3.07113e-06
1.55248e-07
3.10754e-06
1.45161e-07
3.14217e-06
1.35919e-07
3.1751e-06
1.27442e-07
1.19737e-07
3.2064e-06
1.65491e-06
1.99524e-07
1.70135e-06
2.35616e-07
1.75874e-06
2.40925e-07
1.82261e-06
2.33635e-07
1.88793e-06
2.21016e-07
1.95169e-06
2.07105e-07
2.013e-06
1.92795e-07
2.07146e-06
1.78795e-07
2.12688e-06
1.65578e-07
2.17921e-06
1.53329e-07
2.22853e-06
1.42093e-07
2.27499e-06
1.31848e-07
2.31872e-06
1.22531e-07
2.35991e-06
1.14062e-07
2.39871e-06
1.06356e-07
2.4353e-06
9.93336e-08
2.46982e-06
9.29165e-08
8.71473e-08
2.50241e-06
1.01843e-06
1.63955e-07
1.09549e-06
1.58556e-07
1.17158e-06
1.64839e-07
1.24899e-06
1.56216e-07
1.32356e-06
1.46453e-07
1.39388e-06
1.3678e-07
1.46001e-06
1.2667e-07
1.52196e-06
1.16841e-07
1.57983e-06
1.0771e-07
1.63382e-06
9.93443e-08
1.68417e-06
9.17349e-08
1.73117e-06
8.4848e-08
1.77508e-06
7.86258e-08
1.81614e-06
7.30007e-08
1.85459e-06
6.7906e-08
1.89064e-06
6.3282e-08
1.92451e-06
5.905e-08
5.52893e-08
1.95637e-06
5.69327e-07
8.45449e-08
6.59428e-07
6.84549e-08
7.4182e-07
8.24474e-08
8.22741e-07
7.52953e-08
8.98746e-07
7.0448e-08
9.69459e-07
6.60671e-08
1.03517e-06
6.09598e-08
1.09607e-06
5.59361e-08
1.15244e-06
5.13474e-08
1.2046e-06
4.71841e-08
1.25291e-06
4.34182e-08
1.29773e-06
4.00298e-08
1.33937e-06
3.69859e-08
1.37812e-06
3.42471e-08
1.41425e-06
3.17759e-08
1.44799e-06
2.95441e-08
1.47956e-06
2.74788e-08
2.56293e-08
1.50922e-06
2.22469e-07
2.90924e-07
3.73371e-07
4.48667e-07
5.19115e-07
5.85182e-07
6.46142e-07
7.02078e-07
7.53425e-07
8.00609e-07
8.44027e-07
8.84057e-07
9.21043e-07
9.5529e-07
9.87066e-07
1.01661e-06
1.04409e-06
1.06972e-06
8.81119e-08
-8.81119e-08
1.97137e-07
-1.09025e-07
2.93796e-07
-9.66589e-08
3.72456e-07
-7.866e-08
4.3232e-07
-5.98648e-08
4.74079e-07
-4.17582e-08
4.99089e-07
-2.50109e-08
5.09008e-07
-9.91907e-09
5.05187e-07
3.82173e-09
4.89585e-07
1.56014e-08
4.65559e-07
2.40261e-08
4.35074e-07
3.04855e-08
3.9879e-07
3.62842e-08
3.56385e-07
4.24047e-08
3.06919e-07
4.94657e-08
2.49148e-07
5.77709e-08
1.81725e-07
6.74236e-08
1.03334e-07
7.83907e-08
1.28097e-08
9.05243e-08
-9.12532e-08
1.04063e-07
-2.10035e-07
1.18782e-07
-3.43948e-07
1.33913e-07
-4.92854e-07
1.48906e-07
-6.55977e-07
1.63123e-07
-8.31912e-07
1.75935e-07
-1.01871e-06
1.86801e-07
-1.21403e-06
1.95321e-07
-1.41529e-06
2.01258e-07
-1.61984e-06
2.04545e-07
-1.8251e-06
2.05263e-07
-2.02871e-06
2.03614e-07
-2.2286e-06
1.99887e-07
-2.42302e-06
1.9442e-07
-2.61059e-06
1.8757e-07
-2.79028e-06
1.79687e-07
-2.96137e-06
1.71093e-07
-3.12344e-06
1.62069e-07
-3.27629e-06
1.52851e-07
-3.41991e-06
1.43621e-07
-3.55443e-06
1.3452e-07
-3.68008e-06
1.25645e-07
-3.79714e-06
1.17058e-07
-3.90592e-06
1.08788e-07
-4.00677e-06
1.00843e-07
-4.09998e-06
9.32128e-08
-4.18585e-06
8.58737e-08
-4.26465e-06
7.87938e-08
-4.33658e-06
7.19353e-08
-4.40184e-06
6.52575e-08
-4.46056e-06
5.87185e-08
-4.51283e-06
5.2276e-08
-4.55872e-06
4.5889e-08
-4.59824e-06
3.95195e-08
-4.63137e-06
3.31327e-08
-4.65807e-06
2.66946e-08
-4.67825e-06
2.01779e-08
-4.69184e-06
1.3594e-08
-4.69884e-06
6.99785e-09
-4.69922e-06
3.85117e-10
-4.69417e-06
-5.05455e-09
-4.68391e-06
-1.02562e-08
-4.66862e-06
-1.52918e-08
-4.64833e-06
-2.02894e-08
-4.62301e-06
-2.5323e-08
-4.59258e-06
-3.04303e-08
-4.55695e-06
-3.56324e-08
-4.516e-06
-4.09433e-08
-4.46963e-06
-4.63733e-08
-4.4177e-06
-5.19316e-08
-4.36007e-06
-5.76263e-08
-4.29661e-06
-6.34649e-08
-4.22715e-06
-6.94544e-08
-4.15155e-06
-7.5601e-08
-4.06964e-06
-8.19098e-08
-3.98126e-06
-8.83847e-08
-3.88623e-06
-9.50276e-08
-3.78439e-06
-1.01838e-07
-3.67558e-06
-1.08814e-07
-3.55963e-06
-1.15948e-07
-3.4364e-06
-1.23231e-07
-3.30575e-06
-1.30648e-07
-3.16757e-06
-1.38178e-07
-3.02177e-06
-1.45796e-07
-2.8683e-06
-1.5347e-07
-2.70715e-06
-1.61159e-07
-2.53833e-06
-1.68816e-07
-2.36194e-06
-1.76387e-07
-2.17813e-06
-1.83808e-07
-1.98713e-06
-1.91009e-07
-1.78922e-06
-1.9791e-07
-1.58479e-06
-2.04426e-07
-1.37432e-06
-2.10465e-07
-1.1584e-06
-2.15927e-07
-9.37694e-07
-2.20703e-07
-7.13032e-07
-2.24663e-07
-4.85409e-07
-2.27623e-07
-2.56074e-07
-2.29335e-07
-2.60166e-08
-2.30057e-07
2.0428e-07
-2.30297e-07
4.33857e-07
-2.29577e-07
6.61397e-07
-2.27541e-07
8.8577e-07
-2.24372e-07
1.10589e-06
-2.2012e-07
1.32072e-06
-2.14829e-07
1.52927e-06
-2.08551e-07
1.73062e-06
-2.0135e-07
1.92392e-06
-1.93303e-07
2.10842e-06
-1.84496e-07
2.28344e-06
-1.75024e-07
2.44843e-06
-1.64989e-07
2.60293e-06
-1.54494e-07
2.74657e-06
-1.43641e-07
2.8791e-06
-1.32531e-07
3.00036e-06
-1.2126e-07
3.11028e-06
-1.09916e-07
3.20885e-06
-9.85763e-08
3.29616e-06
-8.73023e-08
3.37229e-06
-7.61324e-08
3.43738e-06
-6.50896e-08
3.49159e-06
-5.42109e-08
3.53505e-06
-4.34624e-08
3.56712e-06
-3.20689e-08
3.58517e-06
-1.80462e-08
3.58571e-06
-5.41242e-10
3.5684e-06
1.73102e-08
3.53697e-06
3.14314e-08
3.49421e-06
4.27556e-08
3.44287e-06
5.134e-08
3.38548e-06
5.73938e-08
3.32436e-06
6.11129e-08
3.26164e-06
6.27234e-08
3.19913e-06
6.25097e-08
3.13832e-06
6.0806e-08
3.08035e-06
5.79753e-08
3.02597e-06
5.43789e-08
2.97562e-06
5.03467e-08
2.92947e-06
4.61562e-08
2.88745e-06
4.20216e-08
2.84935e-06
3.80931e-08
2.81489e-06
3.44641e-08
2.7837e-06
3.11848e-08
2.75542e-06
2.82874e-08
2.72963e-06
2.57874e-08
2.70601e-06
2.36188e-08
2.68433e-06
2.16752e-08
2.66442e-06
1.99113e-08
2.6461e-06
1.83201e-08
2.62921e-06
1.6895e-08
2.61358e-06
1.56252e-08
2.59908e-06
1.44983e-08
2.58558e-06
1.35015e-08
2.57296e-06
1.26225e-08
2.56111e-06
1.18498e-08
2.54994e-06
1.11734e-08
2.53935e-06
1.05847e-08
2.52928e-06
1.00763e-08
2.51963e-06
9.64234e-09
2.51036e-06
9.27808e-09
2.50138e-06
8.98021e-09
2.49263e-06
8.74683e-09
2.48405e-06
8.57776e-09
2.47558e-06
8.47459e-09
2.46714e-06
8.4413e-09
2.45865e-06
8.48461e-09
2.45004e-06
8.61507e-09
2.44119e-06
8.84802e-09
2.43198e-06
9.20535e-09
2.42226e-06
9.71828e-09
2.41183e-06
1.04311e-08
2.40043e-06
1.14074e-08
2.38769e-06
1.27401e-08
2.37312e-06
1.45683e-08
2.35601e-06
1.71059e-08
2.33532e-06
2.06924e-08
2.30942e-06
2.5902e-08
2.27574e-06
3.36781e-08
2.22967e-06
4.60692e-08
2.16436e-06
6.53081e-08
2.05954e-06
1.04817e-07
1.50808e-07
1.90874e-06
9.07621e-08
-1.78874e-07
1.48993e-07
-1.67256e-07
1.82551e-07
-1.30217e-07
1.9996e-07
-9.60693e-08
2.05436e-07
-6.53403e-08
2.01101e-07
-3.74235e-08
1.88121e-07
-1.20312e-08
1.67067e-07
1.11352e-08
1.38336e-07
3.25528e-08
1.01295e-07
5.2642e-08
5.35702e-08
7.17514e-08
-6.52674e-09
9.05825e-08
-8.02374e-08
1.09995e-07
-1.68524e-07
1.30691e-07
-2.72124e-07
1.53066e-07
-3.91557e-07
1.77205e-07
-5.27039e-07
2.02906e-07
-6.78358e-07
2.29709e-07
-8.44787e-07
2.56954e-07
-1.02459e-06
2.83862e-07
-1.21535e-06
3.09546e-07
-1.41445e-06
3.33011e-07
-1.61886e-06
3.53316e-07
-1.82541e-06
3.69671e-07
-2.03098e-06
3.81511e-07
-2.23272e-06
3.8854e-07
-2.42814e-06
3.90739e-07
-2.61522e-06
3.88343e-07
-2.79248e-06
3.81796e-07
-2.9589e-06
3.71691e-07
-3.11399e-06
3.58699e-07
-3.25762e-06
3.43515e-07
-3.39e-06
3.26805e-07
-3.5116e-06
3.09167e-07
-3.62302e-06
2.91114e-07
-3.72499e-06
2.73056e-07
-3.81822e-06
2.55307e-07
-3.90346e-06
2.38088e-07
-3.98138e-06
2.21541e-07
-4.0526e-06
2.05742e-07
-4.11767e-06
1.90716e-07
-4.17706e-06
1.76449e-07
-4.23118e-06
1.629e-07
-4.28034e-06
1.50011e-07
-4.32484e-06
1.37713e-07
-4.3649e-06
1.25933e-07
-4.40071e-06
1.14599e-07
-4.43242e-06
1.03641e-07
-4.46015e-06
9.29935e-08
-4.48403e-06
8.2599e-08
-4.50416e-06
7.24063e-08
-4.52065e-06
6.23723e-08
-4.53359e-06
5.24627e-08
-4.54311e-06
4.26525e-08
-4.54934e-06
3.29281e-08
-4.55246e-06
2.32922e-08
-4.55263e-06
1.37637e-08
-4.55002e-06
4.39057e-09
-4.54464e-06
-4.98884e-09
-4.5354e-06
-1.42981e-08
-4.52187e-06
-2.37911e-08
-4.50372e-06
-3.34418e-08
-4.48076e-06
-4.3249e-08
-4.45285e-06
-5.32284e-08
-4.41988e-06
-6.33989e-08
-4.38174e-06
-7.37786e-08
-4.3383e-06
-8.43842e-08
-4.28944e-06
-9.52311e-08
-4.23503e-06
-1.06334e-07
-4.17495e-06
-1.17707e-07
-4.10905e-06
-1.29364e-07
-4.03719e-06
-1.41316e-07
-3.95922e-06
-1.53575e-07
-3.87498e-06
-1.66148e-07
-3.78432e-06
-1.79043e-07
-3.68709e-06
-1.92262e-07
-3.58313e-06
-2.05802e-07
-3.47228e-06
-2.19656e-07
-3.35442e-06
-2.33812e-07
-3.22941e-06
-2.48246e-07
-3.09713e-06
-2.62928e-07
-2.95749e-06
-2.77817e-07
-2.81042e-06
-2.9286e-07
-2.6559e-06
-3.07991e-07
-2.49393e-06
-3.23132e-07
-2.32456e-06
-3.38187e-07
-2.1479e-06
-3.53046e-07
-1.96412e-06
-3.67585e-07
-1.77347e-06
-3.81663e-07
-1.57625e-06
-3.95124e-07
-1.37288e-06
-4.07803e-07
-1.16382e-06
-4.1952e-07
-9.49662e-07
-4.30089e-07
-7.31049e-07
-4.39316e-07
-5.08714e-07
-4.46998e-07
-2.83409e-07
-4.52927e-07
-5.57791e-08
-4.56966e-07
1.73259e-07
-4.59095e-07
4.02257e-07
-4.59295e-07
6.30086e-07
-4.57406e-07
8.55861e-07
-4.53315e-07
1.07854e-06
-4.47055e-07
1.2971e-06
-4.38679e-07
1.51053e-06
-4.28257e-07
1.71787e-06
-4.15888e-07
1.91822e-06
-4.01702e-07
2.11077e-06
-3.8585e-07
2.29478e-06
-3.68506e-07
2.46961e-06
-3.49857e-07
2.63472e-06
-3.30102e-07
2.78967e-06
-3.09445e-07
2.93412e-06
-2.8809e-07
3.06783e-06
-2.66238e-07
3.19065e-06
-2.44079e-07
3.30252e-06
-2.21793e-07
3.40349e-06
-1.9954e-07
3.49364e-06
-1.77459e-07
3.57317e-06
-1.55658e-07
3.6423e-06
-1.3422e-07
3.70129e-06
-1.13202e-07
3.7504e-06
-9.25702e-08
3.79036e-06
-7.20291e-08
3.82349e-06
-5.11827e-08
3.85271e-06
-2.97566e-08
3.87768e-06
-7.66349e-09
3.89645e-06
1.26674e-08
3.90751e-06
3.16886e-08
3.91045e-06
4.84022e-08
3.90525e-06
6.25955e-08
3.89225e-06
7.41154e-08
3.87203e-06
8.29381e-08
3.84538e-06
8.91588e-08
3.81322e-06
9.29748e-08
3.77653e-06
9.46625e-08
3.73636e-06
9.45462e-08
3.69374e-06
9.2966e-08
3.64965e-06
9.02512e-08
3.60497e-06
8.67014e-08
3.56048e-06
8.25778e-08
3.51685e-06
7.81e-08
3.47458e-06
7.34473e-08
3.4341e-06
6.87732e-08
3.39568e-06
6.42079e-08
3.35948e-06
5.98189e-08
3.32554e-06
5.5616e-08
3.29384e-06
5.16127e-08
3.26432e-06
4.78373e-08
3.2369e-06
4.43122e-08
3.21148e-06
4.10488e-08
3.18792e-06
3.80507e-08
3.16611e-06
3.5315e-08
3.1459e-06
3.28337e-08
3.12715e-06
3.05956e-08
3.10974e-06
2.85881e-08
3.09353e-06
2.67974e-08
3.07839e-06
2.521e-08
3.06422e-06
2.38129e-08
3.05091e-06
2.25942e-08
3.03834e-06
2.15437e-08
3.02644e-06
2.0653e-08
3.0151e-06
1.99163e-08
3.00424e-06
1.93304e-08
2.99379e-06
1.88963e-08
2.98365e-06
1.86189e-08
2.97376e-06
1.85089e-08
2.96402e-06
1.85843e-08
2.95436e-06
1.8873e-08
2.94466e-06
1.94157e-08
2.93482e-06
2.02718e-08
2.9247e-06
2.15275e-08
2.91413e-06
2.33088e-08
2.90289e-06
2.58025e-08
2.89071e-06
2.92952e-08
2.87717e-06
3.42283e-08
2.86171e-06
4.13605e-08
2.84356e-06
5.18324e-08
2.82126e-06
6.83617e-08
2.79304e-06
9.35354e-08
2.75465e-06
1.43204e-07
2.14395e-07
2.69106e-06
3.28535e-08
-2.11727e-07
3.25002e-08
-1.66902e-07
2.1165e-08
-1.18882e-07
2.0407e-09
-7.6945e-08
-2.43791e-08
-3.89204e-08
-5.84334e-08
-3.36921e-09
-1.0005e-07
2.95857e-08
-1.50305e-07
6.13896e-08
-2.10131e-07
9.23789e-08
-2.80673e-07
1.23184e-07
-3.63292e-07
1.54371e-07
-4.59142e-07
1.86432e-07
-5.68868e-07
2.19721e-07
-6.92513e-07
2.54337e-07
-8.29514e-07
2.90066e-07
-9.78696e-07
3.26387e-07
-1.1383e-06
3.62512e-07
-1.30605e-06
3.97459e-07
-1.47925e-06
4.30146e-07
-1.65487e-06
4.5949e-07
-1.82983e-06
4.84503e-07
-2.0012e-06
5.04382e-07
-2.16646e-06
5.18577e-07
-2.32363e-06
5.26842e-07
-2.47136e-06
5.29233e-07
-2.6089e-06
5.26084e-07
-2.73611e-06
5.17949e-07
-2.8533e-06
5.05536e-07
-2.96114e-06
4.89635e-07
-3.0605e-06
4.71052e-07
-3.15236e-06
4.50554e-07
-3.23768e-06
4.28836e-07
-3.31737e-06
4.06491e-07
-3.3922e-06
3.84005e-07
-3.46284e-06
3.61753e-07
-3.5298e-06
3.4001e-07
-3.59345e-06
3.18962e-07
-3.65408e-06
2.98718e-07
-3.71187e-06
2.79329e-07
-3.76693e-06
2.608e-07
-3.81931e-06
2.43099e-07
-3.86904e-06
2.26173e-07
-3.91609e-06
2.09953e-07
-3.96044e-06
1.94361e-07
-4.00204e-06
1.79316e-07
-4.04085e-06
1.64739e-07
-4.0768e-06
1.50552e-07
-4.10984e-06
1.36682e-07
-4.13991e-06
1.23065e-07
-4.16695e-06
1.0964e-07
-4.1909e-06
9.63565e-08
-4.2117e-06
8.31695e-08
-4.22928e-06
7.0041e-08
-4.24357e-06
5.69386e-08
-4.25447e-06
4.38339e-08
-4.26188e-06
3.07021e-08
-4.26564e-06
1.7518e-08
-4.26548e-06
4.23044e-09
-4.26125e-06
-9.20953e-09
-4.25266e-06
-2.28902e-08
-4.23961e-06
-3.68422e-08
-4.22198e-06
-5.1071e-08
-4.19965e-06
-6.55837e-08
-4.17248e-06
-8.03919e-08
-4.14037e-06
-9.55112e-08
-4.10319e-06
-1.10959e-07
-4.06082e-06
-1.26755e-07
-4.01313e-06
-1.42918e-07
-3.96e-06
-1.59465e-07
-3.90129e-06
-1.76417e-07
-3.83686e-06
-1.93791e-07
-3.76658e-06
-2.11604e-07
-3.69028e-06
-2.29869e-07
-3.60783e-06
-2.48599e-07
-3.51907e-06
-2.67802e-07
-3.42386e-06
-2.87479e-07
-3.32203e-06
-3.07626e-07
-3.21346e-06
-3.28231e-07
-3.09799e-06
-3.49273e-07
-2.97552e-06
-3.70717e-07
-2.84593e-06
-3.92517e-07
-2.70914e-06
-4.14609e-07
-2.56509e-06
-4.36916e-07
-2.41374e-06
-4.59337e-07
-2.25512e-06
-4.81753e-07
-2.08928e-06
-5.04024e-07
-1.91634e-06
-5.25985e-07
-1.73648e-06
-5.47449e-07
-1.54993e-06
-5.68208e-07
-1.35703e-06
-5.88033e-07
-1.15815e-06
-6.06677e-07
-9.53791e-07
-6.2388e-07
-7.44504e-07
-6.39376e-07
-5.30927e-07
-6.52892e-07
-3.13752e-07
-6.64173e-07
-9.36901e-08
-6.72989e-07
1.2844e-07
-6.79096e-07
3.51654e-07
-6.82309e-07
5.74864e-07
-6.82505e-07
7.9701e-07
-6.79552e-07
1.01708e-06
-6.73389e-07
1.23406e-06
-6.64027e-07
1.44691e-06
-6.5153e-07
1.65465e-06
-6.36003e-07
1.85636e-06
-6.17599e-07
2.05117e-06
-5.96511e-07
2.23829e-06
-5.72968e-07
2.41701e-06
-5.47228e-07
2.58673e-06
-5.19573e-07
2.74692e-06
-4.90295e-07
2.89717e-06
-4.59699e-07
3.03717e-06
-4.28086e-07
3.16669e-06
-3.95754e-07
3.2856e-06
-3.62991e-07
3.39387e-06
-3.30065e-07
3.49155e-06
-2.97223e-07
3.57878e-06
-2.64684e-07
3.65575e-06
-2.32633e-07
3.72275e-06
-2.0122e-07
3.7801e-06
-1.70554e-07
3.8282e-06
-1.40664e-07
3.86766e-06
-1.1149e-07
3.8995e-06
-8.30196e-08
3.92496e-06
-5.52205e-08
3.94539e-06
-2.80937e-08
3.96039e-06
-2.33416e-09
3.97024e-06
2.18451e-08
3.97475e-06
4.38862e-08
3.97391e-06
6.34397e-08
3.96775e-06
8.02762e-08
3.95641e-06
9.42751e-08
3.94014e-06
1.05424e-07
3.91931e-06
1.13812e-07
3.89436e-06
1.19609e-07
3.86586e-06
1.23051e-07
3.83441e-06
1.2441e-07
3.80069e-06
1.23977e-07
3.76534e-06
1.22043e-07
3.72903e-06
1.1889e-07
3.69235e-06
1.14784e-07
3.65583e-06
1.0997e-07
3.61993e-06
1.04672e-07
3.58504e-06
9.90923e-08
3.55147e-06
9.33897e-08
3.51941e-06
8.76739e-08
3.48899e-06
8.20363e-08
3.46027e-06
7.6562e-08
3.43326e-06
7.13195e-08
3.40795e-06
6.63584e-08
3.38429e-06
6.1712e-08
3.3622e-06
5.73996e-08
3.34161e-06
5.34292e-08
3.3224e-06
4.98003e-08
3.30449e-06
4.65057e-08
3.28775e-06
4.35341e-08
3.27209e-06
4.08716e-08
3.2574e-06
3.8503e-08
3.24358e-06
3.64129e-08
3.23053e-06
3.45872e-08
3.21817e-06
3.30132e-08
3.20641e-06
3.16812e-08
3.19515e-06
3.05851e-08
3.18433e-06
2.9723e-08
3.17385e-06
2.90993e-08
3.16363e-06
2.87253e-08
3.15359e-06
2.86223e-08
3.14364e-06
2.8824e-08
3.13368e-06
2.93813e-08
3.12358e-06
3.03688e-08
3.11321e-06
3.18948e-08
3.1024e-06
3.41173e-08
3.09094e-06
3.72685e-08
3.07853e-06
4.16994e-08
3.06482e-06
4.79428e-08
3.0493e-06
5.68803e-08
3.03129e-06
6.98374e-08
3.01006e-06
8.95949e-08
2.98424e-06
1.19352e-07
2.95636e-06
1.71085e-07
2.46975e-07
2.92378e-06
-2.89324e-08
-1.82795e-07
-7.13205e-08
-1.24514e-07
-1.16991e-07
-7.32114e-08
-1.66499e-07
-2.74373e-08
-2.20837e-07
1.54178e-08
-2.80868e-07
5.66616e-08
-3.48267e-07
9.69853e-08
-4.23854e-07
1.36977e-07
-5.08592e-07
1.77117e-07
-6.03213e-07
2.17805e-07
-7.08133e-07
2.5929e-07
-8.2331e-07
3.0161e-07
-9.4813e-07
3.4454e-07
-1.08137e-06
3.87577e-07
-1.22125e-06
4.2995e-07
-1.36555e-06
4.70687e-07
-1.51174e-06
5.08699e-07
-1.65717e-06
5.42893e-07
-1.79931e-06
5.7228e-07
-1.93589e-06
5.96073e-07
-2.06514e-06
6.13748e-07
-2.18583e-06
6.25081e-07
-2.29741e-06
6.30149e-07
-2.39985e-06
6.2929e-07
-2.49368e-06
6.23056e-07
-2.57973e-06
6.1214e-07
-2.6591e-06
5.97311e-07
-2.73291e-06
5.79354e-07
-2.8023e-06
5.59021e-07
-2.86825e-06
5.37003e-07
-2.9316e-06
5.139e-07
-2.99298e-06
4.90219e-07
-3.05286e-06
4.66371e-07
-3.11153e-06
4.42673e-07
-3.16913e-06
4.19361e-07
-3.22572e-06
3.966e-07
-3.28125e-06
3.74491e-07
-3.33562e-06
3.53086e-07
-3.38869e-06
3.32401e-07
-3.44031e-06
3.12416e-07
-3.4903e-06
2.93093e-07
-3.53851e-06
2.74376e-07
-3.58475e-06
2.562e-07
-3.62889e-06
2.38495e-07
-3.67076e-06
2.21187e-07
-3.71022e-06
2.04203e-07
-3.74715e-06
1.87475e-07
-3.7814e-06
1.70935e-07
-3.81286e-06
1.54522e-07
-3.8414e-06
1.38181e-07
-3.8669e-06
1.2186e-07
-3.88924e-06
1.05513e-07
-3.9083e-06
8.90986e-08
-3.92394e-06
7.25793e-08
-3.93603e-06
5.59195e-08
-3.94441e-06
3.90848e-08
-3.94893e-06
2.20383e-08
-3.94944e-06
4.73619e-09
-3.94578e-06
-1.28632e-08
-3.93787e-06
-3.08073e-08
-3.92558e-06
-4.91229e-08
-3.90883e-06
-6.78231e-08
-3.8875e-06
-8.69208e-08
-3.86146e-06
-1.06431e-07
-3.8306e-06
-1.26372e-07
-3.79479e-06
-1.46762e-07
-3.75392e-06
-1.67624e-07
-3.70786e-06
-1.88978e-07
-3.65648e-06
-2.10849e-07
-3.59964e-06
-2.33257e-07
-3.53721e-06
-2.56227e-07
-3.46903e-06
-2.79777e-07
-3.39498e-06
-3.03925e-07
-3.31489e-06
-3.28686e-07
-3.22862e-06
-3.54069e-07
-3.13603e-06
-3.80076e-07
-3.03695e-06
-4.06699e-07
-2.93126e-06
-4.33922e-07
-2.81882e-06
-4.61714e-07
-2.69951e-06
-4.9003e-07
-2.57322e-06
-5.18808e-07
-2.43986e-06
-5.47963e-07
-2.29939e-06
-5.77389e-07
-2.15177e-06
-6.06955e-07
-1.99702e-06
-6.36503e-07
-1.8352e-06
-6.65843e-07
-1.66643e-06
-6.9476e-07
-1.49087e-06
-7.23004e-07
-1.30878e-06
-7.50299e-07
-1.12047e-06
-7.76343e-07
-9.26338e-07
-8.0081e-07
-7.26858e-07
-8.2336e-07
-5.2259e-07
-8.43644e-07
-3.14167e-07
-8.61315e-07
-1.02286e-07
-8.76054e-07
1.12247e-07
-8.87523e-07
3.28567e-07
-8.95416e-07
5.45748e-07
-8.9949e-07
7.62781e-07
-8.99539e-07
9.78646e-07
-8.95417e-07
1.19232e-06
-8.87058e-07
1.40276e-06
-8.74477e-07
1.60899e-06
-8.57758e-07
1.81004e-06
-8.37049e-07
2.005e-06
-8.1256e-07
2.19304e-06
-7.84552e-07
2.37341e-06
-7.53332e-07
2.54542e-06
-7.19245e-07
2.70851e-06
-6.82664e-07
2.8622e-06
-6.43977e-07
3.00608e-06
-6.03586e-07
3.13989e-06
-5.61889e-07
3.26341e-06
-5.19281e-07
3.37656e-06
-4.76141e-07