/*--------------------------------*- C++ -*----------------------------------*\
| =========                 |                                                 |
| \\      /  F ield         | OpenFOAM: The Open Source CFD Toolbox           |
|  \\    /   O peration     | Version:  2412                                  |
|   \\  /    A nd           | Website:  www.openfoam.com                      |
|    \\/     M anipulation  |                                                 |
\*---------------------------------------------------------------------------*/
FoamFile
{
    version     2.0;
    format      ascii;
    arch        "LSB;label=32;scalar=64";
    class       volVectorField;
    location    "0.03";
    object      U;
}
// * * * * * * * * * * * * * * * * * * * * * * * * * * * * * * * * * * * * * //

dimensions      [0 1 -1 0 0 0 0];

internalField   nonuniform List<vector> 
12225
(
(0.377254 -0.200923 0)
(0.543728 -0.0518137 0)
(0.709798 -0.0337995 0)
(0.891204 -0.0301709 0)
(1.05435 -0.0293563 0)
(1.20171 -0.0279798 0)
(1.33628 -0.0259634 0)
(1.45747 -0.0239361 0)
(1.56576 -0.0220365 0)
(1.66241 -0.0202444 0)
(1.74857 -0.0185529 0)
(1.82513 -0.0169484 0)
(1.89287 -0.0154018 0)
(1.95237 -0.0138619 0)
(2.00387 -0.0122942 0)
(2.04804 -0.0105282 0)
(2.08144 -0.0082919 0)
(2.1199 -0.00998615 0)
(0.933543 -0.0317477 0)
(1.0563 -0.0584604 0)
(1.23515 -0.0684324 0)
(1.41843 -0.063813 0)
(1.58029 -0.0609468 0)
(1.72665 -0.0579095 0)
(1.86062 -0.0543123 0)
(1.98204 -0.0507196 0)
(2.09137 -0.0472557 0)
(2.18966 -0.0439202 0)
(2.27784 -0.0407176 0)
(2.35673 -0.0376208 0)
(2.427 -0.0345699 0)
(2.48916 -0.0314641 0)
(2.54352 -0.0282121 0)
(2.59024 -0.0243766 0)
(2.62865 -0.0206582 0)
(2.65949 -0.0103251 0)
(1.39963 -0.0846113 0)
(1.49127 -0.105253 0)
(1.65299 -0.106457 0)
(1.81926 -0.100826 0)
(1.9672 -0.0965505 0)
(2.10233 -0.0918915 0)
(2.22674 -0.0866503 0)
(2.34014 -0.0813598 0)
(2.44288 -0.0761826 0)
(2.53571 -0.0711524 0)
(2.61938 -0.0662789 0)
(2.69452 -0.0615217 0)
(2.76169 -0.0567928 0)
(2.82133 -0.0519481 0)
(2.87373 -0.0468055 0)
(2.9189 -0.0409058 0)
(2.9567 -0.0341828 0)
(2.98553 -0.0227128 0)
(1.89738 -0.115287 0)
(1.94561 -0.14267 0)
(2.0734 -0.143836 0)
(2.21397 -0.139137 0)
(2.34231 -0.133681 0)
(2.46148 -0.12748 0)
(2.57229 -0.120651 0)
(2.67409 -0.11366 0)
(2.76695 -0.106729 0)
(2.85134 -0.0999422 0)
(2.92774 -0.0933194 0)
(2.99662 -0.0868126 0)
(3.0584 -0.0803107 0)
(3.11341 -0.0736304 0)
(3.16189 -0.066514 0)
(3.20384 -0.058442 0)
(3.23949 -0.0489399 0)
(3.26671 -0.0345425 0)
(2.43103 -0.125603 0)
(2.43981 -0.169003 0)
(2.52687 -0.175855 0)
(2.63636 -0.173975 0)
(2.74096 -0.168409 0)
(2.84058 -0.161285 0)
(2.93474 -0.153292 0)
(3.02224 -0.144921 0)
(3.10278 -0.136481 0)
(3.17649 -0.128123 0)
(3.24361 -0.119892 0)
(3.30438 -0.111743 0)
(3.35909 -0.103552 0)
(3.40795 -0.0951101 0)
(3.45118 -0.0861051 0)
(3.48874 -0.0759827 0)
(3.52125 -0.0640401 0)
(3.54633 -0.0474742 0)
(2.99676 -0.123349 0)
(2.97623 -0.184199 0)
(3.02266 -0.199452 0)
(3.09823 -0.202139 0)
(3.1761 -0.197972 0)
(3.25335 -0.190865 0)
(3.32835 -0.182352 0)
(3.39929 -0.173111 0)
(3.46543 -0.163574 0)
(3.52657 -0.153982 0)
(3.58266 -0.14442 0)
(3.63375 -0.134862 0)
(3.67994 -0.125187 0)
(3.72136 -0.115176 0)
(3.75815 -0.104494 0)
(3.79029 -0.0925933 0)
(3.81869 -0.0787237 0)
(3.84067 -0.0608127 0)
(3.58825 -0.114053 0)
(3.55012 -0.189097 0)
(3.56111 -0.213389 0)
(3.60288 -0.221835 0)
(3.65261 -0.220562 0)
(3.70568 -0.21455 0)
(3.75966 -0.206287 0)
(3.81227 -0.196792 0)
(3.86233 -0.186667 0)
(3.90931 -0.176261 0)
(3.9529 -0.165726 0)
(3.99292 -0.15507 0)
(4.02934 -0.144191 0)
(4.06215 -0.132881 0)
(4.09144 -0.120812 0)
(4.11721 -0.10749 0)
(4.1405 -0.0922327 0)
(4.15829 -0.0736061 0)
(4.19874 -0.10118 0)
(4.15319 -0.185243 0)
(4.13707 -0.217661 0)
(4.14823 -0.232099 0)
(4.17048 -0.234785 0)
(4.19893 -0.230891 0)
(4.23098 -0.223684 0)
(4.26417 -0.214607 0)
(4.29701 -0.204461 0)
(4.32866 -0.193727 0)
(4.35859 -0.182639 0)
(4.38646 -0.171259 0)
(4.41206 -0.159521 0)
(4.43529 -0.147248 0)
(4.45618 -0.134149 0)
(4.47469 -0.11981 0)
(4.49195 -0.103688 0)
(4.50449 -0.0848496 0)
(4.82179 -0.0870846 0)
(4.77586 -0.174672 0)
(4.7418 -0.213213 0)
(4.72797 -0.23283 0)
(4.72559 -0.23979 0)
(4.73072 -0.23873 0)
(4.74121 -0.233281 0)
(4.75484 -0.225266 0)
(4.77003 -0.21568 0)
(4.78577 -0.205133 0)
(4.80139 -0.193955 0)
(4.8164 -0.182273 0)
(4.83047 -0.170073 0)
(4.84341 -0.157225 0)
(4.85518 -0.143502 0)
(4.86571 -0.128588 0)
(4.87614 -0.112098 0)
(4.88249 -0.0934825 0)
(5.4514 -0.073244 0)
(5.40877 -0.159416 0)
(5.36479 -0.201576 0)
(5.33268 -0.224807 0)
(5.31026 -0.235514 0)
(5.29511 -0.237486 0)
(5.2859 -0.23422 0)
(5.28103 -0.227756 0)
(5.27911 -0.219232 0)
(5.27916 -0.209358 0)
(5.28045 -0.198548 0)
(5.28242 -0.187 0)
(5.28468 -0.174759 0)
(5.28698 -0.161758 0)
(5.28924 -0.147844 0)
(5.29132 -0.132805 0)
(5.29432 -0.116417 0)
(5.2938 -0.0984017 0)
(6.08161 -0.060388 0)
(6.04342 -0.141176 0)
(5.9952 -0.18442 0)
(5.95122 -0.209439 0)
(5.91415 -0.222752 0)
(5.88307 -0.227363 0)
(5.85742 -0.226288 0)
(5.83638 -0.221579 0)
(5.819 -0.214429 0)
(5.8045 -0.205591 0)
(5.79223 -0.195534 0)
(5.78167 -0.184513 0)
(5.77243 -0.172635 0)
(5.76423 -0.159894 0)
(5.75698 -0.146214 0)
(5.75047 -0.131483 0)
(5.7458 -0.11562 0)
(5.73803 -0.0985371 0)
(6.65455 -0.04946 0)
(6.61989 -0.122821 0)
(6.5712 -0.165059 0)
(6.52123 -0.190191 0)
(6.47547 -0.204655 0)
(6.43416 -0.210934 0)
(6.39717 -0.211485 0)
(6.36432 -0.208237 0)
(6.33516 -0.202367 0)
(6.30919 -0.19461 0)
(6.28594 -0.185446 0)
(6.26502 -0.175162 0)
(6.24609 -0.163902 0)
(6.22891 -0.151714 0)
(6.21339 -0.138586 0)
(6.1993 -0.124482 0)
(6.18772 -0.1094 0)
(6.17333 -0.0934856 0)
(7.20967 -0.0393763 0)
(7.17954 -0.103624 0)
(7.13273 -0.143463 0)
(7.08008 -0.167709 0)
(7.0291 -0.182325 0)
(6.9811 -0.189505 0)
(6.9362 -0.191168 0)
(6.8946 -0.189043 0)
(6.8563 -0.184264 0)
(6.82113 -0.177526 0)
(6.78882 -0.169285 0)
(6.75914 -0.159836 0)
(6.73185 -0.149347 0)
(6.70679 -0.137906 0)
(6.68389 -0.125547 0)
(6.66295 -0.112301 0)
(6.64497 -0.0982033 0)
(6.62447 -0.0836418 0)
(7.81805 -0.0296361 0)
(7.7928 -0.0819238 0)
(7.75012 -0.117001 0)
(7.69775 -0.138913 0)
(7.64434 -0.15247 0)
(7.59244 -0.159649 0)
(7.54242 -0.161837 0)
(7.49466 -0.160437 0)
(7.44952 -0.156493 0)
(7.4071 -0.150653 0)
(7.36739 -0.143332 0)
(7.33029 -0.134807 0)
(7.29573 -0.125258 0)
(7.26363 -0.114796 0)
(7.23398 -0.103492 0)
(7.20662 -0.0914186 0)
(7.18249 -0.0786618 0)
(7.15619 -0.0657132 0)
(8.45849 -0.0207012 0)
(8.43841 -0.0590876 0)
(8.402 -0.0866407 0)
(8.35339 -0.104229 0)
(8.30103 -0.115111 0)
(8.2486 -0.120989 0)
(8.19687 -0.122796 0)
(8.14635 -0.121494 0)
(8.09764 -0.117924 0)
(8.05108 -0.112653 0)
(8.00684 -0.106045 0)
(7.96498 -0.0983477 0)
(7.92553 -0.0897376 0)
(7.88851 -0.0803395 0)
(7.85398 -0.0702486 0)
(7.82182 -0.059561 0)
(7.79291 -0.0483879 0)
(7.7622 -0.0372557 0)
(9.08861 -0.0126168 0)
(9.07341 -0.036579 0)
(9.04449 -0.0544556 0)
(9.00282 -0.065676 0)
(8.95553 -0.0720492 0)
(8.90674 -0.0749136 0)
(8.85754 -0.0749256 0)
(8.80851 -0.072662 0)
(8.76038 -0.0686876 0)
(8.71372 -0.0634217 0)
(8.66887 -0.0571359 0)
(8.626 -0.0500187 0)
(8.58524 -0.0422148 0)
(8.54668 -0.0338414 0)
(8.51043 -0.0250018 0)
(8.47642 -0.0158016 0)
(8.44542 -0.00633267 0)
(8.41314 0.00286351 0)
(9.63292 -0.00517395 0)
(9.62144 -0.0151242 0)
(9.59917 -0.0223195 0)
(9.56526 -0.0259196 0)
(9.52535 -0.026645 0)
(9.48339 -0.0253002 0)
(9.44064 -0.0223114 0)
(9.39756 -0.0179933 0)
(9.35476 -0.0126645 0)
(9.31285 -0.00658807 0)
(9.27223 5.59401e-05 0)
(9.23314 0.00714069 0)
(9.19573 0.0145632 0)
(9.16014 0.0222312 0)
(9.12647 0.0300589 0)
(9.09467 0.0379444 0)
(9.06536 0.0458457 0)
(9.0355 0.0532439 0)
(9.96403 0.00206941 0)
(9.95453 0.00595108 0)
(9.93635 0.0100482 0)
(9.9079 0.0148152 0)
(9.87391 0.0202029 0)
(9.83817 0.026044 0)
(9.80194 0.0322527 0)
(9.76561 0.0387741 0)
(9.72964 0.0455399 0)
(9.69454 0.05248 0)
(9.66065 0.0595368 0)
(9.62816 0.0666602 0)
(9.59714 0.0737994 0)
(9.56768 0.0808975 0)
(9.53983 0.0878974 0)
(9.51355 0.0947161 0)
(9.48904 0.101354 0)
(9.46525 0.107377 0)
(9.87501 0.00937649 0)
(9.86706 0.0274239 0)
(9.85037 0.0433781 0)
(9.82346 0.0569951 0)
(9.79117 0.0687296 0)
(9.75731 0.0790825 0)
(9.72316 0.088367 0)
(9.68912 0.0968114 0)
(9.65565 0.104619 0)
(9.62326 0.111951 0)
(9.59227 0.118912 0)
(9.56284 0.125563 0)
(9.53501 0.131934 0)
(9.50883 0.138032 0)
(9.48427 0.143847 0)
(9.46135 0.149339 0)
(9.43981 0.15452 0)
(9.42061 0.159085 0)
(9.28442 0.0176683 0)
(9.27108 0.051343 0)
(9.24694 0.0795327 0)
(9.212 0.101821 0)
(9.17249 0.119591 0)
(9.13237 0.13406 0)
(9.09272 0.145922 0)
(9.05393 0.155728 0)
(9.01654 0.163997 0)
(8.98102 0.171135 0)
(8.94762 0.177418 0)
(8.91641 0.18303 0)
(8.88739 0.1881 0)
(8.8605 0.192719 0)
(8.83565 0.196941 0)
(8.81278 0.2008 0)
(8.79138 0.204329 0)
(8.77345 0.207359 0)
(8.47108 0.0276115 0)
(8.45291 0.0782709 0)
(8.42118 0.117576 0)
(8.37907 0.146736 0)
(8.33447 0.168886 0)
(8.29105 0.18589 0)
(8.2495 0.198794 0)
(8.21013 0.208565 0)
(8.17338 0.216071 0)
(8.13951 0.22194 0)
(8.10856 0.226599 0)
(8.08042 0.23035 0)
(8.05496 0.233419 0)
(8.03201 0.235969 0)
(8.01138 0.238117 0)
(7.99295 0.239954 0)
(7.97618 0.241531 0)
(7.96308 0.242804 0)
(7.51246 0.0398001 0)
(7.48722 0.108251 0)
(7.44813 0.1563 0)
(7.40275 0.189623 0)
(7.35907 0.213676 0)
(7.31919 0.230774 0)
(7.28307 0.242457 0)
(7.25077 0.250277 0)
(7.22235 0.255451 0)
(7.19766 0.258785 0)
(7.17641 0.260819 0)
(7.15828 0.261943 0)
(7.14295 0.262435 0)
(7.13012 0.262494 0)
(7.1195 0.262254 0)
(7.11087 0.261814 0)
(7.1037 0.261224 0)
(7.09971 0.260497 0)
(6.48938 0.0552589 0)
(6.45721 0.139956 0)
(6.41476 0.191909 0)
(6.37409 0.225299 0)
(6.34038 0.247813 0)
(6.31314 0.26205 0)
(6.29159 0.270266 0)
(6.27528 0.274551 0)
(6.2636 0.276299 0)
(6.25583 0.276367 0)
(6.25135 0.275336 0)
(6.24959 0.273614 0)
(6.2501 0.271483 0)
(6.25247 0.269128 0)
(6.25637 0.266671 0)
(6.26154 0.264197 0)
(6.26751 0.261744 0)
(6.27568 0.259363 0)
(5.45718 0.0741944 0)
(5.41898 0.168901 0)
(5.38059 0.218049 0)
(5.35638 0.247295 0)
(5.34432 0.265015 0)
(5.34056 0.274035 0)
(5.34349 0.277415 0)
(5.35179 0.277493 0)
(5.36406 0.275587 0)
(5.37917 0.272482 0)
(5.39632 0.268709 0)
(5.41491 0.26462 0)
(5.43446 0.260435 0)
(5.45461 0.256291 0)
(5.47507 0.252266 0)
(5.49567 0.248409 0)
(5.51605 0.244737 0)
(5.53732 0.24131 0)
(4.45288 0.0953715 0)
(4.41277 0.189243 0)
(4.39243 0.228951 0)
(4.40024 0.250519 0)
(4.42219 0.261085 0)
(4.45143 0.263978 0)
(4.486 0.262675 0)
(4.52398 0.259194 0)
(4.56363 0.254518 0)
(4.60386 0.249244 0)
(4.64404 0.243767 0)
(4.6837 0.238329 0)
(4.72256 0.233065 0)
(4.76039 0.228049 0)
(4.79708 0.223315 0)
(4.83258 0.218875 0)
(4.8667 0.214726 0)
(4.90038 0.210931 0)
(3.50299 0.114857 0)
(3.47372 0.194247 0)
(3.49104 0.219876 0)
(3.54475 0.23196 0)
(3.60818 0.23533 0)
(3.6744 0.233451 0)
(3.7423 0.229165 0)
(3.81012 0.223743 0)
(3.87642 0.217791 0)
(3.94053 0.211707 0)
(4.00214 0.205746 0)
(4.06112 0.200045 0)
(4.11741 0.194673 0)
(4.17104 0.189656 0)
(4.22207 0.184994 0)
(4.27063 0.180673 0)
(4.31669 0.176679 0)
(4.36107 0.173083 0)
(2.62987 0.123227 0)
(2.63273 0.177292 0)
(2.70358 0.189535 0)
(2.80808 0.193267 0)
(2.91269 0.191872 0)
(3.0137 0.1879 0)
(3.11186 0.182746 0)
(3.20614 0.177057 0)
(3.29566 0.171238 0)
(3.38026 0.165543 0)
(3.46006 0.160117 0)
(3.53523 0.155033 0)
(3.60601 0.150314 0)
(3.67264 0.145959 0)
(3.7354 0.141949 0)
(3.79457 0.13826 0)
(3.85028 0.134868 0)
(3.90329 0.131869 0)
(1.8518 0.104947 0)
(1.90694 0.135006 0)
(2.03197 0.142917 0)
(2.18131 0.141948 0)
(2.32098 0.138858 0)
(2.45082 0.135106 0)
(2.57364 0.130632 0)
(2.68929 0.125849 0)
(2.79739 0.121117 0)
(2.8982 0.116591 0)
(2.99223 0.112343 0)
(3.07996 0.108407 0)
(3.16187 0.104788 0)
(3.23843 0.101472 0)
(3.31007 0.0984357 0)
(3.37721 0.095655 0)
(3.44014 0.0930926 0)
(3.4996 0.0908564 0)
(1.17531 0.0417371 0)
(1.28281 0.0664266 0)
(1.44013 0.0895783 0)
(1.61954 0.0900144 0)
(1.7852 0.0872941 0)
(1.93628 0.0846053 0)
(2.0771 0.0813052 0)
(2.20832 0.077776 0)
(2.32981 0.0743643 0)
(2.44212 0.0711547 0)
(2.54607 0.068172 0)
(2.64245 0.0654317 0)
(2.73191 0.0629298 0)
(2.8151 0.0606494 0)
(2.89259 0.0585694 0)
(2.96491 0.056672 0)
(3.03245 0.0548933 0)
(3.09592 0.0533326 0)
(0.469429 0.226512 0)
(0.642607 0.0693107 0)
(0.790147 0.0483025 0)
(0.975099 0.0447981 0)
(1.15361 0.043461 0)
(1.31582 0.042259 0)
(1.466 0.0403092 0)
(1.60508 0.0380704 0)
(1.73281 0.0359229 0)
(1.84994 0.0339399 0)
(1.95758 0.0321174 0)
(2.05675 0.0304534 0)
(2.14829 0.0289413 0)
(2.23295 0.0275681 0)
(2.31142 0.0263177 0)
(2.3843 0.0251828 0)
(2.4521 0.0241091 0)
(2.51508 0.0231768 0)
(0.0466925 -0.0906582 -3.00564e-20)
(0.129205 -0.144615 2.77681e-20)
(0.216726 -0.146749 0)
(0.296876 -0.129838 0)
(0.360185 -0.106359 0)
(0.405785 -0.0813557 -2.42739e-20)
(0.435484 -0.0569818 0)
(0.451551 -0.0340335 0)
(0.454388 -0.0134292 0)
(0.444829 0.00294592 0)
(0.426702 0.013993 2.40579e-20)
(0.402411 0.0202934 0)
(0.3729 0.0236704 0)
(0.338165 0.0261278 0)
(0.297642 0.0290952 0)
(0.250306 0.0333049 2.53807e-20)
(0.194957 0.0390638 0)
(0.130343 0.0464706 0)
(0.0551712 0.0554271 0)
(-0.0316266 0.0659908 0)
(-0.13119 0.0783208 0)
(-0.244359 0.0924167 0)
(-0.371283 0.107852 0)
(-0.511578 0.123868 2.34364e-20)
(-0.664271 0.139559 -2.26096e-20)
(-0.827843 0.154025 2.1866e-20)
(-1.00034 0.166494 2.12139e-20)
(-1.17953 0.1764 0)
(-1.36302 0.183418 0)
(-1.54846 0.187459 -1.98104e-20)
(-1.7336 0.188633 -1.95085e-20)
(-1.91644 0.187207 0)
(-2.09525 0.183546 0)
(-2.26863 0.178068 -1.89694e-20)
(-2.4355 0.171195 0)
(-2.59507 0.163327 0)
(-2.74683 0.154819 1.87777e-20)
(-2.8905 0.145967 0)
(-3.02599 0.137007 1.87405e-20)
(-3.15335 0.128116 3.74659e-20)
(-3.27274 0.119418 0)
(-3.38438 0.110989 0)
(-3.48854 0.102874 0)
(-3.5855 0.0950828 0)
(-3.67555 0.0876088 0)
(-3.75895 0.0804281 3.72927e-20)
(-3.83594 0.073507 3.72138e-20)
(-3.90672 0.0668063 3.71134e-20)
(-3.97148 0.060284 0)
(-4.03034 0.0538991 -3.68412e-20)
(-4.08339 0.0476135 0)
(-4.13071 0.0413958 3.64624e-20)
(-4.17231 0.0352244 3.62293e-20)
(-4.20817 0.029091 0)
(-4.23824 0.0230107 0)
(-4.2625 0.0170435 0)
(-4.28087 0.0113134 3.4973e-20)
(-4.29324 0.00597232 0)
(-4.29954 0.00114421 0)
(-4.29993 -0.00308383 0)
(-4.29593 -0.00675161 0)
(-4.28725 -0.0102303 0)
(-4.27399 -0.0136468 0)
(-4.25614 -0.0170608 0)
(-4.23363 -0.0205018 0)
(-4.20638 -0.0239868 -2.9397e-20)
(-4.17427 -0.027527 0)
(-4.1372 -0.0311313 0)
(-4.09504 -0.0348077 2.64412e-20)
(-4.04765 -0.0385637 2.53141e-20)
(-3.9949 -0.0424061 0)
(-3.93662 -0.0463419 -2.28311e-20)
(-3.87267 -0.0503775 2.14696e-20)
(-3.80289 -0.0545189 0)
(-3.7271 -0.0587713 -1.84917e-20)
(-3.64513 -0.0631392 0)
(-3.55682 -0.0676258 0)
(-3.46199 -0.072233 1.3343e-20)
(-3.36048 -0.0769607 0)
(-3.25211 -0.0818071 -9.42068e-21)
(-3.13674 -0.0867675 0)
(-3.01423 -0.0918345 5.07959e-21)
(-2.88447 -0.0969976 2.74557e-21)
(-2.74737 -0.102242 2.99623e-22)
(-2.60286 -0.10755 -4.52003e-21)
(-2.45094 -0.112899 9.86936e-21)
(-2.29164 -0.118261 0)
(-2.12504 -0.123604 0)
(-1.95129 -0.12889 0)
(-1.77061 -0.134075 3.35821e-20)
(-1.5833 -0.13911 4.00811e-20)
(-1.38974 -0.143934 -4.67999e-20)
(-1.19042 -0.148472 0)
(-0.985912 -0.152619 6.08663e-20)
(-0.776949 -0.156215 6.81947e-20)
(-0.564422 -0.158987 7.57054e-20)
(-0.349385 -0.160462 0)
(-0.132885 -0.159917 0)
(0.0844672 -0.157082 0)
(0.302154 -0.152863 9.25246e-20)
(0.519124 -0.148082 0)
(0.734097 -0.142892 0)
(0.94599 -0.137336 -8.86098e-20)
(1.15379 -0.131449 0)
(1.35651 -0.125272 0)
(1.55323 -0.118847 -8.27101e-20)
(1.7431 -0.11222 0)
(1.92533 -0.105441 0)
(2.0992 -0.0985625 7.59379e-20)
(2.26412 -0.091635 7.36425e-20)
(2.41956 -0.084709 0)
(2.56511 -0.0778322 -6.9153e-20)
(2.70045 -0.0710484 0)
(2.82534 -0.0643964 6.49331e-20)
(2.93964 -0.0579097 0)
(3.04328 -0.0516145 6.11042e-20)
(3.13628 -0.0455256 5.93629e-20)
(3.21869 -0.0396399 0)
(3.29057 -0.0339524 0)
(3.35204 -0.0285106 0)
(3.40322 -0.0233387 0)
(3.44421 -0.0177755 0)
(3.47413 -0.00989708 0)
(3.48768 0.000428699 0)
(3.48282 0.010522 5.03209e-20)
(3.46266 0.0187302 -4.98128e-20)
(3.43013 0.0247499 0)
(3.38788 0.0286739 0)
(3.33842 0.0307341 0)
(3.28414 0.0312004 0)
(3.22721 0.0303597 -9.72834e-20)
(3.16956 0.0285155 0)
(3.11283 0.025974 9.70582e-20)
(3.0583 0.0230265 -9.69987e-20)
(3.0069 0.0199305 0)
(2.95924 0.0168951 0)
(2.9156 0.0140719 0)
(2.87603 0.011555 9.67622e-20)
(2.8404 0.00938919 9.66601e-20)
(2.80847 0.00757928 0)
(2.77992 0.00610412 9.63801e-20)
(2.7544 0.00494415 9.62031e-20)
(2.73153 0.00408626 -9.60036e-20)
(2.7109 0.00346435 0)
(2.69229 0.00297934 0)
(2.67552 0.0025767 -9.52795e-20)
(2.6604 0.00223847 0)
(2.64678 0.00195613 0)
(2.6345 0.00172217 0)
(2.62341 0.00152957 0)
(2.61339 0.0013718 9.37949e-20)
(2.60432 0.00124305 9.34716e-20)
(2.59608 0.00113844 0)
(2.58857 0.00105409 9.28087e-20)
(2.58172 0.000986987 0)
(2.57543 0.000934896 0)
(2.56963 0.00089626 9.17867e-20)
(2.56425 0.000870107 0)
(2.55922 0.000855998 9.10966e-20)
(2.55448 0.000854023 0)
(2.54997 0.000864806 0)
(2.54561 0.000889575 9.00644e-20)
(2.54134 0.000930266 0)
(2.53709 0.000989739 8.93902e-20)
(2.53277 0.00107198 0)
(2.52829 0.00118243 0)
(2.52352 0.00132858 0)
(2.51833 0.00152071 -8.81343e-20)
(2.51253 0.00177317 0)
(2.50588 0.00210628 8.76005e-20)
(2.49806 0.00254933 0)
(2.48863 0.00314579 0)
(2.47698 0.00396187 0)
(2.46218 0.00510273 0)
(2.44293 0.00674303 0)
(2.41689 0.00917181 0)
(2.38139 0.013024 0)
(2.3271 0.0188734 -1.766e-19)
(2.25819 0.0314747 0)
(2.08918 0.0430929 0)
(0.0505248 -0.283053 8.51412e-20)
(0.113094 -0.298082 -7.49101e-20)
(0.149599 -0.239971 0)
(0.171415 -0.182931 4.1791e-20)
(0.181773 -0.131833 0)
(0.182386 -0.0862033 1.96009e-20)
(0.174659 -0.0458971 -3.89329e-20)
(0.159379 -0.0104817 -3.88379e-20)
(0.137578 0.0203312 0)
(0.109059 0.0464894 -3.90271e-20)
(0.0716365 0.0687178 -1.97859e-20)
(0.0238493 0.0887655 0)
(-0.0355579 0.10866 0)
(-0.107593 0.130062 0)
(-0.193033 0.153958 0)
(-0.292498 0.180792 -1.82684e-20)
(-0.406377 0.210592 0)
(-0.534774 0.243005 3.38826e-20)
(-0.677329 0.277303 0)
(-0.832857 0.31245 0)
(-0.999534 0.347195 -3.06858e-20)
(-1.17514 0.380151 0)
(-1.35709 0.409861 2.89654e-20)
(-1.54258 0.435003 -1.41808e-20)
(-1.72877 0.454549 1.38607e-20)
(-1.91293 0.467852 -1.36043e-20)
(-2.09263 0.474681 -1.34111e-20)
(-2.26583 0.475197 0)
(-2.43093 0.469885 0)
(-2.58682 0.459469 1.31719e-20)
(-2.7328 0.444821 -1.34854e-20)
(-2.8686 0.426866 0)
(-2.99428 0.406513 0)
(-3.11014 0.384599 1.33992e-20)
(-3.21667 0.361853 0)
(-3.31448 0.338878 0)
(-3.40421 0.316147 -1.37336e-20)
(-3.48653 0.294011 0)
(-3.56205 0.27271 1.41275e-20)
(-3.63137 0.252392 -2.81148e-20)
(-3.695 0.233128 0)
(-3.7534 0.214934 0)
(-3.80693 0.197781 -5.73835e-20)
(-3.85594 0.181611 -5.75861e-20)
(-3.90069 0.166349 -5.77417e-20)
(-3.94139 0.151909 2.89869e-20)
(-3.97822 0.138199 -2.88919e-20)
(-4.01133 0.12513 -8.67974e-20)
(-4.04084 0.112614 5.78499e-20)
(-4.06686 0.100569 2.88048e-20)
(-4.08947 0.0889186 0)
(-4.10876 0.0775938 -2.85896e-20)
(-4.12483 0.0665326 2.86053e-20)
(-4.13776 0.0556812 0)
(-4.14767 0.0449948 0)
(-4.15467 0.0344518 0)
(-4.15893 0.0240917 -2.74548e-20)
(-4.16061 0.0140177 0)
(-4.15982 0.00434525 5.3745e-20)
(-4.15641 -0.00488682 0)
(-4.14894 -0.0137227 5.19174e-20)
(-4.13738 -0.0223806 0)
(-4.12149 -0.030965 -4.97677e-20)
(-4.10113 -0.0395389 0)
(-4.07616 -0.0481393 4.72603e-20)
(-4.04647 -0.0567901 -2.31941e-20)
(-4.01194 -0.0655084 0)
(-3.97246 -0.074308 -4.27774e-20)
(-3.92789 -0.0832008 -2.02112e-20)
(-3.87811 -0.0921976 -1.92853e-20)
(-3.82297 -0.101308 0)
(-3.76233 -0.11054 -1.80739e-20)
(-3.69604 -0.119901 -1.61727e-20)
(-3.62394 -0.129397 0)
(-3.54588 -0.139031 1.38078e-20)
(-3.4617 -0.148804 -2.61046e-20)
(-3.37124 -0.158711 0)
(-3.27434 -0.168747 -9.81113e-21)
(-3.17085 -0.1789 0)
(-3.06061 -0.189151 2.18254e-20)
(-2.9435 -0.199479 0)
(-2.81941 -0.209851 -1.23552e-20)
(-2.68823 -0.220229 -1.95368e-21)
(-2.54989 -0.230565 1.78901e-21)
(-2.40437 -0.240803 1.3846e-22)
(-2.25166 -0.250878 3.39798e-21)
(-2.09183 -0.260713 0)
(-1.92497 -0.270224 0)
(-1.75126 -0.279316 0)
(-1.57094 -0.287888 -6.31711e-20)
(-1.38432 -0.295832 -2.64405e-20)
(-1.19179 -0.303034 3.05147e-20)
(-0.993839 -0.309376 0)
(-0.791016 -0.314735 3.41943e-20)
(-0.58396 -0.318978 -4.28275e-20)
(-0.373365 -0.32195 -4.69293e-20)
(-0.159909 -0.323435 0)
(0.0556947 -0.323113 0)
(0.27243 -0.320728 0)
(0.489059 -0.31652 -5.55552e-20)
(0.704571 -0.310811 0)
(0.918073 -0.303745 1.09137e-19)
(1.12859 -0.295408 1.66258e-19)
(1.33514 -0.285882 -1.09653e-19)
(1.53677 -0.27526 0)
(1.73259 -0.26365 -5.28121e-20)
(1.92177 -0.251172 0)
(2.10355 -0.237956 -1.06641e-19)
(2.27726 -0.224138 5.14334e-20)
(2.4423 -0.209858 5.07962e-20)
(2.59817 -0.195253 0)
(2.74449 -0.180456 1.51824e-19)
(2.88094 -0.165595 -9.89202e-20)
(3.00732 -0.150786 -4.937e-20)
(3.12348 -0.136134 0)
(3.2294 -0.12173 -4.75967e-20)
(3.32511 -0.107644 -1.3928e-19)
(3.41071 -0.0939271 0)
(3.48638 -0.0806087 -8.98205e-20)
(3.55232 -0.0677043 -8.86709e-20)
(3.60878 -0.0551422 -8.76685e-20)
(3.65601 -0.0424438 0)
(3.69481 -0.0285812 0)
(3.7292 -0.0136766 0)
(3.76079 0.00056394 4.24014e-20)
(3.78708 0.0134595 4.24884e-20)
(3.8065 0.0244611 0)
(3.81816 0.0334294 8.4091e-20)
(3.82182 0.0404072 8.39641e-20)
(3.81767 0.0454485 0)
(3.80614 0.0486585 8.40816e-20)
(3.78788 0.050205 1.68247e-19)
(3.76371 0.0503114 -8.43591e-20)
(3.73457 0.0492382 -8.45234e-20)
(3.70145 0.0472604 0)
(3.66535 0.0446443 0)
(3.62728 0.0416281 0)
(3.58814 0.0384107 -8.56237e-20)
(3.54877 0.0351482 8.58815e-20)
(3.50988 0.0319555 1.72141e-19)
(3.47206 0.0289127 -8.62158e-20)
(3.43577 0.0260779 8.63716e-20)
(3.40135 0.0234886 8.64122e-20)
(3.36904 0.0211368 0)
(3.33894 0.018983 0)
(3.31105 0.0170057 -8.64294e-20)
(3.28533 0.0152027 0)
(3.26174 0.0135705 0)
(3.24017 0.0121014 1.72172e-19)
(3.22053 0.0107851 0)
(3.20268 0.00961023 8.57556e-20)
(3.18651 0.00856509 -8.55298e-20)
(3.17187 0.00763829 0)
(3.15864 0.00681918 8.51043e-20)
(3.1467 0.00609801 0)
(3.13591 0.00546607 0)
(3.12616 0.00491568 -8.43327e-20)
(3.11734 0.00444025 1.68143e-19)
(3.10935 0.00403433 -8.37935e-20)
(3.1021 0.00369367 0)
(3.09549 0.00341532 0)
(3.08943 0.00319778 8.29588e-20)
(3.08385 0.00304121 0)
(3.07866 0.0029478 8.23904e-20)
(3.07379 0.00292216 0)
(3.06914 0.00297202 0)
(3.06464 0.00310919 0)
(3.06019 0.00335106 8.13024e-20)
(3.05568 0.0037228 0)
(3.05098 0.00426084 -8.08175e-20)
(3.04593 0.00501849 0)
(3.04034 0.00607486 0)
(3.03394 0.00755152 1.60481e-19)
(3.02636 0.00963692 -1.60254e-19)
(3.01716 0.0126547 0)
(3.00541 0.0170967 0)
(2.99084 0.0241427 0)
(2.96903 0.0347775 4.83208e-19)
(2.94701 0.0564911 0)
(2.89239 0.0835595 -3.25189e-19)
(0.0162196 -0.402571 -5.44178e-22)
(0.032476 -0.335998 9.42934e-20)
(0.025073 -0.248204 0)
(0.0115481 -0.173565 -7.54369e-20)
(-0.00845739 -0.107951 0)
(-0.0351377 -0.0491837 0)
(-0.0686122 0.00408724 2.76149e-22)
(-0.109279 0.052993 3.31406e-20)
(-0.158008 0.0987756 3.21953e-20)
(-0.215771 0.142684 3.18935e-20)
(-0.283766 0.185807 0)
(-0.363173 0.229279 0)
(-0.454842 0.274159 -2.948e-20)
(-0.559116 0.321131 -5.7381e-20)
(-0.675785 0.370336 5.57698e-20)
(-0.80409 0.421344 0)
(-0.942737 0.473226 5.26164e-20)
(-1.08994 0.524647 -2.56409e-20)
(-1.24346 0.574014 0)
(-1.40071 0.619633 4.8603e-20)
(-1.55889 0.659806 2.36003e-20)
(-1.71527 0.692989 -4.66847e-20)
(-1.86736 0.717981 -2.26344e-20)
(-2.01311 0.734037 0)
(-2.15101 0.740919 4.50417e-20)
(-2.28012 0.738882 4.47842e-20)
(-2.40004 0.728606 0)
(-2.51087 0.711098 4.46018e-20)
(-2.61306 0.687578 0)
(-2.70733 0.659356 4.47396e-20)
(-2.79451 0.627737 2.18944e-20)
(-2.87549 0.593934 0)
(-2.95113 0.559011 0)
(-3.02217 0.523859 0)
(-3.08926 0.489176 0)
(-3.15291 0.455482 0)
(-3.21354 0.423131 0)
(-3.27142 0.392338 4.63536e-20)
(-3.32675 0.363205 -6.9624e-20)
(-3.37967 0.335746 0)
(-3.43022 0.309911 0)
(-3.47845 0.28561 0)
(-3.52435 0.262723 -1.93059e-22)
(-3.56789 0.241118 4.70279e-20)
(-3.60903 0.22066 9.43398e-20)
(-3.64773 0.201214 -9.43877e-20)
(-3.68393 0.182656 -4.72419e-20)
(-3.71757 0.164871 4.70698e-20)
(-3.74861 0.147757 1.19119e-22)
(-3.77697 0.131225 4.69648e-20)
(-3.80261 0.115201 0)
(-3.82546 0.0996245 4.65733e-20)
(-3.84545 0.0844474 1.54049e-22)
(-3.86253 0.0696336 0)
(-3.87662 0.0551543 0)
(-3.88761 0.0409816 -4.52272e-20)
(-3.89537 0.027072 0)
(-3.89971 0.013351 0)
(-3.90044 -0.000291597 4.3889e-20)
(-3.89733 -0.0139749 8.5784e-20)
(-3.89017 -0.0277772 -4.17734e-20)
(-3.87888 -0.0416493 0)
(-3.86334 -0.0555798 3.99693e-20)
(-3.84341 -0.0695753 0)
(-3.81899 -0.0836501 3.87978e-20)
(-3.78996 -0.0978199 3.67171e-20)
(-3.75618 -0.112101 -7.20041e-20)
(-3.71754 -0.126507 -3.52722e-20)
(-3.67391 -0.141052 0)
(-3.62515 -0.15575 6.37999e-20)
(-3.57113 -0.170611 0)
(-3.5117 -0.185646 8.55477e-20)
(-3.44672 -0.200861 5.40866e-20)
(-3.37603 -0.216261 5.05039e-20)
(-3.29949 -0.231847 -4.67473e-20)
(-3.21693 -0.247614 6.33736e-20)
(-3.1282 -0.263553 0)
(-3.03314 -0.279647 0)
(-2.93162 -0.295871 -2.99975e-20)
(-2.82349 -0.312191 -3.7068e-20)
(-2.70862 -0.328563 0)
(-2.58691 -0.34493 6.74967e-21)
(-2.45826 -0.361224 0)
(-2.32262 -0.377362 -7.00711e-21)
(-2.17995 -0.393246 2.47748e-21)
(-2.03027 -0.408766 -2.56318e-21)
(-1.87364 -0.423793 -1.077e-20)
(-1.71017 -0.438186 0)
(-1.54003 -0.451791 2.20019e-20)
(-1.36347 -0.464443 2.88206e-21)
(-1.1808 -0.475965 0)
(-0.992417 -0.486181 0)
(-0.798783 -0.494908 0)
(-0.600447 -0.50197 -5.35611e-20)
(-0.398023 -0.507202 0)
(-0.192166 -0.510462 0)
(0.0164093 -0.511626 0)
(0.226923 -0.510592 0)
(0.438388 -0.507342 0)
(0.649747 -0.50184 -7.35157e-20)
(0.860032 -0.494066 0)
(1.06829 -0.484073 -7.94014e-20)
(1.27354 -0.471952 -8.03761e-20)
(1.47483 -0.457823 8.10486e-20)
(1.67122 -0.441837 0)
(1.86186 -0.424171 8.15942e-20)
(2.04594 -0.40502 0)
(2.22273 -0.384596 8.12655e-20)
(2.39158 -0.363122 -8.08478e-20)
(2.55194 -0.340824 -2.37558e-19)
(2.70332 -0.317925 0)
(2.84536 -0.294647 -2.3397e-19)
(2.97776 -0.271197 -7.55743e-20)
(3.10034 -0.247773 0)
(3.21299 -0.224552 -1.51109e-19)
(3.31568 -0.201692 -1.49838e-19)
(3.40848 -0.179325 2.23851e-19)
(3.49152 -0.157557 0)
(3.565 -0.136466 7.40324e-20)
(3.62919 -0.116095 7.35932e-20)
(3.68439 -0.0964234 2.18748e-19)
(3.73102 -0.0773612 0)
(3.76976 -0.05892 0)
(3.80186 -0.0410274 0)
(3.82866 -0.0235684 7.2717e-20)
(3.85065 -0.00675209 0)
(3.86759 0.0087849 0)
(3.87944 0.0226645 -7.40394e-20)
(3.88615 0.0346624 -7.44363e-20)
(3.88766 0.0446362 0)
(3.88404 0.0525441 0)
(3.87547 0.0584342 -1.52011e-19)
(3.86223 0.0624307 0)
(3.8447 0.0647158 1.54452e-19)
(3.82336 0.0655099 1.55632e-19)
(3.79878 0.0650496 0)
(3.7716 0.0635709 0)
(3.74245 0.0612965 -1.59076e-19)
(3.71199 0.0584291 1.71612e-23)
(3.68084 0.0551475 2.57074e-23)
(3.64955 0.0516057 0)
(3.61862 0.0479375 -3.24223e-19)
(3.58848 0.0442577 0)
(3.55948 0.0406453 0)
(3.53187 0.0371439 0)
(3.50581 0.0337876 1.63104e-19)
(3.4814 0.0306085 0)
(3.45868 0.0276297 -3.26059e-19)
(3.43766 0.0248645 -1.62817e-19)
(3.4183 0.0223186 0)
(3.40056 0.0199917 -1.62286e-19)
(3.38435 0.0178783 0)
(3.36959 0.0159699 0)
(3.35618 0.0142556 -4.8351e-19)
(3.34403 0.0127236 3.2147e-19)
(3.33302 0.0113616 0)
(3.32306 0.0101575 3.19564e-19)
(3.31404 0.00909997 -1.59264e-19)
(3.30588 0.00817862 0)
(3.29848 0.00738454 0)
(3.29175 0.00671048 0)
(3.28561 0.00615121 -4.71542e-19)
(3.27997 0.00570385 0)
(3.27476 0.00536833 -1.56114e-19)
(3.26989 0.00514807 0)
(3.26527 0.00505082 0)
(3.26082 0.00508991 0)
(3.25644 0.00528615 0)
(3.25202 0.00567057 0)
(3.24742 0.0062887 0)
(3.24249 0.00720743 -3.05465e-19)
(3.23703 0.00852563 0)
(3.23077 0.010394 -1.52131e-19)
(3.22337 0.0130419 4.55631e-19)
(3.21441 0.0168573 0)
(3.20316 0.0224158 0)
(3.18924 0.0310133 -3.03831e-19)
(3.17048 0.0440015 -3.05397e-19)
(3.1505 0.0676985 3.05416e-19)
(3.12071 0.10288 3.08199e-19)
(-0.0224848 -0.386469 -1.57749e-19)
(-0.0445653 -0.284634 -1.30218e-19)
(-0.0829128 -0.190438 -7.25542e-20)
(-0.124657 -0.1073 -3.20513e-20)
(-0.170639 -0.0314988 0)
(-0.221299 0.0391047 5.81866e-20)
(-0.277762 0.105958 -2.76975e-20)
(-0.341204 0.170239 0)
(-0.412467 0.233132 -2.71279e-20)
(-0.492315 0.295718 0)
(-0.581302 0.35882 5.11954e-20)
(-0.679639 0.42292 0)
(-0.787067 0.48808 2.46082e-20)
(-0.90278 0.553851 4.78952e-20)
(-1.02544 0.619272 -4.65959e-20)
(-1.15325 0.682938 0)
(-1.28405 0.743134 -4.41726e-20)
(-1.41549 0.79801 0)
(-1.54522 0.845781 0)
(-1.67103 0.884916 -4.12888e-20)
(-1.79109 0.914275 0)
(-1.90402 0.933205 -9.11503e-22)
(-2.00902 0.941588 0)
(-2.10583 0.939815 0)
(-2.19469 0.92871 1.12716e-21)
(-2.27624 0.909422 -3.87886e-20)
(-2.35136 0.883299 -3.98455e-20)
(-2.42108 0.85177 -3.87056e-20)
(-2.48643 0.816237 0)
(-2.54836 0.778 -7.86564e-20)
(-2.60769 0.738201 0)
(-2.66509 0.6978 -3.99339e-20)
(-2.72104 0.657562 0)
(-2.77588 0.618072 0)
(-2.8298 0.579748 4.02113e-20)
(-2.88288 0.542867 0)
(-2.93511 0.507587 -4.04294e-20)
(-2.98642 0.473976 4.33456e-22)
(-3.0367 0.442028 8.09059e-20)
(-3.08581 0.411687 -8.14929e-20)
(-3.13361 0.382862 0)
(-3.17993 0.35544 0)
(-3.22463 0.329294 -4.12436e-20)
(-3.26755 0.304293 0)
(-3.30856 0.280308 -4.08363e-20)
(-3.34751 0.257214 4.08544e-20)
(-3.38428 0.234895 4.08451e-20)
(-3.41874 0.213245 0)
(-3.45078 0.192166 -4.07371e-20)
(-3.48029 0.171572 -4.06348e-20)
(-3.50713 0.151388 8.14449e-20)
(-3.53121 0.131547 -4.03247e-20)
(-3.55241 0.111993 -4.01131e-20)
(-3.57059 0.092674 0)
(-3.58565 0.0735459 0)
(-3.59743 0.054569 3.92291e-20)
(-3.60578 0.0357012 0)
(-3.61057 0.0168906 0)
(-3.61164 -0.00193068 -7.571e-20)
(-3.60887 -0.0208095 -7.44791e-20)
(-3.60217 -0.0397927 0)
(-3.59142 -0.0588859 0)
(-3.57653 -0.0780946 0)
(-3.55738 -0.0974283 0)
(-3.53385 -0.1169 -6.65705e-20)
(-3.50581 -0.136524 6.55631e-20)
(-3.47315 -0.156317 6.25085e-20)
(-3.43574 -0.176295 1.21589e-19)
(-3.39345 -0.196475 0)
(-3.34615 -0.216872 1.14363e-21)
(-3.2937 -0.237499 0)
(-3.23595 -0.258369 -4.9874e-20)
(-3.17277 -0.279491 1.2935e-21)
(-3.104 -0.300868 -4.37819e-20)
(-3.02948 -0.322502 4.05093e-20)
(-2.94908 -0.344385 1.44842e-21)
(-2.86262 -0.366502 0)
(-2.76997 -0.388828 3.13493e-20)
(-2.67098 -0.41133 2.59363e-20)