/*--------------------------------*- C++ -*----------------------------------*\
| =========                 |                                                 |
| \\      /  F ield         | OpenFOAM: The Open Source CFD Toolbox           |
|  \\    /   O peration     | Version:  2412                                  |
|   \\  /    A nd           | Website:  www.openfoam.com                      |
|    \\/     M anipulation  |                                                 |
\*---------------------------------------------------------------------------*/
FoamFile
{
    version     2.0;
    format      ascii;
    arch        "LSB;label=32;scalar=64";
    class       volVectorField;
    location    "0.03";
    object      U;
}
// * * * * * * * * * * * * * * * * * * * * * * * * * * * * * * * * * * * * * //

dimensions      [0 1 -1 0 0 0 0];

internalField   nonuniform List<vector> 
800
(
(0.00358824 0 0)
(0.0107647 0 0)
(0.0179407 0 0)
(0.0251159 0 0)
(0.0322899 0 0)
(0.0394623 0 0)
(0.0466329 0 0)
(0.0538012 0 0)
(0.0609671 0 0)
(0.06813 0 0)
(0.0752898 0 0)
(0.082446 0 0)
(0.0895983 0 0)
(0.0967464 0 0)
(0.10389 0 0)
(0.111029 0 0)
(0.118162 0 0)
(0.12529 0 0)
(0.132412 0 0)
(0.139527 0 0)
(0.146636 0 0)
(0.153739 0 0)
(0.160833 0 0)
(0.167921 0 0)
(0.175 0 0)
(0.182071 0 0)
(0.189133 0 0)
(0.196187 0 0)
(0.203231 0 0)
(0.210266 0 0)
(0.21729 0 0)
(0.224305 0 0)
(0.231309 0 0)
(0.238301 0 0)
(0.245283 0 0)
(0.252253 0 0)
(0.25921 0 0)
(0.266156 0 0)
(0.273089 0 0)
(0.280009 0 0)
(0.286915 0 0)
(0.293808 0 0)
(0.300687 0 0)
(0.307551 0 0)
(0.314401 0 0)
(0.321236 0 0)
(0.328056 0 0)
(0.33486 0 0)
(0.341647 0 0)
(0.348419 0 0)
(0.355174 0 0)
(0.361912 0 0)
(0.368632 0 0)
(0.375335 0 0)
(0.38202 0 0)
(0.388686 0 0)
(0.395334 0 0)
(0.401963 0 0)
(0.408572 0 0)
(0.415162 0 0)
(0.421731 0 0)
(0.428281 0 0)
(0.434809 0 0)
(0.441317 0 0)
(0.447803 0 0)
(0.454268 0 0)
(0.460711 0 0)
(0.467131 0 0)
(0.473529 0 0)
(0.479903 0 0)
(0.486255 0 0)
(0.492582 0 0)
(0.498886 0 0)
(0.505165 0 0)
(0.51142 0 0)
(0.51765 0 0)
(0.523854 0 0)
(0.530033 0 0)
(0.536185 0 0)
(0.542312 0 0)
(0.548412 0 0)
(0.554485 0 0)
(0.56053 0 0)
(0.566549 0 0)
(0.572539 0 0)
(0.578501 0 0)
(0.584434 0 0)
(0.590338 0 0)
(0.596213 0 0)
(0.602059 0 0)
(0.607875 0 0)
(0.61366 0 0)
(0.619415 0 0)
(0.625139 0 0)
(0.630832 0 0)
(0.636494 0 0)
(0.642123 0 0)
(0.647721 0 0)
(0.653286 0 0)
(0.658818 0 0)
(0.664317 0 0)
(0.669783 0 0)
(0.675215 0 0)
(0.680613 0 0)
(0.685977 0 0)
(0.691306 0 0)
(0.6966 0 0)
(0.701858 0 0)
(0.707081 0 0)
(0.712268 0 0)
(0.717419 0 0)
(0.722533 0 0)
(0.727611 0 0)
(0.732651 0 0)
(0.737653 0 0)
(0.742618 0 0)
(0.747545 0 0)
(0.752433 0 0)
(0.757282 0 0)
(0.762093 0 0)
(0.766864 0 0)
(0.771595 0 0)
(0.776287 0 0)
(0.780938 0 0)
(0.785548 0 0)
(0.790118 0 0)
(0.794647 0 0)
(0.799134 0 0)
(0.803579 0 0)
(0.807982 0 0)
(0.812342 0 0)
(0.81666 0 0)
(0.820936 0 0)
(0.825167 0 0)
(0.829355 0 0)
(0.8335 0 0)
(0.8376 0 0)
(0.841656 0 0)
(0.845667 0 0)
(0.849633 0 0)
(0.853553 0 0)
(0.857428 0 0)
(0.861257 0 0)
(0.86504 0 0)
(0.868777 0 0)
(0.872466 0 0)
(0.876109 0 0)
(0.879704 0 0)
(0.883252 0 0)
(0.886752 0 0)
(0.890204 0 0)
(0.893607 0 0)
(0.896962 0 0)
(0.900267 0 0)
(0.903524 0 0)
(0.906731 0 0)
(0.909888 0 0)
(0.912995 0 0)
(0.916052 0 0)
(0.919058 0 0)
(0.922014 0 0)
(0.924918 0 0)
(0.927771 0 0)
(0.930572 0 0)
(0.933322 0 0)
(0.936019 0 0)
(0.938664 0 0)
(0.941256 0 0)
(0.943796 0 0)
(0.946282 0 0)
(0.948715 0 0)
(0.951095 0 0)
(0.95342 0 0)
(0.955692 0 0)
(0.957909 0 0)
(0.960071 0 0)
(0.962179 0 0)
(0.964231 0 0)
(0.966229 0 0)
(0.968171 0 0)
(0.970057 0 0)
(0.971887 0 0)
(0.973662 0 0)
(0.975379 0 0)
(0.97704 0 0)
(0.978645 0 0)
(0.980192 0 0)
(0.981682 0 0)
(0.983115 0 0)
(0.98449 0 0)
(0.985807 0 0)
(0.987066 0 0)
(0.988266 0 0)
(0.989409 0 0)
(0.990492 0 0)
(0.991517 0 0)
(0.992483 0 0)
(0.99339 0 0)
(0.994237 0 0)
(0.995025 0 0)
(0.995753 0 0)
(0.996421 0 0)
(0.997029 0 0)
(0.997576 0 0)
(0.998064 0 0)
(0.99849 0 0)
(0.998856 0 0)
(0.999161 0 0)
(0.999405 0 0)
(0.999588 0 0)
(0.99971 0 0)
(0.99977 0 0)
(0.999768 0 0)
(0.999704 0 0)
(0.999579 0 0)
(0.999392 0 0)
(0.999142 0 0)
(0.99883 0 0)
(0.998456 0 0)
(0.998019 0 0)
(0.99752 0 0)
(0.996958 0 0)
(0.996333 0 0)
(0.995645 0 0)
(0.994894 0 0)
(0.99408 0 0)
(0.993202 0 0)
(0.992262 0 0)
(0.991258 0 0)
(0.99019 0 0)
(0.989059 0 0)
(0.987864 0 0)
(0.986606 0 0)
(0.985284 0 0)
(0.983898 0 0)
(0.982448 0 0)
(0.980934 0 0)
(0.979357 0 0)
(0.977715 0 0)
(0.976009 0 0)
(0.974239 0 0)
(0.972405 0 0)
(0.970507 0 0)
(0.968545 0 0)
(0.966518 0 0)
(0.964428 0 0)
(0.962273 0 0)
(0.960054 0 0)
(0.957771 0 0)
(0.955424 0 0)
(0.953012 0 0)
(0.950537 0 0)
(0.947997 0 0)
(0.945394 0 0)
(0.942726 0 0)
(0.939994 0 0)
(0.937198 0 0)
(0.934339 0 0)
(0.931415 0 0)
(0.928428 0 0)
(0.925377 0 0)
(0.922262 0 0)
(0.919084 0 0)
(0.915842 0 0)
(0.912537 0 0)
(0.909168 0 0)
(0.905737 0 0)
(0.902242 0 0)
(0.898684 0 0)
(0.895063 0 0)
(0.89138 0 0)
(0.887633 0 0)
(0.883824 0 0)
(0.879953 0 0)
(0.87602 0 0)
(0.872024 0 0)
(0.867967 0 0)
(0.863847 0 0)
(0.859666 0 0)
(0.855424 0 0)
(0.85112 0 0)
(0.846755 0 0)
(0.842329 0 0)
(0.837843 0 0)
(0.833296 0 0)
(0.828688 0 0)
(0.824021 0 0)
(0.819293 0 0)
(0.814506 0 0)
(0.80966 0 0)
(0.804754 0 0)
(0.79979 0 0)
(0.794766 0 0)
(0.789684 0 0)
(0.784544 0 0)
(0.779346 0 0)
(0.77409 0 0)
(0.768777 0 0)
(0.763407 0 0)
(0.75798 0 0)
(0.752497 0 0)
(0.746957 0 0)
(0.741361 0 0)
(0.73571 0 0)
(0.730004 0 0)
(0.724243 0 0)
(0.718427 0 0)
(0.712556 0 0)
(0.706632 0 0)
(0.700654 0 0)
(0.694624 0 0)
(0.68854 0 0)
(0.682404 0 0)
(0.676215 0 0)
(0.669975 0 0)
(0.663684 0 0)
(0.657342 0 0)
(0.650949 0 0)
(0.644507 0 0)
(0.638014 0 0)
(0.631472 0 0)
(0.624882 0 0)
(0.618243 0 0)
(0.611556 0 0)
(0.604821 0 0)
(0.59804 0 0)
(0.591212 0 0)
(0.584337 0 0)
(0.577417 0 0)
(0.570452 0 0)
(0.563442 0 0)
(0.556388 0 0)
(0.54929 0 0)
(0.542149 0 0)
(0.534965 0 0)
(0.527739 0 0)
(0.520471 0 0)
(0.513162 0 0)
(0.505812 0 0)
(0.498422 0 0)
(0.490992 0 0)
(0.483524 0 0)
(0.476017 0 0)
(0.468471 0 0)
(0.460889 0 0)
(0.453269 0 0)
(0.445613 0 0)
(0.437922 0 0)
(0.430195 0 0)
(0.422434 0 0)
(0.414639 0 0)
(0.40681 0 0)
(0.398949 0 0)
(0.391055 0 0)
(0.38313 0 0)
(0.375174 0 0)
(0.367188 0 0)
(0.359171 0 0)
(0.351126 0 0)
(0.343052 0 0)
(0.33495 0 0)
(0.326821 0 0)
(0.318665 0 0)
(0.310484 0 0)
(0.302277 0 0)
(0.294045 0 0)
(0.28579 0 0)
(0.277511 0 0)
(0.269209 0 0)
(0.260886 0 0)
(0.252541 0 0)
(0.244175 0 0)
(0.235789 0 0)
(0.227384 0 0)
(0.218961 0 0)
(0.210519 0 0)
(0.20206 0 0)
(0.193584 0 0)
(0.185093 0 0)
(0.176586 0 0)
(0.168065 0 0)
(0.15953 0 0)
(0.150981 0 0)
(0.14242 0 0)
(0.133848 0 0)
(0.125264 0 0)
(0.116671 0 0)
(0.108067 0 0)
(0.0994545 0 0)
(0.0908339 0 0)
(0.0822057 0 0)
(0.0735708 0 0)
(0.0649297 0 0)
(0.0562833 0 0)
(0.0476322 0 0)
(0.0389772 0 0)
(0.0303189 0 0)
(0.0216582 0 0)
(0.0129956 0 0)
(0.00433199 0 0)
(-0.00433199 0 0)
(-0.0129956 0 0)
(-0.0216582 0 0)
(-0.0303189 0 0)
(-0.0389772 0 0)
(-0.0476322 0 0)
(-0.0562833 0 0)
(-0.0649297 0 0)
(-0.0735707 0 0)
(-0.0822057 0 0)
(-0.0908339 0 0)
(-0.0994545 0 0)
(-0.108067 0 0)
(-0.11667 0 0)
(-0.125264 0 0)
(-0.133848 0 0)
(-0.14242 0 0)
(-0.150981 0 0)
(-0.159529 0 0)
(-0.168065 0 0)
(-0.176586 0 0)
(-0.185093 0 0)
(-0.193584 0 0)
(-0.20206 0 0)
(-0.210519 0 0)
(-0.21896 0 0)
(-0.227384 0 0)
(-0.235789 0 0)
(-0.244175 0 0)
(-0.252541 0 0)
(-0.260886 0 0)
(-0.269209 0 0)
(-0.277511 0 0)
(-0.28579 0 0)
(-0.294045 0 0)
(-0.302277 0 0)
(-0.310484 0 0)
(-0.318665 0 0)
(-0.326821 0 0)
(-0.33495 0 0)
(-0.343052 0 0)
(-0.351125 0 0)
(-0.359171 0 0)
(-0.367187 0 0)
(-0.375174 0 0)
(-0.38313 0 0)
(-0.391055 0 0)
(-0.398949 0 0)
(-0.40681 0 0)
(-0.414638 0 0)
(-0.422434 0 0)
(-0.430195 0 0)
(-0.437922 0 0)
(-0.445613 0 0)
(-0.453269 0 0)
(-0.460888 0 0)
(-0.468471 0 0)
(-0.476016 0 0)
(-0.483523 0 0)
(-0.490992 0 0)
(-0.498422 0 0)
(-0.505812 0 0)
(-0.513161 0 0)
(-0.52047 0 0)
(-0.527738 0 0)
(-0.534965 0 0)
(-0.542148 0 0)
(-0.54929 0 0)
(-0.556388 0 0)
(-0.563442 0 0)
(-0.570452 0 0)
(-0.577417 0 0)
(-0.584337 0 0)
(-0.591211 0 0)
(-0.598039 0 0)
(-0.604821 0 0)
(-0.611555 0 0)
(-0.618242 0 0)
(-0.624881 0 0)
(-0.631472 0 0)
(-0.638014 0 0)
(-0.644506 0 0)
(-0.650949 0 0)
(-0.657342 0 0)
(-0.663684 0 0)
(-0.669975 0 0)
(-0.676215 0 0)
(-0.682403 0 0)
(-0.688539 0 0)
(-0.694623 0 0)
(-0.700654 0 0)
(-0.706632 0 0)
(-0.712556 0 0)
(-0.718426 0 0)
(-0.724242 0 0)
(-0.730003 0 0)
(-0.73571 0 0)
(-0.741361 0 0)
(-0.746956 0 0)
(-0.752496 0 0)
(-0.75798 0 0)
(-0.763407 0 0)
(-0.768777 0 0)
(-0.77409 0 0)
(-0.779346 0 0)
(-0.784544 0 0)
(-0.789684 0 0)
(-0.794766 0 0)
(-0.799789 0 0)
(-0.804754 0 0)
(-0.80966 0 0)
(-0.814506 0 0)
(-0.819293 0 0)
(-0.82402 0 0)
(-0.828688 0 0)
(-0.833295 0 0)
(-0.837842 0 0)
(-0.842329 0 0)
(-0.846755 0 0)
(-0.85112 0 0)
(-0.855423 0 0)
(-0.859666 0 0)
(-0.863847 0 0)
(-0.867966 0 0)
(-0.872024 0 0)
(-0.876019 0 0)
(-0.879953 0 0)
(-0.883824 0 0)
(-0.887633 0 0)
(-0.891379 0 0)
(-0.895063 0 0)
(-0.898684 0 0)
(-0.902242 0 0)
(-0.905736 0 0)
(-0.909168 0 0)
(-0.912537 0 0)
(-0.915842 0 0)
(-0.919084 0 0)
(-0.922262 0 0)
(-0.925377 0 0)
(-0.928428 0 0)
(-0.931415 0 0)
(-0.934339 0 0)
(-0.937198 0 0)
(-0.939994 0 0)
(-0.942726 0 0)
(-0.945393 0 0)
(-0.947997 0 0)
(-0.950537 0 0)
(-0.953012 0 0)
(-0.955424 0 0)
(-0.957771 0 0)
(-0.960054 0 0)
(-0.962273 0 0)
(-0.964428 0 0)
(-0.966518 0 0)
(-0.968545 0 0)
(-0.970507 0 0)
(-0.972405 0 0)
(-0.974239 0 0)
(-0.976009 0 0)
(-0.977715 0 0)
(-0.979356 0 0)
(-0.980934 0 0)
(-0.982448 0 0)
(-0.983898 0 0)
(-0.985284 0 0)
(-0.986606 0 0)
(-0.987864 0 0)
(-0.989059 0 0)
(-0.99019 0 0)
(-0.991258 0 0)
(-0.992262 0 0)
(-0.993202 0 0)
(-0.99408 0 0)
(-0.994894 0 0)
(-0.995645 0 0)
(-0.996333 0 0)
(-0.996958 0 0)
(-0.99752 0 0)
(-0.998019 0 0)
(-0.998456 0 0)
(-0.99883 0 0)
(-0.999142 0 0)
(-0.999392 0 0)
(-0.999579 0 0)
(-0.999704 0 0)
(-0.999768 0 0)
(-0.99977 0 0)
(-0.99971 0 0)
(-0.999588 0 0)
(-0.999405 0 0)
(-0.999161 0 0)
(-0.998856 0 0)
(-0.99849 0 0)
(-0.998064 0 0)
(-0.997576 0 0)
(-0.997029 0 0)
(-0.996421 0 0)
(-0.995753 0 0)
(-0.995025 0 0)
(-0.994237 0 0)
(-0.99339 0 0)
(-0.992483 0 0)
(-0.991517 0 0)
(-0.990492 0 0)
(-0.989409 0 0)
(-0.988266 0 0)
(-0.987066 0 0)
(-0.985807 0 0)
(-0.98449 0 0)
(-0.983115 0 0)
(-0.981682 0 0)
(-0.980192 0 0)
(-0.978645 0 0)
(-0.97704 0 0)
(-0.975379 0 0)
(-0.973661 0 0)
(-0.971887 0 0)
(-0.970057 0 0)
(-0.968171 0 0)
(-0.966229 0 0)
(-0.964231 0 0)
(-0.962179 0 0)
(-0.960071 0 0)
(-0.957908 0 0)
(-0.955691 0 0)
(-0.95342 0 0)
(-0.951094 0 0)
(-0.948715 0 0)
(-0.946282 0 0)
(-0.943796 0 0)
(-0.941256 0 0)
(-0.938664 0 0)
(-0.936019 0 0)
(-0.933322 0 0)
(-0.930572 0 0)
(-0.927771 0 0)
(-0.924918 0 0)
(-0.922013 0 0)
(-0.919058 0 0)
(-0.916052 0 0)
(-0.912995 0 0)
(-0.909888 0 0)
(-0.906731 0 0)
(-0.903524 0 0)
(-0.900267 0 0)
(-0.896961 0 0)
(-0.893607 0 0)
(-0.890203 0 0)
(-0.886752 0 0)
(-0.883252 0 0)
(-0.879704 0 0)
(-0.876109 0 0)
(-0.872466 0 0)
(-0.868776 0 0)
(-0.86504 0 0)
(-0.861257 0 0)
(-0.857428 0 0)
(-0.853553 0 0)
(-0.849632 0 0)
(-0.845666 0 0)
(-0.841655 0 0)
(-0.8376 0 0)
(-0.833499 0 0)
(-0.829355 0 0)
(-0.825167 0 0)
(-0.820935 0 0)
(-0.81666 0 0)
(-0.812342 0 0)
(-0.807981 0 0)
(-0.803578 0 0)
(-0.799133 0 0)
(-0.794646 0 0)
(-0.790118 0 0)
(-0.785548 0 0)
(-0.780938 0 0)
(-0.776286 0 0)
(-0.771595 0 0)
(-0.766863 0 0)
(-0.762092 0 0)
(-0.757282 0 0)
(-0.752432 0 0)
(-0.747544 0 0)
(-0.742618 0 0)
(-0.737653 0 0)
(-0.73265 0 0)
(-0.72761 0 0)
(-0.722533 0 0)
(-0.717419 0 0)
(-0.712268 0 0)
(-0.707081 0 0)
(-0.701858 0 0)
(-0.696599 0 0)
(-0.691305 0 0)
(-0.685976 0 0)
(-0.680613 0 0)
(-0.675215 0 0)
(-0.669783 0 0)
(-0.664317 0 0)
(-0.658818 0 0)
(-0.653285 0 0)
(-0.64772 0 0)
(-0.642123 0 0)
(-0.636493 0 0)
(-0.630832 0 0)
(-0.625139 0 0)
(-0.619415 0 0)
(-0.61366 0 0)
(-0.607874 0 0)
(-0.602058 0 0)
(-0.596213 0 0)
(-0.590338 0 0)
(-0.584433 0 0)
(-0.5785 0 0)
(-0.572538 0 0)
(-0.566548 0 0)
(-0.56053 0 0)
(-0.554484 0 0)
(-0.548412 0 0)
(-0.542312 0 0)
(-0.536185 0 0)
(-0.530032 0 0)
(-0.523854 0 0)
(-0.517649 0 0)
(-0.51142 0 0)
(-0.505165 0 0)
(-0.498886 0 0)
(-0.492582 0 0)
(-0.486254 0 0)
(-0.479903 0 0)
(-0.473528 0 0)
(-0.467131 0 0)
(-0.460711 0 0)
(-0.454268 0 0)
(-0.447803 0 0)
(-0.441317 0 0)
(-0.434809 0 0)
(-0.42828 0 0)
(-0.421731 0 0)
(-0.415161 0 0)
(-0.408572 0 0)
(-0.401962 0 0)
(-0.395334 0 0)
(-0.388686 0 0)
(-0.38202 0 0)
(-0.375335 0 0)
(-0.368632 0 0)
(-0.361912 0 0)
(-0.355174 0 0)
(-0.348419 0 0)
(-0.341647 0 0)
(-0.334859 0 0)
(-0.328056 0 0)
(-0.321236 0 0)
(-0.314401 0 0)
(-0.307551 0 0)
(-0.300687 0 0)
(-0.293808 0 0)
(-0.286915 0 0)
(-0.280009 0 0)
(-0.273089 0 0)
(-0.266156 0 0)
(-0.25921 0 0)
(-0.252253 0 0)
(-0.245283 0 0)
(-0.238301 0 0)
(-0.231309 0 0)
(-0.224305 0 0)
(-0.21729 0 0)
(-0.210266 0 0)
(-0.203231 0 0)
(-0.196187 0 0)
(-0.189133 0 0)
(-0.182071 0 0)
(-0.175 0 0)
(-0.167921 0 0)
(-0.160833 0 0)
(-0.153738 0 0)
(-0.146636 0 0)
(-0.139527 0 0)
(-0.132412 0 0)
(-0.12529 0 0)
(-0.118162 0 0)
(-0.111029 0 0)
(-0.10389 0 0)
(-0.0967464 0 0)
(-0.0895983 0 0)
(-0.082446 0 0)
(-0.0752898 0 0)
(-0.06813 0 0)
(-0.0609671 0 0)
(-0.0538012 0 0)
(-0.0466329 0 0)
(-0.0394623 0 0)
(-0.0322899 0 0)
(-0.0251159 0 0)
(-0.0179408 0 0)
(-0.0107648 0 0)
(-0.00358833 0 0)
)
;

boundaryField
{
    left
    {
        type            fixedValue;
        value           uniform (0 0 0);
    }
    right
    {
        type            fixedValue;
        value           uniform (0 0 0);
    }
    frontBackUpDown
    {
        type            empty;
    }
}


// ************************************************************************* //
