/*--------------------------------*- C++ -*----------------------------------*\
| =========                 |                                                 |
| \\      /  F ield         | OpenFOAM: The Open Source CFD Toolbox           |
|  \\    /   O peration     | Version:  2412                                  |
|   \\  /    A nd           | Website:  www.openfoam.com                      |
|    \\/     M anipulation  |                                                 |
\*---------------------------------------------------------------------------*/
FoamFile
{
    version     2.0;
    format      ascii;
    arch        "LSB;label=32;scalar=64";
    class       volVectorField;
    location    "0.51";
    object      U;
}
// * * * * * * * * * * * * * * * * * * * * * * * * * * * * * * * * * * * * * //

dimensions      [0 1 -1 0 0 0 0];

internalField   nonuniform List<vector> 
800
(
(0.00150974 0 0)
(0.00452926 0 0)
(0.00754876 0 0)
(0.0105682 0 0)
(0.0135877 0 0)
(0.0166071 0 0)
(0.0196264 0 0)
(0.0226457 0 0)
(0.0256648 0 0)
(0.0286839 0 0)
(0.0317029 0 0)
(0.0347218 0 0)
(0.0377406 0 0)
(0.0407592 0 0)
(0.0437776 0 0)
(0.046796 0 0)
(0.0498141 0 0)
(0.0528321 0 0)
(0.0558499 0 0)
(0.0588675 0 0)
(0.0618848 0 0)
(0.064902 0 0)
(0.0679189 0 0)
(0.0709356 0 0)
(0.073952 0 0)
(0.0769682 0 0)
(0.0799841 0 0)
(0.0829997 0 0)
(0.086015 0 0)
(0.08903 0 0)
(0.0920447 0 0)
(0.095059 0 0)
(0.098073 0 0)
(0.101087 0 0)
(0.1041 0 0)
(0.107113 0 0)
(0.110125 0 0)
(0.113138 0 0)
(0.116149 0 0)
(0.119161 0 0)
(0.122171 0 0)
(0.125182 0 0)
(0.128192 0 0)
(0.131201 0 0)
(0.134211 0 0)
(0.137219 0 0)
(0.140227 0 0)
(0.143235 0 0)
(0.146242 0 0)
(0.149248 0 0)
(0.152254 0 0)
(0.15526 0 0)
(0.158265 0 0)
(0.161269 0 0)
(0.164273 0 0)
(0.167276 0 0)
(0.170278 0 0)
(0.17328 0 0)
(0.176281 0 0)
(0.179282 0 0)
(0.182282 0 0)
(0.185281 0 0)
(0.18828 0 0)
(0.191277 0 0)
(0.194275 0 0)
(0.197271 0 0)
(0.200267 0 0)
(0.203262 0 0)
(0.206256 0 0)
(0.20925 0 0)
(0.212242 0 0)
(0.215234 0 0)
(0.218225 0 0)
(0.221216 0 0)
(0.224205 0 0)
(0.227194 0 0)
(0.230182 0 0)
(0.233169 0 0)
(0.236155 0 0)
(0.23914 0 0)
(0.242124 0 0)
(0.245108 0 0)
(0.24809 0 0)
(0.251072 0 0)
(0.254052 0 0)
(0.257032 0 0)
(0.260011 0 0)
(0.262988 0 0)
(0.265965 0 0)
(0.268941 0 0)
(0.271915 0 0)
(0.274889 0 0)
(0.277861 0 0)
(0.280833 0 0)
(0.283803 0 0)
(0.286773 0 0)
(0.289741 0 0)
(0.292708 0 0)
(0.295674 0 0)
(0.298639 0 0)
(0.301603 0 0)
(0.304565 0 0)
(0.307526 0 0)
(0.310487 0 0)
(0.313446 0 0)
(0.316403 0 0)
(0.31936 0 0)
(0.322315 0 0)
(0.325269 0 0)
(0.328222 0 0)
(0.331173 0 0)
(0.334123 0 0)
(0.337072 0 0)
(0.340019 0 0)
(0.342965 0 0)
(0.34591 0 0)
(0.348853 0 0)
(0.351795 0 0)
(0.354736 0 0)
(0.357675 0 0)
(0.360613 0 0)
(0.363549 0 0)
(0.366484 0 0)
(0.369417 0 0)
(0.372349 0 0)
(0.375279 0 0)
(0.378208 0 0)
(0.381135 0 0)
(0.38406 0 0)
(0.386984 0 0)
(0.389907 0 0)
(0.392828 0 0)
(0.395747 0 0)
(0.398664 0 0)
(0.40158 0 0)
(0.404495 0 0)
(0.407407 0 0)
(0.410318 0 0)
(0.413227 0 0)
(0.416135 0 0)
(0.41904 0 0)
(0.421944 0 0)
(0.424846 0 0)
(0.427747 0 0)
(0.430645 0 0)
(0.433542 0 0)
(0.436436 0 0)
(0.439329 0 0)
(0.44222 0 0)
(0.445109 0 0)
(0.447996 0 0)
(0.450882 0 0)
(0.453765 0 0)
(0.456646 0 0)
(0.459526 0 0)
(0.462403 0 0)
(0.465278 0 0)
(0.468151 0 0)
(0.471022 0 0)
(0.473891 0 0)
(0.476758 0 0)
(0.479623 0 0)
(0.482485 0 0)
(0.485346 0 0)
(0.488204 0 0)
(0.49106 0 0)
(0.493914 0 0)
(0.496765 0 0)
(0.499615 0 0)
(0.502462 0 0)
(0.505306 0 0)
(0.508149 0 0)
(0.510989 0 0)
(0.513826 0 0)
(0.516661 0 0)
(0.519494 0 0)
(0.522324 0 0)
(0.525152 0 0)
(0.527978 0 0)
(0.530801 0 0)
(0.533621 0 0)
(0.536439 0 0)
(0.539254 0 0)
(0.542067 0 0)
(0.544877 0 0)
(0.547684 0 0)
(0.550489 0 0)
(0.553291 0 0)
(0.55609 0 0)
(0.558886 0 0)
(0.56168 0 0)
(0.564471 0 0)
(0.567259 0 0)
(0.570045 0 0)
(0.572827 0 0)
(0.575607 0 0)
(0.578383 0 0)
(0.581157 0 0)
(0.583928 0 0)
(0.586696 0 0)
(0.58946 0 0)
(0.592222 0 0)
(0.594981 0 0)
(0.597736 0 0)
(0.600489 0 0)
(0.603238 0 0)
(0.605984 0 0)
(0.608727 0 0)
(0.611466 0 0)
(0.614203 0 0)
(0.616936 0 0)
(0.619665 0 0)
(0.622392 0 0)
(0.625115 0 0)
(0.627834 0 0)
(0.63055 0 0)
(0.633263 0 0)
(0.635972 0 0)
(0.638677 0 0)
(0.641379 0 0)
(0.644077 0 0)
(0.646772 0 0)
(0.649463 0 0)
(0.65215 0 0)
(0.654834 0 0)
(0.657513 0 0)
(0.660189 0 0)
(0.662861 0 0)
(0.665529 0 0)
(0.668194 0 0)
(0.670854 0 0)
(0.67351 0 0)
(0.676162 0 0)
(0.67881 0 0)
(0.681454 0 0)
(0.684094 0 0)
(0.68673 0 0)
(0.689362 0 0)
(0.691989 0 0)
(0.694612 0 0)
(0.69723 0 0)
(0.699844 0 0)
(0.702454 0 0)
(0.705059 0 0)
(0.70766 0 0)
(0.710256 0 0)
(0.712848 0 0)
(0.715435 0 0)
(0.718017 0 0)
(0.720594 0 0)
(0.723167 0 0)
(0.725735 0 0)
(0.728298 0 0)
(0.730856 0 0)
(0.733409 0 0)
(0.735957 0 0)
(0.7385 0 0)
(0.741038 0 0)
(0.74357 0 0)
(0.746098 0 0)
(0.74862 0 0)
(0.751137 0 0)
(0.753648 0 0)
(0.756154 0 0)
(0.758654 0 0)
(0.761149 0 0)
(0.763639 0 0)
(0.766122 0 0)
(0.7686 0 0)
(0.771072 0 0)
(0.773539 0 0)
(0.775999 0 0)
(0.778453 0 0)
(0.780902 0 0)
(0.783344 0 0)
(0.78578 0 0)
(0.78821 0 0)
(0.790633 0 0)
(0.79305 0 0)
(0.795461 0 0)
(0.797865 0 0)
(0.800263 0 0)
(0.802654 0 0)
(0.805038 0 0)
(0.807416 0 0)
(0.809786 0 0)
(0.81215 0 0)
(0.814507 0 0)
(0.816856 0 0)
(0.819199 0 0)
(0.821534 0 0)
(0.823861 0 0)
(0.826182 0 0)
(0.828494 0 0)
(0.8308 0 0)
(0.833097 0 0)
(0.835387 0 0)
(0.837669 0 0)
(0.839942 0 0)
(0.842208 0 0)
(0.844466 0 0)
(0.846715 0 0)
(0.848956 0 0)
(0.851188 0 0)
(0.853412 0 0)
(0.855628 0 0)
(0.857834 0 0)
(0.860032 0 0)
(0.86222 0 0)
(0.864399 0 0)
(0.86657 0 0)
(0.86873 0 0)
(0.870882 0 0)
(0.873024 0 0)
(0.875156 0 0)
(0.877278 0 0)
(0.87939 0 0)
(0.881492 0 0)
(0.883584 0 0)
(0.885665 0 0)
(0.887736 0 0)
(0.889796 0 0)
(0.891846 0 0)
(0.893884 0 0)
(0.895911 0 0)
(0.897927 0 0)
(0.899932 0 0)
(0.901925 0 0)
(0.903906 0 0)
(0.905875 0 0)
(0.907832 0 0)
(0.909777 0 0)
(0.911709 0 0)
(0.913628 0 0)
(0.915535 0 0)
(0.917429 0 0)
(0.919309 0 0)
(0.921176 0 0)
(0.923029 0 0)
(0.924868 0 0)
(0.926693 0 0)
(0.928504 0 0)
(0.930301 0 0)
(0.932082 0 0)
(0.933848 0 0)
(0.935599 0 0)
(0.937335 0 0)
(0.939054 0 0)
(0.940758 0 0)
(0.942445 0 0)
(0.944115 0 0)
(0.945769 0 0)
(0.947405 0 0)
(0.949023 0 0)
(0.950624 0 0)
(0.952207 0 0)
(0.95377 0 0)
(0.955315 0 0)
(0.956841 0 0)
(0.958347 0 0)
(0.959833 0 0)
(0.961298 0 0)
(0.962743 0 0)
(0.964166 0 0)
(0.965568 0 0)
(0.966947 0 0)
(0.968304 0 0)
(0.969638 0 0)
(0.970948 0 0)
(0.972234 0 0)
(0.973496 0 0)
(0.974732 0 0)
(0.975943 0 0)
(0.977127 0 0)
(0.978284 0 0)
(0.979414 0 0)
(0.980515 0 0)
(0.981588 0 0)
(0.982631 0 0)
(0.983643 0 0)
(0.984625 0 0)
(0.985574 0 0)
(0.98649 0 0)
(0.987373 0 0)
(0.988222 0 0)
(0.989034 0 0)
(0.989811 0 0)
(0.990549 0 0)
(0.991249 0 0)
(0.99191 0 0)
(0.992529 0 0)
(0.993106 0 0)
(0.993639 0 0)
(0.994127 0 0)
(0.994572 0 0)
(0.994931 0 0)
(0.995596 0 0)
(0.992941 0 0)
(1.01961 0 0)
(0.620821 0 0)
(-0.619383 0 0)
(-1.01963 0 0)
(-0.992939 0 0)
(-0.995597 0 0)
(-0.994931 0 0)
(-0.994572 0 0)
(-0.994127 0 0)
(-0.993639 0 0)
(-0.993105 0 0)
(-0.992528 0 0)
(-0.991909 0 0)
(-0.991249 0 0)
(-0.990549 0 0)
(-0.98981 0 0)
(-0.989034 0 0)
(-0.988221 0 0)
(-0.987373 0 0)
(-0.98649 0 0)
(-0.985573 0 0)
(-0.984624 0 0)
(-0.983643 0 0)
(-0.98263 0 0)
(-0.981587 0 0)
(-0.980515 0 0)
(-0.979413 0 0)
(-0.978284 0 0)
(-0.977126 0 0)
(-0.975942 0 0)
(-0.974731 0 0)
(-0.973495 0 0)
(-0.972234 0 0)
(-0.970947 0 0)
(-0.969637 0 0)
(-0.968303 0 0)
(-0.966946 0 0)
(-0.965567 0 0)
(-0.964165 0 0)
(-0.962742 0 0)
(-0.961297 0 0)
(-0.959832 0 0)
(-0.958346 0 0)
(-0.95684 0 0)
(-0.955314 0 0)
(-0.953769 0 0)
(-0.952205 0 0)
(-0.950623 0 0)
(-0.949022 0 0)
(-0.947404 0 0)
(-0.945767 0 0)
(-0.944114 0 0)
(-0.942443 0 0)
(-0.940756 0 0)
(-0.939053 0 0)
(-0.937333 0 0)
(-0.935598 0 0)
(-0.933847 0 0)
(-0.93208 0 0)
(-0.930299 0 0)
(-0.928503 0 0)
(-0.926692 0 0)
(-0.924867 0 0)
(-0.923027 0 0)
(-0.921174 0 0)
(-0.919307 0 0)
(-0.917427 0 0)
(-0.915533 0 0)
(-0.913627 0 0)
(-0.911707 0 0)
(-0.909775 0 0)
(-0.90783 0 0)
(-0.905873 0 0)
(-0.903904 0 0)
(-0.901923 0 0)
(-0.89993 0 0)
(-0.897925 0 0)
(-0.895909 0 0)
(-0.893882 0 0)
(-0.891844 0 0)
(-0.889794 0 0)
(-0.887734 0 0)
(-0.885663 0 0)
(-0.883582 0 0)
(-0.88149 0 0)
(-0.879388 0 0)
(-0.877276 0 0)
(-0.875153 0 0)
(-0.873021 0 0)
(-0.87088 0 0)
(-0.868728 0 0)
(-0.866568 0 0)
(-0.864397 0 0)
(-0.862218 0 0)
(-0.860029 0 0)
(-0.857832 0 0)
(-0.855625 0 0)
(-0.85341 0 0)
(-0.851186 0 0)
(-0.848954 0 0)
(-0.846713 0 0)
(-0.844463 0 0)
(-0.842206 0 0)
(-0.83994 0 0)
(-0.837666 0 0)
(-0.835385 0 0)
(-0.833095 0 0)
(-0.830797 0 0)
(-0.828492 0 0)
(-0.826179 0 0)
(-0.823859 0 0)
(-0.821531 0 0)
(-0.819196 0 0)
(-0.816854 0 0)
(-0.814504 0 0)
(-0.812148 0 0)
(-0.809784 0 0)
(-0.807413 0 0)
(-0.805036 0 0)
(-0.802652 0 0)
(-0.800261 0 0)
(-0.797863 0 0)
(-0.795459 0 0)
(-0.793048 0 0)
(-0.790631 0 0)
(-0.788207 0 0)
(-0.785778 0 0)
(-0.783342 0 0)
(-0.780899 0 0)
(-0.778451 0 0)
(-0.775997 0 0)
(-0.773536 0 0)
(-0.77107 0 0)
(-0.768598 0 0)
(-0.76612 0 0)
(-0.763636 0 0)
(-0.761147 0 0)
(-0.758652 0 0)
(-0.756152 0 0)
(-0.753646 0 0)
(-0.751134 0 0)
(-0.748618 0 0)
(-0.746095 0 0)
(-0.743568 0 0)
(-0.741035 0 0)
(-0.738498 0 0)
(-0.735955 0 0)
(-0.733407 0 0)
(-0.730854 0 0)
(-0.728295 0 0)
(-0.725733 0 0)
(-0.723165 0 0)
(-0.720592 0 0)
(-0.718015 0 0)
(-0.715432 0 0)
(-0.712845 0 0)
(-0.710254 0 0)
(-0.707658 0 0)
(-0.705057 0 0)
(-0.702452 0 0)
(-0.699842 0 0)
(-0.697228 0 0)
(-0.694609 0 0)
(-0.691987 0 0)
(-0.689359 0 0)
(-0.686728 0 0)
(-0.684092 0 0)
(-0.681452 0 0)
(-0.678808 0 0)
(-0.67616 0 0)
(-0.673508 0 0)
(-0.670852 0 0)
(-0.668192 0 0)
(-0.665527 0 0)
(-0.662859 0 0)
(-0.660187 0 0)
(-0.657511 0 0)
(-0.654832 0 0)
(-0.652148 0 0)
(-0.649461 0 0)
(-0.64677 0 0)
(-0.644075 0 0)
(-0.641377 0 0)
(-0.638675 0 0)
(-0.63597 0 0)
(-0.633261 0 0)
(-0.630548 0 0)
(-0.627832 0 0)
(-0.625113 0 0)
(-0.62239 0 0)
(-0.619663 0 0)
(-0.616934 0 0)
(-0.614201 0 0)
(-0.611465 0 0)
(-0.608725 0 0)
(-0.605982 0 0)
(-0.603236 0 0)
(-0.600487 0 0)
(-0.597735 0 0)
(-0.594979 0 0)
(-0.59222 0 0)
(-0.589459 0 0)
(-0.586694 0 0)
(-0.583926 0 0)
(-0.581155 0 0)
(-0.578382 0 0)
(-0.575605 0 0)
(-0.572826 0 0)
(-0.570043 0 0)
(-0.567258 0 0)
(-0.56447 0 0)
(-0.561679 0 0)
(-0.558885 0 0)
(-0.556088 0 0)
(-0.553289 0 0)
(-0.550487 0 0)
(-0.547682 0 0)
(-0.544875 0 0)
(-0.542065 0 0)
(-0.539252 0 0)
(-0.536437 0 0)
(-0.533619 0 0)
(-0.530799 0 0)
(-0.527976 0 0)
(-0.525151 0 0)
(-0.522323 0 0)
(-0.519493 0 0)
(-0.51666 0 0)
(-0.513825 0 0)
(-0.510987 0 0)
(-0.508147 0 0)
(-0.505305 0 0)
(-0.50246 0 0)
(-0.499613 0 0)
(-0.496764 0 0)
(-0.493912 0 0)
(-0.491059 0 0)
(-0.488203 0 0)
(-0.485345 0 0)
(-0.482484 0 0)
(-0.479622 0 0)
(-0.476757 0 0)
(-0.47389 0 0)
(-0.471021 0 0)
(-0.46815 0 0)
(-0.465277 0 0)
(-0.462402 0 0)
(-0.459524 0 0)
(-0.456645 0 0)
(-0.453764 0 0)
(-0.450881 0 0)
(-0.447995 0 0)
(-0.445108 0 0)
(-0.442219 0 0)
(-0.439328 0 0)
(-0.436435 0 0)
(-0.433541 0 0)
(-0.430644 0 0)
(-0.427745 0 0)
(-0.424845 0 0)
(-0.421943 0 0)
(-0.419039 0 0)
(-0.416134 0 0)
(-0.413226 0 0)
(-0.410317 0 0)
(-0.407406 0 0)
(-0.404494 0 0)
(-0.401579 0 0)
(-0.398664 0 0)
(-0.395746 0 0)
(-0.392827 0 0)
(-0.389906 0 0)
(-0.386984 0 0)
(-0.38406 0 0)
(-0.381134 0 0)
(-0.378207 0 0)
(-0.375278 0 0)
(-0.372348 0 0)
(-0.369416 0 0)
(-0.366483 0 0)
(-0.363548 0 0)
(-0.360612 0 0)
(-0.357674 0 0)
(-0.354735 0 0)
(-0.351795 0 0)
(-0.348853 0 0)
(-0.345909 0 0)
(-0.342965 0 0)
(-0.340019 0 0)
(-0.337071 0 0)
(-0.334122 0 0)
(-0.331172 0 0)
(-0.328221 0 0)
(-0.325268 0 0)
(-0.322314 0 0)
(-0.319359 0 0)
(-0.316403 0 0)
(-0.313445 0 0)
(-0.310486 0 0)
(-0.307526 0 0)
(-0.304565 0 0)
(-0.301602 0 0)
(-0.298638 0 0)
(-0.295674 0 0)
(-0.292708 0 0)
(-0.28974 0 0)
(-0.286772 0 0)
(-0.283803 0 0)
(-0.280832 0 0)
(-0.277861 0 0)
(-0.274888 0 0)
(-0.271915 0 0)
(-0.26894 0 0)
(-0.265965 0 0)
(-0.262988 0 0)
(-0.26001 0 0)
(-0.257032 0 0)
(-0.254052 0 0)
(-0.251071 0 0)
(-0.24809 0 0)
(-0.245107 0 0)
(-0.242124 0 0)
(-0.23914 0 0)
(-0.236154 0 0)
(-0.233168 0 0)
(-0.230181 0 0)
(-0.227194 0 0)
(-0.224205 0 0)
(-0.221215 0 0)
(-0.218225 0 0)
(-0.215234 0 0)
(-0.212242 0 0)
(-0.209249 0 0)
(-0.206256 0 0)
(-0.203262 0 0)
(-0.200267 0 0)
(-0.197271 0 0)
(-0.194274 0 0)
(-0.191277 0 0)
(-0.188279 0 0)
(-0.185281 0 0)
(-0.182282 0 0)
(-0.179282 0 0)
(-0.176281 0 0)
(-0.17328 0 0)
(-0.170278 0 0)
(-0.167275 0 0)
(-0.164272 0 0)
(-0.161269 0 0)
(-0.158264 0 0)
(-0.15526 0 0)
(-0.152254 0 0)
(-0.149248 0 0)
(-0.146242 0 0)
(-0.143235 0 0)
(-0.140227 0 0)
(-0.137219 0 0)
(-0.13421 0 0)
(-0.131201 0 0)
(-0.128192 0 0)
(-0.125182 0 0)
(-0.122171 0 0)
(-0.11916 0 0)
(-0.116149 0 0)
(-0.113137 0 0)
(-0.110125 0 0)
(-0.107113 0 0)
(-0.1041 0 0)
(-0.101087 0 0)
(-0.0980729 0 0)
(-0.0950589 0 0)
(-0.0920446 0 0)
(-0.0890299 0 0)
(-0.0860149 0 0)
(-0.0829996 0 0)
(-0.079984 0 0)
(-0.0769681 0 0)
(-0.073952 0 0)
(-0.0709356 0 0)
(-0.0679189 0 0)
(-0.064902 0 0)
(-0.0618848 0 0)
(-0.0588674 0 0)
(-0.0558499 0 0)
(-0.0528321 0 0)
(-0.0498141 0 0)
(-0.046796 0 0)
(-0.0437776 0 0)
(-0.0407592 0 0)
(-0.0377406 0 0)
(-0.0347218 0 0)
(-0.0317029 0 0)
(-0.0286839 0 0)
(-0.0256649 0 0)
(-0.0226457 0 0)
(-0.0196264 0 0)
(-0.0166071 0 0)
(-0.0135877 0 0)
(-0.0105683 0 0)
(-0.00754878 0 0)
(-0.00452928 0 0)
(-0.00150976 0 0)
)
;

boundaryField
{
    left
    {
        type            fixedValue;
        value           uniform (0 0 0);
    }
    right
    {
        type            fixedValue;
        value           uniform (0 0 0);
    }
    frontBackUpDown
    {
        type            empty;
    }
}


// ************************************************************************* //
