/*--------------------------------*- C++ -*----------------------------------*\
| =========                 |                                                 |
| \\      /  F ield         | OpenFOAM: The Open Source CFD Toolbox           |
|  \\    /   O peration     | Version:  2412                                  |
|   \\  /    A nd           | Website:  www.openfoam.com                      |
|    \\/     M anipulation  |                                                 |
\*---------------------------------------------------------------------------*/
FoamFile
{
    version     2.0;
    format      ascii;
    arch        "LSB;label=32;scalar=64";
    class       volVectorField;
    location    "0.51";
    object      U_0_0;
}
// * * * * * * * * * * * * * * * * * * * * * * * * * * * * * * * * * * * * * //

dimensions      [0 1 -1 0 0 0 0];

internalField   nonuniform List<vector> 
800
(
(0.00151157 0 0)
(0.00453473 0 0)
(0.00755788 0 0)
(0.010581 0 0)
(0.0136041 0 0)
(0.0166271 0 0)
(0.0196501 0 0)
(0.022673 0 0)
(0.0256958 0 0)
(0.0287186 0 0)
(0.0317412 0 0)
(0.0347637 0 0)
(0.0377861 0 0)
(0.0408084 0 0)
(0.0438305 0 0)
(0.0468524 0 0)
(0.0498742 0 0)
(0.0528958 0 0)
(0.0559172 0 0)
(0.0589385 0 0)
(0.0619595 0 0)
(0.0649803 0 0)
(0.0680008 0 0)
(0.0710211 0 0)
(0.0740412 0 0)
(0.077061 0 0)
(0.0800805 0 0)
(0.0830997 0 0)
(0.0861187 0 0)
(0.0891373 0 0)
(0.0921556 0 0)
(0.0951735 0 0)
(0.0981912 0 0)
(0.101208 0 0)
(0.104225 0 0)
(0.107242 0 0)
(0.110258 0 0)
(0.113274 0 0)
(0.116289 0 0)
(0.119304 0 0)
(0.122319 0 0)
(0.125333 0 0)
(0.128346 0 0)
(0.131359 0 0)
(0.134372 0 0)
(0.137384 0 0)
(0.140396 0 0)
(0.143407 0 0)
(0.146418 0 0)
(0.149428 0 0)
(0.152437 0 0)
(0.155446 0 0)
(0.158455 0 0)
(0.161463 0 0)
(0.16447 0 0)
(0.167476 0 0)
(0.170482 0 0)
(0.173488 0 0)
(0.176493 0 0)
(0.179497 0 0)
(0.1825 0 0)
(0.185503 0 0)
(0.188505 0 0)
(0.191507 0 0)
(0.194507 0 0)
(0.197507 0 0)
(0.200507 0 0)
(0.203505 0 0)
(0.206503 0 0)
(0.2095 0 0)
(0.212496 0 0)
(0.215492 0 0)
(0.218486 0 0)
(0.22148 0 0)
(0.224473 0 0)
(0.227465 0 0)
(0.230457 0 0)
(0.233447 0 0)
(0.236437 0 0)
(0.239425 0 0)
(0.242413 0 0)
(0.2454 0 0)
(0.248386 0 0)
(0.251371 0 0)
(0.254355 0 0)
(0.257338 0 0)
(0.26032 0 0)
(0.263301 0 0)
(0.266281 0 0)
(0.269261 0 0)
(0.272239 0 0)
(0.275216 0 0)
(0.278192 0 0)
(0.281167 0 0)
(0.28414 0 0)
(0.287113 0 0)
(0.290085 0 0)
(0.293055 0 0)
(0.296025 0 0)
(0.298993 0 0)
(0.30196 0 0)
(0.304926 0 0)
(0.307891 0 0)
(0.310854 0 0)
(0.313816 0 0)
(0.316777 0 0)
(0.319737 0 0)
(0.322696 0 0)
(0.325653 0 0)
(0.328609 0 0)
(0.331564 0 0)
(0.334517 0 0)
(0.337469 0 0)
(0.34042 0 0)
(0.343369 0 0)
(0.346317 0 0)
(0.349264 0 0)
(0.352209 0 0)
(0.355153 0 0)
(0.358095 0 0)
(0.361036 0 0)
(0.363976 0 0)
(0.366913 0 0)
(0.36985 0 0)
(0.372785 0 0)
(0.375718 0 0)
(0.37865 0 0)
(0.381581 0 0)
(0.384509 0 0)
(0.387437 0 0)
(0.390362 0 0)
(0.393286 0 0)
(0.396209 0 0)
(0.399129 0 0)
(0.402048 0 0)
(0.404966 0 0)
(0.407882 0 0)
(0.410795 0 0)
(0.413708 0 0)
(0.416618 0 0)
(0.419527 0 0)
(0.422434 0 0)
(0.425339 0 0)
(0.428242 0 0)
(0.431144 0 0)
(0.434044 0 0)
(0.436941 0 0)
(0.439837 0 0)
(0.442731 0 0)
(0.445623 0 0)
(0.448513 0 0)
(0.451402 0 0)
(0.454288 0 0)
(0.457172 0 0)
(0.460054 0 0)
(0.462935 0 0)
(0.465813 0 0)
(0.468689 0 0)
(0.471563 0 0)
(0.474435 0 0)
(0.477304 0 0)
(0.480172 0 0)
(0.483037 0 0)
(0.485901 0 0)
(0.488762 0 0)
(0.491621 0 0)
(0.494477 0 0)
(0.497332 0 0)
(0.500184 0 0)
(0.503033 0 0)
(0.505881 0 0)
(0.508726 0 0)
(0.511569 0 0)
(0.514409 0 0)
(0.517247 0 0)
(0.520082 0 0)
(0.522915 0 0)
(0.525746 0 0)
(0.528574 0 0)
(0.531399 0 0)
(0.534222 0 0)
(0.537043 0 0)
(0.539861 0 0)
(0.542676 0 0)
(0.545489 0 0)
(0.548298 0 0)
(0.551106 0 0)
(0.55391 0 0)
(0.556712 0 0)
(0.559511 0 0)
(0.562307 0 0)
(0.565101 0 0)
(0.567892 0 0)
(0.570679 0 0)
(0.573464 0 0)
(0.576246 0 0)
(0.579025 0 0)
(0.581802 0 0)
(0.584575 0 0)
(0.587345 0 0)
(0.590112 0 0)
(0.592876 0 0)
(0.595637 0 0)
(0.598395 0 0)
(0.601149 0 0)
(0.603901 0 0)
(0.606649 0 0)
(0.609394 0 0)
(0.612136 0 0)
(0.614874 0 0)
(0.61761 0 0)
(0.620341 0 0)
(0.62307 0 0)
(0.625795 0 0)
(0.628516 0 0)
(0.631235 0 0)
(0.633949 0 0)
(0.63666 0 0)
(0.639368 0 0)
(0.642072 0 0)
(0.644772 0 0)
(0.647468 0 0)
(0.650161 0 0)
(0.652851 0 0)
(0.655536 0 0)
(0.658217 0 0)
(0.660895 0 0)
(0.663569 0 0)
(0.666239 0 0)
(0.668905 0 0)
(0.671567 0 0)
(0.674225 0 0)
(0.676879 0 0)
(0.679529 0 0)
(0.682175 0 0)
(0.684816 0 0)
(0.687453 0 0)
(0.690086 0 0)
(0.692715 0 0)
(0.69534 0 0)
(0.69796 0 0)
(0.700575 0 0)
(0.703187 0 0)
(0.705793 0 0)
(0.708395 0 0)
(0.710993 0 0)
(0.713586 0 0)
(0.716174 0 0)
(0.718758 0 0)
(0.721336 0 0)
(0.72391 0 0)
(0.726479 0 0)
(0.729044 0 0)
(0.731603 0 0)
(0.734157 0 0)
(0.736706 0 0)
(0.73925 0 0)
(0.741789 0 0)
(0.744323 0 0)
(0.746851 0 0)
(0.749374 0 0)
(0.751892 0 0)
(0.754404 0 0)
(0.756911 0 0)
(0.759412 0 0)
(0.761908 0 0)
(0.764398 0 0)
(0.766882 0 0)
(0.769361 0 0)
(0.771834 0 0)
(0.774301 0 0)
(0.776762 0 0)
(0.779217 0 0)
(0.781665 0 0)
(0.784108 0 0)
(0.786545 0 0)
(0.788975 0 0)
(0.791399 0 0)
(0.793816 0 0)
(0.796227 0 0)
(0.798632 0 0)
(0.801029 0 0)
(0.803421 0 0)
(0.805805 0 0)
(0.808183 0 0)
(0.810553 0 0)
(0.812917 0 0)
(0.815273 0 0)
(0.817623 0 0)
(0.819965 0 0)
(0.8223 0 0)
(0.824627 0 0)
(0.826947 0 0)
(0.82926 0 0)
(0.831564 0 0)
(0.833861 0 0)
(0.836151 0 0)
(0.838432 0 0)
(0.840705 0 0)
(0.84297 0 0)
(0.845227 0 0)
(0.847475 0 0)
(0.849716 0 0)
(0.851947 0 0)
(0.85417 0 0)
(0.856384 0 0)
(0.85859 0 0)
(0.860786 0 0)
(0.862973 0 0)
(0.865152 0 0)
(0.86732 0 0)
(0.86948 0 0)
(0.87163 0 0)
(0.87377 0 0)
(0.8759 0 0)
(0.878021 0 0)
(0.880131 0 0)
(0.882231 0 0)
(0.884321 0 0)
(0.886401 0 0)
(0.88847 0 0)
(0.890528 0 0)
(0.892575 0 0)
(0.894611 0 0)
(0.896636 0 0)
(0.898649 0 0)
(0.900651 0 0)
(0.902642 0 0)
(0.90462 0 0)
(0.906586 0 0)
(0.90854 0 0)
(0.910482 0 0)
(0.912411 0 0)
(0.914328 0 0)
(0.916231 0 0)
(0.918121 0 0)
(0.919998 0 0)
(0.921861 0 0)
(0.923711 0 0)
(0.925546 0 0)
(0.927368 0 0)
(0.929174 0 0)
(0.930966 0 0)
(0.932744 0 0)
(0.934505 0 0)
(0.936252 0 0)
(0.937983 0 0)
(0.939698 0 0)
(0.941396 0 0)
(0.943078 0 0)
(0.944743 0 0)
(0.946391 0 0)
(0.948022 0 0)
(0.949635 0 0)
(0.95123 0 0)
(0.952806 0 0)
(0.954364 0 0)
(0.955902 0 0)
(0.957421 0 0)
(0.958921 0 0)
(0.9604 0 0)
(0.961858 0 0)
(0.963296 0 0)
(0.964711 0 0)
(0.966105 0 0)
(0.967477 0 0)
(0.968826 0 0)
(0.970151 0 0)
(0.971453 0 0)
(0.97273 0 0)
(0.973983 0 0)
(0.97521 0 0)
(0.976411 0 0)
(0.977585 0 0)
(0.978732 0 0)
(0.979852 0 0)
(0.980943 0 0)
(0.982004 0 0)
(0.983036 0 0)
(0.984036 0 0)
(0.985006 0 0)
(0.985943 0 0)
(0.986847 0 0)
(0.987716 0 0)
(0.988551 0 0)
(0.98935 0 0)
(0.990112 0 0)
(0.990836 0 0)
(0.99152 0 0)
(0.992165 0 0)
(0.992768 0 0)
(0.993328 0 0)
(0.993844 0 0)
(0.994314 0 0)
(0.994741 0 0)
(0.99508 0 0)
(0.995725 0 0)
(0.993048 0 0)
(1.01971 0 0)
(0.620883 0 0)
(-0.619445 0 0)
(-1.01973 0 0)
(-0.993045 0 0)
(-0.995725 0 0)
(-0.99508 0 0)
(-0.99474 0 0)
(-0.994313 0 0)
(-0.993843 0 0)
(-0.993327 0 0)
(-0.992767 0 0)
(-0.992165 0 0)
(-0.99152 0 0)
(-0.990835 0 0)
(-0.990112 0 0)
(-0.98935 0 0)
(-0.988551 0 0)
(-0.987716 0 0)
(-0.986846 0 0)
(-0.985942 0 0)
(-0.985005 0 0)
(-0.984036 0 0)
(-0.983035 0 0)
(-0.982003 0 0)
(-0.980942 0 0)
(-0.979851 0 0)
(-0.978732 0 0)
(-0.977585 0 0)
(-0.97641 0 0)
(-0.975209 0 0)
(-0.973982 0 0)
(-0.97273 0 0)
(-0.971452 0 0)
(-0.970151 0 0)
(-0.968825 0 0)
(-0.967476 0 0)
(-0.966105 0 0)
(-0.96471 0 0)
(-0.963295 0 0)
(-0.961857 0 0)
(-0.960399 0 0)
(-0.95892 0 0)
(-0.95742 0 0)
(-0.955901 0 0)
(-0.954363 0 0)
(-0.952805 0 0)
(-0.951228 0 0)
(-0.949634 0 0)
(-0.948021 0 0)
(-0.94639 0 0)
(-0.944742 0 0)
(-0.943077 0 0)
(-0.941395 0 0)
(-0.939696 0 0)
(-0.937981 0 0)
(-0.93625 0 0)
(-0.934504 0 0)
(-0.932742 0 0)
(-0.930965 0 0)
(-0.929173 0 0)
(-0.927366 0 0)
(-0.925545 0 0)
(-0.923709 0 0)
(-0.92186 0 0)
(-0.919997 0 0)
(-0.91812 0 0)
(-0.916229 0 0)
(-0.914326 0 0)
(-0.91241 0 0)
(-0.91048 0 0)
(-0.908539 0 0)
(-0.906584 0 0)
(-0.904618 0 0)
(-0.90264 0 0)
(-0.900649 0 0)
(-0.898647 0 0)
(-0.896634 0 0)
(-0.894609 0 0)
(-0.892573 0 0)
(-0.890526 0 0)
(-0.888468 0 0)
(-0.886399 0 0)
(-0.884319 0 0)
(-0.882229 0 0)
(-0.880129 0 0)
(-0.878019 0 0)
(-0.875898 0 0)
(-0.873768 0 0)
(-0.871628 0 0)
(-0.869478 0 0)
(-0.867318 0 0)
(-0.865149 0 0)
(-0.862971 0 0)
(-0.860784 0 0)
(-0.858587 0 0)
(-0.856382 0 0)
(-0.854168 0 0)
(-0.851945 0 0)
(-0.849713 0 0)
(-0.847473 0 0)
(-0.845225 0 0)
(-0.842968 0 0)
(-0.840703 0 0)
(-0.83843 0 0)
(-0.836148 0 0)
(-0.833859 0 0)
(-0.831562 0 0)
(-0.829257 0 0)
(-0.826945 0 0)
(-0.824625 0 0)
(-0.822298 0 0)
(-0.819963 0 0)
(-0.817621 0 0)
(-0.815271 0 0)
(-0.812915 0 0)
(-0.810551 0 0)
(-0.80818 0 0)
(-0.805803 0 0)
(-0.803418 0 0)
(-0.801027 0 0)
(-0.798629 0 0)
(-0.796225 0 0)
(-0.793814 0 0)
(-0.791396 0 0)
(-0.788973 0 0)
(-0.786542 0 0)
(-0.784106 0 0)
(-0.781663 0 0)
(-0.779214 0 0)
(-0.776759 0 0)
(-0.774298 0 0)
(-0.771832 0 0)
(-0.769359 0 0)
(-0.76688 0 0)
(-0.764396 0 0)
(-0.761906 0 0)
(-0.75941 0 0)
(-0.756909 0 0)
(-0.754402 0 0)
(-0.75189 0 0)
(-0.749372 0 0)
(-0.746849 0 0)
(-0.74432 0 0)
(-0.741787 0 0)
(-0.739248 0 0)
(-0.736704 0 0)
(-0.734155 0 0)
(-0.731601 0 0)
(-0.729041 0 0)
(-0.726477 0 0)
(-0.723908 0 0)
(-0.721334 0 0)
(-0.718755 0 0)
(-0.716172 0 0)
(-0.713584 0 0)
(-0.710991 0 0)
(-0.708393 0 0)
(-0.705791 0 0)
(-0.703184 0 0)
(-0.700573 0 0)
(-0.697958 0 0)
(-0.695338 0 0)
(-0.692713 0 0)
(-0.690084 0 0)
(-0.687451 0 0)
(-0.684814 0 0)
(-0.682172 0 0)
(-0.679527 0 0)
(-0.676877 0 0)
(-0.674223 0 0)
(-0.671565 0 0)
(-0.668903 0 0)
(-0.666237 0 0)
(-0.663567 0 0)
(-0.660893 0 0)
(-0.658215 0 0)
(-0.655534 0 0)
(-0.652848 0 0)
(-0.650159 0 0)
(-0.647466 0 0)
(-0.64477 0 0)
(-0.64207 0 0)
(-0.639366 0 0)
(-0.636658 0 0)
(-0.633947 0 0)
(-0.631233 0 0)
(-0.628515 0 0)
(-0.625793 0 0)
(-0.623068 0 0)
(-0.620339 0 0)
(-0.617608 0 0)
(-0.614873 0 0)
(-0.612134 0 0)
(-0.609392 0 0)
(-0.606647 0 0)
(-0.603899 0 0)
(-0.601147 0 0)
(-0.598393 0 0)
(-0.595635 0 0)
(-0.592874 0 0)
(-0.59011 0 0)
(-0.587343 0 0)
(-0.584573 0 0)
(-0.5818 0 0)
(-0.579024 0 0)
(-0.576245 0 0)
(-0.573463 0 0)
(-0.570678 0 0)
(-0.56789 0 0)
(-0.565099 0 0)
(-0.562306 0 0)
(-0.55951 0 0)
(-0.55671 0 0)
(-0.553909 0 0)
(-0.551104 0 0)
(-0.548297 0 0)
(-0.545487 0 0)
(-0.542674 0 0)
(-0.539859 0 0)
(-0.537041 0 0)
(-0.534221 0 0)
(-0.531398 0 0)
(-0.528572 0 0)
(-0.525744 0 0)
(-0.522914 0 0)
(-0.520081 0 0)
(-0.517245 0 0)
(-0.514407 0 0)
(-0.511567 0 0)
(-0.508724 0 0)
(-0.505879 0 0)
(-0.503032 0 0)
(-0.500182 0 0)
(-0.49733 0 0)
(-0.494476 0 0)
(-0.491619 0 0)
(-0.48876 0 0)
(-0.485899 0 0)
(-0.483036 0 0)
(-0.480171 0 0)
(-0.477303 0 0)
(-0.474433 0 0)
(-0.471561 0 0)
(-0.468688 0 0)
(-0.465811 0 0)
(-0.462933 0 0)
(-0.460053 0 0)
(-0.457171 0 0)
(-0.454287 0 0)
(-0.451401 0 0)
(-0.448512 0 0)
(-0.445622 0 0)
(-0.44273 0 0)
(-0.439836 0 0)
(-0.43694 0 0)
(-0.434042 0 0)
(-0.431143 0 0)
(-0.428241 0 0)
(-0.425338 0 0)
(-0.422433 0 0)
(-0.419526 0 0)
(-0.416617 0 0)
(-0.413707 0 0)
(-0.410795 0 0)
(-0.407881 0 0)
(-0.404965 0 0)
(-0.402048 0 0)
(-0.399128 0 0)
(-0.396208 0 0)
(-0.393285 0 0)
(-0.390361 0 0)
(-0.387436 0 0)
(-0.384509 0 0)
(-0.38158 0 0)
(-0.378649 0 0)
(-0.375718 0 0)
(-0.372784 0 0)
(-0.369849 0 0)
(-0.366913 0 0)
(-0.363975 0 0)
(-0.361035 0 0)
(-0.358094 0 0)
(-0.355152 0 0)
(-0.352208 0 0)
(-0.349263 0 0)
(-0.346317 0 0)
(-0.343369 0 0)
(-0.340419 0 0)
(-0.337468 0 0)
(-0.334516 0 0)
(-0.331563 0 0)
(-0.328608 0 0)
(-0.325652 0 0)
(-0.322695 0 0)
(-0.319737 0 0)
(-0.316777 0 0)
(-0.313816 0 0)
(-0.310853 0 0)
(-0.30789 0 0)
(-0.304925 0 0)
(-0.301959 0 0)
(-0.298992 0 0)
(-0.296024 0 0)
(-0.293055 0 0)
(-0.290084 0 0)
(-0.287113 0 0)
(-0.28414 0 0)
(-0.281166 0 0)
(-0.278191 0 0)
(-0.275215 0 0)
(-0.272238 0 0)
(-0.26926 0 0)
(-0.266281 0 0)
(-0.263301 0 0)
(-0.26032 0 0)
(-0.257338 0 0)
(-0.254355 0 0)
(-0.251371 0 0)
(-0.248386 0 0)
(-0.2454 0 0)
(-0.242413 0 0)
(-0.239425 0 0)
(-0.236436 0 0)
(-0.233447 0 0)
(-0.230456 0 0)
(-0.227465 0 0)
(-0.224473 0 0)
(-0.22148 0 0)
(-0.218486 0 0)
(-0.215491 0 0)
(-0.212496 0 0)
(-0.2095 0 0)
(-0.206503 0 0)
(-0.203505 0 0)
(-0.200506 0 0)
(-0.197507 0 0)
(-0.194507 0 0)
(-0.191506 0 0)
(-0.188505 0 0)
(-0.185503 0 0)
(-0.1825 0 0)
(-0.179497 0 0)
(-0.176492 0 0)
(-0.173488 0 0)
(-0.170482 0 0)
(-0.167476 0 0)
(-0.16447 0 0)
(-0.161462 0 0)
(-0.158454 0 0)
(-0.155446 0 0)
(-0.152437 0 0)
(-0.149428 0 0)
(-0.146417 0 0)
(-0.143407 0 0)
(-0.140396 0 0)
(-0.137384 0 0)
(-0.134372 0 0)
(-0.131359 0 0)
(-0.128346 0 0)
(-0.125332 0 0)
(-0.122318 0 0)
(-0.119304 0 0)
(-0.116289 0 0)
(-0.113274 0 0)
(-0.110258 0 0)
(-0.107242 0 0)
(-0.104225 0 0)
(-0.101208 0 0)
(-0.0981911 0 0)
(-0.0951735 0 0)
(-0.0921555 0 0)
(-0.0891372 0 0)
(-0.0861186 0 0)
(-0.0830997 0 0)
(-0.0800805 0 0)
(-0.0770609 0 0)
(-0.0740412 0 0)
(-0.0710211 0 0)
(-0.0680008 0 0)
(-0.0649802 0 0)
(-0.0619595 0 0)
(-0.0589384 0 0)
(-0.0559172 0 0)
(-0.0528958 0 0)
(-0.0498742 0 0)
(-0.0468524 0 0)
(-0.0438305 0 0)
(-0.0408084 0 0)
(-0.0377861 0 0)
(-0.0347637 0 0)
(-0.0317412 0 0)
(-0.0287186 0 0)
(-0.0256958 0 0)
(-0.022673 0 0)
(-0.0196501 0 0)
(-0.0166271 0 0)
(-0.0136041 0 0)
(-0.010581 0 0)
(-0.00755789 0 0)
(-0.00453475 0 0)
(-0.00151158 0 0)
)
;

boundaryField
{
    left
    {
        type            fixedValue;
        value           uniform (0 0 0);
    }
    right
    {
        type            fixedValue;
        value           uniform (0 0 0);
    }
    frontBackUpDown
    {
        type            empty;
    }
}


// ************************************************************************* //
