/*--------------------------------*- C++ -*----------------------------------*\
| =========                 |                                                 |
| \\      /  F ield         | OpenFOAM: The Open Source CFD Toolbox           |
|  \\    /   O peration     | Version:  2412                                  |
|   \\  /    A nd           | Website:  www.openfoam.com                      |
|    \\/     M anipulation  |                                                 |
\*---------------------------------------------------------------------------*/
FoamFile
{
    version     2.0;
    format      ascii;
    arch        "LSB;label=32;scalar=64";
    class       volScalarField;
    location    "4.5";
    object      p;
}
// * * * * * * * * * * * * * * * * * * * * * * * * * * * * * * * * * * * * * //

dimensions      [0 2 -2 0 0 0 0];

internalField   nonuniform List<scalar> 
2200
(
0.229972
0.229515
0.230419
0.23167
0.235952
0.24807
0.270997
0.308181
0.3655
0.443539
0.520112
0.573632
0.604343
0.621457
0.629858
0.634293
0.636782
0.637813
0.638139
0.638686
0.224527
0.224534
0.225852
0.228564
0.235688
0.251423
0.277423
0.31787
0.377116
0.455595
0.532307
0.584899
0.613003
0.627113
0.6326
0.634373
0.635517
0.636192
0.635299
0.635799
0.220516
0.220077
0.221791
0.227148
0.241002
0.260703
0.290924
0.337575
0.400628
0.48268
0.558221
0.607353
0.63193
0.640489
0.642317
0.640168
0.637296
0.638508
0.638554
0.63899
0.223706
0.222761
0.222946
0.230823
0.248498
0.273654
0.311793
0.364409
0.432385
0.51709
0.592119
0.640789
0.662977
0.665638
0.662814
0.656879
0.650923
0.647728
0.650455
0.651925
0.239984
0.238254
0.235638
0.240361
0.252426
0.282179
0.328043
0.389771
0.46665
0.557134
0.635924
0.683664
0.701671
0.697033
0.689573
0.680706
0.679583
0.679012
0.682981
0.68513
0.27035
0.267412
0.264783
0.264723
0.265713
0.288031
0.331502
0.40223
0.491637
0.597077
0.68271
0.726278
0.735976
0.731026
0.725321
0.724222
0.731679
0.735805
0.740399
0.743541
0.317051
0.313346
0.312529
0.311121
0.308714
0.318027
0.346135
0.408776
0.506874
0.627869
0.722469
0.769393
0.773874
0.782138
0.793518
0.806696
0.816569
0.821391
0.824146
0.828443
0.373124
0.369734
0.369612
0.368264
0.369113
0.367771
0.38278
0.42908
0.525065
0.662481
0.766596
0.8216
0.831052
0.86199
0.889589
0.911078
0.92064
0.929529
0.93165
0.935579
0.427766
0.424378
0.421987
0.418721
0.427757
0.429053
0.445277
0.483375
0.569429
0.711422
0.827191
0.895217
0.938289
0.981698
1.00956
1.02849
1.03453
1.04736
1.05148
1.05577
0.483848
0.479871
0.474547
0.467529
0.484287
0.50645
0.542798
0.593611
0.678189
0.811325
0.941994
1.03882
1.11386
1.14883
1.15842
1.16488
1.16674
1.18347
1.19224
1.1971
0.55934
0.552455
0.541134
0.53
0.546331
0.597705
0.6696
0.762359
0.874981
1.01778
1.16468
1.28086
1.35772
1.3617
1.3511
1.33841
1.33852
1.35748
1.37266
1.38005
0.691321
0.684557
0.67102
0.657304
0.659647
0.715128
0.813584
0.962308
1.12775
1.31486
1.48462
1.60606
1.64324
1.61275
1.59153
1.58163
1.59986
1.62103
1.63715
1.645
0.879586
0.872933
0.858378
0.842169
0.838833
0.873673
0.971419
1.15759
1.39548
1.66492
1.86727
1.9615
1.94778
1.90942
1.90229
1.91434
1.93928
1.96447
1.98246
1.98998
1.09143
1.08504
1.06977
1.04763
1.03962
1.05604
1.13191
1.31522
1.60937
1.97504
2.21534
2.27601
2.25084
2.24549
2.26983
2.30356
2.33563
2.37007
2.39054
2.39848
1.32883
1.32039
1.30003
1.26789
1.25422
1.26802
1.31937
1.45827
1.73613
2.13455
2.41719
2.52978
2.58544
2.64728
2.7019
2.74944
2.79361
2.83655
2.85972
2.8687
1.58733
1.58049
1.56117
1.52587
1.50213
1.51456
1.57428
1.68113
1.89454
2.24508
2.58303
2.84381
3.03413
3.15673
3.22132
3.27619
3.33173
3.3814
3.40747
3.41727
1.86512
1.85611
1.83458
1.79864
1.76954
1.78454
1.87706
2.01969
2.25092
2.61072
3.01606
3.38597
3.63173
3.75171
3.81533
3.88531
3.95262
4.00372
4.03018
4.03948
2.13246
2.12618
2.10542
2.06694
2.03313
2.04341
2.15714
2.3868
2.76837
3.27698
3.75907
4.11749
4.29634
4.3976
4.47374
4.56014
4.63655
4.69193
4.72075
4.73065
2.37873
2.37037
2.3483
2.3101
2.27119
2.27252
2.39148
2.67434
3.20049
3.88076
4.45657
4.80511
4.95867
5.08576
5.19425
5.29932
5.38655
5.44746
5.47902
5.48926
2.58337
2.57627
2.55282
2.50995
2.46701
2.4701
2.58815
2.88068
3.46192
4.22437
4.91536
5.38041
5.63655
5.82946
5.98059
6.10897
6.20961
6.27546
6.30964
6.32111
2.71574
2.71038
2.6904
2.65104
2.61042
2.61553
2.75152
3.09176
3.72449
4.55194
5.37991
6.01529
6.4003
6.65079
6.83942
6.99001
7.09895
7.16822
7.20349
7.21465
2.74431
2.74058
2.72546
2.6957
2.66653
2.69545
2.88768
3.33451
4.09963
5.0712
6.05971
6.81982
7.26711
7.54784
7.7609
7.92827
8.04154
8.10913
8.14446
8.15379
2.59228
2.59712
2.59648
2.58561
2.59416
2.68253
2.96088
3.55203
4.50807
5.66862
6.83784
7.70392
8.17724
8.50364
8.73311
8.90728
9.02932
9.10429
9.13891
9.14966
2.18538
2.19787
2.22164
2.26138
2.34427
2.53103
2.93308
3.694
4.83917
6.18361
7.55916
8.56863
9.09071
9.49589
9.76122
9.94053
10.0734
10.1547
10.2001
10.2238
1.34208
1.39895
1.4971
1.64225
1.87021
2.22491
2.80865
3.75788
5.09201
6.63795
8.2334
9.38043
10.0446
10.485
10.8039
11.0115
11.153
11.2551
11.3098
11.3218
-0.0893749
0.0339601
0.307784
0.686794
1.15406
1.7578
2.58892
3.7616
5.31596
7.10261
8.91166
10.2017
10.961
11.4563
11.7915
12.0264
12.1913
12.317
12.3879
12.4029
-2.23057
-1.84642
-1.20619
-0.509167
0.249815
1.1456
2.26334
3.71553
5.54329
7.62646
9.66148
11.1184
11.9778
12.5612
12.9621
13.2553
13.4667
13.6715
13.807
13.8365
-5.06208
-3.99222
-2.87301
-1.83789
-0.774691
0.41779
1.84539
3.60768
5.73046
8.1122
10.3625
11.9806
12.9747
13.6739
14.1894
14.5966
14.9333
15.2218
15.4665
15.5218
-7.47154
-6.07562
-4.6532
-3.28653
-1.8779
-0.361278
1.38895
3.4524
5.84079
8.46719
10.8936
12.6401
13.7825
14.6117
15.2431
15.7429
16.1432
16.4754
16.7627
16.817
-9.49512
-7.90707
-6.31394
-4.69537
-2.97881
-1.13022
0.930638
3.26622
5.88375
8.71091
11.2909
13.1584
14.4203
15.3573
16.0747
16.6569
17.125
17.4695
17.7615
17.828
-11.1494
-9.42804
-7.74174
-5.94938
-3.99328
-1.85879
0.47686
3.05413
5.86738
8.86559
11.5776
13.5717
14.8968
15.9277
16.7089
17.3106
17.7894
18.1376
18.4372
18.5205
-12.4325
-10.5641
-8.9249
-7.03254
-4.89802
-2.54086
0.0231464
2.81031
5.79669
8.94104
11.7634
13.8493
15.2919
16.3424
17.1268
17.7396
18.2426
18.6286
18.9502
19.0481
-13.4745
-11.5132
-9.93424
-7.9593
-5.67967
-3.14432
-0.394996
2.55333
5.6829
8.9472
11.8677
14.0301
15.5275
16.6087
17.4294
18.0369
18.5699
18.9281
19.2762
19.3887
-14.2833
-12.3587
-10.7975
-8.70591
-6.30239
-3.6371
-0.767801
2.29295
5.53738
8.89705
11.8996
14.1232
15.6655
16.7905
17.6415
18.2716
18.8014
19.2028
19.5329
19.6264
-15.0206
-13.0801
-11.4703
-9.24596
-6.74603
-4.02573
-1.10208
2.03802
5.3722
8.80587
11.8786
14.1668
15.7673
16.9353
17.8151
18.4865
19.0271
19.4078
19.76
19.8446
-15.632
-13.6922
-11.9735
-9.58549
-7.04785
-4.332
-1.38983
1.80455
5.19948
8.68767
11.8219
14.1826
15.852
17.0827
18.0087
18.6978
19.2424
19.6156
19.9459
20.0521
-16.1671
-14.1822
-12.3134
-9.80752
-7.27788
-4.57659
-1.62311
1.60167
5.03009
8.55675
11.7505
14.2012
15.9537
17.2378
18.1903
18.8983
19.4472
19.8519
20.1761
20.2877
-16.5712
-14.5909
-12.5821
-10.0126
-7.49681
-4.78868
-1.81477
1.426
4.87167
8.42641
11.6794
14.2173
16.0441
17.3824
18.3759
19.1061
19.6709
20.0817
20.3925
20.508
-16.8884
-14.9221
-12.847
-10.2425
-7.72826
-4.98896
-1.98724
1.26736
4.72606
8.30275
11.6056
14.214
16.1073
17.5001
18.5345
19.2991
19.8879
20.3196
20.638
20.7549
-17.2079
-15.2471
-13.1321
-10.55
-7.99231
-5.20217
-2.16092
1.116
4.58887
8.18037
11.5164
14.1764
16.1261
17.5774
18.6805
19.5043
20.117
20.5613
20.8935
21.0088
-17.5047
-15.5767
-13.482
-10.8968
-8.29303
-5.4448
-2.34851
0.961018
4.44896
8.04713
11.3995
14.0968
16.1064
17.632
18.8026
19.6884
20.3623
20.8387
21.1739
21.291
-17.8684
-15.9307
-13.807
-11.2621
-8.61456
-5.71038
-2.55395
0.79112
4.29281
7.89208
11.2518
13.9811
16.0526
17.6559
18.9058
19.8641
20.5925
21.1133
21.4766
21.591
-18.2129
-16.3024
-14.1882
-11.6227
-8.94326
-5.98561
-2.77553
0.598997
4.11154
7.71227
11.0793
13.8368
15.9627
17.6397
18.9723
20.0161
20.826
21.409
21.7973
21.923
-18.6059
-16.6875
-14.5624
-11.9787
-9.26361
-6.2566
-3.00814
0.385036
3.90607
7.51406
10.8917
13.6712
15.84
17.5823
18.9992
20.1391
21.0355
21.696
22.1228
22.247
-18.9935
-17.0624
-14.9231
-12.3095
-9.54594
-6.50868
-3.24262
0.157104
3.6862
7.30822
10.6963
13.4864
15.6826
17.4773
18.9707
20.2082
21.2162
21.9779
22.4561
22.5297
-19.3304
-17.3873
-15.2377
-12.5435
-9.77653
-6.73596
-3.47213
-0.0746044
3.46438
7.10369
10.4967
13.2849
15.4946
17.3245
18.8784
20.2114
21.3362
22.229
22.8114
22.7387
-19.656
-17.6155
-15.3601
-12.6899
-9.98226
-6.94689
-3.69529
-0.30231
3.24738
6.89945
10.2847
13.0563
15.2635
17.1116
18.7051
20.1103
21.3543
22.395
23.183
23.2324
-19.9166
-17.867
-15.6149
-12.9301
-10.1955
-7.15467
-3.91494
-0.524478
3.03261
6.68444
10.0462
12.7861
14.9722
16.8132
18.4162
19.8491
21.1534
22.2967
22.9377
22.8827
-20.1821
-18.2931
-16.1063
-13.2801
-10.4122
-7.36809
-4.12989
-0.73872
2.81972
6.45669
9.78168
12.4751
14.617
16.421
17.9942
19.3887
20.6127
21.5902
22.0107
22.0456
-20.4586
-18.5403
-16.2513
-13.4087
-10.6307
-7.59029
-4.34559
-0.952437
2.5999
6.21053
9.49038
12.1233
14.1972
15.9294
17.4191
18.7056
19.7659
20.4099
20.6643
20.8389
-20.6412
-18.5074
-16.1451
-13.4894
-10.8839
-7.81662
-4.57099
-1.17476
2.36434
5.94261
9.17364
11.7339
13.7129
15.3309
16.6827
17.803
18.6858
19.2014
19.3707
19.6137
-20.7945
-18.8029
-16.6215
-13.9235
-11.1815
-8.06754
-4.81579
-1.41584
2.10525
5.6501
8.8316
11.3078
13.1648
14.6292
15.806
16.7401
17.4514
17.8448
17.9324
18.2611
-21.1124
-19.3621
-17.2724
-14.4404
-11.4888
-8.35976
-5.07738
-1.67831
1.82364
5.33584
8.46611
10.8477
12.561
13.8406
14.819
15.5525
16.0234
16.2763
16.3975
16.7488
-21.4307
-19.6151
-17.3348
-14.5457
-11.7666
-8.64084
-5.34005
-1.95076
1.53228
5.01078
8.08458
10.3617
11.9183
12.9937
13.7583
14.2989
14.5533
14.5544
14.4618
14.6856
-21.5939
-19.6386
-17.3337
-14.6798
-12.0201
-8.87182
-5.59344
-2.2176
1.24428
4.68498
7.69484
9.86176
11.2632
12.1323
12.6646
12.9935
13.0164
12.4565
11.5209
11.6228
-21.785
-19.9342
-17.7571
-15.0597
-12.2534
-9.08983
-5.83152
-2.46886
0.967542
4.36439
7.30287
9.36104
10.6208
11.2979
11.5808
11.6153
11.4016
10.3209
8.06986
6.02596
-22.0739
-20.2681
-18.0248
-15.2557
-12.4392
-9.29793
-6.04436
-2.69962
0.70867
4.05668
6.92016
8.87858
10.0182
10.5368
10.583
10.268
9.72033
8.67119
4.79095
-5.5751
-22.257
-20.377
-18.0297
-15.2902
-12.5861
-9.46198
-6.23121
-2.9111
0.466533
3.76115
6.54568
8.41263
9.45137
9.84596
9.7059
9.14289
8.39623
7.6974
7.07613
3.02583
-22.3873
-20.5135
-18.2109
-15.4639
-12.7492
-9.61181
-6.41338
-3.1179
0.226563
3.46514
6.17115
7.95788
8.91926
9.24265
9.0481
8.52843
7.94955
7.91168
8.81119
7.86431
-22.5919
-20.7589
-18.4683
-15.6898
-12.9413
-9.78347
-6.60738
-3.33199
-0.018862
3.16714
5.80358
7.53051
8.45005
8.773
8.67604
8.38547
8.03696
7.97275
8.44937
7.95289
-22.7939
-20.9593
-18.6314
-15.864
-13.1396
-9.96669
-6.81689
-3.55848
-0.271737
2.86982
5.45223
7.14532
8.06791
8.46674
8.5647
8.44002
8.18346
7.92135
8.03411
7.97861
-22.9541
-21.1265
-18.8047
-16.0659
-13.3439
-10.1553
-7.03902
-3.79427
-0.52861
2.57885
5.12821
6.81815
7.78642
8.29259
8.54082
8.55087
8.35535
8.05426
8.12604
8.16686
-23.1159
-21.3109
-18.9986
-16.2918
-13.5452
-10.3536
-7.26612
-4.03163
-0.782714
2.30178
4.84198
6.56208
7.60581
8.21991
8.56925
8.71589
8.62107
8.34772
8.39119
8.42665
-23.249
-21.469
-19.1576
-16.485
-13.7158
-10.5511
-7.48575
-4.25945
-1.02542
2.04693
4.60234
6.38359
7.52042
8.2346
8.67213
8.94138
9.003
8.79255
8.81704
8.86497
-23.3317
-21.5865
-19.2774
-16.6324
-13.8452
-10.7361
-7.68418
-4.46711
-1.24855
1.82229
4.41419
6.28203
7.52497
8.34219
8.86353
9.24684
9.53225
9.53717
9.55718
9.60438
-23.3465
-21.6589
-19.3586
-16.7347
-13.9421
-10.8973
-7.85056
-4.64782
-1.44501
1.63456
4.27833
6.24265
7.60886
8.55884
9.19652
9.70809
10.1835
10.456
10.5858
10.6544
-23.288
-21.6741
-19.3756
-16.7758
-13.9993
-11.0158
-7.97956
-4.79643
-1.61051
1.48626
4.19444
6.2536
7.7521
8.85402
9.67258
10.3393
10.9399
11.3925
11.6306
11.7095
-23.118
-21.5801
-19.3044
-16.7434
-14.0044
-11.0743
-8.06141
-4.90758
-1.74414
1.37252
4.15244
6.30449
7.92269
9.19203
10.197
10.992
11.631
12.1316
12.437
12.5211
-22.8217
-21.3741
-19.1231
-16.6131
-13.929
-11.0576
-8.08692
-4.9758
-1.84297
1.28628
4.12676
6.36366
8.08915
9.48409
10.583
11.3971
12.0155
12.4948
12.8143
12.9136
-22.3365
-20.9909
-18.8055
-16.3706
-13.7583
-10.9589
-8.0489
-4.99876
-1.90908
1.21448
4.08604
6.38431
8.16044
9.5633
10.6359
11.4267
12.0371
12.51
12.8392
12.9531
-21.6504
-20.4377
-18.3256
-15.9834
-13.4698
-10.769
-7.94473
-4.97643
-1.94712
1.13877
3.99765
6.29179
8.0334
9.38875
10.4425
11.2465
11.8726
12.3416
12.6699
12.8012
-20.6925
-19.6356
-17.6622
-15.4604
-13.0711
-10.4941
-7.77737
-4.91145
-1.97109
1.03778
3.83076
6.06314
7.76115
9.11023
10.1884
11.0118
11.6416
12.1057
12.4305
12.5839
-19.4788
-18.6321
-16.8228
-14.7826
-12.5536
-10.1248
-7.54243
-4.81142
-1.99429
0.898499
3.58844
5.75885
7.44178
8.79087
9.86669
10.6895
11.3188
11.794
12.1329
12.3116
-18.0286
-17.4073
-15.8422
-14.0124
-11.9445
-9.67141
-7.24532
-4.67458
-2.01479
0.730546
3.30438
5.39928
7.02744
8.32461
9.35962
10.1706
10.8077
11.2987
11.6564
11.8629
-16.499
-16.1387
-14.8108
-13.1268
-11.2108
-9.11113
-6.8669
-4.49071
-2.01866
0.551812
2.9717
4.92981
6.43517
7.6357
8.60638
9.37762
9.99892
10.49
10.8633
11.1008
-15.2959
-15.1279
-13.8104
-12.1827
-10.3803
-8.44565
-6.40389
-4.24419
-1.98616
0.361373
2.56179
4.33285
5.68204
6.74946
7.60667
8.28042
8.82451
9.25745
9.59779
9.83151
-13.9481
-13.7885
-12.5062
-10.9823
-9.34301
-7.63735
-5.83638
-3.92455
-1.91357
0.18466
2.15758
3.75418
4.95802
5.89012
6.61723
7.16383
7.58998
7.9111
8.14322
8.29907
-11.8241
-11.7129
-10.5751
-9.35583
-8.03214
-6.62706
-5.12753
-3.51474
-1.7752
0.0622377
1.80803
3.23027
4.28872
5.08936
5.7065
6.14495
6.46128
6.68087
6.82094
6.90028
-8.7983
-8.70113
-8.12678
-7.44236
-6.52263
-5.47519
-4.30741
-2.99801
-1.55473
-0.0126663
1.47757
2.69222
3.57893
4.2244
4.71373
5.04525
5.26274
5.39678
5.47056
5.51049
-5.48092
-5.46831
-5.37845
-5.22129
-4.77372
-4.15101
-3.36436
-2.38763
-1.27451
-0.0359916
1.19192
2.19029
2.91066
3.40882
3.77695
4.01839
4.16785
4.25453
4.29859
4.32722
-3.16276
-3.16198
-3.17535
-3.19898
-3.05623
-2.7971
-2.37758
-1.73872
-0.946721
0.00645987
0.975129
1.76193
2.33567
2.7126
2.98144
3.15396
3.26142
3.3332
3.37392
3.41109
-1.72293
-1.73327
-1.74373
-1.76776
-1.73663
-1.6777
-1.49937
-1.11502
-0.587181
0.105344
0.830185
1.42545
1.87384
2.16114
2.36265
2.4964
2.58388
2.65601
2.69435
2.71951
-0.892088
-0.912275
-0.934872
-0.95815
-0.936656
-0.917912
-0.821949
-0.582551
-0.253759
0.219346
0.746846
1.19105
1.53774
1.76445
1.92714
2.04544
2.11909
2.18969
2.21936
2.23681
-0.448486
-0.470591
-0.518099
-0.553554
-0.52337
-0.476848
-0.375172
-0.209162
-0.0126785
0.31868
0.715597
1.05451
1.32422
1.50725
1.64297
1.75426
1.80415
1.86226
1.88083
1.88927
-0.225911
-0.244099
-0.290858
-0.326225
-0.302208
-0.24737
-0.148487
-0.0169003
0.12578
0.396985
0.71292
0.978401
1.19222
1.34103
1.44717
1.54973
1.57281
1.60504
1.61289
1.61689
-0.0873532
-0.0993135
-0.130323
-0.15793
-0.151548
-0.131859
-0.0706941
0.046954
0.192942
0.440983
0.697523
0.909683
1.08386
1.20895
1.27514
1.35779
1.36542
1.37996
1.38005
1.38187
0.0348419
0.0268124
0.00655511
-0.0139458
-0.0261571
-0.0447614
-0.0280402
0.0747619
0.215573
0.432973
0.643858
0.821494
0.964234
1.07047
1.09562
1.1517
1.15596
1.16684
1.16514
1.16535
0.13425
0.128256
0.112828
0.101139
0.0883624
0.0718986
0.072836
0.14056
0.222455
0.396101
0.566118
0.721922
0.825598
0.912541
0.916595
0.949821
0.955175
0.96671
0.96628
0.966938
0.206618
0.20231
0.192571
0.191531
0.189447
0.200801
0.209898
0.243296
0.252958
0.378671
0.49585
0.626597
0.682544
0.75139
0.756933
0.781669
0.785939
0.795641
0.79547
0.796347
0.268969
0.264853
0.258698
0.260918
0.2593
0.281224
0.29382
0.321384
0.310053
0.391312
0.450165
0.541474
0.569126
0.6198
0.631634
0.654428
0.656324
0.662312
0.660144
0.660002
0.312126
0.306398
0.297503
0.2957
0.284913
0.297571
0.293869
0.333573
0.339716
0.400253
0.421739
0.478973
0.497441
0.536168
0.544991
0.56201
0.559086
0.560821
0.555658
0.553607
0.32308
0.316262
0.304659
0.298742
0.278994
0.282884
0.264347
0.302979
0.317982
0.375711
0.391281
0.437792
0.451832
0.479842
0.479918
0.48921
0.480864
0.479408
0.472092
0.468454
0.308122
0.301698
0.291686
0.287427
0.268226
0.273467
0.251336
0.275029
0.276372
0.332415
0.350381
0.396244
0.403976
0.423965
0.415703
0.420641
0.41067
0.408485
0.401212
0.397029
0.284732
0.279461
0.273453
0.273877
0.259218
0.269409
0.248248
0.267756
0.252571
0.295
0.304204
0.345239
0.345007
0.360192
0.351413
0.355731
0.346457
0.345247
0.33962
0.335533
0.263067
0.257957
0.255534
0.257194
0.245401
0.257281
0.238478
0.261675
0.238574
0.268118
0.262529
0.293535
0.288406
0.300941
0.292325
0.297757
0.289536
0.289682
0.285395
0.281551
0.238966
0.233243
0.232643
0.232996
0.222174
0.232546
0.213126
0.240309
0.214658
0.241851
0.227805
0.250996
0.242283
0.253175
0.243839
0.250274
0.241534
0.241252
0.237761
0.234223
0.207949
0.201356
0.202109
0.201113
0.19071
0.200293
0.180045
0.204759
0.180328
0.209247
0.193902
0.212518
0.202942
0.212599
0.202875
0.208075
0.199772
0.198752
0.196065
0.192763
0.172136
0.165712
0.167827
0.166751
0.158745
0.166459
0.147724
0.166952
0.143956
0.172661
0.156772
0.174496
0.163871
0.173152
0.163542
0.167128
0.16097
0.159901
0.158133
0.155278
0.135857
0.129624
0.132942
0.13107
0.124606
0.131988
0.116061
0.132924
0.110766
0.136392
0.118841
0.135937
0.124599
0.133276
0.124907
0.128039
0.123505
0.122644
0.121702
0.119297
0.0990904
0.0937999
0.097148
0.0950583
0.0909651
0.0971683
0.0829507
0.09912
0.0783561
0.100434
0.0821051
0.0975817
0.0866887
0.0941278
0.0875285
0.0902459
0.0869052
0.0862643
0.0858024
0.083984
0.0610639
0.0565289
0.0601594
0.0577555
0.0541172
0.0605795
0.0484494
0.0632085
0.0449014
0.0634926
0.0471887
0.0599541
0.0504476
0.05694
0.0513241
0.0541223
0.0513427
0.0509427
0.0508446
0.0494211
0.0220372
0.0191096
0.022965
0.0203625
0.016953
0.0220988
0.0135107
0.0237585
0.0123595
0.0231826
0.0135926
0.0212316
0.0153674
0.0198015
0.0161049
0.0182072
0.0166142
0.0166935
0.0168661
0.0159947
11.674
16.0354
17.1377
18.5422
19.694
20.7275
21.6438
22.4432
23.039
23.2033
16.4243
18.5523
19.2579
20.1562
20.9448
21.6308
22.2095
22.6707
22.9301
22.9407
19.0116
20.0642
20.6021
21.1601
21.6597
22.0929
22.4449
22.7067
22.8475
22.8678
20.4401
21.0872
21.4396
21.7937
22.0992
22.3588
22.5646
22.7074
22.7884
22.817
21.3746
21.7159
21.9352
22.152
22.3432
22.5059
22.6334
22.7203
22.766
22.7937
21.8971
22.1244
22.2559
22.3982
22.517
22.6148
22.6907
22.7437
22.7765
22.798
22.2447
22.3889
22.4632
22.5544
22.6296
22.691
22.7393
22.7748
22.7968
22.8197
22.4699
22.561
22.6114
22.6666
22.7133
22.7516
22.7837
22.8096
22.8298
22.8492
22.6351
22.6919
22.7188
22.7495
22.7809
22.8086
22.8328
22.8575
22.8748
22.8965
22.7556
22.7881
22.8116
22.8336
22.8574
22.8813
22.9008
22.9212
22.936
22.9543
22.8647
22.8891
22.91
22.9268
22.9444
22.9616
22.9762
22.9903
22.9985
23.0143
22.9722
22.9877
23.0037
23.0175
23.0294
23.0396
23.0494
23.0576
23.0626
23.075
23.0689
23.0777
23.0911
23.1015
23.1098
23.1171
23.1251
23.1324
23.1351
23.1441
23.1636
23.1687
23.1785
23.1852
23.1898
23.1953
23.2014
23.2087
23.2122
23.222
23.2784
23.267
23.2604
23.2552
23.2527
23.2543
23.2607
23.2727
23.287
23.3148
23.4037
23.3478
23.3162
23.2975
23.2889
23.2889
23.298
23.3181
23.3496
23.4194
)
;

boundaryField
{
    wall-4
    {
        type            zeroGradient;
    }
    pressure-outlet-7
    {
        type            fixedValue;
        value           uniform 0;
    }
    velocity-inlet-6
    {
        type            zeroGradient;
    }
    velocity-inlet-5
    {
        type            zeroGradient;
    }
    frontAndBackPlanes
    {
        type            empty;
    }
}


// ************************************************************************* //
