/*--------------------------------*- C++ -*----------------------------------*\
| =========                 |                                                 |
| \\      /  F ield         | OpenFOAM: The Open Source CFD Toolbox           |
|  \\    /   O peration     | Version:  2412                                  |
|   \\  /    A nd           | Website:  www.openfoam.com                      |
|    \\/     M anipulation  |                                                 |
\*---------------------------------------------------------------------------*/
FoamFile
{
    version     2.0;
    format      ascii;
    arch        "LSB;label=32;scalar=64";
    class       surfaceScalarField;
    location    "4.5";
    object      phi;
}
// * * * * * * * * * * * * * * * * * * * * * * * * * * * * * * * * * * * * * //

dimensions      [0 3 -1 0 0 0 0];

oriented        oriented;

internalField   nonuniform List<scalar> 
4262
(
0.00222117
0.218291
0.000695158
0.830179
-0.00110907
1.76895
-0.00236498
3.16642
-0.00442764
5.18667
-0.00552093
8.01546
-0.00716092
11.8488
-0.00861751
16.8212
-0.00896945
22.8822
-0.00698043
29.5264
-0.00494998
29.5263
-0.00353594
22.8804
-0.0030536
16.8193
-0.00228298
11.8464
-0.00220226
8.01428
-0.00214416
5.18455
-0.00185971
3.16488
-0.00318551
1.76847
-0.0037006
0.829168
0.216812
-0.00367059
0.221962
-0.00283204
0.829341
-0.00561286
1.77173
-0.00957831
3.17039
-0.0153491
5.19244
-0.0201321
8.02024
-0.021556
11.8502
-0.0238811
16.8235
-0.0250527
22.8833
-0.0214918
29.5228
-0.0159776
29.5208
-0.0109501
22.8754
-0.00834074
16.8166
-0.00524911
11.8433
-0.00356701
8.0126
-0.00291324
5.18389
-0.00240928
3.16438
-0.0023694
1.76843
0.00138492
0.825414
0.218197
-0.0114536
0.233416
-0.0121059
0.829993
-0.0170774
1.7767
-0.0238914
3.1772
-0.0287776
5.19732
-0.0335064
8.02497
-0.0381149
11.8548
-0.0389104
16.8243
-0.0389598
22.8834
-0.0325999
29.5164
-0.0250671
29.5133
-0.0172169
22.8675
-0.00960914
16.809
-0.00489848
11.8386
-0.000787086
8.00849
0.00121987
5.18188
0.00203831
3.16356
0.0042444
1.76622
0.00874916
0.820909
0.226946
-0.0205564
0.253972
-0.0274469
0.836884
-0.0401246
1.78938
-0.0487768
3.18585
-0.0534477
5.20199
-0.0544991
8.02602
-0.0592286
11.8595
-0.0583468
16.8234
-0.0577732
22.8828
-0.0445664
29.5032
-0.0296079
29.4983
-0.0188668
22.8568
-0.00646179
16.7966
0.00102297
11.8311
0.00984388
7.99967
0.0133562
5.17837
0.0146581
3.16226
0.0131105
1.76777
0.0145624
0.819457
0.241508
-0.0279667
0.281939
-0.0449745
0.853891
-0.059541
1.80394
-0.0700034
3.19632
-0.081106
5.2131
-0.0805073
8.02542
-0.0797444
11.8588
-0.0740332
16.8177
-0.0700738
22.8789
-0.0547951
29.488
-0.0375453
29.4811
-0.0206691
22.8399
-0.00308941
16.7791
0.0103554
11.8176
0.0228289
7.9872
0.0270619
5.17414
0.0306069
3.15871
0.0290948
1.76928
0.0215363
0.827016
0.263045
-0.0303756
0.312314
-0.0655214
0.889037
-0.0722842
1.81071
-0.0865465
3.21058
-0.103926
5.23048
-0.113409
8.03491
-0.109981
11.8554
-0.102094
16.8098
-0.0914218
22.8682
-0.067657
29.4642
-0.0423248
29.4557
-0.0151251
22.8127
0.00947146
16.7545
0.0315655
11.7955
0.0387129
7.98005
0.0413405
5.17151
0.0425872
3.15747
0.0489075
1.76296
0.0243219
0.851601
0.287367
-0.032665
0.344979
-0.0827296
0.939102
-0.0836327
1.81161
-0.104157
3.2311
-0.120146
5.24647
-0.137684
8.05244
-0.137747
11.8554
-0.132144
16.8042
-0.114376
22.8504
-0.0786218
29.4284
-0.0416015
29.4187
-0.00650021
22.7776
0.0196506
16.7283
0.0407998
11.7744
0.0455342
7.97531
0.050375
5.16667
0.0504259
3.15742
0.0637955
1.74959
0.0245272
0.89087
0.311894
-0.0360741
0.381054
-0.0899117
0.992939
-0.0910924
1.81279
-0.112706
3.25272
-0.125385
5.25915
-0.144296
8.07135
-0.154029
11.8651
-0.158352
16.8086
-0.140547
22.8326
-0.0938368
29.3817
-0.0447018
29.3696
-0.00409134
22.737
0.018096
16.7061
0.0337359
11.7588
0.0414635
7.96759
0.0497658
5.15837
0.0519228
3.15526
0.0689457
1.73257
0.0269254
0.93289
0.338819
-0.0387915
0.419845
-0.0935639
1.04771
-0.09956
1.81879
-0.115948
3.2691
-0.133405
5.2766
-0.155156
8.0931
-0.172357
11.8823
-0.181416
16.8176
-0.167127
22.8183
-0.106748
29.3214
-0.0429315
29.3058
0.00111049
22.693
0.0219121
16.6853
0.0368954
11.7438
0.0473344
7.95715
0.0527075
5.153
0.0577975
3.15017
0.0698403
1.72053
0.0284222
0.974308
0.367241
-0.0423801
0.462225
-0.102458
1.10779
-0.119269
1.8356
-0.131473
3.28131
-0.165612
5.31074
-0.183347
8.11084
-0.201021
11.9
-0.201003
16.8176
-0.189581
22.8069
-0.124078
29.2558
-0.0532268
29.2349
-0.00540252
22.6451
0.028895
16.651
0.0489884
11.7237
0.0671105
7.93903
0.0648901
5.15522
0.075657
3.1394
0.0756938
1.72049
0.0308836
1.01912
0.398125
-0.0524262
0.514651
-0.126036
1.1814
-0.171978
1.88154
-0.186921
3.29625
-0.229088
5.35291
-0.240604
8.12236
-0.243499
11.9029
-0.228382
16.8025
-0.210952
22.7895
-0.141145
29.186
-0.065674
29.1594
-0.0056973
22.5852
0.0465777
16.5987
0.0839703
11.6863
0.108532
7.91446
0.101379
5.16237
0.118606
3.12217
0.0966303
1.74247
0.0398028
1.07595
0.437928
-0.0679669
0.582618
-0.161304
1.27474
-0.238175
1.95841
-0.262439
3.32052
-0.303462
5.39393
-0.322919
8.14181
-0.317369
11.8974
-0.286683
16.7718
-0.247566
22.7504
-0.162936
29.1014
-0.0738731
29.0704
0.00965921
22.5016
0.0865532
16.5219
0.143828
11.629
0.171317
7.88698
0.174405
5.15928
0.184614
3.11196
0.130349
1.79673
0.0544768
1.15182
0.492405
-0.0823063
0.664924
-0.19291
1.38534
-0.292083
2.05758
-0.335539
3.36397
-0.36855
5.42694
-0.399777
8.17304
-0.397537
11.8951
-0.363832
16.7381
-0.303813
22.6903
-0.191896
28.9895
-0.0690106
28.9475
0.0460592
22.3866
0.138605
16.4293
0.196977
11.5706
0.215975
7.86798
0.23199
5.14327
0.227819
3.11614
0.153105
1.87145
0.0639771
1.24095
0.556382
-0.0902662
0.755191
-0.212462
1.50754
-0.330756
2.17588
-0.395212
3.42843
-0.43205
5.46378
-0.478701
8.21969
-0.487506
11.9039
-0.460287
16.7109
-0.382866
22.6129
-0.224759
28.8314
-0.0540257
28.7768
0.0867273
22.2458
0.18648
16.3296
0.248119
11.509
0.262201
7.8539
0.284052
5.12141
0.261627
3.13856
0.17174
1.96133
0.0705367
1.34215
0.626919
-0.103158
0.858348
-0.245189
1.64957
-0.381435
2.31213
-0.466603
3.5136
-0.513032
5.51021
-0.573528
8.28019
-0.585846
11.9163
-0.559997
16.685
-0.472258
22.5252
-0.258049
28.6172
-0.0319941
28.5507
0.12957
22.0842
0.242758
16.2164
0.306627
11.4451
0.319388
7.84114
0.334645
5.10616
0.289962
3.18324
0.186045
2.06525
0.074697
1.4535
0.701616
-0.106772
0.96512
-0.259761
1.80256
-0.421761
2.47413
-0.541538
3.63337
-0.606279
5.57495
-0.664763
8.33867
-0.677542
11.929
-0.648623
16.6561
-0.547742
22.4243
-0.300468
28.3699
-0.0373737
28.2876
0.13704
21.9098
0.273041
16.0804
0.350397
11.3678
0.37684
7.81469
0.391237
5.09176
0.330338
3.24414
0.207725
2.18786
0.0809651
1.58026
0.782581
-0.126403
1.09152
-0.301834
1.97799
-0.478959
2.65125
-0.611403
3.76582
-0.68474
5.64829
-0.740619
8.39455
-0.756705
11.9451
-0.71459
16.614
-0.601045
22.3108
-0.355997
28.1249
-0.0939148
28.0255
0.108213
21.7077
0.276054
15.9125
0.380087
11.2637
0.433766
7.76101
0.436391
5.08914
0.349857
3.33068
0.211744
2.32598
0.0792375
1.71276
0.861818
-0.121695
1.21322
-0.30505
2.16134
-0.509211
2.85541
-0.683869
3.94047
-0.790518
5.75494
-0.843706
8.44774
-0.861514
11.9629
-0.827208
16.5797
-0.69319
22.1767
-0.426791
27.8585
-0.138034
27.7368
0.10833
21.4613
0.296337
15.7245
0.413097
11.147
0.485501
7.68861
0.479901
5.09474
0.379376
3.4312
0.226321
2.47903
0.0812365
1.85785
0.943055
-0.148509
1.36173
-0.354297
2.36713
-0.573266
3.07438
-0.764731
4.13194
-0.894861
5.88507
-0.965654
8.51853
-1.01252
12.0098
-1.00635
16.5735
-0.841035
22.0114
-0.508793
27.5262
-0.138715
27.3667
0.150866
21.1718
0.345993
15.5294
0.475834
11.0171
0.556245
7.6082
0.521197
5.12978
0.391694
3.56071
0.224381
2.64634
0.0723906
2.00984
1.01545
-0.143341
1.50507
-0.365271
2.58906
-0.617179
3.32629
-0.852224
4.36698
-1.02983
6.06267
-1.13131
8.62001
-1.19784
12.0763
-1.20305
16.5787
-1.00788
21.8163
-0.611426
27.1298
-0.155262
26.9105
0.173592
20.8429
0.391931
15.3111
0.538593
10.8705
0.615514
7.53128
0.562235
5.18306
0.415154
3.70779
0.228358
2.83314
0.0624495
2.17575
1.07789
-0.169374
1.67444
-0.412437
2.83212
-0.686
3.59985
-0.951323
4.63231
-1.16957
6.28092
-1.3082
8.75864
-1.39421
12.1623
-1.39566
16.5802
-1.17026
21.5909
-0.738034
26.6975
-0.227911
26.4004
0.14574
20.4692
0.41161
15.0452
0.589835
10.6923
0.653792
7.46732
0.567904
5.26895
0.395519
3.88017
0.198923
3.02974
0.0369752
2.33769
1.11487
-0.175091
1.84953
-0.440955
3.09799
-0.747862
3.90676
-1.05846
4.9429
-1.3308
6.55326
-1.51922
8.94706
-1.62896
12.2721
-1.61337
16.5646
-1.35399
21.3315
-0.891001
26.2345
-0.334005
25.8434
0.104189
20.0311
0.422319
14.7271
0.620884
10.4937
0.668429
7.41977
0.562278
5.3751
0.375407
4.06704
0.173264
3.23188
0.0117978
2.49916
1.12667
-0.210245
2.05978
-0.502881
3.39062
-0.842857
4.24673
-1.19835
5.2984
-1.53602
6.89093
-1.78476
9.1958
-1.91284
12.4001
-1.87138
16.5231
-1.57752
21.0376
-1.08467
25.7417
-0.468775
25.2275
0.0523975
19.5099
0.432583
14.3469
0.63884
10.2874
0.661309
7.39731
0.537696
5.49872
0.348812
4.25593
0.152315
3.42837
-0.00920435
2.66068
1.11746
-0.24862
2.3084
-0.574289
3.71629
-0.959301
4.63175
-1.39004
5.72913
-1.79436
7.29525
-2.09353
9.49497
-2.2313
12.5379
-2.16686
16.4587
-1.84284
20.7136
-1.30553
25.2044
-0.617847
24.5398
-0.0266243
18.9187
0.413588
13.9067
0.612971
10.088
0.60235
7.40793
0.459507
5.64156
0.269489
4.44594
0.101287
3.59658
-0.0260261
2.78799
1.09144
-0.320747
2.62915
-0.678931
4.07448
-1.15609
5.1089
-1.64294
6.21599
-2.08395
7.73626
-2.41968
9.83071
-2.57669
12.6949
-2.50024
16.3822
-2.15335
20.3667
-1.56409
24.6151
-0.811031
23.7868
-0.151449
18.2591
0.301685
13.4535
0.483257
9.90647
0.448626
7.44256
0.306881
5.78331
0.127604
4.62522
-0.056359
3.78054
-0.100753
2.83239
0.990684
-0.473517
3.10266
-0.997683
4.59864
-1.51943
5.63065
-2.00315
6.69971
-2.46262
8.19573
-2.81045
10.1785
-2.97523
12.8597
-2.87196
16.279
-2.50236
19.9971
-1.84123
23.954
-1.02097
22.9665
-0.321594
17.5597
0.111433
13.0205
0.248604
9.7693
0.187775
7.50339
0.0371856
5.93389
-0.120035
4.78244
-0.209453
3.86996
-0.169337
2.79227
0.821347
-0.366269
3.46893
-0.816467
5.04884
-1.24718
6.06136
-1.72276
7.17529
-2.21009
8.68306
-2.63941
10.6079
-2.91516
13.1355
-2.91185
16.2757
-2.65227
19.7375
-1.99306
23.2948
-1.06382
22.0373
-0.269814
16.7657
0.155346
12.5953
0.259334
9.66532
0.184679
7.57804
0.0548059
6.06377
-0.0944375
4.93168
-0.182681
3.9582
-0.134533
2.74412
0.686814
-0.191654
3.66059
-0.449171
5.30636
-0.823948
6.43613
-1.24799
7.59934
-1.65492
9.08999
-2.00459
10.9575
-2.20654
13.3374
-2.15649
16.2256
-1.87425
19.4553
-1.25863
22.6792
-0.477916
21.2566
0.0943343
16.1934
0.361743
12.3279
0.407245
9.61981
0.333815
7.65147
0.22934
6.16824
0.148957
5.01207
0.0775953
4.02956
0.0608289
2.76089
0.747643
-0.160644
3.82123
-0.354795
5.50051
-0.609033
6.69037
-0.919509
7.90981
-1.23715
9.40763
-1.51682
11.2372
-1.67554
13.4961
-1.63323
16.1833
-1.36223
19.1843
-0.829581
22.1465
-0.215766
20.6427
0.182263
15.7954
0.325036
12.1852
0.332218
9.61263
0.279298
7.70439
0.205051
6.24249
0.148657
5.06846
0.12771
4.05051
0.0896576
2.79894
0.837301
-0.100837
3.92207
-0.25751
5.65718
-0.468561
6.90142
-0.707079
8.14833
-0.946488
9.64704
-1.16354
11.4542
-1.29154
13.6241
-1.25796
16.1497
-1.02756
18.9539
-0.591608
21.7106
-0.134269
20.1854
0.136661
15.5245
0.232174
12.0896
0.251756
9.59305
0.249769
7.70638
0.219976
6.27228
0.173135
5.1153
0.13361
4.09003
0.0983771
2.83418
0.935678
-0.0449725
3.96704
-0.244191
5.8564
-0.409585
7.06682
-0.57677
8.31552
-0.751166
9.82144
-0.920958
11.624
-1.01984
13.723
-0.993515
16.1234
-0.811279
18.7716
-0.468054
21.3673
-0.135065
19.8524
0.0460183
15.3434
0.105091
12.0306
0.101452
9.59669
0.0644564
7.74337
0.0537747
6.28296
0.0783016
5.09078
0.104505
4.06383
0.0864454
2.85224
1.02212
-0.0349651
4.002
-0.192536
6.01397
-0.349447
7.22373
-0.483057
8.44913
-0.622234
9.96062
-0.748864
11.7507
-0.826496
13.8006
-0.811736
16.1086
-0.674079
18.634
-0.411664
21.1049
-0.171663
19.6124
-0.042939
15.2147
0.00521261
11.9824
0.0394398
9.56246
0.0946622
7.68815
0.142519
6.23511
0.153402
5.07989
0.131741
4.08549
0.0858689
2.89811
1.10799
-0.0204505
4.02245
-0.147988
6.14151
-0.276051
7.35179
-0.400929
8.574
-0.523503
10.0832
-0.625067
11.8522
-0.689459
13.865
-0.686604
16.1058
-0.587324
18.5347
-0.393462
20.9111
-0.219466
19.4384
-0.116776
15.112
-0.0571061
11.9227
-0.0246813
9.53004
-0.0308738
7.69434
-0.046208
6.25044
-0.0247512
5.05844
0.0129116
4.04783
0.0302933
2.88073
1.13829
-0.00822385
4.03068
-0.102957
6.23624
-0.203276
7.45211
-0.32444
8.69517
-0.441479
10.2002
-0.534759
11.9455
-0.591733
13.922
-0.597039
16.1111
-0.530013
18.4677
-0.389407
20.7705
-0.255547
19.3046
-0.169432
15.0259
-0.116017
11.8693
-0.07261
9.48663
-0.013875
7.63561
0.047133
6.18943
0.0585449
5.04703
0.038074
4.0683
-0.00312997
2.92193
1.13516
0.00630986
4.02437
-0.0601676
6.30272
-0.154175
7.54612
-0.26703
8.80802
-0.376781
10.31
-0.464754
12.0335
-0.51918
13.9764
-0.532034
16.1239
-0.491094
18.4267
-0.391723
20.6711
-0.292091
19.2049
-0.21962
14.9534
-0.159168
11.8089
-0.108825
9.43629
-0.0972655
7.62405
-0.102976
6.19514
-0.0773312
5.02138
-0.0355335
4.0265
-0.00746978
2.89387
1.12769
0.0127921
4.01158
-0.040125
6.35564
-0.112044
7.61804
-0.220865
8.91684
-0.322747
10.4119
-0.405794
12.1165
-0.460564
14.0312
-0.481707
16.1451
-0.461336
18.4064
-0.394428
20.6042
-0.320172
19.1307
-0.254701
14.8879
-0.201442
11.7556
-0.160698
9.39554
-0.101156
7.56451
-0.0417089
6.1357
-0.0185412
4.99821
-0.0132364
4.0212
-0.0192278
2.89986
1.10846
0.0300163
3.98156
-0.0184698
6.40412
-0.0982577
7.69782
-0.186729
9.00531
-0.274828
10.5
-0.352876
12.1946
-0.409735
14.0881
-0.440351
16.1757
-0.437171
18.4032
-0.398234
20.5652
-0.353261
19.0857
-0.307839
14.8425
-0.256832
11.7046
-0.199174
9.33788
-0.161335
7.52667
-0.13625
6.11061
-0.0953582
4.95732
-0.0477507
3.97359
-0.0195359
2.87164
1.08892
0.0127857
3.96877
-0.0306688
6.44758
-0.0880611
7.75522
-0.161888
9.07914
-0.236717
10.5748
-0.306458
12.2643
-0.364357
14.1459
-0.403078
16.2144
-0.414935
18.415
-0.402449
20.5528
-0.382745
19.066
-0.344768
14.8045
-0.295155
11.655
-0.246634
9.28936
-0.186178
7.46621
-0.123518
6.04795
-0.089063
4.92287
-0.070505
3.95503
-0.0396752
2.84081
1.04925
0.020634
3.94814
-0.024408
6.49262
-0.0801242
7.81093
-0.137781
9.1368
-0.201048
10.6381
-0.266206
12.3295
-0.324854
14.2046
-0.369744
16.2593
-0.395405
18.4407
-0.406096
20.5634
-0.409897
19.0698
-0.394607
14.7892
-0.358512
11.6189
-0.296977
9.22783
-0.236134
7.40537
-0.184338
5.99615
-0.130115
4.86864
-0.0721467
3.89706
-0.0403383
2.80901
1.00891
0.00919146
3.93895
-0.0308299
6.53264
-0.0748876
7.85499
-0.122377
9.18429
-0.175554
10.6912
-0.233181
12.3871
-0.289947
14.2614
-0.339246
16.3086
-0.376349
18.4778
-0.406124
20.5932
-0.427599
19.0913
-0.423164
14.7848
-0.388819
11.5846
-0.344137
9.18315
-0.286243
7.34748
-0.218599
5.92851
-0.161701
4.81175
-0.122306
3.85767
-0.0629125
2.74961
0.945996
0.00941139
3.92954
-0.0277896
6.56984
-0.0632166
7.89042
-0.1095
9.23057
-0.156062
10.7378
-0.20798
12.439
-0.26126
14.3146
-0.312607
16.36
-0.358469
18.5237
-0.403336
20.6381
-0.439112
19.127
-0.457416
14.8031
-0.44474
11.5719
-0.398853
9.13726
-0.328988
7.27761
-0.262903
5.86243
-0.198337
4.74718
-0.123044
3.78237
-0.067219
2.69379
0.878777
0.0105188
3.91902
-0.0225255
6.60289
-0.0572485
7.92514
-0.0986879
9.27201
-0.140609
10.7797
-0.187541
12.4859
-0.236748
14.3639
-0.28861
16.4118
-0.340292
18.5754
-0.396523
20.6943
-0.444918
19.1754
-0.474471
14.8327
-0.474119
11.5715
-0.449132
9.11227
-0.406815
7.23529
-0.342279
5.79789
-0.264379
4.66928
-0.19043
3.70843
-0.0943506
2.59771
0.784426
0.00242801
3.91659
-0.0232936
6.62861
-0.0424423
7.94429
-0.0868622
9.31643
-0.126665
10.8195
-0.170578
12.5299
-0.216607
14.4099
-0.267717
16.4629
-0.32304
18.6307
-0.388113
20.7594
-0.448126
19.2355
-0.490958
14.8755
-0.517878
11.5985
-0.50205
9.09644
-0.446914
7.18016
-0.380016
5.73099
-0.308473
4.59774
-0.201472
3.60143
-0.10557
2.50181
0.678857
0.0129853
3.90361
-0.0134947
6.65509
-0.0427765
7.97357
-0.0793359
9.35299
-0.115202
10.8554
-0.155572
12.5702
-0.198477
14.4528
-0.248617
16.5131
-0.306084
18.6881
-0.377314
20.8306
-0.447485
19.3056
-0.50117
14.9292
-0.53281
11.6301
-0.549564
9.1132
-0.538606
7.1692
-0.490773
5.68316
-0.404988
4.51195
-0.293861
3.4903
-0.144576
2.35252
0.534281
0.00442781
3.89918
-0.012947
6.67246
-0.0310105
7.99163
-0.0691247
9.3911
-0.104224
10.8905
-0.142206
12.6082
-0.182925
14.4935
-0.231862
16.562
-0.290298
18.7466
-0.365762
20.9061
-0.444226
19.3841
-0.510291
14.9952
-0.557564
11.6774
-0.579212
9.13485
-0.572431
7.16242
-0.527373
5.6381
-0.457757
4.44234
-0.325069
3.35761
-0.156884
2.18434
0.377396
0.00560076
3.89358
-0.00960585
6.68767
-0.0329094
8.01494
-0.061487
9.41968
-0.0948185
10.9238
-0.130304
12.6437
-0.169405
14.5326
-0.21787
16.6105
-0.276956
18.8057
-0.355217
20.9843
-0.44061
19.4695
-0.518053
15.0727
-0.577847
11.7372
-0.61577
9.17277
-0.642812
7.18946
-0.640743
5.63603
-0.58609
4.38768
-0.45776
3.22928
-0.135522
1.8621
0.241874
0.00436207
3.88922
-0.00746398
6.6995
-0.0276349
8.03511
-0.0589656
9.45101
-0.0906478
10.9555
-0.125215
12.6783
-0.166345
14.5737
-0.218252
16.6624
-0.282841
18.8703
-0.371281
21.0728
-0.472725
19.5709
-0.571007
15.171
-0.657754
11.8239
-0.722912
9.23793
-0.752085
7.21863
-0.746912
5.63086
-0.693782
4.33455
-0.528924
3.06442
-0.309572
1.64275
0.706511
-0.774208
-0.00206803
3.89128
-0.00822174
6.70565
-0.0300076
8.05689
-0.0546259
9.47563
-0.0829359
10.9838
-0.116724
12.7121
-0.158088
14.6151
-0.211182
16.7155
-0.278195
18.9373
-0.372537
21.1671
-0.485504
19.6839
-0.601773
15.2872
-0.712243
11.9344
-0.807688
9.33337
-0.889768
7.30071
-0.977333
5.71842
-1.0518
4.40902
-0.944085
2.95671
-0.912979
1.61164
1.19945
-1.40592
-0.00351817
3.8948
-0.0135718
6.7157
-0.0285138
8.07184
-0.046239
9.49335
-0.075203
11.0128
-0.108872
12.7457
-0.150493
14.6567
-0.204328
16.7693
-0.273435
19.0064
-0.373527
21.2672
-0.497638
19.808
-0.631063
15.4207
-0.768301
12.0716
-0.906772
9.47184
-1.04017
7.43412
-1.13249
5.81074
-1.12888
4.40541
-1.00659
2.83442
-1.28771
1.89276
1.6035
-1.69175
0.00439733
3.8904
-0.00506974
6.72517
-0.0248765
8.09164
-0.0449891
9.51347
-0.073924
11.0417
-0.101026
12.7728
-0.14223
14.6979
-0.196004
16.8231
-0.266954
19.0773
-0.372244
21.3725
-0.506286
19.942
-0.656664
15.571
-0.821183
12.2361
-0.997087
9.64775
-1.1864
7.62342
-1.3512
5.97555
-1.33564
4.38986
-1.38042
2.87919
-1.68715
2.19948
1.86635
-1.95
0.000130558
3.89027
-0.00766813
6.73297
-0.0283135
8.11229
-0.0436382
9.52879
-0.0676435
11.0657
-0.0936264
12.7988
-0.134764
14.7391
-0.187857
16.8762
-0.260196
19.1497
-0.370057
21.4824
-0.512884
20.0849
-0.678121
15.7363
-0.868347
12.4264
-1.07793
9.85733
-1.27647
7.82196
-1.38527
6.08434
-1.36444
4.36903
-1.5639
3.07865
-1.8744
2.50998
2.082
-2.09005
-0.00517289
3.89545
-0.00738877
6.73518
-0.0180742
8.12297
-0.0363704
9.54709
-0.0568994
11.0862
-0.0903752
12.8323
-0.130909
14.7796
-0.184381
16.9297
-0.258438
19.2237
-0.372814
21.5967
-0.522969
20.235
-0.70001
15.9133
-0.909016
12.6354
-1.1299
10.0782
-1.32677
8.01883
-1.49897
6.25654
-1.64352
4.51357
-1.91217
3.34731
-2.18876
2.78657
2.22607
-2.33283
0.00656375
3.88888
-0.0101464
6.75189
-0.0222563
8.13508
-0.0382506
9.56308
-0.0579302
11.1059
-0.0915178
12.8659
-0.131478
14.8196
-0.185978
16.9842
-0.261906
19.2996
-0.380926
21.7158
-0.537526
20.3916
-0.72215
16.0979
-0.93821
12.8514
-1.18006
10.3201
-1.40615
8.24492
-1.52207
6.37246
-1.65187
4.64337
-1.94718
3.64262
-2.19096
3.03035
2.42087
-2.38577
0.0151488
3.87373
-0.0012882
6.76833
-0.0213451
8.15514
-0.0435632
9.5853
-0.0650821
11.1274
-0.092452
12.8932
-0.132384
14.8595
-0.186944
17.0387
-0.264355
19.3771
-0.387411
21.8388
-0.549725
20.5539
-0.736957
16.2852
-0.950564
13.065
-1.19545
10.565
-1.43029
8.47976
-1.58051
6.52269
-1.84975
4.91261
-2.32429
4.11716
-2.70437
3.41043
2.7178
-3.0013
0.00348069
3.87025
-0.0036441
6.77546
-0.0176878
8.16918
-0.0379136
9.60553
-0.0625596
11.1521
-0.0926603
12.9233
-0.133883
14.9007
-0.188421
17.0932
-0.266753
19.4554
-0.39268
21.9648
-0.562382
20.7236
-0.752255
16.4751
-0.951059
13.2638
-1.18102
10.7949
-1.44592
8.74465
-1.69175
6.76853
-1.96237
5.18322
-2.38945
4.54424
-2.88039
3.90138
2.92461
-3.0872
0.00455529
3.8657
-0.00376081
6.78377
-0.0165438
8.18197
-0.0368336
9.62582
-0.0610166
11.1763
-0.0934399
12.9558
-0.133913
14.9412
-0.188748
17.1481
-0.267077
19.5337
-0.393865
22.0915
-0.565206
20.895
-0.752558
16.6624
-0.955202
13.4665
-1.16425
11.004
-1.38055
8.96095
-1.62681
7.01479
-2.13925
5.69567
-2.52962
4.9346
-3.0311
4.40285
3.68021
-3.7867
0.016273
3.84942
0.00547536
6.79457
-0.0158507
8.20329
-0.0408375
9.6508
-0.064775
11.2002
-0.0946146
12.9856
-0.133659
14.9802
-0.187154
17.2016
-0.262622
19.6092
-0.383511
22.2124
-0.54046
21.0519
-0.711322
16.8333
-0.898318
13.6535
-1.08976
11.1954
-1.24904
9.12023
-1.48815
7.25389
-1.85668
6.0642
-2.03723
5.11515
-1.48601
3.85164
2.1942
0.0148187
3.83461
0.00278817
6.8066
-0.0150191
8.2211
-0.0369444
9.67273
-0.0633939
11.2267
-0.0941251
13.0163
-0.135071
15.0212
-0.190725
17.2572
-0.269228
19.6877
-0.393149
22.3364
-0.549005
21.2078
-0.716936
17.0012
-0.896429
13.833
-1.0619
11.3609
-1.15201
9.21034
-1.23306
7.33494
-1.20236
6.0335
-1.06435
4.97714
-0.734505
3.52179
1.45969
0.0122857
3.82232
0.00608871
6.8128
-0.00700792
8.2342
-0.0302001
9.69592
-0.0584798
11.2549
-0.0904037
13.0483
-0.133392
15.0642
-0.190679
17.3145
-0.270294
19.7673
-0.394376
22.4604
-0.548691
21.3621
-0.707329
17.1598
-0.862564
13.9882
-0.977005
11.4753
-1.01575
9.24909
-1.02755
7.34674
-1.05799
6.06394
-1.02652
4.94567
-0.826612
3.32188
0.63308
0.0190542
3.80327
0.00971583
6.82214
-0.00624695
8.25016
-0.0287328
9.71841
-0.0552116
11.2814
-0.084877
13.0779
-0.128282
15.1076
-0.185942
17.3722
-0.265058
19.8464
-0.386201
22.5816
-0.533453
21.5094
-0.674225
17.3006
-0.791946
14.1059
-0.845826
11.5292
-0.895379
9.29864
-0.922833
7.37419
-0.967112
6.10821
-0.890513
4.86907
-0.403188
2.83456
0.229892
0.0218864
3.78138
0.01652
6.8275
0.00181844
8.26486
-0.0223796
9.7426
-0.047999
11.307
-0.0763485
13.1063
-0.120405
15.1516
-0.176486
17.4283
-0.253129
19.9231
-0.367857
22.6963
-0.501497
21.643
-0.614844
17.414
-0.689207
14.1803
-0.749896
11.5899
-0.790126
9.33887
-0.824075
7.40814
-0.81093
6.09507
-0.609626
4.66777
-0.178092
2.40303
0.0517996
0.023358
3.75802
0.0182339
6.83263
0.00799675
8.2751
-0.0143979
9.765
-0.0358322
11.3285
-0.0639595
13.1344
-0.10832
15.196
-0.159741
17.4797
-0.232142
19.9955
-0.336753
22.8009
-0.449138
21.7554
-0.532775
17.4976
-0.585385
14.2329
-0.635301
11.6398
-0.641126
9.3447
-0.660987
7.428
-0.587324
6.02141
-0.422316
4.50276
-0.159525
2.14023
-0.107725
0.02997
3.72805
0.0326443
6.82995
0.0204342
8.28731
-0.00325895
9.78869
-0.017504
11.3427
-0.0484546
13.1653
-0.0912034
15.2387
-0.135942
17.5244
-0.202001
20.0615
-0.293252
22.8922
-0.381016
21.8431
-0.439823
17.5564
-0.480805
14.2739
-0.493453
11.6525
-0.476886
9.32813
-0.459258
7.41038
-0.383618
5.94577
-0.251471
4.37062
-0.0561688
1.94493
-0.163894
0.0353603
3.69269
0.0388057
6.82651
0.0317588
8.29436
0.0144725
9.80598
0.00591913
11.3513
-0.0288248
13.2001
-0.0627044
15.2726
-0.102248
17.564
-0.160373
20.1197
-0.235884
22.9677
-0.302611
21.9099
-0.342451
17.5962
-0.357005
14.2884
-0.322656
11.6181
-0.270857
9.27633
-0.186773
7.32629
-0.103928
5.86292
0.00126997
4.26542
0.0563812
1.88982
-0.107513
0.0470611
3.64563
0.060736
6.81283
0.0561167
8.29898
0.0427184
9.81938
0.0268201
11.3672
-0.00500053
13.2319
-0.0223076
15.2899
-0.0593075
17.601
-0.107737
20.1681
-0.166065
23.026
-0.211645
21.9555
-0.229803
17.6144
-0.210878
14.2695
-0.144068
11.5513
-0.0510282
9.18329
0.0674193
7.20784
0.184468
5.74587
0.247586
4.2023
0.140181
1.99723
0.0326681
0.056983
3.58865
0.0718929
6.79792
0.0758731
8.29499
0.0706854
9.82456
0.060269
11.3776
0.0456296
13.2466
0.0293946
15.3062
-0.0061459
17.6365
-0.042633
20.2046
-0.0835436
23.0669
-0.107242
21.9792
-0.100154
17.6073
-0.0538683
14.2232
0.0253472
11.4721
0.129934
9.0787
0.238425
7.09935
0.343859
5.64044
0.399938
4.14622
0.22072
2.17644
0.253388
0.0740657
3.51458
0.106227
6.76576
0.114592
8.28663
0.111115
9.82804
0.10808
11.3806
0.10453
13.2501
0.0929159
15.3178
0.0730031
17.6564
0.0428462
20.2347
0.00953168
23.1002
0.00147023
21.9872
0.0341078
17.5747
0.104994
14.1523
0.195215
11.3819
0.272913
9.001
0.348315
7.02395
0.429973
5.55878
0.458815
4.11738
0.281968
2.35329
0.535356
0.0879614
3.42662
0.126767
6.72695
0.148327
8.26507
0.160467
9.8159
0.171591
11.3695
0.177925
13.2438
0.174719
15.321
0.170879
17.6603
0.156029
20.2496
0.137571
23.1187
0.139662
21.9851
0.174036
17.5403
0.230009
14.0964
0.281896
11.33
0.317636
8.96526
0.362389
6.9792
0.415663
5.50551
0.425678
4.10736
0.278172
2.5008
0.813529
0.118554
3.30807
0.18405
6.66146
0.214558
8.23456
0.232907
9.79755
0.252938
11.3495
0.269422
13.2273
0.278907
15.3115
0.288619
17.6505
0.284823
20.2534
0.275568
23.1279
0.280058
21.9806
0.297271
17.5231
0.311305
14.0823
0.326423
11.3149
0.341718
8.94997
0.369358
6.95156
0.397447
5.47742
0.379071
4.12574
0.232095
2.64777
1.04562
0.142468
3.1656
0.222844
6.58108
0.275136
8.18227
0.318427
9.75426
0.355982
11.3119
0.386029
13.1972
0.413252
15.2843
0.433258
17.6305
0.439587
20.247
0.433832
23.1337
0.423217
21.9912
0.4094
17.5369
0.401177
14.0906
0.400811
11.3152
0.392533
8.95825
0.377025
6.96707
0.367332
5.48711
0.316515
4.17656
0.176815
2.78747
1.22244
0.198237
2.96736
0.323306
6.45601
0.391288
8.11429
0.443164
9.70239
0.488365
11.2667
0.532671
13.1529
0.578195
15.2387
0.608807
17.5999
0.622987
20.2329
0.614872
23.1418
0.587805
22.0183
0.563089
17.5616
0.547866
14.1058
0.524822
11.3383
0.473133
9.00994
0.408769
7.03143
0.36332
5.53256
0.288166
4.25171
0.146728
2.92891
1.36917
0.243559
2.7238
0.401635
6.29794
0.502664
8.01326
0.588069
9.61698
0.656064
11.1987
0.720525
13.0885
0.783236
15.176
0.828972
17.5542
0.853667
20.2082
0.846172
23.1493
0.81389
22.0506
0.776644
17.5989
0.731149
14.1513
0.666687
11.4027
0.569671
9.10695
0.463898
7.1372
0.388
5.60846
0.293904
4.34581
0.146706
3.07611
1.51587
0.351788
2.37201
0.586232
6.06349
0.716417
7.88307
0.810845
9.52255
0.881549
11.128
0.961613
13.0084
1.04186
15.0958
1.10572
17.4903
1.14263
20.1713
1.14235
23.1496
1.10105
22.0919
1.03341
17.6665
0.951087
14.2336
0.864644
11.4892
0.751622
9.21997
0.614667
7.27416
0.494217
5.72891
0.35551
4.48451
0.168641
3.26298
1.68451
0.455585
1.91643
0.762849
5.75623
0.92284
7.72308
1.05423
9.39117
1.15967
11.0226
1.27143
12.8966
1.37875
14.9885
1.46395
17.4051
1.51766
20.1175
1.51891
23.1483
1.45115
22.1596
1.34984
17.7678
1.23604
14.3474
1.11668
11.6085
0.974515
9.36214
0.778148
7.47053
0.586722
5.92034
0.387718
4.68352
0.169566
3.48113
1.85408
0.716222
1.20021
1.10605
5.3664
1.29882
7.53031
1.43697
9.25302
1.54718
10.9124
1.67598
12.7678
1.80637
14.8581
1.91694
17.2946
1.9899
20.0446
1.99639
23.1418
1.91289
22.2431
1.78374
17.897
1.62982
14.5013
1.45336
11.785
1.27013
9.54537
1.02194
7.71871
0.762842
6.17943
0.494889
4.95147
0.213518
3.7625
2.0676
0.768678
0.431529
1.37672
4.75836
1.65519
7.25184
1.85822
9.04999
2.03012
10.7405
2.20095
12.597
2.37053
14.6885
2.51684
17.1483
2.62154
19.9399
2.65288
23.1105
2.56586
22.3302
2.40516
18.0577
2.20359
14.7029
1.95744
12.0312
1.70674
9.79608
1.38347
8.04198
1.02426
6.53864
0.662753
5.31298
0.298115
4.12714
2.36571
0.507408
-0.0758787
1.18684
4.07892
1.59073
6.84796
1.82496
8.81576
1.98251
10.5829
2.10641
12.4731
2.21166
14.5833
2.28281
17.0771
2.29053
19.9322
2.1988
23.2022
2.01607
22.5129
1.80837
18.2654
1.59409
14.9172
1.36033
12.2649
1.1341
10.0223
0.920091
8.25598
0.686497
6.77223
0.457702
5.54178
0.215197
4.36964
2.58091
-0.0302609
-0.0456179
0.328278
3.72038
0.678061
6.49818
0.951416
8.5424
1.19615
10.3382
1.38808
12.2812
1.55821
14.4131
1.69445
16.9409
1.75873
19.8679
1.71625
23.2447
1.57691
22.6522
1.39773
18.4445
1.21429
15.1006
1.02143
12.4578
0.827495
10.2162
0.638446
8.44503
0.459361
6.95132
0.28621
5.71493
0.118296
4.53756
2.69921
-0.331799
0.286182
-0.361799
3.75038
-0.120981
6.25736
0.20738
8.21404
0.522216
10.0233
0.792327
12.0111
1.02083
14.1846
1.19274
16.769
1.29064
19.77
1.29955
23.2358
1.21093
22.7408
1.06922
18.5863
0.916453
15.2534
0.761013
12.6132
0.600373
10.3769
0.455681
8.58972
0.312884
7.09412
0.178348
5.84946
0.0600791
4.65583
2.75928
-0.357107
0.643288
-0.424248
3.81752
-0.3162
6.14931
-0.111675
8.00952
0.124501
9.78716
0.370277
11.7653
0.60283
13.9521
0.790461
16.5813
0.91676
19.6437
0.960708
23.1919
0.915034
22.7865
0.809421
18.6919
0.687317
15.3755
0.566788
12.7337
0.437793
10.5059
0.328092
8.69942
0.222468
7.19974
0.126158
5.94577
0.0335162
4.74847
2.7928
-0.320434
0.963722
-0.36838
3.86547
-0.306478
6.08741
-0.201874
7.90492
-0.040659
9.62595
0.14895
11.5757
0.338949
13.7621
0.506358
16.4139
0.638521
19.5115
0.701678
23.1287
0.682577
22.8056
0.606728
18.7677
0.513785
15.4684
0.426617
12.8209
0.325986
10.6065
0.240218
8.78519
0.154181
7.28578
0.0726087
6.02735
-0.00469222
4.82577
2.78811
-0.257463
1.22118
-0.347062
3.95507
-0.293413
6.03376
-0.189321
7.80082
-0.0667711
9.5034
0.0668965
11.442
0.20117
13.6278
0.327814
16.2873
0.443321
19.396
0.507773
23.0643
0.504698
22.8087
0.454023
18.8184
0.385703
15.5367
0.32344
12.8832
0.241794
10.6882
0.167631
8.85935
0.0908419
7.36257
0.0169049
6.10128
-0.0345592
4.87723
2.75355
-0.201426
1.42261
-0.302017
4.05566
-0.266486
5.99823
-0.172653
7.70699
-0.059973
9.39072
0.0395478
11.3425
0.13224
13.5351
0.228318
16.1912
0.315254
19.3091
0.370253
23.0093
0.37376
22.8052
0.340979
18.8512
0.288805
15.5889
0.23645
12.9355
0.166287
10.7583
0.103128
8.92251
0.0373583
7.42834
-0.020606
6.15925
-0.0562881
4.91292
2.69726
-0.151624
1.57423
-0.234743
4.13878
-0.226646
5.99013
-0.163796
7.64414
-0.0725509
9.29947
0.00762846
11.2623
0.0885468
13.4542
0.166444
16.1133
0.233427
19.2421
0.274722
22.968
0.277373
22.8025
0.25285
18.8757
0.209745
15.632
0.16336
12.9819
0.100801
10.8209
0.045538
8.97778
-0.00432023
7.4782
-0.0480794
6.20301
-0.0625323
4.92737
2.63473
-0.107842
1.68208
-0.177687
4.20862
-0.184604
5.99705
-0.155851
7.61539