/*--------------------------------*- C++ -*----------------------------------*\
| =========                 |                                                 |
| \\      /  F ield         | OpenFOAM: The Open Source CFD Toolbox           |
|  \\    /   O peration     | Version:  2412                                  |
|   \\  /    A nd           | Website:  www.openfoam.com                      |
|    \\/     M anipulation  |                                                 |
\*---------------------------------------------------------------------------*/
FoamFile
{
    version     2.0;
    format      ascii;
    arch        "LSB;label=32;scalar=64";
    class       volVectorField;
    location    "4.5";
    object      U;
}
// * * * * * * * * * * * * * * * * * * * * * * * * * * * * * * * * * * * * * //

dimensions      [0 1 -1 0 0 0 0];

internalField   nonuniform List<vector> 
2200
(
(0.372642 -0.000363426 0)
(1.19257 -0.00116445 0)
(2.122 0.000472021 0)
(3.16847 0.000787713 0)
(4.32512 0.00171563 0)
(5.57252 0.00178767 0)
(6.86496 0.00277147 0)
(8.12145 0.00328069 0)
(9.20667 0.00364678 0)
(9.90084 0.0031696 0)
(9.90099 0.00236189 0)
(9.20693 0.00176763 0)
(8.12139 0.0014985 0)
(6.86434 0.00118454 0)
(5.57215 0.00103314 0)
(4.32531 0.0010055 0)
(3.16809 0.000755645 0)
(2.12191 0.000823947 0)
(1.19186 0.00219685 0)
(0.371137 0.000676251 0)
(0.374575 0.00331395 0)
(1.18717 5.21856e-05 0)
(2.1223 0.00231159 0)
(3.16922 0.0032627 0)
(4.32627 0.00507334 0)
(5.57108 0.00803897 0)
(6.86397 0.00846982 0)
(8.12105 0.00922065 0)
(9.20664 0.00992724 0)
(9.89947 0.00936904 0)
(9.89935 0.0077485 0)
(9.20504 0.00579427 0)
(8.11909 0.00451611 0)
(6.86208 0.00300133 0)
(5.56992 0.00204359 0)
(4.32347 0.0014511 0)
(3.16645 0.00113752 0)
(2.11765 0.000631915 0)
(1.1827 0.00188169 0)
(0.370349 -0.00305056 0)
(0.385087 0.00641932 0)
(1.18742 0.00457029 0)
(2.125 0.00685259 0)
(3.17275 0.00783886 0)
(4.328 0.0109169 0)
(5.57403 0.013966 0)
(6.86367 0.0150102 0)
(8.1189 0.0159766 0)
(9.20419 0.0157734 0)
(9.89611 0.0146719 0)
(9.89558 0.0122588 0)
(9.20107 0.00947929 0)
(8.1155 0.00569385 0)
(6.8589 0.00356806 0)
(5.56766 0.000872843 0)
(4.32105 -3.84869e-05 0)
(3.16461 -0.000337483 0)
(2.11553 -0.00195604 0)
(1.17618 -0.00186515 0)
(0.376526 -0.00608008 0)
(0.415003 0.00812723 0)
(1.19427 0.0118115 0)
(2.1345 0.0149581 0)
(3.1794 0.0178252 0)
(4.33127 0.0225998 0)
(5.57674 0.0214711 0)
(6.86497 0.0241403 0)
(8.11912 0.0243369 0)
(9.20358 0.0245971 0)
(9.89188 0.021593 0)
(9.89202 0.0159786 0)
(9.19662 0.00998985 0)
(8.11047 0.00576422 0)
(6.85465 0.00101695 0)
(5.56355 -0.00162411 0)
(4.31807 -0.0054314 0)
(3.16434 -0.00501811 0)
(2.11742 -0.00555327 0)
(1.17471 -0.00781608 0)
(0.399837 -0.00622988 0)
(0.461148 0.00608187 0)
(1.21132 0.0216626 0)
(2.15687 0.0209797 0)
(3.19434 0.0326411 0)
(4.34511 0.0317901 0)
(5.58157 0.0334184 0)
(6.86684 0.0326997 0)
(8.11768 0.0317184 0)
(9.20065 0.0302009 0)
(9.88651 0.0259423 0)
(9.88497 0.0200357 0)
(9.18933 0.013062 0)
(8.10394 0.00487315 0)
(6.84874 -0.00117392 0)
(5.55888 -0.00635996 0)
(4.3185 -0.00984715 0)
(3.16258 -0.0157714 0)
(2.12323 -0.0107665 0)
(1.18036 -0.0168585 0)
(0.432102 -0.0046167 0)
(0.514128 0.00233501 0)
(1.24895 0.0293741 0)
(2.17244 0.0260277 0)
(3.20621 0.040261 0)
(4.36271 0.0414656 0)
(5.59655 0.0484219 0)
(6.87675 0.0448918 0)
(8.12145 0.0435946 0)
(9.20154 0.039657 0)
(9.88077 0.0331834 0)
(9.87908 0.0235387 0)
(9.18299 0.0133396 0)
(8.09903 0.00184114 0)
(6.847 -0.00719314 0)
(5.56028 -0.0163087 0)
(4.3205 -0.0177448 0)
(3.1626 -0.0211658 0)
(2.12202 -0.0167183 0)
(1.20221 -0.0244726 0)
(0.477585 -0.00109375 0)
(0.56858 0.00129493 0)
(1.31784 0.0337949 0)
(2.1755 0.0350297 0)
(3.22158 0.0409916 0)
(4.37373 0.0521105 0)
(5.60776 0.0575805 0)
(6.88546 0.058592 0)
(8.12645 0.0555207 0)
(9.20305 0.0498161 0)
(9.87558 0.0401155 0)
(9.87226 0.0258171 0)
(9.17576 0.0109528 0)
(8.09449 -0.00258127 0)
(6.84261 -0.012933 0)
(5.55649 -0.0196605 0)
(4.31452 -0.022713 0)
(3.16129 -0.0211646 0)
(2.11113 -0.0237654 0)
(1.25499 -0.0277127 0)
(0.517794 0.000572664 0)
(0.625966 0.00437214 0)
(1.39097 0.0333788 0)
(2.17215 0.0456834 0)
(3.24121 0.037554 0)
(4.37929 0.055715 0)
(5.6165 0.0604177 0)
(6.89161 0.0655575 0)
(8.13144 0.0660988 0)
(9.20566 0.06062 0)
(9.8691 0.0479571 0)
(9.86497 0.0308635 0)
(9.16865 0.0111494 0)
(8.08678 -0.00484958 0)
(6.83395 -0.0120046 0)
(5.54916 -0.0175152 0)
(4.30508 -0.0217431 0)
(3.15883 -0.0178118 0)
(2.08497 -0.030547 0)
(1.3116 -0.0265371 0)
(0.559958 -0.00229752 0)
(0.690984 0.00777766 0)
(1.46912 0.0313909 0)
(2.17566 0.0550762 0)
(3.26277 0.0374418 0)
(4.39007 0.0554082 0)
(5.62573 0.0617718 0)
(6.89621 0.0724426 0)
(8.13361 0.0761179 0)
(9.20592 0.0729995 0)
(9.85988 0.0571225 0)
(9.85435 0.0326637 0)
(9.1588 0.00902718 0)
(8.07567 -0.00663141 0)
(6.82308 -0.0134279 0)
(5.53973 -0.01652 0)
(4.29734 -0.0245159 0)
(3.15347 -0.0159852 0)
(2.06617 -0.038783 0)
(1.37158 -0.0235329 0)
(0.608389 -0.00581599 0)
(0.760385 0.0108656 0)
(1.55041 0.0311121 0)
(2.18927 0.0659603 0)
(3.27663 0.0469144 0)
(4.40783 0.0647579 0)
(5.63327 0.071933 0)
(6.89856 0.0826818 0)
(8.12984 0.0866631 0)
(9.20009 0.0849084 0)
(9.84661 0.0674927 0)
(9.83914 0.0374911 0)
(9.14002 0.0103506 0)
(8.05419 -0.0049177 0)
(6.8051 -0.0166345 0)
(5.52628 -0.0209836 0)
(4.29508 -0.0317619 0)
(3.1486 -0.0210315 0)
(2.06078 -0.0502655 0)
(1.43467 -0.0220794 0)
(0.66007 -0.0085948 0)
(0.846555 0.0140038 0)
(1.65285 0.0376106 0)
(2.22681 0.0827774 0)
(3.29935 0.0792264 0)
(4.45369 0.0931955 0)
(5.64539 0.0980743 0)
(6.89804 0.0992304 0)
(8.11385 0.0988432 0)
(9.18006 0.0965767 0)
(9.81565 0.0765986 0)
(9.80651 0.0433431 0)
(9.10484 0.0126668 0)
(8.02385 -0.00717035 0)
(6.78366 -0.0240851 0)
(5.51109 -0.0397813 0)
(4.3034 -0.0479601 0)
(3.13599 -0.0452044 0)
(2.07211 -0.0659668 0)
(1.50711 -0.0275273 0)
(0.720794 -0.0116048 0)
(0.943689 0.0186646 0)
(1.76543 0.0451209 0)
(2.30565 0.108559 0)
(3.31338 0.112664 0)
(4.49308 0.132264 0)
(5.65817 0.136885 0)
(6.89727 0.129056 0)
(8.09787 0.124068 0)
(9.15565 0.113131 0)
(9.77502 0.0879102 0)
(9.76466 0.049133 0)
(9.06372 0.0130889 0)
(7.98333 -0.017078 0)
(6.7549 -0.0423136 0)
(5.49595 -0.07039 0)
(4.31437 -0.0810323 0)
(3.12079 -0.08264 0)
(2.12091 -0.0885923 0)
(1.60473 -0.0360925 0)
(0.803657 -0.0152692 0)
(1.08643 0.020986 0)
(1.92544 0.0549735 0)
(2.41345 0.126393 0)
(3.34763 0.145408 0)
(4.51962 0.160494 0)
(5.67472 0.176345 0)
(6.89615 0.165205 0)
(8.07992 0.156363 0)
(9.12435 0.135983 0)
(9.72198 0.103815 0)
(9.7086 0.0553381 0)
(9.0104 0.00907214 0)
(7.94439 -0.0358517 0)
(6.72426 -0.0665722 0)
(5.47712 -0.0968647 0)
(4.29841 -0.101441 0)
(3.11176 -0.109174 0)
(2.19861 -0.10339 0)
(1.72043 -0.0411758 0)
(0.904763 -0.0166061 0)
(1.21753 0.0237907 0)
(2.07459 0.0565174 0)
(2.5389 0.139723 0)
(3.39725 0.170473 0)
(4.54686 0.186898 0)
(5.70413 0.204772 0)
(6.90543 0.211457 0)
(8.07519 0.198325 0)
(9.09753 0.169819 0)
(9.66468 0.125777 0)
(9.64621 0.0597251 0)
(8.96254 -0.00225517 0)
(7.90654 -0.0547142 0)
(6.69397 -0.0943348 0)
(5.46432 -0.114652 0)
(4.27881 -0.122874 0)
(3.12462 -0.132213 0)
(2.29724 -0.114358 0)
(1.85896 -0.0448115 0)
(1.02301 -0.0176645 0)
(1.41177 0.0241395 0)
(2.28918 0.0686367 0)
(2.70264 0.156505 0)
(3.47958 0.201683 0)
(4.58192 0.221042 0)
(5.74116 0.236773 0)
(6.91763 0.257 0)
(8.07698 0.243725 0)
(9.08751 0.213542 0)
(9.62475 0.154188 0)
(9.60449 0.0605329 0)
(8.92446 -0.0215442 0)
(7.86913 -0.0779404 0)
(6.66425 -0.122794 0)
(5.45825 -0.130937 0)
(4.26437 -0.152432 0)
(3.15834 -0.151916 0)
(2.41314 -0.121498 0)
(2.00993 -0.047581 0)
(1.14671 -0.0184912 0)
(1.5632 0.0257722 0)
(2.47777 0.067012 0)
(2.87202 0.167371 0)
(3.57908 0.226383 0)
(4.63301 0.27056 0)
(5.78916 0.27237 0)
(6.92518 0.292391 0)
(8.07181 0.283009 0)
(9.07316 0.255535 0)
(9.58828 0.184843 0)
(9.56303 0.0686214 0)
(8.87925 -0.0267156 0)
(7.813 -0.0846615 0)
(6.61979 -0.136159 0)
(5.44236 -0.150697 0)
(4.25047 -0.184723 0)
(3.2119 -0.172868 0)
(2.54902 -0.136273 0)
(2.18395 -0.0526364 0)
(1.28651 -0.018212 0)
(1.79831 0.028807 0)
(2.74123 0.0847204 0)
(3.08778 0.188914 0)
(3.70913 0.253308 0)
(4.68672 0.30672 0)
(5.82629 0.311116 0)
(6.92287 0.327841 0)
(8.04342 0.308193 0)
(9.02809 0.278266 0)
(9.51543 0.211562 0)
(9.48418 0.0883279 0)
(8.79818 -0.00569597 0)
(7.72558 -0.0747071 0)
(6.56069 -0.140932 0)
(5.41591 -0.175069 0)
(4.23912 -0.216081 0)
(3.27994 -0.184736 0)
(2.70216 -0.138918 0)
(2.36527 -0.0525787 0)
(1.41828 -0.0161874 0)
(1.98523 0.0265695 0)
(2.9783 0.0779746 0)
(3.31155 0.195906 0)
(3.86371 0.274687 0)
(4.76658 0.351193 0)
(5.86576 0.366012 0)
(6.93033 0.371542 0)
(8.00763 0.352646 0)
(8.94439 0.314542 0)
(9.38189 0.246751 0)
(9.34164 0.110454 0)
(8.67158 0.0109947 0)
(7.6235 -0.0793621 0)
(6.48995 -0.154181 0)
(5.36552 -0.201731 0)
(4.23641 -0.235728 0)
(3.37268 -0.200472 0)
(2.87682 -0.148841 0)
(2.56942 -0.0568571 0)
(1.56513 -0.0138993 0)
(2.23942 0.0339029 0)
(3.28129 0.0984408 0)
(3.57217 0.218818 0)
(4.04998 0.303496 0)
(4.86261 0.392547 0)
(5.90978 0.41656 0)
(6.94936 0.43428 0)
(7.99521 0.427709 0)
(8.86943 0.383424 0)
(9.25254 0.297725 0)
(9.20312 0.127013 0)
(8.55414 0.00279911 0)
(7.53351 -0.100992 0)
(6.41817 -0.177616 0)
(5.31056 -0.234523 0)
(4.2508 -0.263759 0)
(3.48579 -0.208708 0)
(3.06792 -0.149296 0)
(2.77844 -0.0536876 0)
(1.69467 -0.00940997 0)
(2.4929 0.0290465 0)
(3.5764 0.0951167 0)
(3.8602 0.230874 0)
(4.26991 0.334236 0)
(4.99958 0.438136 0)
(5.96994 0.488094 0)
(6.98655 0.510422 0)
(8.01105 0.511172 0)
(8.817 0.467198 0)
(9.15497 0.358878 0)
(9.0899 0.151106 0)
(8.44788 -0.00616071 0)
(7.44391 -0.114919 0)
(6.34089 -0.201937 0)
(5.25545 -0.264876 0)
(4.28779 -0.281256 0)
(3.62422 -0.223944 0)
(3.27798 -0.152887 0)
(3.0129 -0.0537147 0)
(1.81893 -0.00223922 0)
(2.74981 0.0363465 0)
(3.93231 0.111665 0)
(4.17935 0.253272 0)
(4.52573 0.366191 0)
(5.1655 0.491976 0)
(6.05419 0.559137 0)
(7.03261 0.590213 0)
(8.01443 0.594793 0)
(8.74774 0.54679 0)
(9.04358 0.422197 0)
(8.95906 0.191485 0)
(8.32723 0.0113156 0)
(7.33591 -0.111746 0)
(6.24799 -0.219362 0)
(5.20831 -0.289367 0)
(4.34237 -0.289185 0)
(3.77953 -0.217952 0)
(3.5098 -0.140922 0)
(3.24654 -0.0391158 0)
(1.90321 0.00573393 0)
(3.09162 0.0353714 0)
(4.29375 0.118403 0)
(4.54157 0.270345 0)
(4.82103 0.404162 0)
(5.37394 0.546007 0)
(6.16772 0.639302 0)
(7.08424 0.691135 0)
(8.00693 0.690878 0)
(8.64403 0.630296 0)
(8.88345 0.496843 0)
(8.76912 0.241111 0)
(8.15241 0.047798 0)
(7.18575 -0.10885 0)
(6.13071 -0.236083 0)
(5.16805 -0.298457 0)
(4.42252 -0.289475 0)
(3.96233 -0.212679 0)
(3.74809 -0.126516 0)
(3.48089 -0.0306028 0)
(1.9482 0.0180923 0)
(3.3664 0.0473216 0)
(4.71246 0.133887 0)
(4.92813 0.305737 0)
(5.15491 0.448874 0)
(5.61926 0.613695 0)
(6.30301 0.74 0)
(7.14005 0.812695 0)
(7.98454 0.807462 0)
(8.51395 0.726777 0)
(8.6993 0.594017 0)
(8.55535 0.301269 0)
(7.95506 0.0984534 0)
(7.02202 -0.108715 0)
(6.01836 -0.255216 0)
(5.14627 -0.29703 0)
(4.52857 -0.277558 0)
(4.15907 -0.200783 0)
(3.99816 -0.119534 0)
(3.71418 -0.0188181 0)
(1.94478 0.0235214 0)
(3.84864 0.0513116 0)
(5.16037 0.164643 0)
(5.37971 0.334662 0)
(5.53841 0.510938 0)
(5.91597 0.702749 0)
(6.48664 0.856051 0)
(7.21413 0.952859 0)
(7.95547 0.939623 0)
(8.38344 0.847111 0)
(8.52789 0.701084 0)
(8.337 0.374253 0)
(7.73006 0.151171 0)
(6.82022 -0.100103 0)
(5.89502 -0.24906 0)
(5.13801 -0.279479 0)
(4.64025 -0.24493 0)
(4.35454 -0.162699 0)
(4.22443 -0.0817335 0)
(3.95902 -0.0147741 0)
(1.92749 0.0305965 0)
(4.19293 0.0764006 0)
(5.66964 0.186045 0)
(5.84397 0.401968 0)
(5.95151 0.596938 0)
(6.23663 0.811417 0)
(6.6851 0.987284 0)
(7.28092 1.1035 0)
(7.91074 1.09259 0)
(8.24924 0.989622 0)
(8.34622 0.821213 0)
(8.1027 0.473118 0)
(7.48736 0.224134 0)
(6.61461 -0.053155 0)
(5.7993 -0.193256 0)
(5.16886 -0.222496 0)
(4.77968 -0.169818 0)
(4.55131 -0.0978422 0)
(4.4333 -0.0276072 0)
(4.09228 0.0612054 0)
(1.86016 0.0364639 0)
(4.98688 0.123913 0)
(6.21347 0.293847 0)
(6.36546 0.515642 0)
(6.39532 0.744966 0)
(6.58604 0.979769 1.15083e-33)
(6.90547 1.16308 -1.01356e-33)
(7.36866 1.28312 0)
(7.86757 1.26772 0)
(8.10738 1.15853 0)
(8.14417 0.959291 0)
(7.84414 0.591819 0)
(7.21057 0.303126 0)
(6.38496 0.0214888 0)
(5.69041 -0.102642 0)
(5.18958 -0.106402 0)
(4.88995 -0.0605212 0)
(4.72969 0.0198487 0)
(4.63772 0.0663104 0)
(4.06291 0.102802 0)
(1.54357 0.0561314 0)
(5.71 0.297393 -2.98172e-19)
(6.78272 0.429102 2.4892e-19)
(6.83963 0.742521 0)
(6.79786 0.988267 -1.34649e-20)
(6.91019 1.202 1.08588e-20)
(7.11305 1.37982 1.07461e-33)
(7.44902 1.49611 0)
(7.79812 1.47203 1.47839e-19)
(7.94604 1.35126 -5.74492e-19)
(7.88941 1.12748 1.30237e-19)
(7.52539 0.748659 0)
(6.88814 0.432443 -4.9134e-19)
(6.17286 0.185558 -5.99951e-19)
(5.64567 0.0927957 1.04632e-18)
(5.29156 0.0914386 -8.42573e-19)
(5.06884 0.119976 0)
(4.92056 0.158172 -3.23107e-19)
(4.73763 0.173148 0)
(3.97656 0.175821 -1.66532e-18)
(1.24374 0.0739189 2.01849e-18)
(6.13539 0.585782 -5.93049e-20)
(7.22491 0.754367 -1.7539e-18)
(7.23532 1.06173 4.3094e-19)
(7.14222 1.26292 6.38404e-19)
(7.17677 1.45612 3.29757e-20)
(7.29468 1.62303 -2.48149e-20)
(7.49923 1.73056 0)
(7.68865 1.71284 0)
(7.75599 1.58321 9.63244e-19)
(7.60877 1.34305 0)
(7.19354 0.974461 1.73877e-18)
(6.59112 0.654011 5.35821e-19)
(5.99972 0.447242 -4.06306e-21)
(5.58254 0.370244 -1.23986e-18)
(5.29197 0.3598 0)
(5.11625 0.374088 0)
(5.01222 0.404767 -5.61303e-18)
(4.8322 0.402754 1.418e-17)
(3.96861 0.325204 -8.32884e-18)
(1.21106 0.117568 -9.8682e-18)
(6.42794 0.925519 2.33347e-18)
(7.61594 1.26381 -8.3593e-19)
(7.58127 1.4578 -2.1565e-19)
(7.43471 1.59233 -1.21819e-18)
(7.39638 1.74268 4.3378e-19)
(7.42685 1.89271 1.78239e-19)
(7.50461 1.97365 7.8982e-20)
(7.57219 1.96777 0)
(7.56019 1.83189 -2.0966e-18)
(7.34888 1.57966 2.51028e-18)
(6.90915 1.23043 -4.7778e-18)
(6.36574 0.930675 2.34849e-18)
(5.88624 0.761326 -1.71567e-18)
(5.57093 0.699196 3.75085e-18)
(5.36313 0.684365 0)
(5.19839 0.680914 -1.45848e-18)
(5.05109 0.686477 0)
(4.80275 0.67462 8.28925e-18)
(3.94233 0.498097 -1.96548e-17)
(1.31583 0.22826 1.23656e-17)
(6.59837 1.26712 -1.04549e-17)
(7.86218 1.73385 5.73085e-18)
(7.84117 1.87499 8.58627e-19)
(7.66449 1.96015 0)
(7.56807 2.06625 6.82472e-19)
(7.50889 2.18443 -7.30094e-19)
(7.48802 2.24177 -1.40984e-19)
(7.46156 2.22549 0)
(7.37272 2.08751 1.50203e-18)
(7.11174 1.83017 -1.71929e-18)
(6.66433 1.5016 4.28398e-18)
(6.16874 1.22896 0)
(5.75102 1.07619 -3.63725e-18)
(5.44748 1.00019 2.00325e-18)
(5.21417 0.959673 5.3879e-18)
(5.06978 0.925372 -4.75092e-18)
(4.95607 0.913491 7.84073e-18)
(4.78788 0.931717 -1.74433e-17)
(4.00319 0.70864 1.1086e-17)
(1.48613 0.333383 -1.39971e-17)
(6.66901 1.51595 6.55145e-18)
(8.06652 2.25217 -6.61178e-18)
(8.02689 2.30374 2.69665e-18)
(7.83005 2.34049 -3.70423e-18)
(7.68441 2.41135 2.49753e-18)
(7.55564 2.4941 -4.00947e-19)
(7.45922 2.52227 9.96266e-20)
(7.35168 2.48541 -1.01967e-18)
(7.1971 2.34353 -1.59869e-18)
(6.89571 2.08705 -3.81368e-18)
(6.4528 1.77507 -9.26465e-18)
(6.00018 1.52623 -3.11675e-18)
(5.6438 1.38411 9.25782e-20)
(5.40392 1.31795 -7.23837e-18)
(5.23613 1.27741 -2.40563e-19)
(5.08734 1.27367 7.01896e-18)
(4.95248 1.20753 -2.18344e-18)
(4.71503 1.17638 -1.27137e-18)
(3.93906 0.89684 0)
(1.61609 0.441245 3.02746e-17)
(6.66682 1.79078 0)
(8.12324 2.69629 1.86984e-18)
(8.14414 2.6934 0)
(7.93134 2.71771 -4.27822e-19)
(7.7541 2.76189 -3.04213e-18)
(7.57933 2.81004 6.51161e-19)
(7.42082 2.8089 5.69541e-20)
(7.24775 2.74911 1.86581e-18)
(7.03829 2.59889 -1.01427e-18)
(6.70129 2.34458 1.63445e-18)
(6.26792 2.0429 5.00872e-18)
(5.84422 1.81391 6.89444e-18)
(5.51122 1.66875 -4.29524e-18)
(5.25578 1.5774 7.87857e-18)
(5.05938 1.49827 -6.31264e-18)
(4.93741 1.43679 0)
(4.8289 1.3699 -1.68083e-17)
(4.65746 1.36464 2.25407e-17)
(4.00344 1.09868 1.72131e-18)
(1.76373 0.5665 -3.22685e-17)
(6.65739 2.04452 -7.14019e-19)
(8.18948 3.12605 -5.47805e-18)
(8.21801 3.05618 -1.48878e-17)
(7.98838 3.07999 8.24913e-18)
(7.782 3.10542 -1.78053e-18)
(7.57 3.1224 9.5862e-19)
(7.36365 3.09403 -2.4436e-19)
(7.14357 3.0103 -1.86254e-19)
(6.88985 2.8496 -3.5238e-18)
(6.5252 2.59676 1.12642e-20)
(6.10113 2.30168 -5.45826e-18)
(5.69863 2.08207 -7.33003e-18)
(5.3998 1.92879 4.81294e-18)
(5.20101 1.8332 -2.8438e-18)
(5.06916 1.76079 6.8706e-18)
(4.93135 1.75513 0)
(4.81696 1.66182 -1.04132e-17)
(4.60367 1.64231 1.54011e-17)
(3.93061 1.30137 2.99142e-17)
(1.82603 0.669836 -3.50936e-17)
(6.57659 2.29506 -2.62761e-17)
(8.17201 3.49338 1.28083e-17)
(8.25368 3.38088 9.60177e-18)
(8.00041 3.42635 -8.93065e-18)
(7.77042 3.43613 4.57523e-19)
(7.53205 3.4272 2.44413e-18)
(7.29458 3.37141 -1.64734e-19)
(7.04213 3.26439 -7.92992e-19)
(6.75409 3.093 -2.26598e-18)
(6.36753 2.84038 3.81131e-18)
(5.95367 2.54721 5.17444e-18)
(5.57604 2.3291 1.14971e-17)
(5.29894 2.16879 0)
(5.07582 2.05129 2.03496e-19)
(4.89279 1.94212 -1.9017e-17)
(4.76979 1.87832 4.34952e-18)
(4.67966 1.78156 2.23269e-17)
(4.50601 1.77096 -6.46514e-18)
(3.91257 1.47753 1.4355e-17)
(1.81354 0.766329 -1.08844e-18)
(6.48783 2.55352 8.93283e-19)
(8.17196 3.82061 1.18646e-17)
(8.24541 3.69679 7.16977e-18)
(7.96741 3.75382 -1.54991e-17)
(7.72053 3.74746 9.70859e-18)
(7.46925 3.71286 -2.90199e-18)
(7.21563 3.6339 9.02574e-20)
(6.93953 3.50852 1.79501e-18)
(6.62525 3.32728 3.9279e-18)
(6.22217 3.0723 -4.91957e-18)
(5.81591 2.7793 0)
(5.44872 2.55767 -4.48434e-18)
(5.17904 2.38453 5.14424e-18)
(4.99364 2.26276 6.89617e-18)
(4.88011 2.16969 -3.94448e-18)
(4.74585 2.14424 -9.98675e-18)
(4.63638 2.04314 -3.04118e-18)
(4.43422 2.00992 -3.86896e-20)
(3.84853 1.61981 0)
(1.77517 0.835188 0)
(6.38619 2.77225 -1.28364e-17)
(8.11078 4.14504 0)
(8.213 3.98241 8.0055e-18)
(7.89707 4.05776 -3.6955e-18)
(7.64576 4.02985 -9.60055e-18)
(7.39417 3.97474 2.71294e-18)
(7.1309 3.87951 -4.92972e-21)
(6.83599 3.74088 -9.39785e-19)
(6.50424 3.55006 2.63875e-18)
(6.08891 3.29191 -1.98935e-18)
(5.68927 2.99773 2.88469e-18)
(5.33606 2.76898 1.38804e-17)
(5.0781 2.5872 5.24701e-19)
(4.86718 2.44669 -7.00227e-18)
(4.68782 2.32016 1.35506e-17)
(4.56233 2.23837 1.82453e-19)
(4.48161 2.12627 3.24429e-18)
(4.31795 2.1051 -1.59325e-17)
(3.77292 1.76471 1.63847e-17)
(1.72595 0.882236 -1.78349e-17)
(6.26242 2.96671 -1.43984e-20)
(8.04506 4.40786 0)
(8.13198 4.26594 0)
(7.80557 4.34104 3.17527e-18)
(7.56269 4.28313 3.70652e-18)
(7.31008 4.21131 -1.94556e-18)
(7.03645 4.10547 1.00057e-18)
(6.72928 3.95804 0)
(6.38681 3.75956 -4.22393e-18)
(5.96241 3.49818 7.19496e-18)
(5.56618 3.20287 8.66115e-18)
(5.21027 2.96619 -5.2324e-18)
(4.94316 2.77563 -6.52735e-18)
(4.75193 2.6306 1.54081e-17)
(4.63707 2.51219 -4.78462e-18)
(4.5192 2.4542 -5.82045e-18)
(4.42848 2.34833 -3.54727e-18)
(4.24587 2.2778 -1.72501e-17)
(3.7041 1.88029 2.3325e-18)
(1.66875 0.923984 1.91993e-17)
(6.1307 3.155 -5.11118e-18)
(7.94234 4.70876 -7.07552e-18)
(8.04272 4.5371 9.54939e-19)
(7.70695 4.60469 8.60041e-20)
(7.47543 4.51734 1.01765e-18)
(7.22218 4.43002 -5.05858e-18)
(6.93969 4.3149 0)
(6.62405 4.16017 8.36937e-19)
(6.27411 3.95469 -6.5855e-19)
(5.84259 3.69084 1.15533e-17)
(5.44509 3.39535 -2.20153e-18)
(5.08854 3.15062 2.38786e-18)
(4.82634 2.94703 0)
(4.62289 2.7828 -8.40643e-18)
(4.45012 2.63737 1.04426e-17)
(4.32941 2.53386 0)
(4.25023 2.40925 -7.83896e-18)
(4.08567 2.36187 2.2875e-17)
(3.59045 1.98418 2.78394e-18)
(1.59141 0.949682 -2.36913e-17)
(5.99624 3.30744 -1.06947e-17)
(7.84808 4.94371 1.30575e-17)
(7.94728 4.78927 0)
(7.60881 4.84523 7.55399e-18)
(7.39161 4.72848 0)
(7.13104 4.63173 4.66349e-18)
(6.84001 4.50858 0)
(6.51913 4.34718 0)
(6.16357 4.13595 -1.50093e-18)
(5.72584 3.87051 -1.12018e-17)
(5.3256 3.57559 -1.61047e-17)
(4.96471 3.32573 2.98475e-18)
(4.69437 3.11621 1.10553e-17)
(4.4989 2.94939 9.3864e-18)
(4.38112 2.80416 -3.3379e-17)
(4.2755 2.71009 -1.38894e-17)
(4.19036 2.5982 8.06618e-18)
(4.01886 2.48518 0)
(3.49585 2.0634 2.39677e-17)
(1.50712 0.966754 -2.55143e-17)
(5.86042 3.45957 1.16867e-17)
(7.7323 5.1803 -1.41802e-17)
(7.83843 5.02935 0)
(7.5213 5.07388 -3.97326e-19)
(7.30839 4.93149 -2.98992e-18)
(7.04229 4.82262 0)
(6.74515 4.69005 -1.39414e-19)
(6.41858 4.52174 9.74882e-19)
(6.05758 4.30444 -2.25467e-18)
(5.61501 4.0375 1.22871e-18)
(5.21177 3.7443 0)
(4.84889 3.49036 1.18555e-17)
(4.58158 3.27019 -1.03017e-21)
(4.37844 3.08383 5.05503e-18)
(4.20815 2.91572 6.16962e-18)
(4.07847 2.78586 0)
(3.99664 2.65925 -1.37056e-17)
(3.84694 2.55876 2.68064e-17)
(3.3657 2.14539 -2.91198e-17)
(1.39825 0.962411 5.52371e-17)
(5.75534 3.59145 0)
(7.63979 5.4089 0)
(7.76409 5.24862 -7.09854e-18)
(7.43485 5.29049 0)
(7.22886 5.12273 0)
(6.95597 5.00423 6.1112e-18)
(6.65125 4.8613 -1.87124e-19)
(6.32012 4.68487 5.85691e-19)
(5.95541 4.46151 -3.44092e-19)
(5.51012 4.19376 0)
(5.10519 3.90356 -2.54978e-18)
(4.73994 3.64853 -9.80637e-18)
(4.46449 3.42623 -1.22304e-17)
(4.25669 3.24111 -5.04032e-18)
(4.1203 3.0732 6.68576e-18)
(4.01453 2.93554 -1.58105e-17)
(3.92337 2.80052 2.94364e-17)
(3.7561 2.65321 5.26276e-19)
(3.23999 2.18051 -2.76928e-17)
(1.27747 0.94564 -3.77466e-18)
(5.62987 3.71751 0)
(7.54409 5.58209 -1.02314e-17)
(7.65952 5.46044 8.15354e-18)
(7.35496 5.48899 0)
(7.15003 5.30681 0)
(6.87304 5.17814 -1.34176e-17)
(6.56289 5.02426 0)
(6.2282 4.83917 0)
(5.86086 4.60916 -4.89368e-18)
(5.4145 4.34019 2.17132e-18)
(5.0079 4.05336 -2.09932e-17)
(4.6382 3.7984 0)
(4.35566 3.56963 -1.29751e-17)
(4.13245 3.36691 4.49891e-19)
(3.94893 3.18162 -2.08549e-17)
(3.80836 3.02865 8.56263e-18)
(3.7192 2.87738 2.01295e-19)
(3.56729 2.70597 -3.16311e-17)
(3.07637 2.24135 1.5004e-17)
(1.13736 0.901445 4.1018e-18)
(5.55547 3.85121 0)
(7.44829 5.80095 -1.20937e-17)
(7.59124 5.63929 8.37348e-18)
(7.27581 5.676 1.65339e-17)
(7.07387 5.47879 3.06034e-18)
(6.79125 5.34251 -1.77026e-18)
(6.47622 5.17895 1.13737e-18)
(6.14065 4.98496 7.75509e-19)
(5.77303 4.74856 5.24313e-18)
(5.32674 4.47858 1.48213e-17)
(4.91761 4.19542 1.74515e-17)
(4.54262 3.94276 3.23534e-18)
(4.24901 3.71644 1.88804e-17)
(4.01675 3.52015 1.20084e-17)
(3.85166 3.33329 1.50382e-17)
(3.73252 3.15874 -9.28075e-18)
(3.62913 2.99605 -1.15187e-17)
(3.45305 2.7898 1.35644e-17)
(2.91748 2.22904 -8.29941e-18)
(0.97293 0.850326 1.38479e-17)
(5.45243 3.94585 1.7632e-17)
(7.37341 5.94091 1.91665e-17)
(7.50515 5.83164 4.42028e-18)
(7.19462 5.85097 3.57529e-19)
(6.99761 5.64257 -1.09806e-17)
(6.71094 5.49846 3.92774e-18)
(6.39539 5.32543 -1.28718e-18)
(6.06081 5.12344 -3.76381e-19)
(5.69361 4.88088 -5.99814e-18)
(5.24694 4.609 -1.63547e-17)
(4.83382 4.32844 1.1187e-18)
(4.45188 4.07874 0)
(4.14715 3.85215 0)
(3.89632 3.64591 -6.15599e-18)
(3.68675 3.44783 -2.39233e-17)
(3.51588 3.273 1.98919e-17)
(3.4057 3.09113 1.23058e-17)
(3.23099 2.82648 0)
(2.69577 2.26619 2.67844e-17)
(0.784905 0.750348 -1.55365e-17)
(5.38702 4.07306 -9.05313e-18)
(7.28112 6.12176 7.6432e-18)
(7.42225 5.97986 -1.01508e-17)
(7.11852 6.00769 -1.04898e-17)
(6.92006 5.7918 -4.33439e-18)
(6.63144 5.64341 1.13115e-18)
(6.31648 5.46289 0)
(5.98489 5.25377 -8.85106e-19)
(5.61919 5.0057 6.2937e-19)
(5.17175 4.73177 0)
(4.75464 4.45387 0)
(4.36747 4.20899 2.16568e-18)
(4.05315 3.98913 3.14969e-18)
(3.78979 3.79383 -6.50663e-18)
(3.58315 3.60185 1.72601e-17)
(3.43394 3.39787 -2.14802e-17)
(3.29645 3.19739 -2.65498e-17)
(3.08474 2.89838 2.38924e-17)
(2.48745 2.19529 -9.8429e-18)
(0.540012 0.65948 5.69511e-18)
(5.29569 4.15721 1.05364e-17)
(7.20103 6.26593 0)
(7.35787 6.1526 0)
(7.0413 6.16176 -3.36064e-18)
(6.84161 5.93117 2.70388e-18)
(6.55358 5.77759 -3.3283e-19)
(6.24243 5.59074 -4.07505e-18)
(5.91479 5.37609 -2.33542e-19)
(5.54982 5.123 1.01972e-17)
(5.10121 4.8465 -1.29478e-18)
(4.68068 4.57044 2.86175e-18)
(4.28857 4.33089 -1.82844e-17)
(3.96319 4.11693 -1.90202e-17)
(3.68127 3.9213 -3.40282e-18)
(3.43605 3.7248 0)
(3.22176 3.53565 -3.4489e-19)
(3.04756 3.32438 1.36674e-17)
(2.80262 2.93198 -2.59778e-17)
(2.1868 2.16704 2.02272e-17)
(0.22179 0.31737 1.79772e-17)
(5.23368 4.26417 -2.268e-17)
(7.13786 6.40377 -9.06679e-18)
(7.27575 6.28715 9.04819e-20)
(6.94941 6.29525 4.40993e-18)
(6.76152 6.05892 0)
(6.4757 5.90142 1.07976e-17)
(6.16871 5.71106 4.79508e-18)
(5.8447 5.49205 -7.036e-19)
(5.48019 5.23493 -5.07926e-18)
(5.03092 4.95679 -1.2513e-18)
(4.60883 4.68414 1.15773e-18)
(4.21378 4.45216 1.59889e-17)
(3.88022 4.24904 1.84681e-17)
(3.58464 4.06976 3.23981e-18)
(3.3314 3.89318 1.71624e-17)
(3.12397 3.68856 0)
(2.92078 3.43923 0)
(2.59982 2.99644 1.6724e-17)
(1.7963 1.88366 1.70623e-19)
(0.229874 0.767343 -1.77139e-17)
(5.14212 4.34285 1.22147e-17)
(7.01693 6.51401 2.67939e-17)
(7.14821 6.38792 -3.87841e-17)
(6.85506 6.40999 2.21033e-17)
(6.68629 6.17733 -2.31902e-18)
(6.39945 6.01906 1.38873e-17)
(6.09767 5.82566 0)
(5.77585 5.60376 8.42173e-19)
(5.41079 5.34384 0)
(4.96203 5.06549 1.57943e-17)
(4.53965 4.79722 -1.59315e-18)
(4.14188 4.57436 1.78122e-18)
(3.79773 4.3838 2.07726e-17)
(3.48406 4.21479 -7.12751e-18)
(3.19675 4.04274 -9.07006e-18)
(2.91982 3.86992 0)
(2.6255 3.65346 0)
(2.14558 3.09252 0)
(1.08393 2.02244 -8.63587e-18)
(0.513312 1.9353 -5.48958e-18)
(5.0735 4.42748 0)
(6.93305 6.6562 0)
(7.10488 6.54923 1.39159e-17)
(6.80507 6.53765 -1.83319e-17)
(6.61586 6.2888 1.16357e-17)
(6.32771 6.13172 -1.26154e-17)
(6.02708 5.93474 -4.41494e-19)
(5.70612 5.71033 3.41873e-19)
(5.34116 5.44857 8.96407e-19)
(4.89479 5.17156 -1.80774e-17)
(4.4741 4.90934 2.71724e-18)
(4.07533 4.69764 1.57707e-17)
(3.72508 4.5233 -2.06166e-17)
(3.4 4.37762 -2.32973e-17)
(3.10006 4.24099 8.0964e-18)
(2.82233 4.0784 0)
(2.49836 3.78172 1.28598e-17)
(1.84813 2.98231 1.53969e-17)
(1.15358 2.38898 -1.61822e-17)
(0.74426 2.85534 2.14767e-17)
(5.01713 4.48858 0)
(6.92525 6.7967 2.15816e-17)
(7.07837 6.68535 -3.48299e-18)
(6.73864 6.68372 2.26222e-17)
(6.54172 6.40519 -1.2228e-17)
(6.2602 6.24168 0)
(5.95893 6.03942 0)
(5.63893 5.81285 0)
(5.27425 5.55026 3.23669e-18)
(4.83159 5.27562 6.61416e-19)
(4.41315 5.01955 0)
(4.01474 4.81968 -1.55774e-17)
(3.65887 4.66359 0)
(3.32117 4.53819 1.66232e-17)
(3.00021 4.41335 -1.14605e-17)
(2.67399 4.26293 -9.33381e-18)
(2.25624 3.94626 -2.44593e-17)
(1.53604 3.20133 -1.31842e-17)
(1.11813 3.06844 -2.38418e-17)
(0.915429 3.4268 1.73126e-17)
(4.95101 4.56186 -7.56006e-18)
(6.82166 6.85269 1.57606e-19)
(6.92074 6.77086 -2.74406e-18)
(6.61716 6.75767 -1.74055e-17)
(6.47521 6.50991 0)
(6.19111 6.34319 0)
(5.89194 6.14087 0)
(5.57258 5.91213 5.64964e-20)
(5.20941 5.64965 -4.22934e-18)
(4.77129 5.37804 0)
(4.35607 5.12861 0)
(3.95996 4.94162 0)
(3.6033 4.8056 0)
(3.26384 4.70727 1.22926e-17)
(2.94228 4.62095 3.14475e-17)
(2.62292 4.47525 9.99409e-18)
(2.1885 4.02596 2.30209e-17)
(1.67596 3.49182 -1.81614e-17)
(1.24339 3.72322 7.90009e-18)
(1.08846 3.86637 0)
(4.8511 4.6365 5.97598e-18)
(6.69161 6.94463 -4.20615e-17)
(6.85722 6.84625 -9.1532e-18)
(6.57001 6.85293 -2.74412e-18)
(6.42457 6.60758 2.78604e-18)
(6.12332 6.44433 -1.83999e-17)
(5.8288 6.24085 1.15658e-18)
(5.50897 6.01059 3.34773e-18)
(5.14793 5.74878 0)
(4.71462 5.48018 -1.13838e-18)
(4.30284 5.23651 1.03631e-18)
(3.91148 5.06173 0)
(3.55913 4.9469 0)
(3.22265 4.87564 -1.53927e-17)
(2.90114 4.80173 2.72181e-18)
(2.55236 4.62682 -9.36426e-18)
(2.01228 4.18373 2.05525e-17)
(1.44819 3.87246 1.82478e-17)
(1.09404 4.15543 -3.28293e-17)
(1.01729 4.23126 1.72483e-17)
(4.82556 4.69961 1.13851e-17)
(6.67075 7.09566 3.93662e-17)
(6.84934 7.03566 1.23478e-17)
(6.55245 7.01684 0)
(6.35391 6.72229 0)
(6.05921 6.55549 1.38764e-17)
(5.76205 6.34341 -6.92786e-18)
(5.44341 6.11136 -3.19501e-18)
(5.08563 5.84948 -1.10708e-20)
(4.65782 5.58325 1.27323e-17)
(4.25132 5.34459 -1.86673e-17)
(3.86854 5.18176 0)
(3.52591 5.08761 0)
(3.20166 5.04255 -1.09068e-17)
(2.89027 4.9963 -1.43607e-17)
(2.5332 4.82394 0)
(2.00721 4.33945 -3.0393e-17)
(1.67213 4.24951 -5.62275e-18)
(1.41956 4.67214 3.3439e-17)
(1.1255 4.66132 -1.75065e-17)
(4.77528 4.75385 -2.5709e-17)
(6.63532 7.19742 -1.87966e-17)
(6.76402 7.12778 0)
(6.43552 7.12392 0)
(6.27077 6.84028 0)
(5.98674 6.66778 0)
(5.68924 6.44892 7.27973e-18)
(5.37584 6.21439 -4.66378e-18)
(5.02161 5.95171 0)
(4.60045 5.687 -1.14757e-17)
(4.20116 5.45212 3.3673e-17)
(3.83071 5.29918 1.44399e-18)
(3.50422 5.22354 2.19983e-18)
(3.1978 5.20483 1.84518e-17)
(2.89547 5.16632 -1.23274e-17)
(2.52466 4.93834 0)
(2.03958 4.59537 9.64175e-18)
(1.6036 4.81211 7.06822e-19)
(1.12993 5.0672 -5.06223e-18)
(0.738867 5.1205 1.05375e-17)
(4.66922 4.82367 1.2162e-17)
(6.49235 7.26871 -1.80063e-17)
(6.61142 7.19083 0)
(6.32832 7.19787 -4.04675e-18)
(6.19635 6.94212 1.50053e-17)
(5.89987 6.7724 0)
(5.6108 6.55519 0)
(5.30224 6.31779 8.59065e-18)
(4.95296 6.05398 -5.28957e-19)
(4.5401 5.79002 1.10605e-17)
(4.15105 5.55815 -1.59982e-17)
(3.79749 5.41402 1.04138e-17)
(3.49123 5.35383 0)
(3.20696 5.35337 -1.00699e-17)
(2.91831 5.32597 6.30241e-18)
(2.55712 5.12825 6.82826e-18)
(2.07287 4.85994 0)
(1.73321 5.12258 4.79049e-18)
(1.29084 5.72866 8.06162e-18)
(1.1728 5.91286 2.421e-18)
(4.58405 4.88422 -2.27958e-17)
(6.38854 7.39262 2.60253e-17)
(6.54972 7.34869 1.83676e-17)
(6.26842 7.34254 -4.72358e-18)
(6.10915 7.05775 -2.2633e-17)
(5.80867 6.88427 0)
(5.52827 6.6617 6.4128e-18)
(5.22394 6.42088 -3.68526e-18)
(4.88079 6.15542 -1.71456e-19)
(4.47806 5.89172 -9.61952e-18)
(4.10182 5.66185 -7.82704e-19)
(3.76736 5.52312 -1.16771e-17)
(3.48503 5.4727 1.43156e-17)
(3.22867 5.487 4.57928e-18)
(2.96147 5.4672 -1.06959e-17)
(2.57449 5.22174 1.1441e-17)
(2.28306 5.06036 0)
(1.93836 5.76404 0)
(1.68732 6.3479 1.41123e-18)
(0.47828 6.40231 -5.2897e-18)
(4.51166 4.96524 1.09598e-17)
(6.31936 7.51484 2.42995e-17)
(6.46335 7.48175 -1.8278e-17)
(6.15582 7.47114 1.65694e-17)
(5.99905 7.17436 2.19293e-17)
(5.71156 6.99823 0)
(5.43642 6.76745 -6.81124e-18)
(5.13924 6.5225 -5.13614e-18)
(4.80395 6.25436 0)
(4.41347 5.99006 0)
(4.05277 5.76102 0)
(3.74017 5.62561 0)
(3.48362 5.58075 -1.6311e-17)
(3.25632 5.59715 -6.20802e-18)
(3.01169 5.56737 0)
(2.68239 5.3718 -5.91628e-18)
(2.50797 5.46959 0)
(2.53984 5.79825 -2.50428e-18)
(2.59992 5.78529 1.35341e-18)
(1.4221 5.8191 6.55554e-19)
(4.38933 5.0119 -2.09001e-17)
(6.18032 7.62454 -1.54458e-17)
(6.30898 7.58552 -1.12507e-17)