/*--------------------------------*- C++ -*----------------------------------*\
| =========                 |                                                 |
| \\      /  F ield         | OpenFOAM: The Open Source CFD Toolbox           |
|  \\    /   O peration     | Version:  2412                                  |
|   \\  /    A nd           | Website:  www.openfoam.com                      |
|    \\/     M anipulation  |                                                 |
\*---------------------------------------------------------------------------*/
FoamFile
{
    version     2.0;
    format      ascii;
    arch        "LSB;label=32;scalar=64";
    class       surfaceScalarField;
    location    "0.01";
    object      phi;
}
// * * * * * * * * * * * * * * * * * * * * * * * * * * * * * * * * * * * * * //

dimensions      [0 3 -1 0 0 0 0];

oriented        oriented;

internalField   nonuniform List<scalar> 
799
(
7.61425e-05
0.000152282
0.000228412
0.00030453
0.00038063
0.000456709
0.000532763
0.000608786
0.000684775
0.000760726
0.000836633
0.000912494
0.000988303
0.00106406
0.00113975
0.00121538
0.00129094
0.00136643
0.00144184
0.00151717
0.00159242
0.00166757
0.00174264
0.0018176
0.00189246
0.00196721
0.00204186
0.00211639
0.0021908
0.00226509
0.00233924
0.00241327
0.00248716
0.00256091
0.00263452
0.00270798
0.00278128
0.00285443
0.00292742
0.00300024
0.00307289
0.00314537
0.00321767
0.00328979
0.00336172
0.00343346
0.00350501
0.00357636
0.00364751
0.00371845
0.00378919
0.0038597
0.00393
0.00400008
0.00406993
0.00413955
0.00420893
0.00427807
0.00434698
0.00441563
0.00448404
0.00455219
0.00462008
0.00468771
0.00475508
0.00482217
0.00488899
0.00495553
0.00502179
0.00508776
0.00515345
0.00521883
0.00528393
0.00534872
0.0054132
0.00547738
0.00554125
0.0056048
0.00566802
0.00573093
0.00579351
0.00585575
0.00591766
0.00597923
0.00604046
0.00610135
0.00616188
0.00622206
0.00628189
0.00634135
0.00640045
0.00645918
0.00651754
0.00657553
0.00663314
0.00669036
0.0067472
0.00680366
0.00685972
0.00691538
0.00697065
0.00702551
0.00707997
0.00713402
0.00718766
0.00724088
0.00729369
0.00734607
0.00739802
0.00744955
0.00750064
0.0075513
0.00760153
0.00765131
0.00770064
0.00774953
0.00779797
0.00784596
0.00789348
0.00794055
0.00798716
0.0080333
0.00807896
0.00812416
0.00816889
0.00821313
0.0082569
0.00830018
0.00834298
0.00838529
0.00842711
0.00846843
0.00850925
0.00854958
0.0085894
0.00862872
0.00866753
0.00870583
0.00874361
0.00878089
0.00881764
0.00885387
0.00888958
0.00892477
0.00895942
0.00899355
0.00902714
0.0090602
0.00909272
0.00912471
0.00915615
0.00918705
0.0092174
0.0092472
0.00927645
0.00930515
0.0093333
0.00936088
0.00938791
0.00941438
0.00944029
0.00946563
0.0094904
0.00951461
0.00953824
0.00956131
0.0095838
0.00960571
0.00962705
0.0096478
0.00966798
0.00968758
0.00970659
0.00972501
0.00974285
0.0097601
0.00977676
0.00979283
0.00980831
0.00982319
0.00983748
0.00985116
0.00986426
0.00987675
0.00988864
0.00989993
0.00991062
0.0099207
0.00993018
0.00993905
0.00994732
0.00995498
0.00996203
0.00996847
0.0099743
0.00997951
0.00998412
0.00998811
0.00999149
0.00999426
0.00999641
0.00999794
0.00999886
0.00999917
0.00999885
0.00999792
0.00999637
0.00999421
0.00999142
0.00998802
0.00998399
0.00997935
0.00997409
0.00996821
0.00996171
0.00995459
0.00994685
0.00993849
0.00992951
0.00991991
0.0099097
0.00989886
0.0098874
0.00987533
0.00986264
0.00984933
0.0098354
0.00982086
0.0098057
0.00978992
0.00977352
0.00975651
0.00973889
0.00972065
0.0097018
0.00968234
0.00966226
0.00964158
0.00962028
0.00959838
0.00957587
0.00955275
0.00952902
0.00950469
0.00947976
0.00945422
0.00942808
0.00940135
0.00937401
0.00934607
0.00931754
0.00928842
0.0092587
0.00922838
0.00919748
0.00916599
0.00913391
0.00910125
0.009068
0.00903417
0.00899976
0.00896477
0.0089292
0.00889306
0.00885635
0.00881907
0.00878121
0.00874279
0.00870381
0.00866426
0.00862415
0.00858349
0.00854227
0.00850049
0.00845817
0.00841529
0.00837187
0.0083279
0.00828339
0.00823835
0.00819277
0.00814665
0.00810001
0.00805283
0.00800513
0.00795691
0.00790817
0.00785891
0.00780913
0.00775884
0.00770805
0.00765675
0.00760495
0.00755265
0.00749986
0.00744657
0.00739279
0.00733853
0.00728379
0.00722856
0.00717286
0.00711669
0.00706004
0.00700293
0.00694536
0.00688733
0.00682885
0.00676991
0.00671053
0.0066507
0.00659043
0.00652972
0.00646859
0.00640702
0.00634503
0.00628261
0.00621978
0.00615654
0.00609289
0.00602883
0.00596437
0.00589952
0.00583427
0.00576863
0.00570261
0.0056362
0.00556942
0.00550227
0.00543476
0.00536687
0.00529864
0.00523004
0.0051611
0.00509181
0.00502218
0.00495222
0.00488192
0.0048113
0.00474035
0.00466908
0.00459751
0.00452562
0.00445343
0.00438094
0.00430815
0.00423508
0.00416172
0.00408809
0.00401417
0.00393999
0.00386554
0.00379084
0.00371587
0.00364066
0.0035652
0.0034895
0.00341356
0.0033374
0.00326101
0.0031844
0.00310758
0.00303054
0.0029533
0.00287586
0.00279823
0.00272041
0.0026424
0.00256422
0.00248586
0.00240734
0.00232865
0.0022498
0.0021708
0.00209166
0.00201237
0.00193295
0.00185339
0.00177371
0.00169391
0.001614
0.00153398
0.00145385
0.00137362
0.00129331
0.0012129
0.00113241
0.00105185
0.000971209
0.000890507
0.000809744
0.000728926
0.000648059
0.000567148
0.000486198
0.000405216
0.000324206
0.000243173
0.000162125
8.10651e-05
3.90383e-13
-8.10651e-05
-0.000162125
-0.000243173
-0.000324206
-0.000405216
-0.000486198
-0.000567148
-0.000648059
-0.000728926
-0.000809744
-0.000890507
-0.000971209
-0.00105185
-0.00113241
-0.0012129
-0.00129331
-0.00137362
-0.00145385
-0.00153398
-0.001614
-0.00169391
-0.00177371
-0.00185339
-0.00193295
-0.00201237
-0.00209166
-0.0021708
-0.0022498
-0.00232865
-0.00240734
-0.00248586
-0.00256422
-0.0026424
-0.00272041
-0.00279823
-0.00287586
-0.0029533
-0.00303054
-0.00310757
-0.0031844
-0.00326101
-0.0033374
-0.00341356
-0.0034895
-0.0035652
-0.00364066
-0.00371587
-0.00379083
-0.00386554
-0.00393999
-0.00401417
-0.00408809
-0.00416172
-0.00423508
-0.00430815
-0.00438094
-0.00445343
-0.00452562
-0.0045975
-0.00466908
-0.00474035
-0.00481129
-0.00488192
-0.00495222
-0.00502218
-0.00509181
-0.0051611
-0.00523004
-0.00529863
-0.00536687
-0.00543475
-0.00550227
-0.00556942
-0.0056362
-0.0057026
-0.00576863
-0.00583427
-0.00589951
-0.00596437
-0.00602883
-0.00609289
-0.00615654
-0.00621978
-0.00628261
-0.00634503
-0.00640702
-0.00646859
-0.00652972
-0.00659043
-0.0066507
-0.00671053
-0.00676991
-0.00682885
-0.00688733
-0.00694536
-0.00700293
-0.00706004
-0.00711669
-0.00717286
-0.00722856
-0.00728379
-0.00733853
-0.00739279
-0.00744657
-0.00749986
-0.00755265
-0.00760495
-0.00765675
-0.00770805
-0.00775884
-0.00780913
-0.0078589
-0.00790816
-0.00795691
-0.00800513
-0.00805283
-0.0081
-0.00814665
-0.00819277
-0.00823835
-0.00828339
-0.0083279
-0.00837187
-0.00841529
-0.00845816
-0.00850049
-0.00854227
-0.00858349
-0.00862415
-0.00866426
-0.00870381
-0.00874279
-0.00878121
-0.00881907
-0.00885635
-0.00889306
-0.0089292
-0.00896477
-0.00899976
-0.00903417
-0.009068
-0.00910125
-0.00913391
-0.00916599
-0.00919748
-0.00922838
-0.0092587
-0.00928842
-0.00931754
-0.00934607
-0.00937401
-0.00940135
-0.00942808
-0.00945422
-0.00947976
-0.00950469
-0.00952902
-0.00955275
-0.00957587
-0.00959838
-0.00962028
-0.00964158
-0.00966226
-0.00968234
-0.0097018
-0.00972065
-0.00973889
-0.00975651
-0.00977352
-0.00978992
-0.0098057
-0.00982086
-0.0098354
-0.00984933
-0.00986264
-0.00987533
-0.0098874
-0.00989886
-0.0099097
-0.00991991
-0.00992951
-0.00993849
-0.00994685
-0.00995459
-0.00996171
-0.00996821
-0.00997409
-0.00997935
-0.00998399
-0.00998802
-0.00999142
-0.00999421
-0.00999637
-0.00999792
-0.00999885
-0.00999917
-0.00999886
-0.00999794
-0.00999641
-0.00999426
-0.00999149
-0.00998811
-0.00998412
-0.00997951
-0.0099743
-0.00996847
-0.00996203
-0.00995498
-0.00994732
-0.00993905
-0.00993018
-0.0099207
-0.00991062
-0.00989993
-0.00988864
-0.00987675
-0.00986426
-0.00985116
-0.00983748
-0.00982319
-0.00980831
-0.00979283
-0.00977676
-0.0097601
-0.00974285
-0.00972501
-0.00970659
-0.00968758
-0.00966798
-0.0096478
-0.00962705
-0.00960571
-0.0095838
-0.00956131
-0.00953824
-0.00951461
-0.0094904
-0.00946563
-0.00944029
-0.00941438
-0.00938791
-0.00936088
-0.0093333
-0.00930515
-0.00927645
-0.0092472
-0.0092174
-0.00918705
-0.00915615
-0.00912471
-0.00909272
-0.0090602
-0.00902714
-0.00899355
-0.00895942
-0.00892476
-0.00888958
-0.00885387
-0.00881764
-0.00878088
-0.00874361
-0.00870583
-0.00866752
-0.00862871
-0.0085894
-0.00854957
-0.00850925
-0.00846843
-0.0084271
-0.00838529
-0.00834298
-0.00830018
-0.0082569
-0.00821313
-0.00816888
-0.00812416
-0.00807896
-0.00803329
-0.00798716
-0.00794055
-0.00789348
-0.00784595
-0.00779797
-0.00774953
-0.00770064
-0.0076513
-0.00760152
-0.0075513
-0.00750064
-0.00744955
-0.00739802
-0.00734606
-0.00729368
-0.00724088
-0.00718766
-0.00713402
-0.00707997
-0.00702551
-0.00697065
-0.00691538
-0.00685971
-0.00680365
-0.0067472
-0.00669036
-0.00663313
-0.00657553
-0.00651754
-0.00645918
-0.00640045
-0.00634135
-0.00628188
-0.00622206
-0.00616188
-0.00610134
-0.00604046
-0.00597923
-0.00591766
-0.00585575
-0.00579351
-0.00573093
-0.00566802
-0.00560479
-0.00554125
-0.00547738
-0.0054132
-0.00534872
-0.00528393
-0.00521883
-0.00515344
-0.00508776
-0.00502179
-0.00495553
-0.00488899
-0.00482217
-0.00475508
-0.00468771
-0.00462008
-0.00455219
-0.00448404
-0.00441563
-0.00434698
-0.00427807
-0.00420893
-0.00413954
-0.00406993
-0.00400008
-0.00393
-0.0038597
-0.00378919
-0.00371845
-0.00364751
-0.00357636
-0.00350501
-0.00343346
-0.00336172
-0.00328979
-0.00321767
-0.00314537
-0.00307289
-0.00300024
-0.00292742
-0.00285443
-0.00278128
-0.00270798
-0.00263452
-0.00256091
-0.00248716
-0.00241327
-0.00233924
-0.00226509
-0.0021908
-0.00211639
-0.00204186
-0.00196721
-0.00189246
-0.0018176
-0.00174264
-0.00166757
-0.00159242
-0.00151717
-0.00144184
-0.00136643
-0.00129094
-0.00121538
-0.00113975
-0.00106406
-0.000988303
-0.000912494
-0.000836633
-0.000760726
-0.000684775
-0.000608786
-0.000532763
-0.000456709
-0.00038063
-0.00030453
-0.000228413
-0.000152282
-7.61432e-05
)
;

boundaryField
{
    left
    {
        type            calculated;
        value           uniform 0;
    }
    right
    {
        type            calculated;
        value           uniform 0;
    }
    frontBackUpDown
    {
        type            empty;
    }
}


// ************************************************************************* //
