/*--------------------------------*- C++ -*----------------------------------*\
| =========                 |                                                 |
| \\      /  F ield         | OpenFOAM: The Open Source CFD Toolbox           |
|  \\    /   O peration     | Version:  2412                                  |
|   \\  /    A nd           | Website:  www.openfoam.com                      |
|    \\/     M anipulation  |                                                 |
\*---------------------------------------------------------------------------*/
FoamFile
{
    version     2.0;
    format      ascii;
    arch        "LSB;label=32;scalar=64";
    class       volVectorField;
    location    "0.01";
    object      U_0_0_0;
}
// * * * * * * * * * * * * * * * * * * * * * * * * * * * * * * * * * * * * * //

dimensions      [0 1 -1 0 0 0 0];

internalField   nonuniform List<vector> 
800
(
(0.00382463 0 0)
(0.0114739 0 0)
(0.0191225 0 0)
(0.02677 0 0)
(0.0344159 0 0)
(0.0420599 0 0)
(0.0497015 0 0)
(0.0573402 0 0)
(0.0649757 0 0)
(0.0726075 0 0)
(0.0802351 0 0)
(0.0878581 0 0)
(0.0954762 0 0)
(0.103089 0 0)
(0.110695 0 0)
(0.118296 0 0)
(0.125889 0 0)
(0.133476 0 0)
(0.141055 0 0)
(0.148626 0 0)
(0.156188 0 0)
(0.163742 0 0)
(0.171286 0 0)
(0.17882 0 0)
(0.186344 0 0)
(0.193857 0 0)
(0.20136 0 0)
(0.208851 0 0)
(0.21633 0 0)
(0.223796 0 0)
(0.23125 0 0)
(0.238691 0 0)
(0.246118 0 0)
(0.253531 0 0)
(0.260929 0 0)
(0.268313 0 0)
(0.275681 0 0)
(0.283034 0 0)
(0.29037 0 0)
(0.297689 0 0)
(0.304992 0 0)
(0.312277 0 0)
(0.319545 0 0)
(0.326793 0 0)
(0.334024 0 0)
(0.341235 0 0)
(0.348427 0 0)
(0.355598 0 0)
(0.36275 0 0)
(0.36988 0 0)
(0.37699 0 0)
(0.384077 0 0)
(0.391143 0 0)
(0.398186 0 0)
(0.405207 0 0)
(0.412204 0 0)
(0.419177 0 0)
(0.426127 0 0)
(0.433051 0 0)
(0.439951 0 0)
(0.446826 0 0)
(0.453676 0 0)
(0.460499 0 0)
(0.467295 0 0)
(0.474065 0 0)
(0.480807 0 0)
(0.487522 0 0)
(0.494209 0 0)
(0.500867 0 0)
(0.507496 0 0)
(0.514096 0 0)
(0.520667 0 0)
(0.527207 0 0)
(0.533717 0 0)
(0.540196 0 0)
(0.546645 0 0)
(0.553061 0 0)
(0.559446 0 0)
(0.565798 0 0)
(0.572118 0 0)
(0.578404 0 0)
(0.584657 0 0)
(0.590877 0 0)
(0.597062 0 0)
(0.603212 0 0)
(0.609328 0 0)
(0.615408 0 0)
(0.621453 0 0)
(0.627461 0 0)
(0.633433 0 0)
(0.639369 0 0)
(0.645267 0 0)
(0.651128 0 0)
(0.656951 0 0)
(0.662736 0 0)
(0.668482 0 0)
(0.67419 0 0)
(0.679858 0 0)
(0.685486 0 0)
(0.691075 0 0)
(0.696624 0 0)
(0.702132 0 0)
(0.707599 0 0)
(0.713025 0 0)
(0.718409 0 0)
(0.723751 0 0)
(0.729051 0 0)
(0.734308 0 0)
(0.739522 0 0)
(0.744693 0 0)
(0.749821 0 0)
(0.754905 0 0)
(0.759944 0 0)
(0.764939 0 0)
(0.769889 0 0)
(0.774794 0 0)
(0.779654 0 0)
(0.784468 0 0)
(0.789236 0 0)
(0.793957 0 0)
(0.798632 0 0)
(0.803259 0 0)
(0.80784 0 0)
(0.812372 0 0)
(0.816857 0 0)
(0.821294 0 0)
(0.825683 0 0)
(0.830023 0 0)
(0.834314 0 0)
(0.838555 0 0)
(0.842747 0 0)
(0.84689 0 0)
(0.850982 0 0)
(0.855023 0 0)
(0.859014 0 0)
(0.862955 0 0)
(0.866844 0 0)
(0.870682 0 0)
(0.874468 0 0)
(0.878202 0 0)
(0.881884 0 0)
(0.885514 0 0)
(0.889091 0 0)
(0.892615 0 0)
(0.896086 0 0)
(0.899504 0 0)
(0.902868 0 0)
(0.906178 0 0)
(0.909434 0 0)
(0.912636 0 0)
(0.915784 0 0)
(0.918877 0 0)
(0.921915 0 0)
(0.924897 0 0)
(0.927825 0 0)
(0.930696 0 0)
(0.933512 0 0)
(0.936272 0 0)
(0.938976 0 0)
(0.941624 0 0)
(0.944215 0 0)
(0.946749 0 0)
(0.949226 0 0)
(0.951646 0 0)
(0.954009 0 0)
(0.956315 0 0)
(0.958562 0 0)
(0.960752 0 0)
(0.962884 0 0)
(0.964958 0 0)
(0.966974 0 0)
(0.968931 0 0)
(0.970829 0 0)
(0.972669 0 0)
(0.97445 0 0)
(0.976172 0 0)
(0.977835 0 0)
(0.979438 0 0)
(0.980982 0 0)
(0.982466 0 0)
(0.983891 0 0)
(0.985255 0 0)
(0.98656 0 0)
(0.987805 0 0)
(0.988989 0 0)
(0.990113 0 0)
(0.991177 0 0)
(0.99218 0 0)
(0.993123 0 0)
(0.994005 0 0)
(0.994827 0 0)
(0.995587 0 0)
(0.996286 0 0)
(0.996925 0 0)
(0.997502 0 0)
(0.998018 0 0)
(0.998472 0 0)
(0.998866 0 0)
(0.999198 0 0)
(0.999468 0 0)
(0.999677 0 0)
(0.999825 0 0)
(0.999911 0 0)
(0.999935 0 0)
(0.999898 0 0)
(0.999798 0 0)
(0.999638 0 0)
(0.999415 0 0)
(0.99913 0 0)
(0.998784 0 0)
(0.998376 0 0)
(0.997906 0 0)
(0.997374 0 0)
(0.99678 0 0)
(0.996124 0 0)
(0.995406 0 0)
(0.994627 0 0)
(0.993785 0 0)
(0.992882 0 0)
(0.991917 0 0)
(0.99089 0 0)
(0.989801 0 0)
(0.988651 0 0)
(0.987439 0 0)
(0.986165 0 0)
(0.98483 0 0)
(0.983433 0 0)
(0.981974 0 0)
(0.980454 0 0)
(0.978872 0 0)
(0.977229 0 0)
(0.975525 0 0)
(0.973759 0 0)
(0.971932 0 0)
(0.970044 0 0)
(0.968095 0 0)
(0.966085 0 0)
(0.964015 0 0)
(0.961883 0 0)
(0.959691 0 0)
(0.957439 0 0)
(0.955125 0 0)
(0.952752 0 0)
(0.950318 0 0)
(0.947825 0 0)
(0.945271 0 0)
(0.942657 0 0)
(0.939984 0 0)
(0.937251 0 0)
(0.934458 0 0)
(0.931607 0 0)
(0.928696 0 0)
(0.925726 0 0)
(0.922697 0 0)
(0.919609 0 0)
(0.916463 0 0)
(0.913259 0 0)
(0.909996 0 0)
(0.906675 0 0)
(0.903297 0 0)
(0.899861 0 0)
(0.896367 0 0)
(0.892816 0 0)
(0.889208 0 0)
(0.885543 0 0)
(0.881821 0 0)
(0.878043 0 0)
(0.874208 0 0)
(0.870317 0 0)
(0.866371 0 0)
(0.862369 0 0)
(0.858311 0 0)
(0.854199 0 0)
(0.850031 0 0)
(0.845809 0 0)
(0.841532 0 0)
(0.837201 0 0)
(0.832816 0 0)
(0.828377 0 0)
(0.823885 0 0)
(0.819339 0 0)
(0.814741 0 0)
(0.81009 0 0)
(0.805387 0 0)
(0.800631 0 0)
(0.795824 0 0)
(0.790965 0 0)
(0.786055 0 0)
(0.781094 0 0)
(0.776082 0 0)
(0.77102 0 0)
(0.765908 0 0)
(0.760746 0 0)
(0.755535 0 0)
(0.750274 0 0)
(0.744965 0 0)
(0.739607 0 0)
(0.734201 0 0)
(0.728748 0 0)
(0.723247 0 0)
(0.717698 0 0)
(0.712103 0 0)
(0.706461 0 0)
(0.700773 0 0)
(0.695039 0 0)
(0.68926 0 0)
(0.683436 0 0)
(0.677567 0 0)
(0.671654 0 0)
(0.665697 0 0)
(0.659696 0 0)
(0.653652 0 0)
(0.647565 0 0)
(0.641436 0 0)
(0.635265 0 0)
(0.629052 0 0)
(0.622797 0 0)
(0.616502 0 0)
(0.610166 0 0)
(0.60379 0 0)
(0.597374 0 0)
(0.59092 0 0)
(0.584426 0 0)
(0.577893 0 0)
(0.571323 0 0)
(0.564715 0 0)
(0.558069 0 0)
(0.551387 0 0)
(0.544669 0 0)
(0.537914 0 0)
(0.531124 0 0)
(0.524299 0 0)
(0.51744 0 0)
(0.510546 0 0)
(0.503618 0 0)
(0.496658 0 0)
(0.489664 0 0)
(0.482638 0 0)
(0.47558 0 0)
(0.46849 0 0)
(0.46137 0 0)
(0.454218 0 0)
(0.447037 0 0)
(0.439826 0 0)
(0.432586 0 0)
(0.425317 0 0)
(0.41802 0 0)
(0.410696 0 0)
(0.403344 0 0)
(0.395965 0 0)
(0.38856 0 0)
(0.381129 0 0)
(0.373673 0 0)
(0.366192 0 0)
(0.358687 0 0)
(0.351158 0 0)
(0.343605 0 0)
(0.33603 0 0)
(0.328432 0 0)
(0.320812 0 0)
(0.313171 0 0)
(0.305509 0 0)
(0.297827 0 0)
(0.290125 0 0)
(0.282404 0 0)
(0.274664 0 0)
(0.266905 0 0)
(0.259129 0 0)
(0.251336 0 0)
(0.243525 0 0)
(0.235699 0 0)
(0.227856 0 0)
(0.219999 0 0)
(0.212127 0 0)
(0.204241 0 0)
(0.196341 0 0)
(0.188428 0 0)
(0.180502 0 0)
(0.172564 0 0)
(0.164615 0 0)
(0.156655 0 0)
(0.148685 0 0)
(0.140704 0 0)
(0.132714 0 0)
(0.124715 0 0)
(0.116708 0 0)
(0.108693 0 0)
(0.100671 0 0)
(0.0926423 0 0)
(0.0846072 0 0)
(0.0765664 0 0)
(0.0685205 0 0)
(0.0604701 0 0)
(0.0524156 0 0)
(0.0443576 0 0)
(0.0362966 0 0)
(0.0282332 0 0)
(0.0201679 0 0)
(0.0121013 0 0)
(0.00403386 0 0)
(-0.00403386 0 0)
(-0.0121013 0 0)
(-0.0201679 0 0)
(-0.0282332 0 0)
(-0.0362966 0 0)
(-0.0443576 0 0)
(-0.0524156 0 0)
(-0.0604701 0 0)
(-0.0685205 0 0)
(-0.0765664 0 0)
(-0.0846072 0 0)
(-0.0926423 0 0)
(-0.100671 0 0)
(-0.108693 0 0)
(-0.116708 0 0)
(-0.124715 0 0)
(-0.132714 0 0)
(-0.140704 0 0)
(-0.148685 0 0)
(-0.156655 0 0)
(-0.164615 0 0)
(-0.172564 0 0)
(-0.180502 0 0)
(-0.188428 0 0)
(-0.196341 0 0)
(-0.204241 0 0)
(-0.212127 0 0)
(-0.219999 0 0)
(-0.227856 0 0)
(-0.235699 0 0)
(-0.243525 0 0)
(-0.251336 0 0)
(-0.259129 0 0)
(-0.266905 0 0)
(-0.274664 0 0)
(-0.282404 0 0)
(-0.290125 0 0)
(-0.297827 0 0)
(-0.305509 0 0)
(-0.313171 0 0)
(-0.320812 0 0)
(-0.328432 0 0)
(-0.336029 0 0)
(-0.343605 0 0)
(-0.351158 0 0)
(-0.358687 0 0)
(-0.366192 0 0)
(-0.373673 0 0)
(-0.381129 0 0)
(-0.38856 0 0)
(-0.395965 0 0)
(-0.403344 0 0)
(-0.410696 0 0)
(-0.41802 0 0)
(-0.425317 0 0)
(-0.432586 0 0)
(-0.439826 0 0)
(-0.447037 0 0)
(-0.454218 0 0)
(-0.46137 0 0)
(-0.46849 0 0)
(-0.47558 0 0)
(-0.482638 0 0)
(-0.489664 0 0)
(-0.496657 0 0)
(-0.503618 0 0)
(-0.510546 0 0)
(-0.51744 0 0)
(-0.524299 0 0)
(-0.531124 0 0)
(-0.537914 0 0)
(-0.544669 0 0)
(-0.551387 0 0)
(-0.558069 0 0)
(-0.564715 0 0)
(-0.571323 0 0)
(-0.577893 0 0)
(-0.584426 0 0)
(-0.590919 0 0)
(-0.597374 0 0)
(-0.60379 0 0)
(-0.610166 0 0)
(-0.616502 0 0)
(-0.622797 0 0)
(-0.629051 0 0)
(-0.635265 0 0)
(-0.641436 0 0)
(-0.647565 0 0)
(-0.653652 0 0)
(-0.659696 0 0)
(-0.665697 0 0)
(-0.671654 0 0)
(-0.677567 0 0)
(-0.683436 0 0)
(-0.68926 0 0)
(-0.695039 0 0)
(-0.700773 0 0)
(-0.706461 0 0)
(-0.712103 0 0)
(-0.717698 0 0)
(-0.723246 0 0)
(-0.728748 0 0)
(-0.734201 0 0)
(-0.739607 0 0)
(-0.744965 0 0)
(-0.750274 0 0)
(-0.755535 0 0)
(-0.760746 0 0)
(-0.765908 0 0)
(-0.77102 0 0)
(-0.776082 0 0)
(-0.781094 0 0)
(-0.786055 0 0)
(-0.790965 0 0)
(-0.795824 0 0)
(-0.800631 0 0)
(-0.805387 0 0)
(-0.81009 0 0)
(-0.814741 0 0)
(-0.819339 0 0)
(-0.823884 0 0)
(-0.828377 0 0)
(-0.832816 0 0)
(-0.837201 0 0)
(-0.841532 0 0)
(-0.845809 0 0)
(-0.850031 0 0)
(-0.854198 0 0)
(-0.858311 0 0)
(-0.862368 0 0)
(-0.866371 0 0)
(-0.870317 0 0)
(-0.874208 0 0)
(-0.878043 0 0)
(-0.881821 0 0)
(-0.885543 0 0)
(-0.889208 0 0)
(-0.892816 0 0)
(-0.896367 0 0)
(-0.899861 0 0)
(-0.903297 0 0)
(-0.906675 0 0)
(-0.909996 0 0)
(-0.913259 0 0)
(-0.916463 0 0)
(-0.919609 0 0)
(-0.922697 0 0)
(-0.925726 0 0)
(-0.928696 0 0)
(-0.931607 0 0)
(-0.934458 0 0)
(-0.937251 0 0)
(-0.939984 0 0)
(-0.942657 0 0)
(-0.945271 0 0)
(-0.947825 0 0)
(-0.950318 0 0)
(-0.952752 0 0)
(-0.955125 0 0)
(-0.957438 0 0)
(-0.959691 0 0)
(-0.961883 0 0)
(-0.964015 0 0)
(-0.966085 0 0)
(-0.968095 0 0)
(-0.970044 0 0)
(-0.971932 0 0)
(-0.973759 0 0)
(-0.975524 0 0)
(-0.977229 0 0)
(-0.978872 0 0)
(-0.980454 0 0)
(-0.981974 0 0)
(-0.983432 0 0)
(-0.98483 0 0)
(-0.986165 0 0)
(-0.987439 0 0)
(-0.988651 0 0)
(-0.989801 0 0)
(-0.99089 0 0)
(-0.991917 0 0)
(-0.992882 0 0)
(-0.993785 0 0)
(-0.994627 0 0)
(-0.995406 0 0)
(-0.996124 0 0)
(-0.99678 0 0)
(-0.997374 0 0)
(-0.997906 0 0)
(-0.998376 0 0)
(-0.998784 0 0)
(-0.99913 0 0)
(-0.999415 0 0)
(-0.999638 0 0)
(-0.999798 0 0)
(-0.999898 0 0)
(-0.999935 0 0)
(-0.999911 0 0)
(-0.999825 0 0)
(-0.999677 0 0)
(-0.999468 0 0)
(-0.999198 0 0)
(-0.998866 0 0)
(-0.998472 0 0)
(-0.998018 0 0)
(-0.997502 0 0)
(-0.996925 0 0)
(-0.996286 0 0)
(-0.995587 0 0)
(-0.994827 0 0)
(-0.994005 0 0)
(-0.993123 0 0)
(-0.99218 0 0)
(-0.991177 0 0)
(-0.990113 0 0)
(-0.988989 0 0)
(-0.987805 0 0)
(-0.98656 0 0)
(-0.985255 0 0)
(-0.983891 0 0)
(-0.982466 0 0)
(-0.980982 0 0)
(-0.979438 0 0)
(-0.977835 0 0)
(-0.976172 0 0)
(-0.97445 0 0)
(-0.972669 0 0)
(-0.970829 0 0)
(-0.968931 0 0)
(-0.966974 0 0)
(-0.964958 0 0)
(-0.962884 0 0)
(-0.960752 0 0)
(-0.958562 0 0)
(-0.956315 0 0)
(-0.954009 0 0)
(-0.951646 0 0)
(-0.949226 0 0)
(-0.946749 0 0)
(-0.944215 0 0)
(-0.941624 0 0)
(-0.938976 0 0)
(-0.936272 0 0)
(-0.933512 0 0)
(-0.930696 0 0)
(-0.927825 0 0)
(-0.924897 0 0)
(-0.921914 0 0)
(-0.918877 0 0)
(-0.915784 0 0)
(-0.912636 0 0)
(-0.909434 0 0)
(-0.906178 0 0)
(-0.902868 0 0)
(-0.899504 0 0)
(-0.896086 0 0)
(-0.892615 0 0)
(-0.889091 0 0)
(-0.885514 0 0)
(-0.881884 0 0)
(-0.878202 0 0)
(-0.874468 0 0)
(-0.870682 0 0)
(-0.866844 0 0)
(-0.862955 0 0)
(-0.859014 0 0)
(-0.855023 0 0)
(-0.850981 0 0)
(-0.846889 0 0)
(-0.842747 0 0)
(-0.838555 0 0)
(-0.834313 0 0)
(-0.830023 0 0)
(-0.825683 0 0)
(-0.821294 0 0)
(-0.816857 0 0)
(-0.812372 0 0)
(-0.80784 0 0)
(-0.803259 0 0)
(-0.798631 0 0)
(-0.793957 0 0)
(-0.789235 0 0)
(-0.784468 0 0)
(-0.779654 0 0)
(-0.774794 0 0)
(-0.769889 0 0)
(-0.764939 0 0)
(-0.759944 0 0)
(-0.754905 0 0)
(-0.749821 0 0)
(-0.744693 0 0)
(-0.739522 0 0)
(-0.734308 0 0)
(-0.72905 0 0)
(-0.723751 0 0)
(-0.718409 0 0)
(-0.713024 0 0)
(-0.707599 0 0)
(-0.702132 0 0)
(-0.696624 0 0)
(-0.691075 0 0)
(-0.685486 0 0)
(-0.679858 0 0)
(-0.674189 0 0)
(-0.668482 0 0)
(-0.662736 0 0)
(-0.656951 0 0)
(-0.651128 0 0)
(-0.645267 0 0)
(-0.639369 0 0)
(-0.633433 0 0)
(-0.627461 0 0)
(-0.621452 0 0)
(-0.615408 0 0)
(-0.609327 0 0)
(-0.603212 0 0)
(-0.597061 0 0)
(-0.590877 0 0)
(-0.584657 0 0)
(-0.578404 0 0)
(-0.572118 0 0)
(-0.565798 0 0)
(-0.559446 0 0)
(-0.553061 0 0)
(-0.546645 0 0)
(-0.540196 0 0)
(-0.533717 0 0)
(-0.527207 0 0)
(-0.520667 0 0)
(-0.514096 0 0)
(-0.507496 0 0)
(-0.500867 0 0)
(-0.494209 0 0)
(-0.487522 0 0)
(-0.480807 0 0)
(-0.474065 0 0)
(-0.467295 0 0)
(-0.460499 0 0)
(-0.453675 0 0)
(-0.446826 0 0)
(-0.439951 0 0)
(-0.433051 0 0)
(-0.426126 0 0)
(-0.419177 0 0)
(-0.412204 0 0)
(-0.405207 0 0)
(-0.398186 0 0)
(-0.391143 0 0)
(-0.384077 0 0)
(-0.37699 0 0)
(-0.36988 0 0)
(-0.36275 0 0)
(-0.355599 0 0)
(-0.348427 0 0)
(-0.341235 0 0)
(-0.334024 0 0)
(-0.326793 0 0)
(-0.319544 0 0)
(-0.312277 0 0)
(-0.304992 0 0)
(-0.297689 0 0)
(-0.29037 0 0)
(-0.283034 0 0)
(-0.275681 0 0)
(-0.268313 0 0)
(-0.260929 0 0)
(-0.253531 0 0)
(-0.246118 0 0)
(-0.238691 0 0)
(-0.23125 0 0)
(-0.223796 0 0)
(-0.21633 0 0)
(-0.208851 0 0)
(-0.20136 0 0)
(-0.193857 0 0)
(-0.186344 0 0)
(-0.17882 0 0)
(-0.171285 0 0)
(-0.163742 0 0)
(-0.156188 0 0)
(-0.148626 0 0)
(-0.141055 0 0)
(-0.133476 0 0)
(-0.125889 0 0)
(-0.118296 0 0)
(-0.110695 0 0)
(-0.103089 0 0)
(-0.0954762 0 0)
(-0.0878581 0 0)
(-0.0802351 0 0)
(-0.0726075 0 0)
(-0.0649757 0 0)
(-0.0573402 0 0)
(-0.0497015 0 0)
(-0.0420599 0 0)
(-0.0344159 0 0)
(-0.02677 0 0)
(-0.0191225 0 0)
(-0.0114739 0 0)
(-0.00382472 0 0)
)
;

boundaryField
{
    left
    {
        type            fixedValue;
        value           uniform (0 0 0);
    }
    right
    {
        type            fixedValue;
        value           uniform (0 0 0);
    }
    frontBackUpDown
    {
        type            empty;
    }
}


// ************************************************************************* //
