/*--------------------------------*- C++ -*----------------------------------*\
| =========                 |                                                 |
| \\      /  F ield         | OpenFOAM: The Open Source CFD Toolbox           |
|  \\    /   O peration     | Version:  2412                                  |
|   \\  /    A nd           | Website:  www.openfoam.com                      |
|    \\/     M anipulation  |                                                 |
\*---------------------------------------------------------------------------*/
FoamFile
{
    version     2.0;
    format      ascii;
    arch        "LSB;label=32;scalar=64";
    class       volVectorField;
    location    "0.01";
    object      U_0_0;
}
// * * * * * * * * * * * * * * * * * * * * * * * * * * * * * * * * * * * * * //

dimensions      [0 1 -1 0 0 0 0];

internalField   nonuniform List<vector> 
800
(
(0.00381878 0 0)
(0.0114563 0 0)
(0.0190932 0 0)
(0.026729 0 0)
(0.0343633 0 0)
(0.0419956 0 0)
(0.0496255 0 0)
(0.0572526 0 0)
(0.0648765 0 0)
(0.0724967 0 0)
(0.0801127 0 0)
(0.0877242 0 0)
(0.0953307 0 0)
(0.102932 0 0)
(0.110527 0 0)
(0.118116 0 0)
(0.125698 0 0)
(0.133274 0 0)
(0.140841 0 0)
(0.148401 0 0)
(0.155952 0 0)
(0.163494 0 0)
(0.171027 0 0)
(0.17855 0 0)
(0.186064 0 0)
(0.193566 0 0)
(0.201058 0 0)
(0.208538 0 0)
(0.216006 0 0)
(0.223462 0 0)
(0.230906 0 0)
(0.238336 0 0)
(0.245753 0 0)
(0.253155 0 0)
(0.260544 0 0)
(0.267917 0 0)
(0.275275 0 0)
(0.282618 0 0)
(0.289944 0 0)
(0.297254 0 0)
(0.304547 0 0)
(0.311823 0 0)
(0.31908 0 0)
(0.32632 0 0)
(0.333541 0 0)
(0.340743 0 0)
(0.347926 0 0)
(0.355089 0 0)
(0.362231 0 0)
(0.369353 0 0)
(0.376454 0 0)
(0.383533 0 0)
(0.390591 0 0)
(0.397626 0 0)
(0.404638 0 0)
(0.411627 0 0)
(0.418593 0 0)
(0.425535 0 0)
(0.432452 0 0)
(0.439345 0 0)
(0.446213 0 0)
(0.453055 0 0)
(0.459871 0 0)
(0.466661 0 0)
(0.473424 0 0)
(0.48016 0 0)
(0.486868 0 0)
(0.493549 0 0)
(0.500201 0 0)
(0.506824 0 0)
(0.513419 0 0)
(0.519984 0 0)
(0.526519 0 0)
(0.533023 0 0)
(0.539497 0 0)
(0.545941 0 0)
(0.552352 0 0)
(0.558733 0 0)
(0.56508 0 0)
(0.571396 0 0)
(0.577678 0 0)
(0.583927 0 0)
(0.590143 0 0)
(0.596324 0 0)
(0.602471 0 0)
(0.608583 0 0)
(0.614661 0 0)
(0.620702 0 0)
(0.626708 0 0)
(0.632678 0 0)
(0.638611 0 0)
(0.644507 0 0)
(0.650366 0 0)
(0.656187 0 0)
(0.66197 0 0)
(0.667715 0 0)
(0.673421 0 0)
(0.679088 0 0)
(0.684716 0 0)
(0.690304 0 0)
(0.695852 0 0)
(0.70136 0 0)
(0.706827 0 0)
(0.712252 0 0)
(0.717637 0 0)
(0.722979 0 0)
(0.728279 0 0)
(0.733537 0 0)
(0.738752 0 0)
(0.743925 0 0)
(0.749053 0 0)
(0.754139 0 0)
(0.75918 0 0)
(0.764176 0 0)
(0.769129 0 0)
(0.774036 0 0)
(0.778898 0 0)
(0.783714 0 0)
(0.788485 0 0)
(0.793209 0 0)
(0.797887 0 0)
(0.802517 0 0)
(0.807101 0 0)
(0.811638 0 0)
(0.816126 0 0)
(0.820567 0 0)
(0.82496 0 0)
(0.829304 0 0)
(0.833599 0 0)
(0.837846 0 0)
(0.842042 0 0)
(0.84619 0 0)
(0.850287 0 0)
(0.854334 0 0)
(0.85833 0 0)
(0.862276 0 0)
(0.866171 0 0)
(0.870015 0 0)
(0.873807 0 0)
(0.877548 0 0)
(0.881237 0 0)
(0.884873 0 0)
(0.888457 0 0)
(0.891988 0 0)
(0.895466 0 0)
(0.898891 0 0)
(0.902262 0 0)
(0.90558 0 0)
(0.908844 0 0)
(0.912054 0 0)
(0.915209 0 0)
(0.91831 0 0)
(0.921356 0 0)
(0.924347 0 0)
(0.927283 0 0)
(0.930164 0 0)
(0.932988 0 0)
(0.935757 0 0)
(0.93847 0 0)
(0.941127 0 0)
(0.943727 0 0)
(0.946271 0 0)
(0.948758 0 0)
(0.951187 0 0)
(0.95356 0 0)
(0.955875 0 0)
(0.958133 0 0)
(0.960333 0 0)
(0.962476 0 0)
(0.96456 0 0)
(0.966586 0 0)
(0.968553 0 0)
(0.970463 0 0)
(0.972313 0 0)
(0.974105 0 0)
(0.975838 0 0)
(0.977511 0 0)
(0.979126 0 0)
(0.980681 0 0)
(0.982176 0 0)
(0.983612 0 0)
(0.984988 0 0)
(0.986304 0 0)
(0.98756 0 0)
(0.988757 0 0)
(0.989892 0 0)
(0.990968 0 0)
(0.991983 0 0)
(0.992937 0 0)
(0.993831 0 0)
(0.994665 0 0)
(0.995437 0 0)
(0.996148 0 0)
(0.996799 0 0)
(0.997388 0 0)
(0.997916 0 0)
(0.998383 0 0)
(0.998789 0 0)
(0.999133 0 0)
(0.999416 0 0)
(0.999637 0 0)
(0.999797 0 0)
(0.999895 0 0)
(0.999931 0 0)
(0.999906 0 0)
(0.999819 0 0)
(0.999671 0 0)
(0.99946 0 0)
(0.999188 0 0)
(0.998854 0 0)
(0.998458 0 0)
(0.998 0 0)
(0.997481 0 0)
(0.996899 0 0)
(0.996256 0 0)
(0.99555 0 0)
(0.994783 0 0)
(0.993953 0 0)
(0.993062 0 0)
(0.992109 0 0)
(0.991094 0 0)
(0.990018 0 0)
(0.988879 0 0)
(0.987679 0 0)
(0.986417 0 0)
(0.985093 0 0)
(0.983708 0 0)
(0.982261 0 0)
(0.980752 0 0)
(0.979182 0 0)
(0.977551 0 0)
(0.975858 0 0)
(0.974103 0 0)
(0.972287 0 0)
(0.970411 0 0)
(0.968473 0 0)
(0.966474 0 0)
(0.964414 0 0)
(0.962294 0 0)
(0.960112 0 0)
(0.95787 0 0)
(0.955567 0 0)
(0.953204 0 0)
(0.950781 0 0)
(0.948297 0 0)
(0.945754 0 0)
(0.94315 0 0)
(0.940486 0 0)
(0.937763 0 0)
(0.93498 0 0)
(0.932138 0 0)
(0.929236 0 0)
(0.926275 0 0)
(0.923256 0 0)
(0.920177 0 0)
(0.91704 0 0)
(0.913844 0 0)
(0.910589 0 0)
(0.907277 0 0)
(0.903907 0 0)
(0.900478 0 0)
(0.896992 0 0)
(0.893449 0 0)
(0.889849 0 0)
(0.886191 0 0)
(0.882476 0 0)
(0.878705 0 0)
(0.874877 0 0)
(0.870994 0 0)
(0.867054 0 0)
(0.863058 0 0)
(0.859007 0 0)
(0.8549 0 0)
(0.850738 0 0)
(0.846522 0 0)
(0.84225 0 0)
(0.837925 0 0)
(0.833545 0 0)
(0.829111 0 0)
(0.824623 0 0)
(0.820083 0 0)
(0.815489 0 0)
(0.810842 0 0)
(0.806143 0 0)
(0.801391 0 0)
(0.796588 0 0)
(0.791732 0 0)
(0.786825 0 0)
(0.781867 0 0)
(0.776858 0 0)
(0.771799 0 0)
(0.766689 0 0)
(0.76153 0 0)
(0.75632 0 0)
(0.751062 0 0)
(0.745754 0 0)
(0.740398 0 0)
(0.734993 0 0)
(0.72954 0 0)
(0.72404 0 0)
(0.718492 0 0)
(0.712897 0 0)
(0.707256 0 0)
(0.701568 0 0)
(0.695834 0 0)
(0.690054 0 0)
(0.68423 0 0)
(0.67836 0 0)
(0.672446 0 0)
(0.666488 0 0)
(0.660485 0 0)
(0.65444 0 0)
(0.648351 0 0)
(0.64222 0 0)
(0.636046 0 0)
(0.629831 0 0)
(0.623574 0 0)
(0.617275 0 0)
(0.610936 0 0)
(0.604557 0 0)
(0.598138 0 0)
(0.59168 0 0)
(0.585182 0 0)
(0.578646 0 0)
(0.572071 0 0)
(0.565458 0 0)
(0.558808 0 0)
(0.552121 0 0)
(0.545398 0 0)
(0.538638 0 0)
(0.531843 0 0)
(0.525012 0 0)
(0.518147 0 0)
(0.511247 0 0)
(0.504313 0 0)
(0.497346 0 0)
(0.490346 0 0)
(0.483313 0 0)
(0.476248 0 0)
(0.469152 0 0)
(0.462024 0 0)
(0.454865 0 0)
(0.447676 0 0)
(0.440458 0 0)
(0.43321 0 0)
(0.425933 0 0)
(0.418628 0 0)
(0.411295 0 0)
(0.403934 0 0)
(0.396547 0 0)
(0.389133 0 0)
(0.381693 0 0)
(0.374228 0 0)
(0.366738 0 0)
(0.359223 0 0)
(0.351684 0 0)
(0.344122 0 0)
(0.336536 0 0)
(0.328928 0 0)
(0.321299 0 0)
(0.313647 0 0)
(0.305975 0 0)
(0.298283 0 0)
(0.29057 0 0)
(0.282838 0 0)
(0.275087 0 0)
(0.267317 0 0)
(0.25953 0 0)
(0.251725 0 0)
(0.243904 0 0)
(0.236066 0 0)
(0.228212 0 0)
(0.220343 0 0)
(0.212459 0 0)
(0.204561 0 0)
(0.196649 0 0)
(0.188724 0 0)
(0.180787 0 0)
(0.172837 0 0)
(0.164876 0 0)
(0.156903 0 0)
(0.14892 0 0)
(0.140927 0 0)
(0.132925 0 0)
(0.124914 0 0)
(0.116894 0 0)
(0.108867 0 0)
(0.100832 0 0)
(0.0927902 0 0)
(0.0847423 0 0)
(0.0766888 0 0)
(0.0686302 0 0)
(0.0605669 0 0)
(0.0524995 0 0)
(0.0444287 0 0)
(0.0363548 0 0)
(0.0282785 0 0)
(0.0202003 0 0)
(0.0121207 0 0)
(0.00404033 0 0)
(-0.00404033 0 0)
(-0.0121207 0 0)
(-0.0202003 0 0)
(-0.0282785 0 0)
(-0.0363548 0 0)
(-0.0444287 0 0)
(-0.0524995 0 0)
(-0.0605669 0 0)
(-0.0686302 0 0)
(-0.0766888 0 0)
(-0.0847423 0 0)
(-0.0927902 0 0)
(-0.100832 0 0)
(-0.108867 0 0)
(-0.116894 0 0)
(-0.124914 0 0)
(-0.132925 0 0)
(-0.140927 0 0)
(-0.14892 0 0)
(-0.156903 0 0)
(-0.164876 0 0)
(-0.172837 0 0)
(-0.180787 0 0)
(-0.188724 0 0)
(-0.196649 0 0)
(-0.204561 0 0)
(-0.212459 0 0)
(-0.220343 0 0)
(-0.228212 0 0)
(-0.236066 0 0)
(-0.243904 0 0)
(-0.251725 0 0)
(-0.25953 0 0)
(-0.267317 0 0)
(-0.275087 0 0)
(-0.282838 0 0)
(-0.29057 0 0)
(-0.298283 0 0)
(-0.305975 0 0)
(-0.313647 0 0)
(-0.321299 0 0)
(-0.328928 0 0)
(-0.336536 0 0)
(-0.344121 0 0)
(-0.351684 0 0)
(-0.359223 0 0)
(-0.366737 0 0)
(-0.374228 0 0)
(-0.381693 0 0)
(-0.389133 0 0)
(-0.396547 0 0)
(-0.403934 0 0)
(-0.411295 0 0)
(-0.418628 0 0)
(-0.425933 0 0)
(-0.43321 0 0)
(-0.440458 0 0)
(-0.447676 0 0)
(-0.454865 0 0)
(-0.462024 0 0)
(-0.469152 0 0)
(-0.476248 0 0)
(-0.483313 0 0)
(-0.490346 0 0)
(-0.497346 0 0)
(-0.504313 0 0)
(-0.511247 0 0)
(-0.518147 0 0)
(-0.525012 0 0)
(-0.531843 0 0)
(-0.538638 0 0)
(-0.545398 0 0)
(-0.552121 0 0)
(-0.558808 0 0)
(-0.565458 0 0)
(-0.572071 0 0)
(-0.578645 0 0)
(-0.585182 0 0)
(-0.59168 0 0)
(-0.598138 0 0)
(-0.604557 0 0)
(-0.610936 0 0)
(-0.617275 0 0)
(-0.623573 0 0)
(-0.629831 0 0)
(-0.636046 0 0)
(-0.64222 0 0)
(-0.648351 0 0)
(-0.65444 0 0)
(-0.660485 0 0)
(-0.666488 0 0)
(-0.672446 0 0)
(-0.67836 0 0)
(-0.68423 0 0)
(-0.690054 0 0)
(-0.695834 0 0)
(-0.701568 0 0)
(-0.707256 0 0)
(-0.712897 0 0)
(-0.718492 0 0)
(-0.72404 0 0)
(-0.72954 0 0)
(-0.734993 0 0)
(-0.740397 0 0)
(-0.745754 0 0)
(-0.751061 0 0)
(-0.75632 0 0)
(-0.761529 0 0)
(-0.766689 0 0)
(-0.771799 0 0)
(-0.776858 0 0)
(-0.781867 0 0)
(-0.786825 0 0)
(-0.791732 0 0)
(-0.796588 0 0)
(-0.801391 0 0)
(-0.806143 0 0)
(-0.810842 0 0)
(-0.815489 0 0)
(-0.820082 0 0)
(-0.824623 0 0)
(-0.829111 0 0)
(-0.833545 0 0)
(-0.837924 0 0)
(-0.84225 0 0)
(-0.846522 0 0)
(-0.850738 0 0)
(-0.8549 0 0)
(-0.859006 0 0)
(-0.863058 0 0)
(-0.867053 0 0)
(-0.870993 0 0)
(-0.874877 0 0)
(-0.878705 0 0)
(-0.882476 0 0)
(-0.886191 0 0)
(-0.889848 0 0)
(-0.893449 0 0)
(-0.896992 0 0)
(-0.900478 0 0)
(-0.903907 0 0)
(-0.907277 0 0)
(-0.910589 0 0)
(-0.913844 0 0)
(-0.917039 0 0)
(-0.920177 0 0)
(-0.923256 0 0)
(-0.926275 0 0)
(-0.929236 0 0)
(-0.932138 0 0)
(-0.93498 0 0)
(-0.937763 0 0)
(-0.940486 0 0)
(-0.94315 0 0)
(-0.945754 0 0)
(-0.948297 0 0)
(-0.950781 0 0)
(-0.953204 0 0)
(-0.955567 0 0)
(-0.95787 0 0)
(-0.960112 0 0)
(-0.962294 0 0)
(-0.964414 0 0)
(-0.966474 0 0)
(-0.968473 0 0)
(-0.970411 0 0)
(-0.972287 0 0)
(-0.974103 0 0)
(-0.975857 0 0)
(-0.97755 0 0)
(-0.979182 0 0)
(-0.980752 0 0)
(-0.982261 0 0)
(-0.983708 0 0)
(-0.985093 0 0)
(-0.986417 0 0)
(-0.987679 0 0)
(-0.988879 0 0)
(-0.990018 0 0)
(-0.991094 0 0)
(-0.992109 0 0)
(-0.993062 0 0)
(-0.993953 0 0)
(-0.994783 0 0)
(-0.99555 0 0)
(-0.996256 0 0)
(-0.996899 0 0)
(-0.997481 0 0)
(-0.998 0 0)
(-0.998458 0 0)
(-0.998854 0 0)
(-0.999188 0 0)
(-0.99946 0 0)
(-0.999671 0 0)
(-0.999819 0 0)
(-0.999906 0 0)
(-0.999931 0 0)
(-0.999895 0 0)
(-0.999797 0 0)
(-0.999637 0 0)
(-0.999416 0 0)
(-0.999133 0 0)
(-0.998789 0 0)
(-0.998383 0 0)
(-0.997916 0 0)
(-0.997388 0 0)
(-0.996799 0 0)
(-0.996148 0 0)
(-0.995437 0 0)
(-0.994665 0 0)
(-0.993831 0 0)
(-0.992937 0 0)
(-0.991983 0 0)
(-0.990968 0 0)
(-0.989892 0 0)
(-0.988757 0 0)
(-0.98756 0 0)
(-0.986304 0 0)
(-0.984988 0 0)
(-0.983612 0 0)
(-0.982176 0 0)
(-0.980681 0 0)
(-0.979126 0 0)
(-0.977511 0 0)
(-0.975838 0 0)
(-0.974105 0 0)
(-0.972313 0 0)
(-0.970462 0 0)
(-0.968553 0 0)
(-0.966586 0 0)
(-0.96456 0 0)
(-0.962475 0 0)
(-0.960333 0 0)
(-0.958133 0 0)
(-0.955875 0 0)
(-0.95356 0 0)
(-0.951187 0 0)
(-0.948758 0 0)
(-0.946271 0 0)
(-0.943727 0 0)
(-0.941127 0 0)
(-0.93847 0 0)
(-0.935757 0 0)
(-0.932988 0 0)
(-0.930163 0 0)
(-0.927283 0 0)
(-0.924347 0 0)
(-0.921356 0 0)
(-0.91831 0 0)
(-0.915209 0 0)
(-0.912054 0 0)
(-0.908844 0 0)
(-0.90558 0 0)
(-0.902262 0 0)
(-0.898891 0 0)
(-0.895466 0 0)
(-0.891988 0 0)
(-0.888457 0 0)
(-0.884873 0 0)
(-0.881236 0 0)
(-0.877548 0 0)
(-0.873807 0 0)
(-0.870015 0 0)
(-0.866171 0 0)
(-0.862276 0 0)
(-0.85833 0 0)
(-0.854334 0 0)
(-0.850287 0 0)
(-0.84619 0 0)
(-0.842042 0 0)
(-0.837845 0 0)
(-0.833599 0 0)
(-0.829304 0 0)
(-0.82496 0 0)
(-0.820567 0 0)
(-0.816126 0 0)
(-0.811637 0 0)
(-0.807101 0 0)
(-0.802517 0 0)
(-0.797886 0 0)
(-0.793209 0 0)
(-0.788484 0 0)
(-0.783714 0 0)
(-0.778898 0 0)
(-0.774036 0 0)
(-0.769128 0 0)
(-0.764176 0 0)
(-0.75918 0 0)
(-0.754138 0 0)
(-0.749053 0 0)
(-0.743924 0 0)
(-0.738752 0 0)
(-0.733537 0 0)
(-0.728279 0 0)
(-0.722979 0 0)
(-0.717636 0 0)
(-0.712252 0 0)
(-0.706826 0 0)
(-0.70136 0 0)
(-0.695852 0 0)
(-0.690304 0 0)
(-0.684716 0 0)
(-0.679088 0 0)
(-0.673421 0 0)
(-0.667715 0 0)
(-0.66197 0 0)
(-0.656187 0 0)
(-0.650366 0 0)
(-0.644507 0 0)
(-0.638611 0 0)
(-0.632678 0 0)
(-0.626708 0 0)
(-0.620702 0 0)
(-0.614661 0 0)
(-0.608583 0 0)
(-0.602471 0 0)
(-0.596324 0 0)
(-0.590143 0 0)
(-0.583927 0 0)
(-0.577678 0 0)
(-0.571396 0 0)
(-0.56508 0 0)
(-0.558732 0 0)
(-0.552352 0 0)
(-0.545941 0 0)
(-0.539497 0 0)
(-0.533023 0 0)
(-0.526518 0 0)
(-0.519983 0 0)
(-0.513419 0 0)
(-0.506824 0 0)
(-0.500201 0 0)
(-0.493549 0 0)
(-0.486868 0 0)
(-0.48016 0 0)
(-0.473424 0 0)
(-0.466661 0 0)
(-0.459871 0 0)
(-0.453055 0 0)
(-0.446213 0 0)
(-0.439345 0 0)
(-0.432452 0 0)
(-0.425535 0 0)
(-0.418593 0 0)
(-0.411627 0 0)
(-0.404638 0 0)
(-0.397626 0 0)
(-0.390591 0 0)
(-0.383533 0 0)
(-0.376454 0 0)
(-0.369353 0 0)
(-0.362232 0 0)
(-0.355089 0 0)
(-0.347926 0 0)
(-0.340743 0 0)
(-0.333541 0 0)
(-0.32632 0 0)
(-0.31908 0 0)
(-0.311823 0 0)
(-0.304547 0 0)
(-0.297254 0 0)
(-0.289944 0 0)
(-0.282618 0 0)
(-0.275275 0 0)
(-0.267917 0 0)
(-0.260544 0 0)
(-0.253155 0 0)
(-0.245753 0 0)
(-0.238336 0 0)
(-0.230906 0 0)
(-0.223462 0 0)
(-0.216006 0 0)
(-0.208538 0 0)
(-0.201058 0 0)
(-0.193566 0 0)
(-0.186064 0 0)
(-0.17855 0 0)
(-0.171027 0 0)
(-0.163494 0 0)
(-0.155952 0 0)
(-0.148401 0 0)
(-0.140841 0 0)
(-0.133274 0 0)
(-0.125698 0 0)
(-0.118116 0 0)
(-0.110527 0 0)
(-0.102932 0 0)
(-0.0953307 0 0)
(-0.0877242 0 0)
(-0.0801127 0 0)
(-0.0724966 0 0)
(-0.0648765 0 0)
(-0.0572526 0 0)
(-0.0496255 0 0)
(-0.0419956 0 0)
(-0.0343633 0 0)
(-0.026729 0 0)
(-0.0190932 0 0)
(-0.0114564 0 0)
(-0.00381886 0 0)
)
;

boundaryField
{
    left
    {
        type            fixedValue;
        value           uniform (0 0 0);
    }
    right
    {
        type            fixedValue;
        value           uniform (0 0 0);
    }
    frontBackUpDown
    {
        type            empty;
    }
}


// ************************************************************************* //
