/*--------------------------------*- C++ -*----------------------------------*\
| =========                 |                                                 |
| \\      /  F ield         | OpenFOAM: The Open Source CFD Toolbox           |
|  \\    /   O peration     | Version:  2412                                  |
|   \\  /    A nd           | Website:  www.openfoam.com                      |
|    \\/     M anipulation  |                                                 |
\*---------------------------------------------------------------------------*/
FoamFile
{
    version     2.0;
    format      ascii;
    arch        "LSB;label=32;scalar=64";
    class       volVectorField;
    location    "0.85";
    object      U_0_0;
}
// * * * * * * * * * * * * * * * * * * * * * * * * * * * * * * * * * * * * * //

dimensions      [0 1 -1 0 0 0 0];

internalField   nonuniform List<vector> 
800
(
(0.00107179 0 0)
(0.00321538 0 0)
(0.00535897 0 0)
(0.00750256 0 0)
(0.00964613 0 0)
(0.0117897 0 0)
(0.0139332 0 0)
(0.0160768 0 0)
(0.0182203 0 0)
(0.0203638 0 0)
(0.0225072 0 0)
(0.0246507 0 0)
(0.0267941 0 0)
(0.0289374 0 0)
(0.0310808 0 0)
(0.033224 0 0)
(0.0353673 0 0)
(0.0375105 0 0)
(0.0396536 0 0)
(0.0417967 0 0)
(0.0439398 0 0)
(0.0460828 0 0)
(0.0482257 0 0)
(0.0503686 0 0)
(0.0525114 0 0)
(0.0546541 0 0)
(0.0567968 0 0)
(0.0589394 0 0)
(0.0610819 0 0)
(0.0632243 0 0)
(0.0653667 0 0)
(0.067509 0 0)
(0.0696512 0 0)
(0.0717932 0 0)
(0.0739353 0 0)
(0.0760772 0 0)
(0.078219 0 0)
(0.0803607 0 0)
(0.0825023 0 0)
(0.0846438 0 0)
(0.0867852 0 0)
(0.0889265 0 0)
(0.0910676 0 0)
(0.0932087 0 0)
(0.0953496 0 0)
(0.0974904 0 0)
(0.0996311 0 0)
(0.101772 0 0)
(0.103912 0 0)
(0.106052 0 0)
(0.108192 0 0)
(0.110332 0 0)
(0.112472 0 0)
(0.114612 0 0)
(0.116752 0 0)
(0.118891 0 0)
(0.12103 0 0)
(0.123169 0 0)
(0.125308 0 0)
(0.127447 0 0)
(0.129586 0 0)
(0.131724 0 0)
(0.133862 0 0)
(0.136 0 0)
(0.138138 0 0)
(0.140276 0 0)
(0.142414 0 0)
(0.144551 0 0)
(0.146688 0 0)
(0.148825 0 0)
(0.150962 0 0)
(0.153099 0 0)
(0.155235 0 0)
(0.157371 0 0)
(0.159507 0 0)
(0.161643 0 0)
(0.163778 0 0)
(0.165914 0 0)
(0.168049 0 0)
(0.170184 0 0)
(0.172318 0 0)
(0.174453 0 0)
(0.176587 0 0)
(0.178721 0 0)
(0.180855 0 0)
(0.182988 0 0)
(0.185121 0 0)
(0.187254 0 0)
(0.189387 0 0)
(0.19152 0 0)
(0.193652 0 0)
(0.195784 0 0)
(0.197916 0 0)
(0.200047 0 0)
(0.202178 0 0)
(0.204309 0 0)
(0.20644 0 0)
(0.20857 0 0)
(0.2107 0 0)
(0.21283 0 0)
(0.21496 0 0)
(0.217089 0 0)
(0.219218 0 0)
(0.221347 0 0)
(0.223475 0 0)
(0.225603 0 0)
(0.227731 0 0)
(0.229858 0 0)
(0.231985 0 0)
(0.234112 0 0)
(0.236238 0 0)
(0.238365 0 0)
(0.24049 0 0)
(0.242616 0 0)
(0.244741 0 0)
(0.246866 0 0)
(0.24899 0 0)
(0.251115 0 0)
(0.253238 0 0)
(0.255362 0 0)
(0.257485 0 0)
(0.259608 0 0)
(0.26173 0 0)
(0.263852 0 0)
(0.265974 0 0)
(0.268095 0 0)
(0.270216 0 0)
(0.272337 0 0)
(0.274457 0 0)
(0.276577 0 0)
(0.278696 0 0)
(0.280815 0 0)
(0.282934 0 0)
(0.285052 0 0)
(0.28717 0 0)
(0.289287 0 0)
(0.291404 0 0)
(0.293521 0 0)
(0.295637 0 0)
(0.297753 0 0)
(0.299868 0 0)
(0.301983 0 0)
(0.304097 0 0)
(0.306211 0 0)
(0.308325 0 0)
(0.310438 0 0)
(0.312551 0 0)
(0.314663 0 0)
(0.316775 0 0)
(0.318886 0 0)
(0.320997 0 0)
(0.323108 0 0)
(0.325218 0 0)
(0.327327 0 0)
(0.329436 0 0)
(0.331545 0 0)
(0.333653 0 0)
(0.335761 0 0)
(0.337868 0 0)
(0.339975 0 0)
(0.342081 0 0)
(0.344186 0 0)
(0.346291 0 0)
(0.348396 0 0)
(0.3505 0 0)
(0.352604 0 0)
(0.354707 0 0)
(0.356809 0 0)
(0.358911 0 0)
(0.361013 0 0)
(0.363114 0 0)
(0.365214 0 0)
(0.367314 0 0)
(0.369413 0 0)
(0.371512 0 0)
(0.37361 0 0)
(0.375708 0 0)
(0.377805 0 0)
(0.379902 0 0)
(0.381997 0 0)
(0.384093 0 0)
(0.386188 0 0)
(0.388282 0 0)
(0.390375 0 0)
(0.392468 0 0)
(0.394561 0 0)
(0.396652 0 0)
(0.398744 0 0)
(0.400834 0 0)
(0.402924 0 0)
(0.405013 0 0)
(0.407102 0 0)
(0.40919 0 0)
(0.411278 0 0)
(0.413364 0 0)
(0.41545 0 0)
(0.417536 0 0)
(0.419621 0 0)
(0.421705 0 0)
(0.423788 0 0)
(0.425871 0 0)
(0.427953 0 0)
(0.430035 0 0)
(0.432116 0 0)
(0.434196 0 0)
(0.436275 0 0)
(0.438354 0 0)
(0.440432 0 0)
(0.442509 0 0)
(0.444586 0 0)
(0.446662 0 0)
(0.448737 0 0)
(0.450811 0 0)
(0.452885 0 0)
(0.454958 0 0)
(0.45703 0 0)
(0.459101 0 0)
(0.461172 0 0)
(0.463242 0 0)
(0.465311 0 0)
(0.467379 0 0)
(0.469447 0 0)
(0.471514 0 0)
(0.47358 0 0)
(0.475645 0 0)
(0.477709 0 0)
(0.479773 0 0)
(0.481836 0 0)
(0.483898 0 0)
(0.485959 0 0)
(0.488019 0 0)
(0.490079 0 0)
(0.492137 0 0)
(0.494195 0 0)
(0.496252 0 0)
(0.498308 0 0)
(0.500363 0 0)
(0.502418 0 0)
(0.504471 0 0)
(0.506524 0 0)
(0.508576 0 0)
(0.510627 0 0)
(0.512676 0 0)
(0.514725 0 0)
(0.516774 0 0)
(0.518821 0 0)
(0.520867 0 0)
(0.522912 0 0)
(0.524957 0 0)
(0.527 0 0)
(0.529043 0 0)
(0.531084 0 0)
(0.533125 0 0)
(0.535164 0 0)
(0.537203 0 0)
(0.539241 0 0)
(0.541277 0 0)
(0.543313 0 0)
(0.545348 0 0)
(0.547381 0 0)
(0.549414 0 0)
(0.551445 0 0)
(0.553476 0 0)
(0.555505 0 0)
(0.557534 0 0)
(0.559561 0 0)
(0.561588 0 0)
(0.563613 0 0)
(0.565637 0 0)
(0.56766 0 0)
(0.569682 0 0)
(0.571703 0 0)
(0.573723 0 0)
(0.575742 0 0)
(0.577759 0 0)
(0.579775 0 0)
(0.581791 0 0)
(0.583805 0 0)
(0.585818 0 0)
(0.58783 0 0)
(0.58984 0 0)
(0.59185 0 0)
(0.593858 0 0)
(0.595865 0 0)
(0.597871 0 0)
(0.599875 0 0)
(0.601879 0 0)
(0.603881 0 0)
(0.605882 0 0)
(0.607881 0 0)
(0.60988 0 0)
(0.611877 0 0)
(0.613873 0 0)
(0.615867 0 0)
(0.61786 0 0)
(0.619852 0 0)
(0.621843 0 0)
(0.623832 0 0)
(0.62582 0 0)
(0.627807 0 0)
(0.629792 0 0)
(0.631776 0 0)
(0.633758 0 0)
(0.63574 0 0)
(0.637719 0 0)
(0.639698 0 0)
(0.641674 0 0)
(0.64365 0 0)
(0.645624 0 0)
(0.647596 0 0)
(0.649568 0 0)
(0.651537 0 0)
(0.653505 0 0)
(0.655472 0 0)
(0.657437 0 0)
(0.659401 0 0)
(0.661363 0 0)
(0.663323 0 0)
(0.665282 0 0)
(0.66724 0 0)
(0.669196 0 0)
(0.67115 0 0)
(0.673103 0 0)
(0.675054 0 0)
(0.677003 0 0)
(0.678951 0 0)
(0.680897 0 0)
(0.682841 0 0)
(0.684784 0 0)
(0.686725 0 0)
(0.688665 0 0)
(0.690602 0 0)
(0.692538 0 0)
(0.694473 0 0)
(0.696405 0 0)
(0.698336 0 0)
(0.700265 0 0)
(0.702192 0 0)
(0.704117 0 0)
(0.70604 0 0)
(0.707962 0 0)
(0.709882 0 0)
(0.711799 0 0)
(0.713715 0 0)
(0.715629 0 0)
(0.717542 0 0)
(0.719452 0 0)
(0.72136 0 0)
(0.723266 0 0)
(0.725171 0 0)
(0.727073 0 0)
(0.728973 0 0)
(0.730871 0 0)
(0.732768 0 0)
(0.734662 0 0)
(0.736554 0 0)
(0.738444 0 0)
(0.740331 0 0)
(0.742217 0 0)
(0.7441 0 0)
(0.745982 0 0)
(0.747861 0 0)
(0.749738 0 0)
(0.751612 0 0)
(0.753485 0 0)
(0.755355 0 0)
(0.757223 0 0)
(0.759088 0 0)
(0.760951 0 0)
(0.762812 0 0)
(0.76467 0 0)
(0.766526 0 0)
(0.76838 0 0)
(0.770231 0 0)
(0.77208 0 0)
(0.773926 0 0)
(0.77577 0 0)
(0.777611 0 0)
(0.779449 0 0)
(0.781285 0 0)
(0.783119 0 0)
(0.784949 0 0)
(0.786777 0 0)
(0.788603 0 0)
(0.790425 0 0)
(0.792245 0 0)
(0.794062 0 0)
(0.795877 0 0)
(0.797688 0 0)
(0.799497 0 0)
(0.801303 0 0)
(0.803106 0 0)
(0.804906 0 0)
(0.806703 0 0)
(0.808497 0 0)
(0.810288 0 0)
(0.812074 0 0)
(0.813991 0 0)
(0.79287 0 0)
(0.419018 0 0)
(-0.417779 0 0)
(-0.792699 0 0)
(-0.813989 0 0)
(-0.812071 0 0)
(-0.810286 0 0)
(-0.808494 0 0)
(-0.8067 0 0)
(-0.804903 0 0)
(-0.803103 0 0)
(-0.8013 0 0)
(-0.799495 0 0)
(-0.797686 0 0)
(-0.795874 0 0)
(-0.79406 0 0)
(-0.792243 0 0)
(-0.790423 0 0)
(-0.7886 0 0)
(-0.786775 0 0)
(-0.784947 0 0)
(-0.783116 0 0)
(-0.781283 0 0)
(-0.779447 0 0)
(-0.777608 0 0)
(-0.775767 0 0)
(-0.773924 0 0)
(-0.772077 0 0)
(-0.770229 0 0)
(-0.768378 0 0)
(-0.766524 0 0)
(-0.764668 0 0)
(-0.76281 0 0)
(-0.760949 0 0)
(-0.759086 0 0)
(-0.75722 0 0)
(-0.755352 0 0)
(-0.753482 0 0)
(-0.75161 0 0)
(-0.749735 0 0)
(-0.747858 0 0)
(-0.745979 0 0)
(-0.744098 0 0)
(-0.742215 0 0)
(-0.740329 0 0)
(-0.738441 0 0)
(-0.736551 0 0)
(-0.734659 0 0)
(-0.732765 0 0)
(-0.730869 0 0)
(-0.728971 0 0)
(-0.727071 0 0)
(-0.725168 0 0)
(-0.723264 0 0)
(-0.721358 0 0)
(-0.71945 0 0)
(-0.717539 0 0)
(-0.715627 0 0)
(-0.713713 0 0)
(-0.711797 0 0)
(-0.709879 0 0)
(-0.70796 0 0)
(-0.706038 0 0)
(-0.704115 0 0)
(-0.702189 0 0)
(-0.700262 0 0)
(-0.698333 0 0)
(-0.696403 0 0)
(-0.69447 0 0)
(-0.692536 0 0)
(-0.6906 0 0)
(-0.688663 0 0)
(-0.686723 0 0)
(-0.684782 0 0)
(-0.682839 0 0)
(-0.680895 0 0)
(-0.678949 0 0)
(-0.677001 0 0)
(-0.675051 0 0)
(-0.6731 0 0)
(-0.671148 0 0)
(-0.669194 0 0)
(-0.667238 0 0)
(-0.66528 0 0)
(-0.663321 0 0)
(-0.661361 0 0)
(-0.659399 0 0)
(-0.657435 0 0)
(-0.65547 0 0)
(-0.653503 0 0)
(-0.651535 0 0)
(-0.649566 0 0)
(-0.647594 0 0)
(-0.645622 0 0)
(-0.643648 0 0)
(-0.641672 0 0)
(-0.639696 0 0)
(-0.637717 0 0)
(-0.635738 0 0)
(-0.633756 0 0)
(-0.631774 0 0)
(-0.62979 0 0)
(-0.627805 0 0)
(-0.625818 0 0)
(-0.62383 0 0)
(-0.621841 0 0)
(-0.61985 0 0)
(-0.617859 0 0)
(-0.615865 0 0)
(-0.613871 0 0)
(-0.611875 0 0)
(-0.609878 0 0)
(-0.60788 0 0)
(-0.60588 0 0)
(-0.603879 0 0)
(-0.601877 0 0)
(-0.599873 0 0)
(-0.597869 0 0)
(-0.595863 0 0)
(-0.593856 0 0)
(-0.591848 0 0)
(-0.589838 0 0)
(-0.587828 0 0)
(-0.585816 0 0)
(-0.583803 0 0)
(-0.581789 0 0)
(-0.579774 0 0)
(-0.577757 0 0)
(-0.57574 0 0)
(-0.573721 0 0)
(-0.571701 0 0)
(-0.56968 0 0)
(-0.567659 0 0)
(-0.565635 0 0)
(-0.563611 0 0)
(-0.561586 0 0)
(-0.55956 0 0)
(-0.557532 0 0)
(-0.555504 0 0)
(-0.553474 0 0)
(-0.551444 0 0)
(-0.549412 0 0)
(-0.54738 0 0)
(-0.545346 0 0)
(-0.543311 0 0)
(-0.541276 0 0)
(-0.539239 0 0)
(-0.537202 0 0)
(-0.535163 0 0)
(-0.533123 0 0)
(-0.531083 0 0)
(-0.529041 0 0)
(-0.526999 0 0)
(-0.524955 0 0)
(-0.522911 0 0)
(-0.520866 0 0)
(-0.518819 0 0)
(-0.516772 0 0)
(-0.514724 0 0)
(-0.512675 0 0)
(-0.510625 0 0)
(-0.508574 0 0)
(-0.506523 0 0)
(-0.50447 0 0)
(-0.502416 0 0)
(-0.500362 0 0)
(-0.498307 0 0)
(-0.496251 0 0)
(-0.494194 0 0)
(-0.492136 0 0)
(-0.490077 0 0)
(-0.488018 0 0)
(-0.485958 0 0)
(-0.483896 0 0)
(-0.481834 0 0)
(-0.479772 0 0)
(-0.477708 0 0)
(-0.475644 0 0)
(-0.473578 0 0)
(-0.471512 0 0)
(-0.469446 0 0)
(-0.467378 0 0)
(-0.46531 0 0)
(-0.463241 0 0)
(-0.461171 0 0)
(-0.4591 0 0)
(-0.457029 0 0)
(-0.454956 0 0)
(-0.452884 0 0)
(-0.45081 0 0)
(-0.448735 0 0)
(-0.44666 0 0)
(-0.444585 0 0)
(-0.442508 0 0)
(-0.440431 0 0)
(-0.438353 0 0)
(-0.436274 0 0)
(-0.434195 0 0)
(-0.432115 0 0)
(-0.430034 0 0)
(-0.427952 0 0)
(-0.42587 0 0)
(-0.423787 0 0)
(-0.421704 0 0)
(-0.41962 0 0)
(-0.417535 0 0)
(-0.415449 0 0)
(-0.413363 0 0)
(-0.411277 0 0)
(-0.409189 0 0)
(-0.407101 0 0)
(-0.405012 0 0)
(-0.402923 0 0)
(-0.400833 0 0)
(-0.398743 0 0)
(-0.396652 0 0)
(-0.39456 0 0)
(-0.392467 0 0)
(-0.390374 0 0)
(-0.388281 0 0)
(-0.386187 0 0)
(-0.384092 0 0)
(-0.381997 0 0)
(-0.379901 0 0)
(-0.377804 0 0)
(-0.375707 0 0)
(-0.37361 0 0)
(-0.371511 0 0)
(-0.369413 0 0)
(-0.367313 0 0)
(-0.365213 0 0)
(-0.363113 0 0)
(-0.361012 0 0)
(-0.358911 0 0)
(-0.356809 0 0)
(-0.354706 0 0)
(-0.352603 0 0)
(-0.350499 0 0)
(-0.348395 0 0)
(-0.346291 0 0)
(-0.344186 0 0)
(-0.34208 0 0)
(-0.339974 0 0)
(-0.337867 0 0)
(-0.33576 0 0)
(-0.333652 0 0)
(-0.331544 0 0)
(-0.329436 0 0)
(-0.327327 0 0)
(-0.325217 0 0)
(-0.323107 0 0)
(-0.320997 0 0)
(-0.318886 0 0)
(-0.316774 0 0)
(-0.314663 0 0)
(-0.31255 0 0)
(-0.310438 0 0)
(-0.308324 0 0)
(-0.306211 0 0)
(-0.304097 0 0)
(-0.301982 0 0)
(-0.299867 0 0)
(-0.297752 0 0)
(-0.295636 0 0)
(-0.29352 0 0)
(-0.291404 0 0)
(-0.289287 0 0)
(-0.287169 0 0)
(-0.285051 0 0)
(-0.282933 0 0)
(-0.280814 0 0)
(-0.278695 0 0)
(-0.276576 0 0)
(-0.274456 0 0)
(-0.272336 0 0)
(-0.270216 0 0)
(-0.268095 0 0)
(-0.265973 0 0)
(-0.263852 0 0)
(-0.26173 0 0)
(-0.259607 0 0)
(-0.257485 0 0)
(-0.255361 0 0)
(-0.253238 0 0)
(-0.251114 0 0)
(-0.24899 0 0)
(-0.246866 0 0)
(-0.244741 0 0)
(-0.242616 0 0)
(-0.24049 0 0)
(-0.238364 0 0)
(-0.236238 0 0)
(-0.234112 0 0)
(-0.231985 0 0)
(-0.229858 0 0)
(-0.22773 0 0)
(-0.225603 0 0)
(-0.223475 0 0)
(-0.221346 0 0)
(-0.219218 0 0)
(-0.217089 0 0)
(-0.214959 0 0)
(-0.21283 0 0)
(-0.2107 0 0)
(-0.20857 0 0)
(-0.20644 0 0)
(-0.204309 0 0)
(-0.202178 0 0)
(-0.200047 0 0)
(-0.197915 0 0)
(-0.195784 0 0)
(-0.193652 0 0)
(-0.191519 0 0)
(-0.189387 0 0)
(-0.187254 0 0)
(-0.185121 0 0)
(-0.182988 0 0)
(-0.180855 0 0)
(-0.178721 0 0)
(-0.176587 0 0)
(-0.174453 0 0)
(-0.172318 0 0)
(-0.170184 0 0)
(-0.168049 0 0)
(-0.165914 0 0)
(-0.163778 0 0)
(-0.161643 0 0)
(-0.159507 0 0)
(-0.157371 0 0)
(-0.155235 0 0)
(-0.153098 0 0)
(-0.150962 0 0)
(-0.148825 0 0)
(-0.146688 0 0)
(-0.144551 0 0)
(-0.142413 0 0)
(-0.140276 0 0)
(-0.138138 0 0)
(-0.136 0 0)
(-0.133862 0 0)
(-0.131724 0 0)
(-0.129586 0 0)
(-0.127447 0 0)
(-0.125308 0 0)
(-0.123169 0 0)
(-0.12103 0 0)
(-0.118891 0 0)
(-0.116751 0 0)
(-0.114612 0 0)
(-0.112472 0 0)
(-0.110332 0 0)
(-0.108192 0 0)
(-0.106052 0 0)
(-0.103912 0 0)
(-0.101772 0 0)
(-0.099631 0 0)
(-0.0974903 0 0)
(-0.0953495 0 0)
(-0.0932086 0 0)
(-0.0910676 0 0)
(-0.0889264 0 0)
(-0.0867851 0 0)
(-0.0846437 0 0)
(-0.0825022 0 0)
(-0.0803606 0 0)
(-0.0782189 0 0)
(-0.0760771 0 0)
(-0.0739352 0 0)
(-0.0717932 0 0)
(-0.0696511 0 0)
(-0.0675089 0 0)
(-0.0653667 0 0)
(-0.0632243 0 0)
(-0.0610819 0 0)
(-0.0589394 0 0)
(-0.0567968 0 0)
(-0.0546541 0 0)
(-0.0525114 0 0)
(-0.0503686 0 0)
(-0.0482257 0 0)
(-0.0460828 0 0)
(-0.0439398 0 0)
(-0.0417967 0 0)
(-0.0396536 0 0)
(-0.0375105 0 0)
(-0.0353673 0 0)
(-0.033224 0 0)
(-0.0310807 0 0)
(-0.0289374 0 0)
(-0.0267941 0 0)
(-0.0246507 0 0)
(-0.0225072 0 0)
(-0.0203638 0 0)
(-0.0182203 0 0)
(-0.0160768 0 0)
(-0.0139333 0 0)
(-0.0117897 0 0)
(-0.00964614 0 0)
(-0.00750257 0 0)
(-0.00535898 0 0)
(-0.00321539 0 0)
(-0.0010718 0 0)
)
;

boundaryField
{
    left
    {
        type            fixedValue;
        value           uniform (0 0 0);
    }
    right
    {
        type            fixedValue;
        value           uniform (0 0 0);
    }
    frontBackUpDown
    {
        type            empty;
    }
}


// ************************************************************************* //
