/*--------------------------------*- C++ -*----------------------------------*\
| =========                 |                                                 |
| \\      /  F ield         | OpenFOAM: The Open Source CFD Toolbox           |
|  \\    /   O peration     | Version:  2412                                  |
|   \\  /    A nd           | Website:  www.openfoam.com                      |
|    \\/     M anipulation  |                                                 |
\*---------------------------------------------------------------------------*/
FoamFile
{
    version     2.0;
    format      ascii;
    arch        "LSB;label=32;scalar=64";
    class       volScalarField;
    location    "0.18";
    object      epsilon;
}
// * * * * * * * * * * * * * * * * * * * * * * * * * * * * * * * * * * * * * //

dimensions      [0 2 -3 0 0 0 0];

internalField   nonuniform List<scalar> 
12225
(
448.248
622.893
830.553
1004.82
1150.39
1270.2
1368.59
1449.59
1516.32
1571.32
1616.68
1654.04
1684.71
1709.67
1729.71
1745.22
1756.54
1766.51
173.744
302.084
403.101
480.176
539.341
585.693
622.131
650.852
673.562
691.527
705.708
716.857
725.565
732.298
737.461
741.3
744.609
744.435
119.436
232.402
315.512
376.254
421.16
455.027
480.628
499.956
514.529
525.457
533.564
539.477
543.686
546.577
548.481
549.662
550.548
550.209
97.6415
199.979
277.776
334.832
376.772
407.859
430.863
447.788
460.144
469.043
475.312
479.574
482.313
483.909
484.681
484.905
484.918
484.516
83.6528
176.289
251.578
308.549
351.101
382.722
406.066
423.143
435.485
444.245
450.288
454.274
456.712
458.004
458.483
458.439
458.175
457.721
71.992
153.973
226.311
283.825
328.197
361.838
387.037
405.703
419.35
429.152
436.015
440.642
443.579
445.26
446.042
446.231
446.11
445.772
61.3444
131.282
198.626
255.579
301.541
337.588
365.353
386.463
402.312
414.038
422.556
428.593
432.728
435.427
437.069
437.975
438.413
438.485
51.6699
108.731
168.488
222.632
268.755
306.562
336.804
360.616
379.13
393.355
404.149
412.224
418.167
422.458
425.493
427.6
429.035
429.889
43.2228
87.646
137.687
186.326
230.3
268.244
299.987
326.023
347.081
363.925
377.272
387.758
395.931
402.257
407.127
410.864
413.709
415.731
36.17
69.2418
108.633
149.502
188.756
224.545
256.002
282.984
305.745
324.712
340.376
353.226
363.716
372.254
379.193
384.831
389.386
392.886
30.4986
54.1389
83.3291
115.315
147.816
179.115
208.069
234.098
257.033
276.952
294.073
308.686
321.097
331.612
340.51
348.034
354.361
359.466
26.3767
43.1977
64.2836
88.2401
113.649
139.257
164.043
187.307
208.657
227.926
245.11
260.301
273.651
285.341
295.556
304.464
312.181
318.613
23.1426
34.7469
49.3138
66.2698
84.8769
104.389
124.083
143.353
161.761
179.023
194.983
209.585
222.842
234.813
245.581
255.233
263.818
271.178
20.3784
27.6947
36.7526
47.4283
59.4471
72.486
86.1768
100.147
114.066
127.671
140.765
153.212
164.93
175.879
186.051
195.449
204.055
211.664
18.1501
22.2409
27.1493
32.9147
39.4908
46.7976
54.7197
63.1099
71.8108
80.6719
89.5578
98.3528
106.963
115.315
123.356
131.04
138.312
144.968
16.4707
18.3569
20.5276
23.0289
25.8751
29.07
32.6056
36.4574
40.5874
44.9499
49.4955
54.174
58.9363
63.7366
68.5329
73.2856
77.9462
82.3816
15.3282
15.8731
16.496
17.2135
18.0332
18.9615
20.0045
21.1654
22.4438
23.8359
25.3358
26.9348
28.6225
30.385
32.2084
34.0788
35.9785
37.8654
14.7508
14.6758
14.6369
14.6353
14.6698
14.7397
14.845
14.9862
15.1632
15.3761
15.6245
15.908
16.2255
16.5776
16.9633
17.3806
17.8268
18.2976
14.8977
14.9732
15.0872
15.2433
15.4416
15.682
15.9646
16.2895
16.6558
17.0618
17.5055
17.9843
18.495
19.0345
19.5991
20.1852
20.7881
21.3942
15.9707
17.2604
18.7263
20.3951
22.2732
24.3599
26.6484
29.1229
31.7596
34.5297
37.4022
40.3456
43.3291
46.3241
49.3046
52.2477
55.1287
57.8876
18.0495
21.9967
26.6898
32.1477
38.3079
45.0744
52.3234
59.9088
67.6796
75.4955
83.2347
90.7965
98.1015
105.091
111.725
117.977
123.828
129.234
21.563
30.6526
41.9205
55.0365
69.4953
84.7786
100.376
115.828
130.768
144.939
158.174
170.381
181.527
191.622
200.704
208.829
216.057
222.435
27.2184
45.3001
67.7859
92.9365
119.103
144.997
169.639
192.386
212.913
231.126
247.074
260.893
272.765
282.89
291.47
298.696
304.741
309.765
35.7144
67.6761
105.678
144.95
182.514
216.739
246.814
272.566
294.221
312.179
326.901
338.844
348.431
356.04
361.997
366.582
370.034
372.579
47.4077
97.6107
152.028
202.688
246.851
283.884
314.068
338.194
357.198
371.968
383.28
391.795
398.058
402.516
405.531
407.396
408.355
408.643
61.8879
131.751
198.704
254.804
299.833
335.067
362.108
382.556
397.796
408.957
416.935
422.434
426.006
428.085
429.006
429.035
428.386
427.273
78.4669
165.761
239.652
296.703
339.786
371.974
395.785
413.192
425.727
434.561
440.579
444.449
446.68
447.661
447.688
446.994
445.759
444.171
99.5997
200.964
279.478
337.82
380.456
411.806
434.889
451.765
463.981
472.692
478.746
482.775
485.253
486.542
486.92
486.601
485.752
484.545
144.791
258.315
348.614
417.598
468.466
506.749
535.874
558.052
574.955
587.829
597.587
604.913
610.329
614.241
616.966
618.754
619.797
620.297
366.941
498.483
666.585
808.031
923.451
1016.69
1091.72
1152.38
1201.67
1241.84
1274.69
1301.63
1323.8
1342.08
1357.17
1369.66
1379.97
1388.54
1.00732
0.950778
1.37637
1.74068
2.0365
2.29027
2.59999
2.93664
3.29891
3.6957
4.14517
4.69767
5.42607
6.27432
7.23808
8.31926
9.52618
10.8685
12.3548
13.9917
15.7838
17.7334
19.8416
22.1083
24.5334
27.1175
29.8626
32.7738
35.8603
39.1376
42.6256
46.2699
50.0624
53.9985
58.0742
62.2858
66.6296
71.1024
75.7009
80.4223
85.2634
90.2217
95.2941
100.478
105.77
111.168
116.667
122.265
127.958
133.742
139.612
145.564
151.594
157.696
163.865
170.095
176.381
182.716
189.094
195.508
201.952
208.419
214.901
221.391
227.882
234.367
240.838
247.288
253.71
260.098
266.448
272.759
279.034
285.286
291.544
297.743
303.84
309.836
315.731
321.518
327.192
332.746
338.172
343.464
348.615
353.618
358.468
363.157
367.681
372.033
376.209
380.202
384.009
387.624
391.043
394.263
397.279
400.089
402.688
405.075
407.246
409.199
410.932
412.444
413.733
414.797
415.636
416.249
416.636
416.796
416.731
416.44
415.925
415.187
414.227
413.046
411.648
410.035
408.209
406.173
403.932
401.488
398.846
396.011
392.986
389.777
386.39
382.829
379.102
375.213
371.17
366.979
362.646
358.179
353.586
348.873
344.05
339.123
334.099
328.996
323.801
318.568
313.343
308.582
305.581
302.899
300.172
297.377
294.513
291.585
288.599
285.558
282.469
279.336
276.165
272.961
269.729
266.475
263.202
259.917
256.625
253.329
250.034
246.745
243.464
240.196
236.944
233.708
230.49
227.289
224.102
220.922
217.736
214.524
211.247
207.832
204.118
199.701
193.909
186.047
3.06111
1.67823
1.49601
1.56192
1.73861
2.00111
2.34405
2.75117
3.22292
3.76224
4.37321
5.06118
5.8287
6.66888
7.5763
8.54677
9.57676
10.6628
11.8012
12.9885
14.2214
15.4972
16.8141
18.1709
19.5675
21.0045
22.4831
24.0049
25.5716
27.1841
28.8418
30.5411
32.2813
34.062
35.8833
37.7448
39.6464
41.5877
43.5682
45.5874
47.6447
49.7394
51.8706
54.0375
56.239
58.4741
60.7416
63.0401
65.3685
67.7251
70.1084
72.5169
74.9487
77.4022
79.8754
82.3665
84.8732
87.3937
89.9257
92.4671
95.0155
97.5687
100.124
102.68
105.233
107.782
110.324
112.856
115.378
117.888
120.385
122.871
125.35
127.826
130.322
132.815
135.276
137.702
140.091
142.439
144.744
147.003
149.215
151.376
153.483
155.535
157.528
159.461
161.331
163.136
164.874
166.543
168.141
169.666
171.116
172.49
173.786
175.003
176.139
177.194
178.165
179.053
179.855
180.571
181.201
181.743
182.198
182.564
182.841
183.03
183.129
183.14
183.061
182.894
182.638
182.294
181.863
181.345
180.741
180.052
179.279
178.423
177.486
176.469
175.373
174.2
172.953
171.632
170.24
168.78
167.252
165.66
164.006
162.292
160.522
158.697
156.821
154.896
152.924
150.914
148.847
146.774
144.712
142.756
141.099
139.537
137.978
136.402
134.806
133.188
131.552
129.898
128.229
126.547
124.854
123.152
121.444
119.731
118.016
116.3
114.587
112.877
111.173
109.476
107.788
106.111
104.446
102.793
101.156
99.5325
97.9245
96.3314
94.7522
93.1852
91.6273
90.075
88.52
86.9742
85.6372
85.6791
5.41631
2.6204
2.22561
2.25558
2.44789
2.73596
3.11042
3.56662
4.1006
4.70702
5.37923
6.10994
6.89157
7.71652
8.57857
9.47316
10.3971
11.3484
12.3258
13.3289
14.3578
15.4131
16.496
17.6075
18.749
19.9217
21.1266
22.3642
23.635
24.9386
26.2745
27.6418
29.0399
30.4682
31.9264
33.4138
34.9299
36.4741
38.0458
39.6446
41.2697
42.9205
44.5965
46.2969
48.0211
49.7684
51.538
53.329
55.1406
56.972
58.822
60.6898
62.5742
64.474
66.3881
68.3152
70.2539
72.203
74.161
76.1264
78.0978
80.0736
82.0524
84.0326
86.0128
87.9916
89.9677
91.94
93.9078
95.8706
97.8284
99.7816
101.731
103.679
105.623
107.552
109.459
111.338
113.189
115.009
116.795
118.546
120.259
121.932
123.564
125.153
126.696
128.192
129.639
131.035
132.379
133.669
134.903
136.081
137.2
138.26
139.26
140.197
141.072
141.883
142.63
143.311
143.926
144.474
144.955
145.367
145.712
145.988
146.195
146.333
146.402
146.402
146.333
146.195
145.988
145.713
145.37
144.96
144.484
143.941
143.334
142.662
141.927
141.129
140.271
139.354
138.377
137.345
136.256
135.114
133.92
132.676
131.383
130.044
128.66
127.232
125.765
124.258
122.712
121.143
119.545
117.933
116.323
114.752
113.27
111.829
110.397
108.958
107.509
106.048
104.577
103.097
101.609
100.115
98.6168
97.1156
95.6133
94.1116
92.612
91.1161
89.6255
88.1416
86.6659
85.1996
83.7442
82.3008
80.8706
79.4546
78.0539
76.6693
75.3018
73.9522
72.6214
71.3109
70.0235
68.7655
67.5495
66.42
65.5006
65.379
7.82625
3.69232
3.10603
3.07878
3.24779
3.5372
3.92239
4.39192
4.93701
5.54831
6.21568
6.9291
7.67965
8.46025
9.26601
10.0941
10.9434
11.814
12.7066
13.6228
14.5639
15.5314
16.527
17.5516
18.6063
19.6917
20.808
21.9552
23.133
24.3409
25.5783
26.8445
28.139
29.4612
30.8106
32.1867
33.589
35.017
36.4705
37.9488
39.4518
40.9788
42.5296
44.1036
45.7005
47.3197
48.9606
50.6228
52.3055
54.008
55.7296
57.4695
59.2267
61.0003
62.7893
64.5925
66.4088
68.237
70.0759
71.924
73.78
75.6425
77.5102
79.3816
81.2554
83.1303
85.0049
86.8781
88.749
90.6166
92.4801
94.3389
96.1922
98.039
99.8734
101.69
103.484
105.253
106.994
108.705
110.384
112.028
113.637
115.207
116.736
118.224
119.668
121.066
122.416
123.718
124.968
126.167
127.313
128.403
129.438
130.415
131.334
132.193
132.993
133.731
134.407
135.021
135.571
136.058
136.48
136.838
137.131
137.359
137.521
137.618
137.649
137.615
137.516
137.352
137.123
136.83
136.473
136.053
135.571
135.027
134.422
133.757
133.033
132.251
131.413
130.519
129.571
128.57
127.518
126.417
125.267
124.071
122.83
121.546
120.223
118.856
117.457
116.026
114.564
113.077
111.567
110.042
108.512
106.997
105.513
104.048
102.588
101.125
99.6566
98.181
96.6991
95.2121
93.7213
92.2281
90.7341
89.2408
87.7497
86.2623
84.7801
83.3045
81.8368
80.3785
78.9308
77.495
76.0721
74.6634
73.2699
71.8927
70.5329
69.1914
67.8695
66.5684
65.29
64.037
62.8143
61.6311
60.5053
59.4808
58.6466
58.2717
9.96361
4.77029
3.96997
3.86028
3.99504
4.26702
4.63914
5.09368
5.61847
6.2027
6.83601
7.50901
8.21399
8.94536
9.69973
10.4756
11.2731
12.093
12.9368
13.8062
14.7027
15.6277
16.5825
17.5677
18.5841
19.6317
20.7107
21.8208
22.9617
24.1331
25.3343
26.5651
27.8249
29.1133
30.43
31.7748
33.1472
34.547
35.9741
37.428
38.9087
40.4158
41.949
43.5082
45.0929
46.7028
48.3375
49.9964
51.6789
53.3846
55.1126
56.8621
58.6323
60.4222
62.2307
64.0568
65.8991
67.7565
69.6276
71.5108
73.4049
75.3081
77.2191
79.1361
81.0577
82.9821
84.908
86.8337
88.7578
90.6788
92.5952
94.5055
96.4083
98.2996
100.175
102.029
103.86
105.664
107.439
109.183
110.892
112.565
114.201
115.795
117.347
118.855
120.317
121.73
123.093
124.405
125.663
126.867
128.015
129.105
130.136
131.108
132.019
132.868
133.654
134.376
135.034
135.627
136.155
136.616
137.011
137.34
137.601
137.795
137.923
137.983
137.976
137.902
137.762
137.555
137.283
136.945
136.543
136.076
135.547
134.955
134.302
133.588
132.816
131.985
131.097
130.155
129.158
128.108
127.008
125.859
124.662
123.42
122.133
120.803
119.437
118.035
116.599
115.133
113.638
112.118
110.576
109.018
107.452
105.887
104.332
102.785
101.24
99.6934
98.1426
96.5877
95.0296
93.4691
91.9077
90.3469
88.7881
87.2328
85.6826
84.1389
82.6031
81.0767
79.5609
78.0571
76.5666
75.0904
73.6298
72.1858
70.7597
69.3524
67.965
66.5988
65.2551
63.9356
62.6425
61.3794
60.1522
58.9712
57.8548
56.8411
55.9919
55.4329
12.2897
5.78963
4.73692
4.5383
4.62862
4.87037
5.21506
5.63982
6.13039
6.67572
7.26639
7.89448
8.55384
9.24027
9.95141
10.6865
11.4458
12.2304
13.0417
13.8811
14.7499
15.6493
16.5802
17.5432
18.5387
19.567
20.6281
21.722
22.8485
24.0075
25.1988
26.4221
27.6772
28.9641
30.2826
31.6326
33.0139
34.4266
35.8705
37.3457
38.8518
40.389
41.957
43.5556
45.1846
46.8436
48.5324
50.2503
51.997
53.7716
55.5736
57.4019
59.2557
61.1339
63.0354
64.9587
66.9026
68.8656
70.846
72.8423
74.8527
76.8754
78.9086
80.9503
82.9985
85.0514
87.1069
89.163
91.2177
93.269
95.3147
97.3529
99.3811
101.394
103.387
105.357
107.3
109.214
111.096
112.943
114.752
116.522
118.25
119.933
121.57
123.158
124.695
126.179
127.609
128.982
130.296
131.551
132.745
133.877
134.944
135.947
136.883
137.753
138.554
139.287
139.95
140.543
141.066
141.518
141.899
142.208
142.446
142.612
142.706
142.729
142.681
142.562
142.372
142.113
141.784
141.386
140.921
140.388
139.788
139.124
138.396
137.604
136.751
135.838
134.866
133.837
132.752
131.613
130.423
129.182
127.89
126.556
125.178
123.759
122.302
120.809
119.283
117.727
116.142
114.532
112.9
111.252
109.592
107.927
106.263
104.6
102.937
101.272
99.6044
97.9353
96.2651
94.5951
92.9267
91.2615
89.601
87.9467
86.3003
84.6631
83.0366
81.4223
79.8215
78.2355
76.6655
75.1127
73.5784
72.0636
70.5694
69.097
67.6477
66.2226
64.8233
63.4518
62.1107
60.804
59.5381
58.3235
57.1775
56.1312
55.2266
54.525
15.4668
6.8341
5.41485
5.09533
5.12682
5.32917
5.63953
6.02938
6.48251
6.98783
7.53687
8.12308
8.74159
9.38921
10.0642
10.766
11.495
12.2521
13.0384
13.855
14.7031
15.5837
16.4977
17.4456
18.4281
19.4454
20.4979
21.5858
22.7093
23.8685
25.0635
26.2944
27.5613
28.8645
30.204
31.58
32.9927
34.4421
35.9284
37.4517
39.012
40.6094
42.2439
43.9152
45.6234
47.368
49.1486
50.965
52.8163
54.702
56.6211
58.5727
60.5557
62.5688
64.6106
66.6797
68.7743
70.8927
73.0331
75.1933
77.3715
79.5652
81.7723
83.9905
86.2173
88.4503
90.687
92.9249
95.1614
97.3939
99.6199
101.837
104.04
106.224
108.385
110.519
112.623
114.693
116.728
118.723
120.676
122.584
124.445
126.256
128.015
129.719
131.366
132.954
134.481
135.945
137.345
138.678
139.943
141.138
142.263
143.316
144.297
145.203
146.034
146.79
147.47
148.073
148.599
149.047
149.418
149.711
149.926
150.064
150.124
150.106
150.012
149.841
149.594
149.271
148.875
148.404
147.861
147.246
146.56
145.805
144.982
144.093
143.138
142.119
141.039
139.899
138.699
137.443
136.135
134.775
133.366
131.911
130.411
128.87
127.29
125.673
124.023
122.341
120.632
118.897
117.14
115.365
113.577
111.781
109.981
108.178
106.374
104.568
102.762
100.955
99.1489
97.3456
95.5465
93.753
91.967
90.1899
88.4235
86.6692
84.9285
83.203
81.4939
79.8026
78.1304
76.4785
74.8482
73.2404
71.6566
70.0977
68.5652
67.0604
65.585
64.1412
62.7319
61.3613
60.036
58.7661
57.567
56.4637
55.4836
54.6585
18.3979
7.73925
5.95942
5.51565
5.48443
5.6446
5.91937
6.27473
6.69248
7.16128
7.67333
8.22298
8.80631
9.42075
10.065
10.7386
11.4418
12.1753
12.9402
13.7375
14.5682
15.4332
16.3337
17.2703
18.2438
19.2548
20.3041
21.3922
22.5195
23.6867
24.8942
26.1425
27.4321
28.7635
30.1371
31.5533
33.0127
34.5155
36.0622
37.6529
39.288
40.9676
42.6918
44.4605
46.2736
48.1309
50.0319
51.9761
53.9629
55.9914
58.0606
60.1693
62.3162
64.4999
66.7185
68.9704
71.2534
73.5655
75.9044
78.2676
80.6525
83.0567
85.4772
87.9113
90.356
92.8084
95.2654
97.7238
100.181
102.633
105.077
107.51
109.925
112.316
114.68
117.013
119.312
121.572
123.79
125.964
128.09
130.165
132.186
134.151
136.056
137.9
139.679
141.391
143.035
144.608
146.108
147.535
148.885
150.158
151.352
152.466
153.499
154.45
155.318
156.103
156.803
157.419
157.949
158.395
158.755
159.03
159.22
159.325
159.345
159.28
159.132
158.901
158.587
158.192
157.716
157.161
156.528
155.817
155.029
154.168
153.235
152.23
151.155
150.011
148.804
147.534
146.203
144.813
143.367
141.868
140.318
138.72
137.076
135.388
133.661
131.896
130.097
128.266
126.407
124.522
122.616
120.69
118.751
116.801
114.844
112.884
110.922
108.958
106.995
105.033
103.075
101.121
99.1741
97.2354
95.3069
93.3902
91.487
89.5991
87.7278
85.8747
84.0413
82.229
80.4389
78.6724
76.9308
75.2152
73.5269
71.867
70.2371
68.6385
67.0732
65.5434
64.0522
62.6041
61.2053
59.8653
58.5975
57.4214
56.3545
55.4141
20.9421
8.47368
6.36411
5.80327
5.71116
5.83015
6.07097
6.39459
6.78084
7.21789
7.69819
8.21666
8.76991
9.35583
9.97335
10.6221
11.3025
12.015
12.7607
13.5405
14.3557
15.2073
16.0965
17.0244
17.992
19.0004
20.0506
21.1436
22.2804
23.4619
24.6891
25.9628
27.2841
28.6536
30.0723
31.5409
33.0601
34.6307
36.2532
37.928
39.6557
41.4365
43.2707
45.1581
47.0988
49.0924
51.1385
53.2365
55.3855
57.5846
59.8325
62.1278
64.4688
66.8538
69.2806
71.747
74.2506
76.7888
79.3588
81.9576
84.5823
87.2295
89.896
92.5784
95.2732
97.9769
100.686
103.396
106.104
108.806
111.498
114.176
116.83
119.456
122.05
124.607
127.124
129.597
132.021
134.394
136.713
138.973
141.171
143.306
145.372
147.369
149.293
151.141
152.912
154.604
156.214
157.74
159.182
160.537
161.805
162.983
164.072
165.069
165.974
166.787
167.506
168.132
168.665
169.103
169.448
169.7
169.858
169.923
169.895
169.776
169.565
169.264
168.873
168.393
167.827
167.174
166.438
165.617
164.714
163.732
162.673
161.538
160.33
159.049
157.7
156.285
154.805
153.264
151.664
150.008
148.298
146.539
144.731
142.88
140.987
139.055
137.089
135.09
133.062
131.009
128.933
126.839
124.73
122.61
120.482
118.35
116.216
114.081
111.948
109.819
107.695
105.578
103.471
101.374
99.2909
97.2223
95.1703
93.1366
91.1229
89.1307
87.1615
85.2166
83.2976
81.4056
79.5419
77.7078
75.9046
74.1336
72.3961
70.6939
69.0289
67.4034
65.8208
64.2852
62.8028
61.3822
60.0346
58.7752
57.6147
56.5629
23.0335
9.03569
6.63918
5.97347
5.82516
5.90569
6.11523
6.41034
6.769
7.17874
7.63194
8.12378
8.6512
9.21236
9.8064
10.4331
11.0929
11.7865
12.5148
13.2791
14.0808
14.9211
15.8016
16.7237
17.6889
18.6986
19.7545
20.8578
22.0102
23.213
24.4677
25.7756
27.1381
28.5564
30.0319
31.5656
33.1586
34.8119
36.5263
38.3026
40.1414
42.043
44.0077
46.0356
48.1266
50.2804
52.4963
54.7736
57.1112
59.508
61.9622
64.4722
67.036
69.6512
72.3154
75.0258
77.7794
80.573
83.4033
86.2668
89.1597
92.0783
95.0186
97.9767
100.948
103.93
106.916
109.903
112.887
115.863
118.828
121.77
124.683
127.562
130.403
133.2
135.951
138.65
141.294
143.879
146.4
148.855
151.24
153.551
155.786
157.941
160.014
162.002
163.903
165.715
167.435
169.062
170.595
172.031
173.369
174.609
175.749
176.788
177.725
178.56
179.293
179.922
180.449
180.873
181.194
181.413
181.53
181.545
181.46
181.274
180.989
180.607
180.126
179.55
178.88
178.118
177.265
176.323
175.293
174.178
172.981
171.703
170.347
168.915
167.41
165.834
164.192
162.484
160.715
158.887
157.003
155.067
153.082
151.051
148.977
146.864
144.715
142.534
140.323
138.087
135.828
133.551
131.259
128.956
126.645
124.33
122.014
119.699
117.387
115.08
112.781
110.492
108.214
105.951
103.704
101.474
99.2649
97.077
94.9124
92.7728
90.6596
88.5744
86.5186
84.4934
82.5002
80.5402
78.6149
76.7256
74.8737
73.0609
71.2893
69.5614
67.8803
66.2502
64.6769
63.168
61.7329
60.383
59.1245
57.9639
24.6421
9.43437
6.80123
6.04588
5.84763
5.8932
6.07427
6.34382
6.67818
7.06421
7.49409
7.96303
8.46814
9.00781
9.58133
10.1887
10.8304
11.5075
12.2211
12.9726
13.7638
14.5964
15.4721
16.3931
17.3611
18.3782
19.4465
20.5679
21.7444
22.978
24.2708
25.6245
27.0409
28.522
30.0692
31.6842
33.3683
35.1228
36.9489
38.8474
40.819
42.8644
44.9837
47.177
49.4441
51.7844
54.1973
56.6817
59.2362
61.8591
64.5485
67.3021
70.1175
72.9918
75.9219
78.9045
81.9358
85.0122
88.1294
91.2833
94.4696
97.6837
100.921
104.177
107.447
110.726
114.01
117.293
120.57
123.837
127.087
130.306
133.489
136.632
139.728
142.774
145.765
148.696
151.562
154.361
157.087
159.737
162.308
164.795
167.195
169.506
171.724
173.846
175.872
177.797
179.621
181.341
182.956
184.465
185.866
187.157
188.339
189.41
190.369
191.215
191.949
192.571
193.08
193.478
193.763
193.937
194
193.953
193.796
193.532
193.16
192.683
192.101
191.416
190.63
189.746
188.764
187.687
186.517
185.257
183.909
182.475
180.958
179.361
177.687
175.939
174.121
172.234
170.282
168.27
166.2
164.075
161.899
159.677
157.41
155.104
152.761
150.385
147.981
145.55
143.098
140.628
138.143
135.648
133.146
130.641
128.135
125.631
123.133
120.642
118.162
115.694
113.241
110.804
108.387
105.991
103.619
101.271
98.9503
96.658
94.3958
92.1651
89.9674
87.8042
85.6767
83.5862
81.5342
79.522
77.5511
75.6233
73.7407
71.9057
70.1215
68.3922
66.723
65.1204
63.5923
62.1475
60.7887
59.5211
25.7604
9.68302
6.86818
6.0404
5.79954
5.81412
5.96953
6.2161
6.5289
6.89418
7.3039
7.75324
8.23941
8.76094
9.31735
9.90886
10.5362
11.2007
11.9039
12.6475
13.4337
14.2646
15.1427
16.0703
17.0501
18.0845
19.1763
20.3279
21.5421
22.8213
24.1681
25.5848
27.074
28.6377
30.278
31.9968
33.7959
35.6768
37.6408
39.6889
41.8219
44.0402
46.3442
48.7335
51.208
53.7666
56.4083
59.1316
61.9347
64.8153
67.7711
70.799
73.896
77.0585
80.2827
83.5647
86.8999
90.2838
93.7114
97.1778
100.678
104.207
107.759
111.329
114.912
118.502
122.095
125.684
129.265
132.832
136.368
139.866
143.32
146.724
150.074
153.365
156.59
159.746
162.829
165.833
168.754
171.59
174.335
176.987
179.54
181.993
184.342
186.585
188.72
190.745
192.657
194.455
196.137
197.702
199.149
200.477
201.685
202.772
203.735
204.577
205.297
205.894
206.37
206.725
206.958
207.072
207.066
206.941
206.7
206.342
205.869
205.283
204.586
203.779
202.864
201.844
200.721
199.496
198.173
196.754
195.242
193.64
191.951
190.177
188.323
186.391
184.384
182.307
180.163
177.956
175.688
173.365
170.99
168.566
166.098
163.59
161.044
158.466
155.859
153.227
150.574
147.904
145.22
142.527
139.828
137.127
134.427
131.731
129.043
126.364
123.699
121.049
118.416
115.804
113.214
110.649
108.11
105.6
103.12
100.673
98.2591
95.8806
93.5389
91.2352
88.9711
86.7479
84.5669
82.4296
80.3375
78.2924
76.2964
74.3519
72.462
70.6305
68.8621
67.1627
65.5385
63.9961
62.5363
61.1638
26.3932
9.79581
6.85698
5.9753
5.70003
5.68808
5.82091
6.04713
6.34103
6.68849
7.08132
7.51473
7.98602
8.49394
9.03822
9.6194
10.2386
10.8975
11.598
12.3425
13.1336
13.974
14.8667
15.8149
16.8217
17.8904
19.0242
20.2263
21.5
22.8483
24.2745
25.7813
27.3717
29.0483
30.8135
32.6694
34.618
36.661
38.7997
41.035
43.3677
45.7979
48.3257
50.9504
53.6713
56.4869
59.3956
62.3953
65.4834
68.657
71.9129
75.2473
78.6563
82.1356
85.6807
89.2867
92.9485
96.6606
100.417
104.211
108.038
111.893
115.768
119.659
123.56
127.465
131.368
135.264
139.146
143.002
146.815
150.58
154.291
157.944
161.531
165.048
168.49
171.852
175.129
178.317
181.411
184.409
187.308
190.101
192.783
195.354
197.81
200.149
202.369
204.468
206.444
208.296
210.021
211.618
213.088
214.428
215.638
216.717
217.665
218.481
219.166
219.719
220.142
220.435
220.599
220.634
220.541
220.322
219.978
219.511
218.921
218.211
217.383
216.439
215.381
214.211
212.932
211.547
210.058
208.469
206.781
204.999
203.126
201.165
199.12
196.994
194.791
192.515
190.17
187.759
185.287
182.758
180.176
177.544
174.868
172.152
169.399
166.613
163.799
160.961
158.103
155.229
152.343
149.449
146.55
143.652
140.756
137.867
134.987
132.121
129.27
126.437
123.625
120.836
118.074
115.339
112.634
109.962
107.324
104.721
102.156
99.6297
97.1439
94.7001
92.2995
89.9436
87.6337
85.3712
83.1578
80.9952
78.8854
76.8308
74.8344
72.8997
71.0311
69.2333
67.5116
65.871
64.3107
62.8358
26.5501
9.786
6.78253
5.86654
5.56597
5.5328
5.64686
5.85612
6.13464
6.46824
6.84882
7.27173
7.73451
8.23618
8.77685
9.35745
9.97959
10.6454
11.3575
12.1189
12.9327
13.8025
14.732
15.7249
16.7854
17.9173
19.1246
20.411
21.7804
23.2363
24.7824
26.4221
28.1585
29.9945
31.9327
33.9752
36.1241
38.3808
40.7463
43.2212
45.8059
48.5
51.3027
54.2129
57.2289
60.3486
63.5694
66.8882
70.3015
73.8056
77.396
81.0683
84.8175
88.6384
92.5256
96.4736
100.477
104.53
108.623
112.75
116.905
121.083
125.277
129.482
133.69
137.897
142.096
146.283
150.444
154.559
158.62
162.623
166.561
170.428
174.219
177.928
181.551
185.082
188.517
191.851
195.081
198.203
201.213
204.107
206.882
209.534
212.061
214.461
216.732
218.872
220.879
222.751
224.487
226.087
227.548
228.871
230.055
231.099
232.003
232.767
233.392
233.877
234.223
234.432
234.503
234.438
234.238
233.905
233.439
232.844
232.119
231.269
230.294
229.197
227.98
226.647
225.2
223.641
221.974
220.202
218.328
216.356
214.29
212.133
209.888
207.56
205.154
202.672
200.119
197.499
194.818
192.078
189.285
186.443
183.556
180.628
177.665
174.67
171.648
168.603
165.54
162.462
159.373
156.279
153.182
150.087
146.997
143.916
140.848
137.795
134.761
131.748
128.76
125.798
122.865
119.964
117.096
114.265
111.47
108.716
106.002
103.331
100.704
98.1222
95.5878
93.1016
90.665
88.2796
85.9468
83.6684
81.4464
79.2831
77.1813
75.1443
73.1758
71.2802
69.4614
67.7235
66.0648
64.4907
26.2448
9.66554
6.65766
5.72794
5.41243
5.3648
5.4656
5.6633
5.93235
6.25897
6.63544
7.05758
7.5234
8.03242
8.58522
9.18334
9.82906
10.5252
11.2752
12.0828
12.9519
13.887
14.8925
15.9732
17.1337
18.3789
19.7139
21.1425
22.6679
24.2946
26.0266
27.8673
29.82
31.8873
34.0716
36.3746
38.7978
41.3418
44.0071
46.7932
49.6995
52.7247
55.8669
59.1237
62.4924
65.9695
69.5513
73.2335
77.0116
80.8804
84.8347
88.8688
92.9768
97.1525
101.39
105.682
110.023
114.405
118.821
123.264
127.728
132.207
136.693
141.181
145.666
150.141
154.6
159.035
163.418
167.742
172
176.187
180.298
184.325
188.264
192.11
195.858
199.503
203.041
206.467
209.779
212.971
216.042
218.986
221.802
224.486
227.036
229.449
231.725
233.86
235.854
237.705
239.412
240.973
242.389
243.658
244.78
245.755
246.583
247.263
247.797
248.184
248.426
248.523
248.476
248.287
247.957
247.487
246.879
246.136
245.258
244.249
243.11
241.845
240.455
238.944
237.315
235.57
233.714
231.75
229.681
227.51
225.243
222.882
220.432
217.898
215.282
212.591
209.827
206.996
204.103
201.152
198.147
195.093
191.995
188.858
185.686
182.484
179.256
176.007
172.74
169.462
166.175
162.884
159.593
156.307
153.028
149.762
146.51
143.277
140.066
136.879
133.719
130.59
127.493
124.431
121.407
118.421
115.477
112.576
109.719
106.908
104.145
101.431
98.7678
96.1561
93.5975
91.0934
88.6453
86.255
83.9244
81.6556
79.4513
77.3146
75.2487
73.2573
71.3437
69.5109
67.7569
66.0878
25.4523
9.45572
6.49188
5.56862
5.24995
5.197
5.29337
5.48919
5.76008
6.09327
6.48199
6.92299
7.41536
7.95966
8.55665
9.20901
9.92007
10.6937
11.5343
12.4467
13.4357
14.5067
15.665
16.9159
18.2647
19.7166
21.2765
22.9487
24.7371
26.6456
28.6774
30.8353
33.1217
35.5382
38.086
40.7654
43.5763
46.5181
49.5894
52.7882
56.1121
59.5581
63.1227
66.8019
70.5913
74.486
78.4809
82.5705
86.7487
91.0097
95.3469
99.7539
104.224
108.75
113.326
117.944
122.598
127.28
131.984
136.703
141.43
146.159
150.884
155.6
160.302
164.985
169.636
174.226
178.75
183.201
187.574
191.862
196.061
200.166
204.171
208.072
211.864
215.543
219.105
222.546
225.863
229.052
232.11
235.035
237.822
240.471
242.978
245.342
247.56
249.631
251.555
253.328
254.951
256.423
257.742
258.909
259.923
260.785
261.493
262.048
262.451
262.703
262.804
262.755
262.557
262.212
261.722
261.087
260.309
259.392
258.336
257.145
255.821
254.367
252.784
251.078
249.25
247.305
245.245
243.074
240.797
238.417
235.938
233.365
230.701
227.952
225.122
222.215
219.236
216.19
213.082
209.917
206.699
203.433
200.124
196.778
193.398
189.99
186.558
183.107
179.642
176.166
172.685
169.203
165.723
162.25
158.789
155.342
151.913
148.506
145.124
141.769
138.446
135.156
131.901
128.686
125.511
122.378
119.29
116.249
113.256
110.312
107.419
104.579
101.792
99.0603
96.385
93.7675
91.2091
88.7116
86.2767
83.9066
81.6036
79.3705
77.2104
75.1262
73.1208
71.1966
69.3512
67.5914
24.3746
9.23161
6.33974
5.43138
5.1201
5.07514
5.18345
5.39741
5.69446
6.06349
6.49932
7.00024
7.56678
8.20092
8.90565
9.685
10.5437
11.4869
12.5203
13.6496
14.8807
16.2193
17.671
19.2411
20.9345
22.7556
24.7083
26.7957
29.0202
31.3836
33.8872
36.5313
39.3157
42.2395
45.3011
48.4984
51.8285
55.2881
58.8735
62.5804
66.4041
70.3397
74.3818
78.5248
82.7629
87.0901
91.4999
95.9862
100.542
105.162
109.838
114.564
119.333
124.139
128.975
133.833
138.709
143.595
148.486
153.375
158.257
163.127
167.979
172.811
177.618
182.379
187.071
191.687
196.224
200.676
205.038
209.306
213.474
217.539
221.495
225.339
229.067
232.675
236.159
239.517
242.743
245.837
248.795
251.614
254.291
256.825
259.214
261.455
263.547
265.488
267.278
268.914
270.396
271.723
272.895
273.911
274.771
275.475
276.023
276.415
276.652
276.734
276.662
276.438
276.062
275.536
274.862
274.041
273.075
271.966
270.717
269.33
267.808
266.154
264.37
262.461
260.428
258.277
256.01
253.632
251.146
248.556
245.868
243.085
240.212
237.253
234.214
231.098
227.912
224.659
221.346
217.976
214.556
211.089
207.582
204.039
200.464
196.864
193.242
189.603
185.953
182.295
178.635
174.976
171.323
167.679
164.05
160.438
156.848
153.282
149.745
146.238
142.765
139.329
135.933
132.577
129.266
126.001
122.783
119.615
116.497
113.433
110.422
107.467
104.569
101.728
98.9467
96.2257
93.5666
90.9709
88.4404
85.9769
83.5829
81.2606
79.0129
76.8424
74.7513
72.7418
70.8115
68.9677
23.0997
8.96016
6.19353
5.32599
5.04423
5.03199
5.18201
5.45037
5.81763
6.27557
6.8219
7.45772
8.18632
9.01232
9.94125
10.9792
12.1326
13.4077
14.8107
16.3473
18.0226
19.8408
21.8057
23.9197
26.1845
28.6009
31.1686
33.8867
36.753
39.7651
42.9195
46.2124
49.6395
53.196
56.8766
60.6762
64.5889
68.6092
72.731
76.9484
81.2555
85.6461
90.1142
94.6538
99.2589
103.923
108.642
113.407
118.215
123.058
127.931
132.829
137.745
142.674
147.612
152.551
157.488
162.417
167.334
172.234
177.113
181.969
186.795
191.594
196.332
200.994
205.576
210.075
214.485
218.803
223.025
227.146
231.164
235.073
238.87
242.551
246.113
249.553
252.867
256.052
259.106
262.025
264.807
267.449
269.95
272.306