/*--------------------------------*- C++ -*----------------------------------*\
| =========                 |                                                 |
| \\      /  F ield         | OpenFOAM: The Open Source CFD Toolbox           |
|  \\    /   O peration     | Version:  2412                                  |
|   \\  /    A nd           | Website:  www.openfoam.com                      |
|    \\/     M anipulation  |                                                 |
\*---------------------------------------------------------------------------*/
FoamFile
{
    version     2.0;
    format      ascii;
    arch        "LSB;label=32;scalar=64";
    class       volScalarField;
    location    "0.18";
    object      k;
}
// * * * * * * * * * * * * * * * * * * * * * * * * * * * * * * * * * * * * * //

dimensions      [0 2 -2 0 0 0 0];

internalField   nonuniform List<scalar> 
12225
(
0.316793
0.394493
0.477905
0.542613
0.593828
0.634373
0.666725
0.692779
0.713879
0.731038
0.74504
0.756475
0.765796
0.773344
0.779375
0.784025
0.787412
0.790389
0.569139
0.788914
0.952581
1.06799
1.1512
1.2127
1.25817
1.2917
1.3163
1.33411
1.3467
1.35525
1.36066
1.36363
1.36472
1.36427
1.36349
1.3614
0.670061
0.972154
1.18323
1.33202
1.43945
1.51861
1.57693
1.61968
1.65077
1.67302
1.6885
1.69879
1.70508
1.7083
1.70922
1.70843
1.70693
1.70491
0.722108
1.07674
1.32651
1.50447
1.63403
1.72971
1.80042
1.85243
1.89038
1.91766
1.93679
1.94967
1.95776
1.9622
1.96393
1.96374
1.96263
1.96116
0.742771
1.1292
1.41224
1.61818
1.77023
1.88337
1.96763
2.03016
2.07624
2.1098
2.13375
2.15033
2.16127
2.16792
2.17138
2.17261
2.17263
2.1721
0.739914
1.13776
1.44637
1.6782
1.85304
1.98505
2.08466
2.15964
2.21577
2.25742
2.2879
2.30977
2.325
2.33517
2.34155
2.34524
2.34726
2.34825
0.71962
1.1088
1.43133
1.68402
1.88028
2.03177
2.14828
2.23766
2.30594
2.35781
2.39687
2.42595
2.44727
2.46261
2.47341
2.48087
2.486
2.48939
0.687642
1.05045
1.37183
1.63647
1.84973
2.01924
2.15292
2.25792
2.34008
2.40413
2.45381
2.49214
2.5215
2.54385
2.56077
2.57353
2.58316
2.59011
0.648986
0.972378
1.27661
1.54079
1.76293
1.94592
2.09471
2.21486
2.31146
2.38885
2.45068
2.49995
2.53913
2.57026
2.59498
2.61465
2.63026
2.64214
0.607484
0.884088
1.15747
1.40739
1.62723
1.81572
1.97446
2.10675
2.21628
2.30659
2.38087
2.44187
2.49195
2.53311
2.567
2.59494
2.61789
2.63604
0.565819
0.79332
1.02684
1.2503
1.45566
1.63915
1.79965
1.93805
2.05633
2.15683
2.24192
2.31383
2.3746
2.426
2.46955
2.50648
2.53766
2.56302
0.528746
0.712095
0.905182
1.09646
1.27868
1.4475
1.60044
1.73675
1.85686
1.96192
2.05334
2.13268
2.20145
2.26107
2.31281
2.3577
2.39642
2.42862
0.494652
0.637272
0.790584
0.946991
1.10077
1.24804
1.38602
1.51304
1.62847
1.7324
1.82537
1.90817
1.98172
2.04698
2.10486
2.15613
2.20124
2.23952
0.460676
0.562145
0.673147
0.789681
0.907907
1.02495
1.13848
1.24669
1.34844
1.44309
1.53044
1.61057
1.68377
1.75044
1.81105
1.866
1.91543
1.95836
0.429345
0.492749
0.5628
0.638294
0.717356
0.798324
0.8797
0.960133
1.03852
1.11406
1.18619
1.25457
1.31901
1.37948
1.43599
1.4886
1.53717
1.58048
0.403168
0.435384
0.470978
0.510055
0.552192
0.59686
0.643481
0.691413
0.740012
0.788695
0.83697
0.884426
0.930738
0.975652
1.01897
1.06053
1.10004
1.13643
0.384083
0.394609
0.406483
0.419894
0.434847
0.451302
0.469197
0.48842
0.508812
0.530189
0.552358
0.575122
0.598288
0.621645
0.645012
0.668228
0.691086
0.713048
0.374047
0.373709
0.374089
0.375206
0.377037
0.37956
0.382762
0.38663
0.39114
0.396265
0.401969
0.408213
0.414954
0.422165
0.429805
0.437816
0.446131
0.45464
0.376606
0.378924
0.381989
0.38585
0.390483
0.395851
0.401919
0.408642
0.415963
0.423813
0.432124
0.440824
0.449841
0.459109
0.468563
0.478139
0.487765
0.497221
0.394947
0.417779
0.442956
0.470554
0.500294
0.531812
0.564721
0.598587
0.632963
0.667431
0.701624
0.735233
0.768004
0.79974
0.830293
0.859553
0.887398
0.913423
0.42777
0.489065
0.556228
0.62801
0.702575
0.778279
0.853691
0.927552
0.998852
1.06686
1.13112
1.19133
1.2474
1.29933
1.34722
1.39122
1.4315
1.46806
0.47574
0.594971
0.723607
0.855975
0.98719
1.11393
1.2338
1.34521
1.44733
1.53994
1.62325
1.69772
1.76397
1.82266
1.87452
1.92022
1.96038
1.99552
0.536846
0.728693
0.928623
1.12372
1.30641
1.47303
1.62182
1.75255
1.86609
1.96391
2.04767
2.11906
2.17968
2.23098
2.27426
2.31067
2.34118
2.36663
0.604141
0.873967
1.14016
1.38239
1.59447
1.77605
1.92882
2.05584
2.16062
2.24658
2.31677
2.37379
2.4199
2.45695
2.4865
2.50984
2.52805
2.54205
0.668314
1.00766
1.31642
1.57532
1.78709
1.95802
2.09447
2.20265
2.28799
2.35497
2.40718
2.44755
2.47838
2.50155
2.51854
2.53056
2.53858
2.54347
0.717303
1.09919
1.41419
1.65889
1.84811
1.99398
2.10591
2.19144
2.25649
2.30556
2.34215
2.36895
2.38805
2.40108
2.40933
2.4138
2.41531
2.41458
0.735718
1.11862
1.40734
1.61983
1.77772
1.89573
1.98395
2.04966
2.09826
2.13376
2.15921
2.17688
2.18853
2.19548
2.19879
2.19926
2.19754
2.19422
0.708199
1.04716
1.29075
1.46557
1.59175
1.68428
1.75245
1.80244
1.83877
1.86479
1.88295
1.89508
1.90256
1.90647
1.9076
1.9066
1.90396
1.90015
0.616921
0.862574
1.0489
1.18265
1.27674
1.34491
1.39483
1.43126
1.45767
1.47656
1.48974
1.49855
1.504
1.50684
1.50768
1.50698
1.50509
1.5024
0.33327
0.408789
0.496176
0.564093
0.616606
0.657441
0.689402
0.714711
0.734946
0.751234
0.764423
0.775159
0.783935
0.791135
0.797056
0.801939
0.805958
0.80929
0.00760507
0.012135
0.0155256
0.0181527
0.02015
0.0217843
0.0236996
0.0256963
0.0277603
0.029935
0.032305
0.0351021
0.0386298
0.0425443
0.0467821
0.0513164
0.0561497
0.0612888
0.0667358
0.0724851
0.0785248
0.0848382
0.0914065
0.0982105
0.105233
0.112462
0.119889
0.127516
0.135356
0.143432
0.151779
0.160256
0.168837
0.177511
0.186267
0.195095
0.203988
0.212938
0.221939
0.230985
0.240071
0.249193
0.258345
0.267525
0.276726
0.285946
0.295179
0.304422
0.313668
0.322914
0.332154
0.341383
0.350594
0.359783
0.368943
0.378068
0.387152
0.396188
0.40517
0.41409
0.422943
0.431722
0.440419
0.449028
0.457542
0.465956
0.474261
0.482453
0.490526
0.498475
0.506298
0.513998
0.521582
0.529069
0.536497
0.543786
0.550891
0.557815
0.564561
0.571126
0.577506
0.583697
0.589694
0.595492
0.601087
0.606474
0.61165
0.616611
0.621353
0.625872
0.630166
0.634232
0.638067
0.641668
0.645034
0.648161
0.651049
0.653696
0.6561
0.658261
0.660176
0.661846
0.66327
0.664446
0.665376
0.666059
0.666494
0.666683
0.666625
0.666322
0.665774
0.664983
0.663949
0.662674
0.661159
0.659408
0.657421
0.655201
0.652751
0.650073
0.647171
0.644048
0.640708
0.637153
0.63339
0.62942
0.62525
0.620884
0.616328
0.611585
0.606662
0.601565
0.5963
0.590872
0.585288
0.579555
0.573681
0.56767
0.561531
0.555281
0.548904
0.542459
0.535997
0.530039
0.526081
0.522483
0.518827
0.515084
0.511254
0.507342
0.503352
0.499291
0.495163
0.490974
0.48673
0.482436
0.478099
0.473723
0.469315
0.464881
0.460424
0.455952
0.451468
0.446979
0.442488
0.437999
0.433516
0.42904
0.424574
0.420115
0.41566
0.411201
0.406722
0.402197
0.397575
0.392764
0.387559
0.381439
0.373525
0.362866
0.0159573
0.0253034
0.0335416
0.0402547
0.0463632
0.0524025
0.0583019
0.0643043
0.0706566
0.0774563
0.0847036
0.0923638
0.100389
0.108713
0.117299
0.12614
0.135241
0.144616
0.154278
0.164241
0.174518
0.185121
0.196057
0.207335
0.21896
0.230933
0.243253
0.255917
0.268917
0.282239
0.295869
0.309782
0.323964
0.3384
0.353078
0.367982
0.383101
0.398422
0.413933
0.429624
0.445484
0.461503
0.477673
0.493985
0.51043
0.527001
0.543687
0.560482
0.577376
0.59436
0.611425
0.62856
0.645757
0.663004
0.68029
0.697604
0.714934
0.732268
0.749594
0.7669
0.784172
0.801397
0.818563
0.835656
0.852664
0.869573
0.88637
0.903043
0.91958
0.935966
0.952191
0.968242
0.984105
0.99977
1.01512
1.03013
1.04488
1.05937
1.0736
1.08755
1.10122
1.1146
1.12767
1.14043
1.15287
1.16497
1.17672
1.18813
1.19917
1.20985
1.22014
1.23005
1.23957
1.24869
1.2574
1.2657
1.27359
1.28105
1.28808
1.29468
1.30084
1.30657
1.31185
1.31668
1.32106
1.32498
1.32846
1.33147
1.33403
1.33612
1.33776
1.33893
1.33964
1.33989
1.33968
1.33901
1.33788
1.33629
1.33425
1.33175
1.32881
1.32542
1.32159
1.31732
1.31263
1.3075
1.30196
1.296
1.28964
1.28288
1.27573
1.2682
1.2603
1.25203
1.24342
1.23445
1.22516
1.21555
1.20563
1.19543
1.18489
1.17417
1.16327
1.1523
1.1415
1.13062
1.11957
1.10834
1.09694
1.08539
1.0737
1.06188
1.04995
1.03791
1.02579
1.01359
1.00134
0.989027
0.976681
0.964311
0.951928
0.939543
0.927169
0.914816
0.902493
0.89021
0.877976
0.865798
0.853683
0.841633
0.829651
0.817735
0.805877
0.794063
0.782266
0.770447
0.758503
0.746317
0.73238
0.717147
0.0233456
0.0402303
0.052496
0.0620905
0.070598
0.0784976
0.0863476
0.0944622
0.103012
0.112048
0.121543
0.131436
0.141663
0.152178
0.162963
0.174028
0.185401
0.197117
0.209217
0.221737
0.23471
0.24816
0.262104
0.276551
0.2915
0.306943
0.322864
0.339244
0.356057
0.373275
0.390869
0.408812
0.427076
0.445639
0.464479
0.483574
0.502907
0.522462
0.542223
0.562179
0.582316
0.602625
0.623097
0.64372
0.664488
0.685391
0.70642
0.727566
0.74882
0.770173
0.791613
0.813131
0.834714
0.856351
0.87803
0.899736
0.921458
0.94318
0.964888
0.986567
1.0082
1.02978
1.05128
1.07269
1.09399
1.11517
1.13621
1.1571
1.17783
1.19837
1.21871
1.23885
1.25876
1.27843
1.29777
1.3168
1.33551
1.3539
1.37196
1.38968
1.40704
1.42402
1.44063
1.45683
1.47262
1.48798
1.50291
1.51739
1.53141
1.54495
1.55802
1.57059
1.58266
1.59422
1.60526
1.61578
1.62576
1.63521
1.6441
1.65245
1.66023
1.66745
1.67411
1.6802
1.68571
1.69064
1.69499
1.69875
1.70194
1.70453
1.70654
1.70796
1.70879
1.70903
1.70869
1.70776
1.70624
1.70415
1.70147
1.69822
1.6944
1.69002
1.68507
1.67957
1.67352
1.66693
1.65981
1.65216
1.644
1.63533
1.62617
1.61653
1.60641
1.59583
1.58481
1.57334
1.56147
1.54918
1.53649
1.52349
1.51015
1.49652
1.48264
1.46858
1.45443
1.44013
1.42562
1.41089
1.39596
1.38084
1.36555
1.3501
1.33452
1.31881
1.30299
1.28709
1.27111
1.25508
1.23901
1.22291
1.2068
1.1907
1.17461
1.15856
1.14255
1.1266
1.11072
1.09493
1.07922
1.06361
1.04811
1.03271
1.01743
1.00226
0.987197
0.972247
0.957397
0.942688
0.927671
0.912123
0.0298394
0.0552631
0.0711062
0.0828449
0.0927978
0.102067
0.111225
0.120604
0.130382
0.140624
0.151323
0.162442
0.173938
0.185789
0.197997
0.210586
0.223594
0.237065
0.251043
0.265564
0.280655
0.296333
0.312603
0.32946
0.346892
0.364876
0.383387
0.402394
0.421866
0.44177
0.462074
0.482748
0.503766
0.525103
0.546738
0.568651
0.590824
0.613244
0.635895
0.658767
0.681848
0.705129
0.728601
0.752255
0.776082
0.800073
0.824219
0.84851
0.872938
0.89749
0.922155
0.946922
0.971777
0.996707
1.0217
1.04673
1.0718
1.09688
1.12195
1.147
1.17201
1.19697
1.22185
1.24663
1.2713
1.29584
1.32023
1.34445
1.36848
1.39231
1.41593
1.4393
1.46243
1.48525
1.50773
1.52986
1.55164
1.57304
1.59405
1.61466
1.63485
1.6546
1.6739
1.69273
1.71108
1.72892
1.74625
1.76305
1.77931
1.79501
1.81015
1.8247
1.83867
1.85203
1.86479
1.87693
1.88844
1.89931
1.90955
1.91913
1.92806
1.93633
1.94393
1.95087
1.95713
1.96271
1.96761
1.97183
1.97536
1.97821
1.98037
1.98185
1.98264
1.98274
1.98216
1.98089
1.97894
1.97632
1.97302
1.96906
1.96443
1.95914
1.95321
1.94663
1.93941
1.93157
1.92311
1.91404
1.90438
1.89413
1.88331
1.87193
1.86001
1.84755
1.83458
1.82109
1.80715
1.79277
1.77796
1.76276
1.74718
1.73125
1.71502
1.69853
1.68185
1.66496
1.64782
1.63045
1.61285
1.59504
1.57704
1.55886
1.54053
1.52207
1.50349
1.48482
1.46606
1.44725
1.4284
1.40953
1.39065
1.37178
1.35294
1.33415
1.31542
1.29676
1.27819
1.25973
1.24138
1.22316
1.20509
1.18716
1.1694
1.15182
1.13445
1.11731
1.10048
1.08409
1.06807
1.05241
0.0350521
0.0689904
0.087801
0.101267
0.112569
0.122941
0.133033
0.143224
0.153731
0.164663
0.176057
0.187913
0.200225
0.212993
0.226231
0.239969
0.254242
0.269088
0.284539
0.300621
0.317348
0.334725
0.352746
0.371397
0.390658
0.410501
0.430899
0.451819
0.47323
0.495101
0.517403
0.54011
0.563195
0.586637
0.610417
0.634516
0.65892
0.683613
0.708585
0.733824
0.759318
0.78506
0.811039
0.837246
0.863673
0.890308
0.917143
0.944166
0.971366
0.998731
1.02625
1.0539
1.08168
1.10956
1.13753
1.16558
1.19368
1.22181
1.24995
1.27809
1.3062
1.33426
1.36225
1.39015
1.41793
1.44557
1.47305
1.50035
1.52745
1.55433
1.58096
1.60733
1.63341
1.65913
1.68449
1.70945
1.73401
1.75814
1.78183
1.80507
1.82782
1.85007
1.87181
1.89301
1.91365
1.93372
1.95321
1.97208
1.99034
2.00797
2.02494
2.04126
2.0569
2.07186
2.08612
2.09968
2.11252
2.12464
2.13603
2.14668
2.15659
2.16574
2.17414
2.18178
2.18866
2.19477
2.2001
2.20467
2.20845
2.21147
2.2137
2.21517
2.21585
2.21576
2.2149
2.21327
2.21087
2.20772
2.2038
2.19913
2.19372
2.18757
2.18069
2.17309
2.16478
2.15576
2.14606
2.13567
2.12462
2.11292
2.10057
2.08761
2.07403
2.05985
2.04514
2.02988
2.01411
1.99785
1.98112
1.96395
1.94635
1.92837
1.91003
1.89139
1.87247
1.8533
1.83386
1.81416
1.79422
1.77405
1.75367
1.7331
1.71237
1.6915
1.67051
1.64941
1.62824
1.60702
1.58575
1.56447
1.54318
1.52192
1.5007
1.47954
1.45845
1.43746
1.41658
1.39582
1.37521
1.35476
1.33448
1.31441
1.29455
1.27494
1.25563
1.23668
1.2182
1.20038
1.1833
1.1671
0.0403102
0.0802407
0.101602
0.116747
0.129283
0.140605
0.151445
0.162239
0.173255
0.184648
0.196504
0.208866
0.221759
0.235201
0.249217
0.263832
0.279076
0.294974
0.311547
0.328808
0.346762
0.365405
0.384725
0.404704
0.42532
0.446547
0.468359
0.490726
0.51362
0.537016
0.560888
0.585212
0.609966
0.635132
0.660692
0.686631
0.712933
0.739586
0.76658
0.793902
0.821542
0.84949
0.877737
0.906273
0.935086
0.964167
0.993503
1.02308
1.05289
1.08291
1.11314
1.14354
1.17412
1.20484
1.23568
1.26663
1.29767
1.32876
1.3599
1.39104
1.42218
1.45327
1.4843
1.51524
1.54607
1.57675
1.60726
1.63758
1.66768
1.69753
1.72711
1.75639
1.78535
1.81391
1.84205
1.86976
1.89701
1.92379
1.95007
1.97583
2.00105
2.02571
2.04978
2.07325
2.0961
2.1183
2.13984
2.16069
2.18085
2.2003
2.21902
2.237
2.25422
2.27068
2.28635
2.30124
2.31532
2.3286
2.34106
2.35269
2.36349
2.37346
2.38258
2.39085
2.39827
2.40483
2.41054
2.41539
2.41938
2.4225
2.42476
2.42617
2.42671
2.42639
2.42522
2.4232
2.42034
2.41663
2.41208
2.40671
2.40051
2.39351
2.38569
2.37708
2.3677
2.35754
2.34661
2.33495
2.32256
2.30945
2.29562
2.28115
2.26602
2.25026
2.23389
2.21695
2.19944
2.18139
2.16284
2.14379
2.12429
2.10437
2.08405
2.06337
2.04238
2.02109
1.9995
1.97764
1.95551
1.93314
1.91055
1.88777
1.86482
1.84171
1.81849
1.79516
1.77175
1.74829
1.7248
1.7013
1.6778
1.65434
1.63093
1.60759
1.58435
1.56121
1.53821
1.51536
1.49268
1.47019
1.44792
1.42589
1.40413
1.3827
1.36164
1.34105
1.32107
1.3019
1.28366
1.26653
0.0469906
0.0893088
0.112591
0.129097
0.142675
0.154815
0.166302
0.177614
0.189056
0.200826
0.213051
0.225806
0.239144
0.2531
0.267702
0.282976
0.298943
0.31562
0.33302
0.351147
0.369999
0.389568
0.409843
0.430804
0.452433
0.474706
0.497602
0.521095
0.545164
0.569786
0.59494
0.620608
0.646771
0.673412
0.700517
0.728072
0.756065
0.784482
0.813314
0.842549
0.872177
0.902187
0.932568
0.96331
0.9944
1.02583
1.05757
1.08963
1.12198
1.1546
1.18748
1.2206
1.25393
1.28745
1.32115
1.35499
1.38895
1.423
1.45711
1.49126
1.52542
1.55955
1.59362
1.62761
1.66148
1.6952
1.72875
1.76208
1.79518
1.828
1.86053
1.89273
1.92454
1.95591
1.98682
2.01725
2.04717
2.07655
2.10539
2.13364
2.16129
2.18832
2.21469
2.24038
2.26538
2.28966
2.3132
2.33599
2.358
2.37921
2.39962
2.41921
2.43795
2.45585
2.47288
2.48903
2.5043
2.51868
2.53215
2.54471
2.55635
2.56707
2.57685
2.5857
2.59362
2.60059
2.60662
2.61171
2.61585
2.61905
2.62129
2.6226
2.62297
2.62239
2.62089
2.61845
2.61509
2.6108
2.60561
2.59951
2.59252
2.58465
2.5759
2.56628
2.55582
2.54452
2.53239
2.51946
2.50575
2.49128
2.47605
2.46012
2.44348
2.42616
2.40819
2.3896
2.3704
2.35062
2.3303
2.30945
2.28811
2.2663
2.24407
2.22145
2.19847
2.17515
2.15151
2.12758
2.10338
2.07891
2.05423
2.02933
2.00426
1.97904
1.95369
1.92825
1.90272
1.87715
1.85155
1.82594
1.80036
1.77482
1.74934
1.72395
1.69867
1.67352
1.64852
1.6237
1.59908
1.57469
1.55054
1.52668
1.50315
1.48001
1.45732
1.43519
1.41377
1.39325
1.37375
1.35541
0.0527564
0.096089
0.120765
0.138327
0.152756
0.165597
0.177663
0.189451
0.201294
0.213415
0.225968
0.239058
0.252753
0.267104
0.282143
0.297898
0.314385
0.331619
0.349606
0.368347
0.387839
0.408075
0.429043
0.450728
0.473116
0.496188
0.519927
0.544315
0.569335
0.59497
0.621204
0.648022
0.675409
0.703353
0.731841
0.760861
0.790402
0.820453
0.851004
0.882043
0.913561
0.945545
0.977984
1.01087
1.04418
1.0779
1.11202
1.14652
1.18139
1.2166
1.25212
1.28795
1.32404
1.36038
1.39694
1.43368
1.47058
1.50761
1.54473
1.58191
1.61911
1.6563
1.69344
1.7305
1.76744
1.80422
1.84081
1.87718
1.91328
1.94909
1.98457
2.01969
2.05435
2.08852
2.12219
2.15532
2.18789
2.21987
2.25124
2.28196
2.31201
2.34136
2.36999
2.39788
2.42499
2.45131
2.47681
2.50147
2.52528
2.54822
2.57027
2.5914
2.61162
2.6309
2.64924
2.66661
2.68301
2.69844
2.71287
2.7263
2.73873
2.75015
2.76055
2.76993
2.7783
2.78563
2.79194
2.79722
2.80147
2.8047
2.8069
2.80807
2.80822
2.80736
2.80548
2.8026
2.79871
2.79384
2.78797
2.78114
2.77334
2.76459
2.75488
2.74424
2.73271
2.72029
2.70698
2.69281
2.67782
2.662
2.64539
2.62801
2.60989
2.59104
2.5715
2.55129
2.53043
2.50897
2.48691
2.4643
2.44117
2.41754
2.39345
2.36894
2.34403
2.31876
2.29316
2.26724
2.24103
2.21455
2.18784
2.16093
2.13383
2.10657
2.07919
2.05171
2.02416
1.99656
1.96894
1.94133
1.91375
1.88622
1.85877
1.83142
1.8042
1.77713
1.75024
1.72354
1.69708
1.67086
1.64494
1.61935
1.59414
1.56936
1.54511
1.5215
1.49867
1.4768
1.45598
1.43629
0.0575165
0.100739
0.126329
0.144662
0.159754
0.173178
0.185752
0.197981
0.210205
0.222662
0.235521
0.248901
0.262889
0.277541
0.292899
0.308992
0.325838
0.34345
0.361835
0.380996
0.400929
0.421631
0.443094
0.465309
0.488266
0.511954
0.53636
0.561474
0.587283
0.613777
0.640945
0.668775
0.697259
0.726385
0.756144
0.786528
0.817525
0.849127
0.881323
0.914103
0.947455
0.981367
1.01583
1.05082
1.08633
1.12233
1.15882
1.19577
1.23316
1.27096
1.30915
1.3477
1.38658
1.42576
1.4652
1.50488
1.54475
1.58478
1.62493
1.66516
1.70544
1.7457
1.78593
1.82608
1.8661
1.90595
1.9456
1.985
2.02412
2.0629
2.10132
2.13933
2.17682
2.21379
2.25018
2.28599
2.32118
2.35571
2.38956
2.4227
2.45511
2.48674
2.51758
2.5476
2.57677
2.60506
2.63247
2.65895
2.6845
2.70909
2.73271
2.75534
2.77696
2.79756
2.81714
2.83567
2.85314
2.86955
2.88488
2.89912
2.91228
2.92434
2.93531
2.94517
2.95392
2.96157
2.96811
2.97354
2.97786
2.98107
2.98317
2.98417
2.98408
2.98289
2.98061
2.97725
2.97282
2.96733
2.96077
2.95317
2.94455
2.93491
2.92427
2.91264
2.90004
2.8865
2.87202
2.85663
2.84036
2.82322
2.80524
2.78644
2.76686
2.7465
2.72542
2.70362
2.68115
2.65803
2.63429
2.60996
2.58508
2.55967
2.53378
2.50743
2.48067
2.45352
2.42601
2.39817
2.37003
2.34162
2.31297
2.2841
2.25505
2.22584
2.19651
2.16708
2.13759
2.10805
2.0785
2.04896
2.01947
1.99004
1.9607
1.93148
1.9024
1.8735
1.84479
1.8163
1.78807
1.76012
1.7325
1.70525
1.67843
1.6521
1.62635
1.60129
1.57707
1.55384
1.53165
1.51056
0.0612864
0.103511
0.129601
0.148443
0.164019
0.177902
0.190904
0.203523
0.216097
0.228864
0.242
0.255632
0.269854
0.284733
0.300314
0.316632
0.33371
0.351564
0.370203
0.389634
0.409859
0.430879
0.452692
0.475295
0.498685
0.522857
0.547806
0.573528
0.600016
0.627266
0.655272
0.684027
0.713526
0.743763
0.77473
0.80642
0.838826
0.871939
0.905749
0.940245
0.975415
1.01125
1.04772
1.08483
1.12254
1.16085
1.19972
1.23914
1.27908
1.3195
1.36038
1.40168
1.44338
1.48542
1.52778
1.57041
1.61328
1.65633
1.69953
1.74282
1.78617
1.82952
1.87283
1.91605
1.95914
2.00204
2.04472
2.08713
2.12922
2.17095
2.21229
2.25311
2.29338
2.33306
2.37213
2.41054
2.44827
2.48528
2.52154
2.55702
2.59169
2.62552
2.65849
2.69055
2.72168
2.75187
2.78108
2.80929
2.83648
2.86264
2.88774
2.91177
2.93471
2.95655
2.97727
2.99687
3.01534
3.03265
3.0488
3.06379
3.0776
3.09023
3.10169
3.11196
3.12105
3.12895
3.13566
3.14118
3.14552
3.14866
3.15063
3.15142
3.15104
3.14948
3.14677
3.14291
3.13791
3.13178
3.12453
3.11617
3.10672
3.0962
3.08462
3.07199
3.05834
3.04369
3.02806
3.01146
2.99393
2.97549
2.95616
2.93598
2.91496
2.89314
2.87054
2.8472
2.82315
2.79842
2.77304
2.74705
2.72047
2.69335
2.66571
2.63759
2.60904
2.58008
2.55075
2.52107
2.49108
2.46082
2.4303
2.39957
2.36865
2.33757
2.30637
2.27508
2.24372
2.21233
2.18094
2.14956
2.11824
2.08699
2.05586
2.02485
1.994
1.96334
1.9329
1.90271
1.87279
1.84319
1.81395
1.78512
1.75675
1.72892
1.70172
1.67526
1.64967
1.62507
1.6015
1.579
0.0641091
0.104679
0.130929
0.150057
0.165951
0.180169
0.193507
0.20645
0.219323
0.23236
0.245735
0.259576
0.273982
0.289023
0.304753
0.321212
0.338428
0.356423
0.375212
0.394809
0.415222
0.436458
0.458524
0.481423
0.50516
0.529738
0.555158
0.581422
0.608531
0.636487
0.665287
0.694932
0.725419
0.756746
0.788908
0.821901
0.855717
0.890349
0.925787
0.962019
0.999032
1.03681
1.07534
1.11459
1.15456
1.1952
1.2365
1.27842
1.32094
1.36402
1.40763
1.45171
1.49625
1.54118
1.58647
1.63207
1.67793
1.724
1.77022
1.81656
1.86295
1.90935
1.95569
2.00194
2.04803
2.09392
2.13956
2.1849
2.22988
2.27446
2.31859
2.36213
2.40506
2.44735
2.48896
2.52986
2.57
2.60936
2.6479
2.68559
2.7224
2.75829
2.79324
2.82721
2.86018
2.89212
2.923
2.95281
2.98151
3.00911
3.03556
3.06087
3.08501
3.10797
3.12973
3.1503
3.16964
3.18776
3.20464
3.22026
3.23464
3.24776
3.25962
3.27022
3.27957
3.28765
3.29447
3.30002
3.30431
3.30734
3.30912
3.30965
3.30894
3.307
3.30383
3.29945
3.29387
3.28709
3.27913
3.27001
3.25974
3.24834
3.23582
3.2222
3.20752
3.19178
3.175
3.15723
3.13847
3.11875
3.09811
3.07657
3.05416
3.03092
3.00686
2.98203
2.95646
2.93018
2.90322
2.87562
2.84741
2.81864
2.78933
2.75953
2.72926
2.69858
2.66751
2.63608
2.60433
2.5723
2.54001
2.50751
2.47481
2.44197
2.409
2.37593
2.34282
2.30967
2.27652
2.24341
2.21035
2.17739
2.14454
2.11184
2.07932
2.047
2.01491
1.9831
1.95159
1.92042
1.88964
1.85929
1.82945
1.80018
1.77158
1.74376
1.71682
1.69087
1.66593
1.64204
0.0660356
0.104506
0.13065
0.149883
0.165952
0.180387
0.193966
0.207155
0.220265
0.23352
0.247087
0.261093
0.275636
0.290791
0.306617
0.323159
0.340454
0.358529
0.377408
0.397113
0.417659
0.439063
0.461339
0.484498
0.508554
0.533517
0.559396
0.5862
0.613936
0.64261
0.672227
0.702791
0.734304
0.766765
0.800173
0.834525
0.869813
0.906031
0.943166
0.981207
1.02014
1.05994
1.10059
1.14207
1.18435
1.22739
1.27118
1.31566
1.36081
1.40659
1.45295
1.49984
1.54722
1.59503
1.64324
1.69178
1.74059
1.78963
1.83884
1.88814
1.93749
1.98684
2.03612
2.08527
2.13425
2.18299
2.23144
2.27956
2.32728
2.37457
2.42127
2.46735
2.51276
2.55747
2.60143
2.64461
2.68698
2.72849
2.76911
2.8088
2.84755
2.88531
2.92206
2.95775
2.99236
3.02587
3.05824
3.08946
3.11951
3.14836
3.17601
3.20243
3.22761
3.25153
3.27419
3.29558
3.31568
3.33448
3.35195
3.3681
3.38292
3.39642
3.40859
3.41943
3.42894
3.43712
3.44396
3.44948
3.45366
3.45653
3.45807
3.45831
3.45724
3.45487
3.45123
3.4463
3.44012
3.43268
3.42401
3.41413
3.40304
3.39076
3.37732
3.36274
3.34704
3.33023
3.31236
3.29343
3.27348
3.25254
3.23063
3.20779
3.18405
3.15944
3.13398
3.10773
3.0807
3.05294
3.02448
2.99536
2.96561
2.93527
2.90439
2.87298
2.84111
2.8088
2.77609
2.74301
2.70961
2.67592
2.64197
2.6078
2.57344
2.53893
2.5043
2.46958
2.43481
2.40002
2.36523
2.33049
2.29581
2.26123
2.22679
2.1925
2.1584
2.12452
2.09089
2.05756
2.02454
1.99189
1.95965
1.92788
1.89664
1.86601
1.83607
1.80692
1.77867
1.75141
1.72513
1.69988
0.0671137
0.10323
0.12907
0.148269
0.164395
0.178945
0.192674
0.206031
0.219313
0.232731
0.246445
0.260577
0.275225
0.290466
0.306362
0.322966
0.34032
0.358463
0.377425
0.397237
0.417924
0.439512
0.462024
0.485481
0.509904
0.535311
0.561719
0.589143
0.617595
0.647088
0.67763
0.70923
0.74189
0.775615
0.810403
0.846249
0.883149
0.921091
0.960063
1.00005
1.04103
1.08298
1.12587
1.16968
1.21437
1.2599
1.30624
1.35335
1.40117
1.44967
1.49879
1.54847
1.59867
1.64933
1.70038
1.75178
1.80346
1.85536
1.9074
1.95953
2.01168
2.0638
2.11581
2.16767
2.21931
2.27068
2.32172
2.37237
2.4226
2.47227
2.5213
2.56964
2.61725
2.6641
2.71013
2.75532
2.79962
2.843
2.88542
2.92685
2.96727
3.00663
3.04492
3.08209
3.11809
3.15291
3.18653
3.21893
3.25009
3.27999
3.30861
3.33594
3.36196
3.38666
3.41003
3.43205
3.45272
3.47203
3.48995
3.50649
3.52164
3.5354
3.54776
3.55874
3.56832
3.57651
3.5833
3.58871
3.59273
3.59536
3.59663
3.59652
3.59505
3.59224
3.58808
3.5826
3.57581
3.56771
3.55833
3.54768
3.53578
3.52265
3.50832
3.49279
3.47611
3.45828
3.43934
3.41931
3.39823
3.37612
3.35301
3.32893
3.30393
3.27802
3.25125
3.22366
3.19527
3.16612
3.13626
3.10571
3.07452
3.04273
3.01036
2.97748
2.94411
2.91029
2.87606
2.84146
2.80653
2.77131
2.73582
2.70011
2.66422
2.62817
2.59201
2.55576
2.51947
2.48315
2.44685
2.4106
2.37443
2.33836
2.30243
2.26668
2.23112
2.1958
2.16074
2.12599
2.09158
2.05755
2.02396
1.99085
1.9583
1.92637
1.89516
1.86476
1.83525
1.80672
1.77914
1.75259
0.0673804
0.101054
0.126455
0.145519
0.161616
0.176199
0.190003
0.203462
0.216859
0.230396
0.244225
0.258464
0.273211
0.288543
0.304528
0.321223
0.33868
0.356944
0.376057
0.396057
0.416982
0.438865
0.461739
0.485635
0.510581
0.536605
0.563731
0.591976
0.621357
0.651889
0.683586
0.716455
0.750504
0.785735
0.822144
0.859727
0.898474
0.93837
0.979397
1.02153
1.06475
1.10903
1.15432
1.20059
1.24781
1.29592
1.34489
1.39465
1.44516
1.49636
1.54819
1.6006
1.65352
1.70689
1.76065
1.81474
1.86909
1.92364
1.97829
2.03297
2.08764
2.14223
2.19667
2.25091
2.30488
2.35853
2.4118
2.46464
2.51696
2.56863
2.61958
2.6698
2.71922
2.76781
2.81553
2.86234
2.9082
2.95308
2.99693
3.03974
3.08145
3.12206
3.16152
3.1998
3.23686
3.27269
3.30727
3.34056
3.37256
3.40324
3.43259
3.46059
3.48722
3.51248
3.53635
3.55881
3.57987
3.5995
3.61771
3.63448
3.64981
3.66369
3.67613
3.68712
3.69667
3.70477
3.71143
3.71664
3.72042
3.72277
3.72369
3.7232
3.7213
3.718
3.71332
3.70726
3.69985
3.69109
3.681
3.66961
3.65692
3.64297
3.62777
3.61134
3.59372
3.57492
3.55497
3.53391
3.51176
3.48856
3.46433
3.43911
3.41293
3.38583
3.35784
3.32901
3.29936
3.26895
3.23779
3.20594
3.17344
3.14031
3.10661
3.07237
3.03764
3.00245
2.96685
2.93087
2.89456
2.85794
2.82107
2.78397
2.74669
2.70926
2.67171
2.63408
2.5964
2.55872
2.52105
2.48343
2.4459
2.40849
2.37122
2.33413
2.29725
2.26062
2.22426
2.18822
2.15253
2.11724
2.0824
2.04806
2.01429
1.98117
1.94877
1.91718
1.88648
1.85674
1.82794
1.80015
0.066864
0.0981408
0.12302
0.14189
0.157903
0.172467
0.186299
0.199818
0.2133
0.226941
0.240888
0.255259
0.27015
0.285644
0.301809
0.318711
0.336409
0.354957
0.374406
0.394805
0.416201
0.438636
0.462152
0.486789
0.512582
0.539569
0.567783
0.597238
0.627938
0.659907
0.693158
0.7277
0.763537
0.800667
0.839082
0.878771
0.919716
0.961895
1.00528
1.04984
1.09555
1.14236
1.19022
1.2391
1.28893
1.33968
1.39128
1.44367
1.4968
1.55059
1.605
1.65994
1.71536
1.77118
1.82735
1.88379
1.94043
1.9972
2.05403
2.11085
2.16759
2.22418
2.28058
2.33671
2.39253
2.44796
2.50297
2.55747
2.61131
2.66444
2.7168
2.76837
2.81909
2.86892
2.91782
2.96577
3.0127
3.0586
3.10343
3.14716
3.18975
3.23117
3.2714
3.3104
3.34815
3.38462
3.41979
3.45364
3.48615
3.5173
3.54708
3.57546
3.60243
3.62799
3.65211
3.67479
3.69602
3.71579
3.73409
3.75091
3.76625
3.7801
3.79247
3.80335
3.81275
3.82065
3.82708
3.83202
3.83548
3.83748
3.83801
3.83708
3.83471
3.8309
3.82567
3.81903
3.811
3.80158
3.79081
3.77869
3.76525
3.75051
3.73449
3.71722
3.69872
3.67902
3.65815
3.63614
3.61301
3.58881
3.56355
3.53729
3.51005
3.48188
3.4528
3.42286
3.39209
3.36053
3.32823
3.29522
3.26154
3.22724
3.19235
3.15692
3.12099
3.08459
3.04778
3.01058
2.97305
2.93522
2.89713
2.85881
2.82031
2.78165
2.74289
2.70405
2.66516
2.62627
2.58739
2.54858
2.50985
2.47125
2.4328
2.39453
2.35648
2.31868
2.28116
2.24397
2.20714
2.17072
2.13475
2.0993
2.06443
2.03021
1.99671
1.96403
1.93222
1.90136
1.87141
1.84246
0.0655111
0.0944065
0.11878
0.137449
0.15337
0.167905
0.18176
0.195347
0.208941
0.222735
0.236881
0.251498
0.266693
0.282554
0.299141
0.316531
0.334793
0.353992
0.374189
0.395441
0.417803
0.441326
0.466056
0.492037
0.519308
0.547904
0.577852
0.609172
0.641876
0.675975
0.711474
0.748372
0.786662
0.826331
0.86736
0.909724
0.953394
0.998335
1.04451
1.09187
1.14037
1.18995
1.24058
1.29218
1.3447
1.39807
1.45224
1.50713
1.56269
1.61885
1.67553
1.73267
1.7902
1.84805
1.90616
1.96445
2.02285
2.0813
2.13973
2.19807
2.25626
2.31424
2.37195
2.42933
2.48632
2.54289
2.59894
2.65433
2.70899
2.76289
2.81599
2.86824
2.91959
2.97002
3.01948
3.06794
3.11535
3.16169
3.20693
3.25102
3.29395
3.33568
3.37618
3.41543
3.45341
3.49007
3.52542
3.55941
3.59204
3.62329
3.65313
3.68156
3.70855
3.7341
3.75819
3.78081
3.80196
3.82161
3.83977
3.85643
3.87158
3.88522
3.89734
3.90795
3.91704
3.92462
3.93068
3.93524
3.93829
3.93984
3.9399
3.93847
3.93557
3.93121
3.9254
3.91815
3.90948
3.8994
3.88794
3.87511
3.86094
3.84544
3.82864
3.81056
3.79124
3.77069
3.74896
3.72607
3.70204
3.67693
3.65075
3.62355
3.59535
3.56621
3.53615
3.50522
3.47346
3.4409
3.40758
3.37355
3.33885
3.30351
3.26759
3.23111
3.19414
3.15669
3.11883
3.08058
3.042
3.00311
2.96396
2.92459
2.88503
2.84533
2.80551
2.76562
2.72569
2.68575
2.64583
2.60598
2.56622
2.52658
2.48709
2.4478
2.40872
2.3699
2.33136
2.29316
2.25532
2.21789
2.18092
2.14447
2.1086
2.07338
2.03889
2.00519
1.97236
1.94045
1.90944
1.87942
0.0636512
0.0905807
0.114363
0.132844
0.148694
0.163234
0.177165
0.190902
0.204726
0.218839
0.233397
0.248531
0.264352
0.280956
0.298427
0.316849
0.336297
0.356844
0.378556
0.401496
0.425721
0.45128
0.478219
0.506574
0.536377
0.56765
0.600409
0.634658
0.670397
0.707617
0.746304
0.786436
0.827986
0.870922
0.915204
0.96079
1.00763
1.05568
1.10488
1.15517
1.20651
1.25881
1.31203
1.3661
1.42096
1.47654
1.53277
1.5896
1.64695
1.70476
1.76297
1.8215
1.8803
1.9393
1.99844
2.05765
2.11687
2.17604
2.2351
2.29399
2.35264
2.41102
2.46906
2.52671
2.58395
2.64064
2.69666
2.75198
2.80654
2.86032
2.91326
2.96533
3.01649
3.06671
3.11594
3.16416
3.21132
3.2574
3.30236
3.34618
3.38883
3.43027
3.47048
3.50944
3.54711
3.58348
3.61853
3.65222
3.68455
3.71549
3.74503
3.77315
3.79983
3.82506
3.84883
3.87112
3.89193
3.91125
3.92906
3.94536
3.96014
3.9734
3.98514
3.99535
4.00403
4.01119
4.01682
4.02092
4.02351
4.02458
4.02414
4.02221
4.01878
4.01388
4.00752
3.9997
3.99044
3.97977
3.96769
3.95424