/*--------------------------------*- C++ -*----------------------------------*\
| =========                 |                                                 |
| \\      /  F ield         | OpenFOAM: The Open Source CFD Toolbox           |
|  \\    /   O peration     | Version:  2412                                  |
|   \\  /    A nd           | Website:  www.openfoam.com                      |
|    \\/     M anipulation  |                                                 |
\*---------------------------------------------------------------------------*/
FoamFile
{
    version     2.0;
    format      ascii;
    arch        "LSB;label=32;scalar=64";
    class       volScalarField;
    location    "0.18";
    object      nut;
}
// * * * * * * * * * * * * * * * * * * * * * * * * * * * * * * * * * * * * * //

dimensions      [0 2 -1 0 0 0 0];

internalField   nonuniform List<scalar> 
12225
(
2.015e-05
2.24858e-05
2.47491e-05
2.63714e-05
2.75879e-05
2.85142e-05
2.92322e-05
2.97979e-05
3.02483e-05
3.06096e-05
3.09014e-05
3.11376e-05
3.13289e-05
3.14829e-05
3.16054e-05
3.16996e-05
3.1768e-05
3.18279e-05
0.000167792
0.000185428
0.000202597
0.000213786
0.000221145
0.000225984
0.000229001
0.00023072
0.000231514
0.000231643
0.000231292
0.000230594
0.00022965
0.000228531
0.000227295
0.00022597
0.000224709
0.000224073
0.000338328
0.000365994
0.000399361
0.000424406
0.000442779
0.000456138
0.000465648
0.000472248
0.000476657
0.000479409
0.000480905
0.000481447
0.000481264
0.000480529
0.000479376
0.000477903
0.000476299
0.000475464
0.000480631
0.00052177
0.000570121
0.00060839
0.000637801
0.000660209
0.000677098
0.00068969
0.000698951
0.000705624
0.000710278
0.000713358
0.000715205
0.000716085
0.000716207
0.000715738
0.00071491
0.000714435
0.00059357
0.000650967
0.000713489
0.000763784
0.000803283
0.000834122
0.000858087
0.000876628
0.000890894
0.000901782
0.000909996
0.000916087
0.000920489
0.000923545
0.00092553
0.00092667
0.000927219
0.000927691
0.000684417
0.000756655
0.00083195
0.000893053
0.000941625
0.000980102
0.00101056
0.00103466
0.00105369
0.0010687
0.00108048
0.00108967
0.00109677
0.00110221
0.0011063
0.00110932
0.00111153
0.00111331
0.000759756
0.000842839
0.000928291
0.000998647
0.00105522
0.00110054
0.00113687
0.00116606
0.00118953
0.00120842
0.00122362
0.00123583
0.00124564
0.00125348
0.00125975
0.00126474
0.00126871
0.00127196
0.000823624
0.000913364
0.00100525
0.00108261
0.00114578
0.00119702
0.00123857
0.00127237
0.00129992
0.00132243
0.00134086
0.00135598
0.0013684
0.00137862
0.00138704
0.00139401
0.00139975
0.00140451
0.000877002
0.000970915
0.0010653
0.00114672
0.00121456
0.00127046
0.0013164
0.00135422
0.00138543
0.00141126
0.00143272
0.00145059
0.00146553
0.00147806
0.00148861
0.00149752
0.00150502
0.00151127
0.000918257
0.00101593
0.00110995
0.00119241
0.00126253
0.0013214
0.00137056
0.00141158
0.00144588
0.00147464
0.00149883
0.00151927
0.0015366
0.00155136
0.00156398
0.00157481
0.00158404
0.00159176
0.000944751
0.00104624
0.0011388
0.00122006
0.00129015
0.00135004
0.00140091
0.00144403
0.00148061
0.00151172
0.00153824
0.00156095
0.00158047
0.00159732
0.00161193
0.00162462
0.00163555
0.00164471
0.00095393
0.00105647
0.00114713
0.00122621
0.0012948
0.00135413
0.00140529
0.00144931
0.0014872
0.00151988
0.00154812
0.0015726
0.00159391
0.00161253
0.00162885
0.00164317
0.00165562
0.00166609
0.000951546
0.0010519
0.0011407
0.00121792
0.00128482
0.0013429
0.00139337
0.00143726
0.00147547
0.0015088
0.00153797
0.00156356
0.0015861
0.00160601
0.00162366
0.00163929
0.001653
0.00166455
0.000937267
0.00102693
0.00110962
0.00118334
0.00124794
0.00130435
0.00135363
0.00139678
0.00143466
0.00146803
0.00149754
0.00152373
0.00154707
0.00156792
0.00158662
0.00160337
0.00161819
0.00163072
0.000914067
0.00098252
0.00105001
0.00111402
0.00117278
0.00122568
0.00127282
0.00131464
0.00135171
0.00138464
0.001414
0.00144027
0.00146389
0.0014852
0.00150448
0.00152193
0.00153754
0.00155077
0.000888183
0.000929368
0.000972533
0.00101673
0.00106057
0.00110291
0.00114293
0.00118014
0.00121431
0.00124547
0.00127378
0.0012995
0.00132286
0.00134414
0.00136354
0.00138124
0.00139722
0.0014109
0.000866166
0.000882906
0.00090146
0.00092183
0.000943718
0.000966728
0.000990433
0.00101438
0.00103815
0.00106138
0.0010838
0.00110522
0.00112552
0.00114464
0.00116254
0.00117925
0.00119471
0.00120847
0.000853647
0.000856464
0.000860484
0.000865725
0.000872138
0.000879659
0.000888217
0.000897724
0.000908065
0.000919111
0.000930723
0.000942761
0.000955086
0.000967577
0.000980111
0.000992571
0.00100483
0.00101668
0.000856837
0.000863039
0.000870431
0.000879022
0.000888697
0.000899302
0.00091067
0.000922616
0.000934945
0.000947472
0.000960029
0.000972478
0.000984706
0.000996628
0.00100819
0.00101934
0.00103003
0.00104003
0.000879013
0.00091009
0.000943001
0.000977093
0.00101137
0.00104492
0.00107706
0.00110729
0.00113534
0.00116108
0.00118455
0.00120586
0.00122515
0.00124261
0.0012584
0.00127268
0.00128559
0.00129718
0.000912426
0.00097863
0.00104329
0.00110414
0.00115968
0.00120944
0.00125357
0.00129249
0.00132674
0.00135688
0.00138341
0.00140682
0.00142751
0.00144583
0.00146208
0.00147652
0.00148937
0.00150092
0.000944651
0.00103936
0.00112414
0.00119816
0.00126208
0.00131725
0.00136491
0.00140609
0.0014417
0.00147253
0.00149927
0.00152249
0.0015427
0.00156031
0.00157568
0.00158911
0.00160086
0.00161121
0.000952969
0.00105495
0.00114494
0.00122286
0.00128968
0.0013468
0.00139547
0.00143684
0.00147199
0.00150189
0.00152735
0.00154906
0.00156762
0.00158349
0.00159709
0.00160875
0.00161875
0.00162732
0.000919762
0.00101577
0.00110711
0.00118655
0.00125366
0.00130983
0.00135662
0.00139556
0.00142799
0.00145507
0.00147771
0.00149668
0.00151259
0.00152594
0.00153715
0.00154655
0.00155443
0.00156096
0.00084792
0.000936212
0.00102591
0.00110193
0.0011644
0.00121544
0.00125709
0.00129112
0.00131899
0.00134186
0.00136065
0.00137609
0.00138877
0.00139919
0.00140772
0.00141468
0.00142032
0.0014248
0.000748241
0.000825344
0.000905837
0.000972006
0.00102523
0.00106796
0.00110226
0.00112982
0.00115199
0.00116982
0.00118414
0.00119563
0.00120479
0.00121206
0.00121778
0.00122223
0.00122561
0.00122806
0.000620838
0.000679397
0.000743804
0.000795903
0.000837072
0.000869523
0.000895047
0.000915073
0.000930739
0.000942941
0.000952378
0.000959602
0.000965049
0.000969065
0.000971928
0.000973857
0.000975028
0.000975556
0.000453206
0.00049108
0.000536514
0.000572228
0.00059936
0.000619977
0.00063556
0.00064722
0.00065584
0.0006621
0.00066652
0.000669501
0.000671356
0.000672326
0.000672604
0.000672338
0.000671647
0.00067063
0.00023657
0.000259231
0.000284033
0.000301437
0.000313163
0.000321244
0.000326756
0.000330375
0.000332603
0.000333805
0.000334244
0.000334114
0.000333559
0.00033269
0.00033159
0.000330323
0.00032894
0.000327502
2.7242e-05
3.0171e-05
3.32398e-05
3.54418e-05
3.70548e-05
3.82621e-05
3.91811e-05
3.98938e-05
4.04546e-05
4.09004e-05
4.12579e-05
4.15466e-05
4.17812e-05
4.19726e-05
4.21294e-05
4.22582e-05
4.2364e-05
4.24514e-05
5.16749e-06
1.39393e-05
1.57618e-05
1.70374e-05
1.79437e-05
1.86485e-05
1.94426e-05
2.02364e-05
2.10243e-05
2.18224e-05
2.2659e-05
2.36062e-05
2.47516e-05
2.59632e-05
2.72132e-05
2.84886e-05
2.97864e-05
3.11054e-05
3.24433e-05
3.37963e-05
3.51597e-05
3.65287e-05
3.78984e-05
3.92648e-05
4.06247e-05
4.19762e-05
4.33186e-05
4.46528e-05
4.59813e-05
4.73086e-05
4.86405e-05
4.9954e-05
5.12468e-05
5.25185e-05
5.37689e-05
5.49981e-05
5.62063e-05
5.73938e-05
5.85609e-05
5.97081e-05
6.08358e-05
6.19445e-05
6.30345e-05
6.41062e-05
6.516e-05
6.61962e-05
6.72151e-05
6.82168e-05
6.92017e-05
7.01698e-05
7.11212e-05
7.2056e-05
7.29743e-05
7.38759e-05
7.4761e-05
7.56294e-05
7.6481e-05
7.73158e-05
7.81337e-05
7.89346e-05
7.97183e-05
8.04847e-05
8.12337e-05
8.19651e-05
8.26789e-05
8.33748e-05
8.40528e-05
8.47128e-05
8.53548e-05
8.59787e-05
8.6585e-05
8.7174e-05
8.77468e-05
8.83054e-05
8.88531e-05
8.93837e-05
8.98936e-05
9.03838e-05
9.08546e-05
9.13062e-05
9.17387e-05
9.2152e-05
9.25461e-05
9.29208e-05
9.32763e-05
9.36123e-05
9.39288e-05
9.42259e-05
9.45035e-05
9.47616e-05
9.50002e-05
9.52192e-05
9.54188e-05
9.55989e-05
9.57596e-05
9.59009e-05
9.60228e-05
9.61253e-05
9.62086e-05
9.62727e-05
9.63176e-05
9.63434e-05
9.63501e-05
9.63379e-05
9.63068e-05
9.62569e-05
9.61883e-05
9.61011e-05
9.59952e-05
9.5871e-05
9.57284e-05
9.55675e-05
9.53885e-05
9.51915e-05
9.49767e-05
9.4744e-05
9.44937e-05
9.4226e-05
9.3941e-05
9.36388e-05
9.33196e-05
9.29837e-05
9.26311e-05
9.22622e-05
9.18771e-05
9.14761e-05
9.10594e-05
9.06272e-05
9.01799e-05
8.97177e-05
8.92409e-05
8.87498e-05
8.82447e-05
8.7726e-05
8.7194e-05
8.66491e-05
8.60917e-05
8.55221e-05
8.49406e-05
8.43486e-05
8.37447e-05
8.31332e-05
8.25178e-05
8.19384e-05
8.1512e-05
8.11129e-05
8.07082e-05
8.02957e-05
7.98752e-05
7.94472e-05
7.90119e-05
7.85697e-05
7.8121e-05
7.76662e-05
7.72057e-05
7.674e-05
7.62693e-05
7.57943e-05
7.53151e-05
7.48324e-05
7.43465e-05
7.38577e-05
7.33666e-05
7.28734e-05
7.23786e-05
7.18823e-05
7.1385e-05
7.08868e-05
7.03877e-05
6.98877e-05
6.93864e-05
6.88831e-05
6.83766e-05
6.78645e-05
6.73426e-05
6.68028e-05
6.62274e-05
6.55713e-05
6.47566e-05
6.3696e-05
7.48654e-06
3.4336e-05
6.76824e-05
9.33721e-05
0.000111272
0.000123502
0.000130509
0.000135271
0.000139411
0.000143519
0.000147654
0.000151703
0.000155613
0.000159496
0.000163447
0.000167551
0.000171887
0.000176524
0.000181519
0.000186917
0.000192745
0.000199021
0.000205748
0.000212918
0.000220514
0.000228508
0.000236867
0.000245551
0.000254519
0.000263732
0.000273161
0.000282794
0.000292607
0.000302575
0.000312673
0.000322878
0.00033317
0.00034353
0.000353943
0.000364397
0.000374879
0.000385382
0.000395898
0.00040642
0.000416944
0.000427466
0.000437981
0.000448486
0.000458978
0.000469453
0.000479908
0.00049034
0.000500745
0.000511118
0.000521455
0.000531753
0.000542005
0.000552208
0.000562356
0.000572443
0.000582465
0.000592417
0.000602292
0.000612085
0.000621792
0.000631406
0.000640921
0.000650331
0.000659627
0.000668797
0.000677825
0.000686687
0.000695348
0.000703757
0.000711629
0.000719088
0.000726364
0.000733493
0.000740482
0.000747329
0.000754032
0.000760589
0.000766998
0.000773257
0.000779362
0.000785312
0.000791105
0.000796738
0.000802211
0.00080752
0.000812665
0.000817645
0.000822457
0.000827101
0.000831575
0.000835879
0.000840012
0.000843972
0.000847759
0.000851372
0.000854811
0.000858075
0.000861163
0.000864076
0.000866812
0.000869372
0.000871754
0.00087396
0.000875987
0.000877836
0.000879508
0.000881001
0.000882315
0.000883452
0.000884409
0.000885189
0.00088579
0.000886213
0.000886458
0.000886526
0.000886417
0.000886131
0.000885669
0.000885033
0.000884222
0.000883239
0.000882083
0.000880757
0.000879262
0.000877599
0.000875771
0.000873779
0.000871625
0.000869312
0.000866843
0.000864217
0.000861443
0.000858521
0.00085545
0.000852246
0.000848903
0.00084538
0.000841586
0.000837104
0.000831127
0.00082449
0.000817587
0.000810527
0.000803348
0.000796069
0.000788702
0.000781255
0.000773736
0.000766151
0.000758507
0.00075081
0.000743066
0.00073528
0.000727459
0.000719608
0.000711732
0.000703836
0.000695925
0.000688005
0.000680079
0.000672153
0.00066423
0.000656312
0.000648404
0.000640506
0.000632619
0.000624741
0.000616866
0.000608984
0.000601072
0.000593094
0.000584946
0.000576366
0.000563707
0.000540236
9.05626e-06
5.5588e-05
0.000111441
0.000153827
0.000183246
0.000202696
0.000215737
0.000225165
0.000232899
0.00024005
0.000247164
0.00025447
0.000262083
0.0002701
0.000278616
0.000287731
0.000297544
0.000308146
0.000319609
0.00033199
0.000345316
0.000359596
0.000374812
0.000390927
0.000407888
0.000425629
0.000444073
0.000463141
0.000482754
0.000502838
0.000523324
0.000544155
0.000565274
0.000586627
0.000608169
0.000629858
0.00065166
0.000673546
0.000695491
0.000717476
0.000739485
0.000761505
0.000783525
0.000805536
0.000827531
0.000849504
0.000871447
0.000893355
0.000915221
0.000937039
0.000958801
0.0009805
0.00100213
0.00102367
0.00104513
0.00106649
0.00108773
0.00110886
0.00112985
0.0011507
0.00117138
0.0011919
0.00121224
0.00123237
0.0012523
0.00127199
0.00129145
0.00131064
0.00132955
0.00134815
0.00136641
0.00138429
0.00140176
0.00141876
0.0014351
0.00145098
0.00146652
0.00148174
0.00149666
0.00151127
0.00152556
0.00153954
0.0015532
0.00156654
0.00157954
0.0015922
0.00160453
0.0016165
0.00162813
0.00163941
0.00165032
0.00166088
0.00167107
0.0016809
0.00169036
0.00169945
0.00170817
0.00171651
0.00172448
0.00173207
0.00173928
0.00174611
0.00175256
0.00175862
0.00176431
0.0017696
0.00177452
0.00177904
0.00178319
0.00178694
0.00179031
0.00179329
0.00179588
0.00179809
0.00179991
0.00180134
0.00180239
0.00180305
0.00180332
0.00180321
0.00180272
0.00180184
0.00180059
0.00179896
0.00179695
0.00179457
0.00179182
0.0017887
0.00178521
0.00178137
0.00177717
0.00177262
0.00176773
0.00176249
0.00175692
0.00175103
0.00174482
0.0017383
0.00173147
0.00172435
0.00171694
0.00170913
0.00170078
0.00169152
0.0016808
0.00166912
0.00165688
0.00164426
0.00163135
0.00161819
0.0016048
0.00159122
0.00157746
0.00156353
0.00154944
0.00153522
0.00152087
0.00150641
0.00149184
0.00147719
0.00146245
0.00144765
0.00143279
0.00141788
0.00140294
0.00138797
0.00137298
0.00135798
0.00134297
0.00132796
0.00131295
0.00129793
0.00128288
0.00126779
0.00125258
0.00123716
0.00122125
0.00120415
0.00118246
0.00114528
1.02392e-05
7.44412e-05
0.000146505
0.00020063
0.000238632
0.000265064
0.000283855
0.000298066
0.000309893
0.000320774
0.000331563
0.000342737
0.00035456
0.000367197
0.000380774
0.000395397
0.00041116
0.000428138
0.000446384
0.000465924
0.000486756
0.00050885
0.000532151
0.000556584
0.000582062
0.000608485
0.000635751
0.000663758
0.000692405
0.000721602
0.000751265
0.000781317
0.000811692
0.000842328
0.000873175
0.000904186
0.000935326
0.000966561
0.000997865
0.00102922
0.0010606
0.00109199
0.00112339
0.00115478
0.00118614
0.00121747
0.00124876
0.00128
0.00131118
0.00134228
0.0013733
0.00140421
0.00143502
0.0014657
0.00149624
0.00152662
0.00155683
0.00158686
0.00161667
0.00164626
0.0016756
0.00170468
0.00173348
0.00176197
0.00179014
0.00181797
0.00184543
0.00187249
0.00189914
0.00192535
0.00195108
0.00197632
0.00200103
0.00202509
0.00204852
0.00207143
0.00209387
0.00211586
0.00213741
0.00215852
0.00217918
0.00219939
0.00221914
0.00223842
0.00225723
0.00227556
0.0022934
0.00231075
0.00232759
0.00234394
0.00235977
0.00237509
0.00238989
0.00240417
0.00241792
0.00243115
0.00244384
0.00245599
0.00246761
0.00247868
0.00248921
0.0024992
0.00250863
0.00251752
0.00252586
0.00253365
0.00254089
0.00254757
0.00255369
0.00255926
0.00256427
0.00256873
0.00257262
0.00257596
0.00257874
0.00258096
0.00258263
0.00258373
0.00258428
0.00258428
0.00258372
0.00258261
0.00258095
0.00257875
0.002576
0.0025727
0.00256888
0.00256452
0.00255963
0.00255422
0.00254829
0.00254186
0.00253493
0.0025275
0.00251959
0.00251122
0.00250238
0.00249309
0.00248336
0.00247317
0.00246253
0.00245134
0.00243949
0.00242672
0.00241276
0.00239781
0.00238213
0.00236591
0.00234923
0.00233217
0.00231476
0.00229703
0.00227902
0.00226073
0.0022422
0.00222343
0.00220446
0.00218529
0.00216595
0.00214645
0.0021268
0.00210703
0.00208715
0.00206718
0.00204712
0.002027
0.00200682
0.0019866
0.00196635
0.00194607
0.00192577
0.00190543
0.00188505
0.00186459
0.00184396
0.00182302
0.00180142
0.00177827
0.00175065
0.00171062
1.10983e-05
8.97996e-05
0.000174765
0.000239089
0.000285467
0.000318794
0.000343339
0.000362445
0.000378573
0.000393419
0.000408079
0.000423227
0.000439263
0.00045643
0.000474885
0.000494736
0.000516055
0.000538888
0.000563249
0.000589127
0.000616479
0.000645243
0.000675333
0.00070665
0.000739085
0.000772526
0.00080686
0.000841976
0.000877772
0.00091415
0.000951024
0.000988314
0.00102595
0.00106387
0.00110203
0.00114037
0.00117886
0.00121746
0.00125614
0.00129488
0.00133366
0.00137245
0.00141125
0.00145003
0.00148879
0.0015275
0.00156615
0.00160473
0.00164322
0.0016816
0.00171987
0.001758
0.00179598
0.00183378
0.0018714
0.0019088
0.00194597
0.00198288
0.00201952
0.00205586
0.00209189
0.00212757
0.00216288
0.00219781
0.00223232
0.0022664
0.00230001
0.00233314
0.00236576
0.00239785
0.00242938
0.00246033
0.00249068
0.00252031
0.00254929
0.00257769
0.00260553
0.00263282
0.00265959
0.00268581
0.00271149
0.00273662
0.00276119
0.0027852
0.00280863
0.00283147
0.00285373
0.00287539
0.00289644
0.00291688
0.0029367
0.0029559
0.00297447
0.0029924
0.0030097
0.00302635
0.00304235
0.0030577
0.00307239
0.00308643
0.0030998
0.0031125
0.00312454
0.00313591
0.0031466
0.00315662
0.00316597
0.00317463
0.00318261
0.00318991
0.00319653
0.00320246
0.00320771
0.00321227
0.00321614
0.00321933
0.00322182
0.00322364
0.00322476
0.0032252
0.00322496
0.00322403
0.00322243
0.00322014
0.00321718
0.00321356
0.00320926
0.00320431
0.0031987
0.00319244
0.00318554
0.00317801
0.00316986
0.00316109
0.00315172
0.00314177
0.00313123
0.00312011
0.00310844
0.00309619
0.00308336
0.00306989
0.00305569
0.00304061
0.00302452
0.00300748
0.00298966
0.00297118
0.00295213
0.00293258
0.00291258
0.00289216
0.00287135
0.00285019
0.00282869
0.00280687
0.00278477
0.0027624
0.00273978
0.00271693
0.00269388
0.00267064
0.00264723
0.00262368
0.0026
0.00257621
0.00255233
0.00252837
0.00250435
0.00248027
0.00245615
0.00243198
0.00240774
0.00238342
0.00235891
0.00233408
0.00230855
0.00228149
0.00225066
0.00221152
1.18996e-05
0.000100088
0.000196133
0.000270297
0.000324993
0.000365325
0.000395814
0.000420038
0.00044068
0.000459656
0.000478263
0.000497343
0.00051742
0.000538813
0.00056171
0.000586222
0.000612405
0.000640275
0.000669813
0.000700977
0.000733696
0.000767885
0.00080344
0.000840252
0.000878203
0.000917178
0.000957062
0.000997746
0.00103913
0.00108111
0.00112361
0.00116655
0.00120985
0.00125346
0.00129732
0.00134139
0.00138562
0.00142997
0.00147441
0.00151892
0.00156347
0.00160804
0.0016526
0.00169714
0.00174163
0.00178606
0.00183041
0.00187467
0.0019188
0.00196281
0.00200665
0.00205032
0.0020938
0.00213706
0.00218008
0.00222283
0.0022653
0.00230747
0.0023493
0.00239078
0.00243187
0.00247256
0.00251283
0.00255263
0.00259196
0.00263079
0.00266909
0.00270684
0.00274402
0.00278061
0.00281658
0.00285192
0.0028866
0.00292054
0.0029538
0.00298643
0.00301844
0.00304986
0.00308067
0.00311088
0.00314049
0.00316948
0.00319784
0.00322557
0.00325266
0.00327909
0.00330487
0.00332998
0.00335441
0.00337815
0.00340121
0.00342356
0.00344521
0.00346615
0.00348638
0.00350587
0.00352465
0.00354268
0.00355998
0.00357654
0.00359234
0.0036074
0.00362171
0.00363526
0.00364804
0.00366007
0.00367133
0.00368181
0.00369153
0.00370047
0.00370864
0.00371603
0.00372265
0.00372848
0.00373353
0.00373779
0.00374128
0.00374398
0.0037459
0.00374703
0.00374738
0.00374696
0.00374576
0.00374378
0.00374103
0.00373751
0.00373322
0.00372818
0.00372239
0.00371585
0.00370857
0.00370056
0.00369183
0.0036824
0.00367226
0.00366144
0.00364994
0.00363777
0.00362495
0.00361146
0.0035973
0.00358244
0.00356681
0.00355033
0.00353294
0.00351465
0.00349556
0.00347574
0.00345528
0.00343424
0.00341265
0.00339057
0.00336801
0.00334502
0.00332162
0.00329784
0.00327369
0.00324921
0.00322441
0.00319933
0.00317398
0.00314839
0.00312257
0.00309656
0.00307038
0.00304404
0.00301757
0.00299099
0.00296431
0.00293755
0.00291073
0.00288384
0.00285689
0.00282985
0.00280266
0.00277517
0.00274707
0.00271764
0.0026853
0.00264776
1.28488e-05
0.000105039
0.000210698
0.000294375
0.000357346
0.000404769
0.000441363
0.000470895
0.000496227
0.000519448
0.000542022
0.00056493
0.000588806
0.000614042
0.000640866
0.0006694
0.000699694
0.000731748
0.000765526
0.000800965
0.00083798
0.000876472
0.000916334
0.000957449
0.000999703
0.00104298
0.00108717
0.00113216
0.00117786
0.00122417
0.00127101
0.0013183
0.00136598
0.00141397
0.00146223
0.0015107
0.00155935
0.00160812
0.001657
0.00170593
0.0017549
0.00180388
0.00185285
0.00190178
0.00195064
0.00199943
0.00204811
0.00209667
0.00214508
0.00219333
0.00224139
0.00228924
0.00233686
0.00238423
0.00243132
0.00247811
0.00252457
0.00257069
0.00261643
0.00266177
0.00270669
0.00275116
0.00279516
0.00283866
0.00288163
0.00292407
0.00296593
0.00300721
0.00304788
0.00308791
0.0031273
0.00316603
0.00320403
0.00324129
0.00327787
0.00331379
0.00334906
0.0033837
0.0034177
0.00345106
0.00348377
0.00351583
0.00354722
0.00357794
0.00360797
0.00363731
0.00366595
0.00369387
0.00372106
0.00374753
0.00377326
0.00379823
0.00382246
0.00384592
0.00386861
0.00389052
0.00391165
0.00393199
0.00395154
0.00397028
0.00398822
0.00400535
0.00402166
0.00403716
0.00405183
0.00406568
0.0040787
0.00409088
0.00410223
0.00411273
0.00412239
0.00413121
0.00413918
0.00414631
0.00415258
0.00415799
0.00416256
0.00416627
0.00416913
0.00417113
0.00417227
0.00417256
0.00417201
0.00417061
0.00416835
0.00416525
0.00416132
0.00415656
0.00415096
0.00414454
0.00413731
0.00412928
0.00412045
0.00411083
0.00410045
0.0040893
0.0040774
0.00406477
0.00405139
0.00403729
0.00402245
0.00400686
0.00399048
0.00397326
0.00395518
0.00393624
0.00391648
0.00389597
0.00387477
0.00385292
0.00383046
0.00380744
0.00378388
0.00375982
0.00373529
0.00371031
0.00368491
0.00365911
0.00363294
0.00360643
0.0035796
0.00355248
0.00352509
0.00349745
0.00346959
0.00344154
0.00341332
0.00338495
0.00335645
0.00332786
0.00329917
0.00327043
0.00324162
0.00321274
0.00318374
0.00315452
0.00312483
0.00309409
0.00306123
0.003025
1.36152e-05
0.000107372
0.000220251
0.000312221
0.000382921
0.000437235
0.000479909
0.000514805
0.000544899
0.000572402
0.000598899
0.000625487
0.000652893
0.000681579
0.000711818
0.000743756
0.000777452
0.000812906
0.000850077
0.000888894
0.000929271
0.000971104
0.00101428
0.0010587
0.00110424
0.00115079
0.00119824
0.00124649
0.00129545
0.00134502
0.00139513
0.00144569
0.00149664
0.00154792
0.00159946
0.00165123
0.00170317
0.00175523
0.0018074
0.00185962
0.00191186
0.00196411
0.00201633
0.0020685
0.00212059
0.00217258
0.00222445
0.00227617
0.00232774
0.00237911
0.00243027
0.00248121
0.00253189
0.00258229
0.00263239
0.00268217
0.0027316
0.00278065
0.00282931
0.00287755
0.00292533
0.00297265
0.00301947
0.00306577
0.00311152
0.00315671
0.00320131
0.00324529
0.00328865
0.00333136
0.0033734
0.00341476
0.00345536
0.00349525
0.00353445
0.00357298
0.00361086
0.00364809
0.00368466
0.00372057
0.00375582
0.00379039
0.00382428
0.00385747
0.00388994
0.0039217
0.00395273
0.00398302
0.00401256
0.00404133
0.00406933
0.00409656
0.00412299
0.00414863
0.00417346
0.00419748
0.00422068
0.00424306
0.00426459
0.00428529
0.00430513
0.00432413
0.00434226
0.00435953
0.00437594
0.00439148
0.00440614
0.00441991
0.0044328
0.0044448
0.00445591
0.00446613
0.00447545
0.00448387
0.00449138
0.00449799
0.00450369
0.00450849
0.00451238
0.00451536
0.00451743
0.00451858
0.00451884
0.0045182
0.00451665
0.00451419
0.00451083
0.00450659
0.00450146
0.00449545
0.00448858
0.00448084
0.00447225
0.00446283
0.00445257
0.00444149
0.0044296
0.00441692
0.00440344
0.00438918
0.00437414
0.0043583
0.00434165
0.00432418
0.00430586
0.00428669
0.00426672
0.00424597
0.00422449
0.00420231
0.00417949
0.00415605
0.00413202
0.00410743
0.00408232
0.00405671
0.00403063
0.0040041
0.00397715
0.00394981
0.00392211
0.00389406
0.0038657
0.00383705
0.00380814
0.003779
0.00374965
0.00372012
0.00369044
0.00366064
0.00363074
0.00360077
0.00357075
0.00354068
0.00351054
0.00348027
0.00344967
0.00341834
0.0033855
0.00335047
1.42169e-05
0.000107786
0.000225691
0.000324546
0.000402182
0.000462963
0.000511505
0.000551668
0.00058647
0.000618192
0.000648502
0.000678582
0.000709237
0.000740992
0.000774172
0.000808954
0.000845419
0.00088358
0.000923402
0.00096482
0.00100775
0.0010521
0.00109775
0.0011446
0.00119255
0.00124149
0.0012913
0.00134191
0.00139321
0.00144511
0.00149754
0.00155043
0.00160369
0.00165728
0.00171114
0.00176521
0.00181945
0.00187381
0.00192827
0.00198277
0.00203729
0.00209181
0.00214629
0.00220071
0.00225504
0.00230926
0.00236336
0.0024173
0.00247107
0.00252465
0.00257801
0.00263114
0.002684
0.00273659
0.00278887
0.00284082
0.00289242
0.00294364
0.00299446
0.00304486
0.00309481
0.00314428
0.00319324
0.00324169
0.00328958
0.0033369
0.00338363
0.00342974
0.00347521
0.00352003
0.00356418
0.00360763
0.00365034
0.00369236
0.00373371
0.0037744
0.00381444
0.00385383
0.00389256
0.00393063
0.00396803
0.00400474
0.00404076
0.00407607
0.00411066
0.00414451
0.00417763
0.00420998
0.00424157
0.00427237
0.00430239
0.0043316
0.00436001
0.00438759
0.00441435
0.00444027
0.00446534
0.00448956
0.00451291
0.00453539
0.00455699
0.00457771
0.00459754
0.00461647
0.0046345
0.00465163
0.00466785
0.00468315
0.00469752
0.00471097
0.00472349
0.00473507
0.00474573
0.00475545
0.00476422
0.00477204
0.00477892
0.00478485
0.00478984
0.00479388
0.00479695
0.00479907
0.00480024
0.00480047
0.00479975
0.00479809
0.00479548
0.00479195
0.00478748
0.0047821
0.0047758
0.0047686
0.0047605
0.00475152
0.00474166
0.00473094
0.00471936
0.00470694
0.00469369
0.00467961
0.00466471
0.00464898
0.00463243
0.00461504
0.00459681
0.00457775
0.00455787
0.00453721
0.00451579
0.00449365
0.00447082
0.00444733
0.00442321
0.0043985
0.00437321
0.00434738
0.00432104
0.00429421
0.00426692
0.00423919
0.00421105
0.00418254
0.00415367
0.00412447
0.00409497
0.00406521
0.00403521
0.004005
0.00397461
0.00394409
0.00391345
0.00388274
0.00385199
0.00382122
0.00379044
0.00375961
0.00372859
0.0036971
0.0036646
0.00363067
1.46761e-05
0.000106721
0.000227691
0.000331997
0.000415646
0.000482316
0.000536364
0.000581554
0.000620889
0.000656672
0.000690617
0.000723962
0.000757575
0.000792038
0.000827722
0.000864845
0.000903518
0.000943774
0.000985596
0.00102893
0.00107371
0.00111983
0.0011672
0.00121573
0.0012653
0.00131583
0.0013672
0.00141933
0.00147213
0.00152551
0.0015794
0.00163373
0.00168843
0.00174344
0.00179871
0.00185418
0.00190981
0.00196556
0.0020214
0.00207728
0.00213319
0.00218908
0.00224495
0.00230075
0.00235648
0.0024121
0.00246761
0.00252298
0.00257818
0.00263321
0.00268803
0.00274264
0.002797
0.0028511
0.00290492
0.00295843
0.0030116
0.00306442
0.00311685
0.00316887
0.00322046
0.00327159
0.00332223
0.00337235
0.00342194
0.00347097
0.0035194
0.00356723
0.00361443
0.00366098
0.00370686
0.00375204
0.00379654
0.00384038
0.00388358
0.00392613
0.00396805
0.00400932
0.00404995
0.00408992
0.00412922
0.00416784
0.00420576
0.00424298
0.00427947
0.00431521
0.00435021
0.00438444
0.00441789
0.00445055
0.00448241
0.00451345
0.00454367
0.00457305
0.00460159
0.00462927
0.00465609
0.00468203
0.00470708
0.00473124
0.00475449
0.00477684
0.00479827
0.00481878
0.00483837
0.00485703
0.00487475
0.00489152
0.00490734
0.0049222
0.0049361
0.00494904
0.00496103
0.00497206
0.00498209
0.00499114
0.00499921
0.00500631
0.00501242
0.00501756
0.0050217
0.00502486
0.00502704
0.00502824
0.00502846
0.0050277
0.00502597
0.00502328
0.00501963
0.00501502
0.00500947
0.00500297
0.00499555
0.00498721
0.00497795
0.0049678
0.00495676
0.00494483
0.00493204
0.0049184
0.00490389
0.00488855
0.00487235
0.00485531
0.00483743
0.00481871
0.00479918
0.00477884
0.00475774
0.00473589
0.00471332
0.00469006
0.00466614
0.00464159
0.00461644
0.0045907
0.00456442
0.00453761
0.0045103
0.00448252
0.00445429
0.00442565
0.00439661
0.00436722
0.0043375
0.00430747
0.00427718
0.00424665
0.00421593
0.00418504
0.00415404
0.00412296
0.00409184
0.00406074
0.00402966
0.00399862
0.00396752
0.00393616
0.00390415
0.00387124
1.50108e-05
0.000104531
0.000226844
0.000335194
0.000423863
0.000495737
0.000554809
0.000604675
0.000648266
0.000687864
0.000725199
0.000761542
0.000797805
0.000834618
0.000872395
0.000911395
0.000951762
0.000993556
0.00103678
0.0010814
0.00112736
0.00117458
0.00122297
0.00127244
0.00132289
0.00137424
0.00142638
0.00147923
0.00153271
0.00158675
0.00164126
0.00169618
0.00175145
0.00180702
0.00186283
0.00191884
0.00197501
0.0020313
0.00208768
0.00214412
0.00220059
0.00225707
0.00231354
0.00236998
0.00242638
0.0024827
0.00253894
0.00259507
0.00265109
0.00270697
0.00276269
0.00281823
0.00287358
0.0029287
0.00298359
0.0030382
0.00309253
0.00314654
0.0032002
0.0032535
0.00330638
0.00335884
0.00341084
0.00346235
0.00351334
0.00356379
0.00361367
0.00366296
0.00371163
0.00375966
0.00380704
0.00385377
0.00389986
0.00394534
0.0039902
0.00403445
0.00407808
0.00412109
0.00416346
0.00420519
0.00424625
0.00428664
0.00432633
0.00436532
0.00440358
0.0044411
0.00447786
0.00451385
0.00454905
0.00458346
0.00461705
0.00464982
0.00468175
0.00471283
0.00474306
0.00477242
0.0048009
0.00482849
0.00485516
0.00488093
0.00490577
0.00492968
0.00495266
0.0049747
0.00499579
0.00501595
0.00503515
0.00505336
0.0050706
0.00508685
0.00510212
0.0051164
0.0051297
0.00514201
0.00515331
0.00516361
0.00517291
0.0051812
0.00518848
0.00519476
0.00520003
0.00520429
0.00520754
0.00520979
0.00521103
0.00521128
0.00521052
0.00520878
0.00520605
0.00520234
0.00519766
0.00519201
0.0051854
0.00517785
0.00516935
0.00515993
0.0051496
0.00513835
0.00512622
0.00511319
0.00509929
0.00508452
0.00506889
0.0050524
0.00503507
0.00501689
0.00499789
0.00497808
0.00495748
0.00493612
0.00491403
0.00489122
0.00486772
0.00484356
0.00481877
0.00479337
0.00476739
0.00474085
0.00471378
0.0046862
0.00465815
0.00462965
0.00460073
0.00457141
0.00454173
0.00451173
0.00448143
0.00445087
0.00442008
0.00438913
0.00435804
0.00432687
0.00429568
0.00426451
0.00423341
0.0042024
0.00417144
0.00414039
0.00410896
0.00407698
1.52351e-05
0.000101512
0.000223676
0.00033472
0.00042738
0.000503698
0.000567223
0.000621319
0.000668795
0.000711882
0.000752294
0.000791316
0.000829886
0.00086867
0.000908121
0.000948534
0.000990085
0.00103287
0.0010769
0.00112219
0.00116867
0.00121629
0.00126497
0.00131463
0.00136518
0.00141655
0.00146865
0.00152139
0.00157471
0.00162854
0.0016828
0.00173745
0.00179243
0.00184769
0.0019032
0.00195891
0.00201479
0.00207082
0.00212696
0.00218321
0.00223953
0.00229591
0.00235234
0.00240879
0.00246526
0.00252172
0.00257817
0.00263459
0.00269096
0.00274726
0.00280347
0.00285959
0.00291557
0.00297141
0.00302706
0.00308252
0.00313775
0.00319272
0.0032474
0.00330175
0.00335575
0.00340936
0.00346255
0.00351528
0.00356752
0.00361925
0.00367042
0.00372102
0.00377102
0.0038204
0.00386917
0.00391736
0.00396497