/*--------------------------------*- C++ -*----------------------------------*\
| =========                 |                                                 |
| \\      /  F ield         | OpenFOAM: The Open Source CFD Toolbox           |
|  \\    /   O peration     | Version:  2412                                  |
|   \\  /    A nd           | Website:  www.openfoam.com                      |
|    \\/     M anipulation  |                                                 |
\*---------------------------------------------------------------------------*/
FoamFile
{
    version     2.0;
    format      ascii;
    arch        "LSB;label=32;scalar=64";
    class       volScalarField;
    location    "0.18";
    object      p;
}
// * * * * * * * * * * * * * * * * * * * * * * * * * * * * * * * * * * * * * //

dimensions      [0 2 -2 0 0 0 0];

internalField   nonuniform List<scalar> 
12225
(
-10.3309
-9.7385
-9.07579
-8.51936
-8.0103
-7.55385
-7.15529
-6.80427
-6.49189
-6.21258
-5.96143
-5.73394
-5.52627
-5.33507
-5.15729
-4.98943
-4.82928
-4.66247
-10.7646
-9.79669
-9.11061
-8.56034
-8.0506
-7.5941
-7.1949
-6.84247
-6.52846
-6.24746
-5.99457
-5.76535
-5.55597
-5.36309
-5.18363
-5.01423
-4.85204
-4.69381
-10.9451
-9.83096
-9.15235
-8.6112
-8.10099
-7.64537
-7.2463
-6.89282
-6.57727
-6.29447
-6.03965
-5.80841
-5.597
-5.40211
-5.22072
-5.04964
-4.88601
-4.72475
-10.9689
-9.84667
-9.17703
-8.64516
-8.13765
-7.68488
-7.28768
-6.93475
-6.61904
-6.33565
-6.0799
-5.84755
-5.63495
-5.43889
-5.25643
-5.08483
-4.9208
-4.76347
-10.8988
-9.84139
-9.17732
-8.65594
-8.15546
-7.70762
-7.31398
-6.96326
-6.64884
-6.36613
-6.11062
-5.87824
-5.66548
-5.4693
-5.28692
-5.1161
-4.95351
-4.80405
-10.757
-9.80825
-9.15383
-8.64508
-8.15624
-7.71559
-7.32711
-6.98008
-6.66823
-6.38729
-6.13302
-5.90152
-5.6895
-5.49412
-5.31282
-5.14391
-4.9842
-4.84331
-10.5544
-9.74182
-9.10759
-8.61339
-8.14066
-7.70999
-7.3284
-6.98658
-6.67855
-6.40043
-6.14831
-5.91856
-5.70811
-5.51435
-5.33504
-5.16894
-5.0131
-4.88052
-10.3014
-9.63949
-9.03941
-8.56145
-8.10864
-7.6912
-7.31846
-6.98341
-6.68052
-6.4063
-6.15728
-5.93014
-5.72208
-5.53078
-5.35426
-5.19171
-5.04041
-4.91572
-10.009
-9.50096
-8.95044
-8.49088
-8.06072
-7.65981
-7.29803
-6.97134
-6.67493
-6.40575
-6.16079
-5.93713
-5.73228
-5.54421
-5.37124
-5.21285
-5.0665
-4.94917
-9.68827
-9.32822
-8.84203
-8.40455
-7.99859
-7.61713
-7.26843
-6.95159
-6.66295
-6.39989
-6.15994
-5.94062
-5.73976
-5.55564
-5.38686
-5.23311
-5.09193
-4.98133
-9.35138
-9.12605
-8.71583
-8.30601
-7.92518
-7.5654
-7.23176
-6.92605
-6.64626
-6.3903
-6.15621
-5.94198
-5.7458
-5.56626
-5.40217
-5.2534
-5.11737
-5.01305
-9.0394
-8.92029
-8.5861
-8.20785
-7.85096
-7.51252
-7.19435
-6.89986
-6.62892
-6.38017
-6.15208
-5.94307
-5.75168
-5.57675
-5.41728
-5.27325
-5.14174
-5.04305
-8.74441
-8.70593
-8.44757
-8.10564
-7.77296
-7.45652
-7.15511
-6.87263
-6.61104
-6.36994
-6.14827
-5.94485
-5.75856
-5.58848
-5.43377
-5.29444
-5.16786
-5.07253
-8.43737
-8.46152
-8.28201
-7.98616
-7.68223
-7.39133
-7.11064
-6.84321
-6.59298
-6.36111
-6.14717
-5.95044
-5.77017
-5.60574
-5.45646
-5.32235
-5.20112
-5.10832
-8.14031
-8.20732
-8.09946
-7.85549
-7.58401
-7.32069
-7.06396
-6.81489
-6.57847
-6.35764
-6.15292
-5.96405
-5.79071
-5.63257
-5.48917
-5.36054
-5.24457
-5.1539
-7.88196
-7.9753
-7.9251
-7.73217
-7.49402
-7.25709
-7.02412
-6.79458
-6.5733
-6.36465
-6.17024
-5.99025
-5.82465
-5.67335
-5.53607
-5.4129
-5.30192
-5.21282
-7.69443
-7.80253
-7.79381
-7.64499
-7.43823
-7.22468
-7.01224
-6.80011
-6.59248
-6.39461
-6.20917
-6.03688
-5.8779
-5.73235
-5.59999
-5.48083
-5.37328
-5.28331
-7.61801
-7.73033
-7.74284
-7.62121
-7.43624
-7.23933
-7.04151
-6.84228
-6.6452
-6.45572
-6.2771
-6.11041
-5.95583
-5.81338
-5.68299
-5.56442
-5.45665
-5.36099
-7.71755
-7.82458
-7.83092
-7.70428
-7.51608
-7.31736
-7.11873
-6.91952
-6.7231
-6.53472
-6.35739
-6.19194
-6.03836
-5.89644
-5.76586
-5.64593
-5.53637
-5.43405
-7.99397
-8.08839
-8.05497
-7.88342
-7.66187
-7.43918
-7.22081
-7.00549
-6.79719
-6.60042
-6.41708
-6.24719
-6.09032
-5.94587
-5.81315
-5.69107
-5.57938
-5.47242
-8.38747
-8.44559
-8.34321
-8.1088
-7.84448
-7.58955
-7.34345
-7.1057
-6.88065
-6.67143
-6.47846
-6.30107
-6.13838
-5.98946
-5.85332
-5.72874
-5.61529
-5.507
-8.88794
-8.86767
-8.65947
-8.3497
-8.03768
-7.74371
-7.46405
-7.20058
-6.95679
-6.73345
-6.52954
-6.3437
-6.17455
-6.02069
-5.88078
-5.7534
-5.63778
-5.52821
-9.45201
-9.29643
-8.95254
-8.56968
-8.21308
-7.87958
-7.5676
-7.281
-7.02047
-6.78426
-6.57032
-6.37673
-6.20158
-6.04304
-5.89947
-5.76927
-5.65139
-5.54074
-10.0165
-9.67047
-9.18738
-8.74959
-8.35567
-7.98616
-7.64675
-7.3411
-7.06634
-6.81897
-6.59637
-6.39609
-6.21574
-6.05311
-5.90632
-5.77359
-5.65366
-5.54212
-10.5205
-9.952
-9.35635
-8.88455
-8.45798
-8.05751
-7.69671
-7.37625
-7.09015
-6.834
-6.60472
-6.39935
-6.21506
-6.04937
-5.90017
-5.76557
-5.64414
-5.53212
-10.922
-10.1296
-9.46311
-8.97098
-8.51587
-8.09196
-7.71625
-7.38521
-7.09095
-6.82866
-6.59482
-6.38602
-6.19913
-6.03147
-5.88077
-5.74502
-5.6227
-5.51064
-11.1933
-10.2131
-9.51334
-9.00665
-8.5303
-8.09152
-7.7063
-7.3683
-7.06887
-6.80286
-6.56638
-6.35572
-6.16754
-5.999
-5.84772
-5.71162
-5.58911
-5.47756
-11.3006
-10.2285
-9.51399
-8.99093
-8.50255
-8.05621
-7.66541
-7.3236
-7.02184
-6.75447
-6.51731
-6.30645
-6.1184
-5.95021
-5.79943
-5.66392
-5.54201
-5.43165
-11.1679
-10.1987
-9.47897
-8.9333
-8.44
-7.99134
-7.59819
-7.25554
-6.95411
-6.68764
-6.4517
-6.24228
-6.05577
-5.88916
-5.73993
-5.60594
-5.48541
-5.37662
-10.6368
-10.1064
-9.43639
-8.87639
-8.38134
-7.93243
-7.53883
-7.19681
-6.89671
-6.63179
-6.39748
-6.1897
-6.00482
-5.83978
-5.69203
-5.55943
-5.44013
-5.33232
-4.72056
-4.72028
-4.72139
-4.72359
-4.72629
-4.7291
-4.73197
-4.73503
-4.73834
-4.74195
-4.74596
-4.75047
-4.75558
-4.76139
-4.768
-4.77552
-4.78405
-4.79373
-4.80466
-4.81696
-4.83072
-4.84604
-4.86296
-4.88152
-4.90171
-4.92348
-4.94677
-4.97147
-4.99747
-5.02458
-5.05255
-5.08113
-5.11012
-5.13932
-5.16852
-5.19752
-5.22614
-5.25419
-5.28149
-5.30788
-5.3332
-5.35728
-5.38
-5.40119
-5.42074
-5.43851
-5.45437
-5.46819
-5.47986
-5.48926
-5.49628
-5.50079
-5.5027
-5.50188
-5.49825
-5.49169
-5.48211
-5.46941
-5.45352
-5.43433
-5.41178
-5.38579
-5.35629
-5.32322
-5.28651
-5.24614
-5.20204
-5.15419
-5.10256
-5.04713
-4.98791
-4.92494
-4.85828
-4.78791
-4.71375
-4.63558
-4.55344
-4.46746
-4.37771
-4.28426
-4.18715
-4.08645
-3.98219
-3.87443
-3.76325
-3.64871
-3.53088
-3.40985
-3.28569
-3.1585
-3.02837
-2.89539
-2.75967
-2.62132
-2.48045
-2.33716
-2.19158
-2.04382
-1.89401
-1.74228
-1.58874
-1.43355
-1.27681
-1.11869
-0.959297
-0.798786
-0.637294
-0.474962
-0.311933
-0.14835
0.0156431
0.179901
0.344281
0.508637
0.672827
0.836706
1.00013
1.16297
1.32507
1.48631
1.64654
1.80564
1.96348
2.11992
2.27485
2.42815
2.5797
2.72939
2.87712
3.02279
3.1663
3.30756
3.44649
3.58301
3.71704
3.84852
3.97739
4.1036
4.2271
4.34785
4.46584
4.58104
4.69343
4.803
4.90966
5.01336
5.11409
5.21189
5.30678
5.39879
5.48794
5.57427
5.65779
5.73854
5.81655
5.89186
5.96449
6.03449
6.1019
6.16675
6.22909
6.28895
6.34638
6.40142
6.45411
6.5045
6.55264
6.59857
6.64237
6.68409
6.72385
6.76177
6.79805
6.83298
6.86707
6.90114
6.93712
6.97819
7.03625
7.11176
-4.72002
-4.72045
-4.72165
-4.72354
-4.72554
-4.72731
-4.72876
-4.73005
-4.73148
-4.73331
-4.73568
-4.73866
-4.74231
-4.7467
-4.75193
-4.75812
-4.76542
-4.77396
-4.78389
-4.79536
-4.80848
-4.82333
-4.83999
-4.85847
-4.87874
-4.90073
-4.92432
-4.94939
-4.97574
-5.00318
-5.03146
-5.06035
-5.08964
-5.11911
-5.14854
-5.17776
-5.20656
-5.23477
-5.26223
-5.28877
-5.31424
-5.3385
-5.3614
-5.38281
-5.40261
-5.42066
-5.43685
-5.45104
-5.46313
-5.47299
-5.4805
-5.48557
-5.48807
-5.4879
-5.48495
-5.47912
-5.47032
-5.45844
-5.44341
-5.42512
-5.40351
-5.3785
-5.35002
-5.31801
-5.28241
-5.24317
-5.20024
-5.1536
-5.10321
-5.04904
-4.99107
-4.92927
-4.8636
-4.794
-4.72034
-4.64291
-4.56184
-4.47705
-4.38856
-4.29638
-4.20056
-4.10113
-3.99814
-3.89165
-3.78173
-3.66843
-3.55183
-3.43201
-3.30905
-3.18303
-3.05406
-2.92222
-2.78761
-2.65035
-2.51054
-2.36829
-2.22371
-2.07693
-1.92807
-1.77726
-1.62461
-1.47027
-1.31435
-1.15701
-0.998373
-0.838577
-0.677764
-0.516073
-0.353647
-0.19063
-0.0271634
0.136607
0.300539
0.464488
0.62831
0.791862
0.955004
1.11759
1.27949
1.44057
1.60068
1.75969
1.91749
2.07393
2.22889
2.38227
2.53394
2.68378
2.83171
2.9776
3.12138
3.26293
3.40219
3.53907
3.6735
3.80541
3.93474
4.06144
4.18546
4.30676
4.42532
4.54112
4.65413
4.76432
4.87161
4.97597
5.07739
5.1759
5.27151
5.36424
5.45413
5.54118
5.62544
5.70692
5.78566
5.86169
5.93505
6.00577
6.07389
6.13945
6.20248
6.26303
6.32113
6.37684
6.43018
6.48122
6.52999
6.57655
6.62097
6.66332
6.70372
6.7423
6.77927
6.81497
6.84992
6.88498
6.9221
6.96341
7.01962
7.08611
-4.71313
-4.71538
-4.71784
-4.72019
-4.72193
-4.72302
-4.7237
-4.72427
-4.72502
-4.72614
-4.7278
-4.73012
-4.73321
-4.7372
-4.74221
-4.7484
-4.75588
-4.76481
-4.7753
-4.78743
-4.80129
-4.81689
-4.83423
-4.85328
-4.87396
-4.89618
-4.91979
-4.94464
-4.97058
-4.99741
-5.02494
-5.05298
-5.08134
-5.10982
-5.13827
-5.16649
-5.19433
-5.22162
-5.24821
-5.27396
-5.29871
-5.32233
-5.34468
-5.36564
-5.38507
-5.40284
-5.41884
-5.43294
-5.44502
-5.45496
-5.46264
-5.46795
-5.47078
-5.47102
-5.46856
-5.46329
-5.45512
-5.44394
-5.42968
-5.41223
-5.39151
-5.36746
-5.33999
-5.30904
-5.27455
-5.23647
-5.19475
-5.14934
-5.10022
-5.04735
-4.99071
-4.93026
-4.86596
-4.79782
-4.72581
-4.65
-4.57044
-4.48717
-4.40019
-4.30953
-4.21524
-4.11734
-4.01588
-3.91092
-3.80252
-3.69073
-3.57564
-3.45731
-3.33582
-3.21127
-3.08373
-2.95331
-2.8201
-2.68421
-2.54574
-2.40481
-2.26152
-2.116
-1.96836
-1.81874
-1.66724
-1.51402
-1.35919
-1.20289
-1.04525
-0.88641
-0.726512
-0.565693
-0.404095
-0.24186
-0.0791288
0.083954
0.247246
0.410603
0.573883
0.736944
0.899645
1.06184
1.2234
1.38419
1.54406
1.70289
1.86055
2.01691
2.17185
2.32524
2.47698
2.62694
2.77504
2.92115
3.06518
3.20705
3.34667
3.48395
3.61882
3.75121
3.88107
4.00833
4.13294
4.25487
4.37407
4.49053
4.6042
4.71507
4.82311
4.9283
5.03061
5.13003
5.22657
5.32025
5.41108
5.49909
5.58429
5.66673
5.74641
5.82339
5.89768
5.96933
6.03836
6.10482
6.16875
6.23017
6.28914
6.34569
6.39987
6.45173
6.50131
6.54866
6.59387
6.63701
6.6782
6.71759
6.75541
6.79199
6.82792
6.864
6.90212
6.94354
6.99752
7.05094
-4.70023
-4.70463
-4.70931
-4.71308
-4.71557
-4.71712
-4.71815
-4.71903
-4.72005
-4.72146
-4.72344
-4.72615
-4.72975
-4.73436
-4.74012
-4.74716
-4.75558
-4.76549
-4.77696
-4.79003
-4.80472
-4.82102
-4.83889
-4.85828
-4.8791
-4.90124
-4.92458
-4.94898
-4.97431
-5.00039
-5.02707
-5.0542
-5.08159
-5.10911
-5.13658
-5.16385
-5.19077
-5.2172
-5.24298
-5.26798
-5.29206
-5.31508
-5.33691
-5.35742
-5.37648
-5.39397
-5.40975
-5.42372
-5.43573
-5.44568
-5.45345
-5.45891
-5.46196
-5.46247
-5.46035
-5.45549
-5.44777
-5.43711
-5.42341
-5.40658
-5.38654
-5.36319
-5.33648
-5.30632
-5.27266
-5.23545
-5.19462
-5.15013
-5.10195
-5.05004
-4.99437
-4.93491
-4.87164
-4.80455
-4.73368
-4.65905
-4.58068
-4.49859
-4.41281
-4.32336
-4.23027
-4.13359
-4.03335
-3.92961
-3.82242
-3.71185
-3.59796
-3.48082
-3.36053
-3.23715
-3.11078
-2.98151
-2.84944
-2.71467
-2.5773
-2.43744
-2.29521
-2.15073
-2.0041
-1.85546
-1.70492
-1.55262
-1.39869
-1.24325
-1.08645
-0.928417
-0.769287
-0.609201
-0.4483
-0.286725
-0.124616
0.0378824
0.200629
0.363481
0.526297
0.688935
0.851253
1.01311
1.17438
1.3349
1.49457
1.65323
1.81076
1.96703
2.12193
2.27533
2.42711
2.57716
2.72538
2.87166
3.0159
3.15802
3.29792
3.43552
3.57075
3.70354
3.83382
3.96154
4.08664
4.2091
4.32886
4.44589
4.56015
4.67159
4.78022
4.88604
4.98902
5.08915
5.18642
5.28084
5.37243
5.4612
5.54718
5.63038
5.71084
5.78859
5.86366
5.93607
6.00587
6.07308
6.13775
6.19992
6.25961
6.31688
6.37177
6.42432
6.47458
6.52262
6.56849
6.61229
6.65414
6.69419
6.73268
6.76993
6.80648
6.84308
6.88129
6.92158
6.97124
7.01226
-4.68458
-4.69127
-4.69875
-4.70464
-4.70858
-4.71126
-4.71328
-4.71507
-4.71698
-4.71928
-4.7222
-4.72592
-4.73059
-4.73634
-4.74329
-4.75153
-4.76114
-4.77219
-4.78472
-4.79874
-4.81425
-4.8312
-4.84956
-4.86925
-4.89019
-4.91228
-4.93539
-4.95943
-4.98425
-5.00972
-5.0357
-5.06206
-5.08864
-5.11532
-5.14195
-5.16838
-5.19448
-5.22012
-5.24515
-5.26945
-5.29288
-5.31531
-5.33661
-5.35665
-5.37531
-5.39245
-5.40796
-5.4217
-5.43356
-5.44341
-5.45113
-5.45661
-5.45972
-5.46035
-5.4584
-5.45375
-5.44629
-5.43594
-5.42258
-5.40613
-5.3865
-5.36361
-5.33739
-5.30775
-5.27464
-5.238
-5.19778
-5.15392
-5.10639
-5.05515
-5.00017
-4.94143
-4.87893
-4.81264
-4.74259
-4.66879
-4.59126
-4.51002
-4.42509
-4.33649
-4.24426
-4.14844
-4.04906
-3.94619
-3.83987
-3.73016
-3.61714
-3.50087
-3.38143
-3.2589
-3.13337
-3.00494
-2.87369
-2.73974
-2.60317
-2.46411
-2.32265
-2.17893
-2.03304
-1.88513
-1.7353
-1.58369
-1.43043
-1.27564
-1.11946
-0.962022
-0.803468
-0.643933
-0.483557
-0.322479
-0.160841
0.0012146
0.163547
0.326015
0.488476
0.650789
0.812814
0.974411
1.13544
1.29577
1.45527
1.61379
1.77122
1.92742
2.08228
2.23567
2.38747
2.53758
2.68589
2.83229
2.97668
3.11898
3.25909
3.39693
3.53242
3.6655
3.79611
3.92417
4.04965
4.1725
4.29266
4.41011
4.52478
4.63665
4.7457
4.85195
4.95539
5.05599
5.15377
5.24871
5.34083
5.43015
5.51668
5.60045
5.68148
5.75979
5.83543
5.90841
5.97878
6.04656
6.1118
6.17452
6.23477
6.29259
6.34802
6.4011
6.45189
6.50044
6.54682
6.59112
6.63345
6.67396
6.71288
6.7505
6.7873
6.82386
6.86141
6.89968
6.94451
6.975
-4.67044
-4.67909
-4.68915
-4.69723
-4.70288
-4.70699
-4.71032
-4.71336
-4.7165
-4.72004
-4.72422
-4.72923
-4.73521
-4.74228
-4.75054
-4.76006
-4.7709
-4.78309
-4.79664
-4.81155
-4.8278
-4.84534
-4.86412
-4.88406
-4.90509
-4.92712
-4.95004
-4.97375
-4.99814
-5.02308
-5.04846
-5.07416
-5.10006
-5.12601
-5.15191
-5.17762
-5.203
-5.22795
-5.25232
-5.276
-5.29884
-5.32073
-5.34154
-5.36114
-5.3794
-5.3962
-5.41141
-5.42491
-5.43656
-5.44626
-5.45387
-5.45928
-5.46237
-5.46301
-5.46111
-5.45654
-5.44921
-5.439
-5.42583
-5.40959
-5.3902
-5.36758
-5.34164
-5.31232
-5.27955
-5.24327
-5.20342
-5.15997
-5.11286
-5.06206
-5.00755
-4.94931
-4.88732
-4.82157
-4.75208
-4.67885
-4.60189
-4.52123
-4.43688
-4.34887
-4.25723
-4.162
-4.06323
-3.96096
-3.85524
-3.74614
-3.63373
-3.51806
-3.39923
-3.27731
-3.15239
-3.02456
-2.89391
-2.76055
-2.62457
-2.48608
-2.3452
-2.20204
-2.05671
-1.90933
-1.76004
-1.60894
-1.45618
-1.30188
-1.14618
-0.989201
-0.831089
-0.671978
-0.512007
-0.351316
-0.190046
-0.0283368
0.13367
0.295832
0.45801
0.620062
0.781848
0.94323
1.10407
1.26423
1.42358
1.58198
1.73932
1.89545
2.05026
2.20362
2.35543
2.50556
2.65392
2.80039
2.94488
3.08729
3.22754
3.36555
3.50123
3.63452
3.76535
3.89367
4.01941
4.14253
4.26298
4.38071
4.49568
4.60786
4.71723
4.8238
4.92757
5.02852
5.12666
5.22199
5.31451
5.40424
5.49118
5.57538
5.65684
5.73559
5.81166
5.88509
5.9559
6.02412
6.0898
6.15297
6.21365
6.27191
6.32776
6.38126
6.43246
6.48141
6.52818
6.57285
6.61553
6.65635
6.69552
6.73329
6.77005
6.8062
6.84263
6.87853
6.91887
6.94055
-4.66126
-4.671
-4.68288
-4.69278
-4.70001
-4.70555
-4.71022
-4.71458
-4.71902
-4.72386
-4.72934
-4.73565
-4.74292
-4.75126
-4.76075
-4.77145
-4.78337
-4.79655
-4.81098
-4.82665
-4.84351
-4.86153
-4.88064
-4.90079
-4.9219
-4.94387
-4.96664
-4.99009
-5.01413
-5.03866
-5.06357
-5.08875
-5.11409
-5.13948
-5.16479
-5.18991
-5.21472
-5.23911
-5.26294
-5.28609
-5.30845
-5.32988
-5.35027
-5.36948
-5.38739
-5.40387
-5.4188
-5.43205
-5.4435
-5.45301
-5.46048
-5.46577
-5.46876
-5.46935
-5.46741
-5.46283
-5.45551
-5.44533
-5.43221
-5.41605
-5.39675
-5.37424
-5.34843
-5.31926
-5.28665
-5.25055
-5.2109
-5.16766
-5.12078
-5.07024
-5.016
-4.95804
-4.89636
-4.83095
-4.7618
-4.68891
-4.61231
-4.53201
-4.44803
-4.3604
-4.26914
-4.1743
-4.07592
-3.97404
-3.86873
-3.76004
-3.64804
-3.53279
-3.41438
-3.29289
-3.16839
-3.04099
-2.91077
-2.77783
-2.64228
-2.50422
-2.36376
-2.22101
-2.07609
-1.92913
-1.78023
-1.62953
-1.47716
-1.32324
-1.1679
-1.01129
-0.853523
-0.694749
-0.535103
-0.374725
-0.213753
-0.0523296
0.109406
0.271314
0.433252
0.59508
0.756659
0.917849
1.07851
1.23852
1.39773
1.55602
1.71325
1.86929
2.02404
2.17736
2.32913
2.47926
2.62762
2.77412
2.91865
3.06113
3.20147
3.33957
3.47538
3.6088
3.73978
3.86826
3.99418
4.11748
4.23812
4.35606
4.47124
4.58365
4.69325
4.80006
4.90408
5.0053
5.10372
5.19934
5.29216
5.3822
5.46947
5.55399
5.63579
5.71488
5.7913
5.86508
5.93624
6.00482
6.07085
6.13437
6.19541
6.25401
6.31021
6.36406
6.41559
6.46485
6.51193
6.55687
6.59979
6.64081
6.68008
6.71783
6.75433
6.78983
6.82491
6.85837
6.89471
6.90902
-4.65813
-4.66824
-4.68103
-4.69215
-4.70063
-4.70738
-4.71325
-4.71879
-4.72442
-4.73043
-4.73707
-4.74453
-4.75292
-4.76234
-4.77286
-4.78452
-4.79734
-4.81132
-4.82644
-4.8427
-4.86005
-4.87844
-4.89782
-4.91813
-4.9393
-4.96125
-4.98391
-5.00718
-5.03097
-5.0552
-5.07976
-5.10456
-5.12949
-5.15445
-5.17932
-5.204
-5.22837
-5.25232
-5.27574
-5.29849
-5.32046
-5.34153
-5.36157
-5.38046
-5.39807
-5.41428
-5.42896
-5.44198
-5.45321
-5.46254
-5.46983
-5.47497
-5.47783
-5.4783
-5.47625
-5.47158
-5.46418
-5.45395
-5.44077
-5.42457
-5.40525
-5.38272
-5.35691
-5.32774
-5.29515
-5.25908
-5.21948
-5.1763
-5.1295
-5.07904
-5.02491
-4.96708
-4.90554
-4.84027
-4.77129
-4.69858
-4.62217
-4.54205
-4.45827
-4.37084
-4.2798
-4.18518
-4.08703
-3.98539
-3.88032
-3.77189
-3.66014
-3.54517
-3.42703
-3.30582
-3.18161
-3.0545
-2.92458
-2.79194
-2.65669
-2.51894
-2.37879
-2.23635
-2.09174
-1.94508
-1.79649
-1.6461
-1.49403
-1.3404
-1.18536
-1.02903
-0.87155
-0.71305
-0.553672
-0.393553
-0.232832
-0.0716499
0.089854
0.25154
0.413268
0.574896
0.736287
0.897301
1.0578
1.21766
1.37673
1.53489
1.69201
1.84796
2.00261
2.15586
2.30758
2.45766
2.606
2.75249
2.89702
3.03952
3.17989
3.31804
3.4539
3.5874
3.71847
3.84704
3.97306
4.09648
4.21725
4.33531
4.45064
4.5632
4.67298
4.77997
4.88417
4.98559
5.08421
5.18004
5.27309
5.36336
5.45087
5.53565
5.61771
5.69707
5.77376
5.84781
5.91925
5.98812
6.05443
6.11824
6.17957
6.23845
6.29493
6.34905
6.40084
6.45036
6.49766
6.54281
6.58589
6.627
6.66627
6.70385
6.73993
6.77462
6.80825
6.8393
6.87211
6.88026
-4.66107
-4.67089
-4.68378
-4.69544
-4.70469
-4.71231
-4.7191
-4.72559
-4.73217
-4.73914
-4.74672
-4.75509
-4.76436
-4.77463
-4.78594
-4.79833
-4.81182
-4.82639
-4.84204
-4.85874
-4.87644
-4.89512
-4.9147
-4.93514
-4.95637
-4.97831
-5.0009
-5.02405
-5.04768
-5.07171
-5.09603
-5.12057
-5.14522
-5.16988
-5.19445
-5.21883
-5.24289
-5.26653
-5.28964
-5.3121
-5.33379
-5.35458
-5.37436
-5.393
-5.41037
-5.42634
-5.4408
-5.45361
-5.46464
-5.47378
-5.48088
-5.48584
-5.48853
-5.48883
-5.48662
-5.4818
-5.47424
-5.46386
-5.45055
-5.43421
-5.41476
-5.3921
-5.36618
-5.3369
-5.30421
-5.26805
-5.22837
-5.18512
-5.13827
-5.08777
-5.03361
-4.97577
-4.91424
-4.84899
-4.78003
-4.70736
-4.63099
-4.55094
-4.46722
-4.37986
-4.2889
-4.19438
-4.09633
-3.99481
-3.88987
-3.78157
-3.66997
-3.55515
-3.43719
-3.31615
-3.19213
-3.06521
-2.93549
-2.80306
-2.66803
-2.5305
-2.39058
-2.24837
-2.104
-1.95758
-1.80923
-1.65908
-1.50724
-1.35386
-1.19906
-1.04297
-0.885722
-0.727455
-0.568304
-0.40841
-0.247908
-0.0869405
0.0743553
0.23584
0.397373
0.558815
0.720027
0.880871
1.04121
1.20091
1.35983
1.51786
1.67485
1.83068
1.98524
2.13839
2.29003
2.44004
2.58832
2.73476
2.87926
3.02173
3.16208
3.30023
3.4361
3.56962
3.70071
3.82933
3.9554
4.07887
4.1997
4.31785
4.43326
4.54592
4.65581
4.76292
4.86725
4.9688
5.06756
5.16355
5.25676
5.3472
5.4349
5.51986
5.60212
5.68168
5.75859
5.83286
5.90452
5.97361
6.04016
6.10419
6.16575
6.22486
6.28157
6.3359
6.38791
6.43762
6.48509
6.53038
6.57354
6.61467
6.65384
6.69115
6.72671
6.76049
6.79262
6.82137
6.85108
6.85408
-4.66917
-4.67823
-4.69052
-4.70208
-4.71162
-4.71972
-4.7271
-4.73424
-4.74151
-4.74917
-4.75744
-4.76647
-4.77638
-4.78724
-4.79911
-4.81202
-4.82596
-4.84095
-4.85696
-4.87396
-4.89192
-4.91079
-4.93052
-4.95106
-4.97233
-4.99429
-5.01685
-5.03994
-5.06348
-5.08739
-5.11158
-5.13597
-5.16045
-5.18494
-5.20932
-5.2335
-5.25737
-5.28082
-5.30373
-5.32599
-5.34748
-5.36808
-5.38766
-5.4061
-5.42328
-5.43906
-5.45332
-5.46593
-5.47677
-5.4857
-5.4926
-5.49735
-5.49983
-5.49992
-5.49749
-5.49245
-5.48468
-5.47408
-5.46055
-5.44399
-5.42432
-5.40145
-5.37531
-5.34583
-5.31294
-5.2766
-5.23673
-5.19332
-5.14631
-5.09567
-5.04139
-4.98344
-4.9218
-4.85646
-4.78743
-4.71469
-4.63826
-4.55816
-4.4744
-4.38703
-4.29606
-4.20153
-4.1035
-4.00201
-3.89711
-3.78886
-3.67734
-3.5626
-3.44472
-3.32379
-3.19989
-3.0731
-2.94352
-2.81125
-2.67638
-2.53901
-2.39926
-2.25724
-2.11306
-1.96683
-1.81868
-1.66873
-1.51711
-1.36393
-1.20934
-1.05346
-0.896423
-0.738366
-0.579425
-0.419738
-0.259442
-0.0986755
0.0624212
0.223709
0.385048
0.546301
0.70733
0.867997
1.02817
1.1877
1.34647
1.50434
1.66119
1.81689
1.97132
2.12435
2.27588
2.42579
2.57397
2.72033
2.86475
3.00716
3.14745
3.28556
3.42139
3.55488
3.68595
3.81455
3.94062
4.0641
4.18495
4.30312
4.41857
4.53128
4.64122
4.7484
4.85281
4.95444
5.0533
5.14938
5.24271
5.33327
5.4211
5.5062
5.5886
5.66832
5.74539
5.81983
5.89167
5.96094
6.02767
6.09189
6.15363
6.21293
6.26982
6.32433
6.3765
6.42637
6.47396
6.51933
6.56253
6.6036
6.6426
6.67957
6.71453
6.74734
6.77799
6.80458
6.83156
6.83029
-4.68104
-4.68902
-4.7002
-4.71114
-4.7205
-4.7287
-4.73634
-4.74384
-4.75152
-4.75961
-4.76832
-4.77778
-4.7881
-4.79935
-4.81157
-4.8248
-4.83904
-4.85428
-4.87052
-4.88771
-4.90583
-4.92482
-4.94466
-4.96527
-4.98659
-5.00858
-5.03114
-5.05422
-5.07774
-5.1016
-5.12574
-5.15007
-5.17448
-5.19888
-5.22318
-5.24726
-5.27103
-5.29437
-5.31717
-5.33931
-5.36067
-5.38113
-5.40056
-5.41885
-5.43586
-5.45146
-5.46554
-5.47795
-5.48857
-5.49728
-5.50395
-5.50846
-5.51069
-5.51051
-5.50782
-5.5025
-5.49444
-5.48355
-5.46973
-5.45288
-5.43291
-5.40976
-5.38333
-5.35356
-5.3204
-5.28379
-5.24367
-5.20001
-5.15277
-5.10192
-5.04744
-4.9893
-4.92748
-4.86198
-4.79279
-4.71991
-4.64335
-4.56313
-4.47928
-4.39182
-4.30077
-4.2062
-4.10812
-4.0066
-3.90169
-3.79345
-3.68195
-3.56725
-3.44943
-3.32857
-3.20474
-3.07805
-2.94858
-2.81642
-2.68168
-2.54446
-2.40486
-2.263
-2.11898
-1.97293
-1.82496
-1.6752
-1.52377
-1.37079
-1.2164
-1.06072
-0.90389
-0.746042
-0.587311
-0.427833
-0.267746
-0.107187
0.0537036
0.214787
0.375925
0.536979
0.697812
0.858288
1.01827
1.17762
1.33621
1.49391
1.65059
1.80613
1.96039
2.11328
2.26466
2.41444
2.56249
2.70872
2.85303
2.99533
3.13553
3.27355
3.4093
3.54271
3.67372
3.80227
3.92828
4.05173
4.17254
4.29069
4.40613
4.51884
4.6288
4.73601
4.84044
4.94212
5.04102
5.13717
5.23056
5.3212
5.40911
5.49431
5.57682
5.65666
5.73384
5.80841
5.88039
5.9498
6.01667
6.08105
6.14294
6.2024
6.25944
6.31409
6.36639
6.41637
6.46405
6.50946
6.55265
6.59362
6.63239
6.66896
6.70328
6.7351
6.76431
6.78892
6.81349
6.80865
-4.6951
-4.70182
-4.71155
-4.72145
-4.73026
-4.73823
-4.74583
-4.75342
-4.76126
-4.76957
-4.7785
-4.78819
-4.79873
-4.81019
-4.8226
-4.836
-4.8504
-4.86578
-4.88213
-4.89943
-4.91763
-4.93671
-4.95661
-4.97727
-4.99865
-5.02067
-5.04327
-5.06638
-5.08991
-5.1138
-5.13795
-5.16227
-5.18668
-5.21107
-5.23535
-5.25941
-5.28314
-5.30643
-5.32916
-5.35122
-5.37249
-5.39284
-5.41215
-5.43029
-5.44713
-5.46255
-5.47642
-5.48861
-5.49899
-5.50745
-5.51384
-5.51806
-5.51998
-5.51948
-5.51646
-5.51081
-5.50241
-5.49116
-5.47698
-5.45978
-5.43946
-5.41594
-5.38917
-5.35906
-5.32557
-5.28863
-5.24821
-5.20425
-5.15674
-5.10563
-5.0509
-4.99253
-4.93049
-4.86477
-4.79538
-4.72231
-4.64559
-4.56522
-4.48123
-4.39364
-4.3025
-4.20784
-4.1097
-4.00813
-3.9032
-3.79495
-3.68345
-3.56877
-3.45099
-3.33019
-3.20644
-3.07983
-2.95046
-2.81842
-2.68381
-2.54672
-2.40728
-2.26558
-2.12173
-1.97586
-1.82808
-1.67852
-1.52729
-1.37451
-1.22033
-1.06487
-0.908258
-0.750631
-0.592123
-0.432869
-0.273006
-0.112673
0.0479927
0.208851
0.369765
0.530597
0.691209
0.851465
1.01123
1.17037
1.32875
1.48624
1.64272
1.79806
1.95214
2.10484
2.25604
2.40564
2.55352
2.69959
2.84375
2.9859
3.12596
3.26384
3.39947
3.53276
3.66366
3.79211
3.91803
4.04139
4.16213
4.28022
4.39561
4.50828
4.61821
4.7254
4.82983
4.9315
5.03042
5.12658
5.22
5.31069
5.39865
5.48391
5.56649
5.6464
5.72368
5.79834
5.87042
5.93995
6.00694
6.07144
6.13346
6.19304
6.2502
6.30497
6.35738
6.40744
6.45518
6.50061
6.54374
6.58457
6.62309
6.65923
6.69287
6.72371
6.75155
6.77433
6.79677
6.789
-4.70981
-4.71519
-4.72327
-4.73185
-4.73982
-4.74729
-4.75461
-4.76207
-4.76987
-4.77819
-4.78718
-4.79694
-4.80756
-4.81909
-4.83157
-4.84504
-4.85948
-4.87492
-4.89132
-4.90866
-4.92691
-4.94602
-4.96596
-4.98667
-5.00809
-5.03016
-5.05281
-5.07597
-5.09955
-5.12349
-5.14768
-5.17204
-5.19648
-5.2209
-5.24519
-5.26925
-5.29296
-5.31621
-5.33889
-5.36087
-5.38204
-5.40226
-5.42142
-5.43938
-5.45602
-5.47122
-5.48484
-5.49676
-5.50684
-5.51498
-5.52104
-5.52491
-5.52646
-5.52559
-5.52218
-5.51612
-5.50732
-5.49567
-5.48108
-5.46347
-5.44275
-5.41884
-5.39168
-5.3612
-5.32734
-5.29006
-5.2493
-5.20504
-5.15723
-5.10585
-5.05085
-4.99222
-4.92993
-4.86399
-4.79438
-4.72113
-4.64422
-4.5637
-4.47957
-4.39187
-4.30063
-4.20589
-4.10769
-4.00609
-3.90114
-3.79289
-3.68142
-3.56678
-3.44906
-3.32833
-3.20467
-3.07818
-2.94893
-2.81703
-2.68256
-2.54564
-2.40637
-2.26486
-2.12121
-1.97555
-1.82798
-1.67863
-1.52763
-1.37509
-1.22115
-1.06592
-0.90956
-0.752184
-0.593929
-0.43493
-0.275325
-0.11525
0.0451566
0.205756
0.366412
0.526985
0.68734
0.847341
1.00685
1.16574
1.32387
1.48112
1.63736
1.79246
1.9463
2.09877
2.24975
2.39913
2.5468
2.69267
2.83663
2.97859
3.11846
3.25616
3.39162
3.52476
3.6555
3.7838
3.90959
4.03283
4.15345
4.27143
4.38673
4.49932
4.60919
4.71632
4.8207
4.92234
5.02123
5.11738
5.2108
5.30149
5.38947
5.47476
5.55738
5.63735
5.71468
5.78942
5.86158
5.93119
5.99828
6.06287
6.125
6.18468
6.24195
6.29682
6.34931
6.39943
6.44721
6.49262
6.53568
6.57635
6.61458
6.65027
6.68324
6.71312
6.73967
6.7608
6.78133
6.77116
-4.72378
-4.72783
-4.7342
-4.7413
-4.74822
-4.75499
-4.76185
-4.76899
-4.77659
-4.78479
-4.7937
-4.80342
-4.814
-4.82551
-4.83798
-4.85144
-4.86588
-4.8813
-4.89769
-4.91503
-4.93329
-4.95242
-4.97237
-4.99311
-5.01456
-5.03666
-5.05935
-5.08254
-5.10617
-5.13014
-5.15437
-5.17877
-5.20322
-5.22764
-5.25192
-5.27594
-5.2996
-5.32277
-5.34534
-5.36719
-5.38819
-5.40822
-5.42716
-5.44488
-5.46125
-5.47614
-5.48944
-5.501
-5.51072
-5.51847
-5.52412
-5.52757
-5.5287
-5.52738
-5.52353
-5.51703
-5.50778
-5.49569
-5.48066
-5.46262
-5.44148
-5.41717
-5.38962
-5.35876
-5.32455
-5.28693
-5.24586
-5.20131
-5.15322
-5.10157
-5.04632
-4.98744
-4.92493
-4.85878
-4.78898
-4.71556
-4.63851
-4.55786
-4.47363
-4.38585
-4.29454
-4.19977
-4.10155
-3.99996
-3.89503
-3.78683
-3.67542
-3.56087
-3.44325
-3.32264
-3.19912
-3.07278
-2.9437
-2.81198
-2.67771
-2.541
-2.40195
-2.26066
-2.11726
-1.97184
-1.82453
-1.67545
-1.52472
-1.37246
-1.2188
-1.06387
-0.907793
-0.750712
-0.592755
-0.434058
-0.274755
-0.114984
0.045118
0.205413
0.365763
0.526033
0.686084
0.845783
1.00499
1.16358
1.32142
1.47838
1.63432
1.78914
1.9427
2.0949
2.2456
2.39472
2.54213
2.68774
2.83146
2.97318
3.11282
3.2503
3.38554
3.51847
3.64902
3.77713
3.90274
4.0258
4.14627
4.26411
4.37928
4.49175
4.60151
4.70855
4.81285
4.91442
5.01326
5.10936
5.20274
5.29341
5.38139
5.46668
5.54931
5.6293
5.70667
5.78146
5.85367
5.92335
5.99052
6.05519
6.11741
6.17718
6.23454
6.28949
6.34205
6.39223
6.44002
6.48541
6.52838
6.56888
6.60681
6.64204
6.67435
6.70331
6.72865
6.74827
6.7671
6.75499
-4.73583
-4.73867
-4.74334
-4.74888
-4.75464
-4.76058
-4.76683
-4.77354
-4.78083
-4.7888
-4.79755
-4.80713
-4.81762
-4.82905
-4.84145
-4.85484
-4.86922
-4.88459
-4.90093
-4.91822
-4.93643
-4.95552
-4.97544
-4.99615
-5.01757
-5.03965
-5.06232
-5.08549
-5.1091
-5.13304
-5.15722
-5.18156
-5.20595
-5.23028
-5.25444
-5.27833
-5.30182
-5.3248
-5.34716
-5.36876
-5.3895
-5.40923
-5.42784
-5.44521
-5.4612
-5.4757
-5.48858
-5.49971
-5.50898
-5.51627
-5.52146
-5.52444
-5.52509
-5.52331
-5.51898
-5.51201
-5.50231
-5.48977
-5.47432
-5.45586
-5.43432
-5.40962
-5.38171
-5.35052
-5.316
-5.2781
-5.23677
-5.19198
-5.14366
-5.09178
-5.03631
-4.97724
-4.91456
-4.84826
-4.77834
-4.70481
-4.62768
-4.54697
-4.4627
-4.37491
-4.28362
-4.18887
-4.09072
-3.9892
-3.88437
-3.77629
-3.66502
-3.55062
-3.43318
-3.31276
-3.18945
-3.06333
-2.93448
-2.80301
-2.66901
-2.53257
-2.3938
-2.25282
-2.10972
-1.96461
-1.81763
-1.66887
-1.51847
-1.36655
-1.21324
-1.05865
-0.902931
-0.746204
-0.588604
-0.430265
-0.271323
-0.111914
0.0478262
0.207759
0.367748
0.527657
0.687349
0.846689
1.00554
1.16378
1.32127
1.47787
1.63348
1.78795
1.94118
2.09305
2.24343
2.39223
2.53933
2.68464
2.82805
2.96948
3.10884
3.24605
3.38103
3.51371
3.64401
3.77189
3.89728
4.02013
4.14041
4.25806
4.37306
4.48537
4.595
4.70191
4.8061
4.90756
5.00631
5.10234
5.19566
5.28628
5.37422
5.45949
5.54212
5.62211
5.6995
5.77432
5.84658
5.91631
5.98353
6.04828
6.11057
6.17042
6.22785
6.28288
6.3355
6.38572
6.43352
6.47889
6.52176
6.56207
6.59971
6.63449
6.66615
6.69426
6.71848
6.73674
6.75401
6.74038
-4.74549
-4.74725
-4.75031
-4.75427
-4.75878
-4.76376
-4.7693
-4.77547
-4.78235
-4.79001
-4.79851
-4.80789
-4.81821
-4.82949
-4.84175
-4.855
-4.86923
-4.88445
-4.90064
-4.91777
-4.93581
-4.95473
-4.97448
-4.99501
-5.01626
-5.03816
-5.06064
-5.08363
-5.10703
-5.13077
-5.15474
-5.17884
-5.20298
-5.22704
-5.25091
-5.27449
-5.29765
-5.32028
-5.34225
-5.36346
-5.38377
-5.40307
-5.42122
-5.43812
-5.45363
-5.46763
-5.48001
-5.49064
-5.49941
-5.50619
-5.51088
-5.51336
-5.51352
-5.51126
-5.50647
-5.49905
-5.48892
-5.47597
-5.46013
-5.44131
-5.41944
-5.39444
-5.36625
-5.33481
-5.30007
-5.26199
-5.2205
-5.17554
-5.12705
-5.07503
-5.01944
-4.96027
-4.89752
-4.83116
-4.76122
-4.68769
-4.61059
-4.52992
-4.44573
-4.35803
-4.26686
-4.17226
-4.07427
-3.97293
-3.86831
-3.76045
-3.64942
-3.53529
-3.41812
-3.298
-3.17499
-3.0492
-2.92069
-2.78957
-2.65592
-2.51986
-2.38147
-2.24087
-2.09816
-1.95347
-1.80689
-1.65855
-1.50857
-1.35708
-1.20419
-1.05004
-0.894751
-0.73846
-0.581298
-0.423398
-0.264896
-0.105926
0.0533741
0.212868
0.37242
0.531892
0.69115
0.850059
1.00848
1.16629
1.32336
1.47955
1.63474
1.78881
1.94164
2.09311