/*--------------------------------*- C++ -*----------------------------------*\
| =========                 |                                                 |
| \\      /  F ield         | OpenFOAM: The Open Source CFD Toolbox           |
|  \\    /   O peration     | Version:  2412                                  |
|   \\  /    A nd           | Website:  www.openfoam.com                      |
|    \\/     M anipulation  |                                                 |
\*---------------------------------------------------------------------------*/
FoamFile
{
    version     2.0;
    format      ascii;
    arch        "LSB;label=32;scalar=64";
    class       surfaceScalarField;
    location    "0.18";
    object      phi;
}
// * * * * * * * * * * * * * * * * * * * * * * * * * * * * * * * * * * * * * //

dimensions      [0 3 -1 0 0 0 0];

oriented        oriented;

internalField   nonuniform List<scalar> 
24170
(
1.36706e-07
-5.71619e-08
1.95621e-07
-5.89147e-08
2.57917e-07
-6.22966e-08
3.11671e-07
-5.37537e-08
3.61808e-07
-5.01369e-08
4.07916e-07
-4.6108e-08
4.4956e-07
-4.16442e-08
4.87083e-07
-3.75222e-08
5.20869e-07
-3.3786e-08
5.51256e-07
-3.0387e-08
5.78568e-07
-2.73125e-08
6.03097e-07
-2.45294e-08
6.25086e-07
-2.19887e-08
6.4471e-07
-1.96238e-08
6.62105e-07
-1.7395e-08
6.77143e-07
-1.50383e-08
6.8983e-07
-1.26871e-08
-8.06519e-09
6.97896e-07
3.26112e-07
-1.24822e-07
3.94132e-07
-1.26934e-07
4.55886e-07
-1.2405e-07
5.14183e-07
-1.12051e-07
5.67676e-07
-1.0363e-07
6.1663e-07
-9.50623e-08
6.61269e-07
-8.62835e-08
7.01817e-07
-7.80702e-08
7.38571e-07
-7.05398e-08
7.71851e-07
-6.36666e-08
8.01962e-07
-5.74234e-08
8.29178e-07
-5.17454e-08
8.5373e-07
-4.65414e-08
8.75799e-07
-4.16926e-08
8.95497e-07
-3.70928e-08
9.12821e-07
-3.23628e-08
9.27861e-07
-2.77271e-08
-1.99431e-08
9.39739e-07
5.17244e-07
-1.7161e-07
5.7915e-07
-1.88841e-07
6.38209e-07
-1.83109e-07
6.95365e-07
-1.69207e-07
7.48176e-07
-1.56441e-07
7.96778e-07
-1.43665e-07
8.4142e-07
-1.30925e-07
8.82235e-07
-1.18885e-07
9.19441e-07
-1.07745e-07
9.533e-07
-9.75258e-08
9.84073e-07
-8.81971e-08
1.012e-06
-7.96738e-08
1.03729e-06
-7.18336e-08
1.06012e-06
-6.45183e-08
1.08058e-06
-5.75579e-08
1.09879e-06
-5.05714e-08
1.11456e-06
-4.34946e-08
-3.34696e-08
1.12809e-06
7.4348e-07
-1.9542e-07
7.9192e-07
-2.3728e-07
8.43828e-07
-2.35018e-07
8.96359e-07
-2.21738e-07
9.46019e-07
-2.06101e-07
9.92296e-07
-1.89942e-07
1.03521e-06
-1.73835e-07
1.07475e-06
-1.58429e-07
1.11104e-06
-1.44031e-07
1.14424e-06
-1.30733e-07
1.17457e-06
-1.18522e-07
1.2022e-06
-1.07308e-07
1.22732e-06
-9.69528e-08
1.25007e-06
-8.72718e-08
1.27057e-06
-7.80511e-08
1.28891e-06
-6.89161e-08
1.30501e-06
-5.95922e-08
-4.79654e-08
1.31951e-06
1.01492e-06
-1.99874e-07
1.04731e-06
-2.69664e-07
1.08853e-06
-2.76242e-07
1.13339e-06
-2.66598e-07
1.17752e-06
-2.50226e-07
1.21951e-06
-2.31936e-07
1.259e-06
-2.13324e-07
1.29579e-06
-1.95218e-07
1.32984e-06
-1.78085e-07
1.36123e-06
-1.6212e-07
1.39006e-06
-1.47354e-07
1.41647e-06
-1.33713e-07
1.44058e-06
-1.2106e-07
1.46251e-06
-1.09202e-07
1.48236e-06
-9.79048e-08
1.50026e-06
-8.68139e-08
1.51624e-06
-7.55796e-08
-6.27343e-08
1.53101e-06
1.33808e-06
-1.90514e-07
1.35426e-06
-2.85848e-07
1.38245e-06
-3.04424e-07
1.41695e-06
-3.01105e-07
1.45316e-06
-2.86429e-07
1.48883e-06
-2.67605e-07
1.52311e-06
-2.47609e-07
1.55557e-06
-2.27677e-07
1.58599e-06
-2.08504e-07
1.6143e-06
-1.90432e-07
1.64051e-06
-1.73567e-07
1.66468e-06
-1.57879e-07
1.68687e-06
-1.4325e-07
1.70716e-06
-1.29499e-07
1.72565e-06
-1.16395e-07
1.74247e-06
-1.03626e-07
1.75774e-06
-9.08515e-08
-7.70949e-08
1.7721e-06
1.71767e-06
-1.72904e-07
1.7193e-06
-2.87477e-07
1.73353e-06
-3.18652e-07
1.75571e-06
-3.23289e-07
1.78182e-06
-3.12542e-07
1.80916e-06
-2.94939e-07
1.83642e-06
-2.74867e-07
1.8629e-06
-2.54157e-07
1.88819e-06
-2.33797e-07
1.91208e-06
-2.14319e-07
1.93445e-06
-1.95942e-07
1.95527e-06
-1.78702e-07
1.97455e-06
-1.62525e-07
1.99231e-06
-1.47262e-07
2.00863e-06
-1.32709e-07
2.02361e-06
-1.18611e-07
2.03745e-06
-1.04686e-07
-9.0314e-08
2.05067e-06
2.15734e-06
-1.51548e-07
2.14717e-06
-2.77313e-07
2.14804e-06
-3.19524e-07
2.15704e-06
-3.32284e-07
2.17147e-06
-3.26971e-07
2.18873e-06
-3.12198e-07
2.20726e-06
-2.93398e-07
2.22615e-06
-2.73048e-07
2.24482e-06
-2.52466e-07
2.2629e-06
-2.32397e-07
2.28016e-06
-2.13204e-07
2.29647e-06
-1.95014e-07
2.31176e-06
-1.77818e-07
2.32602e-06
-1.61515e-07
2.33926e-06
-1.45953e-07
2.35159e-06
-1.30941e-07
2.36318e-06
-1.16275e-07
-1.01593e-07
2.37446e-06
2.66011e-06
-1.2947e-07
2.64126e-06
-2.58468e-07
2.63056e-06
-3.08823e-07
2.62678e-06
-3.28505e-07
2.62887e-06
-3.29056e-07
2.6349e-06
-3.18232e-07
2.64337e-06
-3.01867e-07
2.65329e-06
-2.82965e-07
2.66397e-06
-2.63145e-07
2.67493e-06
-2.43357e-07
2.68584e-06
-2.24114e-07
2.69648e-06
-2.05653e-07
2.7067e-06
-1.88043e-07
2.71644e-06
-1.71252e-07
2.72567e-06
-1.55186e-07
2.73446e-06
-1.39726e-07
2.74294e-06
-1.24755e-07
-1.10088e-07
2.75143e-06
3.22873e-06
-1.08346e-07
3.204e-06
-2.33732e-07
3.18407e-06
-2.88894e-07
3.16903e-06
-3.13465e-07
3.15921e-06
-3.1924e-07
3.15374e-06
-3.1276e-07
3.15146e-06
-2.99584e-07
3.15148e-06
-2.82991e-07
3.15314e-06
-2.64804e-07
3.15591e-06
-2.46125e-07
3.1594e-06
-2.276e-07
3.16331e-06
-2.09571e-07
3.16746e-06
-1.92194e-07
3.17172e-06
-1.75508e-07
3.17602e-06
-1.59488e-07
3.18038e-06
-1.44082e-07
3.18488e-06
-1.29258e-07
-1.14947e-07
3.18974e-06
3.8657e-06
-8.9021e-08
3.83717e-06
-2.05203e-07
3.81025e-06
-2.61966e-07
3.78605e-06
-2.89271e-07
3.76576e-06
-2.9895e-07
3.74949e-06
-2.96485e-07
3.73661e-06
-2.86711e-07
3.72652e-06
-2.72901e-07
3.71868e-06
-2.56961e-07
3.71262e-06
-2.40059e-07
3.70794e-06
-2.22925e-07
3.70435e-06
-2.05983e-07
3.70162e-06
-1.89463e-07
3.69959e-06
-1.73473e-07
3.69815e-06
-1.58053e-07
3.69728e-06
-1.4321e-07
3.69701e-06
-1.28985e-07
-1.15377e-07
3.69744e-06
3.81123e-06
-7.33477e-08
3.78552e-06
-1.79488e-07
3.75883e-06
-2.35277e-07
3.73299e-06
-2.63432e-07
3.7093e-06
-2.75266e-07
3.68836e-06
-2.75545e-07
3.67007e-06
-2.68418e-07
3.65416e-06
-2.56993e-07
3.64036e-06
-2.43158e-07
3.62838e-06
-2.28074e-07
3.61794e-06
-2.1249e-07
3.60883e-06
-1.9687e-07
3.60085e-06
-1.81488e-07
3.59388e-06
-1.66496e-07
3.5878e-06
-1.51975e-07
3.58257e-06
-1.37982e-07
3.57814e-06
-1.24551e-07
-1.11927e-07
3.57469e-06
5.03713e-06
-5.77155e-08
5.00707e-06
-1.49428e-07
4.9736e-06
-2.01814e-07
4.93951e-06
-2.29342e-07
4.90651e-06
-2.42265e-07
4.87574e-06
-2.4477e-07
4.84749e-06
-2.40172e-07
4.82175e-06
-2.3125e-07
4.79839e-06
-2.19804e-07
4.77726e-06
-2.06942e-07
4.75815e-06
-1.93381e-07
4.74087e-06
-1.79592e-07
4.72525e-06
-1.65869e-07
4.71116e-06
-1.52397e-07
4.69847e-06
-1.39289e-07
4.68712e-06
-1.2663e-07
4.67705e-06
-1.14484e-07
-1.03191e-07
4.66832e-06
6.66244e-06
-4.26804e-08
6.62912e-06
-1.16115e-07
6.58917e-06
-1.61855e-07
6.54669e-06
-1.86871e-07
6.50384e-06
-1.99416e-07
6.46228e-06
-2.03205e-07
6.4228e-06
-2.00688e-07
6.38566e-06
-1.94117e-07
6.35097e-06
-1.85113e-07
6.31872e-06
-1.74687e-07
6.28882e-06
-1.63489e-07
6.26119e-06
-1.51955e-07
6.23569e-06
-1.40375e-07
6.21224e-06
-1.2894e-07
6.19072e-06
-1.17776e-07
6.17107e-06
-1.06982e-07
6.15323e-06
-9.66381e-08
-8.71095e-08
6.13715e-06
8.79086e-06
-2.88777e-08
8.75646e-06
-8.17116e-08
8.71175e-06
-1.17146e-07
8.66207e-06
-1.37192e-07
8.61012e-06
-1.47471e-07
8.55803e-06
-1.51114e-07
8.50717e-06
-1.49822e-07
8.45821e-06
-1.45156e-07
8.4115e-06
-1.38404e-07
8.36723e-06
-1.30415e-07
8.32547e-06
-1.21729e-07
8.28623e-06
-1.12714e-07
8.24948e-06
-1.03624e-07
8.21517e-06
-9.46346e-08
8.18326e-06
-8.58641e-08
8.15368e-06
-7.74062e-08
8.12637e-06
-6.93291e-08
-6.20104e-08
8.10127e-06
1.15181e-05
-1.66036e-08
1.14848e-05
-4.84089e-08
1.14383e-05
-7.07405e-08
1.13845e-05
-8.33616e-08
1.13264e-05
-8.93826e-08
1.12664e-05
-9.11173e-08
1.12063e-05
-8.971e-08
1.11472e-05
-8.60745e-08
1.10899e-05
-8.10417e-08
1.10347e-05
-7.52052e-08
1.09819e-05
-6.894e-08
1.09317e-05
-6.2497e-08
1.08841e-05
-5.60555e-08
1.08392e-05
-4.97429e-08
1.0797e-05
-4.36535e-08
1.07574e-05
-3.78642e-08
1.07205e-05
-3.24021e-08
-2.76508e-08
1.06862e-05
1.48842e-05
-5.39643e-09
1.48525e-05
-1.66912e-08
1.48063e-05
-2.45111e-08
1.4751e-05
-2.81323e-08
1.46904e-05
-2.87176e-08
1.46267e-05
-2.7436e-08
1.45619e-05
-2.48757e-08
1.44972e-05
-2.14338e-08
1.44337e-05
-1.74901e-08
1.43718e-05
-1.33384e-08
1.4312e-05
-9.16328e-09
1.42546e-05
-5.08266e-09
1.41998e-05
-1.18873e-09
1.41475e-05
2.47916e-09
1.4098e-05
5.85996e-09
1.40512e-05
8.91043e-09
1.40072e-05
1.16606e-08
1.37603e-08
1.39658e-05
1.8769e-05
6.27917e-09
1.87365e-05
1.5843e-08
1.86883e-05
2.36805e-08
1.86301e-05
3.00596e-08
1.85661e-05
3.53216e-08
1.84989e-05
3.97316e-08
1.84306e-05
4.3457e-08
1.83625e-05
4.66207e-08
1.82957e-05
4.93178e-08
1.82308e-05
5.16145e-08
1.8168e-05
5.35553e-08
1.81078e-05
5.51702e-08
1.80501e-05
5.64792e-08
1.79951e-05
5.74934e-08
1.79427e-05
5.82182e-08
1.7893e-05
5.86412e-08
1.78458e-05
5.88214e-08
5.84989e-08
1.78011e-05
2.26768e-05
1.70091e-08
2.26399e-05
5.27954e-08
2.25835e-05
8.00783e-08
2.25149e-05
9.86549e-08
2.24392e-05
1.1102e-07
2.23597e-05
1.19179e-07
2.2279e-05
1.24191e-07
2.21988e-05
1.26835e-07
2.21203e-05
1.27806e-07
2.20443e-05
1.27628e-07
2.19712e-05
1.26641e-07
2.19013e-05
1.25072e-07
2.18347e-05
1.23081e-07
2.17714e-05
1.2078e-07
2.17114e-05
1.18247e-07
2.16545e-05
1.1553e-07
2.16006e-05
1.12689e-07
1.09582e-07
2.15495e-05
1.5604e-05
3.26538e-08
1.55641e-05
9.2652e-08
1.55091e-05
1.35087e-07
1.54457e-05
1.62082e-07
1.53777e-05
1.78939e-07
1.53081e-05
1.88871e-07
1.52386e-05
1.93599e-07
1.51709e-05
1.94581e-07
1.51056e-05
1.93061e-07
1.50434e-05
1.89904e-07
1.49843e-05
1.85672e-07
1.49287e-05
1.80753e-07
1.48763e-05
1.75419e-07
1.48272e-05
1.69862e-07
1.47813e-05
1.64213e-07
1.47382e-05
1.58564e-07
1.46979e-05
1.52977e-07
1.47392e-07
1.46601e-05
1.23902e-05
5.12444e-08
1.23448e-05
1.38122e-07
1.22864e-05
1.93442e-07
1.22225e-05
2.2596e-07
1.21566e-05
2.44827e-07
1.20914e-05
2.54157e-07
1.20285e-05
2.56485e-07
1.19689e-05
2.5414e-07
1.19131e-05
2.48877e-07
1.18612e-05
2.41819e-07
1.18132e-05
2.33692e-07
1.17689e-05
2.24996e-07
1.17283e-05
2.16071e-07
1.1691e-05
2.07145e-07
1.16568e-05
1.98365e-07
1.16256e-05
1.89829e-07
1.1597e-05
1.81583e-07
1.73613e-07
1.15707e-05
9.55928e-06
7.55507e-08
9.50979e-06
1.87622e-07
9.45372e-06
2.49506e-07
9.39691e-06
2.82767e-07
9.34173e-06
3.00011e-07
9.29016e-06
3.05724e-07
9.24316e-06
3.03486e-07
9.20087e-06
2.96436e-07
9.16312e-06
2.86619e-07
9.12968e-06
2.75265e-07
9.1002e-06
2.63172e-07
9.07432e-06
2.50873e-07
9.05168e-06
2.3871e-07
9.03194e-06
2.26889e-07
9.01477e-06
2.15533e-07
8.99989e-06
2.04713e-07
8.98703e-06
1.94444e-07
1.84731e-07
8.97591e-06
7.18003e-06
1.04968e-07
7.13264e-06
2.35011e-07
7.08701e-06
2.95142e-07
7.04544e-06
3.24334e-07
7.00922e-06
3.36227e-07
6.9793e-06
3.35649e-07
6.95534e-06
3.27447e-07
6.93657e-06
3.15202e-07
6.92227e-06
3.00922e-07
6.91176e-06
2.85775e-07
6.90443e-06
2.70504e-07
6.89974e-06
2.55562e-07
6.89724e-06
2.41208e-07
6.89655e-06
2.27578e-07
6.89735e-06
2.14731e-07
6.89938e-06
2.02682e-07
6.90242e-06
1.91411e-07
1.80912e-07
6.90624e-06
5.24556e-06
1.38125e-07
5.20786e-06
2.72706e-07
5.18044e-06
3.22569e-07
5.16163e-06
3.43143e-07
5.15137e-06
3.46486e-07
5.1486e-06
3.38414e-07
5.1515e-06
3.24548e-07
5.15857e-06
3.08137e-07
5.1687e-06
2.9079e-07
5.18105e-06
2.7343e-07
5.19495e-06
2.56605e-07
5.2099e-06
2.4061e-07
5.22552e-06
2.25581e-07
5.24154e-06
2.11561e-07
5.25773e-06
1.98537e-07
5.27395e-06
1.86471e-07
5.29005e-06
1.75306e-07
1.65028e-07
5.30593e-06
3.71461e-06
1.71646e-07
3.69607e-06
2.91247e-07
3.69443e-06
3.24214e-07
3.70435e-06
3.33217e-07
3.72343e-06
3.27404e-07
3.74842e-06
3.13433e-07
3.77673e-06
2.96234e-07
3.80683e-06
2.78038e-07
3.83772e-06
2.59902e-07
3.86871e-06
2.42433e-07
3.89936e-06
2.25956e-07
3.92936e-06
2.10607e-07
3.95853e-06
1.96412e-07
3.98675e-06
1.83339e-07
4.01397e-06
1.71325e-07
4.04014e-06
1.60295e-07
4.06528e-06
1.50171e-07
1.40937e-07
4.08937e-06
2.5354e-06
1.96846e-07
2.54625e-06
2.80399e-07
2.57486e-06
2.95595e-07
2.61419e-06
2.93893e-07
2.65965e-06
2.81943e-07
2.70726e-06
2.65823e-07
2.75499e-06
2.48505e-07
2.80184e-06
2.31189e-07
2.84721e-06
2.14526e-07
2.89078e-06
1.98868e-07
2.93237e-06
1.84362e-07
2.97194e-06
1.71037e-07
3.0095e-06
1.58853e-07
3.0451e-06
1.47736e-07
3.07883e-06
1.37599e-07
3.11077e-06
1.28354e-07
3.14102e-06
1.19919e-07
1.12293e-07
3.16967e-06
1.65469e-06
1.99258e-07
1.70056e-06
2.34531e-07
1.75708e-06
2.39079e-07
1.81982e-06
2.3115e-07
1.88378e-06
2.1799e-07
1.94598e-06
2.03622e-07
2.00556e-06
1.88924e-07
2.06215e-06
1.74596e-07
2.11557e-06
1.61104e-07
2.16581e-06
1.48627e-07
2.21297e-06
1.37208e-07
2.25718e-06
1.2682e-07
2.29864e-06
1.17399e-07
2.33751e-06
1.08863e-07
2.37399e-06
1.01124e-07
2.40824e-06
9.41006e-08
2.44045e-06
8.77136e-08
8.20007e-08
2.47074e-06
1.01827e-06
1.63846e-07
1.09488e-06
1.57923e-07
1.17024e-06
1.63721e-07
1.24669e-06
1.54698e-07
1.32008e-06
1.44598e-07
1.38906e-06
1.34642e-07
1.45369e-06
1.24294e-07
1.51402e-06
1.14264e-07
1.57017e-06
1.04963e-07
1.62234e-06
9.64578e-08
1.67081e-06
8.87359e-08
1.71587e-06
8.17619e-08
1.75779e-06
7.54765e-08
1.79684e-06
6.98107e-08
1.83327e-06
6.46966e-08
1.86729e-06
6.00735e-08
1.89915e-06
5.58619e-08
5.21376e-08
1.92901e-06
5.69237e-07
8.45265e-08
6.58981e-07
6.8179e-08
7.40761e-07
8.19403e-08
8.20856e-07
7.46038e-08
8.95853e-07
6.96012e-08
9.65404e-07
6.50914e-08
1.02982e-06
5.98756e-08
1.08933e-06
5.476e-08
1.14419e-06
5.00943e-08
1.19478e-06
4.58677e-08
1.24147e-06
4.20509e-08
1.28461e-06
3.86234e-08
1.32453e-06
3.55513e-08
1.36155e-06
3.27947e-08
1.39593e-06
3.03154e-08
1.42792e-06
2.80848e-08
1.45775e-06
2.60308e-08
2.42022e-08
1.48569e-06
2.22451e-07
2.9063e-07
3.7257e-07
4.47174e-07
5.16775e-07
5.81866e-07
6.41742e-07
6.96502e-07
7.46596e-07
7.92464e-07
8.34515e-07
8.73138e-07
9.0869e-07
9.41484e-07
9.718e-07
9.99885e-07
1.02592e-06
1.05012e-06
2.03797e-08
-2.03797e-08
4.47942e-08
-2.44146e-08
6.51147e-08
-2.03205e-08
7.9e-08
-1.38853e-08
8.57272e-08
-6.7272e-09
8.54709e-08
2.56302e-10
7.9098e-08
6.37296e-09
6.79038e-08
1.11942e-08
5.31208e-08
1.4783e-08
3.56485e-08
1.74722e-08
1.59837e-08
1.96648e-08
-5.71679e-09
2.17005e-08
-2.95471e-08
2.38303e-08
-5.57216e-08
2.61745e-08
-8.44662e-08
2.87446e-08
-1.15977e-07
3.15108e-08
-1.50388e-07
3.44108e-08
-1.87756e-07
3.73682e-08
-2.28058e-07
4.0302e-08
-2.7119e-07
4.31315e-08
-3.16971e-07
4.57818e-08
-3.65158e-07
4.8187e-08
-4.15452e-07
5.02937e-08
-4.67516e-07
5.20637e-08
-5.2099e-07
5.34739e-08
-5.75507e-07
5.45171e-08
-6.30707e-07
5.51997e-08
-6.86247e-07
5.55404e-08
-7.41817e-07
5.557e-08
-7.97149e-07
5.53325e-08
-8.52031e-07
5.48814e-08
-9.06289e-07
5.42583e-08
-9.59773e-07
5.34842e-08
-1.01236e-06
5.25844e-08
-1.06394e-06
5.15826e-08
-1.11444e-06
5.05005e-08
-1.1638e-06
4.93573e-08
-1.21197e-06
4.81692e-08
-1.25892e-06
4.69495e-08
-1.30463e-06
4.57089e-08
-1.34908e-06
4.44556e-08
-1.39228e-06
4.31954e-08
-1.43421e-06
4.19326e-08
-1.47488e-06
4.06698e-08
-1.51429e-06
3.94083e-08
-1.55244e-06
3.81488e-08
-1.58933e-06
3.68911e-08
-1.62496e-06
3.56345e-08
-1.65934e-06
3.43782e-08
-1.69246e-06
3.31212e-08
-1.72432e-06
3.18622e-08
-1.75492e-06
3.06003e-08
-1.78426e-06
2.93343e-08
-1.81232e-06
2.80636e-08
-1.83911e-06
2.67873e-08
-1.86461e-06
2.55048e-08
-1.88883e-06
2.42159e-08
-1.91175e-06
2.29202e-08
-1.93337e-06
2.16175e-08
-1.95368e-06
2.03078e-08
-1.97267e-06
1.89911e-08
-1.99033e-06
1.76671e-08
-2.00667e-06
1.63358e-08
-2.02167e-06
1.49967e-08
-2.03531e-06
1.36491e-08
-2.04761e-06
1.22918e-08
-2.05853e-06
1.09229e-08
-2.06807e-06
9.53857e-09
-2.0762e-06
8.13505e-09
-2.08291e-06
6.70681e-09
-2.08816e-06
5.24618e-09
-2.0919e-06
3.7445e-09
-2.0941e-06
2.19907e-09
-2.09468e-06
5.76685e-10
-2.09382e-06
-8.58339e-10
-2.09168e-06
-2.13674e-09
-2.08833e-06
-3.35197e-09
-2.0838e-06
-4.52823e-09
-2.07812e-06
-5.68307e-09
-2.07129e-06
-6.82483e-09
-2.06334e-06
-7.95673e-09
-2.05426e-06
-9.07976e-09
-2.04406e-06
-1.01939e-08
-2.03276e-06
-1.12989e-08
-2.02037e-06
-1.2394e-08
-2.00689e-06
-1.34787e-08
-1.99234e-06
-1.45525e-08
-1.97672e-06
-1.56146e-08
-1.96006e-06
-1.66645e-08
-1.94236e-06
-1.77016e-08
-1.92363e-06
-1.87256e-08
-1.9039e-06
-1.97357e-08
-1.88317e-06
-2.07317e-08
-1.86145e-06
-2.17131e-08
-1.83877e-06
-2.26794e-08
-1.81514e-06
-2.36301e-08
-1.79058e-06
-2.4565e-08
-1.76509e-06
-2.54836e-08
-1.73871e-06
-2.63854e-08
-1.71144e-06
-2.72701e-08
-1.6833e-06
-2.81373e-08
-1.65431e-06
-2.89865e-08
-1.6245e-06
-2.98174e-08
-1.59387e-06
-3.06296e-08
-1.56245e-06
-3.14225e-08
-1.53025e-06
-3.21959e-08
-1.4973e-06
-3.29492e-08
-1.46362e-06
-3.3682e-08
-1.42922e-06
-3.43936e-08
-1.39414e-06
-3.50838e-08
-1.35839e-06
-3.57519e-08
-1.32199e-06
-3.63975e-08
-1.28497e-06
-3.702e-08
-1.24735e-06
-3.7619e-08
-1.20916e-06
-3.81938e-08
-1.17041e-06
-3.87439e-08
-1.13115e-06
-3.92689e-08
-1.09138e-06
-3.97682e-08
-1.05114e-06
-4.02412e-08
-1.01045e-06
-4.06876e-08
-9.69342e-07
-4.11068e-08
-9.27843e-07
-4.14983e-08
-8.85982e-07
-4.18618e-08
-8.43785e-07
-4.21968e-08
-8.01282e-07
-4.2503e-08
-7.58502e-07
-4.278e-08
-7.15474e-07
-4.30275e-08
-6.72229e-07
-4.32452e-08
-6.28796e-07
-4.3433e-08
-5.85206e-07
-4.35906e-08
-5.41488e-07
-4.37179e-08
-4.97673e-07
-4.38146e-08
-4.53792e-07
-4.38808e-08
-4.09876e-07
-4.3916e-08
-3.65956e-07
-4.39203e-08
-3.22063e-07
-4.38932e-08
-2.78229e-07
-4.38342e-08
-2.34486e-07
-4.37427e-08
-1.90868e-07
-4.36179e-08
-1.47411e-07
-4.34567e-08
-1.04149e-07
-4.32619e-08
-6.11155e-08
-4.30339e-08
-1.83504e-08
-4.27651e-08
2.41101e-08
-4.24605e-08
6.62247e-08
-4.21146e-08
1.07965e-07
-4.17405e-08
1.4932e-07
-4.13546e-08
1.90284e-07
-4.09641e-08
2.30851e-07
-4.05668e-08
2.71011e-07
-4.01602e-08
3.10754e-07
-3.97431e-08
3.50069e-07
-3.93146e-08
3.88944e-07
-3.88749e-08
4.27368e-07
-3.84245e-08
4.65332e-07
-3.79642e-08
5.02827e-07
-3.74949e-08
5.39845e-07
-3.70178e-08
5.76379e-07
-3.65341e-08
6.12424e-07
-3.6045e-08
6.47976e-07
-3.55517e-08
6.83031e-07
-3.50552e-08
7.17587e-07
-3.45563e-08
7.51643e-07
-3.40555e-08
7.85196e-07
-3.3553e-08
8.18244e-07
-3.30481e-08
8.50783e-07
-3.25393e-08
8.82807e-07
-3.20237e-08
9.14303e-07
-3.1496e-08
9.45251e-07
-3.09483e-08
9.75619e-07
-3.03676e-08
1.00535e-06
-2.97336e-08
1.03437e-06
-2.90138e-08
1.06252e-06
-2.81541e-08
1.08958e-06
-2.70627e-08
1.11514e-06
-2.55611e-08
1.13845e-06
-2.33051e-08
1.15778e-06
-1.93326e-08
1.16925e-06
-1.14659e-08
1.16015e-06
9.09608e-09
5.45048e-08
1.10565e-06
1.76802e-08
-3.80599e-08
2.65341e-08
-3.32685e-08
2.74614e-08
-2.12478e-08
2.26999e-08
-9.12379e-09
1.36375e-08
2.33516e-09
1.02281e-09
1.2871e-08
-1.49213e-08
2.23171e-08
-3.42992e-08
3.05721e-08
-5.72157e-08
3.76995e-08
-8.36827e-08
4.39393e-08
-1.13632e-07
4.96137e-08
-1.4695e-07
5.50194e-08
-1.83483e-07
6.03631e-08
-2.23053e-07
6.57445e-08
-2.65475e-07
7.1166e-08
-3.10526e-07
7.65626e-08
-3.57945e-07
8.18295e-08
-4.07424e-07
8.68467e-08
-4.58617e-07
9.14949e-08
-5.11152e-07
9.56673e-08
-5.64648e-07
9.92774e-08
-6.18724e-07
1.02263e-07
-6.73021e-07
1.0459e-07
-7.27207e-07
1.0625e-07
-7.80991e-07
1.07258e-07
-8.34125e-07
1.07651e-07
-8.86408e-07
1.07483e-07
-9.37684e-07
1.06816e-07
-9.87836e-07
1.05722e-07
-1.03678e-06
1.04278e-07
-1.08445e-06
1.02555e-07
-1.13081e-06
1.00612e-07
-1.17582e-06
9.8498e-08
-1.21949e-06
9.62558e-08
-1.26183e-06
9.39215e-08
-1.30286e-06
9.15251e-08
-1.34259e-06
8.90905e-08
-1.38106e-06
8.66364e-08
-1.41829e-06
8.41768e-08
-1.4543e-06
8.17214e-08
-1.48912e-06
7.92766e-08
-1.52277e-06
7.68459e-08
-1.55527e-06
7.44309e-08
-1.58663e-06
7.20313e-08
-1.61687e-06
6.96458e-08
-1.64599e-06
6.72721e-08
-1.67401e-06
6.49076e-08
-1.70092e-06
6.25494e-08
-1.72674e-06
6.01945e-08
-1.75146e-06
5.78401e-08
-1.77508e-06
5.54834e-08
-1.7976e-06
5.31222e-08
-1.81902e-06
5.07543e-08
-1.83933e-06
4.83782e-08
-1.85854e-06
4.59925e-08
-1.87663e-06
4.35961e-08
-1.8936e-06
4.11885e-08
-1.90945e-06
3.87694e-08
-1.92417e-06
3.63385e-08
-1.93776e-06
3.3896e-08
-1.95021e-06
3.14423e-08
-1.96152e-06
2.89776e-08
-1.97169e-06
2.65025e-08
-1.98071e-06
2.40174e-08
-1.98858e-06
2.15227e-08
-1.99531e-06
1.90189e-08
-2.00089e-06
1.65063e-08
-2.00534e-06
1.39856e-08
-2.00866e-06
1.14579e-08
-2.01088e-06
8.92549e-09
-2.01203e-06
6.39293e-09
-2.01215e-06
3.86928e-09
-2.01133e-06
1.37587e-09
-2.00968e-06
-1.07511e-09
-2.00708e-06
-3.45354e-09
-2.00344e-06
-5.7773e-09
-1.99872e-06
-8.07994e-09
-1.99288e-06
-1.03646e-08
-1.98593e-06
-1.2633e-08
-1.97787e-06
-1.48865e-08
-1.9687e-06
-1.71251e-08
-1.95843e-06
-1.93483e-08
-1.94707e-06
-2.15551e-08
-1.93462e-06
-2.37443e-08
-1.9211e-06
-2.59145e-08
-1.90652e-06
-2.80645e-08
-1.89088e-06
-3.01929e-08
-1.87419e-06
-3.22986e-08
-1.85648e-06
-3.43803e-08
-1.83774e-06
-3.64369e-08
-1.818e-06
-3.84675e-08
-1.79727e-06
-4.0471e-08
-1.77555e-06
-4.24464e-08
-1.75287e-06
-4.43929e-08
-1.72924e-06
-4.63096e-08
-1.70468e-06
-4.81956e-08
-1.67919e-06
-5.00501e-08
-1.6528e-06
-5.18722e-08
-1.62553e-06
-5.36611e-08
-1.59738e-06
-5.5416e-08
-1.56838e-06
-5.71361e-08
-1.53855e-06
-5.88204e-08
-1.5079e-06
-6.04682e-08
-1.47645e-06
-6.20788e-08
-1.44422e-06
-6.36511e-08
-1.41123e-06
-6.51843e-08
-1.3775e-06
-6.66776e-08
-1.34305e-06
-6.81298e-08
-1.30791e-06
-6.954e-08
-1.27208e-06
-7.09073e-08
-1.23561e-06
-7.22306e-08
-1.19849e-06
-7.35088e-08
-1.16077e-06
-7.47411e-08
-1.12247e-06
-7.59263e-08
-1.0836e-06
-7.70633e-08
-1.04419e-06
-7.8151e-08
-1.00427e-06
-7.91885e-08
-9.63864e-07
-8.01746e-08
-9.22996e-07
-8.11085e-08
-8.81695e-07
-8.1989e-08
-8.39987e-07
-8.28152e-08
-7.97899e-07
-8.35863e-08
-7.55459e-07
-8.43012e-08
-7.12697e-07
-8.49594e-08
-6.6964e-07
-8.556e-08
-6.26317e-07
-8.61023e-08
-5.82759e-07
-8.65857e-08
-5.38994e-07
-8.70098e-08
-4.95053e-07
-8.73741e-08
-4.50966e-07
-8.76782e-08
-4.06762e-07
-8.79217e-08
-3.62472e-07
-8.81044e-08
-3.18127e-07
-8.82261e-08
-2.73757e-07
-8.82864e-08
-2.29392e-07
-8.82849e-08
-1.85064e-07
-8.82214e-08
-1.40803e-07
-8.80949e-08
-9.66415e-08
-8.79043e-08
-5.26103e-08
-8.76491e-08
-8.74102e-09
-8.7326e-08
3.4933e-08
-8.69359e-08
7.83789e-08
-8.64797e-08
1.2157e-07
-8.59566e-08
1.64483e-07
-8.53728e-08
2.07097e-07
-8.47288e-08
2.49392e-07
-8.40354e-08
2.91347e-07
-8.33095e-08
3.32942e-07
-8.25594e-08
3.74161e-07
-8.17861e-08
4.1499e-07
-8.09891e-08
4.55415e-07
-8.01677e-08
4.95422e-07
-7.93221e-08
5.35001e-07
-7.84531e-08
5.74138e-07
-7.75622e-08
6.12825e-07
-7.66512e-08
6.51053e-07
-7.57222e-08
6.88813e-07
-7.47778e-08
7.26099e-07
-7.38202e-08
7.62906e-07
-7.2852e-08
7.99229e-07
-7.18755e-08
8.35067e-07
-7.08927e-08
8.70416e-07
-6.99053e-08
9.05275e-07
-6.89145e-08
9.39642e-07
-6.79204e-08
9.73516e-07
-6.69218e-08
1.00689e-06
-6.59155e-08
1.03976e-06
-6.48956e-08
1.07212e-06
-6.38521e-08
1.10394e-06
-6.27686e-08
1.13519e-06
-6.16197e-08
1.16582e-06
-6.03651e-08
1.19575e-06
-5.89409e-08
1.22484e-06
-5.72421e-08
1.25287e-06
-5.50915e-08
1.27947e-06
-5.21602e-08
1.304e-06
-4.78362e-08
1.32534e-06
-4.06744e-08
1.34191e-06
-2.80376e-08
1.35214e-06
-1.1272e-09
5.40887e-08
1.35255e-06
2.23051e-09
-4.02904e-08
-5.21895e-09
-2.5819e-08
-1.73728e-08
-9.09392e-09
-3.26333e-08
6.13667e-09
-5.04482e-08
2.01501e-08
-7.06729e-08
3.30957e-08
-9.33651e-08
4.50092e-08
-1.18701e-07
5.59077e-08
-1.46867e-07
6.58653e-08
-1.77963e-07
7.50356e-08
-2.11961e-07
8.36116e-08
-2.48708e-07
9.17669e-08
-2.87957e-07
9.96117e-08
-3.29391e-07
1.07179e-07
-3.72659e-07
1.14434e-07
-4.17389e-07
1.21292e-07
-4.63208e-07
1.27648e-07
-5.09752e-07
1.33391e-07
-5.56681e-07
1.38424e-07
-6.03684e-07
1.42671e-07
-6.50492e-07
1.46085e-07
-6.96881e-07
1.48651e-07
-7.4267e-07
1.5038e-07
-7.87728e-07
1.51308e-07
-8.31961e-07
1.51491e-07
-8.75311e-07
1.51001e-07
-9.17745e-07
1.49917e-07
-9.59252e-07
1.48323e-07
-9.99833e-07
1.46303e-07
-1.03949e-06
1.43938e-07
-1.07824e-06
1.413e-07
-1.11608e-06
1.38451e-07
-1.15302e-06
1.35443e-07
-1.18909e-06
1.3232e-07
-1.22428e-06
1.29118e-07
-1.25862e-06
1.25864e-07
-1.29211e-06
1.22581e-07
-1.32476e-06
1.19284e-07
-1.35657e-06
1.15987e-07
-1.38754e-06
1.12694e-07
-1.41768e-06
1.09412e-07
-1.44697e-06
1.0614e-07
-1.47542e-06
1.0288e-07
-1.50302e-06
9.96285e-08
-1.52976e-06
9.63835e-08
-1.55563e-06
9.31415e-08
-1.58062e-06
8.98988e-08
-1.60472e-06
8.66516e-08
-1.62792e-06
8.33963e-08
-1.65021e-06
8.01296e-08
-1.67157e-06
7.68484e-08
-1.692e-06
7.35501e-08
-1.71148e-06
7.02326e-08
-1.73e-06
6.68943e-08
-1.74754e-06
6.35341e-08
-1.76409e-06
6.01512e-08
-1.77965e-06
5.67455e-08
-1.7942e-06
5.33171e-08
-1.80773e-06
4.98667e-08
-1.82023e-06
4.63952e-08
-1.83169e-06
4.29037e-08
-1.8421e-06
3.93939e-08
-1.85147e-06
3.58674e-08
-1.85978e-06
3.23261e-08
-1.86703e-06
2.87723e-08
-1.87322e-06
2.52084e-08
-1.87835e-06
2.16372e-08
-1.88242e-06
1.80623e-08
-1.88545e-06
1.4488e-08
-1.88745e-06
1.09197e-08
-1.88842e-06
7.36482e-09
-1.88838e-06
3.83274e-09
-1.88734e-06
3.31808e-10
-1.88529e-06
-3.12534e-09
-1.8822e-06
-6.54761e-09
-1.87803e-06
-9.94314e-09
-1.87279e-06
-1.33207e-08
-1.86647e-06
-1.66823e-08
-1.85908e-06
-2.00276e-08
-1.85061e-06
-2.33554e-08
-1.84107e-06
-2.6664e-08
-1.83046e-06
-2.99515e-08
-1.8188e-06
-3.32159e-08
-1.80609e-06
-3.64549e-08
-1.79234e-06
-3.96666e-08
-1.77756e-06
-4.28489e-08
-1.76175e-06
-4.59998e-08
-1.74493e-06
-4.91174e-08
-1.72711e-06
-5.22001e-08
-1.7083e-06
-5.5246e-08
-1.68852e-06
-5.82536e-08
-1.66777e-06
-6.12213e-08
-1.64606e-06
-6.41478e-08
-1.62343e-06
-6.70317e-08
-1.59986e-06
-6.98716e-08
-1.57539e-06
-7.26663e-08
-1.55003e-06
-7.54144e-08
-1.52379e-06
-7.81146e-08
-1.49668e-06
-8.07658e-08
-1.46873e-06
-8.33666e-08
-1.43995e-06
-8.59157e-08
-1.41036e-06
-8.8412e-08
-1.37997e-06
-9.08541e-08
-1.34881e-06
-9.32407e-08
-1.31689e-06
-9.55707e-08
-1.28423e-06
-9.78427e-08
-1.25086e-06
-1.00055e-07
-1.21678e-06
-1.02207e-07
-1.18202e-06
-1.04296e-07
-1.14661e-06
-1.06321e-07
-1.11056e-06
-1.08281e-07
-1.0739e-06
-1.10174e-07
-1.03664e-06
-1.11998e-07
-9.98813e-07
-1.13752e-07
-9.60441e-07
-1.15435e-07
-9.21548e-07
-1.17044e-07
-8.82158e-07
-1.18578e-07
-8.42296e-07
-1.20036e-07
-8.01988e-07
-1.21417e-07
-7.6126e-07
-1.22717e-07
-7.20138e-07
-1.23937e-07
-6.78649e-07
-1.25075e-07
-6.36821e-07
-1.26129e-07
-5.94682e-07
-1.27099e-07
-5.52259e-07
-1.27983e-07
-5.09581e-07
-1.2878e-07
-4.66677e-07
-1.2949e-07
-4.23576e-07
-1.30111e-07
-3.80308e-07
-1.30643e-07
-3.369e-07
-1.31086e-07
-2.93384e-07
-1.31438e-07
-2.49788e-07
-1.317e-07
-2.06143e-07
-1.31871e-07
-1.62478e-07
-1.31952e-07
-1.18822e-07
-1.3194e-07
-7.52067e-08
-1.31837e-07
-3.16606e-08
-1.31641e-07
1.17865e-08
-1.31351e-07
5.51039e-08
-1.30966e-07
9.82626e-08
-1.30485e-07
1.41233e-07
-1.29907e-07
1.83989e-07
-1.29235e-07
2.26508e-07
-1.28476e-07
2.68775e-07
-1.27639e-07
3.10775e-07
-1.26729e-07
3.52487e-07
-1.25747e-07
3.93883e-07
-1.24706e-07
4.34941e-07
-1.23617e-07
4.75638e-07
-1.22483e-07
5.15958e-07
-1.21309e-07
5.55884e-07
-1.20094e-07
5.95403e-07
-1.18841e-07
6.34502e-07
-1.17552e-07
6.73169e-07
-1.1623e-07
7.11395e-07
-1.14877e-07
7.4917e-07
-1.13497e-07
7.86487e-07
-1.12095e-07
8.23339e-07
-1.10673e-07
8.59722e-07
-1.09235e-07
8.95632e-07
-1.07785e-07
9.31065e-07
-1.06326e-07
9.6602e-07
-1.04861e-07
1.0005e-06
-1.0339e-07
1.03449e-06
-1.01916e-07
1.068e-06
-1.00434e-07
1.10103e-06
-9.89421e-08
1.13357e-06
-9.74302e-08
1.1656e-06
-9.58836e-08
1.19711e-06
-9.42784e-08
1.22806e-06
-9.25772e-08
1.25842e-06
-9.07214e-08
1.2881e-06
-8.86184e-08
1.31697e-06
-8.61187e-08
1.34486e-06
-8.2974e-08
1.37144e-06
-7.87436e-08
1.39624e-06
-7.26377e-08
1.41858e-06
-6.30164e-08
1.43759e-06
-4.70488e-08
1.4538e-06
-1.73356e-08
3.70803e-08
1.47081e-06
-1.29418e-08
-2.73486e-08
-3.18124e-08
-6.94834e-09
-5.25941e-08
1.16877e-08
-7.4807e-08
2.83496e-08
-9.84327e-08
4.37757e-08
-1.23575e-07
5.82383e-08
-1.50388e-07
7.18219e-08
-1.79035e-07
8.45548e-08
-2.09643e-07
9.64733e-08
-2.4225e-07
1.07643e-07
-2.7678e-07
1.18142e-07
-3.1305e-07
1.28037e-07
-3.50797e-07
1.37358e-07
-3.89708e-07
1.4609e-07
-4.29456e-07
1.54181e-07
-4.69719e-07
1.61555e-07
-5.102e-07
1.6813e-07
-5.50643e-07
1.73834e-07
-5.90832e-07
1.78613e-07
-6.30601e-07
1.82439e-07
-6.69828e-07
1.85313e-07
-7.08435e-07
1.87258e-07
-7.46377e-07
1.88322e-07
-7.8364e-07
1.88571e-07
-8.20228e-07
1.8808e-07
-8.56161e-07
1.86933e-07
-8.91462e-07
1.85218e-07
-9.26158e-07
1.83018e-07
-9.60271e-07
1.80416e-07
-9.93819e-07
1.77486e-07
-1.02681e-06
1.74293e-07
-1.05926e-06
1.70896e-07
-1.09115e-06
1.67341e-07
-1.1225e-06
1.63669e-07
-1.1533e-06
1.59911e-07
-1.18353e-06
1.56094e-07
-1.21318e-06
1.52236e-07
-1.24225e-06
1.48351e-07
-1.27071e-06
1.44449e-07
-1.29855e-06
1.40536e-07
-1.32576e-06
1.36616e-07
-1.35231e-06
1.32688e-07
-1.37818e-06
1.28752e-07
-1.40336e-06
1.24807e-07
-1.42782e-06
1.20848e-07
-1.45155e-06
1.16873e-07
-1.47453e-06
1.12878e-07
-1.49674e-06
1.0886e-07
-1.51816e-06
1.04814e-07
-1.53877e-06
1.00738e-07
-1.55855e-06
9.66295e-08
-1.57748e-06
9.24856e-08
-1.59556e-06
8.8305e-08
-1.61275e-06
8.40866e-08
-1.62904e-06
7.98299e-08
-1.64443e-06
7.5535e-08
-1.65888e-06
7.12023e-08
-1.6724e-06
6.68331e-08
-1.68496e-06
6.24289e-08
-1.69656e-06
5.79916e-08
-1.70718e-06
5.35237e-08
-1.71681e-06
4.90279e-08
-1.72545e-06
4.45074e-08
-1.73309e-06
3.99654e-08
-1.73973e-06
3.54059e-08
-1.74535e-06
3.08328e-08
-1.74996e-06
2.62507e-08
-1.75357e-06
2.16646e-08
-1.75616e-06
1.708e-08
-1.75774e-06
1.2503e-08
-1.75832e-06
7.94024e-09
-1.75788e-06
3.39816e-09
-1.75643e-06
-1.11807e-09
-1.75395e-06
-5.60483e-09
-1.75044e-06
-1.00653e-08
-1.74587e-06
-1.45049e-08
-1.74027e-06
-1.89269e-08
-1.73362e-06
-2.33316e-08
-1.72593e-06
-2.77174e-08
-1.7172e-06
-3.20824e-08
-1.70744e-06
-3.64236e-08
-1.69666e-06
-4.07383e-08
-1.68485e-06
-4.50235e-08
-1.67203e-06
-4.92763e-08
-1.6582e-06
-5.34939e-08
-1.64337e-06
-5.76735e-08
-1.62756e-06
-6.18125e-08
-1.61077e-06
-6.59083e-08
-1.59301e-06
-6.99586e-08
-1.5743e-06
-7.39611e-08
-1.55464e-06
-7.79137e-08
-1.53404e-06
-8.18144e-08
-1.51253e-06
-8.56611e-08
-1.49011e-06
-8.94522e-08
-1.4668e-06
-9.31857e-08
-1.4426e-06
-9.686e-08
-1.41754e-06
-1.00473e-07
-1.39163e-06
-1.04024e-07
-1.36489e-06
-1.0751e-07
-1.33733e-06
-1.1093e-07
-1.30896e-06
-1.14282e-07
-1.27981e-06
-1.17565e-07