/*--------------------------------*- C++ -*----------------------------------*\
| =========                 |                                                 |
| \\      /  F ield         | OpenFOAM: The Open Source CFD Toolbox           |
|  \\    /   O peration     | Version:  2412                                  |
|   \\  /    A nd           | Website:  www.openfoam.com                      |
|    \\/     M anipulation  |                                                 |
\*---------------------------------------------------------------------------*/
FoamFile
{
    version     2.0;
    format      ascii;
    arch        "LSB;label=32;scalar=64";
    class       volVectorField;
    location    "0.18";
    object      U;
}
// * * * * * * * * * * * * * * * * * * * * * * * * * * * * * * * * * * * * * //

dimensions      [0 1 -1 0 0 0 0];

internalField   nonuniform List<vector> 
12225
(
(0.377183 -0.200896 0)
(0.543961 -0.0519269 0)
(0.711045 -0.0340145 0)
(0.893976 -0.0304767 0)
(1.05911 -0.0297469 0)
(1.20884 -0.0284524 0)
(1.34616 -0.0265181 0)
(1.47045 -0.0245754 0)
(1.58219 -0.0227661 0)
(1.68266 -0.0210735 0)
(1.77301 -0.0194951 0)
(1.85421 -0.0180225 0)
(1.92708 -0.0166345 0)
(1.9923 -0.0152889 0)
(2.05021 -0.013962 0)
(2.10169 -0.0125022 0)
(2.14289 -0.0103442 0)
(2.19048 -0.0128429 0)
(0.933503 -0.0317783 0)
(1.0567 -0.0587099 0)
(1.23664 -0.0688998 0)
(1.42155 -0.0644841 0)
(1.58552 -0.0618118 0)
(1.73441 -0.0589655 0)
(1.8713 -0.0555632 0)
(1.99601 -0.0521756 0)
(2.10901 -0.0489332 0)
(2.21134 -0.0458433 0)
(2.30398 -0.0429203 0)
(2.38777 -0.0401498 0)
(2.46344 -0.0374899 0)
(2.53162 -0.0348612 0)
(2.5927 -0.0322031 0)
(2.64706 -0.0290679 0)
(2.69419 -0.0260606 0)
(2.73603 -0.0159244 0)
(1.39962 -0.0846818 0)
(1.49179 -0.105677 0)
(1.65465 -0.107236 0)
(1.82259 -0.101939 0)
(1.97267 -0.0979868 0)
(2.11036 -0.093649 0)
(2.23773 -0.0887366 0)
(2.35447 -0.0837928 0)
(2.46091 -0.0789904 0)
(2.55783 -0.0743755 0)
(2.64598 -0.0699738 0)
(2.72605 -0.0657662 0)
(2.79865 -0.0616931 0)
(2.8643 -0.0576475 0)
(2.9234 -0.0534978 0)
(2.97618 -0.0488238 0)
(3.02283 -0.043603 0)
(3.06262 -0.0340906 0)
(1.89741 -0.115425 0)
(1.94623 -0.143307 0)
(2.0752 -0.144981 0)
(2.21747 -0.140763 0)
(2.34797 -0.135774 0)
(2.46971 -0.13004 0)
(2.5835 -0.123689 0)
(2.68864 -0.1172 0)
(2.78521 -0.110812 0)
(2.87368 -0.104626 0)
(2.95455 -0.0986845 0)
(3.02834 -0.0929688 0)
(3.09549 -0.087408 0)
(3.15644 -0.0818723 0)
(3.21154 -0.07618 0)
(3.26094 -0.0699085 0)
(3.30519 -0.0627669 0)
(3.34273 -0.0517514 0)
(2.43108 -0.12583 0)
(2.4405 -0.16989 0)
(2.5288 -0.177409 0)
(2.64002 -0.176168 0)
(2.74679 -0.171225 0)
(2.84901 -0.164723 0)
(2.94614 -0.157369 0)
(3.03698 -0.149668 0)
(3.12122 -0.141952 0)
(3.19899 -0.134393 0)
(3.27055 -0.127065 0)
(3.33618 -0.119961 0)
(3.3962 -0.113009 0)
(3.45089 -0.10607 0)
(3.50056 -0.098931 0)
(3.54533 -0.0911853 0)
(3.58601 -0.082397 0)
(3.62055 -0.0702907 0)
(2.99683 -0.123684 0)
(2.97697 -0.185368 0)
(3.02468 -0.201457 0)
(3.10202 -0.204947 0)
(3.18209 -0.201567 0)
(3.26195 -0.195248 0)
(3.33992 -0.187543 0)
(3.4142 -0.17915 0)
(3.48403 -0.170527 0)
(3.54921 -0.161941 0)
(3.6097 -0.153512 0)
(3.66558 -0.145261 0)
(3.71699 -0.137128 0)
(3.76409 -0.128978 0)
(3.80711 -0.120594 0)
(3.84613 -0.111607 0)
(3.88216 -0.101562 0)
(3.91263 -0.0888719 0)
(3.58832 -0.114508 0)
(3.55089 -0.190582 0)
(3.5632 -0.215889 0)
(3.60677 -0.225312 0)
(3.65873 -0.224998 0)
(3.71441 -0.219948 0)
(3.77138 -0.212672 0)
(3.82732 -0.204211 0)
(3.88106 -0.195197 0)
(3.93204 -0.186012 0)
(3.97997 -0.176847 0)
(4.02471 -0.167764 0)
(4.06622 -0.158729 0)
(4.10455 -0.149628 0)
(4.13982 -0.140263 0)
(4.17207 -0.130326 0)
(4.20237 -0.119423 0)
(4.22768 -0.106514 0)
(4.1988 -0.101766 0)
(4.15397 -0.187074 0)
(4.13918 -0.220702 0)
(4.15217 -0.236303 0)
(4.17667 -0.24013 0)
(4.20775 -0.23738 0)
(4.24279 -0.231346 0)
(4.2793 -0.223498 0)
(4.31578 -0.214669 0)
(4.3514 -0.205377 0)
(4.38562 -0.1959 0)
(4.4181 -0.186358 0)
(4.44865 -0.176759 0)
(4.47719 -0.167023 0)
(4.50376 -0.156994 0)
(4.52831 -0.146436 0)
(4.55194 -0.135054 0)
(4.57106 -0.122212 0)
(4.82185 -0.0878088 0)
(4.77662 -0.176873 0)
(4.74389 -0.216838 0)
(4.73189 -0.23782 0)
(4.73177 -0.246113 0)
(4.73953 -0.246392 0)
(4.75301 -0.242312 0)
(4.76995 -0.235727 0)
(4.78874 -0.227669 0)
(4.8084 -0.218788 0)
(4.82822 -0.209462 0)
(4.84772 -0.199878 0)
(4.86657 -0.190098 0)
(4.88458 -0.18009 0)
(4.9017 -0.169752 0)
(4.9178 -0.158927 0)
(4.93395 -0.14743 0)
(4.94602 -0.134916 0)
(5.45146 -0.0741089 0)
(5.4095 -0.162008 0)
(5.36681 -0.205822 0)
(5.33652 -0.230636 0)
(5.31634 -0.242886 0)
(5.30381 -0.2464 0)
(5.29756 -0.244707 0)
(5.29596 -0.239883 0)
(5.29761 -0.233104 0)
(5.30149 -0.225121 0)
(5.30687 -0.216401 0)
(5.31319 -0.2072 0)
(5.32004 -0.197641 0)
(5.32714 -0.187746 0)
(5.33438 -0.177473 0)
(5.34154 -0.166743 0)
(5.34963 -0.155481 0)
(5.35404 -0.143534 0)
(6.08167 -0.0613941 0)
(6.0441 -0.144168 0)
(5.99713 -0.189312 0)
(5.95492 -0.216149 0)
(5.92004 -0.231229 0)
(5.89153 -0.2376 0)
(5.86879 -0.238314 0)
(5.85095 -0.235461 0)
(5.83706 -0.230275 0)
(5.82629 -0.223553 0)
(5.81798 -0.215815 0)
(5.81159 -0.207378 0)
(5.8067 -0.198414 0)
(5.803 -0.189002 0)
(5.80033 -0.179159 0)
(5.79841 -0.168872 0)
(5.79821 -0.158162 0)
(5.79466 -0.147008 0)
(6.65461 -0.0506021 0)
(6.62055 -0.126192 0)
(6.57304 -0.170563 0)
(6.52476 -0.197741 0)
(6.48111 -0.214193 0)
(6.44228 -0.222444 0)
(6.40812 -0.22499 0)
(6.37837 -0.223803 0)
(6.35258 -0.220101 0)
(6.33021 -0.214665 0)
(6.31077 -0.208023 0)
(6.29381 -0.200518 0)
(6.27898 -0.19236 0)
(6.26599 -0.183665 0)
(6.25467 -0.174493 0)
(6.24471 -0.164886 0)
(6.23707 -0.154902 0)
(6.22628 -0.144714 0)
(7.20973 -0.0406544 0)
(7.18016 -0.107379 0)
(7.13446 -0.149584 0)
(7.08341 -0.176106 0)
(7.03443 -0.192935 0)
(6.98879 -0.202305 0)
(6.94657 -0.206176 0)
(6.90794 -0.20632 0)
(6.87286 -0.203911 0)
(6.84111 -0.19969 0)
(6.8124 -0.194161 0)
(6.78644 -0.18767 0)
(6.76297 -0.18044 0)
(6.74176 -0.172615 0)
(6.72266 -0.164285 0)
(6.70538 -0.15553 0)
(6.69082 -0.146419 0)
(6.67339 -0.137336 0)
(7.81811 -0.0310651 0)
(7.79338 -0.0861125 0)
(7.75172 -0.123819 0)
(7.70082 -0.148267 0)
(7.64925 -0.164294 0)
(7.59952 -0.173917 0)
(7.55196 -0.17856 0)
(7.50694 -0.179669 0)
(7.46476 -0.178325 0)
(7.42549 -0.175219 0)
(7.38907 -0.17081 0)
(7.35536 -0.16542 0)
(7.32423 -0.159272 0)
(7.29554 -0.152517 0)
(7.26921 -0.145266 0)
(7.24498 -0.137614 0)
(7.2237 -0.129656 0)
(7.19988 -0.121858 0)
(8.45855 -0.0222908 0)
(8.43893 -0.0637503 0)
(8.40342 -0.0942242 0)
(8.35608 -0.114632 0)
(8.30534 -0.128266 0)
(8.25481 -0.136865 0)
(8.20524 -0.141398 0)
(8.15711 -0.142866 0)
(8.11097 -0.142145 0)
(8.06715 -0.139838 0)
(8.02575 -0.136343 0)
(7.98678 -0.131944 0)
(7.95023 -0.126847 0)
(7.91605 -0.121203 0)
(7.88423 -0.115126 0)
(7.85455 -0.108717 0)
(7.82783 -0.102072 0)
(7.79896 -0.095681 0)
(9.08866 -0.014366 0)
(9.07382 -0.0417208 0)
(9.04561 -0.0628192 0)
(9.00496 -0.0771543 0)
(8.95895 -0.0865718 0)
(8.91166 -0.0924421 0)
(8.86417 -0.0954566 0)
(8.81704 -0.0962264 0)
(8.77094 -0.0953453 0)
(8.72641 -0.0932602 0)
(8.68374 -0.0902683 0)
(8.64308 -0.0865794 0)
(8.60448 -0.0823541 0)
(8.56798 -0.0777169 0)
(8.53362 -0.0727693 0)
(8.50126 -0.0676073 0)
(8.47163 -0.0622998 0)
(8.44039 -0.057355 0)
(9.63295 -0.00706778 0)
(9.6217 -0.0206912 0)
(9.59987 -0.0313713 0)
(9.56659 -0.0383447 0)
(9.52746 -0.0423726 0)
(9.48644 -0.0442864 0)
(9.44471 -0.0445367 0)
(9.40274 -0.0434621 0)
(9.36111 -0.0414055 0)
(9.32038 -0.0386502 0)
(9.28094 -0.035392 0)
(9.24297 -0.0317679 0)
(9.2066 -0.0278857 0)
(9.17191 -0.0238366 0)
(9.13898 -0.0196936 0)
(9.10773 -0.0155374 0)
(9.07871 -0.0113822 0)
(9.04892 -0.00772197 0)
(9.96404 0.000113266 0)
(9.95459 0.000180462 0)
(9.93649 0.000651548 0)
(9.90812 0.00190907 0)
(9.87423 0.00386518 0)
(9.83859 0.00632855 0)
(9.80247 0.00919485 0)
(9.76622 0.0123925 0)
(9.7303 0.0158373 0)
(9.6952 0.0194486 0)
(9.66123 0.0231639 0)
(9.62855 0.0269333 0)
(9.59723 0.030711 0)
(9.56729 0.0344486 0)
(9.53878 0.0381039 0)
(9.51164 0.0416131 0)
(9.48605 0.0450008 0)
(9.46099 0.0478513 0)
(9.87499 0.00747962 0)
(9.86688 0.0218164 0)
(9.84987 0.0342422 0)
(9.8225 0.0444541 0)
(9.7896 0.0528764 0)
(9.75499 0.0599916 0)
(9.71995 0.0660967 0)
(9.68485 0.0714069 0)
(9.65017 0.076119 0)
(9.6164 0.0803919 0)
(9.58386 0.0843335 0)
(9.55268 0.0880117 0)
(9.52294 0.091469 0)
(9.49464 0.0947284 0)
(9.46777 0.0977987 0)
(9.44235 0.100661 0)
(9.41808 0.103353 0)
(9.39603 0.105594 0)
(9.28437 0.0159243 0)
(9.27065 0.0462149 0)
(9.24579 0.0712111 0)
(9.20981 0.0904449 0)
(9.16898 0.105276 0)
(9.12727 0.116906 0)
(9.08578 0.126018 0)
(9.04491 0.133153 0)
(9.0052 0.138824 0)
(8.96714 0.143437 0)
(8.931 0.147267 0)
(8.89685 0.150508 0)
(8.86471 0.153296 0)
(8.83454 0.155733 0)
(8.80626 0.157888 0)
(8.77984 0.159811 0)
(8.75481 0.161552 0)
(8.73315 0.162963 0)
(8.47101 0.0260955 0)
(8.45236 0.0738237 0)
(8.41971 0.110373 0)
(8.37626 0.136918 0)
(8.32997 0.156576 0)
(8.28455 0.171196 0)
(8.24072 0.181811 0)
(8.19879 0.189379 0)
(8.15923 0.194759 0)
(8.12235 0.198578 0)
(8.08818 0.201262 0)
(8.05666 0.203119 0)
(8.02766 0.204378 0)
(8.00105 0.205209 0)
(7.97665 0.205739 0)
(7.95437 0.206063 0)
(7.93367 0.206243 0)
(7.91658 0.206234 0)
(7.51239 0.038528 0)
(7.4866 0.104517 0)
(7.44645 0.15025 0)
(7.39955 0.181387 0)
(7.35395 0.203374 0)
(7.31183 0.218508 0)
(7.27317 0.228318 0)
(7.23805 0.234341 0)
(7.20659 0.237792 0)
(7.17866 0.239471 0)
(7.154 0.239918 0)
(7.13231 0.239526 0)
(7.11331 0.238579 0)
(7.09672 0.23728 0)
(7.08227 0.235771 0)
(7.06976 0.23416 0)
(7.05867 0.232503 0)
(7.05075 0.230823 0)
(6.48931 0.0542288 0)
(6.45655 0.136913 0)
(6.41295 0.186968 0)
(6.37064 0.218579 0)
(6.33488 0.239421 0)
(6.30527 0.252076 0)
(6.28105 0.258784 0)
(6.26183 0.261626 0)
(6.24702 0.26199 0)
(6.23595 0.260731 0)
(6.228 0.258429 0)
(6.22267 0.255496 0)
(6.2195 0.252218 0)
(6.21813 0.248785 0)
(6.21823 0.245327 0)
(6.21957 0.241932 0)
(6.2217 0.238647 0)
(6.22603 0.235526 0)
(5.45712 0.0733925 0)
(5.41829 0.166498 0)
(5.37868 0.214131 0)
(5.35277 0.241961 0)
(5.33863 0.258355 0)
(5.33246 0.266116 0)
(5.3327 0.268296 0)
(5.33808 0.267223 0)
(5.34723 0.264212 0)
(5.35904 0.26005 0)
(5.37276 0.255266 0)
(5.3878 0.250215 0)
(5.40372 0.245122 0)
(5.42017 0.240126 0)
(5.43689 0.235312 0)
(5.45372 0.230734 0)
(5.47034 0.226413 0)
(5.48787 0.222412 0)
(4.45282 0.0947794 0)
(4.41206 0.187417 0)
(4.39048 0.225945 0)
(4.3966 0.246409 0)
(4.41648 0.255936 0)
(4.44335 0.257842 0)
(4.47527 0.255597 0)
(4.51035 0.251214 0)
(4.54691 0.245674 0)
(4.58389 0.239572 0)
(4.62066 0.233306 0)
(4.65682 0.227117 0)
(4.69208 0.221146 0)
(4.72626 0.215469 0)
(4.75926 0.210124 0)
(4.79105 0.205127 0)
(4.82146 0.200479 0)
(4.85145 0.196243 0)
(3.50293 0.114454 0)
(3.47301 0.192925 0)
(3.48913 0.217655 0)
(3.5412 0.228897 0)
(3.60261 0.231475 0)
(3.6665 0.228844 0)
(3.73178 0.223841 0)
(3.79675 0.217734 0)
(3.85999 0.211127 0)
(3.92087 0.204416 0)
(3.97911 0.197856 0)
(4.03461 0.191589 0)
(4.08733 0.185683 0)
(4.13734 0.180167 0)
(4.18471 0.175045 0)
(4.22958 0.170306 0)
(4.27197 0.165938 0)
(4.31271 0.162013 0)
(2.62982 0.122984 0)
(2.63207 0.176392 0)
(2.70178 0.187975 0)
(2.8047 0.191093 0)
(2.90734 0.189121 0)
(3.00605 0.184605 0)
(3.10162 0.178933 0)
(3.19307 0.172751 0)
(3.27955 0.166459 0)
(3.36094 0.160313 0)
(3.43739 0.154457 0)
(3.5091 0.148965 0)
(3.57632 0.143862 0)
(3.63934 0.139149 0)
(3.69846 0.134809 0)
(3.75396 0.130822 0)
(3.80601 0.127163 0)
(3.85539 0.123928 0)
(1.85178 0.104826 0)
(1.90639 0.134441 0)
(2.03033 0.141901 0)
(2.17814 0.140519 0)
(2.31588 0.137044 0)
(2.44344 0.132929 0)
(2.56368 0.128112 0)
(2.67651 0.123001 0)
(2.78159 0.117956 0)
(2.8792 0.11313 0)
(2.96988 0.108597 0)
(3.05416 0.104391 0)
(3.13253 0.100519 0)
(3.20548 0.0969664 0)
(3.27348 0.0937134 0)
(3.33697 0.0907362 0)
(3.39625 0.0879996 0)
(3.45208 0.0856105 0)
(1.17533 0.0416902 0)
(1.28238 0.0661068 0)
(1.43869 0.0889891 0)
(1.6166 0.0891803 0)
(1.78035 0.0862343 0)
(1.92917 0.0833363 0)
(2.06744 0.0798397 0)
(2.19587 0.0761243 0)
(2.31435 0.0725353 0)
(2.42349 0.0691573 0)
(2.52412 0.0660155 0)
(2.61706 0.0631255 0)
(2.703 0.060484 0)
(2.78262 0.0580746 0)
(2.85649 0.055877 0)
(2.92518 0.0538743 0)
(2.9891 0.0520046 0)
(3.04897 0.0503673 0)
(0.469484 0.226529 0)
(0.642365 0.0691636 0)
(0.788942 0.0480268 0)
(0.972462 0.0444118 0)
(1.14914 0.042974 0)
(1.30918 0.0416815 0)
(1.4569 0.039649 0)
(1.59328 0.037334 0)
(1.71812 0.0351162 0)
(1.83219 0.0330685 0)
(1.93663 0.0311866 0)
(2.0325 0.0294683 0)
(2.12065 0.0279072 0)
(2.20187 0.0264904 0)
(2.27687 0.025202 0)
(2.34628 0.0240348 0)
(2.41061 0.0229357 0)
(2.47017 0.0219836 0)
(0.00964194 -0.0204153 -2.68924e-20)
(0.0294602 -0.0320019 2.62175e-20)
(0.0491628 -0.0316758 0)
(0.0649331 -0.0254654 0)
(0.0744526 -0.0165994 0)
(0.0776766 -0.00711645 -2.46471e-20)
(0.0743795 0.00139753 0)
(0.0662669 0.00785373 0)
(0.0545418 0.0120821 0)
(0.0400841 0.0146008 0)
(0.0235063 0.0161544 2.41975e-20)
(0.00508076 0.0173711 0)
(-0.0151734 0.0186867 0)
(-0.0374156 0.0203416 0)
(-0.0618782 0.0224057 0)
(-0.088759 0.0248471 2.26145e-20)
(-0.118213 0.0275868 0)
(-0.15033 0.0305292 0)
(-0.185131 0.0335711 0)
(-0.222561 0.0366055 0)
(-0.262496 0.0395276 0)
(-0.304747 0.0422401 0)
(-0.34907 0.0446601 0)
(-0.395181 0.0467227 1.92594e-20)
(-0.442767 0.0483846 -1.88858e-20)
(-0.491499 0.0496239 1.85289e-20)
(-0.541051 0.0504402 1.81895e-20)
(-0.591113 0.0508534 0)
(-0.641402 0.0509051 0)
(-0.691641 0.0506546 -1.72776e-20)
(-0.741566 0.0501667 -1.7006e-20)
(-0.791093 0.049495 0)
(-0.84004 0.048657 0)
(-0.888286 0.0476824 -1.62796e-20)
(-0.935729 0.0465993 0)
(-0.982285 0.045434 0)
(-1.02789 0.0442092 1.56629e-20)
(-1.0725 0.0429443 0)
(-1.11608 0.0416553 1.52982e-20)
(-1.15859 0.0403546 3.02538e-20)
(-1.20004 0.0390519 0)
(-1.2404 0.0377542 0)
(-1.27967 0.0364665 0)
(-1.31786 0.0351921 0)
(-1.35495 0.0339326 0)
(-1.39095 0.0326889 2.84047e-20)
(-1.42586 0.0314612 2.81185e-20)
(-1.45968 0.0302489 2.78357e-20)
(-1.49241 0.0290512 0)
(-1.52405 0.0278672 -2.72762e-20)
(-1.55459 0.0266959 0)
(-1.58403 0.0255362 2.67197e-20)
(-1.61236 0.0243872 2.64406e-20)
(-1.63958 0.0232481 0)
(-1.66569 0.022118 0)
(-1.69068 0.0209964 0)
(-1.71453 0.0198828 2.53051e-20)
(-1.73724 0.0187766 0)
(-1.7588 0.0176775 0)
(-1.77921 0.016585 0)
(-1.79845 0.0154985 0)
(-1.81652 0.0144173 0)
(-1.83341 0.0133402 0)
(-1.84911 0.0122658 0)
(-1.8636 0.011192 0)
(-1.87689 0.0101162 -2.25054e-20)
(-1.88895 0.00903512 0)
(-1.89977 0.00794458 0)
(-1.90934 0.00683971 2.14644e-20)
(-1.91763 0.00571557 2.11037e-20)
(-1.92461 0.00456947 0)
(-1.93025 0.00340686 -2.03616e-20)
(-1.93451 0.00224996 1.99804e-20)
(-1.93733 0.00113938 0)
(-1.93865 0.000123994 -1.91941e-20)
(-1.93876 -0.000748711 0)
(-1.93777 -0.0015299 0)
(-1.93567 -0.00226961 1.7947e-20)
(-1.93251 -0.00298513 0)
(-1.92829 -0.00368366 -1.70742e-20)
(-1.92301 -0.00436801 0)
(-1.91669 -0.0050393 1.61682e-20)
(-1.90933 -0.00569793 1.57028e-20)
(-1.90093 -0.00634397 1.52294e-20)
(-1.8915 -0.00697735 2.94959e-20)
(-1.88106 -0.007598 -2.85171e-20)
(-1.86959 -0.00820579 0)
(-1.85712 -0.00880064 0)
(-1.84366 -0.00938245 0)
(-1.8292 -0.00995117 -2.4449e-20)
(-1.81376 -0.0105067 -2.33953e-20)
(-1.79736 -0.0110491 2.23276e-20)
(-1.77999 -0.0115783 0)
(-1.76167 -0.0120942 -2.01518e-20)
(-1.74242 -0.012597 -1.90446e-20)
(-1.72223 -0.0130865 -1.79252e-20)
(-1.70113 -0.0135627 0)
(-1.67913 -0.0140257 0)
(-1.65624 -0.0144755 0)
(-1.63247 -0.014912 -1.3335e-20)
(-1.60784 -0.0153352 0)
(-1.58236 -0.0157452 0)
(-1.55604 -0.016142 9.78963e-21)
(-1.5289 -0.0165255 0)
(-1.50095 -0.0168957 0)
(-1.47221 -0.0172525 6.17441e-21)
(-1.44269 -0.017596 0)
(-1.41242 -0.017926 0)
(-1.38141 -0.0182425 -2.50735e-21)
(-1.34967 -0.0185455 -1.2768e-21)
(-1.31722 -0.0188348 0)
(-1.28408 -0.0191103 -1.1921e-21)
(-1.25028 -0.0193721 0)
(-1.21582 -0.0196199 3.6662e-21)
(-1.18074 -0.0198538 0)
(-1.14504 -0.0200735 6.13907e-21)
(-1.10876 -0.020279 7.37298e-21)
(-1.0719 -0.0204702 0)
(-1.03451 -0.020647 0)
(-0.996587 -0.0208094 0)
(-0.958169 -0.0209572 0)
(-0.919275 -0.0210904 0)
(-0.879931 -0.0212088 0)
(-0.840161 -0.0213126 0)
(-0.799991 -0.0214016 1.70714e-20)
(-0.759445 -0.0214759 -1.82492e-20)
(-0.718551 -0.0215353 0)
(-0.677334 -0.02158 0)
(-0.635822 -0.02161 0)
(-0.594041 -0.0216252 0)
(-0.55202 -0.0216258 -4.79261e-20)
(-0.509785 -0.0216118 0)
(-0.467365 -0.0215831 5.23033e-20)
(-0.424788 -0.02154 -5.44442e-20)
(-0.382082 -0.0214823 0)
(-0.339278 -0.02141 0)
(-0.296403 -0.021323 0)
(-0.253488 -0.0212208 6.26555e-20)
(-0.210565 -0.0211031 6.46138e-20)
(-0.167666 -0.0209678 0)
(-0.124824 -0.0208111 6.84086e-20)
(-0.0820722 -0.0206312 7.02434e-20)
(-0.03944 -0.0204237 -7.2036e-20)
(0.00303691 -0.0201545 0)
(0.0452734 -0.0197994 0)
(0.0872845 -0.0194172 -7.52139e-20)
(0.129049 -0.0190414 0)
(0.170554 -0.0186746 0)
(0.211789 -0.0183141 0)
(0.252749 -0.0179576 0)
(0.293423 -0.0176039 7.80165e-20)
(0.3338 -0.0172525 7.84333e-20)
(0.373869 -0.0169032 0)
(0.413619 -0.0165561 7.91388e-20)
(0.453039 -0.0162114 0)
(0.492119 -0.0158696 0)
(0.530851 -0.0155309 7.99038e-20)
(0.569227 -0.0151959 0)
(0.607242 -0.0148648 8.02378e-20)
(0.644889 -0.0145382 0)
(0.682164 -0.0142162 0)
(0.719065 -0.0138992 8.05045e-20)
(0.755589 -0.0135871 0)
(0.791734 -0.01328 8.0542e-20)
(0.827497 -0.0129776 0)
(0.862875 -0.0126791 0)
(0.897862 -0.0123835 0)
(0.932448 -0.0120889 -8.0325e-20)
(0.966616 -0.0117925 0)
(1.00034 -0.0114901 8.00918e-20)
(1.03358 -0.0111747 0)
(1.06625 -0.010836 0)
(1.09825 -0.0104564 0)
(1.12937 -0.0100066 0)
(1.15933 -0.00942889 0)
(1.18739 -0.00861568 0)
(1.21283 -0.00724421 0)
(1.23101 -0.00453003 -1.58283e-19)
(1.24471 0.00264983 0)
(1.19835 0.0177916 0)
(0.0101203 -0.0620248 7.92043e-20)
(0.0218361 -0.0640703 -7.46798e-20)
(0.0250161 -0.0469401 0)
(0.0230483 -0.0277474 4.44003e-20)
(0.0168936 -0.00915385 0)
(0.00721266 0.00783088 2.1024e-20)
(-0.00533147 0.0224694 -4.11829e-20)
(-0.0210167 0.0344185 -4.03494e-20)
(-0.0398692 0.0439283 0)
(-0.0618998 0.0516381 -3.87917e-20)
(-0.0870751 0.0582902 -1.90458e-20)
(-0.115319 0.0645083 0)
(-0.14652 0.0707022 0)
(-0.180541 0.0770767 0)
(-0.217229 0.083664 0)
(-0.256408 0.090372 -1.71554e-20)
(-0.297867 0.0970417 0)
(-0.341355 0.103488 3.27397e-20)
(-0.386581 0.109527 0)
(-0.433225 0.114991 0)
(-0.480948 0.119741 -3.06531e-20)
(-0.529407 0.123674 0)
(-0.578269 0.126727 2.93834e-20)
(-0.627224 0.128875 -1.44379e-20)
(-0.675992 0.13013 1.41557e-20)
(-0.724329 0.130535 -1.3889e-20)
(-0.772035 0.130158 -1.36377e-20)
(-0.81895 0.129087 0)
(-0.864953 0.127423 0)
(-0.909955 0.125276 1.29709e-20)
(-0.953888 0.122759 -1.27049e-20)
(-0.996703 0.119956 0)
(-1.03837 0.116933 0)
(-1.07887 0.113749 1.22494e-20)
(-1.11822 0.110456 0)
(-1.15642 0.107096 0)
(-1.1935 0.103705 -1.17989e-20)
(-1.22947 0.100311 0)
(-1.26436 0.0969358 1.14564e-20)
(-1.29818 0.0935942 -2.28027e-20)
(-1.33096 0.0902971 0)
(-1.36273 0.0870512 0)
(-1.39348 0.0838601 -4.40113e-20)
(-1.42324 0.0807247 -4.35508e-20)
(-1.45202 0.0776445 -4.30984e-20)
(-1.47983 0.0746174 2.1256e-20)
(-1.50668 0.0716408 -2.1175e-20)
(-1.53256 0.0687114 -6.273e-20)
(-1.55748 0.065826 4.13403e-20)
(-1.58145 0.0629811 2.05178e-20)
(-1.60446 0.0601738 0)
(-1.6265 0.0574011 -2.00802e-20)
(-1.64758 0.0546605 1.97447e-20)
(-1.66769 0.0519501 0)
(-1.68682 0.0492679 0)
(-1.70498 0.0466128 0)
(-1.72214 0.0439836 -1.89611e-20)
(-1.73832 0.0413796 0)
(-1.7535 0.0388005 3.69105e-20)
(-1.76767 0.0362459 0)
(-1.78083 0.0337156 3.59656e-20)
(-1.79298 0.0312096 0)
(-1.8041 0.0287276 -3.49901e-20)
(-1.81421 0.0262696 0)
(-1.82328 0.0238348 3.39808e-20)
(-1.83132 0.0214224 -1.67158e-20)
(-1.83833 0.0190314 0)
(-1.84431 0.0166602 -3.23977e-20)
(-1.84926 0.0143071 -1.5929e-20)
(-1.85321 0.01197 -1.56465e-20)
(-1.85617 0.00964685 0)
(-1.85817 0.00733896 -1.50828e-20)
(-1.85927 0.00506072 -1.47691e-20)
(-1.85954 0.00284781 0)
(-1.85908 0.000743934 1.41533e-20)
(-1.85771 -0.00123116 -2.77159e-20)
(-1.85532 -0.00311165 0)
(-1.85192 -0.00492939 -1.31875e-20)
(-1.84749 -0.00669894 0)
(-1.84204 -0.00842759 3.76259e-20)
(-1.83555 -0.0101183 0)
(-1.82804 -0.0117723 -3.55684e-20)
(-1.81951 -0.0133897 -1.14732e-20)
(-1.80995 -0.0149704 1.12194e-20)
(-1.79939 -0.016514 2.17273e-20)
(-1.78782 -0.0180203 -2.10058e-20)
(-1.77525 -0.0194888 0)
(-1.76169 -0.0209194 0)
(-1.74715 -0.0223118 0)
(-1.73163 -0.0236658 5.34822e-20)
(-1.71514 -0.0249815 1.69473e-20)
(-1.6977 -0.0262586 -1.61572e-20)
(-1.6793 -0.0274972 0)
(-1.65998 -0.0286974 -1.49003e-20)
(-1.63972 -0.0298593 1.37398e-20)
(-1.61855 -0.0309828 1.29193e-20)
(-1.59648 -0.0320681 0)
(-1.57352 -0.0331153 0)
(-1.54968 -0.0341246 0)
(-1.52497 -0.035096 9.57398e-21)
(-1.49941 -0.0360297 0)
(-1.473 -0.0369259 -1.61732e-20)
(-1.44578 -0.0377846 -2.14728e-20)
(-1.41774 -0.0386061 1.27461e-20)
(-1.38891 -0.0393904 0)
(-1.35929 -0.0401378 4.88079e-21)
(-1.32891 -0.0408482 0)
(-1.29778 -0.0415217 5.8113e-21)
(-1.26592 -0.0421585 -2.28041e-21)
(-1.23334 -0.0427585 -1.40996e-21)
(-1.20007 -0.0433219 0)
(-1.16612 -0.0438488 2.02753e-21)
(-1.1315 -0.0443391 -2.92992e-21)
(-1.09625 -0.044793 -2.60096e-21)
(-1.06037 -0.0452105 0)
(-1.0239 -0.0455916 -4.349e-21)
(-0.986842 -0.0459364 -1.51219e-20)
(-0.949229 -0.0462451 0)
(-0.911079 -0.0465177 -1.33588e-20)
(-0.872417 -0.0467543 -1.50758e-20)
(-0.833264 -0.0469552 -1.67839e-20)
(-0.793645 -0.0471203 0)
(-0.753584 -0.0472501 0)
(-0.713106 -0.0473447 0)
(-0.672235 -0.0474044 1.14781e-20)
(-0.630999 -0.0474295 1.28521e-20)
(-0.589421 -0.0474204 0)
(-0.54753 -0.0473774 2.84037e-20)
(-0.505351 -0.047301 3.00033e-20)
(-0.462911 -0.0471917 0)
(-0.420239 -0.0470499 3.36892e-20)
(-0.37736 -0.0468762 6.93802e-20)
(-0.334305 -0.0466709 -3.67477e-20)
(-0.291099 -0.0464346 -3.71805e-20)
(-0.247772 -0.0461678 0)
(-0.204351 -0.0458706 0)
(-0.160867 -0.0455432 0)
(-0.117347 -0.0451851 -4.39958e-20)
(-0.0738221 -0.044795 4.43557e-20)
(-0.0303221 -0.044372 9.24373e-20)
(0.0131226 -0.0439138 -4.78683e-20)
(0.0564802 -0.0434202 4.77938e-20)
(0.0997235 -0.0428968 4.95746e-20)
(0.142826 -0.0423431 0)
(0.18576 -0.0417468 0)
(0.228518 -0.0411201 -5.09848e-20)
(0.271076 -0.0404843 0)
(0.313413 -0.0398474 0)
(0.355512 -0.0392101 1.06964e-19)
(0.397357 -0.0385715 0)
(0.438936 -0.037931 5.42973e-20)
(0.480235 -0.0372884 -5.56131e-20)
(0.521241 -0.0366441 0)
(0.561942 -0.0359987 5.58953e-20)
(0.602329 -0.0353531 0)
(0.642391 -0.0347083 0)
(0.682119 -0.0340654 -5.78778e-20)
(0.721507 -0.0334256 1.15864e-19)
(0.760548 -0.0327899 -5.85911e-20)
(0.799238 -0.0321592 0)
(0.837572 -0.0315345 0)
(0.875548 -0.0309164 5.89173e-20)
(0.913164 -0.0303054 0)
(0.950417 -0.0297013 5.94243e-20)
(0.987306 -0.0291036 0)
(1.02383 -0.0285109 0)
(1.05998 -0.0279208 0)
(1.09575 -0.0273292 6.06406e-20)
(1.13112 -0.0267296 0)
(1.16606 -0.0261119 -6.08747e-20)
(1.20054 -0.0254604 0)
(1.23448 -0.0247505 0)
(1.26777 -0.0239415 1.21852e-19)
(1.30023 -0.0229651 -1.21999e-19)
(1.33158 -0.0216906 0)
(1.36125 -0.0198748 0)
(1.3886 -0.0168789 0)
(1.41094 -0.0115156 3.69673e-19)
(1.4309 0.000866184 0)
(1.43323 0.0258104 -2.50075e-19)
(0.00275031 -0.0814016 -1.09433e-22)
(-6.29265e-05 -0.0610839 9.57833e-20)
(-0.00954997 -0.0324324 0)
(-0.0216578 -0.00603298 -7.99888e-20)
(-0.0363033 0.0179154 0)
(-0.0531963 0.0394846 0)
(-0.0722622 0.0587491 3.92815e-23)
(-0.0936155 0.0757664 3.40852e-20)
(-0.117431 0.0907286 3.32547e-20)
(-0.14385 0.104021 3.25574e-20)
(-0.172913 0.116121 0)
(-0.20454 0.127461 0)
(-0.238554 0.138331 -3.03991e-20)
(-0.2747 0.148851 -5.94216e-20)
(-0.312679 0.15899 5.80646e-20)
(-0.352168 0.16862 0)
(-0.392834 0.177559 5.54253e-20)
(-0.434349 0.185615 -2.70997e-20)
(-0.476396 0.192613 0)
(-0.518682 0.198415 5.17138e-20)
(-0.560949 0.202931 2.52883e-20)
(-0.602974 0.206123 -4.94441e-20)
(-0.644577 0.207999 -2.41915e-20)
(-0.685619 0.208615 0)
(-0.726 0.208061 4.63859e-20)
(-0.765651 0.206455 4.54605e-20)
(-0.804535 0.203932 0)
(-0.842633 0.200634 4.3746e-20)
(-0.87994 0.196705 0)
(-0.916461 0.192283 4.22013e-20)
(-0.952199 0.187491 2.07525e-20)
(-0.987161 0.182434 0)
(-1.02136 0.177199 0)
(-1.05479 0.171857 0)
(-1.08749 0.166465 0)
(-1.11944 0.16107 0)
(-1.15067 0.155706 0)
(-1.18118 0.150398 3.73347e-20)
(-1.21097 0.145165 -5.52866e-20)
(-1.24004 0.140017 0)
(-1.2684 0.13496 0)
(-1.29604 0.129996 0)
(-1.32296 0.125124 8.02318e-23)
(-1.34914 0.120341 3.46423e-20)
(-1.37459 0.115642 6.83603e-20)
(-1.3993 0.111023 -6.75329e-20)
(-1.42325 0.106477 -3.33174e-20)
(-1.44643 0.101998 3.29983e-20)
(-1.46884 0.0975813 -8.18694e-23)
(-1.49046 0.0932218 3.21238e-20)
(-1.51128 0.0889148 0)
(-1.53128 0.0846564 3.13423e-20)
(-1.55046 0.0804432 -7.39326e-23)
(-1.56881 0.0762727 0)
(-1.5863 0.0721427 0)
(-1.60292 0.0680518 -2.97845e-20)
(-1.61868 0.0639991 0)
(-1.63354 0.059984 0)
(-1.64751 0.0560066 2.8548e-20)
(-1.66056 0.0520671 5.64006e-20)
(-1.6727 0.048166 -2.78401e-20)
(-1.68391 0.0443041 0)
(-1.69418 0.0404823 2.70103e-20)
(-1.70351 0.0367017 0)
(-1.71189 0.0329635 2.61131e-20)
(-1.71931 0.0292692 2.57291e-20)
(-1.72579 0.0256205 -5.05553e-20)
(-1.7313 0.02202 -2.48313e-20)
(-1.73587 0.0184712 0)
(-1.7395 0.0149797 4.78924e-20)
(-1.74219 0.0115532 0)
(-1.74395 0.0082027 6.90744e-20)
(-1.74481 0.00494143 4.51233e-20)
(-1.74474 0.00178018 4.41605e-20)
(-1.74374 -0.00128379 -4.31824e-20)
(-1.74177 -0.00427731 6.32543e-20)
(-1.73881 -0.00721174 0)
(-1.73486 -0.0100875 0)
(-1.7299 -0.0129051 -3.9153e-20)
(-1.72395 -0.0156646 -5.71099e-20)
(-1.71701 -0.0183659 0)
(-1.70907 -0.0210085 1.79259e-20)
(-1.70014 -0.0235917 0)
(-1.69022 -0.0261147 -5.0651e-20)
(-1.67933 -0.028577 1.74595e-22)
(-1.66745 -0.0309778 -1.85331e-22)
(-1.65461 -0.0333165 3.04704e-20)
(-1.6408 -0.0355926 0)
(-1.62603 -0.0378059 -2.81763e-20)
(-1.61032 -0.039956 2.26691e-22)
(-1.59367 -0.0420429 0)
(-1.57609 -0.0440663 0)
(-1.55759 -0.0460264 0)
(-1.53817 -0.0479231 2.19865e-20)
(-1.51785 -0.0497567 0)
(-1.49665 -0.0515272 0)
(-1.47456 -0.0532349 0)
(-1.45161 -0.0548798 0)
(-1.4278 -0.0564624 0)
(-1.40314 -0.0579827 1.48464e-20)
(-1.37766 -0.059441 0)
(-1.35135 -0.0608376 1.19929e-20)
(-1.32424 -0.0621727 1.07169e-20)
(-1.29634 -0.0634466 -9.43693e-21)
(-1.26767 -0.0646596 0)
(-1.23823 -0.065812 -6.86752e-21)
(-1.20805 -0.0669038 0)
(-1.17714 -0.0679353 -4.28982e-21)
(-1.14552 -0.0689066 2.99952e-21)
(-1.11319 -0.0698179 5.88696e-21)
(-1.08019 -0.0706693 0)
(-1.04653 -0.0714611 -1.82912e-21)
(-1.01222 -0.0721935 -1.36918e-21)
(-0.977287 -0.0728665 0)
(-0.941749 -0.0734804 -8.63789e-21)
(-0.905627 -0.0740352 -1.11838e-20)
(-0.86894 -0.0745312 2.09875e-20)
(-0.831709 -0.0749687 0)
(-0.793957 -0.0753479 9.79208e-21)
(-0.755705 -0.0756692 1.10446e-20)
(-0.716976 -0.0759327 3.60391e-20)
(-0.677793 -0.0761389 0)
(-0.63818 -0.0762882 0)
(-0.598162 -0.0763812 0)
(-0.557763 -0.0764184 1.63437e-20)
(-0.517007 -0.0764003 0)
(-0.475922 -0.0763278 0)
(-0.434531 -0.0762014 -2.07327e-20)
(-0.392862 -0.0760221 -2.18923e-20)
(-0.350941 -0.0757906 0)
(-0.308794 -0.0755078 0)
(-0.266449 -0.0751747 -5.0577e-20)
(-0.223932 -0.0747922 0)
(-0.181271 -0.0743612 5.49562e-20)
(-0.138494 -0.0738824 5.62935e-20)
(-0.0956274 -0.0733564 0)
(-0.0526998 -0.0727836 0)
(-0.00973877 -0.0721645 -6.24817e-20)
(0.0332274 -0.0714992 -7.72062e-22)
(0.0761707 -0.0707872 -7.58766e-22)
(0.119064 -0.0700286 0)
(0.161878 -0.069225 -1.3808e-19)
(0.204591 -0.0683818 0)
(0.247183 -0.0675071 0)
(0.289646 -0.0666048 0)
(0.33196 -0.0656771 7.46935e-20)
(0.374102 -0.0647323 0)
(0.416045 -0.0637767 -1.52937e-19)
(0.457768 -0.0628126 -7.8263e-20)
(0.499252 -0.0618411 0)
(0.540481 -0.0608626 -8.04215e-20)
(0.58144 -0.0598781 0)
(0.622117 -0.0588885 0)
(0.662498 -0.0578955 -2.48894e-19)
(0.702574 -0.0569005 1.67364e-19)
(0.742334 -0.0559053 0)
(0.78177 -0.0549118 1.70744e-19)
(0.820876 -0.0539219 -8.66634e-20)
(0.859645 -0.0529372 0)
(0.898073 -0.0519595 0)
(0.936156 -0.0509901 0)
(0.973891 -0.0500302 -2.6727e-19)
(1.01128 -0.0490804 0)
(1.04831 -0.0481407 -9.05468e-20)
(1.085 -0.0472103 0)
(1.12133 -0.046287 0)
(1.1573 -0.0453668 0)
(1.1929 -0.0444433 0)
(1.22811 -0.0435062 0)
(1.26292 -0.0425397 0)
(1.29728 -0.041519 -1.86546e-19)
(1.33113 -0.0404056 0)
(1.36437 -0.039137 -9.4277e-20)
(1.39683 -0.0376091 2.83145e-19)
(1.42826 -0.0356343 0)
(1.45823 -0.032871 0)
(1.48629 -0.0285734 -1.90809e-19)
(1.51082 -0.0214218 -1.92531e-19)
(1.53392 -0.00767445 1.93956e-19)
(1.54844 0.0186139 1.96642e-19)
(-0.00662463 -0.0675827 -1.54351e-19)
(-0.0200369 -0.0340136 -1.37832e-19)
(-0.0373643 -0.000344725 -8.0618e-20)
(-0.0561522 0.02962 -3.64226e-20)
(-0.0764879 0.0568544 0)
(-0.0981775 0.0817992 6.46486e-20)
(-0.121284 0.104631 -3.1093e-20)
(-0.145966 0.125456 0)
(-0.17237 0.144427 -2.94254e-20)
(-0.200581 0.161771 0)
(-0.230587 0.177751 5.59992e-20)
(-0.262271 0.192588 0)
(-0.295432 0.206416 2.6698e-20)
(-0.329808 0.21926 5.21145e-20)
(-0.365111 0.231056 -5.08573e-20)
(-0.401048 0.241684 0)
(-0.437341 0.251003 -4.84264e-20)
(-0.473741 0.258884 0)
(-0.510038 0.26523 0)
(-0.546061 0.269993 -4.50306e-20)
(-0.581681 0.273172 0)
(-0.61681 0.274814 -6.38199e-23)
(-0.651394 0.275007 0)
(-0.685409 0.273871 0)
(-0.718851 0.27155 6.68373e-23)
(-0.751731 0.268197 -3.93237e-20)
(-0.784072 0.263972 -3.858e-20)
(-0.815894 0.25903 -3.77538e-20)
(-0.847222 0.253516 0)
(-0.878072 0.247564 -7.27163e-20)
(-0.908457 0.24129 0)
(-0.938384 0.234793 -3.50853e-20)
(-0.967857 0.228155 0)
(-0.996874 0.22144 0)
(-1.02543 0.214702 3.33605e-20)
(-1.05352 0.20798 0)
(-1.08114 0.201305 -3.23328e-20)
(-1.10826 0.194698 -4.57789e-24)
(-1.13489 0.188172 6.27793e-20)
(-1.16099 0.181737 -6.18737e-20)
(-1.18657 0.175394 0)
(-1.2116 0.169145 0)
(-1.23605 0.162987 -2.96532e-20)
(-1.25993 0.156916 0)
(-1.2832 0.150927 -2.89165e-20)
(-1.30585 0.145014 2.8538e-20)
(-1.32786 0.139171 2.81663e-20)
(-1.34921 0.133392 0)
(-1.36989 0.127672 -2.74392e-20)
(-1.38987 0.122006 -2.7082e-20)
(-1.40914 0.11639 5.33997e-20)
(-1.42769 0.11082 -2.63766e-20)
(-1.44548 0.105293 -2.60269e-20)
(-1.46251 0.0998085 0)
(-1.47876 0.0943641 0)
(-1.49421 0.0889595 2.49826e-20)
(-1.50885 0.0835947 0)
(-1.52267 0.0782704 0)