/*--------------------------------*- C++ -*----------------------------------*\
| =========                 |                                                 |
| \\      /  F ield         | OpenFOAM: The Open Source CFD Toolbox           |
|  \\    /   O peration     | Version:  2412                                  |
|   \\  /    A nd           | Website:  www.openfoam.com                      |
|    \\/     M anipulation  |                                                 |
\*---------------------------------------------------------------------------*/
FoamFile
{
    version     2.0;
    format      ascii;
    arch        "LSB;label=32;scalar=64";
    class       surfaceScalarField;
    location    "0.04";
    object      phi;
}
// * * * * * * * * * * * * * * * * * * * * * * * * * * * * * * * * * * * * * //

dimensions      [0 3 -1 0 0 0 0];

oriented        oriented;

internalField   nonuniform List<scalar> 
799
(
6.97602e-05
0.000139518
0.00020927
0.000279013
0.000348744
0.00041846
0.000488158
0.000557834
0.000627487
0.000697112
0.000766707
0.000836268
0.000905794
0.00097528
0.00104472
0.00111412
0.00118347
0.00125277
0.00132202
0.0013912
0.00146033
0.00152939
0.00159839
0.00166732
0.00173617
0.00180495
0.00187365
0.00194227
0.00201081
0.00207926
0.00214761
0.00221588
0.00228404
0.00235211
0.00242007
0.00248793
0.00255568
0.00262332
0.00269084
0.00275825
0.00282553
0.00289269
0.00295972
0.00302663
0.0030934
0.00316003
0.00322653
0.00329288
0.00335909
0.00342515
0.00349105
0.00355681
0.0036224
0.00368784
0.00375311
0.00381822
0.00388316
0.00394792
0.00401251
0.00407692
0.00414115
0.00420519
0.00426905
0.00433272
0.00439619
0.00445946
0.00452254
0.00458541
0.00464808
0.00471053
0.00477278
0.00483481
0.00489662
0.00495821
0.00501958
0.00508072
0.00514163
0.0052023
0.00526274
0.00532294
0.0053829
0.00544261
0.00550207
0.00556128
0.00562024
0.00567894
0.00573738
0.00579555
0.00585346
0.0059111
0.00596846
0.00602555
0.00608236
0.00613888
0.00619512
0.00625108
0.00630674
0.00636211
0.00641718
0.00647195
0.00652641
0.00658057
0.00663442
0.00668796
0.00674118
0.00679409
0.00684667
0.00689892
0.00695085
0.00700245
0.00705372
0.00710464
0.00715523
0.00720547
0.00725537
0.00730492
0.00735412
0.00740296
0.00745144
0.00749957
0.00754732
0.00759472
0.00764174
0.00768839
0.00773466
0.00778055
0.00782606
0.00787119
0.00791592
0.00796027
0.00800422
0.00804777
0.00809093
0.00813368
0.00817602
0.00821796
0.00825948
0.00830059
0.00834128
0.00838155
0.0084214
0.00846081
0.0084998
0.00853836
0.00857648
0.00861416
0.0086514
0.0086882
0.00872455
0.00876044
0.00879589
0.00883088
0.00886541
0.00889948
0.00893308
0.00896622
0.00899888
0.00903108
0.00906279
0.00909403
0.00912479
0.00915506
0.00918484
0.00921414
0.00924294
0.00927124
0.00929905
0.00932636
0.00935316
0.00937945
0.00940524
0.00943051
0.00945527
0.00947951
0.00950324
0.00952643
0.00954911
0.00957125
0.00959286
0.00961395
0.00963449
0.0096545
0.00967396
0.00969288
0.00971126
0.00972908
0.00974636
0.00976308
0.00977925
0.00979485
0.0098099
0.00982438
0.0098383
0.00985164
0.00986442
0.00987663
0.00988825
0.0098993
0.00990978
0.00991966
0.00992897
0.00993769
0.00994582
0.00995335
0.0099603
0.00996665
0.0099724
0.00997755
0.0099821
0.00998605
0.00998939
0.00999213
0.00999425
0.00999576
0.00999666
0.00999695
0.00999662
0.00999566
0.00999409
0.0099919
0.00998908
0.00998563
0.00998156
0.00997686
0.00997153
0.00996556
0.00995896
0.00995173
0.00994386
0.00993535
0.0099262
0.00991641
0.00990598
0.00989491
0.00988319
0.00987082
0.00985781
0.00984415
0.00982984
0.00981488
0.00979927
0.00978301
0.00976609
0.00974852
0.00973029
0.00971141
0.00969187
0.00967168
0.00965083
0.00962932
0.00960715
0.00958432
0.00956083
0.00953668
0.00951187
0.00948641
0.00946028
0.00943348
0.00940603
0.00937792
0.00934914
0.00931971
0.00928961
0.00925885
0.00922743
0.00919535
0.00916261
0.00912921
0.00909515
0.00906044
0.00902506
0.00898903
0.00895234
0.00891499
0.00887699
0.00883833
0.00879902
0.00875905
0.00871844
0.00867717
0.00863526
0.0085927
0.00854949
0.00850563
0.00846114
0.008416
0.00837021
0.00832379
0.00827674
0.00822904
0.00818072
0.00813176
0.00808217
0.00803196
0.00798112
0.00792966
0.00787758
0.00782487
0.00777156
0.00771763
0.00766309
0.00760794
0.00755218
0.00749583
0.00743887
0.00738132
0.00732318
0.00726444
0.00720512
0.00714522
0.00708473
0.00702367
0.00696204
0.00689984
0.00683707
0.00677374
0.00670985
0.0066454
0.00658041
0.00651487
0.00644879
0.00638218
0.00631502
0.00624734
0.00617914
0.00611042
0.00604118
0.00597143
0.00590118
0.00583042
0.00575917
0.00568743
0.0056152
0.0055425
0.00546932
0.00539566
0.00532155
0.00524697
0.00517195
0.00509647
0.00502055
0.0049442
0.00486742
0.00479021
0.00471258
0.00463455
0.0045561
0.00447726
0.00439802
0.00431839
0.00423839
0.00415801
0.00407726
0.00399615
0.00391469
0.00383288
0.00375072
0.00366824
0.00358542
0.00350229
0.00341884
0.00333508
0.00325103
0.00316668
0.00308205
0.00299714
0.00291196
0.00282652
0.00274083
0.00265488
0.0025687
0.00248228
0.00239564
0.00230878
0.00222171
0.00213444
0.00204697
0.00195932
0.00187149
0.00178349
0.00169532
0.00160701
0.00151854
0.00142994
0.0013412
0.00125234
0.00116337
0.00107429
0.000985114
0.000895846
0.000806496
0.000717072
0.000627582
0.000538035
0.000448438
0.0003588
0.000269129
0.000179433
8.97206e-05
6.59078e-12
-8.97206e-05
-0.000179433
-0.000269129
-0.0003588
-0.000448438
-0.000538035
-0.000627582
-0.000717072
-0.000806496
-0.000895846
-0.000985114
-0.00107429
-0.00116337
-0.00125234
-0.0013412
-0.00142994
-0.00151854
-0.00160701
-0.00169532
-0.00178349
-0.00187149
-0.00195932
-0.00204697
-0.00213444
-0.00222171
-0.00230878
-0.00239564
-0.00248228
-0.0025687
-0.00265488
-0.00274083
-0.00282652
-0.00291196
-0.00299714
-0.00308205
-0.00316668
-0.00325102
-0.00333508
-0.00341883
-0.00350228
-0.00358542
-0.00366823
-0.00375072
-0.00383287
-0.00391468
-0.00399615
-0.00407726
-0.004158
-0.00423839
-0.00431839
-0.00439802
-0.00447725
-0.0045561
-0.00463454
-0.00471258
-0.00479021
-0.00486741
-0.0049442
-0.00502055
-0.00509647
-0.00517194
-0.00524697
-0.00532154
-0.00539566
-0.00546931
-0.00554249
-0.0056152
-0.00568742
-0.00575917
-0.00583042
-0.00590117
-0.00597142
-0.00604117
-0.00611041
-0.00617913
-0.00624734
-0.00631502
-0.00638217
-0.00644879
-0.00651487
-0.00658041
-0.0066454
-0.00670984
-0.00677373
-0.00683706
-0.00689983
-0.00696203
-0.00702367
-0.00708473
-0.00714521
-0.00720512
-0.00726444
-0.00732317
-0.00738132
-0.00743887
-0.00749582
-0.00755218
-0.00760793
-0.00766308
-0.00771762
-0.00777155
-0.00782487
-0.00787757
-0.00792965
-0.00798112
-0.00803196
-0.00808217
-0.00813176
-0.00818071
-0.00822904
-0.00827673
-0.00832379
-0.00837021
-0.00841599
-0.00846113
-0.00850563
-0.00854948
-0.00859269
-0.00863526
-0.00867717
-0.00871844
-0.00875905
-0.00879901
-0.00883832
-0.00887698
-0.00891498
-0.00895233
-0.00898902
-0.00902506
-0.00906043
-0.00909515
-0.00912921
-0.00916261
-0.00919535
-0.00922743
-0.00925885
-0.00928961
-0.00931971
-0.00934914
-0.00937792
-0.00940603
-0.00943348
-0.00946027
-0.0094864
-0.00951187
-0.00953668
-0.00956083
-0.00958432
-0.00960715
-0.00962931
-0.00965082
-0.00967168
-0.00969187
-0.00971141
-0.00973029
-0.00974852
-0.00976609
-0.00978301
-0.00979927
-0.00981488
-0.00982984
-0.00984415
-0.00985781
-0.00987082
-0.00988319
-0.00989491
-0.00990598
-0.00991641
-0.0099262
-0.00993535
-0.00994386
-0.00995173
-0.00995896
-0.00996556
-0.00997153
-0.00997686
-0.00998156
-0.00998563
-0.00998908
-0.0099919
-0.00999409
-0.00999566
-0.00999662
-0.00999695
-0.00999666
-0.00999576
-0.00999425
-0.00999213
-0.00998939
-0.00998605
-0.0099821
-0.00997755
-0.0099724
-0.00996665
-0.0099603
-0.00995335
-0.00994582
-0.00993769
-0.00992897
-0.00991966
-0.00990978
-0.0098993
-0.00988825
-0.00987662
-0.00986442
-0.00985164
-0.0098383
-0.00982438
-0.0098099
-0.00979485
-0.00977925
-0.00976308
-0.00974636
-0.00972908
-0.00971126
-0.00969288
-0.00967396
-0.00965449
-0.00963449
-0.00961394
-0.00959286
-0.00957125
-0.0095491
-0.00952643
-0.00950323
-0.00947951
-0.00945527
-0.00943051
-0.00940524
-0.00937945
-0.00935316
-0.00932635
-0.00929905
-0.00927124
-0.00924294
-0.00921413
-0.00918484
-0.00915506
-0.00912478
-0.00909403
-0.00906279
-0.00903107
-0.00899888
-0.00896621
-0.00893308
-0.00889947
-0.0088654
-0.00883087
-0.00879589
-0.00876044
-0.00872454
-0.00868819
-0.0086514
-0.00861416
-0.00857648
-0.00853835
-0.0084998
-0.00846081
-0.00842139
-0.00838155
-0.00834128
-0.00830059
-0.00825948
-0.00821795
-0.00817602
-0.00813367
-0.00809092
-0.00804777
-0.00800422
-0.00796026
-0.00791592
-0.00787118
-0.00782606
-0.00778055
-0.00773465
-0.00768838
-0.00764173
-0.00759471
-0.00754732
-0.00749956
-0.00745144
-0.00740295
-0.00735411
-0.00730492
-0.00725537
-0.00720547
-0.00715523
-0.00710464
-0.00705371
-0.00700245
-0.00695085
-0.00689892
-0.00684666
-0.00679408
-0.00674118
-0.00668796
-0.00663442
-0.00658057
-0.00652641
-0.00647194
-0.00641717
-0.0063621
-0.00630673
-0.00625107
-0.00619512
-0.00613888
-0.00608235
-0.00602554
-0.00596845
-0.00591109
-0.00585345
-0.00579555
-0.00573737
-0.00567893
-0.00562024
-0.00556128
-0.00550207
-0.0054426
-0.00538289
-0.00532294
-0.00526274
-0.0052023
-0.00514162
-0.00508071
-0.00501957
-0.00495821
-0.00489662
-0.00483481
-0.00477278
-0.00471053
-0.00464807
-0.00458541
-0.00452253
-0.00445946
-0.00439618
-0.00433271
-0.00426905
-0.00420519
-0.00414115
-0.00407692
-0.00401251
-0.00394792
-0.00388316
-0.00381822
-0.00375311
-0.00368784
-0.0036224
-0.00355681
-0.00349105
-0.00342514
-0.00335909
-0.00329288
-0.00322652
-0.00316003
-0.0030934
-0.00302663
-0.00295972
-0.00289269
-0.00282553
-0.00275825
-0.00269084
-0.00262332
-0.00255568
-0.00248793
-0.00242007
-0.00235211
-0.00228404
-0.00221588
-0.00214761
-0.00207926
-0.00201081
-0.00194227
-0.00187365
-0.00180495
-0.00173617
-0.00166732
-0.00159839
-0.00152939
-0.00146033
-0.0013912
-0.00132202
-0.00125277
-0.00118347
-0.00111412
-0.00104472
-0.00097528
-0.000905793
-0.000836268
-0.000766706
-0.000697112
-0.000627486
-0.000557834
-0.000488158
-0.00041846
-0.000348745
-0.000279014
-0.000209271
-0.000139519
-6.9761e-05
)
;

boundaryField
{
    left
    {
        type            calculated;
        value           uniform 0;
    }
    right
    {
        type            calculated;
        value           uniform 0;
    }
    frontBackUpDown
    {
        type            empty;
    }
}


// ************************************************************************* //
