/*--------------------------------*- C++ -*----------------------------------*\
| =========                 |                                                 |
| \\      /  F ield         | OpenFOAM: The Open Source CFD Toolbox           |
|  \\    /   O peration     | Version:  2412                                  |
|   \\  /    A nd           | Website:  www.openfoam.com                      |
|    \\/     M anipulation  |                                                 |
\*---------------------------------------------------------------------------*/
FoamFile
{
    version     2.0;
    format      ascii;
    arch        "LSB;label=32;scalar=64";
    class       volVectorField;
    location    "0.04";
    object      U;
}
// * * * * * * * * * * * * * * * * * * * * * * * * * * * * * * * * * * * * * //

dimensions      [0 1 -1 0 0 0 0];

internalField   nonuniform List<vector> 
800
(
(0.003488 0 0)
(0.010464 0 0)
(0.0174396 0 0)
(0.0244145 0 0)
(0.0313882 0 0)
(0.0383606 0 0)
(0.0453314 0 0)
(0.0523002 0 0)
(0.0592667 0 0)
(0.0662306 0 0)
(0.0731917 0 0)
(0.0801496 0 0)
(0.087104 0 0)
(0.0940547 0 0)
(0.101001 0 0)
(0.107943 0 0)
(0.114881 0 0)
(0.121814 0 0)
(0.128741 0 0)
(0.135662 0 0)
(0.142578 0 0)
(0.149488 0 0)
(0.156391 0 0)
(0.163287 0 0)
(0.170176 0 0)
(0.177058 0 0)
(0.183932 0 0)
(0.190798 0 0)
(0.197656 0 0)
(0.204505 0 0)
(0.211346 0 0)
(0.218177 0 0)
(0.224998 0 0)
(0.23181 0 0)
(0.238612 0 0)
(0.245403 0 0)
(0.252183 0 0)
(0.258953 0 0)
(0.265711 0 0)
(0.272458 0 0)
(0.279192 0 0)
(0.285914 0 0)
(0.292624 0 0)
(0.299321 0 0)
(0.306005 0 0)
(0.312675 0 0)
(0.319331 0 0)
(0.325974 0 0)
(0.332602 0 0)
(0.339215 0 0)
(0.345814 0 0)
(0.352397 0 0)
(0.358965 0 0)
(0.365516 0 0)
(0.372052 0 0)
(0.378571 0 0)
(0.385073 0 0)
(0.391558 0 0)
(0.398026 0 0)
(0.404476 0 0)
(0.410908 0 0)
(0.417322 0 0)
(0.423717 0 0)
(0.430093 0 0)
(0.43645 0 0)
(0.442787 0 0)
(0.449105 0 0)
(0.455403 0 0)
(0.46168 0 0)
(0.467936 0 0)
(0.474171 0 0)
(0.480385 0 0)
(0.486577 0 0)
(0.492747 0 0)
(0.498895 0 0)
(0.505021 0 0)
(0.511123 0 0)
(0.517202 0 0)
(0.523258 0 0)
(0.52929 0 0)
(0.535298 0 0)
(0.541281 0 0)
(0.54724 0 0)
(0.553174 0 0)
(0.559083 0 0)
(0.564965 0 0)
(0.570822 0 0)
(0.576653 0 0)
(0.582457 0 0)
(0.588234 0 0)
(0.593985 0 0)
(0.599707 0 0)
(0.605402 0 0)
(0.611069 0 0)
(0.616708 0 0)
(0.622317 0 0)
(0.627898 0 0)
(0.63345 0 0)
(0.638972 0 0)
(0.644464 0 0)
(0.649926 0 0)
(0.655357 0 0)
(0.660758 0 0)
(0.666127 0 0)
(0.671465 0 0)
(0.676771 0 0)
(0.682046 0 0)
(0.687288 0 0)
(0.692497 0 0)
(0.697674 0 0)
(0.702817 0 0)
(0.707926 0 0)
(0.713002 0 0)
(0.718044 0 0)
(0.723051 0 0)
(0.728023 0 0)
(0.732961 0 0)
(0.737863 0 0)
(0.742729 0 0)
(0.74756 0 0)
(0.752354 0 0)
(0.757111 0 0)
(0.761832 0 0)
(0.766516 0 0)
(0.771162 0 0)
(0.77577 0 0)
(0.78034 0 0)
(0.784872 0 0)
(0.789365 0 0)
(0.793819 0 0)
(0.798234 0 0)
(0.80261 0 0)
(0.806945 0 0)
(0.81124 0 0)
(0.815495 0 0)
(0.819709 0 0)
(0.823882 0 0)
(0.828014 0 0)
(0.832104 0 0)
(0.836152 0 0)
(0.840158 0 0)
(0.844121 0 0)
(0.848042 0 0)
(0.851919 0 0)
(0.855753 0 0)
(0.859543 0 0)
(0.863289 0 0)
(0.866991 0 0)
(0.870648 0 0)
(0.874261 0 0)
(0.877828 0 0)
(0.88135 0 0)
(0.884826 0 0)
(0.888256 0 0)
(0.89164 0 0)
(0.894977 0 0)
(0.898267 0 0)
(0.90151 0 0)
(0.904705 0 0)
(0.907853 0 0)
(0.910953 0 0)
(0.914004 0 0)
(0.917007 0 0)
(0.919961 0 0)
(0.922866 0 0)
(0.925722 0 0)
(0.928527 0 0)
(0.931283 0 0)
(0.933988 0 0)
(0.936643 0 0)
(0.939247 0 0)
(0.9418 0 0)
(0.944302 0 0)
(0.946752 0 0)
(0.94915 0 0)
(0.951497 0 0)
(0.95379 0 0)
(0.956031 0 0)
(0.958219 0 0)
(0.960354 0 0)
(0.962435 0 0)
(0.964463 0 0)
(0.966436 0 0)
(0.968356 0 0)
(0.970221 0 0)
(0.972031 0 0)
(0.973786 0 0)
(0.975486 0 0)
(0.97713 0 0)
(0.978719 0 0)
(0.980252 0 0)
(0.981728 0 0)
(0.983148 0 0)
(0.984511 0 0)
(0.985818 0 0)
(0.987067 0 0)
(0.988258 0 0)
(0.989392 0 0)
(0.990469 0 0)
(0.991487 0 0)
(0.992446 0 0)
(0.993348 0 0)
(0.99419 0 0)
(0.994973 0 0)
(0.995698 0 0)
(0.996362 0 0)
(0.996967 0 0)
(0.997513 0 0)
(0.997998 0 0)
(0.998423 0 0)
(0.998787 0 0)
(0.999091 0 0)
(0.999334 0 0)
(0.999516 0 0)
(0.999637 0 0)
(0.999696 0 0)
(0.999694 0 0)
(0.999629 0 0)
(0.999503 0 0)
(0.999315 0 0)
(0.999064 0 0)
(0.998751 0 0)
(0.998375 0 0)
(0.997937 0 0)
(0.997435 0 0)
(0.99687 0 0)
(0.996242 0 0)
(0.995551 0 0)
(0.994795 0 0)
(0.993977 0 0)
(0.993094 0 0)
(0.992147 0 0)
(0.991136 0 0)
(0.990061 0 0)
(0.988921 0 0)
(0.987717 0 0)
(0.986448 0 0)
(0.985114 0 0)
(0.983716 0 0)
(0.982252 0 0)
(0.980724 0 0)
(0.97913 0 0)
(0.977471 0 0)
(0.975747 0 0)
(0.973957 0 0)
(0.972102 0 0)
(0.970181 0 0)
(0.968194 0 0)
(0.966142 0 0)
(0.964024 0 0)
(0.96184 0 0)
(0.95959 0 0)
(0.957274 0 0)
(0.954892 0 0)
(0.952444 0 0)
(0.94993 0 0)
(0.947351 0 0)
(0.944705 0 0)
(0.941992 0 0)
(0.939214 0 0)
(0.93637 0 0)
(0.933459 0 0)
(0.930482 0 0)
(0.92744 0 0)
(0.924331 0 0)
(0.921156 0 0)
(0.917915 0 0)
(0.914608 0 0)
(0.911235 0 0)
(0.907796 0 0)
(0.904291 0 0)
(0.900721 0 0)
(0.897085 0 0)
(0.893383 0 0)
(0.889615 0 0)
(0.885782 0 0)
(0.881884 0 0)
(0.87792 0 0)
(0.873891 0 0)
(0.869797 0 0)
(0.865638 0 0)
(0.861414 0 0)
(0.857125 0 0)
(0.852772 0 0)
(0.848355 0 0)
(0.843873 0 0)
(0.839327 0 0)
(0.834716 0 0)
(0.830042 0 0)
(0.825305 0 0)
(0.820504 0 0)
(0.81564 0 0)
(0.810713 0 0)
(0.805722 0 0)
(0.80067 0 0)
(0.795555 0 0)
(0.790377 0 0)
(0.785138 0 0)
(0.779837 0 0)
(0.774474 0 0)
(0.769051 0 0)
(0.763566 0 0)
(0.758021 0 0)
(0.752416 0 0)
(0.74675 0 0)
(0.741025 0 0)
(0.73524 0 0)
(0.729396 0 0)
(0.723493 0 0)
(0.717532 0 0)
(0.711512 0 0)
(0.705435 0 0)
(0.6993 0 0)
(0.693108 0 0)
(0.686859 0 0)
(0.680554 0 0)
(0.674193 0 0)
(0.667776 0 0)
(0.661305 0 0)
(0.654778 0 0)
(0.648197 0 0)
(0.641562 0 0)
(0.634873 0 0)
(0.628132 0 0)
(0.621337 0 0)
(0.614491 0 0)
(0.607593 0 0)
(0.600643 0 0)
(0.593643 0 0)
(0.586592 0 0)
(0.579492 0 0)
(0.572342 0 0)
(0.565144 0 0)
(0.557897 0 0)
(0.550602 0 0)
(0.543261 0 0)
(0.535872 0 0)
(0.528437 0 0)
(0.520957 0 0)
(0.513432 0 0)
(0.505862 0 0)
(0.498249 0 0)
(0.490592 0 0)
(0.482892 0 0)
(0.47515 0 0)
(0.467367 0 0)
(0.459543 0 0)
(0.451678 0 0)
(0.443774 0 0)
(0.43583 0 0)
(0.427849 0 0)
(0.419829 0 0)
(0.411773 0 0)
(0.40368 0 0)
(0.395551 0 0)
(0.387387 0 0)
(0.379188 0 0)
(0.370956 0 0)
(0.362691 0 0)
(0.354393 0 0)
(0.346064 0 0)
(0.337704 0 0)
(0.329313 0 0)
(0.320893 0 0)
(0.312444 0 0)
(0.303967 0 0)
(0.295462 0 0)
(0.286931 0 0)
(0.278374 0 0)
(0.269792 0 0)
(0.261185 0 0)
(0.252555 0 0)
(0.243902 0 0)
(0.235226 0 0)
(0.22653 0 0)
(0.217812 0 0)
(0.209075 0 0)
(0.200319 0 0)
(0.191545 0 0)
(0.182753 0 0)
(0.173945 0 0)
(0.16512 0 0)
(0.156281 0 0)
(0.147427 0 0)
(0.13856 0 0)
(0.12968 0 0)
(0.120788 0 0)
(0.111886 0 0)
(0.102973 0 0)
(0.0940502 0 0)
(0.0851191 0 0)
(0.0761802 0 0)
(0.0672343 0 0)
(0.0582822 0 0)
(0.0493248 0 0)
(0.0403628 0 0)
(0.0313972 0 0)
(0.0224286 0 0)
(0.013458 0 0)
(0.00448613 0 0)
(-0.00448613 0 0)
(-0.013458 0 0)
(-0.0224286 0 0)
(-0.0313971 0 0)
(-0.0403628 0 0)
(-0.0493248 0 0)
(-0.0582822 0 0)
(-0.0672343 0 0)
(-0.0761802 0 0)
(-0.0851191 0 0)
(-0.0940502 0 0)
(-0.102973 0 0)
(-0.111886 0 0)
(-0.120788 0 0)
(-0.12968 0 0)
(-0.13856 0 0)
(-0.147427 0 0)
(-0.156281 0 0)
(-0.16512 0 0)
(-0.173945 0 0)
(-0.182753 0 0)
(-0.191545 0 0)
(-0.200319 0 0)
(-0.209075 0 0)
(-0.217812 0 0)
(-0.226529 0 0)
(-0.235226 0 0)
(-0.243901 0 0)
(-0.252555 0 0)
(-0.261185 0 0)
(-0.269791 0 0)
(-0.278374 0 0)
(-0.286931 0 0)
(-0.295462 0 0)
(-0.303966 0 0)
(-0.312443 0 0)
(-0.320892 0 0)
(-0.329313 0 0)
(-0.337703 0 0)
(-0.346064 0 0)
(-0.354393 0 0)
(-0.362691 0 0)
(-0.370956 0 0)
(-0.379188 0 0)
(-0.387386 0 0)
(-0.39555 0 0)
(-0.403679 0 0)
(-0.411772 0 0)
(-0.419829 0 0)
(-0.427848 0 0)
(-0.43583 0 0)
(-0.443773 0 0)
(-0.451677 0 0)
(-0.459542 0 0)
(-0.467366 0 0)
(-0.47515 0 0)
(-0.482892 0 0)
(-0.490591 0 0)
(-0.498248 0 0)
(-0.505862 0 0)
(-0.513431 0 0)
(-0.520957 0 0)
(-0.528437 0 0)
(-0.535872 0 0)
(-0.54326 0 0)
(-0.550602 0 0)
(-0.557896 0 0)
(-0.565143 0 0)
(-0.572342 0 0)
(-0.579491 0 0)
(-0.586592 0 0)
(-0.593642 0 0)
(-0.600643 0 0)
(-0.607592 0 0)
(-0.61449 0 0)
(-0.621337 0 0)
(-0.628131 0 0)
(-0.634873 0 0)
(-0.641561 0 0)
(-0.648196 0 0)
(-0.654777 0 0)
(-0.661304 0 0)
(-0.667776 0 0)
(-0.674192 0 0)
(-0.680553 0 0)
(-0.686859 0 0)
(-0.693107 0 0)
(-0.699299 0 0)
(-0.705434 0 0)
(-0.711511 0 0)
(-0.717531 0 0)
(-0.723492 0 0)
(-0.729395 0 0)
(-0.735239 0 0)
(-0.741024 0 0)
(-0.746749 0 0)
(-0.752415 0 0)
(-0.75802 0 0)
(-0.763566 0 0)
(-0.76905 0 0)
(-0.774474 0 0)
(-0.779836 0 0)
(-0.785137 0 0)
(-0.790377 0 0)
(-0.795554 0 0)
(-0.800669 0 0)
(-0.805722 0 0)
(-0.810712 0 0)
(-0.815639 0 0)
(-0.820503 0 0)
(-0.825304 0 0)
(-0.830042 0 0)
(-0.834716 0 0)
(-0.839326 0 0)
(-0.843872 0 0)
(-0.848354 0 0)
(-0.852772 0 0)
(-0.857125 0 0)
(-0.861414 0 0)
(-0.865637 0 0)
(-0.869796 0 0)
(-0.873891 0 0)
(-0.87792 0 0)
(-0.881883 0 0)
(-0.885782 0 0)
(-0.889615 0 0)
(-0.893382 0 0)
(-0.897084 0 0)
(-0.90072 0 0)
(-0.904291 0 0)
(-0.907796 0 0)
(-0.911235 0 0)
(-0.914608 0 0)
(-0.917915 0 0)
(-0.921156 0 0)
(-0.924331 0 0)
(-0.927439 0 0)
(-0.930482 0 0)
(-0.933459 0 0)
(-0.936369 0 0)
(-0.939214 0 0)
(-0.941992 0 0)
(-0.944704 0 0)
(-0.94735 0 0)
(-0.94993 0 0)
(-0.952444 0 0)
(-0.954892 0 0)
(-0.957274 0 0)
(-0.95959 0 0)
(-0.961839 0 0)
(-0.964023 0 0)
(-0.966142 0 0)
(-0.968194 0 0)
(-0.97018 0 0)
(-0.972101 0 0)
(-0.973957 0 0)
(-0.975747 0 0)
(-0.977471 0 0)
(-0.97913 0 0)
(-0.980724 0 0)
(-0.982252 0 0)
(-0.983716 0 0)
(-0.985114 0 0)
(-0.986448 0 0)
(-0.987717 0 0)
(-0.988921 0 0)
(-0.990061 0 0)
(-0.991136 0 0)
(-0.992147 0 0)
(-0.993094 0 0)
(-0.993976 0 0)
(-0.994795 0 0)
(-0.995551 0 0)
(-0.996242 0 0)
(-0.99687 0 0)
(-0.997435 0 0)
(-0.997937 0 0)
(-0.998375 0 0)
(-0.998751 0 0)
(-0.999064 0 0)
(-0.999315 0 0)
(-0.999503 0 0)
(-0.999629 0 0)
(-0.999694 0 0)
(-0.999696 0 0)
(-0.999637 0 0)
(-0.999516 0 0)
(-0.999334 0 0)
(-0.999091 0 0)
(-0.998787 0 0)
(-0.998423 0 0)
(-0.997998 0 0)
(-0.997513 0 0)
(-0.996967 0 0)
(-0.996362 0 0)
(-0.995698 0 0)
(-0.994973 0 0)
(-0.99419 0 0)
(-0.993347 0 0)
(-0.992446 0 0)
(-0.991487 0 0)
(-0.990468 0 0)
(-0.989392 0 0)
(-0.988258 0 0)
(-0.987067 0 0)
(-0.985818 0 0)
(-0.984511 0 0)
(-0.983148 0 0)
(-0.981728 0 0)
(-0.980252 0 0)
(-0.978719 0 0)
(-0.97713 0 0)
(-0.975486 0 0)
(-0.973786 0 0)
(-0.972031 0 0)
(-0.970221 0 0)
(-0.968356 0 0)
(-0.966436 0 0)
(-0.964463 0 0)
(-0.962435 0 0)
(-0.960354 0 0)
(-0.958219 0 0)
(-0.956031 0 0)
(-0.95379 0 0)
(-0.951496 0 0)
(-0.94915 0 0)
(-0.946752 0 0)
(-0.944302 0 0)
(-0.9418 0 0)
(-0.939247 0 0)
(-0.936643 0 0)
(-0.933988 0 0)
(-0.931283 0 0)
(-0.928527 0 0)
(-0.925721 0 0)
(-0.922866 0 0)
(-0.919961 0 0)
(-0.917007 0 0)
(-0.914004 0 0)
(-0.910953 0 0)
(-0.907853 0 0)
(-0.904705 0 0)
(-0.901509 0 0)
(-0.898266 0 0)
(-0.894976 0 0)
(-0.891639 0 0)
(-0.888256 0 0)
(-0.884825 0 0)
(-0.881349 0 0)
(-0.877828 0 0)
(-0.87426 0 0)
(-0.870648 0 0)
(-0.866991 0 0)
(-0.863289 0 0)
(-0.859543 0 0)
(-0.855752 0 0)
(-0.851919 0 0)
(-0.848041 0 0)
(-0.844121 0 0)
(-0.840158 0 0)
(-0.836152 0 0)
(-0.832104 0 0)
(-0.828014 0 0)
(-0.823882 0 0)
(-0.819709 0 0)
(-0.815495 0 0)
(-0.81124 0 0)
(-0.806945 0 0)
(-0.802609 0 0)
(-0.798234 0 0)
(-0.793819 0 0)
(-0.789365 0 0)
(-0.784872 0 0)
(-0.78034 0 0)
(-0.775769 0 0)
(-0.771161 0 0)
(-0.766515 0 0)
(-0.761831 0 0)
(-0.757111 0 0)
(-0.752353 0 0)
(-0.747559 0 0)
(-0.742729 0 0)
(-0.737862 0 0)
(-0.73296 0 0)
(-0.728023 0 0)
(-0.723051 0 0)
(-0.718043 0 0)
(-0.713002 0 0)
(-0.707926 0 0)
(-0.702816 0 0)
(-0.697673 0 0)
(-0.692497 0 0)
(-0.687287 0 0)
(-0.682045 0 0)
(-0.676771 0 0)
(-0.671465 0 0)
(-0.666127 0 0)
(-0.660757 0 0)
(-0.655357 0 0)
(-0.649925 0 0)
(-0.644463 0 0)
(-0.638971 0 0)
(-0.633449 0 0)
(-0.627898 0 0)
(-0.622317 0 0)
(-0.616707 0 0)
(-0.611069 0 0)
(-0.605402 0 0)
(-0.599707 0 0)
(-0.593984 0 0)
(-0.588234 0 0)
(-0.582457 0 0)
(-0.576653 0 0)
(-0.570822 0 0)
(-0.564965 0 0)
(-0.559082 0 0)
(-0.553174 0 0)
(-0.54724 0 0)
(-0.541281 0 0)
(-0.535298 0 0)
(-0.52929 0 0)
(-0.523258 0 0)
(-0.517202 0 0)
(-0.511123 0 0)
(-0.50502 0 0)
(-0.498895 0 0)
(-0.492747 0 0)
(-0.486577 0 0)
(-0.480385 0 0)
(-0.474171 0 0)
(-0.467936 0 0)
(-0.461679 0 0)
(-0.455402 0 0)
(-0.449105 0 0)
(-0.442787 0 0)
(-0.43645 0 0)
(-0.430093 0 0)
(-0.423717 0 0)
(-0.417322 0 0)
(-0.410908 0 0)
(-0.404476 0 0)
(-0.398026 0 0)
(-0.391558 0 0)
(-0.385073 0 0)
(-0.378571 0 0)
(-0.372052 0 0)
(-0.365516 0 0)
(-0.358965 0 0)
(-0.352397 0 0)
(-0.345814 0 0)
(-0.339215 0 0)
(-0.332602 0 0)
(-0.325974 0 0)
(-0.319331 0 0)
(-0.312675 0 0)
(-0.306004 0 0)
(-0.299321 0 0)
(-0.292624 0 0)
(-0.285914 0 0)
(-0.279192 0 0)
(-0.272457 0 0)
(-0.265711 0 0)
(-0.258953 0 0)
(-0.252183 0 0)
(-0.245403 0 0)
(-0.238612 0 0)
(-0.23181 0 0)
(-0.224998 0 0)
(-0.218177 0 0)
(-0.211346 0 0)
(-0.204505 0 0)
(-0.197656 0 0)
(-0.190798 0 0)
(-0.183932 0 0)
(-0.177058 0 0)
(-0.170176 0 0)
(-0.163287 0 0)
(-0.156391 0 0)
(-0.149488 0 0)
(-0.142578 0 0)
(-0.135662 0 0)
(-0.128741 0 0)
(-0.121814 0 0)
(-0.114881 0 0)
(-0.107943 0 0)
(-0.101001 0 0)
(-0.0940547 0 0)
(-0.087104 0 0)
(-0.0801496 0 0)
(-0.0731917 0 0)
(-0.0662306 0 0)
(-0.0592667 0 0)
(-0.0523002 0 0)
(-0.0453314 0 0)
(-0.0383607 0 0)
(-0.0313883 0 0)
(-0.0244145 0 0)
(-0.0174397 0 0)
(-0.0104641 0 0)
(-0.00348809 0 0)
)
;

boundaryField
{
    left
    {
        type            fixedValue;
        value           uniform (0 0 0);
    }
    right
    {
        type            fixedValue;
        value           uniform (0 0 0);
    }
    frontBackUpDown
    {
        type            empty;
    }
}


// ************************************************************************* //
