/*--------------------------------*- C++ -*----------------------------------*\
| =========                 |                                                 |
| \\      /  F ield         | OpenFOAM: The Open Source CFD Toolbox           |
|  \\    /   O peration     | Version:  2412                                  |
|   \\  /    A nd           | Website:  www.openfoam.com                      |
|    \\/     M anipulation  |                                                 |
\*---------------------------------------------------------------------------*/
FoamFile
{
    version     2.0;
    format      ascii;
    arch        "LSB;label=32;scalar=64";
    class       volVectorField;
    location    "0.04";
    object      U_0_0_0;
}
// * * * * * * * * * * * * * * * * * * * * * * * * * * * * * * * * * * * * * //

dimensions      [0 1 -1 0 0 0 0];

internalField   nonuniform List<vector> 
800
(
(0.00350268 0 0)
(0.0105081 0 0)
(0.017513 0 0)
(0.0245172 0 0)
(0.0315202 0 0)
(0.0385219 0 0)
(0.045522 0 0)
(0.05252 0 0)
(0.0595157 0 0)
(0.0665088 0 0)
(0.0734989 0 0)
(0.0804859 0 0)
(0.0874693 0 0)
(0.0944489 0 0)
(0.101424 0 0)
(0.108395 0 0)
(0.115362 0 0)
(0.122323 0 0)
(0.129278 0 0)
(0.136229 0 0)
(0.143173 0 0)
(0.150111 0 0)
(0.157042 0 0)
(0.163966 0 0)
(0.170883 0 0)
(0.177793 0 0)
(0.184694 0 0)
(0.191588 0 0)
(0.198473 0 0)
(0.20535 0 0)
(0.212217 0 0)
(0.219075 0 0)
(0.225923 0 0)
(0.232762 0 0)
(0.23959 0 0)
(0.246407 0 0)
(0.253214 0 0)
(0.260009 0 0)
(0.266793 0 0)
(0.273565 0 0)
(0.280325 0 0)
(0.287072 0 0)
(0.293807 0 0)
(0.300528 0 0)
(0.307237 0 0)
(0.313931 0 0)
(0.320612 0 0)
(0.327278 0 0)
(0.33393 0 0)
(0.340567 0 0)
(0.347188 0 0)
(0.353794 0 0)
(0.360384 0 0)
(0.366958 0 0)
(0.373516 0 0)
(0.380057 0 0)
(0.386581 0 0)
(0.393087 0 0)
(0.399576 0 0)
(0.406047 0 0)
(0.412499 0 0)
(0.418933 0 0)
(0.425348 0 0)
(0.431744 0 0)
(0.43812 0 0)
(0.444476 0 0)
(0.450813 0 0)
(0.457129 0 0)
(0.463424 0 0)
(0.469698 0 0)
(0.47595 0 0)
(0.482181 0 0)
(0.48839 0 0)
(0.494577 0 0)
(0.50074 0 0)
(0.506882 0 0)
(0.512999 0 0)
(0.519094 0 0)
(0.525164 0 0)
(0.53121 0 0)
(0.537232 0 0)
(0.543229 0 0)
(0.549201 0 0)
(0.555148 0 0)
(0.561069 0 0)
(0.566964 0 0)
(0.572832 0 0)
(0.578674 0 0)
(0.58449 0 0)
(0.590277 0 0)
(0.596038 0 0)
(0.60177 0 0)
(0.607474 0 0)
(0.61315 0 0)
(0.618797 0 0)
(0.624415 0 0)
(0.630004 0 0)
(0.635563 0 0)
(0.641092 0 0)
(0.64659 0 0)
(0.652058 0 0)
(0.657495 0 0)
(0.662901 0 0)
(0.668275 0 0)
(0.673618 0 0)
(0.678928 0 0)
(0.684206 0 0)
(0.689451 0 0)
(0.694663 0 0)
(0.699841 0 0)
(0.704986 0 0)
(0.710097 0 0)
(0.715174 0 0)
(0.720216 0 0)
(0.725223 0 0)
(0.730195 0 0)
(0.735132 0 0)
(0.740033 0 0)
(0.744897 0 0)
(0.749725 0 0)
(0.754517 0 0)
(0.759271 0 0)
(0.763988 0 0)
(0.768668 0 0)
(0.77331 0 0)
(0.777913 0 0)
(0.782478 0 0)
(0.787004 0 0)
(0.791491 0 0)
(0.795938 0 0)
(0.800346 0 0)
(0.804713 0 0)
(0.809041 0 0)
(0.813327 0 0)
(0.817573 0 0)
(0.821778 0 0)
(0.825941 0 0)
(0.830062 0 0)
(0.834141 0 0)
(0.838178 0 0)
(0.842172 0 0)
(0.846123 0 0)
(0.850031 0 0)
(0.853895 0 0)
(0.857715 0 0)
(0.861491 0 0)
(0.865223 0 0)
(0.86891 0 0)
(0.872551 0 0)
(0.876148 0 0)
(0.879699 0 0)
(0.883204 0 0)
(0.886663 0 0)
(0.890075 0 0)
(0.893441 0 0)
(0.896759 0 0)
(0.900031 0 0)
(0.903254 0 0)
(0.90643 0 0)
(0.909558 0 0)
(0.912637 0 0)
(0.915667 0 0)
(0.918649 0 0)
(0.921581 0 0)
(0.924463 0 0)
(0.927296 0 0)
(0.930079 0 0)
(0.932811 0 0)
(0.935492 0 0)
(0.938123 0 0)
(0.940702 0 0)
(0.94323 0 0)
(0.945706 0 0)
(0.948131 0 0)
(0.950503 0 0)
(0.952822 0 0)
(0.955089 0 0)
(0.957302 0 0)
(0.959463 0 0)
(0.961569 0 0)
(0.963622 0 0)
(0.965621 0 0)
(0.967566 0 0)
(0.969456 0 0)
(0.971291 0 0)
(0.973071 0 0)
(0.974796 0 0)
(0.976465 0 0)
(0.978078 0 0)
(0.979636 0 0)
(0.981137 0 0)
(0.982581 0 0)
(0.983969 0 0)
(0.9853 0 0)
(0.986573 0 0)
(0.987789 0 0)
(0.988948 0 0)
(0.990048 0 0)
(0.991091 0 0)
(0.992075 0 0)
(0.993 0 0)
(0.993867 0 0)
(0.994675 0 0)
(0.995423 0 0)
(0.996112 0 0)
(0.996742 0 0)
(0.997311 0 0)
(0.997821 0 0)
(0.99827 0 0)
(0.998659 0 0)
(0.998987 0 0)
(0.999255 0 0)
(0.999461 0 0)
(0.999607 0 0)
(0.999691 0 0)
(0.999713 0 0)
(0.999674 0 0)
(0.999573 0 0)
(0.999409 0 0)
(0.999184 0 0)
(0.998896 0 0)
(0.998545 0 0)
(0.998132 0 0)
(0.997656 0 0)
(0.997117 0 0)
(0.996515 0 0)
(0.995849 0 0)
(0.99512 0 0)
(0.994327 0 0)
(0.993471 0 0)
(0.99255 0 0)
(0.991566 0 0)
(0.990518 0 0)
(0.989405 0 0)
(0.988228 0 0)
(0.986987 0 0)
(0.985681 0 0)
(0.98431 0 0)
(0.982874 0 0)
(0.981374 0 0)
(0.979809 0 0)
(0.978178 0 0)
(0.976483 0 0)
(0.974722 0 0)
(0.972896 0 0)
(0.971005 0 0)
(0.969048 0 0)
(0.967026 0 0)
(0.964938 0 0)
(0.962785 0 0)
(0.960566 0 0)
(0.958282 0 0)
(0.955931 0 0)
(0.953515 0 0)
(0.951034 0 0)
(0.948486 0 0)
(0.945873 0 0)
(0.943194 0 0)
(0.940449 0 0)
(0.937638 0 0)
(0.934762 0 0)
(0.93182 0 0)
(0.928812 0 0)
(0.925738 0 0)
(0.922598 0 0)
(0.919393 0 0)
(0.916122 0 0)
(0.912786 0 0)
(0.909384 0 0)
(0.905917 0 0)
(0.902384 0 0)
(0.898786 0 0)
(0.895122 0 0)
(0.891394 0 0)
(0.8876 0 0)
(0.883741 0 0)
(0.879818 0 0)
(0.875829 0 0)
(0.871776 0 0)
(0.867659 0 0)
(0.863477 0 0)
(0.85923 0 0)
(0.85492 0 0)
(0.850545 0 0)
(0.846107 0 0)
(0.841604 0 0)
(0.837039 0 0)
(0.83241 0 0)
(0.827717 0 0)
(0.822962 0 0)
(0.818144 0 0)
(0.813263 0 0)
(0.80832 0 0)
(0.803315 0 0)
(0.798248 0 0)
(0.793119 0 0)
(0.787928 0 0)
(0.782677 0 0)
(0.777364 0 0)
(0.77199 0 0)
(0.766557 0 0)
(0.761062 0 0)
(0.755508 0 0)
(0.749895 0 0)
(0.744222 0 0)
(0.73849 0 0)
(0.732699 0 0)
(0.72685 0 0)
(0.720943 0 0)
(0.714978 0 0)
(0.708955 0 0)
(0.702876 0 0)
(0.696739 0 0)
(0.690547 0 0)
(0.684298 0 0)
(0.677994 0 0)
(0.671635 0 0)
(0.665221 0 0)
(0.658753 0 0)
(0.65223 0 0)
(0.645654 0 0)
(0.639025 0 0)
(0.632343 0 0)
(0.625608 0 0)
(0.618822 0 0)
(0.611985 0 0)
(0.605096 0 0)
(0.598157 0 0)
(0.591168 0 0)
(0.58413 0 0)
(0.577043 0 0)
(0.569907 0 0)
(0.562723 0 0)
(0.555491 0 0)
(0.548213 0 0)
(0.540888 0 0)
(0.533517 0 0)
(0.526101 0 0)
(0.51864 0 0)
(0.511135 0 0)
(0.503586 0 0)
(0.495993 0 0)
(0.488359 0 0)
(0.480682 0 0)
(0.472964 0 0)
(0.465205 0 0)
(0.457406 0 0)
(0.449568 0 0)
(0.44169 0 0)
(0.433774 0 0)
(0.425821 0 0)
(0.41783 0 0)
(0.409803 0 0)
(0.40174 0 0)
(0.393642 0 0)
(0.38551 0 0)
(0.377343 0 0)
(0.369144 0 0)
(0.360912 0 0)
(0.352648 0 0)
(0.344354 0 0)
(0.336029 0 0)
(0.327674 0 0)
(0.31929 0 0)
(0.310878 0 0)
(0.302439 0 0)
(0.293972 0 0)
(0.28548 0 0)
(0.276962 0 0)
(0.268419 0 0)
(0.259853 0 0)
(0.251263 0 0)
(0.242651 0 0)
(0.234017 0 0)
(0.225362 0 0)
(0.216687 0 0)
(0.207993 0 0)
(0.19928 0 0)
(0.190549 0 0)
(0.181801 0 0)
(0.173037 0 0)
(0.164257 0 0)
(0.155463 0 0)
(0.146654 0 0)
(0.137833 0 0)
(0.128998 0 0)
(0.120153 0 0)
(0.111296 0 0)
(0.102429 0 0)
(0.0935534 0 0)
(0.0846691 0 0)
(0.0757771 0 0)
(0.0668783 0 0)
(0.0579734 0 0)
(0.0490633 0 0)
(0.0401488 0 0)
(0.0312306 0 0)
(0.0223096 0 0)
(0.0133866 0 0)
(0.00446232 0 0)
(-0.00446232 0 0)
(-0.0133866 0 0)
(-0.0223096 0 0)
(-0.0312306 0 0)
(-0.0401488 0 0)
(-0.0490633 0 0)
(-0.0579734 0 0)
(-0.0668783 0 0)
(-0.0757771 0 0)
(-0.0846691 0 0)
(-0.0935534 0 0)
(-0.102429 0 0)
(-0.111296 0 0)
(-0.120153 0 0)
(-0.128998 0 0)
(-0.137832 0 0)
(-0.146654 0 0)
(-0.155463 0 0)
(-0.164257 0 0)
(-0.173037 0 0)
(-0.181801 0 0)
(-0.190549 0 0)
(-0.19928 0 0)
(-0.207993 0 0)
(-0.216687 0 0)
(-0.225362 0 0)
(-0.234017 0 0)
(-0.242651 0 0)
(-0.251263 0 0)
(-0.259852 0 0)
(-0.268419 0 0)
(-0.276961 0 0)
(-0.285479 0 0)
(-0.293972 0 0)
(-0.302438 0 0)
(-0.310878 0 0)
(-0.31929 0 0)
(-0.327674 0 0)
(-0.336028 0 0)
(-0.344353 0 0)
(-0.352648 0 0)
(-0.360912 0 0)
(-0.369144 0 0)
(-0.377343 0 0)
(-0.385509 0 0)
(-0.393642 0 0)
(-0.40174 0 0)
(-0.409802 0 0)
(-0.41783 0 0)
(-0.42582 0 0)
(-0.433774 0 0)
(-0.44169 0 0)
(-0.449567 0 0)
(-0.457406 0 0)
(-0.465205 0 0)
(-0.472964 0 0)
(-0.480682 0 0)
(-0.488358 0 0)
(-0.495993 0 0)
(-0.503585 0 0)
(-0.511134 0 0)
(-0.518639 0 0)
(-0.5261 0 0)
(-0.533516 0 0)
(-0.540887 0 0)
(-0.548212 0 0)
(-0.555491 0 0)
(-0.562722 0 0)
(-0.569906 0 0)
(-0.577042 0 0)
(-0.584129 0 0)
(-0.591168 0 0)
(-0.598157 0 0)
(-0.605096 0 0)
(-0.611984 0 0)
(-0.618822 0 0)
(-0.625608 0 0)
(-0.632342 0 0)
(-0.639024 0 0)
(-0.645653 0 0)
(-0.652229 0 0)
(-0.658752 0 0)
(-0.66522 0 0)
(-0.671634 0 0)
(-0.677994 0 0)
(-0.684298 0 0)
(-0.690546 0 0)
(-0.696739 0 0)
(-0.702875 0 0)
(-0.708955 0 0)
(-0.714977 0 0)
(-0.720942 0 0)
(-0.726849 0 0)
(-0.732698 0 0)
(-0.738489 0 0)
(-0.744221 0 0)
(-0.749894 0 0)
(-0.755508 0 0)
(-0.761062 0 0)
(-0.766556 0 0)
(-0.77199 0 0)
(-0.777363 0 0)
(-0.782676 0 0)
(-0.787928 0 0)
(-0.793118 0 0)
(-0.798247 0 0)
(-0.803315 0 0)
(-0.80832 0 0)
(-0.813263 0 0)
(-0.818144 0 0)
(-0.822962 0 0)
(-0.827717 0 0)
(-0.832409 0 0)
(-0.837038 0 0)
(-0.841604 0 0)
(-0.846106 0 0)
(-0.850545 0 0)
(-0.854919 0 0)
(-0.85923 0 0)
(-0.863476 0 0)
(-0.867658 0 0)
(-0.871776 0 0)
(-0.875829 0 0)
(-0.879817 0 0)
(-0.883741 0 0)
(-0.8876 0 0)
(-0.891393 0 0)
(-0.895122 0 0)
(-0.898785 0 0)
(-0.902384 0 0)
(-0.905916 0 0)
(-0.909384 0 0)
(-0.912786 0 0)
(-0.916122 0 0)
(-0.919393 0 0)
(-0.922598 0 0)
(-0.925738 0 0)
(-0.928811 0 0)
(-0.931819 0 0)
(-0.934762 0 0)
(-0.937638 0 0)
(-0.940449 0 0)
(-0.943194 0 0)
(-0.945873 0 0)
(-0.948486 0 0)
(-0.951033 0 0)
(-0.953515 0 0)
(-0.955931 0 0)
(-0.958281 0 0)
(-0.960566 0 0)
(-0.962785 0 0)
(-0.964938 0 0)
(-0.967026 0 0)
(-0.969048 0 0)
(-0.971005 0 0)
(-0.972896 0 0)
(-0.974722 0 0)
(-0.976483 0 0)
(-0.978178 0 0)
(-0.979809 0 0)
(-0.981374 0 0)
(-0.982874 0 0)
(-0.98431 0 0)
(-0.98568 0 0)
(-0.986986 0 0)
(-0.988228 0 0)
(-0.989405 0 0)
(-0.990517 0 0)
(-0.991566 0 0)
(-0.99255 0 0)
(-0.993471 0 0)
(-0.994327 0 0)
(-0.99512 0 0)
(-0.995849 0 0)
(-0.996515 0 0)
(-0.997117 0 0)
(-0.997656 0 0)
(-0.998132 0 0)
(-0.998545 0 0)
(-0.998896 0 0)
(-0.999184 0 0)
(-0.999409 0 0)
(-0.999573 0 0)
(-0.999674 0 0)
(-0.999713 0 0)
(-0.999691 0 0)
(-0.999607 0 0)
(-0.999461 0 0)
(-0.999255 0 0)
(-0.998987 0 0)
(-0.998659 0 0)
(-0.99827 0 0)
(-0.997821 0 0)
(-0.997311 0 0)
(-0.996742 0 0)
(-0.996112 0 0)
(-0.995423 0 0)
(-0.994675 0 0)
(-0.993867 0 0)
(-0.993 0 0)
(-0.992075 0 0)
(-0.99109 0 0)
(-0.990048 0 0)
(-0.988948 0 0)
(-0.987789 0 0)
(-0.986573 0 0)
(-0.9853 0 0)
(-0.983969 0 0)
(-0.982581 0 0)
(-0.981137 0 0)
(-0.979636 0 0)
(-0.978078 0 0)
(-0.976465 0 0)
(-0.974796 0 0)
(-0.973071 0 0)
(-0.971291 0 0)
(-0.969456 0 0)
(-0.967566 0 0)
(-0.965621 0 0)
(-0.963622 0 0)
(-0.961569 0 0)
(-0.959462 0 0)
(-0.957302 0 0)
(-0.955089 0 0)
(-0.952822 0 0)
(-0.950503 0 0)
(-0.948131 0 0)
(-0.945706 0 0)
(-0.94323 0 0)
(-0.940702 0 0)
(-0.938123 0 0)
(-0.935492 0 0)
(-0.932811 0 0)
(-0.930078 0 0)
(-0.927296 0 0)
(-0.924463 0 0)
(-0.92158 0 0)
(-0.918648 0 0)
(-0.915667 0 0)
(-0.912637 0 0)
(-0.909557 0 0)
(-0.90643 0 0)
(-0.903254 0 0)
(-0.90003 0 0)
(-0.896759 0 0)
(-0.893441 0 0)
(-0.890075 0 0)
(-0.886663 0 0)
(-0.883204 0 0)
(-0.879699 0 0)
(-0.876148 0 0)
(-0.872551 0 0)
(-0.868909 0 0)
(-0.865222 0 0)
(-0.861491 0 0)
(-0.857715 0 0)
(-0.853894 0 0)
(-0.85003 0 0)
(-0.846122 0 0)
(-0.842171 0 0)
(-0.838177 0 0)
(-0.834141 0 0)
(-0.830062 0 0)
(-0.82594 0 0)
(-0.821777 0 0)
(-0.817573 0 0)
(-0.813327 0 0)
(-0.80904 0 0)
(-0.804713 0 0)
(-0.800345 0 0)
(-0.795938 0 0)
(-0.79149 0 0)
(-0.787003 0 0)
(-0.782477 0 0)
(-0.777912 0 0)
(-0.773309 0 0)
(-0.768667 0 0)
(-0.763988 0 0)
(-0.759271 0 0)
(-0.754516 0 0)
(-0.749725 0 0)
(-0.744897 0 0)
(-0.740032 0 0)
(-0.735131 0 0)
(-0.730195 0 0)
(-0.725223 0 0)
(-0.720216 0 0)
(-0.715174 0 0)
(-0.710097 0 0)
(-0.704986 0 0)
(-0.699841 0 0)
(-0.694662 0 0)
(-0.68945 0 0)
(-0.684205 0 0)
(-0.678927 0 0)
(-0.673617 0 0)
(-0.668275 0 0)
(-0.6629 0 0)
(-0.657495 0 0)
(-0.652058 0 0)
(-0.64659 0 0)
(-0.641091 0 0)
(-0.635562 0 0)
(-0.630003 0 0)
(-0.624415 0 0)
(-0.618797 0 0)
(-0.61315 0 0)
(-0.607474 0 0)
(-0.60177 0 0)
(-0.596037 0 0)
(-0.590277 0 0)
(-0.584489 0 0)
(-0.578674 0 0)
(-0.572832 0 0)
(-0.566963 0 0)
(-0.561069 0 0)
(-0.555148 0 0)
(-0.549201 0 0)
(-0.543229 0 0)
(-0.537232 0 0)
(-0.53121 0 0)
(-0.525164 0 0)
(-0.519093 0 0)
(-0.512999 0 0)
(-0.506881 0 0)
(-0.50074 0 0)
(-0.494576 0 0)
(-0.48839 0 0)
(-0.482181 0 0)
(-0.47595 0 0)
(-0.469697 0 0)
(-0.463423 0 0)
(-0.457128 0 0)
(-0.450812 0 0)
(-0.444476 0 0)
(-0.43812 0 0)
(-0.431744 0 0)
(-0.425348 0 0)
(-0.418933 0 0)
(-0.412499 0 0)
(-0.406047 0 0)
(-0.399576 0 0)
(-0.393087 0 0)
(-0.386581 0 0)
(-0.380057 0 0)
(-0.373516 0 0)
(-0.366958 0 0)
(-0.360384 0 0)
(-0.353794 0 0)
(-0.347188 0 0)
(-0.340566 0 0)
(-0.33393 0 0)
(-0.327278 0 0)
(-0.320612 0 0)
(-0.313931 0 0)
(-0.307236 0 0)
(-0.300528 0 0)
(-0.293807 0 0)
(-0.287072 0 0)
(-0.280325 0 0)
(-0.273565 0 0)
(-0.266793 0 0)
(-0.260009 0 0)
(-0.253214 0 0)
(-0.246407 0 0)
(-0.23959 0 0)
(-0.232762 0 0)
(-0.225923 0 0)
(-0.219075 0 0)
(-0.212217 0 0)
(-0.20535 0 0)
(-0.198473 0 0)
(-0.191588 0 0)
(-0.184694 0 0)
(-0.177793 0 0)
(-0.170883 0 0)
(-0.163966 0 0)
(-0.157042 0 0)
(-0.15011 0 0)
(-0.143173 0 0)
(-0.136229 0 0)
(-0.129278 0 0)
(-0.122323 0 0)
(-0.115361 0 0)
(-0.108395 0 0)
(-0.101424 0 0)
(-0.0944488 0 0)
(-0.0874693 0 0)
(-0.0804859 0 0)
(-0.0734989 0 0)
(-0.0665087 0 0)
(-0.0595157 0 0)
(-0.05252 0 0)
(-0.045522 0 0)
(-0.038522 0 0)
(-0.0315203 0 0)
(-0.0245172 0 0)
(-0.0175131 0 0)
(-0.0105081 0 0)
(-0.00350276 0 0)
)
;

boundaryField
{
    left
    {
        type            fixedValue;
        value           uniform (0 0 0);
    }
    right
    {
        type            fixedValue;
        value           uniform (0 0 0);
    }
    frontBackUpDown
    {
        type            empty;
    }
}


// ************************************************************************* //
