/*--------------------------------*- C++ -*----------------------------------*\
| =========                 |                                                 |
| \\      /  F ield         | OpenFOAM: The Open Source CFD Toolbox           |
|  \\    /   O peration     | Version:  2412                                  |
|   \\  /    A nd           | Website:  www.openfoam.com                      |
|    \\/     M anipulation  |                                                 |
\*---------------------------------------------------------------------------*/
FoamFile
{
    version     2.0;
    format      ascii;
    arch        "LSB;label=32;scalar=64";
    class       volScalarField;
    location    "0.13";
    object      epsilon;
}
// * * * * * * * * * * * * * * * * * * * * * * * * * * * * * * * * * * * * * //

dimensions      [0 2 -3 0 0 0 0];

internalField   nonuniform List<scalar> 
12225
(
448.248
622.891
830.549
1004.81
1150.38
1270.18
1368.57
1449.56
1516.28
1571.27
1616.62
1653.97
1684.63
1709.59
1729.62
1745.14
1756.55
1766.81
173.744
302.083
403.1
480.174
539.338
585.689
622.125
650.845
673.553
691.515
705.694
716.84
725.546
732.275
737.432
741.26
744.544
744.318
119.436
232.402
315.511
376.253
421.16
455.026
480.626
499.954
514.526
525.453
533.559
539.471
543.678
546.567
548.466
549.635
550.498
550.12
97.6417
199.98
277.777
334.833
376.773
407.859
430.863
447.788
460.144
469.043
475.31
479.572
482.31
483.904
484.671
484.887
484.883
484.459
83.653
176.29
251.579
308.551
351.102
382.724
406.068
423.145
435.487
444.247
450.29
454.276
456.713
458.003
458.479
458.428
458.154
457.69
71.9923
153.974
226.313
283.827
328.2
361.841
387.041
405.707
419.354
429.156
436.02
440.647
443.583
445.263
446.043
446.228
446.102
445.762
61.3447
131.283
198.628
255.582
301.545
337.592
365.358
386.469
402.318
414.045
422.563
428.601
432.737
435.435
437.076
437.981
438.419
438.494
51.6702
108.732
168.49
222.635
268.759
306.567
336.811
360.624
379.139
393.365
404.159
412.236
418.18
422.471
425.507
427.615
429.053
429.913
43.2231
87.647
137.689
186.329
230.305
268.25
299.995
326.032
347.092
363.937
377.285
387.773
395.948
402.276
407.148
410.887
413.738
415.768
36.1703
69.2427
108.634
149.505
188.76
224.551
256.01
282.995
305.757
324.726
340.392
353.244
363.737
372.277
379.22
384.862
389.424
392.933
30.4989
54.1396
83.3307
115.318
147.82
179.121
208.077
234.109
257.045
276.967
294.091
308.706
321.121
331.639
340.541
348.071
354.405
359.519
26.3769
43.1984
64.285
88.2425
113.652
139.263
164.051
187.317
208.669
227.941
245.128
260.322
273.676
285.37
295.589
304.503
312.228
318.669
23.1428
34.7474
49.3149
66.2717
84.8801
104.393
124.089
143.362
161.772
179.037
195
209.606
222.866
234.841
245.614
255.272
263.864
271.232
20.3785
27.6951
36.7535
47.4297
59.4494
72.4895
86.1818
100.153
114.075
127.683
140.779
153.229
164.951
175.904
186.08
195.484
204.096
211.712
18.1502
22.2412
27.1499
32.9157
39.4923
46.7999
54.723
63.1144
71.8169
80.6798
89.5678
98.3653
106.978
115.334
123.378
131.067
138.343
145.005
16.4708
18.3571
20.528
23.0294
25.876
29.0713
32.6074
36.4599
40.5908
44.9543
49.5012
54.1812
58.9452
63.7475
68.5461
73.3013
77.9646
82.403
15.3282
15.8732
16.4962
17.2138
18.0336
18.962
20.0052
21.1664
22.4451
23.8377
25.338
26.9377
28.6261
30.3891
32.2132
34.0844
35.985
37.8729
14.7508
14.6758
14.637
14.6354
14.6699
14.7398
14.8452
14.9863
15.1634
15.3764
15.6249
15.9084
16.2261
16.5784
16.9643
17.3819
17.8284
18.2996
14.8977
14.9732
15.0871
15.2432
15.4415
15.6817
15.9643
16.2891
16.6553
17.0612
17.5048
17.9834
18.494
19.0333
19.5977
20.1836
20.7863
21.3922
15.9707
17.2603
18.726
20.3947
22.2726
24.3591
26.6472
29.1214
31.7576
34.5272
37.3991
40.3418
43.3246
46.3188
49.2986
52.2409
55.1212
57.8793
18.0494
21.9964
26.6893
32.1469
38.3067
45.0726
52.3209
59.9055
67.6753
75.4902
83.2283
90.7889
98.0927
105.081
111.714
117.965
123.815
129.22
21.5629
30.6521
41.9197
55.0351
69.4931
84.7755
100.372
115.822
130.762
144.931
158.164
170.37
181.515
191.609
200.689
208.813
216.042
222.418
27.2182
45.2995
67.7846
92.9344
119.1
144.993
169.633
192.379
212.905
231.116
247.063
260.881
272.752
282.877
291.456
298.681
304.726
309.75
35.7141
67.6753
105.676
144.947
182.511
216.734
246.808
272.559
294.212
312.17
326.891
338.834
348.42
356.029
361.986
366.57
370.023
372.569
47.4074
97.6099
152.027
202.685
246.848
283.88
314.063
338.188
357.192
371.961
383.273
391.788
398.051
402.509
405.524
407.39
408.349
408.637
61.8877
131.75
198.703
254.802
299.83
335.064
362.105
382.552
397.792
408.953
416.931
422.43
426.003
428.082
429.004
429.033
428.384
427.271
78.4667
165.761
239.651
296.702
339.784
371.973
395.783
413.19
425.726
434.56
440.578
444.448
446.68
447.661
447.689
446.995
445.761
444.174
99.5995
200.964
279.478
337.82
380.456
411.806
434.889
451.766
463.982
472.693
478.748
482.778
485.257
486.546
486.924
486.606
485.758
484.551
144.791
258.315
348.614
417.599
468.468
506.751
535.877
558.056
574.96
587.835
597.595
604.921
610.338
614.251
616.977
618.766
619.811
620.311
366.941
498.484
666.588
808.036
923.459
1016.7
1091.73
1152.4
1201.69
1241.87
1274.72
1301.67
1323.84
1342.12
1357.22
1369.71
1380.03
1388.6
1.37512
1.28935
1.83177
2.27466
2.62181
2.95034
3.32981
3.73622
4.17588
4.67173
5.2825
6.10782
7.07186
8.16634
9.3878
10.7412
12.2334
13.8699
15.6545
17.5886
19.6725
21.9055
24.287
26.8167
29.4963
32.33
35.326
38.4982
41.8685
45.389
49.0495
52.8462
56.776
60.8357
65.0228
69.3346
73.7687
78.3229
82.995
87.7828
92.6843
97.6971
102.819
108.047
113.38
118.813
124.344
129.97
135.686
141.489
147.375
153.338
159.375
165.48
171.647
177.871
184.146
190.466
196.825
203.215
209.63
216.063
222.507
228.955
235.399
241.833
248.249
254.639
260.998
267.322
273.606
279.853
286.073
292.288
298.487
304.588
310.59
316.492
322.29
327.979
333.551
339.001
344.32
349.503
354.542
359.432
364.166
368.738
373.143
377.375
381.428
385.299
388.982
392.472
395.767
398.861
401.751
404.434
406.907
409.167
411.211
413.037
414.644
416.029
417.192
418.13
418.843
419.331
419.593
419.629
419.44
419.026
418.387
417.526
416.443
415.141
413.621
411.887
409.94
407.784
405.422
402.858
400.096
397.141
393.996
390.668
387.161
383.482
379.634
375.626
371.463
367.152
362.7
358.114
353.4
348.569
343.625
338.577
333.442
328.207
322.929
317.66
312.942
309.999
307.331
304.611
301.817
298.948
296.007
293
289.931
286.805
283.627
280.403
277.138
273.837
270.506
267.15
263.774
260.384
256.985
253.582
250.18
246.784
243.399
240.029
236.677
233.347
230.04
226.757
223.496
220.251
217.013
213.762
210.46
207.037
203.334
198.934
193.364
185.689
4.08494
2.24498
2.0058
2.09581
2.3386
2.69431
3.13966
3.66311
4.26506
4.94749
5.71344
6.563
7.48395
8.46727
9.50668
10.5977
11.7366
12.9199
14.1445
15.4079
16.7083
18.0448
19.4172
20.8264
22.2737
23.7608
25.2894
26.8608
28.4749
30.1287
31.8214
33.553
35.3236
37.1332
38.9818
40.8692
42.7952
44.7595
46.7615
48.8008
50.8767
52.9885
55.1354
57.3165
59.5307
61.777
64.0541
66.3608
68.6957
71.0572
73.4439
75.8541
78.2861
80.7381
83.2081
85.6943
88.1946
90.7069
93.2292
95.7591
98.2944
100.833
103.372
105.91
108.444
110.972
113.491
116.001
118.499
120.984
123.459
125.924
128.385
130.851
133.336
135.795
138.22
140.609
142.958
145.267
147.531
149.749
151.918
154.035
156.097
158.104
160.051
161.937
163.759
165.516
167.205
168.825
170.373
171.848
173.248
174.571
175.817
176.983
178.068
179.071
179.992
180.828
181.579
182.244
182.822
183.313
183.716
184.032
184.258
184.396
184.444
184.404
184.275
184.057
183.751
183.357
182.876
182.308
181.654
180.916
180.093
179.188
178.202
177.135
175.991
174.769
173.472
172.103
170.662
169.152
167.576
165.935
164.232
162.47
160.65
158.777
156.852
154.877
152.862
150.789
148.707
146.641
144.7
143.058
141.499
139.939
138.359
136.756
135.129
133.48
131.812
130.126
128.425
126.711
124.986
123.253
121.514
119.771
118.027
116.284
114.544
112.809
111.083
109.365
107.66
105.967
104.29
102.63
100.988
99.3659
97.7635
96.1813
94.6191
93.0756
91.5485
90.0355
88.53
87.0473
85.8693
86.0431
7.13768
3.47518
2.97964
3.02463
3.26449
3.62625
4.09384
4.65802
5.30955
6.03707
6.82792
7.66935
8.54963
9.46023
10.3959
11.3539
12.3331
13.3334
14.3552
15.3995
16.4677
17.5612
18.6816
19.8302
21.0083
22.2168
23.4562
24.7265
26.0274
27.3583
28.7188
30.1085
31.5271
32.9743
34.4496
35.9526
37.4829
39.04
40.6235
42.2327
43.8673
45.5266
47.2101
48.917
50.6469
52.3988
54.1721
55.966
57.7795
59.6117
61.4617
63.3284
65.2106
67.1073
69.0172
70.939
72.8714
74.813
76.7624
78.7182
80.6788
82.6428
84.6088
86.5752
88.5406
90.5038
92.4636
94.4192
96.3698
98.3154
100.256
102.193
104.126
106.06
107.983
109.885
111.763
113.613
115.432
117.22
118.974
120.691
122.37
124.008
125.605
127.157
128.663
130.121
131.53
132.888
134.193
135.444
136.639
137.777
138.857
139.877
140.836
141.734
142.568
143.339
144.045
144.686
145.261
145.769
146.209
146.582
146.886
147.122
147.29
147.388
147.417
147.378
147.269
147.092
146.846
146.533
146.151
145.703
145.188
144.607
143.961
143.251
142.478
141.643
140.747
139.792
138.778
137.708
136.583
135.404
134.173
132.891
131.561
130.185
128.764
127.301
125.797
124.25
122.68
121.079
119.465
117.855
116.291
114.814
113.374
111.939
110.495
109.038
107.569
106.087
104.595
103.094
101.586
100.072
98.5546
97.0355
95.5165
93.9993
92.4859
90.9778
89.4768
87.9847
86.503
85.0332
83.577
82.1357
80.7107
79.3034
77.915
76.5466
75.1995
73.8746
72.5734
71.2977
70.0506
68.8394
67.6778
66.6141
65.799
65.7765
10.2451
4.88254
4.1258
4.06521
4.25475
4.5938
5.04772
5.59848
6.23125
6.93089
7.68235
8.47224
9.2902
10.1295
10.9868
11.8611
12.7531
13.6643
14.5966
15.5517
16.5315
17.5374
18.5706
19.632
20.722
21.8409
22.9887
24.165
25.3694
26.6015
27.8607
29.1468
30.4593
31.7978
33.1621
34.5516
35.9662
37.4054
38.869
40.3566
41.8679
43.4025
44.96
46.5401
48.1422
49.7659
51.4105
53.0756
54.7604
56.4642
58.1862
59.9255
61.6813
63.4525
65.2381
67.0369
68.8477
70.6695
72.5007
74.3402
76.1866
78.0385
79.8945
81.7533
83.6136
85.474
87.3335
89.1909
91.0454
92.8962
94.7425
96.5837
98.419
100.245
102.055
103.845
105.611
107.351
109.061
110.741
112.388
114
115.575
117.11
118.605
120.058
121.465
122.827
124.141
125.405
126.618
127.78
128.887
129.939
130.935
131.874
132.755
133.576
134.337
135.036
135.674
136.249
136.761
137.21
137.594
137.914
138.169
138.359
138.483
138.543
138.537
138.466
138.329
138.129
137.863
137.534
137.141
136.685
136.167
135.587
134.946
134.246
133.487
132.67
131.797
130.868
129.886
128.851
127.765
126.629
125.446
124.216
122.941
121.625
120.266
118.869
117.441
115.98
114.493
112.982
111.456
109.926
108.412
106.93
105.463
104
102.531
101.054
99.5693
98.0771
96.5787
95.0755
93.5693
92.0616
90.5543
89.0489
87.5472
86.0508
84.5614
83.0804
81.6095
80.1502
78.7038
77.2718
75.8556
74.4564
73.0756
71.7142
70.3736
69.055
67.7597
66.4893
65.2456
64.0319
62.8533
61.7196
60.6496
59.6895
58.9356
58.6492
12.9552
6.26224
5.1973
5.01673
5.14412
5.4398
5.85418
6.36239
6.94687
7.59235
8.28514
9.01387
9.77016
10.5489
11.3476
12.1661
13.0053
13.8666
14.7519
15.6626
16.6002
17.5657
18.5598
19.5831
20.6357
21.7176
22.8286
23.9686
25.1372
26.334
27.5587
28.811
30.0907
31.3976
32.7314
34.0919
35.479
36.8925
38.3321
39.7978
41.2894
42.8065
44.3491
45.9167
47.509
49.1257
50.7664
52.4304
54.1171
55.8261
57.5563
59.3071
61.0776
62.8666
64.6732
66.4962
68.3343
70.1862
72.0506
73.926
75.811
77.7041
79.6037
81.5082
83.4161
85.3259
87.2362
89.1453
91.0519
92.9545
94.8517
96.7419
98.6229
100.49
102.338
104.164
105.965
107.738
109.481
111.191
112.867
114.506
116.105
117.664
119.179
120.65
122.074
123.449
124.773
126.046
127.265
128.43
129.538
130.588
131.58
132.512
133.383
134.192
134.938
135.62
136.239
136.792
137.28
137.702
138.058
138.348
138.571
138.726
138.815
138.837
138.792
138.681
138.503
138.259
137.949
137.575
137.136
136.633
136.067
135.44
134.751
134.002
133.193
132.328
131.405
130.428
129.396
128.313
127.179
125.996
124.766
123.491
122.168
120.81
119.414
117.982
116.518
115.024
113.504
111.961
110.402
108.834
107.268
105.712
104.161
102.611
101.056
99.4967
97.9319
96.3627
94.7905
93.2166
91.6427
90.0705
88.5017
86.9379
85.3808
83.832
82.293
80.7655
79.2509
77.7505
76.2659
74.7983
73.349
71.9193
70.5103
69.1234
67.7597
66.4206
65.1074
63.8222
62.5672
61.3462
60.1653
59.0355
57.9756
57.0251
56.2483
55.7699
16.3247
7.56962
6.1318
5.81716
5.87206
6.11403
6.47861
6.93515
7.46455
8.05238
8.68687
9.35874
10.0613
10.7904
11.544
12.3217
13.1241
13.9522
14.8073
15.6905
16.6028
17.545
18.5176
19.5209
20.5551
21.6203
22.7165
23.8436
25.0014
26.1899
27.4089
28.6583
29.9381
31.2483
32.5887
33.9594
35.3603
36.7915
38.253
39.7446
41.2663
42.818
44.3997
46.011
47.6517
49.3215
51.0199
52.7465
54.5007
56.2817
58.0889
59.9212
61.7776
63.6572
65.5586
67.4805
69.4216
71.3803
73.3551
75.3442
77.346
79.3586
81.3802
83.409
85.4429
87.4801
89.5186
91.5565
93.5918
95.6224
97.6464
99.6617
101.664
103.648
105.611
107.549
109.46
111.339
113.186
114.997
116.769
118.501
120.19
121.834
123.431
124.978
126.474
127.916
129.304
130.635
131.907
133.12
134.271
135.359
136.384
137.343
138.237
139.063
139.822
140.512
141.133
141.684
142.165
142.574
142.913
143.181
143.378
143.503
143.557
143.539
143.451
143.292
143.063
142.764
142.396
141.959
141.455
140.884
140.247
139.545
138.779
137.95
137.06
136.111
135.103
134.037
132.916
131.743
130.518
129.238
127.916
126.549
125.138
123.688
122.2
120.678
119.123
117.539
115.928
114.295
112.644
110.981
109.312
107.644
105.975
104.305
102.631
100.954
99.2733
97.591
95.9081
94.2263
92.5474
90.8729
89.2046
87.5443
85.8936
84.2542
82.6275
81.0152
79.4188
77.8395
76.2789
74.7382
73.2187
71.7216
70.2482
68.7996
67.3772
65.9823
64.6166
63.2821
61.9816
60.7192
59.5014
58.3391
57.25
56.2661
55.4302
54.8026
20.1784
8.8117
6.91969
6.44891
6.42289
6.60761
6.92163
7.3281
7.80627
8.34223
8.92568
9.54889
10.2064
10.8946
11.6116
12.3568
13.1303
13.9328
14.7649
15.6277
16.5217
17.4478
18.4064
19.3979
20.4227
21.4811
22.5732
23.6992
24.8594
26.0538
27.2825
28.5459
29.844
31.177
32.5452
33.9486
35.3875
36.8621
38.3724
39.9186
41.5008
43.1189
44.7728
46.4626
48.1879
49.9484
51.7437
53.5733
55.4365
57.3326
59.2606
61.2196
63.2083
65.2255
67.2697
69.3395
71.433
73.5485
75.6842
77.8379
80.0077
82.1913
84.3865
86.591
88.8024
91.0183
93.2363
95.4538
97.6684
99.8774
102.078
104.268
106.441
108.593
110.72
112.818
114.885
116.917
118.912
120.867
122.778
124.644
126.462
128.23
129.944
131.603
133.204
134.746
136.227
137.644
138.997
140.283
141.501
142.649
143.727
144.734
145.667
146.526
147.311
148.02
148.654
149.211
149.691
150.094
150.42
150.668
150.838
150.931
150.947
150.886
150.748
150.534
150.244
149.88
149.441
148.929
148.345
147.688
146.962
146.167
145.304
144.374
143.379
142.322
141.204
140.025
138.786
137.495
136.15
134.754
133.31
131.821
130.287
128.713
127.101
125.453
123.773
122.063
120.326
118.566
116.787
114.994
113.192
111.385
109.575
107.761
105.944
104.126
102.306
100.486
98.6688
96.8549
95.0464
93.2452
91.4531
89.6718
87.9032
86.1488
84.4103
82.6893
80.9872
79.3054
77.6454
76.0084
74.3958
72.8087
71.2484
69.7162
68.2134
66.7415
65.3021
63.8976
62.5309
61.2064
59.9306
58.7139
57.572
56.5304
55.617
54.8625
23.6362
9.85625
7.53149
6.90795
6.80229
6.9321
7.19968
7.56202
7.99637
8.48878
9.02977
9.61262
10.2326
10.8866
11.5728
12.2905
13.0394
13.8199
14.6327
15.4783
16.3575
17.2711
18.2196
19.2038
20.2242
21.2814
22.3759
23.5082
24.6787
25.8881
27.1367
28.425
29.7535
31.1227
32.5329
33.9847
35.4785
37.0145
38.5931
40.2145
41.879
43.5867
45.3376
47.1316
48.9684
50.8479
52.7695
54.7327
56.7366
58.7804
60.863
62.9832
65.1395
67.3305
69.5544
71.8092
74.0931
76.4038
78.739
81.0963
83.4732
85.867
88.275
90.6945
93.1224
95.5559
97.9919
100.428
102.86
105.285
107.701
110.102
112.482
114.836
117.162
119.454
121.711
123.927
126.101
128.23
130.309
132.336
134.309
136.224
138.08
139.873
141.601
143.262
144.854
146.375
147.824
149.198
150.496
151.717
152.859
153.921
154.903
155.802
156.619
157.352
158.002
158.567
159.047
159.443
159.754
159.98
160.121
160.177
160.149
160.038
159.842
159.564
159.204
158.763
158.242
157.642
156.963
156.207
155.376
154.472
153.495
152.447
151.327
150.143
148.896
147.585
146.213
144.784
143.3
141.763
140.175
138.54
136.86
135.138
133.377
131.579
129.748
127.887
125.999
124.087
122.156
120.209
118.25
116.285
114.314
112.339
110.363
108.385
106.409
104.434
102.464
100.501
98.5452
96.5999
94.6666
92.7472
90.8435
88.9573
87.0901
85.2437
83.4195
81.6189
79.8435
78.0944
76.373
74.6805
73.0183
71.3875
69.7896
68.2262
66.699
65.2105
63.7636
62.3629
61.0147
59.7286
58.5182
57.4033
56.4018
55.5298
26.5631
10.6831
7.9722
7.2093
7.03011
7.10994
7.33664
7.66146
8.05944
8.51614
9.02235
9.57188
10.1605
10.7854
11.445
12.1385
12.8656
13.6265
14.422
15.2526
16.1192
17.0227
17.9641
18.9442
19.9639
21.0243
22.1261
23.2703
24.4577
25.6893
26.9658
28.2882
29.6571
31.0735
32.538
34.0514
35.6142
37.2272
38.8907
40.6053
42.3712
44.1887
46.0578
47.9785
49.9506
51.9737
54.0473
56.1707
58.3429
60.5629
62.8293
65.1407
67.4953
69.8912
72.3263
74.7984
77.3049
79.8432
82.4106
85.0042
87.6208
90.2573
92.9104
95.5768
98.2531
100.936
103.621
106.306
108.986
111.658
114.318
116.957
119.571
122.154
124.704
127.215
129.684
132.108
134.482
136.804
139.07
141.276
143.42
145.499
147.51
149.45
151.317
153.108
154.822
156.455
158.008
159.477
160.861
162.158
163.368
164.489
165.52
166.461
167.309
168.066
168.729
169.3
169.777
170.161
170.452
170.65
170.754
170.767
170.687
170.515
170.253
169.9
169.458
168.929
168.313
167.612
166.826
165.956
165.005
163.976
162.871
161.69
160.435
159.11
157.717
156.257
154.734
153.151
151.509
149.812
148.062
146.263
144.418
142.529
140.599
138.633
136.632
134.6
132.542
130.459
128.356
126.237
124.106
121.966
119.82
117.671
115.521
113.372
111.225
109.082
106.947
104.82
102.705
100.603
98.5154
96.4453
94.3941
92.3637
90.3558
88.372
86.4139
84.483
82.5806
80.7081
78.8669
77.0581
75.2832
73.5434
71.8401
70.175
68.55
66.9674
65.4304
63.9434
62.5125
61.1463
59.8562
58.6575
57.561
56.576
28.9077
11.2999
8.26119
7.37693
7.13241
7.16785
7.35896
7.65193
8.01967
8.44694
8.92445
9.44622
10.0083
10.6083
11.2446
11.9166
12.6242
13.3678
14.1479
14.9656
15.822
16.7181
17.6552
18.6347
19.6579
20.7261
21.8406
23.0028
24.2141
25.4756
26.7887
28.1547
29.5747
31.0499
32.5814
34.1701
35.817
37.523
39.2886
41.1146
43.0014
44.9492
46.9582
49.0283
51.1593
53.3507
55.6017
57.9116
60.279
62.7028
65.1811
67.7122
70.2939
72.9239
75.5996
78.3182
81.0767
83.8719
86.7005
89.559
92.4436
95.3508
98.2765
101.217
104.168
107.126
110.085
113.044
115.996
118.937
121.863
124.761
127.628
130.459
133.249
135.995
138.691
141.335
143.922
146.449
148.911
151.306
153.629
155.879
158.051
160.143
162.152
164.077
165.914
167.661
169.318
170.881
172.349
173.722
174.997
176.174
177.251
178.227
179.102
179.875
180.546
181.115
181.581
181.945
182.207
182.367
182.426
182.383
182.24
181.998
181.657
181.218
180.682
180.051
179.328
178.512
177.606
176.611
175.529
174.363
173.115
171.787
170.381
168.901
167.348
165.725
164.036
162.282
160.468
158.595
156.669
154.69
152.664
150.592
148.479
146.328
144.143
141.926
139.682
137.414
135.125
132.82
130.503
128.177
125.846
123.512
121.177
118.846
116.518
114.198
111.888
109.589
107.304
105.035
102.785
100.555
98.3474
96.1641
94.0068
91.8772
89.7769
87.7073
85.67
83.6663
81.6974
79.7648
77.8697
76.0135
74.1976
72.4236
70.6936
69.0099
67.3756
65.7951
64.2739
62.8196
61.4417
60.152
58.9564
57.861
30.6541
11.7231
8.42163
7.43663
7.136
7.13264
7.29271
7.5583
7.9004
8.30295
8.75638
9.25477
9.79437
10.3729
10.9891
11.6426
12.3335
13.0623
13.8301
14.6381
15.4876
16.3803
17.3178
18.3019
19.3343
20.417
21.5517
22.7403
23.9847
25.2865
26.6476
28.0697
29.5543
31.103
32.7173
34.3985
36.1477
37.966
39.8544
41.8135
43.8438
45.9457
48.1193
50.3644
52.6806
55.0672
57.5233
60.0477
62.639
65.2952
68.0143
70.7941
73.6318
76.5246
79.4692
82.4624
85.5004
88.5793
91.6953
94.844
98.0212
101.223
104.444
107.68
110.927
114.179
117.433
120.683
123.925
127.153
130.355
133.523
136.654
139.741
142.78
145.767
148.697
151.565
154.368
157.102
159.762
162.345
164.847
167.265
169.596
171.836
173.983
176.036
177.99
179.845
181.598
183.248
184.793
186.231
187.563
188.785
189.898
190.9
191.79
192.569
193.236
193.791
194.235
194.567
194.787
194.897
194.896
194.786
194.567
194.24
193.808
193.27
192.627
191.883
191.039
190.097
189.057
187.924
186.697
185.381
183.978
182.49
180.919
179.27
177.544
175.745
173.875
171.939
169.939
167.878
165.761
163.591
161.371
159.105
156.796
154.449
152.067
149.653
147.212
144.747
142.262
139.762
137.249
134.728
132.203
129.676
127.15
124.629
122.114
119.61
117.117
114.639
112.179
109.737
107.318
104.922
102.553
100.211
97.8983
95.6174
93.3695
91.1561
88.9787
86.8386
84.7372
82.6758
80.6557
78.6782
76.7449
74.8574
73.0176
71.228
69.4916
67.8124
66.1955
64.6476
63.1765
61.7909
60.4938
59.2897
31.805
11.9712
8.47596
7.41247
7.06565
7.0291
7.16217
7.40394
7.72396
8.10545
8.53859
9.01741
9.5383
10.0992
10.6992
11.338
12.0163
12.7349
13.4951
14.2987
15.1475
16.0436
16.9891
17.9863
19.0376
20.1455
21.3122
22.5402
23.8318
25.1895
26.6153
28.1116
29.6803
31.3233
33.0425
34.8395
36.7156
38.6722
40.7101
42.8303
45.0331
47.3188
49.6874
52.1384
54.6712
57.2848
59.9779
62.7487
65.5952
68.5153
71.5061
74.5647
77.6879
80.872
84.1133
87.4077
90.7505
94.1373
97.5632
101.023
104.513
108.027
111.56
115.108
118.664
122.224
125.783
129.336
132.876
136.394
139.876
143.316
146.71
150.053
153.338
156.562
159.719
162.806
165.817
168.748
171.597
174.358
177.028
179.602
182.079
184.454
186.726
188.892
190.949
192.896
194.731
196.452
198.057
199.546
200.917
202.17
203.302
204.313
205.203
205.971
206.617
207.143
207.547
207.831
207.994
208.038
207.963
207.77
207.461
207.036
206.497
205.845
205.083
204.212
203.234
202.15
200.965
199.678
198.294
196.815
195.244
193.583
191.836
190.005
188.094
186.107
184.046
181.915
179.718
177.459
175.142
172.769
170.346
167.876
165.362
162.81
160.222
157.603
154.957
152.288
149.6
146.896
144.182
141.46
138.735
136.01
133.289
130.574
127.869
125.175
122.497
119.837
117.197
114.58
111.989
109.424
106.889
104.386
101.916
99.4808
97.0827
94.7228
92.4027
90.1238
87.8873
85.6947
83.5471
81.4459
79.3927
77.3891
75.4369
73.5387
71.6972
69.9162
68.2003
66.5553
64.9874
63.5033
62.1036
60.7928
32.3722
12.0617
8.44403
7.32545
6.94306
6.87923
6.98935
7.21071
7.51197
7.87595
8.29265
8.75615
9.263
9.81141
10.4007
11.0312
11.7037
12.4197
13.181
13.9899
14.8487
15.7602
16.727
17.7522
18.8387
19.9894
21.2075
22.4959
23.8576
25.2953
26.812
28.4101
30.0921
31.8603
33.7167
35.6632
37.7011
39.8319
42.0565
44.3754
46.7891
49.2973
51.8998
54.5956
57.3837
60.2624
63.2299
66.2837
69.4211
72.6391
75.9343
79.303
82.741
86.2441
89.8077
93.427
97.0964
100.81
104.563
108.349
112.164
116
119.854
123.719
127.589
131.46
135.324
139.178
143.013
146.81
150.561
154.261
157.905
161.488
165.003
168.446
171.812
175.097
178.295
181.403
184.418
187.336
190.151
192.858
195.457
197.943
200.315
202.569
204.705
206.72
208.612
210.38
212.022
213.537
214.925
216.183
217.312
218.31
219.177
219.914
220.52
220.996
221.341
221.558
221.646
221.606
221.439
221.146
220.729
220.189
219.528
218.747
217.849
216.835
215.709
214.471
213.125
211.673
210.119
208.464
206.712
204.867
202.931
200.909
198.803
196.617
194.355
192.022
189.62
187.154
184.627
182.045
179.412
176.73
174.006
171.242
168.443
165.614
162.759
159.881
156.985
154.075
151.156
148.231
145.305
142.38
139.461
136.552
133.654
130.772
127.908
125.064
122.245
119.452
116.688
113.954
111.254
108.589
105.961
103.372
100.824
98.3178
95.855
93.4372
91.0656
88.7415
86.4663
84.2412
82.0677
79.9475
77.8824
75.8746
73.927
72.0429
70.2266
68.4827
66.8164
65.2328
63.731
62.3156
32.3671
12.0099
8.34276
7.19349
6.78702
6.70265
6.79464
6.99978
7.28655
7.63772
8.0434
8.49785
8.99791
9.54215
10.1304
10.7633
11.4423
12.1695
12.9473
13.7787
14.6667
15.6147
16.6263
17.705
18.8544
20.0781
21.3798
22.7632
24.2317
25.7886
27.4372
29.1803
31.0207
32.9607
35.0025
37.1478
39.398
41.7541
44.2166
46.7859
49.4617
52.2432
55.1295
58.1188
61.2094
64.3986
67.6837
71.0615
74.5282
78.0799
81.7121
85.4203
89.1995
93.0446
96.9503
100.912
104.922
108.973
113.059
117.174
121.314
125.47
129.639
133.813
137.987
142.155
146.312
150.453
154.55
158.598
162.591
166.521
170.384
174.174
177.886
181.514
185.053
188.5
191.849
195.097
198.24
201.273
204.194
206.997
209.681
212.243
214.679
216.989
219.169
221.219
223.135
224.918
226.565
228.076
229.45
230.685
231.782
232.74
233.558
234.237
234.777
235.179
235.442
235.568
235.558
235.413
235.133
234.721
234.177
233.504
232.703
231.776
230.726
229.554
228.264
226.858
225.338
223.707
221.97
220.128
218.185
216.146
214.012
211.788
209.479
207.087
204.617
202.073
199.46
196.781
194.041
191.245
188.397
185.501
182.562
179.585
176.573
173.532
170.465
167.378
164.274
161.158
158.034
154.906
151.779
148.657
145.543
142.44
139.353
136.284
133.236
130.212
127.216
124.25
121.316
118.416
115.554
112.73
109.947
107.207
104.511
101.861
99.2583
96.704
94.1996
91.7464
89.3456
86.9985
84.7065
82.4712
80.2944
78.1782
76.1253
74.1387
72.2221
70.3795
68.6151
66.9325
65.3302
63.8132
31.8026
11.8298
8.18742
7.03258
6.61463
6.51794
6.59847
6.79387
7.07316
7.41957
7.82366
8.28016
8.78643
9.34158
9.94602
10.6011
11.3091
12.0726
12.895
13.7799
14.7314
15.7536
16.8513
18.0287
19.2889
20.6368
22.0766
23.6125
25.2483
26.9876
28.8338
30.7898
32.8582
35.041
37.34
39.7565
42.2911
44.9441
47.7154
50.6041
53.609
56.7284
59.96
63.301
66.7484
70.2985
73.9473
77.6903
81.5228
85.4397
89.4355
93.5045
97.6409
101.839
106.092
110.393
114.737
119.115
123.521
127.95
132.393
136.846
141.303
145.757
150.203
154.635
159.05
163.419
167.732
171.983
176.165
180.274
184.302
188.246
192.1
195.858
199.517
203.071
206.518
209.851
213.069
216.168
219.143
221.992
224.711
227.299
229.753
232.071
234.251
236.291
238.189
239.945
241.557
243.025
244.347
245.524
246.554
247.437
248.174
248.764
249.208
249.506
249.66
249.67
249.537
249.262
248.846
248.292
247.601
246.774
245.815
244.724
243.505
242.16
240.691
239.102
237.395
235.575
233.643
231.604
229.461
227.218
224.878
222.447
219.927
217.324
214.641
211.884
209.056
206.162
203.206
200.195
197.131
194.021
190.868
187.677
184.454
181.202
177.927
174.633
171.324
168.005
164.681
161.355
158.033
154.717
151.413
148.123
144.851
141.601
138.376
135.178
132.011
128.877
125.779
122.72
119.701
116.724
113.792
110.906
108.068
105.279
102.542
99.8558
97.2234
94.6456
92.1235
89.6585
87.2518
84.9051
82.6199
80.3983
78.2428
76.156
74.1411
72.2017
70.3409
68.5617
66.8619
65.247
30.6676
11.5804
8.00112
6.85736
6.43969
6.34088
6.42029
6.61742
6.9026
7.2601
7.68143
8.16223
8.70076
9.29705
9.95244
10.6693
11.4507
12.3004
13.2228
14.2222
15.3038
16.4724
17.7331
19.0909
20.5504
22.1163
23.7929
25.5844
27.4944
29.5261
31.6823
33.9652
36.3762
38.9166
41.5867
44.3864
47.3149
50.3709
53.5525
56.8574
60.2826
63.8247
67.4798
71.2436
75.1114
79.0781
83.1384
87.2866
91.5167
95.8226
100.198
104.636
109.131
113.675
118.262
122.885
127.537
132.212
136.902
141.602
146.304
151.005
155.697
160.376
165.035
169.673
174.257
178.776
183.224
187.597
191.888
196.093
200.206
204.223
208.138
211.947
215.645
219.23
222.696
226.04
229.259
232.35
235.309
238.134
240.822
243.37
245.777
248.041
250.159
252.131
253.955
255.629
257.153
258.526
259.748
260.818
261.735
262.5
263.112
263.573
263.882
264.04
264.047
263.906
263.617
263.181
262.6
261.876
261.01
260.004
258.862
257.584
256.174
254.635
252.969
251.179
249.269
247.242
245.101
242.851
240.495
238.037
235.482
232.833
230.096
227.274
224.372
221.395
218.347
215.234
212.061
208.831
205.551
202.225
198.858
195.455
192.022
188.561
185.08
181.582
178.072
174.554
171.033
167.515
164.002
160.499
157.01
153.539
150.089
146.664
143.268
139.903
136.571
133.277
130.022
126.809
123.641
120.518
117.443
114.418
111.444
108.523
105.656
102.845
100.09
97.3933
94.7552
92.1773
89.6608
87.2071
84.8177
82.4946
80.2399
78.0561
75.946
73.9126
71.9582
70.0854
68.2917
66.5831
29.1838
11.2914
7.82761
6.71223
6.30875
6.22316
6.31966
6.54057
6.85826
7.25876
7.73523
8.28486
8.90743
9.60449
10.3788
11.2342
12.1751
13.2063
14.3334
15.5616
16.8965
18.3437
19.9081
21.5947
23.4077
25.3511
27.4281
29.6413
31.9929
34.4839
37.1151
39.8861
42.7963
45.8439
49.027
52.3427
55.7878
59.3584
63.0502
66.8588
70.7789
74.8053
78.9324
83.1543
87.465
91.8582
96.3277
100.867
105.469
110.128
114.837
119.589
124.378
129.197
134.04
138.9
143.771
148.647
153.522
158.39
163.247
168.087
172.907
177.702
182.463
187.156
191.776
196.319
200.779
205.151
209.43
213.613
217.694
221.669
225.535
229.286
232.919
236.431
239.818
243.077
246.205
249.199
252.056
254.774
257.35
259.782
262.068
264.207
266.197
268.036
269.723
271.257
272.637
273.863
274.934
275.849
276.609
277.213
277.661
277.954
278.092
278.077
277.908
277.587
277.115
276.493
275.724
274.809
273.749
272.548
271.207
269.728
268.116
266.371
264.499
262.501
260.381
258.144
255.791
253.328
250.759
248.087
245.318
242.455
239.503
236.467
233.352
230.163
226.904
223.581
220.198
216.761
213.275
209.745
206.177
202.574
198.943
195.288
191.615
187.927
184.23
180.528
176.827
173.13
169.442
165.768
162.11
158.474
154.862
151.278
147.726
144.209
140.729
137.289
133.892
130.54
127.235
123.98
120.776
117.625
114.528
111.487
108.503
105.578
102.712
99.9068
97.1631
94.4821
91.865
89.3131
86.8278
84.411
82.0644
79.7905
77.5915
75.4699
73.4279
71.4674
69.5858
67.79
27.4737
10.9418
7.65865
6.60301
6.24027
6.19691
6.34481
6.63065
7.03012
7.53218
8.13274
8.83161
9.63108
10.535
11.5482
12.6762
13.9247
15.2996
16.8062
18.4499
20.2353
22.1661
24.2456
26.4758
28.858
31.3925
34.0788
36.9155
39.9002
43.0299
46.3011
49.7094
53.2502
56.9182
60.7079
64.6135
68.6291
72.7486
76.9656
81.2739
85.6673
90.1394
94.6838
99.2945
103.965
108.689
113.462
118.275
123.125
128.005
132.908
137.83
142.765
147.708
152.652
157.594
162.527
167.448
172.352
177.235
182.093
186.924
191.725
196.477
201.153
205.75
210.264
214.692
219.028
223.27
227.412
231.452
235.385
239.208
242.916
246.507
249.978
253.324
256.543
259.632
262.588
265.408
268.091
270.633
273.032
275.287