/*--------------------------------*- C++ -*----------------------------------*\
| =========                 |                                                 |
| \\      /  F ield         | OpenFOAM: The Open Source CFD Toolbox           |
|  \\    /   O peration     | Version:  2412                                  |
|   \\  /    A nd           | Website:  www.openfoam.com                      |
|    \\/     M anipulation  |                                                 |
\*---------------------------------------------------------------------------*/
FoamFile
{
    version     2.0;
    format      ascii;
    arch        "LSB;label=32;scalar=64";
    class       volScalarField;
    location    "0.13";
    object      k;
}
// * * * * * * * * * * * * * * * * * * * * * * * * * * * * * * * * * * * * * //

dimensions      [0 2 -2 0 0 0 0];

internalField   nonuniform List<scalar> 
12225
(
0.316793
0.394492
0.477904
0.54261
0.593824
0.634367
0.666717
0.692769
0.713866
0.731023
0.745022
0.756454
0.765773
0.773318
0.779348
0.784002
0.787414
0.790477
0.569139
0.788913
0.95258
1.06799
1.15119
1.21269
1.25816
1.29169
1.31629
1.3341
1.34669
1.35523
1.36064
1.36361
1.36469
1.36424
1.36344
1.36131
0.670061
0.972154
1.18323
1.33202
1.43945
1.5186
1.57692
1.61968
1.65076
1.67301
1.68849
1.69878
1.70506
1.70828
1.70919
1.70838
1.70686
1.70481
0.722108
1.07674
1.32651
1.50447
1.63403
1.72971
1.80042
1.85243
1.89038
1.91766
1.93678
1.94966
1.95775
1.96218
1.96391
1.9637
1.96257
1.96108
0.742772
1.1292
1.41224
1.61818
1.77023
1.88337
1.96763
2.03016
2.07625
2.1098
2.13375
2.15034
2.16127
2.16791
2.17137
2.17258
2.17259
2.17206
0.739915
1.13776
1.44638
1.6782
1.85305
1.98506
2.08467
2.15965
2.21578
2.25743
2.28791
2.30978
2.32501
2.33518
2.34155
2.34524
2.34725
2.34825
0.719621
1.10881
1.43133
1.68403
1.88029
2.03178
2.1483
2.23767
2.30596
2.35783
2.39689
2.42597
2.4473
2.46263
2.47343
2.48089
2.48603
2.48944
0.687643
1.05046
1.37184
1.63648
1.84974
2.01926
2.15294
2.25794
2.34011
2.40416
2.45385
2.49218
2.52155
2.5439
2.56082
2.57359
2.58323
2.59022
0.648988
0.972384
1.27662
1.54081
1.76295
1.94594
2.09474
2.2149
2.3115
2.3889
2.45073
2.50001
2.5392
2.57033
2.59506
2.61475
2.63038
2.6423
0.607486
0.884093
1.15748
1.40741
1.62725
1.81574
1.9745
2.10679
2.21633
2.30665
2.38093
2.44195
2.49204
2.53321
2.56711
2.59508
2.61806
2.63625
0.565821
0.793326
1.02685
1.25031
1.45568
1.63918
1.79969
1.9381
2.05639
2.1569
2.242
2.31392
2.37471
2.42612
2.46969
2.50665
2.53786
2.56327
0.528749
0.7121
0.905192
1.09648
1.2787
1.44753
1.60048
1.7368
1.85693
1.96199
2.05343
2.13279
2.20158
2.26122
2.31297
2.35789
2.39665
2.42889
0.494655
0.637277
0.790594
0.947007
1.10079
1.24807
1.38606
1.51309
1.62854
1.73248
1.82547
1.90828
1.98185
2.04713
2.10504
2.15634
2.20148
2.23981
0.460678
0.56215
0.673156
0.789696
0.907927
1.02498
1.13852
1.24674
1.3485
1.44317
1.53053
1.61068
1.6839
1.7506
1.81123
1.86621
1.91568
1.95864
0.429347
0.492753
0.562808
0.638306
0.717373
0.798348
0.879733
0.960176
1.03858
1.11413
1.18627
1.25467
1.31913
1.37962
1.43616
1.48879
1.53739
1.58073
0.403169
0.435387
0.470983
0.510064
0.552204
0.596877
0.643504
0.691444
0.740051
0.788745
0.837031
0.884501
0.930828
0.975758
1.0191
1.06067
1.10021
1.13662
0.384084
0.394611
0.406486
0.419898
0.434853
0.451311
0.469209
0.488436
0.508833
0.530215
0.55239
0.575162
0.598335
0.621699
0.645074
0.668298
0.691165
0.713137
0.374047
0.37371
0.37409
0.375207
0.377038
0.379561
0.382764
0.386633
0.391144
0.39627
0.401975
0.40822
0.414963
0.422178
0.429822
0.437837
0.446156
0.454669
0.376606
0.378923
0.381987
0.385848
0.39048
0.395847
0.401914
0.408636
0.415954
0.423803
0.432112
0.44081
0.449825
0.45909
0.468541
0.478115
0.487738
0.497192
0.394946
0.417777
0.442952
0.470548
0.500285
0.5318
0.564705
0.598566
0.632937
0.667399
0.701586
0.735188
0.767952
0.799681
0.830227
0.85948
0.887319
0.913338
0.427769
0.489061
0.556222
0.628
0.702561
0.77826
0.853665
0.927519
0.998812
1.06682
1.13106
1.19127
1.24733
1.29925
1.34713
1.39113
1.4314
1.46796
0.475738
0.594967
0.723598
0.855962
0.987172
1.1139
1.23377
1.34517
1.44728
1.53989
1.62319
1.69766
1.76389
1.82258
1.87443
1.92013
1.96029
1.99542
0.536844
0.728688
0.928614
1.12371
1.3064
1.473
1.62179
1.75251
1.86605
1.96386
2.04762
2.11901
2.17962
2.23091
2.2742
2.3106
2.34111
2.36656
0.604139
0.873962
1.14015
1.38238
1.59445
1.77602
1.9288
2.05581
2.16059
2.24655
2.31673
2.37375
2.41985
2.4569
2.48645
2.5098
2.528
2.54201
0.668313
1.00766
1.31641
1.57531
1.78708
1.958
2.09445
2.20263
2.28797
2.35494
2.40716
2.44752
2.47835
2.50152
2.51852
2.53054
2.53856
2.54345
0.717302
1.09919
1.41418
1.65888
1.84811
1.99398
2.1059
2.19143
2.25648
2.30555
2.34214
2.36894
2.38804
2.40107
2.40932
2.41379
2.4153
2.41458
0.735717
1.11862
1.40734
1.61983
1.77771
1.89572
1.98395
2.04966
2.09825
2.13376
2.15921
2.17688
2.18853
2.19548
2.19879
2.19927
2.19755
2.19423
0.708199
1.04716
1.29075
1.46557
1.59175
1.68428
1.75245
1.80244
1.83878
1.86479
1.88295
1.89509
1.90257
1.90648
1.90761
1.90661
1.90397
1.90016
0.616921
0.862574
1.04891
1.18265
1.27674
1.34491
1.39484
1.43127
1.45768
1.47657
1.48975
1.49857
1.50401
1.50686
1.5077
1.507
1.5051
1.50242
0.33327
0.408789
0.496177
0.564095
0.61661
0.657446
0.689408
0.714718
0.734955
0.751245
0.764436
0.775173
0.783951
0.791152
0.797074
0.801959
0.805979
0.809312
0.00935178
0.014854
0.0187671
0.0216765
0.0238236
0.0257678
0.0279253
0.0301458
0.0324577
0.0349685
0.0379407
0.0417821
0.0460551
0.0506756
0.0555924
0.0607951
0.0662816
0.0720458
0.0780758
0.0843552
0.0908653
0.0975878
0.104506
0.111609
0.118888
0.126346
0.133994
0.141854
0.149967
0.15821
0.166553
0.174984
0.183494
0.192076
0.200723
0.20943
0.21819
0.227
0.235856
0.244752
0.253687
0.262656
0.271655
0.280681
0.289729
0.298796
0.307877
0.316967
0.326062
0.335157
0.344246
0.353323
0.362384
0.371421
0.380429
0.389402
0.398332
0.407214
0.41604
0.424804
0.4335
0.44212
0.450658
0.459107
0.46746
0.475711
0.483853
0.491882
0.499791
0.507579
0.515244
0.522793
0.530239
0.537613
0.544904
0.552015
0.558946
0.565703
0.572282
0.578682
0.584897
0.590923
0.596755
0.602388
0.607819
0.613043
0.618056
0.622854
0.627434
0.631793
0.635927
0.639835
0.643512
0.646957
0.650168
0.653142
0.655878
0.658374
0.660629
0.662641
0.664411
0.665936
0.667216
0.66825
0.669039
0.669583
0.66988
0.669933
0.66974
0.669302
0.668621
0.667698
0.666533
0.665128
0.663484
0.661604
0.659489
0.657142
0.654566
0.651762
0.648734
0.645485
0.642019
0.63834
0.63445
0.630356
0.62606
0.621568
0.616884
0.612014
0.606963
0.601738
0.596342
0.590784
0.585069
0.579204
0.573196
0.56705
0.560785
0.554385
0.54791
0.541417
0.5355
0.531603
0.528032
0.524397
0.520668
0.516845
0.512932
0.508933
0.504853
0.500698
0.496472
0.492182
0.487833
0.48343
0.478981
0.474489
0.469962
0.465406
0.460825
0.456227
0.451617
0.447
0.442381
0.437767
0.433161
0.428567
0.423987
0.419422
0.414869
0.410323
0.405769
0.401184
0.396519
0.391685
0.386479
0.380362
0.372711
0.362274
0.0193249
0.0309194
0.0407439
0.0486766
0.0559365
0.0628658
0.069508
0.0763009
0.0835133
0.0912172
0.0993804
0.107928
0.116754
0.125805
0.13507
0.144559
0.154293
0.16429
0.174567
0.185137
0.19601
0.207193
0.218692
0.230507
0.242639
0.255084
0.267835
0.280883
0.294212
0.307803
0.321643
0.335719
0.35002
0.364536
0.379256
0.39417
0.409269
0.424544
0.439987
0.45559
0.471346
0.487247
0.503288
0.519461
0.535758
0.552173
0.568698
0.585325
0.602046
0.618851
0.635732
0.652679
0.669682
0.68673
0.703813
0.720918
0.738034
0.755149
0.772251
0.789327
0.806364
0.82335
0.840272
0.857116
0.873871
0.890522
0.907057
0.923465
0.939731
0.955844
0.971791
0.98756
1.00313
1.01849
1.03347
1.04817
1.06263
1.07682
1.09075
1.10441
1.11778
1.13086
1.14363
1.15609
1.16822
1.18002
1.19147
1.20257
1.21331
1.22368
1.23368
1.24329
1.2525
1.26132
1.26974
1.27774
1.28533
1.2925
1.29924
1.30555
1.31143
1.31687
1.32186
1.32641
1.33052
1.33417
1.33737
1.34011
1.3424
1.34423
1.3456
1.34651
1.34696
1.34695
1.34648
1.34555
1.34417
1.34233
1.34004
1.33729
1.3341
1.33047
1.32639
1.32188
1.31694
1.31157
1.30578
1.29959
1.29298
1.28598
1.27859
1.27081
1.26266
1.25415
1.24528
1.23608
1.22654
1.21666
1.20651
1.196
1.18529
1.1744
1.16345
1.15265
1.14176
1.13067
1.1194
1.10795
1.09632
1.08455
1.07263
1.06059
1.04843
1.03617
1.02383
1.01141
0.998941
0.986423
0.973875
0.961309
0.94874
0.936179
0.92364
0.911135
0.898677
0.886276
0.873943
0.861689
0.84952
0.837445
0.825466
0.813585
0.801798
0.790093
0.778447
0.766826
0.755136
0.743245
0.729568
0.714997
0.0280347
0.049309
0.0637772
0.0750055
0.0846367
0.0935186
0.102298
0.111348
0.120851
0.130841
0.141261
0.152029
0.163075
0.17437
0.185921
0.19776
0.209928
0.222465
0.235406
0.248779
0.262602
0.276883
0.291623
0.306816
0.322448
0.338501
0.354954
0.37178
0.388956
0.406455
0.424256
0.442338
0.460683
0.479273
0.498094
0.51713
0.536371
0.555806
0.575425
0.595219
0.61518
0.635301
0.655574
0.675992
0.696548
0.717232
0.738039
0.758957
0.77998
0.801096
0.822296
0.843569
0.864903
0.886285
0.907704
0.929145
0.950596
0.972041
0.993467
1.01486
1.0362
1.05747
1.07867
1.09977
1.12075
1.14161
1.16233
1.18289
1.20327
1.22348
1.24348
1.26328
1.28285
1.30211
1.32106
1.33971
1.35804
1.37606
1.39374
1.41108
1.42805
1.44466
1.46087
1.47669
1.49209
1.50706
1.5216
1.53568
1.54931
1.56246
1.57514
1.58732
1.599
1.61017
1.62083
1.63096
1.64056
1.64963
1.65815
1.66611
1.67353
1.68038
1.68667
1.69239
1.69753
1.70211
1.7061
1.70951
1.71234
1.71459
1.71625
1.71732
1.71781
1.71772
1.71703
1.71577
1.71392
1.71149
1.70849
1.70492
1.70077
1.69606
1.69079
1.68497
1.6786
1.67169
1.66425
1.65629
1.64781
1.63882
1.62935
1.61938
1.60895
1.59805
1.58671
1.57493
1.56274
1.55011
1.53716
1.52387
1.51026
1.4964
1.48235
1.4682
1.45388
1.43933
1.42454
1.40954
1.39433
1.37894
1.36337
1.34765
1.3318
1.31583
1.29976
1.2836
1.26738
1.25112
1.23482
1.21851
1.2022
1.18591
1.16965
1.15345
1.13731
1.12126
1.1053
1.08944
1.07371
1.05811
1.04265
1.02734
1.01218
0.997175
0.982332
0.967655
0.953139
0.938819
0.924123
0.909239
0.0356723
0.0670581
0.0857812
0.0991676
0.110349
0.120637
0.130722
0.141002
0.151681
0.162824
0.17442
0.186425
0.198804
0.211548
0.224674
0.238215
0.25221
0.266696
0.281702
0.297244
0.31333
0.329956
0.347111
0.364776
0.382928
0.401539
0.42058
0.440023
0.459839
0.480002
0.50049
0.52128
0.542354
0.563696
0.585291
0.607126
0.62919
0.651474
0.673969
0.696666
0.719559
0.742639
0.765901
0.789336
0.812937
0.836695
0.860603
0.88465
0.908828
0.933124
0.957527
0.982026
1.00661
1.03126
1.05596
1.0807
1.10546
1.13023
1.15498
1.17971
1.20438
1.229
1.25353
1.27795
1.30226
1.32643
1.35044
1.37428
1.39792
1.42136
1.44458
1.46755
1.49027
1.51264
1.53468
1.55637
1.5777
1.59866
1.61923
1.63939
1.65913
1.67843
1.69727
1.71564
1.73353
1.75091
1.76778
1.78411
1.79991
1.81515
1.82982
1.84392
1.85742
1.87033
1.88263
1.89431
1.90537
1.91579
1.92558
1.93472
1.9432
1.95103
1.9582
1.9647
1.97052
1.97568
1.98015
1.98395
1.98707
1.9895
1.99125
1.99231
1.99269
1.99238
1.9914
1.98973
1.98739
1.98437
1.98068
1.97632
1.9713
1.96563
1.95931
1.95234
1.94474
1.93652
1.92768
1.91823
1.90819
1.89757
1.88637
1.87462
1.86231
1.84949
1.83613
1.82229
1.808
1.79327
1.77813
1.76259
1.7467
1.73048
1.71401
1.69732
1.6804
1.66322
1.64579
1.62811
1.6102
1.59209
1.57379
1.55531
1.5367
1.51795
1.4991
1.48016
1.46116
1.44211
1.42303
1.40394
1.38487
1.36582
1.34683
1.3279
1.30906
1.29031
1.27169
1.2532
1.23486
1.21668
1.19869
1.18088
1.16329
1.14593
1.12881
1.112
1.09556
1.07961
1.06407
1.04898
0.0417141
0.0829562
0.10479
0.12012
0.132747
0.144164
0.155166
0.166215
0.177576
0.189379
0.20167
0.214458
0.227739
0.241518
0.255813
0.270648
0.286047
0.302033
0.318617
0.335805
0.35359
0.37196
0.390896
0.410373
0.430365
0.450842
0.471777
0.493142
0.514911
0.53706
0.559566
0.582412
0.60558
0.629055
0.652823
0.676875
0.701198
0.725786
0.750628
0.775717
0.801046
0.826608
0.852394
0.878398
0.90461
0.931022
0.957624
0.984406
1.01136
1.03846
1.06571
1.09309
1.12058
1.14816
1.17583
1.20356
1.23133
1.25912
1.28692
1.3147
1.34245
1.37013
1.39773
1.42523
1.4526
1.47983
1.50689
1.53376
1.56042
1.58685
1.61304
1.63895
1.66454
1.68977
1.71462
1.73909
1.76314
1.78677
1.80995
1.83267
1.85491
1.87664
1.89786
1.91853
1.93865
1.95819
1.97714
1.99549
2.01322
2.03031
2.04676
2.06255
2.07766
2.0921
2.10584
2.11887
2.1312
2.1428
2.15367
2.16381
2.17321
2.18186
2.18976
2.1969
2.20328
2.2089
2.21374
2.21782
2.22113
2.22366
2.22542
2.22641
2.22662
2.22607
2.22474
2.22265
2.21979
2.21618
2.21181
2.20669
2.20083
2.19423
2.1869
2.17886
2.1701
2.16065
2.1505
2.13968
2.1282
2.11605
2.10328
2.08989
2.07586
2.0613
2.04617
2.03051
2.01434
1.99769
1.98058
1.96303
1.94508
1.92676
1.90812
1.8892
1.86999
1.8505
1.83073
1.8107
1.79043
1.76993
1.74923
1.72836
1.70733
1.68616
1.66489
1.64353
1.62211
1.60065
1.57916
1.55767
1.53621
1.51479
1.49343
1.47215
1.45098
1.42993
1.40901
1.38826
1.36769
1.34732
1.32716
1.30724
1.28759
1.26823
1.24922
1.23063
1.21257
1.19523
1.17868
1.16299
0.0486662
0.095506
0.120164
0.137334
0.151292
0.163713
0.175486
0.187144
0.199016
0.211294
0.224083
0.237436
0.251378
0.265926
0.281095
0.2969
0.313352
0.330458
0.348217
0.366624
0.385665
0.405324
0.425579
0.446404
0.467774
0.489664
0.512048
0.534901
0.558201
0.581927
0.606061
0.630584
0.655483
0.680745
0.706357
0.732308
0.75859
0.785194
0.812111
0.839334
0.866855
0.894666
0.922758
0.951123
0.979752
1.00863
1.03776
1.06711
1.09668
1.12646
1.15642
1.18655
1.21683
1.24725
1.27777
1.30839
1.33909
1.36982
1.40058
1.43135
1.46208
1.49276
1.52337
1.55388
1.58425
1.61448
1.64452
1.67436
1.70397
1.73333
1.7624
1.79118
1.81958
1.84758
1.87516
1.90231
1.929
1.9552
1.98091
2.00609
2.03073
2.05481
2.07829
2.10117
2.12343
2.14503
2.16597
2.18624
2.2058
2.22465
2.24278
2.26016
2.27679
2.29266
2.30774
2.32204
2.33555
2.34824
2.36012
2.37118
2.38141
2.3908
2.39936
2.40707
2.41393
2.41994
2.4251
2.4294
2.43284
2.43542
2.43715
2.43801
2.43802
2.43718
2.43548
2.43294
2.42955
2.42532
2.42026
2.41438
2.40767
2.40015
2.39183
2.38273
2.37284
2.36218
2.35076
2.3386
2.32572
2.3121
2.29782
2.28287
2.26727
2.25105
2.23423
2.21683
2.19888
2.1804
2.16142
2.14196
2.12206
2.10175
2.08107
2.06006
2.03872
2.01708
1.99514
1.97292
1.95044
1.92773
1.90481
1.88171
1.85844
1.83504
1.81154
1.78794
1.76429
1.7406
1.7169
1.6932
1.66954
1.64594
1.62241
1.59898
1.57568
1.55252
1.52952
1.5067
1.48409
1.46172
1.43959
1.41775
1.39623
1.37508
1.35435
1.33414
1.3146
1.29593
1.27824
1.2617
0.0560554
0.10533
0.132079
0.150746
0.165855
0.17918
0.191669
0.2039
0.216247
0.228952
0.242164
0.255971
0.270423
0.28555
0.301368
0.317884
0.335104
0.353023
0.371636
0.390931
0.410892
0.431501
0.452737
0.474579
0.497004
0.51999
0.543516
0.567561
0.592108
0.617138
0.642637
0.668589
0.694983
0.721806
0.749048
0.7767
0.804752
0.833197
0.862026
0.89123
0.920802
0.950733
0.981014
1.01163
1.04258
1.07385
1.10542
1.13728
1.16941
1.2018
1.23443
1.26728
1.30032
1.33354
1.36692
1.40042
1.43402
1.46769
1.50141
1.53515
1.56888
1.60257
1.63618
1.6697
1.70308
1.7363
1.76933
1.80214
1.83469
1.86696
1.89893
1.93055
1.96175
1.9925
2.02279
2.05259
2.08189
2.11064
2.13884
2.16645
2.19345
2.21982
2.24554
2.27058
2.29492
2.31854
2.34142
2.36354
2.38489
2.40545
2.42519
2.44412
2.46221
2.47945
2.49583
2.51133
2.52595
2.53968
2.55251
2.56443
2.57544
2.58552
2.59468
2.60291
2.6102
2.61656
2.62197
2.62645
2.62998
2.63257
2.63422
2.63493
2.6347
2.63354
2.63144
2.62842
2.62447
2.61961
2.61384
2.60717
2.59961
2.59117
2.58184
2.57167
2.56065
2.54879
2.5361
2.52263
2.50838
2.49336
2.47762
2.46115
2.44399
2.42617
2.40769
2.3886
2.36891
2.34866
2.32786
2.30655
2.28476
2.26253
2.23989
2.21688
2.19351
2.16981
2.14579
2.12148
2.0969
2.07208
2.04705
2.02182
1.99644
1.97092
1.94529
1.91958
1.89381
1.86802
1.84222
1.81644
1.79071
1.76504
1.73947
1.71402
1.68871
1.66355
1.63859
1.61384
1.58932
1.56506
1.5411
1.51746
1.49419
1.47135
1.44901
1.42728
1.40631
1.3863
1.36736
1.34962
0.0622927
0.112469
0.14071
0.160541
0.176608
0.190738
0.203899
0.216693
0.229519
0.242644
0.256248
0.270446
0.285307
0.300873
0.317164
0.334191
0.351954
0.370449
0.389666
0.409595
0.43022
0.451525
0.473493
0.496106
0.519347
0.543198
0.567643
0.592667
0.618255
0.644394
0.671071
0.698275
0.725996
0.754224
0.782951
0.812166
0.841864
0.872034
0.90267
0.933762
0.965302
0.99728
1.02969
1.06251
1.09573
1.12934
1.16333
1.19767
1.23236
1.26736
1.30265
1.33822
1.37404
1.41008
1.44631
1.48271
1.51925
1.55588
1.59259
1.62933
1.66608
1.70279
1.73944
1.77598
1.81239
1.84863
1.88466
1.92044
1.95596
1.99116
2.02602
2.06048
2.09447
2.12797
2.16095
2.1934
2.22527
2.25656
2.28722
2.31723
2.34657
2.3752
2.40311
2.43028
2.45666
2.48225
2.50703
2.53096
2.55405
2.57626
2.59758
2.61799
2.63748
2.65605
2.67366
2.69032
2.70601
2.72072
2.73445
2.74718
2.75891
2.76963
2.77934
2.78804
2.79572
2.80237
2.808
2.81261
2.81619
2.81875
2.82028
2.8208
2.82029
2.81877
2.81625
2.81272
2.80819
2.80267
2.79617
2.78869
2.78026
2.77088
2.76053
2.74929
2.73714
2.7241
2.71018
2.69541
2.67982
2.66341
2.64622
2.62826
2.60956
2.59015
2.57005
2.5493
2.5279
2.50591
2.48334
2.46022
2.4366
2.41249
2.38795
2.363
2.33766
2.31198
2.28596
2.25964
2.23304
2.20619
2.17912
2.15186
2.12443
2.09688
2.06922
2.04148
2.01369
1.98588
1.95808
1.93031
1.90259
1.87496
1.84744
1.82006
1.79283
1.76578
1.73895
1.71235
1.68601
1.65997
1.63425
1.6089
1.58397
1.55952
1.53563
1.51243
1.49006
1.46869
1.44841
1.42932
0.0673381
0.117205
0.146412
0.167094
0.183923
0.198739
0.212513
0.225846
0.23914
0.252677
0.26665
0.28119
0.296384
0.312282
0.328915
0.346296
0.364432
0.383319
0.402951
0.42332
0.444415
0.466225
0.488736
0.511937
0.535816
0.560361
0.585561
0.611405
0.637884
0.664989
0.69271
0.72104
0.749972
0.779496
0.809607
0.840297
0.871559
0.903384
0.935765
0.968692
1.00216
1.03614
1.07065
1.10565
1.14114
1.17709
1.2135
1.25033
1.28758
1.3252
1.36319
1.4015
1.44012
1.47901
1.51813
1.55746
1.59695
1.63658
1.6763
1.71607
1.75586
1.79562
1.83532
1.87491
1.91436
1.95362
1.99266
2.03143
2.0699
2.10802
2.14577
2.18304
2.2198
2.25602
2.29168
2.32673
2.36116
2.39493
2.42801
2.46038
2.492
2.52285
2.55291
2.58213
2.61051
2.63801
2.66462
2.69031
2.71506
2.73886
2.76169
2.78353
2.80437
2.82419
2.84298
2.86073
2.87742
2.89306
2.90762
2.9211
2.93349
2.94479
2.955
2.96411
2.97212
2.97903
2.98483
2.98952
2.9931
2.99558
2.99696
2.99724
2.99642
2.99452
2.99152
2.98746
2.98232
2.97611
2.96885
2.96056
2.95125
2.94091
2.92958
2.91727
2.904
2.88978
2.87463
2.85859
2.84166
2.82387
2.80525
2.78582
2.7656
2.74463
2.72294
2.70054
2.67748
2.65378
2.62948
2.6046
2.57918
2.55325
2.52686
2.50003
2.47279
2.44519
2.41724
2.38898
2.36043
2.33162
2.3026
2.27338
2.24399
2.21448
2.18486
2.15518
2.12545
2.09571
2.06599
2.03631
2.0067
1.97719
1.9478
1.91856
1.8895
1.86065
1.83202
1.80366
1.77558
1.74783
1.72043
1.69345
1.66692
1.64092
1.61554
1.5909
1.56712
1.54438
1.52271
1.5022
0.0712479
0.11988
0.149609
0.170864
0.188261
0.203632
0.217934
0.231751
0.245481
0.259401
0.273711
0.288548
0.30401
0.320157
0.337029
0.354648
0.373026
0.392168
0.412073
0.432738
0.454159
0.476331
0.499247
0.522902
0.54729
0.572405
0.598243
0.624798
0.652065
0.68004
0.708717
0.738093
0.768162
0.798919
0.830358
0.862475
0.895261
0.928709
0.962812
0.997557
1.03294
1.06893
1.10554
1.14273
1.1805
1.21882
1.25767
1.29702
1.33685
1.37714
1.41784
1.45894
1.50038
1.54215
1.58419
1.62647
1.66895
1.71159
1.75433
1.79714
1.83998
1.88279
1.92553
1.96816
2.01063
2.0529
2.09492
2.13665
2.17804
2.21905
2.25963
2.29967
2.33914
2.37802
2.41627
2.45387
2.49077
2.52696
2.56238
2.59703
2.63085
2.66384
2.69594
2.72715
2.75743
2.78675
2.8151
2.84245
2.86879
2.89409
2.91833
2.94151
2.9636
2.98459
3.00447
3.02323
3.04086
3.05733
3.07265
3.0868
3.09979
3.11161
3.12224
3.1317
3.13998
3.14708
3.15299
3.15771
3.16124
3.1636
3.16477
3.16478
3.16361
3.16128
3.15779
3.15315
3.14738
3.14048
3.13247
3.12335
3.11315
3.10187
3.08954
3.07617
3.06178
3.04639
3.03003
3.01272
2.99447
2.97532
2.95529
2.93441
2.91271
2.89021
2.86696
2.84297
2.81827
2.79291
2.76692
2.74032
2.71316
2.68547
2.65729
2.62865
2.59959
2.57014
2.54033
2.5102
2.47978
2.4491
2.41819
2.38709
2.35583
2.32444
2.29296
2.26141
2.22983
2.19825
2.16669
2.13518
2.10376
2.07245
2.04128
2.01028
1.97947
1.94889
1.91855
1.8885
1.85876
1.82937
1.80038
1.77182
1.74376
1.71627
1.68944
1.66338
1.63822
1.61409
1.59102
1.56907
0.0740923
0.120826
0.150722
0.172314
0.190101
0.205892
0.220619
0.234845
0.248952
0.263208
0.277808
0.292894
0.308567
0.324896
0.34193
0.359701
0.378229
0.397527
0.417604
0.438465
0.460113
0.482551
0.50578
0.529802
0.554618
0.580229
0.606636
0.63384
0.661841
0.690639
0.720234
0.750624
0.781807
0.813781
0.846541
0.880083
0.9144
0.949485
0.985328
1.02192
1.05924
1.09728
1.13603
1.17545
1.21554
1.25626
1.2976
1.33951
1.38197
1.42495
1.46841
1.51232
1.55662
1.60128
1.64625
1.6915
1.73696
1.7826
1.82836
1.87419
1.92004
1.96586
2.01161
2.05722
2.10265
2.14786
2.19279
2.2374
2.28163
2.32545
2.36873
2.41142
2.4535
2.49492
2.53566
2.57568
2.61493
2.6534
2.69104
2.72783
2.76373
2.79871
2.83274
2.8658
2.89784
2.92886
2.95882
2.9877
3.01549
3.04216
3.0677
3.09209
3.11532
3.13737
3.15824
3.1779
3.19634
3.21356
3.22954
3.24427
3.25776
3.27
3.28099
3.29072
3.29919
3.30641
3.31236
3.31705
3.32048
3.32266
3.32358
3.32327
3.32171
3.31893
3.31492
3.3097
3.30328
3.29567
3.28689
3.27694
3.26585
3.25363
3.2403
3.22588
3.21039
3.19386
3.17629
3.15773
3.1382
3.11771
3.09631
3.07402
3.05087
3.02689
3.00212
2.97658
2.95031
2.92335
2.89573
2.86748
2.83864
2.80925
2.77936
2.74898
2.71817
2.68696
2.65538
2.62347
2.59127
2.5588
2.52611
2.49322
2.46018
2.42701
2.39375
2.36043
2.32709
2.29375
2.26045
2.22722
2.19408
2.16107
2.12821
2.09553
2.06306
2.03083
1.99888
1.96722
1.9359
1.90496
1.87443
1.84437
1.81484
1.78592
1.75768
1.73025
1.70372
1.67821
1.65374
1.63035
0.0759383
0.120342
0.150132
0.171872
0.189897
0.205979
0.221023
0.23557
0.24998
0.264511
0.27935
0.294635
0.31047
0.326931
0.344075
0.361941
0.380562
0.399959
0.420151
0.441153
0.462978
0.485637
0.509139
0.533495
0.558713
0.584802
0.611768
0.639618
0.668358
0.697994
0.728527
0.759961
0.792296
0.825531
0.859663
0.894688
0.930598
0.967386
1.00504
1.04355
1.08289
1.12305
1.164
1.20573
1.24821
1.2914
1.33528
1.3798
1.42494
1.47065
1.51689
1.56362
1.61079
1.65834
1.70623
1.75442
1.80283
1.85142
1.90013
1.9489
1.99768
2.04642
2.09506
2.14354
2.19182
2.23983
2.28753
2.33487
2.3818
2.42822
2.47404
2.51921
2.56371
2.6075
2.65053
2.69277
2.73419
2.77475
2.81441
2.85315
2.89093
2.92773
2.9635
2.99821
3.03183
3.06436
3.09575
3.12599
3.15506
3.18294
3.20961
3.23506
3.25927
3.28223
3.30393
3.32436
3.34351
3.36134
3.37785
3.39305
3.40693
3.41949
3.43073
3.44064
3.44922
3.45647
3.46239
3.46698
3.47025
3.47219
3.47283
3.47215
3.47018
3.46691
3.46236
3.45654
3.44945
3.44113
3.43157
3.42079
3.40882
3.39567
3.38135
3.3659
3.34933
3.33167
3.31293
3.29316
3.27238
3.2506
3.22788
3.20422
3.17968
3.15428
3.12805
3.10103
3.07325
3.04476
3.01558
2.98576
2.95533
2.92434
2.89281
2.8608
2.82833
2.79546
2.76221
2.72862
2.69474
2.66059
2.62622
2.59165
2.55693
2.52209
2.48717
2.45219
2.4172
2.38222
2.34728
2.31242
2.27767
2.24306
2.20861
2.17436
2.14034
2.10657
2.07308
2.03992
2.00711
1.9747
1.94272
1.91124
1.88031
1.85001
1.82042
1.79165
1.76379
1.73693
1.71107
1.68627
0.0768411
0.118684
0.148171
0.169916
0.188056
0.204318
0.219579
0.234359
0.248999
0.263743
0.278768
0.294211
0.310174
0.326739
0.343968
0.361912
0.38061
0.400096
0.4204
0.441547
0.463559
0.486457
0.510262
0.53499
0.560657
0.58728
0.614872
0.643446
0.673012
0.70358
0.735156
0.767745
0.80135
0.83597
0.871602
0.908241
0.945878
0.984501
1.0241
1.06465
1.10613
1.14853
1.19181
1.23595
1.2809
1.32664
1.37313
1.42032
1.46816
1.51663
1.56565
1.61519
1.66518
1.71558
1.76633
1.81737
1.86863
1.92005
1.97158
2.02315
2.0747
2.12618
2.17752
2.22867
2.27957
2.33017
2.38042
2.43025
2.47962
2.52837
2.57646
2.62384
2.67049
2.71636
2.76142
2.80561
2.84892
2.89129
2.93271
2.97313
3.01253
3.05088
3.08814
3.12426
3.15922
3.19301
3.2256
3.25697
3.2871
3.31597
3.34357
3.36988
3.39488
3.41856
3.44092
3.46193
3.48159
3.49988
3.5168
3.53233
3.54648
3.55925
3.57063
3.58061
3.58921
3.59641
3.60223
3.60665
3.60969
3.61136
3.61165
3.61057
3.60814
3.60436
3.59924
3.5928
3.58504
3.57599
3.56566
3.55406
3.54121
3.52714
3.51187
3.49541
3.47779
3.45904
3.43918
3.41825
3.39626
3.37326
3.34927
3.32432
3.29846
3.27171
3.2441
3.21569
3.18649
3.15656
3.12593
3.09463
3.06271
3.03021
2.99717
2.96363
2.92963
2.89521
2.86041
2.82527
2.78983
2.75412
2.71819
2.68208
2.64581
2.60942
2.57296
2.53645
2.49992
2.46343
2.42698
2.39062
2.35438
2.31829
2.28237
2.24667
2.21119
2.17599
2.14109
2.10652
2.07233
2.03854
2.00521
1.97239
1.94014
1.90854
1.87766
1.84761
1.81845
1.79029
1.76308
1.73691
0.0768356
0.116063
0.145114
0.166767
0.184932
0.201289
0.216688
0.231628
0.246437
0.261345
0.276523
0.292103
0.308189
0.324866
0.342201
0.360255
0.379076
0.39871
0.419196
0.440571
0.462869
0.48612
0.510354
0.535595
0.561867
0.589191
0.617588
0.647075
0.677668
0.709378
0.742214
0.776182
0.811284
0.847518
0.884879
0.923358
0.962944
1.00362
1.04536
1.08815
1.13196
1.17675
1.2225
1.26916
1.31669
1.36506
1.41421
1.46409
1.51465
1.56583
1.61759
1.66986
1.72258
1.77569
1.82914
1.88287
1.9368
1.99084
2.04494
2.09905
2.15309
2.20701
2.26075
2.31425
2.36746
2.42031
2.47276
2.52475
2.57612
2.62682
2.6768
2.72602
2.77444
2.82202
2.86872
2.9145
2.95932
3.00315
3.04596
3.08771
3.12837
3.16791
3.2063
3.2435
3.27949
3.31425
3.34775
3.37997
3.4109
3.44051
3.46879
3.49572
3.52129
3.54549
3.56829
3.5897
3.6097
3.62828
3.64543
3.66115
3.67543
3.68827
3.69967
3.70962
3.71813
3.72519
3.73081
3.735
3.73774
3.73906
3.73896
3.73743
3.73451
3.73019
3.72448
3.7174
3.70897
3.69919
3.68809
3.67568
3.66199
3.64703
3.63082
3.6134
3.59478
3.575
3.55408
3.53204
3.50893
3.48477
3.4596
3.43345
3.40635
3.37835
3.34947
3.31976
3.28926
3.258
3.22603
3.19338
3.16009
3.12622
3.09179
3.05685
3.02145
2.98563
2.94942
2.91287
2.87602
2.8389
2.80156
2.76403
2.72636
2.68858
2.65072
2.61282
2.57492
2.53704
2.49923
2.46151
2.42392
2.38649
2.34924
2.31221
2.27542
2.23891
2.20272
2.16686
2.13139
2.09635
2.06177
2.02771
1.99424
1.96142
1.92933
1.89805
1.86767
1.83825
1.80976
1.78228
0.075942
0.112632
0.141175
0.162685
0.180828
0.197231
0.212719
0.227779
0.242727
0.257785
0.273121
0.288866
0.305123
0.321983
0.339521
0.357803
0.37689
0.396837
0.417693
0.439506
0.462321
0.48618
0.511126
0.53719
0.564384
0.592741
0.622288
0.653047
0.685033
0.71826
0.752735
0.78846
0.825435
0.863651
0.903098
0.943761
0.985618
1.02864
1.07281
1.11809
1.16443
1.21181
1.26017
1.30947
1.35966
1.41069
1.46249
1.51502
1.56821
1.622
1.67633
1.73114
1.78636
1.84192
1.89777
1.95382
2.01003
2.0663
2.12258
2.1788
2.2349
2.29082
2.3465
2.40188
2.45691
2.51153
2.56571
2.61927
2.67214
2.72428
2.77565
2.8262
2.87589
2.92469
2.97255
3.01943
3.06531
3.11014
3.15389
3.19654
3.23804
3.27837
3.31751
3.35541
3.39206
3.42743
3.46149
3.49424
3.52565
3.55569
3.58437
3.61165
3.63752
3.66198
3.68501
3.70659
3.72672
3.7454
3.7626
3.77833
3.79257
3.80534
3.81662
3.82641
3.83472
3.84154
3.84688
3.85074
3.85312
3.85403
3.85347
3.85146
3.84801
3.84312
3.83681
3.82909
3.81998
3.80949
3.79764
3.78445
3.76994
3.75413
3.73705
3.71872
3.69916
3.67842
3.6565
3.63346
3.60931
3.58409
3.55784
3.53058
3.50237
3.47323
3.4432
3.41233
3.38065
3.3482
3.31503
3.28117
3.24667
3.21157
3.17591
3.13974
3.1031
3.06603
3.02858
2.99079
2.95269
2.91433
2.87575
2.83698
2.79807
2.75906
2.71997
2.68085
2.64173
2.60265
2.56363
2.52472
2.48593
2.44731
2.40888
2.37067
2.33272
2.29505
2.2577
2.2207
2.18409
2.14791
2.1122
2.07702
2.04242
2.00848
1.97526
1.94285
1.91132
1.88072
1.85102
1.82231
0.0741253
0.108242
0.136299
0.157702
0.175843
0.192301
0.207889
0.223088
0.238212
0.253483
0.269069
0.285103
0.301695
0.318942
0.336925
0.355722
0.375402
0.396029
0.417664
0.440363
0.464179
0.489159
0.515348
0.542782
0.571492
0.601506
0.632847
0.665533
0.699576
0.734982
0.77175
0.809875
0.849344
0.890139
0.932237
0.975609
1.02022
1.06604
1.11302
1.16111
1.21027
1.26044
1.31158
1.36361
1.41649
1.47016
1.52454
1.57957
1.6352
1.69136
1.74797
1.80497
1.8623
1.9199
1.97768
2.03559
2.09356
2.15151
2.2094
2.26715
2.32471
2.38202
2.43901
2.49565
2.55187
2.60763
2.66277
2.71721
2.77092
2.82384
2.87594
2.92718
2.97751
3.02691
3.07532
3.12272
3.16906
3.21433
3.25848
3.30149
3.34332
3.38395
3.42335
3.46149
3.49835
3.5339
3.56813
3.601
3.63251
3.66263
3.69135
3.71865
3.74452
3.76895
3.79191
3.81341
3.83343
3.85195
3.86899
3.88451
3.89853
3.91104
3.92204
3.93152
3.93948
3.94593
3.95086
3.95428
3.9562
3.95661
3.95554
3.95298
3.94894
3.94344
3.93649
3.92811
3.9183
3.90709
3.89449
3.88053
3.86522
3.84859
3.83067
3.81148
3.79104
3.76939
3.74655
3.72256
3.69746
3.67127
3.64403
3.61578
3.58655
3.55639
3.52533
3.49341
3.46068
3.42718
3.39294
3.35802
3.32244
3.28627
3.24953
3.21228
3.17456
3.13641
3.09787
3.05899
3.01982
2.98038
2.94072
2.90088
2.8609
2.82082
2.78067
2.7405
2.70033
2.66019
2.62013
2.58018
2.54035
2.5007
2.46124
2.42201
2.38303
2.34434
2.30597
2.26796
2.23033
2.19313
2.15641
2.12022
2.0846
2.04964
2.01539
1.98192
1.94931
1.91761
1.88678
1.85692
0.0717187
0.103853
0.131341
0.152609
0.170745
0.187274
0.203003
0.218413
0.233825
0.249468
0.265518
0.282117
0.299385
0.317427
0.336337
0.3562
0.377094
0.399091
0.422259
0.446657
0.47234
0.499356
0.527745
0.55754
0.588767
0.621441
0.655575
0.69117
0.728223
0.766721
0.806644
0.847969
0.890662
0.934687
0.980002
1.02656
1.07431
1.12321
1.17318
1.22419
1.27616
1.32903
1.38275
1.43724
1.49246
1.54832
1.60477
1.66174
1.71917
1.777
1.83515
1.89358
1.9522
2.01097
2.06981
2.12867
2.18749
2.24621
2.30476
2.3631
2.42116
2.47891
2.53629
2.59325
2.64973
2.70556
2.76071
2.81513
2.86878
2.92162
2.9736
3.0247
3.07487
3.12409
3.1723
3.21949
3.26561
3.31064
3.35454
3.39729
3.43886
3.47922
3.51834
3.55619
3.59277
3.62803
3.66196
3.69453
3.72574
3.75555
3.78396
3.81094
3.83649
3.86058
3.88321
3.90436
3.92402
3.94218
3.95884
3.97399
3.98761
3.99971
4.01029
4.01933
4.02685
4.03283
4.03729
4.04022
4.04163
4.04152
4.0399
4.03679
4.03218
4.02609
4.01853
4.00953
3.99908
3.98722
3.97395
3.95931
3.9433
3.92597
3.90732
3.88739
3.8662