/*--------------------------------*- C++ -*----------------------------------*\
| =========                 |                                                 |
| \\      /  F ield         | OpenFOAM: The Open Source CFD Toolbox           |
|  \\    /   O peration     | Version:  2412                                  |
|   \\  /    A nd           | Website:  www.openfoam.com                      |
|    \\/     M anipulation  |                                                 |
\*---------------------------------------------------------------------------*/
FoamFile
{
    version     2.0;
    format      ascii;
    arch        "LSB;label=32;scalar=64";
    class       volScalarField;
    location    "0.13";
    object      nut;
}
// * * * * * * * * * * * * * * * * * * * * * * * * * * * * * * * * * * * * * //

dimensions      [0 2 -1 0 0 0 0];

internalField   nonuniform List<scalar> 
12225
(
2.015e-05
2.24858e-05
2.4749e-05
2.63713e-05
2.75878e-05
2.8514e-05
2.9232e-05
2.97977e-05
3.0248e-05
3.06093e-05
3.0901e-05
3.11372e-05
3.13284e-05
3.14823e-05
3.16049e-05
3.16991e-05
3.1768e-05
3.18296e-05
0.000167792
0.000185428
0.000202597
0.000213786
0.000221145
0.000225984
0.000229001
0.000230719
0.000231514
0.000231643
0.000231292
0.000230594
0.00022965
0.000228531
0.000227296
0.000225971
0.00022471
0.000224078
0.000338328
0.000365993
0.000399361
0.000424406
0.000442778
0.000456137
0.000465647
0.000472247
0.000476656
0.000479408
0.000480903
0.000481445
0.000481262
0.000480527
0.000479375
0.000477903
0.000476305
0.000475486
0.000480631
0.00052177
0.000570121
0.000608389
0.0006378
0.000660207
0.000677096
0.000689689
0.00069895
0.000705622
0.000710276
0.000713356
0.000715202
0.000716082
0.000716205
0.000715737
0.000714916
0.000714459
0.000593569
0.000650966
0.000713489
0.000763784
0.000803281
0.00083412
0.000858086
0.000876627
0.000890892
0.000901781
0.000909994
0.000916085
0.000920486
0.000923543
0.000925528
0.00092667
0.000927225
0.000927713
0.000684416
0.000756655
0.000831949
0.000893052
0.000941624
0.000980102
0.00101056
0.00103465
0.00105369
0.0010687
0.00108048
0.00108966
0.00109677
0.00110221
0.0011063
0.00110933
0.00111154
0.00111334
0.000759755
0.000842838
0.00092829
0.000998647
0.00105522
0.00110054
0.00113687
0.00116606
0.00118953
0.00120842
0.00122362
0.00123584
0.00124564
0.00125349
0.00125975
0.00126474
0.00126872
0.00127199
0.000823623
0.000913363
0.00100525
0.00108261
0.00114578
0.00119702
0.00123858
0.00127237
0.00129992
0.00132244
0.00134087
0.00135598
0.0013684
0.00137862
0.00138705
0.00139402
0.00139977
0.00140454
0.000877001
0.000970914
0.0010653
0.00114672
0.00121456
0.00127046
0.0013164
0.00135422
0.00138543
0.00141127
0.00143273
0.0014506
0.00146554
0.00147807
0.00148863
0.00149755
0.00150506
0.00151132
0.000918256
0.00101593
0.00110995
0.00119241
0.00126253
0.00132141
0.00137056
0.00141158
0.00144589
0.00147465
0.00149885
0.00151928
0.00153662
0.00155138
0.00156401
0.00157484
0.00158409
0.00159182
0.000944751
0.00104624
0.0011388
0.00122006
0.00129016
0.00135005
0.00140092
0.00144404
0.00148062
0.00151173
0.00153826
0.00156097
0.0015805
0.00159736
0.00161197
0.00162466
0.00163561
0.00164478
0.00095393
0.00105647
0.00114714
0.00122621
0.0012948
0.00135414
0.00140529
0.00144932
0.00148722
0.0015199
0.00154814
0.00157263
0.00159395
0.00161257
0.0016289
0.00164323
0.00165569
0.00166617
0.000951547
0.0010519
0.0011407
0.00121792
0.00128483
0.00134291
0.00139339
0.00143727
0.00147548
0.00150883
0.001538
0.0015636
0.00158614
0.00160606
0.00162371
0.00163936
0.00165308
0.00166464
0.000937269
0.00102694
0.00110962
0.00118334
0.00124795
0.00130436
0.00135365
0.00139679
0.00143468
0.00146806
0.00149757
0.00152377
0.00154711
0.00156798
0.00158668
0.00160344
0.00161828
0.00163082
0.000914069
0.000982523
0.00105001
0.00111403
0.00117279
0.00122569
0.00127284
0.00131467
0.00135174
0.00138468
0.00141404
0.00144032
0.00146394
0.00148526
0.00150456
0.00152202
0.00153763
0.00155088
0.000888184
0.000929371
0.000972538
0.00101674
0.00106059
0.00110293
0.00114295
0.00118016
0.00121433
0.0012455
0.00127382
0.00129954
0.00132292
0.0013442
0.00136361
0.00138132
0.00139731
0.001411
0.000866167
0.000882908
0.000901464
0.000921836
0.000943725
0.000966738
0.000990446
0.0010144
0.00103818
0.00106141
0.00108383
0.00110525
0.00112556
0.00114468
0.00116259
0.00117931
0.00119477
0.00120854
0.000853648
0.000856465
0.000860485
0.000865726
0.00087214
0.000879661
0.00088822
0.000897728
0.00090807
0.000919117
0.000930731
0.00094277
0.000955097
0.000967591
0.000980127
0.000992588
0.00100485
0.0010167
0.000856836
0.000863037
0.000870429
0.000879019
0.000888693
0.000899297
0.000910663
0.000922608
0.000934936
0.00094746
0.000960016
0.000972463
0.000984688
0.000996609
0.00100817
0.00101932
0.00103
0.00104
0.000879012
0.000910087
0.000942996
0.000977087
0.00101136
0.00104491
0.00107704
0.00110727
0.00113531
0.00116105
0.00118452
0.00120582
0.00122511
0.00124256
0.00125835
0.00127263
0.00128553
0.00129713
0.000912425
0.000978626
0.00104328
0.00110414
0.00115967
0.00120943
0.00125355
0.00129247
0.00132672
0.00135685
0.00138338
0.00140679
0.00142747
0.00144579
0.00146204
0.00147648
0.00148932
0.00150087
0.00094465
0.00103936
0.00112414
0.00119815
0.00126208
0.00131724
0.0013649
0.00140607
0.00144168
0.00147251
0.00149925
0.00152247
0.00154267
0.00156028
0.00157565
0.00158908
0.00160083
0.00161117
0.000952969
0.00105495
0.00114494
0.00122286
0.00128968
0.00134679
0.00139546
0.00143683
0.00147198
0.00150187
0.00152733
0.00154905
0.0015676
0.00158347
0.00159707
0.00160874
0.00161873
0.0016273
0.000919763
0.00101577
0.00110711
0.00118655
0.00125365
0.00130982
0.00135662
0.00139555
0.00142799
0.00145506
0.00147771
0.00149667
0.00151258
0.00152593
0.00153714
0.00154654
0.00155442
0.00156095
0.000847921
0.000936213
0.00102591
0.00110193
0.00116439
0.00121544
0.00125709
0.00129112
0.00131899
0.00134186
0.00136064
0.00137608
0.00138877
0.00139919
0.00140772
0.00141468
0.00142032
0.0014248
0.000748242
0.000825345
0.000905837
0.000972006
0.00102523
0.00106796
0.00110226
0.00112982
0.00115199
0.00116982
0.00118415
0.00119563
0.00120479
0.00121206
0.00121778
0.00122223
0.00122561
0.00122806
0.000620839
0.000679398
0.000743805
0.000795903
0.000837073
0.000869524
0.000895048
0.000915074
0.000930741
0.000942943
0.00095238
0.000959604
0.000965051
0.000969068
0.000971931
0.00097386
0.000975031
0.000975559
0.000453206
0.00049108
0.000536514
0.000572229
0.000599361
0.000619978
0.000635561
0.000647222
0.000655841
0.000662101
0.000666522
0.000669503
0.000671358
0.000672328
0.000672606
0.00067234
0.00067165
0.000670633
0.00023657
0.000259231
0.000284033
0.000301437
0.000313163
0.000321244
0.000326757
0.000330376
0.000332604
0.000333806
0.000334245
0.000334114
0.00033356
0.000332691
0.000331591
0.000330324
0.00032894
0.000327502
2.7242e-05
3.0171e-05
3.32398e-05
3.54419e-05
3.70549e-05
3.82623e-05
3.91813e-05
3.9894e-05
4.04549e-05
4.09007e-05
4.12583e-05
4.1547e-05
4.17816e-05
4.1973e-05
4.21298e-05
4.22587e-05
4.23645e-05
4.2452e-05
5.72388e-06
1.54014e-05
1.73048e-05
1.85911e-05
1.9483e-05
2.02546e-05
2.10775e-05
2.18909e-05
2.27055e-05
2.3557e-05
2.45252e-05
2.57239e-05
2.69939e-05
2.83017e-05
2.96285e-05
3.0969e-05
3.23208e-05
3.3681e-05
3.50459e-05
3.64111e-05
3.77728e-05
3.91273e-05
4.0472e-05
4.18055e-05
4.31274e-05
4.44387e-05
4.57421e-05
4.7042e-05
4.83447e-05
4.9632e-05
5.08993e-05
5.21463e-05
5.3373e-05
5.45796e-05
5.57663e-05
5.69336e-05
5.80818e-05
5.92115e-05
6.0323e-05
6.14168e-05
6.24933e-05
6.35528e-05
6.45958e-05
6.56226e-05
6.66333e-05
6.76282e-05
6.86074e-05
6.95712e-05
7.05194e-05
7.14523e-05
7.23698e-05
7.32718e-05
7.41583e-05
7.50293e-05
7.58846e-05
7.67242e-05
7.75478e-05
7.83554e-05
7.91468e-05
7.99218e-05
8.06803e-05
8.14222e-05
8.21472e-05
8.28552e-05
8.3546e-05
8.42195e-05
8.48757e-05
8.55143e-05
8.61354e-05
8.67392e-05
8.73259e-05
8.78964e-05
8.84522e-05
8.89962e-05
8.95278e-05
9.00391e-05
9.05307e-05
9.10032e-05
9.14569e-05
9.18918e-05
9.23079e-05
9.27051e-05
9.30833e-05
9.34425e-05
9.37827e-05
9.41038e-05
9.44057e-05
9.46884e-05
9.49519e-05
9.51961e-05
9.54211e-05
9.56269e-05
9.58134e-05
9.59807e-05
9.61289e-05
9.62578e-05
9.63677e-05
9.64584e-05
9.65301e-05
9.65827e-05
9.66164e-05
9.66313e-05
9.66272e-05
9.66044e-05
9.65629e-05
9.65028e-05
9.64241e-05
9.63269e-05
9.62113e-05
9.60774e-05
9.59253e-05
9.5755e-05
9.55668e-05
9.53606e-05
9.51366e-05
9.48949e-05
9.46357e-05
9.43591e-05
9.40652e-05
9.37542e-05
9.34262e-05
9.30815e-05
9.27202e-05
9.23426e-05
9.19487e-05
9.15389e-05
9.11133e-05
9.06723e-05
9.0216e-05
8.97448e-05
8.92589e-05
8.87586e-05
8.82442e-05
8.7716e-05
8.71744e-05
8.66199e-05
8.60526e-05
8.54728e-05
8.48819e-05
8.42786e-05
8.36669e-05
8.30509e-05
8.24704e-05
8.20461e-05
8.16502e-05
8.12487e-05
8.0839e-05
8.04208e-05
7.99945e-05
7.95603e-05
7.91186e-05
7.86697e-05
7.8214e-05
7.77519e-05
7.72838e-05
7.68101e-05
7.63311e-05
7.58474e-05
7.53593e-05
7.48672e-05
7.43717e-05
7.38731e-05
7.33719e-05
7.28684e-05
7.23631e-05
7.18564e-05
7.13486e-05
7.084e-05
7.03307e-05
6.98208e-05
6.93101e-05
6.8798e-05
6.82833e-05
6.7764e-05
6.7236e-05
6.66914e-05
6.61126e-05
6.54528e-05
6.46564e-05
6.36106e-05
8.22796e-06
3.83258e-05
7.4487e-05
0.000101749
0.000120414
0.000132015
0.000138493
0.000143038
0.000147173
0.00015136
0.000155577
0.000159737
0.000163928
0.000168228
0.000172716
0.00017747
0.000182555
0.000188022
0.000193902
0.000200211
0.000206951
0.000214113
0.000221676
0.000229613
0.000237887
0.000246461
0.000255293
0.000264346
0.00027359
0.000283014
0.000292598
0.000302317
0.000312151
0.000322078
0.000332083
0.000342148
0.000352261
0.000362412
0.000372592
0.000382792
0.000393009
0.000403236
0.000413471
0.00042371
0.000433949
0.000444187
0.000454422
0.000464649
0.000474867
0.000485072
0.000495262
0.000505432
0.000515579
0.000525698
0.000535785
0.000545836
0.000555844
0.000565806
0.000575715
0.000585567
0.000595356
0.000605076
0.000614722
0.000624289
0.000633771
0.000643161
0.000652454
0.000661642
0.000670713
0.000679653
0.000688442
0.000697046
0.000705417
0.000713482
0.000720927
0.000728159
0.000735244
0.000742191
0.000749001
0.000755671
0.0007622
0.000768586
0.000774825
0.000780916
0.000786856
0.000792642
0.000798274
0.000803748
0.000809064
0.000814218
0.000819211
0.000824041
0.000828706
0.000833204
0.000837536
0.000841699
0.000845693
0.000849518
0.000853172
0.000856654
0.000859964
0.000863102
0.000866067
0.000868858
0.000871475
0.000873918
0.000876185
0.000878278
0.000880195
0.000881936
0.000883501
0.000884889
0.000886102
0.000887138
0.000887997
0.00088868
0.000889186
0.000889516
0.00088967
0.000889648
0.000889451
0.000889078
0.000888531
0.000887811
0.000886918
0.000885853
0.000884617
0.000883211
0.000881637
0.000879897
0.000877991
0.000875922
0.000873691
0.000871302
0.000868755
0.000866054
0.000863203
0.000860196
0.000857052
0.000853763
0.000850279
0.00084649
0.000841918
0.000835845
0.000829152
0.0008222
0.00081509
0.000807858
0.000800521
0.000793091
0.000785575
0.000777982
0.000770318
0.000762591
0.000754805
0.000746969
0.000739088
0.000731168
0.000723215
0.000715236
0.000707236
0.000699221
0.000691197
0.00068317
0.000675145
0.000667127
0.00065912
0.00065113
0.000643159
0.00063521
0.000627285
0.000619381
0.000611496
0.000603619
0.00059573
0.000587791
0.000579699
0.000571151
0.000557873
0.00053473
9.91011e-06
6.29676e-05
0.00012286
0.000167401
0.00019749
0.000217061
0.000230062
0.000239555
0.000247563
0.000255213
0.000263027
0.00027123
0.000279944
0.000289257
0.000299253
0.000310009
0.000321595
0.000334061
0.000347433
0.000361713
0.000376882
0.000392899
0.000409707
0.00042724
0.000445422
0.000464175
0.000483424
0.000503097
0.000523132
0.000543473
0.00056407
0.000584875
0.000605847
0.000626952
0.000648158
0.000669441
0.000690781
0.000712163
0.000733572
0.000755
0.000776437
0.000797878
0.000819317
0.000840748
0.000862167
0.00088357
0.00090495
0.000926304
0.000947624
0.000968903
0.000990136
0.00101131
0.00103242
0.00105346
0.00107442
0.00109528
0.00111603
0.00113667
0.00115718
0.00117755
0.00119776
0.0012178
0.00123766
0.00125733
0.00127679
0.00129602
0.00131501
0.00133373
0.00135217
0.00137029
0.00138806
0.00140546
0.00142244
0.00143876
0.00145457
0.00147002
0.00148516
0.0015
0.00151453
0.00152877
0.0015427
0.00155631
0.00156961
0.00158259
0.00159523
0.00160755
0.00161953
0.00163116
0.00164245
0.00165339
0.00166398
0.00167421
0.00168409
0.0016936
0.00170275
0.00171153
0.00171994
0.00172799
0.00173566
0.00174296
0.00174988
0.00175643
0.0017626
0.00176839
0.0017738
0.00177884
0.00178349
0.00178776
0.00179164
0.00179515
0.00179827
0.001801
0.00180336
0.00180533
0.00180691
0.00180811
0.00180893
0.00180936
0.00180942
0.00180909
0.00180838
0.00180729
0.00180582
0.00180398
0.00180176
0.00179917
0.00179621
0.00179289
0.0017892
0.00178516
0.00178076
0.00177601
0.00177091
0.00176548
0.00175971
0.00175362
0.00174721
0.00174048
0.00173345
0.0017261
0.00171833
0.00170996
0.00170059
0.00168974
0.00167797
0.00166563
0.00165292
0.00163991
0.00162663
0.00161313
0.00159941
0.0015855
0.0015714
0.00155714
0.00154273
0.00152817
0.00151349
0.00149869
0.00148379
0.0014688
0.00145373
0.00143859
0.0014234
0.00140816
0.00139289
0.00137759
0.00136229
0.00134698
0.00133167
0.00131637
0.00130108
0.0012858
0.00127051
0.00125519
0.00123979
0.00122418
0.00120812
0.0011908
0.00116811
0.00113117
1.11786e-05
8.28894e-05
0.000160516
0.000217721
0.000257574
0.00028512
0.000304682
0.000319614
0.000332298
0.000344265
0.000356404
0.000369193
0.000382885
0.000397625
0.000413503
0.000430583
0.000448903
0.000468477
0.000489294
0.000511316
0.000534482
0.000558714
0.00058392
0.000610003
0.000636861
0.000664394
0.000692508
0.000721117
0.000750142
0.000779513
0.000809171
0.000839061
0.000869138
0.000899363
0.000929703
0.000960134
0.000990632
0.00102118
0.00105176
0.00108237
0.001113
0.00114363
0.00117425
0.00120487
0.00123546
0.00126603
0.00129657
0.00132706
0.0013575
0.00138787
0.00141816
0.00144836
0.00147846
0.00150843
0.00153828
0.00156797
0.00159749
0.00162683
0.00165596
0.00168487
0.00171354
0.00174195
0.00177008
0.00179791
0.00182542
0.00185258
0.00187937
0.00190577
0.00193175
0.00195729
0.00198235
0.0020069
0.00203091
0.00205425
0.00207703
0.00209935
0.00212121
0.00214265
0.00216366
0.00218423
0.00220436
0.00222405
0.00224328
0.00226204
0.00228034
0.00229816
0.0023155
0.00233235
0.00234871
0.00236457
0.00237992
0.00239477
0.0024091
0.00242291
0.00243621
0.00244898
0.00246122
0.00247293
0.0024841
0.00249474
0.00250485
0.00251441
0.00252343
0.00253191
0.00253984
0.00254722
0.00255406
0.00256034
0.00256608
0.00257126
0.00257589
0.00257997
0.00258349
0.00258646
0.00258887
0.00259073
0.00259203
0.00259278
0.00259298
0.00259263
0.00259172
0.00259026
0.00258826
0.00258572
0.00258263
0.002579
0.00257484
0.00257015
0.00256493
0.00255919
0.00255294
0.00254618
0.00253892
0.00253117
0.00252294
0.00251424
0.00250508
0.00249545
0.00248536
0.00247478
0.00246362
0.00245174
0.00243888
0.00242479
0.00240972
0.00239393
0.00237759
0.00236078
0.00234357
0.002326
0.00230809
0.00228987
0.00227136
0.00225258
0.00223355
0.00221428
0.0021948
0.00217511
0.00215525
0.00213522
0.00211504
0.00209473
0.0020743
0.00205377
0.00203316
0.00201247
0.00199174
0.00197096
0.00195015
0.00192931
0.00190846
0.00188758
0.00186667
0.00184569
0.00182457
0.00180315
0.00178109
0.00175744
0.00172904
0.00168855
1.20882e-05
9.89032e-05
0.000190154
0.000258853
0.000308303
0.000343854
0.000370142
0.000390808
0.000408529
0.000425137
0.000441801
0.000459214
0.000477765
0.000497665
0.00051902
0.000541875
0.000566237
0.000592079
0.000619347
0.000647966
0.000677845
0.000708878
0.000740955
0.000773962
0.000807788
0.000842326
0.000877478
0.000913154
0.000949272
0.000985761
0.00102256
0.00105961
0.00109686
0.00113429
0.00117184
0.0012095
0.00124725
0.00128505
0.0013229
0.00136079
0.00139868
0.00143659
0.00147448
0.00151236
0.00155021
0.00158801
0.00162576
0.00166344
0.00170105
0.00173855
0.00177594
0.0018132
0.00185031
0.00188725
0.00192401
0.00196056
0.00199688
0.00203295
0.00206876
0.00210427
0.00213946
0.00217431
0.0022088
0.00224291
0.0022766
0.00230986
0.00234266
0.00237498
0.00240679
0.00243807
0.0024688
0.00249895
0.00252844
0.00255727
0.0025855
0.00261317
0.00264031
0.00266692
0.00269301
0.00271858
0.0027436
0.00276808
0.00279201
0.00281537
0.00283817
0.00286039
0.00288202
0.00290306
0.0029235
0.00294333
0.00296255
0.00298116
0.00299914
0.00301649
0.0030332
0.00304928
0.00306471
0.0030795
0.00309363
0.00310712
0.00311994
0.0031321
0.0031436
0.00315444
0.00316461
0.0031741
0.00318293
0.00319108
0.00319855
0.00320534
0.00321146
0.00321689
0.00322165
0.00322572
0.0032291
0.0032318
0.00323382
0.00323516
0.00323581
0.00323578
0.00323507
0.00323367
0.00323161
0.00322886
0.00322545
0.00322137
0.00321662
0.00321121
0.00320516
0.00319845
0.00319111
0.00318313
0.00317454
0.00316533
0.00315553
0.00314513
0.00313414
0.00312257
0.00311041
0.00309763
0.00308419
0.00306996
0.00305481
0.0030386
0.00302145
0.00300351
0.00298489
0.0029657
0.00294599
0.0029258
0.00290517
0.00288414
0.00286271
0.00284092
0.0028188
0.00279635
0.0027736
0.00275057
0.00272729
0.00270376
0.00268002
0.00265608
0.00263196
0.00260769
0.00258327
0.00255873
0.00253408
0.00250935
0.00248455
0.00245969
0.00243477
0.00240981
0.00238478
0.00235966
0.00233438
0.00230878
0.00228249
0.00225465
0.00222291
0.00218269
1.30573e-05
0.00010845
0.000211934
0.000291801
0.000350822
0.000394531
0.000427804
0.000454507
0.000477546
0.000498992
0.000520234
0.000542147
0.000565252
0.000589831
0.00061602
0.000643864
0.000673347
0.000704418
0.000736997
0.000770985
0.000806272
0.000842742
0.000880275
0.000918754
0.000958067
0.000998107
0.00103878
0.00107999
0.00112166
0.00116371
0.0012061
0.00124876
0.00129164
0.00133471
0.00137792
0.00142125
0.00146467
0.00150816
0.0015517
0.00159527
0.00163885
0.00168243
0.00172599
0.00176952
0.001813
0.00185641
0.00189975
0.00194299
0.00198611
0.0020291
0.00207195
0.00211462
0.0021571
0.00219937
0.00224141
0.00228319
0.00232469
0.00236588
0.00240675
0.00244727
0.00248741
0.00252715
0.00256646
0.00260533
0.00264372
0.00268162
0.00271899
0.00275582
0.00279209
0.00282776
0.00286284
0.00289729
0.00293101
0.00296406
0.00299648
0.00302829
0.00305951
0.00309014
0.00312018
0.00314963
0.00317849
0.00320673
0.00323435
0.00326135
0.00328771
0.00331342
0.00333848
0.00336287
0.0033866
0.00340964
0.003432
0.00345366
0.00347463
0.00349489
0.00351443
0.00353326
0.00355136
0.00356874
0.00358538
0.00360128
0.00361644
0.00363086
0.00364453
0.00365744
0.0036696
0.003681
0.00369164
0.00370151
0.00371061
0.00371894
0.0037265
0.00373329
0.0037393
0.00374454
0.00374899
0.00375267
0.00375557
0.00375768
0.00375902
0.00375958
0.00375935
0.00375835
0.00375658
0.00375403
0.00375071
0.00374663
0.00374179
0.00373619
0.00372983
0.00372275
0.00371491
0.00370635
0.00369708
0.0036871
0.00367642
0.00366505
0.003653
0.00364027
0.00362686
0.00361275
0.0035979
0.00358226
0.00356572
0.00354823
0.00352984
0.00351063
0.00349068
0.00347007
0.00344886
0.00342709
0.00340479
0.003382
0.00335874
0.00333504
0.00331092
0.00328641
0.00326153
0.0032363
0.00321075
0.00318489
0.00315875
0.00313235
0.00310571
0.00307885
0.0030518
0.00302457
0.0029972
0.00296969
0.00294207
0.00291435
0.00288654
0.00285867
0.00283071
0.00280265
0.00277444
0.00274592
0.00271679
0.00268632
0.00265289
0.00261429
1.40149e-05
0.000113315
0.000226894
0.000317138
0.000385452
0.000437299
0.000477679
0.000510604
0.000539139
0.000565524
0.000591317
0.000617548
0.000644852
0.000673594
0.000703954
0.000735996
0.000769707
0.000805029
0.000841872
0.000880132
0.00091969
0.000960429
0.00100223
0.00104497
0.00108855
0.00113286
0.00117781
0.0012233
0.00126927
0.00131564
0.00136235
0.00140935
0.00145658
0.001504
0.00155158
0.00159929
0.00164709
0.00169495
0.00174286
0.0017908
0.00183874
0.00188666
0.00193454
0.00198238
0.00203014
0.00207782
0.00212539
0.00217284
0.00222015
0.00226729
0.00231425
0.002361
0.00240753
0.0024538
0.00249981
0.00254552
0.00259091
0.00263596
0.00268064
0.00272493
0.00276879
0.00281222
0.00285518
0.00289764
0.0029396
0.00298101
0.00302186
0.00306213
0.0031018
0.00314085
0.00317925
0.003217
0.003254
0.00329032
0.00332598
0.00336101
0.00339542
0.0034292
0.00346236
0.00349488
0.00352677
0.00355801
0.00358859
0.0036185
0.00364773
0.00367627
0.00370411
0.00373124
0.00375766
0.00378335
0.0038083
0.00383251
0.00385597
0.00387867
0.0039006
0.00392176
0.00394214
0.00396174
0.00398055
0.00399856
0.00401576
0.00403216
0.00404775
0.00406253
0.00407649
0.00408962
0.00410193
0.0041134
0.00412404
0.00413385
0.00414281
0.00415093
0.00415821
0.00416464
0.00417022
0.00417495
0.00417883
0.00418186
0.00418404
0.00418536
0.00418583
0.00418546
0.00418423
0.00418216
0.00417924
0.00417548
0.0041709
0.00416547
0.00415921
0.00415215
0.00414427
0.00413558
0.00412611
0.00411586
0.00410484
0.00409305
0.00408051
0.00406722
0.00405318
0.00403839
0.00402281
0.00400641
0.00398915
0.00397099
0.00395196
0.00393209
0.00391146
0.00389012
0.00386811
0.00384547
0.00382225
0.00379846
0.00377415
0.00374933
0.00372403
0.00369827
0.00367208
0.00364549
0.00361851
0.00359117
0.00356349
0.0035355
0.00350721
0.00347866
0.00344986
0.00342084
0.00339163
0.00336223
0.00333269
0.00330301
0.00327322
0.00324334
0.00321336
0.00318329
0.00315308
0.00312263
0.00309168
0.00305967
0.0030255
0.00298805
1.47754e-05
0.000115504
0.0002366
0.000335788
0.000412677
0.000472335
0.000519709
0.000558851
0.000592906
0.000624218
0.000654466
0.000684795
0.000715948
0.000748368
0.000782296
0.00081783
0.000854981
0.000893702
0.000933911
0.000975505
0.00101837
0.0010624
0.00110746
0.00115346
0.00120029
0.00124784
0.00129602
0.00134476
0.00139398
0.0014436
0.00149356
0.00154382
0.00159431
0.001645
0.00169585
0.00174682
0.00179788
0.00184901
0.00190016
0.00195134
0.0020025
0.00205363
0.00210471
0.00215573
0.00220665
0.00225747
0.00230816
0.0023587
0.00240908
0.00245928
0.00250926
0.00255902
0.00260854
0.00265777
0.00270672
0.00275535
0.00280363
0.00285155
0.00289907
0.00294618
0.00299285
0.00303905
0.00308476
0.00312996
0.00317462
0.00321872
0.00326225
0.00330517
0.00334746
0.00338912
0.00343013
0.00347042
0.00351
0.0035489
0.00358714
0.00362473
0.00366169
0.00369801
0.00373368
0.00376871
0.00380307
0.00383677
0.00386978
0.0039021
0.00393372
0.00396462
0.0039948
0.00402424
0.00405293
0.00408087
0.00410803
0.00413443
0.00416003
0.00418485
0.00420886
0.00423206
0.00425444
0.004276
0.00429673
0.00431661
0.00433566
0.00435385
0.00437119
0.00438767
0.00440328
0.00441803
0.0044319
0.00444488
0.00445699
0.00446821
0.00447853
0.00448797
0.00449652
0.00450416
0.00451089
0.00451673
0.00452166
0.00452569
0.00452881
0.00453102
0.00453232
0.00453272
0.00453223
0.00453082
0.0045285
0.00452529
0.00452119
0.00451619
0.00451032
0.00450357
0.00449596
0.00448749
0.00447818
0.00446803
0.00445705
0.00444525
0.00443264
0.00441923
0.00440501
0.00439
0.00437417
0.00435751
0.00434
0.00432162
0.00430237
0.0042823
0.00426145
0.00423984
0.00421753
0.00419454
0.00417091
0.00414668
0.00412186
0.00409649
0.00407059
0.00404419
0.0040173
0.00398996
0.00396218
0.00393399
0.00390542
0.00387648
0.00384721
0.00381762
0.00378774
0.0037576
0.00372722
0.00369662
0.00366583
0.00363489
0.0036038
0.0035726
0.00354131
0.00350992
0.00347843
0.00344677
0.00341473
0.00338192
0.00334758
0.00331111
1.53634e-05
0.000115728
0.000242002
0.000348557
0.000433064
0.000499969
0.000554009
0.000599176
0.000638619
0.00067473
0.00070926
0.000743441
0.000778102
0.000813764
0.00085073
0.000889148
0.000929065
0.000970458
0.00101326
0.0010574
0.00110275
0.00114922
0.0011967
0.00124509
0.00129428
0.00134418
0.0013947
0.00144577
0.00149731
0.00154924
0.00160152
0.00165408
0.00170688
0.00175987
0.00181301
0.00186627
0.00191961
0.001973
0.00202642
0.00207984
0.00213325
0.00218661
0.00223992
0.00229314
0.00234626
0.00239927
0.00245214
0.00250486
0.00255741
0.00260976
0.0026619
0.0027138
0.00276546
0.00281683
0.00286791
0.00291866
0.00296907
0.00301911
0.00306875
0.00311798
0.00316675
0.00321506
0.00326288
0.00331018
0.00335693
0.00340312
0.00344873
0.00349373
0.0035381
0.00358183
0.0036249
0.00366725
0.00370891
0.00374991
0.00379026
0.00382998
0.00386906
0.0039075
0.00394529
0.00398243
0.0040189
0.0040547
0.0040898
0.0041242
0.00415788
0.00419084
0.00422305
0.00425451
0.0042852
0.00431512
0.00434424
0.00437257
0.0044001
0.0044268
0.00445268
0.00447773
0.00450193
0.00452527
0.00454775
0.00456936
0.0045901
0.00460995
0.00462891
0.00464698
0.00466416
0.00468043
0.00469579
0.00471023
0.00472374
0.00473633
0.00474799
0.00475873
0.00476854
0.0047774
0.00478531
0.00479228
0.0047983
0.00480339
0.00480753
0.00481071
0.00481293
0.00481421
0.00481454
0.00481392
0.00481236
0.00480985
0.00480642
0.00480205
0.00479676
0.00479056
0.00478344
0.00477543
0.00476652
0.00475674
0.00474608
0.00473456
0.00472219
0.00470898
0.00469493
0.00468004
0.00466432
0.00464775
0.00463032
0.00461204
0.00459291
0.00457295
0.00455219
0.00453067
0.0045084
0.00448544
0.00446179
0.0044375
0.00441259
0.00438709
0.00436101
0.00433439
0.00430725
0.00427961
0.0042515
0.00422294
0.00419395
0.00416455
0.00413478
0.00410466
0.0040742
0.00404345
0.00401241
0.00398113
0.00394962
0.00391793
0.00388607
0.00385409
0.003822
0.00378984
0.00375761
0.00372526
0.00369266
0.00365954
0.00362536
0.00358978
1.58042e-05
0.000114461
0.000243847
0.000356179
0.000447226
0.000520653
0.000580865
0.000631708
0.000676272
0.000716947
0.000755517
0.000793272
0.000831105
0.000869607
0.000909143
0.000949915
0.000992012
0.00103545
0.00108018
0.00112615
0.00117327
0.00122144
0.00127057
0.00132056
0.00137132
0.00142276
0.0014748
0.00152736
0.00158036
0.00163375
0.00168747
0.00174146
0.00179567
0.00185007
0.0019046
0.00195925
0.00201397
0.00206874
0.00212353
0.00217832
0.00223309
0.00228783
0.0023425
0.0023971
0.0024516
0.002506
0.00256026
0.00261439
0.00266835
0.00272214
0.00277573
0.0028291
0.00288223
0.00293511
0.0029877
0.00304
0.00309196
0.00314357
0.0031948
0.00324563
0.00329603
0.00334597
0.00339543
0.00344438
0.0034928
0.00354067
0.00358795
0.00363464
0.00368071
0.00372614
0.0037709
0.00381499
0.00385842
0.00390122
0.0039434
0.00398496
0.00402589
0.00406619
0.00410585
0.00414486
0.00418321
0.00422087
0.00425785
0.00429411
0.00432966
0.00436447
0.00439853
0.00443182
0.00446434
0.00449606
0.00452699
0.00455711
0.0045864
0.00461485
0.00464247
0.00466923
0.00469512
0.00472013
0.00474426
0.00476749
0.00478983
0.00481125
0.00483176
0.00485136
0.00487003
0.00488777
0.00490457
0.00492041
0.0049353
0.00494924
0.00496222
0.00497425
0.00498532
0.00499541
0.00500451
0.00501263
0.00501978
0.00502595
0.00503114
0.00503534
0.00503856
0.00504079
0.00504205
0.00504232
0.00504162
0.00503995
0.00503731
0.00503371
0.00502915
0.00502365
0.0050172
0.00500982
0.00500151
0.00499229
0.00498217
0.00497115
0.00495925
0.00494647
0.00493283
0.00491832
0.00490296
0.00488674
0.00486966
0.00485173
0.00483295
0.00481334
0.00479293
0.00477173
0.00474978
0.0047271
0.00470372
0.00467966
0.00465496
0.00462963
0.0046037
0.00457719
0.00455013
0.00452253
0.00449444
0.00446585
0.00443681
0.00440733
0.00437743
0.00434715
0.0043165
0.00428552
0.00425423
0.00422265
0.00419083
0.00415879
0.00412657
0.0040942
0.00406173
0.00402919
0.00399661
0.00396397
0.00393118
0.00389806
0.00386423
0.00382948
1.61176e-05
0.000112078
0.000242772
0.000359341
0.000455783
0.0005349
0.000600672
0.000656722
0.00070603
0.000750943
0.000793245
0.000834253
0.000874911
0.000915864
0.000957533
0.00100017
0.00104392
0.00108882
0.00113487
0.00118203
0.00123023
0.0012794
0.00132946
0.0013803
0.00143186
0.00148406
0.0015368
0.00159003
0.00164368
0.00169768
0.00175199
0.00180655
0.00186132
0.00191626
0.00197134
0.00202652
0.00208178
0.00213709
0.00219244
0.0022478
0.00230316
0.00235849
0.0024138
0.00246905
0.00252424
0.00257935
0.00263438
0.00268929
0.00274409
0.00279875
0.00285325
0.00290757
0.0029617
0.00301561
0.00306929
0.0031227
0.00317582
0.00322863
0.00328109
0.00333318
0.00338487
0.00343614
0.00348695
0.00353727
0.00358709
0.00363636
0.00368508
0.0037332
0.00378072
0.00382762
0.00387387
0.00391951
0.00396454
0.00400897
0.00405281
0.00409605
0.00413868
0.00418069
0.00422207
0.00426282
0.0043029
0.00434231
0.00438103
0.00441904
0.00445633
0.00449288
0.00452867
0.00456369
0.00459793
0.00463136
0.00466399
0.00469579
0.00472676
0.00475688
0.00478614
0.00481454
0.00484205
0.00486867
0.00489438
0.00491917
0.00494304
0.00496598
0.00498799
0.00500906
0.00502919
0.00504838
0.00506658
0.00508381
0.00510006
0.00511533
0.00512962
0.00514292
0.00515523
0.00516654
0.00517685
0.00518615
0.00519445
0.00520175
0.00520804
0.00521331
0.00521758
0.00522084
0.0052231
0.00522435
0.0052246
0.00522386
0.00522212
0.00521939
0.00521568
0.005211
0.00520534
0.00519873
0.00519117
0.00518267
0.00517324
0.00516289
0.00515163
0.00513947
0.00512642
0.00511249
0.00509769
0.00508202
0.00506548
0.00504809
0.00502986
0.00501079
0.00499091
0.00497024
0.0049488
0.00492662
0.00490371
0.00488011
0.00485584
0.00483092
0.00480538
0.00477923
0.00475251
0.00472522
0.00469741
0.00466908
0.00464026
0.00461097
0.00458125
0.0045511
0.00452056
0.00448965
0.00445841
0.00442685
0.00439501
0.00436294
0.00433066
0.00429823
0.00426568
0.00423307
0.00420044
0.00416778
0.00413507
0.00410216
0.00406879
0.00403481
1.63181e-05
0.000108878
0.000239332
0.000358667
0.000459332
0.000543238
0.000613864
0.000674556
0.00072814
0.00077688
0.000822532
0.000866421
0.000909517
0.000952507
0.000995859
0.00103987
0.00108473
0.00113052
0.00117727
0.00122497
0.00127357
0.00132302
0.00137324
0.00142417
0.00147573
0.00152785
0.00158047
0.00163353
0.00168696
0.00174071
0.00179474
0.00184901
0.00190349
0.00195813
0.00201292
0.00206783
0.00212284
0.00217793
0.00223309
0.00228831
0.00234357
0.00239886
0.00245418
0.0025095
0.00256483
0.00262015
0.00267544
0.00273069
0.0027859
0.00284103
0.00289608
0.00295102
0.00300583
0.00306049
0.00311498
0.00316926
0.00322331
0.0032771
0.00333059
0.00338376
0.00343658
0.003489
0.003541
0.00359255
0.00364361
0.00369416
0.00374416
0.00379359
0.00384243
0.00389067
0.00393834
0.00398546
0.00403201
0.004078
0.00412342
0.00416827
0.00421253
0.00425618