/*--------------------------------*- C++ -*----------------------------------*\
| =========                 |                                                 |
| \\      /  F ield         | OpenFOAM: The Open Source CFD Toolbox           |
|  \\    /   O peration     | Version:  2412                                  |
|   \\  /    A nd           | Website:  www.openfoam.com                      |
|    \\/     M anipulation  |                                                 |
\*---------------------------------------------------------------------------*/
FoamFile
{
    version     2.0;
    format      ascii;
    arch        "LSB;label=32;scalar=64";
    class       volScalarField;
    location    "0.13";
    object      p;
}
// * * * * * * * * * * * * * * * * * * * * * * * * * * * * * * * * * * * * * //

dimensions      [0 2 -2 0 0 0 0];

internalField   nonuniform List<scalar> 
12225
(
-10.3701
-9.77775
-9.11504
-8.55861
-8.04954
-7.59308
-7.1945
-6.84345
-6.53105
-6.25171
-6.00052
-5.77299
-5.56526
-5.37402
-5.19621
-5.02838
-4.86843
-4.70236
-10.8039
-9.83594
-9.14986
-8.59958
-8.08984
-7.63333
-7.2341
-6.88165
-6.56762
-6.28658
-6.03365
-5.80439
-5.59496
-5.40203
-5.22255
-5.05316
-4.89109
-4.73309
-10.9843
-9.87021
-9.1916
-8.65045
-8.14023
-7.68459
-7.2855
-6.932
-6.61641
-6.33359
-6.07872
-5.84743
-5.63597
-5.44104
-5.25961
-5.08852
-4.92491
-4.76358
-11.0082
-9.88592
-9.21628
-8.6844
-8.17688
-7.7241
-7.32688
-6.97392
-6.65818
-6.37475
-6.11896
-5.88656
-5.67391
-5.4778
-5.29529
-5.12363
-4.95952
-4.80194
-10.9381
-9.88064
-9.21656
-8.69518
-8.19469
-7.74684
-7.35317
-7.00242
-6.68798
-6.40523
-6.14967
-5.91724
-5.70443
-5.50819
-5.32573
-5.15482
-4.99206
-4.84226
-10.7963
-9.8475
-9.19308
-8.68432
-8.19547
-7.75481
-7.3663
-7.01925
-6.70737
-6.42639
-6.17206
-5.94052
-5.72844
-5.53298
-5.35159
-5.18256
-5.02264
-4.88136
-10.5936
-9.78107
-9.14684
-8.65264
-8.17989
-7.74921
-7.36759
-7.02575
-6.71768
-6.43952
-6.18735
-5.95755
-5.74703
-5.5532
-5.37378
-5.20753
-5.05147
-4.91851
-10.3407
-9.67874
-9.07867
-8.60069
-8.14788
-7.73041
-7.35765
-7.02258
-6.71965
-6.4454
-6.19633
-5.96913
-5.761
-5.56962
-5.39299
-5.23029
-5.07875
-4.95374
-10.0483
-9.54022
-8.9897
-8.53013
-8.09996
-7.69903
-7.33723
-7.01051
-6.71407
-6.44485
-6.19984
-5.97613
-5.77121
-5.58306
-5.40998
-5.25144
-5.10488
-4.98729
-9.72754
-9.3675
-8.8813
-8.44382
-8.03784
-7.65636
-7.30764
-6.99077
-6.7021
-6.439
-6.19901
-5.97963
-5.77871
-5.59451
-5.42563
-5.27175
-5.1304
-5.01961
-9.39067
-9.16535
-8.75512
-8.34529
-7.96445
-7.60465
-7.27099
-6.96526
-6.68543
-6.42944
-6.19531
-5.98102
-5.78479
-5.60518
-5.441
-5.29213
-5.15598
-5.05154
-9.07871
-8.95961
-8.62542
-8.24715
-7.89025
-7.5518
-7.23361
-6.93909
-6.66812
-6.41934
-6.19121
-5.98216
-5.79072
-5.61573
-5.45619
-5.31209
-5.18051
-5.08177
-8.78376
-8.74527
-8.48691
-8.14497
-7.81228
-7.49583
-7.19439
-6.9119
-6.65027
-6.40915
-6.18745
-5.984
-5.79767
-5.62755
-5.4728
-5.33343
-5.20683
-5.1115
-8.47675
-8.50091
-8.32139
-8.02553
-7.72159
-7.43068
-7.14998
-6.88253
-6.63228
-6.40038
-6.18642
-5.98967
-5.80938
-5.64493
-5.49565
-5.36154
-5.24034
-5.1476
-8.17975
-8.24676
-8.1389
-7.89492
-7.62343
-7.36011
-7.10337
-6.85429
-6.61786
-6.39701
-6.19228
-6.00341
-5.83007
-5.67194
-5.52857
-5.39998
-5.2841
-5.19356
-7.9215
-8.01484
-7.96463
-7.7717
-7.53354
-7.29661
-7.06364
-6.83409
-6.61282
-6.40417
-6.20976
-6.02979
-5.86422
-5.71296
-5.57574
-5.45267
-5.34181
-5.25288
-7.7341
-7.8422
-7.83348
-7.68465
-7.4779
-7.26435
-7.05191
-6.83979
-6.63218
-6.43433
-6.24891
-6.07666
-5.91773
-5.77226
-5.63999
-5.52096
-5.41355
-5.32377
-7.65785
-7.77018
-7.78269
-7.66107
-7.4761
-7.2792
-7.0814
-6.88219
-6.68514
-6.49569
-6.31712
-6.15048
-5.99598
-5.85361
-5.72333
-5.60489
-5.49729
-5.40181
-7.75762
-7.86465
-7.871
-7.74437
-7.55618
-7.35748
-7.15888
-6.95969
-6.76332
-6.57498
-6.3977
-6.23232
-6.07881
-5.93698
-5.80651
-5.68669
-5.57727
-5.4751
-8.03422
-8.12865
-8.09524
-7.9237
-7.70217
-7.4795
-7.26116
-7.04587
-6.8376
-6.64088
-6.45759
-6.28777
-6.13096
-5.98658
-5.85395
-5.73196
-5.62036
-5.5135
-8.42785
-8.48596
-8.3836
-8.1492
-7.8849
-7.62998
-7.38392
-7.14619
-6.92118
-6.712
-6.51908
-6.34174
-6.1791
-6.03024
-5.89418
-5.76966
-5.65629
-5.54809
-8.92839
-8.90813
-8.69993
-8.39018
-8.07817
-7.78422
-7.50459
-7.24115
-6.99739
-6.77408
-6.57021
-6.38442
-6.21531
-6.06151
-5.92166
-5.79434
-5.67878
-5.56927
-9.49251
-9.33694
-8.99305
-8.6102
-8.25361
-7.92013
-7.60818
-7.3216
-7.0611
-6.82492
-6.61103
-6.41747
-6.24236
-6.08387
-5.94035
-5.8102
-5.69237
-5.58177
-10.057
-9.711
-9.22791
-8.79013
-8.39623
-8.02674
-7.68735
-7.38172
-7.10699
-6.85965
-6.63709
-6.43684
-6.25653
-6.09395
-5.94719
-5.81451
-5.69463
-5.58313
-10.561
-9.99255
-9.3969
-8.92511
-8.49855
-8.09809
-7.73731
-7.41688
-7.1308
-6.87468
-6.64544
-6.4401
-6.25585
-6.0902
-5.94104
-5.80648
-5.68509
-5.57311
-10.9626
-10.1702
-9.50366
-9.01154
-8.55644
-8.13255
-7.75686
-7.42584
-7.13161
-6.86934
-6.63553
-6.42676
-6.23991
-6.07229
-5.92163
-5.78592
-5.66364
-5.55162
-11.2339
-10.2537
-9.5539
-9.04722
-8.57087
-8.1321
-7.7469
-7.40892
-7.10952
-6.84354
-6.60709
-6.39647
-6.20832
-6.03981
-5.88857
-5.75251
-5.63004
-5.51852
-11.3411
-10.2691
-9.55455
-9.03149
-8.54312
-8.0968
-7.70601
-7.36422
-7.06248
-6.79514
-6.55801
-6.34718
-6.15917
-5.99102
-5.84027
-5.70479
-5.58292
-5.4726
-11.2085
-10.2392
-9.51953
-8.97386
-8.48056
-8.03192
-7.63878
-7.29615
-6.99474
-6.7283
-6.49239
-6.283
-6.09653
-5.92995
-5.78076
-5.6468
-5.52632
-5.41756
-10.6773
-10.147
-9.47695
-8.91694
-8.4219
-7.97301
-7.57942
-7.23741
-6.93734
-6.67245
-6.43816
-6.23042
-6.04557
-5.88056
-5.73285
-5.60029
-5.48103
-5.37325
-4.76827
-4.76804
-4.76947
-4.77213
-4.77517
-4.77822
-4.7813
-4.78458
-4.78816
-4.79214
-4.79667
-4.80188
-4.80788
-4.81479
-4.82273
-4.83182
-4.84218
-4.85392
-4.86714
-4.88192
-4.89831
-4.91633
-4.93597
-4.95719
-4.97991
-5.00402
-5.0294
-5.0559
-5.08328
-5.11128
-5.13973
-5.16842
-5.19718
-5.22582
-5.25415
-5.28202
-5.30925
-5.33569
-5.36119
-5.38561
-5.4088
-5.43065
-5.45101
-5.46976
-5.48679
-5.50197
-5.51519
-5.52632
-5.53526
-5.54189
-5.54611
-5.54781
-5.54687
-5.5432
-5.5367
-5.52726
-5.51481
-5.49924
-5.48047
-5.45842
-5.43302
-5.40419
-5.37186
-5.336
-5.29652
-5.25341
-5.2066
-5.15609
-5.10183
-5.04383
-4.9821
-4.91671
-4.84769
-4.7749
-4.69831
-4.61772
-4.53327
-4.44507
-4.35318
-4.25764
-4.1585
-4.05581
-3.94963
-3.84001
-3.72701
-3.61071
-3.49118
-3.36849
-3.24273
-3.11399
-2.98235
-2.84793
-2.71081
-2.57109
-2.4289
-2.28434
-2.13753
-1.98858
-1.83761
-1.68475
-1.53013
-1.37387
-1.2161
-1.05697
-0.896592
-0.735118
-0.572681
-0.409422
-0.245481
-0.0809998
0.0838796
0.249015
0.414262
0.579479
0.744524
0.909254
1.07353
1.23721
1.40015
1.56223
1.7233
1.88323
2.04189
2.19916
2.35491
2.50902
2.66138
2.81187
2.96038
3.10682
3.25108
3.39307
3.53271
3.6699
3.80458
3.93668
4.06612
4.19286
4.31684
4.43804
4.55642
4.67194
4.78458
4.89423
5.00084
5.1044
5.20491
5.30241
5.3969
5.4884
5.57693
5.66251
5.74515
5.82489
5.90175
5.97576
6.04696
6.11538
6.18106
6.24405
6.30439
6.36212
6.41729
6.46996
6.52018
6.56801
6.61351
6.65676
6.69783
6.73684
6.77391
6.8092
6.84295
6.87551
6.90742
6.9396
6.97407
7.01419
7.07162
7.14666
-4.76751
-4.76823
-4.76979
-4.77201
-4.77415
-4.77577
-4.77691
-4.77791
-4.77921
-4.78113
-4.78382
-4.78737
-4.79183
-4.7973
-4.80391
-4.8118
-4.82112
-4.83199
-4.84454
-4.85885
-4.87497
-4.8929
-4.91261
-4.93402
-4.95702
-4.98147
-5.0072
-5.034
-5.06165
-5.08994
-5.11865
-5.14759
-5.17656
-5.20538
-5.23388
-5.26189
-5.28926
-5.31583
-5.34146
-5.36603
-5.3894
-5.41144
-5.43202
-5.45104
-5.46837
-5.48388
-5.49748
-5.50904
-5.51845
-5.52559
-5.53037
-5.53267
-5.53238
-5.5294
-5.52363
-5.51497
-5.50333
-5.48862
-5.47075
-5.44964
-5.42521
-5.39739
-5.36612
-5.33134
-5.293
-5.25104
-5.20543
-5.15614
-5.10314
-5.04639
-4.98587
-4.92155
-4.85345
-4.78133
-4.70524
-4.6256
-4.54231
-4.45535
-4.36472
-4.27046
-4.1726
-4.07119
-3.96628
-3.85792
-3.74617
-3.63111
-3.5128
-3.39132
-3.26675
-3.13918
-3.0087
-2.8754
-2.73939
-2.60076
-2.45963
-2.3161
-2.17029
-2.02231
-1.8723
-1.72035
-1.56662
-1.41121
-1.25427
-1.09592
-0.9363
-0.775545
-0.613792
-0.45118
-0.287849
-0.123941
0.0404036
0.205042
0.369832
0.534631
0.699297
0.863688
1.02766
1.19108
1.35381
1.51571
1.67664
1.83648
1.99508
2.15234
2.30811
2.46229
2.61475
2.76538
2.91407
3.06073
3.20525
3.34753
3.48749
3.62505
3.76012
3.89265
4.02256
4.14979
4.27431
4.39607
4.51504
4.63119
4.74445
4.85475
4.96203
5.0663
5.16754
5.26579
5.36104
5.45331
5.54262
5.62898
5.71242
5.79296
5.87062
5.94543
6.01743
6.08665
6.15313
6.21691
6.27803
6.33654
6.39248
6.44591
6.49688
6.54544
6.59167
6.63563
6.67741
6.71712
6.7549
6.79091
6.82541
6.85877
6.89158
6.92476
6.96031
7.00042
7.05605
7.12169
-4.75863
-4.76195
-4.76505
-4.76775
-4.7695
-4.77038
-4.77076
-4.77111
-4.77179
-4.77308
-4.77518
-4.77823
-4.78237
-4.78773
-4.79445
-4.80265
-4.81244
-4.82392
-4.83715
-4.85214
-4.86888
-4.88733
-4.90741
-4.929
-4.95199
-4.97622
-5.00152
-5.02773
-5.05465
-5.0821
-5.1099
-5.13789
-5.16589
-5.19375
-5.22131
-5.24841
-5.27493
-5.30071
-5.32563
-5.34956
-5.37236
-5.39392
-5.41412
-5.43282
-5.44993
-5.46531
-5.47885
-5.49043
-5.49995
-5.50729
-5.51233
-5.51497
-5.5151
-5.51261
-5.5074
-5.49938
-5.48844
-5.47449
-5.45744
-5.43721
-5.41373
-5.38691
-5.35669
-5.32301
-5.28581
-5.24505
-5.20067
-5.15263
-5.10092
-5.04549
-4.98632
-4.92336
-4.8565
-4.78603
-4.71166
-4.63358
-4.5518
-4.46634
-4.37723
-4.28449
-4.18816
-4.08828
-3.9849
-3.87807
-3.76784
-3.65429
-3.53748
-3.41748
-3.29438
-3.16827
-3.03922
-2.90734
-2.77272
-2.63546
-2.49567
-2.35346
-2.20893
-2.06221
-1.91342
-1.76267
-1.61009
-1.4558
-1.29994
-1.14263
-0.984019
-0.824228
-0.663397
-0.501664
-0.339169
-0.176051
-0.0124516
0.151488
0.315626
0.479822
0.643933
0.807818
0.971338
1.13435
1.29673
1.45832
1.619
1.77863
1.93709
2.09424
2.24997
2.40415
2.55666
2.7074
2.85625
3.00311
3.14788
3.29047
3.43078
3.56873
3.70425
3.83726
3.9677
4.0955
4.22062
4.34301
4.46262
4.57942
4.69336
4.80441
4.91255
5.01772
5.11992
5.21914
5.31538
5.40865
5.49898
5.58636
5.67083
5.75239
5.83108
5.90693
5.97996
6.05021
6.11771
6.1825
6.24462
6.30412
6.36104
6.41543
6.46734
6.51683
6.56397
6.60883
6.6515
6.69209
6.73074
6.76764
6.80304
6.83734
6.87114
6.90533
6.94182
6.98189
7.03502
7.08721
-4.74284
-4.74871
-4.75469
-4.75927
-4.7621
-4.76374
-4.76481
-4.76578
-4.76705
-4.76894
-4.77166
-4.7754
-4.78033
-4.78656
-4.79421
-4.80338
-4.81413
-4.82652
-4.84055
-4.8562
-4.87343
-4.89218
-4.91236
-4.93385
-4.95655
-4.98031
-5.00499
-5.03044
-5.05652
-5.08306
-5.10992
-5.13694
-5.16398
-5.1909
-5.21754
-5.24379
-5.26949
-5.29452
-5.31876
-5.34207
-5.36434
-5.38543
-5.40523
-5.42362
-5.44048
-5.45569
-5.46913
-5.48069
-5.49024
-5.49768
-5.5029
-5.50577
-5.50619
-5.50405
-5.49926
-5.49169
-5.48127
-5.46789
-5.45146
-5.43189
-5.40912
-5.38305
-5.35362
-5.32076
-5.28442
-5.24454
-5.20108
-5.15398
-5.10322
-5.04876
-4.99058
-4.92864
-4.86291
-4.79345
-4.72025
-4.64335
-4.56276
-4.47849
-4.39059
-4.29906
-4.20394
-4.10528
-4.00312
-3.8975
-3.78849
-3.67615
-3.56055
-3.44175
-3.31984
-3.1949
-3.06702
-2.93629
-2.80281
-2.66667
-2.52798
-2.38684
-2.24338
-2.09769
-1.94991
-1.80014
-1.64852
-1.49517
-1.34021
-1.18377
-1.026
-0.867014
-0.706957
-0.545965
-0.384174
-0.221725
-0.0587574
0.104588
0.268172
0.431851
0.595486
0.758936
0.922061
1.08472
1.24678
1.40811
1.56856
1.72801
1.88633
2.04339
2.19906
2.35323
2.50578
2.65659
2.80556
2.95258
3.09755
3.24037
3.38097
3.51924
3.65512
3.78852
3.91939
4.04767
4.17329
4.29622
4.41639
4.53376
4.64828
4.75993
4.86871
4.97458
5.07751
5.17748
5.27451
5.36859
5.45972
5.54794
5.63324
5.71565
5.79519
5.87189
5.94578
6.01688
6.08523
6.15087
6.21384
6.27417
6.33192
6.38713
6.43984
6.49013
6.53805
6.58368
6.62711
6.66844
6.70782
6.74544
6.78156
6.81655
6.85099
6.88566
6.92219
6.96096
7.00946
7.04908
-4.72452
-4.73306
-4.74254
-4.74979
-4.75453
-4.75773
-4.76019
-4.76247
-4.76499
-4.76811
-4.77208
-4.7771
-4.7833
-4.79081
-4.79971
-4.81007
-4.82191
-4.83526
-4.8501
-4.8664
-4.8841
-4.90313
-4.92341
-4.94483
-4.96729
-4.99066
-5.01483
-5.03967
-5.06504
-5.09082
-5.11687
-5.14305
-5.16925
-5.19533
-5.22116
-5.24661
-5.27156
-5.29589
-5.31947
-5.34218
-5.3639
-5.38452
-5.40389
-5.42192
-5.43848
-5.45344
-5.4667
-5.47812
-5.48761
-5.49503
-5.50028
-5.50323
-5.50379
-5.50183
-5.49726
-5.48996
-5.47985
-5.46682
-5.45077
-5.43163
-5.40931
-5.38373
-5.35482
-5.32251
-5.28675
-5.24747
-5.20463
-5.15818
-5.10809
-5.05432
-4.99685
-4.93566
-4.87073
-4.80208
-4.72971
-4.65365
-4.5739
-4.49049
-4.40344
-4.31277
-4.21852
-4.12072
-4.01943
-3.91468
-3.80654
-3.69507
-3.58034
-3.4624
-3.34136
-3.21727
-3.09024
-2.96035
-2.82769
-2.69237
-2.55448
-2.41414
-2.27146
-2.12654
-1.9795
-1.83047
-1.67956
-1.52689
-1.37261
-1.21683
-1.05968
-0.901302
-0.741828
-0.581393
-0.420135
-0.258192
-0.0957031
0.0671915
0.230352
0.393638
0.556908
0.720024
0.882846
1.04524
1.20706
1.36817
1.52845
1.68775
1.84595
2.00293
2.15856
2.31271
2.46528
2.61614
2.76519
2.91232
3.05744
3.20044
3.34124
3.47975
3.6159
3.7496
3.8808
4.00943
4.13543
4.25875
4.37933
4.49711
4.61205
4.72413
4.83335
4.93969
5.04312
5.14363
5.2412
5.33585
5.42757
5.51638
5.6023
5.68533
5.7655
5.84283
5.91736
5.9891
6.0581
6.12438
6.18799
6.24896
6.30734
6.36318
6.41652
6.46741
6.51593
6.56215
6.60614
6.64803
6.68794
6.72607
6.76265
6.79803
6.83271
6.86731
6.90308
6.93973
6.98318
7.01212
-4.70924
-4.71996
-4.73237
-4.74221
-4.74907
-4.7541
-4.75825
-4.76214
-4.76622
-4.77085
-4.77631
-4.78278
-4.79041
-4.79928
-4.80947
-4.82101
-4.83391
-4.84817
-4.86376
-4.88065
-4.89876
-4.91803
-4.93839
-4.95974
-4.98198
-5.00502
-5.02875
-5.05305
-5.07781
-5.10293
-5.12828
-5.15374
-5.17921
-5.20455
-5.22967
-5.25442
-5.27871
-5.30241
-5.3254
-5.34757
-5.36879
-5.38894
-5.40791
-5.42558
-5.44183
-5.45653
-5.46957
-5.48083
-5.49018
-5.49752
-5.50272
-5.50567
-5.50625
-5.50436
-5.49989
-5.49272
-5.48277
-5.46992
-5.4541
-5.4352
-5.41315
-5.38787
-5.35927
-5.32731
-5.2919
-5.253
-5.21056
-5.16454
-5.11489
-5.06158
-5.0046
-4.94392
-4.87953
-4.81143
-4.73964
-4.66415
-4.58498
-4.50215
-4.41568
-4.32561
-4.23196
-4.13476
-4.03407
-3.92994
-3.82241
-3.71156
-3.59743
-3.48012
-3.35968
-3.23621
-3.10979
-2.9805
-2.84845
-2.71373
-2.57644
-2.43668
-2.29457
-2.15022
-2.00374
-1.85526
-1.70488
-1.55274
-1.39897
-1.24368
-1.08702
-0.929107
-0.770081
-0.610078
-0.449233
-0.287685
-0.125572
0.0369671
0.199793
0.362765
0.525743
0.688589
0.851163
1.01333
1.17495
1.33589
1.49601
1.65518
1.81328
1.97018
2.12575
2.27988
2.43244
2.58332
2.73242
2.87962
3.02483
3.16795
3.3089
3.44758
3.58391
3.71783
3.84926
3.97814
4.10441
4.228
4.34887
4.46695
4.5822
4.6946
4.80415
4.91084
5.01463
5.11553
5.21351
5.30859
5.40075
5.49002
5.5764
5.6599
5.74055
5.81838
5.8934
5.96564
6.03514
6.10193
6.16604
6.22752
6.2864
6.34272
6.39655
6.44792
6.49691
6.54358
6.58801
6.63031
6.6706
6.70906
6.74591
6.78143
6.81604
6.85019
6.88477
6.91894
6.95774
6.97773
-4.70065
-4.71243
-4.72671
-4.73858
-4.7473
-4.75404
-4.75983
-4.76529
-4.7709
-4.77702
-4.78391
-4.79176
-4.80069
-4.81079
-4.82211
-4.83467
-4.84847
-4.86349
-4.8797
-4.89705
-4.9155
-4.93496
-4.95538
-4.97666
-4.99873
-5.02149
-5.04486
-5.06873
-5.09301
-5.1176
-5.14239
-5.16727
-5.19215
-5.2169
-5.24143
-5.26562
-5.28936
-5.31254
-5.33504
-5.35674
-5.37753
-5.3973
-5.41591
-5.43325
-5.44921
-5.46366
-5.47648
-5.48755
-5.49675
-5.50396
-5.50906
-5.51194
-5.51248
-5.51057
-5.50609
-5.49895
-5.48904
-5.47626
-5.46052
-5.44172
-5.41979
-5.39464
-5.3662
-5.3344
-5.29918
-5.26048
-5.21825
-5.17246
-5.12306
-5.07002
-5.01333
-4.95295
-4.88889
-4.82114
-4.74969
-4.67456
-4.59576
-4.5133
-4.42721
-4.33752
-4.24426
-4.14746
-4.04717
-3.94344
-3.83633
-3.72589
-3.61219
-3.49529
-3.37529
-3.25225
-3.12626
-2.99741
-2.86579
-2.7315
-2.59465
-2.45532
-2.31364
-2.16972
-2.02366
-1.87559
-1.72563
-1.57389
-1.42051
-1.26561
-1.10933
-0.951781
-0.793112
-0.633454
-0.472943
-0.311716
-0.14991
0.012335
0.174882
0.33759
0.500321
0.662934
0.825292
0.987259
1.1487
1.30947
1.46945
1.6285
1.78649
1.9433
2.0988
2.25287
2.4054
2.55627
2.70537
2.8526
2.99786
3.14105
3.28208
3.42086
3.55732
3.69138
3.82296
3.95201
4.07845
4.20224
4.32331
4.4416
4.55708
4.66973
4.77953
4.88648
4.99056
5.09175
5.19005
5.28545
5.37796
5.46757
5.55432
5.63819
5.71923
5.79744
5.87285
5.9455
6.0154
6.08259
6.14711
6.20898
6.26827
6.32499
6.37921
6.43096
6.48032
6.52734
6.57211
6.61471
6.65527
6.69392
6.73087
6.76635
6.80068
6.83412
6.86727
6.89889
6.93356
6.94607
-4.69949
-4.71145
-4.72652
-4.73962
-4.74969
-4.75781
-4.76495
-4.77175
-4.77867
-4.78605
-4.79415
-4.80314
-4.81314
-4.82423
-4.83645
-4.84981
-4.8643
-4.8799
-4.89658
-4.91429
-4.93298
-4.95259
-4.97304
-4.99428
-5.01622
-5.03878
-5.06188
-5.08543
-5.10935
-5.13354
-5.15791
-5.18236
-5.20679
-5.23109
-5.25518
-5.27894
-5.30225
-5.32502
-5.34713
-5.36847
-5.38892
-5.40836
-5.42668
-5.44375
-5.45945
-5.47367
-5.48628
-5.49717
-5.5062
-5.51325
-5.51822
-5.52098
-5.52142
-5.51941
-5.51486
-5.50766
-5.4977
-5.48487
-5.4691
-5.45029
-5.42834
-5.40319
-5.37477
-5.34299
-5.30781
-5.26916
-5.227
-5.18128
-5.13197
-5.07904
-5.02246
-4.96223
-4.89832
-4.83073
-4.75946
-4.68452
-4.60591
-4.52365
-4.43777
-4.34829
-4.25525
-4.15868
-4.05863
-3.95515
-3.84829
-3.73811
-3.62468
-3.50807
-3.38835
-3.2656
-3.13991
-3.01136
-2.88005
-2.74607
-2.60953
-2.47052
-2.32916
-2.18555
-2.03981
-1.89206
-1.74241
-1.59099
-1.43792
-1.28332
-1.12734
-0.970092
-0.811713
-0.652338
-0.492103
-0.331143
-0.169597
-0.00760237
0.154704
0.317183
0.479695
0.642101
0.804263
0.966046
1.12731
1.28793
1.44776
1.60668
1.76456
1.92126
2.07667
2.23067
2.38314
2.53397
2.68304
2.83026
2.97552
3.11873
3.2598
3.39863
3.53515
3.66929
3.80096
3.93011
4.05667
4.18058
4.30178
4.42022
4.53587
4.64869
4.75868
4.86583
4.97012
5.07153
5.17007
5.26572
5.35848
5.44837
5.53539
5.61956
5.7009
5.77942
5.85514
5.9281
5.99832
6.06584
6.13068
6.19289
6.25249
6.30953
6.36406
6.41612
6.46577
6.51307
6.55808
6.60089
6.64161
6.68036
6.71729
6.75257
6.78644
6.819
6.85061
6.87973
6.91075
6.91702
-4.70531
-4.71672
-4.73162
-4.74512
-4.75594
-4.76496
-4.77307
-4.78088
-4.78879
-4.79713
-4.80614
-4.81599
-4.82679
-4.83861
-4.85147
-4.8654
-4.88039
-4.8964
-4.91341
-4.93136
-4.95022
-4.96993
-4.99042
-5.01162
-5.03347
-5.05589
-5.07881
-5.10214
-5.12581
-5.14972
-5.1738
-5.19794
-5.22206
-5.24606
-5.26983
-5.29328
-5.3163
-5.33877
-5.3606
-5.38167
-5.40186
-5.42105
-5.43913
-5.45598
-5.47148
-5.48549
-5.49791
-5.50861
-5.51746
-5.52435
-5.52916
-5.53176
-5.53204
-5.52989
-5.5252
-5.51785
-5.50775
-5.4948
-5.4789
-5.45996
-5.43791
-5.41265
-5.38412
-5.35224
-5.31697
-5.27825
-5.23602
-5.19025
-5.1409
-5.08795
-5.03136
-4.97113
-4.90724
-4.83968
-4.76845
-4.69355
-4.61499
-4.5328
-4.44699
-4.3576
-4.26465
-4.16819
-4.06825
-3.9649
-3.85817
-3.74814
-3.63487
-3.51842
-3.39888
-3.27632
-3.15083
-3.02248
-2.89139
-2.75763
-2.62131
-2.48254
-2.34141
-2.19805
-2.05255
-1.90505
-1.75565
-1.60448
-1.45166
-1.29732
-1.14158
-0.98458
-0.826445
-0.667312
-0.507314
-0.346588
-0.18527
-0.0234972
0.138593
0.300863
0.463173
0.625385
0.787361
0.948966
1.11006
1.27052
1.4302
1.58898
1.74672
1.90331
2.05861
2.21252
2.36491
2.51566
2.66468
2.81185
2.95708
3.10026
3.24132
3.38016
3.51669
3.65086
3.78257
3.91176
4.03838
4.16235
4.28363
4.40217
4.51792
4.63087
4.74099
4.84828
4.95272
5.05429
5.153
5.24883
5.34179
5.43189
5.51912
5.60352
5.68508
5.76384
5.83981
5.91302
5.9835
6.05128
6.11638
6.17884
6.23871
6.29601
6.35078
6.40308
6.45296
6.50046
6.54565
6.5886
6.6294
6.66814
6.70495
6.73993
6.77322
6.8048
6.83483
6.86155
6.88935
6.89043
-4.71672
-4.72708
-4.74104
-4.75422
-4.76519
-4.77462
-4.78329
-4.79172
-4.80028
-4.80927
-4.81891
-4.82934
-4.84067
-4.85297
-4.86626
-4.88056
-4.89586
-4.91213
-4.92935
-4.94746
-4.96643
-4.9862
-5.0067
-5.02789
-5.04968
-5.07202
-5.09483
-5.11803
-5.14155
-5.1653
-5.18921
-5.21317
-5.2371
-5.2609
-5.28448
-5.30774
-5.33056
-5.35285
-5.37449
-5.39538
-5.41538
-5.4344
-5.4523
-5.46897
-5.48428
-5.49812
-5.51036
-5.52087
-5.52954
-5.53624
-5.54085
-5.54326
-5.54334
-5.54099
-5.53609
-5.52853
-5.51822
-5.50506
-5.48895
-5.4698
-5.44753
-5.42207
-5.39334
-5.36127
-5.32581
-5.28691
-5.24452
-5.19859
-5.1491
-5.09602
-5.03932
-4.97899
-4.91501
-4.84736
-4.77606
-4.7011
-4.6225
-4.54027
-4.45444
-4.36503
-4.27209
-4.17563
-4.07573
-3.97241
-3.86574
-3.75577
-3.64258
-3.52623
-3.40679
-3.28435
-3.15899
-3.03078
-2.89984
-2.76624
-2.6301
-2.4915
-2.35056
-2.20739
-2.06209
-1.91479
-1.7656
-1.61464
-1.46204
-1.30792
-1.1524
-0.995618
-0.837704
-0.678789
-0.51901
-0.358499
-0.197394
-0.0358318
0.12605
0.288114
0.450223
0.61224
0.774028
0.93545
1.09637
1.25666
1.41618
1.5748
1.7324
1.88885
2.04402
2.19781
2.35008
2.50074
2.64966
2.79675
2.94191
3.08504
3.22604
3.36484
3.50135
3.63549
3.76719
3.89638
4.02301
4.147
4.26831
4.38689
4.50271
4.61572
4.72593
4.8333
4.93784
5.03952
5.13835
5.23431
5.32741
5.41766
5.50506
5.58962
5.67136
5.75031
5.82647
5.89988
5.97056
6.03854
6.10385
6.16653
6.2266
6.2841
6.33908
6.39157
6.44162
6.48927
6.53458
6.57761
6.61842
6.65709
6.69369
6.72828
6.76091
6.79145
6.8199
6.84439
6.86935
6.86609
-4.7319
-4.74088
-4.75338
-4.76564
-4.77625
-4.78565
-4.79448
-4.80318
-4.81209
-4.82144
-4.83144
-4.84221
-4.85385
-4.86642
-4.87996
-4.89447
-4.90994
-4.92636
-4.94369
-4.96189
-4.98092
-5.00073
-5.02125
-5.04244
-5.06422
-5.08653
-5.1093
-5.13245
-5.15591
-5.17959
-5.20342
-5.2273
-5.25115
-5.27487
-5.29835
-5.32151
-5.34424
-5.36642
-5.38795
-5.40872
-5.4286
-5.44748
-5.46524
-5.48176
-5.49691
-5.51058
-5.52263
-5.53295
-5.54141
-5.54789
-5.55227
-5.55444
-5.55427
-5.55165
-5.54649
-5.53866
-5.52807
-5.51462
-5.49822
-5.47879
-5.45623
-5.43048
-5.40147
-5.36913
-5.3334
-5.29424
-5.2516
-5.20544
-5.15573
-5.10245
-5.04556
-4.98505
-4.9209
-4.8531
-4.78165
-4.70656
-4.62784
-4.5455
-4.45958
-4.3701
-4.27709
-4.18059
-4.08065
-3.97732
-3.87065
-3.76071
-3.64755
-3.53125
-3.41188
-3.28951
-3.16424
-3.03614
-2.90531
-2.77185
-2.63585
-2.4974
-2.35662
-2.21362
-2.0685
-1.92139
-1.77239
-1.62163
-1.46923
-1.31531
-1.16
-1.00343
-0.845734
-0.687038
-0.527476
-0.367183
-0.206294
-0.0449465
0.116722
0.278575
0.440476
0.602287
0.763874
0.925099
1.08583
1.24592
1.40526
1.56371
1.72114
1.87742
2.03244
2.18607
2.33821
2.48873
2.63752
2.7845
2.92954
3.07257
3.21348
3.3522
3.48863
3.62271
3.75436
3.88351
4.0101
4.13407
4.25537
4.37395
4.48977
4.60282
4.71306
4.82048
4.92507
5.02682
5.12572
5.22177
5.31496
5.40531
5.49283
5.57751
5.65939
5.73847
5.81479
5.88835
5.95919
6.02733
6.09281
6.15566
6.2159
6.27357
6.3287
6.38134
6.43152
6.47928
6.52466
6.56772
6.60849
6.64703
6.68336
6.7175
6.74942
6.77889
6.80583
6.82823
6.85068
6.84383
-4.74894
-4.75638
-4.76708
-4.77799
-4.78782
-4.79682
-4.80549
-4.81418
-4.82315
-4.83263
-4.84277
-4.85368
-4.86546
-4.87816
-4.8918
-4.90641
-4.92196
-4.93844
-4.95583
-4.97407
-4.99314
-5.01298
-5.03354
-5.05475
-5.07655
-5.09888
-5.12166
-5.14483
-5.1683
-5.192
-5.21583
-5.23972
-5.26356
-5.28727
-5.31074
-5.33387
-5.35656
-5.3787
-5.40016
-5.42085
-5.44063
-5.4594
-5.47703
-5.4934
-5.50838
-5.52185
-5.5337
-5.54379
-5.552
-5.55822
-5.56232
-5.56419
-5.56371
-5.56077
-5.55527
-5.54711
-5.53617
-5.52237
-5.50562
-5.48583
-5.46292
-5.43682
-5.40747
-5.37479
-5.33874
-5.29927
-5.25633
-5.20989
-5.15991
-5.10638
-5.04925
-4.98851
-4.92414
-4.85613
-4.78449
-4.70922
-4.63034
-4.54786
-4.46181
-4.37222
-4.27912
-4.18256
-4.08256
-3.9792
-3.87251
-3.76256
-3.64942
-3.53316
-3.41384
-3.29154
-3.16635
-3.03835
-2.90764
-2.7743
-2.63843
-2.50014
-2.35952
-2.21669
-2.07176
-1.92483
-1.77603
-1.62547
-1.47328
-1.31958
-1.16449
-1.00814
-0.850674
-0.692206
-0.532875
-0.372813
-0.212157
-0.0510421
0.110394
0.272016
0.433686
0.595269
0.75663
0.917631
1.07814
1.23802
1.39715
1.55538
1.71261
1.8687
2.02352
2.17697
2.32892
2.47927
2.62791
2.77472
2.91962
3.06251
3.20329
3.34188
3.4782
3.61217
3.74372
3.87278
3.99929
4.1232
4.24444
4.36298
4.47878
4.5918
4.70204
4.80947
4.91407
5.01584
5.11478
5.21087
5.30413
5.39454
5.48213
5.56691
5.64888
5.72807
5.80449
5.87817
5.94914
6.01741
6.08302
6.146
6.20638
6.26418
6.31944
6.3722
6.42248
6.47031
6.51574
6.55878
6.59947
6.63783
6.67386
6.70751
6.73869
6.76711
6.79258
6.81308
6.83329
6.82347
-4.76607
-4.7719
-4.78062
-4.78991
-4.79866
-4.80698
-4.81523
-4.82366
-4.83251
-4.84192
-4.85204
-4.86296
-4.87476
-4.88748
-4.90115
-4.91577
-4.93134
-4.94785
-4.96526
-4.98353
-5.00264
-5.02251
-5.04311
-5.06437
-5.08623
-5.10862
-5.13146
-5.1547
-5.17823
-5.20199
-5.22588
-5.24982
-5.27371
-5.29745
-5.32094
-5.34408
-5.36675
-5.38884
-5.41025
-5.43085
-5.45053
-5.46916
-5.48663
-5.50281
-5.51758
-5.53082
-5.5424
-5.55221
-5.56012
-5.56601
-5.56976
-5.57127
-5.57042
-5.5671
-5.5612
-5.55263
-5.54129
-5.52708
-5.50992
-5.48973
-5.46642
-5.43993
-5.4102
-5.37715
-5.34075
-5.30093
-5.25767
-5.21093
-5.16068
-5.10686
-5.04947
-4.98847
-4.92386
-4.85563
-4.78379
-4.70834
-4.62929
-4.54666
-4.46049
-4.37079
-4.2776
-4.18096
-4.08092
-3.97753
-3.87084
-3.76091
-3.6478
-3.53158
-3.41233
-3.29012
-3.16503
-3.03716
-2.90657
-2.77338
-2.63767
-2.49955
-2.35912
-2.21648
-2.07175
-1.92504
-1.77646
-1.62613
-1.47418
-1.32071
-1.16587
-1.00978
-0.852562
-0.694352
-0.535281
-0.375483
-0.21509
-0.0542401
0.106931
0.268288
0.429694
0.591015
0.752113
0.912855
1.07311
1.23273
1.39161
1.5496
1.70658
1.86243
2.01703
2.17025
2.32198
2.47211
2.62054
2.76716
2.91186
3.05456
3.19517
3.33359
3.46975
3.60358
3.73499
3.86392
3.99031
4.11411
4.23525
4.35371
4.46944
4.58241
4.6926
4.79999
4.90458
5.00634
5.10527
5.20138
5.29465
5.3851
5.47274
5.55756
5.6396
5.71886
5.79536
5.86913
5.9402
6.00857
6.07429
6.13738
6.19786
6.25577
6.31114
6.36398
6.41433
6.46222
6.50766
6.55066
6.59125
6.6294
6.66509
6.69823
6.72866
6.75605
6.78015
6.7989
6.81711
6.80485
-4.7817
-4.78598
-4.79267
-4.8002
-4.80768
-4.81512
-4.82276
-4.83078
-4.83934
-4.84856
-4.85856
-4.86939
-4.88114
-4.89382
-4.90746
-4.92207
-4.93764
-4.95416
-4.97158
-4.98989
-5.00902
-5.02895
-5.0496
-5.07093
-5.09286
-5.11532
-5.13825
-5.16156
-5.18518
-5.20901
-5.23297
-5.25696
-5.28089
-5.30464
-5.32813
-5.35124
-5.37386
-5.39587
-5.41717
-5.43763
-5.45714
-5.47557
-5.49281
-5.50873
-5.52322
-5.53614
-5.54738
-5.55682
-5.56435
-5.56984
-5.57318
-5.57426
-5.57297
-5.56921
-5.56286
-5.55384
-5.54205
-5.5274
-5.50981
-5.48918
-5.46546
-5.43857
-5.40844
-5.37503
-5.33827
-5.29813
-5.25457
-5.20754
-5.157
-5.10292
-5.04527
-4.98403
-4.9192
-4.85077
-4.77875
-4.70313
-4.62394
-4.5412
-4.45493
-4.36515
-4.27192
-4.17525
-4.0752
-3.97183
-3.86517
-3.75529
-3.64226
-3.52613
-3.40699
-3.28491
-3.15997
-3.03225
-2.90184
-2.76884
-2.63334
-2.49543
-2.35523
-2.21283
-2.06835
-1.92189
-1.77358
-1.62352
-1.47184
-1.31867
-1.16412
-1.00832
-0.851398
-0.69349
-0.534723
-0.375231
-0.215147
-0.0546067
0.106255
0.267302
0.428399
0.58941
0.750202
0.910638
1.07059
1.22991
1.38849
1.54619
1.70288
1.85845
2.01276
2.16571
2.31718
2.46705
2.61522
2.76159
2.90606
3.04853
3.18891
3.32712
3.46308
3.59671
3.72793
3.85669
3.98292
4.10657
4.22758
4.34591
4.46153
4.57441
4.68452
4.79184
4.89637
4.99809
5.09699
5.19307
5.28633
5.37678
5.46443
5.54928
5.63135
5.71066
5.78722
5.86106
5.93219
6.00065
6.06645
6.12963
6.1902
6.2482
6.30365
6.35656
6.40697
6.45489
6.50032
6.54327
6.58373
6.62166
6.65699
6.68961
6.71932
6.74571
6.76852
6.78568
6.80208
6.78786
-4.79448
-4.79742
-4.80214
-4.80785
-4.81395
-4.8204
-4.82731
-4.83481
-4.843
-4.85196
-4.86176
-4.87247
-4.88413
-4.89675
-4.91036
-4.92494
-4.94051
-4.95702
-4.97445
-4.99278
-5.01194
-5.0319
-5.0526
-5.07397
-5.09594
-5.11846
-5.14143
-5.16479
-5.18843
-5.21228
-5.23624
-5.26021
-5.2841
-5.30779
-5.33118
-5.35417
-5.37663
-5.39846
-5.41954
-5.43976
-5.45899
-5.47711
-5.49401
-5.50957
-5.52367
-5.53618
-5.547
-5.556
-5.56306
-5.56809
-5.57096
-5.57156
-5.56979
-5.56554
-5.55873
-5.54924
-5.53699
-5.52189
-5.50387
-5.48283
-5.45871
-5.43144
-5.40096
-5.36722
-5.33016
-5.28974
-5.24592
-5.19864
-5.14786
-5.09355
-5.03569
-4.97426
-4.90926
-4.84068
-4.76853
-4.69282
-4.61356
-4.53076
-4.44446
-4.35468
-4.26146
-4.16483
-4.06485
-3.96155
-3.855
-3.74525
-3.63236
-3.5164
-3.39744
-3.27555
-3.15082
-3.02333
-2.89317
-2.76042
-2.62519
-2.48756
-2.34765
-2.20555
-2.06138
-1.91525
-1.76726
-1.61754
-1.4662
-1.31337
-1.15916
-1.00372
-0.847156
-0.689607
-0.531203
-0.372075
-0.212356
-0.0521813
0.108314
0.268995
0.429727
0.590375
0.750803
0.910879
1.07047
1.22944
1.38767
1.54502
1.70137
1.8566
2.01058
2.1632
2.31435
2.46391
2.61177
2.75785
2.90202
3.04421
3.18433
3.32227
3.45798
3.59137
3.72237
3.85091
3.97693
4.10039
4.22123
4.3394
4.45487
4.56761
4.67761
4.78483
4.88926
4.9909
5.08973
5.18576
5.27899
5.36942
5.45705
5.5419
5.62398
5.70331
5.7799
5.85378
5.92497
5.99349
6.05936
6.12261
6.18326
6.24134
6.29685
6.34983
6.40028
6.44822
6.49363
6.53651
6.57683
6.61453
6.64951
6.68162
6.71062
6.73607
6.75768
6.7734
6.78816
6.77238
-4.80404
-4.80568
-4.80854
-4.81246
-4.81712
-4.82248
-4.82858
-4.83547
-4.84321
-4.85185
-4.86143
-4.87197
-4.8835
-4.89603
-4.90956
-4.92409
-4.93959
-4.95606
-4.97344
-4.99171
-5.01082
-5.03073
-5.05136
-5.07267
-5.09457
-5.11701
-5.13989
-5.16314
-5.18667
-5.21038
-5.23418
-5.25797
-5.28165
-5.3051
-5.32823
-5.35093
-5.37308
-5.39456
-5.41527
-5.43509
-5.45389
-5.47158
-5.48802
-5.5031
-5.51671
-5.52872
-5.53903
-5.54751
-5.55407
-5.55858
-5.56094
-5.56104
-5.55878
-5.55405
-5.54677
-5.53683
-5.52416
-5.50865
-5.49024
-5.46884
-5.44439
-5.41682
-5.38606
-5.35208
-5.31481
-5.27421
-5.2302
-5.18274
-5.13179
-5.07734
-5.01935
-4.95783
-4.89276
-4.82413
-4.75196
-4.67625
-4.59701
-4.51427
-4.42804
-4.33836
-4.24526
-4.14878
-4.04896
-3.94585
-3.83951
-3.72999
-3.61734
-3.50165
-3.38297
-3.26138
-3.13696
-3.0098
-2.87998
-2.74758
-2.61271
-2.47546
-2.33593
-2.19423
-2.05045
-1.90472
-1.75715
-1.60785
-1.45693
-1.30453
-1.15076
-0.99575
-0.839626
-0.682517
-0.524554
-0.365868
-0.206593
-0.0468613
0.113192
0.273431
0.433723
0.593932
0.753925
0.913568
1.07273
1.23128
1.38908
1.54601
1.70195
1.85678
2.01036