/*--------------------------------*- C++ -*----------------------------------*\
| =========                 |                                                 |
| \\      /  F ield         | OpenFOAM: The Open Source CFD Toolbox           |
|  \\    /   O peration     | Version:  2412                                  |
|   \\  /    A nd           | Website:  www.openfoam.com                      |
|    \\/     M anipulation  |                                                 |
\*---------------------------------------------------------------------------*/
FoamFile
{
    version     2.0;
    format      ascii;
    arch        "LSB;label=32;scalar=64";
    class       surfaceScalarField;
    location    "0.13";
    object      phi;
}
// * * * * * * * * * * * * * * * * * * * * * * * * * * * * * * * * * * * * * //

dimensions      [0 3 -1 0 0 0 0];

oriented        oriented;

internalField   nonuniform List<scalar> 
24170
(
1.36706e-07
-5.71619e-08
1.9562e-07
-5.89138e-08
2.57915e-07
-6.22948e-08
3.11666e-07
-5.37513e-08
3.618e-07
-5.01339e-08
4.07904e-07
-4.61044e-08
4.49544e-07
-4.16401e-08
4.87062e-07
-3.75175e-08
5.20843e-07
-3.37809e-08
5.51224e-07
-3.03814e-08
5.78531e-07
-2.73066e-08
6.03054e-07
-2.45234e-08
6.25037e-07
-2.1983e-08
6.44657e-07
-1.96196e-08
6.62052e-07
-1.73954e-08
6.77105e-07
-1.50527e-08
6.89861e-07
-1.27564e-08
-8.30335e-09
6.98165e-07
3.26112e-07
-1.24821e-07
3.94131e-07
-1.26932e-07
4.55882e-07
-1.24046e-07
5.14177e-07
-1.12046e-07
5.67666e-07
-1.03623e-07
6.16616e-07
-9.50545e-08
6.61251e-07
-8.62746e-08
7.01794e-07
-7.80602e-08
7.38541e-07
-7.05288e-08
7.71815e-07
-6.36547e-08
8.01919e-07
-5.74107e-08
8.29128e-07
-5.17323e-08
8.53674e-07
-4.6529e-08
8.75737e-07
-4.1683e-08
8.95433e-07
-3.70914e-08
9.12765e-07
-3.23847e-08
9.27822e-07
-2.78129e-08
-2.01749e-08
9.39693e-07
5.17244e-07
-1.71609e-07
5.79149e-07
-1.88837e-07
6.38205e-07
-1.83103e-07
6.95358e-07
-1.69199e-07
7.48165e-07
-1.5643e-07
7.96763e-07
-1.43653e-07
8.41399e-07
-1.30911e-07
8.82209e-07
-1.1887e-07
9.19408e-07
-1.07728e-07
9.5326e-07
-9.7507e-08
9.84027e-07
-8.8177e-08
1.01195e-06
-7.9653e-08
1.03723e-06
-7.18135e-08
1.06005e-06
-6.45017e-08
1.08051e-06
-5.75512e-08
1.09872e-06
-5.05895e-08
1.11447e-06
-4.35688e-08
-3.36489e-08
1.12794e-06
7.43479e-07
-1.95419e-07
7.91917e-07
-2.37276e-07
8.43824e-07
-2.35009e-07
8.96351e-07
-2.21726e-07
9.46007e-07
-2.06086e-07
9.92279e-07
-1.89924e-07
1.03518e-06
-1.73815e-07
1.07472e-06
-1.58407e-07
1.111e-06
-1.44007e-07
1.1442e-06
-1.30707e-07
1.17452e-06
-1.18494e-07
1.20214e-06
-1.07279e-07
1.22725e-06
-9.69239e-08
1.25e-06
-8.72462e-08
1.27048e-06
-7.8035e-08
1.28881e-06
-6.89216e-08
1.30488e-06
-5.964e-08
-4.8079e-08
1.31931e-06
1.01492e-06
-1.99872e-07
1.0473e-06
-2.69657e-07
1.08853e-06
-2.76231e-07
1.13338e-06
-2.66583e-07
1.1775e-06
-2.50207e-07
1.21949e-06
-2.31913e-07
1.25898e-06
-2.13298e-07
1.29576e-06
-1.9519e-07
1.32981e-06
-1.78054e-07
1.36119e-06
-1.62086e-07
1.39001e-06
-1.47317e-07
1.4164e-06
-1.33675e-07
1.4405e-06
-1.21021e-07
1.46242e-06
-1.09166e-07
1.48226e-06
-9.78754e-08
1.50014e-06
-8.68002e-08
1.51609e-06
-7.55927e-08
-6.27803e-08
1.53079e-06
1.33808e-06
-1.90512e-07
1.35426e-06
-2.85839e-07
1.38244e-06
-3.04409e-07
1.41694e-06
-3.01086e-07
1.45314e-06
-2.86406e-07
1.48881e-06
-2.67577e-07
1.52308e-06
-2.47577e-07
1.55554e-06
-2.27641e-07
1.58595e-06
-2.08465e-07
1.61425e-06
-1.90389e-07
1.64045e-06
-1.73521e-07
1.66461e-06
-1.5783e-07
1.68679e-06
-1.432e-07
1.70707e-06
-1.29449e-07
1.72554e-06
-1.16349e-07
1.74233e-06
-1.03588e-07
1.75757e-06
-9.08262e-08
-7.70775e-08
1.77186e-06
1.71767e-06
-1.729e-07
1.7193e-06
-2.87466e-07
1.73352e-06
-3.18635e-07
1.7557e-06
-3.23266e-07
1.78181e-06
-3.12513e-07
1.80914e-06
-2.94905e-07
1.83639e-06
-2.74828e-07
1.86286e-06
-2.54113e-07
1.88814e-06
-2.33749e-07
1.91202e-06
-2.14267e-07
1.93439e-06
-1.95885e-07
1.9552e-06
-1.78642e-07
1.97446e-06
-1.62462e-07
1.99221e-06
-1.47197e-07
2.0085e-06
-1.32644e-07
2.02346e-06
-1.18547e-07
2.03726e-06
-1.04622e-07
-9.02399e-08
2.05042e-06
2.15733e-06
-1.51544e-07
2.14717e-06
-2.773e-07
2.14804e-06
-3.19503e-07
2.15703e-06
-3.32256e-07
2.17145e-06
-3.26937e-07
2.1887e-06
-3.12158e-07
2.20723e-06
-2.93352e-07
2.22611e-06
-2.72996e-07
2.24477e-06
-2.52409e-07
2.26284e-06
-2.32335e-07
2.28009e-06
-2.13137e-07
2.29639e-06
-1.94942e-07
2.31167e-06
-1.77741e-07
2.3259e-06
-1.61434e-07
2.33913e-06
-1.45868e-07
2.35143e-06
-1.30849e-07
2.36298e-06
-1.16174e-07
-1.01471e-07
2.37421e-06
2.66011e-06
-1.29464e-07
2.64126e-06
-2.58453e-07
2.63056e-06
-3.08798e-07
2.62677e-06
-3.28472e-07
2.62885e-06
-3.29015e-07
2.63488e-06
-3.18184e-07
2.64334e-06
-3.01813e-07
2.65325e-06
-2.82905e-07
2.66392e-06
-2.63079e-07
2.67487e-06
-2.43285e-07
2.68577e-06
-2.24036e-07
2.69639e-06
-2.05568e-07
2.7066e-06
-1.87952e-07
2.71632e-06
-1.71153e-07
2.72553e-06
-1.55079e-07
2.73429e-06
-1.39608e-07
2.74274e-06
-1.2462e-07
-1.09926e-07
2.75119e-06
3.22873e-06
-1.08339e-07
3.20399e-06
-2.33713e-07
3.18406e-06
-2.88865e-07
3.16902e-06
-3.13427e-07
3.15919e-06
-3.19193e-07
3.15372e-06
-3.12705e-07
3.15142e-06
-2.99522e-07
3.15144e-06
-2.82921e-07
3.15309e-06
-2.64727e-07
3.15584e-06
-2.46041e-07
3.15932e-06
-2.27509e-07
3.16322e-06
-2.09472e-07
3.16736e-06
-1.92087e-07
3.17159e-06
-1.75391e-07
3.17588e-06
-1.5936e-07
3.18021e-06
-1.43939e-07
3.18468e-06
-1.29094e-07
-1.14753e-07
3.18951e-06
3.8657e-06
-8.90137e-08
3.83717e-06
-2.05182e-07
3.81024e-06
-2.61932e-07
3.78604e-06
-2.89227e-07
3.76574e-06
-2.98896e-07
3.74946e-06
-2.96422e-07
3.73658e-06
-2.8664e-07
3.72648e-06
-2.72822e-07
3.71862e-06
-2.56873e-07
3.71255e-06
-2.39964e-07
3.70786e-06
-2.22821e-07
3.70426e-06
-2.0587e-07
3.70151e-06
-1.8934e-07
3.69946e-06
-1.73339e-07
3.698e-06
-1.57905e-07
3.69711e-06
-1.43044e-07
3.69681e-06
-1.28796e-07
-1.15158e-07
3.69721e-06
3.81123e-06
-7.33395e-08
3.78551e-06
-1.79464e-07
3.75882e-06
-2.3524e-07
3.73298e-06
-2.63382e-07
3.70929e-06
-2.75207e-07
3.68834e-06
-2.75475e-07
3.67004e-06
-2.68339e-07
3.65412e-06
-2.56905e-07
3.64031e-06
-2.43061e-07
3.62832e-06
-2.27969e-07
3.61787e-06
-2.12376e-07
3.60875e-06
-1.96746e-07
3.60076e-06
-1.81352e-07
3.59377e-06
-1.66347e-07
3.58767e-06
-1.51812e-07
3.58243e-06
-1.37799e-07
3.57798e-06
-1.24345e-07
-1.11692e-07
3.57451e-06
5.03713e-06
-5.77063e-08
5.00706e-06
-1.49401e-07
4.97359e-06
-2.01772e-07
4.9395e-06
-2.29288e-07
4.90649e-06
-2.42198e-07
4.87571e-06
-2.44692e-07
4.84745e-06
-2.40084e-07
4.8217e-06
-2.31152e-07
4.79834e-06
-2.19697e-07
4.77719e-06
-2.06825e-07
4.75807e-06
-1.93254e-07
4.74078e-06
-1.79453e-07
4.72515e-06
-1.65719e-07
4.71103e-06
-1.52234e-07
4.69833e-06
-1.39109e-07
4.68696e-06
-1.26432e-07
4.67688e-06
-1.14263e-07
-1.02945e-07
4.66813e-06
6.66244e-06
-4.26701e-08
6.62912e-06
-1.16086e-07
6.58916e-06
-1.6181e-07
6.54668e-06
-1.8681e-07
6.50382e-06
-1.99342e-07
6.46225e-06
-2.03118e-07
6.42276e-06
-2.0059e-07
6.38561e-06
-1.94008e-07
6.35091e-06
-1.84993e-07
6.31864e-06
-1.74557e-07
6.28873e-06
-1.63348e-07
6.26108e-06
-1.51802e-07
6.23557e-06
-1.4021e-07
6.2121e-06
-1.28761e-07
6.19057e-06
-1.17582e-07
6.17091e-06
-1.0677e-07
6.15305e-06
-9.64066e-08
-8.68563e-08
6.13697e-06
8.79086e-06
-2.88662e-08
8.75645e-06
-8.16792e-08
8.71174e-06
-1.17096e-07
8.66205e-06
-1.37125e-07
8.6101e-06
-1.47389e-07
8.558e-06
-1.51019e-07
8.50712e-06
-1.49713e-07
8.45815e-06
-1.45036e-07
8.41143e-06
-1.38272e-07
8.36715e-06
-1.30272e-07
8.32537e-06
-1.21574e-07
8.28612e-06
-1.12548e-07
8.24935e-06
-1.03446e-07
8.21503e-06
-9.44428e-08
8.18311e-06
-8.56582e-08
8.15353e-06
-7.71852e-08
8.12621e-06
-6.90922e-08
-6.1757e-08
8.10111e-06
1.15181e-05
-1.6591e-08
1.14847e-05
-4.83734e-08
1.14383e-05
-7.0685e-08
1.13845e-05
-8.32881e-08
1.13264e-05
-8.92928e-08
1.12664e-05
-9.10127e-08
1.12063e-05
-8.95918e-08
1.11472e-05
-8.59435e-08
1.10898e-05
-8.08986e-08
1.10346e-05
-7.50504e-08
1.09818e-05
-6.87738e-08
1.09316e-05
-6.23196e-08
1.0884e-05
-5.58669e-08
1.08391e-05
-4.95425e-08
1.07969e-05
-4.34417e-08
1.07573e-05
-3.76409e-08
1.07204e-05
-3.21678e-08
-2.74059e-08
1.0686e-05
1.48842e-05
-5.383e-09
1.48525e-05
-1.66535e-08
1.48063e-05
-2.44521e-08
1.4751e-05
-2.80543e-08
1.46904e-05
-2.86225e-08
1.46267e-05
-2.73253e-08
1.45618e-05
-2.47509e-08
1.44972e-05
-2.12959e-08
1.44336e-05
-1.73401e-08
1.43718e-05
-1.31771e-08
1.4312e-05
-8.99128e-09
1.42546e-05
-4.90072e-09
1.41997e-05
-9.99647e-10
1.41475e-05
2.67902e-09
1.4098e-05
6.06732e-09
1.40512e-05
9.12494e-09
1.40071e-05
1.18813e-08
1.39859e-08
1.39658e-05
1.8769e-05
6.2928e-09
1.87365e-05
1.5881e-08
1.86883e-05
2.37397e-08
1.86301e-05
3.01377e-08
1.85661e-05
3.54166e-08
1.84989e-05
3.98418e-08
1.84306e-05
4.35808e-08
1.83625e-05
4.67569e-08
1.82957e-05
4.94649e-08
1.82308e-05
5.17714e-08
1.8168e-05
5.37209e-08
1.81078e-05
5.53434e-08
1.80501e-05
5.66588e-08
1.79951e-05
5.76786e-08
1.79428e-05
5.84074e-08
1.78931e-05
5.8833e-08
1.7846e-05
5.90145e-08
5.86917e-08
1.78013e-05
2.26768e-05
1.70217e-08
2.26399e-05
5.28305e-08
2.25835e-05
8.01329e-08
2.25149e-05
9.87268e-08
2.24392e-05
1.11107e-07
2.23597e-05
1.19279e-07
2.2279e-05
1.24303e-07
2.21988e-05
1.26957e-07
2.21204e-05
1.27937e-07
2.20444e-05
1.27766e-07
2.19713e-05
1.26785e-07
2.19014e-05
1.2522e-07
2.18348e-05
1.23232e-07
2.17716e-05
1.20933e-07
2.17116e-05
1.18401e-07
2.16547e-05
1.15682e-07
2.16009e-05
1.12838e-07
1.09728e-07
2.15499e-05
1.5604e-05
3.26646e-08
1.55641e-05
9.26827e-08
1.55091e-05
1.35135e-07
1.54457e-05
1.62145e-07
1.53778e-05
1.79014e-07
1.53081e-05
1.88958e-07
1.52387e-05
1.93695e-07
1.5171e-05
1.94686e-07
1.51057e-05
1.93172e-07
1.50435e-05
1.9002e-07
1.49845e-05
1.85792e-07
1.49288e-05
1.80875e-07
1.48765e-05
1.75543e-07
1.48275e-05
1.69987e-07
1.47815e-05
1.64337e-07
1.47385e-05
1.58686e-07
1.46983e-05
1.53095e-07
1.47505e-07
1.46605e-05
1.23902e-05
5.12535e-08
1.23448e-05
1.38148e-07
1.22864e-05
1.93482e-07
1.22226e-05
2.26013e-07
1.21567e-05
2.44891e-07
1.20914e-05
2.5423e-07
1.20285e-05
2.56565e-07
1.1969e-05
2.54226e-07
1.19132e-05
2.48969e-07
1.18613e-05
2.41915e-07
1.18133e-05
2.3379e-07
1.17691e-05
2.25095e-07
1.17285e-05
2.16171e-07
1.16912e-05
2.07245e-07
1.16571e-05
1.98463e-07
1.16258e-05
1.89925e-07
1.15973e-05
1.81674e-07
1.737e-07
1.15711e-05
9.55929e-06
7.5558e-08
9.50979e-06
1.87643e-07
9.45373e-06
2.49539e-07
9.39694e-06
2.8281e-07
9.34177e-06
3.00063e-07
9.29021e-06
3.05783e-07
9.24323e-06
3.03551e-07
9.20095e-06
2.96507e-07
9.16322e-06
2.86694e-07
9.12979e-06
2.75342e-07
9.10033e-06
2.63251e-07
9.07448e-06
2.50953e-07
9.05186e-06
2.3879e-07
9.03213e-06
2.26968e-07
9.01499e-06
2.15611e-07
9.00012e-06
2.04788e-07
8.98728e-06
1.94516e-07
1.84798e-07
8.97618e-06
7.18003e-06
1.04974e-07
7.13265e-06
2.35028e-07
7.08702e-06
2.95169e-07
7.04546e-06
3.24369e-07
7.00926e-06
3.36268e-07
6.97934e-06
3.35696e-07
6.95539e-06
3.27499e-07
6.93664e-06
3.15258e-07
6.92236e-06
3.00981e-07
6.91186e-06
2.85837e-07
6.90455e-06
2.70566e-07
6.89987e-06
2.55625e-07
6.89739e-06
2.41271e-07
6.89672e-06
2.2764e-07
6.89754e-06
2.14791e-07
6.89959e-06
2.02741e-07
6.90264e-06
1.91466e-07
1.80964e-07
6.90647e-06
5.24556e-06
1.38129e-07
5.20787e-06
2.72719e-07
5.18045e-06
3.2259e-07
5.16165e-06
3.4317e-07
5.1514e-06
3.46518e-07
5.14864e-06
3.38451e-07
5.15155e-06
3.24588e-07
5.15863e-06
3.08181e-07
5.16878e-06
2.90836e-07
5.18113e-06
2.73477e-07
5.19505e-06
2.56653e-07
5.21001e-06
2.40659e-07
5.22565e-06
2.25631e-07
5.24168e-06
2.11609e-07
5.25789e-06
1.98584e-07
5.27412e-06
1.86516e-07
5.29023e-06
1.75349e-07
1.65069e-07
5.30613e-06
3.71461e-06
1.71649e-07
3.69608e-06
2.91256e-07
3.69444e-06
3.24229e-07
3.70437e-06
3.33237e-07
3.72346e-06
3.27429e-07
3.74845e-06
3.13461e-07
3.77677e-06
2.96265e-07
3.80688e-06
2.78072e-07
3.83778e-06
2.59937e-07
3.86879e-06
2.4247e-07
3.89945e-06
2.25994e-07
3.92946e-06
2.10645e-07
3.95864e-06
1.96449e-07
3.98688e-06
1.83376e-07
4.0141e-06
1.71361e-07
4.04029e-06
1.60329e-07
4.06543e-06
1.50203e-07
1.40968e-07
4.08953e-06
2.5354e-06
1.96847e-07
2.54625e-06
2.80406e-07
2.57487e-06
2.95606e-07
2.6142e-06
2.93908e-07
2.65967e-06
2.81961e-07
2.70729e-06
2.65844e-07
2.75502e-06
2.48527e-07
2.80188e-06
2.31214e-07
2.84727e-06
2.14552e-07
2.89084e-06
1.98895e-07
2.93245e-06
1.8439e-07
2.97203e-06
1.71065e-07
3.0096e-06
1.5888e-07
3.04521e-06
1.47763e-07
3.07894e-06
1.37625e-07
3.11089e-06
1.28379e-07
3.14115e-06
1.19943e-07
1.12315e-07
3.16981e-06
1.6547e-06
1.99259e-07
1.70057e-06
2.34535e-07
1.75709e-06
2.39087e-07
1.81983e-06
2.3116e-07
1.88379e-06
2.18003e-07
1.946e-06
2.03636e-07
2.00559e-06
1.8894e-07
2.06219e-06
1.74613e-07
2.11562e-06
1.61122e-07
2.16587e-06
1.48646e-07
2.21303e-06
1.37227e-07
2.25726e-06
1.26839e-07
2.29872e-06
1.17418e-07
2.3376e-06
1.08881e-07
2.37408e-06
1.01142e-07
2.40834e-06
9.41179e-08
2.44056e-06
8.773e-08
8.20159e-08
2.47086e-06
1.01827e-06
1.63847e-07
1.09488e-06
1.57926e-07
1.17024e-06
1.63725e-07
1.2467e-06
1.54704e-07
1.3201e-06
1.44606e-07
1.38908e-06
1.34651e-07
1.45372e-06
1.24304e-07
1.51406e-06
1.14274e-07
1.5702e-06
1.04974e-07
1.62238e-06
9.64691e-08
1.67086e-06
8.87474e-08
1.71593e-06
8.17735e-08
1.75786e-06
7.54881e-08
1.79692e-06
6.98221e-08
1.83335e-06
6.47076e-08
1.86738e-06
6.0084e-08
1.89924e-06
5.58718e-08
5.21469e-08
1.92911e-06
5.69237e-07
8.45265e-08
6.58983e-07
6.818e-08
7.40766e-07
8.19423e-08
8.20863e-07
7.46066e-08
8.95865e-07
6.96046e-08
9.6542e-07
6.50954e-08
1.02984e-06
5.988e-08
1.08935e-06
5.47647e-08
1.14423e-06
5.00993e-08
1.19482e-06
4.58728e-08
1.24152e-06
4.20561e-08
1.28466e-06
3.86287e-08
1.32459e-06
3.55565e-08
1.36161e-06
3.27998e-08
1.396e-06
3.03204e-08
1.428e-06
2.80896e-08
1.45783e-06
2.60353e-08
2.42064e-08
1.48577e-06
2.22451e-07
2.90631e-07
3.72573e-07
4.4718e-07
5.16784e-07
5.8188e-07
6.4176e-07
6.96524e-07
7.46624e-07
7.92496e-07
8.34553e-07
8.73181e-07
9.08738e-07
9.41538e-07
9.71858e-07
9.99948e-07
1.02598e-06
1.05019e-06
2.42258e-08
-2.42258e-08
5.16468e-08
-2.7421e-08
7.32558e-08
-2.1609e-08
8.6734e-08
-1.34783e-08
9.1505e-08
-4.771e-09
8.80098e-08
3.49525e-09
7.75871e-08
1.04227e-08
6.18679e-08
1.57191e-08
4.23238e-08
1.95441e-08
1.99692e-08
2.23547e-08
-4.68116e-09
2.46503e-08
-3.15401e-08
2.68589e-08
-6.07564e-08
2.92163e-08
-9.2524e-08
3.17676e-08
-1.27005e-07
3.44812e-08
-1.64282e-07
3.72769e-08
-2.04345e-07
4.00626e-08
-2.47095e-07
4.275e-08
-2.92356e-07
4.52609e-08
-3.39886e-07
4.75302e-08
-3.89394e-07
4.95081e-08
-4.40554e-07
5.11604e-08
-4.93023e-07
5.24685e-08
-5.46452e-07
5.34288e-08
-6.00502e-07
5.40502e-08
-6.54854e-07
5.43522e-08
-7.09219e-07
5.43646e-08
-7.63348e-07
5.41292e-08
-8.17044e-07
5.36963e-08
-8.70151e-07
5.31072e-08
-9.22534e-07
5.23828e-08
-9.74081e-07
5.15463e-08
-1.0247e-06
5.06192e-08
-1.07432e-06
4.9621e-08
-1.12289e-06
4.85688e-08
-1.17037e-06
4.7477e-08
-1.21672e-06
4.63574e-08
-1.26194e-06
4.52191e-08
-1.30601e-06
4.40693e-08
-1.34893e-06
4.29129e-08
-1.39068e-06
4.17533e-08
-1.43127e-06
4.05926e-08
-1.4707e-06
3.94318e-08
-1.50897e-06
3.82711e-08
-1.54608e-06
3.71101e-08
-1.58203e-06
3.59481e-08
-1.61682e-06
3.47839e-08
-1.65043e-06
3.36165e-08
-1.68288e-06
3.24445e-08
-1.71414e-06
3.1267e-08
-1.74423e-06
3.00828e-08
-1.77312e-06
2.88911e-08
-1.80081e-06
2.76911e-08
-1.82729e-06
2.64822e-08
-1.85256e-06
2.5264e-08
-1.87659e-06
2.40363e-08
-1.89939e-06
2.27991e-08
-1.92094e-06
2.15521e-08
-1.94124e-06
2.02956e-08
-1.96027e-06
1.90296e-08
-1.97802e-06
1.77543e-08
-1.99449e-06
1.64697e-08
-2.00967e-06
1.51755e-08
-2.02354e-06
1.38714e-08
-2.0361e-06
1.25564e-08
-2.04732e-06
1.12293e-08
-2.05721e-06
9.88698e-09
-2.06574e-06
8.52604e-09
-2.07288e-06
7.14219e-09
-2.07861e-06
5.72872e-09
-2.08289e-06
4.27657e-09
-2.08567e-06
2.78217e-09
-2.08692e-06
1.25e-09
-2.08659e-06
-3.25922e-10
-2.085e-06
-1.58935e-09
-2.08219e-06
-2.80901e-09
-2.07821e-06
-3.9818e-09
-2.07308e-06
-5.12793e-09
-2.06682e-06
-6.25963e-09
-2.05944e-06
-7.3814e-09
-2.05095e-06
-8.49499e-09
-2.04135e-06
-9.60072e-09
-2.03065e-06
-1.06983e-08
-2.01886e-06
-1.17872e-08
-2.00599e-06
-1.2867e-08
-1.99206e-06
-1.39369e-08
-1.97706e-06
-1.49965e-08
-1.96102e-06
-1.60451e-08
-1.94393e-06
-1.70822e-08
-1.92583e-06
-1.81073e-08
-1.90671e-06
-1.91199e-08
-1.88659e-06
-2.01196e-08
-1.86548e-06
-2.11059e-08
-1.8434e-06
-2.20785e-08
-1.82037e-06
-2.30368e-08
-1.79638e-06
-2.39806e-08
-1.77148e-06
-2.49094e-08
-1.74565e-06
-2.58229e-08
-1.71893e-06
-2.67205e-08
-1.69133e-06
-2.76021e-08
-1.66286e-06
-2.84671e-08
-1.63355e-06
-2.93153e-08
-1.6034e-06
-3.01462e-08
-1.57244e-06
-3.09594e-08
-1.54069e-06
-3.17545e-08
-1.50816e-06
-3.2531e-08
-1.47487e-06
-3.32886e-08
-1.44084e-06
-3.40266e-08
-1.4061e-06
-3.47447e-08
-1.37065e-06
-3.54423e-08
-1.33454e-06
-3.6119e-08
-1.29776e-06
-3.67742e-08
-1.26035e-06
-3.74074e-08
-1.22234e-06
-3.8018e-08
-1.18373e-06
-3.86056e-08
-1.14456e-06
-3.91694e-08
-1.10485e-06
-3.9709e-08
-1.06463e-06
-4.02238e-08
-1.02391e-06
-4.07132e-08
-9.82738e-07
-4.11768e-08
-9.41124e-07
-4.16139e-08
-8.991e-07
-4.20241e-08
-8.56693e-07
-4.24068e-08
-8.13932e-07
-4.27615e-08
-7.70844e-07
-4.30878e-08
-7.27459e-07
-4.33851e-08
-6.83806e-07
-4.36532e-08
-6.39914e-07
-4.38914e-08
-5.95815e-07
-4.40995e-08
-5.51538e-07
-4.42769e-08
-5.07114e-07
-4.44234e-08
-4.62576e-07
-4.45384e-08
-4.17955e-07
-4.46215e-08
-3.73282e-07
-4.46721e-08
-3.28593e-07
-4.46896e-08
-2.8392e-07
-4.46731e-08
-2.39298e-07
-4.46215e-08
-1.94764e-07
-4.45337e-08
-1.50358e-07
-4.44065e-08
-1.06115e-07
-4.42427e-08
-6.20725e-08
-4.40426e-08
-1.82748e-08
-4.37978e-08
2.52357e-08
-4.35105e-08
6.84145e-08
-4.31788e-08
1.11231e-07
-4.28166e-08
1.53669e-07
-4.24384e-08
1.95719e-07
-4.20494e-08
2.37365e-07
-4.16463e-08
2.78591e-07
-4.12263e-08
3.19379e-07
-4.07876e-08
3.59708e-07
-4.03292e-08
3.99559e-07
-3.98507e-08
4.38911e-07
-3.93524e-08
4.77746e-07
-3.88348e-08
5.16045e-07
-3.82988e-08
5.5379e-07
-3.77453e-08
5.90966e-07
-3.71754e-08
6.27556e-07
-3.65905e-08
6.63548e-07
-3.59918e-08
6.98928e-07
-3.53806e-08
7.33687e-07
-3.47584e-08
7.67813e-07
-3.41264e-08
8.01299e-07
-3.34856e-08
8.34136e-07
-3.28369e-08
8.66316e-07
-3.21805e-08
8.97832e-07
-3.15158e-08
9.28673e-07
-3.08411e-08
9.58826e-07
-3.01526e-08
9.88269e-07
-2.94436e-08
1.01697e-06
-2.8703e-08
1.04488e-06
-2.79121e-08
1.07192e-06
-2.70401e-08
1.09796e-06
-2.60349e-08
1.12277e-06
-2.48058e-08
1.14594e-06
-2.31752e-08
1.16673e-06
-2.07921e-08
1.18342e-06
-1.66922e-08
1.19196e-06
-8.5321e-09
1.1795e-06
1.24565e-08
5.76258e-08
1.12187e-06
1.92264e-08
-4.34522e-08
2.68176e-08
-3.50121e-08
2.5453e-08
-2.02444e-08
1.78211e-08
-5.84638e-09
5.48726e-09
7.56284e-09
-1.07584e-08
1.97409e-08
-3.08244e-08
3.04888e-08
-5.48058e-08
3.97005e-08
-8.2753e-08
4.74913e-08
-1.14579e-07
5.41812e-08
-1.50088e-07
6.01586e-08
-1.8898e-07
6.57509e-08
-2.30918e-07
7.11549e-08
-2.75579e-07
7.6428e-08
-3.22625e-07
8.15281e-08
-3.7171e-07
8.63611e-08
-4.22465e-07
9.08177e-08
-4.74511e-07
9.47968e-08
-5.27468e-07
9.82175e-08
-5.80963e-07
1.01025e-07
-6.34646e-07
1.03192e-07
-6.88202e-07
1.04716e-07
-7.41353e-07
1.05619e-07
-7.93865e-07
1.05941e-07
-8.45551e-07
1.05736e-07
-8.96266e-07
1.05067e-07
-9.45904e-07
1.04003e-07
-9.9439e-07
1.02615e-07
-1.04167e-06
1.00974e-07
-1.08769e-06
9.91337e-08
-1.13245e-06
9.71412e-08
-1.17594e-06
9.50354e-08
-1.21817e-06
9.28493e-08
-1.25916e-06
9.06098e-08
-1.29893e-06
8.83384e-08
-1.3375e-06
8.60514e-08
-1.37491e-06
8.3761e-08
-1.41116e-06
8.14754e-08
-1.44629e-06
7.92e-08
-1.48032e-06
7.69373e-08
-1.51325e-06
7.46882e-08
-1.54511e-06
7.2452e-08
-1.57591e-06
7.02268e-08
-1.60565e-06
6.80104e-08
-1.63434e-06
6.57997e-08
-1.66198e-06
6.35917e-08
-1.68858e-06
6.13834e-08
-1.71414e-06
5.91717e-08
-1.73865e-06
5.6954e-08
-1.76211e-06
5.47277e-08
-1.78451e-06
5.24908e-08
-1.80586e-06
5.02415e-08
-1.82615e-06
4.79784e-08
-1.84537e-06
4.57004e-08
-1.86351e-06
4.34069e-08
-1.88057e-06
4.10974e-08
-1.89655e-06
3.87719e-08
-1.91143e-06
3.64306e-08
-1.9252e-06
3.40737e-08
-1.93788e-06
3.17017e-08
-1.94944e-06
2.93154e-08
-1.95988e-06
2.69152e-08
-1.96921e-06
2.45019e-08
-1.97741e-06
2.2076e-08
-1.98449e-06
1.96383e-08
-1.99045e-06
1.71892e-08
-1.9953e-06
1.47292e-08
-1.99903e-06
1.22594e-08
-2.00167e-06
9.78163e-09
-2.00324e-06
7.29944e-09
-2.00378e-06
4.81919e-09
-2.00335e-06
2.35119e-09
-2.00207e-06
-3.20866e-11
-1.99994e-06
-2.45369e-09
-1.99679e-06
-4.7452e-09
-1.99258e-06
-7.01921e-09
-1.98728e-06
-9.27829e-09
-1.98089e-06
-1.15225e-08
-1.97339e-06
-1.37533e-08
-1.9648e-06
-1.59713e-08
-1.95512e-06
-1.81758e-08
-1.94436e-06
-2.03661e-08
-1.93251e-06
-2.2541e-08
-1.9196e-06
-2.46994e-08
-1.90563e-06
-2.68399e-08
-1.8906e-06
-2.89612e-08
-1.87454e-06
-3.10622e-08
-1.85744e-06
-3.31417e-08
-1.83932e-06
-3.51985e-08
-1.8202e-06
-3.72317e-08
-1.80008e-06
-3.92403e-08
-1.77898e-06
-4.12234e-08
-1.7569e-06
-4.318e-08
-1.73387e-06
-4.51093e-08
-1.7099e-06
-4.70106e-08
-1.68499e-06
-4.8883e-08
-1.65918e-06
-5.07256e-08
-1.63246e-06
-5.25378e-08
-1.60487e-06
-5.43186e-08
-1.5764e-06
-5.60674e-08
-1.54708e-06
-5.77833e-08
-1.51693e-06
-5.94656e-08
-1.48597e-06
-6.11134e-08
-1.4542e-06
-6.27261e-08
-1.42165e-06
-6.43026e-08
-1.38834e-06
-6.58421e-08
-1.35429e-06
-6.73437e-08
-1.31951e-06
-6.88065e-08
-1.28402e-06
-7.02293e-08
-1.24785e-06
-7.16114e-08
-1.21102e-06
-7.29515e-08
-1.17354e-06
-7.42488e-08
-1.13545e-06
-7.55022e-08
-1.09676e-06
-7.67105e-08
-1.05749e-06
-7.78726e-08
-1.01767e-06
-7.89874e-08
-9.77328e-07
-8.00538e-08
-9.36481e-07
-8.10708e-08
-8.95157e-07
-8.20371e-08
-8.53382e-07
-8.29517e-08
-8.11182e-07
-8.38135e-08
-7.68585e-07
-8.46215e-08
-7.25617e-07
-8.53747e-08
-6.82306e-07
-8.60721e-08
-6.38681e-07
-8.67128e-08
-5.94771e-07
-8.72957e-08
-5.50604e-07
-8.78201e-08
-5.0621e-07
-8.82852e-08
-4.61619e-07
-8.86902e-08
-4.16862e-07
-8.90341e-08
-3.71969e-07
-8.93164e-08
-3.26971e-07
-8.95361e-08
-2.819e-07
-8.96924e-08
-2.36788e-07
-8.97843e-08
-1.91667e-07
-8.98108e-08
-1.4657e-07
-8.97703e-08
-1.0153e-07
-8.9661e-08
-5.65824e-08
-8.94817e-08
-1.17602e-08
-8.92288e-08
3.29e-08
-8.89029e-08
7.73621e-08
-8.85047e-08
1.21597e-07
-8.80327e-08
1.65578e-07
-8.74911e-08
2.0928e-07
-8.6881e-08
2.52677e-07
-8.62138e-08
2.95743e-07
-8.55045e-08
3.38453e-07
-8.47591e-08
3.80784e-07
-8.39773e-08
4.22715e-07
-8.31572e-08
4.64224e-07
-8.22971e-08
5.05292e-07
-8.13965e-08
5.45897e-07
-8.04555e-08
5.86019e-07
-7.94748e-08
6.2564e-07
-7.84558e-08
6.64741e-07
-7.74002e-08
7.03306e-07
-7.63101e-08
7.41319e-07
-7.51877e-08
7.78764e-07
-7.40356e-08
8.15628e-07
-7.28563e-08
8.519e-07
-7.16525e-08
8.87569e-07
-7.0427e-08
9.22624e-07
-6.91821e-08
9.57059e-07
-6.79199e-08
9.90864e-07
-6.6642e-08
1.02403e-06
-6.53487e-08
1.05656e-06
-6.40389e-08
1.08842e-06
-6.27088e-08
1.11962e-06
-6.1351e-08
1.15013e-06
-5.99521e-08
1.17992e-06
-5.84897e-08
1.20893e-06
-5.6927e-08
1.2371e-06
-5.52038e-08
1.26428e-06
-5.32186e-08
1.29027e-06
-5.07973e-08
1.31471e-06
-4.76136e-08
1.33697e-06
-4.30529e-08
1.35595e-06
-3.56727e-08
1.37022e-06
-2.28004e-08
1.37825e-06
4.42662e-09
5.97908e-08
1.37608e-06
-5.17591e-10
-4.29346e-08
-1.13548e-08
-2.41749e-08
-2.70656e-08
-4.53356e-09
-4.59277e-08
1.30156e-08
-6.74115e-08
2.90466e-08
-9.1386e-08
4.37154e-08
-1.17938e-07
5.70404e-08
-1.47256e-07
6.90187e-08
-1.79496e-07
7.97313e-08
-2.1467e-07
8.93559e-08
-2.52619e-07
9.81074e-08
-2.93035e-07
1.06166e-07
-3.35517e-07
1.13637e-07
-3.7963e-07
1.20541e-07
-4.24944e-07
1.26842e-07
-4.71054e-07
1.32471e-07
-5.17593e-07
1.37356e-07
-5.64237e-07
1.41441e-07
-6.10711e-07
1.44691e-07
-6.56789e-07
1.47103e-07
-7.02295e-07
1.48697e-07
-7.47096e-07
1.49517e-07
-7.91102e-07
1.49625e-07
-8.34255e-07
1.49095e-07
-8.76525e-07
1.48006e-07
-9.17901e-07
1.46442e-07
-9.58383e-07
1.44485e-07
-9.97978e-07
1.42211e-07
-1.03669e-06
1.39689e-07
-1.07454e-06
1.36977e-07
-1.11152e-06
1.34126e-07
-1.14766e-06
1.31174e-07
-1.18297e-06
1.28155e-07
-1.21745e-06
1.25095e-07
-1.25112e-06
1.22011e-07
-1.28399e-06
1.1892e-07
-1.31606e-06
1.1583e-07
-1.34733e-06
1.12747e-07
-1.37781e-06
1.09675e-07
-1.40749e-06
1.06614e-07
-1.43636e-06
1.03563e-07
-1.46443e-06
1.00519e-07
-1.49168e-06
9.74793e-08
-1.51811e-06
9.44403e-08
-1.54371e-06
9.13976e-08
-1.56846e-06
8.83473e-08
-1.59236e-06
8.52855e-08
-1.6154e-06
8.22084e-08
-1.63756e-06
7.91129e-08
-1.65883e-06
7.5996e-08
-1.67919e-06
7.28555e-08
-1.69864e-06
6.96894e-08
-1.71716e-06
6.64964e-08
-1.73473e-06
6.32755e-08
-1.75135e-06
6.00264e-08
-1.76701e-06
5.67491e-08
-1.78168e-06
5.34439e-08
-1.79536e-06
5.01117e-08
-1.80804e-06
4.67536e-08
-1.81971e-06
4.33709e-08
-1.83036e-06
3.99653e-08
-1.83998e-06
3.65386e-08
-1.84857e-06
3.30929e-08
-1.85613e-06
2.96303e-08
-1.86264e-06
2.61535e-08
-1.86812e-06
2.2665e-08
-1.87256e-06
1.91682e-08
-1.87596e-06
1.56671e-08
-1.87835e-06
1.21667e-08
-1.87972e-06
8.6733e-09
-1.8801e-06
5.19494e-09
-1.87949e-06
1.74286e-09
-1.87785e-06
-1.66893e-09
-1.87525e-06
-5.05725e-09
-1.87158e-06
-8.41107e-09
-1.86686e-06
-1.17467e-08
-1.86107e-06
-1.50683e-08
-1.85421e-06
-1.83766e-08
-1.8463e-06
-2.16703e-08
-1.83732e-06
-2.49481e-08
-1.82729e-06
-2.82081e-08
-1.8162e-06
-3.14482e-08
-1.80408e-06
-3.46665e-08
-1.79092e-06
-3.78609e-08
-1.77673e-06
-4.10293e-08
-1.76152e-06
-4.41699e-08
-1.7453e-06
-4.72809e-08
-1.72808e-06
-5.03603e-08
-1.70987e-06
-5.34066e-08
-1.69069e-06
-5.64182e-08
-1.67053e-06
-5.93937e-08
-1.64943e-06
-6.23316e-08
-1.62738e-06
-6.52305e-08
-1.6044e-06
-6.80893e-08
-1.5805e-06
-7.09065e-08
-1.5557e-06
-7.36812e-08
-1.53001e-06
-7.64119e-08
-1.50346e-06
-7.90975e-08
-1.47604e-06
-8.17367e-08
-1.44778e-06
-8.43284e-08
-1.41869e-06
-8.68714e-08
-1.38879e-06
-8.93645e-08
-1.3581e-06
-9.18065e-08
-1.32663e-06
-9.41962e-08
-1.2944e-06
-9.65322e-08
-1.26142e-06
-9.88133e-08
-1.22773e-06
-1.01038e-07
-1.19333e-06
-1.03205e-07
-1.15825e-06
-1.05313e-07
-1.1225e-06
-1.07359e-07
-1.08611e-06
-1.09344e-07
-1.04909e-06
-1.11265e-07
-1.01147e-06
-1.1312e-07
-9.73277e-07
-1.14908e-07
-9.34521e-07
-1.16628e-07
-8.95232e-07
-1.18277e-07
-8.55432e-07
-1.19854e-07
-8.15145e-07
-1.21357e-07
-7.74397e-07
-1.22785e-07
-7.33212e-07
-1.24137e-07
-6.91616e-07
-1.25409e-07
-6.49637e-07
-1.26601e-07
-6.07299e-07
-1.27712e-07
-5.64631e-07
-1.2874e-07
-5.21661e-07
-1.29683e-07
-4.78416e-07
-1.30541e-07
-4.34924e-07
-1.31311e-07
-3.91216e-07
-1.31993e-07
-3.4732e-07
-1.32586e-07
-3.03266e-07
-1.33088e-07
-2.59083e-07
-1.33499e-07
-2.14803e-07
-1.33817e-07
-1.70455e-07
-1.3404e-07
-1.2607e-07
-1.34169e-07
-8.16802e-08
-1.34201e-07
-3.73162e-08
-1.34134e-07
6.99035e-09
-1.33968e-07
5.12067e-08
-1.33698e-07
9.53013e-08
-1.33323e-07
1.39242e-07
-1.32844e-07
1.83e-07
-1.32262e-07
2.2655e-07
-1.31583e-07
2.69874e-07
-1.30815e-07
3.12953e-07
-1.2996e-07
3.55759e-07
-1.2902e-07
3.9826e-07
-1.28006e-07
4.40427e-07
-1.26926e-07
4.82233e-07
-1.25783e-07
5.23654e-07
-1.24578e-07
5.64668e-07
-1.23311e-07
6.05252e-07
-1.21981e-07
6.45388e-07
-1.20591e-07
6.85055e-07
-1.19142e-07
7.24234e-07
-1.17635e-07
7.62909e-07
-1.16075e-07
8.01062e-07
-1.14464e-07
8.38679e-07
-1.12805e-07
8.75746e-07
-1.11102e-07
9.12249e-07
-1.0936e-07
9.48178e-07
-1.07581e-07
9.83522e-07
-1.05771e-07
1.01827e-06
-1.03933e-07
1.05242e-06
-1.02069e-07
1.08596e-06
-1.00182e-07
1.11889e-06
-9.82733e-08
1.15119e-06
-9.63399e-08
1.18286e-06
-9.43765e-08
1.21388e-06
-9.23722e-08
1.24423e-06
-9.03071e-08
1.27389e-06
-8.81485e-08
1.30281e-06
-8.58429e-08
1.33091e-06
-8.33031e-08
1.35807e-06
-8.03851e-08
1.38412e-06
-7.68459e-08
1.40876e-06
-7.225e-08
1.43151e-06
-6.58107e-08
1.45174e-06
-5.58933e-08
1.46861e-06
-3.96777e-08
1.48276e-06
-9.72544e-09
4.49106e-08
1.49764e-06
-1.75405e-08
-2.53942e-08
-4.09157e-08
-7.99653e-10
-6.56573e-08
2.0208e-08
-9.16374e-08
3.89958e-08
-1.18842e-07
5.62514e-08
-1.47393e-07
7.22662e-08
-1.77451e-07
8.70984e-08
-2.09176e-07
1.00744e-07
-2.42664e-07
1.13219e-07
-2.77892e-07
1.24583e-07
-3.14702e-07
1.34918e-07
-3.52831e-07
1.44296e-07
-3.91954e-07
1.52759e-07
-4.31727e-07
1.60314e-07
-4.71827e-07
1.66942e-07
-5.1197e-07
1.72614e-07
-5.51924e-07
1.7731e-07
-5.91509e-07
1.81026e-07
-6.30595e-07
1.83778e-07
-6.69097e-07
1.85606e-07
-7.06967e-07
1.86568e-07
-7.44187e-07
1.86737e-07
-7.80756e-07
1.86195e-07
-8.16691e-07
1.85029e-07
-8.52013e-07
1.83328e-07
-8.86745e-07
1.81174e-07
-9.20908e-07
1.78649e-07
-9.5452e-07
1.75823e-07
-9.87592e-07
1.7276e-07
-1.02013e-06
1.69515e-07
-1.05214e-06
1.66132e-07
-1.08361e-06
1.62648e-07
-1.11455e-06
1.59094e-07
-1.14494e-06
1.5549e-07
-1.17479e-06
1.51856e-07
-1.20407e-06
1.48202e-07
-1.23278e-06
1.44536e-07
-1.26089e-06
1.40864e-07
-1.28841e-06
1.37187e-07
-1.3153e-06
1.33506e-07
-1.34155e-06
1.29817e-07
-1.36715e-06
1.26118e-07
-1.39208e-06
1.22407e-07
-1.41631e-06
1.18677e-07
-1.43984e-06
1.14926e-07
-1.46264e-06
1.11149e-07
-1.4847e-06
1.07341e-07
-1.50599e-06
1.03501e-07
-1.5265e-06
9.9623e-08
-1.54621e-06
9.57061e-08
-1.5651e-06
9.17478e-08
-1.58316e-06
8.77464e-08
-1.60037e-06
8.37011e-08
-1.6167e-06
7.96114e-08
-1.63215e-06
7.54777e-08
-1.6467e-06
7.13005e-08
-1.66034e-06
6.70812e-08
-1.67305e-06
6.28213e-08
-1.68482e-06
5.8523e-08
-1.69564e-06
5.41887e-08
-1.7055e-06
4.98213e-08
-1.71438e-06
4.54239e-08
-1.72229e-06
4.09998e-08
-1.72921e-06
3.65529e-08
-1.73514e-06
3.20871e-08
-1.74009e-06
2.76067e-08
-1.74403e-06
2.31167e-08
-1.74699e-06
1.86223e-08
-1.74895e-06
1.41293e-08
-1.74992e-06
9.64404e-09
-1.7499e-06
5.17309e-09
-1.74888e-06
7.22899e-10
-1.74685e-06
-3.7028e-09
-1.7438e-06
-8.10524e-09
-1.73972e-06
-1.24874e-08
-1.73461e-06
-1.68542e-08
-1.72848e-06
-2.12066e-08
-1.72131e-06
-2.5544e-08
-1.71311e-06
-2.98644e-08
-1.7039e-06
-3.41654e-08
-1.69366e-06
-3.84442e-08
-1.68241e-06
-4.26979e-08
-1.67015e-06
-4.69237e-08
-1.6569e-06
-5.11188e-08
-1.64265e-06
-5.52805e-08
-1.62741e-06
-5.94061e-08
-1.6112e-06
-6.34932e-08
-1.59402e-06
-6.75395e-08
-1.57588e-06
-7.15426e-08
-1.5568e-06
-7.55006e-08
-1.53678e-06
-7.94114e-08
-1.51584e-06
-8.32731e-08
-1.49399e-06
-8.70839e-08
-1.47123e-06
-9.08422e-08
-1.44759e-06
-9.45462e-08
-1.42308e-06
-9.81943e-08
-1.39771e-06
-1.01785e-07
-1.37149e-06
-1.05316e-07
-1.34444e-06
-1.08787e-07
-1.31657e-06
-1.12195e-07
-1.28791e-06
-1.15539e-07
-1.25845e-06
-1.18817e-07
-1.22823e-06