/*--------------------------------*- C++ -*----------------------------------*\
| =========                 |                                                 |
| \\      /  F ield         | OpenFOAM: The Open Source CFD Toolbox           |
|  \\    /   O peration     | Version:  2412                                  |
|   \\  /    A nd           | Website:  www.openfoam.com                      |
|    \\/     M anipulation  |                                                 |
\*---------------------------------------------------------------------------*/
FoamFile
{
    version     2.0;
    format      ascii;
    arch        "LSB;label=32;scalar=64";
    class       volVectorField;
    location    "0.13";
    object      U;
}
// * * * * * * * * * * * * * * * * * * * * * * * * * * * * * * * * * * * * * //

dimensions      [0 1 -1 0 0 0 0];

internalField   nonuniform List<vector> 
12225
(
(0.377183 -0.200896 0)
(0.54396 -0.0519264 0)
(0.71104 -0.0340136 0)
(0.893964 -0.0304753 0)
(1.05909 -0.0297452 0)
(1.20881 -0.0284503 0)
(1.34611 -0.0265157 0)
(1.4704 -0.0245725 0)
(1.58212 -0.0227628 0)
(1.68257 -0.0210699 0)
(1.77291 -0.0194911 0)
(1.85409 -0.0180183 0)
(1.92693 -0.0166304 0)
(1.99214 -0.0152859 0)
(2.05005 -0.0139624 0)
(2.10155 -0.0125122 0)
(2.14286 -0.010402 0)
(2.19073 -0.0129938 0)
(0.933503 -0.0317782 0)
(1.0567 -0.0587089 0)
(1.23663 -0.0688978 0)
(1.42154 -0.0644812 0)
(1.58549 -0.061808 0)
(1.73438 -0.0589608 0)
(1.87125 -0.0555576 0)
(1.99595 -0.0521692 0)
(2.10893 -0.0489258 0)
(2.21125 -0.0458349 0)
(2.30387 -0.042911 0)
(2.38764 -0.04014 0)
(2.46329 -0.0374802 0)
(2.53145 -0.0348537 0)
(2.59252 -0.032203 0)
(2.64687 -0.0290917 0)
(2.69404 -0.0261603 0)
(2.73591 -0.0162612 0)
(1.39962 -0.0846815 0)
(1.49179 -0.105675 0)
(1.65465 -0.107233 0)
(1.82258 -0.101934 0)
(1.97264 -0.0979805 0)
(2.11033 -0.0936412 0)
(2.23768 -0.0887273 0)
(2.3544 -0.083782 0)
(2.46083 -0.0789779 0)
(2.55773 -0.0743614 0)
(2.64586 -0.0699582 0)
(2.72591 -0.0657494 0)
(2.79849 -0.0616763 0)
(2.86412 -0.0576335 0)
(2.92321 -0.0534937 0)
(2.97597 -0.0488484 0)
(3.02261 -0.0437025 0)
(3.06233 -0.0343589 0)
(1.89741 -0.115424 0)
(1.94623 -0.143305 0)
(2.07519 -0.144976 0)
(2.21745 -0.140756 0)
(2.34794 -0.135765 0)
(2.46968 -0.130028 0)
(2.58345 -0.123675 0)
(2.68857 -0.117185 0)
(2.78512 -0.110794 0)
(2.87358 -0.104606 0)
(2.95444 -0.0986617 0)
(3.0282 -0.0929442 0)
(3.09533 -0.0873829 0)
(3.15626 -0.0818499 0)
(3.21133 -0.0761678 0)
(3.26071 -0.0699234 0)
(3.30492 -0.0628429 0)
(3.34236 -0.0519377 0)
(2.43108 -0.125829 0)
(2.4405 -0.169887 0)
(2.52879 -0.177402 0)
(2.64 -0.176158 0)
(2.74677 -0.171212 0)
(2.84897 -0.164708 0)
(2.94609 -0.15735 0)
(3.03692 -0.149647 0)
(3.12113 -0.141927 0)
(3.19889 -0.134365 0)
(3.27043 -0.127034 0)
(3.33604 -0.119928 0)
(3.39603 -0.112975 0)
(3.4507 -0.106037 0)
(3.50035 -0.0989061 0)
(3.54508 -0.0911815 0)
(3.5857 -0.082435 0)
(3.62012 -0.0703905 0)
(2.99683 -0.123682 0)
(2.97697 -0.185363 0)
(3.02468 -0.201448 0)
(3.102 -0.204935 0)
(3.18206 -0.201552 0)
(3.26191 -0.195229 0)
(3.33987 -0.18752 0)
(3.41414 -0.179123 0)
(3.48395 -0.170496 0)
(3.54911 -0.161905 0)
(3.60958 -0.153473 0)
(3.66544 -0.145218 0)
(3.71682 -0.137083 0)
(3.7639 -0.128932 0)
(3.80689 -0.120552 0)
(3.84587 -0.111577 0)
(3.88182 -0.101554 0)
(3.91219 -0.0888877 0)
(3.58832 -0.114506 0)
(3.55089 -0.190576 0)
(3.56319 -0.215878 0)
(3.60676 -0.225296 0)
(3.6587 -0.224979 0)
(3.71438 -0.219924 0)
(3.77132 -0.212643 0)
(3.82725 -0.204178 0)
(3.88097 -0.195159 0)
(3.93194 -0.185969 0)
(3.97985 -0.176799 0)
(4.02457 -0.16771 0)
(4.06605 -0.158671 0)
(4.10435 -0.149566 0)
(4.13959 -0.140201 0)
(4.17179 -0.130267 0)
(4.20203 -0.119367 0)
(4.22724 -0.106453 0)
(4.1988 -0.101764 0)
(4.15396 -0.187066 0)
(4.13917 -0.220689 0)
(4.15215 -0.236284 0)
(4.17664 -0.240106 0)
(4.20771 -0.237351 0)
(4.24274 -0.231312 0)
(4.27923 -0.223459 0)
(4.3157 -0.214623 0)
(4.3513 -0.205325 0)
(4.38549 -0.195841 0)
(4.41795 -0.186292 0)
(4.44848 -0.176687 0)
(4.47699 -0.166945 0)
(4.50353 -0.15691 0)
(4.52803 -0.146345 0)
(4.5516 -0.134952 0)
(4.57064 -0.122085 0)
(4.82185 -0.0878057 0)
(4.77661 -0.176864 0)
(4.74388 -0.216822 0)
(4.73187 -0.237798 0)
(4.73174 -0.246085 0)
(4.73949 -0.246357 0)
(4.75296 -0.242271 0)
(4.76988 -0.23568 0)
(4.78866 -0.227615 0)
(4.8083 -0.218727 0)
(4.8281 -0.209393 0)
(4.84757 -0.1998 0)
(4.8664 -0.190011 0)
(4.88438 -0.179994 0)
(4.90147 -0.169644 0)
(4.91753 -0.158804 0)
(4.93362 -0.147285 0)
(4.94562 -0.134732 0)
(5.45146 -0.0741052 0)
(5.40949 -0.161996 0)
(5.3668 -0.205803 0)
(5.3365 -0.23061 0)
(5.31631 -0.242853 0)
(5.30377 -0.24636 0)
(5.29751 -0.24466 0)
(5.2959 -0.239829 0)
(5.29752 -0.233041 0)
(5.30139 -0.22505 0)
(5.30675 -0.21632 0)
(5.31305 -0.20711 0)
(5.31988 -0.197539 0)
(5.32695 -0.18763 0)
(5.33415 -0.177342 0)
(5.34127 -0.16659 0)
(5.34932 -0.155298 0)
(5.35367 -0.143305 0)
(6.08167 -0.0613898 0)
(6.0441 -0.144155 0)
(5.99712 -0.18929 0)
(5.9549 -0.216119 0)
(5.92001 -0.231192 0)
(5.89149 -0.237555 0)
(5.86873 -0.23826 0)
(5.85088 -0.235398 0)
(5.83697 -0.230203 0)
(5.82619 -0.223471 0)
(5.81786 -0.215723 0)
(5.81145 -0.207273 0)
(5.80654 -0.198296 0)
(5.80281 -0.188867 0)
(5.80011 -0.179004 0)
(5.79816 -0.168691 0)
(5.79793 -0.157946 0)
(5.79433 -0.146744 0)
(6.65461 -0.0505972 0)
(6.62054 -0.126178 0)
(6.57303 -0.170539 0)
(6.52475 -0.197708 0)
(6.48109 -0.214151 0)
(6.44225 -0.222392 0)
(6.40807 -0.22493 0)
(6.37831 -0.223733 0)
(6.3525 -0.22002 0)
(6.33012 -0.214573 0)
(6.31065 -0.207919 0)
(6.29368 -0.200401 0)
(6.27883 -0.192227 0)
(6.26581 -0.183513 0)
(6.25446 -0.174318 0)
(6.24447 -0.164682 0)
(6.23681 -0.154661 0)
(6.22599 -0.144426 0)
(7.20973 -0.0406489 0)
(7.18016 -0.107362 0)
(7.13446 -0.149557 0)
(7.0834 -0.176069 0)
(7.03441 -0.192888 0)
(6.98875 -0.202248 0)
(6.94652 -0.206109 0)
(6.90788 -0.206242 0)
(6.87278 -0.203821 0)
(6.84102 -0.199588 0)
(6.81229 -0.194046 0)
(6.78631 -0.187539 0)
(6.76282 -0.180292 0)
(6.74159 -0.172446 0)
(6.72247 -0.164092 0)
(6.70517 -0.155307 0)
(6.69059 -0.146158 0)
(6.67314 -0.137031 0)
(7.81811 -0.0310589 0)
(7.79338 -0.0860942 0)
(7.75172 -0.123789 0)
(7.70081 -0.148225 0)
(7.64922 -0.164242 0)
(7.59948 -0.173853 0)
(7.55192 -0.178485 0)
(7.50688 -0.179581 0)
(7.46469 -0.178225 0)
(7.42541 -0.175106 0)
(7.38897 -0.170683 0)
(7.35524 -0.165276 0)
(7.32409 -0.159109 0)
(7.29539 -0.152333 0)
(7.26904 -0.145055 0)
(7.2448 -0.137374 0)
(7.2235 -0.12938 0)
(7.19967 -0.121541 0)
(8.45855 -0.022284 0)
(8.43892 -0.0637299 0)
(8.40341 -0.0941909 0)
(8.35607 -0.114587 0)
(8.30532 -0.128208 0)
(8.25478 -0.136794 0)
(8.2052 -0.141315 0)
(8.15706 -0.142769 0)
(8.11091 -0.142034 0)
(8.06708 -0.139713 0)
(8.02567 -0.136202 0)
(7.98669 -0.131785 0)
(7.95012 -0.126669 0)
(7.91593 -0.121003 0)
(7.88409 -0.114901 0)
(7.85441 -0.108463 0)
(7.82768 -0.101786 0)
(7.7988 -0.0953588 0)
(9.08866 -0.0143584 0)
(9.07382 -0.0416983 0)
(9.0456 -0.0627826 0)
(9.00495 -0.0771037 0)
(8.95894 -0.0865075 0)
(8.91164 -0.0923639 0)
(8.86415 -0.0953646 0)
(8.817 -0.09612 0)
(8.77089 -0.0952241 0)
(8.72636 -0.0931234 0)
(8.68368 -0.0901148 0)
(8.643 -0.086408 0)
(8.60439 -0.0821633 0)
(8.56789 -0.0775047 0)
(8.53353 -0.0725337 0)
(8.50116 -0.0673463 0)
(8.47153 -0.0620115 0)
(8.4403 -0.0570378 0)
(9.63295 -0.00705966 0)
(9.6217 -0.020667 0)
(9.59987 -0.0313318 0)
(9.56659 -0.0382901 0)
(9.52746 -0.0423032 0)
(9.48642 -0.0442022 0)
(9.4447 -0.0444376 0)
(9.40272 -0.0433478 0)
(9.36108 -0.0412757 0)
(9.32035 -0.0385043 0)
(9.2809 -0.0352293 0)
(9.24293 -0.0315877 0)
(9.20656 -0.0276873 0)
(9.17187 -0.0236192 0)
(9.13895 -0.0194564 0)
(9.10769 -0.0152797 0)
(9.07868 -0.0111034 0)
(9.0489 -0.00742216 0)
(9.96404 0.000121601 0)
(9.95459 0.000205363 0)
(9.93649 0.000692336 0)
(9.90812 0.00196535 0)
(9.87423 0.00393672 0)
(9.83859 0.00641523 0)
(9.80247 0.00929662 0)
(9.76622 0.0125094 0)
(9.7303 0.0159694 0)
(9.6952 0.0195962 0)
(9.66124 0.023327 0)
(9.62856 0.0271121 0)
(9.59724 0.0309056 0)
(9.56732 0.0346586 0)
(9.53881 0.0383291 0)
(9.51168 0.0418531 0)
(9.4861 0.0452549 0)
(9.46106 0.0481184 0)
(9.87499 0.00748766 0)
(9.86688 0.0218404 0)
(9.84987 0.0342815 0)
(9.8225 0.0445082 0)
(9.78961 0.052945 0)
(9.755 0.0600744 0)
(9.71996 0.0661934 0)
(9.68488 0.0715173 0)
(9.6502 0.0762427 0)
(9.61643 0.0805288 0)
(9.5839 0.0844831 0)
(9.55274 0.0881736 0)
(9.52301 0.0916425 0)
(9.49472 0.0949129 0)
(9.46787 0.0979931 0)
(9.44246 0.100864 0)
(9.41821 0.103564 0)
(9.39617 0.10581 0)
(9.28437 0.0159316 0)
(9.27065 0.0462366 0)
(9.24579 0.0712465 0)
(9.20982 0.0904935 0)
(9.169 0.105337 0)
(9.1273 0.11698 0)
(9.08582 0.126103 0)
(9.04495 0.133249 0)
(9.00525 0.138931 0)
(8.96721 0.143554 0)
(8.93108 0.147394 0)
(8.89694 0.150643 0)
(8.86482 0.153439 0)
(8.83466 0.155882 0)
(8.8064 0.158044 0)
(8.78 0.159971 0)
(8.75499 0.161714 0)
(8.73335 0.163126 0)
(8.47101 0.0261018 0)
(8.45237 0.0738424 0)
(8.41971 0.110403 0)
(8.37627 0.136959 0)
(8.32999 0.156628 0)
(8.28458 0.171258 0)
(8.24076 0.181883 0)
(8.19884 0.189459 0)
(8.1593 0.194848 0)
(8.12243 0.198675 0)
(8.08827 0.201366 0)
(8.05677 0.203229 0)
(8.02779 0.204493 0)
(8.00119 0.205329 0)
(7.97681 0.205862 0)
(7.95454 0.206189 0)
(7.93386 0.206369 0)
(7.9168 0.20636 0)
(7.51239 0.0385332 0)
(7.4866 0.104533 0)
(7.44646 0.150275 0)
(7.39956 0.181422 0)
(7.35397 0.203417 0)
(7.31186 0.21856 0)
(7.27321 0.228377 0)
(7.23811 0.234408 0)
(7.20666 0.237865 0)
(7.17874 0.239549 0)
(7.1541 0.240003 0)
(7.13243 0.239615 0)
(7.11344 0.238672 0)
(7.09687 0.237375 0)
(7.08243 0.235868 0)
(7.06993 0.234258 0)
(7.05886 0.232602 0)
(7.05096 0.23092 0)
(6.48931 0.054233 0)
(6.45656 0.136926 0)
(6.41296 0.186989 0)
(6.37065 0.218607 0)
(6.33491 0.239456 0)
(6.3053 0.252118 0)
(6.2811 0.258832 0)
(6.26189 0.261679 0)
(6.24709 0.262049 0)
(6.23603 0.260794 0)
(6.2281 0.258496 0)
(6.22278 0.255567 0)
(6.21963 0.252291 0)
(6.21827 0.248861 0)
(6.21839 0.245404 0)
(6.21974 0.24201 0)
(6.22189 0.238724 0)
(6.22623 0.235602 0)
(5.45712 0.0733958 0)
(5.41829 0.166508 0)
(5.37869 0.214147 0)
(5.35278 0.241983 0)
(5.33866 0.258382 0)
(5.3325 0.266149 0)
(5.33275 0.268333 0)
(5.33814 0.267265 0)
(5.3473 0.264258 0)
(5.35913 0.2601 0)
(5.37286 0.255319 0)
(5.38792 0.250271 0)
(5.40384 0.245179 0)
(5.42031 0.240185 0)
(5.43705 0.235372 0)
(5.45389 0.230794 0)
(5.47052 0.226472 0)
(5.48806 0.22247 0)
(4.45282 0.0947818 0)
(4.41206 0.187425 0)
(4.39049 0.225957 0)
(4.39662 0.246426 0)
(4.41651 0.255957 0)
(4.44338 0.257868 0)
(4.47531 0.255626 0)
(4.51041 0.251246 0)
(4.54698 0.245709 0)
(4.58397 0.239611 0)
(4.62076 0.233347 0)
(4.65693 0.22716 0)
(4.6922 0.221191 0)
(4.7264 0.215515 0)
(4.75941 0.210171 0)
(4.79121 0.205173 0)
(4.82164 0.200524 0)
(4.85165 0.196288 0)
(3.50293 0.114455 0)
(3.47301 0.19293 0)
(3.48914 0.217664 0)
(3.54121 0.22891 0)
(3.60263 0.231491 0)
(3.66653 0.228863 0)
(3.73183 0.223863 0)
(3.7968 0.217759 0)
(3.86006 0.211153 0)
(3.92095 0.204445 0)
(3.97921 0.197887 0)
(4.03472 0.191621 0)
(4.08746 0.185717 0)
(4.13747 0.180202 0)
(4.18485 0.17508 0)
(4.22974 0.170341 0)
(4.27215 0.165972 0)
(4.3129 0.162046 0)
(2.62982 0.122985 0)
(2.63208 0.176395 0)
(2.70179 0.187981 0)
(2.80471 0.191101 0)
(2.90736 0.189132 0)
(3.00608 0.184619 0)
(3.10166 0.178949 0)
(3.19312 0.172768 0)
(3.27962 0.166478 0)
(3.36102 0.160333 0)
(3.43748 0.154479 0)
(3.5092 0.148988 0)
(3.57644 0.143886 0)
(3.63948 0.139173 0)
(3.6986 0.134834 0)
(3.75411 0.130846 0)
(3.80618 0.127188 0)
(3.85557 0.123952 0)
(1.85178 0.104827 0)
(1.90639 0.134443 0)
(2.03034 0.141905 0)
(2.17815 0.140525 0)
(2.3159 0.137051 0)
(2.44347 0.132938 0)
(2.56372 0.128122 0)
(2.67657 0.123013 0)
(2.78166 0.117968 0)
(2.87928 0.113144 0)
(2.96997 0.108611 0)
(3.05426 0.104406 0)
(3.13264 0.100534 0)
(3.20561 0.0969825 0)
(3.27362 0.0937296 0)
(3.33712 0.0907524 0)
(3.39642 0.0880155 0)
(3.45226 0.085626 0)
(1.17533 0.0416903 0)
(1.28238 0.0661081 0)
(1.43869 0.0889914 0)
(1.61661 0.0891836 0)
(1.78037 0.0862386 0)
(1.9292 0.0833415 0)
(2.06748 0.0798456 0)
(2.19592 0.0761309 0)
(2.31442 0.0725425 0)
(2.42356 0.0691651 0)
(2.52421 0.0660238 0)
(2.61716 0.0631342 0)
(2.70312 0.060493 0)
(2.78274 0.0580837 0)
(2.85663 0.0558862 0)
(2.92533 0.0538834 0)
(2.98926 0.0520135 0)
(3.04915 0.0503759 0)
(0.469484 0.226529 0)
(0.642366 0.0691641 0)
(0.788947 0.0480279 0)
(0.972472 0.0444133 0)
(1.14916 0.0429759 0)
(1.3092 0.0416839 0)
(1.45694 0.0396517 0)
(1.59333 0.037337 0)
(1.71818 0.0351195 0)
(1.83226 0.033072 0)
(1.93672 0.0311902 0)
(2.03259 0.0294721 0)
(2.12075 0.027911 0)
(2.20199 0.0264943 0)
(2.277 0.0252058 0)
(2.34642 0.0240386 0)
(2.41076 0.0229394 0)
(2.47033 0.0219871 0)
(0.0118445 -0.0253111 -2.70881e-20)
(0.0344964 -0.0377088 2.63298e-20)
(0.0559397 -0.0357413 0)
(0.0722153 -0.0272171 0)
(0.0809204 -0.0159713 0)
(0.0816224 -0.00444581 -2.47524e-20)
(0.075004 0.00543372 0)
(0.0630348 0.0125629 0)
(0.0471381 0.0169774 0)
(0.0283607 0.0194574 0)
(0.00735918 0.0209568 2.44582e-20)
(-0.0155839 0.0222782 0)
(-0.0405288 0.0239088 0)
(-0.0676934 0.0259945 0)
(-0.0972498 0.0284841 0)
(-0.129314 0.031248 2.2373e-20)
(-0.163923 0.0341463 0)
(-0.201029 0.0370484 0)
(-0.240509 0.0398377 0)
(-0.282177 0.0424146 0)
(-0.325795 0.0446985 0)
(-0.371085 0.0466302 0)
(-0.417747 0.0481724 0)
(-0.465469 0.0493088 1.90124e-20)
(-0.513943 0.0500426 -1.86611e-20)
(-0.562878 0.0503952 1.83285e-20)
(-0.612013 0.0504066 1.80143e-20)
(-0.661093 0.0501336 0)
(-0.709868 0.0496387 0)
(-0.758262 0.0489761 -1.71724e-20)
(-0.806115 0.0481647 -1.69223e-20)
(-0.853317 0.0472311 0)
(-0.899776 0.0462012 0)
(-0.94542 0.0450985 -1.62496e-20)
(-0.990193 0.0439435 0)
(-1.03405 0.0427537 0)
(-1.07696 0.041543 1.56702e-20)
(-1.11891 0.0403225 0)
(-1.15988 0.0391006 1.53226e-20)
(-1.19986 0.0378833 3.03154e-20)
(-1.23884 0.0366748 0)
(-1.27683 0.0354777 0)
(-1.31381 0.0342933 0)
(-1.3498 0.0331222 0)
(-1.38478 0.0319642 0)
(-1.41876 0.0308186 2.85018e-20)
(-1.45174 0.0296847 2.82164e-20)
(-1.4837 0.0285613 2.79332e-20)
(-1.51465 0.0274475 0)
(-1.54458 0.0263422 -2.73704e-20)
(-1.57348 0.0252444 0)
(-1.60135 0.0241534 2.68077e-20)
(-1.62817 0.0230684 2.65247e-20)
(-1.65394 0.021989 0)
(-1.67864 0.0209146 0)
(-1.70226 0.019845 0)
(-1.72481 0.01878 2.5369e-20)
(-1.74625 0.0177193 0)
(-1.76659 0.0166627 0)
(-1.78582 0.0156098 0)
(-1.80392 0.0145602 0)
(-1.82087 0.0135131 0)
(-1.83668 0.0124674 0)
(-1.85133 0.0114213 0)
(-1.86481 0.0103728 0)
(-1.87711 0.00931883 -2.25112e-20)
(-1.88821 0.00825617 0)
(-1.89809 0.00718057 0)
(-1.90673 0.00608758 2.14498e-20)
(-1.91411 0.00497376 2.10825e-20)
(-1.92019 0.00384101 0)
(-1.92494 0.00270439 -2.03275e-20)
(-1.92832 0.00159458 1.99401e-20)
(-1.93024 0.000546662 0)
(-1.93078 -0.000389472 -1.91381e-20)
(-1.93028 -0.00118961 0)
(-1.92867 -0.00193672 0)
(-1.926 -0.00265474 1.78709e-20)
(-1.92228 -0.00335438 0)
(-1.91753 -0.00403957 -1.69849e-20)
(-1.91173 -0.00471197 0)
(-1.90491 -0.00537218 1.60661e-20)
(-1.89706 -0.00602035 1.55946e-20)
(-1.88819 -0.00665648 1.5115e-20)
(-1.8783 -0.00728048 2.92549e-20)
(-1.86741 -0.00789224 -2.82643e-20)
(-1.85551 -0.00849166 0)
(-1.84262 -0.00907866 0)
(-1.82875 -0.00965317 0)
(-1.81389 -0.0102151 -2.41505e-20)
(-1.79807 -0.0107645 -2.30857e-20)
(-1.78128 -0.0113012 2.20072e-20)
(-1.76354 -0.0118254 0)
(-1.74486 -0.0123368 -1.98102e-20)
(-1.72525 -0.0128357 -1.86926e-20)
(-1.70472 -0.0133219 -1.75628e-20)
(-1.68327 -0.0137955 0)
(-1.66093 -0.0142564 0)
(-1.6377 -0.0147047 0)
(-1.6136 -0.0151404 -1.29323e-20)
(-1.58864 -0.0155634 0)
(-1.56282 -0.0159739 0)
(-1.53617 -0.0163717 9.35718e-21)
(-1.5087 -0.0167569 0)
(-1.48041 -0.0171294 0)
(-1.45134 -0.0174891 5.71224e-21)
(-1.42148 -0.0178361 0)
(-1.39086 -0.0181703 0)
(-1.35949 -0.0184915 -2.01501e-21)
(-1.32739 -0.0187998 -7.74231e-22)
(-1.29457 -0.019095 0)
(-1.26105 -0.0193771 -1.71549e-21)
(-1.22685 -0.0196459 0)
(-1.192 -0.0199013 4.21099e-21)
(-1.15649 -0.0201432 0)
(-1.12037 -0.0203715 6.70597e-21)
(-1.08364 -0.0205861 7.95123e-21)
(-1.04632 -0.0207869 0)
(-1.00845 -0.0209736 0)
(-0.970036 -0.0211463 0)
(-0.931104 -0.0213047 0)
(-0.891678 -0.0214489 0)
(-0.851782 -0.0215786 0)
(-0.811439 -0.0216938 0)
(-0.770674 -0.0217943 1.77488e-20)
(-0.729513 -0.0218801 -1.894e-20)
(-0.687981 -0.0219512 0)
(-0.646105 -0.0220073 0)
(-0.603912 -0.0220485 0)
(-0.561428 -0.0220746 0)
(-0.518682 -0.0220857 -4.94489e-20)
(-0.475703 -0.0220814 0)
(-0.432518 -0.0220618 5.38849e-20)
(-0.389158 -0.0220267 -5.60554e-20)
(-0.345653 -0.0219758 0)
(-0.302034 -0.0219087 0)
(-0.258333 -0.021825 0)
(-0.214585 -0.021724 6.43853e-20)
(-0.170825 -0.0216034 6.63726e-20)
(-0.127087 -0.0214594 0)
(-0.0834073 -0.0212897 7.02247e-20)
(-0.0398183 -0.0210886 7.20883e-20)
(0.00362777 -0.0208147 -7.36248e-20)
(0.0468585 -0.0204518 0)
(0.0898817 -0.0200641 0)
(0.13267 -0.0196813 -7.60825e-20)
(0.175204 -0.0193045 0)
(0.21747 -0.0189306 0)
(0.259453 -0.0185573 0)
(0.301135 -0.0181834 0)
(0.342498 -0.0178084 7.87696e-20)
(0.38352 -0.017432 7.91622e-20)
(0.424182 -0.0170544 0)
(0.464463 -0.0166759 7.98183e-20)
(0.504344 -0.0162969 0)
(0.543807 -0.0159178 0)
(0.582833 -0.0155392 8.05076e-20)
(0.621406 -0.0151616 0)
(0.659511 -0.0147856 8.07906e-20)
(0.697133 -0.0144116 0)
(0.734259 -0.0140404 0)
(0.770878 -0.0136722 8.09821e-20)
(0.806979 -0.0133076 0)
(0.842552 -0.0129469 8.09715e-20)
(0.877588 -0.01259 0)
(0.912078 -0.0122368 0)
(0.946012 -0.0118866 0)
(0.979375 -0.0115383 -8.06684e-20)
(1.01215 -0.0111894 0)
(1.04431 -0.0108363 8.03998e-20)
(1.0758 -0.0104729 0)
(1.10657 -0.0100891 0)
(1.1365 -0.00966803 0)
(1.1654 -0.00918089 0)
(1.19298 -0.0085702 0)
(1.21853 -0.00772539 0)
(1.24129 -0.00632662 0)
(1.25679 -0.00347624 -1.5883e-19)
(1.26704 0.00366756 0)
(1.21683 0.0187098 0)
(0.0113656 -0.072843 7.96068e-20)
(0.022891 -0.0703381 -7.47038e-20)
(0.0243082 -0.0481179 0)
(0.0200653 -0.024764 4.42611e-20)
(0.0111754 -0.00267432 0)
(-0.00144855 0.017066 2.08869e-20)
(-0.0174665 0.03368 -4.07742e-20)
(-0.0370768 0.0469212 -3.9901e-20)
(-0.060257 0.0572344 0)
(-0.0869537 0.065469 -3.82643e-20)
(-0.117035 0.0725157 -1.87686e-20)
(-0.150283 0.0790618 0)
(-0.186427 0.0855073 0)
(-0.22518 0.0919768 0)
(-0.266253 0.0983996 0)
(-0.309346 0.104611 -1.68062e-20)
(-0.354142 0.110423 0)
(-0.400308 0.115663 3.20375e-20)
(-0.447504 0.120191 0)
(-0.495391 0.12391 0)
(-0.543645 0.126761 -3.00192e-20)
(-0.591968 0.12873 0)
(-0.640093 0.129836 2.88265e-20)
(-0.68779 0.130127 -1.41796e-20)
(-0.734872 0.129674 1.392e-20)
(-0.781189 0.128565 -1.3676e-20)
(-0.826632 0.126898 -1.34469e-20)
(-0.871119 0.12478 0)
(-0.91459 0.122318 0)
(-0.957004 0.119596 1.28388e-20)
(-0.998331 0.116676 -1.25851e-20)
(-1.03856 0.113612 0)
(-1.0777 0.110453 0)
(-1.11577 0.107238 1.21721e-20)
(-1.15277 0.103998 0)
(-1.18873 0.100759 0)
(-1.22367 0.0975396 -1.17484e-20)
(-1.25761 0.0943537 0)
(-1.29057 0.0912103 1.14148e-20)
(-1.32256 0.0881148 -2.27365e-20)
(-1.35361 0.0850698 0)
(-1.38372 0.0820757 0)
(-1.41291 0.0791314 -4.39165e-20)
(-1.44118 0.0762346 -4.34659e-20)
(-1.46854 0.0733824 -4.30215e-20)
(-1.49499 0.0705715 2.12197e-20)
(-1.52053 0.0677984 -2.11427e-20)
(-1.54516 0.0650599 -6.26361e-20)
(-1.56888 0.0623527 4.12795e-20)
(-1.59169 0.0596741 2.04876e-20)
(-1.61358 0.0570216 0)
(-1.63455 0.0543931 -2.0049e-20)
(-1.65458 0.051787 1.97141e-20)
(-1.67368 0.049202 0)
(-1.69183 0.0466371 0)
(-1.70904 0.0440919 0)
(-1.72528 0.0415658 -1.89217e-20)
(-1.74056 0.039059 0)
(-1.75486 0.0365715 3.68252e-20)
(-1.76819 0.0341034 0)
(-1.78052 0.0316551 3.58698e-20)
(-1.79186 0.0292267 0)
(-1.80221 0.0268184 -3.4883e-20)
(-1.81155 0.0244299 0)
(-1.81988 0.0220608 3.38617e-20)
(-1.8272 0.0197103 -1.66554e-20)
(-1.83351 0.0173771 0)
(-1.83882 0.01506 -3.22603e-20)
(-1.84313 0.0127571 -1.5855e-20)
(-1.84645 0.0104663 -1.55694e-20)
(-1.84882 0.00818578 0)
(-1.85028 0.00592248 -1.50039e-20)
(-1.8509 0.00370801 -1.46834e-20)
(-1.85076 0.00159529 0)
(-1.84983 -0.000407964 1.40592e-20)
(-1.8479 -0.00229916 -2.75266e-20)
(-1.84498 -0.00412226 0)
(-1.84105 -0.0058939 -1.30851e-20)
(-1.8361 -0.00762424 0)
(-1.83014 -0.00931734 3.73063e-20)
(-1.82316 -0.0109749 0)
(-1.81516 -0.0125973 -3.52325e-20)
(-1.80616 -0.0141845 -1.13571e-20)
(-1.79616 -0.0157363 1.1105e-20)
(-1.78515 -0.0172523 2.14932e-20)
(-1.77316 -0.0187322 -2.07666e-20)
(-1.76017 -0.0201756 0)
(-1.7462 -0.0215823 0)
(-1.73127 -0.0229522 0)
(-1.71536 -0.0242851 5.26889e-20)
(-1.6985 -0.0255809 1.66754e-20)
(-1.68069 -0.0268396 -1.58807e-20)
(-1.66194 -0.0280613 0)
(-1.64226 -0.029246 -1.46226e-20)
(-1.62167 -0.0303937 1.34496e-20)
(-1.60016 -0.0315045 1.26247e-20)
(-1.57776 -0.0325786 0)
(-1.55446 -0.0336161 0)
(-1.5303 -0.034617 0)
(-1.50527 -0.0355815 9.26156e-21)
(-1.47938 -0.0365098 0)
(-1.45266 -0.037402 -1.55385e-20)
(-1.42511 -0.0382582 -2.05033e-20)
(-1.39675 -0.0390786 1.20934e-20)
(-1.3676 -0.0398632 0)
(-1.33765 -0.0406123 4.5494e-21)
(-1.30694 -0.0413257 0)
(-1.27548 -0.0420036 5.12156e-21)
(-1.24327 -0.0426461 -1.93498e-21)
(-1.21034 -0.0432531 -1.05968e-21)
(-1.17671 -0.0438248 0)
(-1.14239 -0.0443611 3.1261e-21)
(-1.1074 -0.044862 -3.6698e-21)
(-1.07175 -0.0453277 -2.98087e-21)
(-1.03547 -0.0457579 0)
(-0.998579 -0.0461529 -4.74022e-21)
(-0.961093 -0.0465125 -1.63034e-20)
(-0.923032 -0.0468369 0)
(-0.884419 -0.047126 -1.41673e-20)
(-0.845276 -0.0473799 -1.58968e-20)
(-0.805625 -0.0475987 -1.76178e-20)
(-0.765488 -0.0477823 0)
(-0.72489 -0.0479311 0)
(-0.683854 -0.048045 0)
(-0.642405 -0.0481242 1.19167e-20)
(-0.600568 -0.0481688 1.33095e-20)
(-0.55837 -0.0481792 0)
(-0.515835 -0.0481555 2.93371e-20)
(-0.472991 -0.0480979 3.09521e-20)
(-0.429864 -0.0480067 0)
(-0.386483 -0.0478821 3.46824e-20)
(-0.342875 -0.0477243 7.13739e-20)
(-0.299069 -0.0475335 -3.77738e-20)
(-0.255095 -0.0473099 -3.81975e-20)
(-0.210981 -0.0470533 0)
(-0.166758 -0.0467634 0)
(-0.122457 -0.0464397 0)
(-0.0781095 -0.0460803 -4.5106e-20)
(-0.0337486 -0.0456841 4.54567e-20)
(0.0105928 -0.045249 9.43666e-20)
(0.0548805 -0.0447746 -4.86352e-20)
(0.0990844 -0.044266 4.84973e-20)
(0.143174 -0.0437205 5.02998e-20)
(0.187121 -0.0431265 0)
(0.230911 -0.0424981 0)
(0.274516 -0.0418565 -5.17102e-20)
(0.317908 -0.041208 0)
(0.361064 -0.0405527 0)
(0.403964 -0.0398891 1.08377e-19)
(0.446587 -0.0392164 0)
(0.488911 -0.0385342 5.49788e-20)
(0.530915 -0.0378427 -5.62909e-20)
(0.57258 -0.0371425 0)
(0.613886 -0.0364345 5.65434e-20)
(0.654813 -0.0357195 0)
(0.695344 -0.0349989 0)
(0.735461 -0.0342738 -5.84879e-20)
(0.775149 -0.0335455 1.17056e-19)
(0.814392 -0.0328153 -5.91706e-20)
(0.853177 -0.0320846 0)
(0.891492 -0.0313546 0)
(0.929325 -0.0306264 5.94574e-20)
(0.966666 -0.0299011 0)
(1.00351 -0.0291792 5.99351e-20)
(1.03984 -0.028461 0)
(1.07565 -0.027746 0)
(1.11093 -0.0270327 0)
(1.14567 -0.0263182 6.10748e-20)
(1.17984 -0.0255972 0)
(1.21343 -0.0248608 -6.12799e-20)
(1.24639 -0.0240948 0)
(1.27865 -0.0232758 0)
(1.3101 -0.0223644 1.22616e-19)
(1.34058 -0.0212933 -1.22746e-19)
(1.3698 -0.0199325 0)
(1.39719 -0.0180362 0)
(1.42218 -0.0149655 0)
(1.44201 -0.0094746 3.71848e-19)
(1.45985 0.0029558 0)
(1.45953 0.0279474 -2.51435e-19)
(0.00192646 -0.0900099 -1.35653e-22)
(-0.00374951 -0.0613583 9.53221e-20)
(-0.0165694 -0.0273975 0)
(-0.0318231 0.00331802 -7.8696e-20)
(-0.0496843 0.0308947 0)
(-0.0698773 0.0555188 0)
(-0.0923359 0.077232 4.34924e-23)
(-0.117193 0.0960721 3.33935e-20)
(-0.14462 0.112285 3.25495e-20)
(-0.174706 0.12635 3.18367e-20)
(-0.207391 0.138824 0)
(-0.242463 0.15017 0)
(-0.2796 0.160663 -2.96357e-20)
(-0.318423 0.17038 -5.78795e-20)
(-0.358543 0.179263 5.6518e-20)
(-0.399586 0.187183 0)
(-0.441207 0.193997 5.39047e-20)
(-0.483099 0.199589 -2.63453e-20)
(-0.524993 0.203883 0)
(-0.566665 0.206855 5.03125e-20)
(-0.607937 0.208531 2.46098e-20)
(-0.64867 0.208975 -4.81615e-20)
(-0.688768 0.208287 -2.35813e-20)
(-0.728163 0.20659 0)
(-0.766819 0.20402 4.53084e-20)
(-0.804717 0.20072 4.44529e-20)
(-0.841854 0.196829 0)
(-0.878234 0.192481 4.28731e-20)
(-0.913863 0.187794 0)
(-0.948746 0.182869 4.14511e-20)
(-0.982893 0.177787 2.04137e-20)
(-1.01631 0.172615 0)
(-1.04902 0.167407 0)
(-1.08103 0.162203 0)
(-1.11234 0.157036 0)
(-1.14296 0.151928 0)
(-1.1729 0.146894 0)
(-1.20216 0.141943 3.69315e-20)
(-1.23074 0.137081 -5.47296e-20)
(-1.25864 0.132306 0)
(-1.28585 0.127619 0)
(-1.31238 0.123014 0)
(-1.33821 0.118487 8.59349e-23)
(-1.36333 0.114033 3.43761e-20)
(-1.38775 0.109645 6.78512e-20)
(-1.41144 0.105317 -6.70485e-20)
(-1.43439 0.101044 -3.30848e-20)
(-1.45661 0.0968202 3.27772e-20)
(-1.47806 0.0926415 -8.29018e-23)
(-1.49875 0.0885035 3.19169e-20)
(-1.51866 0.0844031 0)
(-1.53777 0.0803373 3.11471e-20)
(-1.55607 0.0763043 -7.30979e-23)
(-1.57355 0.0723024 0)
(-1.59019 0.0683307 0)
(-1.60599 0.0643889 -2.96032e-20)
(-1.62093 0.0604769 0)
(-1.63499 0.0565951 0)
(-1.64818 0.0527442 2.83735e-20)
(-1.66046 0.0489252 5.60479e-20)
(-1.67185 0.0451391 -2.76613e-20)
(-1.68232 0.0413872 0)
(-1.69187 0.0376709 2.68309e-20)
(-1.7005 0.0339916 0)
(-1.70819 0.030351 2.59384e-20)
(-1.71495 0.026751 2.55473e-20)
(-1.72077 0.0231938 -5.01958e-20)
(-1.72566 0.0196828 -2.46535e-20)
(-1.72962 0.0162227 0)
(-1.73265 0.0128203 4.75253e-20)
(-1.73478 0.00948463 0)
(-1.736 0.00622643 6.85117e-20)
(-1.73631 0.00305848 4.47402e-20)
(-1.73571 -6.07557e-06 4.37708e-20)
(-1.73419 -0.00298837 -4.27916e-20)
(-1.73168 -0.00591607 6.2661e-20)
(-1.7282 -0.00878814 0)
(-1.72373 -0.0116048 0)
(-1.71827 -0.014366 -3.87496e-20)
(-1.71184 -0.0170716 -5.64963e-20)
(-1.70442 -0.019721 0)
(-1.69601 -0.0223137 1.77156e-20)
(-1.68663 -0.0248488 0)
(-1.67628 -0.0273257 -5.00159e-20)
(-1.66495 -0.0297437 1.80857e-22)
(-1.65267 -0.0321021 -1.91535e-22)
(-1.63942 -0.0344004 3.00385e-20)
(-1.62522 -0.0366382 0)
(-1.61007 -0.0388152 -2.77375e-20)
(-1.59398 -0.0409311 2.3269e-22)
(-1.57697 -0.042986 0)
(-1.55903 -0.0449796 0)
(-1.54018 -0.0469122 0)
(-1.52042 -0.0487837 2.15249e-20)
(-1.49977 -0.0505943 0)
(-1.47824 -0.0523441 0)
(-1.45583 -0.0540334 0)
(-1.43255 -0.0556623 0)
(-1.40843 -0.057231 0)
(-1.38346 -0.0587398 1.43698e-20)
(-1.35766 -0.0601889 0)
(-1.33105 -0.0615786 1.1503e-20)
(-1.30363 -0.0629091 1.02232e-20)
(-1.27541 -0.0641807 -8.93926e-21)
(-1.24642 -0.0653936 0)
(-1.21667 -0.0665479 -6.36153e-21)
(-1.18617 -0.0676439 0)
(-1.15493 -0.0686816 -3.77491e-21)
(-1.12297 -0.0696612 2.47989e-21)
(-1.09031 -0.0705828 4.32614e-21)
(-1.05695 -0.0714466 0)
(-1.02293 -0.0722526 -3.42072e-21)
(-0.988259 -0.073001 -1.89623e-21)
(-0.952948 -0.0736918 0)
(-0.917021 -0.0743251 -9.72836e-21)
(-0.880495 -0.074901 -1.22865e-20)
(-0.843391 -0.0754196 2.26678e-20)
(-0.805728 -0.075881 0)
(-0.767528 -0.0762855 1.03708e-20)
(-0.728812 -0.076633 1.16306e-20)
(-0.689601 -0.0769239 3.7804e-20)
(-0.649919 -0.0771583 0)
(-0.609787 -0.0773366 0)
(-0.569231 -0.077459 0)
(-0.528273 -0.077526 1.69533e-20)
(-0.486938 -0.0775378 0)
(-0.445252 -0.077495 0)
(-0.40324 -0.0773979 -2.13866e-20)
(-0.360928 -0.0772472 -2.2556e-20)
(-0.318342 -0.0770433 0)
(-0.27551 -0.0767867 0)
(-0.232458 -0.076478 -5.19646e-20)
(-0.189215 -0.0761175 0)
(-0.145808 -0.0757057 5.63858e-20)
(-0.102267 -0.0752425 5.77254e-20)
(-0.0586196 -0.0747279 0)
(-0.014896 -0.074162 0)
(0.028874 -0.0735443 -6.3746e-20)
(0.0726604 -0.0728743 -7.86301e-22)
(0.116433 -0.0721517 -7.72886e-22)
(0.160162 -0.0713783 0)
(0.203821 -0.0705591 -1.4031e-19)
(0.247389 -0.0697016 0)
(0.290854 -0.068809 0)
(0.334192 -0.0678836 0)
(0.377371 -0.0669332 7.58669e-20)
(0.420363 -0.0659629 0)
(0.463139 -0.0649743 -1.55251e-19)
(0.505674 -0.0639675 -7.94246e-20)
(0.547947 -0.0629427 0)
(0.589934 -0.0619004 -8.15682e-20)
(0.631616 -0.0608413 0)
(0.672972 -0.0597666 0)
(0.713983 -0.0586779 -2.52235e-19)
(0.754631 -0.0575768 1.69567e-19)
(0.794898 -0.0564654 0)
(0.834767 -0.0553455 1.72899e-19)
(0.874224 -0.0542192 -8.77277e-20)
(0.913255 -0.0530887 0)
(0.951846 -0.0519561 0)
(0.989986 -0.0508233 0)
(1.02767 -0.0496922 -2.70281e-19)
(1.06487 -0.0485642 0)
(1.1016 -0.0474406 -9.15115e-20)
(1.13784 -0.0463214 0)
(1.17359 -0.0452061 0)
(1.20883 -0.0440922 0)
(1.24355 -0.0429749 0)
(1.27773 -0.0418458 0)
(1.31136 -0.0406911 0)
(1.34438 -0.0394882 -1.88272e-19)
(1.37674 -0.0382007 0)
(1.40833 -0.0367683 -9.50973e-20)
(1.43901 -0.0350887 2.85616e-19)
(1.46854 -0.0329761 0)
(1.49648 -0.030089 0)
(1.52242 -0.0256822 -1.92451e-19)
(1.54472 -0.0184381 -1.94158e-19)
(1.56575 -0.00460127 1.9563e-19)
(1.57796 0.0217896 1.98184e-19)
(-0.00963894 -0.0681427 -1.54847e-19)
(-0.0264569 -0.0269653 -1.36803e-19)
(-0.0472317 0.0118321 -7.92108e-20)
(-0.0694084 0.0459245 -3.55901e-20)
(-0.0930265 0.0766598 0)
(-0.117836 0.104536 6.30072e-20)
(-0.143912 0.129702 -3.02813e-20)
(-0.171422 0.152229 0)
(-0.200501 0.172263 -2.86144e-20)
(-0.23119 0.19005 0)
(-0.263411 0.205875 5.43785e-20)
(-0.296971 0.219982 0)
(-0.331601 0.232521 2.58762e-20)
(-0.366994 0.243542 5.0476e-20)
(-0.402851 0.253025 -4.92316e-20)
(-0.438898 0.26092 0)
(-0.474904 0.267186 -4.68513e-20)
(-0.510684 0.271809 0)
(-0.546103 0.274817 0)
(-0.581066 0.276281 -4.35894e-20)
(-0.615515 0.276305 0)
(-0.64942 0.275025 -6.72883e-23)
(-0.682777 0.272592 0)
(-0.715592 0.269167 0)
(-0.747884 0.26491 6.02841e-23)
(-0.779673 0.259977 -3.82656e-20)
(-0.810981 0.254511 -3.75763e-20)
(-0.841823 0.248642 -3.68248e-20)
(-0.872213 0.242482 0)
(-0.902157 0.236125 -7.10817e-20)
(-0.931659 0.229649 0)
(-0.96072 0.223115 -3.43669e-20)
(-0.989337 0.216571 0)
(-1.01751 0.210055 0)
(-1.04522 0.203593 3.27775e-20)
(-1.07247 0.197203 0)
(-1.09923 0.190898 -3.18243e-20)
(-1.12552 0.184683 -1.42807e-23)
(-1.15129 0.178561 6.18969e-20)
(-1.17655 0.172529 -6.10373e-20)
(-1.20128 0.166585 0)
(-1.22545 0.160724 0)
(-1.24906 0.154939 -2.92978e-20)
(-1.27209 0.149224 0)
(-1.29452 0.143573 -2.86058e-20)
(-1.31633 0.137978 2.82418e-20)
(-1.3375 0.132436 2.78831e-20)
(-1.35803 0.126939 0)
(-1.37788 0.121483 -2.71782e-20)
(-1.39705 0.116065 -2.68305e-20)
(-1.41551 0.110682 5.2912e-20)
(-1.43325 0.105331 -2.6141e-20)
(-1.45025 0.100011 -2.5798e-20)
(-1.4665 0.0947207 0)
(-1.48198 0.0894606 0)
(-1.49667 0.0842309 2.47696e-20)
(-1.51056 0.0790328 0)
(-1.52363 0.0738676 0)
(-1.53588 0.0687374 -4.74642e-20)