/*--------------------------------*- C++ -*----------------------------------*\
| =========                 |                                                 |
| \\      /  F ield         | OpenFOAM: The Open Source CFD Toolbox           |
|  \\    /   O peration     | Version:  2412                                  |
|   \\  /    A nd           | Website:  www.openfoam.com                      |
|    \\/     M anipulation  |                                                 |
\*---------------------------------------------------------------------------*/
FoamFile
{
    version     2.0;
    format      ascii;
    arch        "LSB;label=32;scalar=64";
    class       surfaceScalarField;
    location    "0.36";
    object      phi;
}
// * * * * * * * * * * * * * * * * * * * * * * * * * * * * * * * * * * * * * //

dimensions      [0 3 -1 0 0 0 0];

oriented        oriented;

internalField   nonuniform List<scalar> 
799
(
3.68626e-05
7.37253e-05
0.000110588
0.000147449
0.00018431
0.000221169
0.000258027
0.000294883
0.000331738
0.00036859
0.00040544
0.000442287
0.000479132
0.000515973
0.000552811
0.000589645
0.000626476
0.000663302
0.000700125
0.000736942
0.000773755
0.000810563
0.000847366
0.000884163
0.000920955
0.00095774
0.00099452
0.00103129
0.00106806
0.00110482
0.00114157
0.00117831
0.00121505
0.00125178
0.0012885
0.00132521
0.00136192
0.00139861
0.0014353
0.00147197
0.00150864
0.0015453
0.00158194
0.00161858
0.00165521
0.00169182
0.00172842
0.00176502
0.0018016
0.00183817
0.00187472
0.00191127
0.0019478
0.00198432
0.00202082
0.00205731
0.00209379
0.00213025
0.0021667
0.00220314
0.00223956
0.00227597
0.00231236
0.00234873
0.00238509
0.00242143
0.00245776
0.00249407
0.00253036
0.00256664
0.0026029
0.00263914
0.00267536
0.00271156
0.00274775
0.00278392
0.00282006
0.00285619
0.0028923
0.00292839
0.00296446
0.00300051
0.00303653
0.00307254
0.00310853
0.00314449
0.00318043
0.00321635
0.00325224
0.00328812
0.00332397
0.0033598
0.0033956
0.00343138
0.00346713
0.00350286
0.00353857
0.00357425
0.0036099
0.00364553
0.00368113
0.00371671
0.00375226
0.00378778
0.00382327
0.00385874
0.00389418
0.00392959
0.00396497
0.00400032
0.00403564
0.00407093
0.00410619
0.00414143
0.00417663
0.0042118
0.00424693
0.00428204
0.00431711
0.00435216
0.00438716
0.00442214
0.00445708
0.00449199
0.00452686
0.0045617
0.0045965
0.00463127
0.004666
0.0047007
0.00473535
0.00476998
0.00480456
0.00483911
0.00487361
0.00490808
0.00494251
0.0049769
0.00501126
0.00504557
0.00507984
0.00511407
0.00514825
0.0051824
0.0052165
0.00525056
0.00528458
0.00531855
0.00535248
0.00538637
0.00542021
0.005454
0.00548775
0.00552146
0.00555511
0.00558872
0.00562228
0.00565579
0.00568926
0.00572267
0.00575603
0.00578935
0.00582261
0.00585582
0.00588899
0.00592209
0.00595515
0.00598815
0.0060211
0.006054
0.00608684
0.00611962
0.00615235
0.00618502
0.00621763
0.00625019
0.00628269
0.00631513
0.00634751
0.00637983
0.00641209
0.00644429
0.00647642
0.0065085
0.00654051
0.00657246
0.00660434
0.00663616
0.00666791
0.0066996
0.00673122
0.00676277
0.00679425
0.00682567
0.00685701
0.00688829
0.00691949
0.00695062
0.00698168
0.00701267
0.00704358
0.00707442
0.00710518
0.00713587
0.00716647
0.007197
0.00722746
0.00725783
0.00728812
0.00731833
0.00734846
0.00737851
0.00740847
0.00743835
0.00746814
0.00749784
0.00752746
0.00755699
0.00758643
0.00761578
0.00764504
0.00767421
0.00770329
0.00773227
0.00776115
0.00778994
0.00781863
0.00784723
0.00787572
0.00790412
0.00793241
0.0079606
0.00798869
0.00801667
0.00804454
0.00807231
0.00809997
0.00812752
0.00815496
0.00818229
0.0082095
0.0082366
0.00826359
0.00829045
0.0083172
0.00834382
0.00837033
0.00839671
0.00842297
0.0084491
0.0084751
0.00850098
0.00852672
0.00855233
0.00857781
0.00860316
0.00862836
0.00865343
0.00867835
0.00870314
0.00872778
0.00875227
0.00877662
0.00880082
0.00882486
0.00884875
0.00887249
0.00889607
0.00891949
0.00894275
0.00896584
0.00898877
0.00901153
0.00903412
0.00905653
0.00907877
0.00910083
0.00912272
0.00914442
0.00916593
0.00918726
0.0092084
0.00922934
0.00925009
0.00927064
0.00929098
0.00931112
0.00933106
0.00935078
0.00937029
0.00938958
0.00940865
0.0094275
0.00944611
0.0094645
0.00948265
0.00950057
0.00951824
0.00953566
0.00955284
0.00956976
0.00958642
0.00960281
0.00961894
0.0096348
0.00965038
0.00966568
0.00968069
0.00969541
0.00970983
0.00972395
0.00973776
0.00975126
0.00976444
0.00977729
0.00978981
0.009802
0.00981383
0.00982532
0.00983645
0.00984721
0.0098576
0.00986761
0.00987723
0.00988645
0.00989527
0.00990367
0.00991165
0.0099192
0.00992631
0.00993296
0.00993915
0.00994487
0.00995011
0.00995484
0.00995907
0.00996278
0.00996596
0.00996859
0.00997065
0.00997215
0.00997305
0.00997334
0.00997301
0.00997205
0.00997042
0.00996811
0.00996511
0.00996139
0.00995693
0.00995171
0.0099457
0.00993888
0.00993123
0.0099227
0.00991329
0.00990294
0.00989164
0.00987935
0.00986602
0.00985163
0.00983613
0.00981947
0.00980161
0.00978251
0.0097621
0.00974032
0.00971713
0.00969245
0.00966621
0.00963833
0.00960874
0.00957734
0.00954403
0.00950871
0.00947126
0.00943156
0.00938945
0.00934479
0.0092974
0.00924709
0.00919363
0.00913679
0.00907627
0.00901177
0.00894291
0.00886926
0.00879031
0.00870546
0.00861397
0.00851493
0.00840722
0.00828935
0.00815932
0.00801414
0.00784748
0.00762254
0.00702296
0.00476756
2.63884e-06
-0.0047639
-0.00702165
-0.00762209
-0.00784719
-0.0080139
-0.00815911
-0.00828917
-0.00840706
-0.00851479
-0.00861383
-0.00870534
-0.0087902
-0.00886916
-0.00894282
-0.00901169
-0.0090762
-0.00913672
-0.00919357
-0.00924703
-0.00929735
-0.00934474
-0.00938941
-0.00943152
-0.00947123
-0.00950868
-0.009544
-0.00957731
-0.00960872
-0.00963831
-0.00966619
-0.00969243
-0.00971712
-0.00974031
-0.00976208
-0.0097825
-0.0098016
-0.00981946
-0.00983612
-0.00985162
-0.00986602
-0.00987934
-0.00989164
-0.00990294
-0.00991328
-0.0099227
-0.00993122
-0.00993888
-0.0099457
-0.00995171
-0.00995693
-0.00996139
-0.00996511
-0.00996811
-0.00997042
-0.00997205
-0.00997301
-0.00997334
-0.00997305
-0.00997215
-0.00997065
-0.00996859
-0.00996596
-0.00996278
-0.00995907
-0.00995484
-0.0099501
-0.00994487
-0.00993915
-0.00993296
-0.00992631
-0.0099192
-0.00991165
-0.00990367
-0.00989527
-0.00988645
-0.00987723
-0.00986761
-0.0098576
-0.00984721
-0.00983644
-0.00982532
-0.00981383
-0.00980199
-0.00978981
-0.00977729
-0.00976443
-0.00975125
-0.00973776
-0.00972394
-0.00970982
-0.0096954
-0.00968068
-0.00966567
-0.00965037
-0.00963479
-0.00961893
-0.0096028
-0.00958641
-0.00956975
-0.00955283
-0.00953565
-0.00951823
-0.00950056
-0.00948264
-0.00946449
-0.0094461
-0.00942748
-0.00940864
-0.00938957
-0.00937028
-0.00935077
-0.00933104
-0.00931111
-0.00929097
-0.00927062
-0.00925007
-0.00922933
-0.00920838
-0.00918725
-0.00916592
-0.0091444
-0.0091227
-0.00910082
-0.00907876
-0.00905652
-0.0090341
-0.00901151
-0.00898875
-0.00896582
-0.00894273
-0.00891947
-0.00889605
-0.00887247
-0.00884874
-0.00882484
-0.0088008
-0.0087766
-0.00875225
-0.00872776
-0.00870312
-0.00867834
-0.00865341
-0.00862834
-0.00860314
-0.00857779
-0.00855232
-0.0085267
-0.00850096
-0.00847508
-0.00844908
-0.00842295
-0.00839669
-0.00837031
-0.0083438
-0.00831718
-0.00829043
-0.00826357
-0.00823658
-0.00820948
-0.00818227
-0.00815494
-0.0081275
-0.00809995
-0.00807229
-0.00804452
-0.00801665
-0.00798867
-0.00796058
-0.00793239
-0.0079041
-0.0078757
-0.00784721
-0.00781861
-0.00778992
-0.00776113
-0.00773225
-0.00770326
-0.00767419
-0.00764502
-0.00761576
-0.00758641
-0.00755697
-0.00752744
-0.00749782
-0.00746812
-0.00743832
-0.00740845
-0.00737848
-0.00734844
-0.00731831
-0.0072881
-0.00725781
-0.00722744
-0.00719698
-0.00716645
-0.00713585
-0.00710516
-0.0070744
-0.00704356
-0.00701265
-0.00698166
-0.0069506
-0.00691947
-0.00688827
-0.00685699
-0.00682565
-0.00679423
-0.00676275
-0.0067312
-0.00669958
-0.00666789
-0.00663614
-0.00660432
-0.00657244
-0.00654049
-0.00650848
-0.00647641
-0.00644427
-0.00641207
-0.00637981
-0.00634749
-0.00631511
-0.00628267
-0.00625017
-0.00621762
-0.006185
-0.00615233
-0.0061196
-0.00608682
-0.00605398
-0.00602108
-0.00598814
-0.00595513
-0.00592208
-0.00588897
-0.00585581
-0.0058226
-0.00578933
-0.00575602
-0.00572265
-0.00568924
-0.00565578
-0.00562226
-0.0055887
-0.0055551
-0.00552144
-0.00548774
-0.00545399
-0.00542019
-0.00538635
-0.00535247
-0.00531854
-0.00528457
-0.00525055
-0.00521649
-0.00518239
-0.00514824
-0.00511405
-0.00507982
-0.00504555
-0.00501124
-0.00497689
-0.0049425
-0.00490807
-0.0048736
-0.00483909
-0.00480455
-0.00476996
-0.00473534
-0.00470068
-0.00466599
-0.00463126
-0.00459649
-0.00456169
-0.00452685
-0.00449198
-0.00445707
-0.00442213
-0.00438715
-0.00435214
-0.0043171
-0.00428203
-0.00424692
-0.00421179
-0.00417662
-0.00414142
-0.00410618
-0.00407092
-0.00403563
-0.00400031
-0.00396496
-0.00392958
-0.00389417
-0.00385873
-0.00382326
-0.00378777
-0.00375225
-0.0037167
-0.00368112
-0.00364552
-0.00360989
-0.00357424
-0.00353856
-0.00350286
-0.00346713
-0.00343137
-0.00339559
-0.00335979
-0.00332396
-0.00328811
-0.00325224
-0.00321634
-0.00318042
-0.00314448
-0.00310852
-0.00307253
-0.00303653
-0.0030005
-0.00296445
-0.00292838
-0.0028923
-0.00285619
-0.00282006
-0.00278391
-0.00274774
-0.00271156
-0.00267535
-0.00263913
-0.00260289
-0.00256663
-0.00253036
-0.00249406
-0.00245775
-0.00242143
-0.00238509
-0.00234873
-0.00231235
-0.00227596
-0.00223956
-0.00220314
-0.0021667
-0.00213025
-0.00209379
-0.00205731
-0.00202082
-0.00198431
-0.00194779
-0.00191126
-0.00187472
-0.00183816
-0.00180159
-0.00176501
-0.00172842
-0.00169182
-0.0016552
-0.00161858
-0.00158194
-0.0015453
-0.00150864
-0.00147197
-0.0014353
-0.00139861
-0.00136192
-0.00132521
-0.0012885
-0.00125178
-0.00121505
-0.00117831
-0.00114157
-0.00110482
-0.00106806
-0.00103129
-0.000994519
-0.00095774
-0.000920954
-0.000884163
-0.000847366
-0.000810563
-0.000773755
-0.000736942
-0.000700124
-0.000663302
-0.000626476
-0.000589645
-0.000552811
-0.000515973
-0.000479132
-0.000442287
-0.00040544
-0.00036859
-0.000331738
-0.000294883
-0.000258027
-0.000221169
-0.00018431
-0.000147449
-0.000110588
-7.37256e-05
-3.68629e-05
)
;

boundaryField
{
    left
    {
        type            calculated;
        value           uniform 0;
    }
    right
    {
        type            calculated;
        value           uniform 0;
    }
    frontBackUpDown
    {
        type            empty;
    }
}


// ************************************************************************* //
