/*--------------------------------*- C++ -*----------------------------------*\
| =========                 |                                                 |
| \\      /  F ield         | OpenFOAM: The Open Source CFD Toolbox           |
|  \\    /   O peration     | Version:  2412                                  |
|   \\  /    A nd           | Website:  www.openfoam.com                      |
|    \\/     M anipulation  |                                                 |
\*---------------------------------------------------------------------------*/
FoamFile
{
    version     2.0;
    format      ascii;
    arch        "LSB;label=32;scalar=64";
    class       volVectorField;
    location    "0.36";
    object      U;
}
// * * * * * * * * * * * * * * * * * * * * * * * * * * * * * * * * * * * * * //

dimensions      [0 1 -1 0 0 0 0];

internalField   nonuniform List<vector> 
800
(
(0.00184312 0 0)
(0.00552941 0 0)
(0.00921566 0 0)
(0.0129019 0 0)
(0.016588 0 0)
(0.020274 0 0)
(0.0239598 0 0)
(0.0276456 0 0)
(0.0313311 0 0)
(0.0350164 0 0)
(0.0387016 0 0)
(0.0423864 0 0)
(0.046071 0 0)
(0.0497553 0 0)
(0.0534393 0 0)
(0.0571229 0 0)
(0.0608062 0 0)
(0.064489 0 0)
(0.0681715 0 0)
(0.0718535 0 0)
(0.075535 0 0)
(0.0792161 0 0)
(0.0828966 0 0)
(0.0865766 0 0)
(0.0902561 0 0)
(0.0939349 0 0)
(0.0976132 0 0)
(0.101291 0 0)
(0.104968 0 0)
(0.108644 0 0)
(0.11232 0 0)
(0.115994 0 0)
(0.119668 0 0)
(0.123342 0 0)
(0.127014 0 0)
(0.130686 0 0)
(0.134357 0 0)
(0.138027 0 0)
(0.141696 0 0)
(0.145364 0 0)
(0.149031 0 0)
(0.152697 0 0)
(0.156362 0 0)
(0.160026 0 0)
(0.16369 0 0)
(0.167352 0 0)
(0.171013 0 0)
(0.174672 0 0)
(0.178331 0 0)
(0.181988 0 0)
(0.185645 0 0)
(0.1893 0 0)
(0.192953 0 0)
(0.196606 0 0)
(0.200257 0 0)
(0.203907 0 0)
(0.207555 0 0)
(0.211203 0 0)
(0.214848 0 0)
(0.218493 0 0)
(0.222135 0 0)
(0.225777 0 0)
(0.229416 0 0)
(0.233055 0 0)
(0.236691 0 0)
(0.240326 0 0)
(0.24396 0 0)
(0.247592 0 0)
(0.251222 0 0)
(0.25485 0 0)
(0.258477 0 0)
(0.262102 0 0)
(0.265725 0 0)
(0.269347 0 0)
(0.272966 0 0)
(0.276584 0 0)
(0.280199 0 0)
(0.283813 0 0)
(0.287425 0 0)
(0.291035 0 0)
(0.294643 0 0)
(0.298249 0 0)
(0.301853 0 0)
(0.305454 0 0)
(0.309054 0 0)
(0.312651 0 0)
(0.316246 0 0)
(0.319839 0 0)
(0.32343 0 0)
(0.327019 0 0)
(0.330605 0 0)
(0.334189 0 0)
(0.33777 0 0)
(0.341349 0 0)
(0.344926 0 0)
(0.3485 0 0)
(0.352072 0 0)
(0.355641 0 0)
(0.359208 0 0)
(0.362772 0 0)
(0.366334 0 0)
(0.369893 0 0)
(0.373449 0 0)
(0.377002 0 0)
(0.380553 0 0)
(0.384101 0 0)
(0.387646 0 0)
(0.391189 0 0)
(0.394728 0 0)
(0.398265 0 0)
(0.401799 0 0)
(0.405329 0 0)
(0.408857 0 0)
(0.412382 0 0)
(0.415903 0 0)
(0.419422 0 0)
(0.422937 0 0)
(0.42645 0 0)
(0.429959 0 0)
(0.433464 0 0)
(0.436967 0 0)
(0.440466 0 0)
(0.443962 0 0)
(0.447454 0 0)
(0.450943 0 0)
(0.454429 0 0)
(0.457911 0 0)
(0.461389 0 0)
(0.464864 0 0)
(0.468336 0 0)
(0.471803 0 0)
(0.475267 0 0)
(0.478728 0 0)
(0.482184 0 0)
(0.485637 0 0)
(0.489086 0 0)
(0.492531 0 0)
(0.495972 0 0)
(0.499409 0 0)
(0.502842 0 0)
(0.506271 0 0)
(0.509696 0 0)
(0.513117 0 0)
(0.516534 0 0)
(0.519946 0 0)
(0.523354 0 0)
(0.526758 0 0)
(0.530158 0 0)
(0.533553 0 0)
(0.536944 0 0)
(0.54033 0 0)
(0.543712 0 0)
(0.547089 0 0)
(0.550462 0 0)
(0.553829 0 0)
(0.557193 0 0)
(0.560551 0 0)
(0.563905 0 0)
(0.567254 0 0)
(0.570597 0 0)
(0.573936 0 0)
(0.57727 0 0)
(0.580599 0 0)
(0.583923 0 0)
(0.587242 0 0)
(0.590555 0 0)
(0.593864 0 0)
(0.597166 0 0)
(0.600464 0 0)
(0.603756 0 0)
(0.607043 0 0)
(0.610324 0 0)
(0.6136 0 0)
(0.61687 0 0)
(0.620134 0 0)
(0.623393 0 0)
(0.626645 0 0)
(0.629892 0 0)
(0.633133 0 0)
(0.636368 0 0)
(0.639597 0 0)
(0.64282 0 0)
(0.646037 0 0)
(0.649248 0 0)
(0.652452 0 0)
(0.65565 0 0)
(0.658842 0 0)
(0.662027 0 0)
(0.665205 0 0)
(0.668377 0 0)
(0.671542 0 0)
(0.674701 0 0)
(0.677853 0 0)
(0.680998 0 0)
(0.684136 0 0)
(0.687267 0 0)
(0.690391 0 0)
(0.693508 0 0)
(0.696617 0 0)
(0.699719 0 0)
(0.702814 0 0)
(0.705902 0 0)
(0.708982 0 0)
(0.712054 0 0)
(0.715119 0 0)
(0.718176 0 0)
(0.721225 0 0)
(0.724266 0 0)
(0.727299 0 0)
(0.730325 0 0)
(0.733342 0 0)
(0.73635 0 0)
(0.739351 0 0)
(0.742343 0 0)
(0.745326 0 0)
(0.748301 0 0)
(0.751267 0 0)
(0.754225 0 0)
(0.757173 0 0)
(0.760113 0 0)
(0.763044 0 0)
(0.765965 0 0)
(0.768877 0 0)
(0.77178 0 0)
(0.774673 0 0)
(0.777557 0 0)
(0.780431 0 0)
(0.783296 0 0)
(0.78615 0 0)
(0.788994 0 0)
(0.791829 0 0)
(0.794653 0 0)
(0.797467 0 0)
(0.80027 0 0)
(0.803063 0 0)
(0.805846 0 0)
(0.808617 0 0)
(0.811378 0 0)
(0.814127 0 0)
(0.816866 0 0)
(0.819593 0 0)
(0.822308 0 0)
(0.825012 0 0)
(0.827705 0 0)
(0.830385 0 0)
(0.833054 0 0)
(0.835711 0 0)
(0.838355 0 0)
(0.840987 0 0)
(0.843607 0 0)
(0.846213 0 0)
(0.848807 0 0)
(0.851388 0 0)
(0.853956 0 0)
(0.856511 0 0)
(0.859052 0 0)
(0.861579 0 0)
(0.864093 0 0)
(0.866593 0 0)
(0.869078 0 0)
(0.871549 0 0)
(0.874006 0 0)
(0.876448 0 0)
(0.878876 0 0)
(0.881288 0 0)
(0.883685 0 0)
(0.886066 0 0)
(0.888432 0 0)
(0.890782 0 0)
(0.893116 0 0)
(0.895433 0 0)
(0.897734 0 0)
(0.900019 0 0)
(0.902286 0 0)
(0.904537 0 0)
(0.90677 0 0)
(0.908985 0 0)
(0.911182 0 0)
(0.913361 0 0)
(0.915522 0 0)
(0.917664 0 0)
(0.919788 0 0)
(0.921892 0 0)
(0.923976 0 0)
(0.926041 0 0)
(0.928086 0 0)
(0.93011 0 0)
(0.932114 0 0)
(0.934097 0 0)
(0.936059 0 0)
(0.937999 0 0)
(0.939917 0 0)
(0.941813 0 0)
(0.943686 0 0)
(0.945537 0 0)
(0.947364 0 0)
(0.949167 0 0)
(0.950946 0 0)
(0.952701 0 0)
(0.954431 0 0)
(0.956136 0 0)
(0.957815 0 0)
(0.959468 0 0)
(0.961095 0 0)
(0.962694 0 0)
(0.964266 0 0)
(0.96581 0 0)
(0.967326 0 0)
(0.968812 0 0)
(0.970269 0 0)
(0.971697 0 0)
(0.973093 0 0)
(0.974459 0 0)
(0.975793 0 0)
(0.977095 0 0)
(0.978364 0 0)
(0.979599 0 0)
(0.9808 0 0)
(0.981967 0 0)
(0.983098 0 0)
(0.984192 0 0)
(0.98525 0 0)
(0.98627 0 0)
(0.987252 0 0)
(0.988194 0 0)
(0.989096 0 0)
(0.989958 0 0)
(0.990777 0 0)
(0.991554 0 0)
(0.992287 0 0)
(0.992975 0 0)
(0.993617 0 0)
(0.994213 0 0)
(0.994761 0 0)
(0.99526 0 0)
(0.995709 0 0)
(0.996106 0 0)
(0.99645 0 0)
(0.996741 0 0)
(0.996976 0 0)
(0.997155 0 0)
(0.997275 0 0)
(0.997335 0 0)
(0.997334 0 0)
(0.997269 0 0)
(0.99714 0 0)
(0.996944 0 0)
(0.996679 0 0)
(0.996343 0 0)
(0.995935 0 0)
(0.995451 0 0)
(0.994891 0 0)
(0.99425 0 0)
(0.993527 0 0)
(0.992719 0 0)
(0.991822 0 0)
(0.990835 0 0)
(0.989754 0 0)
(0.988575 0 0)
(0.987295 0 0)
(0.98591 0 0)
(0.984416 0 0)
(0.982809 0 0)
(0.981085 0 0)
(0.979238 0 0)
(0.977263 0 0)
(0.975156 0 0)
(0.972909 0 0)
(0.970517 0 0)
(0.967973 0 0)
(0.965269 0 0)
(0.962398 0 0)
(0.95935 0 0)
(0.956117 0 0)
(0.952689 0 0)
(0.949054 0 0)
(0.945199 0 0)
(0.941112 0 0)
(0.936778 0 0)
(0.93218 0 0)
(0.9273 0 0)
(0.922117 0 0)
(0.916609 0 0)
(0.910748 0 0)
(0.904506 0 0)
(0.897848 0 0)
(0.890734 0 0)
(0.883118 0 0)
(0.874944 0 0)
(0.866147 0 0)
(0.856646 0 0)
(0.846341 0 0)
(0.835104 0 0)
(0.822767 0 0)
(0.809097 0 0)
(0.793732 0 0)
(0.775765 0 0)
(0.748743 0 0)
(0.655849 0 0)
(0.297663 0 0)
(-0.297135 0 0)
(-0.655644 0 0)
(-0.748685 0 0)
(-0.775732 0 0)
(-0.793705 0 0)
(-0.809074 0 0)
(-0.822747 0 0)
(-0.835086 0 0)
(-0.846325 0 0)
(-0.856632 0 0)
(-0.866134 0 0)
(-0.874933 0 0)
(-0.883107 0 0)
(-0.890725 0 0)
(-0.89784 0 0)
(-0.904498 0 0)
(-0.910741 0 0)
(-0.916602 0 0)
(-0.922111 0 0)
(-0.927295 0 0)
(-0.932175 0 0)
(-0.936774 0 0)
(-0.941108 0 0)
(-0.945195 0 0)
(-0.94905 0 0)
(-0.952686 0 0)
(-0.956115 0 0)
(-0.959348 0 0)
(-0.962396 0 0)
(-0.965267 0 0)
(-0.967971 0 0)
(-0.970515 0 0)
(-0.972908 0 0)
(-0.975154 0 0)
(-0.977262 0 0)
(-0.979237 0 0)
(-0.981084 0 0)
(-0.982808 0 0)
(-0.984415 0 0)
(-0.985909 0 0)
(-0.987294 0 0)
(-0.988574 0 0)
(-0.989753 0 0)
(-0.990835 0 0)
(-0.991822 0 0)
(-0.992718 0 0)
(-0.993527 0 0)
(-0.99425 0 0)
(-0.99489 0 0)
(-0.995451 0 0)
(-0.995935 0 0)
(-0.996343 0 0)
(-0.996679 0 0)
(-0.996944 0 0)
(-0.99714 0 0)
(-0.997269 0 0)
(-0.997334 0 0)
(-0.997335 0 0)
(-0.997275 0 0)
(-0.997155 0 0)
(-0.996976 0 0)
(-0.996741 0 0)
(-0.99645 0 0)
(-0.996106 0 0)
(-0.995709 0 0)
(-0.99526 0 0)
(-0.994761 0 0)
(-0.994213 0 0)
(-0.993617 0 0)
(-0.992975 0 0)
(-0.992287 0 0)
(-0.991554 0 0)
(-0.990777 0 0)
(-0.989957 0 0)
(-0.989096 0 0)
(-0.988194 0 0)
(-0.987251 0 0)
(-0.98627 0 0)
(-0.98525 0 0)
(-0.984192 0 0)
(-0.983097 0 0)
(-0.981966 0 0)
(-0.9808 0 0)
(-0.979598 0 0)
(-0.978363 0 0)
(-0.977094 0 0)
(-0.975792 0 0)
(-0.974458 0 0)
(-0.973093 0 0)
(-0.971696 0 0)
(-0.970269 0 0)
(-0.968811 0 0)
(-0.967325 0 0)
(-0.965809 0 0)
(-0.964265 0 0)
(-0.962693 0 0)
(-0.961094 0 0)
(-0.959467 0 0)
(-0.957814 0 0)
(-0.956135 0 0)
(-0.95443 0 0)
(-0.9527 0 0)
(-0.950945 0 0)
(-0.949166 0 0)
(-0.947363 0 0)
(-0.945536 0 0)
(-0.943685 0 0)
(-0.941812 0 0)
(-0.939916 0 0)
(-0.937998 0 0)
(-0.936058 0 0)
(-0.934096 0 0)
(-0.932113 0 0)
(-0.930109 0 0)
(-0.928085 0 0)
(-0.92604 0 0)
(-0.923975 0 0)
(-0.92189 0 0)
(-0.919786 0 0)
(-0.917663 0 0)
(-0.915521 0 0)
(-0.91336 0 0)
(-0.911181 0 0)
(-0.908983 0 0)
(-0.906768 0 0)
(-0.904535 0 0)
(-0.902285 0 0)
(-0.900017 0 0)
(-0.897733 0 0)
(-0.895432 0 0)
(-0.893114 0 0)
(-0.89078 0 0)
(-0.88843 0 0)
(-0.886064 0 0)
(-0.883683 0 0)
(-0.881286 0 0)
(-0.878874 0 0)
(-0.876447 0 0)
(-0.874004 0 0)
(-0.871548 0 0)
(-0.869076 0 0)
(-0.866591 0 0)
(-0.864091 0 0)
(-0.861577 0 0)
(-0.85905 0 0)
(-0.856509 0 0)
(-0.853954 0 0)
(-0.851386 0 0)
(-0.848805 0 0)
(-0.846211 0 0)
(-0.843605 0 0)
(-0.840985 0 0)
(-0.838353 0 0)
(-0.835709 0 0)
(-0.833052 0 0)
(-0.830383 0 0)
(-0.827703 0 0)
(-0.82501 0 0)
(-0.822306 0 0)
(-0.819591 0 0)
(-0.816863 0 0)
(-0.814125 0 0)
(-0.811376 0 0)
(-0.808615 0 0)
(-0.805844 0 0)
(-0.803061 0 0)
(-0.800268 0 0)
(-0.797465 0 0)
(-0.794651 0 0)
(-0.791827 0 0)
(-0.788992 0 0)
(-0.786148 0 0)
(-0.783293 0 0)
(-0.780429 0 0)
(-0.777555 0 0)
(-0.774671 0 0)
(-0.771778 0 0)
(-0.768875 0 0)
(-0.765963 0 0)
(-0.763042 0 0)
(-0.760111 0 0)
(-0.757171 0 0)
(-0.754223 0 0)
(-0.751265 0 0)
(-0.748299 0 0)
(-0.745324 0 0)
(-0.742341 0 0)
(-0.739349 0 0)
(-0.736348 0 0)
(-0.73334 0 0)
(-0.730323 0 0)
(-0.727297 0 0)
(-0.724264 0 0)
(-0.721223 0 0)
(-0.718174 0 0)
(-0.715117 0 0)
(-0.712052 0 0)
(-0.70898 0 0)
(-0.7059 0 0)
(-0.702812 0 0)
(-0.699717 0 0)
(-0.696615 0 0)
(-0.693506 0 0)
(-0.690389 0 0)
(-0.687265 0 0)
(-0.684134 0 0)
(-0.680996 0 0)
(-0.677851 0 0)
(-0.674699 0 0)
(-0.671541 0 0)
(-0.668375 0 0)
(-0.665203 0 0)
(-0.662025 0 0)
(-0.65884 0 0)
(-0.655648 0 0)
(-0.65245 0 0)
(-0.649246 0 0)
(-0.646035 0 0)
(-0.642818 0 0)
(-0.639596 0 0)
(-0.636367 0 0)
(-0.633132 0 0)
(-0.629891 0 0)
(-0.626644 0 0)
(-0.623391 0 0)
(-0.620132 0 0)
(-0.616868 0 0)
(-0.613598 0 0)
(-0.610322 0 0)
(-0.607041 0 0)
(-0.603754 0 0)
(-0.600462 0 0)
(-0.597165 0 0)
(-0.593862 0 0)
(-0.590554 0 0)
(-0.58724 0 0)
(-0.583922 0 0)
(-0.580598 0 0)
(-0.577269 0 0)
(-0.573935 0 0)
(-0.570596 0 0)
(-0.567252 0 0)
(-0.563903 0 0)
(-0.56055 0 0)
(-0.557191 0 0)
(-0.553828 0 0)
(-0.55046 0 0)
(-0.547087 0 0)
(-0.54371 0 0)
(-0.540329 0 0)
(-0.536942 0 0)
(-0.533552 0 0)
(-0.530156 0 0)
(-0.526757 0 0)
(-0.523353 0 0)
(-0.519945 0 0)
(-0.516532 0 0)
(-0.513116 0 0)
(-0.509695 0 0)
(-0.50627 0 0)
(-0.502841 0 0)
(-0.499408 0 0)
(-0.495971 0 0)
(-0.49253 0 0)
(-0.489085 0 0)
(-0.485636 0 0)
(-0.482183 0 0)
(-0.478726 0 0)
(-0.475266 0 0)
(-0.471802 0 0)
(-0.468335 0 0)
(-0.464863 0 0)
(-0.461388 0 0)
(-0.45791 0 0)
(-0.454428 0 0)
(-0.450942 0 0)
(-0.447453 0 0)
(-0.443961 0 0)
(-0.440465 0 0)
(-0.436966 0 0)
(-0.433463 0 0)
(-0.429958 0 0)
(-0.426449 0 0)
(-0.422936 0 0)
(-0.419421 0 0)
(-0.415902 0 0)
(-0.412381 0 0)
(-0.408856 0 0)
(-0.405328 0 0)
(-0.401798 0 0)
(-0.398264 0 0)
(-0.394727 0 0)
(-0.391188 0 0)
(-0.387646 0 0)
(-0.3841 0 0)
(-0.380552 0 0)
(-0.377002 0 0)
(-0.373448 0 0)
(-0.369892 0 0)
(-0.366333 0 0)
(-0.362772 0 0)
(-0.359207 0 0)
(-0.355641 0 0)
(-0.352071 0 0)
(-0.3485 0 0)
(-0.344925 0 0)
(-0.341349 0 0)
(-0.33777 0 0)
(-0.334188 0 0)
(-0.330604 0 0)
(-0.327018 0 0)
(-0.32343 0 0)
(-0.319839 0 0)
(-0.316246 0 0)
(-0.312651 0 0)
(-0.309053 0 0)
(-0.305454 0 0)
(-0.301852 0 0)
(-0.298248 0 0)
(-0.294642 0 0)
(-0.291035 0 0)
(-0.287425 0 0)
(-0.283813 0 0)
(-0.280199 0 0)
(-0.276583 0 0)
(-0.272966 0 0)
(-0.269346 0 0)
(-0.265725 0 0)
(-0.262102 0 0)
(-0.258477 0 0)
(-0.25485 0 0)
(-0.251222 0 0)
(-0.247591 0 0)
(-0.24396 0 0)
(-0.240326 0 0)
(-0.236691 0 0)
(-0.233054 0 0)
(-0.229416 0 0)
(-0.225776 0 0)
(-0.222135 0 0)
(-0.218492 0 0)
(-0.214848 0 0)
(-0.211202 0 0)
(-0.207555 0 0)
(-0.203907 0 0)
(-0.200257 0 0)
(-0.196606 0 0)
(-0.192953 0 0)
(-0.189299 0 0)
(-0.185644 0 0)
(-0.181988 0 0)
(-0.178331 0 0)
(-0.174672 0 0)
(-0.171012 0 0)
(-0.167351 0 0)
(-0.163689 0 0)
(-0.160026 0 0)
(-0.156362 0 0)
(-0.152697 0 0)
(-0.149031 0 0)
(-0.145364 0 0)
(-0.141696 0 0)
(-0.138027 0 0)
(-0.134357 0 0)
(-0.130686 0 0)
(-0.127014 0 0)
(-0.123342 0 0)
(-0.119668 0 0)
(-0.115994 0 0)
(-0.112319 0 0)
(-0.108644 0 0)
(-0.104968 0 0)
(-0.101291 0 0)
(-0.0976131 0 0)
(-0.0939349 0 0)
(-0.090256 0 0)
(-0.0865766 0 0)
(-0.0828966 0 0)
(-0.079216 0 0)
(-0.075535 0 0)
(-0.0718534 0 0)
(-0.0681714 0 0)
(-0.064489 0 0)
(-0.0608061 0 0)
(-0.0571229 0 0)
(-0.0534393 0 0)
(-0.0497553 0 0)
(-0.046071 0 0)
(-0.0423864 0 0)
(-0.0387016 0 0)
(-0.0350165 0 0)
(-0.0313311 0 0)
(-0.0276456 0 0)
(-0.0239599 0 0)
(-0.020274 0 0)
(-0.016588 0 0)
(-0.0129019 0 0)
(-0.00921569 0 0)
(-0.00552944 0 0)
(-0.00184315 0 0)
)
;

boundaryField
{
    left
    {
        type            fixedValue;
        value           uniform (0 0 0);
    }
    right
    {
        type            fixedValue;
        value           uniform (0 0 0);
    }
    frontBackUpDown
    {
        type            empty;
    }
}


// ************************************************************************* //
