/*--------------------------------*- C++ -*----------------------------------*\
| =========                 |                                                 |
| \\      /  F ield         | OpenFOAM: The Open Source CFD Toolbox           |
|  \\    /   O peration     | Version:  2412                                  |
|   \\  /    A nd           | Website:  www.openfoam.com                      |
|    \\/     M anipulation  |                                                 |
\*---------------------------------------------------------------------------*/
FoamFile
{
    version     2.0;
    format      ascii;
    arch        "LSB;label=32;scalar=64";
    class       surfaceScalarField;
    location    "0.45";
    object      phi;
}
// * * * * * * * * * * * * * * * * * * * * * * * * * * * * * * * * * * * * * //

dimensions      [0 3 -1 0 0 0 0];

oriented        oriented;

internalField   nonuniform List<scalar> 
799
(
3.25498e-05
6.50996e-05
9.76492e-05
0.000130198
0.000162747
0.000195295
0.000227842
0.000260388
0.000292933
0.000325476
0.000358018
0.000390559
0.000423097
0.000455634
0.000488169
0.000520702
0.000553232
0.00058576
0.000618285
0.000650808
0.000683327
0.000715844
0.000748357
0.000780867
0.000813373
0.000845876
0.000878375
0.000910871
0.000943362
0.000975848
0.00100833
0.00104081
0.00107328
0.00110575
0.00113821
0.00117067
0.00120313
0.00123557
0.00126802
0.00130045
0.00133288
0.00136531
0.00139772
0.00143014
0.00146254
0.00149494
0.00152733
0.00155972
0.0015921
0.00162447
0.00165683
0.00168919
0.00172154
0.00175388
0.00178621
0.00181853
0.00185085
0.00188316
0.00191545
0.00194774
0.00198003
0.0020123
0.00204456
0.00207681
0.00210906
0.00214129
0.00217351
0.00220573
0.00223793
0.00227013
0.00230231
0.00233448
0.00236664
0.00239879
0.00243093
0.00246306
0.00249517
0.00252728
0.00255937
0.00259145
0.00262352
0.00265557
0.00268762
0.00271965
0.00275166
0.00278367
0.00281566
0.00284764
0.0028796
0.00291155
0.00294349
0.00297541
0.00300732
0.00303921
0.00307109
0.00310295
0.0031348
0.00316663
0.00319845
0.00323025
0.00326204
0.00329381
0.00332556
0.0033573
0.00338902
0.00342073
0.00345242
0.00348409
0.00351574
0.00354737
0.00357899
0.00361059
0.00364218
0.00367374
0.00370528
0.00373681
0.00376832
0.00379981
0.00383128
0.00386273
0.00389416
0.00392557
0.00395696
0.00398833
0.00401968
0.00405101
0.00408231
0.0041136
0.00414486
0.00417611
0.00420733
0.00423853
0.0042697
0.00430086
0.00433199
0.0043631
0.00439418
0.00442525
0.00445629
0.0044873
0.00451829
0.00454926
0.0045802
0.00461111
0.004642
0.00467287
0.00470371
0.00473453
0.00476531
0.00479608
0.00482681
0.00485752
0.0048882
0.00491886
0.00494948
0.00498008
0.00501065
0.00504119
0.00507171
0.00510219
0.00513265
0.00516307
0.00519347
0.00522383
0.00525417
0.00528447
0.00531475
0.00534499
0.0053752
0.00540538
0.00543553
0.00546564
0.00549572
0.00552577
0.00555579
0.00558577
0.00561572
0.00564563
0.00567551
0.00570535
0.00573516
0.00576493
0.00579467
0.00582437
0.00585404
0.00588366
0.00591325
0.00594281
0.00597232
0.0060018
0.00603124
0.00606063
0.00608999
0.00611931
0.00614859
0.00617783
0.00620703
0.00623619
0.0062653
0.00629437
0.0063234
0.00635239
0.00638134
0.00641024
0.00643909
0.0064679
0.00649667
0.00652539
0.00655407
0.0065827
0.00661128
0.00663982
0.00666831
0.00669675
0.00672514
0.00675348
0.00678177
0.00681002
0.00683821
0.00686635
0.00689445
0.00692248
0.00695047
0.00697841
0.00700629
0.00703411
0.00706188
0.0070896
0.00711726
0.00714487
0.00717242
0.00719991
0.00722734
0.00725472
0.00728204
0.00730929
0.00733649
0.00736363
0.0073907
0.00741772
0.00744467
0.00747155
0.00749838
0.00752514
0.00755183
0.00757846
0.00760502
0.00763151
0.00765794
0.0076843
0.00771058
0.0077368
0.00776295
0.00778902
0.00781503
0.00784096
0.00786681
0.00789259
0.0079183
0.00794393
0.00796948
0.00799495
0.00802034
0.00804566
0.00807089
0.00809604
0.00812111
0.0081461
0.008171
0.00819581
0.00822054
0.00824519
0.00826974
0.0082942
0.00831858
0.00834286
0.00836705
0.00839114
0.00841514
0.00843905
0.00846285
0.00848656
0.00851017
0.00853368
0.00855708
0.00858039
0.00860359
0.00862668
0.00864966
0.00867254
0.00869531
0.00871796
0.0087405
0.00876293
0.00878524
0.00880744
0.00882951
0.00885147
0.0088733
0.00889501
0.00891659
0.00893805
0.00895938
0.00898057
0.00900164
0.00902257
0.00904336
0.00906402
0.00908453
0.0091049
0.00912513
0.00914521
0.00916515
0.00918493
0.00920456
0.00922403
0.00924334
0.0092625
0.00928149
0.00930032
0.00931897
0.00933746
0.00935578
0.00937391
0.00939187
0.00940965
0.00942724
0.00944464
0.00946185
0.00947887
0.00949568
0.0095123
0.00952871
0.00954491
0.0095609
0.00957667
0.00959222
0.00960755
0.00962265
0.00963751
0.00965214
0.00966652
0.00968066
0.00969454
0.00970817
0.00972153
0.00973463
0.00974745
0.00976
0.00977225
0.00978422
0.00979589
0.00980725
0.00981831
0.00982904
0.00983945
0.00984953
0.00985926
0.00986865
0.00987767
0.00988633
0.00989462
0.00990251
0.00991001
0.00991711
0.00992379
0.00993003
0.00993584
0.0099412
0.00994608
0.00995049
0.00995441
0.00995781
0.00996069
0.00996303
0.00996481
0.00996601
0.00996661
0.0099666
0.00996595
0.00996464
0.00996264
0.00995993
0.00995648
0.00995226
0.00994724
0.00994139
0.00993467
0.00992705
0.00991848
0.00990892
0.00989832
0.00988663
0.00987381
0.00985969
0.00984529
0.00981908
0.00989766
0.00798151
6.89211e-06
-0.00797458
-0.00989762
-0.00981908
-0.00984527
-0.00985968
-0.0098738
-0.00988663
-0.00989832
-0.00990892
-0.00991848
-0.00992705
-0.00993467
-0.00994139
-0.00994724
-0.00995226
-0.00995647
-0.00995992
-0.00996264
-0.00996463
-0.00996595
-0.0099666
-0.00996661
-0.00996601
-0.00996481
-0.00996303
-0.00996069
-0.00995781
-0.0099544
-0.00995049
-0.00994608
-0.00994119
-0.00993584
-0.00993003
-0.00992378
-0.00991711
-0.00991001
-0.00990251
-0.00989461
-0.00988633
-0.00987767
-0.00986864
-0.00985926
-0.00984952
-0.00983945
-0.00982904
-0.0098183
-0.00980725
-0.00979588
-0.00978421
-0.00977225
-0.00975999
-0.00974744
-0.00973462
-0.00972152
-0.00970816
-0.00969453
-0.00968065
-0.00966651
-0.00965213
-0.0096375
-0.00962264
-0.00960754
-0.00959221
-0.00957666
-0.00956089
-0.0095449
-0.0095287
-0.00951229
-0.00949567
-0.00947885
-0.00946184
-0.00944463
-0.00942722
-0.00940963
-0.00939186
-0.0093739
-0.00935576
-0.00933745
-0.00931896
-0.0093003
-0.00928147
-0.00926248
-0.00924333
-0.00922401
-0.00920454
-0.00918491
-0.00916513
-0.0091452
-0.00912511
-0.00910489
-0.00908451
-0.009064
-0.00904334
-0.00902255
-0.00900162
-0.00898056
-0.00895936
-0.00893803
-0.00891657
-0.00889499
-0.00887328
-0.00885145
-0.00882949
-0.00880742
-0.00878522
-0.00876291
-0.00874048
-0.00871794
-0.00869529
-0.00867252
-0.00864964
-0.00862666
-0.00860356
-0.00858037
-0.00855706
-0.00853366
-0.00851015
-0.00848654
-0.00846283
-0.00843902
-0.00841512
-0.00839112
-0.00836702
-0.00834284
-0.00831855
-0.00829418
-0.00826972
-0.00824516
-0.00822052
-0.00819579
-0.00817098
-0.00814608
-0.00812109
-0.00809602
-0.00807087
-0.00804564
-0.00802032
-0.00799493
-0.00796945
-0.0079439
-0.00791827
-0.00789257
-0.00786679
-0.00784093
-0.007815
-0.007789
-0.00776293
-0.00773678
-0.00771056
-0.00768427
-0.00765792
-0.00763149
-0.007605
-0.00757844
-0.00755181
-0.00752511
-0.00749836
-0.00747153
-0.00744465
-0.00741769
-0.00739068
-0.00736361
-0.00733647
-0.00730927
-0.00728202
-0.0072547
-0.00722732
-0.00719989
-0.0071724
-0.00714485
-0.00711724
-0.00708958
-0.00706186
-0.00703409
-0.00700626
-0.00697838
-0.00695045
-0.00692246
-0.00689442
-0.00686633
-0.00683819
-0.00681
-0.00678175
-0.00675346
-0.00672512
-0.00669673
-0.00666829
-0.0066398
-0.00661126
-0.00658268
-0.00655405
-0.00652537
-0.00649665
-0.00646788
-0.00643907
-0.00641022
-0.00638132
-0.00635237
-0.00632338
-0.00629435
-0.00626528
-0.00623617
-0.00620701
-0.00617781
-0.00614857
-0.00611929
-0.00608998
-0.00606062
-0.00603122
-0.00600178
-0.0059723
-0.00594279
-0.00591324
-0.00588365
-0.00585402
-0.00582436
-0.00579465
-0.00576492
-0.00573514
-0.00570534
-0.00567549
-0.00564561
-0.0056157
-0.00558575
-0.00555577
-0.00552575
-0.00549571
-0.00546562
-0.00543551
-0.00540536
-0.00537518
-0.00534497
-0.00531473
-0.00528446
-0.00525415
-0.00522382
-0.00519345
-0.00516306
-0.00513263
-0.00510218
-0.00507169
-0.00504118
-0.00501064
-0.00498007
-0.00494947
-0.00491884
-0.00488819
-0.00485751
-0.0048268
-0.00479606
-0.0047653
-0.00473451
-0.0047037
-0.00467286
-0.00464199
-0.0046111
-0.00458019
-0.00454924
-0.00451828
-0.00448729
-0.00445627
-0.00442524
-0.00439417
-0.00436309
-0.00433198
-0.00430085
-0.00426969
-0.00423852
-0.00420732
-0.0041761
-0.00414485
-0.00411359
-0.0040823
-0.004051
-0.00401967
-0.00398832
-0.00395695
-0.00392556
-0.00389415
-0.00386272
-0.00383127
-0.0037998
-0.00376831
-0.0037368
-0.00370528
-0.00367373
-0.00364217
-0.00361059
-0.00357899
-0.00354737
-0.00351573
-0.00348408
-0.00345241
-0.00342072
-0.00338902
-0.00335729
-0.00332556
-0.0032938
-0.00326203
-0.00323025
-0.00319844
-0.00316663
-0.00313479
-0.00310294
-0.00307108
-0.0030392
-0.00300731
-0.0029754
-0.00294348
-0.00291154
-0.00287959
-0.00284763
-0.00281565
-0.00278366
-0.00275166
-0.00271964
-0.00268761
-0.00265557
-0.00262351
-0.00259145
-0.00255937
-0.00252727
-0.00249517
-0.00246305
-0.00243093
-0.00239879
-0.00236664
-0.00233448
-0.0023023
-0.00227012
-0.00223793
-0.00220573
-0.00217351
-0.00214129
-0.00210905
-0.00207681
-0.00204456
-0.00201229
-0.00198002
-0.00194774
-0.00191545
-0.00188315
-0.00185085
-0.00181853
-0.00178621
-0.00175387
-0.00172153
-0.00168919
-0.00165683
-0.00162447
-0.0015921
-0.00155972
-0.00152733
-0.00149494
-0.00146254
-0.00143014
-0.00139772
-0.00136531
-0.00133288
-0.00130045
-0.00126801
-0.00123557
-0.00120312
-0.00117067
-0.00113821
-0.00110575
-0.00107328
-0.00104081
-0.00100833
-0.000975848
-0.000943361
-0.00091087
-0.000878375
-0.000845876
-0.000813373
-0.000780867
-0.000748357
-0.000715843
-0.000683327
-0.000650807
-0.000618285
-0.00058576
-0.000553232
-0.000520702
-0.000488169
-0.000455634
-0.000423097
-0.000390559
-0.000358018
-0.000325476
-0.000292933
-0.000260388
-0.000227842
-0.000195295
-0.000162747
-0.000130199
-9.76494e-05
-6.50999e-05
-3.255e-05
)
;

boundaryField
{
    left
    {
        type            calculated;
        value           uniform 0;
    }
    right
    {
        type            calculated;
        value           uniform 0;
    }
    frontBackUpDown
    {
        type            empty;
    }
}


// ************************************************************************* //
