/*--------------------------------*- C++ -*----------------------------------*\
| =========                 |                                                 |
| \\      /  F ield         | OpenFOAM: The Open Source CFD Toolbox           |
|  \\    /   O peration     | Version:  2412                                  |
|   \\  /    A nd           | Website:  www.openfoam.com                      |
|    \\/     M anipulation  |                                                 |
\*---------------------------------------------------------------------------*/
FoamFile
{
    version     2.0;
    format      ascii;
    arch        "LSB;label=32;scalar=64";
    class       volVectorField;
    location    "0.45";
    object      U_0;
}
// * * * * * * * * * * * * * * * * * * * * * * * * * * * * * * * * * * * * * //

dimensions      [0 1 -1 0 0 0 0];

internalField   nonuniform List<vector> 
800
(
(0.00162854 0 0)
(0.00488565 0 0)
(0.00814274 0 0)
(0.0113998 0 0)
(0.0146568 0 0)
(0.0179137 0 0)
(0.0211706 0 0)
(0.0244274 0 0)
(0.027684 0 0)
(0.0309406 0 0)
(0.034197 0 0)
(0.0374532 0 0)
(0.0407093 0 0)
(0.0439652 0 0)
(0.0472209 0 0)
(0.0504764 0 0)
(0.0537316 0 0)
(0.0569867 0 0)
(0.0602414 0 0)
(0.0634959 0 0)
(0.0667501 0 0)
(0.0700041 0 0)
(0.0732577 0 0)
(0.0765109 0 0)
(0.0797639 0 0)
(0.0830165 0 0)
(0.0862687 0 0)
(0.0895205 0 0)
(0.0927719 0 0)
(0.0960229 0 0)
(0.0992735 0 0)
(0.102524 0 0)
(0.105773 0 0)
(0.109022 0 0)
(0.112271 0 0)
(0.115519 0 0)
(0.118767 0 0)
(0.122014 0 0)
(0.125261 0 0)
(0.128507 0 0)
(0.131752 0 0)
(0.134997 0 0)
(0.138241 0 0)
(0.141485 0 0)
(0.144728 0 0)
(0.14797 0 0)
(0.151212 0 0)
(0.154453 0 0)
(0.157693 0 0)
(0.160932 0 0)
(0.164171 0 0)
(0.167409 0 0)
(0.170647 0 0)
(0.173883 0 0)
(0.177119 0 0)
(0.180354 0 0)
(0.183588 0 0)
(0.186821 0 0)
(0.190053 0 0)
(0.193285 0 0)
(0.196515 0 0)
(0.199745 0 0)
(0.202974 0 0)
(0.206202 0 0)
(0.209429 0 0)
(0.212654 0 0)
(0.215879 0 0)
(0.219103 0 0)
(0.222326 0 0)
(0.225548 0 0)
(0.228769 0 0)
(0.231989 0 0)
(0.235207 0 0)
(0.238425 0 0)
(0.241641 0 0)
(0.244857 0 0)
(0.248071 0 0)
(0.251284 0 0)
(0.254496 0 0)
(0.257706 0 0)
(0.260916 0 0)
(0.264124 0 0)
(0.267331 0 0)
(0.270536 0 0)
(0.273741 0 0)
(0.276944 0 0)
(0.280146 0 0)
(0.283346 0 0)
(0.286545 0 0)
(0.289743 0 0)
(0.292939 0 0)
(0.296134 0 0)
(0.299327 0 0)
(0.302519 0 0)
(0.30571 0 0)
(0.308899 0 0)
(0.312086 0 0)
(0.315272 0 0)
(0.318457 0 0)
(0.32164 0 0)
(0.324821 0 0)
(0.328001 0 0)
(0.331179 0 0)
(0.334356 0 0)
(0.33753 0 0)
(0.340704 0 0)
(0.343875 0 0)
(0.347045 0 0)
(0.350213 0 0)
(0.353379 0 0)
(0.356544 0 0)
(0.359707 0 0)
(0.362868 0 0)
(0.366027 0 0)
(0.369184 0 0)
(0.37234 0 0)
(0.375493 0 0)
(0.378645 0 0)
(0.381795 0 0)
(0.384943 0 0)
(0.388088 0 0)
(0.391232 0 0)
(0.394374 0 0)
(0.397514 0 0)
(0.400652 0 0)
(0.403787 0 0)
(0.406921 0 0)
(0.410052 0 0)
(0.413182 0 0)
(0.416309 0 0)
(0.419434 0 0)
(0.422557 0 0)
(0.425677 0 0)
(0.428796 0 0)
(0.431912 0 0)
(0.435025 0 0)
(0.438137 0 0)
(0.441246 0 0)
(0.444353 0 0)
(0.447457 0 0)
(0.450559 0 0)
(0.453658 0 0)
(0.456756 0 0)
(0.45985 0 0)
(0.462942 0 0)
(0.466032 0 0)
(0.469119 0 0)
(0.472203 0 0)
(0.475285 0 0)
(0.478364 0 0)
(0.481441 0 0)
(0.484514 0 0)
(0.487586 0 0)
(0.490654 0 0)
(0.49372 0 0)
(0.496782 0 0)
(0.499843 0 0)
(0.5029 0 0)
(0.505954 0 0)
(0.509006 0 0)
(0.512054 0 0)
(0.5151 0 0)
(0.518142 0 0)
(0.521182 0 0)
(0.524218 0 0)
(0.527252 0 0)
(0.530282 0 0)
(0.53331 0 0)
(0.536334 0 0)
(0.539355 0 0)
(0.542373 0 0)
(0.545387 0 0)
(0.548398 0 0)
(0.551406 0 0)
(0.554411 0 0)
(0.557412 0 0)
(0.56041 0 0)
(0.563405 0 0)
(0.566396 0 0)
(0.569383 0 0)
(0.572367 0 0)
(0.575348 0 0)
(0.578325 0 0)
(0.581298 0 0)
(0.584268 0 0)
(0.587234 0 0)
(0.590196 0 0)
(0.593154 0 0)
(0.596109 0 0)
(0.59906 0 0)
(0.602007 0 0)
(0.60495 0 0)
(0.607889 0 0)
(0.610824 0 0)
(0.613755 0 0)
(0.616682 0 0)
(0.619605 0 0)
(0.622524 0 0)
(0.625439 0 0)
(0.62835 0 0)
(0.631256 0 0)
(0.634158 0 0)
(0.637056 0 0)
(0.639949 0 0)
(0.642838 0 0)
(0.645723 0 0)
(0.648603 0 0)
(0.651478 0 0)
(0.654349 0 0)
(0.657215 0 0)
(0.660077 0 0)
(0.662934 0 0)
(0.665786 0 0)
(0.668634 0 0)
(0.671476 0 0)
(0.674314 0 0)
(0.677147 0 0)
(0.679975 0 0)
(0.682797 0 0)
(0.685615 0 0)
(0.688428 0 0)
(0.691235 0 0)
(0.694037 0 0)
(0.696834 0 0)
(0.699626 0 0)
(0.702412 0 0)
(0.705193 0 0)
(0.707968 0 0)
(0.710738 0 0)
(0.713502 0 0)
(0.71626 0 0)
(0.719013 0 0)
(0.72176 0 0)
(0.724501 0 0)
(0.727236 0 0)
(0.729966 0 0)
(0.732689 0 0)
(0.735406 0 0)
(0.738117 0 0)
(0.740822 0 0)
(0.743521 0 0)
(0.746214 0 0)
(0.7489 0 0)
(0.751579 0 0)
(0.754252 0 0)
(0.756919 0 0)
(0.759579 0 0)
(0.762232 0 0)
(0.764878 0 0)
(0.767518 0 0)
(0.77015 0 0)
(0.772776 0 0)
(0.775395 0 0)
(0.778006 0 0)
(0.78061 0 0)
(0.783207 0 0)
(0.785796 0 0)
(0.788378 0 0)
(0.790953 0 0)
(0.79352 0 0)
(0.796079 0 0)
(0.79863 0 0)
(0.801173 0 0)
(0.803709 0 0)
(0.806236 0 0)
(0.808755 0 0)
(0.811266 0 0)
(0.813769 0 0)
(0.816263 0 0)
(0.818749 0 0)
(0.821226 0 0)
(0.823694 0 0)
(0.826154 0 0)
(0.828605 0 0)
(0.831046 0 0)
(0.833479 0 0)
(0.835902 0 0)
(0.838316 0 0)
(0.84072 0 0)
(0.843115 0 0)
(0.8455 0 0)
(0.847875 0 0)
(0.85024 0 0)
(0.852596 0 0)
(0.854941 0 0)
(0.857276 0 0)
(0.8596 0 0)
(0.861914 0 0)
(0.864217 0 0)
(0.866509 0 0)
(0.868791 0 0)
(0.871061 0 0)
(0.87332 0 0)
(0.875567 0 0)
(0.877803 0 0)
(0.880027 0 0)
(0.88224 0 0)
(0.88444 0 0)
(0.886629 0 0)
(0.888805 0 0)
(0.890968 0 0)
(0.893119 0 0)
(0.895256 0 0)
(0.897381 0 0)
(0.899493 0 0)
(0.901591 0 0)
(0.903676 0 0)
(0.905747 0 0)
(0.907803 0 0)
(0.909846 0 0)
(0.911874 0 0)
(0.913888 0 0)
(0.915887 0 0)
(0.917871 0 0)
(0.919839 0 0)
(0.921792 0 0)
(0.92373 0 0)
(0.925651 0 0)
(0.927556 0 0)
(0.929445 0 0)
(0.931317 0 0)
(0.933171 0 0)
(0.935009 0 0)
(0.936829 0 0)
(0.938631 0 0)
(0.940415 0 0)
(0.942181 0 0)
(0.943928 0 0)
(0.945655 0 0)
(0.947364 0 0)
(0.949052 0 0)
(0.950721 0 0)
(0.952369 0 0)
(0.953996 0 0)
(0.955602 0 0)
(0.957186 0 0)
(0.958749 0 0)
(0.960289 0 0)
(0.961807 0 0)
(0.963301 0 0)
(0.964771 0 0)
(0.966218 0 0)
(0.967639 0 0)
(0.969036 0 0)
(0.970407 0 0)
(0.971752 0 0)
(0.97307 0 0)
(0.974362 0 0)
(0.975625 0 0)
(0.97686 0 0)
(0.978066 0 0)
(0.979243 0 0)
(0.980389 0 0)
(0.981504 0 0)
(0.982588 0 0)
(0.983639 0 0)
(0.984657 0 0)
(0.985641 0 0)
(0.986591 0 0)
(0.987505 0 0)
(0.988382 0 0)
(0.989222 0 0)
(0.990024 0 0)
(0.990786 0 0)
(0.991509 0 0)
(0.992189 0 0)
(0.992827 0 0)
(0.993422 0 0)
(0.993971 0 0)
(0.994475 0 0)
(0.99493 0 0)
(0.995337 0 0)
(0.995693 0 0)
(0.995998 0 0)
(0.996248 0 0)
(0.996444 0 0)
(0.996582 0 0)
(0.996661 0 0)
(0.996679 0 0)
(0.996633 0 0)
(0.996523 0 0)
(0.996344 0 0)
(0.996095 0 0)
(0.995773 0 0)
(0.995376 0 0)
(0.994899 0 0)
(0.99434 0 0)
(0.993696 0 0)
(0.992962 0 0)
(0.992135 0 0)
(0.99121 0 0)
(0.990184 0 0)
(0.98905 0 0)
(0.987803 0 0)
(0.98644 0 0)
(0.984931 0 0)
(0.983508 0 0)
(0.979653 0 0)
(0.999073 0 0)
(0.596235 0 0)
(-0.594858 0 0)
(-0.999065 0 0)
(-0.979653 0 0)
(-0.983506 0 0)
(-0.98493 0 0)
(-0.986439 0 0)
(-0.987802 0 0)
(-0.989049 0 0)
(-0.990183 0 0)
(-0.99121 0 0)
(-0.992135 0 0)
(-0.992962 0 0)
(-0.993696 0 0)
(-0.99434 0 0)
(-0.994899 0 0)
(-0.995375 0 0)
(-0.995773 0 0)
(-0.996095 0 0)
(-0.996344 0 0)
(-0.996523 0 0)
(-0.996633 0 0)
(-0.996679 0 0)
(-0.996661 0 0)
(-0.996582 0 0)
(-0.996444 0 0)
(-0.996248 0 0)
(-0.995998 0 0)
(-0.995693 0 0)
(-0.995337 0 0)
(-0.99493 0 0)
(-0.994475 0 0)
(-0.993971 0 0)
(-0.993422 0 0)
(-0.992827 0 0)
(-0.992189 0 0)
(-0.991508 0 0)
(-0.990786 0 0)
(-0.990024 0 0)
(-0.989222 0 0)
(-0.988382 0 0)
(-0.987504 0 0)
(-0.98659 0 0)
(-0.985641 0 0)
(-0.984656 0 0)
(-0.983638 0 0)
(-0.982587 0 0)
(-0.981503 0 0)
(-0.980388 0 0)
(-0.979242 0 0)
(-0.978065 0 0)
(-0.976859 0 0)
(-0.975624 0 0)
(-0.974361 0 0)
(-0.97307 0 0)
(-0.971751 0 0)
(-0.970406 0 0)
(-0.969035 0 0)
(-0.967638 0 0)
(-0.966217 0 0)
(-0.96477 0 0)
(-0.9633 0 0)
(-0.961806 0 0)
(-0.960288 0 0)
(-0.958748 0 0)
(-0.957185 0 0)
(-0.955601 0 0)
(-0.953995 0 0)
(-0.952367 0 0)
(-0.950719 0 0)
(-0.949051 0 0)
(-0.947362 0 0)
(-0.945654 0 0)
(-0.943926 0 0)
(-0.942179 0 0)
(-0.940414 0 0)
(-0.93863 0 0)
(-0.936828 0 0)
(-0.935008 0 0)
(-0.93317 0 0)
(-0.931315 0 0)
(-0.929443 0 0)
(-0.927555 0 0)
(-0.925649 0 0)
(-0.923728 0 0)
(-0.921791 0 0)
(-0.919838 0 0)
(-0.917869 0 0)
(-0.915885 0 0)
(-0.913886 0 0)
(-0.911873 0 0)
(-0.909844 0 0)
(-0.907802 0 0)
(-0.905745 0 0)
(-0.903674 0 0)
(-0.901589 0 0)
(-0.899491 0 0)
(-0.897379 0 0)
(-0.895255 0 0)
(-0.893117 0 0)
(-0.890966 0 0)
(-0.888803 0 0)
(-0.886627 0 0)
(-0.884438 0 0)
(-0.882238 0 0)
(-0.880026 0 0)
(-0.877801 0 0)
(-0.875565 0 0)
(-0.873318 0 0)
(-0.871059 0 0)
(-0.868788 0 0)
(-0.866507 0 0)
(-0.864215 0 0)
(-0.861912 0 0)
(-0.859598 0 0)
(-0.857274 0 0)
(-0.854939 0 0)
(-0.852594 0 0)
(-0.850238 0 0)
(-0.847873 0 0)
(-0.845498 0 0)
(-0.843113 0 0)
(-0.840718 0 0)
(-0.838313 0 0)
(-0.8359 0 0)
(-0.833476 0 0)
(-0.831044 0 0)
(-0.828602 0 0)
(-0.826152 0 0)
(-0.823692 0 0)
(-0.821224 0 0)
(-0.818747 0 0)
(-0.816261 0 0)
(-0.813767 0 0)
(-0.811264 0 0)
(-0.808753 0 0)
(-0.806234 0 0)
(-0.803707 0 0)
(-0.801171 0 0)
(-0.798628 0 0)
(-0.796076 0 0)
(-0.793517 0 0)
(-0.790951 0 0)
(-0.788376 0 0)
(-0.785794 0 0)
(-0.783205 0 0)
(-0.780608 0 0)
(-0.778004 0 0)
(-0.775392 0 0)
(-0.772774 0 0)
(-0.770148 0 0)
(-0.767516 0 0)
(-0.764876 0 0)
(-0.76223 0 0)
(-0.759577 0 0)
(-0.756917 0 0)
(-0.75425 0 0)
(-0.751577 0 0)
(-0.748897 0 0)
(-0.746211 0 0)
(-0.743519 0 0)
(-0.74082 0 0)
(-0.738115 0 0)
(-0.735404 0 0)
(-0.732687 0 0)
(-0.729964 0 0)
(-0.727234 0 0)
(-0.724499 0 0)
(-0.721758 0 0)
(-0.719011 0 0)
(-0.716258 0 0)
(-0.7135 0 0)
(-0.710735 0 0)
(-0.707966 0 0)
(-0.70519 0 0)
(-0.70241 0 0)
(-0.699624 0 0)
(-0.696832 0 0)
(-0.694035 0 0)
(-0.691233 0 0)
(-0.688426 0 0)
(-0.685613 0 0)
(-0.682795 0 0)
(-0.679973 0 0)
(-0.677145 0 0)
(-0.674312 0 0)
(-0.671474 0 0)
(-0.668632 0 0)
(-0.665784 0 0)
(-0.662932 0 0)
(-0.660075 0 0)
(-0.657213 0 0)
(-0.654347 0 0)
(-0.651476 0 0)
(-0.648601 0 0)
(-0.645721 0 0)
(-0.642836 0 0)
(-0.639947 0 0)
(-0.637054 0 0)
(-0.634156 0 0)
(-0.631254 0 0)
(-0.628348 0 0)
(-0.625437 0 0)
(-0.622523 0 0)
(-0.619604 0 0)
(-0.616681 0 0)
(-0.613753 0 0)
(-0.610822 0 0)
(-0.607887 0 0)
(-0.604948 0 0)
(-0.602005 0 0)
(-0.599058 0 0)
(-0.596107 0 0)
(-0.593152 0 0)
(-0.590194 0 0)
(-0.587232 0 0)
(-0.584266 0 0)
(-0.581296 0 0)
(-0.578323 0 0)
(-0.575346 0 0)
(-0.572366 0 0)
(-0.569382 0 0)
(-0.566394 0 0)
(-0.563403 0 0)
(-0.560409 0 0)
(-0.557411 0 0)
(-0.554409 0 0)
(-0.551405 0 0)
(-0.548397 0 0)
(-0.545386 0 0)
(-0.542371 0 0)
(-0.539353 0 0)
(-0.536332 0 0)
(-0.533308 0 0)
(-0.530281 0 0)
(-0.52725 0 0)
(-0.524217 0 0)
(-0.52118 0 0)
(-0.518141 0 0)
(-0.515098 0 0)
(-0.512053 0 0)
(-0.509004 0 0)
(-0.505953 0 0)
(-0.502898 0 0)
(-0.499841 0 0)
(-0.496781 0 0)
(-0.493718 0 0)
(-0.490653 0 0)
(-0.487584 0 0)
(-0.484513 0 0)
(-0.481439 0 0)
(-0.478363 0 0)
(-0.475284 0 0)
(-0.472202 0 0)
(-0.469117 0 0)
(-0.466031 0 0)
(-0.462941 0 0)
(-0.459849 0 0)
(-0.456754 0 0)
(-0.453657 0 0)
(-0.450558 0 0)
(-0.447456 0 0)
(-0.444352 0 0)
(-0.441245 0 0)
(-0.438136 0 0)
(-0.435024 0 0)
(-0.431911 0 0)
(-0.428795 0 0)
(-0.425676 0 0)
(-0.422556 0 0)
(-0.419433 0 0)
(-0.416308 0 0)
(-0.413181 0 0)
(-0.410051 0 0)
(-0.40692 0 0)
(-0.403786 0 0)
(-0.400651 0 0)
(-0.397513 0 0)
(-0.394373 0 0)
(-0.391231 0 0)
(-0.388087 0 0)
(-0.384942 0 0)
(-0.381794 0 0)
(-0.378644 0 0)
(-0.375492 0 0)
(-0.372339 0 0)
(-0.369183 0 0)
(-0.366026 0 0)
(-0.362867 0 0)
(-0.359706 0 0)
(-0.356543 0 0)
(-0.353379 0 0)
(-0.350212 0 0)
(-0.347044 0 0)
(-0.343874 0 0)
(-0.340703 0 0)
(-0.33753 0 0)
(-0.334355 0 0)
(-0.331178 0 0)
(-0.328 0 0)
(-0.32482 0 0)
(-0.321639 0 0)
(-0.318456 0 0)
(-0.315272 0 0)
(-0.312086 0 0)
(-0.308898 0 0)
(-0.305709 0 0)
(-0.302519 0 0)
(-0.299327 0 0)
(-0.296133 0 0)
(-0.292938 0 0)
(-0.289742 0 0)
(-0.286545 0 0)
(-0.283345 0 0)
(-0.280145 0 0)
(-0.276943 0 0)
(-0.27374 0 0)
(-0.270536 0 0)
(-0.26733 0 0)
(-0.264123 0 0)
(-0.260915 0 0)
(-0.257706 0 0)
(-0.254495 0 0)
(-0.251283 0 0)
(-0.248071 0 0)
(-0.244856 0 0)
(-0.241641 0 0)
(-0.238425 0 0)
(-0.235207 0 0)
(-0.231988 0 0)
(-0.228769 0 0)
(-0.225548 0 0)
(-0.222326 0 0)
(-0.219103 0 0)
(-0.215879 0 0)
(-0.212654 0 0)
(-0.209428 0 0)
(-0.206201 0 0)
(-0.202974 0 0)
(-0.199745 0 0)
(-0.196515 0 0)
(-0.193285 0 0)
(-0.190053 0 0)
(-0.186821 0 0)
(-0.183587 0 0)
(-0.180353 0 0)
(-0.177119 0 0)
(-0.173883 0 0)
(-0.170646 0 0)
(-0.167409 0 0)
(-0.164171 0 0)
(-0.160932 0 0)
(-0.157693 0 0)
(-0.154453 0 0)
(-0.151212 0 0)
(-0.14797 0 0)
(-0.144728 0 0)
(-0.141485 0 0)
(-0.138241 0 0)
(-0.134997 0 0)
(-0.131752 0 0)
(-0.128507 0 0)
(-0.125261 0 0)
(-0.122014 0 0)
(-0.118767 0 0)
(-0.115519 0 0)
(-0.112271 0 0)
(-0.109022 0 0)
(-0.105773 0 0)
(-0.102524 0 0)
(-0.0992734 0 0)
(-0.0960228 0 0)
(-0.0927718 0 0)
(-0.0895204 0 0)
(-0.0862686 0 0)
(-0.0830164 0 0)
(-0.0797638 0 0)
(-0.0765109 0 0)
(-0.0732576 0 0)
(-0.070004 0 0)
(-0.0667501 0 0)
(-0.0634959 0 0)
(-0.0602414 0 0)
(-0.0569866 0 0)
(-0.0537316 0 0)
(-0.0504764 0 0)
(-0.0472209 0 0)
(-0.0439652 0 0)
(-0.0407093 0 0)
(-0.0374532 0 0)
(-0.034197 0 0)
(-0.0309406 0 0)
(-0.027684 0 0)
(-0.0244274 0 0)
(-0.0211706 0 0)
(-0.0179138 0 0)
(-0.0146568 0 0)
(-0.0113998 0 0)
(-0.00814277 0 0)
(-0.00488567 0 0)
(-0.00162856 0 0)
)
;

boundaryField
{
    left
    {
        type            fixedValue;
        value           uniform (0 0 0);
    }
    right
    {
        type            fixedValue;
        value           uniform (0 0 0);
    }
    frontBackUpDown
    {
        type            empty;
    }
}


// ************************************************************************* //
