/*--------------------------------*- C++ -*----------------------------------*\
| =========                 |                                                 |
| \\      /  F ield         | OpenFOAM: The Open Source CFD Toolbox           |
|  \\    /   O peration     | Version:  2412                                  |
|   \\  /    A nd           | Website:  www.openfoam.com                      |
|    \\/     M anipulation  |                                                 |
\*---------------------------------------------------------------------------*/
FoamFile
{
    version     2.0;
    format      ascii;
    arch        "LSB;label=32;scalar=64";
    class       volVectorField;
    location    "0.33";
    object      U;
}
// * * * * * * * * * * * * * * * * * * * * * * * * * * * * * * * * * * * * * //

dimensions      [0 1 -1 0 0 0 0];

internalField   nonuniform List<vector> 
800
(
(0.0019283 0 0)
(0.00578495 0 0)
(0.00964157 0 0)
(0.0134981 0 0)
(0.0173545 0 0)
(0.0212109 0 0)
(0.025067 0 0)
(0.028923 0 0)
(0.0327788 0 0)
(0.0366343 0 0)
(0.0404895 0 0)
(0.0443445 0 0)
(0.0481991 0 0)
(0.0520534 0 0)
(0.0559072 0 0)
(0.0597607 0 0)
(0.0636137 0 0)
(0.0674663 0 0)
(0.0713183 0 0)
(0.0751699 0 0)
(0.0790208 0 0)
(0.0828712 0 0)
(0.086721 0 0)
(0.0905701 0 0)
(0.0944186 0 0)
(0.0982663 0 0)
(0.102113 0 0)
(0.10596 0 0)
(0.109805 0 0)
(0.11365 0 0)
(0.117494 0 0)
(0.121337 0 0)
(0.125179 0 0)
(0.12902 0 0)
(0.13286 0 0)
(0.136699 0 0)
(0.140537 0 0)
(0.144374 0 0)
(0.14821 0 0)
(0.152045 0 0)
(0.155879 0 0)
(0.159711 0 0)
(0.163543 0 0)
(0.167373 0 0)
(0.171202 0 0)
(0.175029 0 0)
(0.178856 0 0)
(0.182681 0 0)
(0.186504 0 0)
(0.190326 0 0)
(0.194147 0 0)
(0.197966 0 0)
(0.201784 0 0)
(0.2056 0 0)
(0.209415 0 0)
(0.213228 0 0)
(0.217039 0 0)
(0.220849 0 0)
(0.224657 0 0)
(0.228463 0 0)
(0.232268 0 0)
(0.23607 0 0)
(0.239871 0 0)
(0.24367 0 0)
(0.247468 0 0)
(0.251263 0 0)
(0.255056 0 0)
(0.258848 0 0)
(0.262637 0 0)
(0.266424 0 0)
(0.27021 0 0)
(0.273993 0 0)
(0.277774 0 0)
(0.281553 0 0)
(0.285329 0 0)
(0.289104 0 0)
(0.292876 0 0)
(0.296646 0 0)
(0.300413 0 0)
(0.304178 0 0)
(0.307941 0 0)
(0.311701 0 0)
(0.315459 0 0)
(0.319214 0 0)
(0.322967 0 0)
(0.326717 0 0)
(0.330464 0 0)
(0.334209 0 0)
(0.337951 0 0)
(0.341691 0 0)
(0.345427 0 0)
(0.349161 0 0)
(0.352892 0 0)
(0.35662 0 0)
(0.360346 0 0)
(0.364068 0 0)
(0.367787 0 0)
(0.371504 0 0)
(0.375217 0 0)
(0.378927 0 0)
(0.382634 0 0)
(0.386338 0 0)
(0.390038 0 0)
(0.393736 0 0)
(0.39743 0 0)
(0.401121 0 0)
(0.404808 0 0)
(0.408492 0 0)
(0.412173 0 0)
(0.41585 0 0)
(0.419523 0 0)
(0.423193 0 0)
(0.426859 0 0)
(0.430522 0 0)
(0.434181 0 0)
(0.437836 0 0)
(0.441488 0 0)
(0.445136 0 0)
(0.448779 0 0)
(0.452419 0 0)
(0.456055 0 0)
(0.459687 0 0)
(0.463315 0 0)
(0.466939 0 0)
(0.470559 0 0)
(0.474174 0 0)
(0.477786 0 0)
(0.481393 0 0)
(0.484996 0 0)
(0.488594 0 0)
(0.492188 0 0)
(0.495778 0 0)
(0.499363 0 0)
(0.502943 0 0)
(0.506519 0 0)
(0.510091 0 0)
(0.513657 0 0)
(0.517219 0 0)
(0.520777 0 0)
(0.524329 0 0)
(0.527876 0 0)
(0.531419 0 0)
(0.534956 0 0)
(0.538489 0 0)
(0.542016 0 0)
(0.545539 0 0)
(0.549056 0 0)
(0.552567 0 0)
(0.556074 0 0)
(0.559575 0 0)
(0.563071 0 0)
(0.566561 0 0)
(0.570046 0 0)
(0.573525 0 0)
(0.576999 0 0)
(0.580466 0 0)
(0.583928 0 0)
(0.587385 0 0)
(0.590835 0 0)
(0.59428 0 0)
(0.597718 0 0)
(0.601151 0 0)
(0.604577 0 0)
(0.607997 0 0)
(0.611411 0 0)
(0.614819 0 0)
(0.61822 0 0)
(0.621615 0 0)
(0.625003 0 0)
(0.628385 0 0)
(0.63176 0 0)
(0.635129 0 0)
(0.63849 0 0)
(0.641845 0 0)
(0.645193 0 0)
(0.648534 0 0)
(0.651868 0 0)
(0.655195 0 0)
(0.658515 0 0)
(0.661827 0 0)
(0.665132 0 0)
(0.66843 0 0)
(0.67172 0 0)
(0.675003 0 0)
(0.678278 0 0)
(0.681546 0 0)
(0.684805 0 0)
(0.688057 0 0)
(0.691301 0 0)
(0.694536 0 0)
(0.697764 0 0)
(0.700983 0 0)
(0.704194 0 0)
(0.707397 0 0)
(0.710592 0 0)
(0.713777 0 0)
(0.716955 0 0)
(0.720123 0 0)
(0.723283 0 0)
(0.726433 0 0)
(0.729575 0 0)
(0.732708 0 0)
(0.735831 0 0)
(0.738946 0 0)
(0.742051 0 0)
(0.745146 0 0)
(0.748232 0 0)
(0.751308 0 0)
(0.754374 0 0)
(0.757431 0 0)
(0.760477 0 0)
(0.763514 0 0)
(0.76654 0 0)
(0.769556 0 0)
(0.772561 0 0)
(0.775556 0 0)
(0.77854 0 0)
(0.781514 0 0)
(0.784476 0 0)
(0.787428 0 0)
(0.790369 0 0)
(0.793298 0 0)
(0.796216 0 0)
(0.799122 0 0)
(0.802017 0 0)
(0.8049 0 0)
(0.807771 0 0)
(0.81063 0 0)
(0.813477 0 0)
(0.816312 0 0)
(0.819134 0 0)
(0.821943 0 0)
(0.82474 0 0)
(0.827524 0 0)
(0.830296 0 0)
(0.833053 0 0)
(0.835798 0 0)
(0.838529 0 0)
(0.841247 0 0)
(0.84395 0 0)
(0.84664 0 0)
(0.849316 0 0)
(0.851977 0 0)
(0.854624 0 0)
(0.857256 0 0)
(0.859873 0 0)
(0.862476 0 0)
(0.865063 0 0)
(0.867635 0 0)
(0.870191 0 0)
(0.872732 0 0)
(0.875257 0 0)
(0.877765 0 0)
(0.880257 0 0)
(0.882733 0 0)
(0.885192 0 0)
(0.887634 0 0)
(0.890059 0 0)
(0.892466 0 0)
(0.894856 0 0)
(0.897227 0 0)
(0.899581 0 0)
(0.901917 0 0)
(0.904233 0 0)
(0.906531 0 0)
(0.90881 0 0)
(0.91107 0 0)
(0.91331 0 0)
(0.91553 0 0)
(0.91773 0 0)
(0.919909 0 0)
(0.922068 0 0)
(0.924206 0 0)
(0.926322 0 0)
(0.928417 0 0)
(0.93049 0 0)
(0.932541 0 0)
(0.934569 0 0)
(0.936574 0 0)
(0.938556 0 0)
(0.940515 0 0)
(0.942449 0 0)
(0.94436 0 0)
(0.946245 0 0)
(0.948106 0 0)
(0.949941 0 0)
(0.951751 0 0)
(0.953534 0 0)
(0.955291 0 0)
(0.95702 0 0)
(0.958722 0 0)
(0.960397 0 0)
(0.962043 0 0)
(0.96366 0 0)
(0.965247 0 0)
(0.966805 0 0)
(0.968333 0 0)
(0.96983 0 0)
(0.971295 0 0)
(0.972729 0 0)
(0.97413 0 0)
(0.975498 0 0)
(0.976833 0 0)
(0.978133 0 0)
(0.979399 0 0)
(0.980629 0 0)
(0.981823 0 0)
(0.98298 0 0)
(0.9841 0 0)
(0.985182 0 0)
(0.986225 0 0)
(0.987228 0 0)
(0.98819 0 0)
(0.989112 0 0)
(0.989991 0 0)
(0.990828 0 0)
(0.99162 0 0)
(0.992368 0 0)
(0.993071 0 0)
(0.993726 0 0)
(0.994334 0 0)
(0.994894 0 0)
(0.995404 0 0)
(0.995863 0 0)
(0.99627 0 0)
(0.996624 0 0)
(0.996923 0 0)
(0.997167 0 0)
(0.997354 0 0)
(0.997483 0 0)
(0.997551 0 0)
(0.997559 0 0)
(0.997504 0 0)
(0.997385 0 0)
(0.997199 0 0)
(0.996946 0 0)
(0.996623 0 0)
(0.996229 0 0)
(0.995762 0 0)
(0.995219 0 0)
(0.994598 0 0)
(0.993898 0 0)
(0.993116 0 0)
(0.992249 0 0)
(0.991295 0 0)
(0.990252 0 0)
(0.989116 0 0)
(0.987884 0 0)
(0.986553 0 0)
(0.985121 0 0)
(0.983583 0 0)
(0.981936 0 0)
(0.980177 0 0)
(0.9783 0 0)
(0.976302 0 0)
(0.974178 0 0)
(0.971924 0 0)
(0.969534 0 0)
(0.967003 0 0)
(0.964324 0 0)
(0.961493 0 0)
(0.958501 0 0)
(0.955342 0 0)
(0.952009 0 0)
(0.948492 0 0)
(0.944784 0 0)
(0.940874 0 0)
(0.936752 0 0)
(0.932408 0 0)
(0.927828 0 0)
(0.922999 0 0)
(0.917907 0 0)
(0.912535 0 0)
(0.906867 0 0)
(0.900882 0 0)
(0.894558 0 0)
(0.887871 0 0)
(0.880794 0 0)
(0.873297 0 0)
(0.865343 0 0)
(0.856894 0 0)
(0.847903 0 0)
(0.838318 0 0)
(0.828075 0 0)
(0.817101 0 0)
(0.805307 0 0)
(0.792585 0 0)
(0.778802 0 0)
(0.763789 0 0)
(0.747326 0 0)
(0.729117 0 0)
(0.708748 0 0)
(0.685599 0 0)
(0.658672 0 0)
(0.62618 0 0)
(0.584625 0 0)
(0.526814 0 0)
(0.439066 0 0)
(0.302492 0 0)
(0.109782 0 0)
(-0.10968 0 0)
(-0.302398 0 0)
(-0.438987 0 0)
(-0.526749 0 0)
(-0.584572 0 0)
(-0.626136 0 0)
(-0.658633 0 0)
(-0.685566 0 0)
(-0.708718 0 0)
(-0.72909 0 0)
(-0.747302 0 0)
(-0.763767 0 0)
(-0.778783 0 0)
(-0.792567 0 0)
(-0.805291 0 0)
(-0.817086 0 0)
(-0.828061 0 0)
(-0.838305 0 0)
(-0.847892 0 0)
(-0.856883 0 0)
(-0.865333 0 0)
(-0.873288 0 0)
(-0.880786 0 0)
(-0.887863 0 0)
(-0.894551 0 0)
(-0.900875 0 0)
(-0.906861 0 0)
(-0.91253 0 0)
(-0.917902 0 0)
(-0.922994 0 0)
(-0.927823 0 0)
(-0.932404 0 0)
(-0.936749 0 0)
(-0.94087 0 0)
(-0.944781 0 0)
(-0.948489 0 0)
(-0.952006 0 0)
(-0.95534 0 0)
(-0.958499 0 0)
(-0.961491 0 0)
(-0.964322 0 0)
(-0.967001 0 0)
(-0.969532 0 0)
(-0.971923 0 0)
(-0.974177 0 0)
(-0.976301 0 0)
(-0.978299 0 0)
(-0.980176 0 0)
(-0.981935 0 0)
(-0.983582 0 0)
(-0.98512 0 0)
(-0.986553 0 0)
(-0.987883 0 0)
(-0.989115 0 0)
(-0.990251 0 0)
(-0.991295 0 0)
(-0.992249 0 0)
(-0.993116 0 0)
(-0.993898 0 0)
(-0.994598 0 0)
(-0.995219 0 0)
(-0.995762 0 0)
(-0.996229 0 0)
(-0.996623 0 0)
(-0.996946 0 0)
(-0.997199 0 0)
(-0.997385 0 0)
(-0.997504 0 0)
(-0.997559 0 0)
(-0.997551 0 0)
(-0.997483 0 0)
(-0.997354 0 0)
(-0.997167 0 0)
(-0.996923 0 0)
(-0.996624 0 0)
(-0.99627 0 0)
(-0.995863 0 0)
(-0.995404 0 0)
(-0.994894 0 0)
(-0.994334 0 0)
(-0.993726 0 0)
(-0.99307 0 0)
(-0.992368 0 0)
(-0.99162 0 0)
(-0.990827 0 0)
(-0.989991 0 0)
(-0.989112 0 0)
(-0.98819 0 0)
(-0.987227 0 0)
(-0.986224 0 0)
(-0.985182 0 0)
(-0.9841 0 0)
(-0.98298 0 0)
(-0.981823 0 0)
(-0.980629 0 0)
(-0.979398 0 0)
(-0.978133 0 0)
(-0.976832 0 0)
(-0.975498 0 0)
(-0.974129 0 0)
(-0.972728 0 0)
(-0.971295 0 0)
(-0.969829 0 0)
(-0.968332 0 0)
(-0.966805 0 0)
(-0.965247 0 0)
(-0.963659 0 0)
(-0.962042 0 0)
(-0.960396 0 0)
(-0.958722 0 0)
(-0.957019 0 0)
(-0.95529 0 0)
(-0.953533 0 0)
(-0.95175 0 0)
(-0.94994 0 0)
(-0.948105 0 0)
(-0.946244 0 0)
(-0.944359 0 0)
(-0.942448 0 0)
(-0.940514 0 0)
(-0.938555 0 0)
(-0.936573 0 0)
(-0.934568 0 0)
(-0.932539 0 0)
(-0.930489 0 0)
(-0.928416 0 0)
(-0.926321 0 0)
(-0.924204 0 0)
(-0.922067 0 0)
(-0.919908 0 0)
(-0.917728 0 0)
(-0.915528 0 0)
(-0.913308 0 0)
(-0.911068 0 0)
(-0.908809 0 0)
(-0.90653 0 0)
(-0.904232 0 0)
(-0.901915 0 0)
(-0.89958 0 0)
(-0.897226 0 0)
(-0.894854 0 0)
(-0.892464 0 0)
(-0.890057 0 0)
(-0.887632 0 0)
(-0.88519 0 0)
(-0.882731 0 0)
(-0.880256 0 0)
(-0.877763 0 0)
(-0.875255 0 0)
(-0.87273 0 0)
(-0.87019 0 0)
(-0.867633 0 0)
(-0.865061 0 0)
(-0.862474 0 0)
(-0.859872 0 0)
(-0.857254 0 0)
(-0.854622 0 0)
(-0.851975 0 0)
(-0.849314 0 0)
(-0.846638 0 0)
(-0.843948 0 0)
(-0.841245 0 0)
(-0.838527 0 0)
(-0.835796 0 0)
(-0.833052 0 0)
(-0.830294 0 0)
(-0.827523 0 0)
(-0.824738 0 0)
(-0.821942 0 0)
(-0.819132 0 0)
(-0.81631 0 0)
(-0.813475 0 0)
(-0.810628 0 0)
(-0.807769 0 0)
(-0.804898 0 0)
(-0.802015 0 0)
(-0.79912 0 0)
(-0.796214 0 0)
(-0.793296 0 0)
(-0.790367 0 0)
(-0.787426 0 0)
(-0.784474 0 0)
(-0.781512 0 0)
(-0.778538 0 0)
(-0.775554 0 0)
(-0.772559 0 0)
(-0.769554 0 0)
(-0.766538 0 0)
(-0.763512 0 0)
(-0.760475 0 0)
(-0.757429 0 0)
(-0.754372 0 0)
(-0.751306 0 0)
(-0.74823 0 0)
(-0.745144 0 0)
(-0.742049 0 0)
(-0.738944 0 0)
(-0.735829 0 0)
(-0.732706 0 0)
(-0.729573 0 0)
(-0.726431 0 0)
(-0.723281 0 0)
(-0.720121 0 0)
(-0.716953 0 0)
(-0.713775 0 0)
(-0.71059 0 0)
(-0.707395 0 0)
(-0.704193 0 0)
(-0.700981 0 0)
(-0.697762 0 0)
(-0.694534 0 0)
(-0.691299 0 0)
(-0.688055 0 0)
(-0.684803 0 0)
(-0.681544 0 0)
(-0.678276 0 0)
(-0.675001 0 0)
(-0.671718 0 0)
(-0.668428 0 0)
(-0.665131 0 0)
(-0.661825 0 0)
(-0.658513 0 0)
(-0.655193 0 0)
(-0.651866 0 0)
(-0.648532 0 0)
(-0.645191 0 0)
(-0.641843 0 0)
(-0.638489 0 0)
(-0.635127 0 0)
(-0.631758 0 0)
(-0.628383 0 0)
(-0.625001 0 0)
(-0.621613 0 0)
(-0.618218 0 0)
(-0.614817 0 0)
(-0.611409 0 0)
(-0.607995 0 0)
(-0.604575 0 0)
(-0.601149 0 0)
(-0.597717 0 0)
(-0.594278 0 0)
(-0.590834 0 0)
(-0.587383 0 0)
(-0.583927 0 0)
(-0.580465 0 0)
(-0.576997 0 0)
(-0.573523 0 0)
(-0.570044 0 0)
(-0.56656 0 0)
(-0.563069 0 0)
(-0.559574 0 0)
(-0.556072 0 0)
(-0.552566 0 0)
(-0.549054 0 0)
(-0.545537 0 0)
(-0.542015 0 0)
(-0.538487 0 0)
(-0.534955 0 0)
(-0.531417 0 0)
(-0.527875 0 0)
(-0.524328 0 0)
(-0.520775 0 0)
(-0.517218 0 0)
(-0.513656 0 0)
(-0.510089 0 0)
(-0.506518 0 0)
(-0.502942 0 0)
(-0.499362 0 0)
(-0.495777 0 0)
(-0.492187 0 0)
(-0.488593 0 0)
(-0.484994 0 0)
(-0.481392 0 0)
(-0.477785 0 0)
(-0.474173 0 0)
(-0.470558 0 0)
(-0.466938 0 0)
(-0.463314 0 0)
(-0.459686 0 0)
(-0.456054 0 0)
(-0.452418 0 0)
(-0.448778 0 0)
(-0.445135 0 0)
(-0.441487 0 0)
(-0.437835 0 0)
(-0.43418 0 0)
(-0.430521 0 0)
(-0.426858 0 0)
(-0.423192 0 0)
(-0.419522 0 0)
(-0.415849 0 0)
(-0.412172 0 0)
(-0.408491 0 0)
(-0.404807 0 0)
(-0.40112 0 0)
(-0.397429 0 0)
(-0.393735 0 0)
(-0.390038 0 0)
(-0.386337 0 0)
(-0.382633 0 0)
(-0.378926 0 0)
(-0.375216 0 0)
(-0.371503 0 0)
(-0.367787 0 0)
(-0.364067 0 0)
(-0.360345 0 0)
(-0.35662 0 0)
(-0.352892 0 0)
(-0.349161 0 0)
(-0.345427 0 0)
(-0.34169 0 0)
(-0.337951 0 0)
(-0.334209 0 0)
(-0.330464 0 0)
(-0.326716 0 0)
(-0.322966 0 0)
(-0.319214 0 0)
(-0.315458 0 0)
(-0.311701 0 0)
(-0.30794 0 0)
(-0.304178 0 0)
(-0.300413 0 0)
(-0.296645 0 0)
(-0.292875 0 0)
(-0.289103 0 0)
(-0.285329 0 0)
(-0.281552 0 0)
(-0.277773 0 0)
(-0.273992 0 0)
(-0.270209 0 0)
(-0.266424 0 0)
(-0.262637 0 0)
(-0.258847 0 0)
(-0.255056 0 0)
(-0.251263 0 0)
(-0.247467 0 0)
(-0.24367 0 0)
(-0.239871 0 0)
(-0.23607 0 0)
(-0.232267 0 0)
(-0.228463 0 0)
(-0.224656 0 0)
(-0.220848 0 0)
(-0.217039 0 0)
(-0.213227 0 0)
(-0.209414 0 0)
(-0.2056 0 0)
(-0.201784 0 0)
(-0.197966 0 0)
(-0.194147 0 0)
(-0.190326 0 0)
(-0.186504 0 0)
(-0.18268 0 0)
(-0.178855 0 0)
(-0.175029 0 0)
(-0.171202 0 0)
(-0.167373 0 0)
(-0.163543 0 0)
(-0.159711 0 0)
(-0.155879 0 0)
(-0.152045 0 0)
(-0.14821 0 0)
(-0.144374 0 0)
(-0.140537 0 0)
(-0.136699 0 0)
(-0.13286 0 0)
(-0.12902 0 0)
(-0.125178 0 0)
(-0.121336 0 0)
(-0.117494 0 0)
(-0.11365 0 0)
(-0.109805 0 0)
(-0.10596 0 0)
(-0.102113 0 0)
(-0.0982663 0 0)
(-0.0944185 0 0)
(-0.0905701 0 0)
(-0.086721 0 0)
(-0.0828712 0 0)
(-0.0790208 0 0)
(-0.0751698 0 0)
(-0.0713183 0 0)
(-0.0674663 0 0)
(-0.0636137 0 0)
(-0.0597607 0 0)
(-0.0559072 0 0)
(-0.0520534 0 0)
(-0.0481991 0 0)
(-0.0443445 0 0)
(-0.0404895 0 0)
(-0.0366343 0 0)
(-0.0327788 0 0)
(-0.028923 0 0)
(-0.025067 0 0)
(-0.0212109 0 0)
(-0.0173546 0 0)
(-0.0134981 0 0)
(-0.0096416 0 0)
(-0.00578499 0 0)
(-0.00192833 0 0)
)
;

boundaryField
{
    left
    {
        type            fixedValue;
        value           uniform (0 0 0);
    }
    right
    {
        type            fixedValue;
        value           uniform (0 0 0);
    }
    frontBackUpDown
    {
        type            empty;
    }
}


// ************************************************************************* //
