/*--------------------------------*- C++ -*----------------------------------*\
| =========                 |                                                 |
| \\      /  F ield         | OpenFOAM: The Open Source CFD Toolbox           |
|  \\    /   O peration     | Version:  2412                                  |
|   \\  /    A nd           | Website:  www.openfoam.com                      |
|    \\/     M anipulation  |                                                 |
\*---------------------------------------------------------------------------*/
FoamFile
{
    version     2.0;
    format      ascii;
    arch        "LSB;label=32;scalar=64";
    class       volVectorField;
    location    "0.33";
    object      U_0;
}
// * * * * * * * * * * * * * * * * * * * * * * * * * * * * * * * * * * * * * //

dimensions      [0 1 -1 0 0 0 0];

internalField   nonuniform List<vector> 
800
(
(0.00192979 0 0)
(0.00578941 0 0)
(0.009649 0 0)
(0.0135085 0 0)
(0.0173679 0 0)
(0.0212272 0 0)
(0.0250863 0 0)
(0.0289453 0 0)
(0.032804 0 0)
(0.0366625 0 0)
(0.0405207 0 0)
(0.0443786 0 0)
(0.0482362 0 0)
(0.0520935 0 0)
(0.0559503 0 0)
(0.0598067 0 0)
(0.0636627 0 0)
(0.0675182 0 0)
(0.0713733 0 0)
(0.0752277 0 0)
(0.0790817 0 0)
(0.082935 0 0)
(0.0867877 0 0)
(0.0906398 0 0)
(0.0944912 0 0)
(0.0983419 0 0)
(0.102192 0 0)
(0.106041 0 0)
(0.10989 0 0)
(0.113737 0 0)
(0.117584 0 0)
(0.12143 0 0)
(0.125275 0 0)
(0.129119 0 0)
(0.132962 0 0)
(0.136804 0 0)
(0.140645 0 0)
(0.144485 0 0)
(0.148324 0 0)
(0.152162 0 0)
(0.155998 0 0)
(0.159834 0 0)
(0.163668 0 0)
(0.167501 0 0)
(0.171333 0 0)
(0.175163 0 0)
(0.178992 0 0)
(0.18282 0 0)
(0.186647 0 0)
(0.190472 0 0)
(0.194295 0 0)
(0.198117 0 0)
(0.201938 0 0)
(0.205757 0 0)
(0.209574 0 0)
(0.21339 0 0)
(0.217204 0 0)
(0.221017 0 0)
(0.224828 0 0)
(0.228637 0 0)
(0.232444 0 0)
(0.23625 0 0)
(0.240054 0 0)
(0.243855 0 0)
(0.247655 0 0)
(0.251454 0 0)
(0.25525 0 0)
(0.259044 0 0)
(0.262836 0 0)
(0.266626 0 0)
(0.270414 0 0)
(0.2742 0 0)
(0.277984 0 0)
(0.281765 0 0)
(0.285545 0 0)
(0.289322 0 0)
(0.293097 0 0)
(0.296869 0 0)
(0.300639 0 0)
(0.304407 0 0)
(0.308172 0 0)
(0.311935 0 0)
(0.315696 0 0)
(0.319454 0 0)
(0.323209 0 0)
(0.326962 0 0)
(0.330712 0 0)
(0.334459 0 0)
(0.338204 0 0)
(0.341946 0 0)
(0.345685 0 0)
(0.349422 0 0)
(0.353155 0 0)
(0.356886 0 0)
(0.360614 0 0)
(0.364339 0 0)
(0.368061 0 0)
(0.371779 0 0)
(0.375495 0 0)
(0.379208 0 0)
(0.382917 0 0)
(0.386624 0 0)
(0.390327 0 0)
(0.394027 0 0)
(0.397723 0 0)
(0.401416 0 0)
(0.405106 0 0)
(0.408793 0 0)
(0.412476 0 0)
(0.416155 0 0)
(0.419831 0 0)
(0.423503 0 0)
(0.427172 0 0)
(0.430837 0 0)
(0.434499 0 0)
(0.438156 0 0)
(0.44181 0 0)
(0.44546 0 0)
(0.449106 0 0)
(0.452748 0 0)
(0.456387 0 0)
(0.460021 0 0)
(0.463651 0 0)
(0.467277 0 0)
(0.470899 0 0)
(0.474517 0 0)
(0.478131 0 0)
(0.48174 0 0)
(0.485345 0 0)
(0.488945 0 0)
(0.492542 0 0)
(0.496133 0 0)
(0.499721 0 0)
(0.503303 0 0)
(0.506881 0 0)
(0.510455 0 0)
(0.514024 0 0)
(0.517588 0 0)
(0.521147 0 0)
(0.524701 0 0)
(0.528251 0 0)
(0.531795 0 0)
(0.535335 0 0)
(0.538869 0 0)
(0.542398 0 0)
(0.545922 0 0)
(0.549441 0 0)
(0.552955 0 0)
(0.556464 0 0)
(0.559967 0 0)
(0.563464 0 0)
(0.566956 0 0)
(0.570443 0 0)
(0.573924 0 0)
(0.577399 0 0)
(0.580869 0 0)
(0.584332 0 0)
(0.58779 0 0)
(0.591243 0 0)
(0.594689 0 0)
(0.598129 0 0)
(0.601563 0 0)
(0.604991 0 0)
(0.608413 0 0)
(0.611828 0 0)
(0.615237 0 0)
(0.61864 0 0)
(0.622036 0 0)
(0.625426 0 0)
(0.628809 0 0)
(0.632186 0 0)
(0.635556 0 0)
(0.638919 0 0)
(0.642275 0 0)
(0.645625 0 0)
(0.648967 0 0)
(0.652302 0 0)
(0.655631 0 0)
(0.658952 0 0)
(0.662265 0 0)
(0.665572 0 0)
(0.66887 0 0)
(0.672162 0 0)
(0.675446 0 0)
(0.678722 0 0)
(0.68199 0 0)
(0.685251 0 0)
(0.688504 0 0)
(0.691749 0 0)
(0.694985 0 0)
(0.698214 0 0)
(0.701434 0 0)
(0.704646 0 0)
(0.70785 0 0)
(0.711045 0 0)
(0.714232 0 0)
(0.71741 0 0)
(0.720579 0 0)
(0.723739 0 0)
(0.726891 0 0)
(0.730033 0 0)
(0.733166 0 0)
(0.736291 0 0)
(0.739405 0 0)
(0.742511 0 0)
(0.745607 0 0)
(0.748693 0 0)
(0.751769 0 0)
(0.754836 0 0)
(0.757893 0 0)
(0.76094 0 0)
(0.763977 0 0)
(0.767003 0 0)
(0.770019 0 0)
(0.773025 0 0)
(0.77602 0 0)
(0.779004 0 0)
(0.781978 0 0)
(0.784941 0 0)
(0.787892 0 0)
(0.790833 0 0)
(0.793762 0 0)
(0.79668 0 0)
(0.799586 0 0)
(0.80248 0 0)
(0.805363 0 0)
(0.808234 0 0)
(0.811093 0 0)
(0.813939 0 0)
(0.816774 0 0)
(0.819595 0 0)
(0.822405 0 0)
(0.825201 0 0)
(0.827984 0 0)
(0.830755 0 0)
(0.833512 0 0)
(0.836256 0 0)
(0.838986 0 0)
(0.841703 0 0)
(0.844406 0 0)
(0.847095 0 0)
(0.849769 0 0)
(0.852429 0 0)
(0.855075 0 0)
(0.857706 0 0)
(0.860323 0 0)
(0.862924 0 0)
(0.86551 0 0)
(0.86808 0 0)
(0.870635 0 0)
(0.873174 0 0)
(0.875698 0 0)
(0.878204 0 0)
(0.880695 0 0)
(0.883169 0 0)
(0.885626 0 0)
(0.888066 0 0)
(0.890489 0 0)
(0.892894 0 0)
(0.895282 0 0)
(0.897652 0 0)
(0.900003 0 0)
(0.902337 0 0)
(0.904651 0 0)
(0.906947 0 0)
(0.909223 0 0)
(0.91148 0 0)
(0.913718 0 0)
(0.915935 0 0)
(0.918132 0 0)
(0.920309 0 0)
(0.922465 0 0)
(0.924599 0 0)
(0.926713 0 0)
(0.928805 0 0)
(0.930874 0 0)
(0.932922 0 0)
(0.934946 0 0)
(0.936948 0 0)
(0.938927 0 0)
(0.940882 0 0)
(0.942812 0 0)
(0.944719 0 0)
(0.946601 0 0)
(0.948457 0 0)
(0.950288 0 0)
(0.952093 0 0)
(0.953872 0 0)
(0.955624 0 0)
(0.95735 0 0)
(0.959047 0 0)
(0.960716 0 0)
(0.962357 0 0)
(0.963969 0 0)
(0.965552 0 0)
(0.967105 0 0)
(0.968627 0 0)
(0.970118 0 0)
(0.971578 0 0)
(0.973006 0 0)
(0.974401 0 0)
(0.975763 0 0)
(0.977091 0 0)
(0.978385 0 0)
(0.979644 0 0)
(0.980868 0 0)
(0.982055 0 0)
(0.983206 0 0)
(0.984318 0 0)
(0.985393 0 0)
(0.986428 0 0)
(0.987423 0 0)
(0.988378 0 0)
(0.989291 0 0)
(0.990163 0 0)
(0.990991 0 0)
(0.991775 0 0)
(0.992514 0 0)
(0.993207 0 0)
(0.993854 0 0)
(0.994452 0 0)
(0.995002 0 0)
(0.995502 0 0)
(0.995951 0 0)
(0.996348 0 0)
(0.996691 0 0)
(0.996979 0 0)
(0.997212 0 0)
(0.997388 0 0)
(0.997505 0 0)
(0.997562 0 0)
(0.997557 0 0)
(0.997489 0 0)
(0.997357 0 0)
(0.997158 0 0)
(0.996892 0 0)
(0.996555 0 0)
(0.996147 0 0)
(0.995664 0 0)
(0.995107 0 0)
(0.994471 0 0)
(0.993755 0 0)
(0.992956 0 0)
(0.992073 0 0)
(0.991102 0 0)
(0.99004 0 0)
(0.988886 0 0)
(0.987635 0 0)
(0.986286 0 0)
(0.984833 0 0)
(0.983275 0 0)
(0.981607 0 0)
(0.979826 0 0)
(0.977927 0 0)
(0.975906 0 0)
(0.973759 0 0)
(0.97148 0 0)
(0.969064 0 0)
(0.966507 0 0)
(0.963801 0 0)
(0.960941 0 0)
(0.957921 0 0)
(0.954732 0 0)
(0.951367 0 0)
(0.947818 0 0)
(0.944075 0 0)
(0.940131 0 0)
(0.935972 0 0)
(0.931589 0 0)
(0.92697 0 0)
(0.922099 0 0)
(0.916964 0 0)
(0.911546 0 0)
(0.90583 0 0)
(0.899794 0 0)
(0.893417 0 0)
(0.886674 0 0)
(0.879538 0 0)
(0.871978 0 0)
(0.863957 0 0)
(0.855436 0 0)
(0.846369 0 0)
(0.836701 0 0)
(0.826369 0 0)
(0.815298 0 0)
(0.803399 0 0)
(0.790561 0 0)
(0.776649 0 0)
(0.761492 0 0)
(0.744864 0 0)
(0.726467 0 0)
(0.705875 0 0)
(0.682458 0 0)
(0.655194 0 0)
(0.622268 0 0)
(0.580146 0 0)
(0.521671 0 0)
(0.433497 0 0)
(0.297657 0 0)
(0.10777 0 0)
(-0.107671 0 0)
(-0.297565 0 0)
(-0.433418 0 0)
(-0.521607 0 0)
(-0.580093 0 0)
(-0.622223 0 0)
(-0.655155 0 0)
(-0.682424 0 0)
(-0.705845 0 0)
(-0.72644 0 0)
(-0.74484 0 0)
(-0.76147 0 0)
(-0.77663 0 0)
(-0.790543 0 0)
(-0.803382 0 0)
(-0.815283 0 0)
(-0.826355 0 0)
(-0.836688 0 0)
(-0.846357 0 0)
(-0.855425 0 0)
(-0.863947 0 0)
(-0.871968 0 0)
(-0.87953 0 0)
(-0.886667 0 0)
(-0.89341 0 0)
(-0.899787 0 0)
(-0.905824 0 0)
(-0.911541 0 0)
(-0.916958 0 0)
(-0.922094 0 0)
(-0.926965 0 0)
(-0.931585 0 0)
(-0.935968 0 0)
(-0.940127 0 0)
(-0.944072 0 0)
(-0.947815 0 0)
(-0.951364 0 0)
(-0.954729 0 0)
(-0.957918 0 0)
(-0.960939 0 0)
(-0.963799 0 0)
(-0.966505 0 0)
(-0.969063 0 0)
(-0.971478 0 0)
(-0.973757 0 0)
(-0.975905 0 0)
(-0.977926 0 0)
(-0.979825 0 0)
(-0.981607 0 0)
(-0.983274 0 0)
(-0.984833 0 0)
(-0.986285 0 0)
(-0.987635 0 0)
(-0.988885 0 0)
(-0.99004 0 0)
(-0.991101 0 0)
(-0.992072 0 0)
(-0.992956 0 0)
(-0.993754 0 0)
(-0.99447 0 0)
(-0.995106 0 0)
(-0.995664 0 0)
(-0.996146 0 0)
(-0.996555 0 0)
(-0.996891 0 0)
(-0.997158 0 0)
(-0.997357 0 0)
(-0.997489 0 0)
(-0.997557 0 0)
(-0.997562 0 0)
(-0.997505 0 0)
(-0.997388 0 0)
(-0.997212 0 0)
(-0.996979 0 0)
(-0.996691 0 0)
(-0.996347 0 0)
(-0.995951 0 0)
(-0.995502 0 0)
(-0.995002 0 0)
(-0.994452 0 0)
(-0.993854 0 0)
(-0.993207 0 0)
(-0.992514 0 0)
(-0.991775 0 0)
(-0.99099 0 0)
(-0.990162 0 0)
(-0.989291 0 0)
(-0.988378 0 0)
(-0.987423 0 0)
(-0.986427 0 0)
(-0.985392 0 0)
(-0.984318 0 0)
(-0.983205 0 0)
(-0.982055 0 0)
(-0.980868 0 0)
(-0.979644 0 0)
(-0.978385 0 0)
(-0.977091 0 0)
(-0.975762 0 0)
(-0.9744 0 0)
(-0.973005 0 0)
(-0.971577 0 0)
(-0.970117 0 0)
(-0.968626 0 0)
(-0.967104 0 0)
(-0.965551 0 0)
(-0.963968 0 0)
(-0.962356 0 0)
(-0.960716 0 0)
(-0.959046 0 0)
(-0.957349 0 0)
(-0.955624 0 0)
(-0.953871 0 0)
(-0.952092 0 0)
(-0.950287 0 0)
(-0.948456 0 0)
(-0.9466 0 0)
(-0.944718 0 0)
(-0.942811 0 0)
(-0.94088 0 0)
(-0.938926 0 0)
(-0.936947 0 0)
(-0.934945 0 0)
(-0.93292 0 0)
(-0.930873 0 0)
(-0.928803 0 0)
(-0.926712 0 0)
(-0.924598 0 0)
(-0.922463 0 0)
(-0.920307 0 0)
(-0.918131 0 0)
(-0.915934 0 0)
(-0.913716 0 0)
(-0.911479 0 0)
(-0.909222 0 0)
(-0.906945 0 0)
(-0.90465 0 0)
(-0.902335 0 0)
(-0.900002 0 0)
(-0.89765 0 0)
(-0.895281 0 0)
(-0.892893 0 0)
(-0.890487 0 0)
(-0.888065 0 0)
(-0.885624 0 0)
(-0.883167 0 0)
(-0.880693 0 0)
(-0.878203 0 0)
(-0.875696 0 0)
(-0.873173 0 0)
(-0.870633 0 0)
(-0.868078 0 0)
(-0.865508 0 0)
(-0.862922 0 0)
(-0.860321 0 0)
(-0.857704 0 0)
(-0.855073 0 0)
(-0.852428 0 0)
(-0.849767 0 0)
(-0.847093 0 0)
(-0.844404 0 0)
(-0.841701 0 0)
(-0.838984 0 0)
(-0.836254 0 0)
(-0.83351 0 0)
(-0.830753 0 0)
(-0.827982 0 0)
(-0.825199 0 0)
(-0.822403 0 0)
(-0.819593 0 0)
(-0.816772 0 0)
(-0.813937 0 0)
(-0.811091 0 0)
(-0.808232 0 0)
(-0.805361 0 0)
(-0.802478 0 0)
(-0.799584 0 0)
(-0.796678 0 0)
(-0.79376 0 0)
(-0.790831 0 0)
(-0.78789 0 0)
(-0.784939 0 0)
(-0.781976 0 0)
(-0.779002 0 0)
(-0.776018 0 0)
(-0.773023 0 0)
(-0.770017 0 0)
(-0.767001 0 0)
(-0.763975 0 0)
(-0.760938 0 0)
(-0.757891 0 0)
(-0.754834 0 0)
(-0.751767 0 0)
(-0.748691 0 0)
(-0.745605 0 0)
(-0.742509 0 0)
(-0.739403 0 0)
(-0.736289 0 0)
(-0.733164 0 0)
(-0.730031 0 0)
(-0.726889 0 0)
(-0.723737 0 0)
(-0.720577 0 0)
(-0.717408 0 0)
(-0.71423 0 0)
(-0.711043 0 0)
(-0.707848 0 0)
(-0.704644 0 0)
(-0.701432 0 0)
(-0.698212 0 0)
(-0.694983 0 0)
(-0.691747 0 0)
(-0.688502 0 0)
(-0.685249 0 0)
(-0.681988 0 0)
(-0.67872 0 0)
(-0.675444 0 0)
(-0.67216 0 0)
(-0.668869 0 0)
(-0.66557 0 0)
(-0.662263 0 0)
(-0.65895 0 0)
(-0.655629 0 0)
(-0.652301 0 0)
(-0.648965 0 0)
(-0.645623 0 0)
(-0.642274 0 0)
(-0.638917 0 0)
(-0.635554 0 0)
(-0.632184 0 0)
(-0.628808 0 0)
(-0.625424 0 0)
(-0.622035 0 0)
(-0.618638 0 0)
(-0.615236 0 0)
(-0.611826 0 0)
(-0.608411 0 0)
(-0.604989 0 0)
(-0.601561 0 0)
(-0.598127 0 0)
(-0.594687 0 0)
(-0.591241 0 0)
(-0.587789 0 0)
(-0.584331 0 0)
(-0.580867 0 0)
(-0.577397 0 0)
(-0.573922 0 0)
(-0.570441 0 0)
(-0.566955 0 0)
(-0.563463 0 0)
(-0.559965 0 0)
(-0.556462 0 0)
(-0.552954 0 0)
(-0.54944 0 0)
(-0.545921 0 0)
(-0.542397 0 0)
(-0.538868 0 0)
(-0.535333 0 0)
(-0.531794 0 0)
(-0.528249 0 0)
(-0.5247 0 0)
(-0.521145 0 0)
(-0.517586 0 0)
(-0.514022 0 0)
(-0.510454 0 0)
(-0.50688 0 0)
(-0.503302 0 0)
(-0.499719 0 0)
(-0.496132 0 0)
(-0.49254 0 0)
(-0.488944 0 0)
(-0.485344 0 0)
(-0.481739 0 0)
(-0.478129 0 0)
(-0.474516 0 0)
(-0.470898 0 0)
(-0.467276 0 0)
(-0.46365 0 0)
(-0.46002 0 0)
(-0.456386 0 0)
(-0.452747 0 0)
(-0.449105 0 0)
(-0.445459 0 0)
(-0.441809 0 0)
(-0.438155 0 0)
(-0.434498 0 0)
(-0.430836 0 0)
(-0.427171 0 0)
(-0.423502 0 0)
(-0.41983 0 0)
(-0.416154 0 0)
(-0.412475 0 0)
(-0.408792 0 0)
(-0.405105 0 0)
(-0.401416 0 0)
(-0.397722 0 0)
(-0.394026 0 0)
(-0.390326 0 0)
(-0.386623 0 0)
(-0.382917 0 0)
(-0.379207 0 0)
(-0.375494 0 0)
(-0.371779 0 0)
(-0.36806 0 0)
(-0.364338 0 0)
(-0.360613 0 0)
(-0.356885 0 0)
(-0.353155 0 0)
(-0.349421 0 0)
(-0.345685 0 0)
(-0.341946 0 0)
(-0.338203 0 0)
(-0.334459 0 0)
(-0.330711 0 0)
(-0.326961 0 0)
(-0.323208 0 0)
(-0.319453 0 0)
(-0.315695 0 0)
(-0.311935 0 0)
(-0.308172 0 0)
(-0.304407 0 0)
(-0.300639 0 0)
(-0.296869 0 0)
(-0.293096 0 0)
(-0.289321 0 0)
(-0.285544 0 0)
(-0.281765 0 0)
(-0.277983 0 0)
(-0.2742 0 0)
(-0.270414 0 0)
(-0.266626 0 0)
(-0.262836 0 0)
(-0.259043 0 0)
(-0.255249 0 0)
(-0.251453 0 0)
(-0.247655 0 0)
(-0.243855 0 0)
(-0.240053 0 0)
(-0.236249 0 0)
(-0.232444 0 0)
(-0.228637 0 0)
(-0.224827 0 0)
(-0.221017 0 0)
(-0.217204 0 0)
(-0.21339 0 0)
(-0.209574 0 0)
(-0.205757 0 0)
(-0.201937 0 0)
(-0.198117 0 0)
(-0.194295 0 0)
(-0.190471 0 0)
(-0.186646 0 0)
(-0.18282 0 0)
(-0.178992 0 0)
(-0.175163 0 0)
(-0.171333 0 0)
(-0.167501 0 0)
(-0.163668 0 0)
(-0.159834 0 0)
(-0.155998 0 0)
(-0.152161 0 0)
(-0.148324 0 0)
(-0.144485 0 0)
(-0.140645 0 0)
(-0.136804 0 0)
(-0.132962 0 0)
(-0.129119 0 0)
(-0.125275 0 0)
(-0.12143 0 0)
(-0.117584 0 0)
(-0.113737 0 0)
(-0.109889 0 0)
(-0.106041 0 0)
(-0.102192 0 0)
(-0.0983419 0 0)
(-0.0944912 0 0)
(-0.0906398 0 0)
(-0.0867877 0 0)
(-0.082935 0 0)
(-0.0790816 0 0)
(-0.0752277 0 0)
(-0.0713732 0 0)
(-0.0675182 0 0)
(-0.0636627 0 0)
(-0.0598067 0 0)
(-0.0559503 0 0)
(-0.0520935 0 0)
(-0.0482362 0 0)
(-0.0443786 0 0)
(-0.0405207 0 0)
(-0.0366625 0 0)
(-0.032804 0 0)
(-0.0289453 0 0)
(-0.0250864 0 0)
(-0.0212272 0 0)
(-0.017368 0 0)
(-0.0135085 0 0)
(-0.00964903 0 0)
(-0.00578945 0 0)
(-0.00192982 0 0)
)
;

boundaryField
{
    left
    {
        type            fixedValue;
        value           uniform (0 0 0);
    }
    right
    {
        type            fixedValue;
        value           uniform (0 0 0);
    }
    frontBackUpDown
    {
        type            empty;
    }
}


// ************************************************************************* //
