/*--------------------------------*- C++ -*----------------------------------*\
| =========                 |                                                 |
| \\      /  F ield         | OpenFOAM: The Open Source CFD Toolbox           |
|  \\    /   O peration     | Version:  2412                                  |
|   \\  /    A nd           | Website:  www.openfoam.com                      |
|    \\/     M anipulation  |                                                 |
\*---------------------------------------------------------------------------*/
FoamFile
{
    version     2.0;
    format      ascii;
    arch        "LSB;label=32;scalar=64";
    class       volVectorField;
    location    "0.33";
    object      U_0_0;
}
// * * * * * * * * * * * * * * * * * * * * * * * * * * * * * * * * * * * * * //

dimensions      [0 1 -1 0 0 0 0];

internalField   nonuniform List<vector> 
800
(
(0.00193128 0 0)
(0.00579388 0 0)
(0.00965644 0 0)
(0.0135189 0 0)
(0.0173813 0 0)
(0.0212436 0 0)
(0.0251057 0 0)
(0.0289676 0 0)
(0.0328293 0 0)
(0.0366908 0 0)
(0.040552 0 0)
(0.0444129 0 0)
(0.0482734 0 0)
(0.0521336 0 0)
(0.0559934 0 0)
(0.0598528 0 0)
(0.0637118 0 0)
(0.0675703 0 0)
(0.0714282 0 0)
(0.0752857 0 0)
(0.0791426 0 0)
(0.0829989 0 0)
(0.0868546 0 0)
(0.0907096 0 0)
(0.094564 0 0)
(0.0984176 0 0)
(0.102271 0 0)
(0.106123 0 0)
(0.109974 0 0)
(0.113825 0 0)
(0.117674 0 0)
(0.121523 0 0)
(0.125371 0 0)
(0.129218 0 0)
(0.133064 0 0)
(0.136909 0 0)
(0.140753 0 0)
(0.144596 0 0)
(0.148438 0 0)
(0.152278 0 0)
(0.156118 0 0)
(0.159956 0 0)
(0.163793 0 0)
(0.167629 0 0)
(0.171464 0 0)
(0.175297 0 0)
(0.179129 0 0)
(0.18296 0 0)
(0.186789 0 0)
(0.190617 0 0)
(0.194444 0 0)
(0.198269 0 0)
(0.202092 0 0)
(0.205914 0 0)
(0.209734 0 0)
(0.213553 0 0)
(0.21737 0 0)
(0.221185 0 0)
(0.224999 0 0)
(0.228811 0 0)
(0.232621 0 0)
(0.236429 0 0)
(0.240236 0 0)
(0.244041 0 0)
(0.247844 0 0)
(0.251644 0 0)
(0.255443 0 0)
(0.25924 0 0)
(0.263035 0 0)
(0.266828 0 0)
(0.270619 0 0)
(0.274407 0 0)
(0.278194 0 0)
(0.281978 0 0)
(0.28576 0 0)
(0.28954 0 0)
(0.293318 0 0)
(0.297093 0 0)
(0.300866 0 0)
(0.304636 0 0)
(0.308404 0 0)
(0.31217 0 0)
(0.315933 0 0)
(0.319694 0 0)
(0.323452 0 0)
(0.327207 0 0)
(0.33096 0 0)
(0.33471 0 0)
(0.338457 0 0)
(0.342202 0 0)
(0.345944 0 0)
(0.349683 0 0)
(0.353419 0 0)
(0.357152 0 0)
(0.360883 0 0)
(0.36461 0 0)
(0.368334 0 0)
(0.372056 0 0)
(0.375774 0 0)
(0.379489 0 0)
(0.383201 0 0)
(0.38691 0 0)
(0.390616 0 0)
(0.394318 0 0)
(0.398017 0 0)
(0.401713 0 0)
(0.405405 0 0)
(0.409094 0 0)
(0.412779 0 0)
(0.416461 0 0)
(0.420139 0 0)
(0.423814 0 0)
(0.427485 0 0)
(0.431153 0 0)
(0.434816 0 0)
(0.438476 0 0)
(0.442133 0 0)
(0.445785 0 0)
(0.449433 0 0)
(0.453078 0 0)
(0.456718 0 0)
(0.460355 0 0)
(0.463987 0 0)
(0.467616 0 0)
(0.47124 0 0)
(0.47486 0 0)
(0.478476 0 0)
(0.482087 0 0)
(0.485694 0 0)
(0.489297 0 0)
(0.492896 0 0)
(0.496489 0 0)
(0.500079 0 0)
(0.503664 0 0)
(0.507244 0 0)
(0.510819 0 0)
(0.51439 0 0)
(0.517956 0 0)
(0.521517 0 0)
(0.525074 0 0)
(0.528625 0 0)
(0.532172 0 0)
(0.535713 0 0)
(0.53925 0 0)
(0.542781 0 0)
(0.546307 0 0)
(0.549828 0 0)
(0.553343 0 0)
(0.556854 0 0)
(0.560358 0 0)
(0.563858 0 0)
(0.567352 0 0)
(0.57084 0 0)
(0.574323 0 0)
(0.5778 0 0)
(0.581271 0 0)
(0.584737 0 0)
(0.588197 0 0)
(0.59165 0 0)
(0.595098 0 0)
(0.59854 0 0)
(0.601976 0 0)
(0.605405 0 0)
(0.608829 0 0)
(0.612246 0 0)
(0.615656 0 0)
(0.619061 0 0)
(0.622458 0 0)
(0.62585 0 0)
(0.629235 0 0)
(0.632613 0 0)
(0.635984 0 0)
(0.639348 0 0)
(0.642706 0 0)
(0.646057 0 0)
(0.6494 0 0)
(0.652737 0 0)
(0.656067 0 0)
(0.659389 0 0)
(0.662704 0 0)
(0.666011 0 0)
(0.669311 0 0)
(0.672604 0 0)
(0.675889 0 0)
(0.679166 0 0)
(0.682436 0 0)
(0.685697 0 0)
(0.688951 0 0)
(0.692197 0 0)
(0.695435 0 0)
(0.698664 0 0)
(0.701885 0 0)
(0.705098 0 0)
(0.708303 0 0)
(0.711499 0 0)
(0.714686 0 0)
(0.717865 0 0)
(0.721035 0 0)
(0.724196 0 0)
(0.727348 0 0)
(0.730491 0 0)
(0.733625 0 0)
(0.73675 0 0)
(0.739865 0 0)
(0.742971 0 0)
(0.746068 0 0)
(0.749154 0 0)
(0.752231 0 0)
(0.755299 0 0)
(0.758356 0 0)
(0.761403 0 0)
(0.76444 0 0)
(0.767467 0 0)
(0.770483 0 0)
(0.773489 0 0)
(0.776484 0 0)
(0.779469 0 0)
(0.782442 0 0)
(0.785405 0 0)
(0.788357 0 0)
(0.791297 0 0)
(0.794226 0 0)
(0.797144 0 0)
(0.80005 0 0)
(0.802944 0 0)
(0.805827 0 0)
(0.808697 0 0)
(0.811556 0 0)
(0.814402 0 0)
(0.817236 0 0)
(0.820057 0 0)
(0.822866 0 0)
(0.825662 0 0)
(0.828445 0 0)
(0.831214 0 0)
(0.833971 0 0)
(0.836714 0 0)
(0.839443 0 0)
(0.842159 0 0)
(0.844861 0 0)
(0.847549 0 0)
(0.850223 0 0)
(0.852882 0 0)
(0.855527 0 0)
(0.858157 0 0)
(0.860772 0 0)
(0.863372 0 0)
(0.865956 0 0)
(0.868526 0 0)
(0.871079 0 0)
(0.873617 0 0)
(0.876138 0 0)
(0.878644 0 0)
(0.881133 0 0)
(0.883605 0 0)
(0.88606 0 0)
(0.888498 0 0)
(0.890919 0 0)
(0.893323 0 0)
(0.895708 0 0)
(0.898076 0 0)
(0.900426 0 0)
(0.902756 0 0)
(0.905069 0 0)
(0.907362 0 0)
(0.909636 0 0)
(0.91189 0 0)
(0.914125 0 0)
(0.91634 0 0)
(0.918534 0 0)
(0.920708 0 0)
(0.922861 0 0)
(0.924993 0 0)
(0.927103 0 0)
(0.929192 0 0)
(0.931258 0 0)
(0.933302 0 0)
(0.935324 0 0)
(0.937322 0 0)
(0.939297 0 0)
(0.941248 0 0)
(0.943175 0 0)
(0.945077 0 0)
(0.946955 0 0)
(0.948808 0 0)
(0.950635 0 0)
(0.952435 0 0)
(0.95421 0 0)
(0.955958 0 0)
(0.957678 0 0)
(0.959371 0 0)
(0.961035 0 0)
(0.962671 0 0)
(0.964278 0 0)
(0.965855 0 0)
(0.967403 0 0)
(0.96892 0 0)
(0.970405 0 0)
(0.971859 0 0)
(0.973281 0 0)
(0.974671 0 0)
(0.976027 0 0)
(0.977349 0 0)
(0.978636 0 0)
(0.979889 0 0)
(0.981106 0 0)
(0.982286 0 0)
(0.983429 0 0)
(0.984535 0 0)
(0.985602 0 0)
(0.98663 0 0)
(0.987617 0 0)
(0.988564 0 0)
(0.98947 0 0)
(0.990332 0 0)
(0.991152 0 0)
(0.991927 0 0)
(0.992658 0 0)
(0.993342 0 0)
(0.993979 0 0)
(0.994568 0 0)
(0.995109 0 0)
(0.995598 0 0)
(0.996037 0 0)
(0.996423 0 0)
(0.996756 0 0)
(0.997034 0 0)
(0.997255 0 0)
(0.997419 0 0)
(0.997524 0 0)
(0.997569 0 0)
(0.997552 0 0)
(0.997472 0 0)
(0.997327 0 0)
(0.997115 0 0)
(0.996834 0 0)
(0.996484 0 0)
(0.996061 0 0)
(0.995564 0 0)
(0.994991 0 0)
(0.99434 0 0)
(0.993608 0 0)
(0.992793 0 0)
(0.991893 0 0)
(0.990904 0 0)
(0.989825 0 0)
(0.988652 0 0)
(0.987383 0 0)
(0.986014 0 0)
(0.984542 0 0)
(0.982963 0 0)
(0.981274 0 0)
(0.979471 0 0)
(0.97755 0 0)
(0.975506 0 0)
(0.973334 0 0)
(0.971031 0 0)
(0.96859 0 0)
(0.966006 0 0)
(0.963273 0 0)
(0.960385 0 0)
(0.957335 0 0)
(0.954116 0 0)
(0.950719 0 0)
(0.947138 0 0)
(0.943361 0 0)
(0.939381 0 0)
(0.935186 0 0)
(0.930765 0 0)
(0.926105 0 0)
(0.921193 0 0)
(0.916013 0 0)
(0.91055 0 0)
(0.904785 0 0)
(0.898699 0 0)
(0.892269 0 0)
(0.885469 0 0)
(0.878273 0 0)
(0.870649 0 0)
(0.862561 0 0)
(0.853969 0 0)
(0.844824 0 0)
(0.835073 0 0)
(0.824652 0 0)
(0.813484 0 0)
(0.801478 0 0)
(0.788524 0 0)
(0.774483 0 0)
(0.75918 0 0)
(0.742387 0 0)
(0.7238 0 0)
(0.702984 0 0)
(0.679296 0 0)
(0.651695 0 0)
(0.618334 0 0)
(0.57565 0 0)
(0.516531 0 0)
(0.427968 0 0)
(0.292895 0 0)
(0.105799 0 0)
(-0.105704 0 0)
(-0.292806 0 0)
(-0.42789 0 0)
(-0.516467 0 0)
(-0.575597 0 0)
(-0.618289 0 0)
(-0.651656 0 0)
(-0.679263 0 0)
(-0.702954 0 0)
(-0.723773 0 0)
(-0.742363 0 0)
(-0.759158 0 0)
(-0.774463 0 0)
(-0.788506 0 0)
(-0.801462 0 0)
(-0.813469 0 0)
(-0.824638 0 0)
(-0.83506 0 0)
(-0.844812 0 0)
(-0.853958 0 0)
(-0.862551 0 0)
(-0.87064 0 0)
(-0.878265 0 0)
(-0.885461 0 0)
(-0.892261 0 0)
(-0.898692 0 0)
(-0.904779 0 0)
(-0.910544 0 0)
(-0.916008 0 0)
(-0.921188 0 0)
(-0.9261 0 0)
(-0.930761 0 0)
(-0.935182 0 0)
(-0.939378 0 0)
(-0.943358 0 0)
(-0.947135 0 0)
(-0.950717 0 0)
(-0.954113 0 0)
(-0.957333 0 0)
(-0.960383 0 0)
(-0.963271 0 0)
(-0.966004 0 0)
(-0.968588 0 0)
(-0.971029 0 0)
(-0.973333 0 0)
(-0.975505 0 0)
(-0.977549 0 0)
(-0.97947 0 0)
(-0.981274 0 0)
(-0.982963 0 0)
(-0.984541 0 0)
(-0.986014 0 0)
(-0.987383 0 0)
(-0.988652 0 0)
(-0.989825 0 0)
(-0.990904 0 0)
(-0.991892 0 0)
(-0.992793 0 0)
(-0.993608 0 0)
(-0.99434 0 0)
(-0.994991 0 0)
(-0.995564 0 0)
(-0.996061 0 0)
(-0.996484 0 0)
(-0.996834 0 0)
(-0.997115 0 0)
(-0.997327 0 0)
(-0.997472 0 0)
(-0.997552 0 0)
(-0.997569 0 0)
(-0.997524 0 0)
(-0.997419 0 0)
(-0.997255 0 0)
(-0.997034 0 0)
(-0.996756 0 0)
(-0.996423 0 0)
(-0.996037 0 0)
(-0.995598 0 0)
(-0.995108 0 0)
(-0.994568 0 0)
(-0.993979 0 0)
(-0.993342 0 0)
(-0.992658 0 0)
(-0.991927 0 0)
(-0.991152 0 0)
(-0.990332 0 0)
(-0.989469 0 0)
(-0.988564 0 0)
(-0.987617 0 0)
(-0.986629 0 0)
(-0.985601 0 0)
(-0.984534 0 0)
(-0.983429 0 0)
(-0.982286 0 0)
(-0.981105 0 0)
(-0.979888 0 0)
(-0.978636 0 0)
(-0.977348 0 0)
(-0.976026 0 0)
(-0.97467 0 0)
(-0.973281 0 0)
(-0.971859 0 0)
(-0.970405 0 0)
(-0.968919 0 0)
(-0.967402 0 0)
(-0.965855 0 0)
(-0.964277 0 0)
(-0.96267 0 0)
(-0.961034 0 0)
(-0.95937 0 0)
(-0.957677 0 0)
(-0.955957 0 0)
(-0.954209 0 0)
(-0.952434 0 0)
(-0.950634 0 0)
(-0.948807 0 0)
(-0.946954 0 0)
(-0.945076 0 0)
(-0.943174 0 0)
(-0.941247 0 0)
(-0.939296 0 0)
(-0.937321 0 0)
(-0.935322 0 0)
(-0.933301 0 0)
(-0.931257 0 0)
(-0.92919 0 0)
(-0.927102 0 0)
(-0.924991 0 0)
(-0.92286 0 0)
(-0.920707 0 0)
(-0.918533 0 0)
(-0.916338 0 0)
(-0.914124 0 0)
(-0.911889 0 0)
(-0.909634 0 0)
(-0.90736 0 0)
(-0.905067 0 0)
(-0.902755 0 0)
(-0.900424 0 0)
(-0.898075 0 0)
(-0.895707 0 0)
(-0.893321 0 0)
(-0.890918 0 0)
(-0.888497 0 0)
(-0.886059 0 0)
(-0.883603 0 0)
(-0.881131 0 0)
(-0.878642 0 0)
(-0.876137 0 0)
(-0.873615 0 0)
(-0.871077 0 0)
(-0.868524 0 0)
(-0.865955 0 0)
(-0.86337 0 0)
(-0.86077 0 0)
(-0.858155 0 0)
(-0.855525 0 0)
(-0.85288 0 0)
(-0.850221 0 0)
(-0.847547 0 0)
(-0.844859 0 0)
(-0.842157 0 0)
(-0.839442 0 0)
(-0.836712 0 0)
(-0.833969 0 0)
(-0.831212 0 0)
(-0.828443 0 0)
(-0.82566 0 0)
(-0.822864 0 0)
(-0.820055 0 0)
(-0.817234 0 0)
(-0.8144 0 0)
(-0.811554 0 0)
(-0.808695 0 0)
(-0.805825 0 0)
(-0.802942 0 0)
(-0.800048 0 0)
(-0.797142 0 0)
(-0.794224 0 0)
(-0.791295 0 0)
(-0.788355 0 0)
(-0.785403 0 0)
(-0.78244 0 0)
(-0.779467 0 0)
(-0.776482 0 0)
(-0.773487 0 0)
(-0.770481 0 0)
(-0.767465 0 0)
(-0.764438 0 0)
(-0.761401 0 0)
(-0.758354 0 0)
(-0.755297 0 0)
(-0.752229 0 0)
(-0.749152 0 0)
(-0.746066 0 0)
(-0.742969 0 0)
(-0.739863 0 0)
(-0.736748 0 0)
(-0.733623 0 0)
(-0.730489 0 0)
(-0.727346 0 0)
(-0.724194 0 0)
(-0.721033 0 0)
(-0.717863 0 0)
(-0.714684 0 0)
(-0.711497 0 0)
(-0.708301 0 0)
(-0.705096 0 0)
(-0.701883 0 0)
(-0.698662 0 0)
(-0.695433 0 0)
(-0.692195 0 0)
(-0.688949 0 0)
(-0.685695 0 0)
(-0.682434 0 0)
(-0.679164 0 0)
(-0.675887 0 0)
(-0.672602 0 0)
(-0.669309 0 0)
(-0.666009 0 0)
(-0.662702 0 0)
(-0.659387 0 0)
(-0.656065 0 0)
(-0.652735 0 0)
(-0.649399 0 0)
(-0.646055 0 0)
(-0.642704 0 0)
(-0.639347 0 0)
(-0.635982 0 0)
(-0.632611 0 0)
(-0.629233 0 0)
(-0.625848 0 0)
(-0.622457 0 0)
(-0.619059 0 0)
(-0.615655 0 0)
(-0.612244 0 0)
(-0.608827 0 0)
(-0.605404 0 0)
(-0.601974 0 0)
(-0.598538 0 0)
(-0.595096 0 0)
(-0.591649 0 0)
(-0.588195 0 0)
(-0.584735 0 0)
(-0.58127 0 0)
(-0.577798 0 0)
(-0.574321 0 0)
(-0.570839 0 0)
(-0.56735 0 0)
(-0.563856 0 0)
(-0.560357 0 0)
(-0.556852 0 0)
(-0.553342 0 0)
(-0.549826 0 0)
(-0.546305 0 0)
(-0.542779 0 0)
(-0.539248 0 0)
(-0.535712 0 0)
(-0.53217 0 0)
(-0.528624 0 0)
(-0.525072 0 0)
(-0.521516 0 0)
(-0.517955 0 0)
(-0.514389 0 0)
(-0.510818 0 0)
(-0.507242 0 0)
(-0.503662 0 0)
(-0.500078 0 0)
(-0.496488 0 0)
(-0.492894 0 0)
(-0.489296 0 0)
(-0.485693 0 0)
(-0.482086 0 0)
(-0.478475 0 0)
(-0.474859 0 0)
(-0.471239 0 0)
(-0.467615 0 0)
(-0.463986 0 0)
(-0.460354 0 0)
(-0.456717 0 0)
(-0.453077 0 0)
(-0.449432 0 0)
(-0.445784 0 0)
(-0.442132 0 0)
(-0.438475 0 0)
(-0.434815 0 0)
(-0.431152 0 0)
(-0.427484 0 0)
(-0.423813 0 0)
(-0.420139 0 0)
(-0.41646 0 0)
(-0.412778 0 0)
(-0.409093 0 0)
(-0.405404 0 0)
(-0.401712 0 0)
(-0.398016 0 0)
(-0.394317 0 0)
(-0.390615 0 0)
(-0.386909 0 0)
(-0.3832 0 0)
(-0.379488 0 0)
(-0.375773 0 0)
(-0.372055 0 0)
(-0.368334 0 0)
(-0.364609 0 0)
(-0.360882 0 0)
(-0.357152 0 0)
(-0.353418 0 0)
(-0.349682 0 0)
(-0.345943 0 0)
(-0.342201 0 0)
(-0.338457 0 0)
(-0.334709 0 0)
(-0.330959 0 0)
(-0.327206 0 0)
(-0.323451 0 0)
(-0.319693 0 0)
(-0.315932 0 0)
(-0.312169 0 0)
(-0.308404 0 0)
(-0.304636 0 0)
(-0.300865 0 0)
(-0.297092 0 0)
(-0.293317 0 0)
(-0.28954 0 0)
(-0.28576 0 0)
(-0.281978 0 0)
(-0.278194 0 0)
(-0.274407 0 0)
(-0.270618 0 0)
(-0.266828 0 0)
(-0.263035 0 0)
(-0.25924 0 0)
(-0.255443 0 0)
(-0.251644 0 0)
(-0.247843 0 0)
(-0.24404 0 0)
(-0.240236 0 0)
(-0.236429 0 0)
(-0.232621 0 0)
(-0.228811 0 0)
(-0.224999 0 0)
(-0.221185 0 0)
(-0.21737 0 0)
(-0.213553 0 0)
(-0.209734 0 0)
(-0.205914 0 0)
(-0.202092 0 0)
(-0.198268 0 0)
(-0.194443 0 0)
(-0.190617 0 0)
(-0.186789 0 0)
(-0.18296 0 0)
(-0.179129 0 0)
(-0.175297 0 0)
(-0.171464 0 0)
(-0.167629 0 0)
(-0.163793 0 0)
(-0.159956 0 0)
(-0.156118 0 0)
(-0.152278 0 0)
(-0.148437 0 0)
(-0.144596 0 0)
(-0.140753 0 0)
(-0.136909 0 0)
(-0.133064 0 0)
(-0.129218 0 0)
(-0.125371 0 0)
(-0.121523 0 0)
(-0.117674 0 0)
(-0.113824 0 0)
(-0.109974 0 0)
(-0.106123 0 0)
(-0.10227 0 0)
(-0.0984175 0 0)
(-0.0945639 0 0)
(-0.0907095 0 0)
(-0.0868545 0 0)
(-0.0829988 0 0)
(-0.0791425 0 0)
(-0.0752857 0 0)
(-0.0714282 0 0)
(-0.0675702 0 0)
(-0.0637118 0 0)
(-0.0598528 0 0)
(-0.0559934 0 0)
(-0.0521336 0 0)
(-0.0482734 0 0)
(-0.0444129 0 0)
(-0.040552 0 0)
(-0.0366908 0 0)
(-0.0328293 0 0)
(-0.0289676 0 0)
(-0.0251057 0 0)
(-0.0212436 0 0)
(-0.0173814 0 0)
(-0.013519 0 0)
(-0.00965647 0 0)
(-0.00579391 0 0)
(-0.00193131 0 0)
)
;

boundaryField
{
    left
    {
        type            fixedValue;
        value           uniform (0 0 0);
    }
    right
    {
        type            fixedValue;
        value           uniform (0 0 0);
    }
    frontBackUpDown
    {
        type            empty;
    }
}


// ************************************************************************* //
