/*--------------------------------*- C++ -*----------------------------------*\
| =========                 |                                                 |
| \\      /  F ield         | OpenFOAM: The Open Source CFD Toolbox           |
|  \\    /   O peration     | Version:  2412                                  |
|   \\  /    A nd           | Website:  www.openfoam.com                      |
|    \\/     M anipulation  |                                                 |
\*---------------------------------------------------------------------------*/
FoamFile
{
    version     2.0;
    format      ascii;
    arch        "LSB;label=32;scalar=64";
    class       volScalarField;
    location    "0.08";
    object      epsilon;
}
// * * * * * * * * * * * * * * * * * * * * * * * * * * * * * * * * * * * * * //

dimensions      [0 2 -3 0 0 0 0];

internalField   nonuniform List<scalar> 
12225
(
448.248
622.89
830.543
1004.8
1150.36
1270.15
1368.54
1449.52
1516.23
1571.22
1616.56
1653.92
1684.59
1709.59
1729.71
1745.42
1757.36
1769.14
173.744
302.082
403.097
480.169
539.331
585.678
622.112
650.828
673.532
691.491
705.665
716.807
725.506
732.227
737.366
741.154
744.327
743.866
119.436
232.401
315.51
376.25
421.155
455.019
480.617
499.943
514.512
525.436
533.537
539.443
543.641
546.513
548.381
549.488
550.222
549.622
97.6416
199.979
277.776
334.831
376.77
407.855
430.857
447.78
460.134
469.029
475.292
479.547
482.274
483.848
484.582
484.736
484.624
484.044
83.6531
176.29
251.579
308.55
351.101
382.722
406.064
423.14
435.48
444.236
450.274
454.252
456.677
457.947
458.389
458.282
457.922
457.353
71.9924
153.974
226.313
283.827
328.2
361.841
387.04
405.705
419.35
429.148
436.007
440.626
443.549
445.209
445.957
446.094
445.903
445.493
61.3449
131.284
198.629
255.583
301.547
337.594
365.36
386.47
402.317
414.04
422.554
428.583
432.706
435.385
436.998
437.864
438.255
438.287
51.6704
108.732
168.492
222.637
268.763
306.571
336.814
360.627
379.141
393.364
404.154
412.223
418.156
422.43
425.442
427.521
428.927
429.764
43.2233
87.6478
137.69
186.332
230.309
268.256
300.001
326.038
347.097
363.94
377.285
387.766
395.932
402.246
407.101
410.82
413.652
415.672
36.1705
69.2435
108.636
149.508
188.765
224.557
256.017
283.003
305.765
324.734
340.397
353.245
363.731
372.262
379.193
384.824
389.376
392.885
30.4991
54.1404
83.3324
115.321
147.825
179.128
208.085
234.118
257.056
276.977
294.101
308.714
321.125
331.638
340.535
348.06
354.393
359.512
26.3772
43.1991
64.2864
88.2452
113.657
139.269
164.059
187.327
208.681
227.954
245.141
260.335
273.688
285.381
295.599
304.514
312.242
318.692
23.143
34.748
49.3162
66.274
84.8837
104.399
124.096
143.371
161.784
179.051
195.016
209.623
222.885
234.862
245.637
255.299
263.898
271.277
20.3787
27.6956
36.7545
47.4315
59.4523
72.4938
86.1879
100.162
114.086
127.696
140.795
153.248
164.973
175.93
186.111
195.521
204.141
211.769
18.1503
22.2415
27.1506
32.9169
39.4943
46.803
54.7274
63.1206
71.8252
80.6905
89.5813
98.382
106.999
115.359
123.408
131.104
138.388
145.06
16.4709
18.3574
20.5284
23.0302
25.8772
29.0731
32.6101
36.4637
40.5959
44.9611
49.5101
54.1925
58.9595
63.7653
68.5682
73.3285
77.9978
82.4429
15.3283
15.8734
16.4965
17.2142
18.0342
18.9629
20.0065
21.1682
22.4475
23.8408
25.3421
26.9429
28.6327
30.3972
32.223
34.0962
35.9992
37.8897
14.7508
14.6758
14.637
14.6354
14.67
14.74
14.8454
14.9867
15.1639
15.377
15.6256
15.9093
16.2273
16.5801
16.9667
17.385
17.8323
18.3043
14.8976
14.9731
15.087
15.243
15.4412
15.6813
15.9638
16.2884
16.6543
17.06
17.5032
17.9814
18.4916
19.0303
19.5942
20.1794
20.7814
21.3865
15.9706
17.2601
18.7256
20.394
22.2716
24.3575
26.645
29.1183
31.7534
34.5217
37.392
40.3329
43.3136
46.3055
49.2827
52.2222
55.0996
57.8548
18.0493
21.9961
26.6885
32.1456
38.3045
45.0692
52.3161
59.8988
67.6662
75.4784
83.2135
90.7706
98.0707
105.055
111.683
117.93
123.776
129.177
21.5627
30.6516
41.9185
55.0329
69.4894
84.7698
100.364
115.811
130.747
144.913
158.142
170.344
181.484
191.574
200.65
208.77
215.994
222.367
27.2179
45.2988
67.7829
92.9312
119.095
144.985
169.623
192.365
212.887
231.095
247.038
260.852
272.719
282.841
291.417
298.639
304.681
309.703
35.7138
67.6744
105.674
144.943
182.505
216.726
246.797
272.545
294.196
312.151
326.869
338.809
348.394
356
361.955
366.538
369.989
372.534
47.4071
97.6089
152.025
202.682
246.843
283.873
314.054
338.178
357.18
371.947
383.258
391.772
398.034
402.491
405.505
407.371
408.33
408.618
61.8874
131.75
198.701
254.8
299.827
335.06
362.1
382.547
397.786
408.947
416.924
422.423
425.996
428.075
428.997
429.027
428.378
427.267
78.4666
165.76
239.65
296.701
339.784
371.972
395.783
413.19
425.726
434.561
440.579
444.45
446.683
447.664
447.693
447
445.767
444.181
99.5995
200.964
279.478
337.821
380.458
411.809
434.893
451.771
463.988
472.701
478.758
482.788
485.269
486.56
486.94
486.623
485.777
484.571
144.791
258.315
348.616
417.602
468.473
506.759
535.887
558.068
574.974
587.853
597.615
604.944
610.364
614.281
617.01
618.802
619.849
620.353
366.941
498.485
666.593
808.045
923.474
1016.72
1091.76
1152.44
1201.74
1241.92
1274.78
1301.74
1323.92
1342.21
1357.32
1369.83
1380.15
1388.73
2.43818
2.63601
3.85103
4.82836
5.5584
6.06563
6.42841
6.88963
7.40543
7.99289
8.69188
9.54948
10.6413
12.2341
14.243
16.6045
19.308
22.3638
25.7789
29.5492
33.6645
38.1164
42.9067
47.9488
53.2008
58.6282
64.2008
69.892
75.6794
81.5446
87.4729
93.4533
99.4777
105.541
111.64
117.773
123.94
130.142
136.381
142.658
148.976
155.336
161.739
168.188
174.683
181.224
187.812
194.445
201.123
207.844
214.606
221.406
228.242
235.11
242.006
248.926
255.865
262.819
269.783
276.751
283.717
290.676
297.62
304.545
311.444
318.311
325.141
331.931
338.685
345.412
352.138
358.791
365.341
371.793
378.146
384.396
390.539
396.567
402.476
408.259
413.911
419.426
424.798
430.023
435.095
440.012
444.767
449.359
453.783
458.037
462.118
466.025
469.755
473.308
476.683
479.88
482.899
485.74
488.404
490.894
493.21
495.356
497.332
499.143
500.792
502.282
503.617
504.8
505.837
506.731
507.487
508.109
508.602
508.969
509.216
509.345
509.36
509.264
509.06
508.75
508.333
507.812
507.184
506.449
505.603
504.642
503.559
502.348
501
499.502
497.844
496.009
493.981
491.741
489.266
486.535
483.52
480.205
476.589
472.918
471.062
473.228
476.118
478.96
481.62
484.027
486.124
487.855
489.166
490.007
490.328
490.082
489.229
487.733
485.567
482.711
479.153
474.894
469.943
464.319
458.05
451.174
443.737
435.788
427.383
418.579
409.432
399.997
390.324
380.454
370.421
360.243
349.922
339.426
328.689
317.481
305.644
293.025
278.957
261.461
7.79198
4.73442
4.2199
4.21815
4.44084
4.82984
5.38755
6.12036
7.05739
8.18998
9.5171
11.0424
12.7572
14.6465
16.6665
18.7744
20.9435
23.1591
25.4111
27.6906
29.9906
32.3055
34.6307
36.9596
39.2906
41.6243
43.9622
46.3061
48.6581
51.0199
53.3932
55.7795
58.1802
60.5964
63.0291
65.4792
67.9474
70.4343
72.9404
75.4661
78.0116
80.5769
83.1621
85.7668
88.3909
91.0338
93.695
96.3737
99.0692
101.781
104.507
107.246
109.998
112.761
115.533
118.313
121.099
123.89
126.683
129.477
132.269
135.058
137.841
140.616
143.382
146.137
148.88
151.612
154.335
157.053
159.794
162.526
165.228
167.897
170.532
173.13
175.688
178.206
180.68
183.109
185.49
187.82
190.099
192.323
194.492
196.603
198.655
200.645
202.574
204.439
206.24
207.976
209.645
211.247
212.781
214.248
215.647
216.978
218.241
219.437
220.565
221.626
222.622
223.552
224.417
225.22
225.961
226.64
227.261
227.823
228.329
228.78
229.177
229.523
229.818
230.064
230.262
230.414
230.521
230.584
230.603
230.578
230.511
230.4
230.245
230.045
229.799
229.503
229.157
228.755
228.294
227.77
227.177
226.508
225.758
224.92
223.989
222.97
221.88
220.867
220.285
220.275
220.368
220.394
220.299
220.057
219.645
219.045
218.238
217.209
215.943
214.427
212.651
210.606
208.288
205.696
202.833
199.704
196.32
192.696
188.847
184.795
180.563
176.175
171.659
167.039
162.344
157.6
152.831
148.059
143.307
138.591
133.929
129.335
124.829
120.438
116.584
113.934
112.939
115.358
14.1339
7.21136
6.00853
5.82834
6.06635
6.55878
7.23866
8.11835
9.20903
10.5054
11.9825
13.6002
15.3106
17.0683
18.8369
20.595
22.3361
24.0633
25.7829
27.5012
29.2232
30.9524
32.6914
34.4417
36.2045
37.9807
39.7708
41.5748
43.3924
45.2233
47.0672
48.9237
50.7927
52.6741
54.5682
56.4749
58.3947
60.3276
62.2741
64.2342
66.2083
68.1964
70.1986
72.2148
74.245
76.2889
78.3461
80.4164
82.4993
84.5941
86.7002
88.817
90.9435
93.0788
95.2221
97.3722
99.528
101.688
103.852
106.018
108.185
110.351
112.516
114.678
116.837
118.992
121.143
123.29
125.433
127.578
129.718
131.845
133.951
136.035
138.094
140.125
142.129
144.101
146.041
147.947
149.817
151.65
153.443
155.196
156.906
158.572
160.194
161.769
163.296
164.775
166.205
167.584
168.912
170.188
171.412
172.583
173.701
174.766
175.778
176.736
177.641
178.493
179.292
180.039
180.734
181.378
181.971
182.515
183.011
183.458
183.859
184.214
184.525
184.792
185.017
185.201
185.344
185.449
185.515
185.544
185.538
185.495
185.418
185.305
185.158
184.977
184.759
184.506
184.215
183.885
183.513
183.098
182.636
182.124
181.558
180.936
180.255
179.527
178.775
178.057
177.47
177.017
176.568
176.051
175.433
174.691
173.811
172.779
171.582
170.21
168.653
166.902
164.951
162.796
160.435
157.87
155.105
152.146
149.004
145.691
142.223
138.617
134.893
131.072
127.176
123.227
119.248
115.259
111.281
107.332
103.43
99.591
95.8295
92.161
88.603
85.1874
82.005
79.3582
77.5137
77.1847
20.691
9.85203
8.15415
7.87646
8.08628
8.55879
9.24832
10.1398
11.2212
12.471
13.8544
15.3277
16.8468
18.3766
19.896
21.3979
22.8859
24.3683
25.8545
27.3517
28.8649
30.3969
31.9489
33.5211
35.113
36.7238
38.3525
39.998
41.6593
43.3353
45.0253
46.7288
48.4454
50.1749
51.9173
53.6725
55.4409
57.2225
59.0177
60.8265
62.6493
64.4861
66.3369
68.202
70.0811
71.9742
73.8811
75.8014
77.7349
79.6811
81.6394
83.6092
85.5898
87.5805
89.5803
91.5885
93.6039
95.6256
97.6526
99.6836
101.718
103.753
105.79
107.827
109.862
111.896
113.928
115.956
117.982
120.002
122.012
124.007
125.983
127.94
129.873
131.781
133.663
135.516
137.339
139.129
140.887
142.608
144.293
145.939
147.545
149.109
150.631
152.109
153.541
154.927
156.266
157.556
158.797
159.989
161.13
162.22
163.259
164.246
165.182
166.065
166.897
167.676
168.404
169.08
169.706
170.28
170.805
171.28
171.707
172.085
172.417
172.702
172.942
173.139
173.292
173.403
173.473
173.503
173.495
173.449
173.366
173.247
173.093
172.905
172.683
172.427
172.138
171.815
171.458
171.065
170.636
170.17
169.662
169.114
168.519
167.881
167.201
166.483
165.741
165
164.289
163.597
162.872
162.077
161.187
160.185
159.058
157.794
156.382
154.813
153.079
151.173
149.091
146.828
144.386
141.765
138.97
136.008
132.889
129.627
126.235
122.731
119.134
115.464
111.742
107.989
104.225
100.47
96.7437
93.0629
89.4436
85.9005
82.4472
79.0973
75.8664
72.7785
69.88
67.3099
65.2256
63.8984
26.8218
12.6455
10.4245
9.93813
10.0171
10.407
11.024
11.8308
12.8015
13.9083
15.1186
16.3975
17.7139
19.0455
20.3808
21.7177
23.0604
24.4153
25.7886
27.1846
28.606
30.0536
31.5273
33.0264
34.5498
36.0961
37.6641
39.2526
40.8604
42.4866
44.1304
45.7912
47.4685
49.1621
50.8717
52.5974
54.339
56.0968
57.8707
59.6609
61.4675
63.2905
65.1301
66.9862
68.8586
70.7474
72.6523
74.5729
76.509
78.46
80.4255
82.4048
84.3971
86.4018
88.4178
90.4444
92.4803
94.5246
96.5761
98.6337
100.696
102.762
104.831
106.9
108.97
111.039
113.105
115.168
117.226
119.274
121.31
123.33
125.331
127.31
129.267
131.198
133.102
134.976
136.819
138.629
140.404
142.142
143.842
145.502
147.12
148.695
150.225
151.71
153.147
154.536
155.876
157.165
158.403
159.588
160.721
161.801
162.826
163.798
164.714
165.576
166.383
167.135
167.832
168.474
169.062
169.596
170.076
170.503
170.878
171.201
171.473
171.696
171.869
171.995
172.073
172.105
172.093
172.037
171.939
171.8
171.62
171.401
171.144
170.85
170.52
170.154
169.752
169.316
168.844
168.336
167.792
167.211
166.59
165.932
165.233
164.493
163.714
162.897
162.048
161.179
160.295
159.387
158.428
157.395
156.269
155.038
153.688
152.21
150.593
148.83
146.913
144.836
142.596
140.19
137.618
134.882
131.988
128.943
125.757
122.444
119.017
115.495
111.896
108.24
104.548
100.839
97.1349
93.4543
89.8156
86.2356
82.7296
79.3112
75.9933
72.7882
69.7097
66.7767
64.0203
61.5155
59.3587
57.6633
31.6783
15.1565
12.4088
11.6924
11.6402
11.9252
12.4356
13.1212
13.9504
14.8967
15.934
17.0375
18.1867
19.367
20.5712
21.7974
23.0473
24.3238
25.6297
26.9668
28.3357
29.7364
31.1683
32.6303
34.1213
35.6402
37.1858
38.7571
40.3531
41.9729
43.6158
45.2811
46.9683
48.677
50.4069
52.1578
53.9295
55.7219
57.535
59.3687
61.223
63.0979
64.9932
66.9088
68.8447
70.8006
72.7761
74.7709
76.7846
78.8166
80.8662
82.9328
85.0155
87.1134
89.2255
91.3506
93.4876
95.6353
97.7923
99.9573
102.129
104.305
106.485
108.668
110.85
113.032
115.211
117.386
119.552
121.706
123.846
125.968
128.069
130.148
132.201
134.226
136.222
138.186
140.116
142.01
143.866
145.682
147.457
149.187
150.873
152.512
154.102
155.643
157.132
158.568
159.951
161.279
162.552
163.767
164.925
166.025
167.066
168.048
168.97
169.832
170.634
171.376
172.058
172.679
173.241
173.744
174.187
174.571
174.898
175.167
175.38
175.537
175.64
175.688
175.684
175.629
175.523
175.368
175.166
174.917
174.622
174.283
173.902
173.479
173.014
172.51
171.966
171.385
170.764
170.103
169.406
168.67
167.895
167.079
166.223
165.325
164.385
163.404
162.383
161.326
160.232
159.093
157.892
156.614
155.245
153.773
152.187
150.478
148.637
146.658
144.533
142.258
139.83
137.246
134.508
131.619
128.584
125.411
122.111
118.697
115.185
111.591
107.935
104.236
100.515
96.7918
93.0869
89.4192
85.8065
82.2651
78.8096
75.453
72.2072
69.0836
66.0941
63.2538
60.585
58.1306
55.955
54.1024
36.5789
17.2281
13.9547
13.0392
12.8669
13.05
13.4552
14.0237
14.7225
15.5285
16.4219
17.3856
18.4058
19.4723
20.5793
21.7238
22.9053
24.124
25.3801
26.674
28.0053
29.3735
30.778
32.2178
33.6922
35.2003
36.7412
38.3142
39.9185
41.5533
43.218
44.912
46.6347
48.3856
50.1644
51.9706
53.8039
55.6642
57.5511
59.4645
61.4041
63.3697
65.3612
67.3782
69.4204
71.4874
73.5788
75.6941
77.8326
79.9935
82.1762
84.3796
86.6028
88.8446
91.1037
93.3788
95.6686
97.9715
100.286
102.61
104.942
107.281
109.624
111.969
114.316
116.66
119.002
121.337
123.66
125.97
128.262
130.533
132.782
135.004
137.199
139.362
141.492
143.586
145.643
147.659
149.633
151.562
153.445
155.279
157.063
158.796
160.474
162.097
163.663
165.171
166.619
168.007
169.333
170.596
171.795
172.929
173.999
175.003
175.941
176.813
177.617
178.355
179.026
179.631
180.168
180.639
181.045
181.384
181.659
181.87
182.017
182.101
182.124
182.086
181.989
181.833
181.62
181.352
181.029
180.653
180.225
179.746
179.218
178.643
178.022
177.354
176.641
175.886
175.087
174.246
173.363
172.438
171.47
170.458
169.402
168.301
167.154
165.96
164.72
163.431
162.093
160.697
159.233
157.689
156.055
154.319
152.474
150.51
148.421
146.2
143.841
141.341
138.697
135.909
132.978
129.908
126.705
123.378
119.938
116.398
112.775
109.085
105.348
101.583
97.811
94.0516
90.3246
86.6488
83.0413
79.5179
76.0922
72.7767
69.5821
66.5186
63.5963
60.8271
58.227
55.8225
53.6522
51.7316
42.5763
19.1234
15.1529
14.0008
13.7038
13.793
14.1084
14.5815
15.1775
15.8751
16.6592
17.5176
18.4403
19.42
20.4512
21.5306
22.6559
23.826
25.0399
26.2971
27.597
28.9389
30.3225
31.7473
33.2127
34.7183
36.2638
37.8485
39.472
41.1339
42.8335
44.5704
46.344
48.1538
49.9994
51.8803
53.796
55.7462
57.7304
59.7484
61.7996
63.8836
66.0001
68.1485
70.3283
72.5389
74.7796
77.0496
79.348
81.674
84.0263
86.4038
88.8051
91.2289
93.6736
96.1375
98.6188
101.116
103.626
106.148
108.68
111.219
113.763
116.31
118.857
121.401
123.942
126.472
128.988
131.486
133.965
136.419
138.846
141.244
143.61
145.94
148.232
150.483
152.691
154.854
156.968
159.032
161.044
163.001
164.902
166.744
168.526
170.246
171.902
173.494
175.018
176.475
177.863
179.181
180.428
181.603
182.705
183.735
184.69
185.572
186.379
187.112
187.77
188.354
188.863
189.298
189.659
189.946
190.161
190.304
190.375
190.376
190.307
190.17
189.966
189.695
189.359
188.96
188.499
187.978
187.397
186.757
186.062
185.312
184.51
183.655
182.75
181.795
180.792
179.74
178.64
177.493
176.298
175.055
173.762
172.42
171.026
169.58
168.08
166.524
164.908
163.228
161.475
159.64
157.715
155.691
153.56
151.316
148.953
146.465
143.848
141.1
138.218
135.204
132.06
128.791
125.404
121.908
118.314
114.638
110.894
107.1
103.275
99.4395
95.6125
91.8142
88.0636
84.3787
80.776
77.2702
73.8743
70.5994
67.4552
64.4502
61.5926
58.8915
56.3577
54.0075
51.8623
49.9227
47.4624
20.5602
15.97
14.5998
14.1903
14.2011
14.447
14.85
15.3721
15.9925
16.698
17.4793
18.329
19.2412
20.2113
21.2359
22.3125
23.4392
24.6149
25.8388
27.1103
28.4293
29.7956
31.2092
32.6702
34.1785
35.7341
37.3371
38.9871
40.6841
42.4277
44.2175
46.0532
47.9343
49.8603
51.8307
53.845
55.9027
58.0031
60.1458
62.3301
64.5553
66.8208
69.1258
71.4695
73.8509
76.2692
78.723
81.2114
83.7328
86.2858
88.869
91.4804
94.1184
96.781
99.466
102.171
104.895
107.634
110.386
113.148
115.919
118.695
121.473
124.25
127.024
129.791
132.544
135.279
137.992
140.681
143.342
145.971
148.566
151.123
153.638
156.11
158.536
160.911
163.235
165.503
167.715
169.867
171.957
173.983
175.943
177.836
179.658
181.41
183.089
184.693
186.221
187.672
189.045
190.339
191.552
192.685
193.736
194.705
195.592
196.396
197.118
197.756
198.31
198.782
199.171
199.477
199.702
199.845
199.907
199.889
199.793
199.618
199.366
199.038
198.635
198.158
197.611
196.993
196.306
195.552
194.732
193.849
192.903
191.897
190.831
189.707
188.527
187.291
186
184.655
183.255
181.802
180.294
178.732
177.113
175.438
173.704
171.91
170.053
168.131
166.138
164.07
161.918
159.677
157.339
154.899
152.351
149.691
146.914
144.019
141.003
137.866
134.611
131.241
127.761
124.181
120.509
116.757
112.942
109.077
105.182
101.274
97.374
93.5001
89.6718
85.9076
82.2243
78.6375
75.1607
71.8056
68.5819
65.4978
62.5601
59.775
57.1485
54.6872
52.4003
50.2982
48.3729
51.1151
21.5354
16.4427
14.8905
14.3876
14.3368
14.5324
14.8872
15.3595
15.9276
16.5787
17.3047
18.0997
18.9591
19.8793
20.8571
21.8906
22.9782
24.1188
25.3121
26.5581
27.8568
29.2089
30.6148
32.0752
33.5905
35.1615
36.7883
38.4714
40.2109
42.0068
43.859
45.7672
47.7311
49.7504
51.8244
53.9526
56.1344
58.369
60.6557
62.9936
65.3817
67.8192
70.3047
72.8373
75.4155
78.038
80.7031
83.4093
86.1547
88.9374
91.7553
94.6062
97.4877
100.397
103.333
106.291
109.269
112.265
115.274
118.295
121.324
124.357
127.392
130.425
133.453
136.466
139.462
142.435
145.382
148.299
151.182
154.028
156.833
159.594
162.307
164.969
167.577
170.128
172.619
175.047
177.41
179.706
181.931
184.084
186.163
188.165
190.089
191.934
193.696
195.376
196.971
198.48
199.902
201.235
202.479
203.634
204.698
205.672
206.554
207.344
208.042
208.648
209.162
209.583
209.913
210.15
210.297
210.354
210.32
210.197
209.986
209.688
209.304
208.834
208.282
207.647
206.931
206.137
205.265
204.317
203.295
202.201
201.036
199.802
198.501
197.134
195.702
194.207
192.649
191.03
189.35
187.609
185.807
183.943
182.018
180.029
177.977
175.858
173.671
171.414
169.083
166.674
164.181
161.6
158.926
156.155
153.282
150.306
147.223
144.032
140.735
137.331
133.825
130.221
126.526
122.749
118.902
114.996
111.047
107.07
103.084
99.1057
95.1546
91.2493
87.4079
83.6475
79.984
76.4313
73.0014
69.7046
66.5489
63.5407
60.6849
57.9852
55.4449
53.0671
50.8554
48.8132
46.9279
53.5603
22.099
16.6312
14.938
14.3622
14.2654
14.4258
14.7488
15.1891
15.723
16.3375
17.0246
17.7792
18.5976
19.4771
20.4157
21.412
22.4651
23.5749
24.7416
25.9657
27.2483
28.5905
29.9934
31.4585
32.9869
34.5797
36.238
37.9624
39.7536
41.6119
43.5377
45.5309
47.5913
49.7186
51.9123
54.1719
56.4964
58.8851
61.3369
63.8506
66.4251
69.0588
71.7503
74.4979
77.2997
80.1538
83.0581
86.0103
89.0081
92.0488
95.1298
98.2482
101.401
104.585
107.798
111.035
114.294
117.571
120.862
124.164
127.474
130.786
134.098
137.406
140.703
143.979
147.232
150.456
153.648
156.803
159.918
162.987
166.009
168.978
171.892
174.747
177.538
180.264
182.921
185.506
188.017
190.452
192.806
195.08
197.27
199.374
201.391
203.318
205.155
206.9
208.551
210.106
211.564
212.924
214.186
215.348
216.411
217.374
218.236
218.998
219.658
220.215
220.671
221.025
221.278
221.43
221.482
221.433
221.286
221.04
220.696
220.256
219.721
219.091
218.369
217.555
216.651
215.659
214.581
213.418
212.171
210.844
209.436
207.952
206.391
204.755
203.047
201.267
199.417
197.497
195.509
193.452
191.328
189.136
186.876
184.546
182.147
179.677
177.134
174.517
171.824
169.052
166.196
163.256
160.226
157.106
153.893
150.585
147.182
143.686
140.097
136.42
132.659
128.82
124.912
120.944
116.928
112.877
108.807
104.733
100.672
96.6413
92.6598
88.7444
84.912
81.1783
77.5573
74.0614
70.7008
67.4836
64.4161
61.5026
58.7457
56.1471
53.7072
51.4259
49.3027
47.3353
45.5119
54.8732
22.3096
16.5963
14.805
14.1766
14.0468
14.1834
14.4863
14.9068
15.4194
16.0101
16.6708
17.3967
18.1848
19.0333
19.941
20.9077
21.9335
23.0192
24.1659
25.3752
26.6489
27.9889
29.3972
30.876
32.4272
34.0526
35.7538
37.5321
39.3886
41.3243
43.3397
45.435
47.6103
49.8653
52.1996
54.6126
57.1032
59.6703
62.3126
65.0287
67.8167
70.6748
73.6008
76.5926
79.6474
82.7628
85.9358
89.1635
92.4428
95.7702
99.1425
102.556
106.007
109.491
113.006
116.546
120.107
123.687
127.28
130.882
134.489
138.096
141.7
145.296
148.87
152.417
155.933
159.413
162.852
166.247
169.592
172.884
176.119
179.292
182.401
185.442
188.409
191.3
194.113
196.844
199.491
202.05
204.521
206.9
209.186
211.376
213.469
215.464
217.358
219.151
220.839
222.421
223.897
225.265
226.525
227.676
228.718
229.651
230.473
231.185
231.786
232.275
232.653
232.921
233.077
233.124
233.06
232.887
232.605
232.216
231.719
231.116
230.409
229.598
228.685
227.67
226.557
225.346
224.039
222.638
221.144
219.56
217.888
216.128
214.284
212.356
210.347
208.258
206.091
203.846
201.525
199.128
196.657
194.111
191.49
188.796
186.026
183.181
180.26
177.262
174.187
171.032
167.798
164.481
161.082
157.599
154.033
150.384
146.655
142.847
138.965
135.014
131.001
126.932
122.818
118.67
114.5
110.32
106.147
101.996
97.8828
93.8245
89.8375
85.938
82.1411
78.4603
74.908
71.4942
68.2271
65.1128
62.1551
59.3562
56.7167
54.2355
51.9107
49.7393
47.7179
45.8404
44.0958
55.1451
22.2222
16.3914
14.5451
13.8841
13.7332
13.855
14.1462
14.5558
15.0569
15.6343
16.2797
16.9883
17.7576
18.5864
19.4748
20.4234
21.4334
22.5068
23.6457
24.8528
26.1308
27.4826
28.9113
30.4197
32.0105
33.6864
35.4497
37.3022
39.2458
41.2815
43.4105
45.6333
47.95
50.3605
52.8642
55.4604
58.1478
60.925
63.7902
66.7414
69.7761
72.892
76.0861
79.3553
82.6964
86.1055
89.579
93.113
96.7034
100.346
104.037
107.771
111.544
115.351
119.188
123.05
126.932
130.829
134.737
138.651
142.566
146.478
150.381
154.262
158.113
161.928
165.703
169.432
173.111
176.735
180.3
183.801
187.234
190.596
193.884
197.094
200.218
203.255
206.202
209.057
211.818
214.48
217.044
219.505
221.863
224.115
226.259
228.295
230.22
232.034
233.734
235.318
236.787
238.138
239.373
240.489
241.486
242.364
243.122
243.761
244.279
244.677
244.955
245.112
245.149
245.067
244.865
244.545
244.106
243.55
242.878
242.09
241.188
240.173
239.047
237.81
236.464
235.011
233.453
231.792
230.029
228.166
226.205
224.149
221.998
219.756
217.423
215.003
212.495
209.902
207.226
204.466
201.625
198.704
195.702
192.621
189.46
186.221
182.904
179.509
176.036
172.485
168.858
165.155
161.376
157.524
153.599
149.607
145.549
141.432
137.261
133.044
128.787
124.502
120.198
115.887
111.582
107.296
103.045
98.8431
94.7055
90.6478
86.6848
82.8306
79.0983
75.4994
72.0436
68.7387
65.5904
62.6023
59.7761
57.1115
54.6068
52.2586
50.0628
48.014
46.1063
44.3318
42.6795
54.4635
21.8837
16.0602
14.2022
13.5292
13.3692
13.4849
13.7723
14.1795
14.6786
15.2538
15.8964
16.6017
17.3677
18.1938
19.0805
20.0296
21.0435
22.1251
23.2777
24.5052
25.8112
27.1998
28.6749
30.2404
31.8998
33.6564
35.5133
37.473
39.5378
41.7093
43.9888
46.3769
48.874
51.4797
54.1934
57.0138
59.9395
62.9682
66.0977
69.325
72.6471
76.0605
79.5614
83.1461
86.81
90.5474
94.354
98.2249
102.155
106.139
110.172
114.248
118.361
122.507
126.68
130.874
135.084
139.305
143.532
147.759
151.981
156.194
160.384
164.538
168.651
172.718
176.732
180.689
184.585
188.414
192.172
195.855
199.458
202.979
206.412
209.755
213.004
216.154
219.204
222.15
224.991
227.724
230.347
232.858
235.255
237.536
239.699
241.744
243.668
245.471
247.151
248.707
250.138
251.442
252.62
253.671
254.594
255.389
256.055
256.593
257.001
257.28
257.43
257.45
257.342
257.105
256.74
256.247
255.626
254.88
254.008
253.011
251.891
250.649
249.286
247.803
246.202
244.486
242.654
240.71
238.655
236.492
234.221
231.846
229.369
226.791
224.114
221.34
218.472
215.512
212.46
209.319
206.09
202.774
199.373
195.889
192.323
188.675
184.948
181.143
177.263
173.308
169.282
165.186
161.025
156.802
152.522
148.189
143.81
139.392
134.944
130.474
125.993
121.51
117.038
112.59
108.178
103.815
99.5162
95.295
91.1654
87.141
83.2346
79.4581
75.8218
72.3348
69.0041
65.8348
62.83
59.9908
57.3164
54.8041
52.4499
50.2485
48.1936
46.2778
44.4936
42.832
41.2823
52.9071
21.3337
15.6387
13.8127
13.1497
12.9948
13.1156
13.4101
13.8266
14.3373
14.9264
15.5851
16.3088
17.0962
17.9477
18.8627
19.8442
20.8958
22.0213
23.2255
24.5128
25.8884
27.357
28.9236
30.5929
32.3692
34.2566
36.2587
38.3786
40.6187
42.981
45.4668
48.0768
50.811
53.6687
56.6487
59.7493
62.968
66.3018
69.7474
73.3009
76.958
80.7139
84.5636
88.5018
92.5226
96.6202
100.788
105.021
109.312
113.655
118.043
122.47
126.93
131.417
135.925
140.446
144.977
149.511
154.043
158.567
163.079
167.564
172.007
176.402
180.742
185.022
189.237
193.383
197.453
201.444
205.352
209.172
212.9
216.533
220.068
223.499
226.825
230.043
233.149
236.142
239.018
241.776
244.415
246.931
249.323
251.591
253.731
255.744
257.627
259.38
261.001
262.49
263.845
265.066
266.152
267.102
267.917
268.595
269.136
269.54
269.807
269.937
269.929
269.783
269.501
269.081
268.525
267.832
267.004
266.041
264.944
263.714
262.352
260.858
259.235
257.484
255.606
253.603
251.477
249.229
246.862
244.377
241.777
239.064
236.24
233.307
230.267
227.124
223.878
220.533
217.089
213.551
209.919
206.196
202.383
198.485
194.501
190.436
186.292
182.072
177.779
173.418
168.992
164.507
159.968
155.381
150.754
146.093
141.407
136.707
132.001
127.302
122.621
117.97
113.361
108.807
104.321
99.917
95.6068
91.4032
87.3183
83.3635
79.549
75.884
72.3761
69.0314
65.8538
62.8458
60.0076
57.3376
54.8327
52.4879
50.2971
48.2531
46.3477
44.5725
42.9185
41.3762
39.9356
50.5068
20.6427
15.1595
13.4023
12.7734
12.6427
12.7872
13.1085
13.5569
14.1053
14.7386
15.448
16.2293
17.0809
18.0035
18.9984
20.0689
21.219
22.4535
23.7776
25.197
26.7172
28.3441
30.0833
31.9399
33.919
36.025
38.2616
40.6321
43.1388
45.7835
48.567
51.4894
54.5499
57.7471
61.0785
64.5413
68.1318
71.8455
75.6778
79.6231
83.6756
87.8292
92.0773
96.4129
100.829
105.318
109.874
114.488
119.153
123.862
128.608
133.383
138.181
142.996
147.819
152.646
157.471
162.288
167.091
171.877
176.628
181.326
185.965
190.54
195.046
199.477
203.829
208.097
212.276
216.363
220.353
224.243
228.029
231.707
235.276
238.731
242.07
245.29
248.388
251.364
254.214
256.936
259.53
261.993
264.323
266.521
268.583
270.51
272.299
273.95
275.463
276.835
278.066
279.157
280.104
280.91
281.572
282.09
282.465
282.695
282.781
282.722
282.518
282.17
281.677
281.039
280.257
279.332
278.263
277.051
275.697
274.202
272.567
270.793
268.882
266.833
264.65
262.334
259.886
257.308
254.603
251.772
248.818
245.743
242.549
239.239
235.815
232.28
228.637
224.887
221.034
217.081
213.031
208.885
204.648
200.323
195.913
191.423
186.855
182.216
177.51
172.744
167.923
163.055
158.148
153.21
148.251
143.281
138.311
133.353
128.419
123.522
118.675
113.892
109.184
104.565
100.048
95.6446
91.3657
87.2221
83.2235
79.3784
75.6943
72.1771
68.8313
65.6595
62.6629
59.8407
57.1905
54.7081
52.3879
50.2229
48.2053
46.3263
44.5764
42.9461
41.4257
40.006
38.6775
47.8183
19.9775
14.7405
13.0693
12.4937
12.4109
12.6076
12.9901
13.5114
14.1461
14.8798
15.7043
16.6158
17.6128
18.696
19.8674
21.1302
22.4887
23.9478
25.5128
27.1895
28.9837
30.901
32.947
35.1267
37.4447
39.9048
42.5102
45.2632
48.1652
51.2166
54.417
57.7649
61.258
64.8932
68.6664
72.5728
76.6071
80.7631
85.0343
89.4137
93.8938
98.4669
103.125
107.861
112.665
117.529
122.447
127.408
132.407
137.434
142.482
147.544
152.614
157.684
162.748
167.802
172.838
177.853
182.843
187.782
192.657
197.461
202.191
206.841
211.407
215.884
220.268
224.556
228.742
232.825
236.8
240.663
244.413
248.046
251.56
254.951
258.218
261.358
264.37
267.251
269.999
272.614
275.093
277.435
279.639
281.703
283.627
285.409
287.048
288.544
289.896
291.102
292.162
293.075
293.841
294.459
294.928
295.249
295.419
295.44
295.311
295.032
294.601
294.02
293.289
292.406
291.374
290.191
288.858
287.375
285.744
283.965
282.039
279.967
277.75
275.389
272.886
270.242
267.459
264.54
261.485
258.298
254.98
251.535
247.963
244.269
240.455
236.523
232.478
228.321
224.057
219.689
215.219
210.653
205.995
201.248
196.417
191.509
186.528
181.482
176.377
171.222
166.025
160.795
155.544
150.282
145.021
139.774
134.554
129.377
124.254
119.202
114.234
109.364
104.605
99.9699
95.4693
91.1138
86.9128
82.8743
79.005
75.3103
71.794
68.4588
65.3055
62.3337
59.541
56.9238
54.477
52.1941
50.0675
48.0884
46.2475
44.5349
42.9403
41.4536
40.0652
38.7659
37.5482
44.9168
19.2724
14.3653
12.8262
12.347
12.36
12.6649
13.1741
13.8443
14.652
15.5842
16.6333
17.7957
19.0697
20.4554
21.954
23.568
25.3002
27.1543
29.1343
31.2443
33.4885
35.8709
38.3951
41.0643
43.881
46.847
49.9632
53.2298
56.646
60.21
63.919
67.7697
71.7576
75.8777
80.124
84.4903
88.9695
93.5543
98.237
103.009
107.864
112.791
117.783
122.832
127.929
133.065
138.234
143.427
148.636
153.855
159.076
164.293
169.5
174.691
179.862
185.007
190.122
195.203
200.217
205.156
210.016
214.793
219.483
224.08
228.583
232.987
237.288
241.484
245.57
249.545
253.405
257.148
260.77
264.27
267.645
270.894
274.013
277.002
279.857
282.579
285.164
287.612
289.922
292.091
294.119
296.005
297.747
299.344
300.796
302.102
303.26