/*--------------------------------*- C++ -*----------------------------------*\
| =========                 |                                                 |
| \\      /  F ield         | OpenFOAM: The Open Source CFD Toolbox           |
|  \\    /   O peration     | Version:  2412                                  |
|   \\  /    A nd           | Website:  www.openfoam.com                      |
|    \\/     M anipulation  |                                                 |
\*---------------------------------------------------------------------------*/
FoamFile
{
    version     2.0;
    format      ascii;
    arch        "LSB;label=32;scalar=64";
    class       volScalarField;
    location    "0.08";
    object      k;
}
// * * * * * * * * * * * * * * * * * * * * * * * * * * * * * * * * * * * * * //

dimensions      [0 2 -2 0 0 0 0];

internalField   nonuniform List<scalar> 
12225
(
0.316793
0.394492
0.477902
0.542606
0.593818
0.63436
0.666708
0.692757
0.713853
0.731009
0.745007
0.756441
0.765765
0.773322
0.779378
0.784089
0.78766
0.791172
0.569139
0.788912
0.952576
1.06798
1.15118
1.21268
1.25814
1.29167
1.31627
1.33407
1.34665
1.35519
1.3606
1.36355
1.36463
1.36414
1.36324
1.36096
0.670061
0.972152
1.18323
1.33201
1.43943
1.51859
1.57691
1.61965
1.65074
1.67297
1.68845
1.69872
1.705
1.70819
1.70906
1.70817
1.70649
1.70423
0.722108
1.07674
1.32651
1.50446
1.63402
1.7297
1.8004
1.85241
1.89035
1.91762
1.93674
1.9496
1.95766
1.96206
1.96372
1.9634
1.96209
1.96041
0.742771
1.1292
1.41224
1.61818
1.77022
1.88336
1.96762
2.03014
2.07622
2.10976
2.1337
2.15027
2.16117
2.16776
2.17113
2.17222
2.17205
2.17136
0.739915
1.13776
1.44638
1.6782
1.85304
1.98505
2.08466
2.15963
2.21576
2.2574
2.28786
2.30971
2.3249
2.33501
2.3413
2.34485
2.34671
2.34758
0.719621
1.10881
1.43133
1.68403
1.8803
2.03178
2.14829
2.23767
2.30595
2.3578
2.39685
2.4259
2.44719
2.46246
2.47317
2.48052
2.48554
2.48886
0.687644
1.05046
1.37184
1.63649
1.84975
2.01927
2.15295
2.25794
2.34011
2.40415
2.45382
2.49212
2.52145
2.54374
2.56058
2.57327
2.58282
2.58977
0.648989
0.972386
1.27663
1.54082
1.76296
1.94596
2.09476
2.21491
2.31151
2.3889
2.45072
2.49997
2.53912
2.57021
2.59488
2.6145
2.63008
2.64199
0.607488
0.884097
1.15749
1.40742
1.62727
1.81576
1.97452
2.10681
2.21635
2.30667
2.38094
2.44194
2.492
2.53314
2.567
2.59492
2.61789
2.63609
0.565823
0.79333
1.02686
1.25033
1.4557
1.63921
1.79972
1.93814
2.05643
2.15694
2.24203
2.31395
2.37471
2.42611
2.46966
2.50661
2.53783
2.56327
0.52875
0.712105
0.905201
1.09649
1.27873
1.44756
1.60052
1.73685
1.85698
1.96205
2.05349
2.13284
2.20163
2.26127
2.31302
2.35795
2.39673
2.42903
0.494657
0.637282
0.790604
0.947022
1.10081
1.2481
1.3861
1.51314
1.6286
1.73256
1.82555
1.90837
1.98195
2.04724
2.10516
2.15649
2.20167
2.24006
0.46068
0.562155
0.673166
0.789711
0.907951
1.02501
1.13856
1.2468
1.34857
1.44325
1.53063
1.6108
1.68403
1.75075
1.81142
1.86643
1.91595
1.95898
0.429349
0.492757
0.562816
0.63832
0.717395
0.798378
0.879774
0.96023
1.03865
1.11421
1.18638
1.2548
1.31929
1.3798
1.43638
1.48906
1.53771
1.58112
0.403171
0.435391
0.47099
0.510074
0.552221
0.596901
0.643537
0.691488
0.740109
0.788819
0.837123
0.884615
0.930968
0.975929
1.0193
1.06092
1.1005
1.13697
0.384085
0.394613
0.40649
0.419905
0.434863
0.451325
0.469228
0.488462
0.508868
0.530261
0.552448
0.575234
0.598425
0.621805
0.645198
0.668444
0.691337
0.713337
0.374047
0.37371
0.374091
0.375208
0.37704
0.379565
0.382769
0.386639
0.391152
0.39628
0.401988
0.408237
0.414984
0.422207
0.42986
0.437885
0.446216
0.45474
0.376605
0.378921
0.381985
0.385845
0.390475
0.39584
0.401904
0.408623
0.415938
0.423783
0.432086
0.440778
0.449787
0.459045
0.468487
0.478052
0.487666
0.49711
0.394945
0.417773
0.442946
0.470538
0.50027
0.531778
0.564675
0.598526
0.632884
0.667331
0.701502
0.735085
0.767829
0.799535
0.830057
0.859285
0.887098
0.913093
0.427767
0.489056
0.556212
0.627985
0.702537
0.778226
0.853618
0.927457
0.998732
1.06672
1.13094
1.19112
1.24716
1.29905
1.34691
1.39088
1.43111
1.46765
0.475735
0.594961
0.723587
0.855943
0.987143
1.11386
1.23372
1.3451
1.44719
1.53977
1.62306
1.6975
1.76371
1.82238
1.87421
1.91988
1.96002
1.99513
0.536841
0.728683
0.928603
1.12369
1.30637
1.47296
1.62173
1.75244
1.86596
1.96376
2.0475
2.11887
2.17946
2.23074
2.27401
2.3104
2.34089
2.36634
0.604137
0.873957
1.14014
1.38236
1.59443
1.77599
1.92875
2.05575
2.16052
2.24647
2.31664
2.37365
2.41975
2.45679
2.48633
2.50966
2.52786
2.54187
0.668312
1.00765
1.31641
1.5753
1.78706
1.95798
2.09442
2.2026
2.28793
2.3549
2.40711
2.44747
2.4783
2.50146
2.51845
2.53047
2.53849
2.54338
0.717301
1.09919
1.41418
1.65887
1.8481
1.99397
2.10589
2.19142
2.25646
2.30554
2.34213
2.36892
2.38802
2.40105
2.4093
2.41377
2.41528
2.41456
0.735717
1.11862
1.40734
1.61983
1.77772
1.89573
1.98395
2.04966
2.09826
2.13377
2.15922
2.17689
2.18854
2.1955
2.19881
2.19928
2.19757
2.19425
0.708199
1.04716
1.29075
1.46557
1.59176
1.68429
1.75247
1.80246
1.83879
1.86481
1.88298
1.89511
1.9026
1.90651
1.90765
1.90665
1.90401
1.90021
0.616922
0.862576
1.04891
1.18266
1.27675
1.34492
1.39485
1.43129
1.4577
1.47659
1.48978
1.4986
1.50405
1.5069
1.50774
1.50704
1.50515
1.50247
0.33327
0.40879
0.496179
0.564099
0.616616
0.657454
0.689419
0.714732
0.734971
0.751264
0.764458
0.775199
0.78398
0.791184
0.79711
0.801998
0.806021
0.809358
0.0136663
0.0238439
0.0306857
0.0356682
0.0391673
0.0415056
0.0431508
0.0451962
0.0474313
0.0499125
0.0527845
0.0562031
0.0604213
0.0663449
0.0734016
0.0812762
0.0898353
0.0990322
0.108816
0.119117
0.129859
0.140988
0.15248
0.164117
0.175804
0.187476
0.199082
0.210586
0.221961
0.23319
0.244261
0.255171
0.265921
0.276516
0.286963
0.29727
0.307448
0.317508
0.327459
0.337311
0.347074
0.356756
0.366363
0.375903
0.385379
0.394797
0.404158
0.413466
0.422721
0.431923
0.441073
0.450168
0.459207
0.468189
0.477109
0.485965
0.494754
0.50347
0.512111
0.520671
0.529145
0.537529
0.545818
0.554006
0.562089
0.570062
0.577922
0.585669
0.593309
0.600857
0.608345
0.615686
0.622854
0.629857
0.636696
0.643369
0.649875
0.656209
0.662368
0.668347
0.674143
0.679752
0.685171
0.690398
0.69543
0.700264
0.704899
0.709332
0.713564
0.717592
0.721416
0.725037
0.728454
0.731668
0.73468
0.737491
0.740103
0.742518
0.744739
0.746767
0.748606
0.750259
0.75173
0.753023
0.754141
0.755089
0.755872
0.756495
0.756961
0.757276
0.757446
0.757474
0.757366
0.757126
0.756759
0.756269
0.755661
0.754937
0.7541
0.753153
0.752098
0.750934
0.749663
0.748282
0.746789
0.745181
0.743452
0.741596
0.739605
0.737468
0.735174
0.732708
0.730055
0.727197
0.724111
0.720778
0.717168
0.713266
0.709059
0.704724
0.701684
0.702774
0.704907
0.707019
0.708957
0.710651
0.712046
0.71309
0.713734
0.713929
0.713629
0.71279
0.711373
0.709342
0.706669
0.70333
0.699313
0.694609
0.68922
0.683159
0.676443
0.6691
0.661166
0.652679
0.643686
0.634234
0.624371
0.614144
0.603597
0.592768
0.581684
0.57036
0.558792
0.546943
0.534733
0.52192
0.50824
0.493584
0.477119
0.456448
0.0296363
0.0476357
0.062208
0.0733315
0.0825903
0.0911516
0.0996379
0.107731
0.116498
0.126335
0.137446
0.149791
0.163096
0.177034
0.191295
0.205736
0.220388
0.235359
0.250755
0.266641
0.283036
0.299927
0.317277
0.335026
0.353117
0.37149
0.390082
0.40883
0.427678
0.446572
0.465467
0.484327
0.503125
0.521842
0.540466
0.558991
0.577419
0.595751
0.613995
0.632158
0.65025
0.668279
0.686254
0.704182
0.722071
0.739927
0.757753
0.775552
0.793327
0.811078
0.828803
0.846502
0.86417
0.881803
0.899397
0.916945
0.934441
0.951876
0.969243
0.986534
1.00374
1.02085
1.03785
1.05474
1.0715
1.08812
1.10459
1.1209
1.13704
1.15299
1.16859
1.18389
1.19893
1.21373
1.22828
1.24258
1.25662
1.27038
1.28386
1.29705
1.30994
1.32251
1.33477
1.34671
1.35831
1.36957
1.38048
1.39104
1.40123
1.41107
1.42054
1.42963
1.43835
1.4467
1.45467
1.46227
1.46948
1.47632
1.48279
1.48889
1.49462
1.49998
1.50499
1.50965
1.51395
1.51792
1.52156
1.52488
1.52788
1.53058
1.53299
1.53511
1.53696
1.53855
1.53989
1.541
1.54188
1.54255
1.54301
1.54328
1.54336
1.54327
1.54301
1.54259
1.54201
1.54127
1.54038
1.53932
1.5381
1.5367
1.53511
1.53331
1.53127
1.52899
1.5264
1.5235
1.52022
1.51655
1.51241
1.50797
1.50349
1.49914
1.4944
1.48901
1.48284
1.4758
1.4678
1.45875
1.44858
1.4372
1.42454
1.41055
1.39517
1.37837
1.36011
1.3404
1.31924
1.29667
1.27274
1.24751
1.22108
1.19354
1.16502
1.13565
1.10557
1.07493
1.04386
1.01252
0.981036
0.949543
0.918152
0.886963
0.856055
0.825485
0.795305
0.765492
0.735455
0.705709
0.67614
0.654412
0.0440684
0.0735644
0.0948997
0.110777
0.124199
0.136346
0.147622
0.158976
0.171108
0.184415
0.198981
0.214623
0.231023
0.247884
0.265036
0.282473
0.300311
0.318706
0.337792
0.357645
0.378274
0.399639
0.421664
0.444251
0.467293
0.490681
0.514311
0.538089
0.561933
0.585775
0.609564
0.63326
0.656839
0.680284
0.703592
0.726762
0.7498
0.772717
0.795523
0.818232
0.840855
0.863406
0.885894
0.908331
0.930724
0.95308
0.975405
0.997702
1.01997
1.04222
1.06444
1.08662
1.10878
1.13089
1.15296
1.17498
1.19694
1.21882
1.24063
1.26234
1.28396
1.30545
1.32683
1.34806
1.36914
1.39006
1.41079
1.43135
1.4517
1.47178
1.49155
1.51103
1.53022
1.54911
1.5677
1.58598
1.60393
1.62155
1.63881
1.65571
1.67223
1.68836
1.70409
1.71941
1.73431
1.74878
1.76281
1.77638
1.7895
1.80216
1.81434
1.82605
1.83728
1.84802
1.85828
1.86804
1.87732
1.8861
1.8944
1.9022
1.90952
1.91636
1.92272
1.9286
1.93402
1.93898
1.94348
1.94755
1.95118
1.95439
1.95718
1.95958
1.96159
1.96322
1.9645
1.96542
1.96601
1.96629
1.96625
1.96592
1.96531
1.96442
1.96328
1.96188
1.96024
1.95835
1.95623
1.95387
1.95126
1.9484
1.94528
1.94187
1.93816
1.93413
1.92972
1.92492
1.91966
1.91396
1.90778
1.90118
1.89423
1.88688
1.87886
1.87
1.86017
1.84926
1.83716
1.82377
1.80901
1.79278
1.77499
1.75558
1.73448
1.71166
1.68709
1.66077
1.63271
1.60296
1.57159
1.53868
1.50434
1.46872
1.43197
1.39425
1.35574
1.31663
1.27709
1.23732
1.19747
1.15773
1.11823
1.07909
1.04044
1.00236
0.964922
0.928192
0.891985
0.855827
0.8196
0.785689
0.0568211
0.102144
0.129163
0.14852
0.164243
0.177894
0.190792
0.203799
0.217504
0.232238
0.248085
0.264936
0.282603
0.300929
0.319854
0.339421
0.359731
0.380888
0.40296
0.425953
0.44982
0.474473
0.499798
0.525671
0.551968
0.578572
0.60538
0.632303
0.659268
0.686216
0.713105
0.739904
0.766595
0.793168
0.819621
0.845956
0.872181
0.898306
0.924341
0.950299
0.976191
1.00203
1.02782
1.05358
1.07931
1.10501
1.1307
1.15637
1.18203
1.20767
1.2333
1.2589
1.28448
1.31002
1.33552
1.36097
1.38637
1.41169
1.43693
1.46207
1.48711
1.51202
1.5368
1.56142
1.58588
1.61016
1.63425
1.65813
1.68177
1.70511
1.72814
1.75086
1.77325
1.79531
1.81703
1.83838
1.85936
1.87994
1.90012
1.91988
1.9392
1.95807
1.97647
1.9944
2.01183
2.02876
2.04518
2.06107
2.07642
2.09122
2.10548
2.11917
2.13229
2.14484
2.15681
2.16819
2.17899
2.18921
2.19884
2.20788
2.21633
2.2242
2.23148
2.23819
2.24433
2.2499
2.25491
2.25938
2.2633
2.26669
2.26957
2.27193
2.2738
2.27519
2.27611
2.27658
2.2766
2.27621
2.2754
2.2742
2.27261
2.27066
2.26835
2.26569
2.2627
2.25938
2.25573
2.25176
2.24747
2.24284
2.23788
2.23256
2.22687
2.22078
2.21425
2.20727
2.19981
2.19184
2.18333
2.17428
2.16469
2.15446
2.14342
2.13142
2.11833
2.10404
2.08844
2.07143
2.0529
2.03276
2.01091
1.9873
1.96185
1.93452
1.90528
1.87415
1.84114
1.8063
1.76972
1.73149
1.69176
1.65067
1.6084
1.56514
1.52109
1.47647
1.43148
1.38633
1.34122
1.29633
1.25182
1.20786
1.16456
1.12204
1.08039
1.03971
1
0.961008
0.92275
0.886202
0.0675407
0.127924
0.160767
0.182979
0.200248
0.215122
0.229
0.242783
0.25708
0.27226
0.288491
0.305792
0.324112
0.343397
0.363635
0.384849
0.407077
0.430342
0.454631
0.479889
0.506028
0.532935
0.560488
0.588565
0.617049
0.645837
0.674837
0.703975
0.733187
0.762425
0.791654
0.820846
0.849986
0.879062
0.908072
0.937017
0.9659
0.994728
1.02351
1.05225
1.08096
1.10965
1.13833
1.167
1.19566
1.22433
1.253
1.28168
1.31036
1.33904
1.36772
1.39639
1.42505
1.45369
1.4823
1.51086
1.53937
1.56781
1.59617
1.62444
1.65259
1.68062
1.7085
1.73623
1.76378
1.79113
1.81828
1.84519
1.87183
1.89814
1.92412
1.94976
1.97505
1.99997
2.0245
2.04862
2.07232
2.09559
2.11839
2.14072
2.16256
2.18389
2.20469
2.22495
2.24466
2.26379
2.28234
2.30029
2.31763
2.33436
2.35044
2.36589
2.38069
2.39483
2.4083
2.42111
2.43324
2.44469
2.45546
2.46555
2.47496
2.48368
2.49173
2.49909
2.50578
2.51181
2.51717
2.52188
2.52593
2.52936
2.53215
2.53433
2.5359
2.53688
2.53729
2.53713
2.53642
2.53518
2.53342
2.53116
2.52842
2.52519
2.52151
2.51739
2.51283
2.50784
2.50243
2.49661
2.49037
2.48371
2.47663
2.46912
2.46114
2.45271
2.44379
2.43435
2.42437
2.4138
2.40261
2.39078
2.37826
2.36495
2.35073
2.33547
2.31904
2.30133
2.28223
2.26164
2.23945
2.21558
2.18992
2.16241
2.13299
2.10162
2.06827
2.03296
1.99572
1.9566
1.9157
1.87312
1.82903
1.78358
1.73698
1.68942
1.64113
1.59234
1.54328
1.49417
1.44522
1.39664
1.34861
1.30128
1.25481
1.20932
1.16491
1.12171
1.07979
1.03908
0.999605
0.961998
0.0754559
0.149802
0.187021
0.211659
0.230635
0.246701
0.261386
0.275685
0.290282
0.305635
0.322018
0.339568
0.358332
0.378317
0.399515
0.421915
0.445496
0.470214
0.496004
0.522776
0.550422
0.578828
0.607877
0.63746
0.667476
0.697834
0.728459
0.759285
0.790258
0.821337
0.852487
0.883684
0.914909
0.94615
0.977401
1.00866
1.03992
1.07119
1.10247
1.13376
1.16507
1.19641
1.22777
1.25917
1.2906
1.32206
1.35355
1.38508
1.41664
1.44823
1.47984
1.51145
1.54307
1.57469
1.60628
1.63784
1.66936
1.70082
1.7322
1.76348
1.79465
1.82569
1.85658
1.88731
1.91784
1.94816
1.97826
2.0081
2.03761
2.06679
2.09561
2.12406
2.15212
2.17977
2.20699
2.23376
2.26007
2.28589
2.3112
2.33598
2.36021
2.38387
2.40695
2.42943
2.45128
2.4725
2.49307
2.51296
2.53218
2.5507
2.56851
2.5856
2.60196
2.61758
2.63245
2.64656
2.65991
2.6725
2.68431
2.69535
2.7056
2.71508
2.72378
2.7317
2.73884
2.74521
2.75081
2.75565
2.75974
2.76307
2.76567
2.76754
2.76869
2.76914
2.7689
2.76798
2.76639
2.76416
2.7613
2.75782
2.75373
2.74906
2.74382
2.73803
2.73169
2.72481
2.71741
2.70949
2.70107
2.6921
2.68264
2.67266
2.66215
2.65109
2.63946
2.62724
2.61439
2.60087
2.58665
2.57169
2.55592
2.53926
2.52161
2.50284
2.48285
2.46152
2.43877
2.41447
2.38854
2.36088
2.33141
2.30006
2.26678
2.23153
2.19431
2.15511
2.11399
2.07102
2.02629
1.97992
1.93209
1.88296
1.83275
1.78168
1.72999
1.6779
1.62567
1.57354
1.52171
1.47042
1.41984
1.37015
1.3215
1.27403
1.22784
1.18308
1.13983
1.09816
1.05793
1.01972
0.0831572
0.165916
0.206823
0.233896
0.254609
0.271924
0.287486
0.302372
0.317343
0.33294
0.349526
0.367321
0.386441
0.406927
0.428773
0.451944
0.476382
0.502009
0.528731
0.556447
0.585046
0.614422
0.644469
0.675093
0.706206
0.737734
0.769609
0.801776
0.834187
0.866804
0.899593
0.93253
0.965594
0.998771
1.03205
1.06542
1.09887
1.13241
1.16603
1.19974
1.23352
1.26739
1.30133
1.33535
1.36946
1.40364
1.43789
1.47221
1.5066
1.54104
1.57552
1.61004
1.64459
1.67914
1.7137
1.74823
1.78273
1.81717
1.85154
1.88582
1.91998
1.95401
1.98788
2.02157
2.05505
2.08831
2.12132
2.15404
2.1864
2.21839
2.25
2.2812
2.31198
2.34231
2.37216
2.40152
2.43036
2.45867
2.48641
2.51357
2.54013
2.56606
2.59134
2.61595
2.63988
2.66311
2.68561
2.70738
2.72839
2.74863
2.76808
2.78674
2.80458
2.8216
2.83779
2.85313
2.86763
2.88126
2.89403
2.90593
2.91696
2.92711
2.93638
2.94477
2.95227
2.9589
2.96465
2.96953
2.97355
2.9767
2.979
2.98046
2.98108
2.98088
2.97987
2.97806
2.97547
2.97211
2.96799
2.96314
2.95756
2.95127
2.94429
2.93664
2.92833
2.91935
2.90973
2.8995
2.88865
2.87717
2.86509
2.85238
2.83904
2.82507
2.81042
2.7951
2.77905
2.76225
2.74466
2.72623
2.7069
2.68659
2.66522
2.64268
2.61887
2.59369
2.56706
2.53887
2.50903
2.47746
2.44409
2.40886
2.37172
2.33265
2.29164
2.24873
2.20395
2.15739
2.10916
2.05939
2.00826
1.95596
1.9027
1.84871
1.79424
1.73954
1.68485
1.63043
1.5765
1.52327
1.47094
1.41968
1.36965
1.32097
1.27378
1.22819
1.18431
1.1422
1.10173
1.06328
0.092014
0.177467
0.220944
0.249959
0.272228
0.290793
0.30734
0.322982
0.338519
0.354538
0.371458
0.389555
0.408987
0.429823
0.452067
0.475678
0.500589
0.52671
0.553944
0.582189
0.611344
0.641312
0.672004
0.703338
0.73524
0.767646
0.8005
0.833751
0.867358
0.901285
0.935499
0.969975
1.00469
1.03962
1.07477
1.1101
1.14561
1.1813
1.21715
1.25317
1.28933
1.32565
1.36211
1.39872
1.43545
1.47231
1.50929
1.54638
1.58358
1.62086
1.65822
1.69564
1.73312
1.77062
1.80814
1.84565
1.88313
1.92057
1.95794
1.99521
2.03237
2.06938
2.10622
2.14287
2.1793
2.21549
2.2514
2.28696
2.32214
2.35692
2.39129
2.42521
2.45866
2.49162
2.52406
2.55596
2.58729
2.61803
2.64815
2.67763
2.70644
2.73457
2.76199
2.78868
2.81461
2.83977
2.86414
2.8877
2.91044
2.93232
2.95335
2.97349
2.99274
3.01109
3.02852
3.04502
3.06057
3.07518
3.08884
3.10153
3.11324
3.12398
3.13374
3.14252
3.15031
3.15711
3.16292
3.16776
3.17161
3.17449
3.1764
3.17734
3.17733
3.17637
3.17448
3.17167
3.16794
3.16332
3.15782
3.15145
3.14423
3.13615
3.12727
3.11759
3.10713
3.09588
3.08388
3.07113
3.05764
3.04341
3.02845
3.01277
2.99634
2.97916
2.96122
2.94249
2.92295
2.90256
2.88128
2.85908
2.83588
2.81164
2.78627
2.75969
2.7318
2.70253
2.67179
2.6395
2.60558
2.56995
2.53257
2.49337
2.45234
2.40945
2.36472
2.31819
2.26991
2.21997
2.16851
2.11565
2.06159
2.00653
1.95068
1.89428
1.83759
1.78086
1.72434
1.66827
1.61289
1.5584
1.50501
1.45288
1.40215
1.35296
1.30543
1.25964
1.2157
1.17367
1.13339
1.09509
0.0989257
0.184802
0.229955
0.260437
0.284032
0.303791
0.321387
0.33792
0.35419
0.370795
0.388173
0.406629
0.42635
0.447429
0.469888
0.4937
0.518804
0.545121
0.572562
0.601037
0.630459
0.660746
0.691822
0.723619
0.756077
0.78914
0.82276
0.856896
0.891508
0.926564
0.962032
0.997885
1.0341
1.07065
1.10753
1.14471
1.18218
1.21992
1.25792
1.29617
1.33467
1.37339
1.41233
1.45148
1.49083
1.53036
1.57006
1.60992
1.64993
1.69007
1.73031
1.77065
1.81107
1.85154
1.89204
1.93254
1.97303
2.01347
2.05385
2.09413
2.13428
2.17428
2.2141
2.2537
2.29306
2.33216
2.37093
2.40932
2.44729
2.48483
2.52191
2.5585
2.59459
2.63013
2.6651
2.69948
2.73323
2.76634
2.79877
2.83049
2.86149
2.89174
2.92122
2.94989
2.97775
3.00476
3.03092
3.05619
3.08055
3.104
3.12651
3.14806
3.16863
3.18821
3.2068
3.22436
3.2409
3.2564
3.27084
3.28423
3.29656
3.30781
3.31797
3.32704
3.33503
3.34191
3.34771
3.3524
3.35601
3.35851
3.35993
3.36026
3.35952
3.3577
3.35482
3.35089
3.34591
3.33991
3.33289
3.32488
3.31588
3.3059
3.29498
3.28312
3.27034
3.25665
3.24208
3.22662
3.21029
3.1931
3.17506
3.15616
3.1364
3.11578
3.09428
3.07188
3.04857
3.0243
2.99906
2.9728
2.94548
2.91703
2.88741
2.85653
2.82433
2.79074
2.75569
2.7191
2.68092
2.64109
2.59958
2.55634
2.51137
2.46467
2.41626
2.36619
2.31455
2.26143
2.20696
2.15131
2.09465
2.03721
1.9792
1.92087
1.86246
1.80424
1.74645
1.68933
1.63311
1.578
1.52417
1.47179
1.421
1.37191
1.32462
1.27921
1.23573
1.19423
1.15458
1.11681
0.103941
0.188544
0.234626
0.266146
0.290821
0.311663
0.330295
0.347777
0.364873
0.382162
0.400078
0.418931
0.438925
0.460176
0.482729
0.506579
0.531686
0.557991
0.585425
0.613917
0.643398
0.673801
0.705066
0.73714
0.769972
0.80352
0.837744
0.872605
0.908072
0.944113
0.980699
1.0178
1.0554
1.09346
1.13197
1.17091
1.21025
1.24998
1.29008
1.33052
1.37131
1.4124
1.45381
1.49549
1.53744
1.57965
1.62208
1.66472
1.70756
1.75057
1.79372
1.837
1.88038
1.92383
1.96732
2.01084
2.05433
2.09779
2.14118
2.18445
2.2276
2.27057
2.31334
2.35588
2.39815
2.44012
2.4817
2.52286
2.56357
2.60381
2.64354
2.68274
2.72137
2.75942
2.79684
2.83361
2.8697
2.90508
2.93972
2.97359
3.00668
3.03894
3.07037
3.10092
3.13059
3.15935
3.18717
3.21404
3.23994
3.26483
3.28872
3.31156
3.33335
3.35407
3.3737
3.39223
3.40964
3.42592
3.44107
3.45506
3.46789
3.47955
3.49002
3.4993
3.50738
3.51426
3.51994
3.5244
3.52766
3.5297
3.53053
3.53015
3.52857
3.5258
3.52183
3.51667
3.51035
3.50286
3.49422
3.48445
3.47355
3.46154
3.44844
3.43426
3.41903
3.40274
3.38543
3.36709
3.34775
3.32741
3.30608
3.28377
3.26047
3.23618
3.21089
3.18459
3.15727
3.1289
3.09945
3.0689
3.0372
3.00433
2.97022
2.93483
2.89811
2.86
2.82044
2.77939
2.73682
2.69267
2.64693
2.5996
2.55067
2.50016
2.44813
2.39463
2.33977
2.28365
2.22643
2.16826
2.10934
2.04989
1.99014
1.93032
1.87069
1.8115
1.75299
1.69539
1.63891
1.58376
1.53009
1.47806
1.42778
1.37935
1.33284
1.28831
1.24578
1.20526
1.16661
1.12976
0.107236
0.189353
0.23577
0.267961
0.293473
0.315247
0.334839
0.353245
0.37118
0.389184
0.407666
0.42693
0.447186
0.468566
0.491139
0.514927
0.539917
0.566077
0.593364
0.621729
0.651123
0.681499
0.712815
0.745029
0.778106
0.812012
0.846715
0.882186
0.918395
0.955316
0.992921
1.03118
1.07008
1.10958
1.14966
1.19029
1.23146
1.27313
1.31529
1.35791
1.40096
1.44443
1.48829
1.53251
1.57708
1.62197
1.66715
1.71259
1.75828
1.80417
1.85025
1.89648
1.94283
1.98926
2.03576
2.08227
2.12877
2.17522
2.22159
2.26785
2.31394
2.35985
2.40552
2.45094
2.49605
2.54081
2.58512
2.62897
2.67233
2.71516
2.75744
2.79913
2.8402
2.88063
2.92038
2.95941
2.99771
3.03523
3.07194
3.10783
3.14285
3.17699
3.21023
3.24252
3.27386
3.30422
3.33357
3.3619
3.38918
3.4154
3.44052
3.46453
3.4874
3.50912
3.52967
3.54903
3.5672
3.58415
3.59987
3.61435
3.62758
3.63954
3.65021
3.65959
3.66766
3.67443
3.67988
3.68401
3.68682
3.6883
3.68846
3.68728
3.68477
3.68094
3.67579
3.66932
3.66155
3.65247
3.64211
3.63047
3.61757
3.60341
3.58802
3.5714
3.55358
3.53456
3.51437
3.49301
3.4705
3.44685
3.42207
3.39617
3.36914
3.341
3.31174
3.28134
3.24981
3.21713
3.18327
3.14823
3.11197
3.07448
3.03571
2.99563
2.95421
2.91142
2.86722
2.82159
2.77451
2.72597
2.67596
2.6245
2.57162
2.51736
2.46179
2.405
2.34709
2.28819
2.22846
2.16808
2.10725
2.04618
1.98511
1.92426
1.8639
1.80425
1.74555
1.68801
1.63184
1.57721
1.52427
1.47314
1.42391
1.37667
1.33144
1.28826
1.24712
1.20797
1.1707
1.13515
0.108988
0.187824
0.234136
0.266706
0.292834
0.315373
0.335804
0.355055
0.373781
0.392475
0.411514
0.431183
0.451692
0.473184
0.495746
0.519428
0.544245
0.570194
0.59726
0.625418
0.654644
0.684911
0.716194
0.748468
0.781709
0.815896
0.851006
0.887017
0.923904
0.961645
1.00021
1.03959
1.07974
1.12063
1.16225
1.20457
1.24754
1.29115
1.33537
1.38016
1.42549
1.47134
1.51767
1.56446
1.61166
1.65925
1.70719
1.75545
1.80399
1.85278
1.90177
1.95095
2.00025
2.04966
2.09912
2.1486
2.19806
2.24745
2.29675
2.3459
2.39487
2.44362
2.4921
2.54029
2.58813
2.63553
2.68244
2.72884
2.7747
2.81997
2.86464
2.90866
2.952
2.99464
3.03653
3.07766
3.11798
3.15746
3.19606
3.23377
3.27055
3.30638
3.34124
3.37509
3.40792
3.43969
3.4704
3.5
3.5285
3.55585
3.58206
3.60708
3.63087
3.65343
3.67474
3.69479
3.71356
3.73103
3.74719
3.76202
3.77551
3.78764
3.79839
3.80775
3.81571
3.82226
3.82739
3.83109
3.83336
3.83419
3.83357
3.83149
3.82797
3.823
3.81658
3.80871
3.79939
3.78865
3.77647
3.76287
3.74786
3.73146
3.71367
3.6945
3.67398
3.65212
3.62893
3.60443
3.57862
3.55153
3.52316
3.49353
3.46264
3.4305
3.39711
3.36247
3.32657
3.28942
3.25101
3.21132
3.17035
3.12809
3.08452
3.03963
2.9934
2.94583
2.8969
2.84662
2.79498
2.74201
2.68773
2.63218
2.57541
2.51749
2.45852
2.3986
2.33785
2.27642
2.21449
2.15223
2.08985
2.02757
1.96562
1.90422
1.84361
1.78402
1.72566
1.66873
1.61341
1.55985
1.50817
1.45846
1.4108
1.36522
1.32174
1.28034
1.24098
1.20359
1.16803
1.13412
0.109356
0.184465
0.230366
0.263099
0.28966
0.312804
0.33394
0.353928
0.373367
0.392699
0.412266
0.432332
0.453098
0.474712
0.497279
0.520867
0.54552
0.571263
0.598106
0.626053
0.655102
0.685249
0.716486
0.748807
0.782202
0.81666
0.852168
0.888712
0.926274
0.964835
1.00437
1.04486
1.08628
1.12859
1.17177
1.21579
1.2606
1.30617
1.35247
1.39947
1.44711
1.49537
1.5442
1.59356
1.64342
1.69372
1.74443
1.7955
1.84688
1.89854
1.95043
2.00251
2.05472
2.10703
2.15938
2.21174
2.26405
2.31628
2.36837
2.42029
2.47198
2.52342
2.57456
2.62535
2.67569
2.72554
2.77484
2.82358
2.87171
2.91921
2.96603
3.01214
3.05752
3.10212
3.14593
3.1889
3.23102
3.27222
3.31247
3.35176
3.39005
3.42733
3.46358
3.49875
3.53283
3.5658
3.59763
3.62831
3.65779
3.68608
3.71314
3.73894
3.76346
3.78669
3.80859
3.82916
3.84838
3.86622
3.88267
3.89771
3.91132
3.92348
3.93418
3.94341
3.95113
3.95735
3.96205
3.96522
3.96685
3.96692
3.96544
3.96238
3.95776
3.95156
3.94378
3.93442
3.92349
3.91098
3.89691
3.88127
3.86408
3.84534
3.82507
3.80327
3.77997
3.75517
3.7289
3.70115
3.67196
3.64133
3.60927
3.57581
3.54095
3.5047
3.46707
3.42807
3.3877
3.34598
3.3029
3.25847
3.2127
3.16558
3.11713
3.06736
3.01626
2.96386
2.91017
2.85522
2.79904
2.74168
2.68318
2.62363
2.5631
2.50169
2.4395
2.37668
2.31336
2.24972
2.18592
2.12216
2.05865
1.9956
1.93323
1.87177
1.81143
1.75242
1.69494
1.63915
1.58521
1.53323
1.48332
1.43553
1.3899
1.34644
1.30511
1.26588
1.22867
1.19336
1.15982
1.12785
0.108461
0.179693
0.224992
0.257743
0.284602
0.308222
0.329941
0.350564
0.370635
0.390554
0.410629
0.431101
0.452161
0.473958
0.496607
0.520188
0.544768
0.570395
0.597107
0.624932
0.653894
0.684007
0.715285
0.747736
0.781367
0.816178
0.852167
0.889327
0.927648
0.967114
1.0077
1.0494
1.09216
1.13597
1.18079
1.22658
1.2733
1.32091
1.36936
1.41861
1.46861
1.51931
1.57066
1.62262
1.67513
1.72815
1.7816
1.83543
1.88961
1.94407
1.99876
2.05363
2.10862
2.16369
2.21878
2.27384
2.32882
2.38367
2.43835
2.49281
2.547
2.60088
2.65441
2.70749
2.76005
2.81205
2.86346
2.91423
2.96433
3.01373
3.06239
3.11028
3.15736
3.20361
3.249
3.29348
3.33704
3.37962
3.42121
3.46178
3.5013
3.53974
3.57708
3.6133
3.64837
3.68227
3.71497
3.74646
3.7767
3.80568
3.83337
3.85974
3.88478
3.90846
3.93076
3.95166
3.97114
3.98917
4.00575
4.02083
4.03442
4.04647
4.05699
4.06594
4.07331
4.07908
4.08324
4.08576
4.08665
4.08587
4.08343
4.0793
4.07349
4.06598
4.05677
4.04585
4.03323
4.0189
4.00286
3.98511
3.96567
3.94454
3.92172
3.89724
3.87109
3.84329
3.81386
3.78282
3.75017
3.71593
3.68013
3.64277
3.60387
3.56345
3.52152
3.4781
3.43321
3.38686
3.33906
3.28985
3.23923
3.18724
3.13389
3.07922
3.02327
2.96606
2.90765
2.8481
2.78746
2.72582
2.66325
2.59986
2.53577
2.47109
2.40596
2.34054
2.27499
2.20949
2.14423
2.0794
2.01522
1.95188
1.88961
1.8286
1.76905
1.71116
1.65508
1.60095
1.54891
1.49902
1.45136
1.40594
1.36277
1.32181
1.28301
1.24628
1.21152
1.17859
1.14733
1.11755
0.106392
0.173818
0.218428
0.25113
0.278215
0.30223
0.324455
0.345645
0.366304
0.386797
0.407402
0.428342
0.449797
0.471921
0.494842
0.518612
0.543324
0.569051
0.595854
0.623784
0.652884
0.683191
0.714735
0.747541
0.781629
0.817011
0.853695
0.891681
0.930964
0.971533
1.01337
1.05645
1.10074
1.1462
1.19281
1.24051
1.28926
1.339
1.38968
1.44125
1.49365
1.54682
1.60069
1.65521
1.71032
1.76595
1.82203
1.87851
1.93532
1.9924
2.04969
2.10713
2.16466
2.22223
2.27977
2.33724
2.39457
2.45173
2.50865
2.56529
2.62161
2.67756
2.73306
2.78802
2.84238
2.89613
2.94921
3.0016
3.05325
3.10414
3.15422
3.20348
3.25186
3.29935
3.34591
3.39152
3.43614
3.47974
3.52229
3.56377
3.60414
3.6434
3.68151
3.71844
3.75418
3.7887
3.82197
3.85398
3.88469
3.91409
3.94216
3.96886
3.99418
4.01808
4.04056
4.06157
4.08111
4.09915
4.11566
4.13062
4.14402
4.15581
4.16599
4.17454
4.18142
4.18662
4.19011
4.19189
4.19193
4.19021
4.18672
4.18145
4.17437
4.16548
4.15477
4.14223
4.12786
4.11165
4.09359
4.0737
4.05196
4.02839
4.003
3.97578
3.94675
3.91593
3.88332
3.84894
3.81281
3.77494
3.73536
3.69408
3.65112
3.60652
3.56028
3.51243
3.46301
3.41203
3.35953
3.30555
3.25012
3.19329
3.1351
3.07561
3.01487
2.95297
2.88996
2.82595
2.76102
2.69529
2.62887
2.56191
2.49453
2.4269
2.35918
2.29154
2.22417
2.15726
2.09101
2.0256
1.96126
1.89816
1.83652
1.77651
1.71831
1.66207
1.60792
1.55598
1.50632
1.45899
1.41401
1.37137
1.33103
1.29293
1.25696
1.22301
1.19095
1.16062
1.13185
1.10445
0.103156
0.166724
0.210709
0.24342
0.270761
0.295187
0.317932
0.33972
0.361026
0.382188
0.403462
0.425053
0.447129
0.469831
0.493276
0.517562
0.542779
0.569011
0.596331
0.624806
0.654496
0.685453
0.717723
0.751343
0.786343
0.822747
0.860568
0.899811
0.940475
0.982547
1.02601
1.07083
1.11698
1.16441
1.21309
1.26295
1.31394
1.36599
1.41905
1.47304
1.5279
1.58355
1.63993
1.69695
1.75456
1.81267
1.87122
1.93013
1.98933
2.04876
2.10835
2.16803
2.22774
2.28742
2.34701
2.40645
2.4657
2.52469
2.58338
2.64172
2.69968
2.75716
2.81406
2.87034
2.92598
2.98093
3.03515
3.08861
3.14128
3.19312
3.2441
3.2942
3.34338
3.3916
3.43886
3.4851
3.53032
3.57447
3.61754
3.65949
3.70031
3.73997
3.77844
3.8157
3.85173
3.88651
3.92
3.95219
3.98306
4.01257
4.04071
4.06745
4.09277
4.11663
4.13903
4.15992
4.17928
4.1971
4.21334
4.22797
4.24098
4.25233
4.26201
4.26997
4.27621
4.28069
4.28338
4.28428
4.28334
4.28056
4.27591
4.26937
4.26093
4.25056
4.23826
4.22401
4.20781
4.18963
4.16949
4.14737
4.12327
4.0972
4.06915
4.03914
4.00718
3.97326
3.93742
3.89966
3.85999
3.81845
3.77505
3.72982
3.68278
3.63396
3.58339
3.53111
3.47715
3.42156
3.36437
3.30566
3.24546
3.18385
3.1209
3.05669
2.99131
2.92485
2.85743
2.78916
2.72018
2.65064
2.58067
2.51046
2.44018
2.37001
2.30014
2.23076
2.16208
2.09429
2.0276
1.96219
1.89827
1.83602
1.77561
1.71719
1.66091
1.60689
1.55522
1.50597
1.45918
1.41485
1.37297
1.33348
1.29631
1.26135
1.22847
1.19752
1.16836
1.1408
1.11467
1.0898
0.099468
0.159788
0.203071
0.235768
0.263355
0.288196
0.311493
0.33395
0.356027
0.378048
0.400254
0.422837
0.445952
0.469733
0.494292
0.51973
0.546139
0.573605
0.602205
0.632013
0.663093
0.695505
0.729298
0.764517
0.801193
0.839352
0.879007
0.920162
0.96281
1.00694
1.05251
1.09951
1.14788
1.19757
1.24853
1.3007
1.354
1.40836
1.46372
1.51999
1.57709
1.63495
1.69349
1.75262
1.81227
1.87236
1.93281
1.99355
2.05451
2.11561
2.17679
2.23798
2.29912
2.36015
2.421
2.48163
2.54198
2.60201
2.66167
2.72091
2.77964
2.83776
2.89525
2.95207
3.00818
3.06355
3.11815
3.17194
3.22489
3.27697
3.32816
3.37843
3.42774
3.47607
3.5234
3.5697
3.61494
3.65909
3.70214
3.74406
3.78482
3.82441
3.86279
3.89994
3.93585
3.97048
4.00382
4.03583
4.06651
4.09581
4.12372
4.1502
4.17524
4.19881
4.22087
4.24141
4.26039
4.27778
4.29357
4.30771
4.32017
4.33094
4.33998
4.34725
4.35274
4.3564
4.35822
4.35816
4.3562
4.35231
4.34647
4.33865
4.32882
4.31698
4.30309
4.28715
4.26914
4.24904
4.22684
4.20255
4.17615
4.14764
4.11702
4.08429
4.04947
4.01257
3.97358
3.93254
3.88946
3.84436
3.79726
3.74821
3.69721
3.64433
3.58958
3.53302
3.4747
3.41468
3.35301
3.28976
3.22502
3.15888
3.09142
3.02276