/*--------------------------------*- C++ -*----------------------------------*\
| =========                 |                                                 |
| \\      /  F ield         | OpenFOAM: The Open Source CFD Toolbox           |
|  \\    /   O peration     | Version:  2412                                  |
|   \\  /    A nd           | Website:  www.openfoam.com                      |
|    \\/     M anipulation  |                                                 |
\*---------------------------------------------------------------------------*/
FoamFile
{
    version     2.0;
    format      ascii;
    arch        "LSB;label=32;scalar=64";
    class       volScalarField;
    location    "0.08";
    object      nut;
}
// * * * * * * * * * * * * * * * * * * * * * * * * * * * * * * * * * * * * * //

dimensions      [0 2 -1 0 0 0 0];

internalField   nonuniform List<scalar> 
12225
(
2.015e-05
2.24857e-05
2.4749e-05
2.63713e-05
2.75877e-05
2.85139e-05
2.92319e-05
2.97975e-05
3.02478e-05
3.06092e-05
3.09009e-05
3.11371e-05
3.13284e-05
3.14827e-05
3.16057e-05
3.17011e-05
3.17731e-05
3.18436e-05
0.000167791
0.000185427
0.000202596
0.000213785
0.000221144
0.000225983
0.000229
0.000230718
0.000231512
0.000231641
0.00023129
0.000230592
0.000229647
0.000228528
0.000227293
0.000225969
0.000224712
0.000224097
0.000338328
0.000365993
0.00039936
0.000424404
0.000442776
0.000456135
0.000465644
0.000472244
0.000476652
0.000479404
0.000480899
0.000481441
0.000481257
0.000480523
0.000479372
0.000477908
0.000476336
0.000475595
0.000480631
0.000521769
0.000570119
0.000608387
0.000637798
0.000660204
0.000677092
0.000689684
0.000698944
0.000705615
0.000710269
0.000713347
0.000715193
0.000716073
0.000716196
0.000715738
0.000714948
0.000714577
0.000593569
0.000650965
0.000713487
0.000763781
0.000803278
0.000834116
0.000858081
0.000876621
0.000890885
0.000901772
0.000909984
0.000916072
0.000920471
0.000923525
0.000925509
0.000926655
0.000927237
0.000927797
0.000684415
0.000756653
0.000831946
0.000893049
0.00094162
0.000980096
0.00101055
0.00103465
0.00105368
0.00106869
0.00108046
0.00108965
0.00109675
0.00110218
0.00110627
0.00110929
0.00111153
0.00111338
0.000759753
0.000842835
0.000928287
0.000998642
0.00105521
0.00110053
0.00113686
0.00116605
0.00118952
0.00120841
0.00122361
0.00123582
0.00124561
0.00125345
0.00125971
0.0012647
0.00126869
0.001272
0.000823621
0.00091336
0.00100524
0.0010826
0.00114577
0.00119701
0.00123857
0.00127236
0.00129991
0.00132242
0.00134085
0.00135596
0.00136837
0.00137859
0.00138701
0.00139397
0.00139974
0.00140454
0.000876998
0.00097091
0.00106529
0.00114672
0.00121456
0.00127046
0.0013164
0.00135421
0.00138542
0.00141126
0.00143271
0.00145058
0.00146551
0.00147804
0.00148859
0.0014975
0.00150502
0.00151132
0.000918254
0.00101593
0.00110995
0.00119241
0.00126253
0.0013214
0.00137056
0.00141158
0.00144588
0.00147464
0.00149884
0.00151927
0.0015366
0.00155136
0.00156398
0.00157482
0.00158407
0.00159184
0.000944749
0.00104624
0.0011388
0.00122006
0.00129015
0.00135004
0.00140091
0.00144403
0.00148062
0.00151173
0.00153826
0.00156097
0.00158049
0.00159734
0.00161196
0.00162466
0.00163562
0.00164482
0.000953929
0.00105647
0.00114713
0.00122621
0.0012948
0.00135414
0.00140529
0.00144932
0.00148722
0.0015199
0.00154814
0.00157263
0.00159395
0.00161258
0.00162891
0.00164325
0.00165573
0.00166624
0.000951547
0.0010519
0.0011407
0.00121792
0.00128483
0.00134291
0.00139339
0.00143728
0.00147549
0.00150884
0.00153801
0.00156361
0.00158615
0.00160608
0.00162375
0.00163941
0.00165315
0.00166474
0.000937269
0.00102694
0.00110963
0.00118335
0.00124795
0.00130436
0.00135365
0.00139681
0.00143469
0.00146808
0.0014976
0.0015238
0.00154715
0.00156803
0.00158674
0.00160352
0.00161838
0.00163095
0.00091407
0.000982526
0.00105002
0.00111404
0.0011728
0.00122571
0.00127286
0.00131469
0.00135177
0.00138471
0.00141408
0.00144037
0.001464
0.00148533
0.00150464
0.00152213
0.00153777
0.00155105
0.000888186
0.000929375
0.000972544
0.00101674
0.0010606
0.00110295
0.00114298
0.00118019
0.00121437
0.00124554
0.00127388
0.00129961
0.00132299
0.00134429
0.00136373
0.00138145
0.00139747
0.00141118
0.000866168
0.00088291
0.000901469
0.000921843
0.000943736
0.000966753
0.000990466
0.00101443
0.00103821
0.00106145
0.00108388
0.00110532
0.00112564
0.00114476
0.00116269
0.00117942
0.00119489
0.00120868
0.000853648
0.000856465
0.000860486
0.000865728
0.000872143
0.000879666
0.000888226
0.000897735
0.00090808
0.00091913
0.000930747
0.00094279
0.000955122
0.000967621
0.000980164
0.000992632
0.0010049
0.00101675
0.000856836
0.000863036
0.000870427
0.000879015
0.000888687
0.000899288
0.000910652
0.000922593
0.000934917
0.000947437
0.000959988
0.000972429
0.00098465
0.000996565
0.00100812
0.00101926
0.00102994
0.00103994
0.00087901
0.000910083
0.00094299
0.000977077
0.00101135
0.00104489
0.00107702
0.00110724
0.00113527
0.001161
0.00118446
0.00120575
0.00122503
0.00124247
0.00125824
0.00127251
0.0012854
0.00129698
0.000912423
0.000978623
0.00104328
0.00110413
0.00115966
0.00120941
0.00125353
0.00129245
0.00132669
0.00135681
0.00138333
0.00140673
0.0014274
0.0014457
0.00146194
0.00147637
0.0014892
0.00150073
0.000944649
0.00103936
0.00112414
0.00119815
0.00126207
0.00131724
0.00136488
0.00140605
0.00144166
0.00147248
0.00149921
0.00152242
0.00154262
0.00156022
0.00157558
0.001589
0.00160074
0.00161108
0.00095297
0.00105495
0.00114494
0.00122286
0.00128968
0.00134679
0.00139546
0.00143682
0.00147197
0.00150186
0.00152731
0.00154902
0.00156757
0.00158344
0.00159703
0.00160869
0.00161868
0.00162724
0.000919765
0.00101578
0.00110711
0.00118655
0.00125366
0.00130983
0.00135662
0.00139555
0.00142798
0.00145506
0.0014777
0.00149666
0.00151256
0.00152591
0.00153711
0.00154652
0.00155439
0.00156092
0.000847924
0.000936217
0.00102591
0.00110193
0.0011644
0.00121544
0.00125709
0.00129112
0.00131899
0.00134186
0.00136064
0.00137608
0.00138877
0.00139918
0.00140771
0.00141467
0.00142031
0.00142478
0.000748244
0.000825348
0.00090584
0.00097201
0.00102523
0.00106796
0.00110226
0.00112982
0.00115199
0.00116982
0.00118415
0.00119563
0.00120479
0.00121206
0.00121778
0.00122223
0.00122561
0.00122806
0.00062084
0.0006794
0.000743807
0.000795906
0.000837076
0.000869527
0.000895051
0.000915078
0.000930745
0.000942946
0.000952383
0.000959607
0.000965054
0.000969071
0.000971933
0.000973863
0.000975033
0.00097556
0.000453207
0.000491081
0.000536515
0.000572231
0.000599363
0.000619981
0.000635564
0.000647225
0.000655845
0.000662105
0.000666525
0.000669506
0.000671361
0.000672331
0.000672609
0.000672343
0.000671652
0.000670635
0.00023657
0.000259231
0.000284034
0.000301438
0.000313164
0.000321246
0.000326758
0.000330377
0.000332605
0.000333807
0.000334246
0.000334116
0.000333561
0.000332692
0.000331592
0.000330325
0.000328941
0.000327503
2.7242e-05
3.0171e-05
3.32399e-05
3.54419e-05
3.7055e-05
3.82624e-05
3.91815e-05
3.98943e-05
4.04552e-05
4.09011e-05
4.12587e-05
4.15475e-05
4.17821e-05
4.19736e-05
4.21305e-05
4.22594e-05
4.23652e-05
4.24528e-05
6.89416e-06
1.94111e-05
2.20058e-05
2.37141e-05
2.48393e-05
2.55611e-05
2.60686e-05
2.66839e-05
2.73414e-05
2.80515e-05
2.88498e-05
2.97703e-05
3.08765e-05
3.23806e-05
3.4045e-05
3.58049e-05
3.76184e-05
3.94684e-05
4.13395e-05
4.32157e-05
4.50834e-05
4.69346e-05
4.87692e-05
5.05561e-05
5.22856e-05
5.39542e-05
5.55606e-05
5.71052e-05
5.85895e-05
6.00159e-05
6.1387e-05
6.27062e-05
6.39768e-05
6.52022e-05
6.63857e-05
6.75306e-05
6.86398e-05
6.97163e-05
7.07625e-05
7.17807e-05
7.27732e-05
7.37417e-05
7.46879e-05
7.56132e-05
7.65187e-05
7.74056e-05
7.82748e-05
7.91269e-05
7.99627e-05
8.07825e-05
8.15869e-05
8.23761e-05
8.31504e-05
8.391e-05
8.46549e-05
8.53853e-05
8.61012e-05
8.68026e-05
8.74894e-05
8.81617e-05
8.88192e-05
8.9462e-05
9.00898e-05
9.07026e-05
9.13004e-05
9.1883e-05
9.24506e-05
9.30034e-05
9.35424e-05
9.40691e-05
9.45865e-05
9.50867e-05
9.55689e-05
9.60339e-05
9.6482e-05
9.69134e-05
9.73281e-05
9.77261e-05
9.81072e-05
9.84714e-05
9.88187e-05
9.9149e-05
9.94623e-05
9.97586e-05
0.000100038
0.0001003
0.000100546
0.000100774
0.000100986
0.000101181
0.000101359
0.000101521
0.000101666
0.000101795
0.000101908
0.000102006
0.000102087
0.000102154
0.000102205
0.000102241
0.000102263
0.00010227
0.000102263
0.000102243
0.000102209
0.000102163
0.000102103
0.000102032
0.000101948
0.000101853
0.000101747
0.00010163
0.000101502
0.000101365
0.000101218
0.000101061
0.000100895
0.000100721
0.000100538
0.000100347
0.000100148
9.9941e-05
9.9726e-05
9.95032e-05
9.92724e-05
9.90336e-05
9.87866e-05
9.8531e-05
9.82664e-05
9.79922e-05
9.77079e-05
9.74127e-05
9.71056e-05
9.67855e-05
9.64513e-05
9.61017e-05
9.57348e-05
9.53494e-05
9.4943e-05
9.45137e-05
9.40692e-05
9.39299e-05
9.39272e-05
9.39303e-05
9.39244e-05
9.39044e-05
9.38668e-05
9.38083e-05
9.37257e-05
9.3616e-05
9.34761e-05
9.33033e-05
9.30947e-05
9.28478e-05
9.25604e-05
9.22305e-05
9.18567e-05
9.14378e-05
9.09731e-05
9.04626e-05
8.99066e-05
8.9306e-05
8.8662e-05
8.79765e-05
8.72516e-05
8.64896e-05
8.5693e-05
8.48645e-05
8.40064e-05
8.31208e-05
8.22093e-05
8.12727e-05
8.03105e-05
7.93197e-05
7.82946e-05
7.72206e-05
7.60612e-05
7.48273e-05
7.34447e-05
7.17165e-05
1.01448e-05
4.3136e-05
8.25341e-05
0.000114737
0.000138241
0.000154824
0.000165844
0.000170666
0.000173075
0.00017539
0.000178648
0.000182874
0.000187661
0.000192586
0.000197608
0.000202908
0.000208722
0.000215268
0.000222699
0.00023108
0.000240403
0.000250609
0.000261612
0.000273321
0.000285622
0.000298394
0.000311512
0.000324856
0.000338315
0.000351792
0.000365203
0.000378482
0.000391579
0.000404458
0.000417098
0.000429487
0.000441623
0.000453511
0.000465161
0.000476587
0.000487802
0.000498824
0.000509667
0.000520348
0.000530879
0.000541274
0.000551546
0.000561702
0.000571753
0.000581705
0.000591564
0.000601335
0.00061102
0.000620622
0.000630142
0.000639581
0.000648939
0.000658213
0.000667405
0.00067651
0.000685528
0.000694455
0.000703289
0.000712025
0.000720658
0.000729181
0.000737581
0.000745841
0.000753931
0.000761813
0.000769143
0.000776145
0.000782977
0.000789669
0.000796224
0.000802641
0.000808919
0.000815054
0.000821043
0.000826884
0.000832574
0.000838109
0.000843487
0.000848706
0.000853763
0.000858655
0.000863381
0.000867939
0.000872328
0.000876545
0.00088059
0.000884461
0.00088816
0.000891683
0.000895034
0.00089821
0.000901213
0.000904045
0.000906705
0.000909197
0.000911521
0.000913681
0.000915679
0.000917519
0.000919203
0.000920737
0.000922124
0.00092337
0.000924479
0.000925458
0.000926313
0.00092705
0.000927677
0.0009282
0.000928627
0.000928966
0.000929226
0.000929414
0.00092954
0.000929612
0.000929638
0.000929627
0.000929587
0.000929526
0.000929451
0.000929369
0.000929286
0.000929206
0.000929133
0.00092907
0.000929017
0.000928973
0.000928933
0.000928892
0.000928835
0.00092875
0.000928602
0.000928339
0.000927824
0.000926608
0.000923543
0.000918249
0.00091207
0.000905394
0.000898292
0.000890761
0.000882781
0.000874322
0.000865354
0.000855848
0.000845773
0.000835104
0.000823819
0.000811899
0.000799333
0.000786114
0.000772244
0.000757734
0.000742602
0.000726874
0.000710588
0.000693786
0.000676522
0.000658853
0.000640844
0.000622561
0.000604075
0.000585453
0.000566764
0.00054807
0.000529426
0.000510879
0.000492461
0.000474183
0.000456031
0.000437886
0.000417556
0.000393406
0.00036431
0.000334115
1.23662e-05
6.754e-05
0.000134897
0.000189495
0.000228851
0.000255095
0.000270948
0.000280179
0.000286132
0.000291357
0.000297385
0.000304825
0.000313733
0.000324002
0.000335616
0.000348687
0.000363392
0.000379898
0.0003983
0.000418595
0.000440684
0.000464391
0.000489488
0.000515722
0.000542824
0.000570529
0.000598591
0.000626788
0.000654934
0.000682876
0.000710498
0.000737714
0.000764467
0.000790726
0.000816478
0.000841727
0.000866484
0.000890774
0.000914621
0.000938056
0.000961109
0.000983809
0.00100619
0.00102826
0.00105007
0.00107162
0.00109294
0.00111404
0.00113493
0.00115563
0.00117614
0.00119648
0.00121663
0.00123662
0.00125642
0.00127605
0.00129551
0.00131478
0.00133386
0.00135275
0.00137144
0.00138992
0.00140817
0.00142619
0.00144397
0.00146147
0.00147868
0.00149557
0.00151211
0.00152809
0.00154353
0.00155856
0.00157326
0.00158766
0.00160176
0.00161555
0.00162905
0.00164223
0.0016551
0.00166764
0.00167985
0.00169173
0.00170326
0.00171445
0.00172527
0.00173574
0.00174585
0.00175558
0.00176495
0.00177393
0.00178254
0.00179076
0.00179859
0.00180604
0.00181311
0.00181978
0.00182606
0.00183196
0.00183748
0.0018426
0.00184735
0.00185172
0.00185572
0.00185935
0.00186262
0.00186554
0.00186811
0.00187033
0.00187223
0.00187381
0.00187508
0.00187605
0.00187673
0.00187715
0.0018773
0.00187721
0.00187688
0.00187634
0.0018756
0.00187467
0.00187357
0.00187232
0.00187092
0.00186939
0.00186774
0.00186598
0.00186413
0.00186218
0.00186015
0.00185803
0.00185583
0.00185353
0.00185113
0.00184861
0.00184593
0.00184307
0.00183995
0.00183644
0.0018323
0.00182697
0.00181963
0.00181015
0.00179937
0.00178767
0.00177516
0.00176184
0.00174766
0.00173258
0.00171653
0.00169945
0.00168128
0.00166197
0.00164145
0.00161971
0.00159669
0.00157239
0.00154681
0.00151994
0.00149184
0.00146253
0.00143208
0.00140058
0.00136811
0.0013348
0.00130074
0.00126608
0.00123094
0.00119544
0.00115973
0.0011239
0.00108806
0.0010523
0.00101667
0.000981173
0.000945756
0.000910212
0.000873206
0.000830659
0.000779951
0.000719802
1.40437e-05
9.53113e-05
0.000184137
0.000252048
0.000300239
0.000332778
0.000354242
0.000368655
0.000379437
0.000389233
0.000399811
0.000412144
0.000426659
0.000443513
0.000462788
0.000484561
0.000508897
0.000535811
0.000565236
0.000597009
0.000630884
0.000666555
0.00070368
0.000741911
0.000780911
0.000820369
0.000860013
0.000899611
0.000938976
0.000977963
0.00101646
0.00105441
0.00109175
0.00112846
0.00116455
0.00120001
0.00123488
0.00126918
0.00130294
0.00133619
0.00136898
0.00140132
0.00143325
0.0014648
0.001496
0.00152686
0.00155741
0.00158767
0.00161764
0.00164735
0.00167679
0.00170597
0.00173489
0.00176356
0.00179197
0.00182013
0.00184801
0.00187562
0.00190296
0.00192999
0.00195673
0.00198315
0.00200923
0.00203496
0.00206032
0.00208529
0.00210984
0.00213394
0.00215756
0.00218053
0.00220293
0.00222485
0.00224632
0.00226735
0.00228796
0.00230813
0.00232787
0.00234715
0.00236599
0.00238436
0.00240225
0.00241966
0.00243657
0.00245299
0.00246889
0.00248428
0.00249914
0.00251346
0.00252725
0.00254049
0.00255317
0.0025653
0.00257687
0.00258787
0.0025983
0.00260816
0.00261745
0.00262616
0.00263431
0.00264188
0.00264888
0.00265532
0.0026612
0.00266651
0.00267128
0.0026755
0.00267918
0.00268233
0.00268497
0.0026871
0.00268874
0.00268989
0.00269058
0.00269081
0.00269061
0.00268999
0.00268897
0.00268756
0.00268579
0.00268366
0.0026812
0.00267843
0.00267535
0.002672
0.00266837
0.00266449
0.00266036
0.00265599
0.00265139
0.00264654
0.00264147
0.00263614
0.00263055
0.00262467
0.00261845
0.00261186
0.0026048
0.00259711
0.00258852
0.00257864
0.002567
0.00255355
0.00253869
0.00252265
0.00250553
0.0024873
0.00246792
0.00244733
0.00242544
0.00240218
0.00237746
0.00235122
0.00232339
0.00229391
0.00226275
0.00222989
0.00219531
0.00215903
0.0021211
0.00208156
0.00204051
0.00199805
0.0019543
0.00190941
0.00186353
0.00181682
0.00176946
0.00172162
0.00167347
0.00162515
0.00157681
0.00152855
0.00148044
0.00143251
0.0013847
0.00133679
0.00128792
0.00123486
0.00117488
0.00110616
1.53068e-05
0.000116469
0.000223143
0.000303207
0.000360275
0.000400209
0.000428129
0.000448401
0.000464643
0.000479663
0.000495445
0.000513236
0.000533725
0.000557243
0.00058392
0.000613774
0.000646738
0.000682664
0.000721327
0.000762431
0.000805627
0.000850539
0.000896785
0.000943994
0.000991829
0.00103999
0.00108821
0.00113629
0.00118405
0.00123136
0.00127813
0.00132429
0.00136981
0.00141466
0.00145884
0.00150236
0.00154524
0.0015875
0.00162917
0.00167029
0.00171087
0.00175096
0.00179059
0.00182977
0.00186853
0.0019069
0.00194489
0.00198252
0.0020198
0.00205675
0.00209336
0.00212964
0.00216559
0.00220122
0.00223652
0.00227148
0.0023061
0.00234037
0.00237428
0.00240782
0.00244096
0.00247371
0.00250603
0.00253792
0.00256935
0.0026003
0.00263075
0.00266069
0.00268999
0.00271864
0.0027467
0.00277421
0.00280119
0.00282764
0.00285357
0.00287898
0.00290385
0.00292818
0.00295195
0.00297516
0.00299778
0.00301982
0.00304126
0.00306208
0.00308228
0.00310184
0.00312076
0.00313903
0.00315663
0.00317356
0.0031898
0.00320535
0.00322021
0.00323436
0.00324781
0.00326054
0.00327255
0.00328384
0.00329441
0.00330425
0.00331336
0.00332176
0.00332942
0.00333637
0.0033426
0.00334812
0.00335293
0.00335705
0.00336047
0.00336322
0.0033653
0.00336673
0.00336751
0.00336766
0.0033672
0.00336614
0.00336451
0.00336231
0.00335957
0.0033563
0.00335252
0.00334825
0.00334351
0.00333831
0.00333267
0.00332659
0.00332009
0.00331319
0.00330587
0.00329813
0.00328999
0.00328142
0.00327239
0.00326291
0.00325292
0.00324236
0.00323113
0.00321908
0.00320601
0.00319164
0.0031757
0.00315817
0.0031392
0.00311889
0.0030973
0.00307441
0.00305015
0.00302445
0.00299724
0.00296842
0.00293792
0.00290564
0.00287153
0.00283553
0.00279759
0.0027577
0.00271586
0.00267208
0.00262641
0.00257893
0.00252973
0.00247893
0.00242669
0.00237317
0.00231854
0.00226301
0.00220677
0.00215003
0.00209296
0.00203576
0.00197858
0.00192155
0.00186476
0.00180826
0.00175201
0.00169583
0.00163911
0.00157965
0.00151501
0.00144441
1.61759e-05
0.000133253
0.000253685
0.000344835
0.000411277
0.000459326
0.00049447
0.000521309
0.000543619
0.000564362
0.000585706
0.000609103
0.000635421
0.000665105
0.00069831
0.000735
0.000775014
0.000818092
0.000863912
0.000912105
0.000962277
0.00101403
0.00106699
0.0011208
0.00117513
0.00122972
0.00128433
0.00133875
0.00139285
0.00144649
0.0014996
0.0015521
0.00160396
0.00165515
0.00170568
0.00175554
0.00180474
0.00185331
0.00190126
0.00194862
0.00199542
0.00204168
0.00208742
0.00213268
0.00217747
0.00222181
0.00226572
0.00230921
0.00235229
0.00239497
0.00243726
0.00247916
0.00252068
0.0025618
0.00260254
0.00264288
0.00268281
0.00272233
0.00276142
0.00280007
0.00283828
0.00287602
0.00291328
0.00295003
0.00298627
0.00302198
0.00305713
0.0030917
0.00312558
0.0031588
0.00319141
0.00322342
0.00325484
0.00328569
0.00331596
0.00334564
0.00337472
0.0034032
0.00343105
0.00345828
0.00348485
0.00351077
0.00353601
0.00356056
0.00358441
0.00360755
0.00362996
0.00365163
0.00367254
0.0036927
0.00371207
0.00373066
0.00374845
0.00376543
0.0037816
0.00379694
0.00381145
0.00382512
0.00383794
0.00384992
0.00386104
0.00387131
0.00388071
0.00388926
0.00389695
0.00390378
0.00390975
0.00391488
0.00391916
0.0039226
0.00392521
0.003927
0.00392798
0.00392817
0.00392756
0.00392619
0.00392406
0.00392119
0.00391759
0.00391329
0.00390829
0.00390262
0.00389629
0.00388931
0.0038817
0.00387347
0.00386464
0.0038552
0.00384517
0.00383452
0.0038233
0.00381146
0.003799
0.0037859
0.00377209
0.00375754
0.00374214
0.00372579
0.00370832
0.00368955
0.00366933
0.0036476
0.0036244
0.00359979
0.00357375
0.00354626
0.00351727
0.00348669
0.00345444
0.00342045
0.00338463
0.0033469
0.00330721
0.00326549
0.00322172
0.00317588
0.00312798
0.00307804
0.00302613
0.00297233
0.00291676
0.00285954
0.00280084
0.00274085
0.00267977
0.0026178
0.00255517
0.0024921
0.00242878
0.00236543
0.0023022
0.00223926
0.0021767
0.00211458
0.00205289
0.00199151
0.00193
0.0018671
0.0018002
0.00172976
1.70142e-05
0.000143807
0.00027588
0.000377602
0.000453437
0.000509951
0.000552824
0.000586765
0.000615628
0.000642459
0.000669542
0.000698465
0.000730222
0.000765344
0.00080402
0.000846204
0.000891695
0.000940191
0.000991331
0.00104472
0.00109998
0.0011567
0.00121452
0.00127313
0.00133222
0.00139154
0.00145087
0.00151004
0.0015689
0.00162734
0.00168527
0.00174263
0.00179938
0.00185549
0.00191094
0.00196573
0.00201987
0.00207337
0.00212624
0.0021785
0.00223017
0.00228128
0.00233183
0.00238186
0.00243138
0.00248041
0.00252896
0.00257704
0.00262467
0.00267185
0.00271859
0.0027649
0.00281076
0.00285619
0.00290118
0.00294573
0.00298982
0.00303344
0.0030766
0.00311928
0.00316146
0.00320313
0.00324428
0.00328489
0.00332494
0.00336442
0.00340332
0.00344157
0.00347913
0.00351604
0.00355232
0.00358798
0.00362303
0.00365748
0.00369131
0.00372452
0.0037571
0.00378904
0.00382032
0.00385093
0.00388085
0.00391006
0.00393856
0.00396633
0.00399334
0.00401959
0.00404506
0.00406973
0.00409358
0.00411661
0.0041388
0.00416013
0.00418059
0.00420016
0.00421884
0.0042366
0.00425344
0.00426935
0.00428432
0.00429834
0.0043114
0.00432349
0.0043346
0.00434474
0.00435389
0.00436205
0.00436923
0.00437542
0.00438062
0.00438483
0.00438807
0.00439032
0.00439161
0.00439193
0.0043913
0.00438972
0.00438722
0.00438379
0.00437946
0.00437423
0.00436813
0.00436115
0.00435333
0.00434468
0.00433519
0.00432489
0.00431378
0.00430189
0.00428921
0.00427574
0.00426149
0.00424644
0.00423057
0.00421388
0.00419631
0.00417782
0.00415833
0.00413776
0.00411599
0.0040929
0.00406838
0.00404238
0.00401489
0.00398591
0.00395542
0.00392338
0.00388972
0.00385439
0.00381732
0.00377841
0.00373761
0.00369485
0.00365008
0.00360324
0.00355433
0.00350333
0.00345027
0.00339518
0.00333815
0.00327925
0.00321863
0.00315643
0.00309282
0.00302801
0.00296221
0.00289564
0.00282853
0.00276111
0.0026936
0.00262621
0.00255911
0.00249247
0.00242639
0.00236096
0.00229616
0.00223192
0.00216794
0.00210338
0.00203614
0.0019669
1.78971e-05
0.000148221
0.000289943
0.000401632
0.000486707
0.000551761
0.000602566
0.00064387
0.00067953
0.000712607
0.000745431
0.000779661
0.00081638
0.000856194
0.000899349
0.000945833
0.000995459
0.00104794
0.00110291
0.00116001
0.00121886
0.00127908
0.00134036
0.00140237
0.00146486
0.00152759
0.00159035
0.00165298
0.00171534
0.00177732
0.00183885
0.00189984
0.00196026
0.00202006
0.00207924
0.00213778
0.00219567
0.00225293
0.00230955
0.00236556
0.00242097
0.00247578
0.00253003
0.00258372
0.00263687
0.0026895
0.00274161
0.00279323
0.00284436
0.00289501
0.00294518
0.00299488
0.0030441
0.00309286
0.00314115
0.00318895
0.00323627
0.0032831
0.00332944
0.00337526
0.00342056
0.00346532
0.00350954
0.0035532
0.00359629
0.00363879
0.00368069
0.0037219
0.00376244
0.00380235
0.00384163
0.0038803
0.00391836
0.0039558
0.00399262
0.00402881
0.00406436
0.00409924
0.00413346
0.00416699
0.00419981
0.00423191
0.00426326
0.00429386
0.00432368
0.00435271
0.00438092
0.0044083
0.00443483
0.00446048
0.00448525
0.00450912
0.00453206
0.00455405
0.00457508
0.00459514
0.00461421
0.00463227
0.00464931
0.00466531
0.00468027
0.00469416
0.00470698
0.00471871
0.00472935
0.00473888
0.00474731
0.00475462
0.00476081
0.00476587
0.00476982
0.00477263
0.00477432
0.00477489
0.00477434
0.00477268
0.00476992
0.00476605
0.0047611
0.00475507
0.00474798
0.00473981
0.00473061
0.00472038
0.00470913
0.00469686
0.0046836
0.00466934
0.0046541
0.00463788
0.00462067
0.00460248
0.00458328
0.00456307
0.00454181
0.00451946
0.00449597
0.00447127
0.00444528
0.00441792
0.00438911
0.0043588
0.00432697
0.00429358
0.00425862
0.00422204
0.00418379
0.00414382
0.00410205
0.00405844
0.00401291
0.00396543
0.00391596
0.00386446
0.00381093
0.00375537
0.00369784
0.00363837
0.00357706
0.00351402
0.00344939
0.00338332
0.00331602
0.00324768
0.00317852
0.00310879
0.00303871
0.00296853
0.00289846
0.00282872
0.00275948
0.0026909
0.00262311
0.00255617
0.00249011
0.00242485
0.00236017
0.0022955
0.00222921
0.00216193
1.85572e-05
0.000149495
0.000298005
0.000418119
0.000511664
0.000584885
0.000643457
0.000692061
0.000734484
0.000773738
0.000812137
0.000851365
0.000892559
0.000936395
0.000983189
0.00103299
0.00108568
0.001141
0.00119864
0.00125827
0.00131954
0.00138212
0.0014457
0.00151001
0.00157479
0.00163982
0.00170493
0.00176994
0.00183473
0.00189919
0.00196323
0.00202679
0.00208981
0.00215226
0.0022141
0.00227533
0.00233593
0.00239591
0.00245526
0.00251399
0.00257212
0.00262965
0.0026866
0.00274299
0.00279882
0.00285411
0.00290888
0.00296313
0.00301687
0.00307011
0.00312286
0.00317512
0.00322689
0.00327818
0.00332898
0.00337929
0.0034291
0.00347841
0.00352721
0.00357549
0.00362324
0.00367044
0.0037171
0.00376319
0.00380871
0.00385363
0.00389794
0.00394158
0.00398459
0.004027
0.0040688
0.00411
0.0041506
0.0041906
0.00422999
0.00426876
0.00430689
0.00434436
0.00438116
0.00441728
0.00445268
0.00448736
0.00452129
0.00455445
0.00458683
0.00461839
0.00464913
0.00467901
0.00470802
0.00473614
0.00476333
0.00478959
0.00481488
0.00483918
0.00486248
0.00488475
0.00490598
0.00492613
0.0049452
0.00496317
0.00498001
0.0049957
0.00501024
0.00502359
0.00503575
0.0050467
0.00505643
0.00506492
0.00507218
0.00507818
0.00508292
0.00508639
0.00508859
0.00508951
0.00508916
0.00508753
0.00508462
0.00508044
0.00507499
0.00506827
0.0050603
0.00505108
0.00504063
0.00502894
0.00501603
0.00500192
0.0049866
0.00497009
0.00495239
0.0049335
0.00491344
0.00489219
0.00486975
0.00484611
0.00482124
0.00479512
0.00476771
0.00473897
0.00470883
0.00467724
0.00464415
0.00460952
0.00457331
0.00453551
0.00449608
0.00445498
0.00441218
0.00436764
0.0043213
0.00427312
0.00422307
0.00417112
0.00411724
0.00406142
0.00400368
0.00394406
0.00388259
0.00381935
0.00375446
0.00368802
0.0036202
0.00355118
0.00348114
0.00341031
0.00333891
0.00326719
0.00319537
0.00312371
0.00305242
0.0029817
0.00291174
0.00284268
0.00277464
0.00270768
0.00264183
0.00257702
0.00251308
0.00244955
0.00238525
0.00232058
1.90226e-05
0.000148564
0.000301314
0.000428127
0.000529062
0.00060976
0.000675632
0.000731192
0.000780096
0.000825255
0.000868924
0.000912775
0.000957971
0.00100525
0.00105499
0.00110734
0.00116224
0.0012195
0.00127888
0.00134009
0.00140283
0.00146681
0.00153175
0.00159739
0.0016635
0.00172989
0.00179638
0.00186281
0.00192906
0.00199502
0.0020606
0.00212574
0.00219039
0.00225449
0.00231803
0.00238098
0.00244333
0.00250507
0.0025662
0.00262673
0.00268667
0.00274602
0.00280481
0.00286303
0.0029207
0.00297784
0.00303446
0.00309056
0.00314616
0.00320127
0.00325589
0.00331002
0.00336367
0.00341685
0.00346954
0.00352174
0.00357346
0.00362468
0.0036754
0.0037256
0.00377528
0.00382443
0.00387304
0.00392109
0.00396858
0.00401549
0.00406178
0.00410747
0.00415258
0.00419711
0.00424108
0.00428448
0.00432732
0.00436957
0.00441124
0.0044523
0.00449274
0.00453254
0.00457169
0.00461016
0.00464793
0.00468498
0.00472129
0.00475684
0.00479159
0.00482554
0.00485865
0.0048909
0.00492226
0.00495272
0.00498223
0.00501079
0.00503835
0.0050649
0.0050904
0.00511483
0.00513818
0.0051604
0.00518149
0.00520141
0.00522014
0.00523766
0.00525393
0.00526894
0.00528266
0.00529508
0.00530617
0.00531593
0.00532433
0.00533136
0.00533699
0.00534121
0.00534402
0.0053454
0.00534535
0.00534387
0.00534094
0.00533656
0.00533074
0.00532348
0.00531477
0.00530462
0.00529303
0.00528002
0.00526559
0.00524974
0.00523249
0.00521384
0.00519379
0.00517236
0.00514954
0.00512534
0.00509976
0.00507278
0.0050444
0.0050146
0.00498336
0.00495065
0.00491643
0.00488066
0.00484332
0.00480437
0.0047638
0.00472158
0.00467769
0.00463211
0.00458481
0.00453576
0.00448495
0.00443234
0.00437793
0.0043217
0.00426365
0.00420381
0.0041422
0.00407888
0.00401392
0.00394742
0.00387949
0.00381029
0.00373996
0.00366872
0.00359676
0.0035243
0.00345159
0.00337885
0.00330634
0.00323428
0.00316288
0.00309235
0.00302285
0.00295451
0.00288745
0.00282171
0.0027573
0.00269415
0.0026321
0.00257079
0.00250932
0.00244786
1.93231e-05
0.00014602
0.000300812
0.000432607
0.000539706
0.00062699
0.000699481
0.000761445
0.000816357
0.000866993
0.000915517
0.000963562
0.0010123
0.0010625
0.00111462
0.00116888
0.00122529
0.00128376
0.00134411
0.00140611
0.0014695
0.00153403
0.00159946
0.00166557
0.00173214
0.00179898
0.00186593
0.00193285
0.00199963
0.00206614
0.00213233
0.0021981
0.00226342
0.00232825
0.00239254
0.00245628
0.00251946
0.00258207
0.00264411
0.00270558
0.00276649
0.00282685
0.00288667
0.00294597
0.00300475
0.00306302
0.00312081
0.00317811
0.00323494
0.00329131
0.00334722
0.00340268
0.00345769
0.00351224
0.00356634
0.00361998
0.00367315
0.00372586
0.00377808
0.00382982
0.00388106
0.00393179
0.00398199
0.00403167
0.0040808
0.00412937
0.00417739
0.00422486
0.00427181
0.00431824
0.00436415
0.00440954
0.00445439
0.00449869
0.00454244
0.00458562
0.0046282
0.00467017
0.0047115
0.00475217
0.00479216
0.00483145
0.00487001
0.00490781
0.00494483
0.00498105
0.00501643
0.00505095
0.00508459
0.00511731
0.00514908
0.00517988
0.00520966
0.0052384
0.00526607
0.00529264
0.00531809
0.00534237
0.00536547
0.00538735
0.005408
0.00542737
0.00544541
0.00546212
0.00547746
0.0054914
0.00550393
0.00551502
0.00552463
0.00553276
0.00553938
0.00554446
0.00554799
0.00554995
0.00555033
0.00554912
0.0055463
0.00554186
0.00553581
0.00552812
0.00551881
0.00550787
0.0054953
0.0054811
0.00546528
0.00544783
0.00542878
0.00540811
0.00538585
0.00536199
0.00533654
0.0053095
0.00528089
0.00525069
0.00521891
0.00518553
0.00515055
0.00511396
0.00507573
0.00503585
0.00499431
0.00495108
0.00490617
0.00485956
0.00481125
0.00476122
0.00470948
0.00465601
0.00460082
0.0045439
0.00448527
0.00442493
0.00436293
0.00429931
0.00423412
0.00416744
0.00409937
0.00403002
0.00395955
0.0038881
0.00381586
0.00374303
0.00366984
0.0035965
0.00352327
0.00345037
0.00337804
0.00330651
0.00323597
0.00316662
0.0030986
0.00303203
0.00296699
0.00290351
0.00284158
0.0027811
0.00272192
0.00266371
0.00260585
0.00254814
1.94823e-05
0.000142316
0.000297281
0.000432414
0.000544395
0.000637255
0.00071554
0.000783209
0.000843518
0.000899082
0.000951956
0.00100371
0.00105551
0.00110814
0.00116211
0.00121771
0.00127504
0.00133407
0.00139469
0.00145673
0.00152
0.00158428
0.00164937
0.00171507
0.0017812
0.00184758
0.00191407
0.00198054
0.00204689
0.00211301
0.00217883
0.00224429
0.00230934
0.00237394
0.00243807
0.0025017
0.00256484
0.00262747
0.00268959
0.00275121
0.00281234
0.00287298
0.00293315
0.00299286
0.00305212
0.00311095
0.00316935
0.00322733
0.0032849
0.00334207
0.00339883
0.0034552
0.00351117
0.00356674
0.00362191
0.00367666
0.00373099
0.0037849
0.00383836
0.00389137
0.00394391
0.00399598
0.00404755
0.00409862
0.00414918
0.00419925
0.00424884
0.00429796
0.00434661
0.0043948
0.00444252
0.00448975
0.0045365
0.00458274
0.00462846
0.00467364
0.00471826
0.00476229