/*--------------------------------*- C++ -*----------------------------------*\
| =========                 |                                                 |
| \\      /  F ield         | OpenFOAM: The Open Source CFD Toolbox           |
|  \\    /   O peration     | Version:  2412                                  |
|   \\  /    A nd           | Website:  www.openfoam.com                      |
|    \\/     M anipulation  |                                                 |
\*---------------------------------------------------------------------------*/
FoamFile
{
    version     2.0;
    format      ascii;
    arch        "LSB;label=32;scalar=64";
    class       volScalarField;
    location    "0.08";
    object      p;
}
// * * * * * * * * * * * * * * * * * * * * * * * * * * * * * * * * * * * * * //

dimensions      [0 2 -2 0 0 0 0];

internalField   nonuniform List<scalar> 
12225
(
-10.592
-9.9996
-9.3369
-8.78047
-8.27142
-7.81497
-7.4164
-7.06538
-6.75301
-6.47371
-6.22259
-5.99515
-5.78757
-5.59656
-5.41918
-5.25216
-5.09396
-4.93239
-11.0257
-10.0578
-9.37171
-8.82144
-8.31171
-7.85521
-7.456
-7.10358
-6.78957
-6.50858
-6.25572
-6.02655
-5.81728
-5.62459
-5.44554
-5.27694
-5.11637
-4.96073
-11.2062
-10.0921
-9.41345
-8.8723
-8.3621
-7.90647
-7.5074
-7.15391
-6.83836
-6.55558
-6.30078
-6.06959
-5.85828
-5.6636
-5.48257
-5.31216
-5.14961
-4.98931
-11.23
-10.1078
-9.43813
-8.90625
-8.39874
-7.94597
-7.54877
-7.19583
-6.88012
-6.59673
-6.341
-6.1087
-5.89619
-5.7003
-5.51812
-5.34694
-5.18338
-5.0259
-11.1599
-10.1025
-9.43841
-8.91703
-8.41655
-7.9687
-7.57505
-7.22432
-6.90991
-6.62719
-6.3717
-6.13935
-5.92665
-5.73058
-5.54835
-5.37767
-5.215
-5.06463
-11.0181
-10.0694
-9.41493
-8.90617
-8.41732
-7.97667
-7.58817
-7.24113
-6.92928
-6.64833
-6.39406
-6.16258
-5.95058
-5.75522
-5.57392
-5.40489
-5.24468
-5.1024
-10.8155
-10.0029
-9.36869
-8.87448
-8.40174
-7.97106
-7.58946
-7.24762
-6.93958
-6.66144
-6.4093
-6.17954
-5.96906
-5.77525
-5.59579
-5.42933
-5.2727
-5.13851
-10.5626
-9.9006
-9.30051
-8.82254
-8.36972
-7.95226
-7.5795
-7.24444
-6.94152
-6.66728
-6.41822
-6.19104
-5.98289
-5.79145
-5.61466
-5.45159
-5.29931
-5.17297
-10.2701
-9.76208
-9.21155
-8.75198
-8.32181
-7.92087
-7.55907
-7.23236
-6.93592
-6.66669
-6.42167
-6.19794
-5.99295
-5.80466
-5.63131
-5.47229
-5.32489
-5.20599
-9.94941
-9.58936
-9.10316
-8.66567
-8.25968
-7.8782
-7.52947
-7.21259
-6.92391
-6.6608
-6.42077
-6.20133
-6.00029
-5.81589
-5.64666
-5.49222
-5.35002
-5.23801
-9.61256
-9.38723
-8.97698
-8.56714
-8.18629
-7.82648
-7.49281
-7.18706
-6.90721
-6.65118
-6.41699
-6.20261
-6.00622
-5.82635
-5.66179
-5.51233
-5.37536
-5.26985
-9.30062
-9.1815
-8.8473
-8.46902
-8.1121
-7.77363
-7.45542
-7.16088
-6.88987
-6.64104
-6.41283
-6.20365
-6.01202
-5.83676
-5.67681
-5.53214
-5.39981
-5.30015
-9.00568
-8.96719
-8.70881
-8.36685
-8.03414
-7.71767
-7.4162
-7.13367
-6.872
-6.63081
-6.40901
-6.20541
-6.01887
-5.84846
-5.69331
-5.55341
-5.42617
-5.33009
-8.69871
-8.72285
-8.54332
-8.24744
-7.94347
-7.65254
-7.3718
-7.1043
-6.85399
-6.62201
-6.40794
-6.21103
-6.03053
-5.86579
-5.71614
-5.58158
-5.45986
-5.36658
-8.40176
-8.46876
-8.36089
-8.11688
-7.84536
-7.58201
-7.32522
-7.07608
-6.83958
-6.61864
-6.41379
-6.22477
-6.05123
-5.89284
-5.74916
-5.62024
-5.50399
-5.41312
-8.14359
-8.23692
-8.1867
-7.99374
-7.75555
-7.51858
-7.28556
-7.05596
-6.83461
-6.62587
-6.43134
-6.25124
-6.0855
-5.93405
-5.79663
-5.67334
-5.5623
-5.47323
-7.95632
-8.0644
-8.05568
-7.90682
-7.70004
-7.48646
-7.27398
-7.06179
-6.85412
-6.65619
-6.47068
-6.29833
-6.13929
-5.99374
-5.86137
-5.74226
-5.63482
-5.54507
-7.88026
-7.99258
-8.00508
-7.88344
-7.69846
-7.50153
-7.30369
-7.10445
-6.90736
-6.71786
-6.53925
-6.37257
-6.21803
-6.07562
-5.94533
-5.82694
-5.71941
-5.62408
-7.98027
-8.0873
-8.09365
-7.96701
-7.77882
-7.58011
-7.3815
-7.1823
-6.98592
-6.79757
-6.62029
-6.45491
-6.30141
-6.15961
-6.0292
-5.90948
-5.80018
-5.69817
-8.25709
-8.35151
-8.31811
-8.14658
-7.92505
-7.70238
-7.48405
-7.26877
-7.0605
-6.86379
-6.68051
-6.5107
-6.35391
-6.20957
-6.07698
-5.95506
-5.84354
-5.73677
-8.65084
-8.70896
-8.6066
-8.37221
-8.10792
-7.85302
-7.60696
-7.36924
-7.14423
-6.93505
-6.74214
-6.56481
-6.40219
-6.25336
-6.11732
-5.99284
-5.87951
-5.77137
-9.15147
-9.13121
-8.92303
-8.61328
-8.30128
-8.00733
-7.72771
-7.46427
-7.22052
-6.99721
-6.79334
-6.60755
-6.43845
-6.28465
-6.14481
-6.0175
-5.90196
-5.79246
-9.71564
-9.56007
-9.21619
-8.83336
-8.47677
-8.14329
-7.83134
-7.54476
-7.28425
-7.04807
-6.83417
-6.64061
-6.4655
-6.307
-6.16346
-6.03331
-5.91547
-5.80486
-10.2801
-9.93416
-9.45108
-9.01331
-8.6194
-8.24991
-7.91052
-7.60489
-7.33014
-7.0828
-6.86022
-6.65997
-6.47964
-6.31704
-6.17027
-6.03756
-5.91765
-5.80613
-10.7842
-10.2157
-9.62008
-9.14829
-8.72173
-8.32127
-7.96048
-7.64004
-7.35395
-7.09782
-6.86856
-6.6632
-6.47893
-6.31326
-6.16407
-6.02947
-5.90805
-5.79603
-11.1857
-10.3933
-9.72685
-9.23473
-8.77962
-8.35572
-7.98002
-7.64899
-7.35474
-7.09246
-6.85863
-6.64984
-6.46296
-6.29531
-6.14461
-6.00887
-5.88655
-5.77447
-11.4571
-10.4769
-9.77708
-9.2704
-8.79405
-8.35527
-7.97006
-7.63206
-7.33264
-7.06664
-6.83017
-6.61952
-6.43134
-6.2628
-6.11152
-5.97542
-5.8529
-5.74133
-11.5643
-10.4922
-9.77773
-9.25467
-8.76629
-8.31995
-7.92915
-7.58735
-7.28559
-7.01822
-6.78107
-6.57021
-6.38216
-6.21398
-6.06319
-5.92767
-5.80575
-5.69536
-11.4316
-10.4624
-9.74271
-9.19703
-8.70373
-8.25506
-7.86191
-7.51926
-7.21783
-6.95137
-6.71543
-6.50601
-6.31951
-6.15289
-6.00366
-5.86965
-5.7491
-5.64029
-10.9005
-10.3702
-9.70013
-9.14011
-8.64506
-8.19615
-7.80254
-7.46052
-7.16042
-6.8955
-6.66119
-6.45341
-6.26853
-6.10348
-5.95573
-5.82311
-5.7038
-5.59596
-5.07272
-5.07138
-5.07263
-5.07619
-5.08077
-5.08528
-5.08902
-5.09194
-5.09439
-5.09675
-5.09936
-5.10262
-5.10686
-5.11217
-5.11925
-5.12811
-5.13908
-5.15248
-5.16865
-5.18785
-5.21026
-5.23592
-5.26463
-5.29608
-5.32987
-5.36554
-5.40255
-5.44037
-5.47848
-5.51637
-5.5536
-5.58979
-5.62461
-5.65779
-5.68911
-5.7184
-5.74553
-5.77039
-5.7929
-5.81298
-5.83059
-5.84567
-5.85819
-5.8681
-5.87536
-5.87992
-5.88175
-5.88079
-5.87701
-5.87035
-5.86077
-5.84822
-5.83265
-5.81402
-5.79227
-5.76736
-5.73926
-5.70792
-5.67331
-5.6354
-5.59415
-5.54955
-5.50158
-5.45024
-5.39551
-5.33739
-5.27592
-5.21115
-5.14314
-5.07187
-4.99736
-4.91937
-4.83802
-4.75341
-4.66563
-4.57476
-4.48085
-4.38397
-4.28419
-4.18157
-4.07619
-3.96811
-3.85743
-3.74421
-3.62855
-3.51053
-3.39023
-3.26775
-3.14318
-3.01659
-2.88809
-2.75774
-2.62565
-2.49188
-2.35651
-2.21963
-2.08129
-1.94156
-1.8005
-1.65817
-1.5146
-1.36984
-1.2239
-1.07683
-0.928614
-0.779267
-0.628777
-0.477125
-0.324281
-0.170202
-0.0148357
0.141884
0.300032
0.459699
0.620982
0.783992
0.94885
1.11568
1.28463
1.45583
1.62944
1.80561
1.98448
2.16621
2.35093
2.53879
2.7299
2.92436
3.12225
3.32362
3.52847
3.73679
3.9485
4.16347
4.38151
4.60237
4.8257
5.05111
5.27806
5.50592
5.73386
5.96101
6.18651
6.40936
6.62846
6.84264
7.05065
7.25114
7.44275
7.62407
7.79372
7.95037
8.09273
8.21968
8.33021
8.4235
8.49896
8.55627
8.59535
8.61643
8.62004
8.60703
8.57853
8.53596
8.48099
8.41553
8.34169
8.26178
8.17824
8.0937
8.01097
7.93309
7.86354
7.80651
7.76749
7.75544
7.78434
7.86443
8.03695
8.29524
-5.07666
-5.07633
-5.07798
-5.08146
-5.08525
-5.08818
-5.08968
-5.08936
-5.08767
-5.08548
-5.08368
-5.08297
-5.08379
-5.08633
-5.09077
-5.09736
-5.10647
-5.11856
-5.13405
-5.15327
-5.17635
-5.2032
-5.23351
-5.26683
-5.30258
-5.34015
-5.3789
-5.41822
-5.45754
-5.49638
-5.5343
-5.57095
-5.60607
-5.63942
-5.67084
-5.70017
-5.72734
-5.75224
-5.77482
-5.79503
-5.81281
-5.82813
-5.84094
-5.8512
-5.85887
-5.8639
-5.86625
-5.86587
-5.86272
-5.85673
-5.84787
-5.83608
-5.8213
-5.8035
-5.78261
-5.75861
-5.73143
-5.70104
-5.66741
-5.63051
-5.59029
-5.54675
-5.49986
-5.44962
-5.39601
-5.33902
-5.27866
-5.21492
-5.1478
-5.07724
-5.0031
-4.92577
-4.84529
-4.76165
-4.67487
-4.585
-4.49208
-4.39618
-4.29736
-4.19568
-4.09121
-3.98402
-3.87421
-3.76183
-3.64699
-3.52976
-3.41023
-3.28848
-3.16462
-3.03872
-2.91088
-2.78117
-2.64969
-2.51652
-2.38173
-2.2454
-2.10761
-1.96841
-1.82788
-1.68606
-1.54301
-1.39876
-1.25335
-1.10681
-0.95914
-0.810356
-0.660452
-0.509413
-0.357214
-0.203818
-0.0491775
0.106768
0.26409
0.422871
0.583206
0.745198
0.908963
1.07463
1.24232
1.41218
1.58436
1.75899
1.93624
2.11624
2.29914
2.48506
2.67414
2.86646
3.0621
3.26113
3.46356
3.66936
3.87847
4.09076
4.30608
4.52416
4.74471
4.96733
5.19154
5.41675
5.64213
5.86669
6.08958
6.30994
6.52672
6.73877
6.94486
7.14369
7.33392
7.51419
7.68314
7.83946
7.98192
8.10939
8.22088
8.31559
8.39294
8.45257
8.49441
8.51866
8.52584
8.51674
8.49246
8.45435
8.40406
8.34343
8.27453
8.19959
8.12104
8.04143
7.96353
7.89035
7.82529
7.77239
7.73676
7.72445
7.74562
7.81293
7.95879
8.17037
-5.07139
-5.07415
-5.07765
-5.08135
-5.08393
-5.0848
-5.08394
-5.08166
-5.07858
-5.07544
-5.07293
-5.07164
-5.07204
-5.0745
-5.07942
-5.08716
-5.09808
-5.11247
-5.13048
-5.15214
-5.17729
-5.20563
-5.23675
-5.27016
-5.30534
-5.34177
-5.37893
-5.41635
-5.45361
-5.49032
-5.52616
-5.56086
-5.59417
-5.62592
-5.65594
-5.68409
-5.71027
-5.73439
-5.75636
-5.77613
-5.79362
-5.80878
-5.82156
-5.8319
-5.83975
-5.84506
-5.84777
-5.84783
-5.84519
-5.83979
-5.83157
-5.82048
-5.80646
-5.78947
-5.76944
-5.74634
-5.72011
-5.69072
-5.65812
-5.62227
-5.58315
-5.54072
-5.49497
-5.44588
-5.39344
-5.33764
-5.27847
-5.21592
-5.14996
-5.08068
-5.00799
-4.932
-4.85278
-4.77038
-4.68482
-4.59616
-4.50444
-4.40973
-4.31207
-4.21154
-4.1082
-4.00212
-3.89339
-3.78207
-3.66826
-3.55203
-3.43348
-3.31269
-3.18975
-3.06475
-2.93778
-2.80892
-2.67826
-2.54589
-2.41188
-2.27631
-2.13926
-2.0008
-1.86099
-1.71989
-1.57755
-1.43402
-1.28933
-1.14351
-0.996586
-0.848568
-0.699456
-0.549241
-0.397904
-0.245414
-0.0917284
0.0632054
0.219453
0.37709
0.536205
0.696896
0.859272
1.02345
1.18956
1.35774
1.52811
1.70084
1.87605
2.0539
2.23452
2.41804
2.60458
2.79424
2.9871
3.18322
3.38262
3.58528
3.79115
4.00011
4.21201
4.42661
4.64361
4.8626
5.0831
5.30451
5.52618
5.74736
5.9672
6.18473
6.39891
6.60861
6.81263
7.00972
7.19857
7.37785
7.54625
7.70249
7.84534
7.97372
8.08664
8.18331
8.26314
8.32578
8.37112
8.39935
8.41093
8.40661
8.38745
8.35475
8.31008
8.25523
8.19219
8.12316
8.05047
7.97663
7.90434
7.83653
7.77647
7.72796
7.69561
7.68471
7.70375
7.7607
7.87554
8.01677
-5.05281
-5.06017
-5.06705
-5.07234
-5.07534
-5.07625
-5.07553
-5.07376
-5.07157
-5.06968
-5.06874
-5.0693
-5.07183
-5.07671
-5.08428
-5.09481
-5.10849
-5.12543
-5.1456
-5.16884
-5.19493
-5.22353
-5.25426
-5.28673
-5.3205
-5.35518
-5.39035
-5.42566
-5.46076
-5.49534
-5.52914
-5.56192
-5.59346
-5.62361
-5.65219
-5.67909
-5.70419
-5.72739
-5.74861
-5.76776
-5.78478
-5.7996
-5.81215
-5.82237
-5.8302
-5.83557
-5.83843
-5.83872
-5.83637
-5.83132
-5.82352
-5.8129
-5.79941
-5.78298
-5.76356
-5.74111
-5.71557
-5.68689
-5.65503
-5.61996
-5.58163
-5.54003
-5.49511
-5.44687
-5.39528
-5.34033
-5.28202
-5.22033
-5.15527
-5.08686
-5.01512
-4.94011
-4.86185
-4.7804
-4.6958
-4.60808
-4.5173
-4.42351
-4.32677
-4.22714
-4.12469
-4.01949
-3.91161
-3.80114
-3.68816
-3.57275
-3.45499
-3.33498
-3.2128
-3.08855
-2.9623
-2.83416
-2.7042
-2.57252
-2.43919
-2.30429
-2.1679
-2.0301
-1.89094
-1.7505
-1.60882
-1.46595
-1.32194
-1.17682
-1.03061
-0.883331
-0.734985
-0.58557
-0.435069
-0.283459
-0.1307
0.0232534
0.178463
0.334999
0.492946
0.652396
0.813453
0.976232
1.14085
1.30745
1.47616
1.64712
1.82046
1.99634
2.17489
2.35624
2.54051
2.72779
2.91819
3.11174
3.30849
3.50842
3.71148
3.91757
4.12652
4.33812
4.55207
4.76801
4.98544
5.20379
5.42245
5.64073
5.85786
6.07286
6.28471
6.49229
6.69444
6.88993
7.07747
7.25578
7.42355
7.57954
7.72256
7.8515
7.96543
8.06353
8.14523
8.21017
8.25822
8.28956
8.30462
8.30413
8.28908
8.26076
8.22067
8.17057
8.11239
8.04825
7.98045
7.91142
7.84377
7.78032
7.72417
7.67881
7.64837
7.63726
7.65163
7.69552
7.77851
7.86491
-5.0244
-5.03618
-5.04823
-5.05709
-5.06239
-5.06514
-5.06626
-5.06649
-5.06654
-5.06712
-5.06888
-5.07235
-5.07795
-5.08598
-5.09667
-5.11017
-5.12653
-5.14572
-5.16763
-5.19205
-5.21874
-5.2474
-5.2777
-5.30929
-5.34184
-5.37501
-5.40848
-5.44196
-5.47516
-5.50785
-5.5398
-5.5708
-5.60068
-5.62928
-5.65646
-5.6821
-5.70608
-5.7283
-5.74868
-5.76712
-5.78354
-5.79788
-5.81006
-5.82001
-5.82765
-5.83292
-5.83575
-5.83608
-5.83383
-5.82895
-5.82135
-5.81099
-5.79779
-5.78171
-5.76267
-5.74062
-5.71551
-5.6873
-5.65592
-5.62136
-5.58356
-5.54249
-5.49813
-5.45046
-5.39945
-5.34509
-5.28738
-5.22631
-5.16189
-5.09413
-5.02307
-4.94872
-4.87114
-4.79036
-4.70641
-4.61935
-4.52921
-4.43607
-4.33996
-4.24096
-4.13913
-4.03455
-3.92728
-3.81741
-3.70502
-3.5902
-3.47302
-3.35358
-3.23197
-3.10828
-2.98259
-2.855
-2.72559
-2.59445
-2.46166
-2.32731
-2.19148
-2.05423
-1.91563
-1.77576
-1.63467
-1.4924
-1.34901
-1.20453
-1.05898
-0.912389
-0.764763
-0.616101
-0.466392
-0.315614
-0.163733
-0.0107054
0.143526
0.299029
0.455883
0.614178
0.774016
0.935507
1.09877
1.26394
1.43114
1.60052
1.77221
1.94635
2.1231
2.30256
2.48487
2.67013
2.85843
3.04983
3.24436
3.44203
3.64278
3.84652
4.05311
4.26232
4.47388
4.68742
4.90246
5.11844
5.33476
5.55077
5.7657
5.97865
6.1886
6.39446
6.59509
6.78926
6.97572
7.15319
7.32041
7.47613
7.61917
7.74846
7.86304
7.96213
8.04515
8.11172
8.16173
8.19532
8.21293
8.21525
8.20326
8.1782
8.14155
8.09503
8.04053
7.98011
7.91602
7.8506
7.78638
7.72603
7.67246
7.62881
7.59862
7.58542
7.59332
7.62344
7.67865
7.72499
-4.99528
-5.01105
-5.02819
-5.04107
-5.04944
-5.05491
-5.05872
-5.06174
-5.06474
-5.06843
-5.07342
-5.08017
-5.08905
-5.10027
-5.11396
-5.13018
-5.14887
-5.16996
-5.19326
-5.21858
-5.24568
-5.27427
-5.3041
-5.33486
-5.3663
-5.39813
-5.4301
-5.46198
-5.49354
-5.52457
-5.55489
-5.58433
-5.61273
-5.63994
-5.66584
-5.69031
-5.71324
-5.73453
-5.75408
-5.77181
-5.78763
-5.80145
-5.8132
-5.82281
-5.83019
-5.83526
-5.83797
-5.83822
-5.83595
-5.83109
-5.82357
-5.81331
-5.80026
-5.78434
-5.76551
-5.74368
-5.71882
-5.69088
-5.65979
-5.62552
-5.58804
-5.5473
-5.50328
-5.45595
-5.40531
-5.35132
-5.29399
-5.23332
-5.16932
-5.10199
-5.03136
-4.95746
-4.88031
-4.79995
-4.71643
-4.6298
-4.54009
-4.44736
-4.35167
-4.25309
-4.15168
-4.04751
-3.94065
-3.8312
-3.71923
-3.60481
-3.48805
-3.36903
-3.24784
-3.12457
-2.99931
-2.87215
-2.74318
-2.61249
-2.48016
-2.34627
-2.21091
-2.07416
-1.93607
-1.79672
-1.65617
-1.51447
-1.37166
-1.22779
-1.08289
-0.936974
-0.790057
-0.642141
-0.493216
-0.343265
-0.192255
-0.0401455
0.113118
0.267602
0.423382
0.580547
0.739197
0.899441
1.0614
1.22519
1.39096
1.55885
1.72898
1.90151
2.07658
2.25431
2.43483
2.61825
2.80467
2.99414
3.1867
3.38237
3.5811
3.78281
3.98735
4.19452
4.40403
4.61552
4.82854
5.04255
5.25696
5.47113
5.6843
5.8956
6.10403
6.30852
6.50794
6.70109
6.88671
7.06355
7.23035
7.38587
7.52895
7.65851
7.77362
7.87348
7.9575
8.02533
8.07683
8.11214
8.13169
8.13616
8.1265
8.10395
8.06995
8.02619
7.97452
7.91696
7.85569
7.793
7.73128
7.67307
7.62104
7.57799
7.54687
7.53033
7.53091
7.54772
7.57975
7.59627
-4.97295
-4.99154
-5.01257
-5.02892
-5.04028
-5.04859
-5.05526
-5.06123
-5.06726
-5.07405
-5.08215
-5.09196
-5.10378
-5.11776
-5.13396
-5.15236
-5.17288
-5.19539
-5.21971
-5.24563
-5.27294
-5.3014
-5.33077
-5.36082
-5.39133
-5.42206
-5.45282
-5.4834
-5.51362
-5.5433
-5.57229
-5.60044
-5.6276
-5.65364
-5.67846
-5.70193
-5.72394
-5.7444
-5.76322
-5.78029
-5.79554
-5.80887
-5.8202
-5.82945
-5.83653
-5.84137
-5.84389
-5.844
-5.84163
-5.8367
-5.82915
-5.81889
-5.80586
-5.78999
-5.77122
-5.74948
-5.72471
-5.69687
-5.66591
-5.63178
-5.59443
-5.55384
-5.50998
-5.46283
-5.41236
-5.35856
-5.30143
-5.24096
-5.17718
-5.11008
-5.03968
-4.96601
-4.88909
-4.80898
-4.72569
-4.63929
-4.54982
-4.45733
-4.36188
-4.26354
-4.16238
-4.05847
-3.95188
-3.84269
-3.73098
-3.61685
-3.50038
-3.38166
-3.26078
-3.13783
-3.0129
-2.88608
-2.75747
-2.62715
-2.49521
-2.36174
-2.22681
-2.0905
-1.95288
-1.81403
-1.674
-1.53285
-1.39063
-1.24737
-1.10311
-0.957878
-0.811681
-0.664523
-0.5164
-0.367292
-0.217172
-0.0659986
0.0862801
0.239728
0.394422
0.550448
0.707905
0.866902
1.02756
1.19
1.35436
1.52078
1.6894
1.86037
2.03382
2.20989
2.38872
2.5704
2.75504
2.94271
3.13345
3.32728
3.52416
3.72401
3.92669
4.13201
4.33969
4.54937
4.76063
4.97295
5.18574
5.39837
5.61008
5.82002
6.02722
6.23061
6.42907
6.6214
6.80638
6.98274
7.14923
7.30462
7.44775
7.57755
7.69307
7.79354
7.87836
7.94716
7.99982
8.03647
8.05752
8.06365
8.0558
8.03519
8.00326
7.96165
7.91219
7.85685
7.79776
7.73711
7.6772
7.6204
7.56916
7.52591
7.49306
7.47252
7.46558
7.47007
7.48285
7.4769
-4.96214
-4.98168
-5.00468
-5.02334
-5.03704
-5.04774
-5.05689
-5.06543
-5.07411
-5.08354
-5.09424
-5.10654
-5.12068
-5.13678
-5.15485
-5.17485
-5.19666
-5.22015
-5.24513
-5.27142
-5.29882
-5.32711
-5.3561
-5.38557
-5.41534
-5.44523
-5.47504
-5.50462
-5.5338
-5.56244
-5.59039
-5.61752
-5.6437
-5.66882
-5.69277
-5.71542
-5.73669
-5.75648
-5.77468
-5.7912
-5.80595
-5.81885
-5.8298
-5.83872
-5.84552
-5.85011
-5.85242
-5.85235
-5.84984
-5.84479
-5.83713
-5.82679
-5.81369
-5.79777
-5.77895
-5.75717
-5.73238
-5.70452
-5.67355
-5.6394
-5.60206
-5.56147
-5.51762
-5.47048
-5.42002
-5.36625
-5.30916
-5.24874
-5.185
-5.11796
-5.04762
-4.97402
-4.89717
-4.81712
-4.73391
-4.64759
-4.5582
-4.4658
-4.37045
-4.27221
-4.17116
-4.06737
-3.96091
-3.85187
-3.74032
-3.62636
-3.51008
-3.39156
-3.2709
-3.14819
-3.02351
-2.89698
-2.76866
-2.63867
-2.50707
-2.37397
-2.23943
-2.10355
-1.96639
-1.82802
-1.6885
-1.5479
-1.40626
-1.26363
-1.12003
-0.975492
-0.830034
-0.683659
-0.536362
-0.388126
-0.238924
-0.0887151
0.0625503
0.214936
0.368518
0.523383
0.679628
0.837364
0.996709
1.15779
1.32075
1.48572
1.65284
1.82227
1.99414
2.16861
2.34579
2.5258
2.70874
2.8947
3.08373
3.27582
3.47097
3.6691
3.87007
4.0737
4.27971
4.48778
4.69748
4.9083
5.11969
5.33099
5.54147
5.75027
5.95643
6.15891
6.35658
6.54825
6.7327
6.90866
7.0749
7.23018
7.37334
7.50332
7.61915
7.72007
7.80548
7.87501
7.92853
7.96618
7.98835
7.99574
7.98927
7.97015
7.9398
7.89985
7.8521
7.79848
7.74104
7.68191
7.62327
7.56733
7.51629
7.47228
7.43722
7.41236
7.3981
7.39151
7.38841
7.36556
-4.96286
-4.98194
-5.00511
-5.02474
-5.03985
-5.0522
-5.06319
-5.07369
-5.0844
-5.09585
-5.10849
-5.12261
-5.13842
-5.15599
-5.17532
-5.19636
-5.21899
-5.24307
-5.26843
-5.29489
-5.32227
-5.35037
-5.37902
-5.40804
-5.43725
-5.46649
-5.49561
-5.52444
-5.55286
-5.58073
-5.60791
-5.63429
-5.65976
-5.68419
-5.70748
-5.72953
-5.75024
-5.76951
-5.78724
-5.80333
-5.8177
-5.83025
-5.84089
-5.84953
-5.85607
-5.86044
-5.86254
-5.86229
-5.8596
-5.85439
-5.84658
-5.8361
-5.82286
-5.8068
-5.78785
-5.76594
-5.74103
-5.71304
-5.68193
-5.64766
-5.61019
-5.56948
-5.52551
-5.47825
-5.42769
-5.37381
-5.31661
-5.2561
-5.19228
-5.12515
-5.05473
-4.98105
-4.90413
-4.82402
-4.74075
-4.65437
-4.56494
-4.4725
-4.37713
-4.27888
-4.17783
-4.07406
-3.96763
-3.85864
-3.74717
-3.6333
-3.51712
-3.39874
-3.27823
-3.15569
-3.03123
-2.90492
-2.77686
-2.64715
-2.51587
-2.38311
-2.24896
-2.11348
-1.97677
-1.83888
-1.69989
-1.55985
-1.4188
-1.27681
-1.13389
-0.990075
-0.845385
-0.699823
-0.553384
-0.406053
-0.257802
-0.108593
0.0416252
0.192916
0.345355
0.49903
0.654038
0.81049
0.968506
1.12822
1.28976
1.45327
1.61891
1.78681
1.95713
2.13001
2.30559
2.48398
2.66529
2.8496
3.03697
3.22743
3.42094
3.61745
3.81682
4.01888
4.22338
4.42997
4.63826
4.84776
5.0579
5.26804
5.47743
5.68524
5.89051
6.09219
6.28918
6.48028
6.66426
6.83988
7.00588
7.16103
7.30417
7.43423
7.55025
7.65146
7.73726
7.80727
7.86138
7.89972
7.92269
7.93098
7.92552
7.9075
7.87834
7.83965
7.7932
7.74088
7.68468
7.62665
7.56885
7.51335
7.46211
7.41696
7.3794
7.35019
7.32905
7.31271
7.29661
7.26112
-4.97335
-4.99088
-5.01278
-5.03212
-5.04765
-5.06085
-5.07293
-5.0847
-5.09675
-5.10955
-5.12348
-5.13879
-5.15565
-5.17412
-5.1942
-5.21583
-5.23889
-5.26324
-5.28874
-5.31522
-5.34249
-5.3704
-5.39876
-5.42742
-5.45622
-5.485
-5.51362
-5.54194
-5.56984
-5.59718
-5.62385
-5.64973
-5.67472
-5.69869
-5.72155
-5.7432
-5.76354
-5.78245
-5.79986
-5.81566
-5.82976
-5.84205
-5.85246
-5.86088
-5.86721
-5.87138
-5.87329
-5.87285
-5.86997
-5.86458
-5.85658
-5.84591
-5.83248
-5.81622
-5.79706
-5.77494
-5.74981
-5.7216
-5.69027
-5.65578
-5.61808
-5.57714
-5.53294
-5.48545
-5.43467
-5.38057
-5.32317
-5.26245
-5.19842
-5.13109
-5.06047
-4.9866
-4.9095
-4.82921
-4.74578
-4.65924
-4.56967
-4.4771
-4.38161
-4.28327
-4.18214
-4.0783
-3.97184
-3.86283
-3.75136
-3.63752
-3.5214
-3.4031
-3.2827
-3.16031
-3.03601
-2.9099
-2.78208
-2.65263
-2.52166
-2.38924
-2.25546
-2.1204
-1.98414
-1.84674
-1.70828
-1.56882
-1.4284
-1.28706
-1.14485
-1.0018
-0.857906
-0.713191
-0.567647
-0.421259
-0.274
-0.12583
0.0233019
0.17346
0.32472
0.47717
0.630912
0.786054
0.942719
1.10104
1.26115
1.42321
1.58735
1.75374
1.92251
2.09383
2.26782
2.44462
2.62434
2.80705
2.99284
3.18171
3.37366
3.56863
3.7665
3.96709
4.17017
4.3754
4.5824
4.79067
4.99968
5.20877
5.41719
5.62411
5.82857
6.02954
6.22591
6.41648
6.60002
6.77529
6.94103
7.09599
7.23903
7.36905
7.48512
7.58644
7.67242
7.7427
7.79714
7.83589
7.85936
7.86823
7.86345
7.8462
7.8179
7.78013
7.73464
7.68329
7.62801
7.57075
7.51348
7.4581
7.40638
7.35986
7.31971
7.28628
7.25885
7.23409
7.2074
7.16257
-4.99072
-5.00599
-5.0256
-5.04361
-5.05869
-5.07196
-5.08444
-5.0968
-5.10955
-5.12309
-5.13773
-5.1537
-5.17111
-5.19003
-5.21044
-5.2323
-5.25549
-5.27989
-5.30536
-5.33174
-5.35886
-5.38656
-5.41469
-5.44308
-5.47159
-5.50007
-5.52838
-5.5564
-5.58399
-5.61103
-5.63742
-5.66302
-5.68774
-5.71147
-5.73411
-5.75554
-5.77567
-5.7944
-5.81163
-5.82726
-5.8412
-5.85333
-5.86358
-5.87184
-5.87801
-5.88201
-5.88374
-5.88311
-5.88004
-5.87443
-5.86621
-5.8553
-5.84163
-5.82511
-5.80568
-5.78328
-5.75786
-5.72935
-5.69772
-5.66291
-5.62489
-5.58364
-5.53912
-5.49133
-5.44023
-5.38583
-5.32813
-5.2671
-5.20277
-5.13515
-5.06425
-4.99009
-4.91273
-4.83218
-4.7485
-4.66174
-4.57195
-4.47918
-4.38351
-4.28501
-4.18375
-4.0798
-3.97324
-3.86417
-3.75267
-3.63882
-3.52273
-3.40448
-3.28417
-3.1619
-3.03776
-2.91184
-2.78425
-2.65507
-2.5244
-2.39233
-2.25893
-2.1243
-1.98851
-1.85163
-1.71373
-1.57487
-1.4351
-1.29446
-1.153
-1.01073
-0.867686
-0.723859
-0.579252
-0.433847
-0.287619
-0.140528
0.00747929
0.156467
0.306512
0.457705
0.610147
0.76395
0.91924
1.07615
1.23482
1.3954
1.55805
1.72291
1.89015
2.05992
2.23235
2.40759
2.58574
2.7669
2.95113
3.13848
3.32893
3.52242
3.71886
3.91806
4.1198
4.32375
4.52954
4.73668
4.94463
5.15273
5.36025
5.56634
5.77005
5.97034
6.1661
6.35615
6.53924
6.71411
6.87952
7.03422
7.17703
7.30689
7.42283
7.52408
7.61003
7.68033
7.73485
7.77375
7.79744
7.80661
7.80222
7.78545
7.75771
7.72059
7.67579
7.62514
7.57052
7.51379
7.45681
7.40134
7.34895
7.30097
7.25825
7.22088
7.18784
7.15591
7.12065
7.06902
-5.01176
-5.02439
-5.04106
-5.05699
-5.07092
-5.08361
-5.09588
-5.10827
-5.12119
-5.13497
-5.14987
-5.16605
-5.18363
-5.20266
-5.22312
-5.24495
-5.26808
-5.29237
-5.3177
-5.34391
-5.37086
-5.39838
-5.42633
-5.45454
-5.48288
-5.5112
-5.53937
-5.56725
-5.59472
-5.62166
-5.64795
-5.67348
-5.69813
-5.7218
-5.74438
-5.76577
-5.78585
-5.80453
-5.82171
-5.83728
-5.85114
-5.86319
-5.87333
-5.88148
-5.88752
-5.89136
-5.89292
-5.89209
-5.8888
-5.88296
-5.87449
-5.8633
-5.84932
-5.83249
-5.81274
-5.79
-5.76421
-5.73534
-5.70333
-5.66814
-5.62975
-5.58811
-5.54321
-5.49503
-5.44356
-5.38879
-5.33071
-5.26931
-5.20462
-5.13663
-5.06538
-4.99088
-4.91319
-4.83233
-4.74836
-4.66131
-4.57126
-4.47826
-4.38238
-4.28368
-4.18225
-4.07816
-3.9715
-3.86235
-3.7508
-3.63693
-3.52086
-3.40266
-3.28244
-3.16029
-3.03631
-2.9106
-2.78325
-2.65435
-2.52401
-2.3923
-2.25932
-2.12514
-1.98985
-1.85352
-1.71621
-1.57799
-1.43891
-1.29901
-1.15833
-1.0169
-0.874734
-0.731838
-0.588208
-0.443831
-0.298676
-0.152705
-0.00586259
0.141916
0.290711
0.440612
0.591724
0.744162
0.898053
1.05353
1.21075
1.36985
1.53099
1.69434
1.86005
2.02828
2.19917
2.37286
2.54948
2.72912
2.91185
3.09771
3.28671
3.47879
3.67384
3.87172
4.07218
4.27491
4.47955
4.68561
4.89254
5.09971
5.30636
5.51164
5.7146
5.91422
6.10936
6.29884
6.48142
6.65584
6.82081
6.97512
7.11757
7.24709
7.36272
7.46368
7.54938
7.61946
7.67381
7.71259
7.73623
7.74543
7.74117
7.72463
7.69721
7.66049
7.61616
7.56601
7.51184
7.45546
7.39862
7.34292
7.28979
7.24033
7.19519
7.15422
7.11627
7.07833
7.03621
6.97978
-5.03345
-5.0433
-5.05668
-5.07006
-5.08232
-5.09396
-5.10555
-5.11754
-5.13022
-5.14386
-5.15866
-5.17476
-5.19224
-5.21115
-5.23146
-5.25312
-5.27605
-5.30015
-5.32529
-5.35132
-5.3781
-5.40547
-5.4333
-5.46142
-5.4897
-5.51799
-5.54615
-5.57405
-5.60156
-5.62856
-5.65492
-5.68053
-5.70527
-5.72903
-5.75169
-5.77315
-5.7933
-5.81204
-5.82924
-5.84482
-5.85867
-5.87068
-5.88076
-5.8888
-5.89471
-5.8984
-5.89977
-5.89872
-5.89519
-5.88907
-5.8803
-5.86878
-5.85446
-5.83726
-5.81713
-5.79399
-5.7678
-5.7385
-5.70607
-5.67045
-5.63162
-5.58955
-5.54423
-5.49563
-5.44374
-5.38855
-5.33005
-5.26824
-5.20313
-5.13474
-5.06311
-4.98824
-4.91019
-4.829
-4.7447
-4.65736
-4.56704
-4.47379
-4.37769
-4.2788
-4.17721
-4.07299
-3.96622
-3.857
-3.74541
-3.63155
-3.5155
-3.39738
-3.27726
-3.15526
-3.03147
-2.90599
-2.77891
-2.65033
-2.52034
-2.38904
-2.2565
-2.12282
-1.98807
-1.85233
-1.71566
-1.57812
-1.43977
-1.30065
-1.1608
-1.02025
-0.87901
-0.73709
-0.594484
-0.451176
-0.307138
-0.162326
-0.0166868
0.129848
0.277359
0.42594
0.575696
0.726747
0.879221
1.03326
1.18901
1.34662
1.50627
1.6681
1.83229
1.999
2.16837
2.34055
2.51566
2.69381
2.87508
3.05951
3.2471
3.4378
3.63153
3.82812
4.02735
4.22892
4.43244
4.63746
4.84341
5.04965
5.25543
5.4599
5.66211
5.86101
6.05549
6.24433
6.42631
6.60014
6.76455
6.91831
7.06022
7.18921
7.30432
7.40476
7.48995
7.55956
7.61347
7.65187
7.67521
7.6842
7.67981
7.66326
7.63595
7.59944
7.55541
7.50559
7.45174
7.39559
7.33877
7.28279
7.2289
7.17805
7.13068
7.08654
7.04437
7.00148
6.95392
6.89428
-5.0532
-5.06031
-5.07032
-5.08091
-5.09118
-5.10143
-5.11203
-5.12329
-5.13545
-5.14868
-5.16316
-5.17897
-5.19619
-5.21483
-5.23488
-5.25629
-5.27898
-5.30285
-5.32778
-5.35363
-5.38028
-5.40755
-5.43532
-5.46343
-5.49174
-5.52009
-5.54835
-5.57638
-5.60405
-5.63122
-5.65777
-5.68357
-5.7085
-5.73244
-5.75527
-5.77689
-5.79717
-5.816
-5.83328
-5.84889
-5.86274
-5.87471
-5.88471
-5.89264
-5.8984
-5.9019
-5.90304
-5.90174
-5.89791
-5.89148
-5.88236
-5.87048
-5.85576
-5.83816
-5.8176
-5.79402
-5.76739
-5.73764
-5.70475
-5.66868
-5.62941
-5.5869
-5.54114
-5.4921
-5.43977
-5.38414
-5.3252
-5.26296
-5.19744
-5.12866
-5.05663
-4.9814
-4.90301
-4.82149
-4.73689
-4.64927
-4.5587
-4.46522
-4.36893
-4.26987
-4.16814
-4.06382
-3.95698
-3.84772
-3.73614
-3.62231
-3.50634
-3.38833
-3.26837
-3.14656
-3.023
-2.89779
-2.77103
-2.64282
-2.51324
-2.38238
-2.25035
-2.11721
-1.98305
-1.84794
-1.71196
-1.57516
-1.43759
-1.2993
-1.16034
-1.02071
-0.880446
-0.739547
-0.598009
-0.455813
-0.312929
-0.169315
-0.0249122
0.120348
0.266548
0.413784
0.562166
0.711813
0.86286
1.01545
1.16973
1.32586
1.48402
1.64435
1.80704
1.97225
2.14013
2.31082
2.48447
2.66117
2.84102
3.02405
3.21027
3.39966
3.5921
3.78746
3.9855
4.18593
4.38837
4.59235
4.79733
5.00264
5.20754
5.41117
5.61257
5.81069
6.0044
6.19251
6.37375
6.54686
6.71054
6.86356
7.00472
7.13294
7.24728
7.34695
7.43138
7.50024
7.55346
7.59121
7.61398
7.62251
7.61779
7.60103
7.57364
7.53718
7.49329
7.44369
7.39007
7.33407
7.27725
7.22098
7.16639
7.11428
7.06495
7.01806
6.97237
6.92548
6.8737
6.8121
-5.0689
-5.07353
-5.08027
-5.08798
-5.09612
-5.10478
-5.11419
-5.12454
-5.13598
-5.14866
-5.16267
-5.17808
-5.19494
-5.21325
-5.23299
-5.25411
-5.27654
-5.30018
-5.32491
-5.3506
-5.37713
-5.40435
-5.4321
-5.46025
-5.48863
-5.5171
-5.54552
-5.57374
-5.60162
-5.62902
-5.6558
-5.68184
-5.70699
-5.73114
-5.75416
-5.77593
-5.79633
-5.81526
-5.83258
-5.8482
-5.86202
-5.87391
-5.88379
-5.89156
-5.89712
-5.90038
-5.90125
-5.89965
-5.89549
-5.88869
-5.87919
-5.86691
-5.85178
-5.83374
-5.81274
-5.78872
-5.76164
-5.73145
-5.69811
-5.6616
-5.6219
-5.57897
-5.53279
-5.48332
-5.43057
-5.37451
-5.31516
-5.25253
-5.18663
-5.11748
-5.04511
-4.96955
-4.89086
-4.80906
-4.72421
-4.63637
-4.5456
-4.45196
-4.35552
-4.25637
-4.15456
-4.0502
-3.94336
-3.83413
-3.72261
-3.60888
-3.49305
-3.37522
-3.25548
-3.13393
-3.01067
-2.8858
-2.75943
-2.63164
-2.50253
-2.37219
-2.24071
-2.10818
-1.97467
-1.84027
-1.70503
-1.56902
-1.43229
-1.29489
-1.15685
-1.0182
-0.878962
-0.73913
-0.598701
-0.457656
-0.315964
-0.173578
-0.0304416
0.113519
0.258387
0.404263
0.551259
0.699497
0.849114
1.00026
1.15308
1.30775
1.46442
1.62329
1.7845
1.94824
2.11466
2.28392
2.45614
2.63144
2.80991
2.99159
3.1765
3.36461
3.55581
3.74997
3.94685
4.14617
4.34754
4.5505
4.75449
4.95886
5.16283
5.36556
5.56607
5.76332
5.95616
6.14338
6.32373
6.49592
6.65867
6.81072
6.95089
7.07809
7.19138
7.29
7.37339
7.44122
7.49345
7.5303
7.55226
7.5601
7.55483
7.53768
7.51006
7.47352
7.42969
7.38022
7.32678
7.27092
7.21411
7.1576
7.10241
7.04922
6.99824
6.94907
6.9005
6.85047
6.79548
6.73293
-5.07974
-5.08207
-5.08572
-5.09061
-5.09652
-5.10346
-5.11152
-5.12081
-5.1314
-5.14338
-5.15681
-5.17171
-5.18812
-5.20601
-5.22537
-5.24614
-5.26824
-5.29158
-5.31606
-5.34155
-5.36792
-5.39503
-5.42274
-5.45089
-5.47932
-5.5079
-5.53645
-5.56484
-5.5929
-5.6205
-5.64748
-5.67371
-5.69905
-5.72336
-5.74651
-5.76838
-5.78885
-5.80779
-5.8251
-5.84066
-5.85437
-5.86613
-5.87583
-5.88338
-5.88868
-5.89166
-5.89221
-5.89027
-5.88575
-5.87858
-5.86868
-5.85599
-5.84045
-5.82199
-5.80057
-5.77614
-5.74864
-5.71805
-5.68433
-5.64745
-5.60738
-5.56409
-5.51753
-5.46769
-5.41456
-5.35814
-5.29845
-5.23549
-5.16928
-5.09984
-5.02721
-4.95142
-4.87251
-4.79053
-4.70552
-4.61755
-4.52668
-4.43297
-4.33649
-4.23733
-4.13555
-4.03125
-3.9245
-3.8154
-3.70404
-3.59052
-3.47493
-3.35737
-3.23794
-3.11674
-2.99388
-2.86945
-2.74355
-2.61628
-2.48773
-2.358
-2.22717
-2.09534
-1.96257
-1.82894
-1.69453
-1.5594
-1.42359
-1.28715
-1.15012
-1.01252
-0.874366
-0.735666
-0.596409
-0.456573
-0.316126
-0.175019
-0.0331933
0.109427
0.252929
0.397415
0.543
0.68981
0.837985
0.987675
1.13904
1.29224
1.44746
1.60486