/*--------------------------------*- C++ -*----------------------------------*\
| =========                 |                                                 |
| \\      /  F ield         | OpenFOAM: The Open Source CFD Toolbox           |
|  \\    /   O peration     | Version:  2412                                  |
|   \\  /    A nd           | Website:  www.openfoam.com                      |
|    \\/     M anipulation  |                                                 |
\*---------------------------------------------------------------------------*/
FoamFile
{
    version     2.0;
    format      ascii;
    arch        "LSB;label=32;scalar=64";
    class       surfaceScalarField;
    location    "0.08";
    object      phi;
}
// * * * * * * * * * * * * * * * * * * * * * * * * * * * * * * * * * * * * * //

dimensions      [0 3 -1 0 0 0 0];

oriented        oriented;

internalField   nonuniform List<scalar> 
24170
(
1.36707e-07
-5.71622e-08
1.9562e-07
-5.89138e-08
2.57915e-07
-6.22943e-08
3.11665e-07
-5.37502e-08
3.61797e-07
-5.01323e-08
4.079e-07
-4.61026e-08
4.49538e-07
-4.16383e-08
4.87054e-07
-3.75161e-08
5.20834e-07
-3.37803e-08
5.51217e-07
-3.03825e-08
5.78527e-07
-2.73106e-08
6.0306e-07
-2.45327e-08
6.25062e-07
-2.2002e-08
6.44719e-07
-1.96566e-08
6.62187e-07
-1.74687e-08
6.77399e-07
-1.52116e-08
6.90587e-07
-1.31874e-08
-9.53793e-09
7.00124e-07
3.26112e-07
-1.24822e-07
3.94131e-07
-1.26932e-07
4.55881e-07
-1.24045e-07
5.14175e-07
-1.12043e-07
5.67662e-07
-1.0362e-07
6.1661e-07
-9.50505e-08
6.61242e-07
-8.62704e-08
7.01782e-07
-7.80567e-08
7.38529e-07
-7.05269e-08
7.71803e-07
-6.36562e-08
8.0191e-07
-5.74183e-08
8.29128e-07
-5.17506e-08
8.53693e-07
-4.65664e-08
8.75792e-07
-4.17559e-08
8.95557e-07
-3.72334e-08
9.13023e-07
-3.26776e-08
9.28296e-07
-2.84611e-08
-2.16016e-08
9.4036e-07
5.17244e-07
-1.7161e-07
5.79148e-07
-1.88836e-07
6.38203e-07
-1.831e-07
6.95354e-07
-1.69194e-07
7.48159e-07
-1.56424e-07
7.96754e-07
-1.43646e-07
8.41388e-07
-1.30904e-07
8.82195e-07
-1.18864e-07
9.19392e-07
-1.07724e-07
9.53244e-07
-9.75083e-08
9.84013e-07
-8.81873e-08
1.01194e-06
-7.96792e-08
1.03724e-06
-7.18674e-08
1.06009e-06
-6.46054e-08
1.08061e-06
-5.77475e-08
1.0989e-06
-5.09672e-08
1.11474e-06
-4.43044e-08
-3.50345e-08
1.12817e-06
7.43479e-07
-1.95419e-07
7.91916e-07
-2.37274e-07
8.43821e-07
-2.35005e-07
8.96346e-07
-2.2172e-07
9.46e-07
-2.06078e-07
9.92268e-07
-1.89914e-07
1.03517e-06
-1.73805e-07
1.0747e-06
-1.58398e-07
1.11098e-06
-1.44001e-07
1.14418e-06
-1.30707e-07
1.1745e-06
-1.18506e-07
1.20213e-06
-1.07311e-07
1.22725e-06
-9.69909e-08
1.25002e-06
-8.73732e-08
1.27054e-06
-7.82675e-08
1.28891e-06
-6.93413e-08
1.30499e-06
-6.03841e-08
-4.93289e-08
1.31929e-06
1.01492e-06
-1.99872e-07
1.0473e-06
-2.69654e-07
1.08852e-06
-2.76225e-07
1.13338e-06
-2.66574e-07
1.17749e-06
-2.50195e-07
1.21948e-06
-2.31899e-07
1.25896e-06
-2.13284e-07
1.29574e-06
-1.95176e-07
1.32978e-06
-1.78044e-07
1.36116e-06
-1.62084e-07
1.38998e-06
-1.47329e-07
1.41638e-06
-1.33711e-07
1.44049e-06
-1.21097e-07
1.46242e-06
-1.09307e-07
1.48228e-06
-9.81247e-08
1.50016e-06
-8.72258e-08
1.51607e-06
-7.62914e-08
-6.38508e-08
1.53059e-06
1.33808e-06
-1.90511e-07
1.35426e-06
-2.85835e-07
1.38244e-06
-3.04401e-07
1.41694e-06
-3.01073e-07
1.45313e-06
-2.8639e-07
1.48879e-06
-2.67559e-07
1.52306e-06
-2.47558e-07
1.55551e-06
-2.27623e-07
1.58592e-06
-2.08451e-07
1.61422e-06
-1.90384e-07
1.64042e-06
-1.73531e-07
1.66457e-06
-1.57866e-07
1.68675e-06
-1.43277e-07
1.70704e-06
-1.29593e-07
1.72551e-06
-1.16596e-07
1.74228e-06
-1.0399e-07
1.75743e-06
-9.14437e-08
-7.79535e-08
1.77153e-06
1.71767e-06
-1.72899e-07
1.71929e-06
-2.8746e-07
1.73352e-06
-3.18623e-07
1.75569e-06
-3.23249e-07
1.78179e-06
-3.12492e-07
1.80912e-06
-2.94881e-07
1.83636e-06
-2.74803e-07
1.86283e-06
-2.54089e-07
1.88811e-06
-2.3373e-07
1.91198e-06
-2.14256e-07
1.93434e-06
-1.95891e-07
1.95515e-06
-1.78674e-07
1.97441e-06
-1.62535e-07
1.99215e-06
-1.47333e-07
2.00842e-06
-1.32872e-07
2.02333e-06
-1.18902e-07
2.03703e-06
-1.05136e-07
-9.09223e-08
2.04999e-06
2.15733e-06
-1.51542e-07
2.14716e-06
-2.77291e-07
2.14803e-06
-3.19488e-07
2.15702e-06
-3.32235e-07
2.17143e-06
-3.26911e-07
2.18868e-06
-3.12128e-07
2.2072e-06
-2.9332e-07
2.22607e-06
-2.72965e-07
2.24472e-06
-2.52382e-07
2.26279e-06
-2.32317e-07
2.28003e-06
-2.13135e-07
2.29632e-06
-1.94965e-07
2.31159e-06
-1.77802e-07
2.32581e-06
-1.61551e-07
2.33899e-06
-1.46061e-07
2.35123e-06
-1.3114e-07
2.36267e-06
-1.16574e-07
-1.01969e-07
2.37372e-06
2.66011e-06
-1.29462e-07
2.64126e-06
-2.58442e-07
2.63055e-06
-3.08779e-07
2.62676e-06
-3.28446e-07
2.62883e-06
-3.28983e-07
2.63485e-06
-3.18147e-07
2.6433e-06
-3.01773e-07
2.65321e-06
-2.82865e-07
2.66387e-06
-2.63042e-07
2.6748e-06
-2.43256e-07
2.68569e-06
-2.24021e-07
2.6963e-06
-2.05577e-07
2.70649e-06
-1.87994e-07
2.71618e-06
-1.71241e-07
2.72535e-06
-1.55226e-07
2.73403e-06
-1.39823e-07
2.74236e-06
-1.24902e-07
-1.10253e-07
2.75064e-06
3.22873e-06
-1.08336e-07
3.20399e-06
-2.337e-07
3.18405e-06
-2.88842e-07
3.169e-06
-3.13395e-07
3.15917e-06
-3.19154e-07
3.15369e-06
-3.1266e-07
3.15139e-06
-2.99472e-07
3.15139e-06
-2.82871e-07
3.15303e-06
-2.64678e-07
3.15577e-06
-2.45999e-07
3.15923e-06
-2.27478e-07
3.16311e-06
-2.09461e-07
3.16722e-06
-1.92102e-07
3.17142e-06
-1.75441e-07
3.17564e-06
-1.5945e-07
3.17989e-06
-1.44071e-07
3.18425e-06
-1.29259e-07
-1.14926e-07
3.18892e-06
3.8657e-06
-8.90091e-08
3.83717e-06
-2.05166e-07
3.81023e-06
-2.61905e-07
3.78602e-06
-2.89189e-07
3.76572e-06
-2.98848e-07
3.74943e-06
-2.96367e-07
3.73653e-06
-2.86579e-07
3.72642e-06
-2.72758e-07
3.71855e-06
-2.5681e-07
3.71246e-06
-2.39905e-07
3.70775e-06
-2.22771e-07
3.70412e-06
-2.05833e-07
3.70134e-06
-1.89322e-07
3.69925e-06
-1.73343e-07
3.69773e-06
-1.57933e-07
3.69675e-06
-1.43091e-07
3.69634e-06
-1.28851e-07
-1.15196e-07
3.69661e-06
3.81123e-06
-7.33341e-08
3.78551e-06
-1.79446e-07
3.75881e-06
-2.35209e-07
3.73296e-06
-2.63338e-07
3.70927e-06
-2.75152e-07
3.68831e-06
-2.75411e-07
3.67e-06
-2.68268e-07
3.65407e-06
-2.5683e-07
3.64024e-06
-2.42984e-07
3.62823e-06
-2.27893e-07
3.61777e-06
-2.12305e-07
3.60862e-06
-1.96684e-07
3.6006e-06
-1.81302e-07
3.59356e-06
-1.6631e-07
3.58741e-06
-1.51785e-07
3.5821e-06
-1.37776e-07
3.57756e-06
-1.24312e-07
-1.11628e-07
3.57399e-06
5.03712e-06
-5.76998e-08
5.00706e-06
-1.4938e-07
4.97359e-06
-2.01736e-07
4.93948e-06
-2.29237e-07
4.90647e-06
-2.42134e-07
4.87567e-06
-2.44617e-07
4.8474e-06
-2.39999e-07
4.82163e-06
-2.3106e-07
4.79825e-06
-2.19601e-07
4.77709e-06
-2.06727e-07
4.75794e-06
-1.93157e-07
4.74061e-06
-1.79359e-07
4.72494e-06
-1.65628e-07
4.71077e-06
-1.52145e-07
4.69801e-06
-1.39018e-07
4.68656e-06
-1.26331e-07
4.67639e-06
-1.14139e-07
-1.0278e-07
4.66754e-06
6.66243e-06
-4.26622e-08
6.62911e-06
-1.16061e-07
6.58915e-06
-1.61767e-07
6.54666e-06
-1.8675e-07
6.50379e-06
-1.99266e-07
6.4622e-06
-2.03029e-07
6.42269e-06
-2.00489e-07
6.38553e-06
-1.93897e-07
6.3508e-06
-1.84874e-07
6.31851e-06
-1.74431e-07
6.28857e-06
-1.63217e-07
6.26087e-06
-1.51667e-07
6.23532e-06
-1.4007e-07
6.21178e-06
-1.28613e-07
6.19019e-06
-1.17421e-07
6.17044e-06
-1.06588e-07
6.1525e-06
-9.6192e-08
-8.65963e-08
6.13631e-06
8.79086e-06
-2.88566e-08
8.75645e-06
-8.165e-08
8.71172e-06
-1.17046e-07
8.66203e-06
-1.37055e-07
8.61006e-06
-1.473e-07
8.55795e-06
-1.50913e-07
8.50705e-06
-1.49592e-07
8.45805e-06
-1.44901e-07
8.41131e-06
-1.38124e-07
8.36699e-06
-1.30112e-07
8.32517e-06
-1.21403e-07
8.28587e-06
-1.12365e-07
8.24905e-06
-1.0325e-07
8.21467e-06
-9.42303e-08
8.18267e-06
-8.54242e-08
8.15301e-06
-7.69232e-08
8.12561e-06
-6.87943e-08
-6.14144e-08
8.10043e-06
1.15181e-05
-1.65795e-08
1.14847e-05
-4.83394e-08
1.14383e-05
-7.06271e-08
1.13845e-05
-8.32071e-08
1.13264e-05
-8.91897e-08
1.12663e-05
-9.08888e-08
1.12062e-05
-8.94482e-08
1.11471e-05
-8.57814e-08
1.10897e-05
-8.07189e-08
1.10344e-05
-7.48535e-08
1.09816e-05
-6.85596e-08
1.09313e-05
-6.20874e-08
1.08837e-05
-5.56152e-08
1.08387e-05
-4.92674e-08
1.07964e-05
-4.31404e-08
1.07568e-05
-3.73096e-08
1.07198e-05
-3.18019e-08
-2.7001e-08
1.06854e-05
1.48842e-05
-5.36962e-09
1.48525e-05
-1.6615e-08
1.48063e-05
-2.43869e-08
1.4751e-05
-2.7963e-08
1.46903e-05
-2.85059e-08
1.46266e-05
-2.71843e-08
1.45618e-05
-2.45864e-08
1.44971e-05
-2.11087e-08
1.44335e-05
-1.71308e-08
1.43716e-05
-1.29458e-08
1.43118e-05
-8.7379e-09
1.42543e-05
-4.62478e-09
1.41994e-05
-7.06662e-10
1.41471e-05
3.00246e-09
1.40976e-05
6.41593e-09
1.40508e-05
9.50131e-09
1.40067e-05
1.22869e-08
1.44219e-08
1.39653e-05
1.8769e-05
6.30727e-09
1.87365e-05
1.59217e-08
1.86883e-05
2.38084e-08
1.86301e-05
3.02342e-08
1.8566e-05
3.55401e-08
1.84989e-05
3.99914e-08
1.84305e-05
4.37558e-08
1.83625e-05
4.69564e-08
1.82956e-05
4.96884e-08
1.82307e-05
5.20184e-08
1.8168e-05
5.39909e-08
1.81077e-05
5.5636e-08
1.805e-05
5.69738e-08
1.7995e-05
5.80168e-08
1.79426e-05
5.87674e-08
1.78929e-05
5.9214e-08
1.78458e-05
5.94156e-08
5.91117e-08
1.78011e-05
2.26768e-05
1.70353e-08
2.26399e-05
5.28692e-08
2.25835e-05
8.01983e-08
2.25149e-05
9.88186e-08
2.24392e-05
1.11224e-07
2.23598e-05
1.19421e-07
2.22791e-05
1.24469e-07
2.21989e-05
1.27145e-07
2.21204e-05
1.28147e-07
2.20444e-05
1.27996e-07
2.19714e-05
1.27035e-07
2.19015e-05
1.25488e-07
2.1835e-05
1.23517e-07
2.17718e-05
1.21234e-07
2.17118e-05
1.18715e-07
2.1655e-05
1.16008e-07
2.16013e-05
1.13174e-07
1.1007e-07
2.15503e-05
1.5604e-05
3.26762e-08
1.55641e-05
9.27163e-08
1.55091e-05
1.35192e-07
1.54457e-05
1.62225e-07
1.53778e-05
1.79117e-07
1.53082e-05
1.89082e-07
1.52388e-05
1.93839e-07
1.51711e-05
1.94848e-07
1.51059e-05
1.93353e-07
1.50437e-05
1.90217e-07
1.49847e-05
1.86005e-07
1.49291e-05
1.81102e-07
1.48768e-05
1.75782e-07
1.48278e-05
1.70236e-07
1.47819e-05
1.64594e-07
1.4739e-05
1.5895e-07
1.46988e-05
1.53363e-07
1.47776e-07
1.46611e-05
1.23902e-05
5.12628e-08
1.23448e-05
1.38176e-07
1.22864e-05
1.9353e-07
1.22226e-05
2.26079e-07
1.21567e-05
2.44976e-07
1.20915e-05
2.54333e-07
1.20286e-05
2.56684e-07
1.19691e-05
2.54361e-07
1.19134e-05
2.49117e-07
1.18615e-05
2.42076e-07
1.18135e-05
2.33963e-07
1.17694e-05
2.25279e-07
1.17288e-05
2.16363e-07
1.16916e-05
2.07444e-07
1.16575e-05
1.98667e-07
1.16263e-05
1.90132e-07
1.15978e-05
1.81883e-07
1.73908e-07
1.15717e-05
9.55929e-06
7.55652e-08
9.5098e-06
1.87665e-07
9.45375e-06
2.49577e-07
9.39697e-06
2.82864e-07
9.34181e-06
3.00132e-07
9.29028e-06
3.05866e-07
9.24332e-06
3.03646e-07
9.20106e-06
2.96614e-07
9.16337e-06
2.86812e-07
9.12997e-06
2.7547e-07
9.10055e-06
2.63388e-07
9.07473e-06
2.51098e-07
9.05215e-06
2.38941e-07
9.03247e-06
2.27124e-07
9.01537e-06
2.1577e-07
9.00055e-06
2.04948e-07
8.98776e-06
1.94676e-07
1.84957e-07
8.97671e-06
7.18004e-06
1.04979e-07
7.13266e-06
2.35045e-07
7.08703e-06
2.95198e-07
7.04549e-06
3.2441e-07
7.0093e-06
3.36322e-07
6.9794e-06
3.3576e-07
6.95548e-06
3.27573e-07
6.93675e-06
3.15341e-07
6.92249e-06
3.01073e-07
6.91202e-06
2.85937e-07
6.90474e-06
2.70673e-07
6.9001e-06
2.55737e-07
6.89765e-06
2.41388e-07
6.89701e-06
2.2776e-07
6.89787e-06
2.14914e-07
6.89995e-06
2.02864e-07
6.90304e-06
1.91588e-07
1.81084e-07
6.90691e-06
5.24556e-06
1.38133e-07
5.20788e-06
2.72732e-07
5.18046e-06
3.22612e-07
5.16167e-06
3.43201e-07
5.15143e-06
3.46558e-07
5.1487e-06
3.38499e-07
5.15163e-06
3.24644e-07
5.15872e-06
3.08244e-07
5.16889e-06
2.90907e-07
5.18127e-06
2.73553e-07
5.19521e-06
2.56735e-07
5.2102e-06
2.40745e-07
5.22587e-06
2.2572e-07
5.24193e-06
2.11701e-07
5.25817e-06
1.98677e-07
5.27442e-06
1.86609e-07
5.29057e-06
1.75441e-07
1.65158e-07
5.30649e-06
3.71462e-06
1.71652e-07
3.69608e-06
2.91265e-07
3.69445e-06
3.24244e-07
3.70439e-06
3.3326e-07
3.72349e-06
3.27458e-07
3.74849e-06
3.13496e-07
3.77683e-06
2.96307e-07
3.80696e-06
2.78119e-07
3.83787e-06
2.59989e-07
3.8689e-06
2.42526e-07
3.89958e-06
2.26054e-07
3.92962e-06
2.10709e-07
3.95882e-06
1.96516e-07
3.98708e-06
1.83444e-07
4.01433e-06
1.7143e-07
4.04054e-06
1.60398e-07
4.06571e-06
1.50271e-07
1.41034e-07
4.08983e-06
2.5354e-06
1.96848e-07
2.54625e-06
2.80411e-07
2.57488e-06
2.95616e-07
2.61422e-06
2.93923e-07
2.65969e-06
2.81981e-07
2.70732e-06
2.65869e-07
2.75507e-06
2.48557e-07
2.80194e-06
2.31247e-07
2.84734e-06
2.14589e-07
2.89093e-06
1.98935e-07
2.93256e-06
1.84433e-07
2.97215e-06
1.71111e-07
3.00974e-06
1.58928e-07
3.04537e-06
1.47811e-07
3.07913e-06
1.37675e-07
3.1111e-06
1.28429e-07
3.14138e-06
1.19991e-07
1.12362e-07
3.17005e-06
1.6547e-06
1.99259e-07
1.70057e-06
2.34538e-07
1.75709e-06
2.39093e-07
1.81985e-06
2.3117e-07
1.88381e-06
2.18016e-07
1.94603e-06
2.03653e-07
2.00563e-06
1.88959e-07
2.06224e-06
1.74635e-07
2.11568e-06
1.61147e-07
2.16594e-06
1.48673e-07
2.21312e-06
1.37256e-07
2.25736e-06
1.2687e-07
2.29884e-06
1.17451e-07
2.33773e-06
1.08914e-07
2.37423e-06
1.01175e-07
2.40851e-06
9.4151e-08
2.44074e-06
8.77625e-08
8.20474e-08
2.47106e-06
1.01827e-06
1.63846e-07
1.09488e-06
1.57927e-07
1.17025e-06
1.63729e-07
1.24671e-06
1.5471e-07
1.32011e-06
1.44614e-07
1.3891e-06
1.34661e-07
1.45375e-06
1.24315e-07
1.5141e-06
1.14287e-07
1.57025e-06
1.04989e-07
1.62244e-06
9.64854e-08
1.67093e-06
8.87649e-08
1.71601e-06
8.1792e-08
1.75795e-06
7.55073e-08
1.79703e-06
6.98417e-08
1.83347e-06
6.47274e-08
1.86752e-06
6.01037e-08
1.89939e-06
5.58911e-08
5.21654e-08
1.92927e-06
5.69237e-07
8.45261e-08
6.58984e-07
6.81803e-08
7.40768e-07
8.19435e-08
8.20869e-07
7.46089e-08
8.95875e-07
6.96078e-08
9.65436e-07
6.50995e-08
1.02987e-06
5.9885e-08
1.08938e-06
5.47706e-08
1.14427e-06
5.01058e-08
1.19487e-06
4.588e-08
1.24157e-06
4.20639e-08
1.28473e-06
3.86368e-08
1.32467e-06
3.5565e-08
1.3617e-06
3.28085e-08
1.3961e-06
3.03291e-08
1.42811e-06
2.80983e-08
1.45795e-06
2.60437e-08
2.42143e-08
1.48591e-06
2.2245e-07
2.90631e-07
3.72574e-07
4.47183e-07
5.16791e-07
5.8189e-07
6.41775e-07
6.96546e-07
7.46652e-07
7.92532e-07
8.34596e-07
8.73232e-07
9.08797e-07
9.41606e-07
9.71935e-07
1.00003e-06
1.02608e-06
1.05029e-06
2.8684e-08
-2.8684e-08
6.88351e-08
-4.0151e-08
1.06414e-07
-3.7579e-08
1.36296e-07
-2.9882e-08
1.56203e-07
-1.99066e-08
1.65285e-07
-9.08212e-09
1.63619e-07
1.66627e-09
1.51555e-07
1.2063e-08
1.31208e-07
2.03477e-08
1.04406e-07
2.68016e-08
7.27097e-08
3.16965e-08
3.71508e-08
3.55589e-08
-1.86895e-09
3.90197e-08
-4.4599e-08
4.27301e-08
-9.15892e-08
4.69902e-08
-1.43357e-07
5.17678e-08
-2.00148e-07
5.67911e-08
-2.6181e-07
6.16618e-08
-3.27817e-07
6.60073e-08
-3.97374e-07
6.95564e-08
-4.69526e-07
7.21529e-08
-5.43274e-07
7.37471e-08
-6.17653e-07
7.43791e-08
-6.91799e-07
7.4146e-08
-7.6495e-07
7.31515e-08
-8.36475e-07
7.15247e-08
-9.05878e-07
6.94028e-08
-9.72797e-07
6.69195e-08
-1.03699e-06
6.41977e-08
-1.09834e-06
6.13436e-08
-1.15678e-06
5.84452e-08
-1.21236e-06
5.55714e-08
-1.26513e-06
5.27734e-08
-1.31522e-06
5.00867e-08
-1.36275e-06
4.75333e-08
-1.40787e-06
4.51248e-08
-1.45074e-06
4.28642e-08
-1.49149e-06
4.07485e-08
-1.53026e-06
3.87704e-08
-1.56718e-06
3.692e-08
-1.60236e-06
3.51858e-08
-1.63592e-06
3.35555e-08
-1.66793e-06
3.20168e-08
-1.69849e-06
3.05581e-08
-1.72766e-06
2.91683e-08
-1.7555e-06
2.78371e-08
-1.78205e-06
2.65554e-08
-1.80737e-06
2.5315e-08
-1.83148e-06
2.41086e-08
-1.85441e-06
2.29301e-08
-1.87618e-06
2.17739e-08
-1.89682e-06
2.06356e-08
-1.91633e-06
1.95111e-08
-1.93473e-06
1.83974e-08
-1.95202e-06
1.72917e-08
-1.96821e-06
1.61918e-08
-1.9833e-06
1.5096e-08
-1.99731e-06
1.40025e-08
-2.01022e-06
1.29101e-08
-2.02203e-06
1.18176e-08
-2.03276e-06
1.07235e-08
-2.04238e-06
9.62628e-09
-2.05091e-06
8.52413e-09
-2.05832e-06
7.4137e-09
-2.06461e-06
6.29154e-09
-2.06977e-06
5.1533e-09
-2.07376e-06
3.99293e-09
-2.07656e-06
2.80435e-09
-2.07815e-06
1.58689e-09
-2.07844e-06
2.90743e-10
-2.07764e-06
-8.04543e-10
-2.07584e-06
-1.79845e-09
-2.07311e-06
-2.73401e-09
-2.06947e-06
-3.632e-09
-2.06497e-06
-4.50555e-09
-2.05961e-06
-5.36107e-09
-2.05341e-06
-6.20085e-09
-2.04638e-06
-7.02548e-09
-2.03855e-06
-7.83483e-09
-2.02992e-06
-8.62837e-09
-2.02051e-06
-9.40556e-09
-2.01035e-06
-1.01658e-08
-1.99944e-06
-1.09087e-08
-1.9878e-06
-1.16337e-08
-1.97546e-06
-1.23405e-08
-1.96243e-06
-1.30291e-08
-1.94873e-06
-1.36992e-08
-1.93438e-06
-1.43509e-08
-1.9194e-06
-1.49845e-08
-1.9038e-06
-1.56003e-08
-1.8876e-06
-1.61987e-08
-1.87082e-06
-1.67805e-08
-1.85347e-06
-1.73464e-08
-1.83558e-06
-1.78974e-08
-1.81714e-06
-1.84347e-08
-1.79818e-06
-1.89597e-08
-1.77871e-06
-1.94738e-08
-1.75873e-06
-1.99791e-08
-1.73825e-06
-2.04773e-08
-1.71728e-06
-2.09706e-08
-1.69582e-06
-2.14615e-08
-1.67387e-06
-2.19527e-08
-1.65142e-06
-2.24468e-08
-1.62847e-06
-2.29471e-08
-1.60502e-06
-2.34568e-08
-1.58104e-06
-2.39796e-08
-1.55652e-06
-2.4519e-08
-1.53144e-06
-2.50793e-08
-1.50577e-06
-2.56647e-08
-1.47949e-06
-2.62796e-08
-1.45256e-06
-2.69287e-08
-1.42495e-06
-2.7617e-08
-1.3966e-06
-2.83494e-08
-1.36747e-06
-2.91312e-08
-1.3375e-06
-2.99678e-08
-1.30663e-06
-3.08647e-08
-1.27481e-06
-3.18276e-08
-1.24194e-06
-3.28622e-08
-1.20797e-06
-3.39742e-08
-1.1728e-06
-3.51692e-08
-1.13635e-06
-3.64529e-08
-1.09852e-06
-3.78307e-08
-1.05921e-06
-3.93079e-08
-1.01832e-06
-4.08898e-08
-9.75739e-07
-4.25809e-08
-9.31354e-07
-4.43853e-08
-8.85047e-07
-4.6307e-08
-8.36698e-07
-4.83491e-08
-7.86184e-07
-5.05139e-08
-7.33381e-07
-5.28025e-08
-6.78165e-07
-5.52158e-08
-6.20412e-07
-5.7753e-08
-5.60001e-07
-6.04118e-08
-4.96811e-07
-6.31892e-08
-4.30732e-07
-6.60791e-08
-3.61657e-07
-6.90752e-08
-2.8949e-07
-7.21669e-08
-2.14149e-07
-7.53412e-08
-1.35559e-07
-7.85898e-08
-5.36942e-08
-8.18649e-08
3.14705e-08
-8.51647e-08
1.20014e-07
-8.85438e-08
2.11961e-07
-9.19465e-08
3.07302e-07
-9.53408e-08
4.0601e-07
-9.87081e-08
5.08021e-07
-1.02011e-07
6.13232e-07
-1.05211e-07
7.21501e-07
-1.08269e-07
8.32644e-07
-1.11143e-07
9.46437e-07
-1.13793e-07
1.06261e-06
-1.16176e-07
1.18086e-06
-1.18251e-07
1.30084e-06
-1.19976e-07
1.42215e-06
-1.2131e-07
1.54437e-06
-1.22216e-07
1.66702e-06
-1.22659e-07
1.78963e-06
-1.22607e-07
1.91166e-06
-1.22033e-07
2.03258e-06
-1.20918e-07
2.15183e-06
-1.19248e-07
2.26885e-06
-1.17016e-07
2.38307e-06
-1.14222e-07
2.49394e-06
-1.10873e-07
2.60093e-06
-1.06983e-07
2.70349e-06
-1.0257e-07
2.80115e-06
-9.76556e-08
2.89341e-06
-9.22641e-08
2.97983e-06
-8.64157e-08
3.05995e-06
-8.01248e-08
3.13335e-06
-7.33929e-08
3.19955e-06
-6.61973e-08
3.25803e-06
-5.84823e-08
3.30815e-06
-5.01267e-08
3.34892e-06
-4.07639e-08
3.37897e-06
-3.00552e-08
3.3943e-06
-1.5331e-08
3.38422e-06
1.00805e-08
3.33467e-06
4.95513e-08
3.21452e-06
1.20154e-07
2.08651e-07
3.00587e-06
3.73136e-08
-6.59977e-08
6.25913e-08
-6.54287e-08
7.35681e-08
-4.85558e-08
7.39014e-08
-3.02153e-08
6.60768e-08
-1.2082e-08
5.15524e-08
5.44232e-09
3.11203e-08
2.20984e-08
5.52377e-09
3.76596e-08
-2.59301e-08
5.18015e-08
-6.34784e-08
6.435e-08
-1.0721e-07
7.54285e-08
-1.5707e-07
8.54181e-08
-2.12822e-07
9.47723e-08
-2.73905e-07
1.03813e-07
-3.3952e-07
1.12605e-07
-4.08694e-07
1.20942e-07
-4.80348e-07
1.28445e-07
-5.53387e-07
1.34701e-07
-6.26763e-07
1.39384e-07
-6.99523e-07
1.42316e-07
-7.70848e-07
1.43478e-07
-8.40078e-07
1.42977e-07
-9.06713e-07
1.41014e-07
-9.70405e-07
1.37838e-07
-1.03096e-06
1.3371e-07
-1.08833e-06
1.28887e-07
-1.14253e-06
1.23608e-07
-1.19369e-06
1.18078e-07
-1.24196e-06
1.12467e-07
-1.28752e-06
1.06907e-07
-1.33057e-06
1.01498e-07
-1.37131e-06
9.63057e-08
-1.40991e-06
9.13725e-08
-1.44654e-06
8.67196e-08
-1.48136e-06
8.23528e-08
-1.5145e-06
7.82659e-08
-1.54608e-06
7.44452e-08
-1.57621e-06
7.08717e-08
-1.60496e-06
6.75236e-08
-1.63242e-06
6.43777e-08
-1.65864e-06
6.14112e-08
-1.68369e-06
5.86016e-08
-1.7076e-06
5.5928e-08
-1.73041e-06
5.3371e-08
-1.75216e-06
5.0913e-08
-1.77286e-06
4.85383e-08
-1.79254e-06
4.6233e-08
-1.81121e-06
4.39847e-08
-1.82888e-06
4.1783e-08
-1.84557e-06
3.96185e-08
-1.86128e-06
3.74837e-08
-1.87601e-06
3.5372e-08
-1.88978e-06
3.32779e-08
-1.90258e-06
3.1197e-08
-1.91441e-06
2.91258e-08
-1.92528e-06
2.70614e-08
-1.93519e-06
2.50016e-08
-1.94413e-06
2.29448e-08
-1.95211e-06
2.08896e-08
-1.95913e-06
1.88351e-08
-1.96519e-06
1.67808e-08
-1.97029e-06
1.47263e-08
-1.97443e-06
1.26714e-08
-1.97764e-06
1.06164e-08
-1.97991e-06
8.56201e-09
-1.98126e-06
6.51055e-09
-1.98174e-06
4.46591e-09
-1.98137e-06
2.4358e-09
-1.98023e-06
4.46853e-10
-1.97842e-06
-1.51809e-09
-1.97583e-06
-3.39087e-09
-1.97242e-06
-5.21193e-09
-1.96815e-06
-7.00013e-09
-1.96303e-06
-8.75879e-09
-1.95704e-06
-1.04894e-08
-1.95021e-06
-1.21929e-08
-1.94254e-06
-1.38688e-08
-1.93405e-06
-1.55163e-08
-1.92475e-06
-1.7134e-08
-1.91466e-06
-1.87208e-08
-1.90379e-06
-2.02752e-08
-1.89216e-06
-2.17961e-08
-1.87979e-06
-2.32823e-08
-1.86669e-06
-2.47332e-08
-1.85288e-06
-2.61479e-08
-1.83838e-06
-2.7526e-08
-1.82322e-06
-2.88673e-08
-1.80739e-06
-3.0172e-08
-1.79094e-06
-3.14404e-08
-1.77387e-06
-3.2673e-08
-1.75619e-06
-3.38708e-08
-1.73794e-06
-3.50351e-08
-1.71912e-06
-3.61673e-08
-1.69975e-06
-3.72694e-08
-1.67984e-06
-3.83437e-08
-1.6594e-06
-3.93929e-08
-1.63846e-06
-4.04199e-08
-1.61701e-06
-4.14283e-08
-1.59506e-06
-4.2422e-08
-1.57263e-06
-4.34052e-08
-1.54971e-06
-4.43828e-08
-1.5263e-06
-4.53598e-08
-1.50241e-06
-4.6342e-08
-1.47802e-06
-4.73354e-08
-1.45313e-06
-4.83466e-08
-1.42772e-06
-4.93827e-08
-1.40179e-06
-5.04513e-08
-1.37531e-06
-5.15604e-08
-1.34826e-06
-5.27184e-08
-1.3206e-06
-5.39345e-08
-1.29231e-06
-5.52179e-08
-1.26335e-06
-5.65784e-08
-1.23368e-06
-5.80261e-08
-1.20324e-06
-5.95718e-08
-1.17198e-06
-6.1226e-08
-1.13984e-06
-6.3e-08
-1.10676e-06
-6.49051e-08
-1.07267e-06
-6.69527e-08
-1.03749e-06
-6.91544e-08
-1.00114e-06
-7.15216e-08
-9.63528e-07
-7.40655e-08
-9.24562e-07
-7.67972e-08
-8.84142e-07
-7.97275e-08
-8.42166e-07
-8.28665e-08
-7.98523e-07
-8.62236e-08
-7.53101e-07
-8.98074e-08
-7.05782e-07
-9.36254e-08
-6.56448e-07
-9.76839e-08
-6.04974e-07
-1.01988e-07
-5.51237e-07
-1.06539e-07
-4.95112e-07
-1.1134e-07
-4.36477e-07
-1.16389e-07
-3.75208e-07
-1.21681e-07
-3.11188e-07
-1.27209e-07
-2.44303e-07
-1.32964e-07
-1.74448e-07
-1.3893e-07
-1.01526e-07
-1.45089e-07
-2.54479e-08
-1.51419e-07
5.38711e-08
-1.57909e-07
1.36541e-07
-1.64535e-07
2.22635e-07
-1.71258e-07
3.12154e-07
-1.78063e-07
4.05118e-07
-1.8491e-07
5.01531e-07
-1.91754e-07
6.01361e-07
-1.98538e-07
7.04541e-07
-2.05191e-07
8.10971e-07
-2.11642e-07
9.20514e-07
-2.17812e-07
1.033e-06
-2.23624e-07
1.1482e-06
-2.28996e-07
1.26587e-06
-2.33846e-07
1.38571e-06
-2.38091e-07
1.50738e-06
-2.41648e-07
1.63051e-06
-2.44439e-07
1.75468e-06
-2.46388e-07
1.87945e-06
-2.47424e-07
2.00433e-06
-2.47488e-07
2.12882e-06
-2.46527e-07
2.25241e-06
-2.44501e-07
2.37454e-06
-2.41382e-07
2.49468e-06
-2.37157e-07
2.61228e-06
-2.31825e-07
2.72681e-06
-2.25401e-07
2.83774e-06
-2.1791e-07
2.94456e-06
-2.09389e-07
3.04678e-06
-1.99881e-07
3.14395e-06
-1.8943e-07
3.23561e-06
-1.78079e-07
3.32134e-06
-1.65855e-07
3.40071e-06
-1.52763e-07
3.47328e-06
-1.38765e-07
3.53855e-06
-1.23753e-07
3.59592e-06
-1.07495e-07
3.64464e-06
-8.94877e-08
3.68347e-06
-6.88774e-08
3.71215e-06
-4.40139e-08
3.73231e-06
-1.00746e-08
3.74332e-06
3.85409e-08
3.73987e-06
1.23602e-07
2.56745e-07
3.69177e-06
1.70819e-08
-8.30796e-08
1.53009e-08
-6.36476e-08
4.3266e-09
-3.75815e-08
-1.26931e-08
-1.31956e-08
-3.45827e-08
9.80753e-09
-6.08426e-08
3.17023e-08
-9.13183e-08
5.2574e-08
-1.26017e-07
7.23583e-08
-1.65112e-07
9.08969e-08
-2.08811e-07
1.08049e-07
-2.57178e-07
1.23795e-07
-3.09991e-07
1.38232e-07
-3.66683e-07
1.51464e-07
-4.26369e-07
1.63499e-07
-4.8796e-07
1.74196e-07
-5.5032e-07
1.83301e-07
-6.12405e-07
1.9053e-07
-6.73363e-07
1.95659e-07
-7.32566e-07
1.98587e-07
-7.89603e-07
1.99354e-07
-8.4425e-07
1.98125e-07
-8.96427e-07
1.95154e-07
-9.4616e-07
1.90747e-07
-9.93542e-07
1.8522e-07
-1.03871e-06
1.78878e-07
-1.08182e-06
1.71999e-07
-1.12303e-06
1.64821e-07
-1.1625e-06
1.57539e-07
-1.20034e-06
1.50307e-07
-1.23667e-06
1.43241e-07
-1.27159e-06
1.36421e-07
-1.30518e-06
1.29898e-07
-1.33751e-06
1.23702e-07
-1.36864e-06
1.17843e-07
-1.3986e-06
1.12318e-07
-1.42745e-06
1.07114e-07
-1.45522e-06
1.02212e-07
-1.48193e-06
9.75875e-08
-1.50763e-06
9.32154e-08
-1.53232e-06
8.90691e-08
-1.55603e-06
8.51224e-08
-1.57878e-06
8.13503e-08
-1.60058e-06
7.7729e-08
-1.62144e-06
7.42368e-08
-1.64138e-06
7.08538e-08
-1.66041e-06
6.75622e-08
-1.67852e-06
6.4346e-08
-1.69573e-06
6.11914e-08
-1.71203e-06
5.8086e-08
-1.72743e-06
5.50196e-08
-1.74193e-06
5.19832e-08
-1.75553e-06
4.89693e-08
-1.76822e-06
4.59721e-08
-1.78001e-06
4.29863e-08
-1.7909e-06
4.00084e-08
-1.80087e-06
3.70353e-08
-1.80993e-06
3.40651e-08
-1.81808e-06
3.10964e-08
-1.82532e-06
2.81287e-08
-1.83165e-06
2.5162e-08
-1.83707e-06
2.21968e-08
-1.84157e-06
1.92343e-08
-1.84518e-06
1.62765e-08
-1.84789e-06
1.3326e-08
-1.84971e-06
1.03864e-08
-1.85067e-06
7.46294e-09
-1.85076e-06
4.5622e-09
-1.85002e-06
1.69317e-09
-1.84844e-06
-1.13305e-09
-1.84605e-06
-3.91117e-09
-1.8428e-06
-6.6366e-09
-1.83869e-06
-9.31864e-09
-1.83373e-06
-1.19638e-08
-1.82792e-06
-1.45736e-08
-1.82126e-06
-1.71478e-08
-1.81377e-06
-1.96849e-08
-1.80545e-06
-2.21831e-08
-1.79633e-06
-2.46402e-08
-1.78641e-06
-2.7054e-08
-1.77571e-06
-2.94222e-08
-1.76424e-06
-3.17427e-08
-1.75202e-06
-3.40138e-08
-1.73907e-06
-3.62337e-08
-1.7254e-06
-3.8401e-08
-1.71103e-06
-4.05149e-08
-1.69599e-06
-4.25745e-08
-1.68027e-06
-4.45795e-08
-1.66392e-06
-4.65299e-08
-1.64693e-06
-4.84262e-08
-1.62933e-06
-5.02693e-08
-1.61114e-06
-5.20603e-08
-1.59238e-06
-5.38011e-08
-1.57305e-06
-5.54939e-08
-1.55318e-06
-5.71414e-08
-1.53278e-06
-5.87468e-08
-1.51186e-06
-6.03142e-08
-1.49043e-06
-6.18478e-08
-1.4685e-06
-6.33529e-08
-1.44609e-06
-6.48349e-08
-1.42319e-06
-6.63004e-08
-1.39982e-06
-6.77561e-08
-1.37597e-06
-6.92099e-08
-1.35164e-06
-7.067e-08
-1.32683e-06
-7.21454e-08
-1.30153e-06
-7.36458e-08
-1.27573e-06
-7.51817e-08
-1.24942e-06
-7.67644e-08
-1.22258e-06
-7.84057e-08
-1.19518e-06
-8.01183e-08
-1.1672e-06
-8.19156e-08
-1.1386e-06
-8.38115e-08
-1.10936e-06
-8.58206e-08
-1.07943e-06
-8.7958e-08
-1.04876e-06
-9.02396e-08
-1.0173e-06
-9.26815e-08
-9.85004e-07
-9.53004e-08
-9.51796e-07
-9.81132e-08
-9.17612e-07
-1.01137e-07
-8.82377e-07
-1.04389e-07
-8.46011e-07
-1.07887e-07
-8.08429e-07
-1.11647e-07
-7.6954e-07
-1.15687e-07
-7.29246e-07
-1.20022e-07
-6.87445e-07
-1.24667e-07
-6.44032e-07
-1.29637e-07
-5.98894e-07
-1.34945e-07
-5.51917e-07
-1.40602e-07
-5.02983e-07
-1.46618e-07
-4.5197e-07
-1.53e-07
-3.98757e-07
-1.59753e-07
-3.4322e-07
-1.66877e-07
-2.85237e-07
-1.74373e-07
-2.24685e-07
-1.82232e-07
-1.61448e-07
-1.90447e-07
-9.54114e-08
-1.99001e-07
-2.64664e-08
-2.07875e-07
4.54925e-08
-2.17048e-07
1.20569e-07
-2.26495e-07
1.98853e-07
-2.36193e-07
2.80437e-07
-2.46119e-07
3.65402e-07
-2.56224e-07
4.53785e-07
-2.66446e-07
5.4559e-07
-2.76716e-07
6.40802e-07
-2.86966e-07
7.39377e-07
-2.97113e-07
8.41247e-07
-3.07061e-07
9.46309e-07
-3.16705e-07
1.05443e-06
-3.25933e-07
1.16544e-06
-3.34631e-07
1.27912e-06
-3.42679e-07
1.39523e-06
-3.49955e-07
1.51347e-06
-3.56336e-07
1.63353e-06
-3.617e-07
1.75502e-06
-3.65931e-07
1.87755e-06
-3.68917e-07
2.00068e-06
-3.70554e-07
2.12394e-06
-3.70752e-07
2.24685e-06
-3.69436e-07
2.36889e-06
-3.66544e-07
2.48955e-06
-3.62038e-07
2.60829e-06
-3.55896e-07
2.72458e-06
-3.4812e-07
2.83791e-06
-3.3873e-07
2.94776e-06
-3.27764e-07
3.05365e-06
-3.15278e-07
3.15511e-06
-3.01335e-07
3.25168e-06
-2.86002e-07
3.34294e-06
-2.69344e-07
3.42849e-06
-2.51404e-07
3.50792e-06
-2.32195e-07
3.58083e-06
-2.11667e-07
3.64675e-06
-1.89678e-07
3.70518e-06
-1.65919e-07
3.75548e-06
-1.39795e-07
3.79681e-06
-1.10204e-07
3.82814e-06
-7.53489e-08
3.84921e-06
-3.11383e-08
3.85929e-06
2.8454e-08
3.86236e-06
1.20539e-07
2.60171e-07
3.85893e-06
-1.05104e-08
-7.25693e-08
-3.19825e-08
-4.21755e-08
-5.70746e-08
-1.24894e-08
-8.48759e-08
1.46057e-08
-1.15302e-07
4.02339e-08
-1.48445e-07
6.48445e-08
-1.84402e-07
8.85318e-08
-2.23241e-07
1.11197e-07
-2.64989e-07
1.32645e-07
-3.09597e-07
1.52656e-07
-3.56853e-07
1.71051e-07
-4.06316e-07
1.87695e-07
-4.57321e-07
2.02469e-07
-5.09058e-07
2.15235e-07
-5.60689e-07
2.25827e-07
-6.1147e-07
2.34083e-07
-6.60832e-07
2.39892e-07
-7.08413e-07
2.4324e-07
-7.54045e-07
2.44218e-07
-7.97715e-07
2.43024e-07
-8.39518e-07
2.39927e-07
-8.79606e-07
2.35242e-07
-9.18152e-07
2.29293e-07
-9.55327e-07
2.22395e-07
-9.91285e-07
2.14835e-07
-1.02615e-06
2.06862e-07
-1.06001e-06
1.98686e-07
-1.09295e-06
1.90475e-07
-1.125e-06
1.8236e-07
-1.1562e-06
1.74437e-07
-1.18655e-06
1.66776e-07
-1.21607e-06
1.59418e-07
-1.24476e-06
1.52387e-07
-1.27261e-06
1.45691e-07
-1.29961e-06
1.39327e-07
-1.32578e-06
1.3328e-07
-1.3511e-06
1.27534e-07
-1.37558e-06
1.22065e-07
-1.39921e-06
1.16848e-07
-1.422e-06
1.11857e-07
-1.44395e-06
1.07067e-07
-1.46505e-06
1.02453e-07
-1.48531e-06
9.7991e-08
-1.50473e-06
9.36587e-08
-1.52331e-06
8.94358e-08
-1.54106e-06
8.53039e-08
-1.55796e-06
8.12464e-08
-1.57401e-06
7.72486e-08
-1.58923e-06
7.32978e-08
-1.60359e-06
6.9383e-08
-1.6171e-06
6.54949e-08
-1.62976e-06
6.16256e-08
-1.64155e-06
5.77688e-08
-1.65249e-06
5.39197e-08
-1.66255e-06
5.00744e-08
-1.67175e-06
4.62303e-08
-1.68007e-06
4.23858e-08
-1.68751e-06
3.85402e-08
-1.69408e-06
3.46938e-08
-1.69976e-06
3.08474e-08
-1.70457e-06
2.70028e-08
-1.7085e-06
2.31624e-08
-1.71155e-06
1.93296e-08
-1.71373e-06
1.55083e-08
-1.71505e-06
1.17035e-08
-1.71551e-06
7.92086e-09
-1.71511e-06
4.16708e-09
-1.71387e-06
4.49039e-10
-1.71177e-06
-3.22641e-09
-1.70883e-06
-6.85432e-09
-1.70503e-06
-1.04339e-08
-1.70038e-06
-1.39686e-08
-1.69489e-06
-1.74602e-08
-1.68855e-06
-2.09085e-08
-1.68139e-06
-2.43118e-08
-1.67341e-06
-2.76678e-08
-1.66462e-06
-3.09734e-08
-1.65503e-06
-3.42257e-08
-1.64466e-06
-3.74213e-08
-1.63353e-06
-4.05575e-08
-1.62164e-06
-4.36312e-08
-1.60901e-06
-4.66401e-08
-1.59566e-06
-4.95819e-08
-1.58161e-06
-5.24547e-08
-1.56687e-06
-5.52571e-08
-1.55146e-06
-5.79882e-08
-1.53539e-06
-6.06474e-08
-1.51868e-06
-6.32346e-08
-1.50136e-06
-6.57504e-08
-1.48343e-06
-6.81957e-08
-1.46492e-06
-7.05722e-08
-1.44584e-06
-7.28821e-08
-1.4262e-06
-7.51282e-08
-1.40603e-06
-7.7314e-08
-1.38534e-06
-7.94436e-08
-1.36413e-06
-8.15221e-08
-1.34242e-06
-8.35552e-08
-1.32022e-06
-8.55494e-08
-1.29755e-06
-8.75122e-08
-1.27439e-06
-8.94516e-08
-1.25077e-06
-9.1377e-08
-1.22669e-06