/*--------------------------------*- C++ -*----------------------------------*\
| =========                 |                                                 |
| \\      /  F ield         | OpenFOAM: The Open Source CFD Toolbox           |
|  \\    /   O peration     | Version:  2412                                  |
|   \\  /    A nd           | Website:  www.openfoam.com                      |
|    \\/     M anipulation  |                                                 |
\*---------------------------------------------------------------------------*/
FoamFile
{
    version     2.0;
    format      ascii;
    arch        "LSB;label=32;scalar=64";
    class       volVectorField;
    location    "0.08";
    object      U;
}
// * * * * * * * * * * * * * * * * * * * * * * * * * * * * * * * * * * * * * //

dimensions      [0 1 -1 0 0 0 0];

internalField   nonuniform List<vector> 
12225
(
(0.377184 -0.200896 0)
(0.543962 -0.0519265 0)
(0.711041 -0.0340132 0)
(0.893962 -0.0304747 0)
(1.05908 -0.0297442 0)
(1.2088 -0.0284492 0)
(1.3461 -0.0265144 0)
(1.47037 -0.0245714 0)
(1.58209 -0.0227623 0)
(1.68254 -0.0210704 0)
(1.77289 -0.0194936 0)
(1.85409 -0.0180247 0)
(1.92698 -0.0166439 0)
(1.99227 -0.0153132 0)
(2.05034 -0.0140188 0)
(2.10218 -0.0126329 0)
(2.14434 -0.0107581 0)
(2.19395 -0.013839 0)
(0.933503 -0.0317784 0)
(1.0567 -0.0587088 0)
(1.23663 -0.0688971 0)
(1.42153 -0.0644798 0)
(1.58548 -0.061806 0)
(1.73436 -0.0589584 0)
(1.87123 -0.0555551 0)
(1.99592 -0.0521669 0)
(2.1089 -0.0489247 0)
(2.21121 -0.0458362 0)
(2.30384 -0.0429169 0)
(2.38762 -0.0401546 0)
(2.46331 -0.0375112 0)
(2.53154 -0.0349166 0)
(2.59276 -0.0323315 0)
(2.64738 -0.0293749 0)
(2.69505 -0.0268532 0)
(2.73754 -0.0181201 0)
(1.39962 -0.0846818 0)
(1.49179 -0.105675 0)
(1.65464 -0.107231 0)
(1.82257 -0.101932 0)
(1.97263 -0.0979771 0)
(2.11031 -0.093637 0)
(2.23766 -0.0887228 0)
(2.35437 -0.0837779 0)
(2.46078 -0.0789755 0)
(2.55768 -0.0743628 0)
(2.64582 -0.0699669 0)
(2.72588 -0.0657718 0)
(2.79849 -0.0617241 0)
(2.86418 -0.0577299 0)
(2.92338 -0.0536867 0)
(2.97633 -0.0492472 0)
(3.02322 -0.044558 0)
(3.06311 -0.036181 0)
(1.89741 -0.115424 0)
(1.94623 -0.143304 0)
(2.07519 -0.144974 0)
(2.21744 -0.140752 0)
(2.34793 -0.13576 0)
(2.46966 -0.130022 0)
(2.58342 -0.123668 0)
(2.68853 -0.117178 0)
(2.78508 -0.11079 0)
(2.87352 -0.104607 0)
(2.95438 -0.0986726 0)
(3.02815 -0.0929735 0)
(3.09531 -0.0874461 0)
(3.15628 -0.0819755 0)
(3.21143 -0.0764113 0)
(3.26091 -0.0703951 0)
(3.30521 -0.0637535 0)
(3.34258 -0.0536179 0)
(2.43108 -0.125829 0)
(2.4405 -0.169885 0)
(2.52879 -0.177399 0)
(2.63999 -0.176152 0)
(2.74675 -0.171205 0)
(2.84894 -0.164699 0)
(2.94606 -0.15734 0)
(3.03687 -0.149637 0)
(3.12108 -0.141921 0)
(3.19883 -0.134365 0)
(3.27037 -0.127046 0)
(3.33598 -0.119962 0)
(3.39599 -0.113049 0)
(3.45068 -0.106183 0)
(3.50036 -0.0991797 0)
(3.54513 -0.0916811 0)
(3.58574 -0.0833205 0)
(3.61995 -0.0718621 0)
(2.99683 -0.123682 0)
(2.97697 -0.185361 0)
(3.02467 -0.201443 0)
(3.10199 -0.204927 0)
(3.18204 -0.201541 0)
(3.26188 -0.195216 0)
(3.33983 -0.187507 0)
(3.41408 -0.17911 0)
(3.48389 -0.170486 0)
(3.54904 -0.161903 0)
(3.6095 -0.153484 0)
(3.66536 -0.145254 0)
(3.71674 -0.137163 0)
(3.76383 -0.129087 0)
(3.80682 -0.120834 0)
(3.84578 -0.112065 0)
(3.88165 -0.102359 0)
(3.91174 -0.0901175 0)
(3.58832 -0.114505 0)
(3.55089 -0.190572 0)
(3.56318 -0.215871 0)
(3.60674 -0.225286 0)
(3.65868 -0.224965 0)
(3.71434 -0.219908 0)
(3.77128 -0.212625 0)
(3.82719 -0.20416 0)
(3.8809 -0.195144 0)
(3.93186 -0.185962 0)
(3.97976 -0.176807 0)
(4.02446 -0.167744 0)
(4.06594 -0.15875 0)
(4.10423 -0.149719 0)
(4.13945 -0.14047 0)
(4.17159 -0.130712 0)
(4.20169 -0.120057 0)
(4.22661 -0.107434 0)
(4.1988 -0.101763 0)
(4.15396 -0.187061 0)
(4.13916 -0.22068 0)
(4.15214 -0.236271 0)
(4.17662 -0.240089 0)
(4.20767 -0.23733 0)
(4.24269 -0.231289 0)
(4.27917 -0.223436 0)
(4.31562 -0.214603 0)
(4.3512 -0.205312 0)
(4.38539 -0.195843 0)
(4.41783 -0.18632 0)
(4.44834 -0.176758 0)
(4.47682 -0.167083 0)
(4.50331 -0.157148 0)
(4.52773 -0.146723 0)
(4.55114 -0.135507 0)
(4.56989 -0.122825 0)
(4.82185 -0.0878042 0)
(4.77661 -0.176857 0)
(4.74387 -0.216811 0)
(4.73185 -0.237781 0)
(4.73171 -0.246064 0)
(4.73946 -0.246332 0)
(4.7529 -0.242242 0)
(4.76981 -0.235651 0)
(4.78857 -0.227588 0)
(4.8082 -0.218706 0)
(4.82798 -0.209385 0)
(4.84743 -0.199817 0)
(4.86623 -0.190066 0)
(4.88417 -0.180105 0)
(4.90119 -0.169835 0)
(4.91715 -0.159099 0)
(4.93307 -0.147697 0)
(4.94482 -0.135247 0)
(5.45146 -0.0741032 0)
(5.40949 -0.161989 0)
(5.36679 -0.205789 0)
(5.33649 -0.230589 0)
(5.31628 -0.242827 0)
(5.30373 -0.246328 0)
(5.29746 -0.244624 0)
(5.29582 -0.239791 0)
(5.29743 -0.233004 0)
(5.30128 -0.225018 0)
(5.30662 -0.216299 0)
(5.31288 -0.207109 0)
(5.31967 -0.197569 0)
(5.32669 -0.187705 0)
(5.33382 -0.177475 0)
(5.34083 -0.166792 0)
(5.34871 -0.155566 0)
(5.35284 -0.143615 0)
(6.08167 -0.0613872 0)
(6.0441 -0.144146 0)
(5.99711 -0.189273 0)
(5.95489 -0.216094 0)
(5.91998 -0.231159 0)
(5.89145 -0.237516 0)
(5.86868 -0.238215 0)
(5.85081 -0.23535 0)
(5.83688 -0.230155 0)
(5.82607 -0.223426 0)
(5.81771 -0.215685 0)
(5.81126 -0.20725 0)
(5.80631 -0.198295 0)
(5.80252 -0.188897 0)
(5.79974 -0.17907 0)
(5.79768 -0.168794 0)
(5.79729 -0.158075 0)
(5.7935 -0.14687 0)
(6.65461 -0.050594 0)
(6.62054 -0.126166 0)
(6.57302 -0.170519 0)
(6.52473 -0.197679 0)
(6.48106 -0.214113 0)
(6.4422 -0.222346 0)
(6.40801 -0.224876 0)
(6.37823 -0.223674 0)
(6.3524 -0.219959 0)
(6.32999 -0.214512 0)
(6.31049 -0.207862 0)
(6.29348 -0.200352 0)
(6.27858 -0.192191 0)
(6.2655 -0.183495 0)
(6.25407 -0.174318 0)
(6.24397 -0.164695 0)
(6.23616 -0.154671 0)
(6.22518 -0.144404 0)
(7.20973 -0.0406451 0)
(7.18016 -0.107349 0)
(7.13445 -0.149534 0)
(7.08338 -0.176035 0)
(7.03438 -0.192844 0)
(6.98871 -0.202194 0)
(6.94646 -0.206046 0)
(6.9078 -0.206171 0)
(6.87268 -0.203746 0)
(6.84088 -0.199509 0)
(6.81212 -0.193967 0)
(6.7861 -0.187462 0)
(6.76256 -0.180219 0)
(6.74126 -0.172378 0)
(6.72206 -0.164025 0)
(6.70466 -0.155232 0)
(6.68996 -0.146059 0)
(6.67237 -0.136879 0)
(7.81811 -0.0310543 0)
(7.79337 -0.086079 0)
(7.75171 -0.123762 0)
(7.70079 -0.148186 0)
(7.6492 -0.16419 0)
(7.59944 -0.173789 0)
(7.55186 -0.17841 0)
(7.5068 -0.179496 0)
(7.46458 -0.178131 0)
(7.42527 -0.175004 0)
(7.3888 -0.170574 0)
(7.35503 -0.165162 0)
(7.32383 -0.158988 0)
(7.29506 -0.152204 0)
(7.26863 -0.144912 0)
(7.2443 -0.137205 0)
(7.2229 -0.129169 0)
(7.19896 -0.121264 0)
(8.45855 -0.0222784 0)
(8.43892 -0.0637121 0)
(8.4034 -0.0941591 0)
(8.35605 -0.11454 0)
(8.30529 -0.128147 0)
(8.25474 -0.136718 0)
(8.20514 -0.141225 0)
(8.15698 -0.142665 0)
(8.11081 -0.141917 0)
(8.06694 -0.139582 0)
(8.0255 -0.136058 0)
(7.98648 -0.131627 0)
(7.94986 -0.126494 0)
(7.91561 -0.120807 0)
(7.88371 -0.114676 0)
(7.85395 -0.108199 0)
(7.82714 -0.101468 0)
(7.79818 -0.094969 0)
(9.08866 -0.0143518 0)
(9.07382 -0.0416775 0)
(9.04559 -0.0627455 0)
(9.00493 -0.0770495 0)
(8.95891 -0.0864358 0)
(8.9116 -0.0922745 0)
(8.86409 -0.0952571 0)
(8.81693 -0.0959943 0)
(8.77079 -0.0950797 0)
(8.72623 -0.0929596 0)
(8.68353 -0.0899304 0)
(8.64281 -0.0862008 0)
(8.60416 -0.08193 0)
(8.56761 -0.0772393 0)
(8.5332 -0.0722291 0)
(8.50078 -0.0669935 0)
(8.47109 -0.0615998 0)
(8.4398 -0.0565548 0)
(9.63295 -0.00705188 0)
(9.62169 -0.0206431 0)
(9.59986 -0.0312893 0)
(9.56658 -0.038228 0)
(9.52744 -0.0422206 0)
(9.48639 -0.0440983 0)
(9.44466 -0.0443117 0)
(9.40266 -0.043199 0)
(9.36101 -0.0411028 0)
(9.32026 -0.0383059 0)
(9.28079 -0.0350032 0)
(9.24278 -0.0313311 0)
(9.20638 -0.0273966 0)
(9.17167 -0.0232905 0)
(9.13871 -0.0190842 0)
(9.10743 -0.0148574 0)
(9.07839 -0.0106239 0)
(9.04858 -0.00687822 0)
(9.96404 0.000130127 0)
(9.95459 0.000231431 0)
(9.93648 0.000738655 0)
(9.90812 0.00203329 0)
(9.87422 0.00402743 0)
(9.83858 0.00652981 0)
(9.80245 0.00943625 0)
(9.7662 0.0126754 0)
(9.73027 0.0161633 0)
(9.69516 0.0198197 0)
(9.66119 0.0235823 0)
(9.62851 0.0274016 0)
(9.59718 0.0312325 0)
(9.56724 0.0350251 0)
(9.53873 0.0387384 0)
(9.5116 0.0423087 0)
(9.48601 0.0457599 0)
(9.46097 0.0486758 0)
(9.87499 0.00749624 0)
(9.86688 0.0218666 0)
(9.84987 0.0343279 0)
(9.8225 0.0445764 0)
(9.78961 0.0530363 0)
(9.75501 0.0601898 0)
(9.71998 0.0663342 0)
(9.68489 0.0716846 0)
(9.65022 0.0764379 0)
(9.61646 0.0807531 0)
(9.58394 0.0847379 0)
(9.55279 0.0884602 0)
(9.52306 0.0919621 0)
(9.49479 0.095267 0)
(9.46796 0.0983828 0)
(9.44257 0.10129 0)
(9.41835 0.104025 0)
(9.39634 0.106306 0)
(9.28437 0.0159395 0)
(9.27065 0.0462606 0)
(9.2458 0.071289 0)
(9.20984 0.0905557 0)
(9.16902 0.10542 0)
(9.12733 0.117084 0)
(9.08586 0.12623 0)
(9.04501 0.133399 0)
(9.00532 0.139105 0)
(8.9673 0.143752 0)
(8.93119 0.147617 0)
(8.89708 0.150892 0)
(8.86498 0.153713 0)
(8.83485 0.156182 0)
(8.80662 0.158368 0)
(8.78026 0.160318 0)
(8.75528 0.162083 0)
(8.73369 0.163515 0)
(8.47102 0.0261084 0)
(8.45237 0.0738627 0)
(8.41972 0.110439 0)
(8.37629 0.137012 0)
(8.33002 0.156698 0)
(8.28462 0.171347 0)
(8.24081 0.181989 0)
(8.19891 0.189585 0)
(8.15939 0.194993 0)
(8.12254 0.198839 0)
(8.08842 0.20155 0)
(8.05694 0.203432 0)
(8.02799 0.204716 0)
(8.00143 0.20557 0)
(7.97708 0.20612 0)
(7.95485 0.206464 0)
(7.93421 0.206658 0)
(7.91718 0.206661 0)
(7.51239 0.0385385 0)
(7.4866 0.104549 0)
(7.44647 0.150305 0)
(7.39958 0.181465 0)
(7.354 0.203475 0)
(7.3119 0.218632 0)
(7.27327 0.228464 0)
(7.23819 0.23451 0)
(7.20676 0.237982 0)
(7.17887 0.239682 0)
(7.15425 0.24015 0)
(7.13261 0.239778 0)
(7.11366 0.238849 0)
(7.09712 0.237566 0)
(7.08271 0.236071 0)
(7.07025 0.234472 0)
(7.05922 0.232825 0)
(7.05136 0.23115 0)
(6.48931 0.054237 0)
(6.45656 0.136939 0)
(6.41297 0.187012 0)
(6.37067 0.218641 0)
(6.33494 0.239502 0)
(6.30535 0.252174 0)
(6.28116 0.2589 0)
(6.26197 0.26176 0)
(6.2472 0.262141 0)
(6.23616 0.260898 0)
(6.22826 0.258611 0)
(6.22297 0.255694 0)
(6.21985 0.252429 0)
(6.21852 0.249009 0)
(6.21867 0.245561 0)
(6.22006 0.242174 0)
(6.22224 0.238894 0)
(6.22662 0.235776 0)
(5.45712 0.0733987 0)
(5.41829 0.166518 0)
(5.3787 0.214165 0)
(5.3528 0.242009 0)
(5.33869 0.258417 0)
(5.33254 0.266192 0)
(5.33281 0.268386 0)
(5.33823 0.267326 0)
(5.3474 0.264329 0)
(5.35926 0.26018 0)
(5.37302 0.255408 0)
(5.3881 0.250368 0)
(5.40405 0.245285 0)
(5.42055 0.240298 0)
(5.43732 0.235492 0)
(5.45419 0.230919 0)
(5.47085 0.226601 0)
(5.48843 0.222602 0)
(4.45282 0.0947837 0)
(4.41206 0.187432 0)
(4.3905 0.22597 0)
(4.39663 0.246445 0)
(4.41654 0.255983 0)
(4.44343 0.2579 0)
(4.47537 0.255665 0)
(4.51049 0.251293 0)
(4.54708 0.245763 0)
(4.58409 0.239671 0)
(4.62091 0.233414 0)
(4.65711 0.227234 0)
(4.6924 0.221271 0)
(4.72663 0.2156 0)
(4.75967 0.210261 0)
(4.7915 0.205267 0)
(4.82195 0.200621 0)
(4.85199 0.196386 0)
(3.50293 0.114456 0)
(3.47302 0.192935 0)
(3.48915 0.217673 0)
(3.54123 0.228923 0)
(3.60266 0.231509 0)
(3.66657 0.228886 0)
(3.73188 0.223891 0)
(3.79688 0.217792 0)
(3.86015 0.211192 0)
(3.92106 0.204489 0)
(3.97934 0.197936 0)
(4.03488 0.191675 0)
(4.08764 0.185775 0)
(4.13768 0.180264 0)
(4.18509 0.175146 0)
(4.23001 0.170409 0)
(4.27244 0.166043 0)
(4.31321 0.162117 0)
(2.62982 0.122985 0)
(2.63208 0.176398 0)
(2.70179 0.187987 0)
(2.80473 0.19111 0)
(2.90739 0.189145 0)
(3.00612 0.184634 0)
(3.10172 0.178968 0)
(3.19319 0.172792 0)
(3.27971 0.166506 0)
(3.36113 0.160364 0)
(3.43761 0.154513 0)
(3.50935 0.149026 0)
(3.57661 0.143927 0)
(3.63968 0.139217 0)
(3.69883 0.13488 0)
(3.75436 0.130894 0)
(3.80646 0.127236 0)
(3.85587 0.124001 0)
(1.85178 0.104827 0)
(1.90639 0.134444 0)
(2.03035 0.141909 0)
(2.17816 0.14053 0)
(2.31592 0.137059 0)
(2.4435 0.132948 0)
(2.56377 0.128135 0)
(2.67663 0.123028 0)
(2.78173 0.117986 0)
(2.87938 0.113163 0)
(2.97009 0.108633 0)
(3.0544 0.104431 0)
(3.13281 0.100561 0)
(3.2058 0.0970107 0)
(3.27383 0.0937592 0)
(3.33736 0.0907831 0)
(3.39668 0.0880468 0)
(3.45254 0.0856574 0)
(1.17533 0.0416901 0)
(1.28238 0.0661085 0)
(1.4387 0.088993 0)
(1.61662 0.0891865 0)
(1.78039 0.0862429 0)
(1.92923 0.0833471 0)
(2.06752 0.0798526 0)
(2.19597 0.0761393 0)
(2.31449 0.0725524 0)
(2.42365 0.0691763 0)
(2.52432 0.0660363 0)
(2.61729 0.0631479 0)
(2.70327 0.0605077 0)
(2.78292 0.0580995 0)
(2.85682 0.0559027 0)
(2.92555 0.0539004 0)
(2.9895 0.0520308 0)
(3.04941 0.050393 0)
(0.469484 0.226529 0)
(0.642365 0.0691641 0)
(0.788947 0.0480286 0)
(0.972477 0.0444147 0)
(1.14917 0.042978 0)
(1.30922 0.0416866 0)
(1.45697 0.0396551 0)
(1.59337 0.037341 0)
(1.71824 0.035124 0)
(1.83233 0.0330771 0)
(1.93681 0.0311958 0)
(2.0327 0.0294782 0)
(2.12089 0.0279176 0)
(2.20214 0.0265012 0)
(2.27717 0.025213 0)
(2.34661 0.0240459 0)
(2.41098 0.0229466 0)
(2.47057 0.0219942 0)
(0.0129111 -0.0199804 -2.86958e-20)
(0.0435679 -0.043784 2.76141e-20)
(0.0778352 -0.0515506 0)
(0.10872 -0.048535 0)
(0.13147 -0.0390904 0)
(0.14476 -0.0262491 -2.53078e-20)
(0.148803 -0.0119583 0)
(0.14238 0.00187612 0)
(0.127589 0.0135725 0)
(0.106292 0.0222429 0)
(0.0800115 0.0278713 2.49573e-20)
(0.0499258 0.0311736 0)
(0.0165893 0.0332855 0)
(-0.0197963 0.0354356 0)
(-0.0596129 0.0385476 0)
(-0.1036 0.0430126 2.36914e-20)
(-0.152112 0.0485222 0)
(-0.205203 0.0544144 0)
(-0.26255 0.0600261 0)
(-0.323535 0.0648593 0)
(-0.387361 0.0686082 0)
(-0.45312 0.0711406 0)
(-0.51985 0.0724653 0)
(-0.586826 0.0727066 1.92081e-20)
(-0.653283 0.0719758 -1.8798e-20)
(-0.718598 0.0704319 1.84243e-20)
(-0.782265 0.0682502 1.80843e-20)
(-0.843903 0.0656045 0)
(-0.903245 0.0626539 0)
(-0.96013 0.0595355 -1.72343e-20)
(-1.01448 0.0563614 -1.69966e-20)
(-1.06628 0.0532183 0)
(-1.11559 0.0501693 0)
(-1.16248 0.0472572 -1.63795e-20)
(-1.20707 0.0445078 0)
(-1.24948 0.0419336 0)
(-1.28984 0.0395373 1.58596e-20)
(-1.32828 0.0373143 0)
(-1.36492 0.0352551 1.5545e-20)
(-1.39989 0.0333474 3.07875e-20)
(-1.43329 0.0315776 0)
(-1.46522 0.0299312 0)
(-1.49576 0.0283943 0)
(-1.52499 0.0269535 0)
(-1.55297 0.0255965 0)
(-1.57976 0.0243121 2.90471e-20)
(-1.60541 0.0230904 2.87595e-20)
(-1.62996 0.0219224 2.84706e-20)
(-1.65344 0.0208006 0)
(-1.67587 0.0197184 -2.78861e-20)
(-1.69728 0.0186701 0)
(-1.71768 0.0176509 2.72897e-20)
(-1.73709 0.0166568 2.6986e-20)
(-1.75551 0.0156844 0)
(-1.77295 0.0147309 0)
(-1.78942 0.0137938 0)
(-1.80492 0.012871 2.57262e-20)
(-1.81945 0.0119604 0)
(-1.83301 0.0110601 0)
(-1.8456 0.010168 0)
(-1.85721 0.00928148 0)
(-1.86785 0.00839778 0)
(-1.8775 0.00751347 0)
(-1.88617 0.00662457 0)
(-1.89383 0.00572642 0)
(-1.90047 0.00481428 -2.25668e-20)
(-1.90608 0.00388538 0)
(-1.91064 0.00294434 0)
(-1.91411 0.00200993 2.14039e-20)
(-1.91644 0.00111344 2.10044e-20)
(-1.91759 0.000295576 0)
(-1.91783 -0.000393669 -2.01802e-20)
(-1.91722 -0.0010064 1.97578e-20)
(-1.91577 -0.00158096 0)
(-1.91351 -0.0021307 -1.88928e-20)
(-1.91046 -0.00266146 0)
(-1.90663 -0.00317542 0)
(-1.90203 -0.00367348 1.75459e-20)
(-1.89668 -0.00415587 0)
(-1.89059 -0.00462264 -1.66166e-20)
(-1.88377 -0.00507374 0)
(-1.87623 -0.00550914 1.56635e-20)
(-1.86799 -0.00592885 1.51785e-20)
(-1.85907 -0.00633291 1.46881e-20)
(-1.84948 -0.00672147 2.83852e-20)
(-1.83923 -0.00709471 -2.73843e-20)
(-1.82834 -0.00745292 0)
(-1.81682 -0.00779645 0)
(-1.8047 -0.00812572 0)
(-1.79198 -0.00844128 -2.32904e-20)
(-1.77868 -0.00874371 -2.22465e-20)
(-1.76482 -0.00903371 2.11955e-20)
(-1.7504 -0.00931207 0)
(-1.73544 -0.00957967 -1.90733e-20)
(-1.71996 -0.00983749 -1.8003e-20)
(-1.70396 -0.0100866 -1.6927e-20)
(-1.68745 -0.0103282 0)
(-1.67044 -0.0105636 0)
(-1.65294 -0.010794 0)
(-1.63495 -0.0110211 -1.25731e-20)
(-1.61647 -0.0112463 0)
(-1.5975 -0.0114714 0)
(-1.57804 -0.0116981 9.26145e-21)
(-1.55808 -0.0119282 0)
(-1.53761 -0.0121638 0)
(-1.51662 -0.0124069 5.91277e-21)
(-1.4951 -0.0126597 0)
(-1.47302 -0.0129244 0)
(-1.45035 -0.0132034 -2.52341e-21)
(-1.42708 -0.0134991 -1.383e-21)
(-1.40317 -0.013814 0)
(-1.37858 -0.0141506 -9.17093e-22)
(-1.35326 -0.0145116 0)
(-1.32718 -0.0148995 3.24795e-21)
(-1.30027 -0.0153173 0)
(-1.27248 -0.0157675 5.61724e-21)
(-1.24374 -0.0162529 6.81919e-21)
(-1.21398 -0.0167764 0)
(-1.18314 -0.0173407 0)
(-1.15111 -0.0179484 0)
(-1.11783 -0.0186022 0)
(-1.08318 -0.0193048 0)
(-1.04708 -0.0200586 0)
(-1.00942 -0.020866 0)
(-0.970082 -0.0217291 1.7052e-20)
(-0.928956 -0.02265 -1.84357e-20)
(-0.88592 -0.0236304 0)
(-0.840849 -0.024672 0)
(-0.793616 -0.0257757 0)
(-0.74409 -0.0269424 0)
(-0.692138 -0.0281726 -5.16976e-20)
(-0.637628 -0.0294661 0)
(-0.580426 -0.0308222 5.8168e-20)
(-0.520401 -0.0322399 -6.1534e-20)
(-0.457425 -0.0337165 0)
(-0.391374 -0.0352492 0)
(-0.322134 -0.0368308 0)
(-0.249598 -0.0384475 7.59342e-20)
(-0.173681 -0.0400628 7.97774e-20)
(-0.0943195 -0.0416057 0)
(-0.0115244 -0.0429385 8.72009e-20)
(0.0748602 -0.0440577 8.95263e-20)
(0.164864 -0.0450808 -9.11677e-20)
(0.258524 -0.0460604 0)
(0.355848 -0.0469871 0)
(0.456806 -0.0478441 -9.52148e-20)
(0.561335 -0.0486161 0)
(0.669332 -0.0492888 0)
(0.780654 -0.049849 0)
(0.895113 -0.050284 0)
(1.01248 -0.050582 9.85827e-20)
(1.13249 -0.0507319 9.87018e-20)
(1.25482 -0.0507236 0)
(1.37911 -0.0505486 9.83738e-20)
(1.50496 -0.0501993 0)
(1.63193 -0.0496705 0)
(1.75955 -0.0489585 9.65223e-20)
(1.88729 -0.0480621 0)
(2.01462 -0.0469821 9.44745e-20)
(2.14099 -0.045722 0)
(2.26582 -0.0442876 0)
(2.38853 -0.0426869 9.04449e-20)
(2.50853 -0.0409299 0)
(2.62525 -0.0390283 8.7323e-20)
(2.73813 -0.0369951 0)
(2.84663 -0.0348435 0)
(2.95021 -0.0325865 0)
(3.04837 -0.0302358 -8.07711e-20)
(3.14062 -0.0278002 0)
(3.22648 -0.0252844 7.76947e-20)
(3.30544 -0.0226841 0)
(3.37696 -0.0199876 0)
(3.4404 -0.0171636 0)
(3.49494 -0.014084 0)
(3.539 -0.0107614 0)
(3.5716 -0.00620533 0)
(3.58545 0.00199556 0)
(3.561 0.0142652 -1.45322e-19)
(3.50043 0.0376516 0)
(3.28996 0.0609531 0)
(0.0213041 -0.0982927 8.36361e-20)
(0.048309 -0.115051 -7.72258e-20)
(0.0623379 -0.0945334 0)
(0.0668183 -0.0670093 4.48877e-20)
(0.0634906 -0.0382642 0)
(0.0534582 -0.0101262 2.1081e-20)
(0.0377935 0.0164032 -4.14559e-20)
(0.0177311 0.040237 -4.10516e-20)
(-0.00751714 0.0605494 0)
(-0.038221 0.0771905 -3.98159e-20)
(-0.0744973 0.090787 -1.94965e-20)
(-0.116323 0.102462 0)
(-0.16356 0.113381 0)
(-0.215856 0.124353 0)
(-0.272629 0.135593 0)
(-0.333105 0.146841 -1.70305e-20)
(-0.396363 0.157441 0)
(-0.461423 0.166643 3.20716e-20)
(-0.52731 0.173836 0)
(-0.593114 0.178653 0)
(-0.658032 0.180988 -2.96436e-20)
(-0.721394 0.180947 0)
(-0.782674 0.178792 2.8304e-20)
(-0.841498 0.174861 -1.3892e-20)
(-0.897625 0.169511 1.36201e-20)
(-0.950946 0.163106 -1.33718e-20)
(-1.00146 0.155986 -1.31447e-20)
(-1.04923 0.148454 0)
(-1.09438 0.14076 0)
(-1.13707 0.133106 1.25669e-20)
(-1.17746 0.125641 -1.23402e-20)
(-1.21574 0.118473 0)
(-1.25207 0.111669 0)
(-1.2866 0.105266 1.19628e-20)
(-1.31947 0.0992789 0)
(-1.35082 0.0937022 0)
(-1.38076 0.0885197 -1.15824e-20)
(-1.40938 0.0837065 0)
(-1.43676 0.079233 1.12767e-20)
(-1.46298 0.0750677 -2.24702e-20)
(-1.4881 0.0711786 0)
(-1.51217 0.0675346 0)
(-1.53523 0.0641067 -4.34803e-20)
(-1.55732 0.060868 -4.30486e-20)
(-1.57846 0.0577942 -4.26183e-20)
(-1.59867 0.0548637 2.10313e-20)
(-1.61798 0.0520574 -2.09391e-20)
(-1.6364 0.0493587 -6.20444e-20)
(-1.65395 0.0467532 4.08885e-20)
(-1.67062 0.0442285 2.02775e-20)
(-1.68643 0.0417743 0)
(-1.70138 0.0393819 -1.98259e-20)
(-1.71548 0.0370438 1.9508e-20)
(-1.72872 0.0347541 0)
(-1.7411 0.0325079 0)
(-1.75263 0.0303011 0)
(-1.76331 0.0281305 -1.86441e-20)
(-1.77312 0.0259935 0)
(-1.78208 0.0238877 3.62434e-20)
(-1.79018 0.0218115 0)
(-1.79742 0.0197629 3.52286e-20)
(-1.8038 0.0177405 0)
(-1.80933 0.0157425 -3.41799e-20)
(-1.814 0.0137671 0)
(-1.81782 0.0118128 3.30963e-20)
(-1.82081 0.00987806 -1.62709e-20)
(-1.82298 0.0079614 0)
(-1.82437 0.00606433 -3.1404e-20)
(-1.82503 0.00420028 -1.54008e-20)
(-1.82502 0.00240009 -1.51003e-20)
(-1.82442 0.000696608 0)
(-1.82307 -0.000886784 -1.45222e-20)
(-1.82094 -0.00238214 -1.41715e-20)
(-1.81802 -0.00381491 0)
(-1.81431 -0.00519667 1.35318e-20)
(-1.80981 -0.00653336 -2.64732e-20)
(-1.80454 -0.00782731 0)
(-1.7985 -0.00907932 -1.25418e-20)
(-1.7917 -0.0102895 0)
(-1.78416 -0.0114577 3.56724e-20)
(-1.77589 -0.0125837 0)
(-1.7669 -0.0136674 -3.36022e-20)
(-1.75721 -0.0147086 -1.0817e-20)
(-1.74683 -0.0157077 1.05675e-20)
(-1.73577 -0.0166647 2.04281e-20)
(-1.72405 -0.0175802 -1.97151e-20)
(-1.71169 -0.0184548 0)
(-1.69869 -0.0192894 0)
(-1.68509 -0.0200849 0)
(-1.67088 -0.0208426 4.9894e-20)
(-1.65609 -0.0215639 1.57963e-20)
(-1.64073 -0.0222502 -1.50448e-20)
(-1.62481 -0.0229035 0)
(-1.60835 -0.0235257 -1.38219e-20)
(-1.59136 -0.0241191 1.27674e-20)
(-1.57385 -0.024686 1.20014e-20)
(-1.55583 -0.0252292 0)
(-1.5373 -0.0257514 0)
(-1.51828 -0.0262558 0)
(-1.49877 -0.0267457 8.90777e-21)
(-1.47877 -0.0272244 0)
(-1.45828 -0.0276957 -1.503e-20)
(-1.4373 -0.0281636 -2.00244e-20)
(-1.41583 -0.0286319 1.1895e-20)
(-1.39384 -0.0291052 0)
(-1.37135 -0.0295877 4.55187e-21)
(-1.34832 -0.0300843 0)
(-1.32474 -0.0305997 5.55896e-21)
(-1.30059 -0.0311389 -2.17261e-21)
(-1.27583 -0.0317071 -1.37292e-21)
(-1.25045 -0.0323096 0)
(-1.22439 -0.0329516 1.53681e-21)
(-1.19762 -0.0336386 -2.52196e-21)
(-1.1701 -0.0343762 -2.29892e-21)
(-1.14177 -0.0351698 0)
(-1.11256 -0.036025 -3.97494e-21)
(-1.08243 -0.0369472 -1.40087e-20)
(-1.0513 -0.037942 0)
(-1.01908 -0.0390145 -1.26104e-20)
(-0.985715 -0.04017 -1.43534e-20)
(-0.9511 -0.0414133 -1.61187e-20)
(-0.915147 -0.0427489 0)
(-0.877755 -0.0441812 0)
(-0.83882 -0.0457142 0)
(-0.798231 -0.0473511 1.14219e-20)
(-0.755874 -0.0490946 1.29896e-20)
(-0.711627 -0.050947 0)
(-0.665367 -0.0529098 2.92805e-20)
(-0.616965 -0.0549834 3.13014e-20)
(-0.566293 -0.0571672 0)
(-0.513216 -0.05946 3.62244e-20)
(-0.457602 -0.0618592 7.52371e-20)
(-0.39932 -0.0643605 -4.0631e-20)
(-0.338236 -0.0669588 -4.12076e-20)
(-0.274226 -0.0696464 0)
(-0.207166 -0.0724141 0)
(-0.136942 -0.0752478 0)
(-0.0634416 -0.0781321 -5.24951e-20)
(0.0134216 -0.081049 5.26259e-20)
(0.0937776 -0.0839797 1.10684e-19)
(0.177717 -0.0868792 -5.79894e-20)
(0.265317 -0.0896994 5.74136e-20)
(0.3566 -0.0924487 6.10856e-20)
(0.451596 -0.0951419 0)
(0.55031 -0.0977575 0)
(0.652714 -0.100263 -6.29372e-20)
(0.758744 -0.102625 0)
(0.868303 -0.104809 0)
(0.981253 -0.106782 1.3458e-19)
(1.09742 -0.10851 0)
(1.21658 -0.109961 6.77711e-20)
(1.33848 -0.111103 -7.06181e-20)
(1.4628 -0.111905 0)
(1.58922 -0.112341 6.92921e-20)
(1.71733 -0.112385 0)
(1.84672 -0.112017 0)
(1.97692 -0.111218 -7.16986e-20)
(2.10744 -0.109978 1.41118e-19)
(2.23777 -0.10829 -7.12386e-20)
(2.36735 -0.106154 0)
(2.49565 -0.103575 0)
(2.62209 -0.100565 6.81016e-20)
(2.74611 -0.0971405 0)
(2.86716 -0.0933236 6.68522e-20)
(2.98469 -0.0891394 0)
(3.09818 -0.0846151 0)
(3.20712 -0.079778 0)
(3.31101 -0.0746527 6.49528e-20)
(3.40938 -0.0692582 0)
(3.50176 -0.0636027 -6.32912e-20)
(3.58767 -0.0576767 0)
(3.6666 -0.0514443 0)
(3.73796 -0.0448201 1.21876e-19)
(3.80096 -0.0375905 -1.2108e-19)
(3.85481 -0.0294587 0)
(3.89724 -0.0192493 0)
(3.93047 -0.00424802 0)
(3.95381 0.0173156 3.68458e-19)
(3.97324 0.0556736 0)
(3.95824 0.109135 -2.5519e-19)
(0.0111055 -0.155996 -1.28399e-22)
(0.0168658 -0.133475 9.86015e-20)
(0.00973827 -0.0881897 0)
(-0.00279697 -0.0457362 -8.13143e-20)
(-0.0200396 -0.00634493 0)
(-0.0414117 0.0303671 0)
(-0.0666074 0.0645277 4.85747e-23)
(-0.0955505 0.0961435 3.39336e-20)
(-0.128361 0.124988 3.30519e-20)
(-0.165239 0.150898 3.23262e-20)
(-0.206331 0.17405 0)
(-0.251587 0.194904 0)
(-0.300662 0.213959 -2.9857e-20)
(-0.352901 0.231476 -5.80541e-20)
(-0.407403 0.247341 5.64165e-20)
(-0.463146 0.261127 0)
(-0.519133 0.27227 5.32851e-20)
(-0.574503 0.28027 -2.58899e-20)
(-0.628591 0.284838 0)
(-0.680932 0.285942 4.90936e-20)
(-0.731249 0.283796 2.38813e-20)
(-0.779413 0.278789 -4.66799e-20)
(-0.825407 0.27142 -2.27483e-20)
(-0.869288 0.262221 0)
(-0.911165 0.251711 4.36149e-20)
(-0.951173 0.240366 4.27286e-20)
(-0.989453 0.228594 0)
(-1.02614 0.216731 4.11334e-20)
(-1.06137 0.205038 0)
(-1.09523 0.193706 3.97445e-20)
(-1.12783 0.182865 1.95671e-20)
(-1.15925 0.172595 0)
(-1.18954 0.162934 0)
(-1.21876 0.153892 0)
(-1.24695 0.145454 0)
(-1.27416 0.137591 0)
(-1.30041 0.130264 0)
(-1.32574 0.12343 3.5564e-20)
(-1.35017 0.117042 -5.27463e-20)
(-1.37372 0.111054 0)
(-1.39641 0.105422 0)
(-1.41825 0.100105 0)
(-1.43927 0.095064 8.29904e-23)
(-1.45946 0.0902655 3.32333e-20)
(-1.47884 0.0856783 6.56245e-20)
(-1.49742 0.0812753 -6.48698e-20)
(-1.5152 0.0770327 -3.20212e-20)
(-1.53219 0.0729297 3.17213e-20)
(-1.54838 0.0689488 -7.05387e-23)
(-1.56378 0.0650748 3.0901e-20)
(-1.57839 0.061295 0)
(-1.5922 0.0575987 3.01497e-20)
(-1.60522 0.0539772 -5.61674e-23)
(-1.61744 0.0504233 0)
(-1.62885 0.0469314 0)
(-1.63946 0.043497 -2.86167e-20)
(-1.64927 0.0401165 0)
(-1.65826 0.0367874 0)
(-1.66644 0.033508 2.73979e-20)
(-1.67381 0.0302769 5.40455e-20)
(-1.68035 0.0270937 -2.66334e-20)
(-1.68609 0.0239585 0)
(-1.69101 0.0208718 2.57886e-20)
(-1.69512 0.0178353 0)
(-1.69842 0.0148519 2.49197e-20)
(-1.70094 0.0119261 2.44823e-20)
(-1.70267 0.0090651 -4.80879e-20)
(-1.70363 0.00627848 -2.36094e-20)
(-1.70384 0.00357889 0)
(-1.70329 0.00098093 4.53576e-20)
(-1.702 -0.00151575 0)
(-1.69991 -0.0039349 6.51796e-20)
(-1.69704 -0.00628491 4.25183e-20)
(-1.69338 -0.00856713 4.15522e-20)
(-1.68894 -0.0107825 -4.05758e-20)
(-1.68372 -0.0129313 5.9334e-20)
(-1.67775 -0.0150132 0)
(-1.67101 -0.0170276 0)
(-1.66353 -0.018974 -3.65696e-20)
(-1.65531 -0.0208517 -5.32499e-20)
(-1.64637 -0.0226602 0)
(-1.63672 -0.0243993 1.66592e-20)
(-1.62638 -0.0260689 0)
(-1.61535 -0.0276691 -4.69517e-20)
(-1.60365 -0.0292005 1.69524e-22)
(-1.5913 -0.0306637 -1.76281e-22)
(-1.57831 -0.0320598 2.81325e-20)
(-1.56469 -0.0333903 0)
(-1.55047 -0.0346566 -2.59509e-20)
(-1.53564 -0.0358607 2.01235e-22)
(-1.52024 -0.037005 0)
(-1.50428 -0.0380919 0)
(-1.48775 -0.0391243 0)
(-1.47069 -0.0401055 2.01792e-20)
(-1.45311 -0.041039 0)
(-1.435 -0.0419287 0)
(-1.41639 -0.0427789 0)
(-1.39728 -0.0435941 0)
(-1.37768 -0.0443792 0)
(-1.35759 -0.0451395 1.36107e-20)
(-1.33701 -0.0458807 0)
(-1.31596 -0.0466085 1.10593e-20)
(-1.29442 -0.0473292 9.90544e-21)
(-1.27239 -0.0480494 -8.7485e-21)
(-1.24987 -0.0487758 0)
(-1.22684 -0.0495157 -6.42463e-21)
(-1.20329 -0.0502765 0)
(-1.1792 -0.051066 -4.08558e-21)
(-1.15456 -0.0518921 2.90942e-21)
(-1.12932 -0.052763 5.79727e-21)
(-1.10348 -0.0536871 0)
(-1.07698 -0.0546728 -1.31529e-21)
(-1.04979 -0.055729 -1.19631e-21)
(-1.02187 -0.0568641 0)
(-0.99317 -0.0580871 -7.86557e-21)
(-0.963625 -0.0594067 -1.03008e-20)
(-0.933179 -0.0608314 1.94988e-20)
(-0.901764 -0.0623698 0)
(-0.869308 -0.0640302 9.25523e-21)
(-0.83573 -0.0658205 1.05327e-20)
(-0.800947 -0.0677482 3.46558e-20)
(-0.764866 -0.0698204 0)
(-0.727392 -0.0720435 0)
(-0.688422 -0.0744234 0)
(-0.647846 -0.076965 1.62425e-20)
(-0.605554 -0.079672 0)
(-0.561425 -0.0825473 0)
(-0.515339 -0.0855927 -2.14362e-20)
(-0.46717 -0.0888083 -2.29047e-20)
(-0.416789 -0.092192 0)
(-0.364065 -0.0957413 0)
(-0.308867 -0.099451 -5.49576e-20)
(-0.251063 -0.103313 0)
(-0.190523 -0.107319 6.13512e-20)
(-0.127122 -0.111455 6.32761e-20)
(-0.0607318 -0.115705 0)
(0.00875916 -0.120055 0)
(0.0814798 -0.124485 -7.23694e-20)
(0.157533 -0.128978 -1.53419e-21)
(0.237027 -0.133517 -1.57061e-21)
(0.320074 -0.138085 0)
(0.406755 -0.142654 -1.66742e-19)
(0.4971 -0.147185 0)
(0.591123 -0.151642 0)
(0.688816 -0.155984 0)
(0.790142 -0.160159 9.36405e-20)
(0.895036 -0.164118 0)
(1.0034 -0.167808 -1.9197e-19)
(1.1151 -0.171174 -9.95883e-20)
(1.22997 -0.174163 0)
(1.34778 -0.176723 -1.02844e-19)
(1.46829 -0.178801 0)
(1.5912 -0.180348 0)
(1.71617 -0.181319 -3.16054e-19)
(1.84282 -0.181671 2.11338e-19)
(1.97075 -0.181369 0)
(2.0995 -0.180383 2.13831e-19)
(2.22859 -0.178692 -1.0885e-19)
(2.35752 -0.176283 0)
(2.48577 -0.173154 0)
(2.61279 -0.169309 0)
(2.73804 -0.164766 -3.22733e-19)
(2.86097 -0.159548 0)
(2.98105 -0.153688 -1.07484e-19)
(3.09774 -0.147224 0)
(3.21055 -0.140198 0)
(3.31898 -0.132652 0)
(3.42255 -0.124625 0)
(3.52082 -0.116146 0)
(3.61334 -0.10723 0)
(3.69966 -0.0978643 -2.03236e-19)
(3.77931 -0.0879948 0)
(3.85175 -0.0774952 -1.01443e-19)
(3.91635 -0.0661079 3.0258e-19)
(3.9724 -0.0533366 0)
(4.01852 -0.0383817 0)
(4.05428 -0.0193376 -2.04907e-19)
(4.07836 0.00665801 -2.09331e-19)
(4.09496 0.0484969 2.11708e-19)
(4.09976 0.114141 2.1997e-19)
(-0.00514035 -0.155593 -1.60839e-19)
(-0.0182346 -0.104626 -1.4057e-19)
(-0.0391587 -0.0510075 -8.10959e-20)
(-0.0623876 -0.00213997 -3.62803e-20)
(-0.0881977 0.0432883 0)
(-0.116444 0.0860246 6.3411e-20)
(-0.147175 0.126336 -3.03478e-20)
(-0.180471 0.164165 0)
(-0.21639 0.199287 -2.8656e-20)
(-0.254944 0.23147 0)
(-0.296033 0.260587 5.43574e-20)
(-0.339372 0.286617 0)
(-0.384463 0.309545 2.57282e-20)
(-0.430628 0.329257 4.9991e-20)
(-0.477108 0.34551 -4.85455e-20)
(-0.523176 0.358 0)
(-0.568232 0.366479 -4.57724e-20)
(-0.611857 0.370852 0)
(-0.653818 0.371236 0)
(-0.694044 0.367947 -4.20361e-20)
(-0.73258 0.361455 0)
(-0.769545 0.352321 -1.597e-22)
(-0.80509 0.341134 0)
(-0.839373 0.328463 0)
(-0.87254 0.314823 1.27474e-22)
(-0.904716 0.300656 -3.63164e-20)
(-0.935997 0.286327 -3.56705e-20)
(-0.966456 0.272123 -3.48799e-20)
(-0.996143 0.258258 0)
(-1.02509 0.244885 -6.73103e-20)
(-1.05331 0.232104 0)
(-1.08081 0.219971 -3.25573e-20)
(-1.1076 0.208509 0)
(-1.13367 0.197717 0)
(-1.15902 0.187573 3.10976e-20)
(-1.18365 0.178044 0)
(-1.20755 0.16909 -3.02384e-20)
(-1.23072 0.160663 -1.58522e-23)
(-1.25315 0.152718 5.89104e-20)
(-1.27486 0.145206 -5.81365e-20)
(-1.29584 0.138083 0)
(-1.31608 0.131305 0)
(-1.3356 0.124833 -2.79657e-20)
(-1.35438 0.11863 0)
(-1.37243 0.112665 -2.73382e-20)
(-1.38975 0.106907 2.70025e-20)
(-1.40633 0.101331 2.66694e-20)
(-1.42217 0.0959148 0)
(-1.43728 0.0906393 -2.60083e-20)
(-1.45164 0.0854878 -2.56788e-20)
(-1.46526 0.0804464 5.06541e-20)
(-1.47812 0.0755036 -2.50192e-20)
(-1.49023 0.07065 -2.46881e-20)
(-1.50157 0.065878 0)
(-1.51215 0.0611816 0)
(-1.52195 0.0565564 2.36848e-20)
(-1.53098 0.0519992 0)
(-1.53923 0.0475079 0)
(-1.5467 0.0430815 -4.53194e-20)
(-1.55338 0.0387198 -4.46241e-20)
(-1.55927 0.0344235 0)
(-1.56437 0.0301939 0)
(-1.56869 0.0260334 0)
(-1.57221 0.0219451 0)