/*--------------------------------*- C++ -*----------------------------------*\
| =========                 |                                                 |
| \\      /  F ield         | OpenFOAM: The Open Source CFD Toolbox           |
|  \\    /   O peration     | Version:  2412                                  |
|   \\  /    A nd           | Website:  www.openfoam.com                      |
|    \\/     M anipulation  |                                                 |
\*---------------------------------------------------------------------------*/
FoamFile
{
    version     2.0;
    format      ascii;
    arch        "LSB;label=32;scalar=64";
    class       volScalarField;
    location    "0";
    object      T;
}
// * * * * * * * * * * * * * * * * * * * * * * * * * * * * * * * * * * * * * //

dimensions      [0 0 0 1 0 0 0];

internalField   nonuniform List<scalar> 
8000
(
1.279143253553366e-14
1.304975505238929e-14
1.331321117528863e-14
1.358190121805336e-14
1.385592742025362e-14
1.413539398349207e-14
1.442040710835868e-14
1.471107503206701e-14
1.500750806678601e-14
1.530981863867788e-14
1.561812132765804e-14
1.593253290788583e-14
1.625317238900321e-14
1.658016105813192e-14
1.691362252264548e-14
1.725368275372729e-14
1.760047013073087e-14
1.795411548635585e-14
1.831475215265579e-14
1.868251600788981e-14
1.905754552423681e-14
1.943998181638448e-14
1.982996869101248e-14
2.022765269718143e-14
2.063318317764901e-14
2.104671232112352e-14
2.146839521548002e-14
2.189838990194769e-14
2.233685743029221e-14
2.27839619150066e-14
2.323987059253317e-14
2.370475387953068e-14
2.41787854322075e-14
2.466214220673896e-14
2.515500452079166e-14
2.565755611616853e-14
2.616998422259949e-14
2.669247962269619e-14
2.72252367180934e-14
2.776845359679487e-14
2.832233210174909e-14
2.888707790067251e-14
2.946290055714935e-14
3.005001360302117e-14
3.064863461209841e-14
3.125898527521133e-14
3.188129147662744e-14
3.251578337185766e-14
3.316269546687852e-14
3.382226669879086e-14
3.449474051794793e-14
3.518036497157101e-14
3.587939278888483e-14
3.659208146779737e-14
3.731869336314952e-14
3.805949577656943e-14
3.881476104795072e-14
3.958476664858887e-14
4.036979527600722e-14
4.117013495049441e-14
4.198607911339377e-14
4.281792672716763e-14
4.366598237726882e-14
4.453055637586033e-14
4.541196486740098e-14
4.631052993614353e-14
4.722657971556843e-14
4.816044849979971e-14
4.911247685702233e-14
5.008301174494937e-14
5.107240662837117e-14
5.208102159881968e-14
5.310922349638944e-14
5.415738603375137e-14
5.522588992239766e-14
5.631512300116238e-14
5.742548036704512e-14
5.855736450839406e-14
5.971118544047488e-14
6.08873608434843e-14
6.208631620303024e-14
6.33084849531441e-14
6.45543086218474e-14
6.582423697934238e-14
6.711872818884578e-14
6.843824896013627e-14
6.978327470584266e-14
7.115428970054107e-14
7.255178724269054e-14
7.397626981947079e-14
7.542824927456568e-14
7.690824697894831e-14
7.841679400471738e-14
7.995443130203926e-14
8.152170987924373e-14
8.311919098614748e-14
8.474744630063581e-14
8.640705811857609e-14
8.809861954712021e-14
8.982273470144835e-14
9.158001890502003e-14
9.337109889338948e-14
9.519661302164446e-14
9.705721147554976e-14
9.895355648643076e-14
1.008863225498873e-13
1.028561966483876e-13
1.048638784778246e-13
1.06910080678088e-13
1.089955290677352e-13
1.111209628828181e-13
1.13287135019959e-13
1.154948122837231e-13
1.177447756383813e-13
1.200378204641327e-13
1.223747568178665e-13
1.247564096985354e-13
1.271836193172284e-13
1.296572413720146e-13
1.321781473276615e-13
1.347472247002754e-13
1.373653773469904e-13
1.400335257607557e-13
1.427526073703436e-13
1.455235768456416e-13
1.483474064083267e-13
1.512250861480242e-13
1.541576243440388e-13
1.571460477927467e-13
1.601914021407647e-13
1.632947522239635e-13
1.664571824124783e-13
1.696797969617563e-13
1.729637203697951e-13
1.763100977406522e-13
1.797200951543472e-13
1.831949000432519e-13
1.867357215750939e-13
1.903437910426726e-13
1.940203622604258e-13
1.977667119679352e-13
2.015841402405085e-13
2.054739709069555e-13
2.094375519746771e-13
2.134762560622064e-13
2.175914808392981e-13
2.21784649474733e-13
2.260572110919482e-13
2.30410641232624e-13
2.348464423283759e-13
2.393661441806746e-13
2.439713044491641e-13
2.486635091484718e-13
2.534443731537064e-13
2.5831554071475e-13
2.632786859795387e-13
2.683355135264359e-13
2.734877589058786e-13
2.787371891914618e-13
2.840856035406091e-13
2.895348337649889e-13
2.950867449108515e-13
3.007432358494418e-13
3.065062398776907e-13
3.123777253293147e-13
3.183596961965297e-13
3.244541927625555e-13
3.306632922450745e-13
3.369891094508802e-13
3.434337974418228e-13
3.499995482123235e-13
3.566885933786135e-13
3.635032048798938e-13
3.704456956916323e-13
3.775184205511947e-13
3.847237766960053e-13
3.920642046145032e-13
3.995421888100144e-13
4.071602585778498e-13
4.149209887958105e-13
4.228270007283137e-13
4.308809628444018e-13
4.390855916498424e-13
4.474436525335609e-13
4.559579606286716e-13
4.646313816883077e-13
4.734668329765328e-13
4.824672841745907e-13
4.916357583027079e-13
5.009753326577732e-13
5.104891397670942e-13
5.201803683585663e-13
5.300522643474702e-13
5.401081318402202e-13
5.503513341552936e-13
5.607852948617245e-13
5.714134988353435e-13
5.822394933331277e-13
5.932668890859634e-13
6.044993614100662e-13
6.159406513374982e-13
6.275945667659369e-13
6.394649836281383e-13
6.515558470813981e-13
6.638711727173014e-13
6.764150477921465e-13
6.891916324783619e-13
7.022051611372546e-13
7.154599436135152e-13
7.28960366551737e-13
7.427108947353932e-13
7.567160724485803e-13
7.709805248610296e-13
7.855089594366102e-13
8.003061673658017e-13
8.153770250225536e-13
8.307264954459009e-13
8.463596298467304e-13
8.62281569140163e-13
8.784975455038938e-13
8.95012883963052e-13
9.118330040019086e-13
9.289634212028741e-13
9.464097489133125e-13
9.641776999405752e-13
9.822730882757653e-13
1.000701830846646e-12
1.019469949300172e-12
1.038583571815264e-12
1.058048934946141e-12
1.077872385496854e-12
1.098060382427397e-12
1.118619498792146e-12
1.139556423710843e-12
1.160877964372996e-12
1.182591048075868e-12
1.204702724297059e-12
1.227220166801826e-12
1.250150675785975e-12
1.273501680054749e-12
1.297280739238491e-12
1.321495546045504e-12
1.346153928552752e-12
1.371263852535172e-12
1.396833423833937e-12
1.422870890764711e-12
1.449384646566119e-12
1.476383231889379e-12
1.503875337329728e-12
1.531869806000201e-12
1.560375636148599e-12
1.589401983818169e-12
1.618958165553062e-12
1.649053661148781e-12
1.679698116448852e-12
1.710901346188125e-12
1.742673336883673e-12
1.775024249773969e-12
1.807964423807108e-12
1.841504378678913e-12
1.875654817921783e-12
1.910426632045e-12
1.94583090172743e-12
1.981878901063315e-12
2.018582100862333e-12
2.055952172004369e-12
2.094000988850291e-12
2.13274063270933e-12
2.172183395364262e-12
2.212341782655041e-12
2.253228518122016e-12
2.294856546709657e-12
2.337239038531828e-12
2.380389392699358e-12
2.42432124121126e-12
2.469048452910416e-12
2.514585137504661e-12
2.560945649654756e-12
2.608144593129832e-12
2.656196825031525e-12
2.705117460088368e-12
2.754921875020697e-12
2.805625712978102e-12
2.857244888049963e-12
2.909795589850516e-12
2.963294288179672e-12
3.017757737760692e-12
3.073202983055925e-12
3.12964736316205e-12
3.187108516785994e-12
3.245604387302634e-12
3.305153227895939e-12
3.365773606784647e-12
3.427484412533956e-12
3.490304859454419e-12
3.554254493089796e-12
3.619353195794754e-12
3.685621192404579e-12
3.75307905599744e-12
3.821747713751673e-12
3.891648452898646e-12
3.962802926773808e-12
4.035233160966345e-12
4.108961559569648e-12
4.184010911534466e-12
4.260404397125635e-12
4.338165594484547e-12
4.417318486299029e-12
4.497887466581861e-12
4.579897347560633e-12
4.663373366679542e-12
4.748341193715585e-12
4.834826938011206e-12
4.922857155824334e-12
5.012458857798699e-12
5.103659516555643e-12
5.19648707440935e-12
5.29096995120825e-12
5.387137052303426e-12
5.485017776647006e-12
5.584642025021828e-12
5.686040208405404e-12
5.789243256469058e-12
5.894282626215778e-12
6.001190310757329e-12
6.109998848234824e-12
6.220741330883099e-12
6.333451414242154e-12
6.44816332651827e-12
6.564911878096125e-12
6.683732471205189e-12
6.804661109742373e-12
6.927734409253749e-12
7.052989607077178e-12
7.180464572649393e-12
7.310197817978759e-12
7.442228508288304e-12
7.576596472828671e-12
7.71334221586752e-12
7.852506927854611e-12
7.99413249676701e-12
8.138261519638032e-12
8.284937314270303e-12
8.43420393113862e-12
8.586106165483274e-12
8.740689569598508e-12
8.898000465318242e-12
9.058085956702235e-12
9.220993942925742e-12
9.386773131377073e-12
9.555473050963854e-12
9.72714406563334e-12
9.90183738811e-12
1.007960509385195e-11
1.0260500135232e-11
1.044457635594502e-11
1.063188850564578e-11
1.082249225482169e-11
1.10164442099021e-11
1.121380192861015e-11
1.14146239355587e-11
1.161896973809629e-11
1.182689984240506e-11
1.203847576985621e-11
1.225376007362513e-11
1.24728163555727e-11
1.26957092833941e-11
1.29225046080415e-11
1.31532691814236e-11
1.338807097438707e-11
1.362697909498338e-11
1.387006380702642e-11
1.411739654894414e-11
1.436904995293076e-11
1.462509786440163e-11
1.488561536175738e-11
1.515067877646147e-11
1.54203657134354e-11
1.569475507177791e-11
1.59739270658113e-11
1.625796324646165e-11
1.654694652297628e-11
1.684096118498589e-11
1.714009292491472e-11
1.744442886074409e-11
1.775405755913695e-11
1.806906905892577e-11
1.838955489497277e-11
1.871560812240407e-11
1.904732334122857e-11
1.938479672134222e-11
1.972812602792807e-11
2.007741064725408e-11
2.043275161287917e-11
2.079425163226937e-11
2.116201511383347e-11
2.153614819438269e-11
2.19167587670227e-11
2.230395650948248e-11
2.269785291288807e-11
2.309856131098689e-11
2.35061969098319e-11
2.392087681792914e-11
2.43427200768582e-11
2.477184769237122e-11
2.52083826659803e-11
2.56524500270373e-11
2.610417686531515e-11
2.656369236409965e-11
2.70311278337959e-11
2.750661674606209e-11
2.799029476847374e-11
2.848229979972946e-11
2.898277200540463e-11
2.949185385426445e-11
3.000969015513989e-11
3.053642809437973e-11
3.107221727388328e-11
3.161720974972775e-11
3.217156007139286e-11
3.273542532159635e-11
3.330896515674942e-11
3.38923418480382e-11
3.448572032314355e-11
3.508926820860827e-11
3.570315587285963e-11
3.632755646990146e-11
3.696264598368018e-11
3.760860327313896e-11
3.826561011796768e-11
3.893385126506359e-11
3.961351447570659e-11
4.030479057346608e-11
4.100787349284577e-11
4.172296032868125e-11
4.24502513862989e-11
4.318995023244803e-11
4.394226374701942e-11
4.470740217555884e-11
4.548557918259221e-11
4.627701190576854e-11
4.708192101083781e-11
4.79005307474748e-11
4.873306900596018e-11
4.957976737473096e-11
5.044086119881929e-11
5.131658963918376e-11
5.22071957329534e-11
5.311292645459535e-11
5.403403277801881e-11
5.497076973963399e-11
5.592339650237249e-11
5.689217642069119e-11
5.78773771065671e-11
5.887927049650599e-11
5.989813291957175e-11
6.09342451664574e-11
6.198789255960655e-11
6.305936502441355e-11
6.414895716150065e-11
6.525696832010359e-11
6.638370267257407e-11
6.752946929001449e-11
6.869458221906987e-11
6.987936055988485e-11
7.108412854524505e-11
7.230921562092823e-11
7.355495652727027e-11
7.482169138197243e-11
7.610976576416739e-11
7.741953079976057e-11
7.875134324806484e-11
8.010556558974731e-11
8.148256611611652e-11
8.28827190197522e-11
8.43064044865132e-11
8.575400878893844e-11
8.722592438105634e-11
8.872254999463013e-11
9.024429073685969e-11
9.17915581895555e-11
9.336477050981274e-11
9.496435253219974e-11
9.65907358724956e-11
9.82443590329845e-11
9.992566750933972e-11
1.016351138991177e-10
1.033731580118848e-10
1.051402669810006e-10
1.069369153770805e-10
1.087635853231713e-10
1.106207666116473e-10
1.12508956822869e-10
1.144286614456168e-10
1.163803939993407e-10
1.183646761582348e-10
1.203820378771729e-10
1.224330175195332e-10
1.245181619869377e-10
1.266380268509291e-10
1.287931764866221e-10
1.309841842083461e-10
1.332116324073267e-10
1.35476112691412e-10
1.37778226026891e-10
1.401185828824239e-10
1.424978033751336e-10
1.449165174188457e-10
1.473753648745728e-10
1.498749957032144e-10
1.524160701205363e-10
1.549992587544642e-10
1.576252428047074e-10
1.602947142047561e-10
1.630083757862896e-10
1.65766941446025e-10
1.685711363150396e-10
1.714216969306025e-10
1.743193714105669e-10
1.772649196303315e-10
1.802591134024338e-10
1.833027366587978e-10
1.863965856356751e-10
1.895414690613351e-10
1.927382083465139e-10
1.959876377776896e-10
1.992906047131986e-10
2.026479697822669e-10
2.060606070869603e-10
2.095294044071146e-10
2.130552634083016e-10
2.166390998528448e-10
2.202818438139361e-10
2.239844398929309e-10
2.277478474398116e-10
2.315730407769065e-10
2.354610094258946e-10
2.394127583381421e-10
2.434293081284293e-10
2.475116953120918e-10
2.51660972545655e-10
2.558782088709902e-10
2.601644899630429e-10
2.64520918381199e-10
2.689486138243265e-10
2.734487133895407e-10
2.780223718347691e-10
2.826707618451424e-10
2.873950743032736e-10
2.921965185635023e-10
2.970763227301129e-10
3.020357339396405e-10
3.070760186472757e-10
3.121984629174352e-10
3.174043727185939e-10
3.226950742223724e-10
3.280719141070074e-10
3.335362598652167e-10
3.390895001165354e-10
3.447330449242168e-10
3.504683261167042e-10
3.562967976137784e-10
3.622199357574496e-10
3.682392396476239e-10
3.743562314826578e-10
3.805724569048221e-10
3.868894853507767e-10
3.933089104071337e-10
3.998323501711272e-10
4.064614476165268e-10
4.131978709648279e-10
4.200433140617838e-10
4.269994967594122e-10
4.340681653034755e-10
4.412510927265504e-10
4.485500792467958e-10
4.559669526724209e-10
4.635035688120087e-10
4.711618118907092e-10
4.789435949724657e-10
4.868508603882638e-10
4.948855801705584e-10
5.030497564939216e-10
5.113454221220466e-10
5.197746408611162e-10
5.283395080197165e-10
5.370421508753148e-10
5.458847291474028e-10
5.548694354774741e-10
5.639984959158046e-10
5.732741704152075e-10
5.826987533318843e-10
5.9227457393339e-10
6.020039969138461e-10
6.118894229165509e-10
6.219332890639935e-10
6.321380694954661e-10
6.425062759122981e-10
6.530404581308699e-10
6.637432046435293e-10
6.746171431874231e-10
6.856649413214891e-10
6.968893070115636e-10
7.082929892239031e-10
7.198787785270406e-10
7.316495077022325e-10
7.436080523625252e-10
7.557573315806558e-10
7.681003085257913e-10
7.806399911093046e-10
7.933794326396954e-10
8.063217324867552e-10
8.194700367551581e-10
8.328275389675456e-10
8.463974807572191e-10
8.601831525707152e-10
8.74187894380192e-10
8.884150964058706e-10
9.028681998487796e-10
9.175506976335932e-10
9.324661351621744e-10
9.47618111077546e-10
9.630102780386975e-10
9.786463435062093e-10
9.945300705390167e-10
1.010665278602253e-09
1.027055844386489e-09
1.043705702638478e-09
1.060618847003491e-09
1.077799330879501e-09
1.095251268283306e-09
1.112978834728791e-09
1.130986268117474e-09
1.14927786964147e-09
1.167858004699136e-09
1.186731103823461e-09
1.205901663623405e-09
1.225374247738428e-09
1.245153487806241e-09
1.26524408444419e-09
1.28565080824412e-09
1.306378500781226e-09
1.327432075636967e-09
1.348816519436037e-09
1.370536892897942e-09
1.392598331903089e-09
1.415006048573642e-09
1.437765332369508e-09
1.460881551199388e-09
1.484360152547324e-09
1.508206664614792e-09
1.532426697478646e-09
1.557025944265125e-09
1.582010182339981e-09
1.607385274515191e-09
1.63315717027235e-09
1.659331907002742e-09
1.685915611264842e-09
1.712914500058965e-09
1.740334882119496e-09
1.76818315922504e-09
1.796465827526542e-09
1.825189478893616e-09
1.854360802279657e-09
1.883986585105338e-09
1.914073714661512e-09
1.944629179531129e-09
1.975660071030723e-09
2.007173584671796e-09
2.039177021642114e-09
2.07167779030736e-09
2.104683407733295e-09
2.138201501228923e-09
2.172239809910599e-09
2.206806186287585e-09
2.241908597869323e-09
2.277555128794654e-09
2.313753981483228e-09
2.350513478309509e-09
2.387842063299554e-09
2.425748303851048e-09
2.464240892476584e-09
2.503328648570873e-09
2.543020520201895e-09
2.583325585926382e-09
2.62425305663015e-09
2.665812277393186e-09
2.708012729380322e-09
2.750864031757426e-09
2.794375943633499e-09
2.838558366029423e-09
2.883421343872969e-09
2.928975068021148e-09
2.975229877309788e-09
3.022196260630906e-09
3.069884859037974e-09
3.118306467880019e-09
3.167472038964108e-09
3.217392682747391e-09
3.268079670558338e-09
3.319544436848351e-09
3.371798581473397e-09
3.42485387200647e-09
3.478722246081215e-09
3.533415813766974e-09
3.588946859975946e-09
3.645327846902531e-09
3.70257141649551e-09
3.760690392963278e-09
3.819697785312981e-09
3.879606789923405e-09
3.940430793152483e-09
4.002183373979571e-09
4.06487830668342e-09
4.1285295635556e-09
4.193151317650475e-09
4.258757945571641e-09
4.325364030295992e-09
4.392984364035075e-09
4.46163395113484e-09
4.531328011013921e-09
4.602081981141257e-09
4.673911520053233e-09
4.746832510410827e-09
4.820861062097862e-09
4.896013515359985e-09
4.972306443985688e-09
5.049756658529246e-09
5.128381209576834e-09
5.208197391055673e-09
5.289222743587126e-09
5.371475057884155e-09
5.454972378194008e-09
5.539733005786131e-09
5.625775502486597e-09
5.713118694258696e-09
5.801781674831555e-09
5.891783809376148e-09
5.983144738229863e-09
6.075884380670553e-09
6.170022938739771e-09
6.265580901116983e-09
6.362579047044304e-09
6.461038450303211e-09
6.560980483243235e-09
6.66242682086402e-09
6.765399444950644e-09
6.869920648263287e-09
6.976013038782157e-09
7.083699544007775e-09
7.19300341531773e-09
7.303948232380428e-09
7.416557907626786e-09
7.530856690780402e-09
7.646869173446823e-09
7.764620293762665e-09
7.884135341106077e-09
8.005439960867939e-09
8.128560159285858e-09
8.253522308340631e-09
8.380353150717341e-09
8.509079804830109e-09
8.639729769913123e-09
8.772330931176997e-09
8.906911565033194e-09
9.04350034438536e-09
9.182126343989921e-09
9.322819045886179e-09
9.465608344896711e-09
9.610524554199191e-09
9.757598410970316e-09
9.906861082102552e-09
1.005834416999565e-08
1.021207971842211e-08
1.036810021846907e-08
1.052643861455674e-08
1.068712831053439e-08
1.085020317585517e-08
1.10156975518309e-08
1.118364625796666e-08
1.135408459837737e-08
1.15270483682872e-08
1.170257386061235e-08
1.188069787262849e-08
1.206145771272332e-08
1.224489120723725e-08
1.243103670739035e-08
1.261993309629919e-08
1.281161979608248e-08
1.30061367750595e-08
1.320352455503903e-08
1.340382421870201e-08
1.360707741707921e-08
1.381332637712403e-08
1.402261390938157e-08
1.423498341575652e-08
1.445047889737926e-08
1.466914496257288e-08
1.489102683492179e-08
1.511617036144182e-08
1.534462202085646e-08
1.557642893197643e-08
1.581163886218642e-08
1.605030023604036e-08
1.629246214396429e-08
1.653817435107124e-08
1.678748730608717e-08
1.70404521503897e-08
1.729712072716141e-08
1.755754559066032e-08
1.782178001560545e-08
1.808987800668314e-08
1.836189430817135e-08
1.863788441368788e-08
1.891790457605958e-08
1.920201181731735e-08
1.949026393881576e-08
1.978271953148212e-08
2.007943798619245e-08
2.038047950428008e-08
2.068590510817379e-08
2.099577665217224e-08
2.131015683335225e-08
2.162910920261477e-08
2.195269817586765e-08
2.228098904535169e-08
2.261404799110528e-08
2.295194209257512e-08
2.32947393403705e-08
2.364250864816515e-08
2.399531986474886e-08
2.435324378622766e-08
2.471635216837762e-08
2.508471773915249e-08
2.545841421134751e-08
2.583751629541993e-08
2.622209971247032e-08
2.661224120738501e-08
2.700801856214188e-08
2.740951060928194e-08
2.781679724554639e-08
2.822995944568657e-08
2.864907927644169e-08
2.907423991069105e-08
2.950552564178284e-08
2.99430218980381e-08
3.038681525743601e-08
3.083699346248014e-08
3.129364543524759e-08
3.175686129262594e-08
3.222673236173574e-08
3.270335119554631e-08
3.318681158868059e-08
3.367720859341719e-08
3.417463853588912e-08
3.467919903248106e-08
3.519098900642874e-08
3.571010870462125e-08
3.623665971461246e-08
3.6770744981838e-08
3.731246882704578e-08
3.786193696393787e-08
3.841925651703124e-08
3.8984536039736e-08
3.955788553265238e-08
4.01394164620964e-08
4.072924177884741e-08
4.13274759371271e-08
4.193423491380912e-08
4.254963622786257e-08
4.317379896003432e-08
4.380684377276946e-08
4.444889293037396e-08
4.510007031942364e-08
4.576050146942168e-08
4.643031357370524e-08
4.710963551060817e-08
4.779859786487733e-08
4.84973329493534e-08
4.920597482690989e-08
4.992465933265935e-08
5.065352409643017e-08
5.139270856551225e-08
5.214235402767998e-08
5.290260363449204e-08
5.367360242487204e-08
5.445549734897597e-08
5.524843729234549e-08
5.605257310035083e-08
5.686805760293214e-08
5.769504563963499e-08
5.853369408494876e-08
5.938416187394786e-08
6.024661002824227e-08
6.112120168224037e-08
6.200810210972438e-08
6.290747875074502e-08
6.381950123884071e-08
6.474434142857905e-08
6.56821734234308e-08
6.663317360397411e-08
6.759752065643878e-08
6.857539560158945e-08
6.956698182395454e-08
7.057246510139994e-08
7.159203363506451e-08
7.262587807963808e-08
7.367419157401344e-08
7.473716977229303e-08
7.581501087517051e-08
7.690791566168148e-08
7.801608752133205e-08
7.913973248660711e-08
8.027905926586891e-08
8.143427927663847e-08
8.260560667927409e-08
8.379325841105208e-08
8.499745422064161e-08
8.621841670299895e-08
8.745637133465703e-08
8.871154650945114e-08
8.998417357464833e-08
9.127448686751341e-08
9.258272375230247e-08
9.390912465769026e-08
9.525393311463647e-08
9.661739579470425e-08
9.799976254882002e-08
9.940128644649183e-08
1.008222238154924e-07
1.022628342819937e-07
1.037233808111897e-07
1.052041297483797e-07
1.067053508605394e-07
1.082273173783768e-07
1.097703060388782e-07
1.113345971283504e-07
1.12920474525969e-07
1.14528225747828e-07
1.161581419915102e-07
1.178105181811658e-07
1.19485653013126e-07
1.211838490020458e-07
1.229054125275717e-07
1.24650653881566e-07
1.264198873158686e-07
1.282134310906189e-07
1.30031607523129e-07
1.318747430373401e-07
1.337431682138252e-07
1.356372178403955e-07
1.375572309632753e-07
1.39503550938874e-07
1.414765254861551e-07
1.434765067396038e-07
1.455038513028174e-07
1.475589203026982e-07
1.496420794442803e-07
1.517536990661784e-07
1.538941541966852e-07
1.560638246105008e-07
1.582630948861226e-07
1.604923544638835e-07
1.627519977046685e-07
1.650424239492902e-07
1.673640375785535e-07
1.697172480739983e-07
1.72102470079347e-07
1.745201234626467e-07
1.769706333791207e-07
1.794544303347343e-07
1.819719502504984e-07
1.845236345274879e-07
1.871099301126067e-07
1.89731289565111e-07
1.923881711238667e-07
1.950810387753921e-07
1.978103623226633e-07
2.005766174546923e-07
2.033802858169114e-07
2.062218550823405e-07
2.091018190235598e-07
2.12020677585509e-07
2.149789369590962e-07
2.179771096556408e-07
2.210157145821635e-07
2.240952771175117e-07
2.272163291893601e-07
2.303794093520647e-07
2.335850628653956e-07
2.368338417741596e-07
2.401263049887176e-07
2.43463018366395e-07
2.468445547938185e-07
2.502714942701765e-07
2.537444239913956e-07
2.57263938435281e-07
2.608306394475924e-07
2.644451363290963e-07
2.681080459235809e-07
2.718199927068541e-07
2.755816088767423e-07
2.793935344440788e-07
2.832564173247291e-07
2.871709134326074e-07
2.911376867737584e-07
2.951574095414714e-07
2.992307622124475e-07
3.03358433644045e-07
3.075411211725938e-07
3.117795307127976e-07
3.160743768582615e-07
3.204263829830857e-07
3.248362813446355e-07
3.293048131874066e-07
3.338327288480586e-07
3.38420787861604e-07
3.430697590687627e-07
3.477804207244945e-07
3.525535606077609e-07
3.573899761324365e-07
3.622904744594882e-07
3.672558726103831e-07
3.722869975817034e-07
3.773846864610552e-07
3.825497865442564e-07
3.877831554537563e-07
3.930856612584017e-07
3.984581825945066e-07
4.039016087882175e-07
4.094168399792329e-07
4.150047872458812e-07
4.206663727315553e-07
4.264025297725176e-07
4.322142030270975e-07
4.381023486063152e-07
4.440679342059053e-07
4.501119392397699e-07
4.562353549749161e-07
4.624391846678013e-07
4.687244437022175e-07
4.750921597286231e-07
4.815433728050002e-07
4.880791355392465e-07
4.947005132330898e-07
5.014085840275473e-07
5.082044390500052e-07
5.150891825628113e-07
5.220639321135236e-07
5.29129818686766e-07
5.362879868576945e-07
5.435395949471634e-07
5.508858151784764e-07
5.583278338359058e-07
5.658668514248808e-07
5.73504082833862e-07
5.812407574979894e-07
5.890781195644766e-07
5.970174280597548e-07
6.050599570584223e-07
6.132069958539809e-07
6.214598491314092e-07
6.298198371415758e-07
6.382882958774827e-07
6.468665772524412e-07
6.555560492800794e-07
6.643580962563031e-07
6.732741189431808e-07
6.823055347547823e-07
6.914537779449707e-07
7.007202997972138e-07
7.101065688163752e-07
7.196140709225412e-07
7.292443096469562e-07
7.389988063298953e-07
7.488791003207626e-07
7.588867491802468e-07
7.690233288845498e-07
7.792904340318974e-07
7.896896780510672e-07
8.002226934122572e-07
8.108911318400429e-07
8.216966645286622e-07
8.326409823595127e-07
8.437257961209481e-07
8.549528367303487e-07
8.663238554585661e-07
8.778406241566353e-07
8.895049354849607e-07
9.013186031448037e-07
9.13283462112213e-07
9.254013688744504e-07
9.376742016687505e-07
9.501038607237099e-07
9.626922685031012e-07
9.754413699522148e-07
9.883531327467978e-07
1.0014295475446e-06
1.014672628239409e-06
1.028084412217861e-06
1.041666960618803e-06
1.055422358595426e-06
1.069352715579987e-06
1.08346016555139e-06
1.097746867305435e-06
1.112215004727963e-06
1.126866787070616e-06
1.141704449229702e-06
1.156730252027653e-06
1.171946482497608e-06
1.187355454170771e-06
1.202959507366745e-06
1.218761009486906e-06
1.234762355310711e-06
1.250965967295036e-06
1.267374295876641e-06
1.283989819777666e-06
1.300815046314268e-06
1.317852511708374e-06
1.335104781402675e-06
1.352574450378773e-06
1.370264143478593e-06
1.388176515729002e-06
1.406314252669882e-06
1.424680070685291e-06
1.443276717338224e-06
1.462106971708602e-06
1.481173644734752e-06
1.500479579558343e-06
1.520027651872769e-06
1.539820770275096e-06
1.55986187662154e-06
1.580153946386487e-06
1.600699989025211e-06
1.621503048340231e-06
1.642566202851238e-06
1.663892566168892e-06
1.685485287372287e-06
1.707347551390214e-06
1.72948257938627e-06
1.751893629147753e-06
1.774583995478581e-06
1.797557010595999e-06
1.8208160445313e-06
1.844364505534643e-06
1.86820584048369e-06
1.892343535296552e-06
1.916781115348687e-06
1.941522145893987e-06
1.966570232490097e-06
1.991929021427901e-06
2.017602200165247e-06
2.043593497765129e-06
2.069906685337946e-06
2.096545576488343e-06
2.123514027766476e-06
2.150815939123586e-06
2.178455254372152e-06
2.206435961650692e-06
2.234762093892874e-06
2.263437729301544e-06
2.292466991827202e-06
2.321854051651327e-06
2.351603125674278e-06
2.381718478008199e-06
2.412204420474569e-06
2.443065313106728e-06
2.474305564657234e-06
2.505929633110378e-06
2.537942026199381e-06
2.57034730192891e-06
2.603150069102658e-06
2.636354987855903e-06
2.669966770193428e-06
2.703990180532573e-06
2.73843003625154e-06
2.773291208243225e-06
2.808578621474081e-06
2.844297255548739e-06
2.880452145279822e-06
2.917048381263502e-06
2.954091110460451e-06
2.991585536782477e-06
3.029536921684774e-06
3.067950584763981e-06
3.106831904361899e-06
3.146186318175005e-06
3.186019323869967e-06
3.226336479704918e-06
3.26714340515677e-06
3.308445781554521e-06
3.350249352718609e-06
3.392559925606464e-06
3.435383370964182e-06
3.478725623984297e-06
3.522592684970149e-06
3.566990620006277e-06
3.611925561635299e-06
3.657403709541342e-06
3.703431331239797e-06
3.750014762773874e-06
3.79716040941737e-06
3.844874746384533e-06
3.893164319546407e-06
3.942035746153992e-06
3.991495715568341e-06
4.041550989997398e-06
4.092208405239916e-06
4.143474871436385e-06
4.195357373826991e-06
4.24786297351671e-06
4.300998808247594e-06
4.354772093178357e-06
4.409190121671357e-06
4.464260266086715e-06
4.519989978584131e-06
4.576386791932005e-06
4.633458320324356e-06
4.691212260205138e-06
4.749656391100404e-06
4.808798576458149e-06
4.868646764496093e-06
4.929208989057231e-06
4.990493370473345e-06
5.052508116436666e-06
5.115261522879564e-06
5.178761974862321e-06
5.243017947469221e-06
5.308038006712894e-06
5.373830810447074e-06
5.440405109287753e-06
5.507769747542848e-06
5.575933664150328e-06
5.644905893625325e-06
5.714695567015487e-06
5.785311912865534e-06
5.856764258190383e-06
5.929062029457504e-06
6.002214753577883e-06
6.076232058906403e-06
6.151123676251296e-06
6.226899439892788e-06
6.303569288610942e-06
6.381143266723175e-06
6.459631525130872e-06
6.539044322375849e-06
6.619392025706247e-06
6.700685112152145e-06
6.782934169610942e-06
6.866149897942707e-06
6.950343110075222e-06
7.035524733119305e-06
7.121705809493827e-06
7.208897498061553e-06
7.297111075274355e-06
7.38635793632967e-06
7.476649596336623e-06
7.567997691493179e-06
7.660413980273448e-06
7.753910344626103e-06
7.848498791183148e-06
7.944191452479794e-06
8.041000588185169e-06
8.138938586343992e-06
8.238017964629336e-06
8.338251371606792e-06
8.439651588009663e-06
8.542231528025558e-06
8.64600424059456e-06
8.750982910718911e-06
8.857180860784187e-06
8.964611551892439e-06
9.07328858520692e-06
9.183225703308822e-06
9.294436791566154e-06
9.406935879514508e-06
9.520737142250042e-06
9.635854901834855e-06
9.752303628714924e-06
9.870097943149793e-06
9.989252616655999e-06
1.010978257346195e-05
1.023170289197649e-05
1.035502880627003e-05
1.047977570756825e-05
1.06059591457596e-05
1.073359483091577e-05
1.086269863482463e-05
1.099328659253794e-05
1.112537490393125e-05
1.12589799352783e-05
1.139411822083856e-05
1.153080646445875e-05
1.166906154118822e-05
1.180890049890853e-05
1.195034055997683e-05
1.209339912288361e-05
1.223809376392467e-05
1.238444223888783e-05
1.253246248475374e-05
1.268217262141165e-05
1.283359095338997e-05
1.298673597160141e-05
1.314162635510335e-05
1.329828097287318e-05
1.345671888559891e-05
1.361695934748535e-05
1.37790218080751e-05
1.394292591408567e-05
1.410869151126218e-05
1.427633864624536e-05
1.444588756845631e-05
1.461735873199655e-05
1.479077279756435e-05
1.496615063438776e-05
1.51435133221733e-05
1.532288215307186e-05
1.550427863366085e-05
1.568772448694305e-05
1.587324165436238e-05
1.606085229783703e-05
1.625057880180886e-05
1.644244377531107e-05
1.663647005405251e-05
1.683268070251963e-05
1.703109901609614e-05
1.723174852320069e-05
1.743465298744175e-05
1.763983640979097e-05