/*--------------------------------*- C++ -*----------------------------------*\
| =========                 |                                                 |
| \\      /  F ield         | OpenFOAM: The Open Source CFD Toolbox           |
|  \\    /   O peration     | Version:  2412                                  |
|   \\  /    A nd           | Website:  www.openfoam.com                      |
|    \\/     M anipulation  |                                                 |
\*---------------------------------------------------------------------------*/
FoamFile
{
    version     2.0;
    format      ascii;
    arch        "LSB;label=32;scalar=64";
    class       volScalarField;
    location    "0";
    object      T_0;
}
// * * * * * * * * * * * * * * * * * * * * * * * * * * * * * * * * * * * * * //

dimensions      [0 0 0 1 0 0 0];

internalField   nonuniform List<scalar> 
8000
(
1.279399067407617e-14
1.305236403667426e-14
1.331587199903934e-14
1.358461489407303e-14
1.385869498078529e-14
1.413821648058455e-14
1.442328561423948e-14
1.471401063952232e-14
1.501050188954752e-14
1.53128718118168e-14
1.562123500798636e-14
1.593570827436487e-14
1.625641064316024e-14
1.658346342448346e-14
1.691699024912918e-14
1.725711711214151e-14
1.76039724171827e-14
1.795768702171676e-14
1.831839428302569e-14
1.868623010507046e-14
1.906133298621282e-14
1.944384406781421e-14
1.983390718372679e-14
2.023166891069301e-14
2.063727861966946e-14
2.105088852809138e-14
2.147265375309728e-14
2.190273236572693e-14
2.234128544611347e-14
2.278847713968428e-14
2.32444747143941e-14
2.370944861900124e-14
2.418357254241283e-14
2.466702347411313e-14
2.515998176569789e-14
2.566263119353141e-14
2.617515902254915e-14
2.669775607122377e-14
2.723061677771806e-14
2.77739392672438e-14
2.832792542064934e-14
2.8892780944256e-14
2.94687154409698e-14
3.005594248268498e-14
3.065467968400854e-14
3.12651487773242e-14
3.188757568922468e-14
3.252219061833134e-14
3.316922811452961e-14
3.382892715964419e-14
3.450153124958071e-14
3.518728847795642e-14
3.588645162125119e-14
3.659927822550289e-14
3.732603069457279e-14
3.806697638001628e-14
3.882238767257677e-14
3.959254209534035e-14
4.037772239857658e-14
4.117821665629601e-14
4.199431836455443e-14
4.282632654153633e-14
4.367454582944618e-14
4.453928659824323e-14
4.542086505124919e-14
4.631960333266384e-14
4.723582963702023e-14
4.816987832061702e-14
4.912209001495996e-14
5.00928117422477e-14
5.108239703294212e-14
5.209120604545379e-14
5.311960568798526e-14
5.416796974256776e-14
5.523667899132691e-14
5.632612134502621e-14
5.743669197391589e-14
5.856879344093781e-14
5.972283583732096e-14
6.089923692061495e-14
6.209842225520125e-14
6.332082535532545e-14
6.456688783069339e-14
6.583705953468569e-14
6.713179871522077e-14
6.845157216832734e-14
6.979685539446142e-14
7.116813275763162e-14
7.256589764736309e-14
7.399065264356591e-14
7.544290968434533e-14
7.69231902368209e-14
7.84320254709909e-14
7.996995643670574e-14
8.153753424379833e-14
8.313532024543642e-14
8.476388622473854e-14
8.642381458472385e-14
8.81156985416443e-14
8.984014232176571e-14
9.159776136165394e-14
9.338918251202407e-14
9.521504424522185e-14
9.707599686639608e-14
9.897270272842645e-14
1.009058364506729e-13
1.028760851416085e-13
1.0488414862542e-13
1.069307396726145e-13
1.090165842347352e-13
1.111424216832298e-13
1.133090050525674e-13
1.155171012876567e-13
1.177674914956533e-13
1.200609712022236e-13
1.223983506123565e-13
1.247804548757807e-13
1.272081243570871e-13
1.296822149106203e-13
1.322035981602418e-13
1.347731617840259e-13
1.373918098039983e-13
1.400604628809715e-13
1.427800586146104e-13
1.455515518487721e-13
1.483759149822391e-13
1.512541382849319e-13
1.541872302196956e-13
1.571762177697501e-13
1.602221467719165e-13
1.633260822556906e-13
1.664891087883127e-13
1.697123308258761e-13
1.729968730706316e-13
1.763438808345516e-13
1.797545204093057e-13
1.832299794427128e-13
1.867714673218116e-13
1.903802155626427e-13
1.940574782068864e-13
1.978045322254373e-13
2.01622677929058e-13
2.055132393862278e-13
2.094775648483061e-13
2.135170271821447e-13
2.176330243102622e-13
2.218269796587149e-13
2.261003426128144e-13
2.304545889807925e-13
2.348912214655746e-13
2.39411770144783e-13
2.440177929591342e-13
2.48710876209344e-13
2.534926350617116e-13
2.583647140624935e-13
2.633287876612776e-13
2.683865607434514e-13
2.735397691719426e-13
2.787901803383902e-13
2.841395937239212e-13
2.895898414696604e-13
2.951427889571688e-13
3.008003353989562e-13
3.065644144392823e-13
3.124369947653498e-13
3.184200807291369e-13
3.245157129800033e-13
3.307259691082656e-13
3.370529642999497e-13
3.434988520028624e-13
3.500658246042066e-13
3.567561141199547e-13
3.635719928961232e-13
3.705157743221799e-13
3.775898135568187e-13
3.847965082662367e-13
3.921382993752149e-13
3.996176718311343e-13
4.072371553811938e-13
4.149993253630561e-13
4.229068035091149e-13
4.309622587646358e-13
4.391684081200057e-13
4.475280174573021e-13
4.560439024114794e-13
4.647189292463476e-13
4.73556015745629e-13
4.825581321193681e-13
4.917283019258883e-13
5.010696030096393e-13
5.10585168455098e-13
5.202781875571262e-13
5.301519068079208e-13
5.402096309009233e-13
5.504547237519596e-13
5.608906095378676e-13
5.715207737529353e-13
5.823487642834505e-13
5.93378192500612e-13
6.046127343721677e-13
6.160561315931121e-13
6.277121927356515e-13
6.395847944188617e-13
6.516778824983674e-13
6.639954732762738e-13
6.76541654731808e-13
6.893205877729495e-13
7.023365075093942e-13
7.155937245472855e-13
7.290966263059351e-13
7.428496783570354e-13
7.568574257866575e-13
7.71124494580463e-13
7.856555930324392e-13
8.004555131776646e-13
8.155291322493589e-13
8.308814141607743e-13
8.465174110122117e-13
8.624422646236605e-13
8.786612080933942e-13
8.951795673831292e-13
9.120027629299432e-13
9.29136311285599e-13
9.46585826783619e-13
9.643570232346242e-13
9.824557156503594e-13
1.000887821996892e-12
1.019659364977472e-12
1.038776473845612e-12
1.058245386248694e-12
1.078072450102834e-12
1.098264125499322e-12
1.118826986643373e-12
1.139767723825463e-12
1.16109314542601e-12
1.182810179953784e-12
1.204925878118766e-12
1.227447414939856e-12
1.250382091888095e-12
1.273737339065946e-12
1.29752071742334e-12
1.32173992101084e-12
1.346402779270815e-12
1.371517259367061e-12
1.397091468553513e-12
1.423133656582868e-12
1.449652218155512e-12
1.476655695409464e-12
1.504152780452357e-12
1.532152317935548e-12
1.560663307671516e-12
1.5896949072951e-12
1.619256434969218e-12
1.649357372135971e-12
1.680007366313646e-12
1.71121623394049e-12
1.742993963266197e-12
1.775350717291448e-12
1.8082968367567e-12
1.841842843180748e-12
1.875999441950148e-12
1.91077752545998e-12
1.946188176307113e-12
1.982242670536505e-12
2.018952480941836e-12
2.056329280420832e-12
2.094384945386601e-12
2.133131559235545e-12
2.172581415873171e-12
2.212747023298294e-12
2.253641107246907e-12
2.295276614896409e-12
2.337666718631558e-12
2.380824819872738e-12
2.424764552967704e-12
2.469499789147955e-12
2.515044640550508e-12
2.561413464306543e-12
2.608620866697471e-12
2.656681707379862e-12
2.705611103680375e-12
2.755424434961618e-12
2.8061373470601e-12
2.857765756797618e-12
2.910325856567067e-12
2.96383411899402e-12
3.01830730167517e-12
3.073762451994837e-12
3.130216912021044e-12
3.187688323482193e-12
3.246194632825705e-12
3.305754096359858e-12
3.366385285480425e-12
3.428107091983165e-12
3.490938733463732e-12
3.554899758806099e-12
3.620010053761673e-12
3.686289846619372e-12
3.753759713969228e-12
3.82244058656053e-12
3.892353755255547e-12
3.963520877081655e-12
4.035963981381975e-12
4.109705476066852e-12
4.184768153968052e-12
4.261175199296489e-12
4.338950194205837e-12
4.418117125463419e-12
4.498700391229905e-12
4.580724807950202e-12
4.664215617356369e-12
4.74919849358513e-12
4.835699550411416e-12
4.923745348599921e-12
5.013362903376349e-12
5.10457969202052e-12
5.197423661583008e-12
5.291923236727538e-12
5.388107327700971e-12
5.486005338432729e-12
5.585647174765991e-12
5.687063252822865e-12
5.790284507505125e-12
5.895342401133002e-12
6.002268932224301e-12
6.111096644415881e-12
6.221858635529806e-12
6.334588566786171e-12
6.449320672165635e-12
6.566089767923262e-12
6.684931262256358e-12
6.805881165128578e-12
6.928976098253462e-12
7.054253305238562e-12
7.181750661894207e-12
7.311506686707943e-12
7.443560551489207e-12
7.577952092184256e-12
7.714721819866927e-12
7.853910931905707e-12
7.995561323311077e-12
8.139715598265436e-12
8.286417081839186e-12
8.435709831894511e-12
8.587638651180938e-12
8.742249099626145e-12
8.89958750682309e-12
9.059700984718571e-12
9.222637440504924e-12
9.388445589719173e-12
9.557174969552218e-12
9.728875952370692e-12
9.903599759456907e-12
1.008139847496766e-11
1.026232506011715e-11
1.044643336758714e-11
1.063377815616663e-11
1.082441510562717e-11
1.101840083183481e-11
1.121579290210397e-11
1.141664985079592e-11
1.162103119516737e-11
1.182899745147114e-11
1.204061015131379e-11
1.225593185827338e-11
1.247502618478388e-11
1.269795780928626e-11
1.292479249365441e-11
1.315559710089672e-11
1.339043961314103e-11
1.362938914990416e-11
1.38725159866523e-11
1.41198915736558e-11
1.437158855514417e-11
1.462768078876434e-11
1.488824336534757e-11
1.515335262899059e-11
1.542308619745342e-11
1.569752298288228e-11
1.597674321285929e-11
1.62608284517855e-11
1.65498616226023e-11
1.684392702885696e-11
1.714311037711586e-11
1.744749879973211e-11
1.775718087797343e-11
1.807224666551403e-11
1.839278771229792e-11
1.871889708877782e-11
1.905066941053681e-11
1.938820086329752e-11
1.973158922832539e-11
2.008093390823099e-11
2.043633595317964e-11
2.07978980875125e-11
2.116572473678564e-11
2.153992205523446e-11
2.192059795366989e-11
2.23078621278117e-11
2.270182608706675e-11
2.31026031837577e-11
2.35103086428123e-11
2.392505959191469e-11
2.434697509213155e-11
2.477617616901541e-11
2.521278584419718e-11
2.565692916747077e-11
2.610873324937954e-11
2.65683272943134e-11
2.703584263412006e-11
2.751141276224443e-11
2.799517336839803e-11
2.848726237377038e-11
2.898781996678816e-11
2.949698863943343e-11
3.001491322412642e-11
3.054174093118173e-11
3.107762138684859e-11
3.162270667194293e-11
3.217715136107866e-11
3.274111256250917e-11
3.331474995858899e-11
3.389822584686161e-11
3.449170518178571e-11
3.509535561710875e-11
3.570934754889662e-11
3.633385415923182e-11
3.696905146058618e-11
3.761511834088311e-11
3.827223660925325e-11
3.894059104250295e-11
3.962036943229666e-11
4.031176263307123e-11
4.101496461068761e-11
4.173017249183673e-11
4.245758661420608e-11
4.319741057741892e-11
4.394985129476146e-11
4.471511904570362e-11
4.549342752923304e-11
4.628499391800696e-11
4.709003891333623e-11
4.790878680101986e-11
4.874146550803372e-11
4.95883066600902e-11
5.044954564008518e-11
5.132542164743919e-11
5.221617775835051e-11
5.312206098697187e-11
5.404332234752357e-11
5.498021691736253e-11
5.593300390101217e-11
5.690194669517623e-11
5.788731295474362e-11
5.888937465980724e-11
5.990840818370381e-11
6.094469436209437e-11
6.199851856309866e-11
6.307017075850281e-11
6.415994559605078e-11
6.526814247283859e-11
6.639506560982913e-11
6.754102412749821e-11
6.870633212263794e-11
6.989130874632567e-11
7.109627828307716e-11
7.232157023120996e-11
7.356751938442164e-11
7.483446591460926e-11
7.612275545594944e-11
7.743273919024987e-11
7.876477393359968e-11
8.011922222432817e-11
8.149645241230574e-11
8.289683874958685e-11
8.432076148243336e-11
8.576860694472622e-11
8.724076765279331e-11
8.87376424016658e-11
9.025963636279634e-11
9.180716118324771e-11
9.338063508638078e-11
9.498048297405992e-11
9.660713653040574e-11
9.826103432710528e-11
9.994262193030989e-11
1.016523520091486e-10
1.033906844458691e-10
1.051580864476403e-10
1.069550326600279e-10
1.087820052821909e-10
1.106394941837923e-10
1.125279970236787e-10
1.144480193703282e-10
1.164000748241219e-10
1.183846851414336e-10
1.204023803605864e-10
1.224536989296955e-10
1.245391878364272e-10
1.266594027396946e-10
1.288149081033302e-10
1.310062773317473e-10
1.332340929076426e-10
1.35498946531743e-10
1.378014392646449e-10
1.401421816707678e-10
1.425217939644626e-10
1.449409061582788e-10
1.474001582134681e-10
1.499002001927078e-10
1.524416924151028e-10
1.55025305613502e-10
1.576517210941484e-10
1.603216308986939e-10
1.630357379686398e-10
1.657947563122046e-10
1.685994111736717e-10
1.714504392052483e-10
1.74348588641484e-10
1.772946194762557e-10
1.802893036423867e-10
1.833334251939243e-10
1.86427780491108e-10
1.895731783880839e-10
1.927704404233839e-10
1.960204010132293e-10
1.993239076476751e-10
2.026818210896714e-10
2.06095015577042e-10
2.095643790274459e-10
2.130908132463725e-10
2.166752341381882e-10
2.203185719202879e-10
2.240217713404144e-10
2.277857918971605e-10
2.316116080637205e-10
2.355002095149247e-10
2.39452601357609e-10
2.434698043643805e-10
2.475528552107887e-10
2.51702806716e-10
2.559207280869841e-10
2.602077051662776e-10
2.645648406833957e-10
2.689932545099006e-10
2.734940839182097e-10
2.780684838441985e-10
2.82717627153624e-10
2.874427049124585e-10
2.922449266611531e-10
2.971255206929114e-10
3.020857343360305e-10
3.071268342403478e-10
3.122501066678543e-10
3.174568577875674e-10
3.227484139746677e-10
3.281261221140022e-10
3.335913499080042e-10
3.3914548618907e-10
3.447899412365054e-10
3.505261470980439e-10
3.563555579160451e-10
3.622796502584272e-10
3.682999234543884e-10
3.744178999350033e-10
3.806351255787434e-10
3.869531700620035e-10
3.933736272147026e-10
3.998981153810243e-10
4.065282777853692e-10
4.13265782903598e-10
4.201123248396312e-10
4.27069623707495e-10
4.34139426018865e-10
4.413235050761902e-10
4.486236613715184e-10
4.560417229910215e-10
4.635795460253782e-10
4.712390149860282e-10
4.790220432274498e-10
4.869305733754862e-10
4.949665777618252e-10
5.031320588647014e-10
5.114290497559802e-10
5.198596145545806e-10
5.284258488864591e-10
5.371298803511429e-10
5.459738689949656e-10
5.549600077910838e-10
5.64090523126341e-10
5.733676752950995e-10
5.827937590001414e-10
5.923711038607272e-10
6.021020749278709e-10
6.119890732070267e-10
6.220345361881776e-10
6.322409383835246e-10
6.426107918727973e-10
6.531466468563459e-10
6.638510922161346e-10
6.747267560846655e-10
6.857763064220262e-10
6.970024516011146e-10
7.084079410012094e-10
7.199955656099372e-10
7.317681586337911e-10
7.437285961172966e-10
7.558797975709881e-10
7.68224726608238e-10
7.807663915911357e-10
7.935078462854909e-10
8.064521905250936e-10
8.196025708854005e-10
8.329621813667118e-10
8.465342640869728e-10
8.603221099844306e-10
8.743290595301278e-10
8.885585034504619e-10
9.030138834599816e-10
9.176986930044077e-10
9.326164780141989e-10
9.477708376686981e-10
9.63165425170993e-10
9.788039485336888e-10
9.946901713757651e-10
1.010827913730535e-09
1.027221052865001e-09
1.043873524110706e-09
1.06078932170621e-09
1.077972499651367e-09
1.095427172573564e-09
1.113157516606148e-09
1.131167770279047e-09
1.149462235421885e-09
1.168045278079753e-09
1.186921329441705e-09
1.206094886782273e-09
1.22557051441608e-09
1.245352844665756e-09
1.265446578843443e-09
1.285856488245802e-09
1.306587415163005e-09
1.327644273901784e-09
1.34903205182255e-09
1.370755810391129e-09
1.392820686244956e-09
1.415231892274127e-09
1.437994718717512e-09
1.461114534273963e-09
1.484596787229013e-09
1.508447006597146e-09
1.532670803279859e-09
1.557273871239872e-09
1.582261988691385e-09
1.607641019307025e-09
1.63341691344127e-09
1.659595709370862e-09
1.686183534552333e-09
1.713186606896919e-09
1.740611236062932e-09
1.768463824766096e-09
1.796750870107841e-09
1.82547896492185e-09
1.854654799139284e-09
1.88428516117257e-09
1.914376939318388e-09
1.94493712317986e-09
1.975972805108211e-09
2.007491181664345e-09
2.039499555100323e-09
2.072005334861267e-09
2.105016039107696e-09
2.138539296258911e-09
2.172582846557312e-09
2.207154543654169e-09
2.242262356217118e-09
2.277914369559596e-09
2.314118787292468e-09
2.350883932998301e-09
2.388218251928292e-09
2.426130312722605e-09
2.464628809153893e-09
2.503722561894667e-09
2.543420520308766e-09
2.583731764267091e-09
2.624665505988097e-09
2.666231091903218e-09
2.708438004547787e-09
2.751295864477436e-09
2.794814432210497e-09
2.839003610197e-09
2.883873444813953e-09
2.929434128387963e-09
2.97569600124509e-09
3.022669553788489e-09
3.070365428604005e-09
3.118794422594452e-09
3.167967489142541e-09
3.217895740303046e-09
3.268590449024505e-09
3.320063051401021e-09
3.372325148954197e-09
3.425388510946017e-09
3.47926507672266e-09
3.533966958089929e-09
3.589506441720727e-09
3.64589599159467e-09
3.703148251470703e-09
3.761276047392594e-09
3.820292390228416e-09
3.880210478243755e-09
3.941043699709632e-09
4.002805635545081e-09
4.065510061995493e-09
4.129170953346374e-09
4.193802484673772e-09
4.259419034630931e-09
4.326035188272878e-09
4.39366573991807e-09
4.462325696048625e-09
4.532030278248807e-09
4.602794926183295e-09
4.674635300614456e-09
4.747567286460139e-09
4.821606995892162e-09
4.896770771475801e-09
4.973075189351132e-09
5.05053706245656e-09
5.129173443795201e-09
5.209001629744545e-09
5.29003916340998e-09
5.372303838022694e-09
5.455813700382815e-09
5.540587054347782e-09
5.62664246436724e-09
5.713998759064074e-09
5.802675034863614e-09
5.8926906596699e-09
5.984065276591042e-09
6.076818807713461e-09
6.170971457925844e-09
6.266543718793774e-09
6.363556372484965e-09
6.462030495746613e-09
6.561987463934387e-09
6.663448955095223e-09
6.766436954103193e-09
6.870973756849478e-09
6.977081974488178e-09
7.084784537736902e-09
7.194104701234231e-09
7.305066047953861e-09
7.417692493677266e-09
7.532008291523943e-09
7.648038036541664e-09
7.765806670356015e-09
7.885339485881607e-09
8.006662132093751e-09
8.129800618863091e-09
8.25478132185283e-09
8.381630987480329e-09
8.510376737942688e-09
8.641046076308139e-09
8.773666891673356e-09
8.908267464388422e-09
9.044876471348855e-09
9.183522991356891e-09
9.324236510552408e-09
9.467046927913742e-09
9.611984560830527e-09
9.759080150748166e-09
9.908364868885476e-09
1.005987032202674e-08
1.021362855838805e-08
1.036967207355999e-08
1.052803381652676e-08
1.068874719576288e-08
1.085184608540908e-08
1.101736483152761e-08
1.118533825843773e-08
1.135580167513316e-08
1.152879088178225e-08
1.17043421763117e-08
1.18824923610746e-08
1.206327874960425e-08
1.224673917345552e-08
1.243291198913243e-08
1.262183608510624e-08
1.281355088892202e-08
1.300809637439757e-08
1.320551306891374e-08
1.340584206079775e-08
1.36091250068021e-08
1.381540413967777e-08
1.402472227584501e-08
1.423712282316165e-08
1.445264978879023e-08
1.467134778716652e-08
1.489326204806858e-08
1.511843842478816e-08
1.534692340240796e-08
1.557876410618221e-08
1.581400831002474e-08
1.605270444510475e-08
1.629490160855134e-08
1.654064957226954e-08
1.678999879186652e-08
1.704300041569265e-08
1.729970629399529e-08
1.756016898819018e-08
1.782444178024899e-08
1.809257868220596e-08
1.836463444578399e-08
1.864066457214403e-08
1.892072532175524e-08
1.920487372439142e-08
1.949316758925196e-08
1.978566551521206e-08
2.008242690120014e-08
2.038351195670741e-08
2.068898171242798e-08
2.099889803103404e-08
2.131332361808577e-08
2.163232203307833e-08
2.195595770062704e-08
2.228429592179333e-08
2.261740288555225e-08
2.295534568040346e-08
2.329819230612782e-08
2.364601168569032e-08
2.399887367729318e-08
2.435684908657797e-08
2.472000967898005e-08
2.508842819223887e-08
2.546217834906247e-08
2.584133486995014e-08
2.622597348617467e-08
2.661617095292746e-08
2.701200506262505e-08
2.74135546583823e-08
2.782089964765254e-08
2.823412101603682e-08
2.865330084126581e-08
2.907852230735218e-08
2.950986971892175e-08
2.994742851571915e-08
3.039128528729491e-08
3.084152778787355e-08
3.129824495140451e-08
3.176152690680096e-08
3.223146499336464e-08
3.27081517764024e-08
3.319168106303466e-08
3.368214791819761e-08
3.417964868084572e-08
3.468428098034933e-08
3.519614375309721e-08
3.571533725930074e-08
3.624196310000697e-08
3.67761242343181e-08
3.731792499682353e-08
3.786747111524509e-08
3.84248697282987e-08
3.899022940377543e-08
3.956366015684059e-08
4.014527346856166e-08
4.073518230465807e-08
4.133350113448242e-08
4.19403459502331e-08
4.255583428639874e-08
4.318008523944433e-08
4.381321948773319e-08
4.445535931169303e-08
4.510662861422564e-08
4.576715294136926e-08
4.643705950320521e-08
4.71164771950255e-08
4.780553661875003e-08
4.850437010461074e-08
4.921311173309337e-08
4.993189735714556e-08
5.066086462465725e-08
5.140015300120912e-08
5.214990379309744e-08
5.291026017063733e-08
5.368136719174611e-08
5.446337182581359e-08
5.525642297785821e-08
5.606067151297277e-08
5.687627028106943e-08
5.770337414191727e-08
5.854213999048349e-08
5.939272678257968e-08
6.025529556081271e-08
6.113000948085275e-08
6.201703383801113e-08
6.291653609413811e-08
6.382868590484533e-08
6.475365514705133e-08
6.569161794685778e-08
6.66427507077568e-08
6.760723213918069e-08
6.858524328538648e-08
6.957696755468827e-08
7.058259074903661e-08
7.160230109395542e-08
7.263628926882349e-08
7.368474843753234e-08
7.474787427949413e-08
7.582586502102814e-08
7.691892146711475e-08
7.802724703352911e-08
7.915104777935085e-08
8.029053243986785e-08
8.144591245986296e-08
8.261740202729404e-08
8.380521810737998e-08
8.500958047707941e-08
8.62307117599887e-08
8.74688374616372e-08
8.8724186005214e-08
8.999698876770444e-08
9.128748011646036e-08
9.259589744619505e-08
9.392248121641796e-08
9.526747498930505e-08
9.663112546802013e-08
9.801368253548092e-08
9.941539929358022e-08
1.008365321028752e-07
1.022773406227271e-07
1.037380878519258e-07
1.052190401697821e-07
1.067204673776988e-07
1.082426427412354e-07
1.097858430326584e-07
1.113503485739859e-07
1.12936443280544e-07
1.145444147050204e-07
1.161745540820393e-07
1.178271563732467e-07
1.195025203129269e-07
1.21200948454153e-07
1.229227472154593e-07
1.246682269280705e-07
1.264377018836693e-07
1.282314903827238e-07
1.300499147833671e-07
1.318933015508579e-07
1.337619813075902e-07
1.356562888837053e-07
1.375765633682712e-07
1.395231481610636e-07
1.414963910249372e-07
1.434966441388031e-07
1.455242641512217e-07
1.475796122346039e-07
1.496630541400439e-07
1.517749602527757e-07
1.539157056482729e-07
1.560856701489891e-07
1.582852383817517e-07
1.605147998358072e-07
1.627747489215441e-07
1.650654850298772e-07
1.673874125923169e-07
1.6974094114172e-07
1.721264853737427e-07
1.745444652089918e-07
1.769953058558817e-07
1.794794378742101e-07
1.819972972394635e-07
1.845493254078499e-07
1.871359693820646e-07
1.897576817778275e-07
1.924149208911416e-07
1.95108150766349e-07
1.978378412649394e-07
2.006044681351398e-07
2.034085130823041e-07
2.062504638400909e-07
2.09130814242443e-07
2.120500642963926e-07
2.150087202556822e-07
2.18007294695215e-07
2.210463065863508e-07
2.241262813730439e-07
2.272477510488478e-07
2.304112542347819e-07
2.336173362580703e-07
2.368665492317779e-07
2.401594521353267e-07
2.4349661089593e-07
2.468785984709227e-07
2.503059949310456e-07
2.537793875446188e-07
2.572993708627002e-07
2.608665468051677e-07
2.644815247477809e-07
2.681449216102036e-07
2.718573619450195e-07
2.756194780277315e-07
2.794319099477664e-07
2.83295305700508e-07
2.872103212803243e-07
2.911776207746594e-07
2.951978764591596e-07
2.992717688938502e-07
3.033999870203899e-07
3.075832282603984e-07
3.118221986148673e-07
3.161176127647046e-07
3.204701941723316e-07
3.248806751844695e-07
3.293497971360111e-07
3.338783104550765e-07
3.384669747691968e-07
3.431165590126995e-07
3.478278415352367e-07
3.526016102115683e-07
3.57438662552483e-07
3.623398058169888e-07
3.673058571257348e-07
3.723376435756368e-07
3.774360023558021e-07
3.82601780864726e-07
3.878358368287261e-07
3.931390384217244e-07
3.985122643863225e-07
4.039564041561907e-07
4.094723579797893e-07
4.150610370454717e-07
4.207233636079237e-07
4.264602711159862e-07
4.322727043418664e-07
4.381616195117767e-07
4.441279844379716e-07
4.501727786522088e-07
4.562969935407177e-07
4.625016324805429e-07
4.687877109774487e-07
4.75156256805272e-07
4.816083101467836e-07
4.881449237361068e-07
4.947671630026388e-07
5.014761062165302e-07
5.082728446357784e-07
5.15158482654837e-07
5.221341379548798e-07
5.292009416556722e-07
5.36360038469063e-07
5.436125868541425e-07
5.509597591740434e-07
5.584027418544519e-07
5.659427355438244e-07
5.735809552752723e-07
5.813186306302386e-07
5.891570059038938e-07
5.970973402723187e-07
6.051409079614452e-07
6.132889984178356e-07
6.215429164812619e-07
6.299039825591368e-07
6.383735328027843e-07
6.469529192856182e-07
6.55643510183191e-07
6.644466899551511e-07
6.733638595291705e-07
6.823964364867796e-07
6.915458552511956e-07
7.008135672771478e-07
7.102010412426891e-07
7.197097632430454e-07
7.29341236986563e-07
7.390969839926214e-07
7.489785437917314e-07
7.589874741277186e-07
7.69125351161985e-07
7.793937696800215e-07
7.897943432999727e-07
8.003287046835251e-07
8.109985057488803e-07
8.218054178860658e-07
8.327511321744612e-07
8.438373596026002e-07
8.550658312902932e-07
8.664382987130555e-07
8.779565339288866e-07
8.896223298074464e-07
9.014375002615837e-07
9.134038804812819e-07
9.255233271701182e-07
9.377977187840416e-07
9.502289557727911e-07
9.62818960823724e-07
9.755696791082077e-07
9.884830785305558e-07
1.001561149979619e-06
1.01480590758283e-06
1.028219388963069e-06
1.04180365549802e-06
1.05556079258235e-06
1.069492909892451e-06
1.083602141654055e-06
1.097890646912512e-06
1.112360609805936e-06
1.127014239841046e-06
1.141853772172003e-06
1.156881467881942e-06
1.17209961426755e-06
1.187510525126468e-06
1.20311654104767e-06
1.218920029704835e-06
1.234923386152707e-06
1.251129033126455e-06
1.267539421344187e-06
1.284157029812443e-06
1.30098436613489e-06
1.318023966824093e-06
1.335278397616556e-06
1.352750253790894e-06
1.370442160489258e-06
1.388356773042025e-06
1.406496777295868e-06
1.424864889944975e-06
1.443463858865824e-06
1.462296463455239e-06
1.481365514971855e-06
1.500673856881131e-06
1.52022436520375e-06
1.540019948867604e-06
1.560063550063305e-06
1.580358144603255e-06
1.600906742284369e-06
1.621712387254508e-06
1.642778158382415e-06
1.664107169631557e-06
1.685702570437641e-06
1.70756754608988e-06
1.729705318116182e-06
1.752119144672061e-06
1.77481232093359e-06
1.797788179494174e-06
1.821050090765285e-06
1.84460146338133e-06
1.868445744608309e-06
1.892586420756845e-06
1.917027017599093e-06
1.94177110078987e-06
1.966822276292007e-06
1.992184190805927e-06
2.017860532203333e-06
2.043855029965507e-06
2.070171455625557e-06
2.096813623215359e-06
2.123785389716812e-06
2.151090655517483e-06
2.178733364870803e-06
2.206717506360916e-06
2.235047113371815e-06
2.263726264561454e-06
2.292759084340252e-06
2.322149743354441e-06
2.351902458974053e-06
2.382021495785848e-06
2.412511166090942e-06
2.443375830407341e-06
2.474619897977385e-06
2.506247827280266e-06
2.538264126549331e-06
2.570673354294623e-06
2.603480119830503e-06
2.636689083808275e-06
2.670304958754142e-06
2.704332509612342e-06
2.738776554293465e-06
2.773641964228378e-06
2.8089336649271e-06
2.844656636543515e-06
2.880815914445226e-06
2.917416589789168e-06
2.954463810102597e-06
2.991962779869833e-06
3.029918761124489e-06
3.068337074047684e-06
3.107223097571729e-06
3.146582269989751e-06
3.186420089571237e-06
3.226742115183397e-06
3.267553966918514e-06
3.308861326727344e-06
3.350669939058464e-06
3.392985611503972e-06
3.435814215451158e-06
3.479161686740362e-06
3.52303402632941e-06
3.567437300964066e-06
3.612377643854949e-06
3.657861255361087e-06
3.703894403679697e-06
3.750483425542799e-06
3.797634726920075e-06
3.845354783728771e-06
3.89365014255014e-06
3.942527421352669e-06
3.991993310222217e-06
4.04205457209894e-06
4.09271804352128e-06
4.14399063537696e-06
4.195879333661008e-06
4.24839120024095e-06
4.301533373629126e-06
4.355313069762372e-06
4.409737582789102e-06
4.464814285863432e-06
4.520550631947133e-06
4.576954154618808e-06
4.634032468890883e-06
4.69179327203399e-06
4.75024434440926e-06
4.809393550308138e-06
4.869248838800378e-06
4.929818244589563e-06
4.991109888876753e-06
5.053131980232223e-06
5.115892815475183e-06
5.179400780561736e-06
5.243664351480939e-06
5.30869209515932e-06
5.374492670373653e-06
5.441074828672241e-06
5.508447415304627e-06
5.576619370159847e-06
5.645599728713644e-06
5.715397622983809e-06
5.786022282494961e-06
5.857483035251656e-06
5.929789308720876e-06
6.002950630823083e-06
6.076976630932667e-06
6.151877040887547e-06
6.22766169600783e-06
6.304340536123804e-06
6.381923606613526e-06
6.460421059449555e-06
6.539843154255441e-06
6.620200259371838e-06
6.7015028529321e-06
6.783761523947825e-06
6.866986973404224e-06
6.951190015365444e-06
7.036381578089739e-06
7.122572705154826e-06
7.20977455659364e-06
7.297998410039767e-06
7.387255661883994e-06
7.477557828440479e-06
7.568916547124053e-06
7.661343577637622e-06
7.75485080317069e-06
7.849450231608225e-06
7.945153996750708e-06
8.041974359544813e-06
8.139923709325327e-06
8.239014565067997e-06
8.339259576653747e-06
8.440671526144037e-06
8.543263329067552e-06
8.647048035718497e-06
8.752038832466389e-06
8.85824904307735e-06
8.965692130047361e-06
9.07438169594711e-06
9.184331484778907e-06
9.295555383345531e-06
9.408067422631282e-06
9.521881779195001e-06
9.637012776575589e-06
9.753474886710052e-06
9.871282731363328e-06
9.990451083571882e-06
1.011099486909864e-05
1.023292916790164e-05
1.035626921561551e-05
1.048103040504503e-05
1.060722828767294e-05
1.073487857518049e-05
1.086399714098051e-05
1.099460002176525e-05
1.112670341906642e-05
1.126032370082973e-05
1.139547740300259e-05
1.153218123113568e-05
1.167045206199867e-05
1.181030694520968e-05
1.195176310487889e-05
1.209483794126661e-05
1.223954903245522e-05
1.238591413603594e-05
1.253395119081007e-05
1.268367831850461e-05
1.283511382550316e-05
1.298827620459115e-05
1.314318413671634e-05
1.329985649276431e-05
1.345831233534934e-05
1.361857092062052e-05
1.378065170008308e-05
1.394457432243564e-05
1.411035863542296e-05
1.427802468770427e-05
1.444759273073801e-05
1.461908322068216e-05
1.47925168203107e-05
1.496791440094682e-05
1.514529704441162e-05
1.532468604499052e-05
1.550610291141523e-05
1.568956936886292e-05
1.587510736097216e-05
1.606273905187625e-05
1.625248682825266e-05
1.644437330139097e-05
1.663842130927746e-05
1.683465391869693e-05
1.703309442735289e-05
1.723376636600522e-05
1.743669350062513e-05
1.764189983456903e-05