/*--------------------------------*- C++ -*----------------------------------*\
| =========                 |                                                 |
| \\      /  F ield         | OpenFOAM: The Open Source CFD Toolbox           |
|  \\    /   O peration     | Version:  2412                                  |
|   \\  /    A nd           | Website:  www.openfoam.com                      |
|    \\/     M anipulation  |                                                 |
\*---------------------------------------------------------------------------*/
FoamFile
{
    version     2.0;
    format      ascii;
    arch        "LSB;label=32;scalar=64";
    class       volScalarField;
    location    "0";
    object      T_0_0;
}
// * * * * * * * * * * * * * * * * * * * * * * * * * * * * * * * * * * * * * //

dimensions      [0 0 0 1 0 0 0];

internalField   nonuniform List<scalar> 
8000
(
1.279654931621886e-14
1.305497353440336e-14
1.33185333462672e-14
1.358732910379565e-14
1.386146308544175e-14
1.414103953242354e-14
1.442616468569214e-14
1.471694682358247e-14
1.501349630015829e-14
1.531592558426482e-14
1.562434929930306e-14
1.593888426373532e-14
1.625964953233919e-14
1.658676643821956e-14
1.692035863559657e-14
1.726055214337961e-14
1.760747538954376e-14
1.7961259256322e-14
1.832203712623003e-14
1.868994492893485e-14
1.90651211889865e-14
1.944770707442436e-14
1.983784644627898e-14
2.023568590897914e-14
2.064137486168577e-14
2.105506555056621e-14
2.147691312202813e-14
2.190707567692741e-14
2.234571432576995e-14
2.279299324492371e-14
2.324907973386101e-14
2.371414427344608e-14
2.418836058529113e-14
2.467190569219483e-14
2.516495997968857e-14
2.566770725870471e-14
2.618033482939088e-14
2.67030335460864e-14
2.723599788348972e-14
2.777942600402723e-14
2.833351982645422e-14
2.889848509570373e-14
2.947453145401105e-14
3.006187251333022e-14
3.066072592907279e-14
3.127131347518333e-14
3.189386112058748e-14
3.252859910702456e-14
3.317576202829786e-14
3.383558891096391e-14
3.45083232964883e-14
3.519421332489356e-14
3.589351181992317e-14
3.660647637575365e-14
3.733336944527569e-14
3.807445842998091e-14
3.883001577147241e-14
3.960031904463537e-14
4.038565105249633e-14
4.118629992279649e-14
4.200255920631479e-14
4.283472797696868e-14
4.368311093372269e-14
4.45480185043447e-14
4.542976695102949e-14
4.632867847793543e-14
4.724508134065748e-14
4.817930995768196e-14
4.91317050238468e-14
5.01026136258473e-14
5.109238935982898e-14
5.21013924510936e-14
5.312998987596431e-14
5.417855548584453e-14
5.524747013350614e-14
5.633712180165573e-14
5.744790573380752e-14
5.858022456751101e-14
5.973448846997045e-14
6.091111527610467e-14
6.211053062908155e-14
6.33331681233756e-14
6.457946945039206e-14
6.58498845467054e-14
6.714487174495045e-14
6.846489792742157e-14
6.981043868241866e-14
7.118197846339795e-14
7.258001075096855e-14
7.400503821778604e-14
7.545757289639554e-14
7.693813635007956e-14
7.844725984675344e-14
7.998548453597097e-14
8.155336162908517e-14
8.3151452582634e-14
8.47803292849892e-14
8.644057424633954e-14
8.813278079205727e-14
8.985755325951388e-14
9.16155071984017e-14
9.340726957461929e-14
9.523347897778829e-14
9.709478583246455e-14
9.89918526131037e-14
1.009253540628486e-13
1.028959774162015e-13
1.049044226256626e-13
1.069514025923807e-13
1.090376434009104e-13
1.111638845581173e-13
1.133308792363448e-13
1.155393945208678e-13
1.177902116617528e-13
1.200841263301603e-13
1.224219488792049e-13
1.248045046094191e-13
1.272326340389224e-13
1.297071931783614e-13
1.322290538107222e-13
1.347991037760778e-13
1.374182472613706e-13
1.400874050953097e-13
1.428075150484814e-13
1.455795321387429e-13
1.484044289420168e-13
1.512831959085484e-13
1.542168416847569e-13
1.572063934407393e-13
1.602528972035525e-13
1.633574181963568e-13
1.665210411835281e-13
1.697448708218454e-13
1.730300320178433e-13
1.763776702914528e-13
1.797889521460282e-13
1.832650654448751e-13
1.868072197943784e-13
1.90416646933862e-13
1.940946011322898e-13
1.978423595919098e-13
2.01661222858982e-13
2.055525152416962e-13
2.095175852354127e-13
2.135578059553507e-13
2.176745755768312e-13
2.218693177832364e-13
2.261434822217986e-13
2.304985449673461e-13
2.349360089941622e-13
2.394574046560667e-13
2.440642901749065e-13
2.487582521375333e-13
2.535409060014833e-13
2.584138966094421e-13
2.633788987127075e-13
2.684376175037396e-13
2.73591789158012e-13
2.788431813852683e-13
2.841935939903922e-13
2.896448594440241e-13
2.951988434630945e-13
3.008574456014395e-13
3.06622599850704e-13
3.12496275251645e-13
3.184804765160638e-13
3.245772446595266e-13
3.307886576450463e-13
3.371168310379469e-13
3.435639186720615e-13
3.501321133274474e-13
3.568236474198824e-13
3.636407937022681e-13
3.705858659781541e-13
3.776612198276282e-13
3.848692533457398e-13
3.922124078936864e-13
3.996931688629849e-13
4.073140664527929e-13
4.150776764607275e-13
4.229866210872294e-13
4.310435697538722e-13
4.392512399357509e-13
4.476123980081815e-13
4.561298601080456e-13
4.648064930099184e-13
4.736452150172696e-13
4.82648996869038e-13
4.918208626617376e-13
5.011638907874729e-13
5.106812148879924e-13
5.203760248252194e-13
5.302515676683582e-13
5.403111486980036e-13
5.505581324274058e-13
5.609959436413296e-13
5.716280684526334e-13
5.824580553770034e-13
5.93489516426078e-13
6.047261282192466e-13
6.161716331145508e-13
6.27829840358843e-13
6.397046272576419e-13
6.517999403650135e-13
6.641197966937082e-13
6.766682849460047e-13
6.894495667655722e-13
7.02467878010626e-13
7.157275300488739e-13
7.292329110744917e-13
7.42988487447541e-13
7.569988050561851e-13
7.712684907021586e-13
7.858022535097272e-13
8.006048863586977e-13
8.156812673417129e-13
8.310363612463936e-13
8.466752210626109e-13
8.626029895153725e-13
8.788249006236983e-13
8.953462812860276e-13
9.121725528924371e-13
9.293092329642023e-13
9.467619368211769e-13
9.645363792774184e-13
9.826383763654662e-13
1.001073847089905e-12
1.019848815210461e-12
1.038969411055397e-12
1.058441873365453e-12
1.078272551169012e-12
1.09846790568885e-12
1.11903451228122e-12
1.139979062407523e-12
1.161308365639305e-12
1.183029351697036e-12
1.205149072523292e-12
1.227674704390819e-12
1.250613550046139e-12
1.273973040889161e-12
1.297760739189583e-12
1.3219843403405e-12
1.346651675149889e-12
1.371770712170672e-12
1.397349560069766e-12
1.42339647003716e-12
1.449919838235212e-12
1.476928208289066e-12
1.504430273818947e-12
1.532434881014799e-12
1.560951031254094e-12
1.589987883763458e-12
1.619554758324944e-12
1.649661138027459e-12
1.680316672064334e-12
1.711531178577569e-12
1.743314647549708e-12
1.775677243743963e-12
1.808629309693448e-12
1.842181368740259e-12
1.876344128125401e-12
1.911128482130087e-12
1.946545515269479e-12
1.982606505539636e-12
2.019322927718542e-12
2.056706456722125e-12
2.094768971016035e-12
2.13352255608424e-12
2.172979507955329e-12
2.213152336787353e-12
2.254053770512282e-12
2.295696758540852e-12
2.338094475529105e-12
2.381260325207336e-12
2.425207944272439e-12
2.469951206344964e-12
2.515504225991514e-12
2.561881362814089e-12
2.609097225606811e-12
2.657166676581577e-12
2.706104835663678e-12
2.755927084858371e-12
2.806649072689543e-12
2.858286718711929e-12
2.910856218097497e-12
2.964374046297987e-12
3.018856963783988e-12
3.074322020862232e-12
3.130786562572641e-12
3.188268233665607e-12
3.246784983661568e-12
3.306355071993676e-12
3.366997073235226e-12
3.428729882413133e-12
3.491572720408585e-12
3.555545139446546e-12
3.620667028675453e-12
3.686958619838623e-12
3.754440493038564e-12
3.823133582595945e-12
3.893059183004657e-12
3.964238954984608e-12
4.036694931633434e-12
4.110449524679114e-12
4.185525530835048e-12
4.261946138258913e-12
4.339734933117316e-12
4.418915906257756e-12
4.499513459989513e-12
4.5815524149754e-12
4.665058017236214e-12
4.750055945268975e-12
4.83657231728199e-12
4.924633698547331e-12
5.014267108873486e-12
5.105500030199543e-12
5.198360414313158e-12
5.292876690694311e-12
5.389077774486287e-12
5.486993074596718e-12
5.58665250193e-12
5.688086477753631e-12
5.791325942200615e-12
5.896402362909468e-12
6.003347743804785e-12
6.112194634020155e-12
6.22297613696575e-12
6.335725919542723e-12
6.45047822150708e-12
6.567267864985262e-12
6.68613026414328e-12
6.807101435012625e-12
6.930218005475266e-12
7.055517225409554e-12
7.183036977000389e-12
7.312815785215585e-12
7.444892828452125e-12
7.579307949352845e-12
7.716101665798924e-12
7.85531518207891e-12
7.996990400237402e-12
8.141169931607678e-12
8.287897108528566e-12
8.437215996250953e-12
8.589171405035098e-12
8.743808902443135e-12
8.901174825828409e-12
9.061316295026054e-12
9.224281225246565e-12
9.390118340177403e-12
9.558877185293771e-12
9.730608141383241e-12
9.905362438287379e-12
1.008319216886287e-11
1.026415030316705e-11
1.044829070286968e-11
1.06356681358957e-11
1.082633829130242e-11
1.102035779439391e-11
1.121778422207741e-11
1.141867611846433e-11
1.162309301072122e-11
1.183109542517305e-11
1.204274490366328e-11
1.225810402017469e-11
1.247723639771579e-11
1.270020672547533e-11
1.292708077625032e-11
1.31579254241509e-11
1.339280866258789e-11
1.363179962254523e-11
1.387496859114339e-11
1.412238703049678e-11
1.437412759687252e-11
1.463026416015084e-11
1.48908718235959e-11
1.515602694393941e-11
1.542580715178216e-11
1.570029137232001e-11
1.597955984639678e-11
1.626369415189097e-11
1.655277722544022e-11
1.684689338451029e-11
1.714612834981236e-11
1.745056926807341e-11
1.776030473516836e-11
1.807542481961546e-11
1.839602108644323e-11
1.872218662143301e-11
1.905401605574485e-11
1.939160559093052e-11
1.973505302434047e-11
2.008445777493031e-11
2.043992090947495e-11
2.08015451691927e-11
2.116943499679015e-11
2.154369656392934e-11
2.192443779912953e-11
2.231176841610407e-11
2.270579994254348e-11
2.310664574934898e-11
2.351442108032558e-11
2.392924308233889e-11
2.435123083594583e-11
2.478050538650243e-11
2.521718977576168e-11
2.566140907396257e-11
2.611329041242258e-11
2.657296301663871e-11
2.704055823990475e-11
2.751620959745605e-11
2.800005280114335e-11
2.849222579465096e-11
2.899286878925994e-11
2.95021243001739e-11
3.002013718340482e-11
3.054705467323824e-11
3.108302642027614e-11
3.162820453007738e-11
3.218274360239423e-11
3.274680077101965e-11
3.332053574425562e-11
3.390411084600717e-11
3.449769105751505e-11
3.510144405973577e-11
3.571554027637798e-11
3.634015291760717e-11
3.697545802442585e-11
3.762163451374145e-11
3.82788642241303e-11
3.894733196231258e-11
3.962722555034203e-11
4.031873587352771e-11
4.102205692909288e-11
4.173738587558913e-11
4.246492308306972e-11
4.320487218403716e-11
4.395744012517819e-11
4.472283721989255e-11
4.550127720163513e-11
4.629297727807615e-11
4.709815818609354e-11
4.791704424761601e-11
4.874986342632044e-11
4.959684738520006e-11
5.045823154502112e-11
5.133425514367214e-11
5.22251612964262e-11
5.313119705712788e-11
5.405261348031504e-11
5.498966568429769e-11
5.594261291519759e-11
5.691171861197195e-11
5.789725047242807e-11
5.889948052025337e-11
5.991868517306332e-11
6.095514531149521e-11
6.200914634935099e-11
6.308097830481691e-11
6.417093587276462e-11
6.527931849815899e-11
6.640643045058076e-11
6.755258089988751e-11
6.871808399302604e-11
6.99032589320143e-11
7.110843005310625e-11
7.233392690716736e-11
7.358008434126515e-11
7.484724258150121e-11
7.613574731710381e-11
7.744594978579234e-11
7.877820686044051e-11
8.013288113704955e-11
8.151034102405991e-11
8.291096083301058e-11
8.433512087057491e-11
8.578320753198654e-11
8.725561339588148e-11
8.875273732056903e-11
9.027498454176408e-11
9.182276677179217e-11
9.33965023002904e-11
9.499661609642987e-11
9.662353991268227e-11
9.827771239014748e-11
9.995957916546746e-11
1.016695929793541e-10
1.034082137867486e-10
1.051759088686381e-10
1.069731529455522e-10
1.088004282927728e-10
1.106582248572651e-10
1.12547040376372e-10
1.144673804982827e-10
1.164197589043207e-10
1.184046974330528e-10
1.204227262062641e-10
1.224743837568198e-10
1.245602171584428e-10
1.266807821574321e-10
1.288366433063491e-10
1.310283740997068e-10
1.332565571116852e-10
1.355217841359056e-10
1.378246563272866e-10
1.401657843460187e-10
1.425457885036986e-10
1.449652989116138e-10
1.474249556312703e-10
1.499254088271387e-10
1.524673189216782e-10
1.550513567526796e-10
1.576782037329309e-10
1.603485520122665e-10
1.630631046420242e-10
1.658225757419403e-10
1.686276906695236e-10
1.714791861919377e-10
1.743778106604421e-10
1.773243241874119e-10
1.803194988259747e-10
1.833641187523218e-10
1.864589804506958e-10
1.896048929011397e-10
1.928026777700003e-10
1.960531696032626e-10
1.993572160227208e-10
2.027156779250663e-10
2.061294296839043e-10
2.095993593547358e-10
2.131263688829914e-10
2.167113743151002e-10
2.203553060126805e-10
2.240591088698866e-10
2.278237425339452e-10
2.316501816289352e-10
2.355394159828632e-10
2.394924508580596e-10
2.4351030718498e-10
2.475940217994158e-10
2.517446476831937e-10
2.55963254208407e-10
2.602509273852142e-10
2.646087701132792e-10
2.690379024368857e-10
2.73539461803782e-10
2.781146033278135e-10
2.827645000553976e-10
2.874903432358871e-10
2.922933425958734e-10
2.971747266175099e-10
3.02135742820883e-10
3.071776580505063e-10
3.123017587659752e-10
3.175093513368788e-10
3.228017623419847e-10
3.281803388727862e-10
3.336464488414604e-10
3.392014812932996e-10
3.448468467236899e-10
3.505839773996934e-10
3.564143276862768e-10
3.623393743772975e-10
3.683606170312845e-10
3.744795783120653e-10
3.806978043343485e-10
3.870168650142915e-10
3.934383544251654e-10
3.999638911581346e-10
4.065951186882677e-10
4.133337057458345e-10
4.201813466929531e-10
4.271397619056987e-10
4.342106981617022e-10
4.413959290333237e-10
4.486972552865398e-10
4.561165052855266e-10
4.636555354030998e-10
4.713162304370278e-10
4.791005040323769e-10
4.870102991098827e-10
4.950475883005084e-10
5.032143743862012e-10
5.1151269074704e-10
5.199446018147315e-10
5.285122035326407e-10
5.372176238224162e-10
5.460630230572669e-10
5.550505945420665e-10
5.641825650002779e-10
5.734611950678538e-10
5.828887797942206e-10
5.924676491503873e-10
6.022001685443148e-10
6.120887393436638e-10
6.221357994059721e-10
6.323438236163947e-10
6.427153244331233e-10
6.532528524405322e-10
6.639589969102609e-10
6.748363863702178e-10
6.858876891817078e-10
6.971156141247406e-10
7.085229109916844e-10
7.201123711893181e-10
7.318868283494357e-10
7.438491589480996e-10
7.560022829337029e-10
7.683491643638977e-10
7.808928120515509e-10
7.936362802198481e-10
8.065826691666456e-10
8.197351259382508e-10
8.330968450126947e-10
8.466710689926342e-10
8.604610893080916e-10
8.74470246929082e-10
8.887019330882275e-10
9.031595900137058e-10
9.178467116723245e-10
9.327668445232441e-10
9.479235882821777e-10
9.633205966964107e-10
9.789615783306458e-10
9.948502973639839e-10
1.010990574398011e-09
1.027386287276232e-09
1.044041371915078e-09
1.060959823146459e-09
1.078145695572217e-09
1.095603104430417e-09
1.113336226473941e-09
1.131349300861236e-09
1.149646630059513e-09
1.168232580760685e-09
1.187111584809992e-09
1.206288140147603e-09
1.225766811763419e-09
1.245552232665081e-09
1.265649104859631e-09
1.286062200348639e-09
1.306796362137356e-09
1.327856505257902e-09
1.34924761780651e-09
1.370974761995408e-09
1.393043075219195e-09
1.415457771135999e-09
1.438224140763758e-09
1.461347553591605e-09
1.484833458706664e-09
1.508687385936534e-09
1.532914947007491e-09
1.557521836718849e-09
1.582513834133395e-09
1.607896803784472e-09
1.633676696899636e-09
1.659859552641152e-09
1.686451499363774e-09
1.713458755889785e-09
1.740887632801534e-09
1.768744533752017e-09
1.797035956793289e-09
1.825768495723202e-09
1.854948841450872e-09
1.884583783380567e-09
1.914680210814979e-09
1.945245114377534e-09
1.976285587454288e-09
2.007808827655688e-09
2.039822138298257e-09
2.072332929906702e-09
2.105348721736454e-09
2.138877143317261e-09
2.172925936017746e-09
2.20750295463132e-09
2.242616168983997e-09
2.278273665563976e-09
2.314483649173498e-09
2.351254444603377e-09
2.388594498330164e-09
2.426512380236675e-09
2.46501678535575e-09
2.504116535637931e-09
2.543820581743089e-09
2.584138004856439e-09
2.62507801852931e-09
2.666649970544772e-09
2.708863344808813e-09
2.751727763267043e-09
2.79525298784732e-09
2.839448922429023e-09
2.884325614838587e-09
2.929893258872443e-09
2.976162196347091e-09
3.023142919177021e-09
3.070846071480648e-09
3.119282451714828e-09
3.168463014838093e-09
3.218398874503108e-09
3.26910130527867e-09
3.320581744901797e-09
3.372851796560033e-09
3.425923231204515e-09
3.479807989894217e-09
3.534518186171643e-09
3.59006610847062e-09
3.646464222556302e-09
3.703725173997984e-09
3.761861790675053e-09
3.820887085316785e-09
3.880814258075843e-09
3.941656699136588e-09
4.003427991358002e-09
4.066141912952366e-09
4.129812440199477e-09
4.194453750197196e-09
4.260080223648844e-09
4.326706447687794e-09
4.394347218739736e-09
4.463017545423181e-09
4.532732651488422e-09
4.603507978796097e-09
4.675359190334941e-09
4.748302173279904e-09
4.822353042091145e-09
4.897528141653854e-09
4.973844050460113e-09
5.051317583832684e-09
5.129965797191988e-09
5.2098059893661e-09
5.290855705944812e-09
5.373132742677861e-09
5.456655148918608e-09
5.541441231112834e-09
5.627509556334116e-09
5.714878955865338e-09
5.803568528828279e-09
5.893597645860558e-09
5.984985952841283e-09
6.077753374665885e-09
6.171920119070536e-09
6.267506680507367e-09
6.364533844070115e-09
6.46302268947196e-09
6.562994595075253e-09
6.66447124197464e-09
6.767474618133461e-09
6.872027022574516e-09
6.978151069626082e-09
7.085869693223341e-09
7.195206151266253e-09
7.306184030034431e-09
7.418827248660104e-09
7.53316006365931e-09
7.649207073522456e-09
7.766993223364622e-09
7.886543809637221e-09
8.007884484900568e-09
8.131041262658824e-09
8.256040522258157e-09
8.382909013848652e-09
8.511673863410838e-09
8.642362577847558e-09
8.77500305014214e-09
8.909623564583687e-09
9.046252802060257e-09
9.184919845420367e-09
9.325654184904929e-09
9.468485723648756e-09
9.613444783253943e-09
9.760562109435239e-09
9.909868877738251e-09
1.006139669933245e-08
1.021517762687814e-08
1.037124416046985e-08
1.052962925365648e-08
1.069036631953846e-08
1.085348923694464e-08
1.101903235668835e-08
1.118703050790372e-08
1.135751900446375e-08
1.153053365148187e-08
1.170611075189576e-08
1.188428711313672e-08
1.206510005388438e-08
1.22485874109085e-08
1.243478754599804e-08
1.262373935297956e-08
1.281548226482511e-08
1.301005626085187e-08
1.32075018740134e-08
1.34078601982841e-08
1.361117289613876e-08
1.381748220612696e-08
1.402683095054456e-08
1.423926254320348e-08
1.445482099729935e-08
1.467355093338122e-08
1.489549758742168e-08
1.512070681898924e-08
1.534922511952672e-08
1.558109962073257e-08
1.581637810305062e-08
1.605510900426629e-08
1.629734142821277e-08
1.654312515358758e-08
1.679251064288044e-08
1.704554905141518e-08
1.730229223650476e-08
1.756279276672379e-08
1.782710393129735e-08
1.809527974960863e-08
1.836737498082664e-08
1.864344513365616e-08
1.892354647620975e-08
1.920773604600513e-08
1.949607166008766e-08
1.978861192528123e-08
2.008541624856785e-08
2.038654484759788e-08
2.069205876133151e-08
2.100201986081555e-08
2.131649086009471e-08
2.163553532725998e-08
2.19592176956344e-08
2.228760327510189e-08
2.26207582635748e-08
2.295874975860718e-08
2.330164576915273e-08
2.364951522746879e-08
2.400242800117134e-08
2.436045490543849e-08
2.472366771536634e-08
2.509213917848145e-08
2.546594302740541e-08
2.584515399268124e-08
2.622984781575541e-08
2.662010126212552e-08
2.701599213464785e-08
2.74175992870132e-08
2.782500263738738e-08
2.823828318222363e-08
2.865752301024466e-08
2.908280531659838e-08
2.95142144171897e-08
2.995183576318796e-08
3.039575595571688e-08
3.084606276072328e-08
3.130284512403063e-08
3.176619318657898e-08
3.223619829985282e-08
3.271295304149846e-08
3.319655123113496e-08
3.368708794635812e-08
3.418465953894511e-08
3.468936365125389e-08
3.520129923282795e-08
3.572056655720249e-08
3.624726723891948e-08
3.678150425074926e-08
3.73233819411251e-08
3.787300605178985e-08
3.843048373566046e-08
3.899592357491052e-08
3.956943559927228e-08
4.015113130456681e-08
4.07411236714554e-08
4.133952718442375e-08
4.194645785099594e-08
4.25620332211834e-08
4.318637240717049e-08
4.38195961032411e-08
4.446182660594608e-08
4.511318783451637e-08
4.577380535152609e-08
4.64438063838041e-08
4.712331984360177e-08
4.781247635001451e-08
4.851140825066774e-08
4.922024964366126e-08
4.993913639978077e-08
5.066820618498005e-08
5.140759848313216e-08
5.215745461905771e-08
5.291791778183103e-08
5.368913304836533e-08
5.447124740728664e-08
5.526440978309267e-08
5.606877106060163e-08
5.688448410969941e-08
5.771170381038112e-08
5.855058707809535e-08
5.940129288939227e-08
6.026398230787945e-08
6.113881851049077e-08
6.202596681406945e-08
6.292559470226812e-08
6.383787185277455e-08
6.476297016486082e-08
6.570106378726162e-08
6.66523291463873e-08
6.761694497487436e-08
6.85950923404756e-08
6.958695467529452e-08
7.059271780536811e-08
7.161256998060834e-08
7.264670190508728e-08
7.369530676769731e-08
7.475858027316367e-08
7.583672067343444e-08
7.692992879943853e-08
7.803840809322177e-08
7.916236464046288e-08
8.030200720337984e-08
8.145754725401872e-08
8.262919900794178e-08
8.381717945831308e-08
8.502170841038448e-08
8.624300851639629e-08
8.748130531087689e-08
8.873682724637378e-08
9.000980572959422e-08
9.13004751579795e-08
9.260907295670578e-08
9.393583961612005e-08
9.528101872961801e-08
9.664485703196803e-08
9.802760443808335e-08
9.942951408224619e-08
1.008508423578016e-07
1.022918489573032e-07
1.03752796913143e-07
1.05233952638645e-07
1.067355859696446e-07
1.082579702065575e-07
1.098013821569336e-07
1.113661021785076e-07
1.129524142227603e-07
1.145606058789772e-07
1.161909684188287e-07
1.178437968414604e-07
1.195193899191155e-07
1.212180502432898e-07
1.22940084271409e-07
1.246858023740658e-07
1.264555188827908e-07
1.282495521383848e-07
1.300682245398077e-07
1.319118625936399e-07
1.337807969641018e-07
1.356753625236696e-07
1.375958984042617e-07
1.395427480490235e-07
1.415162592647075e-07
1.435167842746545e-07
1.455446797723943e-07
1.476003069758527e-07
1.496840316821894e-07
1.517962243232617e-07
1.539372600217312e-07
1.561075186478105e-07
1.583073848766613e-07
1.605372482464517e-07
1.627975032170797e-07
1.650885492295677e-07
1.674107907661367e-07
1.697646374109664e-07
1.721505039116549e-07
1.745688102413736e-07
1.77019981661735e-07
1.795044487863742e-07
1.820226476452629e-07
1.845750197497453e-07
1.871620121583175e-07
1.897840775431678e-07
1.924416742574437e-07
1.95135266403319e-07
1.978653239008025e-07
2.006323225573439e-07
2.03436744138227e-07
2.062790764377547e-07
2.091598133512391e-07
2.120794549478139e-07
2.150385075440633e-07
2.180374837784808e-07
2.210769026867741e-07
2.241572897780097e-07
2.272791771116306e-07
2.304431033753266e-07
2.336496139637838e-07
2.368992610583307e-07
2.401926037074637e-07
2.43530207908286e-07
2.469126466888557e-07
2.503405001914697e-07
2.538143557568514e-07
2.573348080093206e-07
2.60902458942881e-07
2.645179180082934e-07
2.681818022011099e-07
2.71894736150694e-07
2.75657352210239e-07
2.794702905477705e-07
2.833341992382019e-07
2.872497343563643e-07
2.912175600711108e-07
2.952383487404543e-07
2.993127810077523e-07
3.034415458989739e-07
3.076253409210409e-07
3.118648721612438e-07
3.161608543877993e-07
3.205140111514625e-07
3.249250748883203e-07
3.293947870236756e-07
3.339238980771149e-07
3.385131677687051e-07
3.431633651263841e-07
3.478752685945137e-07
3.526496661436609e-07
3.574873553815388e-07
3.623891436652099e-07
3.673558482145156e-07
3.723882962267179e-07
3.774873249924357e-07
3.826537820128538e-07
3.878885251181713e-07
3.931924225873943e-07
3.985663532694301e-07
4.040112067054778e-07
4.095278832527776e-07
4.151172942097199e-07
4.207803619422927e-07
4.265180200119318e-07
4.323312133047336e-07
4.382208981621176e-07
4.441880425128661e-07
4.50233626006616e-07
4.56358640148824e-07
4.62564088437137e-07
4.688509864993101e-07
4.752203622325658e-07
4.816732559444856e-07
4.882107204954284e-07
4.948338214424743e-07
5.015436371849241e-07
5.083412591114006e-07
5.152277917484793e-07
5.222043529109626e-07
5.292720738537778e-07
5.364320994254706e-07
5.436855882233975e-07
5.510337127505296e-07
5.584776595739788e-07
5.660186294852498e-07
5.736578376621231e-07
5.813965138323535e-07
5.89235902439097e-07
5.971772628080866e-07
6.052218693166152e-07
6.133710115643219e-07
6.216259945457857e-07
6.299881388249836e-07
6.384587807115753e-07
6.470392724391018e-07
6.557309823450513e-07
6.645352950528436e-07
6.734536116557577e-07
6.824873499028164e-07
6.916379443866029e-07
7.009068467331316e-07
7.102955257936582e-07
7.198054678385726e-07
7.294381767533458e-07
7.391951742364759e-07
7.490779999995987e-07
7.590882119697035e-07
7.692273864934086e-07
7.794971185434967e-07
7.898990219274937e-07
8.004347294985971e-07
8.111058933686618e-07
8.219141851235196e-07
8.328612960405555e-07
8.439489373085111e-07
8.551788402496393e-07
8.665527565441551e-07
8.780724584570331e-07
8.897397390672134e-07
9.015564124991606e-07
9.135243141568178e-07
9.256453009600947e-07
9.379212515836827e-07
9.503540666984873e-07
9.629456692154838e-07
9.756980045321256e-07
9.886130407813221e-07
1.001692769083055e-06
1.014939203798433e-06
1.028354382786591e-06
1.041940367664089e-06
1.055699244067087e-06
1.069633121916152e-06
1.08374413568386e-06
1.098034444665134e-06
1.11250623325041e-06
1.127161711201489e-06
1.142003113930426e-06
1.157032702781079e-06
1.172252765313714e-06
1.187665615592447e-06
1.203273594475641e-06
1.219079069909311e-06
1.235084437223524e-06
1.251292119431769e-06
1.267704567533522e-06
1.284324260819764e-06
1.3011537071817e-06
1.318195443422574e-06
1.335452035572729e-06
1.352926079207815e-06
1.370620199770256e-06
1.388537052893961e-06
1.406679324732432e-06
1.425049732290021e-06
1.443651023756728e-06
1.462485978846301e-06
1.481557409137724e-06
1.500868158420282e-06
1.520421103041987e-06
1.540219152261582e-06
1.560265248604121e-06
1.580562368220047e-06
1.601113521247965e-06
1.621921752181111e-06
1.642990140237312e-06
1.664321799732883e-06
1.68591988046017e-06
1.707787568068871e-06
1.729928084451232e-06
1.752344688131023e-06
1.775040674656515e-06
1.798019376997307e-06
1.821284165945087e-06
1.844838450518545e-06
1.868685678372093e-06
1.892829336208878e-06
1.917272950197801e-06
1.942020086394644e-06
1.967074351167481e-06
1.99243939162629e-06
2.018118896056704e-06
2.044116594358308e-06
2.070436258487002e-06
2.097081702901912e-06
2.124056785016712e-06
2.151365405655369e-06
2.179011509512297e-06
2.206999085617309e-06
2.235332167804795e-06
2.264014835187845e-06
2.293051212636834e-06
2.322445471262816e-06
2.352201828905544e-06
2.382324550626451e-06
2.412817949206318e-06
2.443686385647878e-06
2.474934269683285e-06
2.506566060286726e-06
2.538586266191702e-06
2.570999446413685e-06
2.603810210777759e-06
2.637023220451305e-06
2.67064318848201e-06
2.704674880341052e-06
2.739123114471472e-06
2.77399276284216e-06
2.809288751506753e-06
2.845016061168459e-06
2.881179727749908e-06
2.917784842968845e-06
2.954836554919207e-06
2.992340068657841e-06
3.030300646796897e-06
3.068723610101957e-06
3.107614338095953e-06
3.146978269668707e-06
3.186820903692593e-06
3.227147799643967e-06
3.26796457823055e-06
3.309276922024885e-06
3.351090576103797e-06
3.393411348694091e-06
3.436245111824323e-06
3.479597801982714e-06
3.52347542078162e-06
3.567884035628106e-06
3.612829780400887e-06
3.658318856133941e-06
3.70435753170638e-06
3.750952144539083e-06
3.798109101297712e-06
3.845834878602592e-06
3.894136023745261e-06
3.94301915541173e-06
3.992490964412764e-06
4.0425582144208e-06
4.093227742714045e-06
4.144506460927529e-06
4.196401355811214e-06
4.248919489995224e-06
4.302068002762271e-06
4.355854110827424e-06
4.410285109125178e-06
4.465368371603758e-06
4.521111352027105e-06
4.577521584784076e-06
4.634606685705586e-06
4.692374352889066e-06
4.750832367530743e-06
4.809988594765664e-06
4.869850984515661e-06
4.930427572345015e-06
4.991726480324123e-06
5.053755917901395e-06
5.116524182783016e-06
5.180039661820955e-06
5.244310831909164e-06
5.309346260888124e-06
5.375154608457756e-06
5.441744627098752e-06
5.50912516300241e-06
5.577305157008919e-06
5.64629364555469e-06
5.716099761627822e-06
5.786732735732871e-06
5.858201896864149e-06
5.930516673488253e-06
6.003686594535205e-06
6.077721290399041e-06
6.152630493947441e-06
6.228424041540479e-06
6.305111874058813e-06
6.382704037941201e-06
6.461210686231503e-06
6.540642079635134e-06
6.621008587585347e-06
6.702320689318853e-06
6.784588974961571e-06
6.867824146624037e-06
6.952037019506766e-06
7.037238523015633e-06
7.123439701887254e-06
7.210651717324897e-06
7.298885848144002e-06
7.388153491928763e-06
7.478466166198524e-06
7.569835509585077e-06
7.662273283020241e-06
7.755791370934488e-06
7.850401782465911e-06
7.946116652680284e-06
8.042948243802042e-06
8.140908946456162e-06
8.240011280921136e-06
8.340267898393376e-06
8.441691582262611e-06
8.544295249398765e-06
8.64809195145028e-06
8.753094876154077e-06
8.859317348656959e-06
8.966772832848978e-06
9.075474932708399e-06
9.185437393658726e-06
9.29667410393773e-06
9.409199095978523e-06
9.523026547802768e-06
9.638170784426308e-06
9.754646279277316e-06
9.872467655626341e-06
9.991649688029791e-06
1.01122073037853e-05
1.023415558440036e-05
1.03575097670738e-05
1.048228524618978e-05
1.060849757482541e-05
1.073616246627166e-05
1.086529579556651e-05
1.09959136010428e-05
1.112803208588861e-05
1.126166761972176e-05
1.139683674017776e-05
1.153355615451144e-05
1.167184274121289e-05
1.181171355163693e-05
1.195318581164711e-05
1.209627692327358e-05
1.224100446638545e-05
1.238738620037764e-05
1.253544006587212e-05
1.268518418643391e-05
1.283663687030197e-05
1.298981661213458e-05
1.314474209477009e-05
1.330143219100247e-05
1.345990596537238e-05
1.36201826759734e-05
1.378228177627365e-05
1.394622291695297e-05
1.411202594775594e-05
1.427971091936054e-05
1.444929808526267e-05
1.4620807903677e-05
1.479426103945336e-05
1.496967836601032e-05
1.51470809672838e-05
1.532649013969389e-05
1.550792739412684e-05
1.569141445793439e-05
1.587697327694992e-05
1.606462601752209e-05
1.625439506856417e-05
1.64463030436224e-05
1.664037278296056e-05
1.683662735566216e-05
1.703509006175064e-05
1.723578443432727e-05
1.743873424172644e-05