/*--------------------------------*- C++ -*----------------------------------*\
| =========                 |                                                 |
| \\      /  F ield         | OpenFOAM: The Open Source CFD Toolbox           |
|  \\    /   O peration     | Version:  2412                                  |
|   \\  /    A nd           | Website:  www.openfoam.com                      |
|    \\/     M anipulation  |                                                 |
\*---------------------------------------------------------------------------*/
FoamFile
{
    version     2.0;
    format      ascii;
    arch        "LSB;label=32;scalar=64";
    class       volScalarField;
    location    "0";
    object      T_0_0_0;
}
// * * * * * * * * * * * * * * * * * * * * * * * * * * * * * * * * * * * * * //

dimensions      [0 0 0 1 0 0 0];

internalField   nonuniform List<scalar> 
8000
(
1.279910846205947e-14
1.30575835456762e-14
1.332119521707363e-14
1.359004384732423e-14
1.386423173432798e-14
1.414386313911608e-14
1.442904432282607e-14
1.471988358435897e-14
1.501649129873186e-14
1.531897995613769e-14
1.562746420172606e-14
1.594206087611715e-14
1.626288905666257e-14
1.659007009946504e-14
1.692372768217487e-14
1.726398784757102e-14
1.761097904794592e-14
1.796483219030638e-14
1.832568068240602e-14
1.869366047962295e-14
1.906891013270014e-14
1.945157083636036e-14
1.98417864788169e-14
2.023970369219039e-14
2.064547190385144e-14
2.105924338870474e-14
2.148117332243225e-14
2.191141983571164e-14
2.235014406942743e-14
2.279751023089361e-14
2.325368565110589e-14
2.371884084304071e-14
2.419314956102082e-14
2.467678886116595e-14
2.516993916294932e-14
2.567278431187781e-14
2.618551164331685e-14
2.670831204748035e-14
2.724138003560838e-14
2.778491380734895e-14
2.83391153193714e-14
2.890419035522726e-14
2.94803485964886e-14
3.006780369517708e-14
3.066677334751501e-14
3.127747936901666e-14
3.1900147770948e-14
3.253500883817431e-14
3.318229720842459e-14
3.384225195299534e-14
3.451511665892137e-14
3.520113951263759e-14
3.590057338516084e-14
3.661367591881465e-14
3.734070961552823e-14
3.808194192673857e-14
3.883764534491749e-14
3.960809749675961e-14
4.039358123805727e-14
4.119438475029254e-14
4.201080163897712e-14
4.284313103377158e-14
4.369167769041227e-14
4.455675209448441e-14
4.543867056706753e-14
4.633775537228905e-14
4.725433482681784e-14
4.81887434113387e-14
4.914132188403278e-14
5.011241739610483e-14
5.110238360939529e-14
5.211158081610946e-14
5.31403760607035e-14
5.418914326396564e-14
5.525826334932671e-14
5.634812437145021e-14
5.745912164712672e-14
5.859165788852697e-14
5.974614333884522e-14
6.092299591038279e-14
6.212264132510826e-14
6.33455132577403e-14
6.459205348139766e-14
6.586271201586403e-14
6.715794727850623e-14
6.84782262378994e-14
6.982402457020323e-14
7.119582681833859e-14
7.259412655401389e-14
7.401942654264765e-14
7.547223891124209e-14
7.695308531925988e-14
7.846249713255192e-14
8.000101560039176e-14
8.156919203567136e-14
8.316758799831793e-14
8.47967754819759e-14
8.645733710402219e-14
8.814986629896927e-14
8.987496751531436e-14
9.163325641589662e-14
9.342536008181856e-14
9.525191721999911e-14
9.71135783744237e-14
9.901100614114444e-14
1.009448753871093e-13
1.029158734728717e-13
1.049247004792702e-13
1.069720694381199e-13
1.090587065670062e-13
1.111853515082413e-13
1.133527575720638e-13
1.155616919841444e-13
1.178129361374823e-13
1.201072858487604e-13
1.224455516192446e-13
1.248285589002982e-13
1.272571483635973e-13
1.297321761761183e-13
1.322545142800007e-13
1.348250506773425e-13
1.374446897200371e-13
1.401143524047165e-13
1.428349766729192e-13
1.456075177165366e-13
1.484329482886592e-13
1.513122590198915e-13
1.542464587402589e-13
1.572365748067685e-13
1.602836534367503e-13
1.633887600470572e-13
1.665529795992411e-13
1.697774169507986e-13
1.730631972125897e-13
1.764114661125347e-13
1.798233903657151e-13
1.833001580509566e-13
1.868429789940363e-13
1.904530851575961e-13
1.941317310379255e-13
1.97880194068665e-13
2.016997750316152e-13
2.055917984747196e-13
2.095576131373837e-13
2.135985923832326e-13
2.177161346404429e-13
2.219116638497607e-13
2.261866299203876e-13
2.305425091937979e-13
2.349808049156793e-13
2.395030477161022e-13
2.441107960980816e-13
2.488056369346669e-13
2.5358918597468e-13
2.584630883572874e-13
2.634290191355471e-13
2.684886838090513e-13
2.73643818865872e-13
2.788961923339118e-13
2.842476043418709e-13
2.896998876899623e-13
2.952549084305429e-13
3.009145664588416e-13
3.066807961139446e-13
3.125555667902262e-13
3.185408835593705e-13
3.246387878032195e-13
3.308513578575464e-13
3.371807096670436e-13
3.436289974516323e-13
3.501984143842944e-13
3.568911932806869e-13
3.637096073006654e-13
3.706559706619298e-13
3.777326393660453e-13
3.849420119369773e-13
3.922865301724279e-13
3.997686799081147e-13
4.073909917952498e-13
4.151560420914642e-13
4.230664534653445e-13
4.31124895814854e-13
4.393340870998703e-13
4.476967941890414e-13
4.562158337212641e-13
4.648940729819611e-13
4.737344307944481e-13
4.827398784266475e-13
4.919134405133613e-13
5.012581959944354e-13
5.107772790689954e-13
5.20473880166118e-13
5.303512469321243e-13
5.404126852348496e-13
5.506615601850931e-13
5.61101297175633e-13
5.717353829380114e-13
5.825673666174323e-13
5.936008608660683e-13
6.04839542955078e-13
6.162871559056571e-13
6.279475096394227e-13
6.398244821484555e-13
6.519220206853843e-13
6.642441429737269e-13
6.767949384389467e-13
6.895785694605154e-13
7.025992726452942e-13
7.158613601227118e-13
7.293692208619226e-13
7.431273220114982e-13
7.571402102618355e-13
7.714125132308721e-13
7.85948940873309e-13
8.007542869138214e-13
8.158334303046239e-13
8.311913367078561e-13
8.468330600031099e-13
8.627637438205698e-13
8.789886231001671e-13
8.955130256772254e-13
9.123423738949653e-13
9.294821862443611e-13
9.469380790317578e-13
9.647157680748103e-13
9.828210704270667e-13
1.001259906131774e-12
1.020038300005322e-12
1.039162383450906e-12
1.05863839630283e-12
1.078472688701914e-12
1.098671723002621e-12
1.119242075712436e-12
1.140190439463891e-12
1.161523625019865e-12
1.183248563312729e-12
1.205372307517868e-12
1.2279020351621e-12
1.250845050267615e-12
1.274208785532007e-12
1.298000804544977e-12
1.322228804042377e-12
1.346900616198021e-12
1.372024210954177e-12
1.397607698391017e-12
1.423659331136045e-12
1.450187506813858e-12
1.477200770536944e-12
1.504707817438409e-12
1.532717495247043e-12
1.561238806905556e-12
1.590280913232676e-12
1.619853135629793e-12
1.649964958832966e-12
1.68062603371085e-12
1.711846180109436e-12
1.743635389744466e-12
1.776003829141959e-12
1.808961842627973e-12
1.84251995536825e-12
1.876688876458537e-12
1.911479502066487e-12
1.946902918625925e-12
1.982970406084283e-12
2.019693441204249e-12
2.057083700920221e-12
2.0951530657508e-12
2.13391362326783e-12
2.173377671623368e-12
2.213557723135062e-12
2.254466507931217e-12
2.296116977656272e-12
2.338522309237971e-12
2.381695908716899e-12
2.425651415139474e-12
2.470402704515697e-12
2.515963893842168e-12
2.562349345192112e-12
2.609573669872801e-12
2.657651732651899e-12
2.70659865605376e-12
2.756429824726708e-12
2.807160889882518e-12
2.85880777380924e-12
2.911386674458463e-12
2.964914070108467e-12
3.019406724104286e-12
3.074881689675591e-12
3.131356314834634e-12
3.188848247354338e-12
3.247375439828638e-12
3.3069561548161e-12
3.367608970068091e-12
3.429352783843209e-12
3.492206820308771e-12
3.556190635031131e-12
3.621324120556534e-12
3.687627512083149e-12
3.755121393226505e-12
3.823826701879392e-12
3.893764736167833e-12
3.96495716050487e-12
4.037426011743338e-12
4.111193705429438e-12
4.186283042158869e-12
4.262717214036691e-12
4.340519811243177e-12
4.419714828706696e-12
4.500326672885669e-12
4.582380168661754e-12
4.665900566344986e-12
4.750913548793524e-12
4.837445238649683e-12
4.925522205693812e-12
5.015171474317771e-12
5.106420531120845e-12
5.199297332628503e-12
5.293830313137708e-12
5.390048392689069e-12
5.487980985169214e-12
5.587658006544492e-12
5.689109883228862e-12
5.792367560587219e-12
5.897462511577387e-12
6.004426745531559e-12
6.11329281708096e-12
6.224093835224904e-12
6.336863472546335e-12
6.451635974577808e-12
6.568446169317812e-12
6.687329476902271e-12
6.808321919431444e-12
6.931460130956769e-12
7.056781367628352e-12
7.184323518006812e-12
7.314125113541218e-12
7.446225339217206e-12
7.580664044375291e-12
7.717481753705141e-12
7.856719678416333e-12
7.99841972758912e-12
8.142624519708308e-12
8.289377394382754e-12
8.438722424253186e-12
8.590704427091702e-12
8.745368978096197e-12
8.902762422381709e-12
9.062931887672865e-12
9.225925297199858e-12
9.391791382801654e-12
9.560579698239408e-12
9.732340632722745e-12
9.907125424653906e-12
1.008498617559109e-11
1.026597586443586e-11
1.045014836184785e-11
1.063755844488923e-11
1.082826181190448e-11
1.102231509763737e-11
1.121977588858955e-11
1.142070273862404e-11
1.162515518481886e-11
1.183319376357276e-11
1.204488002696788e-11
1.226027655939322e-11
1.247944699443373e-11
1.270245603202747e-11
1.292936945589652e-11
1.316025415125461e-11
1.339517812279722e-11
1.363421051297733e-11
1.387742162057151e-11
1.412488291954035e-11
1.437666707819027e-11
1.463284797863701e-11
1.489350073657935e-11
1.515870172138618e-11
1.54285285765012e-11
1.570306024017194e-11
1.598237696650614e-11
1.626656034686185e-11
1.655569333157494e-11
1.684986025203241e-11
1.714914684309206e-11
1.745364026585733e-11
1.776342913081261e-11
1.807860352132252e-11
1.839925501750246e-11
1.872547672046497e-11
1.905736327694974e-11
1.939501090433983e-11
1.97385174160736e-11
2.00879822474542e-11
2.044350648186851e-11
2.080519287741527e-11
2.117314589395389e-11
2.154747172057614e-11
2.192827830351222e-11
2.231567537447203e-11
2.270977447943271e-11
2.311068900787688e-11
2.351853422248976e-11
2.393342728932204e-11
2.435548730842324e-11
2.47848353449565e-11
2.522159446079989e-11
2.566588974664102e-11
2.611784835457436e-11
2.65775995312078e-11
2.704527465128465e-11
2.752100725183358e-11
2.800493306684883e-11
2.849719006251234e-11
2.899791847296403e-11
2.950726083663157e-11
3.002536203312396e-11
3.055236932069988e-11
3.108843237431907e-11
3.163370332428696e-11
3.218833679549796e-11
3.275248994728866e-11
3.332632251391294e-11
3.39099968456412e-11
3.450367795050058e-11
3.5107533536661e-11
3.57217340554782e-11
3.634645274520523e-11
3.69818656753794e-11
3.762815179189701e-11
3.828549296278499e-11
3.89540740246815e-11
3.963408283003497e-11
4.032571029503091e-11
4.102915044826046e-11
4.174460048014058e-11
4.247226079309522e-11
4.32123350525115e-11
4.396503023848176e-11
4.473055669834122e-11
4.550912820001742e-11
4.630096198619859e-11
4.710627882933583e-11
4.792530308749303e-11
4.875826276105384e-11
4.960538955029837e-11
5.046691891386897e-11
5.134309012812766e-11
5.223414634742934e-11
5.314033466531626e-11
5.406190617665017e-11
5.499911604070059e-11
5.595222354519409e-11
5.692149217134796e-11
5.790718965989502e-11
5.890958807812258e-11
5.992896388793381e-11
6.096559801494783e-11
6.201977591865631e-11
6.309178766365219e-11
6.41819279919442e-11
6.529049639637099e-11
6.641779719514083e-11
6.756413960749905e-11
6.872983783055593e-11
6.991521111727766e-11
7.112058385566448e-11
7.23462856491379e-11
7.359265139814373e-11
7.486002138299643e-11
7.614874134798423e-11
7.74591625867477e-11
7.879164202895335e-11
8.014654232828274e-11
8.152423195175599e-11
8.292508527040641e-11
8.434948265132699e-11
8.579781055111474e-11
8.727046161072225e-11
8.876783475174726e-11
9.029033527417819e-11
9.183837495561078e-11
9.341237215197054e-11
9.501275189974404e-11
9.663994601976625e-11
9.829439322256058e-11
9.997653921526874e-11
1.016868368101983e-10
1.034257460349932e-10
1.051937342444724e-10
1.069912762341397e-10
1.088188543554118e-10
1.106769586325675e-10
1.125660868814583e-10
1.144867448299976e-10
1.164394462404627e-10
1.18424713033626e-10
1.204430754147484e-10
1.224950720014568e-10
1.245812499535452e-10
1.267021651047096e-10
1.288583820962572e-10
1.310504745128109e-10
1.332790250200515e-10
1.355446255045057e-10
1.378478772154302e-10
1.401893909088023e-10
1.425697869934767e-10
1.449896956794957e-10
1.474497571286351e-10
1.499506216071725e-10
1.524929496409402e-10
1.550774121726816e-10
1.577046907217523e-10
1.603754775461818e-10
1.630904758071619e-10
1.658503997359642e-10
1.68655974803339e-10
1.715079378914224e-10
1.744070374682064e-10
1.773540337645775e-10
1.803496989539896e-10
1.833948173347923e-10
1.864901855152523e-10
1.896366126013294e-10
1.928349203872048e-10
1.960859435486447e-10
1.993905298392015e-10
2.027495402893335e-10
2.061638494084419e-10
2.096343453898953e-10
2.131619303190812e-10
2.167475203845176e-10
2.20392046092066e-10
2.240964524823146e-10
2.278616993511454e-10
2.31688761473547e-10
2.355786288307233e-10
2.395323068405228e-10
2.435508165912746e-10
2.476351950790321e-10
2.517864954483128e-10
2.560057872363551e-10
2.602941566209619e-10
2.646527066719762e-10
2.690825576064286e-10
2.735848470474195e-10
2.781607302867971e-10
2.828113805516634e-10
2.875379892747762e-10
2.923417663689022e-10
2.972239405051654e-10
3.021857593954744e-10
3.072284900790472e-10
3.12353419213112e-10
3.175618533678603e-10
3.228551193256806e-10
3.282345643847378e-10
3.337015566669873e-10
3.392574854306443e-10
3.44903761387216e-10
3.506418170231182e-10
3.564731069259567e-10
3.623991081155739e-10
3.684213203798503e-10
3.745412666154043e-10
3.80760493173218e-10
3.870805702092494e-10
3.935030920401542e-10
4.000296775041154e-10
4.066619703269052e-10
4.134016394932415e-10
4.202503796234799e-10
4.272099113557848e-10
4.342819817337743e-10
4.414683645997668e-10
4.487708609937022e-10
4.561912995578065e-10
4.637315369470726e-10
4.71393458245641e-10
4.791789773892044e-10
4.870900375934391e-10
4.951286117886242e-10
5.032967030604696e-10
5.115963450973093e-10
5.200296026436789e-10
5.285985719604107e-10
5.373053812913074e-10
5.461521913365125e-10
5.551411957326618e-10
5.642746215398886e-10
5.735547297357848e-10
5.829838157164651e-10
5.925642098047513e-10
6.022982777655928e-10
6.121884213289185e-10
6.222370787198658e-10
6.324467251966074e-10
6.428198735958458e-10
6.533590748860372e-10
6.640669187285564e-10
6.749460340467682e-10
6.859990896032605e-10
6.972287945852119e-10
7.086378991981378e-10
7.202291952680353e-10
7.320055168520616e-10
7.439697408578735e-10
7.561247876717914e-10
7.684736217958072e-10
7.810192524936327e-10
7.937647344458962e-10
8.067131684145846e-10
8.198677019169328e-10
8.332315299087639e-10
8.468078954775128e-10
8.60600090545067e-10
8.746114565804616e-10
8.888453853226414e-10
9.033053195134622e-10
9.179947536409163e-10
9.329172346929259e-10
9.480763629216656e-10
9.634757926186867e-10
9.791192329008721e-10
9.950104485075288e-10
1.011153260608583e-09
1.027551547624148e-09
1.044209246055604e-09
1.061130351328329e-09
1.078318918646193e-09
1.095779063858064e-09
1.113514964336445e-09
1.13153085986837e-09
1.149831053558747e-09
1.168419912746404e-09
1.187301869932849e-09
1.206481423723997e-09
1.225963139785116e-09
1.245751651808955e-09
1.265851662497551e-09
1.286267944557502e-09
1.307005341709231e-09
1.328068769710349e-09
1.349463217393002e-09
1.371193747715954e-09
1.393265498831057e-09
1.415683685164587e-09
1.438453598513671e-09
1.461580609157802e-09
1.485070166985844e-09
1.508927802638623e-09
1.53315912866729e-09
1.557769840707889e-09
1.582765718671905e-09
1.608152627953537e-09
1.633936520653522e-09
1.660123436819791e-09
1.686719505705443e-09
1.713730947043907e-09
1.741164072341753e-09
1.769025286189355e-09
1.797321087589511e-09
1.826058071304419e-09
1.855242929221241e-09
1.88488245173627e-09
1.914983529158326e-09
1.945553153131291e-09
1.976598418076203e-09
2.008126522653181e-09
2.040144771243381e-09
2.072660575451232e-09
2.105681455627256e-09
2.139215042411791e-09
2.173269078299811e-09
2.207851419227079e-09
2.242970036178119e-09
2.27863301681605e-09
2.314848567134686e-09
2.351625013133263e-09
2.388970802513809e-09
2.426894506402008e-09
2.46540482109105e-09
2.504510569809688e-09
2.544220704514017e-09
2.584544307703741e-09
2.62549059426324e-09
2.667068913327409e-09
2.7092887501731e-09
2.752159728136078e-09
2.795691610553933e-09
2.839894302735611e-09
2.88477785395716e-09
2.930352459485037e-09
2.976628462626358e-09
3.023616356807214e-09
3.071326787678778e-09
3.119770555252169e-09
3.168958616061956e-09
3.218902085358919e-09
3.269612239332339e-09
3.32110051736239e-09
3.37337852430275e-09
3.426458032793966e-09
3.480350985608061e-09
3.535069498024467e-09
3.590625860238192e-09
3.647032539800135e-09
3.704302184090234e-09
3.762447622823757e-09
3.821481870591394e-09
3.881418129433154e-09
3.942269791447031e-09
4.004050441432207e-09
4.066773859568144e-09
4.130454024129127e-09
4.195105114235272e-09
4.260741512640069e-09
4.327377808555626e-09
4.395028800515169e-09
4.463709499273871e-09
4.533435130748333e-09
4.604221138995469e-09
4.676083189230654e-09
4.749037170886333e-09
4.823099200711238e-09
4.898285625910856e-09
4.97461302732953e-09
5.052098222674759e-09
5.13075826978458e-09
5.210610469938029e-09
5.291672371209563e-09
5.373961771867855e-09
5.457496723819821e-09
5.542295536099986e-09
5.628376778406169e-09
5.71575928468166e-09
5.804462156745054e-09
5.894504767967882e-09
5.985906767000648e-09
6.078688081548175e-09
6.172868922194529e-09
6.268469786278739e-09
6.365511461820957e-09
6.464015031500824e-09
6.564001876687712e-09
6.665493681524364e-09
6.768512437063928e-09
6.873080445461123e-09
6.979220324218914e-09
7.08695501049046e-09
7.19630776543757e-09
7.307302178646146e-09
7.419962172599754e-09
7.534312007211271e-09
7.650376284414312e-09
7.768179952813874e-09
7.887748312398753e-09
8.009107019314581e-09
8.132282090699706e-09
8.257299909583548e-09
8.384187229849594e-09
8.512971181262222e-09
8.643679274559529e-09
8.776339406611833e-09
8.910979865647935e-09
9.04762933654885e-09
9.186316906210009e-09
9.327072068973919e-09
9.469924732132351e-09
9.614905221500466e-09
9.762044287062855e-09
9.911373108692672e-09
1.006292330194499e-08
1.0216726923925e-08
1.037281647923188e-08
1.053122492597959e-08
1.069198568189526e-08
1.085513263049645e-08
1.10207001273482e-08
1.118872300640007e-08
1.135923658640532e-08
1.153227667742263e-08
1.17078795874016e-08
1.188608212885251e-08
1.206692162560176e-08
1.225043591963488e-08
1.24366633780263e-08
1.262564289995877e-08
1.281741392383195e-08
1.301201643446315e-08
1.320949097037948e-08
1.340987863120305e-08
1.36132210851318e-08
1.38195605765146e-08
1.402893993352398e-08
1.424140257592639e-08
1.445699252295153e-08
1.467575440126256e-08
1.489773345302726e-08
1.512297554409188e-08
1.535152717226007e-08
1.558343547567562e-08
1.581874824131283e-08
1.605751391357458e-08
1.62997816029987e-08
1.654560109507618e-08
1.679502285918043e-08
1.704809805760943e-08
1.730487855474266e-08
1.756541692631476e-08
1.782976646880491e-08
1.80979812089464e-08
1.837011591335504e-08
1.864622609828077e-08
1.892636803948042e-08
1.921059878221674e-08
1.949897615138172e-08
1.979155876174945e-08
2.008840602835629e-08
2.038957817701281e-08
2.06951362549465e-08
2.100514214157991e-08
2.131965855944338e-08
2.163874908522429e-08
2.196247816095553e-08
2.229091110534367e-08
2.262411412524024e-08
2.296215432725475e-08
2.33050997295146e-08
2.365301927357081e-08
2.400598283645447e-08
2.436406124288137e-08
2.472732627760982e-08
2.50958506979541e-08
2.546970824645164e-08
2.584897366368966e-08
2.623372270128992e-08
2.662403213505734e-08
2.701997977828984e-08
2.742164449525482e-08
2.782910621483256e-08
2.824244594432941e-08
2.8661745783462e-08
2.908708893851454e-08
2.951855973667248e-08
2.99562436405317e-08
3.040022726279024e-08
3.085059838111886e-08
3.130744595321646e-08
3.177086013205184e-08
3.224093228129348e-08
3.271775499092884e-08
3.320142209307706e-08
3.36920286779956e-08
3.418967111028542e-08
3.469444704529419e-08
3.520645544572178e-08
3.572579659842863e-08
3.62525721314534e-08
3.678688503123665e-08
3.732883966005705e-08
3.787854177368014e-08
3.843609853922555e-08
3.900161855325176e-08
3.957521186005967e-08
4.015698997022556e-08
4.074706587935462e-08
4.134555408706741e-08
4.19525706162164e-08
4.256823303233643e-08
4.319266046333429e-08
4.382597361941613e-08
4.446829481325816e-08
4.511974798042205e-08
4.578045870002054e-08
4.64505542156315e-08
4.713016345646827e-08
4.78194170588038e-08
4.851844738765917e-08
4.922738855875066e-08
4.994637646070389e-08
5.06755487775386e-08
5.141504501142323e-08
5.21650065057051e-08
5.292557646821933e-08
5.369689999487781e-08
5.447912409354521e-08
5.527239770820094e-08
5.607687174339067e-08
5.689269908897715e-08
5.772003464518447e-08
5.855903534794436e-08
5.940986019454837e-08
6.027267026960676e-08
6.11476287713208e-08
6.203490103806793e-08
6.293465457530581e-08
6.384705908280115e-08
6.477228648218187e-08
6.571051094481989e-08
6.666190892004523e-08
6.762665916370224e-08
6.860494276704166e-08
6.959694318595981e-08
7.060284627058364e-08
7.162284029521545e-08
7.265711598862388e-08
7.37058665647053e-08
7.476928775350116e-08
7.58475778325918e-08
7.694093765885675e-08
7.804957070061744e-08
7.917368307015442e-08
8.031348355661769e-08
8.14691836593222e-08
8.26409976214357e-08
8.382914246407228e-08
8.503383802078088e-08
8.625530697244835e-08
8.749377488260602e-08
8.874947023316338e-08
9.002262446055325e-08
9.131347199231041e-08
9.262225028407636e-08
9.3949199857041e-08
9.529456433582298e-08
9.665859048679977e-08
9.804152825688272e-08
9.94436308127474e-08
1.008651545805322e-07
1.023063592859871e-07
1.037675079951082e-07
1.052488671552392e-07
1.06750706636652e-07
1.082732997746216e-07
1.098169234119859e-07
1.113818579422016e-07
1.129683873529072e-07
1.145767992699913e-07
1.162073850021751e-07
1.17860439586108e-07
1.195362618319964e-07
1.21235154369764e-07
1.229574236957335e-07
1.247033802198683e-07
1.264733383135528e-07
1.282676163579264e-07
1.300865367927787e-07
1.31930426166018e-07
1.33799615183697e-07
1.356944387606303e-07
1.376152360715925e-07
1.395623506031038e-07
1.415361302058199e-07
1.435369271475171e-07
1.455650981667001e-07
1.476210045268132e-07
1.497050120710897e-07
1.518174912780138e-07
1.539588173174425e-07
1.561293701073513e-07
1.583295343712448e-07
1.605596996962155e-07
1.628202605916779e-07
1.651116165487674e-07
1.67434172100424e-07
1.69788336882155e-07
1.721745256935058e-07
1.745931585602193e-07
1.770446607971135e-07
1.795294630716666e-07
1.820480014683399e-07
1.846007175536239e-07
1.871880584418207e-07
1.898104768615924e-07
1.924684312232415e-07
1.951623856867747e-07
1.978928102307322e-07
2.006601807217904e-07
2.034649789851709e-07
2.063076928758287e-07
2.091888163504514e-07
2.12108849540282e-07
2.150682988247547e-07
2.180676769059598e-07
2.211075028839603e-07
2.241883023329452e-07
2.273106073782504e-07
2.304749567742468e-07
2.336818959830907e-07
2.369319772543813e-07
2.402257597056962e-07
2.435638094040421e-07
2.469466994482013e-07
2.503750100520388e-07
2.538493286286911e-07
2.573702498757468e-07
2.609383758613444e-07
2.645543161112554e-07
2.682186876969269e-07
2.719321153245157e-07
2.756952314249078e-07
2.795086762447431e-07
2.833730979384711e-07
2.872891526613961e-07
2.91257504663789e-07
2.952788263860379e-07
2.99353798554845e-07
3.034831102805e-07
3.076674591552332e-07
3.11907551352645e-07
3.162041017282742e-07
3.205578339212166e-07
3.24969480456936e-07
3.294397828511568e-07
3.339694917149401e-07
3.385593668609008e-07
3.432101774106008e-07
3.479227019031185e-07
3.526977284048409e-07
3.575360546204176e-07
3.624384880049749e-07
3.674058458775597e-07
3.724389555357905e-07
3.775386543718098e-07
3.82705789989503e-07
3.879412203229652e-07
3.932458137562968e-07
3.986204492447213e-07
4.04066016436984e-07
4.095834157991144e-07
4.151735587395514e-07
4.208373677356002e-07
4.26575776461304e-07
4.323897299166613e-07
4.382801845583083e-07
4.442481084315774e-07
4.502944813039885e-07
4.564202948002435e-07
4.626265525386069e-07
4.689142702688342e-07
4.752844760115543e-07
4.817382101991673e-07
4.882765258182815e-07
4.949004885536817e-07
5.016111769338266e-07
5.084096824779838e-07
5.152971098448609e-07
5.222745769829108e-07
5.293432152822314e-07
5.365041697280866e-07
5.4375859905611e-07
5.511076759091258e-07
5.585525869956954e-07
5.660945332503812e-07
5.737347299956503e-07
5.814744071055896e-07
5.893148091713507e-07
5.972571956683413e-07
6.053028411252337e-07
6.134530352947516e-07
6.217090833263078e-07
6.300723059404581e-07
6.38544039605216e-07
6.471256367142661e-07
6.558184657670567e-07
6.646239115507842e-07
6.735433753243712e-07
6.825782750043333e-07
6.917300453526536e-07
7.010001381666399e-07
7.10390022470781e-07
7.199011847106405e-07
7.295351289488375e-07
7.392933770630077e-07
7.491774689459343e-07
7.591889627077908e-07
7.693294348804301e-07
7.796004806239435e-07
7.900037139352739e-07
8.005407678591406e-07
8.112132947010659e-07
8.220229662427232e-07
8.329714739595168e-07
8.440605292404208e-07
8.552918636101503e-07
8.666672289536395e-07
8.781883977428704e-07
8.898571632660881e-07
9.016753398593819e-07
9.136447631406847e-07
9.257672902462712e-07
9.380448000695905e-07
9.504791935027392e-07
9.630723936803301e-07
9.758263462259415e-07
9.887430195011049e-07
1.001824404856937e-06
1.015072516888266e-06
1.028489393690504e-06
1.042077097119109e-06
1.05583771305177e-06
1.069773351653237e-06
1.083886147642979e-06
1.098178260565509e-06
1.112651875063606e-06
1.127309201154192e-06
1.142152474507245e-06
1.157183956727361e-06
1.172405935638429e-06
1.187820725571065e-06
1.203430667653038e-06
1.219238130102747e-06
1.235245508525592e-06
1.251455226213436e-06
1.267869734447138e-06
1.284491512802154e-06
1.301323069457257e-06
1.318366941506401e-06
1.3356256952738e-06
1.353101926632176e-06
1.370798261324252e-06
1.388717355287508e-06
1.406861894982309e-06
1.425234597723194e-06
1.443838212013727e-06
1.462675517884613e-06
1.481749327235221e-06
1.501062484178695e-06
1.520617865390404e-06
1.540418380459996e-06
1.560466972246983e-06
1.580766617239897e-06
1.601320325919068e-06
1.62213114312313e-06
1.643202148419052e-06
1.664536456476033e-06
1.686137217443091e-06
1.70800761733044e-06
1.730150878394705e-06
1.752570259527958e-06
1.775269056650707e-06
1.798250603108782e-06
1.82151827007413e-06
1.845075466949769e-06
1.868925641778543e-06
1.893072281656199e-06
1.917518913148399e-06
1.942269102711935e-06
1.96732645712018e-06
1.992694623892706e-06
2.018377291729111e-06
2.044378190947348e-06
2.070701093926124e-06
2.097349815551865e-06
2.124328213670101e-06
2.151640189541206e-06
2.179289688300641e-06
2.207280699423932e-06
2.235617257195908e-06
2.264303441184847e-06
2.293343376721145e-06
2.322741235380703e-06
2.352501235473049e-06
2.382627642534337e-06
2.413124769825073e-06
2.443996978832767e-06
2.475248679779439e-06
2.506884332134296e-06
2.538908445131081e-06
2.571325578290737e-06
2.604140341949113e-06
2.637357397789737e-06
2.670981459381823e-06
2.705017292723541e-06
2.739469716790452e-06
2.774343604089505e-06
2.80964388121804e-06
2.845375529428628e-06
2.881543585198983e-06
2.918153140807729e-06
2.955209344915519e-06
2.992717403151813e-06
3.030682578707313e-06
3.069110192932214e-06
3.108005625940033e-06
3.147374317217402e-06
3.187221766239635e-06
3.227553533092288e-06
3.268375239098578e-06
3.309692567452927e-06
3.351511263860447e-06
3.393837137182732e-06
3.436676060089647e-06
3.480033969717368e-06
3.523916868332879e-06
3.56833082400459e-06
3.61328197127936e-06
3.658776511866212e-06
3.704820715326216e-06
3.751420919769189e-06
3.798583532556833e-06
3.846315031012622e-06
3.894621963138445e-06
3.943510948337937e-06
3.992988678146818e-06
4.04306191696989e-06
4.093737502825189e-06
4.145022348095145e-06
4.196923440284709e-06
4.249447842786708e-06
4.302602695654308e-06
4.356395216380846e-06
4.41083270068702e-06
4.465922523315229e-06
4.521672138831636e-06
4.578089082435479e-06
4.635180970776245e-06
4.692955502778192e-06
4.751420460472794e-06
4.810583709838742e-06
4.870453201650045e-06
4.931036972331751e-06
4.992343144823723e-06
5.05437992945258e-06
5.117155624811539e-06
5.180678618648546e-06
5.244957388762521e-06
5.31000050390802e-06
5.375816624708193e-06
5.442414504576218e-06
5.509802990645223e-06
5.577991024706658e-06
5.646987644157704e-06
5.716801982956835e-06
5.787443272588673e-06
5.858920843037373e-06
5.931244123769234e-06
6.004422644723985e-06
6.078466037315338e-06
6.153384035440876e-06
6.22918647650077e-06
6.305883302426065e-06
6.383484560716451e-06
6.462000405487064e-06
6.541441098525387e-06
6.621817010357307e-06
6.703138621323084e-06
6.785416522662997e-06
6.868661417613029e-06
6.952884122510199e-06
7.038095567908102e-06
7.124306799702381e-06
7.211528980266749e-06
7.299773389598557e-06
7.389051426475594e-06
7.479374609622459e-06
7.570754578888073e-06
7.663203096433279e-06
7.756732047929636e-06
7.851353443768414e-06
7.947079420280919e-06
8.043922240969386e-06
8.141894297749099e-06
8.241008112201486e-06
8.341276336838529e-06
8.442711756378414e-06
8.545327289032363e-06
8.649135987803195e-06
8.754151041795402e-06
8.860385777536582e-06
8.967853660310994e-06
9.076568295504635e-06
9.186543429962305e-06
9.297792953356935e-06
9.410330899570544e-06
9.524171448087809e-06
9.639328925401631e-06
9.755817806431514e-06
9.873652715953683e-06
9.992848430044761e-06
1.01134198775372e-05
1.023538214148798e-05
1.035875046066046e-05
1.048354023101816e-05
1.060976700723283e-05
1.073744650420531e-05
1.086659459859877e-05
1.099722733038693e-05
1.112936090441432e-05
1.126301169197105e-05
1.13981962323809e-05
1.153493123460304e-05
1.167323357884803e-05
1.181312031820771e-05
1.195460868029903e-05
1.209771606892223e-05
1.22424600657333e-05
1.238885843193099e-05
1.253692910995817e-05
1.268669022521801e-05
1.283816008780504e-05
1.299135719425053e-05
1.314630022928365e-05
1.330300806760687e-05
1.346149977568744e-05
1.362179461356366e-05
1.378391203666666e-05
1.394787169765763e-05
1.411369344828136e-05
1.428139734123452e-05
1.445100363205085e-05
1.462253278100185e-05
1.47960054550134e-05
1.497144252959954e-05
1.514886509081138e-05
1.532829443720374e-05
1.55097520818176e-05
1.569325975417955e-05
1.587883940231806e-05
1.606651319479715e-05
1.625630352276626e-05
1.644823300202842e-05
1.664232447512511e-05
1.683860101343885e-05
1.703708591931311e-05
1.723780272819091e-05
1.74407752107698e-05
1.764602737517609e-05