/*--------------------------------*- C++ -*----------------------------------*\
| =========                 |                                                 |
| \\      /  F ield         | OpenFOAM: The Open Source CFD Toolbox           |
|  \\    /   O peration     | Version:  2412                                  |
|   \\  /    A nd           | Website:  www.openfoam.com                      |
|    \\/     M anipulation  |                                                 |
\*---------------------------------------------------------------------------*/
FoamFile
{
    version     2.0;
    format      ascii;
    arch        "LSB;label=32;scalar=64";
    class       volVectorField;
    location    "0.66";
    object      U_0;
}
// * * * * * * * * * * * * * * * * * * * * * * * * * * * * * * * * * * * * * //

dimensions      [0 1 -1 0 0 0 0];

internalField   nonuniform List<vector> 
800
(
(0.0012792 0 0)
(0.00383763 0 0)
(0.00639605 0 0)
(0.00895445 0 0)
(0.0115128 0 0)
(0.0140712 0 0)
(0.0166295 0 0)
(0.0191878 0 0)
(0.0217461 0 0)
(0.0243043 0 0)
(0.0268624 0 0)
(0.0294205 0 0)
(0.0319786 0 0)
(0.0345365 0 0)
(0.0370944 0 0)
(0.0396522 0 0)
(0.0422099 0 0)
(0.0447676 0 0)
(0.0473251 0 0)
(0.0498825 0 0)
(0.0524399 0 0)
(0.0549971 0 0)
(0.0575541 0 0)
(0.0601111 0 0)
(0.0626679 0 0)
(0.0652246 0 0)
(0.0677812 0 0)
(0.0703376 0 0)
(0.0728938 0 0)
(0.0754499 0 0)
(0.0780058 0 0)
(0.0805616 0 0)
(0.0831172 0 0)
(0.0856726 0 0)
(0.0882278 0 0)
(0.0907828 0 0)
(0.0933376 0 0)
(0.0958922 0 0)
(0.0984466 0 0)
(0.101001 0 0)
(0.103555 0 0)
(0.106109 0 0)
(0.108662 0 0)
(0.111215 0 0)
(0.113768 0 0)
(0.116321 0 0)
(0.118874 0 0)
(0.121426 0 0)
(0.123978 0 0)
(0.12653 0 0)
(0.129081 0 0)
(0.131632 0 0)
(0.134183 0 0)
(0.136734 0 0)
(0.139284 0 0)
(0.141834 0 0)
(0.144383 0 0)
(0.146933 0 0)
(0.149482 0 0)
(0.15203 0 0)
(0.154579 0 0)
(0.157127 0 0)
(0.159674 0 0)
(0.162222 0 0)
(0.164769 0 0)
(0.167315 0 0)
(0.169861 0 0)
(0.172407 0 0)
(0.174952 0 0)
(0.177497 0 0)
(0.180042 0 0)
(0.182586 0 0)
(0.18513 0 0)
(0.187674 0 0)
(0.190216 0 0)
(0.192759 0 0)
(0.195301 0 0)
(0.197843 0 0)
(0.200384 0 0)
(0.202925 0 0)
(0.205465 0 0)
(0.208005 0 0)
(0.210544 0 0)
(0.213083 0 0)
(0.215622 0 0)
(0.218159 0 0)
(0.220697 0 0)
(0.223234 0 0)
(0.22577 0 0)
(0.228306 0 0)
(0.230841 0 0)
(0.233376 0 0)
(0.235911 0 0)
(0.238444 0 0)
(0.240978 0 0)
(0.24351 0 0)
(0.246042 0 0)
(0.248574 0 0)
(0.251105 0 0)
(0.253635 0 0)
(0.256165 0 0)
(0.258694 0 0)
(0.261223 0 0)
(0.263751 0 0)
(0.266278 0 0)
(0.268805 0 0)
(0.271331 0 0)
(0.273856 0 0)
(0.276381 0 0)
(0.278905 0 0)
(0.281429 0 0)
(0.283952 0 0)
(0.286474 0 0)
(0.288996 0 0)
(0.291516 0 0)
(0.294037 0 0)
(0.296556 0 0)
(0.299075 0 0)
(0.301593 0 0)
(0.30411 0 0)
(0.306627 0 0)
(0.309143 0 0)
(0.311658 0 0)
(0.314172 0 0)
(0.316686 0 0)
(0.319198 0 0)
(0.321711 0 0)
(0.324222 0 0)
(0.326732 0 0)
(0.329242 0 0)
(0.331751 0 0)
(0.334259 0 0)
(0.336766 0 0)
(0.339273 0 0)
(0.341778 0 0)
(0.344283 0 0)
(0.346787 0 0)
(0.34929 0 0)
(0.351793 0 0)
(0.354294 0 0)
(0.356794 0 0)
(0.359294 0 0)
(0.361793 0 0)
(0.364291 0 0)
(0.366787 0 0)
(0.369283 0 0)
(0.371778 0 0)
(0.374273 0 0)
(0.376766 0 0)
(0.379258 0 0)
(0.381749 0 0)
(0.38424 0 0)
(0.386729 0 0)
(0.389217 0 0)
(0.391705 0 0)
(0.394191 0 0)
(0.396676 0 0)
(0.399161 0 0)
(0.401644 0 0)
(0.404126 0 0)
(0.406607 0 0)
(0.409087 0 0)
(0.411567 0 0)
(0.414045 0 0)
(0.416521 0 0)
(0.418997 0 0)
(0.421472 0 0)
(0.423946 0 0)
(0.426418 0 0)
(0.42889 0 0)
(0.43136 0 0)
(0.433829 0 0)
(0.436297 0 0)
(0.438764 0 0)
(0.441229 0 0)
(0.443694 0 0)
(0.446157 0 0)
(0.448619 0 0)
(0.45108 0 0)
(0.453539 0 0)
(0.455998 0 0)
(0.458455 0 0)
(0.460911 0 0)
(0.463365 0 0)
(0.465819 0 0)
(0.468271 0 0)
(0.470721 0 0)
(0.473171 0 0)
(0.475619 0 0)
(0.478066 0 0)
(0.480511 0 0)
(0.482955 0 0)
(0.485398 0 0)
(0.48784 0 0)
(0.49028 0 0)
(0.492718 0 0)
(0.495155 0 0)
(0.497591 0 0)
(0.500026 0 0)
(0.502458 0 0)
(0.50489 0 0)
(0.50732 0 0)
(0.509748 0 0)
(0.512176 0 0)
(0.514601 0 0)
(0.517025 0 0)
(0.519448 0 0)
(0.521869 0 0)
(0.524288 0 0)
(0.526706 0 0)
(0.529122 0 0)
(0.531537 0 0)
(0.53395 0 0)
(0.536362 0 0)
(0.538772 0 0)
(0.54118 0 0)
(0.543587 0 0)
(0.545992 0 0)
(0.548395 0 0)
(0.550797 0 0)
(0.553197 0 0)
(0.555595 0 0)
(0.557991 0 0)
(0.560386 0 0)
(0.562779 0 0)
(0.56517 0 0)
(0.56756 0 0)
(0.569948 0 0)
(0.572333 0 0)
(0.574718 0 0)
(0.5771 0 0)
(0.57948 0 0)
(0.581859 0 0)
(0.584235 0 0)
(0.58661 0 0)
(0.588983 0 0)
(0.591353 0 0)
(0.593722 0 0)
(0.596089 0 0)
(0.598454 0 0)
(0.600817 0 0)
(0.603178 0 0)
(0.605537 0 0)
(0.607894 0 0)
(0.610249 0 0)
(0.612602 0 0)
(0.614952 0 0)
(0.617301 0 0)
(0.619647 0 0)
(0.621991 0 0)
(0.624334 0 0)
(0.626674 0 0)
(0.629011 0 0)
(0.631347 0 0)
(0.63368 0 0)
(0.636011 0 0)
(0.63834 0 0)
(0.640666 0 0)
(0.642991 0 0)
(0.645312 0 0)
(0.647632 0 0)
(0.649949 0 0)
(0.652264 0 0)
(0.654576 0 0)
(0.656886 0 0)
(0.659193 0 0)
(0.661498 0 0)
(0.663801 0 0)
(0.666101 0 0)
(0.668398 0 0)
(0.670693 0 0)
(0.672986 0 0)
(0.675275 0 0)
(0.677562 0 0)
(0.679847 0 0)
(0.682129 0 0)
(0.684408 0 0)
(0.686684 0 0)
(0.688958 0 0)
(0.691229 0 0)
(0.693497 0 0)
(0.695762 0 0)
(0.698025 0 0)
(0.700284 0 0)
(0.702541 0 0)
(0.704795 0 0)
(0.707046 0 0)
(0.709294 0 0)
(0.711539 0 0)
(0.713781 0 0)
(0.716019 0 0)
(0.718255 0 0)
(0.720488 0 0)
(0.722718 0 0)
(0.724944 0 0)
(0.727167 0 0)
(0.729387 0 0)
(0.731604 0 0)
(0.733818 0 0)
(0.736028 0 0)
(0.738235 0 0)
(0.740439 0 0)
(0.742639 0 0)
(0.744835 0 0)
(0.747029 0 0)
(0.749218 0 0)
(0.751405 0 0)
(0.753587 0 0)
(0.755767 0 0)
(0.757942 0 0)
(0.760114 0 0)
(0.762282 0 0)
(0.764446 0 0)
(0.766607 0 0)
(0.768764 0 0)
(0.770917 0 0)
(0.773066 0 0)
(0.775211 0 0)
(0.777352 0 0)
(0.77949 0 0)
(0.781623 0 0)
(0.783752 0 0)
(0.785877 0 0)
(0.787998 0 0)
(0.790114 0 0)
(0.792227 0 0)
(0.794335 0 0)
(0.796438 0 0)
(0.798538 0 0)
(0.800633 0 0)
(0.802723 0 0)
(0.804809 0 0)
(0.80689 0 0)
(0.808967 0 0)
(0.811039 0 0)
(0.813106 0 0)
(0.815169 0 0)
(0.817227 0 0)
(0.81928 0 0)
(0.821328 0 0)
(0.823371 0 0)
(0.825408 0 0)
(0.827441 0 0)
(0.829469 0 0)
(0.831491 0 0)
(0.833508 0 0)
(0.83552 0 0)
(0.837527 0 0)
(0.839528 0 0)
(0.841523 0 0)
(0.843513 0 0)
(0.845497 0 0)
(0.847476 0 0)
(0.849448 0 0)
(0.851415 0 0)
(0.853376 0 0)
(0.855331 0 0)
(0.85728 0 0)
(0.859223 0 0)
(0.861159 0 0)
(0.863089 0 0)
(0.865013 0 0)
(0.866931 0 0)
(0.868841 0 0)
(0.870745 0 0)
(0.872643 0 0)
(0.874534 0 0)
(0.876417 0 0)
(0.878294 0 0)
(0.880164 0 0)
(0.882026 0 0)
(0.883882 0 0)
(0.885729 0 0)
(0.88757 0 0)
(0.889403 0 0)
(0.891228 0 0)
(0.893045 0 0)
(0.894855 0 0)
(0.896656 0 0)
(0.89845 0 0)
(0.900235 0 0)
(0.902011 0 0)
(0.90378 0 0)
(0.905539 0 0)
(0.90729 0 0)
(0.909032 0 0)
(0.910766 0 0)
(0.91249 0 0)
(0.914204 0 0)
(0.915909 0 0)
(0.917605 0 0)
(0.919291 0 0)
(0.920967 0 0)
(0.922633 0 0)
(0.924289 0 0)
(0.925929 0 0)
(0.927631 0 0)
(0.928435 0 0)
(0.939998 0 0)
(0.545075 0 0)
(-0.543733 0 0)
(-0.939949 0 0)
(-0.928437 0 0)
(-0.927629 0 0)
(-0.925927 0 0)
(-0.924287 0 0)
(-0.922631 0 0)
(-0.920965 0 0)
(-0.919289 0 0)
(-0.917603 0 0)
(-0.915907 0 0)
(-0.914202 0 0)
(-0.912488 0 0)
(-0.910764 0 0)
(-0.909031 0 0)
(-0.907288 0 0)
(-0.905537 0 0)
(-0.903778 0 0)
(-0.902009 0 0)
(-0.900233 0 0)
(-0.898448 0 0)
(-0.896654 0 0)
(-0.894853 0 0)
(-0.893043 0 0)
(-0.891226 0 0)
(-0.889401 0 0)
(-0.887568 0 0)
(-0.885727 0 0)
(-0.883879 0 0)
(-0.882024 0 0)
(-0.880162 0 0)
(-0.878292 0 0)
(-0.876415 0 0)
(-0.874531 0 0)
(-0.872641 0 0)
(-0.870743 0 0)
(-0.868839 0 0)
(-0.866928 0 0)
(-0.865011 0 0)
(-0.863087 0 0)
(-0.861157 0 0)
(-0.85922 0 0)
(-0.857278 0 0)
(-0.855329 0 0)
(-0.853374 0 0)
(-0.851413 0 0)
(-0.849446 0 0)
(-0.847473 0 0)
(-0.845495 0 0)
(-0.843511 0 0)
(-0.841521 0 0)
(-0.839525 0 0)
(-0.837524 0 0)
(-0.835518 0 0)
(-0.833506 0 0)
(-0.831489 0 0)
(-0.829467 0 0)
(-0.827439 0 0)
(-0.825406 0 0)
(-0.823368 0 0)
(-0.821325 0 0)
(-0.819277 0 0)
(-0.817224 0 0)
(-0.815167 0 0)
(-0.813104 0 0)
(-0.811037 0 0)
(-0.808965 0 0)
(-0.806888 0 0)
(-0.804807 0 0)
(-0.802721 0 0)
(-0.80063 0 0)
(-0.798535 0 0)
(-0.796436 0 0)
(-0.794332 0 0)
(-0.792224 0 0)
(-0.790112 0 0)
(-0.787995 0 0)
(-0.785874 0 0)
(-0.783749 0 0)
(-0.78162 0 0)
(-0.779487 0 0)
(-0.77735 0 0)
(-0.775209 0 0)
(-0.773064 0 0)
(-0.770914 0 0)
(-0.768761 0 0)
(-0.766605 0 0)
(-0.764444 0 0)
(-0.76228 0 0)
(-0.760112 0 0)
(-0.75794 0 0)
(-0.755764 0 0)
(-0.753585 0 0)
(-0.751402 0 0)
(-0.749216 0 0)
(-0.747026 0 0)
(-0.744833 0 0)
(-0.742636 0 0)
(-0.740436 0 0)
(-0.738233 0 0)
(-0.736026 0 0)
(-0.733815 0 0)
(-0.731602 0 0)
(-0.729385 0 0)
(-0.727165 0 0)
(-0.724942 0 0)
(-0.722715 0 0)
(-0.720486 0 0)
(-0.718253 0 0)
(-0.716017 0 0)
(-0.713778 0 0)
(-0.711536 0 0)
(-0.709291 0 0)
(-0.707043 0 0)
(-0.704793 0 0)
(-0.702539 0 0)
(-0.700282 0 0)
(-0.698022 0 0)
(-0.69576 0 0)
(-0.693495 0 0)
(-0.691227 0 0)
(-0.688956 0 0)
(-0.686682 0 0)
(-0.684406 0 0)
(-0.682126 0 0)
(-0.679845 0 0)
(-0.67756 0 0)
(-0.675273 0 0)
(-0.672983 0 0)
(-0.670691 0 0)
(-0.668396 0 0)
(-0.666099 0 0)
(-0.663799 0 0)
(-0.661496 0 0)
(-0.659191 0 0)
(-0.656884 0 0)
(-0.654574 0 0)
(-0.652262 0 0)
(-0.649947 0 0)
(-0.64763 0 0)
(-0.64531 0 0)
(-0.642989 0 0)
(-0.640664 0 0)
(-0.638338 0 0)
(-0.636009 0 0)
(-0.633678 0 0)
(-0.631345 0 0)
(-0.629009 0 0)
(-0.626672 0 0)
(-0.624332 0 0)
(-0.62199 0 0)
(-0.619645 0 0)
(-0.617299 0 0)
(-0.61495 0 0)
(-0.6126 0 0)
(-0.610247 0 0)
(-0.607892 0 0)
(-0.605535 0 0)
(-0.603176 0 0)
(-0.600815 0 0)
(-0.598452 0 0)
(-0.596087 0 0)
(-0.593721 0 0)
(-0.591352 0 0)
(-0.588981 0 0)
(-0.586608 0 0)
(-0.584233 0 0)
(-0.581857 0 0)
(-0.579478 0 0)
(-0.577098 0 0)
(-0.574716 0 0)
(-0.572332 0 0)
(-0.569946 0 0)
(-0.567558 0 0)
(-0.565169 0 0)
(-0.562778 0 0)
(-0.560385 0 0)
(-0.55799 0 0)
(-0.555593 0 0)
(-0.553195 0 0)
(-0.550795 0 0)
(-0.548394 0 0)
(-0.54599 0 0)
(-0.543585 0 0)
(-0.541179 0 0)
(-0.53877 0 0)
(-0.53636 0 0)
(-0.533949 0 0)
(-0.531536 0 0)
(-0.529121 0 0)
(-0.526705 0 0)
(-0.524287 0 0)
(-0.521867 0 0)
(-0.519446 0 0)
(-0.517024 0 0)
(-0.5146 0 0)
(-0.512174 0 0)
(-0.509747 0 0)
(-0.507319 0 0)
(-0.504889 0 0)
(-0.502457 0 0)
(-0.500024 0 0)
(-0.49759 0 0)
(-0.495154 0 0)
(-0.492717 0 0)
(-0.490278 0 0)
(-0.487838 0 0)
(-0.485397 0 0)
(-0.482954 0 0)
(-0.48051 0 0)
(-0.478065 0 0)
(-0.475618 0 0)
(-0.47317 0 0)
(-0.47072 0 0)
(-0.468269 0 0)
(-0.465817 0 0)
(-0.463364 0 0)
(-0.46091 0 0)
(-0.458454 0 0)
(-0.455997 0 0)
(-0.453538 0 0)
(-0.451079 0 0)
(-0.448618 0 0)
(-0.446156 0 0)
(-0.443693 0 0)
(-0.441228 0 0)
(-0.438763 0 0)
(-0.436296 0 0)
(-0.433828 0 0)
(-0.431359 0 0)
(-0.428889 0 0)
(-0.426417 0 0)
(-0.423945 0 0)
(-0.421471 0 0)
(-0.418996 0 0)
(-0.41652 0 0)
(-0.414044 0 0)
(-0.411566 0 0)
(-0.409086 0 0)
(-0.406606 0 0)
(-0.404125 0 0)
(-0.401643 0 0)
(-0.39916 0 0)
(-0.396675 0 0)
(-0.39419 0 0)
(-0.391704 0 0)
(-0.389216 0 0)
(-0.386728 0 0)
(-0.384239 0 0)
(-0.381748 0 0)
(-0.379257 0 0)
(-0.376765 0 0)
(-0.374272 0 0)
(-0.371778 0 0)
(-0.369283 0 0)
(-0.366787 0 0)
(-0.36429 0 0)
(-0.361792 0 0)
(-0.359293 0 0)
(-0.356794 0 0)
(-0.354293 0 0)
(-0.351792 0 0)
(-0.34929 0 0)
(-0.346786 0 0)
(-0.344283 0 0)
(-0.341778 0 0)
(-0.339272 0 0)
(-0.336766 0 0)
(-0.334258 0 0)
(-0.33175 0 0)
(-0.329241 0 0)
(-0.326732 0 0)
(-0.324221 0 0)
(-0.32171 0 0)
(-0.319198 0 0)
(-0.316685 0 0)
(-0.314171 0 0)
(-0.311657 0 0)
(-0.309142 0 0)
(-0.306626 0 0)
(-0.30411 0 0)
(-0.301592 0 0)
(-0.299074 0 0)
(-0.296555 0 0)
(-0.294036 0 0)
(-0.291516 0 0)
(-0.288995 0 0)
(-0.286474 0 0)
(-0.283951 0 0)
(-0.281428 0 0)
(-0.278905 0 0)
(-0.276381 0 0)
(-0.273856 0 0)
(-0.27133 0 0)
(-0.268804 0 0)
(-0.266278 0 0)
(-0.26375 0 0)
(-0.261222 0 0)
(-0.258694 0 0)
(-0.256165 0 0)
(-0.253635 0 0)
(-0.251104 0 0)
(-0.248573 0 0)
(-0.246042 0 0)
(-0.24351 0 0)
(-0.240977 0 0)
(-0.238444 0 0)
(-0.23591 0 0)
(-0.233376 0 0)
(-0.230841 0 0)
(-0.228306 0 0)
(-0.22577 0 0)
(-0.223234 0 0)
(-0.220697 0 0)
(-0.218159 0 0)
(-0.215621 0 0)
(-0.213083 0 0)
(-0.210544 0 0)
(-0.208005 0 0)
(-0.205465 0 0)
(-0.202925 0 0)
(-0.200384 0 0)
(-0.197843 0 0)
(-0.195301 0 0)
(-0.192759 0 0)
(-0.190216 0 0)
(-0.187673 0 0)
(-0.18513 0 0)
(-0.182586 0 0)
(-0.180042 0 0)
(-0.177497 0 0)
(-0.174952 0 0)
(-0.172407 0 0)
(-0.169861 0 0)
(-0.167315 0 0)
(-0.164768 0 0)
(-0.162221 0 0)
(-0.159674 0 0)
(-0.157127 0 0)
(-0.154579 0 0)
(-0.15203 0 0)
(-0.149482 0 0)
(-0.146933 0 0)
(-0.144383 0 0)
(-0.141834 0 0)
(-0.139284 0 0)
(-0.136733 0 0)
(-0.134183 0 0)
(-0.131632 0 0)
(-0.129081 0 0)
(-0.126529 0 0)
(-0.123978 0 0)
(-0.121426 0 0)
(-0.118874 0 0)
(-0.116321 0 0)
(-0.113768 0 0)
(-0.111215 0 0)
(-0.108662 0 0)
(-0.106108 0 0)
(-0.103555 0 0)
(-0.101001 0 0)
(-0.0984466 0 0)
(-0.0958922 0 0)
(-0.0933376 0 0)
(-0.0907827 0 0)
(-0.0882277 0 0)
(-0.0856725 0 0)
(-0.0831171 0 0)
(-0.0805616 0 0)
(-0.0780058 0 0)
(-0.0754499 0 0)
(-0.0728938 0 0)
(-0.0703375 0 0)
(-0.0677811 0 0)
(-0.0652246 0 0)
(-0.0626679 0 0)
(-0.0601111 0 0)
(-0.0575541 0 0)
(-0.054997 0 0)
(-0.0524398 0 0)
(-0.0498825 0 0)
(-0.0473251 0 0)
(-0.0447676 0 0)
(-0.0422099 0 0)
(-0.0396522 0 0)
(-0.0370944 0 0)
(-0.0345365 0 0)
(-0.0319786 0 0)
(-0.0294205 0 0)
(-0.0268624 0 0)
(-0.0243043 0 0)
(-0.0217461 0 0)
(-0.0191878 0 0)
(-0.0166295 0 0)
(-0.0140712 0 0)
(-0.0115129 0 0)
(-0.00895447 0 0)
(-0.00639606 0 0)
(-0.00383764 0 0)
(-0.00127922 0 0)
)
;

boundaryField
{
    left
    {
        type            fixedValue;
        value           uniform (0 0 0);
    }
    right
    {
        type            fixedValue;
        value           uniform (0 0 0);
    }
    frontBackUpDown
    {
        type            empty;
    }
}


// ************************************************************************* //
