/*--------------------------------*- C++ -*----------------------------------*\
| =========                 |                                                 |
| \\      /  F ield         | OpenFOAM: The Open Source CFD Toolbox           |
|  \\    /   O peration     | Version:  2412                                  |
|   \\  /    A nd           | Website:  www.openfoam.com                      |
|    \\/     M anipulation  |                                                 |
\*---------------------------------------------------------------------------*/
FoamFile
{
    version     2.0;
    format      ascii;
    arch        "LSB;label=32;scalar=64";
    class       volVectorField;
    location    "0.66";
    object      U_0_0;
}
// * * * * * * * * * * * * * * * * * * * * * * * * * * * * * * * * * * * * * //

dimensions      [0 1 -1 0 0 0 0];

internalField   nonuniform List<vector> 
800
(
(0.00127986 0 0)
(0.00383959 0 0)
(0.00639932 0 0)
(0.00895903 0 0)
(0.0115187 0 0)
(0.0140784 0 0)
(0.016638 0 0)
(0.0191976 0 0)
(0.0217572 0 0)
(0.0243167 0 0)
(0.0268762 0 0)
(0.0294356 0 0)
(0.0319949 0 0)
(0.0345542 0 0)
(0.0371134 0 0)
(0.0396725 0 0)
(0.0422315 0 0)
(0.0447904 0 0)
(0.0473493 0 0)
(0.049908 0 0)
(0.0524666 0 0)
(0.0550251 0 0)
(0.0575835 0 0)
(0.0601418 0 0)
(0.0626999 0 0)
(0.0652579 0 0)
(0.0678158 0 0)
(0.0703735 0 0)
(0.072931 0 0)
(0.0754884 0 0)
(0.0780457 0 0)
(0.0806027 0 0)
(0.0831596 0 0)
(0.0857163 0 0)
(0.0882728 0 0)
(0.0908291 0 0)
(0.0933852 0 0)
(0.0959412 0 0)
(0.0984969 0 0)
(0.101052 0 0)
(0.103608 0 0)
(0.106163 0 0)
(0.108717 0 0)
(0.111272 0 0)
(0.113826 0 0)
(0.11638 0 0)
(0.118934 0 0)
(0.121488 0 0)
(0.124041 0 0)
(0.126594 0 0)
(0.129147 0 0)
(0.131699 0 0)
(0.134251 0 0)
(0.136803 0 0)
(0.139355 0 0)
(0.141906 0 0)
(0.144457 0 0)
(0.147008 0 0)
(0.149558 0 0)
(0.152108 0 0)
(0.154657 0 0)
(0.157207 0 0)
(0.159756 0 0)
(0.162304 0 0)
(0.164852 0 0)
(0.1674 0 0)
(0.169948 0 0)
(0.172495 0 0)
(0.175041 0 0)
(0.177588 0 0)
(0.180134 0 0)
(0.182679 0 0)
(0.185224 0 0)
(0.187769 0 0)
(0.190313 0 0)
(0.192857 0 0)
(0.1954 0 0)
(0.197943 0 0)
(0.200486 0 0)
(0.203028 0 0)
(0.205569 0 0)
(0.20811 0 0)
(0.210651 0 0)
(0.213191 0 0)
(0.215731 0 0)
(0.21827 0 0)
(0.220809 0 0)
(0.223347 0 0)
(0.225885 0 0)
(0.228422 0 0)
(0.230958 0 0)
(0.233494 0 0)
(0.23603 0 0)
(0.238565 0 0)
(0.241099 0 0)
(0.243633 0 0)
(0.246167 0 0)
(0.2487 0 0)
(0.251232 0 0)
(0.253763 0 0)
(0.256294 0 0)
(0.258825 0 0)
(0.261355 0 0)
(0.263884 0 0)
(0.266412 0 0)
(0.26894 0 0)
(0.271468 0 0)
(0.273995 0 0)
(0.276521 0 0)
(0.279046 0 0)
(0.281571 0 0)
(0.284095 0 0)
(0.286618 0 0)
(0.289141 0 0)
(0.291663 0 0)
(0.294185 0 0)
(0.296705 0 0)
(0.299225 0 0)
(0.301744 0 0)
(0.304263 0 0)
(0.306781 0 0)
(0.309298 0 0)
(0.311814 0 0)
(0.31433 0 0)
(0.316845 0 0)
(0.319359 0 0)
(0.321872 0 0)
(0.324384 0 0)
(0.326896 0 0)
(0.329407 0 0)
(0.331917 0 0)
(0.334426 0 0)
(0.336935 0 0)
(0.339443 0 0)
(0.341949 0 0)
(0.344455 0 0)
(0.346961 0 0)
(0.349465 0 0)
(0.351968 0 0)
(0.354471 0 0)
(0.356973 0 0)
(0.359473 0 0)
(0.361973 0 0)
(0.364472 0 0)
(0.36697 0 0)
(0.369467 0 0)
(0.371964 0 0)
(0.374459 0 0)
(0.376953 0 0)
(0.379447 0 0)
(0.381939 0 0)
(0.384431 0 0)
(0.386921 0 0)
(0.389411 0 0)
(0.391899 0 0)
(0.394387 0 0)
(0.396873 0 0)
(0.399359 0 0)
(0.401843 0 0)
(0.404326 0 0)
(0.406809 0 0)
(0.40929 0 0)
(0.41177 0 0)
(0.414249 0 0)
(0.416728 0 0)
(0.419204 0 0)
(0.42168 0 0)
(0.424155 0 0)
(0.426629 0 0)
(0.429101 0 0)
(0.431573 0 0)
(0.434043 0 0)
(0.436512 0 0)
(0.43898 0 0)
(0.441447 0 0)
(0.443912 0 0)
(0.446376 0 0)
(0.44884 0 0)
(0.451302 0 0)
(0.453762 0 0)
(0.456222 0 0)
(0.45868 0 0)
(0.461137 0 0)
(0.463593 0 0)
(0.466047 0 0)
(0.4685 0 0)
(0.470952 0 0)
(0.473402 0 0)
(0.475852 0 0)
(0.478299 0 0)
(0.480746 0 0)
(0.483191 0 0)
(0.485635 0 0)
(0.488077 0 0)
(0.490518 0 0)
(0.492958 0 0)
(0.495396 0 0)
(0.497833 0 0)
(0.500269 0 0)
(0.502703 0 0)
(0.505135 0 0)
(0.507566 0 0)
(0.509996 0 0)
(0.512424 0 0)
(0.51485 0 0)
(0.517275 0 0)
(0.519699 0 0)
(0.522121 0 0)
(0.524542 0 0)
(0.52696 0 0)
(0.529378 0 0)
(0.531794 0 0)
(0.534208 0 0)
(0.53662 0 0)
(0.539031 0 0)
(0.54144 0 0)
(0.543848 0 0)
(0.546254 0 0)
(0.548658 0 0)
(0.551061 0 0)
(0.553462 0 0)
(0.555861 0 0)
(0.558259 0 0)
(0.560654 0 0)
(0.563048 0 0)
(0.56544 0 0)
(0.567831 0 0)
(0.570219 0 0)
(0.572606 0 0)
(0.574991 0 0)
(0.577374 0 0)
(0.579756 0 0)
(0.582135 0 0)
(0.584512 0 0)
(0.586888 0 0)
(0.589262 0 0)
(0.591633 0 0)
(0.594003 0 0)
(0.596371 0 0)
(0.598737 0 0)
(0.601101 0 0)
(0.603463 0 0)
(0.605822 0 0)
(0.60818 0 0)
(0.610536 0 0)
(0.612889 0 0)
(0.615241 0 0)
(0.61759 0 0)
(0.619938 0 0)
(0.622283 0 0)
(0.624626 0 0)
(0.626966 0 0)
(0.629305 0 0)
(0.631641 0 0)
(0.633975 0 0)
(0.636307 0 0)
(0.638637 0 0)
(0.640964 0 0)
(0.643289 0 0)
(0.645612 0 0)
(0.647932 0 0)
(0.65025 0 0)
(0.652565 0 0)
(0.654878 0 0)
(0.657189 0 0)
(0.659497 0 0)
(0.661803 0 0)
(0.664106 0 0)
(0.666407 0 0)
(0.668705 0 0)
(0.671001 0 0)
(0.673294 0 0)
(0.675584 0 0)
(0.677872 0 0)
(0.680157 0 0)
(0.68244 0 0)
(0.684719 0 0)
(0.686996 0 0)
(0.689271 0 0)
(0.691542 0 0)
(0.693811 0 0)
(0.696077 0 0)
(0.69834 0 0)
(0.7006 0 0)
(0.702858 0 0)
(0.705112 0 0)
(0.707364 0 0)
(0.709612 0 0)
(0.711858 0 0)
(0.7141 0 0)
(0.71634 0 0)
(0.718576 0 0)
(0.720809 0 0)
(0.723039 0 0)
(0.725266 0 0)
(0.72749 0 0)
(0.729711 0 0)
(0.731928 0 0)
(0.734142 0 0)
(0.736353 0 0)
(0.73856 0 0)
(0.740764 0 0)
(0.742965 0 0)
(0.745162 0 0)
(0.747356 0 0)
(0.749546 0 0)
(0.751733 0 0)
(0.753916 0 0)
(0.756095 0 0)
(0.758271 0 0)
(0.760444 0 0)
(0.762612 0 0)
(0.764777 0 0)
(0.766938 0 0)
(0.769095 0 0)
(0.771248 0 0)
(0.773398 0 0)
(0.775543 0 0)
(0.777685 0 0)
(0.779822 0 0)
(0.781956 0 0)
(0.784085 0 0)
(0.78621 0 0)
(0.788331 0 0)
(0.790448 0 0)
(0.792561 0 0)
(0.794669 0 0)
(0.796773 0 0)
(0.798872 0 0)
(0.800968 0 0)
(0.803058 0 0)
(0.805144 0 0)
(0.807226 0 0)
(0.809303 0 0)
(0.811375 0 0)
(0.813442 0 0)
(0.815505 0 0)
(0.817563 0 0)
(0.819615 0 0)
(0.821663 0 0)
(0.823706 0 0)
(0.825744 0 0)
(0.827777 0 0)
(0.829805 0 0)
(0.831827 0 0)
(0.833844 0 0)
(0.835856 0 0)
(0.837862 0 0)
(0.839863 0 0)
(0.841858 0 0)
(0.843848 0 0)
(0.845832 0 0)
(0.84781 0 0)
(0.849783 0 0)
(0.85175 0 0)
(0.85371 0 0)
(0.855665 0 0)
(0.857614 0 0)
(0.859556 0 0)
(0.861492 0 0)
(0.863422 0 0)
(0.865345 0 0)
(0.867262 0 0)
(0.869173 0 0)
(0.871076 0 0)
(0.872973 0 0)
(0.874864 0 0)
(0.876747 0 0)
(0.878623 0 0)
(0.880492 0 0)
(0.882354 0 0)
(0.884209 0 0)
(0.886056 0 0)
(0.887896 0 0)
(0.889728 0 0)
(0.891552 0 0)
(0.893369 0 0)
(0.895178 0 0)
(0.896979 0 0)
(0.898771 0 0)
(0.900555 0 0)
(0.902331 0 0)
(0.904099 0 0)
(0.905857 0 0)
(0.907607 0 0)
(0.909348 0 0)
(0.91108 0 0)
(0.912803 0 0)
(0.914517 0 0)
(0.916221 0 0)
(0.917915 0 0)
(0.9196 0 0)
(0.921275 0 0)
(0.92294 0 0)
(0.924594 0 0)
(0.926233 0 0)
(0.927934 0 0)
(0.928729 0 0)
(0.940372 0 0)
(0.545422 0 0)
(-0.54408 0 0)
(-0.940323 0 0)
(-0.92873 0 0)
(-0.927932 0 0)
(-0.926231 0 0)
(-0.924593 0 0)
(-0.922938 0 0)
(-0.921273 0 0)
(-0.919598 0 0)
(-0.917914 0 0)
(-0.916219 0 0)
(-0.914515 0 0)
(-0.912801 0 0)
(-0.911079 0 0)
(-0.909346 0 0)
(-0.907605 0 0)
(-0.905855 0 0)
(-0.904097 0 0)
(-0.902329 0 0)
(-0.900553 0 0)
(-0.898769 0 0)
(-0.896976 0 0)
(-0.895176 0 0)
(-0.893367 0 0)
(-0.89155 0 0)
(-0.889726 0 0)
(-0.887894 0 0)
(-0.886054 0 0)
(-0.884207 0 0)
(-0.882352 0 0)
(-0.88049 0 0)
(-0.878621 0 0)
(-0.876745 0 0)
(-0.874861 0 0)
(-0.872971 0 0)
(-0.871074 0 0)
(-0.86917 0 0)
(-0.86726 0 0)
(-0.865343 0 0)
(-0.86342 0 0)
(-0.86149 0 0)
(-0.859554 0 0)
(-0.857611 0 0)
(-0.855663 0 0)
(-0.853708 0 0)
(-0.851747 0 0)
(-0.849781 0 0)
(-0.847808 0 0)
(-0.84583 0 0)
(-0.843846 0 0)
(-0.841856 0 0)
(-0.839861 0 0)
(-0.83786 0 0)
(-0.835854 0 0)
(-0.833842 0 0)
(-0.831825 0 0)
(-0.829802 0 0)
(-0.827775 0 0)
(-0.825742 0 0)
(-0.823704 0 0)
(-0.821661 0 0)
(-0.819613 0 0)
(-0.81756 0 0)
(-0.815502 0 0)
(-0.81344 0 0)
(-0.811372 0 0)
(-0.8093 0 0)
(-0.807223 0 0)
(-0.805142 0 0)
(-0.803056 0 0)
(-0.800965 0 0)
(-0.79887 0 0)
(-0.796771 0 0)
(-0.794667 0 0)
(-0.792558 0 0)
(-0.790446 0 0)
(-0.788329 0 0)
(-0.786208 0 0)
(-0.784083 0 0)
(-0.781953 0 0)
(-0.77982 0 0)
(-0.777682 0 0)
(-0.775541 0 0)
(-0.773395 0 0)
(-0.771246 0 0)
(-0.769093 0 0)
(-0.766935 0 0)
(-0.764774 0 0)
(-0.76261 0 0)
(-0.760441 0 0)
(-0.758269 0 0)
(-0.756093 0 0)
(-0.753914 0 0)
(-0.75173 0 0)
(-0.749544 0 0)
(-0.747354 0 0)
(-0.74516 0 0)
(-0.742963 0 0)
(-0.740762 0 0)
(-0.738558 0 0)
(-0.736351 0 0)
(-0.73414 0 0)
(-0.731926 0 0)
(-0.729708 0 0)
(-0.727488 0 0)
(-0.725264 0 0)
(-0.723037 0 0)
(-0.720807 0 0)
(-0.718574 0 0)
(-0.716337 0 0)
(-0.714098 0 0)
(-0.711855 0 0)
(-0.70961 0 0)
(-0.707361 0 0)
(-0.70511 0 0)
(-0.702855 0 0)
(-0.700598 0 0)
(-0.698338 0 0)
(-0.696075 0 0)
(-0.693809 0 0)
(-0.69154 0 0)
(-0.689268 0 0)
(-0.686994 0 0)
(-0.684717 0 0)
(-0.682437 0 0)
(-0.680155 0 0)
(-0.67787 0 0)
(-0.675582 0 0)
(-0.673292 0 0)
(-0.670999 0 0)
(-0.668703 0 0)
(-0.666405 0 0)
(-0.664104 0 0)
(-0.661801 0 0)
(-0.659495 0 0)
(-0.657187 0 0)
(-0.654876 0 0)
(-0.652563 0 0)
(-0.650248 0 0)
(-0.64793 0 0)
(-0.64561 0 0)
(-0.643287 0 0)
(-0.640962 0 0)
(-0.638635 0 0)
(-0.636305 0 0)
(-0.633973 0 0)
(-0.631639 0 0)
(-0.629303 0 0)
(-0.626964 0 0)
(-0.624624 0 0)
(-0.622281 0 0)
(-0.619936 0 0)
(-0.617588 0 0)
(-0.615239 0 0)
(-0.612887 0 0)
(-0.610534 0 0)
(-0.608178 0 0)
(-0.60582 0 0)
(-0.603461 0 0)
(-0.601099 0 0)
(-0.598735 0 0)
(-0.596369 0 0)
(-0.594001 0 0)
(-0.591632 0 0)
(-0.58926 0 0)
(-0.586886 0 0)
(-0.584511 0 0)
(-0.582133 0 0)
(-0.579754 0 0)
(-0.577373 0 0)
(-0.574989 0 0)
(-0.572604 0 0)
(-0.570218 0 0)
(-0.567829 0 0)
(-0.565439 0 0)
(-0.563047 0 0)
(-0.560653 0 0)
(-0.558257 0 0)
(-0.555859 0 0)
(-0.55346 0 0)
(-0.551059 0 0)
(-0.548657 0 0)
(-0.546252 0 0)
(-0.543846 0 0)
(-0.541439 0 0)
(-0.53903 0 0)
(-0.536619 0 0)
(-0.534206 0 0)
(-0.531792 0 0)
(-0.529376 0 0)
(-0.526959 0 0)
(-0.52454 0 0)
(-0.52212 0 0)
(-0.519698 0 0)
(-0.517274 0 0)
(-0.514849 0 0)
(-0.512422 0 0)
(-0.509994 0 0)
(-0.507565 0 0)
(-0.505134 0 0)
(-0.502701 0 0)
(-0.500267 0 0)
(-0.497832 0 0)
(-0.495395 0 0)
(-0.492957 0 0)
(-0.490517 0 0)
(-0.488076 0 0)
(-0.485634 0 0)
(-0.48319 0 0)
(-0.480745 0 0)
(-0.478298 0 0)
(-0.47585 0 0)
(-0.473401 0 0)
(-0.470951 0 0)
(-0.468499 0 0)
(-0.466046 0 0)
(-0.463591 0 0)
(-0.461136 0 0)
(-0.458679 0 0)
(-0.45622 0 0)
(-0.453761 0 0)
(-0.4513 0 0)
(-0.448838 0 0)
(-0.446375 0 0)
(-0.443911 0 0)
(-0.441445 0 0)
(-0.438979 0 0)
(-0.436511 0 0)
(-0.434042 0 0)
(-0.431572 0 0)
(-0.4291 0 0)
(-0.426628 0 0)
(-0.424154 0 0)
(-0.421679 0 0)
(-0.419203 0 0)
(-0.416726 0 0)
(-0.414248 0 0)
(-0.411769 0 0)
(-0.409289 0 0)
(-0.406808 0 0)
(-0.404325 0 0)
(-0.401842 0 0)
(-0.399358 0 0)
(-0.396872 0 0)
(-0.394386 0 0)
(-0.391898 0 0)
(-0.38941 0 0)
(-0.38692 0 0)
(-0.38443 0 0)
(-0.381938 0 0)
(-0.379446 0 0)
(-0.376952 0 0)
(-0.374458 0 0)
(-0.371963 0 0)
(-0.369467 0 0)
(-0.36697 0 0)
(-0.364471 0 0)
(-0.361972 0 0)
(-0.359473 0 0)
(-0.356972 0 0)
(-0.35447 0 0)
(-0.351968 0 0)
(-0.349464 0 0)
(-0.34696 0 0)
(-0.344455 0 0)
(-0.341949 0 0)
(-0.339442 0 0)
(-0.336934 0 0)
(-0.334426 0 0)
(-0.331916 0 0)
(-0.329406 0 0)
(-0.326895 0 0)
(-0.324384 0 0)
(-0.321871 0 0)
(-0.319358 0 0)
(-0.316844 0 0)
(-0.314329 0 0)
(-0.311814 0 0)
(-0.309297 0 0)
(-0.30678 0 0)
(-0.304262 0 0)
(-0.301744 0 0)
(-0.299225 0 0)
(-0.296705 0 0)
(-0.294184 0 0)
(-0.291663 0 0)
(-0.289141 0 0)
(-0.286618 0 0)
(-0.284094 0 0)
(-0.28157 0 0)
(-0.279046 0 0)
(-0.27652 0 0)
(-0.273994 0 0)
(-0.271467 0 0)
(-0.26894 0 0)
(-0.266412 0 0)
(-0.263883 0 0)
(-0.261354 0 0)
(-0.258824 0 0)
(-0.256294 0 0)
(-0.253763 0 0)
(-0.251231 0 0)
(-0.248699 0 0)
(-0.246166 0 0)
(-0.243633 0 0)
(-0.241099 0 0)
(-0.238565 0 0)
(-0.23603 0 0)
(-0.233494 0 0)
(-0.230958 0 0)
(-0.228421 0 0)
(-0.225884 0 0)
(-0.223347 0 0)
(-0.220808 0 0)
(-0.21827 0 0)
(-0.215731 0 0)
(-0.213191 0 0)
(-0.210651 0 0)
(-0.20811 0 0)
(-0.205569 0 0)
(-0.203027 0 0)
(-0.200485 0 0)
(-0.197943 0 0)
(-0.1954 0 0)
(-0.192857 0 0)
(-0.190313 0 0)
(-0.187769 0 0)
(-0.185224 0 0)
(-0.182679 0 0)
(-0.180133 0 0)
(-0.177587 0 0)
(-0.175041 0 0)
(-0.172495 0 0)
(-0.169947 0 0)
(-0.1674 0 0)
(-0.164852 0 0)
(-0.162304 0 0)
(-0.159755 0 0)
(-0.157207 0 0)
(-0.154657 0 0)
(-0.152108 0 0)
(-0.149558 0 0)
(-0.147007 0 0)
(-0.144457 0 0)
(-0.141906 0 0)
(-0.139355 0 0)
(-0.136803 0 0)
(-0.134251 0 0)
(-0.131699 0 0)
(-0.129147 0 0)
(-0.126594 0 0)
(-0.124041 0 0)
(-0.121488 0 0)
(-0.118934 0 0)
(-0.11638 0 0)
(-0.113826 0 0)
(-0.111272 0 0)
(-0.108717 0 0)
(-0.106163 0 0)
(-0.103608 0 0)
(-0.101052 0 0)
(-0.0984968 0 0)
(-0.0959411 0 0)
(-0.0933852 0 0)
(-0.0908291 0 0)
(-0.0882728 0 0)
(-0.0857162 0 0)
(-0.0831596 0 0)
(-0.0806027 0 0)
(-0.0780456 0 0)
(-0.0754884 0 0)
(-0.072931 0 0)
(-0.0703735 0 0)
(-0.0678158 0 0)
(-0.0652579 0 0)
(-0.0626999 0 0)
(-0.0601418 0 0)
(-0.0575835 0 0)
(-0.0550251 0 0)
(-0.0524666 0 0)
(-0.049908 0 0)
(-0.0473493 0 0)
(-0.0447904 0 0)
(-0.0422315 0 0)
(-0.0396725 0 0)
(-0.0371134 0 0)
(-0.0345542 0 0)
(-0.0319949 0 0)
(-0.0294356 0 0)
(-0.0268762 0 0)
(-0.0243167 0 0)
(-0.0217572 0 0)
(-0.0191976 0 0)
(-0.016638 0 0)
(-0.0140784 0 0)
(-0.0115187 0 0)
(-0.00895904 0 0)
(-0.00639933 0 0)
(-0.0038396 0 0)
(-0.00127987 0 0)
)
;

boundaryField
{
    left
    {
        type            fixedValue;
        value           uniform (0 0 0);
    }
    right
    {
        type            fixedValue;
        value           uniform (0 0 0);
    }
    frontBackUpDown
    {
        type            empty;
    }
}


// ************************************************************************* //
