/*--------------------------------*- C++ -*----------------------------------*\
| =========                 |                                                 |
| \\      /  F ield         | OpenFOAM: The Open Source CFD Toolbox           |
|  \\    /   O peration     | Version:  2412                                  |
|   \\  /    A nd           | Website:  www.openfoam.com                      |
|    \\/     M anipulation  |                                                 |
\*---------------------------------------------------------------------------*/
FoamFile
{
    version     2.0;
    format      ascii;
    arch        "LSB;label=32;scalar=64";
    class       volScalarField;
    location    "0.25";
    object      epsilon;
}
// * * * * * * * * * * * * * * * * * * * * * * * * * * * * * * * * * * * * * //

dimensions      [0 2 -3 0 0 0 0];

internalField   nonuniform List<scalar> 
12225
(
448.248
622.894
830.557
1004.83
1150.4
1270.22
1368.62
1449.63
1516.36
1571.37
1616.74
1654.12
1684.8
1709.78
1729.83
1745.35
1756.67
1766.6
173.744
302.084
403.102
480.178
539.345
585.698
622.138
650.861
673.573
691.54
705.724
716.875
725.586
732.323
737.489
741.333
744.65
744.49
119.435
232.402
315.512
376.254
421.162
455.029
480.63
499.96
514.533
525.462
533.569
539.484
543.694
546.586
548.491
549.674
550.565
550.231
97.6414
199.979
277.776
334.832
376.772
407.859
430.863
447.789
460.145
469.044
475.313
479.575
482.314
483.91
484.683
484.908
484.922
484.519
83.6526
176.289
251.577
308.548
351.099
382.721
406.064
423.141
435.483
444.243
450.285
454.271
456.709
458.001
458.479
458.434
458.169
457.712
71.9917
153.972
226.31
283.823
328.194
361.835
387.034
405.699
419.345
429.146
436.009
440.636
443.572
445.252
446.032
446.219
446.095
445.752
61.3441
131.281
198.624
255.576
301.538
337.583
365.348
386.457
402.304
414.029
422.546
428.583
432.716
435.413
437.053
437.956
438.39
438.455
51.6696
108.73
168.486
222.629
268.751
306.556
336.797
360.608
379.12
393.344
404.136
412.21
418.151
422.439
425.471
427.574
429.005
429.851
43.2224
87.6449
137.685
186.323
230.295
268.238
299.979
326.013
347.069
363.911
377.256
387.739
395.91
402.233
407.099
410.832
413.672
415.686
36.1697
69.2408
108.63
149.499
188.75
224.538
255.993
282.973
305.732
324.696
340.358
353.204
363.691
372.225
379.161
384.794
389.342
392.836
30.4983
54.138
83.3273
115.312
147.811
179.109
208.06
234.087
257.019
276.935
294.054
308.662
321.07
331.581
340.475
347.994
354.314
359.412
26.3765
43.197
64.2821
88.2375
113.644
139.251
164.035
187.297
208.643
227.91
245.09
260.277
273.624
285.309
295.519
304.422
312.134
318.559
23.1424
34.7463
49.3126
66.2676
84.8735
104.384
124.075
143.344
161.749
179.008
194.965
209.563
222.816
234.783
245.546
255.193
263.772
271.126
20.3782
27.6942
36.7517
47.4267
59.4445
72.4822
86.1714
100.139
114.056
127.659
140.75
153.193
164.907
175.853
186.02
195.413
204.014
211.618
18.1499
22.2405
27.1487
32.9136
39.4891
46.7951
54.716
63.1049
71.8042
80.6633
89.5469
98.3393
106.946
115.296
123.333
131.013
138.281
144.933
16.4706
18.3567
20.5272
23.0282
25.8741
29.0686
32.6036
36.4547
40.5837
44.9451
49.4894
54.1663
58.9268
63.7251
68.5193
73.2696
77.9275
82.3604
15.3282
15.873
16.4958
17.2132
18.0328
18.9609
20.0036
21.1643
22.4423
23.834
25.3333
26.9317
28.6188
30.3806
32.2033
34.0729
35.9718
37.8577
14.7508
14.6757
14.6369
14.6352
14.6697
14.7396
14.8449
14.986
15.163
15.3758
15.6242
15.9075
16.225
16.5768
16.9622
17.3791
17.825
18.2954
14.8977
14.9733
15.0873
15.2435
15.4418
15.6822
15.9649
16.2899
16.6563
17.0625
17.5063
17.9852
18.4962
19.0359
19.6007
20.187
20.7901
21.3965
15.9708
17.2606
18.7266
20.3955
22.2739
24.3608
26.6497
29.1247
31.7619
34.5326
37.4059
40.3501
43.3344
46.3303
49.3119
52.2561
55.1381
57.898
18.0496
21.997
26.6903
32.1486
38.3093
45.0764
52.3263
59.9127
67.6846
75.5017
83.2424
90.8056
98.1122
105.103
111.739
117.992
123.845
129.252
21.5632
30.653
41.9215
55.0381
69.4978
84.7822
100.381
115.834
130.777
144.949
158.186
170.394
181.542
191.639
200.722
208.849
216.079
222.457
27.2186
45.3008
67.7872
92.9388
119.107
145.002
169.645
192.394
212.923
231.138
247.087
260.907
272.781
282.908
291.489
298.715
304.761
309.786
35.7146
67.677
105.679
144.952
182.518
216.745
246.821
272.575
294.23
312.19
326.913
338.857
348.445
356.054
362.012
366.597
370.05
372.595
47.408
97.6117
152.03
202.691
246.855
283.889
314.074
338.201
357.206
371.976
383.289
391.804
398.067
402.526
405.541
407.406
408.365
408.652
61.8882
131.752
198.706
254.807
299.835
335.071
362.112
382.56
397.801
408.962
416.94
422.438
426.011
428.09
429.011
429.04
428.39
427.277
78.4671
165.762
239.653
296.704
339.787
371.976
395.787
413.193
425.729
434.563
440.58
444.45
446.681
447.661
447.688
446.993
445.758
444.17
99.5998
200.965
279.478
337.821
380.456
411.806
434.888
451.764
463.979
472.69
478.744
482.772
485.25
486.538
486.915
486.595
485.746
484.538
144.792
258.314
348.614
417.597
468.464
506.746
535.87
558.047
574.949
587.822
597.579
604.903
610.318
614.229
616.952
618.738
619.78
620.279
366.941
498.482
666.582
808.025
923.442
1016.68
1091.7
1152.36
1201.64
1241.81
1274.65
1301.59
1323.75
1342.03
1357.12
1369.6
1379.91
1388.47
0.845498
0.810421
1.1927
1.53015
1.81208
2.05415
2.31938
2.62469
2.95915
3.32587
3.7335
4.20225
4.79835
5.5611
6.44463
7.44696
8.5734
9.83368
11.2379
12.7948
14.5106
16.3893
18.4328
20.6415
23.0151
25.553
28.2562
31.1275
34.1735
37.4064
40.8456
44.4736
48.2563
52.1864
56.2592
60.4703
64.8156
69.2911
73.8933
78.619
83.4649
88.4279
93.5052
98.6938
103.991
109.392
114.896
120.498
126.195
131.983
137.858
143.815
149.849
155.956
162.13
168.366
174.658
181
187.385
193.807
200.26
206.736
213.228
219.729
226.232
232.729
239.213
245.677
252.113
258.516
264.881
271.206
277.494
283.757
290.023
296.242
302.36
308.378
314.293
320.102
325.797
331.373
336.822
342.138
347.313
352.341
357.216
361.931
366.481
370.86
375.062
379.083
382.918
386.561
390.009
393.258
396.303
399.142
401.771
404.188
406.389
408.373
410.137
411.679
412.999
414.094
414.965
415.61
416.029
416.221
416.188
415.93
415.448
414.742
413.815
412.668
411.303
409.724
407.931
405.929
403.722
401.312
398.704
395.902
392.911
389.736
386.382
382.854
379.16
375.304
371.293
367.134
362.833
358.397
353.835
349.152
344.358
339.46
334.461
329.384
324.219
319.001
313.776
308.81
305.552
302.871
300.164
297.388
294.544
291.636
288.668
285.645
282.573
279.457
276.302
273.113
269.896
266.655
263.395
260.123
256.842
253.557
250.272
246.992
243.721
240.462
237.218
233.99
230.779
227.586
224.406
221.233
218.056
214.852
211.583
208.177
204.473
200.068
194.28
186.415
2.64283
1.46888
1.31383
1.37164
1.5243
1.75307
2.05178
2.42054
2.85006
3.34455
3.90837
4.54687
5.26627
6.06719
6.94291
7.88804
8.89815
9.96918
11.097
12.2776
13.5069
14.7815
16.0987
17.4566
18.8544
20.292
21.7705
23.2911
24.8557
26.4655
28.1209
29.8197
31.5596
33.34
35.1608
37.0217
38.9226
40.8632
42.843
44.8615
46.9181
49.0121
51.1428
53.3093
55.5105
57.7455
60.0129
62.3117
64.6404
66.9976
69.3818
71.7913
74.2245
76.6795
79.1546
81.6477
84.1569
86.68
89.215
91.7597
94.3117
96.8688
99.4285
101.989
104.547
107.1
109.647
112.185
114.713
117.229
119.732
122.223
124.707
127.187
129.682
132.181
134.651
137.085
139.482
141.839
144.153
146.422
148.643
150.813
152.931
154.992
156.996
158.94
160.82
162.636
164.385
166.065
167.674
169.211
170.673
172.058
173.366
174.595
175.744
176.81
177.794
178.693
179.508
180.237
180.879
181.434
181.901
182.28
182.57
182.772
182.884
182.907
182.842
182.687
182.445
182.114
181.696
181.191
180.6
179.925
179.165
178.323
177.399
176.395
175.313
174.153
172.919
171.611
170.233
168.785
167.27
165.691
164.049
162.348
160.589
158.776
156.912
154.999
153.036
151.037
148.985
146.913
144.848
142.855
141.153
139.585
138.03
136.461
134.871
133.261
131.631
129.984
128.321
126.645
124.958
123.261
121.558
119.85
118.139
116.428
114.718
113.012
111.312
109.618
107.933
106.259
104.597
102.947
101.312
99.6915
98.0861
96.4956
94.9191
93.3549
91.7998
90.2505
88.6985
87.1552
85.8136
85.8511
4.77121
2.3238
1.96707
1.99226
2.17009
2.4349
2.77818
3.1992
3.69614
4.26617
4.90481
5.60654
6.36523
7.17403
8.02592
8.91496
9.83661
10.7876
11.7658
12.7701
13.7999
14.8557
15.9382
17.0485
18.188
19.3581
20.5599
21.7943
23.0619
24.3627
25.6963
27.0619
28.4587
29.886
31.3435
32.8304
34.3462
35.8902
37.462
39.0609
40.6862
42.3374
44.0138
45.7147
47.4395
49.1874
50.9577
52.7496
54.5621
56.3946
58.2458
60.1149
62.0008
63.9023
65.8182
67.7473
69.6883
71.6398
73.6004
75.5686
77.543
79.5221
81.5043
83.4881
85.4721
87.4548
89.435
91.4115
93.3836
95.3506
97.3125
99.2698
101.223
103.174
105.123
107.058
108.971
110.857
112.715
114.542
116.336
118.094
119.815
121.497
123.137
124.734
126.285
127.79
129.245
130.65
132.003
133.302
134.546
135.733
136.861
137.931
138.94
139.887
140.771
141.592
142.348
143.039
143.663
144.221
144.712
145.134
145.489
145.774
145.991
146.139
146.218
146.228
146.169
146.041
145.844
145.579
145.246
144.846
144.38
143.847
143.249
142.587
141.862
141.075
140.227
139.319
138.352
137.329
136.251
135.118
133.933
132.698
131.415
130.084
128.709
127.291
125.832
124.335
122.794
121.232
119.641
118.032
116.421
114.839
113.343
111.9
110.469
109.034
107.589
106.133
104.667
103.191
101.707
100.217
98.7223
97.2246
95.7256
94.227
92.7303
91.2371
89.749
88.2675
86.794
85.3298
83.8764
82.4348
81.0064
79.5922
78.1932
76.8103
75.4445
74.0966
72.7676
71.4591
70.1737
68.9177
67.7038
66.576
65.6568
65.5344
6.98363
3.29098
2.76783
2.75782
2.92315
3.19819
3.5625
4.00757
4.52719
5.11438
5.76089
6.45785
7.19671
7.96996
8.77169
9.59785
10.4462
11.3159
12.2072
13.1212
14.0593
15.0231
16.0143
17.0342
18.0839
19.1644
20.2761
21.4191
22.5933
23.7981
25.0331
26.2975
27.5907
28.9119
30.2606
31.6363
33.0384
34.4665
35.9201
37.3987
38.902
40.4294
41.9807
43.5553
45.1527
46.7726
48.4143
50.0772
51.7609
53.4644
55.1872
56.9283
58.6869
60.4621
62.2528
64.0579
65.8763
67.7068
69.5481
71.3988
73.2577
75.1233
76.9942
78.8691
80.7465
82.6251
84.5036
86.3809
88.256
90.1278
91.9956
93.8587
95.7165
97.5678
99.4078
101.23
103.031
104.807
106.555
108.273
109.96
111.612
113.228
114.806
116.344
117.84
119.292
120.698
122.057
123.368
124.627
125.835
126.989
128.089
129.132
130.119
131.047
131.916
132.724
133.472
134.157
134.78
135.34
135.836
136.267
136.634
136.936
137.173
137.345
137.451
137.491
137.467
137.377
137.222
137.002
136.718
136.371
135.96
135.487
134.952
134.356
133.7
132.985
132.212
131.382
130.497
129.558
128.566
127.522
126.429
125.288
124.1
122.868
121.591
120.275
118.918
117.524
116.1
114.644
113.163
111.658
110.137
108.608
107.089
105.601
104.135
102.677
101.217
99.7515
98.2793
96.801
95.3174
93.8298
92.3397
90.8485
89.3579
87.8693
86.3843
84.9043
83.4307
81.965
80.5085
79.0624
77.6281
76.2067
74.7993
73.4072
72.0313
70.6727
69.3325
68.0119
66.7122
65.4352
64.1838
62.9626
61.7812
60.6571
59.6343
58.8012
58.427
8.98913
4.28499
3.58077
3.49946
3.64013
3.90724
4.2684
4.70875
5.2183
5.78799
6.40872
7.07171
7.76923
8.49521
9.24549
10.0178
10.8115
11.6271
12.4659
13.3295
14.2196
15.1379
16.0857
17.0641
18.0737
19.1152
20.1885
21.2935
22.43
23.5976
24.7957
26.0238
27.2814
28.5681
29.8835
31.2271
32.5987
33.9978
35.4244
36.878
38.3584
39.8654
41.3986
42.9578
44.5427
46.1528
47.7878
49.4471
51.1303
52.8366
54.5654
56.3159
58.0873
59.8785
61.6886
63.5164
65.3607
67.2202
69.0936
70.9795
72.8764
74.7827
76.697
78.6175
80.5428
82.4713
84.4013
86.3313
88.2599
90.1856
92.1068
94.0222
95.9301
97.8272
99.7085
101.57
103.408
105.22
107.002
108.753
110.471
112.153
113.796
115.399
116.96
118.477
119.947
121.37
122.742
124.063
125.331
126.544
127.701
128.801
129.842
130.823
131.743
132.602
133.397
134.129
134.797
135.4
135.937
136.408
136.812
137.15
137.421
137.625
137.762
137.831
137.834
137.769
137.638
137.44
137.177
136.849
136.456
135.998
135.478
134.895
134.251
133.546
132.782
131.96
131.081
130.146
129.158
128.117
127.025
125.884
124.694
123.46
122.182
120.858
119.5
118.105
116.675
115.215
113.726
112.211
110.674
109.12
107.556
105.991
104.436
102.889
101.346
99.8017
98.2537
96.7019
95.1467
93.5891
92.0305
90.4722
88.9158
87.3628
85.8146
84.2728
82.7388
81.214
79.6997
78.1973
76.708
75.233
73.7735
72.3306
70.9054
69.4991
68.1127
66.7475
65.4048
64.0863
62.7944
61.5326
60.3067
59.1272
58.0124
57.0003
56.1524
55.5947
10.8521
5.20466
4.30205
4.15085
4.25818
4.50391
4.84583
5.26419
5.74665
6.28349
6.8661
7.48695
8.13986
8.82033
9.52563
10.2546
11.0072
11.7845
12.5878
13.4187
14.2788
15.1693
16.0914
17.0459
18.0333
19.054
20.1081
21.1956
22.3164
23.4703
24.657
25.8762
27.1278
28.4116
29.7273
31.0748
32.454
33.8648
35.3071
36.7807
38.2856
39.8216
41.3886
42.9864
44.6147
46.2732
47.9616
49.6793
51.4259
53.2007
55.003
56.8319
58.6865
60.5657
62.4683
64.3931
66.3388
68.3038
70.2866
72.2854
74.2987
76.3246
78.3612
80.4066
82.4588
84.516
86.576
88.637
90.6967
92.7533
94.8046
96.8486
98.883
100.902
102.903
104.88
106.832
108.754
110.644
112.5
114.319
116.098
117.835
119.528
121.174
122.772
124.319
125.813
127.252
128.635
129.96
131.226
132.43
133.572
134.65
135.663
136.61
137.489
138.301
139.044
139.718
140.321
140.854
141.316
141.707
142.026
142.274
142.45
142.555
142.588
142.549
142.44
142.26
142.01
141.691
141.303
140.846
140.323
139.733
139.078
138.358
137.576
136.732
135.827
134.864
133.844
132.767
131.637
130.455
129.222
127.937
126.611
125.241
123.828
122.379
120.893
119.373
117.822
116.243
114.638
113.012
111.367
109.71
108.047
106.384
104.722
103.061
101.399
99.7343
98.0678
96.4003
94.7328
93.0668
91.4039
89.7454
88.093
86.4483
84.8127
83.1877
81.5747
79.975
78.39
76.821
75.2691
73.7355
72.2214
70.728
69.2563
67.8076
66.3832
64.9847
63.614
62.2738
60.9682
59.7034
58.49
57.3454
56.3006
55.3974
54.6973
13.7714
6.19117
4.95633
4.69743
4.754
4.96671
5.27995
5.66845
6.11778
6.61792
7.16104
7.74088
8.35267
8.99313
9.66042
10.3539
11.0739
11.8214
12.5975
13.4037
14.2413
15.1114
16.015
16.9529
17.9257
18.9339
19.9778
21.0577
22.1737
23.3259
24.5145
25.7395
27.001
28.2992
29.6341
31.0059
32.4147
33.8605
35.3435
36.8638
38.4214
40.0162
41.6484
43.3177
45.024
46.767
48.5463
50.3614
52.2119
54.0969
56.0156
57.9671
59.9503
61.9639
64.0066
66.0768
68.1729
70.2932
72.4358
74.5986
76.7796
78.9767
81.1874
83.4096
85.6408
87.8785
90.1203
92.3635
94.6058
96.8443
99.0766
101.3
103.511
105.703
107.872
110.015
112.128
114.208
116.252
118.257
120.22
122.138
124.01
125.832
127.601
129.316
130.974
132.574
134.112
135.587
136.998
138.342
139.619
140.826
141.962
143.027
144.019
144.937
145.779
146.547
147.238
147.852
148.389
148.849
149.23
149.534
149.76
149.909
149.979
149.972
149.888
149.728
149.491
149.179
148.793
148.332
147.799
147.194
146.518
145.773
144.959
144.079
143.134
142.124
141.053
139.922
138.731
137.483
136.183
134.832
133.43
131.983
130.491
128.957
127.383
125.774
124.129
122.454
120.75
119.02
117.269
115.498
113.714
111.92
110.122
108.322
106.52
104.717
102.912
101.108
99.3047
97.5037
95.7067
93.9152
92.1309
90.3555
88.5905
86.8375
85.0979
83.3734
81.6651
79.9746
78.3031
76.6517
75.0218
73.4146
71.8311
70.2727
68.7406
67.2362
65.7613
64.3181
62.9095
61.5397
60.2153
58.9464
57.7485
56.6465
55.6678
54.8441
16.5533
7.06607
5.49283
5.11861
5.11797
5.29272
5.57389
5.93086
6.34714
6.81237
7.3193
7.86264
8.4386
9.04475
9.67979
10.3434
11.0359
11.7582
12.5114
13.2967
14.1153
14.9684
15.857
16.7819
17.7442
18.7444
19.7832
20.8613
21.9791
23.1372
24.3362
25.5764
26.8584
28.1826
29.5494
30.9593
32.4127
33.91
35.4514
37.0372
38.6677
40.3431
42.0633
43.8284
45.6382
47.4924
49.3908
51.3327
53.3174
55.3443
57.4122
59.52
61.6665
63.85
66.069
68.3216
70.6058
72.9195
75.2604
77.6261
80.014
82.4216
84.846
87.2844
89.7339
92.1915
94.6541
97.1186
99.582
102.041
104.492
106.933
109.357
111.757
114.131
116.474
118.783
121.053
123.283
125.468
127.605
129.692
131.725
133.701
135.619
137.474
139.266
140.991
142.647
144.233
145.746
147.185
148.548
149.834
151.041
152.168
153.213
154.177
155.058
155.855
156.568
157.196
157.739
158.197
158.569
158.856
159.058
159.174
159.206
159.153
159.016
158.797
158.494
158.11
157.645
157.101
156.478
155.778
155.001
154.15
153.226
152.232
151.167
150.032
148.835
147.574
146.252
144.871
143.434
141.944
140.401
138.811
137.174
135.495
133.774
132.017
130.224
128.399
126.546
124.667
122.765
120.844
118.908
116.962
115.008
113.051
111.091
109.13
107.169
105.21
103.253
101.302
99.3568
97.4199
95.4929
93.5775
91.6756
89.7886
87.9181
86.0658
84.2329
82.421
80.6313
78.8651
77.1236
75.4082
73.72
72.0603
70.4305
68.8321
67.267
65.7375
64.2467
62.7991
61.401
60.0618
58.7949
57.6199
56.5543
55.6151
19.0036
7.78614
5.89856
5.4135
5.35572
5.49198
5.7413
6.06816
6.4541
6.88826
7.36365
7.87555
8.42083
8.99757
9.60484
10.2425
10.9109
11.611
12.3437
13.1103
13.9121
14.7503
15.6261
16.5408
17.4954
18.491
19.5288
20.6097
21.7348
22.905
24.1212
25.3845
26.6956
28.0555
29.465
30.9248
32.4357
33.9983
35.6133
37.281
39.002
40.7766
42.6048
44.4868
46.4224
48.4114
50.4533
52.5475
54.6933
56.8895
59.135
61.4285
63.7681
66.1523
68.5788
71.0454
73.5498
76.0894
78.6612
81.2625
83.8902
86.541
89.2116
91.8987
94.5987
97.3081
100.023
102.74
105.456
108.166
110.866
113.553
116.217
118.854
121.458
124.027
126.555
129.04
131.477
133.862
136.193
138.467
140.679
142.826
144.907
146.917
148.855
150.717
152.503
154.208
155.833
157.373
158.829
160.199
161.481
162.673
163.776
164.787
165.706
166.533
167.266
167.906
168.452
168.904
169.262
169.527
169.698
169.776
169.761
169.654
169.456
169.167
168.789
168.321
167.766
167.126
166.401
165.592
164.7
163.729
162.68
161.557
160.359
159.088
157.749
156.344
154.874
153.342
151.751
150.103
148.402
146.651
144.852
143.008
141.122
139.198
137.238
135.245
133.224
131.176
129.106
127.016
124.911
122.795
120.671
118.541
116.41
114.278
112.148
110.021
107.899
105.784
103.678
101.583
99.5011
97.4336
95.3825
93.3496
91.3364
89.3446
87.3756
85.4309
83.5119
81.6199
79.7561
77.9219
76.1185
74.3472
72.6097
70.9073
69.2422
67.6168
66.0342
64.4989
63.0169
61.5968
60.2499
58.9914
57.8318
56.7812
21.0438
8.34441
6.17982
5.59402
5.48249
5.58199
5.80126
6.10048
6.4594
6.86651
7.31479
7.79981
8.3188
8.87017
9.45323
10.068
10.715
11.3951
12.1095
12.8595
13.6465
14.4721
15.3377
16.2449
17.1953
18.1903
19.2316
20.3206
21.4589
22.648
23.8892
25.184
26.5338
27.9399
29.4035
30.9257
32.5078
34.1506
35.8549
37.6216
39.4513
41.3443
43.301
45.3213
47.4053
49.5526
51.7626
54.0345
56.3674
58.7599
61.2106
63.7177
66.2791
68.8927
71.5559
74.266
77.0199
79.8146
82.6467
85.5126
88.4086
91.3309
94.2757
97.2389
100.216
103.204
106.197
109.192
112.184
115.169
118.143
121.095
124.02
126.911
129.764
132.575
135.338
138.051
140.709
143.308
145.843
148.313
150.713
153.039
155.289
157.46
159.548
161.552
163.469
165.296
167.032
168.675
170.224
171.676
173.03
174.286
175.441
176.496
177.448
178.299
179.046
179.691
180.233
180.672
181.008
181.241
181.372
181.402
181.33
181.158
180.887
180.518
180.051
179.488
178.831
178.081
177.241
176.311
175.293
174.19
173.005
171.738
170.394
168.972
167.478
165.913
164.281
162.583
160.823
159.005
157.13
155.203
153.226
151.203
149.137
147.031
144.889
142.714
140.51
138.279
136.026
133.754
131.466
129.167
126.86
124.549
122.235
119.923
117.613
115.309
113.012
110.724
108.448
106.186
103.94
101.712
99.5027
97.3153
95.151
93.0114
90.8983
88.8129
86.7567
84.7312
82.7375
80.7771
78.8513
76.9615
75.1091
73.2959
71.5239
69.7956
68.1143
66.4842
64.911
63.4024
61.9676
60.6184
59.3606
58.2008
22.6372
8.74694
6.35081
5.67772
5.51772
5.58329
5.7748
6.04894
6.38386
6.76739
7.19232
7.65428
8.15069
8.68017
9.24225
9.8371
10.4654
11.1283
11.827
12.5632
13.3386
14.155
15.0144
15.9187
16.8701
17.8705
18.922
20.0267
21.1868
22.4041
23.6807
25.0186
26.4196
27.8855
29.418
31.0187
32.689
34.4302
36.2435
38.1297
40.0897
42.124
44.2328
46.4163
48.6742
51.0061
53.4112
55.8885
58.4365
61.0538
63.7384
66.488
69.3001
72.1719
75.1004
78.0821
81.1135
84.1907
87.3096
90.4659
93.6554
96.8736
100.116
103.377
106.654
109.94
113.231
116.523
119.809
123.086
126.347
129.578
132.774
135.93
139.04
142.101
145.106
148.052
150.934
153.748
156.491
159.157
161.744
164.248
166.666
168.993
171.228
173.369
175.411
177.354
179.195
180.933
182.566
184.092
185.51
186.819
188.018
189.106
190.082
190.945
191.696
192.334
192.86
193.273
193.575
193.765
193.844
193.812
193.671
193.421
193.064
192.602
192.034
191.364
190.592
189.722
188.754
187.69
186.533
185.286
183.95
182.528
181.024
179.439
177.776
176.039
174.231
172.355
170.414
168.411
166.35
164.235
162.068
159.854
157.596
155.297
152.961
150.593
148.194
145.77
143.324
140.859
138.379
135.888
133.389
130.887
128.384
125.884
123.388
120.9
118.421
115.955
113.503
111.067
108.651
106.256
103.884
101.536
99.2155
96.923
94.6604
92.4292
90.231
88.0671
85.9388
83.8475
81.7946
79.7816
77.8099
75.8813
73.998
72.1624
70.3776
68.6479
66.9784
65.3758
63.8479
62.4033
61.045
59.778
23.7717
9.00524
6.42812
5.68338
5.48143
5.51652
5.68278
5.93423
6.24777
6.61065
7.01545
7.45776
7.93509
8.44623
8.99089
9.56946
10.1829
10.8325
11.52
12.2473
13.0165
13.8299
14.6901
15.5994
16.5605
17.5762
18.6489
19.7815
20.9766
22.2369
23.5648
24.9629
26.4337
27.9793
29.6019
31.3035
33.0858
34.9505
36.8987
38.9318
41.0504
43.255
45.546
47.9232
50.3863
52.9343
55.5663
58.2808
61.0759
63.9496
66.8992
69.922
73.0148
76.1741
79.3961
82.6768
86.0118
89.3964
92.8258
96.2947
99.7983
103.331
106.889
110.465
114.055
117.653
121.254
124.853
128.444
132.022
135.571
139.083
142.551
145.971
149.336
152.642
155.884
159.057
162.157
165.178
168.117
170.971
173.735
176.405
178.977
181.449
183.817
186.079
188.233
190.277
192.208
194.025
195.726
197.31
198.776
200.122
201.35
202.455
203.437
204.298
205.035
205.651
206.145
206.517
206.768
206.899
206.91
206.803
206.578
206.236
205.78
205.21
204.528
203.737
202.837
201.832
200.723
199.513
198.204
196.799
195.301
193.712
192.036
190.275
188.432
186.512
184.518
182.452
180.319
178.121
175.864
173.551
171.185
168.77
166.31
163.81
161.272
158.701
156.101
153.476
150.828
148.164
145.485
142.796
140.101
137.403
134.706
132.013
129.327
126.651
123.987
121.339
118.708
116.096
113.507
110.942
108.404
105.893
103.414
100.965
98.551
96.1717
93.829
91.5244
89.2592
87.0348
84.8526
82.7141
80.6208
78.5746
76.5775
74.632
72.7412
70.909
69.1401
67.4402
65.8158
64.2734
62.8137
61.4415
24.4501
9.13258
6.42799
5.6287
5.3923
5.40098
5.5448
5.77605
6.07082
6.41599
6.80396
7.23035
7.69276
8.19014
8.72245
9.29035
9.89512
10.5385
11.2225
11.9497
12.7226
13.5441
14.4173
15.3454
16.3316
17.3792
18.4917
19.6723
20.9243
22.251
23.6555
25.1408
26.7098
28.3652
30.1096
31.9453
33.8741
35.8978
38.0179
40.2354
42.5509
44.9649
47.4773
50.0875
52.7949
55.598
58.4952
61.4844
64.5632
67.7285
70.9772
74.3057
77.7098
81.1853
84.7278
88.3322
91.9937
95.7067
99.4648
103.262
107.093
110.953
114.834
118.732
122.64
126.553
130.466
134.371
138.265
142.134
145.962
149.743
153.47
157.139
160.744
164.278
167.738
171.118
174.414
177.621
180.735
183.753
186.671
189.484
192.187
194.778
197.255
199.615
201.855
203.975
205.972
207.844
209.59
211.208
212.698
214.058
215.289
216.388
217.356
218.192
218.896
219.47
219.912
220.224
220.407
220.46
220.386
220.186
219.86
219.41
218.838
218.145
217.334
216.407
215.365
214.212
212.949
211.579
210.105
208.53
206.858
205.09
203.231
201.283
199.251
197.138
194.947
192.683
190.349
187.95
185.489
182.97
180.397
177.775
175.108
172.4
169.655
166.877
164.07
161.239
158.387
155.519
152.638
149.748
146.854
143.959
141.066
138.18
135.303
132.438
129.589
126.757
123.946
121.159
118.396
115.662
112.957
110.284
107.645
105.042
102.476
99.9486
97.4616
95.0164
92.6144
90.257
87.9456
85.6816
83.4666
81.3025
79.1912
77.1353
75.1376
73.2018
71.3322
69.5337
67.8115
66.1704
64.61
63.1351
24.6825
9.14192
6.36508
5.52942
5.267
5.2542
5.37918
5.59348
5.87293
6.20429
6.58004
6.99592
7.44974
7.94073
8.46918
9.03615
9.64334
10.293
10.9878
11.7307
12.5251
13.3745
14.2828
15.2537
16.2914
17.3999
18.5833
19.8457
21.1909
22.6225
24.1442
25.7594
27.4714
29.2833
31.1977
33.217
35.3431
37.5776
39.9218
42.3763
44.9413
47.6167
50.4019
53.2956
56.2963
59.4018
62.6096
65.9167
69.3196
72.8145
76.3972
80.0629
83.8069
87.6238
91.5082
95.4547
99.4576
103.512
107.607
111.738
115.898
120.081
124.282
128.494
132.711
136.927
141.136
145.333
149.509
153.639
157.717
161.736
165.691
169.577
173.386
177.114
180.756
184.307
187.762
191.118
194.368
197.511
200.543
203.458
206.255
208.929
211.478
213.9
216.193
218.355
220.384
222.278
224.037
225.658
227.142
228.487
229.692
230.758
231.684
232.469
233.115
233.621
233.988
234.217
234.308
234.264
234.084
233.77
233.324
232.748
232.042
231.21
230.254
229.175
227.976
226.66
225.229
223.687
222.036
220.28
218.422
216.466
214.414
212.271
210.041
207.727
205.333
202.864
200.323
197.716
195.045
192.316
189.534
186.701
183.824
180.905
177.95
174.963
171.949
168.911
165.853
162.781
159.698
156.608
153.516
150.424
147.338
144.26
141.194
138.144
135.111
132.1
129.112
126.15
123.218
120.317
117.449
114.616
111.821
109.065
106.35
103.678
101.049
98.4663
95.93
93.442
91.0036
88.6162
86.2815
84.0013
81.7774
79.6124
77.509
75.4705
73.5007
71.6039
69.7842
68.0455
66.3863
64.8119
24.4841
9.04483
6.25182
5.39909
5.12042
5.09255
5.20397
5.40656
5.67644
6.00075
6.3723
6.78723
7.24382
7.7418
8.28202
8.86612
9.49634
10.1756
10.9073
11.6953
12.5437
13.4569
14.4394
15.496
16.6315
17.8508
19.1588
20.5605
22.0601
23.6601
25.365
27.1786
29.1042
31.1447
33.3025
35.5796
37.9775
40.497
43.1386
45.9021
48.7868
51.7915
54.9145
58.1534
61.5054
64.9673
68.5353
72.2051
75.9722
79.8316
83.7778
87.8053
91.9081
96.08
100.315
104.606
108.947
113.331
117.75
122.197
126.666
131.151
135.645
140.141
144.634
149.119
153.589
158.038
162.437
166.777
171.053
175.258
179.387
183.433
187.392
191.259
195.027
198.693
202.252
205.701
209.034
212.249
215.342
218.309
221.147
223.854
226.428
228.865
231.163
233.322
235.339
237.214
238.944
240.528
241.967
243.26
244.405
245.403
246.253
246.956
247.512
247.922
248.186
248.305
248.28
248.112
247.803
247.354
246.767
246.044
245.187
244.197
243.078
241.832
240.461
238.969
237.358
235.631
233.792
231.845
229.792
227.638
225.386
223.041
220.606
218.086
215.484
212.806
210.056
207.238
204.356
201.416
198.422
195.379
192.291
189.163
186
182.806
179.586
176.343
173.084
169.811
166.53
163.244
159.958
156.675
153.4
150.136
146.887
143.656
140.446
137.26
134.102
130.973
127.876
124.814
121.789
118.803
115.857
112.954
110.096
107.284
104.519
101.803
99.1376
96.5237
93.9629
91.4565
89.0062
86.6137
84.2809
82.01
79.8037
77.6651
75.5975
73.6046
71.6896
69.8557
68.1009
66.4311
23.8357
8.84352
6.09466
5.24596
4.96267
4.92864
5.03509
5.23542
5.50685
5.83742
6.22083
6.65408
7.13636
7.66839
8.25224
8.89059
9.58564
10.3416
11.1629
12.0545
13.0215
14.0691
15.2027
16.4279
17.7499
19.1741
20.7055
22.3489
24.1084
25.9877
27.9901
30.1187
32.3759
34.7635
37.2828
39.9344
42.7184
45.6341
48.6803
51.8551
55.1564
58.581
62.1256
65.7863
69.5586
73.4378
77.4187
81.4958
85.6631
89.9147
94.2441
98.6448
103.11
107.633
112.207
116.825
121.479
126.164
130.871
135.594
140.326
145.062
149.795
154.52
159.231
163.923
168.589
173.195
177.735
182.203
186.594
190.901
195.12
199.244
203.27
207.191
211.005
214.706
218.29
221.753
225.093
228.305
231.387
234.334
237.146
239.818
242.349
244.737
246.98
249.075
251.023
252.821
254.468
255.964
257.308
258.499
259.537
260.422
261.154
261.734
262.161
262.436
262.56
262.534
262.36
262.037
261.569
260.956
260.201
259.305
258.271
257.101
255.798
254.363
252.801
251.115
249.306
247.379
245.338
243.186
240.926
238.563
236.101
233.544
230.896
228.163
225.347
222.454
219.489
216.457
213.361
210.208
207.001
203.746
200.448
197.111
193.741
190.341
186.917
183.474
180.015
176.546
173.07
169.593
166.118
162.649
159.191
155.747
152.32
148.915
145.534
142.181
138.858
135.568
132.314
129.098
125.922
122.789
119.7
116.657
113.662
110.716
107.821
104.978
102.189
99.455
96.7772
94.157
91.5961
89.096
86.6585
84.2859
81.9806
79.7453
77.583
75.497
73.4898
71.564
69.7174
67.9566
22.916
8.64514
5.9467
5.1099
4.83294
4.8062
4.92402
5.14193
5.43895
5.80477
6.23471
6.72736
7.28346
7.90528
8.59616
9.36023
10.202
11.1268
12.1402
13.248
14.4562
15.7706
17.197
18.7406
20.4065
22.1993
24.123
26.1809
28.3756
30.7091
33.1827
35.7968
38.5516
41.4461
44.479
47.6482
50.9512
54.3847
57.945
61.628
65.4292
69.3436
73.3659
77.4906
81.7119
86.0238
90.4199
94.894
99.4395
104.05
108.718
113.438
118.203
123.005
127.839
132.697
137.574
142.462
147.356
152.249
157.136
162.012
166.872
171.712
176.527
181.303
186.009
190.641
195.195
199.664
204.044
208.33
212.518
216.602
220.579
224.444
228.193
231.823
235.329
238.709
241.958
245.075
248.056
250.899
253.6
256.159
258.571
260.837
262.954
264.92
266.734
268.395
269.902
271.254
272.451
273.492
274.377
275.106
275.678
276.095
276.357
276.463
276.416
276.216
275.864
275.362
274.711
273.913
272.97
271.884
270.658
269.293
267.793
266.16
264.398
262.509
260.497
258.365
256.118
253.759
251.291
248.72
246.049
243.283
240.427
237.484
234.46
231.36
228.188
224.949
221.649
218.292
214.884
211.428
207.932
204.398
200.834
197.242
193.628
189.998
186.354
182.703
179.048
175.395
171.746
168.107
164.481
160.872
157.284
153.721
150.184
146.679
143.207
139.771
136.374
133.018
129.706
126.439
123.22
120.05
116.931
113.864
110.851
107.894
104.992
102.149
99.3649
96.641
93.979
91.3804
88.8469
86.3807
83.9839
81.659
79.4088
77.236
75.1428
73.1314
71.1994
69.3543
21.8096
8.40139
5.80695
5.00552
4.75571
4.76015
4.91839
5.18951
5.55557
6.00925
6.54877
7.17563
7.89338
8.70695
9.6221
10.645
11.7822
13.0399
14.4243
15.9412
17.5957
19.3921
21.3341
23.4242
25.6642
28.055
30.5964
33.2874
36.1264
39.1107
42.2372
45.5021
48.9012
52.43
56.0833
59.856
63.7427
67.7375
71.8349
76.0289
80.3137
84.6832
89.1314
93.6525
98.2404
102.889
107.593
112.346
117.141
121.975
126.839
131.73
136.64
141.565
146.499
151.437
156.373
161.302
166.221
171.123
176.006
180.866
185.698
190.504
195.254
199.929
204.525
209.038
213.463
217.798
222.036
226.175
230.21
234.138
237.954
241.656
245.238
248.699
252.034
255.241
258.317
261.259
264.063
266.729
269.253
271.633
273.868
275.955
277.892