/*--------------------------------*- C++ -*----------------------------------*\
| =========                 |                                                 |
| \\      /  F ield         | OpenFOAM: The Open Source CFD Toolbox           |
|  \\    /   O peration     | Version:  2412                                  |
|   \\  /    A nd           | Website:  www.openfoam.com                      |
|    \\/     M anipulation  |                                                 |
\*---------------------------------------------------------------------------*/
FoamFile
{
    version     2.0;
    format      ascii;
    arch        "LSB;label=32;scalar=64";
    class       volScalarField;
    location    "0.25";
    object      k;
}
// * * * * * * * * * * * * * * * * * * * * * * * * * * * * * * * * * * * * * //

dimensions      [0 2 -2 0 0 0 0];

internalField   nonuniform List<scalar> 
12225
(
0.316793
0.394494
0.477907
0.542616
0.593833
0.63438
0.666734
0.69279
0.713892
0.731055
0.745059
0.756498
0.765823
0.773375
0.779411
0.784065
0.787452
0.790417
0.569139
0.788915
0.952583
1.068
1.1512
1.2127
1.25818
1.29171
1.31632
1.33413
1.34672
1.35527
1.36068
1.36365
1.36475
1.3643
1.36353
1.36145
0.670061
0.972154
1.18323
1.33202
1.43945
1.51861
1.57693
1.61969
1.65078
1.67303
1.68851
1.6988
1.70509
1.70832
1.70924
1.70845
1.70696
1.70494
0.722108
1.07674
1.32651
1.50447
1.63403
1.72972
1.80042
1.85243
1.89038
1.91767
1.93679
1.94967
1.95776
1.9622
1.96394
1.96375
1.96264
1.96117
0.74277
1.1292
1.41224
1.61818
1.77022
1.88337
1.96762
2.03016
2.07624
2.10979
2.13375
2.15033
2.16127
2.16791
2.17137
2.1726
2.17261
2.17208
0.739913
1.13776
1.44637
1.67819
1.85303
1.98504
2.08466
2.15963
2.21576
2.2574
2.28789
2.30975
2.32498
2.33514
2.34152
2.34521
2.34721
2.34818
0.719619
1.1088
1.43132
1.68401
1.88027
2.03176
2.14826
2.23764
2.30592
2.35778
2.39684
2.42592
2.44723
2.46256
2.47336
2.48081
2.48593
2.48929
0.68764
1.05045
1.37182
1.63646
1.84971
2.01922
2.1529
2.25789
2.34005
2.40409
2.45377
2.49209
2.52145
2.54379
2.56069
2.57344
2.58304
2.58997
0.648984
0.972373
1.2766
1.54078
1.76291
1.94589
2.09468
2.21482
2.31141
2.3888
2.45062
2.49988
2.53905
2.57016
2.59488
2.61453
2.63011
2.64197
0.607482
0.884082
1.15746
1.40738
1.62721
1.81569
1.97442
2.1067
2.21622
2.30653
2.38079
2.44178
2.49185
2.53299
2.56686
2.59479
2.61771
2.63582
0.565817
0.793314
1.02683
1.25028
1.45563
1.63912
1.7996
1.938
2.05627
2.15675
2.24183
2.31373
2.37448
2.42586
2.46939
2.5063
2.53745
2.56278
0.528744
0.712088
0.90517
1.09645
1.27865
1.44746
1.6004
1.73669
1.85679
1.96183
2.05324
2.13256
2.20132
2.26092
2.31263
2.3575
2.39619
2.42836
0.49465
0.637266
0.790573
0.946974
1.10074
1.248
1.38597
1.51298
1.6284
1.73232
1.82527
1.90805
1.98158
2.04682
2.10467
2.15592
2.201
2.23925
0.460673
0.56214
0.673137
0.789666
0.907884
1.02492
1.13843
1.24664
1.34837
1.443
1.53034
1.61045
1.68363
1.75028
1.81087
1.86579
1.91519
1.95809
0.429343
0.492744
0.562792
0.638281
0.717337
0.798297
0.879664
0.960086
1.03846
1.11399
1.1861
1.25446
1.31889
1.37933
1.43582
1.48841
1.53695
1.58024
0.403167
0.435381
0.470972
0.510046
0.552179
0.596841
0.643456
0.69138
0.739969
0.788642
0.836904
0.884347
0.930644
0.975541
1.01885
1.06038
1.09988
1.13624
0.384082
0.394607
0.406479
0.419889
0.43484
0.451292
0.469183
0.488402
0.50879
0.530161
0.552323
0.575079
0.598236
0.621587
0.644946
0.668154
0.691004
0.712956
0.374047
0.373709
0.374088
0.375205
0.377035
0.379557
0.382759
0.386626
0.391136
0.39626
0.401962
0.408205
0.414944
0.422151
0.429787
0.437794
0.446104
0.454608
0.376607
0.378925
0.38199
0.385853
0.390486
0.395855
0.401924
0.408649
0.415972
0.423824
0.432137
0.44084
0.44986
0.459131
0.468587
0.478167
0.487796
0.497255
0.394948
0.417782
0.44296
0.470561
0.500304
0.531826
0.564739
0.598611
0.632993
0.667467
0.701668
0.735285
0.768065
0.79981
0.830372
0.859642
0.887496
0.91353
0.427772
0.489069
0.556235
0.628022
0.702591
0.778302
0.85372
0.927589
0.998898
1.06692
1.13118
1.19141
1.24749
1.29943
1.34733
1.39134
1.43162
1.4682
0.475742
0.594977
0.723616
0.855989
0.98721
1.11395
1.23384
1.34526
1.44738
1.54
1.62333
1.69781
1.76406
1.82277
1.87463
1.92034
1.96051
1.99565
0.536848
0.728699
0.928633
1.12374
1.30644
1.47306
1.62185
1.75259
1.86614
1.96397
2.04774
2.11914
2.17976
2.23107
2.27436
2.31077
2.34128
2.36673
0.604143
0.873972
1.14017
1.3824
1.59449
1.77607
1.92885
2.05587
2.16066
2.24663
2.31682
2.37385
2.41996
2.45701
2.48656
2.50991
2.52811
2.54212
0.668316
1.00767
1.31643
1.57533
1.78711
1.95803
2.09449
2.20267
2.28802
2.355
2.40722
2.44758
2.47841
2.50158
2.51858
2.5306
2.53862
2.54351
0.717304
1.0992
1.41419
1.65889
1.84812
1.99399
2.10592
2.19146
2.2565
2.30558
2.34217
2.36896
2.38806
2.40109
2.40934
2.41381
2.41532
2.41459
0.735719
1.11862
1.40734
1.61983
1.77772
1.89573
1.98395
2.04967
2.09826
2.13377
2.15921
2.17688
2.18852
2.19548
2.19879
2.19926
2.19754
2.19421
0.7082
1.04716
1.29075
1.46557
1.59175
1.68427
1.75245
1.80244
1.83877
1.86478
1.88294
1.89507
1.90255
1.90645
1.90759
1.90658
1.90394
1.90013
0.616922
0.862574
1.0489
1.18265
1.27674
1.3449
1.39483
1.43126
1.45766
1.47655
1.48973
1.49854
1.50398
1.50683
1.50766
1.50696
1.50507
1.50238
0.33327
0.408788
0.496175
0.56409
0.616602
0.657436
0.689395
0.714702
0.734935
0.751222
0.764409
0.775143
0.783917
0.791115
0.797034
0.801915
0.805932
0.809263
0.00677083
0.0109149
0.0141184
0.016665
0.0186487
0.0202688
0.0219712
0.0238522
0.0258299
0.0279137
0.030141
0.0326035
0.0356062
0.0392736
0.0433167
0.0476839
0.0523621
0.057357
0.0626748
0.068315
0.074269
0.0805219
0.0870543
0.0938449
0.100873
0.108122
0.115579
0.123238
0.131106
0.1392
0.147553
0.15611
0.16478
0.173546
0.182393
0.191313
0.200296
0.209333
0.218418
0.227545
0.236708
0.245904
0.255127
0.264373
0.273637
0.282917
0.292208
0.301505
0.310804
0.3201
0.329388
0.338663
0.347919
0.357152
0.366355
0.375522
0.384646
0.393723
0.402744
0.411704
0.420596
0.429413
0.438148
0.446795
0.455348
0.463799
0.472142
0.480371
0.488481
0.496467
0.504326
0.512061
0.519677
0.527193
0.534643
0.541973
0.549115
0.556077
0.562859
0.56946
0.575876
0.582103
0.588136
0.59397
0.599601
0.605025
0.610236
0.615233
0.620011
0.624566
0.628895
0.632997
0.636867
0.640503
0.643904
0.647067
0.64999
0.652672
0.655111
0.657306
0.659256
0.660961
0.662419
0.66363
0.664595
0.665312
0.665782
0.666005
0.665982
0.665713
0.6652
0.664443
0.663444
0.662204
0.660724
0.659008
0.657056
0.654871
0.652457
0.649814
0.646948
0.643861
0.640556
0.637037
0.633309
0.629376
0.625241
0.620911
0.61639
0.611683
0.606795
0.601734
0.596503
0.59111
0.585561
0.579862
0.574021
0.568045
0.561935
0.555716
0.549374
0.542949
0.53649
0.530301
0.52605
0.522454
0.51882
0.5151
0.511293
0.507403
0.503435
0.499394
0.495287
0.491118
0.486893
0.482617
0.478297
0.473939
0.469547
0.465127
0.460686
0.456227
0.451757
0.44728
0.442801
0.438323
0.433851
0.429386
0.42493
0.420482
0.416038
0.411589
0.407121
0.402606
0.397997
0.393199
0.388009
0.381906
0.374001
0.363343
0.0144756
0.0227849
0.0303605
0.036577
0.0422176
0.0478758
0.0535062
0.0593048
0.0653956
0.0719242
0.0789205
0.0863614
0.0942133
0.102428
0.110947
0.11974
0.128799
0.13813
0.147744
0.157655
0.167876
0.17842
0.189299
0.200522
0.212096
0.224027
0.236315
0.248958
0.261949
0.275279
0.28893
0.302883
0.317116
0.331614
0.34636
0.36134
0.376539
0.391943
0.40754
0.423317
0.439263
0.455369
0.471623
0.488018
0.504544
0.521193
0.537956
0.554825
0.571791
0.588845
0.605978
0.623181
0.640443
0.657754
0.675103
0.69248
0.709872
0.727269
0.744656
0.762023
0.779356
0.796642
0.81387
0.831024
0.848094
0.865064
0.881924
0.898659
0.915258
0.931707
0.947994
0.964107
0.980033
0.995759
1.0112
1.02628
1.0411
1.05565
1.06994
1.08396
1.09769
1.11114
1.12427
1.1371
1.1496
1.16177
1.17359
1.18506
1.19617
1.20691
1.21727
1.22724
1.23683
1.24601
1.25479
1.26316
1.2711
1.27863
1.28573
1.29239
1.29862
1.30441
1.30975
1.31464
1.31909
1.32308
1.32662
1.3297
1.33232
1.33448
1.33618
1.33742
1.33819
1.33851
1.33836
1.33776
1.33669
1.33517
1.3332
1.33077
1.32789
1.32457
1.32081
1.31661
1.31199
1.30693
1.30146
1.29557
1.28928
1.28259
1.27551
1.26805
1.26021
1.25202
1.24347
1.23458
1.22535
1.21581
1.20595
1.19582
1.18536
1.17467
1.16382
1.15286
1.14205
1.13121
1.12021
1.10903
1.09769
1.08619
1.07454
1.06277
1.05088
1.03888
1.0268
1.01464
1.00241
0.990139
0.977825
0.965485
0.953131
0.940773
0.928425
0.916095
0.903795
0.891534
0.879321
0.867163
0.855067
0.843037
0.831074
0.819177
0.807339
0.795545
0.783769
0.771972
0.760051
0.747888
0.733989
0.718736
0.0214628
0.0362959
0.0477423
0.0567182
0.0648596
0.0724694
0.0800309
0.0878618
0.0961331
0.104915
0.114198
0.123927
0.134038
0.144474
0.155199
0.166204
0.177504
0.189129
0.201118
0.213511
0.226347
0.239658
0.253468
0.267792
0.282636
0.297996
0.31386
0.330209
0.347018
0.364259
0.3819
0.399909
0.418258
0.436918
0.455864
0.475074
0.494526
0.514203
0.534087
0.554164
0.574422
0.594848
0.615433
0.636168
0.657042
0.678048
0.699176
0.720419
0.741766
0.763209
0.784737
0.80634
0.828007
0.849727
0.871486
0.893273
0.915073
0.936874
0.95866
0.980418
1.00213
1.02378
1.04536
1.06685
1.08823
1.10949
1.13061
1.15158
1.17238
1.193
1.21343
1.23364
1.25364
1.2734
1.29282
1.31193
1.33073
1.3492
1.36735
1.38515
1.40259
1.41966
1.43635
1.45263
1.46851
1.48396
1.49897
1.51353
1.52764
1.54127
1.55442
1.56707
1.57923
1.59087
1.602
1.6126
1.62267
1.6322
1.64118
1.6496
1.65747
1.66478
1.67152
1.67769
1.68328
1.68829
1.69273
1.69658
1.69984
1.70252
1.70461
1.70612
1.70703
1.70736
1.7071
1.70625
1.70482
1.70281
1.70022
1.69706
1.69332
1.68902
1.68416
1.67875
1.67278
1.66628
1.65925
1.65169
1.64361
1.63503
1.62596
1.6164
1.60637
1.59587
1.58494
1.57356
1.56177
1.54958
1.53695
1.52403
1.51077
1.4972
1.48338
1.46935
1.45524
1.441
1.42655
1.41188
1.39701
1.38195
1.36672
1.35133
1.33579
1.32013
1.30436
1.28851
1.27257
1.25658
1.24055
1.22449
1.20841
1.19234
1.17629
1.16026
1.14428
1.12836
1.11251
1.09674
1.08105
1.06547
1.04999
1.03462
1.01936
1.00421
0.989175
0.974252
0.95943
0.944749
0.929759
0.914222
0.0276691
0.0505458
0.0653002
0.0765155
0.0860832
0.0950429
0.103929
0.113055
0.122598
0.132628
0.143145
0.154111
0.165479
0.177214
0.189305
0.201763
0.214621
0.227924
0.241717
0.256046
0.270946
0.286443
0.302551
0.319271
0.336594
0.354502
0.372969
0.391965
0.411456
0.431405
0.451778
0.472541
0.493664
0.515117
0.536877
0.55892
0.581227
0.603781
0.626568
0.649572
0.672784
0.696193
0.719789
0.743562
0.767505
0.791609
0.815864
0.840261
0.864791
0.889443
0.914206
0.939068
0.964017
0.98904
1.01412
1.03925
1.0644
1.08957
1.11474
1.13988
1.16498
1.19003
1.215
1.23987
1.26463
1.28926
1.31374
1.33806
1.36218
1.38611
1.40981
1.43328
1.4565
1.47943
1.50201
1.52424
1.54611
1.56761
1.58873
1.60944
1.62973
1.64958
1.66898
1.68791
1.70636
1.72431
1.74174
1.75864
1.775
1.7908
1.80604
1.82069
1.83476
1.84823
1.86108
1.87332
1.88493
1.89591
1.90624
1.91592
1.92495
1.93332
1.94102
1.94805
1.95441
1.96009
1.96509
1.96941
1.97304
1.97599
1.97825
1.97982
1.98071
1.98091
1.98042
1.97925
1.9774
1.97488
1.97168
1.96782
1.96329
1.9581
1.95226
1.94578
1.93866
1.93092
1.92256
1.91359
1.90403
1.89388
1.88316
1.87188
1.86005
1.84769
1.83482
1.82144
1.80758
1.79329
1.77856
1.76345
1.74795
1.7321
1.71594
1.69951
1.68289
1.66606
1.64899
1.63169
1.61416
1.59641
1.57848
1.56036
1.54209
1.52368
1.50515
1.48653
1.46782
1.44906
1.43025
1.41141
1.39257
1.37374
1.35494
1.33618
1.31748
1.29885
1.28031
1.26187
1.24355
1.22536
1.20731
1.18941
1.17168
1.15413
1.13678
1.11968
1.10288
1.08651
1.07052
1.05488
0.0327409
0.0637132
0.0815014
0.0943592
0.105248
0.115313
0.125153
0.135122
0.145425
0.156166
0.167379
0.179064
0.191206
0.203799
0.216851
0.230387
0.244443
0.259061
0.27428
0.290134
0.306646
0.323829
0.341683
0.360198
0.379356
0.399131
0.419493
0.44041
0.461845
0.483767
0.50614
0.528936
0.552124
0.575681
0.599582
0.623809
0.648343
0.67317
0.698274
0.723643
0.749268
0.775137
0.80124
0.827569
0.854113
0.880864
0.907811
0.934944
0.962252
0.989722
1.01734
1.0451
1.07298
1.10096
1.12903
1.15718
1.18537
1.21361
1.24185
1.27009
1.2983
1.32647
1.35456
1.38256
1.41044
1.43819
1.46578
1.49318
1.52039
1.54737
1.57411
1.60059
1.62678
1.65262
1.67809
1.70317
1.72784
1.75209
1.7759
1.79925
1.82212
1.84449
1.86634
1.88765
1.90842
1.9286
1.9482
1.9672
1.98558
2.00332
2.02041
2.03684
2.0526
2.06767
2.08205
2.09573
2.10868
2.12092
2.13242
2.14319
2.15321
2.16248
2.17099
2.17874
2.18573
2.19195
2.1974
2.20207
2.20597
2.2091
2.21144
2.21302
2.21381
2.21383
2.21308
2.21156
2.20928
2.20623
2.20243
2.19787
2.19257
2.18653
2.17976
2.17227
2.16407
2.15516
2.14557
2.13529
2.12435
2.11276
2.10052
2.08766
2.0742
2.06012
2.04551
2.03036
2.01469
1.99853
1.98189
1.96481
1.9473
1.9294
1.91115
1.89258
1.87374
1.85463
1.83527
1.81564
1.79577
1.77567
1.75536
1.73486
1.71419
1.69338
1.67244
1.6514
1.63028
1.6091
1.58788
1.56664
1.5454
1.52418
1.503
1.48187
1.46081
1.43985
1.419
1.39827
1.37769
1.35726
1.33702
1.31697
1.29714
1.27756
1.25828
1.23936
1.22092
1.20313
1.18608
1.16991
0.0371202
0.0747657
0.0950459
0.109553
0.121663
0.132674
0.143267
0.153846
0.164661
0.175857
0.187514
0.199671
0.212347
0.22556
0.239333
0.253693
0.268673
0.284306
0.30062
0.317636
0.335364
0.353807
0.372957
0.392799
0.41331
0.434466
0.456237
0.478592
0.501502
0.524935
0.548864
0.573262
0.598104
0.623369
0.649035
0.675086
0.701506
0.728279
0.755394
0.782837
0.810599
0.838668
0.867034
0.895687
0.924616
0.95381
0.983258
1.01295
1.04287
1.073
1.10333
1.13384
1.16452
1.19535
1.2263
1.25736
1.2885
1.31971
1.35095
1.3822
1.41345
1.44466
1.4758
1.50686
1.5378
1.5686
1.59923
1.62967
1.65989
1.68986
1.71957
1.74898
1.77806
1.80675
1.83502
1.86286
1.89025
1.91715
1.94357
1.96946
1.99481
2.0196
2.04381
2.06741
2.09039
2.11272
2.13439
2.15539
2.17568
2.19526
2.21411
2.23222
2.24958
2.26616
2.28197
2.29699
2.3112
2.32461
2.33719
2.34896
2.35988
2.36998
2.37922
2.38762
2.39517
2.40186
2.40769
2.41266
2.41677
2.42002
2.42241
2.42393
2.4246
2.42441
2.42336
2.42146
2.41872
2.41513
2.41071
2.40546
2.39938
2.3925
2.3848
2.37632
2.36705
2.35701
2.34621
2.33466
2.32239
2.30941
2.29569
2.28133
2.26632
2.25067
2.23442
2.21758
2.20018
2.18224
2.16379
2.14485
2.12544
2.10561
2.08538
2.06479
2.04387
2.02266
2.00115
1.97937
1.95732
1.93502
1.91251
1.88979
1.8669
1.84386
1.8207
1.79743
1.77407
1.75067
1.72722
1.70376
1.68031
1.65689
1.63351
1.61021
1.587
1.5639
1.54093
1.51811
1.49546
1.473
1.45076
1.42875
1.40703
1.38562
1.36459
1.34404
1.32409
1.30496
1.28675
1.26965
0.0435097
0.0837961
0.106001
0.121856
0.134992
0.146805
0.158031
0.169113
0.180336
0.191887
0.203882
0.216395
0.229475
0.243159
0.257478
0.272461
0.288135
0.304525
0.321649
0.339518
0.358135
0.377497
0.397594
0.418409
0.439921
0.462109
0.484947
0.508409
0.532471
0.557108
0.582295
0.608012
0.634237
0.660953
0.688141
0.715787
0.743875
0.772393
0.801329
0.83067
0.860405
0.890524
0.921014
0.951865
0.983064
1.0146
1.04646
1.07862
1.11108
1.14381
1.17679
1.21002
1.24346
1.2771
1.31091
1.34486
1.37893
1.4131
1.44733
1.4816
1.51588
1.55013
1.58433
1.61845
1.65245
1.68631
1.71998
1.75345
1.78668
1.81965
1.85231
1.88464
1.9166
1.94812
1.97918
2.00975
2.03982
2.06936
2.09834
2.12674
2.15454
2.18171
2.20823
2.23408
2.25923
2.28366
2.30735
2.33028
2.35244
2.3738
2.39436
2.41409
2.43299
2.45103
2.4682
2.48451
2.49992
2.51444
2.52806
2.54076
2.55254
2.5634
2.57333
2.58232
2.59037
2.59749
2.60366
2.60888
2.61316
2.61649
2.61887
2.62032
2.62082
2.62038
2.61901
2.6167
2.61347
2.60933
2.60427
2.5983
2.59144
2.5837
2.57508
2.5656
2.55527
2.5441
2.53211
2.51929
2.50571
2.49137
2.47627
2.46046
2.44394
2.42674
2.40889
2.39041
2.37133
2.35167
2.33145
2.31071
2.28947
2.26777
2.24563
2.2231
2.2002
2.17697
2.15342
2.12957
2.10545
2.08106
2.05645
2.03163
2.00663
1.98147
1.95619
1.9308
1.90533
1.87981
1.85426
1.8287
1.80316
1.77766
1.75222
1.72687
1.70162
1.6765
1.65154
1.62675
1.60216
1.57779
1.55368
1.52985
1.50635
1.48324
1.46058
1.43849
1.4171
1.39662
1.37716
1.35884
0.0491883
0.0906747
0.114291
0.131196
0.145166
0.157658
0.169436
0.180968
0.192564
0.204434
0.216726
0.229539
0.242944
0.256991
0.271719
0.287159
0.303336
0.320267
0.337965
0.356438
0.375685
0.395702
0.416478
0.438
0.460253
0.483217
0.506874
0.531204
0.556188
0.581807
0.608042
0.634878
0.662297
0.690284
0.718826
0.747909
0.77752
0.807648
0.83828
0.869406
0.901013
0.933089
0.965623
0.998601
1.03201
1.06583
1.10006
1.13466
1.16963
1.20495
1.24058
1.27651
1.31272
1.34917
1.38585
1.42271
1.45973
1.49688
1.53413
1.57144
1.60877
1.64609
1.68337
1.72057
1.75765
1.79458
1.83132
1.86784
1.90409
1.94005
1.97569
2.01096
2.04578
2.08012
2.11395
2.14725
2.17998
2.21213
2.24366
2.27454
2.30476
2.33428
2.36308
2.39112
2.4184
2.44489
2.47055
2.49539
2.51936
2.54246
2.56467
2.58597
2.60635
2.6258
2.64429
2.66183
2.67839
2.69397
2.70856
2.72215
2.73474
2.74631
2.75687
2.76641
2.77492
2.78241
2.78888
2.79431
2.79871
2.80208
2.80443
2.80575
2.80605
2.80533
2.8036
2.80087
2.79713
2.7924
2.78668
2.77999
2.77233
2.76372
2.75417
2.74366
2.73227
2.71999
2.70682
2.69279
2.67793
2.66225
2.64577
2.62852
2.61053
2.59181
2.57239
2.5523
2.53157
2.51022
2.48829
2.46579
2.44276
2.41924
2.39525
2.37084
2.34603
2.32085
2.29533
2.2695
2.24338
2.21698
2.19035
2.16351
2.13648
2.10929
2.08198
2.05456
2.02706
1.99952
1.97195
1.94439
1.91685
1.88936
1.86195
1.83464
1.80746
1.78042
1.75356
1.7269
1.70046
1.67428
1.64839
1.62282
1.59764
1.5729
1.54868
1.52511
1.50232
1.48048
1.45969
1.44004
0.0539303
0.095492
0.120052
0.137726
0.152345
0.165397
0.177657
0.1896
0.201546
0.213721
0.226289
0.239366
0.253037
0.267364
0.282392
0.298155
0.314676
0.331975
0.350061
0.368941
0.388616
0.409084
0.430337
0.452368
0.475165
0.498717
0.523012
0.548035
0.573775
0.600218
0.627352
0.655165
0.683645
0.712781
0.742561
0.772976
0.804013
0.835663
0.867915
0.900756
0.934176
0.96816
1.0027
1.03777
1.07336
1.10946
1.14604
1.18308
1.22057
1.25847
1.29677
1.33543
1.37442
1.41371
1.45328
1.49308
1.53308
1.57324
1.61352
1.65389
1.69431
1.73472
1.7751
1.81539
1.85557
1.89558
1.93539
1.97496
2.01424
2.05319
2.09178
2.12996
2.16764
2.20478
2.24136
2.27735
2.31271
2.34743
2.38146
2.41479
2.44737
2.47919
2.51021
2.54041
2.56977
2.59824
2.62583
2.65249
2.67822
2.703
2.72679
2.7496
2.7714
2.79219
2.81194
2.83064
2.84829
2.86487
2.88038
2.89479
2.90812
2.92036
2.93149
2.94152
2.95044
2.95826
2.96496
2.97055
2.97503
2.97841
2.98067
2.98184
2.9819
2.98087
2.97875
2.97555
2.97128
2.96594
2.95954
2.9521
2.94363
2.93415
2.92366
2.91217
2.89973
2.88633
2.872
2.85676
2.84063
2.82364
2.8058
2.78714
2.76769
2.74747
2.72652
2.70485
2.68251
2.65951
2.63589
2.61169
2.58692
2.56162
2.53584
2.5096
2.48293
2.45588
2.42847
2.40072
2.37267
2.34434
2.31577
2.28698
2.258
2.22887
2.1996
2.17023
2.1408
2.11131
2.08181
2.05233
2.02288
1.99349
1.96419
1.93501
1.90597
1.8771
1.84842
1.81996
1.79176
1.76385
1.73626
1.70904
1.68225
1.65595
1.63023
1.60521
1.58103
1.55783
1.53568
1.51462
0.0577248
0.0984627
0.123554
0.14174
0.156832
0.170324
0.182988
0.195294
0.207562
0.220022
0.232843
0.246151
0.260039
0.274577
0.289816
0.305794
0.322537
0.340067
0.358397
0.377535
0.397487
0.418254
0.439836
0.462231
0.485434
0.50944
0.534245
0.559842
0.586224
0.613386
0.64132
0.67002
0.699478
0.729687
0.76064
0.792327
0.824741
0.857871
0.891707
0.926237
0.96145
0.99733
1.03386
1.07103
1.10882
1.1472
1.18615
1.22565
1.26568
1.3062
1.34718
1.38859
1.43039
1.47255
1.51504
1.5578
1.60079
1.64398
1.68732
1.73076
1.77426
1.81777
1.86124
1.90462
1.94788
1.99095
2.03381
2.07639
2.11867
2.16058
2.2021
2.24312
2.28359
2.32347
2.36273
2.40134
2.43927
2.47648
2.51294
2.54862
2.58349
2.61752
2.65068
2.68294
2.71428
2.74466
2.77407
2.80248
2.82987
2.85622
2.88152
2.90574
2.92887
2.95091
2.97183
2.99162
3.01027
3.02777
3.04411
3.05929
3.07328
3.0861
3.09774
3.1082
3.11747
3.12555
3.13244
3.13814
3.14265
3.14597
3.14811
3.14908
3.14887
3.14749
3.14495
3.14126
3.13643
3.13046
3.12338
3.11519
3.1059
3.09555
3.08413
3.07166
3.05817
3.04368
3.0282
3.01176
2.99438
2.97609
2.95691
2.93687
2.916
2.89432
2.87186
2.84866
2.82475
2.80015
2.7749
2.74903
2.72257
2.69556
2.66804
2.64003
2.61159
2.58273
2.55349
2.52391
2.49401
2.46383
2.4334
2.40275
2.3719
2.3409
2.30977
2.27854
2.24724
2.21591
2.18457
2.15324
2.12197
2.09077
2.05967
2.0287
1.99789
1.96726
1.93686
1.90669
1.87681
1.84724
1.81803
1.78923
1.76089
1.73309
1.70592
1.6795
1.65394
1.62939
1.60585
1.58339
0.0606034
0.0998403
0.12512
0.143596
0.158998
0.172811
0.185791
0.198399
0.210947
0.223657
0.2367
0.250202
0.264262
0.278953
0.294333
0.310444
0.327318
0.34498
0.36345
0.382741
0.402865
0.42383
0.445643
0.468307
0.491829
0.516209
0.54145
0.567554
0.59452
0.622349
0.65104
0.68059
0.710998
0.742259
0.774369
0.807322
0.841112
0.875728
0.911161
0.947399
0.984427
1.02223
1.06079
1.10009
1.1401
1.18081
1.22217
1.26417
1.30677
1.34994
1.39364
1.43783
1.48247
1.52752
1.57293
1.61866
1.66466
1.71087
1.75725
1.80374
1.85029
1.89685
1.94337
1.98979
2.03607
2.08214
2.12797
2.17349
2.21867
2.26345
2.30779
2.35154
2.39469
2.43719
2.47902
2.52012
2.56048
2.60006
2.63881
2.67672
2.71374
2.74985
2.78501
2.8192
2.85239
2.88454
2.91564
2.94565
2.97458
3.00238
3.02905
3.05456
3.07891
3.10208
3.12405
3.14482
3.16437
3.18269
3.19977
3.2156
3.23018
3.24349
3.25556
3.26635
3.27589
3.28417
3.29119
3.29693
3.30141
3.30463
3.30659
3.30731
3.30679
3.30503
3.30205
3.29785
3.29244
3.28584
3.27806
3.26912
3.25902
3.24779
3.23545
3.22201
3.20749
3.19192
3.17531
3.1577
3.1391
3.11955
3.09906
3.07768
3.05542
3.03232
3.00841
2.98373
2.95829
2.93215
2.90533
2.87786
2.84978
2.82113
2.79194
2.76225
2.7321
2.70152
2.67055
2.63922
2.60757
2.57562
2.54342
2.511
2.47838
2.44561
2.41271
2.37971
2.34666
2.31357
2.28047
2.24741
2.2144
2.18148
2.14868
2.11602
2.08353
2.05124
2.01919
1.98741
1.95593
1.92479
1.89404
1.86372
1.83391
1.80468
1.77611
1.74832
1.72142
1.69551
1.6706
1.64675
0.0626122
0.0998782
0.125075
0.143659
0.159229
0.173248
0.186454
0.199293
0.212063
0.224979
0.238203
0.251861
0.266052
0.280853
0.296324
0.312513
0.32946
0.347196
0.365746
0.385133
0.405374
0.426487
0.448487
0.471387
0.495198
0.519932
0.545599
0.572206
0.599762
0.628272
0.657741
0.688172
0.719566
0.751923
0.785242
0.819517
0.854743
0.890911
0.92801
0.966027
1.00494
1.04475
1.08541
1.12691
1.16921
1.2123
1.25614
1.30069
1.34591
1.39177
1.43821
1.4852
1.53269
1.58062
1.62895
1.67762
1.72658
1.77577
1.82513
1.8746
1.92412
1.97364
2.0231
2.07244
2.12161
2.17055
2.2192
2.26752
2.31546
2.36296
2.40989
2.4562
2.50184
2.54677
2.59097
2.63438
2.67697
2.71871
2.75956
2.79949
2.83847
2.87646
2.91344
2.94936
2.9842
3.01794
3.05054
3.08199
3.11226
3.14134
3.16922
3.19586
3.22126
3.24541
3.26829
3.28989
3.31021
3.32923
3.34692
3.36328
3.37832
3.39203
3.40441
3.41546
3.42518
3.43356
3.44062
3.44634
3.45072
3.45379
3.45554
3.45597
3.4551
3.45293
3.44948
3.44475
3.43876
3.43152
3.42304
3.41334
3.40243
3.39034
3.37709
3.36269
3.34716
3.33054
3.31283
3.29408
3.2743
3.25353
3.23179
3.20911
3.18553
3.16107
3.13577
3.10966
3.08279
3.05517
3.02685
2.99786
2.96825
2.93804
2.90727
2.87599
2.84423
2.81203
2.77943
2.74645
2.71315
2.67955
2.64569
2.61161
2.57733
2.54289
2.50833
2.47368
2.43897
2.40424
2.36951
2.33481
2.30018
2.26565
2.23125
2.197
2.16294
2.12909
2.0955
2.06219
2.02921
1.99659
1.96438
1.93264
1.90143
1.87083
1.84092
1.81181
1.7836
1.75638
1.73013
1.70492
0.0637981
0.0988105
0.123722
0.142271
0.157892
0.172015
0.185362
0.198358
0.21129
0.224361
0.237727
0.251508
0.265801
0.280686
0.296226
0.312476
0.32948
0.347277
0.365902
0.385384
0.405753
0.427032
0.449247
0.472419
0.496569
0.521717
0.54788
0.575074
0.603311
0.632604
0.662961
0.694389
0.726894
0.760477
0.795138
0.830874
0.867676
0.905536
0.94444
0.984371
1.02531
1.06723
1.11011
1.15392
1.19862
1.24418
1.29056
1.33772
1.38561
1.43417
1.48337
1.53315
1.58346
1.63423
1.68542
1.73695
1.78877
1.84083
1.89303
1.94533
1.99766
2.04996
2.10217
2.15422
2.20607
2.25764
2.30889
2.35976
2.4102
2.46012
2.50939
2.55797
2.60583
2.65291
2.69919
2.74462
2.78917
2.83279
2.87546
2.91714
2.95779
2.9974
3.03593
3.07334
3.10959
3.14465
3.17851
3.21116
3.24256
3.2727
3.30156
3.32912
3.35538
3.38032
3.40392
3.42617
3.44707
3.46661
3.48476
3.50152
3.5169
3.53089
3.54348
3.55468
3.56448
3.57289
3.5799
3.58552
3.58976
3.59261
3.59408
3.59419
3.59293
3.59033
3.58638
3.5811
3.57451
3.56662
3.55744
3.54699
3.53529
3.52236
3.50821
3.49288
3.47638
3.45874
3.43999
3.42014
3.39924
3.3773
3.35437
3.33046
3.30563
3.27988
3.25328
3.22584
3.1976
3.1686
3.13888
3.10848
3.07743
3.04577
3.01354
2.98077
2.94752
2.91381
2.8797
2.8452
2.81038
2.77525
2.73985
2.70423
2.66842
2.63245
2.59636
2.56018
2.52395
2.4877
2.45145
2.41525
2.37913
2.34311
2.30722
2.27151
2.23599
2.2007
2.16568
2.13096
2.09658
2.06258
2.02901
1.99594
1.96341
1.93152
1.90034
1.86997
1.8405
1.81201
1.78447
1.75796
0.0642018
0.0968439
0.121327
0.139737
0.15532
0.169467
0.18288
0.195971
0.209012
0.222198
0.235676
0.249564
0.263957
0.278935
0.294565
0.310908
0.328014
0.345931
0.364701
0.384364
0.404957
0.426516
0.449075
0.472663
0.497311
0.523047
0.549896
0.57788
0.607016
0.637317
0.668795
0.70146
0.735318
0.770372
0.806621
0.844059
0.882676
0.922459
0.963389
1.00544
1.0486
1.09282
1.13808
1.18434
1.23155
1.27967
1.32866
1.37846
1.42902
1.48029
1.5322
1.5847
1.63773
1.69122
1.7451
1.79932
1.85382
1.90853
1.96335
2.01821
2.07307
2.12785
2.18249
2.23693
2.29111
2.34497
2.39846
2.45153
2.5041
2.55601
2.60722
2.65768
2.70736
2.7562
2.80418
2.85124
2.89736
2.94249
2.9866
3.02966
3.07163
3.11249
3.15221
3.19074
3.22806
3.26415
3.29897
3.33252
3.36477
3.3957
3.4253
3.45355
3.48043
3.50593
3.53004
3.55275
3.57405
3.59393
3.61237
3.62938
3.64495
3.65907
3.67174
3.68297
3.69275
3.70109
3.70797
3.71342
3.71743
3.72
3.72115
3.72088
3.7192
3.71612
3.71166
3.70582
3.69862
3.69008
3.6802
3.66902
3.65654
3.64279
3.62779
3.61157
3.59414
3.57554
3.55579
3.53492
3.51296
3.48994
3.46589
3.44085
3.41485
3.38792
3.3601
3.33143
3.30194
3.27168
3.24068
3.20898
3.17661
3.14363
3.11006
3.07595
3.04134
3.00627
2.97078
2.93491
2.8987
2.86219
2.82541
2.7884
2.7512
2.71385
2.67637
2.63881
2.6012
2.56358
2.52597
2.48841
2.45093
2.41356
2.37633
2.33928
2.30244
2.26584
2.22952
2.19351
2.15785
2.12259
2.08778
2.05347
2.01973
1.98664
1.95427
1.92271
1.89205
1.86235
1.83359
1.80584
0.0638576
0.0941509
0.118112
0.136318
0.151806
0.165923
0.179353
0.192498
0.20562
0.218908
0.232505
0.246525
0.261065
0.276206
0.292023
0.308579
0.32593
0.344133
0.363238
0.383296
0.404354
0.426454
0.449641
0.473952
0.499426
0.526097
0.553999
0.583164
0.613607
0.645322
0.678328
0.712638
0.748255
0.78518
0.823406
0.862921
0.90371
0.94575
0.989014
1.03347
1.07909
1.12583
1.17364
1.22248
1.2723
1.32304
1.37466
1.42708
1.48025
1.53411
1.58858
1.64362
1.69913
1.75507
1.81137
1.86794
1.92473
1.98166
2.03866
2.09566
2.15259
2.20938
2.26598
2.32232
2.37835
2.43401
2.48923
2.54398
2.59807
2.65145
2.70408
2.7559
2.80688
2.85697
2.90614
2.95434
3.00154
3.0477
3.0928
3.13678
3.17963
3.22132
3.26181
3.30108
3.33909
3.37582
3.41125
3.44537
3.47813
3.50954
3.53957
3.56821
3.59545
3.62126
3.64564
3.66857
3.69005
3.71007
3.72862
3.74569
3.76128
3.77538
3.788
3.79912
3.80876
3.81691
3.82357
3.82876
3.83246
3.83469
3.83546
3.83477
3.83263
3.82905
3.82405
3.81764
3.80984
3.80065
3.79009
3.7782
3.76498
3.75045
3.73465
3.71759
3.6993
3.6798
3.65913
3.63732
3.61439
3.59038
3.56532
3.53924
3.51219
3.48419
3.45528
3.42551
3.39491
3.36351
3.33137
3.29851
3.26498
3.23082
3.19607
3.16077
3.12496
3.08869
3.052
3.01491
2.97749
2.93976
2.90176
2.86354
2.82512
2.78655
2.74786
2.70909
2.67027
2.63144
2.59263
2.55387
2.51519
2.47663
2.43823
2.4
2.36199
2.32422
2.28674
2.24958
2.21278
2.17639
2.14045
2.10503
2.07019
2.036
2.00253
1.96988
1.93811
1.90728
1.87737
1.84847
0.0627245
0.0907263
0.11412
0.132096
0.14747
0.161544
0.174986
0.188192
0.201422
0.214863
0.228659
0.242926
0.257766
0.273268
0.289517
0.306585
0.324517
0.343381
0.363241
0.384156
0.406181
0.429367
0.453763
0.479412
0.506355
0.534628
0.56426
0.595276
0.627692
0.661513
0.696746
0.73339
0.771439
0.810882
0.851701
0.893872
0.937366
0.982148
1.02818
1.07542
1.12381
1.17332
1.22387
1.27542
1.32791
1.38127
1.43545
1.49036
1.54596
1.60216
1.65891
1.71613
1.77376
1.83172
1.88994
1.94837
2.00692
2.06553
2.12412
2.18264
2.24102
2.29919
2.35709
2.41468
2.47189
2.52867
2.58497
2.6406
2.69551
2.74967
2.80302
2.85552
2.90714
2.95783
3.00755
3.05627
3.10395
3.15056
3.19606
3.24042
3.28362
3.32561
3.36638
3.4059
3.44414
3.48107
3.51668
3.55094
3.58384
3.61534
3.64545
3.67414
3.7014
3.72721
3.75156
3.77445
3.79585
3.81577
3.83419
3.8511
3.86651
3.8804
3.89278
3.90365
3.91299
3.92082
3.92714
3.93195
3.93525
3.93704
3.93735
3.93617
3.93351
3.92939
3.92382
3.91681
3.90838
3.89854
3.88731
3.87471
3.86076
3.84549
3.82891
3.81106
3.79195
3.77163
3.7501
3.72742
3.7036
3.67868
3.6527
3.62569
3.59769
3.56873
3.53886
3.5081
3.47651
3.44411
3.41096
3.37709
3.34254
3.30735
3.27157
3.23523
3.19838
3.16107
3.12332
3.08519
3.04672
3.00793
2.96889
2.92961
2.89014
2.85052
2.81078
2.77096
2.7311
2.69122
2.65137
2.61157
2.57186
2.53227
2.49283
2.45357
2.41454
2.37575
2.33725
2.29908
2.26127
2.22387
2.18693
2.15051
2.11467
2.07948
2.04502
2.01136
1.97856
1.94669
1.91571
1.88574
0.0611023
0.08707
0.109912
0.127683
0.142967
0.15703
0.170537
0.183887
0.197346
0.211108
0.225324
0.240121
0.255608
0.27188
0.289029
0.307134
0.326265
0.346494
0.367887
0.390507
0.414409
0.439647
0.466264
0.494299
0.523783
0.554742
0.587192
0.621141
0.656589
0.693528
0.731945
0.771819
0.813123
0.855827
0.899891
0.945275
0.991932
1.03981
1.08886
1.13902
1.19024
1.24245
1.29559
1.34959
1.40441
1.45996
1.51618
1.57301
1.63039
1.68824
1.74649
1.8051
1.86398
1.92307
1.98232
2.04165
2.101
2.16031
2.21952
2.27857
2.3374
2.39595
2.45418
2.51203
2.56947
2.62638
2.68264
2.73819
2.793
2.84702
2.90021
2.95253
3.00394
3.05441
3.1039
3.15238
3.1998
3.24614
3.29137
3.33545
3.37836
3.42007
3.46054
3.49977
3.53771
3.57434
3.60966
3.64362
3.67621
3.70742
3.73722
3.76561
3.79256
3.81805
3.84209
3.86465
3.88572
3.9053
3.92338
3.93994
3.95499
3.96852
3.98052
3.99099
3.99993
4.00735
4.01324
4.0176
4.02044
4.02177
4.02159
4.01992
4.01675
4.0121
4.00598