/*--------------------------------*- C++ -*----------------------------------*\
| =========                 |                                                 |
| \\      /  F ield         | OpenFOAM: The Open Source CFD Toolbox           |
|  \\    /   O peration     | Version:  2412                                  |
|   \\  /    A nd           | Website:  www.openfoam.com                      |
|    \\/     M anipulation  |                                                 |
\*---------------------------------------------------------------------------*/
FoamFile
{
    version     2.0;
    format      ascii;
    arch        "LSB;label=32;scalar=64";
    class       volScalarField;
    location    "0.25";
    object      nut;
}
// * * * * * * * * * * * * * * * * * * * * * * * * * * * * * * * * * * * * * //

dimensions      [0 2 -1 0 0 0 0];

internalField   nonuniform List<scalar> 
12225
(
2.015e-05
2.24858e-05
2.47491e-05
2.63715e-05
2.7588e-05
2.85143e-05
2.92324e-05
2.97981e-05
3.02485e-05
3.061e-05
3.09018e-05
3.11381e-05
3.13294e-05
3.14835e-05
3.16061e-05
3.17004e-05
3.17688e-05
3.18285e-05
0.000167792
0.000185428
0.000202597
0.000213787
0.000221146
0.000225984
0.000229002
0.00023072
0.000231514
0.000231644
0.000231292
0.000230594
0.00022965
0.000228531
0.000227295
0.00022597
0.000224708
0.000224072
0.000338328
0.000365994
0.000399362
0.000424407
0.00044278
0.000456139
0.000465649
0.000472249
0.000476658
0.00047941
0.000480906
0.000481448
0.000481265
0.00048053
0.000479377
0.000477904
0.000476299
0.000475461
0.000480632
0.000521771
0.000570122
0.000608391
0.000637803
0.00066021
0.000677099
0.000689692
0.000698953
0.000705625
0.00071028
0.00071336
0.000715207
0.000716087
0.000716209
0.00071574
0.00071491
0.000714431
0.00059357
0.000650967
0.00071349
0.000763785
0.000803284
0.000834123
0.000858089
0.00087663
0.000890896
0.000901784
0.000909998
0.000916088
0.00092049
0.000923547
0.000925532
0.000926671
0.000927218
0.000927685
0.000684418
0.000756656
0.000831951
0.000893054
0.000941626
0.000980103
0.00101056
0.00103466
0.00105369
0.0010687
0.00108048
0.00108967
0.00109677
0.00110221
0.0011063
0.00110932
0.00111153
0.0011133
0.000759757
0.00084284
0.000928292
0.000998648
0.00105522
0.00110054
0.00113687
0.00116606
0.00118953
0.00120842
0.00122362
0.00123583
0.00124563
0.00125348
0.00125974
0.00126473
0.0012687
0.00127194
0.000823625
0.000913365
0.00100525
0.00108261
0.00114578
0.00119702
0.00123857
0.00127237
0.00129992
0.00132243
0.00134086
0.00135597
0.00136839
0.00137861
0.00138703
0.00139399
0.00139973
0.00140448
0.000877003
0.000970916
0.0010653
0.00114672
0.00121456
0.00127046
0.0013164
0.00135421
0.00138542
0.00141126
0.00143271
0.00145058
0.00146551
0.00147804
0.00148859
0.0014975
0.00150499
0.00151123
0.000918258
0.00101593
0.00110995
0.00119241
0.00126253
0.0013214
0.00137055
0.00141157
0.00144587
0.00147463
0.00149882
0.00151925
0.00153658
0.00155133
0.00156395
0.00157477
0.001584
0.00159171
0.000944751
0.00104624
0.0011388
0.00122006
0.00129015
0.00135004
0.0014009
0.00144402
0.0014806
0.0015117
0.00153822
0.00156093
0.00158044
0.00159729
0.00161189
0.00162457
0.00163549
0.00164465
0.000953929
0.00105647
0.00114713
0.00122621
0.00129479
0.00135413
0.00140528
0.00144929
0.00148719
0.00151986
0.00154809
0.00157257
0.00159388
0.00161249
0.00162881
0.00164312
0.00165555
0.00166601
0.000951545
0.0010519
0.00114069
0.00121791
0.00128482
0.0013429
0.00139336
0.00143724
0.00147545
0.00150878
0.00153794
0.00156353
0.00158605
0.00160596
0.0016236
0.00163923
0.00165293
0.00166447
0.000937266
0.00102693
0.00110961
0.00118333
0.00124793
0.00130433
0.00135362
0.00139676
0.00143463
0.001468
0.00149751
0.00152369
0.00154702
0.00156787
0.00158656
0.00160329
0.00161811
0.00163063
0.000914065
0.000982516
0.00105
0.00111401
0.00117277
0.00122566
0.00127281
0.00131462
0.00135169
0.00138461
0.00141396
0.00144023
0.00146383
0.00148514
0.00150441
0.00152185
0.00153745
0.00155068
0.000888181
0.000929364
0.000972527
0.00101672
0.00106056
0.0011029
0.00114292
0.00118011
0.00121428
0.00124543
0.00127374
0.00129945
0.00132281
0.00134407
0.00136347
0.00138116
0.00139714
0.00141081
0.000866165
0.000882903
0.000901456
0.000921824
0.00094371
0.000966717
0.000990418
0.00101437
0.00103813
0.00106136
0.00108377
0.00110518
0.00112548
0.00114459
0.00116249
0.0011792
0.00119465
0.00120841
0.000853647
0.000856463
0.000860483
0.000865723
0.000872136
0.000879656
0.000888214
0.000897719
0.000908059
0.000919104
0.000930715
0.000942751
0.000955074
0.000967563
0.000980094
0.000992551
0.00100481
0.00101666
0.000856837
0.00086304
0.000870433
0.000879025
0.000888701
0.000899307
0.000910677
0.000922624
0.000934956
0.000947484
0.000960044
0.000972495
0.000984725
0.00099665
0.00100821
0.00101937
0.00103006
0.00104006
0.000879014
0.000910093
0.000943005
0.0009771
0.00101138
0.00104494
0.00107708
0.00110731
0.00113536
0.00116111
0.00118459
0.0012059
0.0012252
0.00124266
0.00125845
0.00127274
0.00128565
0.00129725
0.000912428
0.000978633
0.00104329
0.00110415
0.00115969
0.00120945
0.00125358
0.00129251
0.00132677
0.0013569
0.00138345
0.00140686
0.00142755
0.00144588
0.00146213
0.00147658
0.00148943
0.00150098
0.000944652
0.00103937
0.00112415
0.00119816
0.00126209
0.00131726
0.00136492
0.0014061
0.00144172
0.00147255
0.00149929
0.00152252
0.00154273
0.00156034
0.00157572
0.00158915
0.00160091
0.00161125
0.000952969
0.00105495
0.00114494
0.00122286
0.00128968
0.00134681
0.00139548
0.00143685
0.001472
0.0015019
0.00152736
0.00154908
0.00156764
0.00158352
0.00159712
0.00160878
0.00161878
0.00162735
0.000919762
0.00101577
0.00110711
0.00118655
0.00125366
0.00130983
0.00135663
0.00139556
0.001428
0.00145508
0.00147772
0.00149669
0.0015126
0.00152595
0.00153716
0.00154657
0.00155445
0.00156098
0.000847919
0.000936212
0.00102591
0.00110193
0.0011644
0.00121544
0.00125709
0.00129112
0.00131899
0.00134186
0.00136065
0.00137609
0.00138878
0.00139919
0.00140773
0.00141469
0.00142033
0.00142481
0.00074824
0.000825344
0.000905836
0.000972006
0.00102523
0.00106796
0.00110226
0.00112982
0.00115199
0.00116982
0.00118414
0.00119563
0.00120479
0.00121206
0.00121778
0.00122223
0.00122561
0.00122806
0.000620838
0.000679397
0.000743804
0.000795902
0.000837071
0.000869522
0.000895045
0.000915071
0.000930738
0.000942939
0.000952376
0.0009596
0.000965046
0.000969063
0.000971926
0.000973855
0.000975025
0.000975553
0.000453206
0.00049108
0.000536513
0.000572228
0.000599359
0.000619976
0.000635559
0.000647219
0.000655838
0.000662098
0.000666518
0.000669499
0.000671353
0.000672324
0.000672601
0.000672335
0.000671645
0.000670628
0.00023657
0.00025923
0.000284033
0.000301436
0.000313162
0.000321243
0.000326756
0.000330375
0.000332602
0.000333804
0.000334243
0.000334113
0.000333558
0.000332689
0.000331589
0.000330323
0.000328939
0.000327501
2.7242e-05
3.0171e-05
3.32397e-05
3.54417e-05
3.70547e-05
3.8262e-05
3.91809e-05
3.98936e-05
4.04543e-05
4.09001e-05
4.12575e-05
4.15462e-05
4.17807e-05
4.1972e-05
4.21288e-05
4.22576e-05
4.23633e-05
4.24507e-05
4.87993e-06
1.32304e-05
1.50413e-05
1.6335e-05
1.72728e-05
1.79997e-05
1.87318e-05
1.95083e-05
2.02918e-05
2.10849e-05
2.18999e-05
2.27661e-05
2.37795e-05
2.49622e-05
2.62032e-05
2.74794e-05
2.87821e-05
3.01092e-05
3.14588e-05
3.28278e-05
3.42116e-05
3.5605e-05
3.70025e-05
3.83992e-05
3.97909e-05
4.11745e-05
4.25485e-05
4.39128e-05
4.52688e-05
4.66203e-05
4.79728e-05
4.93173e-05
5.06405e-05
5.19412e-05
5.32191e-05
5.44741e-05
5.57065e-05
5.69167e-05
5.81049e-05
5.92719e-05
6.04179e-05
6.15437e-05
6.26495e-05
6.37361e-05
6.48037e-05
6.58528e-05
6.68838e-05
6.78969e-05
6.88924e-05
6.98705e-05
7.08314e-05
7.17752e-05
7.27019e-05
7.36117e-05
7.45044e-05
7.53802e-05
7.6239e-05
7.70806e-05
7.7905e-05
7.87122e-05
7.9502e-05
8.02743e-05
8.1029e-05
8.17659e-05
8.2485e-05
8.31862e-05
8.38693e-05
8.45342e-05
8.51809e-05
8.58095e-05
8.64202e-05
8.70134e-05
8.75902e-05
8.81523e-05
8.87031e-05
8.9238e-05
8.97521e-05
9.02462e-05
9.07208e-05
9.11761e-05
9.16122e-05
9.20291e-05
9.24266e-05
9.28048e-05
9.31636e-05
9.35029e-05
9.38227e-05
9.4123e-05
9.44037e-05
9.46649e-05
9.49065e-05
9.51285e-05
9.53311e-05
9.55141e-05
9.56776e-05
9.58217e-05
9.59464e-05
9.60516e-05
9.61376e-05
9.62044e-05
9.62519e-05
9.62803e-05
9.62896e-05
9.628e-05
9.62514e-05
9.62041e-05
9.61379e-05
9.60532e-05
9.59498e-05
9.58281e-05
9.56879e-05
9.55295e-05
9.5353e-05
9.51584e-05
9.4946e-05
9.47158e-05
9.4468e-05
9.42027e-05
9.39202e-05
9.36204e-05
9.33038e-05
9.29703e-05
9.26203e-05
9.22539e-05
9.18713e-05
9.14728e-05
9.10587e-05
9.06291e-05
9.01844e-05
8.97247e-05
8.92505e-05
8.8762e-05
8.82595e-05
8.77434e-05
8.7214e-05
8.66717e-05
8.61169e-05
8.55499e-05
8.49708e-05
8.43812e-05
8.37801e-05
8.31702e-05
8.25553e-05
8.19588e-05
8.15102e-05
8.11112e-05
8.07082e-05
8.02975e-05
7.98788e-05
7.94525e-05
7.90189e-05
7.85783e-05
7.81313e-05
7.76781e-05
7.72191e-05
7.67549e-05
7.62857e-05
7.5812e-05
7.53342e-05
7.48527e-05
7.4368e-05
7.38804e-05
7.33904e-05
7.28983e-05
7.24045e-05
7.19093e-05
7.1413e-05
7.09157e-05
7.04176e-05
6.99185e-05
6.94181e-05
6.89158e-05
6.84102e-05
6.78991e-05
6.73783e-05
6.68397e-05
6.62657e-05
6.56112e-05
6.47976e-05
6.37376e-05
7.13583e-06
3.1809e-05
6.31424e-05
8.77848e-05
0.000105235
0.000117673
0.00012558
0.00013077
0.000135048
0.000139205
0.000143426
0.000147628
0.000151692
0.000155629
0.000159562
0.000163587
0.000167791
0.00017225
0.000177034
0.000182198
0.000187786
0.000193825
0.00020033
0.000207303
0.000214732
0.000222596
0.000230865
0.000239499
0.000248457
0.000257696
0.000267178
0.000276879
0.00028678
0.000296853
0.000307071
0.000317407
0.000327838
0.000338342
0.000348902
0.000359501
0.000370128
0.000380772
0.000391425
0.000402079
0.000412729
0.000423371
0.000434001
0.000444615
0.000455211
0.000465784
0.000476333
0.000486854
0.000497343
0.000507797
0.000518212
0.000528583
0.000538907
0.000549178
0.000559392
0.000569543
0.000579627
0.000589638
0.000599572
0.000609422
0.000619184
0.000628852
0.00063842
0.000647882
0.000657229
0.00066645
0.00067553
0.000684446
0.000693162
0.00070163
0.000709632
0.000717146
0.000724464
0.000731633
0.00073866
0.000745544
0.000752283
0.000758876
0.00076532
0.000771613
0.000777752
0.000783735
0.00078956
0.000795226
0.000800729
0.00080607
0.000811245
0.000816254
0.000821096
0.000825769
0.000830272
0.000834603
0.000838763
0.000842751
0.000846564
0.000850204
0.000853669
0.000856958
0.000860072
0.00086301
0.000865771
0.000868355
0.000870762
0.000872991
0.000875042
0.000876916
0.000878611
0.000880127
0.000881466
0.000882626
0.000883607
0.00088441
0.000885035
0.000885482
0.000885751
0.000885843
0.000885758
0.000885497
0.000885061
0.000884449
0.000883664
0.000882706
0.000881577
0.000880277
0.000878808
0.000877172
0.000875371
0.000873407
0.000871281
0.000868995
0.000866554
0.000863958
0.000861211
0.000858319
0.000855275
0.0008521
0.000848788
0.000845308
0.00084159
0.000837329
0.00083161
0.000825067
0.000818214
0.000811191
0.000804045
0.000796796
0.000789457
0.000782037
0.000774544
0.000766984
0.000759364
0.00075169
0.000743968
0.000736204
0.000728403
0.000720571
0.000712713
0.000704834
0.00069694
0.000689036
0.000681126
0.000673214
0.000665304
0.0006574
0.000649505
0.00064162
0.000633745
0.000625879
0.000618017
0.000610148
0.00060225
0.000594286
0.000586154
0.000577594
0.000565022
0.000541546
8.68934e-06
5.10224e-05
0.000104287
0.000145325
0.000174467
0.00019412
0.000207491
0.000217171
0.000225029
0.000232209
0.000239296
0.000246536
0.000254029
0.000261852
0.0002701
0.000278873
0.000288279
0.000298423
0.0003094
0.000321284
0.00033413
0.000347963
0.000362786
0.000378575
0.000395286
0.000412858
0.000431215
0.000450274
0.00046995
0.000490159
0.000510823
0.000531872
0.000553243
0.000574875
0.000596714
0.000618713
0.000640831
0.000663033
0.000685291
0.000707583
0.000729889
0.000752195
0.00077449
0.000796764
0.00081901
0.00084122
0.000863389
0.000885511
0.00090758
0.000929591
0.000951538
0.000973412
0.000995207
0.00101691
0.00103853
0.00106003
0.00108142
0.00110268
0.00112381
0.00114478
0.0011656
0.00118624
0.00120669
0.00122695
0.00124699
0.0012668
0.00128636
0.00130567
0.00132468
0.00134339
0.00136177
0.00137977
0.00139735
0.00141449
0.00143095
0.00144693
0.00146255
0.00147786
0.00149286
0.00150754
0.00152192
0.00153597
0.00154971
0.00156311
0.00157619
0.00158892
0.00160131
0.00161336
0.00162505
0.00163639
0.00164738
0.001658
0.00166826
0.00167815
0.00168767
0.00169682
0.0017056
0.001714
0.00172202
0.00172967
0.00173694
0.00174382
0.00175033
0.00175645
0.00176219
0.00176754
0.00177251
0.00177709
0.00178129
0.00178509
0.00178852
0.00179155
0.0017942
0.00179646
0.00179833
0.00179982
0.00180092
0.00180164
0.00180197
0.00180191
0.00180148
0.00180066
0.00179946
0.00179789
0.00179594
0.00179362
0.00179092
0.00178787
0.00178444
0.00178066
0.00177653
0.00177204
0.00176721
0.00176204
0.00175654
0.0017507
0.00174456
0.0017381
0.00173135
0.00172429
0.00171695
0.00170924
0.00170103
0.00169202
0.00168158
0.00167008
0.00165795
0.00164542
0.00163258
0.00161949
0.00160617
0.00159265
0.00157895
0.00156508
0.00155105
0.00153688
0.00152258
0.00150817
0.00149365
0.00147903
0.00146434
0.00144958
0.00143476
0.00141989
0.00140498
0.00139004
0.00137509
0.00136012
0.00134514
0.00133016
0.00131517
0.00130018
0.00128516
0.00127009
0.00125492
0.00123952
0.00122365
0.00120658
0.00118496
0.00114783
9.86622e-06
6.98694e-05
0.000138654
0.000191063
0.000228154
0.000254201
0.000272873
0.000287041
0.000298798
0.00030954
0.000320114
0.000330996
0.000342449
0.000354637
0.00036769
0.000381725
0.000396854
0.000413175
0.000430766
0.000449681
0.000469942
0.00049154
0.000514436
0.000538567
0.000563848
0.00059018
0.000617454
0.00064556
0.000674388
0.000703833
0.000733799
0.000764199
0.000794955
0.000825996
0.000857263
0.000888702
0.00092027
0.000951929
0.000983651
0.00101541
0.00104718
0.00107896
0.00111072
0.00114245
0.00117414
0.00120579
0.00123738
0.00126891
0.00130036
0.00133172
0.00136299
0.00139415
0.00142518
0.00145609
0.00148684
0.00151743
0.00154784
0.00157805
0.00160806
0.00163783
0.00166735
0.00169661
0.00172558
0.00175424
0.00178258
0.00181056
0.00183818
0.00186541
0.00189221
0.00191857
0.00194446
0.00196984
0.0019947
0.00201894
0.00204253
0.00206557
0.00208813
0.00211024
0.00213191
0.00215313
0.0021739
0.00219422
0.00221407
0.00223346
0.00225237
0.0022708
0.00228874
0.00230618
0.00232313
0.00233957
0.0023555
0.00237091
0.0023858
0.00240017
0.00241401
0.00242732
0.0024401
0.00245234
0.00246404
0.0024752
0.00248582
0.00249589
0.00250541
0.00251438
0.0025228
0.00253067
0.00253799
0.00254475
0.00255096
0.00255661
0.0025617
0.00256624
0.00257021
0.00257363
0.0025765
0.0025788
0.00258055
0.00258174
0.00258237
0.00258246
0.00258198
0.00258096
0.00257939
0.00257727
0.00257461
0.00257141
0.00256767
0.0025634
0.00255861
0.00255329
0.00254746
0.00254113
0.00253429
0.00252696
0.00251915
0.00251087
0.00250213
0.00249294
0.00248331
0.00247323
0.00246269
0.00245164
0.00243997
0.00242743
0.00241372
0.00239897
0.00238345
0.00236736
0.0023508
0.00233384
0.00231653
0.0022989
0.00228097
0.00226278
0.00224433
0.00222564
0.00220675
0.00218765
0.00216838
0.00214895
0.00212937
0.00210966
0.00208983
0.00206991
0.00204991
0.00202984
0.00200971
0.00198954
0.00196933
0.00194909
0.00192883
0.00190854
0.0018882
0.00186777
0.00184719
0.0018263
0.00180474
0.00178163
0.00175408
0.0017141
1.07326e-05
8.52611e-05
0.000166954
0.000228987
0.000273877
0.000306287
0.000330264
0.000348972
0.000364748
0.000379215
0.000393435
0.000408068
0.000423513
0.000440019
0.000457758
0.000476854
0.000497405
0.000519484
0.000543132
0.000568361
0.000595153
0.000623459
0.000653204
0.000684294
0.000716619
0.000750059
0.000784494
0.000819802
0.000855867
0.00089258
0.000929841
0.00096756
0.00100566
0.00104406
0.0010827
0.00112154
0.00116052
0.00119961
0.00123877
0.00127798
0.00131721
0.00135645
0.00139567
0.00143486
0.001474
0.00151308
0.00155209
0.00159101
0.00162983
0.00166853
0.0017071
0.00174552
0.00178378
0.00182186
0.00185973
0.00189739
0.0019348
0.00197196
0.00200883
0.0020454
0.00208165
0.00211755
0.00215308
0.00218821
0.00222293
0.00225721
0.00229102
0.00232435
0.00235716
0.00238944
0.00242115
0.00245229
0.00248283
0.00251264
0.0025418
0.00257035
0.00259834
0.00262579
0.00265269
0.00267905
0.00270487
0.00273013
0.00275484
0.00277897
0.00280253
0.0028255
0.00284788
0.00286965
0.00289083
0.00291138
0.00293132
0.00295064
0.00296932
0.00298737
0.00300477
0.00302153
0.00303765
0.0030531
0.00306791
0.00308205
0.00309552
0.00310834
0.00312048
0.00313195
0.00314275
0.00315287
0.00316232
0.00317109
0.00317917
0.00318658
0.0031933
0.00319934
0.00320469
0.00320935
0.00321333
0.00321662
0.00321923
0.00322115
0.00322238
0.00322293
0.0032228
0.00322198
0.00322049
0.00321832
0.00321548
0.00321196
0.00320779
0.00320295
0.00319746
0.00319132
0.00318455
0.00317714
0.00316911
0.00316047
0.00315122
0.00314139
0.00313097
0.00311999
0.00310844
0.00309633
0.00308364
0.00307032
0.00305631
0.00304145
0.00302559
0.00300876
0.00299112
0.0029728
0.0029539
0.00293449
0.00291461
0.00289431
0.00287362
0.00285257
0.00283117
0.00280946
0.00278746
0.00276518
0.00274265
0.00271989
0.00269692
0.00267376
0.00265043
0.00262695
0.00260334
0.00257962
0.0025558
0.0025319
0.00250793
0.00248391
0.00245984
0.00243572
0.00241154
0.00238726
0.00236281
0.00233803
0.00231256
0.00228555
0.00225478
0.0022157
1.14274e-05
9.66618e-05
0.000188988
0.00026023
0.00031285
0.000351742
0.00038121
0.000404654
0.000424628
0.000442958
0.000460894
0.000479255
0.000498561
0.000519139
0.000541195
0.000564862
0.00059022
0.000617311
0.000646143
0.00067669
0.000708899
0.000742694
0.000777977
0.000814636
0.00085255
0.000891596
0.000931647
0.000972584
0.00101429
0.00105666
0.00109959
0.001143
0.00118681
0.00123094
0.00127533
0.00131994
0.0013647
0.00140958
0.00145455
0.00149957
0.00154461
0.00158966
0.00163468
0.00167967
0.00172459
0.00176944
0.00181419
0.00185883
0.00190334
0.0019477
0.00199189
0.0020359
0.0020797
0.00212326
0.00216659
0.00220964
0.00225239
0.00229484
0.00233694
0.00237868
0.00242003
0.00246098
0.00250149
0.00254154
0.0025811
0.00262016
0.0026587
0.00269667
0.00273407
0.00277088
0.00280706
0.00284261
0.0028775
0.00291164
0.00294509
0.0029779
0.00301009
0.00304167
0.00307265
0.00310302
0.00313278
0.00316192
0.00319043
0.00321831
0.00324554
0.00327212
0.00329804
0.00332329
0.00334785
0.00337174
0.00339493
0.00341741
0.0034392
0.00346027
0.00348062
0.00350024
0.00351914
0.00353731
0.00355473
0.00357141
0.00358734
0.00360252
0.00361695
0.00363062
0.00364353
0.00365568
0.00366706
0.00367767
0.00368751
0.00369658
0.00370487
0.00371238
0.00371911
0.00372507
0.00373024
0.00373464
0.00373825
0.00374107
0.00374312
0.00374438
0.00374487
0.00374457
0.0037435
0.00374166
0.00373904
0.00373566
0.00373151
0.00372661
0.00372096
0.00371456
0.00370743
0.00369956
0.00369097
0.00368168
0.00367169
0.00366102
0.00364967
0.00363765
0.00362498
0.00361164
0.00359765
0.00358295
0.00356752
0.00355125
0.00353407
0.003516
0.0034971
0.00347746
0.00345717
0.00343628
0.00341484
0.0033929
0.00337048
0.00334762
0.00332434
0.00330068
0.00327665
0.00325228
0.00322759
0.00320261
0.00317736
0.00315186
0.00312614
0.00310022
0.00307411
0.00304785
0.00302145
0.00299494
0.00296833
0.00294164
0.00291487
0.00288805
0.00286116
0.00283418
0.00280705
0.00277962
0.00275158
0.00272221
0.00268993
0.00265243
1.23719e-05
0.000102075
0.000204034
0.000284498
0.000344983
0.000390532
0.000425693
0.000454078
0.000478426
0.000500739
0.000522423
0.000544435
0.0005674
0.000591716
0.000617627
0.000645276
0.000674735
0.000706026
0.000739131
0.000774001
0.000810564
0.000848724
0.000888374
0.000929395
0.000971665
0.00101506
0.00105946
0.00110474
0.00115079
0.00119752
0.00124482
0.00129261
0.00134081
0.00138934
0.00143815
0.00148719
0.00153639
0.00158572
0.00163514
0.00168461
0.00173411
0.0017836
0.00183306
0.00188247
0.0019318
0.00198103
0.00203015
0.00207913
0.00212795
0.00217659
0.00222502
0.00227324
0.00232122
0.00236893
0.00241635
0.00246347
0.00251025
0.00255667
0.00260271
0.00264835
0.00269356
0.00273831
0.00278258
0.00282635
0.00286959
0.00291228
0.0029544
0.00299592
0.00303683
0.0030771
0.00311672
0.00315567
0.00319391
0.00323139
0.00326818
0.00330429
0.00333976
0.00337458
0.00340876
0.00344229
0.00347517
0.0035074
0.00353896
0.00356984
0.00360003
0.00362953
0.00365832
0.0036864
0.00371375
0.00374036
0.00376624
0.00379136
0.00381573
0.00383933
0.00386217
0.00388422
0.00390549
0.00392598
0.00394566
0.00396454
0.00398262
0.00399989
0.00401634
0.00403197
0.00404678
0.00406077
0.00407392
0.00408624
0.00409773
0.00410837
0.00411817
0.00412712
0.00413523
0.0041425
0.00414891
0.00415447
0.00415917
0.00416302
0.00416602
0.00416817
0.00416946
0.0041699
0.00416949
0.00416824
0.00416614
0.0041632
0.00415942
0.00415481
0.00414937
0.00414311
0.00413604
0.00412816
0.00411949
0.00411004
0.00409982
0.00408884
0.0040771
0.00406463
0.00405143
0.00403749
0.00402283
0.00400742
0.00399123
0.00397422
0.00395635
0.00393762
0.00391806
0.00389774
0.00387672
0.00385503
0.00383274
0.00380987
0.00378647
0.00376256
0.00373816
0.00371332
0.00368805
0.00366238
0.00363633
0.00360994
0.00358322
0.0035562
0.00352891
0.00350137
0.0034736
0.00344564
0.0034175
0.0033892
0.00336079
0.00333226
0.00330365
0.00327497
0.00324623
0.00321742
0.00318849
0.00315934
0.00312971
0.00309904
0.00306623
0.00303005
1.31547e-05
0.000104722
0.000214029
0.000302646
0.000370573
0.000422665
0.000463551
0.00049697
0.00052579
0.000552141
0.000577555
0.000603097
0.000629483
0.000657177
0.000686464
0.000717507
0.00075038
0.0007851
0.000821639
0.000859938
0.000899912
0.000941463
0.000984479
0.00102884
0.00107443
0.00112113
0.00116881
0.00121737
0.0012667
0.0013167
0.00136728
0.00141835
0.00146983
0.00152166
0.00157377
0.0016261
0.00167861
0.00173125
0.00178397
0.00183675
0.00188954
0.00194232
0.00199505
0.00204772
0.0021003
0.00215277
0.00220509
0.00225726
0.00230925
0.00236104
0.00241261
0.00246394
0.002515
0.00256577
0.00261623
0.00266636
0.00271613
0.00276551
0.0028145
0.00286305
0.00291115
0.00295876
0.00300588
0.00305247
0.00309851
0.00314397
0.00318884
0.00323309
0.00327671
0.00331967
0.00336196
0.00340357
0.00344441
0.00348453
0.00352395
0.00356269
0.00360078
0.0036382
0.00367496
0.00371107
0.0037465
0.00378125
0.00381531
0.00384868
0.00388133
0.00391326
0.00394445
0.00397491
0.00400461
0.00403354
0.00406171
0.00408909
0.00411568
0.00414148
0.00416647
0.00419064
0.00421399
0.00423652
0.00425821
0.00427905
0.00429905
0.00431819
0.00433648
0.0043539
0.00437046
0.00438614
0.00440095
0.00441488
0.00442792
0.00444007
0.00445133
0.00446169
0.00447116
0.00447974
0.0044874
0.00449417
0.00450002
0.00450497
0.00450902
0.00451216
0.00451438
0.0045157
0.00451612
0.00451565
0.00451425
0.00451196
0.00450877
0.0045047
0.00449974
0.0044939
0.0044872
0.00447964
0.00447122
0.00446197
0.00445188
0.00444098
0.00442927
0.00441676
0.00440347
0.00438939
0.00437453
0.00435888
0.00434244
0.00432516
0.00430705
0.00428809
0.00426832
0.00424776
0.00422647
0.00420447
0.00418182
0.00415855
0.00413468
0.00411025
0.00408529
0.00405983
0.00403389
0.0040075
0.00398068
0.00395346
0.00392588
0.00389795
0.00386969
0.00384115
0.00381234
0.00378329
0.00375403
0.00372459
0.003695
0.00366527
0.00363545
0.00360556
0.00357561
0.00354561
0.00351555
0.00348535
0.00345482
0.00342355
0.00339078
0.0033558
1.37744e-05
0.000105403
0.000219905
0.000315351
0.000390014
0.000448301
0.000494762
0.000533164
0.00056644
0.000596798
0.000625857
0.000654765
0.000684315
0.00071503
0.000747237
0.000781126
0.000816789
0.000854248
0.000893479
0.000934421
0.000976992
0.00102109
0.00106662
0.00111345
0.00116147
0.00121057
0.00126064
0.00131156
0.00136324
0.00141557
0.00146847
0.00152186
0.00157566
0.00162981
0.00168423
0.00173887
0.00179368
0.00184862
0.00190364
0.00195871
0.00201378
0.00206884
0.00212385
0.00217878
0.00223361
0.00228833
0.00234289
0.0023973
0.00245152
0.00250552
0.00255931
0.00261284
0.0026661
0.00271907
0.00277173
0.00282405
0.00287601
0.00292758
0.00297874
0.00302947
0.00307974
0.00312953
0.00317881
0.00322756
0.00327576
0.00332337
0.00337038
0.00341678
0.00346253
0.00350761
0.00355202
0.00359573
0.0036387
0.00368096
0.00372254
0.00376345
0.00380371
0.0038433
0.00388224
0.00392051
0.0039581
0.00399501
0.00403121
0.00406671
0.00410148
0.00413552
0.00416881
0.00420134
0.0042331
0.00426408
0.00429427
0.00432365
0.00435222
0.00437997
0.0044069
0.00443298
0.00445822
0.0044826
0.00450611
0.00452875
0.00455051
0.00457139
0.00459138
0.00461047
0.00462866
0.00464595
0.00466233
0.00467779
0.00469233
0.00470593
0.00471861
0.00473036
0.00474118
0.00475106
0.00476
0.00476798
0.00477502
0.00478112
0.00478628
0.00479049
0.00479373
0.00479602
0.00479737
0.00479777
0.00479722
0.00479573
0.00479331
0.00478995
0.00478567
0.00478046
0.00477435
0.00476733
0.00475941
0.00475061
0.00474094
0.0047304
0.00471901
0.00470678
0.00469371
0.00467982
0.00466511
0.00464958
0.00463323
0.00461604
0.00459802
0.00457916
0.00455949
0.00453902
0.00451779
0.00449583
0.00447318
0.00444987
0.00442592
0.00440137
0.00437625
0.00435058
0.00432438
0.00429769
0.00427054
0.00424294
0.00421493
0.00418654
0.00415778
0.0041287
0.00409931
0.00406965
0.00403974
0.00400962
0.00397933
0.00394889
0.00391833
0.0038877
0.00385703
0.00382634
0.00379563
0.00376487
0.00373393
0.00370251
0.00367008
0.00363621
1.42509e-05
0.000104566
0.00022232
0.000323223
0.00040377
0.000467742
0.000519475
0.000562673
0.000600271
0.000634512
0.000667064
0.000699137
0.000731578
0.000764963
0.000799664
0.000835904
0.000873797
0.000913384
0.000954651
0.000997547
0.001042
0.00108791
0.00113518
0.0011837
0.00123337
0.00128407
0.0013357
0.00138815
0.00144132
0.00149514
0.0015495
0.00160433
0.00165955
0.00171511
0.00177093
0.00182697
0.00188317
0.00193949
0.0019959
0.00205234
0.0021088
0.00216523
0.00222162
0.00227795
0.00233418
0.0023903
0.00244628
0.00250211
0.00255777
0.00261323
0.00266849
0.00272351
0.00277828
0.00283277
0.00288698
0.00294086
0.0029944
0.00304758
0.00310037
0.00315273
0.00320466
0.00325612
0.00330709
0.00335753
0.00340743
0.00345676
0.0035055
0.00355362
0.00360111
0.00364794
0.0036941
0.00373955
0.00378431
0.0038284
0.00387183
0.00391462
0.00395676
0.00399826
0.0040391
0.00407928
0.00411878
0.0041576
0.00419573
0.00423314
0.00426982
0.00430576
0.00434094
0.00437536
0.00440899
0.00444184
0.00447387
0.00450509
0.00453549
0.00456505
0.00459376
0.00462161
0.0046486
0.00467472
0.00469994
0.00472427
0.00474769
0.00477021
0.00479181
0.00481249
0.00483225
0.00485107
0.00486897
0.00488591
0.0049019
0.00491693
0.004931
0.00494411
0.00495627
0.00496747
0.00497768
0.00498691
0.00499515
0.00500242
0.00500871
0.00501402
0.00501835
0.00502169
0.00502404
0.00502543
0.00502583
0.00502526
0.00502372
0.00502121
0.00501774
0.00501332
0.00500796
0.00500166
0.00499442
0.00498627
0.00497721
0.00496725
0.0049564
0.00494467
0.00493207
0.00491862
0.00490431
0.00488916
0.00487317
0.00485633
0.00483866
0.00482014
0.00480081
0.00478067
0.00475976
0.0047381
0.00471571
0.00469263
0.00466889
0.00464451
0.00461952
0.00459395
0.00456781
0.00454115
0.00451399
0.00448634
0.00445825
0.00442973
0.00440082
0.00437154
0.00434193
0.00431201
0.00428182
0.00425139
0.00422075
0.00418996
0.00415904
0.00412804
0.00409701
0.00406599
0.00403499
0.00400403
0.003973
0.00394172
0.00390979
0.00387693
1.46021e-05
0.000102565
0.000221853
0.000326853
0.000412352
0.000481386
0.000537966
0.000585657
0.000627341
0.000665253
0.000701082
0.000736071
0.000771111
0.000806821
0.000843612
0.000881741
0.000921352
0.000962508
0.00100521
0.00104943
0.0010951
0.00114213
0.00119044
0.00123993
0.00129049
0.00134202
0.00139442
0.00144759
0.00150145
0.00155591
0.00161088
0.00166629
0.00172208
0.00177818
0.00183453
0.00189109
0.00194782
0.00200466
0.00206159
0.00211858
0.00217559
0.0022326
0.00228959
0.00234654
0.00240343
0.00246024
0.00251695
0.00257354
0.00263001
0.00268632
0.00274247
0.00279842
0.00285418
0.0029097
0.00296497
0.00301997
0.00307467
0.00312905
0.00318307
0.00323671
0.00328995
0.00334275
0.00339508
0.00344692
0.00349824
0.00354901
0.0035992
0.00364879
0.00369776
0.00374609
0.00379375
0.00384075
0.00388711
0.00393285
0.00397796
0.00402245
0.00406631
0.00410955
0.00415215
0.00419409
0.00423537
0.00427597
0.00431587
0.00435506
0.00439353
0.00443125
0.0044682
0.00450439
0.00453979
0.00457438
0.00460816
0.00464112
0.00467324
0.0047045
0.00473491
0.00476445
0.00479312
0.00482089
0.00484775
0.00487369
0.00489871
0.0049228
0.00494596
0.00496818
0.00498945
0.00500978
0.00502916
0.00504755
0.00506497
0.0050814
0.00509685
0.00511131
0.00512479
0.00513728
0.00514877
0.00515925
0.00516872
0.0051772
0.00518467
0.00519113
0.00519658
0.00520103
0.00520447
0.00520691
0.00520834
0.00520878
0.00520822
0.00520667
0.00520413
0.00520061
0.00519612
0.00519067
0.00518426
0.0051769
0.00516861
0.00515939
0.00514925
0.0051382
0.00512626
0.00511344
0.00509974
0.00508517
0.00506974
0.00505345
0.00503632
0.00501834
0.00499954
0.00497993
0.00495953
0.00493836
0.00491645
0.00489382
0.0048705
0.00484652
0.00482189
0.00479665
0.00477083
0.00474444
0.00471752
0.00469008
0.00466217
0.00463379
0.004605
0.0045758
0.00454624
0.00451634
0.00448614
0.00445568
0.004425
0.00439413
0.00436314
0.00433205
0.00430094
0.00426986
0.00423884
0.00420792
0.00417704
0.00414606
0.00411471
0.0040828
1.48422e-05
9.96986e-05
0.000219029
0.000326814
0.000416289
0.000489679
0.000550587
0.00060237
0.000647809
0.000689097
0.000727915
0.000765521
0.000802831
0.000840498
0.000878967
0.000918528
0.000959352
0.00100153
0.00104508
0.00108999
0.00113622
0.00118368
0.00123231
0.001282
0.00133268
0.00138424
0.0014366
0.00148966
0.00154335
0.00159759
0.0016523
0.00170742
0.00176289
0.00181867
0.00187469
0.00193093
0.00198734
0.00204389
0.00210057
0.00215733
0.00221416
0.00227105
0.00232797
0.00238491
0.00244185
0.00249878
0.00255568
0.00261254
0.00266935
0.00272607
0.00278271
0.00283922
0.00289561
0.00295183
0.00300788
0.00306371
0.00311932
0.00317465
0.00322969
0.0032844
0.00333876
0.00339271
0.00344624
0.00349931
0.00355189
0.00360395
0.00365545
0.00370636
0.00375667
0.00380635
0.00385541
0.00390388
0.00395176