/*--------------------------------*- C++ -*----------------------------------*\
| =========                 |                                                 |
| \\      /  F ield         | OpenFOAM: The Open Source CFD Toolbox           |
|  \\    /   O peration     | Version:  2412                                  |
|   \\  /    A nd           | Website:  www.openfoam.com                      |
|    \\/     M anipulation  |                                                 |
\*---------------------------------------------------------------------------*/
FoamFile
{
    version     2.0;
    format      ascii;
    arch        "LSB;label=32;scalar=64";
    class       volScalarField;
    location    "0.25";
    object      p;
}
// * * * * * * * * * * * * * * * * * * * * * * * * * * * * * * * * * * * * * //

dimensions      [0 2 -2 0 0 0 0];

internalField   nonuniform List<scalar> 
12225
(
-10.3285
-9.73609
-9.07338
-8.51695
-8.0079
-7.55146
-7.15291
-6.80191
-6.48957
-6.21029
-5.95918
-5.73174
-5.52412
-5.33298
-5.15527
-4.98747
-4.82738
-4.6605
-10.7622
-9.79427
-9.1082
-8.55793
-8.0482
-7.59171
-7.19252
-6.84012
-6.52614
-6.24517
-5.99233
-5.76316
-5.55383
-5.36101
-5.18163
-5.01229
-4.85018
-4.69203
-10.9427
-9.82855
-9.14994
-8.6088
-8.0986
-7.64298
-7.24393
-6.89048
-6.57495
-6.2922
-6.03741
-5.80622
-5.59487
-5.40005
-5.21873
-5.04773
-4.88421
-4.7231
-10.9665
-9.84426
-9.17462
-8.64275
-8.13525
-7.6825
-7.28532
-6.93242
-6.61674
-6.33338
-6.07767
-5.84537
-5.63283
-5.43684
-5.25446
-5.08295
-4.91904
-4.76189
-10.8964
-9.83898
-9.17491
-8.65354
-8.15307
-7.70524
-7.31162
-6.96092
-6.64654
-6.36387
-6.1084
-5.87607
-5.66337
-5.46726
-5.28496
-5.11425
-4.95178
-4.8025
-10.7546
-9.80584
-9.15143
-8.64268
-8.15385
-7.71322
-7.32475
-6.97775
-6.66594
-6.38504
-6.1308
-5.89936
-5.6874
-5.49208
-5.31087
-5.14206
-4.98248
-4.84175
-10.552
-9.7394
-9.10518
-8.61099
-8.13827
-7.70762
-7.32605
-6.98425
-6.67626
-6.39817
-6.14609
-5.9164
-5.706
-5.51232
-5.33308
-5.16707
-5.01135
-4.87891
-10.299
-9.63707
-9.037
-8.55904
-8.10625
-7.68882
-7.3161
-6.98108
-6.67822
-6.40404
-6.15506
-5.92797
-5.71997
-5.52873
-5.35228
-5.18982
-5.03861
-4.91404
-10.0066
-9.49853
-8.94801
-8.48847
-8.05832
-7.65742
-7.29566
-6.969
-6.67263
-6.40347
-6.15855
-5.93495
-5.73015
-5.54213
-5.36923
-5.21092
-5.06464
-4.94738
-9.68582
-9.32578
-8.83959
-8.40213
-7.99618
-7.61473
-7.26606
-6.94924
-6.66062
-6.3976
-6.15769
-5.93841
-5.73759
-5.55353
-5.3848
-5.2311
-5.08997
-4.97941
-9.34892
-9.12359
-8.71337
-8.30357
-7.92275
-7.56298
-7.22937
-6.92368
-6.64391
-6.38799
-6.15393
-5.93974
-5.7436
-5.5641
-5.40004
-5.25131
-5.1153
-5.01098
-9.03691
-8.91781
-8.58363
-8.20538
-7.84851
-7.51009
-7.19193
-6.89746
-6.62655
-6.37783
-6.14977
-5.94078
-5.74942
-5.57452
-5.41507
-5.27106
-5.13954
-5.04082
-8.7419
-8.70342
-8.44507
-8.10314
-7.77048
-7.45405
-7.15265
-6.8702
-6.60863
-6.36756
-6.14591
-5.94251
-5.75624
-5.58617
-5.43147
-5.29213
-5.16553
-5.07014
-8.43481
-8.45896
-8.27945
-7.98362
-7.67969
-7.38882
-7.10814
-6.84073
-6.59051
-6.35865
-6.14473
-5.94801
-5.76776
-5.60332
-5.45403
-5.31989
-5.19861
-5.10573
-8.13768
-8.20469
-8.09684
-7.85287
-7.5814
-7.3181
-7.06138
-6.81232
-6.57591
-6.35509
-6.15037
-5.96151
-5.78816
-5.63
-5.48657
-5.35789
-5.24184
-5.15108
-7.87924
-7.97258
-7.92238
-7.72946
-7.49131
-7.25439
-7.02143
-6.79189
-6.57062
-6.36196
-6.16754
-5.98754
-5.82191
-5.67057
-5.53324
-5.41001
-5.29894
-5.20972
-7.69157
-7.79966
-7.79095
-7.64213
-7.43538
-7.22182
-7.00938
-6.79724
-6.58961
-6.39172
-6.20626
-6.03394
-5.87493
-5.72931
-5.59689
-5.47765
-5.37
-5.27991
-7.61495
-7.72728
-7.73979
-7.61815
-7.43317
-7.23625
-7.03842
-6.83918
-6.64208
-6.45257
-6.27392
-6.10718
-5.95255
-5.81004
-5.67958
-5.56092
-5.45305
-5.35728
-7.71425
-7.82128
-7.82762
-7.70097
-7.51275
-7.31401
-7.11537
-6.91612
-6.71968
-6.53126
-6.35389
-6.18839
-6.03475
-5.89276
-5.76211
-5.64209
-5.53245
-5.43002
-7.99046
-8.08488
-8.05146
-7.87989
-7.65832
-7.43561
-7.21722
-7.00187
-6.79353
-6.59673
-6.41334
-6.24341
-6.08647
-5.94197
-5.80918
-5.68704
-5.57527
-5.46824
-8.38384
-8.44195
-8.33957
-8.10514
-7.84081
-7.58585
-7.33973
-7.10195
-6.87687
-6.6676
-6.4746
-6.29716
-6.13442
-5.98544
-5.84924
-5.7246
-5.61108
-5.50273
-8.88422
-8.86395
-8.65574
-8.34596
-8.03392
-7.73993
-7.46025
-7.19675
-6.95293
-6.72955
-6.5256
-6.33972
-6.17051
-6.01661
-5.87665
-5.74921
-5.63353
-5.5239
-9.44824
-9.29266
-8.94876
-8.56589
-8.20927
-7.87575
-7.56375
-7.27712
-7.01656
-6.78032
-6.56634
-6.37271
-6.19751
-6.03892
-5.8953
-5.76505
-5.64712
-5.53641
-10.0127
-9.66666
-9.18357
-8.74577
-8.35184
-7.98231
-7.64288
-7.33721
-7.06241
-6.81501
-6.59238
-6.39205
-6.21165
-6.04899
-5.90214
-5.76936
-5.64939
-5.53779
-10.5167
-9.94818
-9.35253
-8.88072
-8.45414
-8.05365
-7.69283
-7.37235
-7.08621
-6.83003
-6.60072
-6.39531
-6.21097
-6.04524
-5.896
-5.76134
-5.63986
-5.5278
-10.9182
-10.1258
-9.45928
-8.96714
-8.51202
-8.0881
-7.71237
-7.38131
-7.08702
-6.82469
-6.59082
-6.38198
-6.19504
-6.02734
-5.8766
-5.7408
-5.61844
-5.50633
-11.1895
-10.2093
-9.50951
-9.00281
-8.52645
-8.08765
-7.70242
-7.36439
-7.06494
-6.7989
-6.56239
-6.35169
-6.16346
-5.99488
-5.84356
-5.70742
-5.58486
-5.47326
-11.2967
-10.2247
-9.51016
-8.98709
-8.4987
-8.05236
-7.66153
-7.3197
-7.01791
-6.75052
-6.51332
-6.30243
-6.11434
-5.94611
-5.79528
-5.65972
-5.53777
-5.42736
-11.1641
-10.1949
-9.47514
-8.92946
-8.43616
-7.98748
-7.59432
-7.25165
-6.95019
-6.68369
-6.44772
-6.23827
-6.05172
-5.88507
-5.7358
-5.60176
-5.48119
-5.37235
-10.6329
-10.1026
-9.43256
-8.87255
-8.3775
-7.92858
-7.53497
-7.19292
-6.89281
-6.62786
-6.39351
-6.1857
-6.00078
-5.8357
-5.68791
-5.55526
-5.43592
-5.32806
-4.71759
-4.71727
-4.71819
-4.72018
-4.7227
-4.72541
-4.72819
-4.7311
-4.7342
-4.73755
-4.74124
-4.74534
-4.74997
-4.75522
-4.76119
-4.76798
-4.77571
-4.7845
-4.79447
-4.80575
-4.81846
-4.8327
-4.84856
-4.86609
-4.88532
-4.90623
-4.92877
-4.95285
-4.97835
-5.00513
-5.03296
-5.06156
-5.09069
-5.12015
-5.14971
-5.17916
-5.20829
-5.23691
-5.26483
-5.29187
-5.31786
-5.34263
-5.36605
-5.38795
-5.4082
-5.42667
-5.44323
-5.45775
-5.47012
-5.4802
-5.48789
-5.49308
-5.49565
-5.4955
-5.49252
-5.48662
-5.47769
-5.46564
-5.45038
-5.43184
-5.40992
-5.38456
-5.35568
-5.32323
-5.28714
-5.24738
-5.20389
-5.15664
-5.1056
-5.05077
-4.99212
-4.92971
-4.86361
-4.7938
-4.72019
-4.64262
-4.56104
-4.47561
-4.3864
-4.29347
-4.19689
-4.09669
-3.99294
-3.88569
-3.775
-3.66094
-3.5436
-3.42303
-3.29934
-3.1726
-3.04292
-2.91038
-2.7751
-2.63717
-2.49671
-2.35383
-2.20865
-2.06128
-1.91186
-1.76049
-1.60733
-1.45249
-1.2961
-1.13831
-0.979249
-0.819056
-0.657871
-0.495836
-0.333092
-0.169784
-0.00605443
0.157953
0.322093
0.486223
0.6502
0.81388
0.977123
1.13979
1.30174
1.46283
1.62294
1.78193
1.93967
2.09603
2.2509
2.40416
2.55569
2.70537
2.85312
2.99882
3.14237
3.2837
3.42271
3.55933
3.69348
3.82509
3.95412
4.08049
4.20418
4.32513
4.44333
4.55875
4.67138
4.7812
4.88814
4.99214
5.09318
5.19128
5.28649
5.37881
5.46829
5.55494
5.63879
5.71988
5.79822
5.87386
5.94683
6.01716
6.0849
6.15008
6.21274
6.27291
6.33065
6.38599
6.43897
6.48965
6.53805
6.58424
6.62828
6.67024
6.71021
6.74832
6.78477
6.81985
6.85405
6.88819
6.92419
6.96518
7.02301
7.09813
-4.71734
-4.7176
-4.7186
-4.72034
-4.7223
-4.72412
-4.7257
-4.72706
-4.72845
-4.73008
-4.73213
-4.7347
-4.73785
-4.74164
-4.74617
-4.75157
-4.75795
-4.76548
-4.77431
-4.78461
-4.79651
-4.81014
-4.8256
-4.84294
-4.86217
-4.88325
-4.90608
-4.93054
-4.95645
-4.98362
-5.01182
-5.04077
-5.07025
-5.10002
-5.12986
-5.15955
-5.1889
-5.2177
-5.24578
-5.27297
-5.29911
-5.32404
-5.34763
-5.36974
-5.39022
-5.40896
-5.42582
-5.44069
-5.45345
-5.46397
-5.47215
-5.47787
-5.48102
-5.4815
-5.47919
-5.47401
-5.46584
-5.4546
-5.44019
-5.42253
-5.40155
-5.37716
-5.3493
-5.31789
-5.2829
-5.24426
-5.20194
-5.15589
-5.10609
-5.05251
-4.99512
-4.9339
-4.86881
-4.79979
-4.72673
-4.64983
-4.56928
-4.48503
-4.39707
-4.30542
-4.21011
-4.11119
-4.00871
-3.90272
-3.79329
-3.68048
-3.56436
-3.44501
-3.32251
-3.19695
-3.06842
-2.93702
-2.80285
-2.66601
-2.52662
-2.38477
-2.2406
-2.09421
-1.94573
-1.79529
-1.64301
-1.48902
-1.33346
-1.17646
-1.01814
-0.858667
-0.698161
-0.536768
-0.374629
-0.211887
-0.048685
0.114834
0.278525
0.442246
0.605853
0.769205
0.932159
1.09458
1.25632
1.41725
1.57723
1.73613
1.89383
2.05019
2.20509
2.35842
2.51006
2.6599
2.80783
2.95375
3.09756
3.23918
3.37852
3.5155
3.65004
3.78208
3.91155
4.03841
4.16261
4.2841
4.40287
4.51888
4.63212
4.74256
4.85013
4.95477
5.0565
5.15531
5.25122
5.34427
5.43447
5.52185
5.60643
5.68825
5.76732
5.84368
5.91737
5.98842
6.05687
6.12275
6.1861
6.24696
6.30537
6.36137
6.41501
6.46632
6.51536
6.56218
6.60685
6.64943
6.69004
6.72881
6.76596
6.8018
6.83687
6.87201
6.90915
6.95041
7.00642
7.07264
-4.71152
-4.71325
-4.71541
-4.71757
-4.71929
-4.72047
-4.72124
-4.72183
-4.72249
-4.7234
-4.72472
-4.72658
-4.72908
-4.73236
-4.73655
-4.7418
-4.74825
-4.75607
-4.76539
-4.77633
-4.789
-4.80345
-4.81972
-4.83779
-4.85761
-4.87908
-4.9021
-4.9265
-4.95214
-4.9788
-5.0063
-5.03442
-5.06297
-5.09174
-5.12054
-5.14919
-5.1775
-5.20531
-5.23246
-5.25878
-5.28413
-5.30837
-5.33134
-5.35293
-5.37299
-5.3914
-5.40804
-5.42277
-5.43548
-5.44605
-5.45436
-5.4603
-5.46376
-5.46462
-5.46278
-5.45813
-5.45057
-5.44002
-5.42637
-5.40953
-5.38943
-5.36598
-5.33912
-5.30877
-5.27489
-5.2374
-5.19627
-5.15145
-5.10292
-5.05063
-4.99456
-4.93469
-4.87097
-4.80338
-4.73195
-4.65668
-4.57767
-4.49492
-4.40847
-4.31834
-4.22456
-4.12717
-4.02622
-3.92176
-3.81385
-3.70255
-3.58793
-3.47007
-3.34905
-3.22495
-3.09786
-2.96788
-2.8351
-2.69963
-2.56158
-2.42106
-2.27817
-2.13304
-1.98579
-1.83653
-1.68541
-1.53254
-1.37806
-1.22209
-1.06478
-0.906264
-0.746675
-0.586155
-0.424845
-0.262886
-0.100421
0.0624085
0.225458
0.388586
0.55165
0.714507
0.877018
1.03904
1.20044
1.36108
1.52082
1.67954
1.83709
1.99337
2.14824
2.30158
2.45328
2.60323
2.75133
2.89746
3.04153
3.18345
3.32314
3.4605
3.59548
3.728
3.85799
3.98541
4.11019
4.2323
4.35171
4.46837
4.58228
4.69339
4.80168
4.90714
5.00973
5.10945
5.20629
5.30028
5.39142
5.47975
5.56528
5.64803
5.72805
5.80535
5.87997
5.95194
6.0213
6.08808
6.15232
6.21406
6.27333
6.33019
6.38465
6.43679
6.48663
6.53425
6.5797
6.62307
6.66447
6.70406
6.74205
6.77878
6.81482
6.85099
6.88914
6.93053
6.98441
7.03763
-4.69999
-4.70374
-4.70777
-4.71113
-4.71344
-4.7149
-4.71587
-4.71663
-4.71745
-4.71854
-4.72009
-4.72226
-4.72519
-4.72903
-4.73391
-4.73998
-4.74737
-4.75621
-4.76659
-4.77858
-4.79223
-4.80756
-4.82454
-4.84313
-4.86325
-4.88481
-4.90769
-4.93175
-4.95684
-4.98281
-5.00948
-5.03669
-5.06425
-5.09201
-5.11979
-5.14743
-5.17477
-5.20165
-5.22791
-5.25343
-5.27804
-5.30161
-5.324
-5.34509
-5.36473
-5.38281
-5.39918
-5.41374
-5.42635
-5.4369
-5.44526
-5.45133
-5.45497
-5.45609
-5.45457
-5.45031
-5.4432
-5.43314
-5.42004
-5.40381
-5.38436
-5.36162
-5.3355
-5.30594
-5.27287
-5.23624
-5.196
-5.1521
-5.1045
-5.05317
-4.99807
-4.93918
-4.87648
-4.80995
-4.73963
-4.66554
-4.58771
-4.50616
-4.4209
-4.33197
-4.2394
-4.14322
-4.04349
-3.94024
-3.83354
-3.72345
-3.61004
-3.49338
-3.37354
-3.25062
-3.1247
-2.99587
-2.86423
-2.72988
-2.59293
-2.45348
-2.31165
-2.16756
-2.02131
-1.87305
-1.72288
-1.57093
-1.41735
-1.26225
-1.10578
-0.948063
-0.789242
-0.629456
-0.468844
-0.307546
-0.145704
0.016539
0.179042
0.341663
0.504261
0.666693
0.828819
0.9905
1.1516
1.31198
1.4715
1.63005
1.78747
1.94366
2.09849
2.25183
2.40357
2.5536
2.70181
2.84811
2.99238
3.13455
3.27451
3.4122
3.54753
3.68043
3.81085
3.93871
4.06398
4.18661
4.30657
4.42381
4.53829
4.64997
4.75885
4.86493
4.96818
5.06859
5.16616
5.26088
5.35278
5.44186
5.52816
5.61168
5.69247
5.77054
5.84593
5.91867
5.98878
6.05632
6.1213
6.18378
6.24378
6.30135
6.35652
6.40935
6.45988
6.50817
6.55429
6.59832
6.64039
6.68063
6.71929
6.75669
6.79337
6.83005
6.86831
6.9086
6.95821
6.99911
-4.68534
-4.69122
-4.69779
-4.70306
-4.70662
-4.70902
-4.7108
-4.71233
-4.7139
-4.71578
-4.71818
-4.72127
-4.72523
-4.73017
-4.73624
-4.74355
-4.75221
-4.76229
-4.77386
-4.78695
-4.80158
-4.81772
-4.83535
-4.8544
-4.87478
-4.89642
-4.91918
-4.94296
-4.96761
-4.99301
-5.01901
-5.04545
-5.07219
-5.09909
-5.12599
-5.15275
-5.17922
-5.20525
-5.23072
-5.25548
-5.27939
-5.30231
-5.32413
-5.34469
-5.36388
-5.38157
-5.39763
-5.41193
-5.42435
-5.43477
-5.44306
-5.44911
-5.4528
-5.45401
-5.45264
-5.44857
-5.4417
-5.43193
-5.41916
-5.4033
-5.38427
-5.36197
-5.33633
-5.30728
-5.27476
-5.2387
-5.19905
-5.15577
-5.10882
-5.05815
-5.00375
-4.94558
-4.88363
-4.8179
-4.74839
-4.67513
-4.59814
-4.51743
-4.43302
-4.34494
-4.25323
-4.15791
-4.05904
-3.95666
-3.85083
-3.7416
-3.62905
-3.51325
-3.39427
-3.2722
-3.14712
-3.01913
-2.88831
-2.75478
-2.61863
-2.47997
-2.33892
-2.19558
-2.05008
-1.90254
-1.75308
-1.60183
-1.44891
-1.29446
-1.13861
-0.981495
-0.823251
-0.664016
-0.503929
-0.343131
-0.181761
-0.0199616
0.142126
0.304361
0.466602
0.628708
0.790538
0.951955
1.11282
1.273
1.43235
1.59076
1.74808
1.90419
2.05897
2.2123
2.36407
2.51415
2.66245
2.80886
2.95328
3.09562
3.23579
3.3737
3.50929
3.64248
3.77321
3.90142
4.02706
4.15008
4.27043
4.38808
4.50298
4.61509
4.72439
4.83089
4.93459
5.03548
5.13354
5.22878
5.32121
5.41083
5.49768
5.58176
5.66311
5.74175
5.8177
5.89101
5.96169
6.02979
6.09534
6.15838
6.21893
6.27704
6.33276
6.38612
6.43718
6.48598
6.53261
6.57714
6.61968
6.66039
6.69948
6.73726
6.77419
6.81085
6.84846
6.88675
6.93157
6.96201
-4.67138
-4.67918
-4.68824
-4.69553
-4.70063
-4.70431
-4.70726
-4.7099
-4.7126
-4.71563
-4.71922
-4.72357
-4.72882
-4.73511
-4.74255
-4.75122
-4.7612
-4.77254
-4.78527
-4.79941
-4.81493
-4.83182
-4.85001
-4.86945
-4.89006
-4.91174
-4.9344
-4.95793
-4.9822
-5.00711
-5.03253
-5.05832
-5.08436
-5.11052
-5.13667
-5.16266
-5.18838
-5.21369
-5.23845
-5.26253
-5.28581
-5.30816
-5.32943
-5.34951
-5.36827
-5.38558
-5.4013
-5.41533
-5.42752
-5.43775
-5.44591
-5.45187
-5.45551
-5.45672
-5.45538
-5.45138
-5.44462
-5.43499
-5.42239
-5.40673
-5.38792
-5.36588
-5.34052
-5.31178
-5.27959
-5.24388
-5.20461
-5.16173
-5.11519
-5.06496
-5.01102
-4.95333
-4.8919
-4.82671
-4.75776
-4.68507
-4.60864
-4.52851
-4.44468
-4.35719
-4.26606
-4.17134
-4.07307
-3.97129
-3.86606
-3.75744
-3.6455
-3.5303
-3.41193
-3.29047
-3.16599
-3.0386
-2.90838
-2.77544
-2.63988
-2.5018
-2.36132
-2.21854
-2.0736
-1.9266
-1.77767
-1.62693
-1.47452
-1.32056
-1.16518
-1.00852
-0.850723
-0.691913
-0.532232
-0.371821
-0.21082
-0.0493687
0.112392
0.27432
0.436276
0.598119
0.759709
0.920908
1.08158
1.24159
1.40079
1.55907
1.7163
1.87233
2.02707
2.18037
2.33213
2.48224
2.63058
2.77706
2.92157
3.06402
3.20433
3.34241
3.47818
3.61158
3.74254
3.87099
3.99688
4.12017
4.24081
4.35875
4.47394
4.58635
4.69597
4.80279
4.90682
5.00805
5.10648
5.20209
5.29491
5.38494
5.4722
5.55671
5.63848
5.71756
5.79395
5.86769
5.93882
6.00736
6.07335
6.13682
6.19781
6.25636
6.3125
6.36628
6.41775
6.46696
6.51397
6.55887
6.60177
6.64279
6.68214
6.72006
6.75696
6.79322
6.82972
6.86567
6.90604
6.92772
-4.66148
-4.67048
-4.6814
-4.69047
-4.69707
-4.70208
-4.70627
-4.71014
-4.71407
-4.71835
-4.72322
-4.72887
-4.73545
-4.74306
-4.7518
-4.76174
-4.77293
-4.78539
-4.79914
-4.81417
-4.83045
-4.84794
-4.8666
-4.88636
-4.90714
-4.92887
-4.95144
-4.97477
-4.99875
-5.02327
-5.04824
-5.07352
-5.09901
-5.12458
-5.15012
-5.17551
-5.20062
-5.22533
-5.24952
-5.27305
-5.2958
-5.31765
-5.33847
-5.35813
-5.37651
-5.39347
-5.40888
-5.42263
-5.43458
-5.44462
-5.4526
-5.45843
-5.46196
-5.46309
-5.4617
-5.45768
-5.45091
-5.4413
-5.42875
-5.41316
-5.39443
-5.37249
-5.34726
-5.31866
-5.28662
-5.25109
-5.21202
-5.16934
-5.12303
-5.07305
-5.01937
-4.96197
-4.90084
-4.83597
-4.76737
-4.69502
-4.61895
-4.53918
-4.45572
-4.3686
-4.27785
-4.18352
-4.08564
-3.98425
-3.87943
-3.77122
-3.65969
-3.54491
-3.42696
-3.30591
-3.18186
-3.05489
-2.9251
-2.79259
-2.65745
-2.5198
-2.37974
-2.23738
-2.09285
-1.94625
-1.79773
-1.64738
-1.49536
-1.34178
-1.18677
-1.03048
-0.873025
-0.714552
-0.555197
-0.395099
-0.234398
-0.073233
0.0882556
0.249928
0.411643
0.57326
0.734641
0.895647
1.05614
1.21599
1.37506
1.53322
1.69034
1.84629
2.00095
2.15421
2.30593
2.45603
2.60437
2.75087
2.89543
3.03795
3.17833
3.31651
3.4524
3.58593
3.71703
3.84565
3.97172
4.09519
4.21602
4.33416
4.44956
4.56219
4.67204
4.7791
4.88338
4.98487
5.08357
5.17948
5.27259
5.36294
5.45051
5.53535
5.61746
5.69687
5.77361
5.8477
5.91918
5.98807
6.05441
6.11824
6.17958
6.23847
6.29496
6.34908
6.40088
6.45041
6.49772
6.54291
6.58604
6.62726
6.66672
6.70463
6.74127
6.77689
6.81206
6.84559
6.882
6.89633
-4.65711
-4.66659
-4.67854
-4.68887
-4.6967
-4.70288
-4.70822
-4.71324
-4.71833
-4.72378
-4.72983
-4.73665
-4.7444
-4.75317
-4.76303
-4.77403
-4.78622
-4.79959
-4.81416
-4.8299
-4.84678
-4.86476
-4.88379
-4.9038
-4.92473
-4.9465
-4.96902
-4.99221
-5.01598
-5.04023
-5.06486
-5.08977
-5.11485
-5.13999
-5.16508
-5.19001
-5.21467
-5.23892
-5.26266
-5.28576
-5.30811
-5.32957
-5.35002
-5.36933
-5.38738
-5.40404
-5.41918
-5.43268
-5.4444
-5.45423
-5.46203
-5.46768
-5.47107
-5.47206
-5.47056
-5.46643
-5.45958
-5.4499
-5.43729
-5.42165
-5.40289
-5.38093
-5.35568
-5.32709
-5.29507
-5.25957
-5.22053
-5.17791
-5.13167
-5.08178
-5.0282
-4.97092
-4.90993
-4.84521
-4.77676
-4.70459
-4.62871
-4.54912
-4.46586
-4.37894
-4.28841
-4.19429
-4.09664
-3.99549
-3.89091
-3.78295
-3.67168
-3.55717
-3.43949
-3.31873
-3.19496
-3.06829
-2.93879
-2.80658
-2.67175
-2.5344
-2.39464
-2.2526
-2.10837
-1.96209
-1.81387
-1.66383
-1.51211
-1.35882
-1.20411
-1.0481
-0.890931
-0.732734
-0.573647
-0.413809
-0.253359
-0.0924366
0.0688189
0.230268
0.391772
0.553188
0.71438
0.875208
1.03554
1.19523
1.35416
1.51219
1.6692
1.82505
1.97962
2.1328
2.28447
2.43452
2.58284
2.72933
2.87388
3.01641
3.15683
3.29505
3.431
3.5646
3.69578
3.82449
3.95066
4.07425
4.1952
4.31347
4.42901
4.5418
4.65182
4.75905
4.86352
4.9652
5.0641
5.16022
5.25356
5.34413
5.43195
5.51703
5.5994
5.67908
5.75609
5.83045
5.90221
5.97139
6.03801
6.10212
6.16375
6.22293
6.2797
6.33409
6.38615
6.43593
6.48348
6.52886
6.57216
6.61347
6.65293
6.69068
6.72692
6.76173
6.79547
6.8266
6.85951
6.86771
-4.65849
-4.66782
-4.68001
-4.69098
-4.69962
-4.70668
-4.71294
-4.71892
-4.72497
-4.73139
-4.73841
-4.74621
-4.7549
-4.76458
-4.77532
-4.78715
-4.8001
-4.81417
-4.82936
-4.84563
-4.86297
-4.88132
-4.90063
-4.92084
-4.94189
-4.9637
-4.98621
-5.00932
-5.03295
-5.05702
-5.08143
-5.10609
-5.13089
-5.15573
-5.18051
-5.20512
-5.22945
-5.25339
-5.27681
-5.2996
-5.32164
-5.3428
-5.36297
-5.38201
-5.3998
-5.41621
-5.43112
-5.44439
-5.45589
-5.46551
-5.47311
-5.47858
-5.48178
-5.4826
-5.48092
-5.47663
-5.46963
-5.45979
-5.44703
-5.43125
-5.41236
-5.39027
-5.3649
-5.33619
-5.30407
-5.26847
-5.22936
-5.18667
-5.14037
-5.09043
-5.03683
-4.97954
-4.91855
-4.85384
-4.78542
-4.71329
-4.63744
-4.55791
-4.47471
-4.38787
-4.29742
-4.20339
-4.10584
-4.00481
-3.90035
-3.79253
-3.6814
-3.56705
-3.44954
-3.32895
-3.20537
-3.07889
-2.9496
-2.81759
-2.68297
-2.54585
-2.40632
-2.26451
-2.12052
-1.97447
-1.82649
-1.67669
-1.52521
-1.37217
-1.2177
-1.06193
-0.904991
-0.747026
-0.588169
-0.428556
-0.268326
-0.107619
0.0534272
0.214674
0.375982
0.53721
0.698221
0.858878
1.01904
1.17858
1.33736
1.49526
1.65213
1.80787
1.96234
2.11542
2.26701
2.41698
2.56524
2.71168
2.85619
2.9987
3.1391
3.27731
3.41327
3.54688
3.67809
3.80684
3.93306
4.0567
4.17771
4.29606
4.41168
4.52457
4.63469
4.74205
4.84664
4.94845
5.04749
5.14376
5.23726
5.32801
5.41601
5.50128
5.58384
5.66372
5.74094
5.81552
5.8875
5.9569
6.02376
6.0881
6.14996
6.20936
6.26636
6.32097
6.37324
6.42321
6.47093
6.51645
6.55984
6.60117
6.64053
6.67802
6.71374
6.74766
6.77991
6.80877
6.83859
6.84167
-4.66494
-4.67365
-4.68541
-4.6964
-4.7054
-4.71299
-4.71988
-4.72653
-4.7333
-4.74045
-4.74821
-4.75672
-4.76611
-4.77646
-4.78783
-4.80026
-4.81375
-4.82831
-4.84394
-4.86059
-4.87824
-4.89685
-4.91637
-4.93673
-4.95787
-4.97974
-5.00225
-5.02533
-5.04889
-5.07286
-5.09714
-5.12165
-5.14629
-5.17095
-5.19554
-5.21996
-5.24408
-5.26781
-5.29102
-5.3136
-5.33543
-5.35639
-5.37635
-5.39518
-5.41277
-5.42897
-5.44367
-5.45673
-5.46803
-5.47744
-5.48483
-5.49008
-5.49307
-5.49367
-5.49177
-5.48726
-5.48003
-5.46997
-5.45699
-5.44098
-5.42187
-5.39956
-5.37398
-5.34506
-5.31274
-5.27695
-5.23765
-5.19479
-5.14834
-5.09825
-5.04452
-4.98712
-4.92602
-4.86123
-4.79273
-4.72052
-4.64462
-4.56504
-4.48181
-4.39494
-4.30448
-4.21045
-4.11292
-4.01191
-3.90749
-3.79972
-3.68867
-3.57439
-3.45697
-3.33649
-3.21303
-3.08668
-2.95753
-2.82567
-2.69121
-2.55425
-2.4149
-2.27327
-2.12947
-1.98361
-1.83583
-1.68624
-1.53496
-1.38213
-1.22787
-1.07231
-0.915586
-0.757832
-0.599184
-0.43978
-0.279756
-0.119252
0.0415944
0.202643
0.363756
0.524794
0.685621
0.846099
1.00609
1.16547
1.32409
1.48183
1.63856
1.79416
1.9485
2.10146
2.25294
2.40281
2.55097
2.69732
2.84176
2.98419
3.12454
3.2627
3.39862
3.5322
3.66339
3.79212
3.91834
4.04199
4.16301
4.28138
4.39704
4.50997
4.62016
4.72758
4.83224
4.93414
5.03327
5.12964
5.22325
5.31411
5.40224
5.48765
5.57036
5.6504
5.72778
5.80253
5.87468
5.94426
6.0113
6.07582
6.13787
6.19746
6.25464
6.30943
6.36187
6.41199
6.45983
6.50544
6.54886
6.59014
6.62934
6.66649
6.70162
6.73457
6.76535
6.79208
6.81919
6.818
-4.67526
-4.68301
-4.69382
-4.70432
-4.71324
-4.721
-4.72819
-4.73525
-4.74248
-4.75012
-4.75836
-4.76735
-4.77721
-4.788
-4.79979
-4.8126
-4.82644
-4.84132
-4.85722
-4.87412
-4.89198
-4.91076
-4.93041
-4.95088
-4.9721
-4.99402
-5.01655
-5.03963
-5.06318
-5.08712
-5.11136
-5.1358
-5.16037
-5.18495
-5.20945
-5.23376
-5.25778
-5.2814
-5.30449
-5.32694
-5.34863
-5.36945
-5.38925
-5.40792
-5.42533
-5.44136
-5.45586
-5.46872
-5.47981
-5.48899
-5.49614
-5.50115
-5.50388
-5.50421
-5.50204
-5.49726
-5.48974
-5.47939
-5.46611
-5.44981
-5.4304
-5.4078
-5.38193
-5.35273
-5.32013
-5.28407
-5.24451
-5.2014
-5.15472
-5.10442
-5.05049
-4.99289
-4.93162
-4.86666
-4.798
-4.72565
-4.64962
-4.56993
-4.48659
-4.39964
-4.3091
-4.21502
-4.11744
-4.01641
-3.91198
-3.80422
-3.69318
-3.57894
-3.46158
-3.34116
-3.21778
-3.09152
-2.96247
-2.83074
-2.69641
-2.55959
-2.42039
-2.27892
-2.13529
-1.98961
-1.84201
-1.6926
-1.54152
-1.38888
-1.23482
-1.07947
-0.922949
-0.765405
-0.606968
-0.447775
-0.287961
-0.127665
0.0329744
0.193818
0.354727
0.515565
0.676195
0.83648
0.996284
1.15547
1.31391
1.47148
1.62804
1.78347
1.93765
2.09047
2.24179
2.39153
2.53956
2.68578
2.83011
2.97244
3.11268
3.25075
3.38658
3.5201
3.65122
3.77989
3.90606
4.02966
4.15066
4.269
4.38465
4.49759
4.60778
4.71523
4.81992
4.92186
5.02104
5.11746
5.21114
5.30208
5.3903
5.4758
5.55862
5.63876
5.71626
5.79114
5.86343
5.93315
6.00033
6.06501
6.12721
6.18695
6.24428
6.29921
6.35179
6.40202
6.44995
6.49561
6.53902
6.5802
6.61918
6.65594
6.69042
6.7224
6.75176
6.7765
6.80123
6.79649
-4.688
-4.69459
-4.70409
-4.71368
-4.72215
-4.72976
-4.73698
-4.74418
-4.75162
-4.75951
-4.76802
-4.77729
-4.78741
-4.79845
-4.81047
-4.82349
-4.83753
-4.85259
-4.86864
-4.88567
-4.90365
-4.92253
-4.94226
-4.9628
-4.98409
-5.00605
-5.02863
-5.05174
-5.07532
-5.09927
-5.12352
-5.14797
-5.17252
-5.19709
-5.22157
-5.24586
-5.26984
-5.2934
-5.31642
-5.33879
-5.36039
-5.38109
-5.40076
-5.41929
-5.43653
-5.45237
-5.46667
-5.47931
-5.49015
-5.49908
-5.50596
-5.51067
-5.51309
-5.51311
-5.51061
-5.50548
-5.49762
-5.48692
-5.47329
-5.45663
-5.43686
-5.41391
-5.38769
-5.35814
-5.32521
-5.28883
-5.24896
-5.20556
-5.15859
-5.10804
-5.05386
-4.99603
-4.93453
-4.86935
-4.80049
-4.72796
-4.65176
-4.57191
-4.48844
-4.40136
-4.31073
-4.21656
-4.11892
-4.01784
-3.91338
-3.8056
-3.69457
-3.58036
-3.46303
-3.34267
-3.21937
-3.09319
-2.96425
-2.83263
-2.69843
-2.56175
-2.4227
-2.28139
-2.13793
-1.99243
-1.84502
-1.69581
-1.54493
-1.3925
-1.23865
-1.08351
-0.927214
-0.769892
-0.611679
-0.452711
-0.293123
-0.133054
0.027359
0.187976
0.34866
0.509274
0.669682
0.829746
0.989332
1.14831
1.30654
1.46389
1.62025
1.77549
1.92947
2.0821
2.23324
2.3828
2.53066
2.67672
2.82089
2.96307
3.10317
3.24111
3.37682
3.51021
3.64122
3.76979
3.89587
4.01938
4.1403
4.25858
4.37418
4.48707
4.59724
4.70467
4.80935
4.91129
5.01048
5.10692
5.20063
5.29161
5.37987
5.46544
5.54832
5.62854
5.70613
5.78111
5.8535
5.92333
5.99064
6.05543
6.11776
6.17763
6.23508
6.29013
6.34281
6.39313
6.44112
6.48679
6.53015
6.5712
6.60992
6.64625
6.68008
6.71108
6.73908
6.76202
6.78463
6.77696
-4.7017
-4.70703
-4.71501
-4.72341
-4.73113
-4.73832
-4.74532
-4.75243
-4.75987
-4.76782
-4.77642
-4.78579
-4.79602
-4.80716
-4.81927
-4.83238
-4.84649
-4.86161
-4.87772
-4.8948
-4.91283
-4.93175
-4.95153
-4.97211
-4.99344
-5.01544
-5.03806
-5.06122
-5.08484
-5.10884
-5.13312
-5.15761
-5.18219
-5.20679
-5.23127
-5.25555
-5.27951
-5.30304
-5.326
-5.3483
-5.3698
-5.39037
-5.4099
-5.42825
-5.4453
-5.46092
-5.47497
-5.48734
-5.49789
-5.5065
-5.51304
-5.51741
-5.51947
-5.51911
-5.51622
-5.51069
-5.50243
-5.49132
-5.47728
-5.46022
-5.44005
-5.4167
-5.39009
-5.36017
-5.32687
-5.29015
-5.24995
-5.20623
-5.15898
-5.10814
-5.0537
-4.99561
-4.93387
-4.86846
-4.79939
-4.72666
-4.65029
-4.57028
-4.48667
-4.39948
-4.30874
-4.2145
-4.1168
-4.01568
-3.91121
-3.80344
-3.69243
-3.57826
-3.46099
-3.34071
-3.21749
-3.09143
-2.96261
-2.83112
-2.69707
-2.56056
-2.42168
-2.28056
-2.1373
-1.99201
-1.84481
-1.69582
-1.54517
-1.39297
-1.23936
-1.08446
-0.928413
-0.771343
-0.613385
-0.454673
-0.295344
-0.135534
0.024618
0.184975
0.345399
0.505753
0.665902
0.825709
0.98504
1.14376
1.30174
1.45885
1.61497
1.76996
1.92371
2.07611
2.22703
2.37637
2.52401
2.66987
2.81384
2.95582
3.09574
3.2335
3.36903
3.50226
3.63312
3.76155
3.88748
4.01087
4.13168
4.24985
4.36535
4.47816
4.58826
4.69563
4.80027
4.90217
5.00134
5.09777
5.19147
5.28245
5.37073
5.45633
5.53925
5.61953
5.69717
5.77222
5.84469
5.91461
5.98201
6.0469
6.10933
6.16931
6.22686
6.28201
6.33477
6.38516
6.43319
6.47885
6.52214
6.56303
6.60147
6.63736
6.67051
6.70057
6.72729
6.74858
6.7693
6.75923
-4.71503
-4.7191
-4.72547
-4.73249
-4.73926
-4.74581
-4.7524
-4.75925
-4.76652
-4.77437
-4.78292
-4.79225
-4.80246
-4.81359
-4.82569
-4.83879
-4.85289
-4.86799
-4.88409
-4.90116
-4.91917
-4.93809
-4.95786
-4.97845
-4.99979
-5.02181
-5.04446
-5.06764
-5.09129
-5.11531
-5.13962
-5.16413
-5.18873
-5.21332
-5.23779
-5.26203
-5.28594
-5.30938
-5.33225
-5.35441
-5.37575
-5.39614
-5.41545
-5.43356
-5.45034
-5.46566
-5.47939
-5.49142
-5.5016
-5.50983
-5.51597
-5.51992
-5.52155
-5.52076
-5.51743
-5.51146
-5.50275
-5.4912
-5.47673
-5.45924
-5.43865
-5.41489
-5.3879
-5.3576
-5.32394
-5.28688
-5.24637
-5.20237
-5.15484
-5.10374
-5.04903
-4.9907
-4.92873
-4.86312
-4.79387
-4.72097
-4.64445
-4.56432
-4.4806
-4.39333
-4.30254
-4.20826
-4.11054
-4.00943
-3.90498
-3.79725
-3.68631
-3.57222
-3.45506
-3.3349
-3.21182
-3.08591
-2.95726
-2.82596
-2.6921
-2.5558
-2.41714
-2.27625
-2.13323
-1.98819
-1.84125
-1.69253
-1.54215
-1.39023
-1.2369
-1.0823
-0.926542
-0.769768
-0.612109
-0.4537
-0.294675
-0.135171
0.0246753
0.184726
0.344843
0.504892
0.664736
0.824239
0.983267
1.14169
1.29937
1.45619
1.61201
1.76672
1.92019
2.07231
2.22295
2.37202
2.51941
2.66501
2.80873
2.95047
3.09016
3.22769
3.36301
3.49603
3.62669
3.75493
3.88068
4.00391
4.12455
4.24258
4.35795
4.47064
4.58063
4.68791
4.79247
4.8943
4.9934
5.08979
5.18346
5.27442
5.36269
5.44828
5.53122
5.61152
5.68921
5.7643
5.83683
5.90681
5.97429
6.03927
6.10178
6.16185
6.21949
6.27472
6.32756
6.378
6.42605
6.47169
6.51489
6.55561
6.59375
6.62919
6.66169
6.69084
6.71636
6.73615
6.75517
6.74318
-4.72685
-4.72973
-4.73449
-4.74004
-4.74572
-4.7515
-4.75754
-4.76398
-4.77096
-4.7786
-4.78698
-4.79619
-4.80629
-4.81733
-4.82935
-4.84236
-4.85637
-4.87139
-4.8874
-4.90439
-4.92232
-4.94117
-4.96088
-4.9814
-5.00268
-5.02465
-5.04725
-5.07039
-5.09399
-5.11796
-5.14222
-5.16666
-5.19118
-5.21567
-5.24003
-5.26414
-5.28788
-5.31114
-5.3338
-5.35572
-5.3768
-5.39689
-5.41589
-5.43365
-5.45006
-5.46499
-5.47832
-5.48991
-5.49966
-5.50743
-5.51312
-5.5166
-5.51776
-5.5165
-5.5127
-5.50627
-5.4971
-5.48511
-5.47021
-5.4523
-5.43132
-5.40718
-5.37983
-5.34919
-5.31523
-5.27788
-5.23711
-5.19288
-5.14511
-5.09379
-5.03887
-4.98035
-4.91821
-4.85245
-4.78307
-4.71007
-4.63347
-4.55329
-4.46954
-4.38225
-4.29147
-4.19722
-4.09956
-3.99853
-3.89418
-3.78658
-3.67577
-3.56184
-3.44485
-3.32489
-3.20202
-3.07633
-2.94792
-2.81687
-2.68328
-2.54725
-2.40888
-2.26828
-2.12557
-1.98084
-1.83423
-1.68583
-1.53579
-1.38421
-1.23123
-1.07698
-0.921573
-0.765155
-0.607854
-0.449805
-0.291142
-0.132001
0.0274808
0.187167
0.346922
0.506608
0.66609
0.825233
0.983904
1.14197
1.2993
1.45577
1.61125
1.76561
1.91875
2.07053
2.22085
2.36961
2.51668
2.66197
2.80539
2.94685
3.08625
3.22351
3.35856
3.49133
3.62175
3.74975
3.87528
3.99829
4.11874
4.23658
4.35178
4.46432
4.57417
4.68132
4.78576
4.88749
4.98651
5.08281
5.17642
5.26733
5.35557
5.44114
5.52407
5.60437
5.68208
5.7572
5.82977
5.89981
5.96734
6.03239
6.09498
6.15513
6.21285
6.26815
6.32105
6.37154
6.4196
6.46521
6.50832
6.54886
6.58671
6.6217
6.65356
6.68186
6.70627
6.72472
6.74219
6.72868
-4.73662
-4.73855
-4.74172
-4.74576
-4.75025
-4.75514
-4.76049
-4.76641
-4.77299
-4.78031
-4.78843
-4.79742
-4.80732
-4.81818
-4.83001
-4.84283
-4.85665
-4.87147
-4.88727
-4.90405
-4.92176
-4.94038
-4.95987
-4.98017
-5.00123
-5.02298
-5.04535
-5.06827
-5.09165
-5.1154
-5.13942
-5.16361
-5.18787
-5.21209
-5.23616
-5.25996
-5.28337
-5.30628
-5.32856
-5.35009
-5.37076
-5.39042
-5.40897
-5.42627
-5.4422
-5.45665
-5.46948
-5.48058
-5.48982
-5.49709
-5.50228
-5.50527
-5.50595
-5.50421
-5.49996
-5.49308
-5.48349
-5.4711
-5.45581
-5.43754
-5.41622
-5.39178
-5.36415
-5.33327
-5.29909
-5.26157
-5.22064
-5.17624
-5.12832
-5.07685
-5.02182
-4.9632
-4.90099
-4.83518
-4.76578
-4.69278
-4.61621
-4.53607
-4.4524
-4.36521
-4.27455
-4.18045
-4.08295
-3.98211
-3.87797
-3.77059
-3.66003
-3.54636
-3.42965
-3.30998
-3.18742
-3.06206
-2.93398
-2.80328
-2.67006
-2.5344
-2.39641
-2.25621
-2.11389
-1.96957
-1.82337
-1.67539
-1.52577
-1.37462
-1.22207
-1.06825
-0.91328
-0.7573
-0.60044
-0.442831
-0.28461
-0.125911
0.0331298
0.192376
0.351691
0.510939
0.669985
0.828695
0.986936
1.14457
1.30148
1.45753
1.6126