/*--------------------------------*- C++ -*----------------------------------*\
| =========                 |                                                 |
| \\      /  F ield         | OpenFOAM: The Open Source CFD Toolbox           |
|  \\    /   O peration     | Version:  2412                                  |
|   \\  /    A nd           | Website:  www.openfoam.com                      |
|    \\/     M anipulation  |                                                 |
\*---------------------------------------------------------------------------*/
FoamFile
{
    version     2.0;
    format      ascii;
    arch        "LSB;label=32;scalar=64";
    class       surfaceScalarField;
    location    "0.25";
    object      phi;
}
// * * * * * * * * * * * * * * * * * * * * * * * * * * * * * * * * * * * * * //

dimensions      [0 3 -1 0 0 0 0];

oriented        oriented;

internalField   nonuniform List<scalar> 
24170
(
1.36706e-07
-5.71619e-08
1.95622e-07
-5.89156e-08
2.5792e-07
-6.22983e-08
3.11676e-07
-5.37563e-08
3.61816e-07
-5.01401e-08
4.07928e-07
-4.61118e-08
4.49577e-07
-4.16486e-08
4.87104e-07
-3.75271e-08
5.20895e-07
-3.37915e-08
5.51289e-07
-3.03931e-08
5.78608e-07
-2.73193e-08
6.03145e-07
-2.45369e-08
6.25142e-07
-2.1997e-08
6.44775e-07
-1.96328e-08
6.62179e-07
-1.74045e-08
6.77226e-07
-1.50466e-08
6.89911e-07
-1.26852e-08
-8.02816e-09
6.97939e-07
3.26112e-07
-1.24822e-07
3.94133e-07
-1.26937e-07
4.55889e-07
-1.24054e-07
5.1419e-07
-1.12057e-07
5.67686e-07
-1.03636e-07
6.16645e-07
-9.50705e-08
6.61289e-07
-8.62929e-08
7.01843e-07
-7.80808e-08
7.38603e-07
-7.05516e-08
7.71889e-07
-6.36798e-08
8.02008e-07
-5.7438e-08
8.29233e-07
-5.17615e-08
8.53795e-07
-4.65592e-08
8.75874e-07
-4.1712e-08
8.95583e-07
-3.71133e-08
9.12919e-07
-3.23823e-08
9.27971e-07
-2.7738e-08
-1.99307e-08
9.39874e-07
5.17245e-07
-1.71611e-07
5.79152e-07
-1.88844e-07
6.38213e-07
-1.83115e-07
6.95372e-07
-1.69216e-07
7.48187e-07
-1.56452e-07
7.96795e-07
-1.43678e-07
8.41442e-07
-1.3094e-07
8.82263e-07
-1.18902e-07
9.19476e-07
-1.07764e-07
9.53343e-07
-9.75467e-08
9.84125e-07
-8.82201e-08
1.01206e-06
-7.96992e-08
1.03737e-06
-7.18617e-08
1.0602e-06
-6.45491e-08
1.08068e-06
-5.75911e-08
1.0989e-06
-5.06053e-08
1.11469e-06
-4.3525e-08
-3.34914e-08
1.12825e-06
7.4348e-07
-1.95421e-07
7.91922e-07
-2.37286e-07
8.43833e-07
-2.35026e-07
8.96368e-07
-2.2175e-07
9.46032e-07
-2.06116e-07
9.92314e-07
-1.8996e-07
1.03523e-06
-1.73856e-07
1.07478e-06
-1.58452e-07
1.11107e-06
-1.44058e-07
1.14429e-06
-1.30762e-07
1.17462e-06
-1.18554e-07
1.20227e-06
-1.07344e-07
1.2274e-06
-9.69919e-08
1.25016e-06
-8.73148e-08
1.27067e-06
-7.80982e-08
1.28903e-06
-6.89666e-08
1.30515e-06
-5.96451e-08
-4.80218e-08
1.31968e-06
1.01492e-06
-1.99876e-07
1.04731e-06
-2.69671e-07
1.08854e-06
-2.76254e-07
1.1334e-06
-2.66614e-07
1.17753e-06
-2.50246e-07
1.21953e-06
-2.31959e-07
1.25903e-06
-2.13351e-07
1.29582e-06
-1.95249e-07
1.32989e-06
-1.7812e-07
1.36128e-06
-1.62158e-07
1.39012e-06
-1.47396e-07
1.41654e-06
-1.33759e-07
1.44066e-06
-1.21111e-07
1.4626e-06
-1.09258e-07
1.48247e-06
-9.79669e-08
1.50039e-06
-8.68825e-08
1.5164e-06
-7.56559e-08
-6.28232e-08
1.5312e-06
1.33808e-06
-1.90517e-07
1.35427e-06
-2.85857e-07
1.38245e-06
-3.04439e-07
1.41696e-06
-3.01126e-07
1.45317e-06
-2.86455e-07
1.48885e-06
-2.67635e-07
1.52314e-06
-2.47643e-07
1.55561e-06
-2.27716e-07
1.58603e-06
-2.08547e-07
1.61435e-06
-1.90479e-07
1.64058e-06
-1.73619e-07
1.66475e-06
-1.57937e-07
1.68696e-06
-1.43313e-07
1.70727e-06
-1.29569e-07
1.72577e-06
-1.16473e-07
1.7426e-06
-1.03713e-07
1.7579e-06
-9.0951e-08
-7.72129e-08
1.77229e-06
1.71767e-06
-1.72907e-07
1.7193e-06
-2.87489e-07
1.73353e-06
-3.18671e-07
1.75572e-06
-3.23314e-07
1.78184e-06
-3.12573e-07
1.80918e-06
-2.94975e-07
1.83645e-06
-2.74909e-07
1.86294e-06
-2.54204e-07
1.88824e-06
-2.33849e-07
1.91213e-06
-2.14376e-07
1.93452e-06
-1.96005e-07
1.95536e-06
-1.78771e-07
1.97464e-06
-1.62602e-07
1.99242e-06
-1.47346e-07
2.00875e-06
-1.32803e-07
2.02376e-06
-1.18717e-07
2.03761e-06
-1.04808e-07
-9.04573e-08
2.05086e-06
2.15734e-06
-1.51553e-07
2.14717e-06
-2.77327e-07
2.14805e-06
-3.19547e-07
2.15705e-06
-3.32314e-07
2.17149e-06
-3.27009e-07
2.18875e-06
-3.12242e-07
2.20729e-06
-2.93448e-07
2.22619e-06
-2.73104e-07
2.24487e-06
-2.52528e-07
2.26296e-06
-2.32465e-07
2.28023e-06
-2.13279e-07
2.29656e-06
-1.95096e-07
2.31186e-06
-1.77908e-07
2.32613e-06
-1.61615e-07
2.33939e-06
-1.46064e-07
2.35174e-06
-1.31065e-07
2.36335e-06
-1.16417e-07
-1.01758e-07
2.37465e-06
2.66011e-06
-1.29475e-07
2.64127e-06
-2.58485e-07
2.63057e-06
-3.0885e-07
2.6268e-06
-3.28541e-07
2.62889e-06
-3.291e-07
2.63493e-06
-3.18283e-07
2.64341e-06
-3.01925e-07
2.65334e-06
-2.83031e-07
2.66403e-06
-2.63217e-07
2.675e-06
-2.43436e-07
2.68592e-06
-2.24201e-07
2.69657e-06
-2.05748e-07
2.70681e-06
-1.88148e-07
2.71656e-06
-1.71367e-07
2.72581e-06
-1.55313e-07
2.73461e-06
-1.39868e-07
2.74311e-06
-1.24915e-07
-1.10271e-07
2.75163e-06
3.22874e-06
-1.08353e-07
3.204e-06
-2.33752e-07
3.18408e-06
-2.88925e-07
3.16904e-06
-3.13507e-07
3.15924e-06
-3.19291e-07
3.15377e-06
-3.1282e-07
3.1515e-06
-2.99652e-07
3.15153e-06
-2.83066e-07
3.1532e-06
-2.64887e-07
3.15598e-06
-2.46216e-07
3.15948e-06
-2.27699e-07
3.16341e-06
-2.0968e-07
3.16758e-06
-1.92312e-07
3.17185e-06
-1.75637e-07
3.17616e-06
-1.5963e-07
3.18054e-06
-1.4424e-07
3.18506e-06
-1.29435e-07
-1.15145e-07
3.18993e-06
3.8657e-06
-8.90288e-08
3.83718e-06
-2.05226e-07
3.81026e-06
-2.62002e-07
3.78607e-06
-2.89319e-07
3.76578e-06
-2.99008e-07
3.74952e-06
-2.96553e-07
3.73665e-06
-2.86788e-07
3.72657e-06
-2.72987e-07
3.71874e-06
-2.57055e-07
3.71269e-06
-2.40163e-07
3.70803e-06
-2.23037e-07
3.70445e-06
-2.06105e-07
3.70174e-06
-1.89596e-07
3.69972e-06
-1.73618e-07
3.6983e-06
-1.58211e-07
3.69744e-06
-1.43382e-07
3.69718e-06
-1.29176e-07
-1.15587e-07
3.69762e-06
3.81123e-06
-7.33564e-08
3.78552e-06
-1.79513e-07
3.75884e-06
-2.35317e-07
3.733e-06
-2.63485e-07
3.70932e-06
-2.75331e-07
3.68839e-06
-2.7562e-07
3.67011e-06
-2.68503e-07
3.65421e-06
-2.57088e-07
3.64041e-06
-2.43262e-07
3.62844e-06
-2.28188e-07
3.61802e-06
-2.12614e-07
3.60892e-06
-1.97004e-07
3.60095e-06
-1.81632e-07
3.59399e-06
-1.66652e-07
3.58792e-06
-1.52145e-07
3.58271e-06
-1.38166e-07
3.57828e-06
-1.24751e-07
-1.12145e-07
3.57484e-06
5.03713e-06
-5.77253e-08
5.00707e-06
-1.49456e-07
4.97361e-06
-2.01858e-07
4.93953e-06
-2.29401e-07
4.90653e-06
-2.42337e-07
4.87577e-06
-2.44854e-07
4.84753e-06
-2.40267e-07
4.8218e-06
-2.31355e-07
4.79846e-06
-2.1992e-07
4.77734e-06
-2.07068e-07
4.75824e-06
-1.93517e-07
4.74097e-06
-1.79738e-07
4.72537e-06
-1.66027e-07
4.71128e-06
-1.52567e-07
4.69861e-06
-1.39471e-07
4.68727e-06
-1.26826e-07
4.67721e-06
-1.14694e-07
-1.03417e-07
4.66848e-06
6.66244e-06
-4.26913e-08
6.62913e-06
-1.16146e-07
6.58918e-06
-1.61905e-07
6.54671e-06
-1.86937e-07
6.50387e-06
-1.99496e-07
6.46231e-06
-2.03298e-07
6.42284e-06
-2.00794e-07
6.38572e-06
-1.94234e-07
6.35104e-06
-1.85241e-07
6.3188e-06
-1.74826e-07
6.28892e-06
-1.63639e-07
6.2613e-06
-1.52115e-07
6.23582e-06
-1.40547e-07
6.21237e-06
-1.29123e-07
6.19087e-06
-1.17971e-07
6.17124e-06
-1.07189e-07
6.1534e-06
-9.68577e-08
-8.73416e-08
6.13732e-06
8.79086e-06
-2.88899e-08
8.75646e-06
-8.17466e-08
8.71176e-06
-1.17201e-07
8.66209e-06
-1.37265e-07
8.61015e-06
-1.4756e-07
8.55807e-06
-1.51218e-07
8.50721e-06
-1.49939e-07
8.45827e-06
-1.45287e-07
8.41157e-06
-1.38546e-07
8.36731e-06
-1.30568e-07
8.32557e-06
-1.21893e-07
8.28634e-06
-1.12889e-07
8.24961e-06
-1.0381e-07
8.21531e-06
-9.4831e-08
8.18341e-06
-8.6071e-08
8.15385e-06
-7.76233e-08
8.12655e-06
-6.95561e-08
-6.22466e-08
8.10145e-06
1.15181e-05
-1.66171e-08
1.14848e-05
-4.84473e-08
1.14384e-05
-7.08009e-08
1.13845e-05
-8.34416e-08
1.13265e-05
-8.94803e-08
1.12665e-05
-9.12311e-08
1.12064e-05
-8.98385e-08
1.11473e-05
-8.62165e-08
1.10899e-05
-8.11963e-08
1.10347e-05
-7.53715e-08
1.0982e-05
-6.91174e-08
1.09318e-05
-6.26848e-08
1.08842e-05
-5.62532e-08
1.08393e-05
-4.99502e-08
1.07971e-05
-4.38695e-08
1.07576e-05
-3.80881e-08
1.07207e-05
-3.26332e-08
-2.78879e-08
1.06863e-05
1.48842e-05
-5.41097e-09
1.48525e-05
-1.67321e-08
1.48063e-05
-2.45753e-08
1.47511e-05
-2.82174e-08
1.46904e-05
-2.88215e-08
1.46267e-05
-2.75568e-08
1.45619e-05
-2.5012e-08
1.44973e-05
-2.15842e-08
1.44337e-05
-1.76533e-08
1.43719e-05
-1.35134e-08
1.43121e-05
-9.34896e-09
1.42547e-05
-5.27799e-09
1.41998e-05
-1.39103e-09
1.41476e-05
2.26734e-09
1.40981e-05
5.6419e-09
1.40513e-05
8.68669e-09
1.40073e-05
1.14324e-08
1.35287e-08
1.39658e-05
1.8769e-05
6.26435e-09
1.87365e-05
1.58017e-08
1.86883e-05
2.36158e-08
1.86301e-05
2.9974e-08
1.85661e-05
3.52172e-08
1.84989e-05
3.96104e-08
1.84306e-05
4.33206e-08
1.83625e-05
4.64708e-08
1.82957e-05
4.91557e-08
1.82308e-05
5.14416e-08
1.8168e-05
5.33729e-08
1.81078e-05
5.49795e-08
1.80501e-05
5.62814e-08
1.79951e-05
5.72895e-08
1.79427e-05
5.80097e-08
1.7893e-05
5.84294e-08
1.78458e-05
5.86075e-08
5.82842e-08
1.7801e-05
2.26768e-05
1.69954e-08
2.26398e-05
5.2757e-08
2.25834e-05
8.00182e-08
2.25148e-05
9.85757e-08
2.24391e-05
1.10923e-07
2.23597e-05
1.19068e-07
2.22789e-05
1.24067e-07
2.21987e-05
1.26698e-07
2.21202e-05
1.2766e-07
2.20442e-05
1.27473e-07
2.19711e-05
1.26479e-07
2.19011e-05
1.24904e-07
2.18345e-05
1.22908e-07
2.17712e-05
1.20603e-07
2.17111e-05
1.18069e-07
2.16542e-05
1.1535e-07
2.16003e-05
1.12509e-07
1.09404e-07
2.15492e-05
1.5604e-05
3.26419e-08
1.55641e-05
9.26183e-08
1.55091e-05
1.35034e-07
1.54456e-05
1.62013e-07
1.53777e-05
1.78854e-07
1.5308e-05
1.88774e-07
1.52386e-05
1.93491e-07
1.51708e-05
1.94464e-07
1.51055e-05
1.92936e-07
1.50432e-05
1.89771e-07
1.49842e-05
1.85534e-07
1.49285e-05
1.8061e-07
1.48761e-05
1.75273e-07
1.4827e-05
1.69714e-07
1.4781e-05
1.64064e-07
1.47379e-05
1.58415e-07
1.46976e-05
1.52828e-07
1.47244e-07
1.46598e-05
1.23902e-05
5.12345e-08
1.23448e-05
1.38094e-07
1.22864e-05
1.93397e-07
1.22225e-05
2.25901e-07
1.21566e-05
2.44756e-07
1.20913e-05
2.54076e-07
1.20284e-05
2.56394e-07
1.19688e-05
2.54041e-07
1.1913e-05
2.48773e-07
1.18611e-05
2.41709e-07
1.1813e-05
2.33578e-07
1.17687e-05
2.24878e-07
1.17281e-05
2.15951e-07
1.16908e-05
2.07024e-07
1.16566e-05
1.98243e-07
1.16253e-05
1.89708e-07
1.15966e-05
1.81462e-07
1.73494e-07
1.15704e-05
9.55928e-06
7.55426e-08
9.50978e-06
1.87599e-07
9.45371e-06
2.49469e-07
9.39689e-06
2.82718e-07
9.34169e-06
2.99953e-07
9.29011e-06
3.05657e-07
9.24309e-06
3.03412e-07
9.20078e-06
2.96356e-07
9.16302e-06
2.86534e-07
9.12955e-06
2.75175e-07
9.10005e-06
2.63079e-07
9.07415e-06
2.50778e-07
9.05149e-06
2.38613e-07
9.03172e-06
2.26791e-07
9.01453e-06
2.15435e-07
8.99962e-06
2.04615e-07
8.98674e-06
1.94347e-07
1.84636e-07
8.97559e-06
7.18003e-06
1.04962e-07
7.13264e-06
2.34992e-07
7.08699e-06
2.95113e-07
7.04542e-06
3.24295e-07
7.00919e-06
3.3618e-07
6.97925e-06
3.35596e-07
6.95527e-06
3.27388e-07
6.93649e-06
3.15138e-07
6.92217e-06
3.00854e-07
6.91164e-06
2.85704e-07
6.90429e-06
2.7043e-07
6.89958e-06
2.55486e-07
6.89707e-06
2.41131e-07
6.89636e-06
2.275e-07
6.89714e-06
2.14653e-07
6.89915e-06
2.02605e-07
6.90216e-06
1.91334e-07
1.80837e-07
6.90596e-06
5.24556e-06
1.3812e-07
5.20786e-06
2.72692e-07
5.18042e-06
3.22547e-07
5.16161e-06
3.43113e-07
5.15134e-06
3.4645e-07
5.14856e-06
3.38372e-07
5.15145e-06
3.24502e-07
5.1585e-06
3.08087e-07
5.16862e-06
2.90737e-07
5.18095e-06
2.73374e-07
5.19483e-06
2.56547e-07
5.20976e-06
2.40551e-07
5.22537e-06
2.25521e-07
5.24137e-06
2.115e-07
5.25755e-06
1.98476e-07
5.27374e-06
1.86411e-07
5.28983e-06
1.75247e-07
1.6497e-07
5.3057e-06
3.71461e-06
1.71643e-07
3.69607e-06
2.91236e-07
3.69442e-06
3.24197e-07
3.70433e-06
3.33195e-07
3.72341e-06
3.27377e-07
3.74838e-06
3.13401e-07
3.77668e-06
2.96199e-07
3.80677e-06
2.78e-07
3.83764e-06
2.59862e-07
3.86863e-06
2.42391e-07
3.89926e-06
2.25913e-07
3.92925e-06
2.10562e-07
3.9584e-06
1.96366e-07
3.98661e-06
1.83293e-07
4.01381e-06
1.71279e-07
4.03997e-06
1.60249e-07
4.06509e-06
1.50125e-07
1.40893e-07
4.08917e-06
2.5354e-06
1.96844e-07
2.54624e-06
2.80392e-07
2.57485e-06
2.95583e-07
2.61417e-06
2.93877e-07
2.65963e-06
2.81923e-07
2.70723e-06
2.658e-07
2.75495e-06
2.48479e-07
2.80179e-06
2.31161e-07
2.84715e-06
2.14497e-07
2.89071e-06
1.98837e-07
2.93229e-06
1.8433e-07
2.97185e-06
1.71004e-07
3.00939e-06
1.58819e-07
3.04498e-06
1.47702e-07
3.0787e-06
1.37565e-07
3.11062e-06
1.28321e-07
3.14086e-06
1.19886e-07
1.1226e-07
3.1695e-06
1.65469e-06
1.99257e-07
1.70056e-06
2.34526e-07
1.75707e-06
2.39071e-07
1.81981e-06
2.31139e-07
1.88376e-06
2.17977e-07
1.94595e-06
2.03606e-07
2.00552e-06
1.88906e-07
2.06211e-06
1.74577e-07
2.11552e-06
1.61084e-07
2.16575e-06
1.48606e-07
2.2129e-06
1.37186e-07
2.2571e-06
1.26797e-07
2.29855e-06
1.17376e-07
2.33741e-06
1.08839e-07
2.37387e-06
1.011e-07
2.40812e-06
9.40773e-08
2.44031e-06
8.76907e-08
8.19782e-08
2.47059e-06
1.01827e-06
1.63846e-07
1.09488e-06
1.57921e-07
1.17023e-06
1.63716e-07
1.24668e-06
1.54691e-07
1.32007e-06
1.4459e-07
1.38904e-06
1.34633e-07
1.45366e-06
1.24283e-07
1.51399e-06
1.14252e-07
1.57012e-06
1.04951e-07
1.62228e-06
9.64448e-08
1.67075e-06
8.87223e-08
1.7158e-06
8.17479e-08
1.75771e-06
7.54624e-08
1.79675e-06
6.97964e-08
1.83317e-06
6.46823e-08
1.86719e-06
6.00593e-08
1.89903e-06
5.5848e-08
5.2124e-08
1.92889e-06
5.69236e-07
8.45264e-08
6.58979e-07
6.81779e-08
7.40757e-07
8.19382e-08
8.20847e-07
7.46008e-08
8.9584e-07
6.95974e-08
9.65386e-07
6.50871e-08
1.0298e-06
5.98708e-08
1.0893e-06
5.47547e-08
1.14416e-06
5.00887e-08
1.19474e-06
4.58618e-08
1.24142e-06
4.20448e-08
1.28455e-06
3.86171e-08
1.32447e-06
3.55449e-08
1.36147e-06
3.27882e-08
1.39585e-06
3.0309e-08
1.42783e-06
2.80785e-08
1.45765e-06
2.60246e-08
2.41961e-08
1.48558e-06
2.22451e-07
2.90628e-07
3.72567e-07
4.47167e-07
5.16765e-07
5.81852e-07
6.41723e-07
6.96477e-07
7.46566e-07
7.92428e-07
8.34473e-07
8.7309e-07
9.08635e-07
9.41423e-07
9.71732e-07
9.9981e-07
1.02583e-06
1.05003e-06
1.8414e-08
-1.8414e-08
4.17045e-08
-2.32905e-08
6.20105e-08
-2.03061e-08
7.68417e-08
-1.48311e-08
8.53016e-08
-8.45994e-09
8.73548e-08
-2.05315e-09
8.35625e-08
3.79223e-09
7.49288e-08
8.63371e-09
6.2538e-08
1.23908e-08
4.72632e-08
1.52748e-08
2.96403e-08
1.76229e-08
9.88863e-09
1.97516e-08
-1.20116e-08
2.19002e-08
-3.62383e-08
2.42267e-08
-6.30271e-08
2.67888e-08
-9.26036e-08
2.95765e-08
-1.25151e-07
3.25474e-08
-1.60785e-07
3.56337e-08
-1.99539e-07
3.87547e-08
-2.41364e-07
4.18249e-08
-2.86123e-07
4.47589e-08
-3.33601e-07
4.74777e-08
-3.83514e-07
4.99129e-08
-4.35525e-07
5.20109e-08
-4.8926e-07
5.37351e-08
-5.44326e-07
5.50664e-08
-6.00329e-07
5.60025e-08
-6.56885e-07
5.6556e-08
-7.13638e-07
5.67532e-08
-7.70273e-07
5.66347e-08
-8.26527e-07
5.62539e-08
-8.8219e-07
5.56636e-08
-9.37089e-07
5.48988e-08
-9.91075e-07
5.3986e-08
-1.04403e-06
5.2953e-08
-1.09585e-06
5.18253e-08
-1.14648e-06
5.06259e-08
-1.19585e-06
4.93743e-08
-1.24394e-06
4.80868e-08
-1.29072e-06
4.67766e-08
-1.33617e-06
4.54537e-08
-1.3803e-06
4.41256e-08
-1.42309e-06
4.27976e-08
-1.46457e-06
4.14731e-08
-1.50472e-06
4.01539e-08
-1.54356e-06
3.88409e-08
-1.5811e-06
3.7534e-08
-1.61733e-06
3.62326e-08
-1.65226e-06
3.49354e-08
-1.6859e-06
3.36413e-08
-1.71825e-06
3.23489e-08
-1.74931e-06
3.10568e-08
-1.77907e-06
2.97637e-08
-1.80754e-06
2.84684e-08
-1.83471e-06
2.71701e-08
-1.86058e-06
2.58677e-08
-1.88514e-06
2.45608e-08
-1.90839e-06
2.32487e-08
-1.93032e-06
2.19313e-08
-1.95093e-06
2.06081e-08
-1.97021e-06
1.92791e-08
-1.98815e-06
1.79439e-08
-2.00475e-06
1.66024e-08
-2.02001e-06
1.52541e-08
-2.03391e-06
1.38982e-08
-2.04644e-06
1.25335e-08
-2.0576e-06
1.1158e-08
-2.06737e-06
9.76829e-09
-2.07573e-06
8.36038e-09
-2.08266e-06
6.92902e-09
-2.08812e-06
5.46688e-09
-2.09209e-06
3.9649e-09
-2.09451e-06
2.41871e-09
-2.09532e-06
8.12561e-10
-2.09464e-06
-6.83305e-10
-2.09266e-06
-1.97294e-09
-2.08946e-06
-3.19827e-09
-2.08508e-06
-4.38122e-09
-2.07954e-06
-5.54041e-09
-2.07286e-06
-6.68556e-09
-2.06504e-06
-7.82032e-09
-2.05609e-06
-8.94593e-09
-2.04603e-06
-1.00625e-08
-2.03486e-06
-1.11696e-08
-2.02259e-06
-1.22669e-08
-2.00924e-06
-1.33536e-08
-1.99481e-06
-1.44292e-08
-1.97932e-06
-1.54931e-08
-1.96277e-06
-1.65446e-08
-1.94519e-06
-1.75833e-08
-1.92658e-06
-1.86086e-08
-1.90696e-06
-1.962e-08
-1.88634e-06
-2.06172e-08
-1.86474e-06
-2.15995e-08
-1.84218e-06
-2.25667e-08
-1.81866e-06
-2.35183e-08
-1.7942e-06
-2.44538e-08
-1.76883e-06
-2.5373e-08
-1.74256e-06
-2.62753e-08
-1.7154e-06
-2.71604e-08
-1.68737e-06
-2.80278e-08
-1.65849e-06
-2.88773e-08
-1.62878e-06
-2.97083e-08
-1.59826e-06
-3.05205e-08
-1.56695e-06
-3.13135e-08
-1.53486e-06
-3.20868e-08
-1.50202e-06
-3.284e-08
-1.46845e-06
-3.35726e-08
-1.43416e-06
-3.42841e-08
-1.39919e-06
-3.49741e-08
-1.36355e-06
-3.56421e-08
-1.32726e-06
-3.62875e-08
-1.29035e-06
-3.69099e-08
-1.25284e-06
-3.75088e-08
-1.21476e-06
-3.80836e-08
-1.17613e-06
-3.86338e-08
-1.13697e-06
-3.91589e-08
-1.09731e-06
-3.96584e-08
-1.05718e-06
-4.01318e-08
-1.0166e-06
-4.05786e-08
-9.75599e-07
-4.09984e-08
-9.34209e-07
-4.13906e-08
-8.92454e-07
-4.1755e-08
-8.50363e-07
-4.2091e-08
-8.07964e-07
-4.23984e-08
-7.65287e-07
-4.26768e-08
-7.22361e-07
-4.29259e-08
-6.79216e-07
-4.31455e-08
-6.35881e-07
-4.33353e-08
-5.92385e-07
-4.34952e-08
-5.4876e-07
-4.3625e-08
-5.05036e-07
-4.37245e-08
-4.61242e-07
-4.37936e-08
-4.1741e-07
-4.38322e-08
-3.7357e-07
-4.38401e-08
-3.29753e-07
-4.38169e-08
-2.85991e-07
-4.37623e-08
-2.42315e-07
-4.36754e-08
-1.9876e-07
-4.35559e-08
-1.55359e-07
-4.3401e-08
-1.12147e-07
-4.32117e-08
-6.91573e-08
-4.29896e-08
-2.64283e-08
-4.2729e-08
1.60031e-08
-4.24313e-08
5.80959e-08
-4.20928e-08
9.98198e-08
-4.17239e-08
1.41159e-07
-4.13395e-08
1.8211e-07
-4.09505e-08
2.22665e-07
-4.05555e-08
2.62817e-07
-4.01519e-08
3.02555e-07
-3.97381e-08
3.41869e-07
-3.93133e-08
3.80746e-07
-3.88773e-08
4.19177e-07
-3.84306e-08
4.5715e-07
-3.7974e-08
4.94659e-07
-3.75083e-08
5.31693e-07
-3.70347e-08
5.68248e-07
-3.65543e-08
6.04316e-07
-3.60683e-08
6.39894e-07
-3.55779e-08
6.74978e-07
-3.50841e-08
7.09566e-07
-3.45876e-08
7.43655e-07
-3.40891e-08
7.77243e-07
-3.35886e-08
8.10329e-07
-3.30854e-08
8.42907e-07
-3.25782e-08
8.74971e-07
-3.20639e-08
9.06509e-07
-3.15376e-08
9.375e-07
-3.09911e-08
9.67911e-07
-3.04118e-08
9.97691e-07
-2.97794e-08
1.02675e-06
-2.90616e-08
1.05496e-06
-2.82047e-08
1.08207e-06
-2.71174e-08
1.1077e-06
-2.56223e-08
1.13107e-06
-2.33772e-08
1.1505e-06
-1.94247e-08
1.16211e-06
-1.16072e-08
1.15328e-06
8.82601e-09
5.409e-08
1.09919e-06
1.76811e-08
-3.60951e-08
2.81042e-08
-3.37136e-08
3.0862e-08
-2.30638e-08
2.79766e-08
-1.19458e-08
2.07717e-08
-1.25499e-09
9.9932e-09
8.72533e-09
-4.0401e-09
1.78255e-08
-2.13585e-08
2.59521e-08
-4.20842e-08
3.31165e-08
-6.62919e-08
3.94825e-08
-9.39832e-08
4.53142e-08
-1.25114e-07
5.08829e-08
-1.5961e-07
5.6396e-08
-1.97355e-07
6.1971e-08
-2.38202e-07
6.76368e-08
-2.81975e-07
7.3349e-08
-3.2844e-07
7.90126e-08
-3.77311e-07
8.45047e-08
-4.2825e-07
8.96935e-08
-4.80877e-07
9.4452e-08
-5.34788e-07
9.86696e-08
-5.89569e-07
1.02259e-07
-6.44817e-07
1.05161e-07
-7.00154e-07
1.07348e-07
-7.55237e-07
1.08818e-07
-8.09769e-07
1.09598e-07
-8.63503e-07
1.09737e-07
-9.16244e-07
1.09297e-07
-9.67843e-07
1.08353e-07
-1.01819e-06
1.06986e-07
-1.06722e-06
1.05279e-07
-1.11486e-06
1.03306e-07
-1.16109e-06
1.01125e-07
-1.20589e-06
9.87887e-08
-1.24928e-06
9.63407e-08
-1.29127e-06
9.38177e-08
-1.33189e-06
9.12493e-08
-1.37118e-06
8.86589e-08
-1.40916e-06
8.60639e-08
-1.44586e-06
8.34769e-08
-1.48131e-06
8.09064e-08
-1.51554e-06
7.83572e-08
-1.54858e-06
7.58315e-08
-1.58043e-06
7.33297e-08
-1.61113e-06
7.08503e-08
-1.64068e-06
6.8391e-08
-1.66909e-06
6.59488e-08
-1.69638e-06
6.35203e-08
-1.72255e-06
6.11019e-08
-1.7476e-06
5.86904e-08
-1.77153e-06
5.62824e-08
-1.79435e-06
5.38751e-08
-1.81605e-06
5.14657e-08
-1.83663e-06
4.90523e-08
-1.8561e-06
4.66329e-08
-1.87444e-06
4.42062e-08
-1.89165e-06
4.17711e-08
-1.90772e-06
3.93269e-08
-1.92267e-06
3.68733e-08
-1.93647e-06
3.441e-08
-1.94913e-06
3.19372e-08
-1.96064e-06
2.9455e-08
-1.971e-06
2.69638e-08
-1.98021e-06
2.44638e-08
-1.98827e-06
2.19553e-08
-1.99517e-06
1.94388e-08
-2.00093e-06
1.69144e-08
-2.00554e-06
1.43827e-08
-2.00903e-06
1.18445e-08
-2.0114e-06
9.30218e-09
-2.01269e-06
6.75962e-09
-2.01295e-06
4.22512e-09
-2.01225e-06
1.71727e-09
-2.0107e-06
-7.41719e-10
-2.00823e-06
-3.14495e-09
-2.00473e-06
-5.47757e-09
-2.00014e-06
-7.78753e-09
-1.99444e-06
-1.0079e-08
-1.98763e-06
-1.23533e-08
-1.9797e-06
-1.46123e-08
-1.97067e-06
-1.68559e-08
-1.96053e-06
-1.90839e-08
-1.9493e-06
-2.12951e-08
-1.93698e-06
-2.34885e-08
-1.92358e-06
-2.56627e-08
-1.90912e-06
-2.78165e-08
-1.8936e-06
-2.99485e-08
-1.87704e-06
-3.20575e-08
-1.85944e-06
-3.41423e-08
-1.84082e-06
-3.62018e-08
-1.82119e-06
-3.82351e-08
-1.80057e-06
-4.0241e-08
-1.77897e-06
-4.22186e-08
-1.7564e-06
-4.4167e-08
-1.73288e-06
-4.60855e-08
-1.70843e-06
-4.7973e-08
-1.68305e-06
-4.98288e-08
-1.65678e-06
-5.16521e-08
-1.62961e-06
-5.34419e-08
-1.60157e-06
-5.51976e-08
-1.57268e-06
-5.69182e-08
-1.54296e-06
-5.86029e-08
-1.51241e-06
-6.0251e-08
-1.48107e-06
-6.18617e-08
-1.44895e-06
-6.3434e-08
-1.41607e-06
-6.49671e-08
-1.38245e-06
-6.64602e-08
-1.34811e-06
-6.79122e-08
-1.31307e-06
-6.93222e-08
-1.27736e-06
-7.06892e-08
-1.24099e-06
-7.20121e-08
-1.20398e-06
-7.32902e-08
-1.16637e-06
-7.45223e-08
-1.12817e-06
-7.57074e-08
-1.08941e-06
-7.68444e-08
-1.05011e-06
-7.79323e-08
-1.0103e-06
-7.89701e-08
-9.70005e-07
-7.99567e-08
-9.29246e-07
-8.08912e-08
-8.88052e-07
-8.17727e-08
-8.4645e-07
-8.26001e-08
-8.04468e-07
-8.33726e-08
-7.62133e-07
-8.40894e-08
-7.19475e-07
-8.47497e-08
-6.7652e-07
-8.53528e-08
-6.33299e-07
-8.58979e-08
-5.89841e-07
-8.63846e-08
-5.46174e-07
-8.68123e-08
-5.02329e-07
-8.71806e-08
-4.58335e-07
-8.74891e-08
-4.14222e-07
-8.77376e-08
-3.70021e-07
-8.79258e-08
-3.25761e-07
-8.80534e-08
-2.81473e-07
-8.81201e-08
-2.37187e-07
-8.81258e-08
-1.92934e-07
-8.80699e-08
-1.48745e-07
-8.79518e-08
-1.0465e-07
-8.77702e-08
-6.06811e-08
-8.75249e-08
-1.68689e-08
-8.72131e-08
2.67535e-08
-8.68341e-08
7.01533e-08
-8.63894e-08
1.13303e-07
-8.58782e-08
1.56177e-07
-8.53058e-08
1.98757e-07
-8.46731e-08
2.41022e-07
-8.39885e-08
2.82951e-07
-8.32687e-08
3.24525e-07
-8.25241e-08
3.65726e-07
-8.17569e-08
4.06541e-07
-8.09665e-08
4.46955e-07
-8.01521e-08
4.86955e-07
-7.93138e-08
5.2653e-07
-7.84522e-08
5.65668e-07
-7.75687e-08
6.04359e-07
-7.66649e-08
6.42594e-07
-7.5743e-08
6.80365e-07
-7.48053e-08
7.17664e-07
-7.38542e-08
7.54488e-07
-7.2892e-08
7.90831e-07
-7.19211e-08
8.26691e-07
-7.09434e-08
8.62064e-07
-6.99608e-08
8.96949e-07
-6.89742e-08
9.31344e-07
-6.79839e-08
9.65247e-07
-6.69886e-08
9.98655e-07
-6.59853e-08
1.03156e-06
-6.4968e-08
1.06395e-06
-6.39269e-08
1.0958e-06
-6.28458e-08
1.12709e-06
-6.16993e-08
1.15776e-06
-6.04476e-08
1.18772e-06
-5.90272e-08
1.21685e-06
-5.73336e-08
1.24493e-06
-5.51907e-08
1.27158e-06
-5.22712e-08
1.29616e-06
-4.79661e-08
1.31758e-06
-4.08369e-08
1.33423e-06
-2.82591e-08
1.34452e-06
-1.47041e-09
5.35177e-08
1.3451e-06
4.50987e-09
-4.0605e-08
-6.89481e-10
-2.85143e-08
-1.07662e-08
-1.29872e-08
-2.41495e-08
1.43754e-09
-4.02007e-08
1.47963e-08
-5.87463e-08
2.72709e-08
-7.9803e-08
3.88822e-08
-1.03504e-07
4.9653e-08
-1.30027e-07
5.96396e-08
-1.59506e-07
6.89612e-08
-1.91971e-07
7.778e-08
-2.27342e-07
8.62532e-08
-2.65435e-07
9.44887e-08
-3.05988e-07
1.02524e-07
-3.48681e-07
1.1033e-07
-3.93152e-07
1.1782e-07
-4.3902e-07
1.2488e-07
-4.85896e-07
1.31381e-07
-5.33402e-07
1.372e-07
-5.81183e-07
1.42234e-07
-6.28922e-07
1.46408e-07
-6.76345e-07
1.49682e-07
-7.2323e-07
1.52046e-07
-7.69403e-07
1.53521e-07
-8.1474e-07
1.54156e-07
-8.5916e-07
1.54018e-07
-9.02615e-07
1.53192e-07
-9.45084e-07
1.51766e-07
-9.86565e-07
1.49833e-07
-1.02706e-06
1.47486e-07
-1.06659e-06
1.44808e-07
-1.10516e-06
1.41875e-07
-1.14279e-06
1.3875e-07
-1.17948e-06
1.35485e-07
-1.21527e-06
1.32126e-07
-1.25016e-06
1.28706e-07
-1.28416e-06
1.25254e-07
-1.31729e-06
1.21789e-07
-1.34955e-06
1.18326e-07
-1.38095e-06
1.14876e-07
-1.41149e-06
1.11444e-07
-1.44117e-06
1.08033e-07
-1.46998e-06
1.04642e-07
-1.49792e-06
1.0127e-07
-1.52498e-06
9.79153e-08
-1.55116e-06
9.45727e-08
-1.57645e-06
9.12386e-08
-1.60084e-06
8.79085e-08
-1.62432e-06
8.45783e-08
-1.64687e-06
8.12439e-08
-1.66849e-06
7.79016e-08
-1.68916e-06
7.45482e-08
-1.70888e-06
7.11811e-08
-1.72763e-06
6.77978e-08
-1.74539e-06
6.43969e-08
-1.76216e-06
6.09771e-08
-1.77793e-06
5.75377e-08
-1.79268e-06
5.40786e-08
-1.80641e-06
5.06e-08
-1.8191e-06
4.71025e-08
-1.83075e-06
4.35871e-08
-1.84135e-06
4.00551e-08
-1.85089e-06
3.65078e-08
-1.85938e-06
3.29472e-08
-1.8668e-06
2.93752e-08
-1.87315e-06
2.5794e-08
-1.87844e-06
2.22065e-08
-1.88268e-06
1.8616e-08
-1.88586e-06
1.50264e-08
-1.888e-06
1.14432e-08
-1.88911e-06
7.87334e-09
-1.88921e-06
4.32567e-09
-1.88831e-06
8.1024e-10
-1.88639e-06
-2.66279e-09
-1.88343e-06
-6.09907e-09
-1.8794e-06
-9.50522e-09
-1.8743e-06
-1.2892e-08
-1.86812e-06
-1.6262e-08
-1.86085e-06
-1.96151e-08
-1.85252e-06
-2.29502e-08
-1.84311e-06
-2.62658e-08
-1.83263e-06
-2.956e-08
-1.82109e-06
-3.28306e-08
-1.80851e-06
-3.60757e-08
-1.79488e-06
-3.9293e-08
-1.78021e-06
-4.24808e-08
-1.76452e-06
-4.56368e-08
-1.74782e-06
-4.87592e-08
-1.73012e-06
-5.18463e-08
-1.71142e-06
-5.48964e-08
-1.69175e-06
-5.79078e-08
-1.67111e-06
-6.08791e-08
-1.64952e-06
-6.38087e-08
-1.62699e-06
-6.66955e-08
-1.60354e-06
-6.95379e-08
-1.57918e-06
-7.23348e-08
-1.55392e-06
-7.50848e-08
-1.52779e-06
-7.77868e-08
-1.50079e-06
-8.04393e-08
-1.47295e-06
-8.30412e-08
-1.44428e-06
-8.55912e-08
-1.41479e-06
-8.8088e-08
-1.38451e-06
-9.05305e-08
-1.35346e-06
-9.29174e-08
-1.32164e-06
-9.52474e-08
-1.28909e-06
-9.75192e-08
-1.25582e-06
-9.97315e-08
-1.22185e-06
-1.01883e-07
-1.1872e-06
-1.03972e-07
-1.15189e-06
-1.05996e-07
-1.11595e-06
-1.07956e-07
-1.07939e-06
-1.09848e-07
-1.04224e-06
-1.11672e-07
-1.00452e-06
-1.13427e-07
-9.66256e-07
-1.15109e-07
-9.27469e-07
-1.16719e-07
-8.88185e-07
-1.18254e-07
-8.48429e-07
-1.19713e-07
-8.08227e-07
-1.21094e-07
-7.67603e-07
-1.22396e-07
-7.26586e-07
-1.23618e-07
-6.85201e-07
-1.24758e-07
-6.43475e-07
-1.25815e-07
-6.01437e-07
-1.26788e-07
-5.59115e-07
-1.27675e-07
-5.16536e-07
-1.28477e-07
-4.7373e-07
-1.29191e-07
-4.30724e-07
-1.29818e-07
-3.87549e-07
-1.30356e-07
-3.44233e-07
-1.30805e-07
-3.00806e-07
-1.31165e-07
-2.57296e-07
-1.31435e-07
-2.13735e-07
-1.31615e-07
-1.7015e-07
-1.31705e-07
-1.26572e-07
-1.31704e-07
-8.30306e-08
-1.31612e-07
-3.95547e-08
-1.31428e-07
3.82639e-09
-1.31151e-07
4.70821e-08
-1.30781e-07
9.01831e-08
-1.30314e-07
1.33101e-07
-1.29752e-07
1.75808e-07
-1.29096e-07
2.18281e-07
-1.28352e-07
2.60505e-07
-1.27529e-07
3.02464e-07
-1.26633e-07
3.4414e-07
-1.25664e-07
3.85506e-07
-1.24635e-07
4.26538e-07
-1.23556e-07
4.67214e-07
-1.22433e-07
5.07517e-07
-1.21269e-07
5.4743e-07
-1.20065e-07
5.8694e-07
-1.18823e-07
6.26033e-07
-1.17545e-07
6.64698e-07
-1.16234e-07
7.02925e-07
-1.14892e-07
7.40704e-07
-1.13523e-07
7.78029e-07
-1.1213e-07
8.14892e-07
-1.10717e-07
8.51288e-07
-1.09288e-07
8.87214e-07
-1.07846e-07
9.22665e-07
-1.06395e-07
9.57641e-07
-1.04936e-07
9.92139e-07
-1.03472e-07
1.02616e-06
-1.02003e-07
1.0597e-06
-1.00526e-07
1.09275e-06
-9.90383e-08
1.12531e-06
-9.75301e-08
1.15737e-06
-9.59869e-08
1.18891e-06
-9.43851e-08
1.2199e-06
-9.26874e-08
1.25029e-06
-9.08356e-08
1.28e-06
-8.87378e-08
1.30891e-06
-8.62455e-08
1.33683e-06
-8.31113e-08
1.36345e-06
-7.8897e-08
1.3883e-06
-7.28162e-08
1.4107e-06
-6.32357e-08
1.42978e-06
-4.73349e-08
1.44605e-06
-1.77453e-08
3.64422e-08
1.46313e-06
-1.01049e-08
-3.05001e-08
-2.66088e-08
-1.20104e-08
-4.5393e-08
5.79702e-09
-6.58002e-08
2.18448e-08
-8.78174e-08
3.68134e-08
-1.11506e-07
5.09593e-08
-1.36998e-07
6.43744e-08
-1.64438e-07
7.70935e-08
-1.93949e-07
8.91504e-08
-2.25586e-07
1.00598e-07
-2.59305e-07
1.11499e-07
-2.9496e-07
1.21908e-07
-3.32316e-07
1.31845e-07
-3.71078e-07
1.41286e-07
-4.10914e-07
1.50166e-07
-4.51485e-07
1.58391e-07
-4.92462e-07
1.65858e-07
-5.33548e-07
1.72467e-07
-5.74484e-07
1.78136e-07
-6.15062e-07
1.82811e-07
-6.55121e-07
1.86467e-07
-6.9455e-07
1.89112e-07
-7.33284e-07
1.90779e-07
-7.7129e-07
1.91527e-07
-8.08566e-07
1.91431e-07
-8.45127e-07
1.90579e-07
-8.81e-07
1.89065e-07
-9.16217e-07
1.86983e-07
-9.50808e-07
1.84424e-07
-9.84798e-07
1.81475e-07
-1.0182e-06
1.78215e-07
-1.05104e-06
1.74709e-07
-1.08331e-06
1.71018e-07
-1.11501e-06
1.67189e-07
-1.14615e-06
1.63262e-07
-1.17671e-06
1.59267e-07
-1.20668e-06
1.5523e-07
-1.23606e-06
1.51168e-07
-1.26483e-06
1.47093e-07
-1.29297e-06
1.43015e-07
-1.32046e-06
1.38937e-07
-1.34729e-06
1.34862e-07
-1.37344e-06
1.30789e-07
-1.39888e-06
1.26716e-07
-1.42361e-06
1.22641e-07
-1.44759e-06
1.18558e-07
-1.47082e-06
1.14465e-07
-1.49327e-06
1.10357e-07
-1.51492e-06
1.0623e-07
-1.53576e-06
1.02081e-07
-1.55576e-06
9.79052e-08
-1.57492e-06
9.37007e-08
-1.5932e-06
8.94651e-08
-1.6106e-06
8.51968e-08
-1.6271e-06
8.08946e-08
-1.64268e-06
7.65581e-08
-1.65733e-06
7.21874e-08
-1.67103e-06
6.77832e-08
-1.68378e-06
6.33467e-08
-1.69556e-06
5.88795e-08
-1.70635e-06
5.43838e-08
-1.71616e-06
4.98619e-08
-1.72497e-06
4.53169e-08
-1.73277e-06
4.07519e-08
-1.73957e-06
3.61705e-08
-1.74535e-06
3.15765e-08
-1.75012e-06
2.69745e-08
-1.75387e-06
2.23691e-08
-1.75661e-06
1.77658e-08
-1.75834e-06
1.31706e-08
-1.75905e-06
8.58987e-09
-1.75876e-06
4.03027e-09
-1.75745e-06
-5.02686e-10
-1.7551e-06
-5.00548e-09
-1.75172e-06
-9.48028e-09
-1.7473e-06
-1.39323e-08
-1.74182e-06
-1.83654e-08
-1.7353e-06
-2.27803e-08
-1.72774e-06
-2.71759e-08
-1.71914e-06
-3.15501e-08
-1.70951e-06
-3.59001e-08
-1.69885e-06
-4.02231e-08
-1.68716e-06
-4.45164e-08
-1.67446e-06
-4.87768e-08
-1.66075e-06
-5.30017e-08
-1.64604e-06
-5.71882e-08
-1.63035e-06
-6.13337e-08
-1.61367e-06
-6.54356e-08
-1.59602e-06
-6.94917e-08
-1.57742e-06
-7.34995e-08
-1.55787e-06
-7.7457e-08
-1.53739e-06
-8.13622e-08
-1.51598e-06
-8.5213e-08
-1.49367e-06
-8.90078e-08
-1.47046e-06
-9.27446e-08
-1.44638e-06
-9.64217e-08
-1.42143e-06
-1.00038e-07
-1.39562e-06
-1.0359e-07
-1.36898e-06
-1.07078e-07
-1.34152e-06
-1.105e-07
-1.31326e-06
-1.13853e-07
-1.28421e-06
-1.17136e-07