/*--------------------------------*- C++ -*----------------------------------*\
| =========                 |                                                 |
| \\      /  F ield         | OpenFOAM: The Open Source CFD Toolbox           |
|  \\    /   O peration     | Version:  2412                                  |
|   \\  /    A nd           | Website:  www.openfoam.com                      |
|    \\/     M anipulation  |                                                 |
\*---------------------------------------------------------------------------*/
FoamFile
{
    version     2.0;
    format      ascii;
    arch        "LSB;label=32;scalar=64";
    class       volVectorField;
    location    "0.25";
    object      U;
}
// * * * * * * * * * * * * * * * * * * * * * * * * * * * * * * * * * * * * * //

dimensions      [0 1 -1 0 0 0 0];

internalField   nonuniform List<vector> 
12225
(
(0.377183 -0.200896 0)
(0.543962 -0.0519273 0)
(0.71105 -0.0340154 0)
(0.893988 -0.030478 0)
(1.05913 -0.0297487 0)
(1.20888 -0.0284546 0)
(1.3462 -0.0265208 0)
(1.47051 -0.0245784 0)
(1.58227 -0.0227696 0)
(1.68275 -0.0210775 0)
(1.77313 -0.0194996 0)
(1.85435 -0.0180277 0)
(1.92724 -0.0166403 0)
(1.99249 -0.0152955 0)
(2.05043 -0.0139692 0)
(2.10194 -0.0125092 0)
(2.14315 -0.010342 0)
(2.19072 -0.0128278 0)
(0.933503 -0.0317784 0)
(1.0567 -0.058711 0)
(1.23665 -0.0689018 0)
(1.42156 -0.0644871 0)
(1.58554 -0.0618158 0)
(1.73444 -0.0589704 0)
(1.87135 -0.0555691 0)
(1.99608 -0.0521825 0)
(2.10909 -0.0489413 0)
(2.21145 -0.0458526 0)
(2.30411 -0.0429309 0)
(2.38792 -0.0401621 0)
(2.46362 -0.037504 0)
(2.53182 -0.0348771 0)
(2.59294 -0.0322206 0)
(2.64732 -0.0290845 0)
(2.69449 -0.0260663 0)
(2.73638 -0.015885 0)
(1.39962 -0.084682 0)
(1.49179 -0.105679 0)
(1.65466 -0.107239 0)
(1.82261 -0.101944 0)
(1.97269 -0.0979935 0)
(2.1104 -0.0936572 0)
(2.23778 -0.0887464 0)
(2.35453 -0.0838044 0)
(2.46099 -0.0790039 0)
(2.55793 -0.0743911 0)
(2.64611 -0.0699918 0)
(2.7262 -0.0657868 0)
(2.79883 -0.0617168 0)
(2.86451 -0.0576745 0)
(2.92364 -0.0535279 0)
(2.97646 -0.0488549 0)
(3.02315 -0.0436281 0)
(3.063 -0.0340953 0)
(1.89741 -0.115425 0)
(1.94623 -0.14331 0)
(2.07521 -0.144986 0)
(2.21748 -0.140771 0)
(2.34799 -0.135784 0)
(2.46975 -0.130052 0)
(2.58355 -0.123703 0)
(2.68871 -0.117217 0)
(2.78529 -0.110832 0)
(2.87378 -0.104649 0)
(2.95468 -0.0987107 0)
(3.02849 -0.0929989 0)
(3.09567 -0.0874426 0)
(3.15665 -0.0819119 0)
(3.21178 -0.0762248 0)
(3.26122 -0.0699575 0)
(3.30552 -0.0628174 0)
(3.34313 -0.0518012 0)
(2.43108 -0.125831 0)
(2.44051 -0.169894 0)
(2.52881 -0.177416 0)
(2.64003 -0.176178 0)
(2.74682 -0.171238 0)
(2.84905 -0.16474 0)
(2.9462 -0.157388 0)
(3.03705 -0.149691 0)
(3.12131 -0.141978 0)
(3.1991 -0.134424 0)
(3.27068 -0.1271 0)
(3.33634 -0.120001 0)
(3.39638 -0.113056 0)
(3.45111 -0.106123 0)
(3.50081 -0.098992 0)
(3.54561 -0.0912547 0)
(3.58634 -0.0824757 0)
(3.62094 -0.0703836 0)
(2.99683 -0.123685 0)
(2.97698 -0.185374 0)
(3.02469 -0.201466 0)
(3.10204 -0.20496 0)
(3.18212 -0.201584 0)
(3.26199 -0.195269 0)
(3.33998 -0.187568 0)
(3.41427 -0.179179 0)
(3.48412 -0.170561 0)
(3.54932 -0.16198 0)
(3.60983 -0.153557 0)
(3.66574 -0.145312 0)
(3.71717 -0.137187 0)
(3.7643 -0.129046 0)
(3.80736 -0.120672 0)
(3.84641 -0.111698 0)
(3.88248 -0.101669 0)
(3.91301 -0.089004 0)
(3.58832 -0.11451 0)
(3.5509 -0.190589 0)
(3.56321 -0.215901 0)
(3.60679 -0.225328 0)
(3.65876 -0.225019 0)
(3.71446 -0.219974 0)
(3.77143 -0.212702 0)
(3.82739 -0.204247 0)
(3.88115 -0.195239 0)
(3.93215 -0.18606 0)
(3.98011 -0.176902 0)
(4.02487 -0.167827 0)
(4.0664 -0.158801 0)
(4.10476 -0.149711 0)
(4.14006 -0.140359 0)
(4.17234 -0.130439 0)
(4.20269 -0.119557 0)
(4.22805 -0.106681 0)
(4.1988 -0.101769 0)
(4.15397 -0.187082 0)
(4.13919 -0.220716 0)
(4.15219 -0.236323 0)
(4.1767 -0.240155 0)
(4.20779 -0.237411 0)
(4.24285 -0.231383 0)
(4.27937 -0.223542 0)
(4.31587 -0.214719 0)
(4.35151 -0.205434 0)
(4.38575 -0.195965 0)
(4.41825 -0.186433 0)
(4.44883 -0.176845 0)
(4.4774 -0.167122 0)
(4.504 -0.157109 0)
(4.52858 -0.146571 0)
(4.55225 -0.135214 0)
(4.57141 -0.122409 0)
(4.82185 -0.0878121 0)
(4.77662 -0.176883 0)
(4.7439 -0.216855 0)
(4.73191 -0.237843 0)
(4.7318 -0.246144 0)
(4.73958 -0.246428 0)
(4.75307 -0.242355 0)
(4.77002 -0.235778 0)
(4.78883 -0.227728 0)
(4.80851 -0.218856 0)
(4.82835 -0.209539 0)
(4.84787 -0.199966 0)
(4.86675 -0.190198 0)
(4.88479 -0.180205 0)
(4.90193 -0.169885 0)
(4.91807 -0.159082 0)
(4.93425 -0.147614 0)
(4.94635 -0.135137 0)
(5.45146 -0.0741129 0)
(5.4095 -0.16202 0)
(5.36682 -0.205842 0)
(5.33654 -0.230663 0)
(5.31636 -0.242921 0)
(5.30385 -0.246443 0)
(5.29762 -0.244758 0)
(5.29604 -0.239943 0)
(5.2977 -0.233172 0)
(5.3016 -0.225199 0)
(5.307 -0.216489 0)
(5.31334 -0.207301 0)
(5.32022 -0.197756 0)
(5.32734 -0.187877 0)
(5.3346 -0.177624 0)
(5.34179 -0.166918 0)
(5.34991 -0.155686 0)
(5.35434 -0.143776 0)
(6.08167 -0.0613987 0)
(6.04411 -0.144182 0)
(5.99714 -0.189335 0)
(5.95494 -0.216181 0)
(5.92006 -0.23127 0)
(5.89157 -0.23765 0)
(5.86884 -0.238372 0)
(5.85102 -0.235528 0)
(5.83714 -0.230353 0)
(5.82639 -0.223642 0)
(5.8181 -0.215916 0)
(5.81173 -0.207492 0)
(5.80687 -0.198544 0)
(5.80319 -0.18915 0)
(5.80054 -0.179327 0)
(5.79865 -0.169065 0)
(5.79848 -0.158385 0)
(5.79494 -0.147266 0)
(6.65461 -0.0506073 0)
(6.62055 -0.126208 0)
(6.57305 -0.170589 0)
(6.52478 -0.197777 0)
(6.48114 -0.214239 0)
(6.44232 -0.222499 0)
(6.40817 -0.225056 0)
(6.37844 -0.223879 0)
(6.35267 -0.220188 0)
(6.33031 -0.214764 0)
(6.31089 -0.208135 0)
(6.29395 -0.200645 0)
(6.27914 -0.192503 0)
(6.26617 -0.183826 0)
(6.25487 -0.174677 0)
(6.24493 -0.165094 0)
(6.23731 -0.155139 0)
(6.22654 -0.144986 0)
(7.20973 -0.0406603 0)
(7.18016 -0.107396 0)
(7.13447 -0.149613 0)
(7.08343 -0.176146 0)
(7.03446 -0.192986 0)
(6.98882 -0.202367 0)
(6.94662 -0.206249 0)
(6.908 -0.206404 0)
(6.87294 -0.204007 0)
(6.8412 -0.1998 0)
(6.81251 -0.194285 0)
(6.78657 -0.187809 0)
(6.76312 -0.180596 0)
(6.74193 -0.17279 0)
(6.72285 -0.164482 0)
(6.70559 -0.155752 0)
(6.69105 -0.146669 0)
(6.67363 -0.137618 0)
(7.81811 -0.0310717 0)
(7.79338 -0.0861322 0)
(7.75173 -0.123851 0)
(7.70083 -0.148312 0)
(7.64927 -0.164351 0)
(7.59955 -0.173986 0)
(7.552 -0.178642 0)
(7.507 -0.179763 0)
(7.46483 -0.178432 0)
(7.42558 -0.175341 0)
(7.38917 -0.170947 0)
(7.35548 -0.165573 0)
(7.32436 -0.159442 0)
(7.29569 -0.152707 0)
(7.26938 -0.145477 0)
(7.24516 -0.13785 0)
(7.22389 -0.129918 0)
(7.20009 -0.122148 0)
(8.45855 -0.0222982 0)
(8.43893 -0.0637723 0)
(8.40342 -0.0942602 0)
(8.3561 -0.114682 0)
(8.30536 -0.12833 0)
(8.25484 -0.136942 0)
(8.20528 -0.141489 0)
(8.15716 -0.142971 0)
(8.11104 -0.142264 0)
(8.06723 -0.139972 0)
(8.02584 -0.136493 0)
(7.98689 -0.132111 0)
(7.95035 -0.127032 0)
(7.91618 -0.121408 0)
(7.88437 -0.115352 0)
(7.85471 -0.108965 0)
(7.82799 -0.102344 0)
(7.79913 -0.0959778 0)
(9.08866 -0.0143741 0)
(9.07383 -0.041745 0)
(9.04561 -0.062859 0)
(9.00497 -0.0772092 0)
(8.95897 -0.0866417 0)
(8.91169 -0.0925269 0)
(8.86421 -0.0955565 0)
(8.81708 -0.0963414 0)
(8.77099 -0.0954759 0)
(8.72647 -0.0934069 0)
(8.68382 -0.0904316 0)
(8.64316 -0.0867601 0)
(8.60457 -0.0825529 0)
(8.56808 -0.0779349 0)
(8.53373 -0.0730073 0)
(8.50138 -0.0678657 0)
(8.47175 -0.0625792 0)
(8.44051 -0.0576554 0)
(9.63295 -0.00707654 0)
(9.6217 -0.0207173 0)
(9.59988 -0.0314143 0)
(9.5666 -0.0384041 0)
(9.52747 -0.0424482 0)
(9.48645 -0.0443782 0)
(9.44473 -0.0446446 0)
(9.40277 -0.0435863 0)
(9.36114 -0.0415462 0)
(9.32042 -0.0388076 0)
(9.28098 -0.0355664 0)
(9.24301 -0.0319597 0)
(9.20665 -0.0280952 0)
(9.17196 -0.0240638 0)
(9.13904 -0.0199387 0)
(9.10778 -0.0158005 0)
(9.07876 -0.0116631 0)
(9.04897 -0.00802023 0)
(9.96404 0.000104226 0)
(9.95459 0.000153377 0)
(9.93649 0.000607043 0)
(9.90812 0.00184752 0)
(9.87423 0.00378683 0)
(9.83859 0.00623355 0)
(9.80247 0.00908329 0)
(9.76622 0.0122644 0)
(9.7303 0.0156927 0)
(9.6952 0.0192875 0)
(9.66123 0.0229862 0)
(9.62855 0.0267391 0)
(9.59722 0.0305003 0)
(9.56728 0.0342219 0)
(9.53877 0.0378616 0)
(9.51162 0.0413556 0)
(9.48602 0.0447287 0)
(9.46095 0.0475653 0)
(9.87499 0.00747087 0)
(9.86688 0.0217902 0)
(9.84987 0.0341991 0)
(9.82249 0.0443945 0)
(9.78959 0.0528007 0)
(9.75498 0.0599001 0)
(9.71993 0.0659896 0)
(9.68483 0.0712844 0)
(9.65014 0.0759814 0)
(9.61636 0.0802395 0)
(9.58381 0.0841665 0)
(9.55263 0.0878306 0)
(9.52287 0.0912741 0)
(9.49457 0.0945203 0)
(9.46769 0.0975779 0)
(9.44224 0.100429 0)
(9.41796 0.10311 0)
(9.3959 0.105341 0)
(9.28437 0.0159163 0)
(9.27065 0.0461911 0)
(9.24578 0.0711721 0)
(9.2098 0.0903913 0)
(9.16896 0.105208 0)
(9.12725 0.116825 0)
(9.08575 0.125923 0)
(9.04487 0.133045 0)
(9.00514 0.138704 0)
(8.96707 0.143304 0)
(8.93091 0.147123 0)
(8.89675 0.150352 0)
(8.86459 0.15313 0)
(8.83441 0.155557 0)
(8.80611 0.157703 0)
(8.77968 0.159618 0)
(8.75462 0.161351 0)
(8.73295 0.162757 0)
(8.47101 0.0260886 0)
(8.45236 0.0738031 0)
(8.4197 0.110339 0)
(8.37625 0.136872 0)
(8.32995 0.156518 0)
(8.28452 0.171127 0)
(8.24067 0.181731 0)
(8.19873 0.189288 0)
(8.15916 0.194658 0)
(8.12227 0.198467 0)
(8.08808 0.201142 0)
(8.05654 0.20299 0)
(8.02753 0.204241 0)
(8.0009 0.205065 0)
(7.97648 0.205587 0)
(7.95418 0.205906 0)
(7.93346 0.20608 0)
(7.91636 0.206066 0)
(7.51239 0.0385222 0)
(7.4866 0.1045 0)
(7.44644 0.150222 0)
(7.39953 0.181349 0)
(7.35393 0.203326 0)
(7.31179 0.218451 0)
(7.27312 0.228251 0)
(7.23799 0.234266 0)
(7.20651 0.237709 0)
(7.17856 0.23938 0)
(7.15389 0.23982 0)
(7.13219 0.239421 0)
(7.11317 0.238468 0)
(7.09656 0.237162 0)
(7.08209 0.235648 0)
(7.06956 0.234032 0)
(7.05845 0.232372 0)
(7.05051 0.230688 0)
(6.48931 0.0542242 0)
(6.45655 0.136899 0)
(6.41294 0.186946 0)
(6.37062 0.218548 0)
(6.33486 0.239382 0)
(6.30523 0.25203 0)
(6.281 0.25873 0)
(6.26177 0.261566 0)
(6.24694 0.261923 0)
(6.23585 0.260658 0)
(6.22789 0.25835 0)
(6.22254 0.255412 0)
(6.21935 0.252129 0)
(6.21796 0.248691 0)
(6.21804 0.245229 0)
(6.21937 0.241831 0)
(6.22148 0.238542 0)
(6.22579 0.235419 0)
(5.45712 0.073389 0)
(5.41829 0.166488 0)
(5.37867 0.214113 0)
(5.35275 0.241937 0)
(5.33861 0.258324 0)
(5.33243 0.26608 0)
(5.33265 0.268253 0)
(5.33802 0.267175 0)
(5.34715 0.26416 0)
(5.35895 0.259992 0)
(5.37265 0.255204 0)
(5.38767 0.250148 0)
(5.40357 0.245051 0)
(5.42 0.240052 0)
(5.43671 0.235235 0)
(5.45352 0.230653 0)
(5.47012 0.22633 0)
(5.48763 0.222327 0)
(4.45282 0.0947768 0)
(4.41205 0.187409 0)
(4.39047 0.225931 0)
(4.39658 0.24639 0)
(4.41646 0.255913 0)
(4.44331 0.257814 0)
(4.47522 0.255564 0)
(4.51029 0.251177 0)
(4.54683 0.245633 0)
(4.58379 0.239528 0)
(4.62055 0.233258 0)
(4.6567 0.227066 0)
(4.69194 0.221092 0)
(4.7261 0.215412 0)
(4.75908 0.210065 0)
(4.79085 0.205065 0)
(4.82125 0.200415 0)
(4.85123 0.196178 0)
(3.50293 0.114452 0)
(3.47301 0.192919 0)
(3.48912 0.217645 0)
(3.54118 0.228883 0)
(3.60258 0.231458 0)
(3.66646 0.228823 0)
(3.73174 0.223817 0)
(3.79669 0.217707 0)
(3.85991 0.211096 0)
(3.92077 0.204382 0)
(3.97901 0.19782 0)
(4.03449 0.19155 0)
(4.08719 0.185642 0)
(4.13718 0.180124 0)
(4.18453 0.175 0)
(4.22939 0.17026 0)
(4.27177 0.16589 0)
(4.31249 0.161964 0)
(2.62982 0.122983 0)
(2.63207 0.176388 0)
(2.70177 0.187968 0)
(2.80468 0.191083 0)
(2.90732 0.189109 0)
(3.00602 0.18459 0)
(3.10158 0.178916 0)
(3.19301 0.172731 0)
(3.27948 0.166438 0)
(3.36086 0.160289 0)
(3.43728 0.154431 0)
(3.50898 0.148937 0)
(3.57618 0.143833 0)
(3.63919 0.139118 0)
(3.69829 0.134777 0)
(3.75377 0.130789 0)
(3.80581 0.127129 0)
(3.85517 0.123893 0)
(1.85178 0.104826 0)
(1.90638 0.134438 0)
(2.03033 0.141897 0)
(2.17812 0.140513 0)
(2.31585 0.137036 0)
(2.4434 0.13292 0)
(2.56364 0.128101 0)
(2.67646 0.122988 0)
(2.78152 0.117941 0)
(2.87912 0.113114 0)
(2.96978 0.10858 0)
(3.05404 0.104373 0)
(3.13239 0.100499 0)
(3.20533 0.0969462 0)
(3.27331 0.0936923 0)
(3.33678 0.0907144 0)
(3.39605 0.0879772 0)
(3.45187 0.0855877 0)
(1.17533 0.04169 0)
(1.28238 0.0661055 0)
(1.43868 0.0889865 0)
(1.61658 0.0891766 0)
(1.78033 0.0862296 0)
(1.92914 0.0833306 0)
(2.0674 0.0798331 0)
(2.19581 0.0761168 0)
(2.31429 0.072527 0)
(2.4234 0.0691483 0)
(2.52402 0.0660058 0)
(2.61694 0.0631151 0)
(2.70287 0.060473 0)
(2.78247 0.0580631 0)
(2.85632 0.0558651 0)
(2.925 0.053862 0)
(2.9889 0.051992 0)
(3.04876 0.0503545 0)
(0.469485 0.226529 0)
(0.642364 0.069163 0)
(0.788937 0.0480256 0)
(0.972451 0.0444101 0)
(1.14912 0.0429718 0)
(1.30915 0.0416789 0)
(1.45686 0.039646 0)
(1.59323 0.0373307 0)
(1.71806 0.0351126 0)
(1.83211 0.0330646 0)
(1.93654 0.0311824 0)
(2.03239 0.0294639 0)
(2.12052 0.0279026 0)
(2.20173 0.0264856 0)
(2.27671 0.0251971 0)
(2.34611 0.0240298 0)
(2.41042 0.0229306 0)
(2.46997 0.0219784 0)
(0.00842826 -0.0174051 -2.69141e-20)
(0.027021 -0.0289799 2.6274e-20)
(0.0463198 -0.0300521 0)
(0.0624638 -0.0254546 0)
(0.073119 -0.0180468 0)
(0.0780775 -0.00969648 -2.46562e-20)
(0.0772115 -0.00175649 0)
(0.0714107 0.00471711 0)
(0.0618788 0.00930792 0)
(0.0494675 0.0122561 0)
(0.0347777 0.0141439 2.41065e-20)
(0.0181334 0.0155554 0)
(-0.000398624 0.0169066 0)
(-0.0209155 0.0184717 0)
(-0.0436219 0.0204001 0)
(-0.068747 0.0227238 2.28211e-20)
(-0.0964821 0.0254032 0)
(-0.126968 0.0283616 0)
(-0.160278 0.0315037 0)
(-0.19641 0.0347218 0)
(-0.235283 0.0379022 0)
(-0.276742 0.0409326 0)
(-0.320564 0.0437101 0)
(-0.366471 0.0461489 1.94187e-20)
(-0.414143 0.0481849 -1.90312e-20)
(-0.463235 0.0497781 1.86601e-20)
(-0.513391 0.0509129 1.83065e-20)
(-0.564263 0.0515978 0)
(-0.615529 0.0518649 0)
(-0.666886 0.0517683 -1.73557e-20)
(-0.718034 0.0513757 -1.70737e-20)
(-0.768785 0.0507533 0)
(-0.818996 0.0499406 0)
(-0.868502 0.048965 -1.63207e-20)
(-0.917186 0.0478594 0)
(-0.964949 0.0466542 0)
(-1.01172 0.0453769 1.5686e-20)
(-1.05743 0.0440507 0)
(-1.10206 0.0426951 1.53134e-20)
(-1.14556 0.0413255 3.02779e-20)
(-1.18793 0.0399537 0)
(-1.22916 0.0385886 0)
(-1.26924 0.0372363 0)
(-1.30817 0.0359008 0)
(-1.34596 0.0345846 0)
(-1.3826 0.0332885 2.84095e-20)
(-1.41811 0.0320128 2.81221e-20)
(-1.45249 0.0307569 2.78384e-20)
(-1.48574 0.0295199 0)
(-1.51786 0.0283004 -2.72781e-20)
(-1.54885 0.0270972 0)
(-1.57872 0.0259089 2.67217e-20)
(-1.60745 0.0247343 2.64431e-20)
(-1.63505 0.0235722 0)
(-1.66151 0.0224216 0)
(-1.68683 0.0212816 0)
(-1.71101 0.0201514 2.53102e-20)
(-1.73402 0.0190304 0)
(-1.75588 0.0179179 0)
(-1.77656 0.0168134 0)
(-1.79607 0.0157161 0)
(-1.8144 0.0146251 0)
(-1.83154 0.0135394 0)
(-1.84747 0.0124574 0)
(-1.8622 0.0113771 0)
(-1.87571 0.0102957 -2.25209e-20)
(-1.88799 0.00921006 0)
(-1.89902 0.00811603 0)
(-1.9088 0.00700872 2.14839e-20)
(-1.91729 0.00588307 2.11245e-20)
(-1.92448 0.00473576 0)
(-1.93032 0.00357054 -2.03851e-20)
(-1.93479 0.00240719 2.00052e-20)
(-1.93782 0.00128564 0)
(-1.93934 0.000255317 -1.92222e-20)
(-1.93959 -0.000640887 0)
(-1.93875 -0.0014311 0)
(-1.9368 -0.0021759 1.79796e-20)
(-1.93377 -0.00289458 0)
(-1.92968 -0.00359549 -1.71098e-20)
(-1.92453 -0.00428182 0)
(-1.91833 -0.00495487 1.62069e-20)
(-1.9111 -0.00561509 1.5743e-20)
(-1.90282 -0.0062626 1.52711e-20)
(-1.89352 -0.00689735 2.95823e-20)
(-1.88319 -0.00751927 -2.86066e-20)
(-1.87185 -0.00812823 0)
(-1.85949 -0.00872416 0)
(-1.84614 -0.00930697 0)
(-1.8318 -0.00987659 -2.45506e-20)
(-1.81648 -0.010433 -2.34999e-20)
(-1.80018 -0.0109761 2.24351e-20)
(-1.78292 -0.0115059 0)
(-1.76472 -0.0120224 -2.02654e-20)
(-1.74557 -0.0125256 -1.91612e-20)
(-1.72549 -0.0130155 -1.80447e-20)
(-1.7045 -0.0134921 0)
(-1.68261 -0.0139553 0)
(-1.65983 -0.0144053 0)
(-1.63617 -0.0148419 -1.34663e-20)
(-1.61164 -0.0152653 0)
(-1.58626 -0.0156753 0)
(-1.56005 -0.016072 9.92965e-21)
(-1.53302 -0.0164554 0)
(-1.50518 -0.0168255 0)
(-1.47655 -0.0171822 6.32306e-21)
(-1.44714 -0.0175255 0)
(-1.41698 -0.0178554 0)
(-1.38607 -0.0181717 -2.66446e-21)
(-1.35444 -0.0184744 -1.43669e-21)
(-1.32211 -0.0187635 0)
(-1.28908 -0.0190388 -1.02674e-21)
(-1.25539 -0.0193004 0)
(-1.22104 -0.0195481 3.49549e-21)
(-1.18607 -0.0197818 0)
(-1.15048 -0.0200014 5.96317e-21)
(-1.11431 -0.0202069 7.19455e-21)
(-1.07757 -0.0203981 0)
(-1.04029 -0.020575 0)
(-1.00248 -0.0207374 0)
(-0.964173 -0.0208854 0)
(-0.925392 -0.0210188 0)
(-0.886159 -0.0211377 0)
(-0.8465 -0.0212419 0)
(-0.80644 -0.0213314 1.6875e-20)
(-0.766003 -0.0214063 -1.80508e-20)
(-0.725217 -0.0214665 0)
(-0.684107 -0.021512 0)
(-0.6427 -0.0215429 0)
(-0.601022 -0.0215592 0)
(-0.559102 -0.0215609 -4.75132e-20)
(-0.516967 -0.0215482 0)
(-0.474643 -0.021521 5.18856e-20)
(-0.43216 -0.0214794 -5.40243e-20)
(-0.389545 -0.0214235 0)
(-0.346828 -0.0213531 0)
(-0.304036 -0.0212682 0)
(-0.261201 -0.0211684 6.22299e-20)
(-0.218353 -0.0210534 6.41875e-20)
(-0.175523 -0.0209214 0)
(-0.132745 -0.0207689 6.79816e-20)
(-0.0900519 -0.0205937 6.98164e-20)
(-0.0474735 -0.0203928 -7.1609e-20)
(-0.00503793 -0.0201411 0)
(0.0371662 -0.0198018 0)
(0.0791433 -0.0194211 -7.4979e-20)
(0.120879 -0.0190446 0)
(0.162356 -0.0186777 0)
(0.203567 -0.0183176 0)
(0.244504 -0.017962 0)
(0.285159 -0.0176094 7.78178e-20)
(0.32552 -0.0172592 7.82413e-20)
(0.365576 -0.0169111 0)
(0.405317 -0.0165653 7.89597e-20)
(0.444731 -0.0162219 0)
(0.48381 -0.0158812 0)
(0.522544 -0.0155436 7.97427e-20)
(0.560926 -0.0152096 0)
(0.598948 -0.0148794 8.00875e-20)
(0.636607 -0.0145536 0)
(0.673896 -0.0142323 0)
(0.710814 -0.0139159 8.03691e-20)
(0.747357 -0.0136043 0)
(0.783523 -0.0132976 8.04154e-20)
(0.819309 -0.0129955 0)
(0.854712 -0.0126972 0)
(0.889725 -0.0124018 0)
(0.924339 -0.0121073 -8.02133e-20)
(0.958537 -0.011811 0)
(0.992291 -0.0115087 7.9986e-20)
(1.02556 -0.0111935 0)
(1.05827 -0.0108551 0)
(1.0903 -0.010476 0)
(1.12147 -0.0100271 0)
(1.15147 -0.009451 0)
(1.17958 -0.00864062 0)
(1.20509 -0.0072744 0)
(1.22336 -0.00457696 -1.58087e-19)
(1.23723 0.0025741 0)
(1.19128 0.017691 0)
(0.00982964 -0.0571668 7.93485e-20)
(0.0224748 -0.0626611 -7.5021e-20)
(0.0272491 -0.0484103 0)
(0.0268899 -0.0312647 4.47193e-20)
(0.0223955 -0.0141922 0)
(0.014354 0.00174193 2.1164e-20)
(0.00340357 0.0158543 -4.15736e-20)
(-0.0104696 0.0277521 -4.08434e-20)
(-0.0273984 0.0374789 0)
(-0.0474274 0.0454912 -3.92786e-20)
(-0.0705735 0.0524214 -1.92849e-20)
(-0.0968189 0.0588604 0)
(-0.126118 0.0652312 0)
(-0.158396 0.0717714 0)
(-0.193548 0.0785665 0)
(-0.231434 0.0855751 -1.73738e-20)
(-0.271878 0.0926655 0)
(-0.314652 0.0996575 3.31484e-20)
(-0.35948 0.106353 0)
(-0.406041 0.11256 0)
(-0.453984 0.118106 -3.09979e-20)
(-0.50294 0.12285 0)
(-0.552542 0.126693 2.96778e-20)
(-0.602438 0.129579 -1.45729e-20)
(-0.652303 0.131494 1.42779e-20)
(-0.701849 0.132464 -1.39988e-20)
(-0.750832 0.132548 -1.37358e-20)
(-0.799053 0.131829 0)
(-0.84636 0.130409 0)
(-0.892639 0.128405 1.30389e-20)
(-0.937806 0.125939 -1.27666e-20)
(-0.981802 0.123121 0)
(-1.02459 0.120033 0)
(-1.06614 0.116746 1.22908e-20)
(-1.10646 0.113321 0)
(-1.14557 0.109811 0)
(-1.18347 0.106257 -1.1828e-20)
(-1.22021 0.102695 0)
(-1.25579 0.0991512 1.14815e-20)
(-1.29026 0.095645 -2.28453e-20)
(-1.32363 0.09219 0)
(-1.35594 0.0887948 0)
(-1.38719 0.0854643 -4.4079e-20)
(-1.41741 0.0822001 -4.36136e-20)
(-1.44662 0.0790016 -4.31572e-20)
(-1.47483 0.0758669 2.12842e-20)
(-1.50204 0.0727927 -2.12008e-20)
(-1.52827 0.0697753 -6.28048e-20)
(-1.55352 0.0668106 4.13885e-20)
(-1.5778 0.0638947 2.0541e-20)
(-1.60109 0.0610236 0)
(-1.62341 0.0581938 -2.01025e-20)
(-1.64475 0.0554021 1.97666e-20)
(-1.66511 0.0526457 0)
(-1.68448 0.0499223 0)
(-1.70286 0.04723 0)
(-1.72025 0.0445673 -1.89832e-20)
(-1.73664 0.041933 0)
(-1.75202 0.0393264 3.69548e-20)
(-1.76639 0.0367467 0)
(-1.77974 0.0341935 3.60111e-20)
(-1.79208 0.0316666 0)
(-1.80338 0.0291655 -3.50372e-20)
(-1.81366 0.0266899 0)
(-1.8229 0.024239 3.40297e-20)
(-1.83111 0.021812 -1.67403e-20)
(-1.83828 0.0194076 0)
(-1.84442 0.0170243 -3.24499e-20)
(-1.84952 0.0146602 -1.59562e-20)
(-1.85362 0.0123133 -1.56743e-20)
(-1.85671 0.00998143 0)
(-1.85884 0.00766479 -1.51107e-20)
(-1.86006 0.00537497 -1.47987e-20)
(-1.86044 0.00314516 0)
(-1.86007 0.00102162 1.41848e-20)
(-1.85883 -0.00097444 -2.77789e-20)
(-1.85658 -0.00286735 0)
(-1.85331 -0.00469449 -1.32208e-20)
(-1.84901 -0.00647132 0)
(-1.84368 -0.00820622 3.7729e-20)
(-1.83732 -0.00990258 0)
(-1.82993 -0.0115617 -3.56758e-20)
(-1.82152 -0.013184 -1.15101e-20)
(-1.81209 -0.0147693 1.12559e-20)
(-1.80164 -0.0163173 2.18018e-20)
(-1.79019 -0.0178277 -2.10818e-20)
(-1.77774 -0.0193002 0)
(-1.76429 -0.0207344 0)
(-1.74986 -0.0221303 0)
(-1.73445 -0.0234876 5.37325e-20)
(-1.71808 -0.0248062 1.7033e-20)
(-1.70075 -0.0260862 -1.62444e-20)
(-1.68247 -0.0273275 0)
(-1.66325 -0.0285301 -1.49883e-20)
(-1.6431 -0.0296942 1.38315e-20)
(-1.62204 -0.0308197 1.30126e-20)
(-1.60008 -0.0319069 0)
(-1.57722 -0.0329559 0)
(-1.55348 -0.0339667 0)
(-1.52888 -0.0349395 9.67336e-21)
(-1.50343 -0.0358745 0)
(-1.47713 -0.0367718 -1.63758e-20)
(-1.45001 -0.0376315 -2.17823e-20)
(-1.42208 -0.0384539 1.29547e-20)
(-1.39335 -0.0392391 0)
(-1.36385 -0.0399872 4.98695e-21)
(-1.33357 -0.0406983 0)
(-1.30255 -0.0413725 6.03181e-21)
(-1.2708 -0.0420098 -2.39099e-21)
(-1.23833 -0.0426105 -1.52199e-21)
(-1.20517 -0.0431745 0)
(-1.17132 -0.0437019 1.67835e-21)
(-1.13682 -0.0441929 -2.69509e-21)
(-1.10168 -0.0446474 -2.48104e-21)
(-1.06591 -0.0450657 0)
(-1.02955 -0.0454476 -4.2264e-21)
(-0.992603 -0.0457933 -1.47524e-20)
(-0.955101 -0.0461029 0)
(-0.917062 -0.0463766 -1.31082e-20)
(-0.878511 -0.0466145 -1.48227e-20)
(-0.839469 -0.0468167 -1.65285e-20)
(-0.79996 -0.0469834 0)
(-0.760009 -0.0471149 0)
(-0.71964 -0.0472113 0)
(-0.678878 -0.047273 1.13471e-20)
(-0.637749 -0.0473004 1.27181e-20)
(-0.596278 -0.0472936 0)
(-0.554491 -0.0472533 2.81342e-20)
(-0.512416 -0.0471797 2.97322e-20)
(-0.470078 -0.0470734 0)
(-0.427505 -0.0469348 3.34134e-20)
(-0.384725 -0.0467646 6.88297e-20)
(-0.341764 -0.046563 -3.64696e-20)
(-0.298651 -0.0463307 -3.69047e-20)
(-0.255413 -0.0460681 0)
(-0.212079 -0.0457755 0)
(-0.168678 -0.045453 0)
(-0.125237 -0.0451003 -4.37142e-20)
(-0.0817872 -0.0447163 4.40764e-20)
(-0.0383574 -0.0442997 9.18757e-20)
(0.00502176 -0.0438487 -4.76281e-20)
(0.0483191 -0.0433625 4.75987e-20)
(0.0915065 -0.0428454 4.93819e-20)
(0.134557 -0.0423004 0)
(0.177444 -0.0417141 0)
(0.220157 -0.0410931 -5.0796e-20)
(0.262674 -0.0404602 0)
(0.304975 -0.0398256 0)
(0.347041 -0.0391908 1.06608e-19)
(0.388858 -0.0385551 0)
(0.430411 -0.0379178 5.41267e-20)
(0.471687 -0.0372785 -5.54468e-20)
(0.512674 -0.0366375 0)
(0.553361 -0.0359953 5.57357e-20)
(0.593736 -0.0353529 0)
(0.63379 -0.0347112 0)
(0.673513 -0.0340712 -5.77294e-20)
(0.7129 -0.0334341 1.15573e-19)
(0.751942 -0.0328008 -5.84493e-20)
(0.790636 -0.0321724 0)
(0.828976 -0.0315497 0)
(0.866961 -0.0309334 5.87839e-20)
(0.904588 -0.0303239 0)
(0.941854 -0.0297212 5.92966e-20)
(0.978758 -0.0291246 0)
(1.0153 -0.0285329 0)
(1.05146 -0.0279437 0)
(1.08725 -0.0273528 6.05236e-20)
(1.12264 -0.0267538 0)
(1.1576 -0.0261368 -6.07617e-20)
(1.1921 -0.0254863 0)
(1.22607 -0.0247776 0)
(1.25938 -0.0239704 1.21634e-19)
(1.29188 -0.0229967 -1.21783e-19)
(1.32326 -0.0217265 0)
(1.35296 -0.0199179 0)
(1.38037 -0.0169351 0)
(1.40278 -0.011599 3.69016e-19)
(1.42278 0.000722581 0)
(1.42521 0.0255734 -2.49625e-19)
(0.00369033 -0.0795767 -9.61328e-23)
(0.00301012 -0.0642768 9.65396e-20)
(-0.00452523 -0.0378856 0)
(-0.0149509 -0.0131108 -8.12914e-20)
(-0.0279936 0.00962633 0)
(-0.0433527 0.03032 0)
(-0.0609452 0.0490339 3.70172e-23)
(-0.0808374 0.0658355 3.46457e-20)
(-0.103184 0.0808679 3.37967e-20)
(-0.128135 0.0944239 3.30831e-20)
(-0.155774 0.106903 0)
(-0.186083 0.118697 0)
(-0.218946 0.130096 -3.08792e-20)
(-0.254165 0.141239 -6.03488e-20)
(-0.291481 0.152121 5.89574e-20)
(-0.330588 0.162626 0)
(-0.371154 0.172568 5.62443e-20)
(-0.412835 0.181732 -2.74922e-20)
(-0.455287 0.189907 0)
(-0.49818 0.196911 5.24102e-20)
(-0.541212 0.202606 2.56166e-20)
(-0.584118 0.206911 -5.00549e-20)
(-0.626675 0.209797 -2.44757e-20)
(-0.668707 0.211292 0)
(-0.71008 0.211469 4.68723e-20)
(-0.750703 0.210439 4.59083e-20)
(-0.79052 0.208337 0)
(-0.829501 0.205317 4.41224e-20)
(-0.867638 0.201535 0)
(-0.904933 0.197146 4.25156e-20)
(-0.941394 0.192295 2.08918e-20)
(-0.977029 0.187108 0)
(-1.01185 0.181692 0)
(-1.04587 0.176132 0)
(-1.07911 0.1705 0)
(-1.11157 0.164852 0)
(-1.14328 0.159232 0)
(-1.17423 0.153671 3.74893e-20)
(-1.20444 0.148193 -5.54983e-20)
(-1.2339 0.142812 0)
(-1.26263 0.137536 0)
(-1.29062 0.132369 0)
(-1.31787 0.127309 7.7831e-23)
(-1.34437 0.122354 3.47398e-20)
(-1.37012 0.1175 6.85459e-20)
(-1.39511 0.112738 -6.77083e-20)
(-1.41934 0.108065 -3.34011e-20)
(-1.44278 0.103471 3.30772e-20)
(-1.46544 0.0989512 -8.13077e-23)
(-1.48731 0.0944991 3.21967e-20)
(-1.50836 0.090109 0)
(-1.52859 0.0857761 3.141e-20)
(-1.54799 0.0814959 -7.40077e-23)
(-1.56654 0.0772651 0)
(-1.58424 0.0730808 0)
(-1.60106 0.0689408 -2.98453e-20)
(-1.61701 0.0648435 0)
(-1.63206 0.0607879 0)
(-1.64621 0.0567735 2.86052e-20)
(-1.65944 0.0528 5.65147e-20)
(-1.67176 0.0488677 -2.78973e-20)
(-1.68313 0.044977 0)
(-1.69357 0.0411286 2.70667e-20)
(-1.70306 0.0373232 0)
(-1.7116 0.0335619 2.61676e-20)
(-1.71918 0.0298459 2.57851e-20)
(-1.7258 0.0261769 -5.06657e-20)
(-1.73146 0.022557 -2.48857e-20)
(-1.73618 0.0189896 0)
(-1.73994 0.0154798 4.80034e-20)
(-1.74276 0.012035 0)
(-1.74466 0.0086655 6.9243e-20)
(-1.74564 0.00538436 4.52356e-20)
(-1.7457 0.00220309 4.42762e-20)
(-1.74482 -0.000878407 -4.32983e-20)
(-1.74298 -0.00388349 6.343e-20)
(-1.74015 -0.00682897 0)
(-1.73632 -0.00971498 0)
(-1.73149 -0.0125422 -3.92724e-20)
(-1.72567 -0.0153108 -5.72916e-20)
(-1.71885 -0.0180207 0)
(-1.71103 -0.0206713 1.79882e-20)
(-1.70222 -0.0232622 0)
(-1.69242 -0.0257927 -5.084e-20)
(-1.68164 -0.0282619 1.72875e-22)
(-1.66988 -0.0306693 -1.83615e-22)
(-1.65715 -0.0330143 3.05999e-20)
(-1.64345 -0.0352965 0)
(-1.6288 -0.0375154 -2.83087e-20)
(-1.6132 -0.0396708 2.2499e-22)
(-1.59665 -0.0417626 0)
(-1.57918 -0.0437907 0)
(-1.56078 -0.0457551 0)
(-1.54148 -0.0476558 2.21282e-20)
(-1.52127 -0.0494931 0)
(-1.50017 -0.0512671 0)
(-1.47819 -0.0529779 0)
(-1.45534 -0.0546258 0)
(-1.43163 -0.056211 0)
(-1.40708 -0.0577337 1.4996e-20)
(-1.3817 -0.0591943 0)
(-1.3555 -0.0605929 1.21474e-20)
(-1.3285 -0.0619298 1.0873e-20)
(-1.30071 -0.0632055 -9.59468e-21)
(-1.27214 -0.06442 0)
(-1.24281 -0.0655738 -7.02853e-21)
(-1.21273 -0.0666669 0)
(-1.18193 -0.0676997 -4.45406e-21)
(-1.15041 -0.0686722 3.16537e-21)
(-1.11819 -0.0695847 6.38598e-21)
(-1.0853 -0.0704374 0)
(-1.05174 -0.0712304 -1.32064e-21)
(-1.01754 -0.071964 -1.20033e-21)
(-0.982716 -0.0726384 0)
(-0.947288 -0.0732537 -8.29082e-21)
(-0.911274 -0.0738101 -1.08338e-20)
(-0.874696 -0.0743079 2.04565e-20)
(-0.837574 -0.0747472 0)
(-0.79993 -0.0751284 9.61122e-21)
(-0.761787 -0.0754519 1.08624e-20)
(-0.723167 -0.0757178 3.54917e-20)
(-0.684092 -0.0759267 0)
(-0.644587 -0.076079 0)
(-0.604676 -0.0761752 0)
(-0.564383 -0.0762158 1.61584e-20)
(-0.523732 -0.0762015 0)
(-0.482751 -0.076133 0)
(-0.441463 -0.076011 -2.05414e-20)
(-0.399895 -0.0758363 -2.17003e-20)
(-0.358073 -0.0756097 0)
(-0.316024 -0.0753323 0)
(-0.273775 -0.0750048 -5.01883e-20)
(-0.231351 -0.0746283 0)
(-0.188781 -0.0742036 5.45652e-20)
(-0.146092 -0.0737316 5.59038e-20)
(-0.10331 -0.0732128 0)
(-0.0604642 -0.0726477 0)
(-0.0175813 -0.0720367 -6.21279e-20)
(0.0253107 -0.0713802 -7.71119e-22)
(0.0681836 -0.0706776 -7.57914e-22)
(0.11101 -0.0699287 0)
(0.153763 -0.0691348 -1.37479e-19)
(0.196418 -0.0683003 0)
(0.238953 -0.0674334 0)
(0.281361 -0.0665388 0)
(0.323625 -0.0656182 7.43976e-20)
(0.365721 -0.0646791 0)
(0.407624 -0.0637286 -1.52359e-19)
(0.449311 -0.0627697 -7.7978e-20)
(0.490763 -0.0618034 0)
(0.531963 -0.0608303 -8.01447e-20)
(0.572898 -0.0598513 0)
(0.613553 -0.0588671 0)
(0.653917 -0.0578794 -2.481e-19)
(0.693978 -0.0568895 1.66842e-19)
(0.733727 -0.0558992 0)
(0.773156 -0.0549104 1.70238e-19)
(0.812257 -0.0539247 -8.64144e-20)
(0.851024 -0.052944 0)
(0.889452 -0.0519699 0)
(0.927537 -0.0510038 0)
(0.965278 -0.0500468 -2.66566e-19)
(1.00267 -0.0490995 0)
(1.03972 -0.0481621 -9.03191e-20)
(1.07641 -0.0472335 0)
(1.11275 -0.0463118 0)
(1.14873 -0.045393 0)
(1.18435 -0.0444707 0)
(1.21958 -0.0435348 0)
(1.2544 -0.0425694 0)
(1.28878 -0.0415502 -1.86126e-19)
(1.32265 -0.0404388 0)
(1.3559 -0.039173 -9.407e-20)
(1.38838 -0.0376492 2.82526e-19)
(1.41984 -0.035681 0)
(1.44984 -0.0329281 0)
(1.47794 -0.0286481 -1.90393e-19)
(1.50252 -0.0215263 -1.92108e-19)
(1.52567 -0.00783964 1.93521e-19)
(1.54024 0.0183418 1.96205e-19)
(-0.00477351 -0.0711821 -1.54693e-19)
(-0.0162185 -0.0413757 -1.39007e-19)
(-0.0318133 -0.0095589 -8.18407e-20)
(-0.0489496 0.0191374 -3.71004e-20)
(-0.0677596 0.0454264 0)
(-0.0880815 0.069712 6.58877e-20)
(-0.109953 0.0921763 -3.16823e-20)
(-0.133506 0.112931 0)
(-0.158877 0.132107 -2.99688e-20)
(-0.186155 0.149894 0)
(-0.215353 0.166511 5.7003e-20)
(-0.246387 0.182155 0)
(-0.279087 0.196944 2.71667e-20)
(-0.313214 0.210895 5.30153e-20)
(-0.348484 0.223931 -5.17209e-20)
(-0.384595 0.235909 0)
(-0.421248 0.246657 -4.92136e-20)
(-0.458159 0.256002 0)
(-0.49508 0.2638 0)
(-0.5318 0.269953 -4.56991e-20)
(-0.568155 0.27442 0)
(-0.604024 0.277212 -6.46489e-23)
(-0.639329 0.278395 0)
(-0.674028 0.278075 0)
(-0.708106 0.276393 7.18262e-23)
(-0.741571 0.273509 -3.97614e-20)
(-0.774444 0.269594 -3.89903e-20)
(-0.806751 0.26482 -3.81253e-20)
(-0.83852 0.259353 0)
(-0.869777 0.253347 -7.33508e-20)
(-0.90054 0.246939 0)
(-0.930823 0.240247 -3.53566e-20)
(-0.960632 0.233371 0)
(-0.989971 0.226389 0)
(-1.01884 0.219368 3.35715e-20)
(-1.04723 0.212356 0)
(-1.07513 0.205392 -3.2512e-20)
(-1.10254 0.198503 -1.85567e-25)
(-1.12944 0.191706 6.30821e-20)
(-1.15582 0.185013 -6.21583e-20)
(-1.18165 0.178429 0)
(-1.20693 0.171956 0)
(-1.23164 0.165592 -2.97709e-20)
(-1.25576 0.159331 0)
(-1.27927 0.153169 -2.90169e-20)
(-1.30215 0.147098 2.86329e-20)
(-1.32438 0.141112 2.82563e-20)
(-1.34596 0.135204 0)
(-1.36685 0.129368 -2.75208e-20)
(-1.38704 0.123597 -2.71602e-20)
(-1.40651 0.117886 5.35506e-20)
(-1.42525 0.11223 -2.64488e-20)
(-1.44324 0.106626 -2.60966e-20)
(-1.46046 0.101072 0)
(-1.47689 0.0955637 0)
(-1.49253 0.0901014 2.50462e-20)
(-1.50734 0.084684 0)
(-1.52133 0.0793114 0)