/*--------------------------------*- C++ -*----------------------------------*\
| =========                 |                                                 |
| \\      /  F ield         | OpenFOAM: The Open Source CFD Toolbox           |
|  \\    /   O peration     | Version:  2412                                  |
|   \\  /    A nd           | Website:  www.openfoam.com                      |
|    \\/     M anipulation  |                                                 |
\*---------------------------------------------------------------------------*/
FoamFile
{
    version     2.0;
    format      ascii;
    arch        "LSB;label=32;scalar=64";
    class       volScalarField;
    location    "5.25";
    object      p;
}
// * * * * * * * * * * * * * * * * * * * * * * * * * * * * * * * * * * * * * //

dimensions      [0 2 -2 0 0 0 0];

internalField   nonuniform List<scalar> 
2200
(
0.102161
0.102048
0.102699
0.104235
0.110047
0.122922
0.148389
0.19178
0.259406
0.355357
0.45687
0.53463
0.585206
0.615814
0.633232
0.642789
0.647707
0.649834
0.650779
0.651174
0.096699
0.096756
0.0978152
0.100969
0.108079
0.12337
0.151478
0.195546
0.263884
0.361578
0.462711
0.539814
0.589403
0.61935
0.635162
0.642905
0.646766
0.648279
0.648255
0.648415
0.0906745
0.0904796
0.09261
0.0980118
0.108861
0.12912
0.160175
0.208082
0.278687
0.375812
0.477418
0.556136
0.604593
0.630959
0.64333
0.647431
0.649253
0.650729
0.650639
0.651136
0.0859256
0.0855632
0.0870406
0.0926552
0.108286
0.132223
0.167253
0.223399
0.298798
0.399978
0.503105
0.580009
0.625045
0.645806
0.654616
0.656563
0.656044
0.657219
0.658902
0.659416
0.0857102
0.0851689
0.0840806
0.0885197
0.1035
0.129036
0.172157
0.234397
0.315937
0.424756
0.530582
0.606217
0.649742
0.668361
0.672886
0.674502
0.675457
0.674755
0.677991
0.679213
0.0919023
0.0905887
0.0892274
0.0924505
0.100139
0.123486
0.17223
0.238465
0.329143
0.446016
0.557465
0.637388
0.679892
0.697386
0.701411
0.704945
0.711107
0.712779
0.716466
0.718259
0.105493
0.103171
0.102758
0.105264
0.1055
0.122592
0.162673
0.230106
0.334448
0.466928
0.587696
0.668832
0.70982
0.731407
0.746257
0.75788
0.76813
0.771525
0.775104
0.777836
0.129657
0.126852
0.127234
0.128875
0.12893
0.138978
0.164099
0.223248
0.330561
0.478704
0.613837
0.702738
0.751256
0.789561
0.821864
0.841389
0.853068
0.858311
0.859964
0.863651
0.160168
0.157769
0.158427
0.159263
0.165246
0.174944
0.192123
0.243319
0.343279
0.49889
0.649254
0.758557
0.827727
0.884223
0.925356
0.951533
0.958717
0.96845
0.96952
0.972727
0.183659
0.181614
0.181976
0.182726
0.198133
0.215344
0.241889
0.295543
0.390738
0.550669
0.717324
0.851647
0.948358
1.01174
1.04712
1.07415
1.07483
1.08737
1.08994
1.09307
0.19645
0.194139
0.193291
0.19358
0.215624
0.246056
0.30003
0.373539
0.479527
0.648497
0.836775
0.997644
1.11099
1.16988
1.18764
1.20307
1.20471
1.21731
1.22229
1.22585
0.20179
0.1983
0.194365
0.191682
0.21374
0.260412
0.349659
0.465458
0.613545
0.81224
1.02895
1.20661
1.31149
1.35111
1.33697
1.34972
1.3577
1.37374
1.38389
1.38856
0.230118
0.225206
0.216821
0.210956
0.22307
0.277136
0.385522
0.547969
0.765044
1.02449
1.27642
1.45376
1.52921
1.54124
1.54232
1.55149
1.56807
1.58488
1.59786
1.60367
0.291755
0.287822
0.280253
0.275915
0.283529
0.327649
0.43352
0.621721
0.898715
1.23621
1.52982
1.7083
1.77066
1.78239
1.81008
1.8299
1.85355
1.87257
1.88662
1.89244
0.378834
0.374334
0.364738
0.358702
0.368873
0.408472
0.49959
0.688735
0.997349
1.40622
1.74915
1.94857
2.03481
2.08967
2.1441
2.1769
2.20409
2.22588
2.23985
2.24534
0.461598
0.458492
0.450362
0.439436
0.449549
0.489984
0.564623
0.746186
1.06223
1.51646
1.91915
2.17698
2.33836
2.44792
2.52654
2.57028
2.60349
2.63344
2.64951
2.65568
0.543158
0.537953
0.527047
0.512811
0.519166
0.565397
0.654101
0.831184
1.13529
1.60537
2.08444
2.45517
2.72098
2.87842
2.96183
3.01923
3.06481
3.10104
3.11841
3.12476
0.614615
0.610651
0.599799
0.581807
0.583999
0.640808
0.770674
0.980648
1.31734
1.82708
2.39917
2.89664
3.23092
3.39005
3.47385
3.5457
3.59795
3.63623
3.65611
3.66341
0.669312
0.664546
0.654214
0.639302
0.642753
0.700342
0.872247
1.17174
1.64392
2.29044
2.96822
3.5134
3.83398
3.9754
4.06921
4.14959
4.20591
4.24794
4.26934
4.27655
0.691918
0.687353
0.676697
0.66223
0.668451
0.735057
0.935909
1.31596
1.9615
2.81228
3.60876
4.15383
4.45535
4.61925
4.73445
4.8253
4.88921
4.93373
4.95742
4.96565
0.644834
0.641936
0.632511
0.619014
0.632727
0.715874
0.93644
1.36062
2.12178
3.12862
4.06122
4.6962
5.08734
5.30661
5.46282
5.57178
5.64768
5.69878
5.72471
5.73312
0.512218
0.508623
0.500382
0.492674
0.510513
0.616099
0.878123
1.37013
2.21753
3.32545
4.41214
5.23992
5.77555
6.07001
6.26286
6.38974
6.47647
6.52946
6.55718
6.5657
0.239839
0.242022
0.241207
0.240503
0.282466
0.438958
0.792547
1.41832
2.431
3.70215
4.95852
5.95183
6.57461
6.91578
7.12876
7.2696
7.36748
7.42831
7.45891
7.46386
-0.208945
-0.205018
-0.195122
-0.164863
-0.0705485
0.173875
0.672595
1.50905
2.78308
4.28912
5.72604
6.80931
7.46333
7.83135
8.06765
8.22605
8.32907
8.39566
8.43359
8.44808
-0.929468
-0.895357
-0.837949
-0.736965
-0.542287
-0.164737
0.514241
1.61012
3.13396
4.87392
6.5275
7.71044
8.40849
8.82145
9.08715
9.2613
9.38248
9.46438
9.51252
9.53414
-2.03749
-1.95326
-1.76379
-1.5007
-1.13275
-0.558195
0.341421
1.68624
3.4262
5.40075
7.30473
8.63424
9.4093
9.881
10.1731
10.3621
10.4969
10.6017
10.643
10.6483
-3.6334
-3.36148
-2.92175
-2.42464
-1.82365
-1.00919
0.160858
1.77245
3.76387
6.02096
8.22899
9.75464
10.6609
11.2143
11.5492
11.783
11.945
12.0542
12.1499
12.1527
-5.73726
-4.98516
-4.19466
-3.44038
-2.59716
-1.51689
-0.0556
1.86689
4.17437
6.76321
9.27706
11.015
12.0524
12.7049
13.1393
13.4499
13.6948
13.8857
14.0329
14.0505
-7.65109
-6.6046
-5.55258
-4.54999
-3.4307
-2.06987
-0.316518
1.92584
4.55965
7.45928
10.202
12.1059
13.2551
13.9991
14.5439
14.9296
15.2115
15.4452
15.637
15.6638
-9.22724
-8.04549
-6.85904
-5.63366
-4.25491
-2.62976
-0.597059
1.93991
4.86222
8.02563
10.9501
12.9951
14.2481
15.0789
15.6756
16.1292
16.4773
16.7586
16.9777
17.0174
-10.6039
-9.31151
-8.00721
-6.60033
-5.01885
-3.14999
-0.850074
1.92138
5.0723
8.44951
11.5231
13.6756
15.0097
15.9135
16.5682
17.0785
17.4602
17.7405
17.9709
18.024
-11.7586
-10.3318
-8.97895
-7.4657
-5.7091
-3.61615
-1.07712
1.87777
5.20594
8.74727
11.9326
14.1611
15.5654
16.5238
17.2038
17.7247
18.1437
18.4728
18.7356
18.8026
-12.7196
-11.1333
-9.80566
-8.22045
-6.31677
-4.02844
-1.30837
1.79896
5.26235
8.93245
12.2024
14.4891
15.948
16.94
17.6506
18.2033
18.6508
18.9914
19.2872
19.3682
-13.5591
-11.8306
-10.4921
-8.84512
-6.82222
-4.38103
-1.54146
1.68007
5.24497
9.01429
12.3484
14.6697
16.1716
17.2142
17.9763
18.5575
19.0276
19.3758
19.6754
19.7528
-14.2952
-12.4571
-11.1404
-9.36491
-7.20002
-4.66694
-1.75276
1.53649
5.16949
9.00768
12.3932
14.7435
16.31
17.4098
18.2194
18.8243
19.3418
19.6715
20.0169
20.0629
-14.8629
-13.0659
-11.6824
-9.73624
-7.4618
-4.8844
-1.94186
1.38069
5.05666
8.93543
12.3478
14.7817
16.3941
17.5682
18.4552
19.0709
19.6071
19.9421
20.2715
20.3388
-15.3965
-13.6136
-12.0565
-9.95562
-7.62223
-5.04225
-2.10791
1.22736
4.92731
8.82316
12.2621
14.7633
16.4857
17.7287
18.6435
19.3082
19.8466
20.2175
20.5287
20.6085
-15.8071
-14.0126
-12.3425
-10.1057
-7.7347
-5.16946
-2.24802
1.09086
4.79722
8.69032
12.1619
14.7445
16.5599
17.8692
18.8338
19.5428
20.0827
20.4774
20.7822
20.8653
-16.1891
-14.3134
-12.5228
-10.2273
-7.85997
-5.29256
-2.36601
0.978037
4.67364
8.55164
12.0573
14.7171
16.6106
17.9846
18.9985
19.7468
20.33
20.7459
21.0447
21.132
-16.4969
-14.6446
-12.7403
-10.4055
-8.02708
-5.42782
-2.47297
0.881632
4.55571
8.41477
11.9465
14.6664
16.6267
18.0646
19.142
19.9387
20.5499
20.9922
21.3125
21.3963
-16.7559
-14.9105
-13.0078
-10.6633
-8.24506
-5.5892
-2.58531
0.784352
4.43696
8.27727
11.8193
14.5767
16.5923
18.0983
19.2511
20.1153
20.7806
21.2502
21.5758
21.6624
-17.0641
-15.2208
-13.2891
-10.9558
-8.50234
-5.77984
-2.71898
0.668737
4.30789
8.12924
11.6655
14.4462
16.5156
18.0956
19.3295
20.2727
20.9981
21.5086
21.8569
21.9427
-17.4048
-15.5817
-13.6499
-11.2933
-8.77982
-5.99561
-2.88248
0.525143
4.1592
7.9606
11.4822
14.2809
16.4024
18.0635
19.3823
20.408
21.2043
21.7683
22.1381
22.2323
-17.7749
-15.9176
-13.9656
-11.6019
-9.06001
-6.22933
-3.07467
0.351663
3.98459
7.7674
11.2746
14.0902
16.2576
17.9926
19.3951
20.5121
21.3907
22.0216
22.4162
22.4879
-18.1656
-16.2745
-14.2814
-11.9031
-9.34261
-6.47632
-3.29013
0.150408
3.78292
7.55328
11.0525
13.8828
16.0836
17.8749
19.3604
20.5765
21.5553
22.2668
22.6847
22.6914
-18.5803
-16.6645
-14.676
-12.2415
-9.62461
-6.73078
-3.52307
-0.0752534
3.55817
7.32646
10.8247
13.663
15.8828
17.7117
19.2641
20.5776
21.6677
22.4985
23.0032
22.8602
-18.9924
-17.0968
-15.0868
-12.5589
-9.89312
-6.98226
-3.76506
-0.317826
3.31807
7.09176
10.5881
13.4206
15.6437
17.4905
19.086
20.4862
21.706
22.6923
23.3939
23.4155
-19.3494
-17.3787
-15.2894
-12.754
-10.146
-7.22239
-4.00822
-0.567723
3.06988
6.84719
10.3306
13.1379
15.3433
17.1865
18.7961
20.2376
21.5372
22.6572
23.2012
23.1328
-19.6192
-17.5474
-15.4201
-12.9411
-10.3858
-7.44818
-4.24383
-0.810335
2.82679
6.59851
10.0522
12.814
14.9794
16.7899
18.3682
19.7795
21.0242
21.9774
22.3351
22.3403
-19.896
-17.9823
-15.9508
-13.355
-10.6197
-7.67952
-4.47322
-1.04397
2.58898
6.34141
9.74873
12.4481
14.5484
16.2922
17.7925
19.0973
20.181
20.7965
21.0233
21.1597
-20.2443
-18.501
-16.4776
-13.681
-10.8628
-7.92908
-4.70233
-1.27473
2.34948
6.0688
9.41852
12.0425
14.0528
15.6921
17.0572
18.1874
19.0771
19.5744
19.7281
19.9439
-20.5126
-18.6657
-16.4904
-13.7593
-11.1518
-8.18164
-4.94327
-1.51393
2.09602
5.77199
9.06021
11.5998
13.4933
14.9862
16.1816
17.1273
17.8341
18.2129
18.2792
18.5874
-20.6479
-18.7152
-16.6004
-14.0382
-11.4732
-8.43743
-5.20049
-1.76623
1.82237
5.44959
8.67621
11.1237
12.8779
14.1905
15.1922
15.9431
16.4075
16.645
16.7391
17.0774
-20.9185
-19.1486
-17.1624
-14.5567
-11.7711
-8.7198
-5.46002
-2.02604
1.53492
5.11168
8.27558
10.6234
12.2229
13.3314
14.1221
14.6805
14.9391
14.9248
14.8123
15.0297
-21.2926
-19.5585
-17.4668
-14.7938
-12.0302
-8.99632
-5.70618
-2.28618
1.24396
4.77033
7.86742
10.1101
11.5551
12.4546
13.0124
13.3592
13.3978
12.8374
11.8967
11.9909
-21.5211
-19.6576
-17.4333
-14.8611
-12.2629
-9.21148
-5.93475
-2.53801
0.959066
4.4349
7.4583
9.59411
10.899
11.6043
11.911
11.966
11.781
10.7085
8.47095
6.46171
-21.6972
-19.8345
-17.6907
-15.1281
-12.4663
-9.39048
-6.14494
-2.77204
0.690783
4.11584
7.06005
9.09304
10.2812
10.8281
10.8957
10.6043
10.0936
9.06422
5.23225
-4.95957
-21.9698
-20.1724
-18.0292
-15.373
-12.6328
-9.56717
-6.3347
-2.98732
0.441628
3.81289
6.67154
8.60459
9.69652
10.1271
10.0089
9.47223
8.76222
8.09057
7.48406
3.51728
-22.2102
-20.3887
-18.1438
-15.4643
-12.7798
-9.72778
-6.51403
-3.19572
0.199094
3.51136
6.28432
8.12606
9.1426
9.51363
9.3495
8.86538
8.31221
8.29566
9.19734
8.27535
-22.3686
-20.5408
-18.2897
-15.6161
-12.9449
-9.88106
-6.69709
-3.40491
-0.0450267
3.20707
5.90505
7.67679
8.64813
9.03516
8.99181
8.72575
8.40931
8.36089
8.8288
8.34859
-22.5656
-20.7686
-18.5287
-15.8288
-13.1342
-10.0534
-6.89222
-3.62136
-0.29574
2.90073
5.54169
7.2755
8.23955
8.70213
8.86624
8.7662
8.54316
8.30854
8.42049
8.36563
-22.7646
-20.9856
-18.7195
-16.0236
-13.3338
-10.2386
-7.09899
-3.8481
-0.553057
2.59839
5.20275
6.93617
7.93466
8.48676
8.78208
8.84337
8.68292
8.4118
8.51031
8.55176
-22.9265
-21.1617
-18.8846
-16.2165
-13.533
-10.4234
-7.31375
-4.08269
-0.811228
2.3092
4.89748
6.66478
7.73204
8.36828
8.74579
8.93252
8.88261
8.6831
8.76254
8.79433
-23.0591
-21.3344
-19.059
-16.4225
-13.7222
-10.6085
-7.5305
-4.31703
-1.06136
2.04263
4.63562
6.46012
7.61555
8.33751
8.78896
9.07723
9.17199
9.04244
9.06392
9.09646
-23.1521
-21.4787
-19.2008
-16.5977
-13.8696
-10.7817
-7.73634
-4.53735
-1.29334
1.80539
4.4236
6.31967
7.57449
8.39267
8.92016
9.2987
9.5473
9.51323
9.53346
9.56819
-23.1739
-21.5599
-19.2847
-16.711
-13.9621
-10.9387
-7.91597
-4.72758
-1.4996
1.60132
4.26337
6.24205
7.60315
8.52948
9.14957
9.62648
10.0211
10.1837
10.2546
10.2966
-23.0924
-21.5512
-19.2904
-16.7402
-14.0075
-11.0582
-8.04774
-4.87982
-1.67716
1.43301
4.15133
6.21915
7.69398
8.75467
9.50748
10.1023
10.6298
10.9938
11.162
11.2259
-22.9038
-21.4445
-19.198
-16.6911
-14.002
-11.1146
-8.13067
-4.99633
-1.82461
1.30122
4.07989
6.23613
7.83095
9.04077
9.95746
10.6807
11.2933
11.7733
12.0298
12.0958
-22.5491
-21.1858
-18.995
-16.548
-13.9236
-11.1014
-8.16376
-5.07769
-1.94029
1.19681
4.03407
6.27125
7.97783
9.33049
10.3968
11.2102
11.844
12.331
12.6259
12.7008
-22.0381
-20.7911
-18.6615
-16.299
-13.757
-11.0155
-8.14361
-5.11921
-2.02357
1.10959
3.98731
6.29012
8.08177
9.52057
10.6351
11.4445
12.0557
12.5333
12.8464
12.9363
-21.28
-20.179
-18.1735
-15.9298
-13.4965
-10.8577
-8.06823
-5.11952
-2.08237
1.02237
3.90615
6.23896
8.04392
9.45882
10.5307
11.3217
11.9314
12.4115
12.7353
12.8428
-20.3071
-19.3925
-17.5309
-15.429
-13.1328
-10.6176
-7.93117
-5.07976
-2.12472
0.915151
3.75249
6.04168
7.78045
9.13881
10.1948
10.9994
11.6208
12.0907
12.411
12.5336
-19.1057
-18.4007
-16.7563
-14.8485
-12.6943
-10.3087
-7.74191
-5.00745
-2.16529
0.765078
3.49606
5.68838
7.36339
8.70634
9.77925
10.5909
11.207
11.6689
11.9911
12.1357
-17.7698
-17.3356
-15.9484
-14.1949
-12.1723
-9.92395
-7.49487
-4.9071
-2.21279
0.566197
3.15598
5.25603
6.89001
8.20463
9.24878
10.0425
10.653
11.1175
11.4505
11.6203
-16.7388
-16.5498
-15.2167
-13.5255
-11.6019
-9.47688
-7.19397
-4.77581
-2.25909
0.342319
2.78246
4.77161
6.31236
7.53437
8.50297
9.25718
9.85165
10.3148
10.659
10.8609
-15.7998
-15.6354
-14.4171
-12.7981
-10.9353
-8.92826
-6.81292
-4.59132
-2.27886
0.12121
2.37821
4.19484
5.57611
6.66241
7.52113
8.19682
8.72526
9.13469
9.44756
9.6509
-14.6075
-14.523
-13.3895
-11.8185
-10.0512
-8.22057
-6.31895
-4.3208
-2.23205
-0.060598
1.98659
3.62454
4.85455
5.81361
6.55808
7.12336
7.54365
7.85127
8.06673
8.20292
-12.827
-12.9209
-11.8348
-10.4175
-8.88446
-7.30976
-5.67631
-3.94414
-2.11294
-0.18994
1.63384
3.09591
4.18644
5.02365
5.6669
6.12534
6.44681
6.66804
6.80264
6.87344
-9.94844
-9.90268
-9.2566
-8.42671
-7.35938
-6.16374
-4.86531
-3.45253
-1.91669
-0.272877
1.29463
2.55223
3.47765
4.16652
4.68414
5.03218
5.2617
5.40879
5.49263
5.52991
-6.43898
-6.44353
-6.33722
-6.08751
-5.57073
-4.81616
-3.91816
-2.84396
-1.62499
-0.290596
1.0019
2.05009
2.80632
3.34601
3.74516
4.00554
4.17178
4.27098
4.32494
4.35731
-3.87712
-3.87012
-3.86087
-3.85975
-3.70987
-3.38409
-2.88279
-2.14819
-1.26129
-0.243971
0.779754
1.62492
2.22584
2.63615
2.93677
3.13135
3.25747
3.33671
3.38334
3.4152
-2.10868
-2.11525
-2.12816
-2.16612
-2.15118
-2.07237
-1.87453
-1.44535
-0.869336
-0.137148
0.641744
1.2958
1.76489
2.07461
2.30227
2.45158
2.55535
2.63037
2.67558
2.70199
-1.04816
-1.0663
-1.09132
-1.12086
-1.11672
-1.10991
-1.05
-0.827155
-0.487233
0.0142461
0.580616
1.06626
1.43014
1.66913
1.85204
1.97532
2.06407
2.13499
2.17161
2.19153
-0.456782
-0.481622
-0.537613
-0.582471
-0.572252
-0.555441
-0.502847
-0.361759
-0.168403
0.167587
0.570101
0.925503
1.21065
1.40072
1.55403
1.66112
1.73249
1.79028
1.81637
1.82753
-0.161808
-0.18471
-0.249095
-0.308739
-0.307405
-0.279695
-0.209755
-0.0851326
0.0344211
0.282911
0.583703
0.852742
1.08098
1.23272
1.35863
1.45193
1.49621
1.53543
1.54994
1.55551
-0.0309917
-0.0465378
-0.0951125
-0.147243
-0.155578
-0.13832
-0.0796229
0.0243139
0.12739
0.351705
0.599521
0.812568
0.998242
1.11618
1.20972
1.28876
1.30301
1.32091
1.32509
1.32791
0.0438947
0.0345739
0.00484572
-0.0296018
-0.0440826
-0.0576124
-0.0337223
0.0503522
0.164339
0.37907
0.589482
0.76187
0.913458
1.00552
1.05798
1.11252
1.11772
1.12522
1.12232
1.12328
0.1201
0.114058
0.0934969
0.0691686
0.0520534
0.0171178
0.0136197
0.0764991
0.183912
0.364327
0.536412
0.678946
0.799295
0.873325
0.88948
0.922883
0.928309
0.936897
0.934354
0.934793
0.183715
0.180175
0.164798
0.148966
0.141785
0.119276
0.115031
0.146457
0.201983
0.324589
0.462524
0.57613
0.664715
0.723806
0.725057
0.746453
0.75204
0.761526
0.760963
0.762168
0.226231
0.224768
0.217054
0.212953
0.219368
0.219514
0.231598
0.239942
0.237477
0.305322
0.403217
0.482237
0.535057
0.578349
0.589191
0.608082
0.610666
0.616989
0.615631
0.616576
0.267582
0.26563
0.26063
0.261292
0.266889
0.271123
0.287502
0.297986
0.288236
0.322823
0.369404
0.414197
0.440693
0.473056
0.489709
0.506065
0.505503
0.50803
0.504207
0.503816
0.302489
0.298714
0.289295
0.283127
0.276605
0.270004
0.267322
0.295049
0.303927
0.336649
0.349438
0.374616
0.390827
0.413698
0.423309
0.430685
0.426046
0.424738
0.418082
0.415967
0.308904
0.303888
0.291224
0.277566
0.261746
0.250637
0.236972
0.257532
0.267553
0.313803
0.323479
0.350092
0.360253
0.374253
0.370631
0.371757
0.361715
0.357095
0.34817
0.344605
0.286499
0.281939
0.271368
0.261206
0.246505
0.239858
0.22638
0.228096
0.230721
0.26627
0.283295
0.317305
0.318596
0.326834
0.315571
0.314675
0.302982
0.298107
0.289157
0.285248
0.255077
0.251412
0.245247
0.242113
0.231916
0.232428
0.219151
0.218499
0.208533
0.228014
0.239017
0.266377
0.263365
0.269276
0.260299
0.258908
0.248619
0.245376
0.238178
0.23442
0.228455
0.225688
0.22196
0.222042
0.213461
0.217472
0.205475
0.211311
0.195456
0.205098
0.20076
0.217921
0.209377
0.216696
0.20886
0.20966
0.201184
0.199383
0.193936
0.190455
0.203605
0.200392
0.19729
0.197365
0.187384
0.19152
0.178622
0.188786
0.175281
0.185384
0.170882
0.182033
0.169991
0.177295
0.167746
0.169962
0.161593
0.160023
0.155667
0.15219
0.171806
0.16829
0.165957
0.165195
0.154572
0.158538
0.143561
0.154946
0.14165
0.157404
0.14295
0.151375
0.139932
0.145916
0.134895
0.13689
0.128379
0.1265
0.12288
0.119595
0.133528
0.129484
0.12872
0.128286
0.119282
0.124623
0.109257
0.120428
0.103809
0.123438
0.10943
0.120269
0.108946
0.115066
0.104051
0.106143
0.0986147
0.0969797
0.0944689
0.0912677
0.0946557
0.0903642
0.0912623
0.0914601
0.0847662
0.0914212
0.0772207
0.0895455
0.0705483
0.0899871
0.0735355
0.0870073
0.0749158
0.0823656
0.0722012
0.075386
0.0694518
0.0683629
0.0674356
0.0646234
0.0577032
0.0535249
0.0564567
0.0555636
0.0489613
0.058636
0.044352
0.060154
0.0401813
0.0583239
0.0400858
0.053242
0.0410596
0.0497648
0.0409763
0.0451978
0.0407262
0.0403809
0.0404811
0.0380798
0.0228702
0.0201571
0.0249259
0.0211048
0.0145307
0.0235241
0.0107366
0.0256927
0.00957772
0.0232684
0.00959354
0.0194674
0.0106507
0.0177766
0.0114298
0.0153894
0.0123841
0.0124013
0.0136456
0.0118501
12.0433
16.3496
17.4522
18.8507
19.996
21.0196
21.9201
22.6917
23.2447
23.3617
16.7367
18.8405
19.543
20.4351
21.214
21.8864
22.4499
22.8882
23.1274
23.1292
19.2824
20.3248
20.8596
21.4134
21.9059
22.3287
22.67
22.9171
23.0491
23.0706
20.6884
21.3332
21.6805
22.0319
22.3323
22.5856
22.7852
22.9234
23.002
23.0321
21.6154
21.9527
22.1703
22.3864
22.575
22.7334
22.8549
22.9395
22.9871
23.0159
22.1292
22.3582
22.4872
22.6295
22.7442
22.8378
22.911
22.9633
22.9963
23.0202
22.4707
22.6225
22.6879
22.7779
22.8493
22.9087
22.9559
22.992
23.0146
23.0389
22.698
22.7894
22.8319
22.885
22.9308
22.97
23.0032
23.0316
23.0531
23.073
22.8576
22.9132
22.9409
22.972
23.0053
23.0352
23.0612
23.0863
23.1036
23.1244
22.9792
23.0135
23.0396
23.0632
23.0873
23.1109
23.1305
23.1486
23.1614
23.1783
23.093
23.1172
23.137
23.1539
23.1698
23.1846
23.1982
23.2114
23.22
23.2371
23.1961
23.2101
23.2255
23.2383
23.2502
23.2613
23.2714
23.2809
23.2874
23.3
23.2901
23.2997
23.314
23.3249
23.3339
23.3424
23.3506
23.3586
23.3602
23.3686
23.3894
23.3954
23.4054
23.4121
23.4162
23.4207
23.4263
23.4327
23.4358
23.4451
23.5049
23.4925
23.4853
23.4796
23.4774
23.479
23.4852
23.4972
23.5117
23.5399
23.6273
23.5714
23.5401
23.5218
23.5134
23.5135
23.5228
23.543
23.5745
23.6447
)
;

boundaryField
{
    wall-4
    {
        type            zeroGradient;
    }
    pressure-outlet-7
    {
        type            fixedValue;
        value           uniform 0;
    }
    velocity-inlet-6
    {
        type            zeroGradient;
    }
    velocity-inlet-5
    {
        type            zeroGradient;
    }
    frontAndBackPlanes
    {
        type            empty;
    }
}


// ************************************************************************* //
