/*--------------------------------*- C++ -*----------------------------------*\
| =========                 |                                                 |
| \\      /  F ield         | OpenFOAM: The Open Source CFD Toolbox           |
|  \\    /   O peration     | Version:  2412                                  |
|   \\  /    A nd           | Website:  www.openfoam.com                      |
|    \\/     M anipulation  |                                                 |
\*---------------------------------------------------------------------------*/
FoamFile
{
    version     2.0;
    format      ascii;
    arch        "LSB;label=32;scalar=64";
    class       surfaceScalarField;
    location    "5.25";
    object      phi;
}
// * * * * * * * * * * * * * * * * * * * * * * * * * * * * * * * * * * * * * //

dimensions      [0 3 -1 0 0 0 0];

oriented        oriented;

internalField   nonuniform List<scalar> 
4262
(
0.001426
0.219087
-0.000276548
0.830356
-0.00166194
1.76853
-0.00282834
3.16633
-0.00454472
5.18632
-0.00667314
8.01649
-0.00753775
11.848
-0.00845425
16.8207
-0.00937671
22.8827
-0.00898905
29.528
-0.00819131
29.5276
-0.0070641
22.8807
-0.00610273
16.8188
-0.00491013
11.8459
-0.00419376
8.01365
-0.00359452
5.184
-0.00283173
3.1644
-0.00327823
1.76759
-0.00352228
0.828897
0.21699
-0.00275615
0.221843
-0.0032715
0.830871
-0.00637821
1.77164
-0.0104637
3.17042
-0.0165574
5.19241
-0.0208318
8.02077
-0.0248971
11.8521
-0.0290829
16.8248
-0.031449
22.8851
-0.0287585
29.5253
-0.0246053
29.5234
-0.0192271
22.8753
-0.0160922
16.8156
-0.0122944
11.8422
-0.0094698
8.01082
-0.00764109
5.18218
-0.00571045
3.16247
-0.00433927
1.76622
-0.000797039
0.825355
0.216193
-0.00761541
0.229458
-0.00949647
0.832752
-0.0148149
1.77695
-0.0226336
3.17824
-0.0298342
5.19961
-0.0346807
8.02561
-0.0416928
11.8591
-0.0452777
16.8284
-0.0489715
22.8888
-0.0439562
29.5203
-0.0365876
29.516
-0.0302655
22.869
-0.0233415
16.8087
-0.018172
11.837
-0.0127382
8.00539
-0.00886119
5.1783
-0.0058125
3.15942
-0.00138375
1.76179
0.00388799
0.820083
0.220081
-0.0137884
0.243247
-0.0196558
0.83862
-0.0298309
1.78713
-0.0400874
3.18849
-0.0466784
5.20621
-0.0533296
8.03227
-0.0601819
11.8659
-0.062528
16.8308
-0.0668898
22.8932
-0.0609087
29.5143
-0.0520965
29.5072
-0.0423635
22.8593
-0.0288779
16.7952
-0.0188173
11.8269
-0.00994198
7.99651
-0.00450157
5.17286
-0.00126913
3.15619
0.0017008
1.75882
0.00680862
0.814975
0.22689
-0.0197109
0.262958
-0.0308909
0.8498
-0.0476769
1.80392
-0.0617982
3.20262
-0.0727284
5.21714
-0.0769143
8.03645
-0.0811545
11.8702
-0.08294
16.8326
-0.085854
22.8961
-0.0748726
29.5033
-0.0610924
29.4934
-0.0467878
22.845
-0.0296197
16.7781
-0.0158756
11.8132
-0.00356521
7.9842
0.00427777
5.16502
0.00846128
3.15201
0.00895073
1.75833
0.0104554
0.813471
0.237345
-0.0213657
0.284323
-0.0440345
0.872468
-0.0614673
1.82135
-0.0765358
3.21768
-0.0950954
5.23569
-0.104531
8.04589
-0.105689
11.8713
-0.106487
16.8334
-0.105379
22.895
-0.0914052
29.4893
-0.0737908
29.4758
-0.052388
22.8236
-0.0310761
16.7568
-0.0106126
11.7927
0.00337862
7.97021
0.010795
5.1576
0.0181249
3.14468
0.0206601
1.7558
0.0127719
0.821359
0.250117
-0.0236287
0.307952
-0.0603386
0.909178
-0.0706988
1.83171
-0.0837677
3.23075
-0.104943
5.25687
-0.124206
8.06515
-0.129764
11.8769
-0.131385
16.835
-0.127171
22.8908
-0.107143
29.4693
-0.0826815
29.4514
-0.0525535
22.7934
-0.0272919
16.7315
-0.00531675
11.7707
0.00715502
7.95774
0.0153124
5.14944
0.0250091
3.13498
0.0331654
1.74764
0.0128008
0.841724
0.262918
-0.0293201
0.337272
-0.0752214
0.955079
-0.0813789
1.83787
-0.100827
3.2502
-0.118422
5.27447
-0.13823
8.08496
-0.153982
11.8926
-0.162241
16.8432
-0.155494
22.884
-0.124474
29.4383
-0.0896626
29.4166
-0.0545321
22.7583
-0.0291779
16.7061
-0.00700815
11.7486
0.00730316
7.94343
0.0214616
5.13528
0.0295833
3.12686
0.0462257
1.731
0.0168898
0.871059
0.279808
-0.0338318
0.371104
-0.0827997
1.00405
-0.0899989
1.84506
-0.112823
3.27302
-0.126435
5.28808
-0.149301
8.10782
-0.167842
11.9112
-0.182063
16.8575
-0.181882
22.8838
-0.143562
29.4
-0.0986583
29.3717
-0.0601954
22.7198
-0.0382596
16.6842
-0.0157321
11.726
0.000837997
7.92686
0.0186376
5.11748
0.0282609
3.11724
0.050415
1.70884
0.019858
0.901617
0.299666
-0.0352378
0.406342
-0.0869807
1.05579
-0.0978496
1.85593
-0.123815
3.29899
-0.142439
5.3067
-0.164408
8.12979
-0.185767
11.9325
-0.200952
16.8726
-0.207941
22.8908
-0.166173
29.3582
-0.116461
29.3219
-0.0809847
22.6844
-0.0510908
16.6543
-0.0232147
11.6982
-0.0019296
7.90557
0.0177361
5.09782
0.0293926
3.10558
0.0465557
1.69168
0.0181174
0.930055
0.317783
-0.0359669
0.442309
-0.0893201
1.10914
-0.10964
1.87625
-0.13793
3.32728
-0.165872
5.33464
-0.191397
8.15532
-0.209643
11.9508
-0.219594
16.8826
-0.228
22.8992
-0.189779
29.32
-0.141757
29.2739
-0.0978654
22.6405
-0.0572353
16.6137
-0.0237631
11.6647
0.00509352
7.87672
0.022334
5.08058
0.0366199
3.09129
0.0466174
1.68168
0.0175405
0.959132
0.335324
-0.0398591
0.482168
-0.0999792
1.16926
-0.136913
1.91319
-0.161839
3.35221
-0.205395
5.3782
-0.234025
8.18395
-0.252803
11.9696
-0.259335
16.8891
-0.257593
22.8975
-0.218449
29.2808
-0.166783
29.2223
-0.110578
22.5843
-0.0530797
16.5562
-0.00893039
11.6205
0.0244733
7.84331
0.0344464
5.0706
0.0566871
3.06905
0.0556749
1.68269
0.0211954
0.993611
0.356519
-0.0519646
0.534132
-0.127475
1.24477
-0.185861
1.97157
-0.214566
3.38091
-0.268302
5.43194
-0.301984
8.21763
-0.320129
11.9877
-0.315025
16.884
-0.301661
22.8841
-0.250995
29.2302
-0.188177
29.1594
-0.106115
22.5022
-0.029367
16.4794
0.0278359
11.5633
0.0638381
7.80731
0.0709898
5.06345
0.0948963
3.04515
0.0737461
1.70384
0.0286621
1.0387
0.385181
-0.0639784
0.598111
-0.152976
1.33377
-0.234932
2.05353
-0.279825
3.4258
-0.338918
5.49103
-0.373453
8.25216
-0.397188
12.0114
-0.394732
16.8816
-0.368763
22.8582
-0.287803
29.1492
-0.192579
29.0642
-0.0877597
22.3974
-0.000606521
16.3923
0.0610235
11.5017
0.101569
7.76677
0.11883
5.04619
0.139254
3.02472
0.0976043
1.74549
0.0385214
1.09778
0.423702
-0.0781039
0.676215
-0.185688
1.44136
-0.282559
2.1504
-0.335903
3.47915
-0.391349
5.54648
-0.438417
8.29923
-0.47375
12.0468
-0.479115
16.8869
-0.447238
22.8263
-0.333366
29.0353
-0.197695
28.9285
-0.0773895
22.2771
0.0171246
16.2978
0.0871826
11.4317
0.129902
7.72405
0.153839
5.02225
0.160243
3.01832
0.107677
1.79806
0.0419908
1.16346
0.465693
-0.0785079
0.754723
-0.190785
1.55363
-0.306553
2.26617
-0.387871
3.56047
-0.457317
5.61592
-0.51606
8.35797
-0.551347
12.0821
-0.564152
16.8997
-0.529601
22.7917
-0.384936
28.8907
-0.213867
28.7575
-0.0779465
22.1412
0.0242552
16.1956
0.0998353
11.3561
0.141256
7.68263
0.178876
4.98463
0.181704
3.01549
0.120794
1.85897
0.0458462
1.23841
0.51154
-0.0984154
0.853138
-0.230862
1.68608
-0.357286
2.39259
-0.442668
3.64585
-0.509177
5.68243
-0.585813
8.43461
-0.632149
12.1284
-0.653322
16.9209
-0.611763
22.7502
-0.450551
28.7294
-0.264838
28.5718
-0.105442
21.9818
0.0196165
16.0705
0.114144
11.2615
0.163314
7.63346
0.204049
4.9439
0.19045
3.02909
0.120827
1.92859
0.0438204
1.31542
0.55536
-0.0945315
0.947669
-0.234684
1.82623
-0.385845
2.54375
-0.505146
3.76515
-0.592149
5.76943
-0.681356
8.52382
-0.72267
12.1697
-0.742754
16.941
-0.695651
22.7031
-0.52661
28.5604
-0.332897
28.378
-0.149679
21.7985
0.0108356
15.91
0.126128
11.1463
0.183885
7.5757
0.23528
4.89251
0.216781
3.04759
0.135358
2.01002
0.0479185
1.40286
0.603278
-0.121624
1.06929
-0.281778
1.98639
-0.445945
2.70792
-0.581697
3.9009
-0.683631
5.87137
-0.785046
8.62523
-0.83747
12.2221
-0.859347
16.9629
-0.804322
22.648
-0.62663
28.3827
-0.41306
28.1645
-0.195801
21.5813
0.0021954
15.712
0.14234
11.0061
0.218006
7.50003
0.259867
4.85064
0.22118
3.08627
0.131516
2.09968
0.0424471
1.49193
0.645726
-0.120946
1.19024
-0.295984
2.16142
-0.488256
2.90019
-0.65921
4.07185
-0.789803
6.00196
-0.912032
8.74746
-0.992641
12.3028
-1.03498
17.0052
-0.961725
22.5748
-0.738707
28.1597
-0.460415
27.8862
-0.206322
21.3272
0.0120819
15.4936
0.156114
10.8621
0.252521
7.40363
0.291986
4.81118
0.240621
3.13764
0.138604
2.2017
0.03879
1.59174
0.684516
-0.14565
1.33589
-0.338973
2.35475
-0.549228
3.11045
-0.74388
4.26651
-0.909944
6.16803
-1.05689
8.8944
-1.17392
12.4198
-1.2441
17.0754
-1.15036
22.481
-0.872405
27.8817
-0.530199
27.544
-0.236987
21.034
0.00119818
15.2554
0.162955
10.7003
0.279214
7.28737
0.30831
4.78208
0.245346
3.2006
0.130716
2.31633
0.0231546
1.6993
0.70767
-0.153477
1.48937
-0.369788
2.57106
-0.609461
3.35012
-0.845236
4.50228
-1.05019
6.37299
-1.22697
9.07118
-1.37958
12.5724
-1.46321
17.159
-1.34858
22.3664
-1.02956
27.5627
-0.640739
27.1552
-0.302873
20.6961
-0.033139
14.9857
0.154495
10.5127
0.282704
7.15916
0.303133
4.76166
0.223621
3.28012
0.105265
2.43468
0.00220754
1.80236
0.709878
-0.179888
1.66925
-0.414704
2.80587
-0.6831
3.61851
-0.954792
4.77397
-1.21088
6.62907
-1.43421
9.29451
-1.61586
12.754
-1.711
17.2542
-1.56661
22.222
-1.21784
27.214
-0.790539
26.7279
-0.410081
20.3156
-0.103963
14.6796
0.135058
10.2737
0.287285
7.00693
0.297987
4.75095
0.210254
3.36785
0.0711595
2.57378
-0.0210055
1.89453
0.688872
-0.222563
1.89182
-0.495471
3.07878
-0.805431
3.92847
-1.14769
5.11623
-1.47138
6.95276
-1.73346
9.55659
-1.94783
12.9684
-2.03185
17.3382
-1.84161
22.0318
-1.45538
26.8277
-0.93755
26.21
-0.48329
19.8614
-0.122501
14.3188
0.140131
10.011
0.280125
6.86694
0.269333
4.76175
0.174278
3.4629
0.0647068
2.68335
-0.0397504
1.99898
0.649122
-0.286101
2.17792
-0.599395
3.39208
-1.01765
4.34673
-1.43529
5.53386
-1.81113
7.32861
-2.11845
9.86391
-2.37003
13.22
-2.41982
17.388
-2.17054
21.7825
-1.71367
26.3709
-1.08731
25.5837
-0.565234
19.3393
-0.172165
13.9257
0.126026
9.71284
0.2703
6.72266
0.254849
4.7772
0.146225
3.57153
0.010159
2.81941
-0.0841583
2.0933
0.564963
-0.434899
2.61282
-0.90369
3.86087
-1.37489
4.81793
-1.82362
5.9826
-2.24697
7.75195
-2.59933
10.2163
-2.85389
13.4746
-2.83678
17.3708
-2.53008
21.4758
-1.99572
25.8365
-1.27666
24.8646
-0.680399
18.7431
-0.210062
13.4554
0.0896993
9.41308
0.187391
6.62497
0.127014
4.83757
-0.00592681
3.70447
-0.13173
2.94522
-0.138189
2.09976
0.426774
-0.360146
2.97296
-0.788882
4.2896
-1.19802
5.22707
-1.6386
6.42317
-2.09572
8.20908
-2.50316
10.6237
-2.82025
13.7916
-2.87334
17.4239
-2.66403
21.2665
-2.13305
25.3055
-1.2916
24.0232
-0.511724
17.9632
0.117619
12.826
0.446129
9.08457
0.486241
6.58486
0.350959
4.97286
0.139283
3.91614
-0.0400679
3.12457
-0.0782121
2.1379
0.348562
-0.217733
3.1907
-0.493565
4.56544
-0.859596
5.5931
-1.26236
6.82594
-1.63614
8.58286
-1.92774
10.9153
-2.11353
13.9774
-2.07703
17.3874
-1.82949
21.0189
-1.2687
24.7447
-0.460979
23.2154
0.252893
17.2493
0.760394
12.3185
0.926335
8.91863
0.842499
6.6687
0.631802
5.18355
0.390057
4.15789
0.179176
3.33545
0.0832916
2.23379
0.431854
-0.181105
3.3718
-0.400619
4.78495
-0.685418
5.8779
-0.995642
7.13616
-1.28561
8.87283
-1.50866
11.1384
-1.61266
14.0814
-1.53029
17.3051
-1.26318
20.7518
-0.703837
24.1854
0.0419667
22.4696
0.661089
16.6302
0.966822
12.0128
0.96182
8.92363
0.773109
6.85741
0.527787
5.42888
0.324541
4.36114
0.205224
3.45477
0.112328
2.32668
0.544182
-0.148915
3.52072
-0.344704
4.98074
-0.577544
6.11074
-0.819277
7.3779
-1.0437
9.09725
-1.21989
11.3145
-1.27058
14.1321
-1.16819
17.2027
-0.898158
20.4818
-0.36719
23.6544
0.296899
21.8055
0.779675
16.1474
0.955299
11.8372
0.915709
8.96322
0.778598
6.99452
0.60629
5.60118
0.417275
4.55015
0.251244
3.6208
0.13194
2.44599
0.676123
-0.107018
3.62774
-0.305948
5.17967
-0.492993
6.29779
-0.691857
7.57676
-0.873051
9.27845
-1.02372
11.4652
-1.03894
14.1474
-0.935544
17.0993
-0.675435
20.2217
-0.194668
23.1737
0.368834
21.242
0.729345
15.7869
0.804933
11.7616
0.697445
9.07071
0.510123
7.18184
0.349444
5.76186
0.23558
4.66401
0.166567
3.68981
0.103707
2.50885
0.77983
-0.0780761
3.70581
-0.277005
5.3786
-0.467186
6.48797
-0.625006
7.73458
-0.776554
9.43
-0.891355
11.58
-0.886221
14.1422
-0.783387
16.9964
-0.544751
19.9831
-0.123178
22.7521
0.3413
20.7776
0.597069
15.5311
0.615652
11.743
0.539549
9.14681
0.470505
7.25088
0.391939
5.84043
0.319604
4.73635
0.219554
3.78986
0.114883
2.61352
0.894713
-0.0543075
3.76012
-0.230594
5.55488
-0.404859
6.66223
-0.566986
7.89671
-0.709347
9.57236
-0.79297
11.6636
-0.786646
14.1359
-0.687667
16.8975
-0.475042
19.7704
-0.115996
22.393
0.247388
20.4142
0.425458
15.3531
0.437584
11.7309
0.376459
9.20793
0.269014
7.35833
0.163654
5.94579
0.0957506
4.80425
0.0791684
3.80644
0.0534085
2.63928
0.948122
-0.0455504
3.80567
-0.178757
5.68809
-0.340671
6.82415
-0.507153
8.06319
-0.639998
9.7052
-0.714416
11.7381
-0.71423
14.1357
-0.627313
16.8105
-0.441984
19.5851
-0.140878
22.0919
0.143281
20.13
0.28222
15.2141
0.292775
11.7203
0.247508
9.2532
0.216906
7.38893
0.185599
5.9771
0.148326
4.84153
0.0639234
3.89084
0.0111847
2.69202
0.959306
-0.0224779
3.82815
-0.150675
5.81629
-0.282462
6.95593
-0.43685
8.21758
-0.569803
9.83816
-0.649896
11.8181
-0.659058
14.1449
-0.587967
16.7394
-0.429328
19.4265
-0.18058
21.8432
0.0320703
19.9174
0.131026
15.1152
0.138745
11.7126
0.125226
9.26672
0.0900192
7.42414
0.0378532
6.02926
0.00940678
4.86997
0.015299
3.88495
0.000524765
2.70679
0.959831
-0.0158961
3.84404
-0.109497
5.90989
-0.236587
7.08302
-0.383792
8.36478
-0.510576
9.96494
-0.593339
11.9009
-0.612384
14.1639
-0.557922
16.685
-0.423782
19.2923
-0.221584
21.641
-0.0528035
19.7486
0.0195285
15.0428
0.0410288
11.6911
0.0346239
9.27312
0.0132592
7.4455
0.0198943
6.02263
-0.00101549
4.89088
-0.0143753
3.89831
-0.0160237
2.70844
0.943808
-0.00833663
3.85238
-0.0905126
5.99206
-0.198165
7.19068
-0.330518
8.49713
-0.453637
10.0881
-0.539799
11.9871
-0.569563
14.1937
-0.530738
16.6462
-0.420696
19.1823
-0.261655
21.4819
-0.136319
19.6232
-0.0837061
14.9902
-0.073727
11.6811
-0.0612641
9.26066
-0.0522267
7.43647
-0.0533813
6.02378
-0.0398591
4.87736
-0.0259008
3.88435
-0.0202344
2.70277
0.923573
0.00206065
3.85032
-0.0858655
6.07999
-0.188286
7.2931
-0.297947
8.60679
-0.404128
10.1942
-0.486294
12.0692
-0.524205
14.2316
-0.50066
16.6226
-0.416144
19.0978
-0.296416
21.3622
-0.212339
19.5392
-0.174896
14.9528
-0.153233
11.6594
-0.13751
9.24494
-0.121891
7.42085
-0.0990179
6.00091
-0.0799005
4.85824
-0.067621
3.87207
-0.0375597
2.67271
0.886014
0.00246175
3.84786
-0.0671881
6.14964
-0.162357
7.38827
-0.263331
8.70777
-0.357749
10.2887
-0.435218
12.1467
-0.478366
14.2747
-0.46872
16.613
-0.410165
19.0392
-0.326755
21.2788
-0.278953
19.4914
-0.262084
14.9359
-0.249227
11.6466
-0.215502
9.21121
-0.166033
7.37138
-0.130658
5.96553
-0.105379
4.83296
-0.0717684
3.83846
-0.0437213
2.64466
0.842292
-0.00676374
3.85462
-0.0804768
6.22335
-0.155193
7.46298
-0.235434
8.78801
-0.316774
10.37
-0.388346
12.2183
-0.432926
14.3193
-0.435692
16.6157
-0.401263
19.0048
-0.349485
21.227
-0.330002
19.4719
-0.328047
14.934
-0.311252
11.6298
-0.286333
9.18629
-0.255019
7.34006
-0.210842
5.92136
-0.156616
4.77874
-0.115663
3.79751
-0.0621177
2.59112
0.780175
-0.0017795
3.8564
-0.066254
6.28783
-0.134518
7.53125
-0.20993
8.86342
-0.281957
10.442
-0.347307
12.2836
-0.391644
14.3637
-0.404378
16.6285
-0.389974
18.9904
-0.364984
21.202
-0.367067
19.474
-0.383515
14.9504
-0.379676
11.626
-0.351603
9.15822
-0.295048
7.28351
-0.238646
5.86495
-0.196088
4.73618
-0.137708
3.73913
-0.0736187
2.52703
0.706556
-0.00543955
3.86184
-0.0658378
6.34823
-0.122334
7.58774
-0.190236
8.93132
-0.253651
10.5054
-0.312643
12.3426
-0.354525
14.4055
-0.374541
16.6485
-0.37567
18.9915
-0.372191
21.1986
-0.391846
19.4936
-0.419801
14.9784
-0.431048
11.6372
-0.415931
9.1431
-0.38645
7.25403
-0.337789
5.81629
-0.262583
4.66097
-0.187995
3.66454
-0.0963412
2.43537
0.610215
-0.000703224
3.86254
-0.0545706
6.40209
-0.104
7.63717
-0.169359
8.99668
-0.228557
10.5646
-0.282841
12.3969
-0.322322
14.445
-0.347185
16.6733
-0.359673
19.004
-0.373367
21.2123
-0.408973
19.5292
-0.447907
15.0173
-0.481098
11.6704
-0.475584
9.13759
-0.431126
7.20957
-0.36965
5.75482
-0.308075
4.5994
-0.214005
3.57047
-0.116127
2.3375
0.494088
-0.00208261
3.86463
-0.0459261
6.44594
-0.0903386
7.68158
-0.152762
9.0591
-0.206921
10.6188
-0.256281
12.4463
-0.293411
14.4822
-0.32137
16.7013
-0.34225
19.0249
-0.369341
21.2393
-0.418595
19.5785
-0.469293
15.068
-0.506789
11.7079
-0.529802
9.1606
-0.520903
7.20067
-0.479058
5.71297
-0.39832
4.51866
-0.289815
3.46197
-0.145678
2.19336
0.348409
-2.9932e-05
3.86466
-0.038991
6.4849
-0.079504
7.7221
-0.13516
9.11476
-0.186512
10.6701
-0.231788
12.4915
-0.267603
14.518
-0.297693
16.7314
-0.324779
19.052
-0.362241
21.2768
-0.423081
19.6393
-0.48576
15.1307
-0.534895
11.757
-0.563278
9.18899
-0.565029
7.20242
-0.51975
5.66769
-0.453686
4.4526
-0.323693
3.33197
-0.147511
2.01718
0.200898
-0.00369613
3.86835
-0.0321964
6.5134
-0.0698651
7.75977
-0.120486
9.16538
-0.166583
10.7162
-0.21015
12.5351
-0.2454
14.5532
-0.277555
16.7636
-0.309774
19.0842
-0.35533
21.3224
-0.425226
19.7092
-0.498904
15.2043
-0.560737
11.8189
-0.602658
9.23091
-0.630975
7.23074
-0.625373
5.66209
-0.555161
4.38238
-0.408332
3.18515
-0.0744436
1.68329
0.126455
-0.00197379
3.87033
-0.0277241
6.53915
-0.0635312
7.79557
-0.106941
9.20879
-0.154596
10.7639
-0.198546
12.5791
-0.237157
14.5918
-0.275108
16.8015
-0.316065
19.1251
-0.374385
21.3807
-0.460905
19.7957
-0.555544
15.299
-0.641887
11.9052
-0.707722
9.29674
-0.73998
7.263
-0.738234
5.66035
-0.676478
4.32063
-0.469215
2.97788
-0.263049
1.47712
0.635443
-0.772037
-0.00280633
3.87313
-0.0247235
6.56107
-0.05804
7.82889
-0.0992548
9.25001
-0.144361
10.809
-0.183258
12.618
-0.223212
14.6318
-0.264438
16.8427
-0.311133
19.1718
-0.378365
21.4479
-0.477148
19.8945
-0.588824
15.4107
-0.697886
12.0143
-0.793091
9.39195
-0.872113
7.34202
-0.946859
5.73509
-1.00199
4.37576
-0.859165
2.83505
-0.903394
1.52135
1.16843
-1.43638
-0.00657984
3.87971
-0.0178396
6.57233
-0.0524209
7.86347
-0.0905997
9.28818
-0.130679
10.8491
-0.168988
12.6563
-0.210199
14.673
-0.25444
16.887
-0.306065
19.2235
-0.38147
21.5233
-0.492157
20.0052
-0.621754
15.5403
-0.757708
12.1502
-0.891798
9.52604
-1.01988
7.47011
-1.11142
5.82663
-1.09081
4.35515
-0.978146
2.72239
-1.29979
1.84299
1.58478
-1.71614
-0.0111645
3.89088
-0.0235612
6.58472
-0.0523994
7.89231
-0.0789712
9.31476
-0.115182
10.8853
-0.155677
12.6968
-0.196824
14.7141
-0.24343
16.9336
-0.29901
19.279
-0.381903
21.6062
-0.503542
20.1268
-0.649154
15.6859
-0.809985
12.311
-0.981388
9.69744
-1.16928
7.658
-1.32601
5.98336
-1.28716
4.3163
-1.36807
2.80331
-1.68912
2.16404
1.84977
-1.95411
-0.000403213
3.89128
-0.0165628
6.60088
-0.0435802
7.91933
-0.069547
9.34072
-0.106784
10.9225
-0.143586
12.7336
-0.184722
14.7553
-0.232594
16.9815
-0.291207
19.3377
-0.380941
21.6959
-0.512367
20.2583
-0.673019
15.8465
-0.862549
12.5006
-1.07204
9.90694
-1.26289
7.84885
-1.35704
6.07751
-1.32684
4.28609
-1.55018
3.02665
-1.87321
2.48706
2.06767
-2.09111
0.00903206
3.88225
-0.0119889
6.6219
-0.04694
7.95428
-0.0717479
9.36553
-0.1051
10.9559
-0.137575
12.766
-0.179639
14.7973
-0.227576
17.0294
-0.288827
19.3989
-0.384907
21.792
-0.524844
20.3982
-0.696842
16.0185
-0.902602
12.7063
-1.12112
10.1255
-1.31597
8.0437
-1.46874
6.23028
-1.61895
4.4363
-1.90096
3.30866
-2.18603
2.77213
2.21558
-2.33394
-0.00212003
3.88437
-0.0177683
6.63755
-0.0411215
7.97763
-0.0688212
9.39323
-0.099816
10.9869
-0.136947
12.8032
-0.179476
14.8399
-0.228094
17.078
-0.291991
19.4628
-0.394247
21.8943
-0.541584
20.5455
-0.721189
16.1981
-0.936415
12.9216
-1.17919
10.3682
-1.39799
8.2625
-1.49585
6.32814
-1.6377
4.57815
-1.93783
3.60879
-2.18641
3.02072
2.41286
-2.3837
9.32682e-05
3.88427
-0.0170873
6.65473
-0.0409339
8.00148
-0.0689581
9.42125
-0.0979004
11.0158
-0.137652
12.8429
-0.178257
14.8805
-0.227953
17.1277
-0.294066
19.5289
-0.401906
22.0021
-0.556065
20.6997
-0.738791
16.3808
-0.947867
13.1306
-1.18645
10.6068
-1.41273
8.48878
-1.54993
6.46535
-1.83276
4.86098
-2.31732
4.09335
-2.69431
3.39771
2.71023
-2.99167
0.017236
3.86704
-0.00377129
6.67574
-0.035343
8.03305
-0.0719269
9.45784
-0.103559
11.0475
-0.138156
12.8775
-0.178097
14.9204
-0.228145
17.1778
-0.296046
19.5968
-0.408162
22.1142
-0.570757
20.8623
-0.756379
16.5665
-0.951815
13.3261
-1.17847
10.8335
-1.43136
8.74167
-1.66924
6.70323
-1.95234
5.14407
-2.38554
4.52655
-2.87386
3.88603
2.91278
-3.07642
0.00991312
3.85713
-0.0112295
6.69688
-0.037163
8.05898
-0.0694788
9.49015
-0.103463
11.0814
-0.136979
12.911
-0.177577
14.961
-0.227238
17.2274
-0.296117
19.6657
-0.410301
22.2284
-0.575031
21.027
-0.758981
16.7504
-0.955905
13.523
-1.15776
11.0353
-1.36049
8.94441
-1.60941
6.95214
-2.12734
5.66201
-2.51785
4.91706
-3.00917
4.37735
3.65383
-3.75022
0.00951225
3.84761
-0.00308222
6.70948
-0.026479
8.08238
-0.0613507
9.52503
-0.0975496
11.1176
-0.13442
12.9479
-0.17448
15.0011
-0.22341
17.2763
-0.290694
19.733
-0.400369
22.3381
-0.550785
21.1774
-0.719188
16.9188
-0.90198
13.7058
-1.0878
11.2211
-1.234
9.09061
-1.47783
7.19597
-1.84825
6.03242
-2.02309
5.0919
-1.47248
3.82675
2.18135
0.0142013
3.83341
-0.0023334
6.72601
-0.0308387
8.11088
-0.064018
9.55821
-0.097352
11.151
-0.134287
12.9848
-0.175156
15.0419
-0.226973
17.3282
-0.297945
19.804
-0.411739
22.4519
-0.560833
21.3265
-0.727157
17.0851
-0.902688
13.8813
-1.05744
11.3759
-1.14172
9.17489
-1.2306
7.28485
-1.20428
6.00611
-1.06127
4.94889
-0.729896
3.49537
1.45145
0.0243538
3.80906
0.0107032
6.73966
-0.0175348
8.13912
-0.0559625
9.59663
-0.0930355
11.188
-0.129534
13.0213
-0.172485
15.0849
-0.226312
17.382
-0.29914
19.8768
-0.414443
22.5672
-0.562206
21.4743
-0.719447
17.2424
-0.874092
14.036
-0.978468
11.4803
-1.0184
9.21482
-1.03439
7.30084
-1.0641
6.03582
-1.03004
4.91483
-0.82461
3.28994
0.626842
0.0162483
3.79281
0.00137662
6.75453
-0.0220542
8.16255
-0.0507207
9.6253
-0.0858062
11.2231
-0.121674
13.0572
-0.165974
15.1292
-0.220632
17.4366
-0.293677
19.9498
-0.407783
22.6813
-0.549263
21.6158
-0.687553
17.3807
-0.806743
14.1552
-0.859083
11.5326
-0.912062
9.2678
-0.939144
7.32793
-0.983101
6.07977
-0.898415
4.83014
-0.402467
2.79399
0.224375
0.0307243
3.76209
0.0241095
6.76115
-2.17827e-05
8.18668
-0.0386431
9.66392
-0.0750846
11.2596
-0.10992
13.092
-0.154936
15.1742
-0.209274
17.491
-0.280979
20.0215
-0.390261
22.7906
-0.520314
21.7458
-0.631795
17.4922
-0.707975
14.2313
-0.774606
11.5992
-0.803182
9.29638
-0.847638
7.37238
-0.834128
6.06626
-0.614845
4.61086
-0.174347
2.35349
0.0500277
0.0265902
3.73549
0.0152493
6.77249
-0.00501276
8.20695
-0.0342032
9.69311
-0.0633898
11.2888
-0.0952859
13.1239
-0.13896
15.2179
-0.190475
17.5425
-0.258743
20.0898
-0.359765
22.8916
-0.471439
21.8575
-0.555184
17.5759
-0.612536
14.2887
-0.665801
11.6525
-0.673191
9.30377
-0.691044
7.39024
-0.616919
5.99214
-0.444156
4.4381
-0.158088
2.06742
-0.10806
0.0422513
3.69324
0.0429355
6.7718
0.0198423
8.23004
-0.0146216
9.72758
-0.0410413
11.3152
-0.0741257
13.157
-0.116582
15.2603
-0.163561
17.5895
-0.226831
20.1531
-0.31636
22.9811
-0.405812
21.947
-0.468957
17.639
-0.515079
14.3348
-0.536475
11.6739
-0.522823
9.29012
-0.500779
7.36819
-0.42581
5.91717
-0.294855
4.30714
-0.0684726
1.84104
-0.176533
0.038095
3.65515
0.0344942
6.77541
0.0191421
8.24539
-0.00533946
9.75206
-0.0150119
11.3249
-0.0498513
13.1919
-0.0856586
15.2962
-0.126639
17.6305
-0.182549
20.209
-0.25887
23.0575
-0.328937
22.017
-0.374044
17.6842
-0.393461
14.3542
-0.373185
11.6536
-0.339228
9.25616
-0.286765
7.31573
-0.20725
5.83765
-0.0974289
4.19732
0.0153998
1.72821
-0.161133
0.0596273
3.59552
0.0747504
6.76028
0.0619514
8.25819
0.0406901
9.77332
0.0163498
11.3492
-0.0183288
13.2265
-0.0421074
15.3199
-0.0790042
17.6674
-0.126947
20.2569
-0.188443
23.119
-0.23838
22.067
-0.264113
17.7099
-0.255626
14.3457
-0.202693
11.6007
-0.127546
9.18101
-0.0281902
7.21637
0.0471739
5.76229
0.119666
4.12483
0.0855501
1.76233
-0.0755828
0.0612045
3.53432
0.070523
6.75096
0.0675804
8.26113
0.0597228
9.78118
0.048374
11.3605
0.0314452
13.2435
0.0142009
15.3372
-0.0193344
17.7009
-0.0575076
20.2951
-0.103284
23.1647
-0.133032
22.0967
-0.133737
17.7106
-0.0971941
14.3092
-0.0300927
11.5336
0.0647767
9.08614
0.164485
7.11667
0.269886
5.65689
0.309678
4.08504
0.159208
1.9128
0.0836249
0.0853853
3.44893
0.127808
6.70854
0.134108
8.25483
0.120843
9.79444
0.108325
11.3731
0.100388
13.2514
0.0857203
15.3518
0.0632858
17.7233
0.0298242
20.3286
-0.00920148
23.2038
-0.0169767
22.1045
0.00940849
17.6842
0.0697694
14.2488
0.155103
11.4483
0.235165
9.00608
0.322795
7.02904
0.406395
5.57329
0.434717
4.05672
0.229171
2.11834
0.312796
0.0984503
3.35048
0.136216
6.67078
0.151606
8.23944
0.163031
9.78302
0.175585
11.3605
0.179767
13.2472
0.176431
15.3552
0.167961
17.7318
0.149712
20.3468
0.125818
23.2276
0.123673
22.1066
0.157201
17.6507
0.220169
14.1859
0.290282
11.3781
0.346609
8.94975
0.401793
6.97385
0.463441
5.51164
0.461492
4.05866
0.269374
2.31046
0.58217
0.13313
3.21735
0.215523
6.58838
0.249696
8.20527
0.261767
9.77095
0.273025
11.3492
0.282807
13.2374
0.288579
15.3494
0.292681
17.7277
0.285666
20.3538
0.27031
23.243
0.272982
22.104
0.300412
17.6233
0.338538
14.1477
0.370902
11.3458
0.390074
8.93058
0.421064
6.94286
0.451959
5.48075
0.431745
4.07888
0.258719
2.48349
0.84089
0.168899
3.04845
0.258076
6.49921
0.305457
8.15789
0.347396
9.72901
0.384101
11.3125
0.410886
13.2107
0.433587
15.3267
0.447855
17.7134
0.448959
20.3527
0.436747
23.2552
0.429717
22.111
0.425089
17.6279
0.41707
14.1558
0.412506
11.3503
0.409335
8.93375
0.417461
6.93473
0.421952
5.47625
0.378514
4.12232
0.218829
2.64317
1.05972
0.221026
2.82743
0.371858
6.34837
0.447869
8.08188
0.496874
9.68
0.531216
11.2782
0.568584
13.1733
0.604993
15.2903
0.630625
17.6878
0.640075
20.3433
0.625648
23.2696
0.59369
22.143
0.554242
17.6673
0.522691
14.1873
0.503054
11.37
0.472459
8.96435
0.434106
6.97309
0.393224
5.51714
0.317178
4.19836
0.164996
2.79536
1.22471
0.305053
2.52237
0.492721
6.16071
0.593725
7.98087
0.669774
9.60395
0.724966
11.223
0.778186
13.1201
0.828749
15.2397
0.865194
17.6513
0.878085
20.3304
0.854927
23.2928
0.79882
22.1991
0.743042
17.7231
0.692735
14.2376
0.629545
11.4332
0.535853
9.05804
0.437687
7.07125
0.362189
5.59263
0.272185
4.28837
0.132928
2.93461
1.35764
0.402105
2.12027
0.679903
5.88291
0.810424
7.85035
0.896497
9.51788
0.954768
11.1647
1.02492
13.0499
1.09373
15.1709
1.14694
17.5981
1.17101
20.3063
1.1499
23.3139
1.08766
22.2613
1.00834
17.8024
0.909828
14.3361
0.786634
11.5564
0.644733
9.19994
0.51236
7.20363
0.418076
5.68692
0.309658
4.39679
0.150832
3.09344
1.50848
0.620575
1.49969
0.952512
5.55097
1.10455
7.69831
1.20952
9.41291
1.28528
11.089
1.37037
12.9648
1.45414
15.0871
1.52165
17.5306
1.55767
20.2703
1.54363
23.3279
1.46568
22.3393
1.34164
17.9265
1.19285
14.4849
1.02513
11.7241
0.832723
9.39235
0.643717
7.39263
0.498375
5.83226
0.349762
4.5454
0.167681
3.27552
1.67616
0.767781
0.731912
1.25506
5.0637
1.44945
7.50392
1.57209
9.29027
1.66651
10.9946
1.7796
12.8517
1.8928
14.9739
1.98803
17.4354
2.04875
20.2096
2.04396
23.3327
1.94778
22.4354
1.7965
18.0778
1.62292
14.6585
1.43546
11.9115
1.20253
9.62528
0.94356
7.6516
0.717688
6.05813
0.485857
4.77723
0.226314
3.53506
1.90247
0.676548
0.055364
1.52201
4.21824
1.86278
7.16315
2.05411
9.09893
2.20108
10.8476
2.3306
12.7222
2.47147
14.8331
2.60297
17.3039
2.69833
20.1142
2.71589
23.3152
2.62368
22.5276
2.46182
18.2396
2.25682
14.8635
2.02683
12.1415
1.75424
9.89788
1.40023
8.0056
1.03955
6.41881
0.679482
5.1373
0.308868
3.90568
2.21134
0.498426
-0.443063
1.31
3.40666
1.78069
6.69246
2.00824
8.87139
2.1518
10.704
2.24291
12.6311
2.32569
14.7503
2.37351
17.2561
2.35985
20.1279
2.25437
23.4207
2.07078
22.7112
1.8693
18.4411
1.65383
15.079
1.42575
12.3696
1.20373
10.1199
0.970494
8.23884
0.725718
6.66359
0.483558
5.37946
0.226648
4.16259
2.43799
-0.0118188
-0.431244
0.342362
3.05248
0.750668
6.28416
1.05072
8.57133
1.29651
10.4582
1.47855
12.4491
1.63542
14.5934
1.75842
17.1331
1.81414
20.0721
1.76955
23.4652
1.62894
22.8518
1.45733
18.6127
1.2809
15.2554
1.0968
12.5537
0.916896
10.2998
0.716223
8.43952
0.522367
6.85744
0.330962
5.57086
0.140836
4.35271
2.57882
-0.35855
-0.0726941
-0.430288
3.12422
-0.173331
6.0272
0.191935
8.20607
0.529943
10.1202
0.821993
12.157
1.05188
14.3635
1.22794
16.957
1.33155
19.9685
1.34512
23.4517
1.25399
22.943
1.12428
18.7424
0.984314
15.3954
0.832604
12.7054
0.692279
10.4401
0.53982
8.59197
0.382201
7.01506
0.228172
5.72489
0.0825805
4.4983
2.6614
-0.312551
0.239857
-0.503691
3.31536
-0.437917
5.96143
-0.217111
7.98526
0.0579032
9.84521
0.337705
11.8772
0.593804
14.1074
0.798575
16.7523
0.93574
19.8314
0.988445
23.399
0.947389
22.984
0.856215
18.8336
0.749656
15.5019
0.630617
12.8245
0.522269
10.5485
0.406947
8.7073
0.285055
7.13695
0.166121
5.84383
0.0510199
4.6134
2.71242
-0.35916
0.599017
-0.468869
3.42507
-0.423733
5.91629
-0.314194
7.87572
-0.146636
9.67765
0.0705641
11.66
0.289351
13.8886
0.484281
16.5573
0.63511
19.6805
0.714473
23.3196
0.706289
22.9922
0.644388
18.8955
0.566516
15.5798
0.477874
12.9131
0.393463
10.6329
0.305872
8.79489
0.20744
7.23539
0.104959
5.94631
0.00546924
4.71289
2.71789
-0.296035
0.895052
-0.442312
3.57134
-0.390976
5.86495
-0.286478
7.77122
-0.166721
9.5579
-0.029109
11.5224
0.128375
13.7312
0.285222
16.4005
0.424831
19.5409
0.508205
23.2362
0.52028
22.9801
0.480969
18.9348
0.427129
15.6336
0.364072
12.9762
0.29447
10.7025
0.220859
8.8685
0.133831
7.32241
0.0443994
6.03574
-0.0254704
4.78276
2.69242
-0.243367
1.13842
-0.378768
3.70674
-0.353371
5.83956
-0.260658
7.67851
-0.148628
9.44587
-0.0439409
11.4177
0.066346
13.6209
0.185793
16.281
0.288129
19.4386
0.359824
23.1645
0.381384
22.9586
0.357838
18.9584
0.320389
15.6711
0.270827
13.0257
0.207951
10.7654
0.145162
8.93129
0.0688432
7.39873
-0.00539292
6.10998
-0.0537712
4.83114
2.63865
-0.189356
1.32778
-0.305945
3.82333
-0.3141
5.84771
-0.241947
7.60636
-0.141454
9.34537
-0.0496658
11.3259
0.039548
13.5317
0.129717
16.1909
0.203213
19.3651
0.260218
23.1075
0.281563
22.9372
0.264514
18.9754
0.234428
15.7012
0.194207
13.0659
0.134495
10.8251
0.0796765
8.9861
0.0198516
7.45856
-0.0379181
6.16775
-0.0658827
4.85911
2.57277
-0.133556
1.46133
-0.227946
3.91772
-0.248319
5.86809
-0.214058
7.57209