/*--------------------------------*- C++ -*----------------------------------*\
| =========                 |                                                 |
| \\      /  F ield         | OpenFOAM: The Open Source CFD Toolbox           |
|  \\    /   O peration     | Version:  2412                                  |
|   \\  /    A nd           | Website:  www.openfoam.com                      |
|    \\/     M anipulation  |                                                 |
\*---------------------------------------------------------------------------*/
FoamFile
{
    version     2.0;
    format      ascii;
    arch        "LSB;label=32;scalar=64";
    class       volScalarField;
    location    "0.15";
    object      epsilon;
}
// * * * * * * * * * * * * * * * * * * * * * * * * * * * * * * * * * * * * * //

dimensions      [0 2 -3 0 0 0 0];

internalField   nonuniform List<scalar> 
12225
(
448.248
622.892
830.55
1004.82
1150.38
1270.19
1368.58
1449.58
1516.3
1571.29
1616.64
1654
1684.66
1709.62
1729.65
1745.16
1756.51
1766.6
173.744
302.083
403.1
480.175
539.339
585.69
622.127
650.848
673.557
691.52
705.699
716.847
725.553
732.285
737.444
741.278
744.576
744.38
119.436
232.402
315.511
376.254
421.16
455.026
480.627
499.955
514.527
525.455
533.561
539.473
543.682
546.572
548.474
549.649
550.527
550.172
97.6416
199.98
277.776
334.833
376.773
407.859
430.863
447.788
460.144
469.043
475.311
479.573
482.312
483.907
484.678
484.899
484.905
484.496
83.6529
176.29
251.578
308.55
351.102
382.723
406.067
423.144
435.486
444.246
450.289
454.275
456.713
458.005
458.483
458.436
458.17
457.713
71.9922
153.974
226.312
283.826
328.199
361.84
387.039
405.706
419.353
429.155
436.018
440.645
443.583
445.264
446.045
446.233
446.112
445.774
61.3446
131.283
198.627
255.581
301.544
337.59
365.356
386.467
402.316
414.042
422.561
428.599
432.734
435.433
437.075
437.982
438.422
438.496
51.6701
108.731
168.489
222.634
268.758
306.565
336.808
360.621
379.136
393.361
404.155
412.232
418.176
422.467
425.503
427.612
429.05
429.908
43.223
87.6466
137.688
186.328
230.303
268.248
299.992
326.028
347.087
363.932
377.28
387.767
395.942
402.269
407.141
410.88
413.729
415.756
36.1701
69.2423
108.634
149.504
188.758
224.549
256.007
282.991
305.752
324.721
340.386
353.237
363.729
372.269
379.21
384.851
389.41
392.916
30.4988
54.1393
83.3301
115.317
147.818
179.119
208.074
234.105
257.041
276.961
294.084
308.698
321.112
331.629
340.53
348.057
354.388
359.498
26.3769
43.1981
64.2844
88.2416
113.651
139.261
164.048
187.313
208.664
227.936
245.121
260.313
273.666
285.359
295.576
304.488
312.21
318.646
23.1428
34.7472
49.3145
66.271
84.8788
104.391
124.086
143.358
161.768
179.031
194.994
209.598
222.857
234.83
245.601
255.257
263.845
271.21
20.3785
27.695
36.7532
47.4291
59.4485
72.4881
86.1798
100.151
114.072
127.678
140.774
153.222
164.942
175.894
186.069
195.47
204.079
211.692
18.1501
22.2411
27.1497
32.9153
39.4917
46.799
54.7216
63.1126
71.8145
80.6767
89.5638
98.3603
106.972
115.327
123.369
131.056
138.33
144.99
16.4708
18.3571
20.5278
23.0292
25.8756
29.0708
32.6067
36.4589
40.5894
44.9526
49.499
54.1783
58.9416
63.7431
68.5408
73.2949
77.9571
82.3941
15.3282
15.8732
16.4961
17.2137
18.0334
18.9618
20.0049
21.166
22.4446
23.837
25.3371
26.9365
28.6246
30.3875
32.2113
34.0821
35.9824
37.8698
14.7508
14.6758
14.637
14.6353
14.6699
14.7397
14.8451
14.9863
15.1633
15.3763
15.6247
15.9082
16.2259
16.5781
16.9639
17.3814
17.8278
18.2988
14.8977
14.9732
15.0872
15.2433
15.4415
15.6818
15.9644
16.2893
16.6555
17.0615
17.5051
17.9837
18.4944
19.0338
19.5983
20.1842
20.787
21.393
15.9707
17.2603
18.7261
20.3949
22.2729
24.3594
26.6477
29.122
31.7584
34.5282
37.4003
40.3433
43.3264
46.3209
49.3009
52.2436
55.124
57.8825
18.0495
21.9965
26.6895
32.1472
38.3072
45.0733
52.3219
59.9068
67.677
75.4922
83.2308
90.7918
98.0961
105.085
111.718
117.969
123.82
129.225
21.5629
30.6523
41.92
55.0357
69.494
84.7767
100.374
115.824
130.764
144.934
158.168
170.374
181.52
191.614
200.695
208.819
216.047
222.424
27.2183
45.2998
67.7851
92.9352
119.101
144.995
169.635
192.382
212.908
231.12
247.067
260.885
272.757
282.882
291.461
298.686
304.731
309.755
35.7142
67.6757
105.677
144.948
182.512
216.736
246.81
272.562
294.216
312.173
326.895
338.838
348.425
356.033
361.99
366.575
370.027
372.572
47.4075
97.6102
152.027
202.686
246.849
283.881
314.065
338.19
357.194
371.964
383.276
391.791
398.054
402.511
405.526
407.392
408.351
408.639
61.8878
131.751
198.703
254.803
299.831
335.065
362.106
382.553
397.794
408.955
416.932
422.431
426.004
428.083
429.005
429.034
428.385
427.272
78.4668
165.761
239.651
296.702
339.785
371.973
395.784
413.191
425.726
434.56
440.578
444.449
446.68
447.661
447.689
446.994
445.76
444.173
99.5996
200.964
279.478
337.82
380.456
411.806
434.889
451.765
463.981
472.693
478.748
482.777
485.255
486.545
486.923
486.604
485.756
484.548
144.791
258.315
348.614
417.599
468.467
506.75
535.876
558.054
574.958
587.833
597.592
604.918
610.334
614.247
616.973
618.761
619.805
620.306
366.941
498.483
666.587
808.034
923.456
1016.69
1091.73
1152.4
1201.68
1241.85
1274.7
1301.65
1323.82
1342.1
1357.2
1369.7
1380.01
1388.58
1.18434
1.10778
1.58345
1.97983
2.2964
2.58779
2.93057
3.2995
3.69714
4.13824
4.65806
5.35525
6.1945
7.15402
8.23051
9.42903
10.7579
12.2253
13.8375
15.5988
17.5117
19.5772
21.7953
24.166
26.6898
29.3686
32.2071
35.2136
38.4023
41.7952
45.3486
49.048
52.8893
56.8687
60.9829
65.2287
69.6031
74.1033
78.7265
83.4701
88.3316
93.3084
98.3979
103.597
108.904
114.314
119.825
125.434
131.136
136.927
142.804
148.762
154.795
160.9
167.069
173.299
179.582
185.913
192.284
198.691
205.125
211.581
218.049
224.525
231
237.466
243.917
250.345
256.744
263.108
269.433
275.718
281.97
288.202
294.449
300.607
306.666
312.625
318.481
324.229
329.862
335.374
340.757
346.004
351.11
356.066
360.868
365.51
369.984
374.286
378.41
382.352
386.106
389.668
393.035
396.2
399.163
401.917
404.462
406.793
408.908
410.806
412.483
413.938
415.17
416.178
416.96
417.517
417.847
417.951
417.829
417.482
416.91
416.115
415.098
413.862
412.408
410.739
408.857
406.766
404.47
401.972
399.275
396.386
393.308
390.046
386.606
382.993
379.214
375.274
371.18
366.938
362.556
358.041
353.399
348.636
343.766
338.79
333.724
328.574
323.334
318.071
312.853
308.534
305.726
303.026
300.267
297.438
294.542
291.582
288.564
285.492
282.372
279.21
276.009
272.776
269.515
266.231
262.93
259.616
256.294
252.969
249.644
246.324
243.012
239.711
236.425
233.154
229.899
226.659
223.431
220.207
216.974
213.712
210.381
206.906
203.128
198.638
192.782
184.882
3.53648
1.93571
1.7276
1.80621
2.01577
2.32354
2.71417
3.17414
3.70434
4.30712
4.9863
5.74571
6.57867
7.47781
8.43784
9.45489
10.5256
11.6468
12.8152
14.0279
15.2822
16.5766
17.9099
19.2821
20.6937
22.1459
23.6404
25.1787
26.762
28.3901
30.0599
31.7703
33.521
35.3119
37.143
39.0141
40.9247
42.8747
44.8635
46.8906
48.9554
51.057
53.1947
55.3676
57.5746
59.8147
62.0866
64.389
66.7207
69.08
71.4655
73.8755
76.3083
78.762
81.2349
83.7249
86.2301
88.7483
91.2773
93.8151
96.3593
98.9075
101.458
104.007
106.554
109.095
111.629
114.153
116.666
119.166
121.655
124.132
126.602
129.072
131.571
134.051
136.499
138.91
141.283
143.615
145.904
148.147
150.341
152.485
154.574
156.607
158.582
160.495
162.346
164.131
165.849
167.497
169.074
170.578
172.007
173.359
174.634
175.829
176.943
177.975
178.924
179.789
180.569
181.262
181.869
182.389
182.82
183.163
183.418
183.583
183.659
183.646
183.544
183.354
183.074
182.707
182.253
181.711
181.084
180.372
179.576
178.697
177.737
176.697
175.578
174.383
173.113
171.77
170.356
168.873
167.323
165.709
164.033
162.298
160.506
158.659
156.762
154.814
152.823
150.792
148.703
146.622
144.565
142.68
141.06
139.494
137.923
136.332
134.72
133.087
131.434
129.765
128.08
126.382
124.673
122.955
121.231
119.503
117.772
116.041
114.312
112.586
110.865
109.152
107.448
105.754
104.072
102.402
100.747
99.1054
97.4788
95.8666
94.2678
92.6805
91.1017
89.528
87.9511
86.3841
85.0398
85.0799
6.19369
3.00255
2.567
2.60626
2.82064
3.14263
3.55936
4.06375
4.6492
5.3075
6.02925
6.80482
7.62466
8.48103
9.3685
10.2837
11.2245
12.1901
13.1801
14.1948
15.235
16.3016
17.3959
18.5193
19.673
20.858
22.0752
23.3247
24.6066
25.9204
27.2653
28.6407
30.0463
31.4816
32.946
34.4392
35.9606
37.5097
39.0859
40.6887
42.3175
43.9717
45.6508
47.354
49.0807
50.8301
52.6015
54.394
56.2069
58.039
59.8896
61.7575
63.6416
65.5408
67.4538
69.3795
71.3164
73.2632
75.2184
77.1807
79.1485
81.1203
83.0947
85.07
87.045
89.0182
90.9884
92.9546
94.916
96.8723
98.8236
100.771
102.714
104.657
106.594
108.513
110.408
112.276
114.115
115.922
117.695
119.433
121.132
122.792
124.41
125.984
127.512
128.993
130.424
131.804
133.132
134.406
135.624
136.785
137.888
138.932
139.914
140.835
141.692
142.486
143.216
143.879
144.477
145.007
145.471
145.866
146.193
146.451
146.641
146.761
146.812
146.794
146.707
146.551
146.327
146.034
145.674
145.246
144.752
144.192
143.567
142.877
142.125
141.31
140.435
139.499
138.506
137.456
136.351
135.192
133.981
132.72
131.41
130.054
128.653
127.208
125.725
124.2
122.641
121.057
119.445
117.825
116.214
114.66
113.187
111.743
110.302
108.851
107.39
105.917
104.433
102.94
101.44
99.9328
98.4215
96.9074
95.3923
93.8776
92.3651
90.8563
89.3527
87.8557
86.3669
84.8875
83.4189
81.9621
80.5185
79.0891
77.6748
76.2765
74.8952
73.5316
72.1867
70.862
69.5603
68.2878
67.0574
65.9139
64.9838
64.854
8.89793
4.22407
3.56441
3.52183
3.69981
4.01109
4.42628
4.93074
5.5127
6.1601
6.8606
7.60279
8.37729
9.17749
9.99946
10.8415
11.7035
12.5862
13.4911
14.4196
15.3735
16.3542
17.3629
18.4008
19.4684
20.5662
21.6942
22.8523
24.04
25.2569
26.5023
27.7758
29.0768
30.4048
31.7595
33.1404
34.5471
35.9792
37.4363
38.9181
40.4241
41.9541
43.5075
45.0839
46.683
48.3041
49.9467
51.6103
53.2941
54.9975
56.7197
58.4598
60.2169
61.9901
63.7782
65.5802
67.395
69.2212
71.0576
72.9028
74.7556
76.6145
78.4781
80.3451
82.2141
84.0837
85.9528
87.8203
89.6851
91.5464
93.4035
95.2558
97.1025
98.9418
100.767
102.574
104.357
106.114
107.843
109.542
111.208
112.84
114.435
115.991
117.507
118.981
120.41
121.793
123.129
124.416
125.651
126.835
127.964
129.039
130.058
131.02
131.923
132.766
133.549
134.271
134.932
135.529
136.063
136.534
136.94
137.281
137.558
137.769
137.915
137.996
138.011
137.961
137.845
137.665
137.42
137.111
136.738
136.302
135.804
135.244
134.623
133.942
133.202
132.405
131.551
130.641
129.677
128.661
127.594
126.477
125.312
124.101
122.845
121.547
120.208
118.825
117.412
115.967
114.492
112.993
111.471
109.937
108.403
106.889
105.404
103.935
102.467
100.994
99.5139
98.027
96.5335
95.0349
93.5323
92.0273
90.5215
89.0164
87.5135
86.0143
84.5203
83.0329
81.5535
80.0834
78.6239
77.1762
75.7415
74.321
72.9158
71.5268
70.1552
68.8021
67.4685
66.1557
64.8657
63.6011
62.3668
61.1721
60.0348
58.9992
58.1549
57.7709
11.2696
5.43199
4.51411
4.37219
4.50276
4.78413
5.1735
5.64981
6.19834
6.80621
7.46163
8.15445
8.87688
9.62374
10.3923
11.1819
11.9929
12.8267
13.6848
14.5688
15.4802
16.4202
17.3897
18.3893
19.4193
20.48
21.5712
22.6926
23.8439
25.0247
26.2346
27.4733
28.7403
30.0354
31.3583
32.7087
34.0864
35.4912
36.9228
38.3811
39.8658
41.3767
42.9135
44.476
46.0637
47.6764
49.3136
50.9747
52.6592
54.3664
56.0956
57.8461
59.6168
61.4068
63.215
65.0403
66.8815
68.7373
70.6062
72.4869
74.3779
76.2777
78.1846
80.0972
82.0139
83.9331
85.8532
87.7728
89.6904
91.6046
93.5138
95.4166
97.3113
99.1934
101.058
102.902
104.721
106.513
108.276
110.006
111.702
113.362
114.983
116.563
118.101
119.594
121.04
122.438
123.786
125.082
126.325
127.513
128.644
129.718
130.734
131.689
132.584
133.416
134.186
134.892
135.534
136.11
136.621
137.067
137.445
137.758
138.003
138.181
138.292
138.336
138.313
138.223
138.067
137.844
137.556
137.203
136.784
136.302
135.757
135.15
134.481
133.752
132.964
132.118
131.216
130.258
129.245
128.181
127.067
125.902
124.69
123.434
122.132
120.789
119.409
117.992
116.543
115.064
113.556
112.024
110.471
108.903
107.329
105.76
104.201
102.647
101.093
99.5366
97.9753
96.4096
94.8403
93.2686
91.6959
90.1237
88.5536
86.987
85.4254
83.8704
82.3234
80.7857
79.2587
77.7437
76.242
74.7548
73.2831
71.8283
70.3913
68.9732
67.5752
66.1985
64.8443
63.5145
62.2113
60.9382
59.7011
58.5103
57.3842
56.3611
55.5029
54.9357
14.1415
6.58735
5.35303
5.09882
5.1709
5.41058
5.76186
6.19818
6.70301
7.26373
7.86992
8.51318
9.18726
9.88814
10.6138
11.3636
12.1382
12.9386
13.766
14.6219
15.5072
16.423
17.37
18.3485
19.359
20.4016
21.4762
22.5828
23.7213
24.8914
26.0931
27.3261
28.5905
29.886
31.2126
32.5702
33.9589
35.3784
36.8289
38.3102
39.8223
41.365
42.9383
44.5418
46.1754
47.8388
49.5315
51.2531
53.0029
54.7804
56.5847
58.415
60.2702
62.1494
64.0513
65.9745
67.9178
69.8796
71.8583
73.8523
75.8598
77.879
79.9081
81.9451
83.9882
86.0354
88.0846
90.134
92.1814
94.225
96.2625
98.292
100.31
102.312
104.294
106.251
108.182
110.082
111.95
113.783
115.578
117.333
119.046
120.713
122.334
123.906
125.426
126.894
128.307
129.663
130.961
132.199
133.375
134.49
135.54
136.525
137.444
138.296
139.08
139.796
140.442
141.018
141.523
141.958
142.322
142.614
142.835
142.984
143.062
143.069
143.004
142.868
142.662
142.387
142.041
141.628
141.146
140.597
139.982
139.302
138.558
137.751
136.882
135.954
134.967
133.923
132.822
131.668
130.463
129.206
127.901
126.552
125.16
123.728
122.257
120.751
119.211
117.641
116.044
114.422
112.779
111.12
109.45
107.778
106.106
104.435
102.763
101.088
99.4102
97.7302
96.0489
94.3678
92.6882
91.0118
89.3401
87.6747
86.0171
84.3688
82.7313
81.106
79.4943
77.8974
76.3166
74.7532
73.2083
71.6831
70.1787
68.6963
67.237
65.8022
64.3934
63.0125
61.6624
60.3468
59.0722
57.8491
56.6947
55.6403
54.728
54.0192
17.6177
7.71417
6.07352
5.68213
5.68502
5.87693
6.18637
6.58091
7.04224
7.55798
8.11889
8.71796
9.35014
10.0122
10.7023
11.4201
12.1658
12.9401
13.744
14.5785
15.4446
16.343
17.2745
18.2396
19.2387
20.2721
21.34
22.4427
23.5804
24.7531
25.9611
27.2044
28.4833
29.7978
31.1482
32.5346
33.9573
35.4163
36.9118
38.4438
40.0126
41.618
43.2601
44.9387
46.6536
48.4046
50.1912
52.013
53.8693
55.7593
57.6823
59.6372
61.6228
63.638
65.6812
67.751
69.8457
71.9635
74.1025
76.2606
78.436
80.6262
82.8291
85.0423
87.2635
89.4902
91.7199
93.9502
96.1784
98.4021
100.619
102.825
105.017
107.188
109.336
111.456
113.545
115.601
117.62
119.599
121.536
123.427
125.271
127.065
128.806
130.492
132.121
133.691
135.199
136.645
138.025
139.339
140.586
141.763
142.869
143.903
144.865
145.752
146.565
147.302
147.963
148.548
149.055
149.486
149.838
150.113
150.31
150.43
150.472
150.437
150.325
150.137
149.873
149.534
149.12
148.633
148.073
147.441
146.739
145.968
145.129
144.223
143.252
142.217
141.122
139.966
138.75
137.479
136.156
134.782
133.358
131.888
130.374
128.819
127.225
125.595
123.931
122.236
120.513
118.766
116.997
115.211
113.413
111.607
109.797
107.985
106.171
104.355
102.537
100.719
98.9025
97.088
95.2776
93.4729
91.6756
89.8874
88.1098
86.3444
84.5928
82.8564
81.1365
79.4346
77.7519
76.0896
74.449
72.8313
71.2376
69.6692
68.1273
66.6134
65.1292
63.6769
62.2593
60.8808
59.5478
58.2704
57.0641
55.9537
54.9672
54.1362
20.7761
8.67507
6.64175
6.1133
6.04576
6.18966
6.45859
6.81438
7.23675
7.71319
8.23516
8.79657
9.39319
10.0223
10.6823
11.3727
12.0936
12.8456
13.6293
14.4457
15.2957
16.1801
17.0997
18.0553
19.0474
20.0768
21.1439
22.2494
23.3937
24.5774
25.801
27.0649
28.3696
29.7157
31.1035
32.5336
34.0063
35.522
37.0811
38.6839
40.3305
42.0211
43.7558
45.5346
47.3572
49.2233
51.1327
53.0846
55.0785
57.1133
59.1882
61.3018
63.4529
65.6399
67.8611
70.1146
72.3985
74.7105
77.0484
79.4098
81.792
84.1926
86.6086
89.0373
91.4758
93.9212
96.3703
98.8201
101.267
103.709
106.143
108.564
110.965
113.342
115.691
118.008
120.289
122.532
124.733
126.889
128.997
131.053
133.055
135
136.885
138.708
140.467
142.159
143.782
145.335
146.814
148.22
149.549
150.801
151.975
153.068
154.081
155.011
155.859
156.623
157.303
157.899
158.41
158.836
159.176
159.432
159.602
159.688
159.689
159.606
159.439
159.19
158.858
158.445
157.951
157.378
156.727
155.998
155.194
154.315
153.365
152.343
151.251
150.091
148.868
147.582
146.235
144.829
143.369
141.854
140.289
138.676
137.017
135.315
133.573
131.795
129.981
128.137
126.264
124.366
122.447
120.51
118.559
116.598
114.631
112.66
110.687
108.712
106.738
104.765
102.795
100.83
98.8712
96.9211
94.9812
93.0532
91.1389
89.2398
87.3575
85.4936
83.6495
81.8265
80.0261
78.2494
76.4978
74.7725
73.0747
71.4057
69.7669
68.1598
66.5863
65.0486
63.55
62.0947
60.689
59.3425
58.0685
56.8865
55.8143
54.8691
23.482
9.44525
7.05746
6.40203
6.26788
6.36659
6.59845
6.91998
7.30884
7.75204
8.24126
8.77096
9.3374
9.93819
10.572
11.2383
11.9371
12.669
13.4346
14.2349
15.0708
15.9433
16.8535
17.8024
18.7909
19.8202
20.891
22.0045
23.1614
24.3628
25.6096
26.9026
28.2426
29.6307
31.0674
32.5537
34.0901
35.6774
37.3161
39.0067
40.7495
42.5449
44.393
46.2937
48.247
50.2526
52.3098
54.4182
56.5767
58.7845
61.0401
63.3422
65.689
68.0788
70.5094
72.9785
75.4838
78.0225
80.5919
83.1892
85.8111
88.4545
91.1161
93.7926
96.4805
99.1761
101.876
104.576
107.274
109.964
112.644
115.307
117.945
120.554
123.13
125.669
128.167
130.62
133.025
135.378
137.675
139.914
142.091
144.203
146.247
148.221
150.122
151.948
153.696
155.364
156.951
158.455
159.874
161.206
162.451
163.606
164.672
165.647
166.529
167.32
168.017
168.621
169.132
169.549
169.873
170.104
170.241
170.285
170.237
170.097
169.867
169.546
169.135
168.636
168.051
167.38
166.624
165.785
164.863
163.863
162.787
161.634
160.408
159.11
157.745
156.312
154.816
153.258
151.642
149.97
148.245
146.47
144.648
142.781
140.873
138.927
136.946
134.933
132.891
130.824
128.735
126.628
124.507
122.375
120.235
118.092
115.946
113.8
111.655
109.514
107.378
105.25
103.131
101.022
98.9274
96.8473
94.784
92.7391
90.7143
88.7111
86.7312
84.7759
82.8465
80.9445
79.071
77.2275
75.4152
73.6353
71.8895
70.1792
68.5066
66.8739
65.2844
63.7424
62.254
60.8278
59.475
58.2107
57.0459
55.9906
25.6787
10.0277
7.33518
6.56762
6.37315
6.43069
6.6293
6.92086
7.28103
7.69612
8.15775
8.66059
9.20119
9.77742
10.3881
11.0329
11.7119
12.4256
13.175
13.961
14.7849
15.648
16.5515
17.4969
18.4856
19.519
20.5986
21.7257
22.9018
24.1282
25.4063
26.7375
28.123
29.564
31.0618
32.6175
34.232
35.9064
37.6413
39.4374
41.2954
43.2155
45.198
47.2429
49.3501
51.5191
53.7493
56.0399
58.3897
60.7976
63.2619
65.7807
68.3521
70.9736
73.6429
76.357
79.113
81.9078
84.7379
87.5997
90.4898
93.4042
96.3392
99.2906
102.254
105.226
108.203
111.179
114.15
117.113
120.062
122.987
125.881
128.741
131.562
134.339
137.068
139.745
142.366
144.927
147.425
149.856
152.216
154.503
156.712
158.842
160.889
162.852
164.727
166.513
168.208
169.81
171.317
172.727
174.041
175.256
176.371
177.385
178.297
179.108
179.816
180.422
180.925
181.326
181.624
181.82
181.914
181.907
181.8
181.592
181.286
180.882
180.38
179.783
179.093
178.311
177.438
176.476
175.427
174.293
173.077
171.78
170.406
168.956
167.433
165.84
164.18
162.455
160.669
158.824
156.924
154.972
152.97
150.924
148.834
146.706
144.542
142.346
140.12
137.87
135.597
133.307
131.001
128.685
126.362
124.035
121.706
119.379
117.054
114.735
112.424
110.123
107.833
105.558
103.299
101.058
98.8369
96.6377
94.4619
92.3114
90.1875
88.0918
86.0257
83.9906
81.9879
80.0187
78.0846
76.1868
74.3269
72.5066
70.7279
68.9933
67.3061
65.6704
64.0919
62.5783
61.1388
59.7851
58.5234
57.3603
27.3429
10.4347
7.49439
6.63234
6.38515
6.40596
6.57489
6.84002
7.17531
7.56629
8.00436
8.48422
9.00257
9.5575
10.148
10.774
11.4357
12.1338
12.8696
13.6443
14.4594
15.3166
16.2177
17.1645
18.1589
19.2028
20.2982
21.4469
22.651
23.9123
25.2327
26.6141
28.0581
29.5665
31.1407
32.7824
34.4927
36.273
38.1241
40.047
42.0424
44.1105
46.2518
48.4661
50.7531
53.1123
55.5428
58.0435
60.613
63.2497
65.9514
68.7159
71.5406
74.4227
77.3591
80.3464
83.3808
86.4586
89.5757
92.7279
95.911
99.1203
102.352
105.6
108.861
112.13
115.402
118.672
121.935
125.187
128.418
131.616
134.778
137.899
140.972
143.994
146.96
149.866
152.707
155.479
158.179
160.802
163.345
165.804
168.176
170.458
172.648
174.742
176.739
178.636
180.432
182.124
183.711
185.191
186.564
187.829
188.984
190.027
190.959
191.779
192.486
193.082
193.566
193.938
194.198
194.347
194.386
194.314
194.134
193.846
193.451
192.951
192.346
191.639
190.832
189.926
188.923
187.825
186.635
185.354
183.986
182.532
180.996
179.38
177.687
175.92
174.083
172.178
170.209
168.179
166.091
163.95
161.757
159.518
157.236
154.913
152.555
150.163
147.743
145.298
142.831
140.347
137.848
135.339
132.824
130.305
127.786
125.27
122.759
120.255
117.762
115.281
112.816
110.367
107.938
105.53
103.146
100.787
98.4549
96.1515
93.8786
91.6375
89.4297
87.2567
85.1198
83.0204
80.9599
78.9396
76.9612
75.0263
73.1372
71.2962
69.5066
67.7723
66.0987
64.4923
62.9608
61.5132
60.1522
58.8832
28.4718
10.6819
7.55485
6.61774
6.32632
6.31509
6.45769
6.6994
7.01284
7.38291
7.80076
8.26106
8.76062
9.29771
9.87159
10.4823
11.1305
11.8172
12.5438
13.3122
14.1243
14.9821
15.888
16.8444
17.8537
18.9184
20.0409
21.2239
22.4698
23.7811
25.1602
26.6094
28.1309
29.7269
31.3993
33.1499
34.9803
36.8919
38.8859
40.9632
43.1245
45.3703
47.7005
50.1149
52.6131
55.1942
57.8568
60.5996
63.4205
66.3173
69.2875
72.3281
75.436
78.6076
81.8391
85.1264
88.4651
91.8504
95.2777
98.7418
102.238
105.761
109.306
112.867
116.44
120.018
123.597
127.172
130.736
134.284
137.798
141.273
144.702
148.082
151.406
154.669
157.867
160.995
164.048
167.023
169.914
172.72
175.435
178.055
180.577
182.999
185.317
187.529
189.632
191.626
193.507
195.273
196.925
198.459
199.876
201.174
202.353
203.409
204.344
205.156
205.847
206.417
206.865
207.192
207.398
207.485
207.453
207.302
207.035
206.652
206.154
205.544
204.822
203.992
203.054
202.01
200.864
199.617
198.272
196.832
195.298
193.675
191.965
190.171
188.297
186.345
184.319
182.223
180.06
177.834
175.549
173.208
170.815
168.374
165.888
163.363
160.801
158.207
155.584
152.937
150.268
147.583
144.884
142.176
139.463
136.748
134.034
131.325
128.623
125.932
123.253
120.59
117.945
115.32
112.718
110.14
107.59
105.068
102.577
100.119
97.6941
95.3053
92.9535
90.6403
88.367
86.1351
83.9459
81.801
79.7018
77.6501
75.6481
73.6983
71.8036
69.968
68.1961
66.4937
64.867
63.3228
61.8619
60.489
29.0728
10.7846
7.53455
6.54308
6.2167
6.17855
6.29831
6.51956
6.81408
7.16638
7.56749
8.01209
8.49712
9.02107
9.58349
10.1847
10.8258
11.5083
12.234
13.0052
13.8244
14.6944
15.618
16.5982
17.6381
18.7409
19.9096
21.1474
22.4574
23.8426
25.3059
26.8503
28.4783
30.1924
31.995
33.8879
35.8731
37.952
40.1257
42.3952
44.7609
47.223
49.7812
52.435
55.1833
58.0247
60.9574
63.9793
67.0876
70.2794
73.5514
76.8999
80.3209
83.8101
87.3628
90.9744
94.6397
98.3527
102.108
105.899
109.721
113.568
117.435
121.316
125.204
129.095
132.983
136.862
140.726
144.557
148.345
152.083
155.767
159.391
162.949
166.436
169.847
173.177
176.422
179.577
182.639
185.604
188.47
191.227
193.875
196.412
198.833
201.139
203.325
205.39
207.332
209.149
210.841
212.406
213.842
215.15
216.328
217.375
218.291
219.075
219.729
220.253
220.646
220.909
221.043
221.05
220.929
220.682
220.31
219.816
219.199
218.463
217.61
216.64
215.557
214.362
213.059
211.65
210.138
208.525
206.815
205.011
203.116
201.133
199.066
196.92
194.696
192.4
190.034
187.604
185.113
182.565
179.964
177.315
174.621
171.887
169.116
166.314
163.483
160.629
157.755
154.865
151.963
149.054
146.14
143.227
140.317
137.414
134.52
131.64
128.775
125.929
123.104
120.303
117.528
114.781
112.064
109.38
106.73
104.116
101.541
99.0041
96.5086
94.0553
91.6459
89.2816
86.9639
84.6942
82.4741
80.3055
78.1903
76.1311
74.1307
72.1926
70.3213
68.5215
66.7983
65.1569
63.5966
62.1223
29.1557
10.7567
7.44907
6.42492
6.07377
6.01463
6.11582
6.32035
6.59979
6.93861
7.32792
7.76257
8.23977
8.75832
9.31817
9.92013
10.5657
11.257
11.9964
12.787
13.6318
14.5343
15.4981
16.527
17.6247
18.7952
20.0419
21.3687
22.7792
24.277
25.8656
27.5481
29.3274
31.2064
33.1873
35.2722
37.4627
39.7603
42.1656
44.6793
47.3013
50.0313
52.8682
55.8108
58.8573
62.0055
65.2526
68.5955
72.0306
75.5541
79.1617
82.8486
86.6101
90.4408
94.3355
98.2888
102.296
106.348
110.437
114.56
118.708
122.878
127.061
131.253
135.448
139.639
143.821
147.989
152.124
156.212
160.245
164.218
168.125
171.96
175.718
179.394
182.983
186.479
189.879
193.178
196.372
199.458
202.431
205.288
208.026
210.641
213.131
215.494
217.728
219.831
221.802
223.638
225.338
226.902
228.328
229.616
230.766
231.775
232.646
233.376
233.968
234.42
234.735
234.911
234.951
234.855
234.625
234.262
233.767
233.143
232.39
231.511
230.509
229.385
228.141
226.782
225.308
223.724
222.032
220.235
218.338
216.342
214.252
212.072
209.805
207.455
205.026
202.523
199.949
197.309
194.607
191.848
189.035
186.174
183.268
180.322
177.341
174.328
171.289
168.227
165.146
162.051
158.947
155.836
152.724
149.614
146.509
143.414
140.331
137.264
134.216
131.19
128.188
125.213
122.267
119.353
116.474
113.63
110.824
108.059
105.334
102.653
100.016
97.4257
94.8827
92.3884
89.9445
87.5523
85.2134
82.9296
80.7029
78.5356
76.4306
74.391
72.4208
70.524
68.7048
66.9671
65.3093
63.7369
28.7327
10.6109
7.31208
6.2778
5.91322
5.84051
5.92917
6.12285
6.39359
6.72632
7.11258
7.54762
8.02913
8.55644
9.13008
9.7515
10.4229
11.1471
11.9273
12.7672
13.6709
14.6425
15.6866
16.8077
18.0107
19.3003
20.6793
22.1524
23.7239
25.3976
27.1772
29.066
31.0668
33.1822
35.4141
37.7642
40.2335
42.8226
45.5317
48.3601
51.3071
54.371
57.5499
60.8413
64.2422
67.7492
71.3583
75.0653
78.8656
82.7539
86.725
90.7732
94.8926
99.0771
103.32
107.616
111.958
116.338
120.75
125.187
129.642
134.11
138.584
143.058
147.527
151.984
156.425
160.833
165.187
169.48
173.707
177.862
181.938
185.931
189.835
193.645
197.356
200.963
204.463
207.852
211.125
214.278
217.31
220.215
222.991
225.636
228.146
230.521
232.757
234.854
236.809
238.622
240.29
241.814
243.192
244.424
245.51
246.448
247.24
247.885
248.383
248.736
248.944
249.007
248.927
248.705
248.343
247.841
247.202
246.427
245.52
244.48
243.312
242.018
240.6
239.061
237.404
235.633
233.75
231.759
229.664
227.469
225.177
222.792
220.318
217.76
215.121
212.407
209.621
206.769
203.854
200.882
197.857
194.783
191.665
188.509
185.318
182.097
178.85
175.583
172.299
169.003
165.7
162.392
159.086
155.783
152.489
149.207
145.941
142.693
139.467
136.267
133.093
129.951
126.841
123.767
120.73
117.733
114.777
111.864
108.997
106.177
103.404
100.681
98.0098
95.3904
92.8249
90.3146
87.861
85.4659
83.1313
80.8593
78.6526
76.5142
74.4474
72.4558
70.5428
68.7113
66.9594
65.2929
27.781
10.3876
7.13913
6.11279
5.74676
5.67018
5.75575
5.94894
6.22312
6.56433
6.96525
7.42159
7.93197
8.49665
9.11712
9.79582
10.5359
11.3412
12.216
13.1649
14.1929
15.3051
16.5067
17.8028
19.1988
20.6992
22.3086
24.0312
25.8709
27.8313
29.9154
32.1259
34.4647
36.9331
39.5321
42.2617
45.1217
48.1111
51.2282
54.471
57.8368
61.3225
64.9243
68.6383
72.4598
76.3839
80.4055
84.5188
88.718
92.9969
97.3494
101.769
106.248
110.781
115.361
119.981
124.633
129.312
134.01
138.72
143.436
148.153
152.864
157.564
162.249
166.913
171.536
176.096
180.589
185.007
189.346
193.599
197.763
201.83
205.798
209.661
213.414
217.054
220.576
223.977
227.253
230.402
233.419
236.303
239.049
241.657
244.123
246.445
248.623
250.654
252.536
254.27
255.853
257.285
258.565
259.693
260.669
261.492
262.162
262.68
263.046
263.261
263.326
263.242
263.009
262.629
262.104
261.436
260.625
259.675
258.588
257.365
256.009
254.524
252.912
251.176
249.319
247.344
245.256
243.058
240.754
238.347
235.842
233.243
230.554
227.78
224.925
221.994
218.992
215.924
212.793
209.605
206.366
203.079
199.75
196.383
192.983
189.556
186.105
182.635
179.151
175.658
172.159
168.659
165.163
161.674
158.196
154.733
151.289
147.867
144.47
141.102
137.764
134.461
131.193
127.965
124.778
121.633
118.534
115.482
112.478
109.525
106.623
103.774
100.98
98.2409
95.5592
92.936
90.3728
87.8712
85.4331
83.0606
80.7561
78.5223
76.3622
74.2789
72.2751
70.3533
68.5111
66.755
26.5163
10.1354
6.98009
5.97468
5.61859
5.55203
5.65164
5.86529
6.16822
6.54809
6.99899
7.51861
8.10708
8.7662
9.49899
10.3094
11.2019
12.1817
13.2542
14.4251
15.7
17.0845
18.5841
20.2038
21.9483
23.8218
25.8276
27.9687
30.2474
32.6653
35.2231
37.9212
40.759
43.7354
46.8483
50.0956
53.4741
56.9803
60.6103
64.3595
68.2234
72.1966
76.2738
80.4492
84.717
89.071
93.505
98.0125
102.587
107.222
111.911
116.647
121.423
126.234
131.071
135.93
140.803
145.684
150.567
155.446
160.317
165.174
170.012
174.826
179.615
184.348
189.01
193.595
198.1
202.518
206.846
211.077
215.209
219.236
223.155
226.96
230.648
234.216
237.66
240.977
244.162
247.215
250.131
252.908
255.544
258.036
260.382
262.582
264.632
266.531
268.279
269.874
271.315
272.601
273.733
274.708
275.528
276.192
276.701
277.054
277.252
277.296
277.187
276.926
276.513
275.951
275.241
274.384
273.383
272.24
270.957
269.537
267.982
266.295
264.48
262.539
260.476
258.294
255.997
253.589
251.074
248.457
245.741
242.93
240.03
237.045
233.98
230.84
227.629
224.352
221.015
217.623
214.179
210.691
207.162
203.597
200.002
196.381
192.739
189.081
185.412
181.735
178.057
174.38
170.709
167.049
163.403
159.775
156.169
152.588
149.035
145.514
142.028
138.578
135.168
131.8
128.477
125.199
121.97
118.791
115.664
112.59
109.571
106.608
103.702
100.855
98.0674
95.3414
92.6782
90.0792
87.5462
85.0813
82.6865
80.3645
78.1179
75.9493
73.861
71.8549
69.9289
68.09
25.04
9.83006
6.82577
5.86956
5.54765
5.5177
5.66295
5.93525
6.313
6.78675
7.35338
8.01344
8.76973
9.62658
10.5893
11.6637
12.8559
14.172
15.6181
17.1994
18.921
20.7869
22.8005
24.9643
27.2796
29.7469
32.366
35.1353
38.053
41.1161
44.3211
47.6639
51.1401
54.7446
58.4722
62.3172
66.2739
70.3364
74.4985
78.7543
83.0975
87.5221
92.0219
96.5908
101.223
105.912
110.651
115.436
120.26
125.118
130.003
134.909
139.832
144.766
149.705
154.644
159.578
164.503
169.413
174.305
179.175
184.019
188.835
193.615
198.325
202.959
207.512
211.98
216.359
220.645
224.833
228.92
232.902
236.775
240.534
244.178
247.702
251.102
254.377
257.522
260.535
263.413
266.154
268.755
271.214
273.528
275.697