/*--------------------------------*- C++ -*----------------------------------*\
| =========                 |                                                 |
| \\      /  F ield         | OpenFOAM: The Open Source CFD Toolbox           |
|  \\    /   O peration     | Version:  2412                                  |
|   \\  /    A nd           | Website:  www.openfoam.com                      |
|    \\/     M anipulation  |                                                 |
\*---------------------------------------------------------------------------*/
FoamFile
{
    version     2.0;
    format      ascii;
    arch        "LSB;label=32;scalar=64";
    class       volScalarField;
    location    "0.15";
    object      k;
}
// * * * * * * * * * * * * * * * * * * * * * * * * * * * * * * * * * * * * * //

dimensions      [0 2 -2 0 0 0 0];

internalField   nonuniform List<scalar> 
12225
(
0.316793
0.394493
0.477904
0.542611
0.593825
0.63437
0.66672
0.692773
0.713871
0.731029
0.745029
0.756462
0.765782
0.773327
0.779357
0.784007
0.787403
0.790415
0.569139
0.788914
0.95258
1.06799
1.15119
1.21269
1.25816
1.2917
1.3163
1.33411
1.34669
1.35524
1.36065
1.36361
1.36471
1.36425
1.36346
1.36136
0.670061
0.972154
1.18323
1.33202
1.43945
1.5186
1.57693
1.61968
1.65077
1.67301
1.68849
1.69878
1.70507
1.70829
1.70921
1.70841
1.7069
1.70487
0.722108
1.07674
1.32651
1.50447
1.63403
1.72971
1.80042
1.85243
1.89038
1.91766
1.93679
1.94966
1.95775
1.96219
1.96392
1.96373
1.96261
1.96114
0.742771
1.1292
1.41224
1.61818
1.77023
1.88337
1.96763
2.03016
2.07625
2.1098
2.13375
2.15034
2.16127
2.16792
2.17138
2.17261
2.17262
2.1721
0.739915
1.13776
1.44638
1.6782
1.85304
1.98506
2.08467
2.15964
2.21577
2.25742
2.28791
2.30978
2.32501
2.33518
2.34156
2.34525
2.34727
2.34827
0.719621
1.1088
1.43133
1.68403
1.88029
2.03178
2.14829
2.23767
2.30595
2.35782
2.39688
2.42596
2.44729
2.46263
2.47343
2.48089
2.48603
2.48943
0.687642
1.05046
1.37183
1.63648
1.84974
2.01925
2.15294
2.25793
2.3401
2.40415
2.45384
2.49216
2.52153
2.54389
2.5608
2.57358
2.58321
2.59019
0.648987
0.972381
1.27662
1.5408
1.76294
1.94593
2.09473
2.21488
2.31148
2.38888
2.45071
2.49999
2.53917
2.5703
2.59504
2.61472
2.63034
2.64225
0.607485
0.884091
1.15748
1.4074
1.62725
1.81573
1.97448
2.10677
2.21631
2.30663
2.38091
2.44192
2.49201
2.53317
2.56707
2.59503
2.618
2.63617
0.56582
0.793324
1.02684
1.25031
1.45567
1.63917
1.79967
1.93808
2.05637
2.15687
2.24197
2.31389
2.37467
2.42607
2.46964
2.50659
2.53778
2.56317
0.528748
0.712098
0.905188
1.09647
1.27869
1.44752
1.60047
1.73678
1.8569
1.96196
2.0534
2.13275
2.20153
2.26116
2.31291
2.35782
2.39656
2.42878
0.494654
0.637275
0.79059
0.947
1.10078
1.24806
1.38604
1.51307
1.62851
1.73245
1.82543
1.90824
1.9818
2.04707
2.10497
2.15626
2.20138
2.23969
0.460677
0.562148
0.673152
0.78969
0.907919
1.02497
1.1385
1.24672
1.34848
1.44314
1.53049
1.61064
1.68385
1.75054
1.81116
1.86613
1.91558
1.95852
0.429346
0.492751
0.562805
0.638301
0.717367
0.798338
0.87972
0.960159
1.03856
1.1141
1.18624
1.25463
1.31909
1.37956
1.43609
1.48872
1.5373
1.58063
0.403169
0.435386
0.470981
0.51006
0.552199
0.59687
0.643495
0.691432
0.740035
0.788725
0.837006
0.884471
0.930792
0.975715
1.01905
1.06062
1.10014
1.13654
0.384083
0.39461
0.406484
0.419896
0.434851
0.451307
0.469204
0.488429
0.508825
0.530205
0.552377
0.575146
0.598316
0.621677
0.645049
0.668269
0.691133
0.713101
0.374047
0.373709
0.37409
0.375206
0.377038
0.379561
0.382764
0.386632
0.391143
0.396268
0.401973
0.408217
0.414959
0.422173
0.429815
0.437829
0.446146
0.454657
0.376606
0.378923
0.381988
0.385849
0.390481
0.395848
0.401916
0.408638
0.415958
0.423807
0.432117
0.440815
0.449832
0.459098
0.46855
0.478125
0.487749
0.497203
0.394946
0.417777
0.442953
0.47055
0.500288
0.531805
0.564711
0.598575
0.632947
0.667411
0.701601
0.735206
0.767973
0.799704
0.830252
0.859508
0.887349
0.91337
0.427769
0.489063
0.556224
0.628004
0.702566
0.778268
0.853676
0.927532
0.998828
1.06684
1.13108
1.19129
1.24736
1.29928
1.34717
1.39117
1.43143
1.468
0.475738
0.594969
0.723602
0.855967
0.987179
1.11391
1.23378
1.34519
1.4473
1.53991
1.62321
1.69768
1.76392
1.82261
1.87447
1.92016
1.96032
1.99546
0.536845
0.72869
0.928618
1.12372
1.3064
1.47301
1.6218
1.75252
1.86606
1.96388
2.04764
2.11903
2.17964
2.23094
2.27422
2.31063
2.34113
2.36659
0.60414
0.873964
1.14015
1.38238
1.59446
1.77603
1.92881
2.05582
2.1606
2.24656
2.31674
2.37377
2.41987
2.45692
2.48647
2.50981
2.52802
2.54202
0.668313
1.00766
1.31642
1.57532
1.78708
1.95801
2.09446
2.20264
2.28798
2.35495
2.40717
2.44753
2.47836
2.50153
2.51852
2.53055
2.53857
2.54346
0.717302
1.09919
1.41418
1.65888
1.84811
1.99398
2.1059
2.19144
2.25648
2.30556
2.34215
2.36894
2.38804
2.40107
2.40932
2.41379
2.4153
2.41458
0.735718
1.11862
1.40734
1.61983
1.77772
1.89572
1.98395
2.04966
2.09825
2.13376
2.15921
2.17688
2.18853
2.19548
2.19879
2.19927
2.19755
2.19422
0.708199
1.04716
1.29075
1.46557
1.59175
1.68428
1.75245
1.80244
1.83877
1.86479
1.88295
1.89508
1.90257
1.90647
1.90761
1.9066
1.90396
1.90016
0.616921
0.862574
1.0489
1.18265
1.27674
1.34491
1.39484
1.43127
1.45767
1.47656
1.48975
1.49856
1.504
1.50685
1.50769
1.50699
1.5051
1.50241
0.33327
0.408789
0.496177
0.564094
0.616608
0.657444
0.689405
0.714715
0.734951
0.751241
0.764431
0.775167
0.783945
0.791145
0.797067
0.801951
0.805971
0.809304
0.008468
0.01343
0.017038
0.01977
0.0218199
0.0236216
0.0256569
0.0277598
0.029939
0.0322656
0.0349022
0.0382875
0.0421768
0.0464127
0.0509436
0.0557595
0.0608644
0.0662603
0.0719429
0.0779018
0.0841218
0.0905856
0.0972754
0.104175
0.111273
0.118562
0.126043
0.133727
0.141636
0.149809
0.158131
0.166563
0.175089
0.183702
0.192391
0.201148
0.209968
0.218843
0.227769
0.236741
0.245753
0.254801
0.263882
0.272991
0.282123
0.291275
0.300442
0.309618
0.3188
0.327982
0.337159
0.346325
0.355475
0.364602
0.3737
0.382763
0.391786
0.40076
0.409679
0.418538
0.427328
0.436043
0.444677
0.453223
0.461673
0.470022
0.478264
0.486391
0.494399
0.502284
0.510044
0.517682
0.525207
0.532641
0.540028
0.547243
0.554276
0.561132
0.56781
0.574308
0.58062
0.586744
0.592673
0.598403
0.60393
0.60925
0.614359
0.619252
0.623926
0.628378
0.632605
0.636604
0.640372
0.643907
0.647207
0.650269
0.653091
0.655673
0.658013
0.660109
0.66196
0.663566
0.664926
0.66604
0.666907
0.667528
0.667901
0.668028
0.66791
0.667545
0.666937
0.666085
0.664991
0.663656
0.662083
0.660272
0.658226
0.655948
0.65344
0.650704
0.647744
0.644564
0.641167
0.637556
0.633735
0.62971
0.625484
0.621063
0.616451
0.611653
0.606676
0.601524
0.596205
0.590723
0.585086
0.579298
0.57337
0.567306
0.561117
0.554814
0.548383
0.541903
0.535446
0.529983
0.526246
0.522627
0.518934
0.515153
0.511285
0.507336
0.50331
0.499212
0.495048
0.490824
0.486545
0.482216
0.477844
0.473433
0.46899
0.46452
0.460028
0.455519
0.450999
0.446471
0.44194
0.43741
0.432884
0.428364
0.42385
0.419342
0.414834
0.410318
0.405779
0.401187
0.396495
0.391606
0.386315
0.380096
0.372088
0.361362
0.0175611
0.0279758
0.0369535
0.0442402
0.0509054
0.0573549
0.063592
0.0699583
0.076707
0.0839138
0.0915613
0.0995999
0.107947
0.116547
0.12538
0.13445
0.143773
0.153366
0.163243
0.17342
0.183909
0.194717
0.205854
0.217324
0.229129
0.24127
0.253743
0.26654
0.279653
0.293065
0.306757
0.320713
0.33492
0.349367
0.36404
0.378928
0.39402
0.409304
0.424771
0.440411
0.456215
0.472174
0.488282
0.504528
0.520906
0.537407
0.554024
0.570747
0.587568
0.604479
0.621468
0.638528
0.655647
0.672815
0.690021
0.707253
0.7245
0.741748
0.758987
0.776204
0.793385
0.810517
0.827588
0.844585
0.861495
0.878304
0.895
0.91157
0.928002
0.944283
0.960401
0.976343
0.992097
1.00765
1.02283
1.03771
1.05234
1.06671
1.08082
1.09465
1.1082
1.12146
1.13441
1.14705
1.15936
1.17134
1.18297
1.19425
1.20517
1.21572
1.22589
1.23568
1.24507
1.25406
1.26265
1.27082
1.27858
1.28592
1.29282
1.2993
1.30534
1.31093
1.31609
1.32079
1.32505
1.32885
1.3322
1.33509
1.33752
1.3395
1.34101
1.34206
1.34264
1.34277
1.34244
1.34164
1.34039
1.33868
1.33651
1.3339
1.33083
1.32732
1.32337
1.31898
1.31416
1.30892
1.30326
1.29718
1.2907
1.28382
1.27655
1.2689
1.26088
1.2525
1.24376
1.23468
1.22527
1.21554
1.2055
1.19519
1.18452
1.17371
1.16273
1.15175
1.1409
1.12992
1.11876
1.10742
1.09592
1.08426
1.07246
1.06053
1.04849
1.03634
1.02411
1.0118
0.99943
0.987007
0.974546
0.962058
0.949556
0.937051
0.924554
0.912075
0.899624
0.88721
0.874843
0.862528
0.850273
0.838079
0.82595
0.813882
0.801868
0.789893
0.777929
0.765938
0.753817
0.74145
0.727305
0.71199
0.0255168
0.0445801
0.0578368
0.0681852
0.0771861
0.0855263
0.0937965
0.102333
0.111305
0.12075
0.130628
0.140866
0.1514
0.162195
0.173251
0.184589
0.196247
0.208263
0.220675
0.233517
0.246813
0.260582
0.274832
0.289565
0.304773
0.320444
0.33656
0.353098
0.370033
0.387338
0.404986
0.422955
0.441221
0.459764
0.478566
0.497609
0.516878
0.536359
0.556039
0.575908
0.595955
0.616171
0.636548
0.657076
0.677747
0.698553
0.719485
0.740534
0.761691
0.782945
0.804287
0.825705
0.847188
0.868724
0.8903
0.911902
0.933517
0.955131
0.976729
0.998296
1.01982
1.04128
1.06266
1.08395
1.10513
1.12618
1.1471
1.16786
1.18845
1.20886
1.22907
1.24907
1.26885
1.28836
1.30755
1.32642
1.34498
1.36322
1.38113
1.39869
1.4159
1.43273
1.44918
1.46523
1.48086
1.49606
1.51083
1.52515
1.53901
1.5524
1.5653
1.57771
1.58962
1.60102
1.6119
1.62226
1.63208
1.64136
1.6501
1.65828
1.66591
1.67297
1.67947
1.68539
1.69074
1.69552
1.69971
1.70332
1.70634
1.70878
1.71063
1.71189
1.71257
1.71265
1.71215
1.71107
1.7094
1.70714
1.70431
1.70091
1.69693
1.69239
1.68729
1.68164
1.67543
1.66869
1.66141
1.65361
1.6453
1.63648
1.62716
1.61737
1.60709
1.59637
1.58519
1.57357
1.56155
1.54909
1.53627
1.52313
1.50965
1.49588
1.48188
1.46773
1.45348
1.43904
1.42439
1.40953
1.39445
1.37919
1.36376
1.34816
1.33243
1.31658
1.30062
1.28456
1.26844
1.25226
1.23603
1.21978
1.20351
1.18725
1.17101
1.15479
1.13862
1.1225
1.10645
1.09048
1.0746
1.05881
1.04312
1.02754
1.01206
0.996692
0.981428
0.966272
0.95121
0.93629
0.921061
0.905342
0.0324883
0.0607755
0.0779586
0.0904267
0.100924
0.110645
0.120213
0.129986
0.140149
0.150765
0.161824
0.173286
0.185115
0.197297
0.209846
0.222792
0.236175
0.250037
0.264414
0.279335
0.294816
0.310865
0.327479
0.344647
0.36235
0.380565
0.399265
0.418419
0.437997
0.457971
0.478313
0.498997
0.520001
0.541304
0.562888
0.584736
0.606835
0.62917
0.651732
0.674509
0.697493
0.720675
0.744045
0.767597
0.79132
0.815208
0.83925
0.863437
0.887758
0.912204
0.936762
0.96142
0.986165
1.01098
1.03586
1.06078
1.08572
1.11068
1.13563
1.16055
1.18544
1.21026
1.235
1.25965
1.28417
1.30857
1.33281
1.35688
1.38076
1.40444
1.4279
1.45111
1.47408
1.49673
1.51903
1.54099
1.56258
1.58381
1.60464
1.62507
1.64508
1.66466
1.68377
1.70242
1.72058
1.73824
1.75538
1.77199
1.78806
1.80358
1.81852
1.83289
1.84667
1.85985
1.87241
1.88436
1.89568
1.90637
1.91642
1.92582
1.93456
1.94264
1.95006
1.95681
1.96288
1.96828
1.973
1.97703
1.98038
1.98305
1.98503
1.98632
1.98693
1.98685
1.98608
1.98464
1.98251
1.9797
1.97623
1.97208
1.96727
1.96181
1.95569
1.94893
1.94154
1.93352
1.92488
1.91563
1.90579
1.89536
1.88436
1.87281
1.8607
1.84807
1.83493
1.82125
1.80714
1.79259
1.77761
1.76224
1.7465
1.73041
1.71403
1.69741
1.68058
1.66353
1.64624
1.6287
1.61093
1.59296
1.57478
1.55644
1.53794
1.5193
1.50055
1.4817
1.46277
1.44378
1.42475
1.4057
1.38663
1.36758
1.34856
1.32958
1.31065
1.2918
1.27304
1.25438
1.23583
1.21741
1.19912
1.18099
1.16302
1.14522
1.12762
1.11026
1.0932
1.07658
1.06034
1.04448
0.0380325
0.0754302
0.0955978
0.109897
0.121786
0.132617
0.143104
0.153662
0.164527
0.175816
0.187569
0.199791
0.21248
0.225641
0.23929
0.253457
0.268174
0.283472
0.299373
0.315894
0.333039
0.350806
0.369181
0.388147
0.40768
0.427752
0.448336
0.469402
0.490921
0.512867
0.535212
0.557936
0.581015
0.604433
0.628172
0.652218
0.676557
0.701178
0.72607
0.751223
0.776629
0.802279
0.828163
0.854273
0.880601
0.907136
0.933868
0.960787
0.987882
1.01514
1.04254
1.07009
1.09775
1.12551
1.15336
1.18128
1.20925
1.23725
1.26526
1.29326
1.32123
1.34914
1.37698
1.40472
1.43234
1.45982
1.48714
1.51427
1.5412
1.5679
1.59435
1.62053
1.64643
1.67196
1.69711
1.72188
1.74624
1.77017
1.79366
1.81669
1.83923
1.86128
1.88281
1.9038
1.92423
1.94409
1.96336
1.98202
2.00007
2.01748
2.03424
2.05034
2.06577
2.08051
2.09456
2.10791
2.12054
2.13245
2.14362
2.15406
2.16376
2.1727
2.1809
2.18833
2.19499
2.20089
2.20602
2.21038
2.21396
2.21677
2.2188
2.22006
2.22054
2.22025
2.21918
2.21735
2.21475
2.21139
2.20727
2.20241
2.19679
2.19044
2.18336
2.17556
2.16704
2.15783
2.14792
2.13733
2.12608
2.11418
2.10163
2.08847
2.07468
2.06032
2.04541
2.02995
2.01399
1.99754
1.98062
1.96325
1.94547
1.9273
1.90879
1.88998
1.87089
1.85154
1.83192
1.81203
1.7919
1.77153
1.75096
1.7302
1.70928
1.68821
1.66702
1.64573
1.62436
1.60293
1.58147
1.55998
1.53849
1.51703
1.4956
1.47423
1.45293
1.43172
1.41063
1.38965
1.36882
1.34815
1.32765
1.30735
1.28726
1.26742
1.24788
1.22869
1.20997
1.19192
1.17461
1.1582
0.0442422
0.0871887
0.110015
0.126055
0.139214
0.151012
0.162252
0.173412
0.184785
0.196543
0.208778
0.22154
0.234853
0.248739
0.263218
0.278311
0.294041
0.310425
0.327474
0.345193
0.363578
0.382619
0.402299
0.422599
0.443495
0.464961
0.486971
0.5095
0.532521
0.556012
0.579951
0.604317
0.629091
0.654259
0.679804
0.705714
0.731976
0.758581
0.785516
0.812774
0.840344
0.868217
0.896384
0.924836
0.953563
0.982552
1.01179
1.04128
1.07098
1.1009
1.13102
1.16131
1.19177
1.22236
1.25308
1.2839
1.3148
1.34576
1.37675
1.40774
1.43872
1.46965
1.50052
1.53129
1.56194
1.59244
1.62277
1.6529
1.6828
1.71246
1.74184
1.77093
1.79966
1.828
1.85592
1.88341
1.91043
1.93698
1.96304
1.98857
2.01356
2.03798
2.06182
2.08506
2.10766
2.12963
2.15093
2.17155
2.19147
2.21068
2.22916
2.24689
2.26388
2.28009
2.29553
2.31018
2.32403
2.33707
2.34929
2.36069
2.37126
2.38099
2.38988
2.39792
2.40511
2.41145
2.41692
2.42154
2.4253
2.4282
2.43024
2.43142
2.43173
2.43119
2.4298
2.42756
2.42447
2.42053
2.41577
2.41017
2.40375
2.39652
2.38849
2.37966
2.37005
2.35967
2.34852
2.33664
2.32403
2.31069
2.29665
2.28196
2.26661
2.25064
2.23406
2.2169
2.19917
2.18092
2.16215
2.1429
2.12319
2.10305
2.08253
2.06166
2.04047
2.01898
1.99718
1.97511
1.95277
1.93019
1.90739
1.88439
1.86122
1.8379
1.81446
1.79091
1.76729
1.74361
1.71989
1.69616
1.67245
1.64876
1.62512
1.60155
1.57808
1.55472
1.53148
1.5084
1.48549
1.46276
1.44026
1.41799
1.39599
1.37432
1.35301
1.33219
1.31196
1.29255
1.27408
1.25675
0.0512279
0.0965101
0.121317
0.13877
0.153014
0.165665
0.17758
0.189281
0.201104
0.213264
0.225897
0.239086
0.252882
0.267318
0.282418
0.298199
0.314677
0.331859
0.349748
0.368343
0.387635
0.407613
0.428259
0.449556
0.471481
0.494015
0.517133
0.540817
0.565043
0.589794
0.615051
0.640797
0.667017
0.693697
0.720824
0.748386
0.776372
0.804773
0.833577
0.862776
0.89236
0.922319
0.952643
0.983321
1.01434
1.04569
1.07736
1.10933
1.14159
1.17411
1.20689
1.23989
1.27311
1.30651
1.34008
1.37378
1.4076
1.4415
1.47546
1.50945
1.54344
1.57739
1.61129
1.64509
1.67877
1.71229
1.74564
1.77876
1.81164
1.84425
1.87656
1.90853
1.9401
1.97122
2.00188
2.03206
2.06173
2.09087
2.11945
2.14745
2.17484
2.2016
2.22771
2.25315
2.27788
2.3019
2.32518
2.3477
2.36944
2.3904
2.41054
2.42986
2.44834
2.46597
2.48274
2.49864
2.51365
2.52776
2.54098
2.55328
2.56466
2.57512
2.58465
2.59325
2.60092
2.60764
2.61342
2.61826
2.62215
2.6251
2.6271
2.62816
2.62828
2.62746
2.62571
2.62303
2.61943
2.6149
2.60947
2.60313
2.5959
2.58778
2.57879
2.56893
2.55823
2.54669
2.53431
2.52114
2.5072
2.49249
2.47703
2.46086
2.44398
2.42643
2.40823
2.3894
2.36996
2.34996
2.3294
2.30832
2.28675
2.26472
2.24226
2.21942
2.19621
2.17267
2.14881
2.12464
2.10021
2.07551
2.05059
2.02546
2.00015
1.97469
1.94911
1.92342
1.89766
1.87185
1.846
1.82016
1.79433
1.76854
1.74282
1.71719
1.69166
1.66627
1.64102
1.61596
1.59109
1.56645
1.54206
1.51796
1.49418
1.47078
1.44785
1.42547
1.40381
1.38305
1.36333
1.34478
0.0571843
0.103375
0.129602
0.14815
0.163287
0.176681
0.189215
0.201431
0.21369
0.226235
0.23923
0.252784
0.266966
0.281822
0.297381
0.313661
0.330673
0.348423
0.366909
0.386129
0.406072
0.42673
0.448087
0.470128
0.492838
0.516199
0.540196
0.56481
0.590028
0.615834
0.642214
0.669154
0.696644
0.72467
0.753223
0.782293
0.811869
0.841943
0.872503
0.903542
0.935048
0.967012
0.999421
1.03226
1.06553
1.0992
1.13325
1.16769
1.20247
1.23759
1.27302
1.30874
1.34472
1.38094
1.41737
1.45398
1.49073
1.52761
1.56456
1.60157
1.63859
1.67559
1.71254
1.74939
1.78612
1.82269
1.85906
1.8952
1.93107
1.96664
2.00187
2.03673
2.07112
2.10503
2.13842
2.17128
2.20357
2.23528
2.26636
2.2968
2.32656
2.35563
2.38398
2.41157
2.4384
2.46442
2.48963
2.51401
2.53753
2.56018
2.58193
2.60278
2.62271
2.64171
2.65975
2.67684
2.69296
2.7081
2.72225
2.7354
2.74755
2.75869
2.76882
2.77793
2.78602
2.79308
2.79912
2.80413
2.80811
2.81107
2.813
2.81391
2.81379
2.81267
2.81053
2.80738
2.80323
2.7981
2.79197
2.78487
2.77681
2.7678
2.75783
2.74694
2.73515
2.72246
2.7089
2.69447
2.67922
2.66315
2.64629
2.62865
2.61027
2.59117
2.57138
2.55091
2.52981
2.50809
2.48578
2.46292
2.43953
2.41566
2.39132
2.36656
2.34141
2.31589
2.29004
2.26387
2.2374
2.21068
2.18371
2.15654
2.12918
2.10167
2.07403
2.0463
2.01848
1.99063
1.96275
1.93488
1.90703
1.87924
1.85153
1.82393
1.79645
1.76912
1.74196
1.71501
1.68828
1.66182
1.63564
1.6098
1.58433
1.55931
1.53481
1.51095
1.48788
1.46577
1.44472
1.42483
0.0620507
0.108002
0.135151
0.154496
0.170334
0.184354
0.19744
0.210139
0.222819
0.235735
0.249067
0.262938
0.277434
0.29261
0.308502
0.325131
0.342511
0.360647
0.379541
0.399191
0.41959
0.440732
0.462607
0.485205
0.508516
0.532528
0.557231
0.582614
0.608666
0.635379
0.662741
0.690744
0.71938
0.748638
0.778512
0.808993
0.840072
0.87174
0.903988
0.936807
0.970185
1.00411
1.03857
1.07356
1.10904
1.14502
1.18147
1.21836
1.25569
1.29342
1.33152
1.36997
1.40875
1.44781
1.48712
1.52666
1.56638
1.60625
1.64623
1.68628
1.72636
1.76643
1.80645
1.84637
1.88617
1.92579
1.96519
2.00434
2.0432
2.08173
2.11988
2.15759
2.19479
2.23146
2.26756
2.30307
2.33795
2.37218
2.40572
2.43856
2.47065
2.50197
2.5325
2.5622
2.59105
2.61903
2.64611
2.67228
2.69751
2.72179
2.74509
2.76741
2.78872
2.80901
2.82828
2.8465
2.86366
2.87976
2.89479
2.90873
2.92159
2.93335
2.94401
2.95358
2.96204
2.96939
2.97564
2.98078
2.98481
2.98773
2.98955
2.99026
2.98988
2.98841
2.98585
2.98221
2.9775
2.97172
2.96488
2.957
2.9481
2.93818
2.92726
2.91535
2.90248
2.88866
2.87391
2.85824
2.8417
2.82428
2.80603
2.78696
2.7671
2.74647
2.72511
2.70305
2.6803
2.65691
2.6329
2.6083
2.58314
2.55747
2.5313
2.50469
2.47766
2.45024
2.42246
2.39435
2.36594
2.33726
2.30833
2.27918
2.24986
2.22037
2.19076
2.16106
2.13128
2.10147
2.07164
2.04182
2.01205
1.98234
1.95273
1.92323
1.89388
1.8647
1.83572
1.80697
1.77847
1.75026
1.72238
1.69487
1.66779
1.64121
1.61521
1.58991
1.56545
1.54198
1.51957
1.49828
0.0658652
0.110684
0.138331
0.158207
0.174561
0.189077
0.202633
0.215762
0.228828
0.242087
0.255723
0.269869
0.284617
0.300031
0.316156
0.333018
0.350637
0.369023
0.388182
0.408115
0.428823
0.450304
0.472555
0.495572
0.519351
0.543888
0.569177
0.595214
0.621995
0.649514
0.677766
0.706748
0.736452
0.766875
0.798009
0.829848
0.862386
0.895613
0.929521
0.9641
0.999337
1.03522
1.07173
1.10886
1.14659
1.18489
1.22375
1.26313
1.30302
1.34338
1.38419
1.42541
1.467
1.50893
1.55116
1.59366
1.63637
1.67925
1.72227
1.76537
1.80851
1.85165
1.89473
1.93772
1.98056
2.02321
2.06563
2.10776
2.14958
2.19102
2.23206
2.27256
2.31251
2.35188
2.39062
2.4287
2.4661
2.50278
2.53871
2.57385
2.60819
2.64168
2.6743
2.70602
2.73681
2.76665
2.79552
2.82339
2.85024
2.87605
2.90082
2.92451
2.94711
2.96862
2.98901
3.00828
3.02641
3.04339
3.05922
3.07387
3.08736
3.09968
3.11081
3.12077
3.12954
3.13712
3.14352
3.14873
3.15275
3.15559
3.15725
3.15774
3.15705
3.15519
3.15218
3.14802
3.14272
3.13629
3.12873
3.12008
3.11033
3.09952
3.08763
3.07471
3.06077
3.04582
3.02989
3.01301
2.99518
2.97645
2.95683
2.93635
2.91504
2.89292
2.87004
2.84641
2.82206
2.79704
2.77137
2.74508
2.71822
2.6908
2.66287
2.63447
2.60563
2.57637
2.54675
2.51678
2.4865
2.45594
2.42513
2.3941
2.36288
2.33151
2.30002
2.26843
2.23677
2.20509
2.1734
2.14173
2.11011
2.07857
2.04714
2.01585
1.98471
1.95377
1.92304
1.89257
1.86238
1.83251
1.803
1.77391
1.74528
1.7172
1.68975
1.66304
1.63721
1.61239
1.5886
1.56591
0.0686836
0.111721
0.139524
0.159703
0.176402
0.191287
0.205214
0.218702
0.232099
0.245656
0.259553
0.273925
0.288869
0.304456
0.320737
0.337747
0.355511
0.374047
0.393367
0.413482
0.434397
0.456119
0.478652
0.501999
0.526162
0.551146
0.576951
0.603579
0.631031
0.659309
0.688411
0.718337
0.749085
0.780653
0.813037
0.846232
0.880232
0.915029
0.950613
0.986974
1.0241
1.06197
1.10057
1.13989
1.17989
1.22056
1.26186
1.30378
1.34627
1.3893
1.43285
1.47686
1.52129
1.56612
1.61128
1.65673
1.70243
1.74833
1.79437
1.8405
1.88668
1.93284
1.97895
2.02494
2.07077
2.11639
2.16174
2.20679
2.25147
2.29575
2.33953
2.38274
2.42532
2.46727
2.50852
2.54907
2.58885
2.62785
2.66603
2.70336
2.73981
2.77534
2.80992
2.84352
2.87612
2.90769
2.9382
2.96764
2.99599
3.02321
3.04931
3.07425
3.09803
3.12063
3.14204
3.16225
3.18124
3.19901
3.21553
3.23081
3.24484
3.25761
3.26914
3.2794
3.28841
3.29616
3.30264
3.30786
3.31182
3.31452
3.31597
3.31618
3.31515
3.31288
3.30939
3.30469
3.29879
3.29169
3.28341
3.27397
3.26339
3.25167
3.23884
3.22491
3.20991
3.19385
3.17677
3.15868
3.13961
3.11958
3.09863
3.07678
3.05406
3.0305
3.00613
2.98099
2.95511
2.92852
2.90125
2.87334
2.84482
2.81574
2.78612
2.756
2.72543
2.69443
2.66305
2.63131
2.59925
2.5669
2.5343
2.50148
2.46847
2.4353
2.40202
2.36864
2.33521
2.30175
2.26829
2.23486
2.2015
2.16823
2.13507
2.10207
2.06925
2.03663
2.00425
1.97215
1.94036
1.90891
1.87785
1.84724
1.81714
1.78762
1.75878
1.73071
1.70354
1.67737
1.65222
1.62814
0.0705633
0.11139
0.139083
0.159383
0.17628
0.191412
0.205609
0.219372
0.233034
0.246831
0.260939
0.275489
0.290581
0.30629
0.322673
0.339773
0.357622
0.376248
0.395672
0.415911
0.436982
0.458897
0.48167
0.505312
0.529834
0.555245
0.581555
0.608772
0.636902
0.665951
0.695925
0.726825
0.758655
0.791413
0.825098
0.859706
0.895231
0.931664
0.968995
1.00721
1.04629
1.08623
1.12699
1.16856
1.21091
1.25401
1.29782
1.34232
1.38746
1.43321
1.47951
1.52633
1.57363
1.62134
1.66941
1.71781
1.76646
1.81532
1.86432
1.91341
1.96254
2.01164
2.06066
2.10954
2.15823
2.20668
2.25483
2.30264
2.35004
2.39698
2.44333
2.48904
2.53408
2.57842
2.62201
2.66481
2.70679
2.74792
2.78815
2.82747
2.86582
2.9032
2.93956
2.97486
3.00907
3.04218
3.07416
3.10499
3.13465
3.16312
3.19038
3.21642
3.24121
3.26476
3.28704
3.30805
3.32778
3.3462
3.36329
3.37907
3.39353
3.40667
3.41848
3.42896
3.43811
3.44593
3.45243
3.45759
3.46142
3.46394
3.46514
3.46503
3.46362
3.46091
3.45692
3.45166
3.44514
3.43737
3.42836
3.41814
3.40671
3.3941
3.38033
3.36542
3.34938
3.33224
3.31403
3.29478
3.2745
3.25323
3.23099
3.20782
3.18374
3.1588
3.13302
3.10643
3.07908
3.05098
3.02219
2.99274
2.96266
2.93199
2.90077
2.86904
2.83683
2.80419
2.77115
2.73774
2.70401
2.66998
2.6357
2.60119
2.5665
2.53166
2.49669
2.46164
2.42654
2.39141
2.35629
2.32122
2.28622
2.25132
2.21655
2.18195
2.14754
2.11335
2.07943
2.04579
2.01249
1.97955
1.94704
1.915
1.8835
1.85261
1.82243
1.79305
1.76457
1.7371
1.71061
1.68518
0.0715547
0.109935
0.137323
0.157604
0.174582
0.189854
0.204229
0.218185
0.23204
0.246019
0.260289
0.274977
0.290182
0.305984
0.322443
0.339611
0.357529
0.376233
0.395754
0.416119
0.437353
0.459479
0.482519
0.506494
0.531422
0.557321
0.584205
0.612089
0.640985
0.670905
0.701856
0.733846
0.766878
0.800953
0.836071
0.872226
0.909413
0.947619
0.986833
1.02704
1.06821
1.11033
1.15337
1.1973
1.24209
1.2877
1.3341
1.38123
1.42906
1.47753
1.52661
1.57623
1.62635
1.6769
1.72783
1.77908
1.83059
1.88229
1.93413
1.98603
2.03793
2.08979
2.14153
2.1931
2.24445
2.2955
2.34622
2.39655
2.44643
2.49573
2.54437
2.59232
2.63955
2.686
2.73163
2.77642
2.82032
2.86329
2.90531
2.94633
2.98634
3.02529
3.06318
3.09992
3.1355
3.16991
3.20312
3.23511
3.26586
3.29535
3.32357
3.35049
3.37611
3.40041
3.42338
3.44501
3.46529
3.48419
3.50172
3.51787
3.53264
3.54601
3.558
3.5686
3.5778
3.58562
3.59204
3.59707
3.60072
3.60299
3.60389
3.60342
3.60159
3.59842
3.5939
3.58806
3.58091
3.57246
3.56272
3.55172
3.53947
3.52599
3.5113
3.49542
3.47838
3.46021
3.44092
3.42054
3.39911
3.37664
3.35319
3.32876
3.30341
3.27715
3.25004
3.22209
3.19335
3.16385
3.13364
3.10274
3.0712
3.03906
3.00634
2.97311
2.93938
2.90521
2.87063
2.83568
2.8004
2.76482
2.72898
2.69292
2.65667
2.62027
2.58376
2.54716
2.51051
2.47385
2.43721
2.40061
2.3641
2.32769
2.29143
2.25535
2.21947
2.18383
2.14847
2.11341
2.0787
2.04439
2.01051
1.97714
1.94432
1.91215
1.88069
1.85006
1.82033
1.79159
1.76382
1.7371
0.0716923
0.10756
0.134511
0.154677
0.171649
0.186979
0.201453
0.215534
0.229525
0.243639
0.258037
0.272843
0.288156
0.304055
0.320609
0.337876
0.355906
0.374743
0.394429
0.415001
0.436495
0.458943
0.482377
0.506826
0.532318
0.558876
0.58652
0.615267
0.645136
0.676142
0.708296
0.741605
0.776074
0.811705
0.848493
0.886431
0.925509
0.965712
1.00702
1.04941
1.09286
1.13734
1.18281
1.22923
1.27657
1.32478
1.37381
1.42361
1.47414
1.52533
1.57713
1.62947
1.68231
1.73557
1.7892
1.84314
1.89732
1.95166
2.00608
2.06053
2.11494
2.16926
2.22341
2.27735
2.33101
2.38433
2.43727
2.48977
2.5417
2.59297
2.64353
2.69334
2.74236
2.79054
2.83784
2.88424
2.92968
2.97413
3.01756
3.05994
3.10123
3.14141
3.18044
3.21828
3.25492
3.29032
3.32446
3.35733
3.3889
3.41916
3.44808
3.47566
3.50187
3.52671
3.55016
3.57222
3.59286
3.61209
3.62988
3.64624
3.66117
3.67465
3.68669
3.69729
3.70644
3.71415
3.72042
3.72525
3.72864
3.7306
3.73114
3.73027
3.72799
3.72431
3.71925
3.71282
3.70503
3.69589
3.68543
3.67367
3.66061
3.64628
3.63071
3.61391
3.59592
3.57675
3.55644
3.53501
3.51249
3.48892
3.46432
3.43873
3.41218
3.38472
3.35636
3.32716
3.29715
3.26636
3.23484
3.20262
3.16974
3.13624
3.10217
3.06756
3.03246
2.9969
2.96092
2.92457
2.88789
2.8509
2.81365
2.77619
2.73853
2.70073
2.66281
2.62481
2.58677
2.54872
2.51069
2.47272
2.43483
2.39707
2.35945
2.32202
2.28481
2.24785
2.21117
2.17482
2.13883
2.10325
2.06813
2.03352
1.99949
1.96611
1.93348
1.90166
1.87075
1.84081
1.81183
1.78387
0.0709988
0.104418
0.130857
0.150854
0.16777
0.183109
0.197635
0.2118
0.225896
0.240133
0.254665
0.269615
0.28508
0.301147
0.317888
0.335369
0.353649
0.372782
0.392819
0.413807
0.435793
0.458818
0.482924
0.508148
0.534529
0.562101
0.590863
0.620844
0.652066
0.684545
0.718293
0.753315
0.789612
0.827181
0.866012
0.906092
0.947403
0.989921
1.03362
1.07847
1.12442
1.17146
1.21952
1.26856
1.31853
1.36938
1.42106
1.4735
1.52664
1.58043
1.6348
1.68968
1.74501
1.80073
1.85676
1.91303
1.96949
2.02606
2.08266
2.13923
2.19571
2.25203
2.30813
2.36395
2.41944
2.47455
2.52921
2.58333
2.63677
2.6895
2.74146
2.79261
2.84291
2.89232
2.9408
2.98831
3.03482
3.08029
3.12468
3.16796
3.21012
3.2511
3.29089
3.32945
3.36675
3.40278
3.43751
3.47092
3.50299
3.53371
3.56304
3.59099
3.61753
3.64266
3.66635
3.6886
3.70941
3.72875
3.74662
3.76302
3.77795
3.79138
3.80334
3.81381
3.82279
3.83029
3.8363
3.84084
3.8439
3.84549
3.84562
3.8443
3.84153
3.83733
3.8317
3.82467
3.81624
3.80643
3.79527
3.78276
3.76893
3.7538
3.73739
3.71973
3.70084
3.68075
3.65949
3.63709
3.61358
3.58899
3.56335
3.5367
3.50908
3.48051
3.45105
3.42071
3.38956
3.35761
3.32492
3.29152
3.25746
3.22277
3.18749
3.15166
3.11534
3.07855
3.04135
3.00377
2.96584
2.92762
2.88914
2.85043
2.81154
2.7725
2.73334
2.69412
2.65485
2.61557
2.57633
2.53714
2.49804
2.45908
2.42027
2.38165
2.34325
2.30512
2.26728
2.22977
2.19263
2.15591
2.11966
2.08394
2.04881
2.01434
1.98061
1.94771
1.9157
1.88464
1.85452
1.82542
0.0694227
0.100375
0.126335
0.14619
0.163053
0.178396
0.192975
0.207234
0.221467
0.235883
0.250644
0.265861
0.281638
0.29807
0.315237
0.333212
0.352066
0.371861
0.392658
0.414515
0.437483
0.461613
0.486951
0.513539
0.541413
0.570604
0.601132
0.633016
0.666273
0.70091
0.736931
0.774333
0.813106
0.853236
0.894701
0.937475
0.981528
1.02682
1.07332
1.12097
1.16974
1.21956
1.27038
1.32216
1.37481
1.4283
1.48255
1.53749
1.59307
1.64922
1.70586
1.76294
1.82038
1.87812
1.93609
1.99421
2.05243
2.11068
2.16888
2.22698
2.2849
2.3426
2.40001
2.45708
2.51376
2.57
2.62568
2.68068
2.73495
2.78845
2.84114
2.89297
2.94391
2.99391
3.04295
3.09097
3.13795
3.18386
3.22865
3.27231
3.31479
3.35608
3.39614
3.43494
3.47247
3.50869
3.54358
3.57713
3.60931
3.64011
3.66951
3.69749
3.72405
3.74915
3.7728
3.79499
3.8157
3.83491
3.85264
3.86886
3.88358
3.89679
3.90849
3.91867
3.92734
3.93449
3.94013
3.94427
3.9469
3.94803
3.94767
3.94583
3.94252
3.93774
3.93152
3.92385
3.91477
3.90429
3.89241
3.87918
3.86459
3.84868
3.83148
3.81299
3.79326
3.77231
3.75017
3.72687
3.70245
3.67692
3.65034
3.62273
3.59413
3.56458
3.53412
3.50278
3.47061
3.43764
3.40392
3.36948
3.33437
3.29862
3.26229
3.22541
3.18802
3.15017
3.11189
3.07324
3.03424
2.99495
2.95539
2.91561
2.87565
2.83554
2.79532
2.75503
2.7147
2.67436
2.63406
2.59382
2.55367
2.51366
2.47381
2.43415
2.39472
2.35555
2.31669
2.27816
2.24001
2.20228
2.16503
2.12831
2.09218
2.05672
2.02199
1.98808
1.95506
1.92297
1.89179
1.86163
0.0673029
0.0963181
0.121695
0.141379
0.158205
0.173586
0.188271
0.202707
0.217193
0.231944
0.247126
0.26287
0.27929
0.296488
0.314554
0.333572
0.35362
0.37477
0.397088
0.420636
0.44547
0.471639
0.499185
0.528145
0.558546
0.590409
0.623745
0.658559
0.694847
0.732601
0.771803
0.812432
0.854457
0.897844
0.942553
0.98854
1.03576
1.08415
1.13367
1.18425
1.23584
1.28837
1.34179
1.39603
1.45102
1.50671
1.56302
1.6199
1.67728
1.73509
1.79326
1.85174
1.91046
1.96936
2.02837
2.08743
2.14648
2.20545
2.2643
2.32295
2.38136
2.43947
2.49724
2.5546
2.61153
2.66786
2.72353
2.77847
2.83266
2.88605
2.9386
2.99027
3.04103
3.09083
3.13965
3.18745
3.23419
3.27984
3.32437
3.36776
3.40997
3.45097
3.49074
3.52926
3.56649
3.60242
3.63702
3.67027
3.70215
3.73264
3.76174
3.78941
3.81564
3.84043
3.86375
3.8856
3.90597
3.92484
3.94221
3.95806
3.97241
3.98523
3.99653
4.0063
4.01455
4.02126
4.02646
4.03013
4.03228
4.03292
4.03205
4.02969
4.02583
4.0205
4.01371