/*--------------------------------*- C++ -*----------------------------------*\
| =========                 |                                                 |
| \\      /  F ield         | OpenFOAM: The Open Source CFD Toolbox           |
|  \\    /   O peration     | Version:  2412                                  |
|   \\  /    A nd           | Website:  www.openfoam.com                      |
|    \\/     M anipulation  |                                                 |
\*---------------------------------------------------------------------------*/
FoamFile
{
    version     2.0;
    format      ascii;
    arch        "LSB;label=32;scalar=64";
    class       volScalarField;
    location    "0.15";
    object      nut;
}
// * * * * * * * * * * * * * * * * * * * * * * * * * * * * * * * * * * * * * //

dimensions      [0 2 -1 0 0 0 0];

internalField   nonuniform List<scalar> 
12225
(
2.015e-05
2.24858e-05
2.47491e-05
2.63714e-05
2.75878e-05
2.85141e-05
2.92321e-05
2.97978e-05
3.02481e-05
3.06095e-05
3.09012e-05
3.11374e-05
3.13286e-05
3.14825e-05
3.1605e-05
3.16992e-05
3.17678e-05
3.18284e-05
0.000167792
0.000185428
0.000202597
0.000213786
0.000221145
0.000225984
0.000229001
0.00023072
0.000231514
0.000231643
0.000231292
0.000230594
0.00022965
0.000228531
0.000227296
0.00022597
0.000224709
0.000224075
0.000338328
0.000365994
0.000399361
0.000424406
0.000442778
0.000456137
0.000465647
0.000472247
0.000476656
0.000479408
0.000480904
0.000481446
0.000481263
0.000480528
0.000479375
0.000477903
0.000476301
0.000475473
0.000480631
0.00052177
0.000570121
0.000608389
0.000637801
0.000660208
0.000677097
0.000689689
0.00069895
0.000705622
0.000710277
0.000713357
0.000715204
0.000716084
0.000716206
0.000715737
0.000714912
0.000714445
0.00059357
0.000650966
0.000713489
0.000763784
0.000803282
0.000834121
0.000858087
0.000876628
0.000890893
0.000901781
0.000909995
0.000916086
0.000920488
0.000923544
0.000925529
0.00092667
0.000927222
0.000927701
0.000684417
0.000756655
0.000831949
0.000893053
0.000941624
0.000980102
0.00101056
0.00103465
0.00105369
0.0010687
0.00108048
0.00108967
0.00109677
0.00110221
0.0011063
0.00110933
0.00111154
0.00111333
0.000759755
0.000842838
0.000928291
0.000998647
0.00105522
0.00110054
0.00113687
0.00116606
0.00118953
0.00120842
0.00122362
0.00123584
0.00124564
0.00125349
0.00125975
0.00126474
0.00126872
0.00127197
0.000823623
0.000913363
0.00100525
0.00108261
0.00114578
0.00119702
0.00123858
0.00127237
0.00129992
0.00132243
0.00134087
0.00135598
0.0013684
0.00137862
0.00138705
0.00139402
0.00139977
0.00140453
0.000877001
0.000970914
0.0010653
0.00114672
0.00121456
0.00127046
0.0013164
0.00135422
0.00138543
0.00141127
0.00143272
0.0014506
0.00146553
0.00147807
0.00148862
0.00149754
0.00150504
0.0015113
0.000918256
0.00101593
0.00110995
0.00119241
0.00126253
0.00132141
0.00137056
0.00141158
0.00144588
0.00147464
0.00149884
0.00151928
0.00153661
0.00155137
0.001564
0.00157483
0.00158407
0.0015918
0.000944751
0.00104624
0.0011388
0.00122006
0.00129015
0.00135004
0.00140091
0.00144403
0.00148062
0.00151173
0.00153826
0.00156097
0.00158049
0.00159734
0.00161196
0.00162465
0.00163558
0.00164475
0.00095393
0.00105647
0.00114713
0.00122621
0.0012948
0.00135414
0.00140529
0.00144931
0.00148721
0.00151989
0.00154813
0.00157262
0.00159393
0.00161256
0.00162888
0.00164321
0.00165566
0.00166614
0.000951547
0.0010519
0.0011407
0.00121792
0.00128483
0.00134291
0.00139338
0.00143727
0.00147548
0.00150882
0.00153799
0.00156358
0.00158612
0.00160604
0.00162369
0.00163933
0.00165305
0.0016646
0.000937268
0.00102694
0.00110962
0.00118334
0.00124795
0.00130435
0.00135364
0.00139679
0.00143467
0.00146805
0.00149756
0.00152376
0.00154709
0.00156796
0.00158666
0.00160341
0.00161824
0.00163078
0.000914068
0.000982522
0.00105001
0.00111403
0.00117279
0.00122569
0.00127283
0.00131466
0.00135173
0.00138466
0.00141402
0.0014403
0.00146392
0.00148523
0.00150453
0.00152198
0.0015376
0.00155083
0.000888184
0.00092937
0.000972536
0.00101673
0.00106058
0.00110292
0.00114295
0.00118015
0.00121432
0.00124549
0.00127381
0.00129952
0.0013229
0.00134417
0.00136359
0.00138129
0.00139728
0.00141096
0.000866166
0.000882907
0.000901463
0.000921834
0.000943722
0.000966734
0.000990441
0.00101439
0.00103817
0.0010614
0.00108382
0.00110524
0.00112555
0.00114466
0.00116257
0.00117929
0.00119475
0.00120851
0.000853647
0.000856464
0.000860484
0.000865726
0.000872139
0.00087966
0.000888219
0.000897726
0.000908068
0.000919115
0.000930728
0.000942766
0.000955093
0.000967585
0.000980121
0.000992581
0.00100485
0.00101669
0.000856837
0.000863038
0.00087043
0.00087902
0.000888695
0.000899299
0.000910666
0.000922611
0.000934939
0.000947465
0.000960021
0.000972469
0.000984695
0.000996617
0.00100817
0.00101933
0.00103001
0.00104001
0.000879012
0.000910088
0.000942998
0.000977089
0.00101136
0.00104492
0.00107705
0.00110728
0.00113532
0.00116106
0.00118453
0.00120584
0.00122513
0.00124258
0.00125837
0.00127265
0.00128555
0.00129715
0.000912425
0.000978628
0.00104328
0.00110414
0.00115968
0.00120943
0.00125356
0.00129248
0.00132673
0.00135686
0.00138339
0.0014068
0.00142749
0.00144581
0.00146205
0.00147649
0.00148934
0.00150089
0.00094465
0.00103936
0.00112414
0.00119815
0.00126208
0.00131725
0.0013649
0.00140608
0.00144169
0.00147252
0.00149925
0.00152248
0.00154268
0.00156029
0.00157566
0.00158909
0.00160084
0.00161118
0.000952969
0.00105495
0.00114494
0.00122286
0.00128968
0.0013468
0.00139547
0.00143683
0.00147198
0.00150188
0.00152734
0.00154905
0.00156761
0.00158348
0.00159708
0.00160874
0.00161874
0.0016273
0.000919763
0.00101577
0.00110711
0.00118655
0.00125366
0.00130983
0.00135662
0.00139555
0.00142799
0.00145507
0.00147771
0.00149667
0.00151258
0.00152593
0.00153714
0.00154655
0.00155442
0.00156096
0.000847921
0.000936213
0.00102591
0.00110193
0.0011644
0.00121544
0.00125709
0.00129112
0.00131899
0.00134186
0.00136064
0.00137608
0.00138877
0.00139919
0.00140772
0.00141468
0.00142032
0.0014248
0.000748242
0.000825345
0.000905837
0.000972006
0.00102523
0.00106796
0.00110226
0.00112982
0.00115199
0.00116982
0.00118415
0.00119563
0.00120479
0.00121206
0.00121778
0.00122223
0.00122561
0.00122806
0.000620839
0.000679398
0.000743805
0.000795903
0.000837072
0.000869523
0.000895047
0.000915074
0.00093074
0.000942942
0.000952379
0.000959603
0.00096505
0.000969067
0.00097193
0.000973859
0.000975029
0.000975557
0.000453206
0.00049108
0.000536514
0.000572229
0.00059936
0.000619978
0.000635561
0.000647221
0.000655841
0.000662101
0.000666521
0.000669502
0.000671357
0.000672328
0.000672605
0.000672339
0.000671649
0.000670632
0.00023657
0.000259231
0.000284033
0.000301437
0.000313163
0.000321244
0.000326757
0.000330376
0.000332603
0.000333805
0.000334245
0.000334114
0.000333559
0.00033269
0.000331591
0.000330324
0.00032894
0.000327502
2.7242e-05
3.0171e-05
3.32398e-05
3.54418e-05
3.70549e-05
3.82622e-05
3.91812e-05
3.98939e-05
4.04548e-05
4.09006e-05
4.12581e-05
4.15468e-05
4.17814e-05
4.19728e-05
4.21296e-05
4.22585e-05
4.23643e-05
4.24518e-05
5.44915e-06
1.46536e-05
1.64997e-05
1.77676e-05
1.86594e-05
1.94058e-05
2.02162e-05
2.10197e-05
2.18199e-05
2.26416e-05
2.35366e-05
2.46364e-05
2.58454e-05
2.70998e-05
2.83789e-05
2.96765e-05
3.09913e-05
3.23213e-05
3.36637e-05
3.50144e-05
3.6369e-05
3.77234e-05
3.90738e-05
4.04173e-05
4.17522e-05
4.30777e-05
4.43947e-05
4.57055e-05
4.70143e-05
4.83273e-05
4.96267e-05
5.09068e-05
5.21668e-05
5.34067e-05
5.46263e-05
5.5826e-05
5.70059e-05
5.81664e-05
5.93078e-05
6.04306e-05
6.15351e-05
6.26217e-05
6.36908e-05
6.47427e-05
6.57776e-05
6.67958e-05
6.77976e-05
6.8783e-05
6.97523e-05
7.07055e-05
7.16425e-05
7.25636e-05
7.34686e-05
7.43574e-05
7.52301e-05
7.60866e-05
7.69266e-05
7.77502e-05
7.85572e-05
7.93475e-05
8.01208e-05
8.08772e-05
8.16164e-05
8.23382e-05
8.30426e-05
8.37295e-05
8.43986e-05
8.50499e-05
8.56833e-05
8.62991e-05
8.68973e-05
8.74786e-05
8.80442e-05
8.85962e-05
8.91384e-05
8.96609e-05
9.01632e-05
9.06461e-05
9.11098e-05
9.15545e-05
9.19802e-05
9.23869e-05
9.27744e-05
9.31427e-05
9.34918e-05
9.38216e-05
9.4132e-05
9.44231e-05
9.46948e-05
9.4947e-05
9.51799e-05
9.53934e-05
9.55875e-05
9.57621e-05
9.59175e-05
9.60535e-05
9.61702e-05
9.62677e-05
9.63459e-05
9.64051e-05
9.64451e-05
9.64661e-05
9.64681e-05
9.64513e-05
9.64156e-05
9.63611e-05
9.6288e-05
9.61963e-05
9.60861e-05
9.59575e-05
9.58106e-05
9.56455e-05
9.54623e-05
9.52611e-05
9.5042e-05
9.48053e-05
9.45509e-05
9.42791e-05
9.399e-05
9.36838e-05
9.33606e-05
9.30207e-05
9.26641e-05
9.22913e-05
9.19022e-05
9.14973e-05
9.10766e-05
9.06406e-05
9.01893e-05
8.97232e-05
8.92425e-05
8.87475e-05
8.82385e-05
8.77159e-05
8.718e-05
8.6631e-05
8.60696e-05
8.54959e-05
8.49108e-05
8.43148e-05
8.37066e-05
8.30923e-05
8.24771e-05
8.19338e-05
8.15243e-05
8.11236e-05
8.0716e-05
8.03005e-05
7.98772e-05
7.94462e-05
7.9008e-05
7.8563e-05
7.81115e-05
7.76539e-05
7.71906e-05
7.6722e-05
7.62486e-05
7.57707e-05
7.52888e-05
7.48031e-05
7.43143e-05
7.38225e-05
7.33283e-05
7.2832e-05
7.23339e-05
7.18343e-05
7.13334e-05
7.08314e-05
7.03284e-05
6.98242e-05
6.93184e-05
6.88104e-05
6.82987e-05
6.7781e-05
6.7253e-05
6.67065e-05
6.61236e-05
6.54587e-05
6.46351e-05
6.35672e-05
7.8483e-06
3.63886e-05
7.11393e-05
9.75232e-05
0.000115699
0.000127419
0.000134095
0.00013877
0.000142956
0.000147137
0.000151317
0.000155388
0.000159413
0.000163481
0.000167674
0.000172072
0.000176746
0.000181757
0.000187149
0.000192953
0.000199186
0.000205853
0.000212945
0.000220446
0.000228332
0.000236568
0.000245118
0.000253943
0.000263004
0.000272272
0.000281736
0.000291376
0.000301168
0.000311089
0.000321117
0.000331234
0.000341423
0.000351668
0.000361958
0.000372282
0.000382632
0.000393
0.00040338
0.000413769
0.000424161
0.000434552
0.00044494
0.000455321
0.000465692
0.000476049
0.00048639
0.000496709
0.000507004
0.00051727
0.000527502
0.000537697
0.000547848
0.000557951
0.000568
0.000577991
0.000587918
0.000597775
0.000607557
0.000617258
0.000626873
0.000636397
0.000645823
0.000655144
0.00066435
0.000673431
0.000682368
0.000691136
0.000699696
0.000707995
0.000715626
0.000722982
0.000730178
0.000737233
0.000744148
0.000750923
0.000757556
0.000764043
0.000770382
0.000776572
0.00078261
0.000788493
0.000794219
0.000799787
0.000805194
0.00081044
0.000815521
0.000820438
0.000825189
0.000829771
0.000834185
0.00083843
0.000842503
0.000846405
0.000850134
0.000853691
0.000857073
0.000860281
0.000863315
0.000866173
0.000868855
0.000871361
0.000873691
0.000875843
0.000877819
0.000879616
0.000881236
0.000882678
0.000883942
0.000885028
0.000885936
0.000886665
0.000887217
0.00088759
0.000887787
0.000887805
0.000887647
0.000887313
0.000886803
0.000886119
0.00088526
0.000884229
0.000883025
0.000881652
0.00088011
0.0008784
0.000876524
0.000874486
0.000872285
0.000869926
0.000867411
0.000864739
0.00086192
0.00085895
0.000855836
0.000852587
0.000849191
0.000845596
0.000841659
0.00083675
0.000830483
0.000823721
0.000816736
0.000809605
0.00080236
0.000795016
0.000787584
0.000780071
0.000772485
0.000764832
0.000757119
0.000749352
0.000741536
0.000733676
0.000725779
0.00071785
0.000709894
0.000701916
0.000693922
0.000685915
0.000677901
0.000669883
0.000661866
0.000653853
0.000645845
0.000637846
0.000629854
0.000621868
0.000613882
0.000605885
0.000597855
0.000589754
0.000581478
0.00057276
0.000559826
0.000536245
9.46116e-06
5.95709e-05
0.000117281
0.000160548
0.000190097
0.000209483
0.000222456
0.000231923
0.000239822
0.000247246
0.000254712
0.000262443
0.000270565
0.000279171
0.000288352
0.000298201
0.000308801
0.000320226
0.000332529
0.000345739
0.000359864
0.000374888
0.000390778
0.000407482
0.000424937
0.000443072
0.000461811
0.000481081
0.000500809
0.000520932
0.000541394
0.000562142
0.000583127
0.000604306
0.000625638
0.000647091
0.000668638
0.000690255
0.000711923
0.000733626
0.000755352
0.000777091
0.000798833
0.000820572
0.000842301
0.000864013
0.000885703
0.000907364
0.000928989
0.000950572
0.000972105
0.00099358
0.00101499
0.00103632
0.00105757
0.00107872
0.00109976
0.00112068
0.00114147
0.00116212
0.00118262
0.00120294
0.00122308
0.00124303
0.00126276
0.00128227
0.00130154
0.00132054
0.00133926
0.00135766
0.00137573
0.00139342
0.00141069
0.00142741
0.00144352
0.00145922
0.00147459
0.00148966
0.00150442
0.00151887
0.00153302
0.00154685
0.00156037
0.00157355
0.00158641
0.00159893
0.00161111
0.00162295
0.00163444
0.00164557
0.00165635
0.00166678
0.00167684
0.00168654
0.00169587
0.00170483
0.00171342
0.00172163
0.00172947
0.00173694
0.00174403
0.00175073
0.00175706
0.00176301
0.00176857
0.00177375
0.00177855
0.00178296
0.00178699
0.00179063
0.00179388
0.00179675
0.00179923
0.00180132
0.00180303
0.00180435
0.00180529
0.00180583
0.001806
0.00180578
0.00180518
0.00180419
0.00180283
0.00180109
0.00179897
0.00179648
0.00179362
0.00179039
0.0017868
0.00178284
0.00177854
0.00177388
0.00176888
0.00176353
0.00175786
0.00175185
0.00174554
0.00173891
0.00173198
0.00172475
0.00171721
0.00170923
0.00170063
0.00169092
0.00167982
0.00166789
0.00165546
0.00164269
0.00162962
0.00161632
0.00160279
0.00158907
0.00157516
0.00156109
0.00154686
0.00153249
0.00151799
0.00150337
0.00148865
0.00147384
0.00145894
0.00144397
0.00142894
0.00141386
0.00139873
0.00138358
0.0013684
0.0013532
0.00133799
0.00132277
0.00130754
0.0012923
0.00127702
0.00126169
0.00124623
0.00123055
0.00121436
0.00119698
0.00117494
0.00113745
1.0676e-05
7.8699e-05
0.000153456
0.000208962
0.000247773
0.000274692
0.000293838
0.000308407
0.000320669
0.000332091
0.000343533
0.000355465
0.000368146
0.000381734
0.00039634
0.000412051
0.000428938
0.000447049
0.000466407
0.00048701
0.000508828
0.000531811
0.000555887
0.000580973
0.000606974
0.000633793
0.000661333
0.000689501
0.000718208
0.000747376
0.000776932
0.000806813
0.000836961
0.000867327
0.000897869
0.000928549
0.000959338
0.00099021
0.00102114
0.00105212
0.00108313
0.00111416
0.00114519
0.00117622
0.00120723
0.00123821
0.00126916
0.00130007
0.00133092
0.00136171
0.00139241
0.00142302
0.00145353
0.00148391
0.00151416
0.00154425
0.00157418
0.00160391
0.00163345
0.00166276
0.00169182
0.00172063
0.00174915
0.00177738
0.00180528
0.00183283
0.00186002
0.00188682
0.0019132
0.00193913
0.00196459
0.00198955
0.00201399
0.00203773
0.00206089
0.00208355
0.00210576
0.00212752
0.00214885
0.00216974
0.00219019
0.00221018
0.00222972
0.00224879
0.00226739
0.00228551
0.00230315
0.00232029
0.00233694
0.00235308
0.00236872
0.00238384
0.00239845
0.00241254
0.0024261
0.00243913
0.00245163
0.0024636
0.00247503
0.00248593
0.00249628
0.00250608
0.00251534
0.00252405
0.00253222
0.00253983
0.00254689
0.0025534
0.00255935
0.00256475
0.00256959
0.00257387
0.0025776
0.00258077
0.00258338
0.00258543
0.00258692
0.00258786
0.00258824
0.00258807
0.00258734
0.00258606
0.00258424
0.00258186
0.00257894
0.00257548
0.00257148
0.00256695
0.0025619
0.00255632
0.00255023
0.00254362
0.00253652
0.00252893
0.00252085
0.00251231
0.0025033
0.00249384
0.00248394
0.00247357
0.00246273
0.0024513
0.00243914
0.00242596
0.00241159
0.00239632
0.00238037
0.00236391
0.002347
0.00232972
0.00231209
0.00229415
0.00227592
0.00225742
0.00223867
0.00221968
0.00220049
0.00218109
0.00216152
0.00214178
0.0021219
0.00210188
0.00208175
0.00206151
0.00204119
0.0020208
0.00200035
0.00197984
0.0019593
0.00193871
0.0019181
0.00189744
0.00187672
0.0018559
0.00183491
0.0018136
0.0017916
0.00176804
0.00174
0.00169956
1.15517e-05
9.42701e-05
0.000182207
0.000248609
0.000296455
0.000330856
0.000356254
0.000376132
0.000393044
0.000408744
0.000424356
0.000440556
0.000457741
0.000476138
0.000495883
0.000517056
0.0005397
0.000563828
0.000589427
0.000616454
0.000644847
0.000674525
0.000705392
0.000737345
0.000770276
0.000804076
0.000838642
0.000873874
0.000909682
0.000945981
0.000982698
0.00101977
0.00105713
0.00109473
0.00113252
0.00117048
0.00120856
0.00124675
0.001285
0.00132331
0.00136166
0.00140003
0.0014384
0.00147676
0.0015151
0.0015534
0.00159165
0.00162983
0.00166793
0.00170594
0.00174382
0.00178158
0.00181919
0.00185663
0.00189389
0.00193093
0.00196775
0.00200431
0.00204061
0.0020766
0.00211228
0.00214763
0.0021826
0.00221719
0.00225137
0.00228511
0.0023184
0.0023512
0.00238348
0.00241524
0.00244644
0.00247705
0.00250706
0.00253636
0.00256503
0.00259313
0.00262068
0.0026477
0.00267419
0.00270014
0.00272555
0.00275042
0.00277473
0.00279847
0.00282164
0.00284423
0.00286624
0.00288764
0.00290844
0.00292863
0.00294821
0.00296716
0.00298549
0.00300318
0.00302024
0.00303665
0.00305242
0.00306754
0.003082
0.0030958
0.00310895
0.00312142
0.00313324
0.00314438
0.00315485
0.00316465
0.00317377
0.00318221
0.00318997
0.00319705
0.00320345
0.00320916
0.00321418
0.00321853
0.00322218
0.00322514
0.00322742
0.00322902
0.00322992
0.00323014
0.00322967
0.00322853
0.0032267
0.00322419
0.00322101
0.00321716
0.00321264
0.00320747
0.00320163
0.00319515
0.00318803
0.00318027
0.00317189
0.0031629
0.0031533
0.00314312
0.00313235
0.00312101
0.00310909
0.0030966
0.0030835
0.00306974
0.0030552
0.00303972
0.00302322
0.00300582
0.00298766
0.00296886
0.00294952
0.00292968
0.00290939
0.00288869
0.00286759
0.00284614
0.00282435
0.00280225
0.00277985
0.00275718
0.00273426
0.0027111
0.00268774
0.00266418
0.00264045
0.00261657
0.00259255
0.00256841
0.00254418
0.00251985
0.00249545
0.00247099
0.00244646
0.00242188
0.00239722
0.00237245
0.00234748
0.00232218
0.00229616
0.00226859
0.00223725
0.00219763
1.24572e-05
0.000103861
0.000203493
0.000280476
0.000337323
0.000379336
0.000411207
0.000436655
0.000458466
0.000478626
0.000498474
0.000518864
0.000540318
0.000563139
0.000587493
0.00061346
0.000641067
0.000670298
0.000701111
0.000733436
0.00076719
0.000802272
0.000838575
0.000875988
0.0009144
0.000953699
0.000993783
0.00103455
0.00107592
0.0011178
0.00116011
0.0012028
0.0012458
0.00128906
0.00133254
0.00137619
0.00141998
0.00146389
0.00150787
0.00155191
0.00159599
0.00164008
0.00168417
0.00172824
0.00177227
0.00181624
0.00186014
0.00190394
0.00194764
0.0019912
0.00203461
0.00207786
0.00212091
0.00216375
0.00220635
0.0022487
0.00229076
0.00233252
0.00237396
0.00241503
0.00245573
0.00249603
0.0025359
0.00257532
0.00261427
0.00265271
0.00269063
0.00272801
0.00276481
0.00280103
0.00283663
0.00287161
0.00290589
0.00293946
0.00297237
0.00300467
0.00303635
0.00306745
0.00309795
0.00312785
0.00315715
0.00318583
0.00321389
0.00324133
0.00326812
0.00329426
0.00331974
0.00334456
0.0033687
0.00339216
0.00341494
0.00343701
0.00345838
0.00347904
0.00349899
0.00351821
0.00353671
0.00355447
0.0035715
0.00358779
0.00360333
0.00361812
0.00363216
0.00364545
0.00365797
0.00366973
0.00368073
0.00369096
0.00370041
0.00370909
0.003717
0.00372413
0.00373048
0.00373605
0.00374084
0.00374484
0.00374806
0.0037505
0.00375216
0.00375303
0.00375311
0.00375242
0.00375095
0.0037487
0.00374568
0.00374189
0.00373733
0.00373202
0.00372595
0.00371914
0.00371158
0.0037033
0.00369429
0.00368457
0.00367416
0.00366305
0.00365127
0.00363882
0.0036257
0.00361191
0.00359743
0.00358223
0.00356622
0.00354934
0.00353152
0.00351283
0.00349335
0.00347316
0.00345234
0.00343095
0.00340901
0.00338658
0.00336367
0.00334033
0.00331658
0.00329243
0.00326793
0.00324308
0.00321791
0.00319246
0.00316673
0.00314075
0.00311454
0.00308813
0.00306154
0.00303478
0.00300789
0.00298086
0.00295374
0.00292652
0.00289922
0.00287185
0.00284439
0.00281683
0.0027891
0.00276106
0.00273239
0.00270239
0.00266948
0.00263142
1.34062e-05
0.000108667
0.000218094
0.000305016
0.000370658
0.000420294
0.000458771
0.000489973
0.00051686
0.000541591
0.000565675
0.000590115
0.000615546
0.000642348
0.000670729
0.000700785
0.000732541
0.00076597
0.000801016
0.000837596
0.000875616
0.000914969
0.000955544
0.000997229
0.00103991
0.00108349
0.00112785
0.00117291
0.00121858
0.00126477
0.00131142
0.00135845
0.00140581
0.00145344
0.0015013
0.00154934
0.00159753
0.00164583
0.00169422
0.00174266
0.00179113
0.0018396
0.00188806
0.00193648
0.00198484
0.00203312
0.00208131
0.00212937
0.0021773
0.00222507
0.00227265
0.00232003
0.00236718
0.00241408
0.00246071
0.00250705
0.00255306
0.00259873
0.00264403
0.00268893
0.00273341
0.00277745
0.00282101
0.00286409
0.00290664
0.00294865
0.0029901
0.00303096
0.00307122
0.00311085
0.00314984
0.00318817
0.00322575
0.00326262
0.00329882
0.00333437
0.00336929
0.00340358
0.00343723
0.00347025
0.00350263
0.00353436
0.00356542
0.00359581
0.00362552
0.00365453
0.00368285
0.00371045
0.00373733
0.00376348
0.00378889
0.00381356
0.00383747
0.00386063
0.00388301
0.00390462
0.00392545
0.00394548
0.00396473
0.00398317
0.00400081
0.00401765
0.00403366
0.00404886
0.00406324
0.0040768
0.00408952
0.00410141
0.00411246
0.00412267
0.00413204
0.00414056
0.00414824
0.00415506
0.00416103
0.00416615
0.00417042
0.00417383
0.00417638
0.00417808
0.00417892
0.00417891
0.00417804
0.00417633
0.00417376
0.00417035
0.00416611
0.00416103
0.00415511
0.00414837
0.00414082
0.00413246
0.00412331
0.00411337
0.00410265
0.00409118
0.00407894
0.00406597
0.00405225
0.00403779
0.00402259
0.00400661
0.00398982
0.00397218
0.00395366
0.00393428
0.00391409
0.00389316
0.00387154
0.00384927
0.00382641
0.00380298
0.00377901
0.00375454
0.00372959
0.00370419
0.00367837
0.00365215
0.00362555
0.0035986
0.00357133
0.00354376
0.00351591
0.0034878
0.00345947
0.00343094
0.00340223
0.00337336
0.00334435
0.00331523
0.00328601
0.00325671
0.00322733
0.00319787
0.00316827
0.00313844
0.00310811
0.00307675
0.00304326
0.00300646
1.41655e-05
0.000110867
0.000227604
0.000323124
0.000396912
0.000453896
0.000498902
0.000535883
0.000567895
0.000597211
0.000625464
0.000653773
0.000682875
0.000713225
0.000745082
0.000778573
0.000813737
0.000850554
0.000888967
0.000928895
0.000970241
0.0010129
0.00105676
0.00110172
0.00114766
0.00119449
0.00124211
0.00129042
0.00133933
0.00138878
0.00143868
0.00148898
0.00153961
0.00159052
0.00164165
0.00169297
0.00174444
0.00179601
0.00184767
0.00189937
0.00195109
0.0020028
0.00205449
0.00210612
0.00215767
0.00220913
0.00226047
0.00231167
0.00236271
0.00241357
0.00246422
0.00251464
0.00256482
0.00261472
0.00266433
0.00271362
0.00276257
0.00281114
0.00285933
0.00290709
0.00295441
0.00300126
0.00304762
0.00309346
0.00313876
0.0031835
0.00322765
0.0032712
0.00331412
0.00335639
0.003398
0.00343893
0.00347911
0.00351859
0.00355739
0.00359554
0.00363304
0.0036699
0.0037061
0.00374166
0.00377654
0.00381076
0.00384429
0.00387713
0.00390926
0.00394068
0.00397136
0.00400131
0.00403051
0.00405894
0.00408661
0.0041135
0.0041396
0.00416491
0.00418941
0.00421311
0.00423598
0.00425803
0.00427924
0.00429961
0.00431913
0.0043378
0.00435562
0.00437257
0.00438865
0.00440387
0.00441821
0.00443166
0.00444423
0.00445591
0.00446669
0.00447659
0.00448558
0.00449368
0.00450086
0.00450714
0.00451251
0.00451697
0.00452053
0.00452318
0.0045249
0.00452572
0.00452564
0.00452465
0.00452275
0.00451994
0.00451623
0.00451164
0.00450615
0.00449979
0.00449255
0.00448445
0.00447549
0.00446569
0.00445506
0.00444361
0.00443134
0.00441827
0.00440441
0.00438975
0.00437429
0.00435803
0.00434095
0.00432302
0.00430423
0.00428459
0.00426415
0.00424293
0.00422098
0.00419835
0.00417506
0.00415115
0.00412665
0.0041016
0.00407602
0.00404993
0.00402337
0.00399636
0.00396892
0.00394108
0.00391287
0.00388432
0.00385544
0.00382627
0.00379683
0.00376715
0.00373725
0.00370717
0.00367692
0.00364654
0.00361605
0.00358547
0.00355483
0.00352412
0.00349334
0.00346241
0.00343113
0.00339912
0.00336561
0.00332996
1.47571e-05
0.000111145
0.000232934
0.000335553
0.000416607
0.000480439
0.000531704
0.000574318
0.000611362
0.00064517
0.000677454
0.000709419
0.000741886
0.000775379
0.000810215
0.000846561
0.000884485
0.000923985
0.000965019
0.00100751
0.00105138
0.00109651
0.00114282
0.00119019
0.00123852
0.00128772
0.00133768
0.00138833
0.00143958
0.00149135
0.00154358
0.00159619
0.00164912
0.00170234
0.00175577
0.00180939
0.00186314
0.001917
0.00197093
0.0020249
0.00207888
0.00213284
0.00218677
0.00224063
0.0022944
0.00234807
0.00240162
0.00245501
0.00250824
0.00256127
0.0026141
0.00266669
0.00271904
0.0027711
0.00282286
0.00287431
0.0029254
0.00297612
0.00302645
0.00307635
0.00312581
0.00317479
0.00322328
0.00327124
0.00331866
0.00336551
0.00341177
0.00345742
0.00350244
0.00354681
0.00359052
0.00363351
0.00367579
0.00371739
0.00375833
0.00379862
0.00383827
0.00387727
0.00391562
0.00395331
0.00399033
0.00402667
0.00406232
0.00409727
0.00413149
0.00416499
0.00419774
0.00422974
0.00426097
0.00429142
0.00432108
0.00434994
0.004378
0.00440523
0.00443164
0.00445722
0.00448194
0.00450581
0.00452882
0.00455096
0.00457221
0.00459259
0.00461207
0.00463066
0.00464835
0.00466514
0.00468101
0.00469597
0.00471
0.0047231
0.00473527
0.00474651
0.00475682
0.00476619
0.0047746
0.00478207
0.00478859
0.00479416
0.0047988
0.00480246
0.00480517
0.00480692
0.00480772
0.00480757
0.00480647
0.00480443
0.00480144
0.00479752
0.00479267
0.00478689
0.00478019
0.00477259
0.00476409
0.0047547
0.00474443
0.00473329
0.00472129
0.00470845
0.00469476
0.00468024
0.00466489
0.0046487
0.00463168
0.0046138
0.00459508
0.00457551
0.00455512
0.00453395
0.00451202
0.00448936
0.00446602
0.00444202
0.00441738
0.00439214
0.00436634
0.00433998
0.0043131
0.00428573
0.00425789
0.00422962
0.00420092
0.00417184
0.0041424
0.00411263
0.00408255
0.0040522
0.00402159
0.00399078
0.00395978
0.00392862
0.00389735
0.00386599
0.00383457
0.00380313
0.00377165
0.00374012
0.00370839
0.00367619
0.00364298
0.0036084
1.52049e-05
0.000109954
0.000234787
0.000342994
0.00043031
0.000500339
0.000557434
0.000605388
0.000647247
0.000685354
0.000721461
0.000756833
0.000792354
0.000828612
0.000865978
0.000904667
0.000944782
0.00098635
0.00102935
0.00107372
0.00111939
0.00116627
0.00121426
0.00126327
0.0013132
0.00136396
0.00141547
0.00146763
0.00152036
0.0015736
0.00162728
0.00168132
0.00173568
0.00179031
0.00184515
0.00190016
0.0019553
0.00201054
0.00206584
0.00212118
0.00217653
0.00223187
0.00228717
0.0023424
0.00239756
0.00245263
0.00250757
0.00256238
0.00261703
0.0026715
0.00272578
0.00277985
0.00283368
0.00288725
0.00294054
0.00299353
0.00304618
0.00309849
0.00315041
0.00320193
0.00325302
0.00330365
0.00335379
0.00340343
0.00345253
0.00350107
0.00354903
0.00359638
0.00364311
0.0036892
0.00373462
0.00377935
0.00382341
0.00386682
0.0039096
0.00395175
0.00399326
0.00403414
0.00407438
0.00411396
0.00415287
0.00419111
0.00422865
0.00426549
0.0043016
0.00433697
0.0043716
0.00440546
0.00443854
0.00447083
0.00450232
0.00453299
0.00456285
0.00459187
0.00462004
0.00464736
0.00467382
0.0046994
0.00472409
0.00474788
0.00477078
0.00479276
0.00481383
0.00483399
0.00485322
0.00487152
0.00488888
0.00490529
0.00492074
0.00493523
0.00494877
0.00496135
0.00497297
0.00498362
0.00499328
0.00500195
0.00500964
0.00501635
0.00502209
0.00502683
0.00503058
0.00503334
0.00503513
0.00503592
0.00503574
0.00503457
0.00503244
0.00502933
0.00502525
0.00502022
0.00501424
0.00500731
0.00499945
0.00499067
0.00498097
0.00497036
0.00495886
0.00494648
0.00493322
0.00491909
0.0049041
0.00488826
0.00487155
0.00485399
0.00483558
0.00481633
0.00479625
0.00477537
0.00475371
0.0047313
0.00470817
0.00468435
0.00465987
0.00463475
0.00460902
0.0045827
0.00455583
0.00452843
0.00450052
0.00447214
0.00444331
0.00441405
0.0043844
0.00435438
0.00432402
0.00429336
0.00426242
0.00423124
0.00419985
0.0041683
0.00413662
0.00410485
0.00407303
0.00404122
0.00400942
0.00397765
0.00394581
0.00391371
0.00388098
0.00384738
1.55276e-05
0.000107654
0.000233777
0.000346099
0.000438609
0.000514077
0.000576457
0.000629345
0.000675693
0.000717817
0.000757474
0.000795964
0.000834214
0.000872866
0.000912341
0.0009529
0.000994685
0.00103776
0.00108212
0.00112773
0.00117454
0.00122247
0.00127143
0.00132135
0.00137212
0.00142368
0.00147592
0.00152878
0.00158218
0.00163606
0.00169034
0.00174497
0.00179989
0.00185507
0.00191044
0.00196599
0.00202167
0.00207744
0.00213329
0.00218919
0.00224511
0.00230104
0.00235695
0.00241283
0.00246866
0.00252443
0.00258011
0.00263569
0.00269116
0.00274649
0.00280167
0.00285668
0.00291149
0.00296609
0.00302045
0.00307455
0.00312836
0.00318186
0.00323501
0.0032878
0.00334018
0.00339214
0.00344364
0.00349465
0.00354515
0.00359511
0.00364451
0.00369331
0.0037415
0.00378907
0.00383598
0.00388225
0.00392791
0.00397296
0.00401741
0.00406124
0.00410447
0.00414707
0.00418905
0.00423038
0.00427105
0.00431104
0.00435035
0.00438895
0.00442682
0.00446396
0.00450034
0.00453594
0.00457077
0.00460479
0.00463801
0.0046704
0.00470195
0.00473266
0.00476251
0.0047915
0.00481961
0.00484682
0.00487313
0.00489852
0.00492298
0.00494652
0.00496913
0.00499079
0.00501152
0.0050313
0.00505012
0.00506795
0.0050848
0.00510068
0.00511556
0.00512947
0.00514238
0.0051543
0.0051652
0.00517511
0.00518401
0.00519189
0.00519878
0.00520464
0.0052095
0.00521334
0.00521618
0.005218
0.00521882
0.00521863
0.00521744
0.00521525
0.00521208
0.00520791
0.00520277
0.00519666
0.00518959
0.00518156
0.00517259
0.00516269
0.00515186
0.00514012
0.00512748
0.00511394
0.00509952
0.00508422
0.00506805
0.00505101
0.00503311
0.00501436
0.00499478
0.00497438
0.0049532
0.00493124
0.00490854
0.00488512
0.00486102
0.00483624
0.00481083
0.0047848
0.00475818
0.004731
0.00470329
0.00467506
0.00464636
0.00461719
0.00458761
0.00455762
0.00452727
0.00449658
0.00446559
0.00443433
0.00440285
0.00437119
0.00433939
0.0043075
0.00427557
0.00424367
0.00421183
0.00418007
0.00414835
0.00411655
0.00408438
0.00405168
1.57393e-05
0.000104542
0.000230443
0.000345473
0.000442078
0.000522155
0.000589184
0.000646503
0.000696927
0.000742702
0.000785567
0.000826829
0.000867446
0.000908098
0.00094925
0.000991202
0.00103414
0.00107815
0.00112327
0.00116948
0.00121676
0.00126503
0.00131423
0.00136429
0.00141512
0.00146666
0.00151882
0.00157154
0.00162475
0.0016784
0.00173242
0.00178677
0.00184139
0.00189627
0.00195134
0.0020066
0.002062
0.00211753
0.00217317
0.00222889
0.00228468
0.00234053
0.00239642
0.00245234
0.00250827
0.0025642
0.00262011
0.002676
0.00273184
0.00278762
0.00284332
0.00289891
0.00295438
0.0030097
0.00306486
0.00311981
0.00317453
0.00322899
0.00328317
0.00333702
0.00339052
0.00344363
0.00349632
0.00354855
0.0036003
0.00365154
0.00370223
0.00375234
0.00380186
0.00385077