/*--------------------------------*- C++ -*----------------------------------*\
| =========                 |                                                 |
| \\      /  F ield         | OpenFOAM: The Open Source CFD Toolbox           |
|  \\    /   O peration     | Version:  2412                                  |
|   \\  /    A nd           | Website:  www.openfoam.com                      |
|    \\/     M anipulation  |                                                 |
\*---------------------------------------------------------------------------*/
FoamFile
{
    version     2.0;
    format      ascii;
    arch        "LSB;label=32;scalar=64";
    class       volScalarField;
    location    "0.15";
    object      p;
}
// * * * * * * * * * * * * * * * * * * * * * * * * * * * * * * * * * * * * * //

dimensions      [0 2 -2 0 0 0 0];

internalField   nonuniform List<scalar> 
12225
(
-10.3294
-9.73702
-9.07431
-8.51787
-8.00881
-7.55235
-7.15378
-6.80274
-6.49035
-6.21102
-5.95985
-5.73233
-5.52462
-5.33339
-5.15558
-4.98771
-4.82762
-4.66109
-10.7632
-9.7952
-9.10912
-8.55885
-8.0491
-7.5926
-7.19338
-6.84094
-6.52692
-6.24589
-5.99298
-5.76374
-5.55432
-5.36141
-5.18192
-5.0125
-4.85034
-4.69216
-10.9436
-9.82947
-9.15086
-8.60971
-8.0995
-7.64386
-7.24479
-6.89129
-6.57572
-6.2929
-6.03805
-5.80678
-5.59534
-5.40042
-5.21899
-5.04788
-4.88424
-4.72291
-10.9674
-9.84519
-9.17554
-8.64366
-8.13615
-7.68337
-7.28616
-6.93322
-6.61749
-6.33407
-6.07829
-5.84591
-5.63328
-5.43719
-5.25469
-5.08304
-4.91895
-4.76148
-10.8973
-9.8399
-9.17583
-8.65444
-8.15396
-7.70611
-7.31246
-6.96172
-6.64729
-6.36455
-6.10901
-5.8766
-5.66381
-5.46759
-5.28516
-5.11428
-4.95159
-4.80196
-10.7555
-9.80676
-9.15234
-8.64358
-8.15474
-7.71408
-7.32558
-6.97854
-6.66668
-6.38571
-6.13141
-5.89988
-5.68783
-5.4924
-5.31105
-5.14206
-4.98225
-4.84117
-10.5529
-9.74033
-9.1061
-8.6119
-8.13916
-7.70849
-7.32688
-6.98504
-6.67699
-6.39885
-6.1467
-5.91692
-5.70643
-5.51263
-5.33326
-5.16708
-5.01113
-4.87838
-10.3
-9.638
-9.03793
-8.55996
-8.10715
-7.68969
-7.31694
-6.98188
-6.67896
-6.40472
-6.15567
-5.9285
-5.7204
-5.52905
-5.35248
-5.18986
-5.03845
-4.91362
-10.0075
-9.49948
-8.94896
-8.4894
-8.05923
-7.65831
-7.29651
-6.96981
-6.67338
-6.40417
-6.15918
-5.9355
-5.73061
-5.5425
-5.36947
-5.21102
-5.06457
-4.94714
-9.68679
-9.32675
-8.84056
-8.40307
-7.9971
-7.61563
-7.26692
-6.95006
-6.6614
-6.39832
-6.15835
-5.939
-5.7381
-5.55395
-5.38512
-5.23131
-5.09006
-4.97939
-9.34992
-9.12459
-8.71436
-8.30454
-7.92371
-7.56391
-7.23026
-6.92454
-6.64473
-6.38875
-6.15464
-5.94038
-5.74417
-5.5646
-5.40047
-5.25166
-5.11559
-5.01124
-9.03795
-8.91884
-8.58465
-8.20639
-7.8495
-7.51105
-7.19287
-6.89836
-6.62741
-6.37864
-6.15053
-5.9415
-5.75008
-5.57513
-5.41563
-5.27158
-5.14005
-5.04136
-8.74298
-8.7045
-8.44614
-8.1042
-7.77152
-7.45507
-7.15364
-6.87115
-6.60954
-6.36844
-6.14675
-5.94331
-5.75701
-5.58691
-5.43219
-5.29285
-5.16628
-5.07098
-8.43596
-8.46011
-8.2806
-7.98474
-7.6808
-7.38991
-7.10921
-6.84177
-6.59152
-6.35964
-6.14569
-5.94895
-5.76868
-5.60424
-5.45497
-5.32088
-5.19968
-5.10693
-8.13894
-8.20595
-8.09809
-7.85411
-7.58262
-7.31931
-7.06257
-6.81349
-6.57707
-6.35623
-6.1515
-5.96264
-5.78931
-5.63118
-5.4878
-5.3592
-5.24329
-5.1527
-7.88064
-7.97399
-7.92378
-7.73085
-7.4927
-7.25576
-7.02279
-6.79325
-6.57197
-6.36333
-6.16892
-5.98895
-5.82336
-5.67209
-5.53485
-5.41174
-5.30083
-5.21183
-7.6932
-7.80129
-7.79258
-7.64375
-7.437
-7.22345
-7.01101
-6.79888
-6.59126
-6.3934
-6.20798
-6.03571
-5.87676
-5.73126
-5.59895
-5.47987
-5.37239
-5.28253
-7.61688
-7.7292
-7.74171
-7.62008
-7.43512
-7.23821
-7.0404
-6.84119
-6.64412
-6.45466
-6.27607
-6.10941
-5.95487
-5.81247
-5.68214
-5.56364
-5.45596
-5.3604
-7.71655
-7.82358
-7.82993
-7.70329
-7.5151
-7.31639
-7.11778
-6.91858
-6.72219
-6.53383
-6.35653
-6.19112
-6.03758
-5.89571
-5.76518
-5.64532
-5.53583
-5.43359
-7.99308
-8.0875
-8.05409
-7.88255
-7.661
-7.43832
-7.21998
-7.00468
-6.79639
-6.59965
-6.41634
-6.24649
-6.08965
-5.94524
-5.81257
-5.69054
-5.5789
-5.47199
-8.38665
-8.44477
-8.3424
-8.10799
-7.84369
-7.58877
-7.34269
-7.10495
-6.87993
-6.67072
-6.47778
-6.30042
-6.13776
-5.98888
-5.85278
-5.72823
-5.61482
-5.50658
-8.88716
-8.8669
-8.65871
-8.34894
-8.03693
-7.74297
-7.46333
-7.19988
-6.95611
-6.73278
-6.5289
-6.34308
-6.17396
-6.02013
-5.88025
-5.75291
-5.63732
-5.52779
-9.45127
-9.29569
-8.9518
-8.56895
-8.21235
-7.87886
-7.5669
-7.28031
-7.0198
-6.78361
-6.5697
-6.37613
-6.201
-6.04249
-5.89894
-5.76877
-5.65092
-5.5403
-10.0157
-9.66974
-9.18665
-8.74887
-8.35496
-7.98546
-7.64607
-7.34043
-7.06568
-6.81833
-6.59575
-6.39549
-6.21516
-6.05256
-5.90579
-5.77309
-5.65319
-5.54167
-10.5198
-9.95128
-9.35564
-8.88384
-8.45728
-8.05682
-7.69603
-7.37558
-7.08949
-6.83336
-6.60411
-6.39875
-6.21448
-6.04882
-5.89964
-5.76506
-5.64366
-5.53166
-10.9213
-10.1289
-9.4624
-8.97028
-8.51517
-8.09127
-7.71557
-7.38454
-7.0903
-6.82802
-6.5942
-6.38542
-6.19855
-6.03091
-5.88023
-5.74451
-5.62222
-5.51018
-11.1926
-10.2124
-9.51263
-9.00595
-8.5296
-8.09082
-7.70562
-7.36762
-7.06821
-6.80222
-6.56576
-6.35512
-6.16696
-5.99844
-5.84718
-5.71111
-5.58862
-5.47709
-11.2999
-10.2278
-9.51328
-8.99022
-8.50184
-8.05552
-7.66472
-7.32293
-7.02118
-6.75383
-6.51668
-6.30584
-6.11781
-5.94964
-5.79888
-5.66339
-5.54151
-5.43117
-11.1672
-10.198
-9.47826
-8.93259
-8.43929
-7.99064
-7.5975
-7.25486
-6.95344
-6.68699
-6.45107
-6.24167
-6.05518
-5.88859
-5.73938
-5.60541
-5.4849
-5.37613
-10.6361
-10.1057
-9.43568
-8.87568
-8.38063
-7.93173
-7.53814
-7.19613
-6.89605
-6.63114
-6.39684
-6.18909
-6.00423
-5.8392
-5.69147
-5.5589
-5.43962
-5.33183
-4.72187
-4.72164
-4.72291
-4.72534
-4.7282
-4.73112
-4.73411
-4.73731
-4.74078
-4.74461
-4.74893
-4.75383
-4.75943
-4.76583
-4.77313
-4.78144
-4.79089
-4.80158
-4.81362
-4.82711
-4.84213
-4.85872
-4.87692
-4.89671
-4.91806
-4.94089
-4.96512
-4.99062
-5.01723
-5.04473
-5.07287
-5.10145
-5.13028
-5.15916
-5.18791
-5.21634
-5.24428
-5.27155
-5.298
-5.32346
-5.34779
-5.37085
-5.39249
-5.41258
-5.431
-5.44761
-5.4623
-5.47494
-5.48541
-5.49361
-5.49941
-5.5027
-5.50337
-5.50133
-5.49646
-5.48867
-5.47786
-5.46393
-5.44681
-5.42641
-5.40264
-5.37544
-5.34474
-5.31048
-5.2726
-5.23106
-5.18582
-5.13684
-5.0841
-5.02758
-4.9673
-4.9033
-4.83565
-4.76426
-4.68912
-4.60992
-4.52681
-4.4399
-4.34927
-4.25495
-4.15701
-4.05549
-3.95045
-3.84194
-3.73003
-3.61479
-3.49629
-3.37461
-3.24984
-3.12206
-2.99136
-2.85785
-2.72163
-2.5828
-2.44147
-2.29776
-2.15177
-2.00364
-1.85349
-1.70143
-1.5476
-1.39213
-1.23515
-1.07679
-0.917198
-0.756505
-0.594852
-0.43238
-0.269232
-0.105549
0.0585252
0.222846
0.387271
0.551657
0.715859
0.879737
1.04315
1.20596
1.36802
1.5292
1.68937
1.8484
2.00615
2.16251
2.31734
2.47055
2.622
2.77159
2.91921
3.06478
3.20819
3.34935
3.48818
3.62461
3.75856
3.88997
4.01877
4.14493
4.26839
4.38912
4.5071
4.62231
4.73473
4.84432
4.95101
5.05475
5.15554
5.25342
5.34841
5.44055
5.52984
5.61633
5.70003
5.78097
5.85919
5.93471
6.00757
6.0778
6.14545
6.21054
6.27312
6.33323
6.3909
6.44617
6.49909
6.54968
6.59801
6.64412
6.68807
6.72992
6.76979
6.80779
6.84414
6.87912
6.91325
6.9474
6.98354
7.02495
7.08376
7.16048
-4.72113
-4.72174
-4.72313
-4.72517
-4.72722
-4.7289
-4.73021
-4.73139
-4.73283
-4.73478
-4.7374
-4.74074
-4.74486
-4.74984
-4.7558
-4.76287
-4.77118
-4.78087
-4.79208
-4.80491
-4.81945
-4.83576
-4.85384
-4.87368
-4.89521
-4.91831
-4.94286
-4.96869
-4.99561
-5.02339
-5.05181
-5.08066
-5.10973
-5.13884
-5.16779
-5.19639
-5.22449
-5.25191
-5.2785
-5.30411
-5.32861
-5.35185
-5.3737
-5.39403
-5.41272
-5.42964
-5.44468
-5.45771
-5.46863
-5.4773
-5.48363
-5.4875
-5.48879
-5.48741
-5.48325
-5.47621
-5.4662
-5.45311
-5.43686
-5.41737
-5.39456
-5.36836
-5.33869
-5.3055
-5.26874
-5.22834
-5.18428
-5.13652
-5.08502
-5.02977
-4.97072
-4.90787
-4.84117
-4.77055
-4.69581
-4.61747
-4.53547
-4.44978
-4.3604
-4.26737
-4.1707
-4.07046
-3.96669
-3.85945
-3.74879
-3.63479
-3.51751
-3.39704
-3.27346
-3.14685
-3.01731
-2.88493
-2.74982
-2.61207
-2.4718
-2.32911
-2.18413
-2.03698
-1.88776
-1.73662
-1.58367
-1.42905
-1.27288
-1.11531
-0.956459
-0.796476
-0.635496
-0.473661
-0.311111
-0.147989
0.0155628
0.179401
0.343382
0.507364
0.671203
0.834757
0.997887
1.16045
1.32231
1.48334
1.64339
1.80233
1.96004
2.1164
2.27128
2.42455
2.57612
2.72587
2.87368
3.01948
3.16315
3.30461
3.44377
3.58056
3.7149
3.84673
3.976
4.10264
4.22662
4.34789
4.46644
4.58224
4.69527
4.80548
4.91279
5.01719
5.11866
5.21725
5.31295
5.4058
5.49581
5.58302
5.66744
5.74911
5.82804
5.90429
5.97786
6.04881
6.11716
6.18295
6.24623
6.30701
6.36536
6.42129
6.47486
6.52611
6.57507
6.62182
6.6664
6.70889
6.74941
6.78809
6.82514
6.86091
6.89594
6.93111
6.96839
7.01
7.0668
7.13419
-4.71313
-4.716
-4.71877
-4.72128
-4.72303
-4.72402
-4.72459
-4.7251
-4.72588
-4.72717
-4.72913
-4.73189
-4.73556
-4.74029
-4.74618
-4.75339
-4.76203
-4.77221
-4.78402
-4.79752
-4.81275
-4.82969
-4.8483
-4.86853
-4.89026
-4.91337
-4.93772
-4.96316
-4.9895
-5.01656
-5.04416
-5.07211
-5.10025
-5.12839
-5.15637
-5.18404
-5.21123
-5.2378
-5.2636
-5.28849
-5.31235
-5.33503
-5.3564
-5.37635
-5.39474
-5.41145
-5.42637
-5.43936
-5.45032
-5.45913
-5.46567
-5.46982
-5.47149
-5.47055
-5.46691
-5.46046
-5.45111
-5.43875
-5.4233
-5.40466
-5.38277
-5.35754
-5.32891
-5.2968
-5.26116
-5.22194
-5.17909
-5.13257
-5.08235
-5.0284
-4.9707
-4.90919
-4.84385
-4.77471
-4.7017
-4.62493
-4.54445
-4.46027
-4.3724
-4.28089
-4.18575
-4.08704
-3.9848
-3.87908
-3.76994
-3.65745
-3.54168
-3.42269
-3.30058
-3.17543
-3.04732
-2.91635
-2.78263
-2.64625
-2.50732
-2.36595
-2.22225
-2.07634
-1.92835
-1.77839
-1.62659
-1.47308
-1.31799
-1.16145
-1.00359
-0.844562
-0.684493
-0.523524
-0.361796
-0.19945
-0.0366284
0.126527
0.289874
0.453269
0.616571
0.779639
0.942331
1.10451
1.26604
1.42677
1.58659
1.74535
1.90294
2.05921
2.21406
2.36736
2.519
2.66886
2.81685
2.96286
3.10679
3.24856
3.38807
3.52526
3.66004
3.79236
3.92214
4.04934
4.17391
4.2958
4.41499
4.53143
4.64511
4.75599
4.86406
4.96929
5.07165
5.17114
5.26777
5.36155
5.45251
5.54065
5.62601
5.70862
5.78849
5.86566
5.94017
6.01203
6.08129
6.14798
6.21214
6.2738
6.33301
6.38979
6.44419
6.49626
6.54604
6.59359
6.63897
6.68226
6.72359
6.7631
6.80102
6.83771
6.87373
6.90994
6.94823
6.98991
7.04431
7.09838
-4.69882
-4.70395
-4.7093
-4.71348
-4.71615
-4.71777
-4.71885
-4.71983
-4.72104
-4.72275
-4.72516
-4.72844
-4.73274
-4.7382
-4.74492
-4.75302
-4.76259
-4.77371
-4.7864
-4.8007
-4.81659
-4.83403
-4.85297
-4.87332
-4.89497
-4.91783
-4.94174
-4.96659
-4.99221
-5.01845
-5.04516
-5.07219
-5.09937
-5.12656
-5.15362
-5.18038
-5.20672
-5.23248
-5.25754
-5.28176
-5.30501
-5.32716
-5.34807
-5.36764
-5.38572
-5.4022
-5.41696
-5.42987
-5.44081
-5.44967
-5.45633
-5.46068
-5.4626
-5.46197
-5.45871
-5.45269
-5.44382
-5.432
-5.41713
-5.39914
-5.37793
-5.35343
-5.32556
-5.29426
-5.25947
-5.22112
-5.17918
-5.13359
-5.08432
-5.03133
-4.9746
-4.9141
-4.8498
-4.78171
-4.70986
-4.63428
-4.55498
-4.47199
-4.38533
-4.29502
-4.20109
-4.1036
-4.00257
-3.89807
-3.79015
-3.67887
-3.5643
-3.44651
-3.32558
-3.20161
-3.07466
-2.94485
-2.81225
-2.67699
-2.53915
-2.39886
-2.25621
-2.11134
-1.96435
-1.81537
-1.66452
-1.51193
-1.35773
-1.20205
-1.04503
-0.886799
-0.727494
-0.567253
-0.406218
-0.244528
-0.0823239
0.0802517
0.243058
0.405952
0.568794
0.731441
0.893755
1.0556
1.21683
1.37731
1.53692
1.69552
1.85298
2.00917
2.16398
2.31728
2.46896
2.61891
2.76703
2.9132
3.05734
3.19936
3.33916
3.47667
3.61181
3.74452
3.87472
4.00238
4.12743
4.24985
4.36958
4.48659
4.60084
4.71229
4.82094
4.9268
5.02983
5.13002
5.22737
5.32189
5.41359
5.50249
5.58861
5.67198
5.75262
5.83056
5.90582
5.97845
6.04846
6.1159
6.1808
6.2432
6.30313
6.36063
6.41574
6.46851
6.51898
6.56721
6.61327
6.65724
6.69924
6.73942
6.77803
6.8154
6.85207
6.8888
6.92719
6.9677
7.01765
7.0591
-4.68205
-4.6896
-4.69805
-4.70461
-4.70895
-4.7119
-4.71417
-4.71624
-4.7185
-4.72126
-4.72475
-4.72914
-4.7346
-4.74124
-4.74916
-4.75844
-4.76913
-4.78129
-4.79491
-4.81001
-4.82653
-4.84444
-4.86367
-4.88414
-4.90574
-4.92838
-4.95194
-4.9763
-5.00133
-5.02689
-5.05286
-5.0791
-5.10546
-5.13183
-5.15806
-5.18402
-5.20958
-5.2346
-5.25896
-5.28254
-5.30519
-5.3268
-5.34724
-5.36639
-5.38412
-5.40031
-5.41483
-5.42757
-5.4384
-5.4472
-5.45385
-5.45824
-5.46026
-5.45978
-5.45671
-5.45093
-5.44234
-5.43084
-5.41634
-5.39875
-5.37798
-5.35395
-5.32658
-5.29581
-5.26158
-5.22382
-5.18249
-5.13754
-5.08893
-5.03662
-4.98059
-4.92082
-4.8573
-4.79002
-4.71899
-4.64425
-4.56579
-4.48364
-4.39783
-4.30838
-4.21532
-4.11868
-4.01852
-3.91489
-3.80783
-3.69742
-3.58371
-3.46678
-3.34672
-3.22359
-3.09749
-2.9685
-2.83674
-2.70228
-2.56525
-2.42574
-2.28387
-2.13976
-1.99351
-1.84525
-1.69511
-1.54321
-1.38967
-1.23464
-1.07824
-0.920601
-0.761868
-0.602175
-0.441661
-0.280466
-0.11873
0.0434059
0.205801
0.368314
0.530803
0.693129
0.855152
1.01673
1.17774
1.33802
1.49747
1.65593
1.81328
1.96941
2.12418
2.27747
2.42918
2.57919
2.72739
2.87369
3.01798
3.16017
3.30018
3.43792
3.57332
3.70632
3.83685
3.96485
4.09027
4.21307
4.33319
4.45061
4.56526
4.67713
4.78619
4.89248
4.99596
5.09662
5.19447
5.28951
5.38174
5.47118
5.55785
5.64177
5.72297
5.80147
5.8773
5.95049
6.02107
6.08908
6.15454
6.2175
6.27798
6.33603
6.39169
6.44499
6.49599
6.54474
6.59131
6.63579
6.67828
6.71894
6.75799
6.79574
6.83267
6.86937
6.90707
6.94552
6.99053
7.0213
-4.66736
-4.67703
-4.68824
-4.69719
-4.70345
-4.70804
-4.7118
-4.71528
-4.71892
-4.72303
-4.72787
-4.73362
-4.74042
-4.74838
-4.75758
-4.76807
-4.77989
-4.79306
-4.80756
-4.82338
-4.84048
-4.8588
-4.87828
-4.89884
-4.92039
-4.94284
-4.96609
-4.99003
-5.01455
-5.03953
-5.06486
-5.09041
-5.11608
-5.14173
-5.16724
-5.1925
-5.21737
-5.24174
-5.26548
-5.28847
-5.31059
-5.33171
-5.3517
-5.37045
-5.38783
-5.40371
-5.41798
-5.43051
-5.44117
-5.44985
-5.45642
-5.46078
-5.46279
-5.46235
-5.45935
-5.45368
-5.44523
-5.4339
-5.4196
-5.40224
-5.38172
-5.35797
-5.3309
-5.30046
-5.26658
-5.22919
-5.18824
-5.1437
-5.09552
-5.04367
-4.98811
-4.92884
-4.86584
-4.79911
-4.72865
-4.65447
-4.57659
-4.49503
-4.4098
-4.32093
-4.22847
-4.13243
-4.03287
-3.92984
-3.82339
-3.71359
-3.60049
-3.48417
-3.36471
-3.24219
-3.1167
-2.98832
-2.85715
-2.72329
-2.58684
-2.44791
-2.30661
-2.16305
-2.01736
-1.86964
-1.72003
-1.56864
-1.41561
-1.26106
-1.10513
-0.947954
-0.78966
-0.630389
-0.470279
-0.309469
-0.148099
0.0136916
0.175762
0.337971
0.500179
0.662245
0.824031
0.985397
1.14621
1.30633
1.46563
1.62397
1.78123
1.93728
2.092
2.24528
2.39698
2.54702
2.69527
2.84163
2.98602
3.12832
3.26847
3.40638
3.54197
3.67517
3.80593
3.93417
4.05985
4.18291
4.30332
4.42102
4.53596
4.64812
4.7575
4.8641
4.96791
5.06892
5.16713
5.26254
5.35517
5.44501
5.5321
5.61644
5.69806
5.777
5.85326
5.92689
5.99791
6.06636
6.13226
6.19566
6.25658
6.31506
6.37115
6.42487
6.47629
6.52545
6.57242
6.61727
6.66012
6.7011
6.74041
6.77831
6.8152
6.85149
6.88805
6.92408
6.96451
6.98637
-4.65879
-4.66946
-4.68246
-4.69331
-4.70127
-4.7074
-4.71263
-4.71755
-4.72258
-4.72806
-4.73424
-4.7413
-4.74938
-4.75857
-4.76893
-4.7805
-4.7933
-4.80733
-4.82257
-4.839
-4.85656
-4.87522
-4.8949
-4.91553
-4.93703
-4.95933
-4.98233
-5.00593
-5.03004
-5.05456
-5.07938
-5.10439
-5.12949
-5.15457
-5.17951
-5.20419
-5.22851
-5.25234
-5.27557
-5.29808
-5.31974
-5.34043
-5.36004
-5.37844
-5.39549
-5.4111
-5.42511
-5.43742
-5.4479
-5.45643
-5.46288
-5.46714
-5.46908
-5.4686
-5.46558
-5.45992
-5.45149
-5.44021
-5.42598
-5.4087
-5.38828
-5.36465
-5.33773
-5.30745
-5.27373
-5.23653
-5.1958
-5.15148
-5.10353
-5.05194
-4.99666
-4.93769
-4.875
-4.80861
-4.73849
-4.66467
-4.58715
-4.50595
-4.42109
-4.33261
-4.24052
-4.14487
-4.04571
-3.94308
-3.83703
-3.72764
-3.61496
-3.49906
-3.38002
-3.25792
-3.13286
-3.0049
-2.87416
-2.74073
-2.60471
-2.4662
-2.32533
-2.18219
-2.0369
-1.8896
-1.74038
-1.58939
-1.43675
-1.28258
-1.12702
-0.970198
-0.812252
-0.653317
-0.493532
-0.333033
-0.171961
-0.0104547
0.151346
0.313301
0.475269
0.637112
0.79869
0.959866
1.1205
1.28047
1.43963
1.59785
1.75501
1.91098
2.06563
2.21886
2.37054
2.52056
2.66881
2.8152
2.95963
3.102
3.24223
3.38024
3.51595
3.64928
3.78018
3.90858
4.03443
4.15767
4.27827
4.39616
4.51131
4.6237
4.7333
4.84014
4.94419
5.04547
5.14395
5.23965
5.33257
5.42273
5.51013
5.5948
5.67676
5.75603
5.83264
5.90661
5.97799
6.04679
6.11304
6.17679
6.23807
6.2969
6.35334
6.40741
6.45916
6.50864
6.55592
6.60106
6.64416
6.68534
6.72476
6.76264
6.79927
6.83489
6.87008
6.90363
6.93998
6.95439
-4.65685
-4.66777
-4.6816
-4.69365
-4.70289
-4.7103
-4.71679
-4.72295
-4.72921
-4.73589
-4.74324
-4.75143
-4.76058
-4.77079
-4.7821
-4.79454
-4.80811
-4.82282
-4.83864
-4.85553
-4.87346
-4.89237
-4.9122
-4.93289
-4.95437
-4.97655
-4.99937
-5.02273
-5.04654
-5.07071
-5.09515
-5.11976
-5.14444
-5.16909
-5.19359
-5.21784
-5.24174
-5.26515
-5.28798
-5.31011
-5.33141
-5.35176
-5.37105
-5.38915
-5.40594
-5.42128
-5.43507
-5.44717
-5.45746
-5.46582
-5.47212
-5.47624
-5.47807
-5.47748
-5.47437
-5.46863
-5.46014
-5.4488
-5.43453
-5.41722
-5.39679
-5.37315
-5.34623
-5.31596
-5.28227
-5.24511
-5.20443
-5.16017
-5.11231
-5.06081
-5.00565
-4.9468
-4.88427
-4.81803
-4.74808
-4.67444
-4.59711
-4.5161
-4.43144
-4.34316
-4.25129
-4.15587
-4.05694
-3.95455
-3.84875
-3.73961
-3.62719
-3.51157
-3.39281
-3.27099
-3.14621
-3.01855
-2.88811
-2.75498
-2.61927
-2.48107
-2.3405
-2.19767
-2.0527
-1.9057
-1.75679
-1.60611
-1.45376
-1.29989
-1.14462
-0.988091
-0.830427
-0.671767
-0.512248
-0.352008
-0.191187
-0.0299223
0.131646
0.29338
0.455138
0.616781
0.77817
0.93917
1.09964
1.25946
1.41848
1.57657
1.73362
1.88949
2.04405
2.19721
2.34883
2.4988
2.64703
2.79341
2.93784
3.08023
3.22049
3.35854
3.4943
3.6277
3.75868
3.88717
4.01312
4.13647
4.25718
4.37521
4.4905
4.60304
4.71281
4.81982
4.92405
5.02551
5.1242
5.22011
5.31326
5.40364
5.49129
5.57621
5.65842
5.73796
5.81484
5.88909
5.96074
6.02983
6.09637
6.16041
6.22197
6.28109
6.33781
6.39216
6.44418
6.49392
6.54143
6.58677
6.63004
6.67132
6.71074
6.74846
6.78467
6.81947
6.85317
6.88427
6.91702
6.92522
-4.66136
-4.67186
-4.68564
-4.69814
-4.70814
-4.71642
-4.72385
-4.73097
-4.73819
-4.74581
-4.75407
-4.76313
-4.77311
-4.78408
-4.7961
-4.80918
-4.82333
-4.83853
-4.85477
-4.872
-4.89019
-4.90929
-4.92924
-4.94998
-4.97144
-4.99355
-5.01625
-5.03944
-5.06305
-5.08699
-5.11117
-5.1355
-5.15989
-5.18424
-5.20844
-5.23238
-5.25597
-5.2791
-5.30164
-5.32348
-5.34451
-5.36461
-5.38365
-5.40151
-5.41807
-5.4332
-5.44679
-5.45869
-5.46879
-5.47697
-5.48309
-5.48705
-5.48871
-5.48797
-5.4847
-5.47881
-5.47018
-5.4587
-5.4443
-5.42686
-5.4063
-5.38254
-5.35551
-5.32514
-5.29136
-5.25411
-5.21335
-5.16904
-5.12113
-5.0696
-5.01442
-4.95557
-4.89304
-4.82682
-4.75691
-4.6833
-4.60602
-4.52507
-4.44048
-4.35228
-4.2605
-4.16517
-4.06635
-3.96407
-3.85841
-3.74941
-3.63714
-3.52167
-3.40308
-3.28144
-3.15685
-3.02939
-2.89915
-2.76624
-2.63074
-2.49277
-2.35243
-2.20983
-2.06509
-1.91833
-1.76966
-1.61922
-1.46712
-1.31349
-1.15846
-1.00217
-0.84474
-0.686312
-0.527023
-0.367008
-0.206406
-0.0453566
0.116003
0.277535
0.439098
0.600553
0.761763
0.922591
1.0829
1.24256
1.40143
1.55939
1.71631
1.87206
2.02652
2.17958
2.33111
2.48102
2.62919
2.77551
2.9199
3.06226
3.2025
3.34055
3.47631
3.60973
3.74073
3.86926
3.99525
4.11866
4.23943
4.35752
4.4729
4.58553
4.69541
4.80254
4.90689
5.00849
5.10731
5.20338
5.29668
5.38724
5.47506
5.56017
5.64258
5.72232
5.79941
5.87388
5.94576
6.01507
6.08184
6.14611
6.20791
6.26727
6.32421
6.37878
6.43102
6.48096
6.52864
6.57413
6.61749
6.65878
6.69811
6.73556
6.77124
6.80511
6.8373
6.86606
6.89565
6.89867
-4.67119
-4.68079
-4.6938
-4.70609
-4.7163
-4.72502
-4.733
-4.74075
-4.74863
-4.75691
-4.76581
-4.77549
-4.78604
-4.79755
-4.81005
-4.82356
-4.83809
-4.85363
-4.87014
-4.8876
-4.90597
-4.9252
-4.94523
-4.96601
-4.98747
-5.00955
-5.03217
-5.05527
-5.07877
-5.10257
-5.1266
-5.15077
-5.17498
-5.19915
-5.22316
-5.24692
-5.27032
-5.29325
-5.3156
-5.33725
-5.35809
-5.378
-5.39686
-5.41454
-5.43091
-5.44586
-5.45925
-5.47096
-5.48087
-5.48885
-5.49478
-5.49853
-5.49999
-5.49904
-5.49557
-5.48946
-5.48061
-5.46892
-5.4543
-5.43664
-5.41587
-5.3919
-5.36467
-5.33409
-5.30012
-5.26269
-5.22175
-5.17728
-5.12922
-5.07755
-5.02225
-4.96329
-4.90067
-4.83436
-4.76437
-4.6907
-4.61336
-4.53237
-4.44775
-4.35953
-4.26774
-4.17242
-4.07361
-3.97137
-3.86575
-3.75681
-3.64461
-3.52922
-3.41073
-3.28921
-3.16474
-3.03741
-2.90731
-2.77454
-2.63921
-2.50141
-2.36124
-2.21883
-2.07428
-1.92772
-1.77925
-1.62901
-1.47712
-1.3237
-1.16888
-1.0128
-0.85558
-0.697364
-0.538284
-0.378477
-0.218081
-0.0572345
0.103925
0.265258
0.426626
0.587892
0.748918
0.909567
1.0697
1.2292
1.38791
1.54572
1.70249
1.8581
2.01244
2.16537
2.31679
2.46659
2.61466
2.7609
2.90521
3.0475
3.18769
3.32568
3.4614
3.59479
3.72577
3.85428
3.98027
4.10368
4.22446
4.34257
4.45798
4.57066
4.6806
4.78778
4.89222
4.99389
5.09281
5.18897
5.28238
5.37306
5.46101
5.54626
5.62882
5.70871
5.78597
5.86061
5.93266
6.00215
6.06911
6.13357
6.19556
6.2551
6.31224
6.36699
6.4194
6.46949
6.5173
6.56288
6.60627
6.64752
6.68668
6.72378
6.75885
6.79174
6.82242
6.849
6.87581
6.87452
-4.68475
-4.69313
-4.70486
-4.71638
-4.72631
-4.73506
-4.74325
-4.75131
-4.75956
-4.76823
-4.77753
-4.78758
-4.79848
-4.81031
-4.82311
-4.83689
-4.85165
-4.86738
-4.88406
-4.90166
-4.92014
-4.93945
-4.95954
-4.98035
-5.00183
-5.02391
-5.04652
-5.06959
-5.09304
-5.11679
-5.14076
-5.16486
-5.18899
-5.21307
-5.237
-5.26066
-5.28396
-5.30679
-5.32902
-5.35056
-5.37128
-5.39105
-5.40976
-5.42728
-5.4435
-5.45827
-5.47147
-5.48299
-5.49269
-5.50045
-5.50615
-5.50966
-5.51086
-5.50965
-5.50591
-5.49952
-5.49039
-5.47842
-5.4635
-5.44556
-5.42449
-5.40024
-5.37271
-5.34186
-5.30761
-5.26992
-5.22873
-5.18402
-5.13573
-5.08385
-5.02836
-4.96922
-4.90642
-4.83995
-4.76981
-4.696
-4.61853
-4.53743
-4.45271
-4.3644
-4.27254
-4.17717
-4.07833
-3.97606
-3.87043
-3.7615
-3.64933
-3.53398
-3.41555
-3.29409
-3.1697
-3.04247
-2.91249
-2.77984
-2.64464
-2.50698
-2.36697
-2.22472
-2.08034
-1.93395
-1.78567
-1.63561
-1.48391
-1.33069
-1.17608
-1.0202
-0.863188
-0.705182
-0.546312
-0.386716
-0.22653
-0.0658915
0.0950608
0.256188
0.417353
0.578419
0.739248
0.899704
1.05965
1.21896
1.37749
1.53512
1.69172
1.84717
2.00134
2.15413
2.3054
2.45506
2.603
2.74911
2.89331
3.03549
3.17557
3.31347
3.44911
3.58242
3.71333
3.84178
3.96771
4.09108
4.21182
4.32991
4.44531
4.55799
4.66794
4.77515
4.87961
4.98132
5.08028
5.1765
5.26998
5.36074
5.44878
5.53412
5.61678
5.69679
5.77417
5.84894
5.92113
5.99077
6.05788
6.12249
6.18463
6.24433
6.30162
6.35653
6.40907
6.45928
6.50718
6.55281
6.59619
6.63734
6.67627
6.71298
6.74739
6.77928
6.8085
6.83306
6.85742
6.85256
-4.70029
-4.70728
-4.7174
-4.72774
-4.737
-4.74544
-4.75353
-4.76162
-4.76998
-4.77882
-4.78829
-4.79853
-4.80961
-4.8216
-4.83455
-4.84845
-4.86333
-4.87916
-4.89593
-4.9136
-4.93214
-4.95151
-4.97165
-4.9925
-5.01402
-5.03613
-5.05876
-5.08185
-5.10532
-5.12908
-5.15306
-5.17716
-5.20129
-5.22536
-5.24927
-5.2729
-5.29617
-5.31894
-5.34111
-5.36257
-5.38319
-5.40285
-5.42143
-5.43881
-5.45485
-5.46943
-5.48243
-5.49372
-5.50318
-5.51068
-5.51609
-5.51931
-5.52021
-5.51868
-5.5146
-5.50788
-5.4984
-5.48607
-5.4708
-5.4525
-5.43108
-5.40647
-5.3786
-5.34741
-5.31283
-5.27482
-5.23333
-5.18833
-5.13977
-5.08764
-5.0319
-4.97252
-4.9095
-4.84281
-4.77248
-4.69848
-4.62085
-4.5396
-4.45475
-4.36633
-4.27437
-4.17892
-4.08001
-3.9777
-3.87205
-3.7631
-3.65094
-3.53562
-3.41723
-3.29583
-3.17152
-3.04438
-2.9145
-2.78197
-2.64689
-2.50938
-2.36952
-2.22743
-2.08323
-1.93702
-1.78893
-1.63907
-1.48757
-1.33456
-1.18015
-1.02449
-0.867699
-0.709915
-0.55127
-0.391899
-0.231939
-0.0715265
0.0891992
0.2501
0.41104
0.571881
0.732487
0.892722
1.05245
1.21154
1.36986
1.52729
1.68368
1.83893
1.99291
2.1455
2.29659
2.44608
2.59384
2.73979
2.88383
3.02586
3.16579
3.30356
3.43907
3.57225
3.70305
3.8314
3.95723
4.08051
4.20118
4.31921
4.43455
4.54719
4.65711
4.76429
4.86874
4.97045
5.06943
5.16566
5.25917
5.34997
5.43806
5.52346
5.6062
5.68629
5.76375
5.83862
5.91092
5.98067
6.0479
6.11264
6.17491
6.23475
6.29216
6.34719
6.39984
6.45014
6.49811
6.54375
6.58708
6.6281
6.66677
6.70303
6.73677
6.76766
6.79549
6.81821
6.8404
6.83259
-4.71618
-4.72172
-4.73004
-4.73891
-4.74722
-4.75508
-4.76282
-4.77072
-4.77899
-4.7878
-4.79729
-4.80756
-4.81869
-4.83073
-4.84372
-4.85767
-4.87259
-4.88845
-4.90526
-4.92297
-4.94155
-4.96095
-4.98114
-5.00204
-5.0236
-5.04576
-5.06845
-5.0916
-5.11512
-5.13894
-5.16297
-5.18711
-5.21128
-5.23538
-5.25929
-5.28293
-5.30617
-5.3289
-5.35102
-5.37239
-5.39291
-5.41244
-5.43086
-5.44805
-5.46389
-5.47824
-5.49098
-5.50199
-5.51115
-5.51832
-5.5234
-5.52626
-5.52679
-5.52487
-5.5204
-5.51328
-5.50339
-5.49066
-5.47498
-5.45627
-5.43445
-5.40945
-5.38119
-5.34962
-5.31469
-5.27633
-5.23451
-5.1892
-5.14036
-5.08795
-5.03194
-4.9723
-4.90904
-4.84213
-4.77158
-4.6974
-4.61959
-4.53818
-4.4532
-4.36466
-4.27261
-4.17708
-4.07812
-3.97578
-3.87011
-3.76117
-3.64903
-3.53376
-3.41543
-3.29411
-3.16989
-3.04286
-2.9131
-2.78071
-2.64579
-2.50844
-2.36876
-2.22686
-2.08285
-1.93685
-1.78897
-1.63933
-1.48806
-1.33528
-1.18111
-1.02569
-0.869152
-0.711619
-0.553228
-0.394113
-0.234412
-0.0742591
0.0862062
0.246847
0.407526
0.568107
0.728454
0.888432
1.04791
1.20674
1.36481
1.52199
1.67814
1.83315
1.98689
2.13925
2.29012
2.43938
2.58693
2.73267
2.8765
3.01833
3.15808
3.29566
3.431
3.56402
3.69466
3.82286
3.94856
4.07171
4.19226
4.31018
4.42543
4.53798
4.64783
4.75496
4.85936
4.96104
5.05998
5.1562
5.24971
5.34051
5.42862
5.51405
5.59683
5.67697
5.7545
5.82945
5.90182
5.97167
6.039
6.10384
6.16622
6.22616
6.28369
6.33881
6.39155
6.44193
6.48993
6.53557
6.57883
6.61968
6.65807
6.69388
6.72693
6.75685
6.78337
6.80441
6.82467
6.81444
-4.73094
-4.73506
-4.74153
-4.74879
-4.75595
-4.76302
-4.77022
-4.77776
-4.7858
-4.79445
-4.80384
-4.81405
-4.82514
-4.83716
-4.85013
-4.86407
-4.87898
-4.89485
-4.91166
-4.92939
-4.94799
-4.96742
-4.98764
-5.00859
-5.0302
-5.05242
-5.07517
-5.09837
-5.12195
-5.14582
-5.16989
-5.19408
-5.21827
-5.24237
-5.26628
-5.28988
-5.31306
-5.33571
-5.35771
-5.37895
-5.39929
-5.41862
-5.43682
-5.45375
-5.4693
-5.48334
-5.49575
-5.50641
-5.51518
-5.52196
-5.52662
-5.52906
-5.52915
-5.52679
-5.52188
-5.5143
-5.50397
-5.49079
-5.47467
-5.45553
-5.4333
-5.40789
-5.37924
-5.3473
-5.31201
-5.27332
-5.23119
-5.18559
-5.13647
-5.08379
-5.02752
-4.96764
-4.90415
-4.83704
-4.7663
-4.69195
-4.614
-4.53247
-4.44738
-4.35877
-4.26666
-4.17109
-4.07212
-3.96978
-3.86414
-3.75526
-3.64318
-3.528
-3.40977
-3.28857
-3.16449
-3.03761
-2.90802
-2.77582
-2.64109
-2.50394
-2.36448
-2.22282
-2.07905
-1.9333
-1.78568
-1.63631
-1.48531
-1.33281
-1.17892
-1.02379
-0.867544
-0.710307
-0.552215
-0.393402
-0.234003
-0.074156
0.0860034
0.246338
0.406711
0.566986
0.727028
0.886701
1.04587
1.20441
1.36218
1.51906
1.67492
1.82964
1.9831
2.13518
2.28577
2.43476
2.58205
2.72753
2.87112
3.01271
3.15222
3.28957
3.42469
3.5575
3.68794
3.81595
3.94146
4.06444
4.18483
4.3026
4.41772
4.53016
4.6399
4.74693
4.85125
4.95286
5.05174
5.14792
5.24139
5.33217
5.42027
5.50571
5.5885
5.66867
5.74624
5.82123
5.89367
5.96359
6.031
6.09593
6.1584
6.21844
6.27605
6.33127
6.38408
6.43451
6.48254
6.52816
6.57133
6.612
6.65009
6.68544
6.71782
6.74681
6.77211
6.79162
6.81015
6.79797
-4.74332
-4.74618
-4.75084
-4.75643
-4.76233
-4.76848
-4.77503
-4.7821
-4.78979
-4.7982
-4.80742
-4.81751
-4.8285
-4.84045
-4.85337
-4.86727
-4.88215
-4.898
-4.9148
-4.93251
-4.9511
-4.97054
-4.99076
-5.01171
-5.03334
-5.05556
-5.07832
-5.10153
-5.12511
-5.14897
-5.17301
-5.19715
-5.22128
-5.2453
-5.2691
-5.29256
-5.31558
-5.33804
-5.35982
-5.38081
-5.40087
-5.41989
-5.43775
-5.45433
-5.46949
-5.48313
-5.49511
-5.50533
-5.51365
-5.51996
-5.52415
-5.52611
-5.52573
-5.52289
-5.5175
-5.50946
-5.49867
-5.48504
-5.46849
-5.44893
-5.42629
-5.4005
-5.3715
-5.33922
-5.30362
-5.26465
-5.22227
-5.17642
-5.12706
-5.07415
-5.01766
-4.9576
-4.89393
-4.82667
-4.75581
-4.68136
-4.60333
-4.52174
-4.43662
-4.34799
-4.25589
-4.16036
-4.06144
-3.95919
-3.85365
-3.74488
-3.63294
-3.51791
-3.39986
-3.27886
-3.15498
-3.02833
-2.89898
-2.76702
-2.63256
-2.49569
-2.35651
-2.21514
-2.07168
-1.92624
-1.77894
-1.6299
-1.47923
-1.32707
-1.17353
-1.01875
-0.862851
-0.705968
-0.548233
-0.38978
-0.230742
-0.0712575
0.0885389
0.24851
0.40852
0.568433
0.728113
0.887427
1.04624
1.20442
1.36184
1.51837
1.67388
1.82826
1.98138
2.13313
2.28339
2.43207
2.57904
2.72421
2.8675
3.00879
3.14802
3.2851
3.41995
3.55251
3.6827
3.81047
3.93576
4.05852
4.17871
4.2963
4.41124
4.52352
4.63312
4.74003
4.84423
4.94573
5.04453
5.14063
5.23405
5.32478
5.41284
5.49826
5.58105
5.66122
5.73881
5.81384
5.88632
5.95629
6.02377
6.08877
6.15132
6.21144
6.26914
6.32443
6.37732
6.42779
6.47583
6.52142
6.5645
6.60499
6.64278
6.67767
6.70941
6.73753
6.76169
6.77983
6.79679
6.78307
-4.75292
-4.7546
-4.75754
-4.76146
-4.76602
-4.77116
-4.77695
-4.78345
-4.79072
-4.79882
-4.8078
-4.81771
-4.82857
-4.8404
-4.85322
-4.86703
-4.88181
-4.89756
-4.91426
-4.93187
-4.95036
-4.96968
-4.98978
-5.01061
-5.03211
-5.0542
-5.07682
-5.09988
-5.12329
-5.14697
-5.17082
-5.19474
-5.21864
-5.2424
-5.26591
-5.28906
-5.31175
-5.33385
-5.35525
-5.37583
-5.39547
-5.41404
-5.43144
-5.44753
-5.46221
-5.47534
-5.48682
-5.49652
-5.50433
-5.51013
-5.51381
-5.51527
-5.51439
-5.51107
-5.50521
-5.49672
-5.4855
-5.47146
-5.45452
-5.4346
-5.41163
-5.38553
-5.35625
-5.32373
-5.28792
-5.24877
-5.20621
-5.16018
-5.11066
-5.0576
-5.00099
-4.94083
-4.87709
-4.80978
-4.73889
-4.66444
-4.58643
-4.50489
-4.41984
-4.33131
-4.23933
-4.14394
-4.04519
-3.94312
-3.83778
-3.72924
-3.61755
-3.50278
-3.385
-3.26429
-3.14073
-3.01439
-2.88538
-2.75377
-2.61966
-2.48316
-2.34437
-2.20338
-2.06032
-1.91528
-1.76839
-1.61976
-1.46952
-1.31778
-1.16467
-1.01032
-0.854853
-0.698407
-0.54111
-0.383096
-0.224499
-0.0654544
0.0939017
0.253433
0.413005
0.57248
0.731725
0.890605
1.04899
1.20674
1.36374
1.51985
1.67495
1.82891
1.98163
2.13298
2.28285
2.43114
2.57773
2.72254