/*--------------------------------*- C++ -*----------------------------------*\
| =========                 |                                                 |
| \\      /  F ield         | OpenFOAM: The Open Source CFD Toolbox           |
|  \\    /   O peration     | Version:  2412                                  |
|   \\  /    A nd           | Website:  www.openfoam.com                      |
|    \\/     M anipulation  |                                                 |
\*---------------------------------------------------------------------------*/
FoamFile
{
    version     2.0;
    format      ascii;
    arch        "LSB;label=32;scalar=64";
    class       surfaceScalarField;
    location    "0.15";
    object      phi;
}
// * * * * * * * * * * * * * * * * * * * * * * * * * * * * * * * * * * * * * //

dimensions      [0 3 -1 0 0 0 0];

oriented        oriented;

internalField   nonuniform List<scalar> 
24170
(
1.36706e-07
-5.71619e-08
1.9562e-07
-5.89141e-08
2.57916e-07
-6.22956e-08
3.11668e-07
-5.37523e-08
3.61803e-07
-5.01351e-08
4.07909e-07
-4.61058e-08
4.49551e-07
-4.16417e-08
4.8707e-07
-3.75194e-08
5.20853e-07
-3.37829e-08
5.51237e-07
-3.03836e-08
5.78546e-07
-2.73088e-08
6.03071e-07
-2.45254e-08
6.25056e-07
-2.19846e-08
6.44676e-07
-1.962e-08
6.62068e-07
-1.73927e-08
6.7711e-07
-1.50412e-08
6.89822e-07
-1.27124e-08
-8.16056e-09
6.97983e-07
3.26112e-07
-1.24821e-07
3.94131e-07
-1.26933e-07
4.55884e-07
-1.24048e-07
5.14179e-07
-1.12048e-07
5.6767e-07
-1.03626e-07
6.16622e-07
-9.50577e-08
6.61258e-07
-8.62782e-08
7.01803e-07
-7.80642e-08
7.38553e-07
-7.05331e-08
7.71829e-07
-6.36593e-08
8.01936e-07
-5.74154e-08
8.29147e-07
-5.17368e-08
8.53695e-07
-4.65326e-08
8.75759e-07
-4.16843e-08
8.95454e-07
-3.70869e-08
9.12778e-07
-3.23654e-08
9.2782e-07
-2.77547e-08
-2.00288e-08
9.39688e-07
5.17244e-07
-1.7161e-07
5.79149e-07
-1.88839e-07
6.38207e-07
-1.83105e-07
6.95361e-07
-1.69202e-07
7.48169e-07
-1.56434e-07
7.96769e-07
-1.43658e-07
8.41408e-07
-1.30917e-07
8.8222e-07
-1.18876e-07
9.19421e-07
-1.07735e-07
9.53276e-07
-9.75142e-08
9.84045e-07
-8.81844e-08
1.01197e-06
-7.96603e-08
1.03726e-06
-7.18195e-08
1.06008e-06
-6.45047e-08
1.08054e-06
-5.7547e-08
1.09874e-06
-5.05689e-08
1.1145e-06
-4.35126e-08
-3.35268e-08
1.128e-06
7.43479e-07
-1.95419e-07
7.91918e-07
-2.37278e-07
8.43826e-07
-2.35013e-07
8.96355e-07
-2.21731e-07
9.46012e-07
-2.06092e-07
9.92286e-07
-1.89931e-07
1.03519e-06
-1.73823e-07
1.07473e-06
-1.58416e-07
1.11101e-06
-1.44017e-07
1.14422e-06
-1.30717e-07
1.17454e-06
-1.18504e-07
1.20217e-06
-1.07289e-07
1.22728e-06
-9.69329e-08
1.25003e-06
-8.72519e-08
1.27051e-06
-7.80333e-08
1.28885e-06
-6.89047e-08
1.30493e-06
-5.95947e-08
-4.79895e-08
1.31939e-06
1.01492e-06
-1.99873e-07
1.04731e-06
-2.6966e-07
1.08853e-06
-2.76235e-07
1.13339e-06
-2.66589e-07
1.17751e-06
-2.50215e-07
1.2195e-06
-2.31922e-07
1.25899e-06
-2.13309e-07
1.29577e-06
-1.95201e-07
1.32982e-06
-1.78066e-07
1.3612e-06
-1.62099e-07
1.39003e-06
-1.47331e-07
1.41643e-06
-1.33689e-07
1.44053e-06
-1.21034e-07
1.46245e-06
-1.09175e-07
1.4823e-06
-9.78784e-08
1.50018e-06
-8.6791e-08
1.51615e-06
-7.55634e-08
-6.27254e-08
1.53089e-06
1.33808e-06
-1.90513e-07
1.35426e-06
-2.85843e-07
1.38244e-06
-3.04415e-07
1.41695e-06
-3.01094e-07
1.45315e-06
-2.86415e-07
1.48881e-06
-2.67588e-07
1.52309e-06
-2.4759e-07
1.55555e-06
-2.27655e-07
1.58596e-06
-2.0848e-07
1.61427e-06
-1.90405e-07
1.64048e-06
-1.73538e-07
1.66464e-06
-1.57848e-07
1.68682e-06
-1.43217e-07
1.70711e-06
-1.29464e-07
1.72559e-06
-1.16359e-07
1.74239e-06
-1.03589e-07
1.75764e-06
-9.08156e-08
-7.70557e-08
1.77197e-06
1.71767e-06
-1.72902e-07
1.7193e-06
-2.87471e-07
1.73352e-06
-3.18642e-07
1.75571e-06
-3.23275e-07
1.78181e-06
-3.12525e-07
1.80914e-06
-2.94918e-07
1.8364e-06
-2.74844e-07
1.86287e-06
-2.54131e-07
1.88816e-06
-2.33768e-07
1.91204e-06
-2.14287e-07
1.93441e-06
-1.95907e-07
1.95523e-06
-1.78664e-07
1.9745e-06
-1.62484e-07
1.99225e-06
-1.47218e-07
2.00855e-06
-1.32662e-07
2.02352e-06
-1.18561e-07
2.03734e-06
-1.04631e-07
-9.02482e-08
2.05053e-06
2.15733e-06
-1.51545e-07
2.14717e-06
-2.77305e-07
2.14804e-06
-3.19512e-07
2.15703e-06
-3.32267e-07
2.17146e-06
-3.26951e-07
2.18871e-06
-3.12174e-07
2.20724e-06
-2.9337e-07
2.22612e-06
-2.73017e-07
2.24479e-06
-2.52431e-07
2.26286e-06
-2.32359e-07
2.28012e-06
-2.13163e-07
2.29642e-06
-1.94969e-07
2.31171e-06
-1.77769e-07
2.32595e-06
-1.61462e-07
2.33918e-06
-1.45895e-07
2.3515e-06
-1.30876e-07
2.36307e-06
-1.16202e-07
-1.01505e-07
2.37433e-06
2.66011e-06
-1.29467e-07
2.64126e-06
-2.58459e-07
2.63056e-06
-3.08808e-07
2.62678e-06
-3.28485e-07
2.62886e-06
-3.29032e-07
2.63489e-06
-3.18204e-07
2.64335e-06
-3.01834e-07
2.65326e-06
-2.82929e-07
2.66394e-06
-2.63105e-07
2.67489e-06
-2.43313e-07
2.6858e-06
-2.24066e-07
2.69643e-06
-2.05601e-07
2.70664e-06
-1.87986e-07
2.71637e-06
-1.71189e-07
2.72559e-06
-1.55117e-07
2.73436e-06
-1.39648e-07
2.74283e-06
-1.24666e-07
-1.09982e-07
2.7513e-06
3.22873e-06
-1.08342e-07
3.204e-06
-2.33721e-07
3.18406e-06
-2.88877e-07
3.16902e-06
-3.13443e-07
3.1592e-06
-3.19212e-07
3.15373e-06
-3.12728e-07
3.15144e-06
-2.99547e-07
3.15146e-06
-2.82949e-07
3.15311e-06
-2.64757e-07
3.15587e-06
-2.46074e-07
3.15935e-06
-2.27544e-07
3.16326e-06
-2.0951e-07
3.1674e-06
-1.92127e-07
3.17165e-06
-1.75435e-07
3.17594e-06
-1.59407e-07
3.18028e-06
-1.43992e-07
3.18477e-06
-1.29155e-07
-1.14826e-07
3.18961e-06
3.8657e-06
-8.90167e-08
3.83717e-06
-2.0519e-07
3.81024e-06
-2.61946e-07
3.78604e-06
-2.89245e-07
3.76575e-06
-2.98918e-07
3.74947e-06
-2.96447e-07
3.73659e-06
-2.86668e-07
3.7265e-06
-2.72853e-07
3.71865e-06
-2.56908e-07
3.71257e-06
-2.40002e-07
3.70789e-06
-2.22862e-07
3.7043e-06
-2.05914e-07
3.70156e-06
-1.89388e-07
3.69951e-06
-1.73391e-07
3.69807e-06
-1.57962e-07
3.69718e-06
-1.43108e-07
3.6969e-06
-1.2887e-07
-1.15245e-07
3.69732e-06
3.81123e-06
-7.33428e-08
3.78551e-06
-1.79474e-07
3.75882e-06
-2.35255e-07
3.73298e-06
-2.63402e-07
3.70929e-06
-2.75231e-07
3.68835e-06
-2.75503e-07
3.67005e-06
-2.6837e-07
3.65414e-06
-2.56941e-07
3.64033e-06
-2.431e-07
3.62834e-06
-2.28011e-07
3.6179e-06
-2.12421e-07
3.60878e-06
-1.96795e-07
3.6008e-06
-1.81405e-07
3.59381e-06
-1.66406e-07
3.58773e-06
-1.51876e-07
3.58249e-06
-1.37872e-07
3.57805e-06
-1.24428e-07
-1.11788e-07
3.57459e-06
5.03713e-06
-5.77101e-08
5.00706e-06
-1.49412e-07
4.9736e-06
-2.01789e-07
4.93951e-06
-2.2931e-07
4.9065e-06
-2.42225e-07
4.87572e-06
-2.44723e-07
4.84747e-06
-2.40119e-07
4.82172e-06
-2.31191e-07
4.79836e-06
-2.1974e-07
4.77722e-06
-2.06872e-07
4.7581e-06
-1.93305e-07
4.74082e-06
-1.79508e-07
4.72519e-06
-1.65779e-07
4.71108e-06
-1.52299e-07
4.69839e-06
-1.39181e-07
4.68703e-06
-1.26512e-07
4.67696e-06
-1.14354e-07
-1.03048e-07
4.66822e-06
6.66244e-06
-4.26743e-08
6.62912e-06
-1.16098e-07
6.58916e-06
-1.61828e-07
6.54669e-06
-1.86835e-07
6.50383e-06
-1.99372e-07
6.46226e-06
-2.03153e-07
6.42277e-06
-2.0063e-07
6.38563e-06
-1.94052e-07
6.35093e-06
-1.85041e-07
6.31867e-06
-1.74609e-07
6.28877e-06
-1.63404e-07
6.26112e-06
-1.51863e-07
6.23562e-06
-1.40277e-07
6.21216e-06
-1.28834e-07
6.19064e-06
-1.17661e-07
6.17098e-06
-1.06857e-07
6.15313e-06
-9.6503e-08
-8.69634e-08
6.13705e-06
8.79086e-06
-2.88709e-08
8.75645e-06
-8.16924e-08
8.71174e-06
-1.17116e-07
8.66206e-06
-1.37152e-07
8.61011e-06
-1.47422e-07
8.55801e-06
-1.51057e-07
8.50714e-06
-1.49757e-07
8.45817e-06
-1.45085e-07
8.41146e-06
-1.38325e-07
8.36718e-06
-1.30329e-07
8.32541e-06
-1.21637e-07
8.28616e-06
-1.12615e-07
8.2494e-06
-1.03518e-07
8.21509e-06
-9.4521e-08
8.18317e-06
-8.57428e-08
8.15359e-06
-7.72769e-08
8.12628e-06
-6.91916e-08
-6.18647e-08
8.10118e-06
1.15181e-05
-1.65961e-08
1.14847e-05
-4.83878e-08
1.14383e-05
-7.07075e-08
1.13845e-05
-8.33179e-08
1.13264e-05
-8.93291e-08
1.12664e-05
-9.1055e-08
1.12063e-05
-8.96395e-08
1.11472e-05
-8.59963e-08
1.10898e-05
-8.09563e-08
1.10346e-05
-7.51129e-08
1.09818e-05
-6.8841e-08
1.09316e-05
-6.23915e-08
1.0884e-05
-5.59437e-08
1.08391e-05
-4.96246e-08
1.07969e-05
-4.3529e-08
1.07574e-05
-3.77337e-08
1.07204e-05
-3.2266e-08
-2.75096e-08
1.06861e-05
1.48842e-05
-5.38845e-09
1.48525e-05
-1.66688e-08
1.48063e-05
-2.4476e-08
1.4751e-05
-2.80859e-08
1.46904e-05
-2.8661e-08
1.46267e-05
-2.737e-08
1.45619e-05
-2.48013e-08
1.44972e-05
-2.13515e-08
1.44337e-05
-1.74006e-08
1.43718e-05
-1.32422e-08
1.4312e-05
-9.06086e-09
1.42546e-05
-4.97451e-09
1.41997e-05
-1.0765e-09
1.41475e-05
2.59739e-09
1.4098e-05
5.98222e-09
1.40512e-05
9.03643e-09
1.40072e-05
1.17897e-08
1.38917e-08
1.39658e-05
1.8769e-05
6.28727e-09
1.87365e-05
1.58656e-08
1.86883e-05
2.37157e-08
1.86301e-05
3.01061e-08
1.85661e-05
3.53782e-08
1.84989e-05
3.97974e-08
1.84306e-05
4.35309e-08
1.83625e-05
4.6702e-08
1.82957e-05
4.94056e-08
1.82308e-05
5.17082e-08
1.8168e-05
5.36542e-08
1.81078e-05
5.52736e-08
1.80501e-05
5.65863e-08
1.79951e-05
5.76037e-08
1.79428e-05
5.83307e-08
1.78931e-05
5.87552e-08
1.78459e-05
5.8936e-08
5.86133e-08
1.78012e-05
2.26768e-05
1.70166e-08
2.26399e-05
5.28162e-08
2.25835e-05
8.01108e-08
2.25149e-05
9.86977e-08
2.24392e-05
1.11072e-07
2.23597e-05
1.19239e-07
2.2279e-05
1.24258e-07
2.21988e-05
1.26908e-07
2.21203e-05
1.27884e-07
2.20443e-05
1.2771e-07
2.19712e-05
1.26727e-07
2.19014e-05
1.25161e-07
2.18348e-05
1.23172e-07
2.17715e-05
1.20872e-07
2.17115e-05
1.1834e-07
2.16546e-05
1.15622e-07
2.16008e-05
1.12779e-07
1.09671e-07
2.15497e-05
1.5604e-05
3.26602e-08
1.55641e-05
9.26702e-08
1.55091e-05
1.35115e-07
1.54457e-05
1.6212e-07
1.53778e-05
1.78984e-07
1.53081e-05
1.88923e-07
1.52387e-05
1.93656e-07
1.51709e-05
1.94644e-07
1.51057e-05
1.93128e-07
1.50434e-05
1.89974e-07
1.49844e-05
1.85744e-07
1.49288e-05
1.80827e-07
1.48764e-05
1.75494e-07
1.48274e-05
1.69938e-07
1.47814e-05
1.64288e-07
1.47384e-05
1.58638e-07
1.46981e-05
1.53049e-07
1.47462e-07
1.46603e-05
1.23902e-05
5.12498e-08
1.23448e-05
1.38138e-07
1.22864e-05
1.93466e-07
1.22226e-05
2.25991e-07
1.21567e-05
2.44865e-07
1.20914e-05
2.54201e-07
1.20285e-05
2.56533e-07
1.1969e-05
2.54191e-07
1.19132e-05
2.48932e-07
1.18613e-05
2.41876e-07
1.18133e-05
2.33751e-07
1.1769e-05
2.25056e-07
1.17284e-05
2.16132e-07
1.16911e-05
2.07206e-07
1.1657e-05
1.98425e-07
1.16257e-05
1.89888e-07
1.15971e-05
1.8164e-07
1.73667e-07
1.15709e-05
9.55929e-06
7.5555e-08
9.50979e-06
1.87635e-07
9.45373e-06
2.49525e-07
9.39693e-06
2.82792e-07
9.34175e-06
3.00042e-07
9.29019e-06
3.05759e-07
9.2432e-06
3.03525e-07
9.20091e-06
2.96479e-07
9.16318e-06
2.86664e-07
9.12975e-06
2.75311e-07
9.10028e-06
2.63219e-07
9.07441e-06
2.50922e-07
9.05179e-06
2.38758e-07
9.03206e-06
2.26937e-07
9.0149e-06
2.15581e-07
9.00003e-06
2.04759e-07
8.98718e-06
1.94489e-07
1.84774e-07
8.97607e-06
7.18003e-06
1.04972e-07
7.13265e-06
2.35021e-07
7.08701e-06
2.95158e-07
7.04545e-06
3.24355e-07
7.00924e-06
3.36252e-07
6.97932e-06
3.35677e-07
6.95537e-06
3.27478e-07
6.93661e-06
3.15235e-07
6.92232e-06
3.00957e-07
6.91182e-06
2.85812e-07
6.9045e-06
2.70542e-07
6.89982e-06
2.556e-07
6.89733e-06
2.41246e-07
6.89665e-06
2.27616e-07
6.89747e-06
2.14768e-07
6.89951e-06
2.02719e-07
6.90255e-06
1.91446e-07
1.80945e-07
6.90638e-06
5.24556e-06
1.38128e-07
5.20787e-06
2.72714e-07
5.18044e-06
3.22582e-07
5.16164e-06
3.43159e-07
5.15139e-06
3.46505e-07
5.14863e-06
3.38436e-07
5.15153e-06
3.24572e-07
5.15861e-06
3.08163e-07
5.16875e-06
2.90818e-07
5.1811e-06
2.73458e-07
5.19501e-06
2.56634e-07
5.20997e-06
2.4064e-07
5.2256e-06
2.25611e-07
5.24163e-06
2.1159e-07
5.25783e-06
1.98566e-07
5.27405e-06
1.86499e-07
5.29016e-06
1.75333e-07
1.65054e-07
5.30605e-06
3.71461e-06
1.71648e-07
3.69607e-06
2.91252e-07
3.69443e-06
3.24223e-07
3.70436e-06
3.33229e-07
3.72345e-06
3.27419e-07
3.74844e-06
3.13449e-07
3.77675e-06
2.96253e-07
3.80686e-06
2.78058e-07
3.83775e-06
2.59923e-07
3.86876e-06
2.42455e-07
3.89941e-06
2.25979e-07
3.92942e-06
2.1063e-07
3.9586e-06
1.96435e-07
3.98683e-06
1.83361e-07
4.01405e-06
1.71347e-07
4.04023e-06
1.60316e-07
4.06537e-06
1.50191e-07
1.40957e-07
4.08947e-06
2.5354e-06
1.96847e-07
2.54625e-06
2.80403e-07
2.57487e-06
2.95601e-07
2.6142e-06
2.93902e-07
2.65966e-06
2.81954e-07
2.70727e-06
2.65836e-07
2.75501e-06
2.48518e-07
2.80186e-06
2.31204e-07
2.84725e-06
2.14542e-07
2.89082e-06
1.98884e-07
2.93242e-06
1.84379e-07
2.97199e-06
1.71054e-07
3.00956e-06
1.5887e-07
3.04517e-06
1.47752e-07
3.0789e-06
1.37615e-07
3.11084e-06
1.2837e-07
3.1411e-06
1.19934e-07
1.12307e-07
3.16975e-06
1.6547e-06
1.99259e-07
1.70057e-06
2.34533e-07
1.75708e-06
2.39084e-07
1.81983e-06
2.31156e-07
1.88379e-06
2.17998e-07
1.94599e-06
2.0363e-07
2.00558e-06
1.88933e-07
2.06217e-06
1.74606e-07
2.1156e-06
1.61115e-07
2.16585e-06
1.48639e-07
2.21301e-06
1.37219e-07
2.25723e-06
1.26832e-07
2.29869e-06
1.17411e-07
2.33756e-06
1.08874e-07
2.37404e-06
1.01135e-07
2.4083e-06
9.41114e-08
2.44051e-06
8.7724e-08
8.20105e-08
2.47081e-06
1.01827e-06
1.63847e-07
1.09488e-06
1.57925e-07
1.17024e-06
1.63723e-07
1.2467e-06
1.54702e-07
1.32009e-06
1.44603e-07
1.38907e-06
1.34647e-07
1.45371e-06
1.243e-07
1.51404e-06
1.1427e-07
1.57019e-06
1.0497e-07
1.62236e-06
9.64646e-08
1.67084e-06
8.87428e-08
1.7159e-06
8.17689e-08
1.75783e-06
7.54836e-08
1.79689e-06
6.98176e-08
1.83332e-06
6.47034e-08
1.86735e-06
6.008e-08
1.8992e-06
5.58682e-08
5.21435e-08
1.92907e-06
5.69237e-07
8.45265e-08
6.58982e-07
6.81796e-08
7.40764e-07
8.19415e-08
8.2086e-07
7.46055e-08
8.9586e-07
6.96032e-08
9.65413e-07
6.50938e-08
1.02984e-06
5.98782e-08
1.08934e-06
5.47628e-08
1.14421e-06
5.00973e-08
1.19481e-06
4.58708e-08
1.2415e-06
4.20541e-08
1.28464e-06
3.86266e-08
1.32457e-06
3.55545e-08
1.36159e-06
3.27978e-08
1.39597e-06
3.03185e-08
1.42797e-06
2.80878e-08
1.4578e-06
2.60337e-08
2.42049e-08
1.48574e-06
2.22451e-07
2.9063e-07
3.72572e-07
4.47177e-07
5.1678e-07
5.81874e-07
6.41752e-07
6.96515e-07
7.46612e-07
7.92483e-07
8.34537e-07
8.73164e-07
9.08718e-07
9.41516e-07
9.71835e-07
9.99922e-07
1.02596e-06
1.05016e-06
2.23611e-08
-2.23611e-08
4.81231e-08
-2.5762e-08
6.87883e-08
-2.06652e-08
8.20901e-08
-1.33018e-08
8.74296e-08
-5.33949e-09
8.51717e-08
2.25789e-09
7.64794e-08
8.6923e-09
6.28369e-08
1.36425e-08
4.55948e-08
1.7242e-08
2.56909e-08
1.9904e-08
3.61268e-09
2.20782e-08
-2.05382e-08
2.41509e-08
-4.68976e-08
2.63594e-08
-7.56717e-08
2.87741e-08
-1.0706e-07
3.13879e-08
-1.41204e-07
3.41446e-08
-1.78172e-07
3.69678e-08
-2.17948e-07
3.97759e-08
-2.60438e-07
4.24898e-08
-3.05474e-07
4.50367e-08
-3.52828e-07
4.73537e-08
-4.02218e-07
4.93903e-08
-4.53328e-07
5.111e-08
-5.05819e-07
5.24908e-08
-5.59344e-07
5.35251e-08
-6.13563e-07
5.42183e-08
-6.6815e-07
5.45871e-08
-7.22809e-07
5.46589e-08
-7.77282e-07
5.44738e-08
-8.31364e-07
5.4081e-08
-8.84886e-07
5.3522e-08
-9.37704e-07
5.28186e-08
-9.89697e-07
5.19932e-08
-1.04077e-06
5.10678e-08
-1.09083e-06
5.00627e-08
-1.13982e-06
4.89956e-08
-1.18771e-06
4.7882e-08
-1.23444e-06
4.67346e-08
-1.28e-06
4.55636e-08
-1.32438e-06
4.43769e-08
-1.36756e-06
4.31804e-08
-1.40954e-06
4.19783e-08
-1.45031e-06
4.07732e-08
-1.48988e-06
3.95668e-08
-1.52824e-06
3.83597e-08
-1.56539e-06
3.71519e-08
-1.60133e-06
3.5943e-08
-1.63607e-06
3.47322e-08
-1.66958e-06
3.35186e-08
-1.70189e-06
3.23012e-08
-1.73296e-06
3.1079e-08
-1.76282e-06
2.98511e-08
-1.79143e-06
2.86168e-08
-1.81881e-06
2.73753e-08
-1.84493e-06
2.61262e-08
-1.8698e-06
2.48691e-08
-1.89341e-06
2.36038e-08
-1.91574e-06
2.23301e-08
-1.93679e-06
2.10482e-08
-1.95654e-06
1.9758e-08
-1.975e-06
1.84596e-08
-1.99216e-06
1.71529e-08
-2.00799e-06
1.58379e-08
-2.02251e-06
1.45142e-08
-2.03569e-06
1.3181e-08
-2.04753e-06
1.18371e-08
-2.05801e-06
1.04802e-08
-2.06711e-06
9.1067e-09
-2.07483e-06
7.71264e-09
-2.08112e-06
6.29207e-09
-2.08595e-06
4.83652e-09
-2.08929e-06
3.33828e-09
-2.09109e-06
1.79801e-09
-2.09123e-06
1.41022e-10
-2.09005e-06
-1.18054e-09
-2.08762e-06
-2.43036e-09
-2.084e-06
-3.62543e-09
-2.07921e-06
-4.7873e-09
-2.07328e-06
-5.93147e-09
-2.06621e-06
-7.06407e-09
-2.05802e-06
-8.18756e-09
-2.04872e-06
-9.30258e-09
-2.03831e-06
-1.0409e-08
-2.02681e-06
-1.15063e-08
-2.01421e-06
-1.2594e-08
-2.00054e-06
-1.36714e-08
-1.9858e-06
-1.47379e-08
-1.97001e-06
-1.5793e-08
-1.95317e-06
-1.68361e-08
-1.93531e-06
-1.78665e-08
-1.91642e-06
-1.88839e-08
-1.89654e-06
-1.98877e-08
-1.87566e-06
-2.08775e-08
-1.85381e-06
-2.18529e-08
-1.83099e-06
-2.28133e-08
-1.80723e-06
-2.37585e-08
-1.78255e-06
-2.46879e-08
-1.75695e-06
-2.56012e-08
-1.73045e-06
-2.64979e-08
-1.70307e-06
-2.73777e-08
-1.67483e-06
-2.82401e-08
-1.64574e-06
-2.90848e-08
-1.61583e-06
-2.99113e-08
-1.58511e-06
-3.07193e-08
-1.55361e-06
-3.15082e-08
-1.52133e-06
-3.22778e-08
-1.4883e-06
-3.30274e-08
-1.45454e-06
-3.37567e-08
-1.42008e-06
-3.44651e-08
-1.38493e-06
-3.51521e-08
-1.34911e-06
-3.58173e-08
-1.31265e-06
-3.64601e-08
-1.27557e-06
-3.70801e-08
-1.23789e-06
-3.76767e-08
-1.19964e-06
-3.82493e-08
-1.16085e-06
-3.87975e-08
-1.12153e-06
-3.93207e-08
-1.08171e-06
-3.98185e-08
-1.04142e-06
-4.02903e-08
-1.00068e-06
-4.07356e-08
-9.59527e-07
-4.11541e-08
-9.17982e-07
-4.15451e-08
-8.76073e-07
-4.19085e-08
-8.3383e-07
-4.22436e-08
-7.91279e-07
-4.25503e-08
-7.48451e-07
-4.28281e-08
-7.05374e-07
-4.30768e-08
-6.62078e-07
-4.32962e-08
-6.18592e-07
-4.3486e-08
-5.74946e-07
-4.3646e-08
-5.3117e-07
-4.37761e-08
-4.87294e-07
-4.38761e-08
-4.43348e-07
-4.39458e-08
-3.99363e-07
-4.39851e-08
-3.55369e-07
-4.39937e-08
-3.11398e-07
-4.39713e-08
-2.67481e-07
-4.39173e-08
-2.2365e-07
-4.3831e-08
-1.79939e-07
-4.37113e-08
-1.36384e-07
-4.3555e-08
-9.30168e-08
-4.33668e-08
-4.98709e-08
-4.31459e-08
-6.98881e-09
-4.28821e-08
3.55942e-08
-4.2583e-08
7.78414e-08
-4.22473e-08
1.19728e-07
-4.18865e-08
1.61247e-07
-4.15191e-08
2.02394e-07
-4.11472e-08
2.43162e-07
-4.07682e-08
2.83542e-07
-4.03798e-08
3.23523e-07
-3.99807e-08
3.63093e-07
-3.95703e-08
4.02242e-07
-3.91487e-08
4.40959e-07
-3.87165e-08
4.79233e-07
-3.82744e-08
5.17056e-07
-3.78234e-08
5.54421e-07
-3.73643e-08
5.91319e-07
-3.68983e-08
6.27745e-07
-3.64264e-08
6.63695e-07
-3.59496e-08
6.99164e-07
-3.54686e-08
7.34148e-07
-3.49841e-08
7.68644e-07
-3.44963e-08
8.02649e-07
-3.4005e-08
8.36158e-07
-3.35092e-08
8.69165e-07
-3.30069e-08
9.0166e-07
-3.24948e-08
9.33627e-07
-3.19673e-08
9.65043e-07
-3.14157e-08
9.95869e-07
-3.08264e-08
1.02605e-06
-3.01783e-08
1.05549e-06
-2.9438e-08
1.08404e-06
-2.855e-08
1.11146e-06
-2.74206e-08
1.13732e-06
-2.58682e-08
1.16087e-06
-2.35423e-08
1.18033e-06
-1.94659e-08
1.19174e-06
-1.14078e-08
1.18212e-06
9.61776e-09
5.55902e-08
1.12653e-06
1.81586e-08
-4.05197e-08
2.59286e-08
-3.35321e-08
2.53686e-08
-2.01051e-08
1.89251e-08
-6.85837e-09
8.05648e-09
5.52917e-09
-6.49024e-09
1.68046e-08
-2.45839e-08
2.67859e-08
-4.63226e-08
3.53812e-08
-7.17775e-08
4.26969e-08
-1.00902e-07
4.90283e-08
-1.33561e-07
5.47375e-08
-1.69548e-07
6.01374e-08
-2.08617e-07
6.54291e-08
-2.50532e-07
7.06889e-08
-2.95039e-07
7.58953e-08
-3.41863e-07
8.09681e-08
-3.90695e-07
8.58001e-08
-4.412e-07
9.02805e-08
-4.93019e-07
9.43087e-08
-5.45785e-07
9.7803e-08
-5.99137e-07
1.00705e-07
-6.52729e-07
1.02982e-07
-7.06245e-07
1.04627e-07
-7.59406e-07
1.05652e-07
-8.11973e-07
1.06092e-07
-8.63751e-07
1.05996e-07
-9.14586e-07
1.05423e-07
-9.64366e-07
1.04439e-07
-1.01301e-06
1.03115e-07
-1.06044e-06
1.01518e-07
-1.10663e-06
9.97069e-08
-1.15154e-06
9.77266e-08
-1.19516e-06
9.56178e-08
-1.23751e-06
9.34149e-08
-1.27859e-06
9.11464e-08
-1.31843e-06
8.88354e-08
-1.35705e-06
8.64998e-08
-1.39447e-06
8.41533e-08
-1.43071e-06
8.18057e-08
-1.4658e-06
7.94635e-08
-1.49975e-06
7.71304e-08
-1.53258e-06
7.48082e-08
-1.5643e-06
7.2497e-08
-1.59493e-06
7.01958e-08
-1.62447e-06
6.79027e-08
-1.65294e-06
6.56153e-08
-1.68032e-06
6.33309e-08
-1.70664e-06
6.10469e-08
-1.73188e-06
5.87605e-08
-1.75605e-06
5.64692e-08
-1.77914e-06
5.41708e-08
-1.80115e-06
5.18634e-08
-1.82208e-06
4.95453e-08
-1.84192e-06
4.72152e-08
-1.86067e-06
4.48722e-08
-1.87831e-06
4.25157e-08
-1.89486e-06
4.01454e-08
-1.91029e-06
3.77612e-08
-1.9246e-06
3.53633e-08
-1.9378e-06
3.2952e-08
-1.94986e-06
3.05278e-08
-1.9608e-06
2.80913e-08
-1.97061e-06
2.5643e-08
-1.97928e-06
2.31835e-08
-1.98681e-06
2.07133e-08
-1.99321e-06
1.8233e-08
-1.99847e-06
1.5743e-08
-2.00261e-06
1.3244e-08
-2.00563e-06
1.07374e-08
-2.00756e-06
8.22598e-09
-2.00844e-06
5.71475e-09
-2.00832e-06
3.21412e-09
-2.00727e-06
7.53869e-10
-2.00545e-06
-1.67956e-09
-2.00262e-06
-4.01251e-09
-1.99874e-06
-6.31368e-09
-1.99377e-06
-8.59718e-09
-1.98769e-06
-1.08637e-08
-1.98051e-06
-1.31152e-08
-1.97222e-06
-1.53526e-08
-1.96283e-06
-1.75757e-08
-1.95235e-06
-1.97837e-08
-1.94078e-06
-2.19756e-08
-1.92814e-06
-2.41501e-08
-1.91443e-06
-2.6306e-08
-1.89966e-06
-2.84418e-08
-1.88384e-06
-3.05563e-08
-1.86698e-06
-3.26484e-08
-1.8491e-06
-3.47167e-08
-1.83021e-06
-3.67604e-08
-1.81031e-06
-3.87782e-08
-1.78943e-06
-4.07693e-08
-1.76758e-06
-4.27327e-08
-1.74476e-06
-4.46675e-08
-1.721e-06
-4.65728e-08
-1.69631e-06
-4.84478e-08
-1.67071e-06
-5.02916e-08
-1.64421e-06
-5.21034e-08
-1.61682e-06
-5.38824e-08
-1.58857e-06
-5.56276e-08
-1.55947e-06
-5.73384e-08
-1.52955e-06
-5.90138e-08
-1.4988e-06
-6.06531e-08
-1.46727e-06
-6.22554e-08
-1.43496e-06
-6.38199e-08
-1.40189e-06
-6.53456e-08
-1.36808e-06
-6.68317e-08
-1.33356e-06
-6.82771e-08
-1.29835e-06
-6.96808e-08
-1.26246e-06
-7.10419e-08
-1.22592e-06
-7.23594e-08
-1.18874e-06
-7.36323e-08
-1.15096e-06
-7.48595e-08
-1.1126e-06
-7.604e-08
-1.07368e-06
-7.71727e-08
-1.03422e-06
-7.82566e-08
-9.94248e-07
-7.92906e-08
-9.53792e-07
-8.02738e-08
-9.12877e-07
-8.12051e-08
-8.71529e-07
-8.20836e-08
-8.29775e-07
-8.29083e-08
-7.87642e-07
-8.36784e-08
-7.45157e-07
-8.43931e-08
-7.02349e-07
-8.50515e-08
-6.59247e-07
-8.5653e-08
-6.15878e-07
-8.61969e-08
-5.72272e-07
-8.66828e-08
-5.28458e-07
-8.711e-08
-4.84466e-07
-8.74782e-08
-4.40325e-07
-8.77869e-08
-3.96065e-07
-8.8036e-08
-3.51716e-07
-8.82251e-08
-3.07308e-07
-8.83539e-08
-2.62871e-07
-8.84222e-08
-2.18435e-07
-8.84295e-08
-1.74031e-07
-8.83754e-08
-1.29689e-07
-8.82588e-08
-8.54414e-08
-8.8079e-08
-4.13178e-08
-8.78348e-08
2.64995e-09
-8.75228e-08
4.6429e-08
-8.71459e-08
8.99874e-08
-8.67043e-08
1.33303e-07
-8.61976e-08
1.76352e-07
-8.56318e-08
2.19113e-07
-8.5009e-08
2.6157e-07
-8.43427e-08
3.03699e-07
-8.36487e-08
3.45484e-07
-8.29323e-08
3.8691e-07
-8.21935e-08
4.27961e-07
-8.14312e-08
4.68625e-07
-8.0645e-08
5.0889e-07
-7.98349e-08
5.48743e-07
-7.90018e-08
5.88174e-07
-7.81471e-08
6.27172e-07
-7.72725e-08
6.65728e-07
-7.63799e-08
7.03835e-07
-7.54715e-08
7.41487e-07
-7.45495e-08
7.78676e-07
-7.36159e-08
8.15399e-07
-7.26726e-08
8.51652e-07
-7.17214e-08
8.87431e-07
-7.07634e-08
9.22734e-07
-6.97992e-08
9.57557e-07
-6.88281e-08
9.91896e-07
-6.78485e-08
1.02575e-06
-6.68564e-08
1.0591e-06
-6.58449e-08
1.09193e-06
-6.4803e-08
1.12423e-06
-6.37135e-08
1.15595e-06
-6.25494e-08
1.18704e-06
-6.1269e-08
1.21741e-06
-5.98065e-08
1.24692e-06
-5.80544e-08
1.27533e-06
-5.58321e-08
1.30226e-06
-5.2805e-08
1.32707e-06
-4.83515e-08
1.34861e-06
-4.10068e-08
1.3653e-06
-2.80938e-08
1.3756e-06
-6.85705e-10
5.53805e-08
1.37581e-06
3.38773e-10
-4.08584e-08
-9.07451e-09
-2.41188e-08
-2.32062e-08
-5.97347e-09
-4.04019e-08
1.03374e-08
-6.01302e-08
2.52575e-08
-8.22644e-08
3.89388e-08
-1.06889e-07
5.14109e-08
-1.34195e-07
6.26871e-08
-1.64355e-07
7.28563e-08
-1.97421e-07
8.20948e-08
-2.33298e-07
9.06141e-08
-2.71755e-07
9.85947e-08
-3.12471e-07
1.06145e-07
-3.55075e-07
1.13293e-07
-3.99181e-07
1.20002e-07
-4.44408e-07
1.26195e-07
-4.90391e-07
1.31783e-07
-5.36791e-07
1.3668e-07
-5.83303e-07
1.40821e-07
-6.29662e-07
1.44163e-07
-6.75649e-07
1.46692e-07
-7.21087e-07
1.48421e-07
-7.65844e-07
1.49383e-07
-8.09825e-07
1.49633e-07
-8.52969e-07
1.49236e-07
-8.95242e-07
1.48269e-07
-9.36629e-07
1.4681e-07
-9.77128e-07
1.44937e-07
-1.01674e-06
1.42728e-07
-1.05547e-06
1.40251e-07
-1.09333e-06
1.37564e-07
-1.13032e-06
1.34719e-07
-1.16646e-06
1.31756e-07
-1.20176e-06
1.2871e-07
-1.23622e-06
1.25609e-07
-1.26986e-06
1.22474e-07
-1.30268e-06
1.1932e-07
-1.33468e-06
1.16158e-07
-1.36587e-06
1.12997e-07
-1.39625e-06
1.09841e-07
-1.42581e-06
1.06691e-07
-1.45455e-06
1.03547e-07
-1.48246e-06
1.00408e-07
-1.50954e-06
9.7271e-08
-1.53577e-06
9.41336e-08
-1.56114e-06
9.09918e-08
-1.58566e-06
8.78424e-08
-1.60929e-06
8.46816e-08
-1.63204e-06
8.15064e-08
-1.65388e-06
7.83138e-08
-1.67481e-06
7.51012e-08
-1.69481e-06
7.18665e-08
-1.71388e-06
6.86081e-08
-1.73199e-06
6.53249e-08
-1.74913e-06
6.20162e-08
-1.7653e-06
5.86817e-08
-1.78047e-06
5.53215e-08
-1.79465e-06
5.19362e-08
-1.80781e-06
4.85268e-08
-1.81995e-06
4.50944e-08
-1.83107e-06
4.16404e-08
-1.84114e-06
3.81666e-08
-1.85017e-06
3.46749e-08
-1.85816e-06
3.11674e-08
-1.86509e-06
2.76464e-08
-1.87097e-06
2.41145e-08
-1.8758e-06
2.05748e-08
-1.87959e-06
1.70309e-08
-1.88234e-06
1.34874e-08
-1.88406e-06
9.95026e-09
-1.88478e-06
6.42711e-09
-1.88449e-06
2.92801e-09
-1.8832e-06
-5.37171e-10
-1.88092e-06
-3.96256e-09
-1.87758e-06
-7.35285e-09
-1.87317e-06
-1.07216e-08
-1.86769e-06
-1.40743e-08
-1.86114e-06
-1.74122e-08
-1.85352e-06
-2.07345e-08
-1.84484e-06
-2.40397e-08
-1.83509e-06
-2.73262e-08
-1.82428e-06
-3.05918e-08
-1.81242e-06
-3.38347e-08
-1.79952e-06
-3.70525e-08
-1.78558e-06
-4.02433e-08
-1.77062e-06
-4.3405e-08
-1.75464e-06
-4.65357e-08
-1.73765e-06
-4.96335e-08
-1.71967e-06
-5.26968e-08
-1.70071e-06
-5.57236e-08
-1.68077e-06
-5.87127e-08
-1.65988e-06
-6.16624e-08
-1.63804e-06
-6.45713e-08
-1.61527e-06
-6.7438e-08
-1.59158e-06
-7.02613e-08
-1.56699e-06
-7.30399e-08
-1.54151e-06
-7.57723e-08
-1.51516e-06
-7.84575e-08
-1.48794e-06
-8.1094e-08
-1.45989e-06
-8.36807e-08
-1.43101e-06
-8.62163e-08
-1.40133e-06
-8.86994e-08
-1.37085e-06
-9.11289e-08
-1.3396e-06
-9.35035e-08
-1.3076e-06
-9.5822e-08
-1.27487e-06
-9.80828e-08
-1.24141e-06
-1.00285e-07
-1.20726e-06
-1.02426e-07
-1.17244e-06
-1.04506e-07
-1.13696e-06
-1.06522e-07
-1.10084e-06
-1.08473e-07
-1.06412e-06
-1.10358e-07
-1.0268e-06
-1.12175e-07
-9.88921e-07
-1.13922e-07
-9.50496e-07
-1.15598e-07
-9.1155e-07
-1.17202e-07
-8.7211e-07
-1.18731e-07
-8.32199e-07
-1.20185e-07
-7.91843e-07
-1.21561e-07
-7.51067e-07
-1.22859e-07
-7.09899e-07
-1.24077e-07
-6.68365e-07
-1.25213e-07
-6.26491e-07
-1.26266e-07
-5.84306e-07
-1.27236e-07
-5.41838e-07
-1.28122e-07
-4.99113e-07
-1.28921e-07
-4.56162e-07
-1.29634e-07
-4.13012e-07
-1.3026e-07
-3.69692e-07
-1.30798e-07
-3.26232e-07
-1.31247e-07
-2.8266e-07
-1.31608e-07
-2.39006e-07
-1.31879e-07
-1.95299e-07
-1.32061e-07
-1.51568e-07
-1.32153e-07
-1.07843e-07
-1.32155e-07
-6.41525e-08
-1.32066e-07
-2.05263e-08
-1.31885e-07
2.30062e-08
-1.31611e-07
6.64149e-08
-1.31244e-07
1.09672e-07
-1.3078e-07
1.52749e-07
-1.30223e-07
1.9562e-07
-1.29575e-07
2.38267e-07
-1.28844e-07
2.80675e-07
-1.2804e-07
3.22828e-07
-1.27163e-07
3.64705e-07
-1.26219e-07
4.06278e-07
-1.25222e-07
4.47524e-07
-1.24179e-07
4.88425e-07
-1.23094e-07
5.28963e-07
-1.2197e-07
5.69124e-07
-1.20806e-07
6.08894e-07
-1.19605e-07
6.48261e-07
-1.18369e-07
6.87214e-07
-1.171e-07
7.25742e-07
-1.15801e-07
7.63837e-07
-1.14475e-07
8.01491e-07
-1.13126e-07
8.38698e-07
-1.11756e-07
8.75452e-07
-1.1037e-07
9.11749e-07
-1.0897e-07
9.47586e-07
-1.07558e-07
9.82959e-07
-1.06136e-07
1.01787e-06
-1.04706e-07
1.0523e-06
-1.03266e-07
1.08627e-06
-1.01814e-07
1.11976e-06
-1.00343e-07
1.15276e-06
-9.88448e-08
1.18525e-06
-9.73019e-08
1.21723e-06
-9.56892e-08
1.24865e-06
-9.39672e-08
1.27945e-06
-9.20751e-08
1.30957e-06
-8.99179e-08
1.33885e-06
-8.73424e-08
1.36712e-06
-8.40955e-08
1.39404e-06
-7.97297e-08
1.41913e-06
-7.34434e-08
1.4417e-06
-6.35755e-08
1.46087e-06
-4.72617e-08
1.47718e-06
-1.69987e-08
3.83148e-08
1.49425e-06
-1.55725e-08
-2.5286e-08
-3.68574e-08
-2.83387e-09
-5.97382e-08
1.69074e-08
-8.39033e-08
3.45024e-08
-1.09345e-07
5.0699e-08
-1.36183e-07
6.57772e-08
-1.64583e-07
7.98106e-08
-1.94713e-07
9.28172e-08
-2.26688e-07
1.04831e-07
-2.60517e-07
1.15923e-07
-2.96083e-07
1.2618e-07
-3.33165e-07
1.35677e-07
-3.7147e-07
1.4445e-07
-4.10674e-07
1.52497e-07
-4.50454e-07
1.59782e-07
-4.90512e-07
1.66253e-07
-5.30587e-07
1.71857e-07
-5.70462e-07
1.76555e-07
-6.09968e-07
1.80327e-07
-6.48982e-07
1.83176e-07
-6.87419e-07
1.8513e-07
-7.25233e-07
1.86235e-07
-7.62403e-07
1.86553e-07
-7.98929e-07
1.86159e-07
-8.34825e-07
1.85132e-07
-8.70111e-07
1.83555e-07
-9.04809e-07
1.81508e-07
-9.3894e-07
1.79069e-07
-9.72521e-07
1.76308e-07
-1.00556e-06
1.7329e-07
-1.03806e-06
1.70068e-07
-1.07003e-06
1.66689e-07
-1.10147e-06
1.63191e-07
-1.13236e-06
1.59605e-07
-1.16271e-06
1.55956e-07
-1.1925e-06
1.52261e-07
-1.22171e-06
1.48536e-07
-1.25035e-06
1.44789e-07
-1.27837e-06
1.41027e-07
-1.30579e-06
1.37253e-07
-1.33256e-06
1.33467e-07
-1.35869e-06
1.2967e-07
-1.38414e-06
1.2586e-07
-1.4089e-06
1.22032e-07
-1.43295e-06
1.18185e-07
-1.45628e-06
1.14315e-07
-1.47885e-06
1.10418e-07
-1.50066e-06
1.0649e-07
-1.52168e-06
1.02529e-07
-1.5419e-06
9.85326e-08
-1.5613e-06
9.44975e-08
-1.57985e-06
9.04225e-08
-1.59755e-06
8.63063e-08
-1.61437e-06
8.21484e-08
-1.63031e-06
7.79487e-08
-1.64533e-06
7.37077e-08
-1.65944e-06
6.94263e-08
-1.67261e-06
6.5106e-08
-1.68483e-06
6.07487e-08
-1.69609e-06
5.63566e-08
-1.70638e-06
5.19324e-08
-1.7157e-06
4.74791e-08
-1.72402e-06
4.3e-08
-1.73135e-06
3.84986e-08
-1.73769e-06
3.39788e-08
-1.74302e-06
2.94449e-08
-1.74734e-06
2.49017e-08
-1.75067e-06
2.03541e-08
-1.75299e-06
1.5808e-08
-1.75431e-06
1.12695e-08
-1.75462e-06
6.74529e-09
-1.75394e-06
2.24201e-09
-1.75224e-06
-2.23559e-09
-1.74952e-06
-6.68524e-09
-1.74576e-06
-1.11108e-08
-1.74096e-06
-1.55183e-08
-1.73513e-06
-1.99095e-08
-1.72825e-06
-2.42843e-08
-1.72035e-06
-2.8641e-08
-1.71141e-06
-3.29772e-08
-1.70145e-06
-3.729e-08
-1.69046e-06
-4.15767e-08
-1.67846e-06
-4.58342e-08
-1.66546e-06
-5.00596e-08
-1.65145e-06
-5.42502e-08
-1.63645e-06
-5.84032e-08
-1.62047e-06
-6.25161e-08
-1.60352e-06
-6.65862e-08
-1.5856e-06
-7.06114e-08
-1.56674e-06
-7.45893e-08
-1.54693e-06
-7.85178e-08
-1.5262e-06
-8.2395e-08
-1.50455e-06
-8.62189e-08
-1.482e-06
-8.99877e-08
-1.45856e-06
-9.36996e-08
-1.43425e-06
-9.73529e-08
-1.40908e-06
-1.00946e-07
-1.38306e-06
-1.04477e-07
-1.35621e-06
-1.07944e-07
-1.32854e-06
-1.11346e-07
-1.30008e-06
-1.1468e-07
-1.27083e-06
-1.17946e-07