/*--------------------------------*- C++ -*----------------------------------*\
| =========                 |                                                 |
| \\      /  F ield         | OpenFOAM: The Open Source CFD Toolbox           |
|  \\    /   O peration     | Version:  2412                                  |
|   \\  /    A nd           | Website:  www.openfoam.com                      |
|    \\/     M anipulation  |                                                 |
\*---------------------------------------------------------------------------*/
FoamFile
{
    version     2.0;
    format      ascii;
    arch        "LSB;label=32;scalar=64";
    class       volVectorField;
    location    "0.15";
    object      U;
}
// * * * * * * * * * * * * * * * * * * * * * * * * * * * * * * * * * * * * * //

dimensions      [0 1 -1 0 0 0 0];

internalField   nonuniform List<vector> 
12225
(
(0.377183 -0.200896 0)
(0.543961 -0.0519266 0)
(0.711043 -0.0340139 0)
(0.893969 -0.0304759 0)
(1.05909 -0.0297459 0)
(1.20883 -0.0284512 0)
(1.34613 -0.0265167 0)
(1.47042 -0.0245737 0)
(1.58215 -0.0227641 0)
(1.6826 -0.0210713 0)
(1.77295 -0.0194925 0)
(1.85414 -0.0180198 0)
(1.92699 -0.0166315 0)
(1.9922 -0.0152861 0)
(2.0501 -0.0139603 0)
(2.10158 -0.0125039 0)
(2.14281 -0.0103655 0)
(2.19051 -0.0129009 0)
(0.933503 -0.0317782 0)
(1.0567 -0.0587093 0)
(1.23664 -0.0688986 0)
(1.42154 -0.0644824 0)
(1.5855 -0.0618096 0)
(1.73439 -0.0589627 0)
(1.87127 -0.0555599 0)
(1.99597 -0.0521717 0)
(2.10897 -0.0489287 0)
(2.21129 -0.0458382 0)
(2.30391 -0.0429144 0)
(2.38769 -0.0401434 0)
(2.46335 -0.037483 0)
(2.53151 -0.0348545 0)
(2.59258 -0.0321986 0)
(2.64693 -0.029072 0)
(2.69406 -0.0260947 0)
(2.7359 -0.0160554 0)
(1.39962 -0.0846816 0)
(1.49179 -0.105676 0)
(1.65465 -0.107234 0)
(1.82258 -0.101936 0)
(1.97265 -0.0979831 0)
(2.11034 -0.0936443 0)
(2.2377 -0.088731 0)
(2.35443 -0.0837863 0)
(2.46086 -0.0789828 0)
(2.55777 -0.0743668 0)
(2.64591 -0.069964 0)
(2.72596 -0.0657552 0)
(2.79855 -0.0616813 0)
(2.86419 -0.0576357 0)
(2.92328 -0.0534885 0)
(2.97604 -0.0488243 0)
(3.02267 -0.0436316 0)
(3.06242 -0.0341843 0)
(1.89741 -0.115424 0)
(1.94623 -0.143306 0)
(2.0752 -0.144978 0)
(2.21746 -0.140759 0)
(2.34795 -0.135769 0)
(2.46969 -0.130033 0)
(2.58347 -0.123681 0)
(2.6886 -0.117191 0)
(2.78516 -0.110801 0)
(2.87362 -0.104614 0)
(2.95448 -0.0986702 0)
(3.02825 -0.0929528 0)
(3.09539 -0.0873906 0)
(3.15633 -0.0818544 0)
(3.21141 -0.0761642 0)
(3.26079 -0.0699008 0)
(3.30502 -0.06278 0)
(3.3425 -0.051803 0)
(2.43108 -0.125829 0)
(2.4405 -0.169888 0)
(2.5288 -0.177405 0)
(2.64001 -0.176162 0)
(2.74678 -0.171217 0)
(2.84899 -0.164714 0)
(2.94611 -0.157358 0)
(3.03694 -0.149655 0)
(3.12117 -0.141937 0)
(3.19893 -0.134376 0)
(3.27048 -0.127046 0)
(3.3361 -0.119939 0)
(3.3961 -0.112986 0)
(3.45078 -0.106045 0)
(3.50043 -0.0989065 0)
(3.54517 -0.0911656 0)
(3.58582 -0.082389 0)
(3.6203 -0.0702995 0)
(2.99683 -0.123683 0)
(2.97697 -0.185365 0)
(3.02468 -0.201452 0)
(3.10201 -0.20494 0)
(3.18207 -0.201558 0)
(3.26193 -0.195237 0)
(3.33989 -0.187529 0)
(3.41416 -0.179134 0)
(3.48398 -0.170508 0)
(3.54915 -0.161919 0)
(3.60963 -0.153487 0)
(3.66549 -0.145233 0)
(3.71689 -0.137098 0)
(3.76397 -0.128944 0)
(3.80698 -0.120559 0)
(3.84597 -0.111572 0)
(3.88196 -0.10153 0)
(3.91238 -0.0888403 0)
(3.58832 -0.114507 0)
(3.55089 -0.190578 0)
(3.56319 -0.215883 0)
(3.60676 -0.225303 0)
(3.65871 -0.224987 0)
(3.71439 -0.219934 0)
(3.77135 -0.212655 0)
(3.82728 -0.204191 0)
(3.88101 -0.195174 0)
(3.93198 -0.185986 0)
(3.9799 -0.176817 0)
(4.02462 -0.167729 0)
(4.06612 -0.158691 0)
(4.10443 -0.149585 0)
(4.13968 -0.140217 0)
(4.1719 -0.130276 0)
(4.20218 -0.119367 0)
(4.22744 -0.106446 0)
(4.1988 -0.101765 0)
(4.15397 -0.187069 0)
(4.13917 -0.220694 0)
(4.15216 -0.236292 0)
(4.17665 -0.240116 0)
(4.20773 -0.237363 0)
(4.24276 -0.231326 0)
(4.27926 -0.223474 0)
(4.31573 -0.214641 0)
(4.35134 -0.205345 0)
(4.38554 -0.195864 0)
(4.41801 -0.186317 0)
(4.44855 -0.176712 0)
(4.47707 -0.166971 0)
(4.50362 -0.156935 0)
(4.52815 -0.146369 0)
(4.55175 -0.134975 0)
(4.57083 -0.122114 0)
(4.82185 -0.087807 0)
(4.77662 -0.176868 0)
(4.74389 -0.216829 0)
(4.73188 -0.237807 0)
(4.73175 -0.246097 0)
(4.73951 -0.246371 0)
(4.75298 -0.242287 0)
(4.76991 -0.235699 0)
(4.78869 -0.227637 0)
(4.80834 -0.218751 0)
(4.82815 -0.209419 0)
(4.84763 -0.19983 0)
(4.86647 -0.190043 0)
(4.88447 -0.180028 0)
(4.90156 -0.16968 0)
(4.91765 -0.158843 0)
(4.93377 -0.14733 0)
(4.9458 -0.134791 0)
(5.45146 -0.0741067 0)
(5.40949 -0.162001 0)
(5.36681 -0.205811 0)
(5.33651 -0.23062 0)
(5.31632 -0.242866 0)
(5.30379 -0.246376 0)
(5.29753 -0.244679 0)
(5.29592 -0.239851 0)
(5.29756 -0.233066 0)
(5.30143 -0.225078 0)
(5.3068 -0.216351 0)
(5.31311 -0.207144 0)
(5.31994 -0.197577 0)
(5.32703 -0.187673 0)
(5.33424 -0.177389 0)
(5.34139 -0.166645 0)
(5.34946 -0.155363 0)
(5.35384 -0.143389 0)
(6.08167 -0.0613916 0)
(6.0441 -0.14416 0)
(5.99712 -0.189299 0)
(5.95491 -0.216131 0)
(5.92002 -0.231207 0)
(5.89151 -0.237573 0)
(5.86876 -0.238281 0)
(5.85091 -0.235423 0)
(5.83701 -0.230232 0)
(5.82623 -0.223504 0)
(5.81791 -0.215759 0)
(5.81151 -0.207314 0)
(5.8066 -0.198341 0)
(5.80289 -0.188919 0)
(5.8002 -0.179062 0)
(5.79827 -0.168759 0)
(5.79805 -0.158028 0)
(5.79448 -0.146847 0)
(6.65461 -0.0505992 0)
(6.62054 -0.126184 0)
(6.57303 -0.170549 0)
(6.52475 -0.197722 0)
(6.4811 -0.214168 0)
(6.44226 -0.222413 0)
(6.40809 -0.224954 0)
(6.37834 -0.223761 0)
(6.35254 -0.220052 0)
(6.33015 -0.214609 0)
(6.3107 -0.20796 0)
(6.29373 -0.200447 0)
(6.27889 -0.192279 0)
(6.26589 -0.183572 0)
(6.25455 -0.174386 0)
(6.24458 -0.164762 0)
(6.23692 -0.154756 0)
(6.22612 -0.144543 0)
(7.20973 -0.0406511 0)
(7.18016 -0.107369 0)
(7.13446 -0.149568 0)
(7.0834 -0.176084 0)
(7.03442 -0.192907 0)
(6.98877 -0.202271 0)
(6.94654 -0.206136 0)
(6.9079 -0.206273 0)
(6.87281 -0.203857 0)
(6.84105 -0.199629 0)
(6.81233 -0.194092 0)
(6.78636 -0.187591 0)
(6.76288 -0.180351 0)
(6.74166 -0.172513 0)
(6.72255 -0.164169 0)
(6.70526 -0.155396 0)
(6.69069 -0.146264 0)
(6.67325 -0.137157 0)
(7.81811 -0.0310615 0)
(7.79338 -0.0861016 0)
(7.75172 -0.123801 0)
(7.70081 -0.148242 0)
(7.64923 -0.164263 0)
(7.5995 -0.173879 0)
(7.55193 -0.178515 0)
(7.50691 -0.179616 0)
(7.46472 -0.178265 0)
(7.42545 -0.175151 0)
(7.38901 -0.170734 0)
(7.35529 -0.165334 0)
(7.32415 -0.159174 0)
(7.29545 -0.152407 0)
(7.26911 -0.14514 0)
(7.24487 -0.137472 0)
(7.22359 -0.129494 0)
(7.19976 -0.121674 0)
(8.45855 -0.0222868 0)
(8.43892 -0.0637382 0)
(8.40341 -0.0942044 0)
(8.35608 -0.114605 0)
(8.30533 -0.128231 0)
(8.25479 -0.136823 0)
(8.20522 -0.141348 0)
(8.15708 -0.142808 0)
(8.11094 -0.142079 0)
(8.06711 -0.139763 0)
(8.0257 -0.136259 0)
(7.98673 -0.131849 0)
(7.95017 -0.126741 0)
(7.91598 -0.121084 0)
(7.88415 -0.114993 0)
(7.85447 -0.108568 0)
(7.82774 -0.101906 0)
(7.79887 -0.0954956 0)
(9.08866 -0.0143615 0)
(9.07382 -0.0417075 0)
(9.0456 -0.0627974 0)
(9.00495 -0.0771242 0)
(8.95895 -0.0865335 0)
(8.91165 -0.0923955 0)
(8.86416 -0.0954017 0)
(8.81702 -0.0961629 0)
(8.77091 -0.0952729 0)
(8.72638 -0.0931785 0)
(8.68371 -0.0901768 0)
(8.64303 -0.0864774 0)
(8.60443 -0.0822409 0)
(8.56792 -0.0775915 0)
(8.53357 -0.0726309 0)
(8.5012 -0.0674549 0)
(8.47157 -0.0621327 0)
(8.44033 -0.0571726 0)
(9.63295 -0.00706296 0)
(9.6217 -0.0206768 0)
(9.59987 -0.0313478 0)
(9.56659 -0.0383122 0)
(9.52746 -0.0423312 0)
(9.48643 -0.0442362 0)
(9.4447 -0.0444776 0)
(9.40273 -0.0433939 0)
(9.36109 -0.041328 0)
(9.32037 -0.0385633 0)
(9.28092 -0.0352951 0)
(9.24294 -0.0316608 0)
(9.20657 -0.0277681 0)
(9.17189 -0.0237082 0)
(9.13896 -0.0195541 0)
(9.10771 -0.0153866 0)
(9.07869 -0.0112199 0)
(9.0489 -0.00754845 0)
(9.96404 0.000118217 0)
(9.95459 0.000195242 0)
(9.93649 0.000675796 0)
(9.90812 0.00194257 0)
(9.87423 0.0039078 0)
(9.83859 0.00638023 0)
(9.80247 0.00925556 0)
(9.76622 0.0124622 0)
(9.7303 0.0159162 0)
(9.6952 0.0195366 0)
(9.66124 0.0232611 0)
(9.62856 0.0270397 0)
(9.59724 0.0308266 0)
(9.56731 0.0345731 0)
(9.5388 0.0382372 0)
(9.51167 0.0417548 0)
(9.48608 0.0451504 0)
(9.46102 0.0480082 0)
(9.87499 0.0074844 0)
(9.86688 0.0218307 0)
(9.84987 0.0342655 0)
(9.8225 0.0444863 0)
(9.7896 0.0529173 0)
(9.755 0.060041 0)
(9.71996 0.0661544 0)
(9.68487 0.0714728 0)
(9.65019 0.076193 0)
(9.61642 0.0804738 0)
(9.58388 0.084423 0)
(9.55272 0.0881086 0)
(9.52298 0.0915728 0)
(9.49469 0.0948388 0)
(9.46783 0.0979151 0)
(9.44241 0.100783 0)
(9.41815 0.103479 0)
(9.39611 0.105724 0)
(9.28437 0.0159287 0)
(9.27065 0.0462278 0)
(9.24579 0.0712322 0)
(9.20982 0.0904738 0)
(9.16899 0.105312 0)
(9.12729 0.11695 0)
(9.0858 0.126069 0)
(9.04494 0.133211 0)
(9.00523 0.138888 0)
(8.96718 0.143507 0)
(8.93104 0.147343 0)
(8.89691 0.150589 0)
(8.86477 0.153382 0)
(8.83461 0.155823 0)
(8.80634 0.157982 0)
(8.77994 0.159908 0)
(8.75491 0.16165 0)
(8.73327 0.163063 0)
(8.47101 0.0260993 0)
(8.45237 0.0738348 0)
(8.41971 0.110391 0)
(8.37627 0.136942 0)
(8.32998 0.156607 0)
(8.28457 0.171233 0)
(8.24074 0.181854 0)
(8.19882 0.189427 0)
(8.15927 0.194813 0)
(8.1224 0.198636 0)
(8.08824 0.201325 0)
(8.05672 0.203185 0)
(8.02774 0.204448 0)
(8.00113 0.205282 0)
(7.97675 0.205814 0)
(7.95447 0.206141 0)
(7.93378 0.206321 0)
(7.91671 0.206313 0)
(7.51239 0.0385311 0)
(7.4866 0.104526 0)
(7.44645 0.150265 0)
(7.39955 0.181408 0)
(7.35396 0.2034 0)
(7.31185 0.218539 0)
(7.27319 0.228353 0)
(7.23808 0.234381 0)
(7.20663 0.237836 0)
(7.17871 0.239518 0)
(7.15406 0.239969 0)
(7.13238 0.23958 0)
(7.11339 0.238636 0)
(7.09681 0.237338 0)
(7.08237 0.235831 0)
(7.06986 0.234221 0)
(7.05879 0.232565 0)
(7.05088 0.230885 0)
(6.48931 0.0542313 0)
(6.45656 0.136921 0)
(6.41295 0.186981 0)
(6.37064 0.218595 0)
(6.3349 0.239442 0)
(6.30529 0.252101 0)
(6.28108 0.258812 0)
(6.26186 0.261658 0)
(6.24706 0.262025 0)
(6.236 0.260769 0)
(6.22806 0.258469 0)
(6.22274 0.255539 0)
(6.21958 0.252263 0)
(6.21821 0.248832 0)
(6.21832 0.245374 0)
(6.21967 0.241981 0)
(6.22181 0.238695 0)
(6.22615 0.235574 0)
(5.45712 0.0733944 0)
(5.41829 0.166504 0)
(5.37869 0.21414 0)
(5.35278 0.241974 0)
(5.33865 0.258371 0)
(5.33248 0.266136 0)
(5.33273 0.268318 0)
(5.33812 0.267248 0)
(5.34727 0.26424 0)
(5.35909 0.26008 0)
(5.37282 0.255298 0)
(5.38787 0.250249 0)
(5.40379 0.245157 0)
(5.42025 0.240162 0)
(5.43698 0.235349 0)
(5.45383 0.230771 0)
(5.47045 0.22645 0)
(5.48799 0.222449 0)
(4.45282 0.0947808 0)
(4.41206 0.187422 0)
(4.39048 0.225952 0)
(4.39661 0.246419 0)
(4.4165 0.255949 0)
(4.44337 0.257857 0)
(4.47529 0.255614 0)
(4.51039 0.251233 0)
(4.54695 0.245695 0)
(4.58394 0.239595 0)
(4.62072 0.233331 0)
(4.65689 0.227143 0)
(4.69215 0.221173 0)
(4.72634 0.215497 0)
(4.75935 0.210153 0)
(4.79115 0.205156 0)
(4.82157 0.200508 0)
(4.85157 0.196272 0)
(3.50293 0.114454 0)
(3.47301 0.192928 0)
(3.48914 0.217661 0)
(3.54121 0.228905 0)
(3.60262 0.231484 0)
(3.66652 0.228855 0)
(3.73181 0.223854 0)
(3.79678 0.217749 0)
(3.86003 0.211143 0)
(3.92091 0.204433 0)
(3.97917 0.197875 0)
(4.03468 0.191608 0)
(4.08741 0.185704 0)
(4.13742 0.180188 0)
(4.18479 0.175067 0)
(4.22968 0.170328 0)
(4.27208 0.16596 0)
(4.31282 0.162034 0)
(2.62982 0.122984 0)
(2.63207 0.176394 0)
(2.70178 0.187978 0)
(2.80471 0.191098 0)
(2.90736 0.189128 0)
(3.00607 0.184613 0)
(3.10165 0.178943 0)
(3.1931 0.172761 0)
(3.27959 0.166471 0)
(3.36099 0.160325 0)
(3.43744 0.15447 0)
(3.50916 0.148979 0)
(3.57639 0.143877 0)
(3.63942 0.139164 0)
(3.69854 0.134825 0)
(3.75405 0.130837 0)
(3.80612 0.127179 0)
(3.8555 0.123943 0)
(1.85178 0.104826 0)
(1.90639 0.134442 0)
(2.03034 0.141904 0)
(2.17815 0.140523 0)
(2.31589 0.137048 0)
(2.44346 0.132935 0)
(2.56371 0.128118 0)
(2.67655 0.123008 0)
(2.78163 0.117963 0)
(2.87925 0.113138 0)
(2.96994 0.108605 0)
(3.05422 0.1044 0)
(3.1326 0.100528 0)
(3.20556 0.0969763 0)
(3.27356 0.0937234 0)
(3.33706 0.0907463 0)
(3.39635 0.0880096 0)
(3.45219 0.0856204 0)
(1.17533 0.0416903 0)
(1.28238 0.0661076 0)
(1.43869 0.0889905 0)
(1.6166 0.0891823 0)
(1.78037 0.0862369 0)
(1.92919 0.0833394 0)
(2.06747 0.0798432 0)
(2.1959 0.0761282 0)
(2.31439 0.0725396 0)
(2.42353 0.069162 0)
(2.52417 0.0660205 0)
(2.61712 0.0631308 0)
(2.70307 0.0604894 0)
(2.78269 0.0580802 0)
(2.85657 0.0558827 0)
(2.92527 0.05388 0)
(2.9892 0.0520102 0)
(3.04908 0.0503728 0)
(0.469484 0.226529 0)
(0.642366 0.0691639 0)
(0.788945 0.0480274 0)
(0.972468 0.0444127 0)
(1.14915 0.0429751 0)
(1.30919 0.0416829 0)
(1.45692 0.0396506 0)
(1.59331 0.0373358 0)
(1.71816 0.0351182 0)
(1.83223 0.0330706 0)
(1.93668 0.0311887 0)
(2.03255 0.0294706 0)
(2.12071 0.0279096 0)
(2.20194 0.0264928 0)
(2.27695 0.0252044 0)
(2.34636 0.0240372 0)
(2.4107 0.022938 0)
(2.47027 0.0219858 0)
(0.0108102 -0.0231707 -2.68614e-20)
(0.0319888 -0.0349587 2.61506e-20)
(0.052348 -0.0335149 0)
(0.0680693 -0.0259076 0)
(0.0768456 -0.0157063 0)
(0.0784076 -0.00517472 -2.45973e-20)
(0.0731398 0.00392564 0)
(0.0628868 0.010544 0)
(0.0489595 0.0146822 0)
(0.0323147 0.0170381 0)
(0.0135562 0.0184698 2.42598e-20)
(-0.00703348 0.0196784 0)
(-0.0294883 0.0211112 0)
(-0.0540309 0.0229514 0)
(-0.0808526 0.0252022 0)
(-0.110113 0.0277803 2.23821e-20)
(-0.141912 0.0305781 0)
(-0.176275 0.0334848 0)
(-0.213158 0.0363917 0)
(-0.252444 0.0391954 0)
(-0.293957 0.0418028 0)
(-0.337468 0.0441348 0)
(-0.382712 0.04613 0)
(-0.429393 0.0477469 1.90566e-20)
(-0.477201 0.0489642 -1.86971e-20)
(-0.525828 0.0497802 1.8355e-20)
(-0.57498 0.0502122 1.80306e-20)
(-0.62439 0.0502973 0)
(-0.673795 0.0500902 0)
(-0.72294 0.0496514 -1.71599e-20)
(-0.771729 0.0490345 -1.69006e-20)
(-0.820004 0.0482594 0)
(-0.867643 0.0473517 0)
(-0.914546 0.0463376 -1.62048e-20)
(-0.960631 0.0452411 0)
(-1.00583 0.0440838 0)
(-1.05011 0.0428842 1.56094e-20)
(-1.09341 0.0416574 0)
(-1.13573 0.0404156 1.52548e-20)
(-1.17703 0.0391683 3.01748e-20)
(-1.21731 0.0379224 0)
(-1.25655 0.0366829 0)
(-1.29476 0.0354532 0)
(-1.33193 0.0342352 0)
(-1.36806 0.0330301 0)
(-1.40314 0.031838 2.83511e-20)
(-1.43718 0.0306587 2.80665e-20)
(-1.47016 0.0294917 2.77847e-20)
(-1.5021 0.028336 0)
(-1.53298 0.0271909 -2.72261e-20)
(-1.56279 0.0260555 0)
(-1.59154 0.0249289 2.66689e-20)
(-1.61922 0.0238103 2.63891e-20)
(-1.6458 0.0226993 0)
(-1.6713 0.0215951 0)
(-1.6957 0.0204975 0)
(-1.71898 0.019406 2.52483e-20)
(-1.74115 0.0183204 0)
(-1.76218 0.0172404 0)
(-1.78208 0.0161656 0)
(-1.80083 0.0150956 0)
(-1.81843 0.0140296 0)
(-1.83485 0.0129665 0)
(-1.8501 0.011905 0)
(-1.86416 0.0108428 0)
(-1.87702 0.00977726 -2.24298e-20)
(-1.88867 0.00870517 0)
(-1.89909 0.00762237 0)
(-1.90826 0.00652398 2.13817e-20)
(-1.91616 0.00540536 2.10187e-20)
(-1.92276 0.00426507 0)
(-1.92803 0.00311198 -2.0272e-20)
(-1.93192 0.00197207 1.98885e-20)
(-1.93435 0.000883552 0)
(-1.93527 -0.000108696 -1.90966e-20)
(-1.93513 -0.000941939 0)
(-1.93387 -0.0017065 0)
(-1.93153 -0.00243573 1.78422e-20)
(-1.92813 -0.00314385 0)
(-1.92367 -0.00383619 -1.69646e-20)
(-1.91817 -0.00451498 0)
(-1.91164 -0.00518106 1.6054e-20)
(-1.90407 -0.0058347 1.55864e-20)
(-1.89547 -0.00647592 1.51107e-20)
(-1.88585 -0.00710466 2.92541e-20)
(-1.87521 -0.00772079 -2.82711e-20)
(-1.86357 -0.00832422 0)
(-1.85092 -0.00891485 0)
(-1.83729 -0.00949258 0)
(-1.82267 -0.0100574 -2.41869e-20)
(-1.80707 -0.0106091 -2.31293e-20)
(-1.79051 -0.0111479 2.20579e-20)
(-1.773 -0.0116735 0)
(-1.75454 -0.0121861 -1.9875e-20)
(-1.73515 -0.0126856 -1.87644e-20)
(-1.71484 -0.013172 -1.76416e-20)
(-1.69361 -0.0136453 0)
(-1.67149 -0.0141054 0)
(-1.64848 -0.0145525 0)
(-1.6246 -0.0149864 -1.3039e-20)
(-1.59986 -0.0154073 0)
(-1.57428 -0.015815 0)
(-1.54786 -0.0162095 9.48536e-21)
(-1.52062 -0.0165909 0)
(-1.49258 -0.0169592 0)
(-1.46375 -0.0173142 5.8626e-21)
(-1.43415 -0.0176559 0)
(-1.4038 -0.0179843 0)
(-1.37271 -0.0182993 -2.18874e-21)
(-1.34089 -0.0186009 -9.56075e-22)
(-1.30837 -0.0188889 0)
(-1.27516 -0.0191633 -1.51682e-21)
(-1.24129 -0.019424 0)
(-1.20677 -0.0196709 3.99465e-21)
(-1.17162 -0.0199039 0)
(-1.13586 -0.0201229 6.47099e-21)
(-1.09951 -0.0203278 7.70655e-21)
(-1.0626 -0.0205186 0)
(-1.02514 -0.0206951 0)
(-0.987166 -0.0208573 0)
(-0.948691 -0.0210051 0)
(-0.909741 -0.0211384 0)
(-0.87034 -0.0212572 0)
(-0.830514 -0.0213614 0)
(-0.790286 -0.0214511 1.74168e-20)
(-0.749682 -0.0215262 -1.8596e-20)
(-0.708728 -0.0215866 0)
(-0.66745 -0.0216326 0)
(-0.625874 -0.0216639 0)
(-0.584028 -0.0216808 0)
(-0.541938 -0.0216832 -4.8634e-20)
(-0.499631 -0.0216712 0)
(-0.457136 -0.0216448 5.30176e-20)
(-0.41448 -0.021604 -5.51618e-20)
(-0.37169 -0.0215489 0)
(-0.328797 -0.0214792 0)
(-0.285828 -0.021395 0)
(-0.242814 -0.0212958 6.33885e-20)
(-0.199786 -0.0211807 6.53512e-20)
(-0.156777 -0.0210472 0)
(-0.113819 -0.0208918 6.91559e-20)
(-0.070942 -0.020713 7.09963e-20)
(-0.028175 -0.0205036 -7.27952e-20)
(0.0144253 -0.0202156 0)
(0.0568059 -0.0198496 0)
(0.0989765 -0.0194742 -7.57111e-20)
(0.140916 -0.0191081 0)
(0.182612 -0.0187503 0)
(0.224059 -0.018398 0)
(0.26525 -0.0180492 0)
(0.306174 -0.017703 7.84827e-20)
(0.34682 -0.0173587 7.88942e-20)
(0.387177 -0.0170164 0)
(0.427235 -0.0166761 7.95896e-20)
(0.466982 -0.0163381 0)
(0.506409 -0.0160026 0)
(0.545508 -0.0156701 8.03409e-20)
(0.584271 -0.0153409 0)
(0.622692 -0.0150154 8.06663e-20)
(0.660764 -0.0146938 0)
(0.698482 -0.0143764 0)
(0.735843 -0.0140632 8.09207e-20)
(0.772843 -0.0137544 0)
(0.809479 -0.0134498 8.095e-20)
(0.845745 -0.0131488 0)
(0.881636 -0.0128509 0)
(0.917143 -0.0125546 0)
(0.952254 -0.012258 -8.07166e-20)
(0.986948 -0.0119583 0)
(1.02119 -0.0116507 8.0475e-20)
(1.05494 -0.0113285 0)
(1.08811 -0.0109807 0)
(1.12058 -0.0105896 0)
(1.15215 -0.0101253 0)
(1.1825 -0.00952942 0)
(1.21089 -0.00869245 0)
(1.23658 -0.00728837 0)
(1.25488 -0.00451149 -1.5902e-19)
(1.26845 0.0028012 0)
(1.22113 0.0180431 0)
(0.0106197 -0.0673211 7.90333e-20)
(0.0218702 -0.0664543 -7.43552e-20)
(0.0238238 -0.0465593 0)
(0.0204696 -0.0252339 4.41498e-20)
(0.012763 -0.0049293 0)
(0.00149934 0.0133066 2.08661e-20)
(-0.0128831 0.0287326 -4.07858e-20)
(-0.0306052 0.0410913 -3.99302e-20)
(-0.0516612 0.0507706 0)
(-0.0760255 0.0585408 -3.83394e-20)
(-0.103613 0.0652242 -1.88157e-20)
(-0.134274 0.0714696 0)
(-0.167818 0.0776783 0)
(-0.204041 0.0840119 0)
(-0.242729 0.090446 0)
(-0.283653 0.0968506 -1.69068e-20)
(-0.326557 0.103052 0)
(-0.371154 0.108871 3.22544e-20)
(-0.417134 0.114145 0)
(-0.464173 0.118741 0)
(-0.511943 0.12256 -3.02198e-20)
(-0.560126 0.125539 0)
(-0.608426 0.127656 2.89985e-20)
(-0.656575 0.128919 -1.42576e-20)
(-0.704339 0.12937 1.39887e-20)
(-0.751524 0.129071 -1.3735e-20)
(-0.797975 0.128104 -1.34963e-20)
(-0.843574 0.126562 0)
(-0.888233 0.124549 0)
(-0.931884 0.122171 1.28628e-20)
(-0.974479 0.119512 -1.26037e-20)
(-1.01598 0.116636 0)
(-1.05638 0.113597 0)
(-1.09567 0.110446 1.21718e-20)
(-1.13387 0.107223 0)
(-1.17098 0.103962 0)
(-1.20703 0.10069 -1.17363e-20)
(-1.24203 0.0974292 0)
(-1.27601 0.0941941 1.13991e-20)
(-1.30898 0.0909957 -2.26975e-20)
(-1.34095 0.087841 0)
(-1.37196 0.084734 0)
(-1.402 0.0816763 -4.38241e-20)
(-1.43108 0.0786676 -4.33701e-20)
(-1.45922 0.0757064 -4.29232e-20)
(-1.48642 0.0727905 2.11701e-20)
(-1.51269 0.0699171 -2.1092e-20)
(-1.53802 0.0670831 -6.24847e-20)
(-1.56241 0.0642857 4.11791e-20)
(-1.58587 0.0615219 2.04381e-20)
(-1.60839 0.0587891 0)
(-1.62996 0.056085 -2.00015e-20)
(-1.65059 0.0534077 1.96669e-20)
(-1.67026 0.0507556 0)
(-1.68897 0.0481275 0)
(-1.70671 0.0455224 0)
(-1.72348 0.0429398 -1.88821e-20)
(-1.73927 0.0403793 0)
(-1.75407 0.0378409 3.67518e-20)
(-1.76788 0.0353244 0)
(-1.78069 0.0328301 3.58045e-20)
(-1.79249 0.030358 0)
(-1.80328 0.027908 -3.48261e-20)
(-1.81305 0.0254801 0)
(-1.8218 0.0230738 3.38136e-20)
(-1.82953 0.0206882 -1.66323e-20)
(-1.83624 0.0183223 0)
(-1.84193 0.0159746 -3.22252e-20)
(-1.8466 0.0136435 -1.58409e-20)
(-1.85028 0.0113268 -1.55575e-20)
(-1.85298 0.00902232 0)
(-1.85473 0.00673342 -1.49936e-20)
(-1.85561 0.00448005 -1.46774e-20)
(-1.8557 0.00230261 0)
(-1.85508 0.000239136 1.40588e-20)
(-1.85346 -0.00169456 -2.75272e-20)
(-1.85084 -0.00354884 0)
(-1.84721 -0.00534544 -1.30906e-20)
(-1.84256 -0.00709732 0)
(-1.83689 -0.00880994 3.73319e-20)
(-1.83019 -0.0104856 0)
(-1.82247 -0.0121252 -3.52695e-20)
(-1.81374 -0.0137287 -1.13722e-20)
(-1.804 -0.0152959 1.11194e-20)
(-1.79325 -0.0168264 2.15257e-20)
(-1.78149 -0.01832 -2.08027e-20)
(-1.76875 -0.0197762 0)
(-1.75502 -0.0211948 0)
(-1.74031 -0.0225756 0)
(-1.72463 -0.0239184 5.28492e-20)
(-1.708 -0.0252232 1.6734e-20)
(-1.69041 -0.0264899 -1.59427e-20)
(-1.67187 -0.0277185 0)
(-1.65241 -0.028909 -1.46865e-20)
(-1.63202 -0.0300616 1.35219e-20)
(-1.61073 -0.0311762 1.27004e-20)
(-1.58854 -0.0322529 0)
(-1.56545 -0.033292 0)
(-1.5415 -0.0342934 0)
(-1.51668 -0.0352573 9.35144e-21)
(-1.49102 -0.0361838 0)
(-1.46451 -0.0370731 -1.57275e-20)
(-1.43719 -0.0379254 -2.08008e-20)
(-1.40906 -0.0387407 1.22975e-20)
(-1.38013 -0.0395192 0)
(-1.35043 -0.0402609 4.6564e-21)
(-1.31997 -0.0409661 0)
(-1.28876 -0.0416347 5.35782e-21)
(-1.25682 -0.0422667 -2.05427e-21)
(-1.22417 -0.0428624 -1.18329e-21)
(-1.19082 -0.0434217 0)
(-1.1568 -0.0439447 2.71464e-21)
(-1.12212 -0.0444315 -3.38813e-21)
(-1.0868 -0.0448821 -2.83149e-21)
(-1.05086 -0.0452966 0)
(-1.01433 -0.045675 -4.58025e-21)
(-0.97721 -0.0460175 -1.58147e-20)
(-0.939538 -0.046324 0)
(-0.90133 -0.0465949 -1.38214e-20)
(-0.862611 -0.04683 -1.5539e-20)
(-0.823402 -0.0470297 -1.72478e-20)
(-0.783727 -0.0471941 0)
(-0.743611 -0.0473234 0)
(-0.703076 -0.047418 0)
(-0.662149 -0.0474779 1.17106e-20)
(-0.620855 -0.0475037 1.30868e-20)
(-0.579219 -0.0474957 0)
(-0.537268 -0.0474543 2.88732e-20)
(-0.495027 -0.0473798 3.04739e-20)
(-0.452523 -0.0472728 0)
(-0.409784 -0.0471338 3.41642e-20)
(-0.366836 -0.0469632 7.03291e-20)
(-0.323706 -0.0467615 -3.72257e-20)
(-0.280423 -0.0465292 -3.76562e-20)
(-0.237013 -0.0462667 0)
(-0.193506 -0.045974 0)
(-0.149929 -0.0456513 0)
(-0.106312 -0.0452978 -4.44844e-20)
(-0.0626833 -0.0449122 4.48425e-20)
(-0.0190732 -0.0444936 9.33937e-20)
(0.0244883 -0.0440397 -4.82914e-20)
(0.0679704 -0.0435516 4.81681e-20)
(0.111348 -0.0430361 4.99505e-20)
(0.154595 -0.0424857 0)
(0.197688 -0.041893 0)
(0.240619 -0.0412773 -5.13619e-20)
(0.283363 -0.0406565 0)
(0.325901 -0.0400355 0)
(0.368218 -0.0394139 1.07712e-19)
(0.410299 -0.0387909 0)
(0.45213 -0.0381657 5.46672e-20)
(0.4937 -0.0375383 -5.59864e-20)
(0.534997 -0.0369091 0)
(0.576008 -0.0362786 5.62627e-20)
(0.616723 -0.0356478 0)
(0.657134 -0.0350175 0)
(0.697231 -0.0343888 -5.82492e-20)
(0.737007 -0.0337627 1.16602e-19)
(0.776456 -0.03314 -5.89625e-20)
(0.815572 -0.0325215 0)
(0.854352 -0.0319081 0)
(0.892791 -0.0313002 5.92834e-20)
(0.930886 -0.0306978 0)
(0.968635 -0.0301009 5.97908e-20)
(1.00603 -0.0295085 0)
(1.04307 -0.028919 0)
(1.07975 -0.0283296 0)
(1.11605 -0.0277359 6.10138e-20)
(1.15196 -0.027131 0)
(1.18744 -0.0265044 -6.12483e-20)
(1.22244 -0.0258399 0)
(1.25689 -0.0251121 0)
(1.29068 -0.0242796 1.22598e-19)
(1.32361 -0.0232725 -1.22747e-19)
(1.35539 -0.0219584 0)
(1.38542 -0.02009 0)
(1.41309 -0.0170202 0)
(1.43562 -0.0115375 3.72014e-19)
(1.45574 0.00108764 0)
(1.45817 0.026382 -2.51696e-19)
(0.00227641 -0.0846785 -1.231e-22)
(-0.00241253 -0.0596999 9.50926e-20)
(-0.013859 -0.0284696 0)
(-0.0276877 -3.11135e-05 -7.89349e-20)
(-0.0440319 0.0255692 0)
(-0.0626248 0.048463 0)
(-0.0834041 0.0687071 4.14073e-23)
(-0.106502 0.0863623 3.35799e-20)
(-0.132095 0.101671 3.2747e-20)
(-0.160298 0.115086 3.20462e-20)
(-0.191098 0.127139 0)
(-0.22435 0.138284 0)
(-0.259803 0.1488 -2.98832e-20)
(-0.297144 0.158785 -5.83949e-20)
(-0.336034 0.168194 5.70485e-20)
(-0.376131 0.176894 0)
(-0.4171 0.184724 5.44475e-20)
(-0.458628 0.191525 -2.66202e-20)
(-0.500425 0.197172 0)
(-0.542238 0.20158 5.08295e-20)
(-0.58385 0.204715 2.48626e-20)
(-0.625082 0.206587 -4.86379e-20)
(-0.665799 0.207247 -2.38085e-20)
(-0.705898 0.206782 0)
(-0.745311 0.205302 4.57043e-20)
(-0.783997 0.202935 4.48197e-20)
(-0.821935 0.199816 0)
(-0.859118 0.19608 4.31824e-20)
(-0.895547 0.191859 0)
(-0.931224 0.18727 4.17069e-20)
(-0.966154 0.182416 2.05253e-20)
(-1.00034 0.177379 0)
(-1.0338 0.172227 0)
(-1.06654 0.167018 0)
(-1.09856 0.161795 0)
(-1.12988 0.156592 0)
(-1.1605 0.151436 0)
(-1.19042 0.146343 3.70304e-20)
(-1.21964 0.141325 -5.4856e-20)
(-1.24818 0.136388 0)
(-1.27601 0.131535 0)
(-1.30314 0.126766 0)
(-1.32957 0.122079 8.31779e-23)
(-1.35528 0.117468 3.4413e-20)
(-1.38027 0.11293 6.79152e-20)
(-1.40452 0.108459 -6.7102e-20)
(-1.42803 0.10405 -3.31076e-20)
(-1.45079 0.0996985 3.27953e-20)
(-1.47278 0.0953986 -8.25389e-23)
(-1.49399 0.0911464 3.19296e-20)
(-1.51441 0.0869383 0)
(-1.53403 0.082771 3.11558e-20)
(-1.55283 0.0786421 -7.37205e-23)
(-1.5708 0.0745495 0)
(-1.58793 0.070492 0)
(-1.6042 0.0664687 -2.96086e-20)
(-1.6196 0.0624792 0)
(-1.63412 0.0585235 0)
(-1.64775 0.054602 2.8378e-20)
(-1.66048 0.0507154 5.60611e-20)
(-1.67229 0.0468644 -2.76703e-20)
(-1.68318 0.0430503 0)
(-1.69314 0.039274 2.6842e-20)
(-1.70217 0.0355369 0)
(-1.71025 0.0318405 2.59483e-20)
(-1.71739 0.0281864 2.55621e-20)
(-1.72358 0.0245766 -5.02246e-20)
(-1.72883 0.0210139 -2.46674e-20)
(-1.73313 0.0175022 0)
(-1.7365 0.0140477 4.75627e-20)
(-1.73894 0.0106586 0)
(-1.74047 0.00734647 6.85786e-20)
(-1.74109 0.00412475 4.47915e-20)
(-1.74081 0.0010051 4.38261e-20)
(-1.73959 -0.00201985 -4.2849e-20)
(-1.73738 -0.00498476 6.27533e-20)
(-1.73419 -0.00789172 0)
(-1.73002 -0.0107413 0)
(-1.72485 -0.0135339 -3.88194e-20)
(-1.71869 -0.0162693 -5.66077e-20)
(-1.71154 -0.0189472 0)
(-1.70341 -0.021567 1.77573e-20)
(-1.69428 -0.0241281 0)
(-1.68418 -0.0266296 -5.01468e-20)
(-1.6731 -0.0290709 1.77135e-22)
(-1.66105 -0.0314513 -1.87832e-22)
(-1.64804 -0.0337702 3.01341e-20)
(-1.63406 -0.0360272 0)
(-1.61914 -0.0382218 -2.78395e-20)
(-1.60327 -0.0403539 2.29033e-22)
(-1.58648 -0.0424234 0)
(-1.56875 -0.04443 0)
(-1.55011 -0.0463739 0)
(-1.53056 -0.0482551 2.16468e-20)
(-1.51011 -0.0500737 0)
(-1.48878 -0.0518298 0)
(-1.46658 -0.0535237 0)
(-1.44351 -0.0551554 0)
(-1.41959 -0.0567253 0)
(-1.39482 -0.0582335 1.45089e-20)
(-1.36924 -0.0596802 0)
(-1.34283 -0.0610658 1.16538e-20)
(-1.31563 -0.0623904 1.03781e-20)
(-1.28764 -0.0636544 -9.09834e-21)
(-1.25887 -0.0648579 0)
(-1.22935 -0.0660012 -6.5295e-21)
(-1.19909 -0.0670845 0)
(-1.1681 -0.068108 -3.95244e-21)
(-1.13639 -0.0690716 2.66248e-21)
(-1.104 -0.0699758 4.88011e-21)
(-1.07092 -0.0708206 0)
(-1.03719 -0.0716062 -2.83387e-21)
(-1.00281 -0.0723327 -1.70173e-21)
(-0.967816 -0.0730004 0)
(-0.932214 -0.0736094 -9.30463e-21)
(-0.89603 -0.0741598 -1.18499e-20)
(-0.859282 -0.0746519 2.19871e-20)
(-0.821993 -0.0750859 0)
(-0.784182 -0.0754622 1.01256e-20)
(-0.745873 -0.0757809 1.13779e-20)
(-0.707087 -0.0760425 3.70357e-20)
(-0.667848 -0.0762472 0)
(-0.62818 -0.0763957 0)
(-0.588105 -0.0764885 0)
(-0.547649 -0.076526 1.66738e-20)
(-0.506837 -0.0765088 0)
(-0.465692 -0.0764378 0)
(-0.424242 -0.0763137 -2.1066e-20)
(-0.382511 -0.0761372 -2.2226e-20)
(-0.340526 -0.0759092 0)
(-0.298313 -0.0756307 0)
(-0.255898 -0.0753024 -5.12479e-20)
(-0.213309 -0.0749254 0)
(-0.170571 -0.0745004 5.56308e-20)
(-0.127713 -0.0740283 5.69674e-20)
(-0.0847604 -0.0735093 0)
(-0.0417417 -0.0729439 0)
(0.00131603 -0.0723327 -6.31096e-20)
(0.0443849 -0.0716755 -7.74154e-22)
(0.087438 -0.0709719 -7.60975e-22)
(0.130448 -0.0702224 0)
(0.173389 -0.0694296 -1.3921e-19)
(0.216238 -0.0686 0)
(0.258982 -0.0677408 0)
(0.301609 -0.0668549 0)
(0.344101 -0.0659461 7.52736e-20)
(0.386431 -0.0650229 0)
(0.428576 -0.0640902 -1.54096e-19)
(0.470515 -0.0631496 -7.88471e-20)
(0.512231 -0.0622018 0)
(0.553708 -0.0612471 -8.1009e-20)
(0.594933 -0.0602864 0)
(0.635893 -0.0593207 0)
(0.676577 -0.0583514 -2.5067e-19)
(0.716973 -0.0573799 1.68551e-19)
(0.757073 -0.056408 0)
(0.796868 -0.0554373 1.71943e-19)
(0.836351 -0.0544693 -8.72714e-20)
(0.875517 -0.0535058 0)
(0.91436 -0.052548 0)
(0.952876 -0.0515971 0)
(0.991062 -0.0506539 -2.69135e-19)
(1.02891 -0.0497187 0)
(1.06643 -0.0487912 -9.11809e-20)
(1.10361 -0.04787 0)
(1.14045 -0.0469527 0)
(1.17693 -0.0460346 0)
(1.21305 -0.045109 0)
(1.24879 -0.0441647 0)
(1.28412 -0.0431854 0)
(1.319 -0.0421455 -1.87878e-19)
(1.35335 -0.0410052 0)
(1.38707 -0.039701 -9.49597e-20)
(1.41999 -0.0381266 2.85208e-19)
(1.45186 -0.0360917 0)
(1.48221 -0.0332497 0)
(1.51059 -0.0288448 -1.92244e-19)
(1.53537 -0.0215411 -1.94005e-19)
(1.55865 -0.00753563 1.95472e-19)
(1.57333 0.0191675 1.98197e-19)
(-0.00834954 -0.0659951 -1.53909e-19)
(-0.0236477 -0.0285959 -1.36681e-19)
(-0.042799 0.00746402 -7.95148e-20)
(-0.0633598 0.0392777 -3.58228e-20)
(-0.0853801 0.0680172 0)
(-0.108638 0.0941516 6.35209e-20)
(-0.133209 0.117848 -3.05419e-20)
(-0.159264 0.139207 0)
(-0.186948 0.158393 -2.88851e-20)
(-0.216326 0.17566 0)
(-0.247353 0.191292 5.49391e-20)
(-0.279876 0.205531 0)
(-0.31366 0.21852 2.61736e-20)
(-0.348425 0.230298 5.10803e-20)
(-0.383879 0.240821 -4.98417e-20)
(-0.419741 0.250003 0)
(-0.455761 0.25775 -4.74594e-20)
(-0.491725 0.263987 0)
(-0.527462 0.268678 0)
(-0.56284 0.27183 -4.41612e-20)
(-0.59777 0.273491 0)
(-0.632192 0.273749 -6.43689e-23)
(-0.666079 0.27272 0)
(-0.699422 0.270541 0)
(-0.73223 0.26736 6.24997e-23)
(-0.764517 0.263328 -3.86866e-20)
(-0.796304 0.258595 -3.79736e-20)
(-0.827611 0.2533 -3.71896e-20)
(-0.858453 0.247571 0)
(-0.888843 0.24152 -7.17117e-20)
(-0.918787 0.235242 0)
(-0.948288 0.228816 -3.46371e-20)
(-0.977345 0.222306 0)
(-1.00596 0.215764 0)
(-1.03411 0.209229 3.29852e-20)
(-1.06181 0.20273 0)
(-1.08903 0.196288 -3.19972e-20)
(-1.11576 0.189919 -9.6322e-24)
(-1.142 0.183629 6.21795e-20)
(-1.16772 0.177424 -6.12984e-20)
(-1.19291 0.171304 0)
(-1.21756 0.165267 0)
(-1.24164 0.15931 -2.93991e-20)
(-1.26514 0.153427 0)
(-1.28804 0.147613 -2.86863e-20)
(-1.31032 0.141864 2.83157e-20)
(-1.33196 0.136172 2.79511e-20)
(-1.35295 0.130534 0)
(-1.37327 0.124944 -2.72364e-20)
(-1.3929 0.119399 -2.68846e-20)
(-1.41182 0.113894 5.30137e-20)
(-1.43001 0.108428 -2.61885e-20)
(-1.44747 0.102998 -2.58428e-20)
(-1.46416 0.0976032 0)
(-1.48007 0.0922431 0)
(-1.4952 0.0869177 2.48084e-20)
(-1.50952 0.0816277 0)
(-1.52302 0.0763741 0)