/*--------------------------------*- C++ -*----------------------------------*\
| =========                 |                                                 |
| \\      /  F ield         | OpenFOAM: The Open Source CFD Toolbox           |
|  \\    /   O peration     | Version:  2412                                  |
|   \\  /    A nd           | Website:  www.openfoam.com                      |
|    \\/     M anipulation  |                                                 |
\*---------------------------------------------------------------------------*/
FoamFile
{
    version     2.0;
    format      ascii;
    arch        "LSB;label=32;scalar=64";
    class       surfaceScalarField;
    location    "0.41";
    object      phi;
}
// * * * * * * * * * * * * * * * * * * * * * * * * * * * * * * * * * * * * * //

dimensions      [0 3 -1 0 0 0 0];

oriented        oriented;

internalField   nonuniform List<scalar> 
799
(
3.43351e-05
6.86702e-05
0.000103005
0.000137339
0.000171673
0.000206005
0.000240337
0.000274667
0.000308996
0.000343323
0.000377649
0.000411972
0.000446294
0.000480613
0.000514929
0.000549243
0.000583554
0.000617862
0.000652167
0.000686468
0.000720766
0.00075506
0.000789349
0.000823635
0.000857917
0.000892194
0.000926466
0.000960733
0.000994996
0.00102925
0.0010635
0.00109775
0.00113199
0.00116623
0.00120045
0.00123468
0.00126889
0.0013031
0.0013373
0.0013715
0.00140568
0.00143986
0.00147404
0.0015082
0.00154236
0.00157651
0.00161065
0.00164478
0.0016789
0.00171301
0.00174712
0.00178121
0.0018153
0.00184937
0.00188344
0.0019175
0.00195154
0.00198558
0.0020196
0.00205361
0.00208762
0.00212161
0.00215559
0.00218955
0.00222351
0.00225745
0.00229139
0.00232531
0.00235921
0.00239311
0.00242699
0.00246085
0.00249471
0.00252855
0.00256237
0.00259618
0.00262998
0.00266376
0.00269753
0.00273129
0.00276502
0.00279875
0.00283245
0.00286614
0.00289982
0.00293348
0.00296712
0.00300075
0.00303436
0.00306795
0.00310152
0.00313508
0.00316862
0.00320214
0.00323564
0.00326912
0.00330259
0.00333604
0.00336946
0.00340287
0.00343626
0.00346963
0.00350298
0.00353631
0.00356961
0.0036029
0.00363617
0.00366941
0.00370263
0.00373583
0.00376901
0.00380217
0.0038353
0.00386841
0.0039015
0.00393457
0.00396761
0.00400063
0.00403362
0.00406659
0.00409953
0.00413245
0.00416535
0.00419822
0.00423106
0.00426388
0.00429667
0.00432944
0.00436217
0.00439489
0.00442757
0.00446023
0.00449286
0.00452546
0.00455803
0.00459057
0.00462309
0.00465557
0.00468803
0.00472045
0.00475285
0.00478521
0.00481755
0.00484985
0.00488212
0.00491436
0.00494657
0.00497874
0.00501088
0.00504299
0.00507507
0.00510711
0.00513912
0.0051711
0.00520304
0.00523494
0.00526681
0.00529864
0.00533044
0.0053622
0.00539393
0.00542561
0.00545726
0.00548887
0.00552045
0.00555198
0.00558348
0.00561494
0.00564635
0.00567773
0.00570907
0.00574036
0.00577162
0.00580283
0.005834
0.00586513
0.00589622
0.00592726
0.00595826
0.00598922
0.00602013
0.00605099
0.00608181
0.00611259
0.00614331
0.006174
0.00620463
0.00623522
0.00626576
0.00629625
0.00632669
0.00635708
0.00638742
0.00641771
0.00644795
0.00647814
0.00650828
0.00653837
0.0065684
0.00659838
0.0066283
0.00665817
0.00668799
0.00671775
0.00674745
0.0067771
0.00680669
0.00683622
0.0068657
0.00689511
0.00692447
0.00695376
0.006983
0.00701217
0.00704128
0.00707033
0.00709932
0.00712824
0.0071571
0.00718589
0.00721462
0.00724328
0.00727187
0.0073004
0.00732886
0.00735725
0.00738556
0.00741381
0.00744199
0.00747009
0.00749813
0.00752608
0.00755397
0.00758178
0.00760951
0.00763717
0.00766475
0.00769225
0.00771967
0.00774701
0.00777427
0.00780145
0.00782855
0.00785556
0.00788249
0.00790933
0.00793609
0.00796276
0.00798934
0.00801583
0.00804223
0.00806854
0.00809476
0.00812089
0.00814692
0.00817285
0.00819869
0.00822443
0.00825007
0.00827562
0.00830106
0.0083264
0.00835163
0.00837677
0.00840179
0.00842671
0.00845152
0.00847622
0.00850081
0.00852528
0.00854965
0.00857389
0.00859802
0.00862204
0.00864593
0.0086697
0.00869335
0.00871688
0.00874027
0.00876355
0.00878669
0.0088097
0.00883258
0.00885533
0.00887793
0.00890041
0.00892274
0.00894493
0.00896697
0.00898888
0.00901063
0.00903223
0.00905368
0.00907498
0.00909613
0.00911711
0.00913793
0.0091586
0.00917909
0.00919942
0.00921958
0.00923956
0.00925937
0.009279
0.00929846
0.00931772
0.00933681
0.0093557
0.0093744
0.0093929
0.00941121
0.00942931
0.00944721
0.00946491
0.00948238
0.00949965
0.00951669
0.00953352
0.00955011
0.00956648
0.00958261
0.0095985
0.00961415
0.00962955
0.0096447
0.00965959
0.00967422
0.00968858
0.00970268
0.00971649
0.00973003
0.00974327
0.00975622
0.00976888
0.00978122
0.00979326
0.00980497
0.00981636
0.00982742
0.00983814
0.00984852
0.00985853
0.00986819
0.00987747
0.00988638
0.00989489
0.00990301
0.00991072
0.00991802
0.00992488
0.00993131
0.00993729
0.00994281
0.00994785
0.00995241
0.00995646
0.00996001
0.00996302
0.00996549
0.00996741
0.00996875
0.00996949
0.00996962
0.00996912
0.00996797
0.00996615
0.00996364
0.0099604
0.00995642
0.00995168
0.00994613
0.00993975
0.00993252
0.00992439
0.00991534
0.00990532
0.00989429
0.0098822
0.00986902
0.00985469
0.00983916
0.00982237
0.00980425
0.00978473
0.00976375
0.00974122
0.00971704
0.00969113
0.00966336
0.00963363
0.00960179
0.0095677
0.00953118
0.00949205
0.00945009
0.00940501
0.00935582
0.00932826
0.00730109
5.945e-06
-0.00729477
-0.00932788
-0.00935579
-0.00940495
-0.00945004
-0.00949201
-0.00953114
-0.00956766
-0.00960176
-0.0096336
-0.00966334
-0.0096911
-0.00971702
-0.0097412
-0.00976373
-0.00978472
-0.00980423
-0.00982236
-0.00983915
-0.00985469
-0.00986902
-0.0098822
-0.00989428
-0.00990531
-0.00991533
-0.00992439
-0.00993252
-0.00993975
-0.00994613
-0.00995167
-0.00995642
-0.0099604
-0.00996364
-0.00996615
-0.00996797
-0.00996912
-0.00996962
-0.00996949
-0.00996874
-0.00996741
-0.00996549
-0.00996302
-0.00996001
-0.00995646
-0.00995241
-0.00994785
-0.00994281
-0.00993729
-0.00993131
-0.00992488
-0.00991802
-0.00991072
-0.00990301
-0.00989489
-0.00988637
-0.00987747
-0.00986818
-0.00985853
-0.00984851
-0.00983814
-0.00982742
-0.00981636
-0.00980497
-0.00979325
-0.00978122
-0.00976887
-0.00975622
-0.00974326
-0.00973002
-0.00971649
-0.00970267
-0.00968858
-0.00967421
-0.00965958
-0.00964469
-0.00962954
-0.00961414
-0.00959849
-0.0095826
-0.00956647
-0.0095501
-0.00953351
-0.00951668
-0.00949964
-0.00948237
-0.00946489
-0.0094472
-0.0094293
-0.0094112
-0.00939289
-0.00937438
-0.00935568
-0.00933679
-0.00931771
-0.00929844
-0.00927899
-0.00925936
-0.00923955
-0.00921956
-0.0091994
-0.00917908
-0.00915858
-0.00913792
-0.00911709
-0.00909611
-0.00907497
-0.00905367
-0.00903222
-0.00901061
-0.00898886
-0.00896696
-0.00894491
-0.00892272
-0.00890039
-0.00887792
-0.00885531
-0.00883256
-0.00880968
-0.00878667
-0.00876353
-0.00874026
-0.00871686
-0.00869333
-0.00866968
-0.00864591
-0.00862202
-0.008598
-0.00857387
-0.00854963
-0.00852526
-0.00850079
-0.0084762
-0.0084515
-0.00842669
-0.00840177
-0.00837674
-0.00835161
-0.00832638
-0.00830104
-0.0082756
-0.00825005
-0.00822441
-0.00819867
-0.00817283
-0.0081469
-0.00812086
-0.00809474
-0.00806852
-0.00804221
-0.00801581
-0.00798932
-0.00796273
-0.00793607
-0.00790931
-0.00788247
-0.00785554
-0.00782852
-0.00780143
-0.00777425
-0.00774699
-0.00771965
-0.00769223
-0.00766472
-0.00763715
-0.00760949
-0.00758176
-0.00755395
-0.00752606
-0.0074981
-0.00747007
-0.00744197
-0.00741379
-0.00738554
-0.00735722
-0.00732884
-0.00730038
-0.00727185
-0.00724326
-0.0072146
-0.00718587
-0.00715708
-0.00712822
-0.0070993
-0.00707031
-0.00704126
-0.00701215
-0.00698298
-0.00695374
-0.00692445
-0.00689509
-0.00686567
-0.0068362
-0.00680667
-0.00677708
-0.00674743
-0.00671773
-0.00668797
-0.00665815
-0.00662828
-0.00659836
-0.00656838
-0.00653835
-0.00650826
-0.00647812
-0.00644794
-0.00641769
-0.0063874
-0.00635706
-0.00632667
-0.00629623
-0.00626574
-0.0062352
-0.00620461
-0.00617398
-0.0061433
-0.00611257
-0.00608179
-0.00605097
-0.00602011
-0.0059892
-0.00595824
-0.00592724
-0.0058962
-0.00586512
-0.00583399
-0.00580282
-0.0057716
-0.00574035
-0.00570905
-0.00567772
-0.00564634
-0.00561492
-0.00558346
-0.00555197
-0.00552043
-0.00548886
-0.00545725
-0.0054256
-0.00539391
-0.00536219
-0.00533042
-0.00529863
-0.00526679
-0.00523493
-0.00520302
-0.00517108
-0.00513911
-0.0051071
-0.00507506
-0.00504298
-0.00501087
-0.00497873
-0.00494655
-0.00491435
-0.00488211
-0.00484984
-0.00481753
-0.0047852
-0.00475283
-0.00472044
-0.00468801
-0.00465556
-0.00462307
-0.00459056
-0.00455802
-0.00452544
-0.00449284
-0.00446022
-0.00442756
-0.00439488
-0.00436216
-0.00432943
-0.00429666
-0.00426387
-0.00423105
-0.00419821
-0.00416534
-0.00413244
-0.00409952
-0.00406658
-0.00403361
-0.00400062
-0.0039676
-0.00393456
-0.00390149
-0.00386841
-0.00383529
-0.00380216
-0.003769
-0.00373583
-0.00370262
-0.0036694
-0.00363616
-0.00360289
-0.00356961
-0.0035363
-0.00350297
-0.00346962
-0.00343625
-0.00340287
-0.00336946
-0.00333603
-0.00330258
-0.00326912
-0.00323563
-0.00320213
-0.00316861
-0.00313507
-0.00310152
-0.00306794
-0.00303435
-0.00300074
-0.00296712
-0.00293347
-0.00289981
-0.00286614
-0.00283245
-0.00279874
-0.00276502
-0.00273128
-0.00269753
-0.00266376
-0.00262998
-0.00259618
-0.00256237
-0.00252854
-0.0024947
-0.00246085
-0.00242698
-0.0023931
-0.00235921
-0.0023253
-0.00229138
-0.00225745
-0.00222351
-0.00218955
-0.00215558
-0.0021216
-0.00208761
-0.00205361
-0.0020196
-0.00198557
-0.00195154
-0.00191749
-0.00188344
-0.00184937
-0.0018153
-0.00178121
-0.00174712
-0.00171301
-0.0016789
-0.00164478
-0.00161064
-0.0015765
-0.00154236
-0.0015082
-0.00147403
-0.00143986
-0.00140568
-0.0013715
-0.0013373
-0.0013031
-0.00126889
-0.00123467
-0.00120045
-0.00116622
-0.00113199
-0.00109775
-0.0010635
-0.00102925
-0.000994995
-0.000960733
-0.000926465
-0.000892193
-0.000857916
-0.000823635
-0.000789349
-0.000755059
-0.000720765
-0.000686468
-0.000652166
-0.000617862
-0.000583554
-0.000549243
-0.000514929
-0.000480613
-0.000446294
-0.000411972
-0.000377649
-0.000343324
-0.000308996
-0.000274667
-0.000240337
-0.000206006
-0.000171673
-0.000137339
-0.000103005
-6.86704e-05
-3.43353e-05
)
;

boundaryField
{
    left
    {
        type            calculated;
        value           uniform 0;
    }
    right
    {
        type            calculated;
        value           uniform 0;
    }
    frontBackUpDown
    {
        type            empty;
    }
}


// ************************************************************************* //
