/*--------------------------------*- C++ -*----------------------------------*\
| =========                 |                                                 |
| \\      /  F ield         | OpenFOAM: The Open Source CFD Toolbox           |
|  \\    /   O peration     | Version:  2412                                  |
|   \\  /    A nd           | Website:  www.openfoam.com                      |
|    \\/     M anipulation  |                                                 |
\*---------------------------------------------------------------------------*/
FoamFile
{
    version     2.0;
    format      ascii;
    arch        "LSB;label=32;scalar=64";
    class       surfaceScalarField;
    location    "0.97";
    object      phi;
}
// * * * * * * * * * * * * * * * * * * * * * * * * * * * * * * * * * * * * * //

dimensions      [0 3 -1 0 0 0 0];

oriented        oriented;

internalField   nonuniform List<scalar> 
799
(
1.9425e-05
3.88501e-05
5.82751e-05
7.77001e-05
9.7125e-05
0.00011655
0.000135974
0.000155399
0.000174823
0.000194248
0.000213672
0.000233096
0.000252519
0.000271943
0.000291366
0.000310789
0.000330211
0.000349634
0.000369055
0.000388477
0.000407898
0.000427319
0.000446739
0.000466159
0.000485579
0.000504998
0.000524416
0.000543835
0.000563252
0.000582669
0.000602085
0.000621501
0.000640917
0.000660331
0.000679745
0.000699159
0.000718571
0.000737983
0.000757395
0.000776805
0.000796215
0.000815624
0.000835032
0.00085444
0.000873846
0.000893252
0.000912657
0.000932061
0.000951464
0.000970866
0.000990268
0.00100967
0.00102907
0.00104847
0.00106786
0.00108726
0.00110665
0.00112605
0.00114544
0.00116483
0.00118422
0.00120361
0.001223
0.00124239
0.00126178
0.00128116
0.00130054
0.00131993
0.00133931
0.00135869
0.00137807
0.00139744
0.00141682
0.00143619
0.00145557
0.00147494
0.00149431
0.00151368
0.00153304
0.00155241
0.00157177
0.00159114
0.0016105
0.00162986
0.00164921
0.00166857
0.00168792
0.00170728
0.00172663
0.00174598
0.00176533
0.00178467
0.00180402
0.00182336
0.0018427
0.00186204
0.00188137
0.00190071
0.00192004
0.00193937
0.0019587
0.00197803
0.00199736
0.00201668
0.002036
0.00205532
0.00207464
0.00209395
0.00211326
0.00213258
0.00215188
0.00217119
0.0021905
0.0022098
0.0022291
0.0022484
0.00226769
0.00228698
0.00230627
0.00232556
0.00234485
0.00236413
0.00238341
0.00240269
0.00242197
0.00244124
0.00246051
0.00247978
0.00249905
0.00251831
0.00253757
0.00255683
0.00257609
0.00259534
0.00261459
0.00263384
0.00265309
0.00267233
0.00269157
0.0027108
0.00273004
0.00274927
0.0027685
0.00278772
0.00280695
0.00282617
0.00284538
0.0028646
0.00288381
0.00290301
0.00292222
0.00294142
0.00296062
0.00297981
0.00299901
0.00301819
0.00303738
0.00305656
0.00307574
0.00309492
0.00311409
0.00313326
0.00315242
0.00317159
0.00319075
0.0032099
0.00322905
0.0032482
0.00326735
0.00328649
0.00330563
0.00332476
0.00334389
0.00336302
0.00338214
0.00340126
0.00342038
0.00343949
0.0034586
0.0034777
0.0034968
0.0035159
0.00353499
0.00355408
0.00357317
0.00359225
0.00361133
0.0036304
0.00364947
0.00366854
0.0036876
0.00370665
0.00372571
0.00374475
0.0037638
0.00378284
0.00380187
0.00382091
0.00383993
0.00385895
0.00387797
0.00389699
0.003916
0.003935
0.003954
0.003973
0.00399199
0.00401097
0.00402996
0.00404893
0.00406791
0.00408687
0.00410584
0.0041248
0.00414375
0.0041627
0.00418164
0.00420058
0.00421951
0.00423844
0.00425736
0.00427628
0.0042952
0.0043141
0.00433301
0.00435191
0.0043708
0.00438969
0.00440857
0.00442744
0.00444632
0.00446518
0.00448404
0.0045029
0.00452175
0.00454059
0.00455943
0.00457826
0.00459709
0.00461591
0.00463472
0.00465353
0.00467234
0.00469114
0.00470993
0.00472871
0.00474749
0.00476627
0.00478504
0.0048038
0.00482255
0.0048413
0.00486005
0.00487879
0.00489752
0.00491624
0.00493496
0.00495367
0.00497238
0.00499108
0.00500977
0.00502845
0.00504713
0.00506581
0.00508447
0.00510313
0.00512178
0.00514043
0.00515907
0.0051777
0.00519632
0.00521494
0.00523355
0.00525216
0.00527075
0.00528934
0.00530792
0.0053265
0.00534507
0.00536363
0.00538218
0.00540072
0.00541926
0.00543779
0.00545631
0.00547483
0.00549334
0.00551184
0.00553033
0.00554881
0.00556729
0.00558575
0.00560421
0.00562266
0.00564111
0.00565954
0.00567797
0.00569639
0.0057148
0.0057332
0.00575159
0.00576998
0.00578836
0.00580672
0.00582508
0.00584343
0.00586177
0.00588011
0.00589843
0.00591675
0.00593505
0.00595335
0.00597163
0.00598991
0.00600818
0.00602644
0.00604469
0.00606293
0.00608116
0.00609938
0.0061176
0.0061358
0.00615399
0.00617217
0.00619035
0.00620851
0.00622666
0.0062448
0.00626294
0.00628106
0.00629917
0.00631727
0.00633536
0.00635344
0.00637151
0.00638957
0.00640762
0.00642565
0.00644368
0.00646169
0.0064797
0.00649769
0.00651567
0.00653364
0.0065516
0.00656955
0.00658749
0.00660541
0.00662332
0.00664122
0.00665911
0.00667699
0.00669485
0.00671271
0.00673055
0.00674837
0.00676619
0.00678399
0.00680178
0.00681956
0.00683733
0.00685508
0.00687282
0.00689054
0.00690826
0.00692595
0.00694364
0.00696131
0.00697897
0.00699662
0.00701425
0.00703187
0.00704947
0.00706706
0.00708464
0.0071022
0.00711974
0.00713728
0.00715479
0.0071723
0.00718978
0.00720726
0.00722472
0.00724216
0.00725958
0.007277
0.00729439
0.00731177
0.00732914
0.00734649
0.00736382
0.00738114
0.00739844
0.00741572
0.00743298
0.00744994
0.0074586
0.00725876
0.00529785
5.95605e-06
-0.00529068
-0.00725748
-0.00745852
-0.00744991
-0.00743295
-0.0074157
-0.00739841
-0.00738111
-0.0073638
-0.00734646
-0.00732911
-0.00731175
-0.00729437
-0.00727697
-0.00725956
-0.00724213
-0.00722469
-0.00720723
-0.00718976
-0.00717227
-0.00715477
-0.00713725
-0.00711972
-0.00710217
-0.00708461
-0.00706704
-0.00704945
-0.00703185
-0.00701423
-0.0069966
-0.00697895
-0.00696129
-0.00694362
-0.00692593
-0.00690823
-0.00689052
-0.00687279
-0.00685506
-0.0068373
-0.00681954
-0.00680176
-0.00678397
-0.00676617
-0.00674835
-0.00673052
-0.00671268
-0.00669483
-0.00667697
-0.00665909
-0.0066412
-0.0066233
-0.00660539
-0.00658747
-0.00656953
-0.00655158
-0.00653362
-0.00651565
-0.00649767
-0.00647968
-0.00646167
-0.00644366
-0.00642563
-0.0064076
-0.00638955
-0.00637149
-0.00635342
-0.00633534
-0.00631725
-0.00629915
-0.00628104
-0.00626292
-0.00624478
-0.00622664
-0.00620849
-0.00619033
-0.00617215
-0.00615397
-0.00613578
-0.00611758
-0.00609937
-0.00608114
-0.00606291
-0.00604467
-0.00602642
-0.00600816
-0.00598989
-0.00597162
-0.00595333
-0.00593503
-0.00591673
-0.00589841
-0.00588009
-0.00586176
-0.00584342
-0.00582507
-0.00580671
-0.00578834
-0.00576996
-0.00575158
-0.00573318
-0.00571478
-0.00569637
-0.00567795
-0.00565953
-0.00564109
-0.00562265
-0.0056042
-0.00558574
-0.00556727
-0.00554879
-0.00553031
-0.00551182
-0.00549332
-0.00547481
-0.0054563
-0.00543778
-0.00541925
-0.00540071
-0.00538216
-0.00536361
-0.00534505
-0.00532648
-0.00530791
-0.00528933
-0.00527074
-0.00525214
-0.00523354
-0.00521493
-0.00519631
-0.00517769
-0.00515905
-0.00514042
-0.00512177
-0.00510312
-0.00508446
-0.00506579
-0.00504712
-0.00502844
-0.00500975
-0.00499106
-0.00497236
-0.00495366
-0.00493495
-0.00491623
-0.0048975
-0.00487877
-0.00486003
-0.00484129
-0.00482254
-0.00480379
-0.00478502
-0.00476626
-0.00474748
-0.0047287
-0.00470992
-0.00469112
-0.00467233
-0.00465352
-0.00463471
-0.0046159
-0.00459708
-0.00457825
-0.00455942
-0.00454058
-0.00452173
-0.00450288
-0.00448403
-0.00446517
-0.0044463
-0.00442743
-0.00440856
-0.00438967
-0.00437079
-0.00435189
-0.004333
-0.00431409
-0.00429519
-0.00427627
-0.00425735
-0.00423843
-0.0042195
-0.00420057
-0.00418163
-0.00416269
-0.00414374
-0.00412479
-0.00410583
-0.00408686
-0.0040679
-0.00404892
-0.00402995
-0.00401097
-0.00399198
-0.00397299
-0.00395399
-0.00393499
-0.00391599
-0.00389698
-0.00387796
-0.00385895
-0.00383992
-0.0038209
-0.00380187
-0.00378283
-0.00376379
-0.00374475
-0.0037257
-0.00370665
-0.00368759
-0.00366853
-0.00364946
-0.00363039
-0.00361132
-0.00359224
-0.00357316
-0.00355408
-0.00353499
-0.00351589
-0.0034968
-0.0034777
-0.00345859
-0.00343948
-0.00342037
-0.00340126
-0.00338214
-0.00336301
-0.00334389
-0.00332475
-0.00330562
-0.00328648
-0.00326734
-0.0032482
-0.00322905
-0.0032099
-0.00319074
-0.00317158
-0.00315242
-0.00313325
-0.00311408
-0.00309491
-0.00307574
-0.00305656
-0.00303737
-0.00301819
-0.002999
-0.00297981
-0.00296061
-0.00294141
-0.00292221
-0.00290301
-0.0028838
-0.00286459
-0.00284538
-0.00282616
-0.00280694
-0.00278772
-0.00276849
-0.00274927
-0.00273003
-0.0027108
-0.00269156
-0.00267232
-0.00265308
-0.00263384
-0.00261459
-0.00259534
-0.00257608
-0.00255683
-0.00253757
-0.00251831
-0.00249905
-0.00247978
-0.00246051
-0.00244124
-0.00242197
-0.00240269
-0.00238341
-0.00236413
-0.00234485
-0.00232556
-0.00230627
-0.00228698
-0.00226769
-0.00224839
-0.00222909
-0.00220979
-0.00219049
-0.00217119
-0.00215188
-0.00213257
-0.00211326
-0.00209395
-0.00207463
-0.00205532
-0.002036
-0.00201668
-0.00199735
-0.00197803
-0.0019587
-0.00193937
-0.00192004
-0.00190071
-0.00188137
-0.00186204
-0.0018427
-0.00182336
-0.00180401
-0.00178467
-0.00176532
-0.00174598
-0.00172663
-0.00170728
-0.00168792
-0.00166857
-0.00164921
-0.00162985
-0.00161049
-0.00159113
-0.00157177
-0.00155241
-0.00153304
-0.00151367
-0.00149431
-0.00147494
-0.00145556
-0.00143619
-0.00141682
-0.00139744
-0.00137806
-0.00135869
-0.00133931
-0.00131993
-0.00130054
-0.00128116
-0.00126177
-0.00124239
-0.001223
-0.00120361
-0.00118422
-0.00116483
-0.00114544
-0.00112605
-0.00110665
-0.00108726
-0.00106786
-0.00104846
-0.00102907
-0.00100967
-0.000990267
-0.000970866
-0.000951463
-0.00093206
-0.000912656
-0.000893251
-0.000873846
-0.000854439
-0.000835032
-0.000815623
-0.000796214
-0.000776805
-0.000757394
-0.000737983
-0.000718571
-0.000699158
-0.000679745
-0.000660331
-0.000640916
-0.000621501
-0.000602085
-0.000582669
-0.000563252
-0.000543834
-0.000524416
-0.000504998
-0.000485579
-0.000466159
-0.000446739
-0.000427319
-0.000407898
-0.000388477
-0.000369055
-0.000349633
-0.000330211
-0.000310789
-0.000291366
-0.000271943
-0.000252519
-0.000233096
-0.000213672
-0.000194248
-0.000174824
-0.000155399
-0.000135975
-0.00011655
-9.71251e-05
-7.77002e-05
-5.82752e-05
-3.88502e-05
-1.94251e-05
)
;

boundaryField
{
    left
    {
        type            calculated;
        value           uniform 0;
    }
    right
    {
        type            calculated;
        value           uniform 0;
    }
    frontBackUpDown
    {
        type            empty;
    }
}


// ************************************************************************* //
