/*--------------------------------*- C++ -*----------------------------------*\
| =========                 |                                                 |
| \\      /  F ield         | OpenFOAM: The Open Source CFD Toolbox           |
|  \\    /   O peration     | Version:  2412                                  |
|   \\  /    A nd           | Website:  www.openfoam.com                      |
|    \\/     M anipulation  |                                                 |
\*---------------------------------------------------------------------------*/
FoamFile
{
    version     2.0;
    format      ascii;
    arch        "LSB;label=32;scalar=64";
    class       volVectorField;
    location    "0.97";
    object      U;
}
// * * * * * * * * * * * * * * * * * * * * * * * * * * * * * * * * * * * * * //

dimensions      [0 1 -1 0 0 0 0];

internalField   nonuniform List<vector> 
800
(
(0.000971247 0 0)
(0.00291375 0 0)
(0.00485626 0 0)
(0.00679876 0 0)
(0.00874126 0 0)
(0.0106837 0 0)
(0.0126262 0 0)
(0.0145687 0 0)
(0.0165111 0 0)
(0.0184536 0 0)
(0.020396 0 0)
(0.0223384 0 0)
(0.0242808 0 0)
(0.0262231 0 0)
(0.0281654 0 0)
(0.0301077 0 0)
(0.03205 0 0)
(0.0339922 0 0)
(0.0359345 0 0)
(0.0378766 0 0)
(0.0398188 0 0)
(0.0417609 0 0)
(0.0437029 0 0)
(0.0456449 0 0)
(0.0475869 0 0)
(0.0495288 0 0)
(0.0514707 0 0)
(0.0534126 0 0)
(0.0553543 0 0)
(0.0572961 0 0)
(0.0592377 0 0)
(0.0611794 0 0)
(0.0631209 0 0)
(0.0650624 0 0)
(0.0670038 0 0)
(0.0689452 0 0)
(0.0708865 0 0)
(0.0728277 0 0)
(0.0747689 0 0)
(0.07671 0 0)
(0.078651 0 0)
(0.080592 0 0)
(0.0825328 0 0)
(0.0844736 0 0)
(0.0864143 0 0)
(0.0883549 0 0)
(0.0902955 0 0)
(0.0922359 0 0)
(0.0941763 0 0)
(0.0961165 0 0)
(0.0980567 0 0)
(0.0999968 0 0)
(0.101937 0 0)
(0.103877 0 0)
(0.105816 0 0)
(0.107756 0 0)
(0.109696 0 0)
(0.111635 0 0)
(0.113575 0 0)
(0.115514 0 0)
(0.117453 0 0)
(0.119392 0 0)
(0.121331 0 0)
(0.12327 0 0)
(0.125208 0 0)
(0.127147 0 0)
(0.129085 0 0)
(0.131024 0 0)
(0.132962 0 0)
(0.1349 0 0)
(0.136838 0 0)
(0.138776 0 0)
(0.140713 0 0)
(0.142651 0 0)
(0.144588 0 0)
(0.146525 0 0)
(0.148462 0 0)
(0.150399 0 0)
(0.152336 0 0)
(0.154273 0 0)
(0.156209 0 0)
(0.158145 0 0)
(0.160082 0 0)
(0.162018 0 0)
(0.163954 0 0)
(0.165889 0 0)
(0.167825 0 0)
(0.16976 0 0)
(0.171695 0 0)
(0.17363 0 0)
(0.175565 0 0)
(0.1775 0 0)
(0.179434 0 0)
(0.181369 0 0)
(0.183303 0 0)
(0.185237 0 0)
(0.187171 0 0)
(0.189104 0 0)
(0.191038 0 0)
(0.192971 0 0)
(0.194904 0 0)
(0.196837 0 0)
(0.198769 0 0)
(0.200702 0 0)
(0.202634 0 0)
(0.204566 0 0)
(0.206498 0 0)
(0.208429 0 0)
(0.210361 0 0)
(0.212292 0 0)
(0.214223 0 0)
(0.216154 0 0)
(0.218084 0 0)
(0.220015 0 0)
(0.221945 0 0)
(0.223875 0 0)
(0.225804 0 0)
(0.227734 0 0)
(0.229663 0 0)
(0.231592 0 0)
(0.233521 0 0)
(0.235449 0 0)
(0.237377 0 0)
(0.239305 0 0)
(0.241233 0 0)
(0.243161 0 0)
(0.245088 0 0)
(0.247015 0 0)
(0.248942 0 0)
(0.250868 0 0)
(0.252794 0 0)
(0.25472 0 0)
(0.256646 0 0)
(0.258572 0 0)
(0.260497 0 0)
(0.262422 0 0)
(0.264346 0 0)
(0.266271 0 0)
(0.268195 0 0)
(0.270119 0 0)
(0.272042 0 0)
(0.273965 0 0)
(0.275888 0 0)
(0.277811 0 0)
(0.279734 0 0)
(0.281656 0 0)
(0.283577 0 0)
(0.285499 0 0)
(0.28742 0 0)
(0.289341 0 0)
(0.291262 0 0)
(0.293182 0 0)
(0.295102 0 0)
(0.297022 0 0)
(0.298941 0 0)
(0.30086 0 0)
(0.302779 0 0)
(0.304697 0 0)
(0.306615 0 0)
(0.308533 0 0)
(0.31045 0 0)
(0.312367 0 0)
(0.314284 0 0)
(0.316201 0 0)
(0.318117 0 0)
(0.320032 0 0)
(0.321948 0 0)
(0.323863 0 0)
(0.325778 0 0)
(0.327692 0 0)
(0.329606 0 0)
(0.331519 0 0)
(0.333433 0 0)
(0.335346 0 0)
(0.337258 0 0)
(0.33917 0 0)
(0.341082 0 0)
(0.342994 0 0)
(0.344905 0 0)
(0.346815 0 0)
(0.348726 0 0)
(0.350635 0 0)
(0.352545 0 0)
(0.354454 0 0)
(0.356363 0 0)
(0.358271 0 0)
(0.360179 0 0)
(0.362087 0 0)
(0.363994 0 0)
(0.3659 0 0)
(0.367807 0 0)
(0.369713 0 0)
(0.371618 0 0)
(0.373523 0 0)
(0.375428 0 0)
(0.377332 0 0)
(0.379236 0 0)
(0.381139 0 0)
(0.383042 0 0)
(0.384944 0 0)
(0.386847 0 0)
(0.388748 0 0)
(0.390649 0 0)
(0.39255 0 0)
(0.39445 0 0)
(0.39635 0 0)
(0.398249 0 0)
(0.400148 0 0)
(0.402047 0 0)
(0.403945 0 0)
(0.405842 0 0)
(0.407739 0 0)
(0.409636 0 0)
(0.411532 0 0)
(0.413427 0 0)
(0.415322 0 0)
(0.417217 0 0)
(0.419111 0 0)
(0.421005 0 0)
(0.422898 0 0)
(0.42479 0 0)
(0.426682 0 0)
(0.428574 0 0)
(0.430465 0 0)
(0.432356 0 0)
(0.434246 0 0)
(0.436135 0 0)
(0.438024 0 0)
(0.439913 0 0)
(0.441801 0 0)
(0.443688 0 0)
(0.445575 0 0)
(0.447461 0 0)
(0.449347 0 0)
(0.451232 0 0)
(0.453117 0 0)
(0.455001 0 0)
(0.456885 0 0)
(0.458768 0 0)
(0.46065 0 0)
(0.462532 0 0)
(0.464413 0 0)
(0.466294 0 0)
(0.468174 0 0)
(0.470053 0 0)
(0.471932 0 0)
(0.473811 0 0)
(0.475688 0 0)
(0.477565 0 0)
(0.479442 0 0)
(0.481318 0 0)
(0.483193 0 0)
(0.485068 0 0)
(0.486942 0 0)
(0.488815 0 0)
(0.490688 0 0)
(0.49256 0 0)
(0.494432 0 0)
(0.496303 0 0)
(0.498173 0 0)
(0.500042 0 0)
(0.501911 0 0)
(0.50378 0 0)
(0.505647 0 0)
(0.507514 0 0)
(0.50938 0 0)
(0.511246 0 0)
(0.513111 0 0)
(0.514975 0 0)
(0.516839 0 0)
(0.518701 0 0)
(0.520564 0 0)
(0.522425 0 0)
(0.524286 0 0)
(0.526146 0 0)
(0.528005 0 0)
(0.529864 0 0)
(0.531721 0 0)
(0.533578 0 0)
(0.535435 0 0)
(0.53729 0 0)
(0.539145 0 0)
(0.541 0 0)
(0.542853 0 0)
(0.544706 0 0)
(0.546557 0 0)
(0.548408 0 0)
(0.550259 0 0)
(0.552108 0 0)
(0.553957 0 0)
(0.555805 0 0)
(0.557652 0 0)
(0.559499 0 0)
(0.561344 0 0)
(0.563189 0 0)
(0.565033 0 0)
(0.566876 0 0)
(0.568718 0 0)
(0.57056 0 0)
(0.5724 0 0)
(0.57424 0 0)
(0.576079 0 0)
(0.577917 0 0)
(0.579754 0 0)
(0.581591 0 0)
(0.583426 0 0)
(0.585261 0 0)
(0.587094 0 0)
(0.588927 0 0)
(0.590759 0 0)
(0.59259 0 0)
(0.59442 0 0)
(0.596249 0 0)
(0.598078 0 0)
(0.599905 0 0)
(0.601731 0 0)
(0.603557 0 0)
(0.605381 0 0)
(0.607205 0 0)
(0.609028 0 0)
(0.610849 0 0)
(0.61267 0 0)
(0.61449 0 0)
(0.616308 0 0)
(0.618126 0 0)
(0.619943 0 0)
(0.621759 0 0)
(0.623573 0 0)
(0.625387 0 0)
(0.6272 0 0)
(0.629012 0 0)
(0.630822 0 0)
(0.632632 0 0)
(0.63444 0 0)
(0.636248 0 0)
(0.638054 0 0)
(0.63986 0 0)
(0.641664 0 0)
(0.643467 0 0)
(0.645269 0 0)
(0.64707 0 0)
(0.64887 0 0)
(0.650669 0 0)
(0.652466 0 0)
(0.654263 0 0)
(0.656058 0 0)
(0.657852 0 0)
(0.659645 0 0)
(0.661437 0 0)
(0.663228 0 0)
(0.665017 0 0)
(0.666805 0 0)
(0.668592 0 0)
(0.670378 0 0)
(0.672163 0 0)
(0.673946 0 0)
(0.675728 0 0)
(0.677509 0 0)
(0.679289 0 0)
(0.681067 0 0)
(0.682845 0 0)
(0.68462 0 0)
(0.686395 0 0)
(0.688168 0 0)
(0.68994 0 0)
(0.691711 0 0)
(0.69348 0 0)
(0.695248 0 0)
(0.697015 0 0)
(0.69878 0 0)
(0.700544 0 0)
(0.702306 0 0)
(0.704067 0 0)
(0.705827 0 0)
(0.707585 0 0)
(0.709342 0 0)
(0.711097 0 0)
(0.712851 0 0)
(0.714604 0 0)
(0.716355 0 0)
(0.718104 0 0)
(0.719852 0 0)
(0.721599 0 0)
(0.723344 0 0)
(0.725088 0 0)
(0.726829 0 0)
(0.72857 0 0)
(0.730309 0 0)
(0.732046 0 0)
(0.733782 0 0)
(0.735516 0 0)
(0.737248 0 0)
(0.738979 0 0)
(0.740708 0 0)
(0.742436 0 0)
(0.744159 0 0)
(0.745828 0 0)
(0.745892 0 0)
(0.70586 0 0)
(0.353709 0 0)
(-0.352518 0 0)
(-0.705619 0 0)
(-0.745878 0 0)
(-0.745825 0 0)
(-0.744157 0 0)
(-0.742433 0 0)
(-0.740706 0 0)
(-0.738977 0 0)
(-0.737246 0 0)
(-0.735513 0 0)
(-0.733779 0 0)
(-0.732044 0 0)
(-0.730306 0 0)
(-0.728568 0 0)
(-0.726827 0 0)
(-0.725085 0 0)
(-0.723342 0 0)
(-0.721597 0 0)
(-0.71985 0 0)
(-0.718102 0 0)
(-0.716353 0 0)
(-0.714602 0 0)
(-0.712849 0 0)
(-0.711095 0 0)
(-0.70934 0 0)
(-0.707583 0 0)
(-0.705825 0 0)
(-0.704065 0 0)
(-0.702304 0 0)
(-0.700542 0 0)
(-0.698778 0 0)
(-0.697012 0 0)
(-0.695246 0 0)
(-0.693478 0 0)
(-0.691709 0 0)
(-0.689938 0 0)
(-0.688166 0 0)
(-0.686393 0 0)
(-0.684618 0 0)
(-0.682842 0 0)
(-0.681065 0 0)
(-0.679287 0 0)
(-0.677507 0 0)
(-0.675726 0 0)
(-0.673944 0 0)
(-0.672161 0 0)
(-0.670376 0 0)
(-0.66859 0 0)
(-0.666803 0 0)
(-0.665015 0 0)
(-0.663225 0 0)
(-0.661435 0 0)
(-0.659643 0 0)
(-0.65785 0 0)
(-0.656056 0 0)
(-0.654261 0 0)
(-0.652464 0 0)
(-0.650667 0 0)
(-0.648868 0 0)
(-0.647068 0 0)
(-0.645267 0 0)
(-0.643465 0 0)
(-0.641662 0 0)
(-0.639858 0 0)
(-0.638052 0 0)
(-0.636246 0 0)
(-0.634438 0 0)
(-0.63263 0 0)
(-0.63082 0 0)
(-0.62901 0 0)
(-0.627198 0 0)
(-0.625385 0 0)
(-0.623572 0 0)
(-0.621757 0 0)
(-0.619941 0 0)
(-0.618124 0 0)
(-0.616307 0 0)
(-0.614488 0 0)
(-0.612668 0 0)
(-0.610847 0 0)
(-0.609026 0 0)
(-0.607203 0 0)
(-0.60538 0 0)
(-0.603555 0 0)
(-0.60173 0 0)
(-0.599903 0 0)
(-0.598076 0 0)
(-0.596248 0 0)
(-0.594418 0 0)
(-0.592588 0 0)
(-0.590757 0 0)
(-0.588925 0 0)
(-0.587093 0 0)
(-0.585259 0 0)
(-0.583424 0 0)
(-0.581589 0 0)
(-0.579752 0 0)
(-0.577915 0 0)
(-0.576077 0 0)
(-0.574238 0 0)
(-0.572399 0 0)
(-0.570558 0 0)
(-0.568717 0 0)
(-0.566874 0 0)
(-0.565031 0 0)
(-0.563187 0 0)
(-0.561342 0 0)
(-0.559497 0 0)
(-0.557651 0 0)
(-0.555803 0 0)
(-0.553955 0 0)
(-0.552107 0 0)
(-0.550257 0 0)
(-0.548407 0 0)
(-0.546556 0 0)
(-0.544704 0 0)
(-0.542851 0 0)
(-0.540998 0 0)
(-0.539144 0 0)
(-0.537289 0 0)
(-0.535433 0 0)
(-0.533577 0 0)
(-0.53172 0 0)
(-0.529862 0 0)
(-0.528003 0 0)
(-0.526144 0 0)
(-0.524284 0 0)
(-0.522423 0 0)
(-0.520562 0 0)
(-0.5187 0 0)
(-0.516837 0 0)
(-0.514974 0 0)
(-0.513109 0 0)
(-0.511245 0 0)
(-0.509379 0 0)
(-0.507513 0 0)
(-0.505646 0 0)
(-0.503778 0 0)
(-0.50191 0 0)
(-0.500041 0 0)
(-0.498171 0 0)
(-0.496301 0 0)
(-0.49443 0 0)
(-0.492559 0 0)
(-0.490687 0 0)
(-0.488814 0 0)
(-0.486941 0 0)
(-0.485066 0 0)
(-0.483192 0 0)
(-0.481317 0 0)
(-0.479441 0 0)
(-0.477564 0 0)
(-0.475687 0 0)
(-0.473809 0 0)
(-0.471931 0 0)
(-0.470052 0 0)
(-0.468173 0 0)
(-0.466292 0 0)
(-0.464412 0 0)
(-0.462531 0 0)
(-0.460649 0 0)
(-0.458766 0 0)
(-0.456883 0 0)
(-0.455 0 0)
(-0.453116 0 0)
(-0.451231 0 0)
(-0.449346 0 0)
(-0.44746 0 0)
(-0.445574 0 0)
(-0.443687 0 0)
(-0.4418 0 0)
(-0.439912 0 0)
(-0.438023 0 0)
(-0.436134 0 0)
(-0.434245 0 0)
(-0.432355 0 0)
(-0.430464 0 0)
(-0.428573 0 0)
(-0.426681 0 0)
(-0.424789 0 0)
(-0.422897 0 0)
(-0.421004 0 0)
(-0.41911 0 0)
(-0.417216 0 0)
(-0.415321 0 0)
(-0.413426 0 0)
(-0.411531 0 0)
(-0.409635 0 0)
(-0.407738 0 0)
(-0.405841 0 0)
(-0.403944 0 0)
(-0.402046 0 0)
(-0.400147 0 0)
(-0.398248 0 0)
(-0.396349 0 0)
(-0.394449 0 0)
(-0.392549 0 0)
(-0.390648 0 0)
(-0.388747 0 0)
(-0.386846 0 0)
(-0.384944 0 0)
(-0.383041 0 0)
(-0.381138 0 0)
(-0.379235 0 0)
(-0.377331 0 0)
(-0.375427 0 0)
(-0.373522 0 0)
(-0.371617 0 0)
(-0.369712 0 0)
(-0.367806 0 0)
(-0.3659 0 0)
(-0.363993 0 0)
(-0.362086 0 0)
(-0.360178 0 0)
(-0.35827 0 0)
(-0.356362 0 0)
(-0.354453 0 0)
(-0.352544 0 0)
(-0.350635 0 0)
(-0.348725 0 0)
(-0.346815 0 0)
(-0.344904 0 0)
(-0.342993 0 0)
(-0.341081 0 0)
(-0.33917 0 0)
(-0.337258 0 0)
(-0.335345 0 0)
(-0.333432 0 0)
(-0.331519 0 0)
(-0.329605 0 0)
(-0.327691 0 0)
(-0.325777 0 0)
(-0.323862 0 0)
(-0.321947 0 0)
(-0.320032 0 0)
(-0.318116 0 0)
(-0.3162 0 0)
(-0.314284 0 0)
(-0.312367 0 0)
(-0.31045 0 0)
(-0.308532 0 0)
(-0.306615 0 0)
(-0.304697 0 0)
(-0.302778 0 0)
(-0.300859 0 0)
(-0.29894 0 0)
(-0.297021 0 0)
(-0.295101 0 0)
(-0.293181 0 0)
(-0.291261 0 0)
(-0.289341 0 0)
(-0.28742 0 0)
(-0.285498 0 0)
(-0.283577 0 0)
(-0.281655 0 0)
(-0.279733 0 0)
(-0.277811 0 0)
(-0.275888 0 0)
(-0.273965 0 0)
(-0.272042 0 0)
(-0.270118 0 0)
(-0.268194 0 0)
(-0.26627 0 0)
(-0.264346 0 0)
(-0.262421 0 0)
(-0.260496 0 0)
(-0.258571 0 0)
(-0.256646 0 0)
(-0.25472 0 0)
(-0.252794 0 0)
(-0.250868 0 0)
(-0.248941 0 0)
(-0.247015 0 0)
(-0.245088 0 0)
(-0.24316 0 0)
(-0.241233 0 0)
(-0.239305 0 0)
(-0.237377 0 0)
(-0.235449 0 0)
(-0.23352 0 0)
(-0.231592 0 0)
(-0.229663 0 0)
(-0.227733 0 0)
(-0.225804 0 0)
(-0.223874 0 0)
(-0.221944 0 0)
(-0.220014 0 0)
(-0.218084 0 0)
(-0.216154 0 0)
(-0.214223 0 0)
(-0.212292 0 0)
(-0.210361 0 0)
(-0.208429 0 0)
(-0.206498 0 0)
(-0.204566 0 0)
(-0.202634 0 0)
(-0.200702 0 0)
(-0.198769 0 0)
(-0.196836 0 0)
(-0.194904 0 0)
(-0.192971 0 0)
(-0.191037 0 0)
(-0.189104 0 0)
(-0.18717 0 0)
(-0.185237 0 0)
(-0.183303 0 0)
(-0.181369 0 0)
(-0.179434 0 0)
(-0.1775 0 0)
(-0.175565 0 0)
(-0.17363 0 0)
(-0.171695 0 0)
(-0.16976 0 0)
(-0.167825 0 0)
(-0.165889 0 0)
(-0.163953 0 0)
(-0.162018 0 0)
(-0.160081 0 0)
(-0.158145 0 0)
(-0.156209 0 0)
(-0.154273 0 0)
(-0.152336 0 0)
(-0.150399 0 0)
(-0.148462 0 0)
(-0.146525 0 0)
(-0.144588 0 0)
(-0.142651 0 0)
(-0.140713 0 0)
(-0.138775 0 0)
(-0.136838 0 0)
(-0.1349 0 0)
(-0.132962 0 0)
(-0.131023 0 0)
(-0.129085 0 0)
(-0.127147 0 0)
(-0.125208 0 0)
(-0.12327 0 0)
(-0.121331 0 0)
(-0.119392 0 0)
(-0.117453 0 0)
(-0.115514 0 0)
(-0.113574 0 0)
(-0.111635 0 0)
(-0.109696 0 0)
(-0.107756 0 0)
(-0.105816 0 0)
(-0.103877 0 0)
(-0.101937 0 0)
(-0.0999967 0 0)
(-0.0980567 0 0)
(-0.0961165 0 0)
(-0.0941762 0 0)
(-0.0922359 0 0)
(-0.0902954 0 0)
(-0.0883549 0 0)
(-0.0864143 0 0)
(-0.0844736 0 0)
(-0.0825328 0 0)
(-0.0805919 0 0)
(-0.078651 0 0)
(-0.07671 0 0)
(-0.0747689 0 0)
(-0.0728277 0 0)
(-0.0708865 0 0)
(-0.0689452 0 0)
(-0.0670038 0 0)
(-0.0650624 0 0)
(-0.0631209 0 0)
(-0.0611793 0 0)
(-0.0592377 0 0)
(-0.057296 0 0)
(-0.0553543 0 0)
(-0.0534125 0 0)
(-0.0514707 0 0)
(-0.0495288 0 0)
(-0.0475869 0 0)
(-0.0456449 0 0)
(-0.0437029 0 0)
(-0.0417609 0 0)
(-0.0398188 0 0)
(-0.0378766 0 0)
(-0.0359345 0 0)
(-0.0339922 0 0)
(-0.03205 0 0)
(-0.0301077 0 0)
(-0.0281654 0 0)
(-0.0262231 0 0)
(-0.0242808 0 0)
(-0.0223384 0 0)
(-0.020396 0 0)
(-0.0184536 0 0)
(-0.0165111 0 0)
(-0.0145687 0 0)
(-0.0126262 0 0)
(-0.0106837 0 0)
(-0.00874126 0 0)
(-0.00679877 0 0)
(-0.00485627 0 0)
(-0.00291376 0 0)
(-0.000971254 0 0)
)
;

boundaryField
{
    left
    {
        type            fixedValue;
        value           uniform (0 0 0);
    }
    right
    {
        type            fixedValue;
        value           uniform (0 0 0);
    }
    frontBackUpDown
    {
        type            empty;
    }
}


// ************************************************************************* //
