/*--------------------------------*- C++ -*----------------------------------*\
| =========                 |                                                 |
| \\      /  F ield         | OpenFOAM: The Open Source CFD Toolbox           |
|  \\    /   O peration     | Version:  2412                                  |
|   \\  /    A nd           | Website:  www.openfoam.com                      |
|    \\/     M anipulation  |                                                 |
\*---------------------------------------------------------------------------*/
FoamFile
{
    version     2.0;
    format      ascii;
    arch        "LSB;label=32;scalar=64";
    class       volVectorField;
    location    "0.97";
    object      U_0;
}
// * * * * * * * * * * * * * * * * * * * * * * * * * * * * * * * * * * * * * //

dimensions      [0 1 -1 0 0 0 0];

internalField   nonuniform List<vector> 
800
(
(0.000971624 0 0)
(0.00291488 0 0)
(0.00485814 0 0)
(0.0068014 0 0)
(0.00874465 0 0)
(0.0106879 0 0)
(0.0126311 0 0)
(0.0145743 0 0)
(0.0165175 0 0)
(0.0184607 0 0)
(0.0204039 0 0)
(0.022347 0 0)
(0.0242902 0 0)
(0.0262333 0 0)
(0.0281764 0 0)
(0.0301194 0 0)
(0.0320624 0 0)
(0.0340054 0 0)
(0.0359484 0 0)
(0.0378913 0 0)
(0.0398342 0 0)
(0.0417771 0 0)
(0.0437199 0 0)
(0.0456626 0 0)
(0.0476054 0 0)
(0.049548 0 0)
(0.0514907 0 0)
(0.0534333 0 0)
(0.0553758 0 0)
(0.0573183 0 0)
(0.0592607 0 0)
(0.0612031 0 0)
(0.0631454 0 0)
(0.0650876 0 0)
(0.0670298 0 0)
(0.0689719 0 0)
(0.070914 0 0)
(0.072856 0 0)
(0.0747979 0 0)
(0.0767397 0 0)
(0.0786815 0 0)
(0.0806232 0 0)
(0.0825648 0 0)
(0.0845063 0 0)
(0.0864478 0 0)
(0.0883892 0 0)
(0.0903304 0 0)
(0.0922716 0 0)
(0.0942128 0 0)
(0.0961538 0 0)
(0.0980947 0 0)
(0.100036 0 0)
(0.101976 0 0)
(0.103917 0 0)
(0.105857 0 0)
(0.107798 0 0)
(0.109738 0 0)
(0.111678 0 0)
(0.113619 0 0)
(0.115559 0 0)
(0.117498 0 0)
(0.119438 0 0)
(0.121378 0 0)
(0.123317 0 0)
(0.125257 0 0)
(0.127196 0 0)
(0.129135 0 0)
(0.131074 0 0)
(0.133013 0 0)
(0.134952 0 0)
(0.136891 0 0)
(0.138829 0 0)
(0.140768 0 0)
(0.142706 0 0)
(0.144644 0 0)
(0.146582 0 0)
(0.14852 0 0)
(0.150457 0 0)
(0.152395 0 0)
(0.154332 0 0)
(0.15627 0 0)
(0.158207 0 0)
(0.160144 0 0)
(0.16208 0 0)
(0.164017 0 0)
(0.165953 0 0)
(0.16789 0 0)
(0.169826 0 0)
(0.171762 0 0)
(0.173697 0 0)
(0.175633 0 0)
(0.177568 0 0)
(0.179504 0 0)
(0.181439 0 0)
(0.183374 0 0)
(0.185308 0 0)
(0.187243 0 0)
(0.189177 0 0)
(0.191111 0 0)
(0.193045 0 0)
(0.194979 0 0)
(0.196913 0 0)
(0.198846 0 0)
(0.200779 0 0)
(0.202712 0 0)
(0.204645 0 0)
(0.206577 0 0)
(0.20851 0 0)
(0.210442 0 0)
(0.212374 0 0)
(0.214306 0 0)
(0.216237 0 0)
(0.218168 0 0)
(0.220099 0 0)
(0.22203 0 0)
(0.223961 0 0)
(0.225891 0 0)
(0.227821 0 0)
(0.229751 0 0)
(0.231681 0 0)
(0.233611 0 0)
(0.23554 0 0)
(0.237469 0 0)
(0.239397 0 0)
(0.241326 0 0)
(0.243254 0 0)
(0.245182 0 0)
(0.24711 0 0)
(0.249037 0 0)
(0.250965 0 0)
(0.252892 0 0)
(0.254818 0 0)
(0.256745 0 0)
(0.258671 0 0)
(0.260597 0 0)
(0.262523 0 0)
(0.264448 0 0)
(0.266373 0 0)
(0.268298 0 0)
(0.270222 0 0)
(0.272147 0 0)
(0.274071 0 0)
(0.275994 0 0)
(0.277918 0 0)
(0.279841 0 0)
(0.281764 0 0)
(0.283686 0 0)
(0.285608 0 0)
(0.28753 0 0)
(0.289452 0 0)
(0.291373 0 0)
(0.293294 0 0)
(0.295215 0 0)
(0.297135 0 0)
(0.299056 0 0)
(0.300975 0 0)
(0.302895 0 0)
(0.304814 0 0)
(0.306733 0 0)
(0.308651 0 0)
(0.310569 0 0)
(0.312487 0 0)
(0.314404 0 0)
(0.316322 0 0)
(0.318238 0 0)
(0.320155 0 0)
(0.322071 0 0)
(0.323987 0 0)
(0.325902 0 0)
(0.327817 0 0)
(0.329732 0 0)
(0.331646 0 0)
(0.33356 0 0)
(0.335474 0 0)
(0.337387 0 0)
(0.3393 0 0)
(0.341212 0 0)
(0.343124 0 0)
(0.345036 0 0)
(0.346948 0 0)
(0.348858 0 0)
(0.350769 0 0)
(0.352679 0 0)
(0.354589 0 0)
(0.356499 0 0)
(0.358408 0 0)
(0.360316 0 0)
(0.362224 0 0)
(0.364132 0 0)
(0.36604 0 0)
(0.367947 0 0)
(0.369853 0 0)
(0.371759 0 0)
(0.373665 0 0)
(0.37557 0 0)
(0.377475 0 0)
(0.37938 0 0)
(0.381284 0 0)
(0.383188 0 0)
(0.385091 0 0)
(0.386993 0 0)
(0.388896 0 0)
(0.390798 0 0)
(0.392699 0 0)
(0.3946 0 0)
(0.3965 0 0)
(0.3984 0 0)
(0.4003 0 0)
(0.402199 0 0)
(0.404098 0 0)
(0.405996 0 0)
(0.407894 0 0)
(0.409791 0 0)
(0.411687 0 0)
(0.413584 0 0)
(0.41548 0 0)
(0.417375 0 0)
(0.41927 0 0)
(0.421164 0 0)
(0.423058 0 0)
(0.424951 0 0)
(0.426844 0 0)
(0.428736 0 0)
(0.430628 0 0)
(0.432519 0 0)
(0.43441 0 0)
(0.4363 0 0)
(0.438189 0 0)
(0.440079 0 0)
(0.441967 0 0)
(0.443855 0 0)
(0.445743 0 0)
(0.44763 0 0)
(0.449516 0 0)
(0.451402 0 0)
(0.453287 0 0)
(0.455172 0 0)
(0.457056 0 0)
(0.45894 0 0)
(0.460823 0 0)
(0.462706 0 0)
(0.464587 0 0)
(0.466469 0 0)
(0.46835 0 0)
(0.47023 0 0)
(0.472109 0 0)
(0.473988 0 0)
(0.475867 0 0)
(0.477744 0 0)
(0.479622 0 0)
(0.481498 0 0)
(0.483374 0 0)
(0.485249 0 0)
(0.487124 0 0)
(0.488998 0 0)
(0.490871 0 0)
(0.492744 0 0)
(0.494616 0 0)
(0.496488 0 0)
(0.498359 0 0)
(0.500229 0 0)
(0.502099 0 0)
(0.503967 0 0)
(0.505836 0 0)
(0.507703 0 0)
(0.50957 0 0)
(0.511436 0 0)
(0.513302 0 0)
(0.515167 0 0)
(0.517031 0 0)
(0.518894 0 0)
(0.520757 0 0)
(0.522619 0 0)
(0.52448 0 0)
(0.526341 0 0)
(0.528201 0 0)
(0.53006 0 0)
(0.531919 0 0)
(0.533776 0 0)
(0.535633 0 0)
(0.53749 0 0)
(0.539345 0 0)
(0.5412 0 0)
(0.543054 0 0)
(0.544907 0 0)
(0.546759 0 0)
(0.548611 0 0)
(0.550462 0 0)
(0.552312 0 0)
(0.554162 0 0)
(0.55601 0 0)
(0.557858 0 0)
(0.559705 0 0)
(0.561551 0 0)
(0.563396 0 0)
(0.565241 0 0)
(0.567084 0 0)
(0.568927 0 0)
(0.570769 0 0)
(0.572611 0 0)
(0.574451 0 0)
(0.57629 0 0)
(0.578129 0 0)
(0.579967 0 0)
(0.581804 0 0)
(0.58364 0 0)
(0.585475 0 0)
(0.587309 0 0)
(0.589143 0 0)
(0.590975 0 0)
(0.592807 0 0)
(0.594637 0 0)
(0.596467 0 0)
(0.598296 0 0)
(0.600124 0 0)
(0.601951 0 0)
(0.603777 0 0)
(0.605602 0 0)
(0.607426 0 0)
(0.609249 0 0)
(0.611071 0 0)
(0.612893 0 0)
(0.614713 0 0)
(0.616532 0 0)
(0.618351 0 0)
(0.620168 0 0)
(0.621984 0 0)
(0.623799 0 0)
(0.625614 0 0)
(0.627427 0 0)
(0.629239 0 0)
(0.63105 0 0)
(0.63286 0 0)
(0.634669 0 0)
(0.636477 0 0)
(0.638284 0 0)
(0.64009 0 0)
(0.641895 0 0)
(0.643699 0 0)
(0.645501 0 0)
(0.647303 0 0)
(0.649103 0 0)
(0.650902 0 0)
(0.6527 0 0)
(0.654497 0 0)
(0.656293 0 0)
(0.658088 0 0)
(0.659881 0 0)
(0.661674 0 0)
(0.663465 0 0)
(0.665255 0 0)
(0.667043 0 0)
(0.668831 0 0)
(0.670617 0 0)
(0.672402 0 0)
(0.674186 0 0)
(0.675969 0 0)
(0.67775 0 0)
(0.67953 0 0)
(0.681309 0 0)
(0.683087 0 0)
(0.684863 0 0)
(0.686638 0 0)
(0.688412 0 0)
(0.690184 0 0)
(0.691955 0 0)
(0.693725 0 0)
(0.695493 0 0)
(0.69726 0 0)
(0.699026 0 0)
(0.70079 0 0)
(0.702553 0 0)
(0.704315 0 0)
(0.706075 0 0)
(0.707834 0 0)
(0.709591 0 0)
(0.711347 0 0)
(0.713101 0 0)
(0.714854 0 0)
(0.716605 0 0)
(0.718355 0 0)
(0.720104 0 0)
(0.721851 0 0)
(0.723596 0 0)
(0.72534 0 0)
(0.727082 0 0)
(0.728823 0 0)
(0.730562 0 0)
(0.7323 0 0)
(0.734036 0 0)
(0.73577 0 0)
(0.737503 0 0)
(0.739234 0 0)
(0.740964 0 0)
(0.742692 0 0)
(0.744416 0 0)
(0.746085 0 0)
(0.74616 0 0)
(0.7062 0 0)
(0.353952 0 0)
(-0.352761 0 0)
(-0.705959 0 0)
(-0.746147 0 0)
(-0.746083 0 0)
(-0.744414 0 0)
(-0.742689 0 0)
(-0.740962 0 0)
(-0.739232 0 0)
(-0.737501 0 0)
(-0.735768 0 0)
(-0.734034 0 0)
(-0.732298 0 0)
(-0.73056 0 0)
(-0.728821 0 0)
(-0.72708 0 0)
(-0.725338 0 0)
(-0.723594 0 0)
(-0.721848 0 0)
(-0.720101 0 0)
(-0.718353 0 0)
(-0.716603 0 0)
(-0.714852 0 0)
(-0.713099 0 0)
(-0.711344 0 0)
(-0.709589 0 0)
(-0.707831 0 0)
(-0.706073 0 0)
(-0.704313 0 0)
(-0.702551 0 0)
(-0.700788 0 0)
(-0.699024 0 0)
(-0.697258 0 0)
(-0.695491 0 0)
(-0.693723 0 0)
(-0.691953 0 0)
(-0.690182 0 0)
(-0.68841 0 0)
(-0.686636 0 0)
(-0.684861 0 0)
(-0.683085 0 0)
(-0.681307 0 0)
(-0.679528 0 0)
(-0.677748 0 0)
(-0.675967 0 0)
(-0.674184 0 0)
(-0.6724 0 0)
(-0.670615 0 0)
(-0.668829 0 0)
(-0.667041 0 0)
(-0.665253 0 0)
(-0.663463 0 0)
(-0.661671 0 0)
(-0.659879 0 0)
(-0.658086 0 0)
(-0.656291 0 0)
(-0.654495 0 0)
(-0.652698 0 0)
(-0.6509 0 0)
(-0.649101 0 0)
(-0.647301 0 0)
(-0.645499 0 0)
(-0.643697 0 0)
(-0.641893 0 0)
(-0.640088 0 0)
(-0.638282 0 0)
(-0.636475 0 0)
(-0.634667 0 0)
(-0.632858 0 0)
(-0.631048 0 0)
(-0.629237 0 0)
(-0.627425 0 0)
(-0.625612 0 0)
(-0.623798 0 0)
(-0.621982 0 0)
(-0.620166 0 0)
(-0.618349 0 0)
(-0.61653 0 0)
(-0.614711 0 0)
(-0.612891 0 0)
(-0.61107 0 0)
(-0.609247 0 0)
(-0.607424 0 0)
(-0.6056 0 0)
(-0.603775 0 0)
(-0.601949 0 0)
(-0.600122 0 0)
(-0.598294 0 0)
(-0.596465 0 0)
(-0.594636 0 0)
(-0.592805 0 0)
(-0.590973 0 0)
(-0.589141 0 0)
(-0.587307 0 0)
(-0.585473 0 0)
(-0.583638 0 0)
(-0.581802 0 0)
(-0.579965 0 0)
(-0.578127 0 0)
(-0.576289 0 0)
(-0.574449 0 0)
(-0.572609 0 0)
(-0.570768 0 0)
(-0.568926 0 0)
(-0.567083 0 0)
(-0.565239 0 0)
(-0.563395 0 0)
(-0.561549 0 0)
(-0.559703 0 0)
(-0.557856 0 0)
(-0.556008 0 0)
(-0.55416 0 0)
(-0.552311 0 0)
(-0.55046 0 0)
(-0.54861 0 0)
(-0.546758 0 0)
(-0.544905 0 0)
(-0.543052 0 0)
(-0.541198 0 0)
(-0.539344 0 0)
(-0.537488 0 0)
(-0.535632 0 0)
(-0.533775 0 0)
(-0.531917 0 0)
(-0.530059 0 0)
(-0.528199 0 0)
(-0.52634 0 0)
(-0.524479 0 0)
(-0.522618 0 0)
(-0.520756 0 0)
(-0.518893 0 0)
(-0.517029 0 0)
(-0.515165 0 0)
(-0.5133 0 0)
(-0.511435 0 0)
(-0.509569 0 0)
(-0.507702 0 0)
(-0.505834 0 0)
(-0.503966 0 0)
(-0.502097 0 0)
(-0.500228 0 0)
(-0.498357 0 0)
(-0.496487 0 0)
(-0.494615 0 0)
(-0.492743 0 0)
(-0.49087 0 0)
(-0.488997 0 0)
(-0.487123 0 0)
(-0.485248 0 0)
(-0.483373 0 0)
(-0.481497 0 0)
(-0.47962 0 0)
(-0.477743 0 0)
(-0.475865 0 0)
(-0.473987 0 0)
(-0.472108 0 0)
(-0.470228 0 0)
(-0.468348 0 0)
(-0.466468 0 0)
(-0.464586 0 0)
(-0.462704 0 0)
(-0.460822 0 0)
(-0.458939 0 0)
(-0.457055 0 0)
(-0.455171 0 0)
(-0.453286 0 0)
(-0.451401 0 0)
(-0.449515 0 0)
(-0.447629 0 0)
(-0.445742 0 0)
(-0.443854 0 0)
(-0.441966 0 0)
(-0.440078 0 0)
(-0.438188 0 0)
(-0.436299 0 0)
(-0.434409 0 0)
(-0.432518 0 0)
(-0.430627 0 0)
(-0.428735 0 0)
(-0.426843 0 0)
(-0.42495 0 0)
(-0.423057 0 0)
(-0.421163 0 0)
(-0.419269 0 0)
(-0.417374 0 0)
(-0.415479 0 0)
(-0.413583 0 0)
(-0.411687 0 0)
(-0.40979 0 0)
(-0.407893 0 0)
(-0.405995 0 0)
(-0.404097 0 0)
(-0.402198 0 0)
(-0.400299 0 0)
(-0.3984 0 0)
(-0.396499 0 0)
(-0.394599 0 0)
(-0.392698 0 0)
(-0.390797 0 0)
(-0.388895 0 0)
(-0.386993 0 0)
(-0.38509 0 0)
(-0.383187 0 0)
(-0.381283 0 0)
(-0.379379 0 0)
(-0.377475 0 0)
(-0.37557 0 0)
(-0.373664 0 0)
(-0.371759 0 0)
(-0.369852 0 0)
(-0.367946 0 0)
(-0.366039 0 0)
(-0.364131 0 0)
(-0.362224 0 0)
(-0.360315 0 0)
(-0.358407 0 0)
(-0.356498 0 0)
(-0.354588 0 0)
(-0.352679 0 0)
(-0.350768 0 0)
(-0.348858 0 0)
(-0.346947 0 0)
(-0.345035 0 0)
(-0.343124 0 0)
(-0.341212 0 0)
(-0.339299 0 0)
(-0.337386 0 0)
(-0.335473 0 0)
(-0.333559 0 0)
(-0.331645 0 0)
(-0.329731 0 0)
(-0.327816 0 0)
(-0.325901 0 0)
(-0.323986 0 0)
(-0.32207 0 0)
(-0.320154 0 0)
(-0.318238 0 0)
(-0.316321 0 0)
(-0.314404 0 0)
(-0.312486 0 0)
(-0.310569 0 0)
(-0.308651 0 0)
(-0.306732 0 0)
(-0.304813 0 0)
(-0.302894 0 0)
(-0.300975 0 0)
(-0.299055 0 0)
(-0.297135 0 0)
(-0.295215 0 0)
(-0.293294 0 0)
(-0.291373 0 0)
(-0.289452 0 0)
(-0.28753 0 0)
(-0.285608 0 0)
(-0.283686 0 0)
(-0.281763 0 0)
(-0.27984 0 0)
(-0.277917 0 0)
(-0.275994 0 0)
(-0.27407 0 0)
(-0.272146 0 0)
(-0.270222 0 0)
(-0.268297 0 0)
(-0.266373 0 0)
(-0.264448 0 0)
(-0.262522 0 0)
(-0.260597 0 0)
(-0.258671 0 0)
(-0.256744 0 0)
(-0.254818 0 0)
(-0.252891 0 0)
(-0.250964 0 0)
(-0.249037 0 0)
(-0.24711 0 0)
(-0.245182 0 0)
(-0.243254 0 0)
(-0.241326 0 0)
(-0.239397 0 0)
(-0.237468 0 0)
(-0.235539 0 0)
(-0.23361 0 0)
(-0.231681 0 0)
(-0.229751 0 0)
(-0.227821 0 0)
(-0.225891 0 0)
(-0.223961 0 0)
(-0.22203 0 0)
(-0.220099 0 0)
(-0.218168 0 0)
(-0.216237 0 0)
(-0.214305 0 0)
(-0.212374 0 0)
(-0.210442 0 0)
(-0.20851 0 0)
(-0.206577 0 0)
(-0.204645 0 0)
(-0.202712 0 0)
(-0.200779 0 0)
(-0.198846 0 0)
(-0.196912 0 0)
(-0.194979 0 0)
(-0.193045 0 0)
(-0.191111 0 0)
(-0.189177 0 0)
(-0.187243 0 0)
(-0.185308 0 0)
(-0.183373 0 0)
(-0.181439 0 0)
(-0.179503 0 0)
(-0.177568 0 0)
(-0.175633 0 0)
(-0.173697 0 0)
(-0.171761 0 0)
(-0.169826 0 0)
(-0.167889 0 0)
(-0.165953 0 0)
(-0.164017 0 0)
(-0.16208 0 0)
(-0.160143 0 0)
(-0.158206 0 0)
(-0.156269 0 0)
(-0.154332 0 0)
(-0.152395 0 0)
(-0.150457 0 0)
(-0.14852 0 0)
(-0.146582 0 0)
(-0.144644 0 0)
(-0.142706 0 0)
(-0.140767 0 0)
(-0.138829 0 0)
(-0.136891 0 0)
(-0.134952 0 0)
(-0.133013 0 0)
(-0.131074 0 0)
(-0.129135 0 0)
(-0.127196 0 0)
(-0.125257 0 0)
(-0.123317 0 0)
(-0.121378 0 0)
(-0.119438 0 0)
(-0.117498 0 0)
(-0.115558 0 0)
(-0.113618 0 0)
(-0.111678 0 0)
(-0.109738 0 0)
(-0.107798 0 0)
(-0.105857 0 0)
(-0.103917 0 0)
(-0.101976 0 0)
(-0.100035 0 0)
(-0.0980946 0 0)
(-0.0961537 0 0)
(-0.0942127 0 0)
(-0.0922716 0 0)
(-0.0903304 0 0)
(-0.0883891 0 0)
(-0.0864477 0 0)
(-0.0845063 0 0)
(-0.0825648 0 0)
(-0.0806231 0 0)
(-0.0786815 0 0)
(-0.0767397 0 0)
(-0.0747978 0 0)
(-0.0728559 0 0)
(-0.0709139 0 0)
(-0.0689719 0 0)
(-0.0670298 0 0)
(-0.0650876 0 0)
(-0.0631454 0 0)
(-0.061203 0 0)
(-0.0592607 0 0)
(-0.0573183 0 0)
(-0.0553758 0 0)
(-0.0534332 0 0)
(-0.0514907 0 0)
(-0.049548 0 0)
(-0.0476054 0 0)
(-0.0456626 0 0)
(-0.0437199 0 0)
(-0.0417771 0 0)
(-0.0398342 0 0)
(-0.0378913 0 0)
(-0.0359484 0 0)
(-0.0340054 0 0)
(-0.0320624 0 0)
(-0.0301194 0 0)
(-0.0281764 0 0)
(-0.0262333 0 0)
(-0.0242902 0 0)
(-0.022347 0 0)
(-0.0204039 0 0)
(-0.0184607 0 0)
(-0.0165175 0 0)
(-0.0145743 0 0)
(-0.0126311 0 0)
(-0.0106879 0 0)
(-0.00874465 0 0)
(-0.0068014 0 0)
(-0.00485815 0 0)
(-0.00291489 0 0)
(-0.000971631 0 0)
)
;

boundaryField
{
    left
    {
        type            fixedValue;
        value           uniform (0 0 0);
    }
    right
    {
        type            fixedValue;
        value           uniform (0 0 0);
    }
    frontBackUpDown
    {
        type            empty;
    }
}


// ************************************************************************* //
