/*--------------------------------*- C++ -*----------------------------------*\
| =========                 |                                                 |
| \\      /  F ield         | OpenFOAM: The Open Source CFD Toolbox           |
|  \\    /   O peration     | Version:  2412                                  |
|   \\  /    A nd           | Website:  www.openfoam.com                      |
|    \\/     M anipulation  |                                                 |
\*---------------------------------------------------------------------------*/
FoamFile
{
    version     2.0;
    format      ascii;
    arch        "LSB;label=32;scalar=64";
    class       volVectorField;
    location    "0.97";
    object      U_0_0_0;
}
// * * * * * * * * * * * * * * * * * * * * * * * * * * * * * * * * * * * * * //

dimensions      [0 1 -1 0 0 0 0];

internalField   nonuniform List<vector> 
800
(
(0.000972378 0 0)
(0.00291715 0 0)
(0.00486191 0 0)
(0.00680668 0 0)
(0.00875143 0 0)
(0.0106962 0 0)
(0.0126409 0 0)
(0.0145856 0 0)
(0.0165304 0 0)
(0.018475 0 0)
(0.0204197 0 0)
(0.0223644 0 0)
(0.024309 0 0)
(0.0262536 0 0)
(0.0281982 0 0)
(0.0301428 0 0)
(0.0320873 0 0)
(0.0340318 0 0)
(0.0359763 0 0)
(0.0379207 0 0)
(0.0398651 0 0)
(0.0418095 0 0)
(0.0437538 0 0)
(0.0456981 0 0)
(0.0476423 0 0)
(0.0495865 0 0)
(0.0515306 0 0)
(0.0534747 0 0)
(0.0554188 0 0)
(0.0573627 0 0)
(0.0593067 0 0)
(0.0612505 0 0)
(0.0631944 0 0)
(0.0651381 0 0)
(0.0670818 0 0)
(0.0690254 0 0)
(0.070969 0 0)
(0.0729125 0 0)
(0.0748559 0 0)
(0.0767992 0 0)
(0.0787425 0 0)
(0.0806857 0 0)
(0.0826288 0 0)
(0.0845719 0 0)
(0.0865148 0 0)
(0.0884577 0 0)
(0.0904005 0 0)
(0.0923432 0 0)
(0.0942858 0 0)
(0.0962283 0 0)
(0.0981707 0 0)
(0.100113 0 0)
(0.102055 0 0)
(0.103997 0 0)
(0.105939 0 0)
(0.107881 0 0)
(0.109823 0 0)
(0.111765 0 0)
(0.113707 0 0)
(0.115648 0 0)
(0.117589 0 0)
(0.119531 0 0)
(0.121472 0 0)
(0.123413 0 0)
(0.125354 0 0)
(0.127295 0 0)
(0.129235 0 0)
(0.131176 0 0)
(0.133116 0 0)
(0.135057 0 0)
(0.136997 0 0)
(0.138937 0 0)
(0.140877 0 0)
(0.142816 0 0)
(0.144756 0 0)
(0.146695 0 0)
(0.148635 0 0)
(0.150574 0 0)
(0.152513 0 0)
(0.154452 0 0)
(0.15639 0 0)
(0.158329 0 0)
(0.160267 0 0)
(0.162206 0 0)
(0.164144 0 0)
(0.166082 0 0)
(0.168019 0 0)
(0.169957 0 0)
(0.171894 0 0)
(0.173832 0 0)
(0.175769 0 0)
(0.177706 0 0)
(0.179642 0 0)
(0.181579 0 0)
(0.183515 0 0)
(0.185452 0 0)
(0.187388 0 0)
(0.189323 0 0)
(0.191259 0 0)
(0.193194 0 0)
(0.19513 0 0)
(0.197065 0 0)
(0.199 0 0)
(0.200934 0 0)
(0.202869 0 0)
(0.204803 0 0)
(0.206737 0 0)
(0.208671 0 0)
(0.210604 0 0)
(0.212538 0 0)
(0.214471 0 0)
(0.216404 0 0)
(0.218337 0 0)
(0.220269 0 0)
(0.222202 0 0)
(0.224134 0 0)
(0.226065 0 0)
(0.227997 0 0)
(0.229928 0 0)
(0.23186 0 0)
(0.233791 0 0)
(0.235721 0 0)
(0.237652 0 0)
(0.239582 0 0)
(0.241512 0 0)
(0.243442 0 0)
(0.245371 0 0)
(0.2473 0 0)
(0.249229 0 0)
(0.251158 0 0)
(0.253086 0 0)
(0.255014 0 0)
(0.256942 0 0)
(0.25887 0 0)
(0.260797 0 0)
(0.262724 0 0)
(0.264651 0 0)
(0.266578 0 0)
(0.268504 0 0)
(0.27043 0 0)
(0.272356 0 0)
(0.274281 0 0)
(0.276206 0 0)
(0.278131 0 0)
(0.280056 0 0)
(0.28198 0 0)
(0.283904 0 0)
(0.285828 0 0)
(0.287751 0 0)
(0.289674 0 0)
(0.291597 0 0)
(0.293519 0 0)
(0.295442 0 0)
(0.297363 0 0)
(0.299285 0 0)
(0.301206 0 0)
(0.303127 0 0)
(0.305047 0 0)
(0.306968 0 0)
(0.308888 0 0)
(0.310807 0 0)
(0.312726 0 0)
(0.314645 0 0)
(0.316564 0 0)
(0.318482 0 0)
(0.3204 0 0)
(0.322317 0 0)
(0.324235 0 0)
(0.326151 0 0)
(0.328068 0 0)
(0.329984 0 0)
(0.3319 0 0)
(0.333815 0 0)
(0.33573 0 0)
(0.337645 0 0)
(0.339559 0 0)
(0.341473 0 0)
(0.343386 0 0)
(0.3453 0 0)
(0.347212 0 0)
(0.349125 0 0)
(0.351037 0 0)
(0.352948 0 0)
(0.35486 0 0)
(0.35677 0 0)
(0.358681 0 0)
(0.360591 0 0)
(0.3625 0 0)
(0.36441 0 0)
(0.366319 0 0)
(0.368227 0 0)
(0.370135 0 0)
(0.372042 0 0)
(0.37395 0 0)
(0.375856 0 0)
(0.377763 0 0)
(0.379668 0 0)
(0.381574 0 0)
(0.383479 0 0)
(0.385383 0 0)
(0.387288 0 0)
(0.389191 0 0)
(0.391094 0 0)
(0.392997 0 0)
(0.394899 0 0)
(0.396801 0 0)
(0.398703 0 0)
(0.400604 0 0)
(0.402504 0 0)
(0.404404 0 0)
(0.406304 0 0)
(0.408203 0 0)
(0.410101 0 0)
(0.411999 0 0)
(0.413897 0 0)
(0.415794 0 0)
(0.417691 0 0)
(0.419587 0 0)
(0.421482 0 0)
(0.423378 0 0)
(0.425272 0 0)
(0.427166 0 0)
(0.42906 0 0)
(0.430953 0 0)
(0.432846 0 0)
(0.434738 0 0)
(0.436629 0 0)
(0.43852 0 0)
(0.440411 0 0)
(0.442301 0 0)
(0.44419 0 0)
(0.446079 0 0)
(0.447967 0 0)
(0.449855 0 0)
(0.451742 0 0)
(0.453629 0 0)
(0.455515 0 0)
(0.4574 0 0)
(0.459285 0 0)
(0.46117 0 0)
(0.463053 0 0)
(0.464937 0 0)
(0.466819 0 0)
(0.468701 0 0)
(0.470583 0 0)
(0.472464 0 0)
(0.474344 0 0)
(0.476224 0 0)
(0.478103 0 0)
(0.479981 0 0)
(0.481859 0 0)
(0.483736 0 0)
(0.485613 0 0)
(0.487489 0 0)
(0.489364 0 0)
(0.491239 0 0)
(0.493113 0 0)
(0.494986 0 0)
(0.496859 0 0)
(0.498731 0 0)
(0.500603 0 0)
(0.502474 0 0)
(0.504344 0 0)
(0.506213 0 0)
(0.508082 0 0)
(0.50995 0 0)
(0.511818 0 0)
(0.513684 0 0)
(0.51555 0 0)
(0.517416 0 0)
(0.519281 0 0)
(0.521145 0 0)
(0.523008 0 0)
(0.52487 0 0)
(0.526732 0 0)
(0.528593 0 0)
(0.530454 0 0)
(0.532313 0 0)
(0.534172 0 0)
(0.536031 0 0)
(0.537888 0 0)
(0.539745 0 0)
(0.541601 0 0)
(0.543456 0 0)
(0.54531 0 0)
(0.547164 0 0)
(0.549017 0 0)
(0.550869 0 0)
(0.55272 0 0)
(0.554571 0 0)
(0.556421 0 0)
(0.55827 0 0)
(0.560118 0 0)
(0.561965 0 0)
(0.563812 0 0)
(0.565657 0 0)
(0.567502 0 0)
(0.569346 0 0)
(0.571189 0 0)
(0.573032 0 0)
(0.574873 0 0)
(0.576714 0 0)
(0.578554 0 0)
(0.580393 0 0)
(0.582231 0 0)
(0.584068 0 0)
(0.585904 0 0)
(0.58774 0 0)
(0.589574 0 0)
(0.591408 0 0)
(0.59324 0 0)
(0.595072 0 0)
(0.596903 0 0)
(0.598733 0 0)
(0.600562 0 0)
(0.60239 0 0)
(0.604217 0 0)
(0.606043 0 0)
(0.607869 0 0)
(0.609693 0 0)
(0.611516 0 0)
(0.613339 0 0)
(0.61516 0 0)
(0.61698 0 0)
(0.6188 0 0)
(0.620618 0 0)
(0.622435 0 0)
(0.624252 0 0)
(0.626067 0 0)
(0.627881 0 0)
(0.629695 0 0)
(0.631507 0 0)
(0.633318 0 0)
(0.635128 0 0)
(0.636937 0 0)
(0.638745 0 0)
(0.640552 0 0)
(0.642358 0 0)
(0.644162 0 0)
(0.645966 0 0)
(0.647768 0 0)
(0.64957 0 0)
(0.65137 0 0)
(0.653169 0 0)
(0.654967 0 0)
(0.656764 0 0)
(0.65856 0 0)
(0.660354 0 0)
(0.662147 0 0)
(0.663939 0 0)
(0.66573 0 0)
(0.66752 0 0)
(0.669309 0 0)
(0.671096 0 0)
(0.672882 0 0)
(0.674667 0 0)
(0.67645 0 0)
(0.678233 0 0)
(0.680014 0 0)
(0.681793 0 0)
(0.683572 0 0)
(0.685349 0 0)
(0.687125 0 0)
(0.6889 0 0)
(0.690673 0 0)
(0.692445 0 0)
(0.694216 0 0)
(0.695985 0 0)
(0.697753 0 0)
(0.699519 0 0)
(0.701284 0 0)
(0.703048 0 0)
(0.70481 0 0)
(0.706571 0 0)
(0.708331 0 0)
(0.710089 0 0)
(0.711846 0 0)
(0.713601 0 0)
(0.715354 0 0)
(0.717107 0 0)
(0.718857 0 0)
(0.720607 0 0)
(0.722354 0 0)
(0.724101 0 0)
(0.725845 0 0)
(0.727588 0 0)
(0.72933 0 0)
(0.73107 0 0)
(0.732808 0 0)
(0.734545 0 0)
(0.73628 0 0)
(0.738014 0 0)
(0.739746 0 0)
(0.741476 0 0)
(0.743204 0 0)
(0.744929 0 0)
(0.746601 0 0)
(0.746698 0 0)
(0.70688 0 0)
(0.354439 0 0)
(-0.353247 0 0)
(-0.706639 0 0)
(-0.746684 0 0)
(-0.746598 0 0)
(-0.744927 0 0)
(-0.743202 0 0)
(-0.741473 0 0)
(-0.739743 0 0)
(-0.738011 0 0)
(-0.736278 0 0)
(-0.734543 0 0)
(-0.732806 0 0)
(-0.731067 0 0)
(-0.729328 0 0)
(-0.727586 0 0)
(-0.725843 0 0)
(-0.724098 0 0)
(-0.722352 0 0)
(-0.720604 0 0)
(-0.718855 0 0)
(-0.717104 0 0)
(-0.715352 0 0)
(-0.713598 0 0)
(-0.711843 0 0)
(-0.710087 0 0)
(-0.708329 0 0)
(-0.706569 0 0)
(-0.704808 0 0)
(-0.703046 0 0)
(-0.701282 0 0)
(-0.699517 0 0)
(-0.69775 0 0)
(-0.695983 0 0)
(-0.694213 0 0)
(-0.692443 0 0)
(-0.690671 0 0)
(-0.688898 0 0)
(-0.687123 0 0)
(-0.685347 0 0)
(-0.68357 0 0)
(-0.681791 0 0)
(-0.680012 0 0)
(-0.67823 0 0)
(-0.676448 0 0)
(-0.674665 0 0)
(-0.67288 0 0)
(-0.671094 0 0)
(-0.669306 0 0)
(-0.667518 0 0)
(-0.665728 0 0)
(-0.663937 0 0)
(-0.662145 0 0)
(-0.660352 0 0)
(-0.658557 0 0)
(-0.656762 0 0)
(-0.654965 0 0)
(-0.653167 0 0)
(-0.651368 0 0)
(-0.649568 0 0)
(-0.647766 0 0)
(-0.645964 0 0)
(-0.64416 0 0)
(-0.642356 0 0)
(-0.64055 0 0)
(-0.638743 0 0)
(-0.636935 0 0)
(-0.635126 0 0)
(-0.633316 0 0)
(-0.631505 0 0)
(-0.629693 0 0)
(-0.627879 0 0)
(-0.626065 0 0)
(-0.62425 0 0)
(-0.622434 0 0)
(-0.620616 0 0)
(-0.618798 0 0)
(-0.616978 0 0)
(-0.615158 0 0)
(-0.613337 0 0)
(-0.611514 0 0)
(-0.609691 0 0)
(-0.607867 0 0)
(-0.606042 0 0)
(-0.604215 0 0)
(-0.602388 0 0)
(-0.60056 0 0)
(-0.598731 0 0)
(-0.596901 0 0)
(-0.59507 0 0)
(-0.593239 0 0)
(-0.591406 0 0)
(-0.589572 0 0)
(-0.587738 0 0)
(-0.585902 0 0)
(-0.584066 0 0)
(-0.582229 0 0)
(-0.580391 0 0)
(-0.578552 0 0)
(-0.576712 0 0)
(-0.574872 0 0)
(-0.57303 0 0)
(-0.571188 0 0)
(-0.569345 0 0)
(-0.5675 0 0)
(-0.565656 0 0)
(-0.56381 0 0)
(-0.561963 0 0)
(-0.560116 0 0)
(-0.558268 0 0)
(-0.556419 0 0)
(-0.554569 0 0)
(-0.552719 0 0)
(-0.550867 0 0)
(-0.549015 0 0)
(-0.547162 0 0)
(-0.545309 0 0)
(-0.543454 0 0)
(-0.541599 0 0)
(-0.539743 0 0)
(-0.537887 0 0)
(-0.536029 0 0)
(-0.534171 0 0)
(-0.532312 0 0)
(-0.530452 0 0)
(-0.528592 0 0)
(-0.526731 0 0)
(-0.524869 0 0)
(-0.523006 0 0)
(-0.521143 0 0)
(-0.519279 0 0)
(-0.517414 0 0)
(-0.515549 0 0)
(-0.513683 0 0)
(-0.511816 0 0)
(-0.509949 0 0)
(-0.508081 0 0)
(-0.506212 0 0)
(-0.504342 0 0)
(-0.502472 0 0)
(-0.500601 0 0)
(-0.49873 0 0)
(-0.496858 0 0)
(-0.494985 0 0)
(-0.493112 0 0)
(-0.491238 0 0)
(-0.489363 0 0)
(-0.487487 0 0)
(-0.485612 0 0)
(-0.483735 0 0)
(-0.481858 0 0)
(-0.47998 0 0)
(-0.478101 0 0)
(-0.476222 0 0)
(-0.474343 0 0)
(-0.472462 0 0)
(-0.470582 0 0)
(-0.4687 0 0)
(-0.466818 0 0)
(-0.464935 0 0)
(-0.463052 0 0)
(-0.461168 0 0)
(-0.459284 0 0)
(-0.457399 0 0)
(-0.455514 0 0)
(-0.453628 0 0)
(-0.451741 0 0)
(-0.449854 0 0)
(-0.447966 0 0)
(-0.446078 0 0)
(-0.444189 0 0)
(-0.4423 0 0)
(-0.44041 0 0)
(-0.438519 0 0)
(-0.436628 0 0)
(-0.434737 0 0)
(-0.432845 0 0)
(-0.430952 0 0)
(-0.429059 0 0)
(-0.427165 0 0)
(-0.425271 0 0)
(-0.423377 0 0)
(-0.421482 0 0)
(-0.419586 0 0)
(-0.41769 0 0)
(-0.415793 0 0)
(-0.413896 0 0)
(-0.411998 0 0)
(-0.4101 0 0)
(-0.408202 0 0)
(-0.406303 0 0)
(-0.404403 0 0)
(-0.402503 0 0)
(-0.400603 0 0)
(-0.398702 0 0)
(-0.3968 0 0)
(-0.394899 0 0)
(-0.392996 0 0)
(-0.391094 0 0)
(-0.38919 0 0)
(-0.387287 0 0)
(-0.385383 0 0)
(-0.383478 0 0)
(-0.381573 0 0)
(-0.379668 0 0)
(-0.377762 0 0)
(-0.375855 0 0)
(-0.373949 0 0)
(-0.372042 0 0)
(-0.370134 0 0)
(-0.368226 0 0)
(-0.366318 0 0)
(-0.364409 0 0)
(-0.3625 0 0)
(-0.36059 0 0)
(-0.35868 0 0)
(-0.35677 0 0)
(-0.354859 0 0)
(-0.352948 0 0)
(-0.351036 0 0)
(-0.349124 0 0)
(-0.347212 0 0)
(-0.345299 0 0)
(-0.343386 0 0)
(-0.341472 0 0)
(-0.339558 0 0)
(-0.337644 0 0)
(-0.335729 0 0)
(-0.333814 0 0)
(-0.331899 0 0)
(-0.329983 0 0)
(-0.328067 0 0)
(-0.326151 0 0)
(-0.324234 0 0)
(-0.322317 0 0)
(-0.320399 0 0)
(-0.318481 0 0)
(-0.316563 0 0)
(-0.314645 0 0)
(-0.312726 0 0)
(-0.310807 0 0)
(-0.308887 0 0)
(-0.306967 0 0)
(-0.305047 0 0)
(-0.303126 0 0)
(-0.301206 0 0)
(-0.299284 0 0)
(-0.297363 0 0)
(-0.295441 0 0)
(-0.293519 0 0)
(-0.291596 0 0)
(-0.289674 0 0)
(-0.287751 0 0)
(-0.285827 0 0)
(-0.283904 0 0)
(-0.28198 0 0)
(-0.280055 0 0)
(-0.278131 0 0)
(-0.276206 0 0)
(-0.274281 0 0)
(-0.272355 0 0)
(-0.27043 0 0)
(-0.268504 0 0)
(-0.266577 0 0)
(-0.264651 0 0)
(-0.262724 0 0)
(-0.260797 0 0)
(-0.25887 0 0)
(-0.256942 0 0)
(-0.255014 0 0)
(-0.253086 0 0)
(-0.251157 0 0)
(-0.249229 0 0)
(-0.2473 0 0)
(-0.245371 0 0)
(-0.243441 0 0)
(-0.241512 0 0)
(-0.239582 0 0)
(-0.237651 0 0)
(-0.235721 0 0)
(-0.23379 0 0)
(-0.231859 0 0)
(-0.229928 0 0)
(-0.227997 0 0)
(-0.226065 0 0)
(-0.224133 0 0)
(-0.222201 0 0)
(-0.220269 0 0)
(-0.218336 0 0)
(-0.216404 0 0)
(-0.214471 0 0)
(-0.212538 0 0)
(-0.210604 0 0)
(-0.20867 0 0)
(-0.206737 0 0)
(-0.204803 0 0)
(-0.202868 0 0)
(-0.200934 0 0)
(-0.198999 0 0)
(-0.197064 0 0)
(-0.195129 0 0)
(-0.193194 0 0)
(-0.191259 0 0)
(-0.189323 0 0)
(-0.187387 0 0)
(-0.185451 0 0)
(-0.183515 0 0)
(-0.181579 0 0)
(-0.179642 0 0)
(-0.177705 0 0)
(-0.175769 0 0)
(-0.173832 0 0)
(-0.171894 0 0)
(-0.169957 0 0)
(-0.168019 0 0)
(-0.166081 0 0)
(-0.164144 0 0)
(-0.162205 0 0)
(-0.160267 0 0)
(-0.158329 0 0)
(-0.15639 0 0)
(-0.154452 0 0)
(-0.152513 0 0)
(-0.150574 0 0)
(-0.148635 0 0)
(-0.146695 0 0)
(-0.144756 0 0)
(-0.142816 0 0)
(-0.140876 0 0)
(-0.138937 0 0)
(-0.136997 0 0)
(-0.135056 0 0)
(-0.133116 0 0)
(-0.131176 0 0)
(-0.129235 0 0)
(-0.127294 0 0)
(-0.125354 0 0)
(-0.123413 0 0)
(-0.121472 0 0)
(-0.119531 0 0)
(-0.117589 0 0)
(-0.115648 0 0)
(-0.113706 0 0)
(-0.111765 0 0)
(-0.109823 0 0)
(-0.107881 0 0)
(-0.105939 0 0)
(-0.103997 0 0)
(-0.102055 0 0)
(-0.100113 0 0)
(-0.0981707 0 0)
(-0.0962283 0 0)
(-0.0942857 0 0)
(-0.0923431 0 0)
(-0.0904004 0 0)
(-0.0884576 0 0)
(-0.0865148 0 0)
(-0.0845718 0 0)
(-0.0826288 0 0)
(-0.0806857 0 0)
(-0.0787425 0 0)
(-0.0767992 0 0)
(-0.0748559 0 0)
(-0.0729124 0 0)
(-0.070969 0 0)
(-0.0690254 0 0)
(-0.0670818 0 0)
(-0.0651381 0 0)
(-0.0631943 0 0)
(-0.0612505 0 0)
(-0.0593067 0 0)
(-0.0573627 0 0)
(-0.0554187 0 0)
(-0.0534747 0 0)
(-0.0515306 0 0)
(-0.0495865 0 0)
(-0.0476423 0 0)
(-0.0456981 0 0)
(-0.0437538 0 0)
(-0.0418095 0 0)
(-0.0398651 0 0)
(-0.0379207 0 0)
(-0.0359763 0 0)
(-0.0340318 0 0)
(-0.0320873 0 0)
(-0.0301428 0 0)
(-0.0281982 0 0)
(-0.0262536 0 0)
(-0.024309 0 0)
(-0.0223644 0 0)
(-0.0204197 0 0)
(-0.0184751 0 0)
(-0.0165304 0 0)
(-0.0145856 0 0)
(-0.0126409 0 0)
(-0.0106962 0 0)
(-0.00875144 0 0)
(-0.00680668 0 0)
(-0.00486192 0 0)
(-0.00291715 0 0)
(-0.000972385 0 0)
)
;

boundaryField
{
    left
    {
        type            fixedValue;
        value           uniform (0 0 0);
    }
    right
    {
        type            fixedValue;
        value           uniform (0 0 0);
    }
    frontBackUpDown
    {
        type            empty;
    }
}


// ************************************************************************* //
