/*--------------------------------*- C++ -*----------------------------------*\
| =========                 |                                                 |
| \\      /  F ield         | OpenFOAM: The Open Source CFD Toolbox           |
|  \\    /   O peration     | Version:  2412                                  |
|   \\  /    A nd           | Website:  www.openfoam.com                      |
|    \\/     M anipulation  |                                                 |
\*---------------------------------------------------------------------------*/
FoamFile
{
    version     2.0;
    format      ascii;
    arch        "LSB;label=32;scalar=64";
    class       volScalarField;
    location    "6.5";
    object      p;
}
// * * * * * * * * * * * * * * * * * * * * * * * * * * * * * * * * * * * * * //

dimensions      [0 2 -2 0 0 0 0];

internalField   nonuniform List<scalar> 
2200
(
0.0355115
0.0355401
0.0362429
0.0392464
0.0471611
0.0650628
0.0990952
0.156832
0.249603
0.385106
0.534872
0.658078
0.742159
0.795602
0.826238
0.842961
0.851472
0.855097
0.856593
0.856922
0.0298
0.0300747
0.0315715
0.0355707
0.0447385
0.0638359
0.0985165
0.157085
0.249914
0.385703
0.536904
0.661297
0.744701
0.796555
0.826436
0.842267
0.849811
0.852752
0.853545
0.853713
0.0221382
0.0221364
0.0241215
0.0294019
0.0408355
0.0619215
0.0984788
0.160508
0.254723
0.391907
0.544316
0.669442
0.752291
0.802668
0.831379
0.845459
0.851984
0.854668
0.855134
0.855402
0.0131728
0.0130184
0.0152236
0.0213053
0.0338327
0.0573764
0.0984038
0.163069
0.259633
0.402337
0.556768
0.68176
0.765819
0.815811
0.842007
0.853953
0.85955
0.862302
0.863253
0.863578
0.0020147
0.00214451
0.00356982
0.00850573
0.0221734
0.0497253
0.0940825
0.162019
0.263594
0.411126
0.570255
0.698939
0.783125
0.831322
0.855502
0.866379
0.871412
0.874449
0.876181
0.876384
-0.0159452
-0.0159619
-0.0162901
-0.013286
-0.000290796
0.0279718
0.0764687
0.152663
0.265301
0.420858
0.586119
0.71915
0.80193
0.847662
0.871051
0.883844
0.890798
0.895073
0.897944
0.898119
-0.0381689
-0.0389484
-0.0390894
-0.0356546
-0.0254067
-0.000940603
0.0485975
0.131786
0.255346
0.425687
0.601449
0.738253
0.824443
0.873943
0.900232
0.91704
0.927219
0.931393
0.934783
0.935992
-0.0546612
-0.0558954
-0.0548405
-0.0486422
-0.0401086
-0.0216766
0.0244776
0.107842
0.23666
0.422424
0.61349
0.760878
0.856679
0.915524
0.950048
0.971812
0.983872
0.988339
0.991712
0.99427
-0.0650959
-0.0664997
-0.0645485
-0.0578033
-0.049911
-0.0327618
0.00893787
0.0867912
0.218911
0.42155
0.630751
0.794601
0.905461
0.978263
1.02545
1.0535
1.0676
1.0733
1.07478
1.07735
-0.0791933
-0.0805881
-0.0784071
-0.0717986
-0.0607896
-0.0379021
0.00257356
0.0772065
0.2127
0.428796
0.660668
0.849387
0.98261
1.07537
1.13354
1.16311
1.17724
1.18478
1.18479
1.18804
-0.103642
-0.104957
-0.103376
-0.0982574
-0.081051
-0.0466602
0.0033399
0.0856795
0.229584
0.455916
0.714756
0.939025
1.09634
1.20028
1.26113
1.28797
1.30113
1.31105
1.31087
1.3143
-0.145857
-0.146882
-0.145195
-0.140642
-0.117633
-0.0722299
-0.00516201
0.103262
0.271102
0.515821
0.806316
1.06658
1.24119
1.3439
1.39931
1.42328
1.43669
1.44826
1.44905
1.45281
-0.204267
-0.205442
-0.203736
-0.199419
-0.173563
-0.120683
-0.0298838
0.115262
0.32171
0.609071
0.939213
1.22428
1.40534
1.5015
1.54741
1.57596
1.59045
1.60186
1.60527
1.60898
-0.283484
-0.284429
-0.28198
-0.276512
-0.249559
-0.192715
-0.0822646
0.101423
0.361287
0.717545
1.0959
1.39573
1.57851
1.66929
1.71527
1.75109
1.7684
1.78067
1.78696
1.79007
-0.377156
-0.379077
-0.379761
-0.372865
-0.346496
-0.291345
-0.168492
0.0474145
0.371223
0.813789
1.25267
1.56986
1.7571
1.85675
1.91565
1.95975
1.98195
1.99675
2.00726
2.00993
-0.483764
-0.485005
-0.485749
-0.478712
-0.451792
-0.39183
-0.259256
-0.0295292
0.343609
0.86973
1.38105
1.73923
1.95544
2.08961
2.16928
2.22076
2.24931
2.26646
2.27867
2.28254
-0.594386
-0.597194
-0.599915
-0.591719
-0.559874
-0.492198
-0.351385
-0.110655
0.298097
0.886329
1.48362
1.92599
2.20537
2.38428
2.49061
2.54597
2.57906
2.59969
2.61108
2.61469
-0.717921
-0.719071
-0.720573
-0.714003
-0.679657
-0.601478
-0.451556
-0.186042
0.267161
0.914545
1.6076
2.16142
2.51817
2.74385
2.8718
2.92911
2.96988
2.99021
3.00138
3.00552
-0.880762
-0.881326
-0.881101
-0.873525
-0.832041
-0.732264
-0.558839
-0.248264
0.271449
1.00452
1.80979
2.47737
2.90982
3.16888
3.30745
3.37412
3.4138
3.43709
3.44942
3.45287
-1.09244
-1.09396
-1.09344
-1.08383
-1.04177
-0.920904
-0.698027
-0.311061
0.316462
1.18505
2.12526
2.88714
3.37518
3.64743
3.79321
3.86889
3.91005
3.93613
3.94972
3.95383
-1.37885
-1.37865
-1.37586
-1.36383
-1.31215
-1.17347
-0.889601
-0.387131
0.39963
1.45264
2.5477
3.38538
3.90205
4.17095
4.32537
4.41697
4.45258
4.48744
4.50529
4.50988
-1.75796
-1.75924
-1.75646
-1.73739
-1.66913
-1.49571
-1.14434
-0.512317
0.47043
1.74802
3.01721
3.92296
4.45609
4.74647
4.91859
5.02158
5.07229
5.10738
5.12719
5.13325
-2.25713
-2.25468
-2.24671
-2.22124
-2.1249
-1.90367
-1.46849
-0.710151
0.469279
1.96916
3.41916
4.43025
5.03491
5.39488
5.58964
5.70306
5.7612
5.80176
5.81993
5.82608
-2.92344
-2.91906
-2.90077
-2.84588
-2.70028
-2.39326
-1.83851
-0.932201
0.431248
2.11703
3.76806
4.96799
5.69999
6.12347
6.32936
6.44669
6.51034
6.54976
6.57034
6.57261
-3.8431
-3.82082
-3.76932
-3.65503
-3.40791
-2.95791
-2.22468
-1.10534
0.483414
2.38751
4.26461
5.65281
6.47596
6.91662
7.12336
7.24228
7.30279
7.33964
7.36673
7.36602
-5.07766
-5.01716
-4.87656
-4.64143
-4.24028
-3.59776
-2.61831
-1.19441
0.716527
2.9082
4.99695
6.49697
7.34263
7.77393
7.99045
8.10216
8.16275
8.19529
8.21241
8.21338
-6.67746
-6.48787
-6.15037
-5.72232
-5.13206
-4.2533
-2.98224
-1.21981
1.04304
3.57542
5.92682
7.54016
8.43883
8.89838
9.15685
9.26929
9.33657
9.37398
9.38733
9.38935
-8.55125
-8.04504
-7.46918
-6.85731
-6.04432
-4.89437
-3.3331
-1.25265
1.33439
4.21182
6.903
8.72614
9.73376
10.2944
10.5992
10.7804
10.898
10.9764
11.0268
11.0261
-10.2578
-9.54712
-8.79706
-7.99699
-6.94444
-5.52879
-3.67887
-1.26847
1.63364
4.82965
7.86308
9.91693
10.9994
11.6716
12.0468
12.2847
12.4422
12.5416
12.6112
12.6152
-11.5925
-10.7957
-9.97117
-9.0255
-7.78553
-6.13317
-3.983
-1.21462
2.01143
5.52415
8.85682
11.0588
12.2708
13.001
13.4426
13.715
13.9007
14.0387
14.1412
14.1557
-12.7123
-11.8244
-10.9361
-9.87672
-8.49305
-6.64734
-4.21966
-1.10984
2.42939
6.24448
9.8071
12.1344
13.4727
14.238
14.7178
15.0368
15.2523
15.3924
15.4954
15.5115
-13.5792
-12.6457
-11.7372
-10.5801
-9.06485
-7.05638
-4.39495
-1.00644
2.80781
6.87684
10.6188
13.0786
14.5088
15.3147
15.8185
16.1479
16.3752
16.5452
16.6739
16.7007
-14.3462
-13.2815
-12.3704
-11.1463
-9.53018
-7.382
-4.51079
-0.924704
3.09722
7.36201
11.2645
13.8503
15.3512
16.1943
16.7084
17.0683
17.3337
17.537
17.6975
17.7333
-14.8904
-13.7645
-12.8524
-11.6041
-9.90442
-7.61745
-4.57564
-0.856078
3.30534
7.71957
11.765
14.4614
16.0054
16.8818
17.4381
17.8306
18.1226
18.3418
18.5198
18.5561
-15.3131
-14.129
-13.2306
-11.9424
-10.1632
-7.76457
-4.60431
-0.795318
3.45103
7.98659
12.1389
14.9159
16.4912
17.4135
18.0122
18.4384
18.7668
19.016
19.2054
19.2423
-15.6593
-14.4454
-13.4998
-12.1376
-10.2985
-7.8289
-4.60923
-0.752692
3.54272
8.17734
12.3961
15.2302
16.8498
17.8288
18.4805
18.9561
19.308
19.5701
19.7932
19.8224
-15.9404
-14.7127
-13.6892
-12.2312
-10.3321
-7.82325
-4.59836
-0.741066
3.58688
8.29313
12.5498
15.4306
17.1089
18.1663
18.8742
19.3961
19.7924
20.0544
20.2927
20.3219
-16.155
-14.9202
-13.8154
-12.2546
-10.3033
-7.78099
-4.57907
-0.755309
3.59703
8.34377
12.6216
15.5482
17.2991
18.4428
19.2159
19.768
20.2075
20.4953
20.7468
20.7751
-16.347
-15.0935
-13.8887
-12.2368
-10.2544
-7.72986
-4.55896
-0.774006
3.59174
8.35022
12.64
15.6143
17.4448
18.6632
19.5151
20.105
20.5801
20.9007
21.149
21.1887
-16.5146
-15.2292
-13.9402
-12.2358
-10.2172
-7.69026
-4.53994
-0.776388
3.58702
8.33512
12.6256
15.6415
17.5466
18.8263
19.7574
20.3948
20.9198
21.282
21.5378
21.5695
-16.6372
-15.326
-13.9937
-12.2559
-10.2138
-7.67812
-4.52235
-0.757827
3.59115
8.31112
12.5817
15.6278
17.5986
18.933
19.9286
20.661
21.2262
21.6206
21.8928
21.9288
-16.7806
-15.44
-14.0612
-12.3087
-10.251
-7.69383
-4.51155
-0.731767
3.6003
8.27611
12.51
15.5672
17.5727
19.0054
20.0723
20.8769
21.5008
21.9398
22.2309
22.2636
-16.9292
-15.5718
-14.1632
-12.4049
-10.3269
-7.73386
-4.5185
-0.720535
3.59795
8.21842
12.4064
15.4544
17.5032
19.018
20.1758
21.0656
21.7552
22.2343
22.543
22.5611
-17.0687
-15.7099
-14.3005
-12.536
-10.4318
-7.80074
-4.55361
-0.740669
3.56181
8.12565
12.2663
15.294
17.3838
18.9748
20.2355
21.2233
21.9886
22.5171
22.8474
22.8378
-17.2742
-15.8982
-14.4772
-12.6964
-10.5644
-7.90207
-4.62945
-0.807094
3.47465
7.99006
12.0846
15.0942
17.2248
18.8876
20.2437
21.3415
22.2146
22.7978
23.1003
23.1066
-17.5396
-16.1201
-14.6883
-12.8842
-10.7263
-8.04394
-4.75683
-0.932789
3.32858
7.81105
11.8678
14.869
17.0375
18.7573
20.1954
21.3979
22.3926
23.0948
23.4216
23.2997
-17.8111
-16.3462
-14.9043
-13.0769
-10.9139
-8.21922
-4.93168
-1.11397
3.13071
7.59443
11.6219
14.6172
16.8116
18.5699
20.0679
21.3679
22.5064
23.395
23.8939
23.871
-18.0957
-16.5824
-15.1077
-13.2671
-11.1138
-8.41351
-5.13815
-1.3337
2.89518
7.34485
11.3459
14.3265
16.5236
18.2942
19.8215
21.178
22.4039
23.4598
23.8761
23.7534
-18.3741
-16.8395
-15.3763
-13.4997
-11.3131
-8.61704
-5.35488
-1.56637
2.64639
7.07926
11.0482
13.9963
16.1672
17.918
19.4317
20.7795
21.9736
22.8354
23.1063
23.0682
-18.65
-17.1487
-15.7112
-13.7457
-11.5161
-8.8286
-5.57323
-1.79974
2.39557
6.80348
10.7283
13.6231
15.7397
17.4365
18.8838
20.1333
21.1752
21.7185
21.887
21.9474
-18.9112
-17.4082
-15.929
-13.9318
-11.743
-9.03853
-5.79164
-2.02842
2.14631
6.51823
10.3838
13.2054
15.2413
16.8464
18.1727
19.2579
20.092
20.5319
20.6402
20.7992
-19.1222
-17.612
-16.0946
-14.1456
-11.9822
-9.24534
-6.01128
-2.25386
1.89446
6.21785
10.0099
12.7429
14.6741
16.1486
17.3153
18.2271
18.8837
19.2077
19.2252
19.4903
-19.3257
-17.9029
-16.4293
-14.4615
-12.2012
-9.46129
-6.22315
-2.47473
1.63856
5.89984
9.60561
12.2386
14.0435
15.3538
16.3375
17.063
17.4867
17.6784
17.7275
18.0296
-19.5849
-18.2051
-16.74
-14.7082
-12.4022
-9.67003
-6.41439
-2.68403
1.38422
5.56954
9.17864
11.7032
13.3671
14.4903
15.2725
15.8108
16.0452
15.9958
15.8475
16.0369
-19.8195
-18.3563
-16.8257
-14.8221
-12.5873
-9.83222
-6.58491
-2.87739
1.13427
5.2324
8.73855
11.1506
12.6707
13.5989
14.1601
14.494
14.5233
13.9519
12.9963
13.0608
-19.9784
-18.4791
-16.939
-14.968
-12.7273
-9.95823
-6.73524
-3.05607
0.888702
4.89284
8.29342
10.5943
11.9816
12.7269
13.0466
13.0951
12.9138
11.8446
9.62008
7.64374
-20.1787
-18.6766
-17.1438
-15.1291
-12.8267
-10.0815
-6.86224
-3.22345
0.6509
4.56052
7.85717
10.0542
11.3269
11.9209
12.0122
11.7249
11.2177
10.198
6.43299
-3.53098
-20.4129
-18.8444
-17.2573
-15.2098
-12.9175
-10.1852
-6.97178
-3.38258
0.422547
4.23865
7.42988
9.52677
10.7022
11.1845
11.1058
10.5855
9.86924
9.20587
8.60913
4.74395
-20.6006
-18.9961
-17.3587
-15.2969
-13.0105
-10.2672
-7.08296
-3.54277
0.192574
3.91641
7.00261
9.00558
10.1042
10.5296
10.4215
9.98424
9.42153
9.40946
10.2975
9.39264
-20.8003
-19.1924
-17.5344
-15.4358
-13.1093
-10.3611
-7.20258
-3.71024
-0.0432167
3.5936
6.58242
8.50874
9.56433
10.0076
10.0249
9.82872
9.56786
9.47957
9.94258
9.47103
-21.0294
-19.4124
-17.7114
-15.5722
-13.2159
-10.4715
-7.33042
-3.88739
-0.284694
3.27187
6.17723
8.05431
9.10884
9.63233
9.84458
9.82486
9.65257
9.4313
9.53737
9.47851
-21.2219
-19.5927
-17.8637
-15.7004
-13.3328
-10.5868
-7.46717
-4.07244
-0.530192
2.95441
5.79615
7.65798
8.75229
9.37401
9.7115
9.8373
9.73615
9.51532
9.63
9.66979
-21.3963
-19.7646
-18.0194
-15.8276
-13.4489
-10.7047
-7.61111
-4.2612
-0.776554
2.64518
5.44851
7.32912
8.4872
9.19829
9.62098
9.85034
9.86678
9.74533
9.85578
9.8912
-21.5278
-19.9062
-18.1571
-15.9385
-13.5628
-10.8283
-7.75525
-4.45044
-1.02091
2.34981
5.14031
7.06771
8.29996
9.09016
9.58885
9.91208
10.0588
10.0342
10.1081
10.1189
-21.6359
-20.0271
-18.262
-16.0159
-13.6684
-10.9379
-7.89091
-4.63655
-1.25661
2.0755
4.87327
6.86771
8.18016
9.04627
9.61785
10.031
10.3012
10.3481
10.3969
10.4086
-21.6647
-20.1078
-18.3175
-16.07
-13.7561
-11.0261
-8.01317
-4.81269
-1.47525
1.82949
4.64562
6.71736
8.1203
9.07558
9.71668
10.1978
10.5833
10.7017
10.757
10.7843
-21.6278
-20.1276
-18.3271
-16.0836
-13.8276
-11.0609
-8.11131
-4.97533
-1.66517
1.61637
4.45604
6.60669
8.109
9.17206
9.89807
10.4567
10.9151
11.1692
11.2716
11.3054
-21.4373
-20.0262
-18.2475
-16.0794
-13.8378
-11.0443
-8.19233
-5.11122
-1.82057
1.43311
4.30462
6.52868
8.13523
9.31026
10.1622
10.8158
11.355
11.7465
11.9231
11.9693
-21.1331
-19.8455
-18.0706
-15.9674
-13.6727
-11.0273
-8.24721
-5.19713
-1.95336
1.277
4.18571
6.47417
8.18372
9.48659
10.4658
11.2203
11.8324
12.3013
12.5389
12.5883
-20.6408
-19.4869
-17.7655
-15.7328
-13.4889
-10.977
-8.239
-5.23662
-2.0682
1.13771
4.07781
6.42441
8.22357
9.64073
10.7265
11.5468
12.1828
12.6589
12.9263
12.9904
-19.9211
-18.9491
-17.3069
-15.3825
-13.2561
-10.8483
-8.17725
-5.25413
-2.17012
1.00116
3.95112
6.33759
8.19244
9.67337
10.8038
11.6218
12.2424
12.7201
13.0197
13.1014
-19.0089
-18.2484
-16.7703
-14.9932
-12.9785
-10.6622
-8.07946
-5.25632
-2.26159
0.850499
3.77329
6.1599
8.0116
9.46801
10.5676
11.3682
11.9846
12.4724
12.7912
12.8888
-17.9207
-17.4472
-16.1767
-14.546
-12.644
-10.4336
-7.95802
-5.24396
-2.35165
0.666526
3.51033
5.82592
7.59405
8.97194
10.0356
10.8405
11.4633
11.9471
12.2717
12.389
-17.061
-16.8658
-15.7149
-14.1458
-12.3092
-10.1874
-7.81147
-5.21289
-2.45004
0.429656
3.13055
5.30747
6.96714
8.2893
9.34253
10.1474
10.7613
11.2314
11.5588
11.6957
-16.5597
-16.4519
-15.3278
-13.7988
-12.0017
-9.93246
-7.63977
-5.17142
-2.56817
0.131096
2.64604
4.67947
6.25699
7.52739
8.52602
9.28345
9.86845
10.3228
10.6532
10.82
-16.0897
-15.9504
-15.0107
-13.4937
-11.647
-9.59985
-7.4154
-5.10435
-2.68725
-0.194108
2.13084
4.02599
5.48731
6.63853
7.51224
8.17128
8.68171
9.07835
9.37335
9.54328
-15.5012
-15.4478
-14.6452
-13.0509
-11.1829
-9.18176
-7.11447
-4.97093
-2.75236
-0.459428
1.69943
3.44686
4.75229
5.75461
6.50834
7.05645
7.45642
7.74942
7.9502
8.06243
-14.3638
-14.4439
-13.675
-12.072
-10.3227
-8.50723
-6.65052
-4.72361
-2.72204
-0.633456
1.3363
2.90304
4.04649
4.9113
5.57065
6.02739
6.33953
6.54738
6.67034
6.7299
-11.9801
-12.1023
-11.6045
-10.3297
-8.96323
-7.48527
-5.9372
-4.30609
-2.57174
-0.740987
0.975299
2.31846
3.28403
4.00496
4.55054
4.91104
5.14477
5.29092
5.37284
5.40772
-8.80896
-8.84761
-8.59594
-7.99877
-7.19494
-6.14453
-4.99003
-3.70962
-2.29697
-0.781773
0.651331
1.77474
2.57623
3.16364
3.5961
3.87281
4.04845
4.15586
4.21507
4.24235
-5.60799
-5.63716
-5.58258
-5.41779
-5.1262
-4.60742
-3.89653
-2.97934
-1.9193
-0.74122
0.409462
1.32885
1.98055
2.44518
2.77968
2.9948
3.13169
3.21768
3.27033
3.29728
-3.00471
-3.04512
-3.08915
-3.14686
-3.15979
-3.03348
-2.72988
-2.17933
-1.46793
-0.609105
0.271973
1.00024
1.516
1.87118
2.1296
2.30544
2.42269
2.50174
2.55354
2.58538
-1.37635
-1.40175
-1.44736
-1.53501
-1.6274
-1.66735
-1.6249
-1.39642
-0.985665
-0.406921
0.2319
0.786822
1.18547
1.45527
1.66125
1.80882
1.91214
1.98475
2.02729
2.04822
-0.450121
-0.482869
-0.553118
-0.632213
-0.693001
-0.737871
-0.776328
-0.721141
-0.537598
-0.177292
0.263772
0.671658
0.97837
1.18838
1.35775
1.4797
1.56523
1.62717
1.65968
1.67302
-0.0146031
-0.0461769
-0.129396
-0.213848
-0.257779
-0.278444
-0.29124
-0.261738
-0.187175
0.0384377
0.333707
0.626798
0.864414
1.0315
1.17175
1.26729
1.3321
1.3799
1.40115
1.40844
0.155426
0.131902
0.0560681
-0.0365518
-0.0903042
-0.10836
-0.0972321
-0.042363
0.0325647
0.197641
0.403369
0.618392
0.804681
0.933348
1.04935
1.12061
1.16085
1.19107
1.20331
1.20729
0.199215
0.184518
0.127449
0.0507974
-0.00523924
-0.0369401
-0.0326489
0.0291927
0.118338
0.274255
0.443054
0.613214
0.764536
0.853854
0.946593
0.998037
1.01414
1.02599
1.03018
1.03172
0.198366
0.189093
0.153377
0.105742
0.0632684
0.0192853
0.00273493
0.0434196
0.128955
0.285073
0.44455
0.584816
0.71519
0.765375
0.826585
0.861697
0.865228
0.869112
0.866471
0.866825
0.201919
0.196046
0.173312
0.144189
0.116971
0.0752617
0.0484763
0.0668968
0.132027
0.265387
0.411744
0.514899
0.633894
0.654016
0.683105
0.70146
0.707741
0.71344
0.708748
0.709699
0.215403
0.213035
0.197488
0.179284
0.166844
0.139577
0.118551
0.123277
0.156591
0.242121
0.352974
0.416906
0.516581
0.527327
0.539458
0.549344
0.556518
0.56433
0.562265
0.564414
0.229529
0.229326
0.221565
0.213472
0.214841
0.208164
0.201408
0.199296
0.191266
0.223821
0.293381
0.329579
0.393288
0.406116
0.422225
0.432277
0.435599
0.440285
0.438725
0.44033
0.245099
0.245005
0.24159
0.239672
0.247139
0.249427
0.253865
0.255334
0.225597
0.227373
0.258963
0.27716
0.303979
0.320295
0.339773
0.349332
0.348691
0.349094
0.344596
0.344712
0.26507
0.263318
0.257388
0.251911
0.251448
0.245231
0.247177
0.255341
0.244222
0.247838
0.254752
0.255154
0.267423
0.2771
0.286634
0.289514
0.284824
0.282182
0.274398
0.272899
0.276658
0.273863
0.262787
0.249652
0.237597
0.217847
0.211419
0.217556
0.228487
0.247427
0.251166
0.247499
0.254978
0.254298
0.250841
0.245913
0.235386
0.228836
0.217984
0.215195
0.265257
0.262604
0.250068
0.23483
0.220065
0.197449
0.186308
0.185537
0.190908
0.211227
0.223045
0.226912
0.231971
0.225065
0.214384
0.206474
0.19277
0.184755
0.172504
0.169159
0.231831
0.230017
0.220897
0.21115
0.203345
0.18764
0.177704
0.167799
0.15794
0.166326
0.178464
0.186725
0.18738
0.182029
0.170821
0.165215
0.151975
0.145989
0.135312
0.132439
0.194235
0.193097
0.187999
0.183967
0.181952
0.173429
0.168776
0.156263
0.141703
0.13814
0.14012
0.144171
0.141671
0.137754
0.129002
0.125923
0.11488
0.112023
0.103836
0.101438
0.163499
0.162364
0.158763
0.155914
0.153925
0.148209
0.145595
0.140209
0.130905
0.12297
0.114426
0.112433
0.106677
0.1033
0.0961829
0.0943213
0.0852147
0.0832344
0.0770605
0.0749237
0.134463
0.133246
0.129761
0.126316
0.121863
0.115914
0.111938
0.112943
0.106998
0.106829
0.0948534
0.0896854
0.0821918
0.0797084
0.0708953
0.0705117
0.0614518
0.0606264
0.055144
0.0528972
0.100641
0.0988901
0.0957087
0.0927056
0.0874363
0.0836382
0.0774286
0.0782676
0.0704751
0.0798196
0.0708669
0.0686402
0.0609834
0.0606221
0.051095
0.051475
0.0421609
0.0407993
0.0364054
0.0340262
0.0602962
0.0588642
0.0573819
0.0565663
0.0513507
0.0520342
0.0440226
0.0458043
0.0354981
0.0464591
0.0397868
0.0440406
0.036988
0.0389275
0.0296627
0.0318134
0.0242618
0.0240437
0.0212036
0.0192806
0.0229131
0.0226607
0.022649
0.0225889
0.0154946
0.0196617
0.0111907
0.017226
0.00713703
0.0153914
0.00829582
0.0157684
0.00930202
0.0142713
0.00647282
0.0114588
0.00597791
0.0073381
0.00665793
0.00526526
13.0944
17.2933
18.3603
19.7122
20.8079
21.778
22.6185
23.3084
23.7442
23.8297
17.6346
19.6681
20.3365
21.1896
21.9253
22.5514
23.0634
23.444
23.6432
23.6279
20.0562
21.0602
21.5681
22.094
22.5535
22.941
23.2446
23.4595
23.5698
23.5848
21.39
22.0113
22.3367
22.6655
22.9401
23.1676
23.3423
23.4625
23.5304
23.5574
22.2683
22.5867
22.7879
22.9864
23.1554
23.2954
23.4025
23.4767
23.5182
23.5475
22.7458
22.9597
23.0716
23.1995
23.3007
23.3841
23.451
23.5011
23.5324
23.5578
23.0575
23.1959
23.2509
23.3327
23.3992
23.4555
23.5016
23.538
23.5617
23.5861
23.2612
23.3465
23.3877
23.4401
23.4866
23.5264
23.5598
23.5871
23.6073
23.6277
23.4135
23.4701
23.5014
23.5336
23.5665
23.5954
23.6193
23.6407
23.6568
23.6766
23.5413
23.5762
23.6006
23.6226
23.6438
23.6639
23.6818
23.6993
23.7129
23.7313
23.6523
23.6738
23.6913
23.7056
23.721
23.7361
23.7501
23.7647
23.7749
23.7924
23.7483
23.7615
23.7777
23.7919
23.8051
23.8173
23.8278
23.8373
23.842
23.8533
23.8431
23.8551
23.8699
23.8812
23.8898
23.8973
23.9045
23.9107
23.9114
23.9193
23.9437
23.9488
23.9581
23.9631
23.9667
23.9714
23.9772
23.9844
23.9887
23.9981
24.0583
24.0446
24.037
24.0314
24.0287
24.0304
24.0375
24.0511
24.0654
24.0943
24.1802
24.1249
24.094
24.0764
24.0682
24.0682
24.0768
24.0959
24.1274
24.1971
)
;

boundaryField
{
    wall-4
    {
        type            zeroGradient;
    }
    pressure-outlet-7
    {
        type            fixedValue;
        value           uniform 0;
    }
    velocity-inlet-6
    {
        type            zeroGradient;
    }
    velocity-inlet-5
    {
        type            zeroGradient;
    }
    frontAndBackPlanes
    {
        type            empty;
    }
}


// ************************************************************************* //
