/*--------------------------------*- C++ -*----------------------------------*\
| =========                 |                                                 |
| \\      /  F ield         | OpenFOAM: The Open Source CFD Toolbox           |
|  \\    /   O peration     | Version:  2412                                  |
|   \\  /    A nd           | Website:  www.openfoam.com                      |
|    \\/     M anipulation  |                                                 |
\*---------------------------------------------------------------------------*/
FoamFile
{
    version     2.0;
    format      ascii;
    arch        "LSB;label=32;scalar=64";
    class       surfaceScalarField;
    location    "6.5";
    object      phi;
}
// * * * * * * * * * * * * * * * * * * * * * * * * * * * * * * * * * * * * * //

dimensions      [0 3 -1 0 0 0 0];

oriented        oriented;

internalField   nonuniform List<scalar> 
4262
(
-7.8653e-05
0.220591
-0.00158063
0.830155
-0.00322051
1.76878
-0.00494671
3.16689
-0.00709602
5.18675
-0.00874906
8.01602
-0.0104818
11.8489
-0.0121694
16.8214
-0.0140753
22.8837
-0.0141266
29.5284
-0.0132881
29.5275
-0.0112025
22.8797
-0.00987317
16.8184
-0.00844327
11.8457
-0.00696583
8.01289
-0.00559915
5.18324
-0.00434874
3.16392
-0.00387225
1.76667
-0.00311073
0.827892
0.217402
-0.00234395
0.222935
-0.00524162
0.833053
-0.00942125
1.77296
-0.0142888
3.17176
-0.0213537
5.19382
-0.0279995
8.02266
-0.0334666
11.8543
-0.0394185
16.8274
-0.0441174
22.8884
-0.041882
29.5262
-0.0381557
29.5238
-0.0340648
22.8756
-0.0294903
16.8138
-0.0232062
11.8394
-0.0185417
8.00822
-0.0148629
5.17956
-0.01075
3.1598
-0.00758238
1.7635
-0.00329803
0.823607
0.214104
-0.00550881
0.228444
-0.0102179
0.837762
-0.0174327
1.78018
-0.0264526
3.18078
-0.0354821
5.20285
-0.0441801
8.03136
-0.0532368
11.8634
-0.0597124
16.8339
-0.0683868
22.8971
-0.0676786
29.5255
-0.0630481
29.5192
-0.0548322
22.8674
-0.0452613
16.8043
-0.0371385
11.8313
-0.0281412
7.99923
-0.0206074
5.17202
-0.0141851
3.15338
-0.00686527
1.75618
-0.000583936
0.817326
0.21352
-0.0101707
0.238615
-0.0187967
0.846388
-0.0299711
1.79135
-0.04271
3.19352
-0.05393
5.21407
-0.0635499
8.04098
-0.0764065
11.8763
-0.0855367
16.843
-0.0955119
22.9071
-0.0914049
29.5214
-0.0835409
29.5113
-0.0741665
22.8581
-0.0601014
16.7902
-0.0477232
11.8189
-0.0350053
7.98651
-0.0248853
5.1619
-0.0158668
3.14436
-0.00739003
1.7477
0.000487279
0.809449
0.214007
-0.014449
0.253064
-0.0256119
0.857551
-0.040296
1.80604
-0.0563865
3.20961
-0.0726446
5.23033
-0.085417
8.05375
-0.0976968
11.8885
-0.107068
16.8524
-0.12003
22.92
-0.116678
29.518
-0.107705
29.5023
-0.0935208
22.8439
-0.0735258
16.7702
-0.0559116
11.8013
-0.0396868
7.97028
-0.0274688
5.14969
-0.0172966
3.13419
-0.00910794
1.73951
0.000398173
0.799943
0.214405
-0.0142907
0.267355
-0.0282372
0.871497
-0.0481103
1.82591
-0.0709112
3.23241
-0.0933845
5.2528
-0.109331
8.0697
-0.12168
11.9009
-0.134249
16.8649
-0.145526
22.9313
-0.139576
29.5121
-0.127587
29.4903
-0.107427
22.8237
-0.0844131
16.7472
-0.0601714
11.7771
-0.0414592
7.95157
-0.0269023
5.13513
-0.0152597
3.12255
-0.00706498
1.73132
1.8701e-06
0.792876
0.214407
-0.0143451
0.2817
-0.0368481
0.894
-0.0615408
1.8506
-0.0854659
3.25634
-0.110501
5.27783
-0.136787
8.09599
-0.150616
11.9147
-0.163419
16.8777
-0.174887
22.9428
-0.165722
29.5029
-0.148882
29.4735
-0.121163
22.796
-0.0933697
16.7194
-0.0653006
11.749
-0.0444328
7.9307
-0.0276762
5.11837
-0.014225
3.1091
-0.00427665
1.72137
-0.00143192
0.790031
0.212975
-0.0195499
0.301249
-0.053996
0.928446
-0.0774668
1.87407
-0.0987282
3.2776
-0.124723
5.30383
-0.152169
8.12343
-0.174927
11.9375
-0.194448
16.8972
-0.206113
22.9544
-0.19005
29.4868
-0.165843
29.4493
-0.133862
22.764
-0.105055
16.6906
-0.0749356
11.7189
-0.0517495
7.90752
-0.0296917
5.09632
-0.0105584
3.08996
0.00267276
1.70814
-0.000431706
0.793135
0.212544
-0.026487
0.327737
-0.0672781
0.969238
-0.0870516
1.89385
-0.109207
3.29975
-0.135201
5.32982
-0.167789
8.15602
-0.198022
11.9677
-0.22398
16.9232
-0.239181
22.9696
-0.219915
29.4676
-0.188927
29.4183
-0.152981
22.7281
-0.121796
16.6594
-0.0887429
11.6858
-0.058922
7.8777
-0.0305628
5.06796
-0.0057686
3.06517
0.0162466
1.68612
0.00489675
0.804485
0.21744
-0.0313848
0.359121
-0.0791486
1.017
-0.0977739
1.91247
-0.122688
3.32467
-0.151814
5.35895
-0.18311
8.18732
-0.218395
12.003
-0.250324
16.9551
-0.273242
22.9926
-0.250576
29.4449
-0.214454
29.3822
-0.177345
22.691
-0.142966
16.625
-0.107823
11.6507
-0.0709651
7.84084
-0.0372108
5.0342
-0.00795648
3.03591
0.0213826
1.65679
0.00763755
0.81823
0.225078
-0.0337047
0.392826
-0.084035
1.06733
-0.105881
1.93432
-0.138782
3.35757
-0.171073
5.39124
-0.205652
8.22189
-0.24303
12.0404
-0.273918
16.986
-0.304497
23.0231
-0.286954
29.4273
-0.254517
29.3497
-0.214854
22.6513
-0.170337
16.5805
-0.124248
11.6046
-0.0793667
7.79596
-0.0432024
4.99804
-0.0140972
3.00681
0.017146
1.62554
0.00558431
0.829792
0.230662
-0.0344917
0.427318
-0.0879574
1.1208
-0.117804
1.96416
-0.1633
3.40306
-0.202866
5.43081
-0.23998
8.25901
-0.275422
12.0758
-0.307542
17.0181
-0.338824
23.0544
-0.325297
29.4138
-0.292064
29.3165
-0.24463
22.6039
-0.18826
16.5241
-0.135303
11.5516
-0.0878652
7.74852
-0.0448282
4.955
-0.0158917
2.97787
0.01205
1.5976
0.00285949
0.838982
0.233522
-0.0376834
0.465001
-0.097592
1.18071
-0.135785
2.00236
-0.186705
3.45398
-0.228941
5.47304
-0.2776
8.30767
-0.319686
12.1179
-0.354148
17.0526
-0.382337
23.0826
-0.369171
29.4007
-0.337649
29.285
-0.27935
22.5456
-0.208112
16.4529
-0.139798
11.4833
-0.0882387
7.69696
-0.0463223
4.91308
-0.017537
2.94909
0.00726219
1.5728
0.000152397
0.846092
0.233674
-0.0380479
0.503049
-0.0968937
1.23955
-0.147905
2.05337
-0.208341
3.51442
-0.271032
5.53573
-0.331108
8.36774
-0.377798
12.1646
-0.413357
17.0882
-0.441595
23.1109
-0.420908
29.38
-0.374094
29.2382
-0.295394
22.4669
-0.213964
16.3715
-0.144194
11.4136
-0.0948026
7.64757
-0.0512962
4.86958
-0.0110062
2.9088
0.00870635
1.55309
0.000237739
0.854561
0.233912
-0.0500539
0.553103
-0.12347
1.31297
-0.185435
2.11533
-0.239021
3.568
-0.307929
5.60464
-0.378522
8.43834
-0.439705
12.2258
-0.488431
17.1369
-0.513377
23.1358
-0.477834
29.3444
-0.408684
29.169
-0.318976
22.3772
-0.230795
16.2833
-0.152001
11.3348
-0.0901543
7.58572
-0.0490424
4.82847
-0.000715248
2.86047
0.0119981
1.54038
0.0012465
0.865313
0.235158
-0.0520081
0.605111
-0.131568
1.39253
-0.211897
2.19566
-0.281013
3.63712
-0.366096
5.68972
-0.446271
8.51851
-0.521125
12.3006
-0.581733
17.1975
-0.60701
23.1611
-0.54958
29.287
-0.447927
29.0674
-0.33844
22.2677
-0.240646
16.1855
-0.159114
11.2532
-0.0872301
7.51384
-0.0349437
4.77618
0.021707
2.80382
0.024897
1.53719
0.00564508
0.884564
0.240803
-0.0733198
0.678431
-0.175346
1.49455
-0.268522
2.28884
-0.343268
3.71187
-0.438064
5.78452
-0.519917
8.60036
-0.601614
12.3823
-0.673942
17.2698
-0.701163
23.1883
-0.630181
29.216
-0.51775
28.9549
-0.392342
22.1423
-0.279448
16.0726
-0.175424
11.1492
-0.0801221
7.41854
-0.0213679
4.71742
0.0306166
2.75184
0.0263937
1.54141
0.00506074
0.905897
0.245864
-0.0744902
0.752921
-0.18466
1.60472
-0.302555
2.40673
-0.403109
3.81242
-0.513155
5.89457
-0.605823
8.69303
-0.698897
12.4754
-0.780958
17.3519
-0.8094
23.2167
-0.728939
29.1356
-0.603119
28.8291
-0.455101
21.9942
-0.309422
15.9269
-0.186667
11.0264
-0.0834781
7.31535
-0.0109981
4.64494
0.0426032
2.69823
0.0337382
1.55027
0.00713826
0.932497
0.253002
-0.0950104
0.847931
-0.219617
1.72933
-0.34512
2.53224
-0.454032
3.92133
-0.579124
6.01966
-0.690893
8.8048
-0.7999
12.5844
-0.894407
17.4464
-0.925042
23.2474
-0.84237
29.0529
-0.705289
28.692
-0.538957
21.8279
-0.368623
15.7566
-0.217767
10.8756
-0.0951906
7.19277
-0.00876244
4.55852
0.0443059
2.64517
0.0303108
1.56427
0.00318857
0.95962
0.256191
-0.0987358
0.946667
-0.238916
1.86951
-0.389138
2.68246
-0.527985
4.06018
-0.667993
6.15966
-0.801966
8.93877
-0.926584
12.709
-1.04269
17.5625
-1.07223
23.2769
-0.980378
28.961
-0.8205
28.5322
-0.618328
21.6257
-0.413438
15.5517
-0.249931
10.7121
-0.121967
7.06481
-0.0138962
4.45045
0.0351851
2.59608
0.0238001
1.57565
-0.00182752
0.985247
0.254363
-0.118409
1.06508
-0.271306
2.02241
-0.437052
2.8482
-0.590107
4.21324
-0.752702
6.32226
-0.922357
9.10843
-1.08159
12.8682
-1.21817
17.6991
-1.24659
23.3053
-1.13849
28.8529
-0.940591
28.3343
-0.703765
21.3889
-0.47997
15.3279
-0.28362
10.5157
-0.133373
6.91456
-0.0109005
4.32797
0.0361426
2.54904
0.0125325
1.59926
-0.0133135
1.01109
0.24105
-0.13293
1.19801
-0.308565
2.19804
-0.499359
3.039
-0.696204
4.41008
-0.894332
6.52039
-1.106
9.32009
-1.29636
13.0586
-1.45502
17.8577
-1.46605
23.3164
-1.32691
28.7138
-1.08179
28.0891
-0.793129
21.1002
-0.524825
15.0596
-0.297709
10.2886
-0.142643
6.75949
-0.0163833
4.20171
0.0241873
2.50847
0.00689256
1.61656
-0.0244841
1.04247
0.216566
-0.156011
1.35402
-0.357144
2.39918
-0.584265
3.26612
-0.81824
4.64405
-1.06828
6.77043
-1.33113
9.58294
-1.55092
13.2784
-1.73184
18.0387
-1.71983
23.3044
-1.53409
28.528
-1.22846
27.7835
-0.890729
20.7625
-0.585853
14.7547
-0.330302
10.0331
-0.150948
6.58014
-0.0152969
4.06606
0.0157588
2.47741
-0.0145698
1.64689
-0.0401262
1.06803
0.17644
-0.188128
1.54214
-0.420336
2.63138
-0.685395
3.53118
-0.986351
4.94501
-1.30252
7.0866
-1.61027
9.89069
-1.86698
13.5351
-2.05536
18.227
-2.0099
23.2589
-1.78106
28.2992
-1.42023
27.4227
-1.02619
20.3685
-0.65932
14.3879
-0.367786
9.74153
-0.167549
6.3799
-0.0421995
3.94071
-0.0232861
2.4585
-0.0587415
1.68234
-0.0644089
1.07369
0.112031
-0.240759
1.7829
-0.508583
2.89921
-0.865261
3.88786
-1.24463
5.32438
-1.60676
7.44874
-1.94984
10.2338
-2.22929
13.8146
-2.40631
18.4041
-2.32294
23.1755
-2.05693
28.0332
-1.64436
27.0101
-1.1796
19.9037
-0.764674
13.9729
-0.441732
9.41859
-0.198888
6.13706
-0.0606232
3.80245
-0.044336
2.44221
-0.0856202
1.72363
-0.0931232
1.0812
0.0189076
-0.365363
2.14827
-0.766768
3.30061
-1.17926
4.30035
-1.58623
5.73135
-1.99158
7.85408
-2.3673
10.6095
-2.67848
14.1257
-2.81301
18.5386
-2.6876
23.0501
-2.37784
27.7234
-1.88011
26.5124
-1.35047
19.3741
-0.859693
13.4822
-0.490856
9.04975
-0.215111
5.86131
-0.085384
3.67272
-0.086577
2.44341
-0.129905
1.76695
-0.112323
1.06361
-0.0934152
-0.2926
2.44087
-0.650859
3.65887
-0.999398
4.64889
-1.39154
6.1235
-1.81521
8.27775
-2.23677
11.031
-2.64603
14.535
-2.85384
18.7464
-2.83039
23.0267
-2.57294
27.466
-2.0268
25.9662
-1.3898
18.7371
-0.834681
12.927
-0.370484
8.58556
-0.0304203
5.52125
0.0647719
3.57753
0.0479675
2.46021
-0.004338
1.81926
-0.0457083
1.10498
-0.139124
-0.176623
2.61749
-0.4136
3.89585
-0.703837
4.93912
-1.02099
6.44065
-1.33418
8.59094
-1.63208
11.3289
-1.91378
14.8167
-2.00058
18.8332
-1.89595
22.922
-1.55929
27.1293
-1.01076
25.4177
-0.486026
18.2123
-0.053399
12.4944
0.298497
8.23366
0.473949
5.3458
0.473618
3.57786
0.362331
2.5715
0.198531
1.98306
0.0764517
1.22706
-0.0626718
-0.133842
2.75133
-0.291261
4.05327
-0.51079
5.15865
-0.745416
6.67528
-0.976459
8.82198
-1.18144
11.5339
-1.35752
14.9928
-1.35956
18.8352
-1.20083
22.7633
-0.826263
26.7548
-0.296037
24.8875
0.136757
17.7795
0.476117
12.1551
0.673692
8.03609
0.672951
5.34654
0.541352
3.70946
0.358999
2.75385
0.225662
2.1164
0.118841
1.33389
0.0561689
-0.113311
2.86464
-0.258907
4.19886
-0.427473
5.32722
-0.588668
6.83647
-0.736322
8.96963
-0.874038
11.6716
-0.967985
15.0867
-0.910857
18.7781
-0.717167
22.5696
-0.322391
26.36
0.196749
24.3683
0.570261
17.406
0.831193
11.8941
0.932825
7.93445
0.903954
5.37541
0.75165
3.86176
0.530065
2.97544
0.315562
2.3309
0.13658
1.51287
0.192749
-0.0802326
2.94488
-0.212264
4.3309
-0.335527
5.45048
-0.455965
6.95691
-0.568243
9.08191
-0.675901
11.7793
-0.716189
15.127
-0.618914
18.6808
-0.398294
22.349
0.0142854
25.9474
0.486507
23.8961
0.797229
17.0953
1.00468
11.6867
1.02498
7.91415
0.867688
5.5327
0.631019
4.09843
0.398604
3.20785
0.235457
2.49405
0.115879
1.63245
0.308628
-0.071161
3.01604
-0.206627
4.46636
-0.315653
5.55951
-0.392325
7.03358
-0.468211
9.15779
-0.554138
11.8652
-0.557716
15.1306
-0.444411
18.5675
-0.21786
22.1225
0.158679
25.5709
0.618984
23.4358
0.91815
16.7961
1.09111
11.5137
1.06463
7.94064
0.909204
5.68812
0.708815
4.29882
0.506598
3.41007
0.305816
2.69483
0.13596
1.8023
0.444588
-0.0389819
3.05502
-0.155388
4.58277
-0.272865
5.67698
-0.36132
7.12204
-0.430491
9.22697
-0.481196
11.9159
-0.46025
15.1097
-0.344568
18.4518
-0.127427
21.9053
0.227608
25.2158
0.650588
23.0128
0.929591
16.5171
1.05061
11.3927
0.995205
7.99604
0.806816
5.87651
0.579708
4.52593
0.372727
3.61705
0.224259
2.8433
0.0928109
1.93375
0.537399
-0.0396247
3.09464
-0.156209
4.69935
-0.263332
5.78411
-0.350787
7.20949
-0.403763
9.27994
-0.440145
11.9523
-0.403559
15.0731
-0.289215
18.3375
-0.0914595
21.7076
0.237171
24.8872
0.620737
22.6293
0.889311
16.2486
0.992104
11.2899
0.904257
8.08388
0.710982
6.06979
0.502549
4.73436
0.321656
3.79794
0.150464
3.01449
0.046769
2.03744
0.584168
-0.0322447
3.12689
-0.116105
4.78321
-0.210863
5.87887
-0.316802
7.31543
-0.386425
9.34956
-0.415584
11.9815
-0.372829
15.0303
-0.266652
18.2313
-0.0888631
21.5298
0.210119
24.5882
0.559906
22.2795
0.804723
16.0037
0.861452
11.2332
0.763786
8.18155
0.596437
6.23713
0.412579
4.91822
0.246318
3.9642
0.11911
3.1417
0.0307418
2.12581
0.61491
-0.0249204
3.15181
-0.104973
4.86326
-0.194637
5.96853
-0.298848
7.41964
-0.366395
9.41711
-0.398639
12.0137
-0.358277
14.99
-0.266668
18.1397
-0.105214
21.3683
0.164591
24.3184
0.481434
21.9626
0.697885
15.7873
0.735288
11.1958
0.635943
8.2809
0.46442
6.40866
0.293745
5.08889
0.160767
4.09718
0.0587783
3.24369
0.00220876
2.18238
0.617118
-0.0222103
3.17402
-0.0862555
4.92731
-0.163778
6.04605
-0.25562
7.51149
-0.337453
9.49894
-0.379098
12.0554
-0.351073
14.9619
-0.275851
18.0645
-0.130418
21.2229
0.110703
24.0773
0.390586
21.6828
0.570336
15.6075
0.574681
11.1914
0.473788
8.38179
0.354219
6.52823
0.224778
5.21833
0.114898
4.20706
0.0272413
3.33134
-0.00756924
2.21719
0.609549
-0.0196692
3.19369
-0.08942
4.99706
-0.166998
6.12363
-0.247175
7.59166
-0.318917
9.57068
-0.359441
12.0959
-0.343828
14.9463
-0.284856
18.0055
-0.156846
21.0949
0.0555769
23.8649
0.297111
21.4412
0.438468
15.4662
0.43042
11.1995
0.334999
8.47721
0.226422
6.6368
0.116466
5.32829
0.047492
4.27603
-0.00816625
3.387
-0.0243698
2.2334
0.585179
-0.0179414
3.21163
-0.0792674
5.05839
-0.151575
6.19594
-0.230762
7.67085
-0.30131
9.64123
-0.340082
12.1347
-0.334046
14.9403
-0.289816
17.9613
-0.180176
20.9852
0.00137341
23.6833
0.201488
21.2411
0.300996
15.3667
0.275758
11.2247
0.191817
8.56115
0.120342
6.70828
0.0541607
5.39447
-0.0151741
4.34537
-0.050339
3.42217
-0.0386532
2.22171
0.546526
-0.0194725
3.2311
-0.0913035
5.13022
-0.163364
6.268
-0.229327
7.73681
-0.286533
9.69844
-0.322521
12.1706
-0.321807
14.9396
-0.288641
17.9281
-0.19707
20.8937
-0.0468124
23.5331
0.111405
21.0829
0.176639
15.3014
0.144277
11.2571
0.0771934
8.62823
0.00429815
6.78118
-0.0474264
5.4462
-0.0717746
4.36972
-0.0844525
3.43485
-0.0561573
2.19342
0.490369
-0.0260589
3.25716
-0.0876285
5.19179
-0.150944
6.33131
-0.21818
7.80405
-0.27355
9.75381
-0.307149
12.2042
-0.308592
14.941
-0.282194
17.9017
-0.207891
20.8194
-0.0889359
23.4141
0.0275868
20.9664
0.0587456
15.2703
0.00997259
11.3058
-0.0493999
8.68761
-0.090252
6.82203
-0.11711
5.47305
-0.140997
4.3936
-0.126251
3.4201
-0.071544
2.13871
0.418825
-0.0239804
3.28114
-0.0927024
5.26051
-0.154423
6.39304
-0.21382
7.86345
-0.261925
9.80191
-0.29282
12.2351
-0.29472
14.9429
-0.272586
17.8796
-0.214852
20.7616
-0.123567
23.3228
-0.0353026
20.8781
-0.0280996
15.2631
-0.0860972
11.3638
-0.148179
8.74969
-0.196192
6.87004
-0.214717
5.49158
-0.198735
4.37762
-0.165937
3.3873
-0.0940765
2.06685
0.324748
-0.0299239
3.31107
-0.0889264
5.31951
-0.141678
6.44579
-0.203019
7.92479
-0.251522
9.85042
-0.28046
12.2641
-0.282045
14.9445
-0.26283
17.8604
-0.219341
20.7181
-0.150908
23.2544
-0.090152
20.8173
-0.106757
15.2797
-0.189472
11.4466
-0.254097
8.81431
-0.281799
6.89774
-0.285821
5.4956
-0.274446
4.36625
-0.21214
3.325
-0.110533
1.96524
0.214216
-0.0306998
3.34176
-0.0911887
5.38
-0.141655
6.49625
-0.196736
7.97987
-0.241557
9.89524
-0.268243
12.2908
-0.269518
14.9458
-0.253489
17.8444
-0.221209
20.6859
-0.170722
23.2039
-0.134088
20.7807
-0.170047
15.3157
-0.252216
11.5287
-0.334957
8.89705
-0.382301
6.94509
-0.380792
5.49409
-0.330311
4.31577
-0.253399
3.24809
-0.115893
1.82773
0.0983225
-0.0280007
3.36977
-0.0803193
5.43232
-0.128823
6.54476
-0.185611
8.03665
-0.231988
9.94161
-0.256018
12.3148
-0.257681
14.9474
-0.24467
17.8313
-0.221031
20.6622
-0.18423
23.1671
-0.169391
20.7659
-0.225571
15.3718
-0.321604
11.6248
-0.406069
8.98152
-0.45369
6.99271
-0.45293
5.49333
-0.420704
4.28354
-0.301719
3.1291
-0.131225
1.65724
-0.0329027
-0.0285598
3.39833
-0.0776135
5.48137
-0.125615
6.59276
-0.176639
8.08768
-0.220234
9.98521
-0.24334
12.3379
-0.247665
14.9518
-0.238166
17.8218
-0.221168
20.6452
-0.194669
23.1406
-0.19858
20.7698
-0.270238
15.4435
-0.371152
11.7257
-0.459192
9.06956
-0.532269
7.06578
-0.547466
5.50853
-0.476554
4.21263
-0.31174
2.96429
0.0230291
1.32247
-0.00987354
-0.0302581
3.42858
-0.0717023
5.52282
-0.117747
6.63881
-0.169711
8.13964
-0.215236
10.0307
-0.240569
12.3632
-0.250374
14.9616
-0.246373
17.8178
-0.236225
20.6351
-0.219492
23.1239
-0.243451
20.7937
-0.33884
15.5389
-0.464282
11.8511
-0.572729
9.17801
-0.642081
7.13514
-0.675757
5.5422
-0.634516
4.17139
-0.406303
2.73607
-0.243165
1.15933
0.558608
-0.811647
-0.0286081
3.45719
-0.0660333
5.56024
-0.115193
6.68797
-0.16132
8.18577
-0.205161
10.0746
-0.231068
12.3891
-0.244979
14.9755
-0.24574
17.8186
-0.241485
20.6308
-0.234744
23.1171
-0.277277
20.8363
-0.390969
15.6526
-0.532348
11.9925
-0.663299
9.30896
-0.775367
7.24721
-0.858382
5.62522
-0.890142
4.20315
-0.732229
2.57816
-0.959474
1.38658
1.1452
-1.54606
-0.03182
3.48901
-0.0628668
5.59129
-0.110923
6.73602
-0.151077
8.22592
-0.19411
10.1176
-0.221921
12.417
-0.239758
14.9933
-0.24517
17.824
-0.24631
20.632
-0.249409
23.1202
-0.309162
20.896
-0.441685
15.7851
-0.607536
12.1583
-0.771156
9.47258
-0.921907
7.39796
-1.04256
5.74588
-1.02617
4.18675
-0.959475
2.51147
-1.34055
1.76765
1.55676
-1.75211
-0.0292239
3.51824
-0.0574356
5.6195
-0.107174
6.78576
-0.139447
8.2582
-0.183382
10.1615
-0.211482
12.4451
-0.232737
15.0146
-0.242635
17.8339
-0.248983
20.6383
-0.261552
23.1328
-0.336654
20.9711
-0.485578
15.934
-0.672145
12.3449
-0.868722
9.66915
-1.08055
7.60978
-1.24281
5.90813
-1.20262
4.14657
-1.36241
2.67125
-1.69976
2.10501
1.81506
-1.95806
-0.02401
3.54225
-0.0535617
5.64905
-0.0995661
6.83176
-0.133541
8.29217
-0.175764
10.2038
-0.203017
12.4723
-0.226859
15.0384
-0.239955
17.847
-0.250665
20.649
-0.27197
23.1541
-0.360534
21.0597
-0.524973
16.0985
-0.737361
12.5573
-0.971638
9.90343
-1.17903
7.81718
-1.27399
6.0031
-1.25292
4.1255
-1.51854
2.93687
-1.85866
2.44512
2.03571
-2.0793
-0.0218753
3.56412
-0.0540252
5.6812
-0.0959314
6.87367
-0.135171
8.33141
-0.172939
10.2415
-0.201937
12.5013
-0.227084
15.0636
-0.242348
17.8623
-0.256211
20.6629
-0.284922
23.1828
-0.385412
21.1602
-0.562486
16.2755
-0.79079
12.7856
-1.03474
10.1474
-1.24801
8.03044
-1.39178
6.14687
-1.56905
4.30278
-1.87374
3.24156
-2.16346
2.73484
2.18557
-2.31332
-0.0234388
3.58756
-0.0600725
5.71784
-0.0981318
6.91173
-0.140537
8.37382
-0.178589
10.2796
-0.209987
12.5327
-0.234571
15.0881
-0.25077
17.8785
-0.266217
20.6783
-0.301706
23.2183
-0.41305
21.2715
-0.599556
16.462
-0.834912
13.021
-1.09399
10.4065
-1.32056
8.257
-1.41343
6.23974
-1.58719
4.47653
-1.90176
3.55614
-2.15556
2.98863
2.38713
-2.35711
-0.0151261
3.60269
-0.0565761
5.75929
-0.102611
6.95777
-0.147756
8.41896
-0.188001
10.3198
-0.217572
12.5623
-0.242096
15.1127
-0.258327
17.8947
-0.275091
20.6951
-0.31711
23.2603
-0.439093
21.3935
-0.630005
16.6529
-0.857793
13.2488
-1.11258
10.6613
-1.34426
8.48868
-1.48022
6.3757
-1.7842
4.78051
-2.27641
4.04834
-2.65449
3.36671
2.68745
-2.95481
-0.0138107
3.6165
-0.0576515
5.80313
-0.105473
7.00559
-0.155257
8.46874
-0.197993
10.3626
-0.226702
12.591
-0.251598
15.1376
-0.266686
17.9098
-0.284009
20.7124
-0.331911
23.3082
-0.467055
21.5287
-0.660689
16.8466
-0.870289
13.4584
-1.1044
10.8954
-1.35594
8.74023
-1.59742
6.61718
-1.90157
5.08467
-2.3473
4.49407
-2.83871
3.85812
2.88885
-3.04012
-0.0169337
3.63343
-0.0585237
5.84472
-0.106189
7.05325
-0.15817
8.52072
-0.202782
10.4072
-0.23544
12.6236
-0.259301
15.1614
-0.273762
17.9242
-0.291051
20.7297
-0.343228
23.3604
-0.484347
21.6698
-0.675375
17.0376
-0.885769
13.6687
-1.09985
11.1094
-1.29849
8.93887
-1.55553
6.87421
-2.08575
5.61489
-2.47962
4.88794
-2.96702
4.34552
3.615
-3.69316
-0.0134674
3.6469
-0.0575232
5.88877
-0.10739
7.10312
-0.16325
8.57659
-0.208533
10.4525
-0.24231
12.6574
-0.264412
15.1835
-0.277797
17.9376
-0.293137
20.745
-0.344802
23.4121
-0.474896
21.7999
-0.649539
17.2123
-0.843052
13.8623
-1.03054
11.2969
-1.16775
9.07609
-1.42346
7.12992
-1.80921
6.00064
-1.98937
5.0681
-1.4477
3.80385
2.1673
-0.00690506
3.6538
-0.0536735
5.93554
-0.109101
7.15855
-0.168407
8.63589
-0.216167
10.5002
-0.25187
12.6931
-0.276841
15.2085
-0.291454
17.9522
-0.308687
20.7623
-0.363819
23.4672
-0.493434
21.9295
-0.665207
17.384
-0.851293
14.0483
-1.01415
11.4598
-1.09728
9.15922
-1.18729
7.21993
-1.187
6.00035
-1.04585
4.92694
-0.720195
3.4782
1.44711
-0.00967915
3.66348
-0.056223
5.98209
-0.10956
7.21188
-0.170536
8.69687
-0.222305
10.552
-0.260763
12.7316
-0.287389
15.2351
-0.302607
17.9675
-0.319952
20.7796
-0.375623
23.5229
-0.50416
22.058
-0.666443
17.5463
-0.829294
14.2112
-0.932972
11.5635
-0.980539
9.20678
-1.01016
7.24954
-1.05274
6.04293
-1.01877
4.89297
-0.819288
3.27872
0.627817
-0.000391511
3.66387
-0.051249
6.03294
-0.110019
7.27065
-0.17328
8.76013
-0.224794
10.6035
-0.265352
12.7721
-0.293201
15.263
-0.308863
17.9831
-0.325563
20.7963
-0.37916
23.5765
-0.501642
22.1805
-0.645722
17.6904
-0.77328
14.3388
-0.835302
11.6255
-0.889236
9.26072
-0.946864
7.30717
-0.980059
6.07613
-0.895468
4.80838
-0.399955
2.78321
0.227862
0.00219407
3.66168
-0.0483272
6.08347
-0.108156
7.33048
-0.173281
8.82525
-0.226326
10.6566
-0.268333
12.8141
-0.296093
15.2907
-0.311012
17.998
-0.325136
20.8104
-0.37362
23.6249
-0.483774
22.2907
-0.601502
17.8081
-0.687613
14.4249
-0.759666
11.6975
-0.788698
9.28975
-0.838047
7.35652
-0.815572
6.05365
-0.604944
4.59775
-0.16476
2.34302
0.0631014
0.00883193
3.65285
-0.04465
6.13695
-0.107278
7.39311
-0.171892
8.88987
-0.223055
10.7077
-0.264293
12.8554
-0.292054
15.3185
-0.304522
18.0105
-0.315205
20.8211
-0.356357
23.6661
-0.448486
22.3828
-0.538538
17.8982
-0.610729
14.4971
-0.67009
11.7569
-0.679927
9.29959
-0.702398
7.37899
-0.635164
5.98642
-0.447309
4.4099
-0.148008
2.04372
-0.0849061
0.0127642
3.64008
-0.0346855
6.1844
-0.0952235
7.45365
-0.160057
8.9547
-0.21363
10.7613
-0.256401
12.8982
-0.281246
15.3433
-0.290355
18.0196
-0.295975
20.8267
-0.327439
23.6976
-0.399374
22.4547
-0.468818
17.9676
-0.525833
14.5541
-0.558653
11.7897
-0.549421
9.29035
-0.529262
7.35883
-0.457205
5.91436
-0.321112
4.2738
-0.0745264
1.79714
-0.159433
0.0211908
3.61889
-0.0271373
6.23273
-0.0878848
7.5144
-0.149879
9.01669
-0.2003
10.8117
-0.238434
12.9363
-0.259206
15.3641
-0.264575
18.025
-0.263571
20.8257
-0.284617
23.7186
-0.339482
22.5096
-0.38922
18.0173
-0.420909
14.5858
-0.414786
11.7836
-0.391719
9.26729
-0.356173
7.32329
-0.29409
5.85228
-0.178955
4.15867
0.00529012
1.61289
-0.154142
0.0370943
3.5818
0.0023192
6.2675
-0.0537601
7.57048
-0.11785
9.08078
-0.171524
10.8654
-0.208911
12.9737
-0.225518
15.3807
-0.22711
18.0266
-0.218624
20.8173
-0.227957
23.7279
-0.265054
22.5467
-0.294766
18.0471
-0.297034
14.588
-0.263791
11.7504
-0.219326
9.22282
-0.162299
7.26626
-0.103205
5.79318
-0.0143825
4.06985
0.0465995
1.55191
-0.107543
0.0521365
3.52966
0.0215079
6.29813
-0.0297143
7.6217
-0.0916421
9.14271
-0.140731
10.9145
-0.165213
12.9982
-0.176614
15.3921
-0.174965
18.0249
-0.156858
20.7991
-0.155206
23.7263
-0.172738
22.5642
-0.178105
18.0524
-0.15804
14.568
-0.110327
11.7026
-0.042786
9.15528
0.0385294
7.18494
0.11118
5.72053
0.154853
4.02617
0.0853971
1.62137
-0.022146
0.0816548
3.44801
0.0755232
6.30426
0.0261322
7.67109
-0.0355304
9.20437
-0.073248
10.9522
-0.0987262
13.0236
-0.111851
15.4052
-0.102041
18.0151
-0.0780991
20.7752
-0.0674553
23.7156
-0.0633484
22.5601
-0.0443798
18.0335
0.00323938
14.5203
0.0639258
11.642
0.134934
9.08427
0.210325
7.10955
0.294637
5.63622
0.317263
4.00355
0.138855
1.79977
0.116709
0.0960017
3.35201
0.0906478
6.30961
0.0567303
7.70501
0.0206157
9.24049
-0.0036747
10.9765
-0.0290579
13.049
-0.0242333
15.4004
-0.00108439
17.992
0.0242819
20.7498
0.0456011
23.6943
0.0664663
22.5392
0.102767
17.9972
0.162153
14.461
0.233708
11.5704
0.288516
9.02947
0.354085
7.04398
0.425761
5.56454
0.427928
4.00138
0.20859
2.01911
0.325299
0.153531
3.19847
0.200768
6.26238
0.17949
7.72628
0.134938
9.28504
0.102042
11.0094
0.0993193
13.0517
0.10342
15.3963
0.132108
17.9633
0.167104
20.7148
0.193386
23.668
0.219128
22.5135
0.258301
17.958
0.311097
14.4082
0.362277
11.5192
0.40216
8.98958
0.440056
7.00609
0.473173
5.53143
0.441648
4.0329
0.237666
2.2231
0.562965
0.189126
3.00935
0.243433
6.20807
0.24294
7.72678
0.233356
9.29463
0.236555
11.0062
0.239933
13.0484
0.262232
15.374
0.29975
17.9258
0.337159
20.6774
0.365647
23.6396
0.387978
22.4912
0.412501
17.9335
0.437841
14.3828
0.452522
11.5045
0.453033
8.98907
0.466582
6.99254
0.479831
5.51818
0.439056
4.07368
0.243316
2.41884
0.80628
0.289488
2.71986
0.432502
6.06506
0.454907
7.70437
0.441039
9.30849
0.432313
11.0149
0.434724
13.046
0.464616
15.3441
0.506734
17.8837
0.543278
20.6409
0.566189
23.6166
0.571377
22.486
0.562735
17.9421
0.547188
14.3984
0.529663
11.5221
0.509108
9.00963
0.50315
6.9985
0.493108
5.52822
0.424996
4.14179
0.226845
2.61699
1.03313
0.371406
2.34845
0.555474
5.88099
0.608125
7.65172
0.631273
9.28534
0.645744
11.0004
0.673905
13.0178
0.71841
15.2996
0.765115
17.8369
0.800719
20.6053
0.809288
23.6081
0.780656
22.5146
0.728293
17.9945
0.673775
14.4529
0.623461
11.5724
0.563725
9.06936
0.504993
7.05723
0.444659
5.58855
0.351042
4.23541
0.178452
2.78958
1.21158
0.585986
1.76247
0.878876
5.5881
0.944249
7.58635
0.952728
9.27687
0.951597
11.0016
0.977718
12.9917
1.02875
15.2486
1.08186
17.7838
1.11579
20.5714
1.10479
23.6191
1.04292
22.5765
0.964921
18.0725
0.887252
14.5306
0.795291
11.6643
0.669813
9.19484
0.551484
7.17556
0.446498
5.69354
0.323488
4.35842
0.149063
2.964
1.36064
0.786628
0.975841
1.15038
5.22435
1.25969
7.47704
1.30772
9.22884
1.3315
10.9778
1.3747
12.9485
1.43475
15.1885
1.49007
17.7285
1.52201
20.5394
1.50002
23.6411
1.42255
22.654
1.31731
18.1777
1.18377
14.6641
1.02161
11.8265
0.827873
9.38858
0.64209
7.36134
0.484212
5.85142
0.327582
4.51505
0.146473
3.14511
1.50711
0.755145
0.220696
1.52574
4.45375
1.71798
7.28479
1.76422
9.1826
1.79445
10.9476
1.84022
12.9027
1.91597
15.1128
1.99077
17.6537
2.03796
20.4922
2.02532
23.6537
1.93428
22.745
1.77907
18.3329
1.58102
14.8622
1.35619
12.0513
1.10327
9.6415
0.860783
7.60383
0.654696
6.0575
0.4474
4.72235
0.21354
3.37897
1.72065
0.611836
-0.39114
1.72066
3.34494
2.1748
6.83065
2.31877
9.03864
2.38933
10.877
2.44964
12.8424
2.5484
15.014
2.65176
17.5504
2.72866
20.4153
2.73327
23.6491
2.62317
22.8551
2.43156
18.5245
2.19529
15.0984
1.92415
12.3225
1.60655
9.95911
1.26302
7.94735
0.941805
6.37872
0.626283
5.03787
0.294345
3.71091
2.015
0.47759
-0.86873
1.47965
2.34287
2.01267
6.29763
2.23819
8.81311
2.35016
10.765
2.39556
12.797
2.43004
14.9795
2.44157
17.5388
2.40287
20.454
2.27534
23.7766
2.07244
23.058
1.85378
18.7432
1.62277
15.3294
1.36871
12.5765
1.11217
10.2156
0.874562
8.18496
0.66063
6.59265
0.449307
5.24919
0.215865
3.94435
2.23086
0.0286466
-0.897377
0.43912
1.9324
0.912025
5.82473
1.23446
8.49068
1.43426
10.5652
1.581
12.6502
1.71226
14.8483
1.81414
17.437
1.8475
20.4207
1.77931
23.8448
1.6273
23.21
1.4479
18.9226
1.26386
15.5135
1.07665
12.7637
0.868975
10.4233
0.656824
8.39712
0.482869
6.76661
0.317789
5.41427
0.147746
4.11439
2.37861
-0.163671
-0.733706
-0.262633
2.03136
-0.00480225
5.5669
0.296198
8.18968
0.590888
10.2705
0.867187
12.3739
1.07976
14.6357
1.24754
17.2692
1.34587
20.3223
1.34759
23.8431
1.2523
23.3053
1.12235
19.0525
0.979788
15.656
0.831782
12.9117
0.672848
10.5823
0.504661
8.5653
0.363281
6.90799
0.229651
5.5479
0.093773
4.25027
2.47238
-0.319904
-0.413802
-0.639835
2.35129
-0.612561
5.53962
-0.339056
7.91617
-0.00197667
9.93344
0.291633
12.0803
0.552749
14.3746
0.768198
17.0537
0.918327
20.1722
0.977182
23.7842
0.943434
23.339
0.859216
19.1367
0.753698
15.7615
0.644113
13.0213
0.525862
10.7005
0.394899
8.69626
0.282434
7.02045
0.176891
5.65344
0.0690245
4.35814
2.54141
-0.420174
0.00637184
-0.718805
2.64992
-0.716742
5.53756
-0.570498
7.76993
-0.351687
9.71463
-0.0758533
11.8045
0.187707
14.111
0.417721
16.8237
0.591696
19.9982
0.687232
23.6887
0.693492
23.3328
0.646475
19.1838
0.57597
15.8321
0.500877
13.0964
0.416638
10.7847
0.317167
8.79574
0.224088
7.11353
0.128702
5.74883
0.0303072
4.45653
2.57171
-0.361036
0.367408
-0.652767
2.94165
-0.65337
5.53816
-0.551501
7.66806
-0.413233
9.57636
-0.230023
11.6213
-0.00947591
13.8905
0.184399
16.6298
0.354938
19.8277
0.466557
23.5771
0.498299
23.301
0.480359
19.2017
0.439369
15.873
0.389707
13.1461
0.329185
10.8453
0.249095
8.87583
0.162792
7.19984
0.0734844
5.83814
-0.00792661
4.53794
2.56379
-0.329889
0.697297
-0.549653
3.16142
-0.546222
5.53473
-0.461929
7.58377
-0.350279
9.46471
-0.235869
11.5069
-0.106491
13.7611
0.0533923
16.47
0.200419
19.6807
0.309853
23.4676
0.354141
23.2568
0.354787
19.2011
0.333609
15.8942
0.297626
13.1821
0.250811
10.8921
0.184188
8.94245
0.105682
7.27834
0.026743
5.91708
-0.0356625
4.60035
2.52813
-0.25856
0.955857
-0.438201
3.34106
-0.469298
5.56583
-0.395732
7.5102
-0.294728
9.36371
-0.194686
11.4068
-0.100828
13.6672
0.010049
16.3591
0.114514
19.5762
0.207391
23.3748
0.252477
23.2117
0.260905
19.1926
0.248695
15.9064
0.21993
13.2108
0.182371
10.9296
0.125925
8.9989
0.0573887
7.34688
-0.0119743
5.98644
-0.0562048
4.64458
2.47192
-0.188104
1.14396