/*--------------------------------*- C++ -*----------------------------------*\
| =========                 |                                                 |
| \\      /  F ield         | OpenFOAM: The Open Source CFD Toolbox           |
|  \\    /   O peration     | Version:  2412                                  |
|   \\  /    A nd           | Website:  www.openfoam.com                      |
|    \\/     M anipulation  |                                                 |
\*---------------------------------------------------------------------------*/
FoamFile
{
    version     2.0;
    format      ascii;
    arch        "LSB;label=32;scalar=64";
    class       volVectorField;
    location    "6.5";
    object      U;
}
// * * * * * * * * * * * * * * * * * * * * * * * * * * * * * * * * * * * * * //

dimensions      [0 1 -1 0 0 0 0];

internalField   nonuniform List<vector> 
2200
(
(0.378158 -0.000229723 0)
(1.19375 0.000387043 0)
(2.12284 0.00128614 0)
(3.16882 0.00182023 0)
(4.3256 0.00294366 0)
(5.57176 0.00324563 0)
(6.86345 0.00425144 0)
(8.11994 0.00469236 0)
(9.20643 0.00524151 0)
(9.9014 0.00564573 0)
(9.90157 0.00565589 0)
(9.20722 0.00516959 0)
(8.12201 0.00417767 0)
(6.86455 0.00403195 0)
(5.57166 0.00349353 0)
(4.32496 0.0027814 0)
(3.16824 0.00221586 0)
(2.12226 0.00193132 0)
(1.19228 0.00157235 0)
(0.375366 0.00135565 0)
(0.38099 0.000938677 0)
(1.19585 0.00140291 0)
(2.12532 0.00352628 0)
(3.17097 0.00539245 0)
(4.32804 0.0078706 0)
(5.57429 0.0109587 0)
(6.86673 0.0129111 0)
(8.12376 0.0152454 0)
(9.20838 0.0172727 0)
(9.90009 0.0172603 0)
(9.89953 0.0159923 0)
(9.20455 0.0146884 0)
(8.11823 0.0138595 0)
(6.86096 0.011397 0)
(5.56919 0.00918946 0)
(4.32218 0.0076768 0)
(3.16444 0.00583369 0)
(2.11687 0.00400983 0)
(1.18505 0.0031844 0)
(0.370382 5.27239e-05 0)
(0.387211 0.00252284 0)
(1.20077 0.00301133 0)
(2.13066 0.00597828 0)
(3.17638 0.0099356 0)
(4.33197 0.0132418 0)
(5.57774 0.0175676 0)
(6.86851 0.0209209 0)
(8.1233 0.023771 0)
(9.20951 0.0266258 0)
(9.89991 0.0279694 0)
(9.89877 0.0270461 0)
(9.20281 0.0248603 0)
(8.11538 0.0212038 0)
(6.85719 0.0180362 0)
(5.56358 0.0147858 0)
(4.31577 0.011211 0)
(3.15784 0.00770088 0)
(2.10972 0.0045691 0)
(1.17751 0.00230057 0)
(0.367589 -0.00150873 0)
(0.400108 0.00427363 0)
(1.20966 0.00576741 0)
(2.14111 0.0114815 0)
(3.18616 0.0155004 0)
(4.34223 0.0211454 0)
(5.58692 0.0248364 0)
(6.87492 0.0299042 0)
(8.12871 0.0348908 0)
(9.21287 0.0381501 0)
(9.89745 0.0386924 0)
(9.8952 0.0365537 0)
(9.19668 0.0329402 0)
(8.10827 0.0289402 0)
(6.84906 0.0240898 0)
(5.5559 0.0186935 0)
(4.30829 0.013665 0)
(3.1496 0.00937228 0)
(2.10044 0.00460192 0)
(1.16822 0.00218184 0)
(0.367302 -0.00223195 0)
(0.424242 0.00511956 0)
(1.22665 0.00840636 0)
(2.15618 0.0158924 0)
(3.20107 0.0213772 0)
(4.35253 0.0267952 0)
(5.59379 0.0339988 0)
(6.88111 0.0392247 0)
(8.13264 0.043034 0)
(9.21683 0.0481221 0)
(9.89638 0.0498668 0)
(9.89265 0.0469293 0)
(9.19335 0.0425039 0)
(8.10205 0.0364259 0)
(6.84142 0.029117 0)
(5.5466 0.0216078 0)
(4.29794 0.0148118 0)
(3.13938 0.0103305 0)
(2.09041 0.005476 0)
(1.1569 0.00215168 0)
(0.368416 -0.00192935 0)
(0.449426 0.00317935 0)
(1.24242 0.0102023 0)
(2.17646 0.017081 0)
(3.2211 0.0266373 0)
(4.37407 0.0371021 0)
(5.61143 0.0430384 0)
(6.89307 0.0483191 0)
(8.14079 0.0541696 0)
(9.22227 0.059227 0)
(9.89493 0.0600699 0)
(9.88896 0.0563025 0)
(9.18412 0.0501854 0)
(8.0925 0.0421371 0)
(6.83183 0.0329535 0)
(5.53806 0.0227012 0)
(4.29097 0.0149035 0)
(3.13228 0.00850748 0)
(2.08349 0.00569933 0)
(1.14672 0.00025277 0)
(0.37141 -3.60543e-05 0)
(0.474665 0.000605017 0)
(1.27021 0.0143114 0)
(2.20737 0.0188306 0)
(3.25033 0.033883 0)
(4.39468 0.0450852 0)
(5.62973 0.0538991 0)
(6.90854 0.0604772 0)
(8.15023 0.06613 0)
(9.22897 0.0711306 0)
(9.89246 0.0718764 0)
(9.8846 0.0668067 0)
(9.17946 0.0588893 0)
(8.0847 0.0478649 0)
(6.82303 0.0354294 0)
(5.52875 0.0250861 0)
(4.27879 0.0145567 0)
(3.11956 0.00842957 0)
(2.07236 0.0056734 0)
(1.13835 -0.00182921 0)
(0.369018 0.00277316 0)
(0.502862 0.000634764 0)
(1.31135 0.0201493 0)
(2.23933 0.0259043 0)
(3.26978 0.0391782 0)
(4.41706 0.0521147 0)
(5.65142 0.0616997 0)
(6.92551 0.0707989 0)
(8.16336 0.0783303 0)
(9.24034 0.0841905 0)
(9.89351 0.0833935 0)
(9.8812 0.0762285 0)
(9.16957 0.0660246 0)
(8.07235 0.05346 0)
(6.80767 0.039905 0)
(5.51079 0.0262224 0)
(4.26226 0.0181825 0)
(3.10583 0.00760813 0)
(2.06011 0.00299406 0)
(1.13771 -0.00430019 0)
(0.366474 0.00375717 0)
(0.544085 0.00250269 0)
(1.37035 0.0251798 0)
(2.26444 0.0316252 0)
(3.29187 0.0441711 0)
(4.43424 0.0531395 0)
(5.66632 0.068395 0)
(6.9391 0.0822502 0)
(8.17443 0.090468 0)
(9.24918 0.0968395 0)
(9.89045 0.0969643 0)
(9.87609 0.0880552 0)
(9.16169 0.0762312 0)
(8.06081 0.0610118 0)
(6.79392 0.0441582 0)
(5.49551 0.0307912 0)
(4.24273 0.0208802 0)
(3.08122 0.00787782 0)
(2.0419 -0.00197306 0)
(1.1492 -0.00904759 0)
(0.370515 0.00252841 0)
(0.590671 0.0047431 0)
(1.42497 0.0273763 0)
(2.28404 0.0406896 0)
(3.31287 0.0475138 0)
(4.4608 0.0568202 0)
(5.68776 0.0752437 0)
(6.95815 0.0895469 0)
(8.18939 0.101256 0)
(9.26136 0.111698 0)
(9.88997 0.110771 0)
(9.86983 0.0993132 0)
(9.14751 0.0847013 0)
(8.0405 0.0688819 0)
(6.76787 0.0525886 0)
(5.4636 0.0380985 0)
(4.21078 0.0260906 0)
(3.05212 0.01014 0)
(2.00631 -0.00310966 0)
(1.16961 -0.0110275 0)
(0.382299 0.00142549 0)
(0.654766 0.00563216 0)
(1.51161 0.028349 0)
(2.31193 0.0458381 0)
(3.34376 0.0523136 0)
(4.47949 0.0633728 0)
(5.70203 0.0821265 0)
(6.96813 0.0976746 0)
(8.19748 0.112453 0)
(9.26741 0.125475 0)
(9.88351 0.126091 0)
(9.85972 0.114024 0)
(9.13067 0.0992332 0)
(8.01926 0.082198 0)
(6.74124 0.0642959 0)
(5.43585 0.0445528 0)
(4.18207 0.0277279 0)
(3.0191 0.0141674 0)
(1.96614 -0.00265347 0)
(1.18477 -0.00815543 0)
(0.392702 0.000867535 0)
(0.702021 0.00741679 0)
(1.56549 0.0267911 0)
(2.33597 0.0520728 0)
(3.38128 0.0581284 0)
(4.51837 0.0799078 0)
(5.73239 0.0956965 0)
(6.99156 0.108502 0)
(8.21024 0.124965 0)
(9.27464 0.140901 0)
(9.87664 0.142533 0)
(9.84605 0.129627 0)
(9.10582 0.112407 0)
(7.98504 0.0926809 0)
(6.70546 0.0726136 0)
(5.39746 0.0511091 0)
(4.14747 0.0269139 0)
(2.99315 0.0161434 0)
(1.93241 -0.003051 0)
(1.20377 -0.00433091 0)
(0.401713 0.000240223 0)
(0.781228 0.00767093 0)
(1.67398 0.0298409 0)
(2.38903 0.0586295 0)
(3.43762 0.068819 0)
(4.5458 0.0947619 0)
(5.75553 0.108399 0)
(7.00699 0.124447 0)
(8.21838 0.143606 0)
(9.27709 0.158652 0)
(9.86192 0.159847 0)
(9.82427 0.148994 0)
(9.07719 0.130889 0)
(7.95468 0.106582 0)
(6.6744 0.0805752 0)
(5.36906 0.0516673 0)
(4.11351 0.0231114 0)
(2.96363 0.0208048 0)
(1.89968 -0.00499979 0)
(1.21082 -0.00024166 0)
(0.401814 -0.000293377 0)
(0.82669 0.00993401 0)
(1.73334 0.0273475 0)
(2.43041 0.0624793 0)
(3.49113 0.0753353 0)
(4.59891 0.112872 0)
(5.80306 0.131458 0)
(7.04102 0.148887 0)
(8.23916 0.166315 0)
(9.28554 0.18081 0)
(9.84685 0.183322 0)
(9.80147 0.168694 0)
(9.04506 0.145973 0)
(7.91374 0.114379 0)
(6.63063 0.0817261 0)
(5.33053 0.0533408 0)
(4.07742 0.0264229 0)
(2.93555 0.0215032 0)
(1.87499 -0.00987139 0)
(1.2267 0.000434191 0)
(0.404806 -0.000835817 0)
(0.926114 0.0116383 0)
(1.85655 0.0367435 0)
(2.51453 0.0807128 0)
(3.55641 0.0870729 0)
(4.65101 0.129238 0)
(5.8465 0.150855 0)
(7.0733 0.175624 0)
(8.25937 0.195532 0)
(9.29426 0.209958 0)
(9.83053 0.208582 0)
(9.77402 0.191153 0)
(9.01067 0.163041 0)
(7.88093 0.125056 0)
(6.60097 0.0847117 0)
(5.29931 0.0528999 0)
(4.04415 0.0253877 0)
(2.88562 0.0190172 0)
(1.85324 -0.0158661 0)
(1.23396 0.00140415 0)
(0.40212 -0.00157366 0)
(0.988762 0.0124845 0)
(1.93815 0.0353205 0)
(2.58908 0.0895633 0)
(3.6127 0.104278 0)
(4.72501 0.14925 0)
(5.91048 0.178413 0)
(7.1214 0.212808 0)
(8.29977 0.233913 0)
(9.31185 0.248394 0)
(9.81717 0.244414 0)
(9.75065 0.215493 0)
(8.9765 0.177787 0)
(7.83787 0.130065 0)
(6.5465 0.0829963 0)
(5.24683 0.0554733 0)
(4.00488 0.0248451 0)
(2.83571 0.00672372 0)
(1.84683 -0.0236064 0)
(1.26229 -0.0027572 0)
(0.41422 -0.00169942 0)
(1.12244 0.0182643 0)
(2.09766 0.051511 0)
(2.70165 0.113859 0)
(3.68694 0.130645 0)
(4.79142 0.17693 0)
(5.95927 0.210951 0)
(7.1611 0.245298 0)
(8.32742 0.271285 0)
(9.32945 0.289977 0)
(9.8079 0.282331 0)
(9.72735 0.244516 0)
(8.93747 0.197526 0)
(7.79195 0.146386 0)
(6.50303 0.0967016 0)
(5.19345 0.0546373 0)
(3.95785 0.0227144 0)
(2.77609 -0.00238257 0)
(1.8439 -0.0243349 0)
(1.28309 -0.00209387 0)
(0.416491 -0.00155127 0)
(1.23654 0.015263 0)
(2.23483 0.0521583 0)
(2.83284 0.119598 0)
(3.78161 0.160521 0)
(4.89363 0.202397 0)
(6.03222 0.2456 0)
(7.21881 0.283662 0)
(8.37638 0.314902 0)
(9.34768 0.338421 0)
(9.79526 0.327591 0)
(9.69952 0.282141 0)
(8.88818 0.225245 0)
(7.72709 0.164332 0)
(6.42038 0.104612 0)
(5.11074 0.0622273 0)
(3.9001 0.0210753 0)
(2.72275 -0.00992871 0)
(1.85116 -0.0274441 0)
(1.32443 -0.00542227 0)
(0.434216 -0.000596045 0)
(1.38347 0.0246156 0)
(2.41292 0.0630667 0)
(2.97164 0.139267 0)
(3.88044 0.179936 0)
(4.97755 0.23228 0)
(6.09132 0.277937 0)
(7.26983 0.321264 0)
(8.40691 0.36184 0)
(9.35862 0.386525 0)
(9.77137 0.377995 0)
(9.65969 0.325969 0)
(8.82585 0.26374 0)
(7.65162 0.194358 0)
(6.35472 0.135028 0)
(5.04941 0.0673649 0)
(3.83969 0.0234743 0)
(2.67093 -0.012302 0)
(1.86551 -0.0281851 0)
(1.35807 -0.00198166 0)
(0.438454 -5.87834e-05 0)
(1.57426 0.0202528 0)
(2.60931 0.0722634 0)
(3.1583 0.147076 0)
(4.02043 0.2121 0)
(5.11044 0.271612 0)
(6.18957 0.323957 0)
(7.34091 0.369539 0)
(8.45876 0.419709 0)
(9.3681 0.449598 0)
(9.73929 0.435734 0)
(9.60122 0.381975 0)
(8.74338 0.308634 0)
(7.55341 0.227251 0)
(6.23939 0.149945 0)
(4.93967 0.0818597 0)
(3.74609 0.029137 0)
(2.61319 -0.012029 0)
(1.87858 -0.0214155 0)
(1.40159 -0.00283761 0)
(0.445455 0.00408962 0)
(1.72301 0.0307856 0)
(2.81789 0.0750636 0)
(3.33339 0.173734 0)
(4.16022 0.230592 0)
(5.22584 0.306628 0)
(6.28834 0.373085 0)
(7.41254 0.429837 0)
(8.50512 0.489461 0)
(9.36641 0.519186 0)
(9.6867 0.508531 0)
(9.52763 0.440352 0)
(8.64835 0.359915 0)
(7.44911 0.262418 0)
(6.15737 0.174979 0)
(4.87136 0.0877758 0)
(3.66316 0.0295349 0)
(2.57246 -0.0142464 0)
(1.89607 -0.0220108 0)
(1.43365 0.00635749 0)
(0.432627 0.00672617 0)
(2.00078 0.0279076 0)
(3.06634 0.0964036 0)
(3.57296 0.186281 0)
(4.34732 0.275005 0)
(5.38443 0.35992 0)
(6.42159 0.44408 0)
(7.51434 0.517699 0)
(8.57087 0.585117 0)
(9.36536 0.613672 0)
(9.63235 0.594051 0)
(9.43627 0.513846 0)
(8.52974 0.412658 0)
(7.32397 0.291755 0)
(6.01429 0.174684 0)
(4.74059 0.0988547 0)
(3.54625 0.0285916 0)
(2.52361 -0.00885565 0)
(1.93034 -0.014801 0)
(1.47081 0.00507344 0)
(0.400726 0.0163501 0)
(2.18729 0.0399052 0)
(3.33974 0.0973085 0)
(3.81337 0.227587 0)
(4.56105 0.315438 0)
(5.5605 0.426411 0)
(6.57343 0.526804 0)
(7.61741 0.619005 0)
(8.65266 0.699361 0)
(9.3642 0.727014 0)
(9.57269 0.698069 0)
(9.34806 0.587826 0)
(8.41633 0.460765 0)
(7.2039 0.320225 0)
(5.90186 0.19658 0)
(4.6574 0.112179 0)
(3.45742 0.0256916 0)
(2.49324 -0.00760384 0)
(1.94707 -0.00928732 0)
(1.53263 0.0192052 0)
(0.348737 0.0183076 0)
(2.56287 0.0414172 0)
(3.65807 0.132083 0)
(4.12019 0.250623 0)
(4.81715 0.381248 0)
(5.77742 0.509934 0)
(6.75579 0.628183 0)
(7.75367 0.747029 0)
(8.75225 0.83652 0)
(9.36838 0.861456 0)
(9.52996 0.820173 0)
(9.26545 0.676955 0)
(8.28867 0.526046 0)
(7.04746 0.370367 0)
(5.72595 0.223338 0)
(4.49435 0.123837 0)
(3.32449 0.0319712 0)
(2.46297 0.00921031 0)
(1.99187 0.00983992 0)
(1.53952 0.0351805 0)
(0.260344 0.0268084 0)
(2.82676 0.0615603 0)
(4.02683 0.143787 0)
(4.45601 0.320639 0)
(5.11089 0.46528 0)
(6.02649 0.625363 0)
(6.95674 0.766387 0)
(7.89088 0.896195 0)
(8.84041 0.987874 0)
(9.35213 1.00839 0)
(9.46194 0.948028 0)
(9.14963 0.782888 0)
(8.12286 0.609169 0)
(6.86284 0.434161 0)
(5.56849 0.26464 0)
(4.38061 0.146651 0)
(3.24965 0.038413 0)
(2.4622 0.0184928 0)
(2.06514 0.0217049 0)
(1.57454 0.041769 0)
(0.141246 0.0469982 0)
(3.41213 0.0888158 0)
(4.4511 0.227748 0)
(4.84426 0.414664 0)
(5.46876 0.608553 0)
(6.31676 0.798696 -7.93088e-33)
(7.18592 0.943301 2.75924e-33)
(8.05752 1.08605 0)
(8.91667 1.17319 0)
(9.3011 1.17405 0)
(9.3482 1.10797 0)
(8.98523 0.905097 0)
(7.91702 0.705822 0)
(6.64556 0.497948 0)
(5.36191 0.289555 0)
(4.17175 0.153065 0)
(3.10605 0.0512239 0)
(2.43589 0.0269502 0)
(2.09517 0.0439119 0)
(1.54112 0.0642615 0)
(-0.0842243 0.0429206 0)
(3.99121 0.221995 -9.54011e-19)
(4.90217 0.334543 7.99362e-19)
(5.25004 0.602982 0)
(5.81249 0.808617 -4.40519e-19)
(6.60883 1.01273 3.55852e-19)
(7.41574 1.17048 -2.92614e-33)
(8.24277 1.33129 0)
(8.95673 1.40218 -6.3763e-21)
(9.2105 1.39436 -1.10275e-19)
(9.20341 1.28899 4.38053e-20)
(8.7661 1.04521 0)
(7.64607 0.811848 -3.45662e-19)
(6.34955 0.552035 -4.23278e-19)
(5.10913 0.348112 7.3015e-19)
(3.96112 0.164794 -5.97033e-19)
(3.02391 0.0769075 0)
(2.47499 0.0561815 -2.31e-19)
(2.16452 0.0596279 0)
(1.51041 0.054397 -1.17923e-18)
(-0.293375 0.0104173 1.41015e-18)
(4.35079 0.427907 6.2785e-20)
(5.28004 0.592257 -3.58801e-18)
(5.55633 0.8597 5.56785e-19)
(6.08126 1.06204 1.87923e-18)
(6.82477 1.26126 7.69841e-19)
(7.57095 1.43998 -1.20487e-18)
(8.3477 1.60376 0)
(8.93765 1.6682 0)
(9.10981 1.65031 2.29758e-19)
(9.04803 1.50868 0)
(8.55009 1.21843 1.21125e-18)
(7.39578 0.94618 3.77923e-19)
(6.12705 0.654415 -3.72127e-20)
(4.87463 0.395278 -9.38842e-19)
(3.75186 0.222861 0)
(2.98864 0.110249 0)
(2.52206 0.0971037 -4.04507e-18)
(2.2953 0.114467 1.01999e-17)
(1.73461 0.109515 -6.0347e-18)
(-0.176791 -0.00718991 -7.09735e-18)
(4.60472 0.677806 3.42563e-18)
(5.55248 0.934288 -1.31405e-18)
(5.81441 1.16094 -4.61865e-19)
(6.28997 1.32885 -3.4574e-18)
(6.96685 1.54939 3.62614e-19)
(7.66244 1.72657 3.26523e-18)
(8.39738 1.89234 -8.88331e-19)
(8.87183 1.94706 0)
(8.98115 1.9199 -6.09331e-19)
(8.87594 1.74593 1.56491e-18)
(8.33238 1.41912 -3.42448e-18)
(7.16848 1.09552 1.78205e-18)
(5.91814 0.773304 -1.40498e-18)
(4.70385 0.480142 2.99365e-18)
(3.7432 0.320143 0)
(3.06216 0.237675 -1.15956e-18)
(2.69744 0.254307 0)
(2.47321 0.276977 6.25296e-18)
(1.79631 0.181387 -1.47703e-17)
(-0.0482449 0.00715938 9.28926e-18)
(4.78043 0.930014 -1.41514e-17)
(5.79088 1.31464 7.40216e-18)
(6.01125 1.49489 1.26993e-18)
(6.43374 1.65527 0)
(7.06203 1.86271 2.24686e-18)
(7.7129 2.03966 -2.62324e-18)
(8.38899 2.19825 8.30862e-19)
(8.7653 2.24018 0)
(8.82427 2.19922 4.65117e-19)
(8.67213 1.99566 -1.04024e-18)
(8.09772 1.63224 3.50836e-18)
(6.9716 1.26005 0)
(5.75937 0.897224 -3.08869e-18)
(4.60925 0.590349 1.64924e-18)
(3.68668 0.401783 4.4026e-18)
(3.1135 0.320544 -3.95237e-18)
(2.81633 0.335711 6.30163e-18)
(2.62294 0.376593 -1.39479e-17)
(2.05709 0.305621 8.83144e-18)
(0.249671 0.070709 -1.10765e-17)
(4.89247 1.17624 7.95605e-18)
(5.91542 1.65638 -7.80798e-18)
(6.14345 1.80809 4.07257e-18)
(6.52838 1.95532 -6.1613e-18)
(7.10923 2.18116 4.66261e-18)
(7.72155 2.36549 -1.00186e-18)
(8.33207 2.51951 4.43517e-20)
(8.62297 2.54647 3.64879e-19)
(8.64203 2.48265 -7.20921e-19)
(8.44632 2.25428 -2.8202e-18)
(7.85612 1.85253 -7.86501e-18)
(6.77893 1.44032 -2.8742e-18)
(5.58496 1.03724 -3.1432e-20)
(4.5209 0.730652 -6.51293e-18)
(3.76746 0.556336 -1.37443e-19)
(3.29267 0.526154 6.09251e-18)
(3.04162 0.56834 -1.90942e-18)
(2.8287 0.615315 -1.04872e-18)
(2.18788 0.441439 0)
(0.366851 0.120314 2.53337e-17)
(4.96855 1.41179 0)
(6.04854 2.0281 2.20331e-18)
(6.23762 2.13892 0)
(6.57855 2.28538 -2.99115e-19)
(7.11399 2.50128 -5.22844e-18)
(7.6941 2.69617 2.00851e-18)
(8.24167 2.84416 -9.99341e-19)
(8.4649 2.8606 -2.59673e-19)
(8.44965 2.77034 -6.95653e-19)
(8.2192 2.51759 8.09444e-19)
(7.62251 2.07903 4.39897e-18)
(6.59353 1.63355 6.45444e-18)
(5.44959 1.18767 -4.13395e-18)
(4.48139 0.871504 7.32278e-18)
(3.76901 0.708905 -5.87026e-18)
(3.36006 0.674673 0)
(3.16605 0.691392 -1.4976e-17)
(2.96511 0.73114 2.00609e-17)
(2.38655 0.587037 1.54278e-18)
(0.644031 0.219305 -2.82004e-17)
(4.99746 1.62443 -3.13509e-19)
(6.07912 2.32326 -5.55088e-18)
(6.30448 2.42623 -1.84717e-17)
(6.60193 2.58797 1.11153e-17)
(7.0944 2.81822 -3.35475e-18)
(7.6426 3.01866 2.23868e-18)
(8.12329 3.16412 -2.23127e-18)
(8.29577 3.17229 5.74337e-19)
(8.25308 3.05644 -2.01741e-18)
(7.99813 2.78084 -2.06177e-19)
(7.39769 2.3107 -5.30627e-18)
(6.41222 1.83582 -7.39397e-18)
(5.32306 1.36314 4.72941e-18)
(4.46115 1.06496 -2.7158e-18)
(3.91553 0.94393 6.64007e-18)
(3.59422 0.930318 0)
(3.41109 0.964717 -9.64547e-18)
(3.19806 1.00121 1.43035e-17)
(2.59135 0.774883 2.73263e-17)
(0.795121 0.322346 -3.20474e-17)
(5.00343 1.82115 -2.16766e-17)
(6.13126 2.66336 1.38566e-17)
(6.32813 2.72393 1.18743e-17)
(6.59707 2.9 -1.18978e-17)
(7.05349 3.12131 3.34912e-19)
(7.56593 3.33582 5.09728e-18)
(7.98529 3.47401 7.71424e-19)
(8.11999 3.47297 -2.65775e-19)
(8.05792 3.33525 -1.90107e-18)
(7.78454 3.04058 2.80731e-18)
(7.17961 2.54504 4.81719e-18)
(6.23259 2.03995 1.16088e-17)
(5.2171 1.54976 0)
(4.45107 1.25168 2.34911e-19)
(3.93192 1.13846 -1.88553e-17)
(3.61539 1.12351 4.40881e-18)
(3.45716 1.13877 2.14969e-17)
(3.24754 1.18722 -6.26194e-18)
(2.66595 0.953665 1.34898e-17)
(0.876312 0.393245 -1.06871e-18)
(4.98764 2.02068 4.57985e-19)
(6.11555 2.92362 1.23515e-17)
(6.34867 2.9651 8.64897e-18)
(6.58118 3.16584 -1.98434e-17)
(6.99188 3.41803 1.41254e-17)
(7.46882 3.63735 -5.56045e-18)
(7.83322 3.76788 -8.22385e-19)
(7.93772 3.75791 -7.00432e-20)
(7.86365 3.60145 2.44036e-18)
(7.57247 3.29147 -4.55888e-18)
(6.96521 2.77624 0)
(6.05899 2.2426 -4.71536e-18)
(5.1245 1.75102 5.40479e-18)
(4.4595 1.48451 7.03252e-18)
(4.05716 1.40221 -4.09647e-18)
(3.8154 1.39519 -9.95385e-18)
(3.65534 1.40004 -3.02359e-18)
(3.42609 1.42607 -1.14453e-19)
(2.78391 1.1248 0)
(0.941303 0.466389 0)
(4.97206 2.19424 -1.16485e-17)
(6.12366 3.21002 0)
(6.34363 3.21092 9.43914e-18)
(6.52735 3.44271 -4.08685e-18)
(6.90854 3.69131 -1.43253e-17)
(7.35441 3.92179 4.07377e-18)
(7.67426 4.04357 -8.62475e-19)
(7.75631 4.02563 3.7705e-19)
(7.67514 3.85368 1.66936e-18)
(7.36543 3.53195 -2.34132e-18)
(6.75964 3.00023 2.89956e-18)
(5.89534 2.44201 1.49711e-17)
(5.04007 1.95698 4.67073e-19)
(4.44299 1.69984 -7.37513e-18)
(4.0485 1.60508 1.38782e-17)
(3.78601 1.59238 1.19082e-19)
(3.64618 1.59642 3.23883e-18)
(3.42769 1.60977 -1.58782e-17)
(2.80843 1.27597 1.62463e-17)
(0.939221 0.50868 -1.92369e-17)
(4.92973 2.37458 -7.03772e-21)
(6.09625 3.44777 0)
(6.32289 3.43248 0)
(6.47167 3.67278 3.9059e-18)
(6.81232 3.94544 5.32482e-18)
(7.22988 4.18195 -3.20899e-18)
(7.51228 4.29683 3.00287e-18)
(7.58108 4.27492 0)
(7.49074 4.0907 -2.95278e-18)
(7.1644 3.75993 7.00714e-18)
(6.56166 3.21378 9.38784e-18)
(5.7379 2.63958 -5.67312e-18)
(4.95441 2.17342 -6.94246e-18)
(4.42636 1.93989 1.63443e-17)
(4.11346 1.87037 -4.94123e-18)
(3.91492 1.85098 -5.94043e-18)
(3.76091 1.81242 -3.64146e-18)
(3.52085 1.83108 -1.7413e-17)
(2.83207 1.40917 2.41124e-18)
(0.921425 0.542762 2.0591e-17)
(4.90104 2.53476 -4.97894e-18)
(6.0744 3.70575 -7.3717e-18)
(6.2858 3.66402 5.4862e-19)
(6.39018 3.91684 -2.22397e-21)
(6.70464 4.18065 1.92235e-18)
(7.10092 4.41978 -7.42948e-18)
(7.35372 4.52829 0)
(7.41508 4.5051 3.36418e-19)
(7.3128 4.31307 -2.66837e-19)
(6.97269 3.97518 1.15605e-17)
(6.3739 3.41658 -2.24248e-18)
(5.58869 2.83325 2.60437e-18)
(4.86892 2.38969 0)
(4.38475 2.1587 -8.89852e-18)
(4.05276 2.05885 1.09646e-17)
(3.83069 2.03725 0)
(3.69606 1.97473 -7.99527e-18)
(3.48081 1.96585 2.3361e-17)
(2.80669 1.53447 2.83908e-18)
(0.878457 0.55967 -2.4976e-17)
(4.8451 2.69546 -1.04835e-17)
(6.03238 3.9136 1.2781e-17)
(6.23767 3.86479 0)
(6.31044 4.12436 8.96924e-18)
(6.6011 4.39554 0)
(6.97252 4.63442 7.31147e-18)
(7.20002 4.73777 0)
(7.25523 4.7153 0)
(7.13785 4.51934 -1.36139e-18)
(6.78809 4.17515 -1.13192e-17)
(6.19205 3.607 -1.75163e-17)
(5.4403 3.02309 3.25905e-18)
(4.76834 2.60548 1.20044e-17)
(4.33275 2.39481 9.94793e-18)
(4.05934 2.29287 -3.52167e-17)
(3.90008 2.27592 -1.44439e-17)
(3.74862 2.18167 8.40003e-18)
(3.49403 2.14768 0)
(2.76502 1.62205 2.46104e-17)
(0.810216 0.571025 -2.72066e-17)
(4.81331 2.84162 1.13317e-17)
(5.99677 4.14505 -1.37626e-17)
(6.17473 4.08915 0)
(6.22576 4.34133 -3.58436e-19)
(6.49821 4.59574 -3.58881e-18)
(6.84906 4.83106 0)
(7.05402 4.92855 -5.69242e-19)
(7.09979 4.90596 8.37072e-19)
(6.96839 4.7094 -1.75826e-18)
(6.61119 4.35948 1.13613e-18)
(6.01762 3.78478 0)
(5.29664 3.20762 1.31381e-17)
(4.67145 2.81126 7.32107e-20)
(4.26623 2.60601 5.38069e-18)
(3.97275 2.46549 6.46584e-18)
(3.76527 2.41774 0)
(3.63924 2.31737 -1.42109e-17)
(3.40575 2.24091 2.78522e-17)
(2.68552 1.69952 -2.9726e-17)
(0.719126 0.557045 5.93407e-17)
(4.75085 2.98239 0)
(5.9366 4.33815 0)
(6.1225 4.27094 -7.21172e-18)
(6.15007 4.52911 0)
(6.40319 4.78258 0)
(6.7323 5.01145 8.29471e-18)
(6.91153 5.10277 -6.11714e-19)
(6.94735 5.07813 6.97547e-19)
(6.80265 4.88228 -1.63504e-19)
(6.44041 4.5271 0)
(5.85125 3.95022 -2.82803e-18)
(5.15531 3.38623 -1.08642e-17)
(4.56673 3.01365 -1.33884e-17)
(4.18541 2.82011 -5.45765e-18)
(3.94763 2.68999 7.05019e-18)
(3.78709 2.63534 -1.66899e-17)
(3.64604 2.50297 3.06686e-17)
(3.36457 2.39462 4.61501e-19)
(2.58495 1.74188 -2.80098e-17)
(0.605954 0.529712 -4.09599e-18)
(4.71943 3.10915 0)
(5.88945 4.53058 -9.94557e-18)
(6.05945 4.46867 8.11017e-18)
(6.07306 4.7207 0)
(6.31641 4.95843 0)
(6.62278 5.17954 -1.77702e-17)
(6.77663 5.2641 0)
(6.80029 5.2357 0)
(6.64438 5.0395 -4.20646e-18)
(6.27927 4.67972 2.36322e-18)
(5.69633 4.10495 -2.34166e-17)
(5.02491 3.55918 0)
(4.47315 3.20714 -1.42834e-17)
(4.10723 3.00745 3.9367e-19)
(3.84254 2.84857 -2.22084e-17)
(3.62699 2.763 9.02514e-18)
(3.50504 2.61034 1.89732e-19)
(3.24252 2.46155 -3.29457e-17)
(2.45762 1.78273 1.5103e-17)
(0.473756 0.479127 4.45953e-18)
(4.66914 3.24396 0)
(5.84458 4.71258 -1.12425e-17)
(6.0132 4.63572 8.32696e-18)
(6.00996 4.88893 1.7609e-17)
(6.23667 5.12388 3.61795e-18)
(6.51673 5.33581 -2.00741e-18)
(6.64678 5.41368 1.56035e-18)
(6.65955 5.38104 -1.16409e-18)
(6.49378 5.18268 4.50735e-18)
(6.12811 4.8184 1.5957e-17)
(5.55124 4.24842 1.95104e-17)
(4.90251 3.72616 3.62313e-18)
(4.37421 3.39574 2.07064e-17)
(4.01581 3.20396 1.2962e-17)
(3.78269 3.04944 1.59861e-17)
(3.61533 2.96079 -9.80346e-18)
(3.46786 2.7828 -1.20277e-17)
(3.14563 2.5868 1.41752e-17)
(2.31212 1.77614 -8.35501e-18)
(0.2996 0.40767 1.48631e-17)
(4.63435 3.36182 1.5996e-17)
(5.79028 4.88377 1.78449e-17)
(5.96181 4.81407 4.33349e-18)
(5.94901 5.06044 1.51652e-19)
(6.16349 5.28177 -1.25075e-17)
(6.41728 5.48297 5.04107e-18)
(6.52697 5.55433 -1.68602e-18)
(6.52866 5.51691 -7.5214e-20)
(6.35548 5.31535 -5.66115e-18)
(5.99018 4.94674 -1.76921e-17)
(5.41926 4.38325 1.24181e-18)
(4.79304 3.88625 0)
(4.28943 3.57457 0)
(3.93636 3.37993 -6.6946e-18)
(3.66771 3.20164 -2.55572e-17)
(3.4309 3.07996 2.10383e-17)
(3.29322 2.8671 1.29174e-17)
(2.99052 2.62003 0)
(2.12506 1.76168 2.66041e-17)
(0.123892 0.279121 -1.626e-17)
(4.60208 3.48077 -8.23936e-18)
(5.7573 5.0363 6.87647e-18)
(5.92403 4.9604 -9.75673e-18)
(5.89455 5.2103 -1.07668e-17)
(6.09341 5.42987 -4.70896e-18)
(6.32262 5.62164 1.48483e-18)
(6.41454 5.68688 0)
(6.40722 5.64457 1.1618e-18)
(6.22931 5.43935 3.70434e-19)
(5.86432 5.0661 0)
(5.3002 4.51115 0)
(4.69264 4.03953 2.40122e-18)
(4.20124 3.74725 3.3842e-18)
(3.8405 3.56173 -7.08561e-18)
(3.58278 3.39093 1.84088e-17)
(3.39325 3.25957 -2.26932e-17)
(3.21734 3.02567 -2.77419e-17)
(2.83244 2.71308 2.50376e-17)
(1.83693 1.65115 -9.7532e-18)
(-0.000563682 0.191941 5.84869e-18)
(4.5857 3.59888 9.41268e-18)
(5.71936 5.1945 0)
(5.88662 5.12355 0)
(5.84619 5.36334 -3.52682e-18)
(6.03148 5.57191 2.82454e-18)
(6.23754 5.75374 -2.36911e-19)
(6.31476 5.81379 -5.39013e-18)
(6.29878 5.7666 -2.10712e-18)
(6.11729 5.55728 9.86494e-18)
(5.75179 5.17907 -1.44955e-18)
(5.194 4.6332 3.21253e-18)
(4.60168 4.18497 -2.04977e-17)
(4.12199 3.90888 -2.09813e-17)
(3.75912 3.72549 -3.71182e-18)
(3.4674 3.54301 0)
(3.1981 3.38466 -3.19751e-19)
(3.00059 3.09838 1.44256e-17)
(2.62344 2.67012 -2.71145e-17)
(1.67845 1.57902 2.02765e-17)
(-0.117492 -0.271305 1.90039e-17)
(4.56582 3.71848 -2.03735e-17)
(5.68668 5.3413 -8.0884e-18)
(5.85748 5.26192 9.3666e-20)
(5.80055 5.50161 4.36625e-18)
(5.97103 5.70672 0)
(6.15656 5.88034 1.2567e-17)
(6.22096 5.93669 6.45675e-18)
(6.19767 5.88542 -7.84745e-19)
(6.01294 5.672 -4.89279e-18)
(5.6452 5.28873 -1.39959e-18)
(5.09304 4.75315 1.29496e-18)
(4.51275 4.32843 1.79115e-17)
(4.03791 4.07032 2.03642e-17)
(3.66313 3.89981 3.54134e-18)
(3.36951 3.73273 1.84561e-17)
(3.13425 3.57419 0)
(2.89833 3.26678 0)
(2.39155 2.75444 1.72856e-17)
(1.20697 1.24964 8.24368e-20)
(-0.0189879 0.478216 -1.88318e-17)
(4.54737 3.82828 1.09757e-17)
(5.65642 5.47267 2.44557e-17)
(5.82375 5.40508 -3.68234e-17)
(5.75314 5.6376 2.22916e-17)
(5.91678 5.83785 -2.57446e-18)
(6.08104 6.00199 1.58492e-17)
(6.13495 6.05675 0)
(6.10315 6.00254 2.48997e-18)
(5.91388 5.78555 0)
(5.54287 5.39821 1.73512e-17)
(4.99524 4.87389 -1.79197e-18)
(4.42638 4.47331 2.00379e-18)
(3.95987 4.23408 2.29681e-17)
(3.58236 4.07436 -7.71363e-18)
(3.25838 3.91121 -9.69667e-18)
(2.93048 3.74011 0)
(2.58893 3.39502 0)
(1.93207 2.68006 0)
(0.853313 1.58455 -9.47455e-18)
(0.280938 2.03598 -5.94709e-18)
(4.53114 3.94411 0)
(5.62038 5.61499 0)
(5.7831 5.52655 1.31372e-17)
(5.70871 5.75946 -1.85939e-17)
(5.86171 5.95876 1.24893e-17)
(6.00662 6.11732 -1.4475e-17)
(6.05103 6.17114 -6.12339e-19)
(6.01068 6.11486 4.79999e-19)
(5.81712 5.8948 9.34576e-19)
(5.44256 5.50469 -1.98426e-17)
(4.90056 4.99325 3.04859e-18)
(4.34386 4.61764 1.76955e-17)
(3.88356 4.3999 -2.28331e-17)
(3.49543 4.25994 -2.54366e-17)
(3.16142 4.12354 8.78898e-18)
(2.85518 3.96826 0)
(2.46733 3.58412 1.36077e-17)
(1.54552 2.61239 1.60513e-17)
(0.99116 2.25742 -1.80509e-17)
(0.626981 2.85191 2.21738e-17)
(4.50935 4.04229 0)
(5.58734 5.73338 1.96606e-17)
(5.77023 5.66832 -3.37972e-18)
(5.68037 5.88907 2.29649e-17)
(5.8101 6.07422 -1.31155e-17)
(5.93937 6.2282 0)
(5.9725 6.28015 0)
(5.92241 6.22245 0)
(5.72329 5.99977 2.85911e-18)
(5.34589 5.60852 6.8582e-19)
(4.81051 5.11101 0)
(4.26762 4.76046 -1.75024e-17)
(3.81782 4.56462 0)
(3.43075 4.44398 1.81644e-17)
(3.07927 4.32426 -1.25285e-17)
(2.69586 4.15522 -1.01428e-17)
(2.15568 3.65283 -2.55949e-17)
(1.36969 2.91093 -1.47478e-17)
(0.959758 2.98434 -2.62677e-17)
(0.855467 3.37391 1.83358e-17)
(4.50436 4.13921 -6.88417e-18)
(5.58706 5.87327 2.67748e-19)
(5.75317 5.79775 -3.53215e-18)
(5.63301 6.00825 -1.80138e-17)
(5.75811 6.18839 0)
(5.87284 6.33354 0)
(5.8941 6.38427 0)
(5.83427 6.32461 -2.23208e-20)
(5.63039 6.09979 -3.81571e-18)
(5.25099 5.70911 0)
(4.72481 5.22729 0)
(4.19793 4.90199 0)
(3.75851 4.7293 0)
(3.36832 4.63226 1.35453e-17)
(3.01223 4.53725 3.42785e-17)
(2.64419 4.35236 1.07906e-17)
(2.11176 3.76343 2.47e-17)
(1.6089 3.30263 -2.04658e-17)
(1.16817 3.64248 8.40038e-18)
(1.02958 3.7913 0)
(4.47045 4.22186 6.63373e-18)
(5.53898 5.95791 -3.91138e-17)
(5.69545 5.89363 -1.11208e-17)
(5.5826 6.11304 -2.7354e-18)
(5.71703 6.29995 3.04859e-18)
(5.80549 6.43366 -2.05417e-17)
(5.81946 6.48591 1.3499e-18)
(5.74811 6.42345 5.11982e-18)
(5.53919 6.19699 0)
(5.15949 5.80826 -1.27487e-18)
(4.64445 5.34282 1.16103e-18)
(4.13536 5.04185 0)
(3.7107 4.89127 0)
(3.33149 4.81696 -1.69535e-17)
(2.9806 4.73463 3.09366e-18)
(2.57147 4.51122 -1.01673e-17)
(1.93139 3.9219 2.25895e-17)
(1.36792 3.73665 2.02087e-17)
(1.05212 4.07734 -3.52527e-17)
(0.979671 4.15583 1.84697e-17)
(4.44323 4.31083 1.24167e-17)
(5.50648 6.0952 3.64923e-17)
(5.66891 6.0183 1.33902e-17)
(5.55819 6.23482 0)
(5.66219 6.4058 0)
(5.73423 6.53708 1.55037e-17)
(5.73948 6.58612 -8.31797e-18)
(5.65665 6.52115 -4.82357e-18)
(5.4454 6.29273 -6.35055e-20)
(5.0675 5.90711 1.41038e-17)
(4.56707 5.45881 -2.11839e-17)
(4.07883 5.18077 0)
(3.67195 5.0517 0)
(3.30403 5.00032 -1.2135e-17)
(2.95643 4.93074 -1.57876e-17)
(2.5386 4.67764 0)
(1.95968 4.12598 -3.28309e-17)
(1.61164 4.15368 -6.14702e-18)
(1.40492 4.58905 3.59819e-17)
(1.10934 4.59584 -1.89631e-17)
(4.42067 4.38807 -2.35507e-17)
(5.49036 6.20876 -1.7405e-17)
(5.65681 6.16527 0)
(5.51578 6.37001 0)
(5.59951 6.52125 0)
(5.66402 6.64401 0)
(5.65357 6.68671 8.75829e-18)
(5.56253 6.61871 -6.17863e-18)
(5.34911 6.38801 0)
(4.97582 6.00617 -1.26951e-17)
(4.49258 5.57461 3.82333e-17)
(4.02739 5.31716 1.63474e-18)
(3.64332 5.2065 2.46017e-18)
(3.29781 5.17566 2.05728e-17)
(2.96298 5.10863 -1.37376e-17)
(2.50489 4.78481 0)
(2.02971 4.42605 1.04485e-17)
(1.56747 4.7361 6.89904e-19)
(1.13507 4.98033 -5.58941e-18)
(0.740364 5.05275 1.1451e-17)
(4.39254 4.47785 1.11363e-17)
(5.45138 6.33761 -1.67415e-17)
(5.58738 6.2702 0)
(5.43881 6.47873 -4.151e-18)
(5.5316 6.636 1.55146e-17)
(5.57906 6.74784 0)
(5.55877 6.78825 0)
(5.46075 6.71469 1.11542e-17)
(5.2485 6.48164 -5.63607e-19)
(4.88227 6.10427 1.2346e-17)
(4.41927 5.68905 -1.81662e-17)
(3.98024 5.44945 1.17803e-17)
(3.62286 5.35424 0)
(3.30061 5.33928 -1.12611e-17)
(2.97108 5.26785 7.00691e-18)
(2.5439 4.9723 7.61753e-18)
(2.07194 4.71576 0)
(1.71241 5.05176 5.3362e-18)
(1.29216 5.65927 9.14037e-18)
(1.16283 5.84031 2.68856e-18)
(4.31993 4.55702 -2.09386e-17)
(5.37202 6.43875 2.41001e-17)
(5.52289 6.39049 1.75119e-17)
(5.38245 6.59848 -4.58839e-18)
(5.46285 6.74877 -2.34232e-17)
(5.48733 6.84963 0)
(5.46092 6.88966 7.32913e-18)
(5.35596 6.80935 -4.68748e-18)
(5.14605 6.57415 -2.37881e-19)
(4.78887 6.20125 -1.07506e-17)
(4.34783 5.80095 -8.84569e-19)
(3.93597 5.57581 -1.32126e-17)
(3.60783 5.49032 1.61724e-17)
(3.31588 5.48436 5.16039e-18)
(3.01297 5.41693 -1.20565e-17)
(2.55335 5.08255 1.29895e-17)
(2.28576 4.94755 0)
(1.92164 5.70836 0)
(1.68099 6.24869 1.99625e-18)
(0.496803 6.28398 -6.48483e-18)
(4.28069 4.65424 1.00448e-17)
(5.32612 6.59307 2.25052e-17)
(5.47191 6.53198 -1.72016e-17)
(5.31661 6.73193 1.6465e-17)
(5.37258 6.86069 2.24834e-17)
(5.39166 6.95754 0)
(5.35436 6.98892 -7.80553e-18)
(5.24512 6.90221 -6.0484e-18)
(5.04074 6.66344 0)
(4.69449 6.295 0)
(4.27769 5.90812 0)
(3.89491 5.69385 0)
(3.59777 5.61339 -1.84258e-17)
(3.33738 5.60744 -7.04332e-18)
(3.05165 5.51796 0)
(2.67313 5.2432 -6.64809e-18)
(2.50048 5.36836 0)
(2.5247 5.7369 -2.97733e-18)
(2.58792 5.6948 3.09959e-18)
(1.4195 5.71156 -7.76204e-19)
(4.21074 4.72793 -1.92006e-17)
(5.25203 6.71033 -1.42564e-17)