/*--------------------------------*- C++ -*----------------------------------*\
| =========                 |                                                 |
| \\      /  F ield         | OpenFOAM: The Open Source CFD Toolbox           |
|  \\    /   O peration     | Version:  2412                                  |
|   \\  /    A nd           | Website:  www.openfoam.com                      |
|    \\/     M anipulation  |                                                 |
\*---------------------------------------------------------------------------*/
FoamFile
{
    version     2.0;
    format      ascii;
    arch        "LSB;label=32;scalar=64";
    class       volVectorField;
    location    "0.31";
    object      U;
}
// * * * * * * * * * * * * * * * * * * * * * * * * * * * * * * * * * * * * * //

dimensions      [0 1 -1 0 0 0 0];

internalField   nonuniform List<vector> 
800
(
(0.00198961 0 0)
(0.00596888 0 0)
(0.0099481 0 0)
(0.0139272 0 0)
(0.0179063 0 0)
(0.0218852 0 0)
(0.0258639 0 0)
(0.0298424 0 0)
(0.0338206 0 0)
(0.0377986 0 0)
(0.0417763 0 0)
(0.0457536 0 0)
(0.0497306 0 0)
(0.0537071 0 0)
(0.0576833 0 0)
(0.0616589 0 0)
(0.0656341 0 0)
(0.0696087 0 0)
(0.0735828 0 0)
(0.0775562 0 0)
(0.0815291 0 0)
(0.0855012 0 0)
(0.0894727 0 0)
(0.0934434 0 0)
(0.0974134 0 0)
(0.101383 0 0)
(0.105351 0 0)
(0.109318 0 0)
(0.113285 0 0)
(0.117251 0 0)
(0.121216 0 0)
(0.125179 0 0)
(0.129142 0 0)
(0.133104 0 0)
(0.137064 0 0)
(0.141024 0 0)
(0.144982 0 0)
(0.148939 0 0)
(0.152895 0 0)
(0.156849 0 0)
(0.160803 0 0)
(0.164755 0 0)
(0.168705 0 0)
(0.172655 0 0)
(0.176602 0 0)
(0.180549 0 0)
(0.184494 0 0)
(0.188437 0 0)
(0.192379 0 0)
(0.196319 0 0)
(0.200257 0 0)
(0.204194 0 0)
(0.208129 0 0)
(0.212063 0 0)
(0.215994 0 0)
(0.219924 0 0)
(0.223852 0 0)
(0.227778 0 0)
(0.231702 0 0)
(0.235625 0 0)
(0.239545 0 0)
(0.243463 0 0)
(0.247379 0 0)
(0.251293 0 0)
(0.255205 0 0)
(0.259115 0 0)
(0.263022 0 0)
(0.266928 0 0)
(0.270831 0 0)
(0.274731 0 0)
(0.27863 0 0)
(0.282526 0 0)
(0.286419 0 0)
(0.29031 0 0)
(0.294199 0 0)
(0.298085 0 0)
(0.301968 0 0)
(0.305849 0 0)
(0.309727 0 0)
(0.313603 0 0)
(0.317476 0 0)
(0.321346 0 0)
(0.325213 0 0)
(0.329077 0 0)
(0.332938 0 0)
(0.336797 0 0)
(0.340652 0 0)
(0.344505 0 0)
(0.348354 0 0)
(0.352201 0 0)
(0.356044 0 0)
(0.359884 0 0)
(0.363721 0 0)
(0.367554 0 0)
(0.371384 0 0)
(0.375211 0 0)
(0.379035 0 0)
(0.382855 0 0)
(0.386671 0 0)
(0.390485 0 0)
(0.394294 0 0)
(0.3981 0 0)
(0.401902 0 0)
(0.405701 0 0)
(0.409496 0 0)
(0.413287 0 0)
(0.417074 0 0)
(0.420857 0 0)
(0.424637 0 0)
(0.428412 0 0)
(0.432184 0 0)
(0.435951 0 0)
(0.439715 0 0)
(0.443474 0 0)
(0.447229 0 0)
(0.45098 0 0)
(0.454726 0 0)
(0.458468 0 0)
(0.462206 0 0)
(0.465939 0 0)
(0.469668 0 0)
(0.473393 0 0)
(0.477112 0 0)
(0.480827 0 0)
(0.484538 0 0)
(0.488243 0 0)
(0.491944 0 0)
(0.49564 0 0)
(0.499331 0 0)
(0.503017 0 0)
(0.506698 0 0)
(0.510375 0 0)
(0.514046 0 0)
(0.517711 0 0)
(0.521372 0 0)
(0.525027 0 0)
(0.528677 0 0)
(0.532322 0 0)
(0.535961 0 0)
(0.539595 0 0)
(0.543223 0 0)
(0.546845 0 0)
(0.550462 0 0)
(0.554073 0 0)
(0.557678 0 0)
(0.561278 0 0)
(0.564871 0 0)
(0.568459 0 0)
(0.57204 0 0)
(0.575615 0 0)
(0.579185 0 0)
(0.582748 0 0)
(0.586304 0 0)
(0.589855 0 0)
(0.593398 0 0)
(0.596936 0 0)
(0.600467 0 0)
(0.603991 0 0)
(0.607508 0 0)
(0.611019 0 0)
(0.614523 0 0)
(0.61802 0 0)
(0.62151 0 0)
(0.624993 0 0)
(0.628469 0 0)
(0.631938 0 0)
(0.635399 0 0)
(0.638853 0 0)
(0.6423 0 0)
(0.645739 0 0)
(0.64917 0 0)
(0.652594 0 0)
(0.656011 0 0)
(0.659419 0 0)
(0.66282 0 0)
(0.666212 0 0)
(0.669597 0 0)
(0.672973 0 0)
(0.676342 0 0)
(0.679701 0 0)
(0.683053 0 0)
(0.686396 0 0)
(0.689731 0 0)
(0.693057 0 0)
(0.696374 0 0)
(0.699682 0 0)
(0.702982 0 0)
(0.706272 0 0)
(0.709553 0 0)
(0.712826 0 0)
(0.716088 0 0)
(0.719342 0 0)
(0.722586 0 0)
(0.72582 0 0)
(0.729045 0 0)
(0.73226 0 0)
(0.735465 0 0)
(0.73866 0 0)
(0.741845 0 0)
(0.74502 0 0)
(0.748184 0 0)
(0.751339 0 0)
(0.754482 0 0)
(0.757615 0 0)
(0.760737 0 0)
(0.763848 0 0)
(0.766949 0 0)
(0.770038 0 0)
(0.773116 0 0)
(0.776182 0 0)
(0.779237 0 0)
(0.782281 0 0)
(0.785313 0 0)
(0.788333 0 0)
(0.791341 0 0)
(0.794336 0 0)
(0.79732 0 0)
(0.800291 0 0)
(0.80325 0 0)
(0.806196 0 0)
(0.809129 0 0)
(0.812049 0 0)
(0.814957 0 0)
(0.817851 0 0)
(0.820731 0 0)
(0.823598 0 0)
(0.826451 0 0)
(0.829291 0 0)
(0.832116 0 0)
(0.834928 0 0)
(0.837725 0 0)
(0.840507 0 0)
(0.843275 0 0)
(0.846028 0 0)
(0.848766 0 0)
(0.851488 0 0)
(0.854196 0 0)
(0.856888 0 0)
(0.859564 0 0)
(0.862224 0 0)
(0.864868 0 0)
(0.867495 0 0)
(0.870106 0 0)
(0.872701 0 0)
(0.875278 0 0)
(0.877839 0 0)
(0.880381 0 0)
(0.882907 0 0)
(0.885414 0 0)
(0.887904 0 0)
(0.890375 0 0)
(0.892828 0 0)
(0.895262 0 0)
(0.897678 0 0)
(0.900074 0 0)
(0.90245 0 0)
(0.904807 0 0)
(0.907144 0 0)
(0.909461 0 0)
(0.911757 0 0)
(0.914032 0 0)
(0.916286 0 0)
(0.918519 0 0)
(0.920731 0 0)
(0.92292 0 0)
(0.925088 0 0)
(0.927232 0 0)
(0.929354 0 0)
(0.931453 0 0)
(0.933528 0 0)
(0.935579 0 0)
(0.937607 0 0)
(0.939609 0 0)
(0.941587 0 0)
(0.94354 0 0)
(0.945467 0 0)
(0.947368 0 0)
(0.949242 0 0)
(0.95109 0 0)
(0.952911 0 0)
(0.954704 0 0)
(0.956469 0 0)
(0.958206 0 0)
(0.959913 0 0)
(0.961592 0 0)
(0.96324 0 0)
(0.964859 0 0)
(0.966446 0 0)
(0.968002 0 0)
(0.969527 0 0)
(0.971019 0 0)
(0.972478 0 0)
(0.973904 0 0)
(0.975296 0 0)
(0.976653 0 0)
(0.977976 0 0)
(0.979262 0 0)
(0.980512 0 0)
(0.981725 0 0)
(0.982901 0 0)
(0.984038 0 0)
(0.985136 0 0)
(0.986194 0 0)
(0.987212 0 0)
(0.988189 0 0)
(0.989123 0 0)
(0.990015 0 0)
(0.990863 0 0)
(0.991666 0 0)
(0.992424 0 0)
(0.993136 0 0)
(0.993801 0 0)
(0.994417 0 0)
(0.994984 0 0)
(0.995501 0 0)
(0.995967 0 0)
(0.99638 0 0)
(0.99674 0 0)
(0.997045 0 0)
(0.997295 0 0)
(0.997487 0 0)
(0.997621 0 0)
(0.997695 0 0)
(0.997708 0 0)
(0.997659 0 0)
(0.997546 0 0)
(0.997367 0 0)
(0.997121 0 0)
(0.996806 0 0)
(0.996421 0 0)
(0.995963 0 0)
(0.995431 0 0)
(0.994824 0 0)
(0.994137 0 0)
(0.993371 0 0)
(0.992522 0 0)
(0.991589 0 0)
(0.990568 0 0)
(0.989458 0 0)
(0.988255 0 0)
(0.986958 0 0)
(0.985563 0 0)
(0.984066 0 0)
(0.982466 0 0)
(0.980759 0 0)
(0.97894 0 0)
(0.977008 0 0)
(0.974957 0 0)
(0.972783 0 0)
(0.970483 0 0)
(0.968052 0 0)
(0.965485 0 0)
(0.962776 0 0)
(0.959922 0 0)
(0.956915 0 0)
(0.95375 0 0)
(0.950421 0 0)
(0.94692 0 0)
(0.94324 0 0)
(0.939374 0 0)
(0.935312 0 0)
(0.931047 0 0)
(0.926567 0 0)
(0.921864 0 0)
(0.916924 0 0)
(0.911737 0 0)
(0.906289 0 0)
(0.900566 0 0)
(0.894552 0 0)
(0.888229 0 0)
(0.881578 0 0)
(0.87458 0 0)
(0.867211 0 0)
(0.859446 0 0)
(0.851256 0 0)
(0.842609 0 0)
(0.833471 0 0)
(0.8238 0 0)
(0.813551 0 0)
(0.802671 0 0)
(0.791101 0 0)
(0.778769 0 0)
(0.765595 0 0)
(0.75148 0 0)
(0.736307 0 0)
(0.719937 0 0)
(0.702196 0 0)
(0.682867 0 0)
(0.661675 0 0)
(0.638263 0 0)
(0.612156 0 0)
(0.582712 0 0)
(0.549044 0 0)
(0.509917 0 0)
(0.463632 0 0)
(0.407975 0 0)
(0.340406 0 0)
(0.258793 0 0)
(0.162846 0 0)
(0.0557184 0 0)
(-0.0556913 0 0)
(-0.162816 0 0)
(-0.258759 0 0)
(-0.340369 0 0)
(-0.407936 0 0)
(-0.463593 0 0)
(-0.50988 0 0)
(-0.549009 0 0)
(-0.58268 0 0)
(-0.612126 0 0)
(-0.638235 0 0)
(-0.661649 0 0)
(-0.682843 0 0)
(-0.702174 0 0)
(-0.719916 0 0)
(-0.736288 0 0)
(-0.751461 0 0)
(-0.765578 0 0)
(-0.778754 0 0)
(-0.791086 0 0)
(-0.802658 0 0)
(-0.813538 0 0)
(-0.823788 0 0)
(-0.83346 0 0)
(-0.842599 0 0)
(-0.851246 0 0)
(-0.859437 0 0)
(-0.867203 0 0)
(-0.874573 0 0)
(-0.881571 0 0)
(-0.888222 0 0)
(-0.894545 0 0)
(-0.90056 0 0)
(-0.906284 0 0)
(-0.911732 0 0)
(-0.91692 0 0)
(-0.921859 0 0)
(-0.926563 0 0)
(-0.931043 0 0)
(-0.935309 0 0)
(-0.939371 0 0)
(-0.943237 0 0)
(-0.946917 0 0)
(-0.950418 0 0)
(-0.953748 0 0)
(-0.956913 0 0)
(-0.95992 0 0)
(-0.962775 0 0)
(-0.965483 0 0)
(-0.96805 0 0)
(-0.970482 0 0)
(-0.972782 0 0)
(-0.974956 0 0)
(-0.977007 0 0)
(-0.97894 0 0)
(-0.980758 0 0)
(-0.982466 0 0)
(-0.984066 0 0)
(-0.985562 0 0)
(-0.986957 0 0)
(-0.988255 0 0)
(-0.989458 0 0)
(-0.990568 0 0)
(-0.991589 0 0)
(-0.992522 0 0)
(-0.993371 0 0)
(-0.994137 0 0)
(-0.994823 0 0)
(-0.995431 0 0)
(-0.995963 0 0)
(-0.996421 0 0)
(-0.996806 0 0)
(-0.997121 0 0)
(-0.997367 0 0)
(-0.997546 0 0)
(-0.997659 0 0)
(-0.997708 0 0)
(-0.997695 0 0)
(-0.997621 0 0)
(-0.997487 0 0)
(-0.997295 0 0)
(-0.997045 0 0)
(-0.99674 0 0)
(-0.99638 0 0)
(-0.995967 0 0)
(-0.995501 0 0)
(-0.994984 0 0)
(-0.994417 0 0)
(-0.9938 0 0)
(-0.993136 0 0)
(-0.992424 0 0)
(-0.991666 0 0)
(-0.990862 0 0)
(-0.990014 0 0)
(-0.989123 0 0)
(-0.988188 0 0)
(-0.987212 0 0)
(-0.986194 0 0)
(-0.985136 0 0)
(-0.984038 0 0)
(-0.9829 0 0)
(-0.981725 0 0)
(-0.980512 0 0)
(-0.979262 0 0)
(-0.977975 0 0)
(-0.976653 0 0)
(-0.975295 0 0)
(-0.973904 0 0)
(-0.972478 0 0)
(-0.971018 0 0)
(-0.969526 0 0)
(-0.968002 0 0)
(-0.966445 0 0)
(-0.964858 0 0)
(-0.96324 0 0)
(-0.961591 0 0)
(-0.959913 0 0)
(-0.958205 0 0)
(-0.956468 0 0)
(-0.954703 0 0)
(-0.95291 0 0)
(-0.951089 0 0)
(-0.949241 0 0)
(-0.947367 0 0)
(-0.945466 0 0)
(-0.943539 0 0)
(-0.941586 0 0)
(-0.939608 0 0)
(-0.937606 0 0)
(-0.935578 0 0)
(-0.933527 0 0)
(-0.931452 0 0)
(-0.929353 0 0)
(-0.927231 0 0)
(-0.925086 0 0)
(-0.922919 0 0)
(-0.92073 0 0)
(-0.918518 0 0)
(-0.916285 0 0)
(-0.914031 0 0)
(-0.911755 0 0)
(-0.909459 0 0)
(-0.907142 0 0)
(-0.904806 0 0)
(-0.902449 0 0)
(-0.900072 0 0)
(-0.897676 0 0)
(-0.895261 0 0)
(-0.892827 0 0)
(-0.890374 0 0)
(-0.887902 0 0)
(-0.885413 0 0)
(-0.882905 0 0)
(-0.88038 0 0)
(-0.877837 0 0)
(-0.875277 0 0)
(-0.872699 0 0)
(-0.870105 0 0)
(-0.867494 0 0)
(-0.864866 0 0)
(-0.862222 0 0)
(-0.859562 0 0)
(-0.856886 0 0)
(-0.854194 0 0)
(-0.851487 0 0)
(-0.848764 0 0)
(-0.846026 0 0)
(-0.843273 0 0)
(-0.840505 0 0)
(-0.837723 0 0)
(-0.834926 0 0)
(-0.832115 0 0)
(-0.829289 0 0)
(-0.82645 0 0)
(-0.823596 0 0)
(-0.820729 0 0)
(-0.817849 0 0)
(-0.814955 0 0)
(-0.812047 0 0)
(-0.809127 0 0)
(-0.806194 0 0)
(-0.803248 0 0)
(-0.800289 0 0)
(-0.797318 0 0)
(-0.794334 0 0)
(-0.791339 0 0)
(-0.788331 0 0)
(-0.785311 0 0)
(-0.782279 0 0)
(-0.779235 0 0)
(-0.77618 0 0)
(-0.773114 0 0)
(-0.770036 0 0)
(-0.766947 0 0)
(-0.763846 0 0)
(-0.760735 0 0)
(-0.757613 0 0)
(-0.75448 0 0)
(-0.751337 0 0)
(-0.748182 0 0)
(-0.745018 0 0)
(-0.741843 0 0)
(-0.738658 0 0)
(-0.735463 0 0)
(-0.732258 0 0)
(-0.729043 0 0)
(-0.725818 0 0)
(-0.722584 0 0)
(-0.71934 0 0)
(-0.716086 0 0)
(-0.712824 0 0)
(-0.709551 0 0)
(-0.70627 0 0)
(-0.70298 0 0)
(-0.69968 0 0)
(-0.696372 0 0)
(-0.693055 0 0)
(-0.689729 0 0)
(-0.686394 0 0)
(-0.683051 0 0)
(-0.6797 0 0)
(-0.67634 0 0)
(-0.672971 0 0)
(-0.669595 0 0)
(-0.66621 0 0)
(-0.662818 0 0)
(-0.659417 0 0)
(-0.656009 0 0)
(-0.652593 0 0)
(-0.649169 0 0)
(-0.645737 0 0)
(-0.642298 0 0)
(-0.638851 0 0)
(-0.635397 0 0)
(-0.631936 0 0)
(-0.628467 0 0)
(-0.624991 0 0)
(-0.621508 0 0)
(-0.618018 0 0)
(-0.614521 0 0)
(-0.611017 0 0)
(-0.607507 0 0)
(-0.603989 0 0)
(-0.600465 0 0)
(-0.596934 0 0)
(-0.593397 0 0)
(-0.589853 0 0)
(-0.586303 0 0)
(-0.582746 0 0)
(-0.579183 0 0)
(-0.575614 0 0)
(-0.572039 0 0)
(-0.568457 0 0)
(-0.56487 0 0)
(-0.561276 0 0)
(-0.557677 0 0)
(-0.554072 0 0)
(-0.550461 0 0)
(-0.546844 0 0)
(-0.543221 0 0)
(-0.539593 0 0)
(-0.53596 0 0)
(-0.53232 0 0)
(-0.528676 0 0)
(-0.525026 0 0)
(-0.521371 0 0)
(-0.51771 0 0)
(-0.514044 0 0)
(-0.510373 0 0)
(-0.506697 0 0)
(-0.503016 0 0)
(-0.49933 0 0)
(-0.495639 0 0)
(-0.491943 0 0)
(-0.488242 0 0)
(-0.484536 0 0)
(-0.480826 0 0)
(-0.477111 0 0)
(-0.473391 0 0)
(-0.469667 0 0)
(-0.465938 0 0)
(-0.462205 0 0)
(-0.458467 0 0)
(-0.454725 0 0)
(-0.450979 0 0)
(-0.447228 0 0)
(-0.443473 0 0)
(-0.439714 0 0)
(-0.43595 0 0)
(-0.432183 0 0)
(-0.428412 0 0)
(-0.424636 0 0)
(-0.420857 0 0)
(-0.417073 0 0)
(-0.413286 0 0)
(-0.409495 0 0)
(-0.4057 0 0)
(-0.401901 0 0)
(-0.398099 0 0)
(-0.394293 0 0)
(-0.390484 0 0)
(-0.386671 0 0)
(-0.382854 0 0)
(-0.379034 0 0)
(-0.37521 0 0)
(-0.371384 0 0)
(-0.367553 0 0)
(-0.36372 0 0)
(-0.359883 0 0)
(-0.356043 0 0)
(-0.3522 0 0)
(-0.348354 0 0)
(-0.344504 0 0)
(-0.340652 0 0)
(-0.336796 0 0)
(-0.332938 0 0)
(-0.329076 0 0)
(-0.325212 0 0)
(-0.321345 0 0)
(-0.317475 0 0)
(-0.313602 0 0)
(-0.309727 0 0)
(-0.305849 0 0)
(-0.301968 0 0)
(-0.298084 0 0)
(-0.294198 0 0)
(-0.29031 0 0)
(-0.286419 0 0)
(-0.282525 0 0)
(-0.278629 0 0)
(-0.274731 0 0)
(-0.27083 0 0)
(-0.266927 0 0)
(-0.263022 0 0)
(-0.259114 0 0)
(-0.255205 0 0)
(-0.251293 0 0)
(-0.247379 0 0)
(-0.243463 0 0)
(-0.239544 0 0)
(-0.235624 0 0)
(-0.231702 0 0)
(-0.227778 0 0)
(-0.223852 0 0)
(-0.219924 0 0)
(-0.215994 0 0)
(-0.212062 0 0)
(-0.208129 0 0)
(-0.204194 0 0)
(-0.200257 0 0)
(-0.196319 0 0)
(-0.192378 0 0)
(-0.188437 0 0)
(-0.184493 0 0)
(-0.180549 0 0)
(-0.176602 0 0)
(-0.172654 0 0)
(-0.168705 0 0)
(-0.164755 0 0)
(-0.160803 0 0)
(-0.156849 0 0)
(-0.152895 0 0)
(-0.148939 0 0)
(-0.144982 0 0)
(-0.141023 0 0)
(-0.137064 0 0)
(-0.133103 0 0)
(-0.129142 0 0)
(-0.125179 0 0)
(-0.121215 0 0)
(-0.117251 0 0)
(-0.113285 0 0)
(-0.109318 0 0)
(-0.105351 0 0)
(-0.101383 0 0)
(-0.0974134 0 0)
(-0.0934434 0 0)
(-0.0894727 0 0)
(-0.0855012 0 0)
(-0.081529 0 0)
(-0.0775562 0 0)
(-0.0735827 0 0)
(-0.0696087 0 0)
(-0.0656341 0 0)
(-0.0616589 0 0)
(-0.0576833 0 0)
(-0.0537071 0 0)
(-0.0497306 0 0)
(-0.0457536 0 0)
(-0.0417763 0 0)
(-0.0377986 0 0)
(-0.0338206 0 0)
(-0.0298424 0 0)
(-0.0258639 0 0)
(-0.0218852 0 0)
(-0.0179063 0 0)
(-0.0139273 0 0)
(-0.00994813 0 0)
(-0.00596891 0 0)
(-0.00198964 0 0)
)
;

boundaryField
{
    left
    {
        type            fixedValue;
        value           uniform (0 0 0);
    }
    right
    {
        type            fixedValue;
        value           uniform (0 0 0);
    }
    frontBackUpDown
    {
        type            empty;
    }
}


// ************************************************************************* //
