/*--------------------------------*- C++ -*----------------------------------*\
| =========                 |                                                 |
| \\      /  F ield         | OpenFOAM: The Open Source CFD Toolbox           |
|  \\    /   O peration     | Version:  2412                                  |
|   \\  /    A nd           | Website:  www.openfoam.com                      |
|    \\/     M anipulation  |                                                 |
\*---------------------------------------------------------------------------*/
FoamFile
{
    version     2.0;
    format      ascii;
    arch        "LSB;label=32;scalar=64";
    class       volVectorField;
    location    "0.31";
    object      U_0_0;
}
// * * * * * * * * * * * * * * * * * * * * * * * * * * * * * * * * * * * * * //

dimensions      [0 1 -1 0 0 0 0];

internalField   nonuniform List<vector> 
800
(
(0.00199278 0 0)
(0.00597838 0 0)
(0.00996394 0 0)
(0.0139494 0 0)
(0.0179348 0 0)
(0.02192 0 0)
(0.025905 0 0)
(0.0298899 0 0)
(0.0338744 0 0)
(0.0378588 0 0)
(0.0418428 0 0)
(0.0458264 0 0)
(0.0498097 0 0)
(0.0537926 0 0)
(0.057775 0 0)
(0.061757 0 0)
(0.0657385 0 0)
(0.0697194 0 0)
(0.0736998 0 0)
(0.0776795 0 0)
(0.0816587 0 0)
(0.0856371 0 0)
(0.0896149 0 0)
(0.0935919 0 0)
(0.0975682 0 0)
(0.101544 0 0)
(0.105518 0 0)
(0.109492 0 0)
(0.113465 0 0)
(0.117437 0 0)
(0.121408 0 0)
(0.125378 0 0)
(0.129347 0 0)
(0.133315 0 0)
(0.137281 0 0)
(0.141247 0 0)
(0.145211 0 0)
(0.149175 0 0)
(0.153137 0 0)
(0.157098 0 0)
(0.161057 0 0)
(0.165015 0 0)
(0.168972 0 0)
(0.172927 0 0)
(0.176881 0 0)
(0.180834 0 0)
(0.184785 0 0)
(0.188734 0 0)
(0.192682 0 0)
(0.196628 0 0)
(0.200573 0 0)
(0.204516 0 0)
(0.208457 0 0)
(0.212396 0 0)
(0.216334 0 0)
(0.22027 0 0)
(0.224204 0 0)
(0.228136 0 0)
(0.232066 0 0)
(0.235994 0 0)
(0.23992 0 0)
(0.243845 0 0)
(0.247767 0 0)
(0.251687 0 0)
(0.255604 0 0)
(0.25952 0 0)
(0.263434 0 0)
(0.267345 0 0)
(0.271254 0 0)
(0.27516 0 0)
(0.279064 0 0)
(0.282966 0 0)
(0.286865 0 0)
(0.290762 0 0)
(0.294657 0 0)
(0.298548 0 0)
(0.302437 0 0)
(0.306324 0 0)
(0.310208 0 0)
(0.314089 0 0)
(0.317967 0 0)
(0.321843 0 0)
(0.325716 0 0)
(0.329586 0 0)
(0.333453 0 0)
(0.337317 0 0)
(0.341178 0 0)
(0.345036 0 0)
(0.348891 0 0)
(0.352742 0 0)
(0.356591 0 0)
(0.360437 0 0)
(0.364279 0 0)
(0.368118 0 0)
(0.371953 0 0)
(0.375786 0 0)
(0.379614 0 0)
(0.38344 0 0)
(0.387262 0 0)
(0.39108 0 0)
(0.394895 0 0)
(0.398706 0 0)
(0.402514 0 0)
(0.406317 0 0)
(0.410117 0 0)
(0.413914 0 0)
(0.417706 0 0)
(0.421494 0 0)
(0.425279 0 0)
(0.429059 0 0)
(0.432836 0 0)
(0.436608 0 0)
(0.440377 0 0)
(0.444141 0 0)
(0.447901 0 0)
(0.451656 0 0)
(0.455408 0 0)
(0.459155 0 0)
(0.462897 0 0)
(0.466635 0 0)
(0.470369 0 0)
(0.474098 0 0)
(0.477822 0 0)
(0.481542 0 0)
(0.485257 0 0)
(0.488967 0 0)
(0.492672 0 0)
(0.496373 0 0)
(0.500068 0 0)
(0.503759 0 0)
(0.507444 0 0)
(0.511125 0 0)
(0.5148 0 0)
(0.51847 0 0)
(0.522135 0 0)
(0.525795 0 0)
(0.529449 0 0)
(0.533098 0 0)
(0.536741 0 0)
(0.540379 0 0)
(0.544011 0 0)
(0.547637 0 0)
(0.551258 0 0)
(0.554873 0 0)
(0.558482 0 0)
(0.562086 0 0)
(0.565683 0 0)
(0.569274 0 0)
(0.572859 0 0)
(0.576438 0 0)
(0.580011 0 0)
(0.583578 0 0)
(0.587138 0 0)
(0.590692 0 0)
(0.594239 0 0)
(0.59778 0 0)
(0.601314 0 0)
(0.604842 0 0)
(0.608363 0 0)
(0.611877 0 0)
(0.615384 0 0)
(0.618884 0 0)
(0.622377 0 0)
(0.625863 0 0)
(0.629342 0 0)
(0.632814 0 0)
(0.636278 0 0)
(0.639735 0 0)
(0.643185 0 0)
(0.646627 0 0)
(0.650061 0 0)
(0.653488 0 0)
(0.656907 0 0)
(0.660318 0 0)
(0.663721 0 0)
(0.667116 0 0)
(0.670503 0 0)
(0.673882 0 0)
(0.677252 0 0)
(0.680614 0 0)
(0.683968 0 0)
(0.687313 0 0)
(0.69065 0 0)
(0.693978 0 0)
(0.697297 0 0)
(0.700607 0 0)
(0.703909 0 0)
(0.707201 0 0)
(0.710484 0 0)
(0.713758 0 0)
(0.717022 0 0)
(0.720277 0 0)
(0.723523 0 0)
(0.726759 0 0)
(0.729985 0 0)
(0.733201 0 0)
(0.736407 0 0)
(0.739603 0 0)
(0.742789 0 0)
(0.745965 0 0)
(0.749131 0 0)
(0.752285 0 0)
(0.75543 0 0)
(0.758563 0 0)
(0.761686 0 0)
(0.764798 0 0)
(0.767899 0 0)
(0.770988 0 0)
(0.774066 0 0)
(0.777133 0 0)
(0.780188 0 0)
(0.783232 0 0)
(0.786264 0 0)
(0.789284 0 0)
(0.792291 0 0)
(0.795287 0 0)
(0.79827 0 0)
(0.801241 0 0)
(0.804199 0 0)
(0.807145 0 0)
(0.810077 0 0)
(0.812997 0 0)
(0.815903 0 0)
(0.818796 0 0)
(0.821675 0 0)
(0.824541 0 0)
(0.827393 0 0)
(0.830231 0 0)
(0.833055 0 0)
(0.835865 0 0)
(0.83866 0 0)
(0.841441 0 0)
(0.844207 0 0)
(0.846958 0 0)
(0.849693 0 0)
(0.852414 0 0)
(0.855119 0 0)
(0.857808 0 0)
(0.860482 0 0)
(0.863139 0 0)
(0.86578 0 0)
(0.868405 0 0)
(0.871013 0 0)
(0.873604 0 0)
(0.876178 0 0)
(0.878735 0 0)
(0.881275 0 0)
(0.883796 0 0)
(0.8863 0 0)
(0.888786 0 0)
(0.891253 0 0)
(0.893702 0 0)
(0.896131 0 0)
(0.898542 0 0)
(0.900933 0 0)
(0.903305 0 0)
(0.905657 0 0)
(0.907989 0 0)
(0.9103 0 0)
(0.912591 0 0)
(0.914861 0 0)
(0.91711 0 0)
(0.919337 0 0)
(0.921542 0 0)
(0.923725 0 0)
(0.925886 0 0)
(0.928024 0 0)
(0.930139 0 0)
(0.932231 0 0)
(0.934299 0 0)
(0.936344 0 0)
(0.938363 0 0)
(0.940358 0 0)
(0.942328 0 0)
(0.944273 0 0)
(0.946192 0 0)
(0.948084 0 0)
(0.94995 0 0)
(0.951789 0 0)
(0.953601 0 0)
(0.955384 0 0)
(0.95714 0 0)
(0.958867 0 0)
(0.960564 0 0)
(0.962233 0 0)
(0.963871 0 0)
(0.965478 0 0)
(0.967055 0 0)
(0.9686 0 0)
(0.970113 0 0)
(0.971593 0 0)
(0.97304 0 0)
(0.974454 0 0)
(0.975833 0 0)
(0.977178 0 0)
(0.978487 0 0)
(0.97976 0 0)
(0.980997 0 0)
(0.982196 0 0)
(0.983357 0 0)
(0.984479 0 0)
(0.985562 0 0)
(0.986605 0 0)
(0.987607 0 0)
(0.988568 0 0)
(0.989486 0 0)
(0.990361 0 0)
(0.991191 0 0)
(0.991977 0 0)
(0.992718 0 0)
(0.993411 0 0)
(0.994057 0 0)
(0.994654 0 0)
(0.995202 0 0)
(0.995699 0 0)
(0.996144 0 0)
(0.996536 0 0)
(0.996875 0 0)
(0.997158 0 0)
(0.997385 0 0)
(0.997554 0 0)
(0.997665 0 0)
(0.997715 0 0)
(0.997704 0 0)
(0.997629 0 0)
(0.99749 0 0)
(0.997285 0 0)
(0.997012 0 0)
(0.99667 0 0)
(0.996256 0 0)
(0.99577 0 0)
(0.995208 0 0)
(0.99457 0 0)
(0.993853 0 0)
(0.993055 0 0)
(0.992173 0 0)
(0.991206 0 0)
(0.990151 0 0)
(0.989006 0 0)
(0.987767 0 0)
(0.986432 0 0)
(0.984999 0 0)
(0.983463 0 0)
(0.981823 0 0)
(0.980074 0 0)
(0.978214 0 0)
(0.976237 0 0)
(0.974141 0 0)
(0.971922 0 0)
(0.969574 0 0)
(0.967094 0 0)
(0.964477 0 0)
(0.961717 0 0)
(0.958808 0 0)
(0.955747 0 0)
(0.952525 0 0)
(0.949137 0 0)
(0.945575 0 0)
(0.941833 0 0)
(0.937902 0 0)
(0.933773 0 0)
(0.929438 0 0)
(0.924887 0 0)
(0.920109 0 0)
(0.915092 0 0)
(0.909825 0 0)
(0.904293 0 0)
(0.898483 0 0)
(0.892378 0 0)
(0.88596 0 0)
(0.879211 0 0)
(0.87211 0 0)
(0.864633 0 0)
(0.856754 0 0)
(0.848445 0 0)
(0.839673 0 0)
(0.830403 0 0)
(0.820593 0 0)
(0.810196 0 0)
(0.79916 0 0)
(0.787423 0 0)
(0.774914 0 0)
(0.761549 0 0)
(0.74723 0 0)
(0.731838 0 0)
(0.715231 0 0)
(0.697232 0 0)
(0.677621 0 0)
(0.656122 0 0)
(0.632373 0 0)
(0.605898 0 0)
(0.576057 0 0)
(0.541971 0 0)
(0.502434 0 0)
(0.455817 0 0)
(0.400042 0 0)
(0.332798 0 0)
(0.252247 0 0)
(0.158323 0 0)
(0.0540903 0 0)
(-0.0540649 0 0)
(-0.158295 0 0)
(-0.252215 0 0)
(-0.332762 0 0)
(-0.400004 0 0)
(-0.45578 0 0)
(-0.502398 0 0)
(-0.541937 0 0)
(-0.576024 0 0)
(-0.605868 0 0)
(-0.632345 0 0)
(-0.656096 0 0)
(-0.677597 0 0)
(-0.697209 0 0)
(-0.71521 0 0)
(-0.731819 0 0)
(-0.747212 0 0)
(-0.761532 0 0)
(-0.774898 0 0)
(-0.787408 0 0)
(-0.799146 0 0)
(-0.810183 0 0)
(-0.820581 0 0)
(-0.830392 0 0)
(-0.839663 0 0)
(-0.848435 0 0)
(-0.856745 0 0)
(-0.864624 0 0)
(-0.872102 0 0)
(-0.879204 0 0)
(-0.885953 0 0)
(-0.892371 0 0)
(-0.898477 0 0)
(-0.904288 0 0)
(-0.90982 0 0)
(-0.915087 0 0)
(-0.920104 0 0)
(-0.924883 0 0)
(-0.929434 0 0)
(-0.93377 0 0)
(-0.937898 0 0)
(-0.94183 0 0)
(-0.945573 0 0)
(-0.949134 0 0)
(-0.952523 0 0)
(-0.955745 0 0)
(-0.958807 0 0)
(-0.961715 0 0)
(-0.964475 0 0)
(-0.967093 0 0)
(-0.969573 0 0)
(-0.97192 0 0)
(-0.97414 0 0)
(-0.976236 0 0)
(-0.978213 0 0)
(-0.980073 0 0)
(-0.981822 0 0)
(-0.983463 0 0)
(-0.984998 0 0)
(-0.986432 0 0)
(-0.987766 0 0)
(-0.989005 0 0)
(-0.990151 0 0)
(-0.991206 0 0)
(-0.992173 0 0)
(-0.993054 0 0)
(-0.993853 0 0)
(-0.99457 0 0)
(-0.995208 0 0)
(-0.99577 0 0)
(-0.996256 0 0)
(-0.99667 0 0)
(-0.997012 0 0)
(-0.997285 0 0)
(-0.99749 0 0)
(-0.997629 0 0)
(-0.997704 0 0)
(-0.997715 0 0)
(-0.997665 0 0)
(-0.997554 0 0)
(-0.997385 0 0)
(-0.997158 0 0)
(-0.996875 0 0)
(-0.996536 0 0)
(-0.996144 0 0)
(-0.995698 0 0)
(-0.995201 0 0)
(-0.994654 0 0)
(-0.994057 0 0)
(-0.993411 0 0)
(-0.992717 0 0)
(-0.991977 0 0)
(-0.991191 0 0)
(-0.99036 0 0)
(-0.989486 0 0)
(-0.988567 0 0)
(-0.987607 0 0)
(-0.986605 0 0)
(-0.985562 0 0)
(-0.984479 0 0)
(-0.983356 0 0)
(-0.982195 0 0)
(-0.980996 0 0)
(-0.97976 0 0)
(-0.978487 0 0)
(-0.977177 0 0)
(-0.975833 0 0)
(-0.974453 0 0)
(-0.97304 0 0)
(-0.971593 0 0)
(-0.970112 0 0)
(-0.968599 0 0)
(-0.967054 0 0)
(-0.965477 0 0)
(-0.96387 0 0)
(-0.962232 0 0)
(-0.960564 0 0)
(-0.958866 0 0)
(-0.957139 0 0)
(-0.955383 0 0)
(-0.9536 0 0)
(-0.951788 0 0)
(-0.949949 0 0)
(-0.948083 0 0)
(-0.94619 0 0)
(-0.944272 0 0)
(-0.942327 0 0)
(-0.940357 0 0)
(-0.938362 0 0)
(-0.936342 0 0)
(-0.934298 0 0)
(-0.93223 0 0)
(-0.930138 0 0)
(-0.928023 0 0)
(-0.925885 0 0)
(-0.923724 0 0)
(-0.921541 0 0)
(-0.919335 0 0)
(-0.917108 0 0)
(-0.91486 0 0)
(-0.91259 0 0)
(-0.910299 0 0)
(-0.907988 0 0)
(-0.905656 0 0)
(-0.903304 0 0)
(-0.900932 0 0)
(-0.898541 0 0)
(-0.89613 0 0)
(-0.8937 0 0)
(-0.891251 0 0)
(-0.888784 0 0)
(-0.886299 0 0)
(-0.883795 0 0)
(-0.881273 0 0)
(-0.878734 0 0)
(-0.876177 0 0)
(-0.873603 0 0)
(-0.871011 0 0)
(-0.868403 0 0)
(-0.865778 0 0)
(-0.863137 0 0)
(-0.86048 0 0)
(-0.857806 0 0)
(-0.855117 0 0)
(-0.852412 0 0)
(-0.849692 0 0)
(-0.846956 0 0)
(-0.844205 0 0)
(-0.841439 0 0)
(-0.838658 0 0)
(-0.835863 0 0)
(-0.833053 0 0)
(-0.830229 0 0)
(-0.827391 0 0)
(-0.824539 0 0)
(-0.821673 0 0)
(-0.818794 0 0)
(-0.815901 0 0)
(-0.812995 0 0)
(-0.810075 0 0)
(-0.807143 0 0)
(-0.804197 0 0)
(-0.801239 0 0)
(-0.798268 0 0)
(-0.795285 0 0)
(-0.792289 0 0)
(-0.789282 0 0)
(-0.786262 0 0)
(-0.78323 0 0)
(-0.780187 0 0)
(-0.777131 0 0)
(-0.774064 0 0)
(-0.770986 0 0)
(-0.767897 0 0)
(-0.764796 0 0)
(-0.761684 0 0)
(-0.758561 0 0)
(-0.755428 0 0)
(-0.752284 0 0)
(-0.749129 0 0)
(-0.745963 0 0)
(-0.742787 0 0)
(-0.739601 0 0)
(-0.736405 0 0)
(-0.733199 0 0)
(-0.729983 0 0)
(-0.726757 0 0)
(-0.723521 0 0)
(-0.720275 0 0)
(-0.71702 0 0)
(-0.713756 0 0)
(-0.710482 0 0)
(-0.707199 0 0)
(-0.703907 0 0)
(-0.700606 0 0)
(-0.697295 0 0)
(-0.693976 0 0)
(-0.690648 0 0)
(-0.687312 0 0)
(-0.683966 0 0)
(-0.680613 0 0)
(-0.67725 0 0)
(-0.67388 0 0)
(-0.670501 0 0)
(-0.667114 0 0)
(-0.663719 0 0)
(-0.660316 0 0)
(-0.656905 0 0)
(-0.653486 0 0)
(-0.650059 0 0)
(-0.646625 0 0)
(-0.643183 0 0)
(-0.639733 0 0)
(-0.636277 0 0)
(-0.632812 0 0)
(-0.629341 0 0)
(-0.625862 0 0)
(-0.622376 0 0)
(-0.618882 0 0)
(-0.615382 0 0)
(-0.611875 0 0)
(-0.608361 0 0)
(-0.60484 0 0)
(-0.601313 0 0)
(-0.597779 0 0)
(-0.594238 0 0)
(-0.59069 0 0)
(-0.587137 0 0)
(-0.583576 0 0)
(-0.58001 0 0)
(-0.576437 0 0)
(-0.572858 0 0)
(-0.569273 0 0)
(-0.565681 0 0)
(-0.562084 0 0)
(-0.558481 0 0)
(-0.554872 0 0)
(-0.551257 0 0)
(-0.547636 0 0)
(-0.544009 0 0)
(-0.540377 0 0)
(-0.53674 0 0)
(-0.533096 0 0)
(-0.529448 0 0)
(-0.525793 0 0)
(-0.522134 0 0)
(-0.518469 0 0)
(-0.514799 0 0)
(-0.511124 0 0)
(-0.507443 0 0)
(-0.503758 0 0)
(-0.500067 0 0)
(-0.496372 0 0)
(-0.492671 0 0)
(-0.488966 0 0)
(-0.485255 0 0)
(-0.481541 0 0)
(-0.477821 0 0)
(-0.474097 0 0)
(-0.470368 0 0)
(-0.466634 0 0)
(-0.462896 0 0)
(-0.459153 0 0)
(-0.455407 0 0)
(-0.451655 0 0)
(-0.4479 0 0)
(-0.44414 0 0)
(-0.440376 0 0)
(-0.436607 0 0)
(-0.432835 0 0)
(-0.429058 0 0)
(-0.425278 0 0)
(-0.421493 0 0)
(-0.417705 0 0)
(-0.413913 0 0)
(-0.410116 0 0)
(-0.406316 0 0)
(-0.402513 0 0)
(-0.398705 0 0)
(-0.394894 0 0)
(-0.391079 0 0)
(-0.387261 0 0)
(-0.383439 0 0)
(-0.379614 0 0)
(-0.375785 0 0)
(-0.371953 0 0)
(-0.368117 0 0)
(-0.364278 0 0)
(-0.360436 0 0)
(-0.35659 0 0)
(-0.352742 0 0)
(-0.34889 0 0)
(-0.345035 0 0)
(-0.341177 0 0)
(-0.337316 0 0)
(-0.333452 0 0)
(-0.329585 0 0)
(-0.325715 0 0)
(-0.321842 0 0)
(-0.317967 0 0)
(-0.314088 0 0)
(-0.310207 0 0)
(-0.306323 0 0)
(-0.302437 0 0)
(-0.298548 0 0)
(-0.294656 0 0)
(-0.290762 0 0)
(-0.286865 0 0)
(-0.282966 0 0)
(-0.279064 0 0)
(-0.27516 0 0)
(-0.271253 0 0)
(-0.267344 0 0)
(-0.263433 0 0)
(-0.25952 0 0)
(-0.255604 0 0)
(-0.251686 0 0)
(-0.247766 0 0)
(-0.243844 0 0)
(-0.23992 0 0)
(-0.235994 0 0)
(-0.232066 0 0)
(-0.228136 0 0)
(-0.224204 0 0)
(-0.22027 0 0)
(-0.216334 0 0)
(-0.212396 0 0)
(-0.208457 0 0)
(-0.204515 0 0)
(-0.200573 0 0)
(-0.196628 0 0)
(-0.192682 0 0)
(-0.188734 0 0)
(-0.184785 0 0)
(-0.180834 0 0)
(-0.176881 0 0)
(-0.172927 0 0)
(-0.168972 0 0)
(-0.165015 0 0)
(-0.161057 0 0)
(-0.157097 0 0)
(-0.153137 0 0)
(-0.149175 0 0)
(-0.145211 0 0)
(-0.141247 0 0)
(-0.137281 0 0)
(-0.133314 0 0)
(-0.129347 0 0)
(-0.125378 0 0)
(-0.121408 0 0)
(-0.117437 0 0)
(-0.113465 0 0)
(-0.109492 0 0)
(-0.105518 0 0)
(-0.101544 0 0)
(-0.0975681 0 0)
(-0.0935918 0 0)
(-0.0896148 0 0)
(-0.0856371 0 0)
(-0.0816586 0 0)
(-0.0776795 0 0)
(-0.0736997 0 0)
(-0.0697194 0 0)
(-0.0657385 0 0)
(-0.061757 0 0)
(-0.057775 0 0)
(-0.0537926 0 0)
(-0.0498097 0 0)
(-0.0458264 0 0)
(-0.0418428 0 0)
(-0.0378588 0 0)
(-0.0338745 0 0)
(-0.0298899 0 0)
(-0.0259051 0 0)
(-0.02192 0 0)
(-0.0179348 0 0)
(-0.0139494 0 0)
(-0.00996397 0 0)
(-0.00597841 0 0)
(-0.00199281 0 0)
)
;

boundaryField
{
    left
    {
        type            fixedValue;
        value           uniform (0 0 0);
    }
    right
    {
        type            fixedValue;
        value           uniform (0 0 0);
    }
    frontBackUpDown
    {
        type            empty;
    }
}


// ************************************************************************* //
