/*--------------------------------*- C++ -*----------------------------------*\
| =========                 |                                                 |
| \\      /  F ield         | OpenFOAM: The Open Source CFD Toolbox           |
|  \\    /   O peration     | Version:  2412                                  |
|   \\  /    A nd           | Website:  www.openfoam.com                      |
|    \\/     M anipulation  |                                                 |
\*---------------------------------------------------------------------------*/
FoamFile
{
    version     2.0;
    format      ascii;
    arch        "LSB;label=32;scalar=64";
    class       surfaceScalarField;
    location    "0.15";
    object      phi;
}
// * * * * * * * * * * * * * * * * * * * * * * * * * * * * * * * * * * * * * //

dimensions      [0 3 -1 0 0 0 0];

oriented        oriented;

internalField   nonuniform List<scalar> 
799
(
5.33735e-05
0.000106747
0.000160118
0.000213485
0.000266849
0.000320208
0.00037356
0.000426905
0.000480242
0.000533569
0.000586886
0.000640192
0.000693485
0.000746764
0.000800029
0.000853279
0.000906512
0.000959727
0.00101292
0.0010661
0.00111926
0.00117239
0.0012255
0.00127859
0.00133165
0.00138468
0.00143769
0.00149067
0.00154362
0.00159654
0.00164943
0.00170229
0.00175511
0.0018079
0.00186066
0.00191337
0.00196605
0.00201869
0.00207129
0.00212385
0.00217636
0.00222884
0.00228126
0.00233365
0.00238598
0.00243827
0.00249051
0.0025427
0.00259484
0.00264693
0.00269896
0.00275094
0.00280286
0.00285473
0.00290654
0.00295829
0.00300998
0.00306161
0.00311318
0.00316468
0.00321612
0.00326749
0.0033188
0.00337004
0.0034212
0.0034723
0.00352333
0.00357428
0.00362516
0.00367597
0.00372669
0.00377734
0.00382792
0.00387841
0.00392882
0.00397914
0.00402939
0.00407955
0.00412962
0.0041796
0.0042295
0.0042793
0.00432902
0.00437864
0.00442817
0.0044776
0.00452694
0.00457618
0.00462532
0.00467436
0.00472329
0.00477213
0.00482086
0.00486948
0.004918
0.00496641
0.00501471
0.0050629
0.00511097
0.00515893
0.00520678
0.00525451
0.00530212
0.00534961
0.00539698
0.00544423
0.00549135
0.00553835
0.00558522
0.00563197
0.00567858
0.00572506
0.00577141
0.00581763
0.0058637
0.00590965
0.00595545
0.00600111
0.00604663
0.00609201
0.00613724
0.00618232
0.00622726
0.00627204
0.00631667
0.00636115
0.00640548
0.00644965
0.00649365
0.0065375
0.00658119
0.00662471
0.00666807
0.00671126
0.00675429
0.00679714
0.00683982
0.00688232
0.00692465
0.0069668
0.00700877
0.00705056
0.00709217
0.00713359
0.00717482
0.00721586
0.00725671
0.00729737
0.00733784
0.0073781
0.00741817
0.00745804
0.0074977
0.00753716
0.00757641
0.00761545
0.00765427
0.00769289
0.00773129
0.00776947
0.00780743
0.00784517
0.00788268
0.00791997
0.00795702
0.00799385
0.00803044
0.00806679
0.00810291
0.00813878
0.00817441
0.0082098
0.00824493
0.00827982
0.00831445
0.00834883
0.00838294
0.0084168
0.00845039
0.00848372
0.00851677
0.00854956
0.00858207
0.0086143
0.00864626
0.00867793
0.00870931
0.00874041
0.00877121
0.00880172
0.00883193
0.00886185
0.00889146
0.00892076
0.00894975
0.00897843
0.0090068
0.00903485
0.00906257
0.00908997
0.00911704
0.00914377
0.00917018
0.00919624
0.00922196
0.00924734
0.00927236
0.00929704
0.00932135
0.00934531
0.0093689
0.00939213
0.00941498
0.00943746
0.00945956
0.00948127
0.0095026
0.00952354
0.00954408
0.00956423
0.00958397
0.0096033
0.00962222
0.00964073
0.00965882
0.00967648
0.00969371
0.00971051
0.00972687
0.00974278
0.00975825
0.00977327
0.00978783
0.00980193
0.00981556
0.00982872
0.0098414
0.0098536
0.00986531
0.00987653
0.00988725
0.00989747
0.00990718
0.00991638
0.00992505
0.0099332
0.00994082
0.00994791
0.00995445
0.00996044
0.00996588
0.00997075
0.00997506
0.0099788
0.00998195
0.00998452
0.0099865
0.00998788
0.00998865
0.00998881
0.00998835
0.00998726
0.00998554
0.00998318
0.00998018
0.00997651
0.00997219
0.00996719
0.00996152
0.00995516
0.0099481
0.00994035
0.00993189
0.00992271
0.00991281
0.00990217
0.00989079
0.00987866
0.00986577
0.00985211
0.00983767
0.00982245
0.00980644
0.00978962
0.00977198
0.00975353
0.00973424
0.00971411
0.00969313
0.00967129
0.00964857
0.00962498
0.00960049
0.0095751
0.0095488
0.00952158
0.00949342
0.00946432
0.00943427
0.00940325
0.00937125
0.00933826
0.00930428
0.00926928
0.00923326
0.00919621
0.00915812
0.00911896
0.00907874
0.00903744
0.00899504
0.00895154
0.00890693
0.00886118
0.0088143
0.00876626
0.00871706
0.00866667
0.0086151
0.00856233
0.00850834
0.00845313
0.00839667
0.00833897
0.00828
0.00821976
0.00815822
0.00809539
0.00803125
0.00796578
0.00789898
0.00783083
0.00776132
0.00769045
0.00761819
0.00754455
0.0074695
0.00739304
0.00731516
0.00723585
0.00715511
0.00707291
0.00698926
0.00690415
0.00681756
0.0067295
0.00663996
0.00654892
0.0064564
0.00636237
0.00626685
0.00616982
0.00607129
0.00597125
0.0058697
0.00576665
0.0056621
0.00555605
0.00544851
0.00533947
0.00522895
0.00511696
0.0050035
0.00488859
0.00477223
0.00465444
0.00453524
0.00441464
0.00429266
0.00416931
0.00404463
0.00391863
0.00379133
0.00366277
0.00353297
0.00340196
0.00326977
0.00313643
0.00300199
0.00286646
0.00272991
0.00259235
0.00245384
0.00231442
0.00217413
0.00203302
0.00189113
0.00174852
0.00160523
0.00146132
0.00131684
0.00117184
0.00102638
0.000880519
0.000734303
0.000587795
0.000441053
0.000294133
0.000147096
3.16004e-10
-0.000147096
-0.000294133
-0.000441052
-0.000587794
-0.000734302
-0.000880517
-0.00102638
-0.00117184
-0.00131684
-0.00146132
-0.00160523
-0.00174851
-0.00189112
-0.00203301
-0.00217412
-0.00231441
-0.00245383
-0.00259234
-0.00272989
-0.00286645
-0.00300197
-0.00313641
-0.00326975
-0.00340194
-0.00353295
-0.00366275
-0.00379131
-0.0039186
-0.0040446
-0.00416929
-0.00429263
-0.00441461
-0.00453521
-0.00465441
-0.0047722
-0.00488855
-0.00500347
-0.00511693
-0.00522892
-0.00533944
-0.00544847
-0.00555602
-0.00566207
-0.00576662
-0.00586966
-0.00597121
-0.00607125
-0.00616978
-0.00626681
-0.00636233
-0.00645636
-0.00654889
-0.00663992
-0.00672946
-0.00681753
-0.00690411
-0.00698922
-0.00707288
-0.00715507
-0.00723582
-0.00731513
-0.00739301
-0.00746946
-0.00754451
-0.00761816
-0.00769041
-0.00776129
-0.0078308
-0.00789895
-0.00796575
-0.00803122
-0.00809536
-0.0081582
-0.00821973
-0.00827997
-0.00833894
-0.00839665
-0.0084531
-0.00850832
-0.00856231
-0.00861508
-0.00866665
-0.00871703
-0.00876624
-0.00881428
-0.00886116
-0.00890691
-0.00895153
-0.00899503
-0.00903742
-0.00907872
-0.00911895
-0.0091581
-0.0091962
-0.00923325
-0.00926927
-0.00930427
-0.00933825
-0.00937124
-0.00940324
-0.00943426
-0.00946431
-0.00949342
-0.00952157
-0.0095488
-0.0095751
-0.00960049
-0.00962497
-0.00964857
-0.00967128
-0.00969312
-0.00971411
-0.00973424
-0.00975352
-0.00977198
-0.00978961
-0.00980643
-0.00982245
-0.00983767
-0.0098521
-0.00986576
-0.00987865
-0.00989078
-0.00990217
-0.0099128
-0.00992271
-0.00993189
-0.00994035
-0.0099481
-0.00995516
-0.00996152
-0.00996719
-0.00997219
-0.00997651
-0.00998017
-0.00998318
-0.00998554
-0.00998726
-0.00998835
-0.00998881
-0.00998865
-0.00998788
-0.0099865
-0.00998452
-0.00998195
-0.0099788
-0.00997506
-0.00997075
-0.00996588
-0.00996044
-0.00995445
-0.00994791
-0.00994082
-0.0099332
-0.00992505
-0.00991638
-0.00990718
-0.00989747
-0.00988725
-0.00987653
-0.00986531
-0.00985359
-0.0098414
-0.00982871
-0.00981555
-0.00980192
-0.00978783
-0.00977327
-0.00975825
-0.00974278
-0.00972686
-0.0097105
-0.0096937
-0.00967647
-0.00965881
-0.00964073
-0.00962222
-0.0096033
-0.00958396
-0.00956422
-0.00954408
-0.00952353
-0.0095026
-0.00948127
-0.00945955
-0.00943745
-0.00941497
-0.00939212
-0.00936889
-0.0093453
-0.00932134
-0.00929703
-0.00927235
-0.00924733
-0.00922195
-0.00919623
-0.00917017
-0.00914377
-0.00911703
-0.00908996
-0.00906256
-0.00903484
-0.00900679
-0.00897842
-0.00894974
-0.00892075
-0.00889145
-0.00886184
-0.00883192
-0.00880171
-0.0087712
-0.0087404
-0.0087093
-0.00867791
-0.00864624
-0.00861429
-0.00858206
-0.00854955
-0.00851676
-0.00848371
-0.00845038
-0.00841679
-0.00838293
-0.00834881
-0.00831444
-0.00827981
-0.00824492
-0.00820978
-0.0081744
-0.00813877
-0.00810289
-0.00806678
-0.00803042
-0.00799383
-0.00795701
-0.00791995
-0.00788267
-0.00784515
-0.00780742
-0.00776946
-0.00773128
-0.00769288
-0.00765426
-0.00761543
-0.00757639
-0.00753714
-0.00749769
-0.00745802
-0.00741816
-0.00737809
-0.00733782
-0.00729736
-0.0072567
-0.00721585
-0.0071748
-0.00713357
-0.00709215
-0.00705055
-0.00700876
-0.00696679
-0.00692464
-0.00688231
-0.0068398
-0.00679712
-0.00675427
-0.00671125
-0.00666806
-0.0066247
-0.00658118
-0.00653749
-0.00649364
-0.00644963
-0.00640546
-0.00636114
-0.00631666
-0.00627203
-0.00622724
-0.00618231
-0.00613722
-0.00609199
-0.00604662
-0.0060011
-0.00595544
-0.00590963
-0.00586369
-0.00581761
-0.0057714
-0.00572505
-0.00567857
-0.00563196
-0.00558521
-0.00553834
-0.00549134
-0.00544422
-0.00539697
-0.0053496
-0.00530211
-0.0052545
-0.00520677
-0.00515892
-0.00511096
-0.00506289
-0.0050147
-0.0049664
-0.00491799
-0.00486947
-0.00482085
-0.00477212
-0.00472329
-0.00467435
-0.00462531
-0.00457617
-0.00452693
-0.00447759
-0.00442816
-0.00437863
-0.00432901
-0.0042793
-0.00422949
-0.0041796
-0.00412961
-0.00407954
-0.00402938
-0.00397914
-0.00392881
-0.0038784
-0.00382791
-0.00377734
-0.00372669
-0.00367596
-0.00362516
-0.00357428
-0.00352332
-0.0034723
-0.0034212
-0.00337003
-0.00331879
-0.00326749
-0.00321612
-0.00316468
-0.00311317
-0.00306161
-0.00300998
-0.00295829
-0.00290654
-0.00285473
-0.00280286
-0.00275094
-0.00269896
-0.00264692
-0.00259484
-0.0025427
-0.00249051
-0.00243827
-0.00238598
-0.00233364
-0.00228126
-0.00222883
-0.00217636
-0.00212384
-0.00207129
-0.00201869
-0.00196605
-0.00191337
-0.00186065
-0.0018079
-0.00175511
-0.00170229
-0.00164943
-0.00159654
-0.00154362
-0.00149067
-0.00143769
-0.00138468
-0.00133165
-0.00127859
-0.0012255
-0.00117239
-0.00111925
-0.0010661
-0.00101292
-0.000959726
-0.000906511
-0.000853279
-0.000800029
-0.000746764
-0.000693485
-0.000640192
-0.000586886
-0.000533569
-0.000480242
-0.000426905
-0.00037356
-0.000320208
-0.00026685
-0.000213486
-0.000160118
-0.000106747
-5.33741e-05
)
;

boundaryField
{
    left
    {
        type            calculated;
        value           uniform 0;
    }
    right
    {
        type            calculated;
        value           uniform 0;
    }
    frontBackUpDown
    {
        type            empty;
    }
}


// ************************************************************************* //
