/*--------------------------------*- C++ -*----------------------------------*\
| =========                 |                                                 |
| \\      /  F ield         | OpenFOAM: The Open Source CFD Toolbox           |
|  \\    /   O peration     | Version:  2412                                  |
|   \\  /    A nd           | Website:  www.openfoam.com                      |
|    \\/     M anipulation  |                                                 |
\*---------------------------------------------------------------------------*/
FoamFile
{
    version     2.0;
    format      ascii;
    arch        "LSB;label=32;scalar=64";
    class       volVectorField;
    location    "0.15";
    object      U;
}
// * * * * * * * * * * * * * * * * * * * * * * * * * * * * * * * * * * * * * //

dimensions      [0 1 -1 0 0 0 0];

internalField   nonuniform List<vector> 
800
(
(0.00266866 0 0)
(0.00800604 0 0)
(0.0133433 0 0)
(0.0186802 0 0)
(0.0240168 0 0)
(0.029353 0 0)
(0.0346886 0 0)
(0.0400235 0 0)
(0.0453576 0 0)
(0.0506908 0 0)
(0.0560231 0 0)
(0.0613542 0 0)
(0.0666842 0 0)
(0.0720128 0 0)
(0.0773401 0 0)
(0.0826658 0 0)
(0.08799 0 0)
(0.0933124 0 0)
(0.098633 0 0)
(0.103952 0 0)
(0.109268 0 0)
(0.114583 0 0)
(0.119895 0 0)
(0.125205 0 0)
(0.130512 0 0)
(0.135817 0 0)
(0.14112 0 0)
(0.146419 0 0)
(0.151716 0 0)
(0.157009 0 0)
(0.1623 0 0)
(0.167587 0 0)
(0.172871 0 0)
(0.178152 0 0)
(0.183429 0 0)
(0.188702 0 0)
(0.193972 0 0)
(0.199238 0 0)
(0.2045 0 0)
(0.209758 0 0)
(0.215012 0 0)
(0.220261 0 0)
(0.225506 0 0)
(0.230747 0 0)
(0.235983 0 0)
(0.241214 0 0)
(0.24644 0 0)
(0.251662 0 0)
(0.256878 0 0)
(0.26209 0 0)
(0.267296 0 0)
(0.272496 0 0)
(0.277692 0 0)
(0.282881 0 0)
(0.288065 0 0)
(0.293243 0 0)
(0.298415 0 0)
(0.303581 0 0)
(0.308741 0 0)
(0.313894 0 0)
(0.319042 0 0)
(0.324182 0 0)
(0.329316 0 0)
(0.334443 0 0)
(0.339564 0 0)
(0.344677 0 0)
(0.349783 0 0)
(0.354882 0 0)
(0.359974 0 0)
(0.365058 0 0)
(0.370135 0 0)
(0.375204 0 0)
(0.380265 0 0)
(0.385318 0 0)
(0.390363 0 0)
(0.3954 0 0)
(0.400429 0 0)
(0.405449 0 0)
(0.41046 0 0)
(0.415463 0 0)
(0.420457 0 0)
(0.425442 0 0)
(0.430419 0 0)
(0.435385 0 0)
(0.440343 0 0)
(0.445291 0 0)
(0.45023 0 0)
(0.455158 0 0)
(0.460077 0 0)
(0.464986 0 0)
(0.469885 0 0)
(0.474774 0 0)
(0.479652 0 0)
(0.48452 0 0)
(0.489377 0 0)
(0.494223 0 0)
(0.499059 0 0)
(0.503883 0 0)
(0.508696 0 0)
(0.513498 0 0)
(0.518289 0 0)
(0.523067 0 0)
(0.527834 0 0)
(0.53259 0 0)
(0.537333 0 0)
(0.542064 0 0)
(0.546782 0 0)
(0.551488 0 0)
(0.556182 0 0)
(0.560863 0 0)
(0.565531 0 0)
(0.570185 0 0)
(0.574827 0 0)
(0.579455 0 0)
(0.58407 0 0)
(0.588671 0 0)
(0.593258 0 0)
(0.597831 0 0)
(0.602391 0 0)
(0.606935 0 0)
(0.611466 0 0)
(0.615982 0 0)
(0.620482 0 0)
(0.624969 0 0)
(0.629439 0 0)
(0.633895 0 0)
(0.638335 0 0)
(0.64276 0 0)
(0.647169 0 0)
(0.651562 0 0)
(0.655939 0 0)
(0.660299 0 0)
(0.664643 0 0)
(0.668971 0 0)
(0.673282 0 0)
(0.677575 0 0)
(0.681852 0 0)
(0.686111 0 0)
(0.690353 0 0)
(0.694577 0 0)
(0.698783 0 0)
(0.702971 0 0)
(0.707141 0 0)
(0.711292 0 0)
(0.715425 0 0)
(0.719539 0 0)
(0.723634 0 0)
(0.727709 0 0)
(0.731765 0 0)
(0.735802 0 0)
(0.739819 0 0)
(0.743815 0 0)
(0.747792 0 0)
(0.751748 0 0)
(0.755683 0 0)
(0.759598 0 0)
(0.763491 0 0)
(0.767364 0 0)
(0.771214 0 0)
(0.775043 0 0)
(0.77885 0 0)
(0.782635 0 0)
(0.786398 0 0)
(0.790138 0 0)
(0.793855 0 0)
(0.797549 0 0)
(0.80122 0 0)
(0.804867 0 0)
(0.808491 0 0)
(0.81209 0 0)
(0.815666 0 0)
(0.819217 0 0)
(0.822743 0 0)
(0.826244 0 0)
(0.82972 0 0)
(0.83317 0 0)
(0.836595 0 0)
(0.839994 0 0)
(0.843366 0 0)
(0.846712 0 0)
(0.850031 0 0)
(0.853323 0 0)
(0.856588 0 0)
(0.859826 0 0)
(0.863035 0 0)
(0.866216 0 0)
(0.869369 0 0)
(0.872493 0 0)
(0.875588 0 0)
(0.878654 0 0)
(0.88169 0 0)
(0.884697 0 0)
(0.887673 0 0)
(0.890619 0 0)
(0.893533 0 0)
(0.896417 0 0)
(0.89927 0 0)
(0.90209 0 0)
(0.904879 0 0)
(0.907635 0 0)
(0.910358 0 0)
(0.913049 0 0)
(0.915706 0 0)
(0.918329 0 0)
(0.920919 0 0)
(0.923474 0 0)
(0.925994 0 0)
(0.928479 0 0)
(0.930928 0 0)
(0.933342 0 0)
(0.93572 0 0)
(0.938061 0 0)
(0.940365 0 0)
(0.942631 0 0)
(0.94486 0 0)
(0.947051 0 0)
(0.949203 0 0)
(0.951317 0 0)
(0.953391 0 0)
(0.955426 0 0)
(0.95742 0 0)
(0.959374 0 0)
(0.961287 0 0)
(0.963158 0 0)
(0.964988 0 0)
(0.966775 0 0)
(0.96852 0 0)
(0.970222 0 0)
(0.97188 0 0)
(0.973494 0 0)
(0.975063 0 0)
(0.976587 0 0)
(0.978066 0 0)
(0.979499 0 0)
(0.980886 0 0)
(0.982225 0 0)
(0.983518 0 0)
(0.984762 0 0)
(0.985958 0 0)
(0.987104 0 0)
(0.988202 0 0)
(0.989249 0 0)
(0.990245 0 0)
(0.991191 0 0)
(0.992085 0 0)
(0.992926 0 0)
(0.993715 0 0)
(0.99445 0 0)
(0.995131 0 0)
(0.995758 0 0)
(0.99633 0 0)
(0.996846 0 0)
(0.997305 0 0)
(0.997707 0 0)
(0.998052 0 0)
(0.998338 0 0)
(0.998566 0 0)
(0.998734 0 0)
(0.998842 0 0)
(0.998888 0 0)
(0.998874 0 0)
(0.998796 0 0)
(0.998656 0 0)
(0.998452 0 0)
(0.998184 0 0)
(0.997851 0 0)
(0.997452 0 0)
(0.996986 0 0)
(0.996452 0 0)
(0.995851 0 0)
(0.995181 0 0)
(0.99444 0 0)
(0.99363 0 0)
(0.992748 0 0)
(0.991794 0 0)
(0.990767 0 0)
(0.989666 0 0)
(0.988491 0 0)
(0.98724 0 0)
(0.985913 0 0)
(0.984508 0 0)
(0.983026 0 0)
(0.981464 0 0)
(0.979823 0 0)
(0.9781 0 0)
(0.976296 0 0)
(0.974409 0 0)
(0.972439 0 0)
(0.970383 0 0)
(0.968242 0 0)
(0.966015 0 0)
(0.9637 0 0)
(0.961296 0 0)
(0.958802 0 0)
(0.956218 0 0)
(0.953542 0 0)
(0.950774 0 0)
(0.947911 0 0)
(0.944954 0 0)
(0.9419 0 0)
(0.938749 0 0)
(0.9355 0 0)
(0.932152 0 0)
(0.928703 0 0)
(0.925153 0 0)
(0.9215 0 0)
(0.917743 0 0)
(0.913881 0 0)
(0.909912 0 0)
(0.905836 0 0)
(0.901652 0 0)
(0.897357 0 0)
(0.892952 0 0)
(0.888434 0 0)
(0.883803 0 0)
(0.879057 0 0)
(0.874195 0 0)
(0.869216 0 0)
(0.864119 0 0)
(0.858902 0 0)
(0.853564 0 0)
(0.848104 0 0)
(0.842521 0 0)
(0.836814 0 0)
(0.83098 0 0)
(0.82502 0 0)
(0.818931 0 0)
(0.812713 0 0)
(0.806365 0 0)
(0.799885 0 0)
(0.793272 0 0)
(0.786524 0 0)
(0.779642 0 0)
(0.772623 0 0)
(0.765467 0 0)
(0.758172 0 0)
(0.750737 0 0)
(0.743162 0 0)
(0.735446 0 0)
(0.727587 0 0)
(0.719584 0 0)
(0.711437 0 0)
(0.703145 0 0)
(0.694707 0 0)
(0.686122 0 0)
(0.67739 0 0)
(0.66851 0 0)
(0.659481 0 0)
(0.650303 0 0)
(0.640976 0 0)
(0.631498 0 0)
(0.621871 0 0)
(0.612093 0 0)
(0.602164 0 0)
(0.592085 0 0)
(0.581855 0 0)
(0.571475 0 0)
(0.560945 0 0)
(0.550265 0 0)
(0.539436 0 0)
(0.528458 0 0)
(0.517332 0 0)
(0.50606 0 0)
(0.494641 0 0)
(0.483077 0 0)
(0.471369 0 0)
(0.459519 0 0)
(0.447529 0 0)
(0.435399 0 0)
(0.423132 0 0)
(0.41073 0 0)
(0.398195 0 0)
(0.38553 0 0)
(0.372737 0 0)
(0.359818 0 0)
(0.346776 0 0)
(0.333615 0 0)
(0.320338 0 0)
(0.306948 0 0)
(0.293449 0 0)
(0.279844 0 0)
(0.266137 0 0)
(0.252333 0 0)
(0.238435 0 0)
(0.224448 0 0)
(0.210377 0 0)
(0.196226 0 0)
(0.182 0 0)
(0.167704 0 0)
(0.153343 0 0)
(0.138922 0 0)
(0.124446 0 0)
(0.109922 0 0)
(0.0953546 0 0)
(0.0807491 0 0)
(0.0661115 0 0)
(0.0514475 0 0)
(0.036763 0 0)
(0.0220637 0 0)
(0.00735557 0 0)
(-0.00735551 0 0)
(-0.0220636 0 0)
(-0.0367629 0 0)
(-0.0514474 0 0)
(-0.0661114 0 0)
(-0.0807489 0 0)
(-0.0953544 0 0)
(-0.109922 0 0)
(-0.124446 0 0)
(-0.138921 0 0)
(-0.153342 0 0)
(-0.167703 0 0)
(-0.181999 0 0)
(-0.196225 0 0)
(-0.210376 0 0)
(-0.224447 0 0)
(-0.238434 0 0)
(-0.252332 0 0)
(-0.266136 0 0)
(-0.279843 0 0)
(-0.293447 0 0)
(-0.306947 0 0)
(-0.320336 0 0)
(-0.333613 0 0)
(-0.346774 0 0)
(-0.359815 0 0)
(-0.372734 0 0)
(-0.385528 0 0)
(-0.398193 0 0)
(-0.410728 0 0)
(-0.42313 0 0)
(-0.435396 0 0)
(-0.447526 0 0)
(-0.459516 0 0)
(-0.471366 0 0)
(-0.483074 0 0)
(-0.494637 0 0)
(-0.506056 0 0)
(-0.517329 0 0)
(-0.528455 0 0)
(-0.539432 0 0)
(-0.550262 0 0)
(-0.560941 0 0)
(-0.571472 0 0)
(-0.581852 0 0)
(-0.592081 0 0)
(-0.60216 0 0)
(-0.612089 0 0)
(-0.621867 0 0)
(-0.631495 0 0)
(-0.640972 0 0)
(-0.6503 0 0)
(-0.659477 0 0)
(-0.668506 0 0)
(-0.677386 0 0)
(-0.686119 0 0)
(-0.694703 0 0)
(-0.703141 0 0)
(-0.711434 0 0)
(-0.719581 0 0)
(-0.727583 0 0)
(-0.735442 0 0)
(-0.743159 0 0)
(-0.750734 0 0)
(-0.758168 0 0)
(-0.765463 0 0)
(-0.77262 0 0)
(-0.779638 0 0)
(-0.786521 0 0)
(-0.793268 0 0)
(-0.799882 0 0)
(-0.806362 0 0)
(-0.812711 0 0)
(-0.818929 0 0)
(-0.825017 0 0)
(-0.830978 0 0)
(-0.836811 0 0)
(-0.842519 0 0)
(-0.848102 0 0)
(-0.853562 0 0)
(-0.8589 0 0)
(-0.864117 0 0)
(-0.869214 0 0)
(-0.874193 0 0)
(-0.879055 0 0)
(-0.883801 0 0)
(-0.888432 0 0)
(-0.89295 0 0)
(-0.897355 0 0)
(-0.90165 0 0)
(-0.905834 0 0)
(-0.90991 0 0)
(-0.913879 0 0)
(-0.917741 0 0)
(-0.921498 0 0)
(-0.925152 0 0)
(-0.928702 0 0)
(-0.932151 0 0)
(-0.935499 0 0)
(-0.938748 0 0)
(-0.941899 0 0)
(-0.944953 0 0)
(-0.94791 0 0)
(-0.950773 0 0)
(-0.953542 0 0)
(-0.956218 0 0)
(-0.958802 0 0)
(-0.961295 0 0)
(-0.963699 0 0)
(-0.966014 0 0)
(-0.968242 0 0)
(-0.970383 0 0)
(-0.972438 0 0)
(-0.974409 0 0)
(-0.976296 0 0)
(-0.9781 0 0)
(-0.979822 0 0)
(-0.981464 0 0)
(-0.983026 0 0)
(-0.984508 0 0)
(-0.985913 0 0)
(-0.98724 0 0)
(-0.988491 0 0)
(-0.989666 0 0)
(-0.990767 0 0)
(-0.991794 0 0)
(-0.992748 0 0)
(-0.99363 0 0)
(-0.99444 0 0)
(-0.99518 0 0)
(-0.995851 0 0)
(-0.996452 0 0)
(-0.996986 0 0)
(-0.997451 0 0)
(-0.997851 0 0)
(-0.998184 0 0)
(-0.998452 0 0)
(-0.998656 0 0)
(-0.998796 0 0)
(-0.998874 0 0)
(-0.998888 0 0)
(-0.998842 0 0)
(-0.998734 0 0)
(-0.998566 0 0)
(-0.998338 0 0)
(-0.998052 0 0)
(-0.997707 0 0)
(-0.997305 0 0)
(-0.996845 0 0)
(-0.99633 0 0)
(-0.995758 0 0)
(-0.995131 0 0)
(-0.99445 0 0)
(-0.993715 0 0)
(-0.992926 0 0)
(-0.992084 0 0)
(-0.991191 0 0)
(-0.990245 0 0)
(-0.989249 0 0)
(-0.988201 0 0)
(-0.987104 0 0)
(-0.985957 0 0)
(-0.984762 0 0)
(-0.983517 0 0)
(-0.982225 0 0)
(-0.980886 0 0)
(-0.979499 0 0)
(-0.978066 0 0)
(-0.976587 0 0)
(-0.975063 0 0)
(-0.973493 0 0)
(-0.971879 0 0)
(-0.970221 0 0)
(-0.96852 0 0)
(-0.966775 0 0)
(-0.964987 0 0)
(-0.963158 0 0)
(-0.961286 0 0)
(-0.959373 0 0)
(-0.957419 0 0)
(-0.955425 0 0)
(-0.953391 0 0)
(-0.951316 0 0)
(-0.949203 0 0)
(-0.94705 0 0)
(-0.94486 0 0)
(-0.942631 0 0)
(-0.940364 0 0)
(-0.93806 0 0)
(-0.935719 0 0)
(-0.933341 0 0)
(-0.930928 0 0)
(-0.928478 0 0)
(-0.925993 0 0)
(-0.923473 0 0)
(-0.920918 0 0)
(-0.918329 0 0)
(-0.915705 0 0)
(-0.913048 0 0)
(-0.910358 0 0)
(-0.907634 0 0)
(-0.904878 0 0)
(-0.902089 0 0)
(-0.899269 0 0)
(-0.896416 0 0)
(-0.893532 0 0)
(-0.890618 0 0)
(-0.887672 0 0)
(-0.884696 0 0)
(-0.881689 0 0)
(-0.878653 0 0)
(-0.875587 0 0)
(-0.872492 0 0)
(-0.869368 0 0)
(-0.866215 0 0)
(-0.863034 0 0)
(-0.859824 0 0)
(-0.856587 0 0)
(-0.853322 0 0)
(-0.85003 0 0)
(-0.846711 0 0)
(-0.843365 0 0)
(-0.839992 0 0)
(-0.836594 0 0)
(-0.833169 0 0)
(-0.829719 0 0)
(-0.826243 0 0)
(-0.822741 0 0)
(-0.819215 0 0)
(-0.815665 0 0)
(-0.812089 0 0)
(-0.80849 0 0)
(-0.804866 0 0)
(-0.801219 0 0)
(-0.797548 0 0)
(-0.793854 0 0)
(-0.790137 0 0)
(-0.786397 0 0)
(-0.782634 0 0)
(-0.778849 0 0)
(-0.775042 0 0)
(-0.771213 0 0)
(-0.767362 0 0)
(-0.76349 0 0)
(-0.759597 0 0)
(-0.755682 0 0)
(-0.751747 0 0)
(-0.74779 0 0)
(-0.743814 0 0)
(-0.739817 0 0)
(-0.735801 0 0)
(-0.731764 0 0)
(-0.727708 0 0)
(-0.723632 0 0)
(-0.719537 0 0)
(-0.715424 0 0)
(-0.711291 0 0)
(-0.70714 0 0)
(-0.70297 0 0)
(-0.698782 0 0)
(-0.694576 0 0)
(-0.690352 0 0)
(-0.68611 0 0)
(-0.681851 0 0)
(-0.677574 0 0)
(-0.67328 0 0)
(-0.66897 0 0)
(-0.664642 0 0)
(-0.660298 0 0)
(-0.655938 0 0)
(-0.651561 0 0)
(-0.647168 0 0)
(-0.642759 0 0)
(-0.638334 0 0)
(-0.633894 0 0)
(-0.629438 0 0)
(-0.624967 0 0)
(-0.620481 0 0)
(-0.61598 0 0)
(-0.611465 0 0)
(-0.606934 0 0)
(-0.602389 0 0)
(-0.59783 0 0)
(-0.593257 0 0)
(-0.58867 0 0)
(-0.584069 0 0)
(-0.579454 0 0)
(-0.574826 0 0)
(-0.570184 0 0)
(-0.565529 0 0)
(-0.560862 0 0)
(-0.556181 0 0)
(-0.551487 0 0)
(-0.546781 0 0)
(-0.542063 0 0)
(-0.537332 0 0)
(-0.532589 0 0)
(-0.527833 0 0)
(-0.523066 0 0)
(-0.518288 0 0)
(-0.513497 0 0)
(-0.508695 0 0)
(-0.503882 0 0)
(-0.499058 0 0)
(-0.494222 0 0)
(-0.489376 0 0)
(-0.484519 0 0)
(-0.479651 0 0)
(-0.474773 0 0)
(-0.469884 0 0)
(-0.464985 0 0)
(-0.460076 0 0)
(-0.455158 0 0)
(-0.450229 0 0)
(-0.44529 0 0)
(-0.440342 0 0)
(-0.435385 0 0)
(-0.430418 0 0)
(-0.425442 0 0)
(-0.420457 0 0)
(-0.415463 0 0)
(-0.41046 0 0)
(-0.405448 0 0)
(-0.400428 0 0)
(-0.3954 0 0)
(-0.390363 0 0)
(-0.385318 0 0)
(-0.380264 0 0)
(-0.375203 0 0)
(-0.370134 0 0)
(-0.365058 0 0)
(-0.359974 0 0)
(-0.354882 0 0)
(-0.349783 0 0)
(-0.344677 0 0)
(-0.339563 0 0)
(-0.334443 0 0)
(-0.329316 0 0)
(-0.324182 0 0)
(-0.319041 0 0)
(-0.313894 0 0)
(-0.308741 0 0)
(-0.303581 0 0)
(-0.298415 0 0)
(-0.293243 0 0)
(-0.288065 0 0)
(-0.282881 0 0)
(-0.277691 0 0)
(-0.272496 0 0)
(-0.267295 0 0)
(-0.262089 0 0)
(-0.256878 0 0)
(-0.251662 0 0)
(-0.24644 0 0)
(-0.241214 0 0)
(-0.235982 0 0)
(-0.230746 0 0)
(-0.225506 0 0)
(-0.220261 0 0)
(-0.215011 0 0)
(-0.209758 0 0)
(-0.2045 0 0)
(-0.199238 0 0)
(-0.193972 0 0)
(-0.188702 0 0)
(-0.183429 0 0)
(-0.178152 0 0)
(-0.172871 0 0)
(-0.167587 0 0)
(-0.1623 0 0)
(-0.157009 0 0)
(-0.151715 0 0)
(-0.146419 0 0)
(-0.141119 0 0)
(-0.135817 0 0)
(-0.130512 0 0)
(-0.125205 0 0)
(-0.119895 0 0)
(-0.114583 0 0)
(-0.109268 0 0)
(-0.103952 0 0)
(-0.0986329 0 0)
(-0.0933123 0 0)
(-0.0879899 0 0)
(-0.0826658 0 0)
(-0.0773401 0 0)
(-0.0720128 0 0)
(-0.0666842 0 0)
(-0.0613542 0 0)
(-0.056023 0 0)
(-0.0506908 0 0)
(-0.0453576 0 0)
(-0.0400235 0 0)
(-0.0346886 0 0)
(-0.029353 0 0)
(-0.0240169 0 0)
(-0.0186803 0 0)
(-0.0133433 0 0)
(-0.0080061 0 0)
(-0.00266872 0 0)
)
;

boundaryField
{
    left
    {
        type            fixedValue;
        value           uniform (0 0 0);
    }
    right
    {
        type            fixedValue;
        value           uniform (0 0 0);
    }
    frontBackUpDown
    {
        type            empty;
    }
}


// ************************************************************************* //
