/*--------------------------------*- C++ -*----------------------------------*\
| =========                 |                                                 |
| \\      /  F ield         | OpenFOAM: The Open Source CFD Toolbox           |
|  \\    /   O peration     | Version:  2412                                  |
|   \\  /    A nd           | Website:  www.openfoam.com                      |
|    \\/     M anipulation  |                                                 |
\*---------------------------------------------------------------------------*/
FoamFile
{
    version     2.0;
    format      ascii;
    arch        "LSB;label=32;scalar=64";
    class       volVectorField;
    location    "0.15";
    object      U_0;
}
// * * * * * * * * * * * * * * * * * * * * * * * * * * * * * * * * * * * * * //

dimensions      [0 1 -1 0 0 0 0];

internalField   nonuniform List<vector> 
800
(
(0.00267151 0 0)
(0.00801459 0 0)
(0.0133575 0 0)
(0.0187002 0 0)
(0.0240425 0 0)
(0.0293843 0 0)
(0.0347256 0 0)
(0.0400662 0 0)
(0.045406 0 0)
(0.0507449 0 0)
(0.0560828 0 0)
(0.0614197 0 0)
(0.0667553 0 0)
(0.0720896 0 0)
(0.0774225 0 0)
(0.0827539 0 0)
(0.0880837 0 0)
(0.0934118 0 0)
(0.098738 0 0)
(0.104062 0 0)
(0.109385 0 0)
(0.114705 0 0)
(0.120022 0 0)
(0.125338 0 0)
(0.130651 0 0)
(0.135961 0 0)
(0.141269 0 0)
(0.146574 0 0)
(0.151876 0 0)
(0.157176 0 0)
(0.162472 0 0)
(0.167764 0 0)
(0.173054 0 0)
(0.17834 0 0)
(0.183622 0 0)
(0.188901 0 0)
(0.194177 0 0)
(0.199448 0 0)
(0.204715 0 0)
(0.209978 0 0)
(0.215238 0 0)
(0.220492 0 0)
(0.225743 0 0)
(0.230989 0 0)
(0.23623 0 0)
(0.241466 0 0)
(0.246698 0 0)
(0.251925 0 0)
(0.257147 0 0)
(0.262363 0 0)
(0.267574 0 0)
(0.27278 0 0)
(0.27798 0 0)
(0.283175 0 0)
(0.288364 0 0)
(0.293547 0 0)
(0.298724 0 0)
(0.303895 0 0)
(0.30906 0 0)
(0.314218 0 0)
(0.31937 0 0)
(0.324516 0 0)
(0.329654 0 0)
(0.334786 0 0)
(0.339912 0 0)
(0.34503 0 0)
(0.350141 0 0)
(0.355244 0 0)
(0.360341 0 0)
(0.36543 0 0)
(0.370511 0 0)
(0.375584 0 0)
(0.38065 0 0)
(0.385708 0 0)
(0.390757 0 0)
(0.395798 0 0)
(0.400831 0 0)
(0.405856 0 0)
(0.410872 0 0)
(0.415879 0 0)
(0.420877 0 0)
(0.425867 0 0)
(0.430847 0 0)
(0.435818 0 0)
(0.440779 0 0)
(0.445732 0 0)
(0.450674 0 0)
(0.455607 0 0)
(0.46053 0 0)
(0.465443 0 0)
(0.470345 0 0)
(0.475238 0 0)
(0.48012 0 0)
(0.484991 0 0)
(0.489852 0 0)
(0.494702 0 0)
(0.499541 0 0)
(0.504369 0 0)
(0.509186 0 0)
(0.513991 0 0)
(0.518785 0 0)
(0.523567 0 0)
(0.528337 0 0)
(0.533096 0 0)
(0.537842 0 0)
(0.542576 0 0)
(0.547298 0 0)
(0.552007 0 0)
(0.556704 0 0)
(0.561388 0 0)
(0.566058 0 0)
(0.570716 0 0)
(0.57536 0 0)
(0.579991 0 0)
(0.584609 0 0)
(0.589212 0 0)
(0.593802 0 0)
(0.598378 0 0)
(0.60294 0 0)
(0.607487 0 0)
(0.612019 0 0)
(0.616538 0 0)
(0.621041 0 0)
(0.625529 0 0)
(0.630002 0 0)
(0.63446 0 0)
(0.638902 0 0)
(0.643329 0 0)
(0.647739 0 0)
(0.652134 0 0)
(0.656513 0 0)
(0.660875 0 0)
(0.665221 0 0)
(0.66955 0 0)
(0.673862 0 0)
(0.678157 0 0)
(0.682435 0 0)
(0.686695 0 0)
(0.690938 0 0)
(0.695163 0 0)
(0.69937 0 0)
(0.703559 0 0)
(0.70773 0 0)
(0.711882 0 0)
(0.716016 0 0)
(0.72013 0 0)
(0.724226 0 0)
(0.728302 0 0)
(0.732358 0 0)
(0.736395 0 0)
(0.740412 0 0)
(0.744409 0 0)
(0.748386 0 0)
(0.752342 0 0)
(0.756277 0 0)
(0.760192 0 0)
(0.764085 0 0)
(0.767957 0 0)
(0.771807 0 0)
(0.775636 0 0)
(0.779443 0 0)
(0.783227 0 0)
(0.786989 0 0)
(0.790728 0 0)
(0.794444 0 0)
(0.798138 0 0)
(0.801807 0 0)
(0.805453 0 0)
(0.809076 0 0)
(0.812674 0 0)
(0.816248 0 0)
(0.819797 0 0)
(0.823322 0 0)
(0.826821 0 0)
(0.830295 0 0)
(0.833744 0 0)
(0.837167 0 0)
(0.840563 0 0)
(0.843934 0 0)
(0.847277 0 0)
(0.850594 0 0)
(0.853884 0 0)
(0.857146 0 0)
(0.860381 0 0)
(0.863587 0 0)
(0.866766 0 0)
(0.869916 0 0)
(0.873037 0 0)
(0.876129 0 0)
(0.879191 0 0)
(0.882224 0 0)
(0.885227 0 0)
(0.8882 0 0)
(0.891142 0 0)
(0.894053 0 0)
(0.896932 0 0)
(0.899781 0 0)
(0.902597 0 0)
(0.905382 0 0)
(0.908133 0 0)
(0.910852 0 0)
(0.913538 0 0)
(0.916191 0 0)
(0.918809 0 0)
(0.921394 0 0)
(0.923943 0 0)
(0.926458 0 0)
(0.928938 0 0)
(0.931382 0 0)
(0.93379 0 0)
(0.936162 0 0)
(0.938497 0 0)
(0.940796 0 0)
(0.943056 0 0)
(0.945279 0 0)
(0.947464 0 0)
(0.94961 0 0)
(0.951717 0 0)
(0.953784 0 0)
(0.955812 0 0)
(0.957799 0 0)
(0.959746 0 0)
(0.961652 0 0)
(0.963516 0 0)
(0.965338 0 0)
(0.967118 0 0)
(0.968855 0 0)
(0.970549 0 0)
(0.972199 0 0)
(0.973805 0 0)
(0.975366 0 0)
(0.976882 0 0)
(0.978353 0 0)
(0.979777 0 0)
(0.981155 0 0)
(0.982486 0 0)
(0.983769 0 0)
(0.985004 0 0)
(0.98619 0 0)
(0.987328 0 0)
(0.988415 0 0)
(0.989453 0 0)
(0.990439 0 0)
(0.991375 0 0)
(0.992259 0 0)
(0.99309 0 0)
(0.993868 0 0)
(0.994593 0 0)
(0.995264 0 0)
(0.99588 0 0)
(0.99644 0 0)
(0.996945 0 0)
(0.997393 0 0)
(0.997784 0 0)
(0.998117 0 0)
(0.998392 0 0)
(0.998608 0 0)
(0.998764 0 0)
(0.998859 0 0)
(0.998894 0 0)
(0.998867 0 0)
(0.998777 0 0)
(0.998625 0 0)
(0.998408 0 0)
(0.998127 0 0)
(0.99778 0 0)
(0.997368 0 0)
(0.996889 0 0)
(0.996342 0 0)
(0.995727 0 0)
(0.995043 0 0)
(0.994289 0 0)
(0.993465 0 0)
(0.992569 0 0)
(0.991601 0 0)
(0.99056 0 0)
(0.989445 0 0)
(0.988255 0 0)
(0.986989 0 0)
(0.985647 0 0)
(0.984228 0 0)
(0.982731 0 0)
(0.981154 0 0)
(0.979497 0 0)
(0.97776 0 0)
(0.97594 0 0)
(0.974038 0 0)
(0.972052 0 0)
(0.969981 0 0)
(0.967824 0 0)
(0.965581 0 0)
(0.96325 0 0)
(0.96083 0 0)
(0.958321 0 0)
(0.955721 0 0)
(0.953029 0 0)
(0.950244 0 0)
(0.947365 0 0)
(0.944392 0 0)
(0.941322 0 0)
(0.938155 0 0)
(0.93489 0 0)
(0.931525 0 0)
(0.92806 0 0)
(0.924494 0 0)
(0.920824 0 0)
(0.917051 0 0)
(0.913172 0 0)
(0.909188 0 0)
(0.905096 0 0)
(0.900895 0 0)
(0.896585 0 0)
(0.892163 0 0)
(0.88763 0 0)
(0.882983 0 0)
(0.878221 0 0)
(0.873344 0 0)
(0.86835 0 0)
(0.863237 0 0)
(0.858005 0 0)
(0.852653 0 0)
(0.847178 0 0)
(0.841581 0 0)
(0.835859 0 0)
(0.830011 0 0)
(0.824037 0 0)
(0.817935 0 0)
(0.811704 0 0)
(0.805343 0 0)
(0.79885 0 0)
(0.792224 0 0)
(0.785465 0 0)
(0.778571 0 0)
(0.771541 0 0)
(0.764374 0 0)
(0.757069 0 0)
(0.749625 0 0)
(0.74204 0 0)
(0.734315 0 0)
(0.726447 0 0)
(0.718437 0 0)
(0.710283 0 0)
(0.701984 0 0)
(0.69354 0 0)
(0.68495 0 0)
(0.676213 0 0)
(0.667329 0 0)
(0.658297 0 0)
(0.649117 0 0)
(0.639787 0 0)
(0.630309 0 0)
(0.620681 0 0)
(0.610904 0 0)
(0.600977 0 0)
(0.5909 0 0)
(0.580674 0 0)
(0.570298 0 0)
(0.559773 0 0)
(0.5491 0 0)
(0.538278 0 0)
(0.527308 0 0)
(0.516192 0 0)
(0.504929 0 0)
(0.493522 0 0)
(0.481971 0 0)
(0.470277 0 0)
(0.458442 0 0)
(0.446467 0 0)
(0.434355 0 0)
(0.422106 0 0)
(0.409724 0 0)
(0.397209 0 0)
(0.384566 0 0)
(0.371795 0 0)
(0.3589 0 0)
(0.345884 0 0)
(0.332749 0 0)
(0.319499 0 0)
(0.306138 0 0)
(0.292668 0 0)
(0.279094 0 0)
(0.265419 0 0)
(0.251647 0 0)
(0.237783 0 0)
(0.223831 0 0)
(0.209795 0 0)
(0.19568 0 0)
(0.181491 0 0)
(0.167232 0 0)
(0.15291 0 0)
(0.138528 0 0)
(0.124093 0 0)
(0.109609 0 0)
(0.0950818 0 0)
(0.0805176 0 0)
(0.0659216 0 0)
(0.0512995 0 0)
(0.0366571 0 0)
(0.0220001 0 0)
(0.00733435 0 0)
(-0.00733429 0 0)
(-0.022 0 0)
(-0.036657 0 0)
(-0.0512994 0 0)
(-0.0659214 0 0)
(-0.0805174 0 0)
(-0.0950816 0 0)
(-0.109608 0 0)
(-0.124092 0 0)
(-0.138528 0 0)
(-0.152909 0 0)
(-0.167232 0 0)
(-0.18149 0 0)
(-0.195679 0 0)
(-0.209794 0 0)
(-0.22383 0 0)
(-0.237782 0 0)
(-0.251646 0 0)
(-0.265417 0 0)
(-0.279092 0 0)
(-0.292666 0 0)
(-0.306136 0 0)
(-0.319498 0 0)
(-0.332747 0 0)
(-0.345882 0 0)
(-0.358898 0 0)
(-0.371793 0 0)
(-0.384563 0 0)
(-0.397207 0 0)
(-0.409721 0 0)
(-0.422103 0 0)
(-0.434352 0 0)
(-0.446464 0 0)
(-0.458439 0 0)
(-0.470274 0 0)
(-0.481968 0 0)
(-0.493519 0 0)
(-0.504926 0 0)
(-0.516189 0 0)
(-0.527305 0 0)
(-0.538274 0 0)
(-0.549096 0 0)
(-0.55977 0 0)
(-0.570295 0 0)
(-0.58067 0 0)
(-0.590897 0 0)
(-0.600973 0 0)
(-0.6109 0 0)
(-0.620678 0 0)
(-0.630305 0 0)
(-0.639784 0 0)
(-0.649113 0 0)
(-0.658293 0 0)
(-0.667325 0 0)
(-0.67621 0 0)
(-0.684946 0 0)
(-0.693537 0 0)
(-0.701981 0 0)
(-0.710279 0 0)
(-0.718433 0 0)
(-0.726444 0 0)
(-0.734311 0 0)
(-0.742037 0 0)
(-0.749621 0 0)
(-0.757065 0 0)
(-0.764371 0 0)
(-0.771538 0 0)
(-0.778568 0 0)
(-0.785462 0 0)
(-0.792221 0 0)
(-0.798847 0 0)
(-0.80534 0 0)
(-0.811701 0 0)
(-0.817932 0 0)
(-0.824034 0 0)
(-0.830009 0 0)
(-0.835856 0 0)
(-0.841578 0 0)
(-0.847176 0 0)
(-0.85265 0 0)
(-0.858003 0 0)
(-0.863235 0 0)
(-0.868348 0 0)
(-0.873342 0 0)
(-0.878219 0 0)
(-0.882981 0 0)
(-0.887628 0 0)
(-0.892161 0 0)
(-0.896583 0 0)
(-0.900893 0 0)
(-0.905094 0 0)
(-0.909186 0 0)
(-0.913171 0 0)
(-0.917049 0 0)
(-0.920823 0 0)
(-0.924492 0 0)
(-0.928059 0 0)
(-0.931524 0 0)
(-0.934889 0 0)
(-0.938154 0 0)
(-0.941321 0 0)
(-0.944391 0 0)
(-0.947364 0 0)
(-0.950243 0 0)
(-0.953028 0 0)
(-0.95572 0 0)
(-0.95832 0 0)
(-0.96083 0 0)
(-0.963249 0 0)
(-0.96558 0 0)
(-0.967824 0 0)
(-0.96998 0 0)
(-0.972051 0 0)
(-0.974037 0 0)
(-0.97594 0 0)
(-0.977759 0 0)
(-0.979497 0 0)
(-0.981154 0 0)
(-0.98273 0 0)
(-0.984228 0 0)
(-0.985647 0 0)
(-0.986989 0 0)
(-0.988255 0 0)
(-0.989444 0 0)
(-0.99056 0 0)
(-0.991601 0 0)
(-0.992569 0 0)
(-0.993465 0 0)
(-0.994289 0 0)
(-0.995043 0 0)
(-0.995727 0 0)
(-0.996342 0 0)
(-0.996889 0 0)
(-0.997368 0 0)
(-0.99778 0 0)
(-0.998127 0 0)
(-0.998408 0 0)
(-0.998625 0 0)
(-0.998777 0 0)
(-0.998867 0 0)
(-0.998894 0 0)
(-0.998859 0 0)
(-0.998764 0 0)
(-0.998608 0 0)
(-0.998392 0 0)
(-0.998117 0 0)
(-0.997784 0 0)
(-0.997393 0 0)
(-0.996945 0 0)
(-0.99644 0 0)
(-0.995879 0 0)
(-0.995264 0 0)
(-0.994593 0 0)
(-0.993868 0 0)
(-0.99309 0 0)
(-0.992258 0 0)
(-0.991375 0 0)
(-0.990439 0 0)
(-0.989453 0 0)
(-0.988415 0 0)
(-0.987327 0 0)
(-0.98619 0 0)
(-0.985004 0 0)
(-0.983769 0 0)
(-0.982485 0 0)
(-0.981155 0 0)
(-0.979777 0 0)
(-0.978352 0 0)
(-0.976882 0 0)
(-0.975366 0 0)
(-0.973805 0 0)
(-0.972199 0 0)
(-0.970549 0 0)
(-0.968855 0 0)
(-0.967118 0 0)
(-0.965338 0 0)
(-0.963516 0 0)
(-0.961651 0 0)
(-0.959746 0 0)
(-0.957799 0 0)
(-0.955811 0 0)
(-0.953784 0 0)
(-0.951716 0 0)
(-0.949609 0 0)
(-0.947463 0 0)
(-0.945278 0 0)
(-0.943056 0 0)
(-0.940795 0 0)
(-0.938497 0 0)
(-0.936162 0 0)
(-0.93379 0 0)
(-0.931382 0 0)
(-0.928937 0 0)
(-0.926458 0 0)
(-0.923943 0 0)
(-0.921393 0 0)
(-0.918808 0 0)
(-0.91619 0 0)
(-0.913537 0 0)
(-0.910852 0 0)
(-0.908133 0 0)
(-0.905381 0 0)
(-0.902596 0 0)
(-0.89978 0 0)
(-0.896932 0 0)
(-0.894052 0 0)
(-0.891141 0 0)
(-0.888199 0 0)
(-0.885226 0 0)
(-0.882223 0 0)
(-0.87919 0 0)
(-0.876128 0 0)
(-0.873036 0 0)
(-0.869915 0 0)
(-0.866765 0 0)
(-0.863586 0 0)
(-0.86038 0 0)
(-0.857145 0 0)
(-0.853883 0 0)
(-0.850593 0 0)
(-0.847276 0 0)
(-0.843933 0 0)
(-0.840562 0 0)
(-0.837165 0 0)
(-0.833743 0 0)
(-0.830294 0 0)
(-0.82682 0 0)
(-0.823321 0 0)
(-0.819796 0 0)
(-0.816247 0 0)
(-0.812673 0 0)
(-0.809075 0 0)
(-0.805452 0 0)
(-0.801806 0 0)
(-0.798136 0 0)
(-0.794443 0 0)
(-0.790727 0 0)
(-0.786988 0 0)
(-0.783226 0 0)
(-0.779441 0 0)
(-0.775635 0 0)
(-0.771806 0 0)
(-0.767956 0 0)
(-0.764084 0 0)
(-0.76019 0 0)
(-0.756276 0 0)
(-0.752341 0 0)
(-0.748384 0 0)
(-0.744408 0 0)
(-0.740411 0 0)
(-0.736394 0 0)
(-0.732357 0 0)
(-0.7283 0 0)
(-0.724224 0 0)
(-0.720129 0 0)
(-0.716014 0 0)
(-0.711881 0 0)
(-0.707729 0 0)
(-0.703558 0 0)
(-0.699369 0 0)
(-0.695162 0 0)
(-0.690937 0 0)
(-0.686694 0 0)
(-0.682433 0 0)
(-0.678156 0 0)
(-0.67386 0 0)
(-0.669548 0 0)
(-0.665219 0 0)
(-0.660874 0 0)
(-0.656511 0 0)
(-0.652133 0 0)
(-0.647738 0 0)
(-0.643327 0 0)
(-0.638901 0 0)
(-0.634458 0 0)
(-0.630001 0 0)
(-0.625528 0 0)
(-0.62104 0 0)
(-0.616536 0 0)
(-0.612018 0 0)
(-0.607486 0 0)
(-0.602938 0 0)
(-0.598377 0 0)
(-0.593801 0 0)
(-0.589211 0 0)
(-0.584608 0 0)
(-0.57999 0 0)
(-0.575359 0 0)
(-0.570715 0 0)
(-0.566057 0 0)
(-0.561386 0 0)
(-0.556703 0 0)
(-0.552006 0 0)
(-0.547297 0 0)
(-0.542575 0 0)
(-0.537841 0 0)
(-0.533095 0 0)
(-0.528336 0 0)
(-0.523566 0 0)
(-0.518784 0 0)
(-0.51399 0 0)
(-0.509185 0 0)
(-0.504368 0 0)
(-0.49954 0 0)
(-0.494701 0 0)
(-0.489851 0 0)
(-0.484991 0 0)
(-0.480119 0 0)
(-0.475237 0 0)
(-0.470345 0 0)
(-0.465442 0 0)
(-0.460529 0 0)
(-0.455606 0 0)
(-0.450673 0 0)
(-0.445731 0 0)
(-0.440779 0 0)
(-0.435817 0 0)
(-0.430846 0 0)
(-0.425866 0 0)
(-0.420877 0 0)
(-0.415878 0 0)
(-0.410871 0 0)
(-0.405855 0 0)
(-0.400831 0 0)
(-0.395798 0 0)
(-0.390757 0 0)
(-0.385707 0 0)
(-0.380649 0 0)
(-0.375584 0 0)
(-0.37051 0 0)
(-0.365429 0 0)
(-0.36034 0 0)
(-0.355244 0 0)
(-0.35014 0 0)
(-0.345029 0 0)
(-0.339911 0 0)
(-0.334786 0 0)
(-0.329654 0 0)
(-0.324515 0 0)
(-0.31937 0 0)
(-0.314218 0 0)
(-0.309059 0 0)
(-0.303894 0 0)
(-0.298723 0 0)
(-0.293546 0 0)
(-0.288363 0 0)
(-0.283175 0 0)
(-0.27798 0 0)
(-0.27278 0 0)
(-0.267574 0 0)
(-0.262363 0 0)
(-0.257146 0 0)
(-0.251925 0 0)
(-0.246698 0 0)
(-0.241466 0 0)
(-0.23623 0 0)
(-0.230988 0 0)
(-0.225743 0 0)
(-0.220492 0 0)
(-0.215237 0 0)
(-0.209978 0 0)
(-0.204715 0 0)
(-0.199448 0 0)
(-0.194176 0 0)
(-0.188901 0 0)
(-0.183622 0 0)
(-0.17834 0 0)
(-0.173054 0 0)
(-0.167764 0 0)
(-0.162471 0 0)
(-0.157175 0 0)
(-0.151876 0 0)
(-0.146574 0 0)
(-0.141269 0 0)
(-0.135961 0 0)
(-0.130651 0 0)
(-0.125338 0 0)
(-0.120022 0 0)
(-0.114705 0 0)
(-0.109384 0 0)
(-0.104062 0 0)
(-0.0987379 0 0)
(-0.0934117 0 0)
(-0.0880837 0 0)
(-0.0827539 0 0)
(-0.0774225 0 0)
(-0.0720896 0 0)
(-0.0667553 0 0)
(-0.0614197 0 0)
(-0.0560828 0 0)
(-0.0507449 0 0)
(-0.045406 0 0)
(-0.0400662 0 0)
(-0.0347256 0 0)
(-0.0293844 0 0)
(-0.0240425 0 0)
(-0.0187002 0 0)
(-0.0133576 0 0)
(-0.00801465 0 0)
(-0.00267157 0 0)
)
;

boundaryField
{
    left
    {
        type            fixedValue;
        value           uniform (0 0 0);
    }
    right
    {
        type            fixedValue;
        value           uniform (0 0 0);
    }
    frontBackUpDown
    {
        type            empty;
    }
}


// ************************************************************************* //
