/*--------------------------------*- C++ -*----------------------------------*\
| =========                 |                                                 |
| \\      /  F ield         | OpenFOAM: The Open Source CFD Toolbox           |
|  \\    /   O peration     | Version:  2412                                  |
|   \\  /    A nd           | Website:  www.openfoam.com                      |
|    \\/     M anipulation  |                                                 |
\*---------------------------------------------------------------------------*/
FoamFile
{
    version     2.0;
    format      ascii;
    arch        "LSB;label=32;scalar=64";
    class       volVectorField;
    location    "0.15";
    object      U_0_0;
}
// * * * * * * * * * * * * * * * * * * * * * * * * * * * * * * * * * * * * * //

dimensions      [0 1 -1 0 0 0 0];

internalField   nonuniform List<vector> 
800
(
(0.00267437 0 0)
(0.00802316 0 0)
(0.0133718 0 0)
(0.0187202 0 0)
(0.0240682 0 0)
(0.0294158 0 0)
(0.0347627 0 0)
(0.040109 0 0)
(0.0454545 0 0)
(0.0507991 0 0)
(0.0561427 0 0)
(0.0614853 0 0)
(0.0668266 0 0)
(0.0721666 0 0)
(0.0775052 0 0)
(0.0828422 0 0)
(0.0881777 0 0)
(0.0935114 0 0)
(0.0988432 0 0)
(0.104173 0 0)
(0.109501 0 0)
(0.114827 0 0)
(0.12015 0 0)
(0.125471 0 0)
(0.13079 0 0)
(0.136106 0 0)
(0.141419 0 0)
(0.14673 0 0)
(0.152038 0 0)
(0.157342 0 0)
(0.162644 0 0)
(0.167942 0 0)
(0.173237 0 0)
(0.178529 0 0)
(0.183817 0 0)
(0.189101 0 0)
(0.194382 0 0)
(0.199658 0 0)
(0.204931 0 0)
(0.2102 0 0)
(0.215464 0 0)
(0.220724 0 0)
(0.22598 0 0)
(0.231231 0 0)
(0.236478 0 0)
(0.241719 0 0)
(0.246956 0 0)
(0.252188 0 0)
(0.257415 0 0)
(0.262637 0 0)
(0.267853 0 0)
(0.273064 0 0)
(0.278269 0 0)
(0.283469 0 0)
(0.288663 0 0)
(0.293851 0 0)
(0.299033 0 0)
(0.304209 0 0)
(0.309379 0 0)
(0.314542 0 0)
(0.319699 0 0)
(0.32485 0 0)
(0.329993 0 0)
(0.33513 0 0)
(0.34026 0 0)
(0.345383 0 0)
(0.350499 0 0)
(0.355607 0 0)
(0.360708 0 0)
(0.365802 0 0)
(0.370887 0 0)
(0.375965 0 0)
(0.381036 0 0)
(0.386098 0 0)
(0.391152 0 0)
(0.396198 0 0)
(0.401235 0 0)
(0.406264 0 0)
(0.411284 0 0)
(0.416295 0 0)
(0.421298 0 0)
(0.426292 0 0)
(0.431276 0 0)
(0.436251 0 0)
(0.441217 0 0)
(0.446173 0 0)
(0.45112 0 0)
(0.456056 0 0)
(0.460983 0 0)
(0.4659 0 0)
(0.470807 0 0)
(0.475703 0 0)
(0.480589 0 0)
(0.485464 0 0)
(0.490328 0 0)
(0.495182 0 0)
(0.500025 0 0)
(0.504856 0 0)
(0.509676 0 0)
(0.514485 0 0)
(0.519282 0 0)
(0.524068 0 0)
(0.528841 0 0)
(0.533603 0 0)
(0.538353 0 0)
(0.54309 0 0)
(0.547815 0 0)
(0.552527 0 0)
(0.557227 0 0)
(0.561913 0 0)
(0.566587 0 0)
(0.571247 0 0)
(0.575895 0 0)
(0.580528 0 0)
(0.585148 0 0)
(0.589755 0 0)
(0.594347 0 0)
(0.598925 0 0)
(0.603489 0 0)
(0.608039 0 0)
(0.612574 0 0)
(0.617094 0 0)
(0.6216 0 0)
(0.62609 0 0)
(0.630565 0 0)
(0.635025 0 0)
(0.639469 0 0)
(0.643898 0 0)
(0.64831 0 0)
(0.652707 0 0)
(0.657087 0 0)
(0.661451 0 0)
(0.665798 0 0)
(0.670129 0 0)
(0.674442 0 0)
(0.678739 0 0)
(0.683018 0 0)
(0.68728 0 0)
(0.691524 0 0)
(0.69575 0 0)
(0.699958 0 0)
(0.704148 0 0)
(0.70832 0 0)
(0.712473 0 0)
(0.716607 0 0)
(0.720722 0 0)
(0.724818 0 0)
(0.728895 0 0)
(0.732952 0 0)
(0.736989 0 0)
(0.741006 0 0)
(0.745004 0 0)
(0.74898 0 0)
(0.752936 0 0)
(0.756872 0 0)
(0.760786 0 0)
(0.764679 0 0)
(0.768551 0 0)
(0.772401 0 0)
(0.776229 0 0)
(0.780035 0 0)
(0.783819 0 0)
(0.78758 0 0)
(0.791318 0 0)
(0.795034 0 0)
(0.798726 0 0)
(0.802395 0 0)
(0.80604 0 0)
(0.809661 0 0)
(0.813258 0 0)
(0.81683 0 0)
(0.820378 0 0)
(0.823901 0 0)
(0.827399 0 0)
(0.830871 0 0)
(0.834318 0 0)
(0.837739 0 0)
(0.841133 0 0)
(0.844501 0 0)
(0.847843 0 0)
(0.851157 0 0)
(0.854444 0 0)
(0.857704 0 0)
(0.860936 0 0)
(0.86414 0 0)
(0.867315 0 0)
(0.870462 0 0)
(0.87358 0 0)
(0.876669 0 0)
(0.879728 0 0)
(0.882758 0 0)
(0.885757 0 0)
(0.888726 0 0)
(0.891664 0 0)
(0.894571 0 0)
(0.897447 0 0)
(0.900292 0 0)
(0.903104 0 0)
(0.905884 0 0)
(0.908631 0 0)
(0.911346 0 0)
(0.914027 0 0)
(0.916675 0 0)
(0.919288 0 0)
(0.921868 0 0)
(0.924413 0 0)
(0.926922 0 0)
(0.929397 0 0)
(0.931835 0 0)
(0.934238 0 0)
(0.936604 0 0)
(0.938934 0 0)
(0.941226 0 0)
(0.94348 0 0)
(0.945697 0 0)
(0.947875 0 0)
(0.950015 0 0)
(0.952115 0 0)
(0.954176 0 0)
(0.956197 0 0)
(0.958177 0 0)
(0.960117 0 0)
(0.962016 0 0)
(0.963873 0 0)
(0.965688 0 0)
(0.96746 0 0)
(0.969189 0 0)
(0.970875 0 0)
(0.972517 0 0)
(0.974115 0 0)
(0.975668 0 0)
(0.977176 0 0)
(0.978638 0 0)
(0.980053 0 0)
(0.981422 0 0)
(0.982744 0 0)
(0.984018 0 0)
(0.985244 0 0)
(0.986421 0 0)
(0.987549 0 0)
(0.988627 0 0)
(0.989655 0 0)
(0.990632 0 0)
(0.991557 0 0)
(0.992431 0 0)
(0.993252 0 0)
(0.99402 0 0)
(0.994734 0 0)
(0.995394 0 0)
(0.995999 0 0)
(0.996548 0 0)
(0.997042 0 0)
(0.997479 0 0)
(0.997859 0 0)
(0.99818 0 0)
(0.998443 0 0)
(0.998647 0 0)
(0.998791 0 0)
(0.998875 0 0)
(0.998897 0 0)
(0.998858 0 0)
(0.998756 0 0)
(0.99859 0 0)
(0.998361 0 0)
(0.998067 0 0)
(0.997708 0 0)
(0.997282 0 0)
(0.99679 0 0)
(0.996229 0 0)
(0.995601 0 0)
(0.994903 0 0)
(0.994136 0 0)
(0.993297 0 0)
(0.992387 0 0)
(0.991405 0 0)
(0.99035 0 0)
(0.98922 0 0)
(0.988016 0 0)
(0.986736 0 0)
(0.985379 0 0)
(0.983945 0 0)
(0.982433 0 0)
(0.980841 0 0)
(0.979169 0 0)
(0.977416 0 0)
(0.975581 0 0)
(0.973664 0 0)
(0.971662 0 0)
(0.969576 0 0)
(0.967403 0 0)
(0.965144 0 0)
(0.962798 0 0)
(0.960362 0 0)
(0.957837 0 0)
(0.955221 0 0)
(0.952513 0 0)
(0.949712 0 0)
(0.946817 0 0)
(0.943827 0 0)
(0.940741 0 0)
(0.937558 0 0)
(0.934276 0 0)
(0.930896 0 0)
(0.927414 0 0)
(0.923832 0 0)
(0.920146 0 0)
(0.916356 0 0)
(0.912462 0 0)
(0.908461 0 0)
(0.904353 0 0)
(0.900136 0 0)
(0.89581 0 0)
(0.891373 0 0)
(0.886823 0 0)
(0.882161 0 0)
(0.877384 0 0)
(0.872491 0 0)
(0.867482 0 0)
(0.862354 0 0)
(0.857107 0 0)
(0.85174 0 0)
(0.846251 0 0)
(0.840639 0 0)
(0.834902 0 0)
(0.829041 0 0)
(0.823053 0 0)
(0.816938 0 0)
(0.810694 0 0)
(0.804319 0 0)
(0.797814 0 0)
(0.791176 0 0)
(0.784405 0 0)
(0.7775 0 0)
(0.770459 0 0)
(0.763281 0 0)
(0.755966 0 0)
(0.748512 0 0)
(0.740918 0 0)
(0.733184 0 0)
(0.725309 0 0)
(0.717291 0 0)
(0.709129 0 0)
(0.700824 0 0)
(0.692374 0 0)
(0.683779 0 0)
(0.675038 0 0)
(0.66615 0 0)
(0.657115 0 0)
(0.647932 0 0)
(0.638601 0 0)
(0.629122 0 0)
(0.619494 0 0)
(0.609718 0 0)
(0.599792 0 0)
(0.589718 0 0)
(0.579495 0 0)
(0.569124 0 0)
(0.558605 0 0)
(0.547937 0 0)
(0.537123 0 0)
(0.526162 0 0)
(0.515055 0 0)
(0.503803 0 0)
(0.492407 0 0)
(0.480869 0 0)
(0.469188 0 0)
(0.457368 0 0)
(0.44541 0 0)
(0.433314 0 0)
(0.421084 0 0)
(0.408721 0 0)
(0.396227 0 0)
(0.383605 0 0)
(0.370857 0 0)
(0.357986 0 0)
(0.344995 0 0)
(0.331887 0 0)
(0.318664 0 0)
(0.305331 0 0)
(0.291891 0 0)
(0.278347 0 0)
(0.264704 0 0)
(0.250964 0 0)
(0.237134 0 0)
(0.223216 0 0)
(0.209215 0 0)
(0.195136 0 0)
(0.180984 0 0)
(0.166763 0 0)
(0.152479 0 0)
(0.138136 0 0)
(0.123741 0 0)
(0.109297 0 0)
(0.0948105 0 0)
(0.0802873 0 0)
(0.0657327 0 0)
(0.0511523 0 0)
(0.0365517 0 0)
(0.0219368 0 0)
(0.00731325 0 0)
(-0.00731319 0 0)
(-0.0219367 0 0)
(-0.0365517 0 0)
(-0.0511522 0 0)
(-0.0657325 0 0)
(-0.0802871 0 0)
(-0.0948103 0 0)
(-0.109297 0 0)
(-0.12374 0 0)
(-0.138136 0 0)
(-0.152479 0 0)
(-0.166763 0 0)
(-0.180983 0 0)
(-0.195136 0 0)
(-0.209214 0 0)
(-0.223215 0 0)
(-0.237133 0 0)
(-0.250963 0 0)
(-0.264702 0 0)
(-0.278346 0 0)
(-0.291889 0 0)
(-0.30533 0 0)
(-0.318663 0 0)
(-0.331885 0 0)
(-0.344993 0 0)
(-0.357984 0 0)
(-0.370855 0 0)
(-0.383603 0 0)
(-0.396225 0 0)
(-0.408718 0 0)
(-0.421081 0 0)
(-0.433311 0 0)
(-0.445407 0 0)
(-0.457365 0 0)
(-0.469185 0 0)
(-0.480865 0 0)
(-0.492404 0 0)
(-0.5038 0 0)
(-0.515052 0 0)
(-0.526158 0 0)
(-0.537119 0 0)
(-0.547934 0 0)
(-0.558601 0 0)
(-0.569121 0 0)
(-0.579492 0 0)
(-0.589715 0 0)
(-0.599789 0 0)
(-0.609714 0 0)
(-0.61949 0 0)
(-0.629118 0 0)
(-0.638597 0 0)
(-0.647928 0 0)
(-0.657111 0 0)
(-0.666146 0 0)
(-0.675034 0 0)
(-0.683775 0 0)
(-0.692371 0 0)
(-0.700821 0 0)
(-0.709126 0 0)
(-0.717287 0 0)
(-0.725305 0 0)
(-0.733181 0 0)
(-0.740915 0 0)
(-0.748508 0 0)
(-0.755962 0 0)
(-0.763278 0 0)
(-0.770455 0 0)
(-0.777497 0 0)
(-0.784402 0 0)
(-0.791173 0 0)
(-0.797811 0 0)
(-0.804316 0 0)
(-0.810691 0 0)
(-0.816935 0 0)
(-0.823051 0 0)
(-0.829038 0 0)
(-0.8349 0 0)
(-0.840636 0 0)
(-0.846248 0 0)
(-0.851737 0 0)
(-0.857105 0 0)
(-0.862352 0 0)
(-0.867479 0 0)
(-0.872489 0 0)
(-0.877382 0 0)
(-0.882159 0 0)
(-0.886822 0 0)
(-0.891371 0 0)
(-0.895808 0 0)
(-0.900135 0 0)
(-0.904351 0 0)
(-0.908459 0 0)
(-0.91246 0 0)
(-0.916355 0 0)
(-0.920145 0 0)
(-0.92383 0 0)
(-0.927413 0 0)
(-0.930894 0 0)
(-0.934275 0 0)
(-0.937557 0 0)
(-0.94074 0 0)
(-0.943826 0 0)
(-0.946816 0 0)
(-0.949711 0 0)
(-0.952512 0 0)
(-0.95522 0 0)
(-0.957836 0 0)
(-0.960361 0 0)
(-0.962797 0 0)
(-0.965144 0 0)
(-0.967403 0 0)
(-0.969575 0 0)
(-0.971662 0 0)
(-0.973663 0 0)
(-0.975581 0 0)
(-0.977416 0 0)
(-0.979169 0 0)
(-0.980841 0 0)
(-0.982432 0 0)
(-0.983945 0 0)
(-0.985379 0 0)
(-0.986735 0 0)
(-0.988016 0 0)
(-0.98922 0 0)
(-0.990349 0 0)
(-0.991405 0 0)
(-0.992387 0 0)
(-0.993297 0 0)
(-0.994136 0 0)
(-0.994903 0 0)
(-0.995601 0 0)
(-0.996229 0 0)
(-0.99679 0 0)
(-0.997282 0 0)
(-0.997708 0 0)
(-0.998067 0 0)
(-0.998361 0 0)
(-0.99859 0 0)
(-0.998756 0 0)
(-0.998858 0 0)
(-0.998897 0 0)
(-0.998875 0 0)
(-0.998791 0 0)
(-0.998647 0 0)
(-0.998443 0 0)
(-0.99818 0 0)
(-0.997859 0 0)
(-0.997479 0 0)
(-0.997042 0 0)
(-0.996548 0 0)
(-0.995999 0 0)
(-0.995394 0 0)
(-0.994734 0 0)
(-0.994019 0 0)
(-0.993252 0 0)
(-0.992431 0 0)
(-0.991557 0 0)
(-0.990632 0 0)
(-0.989655 0 0)
(-0.988627 0 0)
(-0.987549 0 0)
(-0.986421 0 0)
(-0.985244 0 0)
(-0.984018 0 0)
(-0.982744 0 0)
(-0.981422 0 0)
(-0.980053 0 0)
(-0.978637 0 0)
(-0.977175 0 0)
(-0.975668 0 0)
(-0.974115 0 0)
(-0.972517 0 0)
(-0.970875 0 0)
(-0.969189 0 0)
(-0.967459 0 0)
(-0.965687 0 0)
(-0.963872 0 0)
(-0.962015 0 0)
(-0.960117 0 0)
(-0.958177 0 0)
(-0.956196 0 0)
(-0.954176 0 0)
(-0.952115 0 0)
(-0.950014 0 0)
(-0.947875 0 0)
(-0.945696 0 0)
(-0.94348 0 0)
(-0.941225 0 0)
(-0.938933 0 0)
(-0.936603 0 0)
(-0.934237 0 0)
(-0.931835 0 0)
(-0.929396 0 0)
(-0.926922 0 0)
(-0.924412 0 0)
(-0.921867 0 0)
(-0.919288 0 0)
(-0.916674 0 0)
(-0.914026 0 0)
(-0.911345 0 0)
(-0.908631 0 0)
(-0.905883 0 0)
(-0.903103 0 0)
(-0.900291 0 0)
(-0.897446 0 0)
(-0.89457 0 0)
(-0.891663 0 0)
(-0.888725 0 0)
(-0.885756 0 0)
(-0.882757 0 0)
(-0.879727 0 0)
(-0.876668 0 0)
(-0.873579 0 0)
(-0.870461 0 0)
(-0.867314 0 0)
(-0.864139 0 0)
(-0.860935 0 0)
(-0.857703 0 0)
(-0.854443 0 0)
(-0.851156 0 0)
(-0.847842 0 0)
(-0.8445 0 0)
(-0.841132 0 0)
(-0.837737 0 0)
(-0.834317 0 0)
(-0.83087 0 0)
(-0.827398 0 0)
(-0.8239 0 0)
(-0.820377 0 0)
(-0.816829 0 0)
(-0.813257 0 0)
(-0.80966 0 0)
(-0.806039 0 0)
(-0.802393 0 0)
(-0.798725 0 0)
(-0.795033 0 0)
(-0.791317 0 0)
(-0.787579 0 0)
(-0.783818 0 0)
(-0.780034 0 0)
(-0.776228 0 0)
(-0.7724 0 0)
(-0.76855 0 0)
(-0.764678 0 0)
(-0.760785 0 0)
(-0.75687 0 0)
(-0.752935 0 0)
(-0.748979 0 0)
(-0.745002 0 0)
(-0.741005 0 0)
(-0.736988 0 0)
(-0.73295 0 0)
(-0.728893 0 0)
(-0.724817 0 0)
(-0.720721 0 0)
(-0.716606 0 0)
(-0.712471 0 0)
(-0.708318 0 0)
(-0.704147 0 0)
(-0.699957 0 0)
(-0.695749 0 0)
(-0.691523 0 0)
(-0.687278 0 0)
(-0.683017 0 0)
(-0.678738 0 0)
(-0.674441 0 0)
(-0.670128 0 0)
(-0.665797 0 0)
(-0.66145 0 0)
(-0.657086 0 0)
(-0.652706 0 0)
(-0.648309 0 0)
(-0.643896 0 0)
(-0.639468 0 0)
(-0.635024 0 0)
(-0.630564 0 0)
(-0.626089 0 0)
(-0.621599 0 0)
(-0.617093 0 0)
(-0.612573 0 0)
(-0.608038 0 0)
(-0.603488 0 0)
(-0.598924 0 0)
(-0.594346 0 0)
(-0.589754 0 0)
(-0.585147 0 0)
(-0.580527 0 0)
(-0.575893 0 0)
(-0.571246 0 0)
(-0.566586 0 0)
(-0.561912 0 0)
(-0.557226 0 0)
(-0.552526 0 0)
(-0.547814 0 0)
(-0.543089 0 0)
(-0.538352 0 0)
(-0.533602 0 0)
(-0.52884 0 0)
(-0.524067 0 0)
(-0.519281 0 0)
(-0.514484 0 0)
(-0.509675 0 0)
(-0.504855 0 0)
(-0.500024 0 0)
(-0.495181 0 0)
(-0.490327 0 0)
(-0.485463 0 0)
(-0.480588 0 0)
(-0.475702 0 0)
(-0.470806 0 0)
(-0.465899 0 0)
(-0.460982 0 0)
(-0.456056 0 0)
(-0.451119 0 0)
(-0.446172 0 0)
(-0.441216 0 0)
(-0.43625 0 0)
(-0.431275 0 0)
(-0.426291 0 0)
(-0.421297 0 0)
(-0.416295 0 0)
(-0.411283 0 0)
(-0.406263 0 0)
(-0.401234 0 0)
(-0.396197 0 0)
(-0.391151 0 0)
(-0.386097 0 0)
(-0.381035 0 0)
(-0.375965 0 0)
(-0.370887 0 0)
(-0.365801 0 0)
(-0.360708 0 0)
(-0.355607 0 0)
(-0.350498 0 0)
(-0.345382 0 0)
(-0.34026 0 0)
(-0.33513 0 0)
(-0.329993 0 0)
(-0.324849 0 0)
(-0.319699 0 0)
(-0.314542 0 0)
(-0.309379 0 0)
(-0.304209 0 0)
(-0.299033 0 0)
(-0.293851 0 0)
(-0.288663 0 0)
(-0.283469 0 0)
(-0.278269 0 0)
(-0.273064 0 0)
(-0.267853 0 0)
(-0.262636 0 0)
(-0.257415 0 0)
(-0.252188 0 0)
(-0.246956 0 0)
(-0.241719 0 0)
(-0.236477 0 0)
(-0.231231 0 0)
(-0.22598 0 0)
(-0.220724 0 0)
(-0.215464 0 0)
(-0.210199 0 0)
(-0.204931 0 0)
(-0.199658 0 0)
(-0.194381 0 0)
(-0.189101 0 0)
(-0.183816 0 0)
(-0.178528 0 0)
(-0.173237 0 0)
(-0.167942 0 0)
(-0.162644 0 0)
(-0.157342 0 0)
(-0.152037 0 0)
(-0.14673 0 0)
(-0.141419 0 0)
(-0.136106 0 0)
(-0.13079 0 0)
(-0.125471 0 0)
(-0.12015 0 0)
(-0.114827 0 0)
(-0.109501 0 0)
(-0.104173 0 0)
(-0.0988432 0 0)
(-0.0935113 0 0)
(-0.0881776 0 0)
(-0.0828422 0 0)
(-0.0775051 0 0)
(-0.0721666 0 0)
(-0.0668266 0 0)
(-0.0614853 0 0)
(-0.0561427 0 0)
(-0.0507991 0 0)
(-0.0454545 0 0)
(-0.040109 0 0)
(-0.0347627 0 0)
(-0.0294158 0 0)
(-0.0240682 0 0)
(-0.0187202 0 0)
(-0.0133719 0 0)
(-0.00802322 0 0)
(-0.00267442 0 0)
)
;

boundaryField
{
    left
    {
        type            fixedValue;
        value           uniform (0 0 0);
    }
    right
    {
        type            fixedValue;
        value           uniform (0 0 0);
    }
    frontBackUpDown
    {
        type            empty;
    }
}


// ************************************************************************* //
