/*--------------------------------*- C++ -*----------------------------------*\
| =========                 |                                                 |
| \\      /  F ield         | OpenFOAM: The Open Source CFD Toolbox           |
|  \\    /   O peration     | Version:  2412                                  |
|   \\  /    A nd           | Website:  www.openfoam.com                      |
|    \\/     M anipulation  |                                                 |
\*---------------------------------------------------------------------------*/
FoamFile
{
    version     2.0;
    format      ascii;
    arch        "LSB;label=32;scalar=64";
    class       volVectorField;
    location    "0.15";
    object      U_0_0_0;
}
// * * * * * * * * * * * * * * * * * * * * * * * * * * * * * * * * * * * * * //

dimensions      [0 1 -1 0 0 0 0];

internalField   nonuniform List<vector> 
800
(
(0.00267723 0 0)
(0.00803175 0 0)
(0.0133861 0 0)
(0.0187402 0 0)
(0.024094 0 0)
(0.0294472 0 0)
(0.0347999 0 0)
(0.0401519 0 0)
(0.0455031 0 0)
(0.0508535 0 0)
(0.0562028 0 0)
(0.061551 0 0)
(0.066898 0 0)
(0.0722437 0 0)
(0.077588 0 0)
(0.0829307 0 0)
(0.0882718 0 0)
(0.0936112 0 0)
(0.0989487 0 0)
(0.104284 0 0)
(0.109618 0 0)
(0.114949 0 0)
(0.120278 0 0)
(0.125605 0 0)
(0.130929 0 0)
(0.136251 0 0)
(0.14157 0 0)
(0.146886 0 0)
(0.152199 0 0)
(0.157509 0 0)
(0.162816 0 0)
(0.16812 0 0)
(0.173421 0 0)
(0.178718 0 0)
(0.184011 0 0)
(0.189301 0 0)
(0.194587 0 0)
(0.199869 0 0)
(0.205147 0 0)
(0.210421 0 0)
(0.215691 0 0)
(0.220956 0 0)
(0.226218 0 0)
(0.231474 0 0)
(0.236726 0 0)
(0.241973 0 0)
(0.247215 0 0)
(0.252452 0 0)
(0.257684 0 0)
(0.262911 0 0)
(0.268133 0 0)
(0.273349 0 0)
(0.278559 0 0)
(0.283764 0 0)
(0.288963 0 0)
(0.294156 0 0)
(0.299343 0 0)
(0.304524 0 0)
(0.309699 0 0)
(0.314867 0 0)
(0.320029 0 0)
(0.325184 0 0)
(0.330333 0 0)
(0.335474 0 0)
(0.340609 0 0)
(0.345737 0 0)
(0.350857 0 0)
(0.35597 0 0)
(0.361076 0 0)
(0.366174 0 0)
(0.371265 0 0)
(0.376347 0 0)
(0.381422 0 0)
(0.386489 0 0)
(0.391547 0 0)
(0.396597 0 0)
(0.401639 0 0)
(0.406672 0 0)
(0.411697 0 0)
(0.416713 0 0)
(0.42172 0 0)
(0.426717 0 0)
(0.431706 0 0)
(0.436685 0 0)
(0.441655 0 0)
(0.446615 0 0)
(0.451566 0 0)
(0.456507 0 0)
(0.461437 0 0)
(0.466358 0 0)
(0.471269 0 0)
(0.476169 0 0)
(0.481058 0 0)
(0.485937 0 0)
(0.490805 0 0)
(0.495663 0 0)
(0.500509 0 0)
(0.505344 0 0)
(0.510168 0 0)
(0.51498 0 0)
(0.51978 0 0)
(0.524569 0 0)
(0.529346 0 0)
(0.534111 0 0)
(0.538864 0 0)
(0.543604 0 0)
(0.548332 0 0)
(0.553048 0 0)
(0.55775 0 0)
(0.56244 0 0)
(0.567116 0 0)
(0.57178 0 0)
(0.57643 0 0)
(0.581066 0 0)
(0.585689 0 0)
(0.590298 0 0)
(0.594893 0 0)
(0.599473 0 0)
(0.60404 0 0)
(0.608592 0 0)
(0.613129 0 0)
(0.617652 0 0)
(0.62216 0 0)
(0.626652 0 0)
(0.631129 0 0)
(0.635591 0 0)
(0.640037 0 0)
(0.644468 0 0)
(0.648882 0 0)
(0.65328 0 0)
(0.657662 0 0)
(0.662028 0 0)
(0.666377 0 0)
(0.670709 0 0)
(0.675024 0 0)
(0.679322 0 0)
(0.683602 0 0)
(0.687865 0 0)
(0.69211 0 0)
(0.696338 0 0)
(0.700547 0 0)
(0.704738 0 0)
(0.70891 0 0)
(0.713064 0 0)
(0.717199 0 0)
(0.721315 0 0)
(0.725411 0 0)
(0.729488 0 0)
(0.733546 0 0)
(0.737583 0 0)
(0.741601 0 0)
(0.745598 0 0)
(0.749575 0 0)
(0.753531 0 0)
(0.757467 0 0)
(0.761381 0 0)
(0.765274 0 0)
(0.769145 0 0)
(0.772995 0 0)
(0.776823 0 0)
(0.780628 0 0)
(0.784411 0 0)
(0.788172 0 0)
(0.791909 0 0)
(0.795624 0 0)
(0.799315 0 0)
(0.802983 0 0)
(0.806626 0 0)
(0.810246 0 0)
(0.813842 0 0)
(0.817413 0 0)
(0.820959 0 0)
(0.82448 0 0)
(0.827976 0 0)
(0.831447 0 0)
(0.834892 0 0)
(0.83831 0 0)
(0.841703 0 0)
(0.845069 0 0)
(0.848408 0 0)
(0.85172 0 0)
(0.855005 0 0)
(0.858262 0 0)
(0.861491 0 0)
(0.864692 0 0)
(0.867865 0 0)
(0.871009 0 0)
(0.874123 0 0)
(0.877209 0 0)
(0.880265 0 0)
(0.883291 0 0)
(0.886287 0 0)
(0.889252 0 0)
(0.892186 0 0)
(0.89509 0 0)
(0.897962 0 0)
(0.900802 0 0)
(0.90361 0 0)
(0.906386 0 0)
(0.909129 0 0)
(0.911839 0 0)
(0.914515 0 0)
(0.917158 0 0)
(0.919767 0 0)
(0.922341 0 0)
(0.924881 0 0)
(0.927385 0 0)
(0.929855 0 0)
(0.932288 0 0)
(0.934685 0 0)
(0.937045 0 0)
(0.939369 0 0)
(0.941655 0 0)
(0.943903 0 0)
(0.946114 0 0)
(0.948286 0 0)
(0.950419 0 0)
(0.952513 0 0)
(0.954567 0 0)
(0.956581 0 0)
(0.958555 0 0)
(0.960487 0 0)
(0.962378 0 0)
(0.964228 0 0)
(0.966035 0 0)
(0.9678 0 0)
(0.969522 0 0)
(0.9712 0 0)
(0.972834 0 0)
(0.974423 0 0)
(0.975968 0 0)
(0.977467 0 0)
(0.978921 0 0)
(0.980328 0 0)
(0.981688 0 0)
(0.983001 0 0)
(0.984266 0 0)
(0.985482 0 0)
(0.98665 0 0)
(0.987769 0 0)
(0.988837 0 0)
(0.989855 0 0)
(0.990822 0 0)
(0.991737 0 0)
(0.992601 0 0)
(0.993411 0 0)
(0.994169 0 0)
(0.994872 0 0)
(0.995522 0 0)
(0.996116 0 0)
(0.996654 0 0)
(0.997137 0 0)
(0.997563 0 0)
(0.997931 0 0)
(0.998241 0 0)
(0.998492 0 0)
(0.998684 0 0)
(0.998817 0 0)
(0.998888 0 0)
(0.998898 0 0)
(0.998846 0 0)
(0.998732 0 0)
(0.998554 0 0)
(0.998311 0 0)
(0.998005 0 0)
(0.997632 0 0)
(0.997193 0 0)
(0.996688 0 0)
(0.996114 0 0)
(0.995472 0 0)
(0.994761 0 0)
(0.993979 0 0)
(0.993127 0 0)
(0.992203 0 0)
(0.991207 0 0)
(0.990137 0 0)
(0.988993 0 0)
(0.987774 0 0)
(0.986479 0 0)
(0.985108 0 0)
(0.983659 0 0)
(0.982132 0 0)
(0.980525 0 0)
(0.978838 0 0)
(0.97707 0 0)
(0.97522 0 0)
(0.973287 0 0)
(0.971269 0 0)
(0.969167 0 0)
(0.96698 0 0)
(0.964705 0 0)
(0.962342 0 0)
(0.959891 0 0)
(0.95735 0 0)
(0.954717 0 0)
(0.951993 0 0)
(0.949176 0 0)
(0.946266 0 0)
(0.94326 0 0)
(0.940157 0 0)
(0.936958 0 0)
(0.933661 0 0)
(0.930264 0 0)
(0.926766 0 0)
(0.923167 0 0)
(0.919465 0 0)
(0.91566 0 0)
(0.911749 0 0)
(0.907732 0 0)
(0.903608 0 0)
(0.899375 0 0)
(0.895033 0 0)
(0.89058 0 0)
(0.886015 0 0)
(0.881337 0 0)
(0.876545 0 0)
(0.871636 0 0)
(0.866612 0 0)
(0.861469 0 0)
(0.856207 0 0)
(0.850825 0 0)
(0.845321 0 0)
(0.839695 0 0)
(0.833945 0 0)
(0.82807 0 0)
(0.822068 0 0)
(0.81594 0 0)
(0.809682 0 0)
(0.803295 0 0)
(0.796778 0 0)
(0.790128 0 0)
(0.783345 0 0)
(0.776428 0 0)
(0.769376 0 0)
(0.762188 0 0)
(0.754863 0 0)
(0.7474 0 0)
(0.739797 0 0)
(0.732054 0 0)
(0.724171 0 0)
(0.716145 0 0)
(0.707977 0 0)
(0.699666 0 0)
(0.69121 0 0)
(0.68261 0 0)
(0.673864 0 0)
(0.664972 0 0)
(0.655934 0 0)
(0.646749 0 0)
(0.637417 0 0)
(0.627937 0 0)
(0.618309 0 0)
(0.608534 0 0)
(0.59861 0 0)
(0.588539 0 0)
(0.57832 0 0)
(0.567953 0 0)
(0.557439 0 0)
(0.546778 0 0)
(0.535971 0 0)
(0.525019 0 0)
(0.513921 0 0)
(0.50268 0 0)
(0.491296 0 0)
(0.47977 0 0)
(0.468104 0 0)
(0.456299 0 0)
(0.444356 0 0)
(0.432278 0 0)
(0.420066 0 0)
(0.407722 0 0)
(0.395249 0 0)
(0.382649 0 0)
(0.369924 0 0)
(0.357077 0 0)
(0.344111 0 0)
(0.331028 0 0)
(0.317833 0 0)
(0.304528 0 0)
(0.291118 0 0)
(0.277604 0 0)
(0.263992 0 0)
(0.250285 0 0)
(0.236488 0 0)
(0.222604 0 0)
(0.208639 0 0)
(0.194596 0 0)
(0.18048 0 0)
(0.166297 0 0)
(0.152051 0 0)
(0.137747 0 0)
(0.123391 0 0)
(0.108987 0 0)
(0.0945408 0 0)
(0.0800584 0 0)
(0.0655449 0 0)
(0.0510059 0 0)
(0.036447 0 0)
(0.0218739 0 0)
(0.00729228 0 0)
(-0.00729222 0 0)
(-0.0218739 0 0)
(-0.0364469 0 0)
(-0.0510058 0 0)
(-0.0655447 0 0)
(-0.0800582 0 0)
(-0.0945406 0 0)
(-0.108986 0 0)
(-0.12339 0 0)
(-0.137747 0 0)
(-0.15205 0 0)
(-0.166296 0 0)
(-0.18048 0 0)
(-0.194595 0 0)
(-0.208638 0 0)
(-0.222603 0 0)
(-0.236487 0 0)
(-0.250284 0 0)
(-0.263991 0 0)
(-0.277603 0 0)
(-0.291116 0 0)
(-0.304527 0 0)
(-0.317832 0 0)
(-0.331027 0 0)
(-0.344109 0 0)
(-0.357075 0 0)
(-0.369921 0 0)
(-0.382646 0 0)
(-0.395247 0 0)
(-0.40772 0 0)
(-0.420063 0 0)
(-0.432275 0 0)
(-0.444353 0 0)
(-0.456296 0 0)
(-0.468101 0 0)
(-0.479767 0 0)
(-0.491293 0 0)
(-0.502677 0 0)
(-0.513918 0 0)
(-0.525015 0 0)
(-0.535968 0 0)
(-0.546775 0 0)
(-0.557436 0 0)
(-0.56795 0 0)
(-0.578316 0 0)
(-0.588535 0 0)
(-0.598607 0 0)
(-0.60853 0 0)
(-0.618306 0 0)
(-0.627933 0 0)
(-0.637413 0 0)
(-0.646745 0 0)
(-0.65593 0 0)
(-0.664968 0 0)
(-0.67386 0 0)
(-0.682606 0 0)
(-0.691206 0 0)
(-0.699662 0 0)
(-0.707973 0 0)
(-0.716141 0 0)
(-0.724167 0 0)
(-0.732051 0 0)
(-0.739793 0 0)
(-0.747396 0 0)
(-0.75486 0 0)
(-0.762185 0 0)
(-0.769373 0 0)
(-0.776425 0 0)
(-0.783342 0 0)
(-0.790125 0 0)
(-0.796775 0 0)
(-0.803292 0 0)
(-0.809679 0 0)
(-0.815937 0 0)
(-0.822066 0 0)
(-0.828067 0 0)
(-0.833942 0 0)
(-0.839693 0 0)
(-0.845319 0 0)
(-0.850823 0 0)
(-0.856205 0 0)
(-0.861467 0 0)
(-0.866609 0 0)
(-0.871634 0 0)
(-0.876542 0 0)
(-0.881335 0 0)
(-0.886013 0 0)
(-0.890578 0 0)
(-0.895031 0 0)
(-0.899374 0 0)
(-0.903606 0 0)
(-0.907731 0 0)
(-0.911747 0 0)
(-0.915658 0 0)
(-0.919464 0 0)
(-0.923166 0 0)
(-0.926765 0 0)
(-0.930262 0 0)
(-0.933659 0 0)
(-0.936957 0 0)
(-0.940156 0 0)
(-0.943259 0 0)
(-0.946265 0 0)
(-0.949176 0 0)
(-0.951993 0 0)
(-0.954717 0 0)
(-0.957349 0 0)
(-0.95989 0 0)
(-0.962342 0 0)
(-0.964704 0 0)
(-0.966979 0 0)
(-0.969167 0 0)
(-0.971269 0 0)
(-0.973286 0 0)
(-0.975219 0 0)
(-0.97707 0 0)
(-0.978838 0 0)
(-0.980525 0 0)
(-0.982131 0 0)
(-0.983659 0 0)
(-0.985108 0 0)
(-0.986479 0 0)
(-0.987774 0 0)
(-0.988993 0 0)
(-0.990137 0 0)
(-0.991206 0 0)
(-0.992203 0 0)
(-0.993127 0 0)
(-0.993979 0 0)
(-0.994761 0 0)
(-0.995472 0 0)
(-0.996114 0 0)
(-0.996688 0 0)
(-0.997193 0 0)
(-0.997632 0 0)
(-0.998005 0 0)
(-0.998311 0 0)
(-0.998554 0 0)
(-0.998732 0 0)
(-0.998846 0 0)
(-0.998898 0 0)
(-0.998888 0 0)
(-0.998817 0 0)
(-0.998684 0 0)
(-0.998492 0 0)
(-0.998241 0 0)
(-0.997931 0 0)
(-0.997563 0 0)
(-0.997137 0 0)
(-0.996654 0 0)
(-0.996116 0 0)
(-0.995522 0 0)
(-0.994872 0 0)
(-0.994169 0 0)
(-0.993411 0 0)
(-0.992601 0 0)
(-0.991737 0 0)
(-0.990822 0 0)
(-0.989855 0 0)
(-0.988837 0 0)
(-0.987768 0 0)
(-0.98665 0 0)
(-0.985482 0 0)
(-0.984266 0 0)
(-0.983001 0 0)
(-0.981688 0 0)
(-0.980328 0 0)
(-0.978921 0 0)
(-0.977467 0 0)
(-0.975968 0 0)
(-0.974423 0 0)
(-0.972833 0 0)
(-0.971199 0 0)
(-0.969521 0 0)
(-0.9678 0 0)
(-0.966035 0 0)
(-0.964228 0 0)
(-0.962378 0 0)
(-0.960487 0 0)
(-0.958554 0 0)
(-0.95658 0 0)
(-0.954566 0 0)
(-0.952512 0 0)
(-0.950418 0 0)
(-0.948285 0 0)
(-0.946113 0 0)
(-0.943903 0 0)
(-0.941654 0 0)
(-0.939368 0 0)
(-0.937045 0 0)
(-0.934684 0 0)
(-0.932287 0 0)
(-0.929854 0 0)
(-0.927385 0 0)
(-0.92488 0 0)
(-0.922341 0 0)
(-0.919766 0 0)
(-0.917157 0 0)
(-0.914515 0 0)
(-0.911838 0 0)
(-0.909128 0 0)
(-0.906385 0 0)
(-0.903609 0 0)
(-0.900801 0 0)
(-0.897961 0 0)
(-0.895089 0 0)
(-0.892186 0 0)
(-0.889251 0 0)
(-0.886286 0 0)
(-0.88329 0 0)
(-0.880264 0 0)
(-0.877208 0 0)
(-0.874122 0 0)
(-0.871008 0 0)
(-0.867864 0 0)
(-0.864691 0 0)
(-0.86149 0 0)
(-0.858261 0 0)
(-0.855004 0 0)
(-0.851719 0 0)
(-0.848407 0 0)
(-0.845068 0 0)
(-0.841702 0 0)
(-0.838309 0 0)
(-0.83489 0 0)
(-0.831446 0 0)
(-0.827975 0 0)
(-0.824479 0 0)
(-0.820958 0 0)
(-0.817412 0 0)
(-0.81384 0 0)
(-0.810245 0 0)
(-0.806625 0 0)
(-0.802981 0 0)
(-0.799314 0 0)
(-0.795622 0 0)
(-0.791908 0 0)
(-0.78817 0 0)
(-0.78441 0 0)
(-0.780627 0 0)
(-0.776821 0 0)
(-0.772994 0 0)
(-0.769144 0 0)
(-0.765273 0 0)
(-0.76138 0 0)
(-0.757465 0 0)
(-0.75353 0 0)
(-0.749574 0 0)
(-0.745597 0 0)
(-0.7416 0 0)
(-0.737582 0 0)
(-0.733545 0 0)
(-0.729487 0 0)
(-0.72541 0 0)
(-0.721313 0 0)
(-0.717197 0 0)
(-0.713063 0 0)
(-0.708909 0 0)
(-0.704736 0 0)
(-0.700545 0 0)
(-0.696336 0 0)
(-0.692109 0 0)
(-0.687864 0 0)
(-0.683601 0 0)
(-0.67932 0 0)
(-0.675022 0 0)
(-0.670707 0 0)
(-0.666375 0 0)
(-0.662027 0 0)
(-0.657661 0 0)
(-0.653279 0 0)
(-0.648881 0 0)
(-0.644466 0 0)
(-0.640036 0 0)
(-0.63559 0 0)
(-0.631128 0 0)
(-0.626651 0 0)
(-0.622158 0 0)
(-0.617651 0 0)
(-0.613128 0 0)
(-0.608591 0 0)
(-0.604039 0 0)
(-0.599472 0 0)
(-0.594892 0 0)
(-0.590297 0 0)
(-0.585688 0 0)
(-0.581065 0 0)
(-0.576429 0 0)
(-0.571779 0 0)
(-0.567115 0 0)
(-0.562439 0 0)
(-0.557749 0 0)
(-0.553047 0 0)
(-0.548331 0 0)
(-0.543603 0 0)
(-0.538863 0 0)
(-0.53411 0 0)
(-0.529345 0 0)
(-0.524568 0 0)
(-0.519779 0 0)
(-0.514979 0 0)
(-0.510167 0 0)
(-0.505343 0 0)
(-0.500508 0 0)
(-0.495662 0 0)
(-0.490804 0 0)
(-0.485936 0 0)
(-0.481057 0 0)
(-0.476168 0 0)
(-0.471268 0 0)
(-0.466357 0 0)
(-0.461437 0 0)
(-0.456506 0 0)
(-0.451565 0 0)
(-0.446615 0 0)
(-0.441654 0 0)
(-0.436684 0 0)
(-0.431705 0 0)
(-0.426717 0 0)
(-0.421719 0 0)
(-0.416712 0 0)
(-0.411696 0 0)
(-0.406672 0 0)
(-0.401639 0 0)
(-0.396597 0 0)
(-0.391547 0 0)
(-0.386488 0 0)
(-0.381421 0 0)
(-0.376347 0 0)
(-0.371264 0 0)
(-0.366174 0 0)
(-0.361076 0 0)
(-0.35597 0 0)
(-0.350857 0 0)
(-0.345736 0 0)
(-0.340609 0 0)
(-0.335474 0 0)
(-0.330332 0 0)
(-0.325184 0 0)
(-0.320029 0 0)
(-0.314867 0 0)
(-0.309698 0 0)
(-0.304524 0 0)
(-0.299343 0 0)
(-0.294156 0 0)
(-0.288963 0 0)
(-0.283764 0 0)
(-0.278559 0 0)
(-0.273348 0 0)
(-0.268132 0 0)
(-0.262911 0 0)
(-0.257684 0 0)
(-0.252452 0 0)
(-0.247215 0 0)
(-0.241973 0 0)
(-0.236726 0 0)
(-0.231474 0 0)
(-0.226217 0 0)
(-0.220956 0 0)
(-0.215691 0 0)
(-0.210421 0 0)
(-0.205147 0 0)
(-0.199869 0 0)
(-0.194587 0 0)
(-0.189301 0 0)
(-0.184011 0 0)
(-0.178717 0 0)
(-0.17342 0 0)
(-0.16812 0 0)
(-0.162816 0 0)
(-0.157509 0 0)
(-0.152199 0 0)
(-0.146886 0 0)
(-0.14157 0 0)
(-0.136251 0 0)
(-0.130929 0 0)
(-0.125605 0 0)
(-0.120278 0 0)
(-0.114949 0 0)
(-0.109618 0 0)
(-0.104284 0 0)
(-0.0989486 0 0)
(-0.0936111 0 0)
(-0.0882718 0 0)
(-0.0829307 0 0)
(-0.0775879 0 0)
(-0.0722437 0 0)
(-0.066898 0 0)
(-0.061551 0 0)
(-0.0562028 0 0)
(-0.0508535 0 0)
(-0.0455032 0 0)
(-0.0401519 0 0)
(-0.0348 0 0)
(-0.0294473 0 0)
(-0.024094 0 0)
(-0.0187403 0 0)
(-0.0133862 0 0)
(-0.00803181 0 0)
(-0.00267729 0 0)
)
;

boundaryField
{
    left
    {
        type            fixedValue;
        value           uniform (0 0 0);
    }
    right
    {
        type            fixedValue;
        value           uniform (0 0 0);
    }
    frontBackUpDown
    {
        type            empty;
    }
}


// ************************************************************************* //
