/*--------------------------------*- C++ -*----------------------------------*\
| =========                 |                                                 |
| \\      /  F ield         | OpenFOAM: The Open Source CFD Toolbox           |
|  \\    /   O peration     | Version:  2412                                  |
|   \\  /    A nd           | Website:  www.openfoam.com                      |
|    \\/     M anipulation  |                                                 |
\*---------------------------------------------------------------------------*/
FoamFile
{
    version     2.0;
    format      ascii;
    arch        "LSB;label=32;scalar=64";
    class       surfaceScalarField;
    location    "1";
    object      phi;
}
// * * * * * * * * * * * * * * * * * * * * * * * * * * * * * * * * * * * * * //

dimensions      [0 3 -1 0 0 0 0];

oriented        oriented;

internalField   nonuniform List<scalar> 
799
(
1.89835e-05
3.79671e-05
5.69506e-05
7.59341e-05
9.49175e-05
0.000113901
0.000132884
0.000151867
0.00017085
0.000189833
0.000208816
0.000227798
0.00024678
0.000265762
0.000284744
0.000303726
0.000322707
0.000341688
0.000360669
0.000379649
0.000398629
0.000417609
0.000436588
0.000455567
0.000474545
0.000493524
0.000512501
0.000531478
0.000550455
0.000569431
0.000588407
0.000607382
0.000626357
0.000645331
0.000664304
0.000683277
0.000702249
0.000721221
0.000740192
0.000759162
0.000778132
0.000797101
0.000816069
0.000835037
0.000854003
0.000872969
0.000891934
0.000910899
0.000929862
0.000948825
0.000967787
0.000986748
0.00100571
0.00102467
0.00104363
0.00106258
0.00108154
0.00110049
0.00111945
0.0011384
0.00115735
0.00117631
0.00119526
0.0012142
0.00123315
0.0012521
0.00127105
0.00128999
0.00130893
0.00132788
0.00134682
0.00136576
0.0013847
0.00140363
0.00142257
0.0014415
0.00146044
0.00147937
0.0014983
0.00151723
0.00153616
0.00155508
0.00157401
0.00159293
0.00161185
0.00163077
0.00164969
0.00166861
0.00168753
0.00170644
0.00172536
0.00174427
0.00176318
0.00178208
0.00180099
0.0018199
0.0018388
0.0018577
0.0018766
0.0018955
0.00191439
0.00193329
0.00195218
0.00197107
0.00198996
0.00200885
0.00202773
0.00204662
0.0020655
0.00208438
0.00210325
0.00212213
0.002141
0.00215988
0.00217874
0.00219761
0.00221648
0.00223534
0.0022542
0.00227306
0.00229192
0.00231077
0.00232962
0.00234848
0.00236732
0.00238617
0.00240501
0.00242385
0.00244269
0.00246153
0.00248036
0.00249919
0.00251802
0.00253685
0.00255568
0.0025745
0.00259332
0.00261213
0.00263095
0.00264976
0.00266857
0.00268738
0.00270618
0.00272498
0.00274378
0.00276258
0.00278137
0.00280016
0.00281895
0.00283774
0.00285652
0.0028753
0.00289408
0.00291285
0.00293162
0.00295039
0.00296915
0.00298792
0.00300668
0.00302543
0.00304419
0.00306294
0.00308168
0.00310043
0.00311917
0.00313791
0.00315664
0.00317538
0.0031941
0.00321283
0.00323155
0.00325027
0.00326899
0.0032877
0.00330641
0.00332511
0.00334381
0.00336251
0.00338121
0.0033999
0.00341859
0.00343727
0.00345596
0.00347463
0.00349331
0.00351198
0.00353065
0.00354931
0.00356797
0.00358662
0.00360528
0.00362392
0.00364257
0.00366121
0.00367985
0.00369848
0.00371711
0.00373574
0.00375436
0.00377297
0.00379159
0.0038102
0.0038288
0.0038474
0.003866
0.00388459
0.00390318
0.00392177
0.00394035
0.00395892
0.0039775
0.00399606
0.00401463
0.00403319
0.00405174
0.00407029
0.00408884
0.00410738
0.00412591
0.00414445
0.00416297
0.0041815
0.00420002
0.00421853
0.00423704
0.00425554
0.00427404
0.00429254
0.00431103
0.00432951
0.00434799
0.00436647
0.00438494
0.00440341
0.00442187
0.00444032
0.00445877
0.00447722
0.00449566
0.00451409
0.00453252
0.00455095
0.00456937
0.00458778
0.00460619
0.00462459
0.00464299
0.00466138
0.00467977
0.00469815
0.00471653
0.0047349
0.00475327
0.00477162
0.00478998
0.00480833
0.00482667
0.00484501
0.00486334
0.00488166
0.00489998
0.00491829
0.0049366
0.0049549
0.0049732
0.00499148
0.00500977
0.00502804
0.00504631
0.00506458
0.00508284
0.00510109
0.00511933
0.00513757
0.00515581
0.00517403
0.00519225
0.00521046
0.00522867
0.00524687
0.00526506
0.00528325
0.00530143
0.0053196
0.00533777
0.00535593
0.00537408
0.00539222
0.00541036
0.00542849
0.00544662
0.00546473
0.00548284
0.00550094
0.00551904
0.00553713
0.00555521
0.00557328
0.00559134
0.0056094
0.00562745
0.0056455
0.00566353
0.00568156
0.00569958
0.00571759
0.00573559
0.00575359
0.00577157
0.00578955
0.00580753
0.00582549
0.00584344
0.00586139
0.00587933
0.00589726
0.00591518
0.00593309
0.005951
0.0059689
0.00598678
0.00600466
0.00602253
0.00604039
0.00605825
0.00607609
0.00609392
0.00611175
0.00612957
0.00614737
0.00616517
0.00618296
0.00620074
0.00621851
0.00623627
0.00625402
0.00627176
0.00628949
0.00630721
0.00632493
0.00634263
0.00636032
0.006378
0.00639568
0.00641334
0.00643099
0.00644863
0.00646626
0.00648388
0.00650149
0.00651909
0.00653668
0.00655426
0.00657183
0.00658939
0.00660693
0.00662447
0.00664199
0.0066595
0.006677
0.00669449
0.00671197
0.00672944
0.00674689
0.00676434
0.00678177
0.00679919
0.0068166
0.00683399
0.00685138
0.00686875
0.00688611
0.00690346
0.00692079
0.00693812
0.00695542
0.00697272
0.00699001
0.00700728
0.00702454
0.00704178
0.00705901
0.00707623
0.00709344
0.00711063
0.00712781
0.00714497
0.00716212
0.00717926
0.00719638
0.00721349
0.00723058
0.00724766
0.00726473
0.00728176
0.00729826
0.00730306
0.00707886
0.00512651
5.90032e-06
-0.00511932
-0.00707748
-0.00730295
-0.00729823
-0.00728173
-0.00726471
-0.00724764
-0.00723056
-0.00721347
-0.00719636
-0.00717924
-0.0071621
-0.00714495
-0.00712778
-0.00711061
-0.00709341
-0.00707621
-0.00705899
-0.00704176
-0.00702451
-0.00700726
-0.00698998
-0.0069727
-0.0069554
-0.00693809
-0.00692077
-0.00690344
-0.00688609
-0.00686873
-0.00685136
-0.00683397
-0.00681658
-0.00679917
-0.00678175
-0.00676432
-0.00674687
-0.00672942
-0.00671195
-0.00669447
-0.00667698
-0.00665948
-0.00664197
-0.00662444
-0.00660691
-0.00658936
-0.00657181
-0.00655424
-0.00653666
-0.00651907
-0.00650147
-0.00648386
-0.00646624
-0.00644861
-0.00643097
-0.00641332
-0.00639566
-0.00637798
-0.0063603
-0.00634261
-0.00632491
-0.0063072
-0.00628947
-0.00627174
-0.006254
-0.00623625
-0.00621849
-0.00620072
-0.00618294
-0.00616515
-0.00614735
-0.00612955
-0.00611173
-0.00609391
-0.00607607
-0.00605823
-0.00604037
-0.00602251
-0.00600464
-0.00598676
-0.00596888
-0.00595098
-0.00593308
-0.00591516
-0.00589724
-0.00587931
-0.00586137
-0.00584343
-0.00582547
-0.00580751
-0.00578954
-0.00577156
-0.00575357
-0.00573557
-0.00571757
-0.00569956
-0.00568154
-0.00566351
-0.00564548
-0.00562744
-0.00560939
-0.00559133
-0.00557326
-0.00555519
-0.00553711
-0.00551902
-0.00550093
-0.00548283
-0.00546472
-0.0054466
-0.00542848
-0.00541035
-0.00539221
-0.00537406
-0.00535591
-0.00533775
-0.00531959
-0.00530141
-0.00528323
-0.00526505
-0.00524686
-0.00522866
-0.00521045
-0.00519224
-0.00517402
-0.00515579
-0.00513756
-0.00511932
-0.00510107
-0.00508282
-0.00506457
-0.0050463
-0.00502803
-0.00500975
-0.00499147
-0.00497318
-0.00495489
-0.00493659
-0.00491828
-0.00489997
-0.00488165
-0.00486332
-0.00484499
-0.00482666
-0.00480831
-0.00478997
-0.00477161
-0.00475325
-0.00473489
-0.00471652
-0.00469814
-0.00467976
-0.00466137
-0.00464298
-0.00462458
-0.00460618
-0.00458777
-0.00456936
-0.00455094
-0.00453251
-0.00451408
-0.00449565
-0.00447721
-0.00445876
-0.00444031
-0.00442186
-0.00440339
-0.00438493
-0.00436646
-0.00434798
-0.0043295
-0.00431102
-0.00429253
-0.00427403
-0.00425553
-0.00423703
-0.00421852
-0.00420001
-0.00418149
-0.00416297
-0.00414444
-0.00412591
-0.00410737
-0.00408883
-0.00407028
-0.00405173
-0.00403318
-0.00401462
-0.00399605
-0.00397749
-0.00395892
-0.00394034
-0.00392176
-0.00390317
-0.00388459
-0.00386599
-0.0038474
-0.00382879
-0.00381019
-0.00379158
-0.00377297
-0.00375435
-0.00373573
-0.0037171
-0.00369847
-0.00367984
-0.0036612
-0.00364256
-0.00362392
-0.00360527
-0.00358662
-0.00356796
-0.0035493
-0.00353064
-0.00351197
-0.0034933
-0.00347463
-0.00345595
-0.00343727
-0.00341858
-0.00339989
-0.0033812
-0.00336251
-0.00334381
-0.00332511
-0.0033064
-0.00328769
-0.00326898
-0.00325026
-0.00323155
-0.00321282
-0.0031941
-0.00317537
-0.00315664
-0.0031379
-0.00311916
-0.00310042
-0.00308168
-0.00306293
-0.00304418
-0.00302543
-0.00300667
-0.00298791
-0.00296915
-0.00295038
-0.00293162
-0.00291284
-0.00289407
-0.00287529
-0.00285651
-0.00283773
-0.00281895
-0.00280016
-0.00278137
-0.00276257
-0.00274378
-0.00272498
-0.00270618
-0.00268737
-0.00266857
-0.00264976
-0.00263094
-0.00261213
-0.00259331
-0.00257449
-0.00255567
-0.00253685
-0.00251802
-0.00249919
-0.00248036
-0.00246153
-0.00244269
-0.00242385
-0.00240501
-0.00238617
-0.00236732
-0.00234847
-0.00232962
-0.00231077
-0.00229191
-0.00227306
-0.0022542
-0.00223534
-0.00221647
-0.00219761
-0.00217874
-0.00215987
-0.002141
-0.00212213
-0.00210325
-0.00208437
-0.0020655
-0.00204661
-0.00202773
-0.00200885
-0.00198996
-0.00197107
-0.00195218
-0.00193329
-0.00191439
-0.0018955
-0.0018766
-0.0018577
-0.0018388
-0.00181989
-0.00180099
-0.00178208
-0.00176317
-0.00174426
-0.00172535
-0.00170644
-0.00168753
-0.00166861
-0.00164969
-0.00163077
-0.00161185
-0.00159293
-0.00157401
-0.00155508
-0.00153615
-0.00151723
-0.0014983
-0.00147937
-0.00146044
-0.0014415
-0.00142257
-0.00140363
-0.00138469
-0.00136576
-0.00134682
-0.00132787
-0.00130893
-0.00128999
-0.00127104
-0.0012521
-0.00123315
-0.0012142
-0.00119525
-0.0011763
-0.00115735
-0.0011384
-0.00111945
-0.00110049
-0.00108154
-0.00106258
-0.00104362
-0.00102467
-0.00100571
-0.000986747
-0.000967786
-0.000948824
-0.000929862
-0.000910898
-0.000891934
-0.000872969
-0.000854003
-0.000835036
-0.000816069
-0.0007971
-0.000778132
-0.000759162
-0.000740192
-0.000721221
-0.000702249
-0.000683277
-0.000664304
-0.00064533
-0.000626356
-0.000607382
-0.000588407
-0.000569431
-0.000550455
-0.000531478
-0.000512501
-0.000493523
-0.000474545
-0.000455567
-0.000436588
-0.000417609
-0.000398629
-0.000379649
-0.000360669
-0.000341688
-0.000322707
-0.000303726
-0.000284744
-0.000265762
-0.00024678
-0.000227798
-0.000208816
-0.000189833
-0.00017085
-0.000151867
-0.000132884
-0.000113901
-9.49176e-05
-7.59342e-05
-5.69507e-05
-3.79671e-05
-1.89836e-05
)
;

boundaryField
{
    left
    {
        type            calculated;
        value           uniform 0;
    }
    right
    {
        type            calculated;
        value           uniform 0;
    }
    frontBackUpDown
    {
        type            empty;
    }
}


// ************************************************************************* //
