/*--------------------------------*- C++ -*----------------------------------*\
| =========                 |                                                 |
| \\      /  F ield         | OpenFOAM: The Open Source CFD Toolbox           |
|  \\    /   O peration     | Version:  2412                                  |
|   \\  /    A nd           | Website:  www.openfoam.com                      |
|    \\/     M anipulation  |                                                 |
\*---------------------------------------------------------------------------*/
FoamFile
{
    version     2.0;
    format      ascii;
    arch        "LSB;label=32;scalar=64";
    class       volVectorField;
    location    "1";
    object      U;
}
// * * * * * * * * * * * * * * * * * * * * * * * * * * * * * * * * * * * * * //

dimensions      [0 1 -1 0 0 0 0];

internalField   nonuniform List<vector> 
800
(
(0.000949172 0 0)
(0.00284753 0 0)
(0.00474588 0 0)
(0.00664424 0 0)
(0.00854258 0 0)
(0.0104409 0 0)
(0.0123392 0 0)
(0.0142376 0 0)
(0.0161359 0 0)
(0.0180342 0 0)
(0.0199324 0 0)
(0.0218307 0 0)
(0.0237289 0 0)
(0.0256271 0 0)
(0.0275253 0 0)
(0.0294235 0 0)
(0.0313216 0 0)
(0.0332198 0 0)
(0.0351178 0 0)
(0.0370159 0 0)
(0.0389139 0 0)
(0.0408119 0 0)
(0.0427099 0 0)
(0.0446078 0 0)
(0.0465056 0 0)
(0.0484035 0 0)
(0.0503012 0 0)
(0.052199 0 0)
(0.0540967 0 0)
(0.0559943 0 0)
(0.0578919 0 0)
(0.0597895 0 0)
(0.061687 0 0)
(0.0635844 0 0)
(0.0654818 0 0)
(0.0673791 0 0)
(0.0692763 0 0)
(0.0711735 0 0)
(0.0730707 0 0)
(0.0749677 0 0)
(0.0768647 0 0)
(0.0787617 0 0)
(0.0806585 0 0)
(0.0825553 0 0)
(0.084452 0 0)
(0.0863486 0 0)
(0.0882452 0 0)
(0.0901417 0 0)
(0.0920381 0 0)
(0.0939344 0 0)
(0.0958306 0 0)
(0.0977268 0 0)
(0.0996228 0 0)
(0.101519 0 0)
(0.103415 0 0)
(0.10531 0 0)
(0.107206 0 0)
(0.109102 0 0)
(0.110997 0 0)
(0.112893 0 0)
(0.114788 0 0)
(0.116683 0 0)
(0.118578 0 0)
(0.120473 0 0)
(0.122368 0 0)
(0.124263 0 0)
(0.126157 0 0)
(0.128052 0 0)
(0.129946 0 0)
(0.131841 0 0)
(0.133735 0 0)
(0.135629 0 0)
(0.137523 0 0)
(0.139416 0 0)
(0.14131 0 0)
(0.143204 0 0)
(0.145097 0 0)
(0.14699 0 0)
(0.148883 0 0)
(0.150776 0 0)
(0.152669 0 0)
(0.154562 0 0)
(0.156455 0 0)
(0.158347 0 0)
(0.160239 0 0)
(0.162131 0 0)
(0.164023 0 0)
(0.165915 0 0)
(0.167807 0 0)
(0.169699 0 0)
(0.17159 0 0)
(0.173481 0 0)
(0.175372 0 0)
(0.177263 0 0)
(0.179154 0 0)
(0.181044 0 0)
(0.182935 0 0)
(0.184825 0 0)
(0.186715 0 0)
(0.188605 0 0)
(0.190495 0 0)
(0.192384 0 0)
(0.194274 0 0)
(0.196163 0 0)
(0.198052 0 0)
(0.19994 0 0)
(0.201829 0 0)
(0.203718 0 0)
(0.205606 0 0)
(0.207494 0 0)
(0.209382 0 0)
(0.211269 0 0)
(0.213157 0 0)
(0.215044 0 0)
(0.216931 0 0)
(0.218818 0 0)
(0.220705 0 0)
(0.222591 0 0)
(0.224477 0 0)
(0.226363 0 0)
(0.228249 0 0)
(0.230135 0 0)
(0.23202 0 0)
(0.233905 0 0)
(0.23579 0 0)
(0.237675 0 0)
(0.239559 0 0)
(0.241443 0 0)
(0.243327 0 0)
(0.245211 0 0)
(0.247095 0 0)
(0.248978 0 0)
(0.250861 0 0)
(0.252744 0 0)
(0.254626 0 0)
(0.256509 0 0)
(0.258391 0 0)
(0.260273 0 0)
(0.262154 0 0)
(0.264036 0 0)
(0.265917 0 0)
(0.267797 0 0)
(0.269678 0 0)
(0.271558 0 0)
(0.273438 0 0)
(0.275318 0 0)
(0.277198 0 0)
(0.279077 0 0)
(0.280956 0 0)
(0.282834 0 0)
(0.284713 0 0)
(0.286591 0 0)
(0.288469 0 0)
(0.290346 0 0)
(0.292224 0 0)
(0.294101 0 0)
(0.295977 0 0)
(0.297854 0 0)
(0.29973 0 0)
(0.301606 0 0)
(0.303481 0 0)
(0.305356 0 0)
(0.307231 0 0)
(0.309106 0 0)
(0.31098 0 0)
(0.312854 0 0)
(0.314728 0 0)
(0.316601 0 0)
(0.318474 0 0)
(0.320347 0 0)
(0.322219 0 0)
(0.324091 0 0)
(0.325963 0 0)
(0.327834 0 0)
(0.329705 0 0)
(0.331576 0 0)
(0.333446 0 0)
(0.335316 0 0)
(0.337186 0 0)
(0.339056 0 0)
(0.340925 0 0)
(0.342793 0 0)
(0.344662 0 0)
(0.34653 0 0)
(0.348397 0 0)
(0.350264 0 0)
(0.352131 0 0)
(0.353998 0 0)
(0.355864 0 0)
(0.35773 0 0)
(0.359595 0 0)
(0.36146 0 0)
(0.363325 0 0)
(0.365189 0 0)
(0.367053 0 0)
(0.368917 0 0)
(0.37078 0 0)
(0.372642 0 0)
(0.374505 0 0)
(0.376367 0 0)
(0.378228 0 0)
(0.380089 0 0)
(0.38195 0 0)
(0.38381 0 0)
(0.38567 0 0)
(0.38753 0 0)
(0.389389 0 0)
(0.391248 0 0)
(0.393106 0 0)
(0.394964 0 0)
(0.396821 0 0)
(0.398678 0 0)
(0.400535 0 0)
(0.402391 0 0)
(0.404246 0 0)
(0.406102 0 0)
(0.407956 0 0)
(0.409811 0 0)
(0.411665 0 0)
(0.413518 0 0)
(0.415371 0 0)
(0.417224 0 0)
(0.419076 0 0)
(0.420927 0 0)
(0.422779 0 0)
(0.424629 0 0)
(0.426479 0 0)
(0.428329 0 0)
(0.430178 0 0)
(0.432027 0 0)
(0.433875 0 0)
(0.435723 0 0)
(0.437571 0 0)
(0.439417 0 0)
(0.441264 0 0)
(0.443109 0 0)
(0.444955 0 0)
(0.4468 0 0)
(0.448644 0 0)
(0.450488 0 0)
(0.452331 0 0)
(0.454174 0 0)
(0.456016 0 0)
(0.457858 0 0)
(0.459699 0 0)
(0.461539 0 0)
(0.463379 0 0)
(0.465219 0 0)
(0.467058 0 0)
(0.468896 0 0)
(0.470734 0 0)
(0.472572 0 0)
(0.474408 0 0)
(0.476245 0 0)
(0.47808 0 0)
(0.479915 0 0)
(0.48175 0 0)
(0.483584 0 0)
(0.485417 0 0)
(0.48725 0 0)
(0.489082 0 0)
(0.490914 0 0)
(0.492745 0 0)
(0.494575 0 0)
(0.496405 0 0)
(0.498234 0 0)
(0.500063 0 0)
(0.501891 0 0)
(0.503718 0 0)
(0.505545 0 0)
(0.507371 0 0)
(0.509196 0 0)
(0.511021 0 0)
(0.512846 0 0)
(0.514669 0 0)
(0.516492 0 0)
(0.518314 0 0)
(0.520136 0 0)
(0.521957 0 0)
(0.523777 0 0)
(0.525597 0 0)
(0.527416 0 0)
(0.529234 0 0)
(0.531052 0 0)
(0.532869 0 0)
(0.534685 0 0)
(0.5365 0 0)
(0.538315 0 0)
(0.540129 0 0)
(0.541943 0 0)
(0.543756 0 0)
(0.545568 0 0)
(0.547379 0 0)
(0.54919 0 0)
(0.550999 0 0)
(0.552808 0 0)
(0.554617 0 0)
(0.556425 0 0)
(0.558231 0 0)
(0.560038 0 0)
(0.561843 0 0)
(0.563648 0 0)
(0.565451 0 0)
(0.567255 0 0)
(0.569057 0 0)
(0.570858 0 0)
(0.572659 0 0)
(0.574459 0 0)
(0.576258 0 0)
(0.578057 0 0)
(0.579854 0 0)
(0.581651 0 0)
(0.583447 0 0)
(0.585242 0 0)
(0.587036 0 0)
(0.58883 0 0)
(0.590622 0 0)
(0.592414 0 0)
(0.594205 0 0)
(0.595995 0 0)
(0.597784 0 0)
(0.599572 0 0)
(0.60136 0 0)
(0.603146 0 0)
(0.604932 0 0)
(0.606717 0 0)
(0.608501 0 0)
(0.610284 0 0)
(0.612066 0 0)
(0.613847 0 0)
(0.615627 0 0)
(0.617407 0 0)
(0.619185 0 0)
(0.620963 0 0)
(0.622739 0 0)
(0.624515 0 0)
(0.626289 0 0)
(0.628063 0 0)
(0.629836 0 0)
(0.631607 0 0)
(0.633378 0 0)
(0.635148 0 0)
(0.636916 0 0)
(0.638684 0 0)
(0.640451 0 0)
(0.642217 0 0)
(0.643981 0 0)
(0.645745 0 0)
(0.647508 0 0)
(0.649269 0 0)
(0.65103 0 0)
(0.652789 0 0)
(0.654547 0 0)
(0.656305 0 0)
(0.658061 0 0)
(0.659816 0 0)
(0.66157 0 0)
(0.663323 0 0)
(0.665075 0 0)
(0.666826 0 0)
(0.668575 0 0)
(0.670324 0 0)
(0.672071 0 0)
(0.673817 0 0)
(0.675562 0 0)
(0.677306 0 0)
(0.679048 0 0)
(0.68079 0 0)
(0.68253 0 0)
(0.684269 0 0)
(0.686007 0 0)
(0.687743 0 0)
(0.689479 0 0)
(0.691213 0 0)
(0.692946 0 0)
(0.694677 0 0)
(0.696408 0 0)
(0.698137 0 0)
(0.699865 0 0)
(0.701591 0 0)
(0.703316 0 0)
(0.70504 0 0)
(0.706763 0 0)
(0.708484 0 0)
(0.710204 0 0)
(0.711922 0 0)
(0.713639 0 0)
(0.715355 0 0)
(0.717069 0 0)
(0.718782 0 0)
(0.720494 0 0)
(0.722204 0 0)
(0.723913 0 0)
(0.72562 0 0)
(0.727326 0 0)
(0.729026 0 0)
(0.730626 0 0)
(0.729985 0 0)
(0.685787 0 0)
(0.339515 0 0)
(-0.338335 0 0)
(-0.685529 0 0)
(-0.729967 0 0)
(-0.730623 0 0)
(-0.729023 0 0)
(-0.727323 0 0)
(-0.725618 0 0)
(-0.723911 0 0)
(-0.722202 0 0)
(-0.720492 0 0)
(-0.71878 0 0)
(-0.717067 0 0)
(-0.715353 0 0)
(-0.713637 0 0)
(-0.71192 0 0)
(-0.710201 0 0)
(-0.708482 0 0)
(-0.70676 0 0)
(-0.705038 0 0)
(-0.703314 0 0)
(-0.701589 0 0)
(-0.699862 0 0)
(-0.698135 0 0)
(-0.696405 0 0)
(-0.694675 0 0)
(-0.692944 0 0)
(-0.691211 0 0)
(-0.689477 0 0)
(-0.687741 0 0)
(-0.686005 0 0)
(-0.684267 0 0)
(-0.682528 0 0)
(-0.680788 0 0)
(-0.679046 0 0)
(-0.677304 0 0)
(-0.67556 0 0)
(-0.673815 0 0)
(-0.672069 0 0)
(-0.670321 0 0)
(-0.668573 0 0)
(-0.666823 0 0)
(-0.665073 0 0)
(-0.663321 0 0)
(-0.661568 0 0)
(-0.659814 0 0)
(-0.658059 0 0)
(-0.656303 0 0)
(-0.654545 0 0)
(-0.652787 0 0)
(-0.651028 0 0)
(-0.649267 0 0)
(-0.647506 0 0)
(-0.645743 0 0)
(-0.643979 0 0)
(-0.642215 0 0)
(-0.640449 0 0)
(-0.638682 0 0)
(-0.636915 0 0)
(-0.635146 0 0)
(-0.633376 0 0)
(-0.631605 0 0)
(-0.629834 0 0)
(-0.628061 0 0)
(-0.626287 0 0)
(-0.624513 0 0)
(-0.622737 0 0)
(-0.620961 0 0)
(-0.619183 0 0)
(-0.617405 0 0)
(-0.615626 0 0)
(-0.613845 0 0)
(-0.612064 0 0)
(-0.610282 0 0)
(-0.608499 0 0)
(-0.606715 0 0)
(-0.60493 0 0)
(-0.603145 0 0)
(-0.601358 0 0)
(-0.599571 0 0)
(-0.597782 0 0)
(-0.595993 0 0)
(-0.594203 0 0)
(-0.592412 0 0)
(-0.59062 0 0)
(-0.588828 0 0)
(-0.587034 0 0)
(-0.58524 0 0)
(-0.583445 0 0)
(-0.581649 0 0)
(-0.579852 0 0)
(-0.578055 0 0)
(-0.576257 0 0)
(-0.574457 0 0)
(-0.572657 0 0)
(-0.570857 0 0)
(-0.569055 0 0)
(-0.567253 0 0)
(-0.56545 0 0)
(-0.563646 0 0)
(-0.561841 0 0)
(-0.560036 0 0)
(-0.55823 0 0)
(-0.556423 0 0)
(-0.554615 0 0)
(-0.552807 0 0)
(-0.550998 0 0)
(-0.549188 0 0)
(-0.547377 0 0)
(-0.545566 0 0)
(-0.543754 0 0)
(-0.541941 0 0)
(-0.540128 0 0)
(-0.538314 0 0)
(-0.536499 0 0)
(-0.534683 0 0)
(-0.532867 0 0)
(-0.53105 0 0)
(-0.529233 0 0)
(-0.527414 0 0)
(-0.525595 0 0)
(-0.523776 0 0)
(-0.521955 0 0)
(-0.520134 0 0)
(-0.518313 0 0)
(-0.516491 0 0)
(-0.514668 0 0)
(-0.512844 0 0)
(-0.51102 0 0)
(-0.509195 0 0)
(-0.50737 0 0)
(-0.505543 0 0)
(-0.503717 0 0)
(-0.501889 0 0)
(-0.500061 0 0)
(-0.498233 0 0)
(-0.496404 0 0)
(-0.494574 0 0)
(-0.492743 0 0)
(-0.490912 0 0)
(-0.489081 0 0)
(-0.487249 0 0)
(-0.485416 0 0)
(-0.483583 0 0)
(-0.481749 0 0)
(-0.479914 0 0)
(-0.478079 0 0)
(-0.476243 0 0)
(-0.474407 0 0)
(-0.47257 0 0)
(-0.470733 0 0)
(-0.468895 0 0)
(-0.467057 0 0)
(-0.465218 0 0)
(-0.463378 0 0)
(-0.461538 0 0)
(-0.459698 0 0)
(-0.457856 0 0)
(-0.456015 0 0)
(-0.454173 0 0)
(-0.45233 0 0)
(-0.450487 0 0)
(-0.448643 0 0)
(-0.446798 0 0)
(-0.444954 0 0)
(-0.443108 0 0)
(-0.441263 0 0)
(-0.439416 0 0)
(-0.43757 0 0)
(-0.435722 0 0)
(-0.433874 0 0)
(-0.432026 0 0)
(-0.430177 0 0)
(-0.428328 0 0)
(-0.426478 0 0)
(-0.424628 0 0)
(-0.422778 0 0)
(-0.420926 0 0)
(-0.419075 0 0)
(-0.417223 0 0)
(-0.41537 0 0)
(-0.413517 0 0)
(-0.411664 0 0)
(-0.40981 0 0)
(-0.407956 0 0)
(-0.406101 0 0)
(-0.404246 0 0)
(-0.40239 0 0)
(-0.400534 0 0)
(-0.398677 0 0)
(-0.39682 0 0)
(-0.394963 0 0)
(-0.393105 0 0)
(-0.391247 0 0)
(-0.389388 0 0)
(-0.387529 0 0)
(-0.385669 0 0)
(-0.38381 0 0)
(-0.381949 0 0)
(-0.380089 0 0)
(-0.378227 0 0)
(-0.376366 0 0)
(-0.374504 0 0)
(-0.372642 0 0)
(-0.370779 0 0)
(-0.368916 0 0)
(-0.367052 0 0)
(-0.365188 0 0)
(-0.363324 0 0)
(-0.361459 0 0)
(-0.359594 0 0)
(-0.357729 0 0)
(-0.355863 0 0)
(-0.353997 0 0)
(-0.352131 0 0)
(-0.350264 0 0)
(-0.348396 0 0)
(-0.346529 0 0)
(-0.344661 0 0)
(-0.342793 0 0)
(-0.340924 0 0)
(-0.339055 0 0)
(-0.337186 0 0)
(-0.335316 0 0)
(-0.333446 0 0)
(-0.331575 0 0)
(-0.329705 0 0)
(-0.327834 0 0)
(-0.325962 0 0)
(-0.324091 0 0)
(-0.322218 0 0)
(-0.320346 0 0)
(-0.318473 0 0)
(-0.3166 0 0)
(-0.314727 0 0)
(-0.312853 0 0)
(-0.310979 0 0)
(-0.309105 0 0)
(-0.307231 0 0)
(-0.305356 0 0)
(-0.303481 0 0)
(-0.301605 0 0)
(-0.299729 0 0)
(-0.297853 0 0)
(-0.295977 0 0)
(-0.2941 0 0)
(-0.292223 0 0)
(-0.290346 0 0)
(-0.288468 0 0)
(-0.28659 0 0)
(-0.284712 0 0)
(-0.282834 0 0)
(-0.280955 0 0)
(-0.279076 0 0)
(-0.277197 0 0)
(-0.275318 0 0)
(-0.273438 0 0)
(-0.271558 0 0)
(-0.269678 0 0)
(-0.267797 0 0)
(-0.265916 0 0)
(-0.264035 0 0)
(-0.262154 0 0)
(-0.260272 0 0)
(-0.25839 0 0)
(-0.256508 0 0)
(-0.254626 0 0)
(-0.252743 0 0)
(-0.250861 0 0)
(-0.248978 0 0)
(-0.247094 0 0)
(-0.245211 0 0)
(-0.243327 0 0)
(-0.241443 0 0)
(-0.239559 0 0)
(-0.237674 0 0)
(-0.23579 0 0)
(-0.233905 0 0)
(-0.23202 0 0)
(-0.230134 0 0)
(-0.228249 0 0)
(-0.226363 0 0)
(-0.224477 0 0)
(-0.222591 0 0)
(-0.220704 0 0)
(-0.218818 0 0)
(-0.216931 0 0)
(-0.215044 0 0)
(-0.213156 0 0)
(-0.211269 0 0)
(-0.209381 0 0)
(-0.207494 0 0)
(-0.205606 0 0)
(-0.203717 0 0)
(-0.201829 0 0)
(-0.19994 0 0)
(-0.198051 0 0)
(-0.196162 0 0)
(-0.194273 0 0)
(-0.192384 0 0)
(-0.190494 0 0)
(-0.188605 0 0)
(-0.186715 0 0)
(-0.184825 0 0)
(-0.182935 0 0)
(-0.181044 0 0)
(-0.179154 0 0)
(-0.177263 0 0)
(-0.175372 0 0)
(-0.173481 0 0)
(-0.17159 0 0)
(-0.169698 0 0)
(-0.167807 0 0)
(-0.165915 0 0)
(-0.164023 0 0)
(-0.162131 0 0)
(-0.160239 0 0)
(-0.158347 0 0)
(-0.156454 0 0)
(-0.154562 0 0)
(-0.152669 0 0)
(-0.150776 0 0)
(-0.148883 0 0)
(-0.14699 0 0)
(-0.145097 0 0)
(-0.143203 0 0)
(-0.14131 0 0)
(-0.139416 0 0)
(-0.137523 0 0)
(-0.135629 0 0)
(-0.133735 0 0)
(-0.13184 0 0)
(-0.129946 0 0)
(-0.128052 0 0)
(-0.126157 0 0)
(-0.124263 0 0)
(-0.122368 0 0)
(-0.120473 0 0)
(-0.118578 0 0)
(-0.116683 0 0)
(-0.114788 0 0)
(-0.112892 0 0)
(-0.110997 0 0)
(-0.109102 0 0)
(-0.107206 0 0)
(-0.10531 0 0)
(-0.103415 0 0)
(-0.101519 0 0)
(-0.0996227 0 0)
(-0.0977267 0 0)
(-0.0958306 0 0)
(-0.0939343 0 0)
(-0.092038 0 0)
(-0.0901416 0 0)
(-0.0882451 0 0)
(-0.0863486 0 0)
(-0.084452 0 0)
(-0.0825553 0 0)
(-0.0806585 0 0)
(-0.0787616 0 0)
(-0.0768647 0 0)
(-0.0749677 0 0)
(-0.0730706 0 0)
(-0.0711735 0 0)
(-0.0692763 0 0)
(-0.0673791 0 0)
(-0.0654817 0 0)
(-0.0635844 0 0)
(-0.0616869 0 0)
(-0.0597894 0 0)
(-0.0578919 0 0)
(-0.0559943 0 0)
(-0.0540967 0 0)
(-0.052199 0 0)
(-0.0503012 0 0)
(-0.0484034 0 0)
(-0.0465056 0 0)
(-0.0446078 0 0)
(-0.0427098 0 0)
(-0.0408119 0 0)
(-0.0389139 0 0)
(-0.0370159 0 0)
(-0.0351178 0 0)
(-0.0332198 0 0)
(-0.0313216 0 0)
(-0.0294235 0 0)
(-0.0275253 0 0)
(-0.0256271 0 0)
(-0.0237289 0 0)
(-0.0218307 0 0)
(-0.0199324 0 0)
(-0.0180342 0 0)
(-0.0161359 0 0)
(-0.0142376 0 0)
(-0.0123393 0 0)
(-0.0104409 0 0)
(-0.00854259 0 0)
(-0.00664424 0 0)
(-0.00474589 0 0)
(-0.00284754 0 0)
(-0.000949179 0 0)
)
;

boundaryField
{
    left
    {
        type            fixedValue;
        value           uniform (0 0 0);
    }
    right
    {
        type            fixedValue;
        value           uniform (0 0 0);
    }
    frontBackUpDown
    {
        type            empty;
    }
}


// ************************************************************************* //
