/*--------------------------------*- C++ -*----------------------------------*\
| =========                 |                                                 |
| \\      /  F ield         | OpenFOAM: The Open Source CFD Toolbox           |
|  \\    /   O peration     | Version:  2412                                  |
|   \\  /    A nd           | Website:  www.openfoam.com                      |
|    \\/     M anipulation  |                                                 |
\*---------------------------------------------------------------------------*/
FoamFile
{
    version     2.0;
    format      ascii;
    arch        "LSB;label=32;scalar=64";
    class       volVectorField;
    location    "1";
    object      U_0;
}
// * * * * * * * * * * * * * * * * * * * * * * * * * * * * * * * * * * * * * //

dimensions      [0 1 -1 0 0 0 0];

internalField   nonuniform List<vector> 
800
(
(0.000949532 0 0)
(0.00284861 0 0)
(0.00474768 0 0)
(0.00664675 0 0)
(0.00854582 0 0)
(0.0104449 0 0)
(0.0123439 0 0)
(0.014243 0 0)
(0.016142 0 0)
(0.018041 0 0)
(0.01994 0 0)
(0.021839 0 0)
(0.0237379 0 0)
(0.0256369 0 0)
(0.0275358 0 0)
(0.0294347 0 0)
(0.0313335 0 0)
(0.0332323 0 0)
(0.0351312 0 0)
(0.0370299 0 0)
(0.0389287 0 0)
(0.0408274 0 0)
(0.042726 0 0)
(0.0446247 0 0)
(0.0465233 0 0)
(0.0484218 0 0)
(0.0503203 0 0)
(0.0522188 0 0)
(0.0541172 0 0)
(0.0560155 0 0)
(0.0579138 0 0)
(0.0598121 0 0)
(0.0617103 0 0)
(0.0636085 0 0)
(0.0655066 0 0)
(0.0674046 0 0)
(0.0693026 0 0)
(0.0712005 0 0)
(0.0730983 0 0)
(0.0749961 0 0)
(0.0768938 0 0)
(0.0787915 0 0)
(0.0806891 0 0)
(0.0825866 0 0)
(0.084484 0 0)
(0.0863813 0 0)
(0.0882786 0 0)
(0.0901758 0 0)
(0.0920729 0 0)
(0.0939699 0 0)
(0.0958669 0 0)
(0.0977637 0 0)
(0.0996605 0 0)
(0.101557 0 0)
(0.103454 0 0)
(0.10535 0 0)
(0.107247 0 0)
(0.109143 0 0)
(0.111039 0 0)
(0.112935 0 0)
(0.114831 0 0)
(0.116727 0 0)
(0.118623 0 0)
(0.120519 0 0)
(0.122414 0 0)
(0.12431 0 0)
(0.126205 0 0)
(0.1281 0 0)
(0.129995 0 0)
(0.13189 0 0)
(0.133785 0 0)
(0.13568 0 0)
(0.137575 0 0)
(0.139469 0 0)
(0.141363 0 0)
(0.143258 0 0)
(0.145152 0 0)
(0.147046 0 0)
(0.14894 0 0)
(0.150833 0 0)
(0.152727 0 0)
(0.15462 0 0)
(0.156514 0 0)
(0.158407 0 0)
(0.1603 0 0)
(0.162193 0 0)
(0.164085 0 0)
(0.165978 0 0)
(0.16787 0 0)
(0.169763 0 0)
(0.171655 0 0)
(0.173547 0 0)
(0.175438 0 0)
(0.17733 0 0)
(0.179221 0 0)
(0.181113 0 0)
(0.183004 0 0)
(0.184895 0 0)
(0.186786 0 0)
(0.188676 0 0)
(0.190567 0 0)
(0.192457 0 0)
(0.194347 0 0)
(0.196237 0 0)
(0.198126 0 0)
(0.200016 0 0)
(0.201905 0 0)
(0.203794 0 0)
(0.205683 0 0)
(0.207572 0 0)
(0.209461 0 0)
(0.211349 0 0)
(0.213237 0 0)
(0.215125 0 0)
(0.217013 0 0)
(0.2189 0 0)
(0.220788 0 0)
(0.222675 0 0)
(0.224562 0 0)
(0.226448 0 0)
(0.228335 0 0)
(0.230221 0 0)
(0.232107 0 0)
(0.233993 0 0)
(0.235879 0 0)
(0.237764 0 0)
(0.239649 0 0)
(0.241534 0 0)
(0.243419 0 0)
(0.245303 0 0)
(0.247188 0 0)
(0.249072 0 0)
(0.250955 0 0)
(0.252839 0 0)
(0.254722 0 0)
(0.256605 0 0)
(0.258488 0 0)
(0.26037 0 0)
(0.262253 0 0)
(0.264135 0 0)
(0.266016 0 0)
(0.267898 0 0)
(0.269779 0 0)
(0.27166 0 0)
(0.273541 0 0)
(0.275421 0 0)
(0.277302 0 0)
(0.279182 0 0)
(0.281061 0 0)
(0.282941 0 0)
(0.28482 0 0)
(0.286698 0 0)
(0.288577 0 0)
(0.290455 0 0)
(0.292333 0 0)
(0.294211 0 0)
(0.296088 0 0)
(0.297965 0 0)
(0.299842 0 0)
(0.301718 0 0)
(0.303595 0 0)
(0.305471 0 0)
(0.307346 0 0)
(0.309221 0 0)
(0.311096 0 0)
(0.312971 0 0)
(0.314845 0 0)
(0.316719 0 0)
(0.318593 0 0)
(0.320466 0 0)
(0.32234 0 0)
(0.324212 0 0)
(0.326085 0 0)
(0.327957 0 0)
(0.329828 0 0)
(0.3317 0 0)
(0.333571 0 0)
(0.335442 0 0)
(0.337312 0 0)
(0.339182 0 0)
(0.341052 0 0)
(0.342921 0 0)
(0.34479 0 0)
(0.346659 0 0)
(0.348527 0 0)
(0.350395 0 0)
(0.352262 0 0)
(0.35413 0 0)
(0.355997 0 0)
(0.357863 0 0)
(0.359729 0 0)
(0.361595 0 0)
(0.36346 0 0)
(0.365325 0 0)
(0.36719 0 0)
(0.369054 0 0)
(0.370918 0 0)
(0.372781 0 0)
(0.374644 0 0)
(0.376507 0 0)
(0.378369 0 0)
(0.380231 0 0)
(0.382092 0 0)
(0.383953 0 0)
(0.385814 0 0)
(0.387674 0 0)
(0.389533 0 0)
(0.391393 0 0)
(0.393252 0 0)
(0.39511 0 0)
(0.396968 0 0)
(0.398826 0 0)
(0.400683 0 0)
(0.40254 0 0)
(0.404396 0 0)
(0.406252 0 0)
(0.408108 0 0)
(0.409963 0 0)
(0.411817 0 0)
(0.413671 0 0)
(0.415525 0 0)
(0.417378 0 0)
(0.419231 0 0)
(0.421083 0 0)
(0.422935 0 0)
(0.424786 0 0)
(0.426637 0 0)
(0.428487 0 0)
(0.430337 0 0)
(0.432187 0 0)
(0.434036 0 0)
(0.435884 0 0)
(0.437732 0 0)
(0.439579 0 0)
(0.441426 0 0)
(0.443273 0 0)
(0.445119 0 0)
(0.446964 0 0)
(0.448809 0 0)
(0.450653 0 0)
(0.452497 0 0)
(0.454341 0 0)
(0.456184 0 0)
(0.458026 0 0)
(0.459868 0 0)
(0.461709 0 0)
(0.46355 0 0)
(0.46539 0 0)
(0.467229 0 0)
(0.469068 0 0)
(0.470907 0 0)
(0.472745 0 0)
(0.474582 0 0)
(0.476419 0 0)
(0.478255 0 0)
(0.480091 0 0)
(0.481926 0 0)
(0.483761 0 0)
(0.485595 0 0)
(0.487428 0 0)
(0.489261 0 0)
(0.491093 0 0)
(0.492925 0 0)
(0.494756 0 0)
(0.496586 0 0)
(0.498416 0 0)
(0.500245 0 0)
(0.502074 0 0)
(0.503902 0 0)
(0.505729 0 0)
(0.507556 0 0)
(0.509382 0 0)
(0.511207 0 0)
(0.513032 0 0)
(0.514856 0 0)
(0.51668 0 0)
(0.518503 0 0)
(0.520325 0 0)
(0.522147 0 0)
(0.523968 0 0)
(0.525788 0 0)
(0.527607 0 0)
(0.529426 0 0)
(0.531244 0 0)
(0.533062 0 0)
(0.534879 0 0)
(0.536695 0 0)
(0.53851 0 0)
(0.540325 0 0)
(0.542139 0 0)
(0.543952 0 0)
(0.545765 0 0)
(0.547577 0 0)
(0.549388 0 0)
(0.551198 0 0)
(0.553008 0 0)
(0.554817 0 0)
(0.556625 0 0)
(0.558433 0 0)
(0.56024 0 0)
(0.562045 0 0)
(0.563851 0 0)
(0.565655 0 0)
(0.567459 0 0)
(0.569262 0 0)
(0.571064 0 0)
(0.572865 0 0)
(0.574666 0 0)
(0.576465 0 0)
(0.578264 0 0)
(0.580062 0 0)
(0.58186 0 0)
(0.583656 0 0)
(0.585452 0 0)
(0.587246 0 0)
(0.58904 0 0)
(0.590834 0 0)
(0.592626 0 0)
(0.594417 0 0)
(0.596208 0 0)
(0.597998 0 0)
(0.599787 0 0)
(0.601574 0 0)
(0.603362 0 0)
(0.605148 0 0)
(0.606933 0 0)
(0.608718 0 0)
(0.610501 0 0)
(0.612284 0 0)
(0.614065 0 0)
(0.615846 0 0)
(0.617626 0 0)
(0.619405 0 0)
(0.621183 0 0)
(0.62296 0 0)
(0.624736 0 0)
(0.626511 0 0)
(0.628285 0 0)
(0.630059 0 0)
(0.631831 0 0)
(0.633602 0 0)
(0.635372 0 0)
(0.637141 0 0)
(0.63891 0 0)
(0.640677 0 0)
(0.642443 0 0)
(0.644208 0 0)
(0.645972 0 0)
(0.647735 0 0)
(0.649497 0 0)
(0.651258 0 0)
(0.653018 0 0)
(0.654777 0 0)
(0.656535 0 0)
(0.658292 0 0)
(0.660047 0 0)
(0.661802 0 0)
(0.663555 0 0)
(0.665307 0 0)
(0.667059 0 0)
(0.668809 0 0)
(0.670558 0 0)
(0.672305 0 0)
(0.674052 0 0)
(0.675797 0 0)
(0.677541 0 0)
(0.679285 0 0)
(0.681026 0 0)
(0.682767 0 0)
(0.684507 0 0)
(0.686245 0 0)
(0.687982 0 0)
(0.689718 0 0)
(0.691452 0 0)
(0.693185 0 0)
(0.694918 0 0)
(0.696648 0 0)
(0.698378 0 0)
(0.700106 0 0)
(0.701833 0 0)
(0.703558 0 0)
(0.705283 0 0)
(0.707006 0 0)
(0.708727 0 0)
(0.710448 0 0)
(0.712166 0 0)
(0.713884 0 0)
(0.7156 0 0)
(0.717315 0 0)
(0.719028 0 0)
(0.72074 0 0)
(0.722451 0 0)
(0.72416 0 0)
(0.725867 0 0)
(0.727573 0 0)
(0.729274 0 0)
(0.730876 0 0)
(0.730247 0 0)
(0.686116 0 0)
(0.339746 0 0)
(-0.338566 0 0)
(-0.685859 0 0)
(-0.730229 0 0)
(-0.730873 0 0)
(-0.729271 0 0)
(-0.727571 0 0)
(-0.725865 0 0)
(-0.724158 0 0)
(-0.722448 0 0)
(-0.720738 0 0)
(-0.719026 0 0)
(-0.717313 0 0)
(-0.715598 0 0)
(-0.713882 0 0)
(-0.712164 0 0)
(-0.710445 0 0)
(-0.708725 0 0)
(-0.707003 0 0)
(-0.70528 0 0)
(-0.703556 0 0)
(-0.701831 0 0)
(-0.700104 0 0)
(-0.698376 0 0)
(-0.696646 0 0)
(-0.694915 0 0)
(-0.693183 0 0)
(-0.69145 0 0)
(-0.689715 0 0)
(-0.68798 0 0)
(-0.686243 0 0)
(-0.684504 0 0)
(-0.682765 0 0)
(-0.681024 0 0)
(-0.679282 0 0)
(-0.677539 0 0)
(-0.675795 0 0)
(-0.67405 0 0)
(-0.672303 0 0)
(-0.670555 0 0)
(-0.668807 0 0)
(-0.667057 0 0)
(-0.665305 0 0)
(-0.663553 0 0)
(-0.6618 0 0)
(-0.660045 0 0)
(-0.65829 0 0)
(-0.656533 0 0)
(-0.654775 0 0)
(-0.653016 0 0)
(-0.651256 0 0)
(-0.649495 0 0)
(-0.647733 0 0)
(-0.64597 0 0)
(-0.644206 0 0)
(-0.642441 0 0)
(-0.640675 0 0)
(-0.638908 0 0)
(-0.637139 0 0)
(-0.63537 0 0)
(-0.6336 0 0)
(-0.631829 0 0)
(-0.630057 0 0)
(-0.628283 0 0)
(-0.626509 0 0)
(-0.624734 0 0)
(-0.622958 0 0)
(-0.621181 0 0)
(-0.619403 0 0)
(-0.617624 0 0)
(-0.615844 0 0)
(-0.614064 0 0)
(-0.612282 0 0)
(-0.610499 0 0)
(-0.608716 0 0)
(-0.606931 0 0)
(-0.605146 0 0)
(-0.60336 0 0)
(-0.601573 0 0)
(-0.599785 0 0)
(-0.597996 0 0)
(-0.596206 0 0)
(-0.594416 0 0)
(-0.592624 0 0)
(-0.590832 0 0)
(-0.589039 0 0)
(-0.587245 0 0)
(-0.58545 0 0)
(-0.583654 0 0)
(-0.581858 0 0)
(-0.580061 0 0)
(-0.578262 0 0)
(-0.576464 0 0)
(-0.574664 0 0)
(-0.572863 0 0)
(-0.571062 0 0)
(-0.56926 0 0)
(-0.567457 0 0)
(-0.565653 0 0)
(-0.563849 0 0)
(-0.562044 0 0)
(-0.560238 0 0)
(-0.558431 0 0)
(-0.556624 0 0)
(-0.554816 0 0)
(-0.553007 0 0)
(-0.551197 0 0)
(-0.549386 0 0)
(-0.547575 0 0)
(-0.545763 0 0)
(-0.543951 0 0)
(-0.542138 0 0)
(-0.540324 0 0)
(-0.538509 0 0)
(-0.536693 0 0)
(-0.534877 0 0)
(-0.53306 0 0)
(-0.531243 0 0)
(-0.529425 0 0)
(-0.527606 0 0)
(-0.525786 0 0)
(-0.523966 0 0)
(-0.522145 0 0)
(-0.520324 0 0)
(-0.518501 0 0)
(-0.516679 0 0)
(-0.514855 0 0)
(-0.513031 0 0)
(-0.511206 0 0)
(-0.509381 0 0)
(-0.507555 0 0)
(-0.505728 0 0)
(-0.503901 0 0)
(-0.502073 0 0)
(-0.500244 0 0)
(-0.498415 0 0)
(-0.496585 0 0)
(-0.494755 0 0)
(-0.492924 0 0)
(-0.491092 0 0)
(-0.48926 0 0)
(-0.487427 0 0)
(-0.485594 0 0)
(-0.48376 0 0)
(-0.481925 0 0)
(-0.48009 0 0)
(-0.478254 0 0)
(-0.476418 0 0)
(-0.474581 0 0)
(-0.472744 0 0)
(-0.470906 0 0)
(-0.469067 0 0)
(-0.467228 0 0)
(-0.465389 0 0)
(-0.463548 0 0)
(-0.461708 0 0)
(-0.459867 0 0)
(-0.458025 0 0)
(-0.456182 0 0)
(-0.45434 0 0)
(-0.452496 0 0)
(-0.450652 0 0)
(-0.448808 0 0)
(-0.446963 0 0)
(-0.445118 0 0)
(-0.443272 0 0)
(-0.441425 0 0)
(-0.439578 0 0)
(-0.437731 0 0)
(-0.435883 0 0)
(-0.434035 0 0)
(-0.432186 0 0)
(-0.430336 0 0)
(-0.428486 0 0)
(-0.426636 0 0)
(-0.424785 0 0)
(-0.422934 0 0)
(-0.421082 0 0)
(-0.41923 0 0)
(-0.417377 0 0)
(-0.415524 0 0)
(-0.41367 0 0)
(-0.411816 0 0)
(-0.409962 0 0)
(-0.408107 0 0)
(-0.406251 0 0)
(-0.404395 0 0)
(-0.402539 0 0)
(-0.400682 0 0)
(-0.398825 0 0)
(-0.396967 0 0)
(-0.395109 0 0)
(-0.393251 0 0)
(-0.391392 0 0)
(-0.389533 0 0)
(-0.387673 0 0)
(-0.385813 0 0)
(-0.383952 0 0)
(-0.382091 0 0)
(-0.38023 0 0)
(-0.378368 0 0)
(-0.376506 0 0)
(-0.374643 0 0)
(-0.37278 0 0)
(-0.370917 0 0)
(-0.369053 0 0)
(-0.367189 0 0)
(-0.365324 0 0)
(-0.363459 0 0)
(-0.361594 0 0)
(-0.359728 0 0)
(-0.357862 0 0)
(-0.355996 0 0)
(-0.354129 0 0)
(-0.352262 0 0)
(-0.350394 0 0)
(-0.348526 0 0)
(-0.346658 0 0)
(-0.344789 0 0)
(-0.34292 0 0)
(-0.341051 0 0)
(-0.339181 0 0)
(-0.337311 0 0)
(-0.335441 0 0)
(-0.33357 0 0)
(-0.331699 0 0)
(-0.329828 0 0)
(-0.327956 0 0)
(-0.326084 0 0)
(-0.324212 0 0)
(-0.322339 0 0)
(-0.320466 0 0)
(-0.318593 0 0)
(-0.316719 0 0)
(-0.314845 0 0)
(-0.31297 0 0)
(-0.311096 0 0)
(-0.309221 0 0)
(-0.307346 0 0)
(-0.30547 0 0)
(-0.303594 0 0)
(-0.301718 0 0)
(-0.299841 0 0)
(-0.297965 0 0)
(-0.296088 0 0)
(-0.29421 0 0)
(-0.292333 0 0)
(-0.290455 0 0)
(-0.288576 0 0)
(-0.286698 0 0)
(-0.284819 0 0)
(-0.28294 0 0)
(-0.281061 0 0)
(-0.279181 0 0)
(-0.277301 0 0)
(-0.275421 0 0)
(-0.273541 0 0)
(-0.27166 0 0)
(-0.269779 0 0)
(-0.267898 0 0)
(-0.266016 0 0)
(-0.264134 0 0)
(-0.262252 0 0)
(-0.26037 0 0)
(-0.258488 0 0)
(-0.256605 0 0)
(-0.254722 0 0)
(-0.252838 0 0)
(-0.250955 0 0)
(-0.249071 0 0)
(-0.247187 0 0)
(-0.245303 0 0)
(-0.243419 0 0)
(-0.241534 0 0)
(-0.239649 0 0)
(-0.237764 0 0)
(-0.235878 0 0)
(-0.233993 0 0)
(-0.232107 0 0)
(-0.230221 0 0)
(-0.228335 0 0)
(-0.226448 0 0)
(-0.224561 0 0)
(-0.222674 0 0)
(-0.220787 0 0)
(-0.2189 0 0)
(-0.217012 0 0)
(-0.215125 0 0)
(-0.213237 0 0)
(-0.211349 0 0)
(-0.20946 0 0)
(-0.207572 0 0)
(-0.205683 0 0)
(-0.203794 0 0)
(-0.201905 0 0)
(-0.200016 0 0)
(-0.198126 0 0)
(-0.196236 0 0)
(-0.194347 0 0)
(-0.192457 0 0)
(-0.190566 0 0)
(-0.188676 0 0)
(-0.186785 0 0)
(-0.184895 0 0)
(-0.183004 0 0)
(-0.181112 0 0)
(-0.179221 0 0)
(-0.17733 0 0)
(-0.175438 0 0)
(-0.173546 0 0)
(-0.171654 0 0)
(-0.169762 0 0)
(-0.16787 0 0)
(-0.165978 0 0)
(-0.164085 0 0)
(-0.162193 0 0)
(-0.1603 0 0)
(-0.158407 0 0)
(-0.156514 0 0)
(-0.15462 0 0)
(-0.152727 0 0)
(-0.150833 0 0)
(-0.14894 0 0)
(-0.147046 0 0)
(-0.145152 0 0)
(-0.143258 0 0)
(-0.141363 0 0)
(-0.139469 0 0)
(-0.137574 0 0)
(-0.13568 0 0)
(-0.133785 0 0)
(-0.13189 0 0)
(-0.129995 0 0)
(-0.1281 0 0)
(-0.126205 0 0)
(-0.12431 0 0)
(-0.122414 0 0)
(-0.120519 0 0)
(-0.118623 0 0)
(-0.116727 0 0)
(-0.114831 0 0)
(-0.112935 0 0)
(-0.111039 0 0)
(-0.109143 0 0)
(-0.107247 0 0)
(-0.10535 0 0)
(-0.103454 0 0)
(-0.101557 0 0)
(-0.0996605 0 0)
(-0.0977637 0 0)
(-0.0958668 0 0)
(-0.0939699 0 0)
(-0.0920729 0 0)
(-0.0901757 0 0)
(-0.0882786 0 0)
(-0.0863813 0 0)
(-0.0844839 0 0)
(-0.0825865 0 0)
(-0.080689 0 0)
(-0.0787914 0 0)
(-0.0768938 0 0)
(-0.0749961 0 0)
(-0.0730983 0 0)
(-0.0712005 0 0)
(-0.0693025 0 0)
(-0.0674046 0 0)
(-0.0655065 0 0)
(-0.0636084 0 0)
(-0.0617103 0 0)
(-0.0598121 0 0)
(-0.0579138 0 0)
(-0.0560155 0 0)
(-0.0541172 0 0)
(-0.0522187 0 0)
(-0.0503203 0 0)
(-0.0484218 0 0)
(-0.0465232 0 0)
(-0.0446247 0 0)
(-0.042726 0 0)
(-0.0408274 0 0)
(-0.0389287 0 0)
(-0.0370299 0 0)
(-0.0351311 0 0)
(-0.0332323 0 0)
(-0.0313335 0 0)
(-0.0294347 0 0)
(-0.0275358 0 0)
(-0.0256369 0 0)
(-0.0237379 0 0)
(-0.021839 0 0)
(-0.01994 0 0)
(-0.018041 0 0)
(-0.016142 0 0)
(-0.014243 0 0)
(-0.0123439 0 0)
(-0.0104449 0 0)
(-0.00854583 0 0)
(-0.00664676 0 0)
(-0.00474769 0 0)
(-0.00284862 0 0)
(-0.000949539 0 0)
)
;

boundaryField
{
    left
    {
        type            fixedValue;
        value           uniform (0 0 0);
    }
    right
    {
        type            fixedValue;
        value           uniform (0 0 0);
    }
    frontBackUpDown
    {
        type            empty;
    }
}


// ************************************************************************* //
