/*--------------------------------*- C++ -*----------------------------------*\
| =========                 |                                                 |
| \\      /  F ield         | OpenFOAM: The Open Source CFD Toolbox           |
|  \\    /   O peration     | Version:  2412                                  |
|   \\  /    A nd           | Website:  www.openfoam.com                      |
|    \\/     M anipulation  |                                                 |
\*---------------------------------------------------------------------------*/
FoamFile
{
    version     2.0;
    format      ascii;
    arch        "LSB;label=32;scalar=64";
    class       volVectorField;
    location    "1";
    object      U_0_0_0;
}
// * * * * * * * * * * * * * * * * * * * * * * * * * * * * * * * * * * * * * //

dimensions      [0 1 -1 0 0 0 0];

internalField   nonuniform List<vector> 
800
(
(0.000950252 0 0)
(0.00285077 0 0)
(0.00475128 0 0)
(0.0066518 0 0)
(0.0085523 0 0)
(0.0104528 0 0)
(0.0123533 0 0)
(0.0142538 0 0)
(0.0161542 0 0)
(0.0180547 0 0)
(0.0199551 0 0)
(0.0218555 0 0)
(0.0237559 0 0)
(0.0256563 0 0)
(0.0275567 0 0)
(0.029457 0 0)
(0.0313573 0 0)
(0.0332576 0 0)
(0.0351578 0 0)
(0.037058 0 0)
(0.0389582 0 0)
(0.0408583 0 0)
(0.0427584 0 0)
(0.0446585 0 0)
(0.0465585 0 0)
(0.0484585 0 0)
(0.0503585 0 0)
(0.0522584 0 0)
(0.0541582 0 0)
(0.056058 0 0)
(0.0579578 0 0)
(0.0598575 0 0)
(0.0617571 0 0)
(0.0636567 0 0)
(0.0655562 0 0)
(0.0674557 0 0)
(0.0693551 0 0)
(0.0712545 0 0)
(0.0731537 0 0)
(0.075053 0 0)
(0.0769521 0 0)
(0.0788512 0 0)
(0.0807502 0 0)
(0.0826491 0 0)
(0.084548 0 0)
(0.0864468 0 0)
(0.0883455 0 0)
(0.0902441 0 0)
(0.0921427 0 0)
(0.0940411 0 0)
(0.0959395 0 0)
(0.0978378 0 0)
(0.099736 0 0)
(0.101634 0 0)
(0.103532 0 0)
(0.10543 0 0)
(0.107328 0 0)
(0.109226 0 0)
(0.111123 0 0)
(0.113021 0 0)
(0.114918 0 0)
(0.116816 0 0)
(0.118713 0 0)
(0.12061 0 0)
(0.122507 0 0)
(0.124404 0 0)
(0.126301 0 0)
(0.128197 0 0)
(0.130094 0 0)
(0.13199 0 0)
(0.133886 0 0)
(0.135783 0 0)
(0.137679 0 0)
(0.139575 0 0)
(0.14147 0 0)
(0.143366 0 0)
(0.145262 0 0)
(0.147157 0 0)
(0.149052 0 0)
(0.150947 0 0)
(0.152842 0 0)
(0.154737 0 0)
(0.156632 0 0)
(0.158527 0 0)
(0.160421 0 0)
(0.162315 0 0)
(0.164209 0 0)
(0.166103 0 0)
(0.167997 0 0)
(0.169891 0 0)
(0.171784 0 0)
(0.173678 0 0)
(0.175571 0 0)
(0.177464 0 0)
(0.179357 0 0)
(0.18125 0 0)
(0.183142 0 0)
(0.185034 0 0)
(0.186927 0 0)
(0.188819 0 0)
(0.19071 0 0)
(0.192602 0 0)
(0.194494 0 0)
(0.196385 0 0)
(0.198276 0 0)
(0.200167 0 0)
(0.202058 0 0)
(0.203948 0 0)
(0.205838 0 0)
(0.207729 0 0)
(0.209619 0 0)
(0.211508 0 0)
(0.213398 0 0)
(0.215287 0 0)
(0.217176 0 0)
(0.219065 0 0)
(0.220954 0 0)
(0.222843 0 0)
(0.224731 0 0)
(0.226619 0 0)
(0.228507 0 0)
(0.230395 0 0)
(0.232282 0 0)
(0.234169 0 0)
(0.236056 0 0)
(0.237943 0 0)
(0.23983 0 0)
(0.241716 0 0)
(0.243602 0 0)
(0.245488 0 0)
(0.247374 0 0)
(0.249259 0 0)
(0.251144 0 0)
(0.253029 0 0)
(0.254914 0 0)
(0.256798 0 0)
(0.258682 0 0)
(0.260566 0 0)
(0.26245 0 0)
(0.264333 0 0)
(0.266216 0 0)
(0.268099 0 0)
(0.269982 0 0)
(0.271864 0 0)
(0.273746 0 0)
(0.275628 0 0)
(0.27751 0 0)
(0.279391 0 0)
(0.281272 0 0)
(0.283153 0 0)
(0.285033 0 0)
(0.286914 0 0)
(0.288793 0 0)
(0.290673 0 0)
(0.292552 0 0)
(0.294431 0 0)
(0.29631 0 0)
(0.298189 0 0)
(0.300067 0 0)
(0.301945 0 0)
(0.303822 0 0)
(0.305699 0 0)
(0.307576 0 0)
(0.309453 0 0)
(0.311329 0 0)
(0.313205 0 0)
(0.315081 0 0)
(0.316956 0 0)
(0.318832 0 0)
(0.320706 0 0)
(0.322581 0 0)
(0.324455 0 0)
(0.326329 0 0)
(0.328202 0 0)
(0.330075 0 0)
(0.331948 0 0)
(0.33382 0 0)
(0.335692 0 0)
(0.337564 0 0)
(0.339435 0 0)
(0.341306 0 0)
(0.343177 0 0)
(0.345047 0 0)
(0.346917 0 0)
(0.348787 0 0)
(0.350656 0 0)
(0.352525 0 0)
(0.354394 0 0)
(0.356262 0 0)
(0.35813 0 0)
(0.359997 0 0)
(0.361864 0 0)
(0.363731 0 0)
(0.365597 0 0)
(0.367463 0 0)
(0.369329 0 0)
(0.371194 0 0)
(0.373058 0 0)
(0.374923 0 0)
(0.376787 0 0)
(0.37865 0 0)
(0.380513 0 0)
(0.382376 0 0)
(0.384238 0 0)
(0.3861 0 0)
(0.387962 0 0)
(0.389823 0 0)
(0.391683 0 0)
(0.393544 0 0)
(0.395403 0 0)
(0.397263 0 0)
(0.399122 0 0)
(0.40098 0 0)
(0.402838 0 0)
(0.404696 0 0)
(0.406553 0 0)
(0.40841 0 0)
(0.410266 0 0)
(0.412122 0 0)
(0.413978 0 0)
(0.415832 0 0)
(0.417687 0 0)
(0.419541 0 0)
(0.421395 0 0)
(0.423248 0 0)
(0.4251 0 0)
(0.426952 0 0)
(0.428804 0 0)
(0.430655 0 0)
(0.432506 0 0)
(0.434356 0 0)
(0.436206 0 0)
(0.438055 0 0)
(0.439904 0 0)
(0.441752 0 0)
(0.4436 0 0)
(0.445447 0 0)
(0.447294 0 0)
(0.44914 0 0)
(0.450985 0 0)
(0.452831 0 0)
(0.454675 0 0)
(0.456519 0 0)
(0.458363 0 0)
(0.460206 0 0)
(0.462048 0 0)
(0.46389 0 0)
(0.465732 0 0)
(0.467573 0 0)
(0.469413 0 0)
(0.471253 0 0)
(0.473092 0 0)
(0.474931 0 0)
(0.476769 0 0)
(0.478606 0 0)
(0.480443 0 0)
(0.48228 0 0)
(0.484115 0 0)
(0.485951 0 0)
(0.487785 0 0)
(0.489619 0 0)
(0.491453 0 0)
(0.493286 0 0)
(0.495118 0 0)
(0.496949 0 0)
(0.49878 0 0)
(0.500611 0 0)
(0.502441 0 0)
(0.50427 0 0)
(0.506098 0 0)
(0.507926 0 0)
(0.509754 0 0)
(0.51158 0 0)
(0.513406 0 0)
(0.515232 0 0)
(0.517056 0 0)
(0.51888 0 0)
(0.520704 0 0)
(0.522527 0 0)
(0.524349 0 0)
(0.52617 0 0)
(0.527991 0 0)
(0.529811 0 0)
(0.53163 0 0)
(0.533449 0 0)
(0.535267 0 0)
(0.537084 0 0)
(0.538901 0 0)
(0.540717 0 0)
(0.542532 0 0)
(0.544346 0 0)
(0.54616 0 0)
(0.547973 0 0)
(0.549785 0 0)
(0.551597 0 0)
(0.553408 0 0)
(0.555218 0 0)
(0.557027 0 0)
(0.558836 0 0)
(0.560644 0 0)
(0.562451 0 0)
(0.564257 0 0)
(0.566063 0 0)
(0.567868 0 0)
(0.569672 0 0)
(0.571475 0 0)
(0.573277 0 0)
(0.575079 0 0)
(0.57688 0 0)
(0.57868 0 0)
(0.580479 0 0)
(0.582277 0 0)
(0.584075 0 0)
(0.585872 0 0)
(0.587667 0 0)
(0.589463 0 0)
(0.591257 0 0)
(0.59305 0 0)
(0.594843 0 0)
(0.596634 0 0)
(0.598425 0 0)
(0.600215 0 0)
(0.602004 0 0)
(0.603792 0 0)
(0.60558 0 0)
(0.607366 0 0)
(0.609151 0 0)
(0.610936 0 0)
(0.61272 0 0)
(0.614502 0 0)
(0.616284 0 0)
(0.618065 0 0)
(0.619845 0 0)
(0.621624 0 0)
(0.623402 0 0)
(0.625179 0 0)
(0.626955 0 0)
(0.628731 0 0)
(0.630505 0 0)
(0.632278 0 0)
(0.63405 0 0)
(0.635821 0 0)
(0.637592 0 0)
(0.639361 0 0)
(0.641129 0 0)
(0.642896 0 0)
(0.644662 0 0)
(0.646428 0 0)
(0.648192 0 0)
(0.649955 0 0)
(0.651717 0 0)
(0.653477 0 0)
(0.655237 0 0)
(0.656996 0 0)
(0.658754 0 0)
(0.66051 0 0)
(0.662266 0 0)
(0.66402 0 0)
(0.665773 0 0)
(0.667525 0 0)
(0.669276 0 0)
(0.671026 0 0)
(0.672775 0 0)
(0.674522 0 0)
(0.676268 0 0)
(0.678014 0 0)
(0.679758 0 0)
(0.6815 0 0)
(0.683242 0 0)
(0.684982 0 0)
(0.686721 0 0)
(0.688459 0 0)
(0.690196 0 0)
(0.691931 0 0)
(0.693665 0 0)
(0.695398 0 0)
(0.69713 0 0)
(0.69886 0 0)
(0.700589 0 0)
(0.702317 0 0)
(0.704043 0 0)
(0.705768 0 0)
(0.707492 0 0)
(0.709215 0 0)
(0.710936 0 0)
(0.712655 0 0)
(0.714374 0 0)
(0.716091 0 0)
(0.717806 0 0)
(0.71952 0 0)
(0.721233 0 0)
(0.722944 0 0)
(0.724654 0 0)
(0.726363 0 0)
(0.728069 0 0)
(0.72977 0 0)
(0.731375 0 0)
(0.730771 0 0)
(0.686776 0 0)
(0.340207 0 0)
(-0.339027 0 0)
(-0.686519 0 0)
(-0.730754 0 0)
(-0.731372 0 0)
(-0.729768 0 0)
(-0.728067 0 0)
(-0.72636 0 0)
(-0.724652 0 0)
(-0.722942 0 0)
(-0.721231 0 0)
(-0.719518 0 0)
(-0.717804 0 0)
(-0.716088 0 0)
(-0.714371 0 0)
(-0.712653 0 0)
(-0.710933 0 0)
(-0.709212 0 0)
(-0.70749 0 0)
(-0.705766 0 0)
(-0.704041 0 0)
(-0.702315 0 0)
(-0.700587 0 0)
(-0.698858 0 0)
(-0.697128 0 0)
(-0.695396 0 0)
(-0.693663 0 0)
(-0.691929 0 0)
(-0.690194 0 0)
(-0.688457 0 0)
(-0.686719 0 0)
(-0.68498 0 0)
(-0.68324 0 0)
(-0.681498 0 0)
(-0.679755 0 0)
(-0.678011 0 0)
(-0.676266 0 0)
(-0.67452 0 0)
(-0.672772 0 0)
(-0.671024 0 0)
(-0.669274 0 0)
(-0.667523 0 0)
(-0.665771 0 0)
(-0.664018 0 0)
(-0.662264 0 0)
(-0.660508 0 0)
(-0.658752 0 0)
(-0.656994 0 0)
(-0.655235 0 0)
(-0.653475 0 0)
(-0.651715 0 0)
(-0.649953 0 0)
(-0.64819 0 0)
(-0.646426 0 0)
(-0.64466 0 0)
(-0.642894 0 0)
(-0.641127 0 0)
(-0.639359 0 0)
(-0.63759 0 0)
(-0.63582 0 0)
(-0.634048 0 0)
(-0.632276 0 0)
(-0.630503 0 0)
(-0.628729 0 0)
(-0.626954 0 0)
(-0.625177 0 0)
(-0.6234 0 0)
(-0.621622 0 0)
(-0.619843 0 0)
(-0.618063 0 0)
(-0.616282 0 0)
(-0.614501 0 0)
(-0.612718 0 0)
(-0.610934 0 0)
(-0.60915 0 0)
(-0.607364 0 0)
(-0.605578 0 0)
(-0.60379 0 0)
(-0.602002 0 0)
(-0.600213 0 0)
(-0.598423 0 0)
(-0.596633 0 0)
(-0.594841 0 0)
(-0.593048 0 0)
(-0.591255 0 0)
(-0.589461 0 0)
(-0.587666 0 0)
(-0.58587 0 0)
(-0.584073 0 0)
(-0.582276 0 0)
(-0.580477 0 0)
(-0.578678 0 0)
(-0.576878 0 0)
(-0.575077 0 0)
(-0.573276 0 0)
(-0.571473 0 0)
(-0.56967 0 0)
(-0.567866 0 0)
(-0.566061 0 0)
(-0.564256 0 0)
(-0.562449 0 0)
(-0.560642 0 0)
(-0.558834 0 0)
(-0.557026 0 0)
(-0.555216 0 0)
(-0.553406 0 0)
(-0.551595 0 0)
(-0.549784 0 0)
(-0.547972 0 0)
(-0.546159 0 0)
(-0.544345 0 0)
(-0.54253 0 0)
(-0.540715 0 0)
(-0.538899 0 0)
(-0.537083 0 0)
(-0.535265 0 0)
(-0.533447 0 0)
(-0.531629 0 0)
(-0.529809 0 0)
(-0.527989 0 0)
(-0.526169 0 0)
(-0.524347 0 0)
(-0.522525 0 0)
(-0.520702 0 0)
(-0.518879 0 0)
(-0.517055 0 0)
(-0.51523 0 0)
(-0.513405 0 0)
(-0.511579 0 0)
(-0.509752 0 0)
(-0.507925 0 0)
(-0.506097 0 0)
(-0.504268 0 0)
(-0.502439 0 0)
(-0.500609 0 0)
(-0.498779 0 0)
(-0.496948 0 0)
(-0.495116 0 0)
(-0.493284 0 0)
(-0.491451 0 0)
(-0.489618 0 0)
(-0.487784 0 0)
(-0.485949 0 0)
(-0.484114 0 0)
(-0.482278 0 0)
(-0.480442 0 0)
(-0.478605 0 0)
(-0.476768 0 0)
(-0.474929 0 0)
(-0.473091 0 0)
(-0.471252 0 0)
(-0.469412 0 0)
(-0.467572 0 0)
(-0.465731 0 0)
(-0.463889 0 0)
(-0.462047 0 0)
(-0.460205 0 0)
(-0.458362 0 0)
(-0.456518 0 0)
(-0.454674 0 0)
(-0.452829 0 0)
(-0.450984 0 0)
(-0.449139 0 0)
(-0.447293 0 0)
(-0.445446 0 0)
(-0.443599 0 0)
(-0.441751 0 0)
(-0.439903 0 0)
(-0.438054 0 0)
(-0.436205 0 0)
(-0.434355 0 0)
(-0.432505 0 0)
(-0.430654 0 0)
(-0.428803 0 0)
(-0.426951 0 0)
(-0.425099 0 0)
(-0.423247 0 0)
(-0.421394 0 0)
(-0.41954 0 0)
(-0.417686 0 0)
(-0.415832 0 0)
(-0.413977 0 0)
(-0.412121 0 0)
(-0.410265 0 0)
(-0.408409 0 0)
(-0.406552 0 0)
(-0.404695 0 0)
(-0.402838 0 0)
(-0.400979 0 0)
(-0.399121 0 0)
(-0.397262 0 0)
(-0.395403 0 0)
(-0.393543 0 0)
(-0.391683 0 0)
(-0.389822 0 0)
(-0.387961 0 0)
(-0.386099 0 0)
(-0.384238 0 0)
(-0.382375 0 0)
(-0.380512 0 0)
(-0.378649 0 0)
(-0.376786 0 0)
(-0.374922 0 0)
(-0.373058 0 0)
(-0.371193 0 0)
(-0.369328 0 0)
(-0.367462 0 0)
(-0.365596 0 0)
(-0.36373 0 0)
(-0.361863 0 0)
(-0.359996 0 0)
(-0.358129 0 0)
(-0.356261 0 0)
(-0.354393 0 0)
(-0.352525 0 0)
(-0.350656 0 0)
(-0.348786 0 0)
(-0.346917 0 0)
(-0.345047 0 0)
(-0.343176 0 0)
(-0.341306 0 0)
(-0.339435 0 0)
(-0.337563 0 0)
(-0.335692 0 0)
(-0.33382 0 0)
(-0.331947 0 0)
(-0.330074 0 0)
(-0.328201 0 0)
(-0.326328 0 0)
(-0.324454 0 0)
(-0.32258 0 0)
(-0.320706 0 0)
(-0.318831 0 0)
(-0.316956 0 0)
(-0.31508 0 0)
(-0.313205 0 0)
(-0.311329 0 0)
(-0.309452 0 0)
(-0.307576 0 0)
(-0.305699 0 0)
(-0.303822 0 0)
(-0.301944 0 0)
(-0.300066 0 0)
(-0.298188 0 0)
(-0.29631 0 0)
(-0.294431 0 0)
(-0.292552 0 0)
(-0.290673 0 0)
(-0.288793 0 0)
(-0.286913 0 0)
(-0.285033 0 0)
(-0.283152 0 0)
(-0.281272 0 0)
(-0.279391 0 0)
(-0.277509 0 0)
(-0.275628 0 0)
(-0.273746 0 0)
(-0.271864 0 0)
(-0.269982 0 0)
(-0.268099 0 0)
(-0.266216 0 0)
(-0.264333 0 0)
(-0.262449 0 0)
(-0.260566 0 0)
(-0.258682 0 0)
(-0.256798 0 0)
(-0.254913 0 0)
(-0.253029 0 0)
(-0.251144 0 0)
(-0.249259 0 0)
(-0.247373 0 0)
(-0.245488 0 0)
(-0.243602 0 0)
(-0.241716 0 0)
(-0.239829 0 0)
(-0.237943 0 0)
(-0.236056 0 0)
(-0.234169 0 0)
(-0.232282 0 0)
(-0.230394 0 0)
(-0.228507 0 0)
(-0.226619 0 0)
(-0.224731 0 0)
(-0.222842 0 0)
(-0.220954 0 0)
(-0.219065 0 0)
(-0.217176 0 0)
(-0.215287 0 0)
(-0.213398 0 0)
(-0.211508 0 0)
(-0.209618 0 0)
(-0.207728 0 0)
(-0.205838 0 0)
(-0.203948 0 0)
(-0.202057 0 0)
(-0.200167 0 0)
(-0.198276 0 0)
(-0.196385 0 0)
(-0.194493 0 0)
(-0.192602 0 0)
(-0.19071 0 0)
(-0.188818 0 0)
(-0.186926 0 0)
(-0.185034 0 0)
(-0.183142 0 0)
(-0.181249 0 0)
(-0.179357 0 0)
(-0.177464 0 0)
(-0.175571 0 0)
(-0.173678 0 0)
(-0.171784 0 0)
(-0.169891 0 0)
(-0.167997 0 0)
(-0.166103 0 0)
(-0.164209 0 0)
(-0.162315 0 0)
(-0.160421 0 0)
(-0.158526 0 0)
(-0.156632 0 0)
(-0.154737 0 0)
(-0.152842 0 0)
(-0.150947 0 0)
(-0.149052 0 0)
(-0.147157 0 0)
(-0.145262 0 0)
(-0.143366 0 0)
(-0.14147 0 0)
(-0.139575 0 0)
(-0.137679 0 0)
(-0.135783 0 0)
(-0.133886 0 0)
(-0.13199 0 0)
(-0.130094 0 0)
(-0.128197 0 0)
(-0.1263 0 0)
(-0.124404 0 0)
(-0.122507 0 0)
(-0.12061 0 0)
(-0.118713 0 0)
(-0.116815 0 0)
(-0.114918 0 0)
(-0.113021 0 0)
(-0.111123 0 0)
(-0.109226 0 0)
(-0.107328 0 0)
(-0.10543 0 0)
(-0.103532 0 0)
(-0.101634 0 0)
(-0.0997359 0 0)
(-0.0978377 0 0)
(-0.0959395 0 0)
(-0.0940411 0 0)
(-0.0921426 0 0)
(-0.0902441 0 0)
(-0.0883455 0 0)
(-0.0864467 0 0)
(-0.084548 0 0)
(-0.0826491 0 0)
(-0.0807502 0 0)
(-0.0788512 0 0)
(-0.0769521 0 0)
(-0.0750529 0 0)
(-0.0731537 0 0)
(-0.0712544 0 0)
(-0.0693551 0 0)
(-0.0674557 0 0)
(-0.0655562 0 0)
(-0.0636567 0 0)
(-0.0617571 0 0)
(-0.0598574 0 0)
(-0.0579577 0 0)
(-0.056058 0 0)
(-0.0541582 0 0)
(-0.0522583 0 0)
(-0.0503584 0 0)
(-0.0484585 0 0)
(-0.0465585 0 0)
(-0.0446585 0 0)
(-0.0427584 0 0)
(-0.0408583 0 0)
(-0.0389582 0 0)
(-0.037058 0 0)
(-0.0351578 0 0)
(-0.0332575 0 0)
(-0.0313573 0 0)
(-0.029457 0 0)
(-0.0275566 0 0)
(-0.0256563 0 0)
(-0.0237559 0 0)
(-0.0218555 0 0)
(-0.0199551 0 0)
(-0.0180547 0 0)
(-0.0161542 0 0)
(-0.0142538 0 0)
(-0.0123533 0 0)
(-0.0104528 0 0)
(-0.00855231 0 0)
(-0.0066518 0 0)
(-0.00475129 0 0)
(-0.00285078 0 0)
(-0.000950259 0 0)
)
;

boundaryField
{
    left
    {
        type            fixedValue;
        value           uniform (0 0 0);
    }
    right
    {
        type            fixedValue;
        value           uniform (0 0 0);
    }
    frontBackUpDown
    {
        type            empty;
    }
}


// ************************************************************************* //
