/*--------------------------------*- C++ -*----------------------------------*\
| =========                 |                                                 |
| \\      /  F ield         | OpenFOAM: The Open Source CFD Toolbox           |
|  \\    /   O peration     | Version:  2412                                  |
|   \\  /    A nd           | Website:  www.openfoam.com                      |
|    \\/     M anipulation  |                                                 |
\*---------------------------------------------------------------------------*/
FoamFile
{
    version     2.0;
    format      ascii;
    arch        "LSB;label=32;scalar=64";
    class       volVectorField;
    location    "1";
    object      U_0_0;
}
// * * * * * * * * * * * * * * * * * * * * * * * * * * * * * * * * * * * * * //

dimensions      [0 1 -1 0 0 0 0];

internalField   nonuniform List<vector> 
800
(
(0.000949892 0 0)
(0.00284969 0 0)
(0.00474948 0 0)
(0.00664927 0 0)
(0.00854906 0 0)
(0.0104488 0 0)
(0.0123486 0 0)
(0.0142484 0 0)
(0.0161481 0 0)
(0.0180478 0 0)
(0.0199475 0 0)
(0.0218472 0 0)
(0.0237469 0 0)
(0.0256466 0 0)
(0.0275462 0 0)
(0.0294458 0 0)
(0.0313454 0 0)
(0.0332449 0 0)
(0.0351445 0 0)
(0.037044 0 0)
(0.0389434 0 0)
(0.0408428 0 0)
(0.0427422 0 0)
(0.0446416 0 0)
(0.0465409 0 0)
(0.0484402 0 0)
(0.0503394 0 0)
(0.0522386 0 0)
(0.0541377 0 0)
(0.0560368 0 0)
(0.0579358 0 0)
(0.0598348 0 0)
(0.0617337 0 0)
(0.0636326 0 0)
(0.0655314 0 0)
(0.0674301 0 0)
(0.0693288 0 0)
(0.0712275 0 0)
(0.073126 0 0)
(0.0750245 0 0)
(0.076923 0 0)
(0.0788213 0 0)
(0.0807196 0 0)
(0.0826178 0 0)
(0.084516 0 0)
(0.0864141 0 0)
(0.088312 0 0)
(0.09021 0 0)
(0.0921078 0 0)
(0.0940055 0 0)
(0.0959032 0 0)
(0.0978008 0 0)
(0.0996983 0 0)
(0.101596 0 0)
(0.103493 0 0)
(0.10539 0 0)
(0.107287 0 0)
(0.109184 0 0)
(0.111081 0 0)
(0.112978 0 0)
(0.114875 0 0)
(0.116771 0 0)
(0.118668 0 0)
(0.120564 0 0)
(0.122461 0 0)
(0.124357 0 0)
(0.126253 0 0)
(0.128149 0 0)
(0.130045 0 0)
(0.13194 0 0)
(0.133836 0 0)
(0.135731 0 0)
(0.137627 0 0)
(0.139522 0 0)
(0.141417 0 0)
(0.143312 0 0)
(0.145207 0 0)
(0.147101 0 0)
(0.148996 0 0)
(0.15089 0 0)
(0.152785 0 0)
(0.154679 0 0)
(0.156573 0 0)
(0.158467 0 0)
(0.16036 0 0)
(0.162254 0 0)
(0.164147 0 0)
(0.166041 0 0)
(0.167934 0 0)
(0.169827 0 0)
(0.17172 0 0)
(0.173612 0 0)
(0.175505 0 0)
(0.177397 0 0)
(0.179289 0 0)
(0.181181 0 0)
(0.183073 0 0)
(0.184965 0 0)
(0.186856 0 0)
(0.188747 0 0)
(0.190638 0 0)
(0.192529 0 0)
(0.19442 0 0)
(0.196311 0 0)
(0.198201 0 0)
(0.200091 0 0)
(0.201981 0 0)
(0.203871 0 0)
(0.205761 0 0)
(0.20765 0 0)
(0.20954 0 0)
(0.211429 0 0)
(0.213317 0 0)
(0.215206 0 0)
(0.217095 0 0)
(0.218983 0 0)
(0.220871 0 0)
(0.222759 0 0)
(0.224646 0 0)
(0.226534 0 0)
(0.228421 0 0)
(0.230308 0 0)
(0.232195 0 0)
(0.234081 0 0)
(0.235967 0 0)
(0.237854 0 0)
(0.239739 0 0)
(0.241625 0 0)
(0.24351 0 0)
(0.245396 0 0)
(0.247281 0 0)
(0.249165 0 0)
(0.25105 0 0)
(0.252934 0 0)
(0.254818 0 0)
(0.256702 0 0)
(0.258585 0 0)
(0.260468 0 0)
(0.262351 0 0)
(0.264234 0 0)
(0.266116 0 0)
(0.267999 0 0)
(0.269881 0 0)
(0.271762 0 0)
(0.273644 0 0)
(0.275525 0 0)
(0.277406 0 0)
(0.279286 0 0)
(0.281167 0 0)
(0.283047 0 0)
(0.284926 0 0)
(0.286806 0 0)
(0.288685 0 0)
(0.290564 0 0)
(0.292443 0 0)
(0.294321 0 0)
(0.296199 0 0)
(0.298077 0 0)
(0.299954 0 0)
(0.301832 0 0)
(0.303708 0 0)
(0.305585 0 0)
(0.307461 0 0)
(0.309337 0 0)
(0.311213 0 0)
(0.313088 0 0)
(0.314963 0 0)
(0.316838 0 0)
(0.318712 0 0)
(0.320586 0 0)
(0.32246 0 0)
(0.324333 0 0)
(0.326207 0 0)
(0.328079 0 0)
(0.329952 0 0)
(0.331824 0 0)
(0.333696 0 0)
(0.335567 0 0)
(0.337438 0 0)
(0.339309 0 0)
(0.341179 0 0)
(0.343049 0 0)
(0.344919 0 0)
(0.346788 0 0)
(0.348657 0 0)
(0.350526 0 0)
(0.352394 0 0)
(0.354262 0 0)
(0.356129 0 0)
(0.357996 0 0)
(0.359863 0 0)
(0.361729 0 0)
(0.363595 0 0)
(0.365461 0 0)
(0.367326 0 0)
(0.369191 0 0)
(0.371056 0 0)
(0.37292 0 0)
(0.374783 0 0)
(0.376647 0 0)
(0.378509 0 0)
(0.380372 0 0)
(0.382234 0 0)
(0.384096 0 0)
(0.385957 0 0)
(0.387818 0 0)
(0.389678 0 0)
(0.391538 0 0)
(0.393398 0 0)
(0.395257 0 0)
(0.397116 0 0)
(0.398974 0 0)
(0.400832 0 0)
(0.402689 0 0)
(0.404546 0 0)
(0.406403 0 0)
(0.408259 0 0)
(0.410114 0 0)
(0.41197 0 0)
(0.413824 0 0)
(0.415679 0 0)
(0.417532 0 0)
(0.419386 0 0)
(0.421239 0 0)
(0.423091 0 0)
(0.424943 0 0)
(0.426795 0 0)
(0.428646 0 0)
(0.430496 0 0)
(0.432346 0 0)
(0.434196 0 0)
(0.436045 0 0)
(0.437893 0 0)
(0.439742 0 0)
(0.441589 0 0)
(0.443436 0 0)
(0.445283 0 0)
(0.447129 0 0)
(0.448974 0 0)
(0.450819 0 0)
(0.452664 0 0)
(0.454508 0 0)
(0.456351 0 0)
(0.458194 0 0)
(0.460037 0 0)
(0.461879 0 0)
(0.46372 0 0)
(0.465561 0 0)
(0.467401 0 0)
(0.469241 0 0)
(0.47108 0 0)
(0.472918 0 0)
(0.474756 0 0)
(0.476594 0 0)
(0.478431 0 0)
(0.480267 0 0)
(0.482103 0 0)
(0.483938 0 0)
(0.485773 0 0)
(0.487607 0 0)
(0.48944 0 0)
(0.491273 0 0)
(0.493105 0 0)
(0.494937 0 0)
(0.496768 0 0)
(0.498598 0 0)
(0.500428 0 0)
(0.502257 0 0)
(0.504086 0 0)
(0.505914 0 0)
(0.507741 0 0)
(0.509568 0 0)
(0.511394 0 0)
(0.513219 0 0)
(0.515044 0 0)
(0.516868 0 0)
(0.518692 0 0)
(0.520514 0 0)
(0.522337 0 0)
(0.524158 0 0)
(0.525979 0 0)
(0.527799 0 0)
(0.529618 0 0)
(0.531437 0 0)
(0.533255 0 0)
(0.535073 0 0)
(0.536889 0 0)
(0.538705 0 0)
(0.540521 0 0)
(0.542335 0 0)
(0.544149 0 0)
(0.545963 0 0)
(0.547775 0 0)
(0.549587 0 0)
(0.551398 0 0)
(0.553208 0 0)
(0.555018 0 0)
(0.556826 0 0)
(0.558634 0 0)
(0.560442 0 0)
(0.562248 0 0)
(0.564054 0 0)
(0.565859 0 0)
(0.567663 0 0)
(0.569467 0 0)
(0.571269 0 0)
(0.573071 0 0)
(0.574872 0 0)
(0.576672 0 0)
(0.578472 0 0)
(0.58027 0 0)
(0.582068 0 0)
(0.583865 0 0)
(0.585662 0 0)
(0.587457 0 0)
(0.589251 0 0)
(0.591045 0 0)
(0.592838 0 0)
(0.59463 0 0)
(0.596421 0 0)
(0.598211 0 0)
(0.600001 0 0)
(0.601789 0 0)
(0.603577 0 0)
(0.605364 0 0)
(0.607149 0 0)
(0.608934 0 0)
(0.610719 0 0)
(0.612502 0 0)
(0.614284 0 0)
(0.616065 0 0)
(0.617846 0 0)
(0.619625 0 0)
(0.621403 0 0)
(0.623181 0 0)
(0.624958 0 0)
(0.626733 0 0)
(0.628508 0 0)
(0.630282 0 0)
(0.632054 0 0)
(0.633826 0 0)
(0.635597 0 0)
(0.637366 0 0)
(0.639135 0 0)
(0.640903 0 0)
(0.64267 0 0)
(0.644435 0 0)
(0.6462 0 0)
(0.647963 0 0)
(0.649726 0 0)
(0.651487 0 0)
(0.653248 0 0)
(0.655007 0 0)
(0.656765 0 0)
(0.658523 0 0)
(0.660279 0 0)
(0.662034 0 0)
(0.663787 0 0)
(0.66554 0 0)
(0.667292 0 0)
(0.669042 0 0)
(0.670792 0 0)
(0.67254 0 0)
(0.674287 0 0)
(0.676033 0 0)
(0.677777 0 0)
(0.679521 0 0)
(0.681263 0 0)
(0.683004 0 0)
(0.684744 0 0)
(0.686483 0 0)
(0.68822 0 0)
(0.689957 0 0)
(0.691692 0 0)
(0.693425 0 0)
(0.695158 0 0)
(0.696889 0 0)
(0.698619 0 0)
(0.700348 0 0)
(0.702075 0 0)
(0.703801 0 0)
(0.705526 0 0)
(0.707249 0 0)
(0.708971 0 0)
(0.710692 0 0)
(0.712411 0 0)
(0.714129 0 0)
(0.715845 0 0)
(0.71756 0 0)
(0.719274 0 0)
(0.720987 0 0)
(0.722697 0 0)
(0.724407 0 0)
(0.726115 0 0)
(0.727821 0 0)
(0.729522 0 0)
(0.731125 0 0)
(0.730509 0 0)
(0.686446 0 0)
(0.339976 0 0)
(-0.338796 0 0)
(-0.686189 0 0)
(-0.730491 0 0)
(-0.731122 0 0)
(-0.72952 0 0)
(-0.727819 0 0)
(-0.726113 0 0)
(-0.724405 0 0)
(-0.722695 0 0)
(-0.720984 0 0)
(-0.719272 0 0)
(-0.717558 0 0)
(-0.715843 0 0)
(-0.714127 0 0)
(-0.712409 0 0)
(-0.710689 0 0)
(-0.708969 0 0)
(-0.707247 0 0)
(-0.705523 0 0)
(-0.703799 0 0)
(-0.702073 0 0)
(-0.700345 0 0)
(-0.698617 0 0)
(-0.696887 0 0)
(-0.695156 0 0)
(-0.693423 0 0)
(-0.691689 0 0)
(-0.689954 0 0)
(-0.688218 0 0)
(-0.686481 0 0)
(-0.684742 0 0)
(-0.683002 0 0)
(-0.681261 0 0)
(-0.679519 0 0)
(-0.677775 0 0)
(-0.676031 0 0)
(-0.674285 0 0)
(-0.672538 0 0)
(-0.67079 0 0)
(-0.66904 0 0)
(-0.66729 0 0)
(-0.665538 0 0)
(-0.663785 0 0)
(-0.662032 0 0)
(-0.660277 0 0)
(-0.658521 0 0)
(-0.656763 0 0)
(-0.655005 0 0)
(-0.653246 0 0)
(-0.651485 0 0)
(-0.649724 0 0)
(-0.647961 0 0)
(-0.646198 0 0)
(-0.644433 0 0)
(-0.642668 0 0)
(-0.640901 0 0)
(-0.639133 0 0)
(-0.637365 0 0)
(-0.635595 0 0)
(-0.633824 0 0)
(-0.632052 0 0)
(-0.63028 0 0)
(-0.628506 0 0)
(-0.626731 0 0)
(-0.624956 0 0)
(-0.623179 0 0)
(-0.621402 0 0)
(-0.619623 0 0)
(-0.617844 0 0)
(-0.616063 0 0)
(-0.614282 0 0)
(-0.6125 0 0)
(-0.610717 0 0)
(-0.608933 0 0)
(-0.607148 0 0)
(-0.605362 0 0)
(-0.603575 0 0)
(-0.601787 0 0)
(-0.599999 0 0)
(-0.59821 0 0)
(-0.596419 0 0)
(-0.594628 0 0)
(-0.592836 0 0)
(-0.591043 0 0)
(-0.58925 0 0)
(-0.587455 0 0)
(-0.58566 0 0)
(-0.583864 0 0)
(-0.582067 0 0)
(-0.580269 0 0)
(-0.57847 0 0)
(-0.576671 0 0)
(-0.57487 0 0)
(-0.573069 0 0)
(-0.571268 0 0)
(-0.569465 0 0)
(-0.567661 0 0)
(-0.565857 0 0)
(-0.564052 0 0)
(-0.562246 0 0)
(-0.56044 0 0)
(-0.558633 0 0)
(-0.556825 0 0)
(-0.555016 0 0)
(-0.553206 0 0)
(-0.551396 0 0)
(-0.549585 0 0)
(-0.547773 0 0)
(-0.545961 0 0)
(-0.544148 0 0)
(-0.542334 0 0)
(-0.540519 0 0)
(-0.538704 0 0)
(-0.536888 0 0)
(-0.535071 0 0)
(-0.533254 0 0)
(-0.531436 0 0)
(-0.529617 0 0)
(-0.527798 0 0)
(-0.525977 0 0)
(-0.524157 0 0)
(-0.522335 0 0)
(-0.520513 0 0)
(-0.51869 0 0)
(-0.516867 0 0)
(-0.515043 0 0)
(-0.513218 0 0)
(-0.511392 0 0)
(-0.509566 0 0)
(-0.50774 0 0)
(-0.505912 0 0)
(-0.504084 0 0)
(-0.502256 0 0)
(-0.500427 0 0)
(-0.498597 0 0)
(-0.496766 0 0)
(-0.494935 0 0)
(-0.493104 0 0)
(-0.491272 0 0)
(-0.489439 0 0)
(-0.487605 0 0)
(-0.485771 0 0)
(-0.483937 0 0)
(-0.482102 0 0)
(-0.480266 0 0)
(-0.47843 0 0)
(-0.476593 0 0)
(-0.474755 0 0)
(-0.472917 0 0)
(-0.471079 0 0)
(-0.46924 0 0)
(-0.4674 0 0)
(-0.46556 0 0)
(-0.463719 0 0)
(-0.461877 0 0)
(-0.460036 0 0)
(-0.458193 0 0)
(-0.45635 0 0)
(-0.454507 0 0)
(-0.452663 0 0)
(-0.450818 0 0)
(-0.448973 0 0)
(-0.447128 0 0)
(-0.445282 0 0)
(-0.443435 0 0)
(-0.441588 0 0)
(-0.43974 0 0)
(-0.437892 0 0)
(-0.436044 0 0)
(-0.434195 0 0)
(-0.432345 0 0)
(-0.430495 0 0)
(-0.428645 0 0)
(-0.426794 0 0)
(-0.424942 0 0)
(-0.42309 0 0)
(-0.421238 0 0)
(-0.419385 0 0)
(-0.417531 0 0)
(-0.415678 0 0)
(-0.413823 0 0)
(-0.411969 0 0)
(-0.410113 0 0)
(-0.408258 0 0)
(-0.406402 0 0)
(-0.404545 0 0)
(-0.402688 0 0)
(-0.400831 0 0)
(-0.398973 0 0)
(-0.397115 0 0)
(-0.395256 0 0)
(-0.393397 0 0)
(-0.391537 0 0)
(-0.389677 0 0)
(-0.387817 0 0)
(-0.385956 0 0)
(-0.384095 0 0)
(-0.382233 0 0)
(-0.380371 0 0)
(-0.378509 0 0)
(-0.376646 0 0)
(-0.374782 0 0)
(-0.372919 0 0)
(-0.371055 0 0)
(-0.36919 0 0)
(-0.367325 0 0)
(-0.36546 0 0)
(-0.363595 0 0)
(-0.361729 0 0)
(-0.359862 0 0)
(-0.357996 0 0)
(-0.356128 0 0)
(-0.354261 0 0)
(-0.352393 0 0)
(-0.350525 0 0)
(-0.348656 0 0)
(-0.346787 0 0)
(-0.344918 0 0)
(-0.343048 0 0)
(-0.341178 0 0)
(-0.339308 0 0)
(-0.337437 0 0)
(-0.335566 0 0)
(-0.333695 0 0)
(-0.331823 0 0)
(-0.329951 0 0)
(-0.328079 0 0)
(-0.326206 0 0)
(-0.324333 0 0)
(-0.322459 0 0)
(-0.320586 0 0)
(-0.318712 0 0)
(-0.316837 0 0)
(-0.314963 0 0)
(-0.313088 0 0)
(-0.311212 0 0)
(-0.309337 0 0)
(-0.307461 0 0)
(-0.305584 0 0)
(-0.303708 0 0)
(-0.301831 0 0)
(-0.299954 0 0)
(-0.298076 0 0)
(-0.296199 0 0)
(-0.294321 0 0)
(-0.292442 0 0)
(-0.290564 0 0)
(-0.288685 0 0)
(-0.286805 0 0)
(-0.284926 0 0)
(-0.283046 0 0)
(-0.281166 0 0)
(-0.279286 0 0)
(-0.277405 0 0)
(-0.275524 0 0)
(-0.273643 0 0)
(-0.271762 0 0)
(-0.26988 0 0)
(-0.267998 0 0)
(-0.266116 0 0)
(-0.264234 0 0)
(-0.262351 0 0)
(-0.260468 0 0)
(-0.258585 0 0)
(-0.256701 0 0)
(-0.254817 0 0)
(-0.252934 0 0)
(-0.251049 0 0)
(-0.249165 0 0)
(-0.24728 0 0)
(-0.245395 0 0)
(-0.24351 0 0)
(-0.241625 0 0)
(-0.239739 0 0)
(-0.237853 0 0)
(-0.235967 0 0)
(-0.234081 0 0)
(-0.232194 0 0)
(-0.230308 0 0)
(-0.228421 0 0)
(-0.226533 0 0)
(-0.224646 0 0)
(-0.222758 0 0)
(-0.220871 0 0)
(-0.218983 0 0)
(-0.217094 0 0)
(-0.215206 0 0)
(-0.213317 0 0)
(-0.211428 0 0)
(-0.209539 0 0)
(-0.20765 0 0)
(-0.205761 0 0)
(-0.203871 0 0)
(-0.201981 0 0)
(-0.200091 0 0)
(-0.198201 0 0)
(-0.19631 0 0)
(-0.19442 0 0)
(-0.192529 0 0)
(-0.190638 0 0)
(-0.188747 0 0)
(-0.186856 0 0)
(-0.184964 0 0)
(-0.183073 0 0)
(-0.181181 0 0)
(-0.179289 0 0)
(-0.177397 0 0)
(-0.175504 0 0)
(-0.173612 0 0)
(-0.171719 0 0)
(-0.169827 0 0)
(-0.167934 0 0)
(-0.16604 0 0)
(-0.164147 0 0)
(-0.162254 0 0)
(-0.16036 0 0)
(-0.158467 0 0)
(-0.156573 0 0)
(-0.154679 0 0)
(-0.152785 0 0)
(-0.15089 0 0)
(-0.148996 0 0)
(-0.147101 0 0)
(-0.145207 0 0)
(-0.143312 0 0)
(-0.141417 0 0)
(-0.139522 0 0)
(-0.137627 0 0)
(-0.135731 0 0)
(-0.133836 0 0)
(-0.13194 0 0)
(-0.130044 0 0)
(-0.128149 0 0)
(-0.126253 0 0)
(-0.124357 0 0)
(-0.12246 0 0)
(-0.120564 0 0)
(-0.118668 0 0)
(-0.116771 0 0)
(-0.114875 0 0)
(-0.112978 0 0)
(-0.111081 0 0)
(-0.109184 0 0)
(-0.107287 0 0)
(-0.10539 0 0)
(-0.103493 0 0)
(-0.101596 0 0)
(-0.0996982 0 0)
(-0.0978007 0 0)
(-0.0959031 0 0)
(-0.0940055 0 0)
(-0.0921077 0 0)
(-0.0902099 0 0)
(-0.088312 0 0)
(-0.086414 0 0)
(-0.0845159 0 0)
(-0.0826178 0 0)
(-0.0807196 0 0)
(-0.0788213 0 0)
(-0.0769229 0 0)
(-0.0750245 0 0)
(-0.073126 0 0)
(-0.0712274 0 0)
(-0.0693288 0 0)
(-0.0674301 0 0)
(-0.0655314 0 0)
(-0.0636325 0 0)
(-0.0617337 0 0)
(-0.0598348 0 0)
(-0.0579358 0 0)
(-0.0560367 0 0)
(-0.0541377 0 0)
(-0.0522385 0 0)
(-0.0503394 0 0)
(-0.0484401 0 0)
(-0.0465409 0 0)
(-0.0446416 0 0)
(-0.0427422 0 0)
(-0.0408428 0 0)
(-0.0389434 0 0)
(-0.037044 0 0)
(-0.0351445 0 0)
(-0.0332449 0 0)
(-0.0313454 0 0)
(-0.0294458 0 0)
(-0.0275462 0 0)
(-0.0256466 0 0)
(-0.0237469 0 0)
(-0.0218472 0 0)
(-0.0199475 0 0)
(-0.0180478 0 0)
(-0.0161481 0 0)
(-0.0142484 0 0)
(-0.0123486 0 0)
(-0.0104488 0 0)
(-0.00854906 0 0)
(-0.00664928 0 0)
(-0.00474949 0 0)
(-0.0028497 0 0)
(-0.000949899 0 0)
)
;

boundaryField
{
    left
    {
        type            fixedValue;
        value           uniform (0 0 0);
    }
    right
    {
        type            fixedValue;
        value           uniform (0 0 0);
    }
    frontBackUpDown
    {
        type            empty;
    }
}


// ************************************************************************* //
