/*--------------------------------*- C++ -*----------------------------------*\
| =========                 |                                                 |
| \\      /  F ield         | OpenFOAM: The Open Source CFD Toolbox           |
|  \\    /   O peration     | Version:  2412                                  |
|   \\  /    A nd           | Website:  www.openfoam.com                      |
|    \\/     M anipulation  |                                                 |
\*---------------------------------------------------------------------------*/
FoamFile
{
    version     2.0;
    format      ascii;
    arch        "LSB;label=32;scalar=64";
    class       surfaceScalarField;
    location    "0.38";
    object      phi;
}
// * * * * * * * * * * * * * * * * * * * * * * * * * * * * * * * * * * * * * //

dimensions      [0 3 -1 0 0 0 0];

oriented        oriented;

internalField   nonuniform List<scalar> 
799
(
3.58082e-05
7.16164e-05
0.000107424
0.000143231
0.000179038
0.000214843
0.000250647
0.00028645
0.000322251
0.00035805
0.000393846
0.000429641
0.000465433
0.000501222
0.000537008
0.000572791
0.000608571
0.000644347
0.000680119
0.000715888
0.000751652
0.000787411
0.000823166
0.000858916
0.000894661
0.0009304
0.000966134
0.00100186
0.00103758
0.0010733
0.00110901
0.00114471
0.00118041
0.0012161
0.00125178
0.00128745
0.00132312
0.00135878
0.00139443
0.00143007
0.00146571
0.00150133
0.00153695
0.00157255
0.00160815
0.00164374
0.00167932
0.00171488
0.00175044
0.00178599
0.00182152
0.00185705
0.00189256
0.00192806
0.00196355
0.00199903
0.00203449
0.00206995
0.00210539
0.00214082
0.00217623
0.00221163
0.00224702
0.00228239
0.00231775
0.0023531
0.00238843
0.00242374
0.00245905
0.00249433
0.0025296
0.00256486
0.00260009
0.00263532
0.00267052
0.00270571
0.00274088
0.00277604
0.00281118
0.00284629
0.0028814
0.00291648
0.00295154
0.00298659
0.00302162
0.00305662
0.00309161
0.00312658
0.00316153
0.00319646
0.00323136
0.00326625
0.00330112
0.00333596
0.00337078
0.00340558
0.00344036
0.00347512
0.00350985
0.00354456
0.00357925
0.00361391
0.00364855
0.00368317
0.00371776
0.00375232
0.00378686
0.00382138
0.00385587
0.00389033
0.00392477
0.00395918
0.00399357
0.00402793
0.00406226
0.00409656
0.00413083
0.00416508
0.0041993
0.00423349
0.00426765
0.00430178
0.00433588
0.00436995
0.00440399
0.00443799
0.00447197
0.00450592
0.00453983
0.00457371
0.00460756
0.00464138
0.00467516
0.00470891
0.00474263
0.00477631
0.00480996
0.00484357
0.00487715
0.00491069
0.00494419
0.00497766
0.0050111
0.00504449
0.00507785
0.00511117
0.00514445
0.00517769
0.0052109
0.00524406
0.00527718
0.00531027
0.00534331
0.00537632
0.00540928
0.0054422
0.00547507
0.00550791
0.0055407
0.00557345
0.00560615
0.00563881
0.00567143
0.005704
0.00573652
0.005769
0.00580143
0.00583381
0.00586615
0.00589844
0.00593068
0.00596287
0.00599501
0.0060271
0.00605914
0.00609114
0.00612307
0.00615496
0.0061868
0.00621858
0.00625031
0.00628198
0.0063136
0.00634517
0.00637668
0.00640813
0.00643953
0.00647087
0.00650215
0.00653337
0.00656454
0.00659564
0.00662669
0.00665767
0.0066886
0.00671946
0.00675026
0.00678099
0.00681167
0.00684227
0.00687282
0.00690329
0.0069337
0.00696405
0.00699432
0.00702453
0.00705467
0.00708473
0.00711473
0.00714466
0.00717451
0.0072043
0.007234
0.00726364
0.0072932
0.00732268
0.00735209
0.00738142
0.00741067
0.00743984
0.00746894
0.00749795
0.00752688
0.00755573
0.0075845
0.00761318
0.00764178
0.00767029
0.00769871
0.00772705
0.0077553
0.00778345
0.00781152
0.0078395
0.00786738
0.00789517
0.00792287
0.00795047
0.00797797
0.00800538
0.00803268
0.00805989
0.008087
0.008114
0.0081409
0.0081677
0.00819439
0.00822097
0.00824744
0.00827381
0.00830006
0.00832621
0.00835223
0.00837815
0.00840395
0.00842963
0.00845519
0.00848063
0.00850595
0.00853115
0.00855622
0.00858117
0.00860598
0.00863067
0.00865523
0.00867966
0.00870395
0.0087281
0.00875212
0.008776
0.00879973
0.00882333
0.00884678
0.00887008
0.00889323
0.00891623
0.00893908
0.00896177
0.00898431
0.00900669
0.00902891
0.00905096
0.00907285
0.00909457
0.00911612
0.00913749
0.00915869
0.00917972
0.00920056
0.00922122
0.00924169
0.00926198
0.00928207
0.00930197
0.00932168
0.00934118
0.00936048
0.00937957
0.00939846
0.00941713
0.00943559
0.00945382
0.00947183
0.00948962
0.00950717
0.0095245
0.00954158
0.00955842
0.00957501
0.00959136
0.00960745
0.00962328
0.00963884
0.00965414
0.00966916
0.00968391
0.00969837
0.00971255
0.00972643
0.00974001
0.00975328
0.00976624
0.00977889
0.00979121
0.0098032
0.00981486
0.00982617
0.00983713
0.00984774
0.00985798
0.00986784
0.00987733
0.00988642
0.00989512
0.0099034
0.00991128
0.00991872
0.00992573
0.00993229
0.0099384
0.00994404
0.0099492
0.00995386
0.00995802
0.00996167
0.00996478
0.00996735
0.00996936
0.00997079
0.00997163
0.00997186
0.00997147
0.00997043
0.00996873
0.00996634
0.00996325
0.00995943
0.00995486
0.00994952
0.00994337
0.0099364
0.00992856
0.00991984
0.00991019
0.00989959
0.00988799
0.00987536
0.00986166
0.00984684
0.00983086
0.00981366
0.00979519
0.00977539
0.00975419
0.00973154
0.00970735
0.00968155
0.00965405
0.00962476
0.00959356
0.00956035
0.009525
0.00948738
0.00944732
0.00940465
0.00935918
0.00931069
0.00925893
0.00920361
0.0091444
0.0090809
0.00901267
0.00893915
0.00885967
0.0087734
0.0086793
0.00857925
0.00833613
0.00616902
4.36041e-06
-0.00616387
-0.00833525
-0.00857908
-0.00867915
-0.00877327
-0.00885956
-0.00893905
-0.00901258
-0.00908082
-0.00914432
-0.00920354
-0.00925887
-0.00931064
-0.00935913
-0.0094046
-0.00944728
-0.00948734
-0.00952497
-0.00956032
-0.00959353
-0.00962473
-0.00965403
-0.00968153
-0.00970734
-0.00973152
-0.00975418
-0.00977537
-0.00979517
-0.00981365
-0.00983085
-0.00984684
-0.00986166
-0.00987536
-0.00988799
-0.00989958
-0.00991019
-0.00991983
-0.00992856
-0.00993639
-0.00994337
-0.00994952
-0.00995486
-0.00995943
-0.00996325
-0.00996634
-0.00996873
-0.00997043
-0.00997147
-0.00997186
-0.00997163
-0.00997079
-0.00996935
-0.00996735
-0.00996478
-0.00996167
-0.00995802
-0.00995386
-0.00994919
-0.00994404
-0.0099384
-0.00993229
-0.00992573
-0.00991872
-0.00991127
-0.0099034
-0.00989511
-0.00988642
-0.00987732
-0.00986784
-0.00985797
-0.00984773
-0.00983713
-0.00982617
-0.00981485
-0.0098032
-0.00979121
-0.00977888
-0.00976624
-0.00975327
-0.00974
-0.00972642
-0.00971254
-0.00969836
-0.0096839
-0.00966916
-0.00965413
-0.00963883
-0.00962327
-0.00960744
-0.00959135
-0.009575
-0.00955841
-0.00954157
-0.00952449
-0.00950716
-0.00948961
-0.00947182
-0.00945381
-0.00943557
-0.00941712
-0.00939845
-0.00937956
-0.00936047
-0.00934117
-0.00932166
-0.00930196
-0.00928206
-0.00926197
-0.00924168
-0.00922121
-0.00920055
-0.0091797
-0.00915868
-0.00913748
-0.0091161
-0.00909455
-0.00907283
-0.00905094
-0.00902889
-0.00900667
-0.00898429
-0.00896176
-0.00893906
-0.00891621
-0.00889321
-0.00887006
-0.00884676
-0.00882331
-0.00879972
-0.00877598
-0.0087521
-0.00872808
-0.00870393
-0.00867964
-0.00865521
-0.00863065
-0.00860597
-0.00858115
-0.0085562
-0.00853113
-0.00850593
-0.00848061
-0.00845517
-0.00842961
-0.00840393
-0.00837813
-0.00835221
-0.00832618
-0.00830004
-0.00827379
-0.00824742
-0.00822095
-0.00819437
-0.00816768
-0.00814088
-0.00811398
-0.00808698
-0.00805987
-0.00803266
-0.00800536
-0.00797795
-0.00795045
-0.00792285
-0.00789515
-0.00786736
-0.00783948
-0.0078115
-0.00778343
-0.00775527
-0.00772703
-0.00769869
-0.00767027
-0.00764175
-0.00761316
-0.00758448
-0.00755571
-0.00752686
-0.00749793
-0.00746892
-0.00743982
-0.00741065
-0.0073814
-0.00735207
-0.00732266
-0.00729318
-0.00726362
-0.00723398
-0.00720428
-0.00717449
-0.00714464
-0.00711471
-0.00708471
-0.00705465
-0.00702451
-0.0069943
-0.00696403
-0.00693368
-0.00690327
-0.0068728
-0.00684225
-0.00681165
-0.00678097
-0.00675024
-0.00671944
-0.00668858
-0.00665765
-0.00662667
-0.00659563
-0.00656452
-0.00653336
-0.00650213
-0.00647085
-0.00643951
-0.00640811
-0.00637666
-0.00634515
-0.00631358
-0.00628196
-0.00625029
-0.00621856
-0.00618678
-0.00615494
-0.00612306
-0.00609112
-0.00605913
-0.00602709
-0.00599499
-0.00596285
-0.00593066
-0.00589842
-0.00586613
-0.0058338
-0.00580141
-0.00576898
-0.0057365
-0.00570398
-0.00567141
-0.0056388
-0.00560614
-0.00557343
-0.00554068
-0.00550789
-0.00547506
-0.00544218
-0.00540926
-0.0053763
-0.0053433
-0.00531025
-0.00527717
-0.00524405
-0.00521088
-0.00517768
-0.00514444
-0.00511115
-0.00507783
-0.00504448
-0.00501108
-0.00497765
-0.00494418
-0.00491068
-0.00487713
-0.00484356
-0.00480995
-0.0047763
-0.00474262
-0.0047089
-0.00467515
-0.00464137
-0.00460755
-0.0045737
-0.00453982
-0.00450591
-0.00447196
-0.00443798
-0.00440397
-0.00436994
-0.00433587
-0.00430177
-0.00426764
-0.00423348
-0.00419929
-0.00416507
-0.00413082
-0.00409655
-0.00406225
-0.00402792
-0.00399356
-0.00395917
-0.00392476
-0.00389032
-0.00385586
-0.00382137
-0.00378686
-0.00375231
-0.00371775
-0.00368316
-0.00364854
-0.0036139
-0.00357924
-0.00354455
-0.00350984
-0.00347511
-0.00344036
-0.00340558
-0.00337078
-0.00333595
-0.00330111
-0.00326625
-0.00323136
-0.00319645
-0.00316152
-0.00312658
-0.00309161
-0.00305662
-0.00302161
-0.00298658
-0.00295154
-0.00291647
-0.00288139
-0.00284629
-0.00281117
-0.00277603
-0.00274088
-0.00270571
-0.00267052
-0.00263531
-0.00260009
-0.00256485
-0.0025296
-0.00249433
-0.00245904
-0.00242374
-0.00238843
-0.00235309
-0.00231775
-0.00228239
-0.00224702
-0.00221163
-0.00217623
-0.00214081
-0.00210539
-0.00206994
-0.00203449
-0.00199903
-0.00196355
-0.00192806
-0.00189256
-0.00185704
-0.00182152
-0.00178598
-0.00175044
-0.00171488
-0.00167931
-0.00164374
-0.00160815
-0.00157255
-0.00153695
-0.00150133
-0.00146571
-0.00143007
-0.00139443
-0.00135878
-0.00132312
-0.00128745
-0.00125178
-0.0012161
-0.00118041
-0.00114471
-0.00110901
-0.0010733
-0.00103758
-0.00100186
-0.000966133
-0.0009304
-0.00089466
-0.000858915
-0.000823165
-0.000787411
-0.000751651
-0.000715887
-0.000680119
-0.000644347
-0.000608571
-0.000572791
-0.000537008
-0.000501222
-0.000465433
-0.000429641
-0.000393846
-0.00035805
-0.000322251
-0.00028645
-0.000250647
-0.000214843
-0.000179038
-0.000143232
-0.000107425
-7.16167e-05
-3.58085e-05
)
;

boundaryField
{
    left
    {
        type            calculated;
        value           uniform 0;
    }
    right
    {
        type            calculated;
        value           uniform 0;
    }
    frontBackUpDown
    {
        type            empty;
    }
}


// ************************************************************************* //
