/*--------------------------------*- C++ -*----------------------------------*\
| =========                 |                                                 |
| \\      /  F ield         | OpenFOAM: The Open Source CFD Toolbox           |
|  \\    /   O peration     | Version:  2412                                  |
|   \\  /    A nd           | Website:  www.openfoam.com                      |
|    \\/     M anipulation  |                                                 |
\*---------------------------------------------------------------------------*/
FoamFile
{
    version     2.0;
    format      ascii;
    arch        "LSB;label=32;scalar=64";
    class       volVectorField;
    location    "0.38";
    object      U;
}
// * * * * * * * * * * * * * * * * * * * * * * * * * * * * * * * * * * * * * //

dimensions      [0 1 -1 0 0 0 0];

internalField   nonuniform List<vector> 
800
(
(0.0017904 0 0)
(0.00537124 0 0)
(0.00895205 0 0)
(0.0125328 0 0)
(0.0161135 0 0)
(0.0196941 0 0)
(0.0232745 0 0)
(0.0268549 0 0)
(0.0304351 0 0)
(0.0340151 0 0)
(0.0375949 0 0)
(0.0411744 0 0)
(0.0447538 0 0)
(0.0483328 0 0)
(0.0519116 0 0)
(0.0554901 0 0)
(0.0590682 0 0)
(0.062646 0 0)
(0.0662234 0 0)
(0.0698004 0 0)
(0.0733771 0 0)
(0.0769532 0 0)
(0.080529 0 0)
(0.0841042 0 0)
(0.0876789 0 0)
(0.0912532 0 0)
(0.0948268 0 0)
(0.0984 0 0)
(0.101972 0 0)
(0.105544 0 0)
(0.109116 0 0)
(0.112686 0 0)
(0.116256 0 0)
(0.119826 0 0)
(0.123394 0 0)
(0.126962 0 0)
(0.130529 0 0)
(0.134095 0 0)
(0.137661 0 0)
(0.141225 0 0)
(0.144789 0 0)
(0.148352 0 0)
(0.151914 0 0)
(0.155475 0 0)
(0.159035 0 0)
(0.162595 0 0)
(0.166153 0 0)
(0.16971 0 0)
(0.173266 0 0)
(0.176822 0 0)
(0.180376 0 0)
(0.183929 0 0)
(0.187481 0 0)
(0.191031 0 0)
(0.194581 0 0)
(0.198129 0 0)
(0.201676 0 0)
(0.205222 0 0)
(0.208767 0 0)
(0.212311 0 0)
(0.215853 0 0)
(0.219393 0 0)
(0.222933 0 0)
(0.226471 0 0)
(0.230008 0 0)
(0.233543 0 0)
(0.237077 0 0)
(0.240609 0 0)
(0.24414 0 0)
(0.247669 0 0)
(0.251197 0 0)
(0.254723 0 0)
(0.258248 0 0)
(0.261771 0 0)
(0.265292 0 0)
(0.268812 0 0)
(0.27233 0 0)
(0.275846 0 0)
(0.279361 0 0)
(0.282874 0 0)
(0.286385 0 0)
(0.289894 0 0)
(0.293402 0 0)
(0.296907 0 0)
(0.300411 0 0)
(0.303913 0 0)
(0.307412 0 0)
(0.31091 0 0)
(0.314406 0 0)
(0.3179 0 0)
(0.321392 0 0)
(0.324881 0 0)
(0.328369 0 0)
(0.331854 0 0)
(0.335338 0 0)
(0.338819 0 0)
(0.342298 0 0)
(0.345775 0 0)
(0.349249 0 0)
(0.352721 0 0)
(0.356191 0 0)
(0.359659 0 0)
(0.363124 0 0)
(0.366586 0 0)
(0.370047 0 0)
(0.373505 0 0)
(0.37696 0 0)
(0.380413 0 0)
(0.383863 0 0)
(0.387311 0 0)
(0.390756 0 0)
(0.394198 0 0)
(0.397638 0 0)
(0.401075 0 0)
(0.40451 0 0)
(0.407941 0 0)
(0.41137 0 0)
(0.414796 0 0)
(0.41822 0 0)
(0.42164 0 0)
(0.425057 0 0)
(0.428472 0 0)
(0.431883 0 0)
(0.435292 0 0)
(0.438697 0 0)
(0.4421 0 0)
(0.445499 0 0)
(0.448895 0 0)
(0.452288 0 0)
(0.455678 0 0)
(0.459065 0 0)
(0.462448 0 0)
(0.465828 0 0)
(0.469205 0 0)
(0.472578 0 0)
(0.475948 0 0)
(0.479314 0 0)
(0.482677 0 0)
(0.486037 0 0)
(0.489393 0 0)
(0.492745 0 0)
(0.496094 0 0)
(0.499439 0 0)
(0.50278 0 0)
(0.506118 0 0)
(0.509452 0 0)
(0.512782 0 0)
(0.516108 0 0)
(0.51943 0 0)
(0.522749 0 0)
(0.526063 0 0)
(0.529374 0 0)
(0.53268 0 0)
(0.535982 0 0)
(0.539281 0 0)
(0.542575 0 0)
(0.545865 0 0)
(0.54915 0 0)
(0.552431 0 0)
(0.555708 0 0)
(0.558981 0 0)
(0.562249 0 0)
(0.565513 0 0)
(0.568772 0 0)
(0.572027 0 0)
(0.575277 0 0)
(0.578522 0 0)
(0.581763 0 0)
(0.584999 0 0)
(0.588231 0 0)
(0.591457 0 0)
(0.594679 0 0)
(0.597895 0 0)
(0.601107 0 0)
(0.604314 0 0)
(0.607515 0 0)
(0.610712 0 0)
(0.613903 0 0)
(0.617089 0 0)
(0.62027 0 0)
(0.623446 0 0)
(0.626616 0 0)
(0.629781 0 0)
(0.63294 0 0)
(0.636094 0 0)
(0.639242 0 0)
(0.642384 0 0)
(0.645521 0 0)
(0.648652 0 0)
(0.651778 0 0)
(0.654897 0 0)
(0.658011 0 0)
(0.661118 0 0)
(0.66422 0 0)
(0.667315 0 0)
(0.670404 0 0)
(0.673487 0 0)
(0.676564 0 0)
(0.679635 0 0)
(0.682699 0 0)
(0.685756 0 0)
(0.688807 0 0)
(0.691851 0 0)
(0.694889 0 0)
(0.69792 0 0)
(0.700944 0 0)
(0.703961 0 0)
(0.706972 0 0)
(0.709975 0 0)
(0.712971 0 0)
(0.71596 0 0)
(0.718942 0 0)
(0.721917 0 0)
(0.724884 0 0)
(0.727844 0 0)
(0.730796 0 0)
(0.733741 0 0)
(0.736677 0 0)
(0.739607 0 0)
(0.742528 0 0)
(0.745441 0 0)
(0.748346 0 0)
(0.751244 0 0)
(0.754133 0 0)
(0.757013 0 0)
(0.759886 0 0)
(0.76275 0 0)
(0.765605 0 0)
(0.768452 0 0)
(0.77129 0 0)
(0.774119 0 0)
(0.77694 0 0)
(0.779751 0 0)
(0.782553 0 0)
(0.785346 0 0)
(0.78813 0 0)
(0.790904 0 0)
(0.793669 0 0)
(0.796424 0 0)
(0.79917 0 0)
(0.801906 0 0)
(0.804631 0 0)
(0.807347 0 0)
(0.810052 0 0)
(0.812748 0 0)
(0.815432 0 0)
(0.818107 0 0)
(0.82077 0 0)
(0.823423 0 0)
(0.826065 0 0)
(0.828696 0 0)
(0.831316 0 0)
(0.833925 0 0)
(0.836522 0 0)
(0.839108 0 0)
(0.841682 0 0)
(0.844244 0 0)
(0.846794 0 0)
(0.849332 0 0)
(0.851858 0 0)
(0.854372 0 0)
(0.856873 0 0)
(0.859361 0 0)
(0.861836 0 0)
(0.864299 0 0)
(0.866748 0 0)
(0.869184 0 0)
(0.871606 0 0)
(0.874015 0 0)
(0.876409 0 0)
(0.87879 0 0)
(0.881157 0 0)
(0.883509 0 0)
(0.885846 0 0)
(0.888169 0 0)
(0.890477 0 0)
(0.892769 0 0)
(0.895047 0 0)
(0.897308 0 0)
(0.899554 0 0)
(0.901784 0 0)
(0.903997 0 0)
(0.906195 0 0)
(0.908375 0 0)
(0.910538 0 0)
(0.912685 0 0)
(0.914814 0 0)
(0.916925 0 0)
(0.919018 0 0)
(0.921094 0 0)
(0.92315 0 0)
(0.925188 0 0)
(0.927207 0 0)
(0.929207 0 0)
(0.931188 0 0)
(0.933148 0 0)
(0.935088 0 0)
(0.937008 0 0)
(0.938907 0 0)
(0.940785 0 0)
(0.942641 0 0)
(0.944476 0 0)
(0.946288 0 0)
(0.948078 0 0)
(0.949846 0 0)
(0.951589 0 0)
(0.95331 0 0)
(0.955006 0 0)
(0.956678 0 0)
(0.958325 0 0)
(0.959947 0 0)
(0.961543 0 0)
(0.963113 0 0)
(0.964656 0 0)
(0.966172 0 0)
(0.967661 0 0)
(0.969121 0 0)
(0.970553 0 0)
(0.971956 0 0)
(0.973329 0 0)
(0.974672 0 0)
(0.975984 0 0)
(0.977265 0 0)
(0.978513 0 0)
(0.979729 0 0)
(0.980912 0 0)
(0.98206 0 0)
(0.983174 0 0)
(0.984253 0 0)
(0.985295 0 0)
(0.9863 0 0)
(0.987268 0 0)
(0.988197 0 0)
(0.989087 0 0)
(0.989936 0 0)
(0.990745 0 0)
(0.991511 0 0)
(0.992234 0 0)
(0.992913 0 0)
(0.993546 0 0)
(0.994134 0 0)
(0.994674 0 0)
(0.995165 0 0)
(0.995607 0 0)
(0.995998 0 0)
(0.996336 0 0)
(0.99662 0 0)
(0.996849 0 0)
(0.997022 0 0)
(0.997136 0 0)
(0.99719 0 0)
(0.997182 0 0)
(0.997111 0 0)
(0.996975 0 0)
(0.996771 0 0)
(0.996498 0 0)
(0.996153 0 0)
(0.995734 0 0)
(0.995239 0 0)
(0.994665 0 0)
(0.99401 0 0)
(0.99327 0 0)
(0.992443 0 0)
(0.991525 0 0)
(0.990513 0 0)
(0.989404 0 0)
(0.988194 0 0)
(0.986879 0 0)
(0.985454 0 0)
(0.983915 0 0)
(0.982257 0 0)
(0.980475 0 0)
(0.978563 0 0)
(0.976515 0 0)
(0.974324 0 0)
(0.971984 0 0)
(0.969487 0 0)
(0.966824 0 0)
(0.963987 0 0)
(0.960965 0 0)
(0.957747 0 0)
(0.954323 0 0)
(0.950678 0 0)
(0.946798 0 0)
(0.942666 0 0)
(0.938264 0 0)
(0.933572 0 0)
(0.928566 0 0)
(0.92322 0 0)
(0.917502 0 0)
(0.911377 0 0)
(0.904803 0 0)
(0.897731 0 0)
(0.890099 0 0)
(0.881835 0 0)
(0.872845 0 0)
(0.863015 0 0)
(0.852834 0 0)
(0.814392 0 0)
(0.419412 0 0)
(-0.418539 0 0)
(-0.814234 0 0)
(-0.852817 0 0)
(-0.862999 0 0)
(-0.872831 0 0)
(-0.881823 0 0)
(-0.890088 0 0)
(-0.897721 0 0)
(-0.904795 0 0)
(-0.911369 0 0)
(-0.917495 0 0)
(-0.923213 0 0)
(-0.92856 0 0)
(-0.933567 0 0)
(-0.938259 0 0)
(-0.942662 0 0)
(-0.946794 0 0)
(-0.950674 0 0)
(-0.95432 0 0)
(-0.957745 0 0)
(-0.960962 0 0)
(-0.963984 0 0)
(-0.966822 0 0)
(-0.969485 0 0)
(-0.971982 0 0)
(-0.974322 0 0)
(-0.976513 0 0)
(-0.978561 0 0)
(-0.980474 0 0)
(-0.982256 0 0)
(-0.983914 0 0)
(-0.985453 0 0)
(-0.986878 0 0)
(-0.988194 0 0)
(-0.989404 0 0)
(-0.990513 0 0)
(-0.991524 0 0)
(-0.992442 0 0)
(-0.993269 0 0)
(-0.994009 0 0)
(-0.994665 0 0)
(-0.995239 0 0)
(-0.995734 0 0)
(-0.996153 0 0)
(-0.996498 0 0)
(-0.996771 0 0)
(-0.996975 0 0)
(-0.997111 0 0)
(-0.997182 0 0)
(-0.99719 0 0)
(-0.997136 0 0)
(-0.997022 0 0)
(-0.996849 0 0)
(-0.99662 0 0)
(-0.996336 0 0)
(-0.995998 0 0)
(-0.995607 0 0)
(-0.995165 0 0)
(-0.994674 0 0)
(-0.994134 0 0)
(-0.993546 0 0)
(-0.992912 0 0)
(-0.992233 0 0)
(-0.99151 0 0)
(-0.990744 0 0)
(-0.989936 0 0)
(-0.989087 0 0)
(-0.988197 0 0)
(-0.987268 0 0)
(-0.9863 0 0)
(-0.985295 0 0)
(-0.984252 0 0)
(-0.983174 0 0)
(-0.98206 0 0)
(-0.980911 0 0)
(-0.979729 0 0)
(-0.978513 0 0)
(-0.977264 0 0)
(-0.975983 0 0)
(-0.974671 0 0)
(-0.973328 0 0)
(-0.971955 0 0)
(-0.970552 0 0)
(-0.96912 0 0)
(-0.96766 0 0)
(-0.966171 0 0)
(-0.964655 0 0)
(-0.963112 0 0)
(-0.961542 0 0)
(-0.959946 0 0)
(-0.958324 0 0)
(-0.956677 0 0)
(-0.955005 0 0)
(-0.953309 0 0)
(-0.951588 0 0)
(-0.949844 0 0)
(-0.948077 0 0)
(-0.946287 0 0)
(-0.944475 0 0)
(-0.94264 0 0)
(-0.940784 0 0)
(-0.938906 0 0)
(-0.937007 0 0)
(-0.935087 0 0)
(-0.933147 0 0)
(-0.931186 0 0)
(-0.929206 0 0)
(-0.927206 0 0)
(-0.925187 0 0)
(-0.923149 0 0)
(-0.921092 0 0)
(-0.919017 0 0)
(-0.916924 0 0)
(-0.914812 0 0)
(-0.912683 0 0)
(-0.910537 0 0)
(-0.908373 0 0)
(-0.906193 0 0)
(-0.903996 0 0)
(-0.901782 0 0)
(-0.899552 0 0)
(-0.897307 0 0)
(-0.895045 0 0)
(-0.892768 0 0)
(-0.890475 0 0)
(-0.888167 0 0)
(-0.885844 0 0)
(-0.883507 0 0)
(-0.881155 0 0)
(-0.878788 0 0)
(-0.876407 0 0)
(-0.874013 0 0)
(-0.871604 0 0)
(-0.869182 0 0)
(-0.866746 0 0)
(-0.864297 0 0)
(-0.861834 0 0)
(-0.859359 0 0)
(-0.856871 0 0)
(-0.85437 0 0)
(-0.851856 0 0)
(-0.84933 0 0)
(-0.846792 0 0)
(-0.844242 0 0)
(-0.84168 0 0)
(-0.839106 0 0)
(-0.83652 0 0)
(-0.833923 0 0)
(-0.831314 0 0)
(-0.828694 0 0)
(-0.826063 0 0)
(-0.823421 0 0)
(-0.820768 0 0)
(-0.818105 0 0)
(-0.81543 0 0)
(-0.812746 0 0)
(-0.81005 0 0)
(-0.807345 0 0)
(-0.804629 0 0)
(-0.801903 0 0)
(-0.799168 0 0)
(-0.796422 0 0)
(-0.793667 0 0)
(-0.790902 0 0)
(-0.788128 0 0)
(-0.785344 0 0)
(-0.782551 0 0)
(-0.779749 0 0)
(-0.776938 0 0)
(-0.774117 0 0)
(-0.771288 0 0)
(-0.76845 0 0)
(-0.765603 0 0)
(-0.762748 0 0)
(-0.759884 0 0)
(-0.757011 0 0)
(-0.754131 0 0)
(-0.751242 0 0)
(-0.748344 0 0)
(-0.745439 0 0)
(-0.742526 0 0)
(-0.739604 0 0)
(-0.736675 0 0)
(-0.733738 0 0)
(-0.730794 0 0)
(-0.727842 0 0)
(-0.724882 0 0)
(-0.721915 0 0)
(-0.71894 0 0)
(-0.715958 0 0)
(-0.712969 0 0)
(-0.709973 0 0)
(-0.70697 0 0)
(-0.703959 0 0)
(-0.700942 0 0)
(-0.697918 0 0)
(-0.694887 0 0)
(-0.691849 0 0)
(-0.688805 0 0)
(-0.685754 0 0)
(-0.682697 0 0)
(-0.679633 0 0)
(-0.676562 0 0)
(-0.673485 0 0)
(-0.670402 0 0)
(-0.667313 0 0)
(-0.664218 0 0)
(-0.661116 0 0)
(-0.658009 0 0)
(-0.654895 0 0)
(-0.651776 0 0)
(-0.648651 0 0)
(-0.645519 0 0)
(-0.642383 0 0)
(-0.63924 0 0)
(-0.636092 0 0)
(-0.632938 0 0)
(-0.629779 0 0)
(-0.626614 0 0)
(-0.623444 0 0)
(-0.620268 0 0)
(-0.617087 0 0)
(-0.613901 0 0)
(-0.61071 0 0)
(-0.607514 0 0)
(-0.604312 0 0)
(-0.601105 0 0)
(-0.597894 0 0)
(-0.594677 0 0)
(-0.591455 0 0)
(-0.588229 0 0)
(-0.584998 0 0)
(-0.581762 0 0)
(-0.578521 0 0)
(-0.575275 0 0)
(-0.572025 0 0)
(-0.568771 0 0)
(-0.565511 0 0)
(-0.562248 0 0)
(-0.558979 0 0)
(-0.555707 0 0)
(-0.55243 0 0)
(-0.549149 0 0)
(-0.545863 0 0)
(-0.542573 0 0)
(-0.539279 0 0)
(-0.535981 0 0)
(-0.532679 0 0)
(-0.529372 0 0)
(-0.526062 0 0)
(-0.522747 0 0)
(-0.519429 0 0)
(-0.516107 0 0)
(-0.51278 0 0)
(-0.50945 0 0)
(-0.506117 0 0)
(-0.502779 0 0)
(-0.499438 0 0)
(-0.496092 0 0)
(-0.492744 0 0)
(-0.489391 0 0)
(-0.486036 0 0)
(-0.482676 0 0)
(-0.479313 0 0)
(-0.475947 0 0)
(-0.472577 0 0)
(-0.469203 0 0)
(-0.465827 0 0)
(-0.462447 0 0)
(-0.459064 0 0)
(-0.455677 0 0)
(-0.452287 0 0)
(-0.448894 0 0)
(-0.445498 0 0)
(-0.442099 0 0)
(-0.438696 0 0)
(-0.435291 0 0)
(-0.431882 0 0)
(-0.428471 0 0)
(-0.425056 0 0)
(-0.421639 0 0)
(-0.418219 0 0)
(-0.414795 0 0)
(-0.411369 0 0)
(-0.40794 0 0)
(-0.404509 0 0)
(-0.401074 0 0)
(-0.397637 0 0)
(-0.394198 0 0)
(-0.390755 0 0)
(-0.38731 0 0)
(-0.383862 0 0)
(-0.380412 0 0)
(-0.376959 0 0)
(-0.373504 0 0)
(-0.370046 0 0)
(-0.366586 0 0)
(-0.363123 0 0)
(-0.359658 0 0)
(-0.35619 0 0)
(-0.35272 0 0)
(-0.349248 0 0)
(-0.345774 0 0)
(-0.342297 0 0)
(-0.338818 0 0)
(-0.335337 0 0)
(-0.331854 0 0)
(-0.328368 0 0)
(-0.324881 0 0)
(-0.321391 0 0)
(-0.317899 0 0)
(-0.314405 0 0)
(-0.31091 0 0)
(-0.307412 0 0)
(-0.303912 0 0)
(-0.30041 0 0)
(-0.296907 0 0)
(-0.293401 0 0)
(-0.289894 0 0)
(-0.286384 0 0)
(-0.282873 0 0)
(-0.279361 0 0)
(-0.275846 0 0)
(-0.27233 0 0)
(-0.268812 0 0)
(-0.265292 0 0)
(-0.261771 0 0)
(-0.258248 0 0)
(-0.254723 0 0)
(-0.251197 0 0)
(-0.247669 0 0)
(-0.24414 0 0)
(-0.240609 0 0)
(-0.237076 0 0)
(-0.233543 0 0)
(-0.230007 0 0)
(-0.226471 0 0)
(-0.222933 0 0)
(-0.219393 0 0)
(-0.215852 0 0)
(-0.21231 0 0)
(-0.208767 0 0)
(-0.205222 0 0)
(-0.201676 0 0)
(-0.198129 0 0)
(-0.194581 0 0)
(-0.191031 0 0)
(-0.18748 0 0)
(-0.183928 0 0)
(-0.180375 0 0)
(-0.176821 0 0)
(-0.173266 0 0)
(-0.16971 0 0)
(-0.166153 0 0)
(-0.162595 0 0)
(-0.159035 0 0)
(-0.155475 0 0)
(-0.151914 0 0)
(-0.148352 0 0)
(-0.144789 0 0)
(-0.141225 0 0)
(-0.137661 0 0)
(-0.134095 0 0)
(-0.130529 0 0)
(-0.126962 0 0)
(-0.123394 0 0)
(-0.119825 0 0)
(-0.116256 0 0)
(-0.112686 0 0)
(-0.109116 0 0)
(-0.105544 0 0)
(-0.101972 0 0)
(-0.0983999 0 0)
(-0.0948268 0 0)
(-0.0912531 0 0)
(-0.0876789 0 0)
(-0.0841042 0 0)
(-0.0805289 0 0)
(-0.0769532 0 0)
(-0.073377 0 0)
(-0.0698004 0 0)
(-0.0662234 0 0)
(-0.062646 0 0)
(-0.0590682 0 0)
(-0.0554901 0 0)
(-0.0519116 0 0)
(-0.0483328 0 0)
(-0.0447538 0 0)
(-0.0411744 0 0)
(-0.0375949 0 0)
(-0.0340151 0 0)
(-0.0304351 0 0)
(-0.0268549 0 0)
(-0.0232746 0 0)
(-0.0196941 0 0)
(-0.0161135 0 0)
(-0.0125328 0 0)
(-0.00895207 0 0)
(-0.00537127 0 0)
(-0.00179043 0 0)
)
;

boundaryField
{
    left
    {
        type            fixedValue;
        value           uniform (0 0 0);
    }
    right
    {
        type            fixedValue;
        value           uniform (0 0 0);
    }
    frontBackUpDown
    {
        type            empty;
    }
}


// ************************************************************************* //
