/*--------------------------------*- C++ -*----------------------------------*\
| =========                 |                                                 |
| \\      /  F ield         | OpenFOAM: The Open Source CFD Toolbox           |
|  \\    /   O peration     | Version:  2412                                  |
|   \\  /    A nd           | Website:  www.openfoam.com                      |
|    \\/     M anipulation  |                                                 |
\*---------------------------------------------------------------------------*/
FoamFile
{
    version     2.0;
    format      ascii;
    arch        "LSB;label=32;scalar=64";
    class       volVectorField;
    location    "0.38";
    object      U_0;
}
// * * * * * * * * * * * * * * * * * * * * * * * * * * * * * * * * * * * * * //

dimensions      [0 1 -1 0 0 0 0];

internalField   nonuniform List<vector> 
800
(
(0.00179168 0 0)
(0.00537508 0 0)
(0.00895845 0 0)
(0.0125418 0 0)
(0.016125 0 0)
(0.0197082 0 0)
(0.0232912 0 0)
(0.0268741 0 0)
(0.0304568 0 0)
(0.0340394 0 0)
(0.0376217 0 0)
(0.0412039 0 0)
(0.0447858 0 0)
(0.0483674 0 0)
(0.0519487 0 0)
(0.0555297 0 0)
(0.0591104 0 0)
(0.0626908 0 0)
(0.0662708 0 0)
(0.0698503 0 0)
(0.0734295 0 0)
(0.0770082 0 0)
(0.0805865 0 0)
(0.0841643 0 0)
(0.0877416 0 0)
(0.0913183 0 0)
(0.0948946 0 0)
(0.0984702 0 0)
(0.102045 0 0)
(0.10562 0 0)
(0.109194 0 0)
(0.112767 0 0)
(0.116339 0 0)
(0.119911 0 0)
(0.123482 0 0)
(0.127052 0 0)
(0.130622 0 0)
(0.134191 0 0)
(0.137759 0 0)
(0.141326 0 0)
(0.144892 0 0)
(0.148458 0 0)
(0.152022 0 0)
(0.155586 0 0)
(0.159149 0 0)
(0.16271 0 0)
(0.166271 0 0)
(0.169831 0 0)
(0.17339 0 0)
(0.176947 0 0)
(0.180504 0 0)
(0.184059 0 0)
(0.187614 0 0)
(0.191167 0 0)
(0.194719 0 0)
(0.19827 0 0)
(0.201819 0 0)
(0.205368 0 0)
(0.208915 0 0)
(0.212461 0 0)
(0.216005 0 0)
(0.219549 0 0)
(0.223091 0 0)
(0.226631 0 0)
(0.23017 0 0)
(0.233708 0 0)
(0.237244 0 0)
(0.240779 0 0)
(0.244312 0 0)
(0.247844 0 0)
(0.251374 0 0)
(0.254903 0 0)
(0.25843 0 0)
(0.261955 0 0)
(0.265479 0 0)
(0.269001 0 0)
(0.272522 0 0)
(0.27604 0 0)
(0.279557 0 0)
(0.283072 0 0)
(0.286586 0 0)
(0.290097 0 0)
(0.293607 0 0)
(0.297115 0 0)
(0.300621 0 0)
(0.304125 0 0)
(0.307627 0 0)
(0.311127 0 0)
(0.314626 0 0)
(0.318122 0 0)
(0.321616 0 0)
(0.325108 0 0)
(0.328598 0 0)
(0.332086 0 0)
(0.335571 0 0)
(0.339055 0 0)
(0.342536 0 0)
(0.346015 0 0)
(0.349491 0 0)
(0.352966 0 0)
(0.356438 0 0)
(0.359908 0 0)
(0.363375 0 0)
(0.36684 0 0)
(0.370303 0 0)
(0.373763 0 0)
(0.37722 0 0)
(0.380675 0 0)
(0.384128 0 0)
(0.387578 0 0)
(0.391025 0 0)
(0.39447 0 0)
(0.397912 0 0)
(0.401351 0 0)
(0.404787 0 0)
(0.408221 0 0)
(0.411652 0 0)
(0.41508 0 0)
(0.418506 0 0)
(0.421928 0 0)
(0.425348 0 0)
(0.428764 0 0)
(0.432178 0 0)
(0.435588 0 0)
(0.438996 0 0)
(0.4424 0 0)
(0.445802 0 0)
(0.4492 0 0)
(0.452595 0 0)
(0.455987 0 0)
(0.459375 0 0)
(0.462761 0 0)
(0.466143 0 0)
(0.469521 0 0)
(0.472896 0 0)
(0.476268 0 0)
(0.479637 0 0)
(0.483002 0 0)
(0.486363 0 0)
(0.489721 0 0)
(0.493075 0 0)
(0.496426 0 0)
(0.499773 0 0)
(0.503116 0 0)
(0.506455 0 0)
(0.509791 0 0)
(0.513123 0 0)
(0.516451 0 0)
(0.519775 0 0)
(0.523095 0 0)
(0.526412 0 0)
(0.529724 0 0)
(0.533032 0 0)
(0.536336 0 0)
(0.539636 0 0)
(0.542932 0 0)
(0.546223 0 0)
(0.549511 0 0)
(0.552794 0 0)
(0.556072 0 0)
(0.559347 0 0)
(0.562616 0 0)
(0.565882 0 0)
(0.569143 0 0)
(0.572399 0 0)
(0.575651 0 0)
(0.578898 0 0)
(0.58214 0 0)
(0.585377 0 0)
(0.58861 0 0)
(0.591838 0 0)
(0.595061 0 0)
(0.598279 0 0)
(0.601493 0 0)
(0.604701 0 0)
(0.607904 0 0)
(0.611102 0 0)
(0.614295 0 0)
(0.617482 0 0)
(0.620664 0 0)
(0.623841 0 0)
(0.627013 0 0)
(0.630179 0 0)
(0.633339 0 0)
(0.636494 0 0)
(0.639644 0 0)
(0.642788 0 0)
(0.645926 0 0)
(0.649058 0 0)
(0.652185 0 0)
(0.655305 0 0)
(0.65842 0 0)
(0.661529 0 0)
(0.664631 0 0)
(0.667728 0 0)
(0.670818 0 0)
(0.673902 0 0)
(0.67698 0 0)
(0.680051 0 0)
(0.683116 0 0)
(0.686175 0 0)
(0.689227 0 0)
(0.692272 0 0)
(0.695311 0 0)
(0.698343 0 0)
(0.701368 0 0)
(0.704386 0 0)
(0.707397 0 0)
(0.710401 0 0)
(0.713398 0 0)
(0.716388 0 0)
(0.719371 0 0)
(0.722346 0 0)
(0.725314 0 0)
(0.728274 0 0)
(0.731227 0 0)
(0.734172 0 0)
(0.73711 0 0)
(0.740039 0 0)
(0.742961 0 0)
(0.745875 0 0)
(0.748781 0 0)
(0.751678 0 0)
(0.754568 0 0)
(0.757449 0 0)
(0.760322 0 0)
(0.763186 0 0)
(0.766042 0 0)
(0.768889 0 0)
(0.771727 0 0)
(0.774557 0 0)
(0.777377 0 0)
(0.780189 0 0)
(0.782991 0 0)
(0.785784 0 0)
(0.788568 0 0)
(0.791343 0 0)
(0.794107 0 0)
(0.796863 0 0)
(0.799608 0 0)
(0.802344 0 0)
(0.805069 0 0)
(0.807785 0 0)
(0.81049 0 0)
(0.813185 0 0)
(0.81587 0 0)
(0.818544 0 0)
(0.821207 0 0)
(0.823859 0 0)
(0.826501 0 0)
(0.829132 0 0)
(0.831751 0 0)
(0.834359 0 0)
(0.836956 0 0)
(0.839541 0 0)
(0.842114 0 0)
(0.844676 0 0)
(0.847225 0 0)
(0.849762 0 0)
(0.852288 0 0)
(0.8548 0 0)
(0.8573 0 0)
(0.859788 0 0)
(0.862262 0 0)
(0.864723 0 0)
(0.867171 0 0)
(0.869606 0 0)
(0.872027 0 0)
(0.874435 0 0)
(0.876828 0 0)
(0.879208 0 0)
(0.881573 0 0)
(0.883923 0 0)
(0.886259 0 0)
(0.888581 0 0)
(0.890887 0 0)
(0.893178 0 0)
(0.895453 0 0)
(0.897713 0 0)
(0.899957 0 0)
(0.902185 0 0)
(0.904397 0 0)
(0.906592 0 0)
(0.90877 0 0)
(0.910931 0 0)
(0.913075 0 0)
(0.915202 0 0)
(0.917311 0 0)
(0.919402 0 0)
(0.921475 0 0)
(0.923529 0 0)
(0.925564 0 0)
(0.927581 0 0)
(0.929578 0 0)
(0.931555 0 0)
(0.933512 0 0)
(0.93545 0 0)
(0.937366 0 0)
(0.939262 0 0)
(0.941137 0 0)
(0.94299 0 0)
(0.944821 0 0)
(0.94663 0 0)
(0.948416 0 0)
(0.95018 0 0)
(0.95192 0 0)
(0.953636 0 0)
(0.955328 0 0)
(0.956996 0 0)
(0.958639 0 0)
(0.960256 0 0)
(0.961848 0 0)
(0.963413 0 0)
(0.964952 0 0)
(0.966463 0 0)
(0.967947 0 0)
(0.969402 0 0)
(0.970829 0 0)
(0.972227 0 0)
(0.973594 0 0)
(0.974932 0 0)
(0.976238 0 0)
(0.977513 0 0)
(0.978755 0 0)
(0.979965 0 0)
(0.981141 0 0)
(0.982284 0 0)
(0.983391 0 0)
(0.984463 0 0)
(0.985498 0 0)
(0.986496 0 0)
(0.987457 0 0)
(0.988378 0 0)
(0.98926 0 0)
(0.990102 0 0)
(0.990902 0 0)
(0.99166 0 0)
(0.992374 0 0)
(0.993045 0 0)
(0.993669 0 0)
(0.994248 0 0)
(0.994778 0 0)
(0.99526 0 0)
(0.995692 0 0)
(0.996072 0 0)
(0.9964 0 0)
(0.996674 0 0)
(0.996892 0 0)
(0.997053 0 0)
(0.997155 0 0)
(0.997197 0 0)
(0.997177 0 0)
(0.997093 0 0)
(0.996944 0 0)
(0.996726 0 0)
(0.996439 0 0)
(0.99608 0 0)
(0.995646 0 0)
(0.995136 0 0)
(0.994546 0 0)
(0.993875 0 0)
(0.993118 0 0)
(0.992273 0 0)
(0.991338 0 0)
(0.990308 0 0)
(0.98918 0 0)
(0.98795 0 0)
(0.986614 0 0)
(0.985167 0 0)
(0.983606 0 0)
(0.981925 0 0)
(0.980119 0 0)
(0.978182 0 0)
(0.976108 0 0)
(0.97389 0 0)
(0.971522 0 0)
(0.968995 0 0)
(0.966301 0 0)
(0.963432 0 0)
(0.960376 0 0)
(0.957123 0 0)
(0.95366 0 0)
(0.949975 0 0)
(0.946053 0 0)
(0.941877 0 0)
(0.937428 0 0)
(0.932685 0 0)
(0.927625 0 0)
(0.92222 0 0)
(0.91644 0 0)
(0.910247 0 0)
(0.903599 0 0)
(0.896445 0 0)
(0.888724 0 0)
(0.880359 0 0)
(0.871255 0 0)
(0.861298 0 0)
(0.850929 0 0)
(0.811501 0 0)
(0.41695 0 0)
(-0.416085 0 0)
(-0.811341 0 0)
(-0.850911 0 0)
(-0.861282 0 0)
(-0.871241 0 0)
(-0.880347 0 0)
(-0.888713 0 0)
(-0.896435 0 0)
(-0.90359 0 0)
(-0.910239 0 0)
(-0.916432 0 0)
(-0.922214 0 0)
(-0.927619 0 0)
(-0.93268 0 0)
(-0.937423 0 0)
(-0.941872 0 0)
(-0.946049 0 0)
(-0.949972 0 0)
(-0.953657 0 0)
(-0.95712 0 0)
(-0.960373 0 0)
(-0.963429 0 0)
(-0.966299 0 0)
(-0.968993 0 0)
(-0.97152 0 0)
(-0.973889 0 0)
(-0.976106 0 0)
(-0.978181 0 0)
(-0.980118 0 0)
(-0.981924 0 0)
(-0.983605 0 0)
(-0.985167 0 0)
(-0.986613 0 0)
(-0.987949 0 0)
(-0.989179 0 0)
(-0.990307 0 0)
(-0.991337 0 0)
(-0.992273 0 0)
(-0.993118 0 0)
(-0.993874 0 0)
(-0.994546 0 0)
(-0.995136 0 0)
(-0.995646 0 0)
(-0.99608 0 0)
(-0.996439 0 0)
(-0.996726 0 0)
(-0.996944 0 0)
(-0.997093 0 0)
(-0.997177 0 0)
(-0.997197 0 0)
(-0.997155 0 0)
(-0.997053 0 0)
(-0.996892 0 0)
(-0.996673 0 0)
(-0.9964 0 0)
(-0.996072 0 0)
(-0.995692 0 0)
(-0.99526 0 0)
(-0.994778 0 0)
(-0.994247 0 0)
(-0.993669 0 0)
(-0.993044 0 0)
(-0.992374 0 0)
(-0.99166 0 0)
(-0.990902 0 0)
(-0.990102 0 0)
(-0.98926 0 0)
(-0.988378 0 0)
(-0.987456 0 0)
(-0.986496 0 0)
(-0.985498 0 0)
(-0.984462 0 0)
(-0.98339 0 0)
(-0.982283 0 0)
(-0.981141 0 0)
(-0.979965 0 0)
(-0.978755 0 0)
(-0.977512 0 0)
(-0.976237 0 0)
(-0.974931 0 0)
(-0.973594 0 0)
(-0.972226 0 0)
(-0.970828 0 0)
(-0.969402 0 0)
(-0.967946 0 0)
(-0.966462 0 0)
(-0.964951 0 0)
(-0.963412 0 0)
(-0.961847 0 0)
(-0.960255 0 0)
(-0.958638 0 0)
(-0.956995 0 0)
(-0.955327 0 0)
(-0.953635 0 0)
(-0.951919 0 0)
(-0.950179 0 0)
(-0.948415 0 0)
(-0.946629 0 0)
(-0.94482 0 0)
(-0.942989 0 0)
(-0.941135 0 0)
(-0.939261 0 0)
(-0.937365 0 0)
(-0.935448 0 0)
(-0.933511 0 0)
(-0.931554 0 0)
(-0.929576 0 0)
(-0.927579 0 0)
(-0.925563 0 0)
(-0.923527 0 0)
(-0.921473 0 0)
(-0.9194 0 0)
(-0.917309 0 0)
(-0.915201 0 0)
(-0.913074 0 0)
(-0.91093 0 0)
(-0.908768 0 0)
(-0.90659 0 0)
(-0.904395 0 0)
(-0.902183 0 0)
(-0.899955 0 0)
(-0.897711 0 0)
(-0.895451 0 0)
(-0.893176 0 0)
(-0.890885 0 0)
(-0.888579 0 0)
(-0.886258 0 0)
(-0.883922 0 0)
(-0.881571 0 0)
(-0.879206 0 0)
(-0.876826 0 0)
(-0.874433 0 0)
(-0.872025 0 0)
(-0.869604 0 0)
(-0.867169 0 0)
(-0.864721 0 0)
(-0.86226 0 0)
(-0.859786 0 0)
(-0.857298 0 0)
(-0.854798 0 0)
(-0.852286 0 0)
(-0.84976 0 0)
(-0.847223 0 0)
(-0.844674 0 0)
(-0.842112 0 0)
(-0.839539 0 0)
(-0.836954 0 0)
(-0.834357 0 0)
(-0.831749 0 0)
(-0.82913 0 0)
(-0.826499 0 0)
(-0.823857 0 0)
(-0.821205 0 0)
(-0.818541 0 0)
(-0.815867 0 0)
(-0.813183 0 0)
(-0.810488 0 0)
(-0.807783 0 0)
(-0.805067 0 0)
(-0.802342 0 0)
(-0.799606 0 0)
(-0.796861 0 0)
(-0.794105 0 0)
(-0.79134 0 0)
(-0.788566 0 0)
(-0.785782 0 0)
(-0.782989 0 0)
(-0.780187 0 0)
(-0.777375 0 0)
(-0.774555 0 0)
(-0.771725 0 0)
(-0.768887 0 0)
(-0.76604 0 0)
(-0.763184 0 0)
(-0.76032 0 0)
(-0.757447 0 0)
(-0.754566 0 0)
(-0.751676 0 0)
(-0.748779 0 0)
(-0.745873 0 0)
(-0.742959 0 0)
(-0.740037 0 0)
(-0.737107 0 0)
(-0.73417 0 0)
(-0.731225 0 0)
(-0.728272 0 0)
(-0.725312 0 0)
(-0.722344 0 0)
(-0.719368 0 0)
(-0.716386 0 0)
(-0.713396 0 0)
(-0.710399 0 0)
(-0.707395 0 0)
(-0.704384 0 0)
(-0.701366 0 0)
(-0.698341 0 0)
(-0.695309 0 0)
(-0.69227 0 0)
(-0.689225 0 0)
(-0.686173 0 0)
(-0.683114 0 0)
(-0.680049 0 0)
(-0.676978 0 0)
(-0.6739 0 0)
(-0.670816 0 0)
(-0.667726 0 0)
(-0.664629 0 0)
(-0.661527 0 0)
(-0.658418 0 0)
(-0.655303 0 0)
(-0.652183 0 0)
(-0.649056 0 0)
(-0.645924 0 0)
(-0.642786 0 0)
(-0.639642 0 0)
(-0.636493 0 0)
(-0.633338 0 0)
(-0.630177 0 0)
(-0.627011 0 0)
(-0.623839 0 0)
(-0.620663 0 0)
(-0.61748 0 0)
(-0.614293 0 0)
(-0.6111 0 0)
(-0.607902 0 0)
(-0.604699 0 0)
(-0.601491 0 0)
(-0.598278 0 0)
(-0.59506 0 0)
(-0.591837 0 0)
(-0.588609 0 0)
(-0.585376 0 0)
(-0.582138 0 0)
(-0.578896 0 0)
(-0.575649 0 0)
(-0.572397 0 0)
(-0.569141 0 0)
(-0.56588 0 0)
(-0.562615 0 0)
(-0.559345 0 0)
(-0.556071 0 0)
(-0.552792 0 0)
(-0.549509 0 0)
(-0.546222 0 0)
(-0.54293 0 0)
(-0.539635 0 0)
(-0.536335 0 0)
(-0.533031 0 0)
(-0.529722 0 0)
(-0.52641 0 0)
(-0.523094 0 0)
(-0.519774 0 0)
(-0.51645 0 0)
(-0.513122 0 0)
(-0.50979 0 0)
(-0.506454 0 0)
(-0.503115 0 0)
(-0.499771 0 0)
(-0.496424 0 0)
(-0.493074 0 0)
(-0.48972 0 0)
(-0.486362 0 0)
(-0.483 0 0)
(-0.479635 0 0)
(-0.476267 0 0)
(-0.472895 0 0)
(-0.46952 0 0)
(-0.466141 0 0)
(-0.462759 0 0)
(-0.459374 0 0)
(-0.455986 0 0)
(-0.452594 0 0)
(-0.449199 0 0)
(-0.445801 0 0)
(-0.442399 0 0)
(-0.438995 0 0)
(-0.435587 0 0)
(-0.432177 0 0)
(-0.428763 0 0)
(-0.425347 0 0)
(-0.421927 0 0)
(-0.418505 0 0)
(-0.415079 0 0)
(-0.411651 0 0)
(-0.40822 0 0)
(-0.404786 0 0)
(-0.40135 0 0)
(-0.397911 0 0)
(-0.394469 0 0)
(-0.391024 0 0)
(-0.387577 0 0)
(-0.384127 0 0)
(-0.380674 0 0)
(-0.377219 0 0)
(-0.373762 0 0)
(-0.370302 0 0)
(-0.366839 0 0)
(-0.363374 0 0)
(-0.359907 0 0)
(-0.356437 0 0)
(-0.352965 0 0)
(-0.349491 0 0)
(-0.346014 0 0)
(-0.342535 0 0)
(-0.339054 0 0)
(-0.335571 0 0)
(-0.332085 0 0)
(-0.328597 0 0)
(-0.325107 0 0)
(-0.321615 0 0)
(-0.318121 0 0)
(-0.314625 0 0)
(-0.311127 0 0)
(-0.307627 0 0)
(-0.304125 0 0)
(-0.300621 0 0)
(-0.297115 0 0)
(-0.293607 0 0)
(-0.290097 0 0)
(-0.286585 0 0)
(-0.283072 0 0)
(-0.279557 0 0)
(-0.27604 0 0)
(-0.272521 0 0)
(-0.269001 0 0)
(-0.265479 0 0)
(-0.261955 0 0)
(-0.258429 0 0)
(-0.254902 0 0)
(-0.251374 0 0)
(-0.247844 0 0)
(-0.244312 0 0)
(-0.240779 0 0)
(-0.237244 0 0)
(-0.233708 0 0)
(-0.23017 0 0)
(-0.226631 0 0)
(-0.22309 0 0)
(-0.219548 0 0)
(-0.216005 0 0)
(-0.212461 0 0)
(-0.208915 0 0)
(-0.205368 0 0)
(-0.201819 0 0)
(-0.198269 0 0)
(-0.194719 0 0)
(-0.191167 0 0)
(-0.187613 0 0)
(-0.184059 0 0)
(-0.180504 0 0)
(-0.176947 0 0)
(-0.173389 0 0)
(-0.169831 0 0)
(-0.166271 0 0)
(-0.16271 0 0)
(-0.159148 0 0)
(-0.155586 0 0)
(-0.152022 0 0)
(-0.148458 0 0)
(-0.144892 0 0)
(-0.141326 0 0)
(-0.137759 0 0)
(-0.134191 0 0)
(-0.130622 0 0)
(-0.127052 0 0)
(-0.123482 0 0)
(-0.119911 0 0)
(-0.116339 0 0)
(-0.112767 0 0)
(-0.109193 0 0)
(-0.10562 0 0)
(-0.102045 0 0)
(-0.0984702 0 0)
(-0.0948945 0 0)
(-0.0913183 0 0)
(-0.0877415 0 0)
(-0.0841642 0 0)
(-0.0805865 0 0)
(-0.0770082 0 0)
(-0.0734295 0 0)
(-0.0698503 0 0)
(-0.0662707 0 0)
(-0.0626908 0 0)
(-0.0591104 0 0)
(-0.0555297 0 0)
(-0.0519487 0 0)
(-0.0483674 0 0)
(-0.0447858 0 0)
(-0.0412039 0 0)
(-0.0376218 0 0)
(-0.0340394 0 0)
(-0.0304568 0 0)
(-0.0268741 0 0)
(-0.0232912 0 0)
(-0.0197082 0 0)
(-0.016125 0 0)
(-0.0125418 0 0)
(-0.00895848 0 0)
(-0.00537511 0 0)
(-0.00179171 0 0)
)
;

boundaryField
{
    left
    {
        type            fixedValue;
        value           uniform (0 0 0);
    }
    right
    {
        type            fixedValue;
        value           uniform (0 0 0);
    }
    frontBackUpDown
    {
        type            empty;
    }
}


// ************************************************************************* //
