/*--------------------------------*- C++ -*----------------------------------*\
| =========                 |                                                 |
| \\      /  F ield         | OpenFOAM: The Open Source CFD Toolbox           |
|  \\    /   O peration     | Version:  2412                                  |
|   \\  /    A nd           | Website:  www.openfoam.com                      |
|    \\/     M anipulation  |                                                 |
\*---------------------------------------------------------------------------*/
FoamFile
{
    version     2.0;
    format      ascii;
    arch        "LSB;label=32;scalar=64";
    class       volScalarField;
    location    "4.75";
    object      p;
}
// * * * * * * * * * * * * * * * * * * * * * * * * * * * * * * * * * * * * * //

dimensions      [0 2 -2 0 0 0 0];

internalField   nonuniform List<scalar> 
2200
(
0.183861
0.183545
0.184322
0.185531
0.1902
0.202059
0.225499
0.263955
0.324025
0.407945
0.491871
0.552655
0.590009
0.611988
0.623699
0.630118
0.63353
0.635038
0.635672
0.636151
0.178403
0.178411
0.179599
0.182601
0.189609
0.205255
0.231441
0.272303
0.333791
0.417102
0.501237
0.562445
0.598054
0.61765
0.626861
0.630588
0.63259
0.633568
0.633034
0.633533
0.173321
0.172963
0.174889
0.180244
0.192907
0.212591
0.242456
0.289759
0.354451
0.439984
0.524178
0.583154
0.615648
0.629812
0.634784
0.635455
0.634708
0.636438
0.636123
0.636515
0.173385
0.172713
0.17323
0.179759
0.19704
0.220959
0.257519
0.310803
0.380057
0.470683
0.554433
0.611121
0.640821
0.65059
0.651589
0.64882
0.644898
0.6439
0.646433
0.647473
0.183443
0.182325
0.180317
0.185415
0.198766
0.226683
0.272105
0.331656
0.408579
0.503017
0.5894
0.64791
0.675557
0.68098
0.676495
0.671492
0.670397
0.669543
0.673055
0.674778
0.203855
0.201494
0.199266
0.201039
0.203869
0.227164
0.272551
0.340585
0.43034
0.537501
0.630402
0.685689
0.70762
0.710757
0.708023
0.708775
0.715802
0.71888
0.72295
0.725502
0.23832
0.234938
0.234067
0.233606
0.23156
0.244126
0.275126
0.340203
0.439544
0.563021
0.665604
0.72157
0.740682
0.753413
0.767401
0.778797
0.788813
0.793371
0.796526
0.800301
0.285475
0.282386
0.282626
0.282369
0.282859
0.285917
0.302613
0.353554
0.450538
0.587654
0.700623
0.766435
0.794786
0.831892
0.860223
0.879128
0.888037
0.894541
0.895918
0.899729
0.331968
0.329213
0.328843
0.327609
0.335862
0.339867
0.354711
0.396291
0.484895
0.630561
0.754861
0.834024
0.88701
0.944215
0.972954
0.992721
0.997794
1.0084
1.01109
1.01473
0.371618
0.368558
0.366026
0.364327
0.382616
0.399253
0.43196
0.480135
0.565901
0.709421
0.851529
0.956655
1.03632
1.08483
1.10264
1.11651
1.11921
1.1326
1.13817
1.14234
0.415784
0.410845
0.403525
0.395898
0.416541
0.459036
0.526017
0.608909
0.718215
0.868218
1.03156
1.16285
1.242
1.2648
1.26104
1.26312
1.26671
1.28364
1.29468
1.29989
0.491197
0.48527
0.4748
0.464763
0.473556
0.528467
0.625478
0.76278
0.924181
1.11225
1.29958
1.44217
1.49173
1.47946
1.46752
1.46075
1.47279
1.49104
1.50561
1.51305
0.621842
0.615756
0.603308
0.592128
0.59396
0.639757
0.740753
0.918598
1.14489
1.40482
1.62373
1.76011
1.75854
1.73849
1.73732
1.74348
1.76582
1.78664
1.80281
1.80973
0.78199
0.776993
0.765706
0.752758
0.752452
0.780283
0.867258
1.05672
1.33864
1.6874
1.94429
2.05664
2.04706
2.04851
2.0729
2.0989
2.1256
2.15236
2.16955
2.17627
0.959107
0.95243
0.936784
0.915172
0.912981
0.936889
1.00022
1.16634
1.46334
1.87376
2.17625
2.3049
2.35162
2.405
2.45927
2.5017
2.5372
2.57177
2.59081
2.59825
1.14582
1.14023
1.12485
1.0976
1.08745
1.11063
1.17197
1.30559
1.56431
1.96542
2.32546
2.56419
2.72786
2.84748
2.91679
2.96822
3.01454
3.05771
3.08027
3.08889
1.35081
1.34305
1.32525
1.29671
1.28071
1.30888
1.40285
1.54495
1.7875
2.17213
2.60173
2.98872
3.24551
3.38687
3.45505
3.519
3.57676
3.62225
3.64559
3.65395
1.55048
1.54518
1.52852
1.49848
1.47984
1.51034
1.6378
1.85636
2.20533
2.69201
3.20749
3.64327
3.86975
3.99399
4.06905
4.14597
4.21132
4.25947
4.28443
4.29323
1.7298
1.72299
1.70612
1.67843
1.65845
1.68417
1.82976
2.12973
2.64726
3.32885
3.94201
4.34859
4.51546
4.6483
4.74706
4.83853
4.91224
4.96509
4.99249
5.0015
1.86777
1.86161
1.84296
1.81128
1.78847
1.81962
1.97092
2.29854
2.91772
3.73923
4.4654
4.93334
5.16334
5.35036
5.48752
5.59893
5.68608
5.7443
5.77489
5.78525
1.93621
1.93136
1.9143
1.88333
1.86139
1.897
2.0631
2.42501
3.09859
3.99133
4.85056
5.49643
5.86316
6.12205
6.30121
6.43592
6.5348
6.59901
6.63158
6.64211
1.9158
1.9112
1.89663
1.87185
1.85532
1.90963
2.12951
2.5889
3.37807
4.38771
5.39995
6.20354
6.68731
6.98156
7.18709
7.34288
7.44975
7.51376
7.5476
7.55626
1.74259
1.74557
1.74169
1.72914
1.74212
1.84946
2.1616
2.77919
3.76847
4.97253
6.15752
7.05636
7.59712
7.91489
8.14168
8.3115
8.42413
8.49499
8.52906
8.53636
1.36479
1.37273
1.38706
1.41622
1.49179
1.68887
2.12732
2.93909
4.14156
5.55047
6.9351
7.93667
8.53676
8.90821
9.1611
9.34017
9.4644
9.54173
9.5848
9.608
0.623113
0.669871
0.74914
0.869511
1.07118
1.41741
2.02739
3.04018
4.43833
6.04895
7.66637
8.81709
9.50463
9.94468
10.2201
10.4118
10.5615
10.6604
10.7221
10.746
-0.638837
-0.52948
-0.289749
0.0366441
0.452198
1.02206
1.8626
3.09553
4.70772
6.54778
8.40355
9.71041
10.4855
10.9743
11.2986
11.5208
11.6796
11.8079
11.8626
11.8683
-2.53717
-2.1946
-1.6339
-1.01851
-0.331989
0.511177
1.62424
3.12703
5.01135
7.14625
9.25566
10.7439
11.6215
12.1948
12.5932
12.8664
13.0552
13.2295
13.3565
13.3805
-5.09088
-4.13436
-3.1344
-2.2077
-1.23844
-0.104477
1.30132
3.10728
5.30382
7.76236
10.1064
11.7676
12.7744
13.453
13.9373
14.3137
14.6187
14.875
15.0785
15.115
-7.337
-6.05572
-4.76057
-3.52881
-2.23468
-0.790647
0.935425
3.0381
5.52067
8.2498
10.783
12.5628
13.7023
14.501
15.0933
15.5508
15.9131
16.2198
16.4739
16.5172
-9.22234
-7.77358
-6.31362
-4.82123
-3.22959
-1.48039
0.556979
2.92845
5.64941
8.59728
11.2903
13.1728
14.4351
15.3359
16.0109
16.5554
16.9883
17.3171
17.5861
17.6431
-10.8087
-9.23997
-7.65935
-5.98957
-4.16737
-2.14195
0.169321
2.78459
5.70348
8.82687
11.6555
13.6245
14.9894
15.9735
16.7144
17.2899
17.7394
18.0723
18.3517
18.4249
-12.1116
-10.3482
-8.79304
-7.02759
-5.01906
-2.75118
-0.213676
2.60484
5.68728
8.95575
11.8864
13.9655
15.4002
16.43
17.1883
17.7741
18.2584
18.6307
18.9371
19.0243
-13.2056
-11.2867
-9.76897
-7.92235
-5.75745
-3.30354
-0.587148
2.39338
5.61137
8.9985
12.0148
14.2003
15.6502
16.7208
17.5139
18.1125
18.6568
18.9859
19.33
19.4256
-14.0569
-12.1148
-10.631
-8.6682
-6.36831
-3.77806
-0.930281
2.16673
5.49041
8.9691
12.0564
14.2967
15.818
16.9127
17.7565
18.3855
18.8998
19.2892
19.6127
19.7025
-14.7604
-12.8617
-11.3303
-9.2277
-6.81959
-4.14883
-1.23449
1.93515
5.34051
8.88608
12.0352
14.3389
15.9277
17.074
17.9392
18.6009
19.144
19.5111
19.8708
19.9368
-15.3945
-13.4965
-11.8535
-9.60434
-7.12063
-4.43569
-1.50296
1.71312
5.17709
8.76802
11.9725
14.347
16.0074
17.2218
18.1371
18.8175
19.3663
19.7288
20.0562
20.1513
-15.9257
-14.0034
-12.2355
-9.82714
-7.33159
-4.66417
-1.72993
1.51591
5.01238
8.63132
11.8881
14.3484
16.0961
17.3733
18.3189
19.0215
19.5696
19.9669
20.288
20.388
-16.3837
-14.4138
-12.4861
-10.0056
-7.52061
-4.8591
-1.91444
1.34905
4.85547
8.49107
11.8005
14.3507
16.1778
17.5133
18.5039
19.2326
19.7939
20.2018
20.5116
20.6177
-16.7103
-14.7753
-12.7533
-10.2174
-7.73143
-5.04651
-2.07163
1.20345
4.71016
8.35697
11.7126
14.3379
16.2362
17.6299
18.6625
19.4233
20.0149
20.4456
20.7567
20.8639
-17.0313
-15.0848
-13.0171
-10.4837
-7.97926
-5.2417
-2.2247
1.06476
4.57384
8.22764
11.6147
14.2947
16.2518
17.7034
18.8034
19.6205
20.2341
20.6801
21.0092
21.1141
-17.3212
-15.4043
-13.3308
-10.812
-8.25662
-5.45885
-2.39176
0.921296
4.43779
8.09267
11.4937
14.2099
16.2237
17.7454
18.9156
19.8003
20.4742
20.9478
21.2795
21.3864
-17.6528
-15.7533
-13.6818
-11.165
-8.56079
-5.70377
-2.58077
0.76371
4.2899
7.94015
11.3432
14.0879
16.1613
17.7615
19.0097
19.9665
20.6962
21.2155
21.5756
21.6791
-18.0329
-16.1177
-14.0292
-11.5182
-8.87888
-5.96735
-2.78996
0.585225
4.11984
7.76383
11.1659
13.9357
16.0627
17.7402
19.0708
20.1105
20.9186
21.497
21.8802
21.9944
-18.406
-16.5052
-14.4106
-11.8806
-9.19177
-6.23423
-3.01293
0.383318
3.92434
7.56624
10.9708
13.7623
15.9327
17.676
19.0917
20.2267
21.1188
21.7693
22.185
22.2934
-18.8022
-16.8986
-14.7937
-12.199
-9.47998
-6.4904
-3.24357
0.161513
3.70852
7.35626
10.767
13.5711
15.7705
17.5657
19.0599
20.2927
21.2921
22.0385
22.4969
22.5428
-19.1707
-17.1992
-15.042
-12.4406
-9.74196
-6.73362
-3.47864
-0.0725511
3.48265
7.14366
10.5598
13.3648
15.5793
17.4095
18.9642
20.2934
21.408
22.2817
22.8422
22.7373
-19.5028
-17.4775
-15.2843
-12.6844
-9.9832
-6.96372
-3.71313
-0.30924
3.25552
6.93032
10.3424
13.1331
15.3461
17.1948
18.7897
20.196
21.4333
22.4555
23.2139
23.2491
-19.8197
-17.8859
-15.7483
-13.009
-10.2019
-7.18212
-3.94177
-0.542178
3.02949
6.70839
10.1005
12.8597
15.0519
16.8953
18.4999
19.9361
21.2417
22.378
22.9808
22.9206
-20.1404
-18.2302
-16.0222
-13.2038
-10.4033
-7.39362
-4.16066
-0.764751
2.80912
6.47742
9.83362
12.5458
14.6947
16.5012
18.0759
19.4761
20.7077
21.6782
22.0758
22.1015
-20.3552
-18.2747
-15.9226
-13.2397
-10.6251
-7.60536
-4.37893
-0.982677
2.58727
6.23079
9.53987
12.1907
14.2719
16.0083
17.5016
18.7931
19.8614
20.4964
20.7437
20.9058
-20.4865
-18.4541
-16.1946
-13.563
-10.892
-7.83543
-4.60753
-1.20562
2.35371
5.96302
9.21991
11.7975
13.7854
15.4112
16.7669
17.8893
18.7738
19.2838
19.4499
19.6838
-20.7429
-19.0027
-16.9122
-14.0976
-11.1845
-8.11022
-4.85327
-1.44559
2.09779
5.66946
8.87379
11.3679
13.2355
14.7092
15.8923
16.831
17.5397
17.9286
18.0088
18.3297
-21.0983
-19.3612
-17.1828
-14.3199
-11.4856
-8.40465
-5.11311
-1.70603
1.81813
5.35242
8.50389
10.9048
12.6295
13.9192
14.9057
15.6449
16.1166
16.3621
16.4713
16.8182
-21.3166
-19.3753
-17.0655
-14.4129
-11.7833
-8.66406
-5.37564
-1.97536
1.52632
5.02349
8.11808
10.4164
11.9849
13.0692
13.8429
14.3894
14.6472
14.6406
14.541
14.7625
-21.4841
-19.6129
-17.4283
-14.8121
-12.0597
-8.90434
-5.63061
-2.24055
1.23567
4.69386
7.7244
9.91375
11.3276
12.2045
12.7448
13.0808
13.1096
12.5495
11.6125
11.7114
-21.7951
-20.04
-17.8713
-15.1399
-12.2846
-9.14471
-5.86734
-2.49436
0.955525
4.37026
7.32885
9.40883
10.6823
11.3663
11.6558
11.6997
11.4976
10.4196
8.17425
6.14364
-22.054
-20.2206
-17.9001
-15.1804
-12.4554
-9.34191
-6.07842
-2.72924
0.69408
4.06062
6.94291
8.92073
10.0762
10.6025
10.6529
10.3471
9.8161
8.77487
4.91501
-5.38193
-22.1785
-20.3036
-17.9999
-15.3069
-12.6155
-9.49651
-6.26886
-2.94262
0.450929
3.76388
6.56581
8.44837
9.5045
9.9096
9.77199
9.21897
8.49205
7.80417
7.18921
3.1715
-22.3659
-20.542
-18.2928
-15.542
-12.7891
-9.65826
-6.45418
-3.14856
0.211212
3.46665
6.18899
7.98775
8.96613
9.3064
9.11526
8.60544
8.04393
8.01373
8.91408
7.97737
-22.5877
-20.7685
-18.4667
-15.6947
-12.9632
-9.82771
-6.64265
-3.35959
-0.0332346
3.16681
5.81908
7.55615
8.48921
8.8378
8.75972
8.46813
8.12739
8.07518
8.5469
8.05804
-22.7552
-20.9222
-18.5991
-15.8517
-13.1478
-9.99746
-6.84337
-3.58209
-0.285485
2.86696
5.4644
7.16938
8.10027
8.5217
8.65579
8.53047
8.27761
8.02344
8.13516
8.08064
-22.9189
-21.1078
-18.8042
-16.081
-13.356
-10.1843
-7.06168
-3.816
-0.543025
2.57337
5.13552
6.83988
7.81504
8.33252
8.59687
8.62456
8.44036
8.1499
8.23245
8.27252
-23.099
-21.3131
-18.9989
-16.3002
-13.5591
-10.3838
-7.28882
-4.0546
-0.799092
2.29377
4.8439
6.57849
7.62911
8.24535
8.59939
8.75712
8.68
8.43517
8.49111
8.52379
-23.2302
-21.4706
-19.154
-16.4901
-13.733
-10.5796
-7.50945
-4.28572
-1.04444
2.03625
4.59845
6.39015
7.53288
8.24688
8.6857
8.95926
9.02889
8.84649
8.84995
8.89897
-23.3136
-21.593
-19.2806
-16.6472
-13.8652
-10.7645
-7.71011
-4.49628
-1.27029
1.80813
4.40402
6.27623
7.5223
8.33787
8.85576
9.23453
9.51308
9.49112
9.50412
9.54277
-23.3209
-21.6612
-19.3591
-16.7482
-13.962
-10.9257
-7.87788
-4.67881
-1.47024
1.61584
4.26062
6.22774
7.58801
8.53024
9.15186
9.6528
10.1011
10.3345
10.443
10.5058
-23.2513
-21.6638
-19.3645
-16.7784
-14.0126
-11.0398
-8.00642
-4.82914
-1.63967
1.46185
4.16567
6.23068
7.71778
8.80436
9.59434
10.2317
10.812
11.2381
11.4479
11.5217
-23.0625
-21.5527
-19.2853
-16.7406
-14.0142
-11.0961
-8.0901
-4.94315
-1.77791
1.34123
4.11628
6.27057
7.88121
9.12735
10.1007
10.8738
11.5088
12.0091
12.3018
12.3788
-22.7489
-21.3324
-19.0964
-16.6038
-13.9369
-11.0806
-8.1197
-5.01652
-1.88216
1.24914
4.08675
6.32301
8.04307
9.42795
10.5242
11.3444
11.9688
12.4531
12.7665
12.8559
-22.2493
-20.939
-18.7735
-16.3627
-13.7702
-10.9886
-8.08944
-5.04584
-1.95431
1.17229
4.04645
6.34741
8.13391
9.5562
10.6449
11.4399
12.0475
12.5235
12.8478
12.9543
-21.5401
-20.3695
-18.2911
-15.9749
-13.488
-10.8071
-7.99308
-5.03124
-1.99984
1.09316
3.96177
6.27214
8.03638
9.40953
10.4633
11.2596
11.8794
12.3518
12.6786
12.7993
-20.5831
-19.577
-17.6349
-15.4675
-13.1045
-10.5442
-7.83713
-4.97472
-2.02908
0.990077
3.79784
6.04688
7.75193
9.0991
10.1695
10.9859
11.612
12.0747
12.3959
12.5372
-19.3539
-18.5606
-16.8116
-14.8128
-12.6086
-10.1951
-7.61649
-4.88332
-2.05781
0.845821
3.54584
5.71832
7.39579
8.7435
9.82064
10.6381
11.2599
11.7267
12.0575
12.2231
-17.9747
-17.4224
-15.8956
-14.0864
-12.0349
-9.76533
-7.33566
-4.75932
-2.08748
0.66627
3.24247
5.33939
6.97248
8.27589
9.31281
10.1171
10.7429
11.2224
11.5699
11.7628
-16.5643
-16.2467
-14.9384
-13.274
-11.3541
-9.24189
-6.98442
-4.5932
-2.10651
0.473951
2.90341
4.87358
6.39147
7.59849
8.56811
9.33669
9.94912
10.43
10.7922
11.0168
-15.4294
-15.2757
-14.0199
-12.3867
-10.5593
-8.60532
-6.542
-4.36392
-2.08797
0.278556
2.501
4.2859
5.64475
6.72017
7.58048
8.25977
8.80047
9.22577
9.55657
9.77971
-14.2175
-14.1222
-12.8587
-11.2877
-9.59674
-7.84619
-6.00572
-4.05985
-2.02121
0.101866
2.10006
3.70966
4.92354
5.86787
6.60294
7.15871
7.5846
7.90258
8.12942
8.27868
-12.2218
-12.1691
-11.0012
-9.71601
-8.32419
-6.86159
-5.31518
-3.66092
-1.89201
-0.0234257
1.74851
3.18527
4.25725
5.07303
5.70006
6.14495
6.46469
6.68663
6.82583
6.9025
-9.19547
-9.11086
-8.52085
-7.77183
-6.8004
-5.70223
-4.49215
-3.15212
-1.67659
-0.0981352
1.41629
2.64752
3.5486
4.20985
4.70969
5.04583
5.2687
5.40799
5.48671
5.5258
-5.73676
-5.74041
-5.66393
-5.49333
-5.03376
-4.3707
-3.54925
-2.538
-1.38634
-0.118919
1.12839
2.14626
2.87786
3.39
3.76987
4.01715
4.1732
4.26403
4.31114
4.34346
-3.35812
-3.35814
-3.37317
-3.39978
-3.25988
-2.98253
-2.53839
-1.86837
-1.04821
-0.0778544
0.910037
1.71871
2.30054
2.68824
2.9686
3.1474
3.26126
3.33489
3.37782
3.41355
-1.83504
-1.84423
-1.85476
-1.88185
-1.85422
-1.7919
-1.61042
-1.21962
-0.680439
0.0253121
0.769689
1.3842
1.83942
2.13314
2.34408
2.48122
2.57397
2.64643
2.68765
2.71227
-0.935299
-0.954225
-0.976284
-1.00038
-0.98355
-0.971433
-0.890876
-0.661277
-0.327959
0.155157
0.694207
1.14893
1.50196
1.73174
1.9016
2.02041
2.09909
2.17044
2.20267
2.22102
-0.444596
-0.467241
-0.517899
-0.558678
-0.535408
-0.500592
-0.417652
-0.257131
-0.060548
0.270556
0.667194
1.00856
1.28485
1.46951
1.61079
1.72165
1.77791
1.83674
1.85761
1.86722
-0.205646
-0.225085
-0.278237
-0.322838
-0.30469
-0.258345
-0.167052
-0.0366748
0.0944425
0.357437
0.669624
0.93522
1.15538
1.30439
1.41588
1.51722
1.54714
1.58102
1.59005
1.5946
-0.078141
-0.0908556
-0.127465
-0.161795
-0.157311
-0.134813
-0.0721229
0.0404823
0.16887
0.411356
0.667507
0.879199
1.05723
1.17998
1.25367
1.33598
1.34573
1.36028
1.3608
1.36335
0.0294414
0.021472
-0.00143381
-0.0267229
-0.0370248
-0.0541251
-0.0333659
0.062555
0.199787
0.417611
0.628129
0.803142
0.948347
1.05097
1.08293
1.13933
1.14376
1.15342
1.151
1.15133
0.126017
0.120353
0.103103
0.0855753
0.0724179
0.0460806
0.0462293
0.112061
0.21029
0.38326
0.555028
0.706698
0.816545
0.901486
0.905795
0.939103
0.944987
0.955859
0.95497
0.955514
0.194542
0.190828
0.179491
0.172979
0.172014
0.169241
0.177332
0.206201
0.232123
0.352113
0.483305
0.607318
0.675816
0.740551
0.744998
0.7681
0.772788
0.782311
0.782176
0.783195
0.251143
0.248204
0.242287
0.242582
0.246429
0.261029
0.277842
0.294762
0.284196
0.357629
0.434753
0.518982
0.555588
0.602828
0.616302
0.637474
0.639521
0.64546
0.643698
0.643935
0.299277
0.294942
0.287697
0.28604
0.28093
0.289481
0.293914
0.323785
0.326179
0.376585
0.405327
0.455287
0.476658
0.512365
0.525643
0.541108
0.539549
0.541459
0.536869
0.535415
0.319844
0.313856
0.302691
0.295304
0.2788
0.277888
0.265131
0.299931
0.316555
0.365589
0.37896
0.416196
0.431774
0.457123
0.460425
0.468588
0.461453
0.459732
0.452476
0.449266
0.309503
0.303369
0.292185
0.284528
0.265107
0.264268
0.24598
0.266509
0.271101
0.324251
0.342345
0.38119
0.390948
0.407988
0.400472
0.404206
0.393625
0.39035
0.382229
0.378157
0.283726
0.278757
0.271269
0.269236
0.253915
0.259031
0.240089
0.25211
0.240242
0.282678
0.297159
0.334522
0.336261
0.34897
0.339275
0.341117
0.330968
0.32849
0.32162
0.317573
0.2592
0.255012
0.250934
0.252392
0.240571
0.249724
0.232479
0.249649
0.227801
0.253583
0.253027
0.282766
0.278665
0.28897
0.28054
0.283589
0.274924
0.273581
0.268579
0.264698
0.23586
0.231525
0.229372
0.230207
0.219743
0.228804
0.21077
0.23332
0.209324
0.230781
0.217757
0.239151
0.230484
0.240008
0.230957
0.235013
0.227175
0.226072
0.222202
0.218525
0.207017
0.201632
0.200779
0.200165
0.188988
0.197809
0.178001
0.199431
0.178329
0.202691
0.186894
0.202335
0.192034
0.201196
0.190863
0.194343
0.186609
0.185122
0.181896
0.178379
0.171318
0.165739
0.166227
0.165569
0.156005
0.163742
0.144614
0.162607
0.14152
0.168161
0.152114
0.167014
0.156038
0.164284
0.154106
0.156934
0.15001
0.148485
0.146131
0.142994
0.134378
0.128547
0.130813
0.129666
0.121612
0.129611
0.113128
0.129357
0.107327
0.132506
0.114759
0.130895
0.119116
0.126627
0.117665
0.120501
0.114825
0.11369
0.112495
0.109708
0.0976772
0.0922679
0.0954282
0.093752
0.0889439
0.0955727
0.0806415
0.0971945
0.075239
0.0977157
0.0783395
0.0943183
0.0821276
0.089528
0.0817509
0.0848766
0.0807263
0.0800393
0.079702
0.0774431
0.0604678
0.0556187
0.0595699
0.056906
0.053169
0.0604391
0.0469978
0.0629909
0.0431518
0.062445
0.0442228
0.058086
0.0466997
0.0542196
0.0473926
0.0509356
0.0475992
0.0472232
0.0473244
0.0455197
0.022826
0.0196662
0.0244074
0.0206462
0.0166588
0.0227036
0.0124387
0.0245566
0.0110864
0.0234735
0.0119866
0.0209157
0.0136126
0.019074
0.0144255
0.0172411
0.0150877
0.0150889
0.0157134
0.0145207
11.7628
16.1014
17.2024
18.604
19.7536
20.7835
21.6935
22.4833
23.0664
23.2104
16.4896
18.6073
19.3116
20.2074
20.9924
21.6735
22.2466
22.7003
22.952
22.9589
19.0609
20.1089
20.6454
21.2019
21.6991
22.1284
22.4766
22.7332
22.8708
22.8917
20.48
21.126
21.4765
21.8294
22.1331
22.3906
22.5949
22.7362
22.8163
22.8458
21.4113
21.7511
21.9698
22.1865
22.3772
22.5388
22.6645
22.7509
22.7976
22.8257
21.9306
22.1587
22.29
22.4329
22.5509
22.6475
22.7223
22.775
22.8082
22.8309
22.2761
22.4242
22.496
22.587
22.6611
22.7217
22.7696
22.8055
22.8277
22.8513
22.5039
22.595
22.6425
22.6971
22.7433
22.7821
22.8146
22.8415
22.8623
22.8818
22.6678
22.7239
22.7506
22.7814
22.8134
22.8421
22.8664
22.8919
22.9098
22.9313
22.7883
22.8215
22.8462
22.8685
22.8926
22.9165
22.9361
22.9559
22.9699
22.9877
22.8994
22.9237
22.9444
22.9615
22.9784
22.9946
23.0088
23.0228
23.0305
23.0465
23.0054
23.0204
23.036
23.0495
23.0612
23.0714
23.0812
23.0899
23.0955
23.1081
23.1007
23.1096
23.1234
23.1339
23.1425
23.1504
23.1584
23.1661
23.1687
23.1776
23.1969
23.2025
23.2124
23.2192
23.2237
23.229
23.2349
23.2419
23.2451
23.2547
23.3123
23.3006
23.2939
23.2884
23.286
23.2874
23.2937
23.3056
23.32
23.3479
23.4365
23.3805
23.349
23.3303
23.3218
23.3219
23.3312
23.3513
23.3829
23.4528
)
;

boundaryField
{
    wall-4
    {
        type            zeroGradient;
    }
    pressure-outlet-7
    {
        type            fixedValue;
        value           uniform 0;
    }
    velocity-inlet-6
    {
        type            zeroGradient;
    }
    velocity-inlet-5
    {
        type            zeroGradient;
    }
    frontAndBackPlanes
    {
        type            empty;
    }
}


// ************************************************************************* //
