/*--------------------------------*- C++ -*----------------------------------*\
| =========                 |                                                 |
| \\      /  F ield         | OpenFOAM: The Open Source CFD Toolbox           |
|  \\    /   O peration     | Version:  2412                                  |
|   \\  /    A nd           | Website:  www.openfoam.com                      |
|    \\/     M anipulation  |                                                 |
\*---------------------------------------------------------------------------*/
FoamFile
{
    version     2.0;
    format      ascii;
    arch        "LSB;label=32;scalar=64";
    class       surfaceScalarField;
    location    "4.75";
    object      phi;
}
// * * * * * * * * * * * * * * * * * * * * * * * * * * * * * * * * * * * * * //

dimensions      [0 3 -1 0 0 0 0];

oriented        oriented;

internalField   nonuniform List<scalar> 
4262
(
0.00196551
0.218547
0.000345869
0.830273
-0.00126417
1.76875
-0.00247198
3.16637
-0.00433117
5.18646
-0.00570794
8.01574
-0.00718603
11.8486
-0.00828578
16.8208
-0.00866358
22.8822
-0.00755661
29.5272
-0.00650461
29.5273
-0.00499236
22.8803
-0.00415325
16.8189
-0.00322488
11.8462
-0.00284179
8.01398
-0.00261912
5.18438
-0.00214754
3.1647
-0.00316835
1.76816
-0.00365084
0.829136
0.216862
-0.0032446
0.221792
-0.00290711
0.829935
-0.00582296
1.77167
-0.00982744
3.17038
-0.0159144
5.19255
-0.0201063
8.01993
-0.0229354
11.8514
-0.02642
16.8243
-0.0281901
22.884
-0.0238328
29.5229
-0.0174969
29.521
-0.012762
22.8756
-0.01051
16.8166
-0.00753279
11.8432
-0.00577853
8.01223
-0.00472459
5.18333
-0.00379585
3.16377
-0.00316185
1.76753
0.000529766
0.825444
0.217392
-0.0097965
0.231588
-0.0107369
0.830876
-0.015509
1.77644
-0.0225675
3.17744
-0.0280992
5.19808
-0.0333822
8.02522
-0.0379536
11.856
-0.0394009
16.8258
-0.0408468
22.8854
-0.0361358
29.5182
-0.0295725
29.5144
-0.0223193
22.8683
-0.0148316
16.8092
-0.00964742
11.8381
-0.00529459
8.00787
-0.00245452
5.18049
-0.000664675
3.16198
0.00215418
1.76471
0.00685512
0.820743
0.224247
-0.017757
0.249345
-0.0239145
0.837033
-0.0358036
1.78833
-0.0454655
3.1871
-0.0503099
5.20293
-0.0536148
8.02852
-0.0588166
11.8612
-0.0591859
16.8261
-0.0602223
22.8865
-0.0496343
29.5076
-0.0374454
29.5022
-0.0269744
22.8579
-0.014021
16.7962
-0.00574527
11.8298
0.00315858
7.99897
0.00726091
5.17638
0.00849021
3.16075
0.00837586
1.76483
0.0114277
0.817691
0.235674
-0.0246996
0.274045
-0.0390789
0.851413
-0.0553258
1.80458
-0.0667429
3.19852
-0.0777728
5.21396
-0.0781683
8.02892
-0.0794856
11.8625
-0.0765388
16.8232
-0.075013
22.8849
-0.0609343
29.4935
-0.0441927
29.4855
-0.0291278
22.8428
-0.0118909
16.779
0.00093267
11.817
0.0133412
7.98656
0.0185351
5.17119
0.0227473
3.15654
0.021255
1.76632
0.0173407
0.821605
0.253015
-0.0267875
0.300832
-0.0568778
0.881503
-0.0674292
1.81513
-0.0801198
3.21121
-0.0983222
5.23216
-0.107156
8.03775
-0.105492
11.8609
-0.100498
16.8182
-0.0937564
22.8782
-0.0753223
29.4751
-0.0542314
29.4644
-0.0294088
22.818
-0.00680076
16.7564
0.0149293
11.7952
0.0249947
7.9765
0.0291342
5.16705
0.0336924
3.15198
0.0381894
1.76182
0.0199973
0.839798
0.273012
-0.0295043
0.330337
-0.0748922
0.926891
-0.0785112
1.81875
-0.0959231
3.22862
-0.11386
5.25009
-0.131848
8.05574
-0.134235
11.8633
-0.130648
16.8146
-0.117461
22.865
-0.0871275
29.4447
-0.0554005
29.4327
-0.0217727
22.7843
0.00456199
16.73
0.0252632
11.7745
0.0325842
7.96918
0.0386299
5.16101
0.0417058
3.1489
0.0534056
1.75012
0.0205545
0.872649
0.293567
-0.0340128
0.364349
-0.0854517
0.97833
-0.0879807
1.82128
-0.110702
3.25134
-0.123784
5.26318
-0.142589
8.07454
-0.152959
11.8736
-0.157791
16.8194
-0.144095
22.8513
-0.103199
29.4038
-0.0595833
29.389
-0.0206336
22.7454
0.00178487
16.7076
0.0202492
11.7561
0.029908
7.95952
0.0410753
5.14984
0.0441661
3.14581
0.0618868
1.7324
0.0237431
0.910792
0.31731
-0.03662
0.400969
-0.0888194
1.03053
-0.094217
1.82667
-0.114411
3.27154
-0.12786
5.27662
-0.149983
8.09667
-0.16558
11.8892
-0.177282
16.8311
-0.169149
22.8432
-0.118227
29.3529
-0.0626343
29.3334
-0.0224965
22.7052
-0.00144513
16.6866
0.0169006
11.7377
0.0280841
7.94833
0.0392919
5.13863
0.0454713
3.13963
0.062105
1.71577
0.0249918
0.947905
0.342302
-0.038455
0.439424
-0.0939353
1.08601
-0.106486
1.83922
-0.124879
3.28993
-0.150541
5.30229
-0.170754
8.11688
-0.190306
11.9088
-0.197522
16.8384
-0.192469
22.8381
-0.136729
29.2972
-0.0748972
29.2716
-0.0328836
22.6632
-0.00181527
16.6555
0.019428
11.7165
0.0392457
7.92852
0.0468898
5.13099
0.0558869
3.13063
0.0626878
1.70897
0.0250715
0.985522
0.367373
-0.0435359
0.48296
-0.106245
1.14872
-0.137905
1.87088
-0.15428
3.3063
-0.193159
5.34117
-0.210581
8.1343
-0.223369
11.9216
-0.219882
16.8349
-0.212647
22.8309
-0.157157
29.2417
-0.0927946
29.2073
-0.0394204
22.6099
0.00614115
16.6099
0.0388226
11.6838
0.0644575
7.90288
0.0625696
5.13287
0.079517
3.11369
0.073797
1.71469
0.0295979
1.02972
0.396971
-0.0560931
0.539053
-0.135615
1.22824
-0.195827
1.9311
-0.216815
3.32729
-0.265033
5.38938
-0.284452
8.15372
-0.288314
11.9254
-0.269297
16.8159
-0.246045
22.8076
-0.180686
29.1763
-0.109433
29.136
-0.0363704
22.5368
0.0326242
16.5409
0.0851711
11.6312
0.115811
7.87224
0.115703
5.13298
0.133409
3.09598
0.100464
1.74763
0.0410057
1.08918
0.437977
-0.071701
0.610754
-0.169928
1.32647
-0.254933
2.0161
-0.290949
3.36331
-0.334548
5.43298
-0.361857
8.18103
-0.364749
11.9283
-0.338959
16.7901
-0.297298
22.766
-0.208815
29.0879
-0.112084
29.0393
-0.0118458
22.4366
0.077393
16.4517
0.135904
11.5727
0.164408
7.84374
0.17416
5.12323
0.182887
3.08725
0.125534
1.80498
0.051741
1.16297
0.489718
-0.0807932
0.691548
-0.190384
1.43606
-0.294987
2.12071
-0.349753
3.41807
-0.39269
5.47592
-0.432161
8.2205
-0.445748
11.9419
-0.428713
16.773
-0.370564
22.7078
-0.244764
28.9621
-0.104491
28.899
0.0210993
22.311
0.113615
16.3592
0.176105
11.5102
0.20063
7.81921
0.222587
5.10127
0.217524
3.09232
0.145075
1.87743
0.0592101
1.24884
0.548928
-0.0927239
0.784271
-0.219874
1.56321
-0.338887
2.23972
-0.408217
3.4874
-0.454136
5.52184
-0.511639
8.278
-0.531
11.9613
-0.518853
16.7609
-0.45283
22.6418
-0.281957
28.7912
-0.0949336
28.712
0.051632
22.1644
0.151534
16.2593
0.218087
11.4437
0.238887
7.79841
0.261229
5.07893
0.237918
3.11563
0.15502
1.96033
0.061927
1.34193
0.610855
-0.0953381
0.87961
-0.231427
1.6993
-0.37369
2.38198
-0.475437
3.58915
-0.53748
5.58388
-0.6021
8.34262
-0.621694
11.9809
-0.61227
16.7515
-0.536664
22.5662
-0.326306
28.5808
-0.0975194
28.4832
0.0627343
22.0042
0.18264
16.1394
0.257108
11.3692
0.280984
7.77454
0.307463
5.05245
0.272339
3.15075
0.174252
2.05842
0.0676732
1.44851
0.678528
-0.116022
0.995631
-0.274789
1.85806
-0.431827
2.53902
-0.544066
3.70139
-0.610762
5.65058
-0.681773
8.41363
-0.706976
12.0061
-0.688248
16.7327
-0.602324
22.4803
-0.384258
28.3628
-0.148747
28.2477
0.0354046
21.82
0.189054
15.9857
0.287948
11.2703
0.330799
7.73168
0.350153
5.0331
0.291279
3.20963
0.178782
2.17092
0.0667473
1.56054
0.745275
-0.111819
1.10745
-0.278794
2.02504
-0.462629
2.72285
-0.615202
3.85396
-0.711043
5.74642
-0.780801
8.48339
-0.803697
12.029
-0.77895
16.708
-0.681947
22.3833
-0.458329
28.1391
-0.214135
28.0035
0.00276711
21.6031
0.190888
15.7976
0.306444
11.1548
0.370675
7.66745
0.389447
5.01433
0.320059
3.27901
0.193588
2.29739
0.0699097
1.68422
0.815185
-0.138796
1.24625
-0.326418
2.21266
-0.523218
2.91965
-0.691254
4.022
-0.804939
5.8601
-0.884628
8.56308
-0.934619
12.079
-0.932587
16.706
-0.812729
22.2634
-0.545841
27.8723
-0.244508
27.7021
0.0112743
21.3473
0.21248
15.5964
0.341623
11.0256
0.425534
7.58354
0.42273
5.01713
0.328151
3.37359
0.190634
2.4349
0.0624806
1.81237
0.877666
-0.13493
1.38118
-0.337666
2.4154
-0.564425
3.14641
-0.770931
4.22851
-0.923983
6.01316
-1.02574
8.66484
-1.10342
12.1566
-1.12853
16.7311
-0.981801
22.1167
-0.648032
27.5385
-0.263582
27.3177
0.036001
21.0477
0.244026
15.3884
0.381488
10.8882
0.476275
7.48876
0.462331
5.03108
0.353252
3.48267
0.198346
2.58981
0.0556616
1.95506
0.933327
-0.16071
1.54189
-0.383805
2.63849
-0.631068
3.39368
-0.865342
4.46278
-1.05611
6.20392
-1.18743
8.79615
-1.29011
12.2593
-1.32726
16.7682
-1.15525
21.9447
-0.77864
27.1619
-0.33298
26.872
0.00718332
20.7076
0.249531
15.146
0.418653
10.719
0.512723
7.39469
0.474657
5.06914
0.344115
3.61321
0.177309
2.75662
0.0341022
2.09827
0.96743
-0.167245
1.70913
-0.412919
2.88417
-0.692021
3.67278
-0.970096
4.74085
-1.20837
6.4422
-1.38192
8.96969
-1.51154
12.3889
-1.54616
16.8028
-1.3423
21.7408
-0.932023
26.7516
-0.435676
26.3757
-0.0487929
20.3207
0.23742
14.8598
0.440561
10.5159
0.530383
7.30486
0.473084
5.12644
0.324164
3.76213
0.148821
2.93196
0.00949034
2.2376
0.97692
-0.201608
1.91074
-0.473224
3.15578
-0.78589
3.98544
-1.10699
5.06196
-1.4082
6.74341
-1.63774
9.19923
-1.79477
12.546
-1.81486
16.8229
-1.56938
21.4953
-1.12525
26.3075
-0.566307
25.8167
-0.112349
19.8667
0.228967
14.5185
0.462362
10.2825
0.540671
7.22655
0.466124
5.20099
0.310237
3.91802
0.129787
3.11241
-0.01254
2.37992
0.96438
-0.244205
2.15494
-0.555362
3.46694
-0.917771
4.34785
-1.3184
5.46259
-1.69238
7.11739
-1.97129
9.47814
-2.1415
12.7162
-2.13082
16.8122
-1.84227
21.2068
-1.34789
25.8131
-0.703404
25.1723
-0.167236
19.3306
0.239408
14.1119
0.470256
10.0517
0.51947
7.17734
0.422281
5.29818
0.260267
4.08003
0.109498
3.26318
-0.0265299
2.51595
0.93785
-0.313143
2.46809
-0.662745
3.81654
-1.12764
4.81275
-1.5976
5.93255
-2.01775
7.53754
-2.34183
9.80223
-2.52061
12.895
-2.47338
16.765
-2.15089
20.8843
-1.60538
25.2676
-0.889438
24.4563
-0.275694
18.7168
0.180684
13.6555
0.414181
9.81816
0.440919
7.1506
0.332736
5.40636
0.163977
4.24879
-0.0188309
3.44599
-0.0905216
2.58764
0.847328
-0.468867
2.93695
-0.984682
4.33236
-1.50061
5.32867
-1.98056
6.4125
-2.43049
7.98747
-2.76967
10.1414
-2.94421
13.0695
-2.85652
16.6773
-2.50277
20.5305
-1.88888
24.6537
-1.10065
23.6681
-0.406922
18.0231
0.0844697
13.1641
0.293336
9.60929
0.269629
7.17431
0.121552
5.55444
-0.052846
4.42319
-0.173738
3.56688
-0.155613
2.56952
0.691715
-0.374575
3.31153
-0.827447
4.78523
-1.26303
5.76426
-1.73739
6.88686
-2.2215
8.47157
-2.62767
10.5476
-2.89252
13.3343
-2.90395
16.6888
-2.65835
20.285
-2.03053
24.0259
-1.10632
22.7439
-0.254681
17.1715
0.28466
12.6247
0.451796
9.44215
0.381003
7.2451
0.213787
5.72165
0.0165826
4.6204
-0.124093
3.70755
-0.113297
2.55872
0.578418
-0.20776
3.51929
-0.483235
5.0607
-0.867252
6.14827
-1.29736
7.31697
-1.70247
8.87668
-2.03038
10.8755
-2.20615
13.5101
-2.1425
16.6251
-1.86732
20.0098
-1.24002
23.3986
-0.403137
21.907
0.266587
16.5017
0.612012
12.2793
0.666935
9.38723
0.553223
7.35882
0.387892
5.88698
0.234957
4.77333
0.109686
3.83283
0.0661581
2.60225
0.644576
-0.173965
3.69325
-0.387954
5.27469
-0.664811
6.42513
-0.987241
7.6394
-1.30672
9.19616
-1.58186
11.1506
-1.70676
13.635
-1.62607
16.5444
-1.33983
19.7235
-0.763089
22.8218
-0.0552252
21.1991
0.433144
16.0134
0.606224
12.1062
0.581275
9.41218
0.461342
7.47875
0.321879
6.02645
0.212877
4.88233
0.156015
3.88969
0.097719
2.66055
0.742295
-0.122051
3.8153
-0.298656
5.4513
-0.527792
6.65427
-0.781785
7.89339
-1.03126
9.44564
-1.25021
11.3696
-1.34171
13.7265
-1.26747
16.4702
-0.998527
19.4546
-0.500917
22.3242
0.0525917
20.6456
0.395957
15.67
0.496483
12.0057
0.481537
9.42712
0.43335
7.52694
0.353494
6.1063
0.257623
4.9782
0.17373
3.97358
0.110456
2.72382
0.852752
-0.073539
3.88884
-0.278768
5.65653
-0.459066
6.83457
-0.648991
8.08332
-0.839844
9.63649
-1.01119
11.5409
-1.08591
13.8012
-1.01722
16.4015
-0.782942
19.2203
-0.370275
21.9115
0.047681
20.2277
0.28255
15.4351
0.328598
11.9597
0.280811
9.47491
0.192758
7.61499
0.133351
6.16571
0.1197
4.99185
0.121491
3.97179
0.0914845
2.75383
0.944236
-0.0477022
3.93655
-0.22682
5.83565
-0.406178
7.01392
-0.560741
8.23788
-0.714636
9.79039
-0.842891
11.6692
-0.901734
13.8601
-0.84381
16.3436
-0.650174
19.0267
-0.317002
21.5784
-0.00485098
19.9155
0.147772
15.2825
0.179076
11.9284
0.178619
9.47537
0.202114
7.59149
0.212448
6.15538
0.205215
4.99909
0.160472
4.01653
0.0959455
2.81835
1.04018
-0.023168
3.95971
-0.175633
5.98811
-0.332769
7.17106
-0.479114
8.38423
-0.616324
9.9276
-0.719331
11.7722
-0.767197
13.9079
-0.725155
16.3015
-0.571596
18.8731
-0.311009
21.3178
-0.0829785
19.6875
0.0263409
15.1732
0.0684445
11.8863
0.0782787
9.46553
0.044457
7.62532
0.013457
6.18638
0.00460655
5.00794
0.0296581
3.99148
0.0368855
2.81112
1.07707
-0.0272396
3.98695
-0.141228
6.1021
-0.260246
7.29008
-0.400396
8.52438
-0.530079
10.0573
-0.624855
11.867
-0.668423
13.9515
-0.641143
16.2742
-0.523285
18.7553
-0.323055
21.1176
-0.147852
19.5123
-0.0534218
15.0788
-0.0152793
11.8481
0.00533486
9.44492
0.040622
7.59003
0.0808364
6.14616
0.0826757
5.0061
0.0444827
4.02967
0.000497328
2.85511
1.07756
0.000306667
3.98665
-0.0845384
6.18694
-0.196198
7.40174
-0.330019
8.6582
-0.453493
10.1808
-0.547826
11.9613
-0.593019
13.9967
-0.579055
16.2603
-0.492275
18.6685
-0.341568
20.9669
-0.210051
19.3808
-0.135417
15.0041
-0.089231
11.8019
-0.05309
9.40878
-0.0537948
7.59073
-0.0726558
6.16502
-0.0572735
4.99072
-0.0212809
3.99368
-0.00528952
2.83912
1.07227
0.000823917
3.98582
-0.0669848
6.25475
-0.157139
7.49189
-0.277787
8.77885
-0.393589
10.2966
-0.482366
12.0501
-0.53086
14.0452
-0.528967
16.2584
-0.468877
18.6084
-0.358788
20.8568
-0.25929
19.2813
-0.190625
14.9355
-0.143877
11.7552
-0.11611
9.38101
-0.0750863
7.54971
-0.0296633
6.1196
-0.0182268
4.97928
-0.0176102
3.99306
-0.0195274
2.84104
1.05275
0.0219349
3.96389
-0.0406732
6.31736
-0.128402
7.57962
-0.235849
8.88629
-0.337772
10.3985
-0.42305
12.1353
-0.476086
14.0982
-0.486152
16.2684
-0.449911
18.5722
-0.374017
20.7809
-0.307897
19.2151
-0.261283
14.8888
-0.220236
11.7141
-0.170786
9.33156
-0.136883
7.51581
-0.115609
6.09833
-0.0782549
4.94193
-0.0399101
3.95472
-0.0200078
2.82113
1.03274
0.0155258
3.94836
-0.0367629
6.36965
-0.116837
7.65969
-0.202896
8.97235
-0.290487
10.4861
-0.368483
12.2133
-0.424151
14.1539
-0.446153
16.2904
-0.431144
18.5571
-0.386411
20.7361
-0.350338
19.1791
-0.311239
14.8497
-0.265289
11.6682
-0.223122
9.28939
-0.17205
7.46474
-0.119979
6.04625
-0.0902049
4.91215
-0.0714985
3.93601
-0.0387994
2.78843
0.99394
0.00912966
3.93923
-0.0441411
6.42292
-0.101677
7.71723
-0.174195
9.04487
-0.249122
10.561
-0.320698
12.2849
-0.377664
14.2109
-0.40944
16.3222
-0.413309
18.561
-0.396761
20.7196
-0.387356
19.1697
-0.370581
14.833
-0.338741
11.6363
-0.282923
9.23358
-0.221792
7.4036
-0.171104
5.99557
-0.124297
4.86534
-0.0727812
3.8845
-0.0421728
2.75783
0.951767
0.0183099
3.92092
-0.0316965
6.47293
-0.0965772
7.78211
-0.154285
9.10258
-0.216113
10.6228
-0.280088
12.3489
-0.335934
14.2667
-0.375118
16.3614
-0.394695
18.5806
-0.401746
20.7266
-0.412744
19.1807
-0.407854
14.8281
-0.375435
11.6039
-0.33442
9.19256
-0.284355
7.35354
-0.221836
5.93305
-0.163841
4.80735
-0.122406
3.84306
-0.0631666
2.69859
0.8886
-0.00263124
3.92355
-0.0453118
6.51561
-0.0801268
7.81693
-0.134145
9.1566
-0.190128
10.6788
-0.247564
12.4063
-0.300946
14.3201
-0.344538
16.405
-0.376345
18.6124
-0.402639
20.7529
-0.429437
19.2075
-0.445774
14.8444
-0.433663
11.5918
-0.390583
9.14948
-0.322136
7.28509
-0.257079
5.86799
-0.198345
4.74862
-0.128433
3.77315
-0.0698258
2.63998
0.818775
0.0147311
3.90882
-0.0273279
6.55767
-0.0725584
7.86216
-0.121873
9.20591
-0.170005
10.7269
-0.221251
12.4576
-0.270591
14.3694
-0.316598
16.451
-0.357201
18.653
-0.398145
20.7939
-0.438791
19.2481
-0.466806
14.8724
-0.468874
11.5939
-0.445213
9.12582
-0.406049
7.24593
-0.345519
5.80746
-0.265119
4.66822
-0.189074
3.69711
-0.0947661
2.54567
0.724008
0.00349705
3.90533
-0.0276536
6.58882
-0.056182
7.89068
-0.107238
9.25697
-0.152001
10.7717
-0.199634
12.5052
-0.245433
14.4152
-0.29213
16.4977
-0.338492
18.6994
-0.390908
20.8463
-0.444397
19.3016
-0.484704
14.9127
-0.51194
11.6211
-0.497759
9.11164
-0.443731
7.1919
-0.377313
5.74104
-0.309169
4.60007
-0.206488
3.59443
-0.109574
2.44876
0.614434
0.00669397
3.89863
-0.0235372
6.61905
-0.0528089
7.91996
-0.0961275
9.30029
-0.136831
10.8124
-0.180531
12.5489
-0.223023
14.4577
-0.269743
16.5444
-0.319872
18.7495
-0.380672
20.9071
-0.445378
19.3663
-0.497599
14.965
-0.529898
11.6534
-0.547373
9.12911
-0.536338
7.18086
-0.490399
5.6951
-0.405648
4.51532
-0.293543
3.48232
-0.145998
2.30121
0.468436
0.00786749
3.89076
-0.0147944
6.64171
-0.0411508
7.94631
-0.0820983
9.34123
-0.122824
10.8531
-0.163197
12.5893
-0.203792
14.4983
-0.249978
16.5906
-0.302382
18.8019
-0.36924
20.9739
-0.44314
19.4402
-0.507431
15.0292
-0.554021
11.7
-0.577253
9.15235
-0.572561
7.17617
-0.525558
5.6481
-0.456531
4.44629
-0.324734
3.35052
-0.153763
2.13024
0.314673
0.00316232
3.8876
-0.0150544
6.65993
-0.0388667
7.97013
-0.0750941
9.37746
-0.111337
10.8894
-0.148228
12.6262
-0.187319
14.5374
-0.233405
16.6367
-0.287678
18.8562
-0.358824
21.0451
-0.440186
19.5216
-0.516217
15.1053
-0.576155
11.7599
-0.614044
9.19023
-0.640265
7.20239
-0.637877
5.64571
-0.578552
4.38697
-0.443882
3.21585
-0.115493
1.80185
0.199181
0.00379782
3.8838
-0.0079137
6.67164
-0.0352363
7.99745
-0.0696731
9.4119
-0.103346
10.923
-0.141152
12.664
-0.182382
14.5786
-0.232378
16.6867
-0.293076
18.9169
-0.375118
21.1271
-0.472792
19.6192
-0.569625
15.2021
-0.65546
11.8458
-0.720244
9.25502
-0.750225
7.23237
-0.745465
5.64095
-0.688894
4.3304
-0.507671
3.03463
-0.290772
1.58495
0.680306
-0.771897
-0.00428903
3.88809
-0.0147764
6.68213
-0.0351711
8.01784
-0.0604196
9.43715
-0.0937882
10.9564
-0.130821
12.701
-0.172298
14.6201
-0.223948
16.7383
-0.287818
18.9807
-0.376529
21.2158
-0.485991
19.7287
-0.6007
15.3168
-0.710692
11.9558
-0.805573
9.3499
-0.885275
7.31208
-0.968304
5.72398
-1.03739
4.39949
-0.917182
2.91442
-0.910457
1.57823
1.18731
-1.41746
0.00376174
3.88433
-0.00826802
6.69416
-0.0318302
8.0414
-0.0547058
9.46002
-0.0886226
10.9903
-0.121092
12.7335
-0.163182
14.6622
-0.215969
16.7911
-0.282441
19.0472
-0.377501
21.3109
-0.498478
19.8497
-0.630683
15.449
-0.766783
12.0919
-0.903087
9.4862
-1.03511
7.4441
-1.12684
5.81571
-1.11665
4.3893
-0.997383
2.79515
-1.29321
1.87406
1.59586
-1.70176
0.000693252
3.88364
-0.00762484
6.70247
-0.0301393
8.06392
-0.0534448
9.48333
-0.083993
11.0209
-0.111365
12.7608
-0.153598
14.7044
-0.206622
16.8442
-0.275278
19.1159
-0.376226
21.4119
-0.507505
19.981
-0.65622
15.5977
-0.819572
12.2552
-0.994382
9.66101
-1.18263
7.63234
-1.34375
5.97684
-1.3188
4.36435
-1.37547
2.85182
-1.68755
2.18614
1.85985
-1.95153
-0.0057391
3.88938
-0.0088918
6.70563
-0.0267514
8.08178
-0.0456563
9.50223
-0.0704135
11.0456
-0.102849
12.7933
-0.144439
14.746
-0.197467
16.8972
-0.267768
19.1862
-0.373954
21.518
-0.514343
20.1213
-0.678156
15.7616
-0.867667
12.4447
-1.07633
9.86967
-1.27226
7.82827
-1.37639
6.08097
-1.35237
4.34033
-1.55963
3.05907
-1.87436
2.50087
2.07635
-2.09087
-0.00155567
3.89093
-0.0122518
6.71632
-0.0244286
8.09396
-0.0410635
9.51887
-0.0637931
11.0684
-0.0994853
12.829
-0.139782
14.7863
-0.193315
16.9507
-0.26545
19.2583
-0.376707
21.6293
-0.5248
20.2694
-0.700249
15.937
-0.908032
12.6525
-1.12829
10.0899
-1.32403
8.02401
-1.48951
6.24645
-1.63407
4.48489
-1.90713
3.33213
-2.1879
2.78165
2.22205
-2.3336
0.0131895
3.87774
-0.00328065
6.73279
-0.0267351
8.11741
-0.0471404
9.53927
-0.069994
11.0912
-0.0998552
12.8588
-0.14043
14.8269
-0.194289
17.0046
-0.268558
19.3326
-0.384862
21.7456
-0.539693
20.4243
-0.722912
16.1202
-0.938293
12.8679
-1.18012
10.3318
-1.40354
8.24743
-1.51377
6.35668
-1.64753
4.61864
-1.94463
3.62924
-2.18985
3.02687
2.41722
-2.38502
0.00776616
3.86998
-0.00466307
6.74522
-0.0248014
8.13755
-0.0461364
9.56061
-0.0703397
11.1154
-0.099364
12.8879
-0.140808
14.8684
-0.194605
17.0584
-0.270702
19.4087
-0.391358
21.8663
-0.552147
20.5851
-0.738365
16.3064
-0.950304
13.0798
-1.19276
10.5742
-1.42474
8.47942
-1.5695
6.50143
-1.84372
4.89287
-2.32274
4.10825
-2.7009
3.40503
2.71424
-2.99791
0.000838422
3.86914
-0.0071125
6.75317
-0.0184856
8.14892
-0.0408808
9.583
-0.0657214
11.1403
-0.0997947
12.9219
-0.14101
14.9096
-0.195528
17.1129
-0.272755
19.4859
-0.39667
21.9902
-0.565126
20.7535
-0.754199
16.4955
-0.951837
13.2775
-1.18054
10.8029
-1.44158
8.74046
-1.68416
6.74401
-1.95967
5.16838
-2.38853
4.53711
-2.87783
3.89433
2.91957
-3.08317
0.0139241
3.85521
-0.000337492
6.76743
-0.0205774
8.16916
-0.0455953
9.60802
-0.0695429
11.1642
-0.10124
12.9536
-0.140774
14.9491
-0.195547
17.1677
-0.272754
19.5631
-0.397917
22.1153
-0.568132
20.9237
-0.75511
16.6825
-0.95593
13.4783
-1.16216
11.0091
-1.37369
8.95199
-1.621
6.99132
-2.13503
5.6824
-2.52521
4.92729
-3.02242
4.39155
3.66963
-3.77248
0.0173739
3.83784
0.00342588
6.78138
-0.0177181
8.19031
-0.0443257
9.63463
-0.0711018
11.191
-0.100831
12.9834
-0.140158
14.9884
-0.193287
17.2208
-0.26785
19.6377
-0.387608
22.2351
-0.543362
21.0795
-0.71396
16.8531
-0.89987
13.6642
-1.09015
11.1994
-1.2454
9.10724
-1.48561
7.23153
-1.85385
6.05064
-2.03175
5.1052
-1.48073
3.84052
2.18891
0.00985485
3.82799
-0.00186258
6.7931
-0.0160301
8.20447
-0.0374496
9.65605
-0.0663599
11.2199
-0.0991721
13.0162
-0.141042
15.0303
-0.196523
17.2763
-0.27436
19.7155
-0.397576
22.3583
-0.552329
21.2342
-0.720376
17.0211
-0.898925
13.8428
-1.06017
11.3607
-1.1486
9.19567
-1.23323
7.31616
-1.2033
6.02072
-1.06305
4.96495
-0.732764
3.51023
1.45614
0.0165361
3.81145
0.00916019
6.80048
-0.00696855
8.2206
-0.0341077
9.68319
-0.0633452
11.2491
-0.0958857
13.0487
-0.138885
15.0733
-0.196144
17.3335
-0.275214
19.7946
-0.399048
22.4821
-0.552478
21.3877
-0.71079
17.1794
-0.866682
13.9986
-0.978826
11.4728
-1.01919
9.23603
-1.03243
7.32939
-1.06063
6.04893
-1.02807
4.93238
-0.826096
3.30826
0.630048
0.0204586
3.79099
0.0105359
6.8104
-0.00659691
8.23773
-0.0315723
9.70816
-0.0594971
11.2771
-0.090058
13.0793
-0.133567
15.1168
-0.191162
17.3911
-0.269798
19.8732
-0.391049
22.6034
-0.538063
21.5347
-0.678312
17.3197
-0.796953
14.1173
-0.849193
11.5251
-0.903354
9.2902
-0.928264
7.3543
-0.974448
6.09511
-0.893553
4.85149
-0.402935
2.81764
0.227113
0.0226019
3.76839
0.0188376
6.81416
0.00349528
8.25308
-0.022311
9.73397
-0.0501944
11.3049
-0.0801369
13.1092
-0.124595
15.1613
-0.181043
17.4476
-0.257504
19.9497
-0.372628
22.7185
-0.506798
21.6688
-0.620167
17.4331
-0.695726
14.1928
-0.760016
11.5893
-0.794417
9.3246
-0.833297
7.39318
-0.820365
6.08218
-0.611762
4.64288
-0.177249
2.38313
0.0498642
0.0236887
3.7447
0.0204777
6.81737
0.00784868
8.26571
-0.0156387
9.75746
-0.0380785
11.3274
-0.0670874
13.1382
-0.111185
15.2054
-0.163684
17.5001
-0.236154
20.0221
-0.341642
22.824
-0.455228
21.7824
-0.540195
17.518
-0.595017
14.2477
-0.647257
11.6416
-0.651855
9.3292
-0.670033
7.41136
-0.595791
6.00794
-0.430644
4.47774
-0.158444
2.11093
-0.108579
0.0342095
3.71049
0.0374112
6.81417
0.0216168
8.2815
-0.00401196
9.78308
-0.0197405
11.3431
-0.05078
13.1693
-0.0931877
15.2478
-0.139138
17.546
-0.205438
20.0884
-0.298106
22.9167
-0.387623
21.872
-0.449188
17.5796
-0.492164
14.2906
-0.50877
11.6582
-0.492697
9.31312
-0.476222
7.39488
-0.402716
5.93443
-0.271681
4.3467
-0.0611398
1.90039
-0.169719
0.0360824
3.67441
0.0389419
6.81131
0.0301728
8.29027
0.0133012
9.79996
0.00473953
11.3517
-0.0301079
13.2041
-0.0645296
15.2822
-0.104749
17.5862
-0.163242
20.1469
-0.240945
22.9944
-0.3095
21.9405
-0.351904
17.622
-0.368719
14.3075
-0.339785
11.6293
-0.296158
9.2695
-0.223951
7.32267
-0.143668
5.85415
-0.0383391
4.24137
0.0373464
1.8247
-0.132373
0.0519812
3.62243
0.0653031
6.79799
0.0578517
8.29772
0.0438134
9.81399
0.0266767
11.3688
-0.00504894
13.2358
-0.0234278
15.3006
-0.0607383
17.6236
-0.109975
20.1962
-0.170813
23.0552
-0.218821
21.9885
-0.24041
17.6436
-0.225701
14.2928
-0.161344
11.5649
-0.0737978
9.18195
0.0386806
7.2102
0.141324
5.75151
0.205821
4.17688
0.125044
1.90548
-0.00732908
0.0570968
3.56533
0.0713295
6.78376
0.0752081
8.29384
0.0704978
9.8187
0.0606043
11.3787
0.0464987
13.2499
0.0290702
15.318
-0.00641623
17.659
-0.0439733
20.2337
-0.0874231
23.0987
-0.114113
22.0152
-0.109586
17.6391
-0.0668058
14.25
0.00688306
11.4912
0.110366
9.07847
0.218284
7.10228
0.323249
5.64654
0.372862
4.12726
0.192922
2.08542
0.185592
0.0779977
3.48733
0.113738
6.74802
0.121786
8.28579
0.116801
9.82369
0.111807
11.3837
0.107419
13.2543
0.094899
15.3305
0.0740738
17.6799
0.0421169
20.2657
0.00510435
23.1357
-0.0032865
22.0236
0.027685
17.6081
0.0951504
14.1825
0.185379
11.401
0.264979
8.99887
0.344012
7.02324
0.426501
5.56405
0.456872
4.09689
0.266873
2.27542
0.452465
0.0882519
3.39908
0.127514
6.70876
0.150746
8.26256
0.164405
9.81003
0.176378
11.3717
0.182417
13.2483
0.178727
15.3342
0.173293
17.6853
0.157011
20.282
0.136285
23.1564
0.135776
22.0241
0.169531
17.5743
0.23043
14.1216
0.290632
11.3408
0.333256
8.95624
0.381008
6.97549
0.43793
5.50713
0.442849
4.09197
0.279339
2.43893
0.731804
0.126049
3.27303
0.199018
6.63579
0.230492
8.23109
0.246422
9.7941
0.263615
11.3545
0.277819
13.2341
0.285691
15.3263
0.293218
17.6778
0.287546
20.2876
0.275754
23.1682
0.278826
22.021
0.299978
17.5532
0.321409
14.1002
0.340034
11.3222
0.355496
8.94078
0.386296
6.94469
0.415744
5.47768
0.398562
4.10916
0.244787
2.5927
0.976591
0.147489
3.12554
0.229365
6.55391
0.28239
8.17806
0.327776
9.74872
0.366277
11.316
0.396297
13.2041
0.422112
15.3005
0.440111
17.6598
0.444531
20.2832
0.436552
23.1762
0.426024
22.0316
0.412325
17.5669
0.39963
14.1129
0.3968
11.325
0.392441
8.94514
0.387189
6.94994
0.381608
5.48326
0.333584
4.15718
0.189685
2.7366
1.16628
0.211226
2.91432
0.349592
6.41554
0.420499
8.10715
0.468919
9.7003
0.508495
11.2765
0.549028
13.1635
0.589838
15.2597
0.618393
17.6312
0.629952
20.2717
0.619053
23.1871
0.587197
22.0634
0.554299
17.5998
0.532797
14.1344
0.510544
11.3472
0.465011
8.99067
0.407611
7.00735
0.36384
5.52703
0.289639
4.23138
0.147735
2.8785
1.31401
0.260077
2.65424
0.421163
6.25446
0.521281
8.00704
0.607375
9.6142
0.675874
11.208
0.739078
13.1003
0.799317
15.1995
0.842046
17.5885
0.862328
20.2514
0.848507
23.2009
0.806275
22.1056
0.761743
17.6443
0.712764
14.1834
0.641533
11.4185
0.539804
9.0924
0.435878
7.11127
0.365995
5.59692
0.279172
4.3182
0.139433
3.01824
1.45344
0.371799
2.28244
0.62943
5.99683
0.76469
7.87178
0.852638
9.52625
0.913996
11.1466
0.987629
13.0267
1.0617
15.1254
1.12102
17.5292
1.1534
20.219
1.14606
23.2082
1.09885
22.1529
1.02528
17.7179
0.932917
14.2757
0.827601
11.5238
0.697746
9.22226
0.563467
7.24555
0.45916
5.70122
0.337563
4.4398
0.163915
3.19189
1.61736
0.507539
1.7749
0.816957
5.68741
0.970636
7.7181
1.09646
9.40043
1.19718
11.0459
1.304
12.9199
1.40546
15.0239
1.48553
17.4491
1.53364
20.1709
1.53063
23.2112
1.46049
22.223
1.35091
17.8275
1.22551
14.4011
1.09472
11.6546
0.932209
9.38477
0.736326
7.44143
0.561026
5.87652
0.379574
4.62125
0.172537
3.39893
1.7899
0.73175
1.04315
1.16172
5.25744
1.35384
7.52598
1.48633
9.26794
1.58924
10.943
1.71139
12.7977
1.83578
14.8995
1.94179
17.3431
2.01263
20.1001
2.01586
23.208
1.9297
22.3092
1.79711
17.96
1.64094
14.5573
1.46948
11.826
1.27403
9.58022
1.01814
7.69732
0.763855
6.13081
0.501418
4.88369
0.221356
3.67899
2.01125
0.748385
0.294767
1.45539
4.55043
1.75293
7.22844
1.94553
9.07534
2.10109
10.7874
2.25367
12.6452
2.41034
14.7429
2.55033
17.2031
2.65078
19.9996
2.67799
23.1808
2.59159
22.3956
2.43503
18.1166
2.23609
14.7562
1.999
12.0631
1.75009
9.82912
1.41438
8.03304
1.04753
6.49766
0.678191
5.25303
0.304321
4.05286
2.31557
0.506375
-0.211608
1.20181
3.85499
1.62589
6.80437
1.8651
8.83612
2.02655
10.626
2.14654
12.5252
2.24813
14.6413
2.31297
17.1383
2.31445
19.9981
2.22094
23.2743
2.03861
22.5779
1.83465
18.3206
1.62203
14.9689
1.38926
12.2959
1.16973
10.0487
0.949493
8.25327
0.708701
6.73845
0.471
5.49073
0.220096
4.30377
2.53567
-0.0204978
-0.19111
0.332282
3.50221
0.695179
6.44147
0.975227
8.55608
1.22163
10.3796
1.4112
12.3356
1.57875
14.4737
1.71313
17.0039
1.77766
19.9336
1.7371
23.3149
1.59697
22.718
1.4212
18.4963
1.24206
15.148
1.04994
12.488
0.863963
10.2346
0.671955
8.44528
0.486105
6.9243
0.304232
5.6726
0.12628
4.48172
2.66195
-0.357251
0.166142
-0.405426
3.55039
-0.146741
6.18278
0.198996
8.21034
0.52271
10.0558
0.801266
12.057
1.03215
14.2428
1.20633
16.8297
1.30577
19.8342
1.31596
23.3047
1.22663
22.8074
1.08947
18.6335
0.942336
15.2951
0.786358
12.644
0.63365
10.3873
0.487251
8.59168
0.338681
7.07287
0.195994
5.81529
0.067635
4.61008
2.72958
-0.347015
0.513156
-0.449026
3.6524
-0.356214
6.08997
-0.146582
8.00071
0.100679
9.80859
0.358745
11.799
0.599925
14.0017
0.794545
16.6351
0.923781
19.7049
0.970557
23.2579
0.927148
22.8508
0.82599
18.7346
0.70943
15.4117
0.587994
12.7654
0.465337
10.51
0.354386
8.70263
0.243258
7.184
0.138336
5.92021
0.0377452
4.71067
2.76733
-0.330306
0.843462
-0.393357
3.71545
-0.33908
6.0357
-0.235077
7.8967
-0.0735354
9.64705
0.120772
11.6047
0.32046
13.802
0.498638
16.4569
0.637735
19.5658
0.706478
23.1891
0.691979
22.8653
0.619508
18.8071
0.531147
15.5001
0.442899
12.8537
0.346053
10.6068
0.260319
8.78836
0.170308
7.27401
0.0819708
6.00855
-0.00247
4.79511
2.76486
-0.267868
1.11133
-0.376485
3.82407
-0.323951
5.98316
-0.219994
7.79275
-0.0980125
9.52507
0.0356054
11.471
0.177602
13.66
0.3144
16.3201
0.438003
19.4422
0.507714
23.1194
0.510639
22.8623
0.462503
18.8553
0.398462
15.5641
0.336975
12.9151
0.256716
10.6871
0.182939
8.86214
0.102893
7.35405
0.024618
6.08683
-0.0316622
4.85139
2.7332
-0.214902
1.32623
-0.328889
3.93806
-0.296343
5.95062
-0.201684
7.69809
-0.0881076
9.41149
0.0141219
11.3688
0.11292
13.5612
0.216017
16.217
0.306546
19.3517
0.366361
23.0596
0.376708
22.852
0.346327
18.8856
0.298524
15.6119
0.248975
12.9647
0.17794
10.7581
0.114884
8.9252
0.0456658
7.42327
-0.0169871
6.14948
-0.0562529
4.89065
2.67694
-0.163715
1.48995
-0.258082
4.03242
-0.253889
5.94642
-0.187397
7.6316
-0.0923645
9.31646
-0.00758149
11.284
0.0744207
13.4792
0.154636
16.1368
0.223113
19.2832
0.270339
23.0124
0.279538
22.8428
0.257101
18.9081
0.21739
15.6516
0.174874
13.0072
0.10996
10.8231
0.0544646
8.98069
0.00201517
7.47572
-0.046027
6.19752
-0.0643497
4.90898
2.61259
-0.114822
1.60477
-0.192014
4.10962
-0.20234
5.95675
-0.172318
7.60157
-0.116378
9.26052