/*--------------------------------*- C++ -*----------------------------------*\
| =========                 |                                                 |
| \\      /  F ield         | OpenFOAM: The Open Source CFD Toolbox           |
|  \\    /   O peration     | Version:  2412                                  |
|   \\  /    A nd           | Website:  www.openfoam.com                      |
|    \\/     M anipulation  |                                                 |
\*---------------------------------------------------------------------------*/
FoamFile
{
    version     2.0;
    format      ascii;
    arch        "LSB;label=32;scalar=64";
    class       volVectorField;
    location    "4.75";
    object      U;
}
// * * * * * * * * * * * * * * * * * * * * * * * * * * * * * * * * * * * * * //

dimensions      [0 1 -1 0 0 0 0];

internalField   nonuniform List<vector> 
2200
(
(0.373558 -0.000451929 0)
(1.19287 -0.000904892 0)
(2.12217 0.000594001 0)
(3.16852 0.000820393 0)
(4.32522 0.00169278 0)
(5.57268 0.00188052 0)
(6.86433 0.00281239 0)
(8.12087 0.00329757 0)
(9.20639 0.00333599 0)
(9.90099 0.00316834 0)
(9.90085 0.00284515 0)
(9.20671 0.00259856 0)
(8.12123 0.00187746 0)
(6.86423 0.00170931 0)
(5.57218 0.00133611 0)
(4.32532 0.00125621 0)
(3.16814 0.000962083 0)
(2.1221 0.000948387 0)
(1.19207 0.00199342 0)
(0.371845 0.000909446 0)
(0.375432 0.00276537 0)
(1.18887 0.000237534 0)
(2.12281 0.00225708 0)
(3.16936 0.0033979 0)
(4.32613 0.00553815 0)
(5.57183 0.00769991 0)
(6.86492 0.00899811 0)
(8.12169 0.0100236 0)
(9.20713 0.0113494 0)
(9.8997 0.0105662 0)
(9.89998 0.00839918 0)
(9.20536 0.00616968 0)
(8.11928 0.00555398 0)
(6.8623 0.00386006 0)
(5.56988 0.00318431 0)
(4.32333 0.00238555 0)
(3.16618 0.00183458 0)
(2.11753 0.00110432 0)
(1.18362 0.00215337 0)
(0.370388 -0.00244294 0)
(0.384492 0.00568769 0)
(1.18956 0.00374802 0)
(2.12565 0.00619849 0)
(3.17294 0.00761812 0)
(4.32895 0.0102456 0)
(5.57322 0.0142738 0)
(6.86423 0.014761 0)
(8.11953 0.0160428 0)
(9.20473 0.0164346 0)
(9.89665 0.0157224 0)
(9.89572 0.0138817 0)
(9.20115 0.0113991 0)
(8.11538 0.00802395 0)
(6.85834 0.00584927 0)
(5.56676 0.0030016 0)
(4.32027 0.00171348 0)
(3.16339 0.000972202 0)
(2.11454 -0.000487412 0)
(1.17691 -0.000863377 0)
(0.374735 -0.00532738 0)
(0.409812 0.00748799 0)
(1.19575 0.00958701 0)
(2.13377 0.0137168 0)
(3.17994 0.0159057 0)
(4.33258 0.0210093 0)
(5.57857 0.0212874 0)
(6.86669 0.0235511 0)
(8.12054 0.0248079 0)
(9.20507 0.0249896 0)
(9.89299 0.0231074 0)
(9.89272 0.0185731 0)
(9.19714 0.013678 0)
(8.11082 0.00904648 0)
(6.85486 0.00447681 0)
(5.56395 0.00101261 0)
(4.31732 -0.00277563 0)
(3.16282 -0.00242333 0)
(2.11453 -0.00354725 0)
(1.17382 -0.00515848 0)
(0.392776 -0.00553687 0)
(0.450518 0.00591122 0)
(1.21083 0.0181822 0)
(2.1553 0.0194686 0)
(3.19589 0.0294715 0)
(4.34465 0.0318068 0)
(5.58337 0.0310721 0)
(6.86843 0.0330571 0)
(8.1202 0.03213 0)
(9.20333 0.0319762 0)
(9.88857 0.028619 0)
(9.8871 0.0224528 0)
(9.19062 0.0156943 0)
(8.10435 0.00917607 0)
(6.84799 0.00264628 0)
(5.55765 -0.0022753 0)
(4.31548 -0.00681066 0)
(3.1611 -0.0108168 0)
(2.11926 -0.00765123 0)
(1.17635 -0.0129007 0)
(0.418762 -0.00417997 0)
(0.497139 0.00222164 0)
(1.24195 0.0256076 0)
(2.17539 0.0231565 0)
(3.2083 0.0376589 0)
(4.36242 0.038436 0)
(5.59684 0.0450291 0)
(6.87747 0.0431348 0)
(8.12371 0.0422858 0)
(9.2042 0.0401655 0)
(9.88362 0.0351282 0)
(9.88116 0.0279013 0)
(9.18426 0.0190113 0)
(8.09826 0.00819209 0)
(6.84524 -0.000892741 0)
(5.55725 -0.00917688 0)
(4.31641 -0.0116904 0)
(3.15886 -0.0164924 0)
(2.1192 -0.0125534 0)
(1.19075 -0.0200845 0)
(0.45616 -0.000844763 0)
(0.546014 0.000757603 0)
(1.30324 0.0310268 0)
(2.18378 0.030582 0)
(3.22126 0.0405273 0)
(4.37711 0.0470571 0)
(5.61035 0.0559344 0)
(6.88892 0.0560649 0)
(8.12993 0.0545205 0)
(9.207 0.0506054 0)
(9.87897 0.0426813 0)
(9.87513 0.0303604 0)
(9.17773 0.017894 0)
(8.09466 0.0044987 0)
(6.84084 -0.00634321 0)
(5.55243 -0.0138487 0)
(4.31154 -0.0162119 0)
(3.15453 -0.0180467 0)
(2.11174 -0.0186483 0)
(1.23225 -0.0241925 0)
(0.489599 0.00129261 0)
(0.599042 0.0034676 0)
(1.37173 0.0322985 0)
(2.18279 0.0411256 0)
(3.2387 0.0389719 0)
(4.38417 0.0536596 0)
(5.6191 0.0607941 0)
(6.89639 0.0646014 0)
(8.13585 0.0658114 0)
(9.21097 0.0614305 0)
(9.87496 0.0512817 0)
(9.86965 0.0358093 0)
(9.17036 0.0187338 0)
(8.08621 0.00358455 0)
(6.83187 -0.00563077 0)
(5.54398 -0.0124452 0)
(4.30021 -0.0160257 0)
(3.15022 -0.0161766 0)
(2.08783 -0.0249179 0)
(1.283 -0.0247156 0)
(0.525776 -0.00113995 0)
(0.660488 0.00660117 0)
(1.44666 0.0306686 0)
(2.1859 0.0497529 0)
(3.26283 0.0375248 0)
(4.39249 0.0545087 0)
(5.62745 0.060523 0)
(6.90006 0.0696287 0)
(8.13757 0.0739285 0)
(9.21193 0.0722951 0)
(9.86601 0.0598142 0)
(9.85967 0.0400741 0)
(9.15978 0.0191804 0)
(8.07522 0.00346524 0)
(6.81946 -0.00256819 0)
(5.53294 -0.00950686 0)
(4.28805 -0.0163981 0)
(3.14324 -0.0124406 0)
(2.06342 -0.0310306 0)
(1.33671 -0.0218962 0)
(0.568405 -0.00427614 0)
(0.724375 0.00930505 0)
(1.52218 0.0289797 0)
(2.19723 0.0588285 0)
(3.28112 0.0411009 0)
(4.40628 0.061396 0)
(5.63669 0.0660657 0)
(6.90303 0.0777112 0)
(8.13801 0.0846683 0)
(9.21007 0.0842436 0)
(9.85572 0.0700762 0)
(9.84691 0.0453117 0)
(9.14513 0.0218374 0)
(8.05524 0.0062689 0)
(6.80087 -0.00362522 0)
(5.51943 -0.00881159 0)
(4.27921 -0.0221813 0)
(3.13683 -0.0134844 0)
(2.05081 -0.0395753 0)
(1.3918 -0.0187295 0)
(0.612172 -0.00661684 0)
(0.799903 0.0113437 0)
(1.61432 0.0319356 0)
(2.22319 0.0692442 0)
(3.30702 0.0614979 0)
(4.43724 0.0772995 0)
(5.64931 0.0827897 0)
(6.90474 0.0906302 0)
(8.1279 0.0938788 0)
(9.19643 0.0949931 0)
(9.83325 0.0804248 0)
(9.8222 0.0524961 0)
(9.11527 0.0256935 0)
(8.02874 0.00723802 0)
(6.77984 -0.00832925 0)
(5.50195 -0.018257 0)
(4.27673 -0.0322591 0)
(3.12681 -0.0231851 0)
(2.05079 -0.0512734 0)
(1.44963 -0.0204047 0)
(0.658884 -0.0088097 0)
(0.878308 0.0156282 0)
(1.70775 0.0380013 0)
(2.28173 0.0918391 0)
(3.32421 0.0901159 0)
(4.48582 0.113282 0)
(5.66791 0.116876 0)
(6.91158 0.117503 0)
(8.11806 0.114356 0)
(9.17651 0.110363 0)
(9.79795 0.0917513 0)
(9.78381 0.060592 0)
(9.07705 0.0291997 0)
(7.99239 0.0039295 0)
(6.7551 -0.0218007 0)
(5.48714 -0.0433207 0)
(4.28839 -0.0552747 0)
(3.11105 -0.0542363 0)
(2.07325 -0.0690866 0)
(1.52667 -0.0277668 0)
(0.721358 -0.011947 0)
(1.00236 0.018235 0)
(1.8511 0.0487925 0)
(2.37398 0.112314 0)
(3.35325 0.123353 0)
(4.52262 0.144069 0)
(5.68301 0.158294 0)
(6.91519 0.149877 0)
(8.10521 0.143883 0)
(9.15538 0.131534 0)
(9.75671 0.106512 0)
(9.74098 0.0681729 0)
(9.03202 0.0275724 0)
(7.95509 -0.0120568 0)
(6.72666 -0.041091 0)
(5.46593 -0.0706131 0)
(4.28242 -0.0778557 0)
(3.0916 -0.0823796 0)
(2.12977 -0.086647 0)
(1.61948 -0.0335668 0)
(0.79982 -0.0136865 0)
(1.11459 0.0213993 0)
(1.98 0.0509509 0)
(2.4802 0.126398 0)
(3.3923 0.148318 0)
(4.55635 0.167937 0)
(5.7074 0.188644 0)
(6.9241 0.18763 0)
(8.10012 0.182739 0)
(9.13263 0.162279 0)
(9.70735 0.12749 0)
(9.68647 0.0763139 0)
(8.98494 0.0227113 0)
(7.91649 -0.027672 0)
(6.69312 -0.0591251 0)
(5.44245 -0.0887047 0)
(4.26306 -0.0935099 0)
(3.08781 -0.105512 0)
(2.20752 -0.0983007 0)
(1.73603 -0.0376463 0)
(0.898015 -0.0148817 0)
(1.29329 0.0217717 0)
(2.17669 0.0621508 0)
(2.6272 0.14122 0)
(3.46135 0.176748 0)
(4.59082 0.190638 0)
(5.73839 0.214686 0)
(6.93872 0.229168 0)
(8.10444 0.223215 0)
(9.12188 0.198978 0)
(9.66766 0.154007 0)
(9.64298 0.0819818 0)
(8.94631 0.0133906 0)
(7.88088 -0.043503 0)
(6.66187 -0.0801529 0)
(5.4295 -0.0992166 0)
(4.24437 -0.11327 0)
(3.10083 -0.122223 0)
(2.29974 -0.102455 0)
(1.86223 -0.0392826 0)
(1.00031 -0.0155552 0)
(1.42446 0.0231979 0)
(2.34091 0.0597967 0)
(2.77372 0.149935 0)
(3.54526 0.200572 0)
(4.64332 0.233618 0)
(5.78862 0.245976 0)
(6.95521 0.265463 0)
(8.11097 0.265355 0)
(9.11566 0.242865 0)
(9.63613 0.185751 0)
(9.6067 0.0898575 0)
(8.905 0.00511325 0)
(7.83645 -0.052445 0)
(6.62037 -0.0957037 0)
(5.41163 -0.110902 0)
(4.22376 -0.138211 0)
(3.13278 -0.141172 0)
(2.40959 -0.115268 0)
(2.00948 -0.0438192 0)
(1.11818 -0.0154566 0)
(1.64125 0.0269028 0)
(2.5809 0.0779442 0)
(2.96542 0.172257 0)
(3.65586 0.227879 0)
(4.69289 0.270604 0)
(5.83492 0.278488 0)
(6.95904 0.30325 0)
(8.10113 0.295237 0)
(9.09401 0.275395 0)
(9.59113 0.215553 0)
(9.55509 0.108825 0)
(8.84494 0.0179878 0)
(7.76467 -0.0422813 0)
(6.56509 -0.103005 0)
(5.39179 -0.128629 0)
(4.20164 -0.169082 0)
(3.17379 -0.152619 0)
(2.53162 -0.11855 0)
(2.16068 -0.043781 0)
(1.22708 -0.0140099 0)
(1.81119 0.0245326 0)
(2.7942 0.0718539 0)
(3.16578 0.179529 0)
(3.78931 0.249937 0)
(4.76624 0.314008 0)
(5.88622 0.330529 0)
(6.96869 0.346508 0)
(8.07597 0.329051 0)
(9.03462 0.30598 0)
(9.49092 0.248145 0)
(9.44561 0.136877 0)
(8.73569 0.0434321 0)
(7.66358 -0.0334645 0)
(6.49492 -0.110616 0)
(5.34985 -0.147656 0)
(4.18145 -0.187206 0)
(3.23713 -0.1678 0)
(2.67531 -0.128413 0)
(2.33554 -0.0483948 0)
(1.35334 -0.0123658 0)
(2.04638 0.0325889 0)
(3.07194 0.0912732 0)
(3.3999 0.202194 0)
(3.9528 0.276691 0)
(4.85062 0.354817 0)
(5.93923 0.375418 0)
(6.9875 0.401307 0)
(8.05503 0.392402 0)
(8.96246 0.360808 0)
(9.36307 0.295212 0)
(9.30838 0.161979 0)
(8.61842 0.0541908 0)
(7.56491 -0.0438606 0)
(6.42167 -0.122317 0)
(5.29691 -0.171081 0)
(4.17138 -0.211146 0)
(3.31612 -0.173711 0)
(2.83277 -0.12844 0)
(2.51158 -0.0451472 0)
(1.46364 -0.0088178 0)
(2.28687 0.0280677 0)
(3.34117 0.0891578 0)
(3.66101 0.213618 0)
(4.14663 0.305657 0)
(4.96973 0.396771 0)
(6.00388 0.436015 0)
(7.02804 0.468972 0)
(8.07146 0.473876 0)
(8.91628 0.440881 0)
(9.2649 0.357869 0)
(9.19624 0.184339 0)
(8.51232 0.0511062 0)
(7.47124 -0.0582136 0)
(6.34494 -0.135546 0)
(5.23398 -0.193406 0)
(4.179 -0.229378 0)
(3.41982 -0.188894 0)
(3.0056 -0.133573 0)
(2.71086 -0.0469298 0)
(1.57374 -0.00246985 0)
(2.52521 0.0359706 0)
(3.66604 0.103979 0)
(3.94689 0.237009 0)
(4.37268 0.336948 0)
(5.1142 0.448544 0)
(6.08297 0.503472 0)
(7.08231 0.539472 0)
(8.09469 0.558247 0)
(8.87386 0.52472 0)
(9.18036 0.427997 0)
(9.09792 0.222514 0)
(8.41211 0.0651148 0)
(7.37863 -0.0516402 0)
(6.26345 -0.142948 0)
(5.17113 -0.21533 0)
(4.19875 -0.238867 0)
(3.53468 -0.187298 0)
(3.19975 -0.126619 0)
(2.91445 -0.0347619 0)
(1.65036 0.00444354 0)
(2.85786 0.0340951 0)
(4.00265 0.112856 0)
(4.27983 0.252374 0)
(4.63664 0.375262 0)
(5.29849 0.50303 0)
(6.19213 0.579209 0)
(7.14891 0.629407 0)
(8.11114 0.650762 0)
(8.80414 0.614326 0)
(9.05928 0.500959 0)
(8.94923 0.275481 0)
(8.26465 0.0941871 0)
(7.24375 -0.0363355 0)
(6.14743 -0.147584 0)
(5.10456 -0.227177 0)
(4.23424 -0.241793 0)
(3.67409 -0.182955 0)
(3.40203 -0.110561 0)
(3.12263 -0.0267561 0)
(1.69119 0.016884 0)
(3.11208 0.0475406 0)
(4.38723 0.124895 0)
(4.62974 0.290585 0)
(4.93602 0.419275 0)
(5.51181 0.570243 0)
(6.31348 0.677797 0)
(7.21438 0.746103 0)
(8.11623 0.768425 0)
(8.69596 0.717453 0)
(8.88935 0.593902 0)
(8.75049 0.339921 0)
(8.08773 0.140855 0)
(7.09727 -0.0232566 0)
(6.02881 -0.160243 0)
(5.05065 -0.234697 0)
(4.3027 -0.236962 0)
(3.83688 -0.178393 0)
(3.62448 -0.1083 0)
(3.31778 -0.0111873 0)
(1.68316 0.0215748 0)
(3.58929 0.0515671 0)
(4.81154 0.16098 0)
(5.05284 0.323991 0)
(5.28757 0.488792 0)
(5.78094 0.669029 0)
(6.4824 0.80704 0)
(7.30858 0.896331 0)
(8.11563 0.909229 0)
(8.5753 0.843229 0)
(8.7217 0.703853 0)
(8.54004 0.409558 0)
(7.88436 0.191267 0)
(6.91312 -0.0184872 0)
(5.88381 -0.176813 0)
(4.99927 -0.223893 0)
(4.36965 -0.224755 0)
(4.00098 -0.153798 0)
(3.83872 -0.0821415 0)
(3.54583 -0.0197833 0)
(1.66107 0.0336374 0)
(3.92628 0.0765046 0)
(5.30293 0.180288 0)
(5.49536 0.395026 0)
(5.6735 0.584067 0)
(6.0774 0.790117 0)
(6.66701 0.957333 0)
(7.39334 1.06676 0)
(8.09176 1.06766 0)
(8.45093 0.984575 0)
(8.553 0.827113 0)
(8.31894 0.49903 0)
(7.66383 0.265151 0)
(6.7209 0.0126347 0)
(5.77092 -0.150057 0)
(4.98942 -0.202353 0)
(4.48218 -0.177988 0)
(4.17801 -0.114358 0)
(4.02426 -0.0429761 0)
(3.72729 0.0460972 0)
(1.59841 0.0388143 0)
(4.69421 0.119658 0)
(5.83478 0.28754 0)
(6.00259 0.513856 0)
(6.1064 0.73869 0)
(6.41368 0.972675 7.18883e-35)
(6.88431 1.14854 -5.33472e-34)
(7.49077 1.26258 0)
(8.05764 1.2496 0)
(8.32048 1.15253 0)
(8.37228 0.969361 0)
(8.07708 0.612886 0)
(7.40431 0.347105 0)
(6.47665 0.0524509 0)
(5.61738 -0.104178 0)
(4.96321 -0.141791 0)
(4.56188 -0.0960887 0)
(4.35079 -0.0133909 0)
(4.24622 0.0412089 0)
(3.72419 0.0970541 0)
(1.31175 0.0524515 0)
(5.43372 0.290991 -3.42674e-19)
(6.41084 0.424802 2.88113e-19)
(6.48399 0.74305 0)
(6.51049 0.98659 -5.73634e-20)
(6.73319 1.20741 4.62749e-20)
(7.08094 1.38201 5.6564e-34)
(7.57187 1.48628 0)
(7.99574 1.46119 1.28765e-19)
(8.16423 1.35369 -5.20889e-19)
(8.13598 1.14271 1.19992e-19)
(7.76897 0.761174 0)
(7.07179 0.454564 -4.78832e-19)
(6.21468 0.162176 -5.82283e-19)
(5.52896 0.03837 1.01375e-18)
(5.05706 0.0227208 -8.10618e-19)
(4.76663 0.0574012 0)
(4.58313 0.114124 -3.15263e-19)
(4.40526 0.147788 0)
(3.68377 0.148379 -1.6365e-18)
(1.03459 0.0717554 1.96209e-18)
(5.87615 0.566322 -4.53557e-20)
(6.85715 0.737173 -1.82018e-18)
(6.88823 1.05126 4.1617e-19)
(6.85544 1.26372 7.18059e-19)
(6.99609 1.46852 1.01381e-19)
(7.23399 1.63736 -1.33012e-19)
(7.6036 1.74497 0)
(7.88987 1.71352 0)
(7.97818 1.59334 8.95207e-19)
(7.8551 1.36248 0)
(7.42707 0.970147 1.70974e-18)
(6.73759 0.634234 5.22503e-19)
(5.99463 0.372677 -1.186e-20)
(5.4475 0.271999 -1.22311e-18)
(5.06788 0.262688 0)
(4.85072 0.290951 0)
(4.73291 0.341422 -5.49182e-18)
(4.56761 0.358496 1.38491e-17)
(3.73144 0.301202 -8.23372e-18)
(1.02985 0.101813 -9.63203e-18)
(6.19417 0.896684 2.30819e-18)
(7.27323 1.22265 -8.33774e-19)
(7.24199 1.44225 -2.25915e-19)
(7.155 1.58631 -1.35471e-18)
(7.21196 1.76014 4.06599e-19)
(7.35954 1.91868 4.36466e-19)
(7.59575 2.01386 -2.28189e-21)
(7.75482 1.98673 0)
(7.77987 1.85058 -1.98669e-18)
(7.5825 1.59976 2.46502e-18)
(7.11731 1.2095 -4.71714e-18)
(6.47719 0.871872 2.331e-18)
(5.86483 0.65693 -1.70996e-18)
(5.45993 0.587858 3.72646e-18)
(5.20216 0.58469 0)
(5.00861 0.60538 -1.4456e-18)
(4.8555 0.631311 0)
(4.59857 0.624645 8.14984e-18)
(3.72522 0.465265 -1.93112e-17)
(1.14801 0.200265 1.21489e-17)
(6.39611 1.2283 -1.02547e-17)
(7.53976 1.69003 5.59402e-18)
(7.52757 1.84197 8.51446e-19)
(7.39367 1.94884 0)
(7.38559 2.08424 7.79511e-19)
(7.44887 2.22254 -8.47703e-19)
(7.55283 2.28959 -7.1213e-20)
(7.62046 2.26709 0)
(7.58019 2.117 1.43183e-18)
(7.32766 1.84936 -1.68701e-18)
(6.84337 1.46958 4.30036e-18)
(6.25691 1.14963 0)
(5.73088 0.966907 -3.63731e-18)
(5.36017 0.887935 2.00061e-18)
(5.08879 0.861406 5.36161e-18)
(4.92568 0.833786 -4.73343e-18)
(4.80355 0.847731 7.77607e-18)
(4.627 0.87378 -1.7277e-17)
(3.83519 0.668196 1.09735e-17)
(1.34136 0.303759 -1.38454e-17)
(6.50411 1.52717 6.04865e-18)
(7.77574 2.17738 -6.42701e-18)
(7.73287 2.27052 2.68743e-18)
(7.57523 2.3248 -3.73149e-18)
(7.50945 2.42589 2.53524e-18)
(7.4875 2.53347 -4.13326e-19)
(7.49725 2.57774 8.31772e-20)
(7.48375 2.54321 -9.37697e-19)
(7.38282 2.38291 -1.56197e-18)
(7.09019 2.10439 -3.80994e-18)
(6.60307 1.73957 -9.32402e-18)
(6.06628 1.44093 -3.13726e-18)
(5.62602 1.28103 8.38579e-20)
(5.34105 1.21732 -7.26575e-18)
(5.14819 1.19575 -2.29142e-19)
(4.98396 1.20481 7.01624e-18)
(4.84716 1.15923 -2.18145e-18)
(4.60513 1.13833 -1.26326e-18)
(3.79351 0.856155 0)
(1.47662 0.407362 3.01163e-17)
(6.54046 1.77874 0)
(7.8744 2.63158 1.8272e-18)
(7.87926 2.65739 0)
(7.70057 2.69737 -4.03158e-19)
(7.58867 2.77262 -3.08397e-18)
(7.49904 2.8522 7.22804e-19)
(7.43756 2.8693 -6.74419e-21)
(7.35311 2.81453 1.7481e-18)
(7.19847 2.64501 -1.01487e-18)
(6.87294 2.36057 1.60205e-18)
(6.39401 2.01007 5.05348e-18)
(5.90119 1.73273 6.94452e-18)
(5.51049 1.57977 -4.32655e-18)
(5.2213 1.49522 7.9192e-18)
(4.99764 1.43067 -6.34143e-18)
(4.86884 1.37724 0)
(4.74856 1.32326 -1.68205e-17)
(4.56581 1.31705 2.25437e-17)
(3.88236 1.05457 1.72226e-18)
(1.64607 0.532997 -3.22175e-17)
(6.53542 2.01233 -6.33417e-19)
(7.94941 3.05032 -5.34732e-18)
(7.97526 3.01742 -1.46344e-17)
(7.77888 3.05549 8.18278e-18)
(7.62796 3.11435 -1.82583e-18)
(7.48732 3.16558 1.00271e-18)
(7.36809 3.15562 -3.33008e-19)
(7.22534 3.0798 -1.50861e-19)
(7.02469 2.90081 -3.48789e-18)
(6.67289 2.6134 -2.67559e-21)
(6.20535 2.27448 -5.52938e-18)
(5.74527 2.01379 -7.42137e-18)
(5.39597 1.85236 4.84886e-18)
(5.17073 1.76583 -2.8604e-18)
(5.0264 1.70447 6.91063e-18)
(4.88441 1.70647 0)
(4.75649 1.62608 -1.04533e-17)
(4.53669 1.60449 1.5456e-17)
(3.83305 1.26242 2.99754e-17)
(1.71814 0.635821 -3.51648e-17)
(6.50353 2.26572 -2.4102e-17)
(7.97052 3.45437 1.25309e-17)
(8.04189 3.34544 9.46084e-18)
(7.81264 3.39925 -8.87681e-18)
(7.62916 3.445 4.32057e-19)
(7.45275 3.4691 2.53996e-18)
(7.2894 3.43353 -1.2539e-19)
(7.10281 3.33584 -7.75723e-19)
(6.8647 3.14698 -2.28214e-18)
(6.49263 2.85927 3.81652e-18)
(6.04065 2.52622 5.23751e-18)
(5.6183 2.27545 1.16415e-17)
(5.30599 2.10857 0)
(5.06364 2.00019 2.03908e-19)
(4.8652 1.89634 -1.91453e-17)
(4.73469 1.84135 4.38037e-18)
(4.6409 1.75296 2.2428e-17)
(4.45667 1.74319 -6.49932e-18)
(3.81749 1.4399 1.44049e-17)
(1.71859 0.726315 -1.1089e-18)
(6.42251 2.51025 8.739e-19)
(7.98659 3.77001 1.16407e-17)
(8.06607 3.64799 7.10153e-18)
(7.80404 3.72574 -1.54571e-17)
(7.5974 3.75117 9.78494e-18)
(7.3934 3.75333 -2.99136e-18)
(7.20024 3.69492 5.58948e-20)
(6.98301 3.57857 1.72627e-18)
(6.71413 3.38191 3.90087e-18)
(6.32688 3.09441 -4.96576e-18)
(5.88936 2.7647 0)
(5.48581 2.51788 -4.53457e-18)
(5.18782 2.34083 5.20169e-18)
(4.98372 2.22419 6.94877e-18)
(4.86204 2.13465 -3.97759e-18)
(4.72415 2.11494 -1.00431e-17)
(4.60997 2.01746 -3.0583e-18)
(4.39728 1.98695 -4.11896e-20)
(3.77323 1.58298 0)
(1.68425 0.799909 0)
(6.33341 2.7465 -1.26413e-17)
(7.95411 4.09863 0)
(8.04326 3.94705 7.95024e-18)
(7.75929 4.02875 -3.66111e-18)
(7.53323 4.03926 -9.70959e-18)
(7.32095 4.01514 2.74928e-18)
(7.1101 3.93861 -3.95073e-20)
(6.86748 3.80793 -8.92568e-19)
(6.57405 3.60423 2.61948e-18)
(6.1758 3.31676 -2.01908e-18)
(5.75074 2.98921 2.91756e-18)
(5.36782 2.74087 1.40327e-17)
(5.08978 2.55248 5.20019e-19)
(4.86959 2.41549 -7.06515e-18)
(4.68462 2.29413 1.36445e-17)
(4.54802 2.22521 1.79962e-19)
(4.4598 2.10799 3.26756e-18)
(4.27931 2.09387 -1.60222e-17)
(3.69629 1.72464 1.6475e-17)
(1.63703 0.844758 -1.79968e-17)
(6.23808 2.93805 -5.74505e-21)
(7.91362 4.38215 0)
(8.00598 4.21813 0)
(7.67897 4.31467 3.17697e-18)
(7.45768 4.29238 3.73954e-18)
(7.23964 4.25044 -1.97874e-18)
(7.01343 4.16219 1.0737e-18)
(6.75071 4.02151 0)
(6.44067 3.81266 -4.20853e-18)
(6.03426 3.5255 7.26328e-18)
(5.61886 3.19988 8.75904e-18)
(5.24186 2.94849 -5.29053e-18)
(4.9602 2.75379 -6.58232e-18)
(4.75581 2.61161 1.55325e-17)
(4.63498 2.4933 -4.8189e-18)
(4.51281 2.43972 -5.85845e-18)
(4.42124 2.32762 -3.5731e-18)
(4.22538 2.2623 -1.73486e-17)
(3.63766 1.84254 2.35349e-18)
(1.58109 0.884276 1.93855e-17)
(6.09992 3.12771 -5.04394e-18)
(7.82935 4.64427 -6.9968e-18)
(7.91755 4.49221 9.18629e-19)
(7.59355 4.57411 7.28384e-20)
(7.3772 4.52508 1.04071e-18)
(7.15629 4.46491 -5.10146e-18)
(6.91628 4.36727 0)
(6.63687 4.21961 8.23239e-19)
(6.31539 4.00629 -6.47735e-19)
(5.90195 3.71968 1.16372e-17)
(5.4911 3.39668 -2.24216e-18)
(5.11667 3.14005 2.41149e-18)
(4.84159 2.93166 0)
(4.63029 2.76702 -8.47167e-18)
(4.45548 2.62362 1.05156e-17)
(4.32464 2.53078 0)
(4.24136 2.3996 -7.88515e-18)
(4.06378 2.35512 2.30125e-17)
(3.5277 1.94447 2.79877e-18)
(1.50388 0.90924 -2.39299e-17)
(5.99727 3.29831 -1.05851e-17)
(7.74055 4.92669 1.29021e-17)
(7.84138 4.7406 0)
(7.50556 4.81795 7.5261e-18)
(7.29979 4.73713 0)
(7.07122 4.66262 4.72535e-18)
(6.81526 4.55651 0)
(6.52422 4.40202 0)
(6.19492 4.18504 -1.50498e-18)
(5.77482 3.90011 -1.12885e-17)
(5.3656 3.58074 -1.62638e-17)
(4.99069 3.32102 3.00982e-18)
(4.71127 3.10757 1.1142e-17)
(4.50783 2.94125 9.45385e-18)
(4.38333 2.79542 -3.3612e-17)
(4.2758 2.7046 -1.39898e-17)
(4.18887 2.57802 8.11984e-18)
(3.99843 2.47899 0)
(3.4335 2.02223 2.40874e-17)
(1.41937 0.924096 -2.57837e-17)
(5.84158 3.42754 1.1563e-17)
(7.65822 5.12537 -1.40267e-17)
(7.74803 4.98554 0)
(7.42153 5.04877 -3.95452e-19)
(7.22533 4.93715 -2.97676e-18)
(6.98645 4.84943 0)
(6.71869 4.73308 -1.51293e-19)
(6.41837 4.57166 9.7324e-19)
(6.08142 4.35058 -2.24959e-18)
(5.6549 4.067 1.23147e-18)
(5.24594 3.75181 0)
(4.87071 3.48982 1.19533e-17)
(4.59337 3.26556 -6.72956e-21)
(4.38363 3.07824 5.08985e-18)
(4.2133 2.91021 6.21072e-18)
(4.08001 2.79255 0)
(3.99797 2.65854 -1.37834e-17)
(3.83087 2.55354 2.70065e-17)
(3.30641 2.10304 -2.92598e-17)
(1.31039 0.917411 5.58268e-17)
(5.74803 3.58982 0)
(7.54336 5.38248 0)
(7.66506 5.20498 -7.01429e-18)
(7.34767 5.257 0)
(7.15081 5.12569 0)
(6.90323 5.0259 6.11598e-18)
(6.62409 4.89936 -1.96263e-19)
(6.31613 4.72976 5.88389e-19)
(5.973 4.50416 -3.40509e-19)
(5.54174 4.22229 0)
(5.13373 3.91267 -2.5707e-18)
(4.75909 3.6511 -9.88737e-18)
(4.47866 3.42524 -1.23263e-17)
(4.26886 3.24074 -5.07482e-18)
(4.12868 3.07057 6.725e-18)
(4.01674 2.93423 -1.5907e-17)
(3.92488 2.78972 2.95891e-17)
(3.74094 2.65372 5.19763e-19)
(3.17939 2.13782 -2.7859e-17)
(1.18717 0.897218 -3.81369e-18)
(5.62237 3.69118 0)
(7.47887 5.54775 -1.01211e-17)
(7.58701 5.41533 8.06096e-18)
(7.27177 5.46389 0)
(7.0794 5.30711 0)
(6.82326 5.19547 -1.34089e-17)
(6.53613 5.05729 0)
(6.22161 4.87898 0)
(5.87311 4.64814 -4.89801e-18)
(5.43875 4.36728 2.18742e-18)
(5.03145 4.06313 -2.11607e-17)
(4.65471 3.80286 0)
(4.36715 3.57132 -1.3061e-17)
(4.14059 3.36879 4.49177e-19)
(3.95786 3.18299 -2.09693e-17)
(3.81387 3.03736 8.6131e-18)
(3.72291 2.87737 1.98845e-19)
(3.55428 2.70112 -3.17439e-17)
(3.01831 2.1934 1.50897e-17)
(1.04788 0.851031 4.14888e-18)
(5.54296 3.83195 0)
(7.38334 5.75617 -1.19487e-17)
(7.51472 5.60304 8.28134e-18)
(7.19991 5.64573 1.63914e-17)
(7.00779 5.47751 3.04086e-18)
(6.74542 5.35648 -1.75968e-18)
(6.45072 5.20767 1.13672e-18)
(6.1318 5.02009 7.63693e-19)
(5.78053 4.78365 5.24772e-18)
(5.3447 4.50365 1.49242e-17)
(4.93765 4.20562 1.75934e-17)
(4.55785 3.94873 3.25952e-18)
(4.26225 3.71949 1.90042e-17)
(4.02812 3.52187 1.2075e-17)
(3.86074 3.33511 1.51191e-17)
(3.73787 3.16255 -9.32994e-18)
(3.63223 2.9889 -1.15725e-17)
(3.43991 2.79083 1.36244e-17)
(2.85939 2.18454 -8.31351e-18)
(0.880132 0.797643 1.40031e-17)
(5.44491 3.93645 1.74454e-17)
(7.30082 5.91823 1.89328e-17)
(7.43073 5.78655 4.37771e-18)
(7.12722 5.82339 3.53881e-19)
(6.9369 5.63954 -1.09028e-17)
(6.66963 5.50979 3.908e-18)
(6.37078 5.35029 -1.2847e-18)
(6.05033 5.15432 -3.61152e-19)
(5.69741 4.91232 -6.03205e-18)
(5.26037 4.63225 -1.6469e-17)
(4.85143 4.33895 1.12676e-18)
(4.46592 4.08564 0)
(4.15865 3.8573 0)
(3.90555 3.65094 -6.19302e-18)
(3.69767 3.45073 -2.40408e-17)
(3.52557 3.2805 1.99956e-17)
(3.41271 3.09048 1.23574e-17)
(3.21905 2.82462 0)
(2.63646 2.2131 2.68125e-17)
(0.687797 0.693385 -1.56529e-17)
(5.37202 4.0496 -8.95943e-18)
(7.2353 6.08356 7.56539e-18)
(7.37247 5.9505 -1.00497e-17)
(7.05957 5.98181 -1.03954e-17)
(6.86618 5.78817 -4.30417e-18)
(6.59496 5.65251 1.10849e-18)
(6.2934 5.48485 0)
(5.97384 5.28134 -8.90751e-19)
(5.62071 5.0341 6.31902e-19)
(5.18225 4.75329 0)
(4.77062 4.4645 0)
(4.38031 4.21649 2.17854e-18)
(4.0646 3.99436 3.16503e-18)
(3.80039 3.79791 -6.54134e-18)
(3.59237 3.60557 1.73432e-17)
(3.44112 3.40452 -2.15709e-17)
(3.30311 3.19221 -2.66448e-17)
(3.07219 2.89413 2.3955e-17)
(2.43109 2.14269 -9.8564e-18)
(0.439797 0.587403 5.72284e-18)
(5.2956 4.15069 1.04517e-17)
(7.15713 6.24416 0)
(7.30544 6.1196 0)
(6.98337 6.1385 -3.33792e-18)
(6.79457 5.93009 2.68679e-18)
(6.52138 5.7861 -3.59629e-19)
(6.22135 5.61105 -4.0902e-18)
(5.90423 5.40131 -2.36427e-19)
(5.55061 5.14932 1.02472e-17)
(5.11012 4.86692 -1.30244e-18)
(4.69527 4.58131 2.87886e-18)
(4.30039 4.33886 -1.83937e-17)
(3.97382 4.12308 -1.91249e-17)
(3.69091 3.92774 -3.42041e-18)
(3.44678 3.72879 0)
(3.23284 3.53827 -3.41096e-19)
(3.05754 3.31732 1.37199e-17)
(2.79302 2.92002 -2.60257e-17)
(2.13708 2.09603 2.0239e-17)
(0.161554 0.242337 1.80821e-17)
(5.21818 4.24813 -2.25164e-17)
(7.07744 6.35514 -9.0571e-18)
(7.19906 6.23617 1.7479e-19)
(6.89689 6.26561 4.39575e-18)
(6.72191 6.05723 0)
(6.44777 5.91033 1.08105e-17)
(6.15052 5.73069 4.81299e-18)
(5.83557 5.51597 -7.24593e-19)
(5.48132 5.25997 -5.09964e-18)
(5.03868 4.9762 -1.25778e-18)
(4.62183 4.69482 1.1637e-18)
(4.22402 4.46021 1.60841e-17)
(3.88951 4.25475 1.85696e-17)
(3.59386 4.07421 3.25633e-18)
(3.34049 3.8967 1.72404e-17)
(3.13412 3.69367 0)
(2.93038 3.43129 0)
(2.58686 2.98085 1.67577e-17)
(1.73999 1.79823 1.61837e-19)
(0.188057 0.716112 -1.78207e-17)
(5.13958 4.3343 1.21401e-17)
(6.96879 6.50783 2.67687e-17)
(7.13235 6.38023 -3.88925e-17)
(6.83242 6.39245 2.21371e-17)
(6.65233 6.17648 -2.32328e-18)
(6.37617 6.029 1.39361e-17)
(6.08159 5.84475 0)
(5.7682 5.62667 8.67441e-19)
(5.41255 5.36792 0)
(4.96854 5.08401 1.58487e-17)
(4.55095 4.80786 -1.60211e-18)
(4.15108 4.5826 1.79123e-18)
(3.80725 4.39006 2.08832e-17)
(3.49303 4.22094 -7.16104e-18)
(3.20533 4.04722 -9.11006e-18)
(2.92725 3.86809 0)
(2.62956 3.63414 0)
(2.12773 3.05394 0)
(1.05235 1.96469 -8.73095e-18)
(0.487879 1.92922 -5.50119e-18)
(5.08156 4.41611 0)
(6.95065 6.64198 0)
(7.10878 6.54341 1.39325e-17)
(6.77779 6.53856 -1.83233e-17)
(6.57936 6.29224 1.16288e-17)
(6.3072 6.14126 -1.26628e-17)
(6.01243 5.95292 -4.46397e-19)
(5.69997 5.73219 3.45666e-19)
(5.34323 5.47162 8.97177e-19)
(4.89972 5.18892 -1.81391e-17)
(4.48369 4.91954 2.73107e-18)
(4.08332 4.70577 1.58592e-17)
(3.73277 4.52925 -2.07274e-17)
(3.40745 4.38195 -2.34111e-17)
(3.1084 4.24353 8.13458e-18)
(2.83246 4.08162 0)
(2.50375 3.76839 1.29214e-17)
(1.81215 2.93402 1.5435e-17)
(1.13035 2.36589 -1.64262e-17)
(0.725597 2.85239 2.14862e-17)
(5.01598 4.48661 0)
(6.88151 6.75235 2.13621e-17)
(7.00407 6.6422 -3.41848e-18)
(6.66907 6.64276 2.2496e-17)
(6.50959 6.40557 -1.22197e-17)
(6.23856 6.24715 0)
(5.9456 6.05645 0)
(5.63366 5.83332 0)
(5.27603 5.5719 3.21729e-18)
(4.83486 5.29177 6.61766e-19)
(4.42137 5.02962 0)
(4.02175 4.82777 -1.56649e-17)
(3.66693 4.66947 0)
(3.32988 4.54369 1.67049e-17)
(3.00778 4.41776 -1.15181e-17)
(2.67654 4.25949 -9.37804e-18)
(2.2469 3.91545 -2.45172e-17)
(1.51518 3.16433 -1.3344e-17)
(1.10041 3.05206 -2.40191e-17)
(0.906046 3.4209 1.7379e-17)
(4.91986 4.56095 -7.50404e-18)
(6.74845 6.806 4.31736e-19)
(6.86799 6.7051 -3.58512e-18)
(6.59067 6.72093 -1.74793e-17)
(6.45521 6.50317 0)
(6.17047 6.34706 0)
(5.88133 6.15634 0)
(5.56801 5.93119 5.34827e-20)
(5.21065 5.66972 -4.20771e-18)
(4.7731 5.39295 0)
(4.36314 5.13832 0)
(3.96631 4.94968 0)
(3.61015 4.81151 0)
(3.26945 4.71119 1.23585e-17)
(2.94756 4.6219 3.16073e-17)
(2.62824 4.47154 1.00421e-17)
(2.18051 3.99843 2.31208e-17)
(1.6659 3.46838 -1.84272e-17)
(1.2315 3.71232 7.92659e-18)
(1.07888 3.85756 0)
(4.86396 4.61823 7.21562e-18)
(6.69685 6.96376 -4.22933e-17)
(6.87689 6.87835 -1.17846e-17)
(6.58745 6.87194 -2.80853e-18)
(6.39715 6.61017 2.79246e-18)
(6.1105 6.45362 -1.84945e-17)
(5.81922 6.25529 1.16373e-18)
(5.50479 6.02851 3.41021e-18)
(5.14851 5.76723 0)
(4.71542 5.49408 -1.14322e-18)
(4.30923 5.24619 1.0407e-18)
(3.91697 5.0697 0)
(3.5652 4.95232 0)
(3.22906 4.87943 -1.54755e-17)
(2.90759 4.80238 2.74272e-18)
(2.55095 4.61656 -9.41358e-18)
(1.99894 4.15104 2.06659e-17)
(1.43784 3.85188 1.84581e-17)
(1.08702 4.14736 -3.29754e-17)
(1.01225 4.22552 1.73183e-17)
(4.84241 4.68897 1.35397e-17)
(6.69116 7.07591 3.77354e-17)
(6.84931 7.02124 1.40762e-17)
(6.50413 7.00525 0)
(6.32131 6.72774 0)
(6.04855 6.56372 1.39519e-17)
(5.75203 6.35719 -6.97572e-18)
(5.4398 6.12806 -3.25254e-18)
(5.08587 5.86661 -1.28558e-20)
(4.65805 5.59632 1.27684e-17)
(4.25696 5.35411 -1.87475e-17)
(3.87321 5.18964 0)
(3.53117 5.09317 0)
(3.20546 5.04613 -1.09694e-17)
(2.89172 4.99478 -1.44419e-17)
(2.53184 4.81127 0)
(1.9967 4.31036 -3.07395e-17)
(1.65664 4.2405 -5.70743e-18)
(1.41769 4.66502 3.35032e-17)
(1.12175 4.65611 -1.75962e-17)
(4.74928 4.74443 -2.56073e-17)
(6.57828 7.14442 -1.7934e-17)
(6.68693 7.0707 0)
(6.38355 7.07575 0)
(6.25601 6.83507 0)
(5.97246 6.66866 0)
(5.68087 6.46167 7.33064e-18)
(5.37223 6.22953 -4.71556e-18)
(5.02185 5.96772 0)
(4.6004 5.69941 -1.15076e-17)
(4.20628 5.46167 3.38123e-17)
(3.83446 5.30694 1.45095e-18)
(3.5083 5.22869 2.21238e-18)
(3.20186 5.20786 1.85593e-17)
(2.89945 5.16285 -1.24045e-17)
(2.51841 4.92035 0)
(2.03613 4.57217 9.67172e-18)
(1.59574 4.80627 7.0551e-19)
(1.12987 5.05822 -5.07879e-18)
(0.738307 5.11444 1.05885e-17)
(4.65328 4.8129 1.20992e-17)
(6.45345 7.24491 -1.80467e-17)
(6.60598 7.19154 0)
(6.33559 7.19723 -4.07547e-18)
(6.18523 6.94271 1.50633e-17)
(5.88873 6.77612 0)
(5.60515 6.56689 0)
(5.29895 6.33188 8.68401e-18)
(4.95383 6.06918 -5.28815e-19)
(4.53986 5.80185 1.10778e-17)
(4.15547 5.56765 -1.60611e-17)
(3.80025 5.42168 1.04683e-17)
(3.4946 5.35868 0)
(3.20877 5.35674 -1.0129e-17)
(2.91596 5.32306 6.33999e-18)
(2.54911 5.11012 6.87062e-18)
(2.06956 4.84336 0)
(1.72593 5.11746 4.82507e-18)
(1.28944 5.72179 8.12642e-18)
(1.16935 5.90441 2.43703e-18)
(4.59693 4.88257 -2.28218e-17)
(6.40643 7.39054 2.60835e-17)
(6.56565 7.363 1.84001e-17)
(6.25811 7.35101 -4.75172e-18)
(6.08775 7.06445 -2.26908e-17)
(5.80273 6.89285 0)
(5.52203 6.67296 6.44997e-18)
(5.22142 6.43471 -3.7227e-18)
(4.88218 6.16986 -1.75061e-19)
(4.47761 5.90301 -9.63437e-18)
(4.10565 5.67134 -7.84826e-19)
(3.76952 5.5312 -1.17377e-17)
(3.48742 5.47777 1.43984e-17)
(3.23058 5.48958 4.60808e-18)
(2.96272 5.46179 -1.07667e-17)
(2.56636 5.20355 1.15115e-17)
(2.2788 5.04431 0)
(1.93348 5.75989 0)
(1.68303 6.33149 1.45631e-18)
(0.480949 6.38447 -5.37311e-18)
(4.49775 4.94781 1.09593e-17)
(6.30094 7.48789 2.42194e-17)
(6.42737 7.45027 -1.82496e-17)
(6.1245 7.44338 1.65367e-17)
(5.98354 7.17262 2.19712e-17)
(5.70473 7.00181 0)
(5.43032 6.77764 -6.8515e-18)
(5.13801 6.53589 -5.19217e-18)
(4.80591 6.26817 0)
(4.41282 6.00083 0)
(4.05604 5.77051 0)
(3.74176 5.63397 0)
(3.48549 5.58544 -1.64056e-17)
(3.25667 5.59991 -6.24795e-18)
(3.0069 5.56374 0)
(2.67314 5.35672 -5.93595e-18)
(2.50165 5.45872 0)
(2.5341 5.7904 -2.536e-18)
(2.59498 5.7688 1.49882e-18)
(1.42082 5.80187 5.31955e-19)
(4.37227 4.99903 -2.0841e-17)
(6.15284 7.60931 -1.54015e-17)