/*--------------------------------*- C++ -*----------------------------------*\
| =========                 |                                                 |
| \\      /  F ield         | OpenFOAM: The Open Source CFD Toolbox           |
|  \\    /   O peration     | Version:  2412                                  |
|   \\  /    A nd           | Website:  www.openfoam.com                      |
|    \\/     M anipulation  |                                                 |
\*---------------------------------------------------------------------------*/
FoamFile
{
    version     2.0;
    format      ascii;
    arch        "LSB;label=32;scalar=64";
    class       volScalarField;
    location    "0.21";
    object      epsilon;
}
// * * * * * * * * * * * * * * * * * * * * * * * * * * * * * * * * * * * * * //

dimensions      [0 2 -3 0 0 0 0];

internalField   nonuniform List<scalar> 
12225
(
448.248
622.894
830.556
1004.83
1150.4
1270.21
1368.61
1449.62
1516.35
1571.36
1616.72
1654.09
1684.77
1709.75
1729.8
1745.31
1756.64
1766.6
173.744
302.084
403.101
480.177
539.343
585.696
622.135
650.858
673.569
691.535
705.718
716.868
725.578
732.314
737.479
741.321
744.634
744.467
119.435
232.402
315.512
376.254
421.161
455.028
480.629
499.958
514.531
525.46
533.566
539.48
543.69
546.581
548.486
549.667
550.555
550.218
97.6414
199.979
277.776
334.832
376.772
407.858
430.862
447.788
460.144
469.043
475.311
479.574
482.312
483.908
484.68
484.904
484.916
484.512
83.6526
176.289
251.577
308.548
351.1
382.721
406.064
423.141
435.483
444.242
450.285
454.271
456.709
458
458.478
458.432
458.167
457.709
71.9918
153.973
226.31
283.823
328.195
361.836
387.034
405.7
419.346
429.147
436.011
440.637
443.573
445.253
446.033
446.22
446.096
445.753
61.3442
131.282
198.625
255.577
301.539
337.585
365.349
386.459
402.306
414.031
422.549
428.585
432.719
435.416
437.056
437.959
438.394
438.46
51.6697
108.73
168.487
222.63
268.752
306.558
336.799
360.61
379.123
393.347
404.139
412.214
418.155
422.444
425.476
427.58
429.011
429.859
43.2225
87.6452
137.685
186.324
230.297
268.24
299.981
326.016
347.072
363.915
377.26
387.744
395.916
402.239
407.106
410.84
413.681
415.697
36.1698
69.2411
108.631
149.5
188.752
224.54
255.995
282.977
305.736
324.701
340.363
353.211
363.699
372.233
379.17
384.804
389.354
392.849
30.4984
54.1383
83.3279
115.313
147.812
179.111
208.063
234.091
257.023
276.94
294.06
308.669
321.078
331.59
340.485
348.005
354.327
359.427
26.3765
43.1972
64.2825
88.2383
113.646
139.253
164.038
187.3
208.647
227.915
245.096
260.284
273.632
285.319
295.53
304.434
312.148
318.575
23.1425
34.7465
49.313
66.2683
84.8746
104.385
124.078
143.347
161.753
179.012
194.971
209.57
222.824
234.792
245.556
255.205
263.786
271.142
20.3783
27.6944
36.752
47.4272
59.4453
72.4834
86.1731
100.141
114.059
127.663
140.754
153.199
164.914
175.861
186.029
195.424
204.026
211.632
18.15
22.2406
27.1489
32.914
39.4896
46.7959
54.7172
63.1064
71.8063
80.666
89.5502
98.3435
106.952
115.302
123.34
131.022
138.291
144.944
16.4706
18.3568
20.5274
23.0284
25.8744
29.069
32.6043
36.4555
40.5849
44.9466
49.4913
54.1687
58.9298
63.7287
68.5235
73.2746
77.9334
82.3671
15.3282
15.873
16.4959
17.2133
18.0329
18.9611
20.0039
21.1646
22.4427
23.8346
25.3341
26.9327
28.62
30.382
32.2049
34.0748
35.9739
37.8602
14.7508
14.6758
14.6369
14.6353
14.6698
14.7396
14.8449
14.986
15.163
15.3759
15.6243
15.9076
16.2251
16.577
16.9625
17.3796
17.8255
18.2961
14.8977
14.9733
15.0873
15.2434
15.4418
15.6821
15.9648
16.2898
16.6561
17.0623
17.5061
17.9849
18.4958
19.0354
19.6002
20.1864
20.7895
21.3957
15.9708
17.2605
18.7265
20.3954
22.2737
24.3605
26.6493
29.1241
31.7611
34.5317
37.4047
40.3486
43.3327
46.3283
49.3095
52.2533
55.135
57.8945
18.0496
21.9969
26.6901
32.1483
38.3089
45.0758
52.3254
59.9115
67.6829
75.4997
83.2399
90.8026
98.1087
105.099
111.734
117.987
123.839
129.246
21.5632
30.6529
41.9212
55.0376
69.497
84.7811
100.38
115.832
130.774
144.946
158.182
170.39
181.537
191.634
200.716
208.842
216.072
222.449
27.2186
45.3006
67.7868
92.9381
119.105
145.001
169.643
192.391
212.92
231.134
247.083
260.902
272.775
282.902
291.483
298.709
304.754
309.779
35.7146
67.6767
105.679
144.952
182.517
216.743
246.818
272.572
294.227
312.186
326.909
338.853
348.441
356.05
362.007
366.592
370.044
372.59
47.4079
97.6114
152.03
202.69
246.854
283.887
314.072
338.199
357.203
371.973
383.286
391.801
398.065
402.523
405.538
407.403
408.362
408.649
61.8881
131.752
198.705
254.806
299.835
335.07
362.111
382.559
397.8
408.961
416.938
422.437
426.01
428.089
429.01
429.039
428.389
427.276
78.4671
165.762
239.652
296.704
339.787
371.976
395.786
413.193
425.728
434.562
440.58
444.45
446.681
447.661
447.689
446.994
445.759
444.171
99.5998
200.965
279.478
337.821
380.456
411.807
434.889
451.765
463.98
472.691
478.745
482.774
485.252
486.54
486.918
486.598
485.749
484.541
144.792
258.315
348.614
417.597
468.465
506.747
535.872
558.049
574.951
587.825
597.582
604.907
610.322
614.234
616.958
618.745
619.787
620.286
366.941
498.482
666.583
808.027
923.446
1016.68
1091.71
1152.37
1201.65
1241.82
1274.66
1301.61
1323.77
1342.04
1357.14
1369.62
1379.93
1388.49
0.913608
0.870391
1.27205
1.62176
1.9097
2.15558
2.44019
2.75847
3.10355
3.48082
3.90178
4.39553
5.05163
5.84631
6.75963
7.79057
8.94608
10.2361
11.6704
13.2566
15.0005
16.9055
18.9729
21.203
23.5956
26.1504
28.8689
31.7547
34.8155
38.0646
41.5235
45.1579
48.9445
52.8773
56.9517
61.1635
65.5089
69.9841
74.5858
79.3108
84.1559
89.1182
94.1948
99.3828
104.679
110.081
115.584
121.186
126.883
132.671
138.546
144.503
150.537
156.644
162.819
169.054
175.346
181.688
188.073
194.494
200.946
207.421
213.913
220.413
226.914
233.41
239.892
246.354
252.789
259.19
265.552
271.875
278.161
284.422
290.685
296.902
303.016
309.03
314.941
320.745
326.436
332.007
337.451
342.761
347.931
352.953
357.821
362.529
367.072
371.443
375.638
379.65
383.475
387.109
390.548
393.786
396.821
399.649
402.266
404.671
406.859
408.83
410.58
412.109
413.414
414.495
415.35
415.978
416.381
416.557
416.506
416.23
415.73
415.005
414.059
412.892
411.507
409.907
408.094
406.071
403.842
401.41
398.78
395.956
392.942
389.745
386.368
382.819
379.102
375.223
371.19
367.008
362.686
358.228
353.645
348.941
344.126
339.208
334.19
329.095
323.91
318.678
313.443
308.524
305.354
302.667
299.947
297.159
294.303
291.383
288.404
285.371
282.289
279.164
276.001
272.804
269.58
266.333
263.068
259.791
256.505
253.216
249.929
246.647
243.374
240.113
236.868
233.64
230.429
227.236
224.057
220.885
217.709
214.506
211.239
207.834
204.132
199.728
193.947
186.094
2.81847
1.5597
1.39326
1.45403
1.6158
1.8588
2.17568
2.55981
3.00587
3.51755
4.09906
4.75594
5.49389
6.30906
7.19563
8.14888
9.16492
10.24
11.3704
12.5521
13.7814
15.0554
16.3715
17.7282
19.1248
20.5617
22.0399
23.5608
25.1261
26.7371
28.3936
30.093
31.8333
33.6143
35.4357
37.2974
39.1992
41.1406
43.1213
45.1408
47.1984
49.2934
51.4251
53.5925
55.7946
58.0305
60.2988
62.5984
64.9278
67.2857
69.6705
72.0806
74.5142
76.9696
79.445
81.9383
84.4476
86.9708
89.5058
92.0503
94.602
97.1587
99.718
102.278
104.835
107.388
109.934
112.471
114.997
117.512
120.014
122.504
124.986
127.465
129.959
132.456
134.924
137.356
139.751
142.105
144.416
146.682
148.9
151.068
153.182
155.24
157.241
159.18
161.057
162.869
164.614
166.29
167.895
169.426
170.884
172.264
173.567
174.791
175.934
176.995
177.973
178.867
179.675
180.398
181.034
181.582
182.042
182.414
182.698
182.892
182.997
183.013
182.94
182.778
182.527
182.189
181.763
181.25
180.651
179.967
179.199
178.348
177.416
176.404
175.313
174.145
172.902
171.586
170.199
168.742
167.219
165.632
163.982
162.273
160.507
158.686
156.814
154.894
152.925
150.919
148.859
146.783
144.716
142.732
141.044
139.476
137.918
136.345
134.751
133.137
131.504
129.854
128.188
126.509
124.819
123.121
121.416
119.706
117.994
116.282
114.571
112.865
111.164
109.47
107.785
106.111
104.449
102.8
101.166
99.5461
97.9416
96.3521
94.7767
93.2136
91.6597
90.1116
88.5608
87.0191
85.6819
85.7221
5.03933
2.4505
2.07725
2.10361
2.28679
2.55983
2.91501
3.34971
3.86108
4.44518
5.09662
5.80917
6.57611
7.39018
8.24472
9.13446
10.0555
11.0052
11.9818
12.9844
14.0129
15.0677
16.1497
17.26
18.3999
19.5708
20.7736
22.0093
23.2782
24.5802
25.9148
27.2812
28.6788
30.1068
31.5648
33.0523
34.5685
36.1131
37.6853
39.2846
40.9104
42.562
44.2387
45.9401
47.6652
49.4135
51.1841
52.9763
54.7892
56.6219
58.4734
60.3427
62.2287
64.1302
66.0461
67.9752
69.916
71.8672
73.8275
75.7954
77.7693
79.7478
81.7294
83.7125
85.6956
87.6775
89.6567
91.6321
93.603
95.5688
97.5294
99.4853
101.437
103.387
105.334
107.267
109.178
111.062
112.918
114.742
116.533
118.289
120.008
121.686
123.324
124.918
126.466
127.967
129.42
130.821
132.17
133.466
134.705
135.888
137.013
138.079
139.083
140.026
140.906
141.722
142.474
143.16
143.78
144.333
144.819
145.236
145.585
145.866
146.078
146.22
146.294
146.298
146.233
146.099
145.897
145.626
145.288
144.882
144.409
143.871
143.267
142.599
141.868
141.074
140.22
139.306
138.334
137.305
136.22
135.082
133.891
132.651
131.361
130.025
128.645
127.221
125.757
124.255
122.71
121.144
119.548
117.937
116.324
114.744
113.252
111.809
110.376
108.939
107.492
106.034
104.565
103.087
101.602
100.11
98.6145
97.1157
95.6158
94.1164
92.6192
91.1257
89.6374
88.1558
86.6824
85.2185
83.7654
82.3244
80.8965
79.483
78.0848
76.7028
75.3379
73.9909
72.6629
71.3554
70.071
68.8161
67.6032
66.4766
65.559
65.4379
7.33038
3.45949
2.90912
2.8905
3.05604
3.33582
3.70769
4.16194
4.69124
5.28761
5.94196
6.64491
7.3877
8.16298
8.96528
9.7911
10.6387
11.5076
12.3985
13.3125
14.251
15.2157
16.2081
17.2294
18.2808
19.3629
20.4762
21.6207
22.7962
24.0023
25.2382
26.5034
27.7971
29.1189
30.468
31.8441
33.2465
34.6749
36.1287
37.6076
39.1111
40.6389
42.1903
43.7652
45.3629
46.983
48.6249
50.2881
51.9718
53.6755
55.3984
57.1396
58.8982
60.6733
62.4639
64.2689
66.087
67.9171
69.758
71.6082
73.4665
75.3314
77.2016
79.0756
80.9521
82.8296
84.7071
86.5832
88.4569
90.3273
92.1937
94.0553
95.9114
97.761
99.599
101.42
103.218
104.991
106.737
108.453
110.137
111.787
113.4
114.975
116.51
118.003
119.452
120.855
122.211
123.518
124.774
125.978
127.129
128.225
129.265
130.247
131.171
132.036
132.84
133.584
134.265
134.884
135.439
135.93
136.357
136.72
137.017
137.25
137.416
137.517
137.553
137.523
137.428
137.269
137.044
136.755
136.402
135.986
135.508
134.968
134.366
133.705
132.985
132.207
131.372
130.482
129.537
128.54
127.492
126.393
125.247
124.055
122.817
121.536
120.216
118.853
117.456
116.028
114.568
113.084
111.576
110.052
108.522
107.003
105.515
104.049
102.589
101.128
99.6608
98.1871
96.7073
95.2223
93.7336
92.2424
90.7505
89.2592
87.7701
86.2847
84.8045
83.3308
81.8652
80.4088
78.9631
77.5291
76.1083
74.7015
73.3101
71.935
70.5773
69.238
67.9183
66.6195
65.3435
64.0931
62.8729
61.6925
60.5693
59.5475
58.7154
58.342
9.38795
4.48645
3.74127
3.64665
3.78341
4.05122
4.41577
4.86101
5.37603
5.95101
6.57629
7.24277
7.9427
8.67016
9.42132
10.1943
10.9886
11.8051
12.6452
13.5103
14.4023
15.3227
16.2728
17.2534
18.2653
19.3089
20.3841
21.4909
22.6289
23.7978
24.997
26.2261
27.4846
28.7719
30.0879
31.4321
32.8041
34.2037
35.6307
37.0847
38.5655
40.0728
41.6064
43.166
44.7511
46.3616
47.9969
49.6564
51.3398
53.0463
54.7753
56.5259
58.2972
60.0884
61.8983
63.7259
65.5699
67.429
69.302
71.1873
73.0835
74.989
76.9024
78.822
80.7462
82.6735
84.6022
86.5309
88.4581
90.3822
92.3018
94.2154
96.1214
98.0165
99.8958
101.755
103.591
105.4
107.18
108.929
110.643
112.322
113.963
115.563
117.121
118.634
120.101
121.52
122.889
124.207
125.471
126.681
127.834
128.93
129.967
130.944
131.861
132.715
133.507
134.234
134.898
135.496
136.029
136.495
136.896
137.229
137.495
137.695
137.827
137.891
137.889
137.82
137.684
137.481
137.213
136.88
136.482
136.02
135.494
134.906
134.257
133.547
132.778
131.951
131.067
130.128
129.135
128.089
126.993
125.847
124.653
123.414
122.131
120.803
119.441
118.042
116.608
115.145
113.652
112.134
110.595
109.038
107.472
105.906
104.35
102.803
101.259
99.7131
98.1638
96.6107
95.0543
93.4957
91.9361
90.3771
88.8201
87.2666
85.7182
84.1762
82.6422
81.1174
79.6034
78.1013
76.6125
75.138
73.6791
72.2369
70.8126
69.4071
68.0216
66.6574
65.3157
63.9982
62.7073
61.4465
60.2216
59.0431
57.9292
56.918
56.071
55.5139
11.4277
5.44425
4.4798
4.30758
4.40634
4.64903
4.99088
5.41086
5.89582
6.43546
7.02079
7.64406
8.29906
8.98138
9.68844
10.4192
11.1739
11.9535
12.7593
13.593
14.4559
15.3494
16.2744
17.2318
18.222
19.2453
20.3018
21.3915
22.5142
23.6699
24.8581
26.0788
27.3317
28.6166
29.9333
31.2818
32.6619
34.0736
35.5166
36.991
38.4966
40.0333
41.6009
43.1993
44.8281
46.4872
48.1761
49.8942
51.6412
53.4163
55.2188
57.0479
58.9026
60.7818
62.6843
64.609
66.5544
68.519
70.5012
72.4995
74.5121
76.5371
78.5727
80.6171
82.6681
84.724
86.7826
88.842
90.9002
92.955
95.0045
97.0464
99.0788
101.096
103.094
105.069
107.018
108.937
110.825
112.678
114.494
116.27
118.004
119.693
121.336
122.93
124.474
125.964
127.4
128.78
130.101
131.363
132.563
133.701
134.775
135.783
136.726
137.602
138.409
139.148
139.817
140.416
140.944
141.402
141.788
142.103
142.346
142.517
142.617
142.645
142.602
142.488
142.303
142.048
141.724
141.331
140.869
140.341
139.746
139.086
138.362
137.574
136.725
135.816
134.848
133.823
132.742
131.606
130.42
129.182
127.893
126.562
125.188
123.772
122.318
120.828
119.305
117.75
116.168
114.56
112.931
111.284
109.625
107.96
106.296
104.634
102.971
101.308
99.6419
97.9744
96.3058
94.6374
92.9707
91.3071
89.6482
87.9955
86.3506
84.715
83.0901
81.4773
79.878
78.2934
76.725
75.1737
73.6409
72.1276
70.6351
69.1643
67.7167
66.2933
64.8959
63.5262
62.1871
60.8826
59.6188
58.4065
57.2628
56.2189
55.3165
54.6171
14.466
6.4562
5.1437
4.85779
4.9022
5.10907
5.4198
5.80776
6.25776
6.75929
7.30423
7.88614
8.50016
9.14302
9.81291
10.5092
11.2323
11.983
12.7626
13.5724
14.4136
15.2874
16.1945
17.1359
18.112
19.1234
20.1703
21.2529
22.3715
23.5261
24.7169
25.944
27.2075
28.5075
29.8441
31.2175
32.6277
34.0749
35.5593
37.0808
38.6396
40.2356
41.8689
43.5392
45.2464
46.9903
48.7704
50.5863
52.4373
54.3229
56.2421
58.194
60.1774
62.1911
64.2338
66.304
68.3999
70.5198
72.6619
74.8241
77.0043
79.2005
81.4102
83.6312
85.8611
88.0974
90.3376
92.5792
94.8196
97.0562
99.2864
101.508
103.716
105.905
108.072
110.212
112.322
114.399
116.44
118.442
120.402
122.317
124.185
126.004
127.77
129.481
131.135
132.731
134.265
135.736
137.143
138.483
139.755
140.958
142.09
143.151
144.138
145.051
145.889
146.652
147.338
147.948
148.48
148.935
149.312
149.611
149.832
149.976
150.041
150.029
149.94
149.775
149.533
149.216
148.824
148.359
147.82
147.21
146.529
145.779
144.96
144.075
143.124
142.109
141.033
139.897
138.702
137.449
136.145
134.789
133.383
131.931
130.435
128.897
127.319
125.706
124.058
122.379
120.672
118.939
117.185
115.412
113.625
111.83
110.03
108.228
106.425
104.621
102.816
101.01
99.2058
97.404
95.6064
93.8144
92.0298
90.2541
88.489
86.7361
84.9968
83.2726
81.5648
79.8748
78.204
76.5534
74.9244
73.318
71.7356
70.1782
68.6472
67.1439
65.6702
64.2281
62.8207
61.4521
60.1288
58.861
57.6641
56.563
55.5851
54.7622
17.31
7.3438
5.6834
5.27823
5.26297
5.42999
5.70709
6.0622
6.47811
6.94402
7.45238
7.99773
8.57617
9.1852
9.82346
10.4906
11.1869
11.9132
12.6705
13.4601
14.2829
15.1402
16.033
16.962
17.9282
18.9322
19.9747
21.0563
22.1774
23.3388
24.5408
25.7839
27.0686
28.3954
29.7647
31.177
32.6326
34.132
35.6754
37.2632
38.8955
40.5726
42.2945
44.0611
45.8723
47.7279
49.6275
51.5705
53.5563
55.584
57.6526
59.7611
61.908
64.0918
66.311
68.5636
70.8477
73.1611
75.5016
77.8666
80.2538
82.6604
85.0838
87.5209
89.969
92.425
94.8859
97.3486
99.8099
102.267
104.716
107.155
109.575
111.973
114.344
116.684
118.989
121.257
123.483
125.664
127.798
129.881
131.91
133.883
135.796
137.648
139.435
141.156
142.808
144.39
145.898
147.333
148.691
149.972
151.175
152.297
153.338
154.297
155.172
155.964
156.672
157.295
157.833
158.286
158.653
158.935
159.131
159.242
159.269
159.211
159.069
158.844
158.536
158.146
157.676
157.126
156.498
155.792
155.01
154.154
153.225
152.225
151.155
150.015
148.812
147.547
146.22
144.834
143.392
141.897
140.35
138.755
137.114
135.43
133.706
131.944
130.148
128.32
126.463
124.581
122.676
120.753
118.815
116.866
114.911
112.952
110.99
109.028
107.066
105.106
103.149
101.196
99.2507
97.3133
95.386
93.4706
91.5686
89.6818
87.8117
85.9598
84.1275
82.3163
80.5273
78.762
77.0215
75.3071
73.62
71.9615
70.3328
68.7357
67.1718
65.6436
64.1541
62.7077
61.3108
59.9728
58.7071
57.533
56.4683
55.53
19.7993
8.06985
6.08862
5.5699
5.49583
5.62314
5.86742
6.19166
6.57667
7.01116
7.48783
8.00179
8.54976
9.12972
9.74065
10.3823
11.055
11.7596
12.497
13.2684
14.0749
14.9179
15.7985
16.7179
17.6771
18.6773
19.7195
20.8048
21.934
23.1083
24.3285
25.5955
26.9103
28.2737
29.6866
31.1497
32.6637
34.2293
35.8471
37.5176
39.2412
41.0181
42.8487
44.7328
46.6705
48.6613
50.705
52.8008
54.948
57.1455
59.3921
61.6864
64.0268
66.4115
68.8384
71.3052
73.8096
76.3489
78.9204
81.5211
84.1479
86.7978
89.4672
92.153
94.8515
97.5591
100.272
102.987
105.701
108.408
111.106
113.79
116.451
119.085
121.686
124.251
126.776
129.257
131.69
134.072
136.4
138.669
140.877
143.02
145.096
147.102
149.035
150.893
152.674
154.375
155.994
157.53
158.981
160.346
161.622
162.81
163.907
164.913
165.827
166.648
167.376
168.01
168.551
168.997
169.35
169.609
169.775
169.847
169.826
169.714
169.51
169.215
168.831
168.357
167.797
167.151
166.42
165.605
164.708
163.731
162.677
161.547
160.344
159.068
157.723
156.313
154.837
153.3
151.704
150.052
148.346
146.59
144.786
142.938
141.048
139.12
137.156
135.16
133.135
131.084
129.011
126.919
124.811
122.693
120.566
118.436
116.303
114.169
112.038
109.91
107.787
105.671
103.565
101.47
99.3874
97.3198
95.2689
93.2362
91.2234
89.2321
87.2638
85.3199
83.4018
81.5107
79.648
77.815
76.0128
74.2428
72.5066
70.8056
69.1419
67.5178
65.9366
64.4026
62.922
61.5031
60.1575
58.9
57.7415
56.6918
21.8607
8.62967
6.36728
5.74605
5.61714
5.70692
5.92056
6.21673
6.57441
6.98165
7.43117
7.9183
8.44013
8.99494
9.58194
10.201
10.8527
11.5377
12.2572
13.0124
13.8047
14.6356
15.5066
16.4193
17.375
18.3754
19.4219
20.5162
21.6596
22.8536
24.0998
25.3994
26.7538
28.1644
29.6324
31.1589
32.745
34.3917
36.0999
37.8702
39.7033
41.5995
43.5593
45.5825
47.6692
49.819
52.0313
54.3053
56.6401
59.0343
61.4864
63.9948
66.5572
69.1716
71.8353
74.5457
77.2998
80.0944
82.926
85.7913
88.6865
91.6078
94.5513
97.513
100.489
103.474
106.466
109.458
112.448
115.43
118.401
121.351
124.272
127.159
130.009
132.816
135.576
138.285
140.938
143.533
146.064
148.53
150.925
153.247
155.492
157.658
159.741
161.74
163.652
165.474
167.205
168.843
170.386
171.832
173.181
174.431
175.581
176.63
177.577
178.421
179.163
179.802
180.337
180.77
181.1
181.327
181.452
181.476
181.398
181.22
180.943
180.567
180.094
179.525
178.862
178.106
177.259
176.323
175.3
174.191
172.999
171.727
170.376
168.949
167.449
165.879
164.24
162.537
160.772
158.948
157.069
155.136
153.155
151.127
149.057
146.947
144.801
142.622
140.414
138.18
135.924
133.649
131.359
129.058
126.749
124.435
122.12
119.806
117.495
115.19
112.892
110.604
108.327
106.065
103.819
101.59
99.3814
97.1943
95.0305
92.8916
90.7792
88.6947
86.6395
84.6151
82.6226
80.6635
78.739
76.8506
74.9996
73.1879
71.4174
69.6907
68.0108
66.3822
64.8105
63.3032
61.8698
60.5218
59.2652
58.1065
23.4604
9.03052
6.53449
5.825
5.647
5.70238
5.88792
6.15875
6.49225
6.87581
7.30193
7.76603
8.26536
8.79842
9.36461
9.96402
10.5973
11.2653
11.9695
12.7114
13.4926
14.3149
15.1803
16.0908
17.0483
18.0548
19.1125
20.2234
21.3895
22.6128
23.8954
25.2391
26.6459
28.1174
29.6554
31.2613
32.9368
34.6829
36.501
38.3918
40.3561
42.3945
44.5072
46.6944
48.9557
51.2907
53.6987
56.1786
58.7291
61.3485
64.0349
66.7861
69.5995
72.4723
75.4015
78.3836
81.4152
84.4922
87.6107
90.7665
93.9551
97.172
100.413
103.673
106.947
110.231
113.52
116.809
120.093
123.367
126.625
129.852
133.045
136.197
139.303
142.36
145.361
148.302
151.18
153.99
156.727
159.389
161.972
164.471
166.883
169.205
171.435
173.57
175.607
177.544
179.38
181.112
182.739
184.259
185.671
186.974
188.167
189.248
190.218
191.075
191.82
192.451
192.971
193.378
193.673
193.856
193.928
193.89
193.742
193.486
193.122
192.653
192.079
191.402
190.624
189.746
188.772
187.702
186.538
185.284
183.942
182.514
181.003
179.412
177.743
176.001
174.187
172.305
170.358
168.35
166.283
164.163
161.991
159.772
157.509
155.206
152.866
150.494
148.092
145.664
143.214
140.746
138.263
135.77
133.27
130.765
128.261
125.759
123.262
120.772
118.293
115.825
113.373
110.938
108.521
106.126
103.754
101.407
99.0869
96.7951
94.5333
92.3032
90.1061
87.9433
85.8164
83.7265
81.6751
79.6635
77.6934
75.7665
73.8847
72.0508
70.2677
68.5395
66.8716
65.2705
63.744
62.3008
60.9438
59.6781
24.5881
9.28459
6.60736
5.82594
5.60574
5.63043
5.79054
6.03853
6.35055
6.71338
7.11932
7.56377
8.04406
8.55886
9.10776
9.69108
10.3097
10.9648
11.6581
12.3915
13.1671
13.987
14.8539
15.77
16.7381
17.7608
18.8406
19.9803
21.1826
22.4499
23.7849
25.19
26.6675
28.2199
29.8491
31.5571
33.3456
35.2163
37.1704
39.209
41.3328
43.5425
45.8382
48.2199
50.687
53.2389
55.8743
58.592
61.3899
64.2661
67.2179
70.2425
73.3368
76.4972
79.72
83.0012
86.3364
89.7209
93.1497
96.6179
100.12
103.652
107.208
110.782
114.37
117.966
121.565
125.16
128.748
132.323
135.869
139.376
142.841
146.256
149.618
152.92
156.157
159.325
162.42
165.436
168.371
171.219
173.978
176.642
179.209
181.675
184.037
186.294
188.442
190.48
192.405
194.216
195.91
197.488
198.947
200.288
201.508
202.607
203.582
204.436
205.167
205.775
206.262
206.628
206.872
206.995
207
206.885
206.652
206.304
205.84
205.263
204.574
203.776
202.869
201.857
200.741
199.524
198.208
196.796
195.291
193.695
192.012
190.244
188.396
186.469
184.468
182.396
180.257
178.054
175.792
173.473
171.101
168.682
166.217
163.712
161.17
158.595
155.991
153.362
150.711
148.043
145.361
142.67
139.972
137.273
134.574
131.879
129.192
126.515
123.85
121.201
118.569
115.958
113.368
110.804
108.265
105.756
103.276
100.829
98.4156
96.0374
93.6959
91.3926
89.1288
86.906
84.7254
82.5885
80.4969
78.4524
76.4571
74.5134
72.6243
70.7938
69.0266
67.3284
65.7056
64.1647
62.7064
61.3357
25.2472
9.40549
6.60238
5.76677
5.5122
5.51048
5.6481
5.87585
6.16903
6.5141
6.90319
7.33171
7.79711
8.29822
8.8349
9.40773
10.0179
10.6671
11.3574
12.0911
12.8709
13.6996
14.5802
15.5159
16.51
17.5656
18.6861
19.8749
21.1351
22.47
23.8826
25.376
26.953
28.6164
30.3685
32.2117
34.1478
36.1787
38.3056
40.5295
42.8513
45.2711
47.7889
50.4043
53.1164
55.9239
58.8251
61.8178
64.8998
68.0679
71.3189
74.6493
78.055
81.5317
85.075
88.6799
92.3414
96.0541
99.8115
103.608
107.438
111.295
115.175
119.071
122.977
126.887
130.797
134.699
138.589
142.455
146.279
150.055
153.779
157.443
161.043
164.573
168.028
171.403
174.694
177.895
181.004
184.016
186.929
189.736
192.433
195.019
197.489
199.843
202.077
204.191
206.181
208.046
209.785
211.397
212.88
214.233
215.457
216.549
217.509
218.338
219.035
219.601
220.036
220.341
220.516
220.562
220.48
220.272
219.938
219.481
218.901
218.201
217.382
216.447
215.397
214.236
212.966
211.589
210.107
208.525
206.845
205.07
203.204
201.25
199.211
197.091
194.893
192.623
190.283
187.877
185.41
182.885
180.307
177.68
175.008
172.295
169.545
166.763
163.952
161.117
158.262
155.39
152.506
149.613
146.717
143.819
140.925
138.037
135.159
132.293
129.442
126.61
123.799
121.011
118.249
115.514
112.81
110.138
107.5
104.897
102.332
99.8058
97.3202
94.8764
92.4759
90.1201
87.8104
85.5482
83.335
81.1727
79.0634
77.0093
75.0136
73.0797
71.2119
69.4152
67.6947
66.0553
64.4964
63.0231
25.4479
9.40632
6.53429
5.6633
5.38312
5.3601
5.47897
5.6898
5.96767
6.29894
6.67581
7.09385
7.55073
8.04558
8.57856
9.15068
9.76358
10.4194
11.1209
11.8709
12.6728
13.5302
14.4466
15.4261
16.4725
17.59
18.7826
20.0543
21.4088
22.8496
24.3806
26.005
27.7262
29.5471
31.4704
33.4983
35.6327
37.8754
40.2272
42.689
45.261
47.943
50.7343
53.6336
56.6395
59.7497
62.9618
66.2727
69.6789
73.1766
76.7616
80.4293
84.1747
87.9927
91.8778
95.8246
99.8276
103.881
107.975
112.105
116.263
120.445
124.643
128.853
133.067
137.28
141.486
145.679
149.851
153.977
158.051
162.066
166.017
169.897
173.702
177.425
181.062
184.608
188.057
191.407
194.652
197.789
200.815
203.725
206.515
209.183
211.725
214.141
216.428
218.583
220.605
222.492
224.243
225.858
227.334
228.671
229.869
230.928
231.846
232.623
233.261
233.759
234.118
234.339
234.423
234.37
234.182
233.86
233.406
232.821
232.108
231.267
230.302
229.215
228.008
226.684
225.246
223.695
222.037
220.273
218.407
216.443
214.384
212.234
209.996
207.675
205.274
202.798
200.251
197.637
194.96
192.226
189.437
186.599
183.716
180.793
177.833
174.841
171.823
168.78
165.719
162.644
159.558
156.465
153.37
150.276
147.188
144.108
141.041
137.989
134.956
131.944
128.955
125.994
123.061
120.16
117.293
114.461
111.667
108.912
106.198
103.527
100.9
98.318
95.7834
93.2971
90.8604
88.475
86.1422
83.864
81.6422
79.4792
77.3778
75.3413
73.3735
71.4786
69.6608
67.9239
66.2664
64.6937
25.205
9.29883
6.4157
5.52919
5.23343
5.19571
5.30125
5.50051
5.76891
6.09321
6.46598
6.88321
7.34305
7.84513
8.3902
8.97973
9.616
10.3019
11.0408
11.8366
12.6932
13.615
14.6066
15.6727
16.818
18.0473
19.3657
20.7783
22.2878
23.898
25.6132
27.4371
29.3729
31.4234
33.591
35.8776
38.2846
40.8129
43.4629
46.2343
49.1265
52.1382
55.2675
58.5123
61.8697
65.3364
68.9086
72.5821
76.3524
80.2144
84.1628
88.1919
92.2959
96.4685
100.704
104.995
109.335
113.718
118.136
122.581
127.049
131.531
136.022
140.516
145.006
149.488
153.954
158.4
162.794
167.13
171.401
175.602
179.726
183.768
187.722
191.583
195.346
199.006
202.56
206.003
209.33
212.539
215.626
218.587
221.419
224.12
226.686
229.117
231.409
233.56
235.57
237.437
239.16
240.737
242.169
243.453
244.59
245.58
246.423
247.118
247.666
248.067
248.322
248.433
248.399
248.223
247.905
247.448
246.852
246.12
245.254
244.256
243.128
241.873
240.493
238.992
237.373
235.638
233.791
231.835
229.774
227.612
225.353
222.999
220.557
218.029
215.42
212.735
209.978
207.153
204.265
201.319
198.319
195.27
192.176
189.043
185.875
182.676
179.452
176.205
172.942
169.666
166.381
163.092
159.803
156.519
153.241
149.976
146.725
143.493
140.282
137.096
133.937
130.807
127.711
124.649
121.624
118.639
115.694
112.792
109.935
107.124
104.361
101.647
98.9829
96.3709
93.812
91.3076
88.8594
86.4689
84.1382
81.8695
79.6654
77.5289
75.4634
73.4725
71.5596
69.7277
67.9747
66.3067
24.4959
9.0926
6.25423
5.37302
5.07344
5.03007
5.13099
5.32827
5.59846
5.92925
6.31414
6.74999
7.23591
7.77261
8.36221
9.00602
9.70748
10.4706
11.2998
12.1998
13.1757
14.2328
15.3764
16.6119
17.9447
19.3799
20.9226
22.5773
24.3482
26.2387
28.2523
30.392
32.6601
35.0584
37.588
40.2496
43.0431
45.9679
49.0226
52.2056
55.5142
58.9458
62.4967
66.163
69.9404
73.8241
77.8089
81.8893
86.0594
90.3132
94.6443
99.0462
103.512
108.036
112.609
117.226
121.88
126.563
131.269
135.99
140.72
145.454
150.184
154.906
159.614
164.303
168.965
173.566
178.102
182.566
186.953
191.255
195.469
199.588
203.609
207.525
211.334
215.029
218.608
222.066
225.399
228.605
231.681
234.622
237.427
240.093
242.618
244.999
247.234
249.323
251.263
253.053
254.693
256.181
257.517
258.7
259.73
260.607
261.33
261.901
262.319
262.586
262.701
262.666
262.482
262.151
261.674
261.052
260.287
259.382
258.339
257.16
255.847
254.404
252.833
251.137
249.32
247.384
245.334
243.173
240.905
238.533
236.063
233.498
230.842
228.101
225.277
222.377
219.405
216.366
213.263
210.103
206.891
203.63
200.326
196.984
193.608
190.203
186.775
183.327
179.865
176.392
172.913
169.433
165.955
162.484
159.024
155.578
152.15
148.743
145.362
142.008
138.685
135.395
132.14
128.925
125.749
122.617
119.528
116.486
113.493
110.548
107.655
104.814
102.027
99.2945
96.6187
94.0007
91.4419
88.944
86.5088
84.1385
81.8354
79.6023
77.4423
75.3584
73.3534
71.4297
69.5851
67.8262
23.5109
8.88246
6.10365
5.2359
4.94332
4.90773
5.02043
5.23569
5.53187
5.89833
6.33018
6.82587
7.38605
8.01289
8.70965
9.48014
10.3291
11.2617
12.2835
13.4004
14.6183
15.9429
17.3798
18.9343
20.6115
22.4158
24.3511
26.4207
28.6271
30.9721
33.457
36.0823
38.8479
41.7529
44.7959
47.9748
51.2869
54.729
58.2974
61.9879
65.7959
69.7166
73.7446
77.8744
82.1001
86.4159
90.8154
95.2922
99.84
104.452
109.122
113.843
118.608
123.41
128.244
133.101
137.977
142.864
147.756
152.647
157.533
162.406
167.263
172.1
176.913
181.685
186.387
191.016
195.565
200.03
204.406
208.688
212.871
216.951
220.923
224.783
228.527
232.151
235.652
239.027
242.271
245.382
248.357
251.193
253.888
256.44
258.846
261.105
263.214
265.173
266.98
268.633
270.133
271.477
272.666
273.698
274.575
275.295
275.859
276.267
276.519
276.616
276.56
276.35
275.989
275.478
274.817
274.01
273.057
271.962
270.726
269.351
267.842
266.199
264.427
262.529
260.508
258.367
256.11
253.742
251.266
248.686
246.006
243.232
240.367
237.416
234.385
231.277
228.097
224.852
221.544
218.181
214.766
211.305
207.802
204.263
200.693
197.097
193.479
189.844
186.196
182.541
178.883
175.227
171.575
167.934
164.306
160.695
157.106
153.541
150.004
146.498
143.025
139.589
136.192
132.837
129.525
126.259
123.041
119.872
116.754
113.689
110.678
107.722
104.823
101.982
99.1994
96.4777
93.8179
91.2216
88.6905
86.2267
83.8322
81.5097
79.2619
77.0914
75.0004
72.9912
71.0613
69.2183
22.335
8.6265
5.96053
5.13063
4.8664
4.86283
5.01669
5.28585
5.65177
6.10675
6.64881
7.27929
8.00163
8.82063
9.74193
10.7716
11.9161
13.1818
14.5746
16.1004
17.7642
19.5703
21.5223
23.6226
25.8731
28.2745
30.8265
33.5283
36.3778
39.3725
42.5092
45.7841
49.193
52.7311
56.3934
60.1747
64.0695
68.0721
72.1767
76.3774
80.6683
85.0435
89.4969
94.0227
98.6147
103.267
107.974
112.73
117.528
122.363
127.229
132.12
137.032
141.957
146.891
151.829
156.764
161.693
166.61
171.512
176.393
181.251
186.082
190.885
195.633
200.305
204.897
209.407
213.829
218.16
222.395
226.53
230.562
234.485
238.297
241.994
245.572
249.028
252.359
255.561
258.631
261.567
264.366
267.026
269.544
271.918
274.146
276.226
278.156
279.936
281.563
283.037
284.356