/*--------------------------------*- C++ -*----------------------------------*\
| =========                 |                                                 |
| \\      /  F ield         | OpenFOAM: The Open Source CFD Toolbox           |
|  \\    /   O peration     | Version:  2412                                  |
|   \\  /    A nd           | Website:  www.openfoam.com                      |
|    \\/     M anipulation  |                                                 |
\*---------------------------------------------------------------------------*/
FoamFile
{
    version     2.0;
    format      ascii;
    arch        "LSB;label=32;scalar=64";
    class       volScalarField;
    location    "0.21";
    object      k;
}
// * * * * * * * * * * * * * * * * * * * * * * * * * * * * * * * * * * * * * //

dimensions      [0 2 -2 0 0 0 0];

internalField   nonuniform List<scalar> 
12225
(
0.316793
0.394493
0.477906
0.542615
0.593831
0.634378
0.666731
0.692787
0.713888
0.73105
0.745053
0.756491
0.765815
0.773366
0.779401
0.784054
0.787443
0.790416
0.569139
0.788914
0.952582
1.068
1.1512
1.2127
1.25817
1.29171
1.31631
1.33412
1.34671
1.35526
1.36067
1.36364
1.36474
1.36429
1.36351
1.36143
0.670061
0.972154
1.18323
1.33202
1.43945
1.51861
1.57693
1.61969
1.65077
1.67302
1.68851
1.69879
1.70509
1.70831
1.70923
1.70843
1.70694
1.70492
0.722108
1.07674
1.32651
1.50447
1.63403
1.72971
1.80042
1.85243
1.89038
1.91766
1.93679
1.94967
1.95776
1.9622
1.96393
1.96374
1.96263
1.96115
0.74277
1.1292
1.41224
1.61818
1.77022
1.88337
1.96762
2.03016
2.07624
2.10979
2.13374
2.15033
2.16126
2.16791
2.17137
2.17259
2.17261
2.17207
0.739913
1.13776
1.44637
1.67819
1.85304
1.98505
2.08466
2.15963
2.21576
2.25741
2.28789
2.30975
2.32498
2.33515
2.34153
2.34521
2.34722
2.34819
0.719619
1.1088
1.43132
1.68401
1.88028
2.03176
2.14827
2.23764
2.30593
2.35779
2.39684
2.42592
2.44724
2.46257
2.47336
2.48081
2.48594
2.4893
0.68764
1.05045
1.37182
1.63646
1.84972
2.01923
2.1529
2.25789
2.34006
2.4041
2.45378
2.4921
2.52146
2.5438
2.5607
2.57346
2.58307
2.59
0.648984
0.972375
1.27661
1.54078
1.76292
1.9459
2.09469
2.21483
2.31142
2.38881
2.45063
2.4999
2.53907
2.57019
2.5949
2.61456
2.63014
2.64201
0.607482
0.884083
1.15746
1.40738
1.62722
1.81569
1.97443
2.10671
2.21624
2.30654
2.38081
2.4418
2.49188
2.53302
2.5669
2.59483
2.61776
2.63588
0.565817
0.793316
1.02683
1.25028
1.45564
1.63913
1.79962
1.93802
2.05629
2.15677
2.24185
2.31376
2.37451
2.4259
2.46943
2.50635
2.5375
2.56285
0.528744
0.71209
0.905174
1.09645
1.27866
1.44747
1.60041
1.73671
1.85681
1.96186
2.05327
2.1326
2.20136
2.26096
2.31268
2.35755
2.39625
2.42843
0.494651
0.637267
0.790576
0.946979
1.10075
1.24801
1.38598
1.513
1.62842
1.73234
1.8253
1.90808
1.98162
2.04686
2.10472
2.15598
2.20106
2.23932
0.460674
0.562141
0.67314
0.78967
0.90789
1.02493
1.13845
1.24666
1.34839
1.44303
1.53037
1.61048
1.68367
1.75033
1.81092
1.86585
1.91526
1.95817
0.429344
0.492745
0.562795
0.638285
0.717343
0.798305
0.879675
0.9601
1.03848
1.11401
1.18613
1.25449
1.31893
1.37937
1.43587
1.48847
1.53702
1.58031
0.403167
0.435382
0.470974
0.510049
0.552183
0.596847
0.643463
0.69139
0.739982
0.788658
0.836923
0.88437
0.930672
0.975574
1.01888
1.06043
1.09993
1.1363
0.384082
0.394608
0.40648
0.41989
0.434842
0.451295
0.469187
0.488408
0.508797
0.53017
0.552333
0.575092
0.598252
0.621604
0.644966
0.668176
0.691029
0.712984
0.374047
0.373709
0.374089
0.375205
0.377036
0.379558
0.38276
0.386627
0.391137
0.396261
0.401964
0.408207
0.414947
0.422156
0.429793
0.437801
0.446112
0.454618
0.376606
0.378924
0.38199
0.385852
0.390485
0.395854
0.401923
0.408647
0.415969
0.423821
0.432133
0.440835
0.449854
0.459124
0.468579
0.478158
0.487786
0.497244
0.394948
0.417781
0.442959
0.470559
0.500301
0.531822
0.564734
0.598603
0.632984
0.667456
0.701655
0.735269
0.768046
0.799788
0.830347
0.859614
0.887465
0.913496
0.427771
0.489068
0.556233
0.628018
0.702586
0.778295
0.853712
0.927578
0.998884
1.0669
1.13116
1.19138
1.24746
1.2994
1.3473
1.39131
1.43158
1.46816
0.475741
0.594975
0.723613
0.855985
0.987204
1.11395
1.23383
1.34524
1.44737
1.53999
1.6233
1.69778
1.76403
1.82274
1.8746
1.9203
1.96047
1.99561
0.536847
0.728697
0.92863
1.12374
1.30643
1.47305
1.62184
1.75258
1.86613
1.96395
2.04772
2.11912
2.17974
2.23104
2.27433
2.31074
2.34125
2.3667
0.604142
0.873971
1.14017
1.3824
1.59448
1.77606
1.92885
2.05586
2.16065
2.24662
2.3168
2.37383
2.41994
2.45699
2.48655
2.50989
2.52809
2.5421
0.668315
1.00766
1.31643
1.57533
1.7871
1.95803
2.09449
2.20267
2.28801
2.35499
2.40721
2.44757
2.4784
2.50157
2.51857
2.53059
2.53861
2.5435
0.717304
1.09919
1.41419
1.65889
1.84812
1.99399
2.10592
2.19145
2.2565
2.30557
2.34216
2.36896
2.38806
2.40109
2.40934
2.41381
2.41532
2.41459
0.735718
1.11862
1.40734
1.61983
1.77772
1.89573
1.98396
2.04967
2.09826
2.13377
2.15921
2.17689
2.18853
2.19548
2.19879
2.19926
2.19754
2.19422
0.7082
1.04716
1.29075
1.46557
1.59175
1.68428
1.75245
1.80244
1.83877
1.86478
1.88294
1.89507
1.90256
1.90646
1.90759
1.90659
1.90395
1.90014
0.616922
0.862574
1.0489
1.18265
1.27674
1.34491
1.39483
1.43126
1.45766
1.47655
1.48974
1.49855
1.50399
1.50683
1.50767
1.50697
1.50507
1.50239
0.33327
0.408788
0.496175
0.564091
0.616604
0.657438
0.689397
0.714705
0.734939
0.751226
0.764414
0.775148
0.783923
0.791121
0.797042
0.801923
0.805941
0.809272
0.00712783
0.0114439
0.0147341
0.0173194
0.0193079
0.0209259
0.0227223
0.0246502
0.0266576
0.0287679
0.0310336
0.0335886
0.0368399
0.0405965
0.0447081
0.0491307
0.0538596
0.0589022
0.0642631
0.0699398
0.0759222
0.0821945
0.0887373
0.0955301
0.102554
0.109792
0.117235
0.12488
0.132735
0.14082
0.149173
0.157699
0.166335
0.175066
0.18388
0.192765
0.201714
0.210719
0.219774
0.228871
0.238007
0.247176
0.256373
0.265596
0.274838
0.284097
0.293368
0.302646
0.311927
0.321206
0.330477
0.339737
0.348979
0.358197
0.367386
0.376539
0.385651
0.394715
0.403724
0.412672
0.421551
0.430357
0.439081
0.447717
0.456259
0.464699
0.473031
0.48125
0.489349
0.497325
0.505175
0.512899
0.520506
0.528012
0.535454
0.542773
0.549906
0.556857
0.563629
0.570221
0.576627
0.582843
0.588866
0.59469
0.60031
0.605723
0.610924
0.61591
0.620676
0.62522
0.629538
0.633627
0.637485
0.641109
0.644497
0.647647
0.650557
0.653225
0.655651
0.657831
0.659767
0.661456
0.662899
0.664095
0.665043
0.665743
0.666196
0.666402
0.666362
0.666075
0.665543
0.664767
0.663748
0.662488
0.660988
0.659251
0.657278
0.655072
0.652635
0.649971
0.647082
0.643971
0.640643
0.637101
0.633349
0.629392
0.625233
0.620879
0.616333
0.611601
0.606689
0.601603
0.596348
0.59093
0.585357
0.579634
0.573769
0.567769
0.561637
0.555396
0.54903
0.542587
0.536115
0.529977
0.525826
0.522222
0.518572
0.514837
0.511015
0.507111
0.503129
0.499076
0.494956
0.490775
0.486539
0.482254
0.477925
0.473557
0.469157
0.464731
0.460282
0.455818
0.451343
0.446861
0.442378
0.437898
0.433423
0.428956
0.424498
0.420049
0.415604
0.411154
0.406686
0.402171
0.397562
0.392764
0.387574
0.381471
0.37357
0.362923
0.015106
0.0238743
0.0317437
0.0381721
0.0439947
0.0498304
0.0555634
0.0614297
0.0676103
0.0742315
0.0813112
0.0888223
0.0967298
0.104972
0.113501
0.122297
0.131359
0.140695
0.150318
0.160242
0.17048
0.181043
0.191943
0.203187
0.214781
0.22673
0.239033
0.251686
0.264684
0.278015
0.291662
0.305604
0.319821
0.3343
0.349024
0.363979
0.379152
0.394529
0.410098
0.425846
0.441764
0.457841
0.474067
0.490434
0.506933
0.523556
0.540293
0.557137
0.574079
0.591109
0.608219
0.625399
0.642639
0.659929
0.677257
0.694612
0.711983
0.729358
0.746724
0.76407
0.781382
0.798648
0.815854
0.832988
0.850036
0.866986
0.883825
0.900539
0.917116
0.933544
0.949811
0.965903
0.981808
0.997513
1.01293
1.02799
1.04278
1.05732
1.07159
1.08558
1.09929
1.11271
1.12583
1.13863
1.15111
1.16325
1.17505
1.1865
1.19758
1.20829
1.21863
1.22858
1.23814
1.2473
1.25605
1.26438
1.2723
1.2798
1.28687
1.2935
1.2997
1.30546
1.31077
1.31563
1.32005
1.324
1.32751
1.33055
1.33314
1.33526
1.33693
1.33813
1.33886
1.33914
1.33896
1.33831
1.3372
1.33564
1.33362
1.33115
1.32824
1.32487
1.32106
1.31682
1.31215
1.30705
1.30153
1.2956
1.28926
1.28252
1.27539
1.26788
1.26
1.25176
1.24316
1.23422
1.22496
1.21537
1.20546
1.19529
1.18478
1.17406
1.16317
1.15218
1.14136
1.13049
1.11945
1.10824
1.09687
1.08533
1.07366
1.06186
1.04994
1.03793
1.02582
1.01364
1.0014
0.989106
0.976777
0.964423
0.952057
0.93969
0.927332
0.914995
0.90269
0.890424
0.878208
0.866048
0.853951
0.841921
0.829959
0.818064
0.806228
0.794438
0.782665
0.770872
0.758955
0.746797
0.732897
0.717668
0.0222544
0.0379778
0.0497889
0.0590388
0.0673443
0.0750556
0.0827215
0.0906542
0.0990239
0.107894
0.117246
0.127025
0.137166
0.147616
0.158348
0.169361
0.180675
0.192323
0.204346
0.216782
0.229667
0.24303
0.256891
0.271263
0.28615
0.301544
0.317433
0.333798
0.350612
0.367848
0.385476
0.403464
0.421784
0.440412
0.459322
0.478493
0.497904
0.517539
0.537382
0.557417
0.577634
0.598021
0.618568
0.639265
0.660104
0.681075
0.70217
0.72338
0.744697
0.766109
0.787608
0.809182
0.830821
0.852513
0.874245
0.896005
0.917778
0.939552
0.961312
0.983043
1.00473
1.02636
1.04791
1.06937
1.09072
1.11196
1.13305
1.15399
1.17477
1.19536
1.21576
1.23594
1.25591
1.27564
1.29504
1.31412
1.33289
1.35133
1.36944
1.38722
1.40463
1.42167
1.43832
1.45458
1.47042
1.48584
1.50082
1.51535
1.52942
1.54302
1.55614
1.56876
1.58088
1.59249
1.60358
1.61414
1.62417
1.63366
1.6426
1.65099
1.65882
1.66609
1.67279
1.67891
1.68446
1.68943
1.69382
1.69763
1.70085
1.70348
1.70552
1.70698
1.70784
1.70812
1.70781
1.70691
1.70543
1.70337
1.70072
1.69751
1.69372
1.68936
1.68444
1.67897
1.67295
1.66639
1.6593
1.65168
1.64355
1.63491
1.62578
1.61616
1.60607
1.59552
1.58452
1.57309
1.56124
1.54899
1.53631
1.52334
1.51002
1.49641
1.48254
1.46848
1.45434
1.44005
1.42556
1.41085
1.39595
1.38085
1.36558
1.35015
1.33459
1.3189
1.30311
1.28722
1.27127
1.25526
1.2392
1.22313
1.20704
1.19096
1.17489
1.15886
1.14288
1.12695
1.11109
1.09532
1.07963
1.06405
1.04857
1.0332
1.01795
1.00281
0.987776
0.972859
0.958042
0.943367
0.928384
0.91286
0.0285716
0.0525397
0.0677668
0.07921
0.0889426
0.0980285
0.107021
0.116242
0.12587
0.135974
0.146552
0.157566
0.168971
0.180738
0.19286
0.205356
0.218261
0.23162
0.245477
0.259875
0.274846
0.290411
0.306581
0.323355
0.340721
0.358661
0.377147
0.396151
0.415637
0.435572
0.455922
0.476655
0.497742
0.519156
0.540872
0.56287
0.585132
0.60764
0.63038
0.65334
0.676508
0.699873
0.723428
0.747161
0.771065
0.795131
0.81935
0.843713
0.868208
0.892827
0.917557
0.942388
0.967305
0.992297
1.01735
1.04244
1.06757
1.0927
1.11784
1.14295
1.16802
1.19303
1.21797
1.24281
1.26754
1.29214
1.31659
1.34087
1.36496
1.38886
1.41253
1.43596
1.45915
1.48204
1.50459
1.52678
1.54862
1.57009
1.59116
1.61184
1.63209
1.65191
1.67127
1.69017
1.70857
1.72648
1.74387
1.76074
1.77705
1.79282
1.80801
1.82263
1.83665
1.85008
1.86289
1.87509
1.88665
1.89758
1.90787
1.91751
1.92649
1.93481
1.94246
1.94944
1.95575
1.96138
1.96633
1.97059
1.97417
1.97706
1.97926
1.98078
1.98161
1.98175
1.98121
1.97998
1.97807
1.97548
1.97222
1.9683
1.9637
1.95845
1.95255
1.946
1.93882
1.93101
1.92259
1.91355
1.90392
1.89371
1.88292
1.87157
1.85968
1.84725
1.83432
1.82086
1.80694
1.79259
1.77781
1.76263
1.74708
1.73117
1.71496
1.69849
1.68182
1.66494
1.64783
1.63048
1.61291
1.59512
1.57715
1.559
1.54069
1.52225
1.50369
1.48504
1.46631
1.44753
1.4287
1.40985
1.39099
1.37215
1.35333
1.33456
1.31585
1.29722
1.27868
1.26024
1.24192
1.22373
1.20568
1.18779
1.17006
1.15252
1.13518
1.11808
1.10129
1.08493
1.06895
1.05332
0.033696
0.0659282
0.0841587
0.0972819
0.10835
0.118545
0.128488
0.138544
0.148923
0.159733
0.171009
0.182752
0.194951
0.207602
0.220717
0.234322
0.248454
0.263153
0.278457
0.294395
0.310988
0.328244
0.346162
0.36473
0.383928
0.403731
0.424108
0.445028
0.466457
0.488362
0.510712
0.533477
0.55663
0.580147
0.604007
0.62819
0.65268
0.677461
0.702521
0.727847
0.753428
0.779254
0.805316
0.831605
0.85811
0.884823
0.911733
0.93883
0.966102
0.993537
1.02112
1.04884
1.07669
1.10464
1.13268
1.16079
1.18895
1.21715
1.24536
1.27356
1.30174
1.32986
1.35792
1.38588
1.41373
1.44144
1.46899
1.49636
1.52353
1.55047
1.57717
1.60361
1.62976
1.65556
1.68099
1.70603
1.73066
1.75486
1.77863
1.80194
1.82476
1.84709
1.8689
1.89017
1.91089
1.93103
1.95059
1.96954
1.98787
2.00556
2.02261
2.03899
2.0547
2.06973
2.08406
2.09768
2.11059
2.12277
2.13422
2.14493
2.1549
2.16411
2.17257
2.18026
2.18719
2.19335
2.19874
2.20336
2.2072
2.21026
2.21254
2.21405
2.21478
2.21474
2.21392
2.21234
2.20998
2.20687
2.20299
2.19837
2.193
2.18689
2.18005
2.17248
2.16421
2.15523
2.14556
2.13521
2.1242
2.11253
2.10021
2.08729
2.07375
2.0596
2.04492
2.0297
2.01396
1.99773
1.98103
1.96388
1.94631
1.92835
1.91004
1.89142
1.87252
1.85337
1.83396
1.81428
1.79437
1.77422
1.75387
1.73333
1.71262
1.69178
1.67081
1.64974
1.6286
1.6074
1.58615
1.5649
1.54364
1.5224
1.50121
1.48007
1.45901
1.43805
1.41719
1.39646
1.37588
1.35546
1.33522
1.31517
1.29535
1.27578
1.2565
1.23759
1.21916
1.20138
1.18434
1.16817
0.0384132
0.0770532
0.0978046
0.112592
0.124888
0.136034
0.146731
0.157397
0.16829
0.179561
0.191291
0.203522
0.216276
0.229572
0.243433
0.257886
0.272963
0.288694
0.305104
0.322212
0.340026
0.358545
0.37776
0.397654
0.418207
0.439391
0.461179
0.483541
0.506447
0.529869
0.55378
0.578153
0.602966
0.628198
0.653829
0.679842
0.706223
0.732957
0.760031
0.787435
0.815157
0.843186
0.871514
0.900128
0.929019
0.958177
0.987588
1.01724
1.04712
1.07722
1.10751
1.13799
1.16863
1.19942
1.23034
1.26136
1.29247
1.32363
1.35484
1.38605
1.41726
1.44843
1.47953
1.51055
1.54145
1.5722
1.60279
1.63319
1.66336
1.69329
1.72295
1.75231
1.78136
1.81
1.83822
1.86601
1.89335
1.92021
1.94658
1.97242
1.99773
2.02247
2.04663
2.07018
2.09311
2.11539
2.13701
2.15795
2.17819
2.19772
2.21652
2.23457
2.25187
2.2684
2.28415
2.29911
2.31327
2.32662
2.33915
2.35085
2.36172
2.37174
2.38093
2.38926
2.39675
2.40337
2.40914
2.41404
2.41809
2.42127
2.42358
2.42504
2.42563
2.42537
2.42425
2.42228
2.41946
2.41579
2.41129
2.40597
2.39982
2.39285
2.38508
2.37651
2.36717
2.35705
2.34617
2.33454
2.32219
2.30912
2.29533
2.28089
2.2658
2.25008
2.23375
2.21683
2.19936
2.18135
2.16282
2.14381
2.12434
2.10444
2.08415
2.0635
2.04253
2.02126
1.9997
1.97786
1.95576
1.93342
1.91086
1.88811
1.86518
1.84211
1.81891
1.79561
1.77223
1.74879
1.72533
1.70185
1.67838
1.65495
1.63156
1.60825
1.58503
1.56193
1.53896
1.51614
1.49349
1.47103
1.4488
1.4268
1.40508
1.38368
1.36266
1.34212
1.32218
1.30305
1.28486
1.26777
0.0449523
0.0861068
0.108779
0.124919
0.138249
0.150205
0.161542
0.172719
0.184031
0.195667
0.207749
0.220354
0.233532
0.247318
0.261743
0.276835
0.29262
0.309118
0.326347
0.344314
0.363021
0.382463
0.402628
0.423499
0.445058
0.46728
0.490141
0.513618
0.537685
0.56232
0.587498
0.613201
0.639407
0.666099
0.693262
0.720879
0.748937
0.777423
0.806326
0.835633
0.865334
0.895418
0.925874
0.95669
0.987854
1.01935
1.05118
1.0833
1.11572
1.14842
1.18137
1.21456
1.24796
1.28156
1.31533
1.34924
1.38328
1.4174
1.45159
1.48582
1.52005
1.55426
1.58842
1.62249
1.65644
1.69025
1.72388
1.7573
1.79048
1.82339
1.85601
1.88829
1.9202
1.95167
1.98267
2.01319
2.04321
2.07269
2.10162
2.12997
2.15772
2.18483
2.2113
2.23709
2.26218
2.28655
2.31019
2.33306
2.35516
2.37647
2.39697
2.41664
2.43547
2.45345
2.47056
2.4868
2.50215
2.51661
2.53016
2.54279
2.55451
2.5653
2.57516
2.58408
2.59206
2.5991
2.6052
2.61035
2.61455
2.61781
2.62012
2.62148
2.62191
2.62139
2.61994
2.61755
2.61424
2.61001
2.60487
2.59882
2.59188
2.58405
2.57535
2.56577
2.55536
2.54411
2.53203
2.51913
2.50546
2.49103
2.47585
2.45995
2.44335
2.42607
2.40814
2.38958
2.37042
2.35067
2.33038
2.30957
2.28826
2.26649
2.24428
2.22169
2.19873
2.17544
2.15183
2.12793
2.10375
2.07932
2.05466
2.0298
2.00476
1.97956
1.95424
1.92882
1.90333
1.87778
1.85221
1.82663
1.80107
1.77556
1.75011
1.72475
1.6995
1.67438
1.64941
1.62462
1.60004
1.57567
1.55157
1.52775
1.50425
1.48115
1.4585
1.43642
1.41504
1.39457
1.37512
1.35682
0.0506678
0.0929515
0.117029
0.134222
0.148393
0.161037
0.172938
0.184578
0.196275
0.208245
0.22064
0.23356
0.247077
0.261241
0.276089
0.29165
0.307946
0.324993
0.342803
0.361379
0.380721
0.400823
0.421674
0.44326
0.465566
0.488574
0.512265
0.53662
0.561621
0.587251
0.61349
0.640324
0.667736
0.695713
0.72424
0.753306
0.782897
0.813003
0.843611
0.874711
0.906291
0.93834
0.970844
1.00379
1.03717
1.07096
1.10515
1.13973
1.17466
1.20994
1.24554
1.28143
1.3176
1.35402
1.39065
1.42747
1.46445
1.50156
1.53876
1.57602
1.6133
1.65058
1.68781
1.72496
1.76199
1.79886
1.83555
1.87201
1.90821
1.94412
1.97969
2.01491
2.04968
2.08396
2.11773
2.15097
2.18365
2.21573
2.2472
2.27803
2.30819
2.33765
2.36638
2.39437
2.42159
2.44801
2.47362
2.49838
2.52229
2.54533
2.56747
2.58871
2.60902
2.6284
2.64683
2.66429
2.68079
2.6963
2.71081
2.72433
2.73684
2.74834
2.75883
2.76829
2.77672
2.78413
2.79052
2.79587
2.80019
2.80348
2.80574
2.80698
2.8072
2.80639
2.80458
2.80175
2.79793
2.79311
2.7873
2.78051
2.77276
2.76406
2.75442
2.74382
2.73234
2.71996
2.7067
2.69258
2.67763
2.66186
2.64529
2.62795
2.60987
2.59106
2.57156
2.55138
2.53057
2.50913
2.48712
2.46454
2.44144
2.41784
2.39379
2.3693
2.34443
2.31919
2.29361
2.26772
2.24154
2.2151
2.18842
2.16153
2.13446
2.10723
2.07988
2.05243
2.02491
1.99734
1.96975
1.94217
1.91461
1.88711
1.85969
1.83237
1.80518
1.77814
1.75128
1.72462
1.69818
1.67201
1.64612
1.62057
1.5954
1.57067
1.54646
1.5229
1.50012
1.4783
1.45752
1.43787
0.0554173
0.0977065
0.122717
0.140679
0.155505
0.168719
0.181114
0.193177
0.205238
0.217528
0.230212
0.24341
0.257205
0.27166
0.286817
0.302708
0.319356
0.336777
0.35498
0.37397
0.393746
0.414306
0.435642
0.457746
0.480608
0.504215
0.528556
0.553619
0.57939
0.605857
0.63301
0.660835
0.689323
0.718461
0.748241
0.778651
0.80968
0.84132
0.873558
0.906383
0.939784
0.973749
1.00826
1.04331
1.07888
1.11495
1.1515
1.18852
1.22597
1.26384
1.3021
1.34072
1.37967
1.41893
1.45845
1.49821
1.53816
1.57828
1.61851
1.65883
1.69919
1.73956
1.77988
1.82012
1.86024
1.9002
1.93995
1.97945
2.01867
2.05757
2.0961
2.13422
2.17183
2.20891
2.24542
2.28135
2.31665
2.3513
2.38527
2.41853
2.45105
2.48281
2.51376
2.5439
2.57318
2.60159
2.62911
2.6557
2.68136
2.70607
2.72979
2.75253
2.77426
2.79497
2.81464
2.83327
2.85085
2.86735
2.88278
2.89712
2.91036
2.92252
2.93357
2.94351
2.95235
2.96008
2.9667
2.9722
2.9766
2.97988
2.98206
2.98313
2.9831
2.98198
2.97977
2.97647
2.97211
2.96667
2.96017
2.95263
2.94406
2.93448
2.92389
2.91231
2.89977
2.88627
2.87185
2.85651
2.84028
2.82319
2.80525
2.7865
2.76696
2.74665
2.7256
2.70385
2.68141
2.65833
2.63462
2.61033
2.58549
2.56011
2.53425
2.50794
2.48121
2.45409
2.42661
2.39881
2.3707
2.34232
2.3137
2.28486
2.25584
2.22666
2.19736
2.16796
2.13849
2.10898
2.07946
2.04995
2.02049
1.99109
1.96178
1.93259
1.90354
1.87467
1.84599
1.81754
1.78934
1.76143
1.73385
1.70664
1.67986
1.65357
1.62787
1.60286
1.57869
1.55551
1.53336
1.51233
0.0592013
0.100602
0.126131
0.144605
0.159908
0.17357
0.186378
0.198817
0.211212
0.223799
0.236747
0.250186
0.264208
0.278881
0.294256
0.310368
0.327244
0.344902
0.363354
0.382608
0.402669
0.423537
0.445211
0.46769
0.490969
0.515044
0.539909
0.565559
0.591988
0.61919
0.647158
0.675886
0.705367
0.735594
0.76656
0.798257
0.830675
0.863807
0.897641
0.932166
0.96737
1.00324
1.03976
1.07691
1.11467
1.15303
1.19196
1.23144
1.27143
1.31192
1.35287
1.39424
1.43601
1.47813
1.52057
1.56329
1.60623
1.64938
1.69266
1.73605
1.77949
1.82294
1.86635
1.90968
1.95287
1.99589
2.03868
2.0812
2.12341
2.16526
2.20671
2.24767
2.28807
2.32788
2.36707
2.40561
2.44347
2.48061
2.517
2.55262
2.58742
2.62138
2.65447
2.68666
2.71792
2.74823
2.77756
2.8059
2.83321
2.85949
2.88471
2.90886
2.93191
2.95387
2.97471
2.99442
3.01299
3.03041
3.04666
3.06175
3.07566
3.08839
3.09994
3.11031
3.11949
3.12748
3.13427
3.13988
3.14429
3.14752
3.14957
3.15043
3.15012
3.14864
3.146
3.14221
3.13728
3.13121
3.12402
3.11573
3.10634
3.09588
3.08435
3.07178
3.05819
3.04359
3.02801
3.01146
2.99398
2.97559
2.95631
2.93617
2.91519
2.89342
2.87086
2.84757
2.82356
2.79887
2.77353
2.74757
2.72103
2.69394
2.66634
2.63826
2.60974
2.58081
2.55151
2.52187
2.49191
2.46168
2.43119
2.40049
2.3696
2.33855
2.30738
2.27612
2.24479
2.21343
2.18207
2.15072
2.11943
2.08821
2.0571
2.02613
1.99531
1.96469
1.93428
1.90412
1.87424
1.84468
1.81548
1.78668
1.75836
1.73057
1.70342
1.67701
1.65147
1.62692
1.6034
1.58096
0.0620564
0.101898
0.127605
0.146367
0.161984
0.175971
0.189105
0.201855
0.214538
0.227384
0.240563
0.254204
0.268404
0.283236
0.298757
0.315008
0.332019
0.349815
0.368413
0.387827
0.408068
0.429142
0.451058
0.473818
0.497429
0.521891
0.547207
0.573379
0.600408
0.628293
0.657033
0.686628
0.717074
0.748369
0.780508
0.813484
0.847292
0.881923
0.917366
0.95361
0.990641
1.02844
1.067
1.10629
1.14629
1.18697
1.22832
1.2703
1.31287
1.35601
1.39968
1.44383
1.48844
1.53344
1.57881
1.62449
1.67044
1.7166
1.76292
1.80936
1.85585
1.90235
1.94881
1.99517
2.04138
2.08739
2.13315
2.17861
2.22371
2.26843
2.31269
2.35637
2.39945
2.44188
2.48363
2.52466
2.56495
2.60445
2.64313
2.68096
2.71791
2.75394
2.78903
2.82314
2.85625
2.88832
2.91934
2.94928
2.97812
3.00585
3.03243
3.05787
3.08213
3.10521
3.1271
3.14778
3.16725
3.18548
3.20247
3.21821
3.23269
3.24591
3.25788
3.26858
3.27802
3.2862
3.29312
3.29876
3.30314
3.30625
3.30812
3.30873
3.3081
3.30623
3.30314
3.29883
3.29332
3.28661
3.27872
3.26967
3.25946
3.24812
3.23566
3.22211
3.20748
3.1918
3.17508
3.15736
3.13865
3.11899
3.0984
3.07691
3.05454
3.03134
3.00733
2.98255
2.95702
2.93078
2.90386
2.8763
2.84813
2.8194
2.79013
2.76036
2.73013
2.69948
2.66844
2.63705
2.60533
2.57333
2.54108
2.5086
2.47594
2.44312
2.41018
2.37715
2.34406
2.31094
2.27783
2.24474
2.21172
2.17879
2.14597
2.1133
2.08081
2.04852
2.01647
1.98469
1.95322
1.92209
1.89134
1.86104
1.83124
1.80202
1.77347
1.7457
1.71881
1.69292
1.66803
1.64419
0.0640303
0.101852
0.127467
0.146335
0.162122
0.17632
0.189686
0.202673
0.215586
0.228644
0.24201
0.255812
0.270148
0.285094
0.30071
0.317044
0.334132
0.352006
0.370691
0.390207
0.410574
0.431806
0.45392
0.476927
0.50084
0.52567
0.551427
0.578118
0.605752
0.634334
0.663869
0.69436
0.725808
0.758215
0.791577
0.82589
0.861149
0.897345
0.934466
0.9725
1.01143
1.05124
1.0919
1.1334
1.1757
1.21878
1.2626
1.30713
1.35233
1.39816
1.44458
1.49153
1.53898
1.58687
1.63516
1.68378
1.73269
1.78182
1.83112
1.88053
1.93
1.97945
2.02885
2.07812
2.12722
2.17609
2.22467
2.27292
2.32078
2.3682
2.41506
2.46129
2.50686
2.55171
2.59583
2.63916
2.68168
2.72334
2.76411
2.80397
2.84286
2.88077
2.91767
2.95352
2.98828
3.02193
3.05445
3.08581
3.116
3.145
3.17279
3.19935
3.22466
3.24872
3.27151
3.29302
3.31325
3.33217
3.34976
3.36603
3.38097
3.39458
3.40686
3.41781
3.42742
3.4357
3.44265
3.44826
3.45254
3.45549
3.45713
3.45745
3.45647
3.45419
3.45062
3.44577
3.43967
3.43231
3.42371
3.41389
3.40287
3.39067
3.37729
3.36277
3.34713
3.33039
3.31257
3.2937
3.27381
3.25292
3.23106
3.20828
3.18458
3.16002
3.13461
3.1084
3.08142
3.0537
3.02529
2.99621
2.9665
2.9362
2.90535
2.87399
2.84215
2.80987
2.77719
2.74416
2.71079
2.67713
2.64321
2.60908
2.57475
2.54027
2.50567
2.47098
2.43624
2.40148
2.36672
2.33201
2.29736
2.26281
2.2284
2.19414
2.16008
2.12623
2.09264
2.05934
2.02636
1.99375
1.96155
1.92982
1.89863
1.86804
1.83815
1.80906
1.78086
1.75365
1.72742
1.70223
0.0651704
0.100699
0.126021
0.144854
0.160694
0.175001
0.188511
0.201661
0.21474
0.227958
0.241469
0.255397
0.269839
0.284872
0.30056
0.316957
0.334106
0.352047
0.370811
0.390431
0.410932
0.43234
0.454679
0.477971
0.502236
0.527494
0.553761
0.581054
0.609385
0.638764
0.669203
0.700707
0.733282
0.766929
0.801648
0.837435
0.874284
0.912184
0.951122
0.991081
1.03204
1.07398
1.11687
1.16069
1.20539
1.25094
1.29731
1.34445
1.39232
1.44086
1.49003
1.53978
1.59005
1.64078
1.69191
1.7434
1.79517
1.84717
1.89931
1.95155
2.00382
2.05605
2.10819
2.16017
2.21194
2.26344
2.31462
2.36542
2.41578
2.46562
2.51481
2.56331
2.61108
2.65809
2.70429
2.74964
2.7941
2.83764
2.88023
2.92182
2.9624
3.00192
3.04037
3.0777
3.11386
3.14884
3.18262
3.21517
3.24648
3.27653
3.30531
3.33278
3.35895
3.38379
3.40729
3.42945
3.45026
3.46969
3.48774
3.50441
3.51968
3.53356
3.54605
3.55713
3.56683
3.57512
3.58203
3.58753
3.59165
3.59439
3.59575
3.59573
3.59436
3.59163
3.58756
3.58217
3.57545
3.56743
3.55813
3.54756
3.53573
3.52267
3.50841
3.49295
3.47633
3.45856
3.43969
3.41972
3.3987
3.37664
3.35359
3.32957
3.30461
3.27876
3.25204
3.22449
3.19615
3.16705
3.13723
3.10673
3.07558
3.04382
3.0115
2.97866
2.94532
2.91154
2.87735
2.84279
2.80789
2.7727
2.73725
2.70157
2.66571
2.6297
2.59357
2.55735
2.52108
2.4848
2.44853
2.41231
2.37617
2.34013
2.30424
2.26851
2.23299
2.1977
2.16268
2.12797
2.09359
2.05961
2.02605
1.99299
1.96048
1.9286
1.89744
1.86709
1.83764
1.80916
1.78164
1.75515
0.0655161
0.0986442
0.123532
0.142228
0.158033
0.172368
0.185948
0.199195
0.212387
0.225722
0.239349
0.253386
0.267929
0.283057
0.298838
0.31533
0.332584
0.350648
0.369563
0.389369
0.410103
0.431799
0.454492
0.478211
0.502987
0.528846
0.555814
0.583912
0.613154
0.643556
0.675129
0.707883
0.741825
0.776957
0.813278
0.85078
0.889456
0.92929
0.970264
1.01236
1.05554
1.09979
1.14507
1.19133
1.23855
1.28667
1.33565
1.38544
1.43599
1.48723
1.53911
1.59158
1.64457
1.69801
1.75185
1.80602
1.86046
1.91511
1.96987
2.02467
2.07946
2.13417
2.18873
2.2431
2.29721
2.351
2.40441
2.4574
2.50989
2.56172
2.61285
2.66323
2.71282
2.76158
2.80948
2.85646
2.90249
2.94754
2.99157
3.03454
3.07643
3.1172
3.15683
3.19528
3.23251
3.26851
3.30325
3.33671
3.36887
3.39971
3.42921
3.45736
3.48415
3.50956
3.53357
3.55618
3.57738
3.59715
3.61549
3.63239
3.64785
3.66186
3.67442
3.68554
3.6952
3.70342
3.71019
3.71551
3.7194
3.72185
3.72288
3.72248
3.72068
3.71748
3.71288
3.70692
3.69959
3.69091
3.68091
3.66959
3.65698
3.64311
3.62798
3.61162
3.59407
3.57534
3.55546
3.53446
3.51237
3.48923
3.46506
3.43989
3.41377
3.38672
3.35879
3.33001
3.30041
3.27004
3.23893
3.20713
3.17467
3.14159
3.10793
3.07373
3.03904
3.00389
2.96832
2.93238
2.8961
2.85952
2.82268
2.78562
2.74837
2.71097
2.67345
2.63585
2.59821
2.56056
2.52292
2.48534
2.44784
2.41045
2.37322
2.33616
2.29932
2.26272
2.2264
2.19039
2.15474
2.11949
2.08469
2.0504
2.01667
1.9836
1.95125
1.91971
1.88907
1.85939
1.83064
1.80291
0.0650994
0.0958559
0.120221
0.138716
0.15443
0.168739
0.182341
0.195645
0.208921
0.222359
0.236106
0.250277
0.264967
0.280261
0.29623
0.312936
0.330437
0.348789
0.368043
0.388249
0.409453
0.431699
0.455028
0.47948
0.505093
0.531899
0.559935
0.589233
0.619787
0.651612
0.684724
0.719135
0.754848
0.791861
0.830169
0.869759
0.910615
0.952715
0.996032
1.04054
1.08619
1.13296
1.18079
1.22965
1.27948
1.33022
1.38183
1.43424
1.48739
1.54122
1.59567
1.65067
1.70615
1.76205
1.81829
1.87482
1.93155
1.98842
2.04536
2.10229
2.15915
2.21588
2.27241
2.32868
2.38463
2.44021
2.49536
2.55003
2.60403
2.65733
2.70987
2.76161
2.81251
2.86252
2.9116
2.95972
3.00684
3.05292
3.09793
3.14183
3.1846
3.2262
3.2666
3.30578
3.3437
3.38035
3.41569
3.44971
3.48238
3.5137
3.54364
3.57218
3.59931
3.62502
3.6493
3.67213
3.69351
3.71342
3.73186
3.74882
3.76429
3.77828
3.79078
3.80179
3.81131
3.81933
3.82587
3.83093
3.83451
3.83661
3.83725
3.83643
3.83416
3.83045
3.82532
3.81877
3.81083
3.8015
3.79081
3.77878
3.76542
3.75076
3.73482
3.71762
3.6992
3.67957
3.65877
3.63682
3.61376
3.58962
3.56443
3.53823
3.51105
3.48293
3.4539
3.42401
3.39329
3.36179
3.32953
3.29657
3.26294
3.22868
3.19384
3.15845
3.12256
3.0862
3.04943
3.01227
2.97478
2.93698
2.89892
2.86064
2.82217
2.78356
2.74482
2.70601
2.66716
2.6283
2.58946
2.55068
2.51198
2.47341
2.43499
2.39676
2.35874
2.32097
2.2835
2.24634
2.20955
2.17317
2.13725
2.10184
2.06701
2.03284
1.99939
1.96676
1.93501
1.9042
1.87432
1.84543
0.0638725
0.0922976
0.116118
0.134393
0.150002
0.164273
0.177891
0.19126
0.204646
0.218239
0.232186
0.246604
0.261597
0.277256
0.293667
0.310876
0.328954
0.347967
0.367977
0.389042
0.411217
0.434553
0.459097
0.484894
0.511982
0.540398
0.570169
0.60132
0.633863
0.667805
0.703153
0.739906
0.778058
0.817597
0.858504
0.900756
0.944323
0.98917
1.03526
1.08254
1.13098
1.18052
1.2311
1.28267
1.33516
1.38853
1.4427
1.4976
1.55318
1.60937
1.66609
1.72327
1.78086
1.83878
1.89696
1.95533
2.01383
2.07238
2.13092
2.18937
2.24768
2.30579
2.36362
2.42114
2.47828
2.53499
2.5912
2.64675
2.70159
2.75566
2.80894
2.86136
2.9129
2.96351
3.01315
3.06178
3.10938
3.15591
3.20132
3.2456
3.28871
3.33062
3.3713
3.41074
3.44888
3.48573
3.52125
3.55542
3.58822
3.61963
3.64964
3.67824
3.70539
3.7311
3.75535
3.77813
3.79942
3.81923
3.83754
3.85434
3.86963
3.8834
3.89566
3.9064
3.91563
3.92333
3.92952
3.93419
3.93736
3.93903
3.9392
3.93788
3.93509
3.93083
3.92512
3.91796
3.90939
3.89941
3.88804
3.8753
3.86121
3.84579
3.82907
3.81108
3.79183
3.77136
3.7497
3.72688
3.70292
3.67787
3.65176
3.62462
3.59649
3.56741
3.53741
3.50653
3.47482
3.44231
3.40905
3.37507
3.34041
3.30512
3.26924
3.23282
3.19588
3.15848
3.12066
3.08245
3.0439
3.00505
2.96594
2.92661
2.88709
2.84742
2.80763
2.76778
2.72788
2.68797
2.64809
2.60827
2.56854
2.52893
2.48948
2.45022
2.41118
2.37239
2.3339
2.29573
2.25793
2.22054
2.18361
2.14721
2.11139
2.07622
2.04177
2.00813
1.97535
1.9435
1.91255
1.8826
0.0621508
0.0885626
0.111813
0.129888
0.145414
0.15968
0.173367
0.186883
0.200499
0.214414
0.22878
0.243727
0.259362
0.275786
0.293085
0.311336
0.330614
0.35099
0.372531
0.395299
0.419351
0.444738
0.471503
0.499685
0.529315
0.560416
0.593004
0.627087
0.662663
0.699725
0.738258
0.778242
0.819649
0.862449
0.906602
0.952067
0.998796
1.04674
1.09585
1.14606
1.19731
1.24956
1.30272
1.35675
1.41157
1.46713
1.52335
1.58018
1.63754
1.69537
1.7536
1.81218
1.87103
1.93008
1.98929
2.04857
2.10788
2.16714
2.2263
2.28529
2.34406
2.40255
2.46072
2.5185
2.57587
2.63272
2.6889
2.74438
2.79911
2.85306
2.90617
2.95842
3.00976
3.06015
3.10957
3.15796
3.20531
3.25157
3.29672
3.34072
3.38354
3.42517
3.46556
3.5047
3.54255
3.5791
3.61432
3.6482
3.6807
3.71181
3.74152
3.7698
3.79665
3.82204
3.84597
3.86842
3.88939
3.90886
3.92682
3.94327
3.95819
3.9716
3.98347
3.99382
4.00264
4.00992
4.01568
4.0199
4.02261
4.0238
4.02348
4.02166