/*--------------------------------*- C++ -*----------------------------------*\
| =========                 |                                                 |
| \\      /  F ield         | OpenFOAM: The Open Source CFD Toolbox           |
|  \\    /   O peration     | Version:  2412                                  |
|   \\  /    A nd           | Website:  www.openfoam.com                      |
|    \\/     M anipulation  |                                                 |
\*---------------------------------------------------------------------------*/
FoamFile
{
    version     2.0;
    format      ascii;
    arch        "LSB;label=32;scalar=64";
    class       volScalarField;
    location    "0.21";
    object      nut;
}
// * * * * * * * * * * * * * * * * * * * * * * * * * * * * * * * * * * * * * //

dimensions      [0 2 -1 0 0 0 0];

internalField   nonuniform List<scalar> 
12225
(
2.015e-05
2.24858e-05
2.47491e-05
2.63714e-05
2.7588e-05
2.85143e-05
2.92323e-05
2.97981e-05
3.02485e-05
3.06099e-05
3.09017e-05
3.1138e-05
3.13293e-05
3.14833e-05
3.16059e-05
3.17002e-05
3.17686e-05
3.18285e-05
0.000167792
0.000185428
0.000202597
0.000213787
0.000221145
0.000225984
0.000229001
0.00023072
0.000231514
0.000231643
0.000231292
0.000230594
0.00022965
0.000228531
0.000227295
0.00022597
0.000224708
0.000224072
0.000338328
0.000365994
0.000399361
0.000424407
0.000442779
0.000456138
0.000465649
0.000472248
0.000476657
0.000479409
0.000480905
0.000481447
0.000481264
0.000480529
0.000479376
0.000477903
0.000476299
0.000475462
0.000480632
0.000521771
0.000570122
0.00060839
0.000637802
0.000660209
0.000677098
0.000689691
0.000698952
0.000705624
0.000710279
0.000713359
0.000715206
0.000716086
0.000716208
0.000715738
0.00071491
0.000714433
0.00059357
0.000650967
0.00071349
0.000763785
0.000803283
0.000834122
0.000858088
0.000876629
0.000890895
0.000901783
0.000909997
0.000916087
0.000920489
0.000923545
0.00092553
0.000926669
0.000927217
0.000927686
0.000684418
0.000756656
0.00083195
0.000893053
0.000941625
0.000980103
0.00101056
0.00103466
0.00105369
0.0010687
0.00108048
0.00108966
0.00109677
0.00110221
0.0011063
0.00110932
0.00111153
0.00111331
0.000759756
0.000842839
0.000928291
0.000998647
0.00105522
0.00110054
0.00113687
0.00116606
0.00118953
0.00120842
0.00122362
0.00123583
0.00124563
0.00125348
0.00125974
0.00126473
0.0012687
0.00127194
0.000823625
0.000913364
0.00100525
0.00108261
0.00114578
0.00119702
0.00123857
0.00127237
0.00129992
0.00132243
0.00134086
0.00135597
0.00136839
0.00137861
0.00138703
0.00139399
0.00139973
0.00140448
0.000877003
0.000970915
0.0010653
0.00114672
0.00121456
0.00127046
0.0013164
0.00135421
0.00138542
0.00141126
0.00143271
0.00145058
0.00146551
0.00147804
0.00148859
0.0014975
0.001505
0.00151124
0.000918257
0.00101593
0.00110995
0.00119241
0.00126253
0.0013214
0.00137055
0.00141157
0.00144587
0.00147463
0.00149882
0.00151925
0.00153658
0.00155134
0.00156396
0.00157478
0.00158401
0.00159172
0.000944751
0.00104624
0.0011388
0.00122006
0.00129015
0.00135004
0.0014009
0.00144402
0.0014806
0.0015117
0.00153823
0.00156093
0.00158045
0.0015973
0.0016119
0.00162458
0.0016355
0.00164466
0.000953929
0.00105647
0.00114713
0.00122621
0.00129479
0.00135413
0.00140528
0.0014493
0.00148719
0.00151986
0.0015481
0.00157258
0.00159388
0.0016125
0.00162882
0.00164313
0.00165557
0.00166603
0.000951545
0.0010519
0.00114069
0.00121792
0.00128482
0.0013429
0.00139336
0.00143724
0.00147545
0.00150878
0.00153794
0.00156353
0.00158606
0.00160597
0.00162361
0.00163924
0.00165294
0.00166449
0.000937266
0.00102693
0.00110962
0.00118333
0.00124793
0.00130434
0.00135362
0.00139676
0.00143464
0.00146801
0.00149751
0.0015237
0.00154703
0.00156788
0.00158657
0.00160331
0.00161813
0.00163065
0.000914066
0.000982517
0.00105
0.00111402
0.00117277
0.00122567
0.00127281
0.00131463
0.00135169
0.00138462
0.00141397
0.00144024
0.00146385
0.00148515
0.00150443
0.00152187
0.00153747
0.0015507
0.000888182
0.000929365
0.000972528
0.00101672
0.00106057
0.0011029
0.00114292
0.00118012
0.00121428
0.00124544
0.00127375
0.00129946
0.00132282
0.00134409
0.00136349
0.00138118
0.00139716
0.00141083
0.000866165
0.000882904
0.000901458
0.000921826
0.000943712
0.00096672
0.000990422
0.00101437
0.00103814
0.00106136
0.00108378
0.00110519
0.00112549
0.0011446
0.0011625
0.00117921
0.00119467
0.00120843
0.000853647
0.000856464
0.000860483
0.000865724
0.000872137
0.000879657
0.000888215
0.00089772
0.000908061
0.000919106
0.000930717
0.000942753
0.000955078
0.000967567
0.000980099
0.000992557
0.00100482
0.00101666
0.000856837
0.000863039
0.000870433
0.000879024
0.0008887
0.000899306
0.000910675
0.000922622
0.000934953
0.000947481
0.00096004
0.00097249
0.00098472
0.000996644
0.00100821
0.00101936
0.00103005
0.00104005
0.000879014
0.000910092
0.000943004
0.000977098
0.00101138
0.00104493
0.00107707
0.00110731
0.00113535
0.0011611
0.00118458
0.00120589
0.00122518
0.00124264
0.00125844
0.00127273
0.00128564
0.00129723
0.000912427
0.000978632
0.00104329
0.00110415
0.00115969
0.00120945
0.00125358
0.00129251
0.00132676
0.0013569
0.00138344
0.00140685
0.00142754
0.00144587
0.00146212
0.00147657
0.00148942
0.00150097
0.000944652
0.00103937
0.00112414
0.00119816
0.00126209
0.00131726
0.00136492
0.0014061
0.00144171
0.00147255
0.00149929
0.00152252
0.00154273
0.00156034
0.00157571
0.00158914
0.0016009
0.00161124
0.000952969
0.00105495
0.00114494
0.00122286
0.00128968
0.00134681
0.00139548
0.00143685
0.001472
0.0015019
0.00152736
0.00154908
0.00156764
0.00158351
0.00159711
0.00160878
0.00161878
0.00162734
0.000919762
0.00101577
0.00110711
0.00118655
0.00125366
0.00130983
0.00135663
0.00139556
0.001428
0.00145508
0.00147772
0.00149669
0.0015126
0.00152595
0.00153716
0.00154657
0.00155444
0.00156098
0.000847919
0.000936212
0.00102591
0.00110193
0.0011644
0.00121544
0.00125709
0.00129112
0.00131899
0.00134186
0.00136065
0.00137609
0.00138878
0.0013992
0.00140773
0.00141469
0.00142033
0.00142481
0.000748241
0.000825344
0.000905837
0.000972006
0.00102523
0.00106796
0.00110226
0.00112982
0.00115199
0.00116982
0.00118415
0.00119563
0.00120479
0.00121206
0.00121778
0.00122223
0.00122561
0.00122806
0.000620838
0.000679397
0.000743804
0.000795903
0.000837071
0.000869522
0.000895046
0.000915072
0.000930739
0.00094294
0.000952377
0.000959601
0.000965048
0.000969064
0.000971927
0.000973857
0.000975027
0.000975555
0.000453206
0.00049108
0.000536513
0.000572228
0.000599359
0.000619977
0.000635559
0.00064722
0.000655839
0.000662099
0.000666519
0.0006695
0.000671354
0.000672325
0.000672602
0.000672337
0.000671646
0.000670629
0.00023657
0.000259231
0.000284033
0.000301437
0.000313162
0.000321244
0.000326756
0.000330375
0.000332603
0.000333805
0.000334244
0.000334113
0.000333559
0.00033269
0.00033159
0.000330323
0.00032894
0.000327502
2.7242e-05
3.0171e-05
3.32398e-05
3.54417e-05
3.70547e-05
3.8262e-05
3.9181e-05
3.98937e-05
4.04544e-05
4.09002e-05
4.12577e-05
4.15463e-05
4.17808e-05
4.19722e-05
4.2129e-05
4.22578e-05
4.23635e-05
4.2451e-05
5.00492e-06
1.35417e-05
1.53598e-05
1.66464e-05
1.75691e-05
1.82829e-05
1.90425e-05
1.98251e-05
2.06075e-05
2.13982e-05
2.22148e-05
2.31002e-05
2.41795e-05
2.53711e-05
2.66129e-05
2.78856e-05
2.91834e-05
3.05049e-05
3.1848e-05
3.32092e-05
3.45839e-05
3.59668e-05
3.73527e-05
3.87369e-05
4.01156e-05
4.14862e-05
4.28475e-05
4.41997e-05
4.55448e-05
4.68866e-05
4.82314e-05
4.95639e-05
5.08754e-05
5.21649e-05
5.34322e-05
5.46773e-05
5.59005e-05
5.71021e-05
5.82823e-05
5.94418e-05
6.0581e-05
6.17003e-05
6.28002e-05
6.38812e-05
6.49436e-05
6.59879e-05
6.70144e-05
6.80233e-05
6.90149e-05
6.99893e-05
7.09467e-05
7.18872e-05
7.28109e-05
7.37177e-05
7.46077e-05
7.54808e-05
7.6337e-05
7.71762e-05
7.79983e-05
7.88033e-05
7.9591e-05
8.03612e-05
8.1114e-05
8.1849e-05
8.25663e-05
8.32657e-05
8.39471e-05
8.46104e-05
8.52556e-05
8.58827e-05
8.64919e-05
8.70837e-05
8.76592e-05
8.822e-05
8.87695e-05
8.93031e-05
8.98159e-05
9.03088e-05
9.07822e-05
9.12364e-05
9.16714e-05
9.20871e-05
9.24835e-05
9.28606e-05
9.32183e-05
9.35565e-05
9.38753e-05
9.41745e-05
9.44542e-05
9.47143e-05
9.49549e-05
9.51759e-05
9.53774e-05
9.55593e-05
9.57218e-05
9.58648e-05
9.59884e-05
9.60926e-05
9.61775e-05
9.62432e-05
9.62896e-05
9.63169e-05
9.63251e-05
9.63143e-05
9.62845e-05
9.62359e-05
9.61686e-05
9.60826e-05
9.5978e-05
9.58549e-05
9.57134e-05
9.55537e-05
9.53758e-05
9.51799e-05
9.4966e-05
9.47344e-05
9.44851e-05
9.42183e-05
9.39342e-05
9.36329e-05
9.33146e-05
9.29796e-05
9.26279e-05
9.22598e-05
9.18755e-05
9.14753e-05
9.10594e-05
9.06281e-05
9.01815e-05
8.97201e-05
8.9244e-05
8.87537e-05
8.82494e-05
8.77314e-05
8.72001e-05
8.66559e-05
8.60992e-05
8.55304e-05
8.49495e-05
8.43581e-05
8.3755e-05
8.31436e-05
8.25275e-05
8.19346e-05
8.14935e-05
8.10937e-05
8.06895e-05
8.02774e-05
7.98575e-05
7.943e-05
7.89952e-05
7.85535e-05
7.81054e-05
7.76512e-05
7.71912e-05
7.6726e-05
7.62559e-05
7.57814e-05
7.53029e-05
7.48207e-05
7.43353e-05
7.38471e-05
7.33565e-05
7.28639e-05
7.23697e-05
7.1874e-05
7.13773e-05
7.08797e-05
7.03813e-05
6.98819e-05
6.93814e-05
6.88789e-05
6.83731e-05
6.78619e-05
6.73409e-05
6.68022e-05
6.6228e-05
6.55732e-05
6.47596e-05
6.37e-05
7.28669e-06
3.28898e-05
6.50917e-05
9.01902e-05
0.000107809
0.000120226
0.00012771
0.000132676
0.000136867
0.000140987
0.000145164
0.000149297
0.000153279
0.000157189
0.000161129
0.000165187
0.000169446
0.000173979
0.000178851
0.000184112
0.000189799
0.000195937
0.000202534
0.000209589
0.000217089
0.000225009
0.000233317
0.000241976
0.000250942
0.000260174
0.000269638
0.000279315
0.000289185
0.00029922
0.000309394
0.000319681
0.00033006
0.00034051
0.000351015
0.000361559
0.000372131
0.000382721
0.000393321
0.000403924
0.000414525
0.00042512
0.000435705
0.000446276
0.00045683
0.000467364
0.000477875
0.000488359
0.000498813
0.000509234
0.000519616
0.000529956
0.000540249
0.000550491
0.000560676
0.0005708
0.000580857
0.000590842
0.00060075
0.000610576
0.000620314
0.000629958
0.000639503
0.000648943
0.000658269
0.000667469
0.000676528
0.000685423
0.00069412
0.000702568
0.000710545
0.000718041
0.000725343
0.000732496
0.000739507
0.000746376
0.000753101
0.00075968
0.00076611
0.000772389
0.000778514
0.000784484
0.000790297
0.000795949
0.00080144
0.000806768
0.000811931
0.000816928
0.000821758
0.000826418
0.000830909
0.000835229
0.000839376
0.000843352
0.000847153
0.000850781
0.000854234
0.000857511
0.000860613
0.000863538
0.000866286
0.000868858
0.000871252
0.000873468
0.000875507
0.000877367
0.000879048
0.000880551
0.000881876
0.000883021
0.000883988
0.000884777
0.000885386
0.000885818
0.000886072
0.000886147
0.000886046
0.000885768
0.000885315
0.000884686
0.000883883
0.000882907
0.000881758
0.00088044
0.000878952
0.000877296
0.000875475
0.00087349
0.000871343
0.000869037
0.000866574
0.000863956
0.000861189
0.000858274
0.000855209
0.000852012
0.000848677
0.000845171
0.000841416
0.000837076
0.000831251
0.000824661
0.000817777
0.000810728
0.000803559
0.000796288
0.000788927
0.000781487
0.000773974
0.000766396
0.000758758
0.000751068
0.00074333
0.00073555
0.000727735
0.00071989
0.00071202
0.00070413
0.000696226
0.000688312
0.000680393
0.000672473
0.000664557
0.000656647
0.000648746
0.000640857
0.000632978
0.000625109
0.000617244
0.000609372
0.000601473
0.000593507
0.000585373
0.00057681
0.000564208
0.000540751
8.84505e-06
5.2972e-05
0.000107403
0.000149126
0.000178492
0.00019806
0.000211271
0.000220806
0.000228567
0.000235691
0.00024275
0.000249982
0.000257494
0.000265372
0.000273711
0.000282608
0.000292168
0.000302489
0.000313656
0.000325737
0.000338775
0.000352788
0.00036777
0.000383693
0.000400509
0.000418153
0.000436551
0.000455621
0.000475279
0.000495445
0.000516046
0.000537016
0.000558294
0.000579824
0.000601553
0.000623436
0.000645436
0.00066752
0.000689661
0.000711838
0.000734032
0.00075623
0.000778421
0.000800595
0.000822745
0.000844864
0.000866945
0.000888984
0.000910974
0.000932909
0.000954782
0.000976587
0.000998314
0.00101996
0.00104151
0.00106295
0.00108428
0.00110549
0.00112656
0.00114748
0.00116824
0.00118883
0.00120923
0.00122944
0.00124943
0.0012692
0.00128872
0.00130798
0.00132695
0.00134562
0.00136395
0.00138191
0.00139946
0.00141655
0.00143298
0.00144892
0.00146451
0.00147979
0.00149475
0.00150941
0.00152375
0.00153778
0.00155148
0.00156486
0.00157791
0.00159061
0.00160298
0.001615
0.00162666
0.00163798
0.00164893
0.00165953
0.00166976
0.00167962
0.00168912
0.00169824
0.00170699
0.00171537
0.00172337
0.00173099
0.00173823
0.00174508
0.00175156
0.00175765
0.00176336
0.00176868
0.00177362
0.00177817
0.00178234
0.00178611
0.0017895
0.0017925
0.00179512
0.00179734
0.00179918
0.00180063
0.0018017
0.00180237
0.00180267
0.00180257
0.0018021
0.00180124
0.0018
0.00179838
0.00179639
0.00179402
0.00179128
0.00178818
0.00178471
0.00178088
0.00177669
0.00177216
0.00176728
0.00176205
0.0017565
0.00175062
0.00174441
0.00173791
0.0017311
0.00172399
0.00171659
0.00170882
0.00170053
0.00169141
0.00168084
0.00166925
0.00165705
0.00164446
0.00163157
0.00161842
0.00160505
0.00159148
0.00157774
0.00156382
0.00154975
0.00153554
0.0015212
0.00150675
0.0014922
0.00147756
0.00146284
0.00144805
0.0014332
0.00141831
0.00140338
0.00138842
0.00137345
0.00135846
0.00134347
0.00132848
0.00131348
0.00129848
0.00128346
0.00126838
0.0012532
0.0012378
0.00122192
0.00120486
0.00118322
0.0011461
1.00227e-05
7.18134e-05
0.000142074
0.000195357
0.000232971
0.000259266
0.00027802
0.000292196
0.000303947
0.000314698
0.00032531
0.000336263
0.000347823
0.000360156
0.00037339
0.000387638
0.000403002
0.000419572
0.000437416
0.000456575
0.000477062
0.000498857
0.000521918
0.000546174
0.000571539
0.000597915
0.000625194
0.00065327
0.000682037
0.000711394
0.000741251
0.000771525
0.000802142
0.000833035
0.000864146
0.000895428
0.000926838
0.00095834
0.000989907
0.00102151
0.00105314
0.00108478
0.0011164
0.001148
0.00117957
0.0012111
0.00124258
0.00127399
0.00130534
0.0013366
0.00136777
0.00139883
0.00142977
0.00146059
0.00149126
0.00152176
0.00155209
0.00158223
0.00161215
0.00164185
0.0016713
0.00170048
0.00172938
0.00175798
0.00178625
0.00181417
0.00184172
0.00186889
0.00189563
0.00192193
0.00194776
0.00197309
0.00199789
0.00202208
0.00204561
0.0020686
0.00209111
0.00211317
0.00213479
0.00215597
0.0021767
0.00219697
0.00221678
0.00223613
0.002255
0.00227339
0.00229128
0.00230869
0.00232559
0.00234199
0.00235788
0.00237325
0.0023881
0.00240243
0.00241623
0.0024295
0.00244224
0.00245443
0.00246609
0.00247721
0.00248778
0.00249781
0.00250728
0.00251621
0.00252458
0.00253241
0.00253967
0.00254639
0.00255254
0.00255814
0.00256318
0.00256766
0.00257159
0.00257495
0.00257776
0.00258
0.00258169
0.00258282
0.0025834
0.00258341
0.00258288
0.00258179
0.00258015
0.00257796
0.00257523
0.00257196
0.00256815
0.00256381
0.00255894
0.00255355
0.00254764
0.00254123
0.00253431
0.0025269
0.00251901
0.00251065
0.00250182
0.00249255
0.00248284
0.00247267
0.00246205
0.00245091
0.00243912
0.00242646
0.00241261
0.00239775
0.00238213
0.00236594
0.0023493
0.00233226
0.00231488
0.00229717
0.00227917
0.00226091
0.0022424
0.00222365
0.0022047
0.00218555
0.00216623
0.00214674
0.00212712
0.00210737
0.00208751
0.00206755
0.00204751
0.00202741
0.00200725
0.00198706
0.00196683
0.00194657
0.0019263
0.00190599
0.00188564
0.0018652
0.00184461
0.00182371
0.00180214
0.00177904
0.00175148
0.00171151
1.0885e-05
8.71931e-05
0.000170381
0.000233567
0.000279265
0.000312193
0.000336481
0.000355378
0.000371284
0.000385869
0.000400222
0.000415014
0.000430651
0.000447382
0.000465373
0.000484744
0.000505581
0.000527944
0.000551866
0.000577347
0.000604359
0.000632848
0.000662734
0.00069392
0.000726297
0.000759748
0.000794153
0.000829398
0.000865369
0.000901964
0.000939086
0.000976651
0.00101458
0.00105281
0.00109128
0.00112993
0.00116873
0.00120764
0.00124663
0.00128567
0.00132473
0.0013638
0.00140286
0.0014419
0.0014809
0.00151984
0.00155871
0.0015975
0.00163619
0.00167477
0.00171322
0.00175153
0.00178968
0.00182764
0.00186541
0.00190297
0.00194028
0.00197734
0.00201411
0.00205059
0.00208675
0.00212255
0.00215799
0.00219304
0.00222768
0.00226187
0.00229561
0.00232886
0.00236159
0.00239379
0.00242543
0.0024565
0.00248697
0.00251671
0.0025458
0.00257429
0.00260222
0.0026296
0.00265645
0.00268275
0.00270851
0.00273372
0.00275837
0.00278244
0.00280595
0.00282886
0.00285119
0.00287291
0.00289403
0.00291454
0.00293442
0.00295368
0.00297231
0.0029903
0.00300765
0.00302436
0.00304042
0.00305582
0.00307056
0.00308464
0.00309806
0.00311082
0.0031229
0.00313431
0.00314504
0.0031551
0.00316449
0.00317319
0.00318121
0.00318854
0.00319519
0.00320116
0.00320643
0.00321102
0.00321493
0.00321814
0.00322067
0.0032225
0.00322365
0.00322412
0.0032239
0.003223
0.00322141
0.00321915
0.00321622
0.00321261
0.00320834
0.00320341
0.00319782
0.00319158
0.0031847
0.00317719
0.00316905
0.00316031
0.00315096
0.00314102
0.0031305
0.0031194
0.00310775
0.00309552
0.00308272
0.00306929
0.00305515
0.00304015
0.00302415
0.00300719
0.00298942
0.00297099
0.00295198
0.00293246
0.00291249
0.00289209
0.00287131
0.00285017
0.00282869
0.0028069
0.00278482
0.00276248
0.00273988
0.00271706
0.00269403
0.00267082
0.00264744
0.00262391
0.00260025
0.00257649
0.00255264
0.0025287
0.00250471
0.00248066
0.00245657
0.00243243
0.00240823
0.00238394
0.00235948
0.00233469
0.00230921
0.0022822
0.00225143
0.00221236
1.1621e-05
9.8149e-05
0.000192177
0.000264864
0.000318573
0.000358241
0.000388247
0.00041207
0.00043233
0.000450905
0.000469078
0.000487688
0.000507261
0.000528126
0.000550486
0.000574463
0.000600129
0.000627515
0.000656617
0.000687404
0.000719815
0.000753769
0.000789165
0.000825892
0.000863832
0.000902862
0.000942861
0.000983713
0.00102531
0.00106754
0.00111032
0.00115356
0.00119719
0.00124113
0.00128533
0.00132974
0.00137431
0.001419
0.00146377
0.00150861
0.00155347
0.00159834
0.00164319
0.00168801
0.00173277
0.00177746
0.00182206
0.00186655
0.00191092
0.00195513
0.00199919
0.00204306
0.00208673
0.00213017
0.00217337
0.0022163
0.00225894
0.00230127
0.00234326
0.00238488
0.00242613
0.00246697
0.00250737
0.00254732
0.00258679
0.00262575
0.00266418
0.00270207
0.00273937
0.00277609
0.00281219
0.00284765
0.00288246
0.00291652
0.00294989
0.00298262
0.00301473
0.00304624
0.00307715
0.00310745
0.00313714
0.00316621
0.00319466
0.00322247
0.00324964
0.00327615
0.003302
0.00332718
0.00335169
0.00337551
0.00339863
0.00342105
0.00344277
0.00346377
0.00348406
0.00350362
0.00352245
0.00354054
0.00355789
0.0035745
0.00359036
0.00360547
0.00361982
0.00363342
0.00364625
0.00365832
0.00366962
0.00368015
0.0036899
0.00369888
0.00370709
0.00371451
0.00372116
0.00372702
0.0037321
0.0037364
0.00373991
0.00374264
0.00374459
0.00374575
0.00374613
0.00374573
0.00374455
0.00374259
0.00373986
0.00373637
0.0037321
0.00372709
0.00372131
0.00371479
0.00370754
0.00369955
0.00369084
0.00368142
0.00367131
0.0036605
0.00364903
0.00363688
0.00362408
0.00361061
0.00359648
0.00358165
0.00356608
0.00354966
0.00353233
0.00351411
0.00349507
0.0034753
0.00345488
0.00343387
0.00341232
0.00339026
0.00336774
0.00334478
0.0033214
0.00329765
0.00327353
0.00324907
0.0032243
0.00319925
0.00317393
0.00314836
0.00312258
0.0030966
0.00307044
0.00304413
0.00301769
0.00299114
0.00296449
0.00293777
0.00291098
0.00288414
0.00285723
0.00283023
0.00280308
0.00277564
0.00274759
0.00271822
0.00268594
0.00264847
1.25718e-05
0.000103357
0.000207041
0.000289109
0.000350892
0.000397436
0.000433342
0.000462291
0.000487084
0.000509772
0.000531799
0.000554143
0.00057744
0.000602092
0.000628339
0.000656317
0.00068609
0.000717671
0.000751036
0.000786129
0.000822872
0.000861169
0.00090091
0.000941979
0.000984256
0.00102762
0.00107195
0.00111713
0.00116307
0.00120965
0.00125679
0.0013044
0.00135241
0.00140075
0.00144937
0.0014982
0.0015472
0.00159633
0.00164555
0.00169482
0.00174413
0.00179343
0.0018427
0.00189193
0.00194108
0.00199014
0.00203909
0.00208791
0.00213656
0.00218505
0.00223334
0.00228141
0.00232924
0.0023768
0.00242409
0.00247107
0.00251771
0.00256401
0.00260992
0.00265543
0.00270051
0.00274514
0.00278929
0.00283294
0.00287607
0.00291865
0.00296066
0.00300207
0.00304288
0.00308305
0.00312257
0.00316142
0.00319956
0.00323695
0.00327365
0.00330967
0.00334505
0.00337979
0.00341389
0.00344734
0.00348014
0.00351229
0.00354377
0.00357458
0.00360469
0.00363412
0.00366283
0.00369083
0.00371811
0.00374465
0.00377045
0.0037955
0.00381979
0.00384331
0.00386607
0.00388805
0.00390924
0.00392964
0.00394924
0.00396805
0.00398604
0.00400322
0.00401958
0.00403513
0.00404985
0.00406374
0.0040768
0.00408903
0.00410041
0.00411096
0.00412066
0.00412951
0.00413752
0.00414467
0.00415097
0.00415642
0.00416101
0.00416475
0.00416764
0.00416967
0.00417084
0.00417115
0.00417062
0.00416924
0.00416701
0.00416393
0.00416003
0.00415529
0.00414971
0.00414331
0.0041361
0.00412808
0.00411927
0.00410968
0.00409931
0.00408819
0.00407631
0.00406369
0.00405034
0.00403626
0.00402145
0.00400589
0.00398955
0.00397238
0.00395435
0.00393546
0.00391576
0.00389529
0.00387412
0.00385231
0.00382989
0.00380689
0.00378337
0.00375934
0.00373484
0.00370989
0.00368451
0.00365875
0.00363261
0.00360613
0.00357933
0.00355224
0.00352488
0.00349727
0.00346945
0.00344143
0.00341324
0.0033849
0.00335645
0.00332789
0.00329925
0.00327054
0.00324177
0.00321294
0.003184
0.00315483
0.00312519
0.00309452
0.00306171
0.00302555
1.33478e-05
0.000105885
0.00021688
0.000307185
0.000376562
0.000429827
0.000471641
0.000505793
0.000535207
0.000562058
0.000587915
0.000613866
0.000640641
0.000668709
0.000698355
0.000729737
0.000762924
0.000797927
0.000834713
0.000873217
0.000913355
0.000955025
0.000998117
0.00104251
0.0010881
0.00113475
0.00118236
0.00123082
0.00128002
0.00132988
0.00138029
0.00143118
0.00148247
0.0015341
0.00158601
0.00163814
0.00169044
0.00174287
0.00179539
0.00184796
0.00190054
0.00195312
0.00200566
0.00205814
0.00211053
0.00216281
0.00221496
0.00226695
0.00231877
0.00237039
0.00242179
0.00247296
0.00252386
0.00257447
0.00262478
0.00267475
0.00272438
0.00277362
0.00282246
0.00287087
0.00291883
0.00296631
0.0030133
0.00305976
0.00310567
0.00315101
0.00319575
0.00323989
0.00328339
0.00332624
0.00336842
0.00340992
0.00345065
0.00349067
0.00352998
0.00356863
0.00360662
0.00364395
0.00368063
0.00371664
0.00375198
0.00378665
0.00382062
0.0038539
0.00388647
0.00391831
0.00394942
0.00397979
0.00400941
0.00403826
0.00406634
0.00409364
0.00412015
0.00414586
0.00417076
0.00419484
0.00421811
0.00424054
0.00426214
0.00428289
0.00430279
0.00432184
0.00434003
0.00435735
0.00437381
0.00438939
0.0044041
0.00441792
0.00443085
0.00444289
0.00445403
0.00446428
0.00447364
0.00448209
0.00448964
0.00449627
0.004502
0.00450683
0.00451075
0.00451375
0.00451584
0.00451702
0.0045173
0.00451669
0.00451515
0.00451272
0.00450938
0.00450516
0.00450005
0.00449406
0.00448721
0.00447949
0.00447092
0.00446151
0.00445127
0.00444021
0.00442834
0.00441567
0.00440222
0.00438798
0.00437296
0.00435715
0.00434054
0.00432311
0.00430483
0.00428571
0.00426577
0.00424506
0.00422362
0.00420148
0.00417869
0.00415528
0.00413128
0.00410673
0.00408165
0.00405607
0.00403002
0.00400352
0.0039766
0.0039493
0.00392162
0.00389361
0.00386528
0.00383666
0.00380779
0.00377868
0.00374937
0.00371988
0.00369024
0.00366048
0.00363062
0.00360069
0.00357072
0.0035407
0.00351062
0.00348041
0.00344987
0.0034186
0.00338582
0.00335086
1.39599e-05
0.000106469
0.000222603
0.000319781
0.000396003
0.000455608
0.000503151
0.000542436
0.000576439
0.000607412
0.000637005
0.000666394
0.000696383
0.000727504
0.000760088
0.000794323
0.000830298
0.000868033
0.000907498
0.000948633
0.000991354
0.00103556
0.00108115
0.001128
0.00117601
0.00122507
0.00127505
0.00132587
0.00137742
0.0014296
0.00148234
0.00153555
0.00158916
0.00164311
0.00169732
0.00175176
0.00180636
0.00186109
0.00191589
0.00197075
0.00202562
0.00208047
0.00213527
0.00219
0.00224464
0.00229916
0.00235354
0.00240775
0.00246179
0.00251562
0.00256922
0.00262258
0.00267567
0.00272848
0.00278097
0.00283312
0.00288492
0.00293634
0.00298735
0.00303793
0.00308805
0.00313769
0.00318683
0.00323544
0.00328349
0.00333097
0.00337785
0.00342412
0.00346974
0.0035147
0.00355899
0.00360259
0.00364544
0.00368759
0.00372906
0.00376987
0.00381002
0.00384951
0.00388835
0.00392652
0.00396401
0.00400082
0.00403694
0.00407234
0.00410702
0.00414097
0.00417417
0.00420661
0.00423828
0.00426916
0.00429926
0.00432855
0.00435703
0.00438469
0.00441152
0.0044375
0.00446264
0.00448692
0.00451034
0.00453288
0.00455454
0.00457531
0.00459519
0.00461417
0.00463226
0.00464943
0.0046657
0.00468104
0.00469545
0.00470894
0.0047215
0.00473312
0.00474381
0.00475356
0.00476237
0.00477022
0.00477712
0.00478307
0.0047881
0.00479216
0.00479525
0.0047974
0.00479859
0.00479884
0.00479814
0.00479649
0.00479391
0.00479039
0.00478595
0.00478058
0.0047743
0.00476712
0.00475903
0.00475007
0.00474023
0.00472952
0.00471796
0.00470556
0.00469232
0.00467826
0.00466338
0.00464768
0.00463116
0.0046138
0.00459561
0.00457658
0.00455674
0.00453611
0.00451472
0.00449261
0.00446981
0.00444636
0.00442227
0.00439759
0.00437233
0.00434654
0.00432023
0.00429343
0.00426617
0.00423847
0.00421037
0.00418188
0.00415305
0.00412388
0.00409442
0.0040647
0.00403473
0.00400456
0.00397422
0.00394374
0.00391315
0.00388248
0.00385178
0.00382107
0.00379034
0.00375957
0.00372861
0.00369719
0.00366475
0.0036309
1.44292e-05
0.00010555
0.000224871
0.00032752
0.000409702
0.000475103
0.000528045
0.000572253
0.000610696
0.000645652
0.000678822
0.000711437
0.000744362
0.000778184
0.000813279
0.00084987
0.000888074
0.000927929
0.000969421
0.0010125
0.00105709
0.00110309
0.00115042
0.00119896
0.00124861
0.00129926
0.0013508
0.00140315
0.00145619
0.00150986
0.00156405
0.0016187
0.00167374
0.00172909
0.00178471
0.00184054
0.00189653
0.00195264
0.00200883
0.00206506
0.0021213
0.00217752
0.00223371
0.00228983
0.00234585
0.00240177
0.00245756
0.00251319
0.00256866
0.00262394
0.00267901
0.00273385
0.00278844
0.00284276
0.00289679
0.0029505
0.00300388
0.00305689
0.00310951
0.00316172
0.00321349
0.00326479
0.00331561
0.0033659
0.00341566
0.00346484
0.00351344
0.00356142
0.00360878
0.00365548
0.00370151
0.00374683
0.00379147
0.00383544
0.00387876
0.00392143
0.00396346
0.00400485
0.00404559
0.00408566
0.00412506
0.00416378
0.00420181
0.00423912
0.0042757
0.00431154
0.00434663
0.00438095
0.00441449
0.00444723
0.00447917
0.00451029
0.00454059
0.00457005
0.00459866
0.00462641
0.0046533
0.0046793
0.00470442
0.00472864
0.00475195
0.00477436
0.00479584
0.00481641
0.00483604
0.00485475
0.00487252
0.00488934
0.0049052
0.0049201
0.00493404
0.00494702
0.00495904
0.0049701
0.00498016
0.00498924
0.00499734
0.00500446
0.0050106
0.00501576
0.00501992
0.0050231
0.0050253
0.00502652
0.00502676
0.00502602
0.00502431
0.00502163
0.005018
0.0050134
0.00500786
0.00500138
0.00499398
0.00498565
0.00497641
0.00496627
0.00495524
0.00494333
0.00493056
0.00491692
0.00490244
0.00488711
0.00487094
0.00485393
0.00483608
0.00481739
0.00479788
0.00477758
0.0047565
0.00473468
0.00471214
0.00468891
0.00466503
0.00464051
0.00461538
0.00458968
0.00456342
0.00453664
0.00450936
0.00448162
0.00445342
0.00442481
0.00439581
0.00436646
0.00433677
0.00430678
0.00427653
0.00424604
0.00421536
0.00418452
0.00415356
0.00412253
0.00409147
0.00406042
0.0040294
0.00399842
0.00396738
0.00393609
0.00390416
0.00387132
1.47734e-05
0.000103481
0.000224266
0.000331002
0.000418183
0.00048873
0.00054662
0.000595425
0.000638052
0.000676767
0.000713285
0.000748872
0.000784436
0.000820608
0.000857807
0.000896294
0.000936214
0.000977632
0.00102055
0.00106494
0.00111074
0.00115786
0.00120622
0.00125571
0.00130624
0.00135772
0.00141003
0.0014631
0.00151682
0.00157113
0.00162593
0.00168117
0.00173676
0.00179266
0.00184882
0.00190517
0.00196168
0.00201831
0.00207503
0.0021318
0.0021886
0.0022454
0.00230218
0.00235892
0.0024156
0.00247221
0.00252872
0.00258512
0.00264139
0.00269751
0.00275347
0.00280925
0.00286481
0.00292016
0.00297525
0.00303007
0.0030846
0.0031388
0.00319266
0.00324614
0.00329921
0.00335185
0.00340402
0.00345571
0.00350687
0.00355749
0.00360753
0.00365698
0.00370581
0.003754
0.00380153
0.0038484
0.00389463
0.00394024
0.00398523
0.0040296
0.00407335
0.00411647
0.00415896
0.00420079
0.00424196
0.00428245
0.00432225
0.00436134
0.0043997
0.00443732
0.00447417
0.00451026
0.00454555
0.00458004
0.00461372
0.00464658
0.00467859
0.00470975
0.00474005
0.00476949
0.00479804
0.0048257
0.00485244
0.00487827
0.00490318
0.00492715
0.00495019
0.00497228
0.00499343
0.00501363
0.00503288
0.00505114
0.00506841
0.00508471
0.00510001
0.00511434
0.00512767
0.00514001
0.00515134
0.00516167
0.00517099
0.00517931
0.00518661
0.00519291
0.0051982
0.00520248
0.00520575
0.00520802
0.00520928
0.00520954
0.0052088
0.00520707
0.00520435
0.00520065
0.00519598
0.00519034
0.00518375
0.00517621
0.00516772
0.00515832
0.00514799
0.00513676
0.00512463
0.00511162
0.00509774
0.00508299
0.00506737
0.00505091
0.00503359
0.00501544
0.00499646
0.00497668
0.00495611
0.00493478
0.0049127
0.00488992
0.00486645
0.00484232
0.00481756
0.00479219
0.00476623
0.00473973
0.00471269
0.00468514
0.00465712
0.00462866
0.00459977
0.00457049
0.00454085
0.00451088
0.00448062
0.0044501
0.00441936
0.00438845
0.00435741
0.00432629
0.00429515
0.00426404
0.00423301
0.00420206
0.00417117
0.00414019
0.00410883
0.00407692
1.50069e-05
0.000100558
0.000221314
0.000330806
0.000421984
0.000496942
0.000559236
0.000612216
0.00065868
0.000700842
0.000740409
0.00077866
0.000816529
0.00085468
0.000893568
0.000933489
0.000974619
0.00101705
0.00106081
0.00110588
0.00115222
0.00119976
0.00124842
0.00129812
0.00134876
0.00140026
0.00145252
0.00150547
0.00155903
0.00161311
0.00166766
0.0017226
0.00177788
0.00183346
0.00188929
0.00194532
0.00200152
0.00205787
0.00211433
0.00217088
0.00222751
0.00228419
0.0023409
0.00239764
0.00245438
0.00251111
0.00256782
0.00262448
0.00268109
0.00273763
0.00279408
0.00285041
0.00290661
0.00296266
0.00301852
0.00307418
0.00312961
0.00318477
0.00323964
0.00329418
0.00334836
0.00340215
0.00345552
0.00350843
0.00356085
0.00361275
0.0036641
0.00371487
0.00376503
0.00381457
0.00386349
0.00391183
0.00395958