/*--------------------------------*- C++ -*----------------------------------*\
| =========                 |                                                 |
| \\      /  F ield         | OpenFOAM: The Open Source CFD Toolbox           |
|  \\    /   O peration     | Version:  2412                                  |
|   \\  /    A nd           | Website:  www.openfoam.com                      |
|    \\/     M anipulation  |                                                 |
\*---------------------------------------------------------------------------*/
FoamFile
{
    version     2.0;
    format      ascii;
    arch        "LSB;label=32;scalar=64";
    class       volScalarField;
    location    "0.21";
    object      p;
}
// * * * * * * * * * * * * * * * * * * * * * * * * * * * * * * * * * * * * * //

dimensions      [0 2 -2 0 0 0 0];

internalField   nonuniform List<scalar> 
12225
(
-10.331
-9.73862
-9.07591
-8.51948
-8.01043
-7.55399
-7.15544
-6.80444
-6.49209
-6.21281
-5.96169
-5.73424
-5.52661
-5.33546
-5.15775
-4.98995
-4.82987
-4.66306
-10.7648
-9.7968
-9.11072
-8.56046
-8.05073
-7.59424
-7.19505
-6.84264
-6.52866
-6.24768
-5.99484
-5.76566
-5.55633
-5.3635
-5.1841
-5.01476
-4.85265
-4.69451
-10.9452
-9.83108
-9.15247
-8.61132
-8.10112
-7.64551
-7.24646
-6.893
-6.57747
-6.29471
-6.03992
-5.80872
-5.59736
-5.40253
-5.2212
-5.05019
-4.88666
-4.72553
-10.9691
-9.84679
-9.17715
-8.64528
-8.13778
-7.68502
-7.28784
-6.93494
-6.61925
-6.33589
-6.08017
-5.84787
-5.63532
-5.43932
-5.25693
-5.0854
-4.92147
-4.76428
-10.8989
-9.8415
-9.17744
-8.65606
-8.1556
-7.70777
-7.31414
-6.96344
-6.64906
-6.36637
-6.1109
-5.87857
-5.66586
-5.46974
-5.28742
-5.11669
-4.95419
-4.80487
-10.7571
-9.80837
-9.15395
-8.6452
-8.15637
-7.71574
-7.32727
-6.98027
-6.66845
-6.38754
-6.1333
-5.90185
-5.68988
-5.49455
-5.31332
-5.14449
-4.98489
-4.84411
-10.5545
-9.74193
-9.10771
-8.61352
-8.14079
-7.71014
-7.32857
-6.98677
-6.67877
-6.40068
-6.14859
-5.91889
-5.70848
-5.51479
-5.33553
-5.16951
-5.01376
-4.88128
-10.3016
-9.63959
-9.03952
-8.56157
-8.10877
-7.69134
-7.31862
-6.9836
-6.68073
-6.40655
-6.15756
-5.93046
-5.72245
-5.53119
-5.35474
-5.19226
-5.04102
-4.91642
-10.0091
-9.50106
-8.95054
-8.491
-8.06085
-7.65995
-7.29819
-6.97152
-6.67514
-6.40598
-6.16105
-5.93744
-5.73263
-5.54461
-5.37169
-5.21336
-5.06706
-4.94978
-9.68836
-9.32831
-8.84213
-8.40466
-7.99871
-7.61726
-7.26858
-6.95176
-6.66314
-6.40011
-6.16019
-5.9409
-5.74008
-5.55601
-5.38726
-5.23356
-5.09241
-4.98184
-9.35145
-9.12613
-8.71591
-8.3061
-7.92529
-7.56551
-7.2319
-6.92621
-6.64643
-6.3905
-6.15644
-5.94224
-5.74609
-5.56659
-5.40253
-5.25378
-5.11777
-5.01345
-9.03946
-8.92035
-8.58617
-8.20792
-7.85105
-7.51262
-7.19447
-6.89999
-6.62908
-6.38035
-6.15228
-5.94329
-5.75193
-5.57703
-5.41757
-5.27355
-5.14204
-5.04333
-8.74445
-8.70597
-8.44762
-8.10569
-7.77303
-7.4566
-7.1552
-6.87274
-6.61116
-6.37009
-6.14844
-5.94503
-5.75876
-5.58869
-5.43399
-5.29465
-5.16806
-5.07268
-8.43737
-8.46153
-8.28202
-7.98618
-7.68225
-7.39137
-7.11069
-6.84328
-6.59306
-6.3612
-6.14728
-5.95056
-5.7703
-5.60586
-5.45658
-5.32245
-5.20119
-5.10832
-8.14027
-8.20727
-8.09942
-7.85546
-7.58398
-7.32068
-7.06396
-6.8149
-6.57849
-6.35766
-6.15294
-5.96408
-5.79074
-5.63258
-5.48916
-5.36049
-5.24447
-5.15373
-7.88185
-7.97519
-7.92499
-7.73207
-7.49392
-7.25699
-7.02403
-6.79449
-6.57322
-6.36457
-6.17015
-5.99016
-5.82453
-5.67321
-5.53589
-5.41267
-5.30163
-5.21244
-7.69422
-7.80232
-7.7936
-7.64478
-7.43803
-7.22448
-7.01203
-6.79989
-6.59227
-6.39439
-6.20893
-6.03662
-5.87761
-5.73202
-5.5996
-5.48039
-5.37276
-5.2827
-7.61766
-7.72998
-7.74249
-7.62086
-7.43588
-7.23897
-7.04114
-6.8419
-6.64481
-6.4553
-6.27666
-6.10993
-5.95531
-5.81282
-5.68237
-5.56374
-5.4559
-5.36016
-7.71703
-7.82406
-7.8304
-7.70375
-7.51553
-7.3168
-7.11816
-6.91893
-6.72249
-6.53408
-6.35672
-6.19123
-6.0376
-5.89563
-5.765
-5.645
-5.53538
-5.43298
-7.9933
-8.08772
-8.0543
-7.88274
-7.66117
-7.43846
-7.22008
-7.00474
-6.79641
-6.59961
-6.41623
-6.24631
-6.08939
-5.9449
-5.81213
-5.69
-5.57825
-5.47124
-8.38671
-8.44483
-8.34245
-8.10802
-7.84369
-7.58874
-7.34263
-7.10485
-6.87978
-6.67052
-6.47753
-6.3001
-6.13737
-5.9884
-5.85222
-5.72759
-5.61409
-5.50575
-8.88712
-8.86685
-8.65865
-8.34887
-8.03683
-7.74284
-7.46317
-7.19968
-6.95586
-6.73249
-6.52855
-6.34267
-6.17348
-6.01958
-5.87963
-5.75221
-5.63654
-5.52693
-9.45116
-9.29558
-8.95168
-8.56881
-8.21219
-7.87868
-7.56668
-7.28006
-7.0195
-6.78327
-6.5693
-6.37567
-6.20048
-6.04191
-5.89829
-5.76805
-5.65013
-5.53944
-10.0156
-9.66959
-9.18649
-8.74869
-8.35476
-7.98524
-7.64582
-7.34015
-7.06536
-6.81797
-6.59534
-6.39502
-6.21463
-6.05197
-5.90513
-5.77237
-5.6524
-5.54081
-10.5196
-9.95111
-9.35546
-8.88365
-8.45707
-8.05658
-7.69577
-7.37529
-7.08916
-6.83299
-6.60368
-6.39828
-6.21395
-6.04823
-5.89899
-5.76434
-5.64287
-5.53081
-10.9211
-10.1287
-9.46221
-8.97007
-8.51496
-8.09103
-7.71531
-7.38425
-7.08997
-6.82765
-6.59377
-6.38494
-6.19802
-6.03032
-5.87958
-5.7438
-5.62144
-5.50934
-11.1924
-10.2122
-9.51244
-9.00575
-8.52938
-8.09059
-7.70535
-7.36733
-7.06788
-6.80185
-6.56534
-6.35465
-6.16643
-5.99786
-5.84654
-5.71041
-5.58786
-5.47627
-11.2997
-10.2276
-9.51309
-8.99002
-8.50163
-8.05529
-7.66447
-7.32264
-7.02086
-6.75346
-6.51627
-6.30539
-6.1173
-5.94908
-5.79826
-5.66271
-5.54076
-5.43036
-11.167
-10.1978
-9.47807
-8.93239
-8.43909
-7.99041
-7.59725
-7.25458
-6.95313
-6.68664
-6.45067
-6.24122
-6.05469
-5.88804
-5.73877
-5.60474
-5.48418
-5.37535
-10.6359
-10.1055
-9.43549
-8.87548
-8.38043
-7.93151
-7.5379
-7.19586
-6.89574
-6.6308
-6.39646
-6.18866
-6.00374
-5.83866
-5.69088
-5.55824
-5.43891
-5.33106
-4.72015
-4.71985
-4.72085
-4.72292
-4.72552
-4.72826
-4.73107
-4.73404
-4.73722
-4.74067
-4.74448
-4.74875
-4.75356
-4.75903
-4.76525
-4.77232
-4.78035
-4.78947
-4.7998
-4.81146
-4.82456
-4.83919
-4.85543
-4.87333
-4.8929
-4.9141
-4.93689
-4.96117
-4.98682
-5.01368
-5.04151
-5.07006
-5.09909
-5.12839
-5.15776
-5.18699
-5.21588
-5.24424
-5.27188
-5.29863
-5.32432
-5.3488
-5.37192
-5.39352
-5.41349
-5.43167
-5.44795
-5.4622
-5.4743
-5.48413
-5.49157
-5.49652
-5.49886
-5.49848
-5.49529
-5.48918
-5.48005
-5.46781
-5.45237
-5.43364
-5.41156
-5.38603
-5.35701
-5.32441
-5.28818
-5.24828
-5.20467
-5.1573
-5.10615
-5.05121
-4.99246
-4.92995
-4.86375
-4.79385
-4.72016
-4.64249
-4.56083
-4.47531
-4.38602
-4.29302
-4.19635
-4.09608
-3.99224
-3.8849
-3.77413
-3.65999
-3.54255
-3.42189
-3.2981
-3.17126
-3.04147
-2.90883
-2.77343
-2.63538
-2.4948
-2.35179
-2.20647
-2.05896
-1.90939
-1.75787
-1.60455
-1.44954
-1.29299
-1.13503
-0.975789
-0.815414
-0.654043
-0.491818
-0.328883
-0.165379
-0.0014523
0.162754
0.327094
0.491424
0.6556
0.81948
0.982919
1.14578
1.30792
1.4692
1.62949
1.78866
1.94657
2.1031
2.25813
2.41154
2.56321
2.71303
2.86089
3.0067
3.15036
3.29177
3.43086
3.56755
3.70175
3.83341
3.96246
4.08885
4.21254
4.33349
4.45167
4.56706
4.67964
4.78941
4.89628
5.00019
5.10114
5.19914
5.29423
5.38644
5.47579
5.56231
5.64603
5.72696
5.80516
5.88065
5.95346
6.02363
6.0912
6.15621
6.21871
6.27872
6.33629
6.39147
6.44429
6.4948
6.54305
6.58908
6.63297
6.67478
6.71461
6.7526
6.78892
6.82388
6.85797
6.89202
6.92795
6.9689
7.02673
7.1019
-4.71978
-4.72011
-4.72119
-4.72299
-4.72497
-4.72677
-4.72828
-4.72961
-4.73101
-4.73272
-4.7349
-4.73764
-4.74099
-4.74502
-4.74983
-4.75553
-4.76227
-4.77018
-4.77943
-4.79016
-4.8025
-4.81659
-4.83248
-4.85023
-4.86982
-4.89121
-4.91429
-4.93894
-4.96498
-4.9922
-5.02038
-5.04926
-5.07861
-5.10822
-5.13785
-5.16731
-5.19639
-5.22492
-5.25272
-5.27962
-5.30547
-5.33011
-5.3534
-5.37522
-5.39542
-5.41387
-5.43047
-5.44507
-5.45757
-5.46784
-5.47578
-5.48126
-5.48419
-5.48444
-5.48193
-5.47654
-5.46817
-5.45674
-5.44216
-5.42433
-5.40318
-5.37863
-5.35061
-5.31907
-5.28394
-5.24517
-5.20272
-5.15655
-5.10664
-5.05295
-4.99546
-4.93414
-4.86895
-4.79984
-4.72669
-4.64971
-4.56908
-4.48475
-4.3967
-4.30497
-4.20959
-4.11059
-4.00803
-3.90196
-3.79244
-3.67954
-3.56334
-3.44389
-3.3213
-3.19564
-3.06701
-2.9355
-2.80122
-2.66426
-2.52474
-2.38277
-2.23847
-2.09194
-1.94332
-1.79273
-1.64029
-1.48614
-1.33041
-1.17324
-1.01475
-0.855094
-0.694405
-0.532824
-0.370495
-0.20756
-0.0441625
0.119553
0.283443
0.447362
0.611168
0.774718
0.937869
1.10048
1.26241
1.42353
1.58369
1.74278
1.90064
2.05717
2.21224
2.36572
2.5175
2.66747
2.81552
2.96156
3.10547
3.24719
3.3866
3.52365
3.65825
3.79033
3.91984
4.04672
4.17092
4.29241
4.41116
4.52715
4.64035
4.75074
4.85824
4.9628
5.06444
5.16315
5.25896
5.35189
5.44197
5.52922
5.61367
5.69534
5.77426
5.85047
5.92401
5.9949
6.06318
6.1289
6.19209
6.25279
6.31103
6.36687
6.42035
6.4715
6.52039
6.56705
6.61157
6.65401
6.69447
6.73311
6.77014
6.80586
6.84082
6.87587
6.91294
6.95415
7.01014
7.07637
-4.71352
-4.71546
-4.71773
-4.71998
-4.7217
-4.72284
-4.72357
-4.72415
-4.72484
-4.72584
-4.7273
-4.72934
-4.73207
-4.73563
-4.74014
-4.74575
-4.7526
-4.76084
-4.77059
-4.78198
-4.79508
-4.80995
-4.82661
-4.84502
-4.86513
-4.88685
-4.91005
-4.93458
-4.96029
-4.98697
-5.01442
-5.04246
-5.07089
-5.0995
-5.12811
-5.15655
-5.18463
-5.2122
-5.23909
-5.26515
-5.29023
-5.3142
-5.33691
-5.35823
-5.37802
-5.39618
-5.41255
-5.42704
-5.4395
-5.44983
-5.45792
-5.46363
-5.46687
-5.46752
-5.46547
-5.46063
-5.45288
-5.44214
-5.42831
-5.41131
-5.39105
-5.36744
-5.34043
-5.30995
-5.27592
-5.23831
-5.19706
-5.15212
-5.10347
-5.05108
-4.99491
-4.93495
-4.87113
-4.80346
-4.73194
-4.65659
-4.57749
-4.49467
-4.40814
-4.31793
-4.22407
-4.1266
-4.02557
-3.92103
-3.81304
-3.70165
-3.58695
-3.469
-3.34788
-3.22369
-3.0965
-2.96641
-2.83353
-2.69795
-2.55977
-2.41912
-2.27611
-2.13084
-1.98345
-1.83405
-1.68277
-1.52974
-1.3751
-1.21897
-1.06148
-0.902789
-0.743019
-0.582314
-0.420815
-0.258665
-0.0960065
0.0670178
0.230264
0.393589
0.55685
0.719905
0.882611
1.04483
1.20642
1.36724
1.52717
1.68606
1.84379
2.00024
2.15527
2.30876
2.46061
2.6107
2.75891
2.90516
3.04934
3.19136
3.33113
3.46857
3.60361
3.73617
3.8662
3.99364
4.11844
4.24055
4.35995
4.47659
4.59046
4.70152
4.80975
4.91514
5.01765
5.11728
5.21402
5.30789
5.39892
5.48712
5.57252
5.65514
5.73501
5.81216
5.88663
5.95845
6.02765
6.09427
6.15835
6.21992
6.27903
6.33572
6.39003
6.44201
6.4917
6.53916
6.58446
6.62769
6.66895
6.7084
6.74627
6.78289
6.81882
6.8549
6.89296
6.9343
6.98813
7.04133
-4.70144
-4.70545
-4.70973
-4.71327
-4.71565
-4.71714
-4.71813
-4.71893
-4.71982
-4.72103
-4.72275
-4.72513
-4.72831
-4.73245
-4.73767
-4.7441
-4.75189
-4.76113
-4.77191
-4.7843
-4.79833
-4.814
-4.8313
-4.85016
-4.87051
-4.89225
-4.91526
-4.93941
-4.96455
-4.99051
-5.01714
-5.04426
-5.07171
-5.09933
-5.12694
-5.15439
-5.18152
-5.20818
-5.23423
-5.2595
-5.28387
-5.3072
-5.32935
-5.35019
-5.36959
-5.38742
-5.40356
-5.41788
-5.43026
-5.44058
-5.44873
-5.45458
-5.45801
-5.45893
-5.45721
-5.45276
-5.44546
-5.43523
-5.42196
-5.40556
-5.38596
-5.36306
-5.3368
-5.3071
-5.2739
-5.23715
-5.19679
-5.15277
-5.10506
-5.05362
-4.99843
-4.93944
-4.87665
-4.81004
-4.73964
-4.66547
-4.58755
-4.50592
-4.42059
-4.33159
-4.23894
-4.14269
-4.04288
-3.93956
-3.83278
-3.72261
-3.60911
-3.49236
-3.37244
-3.24942
-3.1234
-2.99447
-2.86272
-2.72826
-2.59119
-2.45162
-2.30967
-2.16544
-2.01905
-1.87064
-1.72032
-1.56823
-1.41448
-1.25922
-1.10257
-0.944683
-0.785684
-0.625714
-0.464915
-0.303428
-0.141394
0.0210432
0.183742
0.34656
0.509354
0.671982
0.834304
0.996179
1.15747
1.31804
1.47775
1.63647
1.79407
1.95043
2.10541
2.25891
2.4108
2.56097
2.70931
2.85572
3.00011
3.14237
3.28242
3.42019
3.55558
3.68854
3.81899
3.94689
4.07217
4.19481
4.31476
4.43198
4.54643
4.65807
4.76689
4.8729
4.97608
5.07641
5.17387
5.26849
5.36027
5.44924
5.5354
5.61879
5.69944
5.77737
5.85261
5.92519
5.99515
6.06253
6.12735
6.18967
6.24951
6.30692
6.36193
6.41461
6.46498
6.51312
6.55909
6.60298
6.64491
6.68502
6.72355
6.76084
6.79741
6.83399
6.87217
6.91238
6.96193
7.00279
-4.68639
-4.69259
-4.69953
-4.70505
-4.70877
-4.71129
-4.71315
-4.71478
-4.71647
-4.7185
-4.7211
-4.72442
-4.72864
-4.73389
-4.74029
-4.74794
-4.75695
-4.76739
-4.77931
-4.79274
-4.80768
-4.82411
-4.84198
-4.86124
-4.8818
-4.90357
-4.92642
-4.95025
-4.97493
-5.0003
-5.02625
-5.05261
-5.07924
-5.10601
-5.13276
-5.15934
-5.18563
-5.21147
-5.23673
-5.26127
-5.28496
-5.30767
-5.32926
-5.3496
-5.36856
-5.38602
-5.40186
-5.41594
-5.42814
-5.43834
-5.44643
-5.45227
-5.45576
-5.45678
-5.45522
-5.45096
-5.44392
-5.43398
-5.42104
-5.40502
-5.38583
-5.36339
-5.33761
-5.30842
-5.27577
-5.23959
-5.19983
-5.15644
-5.10938
-5.05861
-5.00411
-4.94585
-4.88381
-4.818
-4.74842
-4.67508
-4.59801
-4.51722
-4.43274
-4.34459
-4.2528
-4.15742
-4.05847
-3.95602
-3.85011
-3.7408
-3.62817
-3.51229
-3.39322
-3.27106
-3.14588
-3.01779
-2.88687
-2.75322
-2.61696
-2.47818
-2.337
-2.19354
-2.0479
-1.90022
-1.75061
-1.5992
-1.44613
-1.29151
-1.13549
-0.978204
-0.819782
-0.660365
-0.500093
-0.339105
-0.177544
-0.0155511
0.146732
0.309164
0.471601
0.633903
0.79593
0.95754
1.1186
1.27896
1.43851
1.59709
1.75459
1.91087
2.06582
2.2193
2.37121
2.52144
2.66987
2.8164
2.96093
3.10337
3.24363
3.38163
3.51729
3.65053
3.78131
3.90955
4.03521
4.15824
4.27859
4.39622
4.51109
4.62315
4.7324
4.83884
4.94247
5.04327
5.14124
5.23638
5.3287
5.4182
5.50492
5.58888
5.67009
5.74858
5.82439
5.89755
5.96808
6.03602
6.10141
6.16429
6.22468
6.28264
6.3382
6.3914
6.4423
6.49096
6.53744
6.58182
6.62423
6.66481
6.70378
6.74143
6.77826
6.81481
6.85233
6.89054
6.93529
6.96567
-4.67237
-4.68051
-4.68997
-4.69758
-4.70291
-4.70677
-4.70986
-4.71265
-4.71551
-4.71872
-4.72253
-4.72711
-4.73263
-4.7392
-4.74694
-4.75592
-4.76621
-4.77785
-4.79088
-4.80528
-4.82105
-4.83816
-4.85654
-4.87614
-4.89687
-4.91864
-4.94136
-4.96491
-4.98918
-5.01406
-5.03941
-5.06512
-5.09106
-5.1171
-5.1431
-5.16894
-5.19449
-5.21961
-5.24418
-5.26807
-5.29115
-5.31329
-5.33436
-5.35423
-5.37278
-5.38987
-5.40539
-5.4192
-5.43119
-5.44122
-5.44918
-5.45494
-5.45839
-5.45941
-5.45789
-5.45371
-5.44678
-5.43698
-5.42423
-5.40841
-5.38946
-5.36727
-5.34178
-5.31291
-5.28059
-5.24477
-5.20539
-5.1624
-5.11576
-5.06543
-5.01139
-4.95362
-4.8921
-4.82683
-4.7578
-4.68504
-4.60854
-4.52833
-4.44443
-4.35687
-4.26568
-4.17089
-4.07254
-3.97069
-3.86539
-3.75669
-3.64467
-3.5294
-3.41094
-3.28938
-3.16482
-3.03732
-2.907
-2.77396
-2.63828
-2.50008
-2.35948
-2.21657
-2.07149
-1.92435
-1.77527
-1.62438
-1.47181
-1.31769
-1.16215
-1.00532
-0.84734
-0.688348
-0.528482
-0.367883
-0.20669
-0.0450455
0.11691
0.279035
0.441189
0.603229
0.765015
0.926409
1.08727
1.24747
1.40687
1.56533
1.72273
1.87894
2.03383
2.1873
2.33921
2.48946
2.63793
2.78454
2.92916
3.07172
3.21212
3.35028
3.48612
3.61958
3.75058
3.87907
4.00499
4.12829
4.24893
4.36685
4.48202
4.59439
4.70395
4.81072
4.91468
5.01583
5.11416
5.20968
5.30239
5.39231
5.47944
5.56382
5.64546
5.72439
5.80064
5.87424
5.94521
6.0136
6.07943
6.14275
6.20358
6.26197
6.31796
6.37158
6.4229
6.47196
6.51882
6.56358
6.60634
6.64723
6.68645
6.72426
6.76104
6.7972
6.8336
6.86947
6.90975
6.93136
-4.66278
-4.67206
-4.68336
-4.69278
-4.69964
-4.70487
-4.70925
-4.7133
-4.71741
-4.72189
-4.72698
-4.73286
-4.73968
-4.74755
-4.75656
-4.76676
-4.7782
-4.79091
-4.80489
-4.82013
-4.8366
-4.85426
-4.87306
-4.89292
-4.91379
-4.93557
-4.95817
-4.9815
-5.00546
-5.02994
-5.05483
-5.08003
-5.10541
-5.13086
-5.15627
-5.18151
-5.20647
-5.23101
-5.25502
-5.27837
-5.30094
-5.32259
-5.34322
-5.36268
-5.38086
-5.39762
-5.41283
-5.42638
-5.43814
-5.44798
-5.45578
-5.46141
-5.46476
-5.46571
-5.46415
-5.45995
-5.45302
-5.44325
-5.43055
-5.4148
-5.39594
-5.37386
-5.34849
-5.31977
-5.28761
-5.25197
-5.21278
-5.17001
-5.1236
-5.07353
-5.01976
-4.96227
-4.90106
-4.83612
-4.76743
-4.69502
-4.61888
-4.53904
-4.45551
-4.36833
-4.27751
-4.18311
-4.08516
-3.98371
-3.87881
-3.77053
-3.65892
-3.54406
-3.42603
-3.30489
-3.18075
-3.05369
-2.9238
-2.79118
-2.65593
-2.51816
-2.37797
-2.23549
-2.09082
-1.94409
-1.79541
-1.64492
-1.49274
-1.339
-1.18382
-1.02736
-0.869726
-0.711072
-0.551532
-0.391246
-0.230353
-0.068994
0.0926904
0.25456
0.416472
0.578288
0.739866
0.901068
1.06176
1.2218
1.38105
1.5394
1.69669
1.85282
2.00765
2.16106
2.31295
2.46318
2.61167
2.75829
2.90296
3.04559
3.18607
3.32433
3.4603
3.59389
3.72504
3.85369
3.97978
4.10327
4.2241
4.34223
4.4576
4.5702
4.68
4.78701
4.89122
4.99263
5.09124
5.18705
5.28006
5.37029
5.45775
5.54246
5.62443
5.7037
5.7803
5.85425
5.92557
5.99431
6.0605
6.12417
6.18536
6.2441
6.30043
6.3544
6.40604
6.45542
6.50259
6.54763
6.59063
6.63171
6.67104
6.70883
6.74536
6.78087
6.81595
6.84938
6.88569
6.89995
-4.65892
-4.66864
-4.68093
-4.69159
-4.69969
-4.7061
-4.71164
-4.71686
-4.72214
-4.72779
-4.73404
-4.74109
-4.74905
-4.75804
-4.76812
-4.77935
-4.79174
-4.80531
-4.82006
-4.83596
-4.85298
-4.87108
-4.8902
-4.91029
-4.93126
-4.95306
-4.97558
-4.99876
-5.02249
-5.04668
-5.07124
-5.09605
-5.12103
-5.14605
-5.17101
-5.1958
-5.2203
-5.2444
-5.26797
-5.2909
-5.31307
-5.33434
-5.35461
-5.37373
-5.3916
-5.40807
-5.42302
-5.43633
-5.44786
-5.4575
-5.46512
-5.47059
-5.4738
-5.47462
-5.47295
-5.46866
-5.46165
-5.45181
-5.43905
-5.42326
-5.40436
-5.38227
-5.3569
-5.32818
-5.29604
-5.26043
-5.22129
-5.17858
-5.13224
-5.08226
-5.0286
-4.97124
-4.91017
-4.84538
-4.77686
-4.70462
-4.62867
-4.54902
-4.46569
-4.37871
-4.28811
-4.19393
-4.09621
-3.995
-3.89035
-3.78232
-3.67097
-3.55638
-3.43863
-3.31778
-3.19392
-3.06715
-2.93756
-2.80524
-2.6703
-2.53283
-2.39296
-2.25079
-2.10643
-1.96
-1.81164
-1.66145
-1.50957
-1.35612
-1.20125
-1.04507
-0.887717
-0.729338
-0.570066
-0.410039
-0.249398
-0.0882808
0.0731711
0.234818
0.39652
0.558136
0.719525
0.880551
1.04108
1.20096
1.36008
1.5183
1.67548
1.83151
1.98625
2.1396
2.29142
2.44162
2.59007
2.73669
2.88136
3.024
3.16452
3.30283
3.43885
3.57251
3.70375
3.83249
3.95869
4.08229
4.20325
4.32151
4.43703
4.54978
4.65975
4.76693
4.87133
4.97294
5.07175
5.16777
5.26101
5.35147
5.43918
5.52413
5.60637
5.68591
5.76278
5.837
5.90861
5.97763
6.04411
6.10806
6.16953
6.22856
6.28517
6.33941
6.39132
6.44095
6.48835
6.53359
6.57675
6.61793
6.65726
6.69489
6.73101
6.76572
6.79935
6.83039
6.86319
6.87131
-4.66093
-4.67045
-4.68292
-4.69418
-4.70308
-4.71037
-4.71683
-4.723
-4.72924
-4.73585
-4.74307
-4.75105
-4.75993
-4.7698
-4.78073
-4.79274
-4.80585
-4.82008
-4.8354
-4.8518
-4.86923
-4.88766
-4.90703
-4.92728
-4.94835
-4.97017
-4.99266
-5.01573
-5.03932
-5.06332
-5.08765
-5.11221
-5.1369
-5.16163
-5.18628
-5.21075
-5.23493
-5.25871
-5.28197
-5.30459
-5.32646
-5.34745
-5.36744
-5.3863
-5.40391
-5.42014
-5.43486
-5.44795
-5.45927
-5.46871
-5.47613
-5.48142
-5.48445
-5.4851
-5.48326
-5.47881
-5.47165
-5.46166
-5.44876
-5.43284
-5.41381
-5.39159
-5.3661
-5.33727
-5.30504
-5.26934
-5.23012
-5.18734
-5.14095
-5.09093
-5.03724
-4.97987
-4.91881
-4.85404
-4.78555
-4.71335
-4.63744
-4.55785
-4.47459
-4.38768
-4.29717
-4.20309
-4.10547
-4.00438
-3.89985
-3.79196
-3.68076
-3.56633
-3.44874
-3.32807
-3.2044
-3.07783
-2.94844
-2.81633
-2.68161
-2.54437
-2.40472
-2.26278
-2.11865
-1.97247
-1.82434
-1.6744
-1.52276
-1.36955
-1.21492
-1.05897
-0.901863
-0.743717
-0.584673
-0.424871
-0.264449
-0.103547
0.057697
0.219143
0.38065
0.542079
0.703289
0.864144
1.02451
1.18424
1.34321
1.50129
1.65835
1.81426
1.9689
2.12215
2.27389
2.42402
2.57242
2.71898
2.86362
3.00623
3.14674
3.28504
3.42107
3.55475
3.68602
3.8148
3.94105
4.06471
4.18573
4.30406
4.41967
4.53252
4.6426
4.74991
4.85443
4.95617
5.05513
5.1513
5.2447
5.33534
5.42322
5.50837
5.5908
5.67055
5.74763
5.82207
5.8939
5.96315
6.02985
6.09404
6.15574
6.21499
6.27183
6.32629
6.37841
6.42824
6.47581
6.52119
6.56444
6.60564
6.64487
6.68224
6.71784
6.75164
6.78378
6.81254
6.84225
6.84525
-4.66805
-4.6769
-4.68887
-4.7001
-4.70933
-4.71713
-4.7242
-4.73104
-4.73799
-4.74532
-4.75324
-4.76192
-4.77148
-4.78199
-4.79351
-4.80608
-4.81971
-4.83439
-4.85012
-4.86686
-4.88458
-4.90324
-4.92279
-4.94317
-4.96432
-4.98616
-5.00864
-5.03167
-5.05517
-5.07907
-5.10327
-5.12767
-5.1522
-5.17674
-5.2012
-5.22548
-5.24946
-5.27303
-5.29609
-5.31851
-5.34017
-5.36095
-5.38074
-5.39939
-5.4168
-5.43283
-5.44734
-5.46023
-5.47135
-5.48058
-5.4878
-5.49287
-5.49569
-5.49613
-5.49407
-5.4894
-5.48202
-5.47181
-5.45869
-5.44255
-5.4233
-5.40087
-5.37517
-5.34614
-5.31371
-5.27782
-5.23842
-5.19547
-5.14893
-5.09877
-5.04496
-4.98748
-4.92632
-4.86146
-4.79289
-4.72062
-4.64466
-4.56502
-4.48173
-4.39481
-4.30429
-4.21021
-4.11261
-4.01154
-3.90706
-3.79922
-3.6881
-3.57375
-3.45625
-3.33569
-3.21214
-3.0857
-2.95645
-2.82449
-2.68993
-2.55286
-2.41339
-2.27163
-2.12769
-1.9817
-1.83378
-1.68403
-1.5326
-1.37961
-1.22518
-1.06945
-0.912546
-0.75461
-0.595776
-0.436181
-0.275965
-0.115264
0.0457806
0.207029
0.368343
0.529583
0.69061
0.851288
1.01148
1.17105
1.32986
1.48779
1.64471
1.80049
1.955
2.10813
2.25976
2.40978
2.55809
2.70457
2.84913
2.99168
3.13212
3.27038
3.40637
3.54003
3.67127
3.80005
3.9263
4.04996
4.17099
4.28935
4.405
4.5179
4.62804
4.73541
4.84001
4.94183
5.04088
5.13716
5.23067
5.32143
5.40944
5.49473
5.57731
5.65721
5.73445
5.80906
5.88106
5.9505
6.01738
6.08176
6.14365
6.20309
6.26011
6.31475
6.36704
6.41701
6.46471
6.51018
6.55346
6.59461
6.63368
6.6707
6.70571
6.73855
6.76922
6.79583
6.82283
6.82156
-4.679
-4.68684
-4.69781
-4.70849
-4.7176
-4.72554
-4.73291
-4.74013
-4.74751
-4.75531
-4.7637
-4.77284
-4.78284
-4.79377
-4.80569
-4.81861
-4.83256
-4.84754
-4.86352
-4.88048
-4.89839
-4.9172
-4.93687
-4.95734
-4.97855
-5.00044
-5.02293
-5.04595
-5.06943
-5.09329
-5.11743
-5.14178
-5.16623
-5.19069
-5.21506
-5.23923
-5.2631
-5.28656
-5.3095
-5.33179
-5.35331
-5.37395
-5.39359
-5.41208
-5.42932
-5.44516
-5.45949
-5.47217
-5.48308
-5.49209
-5.49907
-5.50391
-5.50647
-5.50665
-5.50432
-5.49937
-5.49171
-5.48121
-5.4678
-5.45137
-5.43183
-5.40911
-5.38312
-5.35381
-5.3211
-5.28495
-5.24529
-5.2021
-5.15533
-5.10496
-5.05095
-4.99329
-4.93195
-4.86692
-4.79821
-4.7258
-4.64971
-4.56996
-4.48657
-4.39956
-4.30897
-4.21483
-4.1172
-4.01611
-3.91162
-3.80379
-3.69268
-3.57837
-3.46093
-3.34044
-3.21697
-3.09062
-2.96148
-2.82965
-2.69521
-2.55828
-2.41897
-2.27737
-2.1336
-1.98779
-1.84004
-1.69049
-1.53925
-1.38645
-1.23222
-1.07669
-0.919999
-0.762273
-0.603649
-0.444264
-0.284256
-0.123763
0.0370756
0.19812
0.359232
0.520273
0.681105
0.841592
1.0016
1.16098
1.31962
1.47737
1.63412
1.78973
1.94409
2.09707
2.24856
2.39844
2.54662
2.69298
2.83743
2.97987
3.12022
3.25839
3.3943
3.52788
3.65906
3.78778
3.91398
4.0376
4.1586
4.27694
4.39258
4.50548
4.61564
4.72303
4.82766
4.92953
5.02863
5.12496
5.21854
5.30938
5.39748
5.48286
5.56555
5.64556
5.72292
5.79766
5.86981
5.93938
6.00641
6.07094
6.13298
6.19258
6.24975
6.30453
6.35696
6.40705
6.45483
6.50034
6.54361
6.58466
6.62351
6.66014
6.69451
6.72637
6.75561
6.78024
6.80485
6.80003
-4.69229
-4.69893
-4.70853
-4.71825
-4.72687
-4.73462
-4.74199
-4.74933
-4.75691
-4.76494
-4.77359
-4.78299
-4.79323
-4.8044
-4.81653
-4.82965
-4.84378
-4.85891
-4.87503
-4.89212
-4.91013
-4.92903
-4.94878
-4.96931
-4.99057
-5.0125
-5.03503
-5.05808
-5.08158
-5.10545
-5.1296
-5.15394
-5.17838
-5.20283
-5.22717
-5.25131
-5.27514
-5.29855
-5.32142
-5.34362
-5.36505
-5.38558
-5.40508
-5.42343
-5.4405
-5.45616
-5.47028
-5.48274
-5.49341
-5.50216
-5.50887
-5.51341
-5.51567
-5.51553
-5.51287
-5.50759
-5.49958
-5.48874
-5.47497
-5.45818
-5.43829
-5.41522
-5.38889
-5.35924
-5.3262
-5.28972
-5.24977
-5.20628
-5.15924
-5.10861
-5.05436
-4.99646
-4.9349
-4.86966
-4.80075
-4.72816
-4.6519
-4.572
-4.48848
-4.40135
-4.31066
-4.21644
-4.11874
-4.01761
-3.91309
-3.80525
-3.69416
-3.57987
-3.46247
-3.34204
-3.21865
-3.09239
-2.96335
-2.83163
-2.69732
-2.56053
-2.42137
-2.27993
-2.13634
-1.99071
-1.84315
-1.69379
-1.54275
-1.39016
-1.23615
-1.08083
-0.924357
-0.766852
-0.608451
-0.449291
-0.289508
-0.12924
0.0313736
0.192194
0.353081
0.5139
0.674511
0.834779
0.994567
1.15374
1.31217
1.46972
1.62626
1.78168
1.93584
2.08864
2.23995
2.38966
2.53766
2.68386
2.82816
2.97045
3.11066
3.2487
3.38448
3.51795
3.64902
3.77764
3.90374
4.02728
4.14821
4.26649
4.38207
4.49493
4.60506
4.71244
4.81707
4.91893
5.01804
5.1144
5.20801
5.29888
5.38703
5.47248
5.55524
5.63533
5.71278
5.78762
5.85987
5.92955
5.9967
6.06135
6.12352
6.18324
6.24054
6.29544
6.34797
6.39815
6.44599
6.49152
6.53474
6.57566
6.61425
6.65045
6.68415
6.71504
6.74292
6.76574
6.78822
6.78047
-4.70642
-4.71177
-4.7198
-4.72827
-4.7361
-4.7434
-4.75053
-4.75776
-4.76533
-4.7734
-4.78213
-4.79162
-4.80196
-4.81321
-4.82543
-4.83863
-4.85282
-4.86802
-4.88419
-4.90132
-4.91937
-4.93832
-4.9581
-4.97867
-4.99998
-5.02195
-5.04451
-5.06761
-5.09115
-5.11506
-5.13925
-5.16362
-5.18809
-5.21255
-5.23691
-5.26104
-5.28485
-5.30821
-5.33102
-5.35315
-5.37447
-5.39488
-5.41423
-5.4324
-5.44927
-5.4647
-5.47858
-5.49077
-5.50114
-5.50958
-5.51595
-5.52015
-5.52204
-5.52152
-5.51848
-5.51281
-5.50439
-5.49315
-5.47897
-5.46178
-5.44149
-5.41803
-5.39131
-5.36129
-5.32789
-5.29107
-5.25079
-5.20699
-5.15966
-5.10876
-5.05424
-4.99609
-4.93429
-4.86883
-4.7997
-4.72692
-4.6505
-4.57044
-4.48678
-4.39954
-4.30875
-4.21446
-4.1167
-4.01553
-3.911
-3.80317
-3.6921
-3.57786
-3.46052
-3.34016
-3.21686
-3.09071
-2.9618
-2.83022
-2.69606
-2.55944
-2.42045
-2.2792
-2.1358
-1.99038
-1.84304
-1.6939
-1.54309
-1.39073
-1.23695
-1.08188
-0.925652
-0.768397
-0.61025
-0.451345
-0.29182
-0.13181
0.0285442
0.189105
0.349735
0.510295
0.67065
0.830662
0.990197
1.14912
1.3073
1.4646
1.62091
1.77609
1.93002
2.08258
2.23367
2.38316
2.53096
2.67695
2.82105
2.96315
3.10317
3.24103
3.37665
3.50995
3.64087
3.76935
3.89532
4.01873
4.13955
4.25772
4.37321
4.48599
4.59605
4.70338
4.80796
4.90979
5.00888
5.10522
5.19882
5.28971
5.37788
5.46335
5.54615
5.62629
5.70381
5.77871
5.85104
5.92081
5.98806
6.05281
6.11509
6.17491
6.23232
6.28732
6.33993
6.39017
6.43805
6.48357
6.52673
6.56748
6.60579
6.64154
6.67457
6.70451
6.73111
6.75228
6.77287
6.76272
-4.72004
-4.72411
-4.73048
-4.73753
-4.74437
-4.75101
-4.7577
-4.76465
-4.77204
-4.78
-4.78866
-4.79812
-4.80844
-4.81968
-4.83188
-4.84507
-4.85926
-4.87444
-4.8906
-4.90772
-4.92577
-4.94471
-4.9645
-4.98508
-5.0064
-5.02839
-5.05098
-5.07411
-5.09768
-5.12162
-5.14583
-5.17022
-5.1947
-5.21916
-5.24349
-5.26758
-5.29133
-5.31462
-5.33731
-5.35931
-5.38047
-5.40068
-5.41982
-5.43774
-5.45434
-5.46948
-5.48303
-5.49487
-5.50488
-5.51293
-5.5189
-5.52268
-5.52415
-5.5232
-5.51971
-5.51359
-5.50474
-5.49305
-5.47845
-5.46083
-5.44012
-5.41625
-5.38915
-5.35875
-5.325
-5.28785
-5.24725
-5.20317
-5.15557
-5.1044
-5.04963
-4.99124
-4.92922
-4.86355
-4.79424
-4.7213
-4.64473
-4.56455
-4.48079
-4.39347
-4.30262
-4.20829
-4.11052
-4.00936
-3.90486
-3.79707
-3.68607
-3.57192
-3.45468
-3.33445
-3.21129
-3.08529
-2.95655
-2.82515
-2.69119
-2.55477
-2.416
-2.27499
-2.13184
-1.98666
-1.83958
-1.69071
-1.54017
-1.38809
-1.23459
-1.07981
-0.923877
-0.766918
-0.60907
-0.450466
-0.291243
-0.131538
0.0285117
0.188768
0.349092
0.509349
0.6694
0.82911
0.988345
1.14697
1.30485
1.46187
1.61788
1.77278
1.92643
2.07872
2.22953
2.37876
2.5263
2.67204
2.81589
2.95775
3.09754
3.23518
3.37058
3.50368
3.6344
3.76269
3.88848
4.01173
4.13238
4.25041
4.36577
4.47844
4.58839
4.69562
4.80012
4.90189
5.00092
5.09721
5.19079
5.28165
5.36981
5.45528
5.5381
5.61827
5.69582
5.77077
5.84316
5.913
5.98033
6.04516
6.10752
6.16744
6.22493
6.28002
6.3327
6.383
6.4309
6.4764
6.51946
6.56005
6.59806
6.63336
6.66573
6.69476
6.72016
6.73983
6.75872
6.74665
-4.73199
-4.73486
-4.73958
-4.74514
-4.75085
-4.75669
-4.7628
-4.76934
-4.77643
-4.78417
-4.79267
-4.802
-4.81223
-4.82338
-4.83551
-4.84863
-4.86274
-4.87785
-4.89394
-4.91099
-4.92897
-4.94785
-4.96758
-4.98811
-5.00938
-5.03132
-5.05388
-5.07696
-5.10048
-5.12437
-5.14853
-5.17286
-5.19725
-5.22161
-5.24583
-5.26978
-5.29337
-5.31646
-5.33894
-5.36069
-5.38159
-5.4015
-5.42031
-5.43789
-5.45411
-5.46886
-5.482
-5.49341
-5.50297
-5.51057
-5.51608
-5.51939
-5.52039
-5.51897
-5.51502
-5.50844
-5.49913
-5.48701
-5.47197
-5.45394
-5.43284
-5.40859
-5.38113
-5.3504
-5.31634
-5.27891
-5.23806
-5.19375
-5.14591
-5.09452
-5.03954
-4.98096
-4.91877
-4.85296
-4.78352
-4.71048
-4.63383
-4.5536
-4.4698
-4.38247
-4.29164
-4.19735
-4.09964
-3.99855
-3.89415
-3.78649
-3.67563
-3.56163
-3.44457
-3.32453
-3.20158
-3.07581
-2.9473
-2.81616
-2.68246
-2.54632
-2.40784
-2.26712
-2.12428
-1.97942
-1.83265
-1.68411
-1.53391
-1.38217
-1.22902
-1.07459
-0.919006
-0.762402
-0.604911
-0.446666
-0.287804
-0.128461
0.0312264
0.19112
0.351083
0.510979
0.670671
0.830023
0.988901
1.14717
1.30471
1.46137
1.61704
1.7716
1.92492
2.07688
2.22737
2.37628
2.5235
2.66894
2.81249
2.95407
3.09358
3.23095
3.36609
3.49893
3.62941
3.75746
3.88303
4.00607
4.12653
4.24437
4.35956
4.47208
4.58189
4.689
4.79338
4.89504
4.99399
5.09021
5.18372
5.27453
5.36266
5.44812
5.53092
5.6111
5.68867
5.76365
5.83608
5.90598
5.97336
6.03827
6.10071
6.1607
6.21828
6.27343
6.32618
6.37652
6.42444
6.46991
6.51288
6.55328
6.591
6.62586
6.6576
6.68576
6.71005
6.72838
6.74572
6.73212
-4.74178
-4.74363
-4.74676
-4.75077
-4.75527
-4.76019
-4.76561
-4.77161
-4.77829
-4.78573
-4.79398
-4.8031
-4.81314
-4.82412
-4.83609
-4.84903
-4.86297
-4.8779
-4.8938
-4.91066
-4.92844
-4.94711
-4.96664
-4.98696
-5.00802
-5.02975
-5.05209
-5.07496
-5.09827
-5.12194
-5.14586
-5.16994
-5.19407
-5.21816
-5.24208
-5.26572
-5.28897
-5.3117
-5.33381
-5.35516
-5.37563
-5.39511
-5.41347
-5.43058
-5.44633
-5.46058
-5.47322
-5.48414
-5.4932
-5.50029
-5.50531
-5.50813
-5.50864
-5.50675
-5.50234
-5.49531
-5.48558
-5.47305
-5.45763
-5.43924
-5.41781
-5.39326
-5.36552
-5.33455
-5.30028
-5.26267
-5.22166
-5.17719
-5.1292
-5.07766
-5.02257
-4.96389
-4.90163
-4.83577
-4.76632
-4.69327
-4.61665
-4.53647
-4.45276
-4.36553
-4.27482
-4.18067
-4.08312
-3.98223
-3.87804
-3.7706
-3.65998
-3.54625
-3.42947
-3.30972
-3.18709
-3.06164
-2.93347
-2.80268
-2.66935
-2.53358
-2.39548
-2.25515
-2.1127
-1.96825
-1.8219
-1.67377
-1.52399
-1.37268
-1.21996
-1.06596
-0.910813
-0.754647
-0.597594
-0.439789
-0.281367
-0.122464
0.0367828
0.196238
0.355763
0.515222
0.67448
0.8334
0.99185
1.1497
1.30681
1.46306
1.61832
1.77247
1.92538
2.07695