/*--------------------------------*- C++ -*----------------------------------*\
| =========                 |                                                 |
| \\      /  F ield         | OpenFOAM: The Open Source CFD Toolbox           |
|  \\    /   O peration     | Version:  2412                                  |
|   \\  /    A nd           | Website:  www.openfoam.com                      |
|    \\/     M anipulation  |                                                 |
\*---------------------------------------------------------------------------*/
FoamFile
{
    version     2.0;
    format      ascii;
    arch        "LSB;label=32;scalar=64";
    class       surfaceScalarField;
    location    "0.21";
    object      phi;
}
// * * * * * * * * * * * * * * * * * * * * * * * * * * * * * * * * * * * * * //

dimensions      [0 3 -1 0 0 0 0];

oriented        oriented;

internalField   nonuniform List<scalar> 
24170
(
1.36706e-07
-5.7162e-08
1.95622e-07
-5.89154e-08
2.5792e-07
-6.22979e-08
3.11675e-07
-5.37556e-08
3.61814e-07
-5.01392e-08
4.07925e-07
-4.61108e-08
4.49573e-07
-4.16474e-08
4.87098e-07
-3.75258e-08
5.20888e-07
-3.37901e-08
5.5128e-07
-3.03916e-08
5.78598e-07
-2.73176e-08
6.03133e-07
-2.45351e-08
6.25128e-07
-2.19951e-08
6.44759e-07
-1.9631e-08
6.62162e-07
-1.74029e-08
6.77208e-07
-1.50463e-08
6.89899e-07
-1.26906e-08
-8.05152e-09
6.9795e-07
3.26112e-07
-1.24822e-07
3.94133e-07
-1.26936e-07
4.55888e-07
-1.24053e-07
5.14188e-07
-1.12055e-07
5.67683e-07
-1.03635e-07
6.16641e-07
-9.50682e-08
6.61284e-07
-8.62904e-08
7.01836e-07
-7.8078e-08
7.38594e-07
-7.05485e-08
7.71879e-07
-6.36764e-08
8.01996e-07
-5.74343e-08
8.29218e-07
-5.17575e-08
8.53778e-07
-4.65551e-08
8.75855e-07
-4.17079e-08
8.95562e-07
-3.71097e-08
9.12896e-07
-3.23806e-08
9.27948e-07
-2.77424e-08
-1.99495e-08
9.39846e-07
5.17245e-07
-1.71611e-07
5.79152e-07
-1.88843e-07
6.38212e-07
-1.83113e-07
6.9537e-07
-1.69213e-07
7.48184e-07
-1.56448e-07
7.9679e-07
-1.43674e-07
8.41436e-07
-1.30936e-07
8.82255e-07
-1.18898e-07
9.19466e-07
-1.07759e-07
9.53331e-07
-9.75412e-08
9.84111e-07
-8.82142e-08
1.01205e-06
-7.96929e-08
1.03735e-06
-7.18551e-08
1.06018e-06
-6.45424e-08
1.08066e-06
-5.75848e-08
1.09888e-06
-5.06008e-08
1.11466e-06
-4.35253e-08
-3.35006e-08
1.12821e-06
7.4348e-07
-1.95421e-07
7.91921e-07
-2.37284e-07
8.43832e-07
-2.35024e-07
8.96365e-07
-2.21747e-07
9.46029e-07
-2.06112e-07
9.92309e-07
-1.89955e-07
1.03522e-06
-1.7385e-07
1.07477e-06
-1.58446e-07
1.11106e-06
-1.4405e-07
1.14428e-06
-1.30755e-07
1.17461e-06
-1.18546e-07
1.20225e-06
-1.07335e-07
1.22738e-06
-9.69825e-08
1.25014e-06
-8.73051e-08
1.27064e-06
-7.80887e-08
1.289e-06
-6.89582e-08
1.30512e-06
-5.96395e-08
-4.80204e-08
1.31963e-06
1.01492e-06
-1.99875e-07
1.04731e-06
-2.69669e-07
1.08854e-06
-2.76251e-07
1.1334e-06
-2.6661e-07
1.17753e-06
-2.50241e-07
1.21953e-06
-2.31953e-07
1.25902e-06
-2.13344e-07
1.29581e-06
-1.9524e-07
1.32987e-06
-1.7811e-07
1.36127e-06
-1.62148e-07
1.39011e-06
-1.47385e-07
1.41652e-06
-1.33748e-07
1.44063e-06
-1.21099e-07
1.46258e-06
-1.09245e-07
1.48244e-06
-9.79535e-08
1.50035e-06
-8.68693e-08
1.51636e-06
-7.56436e-08
-6.28112e-08
1.53115e-06
1.33808e-06
-1.90516e-07
1.35427e-06
-2.85854e-07
1.38245e-06
-3.04434e-07
1.41696e-06
-3.0112e-07
1.45317e-06
-2.86448e-07
1.48884e-06
-2.67627e-07
1.52313e-06
-2.47633e-07
1.5556e-06
-2.27705e-07
1.58602e-06
-2.08535e-07
1.61434e-06
-1.90466e-07
1.64056e-06
-1.73605e-07
1.66473e-06
-1.57922e-07
1.68693e-06
-1.43297e-07
1.70724e-06
-1.29552e-07
1.72574e-06
-1.16455e-07
1.74256e-06
-1.03694e-07
1.75785e-06
-9.09315e-08
-7.71911e-08
1.77223e-06
1.71767e-06
-1.72906e-07
1.7193e-06
-2.87485e-07
1.73353e-06
-3.18666e-07
1.75572e-06
-3.23307e-07
1.78184e-06
-3.12564e-07
1.80917e-06
-2.94965e-07
1.83644e-06
-2.74897e-07
1.86292e-06
-2.5419e-07
1.88822e-06
-2.33835e-07
1.91212e-06
-2.1436e-07
1.9345e-06
-1.95988e-07
1.95533e-06
-1.78753e-07
1.97462e-06
-1.62582e-07
1.99239e-06
-1.47325e-07
2.00871e-06
-1.32781e-07
2.02371e-06
-1.18693e-07
2.03756e-06
-1.04781e-07
-9.04267e-08
2.0508e-06
2.15734e-06
-1.51551e-07
2.14717e-06
-2.77323e-07
2.14805e-06
-3.1954e-07
2.15705e-06
-3.32305e-07
2.17148e-06
-3.26998e-07
2.18874e-06
-3.12229e-07
2.20728e-06
-2.93433e-07
2.22618e-06
-2.73087e-07
2.24485e-06
-2.5251e-07
2.26294e-06
-2.32446e-07
2.28021e-06
-2.13258e-07
2.29653e-06
-1.95074e-07
2.31183e-06
-1.77884e-07
2.3261e-06
-1.6159e-07
2.33935e-06
-1.46036e-07
2.35169e-06
-1.31035e-07
2.3633e-06
-1.16384e-07
-1.0172e-07
2.37459e-06
2.66011e-06
-1.29474e-07
2.64127e-06
-2.5848e-07
2.63057e-06
-3.08842e-07
2.62679e-06
-3.2853e-07
2.62888e-06
-3.29087e-07
2.63492e-06
-3.18268e-07
2.6434e-06
-3.01908e-07
2.65332e-06
-2.83012e-07
2.66401e-06
-2.63197e-07
2.67498e-06
-2.43414e-07
2.68589e-06
-2.24177e-07
2.69654e-06
-2.05722e-07
2.70678e-06
-1.8812e-07
2.71653e-06
-1.71337e-07
2.72577e-06
-1.55281e-07
2.73457e-06
-1.39832e-07
2.74306e-06
-1.24876e-07
-1.10226e-07
2.75157e-06
3.22874e-06
-1.08351e-07
3.204e-06
-2.33746e-07
3.18408e-06
-2.88916e-07
3.16904e-06
-3.13495e-07
3.15923e-06
-3.19276e-07
3.15376e-06
-3.12802e-07
3.15149e-06
-2.99632e-07
3.15152e-06
-2.83044e-07
3.15318e-06
-2.64863e-07
3.15596e-06
-2.4619e-07
3.15945e-06
-2.27671e-07
3.16338e-06
-2.09649e-07
3.16754e-06
-1.9228e-07
3.17181e-06
-1.75603e-07
3.17612e-06
-1.59593e-07
3.18049e-06
-1.44199e-07
3.185e-06
-1.29389e-07
-1.15095e-07
3.18987e-06
3.8657e-06
-8.90265e-08
3.83718e-06
-2.05219e-07
3.81025e-06
-2.61991e-07
3.78606e-06
-2.89305e-07
3.76578e-06
-2.98991e-07
3.74951e-06
-2.96533e-07
3.73664e-06
-2.86765e-07
3.72656e-06
-2.72962e-07
3.71872e-06
-2.57028e-07
3.71267e-06
-2.40133e-07
3.708e-06
-2.23005e-07
3.70442e-06
-2.0607e-07
3.7017e-06
-1.89559e-07
3.69968e-06
-1.73578e-07
3.69825e-06
-1.58168e-07
3.69739e-06
-1.43336e-07
3.69712e-06
-1.29125e-07
-1.15532e-07
3.69756e-06
3.81123e-06
-7.33539e-08
3.78552e-06
-1.79506e-07
3.75883e-06
-2.35305e-07
3.733e-06
-2.63469e-07
3.70932e-06
-2.75312e-07
3.68838e-06
-2.75598e-07
3.6701e-06
-2.68478e-07
3.65419e-06
-2.5706e-07
3.6404e-06
-2.43232e-07
3.62842e-06
-2.28155e-07
3.61799e-06
-2.12578e-07
3.60889e-06
-1.96966e-07
3.60092e-06
-1.81592e-07
3.59395e-06
-1.66609e-07
3.58788e-06
-1.52098e-07
3.58266e-06
-1.38116e-07
3.57823e-06
-1.24697e-07
-1.12086e-07
3.57479e-06
5.03713e-06
-5.77224e-08
5.00707e-06
-1.49447e-07
4.97361e-06
-2.01845e-07
4.93952e-06
-2.29384e-07
4.90653e-06
-2.42315e-07
4.87576e-06
-2.44828e-07
4.84752e-06
-2.40238e-07
4.82178e-06
-2.31324e-07
4.79844e-06
-2.19886e-07
4.77731e-06
-2.07031e-07
4.75821e-06
-1.93478e-07
4.74094e-06
-1.79696e-07
4.72533e-06
-1.65982e-07
4.71124e-06
-1.52519e-07
4.69856e-06
-1.3942e-07
4.68722e-06
-1.26771e-07
4.67716e-06
-1.14636e-07
-1.03355e-07
4.66843e-06
6.66244e-06
-4.26882e-08
6.62913e-06
-1.16137e-07
6.58917e-06
-1.6189e-07
6.54671e-06
-1.86917e-07
6.50386e-06
-1.99472e-07
6.4623e-06
-2.0327e-07
6.42283e-06
-2.00762e-07
6.3857e-06
-1.94199e-07
6.35102e-06
-1.85203e-07
6.31877e-06
-1.74785e-07
6.28889e-06
-1.63594e-07
6.26126e-06
-1.52068e-07
6.23578e-06
-1.40497e-07
6.21233e-06
-1.2907e-07
6.19082e-06
-1.17915e-07
6.17118e-06
-1.0713e-07
6.15334e-06
-9.67954e-08
-8.7276e-08
6.13726e-06
8.79086e-06
-2.88864e-08
8.75646e-06
-8.1736e-08
8.71175e-06
-1.17185e-07
8.66208e-06
-1.37243e-07
8.61014e-06
-1.47533e-07
8.55806e-06
-1.51187e-07
8.5072e-06
-1.49904e-07
8.45825e-06
-1.45247e-07
8.41155e-06
-1.38504e-07
8.36729e-06
-1.30522e-07
8.32554e-06
-1.21844e-07
8.28631e-06
-1.12837e-07
8.24956e-06
-1.03755e-07
8.21527e-06
-9.47733e-08
8.18336e-06
-8.60105e-08
8.15379e-06
-7.75601e-08
8.12649e-06
-6.94903e-08
-6.21784e-08
8.10139e-06
1.15181e-05
-1.66132e-08
1.14848e-05
-4.84357e-08
1.14384e-05
-7.07826e-08
1.13845e-05
-8.34173e-08
1.13264e-05
-8.94506e-08
1.12665e-05
-9.11965e-08
1.12064e-05
-8.97995e-08
1.11473e-05
-8.61735e-08
1.10899e-05
-8.11495e-08
1.10347e-05
-7.53213e-08
1.09819e-05
-6.90639e-08
1.09317e-05
-6.26284e-08
1.08842e-05
-5.6194e-08
1.08393e-05
-4.98884e-08
1.07971e-05
-4.38053e-08
1.07575e-05
-3.80217e-08
1.07206e-05
-3.25648e-08
-2.78179e-08
1.06863e-05
1.48842e-05
-5.40679e-09
1.48525e-05
-1.67197e-08
1.48063e-05
-2.45557e-08
1.47511e-05
-2.81915e-08
1.46904e-05
-2.87899e-08
1.46267e-05
-2.752e-08
1.45619e-05
-2.49705e-08
1.44973e-05
-2.15383e-08
1.44337e-05
-1.76036e-08
1.43718e-05
-1.34601e-08
1.43121e-05
-9.29247e-09
1.42547e-05
-5.21864e-09
1.41998e-05
-1.32961e-09
1.41476e-05
2.33152e-09
1.40981e-05
5.70788e-09
1.40513e-05
8.7543e-09
1.40072e-05
1.15013e-08
1.35985e-08
1.39658e-05
1.8769e-05
6.26862e-09
1.87365e-05
1.58143e-08
1.86883e-05
2.36355e-08
1.86301e-05
3.00001e-08
1.85661e-05
3.52492e-08
1.84989e-05
3.96475e-08
1.84306e-05
4.33624e-08
1.83625e-05
4.65168e-08
1.82957e-05
4.92055e-08
1.82307e-05
5.14947e-08
1.8168e-05
5.34289e-08
1.81078e-05
5.50381e-08
1.80501e-05
5.63422e-08
1.79951e-05
5.73521e-08
1.79427e-05
5.80737e-08
1.7893e-05
5.84945e-08
1.78458e-05
5.86733e-08
5.83502e-08
1.7801e-05
2.26768e-05
1.69994e-08
2.26398e-05
5.27687e-08
2.25834e-05
8.00366e-08
2.25148e-05
9.86e-08
2.24391e-05
1.10953e-07
2.23597e-05
1.19102e-07
2.22789e-05
1.24105e-07
2.21987e-05
1.2674e-07
2.21202e-05
1.27705e-07
2.20442e-05
1.27521e-07
2.19711e-05
1.26529e-07
2.19012e-05
1.24956e-07
2.18346e-05
1.22961e-07
2.17713e-05
1.20658e-07
2.17112e-05
1.18124e-07
2.16543e-05
1.15406e-07
2.16004e-05
1.12565e-07
1.0946e-07
2.15493e-05
1.5604e-05
3.26453e-08
1.55641e-05
9.26286e-08
1.55091e-05
1.3505e-07
1.54456e-05
1.62034e-07
1.53777e-05
1.7888e-07
1.5308e-05
1.88804e-07
1.52386e-05
1.93524e-07
1.51708e-05
1.945e-07
1.51056e-05
1.92974e-07
1.50433e-05
1.89812e-07
1.49842e-05
1.85577e-07
1.49285e-05
1.80654e-07
1.48762e-05
1.75318e-07
1.48271e-05
1.6976e-07
1.47811e-05
1.6411e-07
1.4738e-05
1.58461e-07
1.46977e-05
1.52874e-07
1.4729e-07
1.46599e-05
1.23902e-05
5.12373e-08
1.23448e-05
1.38103e-07
1.22864e-05
1.93411e-07
1.22225e-05
2.25919e-07
1.21566e-05
2.44778e-07
1.20913e-05
2.54101e-07
1.20284e-05
2.56422e-07
1.19689e-05
2.54072e-07
1.1913e-05
2.48805e-07
1.18611e-05
2.41743e-07
1.18131e-05
2.33613e-07
1.17688e-05
2.24915e-07
1.17281e-05
2.15988e-07
1.16908e-05
2.07062e-07
1.16567e-05
1.98281e-07
1.16254e-05
1.89745e-07
1.15967e-05
1.81499e-07
1.73531e-07
1.15705e-05
9.55928e-06
7.55449e-08
9.50978e-06
1.87606e-07
9.45371e-06
2.4948e-07
9.3969e-06
2.82733e-07
9.3417e-06
2.99971e-07
9.29013e-06
3.05678e-07
9.24311e-06
3.03434e-07
9.20081e-06
2.96381e-07
9.16305e-06
2.8656e-07
9.12959e-06
2.75203e-07
9.1001e-06
2.63108e-07
9.0742e-06
2.50808e-07
9.05155e-06
2.38643e-07
9.03179e-06
2.26821e-07
9.0146e-06
2.15465e-07
8.9997e-06
2.04645e-07
8.98683e-06
1.94377e-07
1.84665e-07
8.97569e-06
7.18003e-06
1.04964e-07
7.13264e-06
2.34998e-07
7.087e-06
2.95122e-07
7.04542e-06
3.24307e-07
7.0092e-06
3.36195e-07
6.97926e-06
3.35612e-07
6.95529e-06
3.27406e-07
6.93652e-06
3.15158e-07
6.9222e-06
3.00875e-07
6.91168e-06
2.85726e-07
6.90433e-06
2.70453e-07
6.89963e-06
2.55509e-07
6.89712e-06
2.41154e-07
6.89642e-06
2.27524e-07
6.89721e-06
2.14676e-07
6.89923e-06
2.02628e-07
6.90224e-06
1.91357e-07
1.80859e-07
6.90605e-06
5.24556e-06
1.38122e-07
5.20786e-06
2.72696e-07
5.18043e-06
3.22554e-07
5.16161e-06
3.43122e-07
5.15135e-06
3.46461e-07
5.14857e-06
3.38385e-07
5.15147e-06
3.24516e-07
5.15852e-06
3.08102e-07
5.16864e-06
2.90753e-07
5.18098e-06
2.73391e-07
5.19487e-06
2.56564e-07
5.20981e-06
2.40569e-07
5.22542e-06
2.25539e-07
5.24143e-06
2.11518e-07
5.25761e-06
1.98494e-07
5.27381e-06
1.86428e-07
5.2899e-06
1.75264e-07
1.64987e-07
5.30577e-06
3.71461e-06
1.71644e-07
3.69607e-06
2.91239e-07
3.69442e-06
3.24202e-07
3.70434e-06
3.33201e-07
3.72342e-06
3.27385e-07
3.74839e-06
3.13411e-07
3.7767e-06
2.9621e-07
3.80679e-06
2.78012e-07
3.83767e-06
2.59874e-07
3.86865e-06
2.42404e-07
3.89929e-06
2.25926e-07
3.92928e-06
2.10576e-07
3.95844e-06
1.9638e-07
3.98666e-06
1.83306e-07
4.01386e-06
1.71292e-07
4.04003e-06
1.60262e-07
4.06515e-06
1.50138e-07
1.40905e-07
4.08923e-06
2.5354e-06
1.96844e-07
2.54624e-06
2.80394e-07
2.57486e-06
2.95586e-07
2.61418e-06
2.93882e-07
2.65963e-06
2.81929e-07
2.70724e-06
2.65807e-07
2.75496e-06
2.48487e-07
2.8018e-06
2.3117e-07
2.84717e-06
2.14505e-07
2.89073e-06
1.98846e-07
2.93231e-06
1.8434e-07
2.97188e-06
1.71014e-07
3.00943e-06
1.58829e-07
3.04502e-06
1.47712e-07
3.07874e-06
1.37575e-07
3.11067e-06
1.2833e-07
3.14091e-06
1.19895e-07
1.12269e-07
3.16955e-06
1.65469e-06
1.99257e-07
1.70056e-06
2.34527e-07
1.75707e-06
2.39073e-07
1.81981e-06
2.31142e-07
1.88376e-06
2.17981e-07
1.94596e-06
2.03611e-07
2.00553e-06
1.88912e-07
2.06212e-06
1.74583e-07
2.11554e-06
1.6109e-07
2.16577e-06
1.48612e-07
2.21292e-06
1.37192e-07
2.25713e-06
1.26804e-07
2.29857e-06
1.17383e-07
2.33744e-06
1.08846e-07
2.37391e-06
1.01107e-07
2.40815e-06
9.40838e-08
2.44035e-06
8.7697e-08
8.19842e-08
2.47064e-06
1.01827e-06
1.63846e-07
1.09488e-06
1.57921e-07
1.17023e-06
1.63717e-07
1.24668e-06
1.54693e-07
1.32007e-06
1.44593e-07
1.38905e-06
1.34636e-07
1.45367e-06
1.24286e-07
1.514e-06
1.14255e-07
1.57013e-06
1.04954e-07
1.6223e-06
9.64485e-08
1.67076e-06
8.87262e-08
1.71582e-06
8.17519e-08
1.75773e-06
7.54664e-08
1.79678e-06
6.98004e-08
1.8332e-06
6.46863e-08
1.86722e-06
6.00632e-08
1.89907e-06
5.58517e-08
5.21275e-08
1.92892e-06
5.69236e-07
8.45264e-08
6.5898e-07
6.81781e-08
7.40758e-07
8.19387e-08
8.2085e-07
7.46017e-08
8.95844e-07
6.95985e-08
9.65391e-07
6.50883e-08
1.02981e-06
5.98722e-08
1.0893e-06
5.47563e-08
1.14417e-06
5.00903e-08
1.19475e-06
4.58634e-08
1.24143e-06
4.20465e-08
1.28457e-06
3.86189e-08
1.32449e-06
3.55467e-08
1.3615e-06
3.279e-08
1.39587e-06
3.03107e-08
1.42785e-06
2.80802e-08
1.45768e-06
2.60262e-08
2.41976e-08
1.48561e-06
2.22451e-07
2.90629e-07
3.72567e-07
4.47169e-07
5.16768e-07
5.81856e-07
6.41728e-07
6.96484e-07
7.46575e-07
7.92438e-07
8.34485e-07
8.73103e-07
9.0865e-07
9.4144e-07
9.71751e-07
9.99831e-07
1.02586e-06
1.05005e-06
1.92257e-08
-1.92257e-08
4.29579e-08
-2.37321e-08
6.32351e-08
-2.02772e-08
7.76351e-08
-1.44e-08
8.53368e-08
-7.70173e-09
8.63919e-08
-1.0551e-09
8.14866e-08
4.90535e-09
7.17609e-08
9.72571e-09
5.83704e-08
1.33905e-08
4.22031e-08
1.61673e-08
2.37775e-08
1.84256e-08
3.28742e-09
2.04901e-08
-1.93246e-08
2.26121e-08
-4.42602e-08
2.49356e-08
-7.17545e-08
2.74942e-08
-1.02027e-07
3.0272e-08
-1.35243e-07
3.32163e-08
-1.71497e-07
3.62545e-08
-2.10802e-07
3.93049e-08
-2.53086e-07
4.22834e-08
-2.98194e-07
4.51085e-08
-3.459e-07
4.77062e-08
-3.95915e-07
5.00142e-08
-4.47899e-07
5.19849e-08
-5.01487e-07
5.35872e-08
-5.56293e-07
5.48067e-08
-6.11938e-07
5.56448e-08
-6.68054e-07
5.61163e-08
-7.24304e-07
5.62494e-08
-7.8039e-07
5.60861e-08
-8.3607e-07
5.56799e-08
-8.91149e-07
5.50795e-08
-9.45463e-07
5.43138e-08
-9.98872e-07
5.34089e-08
-1.05126e-06
5.23909e-08
-1.10255e-06
5.12839e-08
-1.15266e-06
5.0109e-08
-1.20154e-06
4.88848e-08
-1.24917e-06
4.76263e-08
-1.29551e-06
4.63456e-08
-1.34056e-06
4.50521e-08
-1.38432e-06
4.37527e-08
-1.42677e-06
4.24523e-08
-1.46792e-06
4.11539e-08
-1.50778e-06
3.98593e-08
-1.54635e-06
3.85692e-08
-1.58364e-06
3.72835e-08
-1.61964e-06
3.60016e-08
-1.65436e-06
3.47225e-08
-1.6878e-06
3.3445e-08
-1.71997e-06
3.21678e-08
-1.75086e-06
3.08896e-08
-1.78047e-06
2.96093e-08
-1.8088e-06
2.83259e-08
-1.83584e-06
2.70384e-08
-1.86158e-06
2.57461e-08
-1.88603e-06
2.44485e-08
-1.90918e-06
2.31452e-08
-1.93101e-06
2.18358e-08
-1.95153e-06
2.05202e-08
-1.97073e-06
1.91982e-08
-1.9886e-06
1.78697e-08
-2.00513e-06
1.65344e-08
-2.02033e-06
1.51918e-08
-2.03417e-06
1.38413e-08
-2.04665e-06
1.24817e-08
-2.05776e-06
1.1111e-08
-2.06749e-06
9.7257e-09
-2.07581e-06
8.32189e-09
-2.0827e-06
6.8943e-09
-2.08814e-06
5.43558e-09
-2.09207e-06
3.93672e-09
-2.09447e-06
2.39348e-09
-2.09526e-06
7.8889e-10
-2.09456e-06
-6.98988e-10
-2.09257e-06
-1.98607e-09
-2.08936e-06
-3.20907e-09
-2.08497e-06
-4.39026e-09
-2.07942e-06
-5.54815e-09
-2.07273e-06
-6.69227e-09
-2.06491e-06
-7.82624e-09
-2.05595e-06
-8.95126e-09
-2.04589e-06
-1.00674e-08
-2.03471e-06
-1.11743e-08
-2.02244e-06
-1.22715e-08
-2.00908e-06
-1.33584e-08
-1.99465e-06
-1.44342e-08
-1.97915e-06
-1.54985e-08
-1.9626e-06
-1.65506e-08
-1.94501e-06
-1.759e-08
-1.92639e-06
-1.86162e-08
-1.90676e-06
-1.96286e-08
-1.88614e-06
-2.06269e-08
-1.86453e-06
-2.16106e-08
-1.84195e-06
-2.25791e-08
-1.81842e-06
-2.35322e-08
-1.79395e-06
-2.44694e-08
-1.76856e-06
-2.53903e-08
-1.74226e-06
-2.62944e-08
-1.71508e-06
-2.71814e-08
-1.68703e-06
-2.80508e-08
-1.65813e-06
-2.89023e-08
-1.62839e-06
-2.97355e-08
-1.59784e-06
-3.05499e-08
-1.5665e-06
-3.1345e-08
-1.53438e-06
-3.21206e-08
-1.5015e-06
-3.28761e-08
-1.46789e-06
-3.3611e-08
-1.43356e-06
-3.43248e-08
-1.39855e-06
-3.50171e-08
-1.36286e-06
-3.56873e-08
-1.32652e-06
-3.6335e-08
-1.28956e-06
-3.69596e-08
-1.252e-06
-3.75606e-08
-1.21387e-06
-3.81375e-08
-1.17518e-06
-3.86897e-08
-1.13596e-06
-3.92167e-08
-1.09624e-06
-3.9718e-08
-1.05605e-06
-4.0193e-08
-1.01541e-06
-4.06414e-08
-9.74345e-07
-4.10625e-08
-9.32889e-07
-4.1456e-08
-8.91068e-07
-4.18215e-08
-8.48909e-07
-4.21585e-08
-8.06443e-07
-4.24666e-08
-7.63697e-07
-4.27455e-08
-7.20702e-07
-4.2995e-08
-6.77487e-07
-4.32147e-08
-6.34083e-07
-4.34045e-08
-5.90519e-07
-4.35641e-08
-5.46825e-07
-4.36934e-08
-5.03033e-07
-4.37922e-08
-4.59173e-07
-4.38604e-08
-4.15275e-07
-4.38978e-08
-3.71371e-07
-4.39042e-08
-3.27492e-07
-4.38794e-08
-2.83669e-07
-4.38229e-08
-2.39935e-07
-4.37339e-08
-1.96323e-07
-4.36119e-08
-1.52869e-07
-4.34542e-08
-1.09606e-07
-4.32621e-08
-6.65694e-08
-4.3037e-08
-2.37968e-08
-4.27727e-08
1.86749e-08
-4.24716e-08
6.08041e-08
-4.21292e-08
1.02561e-07
-4.17571e-08
1.43932e-07
-4.13707e-08
1.84912e-07
-4.09798e-08
2.25494e-07
-4.05825e-08
2.65671e-07
-4.01764e-08
3.05431e-07
-3.97599e-08
3.44763e-07
-3.93322e-08
3.83656e-07
-3.88933e-08
4.221e-07
-3.84437e-08
4.60084e-07
-3.79842e-08
4.976e-07
-3.75156e-08
5.34639e-07
-3.70392e-08
5.71195e-07
-3.65561e-08
6.07262e-07
-3.60674e-08
6.42837e-07
-3.55744e-08
6.77915e-07
-3.50781e-08
7.12494e-07
-3.45792e-08
7.46572e-07
-3.40783e-08
7.80148e-07
-3.35756e-08
8.13218e-07
-3.30703e-08
8.45779e-07
-3.25611e-08
8.77824e-07
-3.20448e-08
9.0934e-07
-3.15165e-08
9.40309e-07
-3.09681e-08
9.70695e-07
-3.03867e-08
1.00045e-06
-2.97522e-08
1.02948e-06
-2.90322e-08
1.05765e-06
-2.81729e-08
1.08474e-06
-2.70826e-08
1.11032e-06
-2.55838e-08
1.13365e-06
-2.33336e-08
1.15303e-06
-1.93733e-08
1.16456e-06
-1.15375e-08
1.15562e-06
8.94048e-09
5.42435e-08
1.10138e-06
1.76402e-08
-3.68659e-08
2.73652e-08
-3.34572e-08
2.93314e-08
-2.22433e-08
2.56467e-08
-1.07154e-08
1.76599e-08
2.85069e-10
6.12595e-09
1.04789e-08
-8.67345e-09
1.97048e-08
-2.68096e-08
2.78619e-08
-4.84005e-08
3.49814e-08
-7.34945e-08
4.12613e-08
-1.02063e-07
4.69937e-08
-1.34036e-07
5.24639e-08
-1.69306e-07
5.78816e-08
-2.0773e-07
6.33594e-08
-2.49151e-07
6.89157e-08
-2.93375e-07
7.44961e-08
-3.4016e-07
8.00006e-08
-3.89211e-07
8.53056e-08
-4.40189e-07
9.02831e-08
-4.92719e-07
9.48135e-08
-5.46406e-07
9.87952e-08
-6.0085e-07
1.02151e-07
-6.55666e-07
1.0483e-07
-7.10495e-07
1.06814e-07
-7.65015e-07
1.08107e-07
-8.18949e-07
1.0874e-07
-8.72067e-07
1.08763e-07
-9.24191e-07
1.0824e-07
-9.75185e-07
1.07243e-07
-1.02495e-06
1.05853e-07
-1.07342e-06
1.04146e-07
-1.12053e-06
1.02191e-07
-1.16626e-06
1.00043e-07
-1.2106e-06
9.77495e-08
-1.25356e-06
9.53521e-08
-1.29516e-06
9.28843e-08
-1.33542e-06
9.03736e-08
-1.37438e-06
8.78415e-08
-1.41206e-06
8.53042e-08
-1.44849e-06
8.27732e-08
-1.48369e-06
8.02561e-08
-1.5177e-06
7.77573e-08
-1.55052e-06
7.52789e-08
-1.58219e-06
7.28209e-08
-1.61271e-06
7.0382e-08
-1.6421e-06
6.79599e-08
-1.67037e-06
6.55519e-08
-1.69752e-06
6.31547e-08
-1.72357e-06
6.0765e-08
-1.7485e-06
5.83797e-08
-1.77233e-06
5.59957e-08
-1.79505e-06
5.36104e-08
-1.81666e-06
5.12213e-08
-1.83716e-06
4.88265e-08
-1.85655e-06
4.64243e-08
-1.87482e-06
4.40136e-08
-1.89196e-06
4.15933e-08
-1.90798e-06
3.91629e-08
-1.92286e-06
3.67221e-08
-1.93661e-06
3.42709e-08
-1.94923e-06
3.18094e-08
-1.96069e-06
2.93378e-08
-1.97102e-06
2.68565e-08
-1.98019e-06
2.43659e-08
-1.98822e-06
2.18662e-08
-1.99509e-06
1.93579e-08
-2.00082e-06
1.68412e-08
-2.00541e-06
1.43167e-08
-2.00888e-06
1.17853e-08
-2.01123e-06
9.24928e-09
-2.01251e-06
6.7126e-09
-2.01276e-06
4.18363e-09
-2.01204e-06
1.68122e-09
-2.01048e-06
-7.73559e-10
-2.00801e-06
-3.17113e-09
-2.00449e-06
-5.50033e-09
-1.9999e-06
-7.80733e-09
-1.99419e-06
-1.00962e-08
-1.98737e-06
-1.23684e-08
-1.97944e-06
-1.46256e-08
-1.97039e-06
-1.68678e-08
-1.96025e-06
-1.90947e-08
-1.94901e-06
-2.13053e-08
-1.93669e-06
-2.34983e-08
-1.92329e-06
-2.56725e-08
-1.90882e-06
-2.78265e-08
-1.8933e-06
-2.99591e-08
-1.87673e-06
-3.2069e-08
-1.85912e-06
-3.4155e-08
-1.84049e-06
-3.6216e-08
-1.82086e-06
-3.8251e-08
-1.80023e-06
-4.02589e-08
-1.77862e-06
-4.22388e-08
-1.75604e-06
-4.41898e-08
-1.73251e-06
-4.6111e-08
-1.70804e-06
-4.80015e-08
-1.68265e-06
-4.98606e-08
-1.65635e-06
-5.16872e-08
-1.62916e-06
-5.34806e-08
-1.6011e-06
-5.524e-08
-1.57219e-06
-5.69645e-08
-1.54244e-06
-5.86533e-08
-1.51187e-06
-6.03056e-08
-1.4805e-06
-6.19205e-08
-1.44835e-06
-6.34972e-08
-1.41543e-06
-6.50347e-08
-1.38178e-06
-6.65322e-08
-1.3474e-06
-6.79887e-08
-1.31232e-06
-6.94032e-08
-1.27656e-06
-7.07747e-08
-1.24015e-06
-7.21021e-08
-1.2031e-06
-7.33845e-08
-1.16544e-06
-7.46208e-08
-1.12719e-06
-7.58101e-08
-1.08837e-06
-7.69511e-08
-1.04902e-06
-7.80429e-08
-1.00915e-06
-7.90844e-08
-9.68797e-07
-8.00745e-08
-9.27978e-07
-8.10123e-08
-8.86723e-07
-8.18967e-08
-8.45058e-07
-8.27269e-08
-8.03013e-07
-8.35018e-08
-7.60613e-07
-8.42207e-08
-7.17889e-07
-8.48827e-08
-6.74869e-07
-8.54872e-08
-6.31581e-07
-8.60334e-08
-5.88055e-07
-8.65207e-08
-5.44321e-07
-8.69487e-08
-5.00409e-07
-8.73169e-08
-4.56348e-07
-8.76249e-08
-4.12169e-07
-8.78724e-08
-3.67902e-07
-8.80591e-08
-3.23577e-07
-8.81849e-08
-2.79226e-07
-8.82493e-08
-2.34878e-07
-8.82522e-08
-1.90564e-07
-8.81931e-08
-1.46316e-07
-8.80714e-08
-1.02164e-07
-8.78856e-08
-5.81402e-08
-8.76357e-08
-1.42757e-08
-8.73186e-08
2.93964e-08
-8.69342e-08
7.28431e-08
-8.64837e-08
1.16037e-07
-8.59664e-08
1.58953e-07
-8.53879e-08
2.01573e-07
-8.47488e-08
2.43874e-07
-8.40585e-08
2.85837e-07
-8.33338e-08
3.27442e-07
-8.25844e-08
3.68671e-07
-8.18122e-08
4.09511e-07
-8.10164e-08
4.49948e-07
-8.01965e-08
4.89968e-07
-7.93526e-08
5.2956e-07
-7.84852e-08
5.68713e-07
-7.75959e-08
6.07415e-07
-7.66865e-08
6.45658e-07
-7.57589e-08
6.83435e-07
-7.48157e-08
7.20738e-07
-7.38591e-08
7.57562e-07
-7.28916e-08
7.93903e-07
-7.19156e-08
8.29758e-07
-7.09331e-08
8.65125e-07
-6.99457e-08
9.00001e-07
-6.89546e-08
9.34385e-07
-6.79599e-08
9.68275e-07
-6.69604e-08
1.00167e-06
-6.59531e-08
1.03455e-06
-6.49319e-08
1.06692e-06
-6.38869e-08
1.09876e-06
-6.2802e-08
1.13002e-06
-6.16517e-08
1.16067e-06
-6.0396e-08
1.19061e-06
-5.89712e-08
1.21971e-06
-5.72728e-08
1.24775e-06
-5.51243e-08
1.27436e-06
-5.21978e-08
1.29891e-06
-4.78836e-08
1.32028e-06
-4.07412e-08
1.33688e-06
-2.81421e-08
1.34714e-06
-1.31321e-09
5.37464e-08
1.34764e-06
3.53515e-09
-4.04011e-08
-2.61605e-09
-2.7306e-08
-1.35648e-08
-1.12945e-08
-2.77163e-08
3.43605e-09
-4.44784e-08
1.70472e-08
-6.36902e-08
2.96907e-08
-8.53853e-08
4.13999e-08
-1.09717e-07
5.21936e-08
-1.36871e-07
6.21349e-08
-1.66968e-07
7.1359e-08
-2.00018e-07
8.00435e-08
-2.35909e-07
8.83553e-08
-2.74433e-07
9.64056e-08
-3.15305e-07
1.04232e-07
-3.58191e-07
1.11801e-07
-4.02726e-07
1.19031e-07
-4.48531e-07
1.25806e-07
-4.95229e-07
1.32004e-07
-5.42458e-07
1.37512e-07
-5.89883e-07
1.42238e-07
-6.37205e-07
1.46117e-07
-6.84171e-07
1.49117e-07
-7.30578e-07
1.51237e-07
-7.76268e-07
1.52504e-07
-8.2113e-07
1.52969e-07
-8.65092e-07
1.52702e-07
-9.08112e-07
1.51784e-07
-9.50173e-07
1.50301e-07
-9.91275e-07
1.48345e-07
-1.03142e-06
1.46e-07
-1.07062e-06
1.43347e-07
-1.10889e-06
1.40456e-07
-1.14623e-06
1.37386e-07
-1.18267e-06
1.34185e-07
-1.21821e-06
1.30895e-07
-1.25288e-06
1.27548e-07
-1.28667e-06
1.24169e-07
-1.31961e-06
1.20776e-07
-1.35169e-06
1.17385e-07
-1.38291e-06
1.14002e-07
-1.41329e-06
1.10634e-07
-1.44282e-06
1.07283e-07
-1.47149e-06
1.03949e-07
-1.4993e-06
1.0063e-07
-1.52624e-06
9.73228e-08
-1.5523e-06
9.40249e-08
-1.57748e-06
9.07319e-08
-1.60177e-06
8.74397e-08
-1.62515e-06
8.41442e-08
-1.64761e-06
8.08418e-08
-1.66914e-06
7.75291e-08
-1.68974e-06
7.42029e-08
-1.70937e-06
7.08609e-08
-1.72805e-06
6.7501e-08
-1.74575e-06
6.41218e-08
-1.76246e-06
6.07222e-08
-1.77816e-06
5.73017e-08
-1.79286e-06
5.38603e-08
-1.80654e-06
5.03983e-08
-1.81918e-06
4.69165e-08
-1.83079e-06
4.34158e-08
-1.84135e-06
3.98977e-08
-1.85086e-06
3.63635e-08
-1.85931e-06
3.28152e-08
-1.86669e-06
2.92549e-08
-1.87302e-06
2.56847e-08
-1.87829e-06
2.21076e-08
-1.8825e-06
1.85267e-08
-1.88566e-06
1.49462e-08
-1.88778e-06
1.13715e-08
-1.88888e-06
7.80955e-09
-1.88896e-06
4.26927e-09
-1.88804e-06
7.60614e-10
-1.88611e-06
-2.70624e-09
-1.88314e-06
-6.13696e-09
-1.87911e-06
-9.53842e-09
-1.87399e-06
-1.29211e-08
-1.8678e-06
-1.62876e-08
-1.86053e-06
-1.96378e-08
-1.85219e-06
-2.29705e-08
-1.84277e-06
-2.62842e-08
-1.83229e-06
-2.95769e-08
-1.82075e-06
-3.28466e-08
-1.80815e-06
-3.60912e-08
-1.79452e-06
-3.93086e-08
-1.77985e-06
-4.24968e-08
-1.76415e-06
-4.56537e-08
-1.74744e-06
-4.87775e-08
-1.72973e-06
-5.18665e-08
-1.71103e-06
-5.49187e-08
-1.69135e-06
-5.79328e-08
-1.6707e-06
-6.09071e-08
-1.6491e-06
-6.38401e-08
-1.62656e-06
-6.67306e-08
-1.60309e-06
-6.95771e-08
-1.57872e-06
-7.23784e-08
-1.55344e-06
-7.51332e-08
-1.52729e-06
-7.78401e-08
-1.50027e-06
-8.04979e-08
-1.47241e-06
-8.31053e-08
-1.44371e-06
-8.5661e-08
-1.4142e-06
-8.81638e-08
-1.38389e-06
-9.06124e-08
-1.35281e-06
-9.30056e-08
-1.32096e-06
-9.5342e-08
-1.28838e-06
-9.76203e-08
-1.25507e-06
-9.98391e-08
-1.22106e-06
-1.01997e-07
-1.18637e-06
-1.04092e-07
-1.15102e-06
-1.06124e-07
-1.11504e-06
-1.0809e-07
-1.07843e-06
-1.09988e-07
-1.04124e-06
-1.11819e-07
-1.00347e-06
-1.13579e-07
-9.6515e-07
-1.15268e-07
-9.2631e-07
-1.16883e-07
-8.86971e-07
-1.18423e-07
-8.47158e-07
-1.19887e-07
-8.06897e-07
-1.21273e-07
-7.66214e-07
-1.2258e-07
-7.25136e-07
-1.23805e-07
-6.83689e-07
-1.24949e-07
-6.41901e-07
-1.26009e-07
-5.998e-07
-1.26984e-07
-5.57413e-07
-1.27874e-07
-5.14769e-07
-1.28677e-07
-4.71898e-07
-1.29392e-07
-4.28828e-07
-1.30019e-07
-3.85587e-07
-1.30557e-07
-3.42207e-07
-1.31005e-07
-2.98715e-07
-1.31364e-07
-2.55143e-07
-1.31632e-07
-2.11519e-07
-1.31809e-07
-1.67872e-07
-1.31895e-07
-1.24234e-07
-1.3189e-07
-8.06339e-08
-1.31794e-07
-3.71009e-08
-1.31604e-07
6.33541e-09
-1.31322e-07
4.96442e-08
-1.30945e-07
9.27963e-08
-1.30471e-07
1.35763e-07
-1.29901e-07
1.78516e-07
-1.29237e-07
2.21034e-07
-1.28484e-07
2.63299e-07
-1.27653e-07
3.05298e-07
-1.26748e-07
3.47011e-07
-1.25771e-07
3.88412e-07
-1.24734e-07
4.29474e-07
-1.23647e-07
4.70179e-07
-1.22516e-07
5.10506e-07
-1.21344e-07
5.50442e-07
-1.20132e-07
5.89971e-07
-1.18882e-07
6.29081e-07
-1.17595e-07
6.6776e-07
-1.16275e-07
7.05998e-07
-1.14925e-07
7.43786e-07
-1.13547e-07
7.81116e-07
-1.12146e-07
8.17983e-07
-1.10725e-07
8.5438e-07
-1.09289e-07
8.90303e-07
-1.07839e-07
9.25751e-07
-1.06381e-07
9.6072e-07
-1.04915e-07
9.9521e-07
-1.03444e-07
1.02922e-06
-1.01968e-07
1.06274e-06
-1.00486e-07
1.09578e-06
-9.89921e-08
1.12833e-06
-9.74781e-08
1.16037e-06
-9.59293e-08
1.19189e-06
-9.43219e-08
1.22286e-06
-9.26186e-08
1.25322e-06
-9.07609e-08
1.28291e-06
-8.86569e-08
1.31179e-06
-8.61576e-08
1.33968e-06
-8.30153e-08
1.36628e-06
-7.87913e-08
1.39109e-06
-7.26979e-08
1.41345e-06
-6.31003e-08
1.43248e-06
-4.71751e-08
1.44872e-06
-1.75444e-08
3.67171e-08
1.46575e-06
-1.12841e-08
-2.9117e-08
-2.87548e-08
-9.83528e-09
-4.83448e-08
8.29554e-09
-6.94799e-08
2.45711e-08
-9.21316e-08
3.96989e-08
-1.16385e-07
5.39442e-08
-1.42382e-07
6.73964e-08
-1.70276e-07
8.0088e-08
-2.00195e-07
9.2054e-08
-2.3219e-07
1.03353e-07
-2.66204e-07
1.14058e-07
-3.02079e-07
1.24229e-07
-3.39565e-07
1.33892e-07
-3.78361e-07
1.43027e-07
-4.18135e-07
1.51575e-07
-4.58554e-07
1.5945e-07
-4.99304e-07
1.66556e-07
-5.40102e-07
1.72802e-07
-5.80709e-07
1.78119e-07
-6.20932e-07
1.82461e-07
-6.60629e-07
1.85814e-07
-6.99701e-07
1.88189e-07
-7.38091e-07
1.89627e-07
-7.75775e-07
1.90188e-07
-8.12754e-07
1.89948e-07
-8.49043e-07
1.88992e-07
-8.84669e-07
1.8741e-07
-9.19662e-07
1.85294e-07
-9.54047e-07
1.8273e-07
-9.87847e-07
1.798e-07
-1.02108e-06
1.76577e-07
-1.05374e-06
1.73125e-07
-1.08586e-06
1.69497e-07
-1.11741e-06
1.65739e-07
-1.1484e-06
1.61887e-07
-1.17882e-06
1.5797e-07
-1.20867e-06
1.54011e-07
-1.23792e-06
1.50026e-07
-1.26656e-06
1.46027e-07
-1.29458e-06
1.4202e-07
-1.32195e-06
1.38011e-07
-1.34867e-06
1.34e-07
-1.37471e-06
1.29988e-07
-1.40005e-06
1.25971e-07
-1.42467e-06
1.21948e-07
-1.44856e-06
1.17915e-07
-1.4717e-06
1.13867e-07
-1.49406e-06
1.09801e-07
-1.51563e-06
1.05713e-07
-1.53639e-06
1.01599e-07
-1.55631e-06
9.7457e-08
-1.57539e-06
9.32836e-08
-1.59361e-06
8.9077e-08
-1.61095e-06
8.48357e-08
-1.62738e-06
8.05588e-08
-1.64291e-06
7.6246e-08
-1.6575e-06
7.18976e-08
-1.67116e-06
6.75145e-08
-1.68386e-06
6.30978e-08
-1.69559e-06
5.86494e-08
-1.70634e-06
5.41714e-08
-1.71611e-06
4.96664e-08
-1.72489e-06
4.51373e-08
-1.73266e-06
4.05874e-08
-1.73942e-06
3.60202e-08
-1.74518e-06
3.14397e-08
-1.74992e-06
2.68504e-08
-1.75365e-06
2.22569e-08
-1.75637e-06
1.76649e-08
-1.75808e-06
1.30801e-08
-1.75878e-06
8.50914e-09
-1.75847e-06
3.95854e-09
-1.75714e-06
-5.66178e-10
-1.75479e-06
-5.06152e-09
-1.75139e-06
-9.52967e-09
-1.74696e-06
-1.39758e-08
-1.74147e-06
-1.84039e-08
-1.73495e-06
-2.28145e-08
-1.72738e-06
-2.72064e-08
-1.71877e-06
-3.15775e-08
-1.70913e-06
-3.59251e-08
-1.69846e-06
-4.02464e-08
-1.68677e-06
-4.45385e-08
-1.67406e-06
-4.87985e-08
-1.66035e-06
-5.30235e-08
-1.64563e-06
-5.72107e-08
-1.62993e-06
-6.13575e-08
-1.61325e-06
-6.54613e-08
-1.59559e-06
-6.95198e-08
-1.57698e-06
-7.35306e-08
-1.55742e-06
-7.74916e-08
-1.53693e-06
-8.14007e-08
-1.51551e-06
-8.5256e-08
-1.49319e-06
-8.90557e-08
-1.46997e-06
-9.27979e-08
-1.44586e-06
-9.64808e-08
-1.42089e-06
-1.00103e-07
-1.39507e-06
-1.03662e-07
-1.36841e-06
-1.07157e-07
-1.34093e-06
-1.10586e-07
-1.31265e-06
-1.13946e-07
-1.28357e-06