/*--------------------------------*- C++ -*----------------------------------*\
| =========                 |                                                 |
| \\      /  F ield         | OpenFOAM: The Open Source CFD Toolbox           |
|  \\    /   O peration     | Version:  2412                                  |
|   \\  /    A nd           | Website:  www.openfoam.com                      |
|    \\/     M anipulation  |                                                 |
\*---------------------------------------------------------------------------*/
FoamFile
{
    version     2.0;
    format      ascii;
    arch        "LSB;label=32;scalar=64";
    class       volVectorField;
    location    "0.21";
    object      U;
}
// * * * * * * * * * * * * * * * * * * * * * * * * * * * * * * * * * * * * * //

dimensions      [0 1 -1 0 0 0 0];

internalField   nonuniform List<vector> 
12225
(
(0.377183 -0.200896 0)
(0.543962 -0.0519272 0)
(0.711049 -0.0340152 0)
(0.893985 -0.0304777 0)
(1.05912 -0.0297482 0)
(1.20887 -0.028454 0)
(1.34619 -0.0265201 0)
(1.4705 -0.0245776 0)
(1.58225 -0.0227687 0)
(1.68273 -0.0210765 0)
(1.7731 -0.0194985 0)
(1.85431 -0.0180265 0)
(1.9272 -0.016639 0)
(1.99244 -0.0152942 0)
(2.05038 -0.013968 0)
(2.10188 -0.0125088 0)
(2.1431 -0.0103466 0)
(2.1907 -0.0128414 0)
(0.933503 -0.0317784 0)
(1.0567 -0.0587107 0)
(1.23664 -0.0689013 0)
(1.42156 -0.0644863 0)
(1.58553 -0.0618147 0)
(1.73443 -0.058969 0)
(1.87134 -0.0555675 0)
(1.99606 -0.0521807 0)
(2.10907 -0.0489392 0)
(2.21142 -0.0458502 0)
(2.30407 -0.0429283 0)
(2.38788 -0.0401591 0)
(2.46357 -0.0375008 0)
(2.53177 -0.0348739 0)
(2.59288 -0.0322177 0)
(2.64726 -0.0290835 0)
(2.69442 -0.0260726 0)
(2.73631 -0.015916 0)
(1.39962 -0.084682 0)
(1.49179 -0.105678 0)
(1.65466 -0.107238 0)
(1.8226 -0.101943 0)
(1.97269 -0.0979917 0)
(2.11039 -0.0936549 0)
(2.23777 -0.0887437 0)
(2.35451 -0.0838013 0)
(2.46097 -0.0790003 0)
(2.5579 -0.0743871 0)
(2.64607 -0.0699872 0)
(2.72616 -0.0657818 0)
(2.79878 -0.0617113 0)
(2.86445 -0.0576687 0)
(2.92358 -0.0535224 0)
(2.97639 -0.0488515 0)
(3.02307 -0.0436311 0)
(3.06291 -0.0341139 0)
(1.89741 -0.115425 0)
(1.94623 -0.14331 0)
(2.07521 -0.144985 0)
(2.21748 -0.140769 0)
(2.34799 -0.135781 0)
(2.46974 -0.130048 0)
(2.58354 -0.123699 0)
(2.68869 -0.117213 0)
(2.78527 -0.110827 0)
(2.87375 -0.104643 0)
(2.95465 -0.098704 0)
(3.02845 -0.0929914 0)
(3.09562 -0.0874344 0)
(3.1566 -0.0819031 0)
(3.21172 -0.076216 0)
(3.26115 -0.0699501 0)
(3.30544 -0.0628143 0)
(3.34302 -0.0518062 0)
(2.43108 -0.125831 0)
(2.44051 -0.169893 0)
(2.52881 -0.177414 0)
(2.64003 -0.176175 0)
(2.74681 -0.171234 0)
(2.84904 -0.164735 0)
(2.94618 -0.157383 0)
(3.03703 -0.149685 0)
(3.12128 -0.141971 0)
(3.19907 -0.134415 0)
(3.27065 -0.127091 0)
(3.33629 -0.119991 0)
(3.39633 -0.113045 0)
(3.45105 -0.106111 0)
(3.50074 -0.0989792 0)
(3.54553 -0.0912422 0)
(3.58625 -0.0824648 0)
(3.62083 -0.0703749 0)
(2.99683 -0.123685 0)
(2.97697 -0.185372 0)
(3.02469 -0.201463 0)
(3.10203 -0.204957 0)
(3.18211 -0.201579 0)
(3.26198 -0.195263 0)
(3.33996 -0.187561 0)
(3.41425 -0.179171 0)
(3.4841 -0.170552 0)
(3.54929 -0.161969 0)
(3.6098 -0.153545 0)
(3.66569 -0.145299 0)
(3.71712 -0.137173 0)
(3.76424 -0.129029 0)
(3.80729 -0.120655 0)
(3.84633 -0.111679 0)
(3.88239 -0.101649 0)
(3.9129 -0.0889822 0)
(3.58832 -0.114509 0)
(3.55089 -0.190587 0)
(3.56321 -0.215897 0)
(3.60679 -0.225323 0)
(3.65875 -0.225013 0)
(3.71444 -0.219967 0)
(3.77142 -0.212694 0)
(3.82737 -0.204237 0)
(3.88112 -0.195227 0)
(3.93212 -0.186047 0)
(3.98007 -0.176887 0)
(4.02482 -0.16781 0)
(4.06635 -0.158783 0)
(4.10469 -0.14969 0)
(4.13999 -0.140337 0)
(4.17226 -0.130414 0)
(4.2026 -0.119529 0)
(4.22794 -0.106647 0)
(4.1988 -0.101768 0)
(4.15397 -0.18708 0)
(4.13919 -0.220712 0)
(4.15218 -0.236317 0)
(4.17669 -0.240148 0)
(4.20778 -0.237402 0)
(4.24283 -0.231373 0)
(4.27935 -0.223529 0)
(4.31585 -0.214705 0)
(4.35147 -0.205418 0)
(4.38571 -0.195947 0)
(4.4182 -0.186413 0)
(4.44878 -0.176822 0)
(4.47734 -0.167097 0)
(4.50393 -0.157081 0)
(4.5285 -0.146539 0)
(4.55216 -0.135178 0)
(4.5713 -0.122365 0)
(4.82185 -0.0878112 0)
(4.77662 -0.17688 0)
(4.7439 -0.21685 0)
(4.7319 -0.237836 0)
(4.73179 -0.246135 0)
(4.73956 -0.246418 0)
(4.75305 -0.242343 0)
(4.77 -0.235764 0)
(4.78881 -0.227711 0)
(4.80848 -0.218837 0)
(4.82831 -0.209518 0)
(4.84783 -0.199942 0)
(4.8667 -0.190172 0)
(4.88472 -0.180176 0)
(4.90186 -0.169851 0)
(4.91799 -0.159044 0)
(4.93415 -0.147569 0)
(4.94625 -0.135084 0)
(5.45146 -0.0741117 0)
(5.4095 -0.162016 0)
(5.36682 -0.205836 0)
(5.33653 -0.230655 0)
(5.31636 -0.242911 0)
(5.30384 -0.24643 0)
(5.2976 -0.244743 0)
(5.29601 -0.239925 0)
(5.29767 -0.233152 0)
(5.30157 -0.225177 0)
(5.30696 -0.216464 0)
(5.3133 -0.207274 0)
(5.32016 -0.197725 0)
(5.32728 -0.187843 0)
(5.33453 -0.177585 0)
(5.34171 -0.166874 0)
(5.34982 -0.155634 0)
(5.35424 -0.143715 0)
(6.08167 -0.0613974 0)
(6.04411 -0.144178 0)
(5.99713 -0.189328 0)
(5.95493 -0.216171 0)
(5.92006 -0.231258 0)
(5.89156 -0.237635 0)
(5.86882 -0.238355 0)
(5.851 -0.235509 0)
(5.83712 -0.23033 0)
(5.82636 -0.223616 0)
(5.81806 -0.215888 0)
(5.81169 -0.20746 0)
(5.80682 -0.198508 0)
(5.80313 -0.18911 0)
(5.80048 -0.179282 0)
(5.79858 -0.169014 0)
(5.79839 -0.158327 0)
(5.79485 -0.147199 0)
(6.65461 -0.0506058 0)
(6.62055 -0.126203 0)
(6.57304 -0.170582 0)
(6.52477 -0.197767 0)
(6.48113 -0.214225 0)
(6.44231 -0.222483 0)
(6.40815 -0.225036 0)
(6.37842 -0.223857 0)
(6.35264 -0.220163 0)
(6.33028 -0.214735 0)
(6.31085 -0.208103 0)
(6.29391 -0.200609 0)
(6.27909 -0.192463 0)
(6.26612 -0.183782 0)
(6.25481 -0.174626 0)
(6.24486 -0.165038 0)
(6.23723 -0.155075 0)
(6.22646 -0.144913 0)
(7.20973 -0.0406585 0)
(7.18016 -0.107391 0)
(7.13447 -0.149604 0)
(7.08342 -0.176134 0)
(7.03445 -0.192971 0)
(6.98881 -0.202348 0)
(6.9466 -0.206227 0)
(6.90798 -0.206379 0)
(6.87291 -0.203979 0)
(6.84117 -0.199768 0)
(6.81248 -0.194249 0)
(6.78653 -0.187769 0)
(6.76307 -0.180552 0)
(6.74187 -0.172741 0)
(6.72279 -0.164427 0)
(6.70552 -0.15569 0)
(6.69097 -0.1466 0)
(6.67355 -0.137541 0)
(7.81811 -0.0310698 0)
(7.79338 -0.0861262 0)
(7.75173 -0.123841 0)
(7.70083 -0.148298 0)
(7.64926 -0.164334 0)
(7.59954 -0.173965 0)
(7.55199 -0.178617 0)
(7.50698 -0.179735 0)
(7.46481 -0.1784 0)
(7.42556 -0.175305 0)
(7.38914 -0.170907 0)
(7.35544 -0.165528 0)
(7.32432 -0.159393 0)
(7.29564 -0.152653 0)
(7.26932 -0.145417 0)
(7.2451 -0.137783 0)
(7.22383 -0.129844 0)
(7.20002 -0.122067 0)
(8.45855 -0.0222961 0)
(8.43893 -0.0637656 0)
(8.40342 -0.0942493 0)
(8.35609 -0.114667 0)
(8.30535 -0.12831 0)
(8.25483 -0.136919 0)
(8.20527 -0.141461 0)
(8.15715 -0.142939 0)
(8.11102 -0.142228 0)
(8.0672 -0.139932 0)
(8.02581 -0.136448 0)
(7.98686 -0.132061 0)
(7.95031 -0.126978 0)
(7.91614 -0.121348 0)
(7.88432 -0.115286 0)
(7.85466 -0.108894 0)
(7.82794 -0.102266 0)
(7.79907 -0.0958929 0)
(9.08866 -0.0143718 0)
(9.07383 -0.0417377 0)
(9.04561 -0.0628469 0)
(9.00496 -0.0771925 0)
(8.95897 -0.0866205 0)
(8.91168 -0.0925012 0)
(8.8642 -0.0955262 0)
(8.81707 -0.0963066 0)
(8.77097 -0.0954365 0)
(8.72645 -0.0933628 0)
(8.68379 -0.0903826 0)
(8.64313 -0.0867061 0)
(8.60454 -0.0824937 0)
(8.56804 -0.0778703 0)
(8.53369 -0.072937 0)
(8.50134 -0.0677897 0)
(8.47171 -0.0624973 0)
(8.44047 -0.0575676 0)
(9.63295 -0.00707402 0)
(9.6217 -0.0207094 0)
(9.59988 -0.0314012 0)
(9.5666 -0.038386 0)
(9.52747 -0.0424252 0)
(9.48644 -0.0443503 0)
(9.44473 -0.0446118 0)
(9.40276 -0.0435485 0)
(9.36113 -0.0415034 0)
(9.32041 -0.0387599 0)
(9.28096 -0.0355136 0)
(9.243 -0.0319017 0)
(9.20663 -0.028032 0)
(9.17194 -0.0239954 0)
(9.13902 -0.0198651 0)
(9.10776 -0.0157216 0)
(9.07874 -0.011579 0)
(9.04895 -0.00793117 0)
(9.96404 0.000106822 0)
(9.95459 0.000161592 0)
(9.93649 0.000620598 0)
(9.90812 0.00186629 0)
(9.87423 0.00381075 0)
(9.83859 0.00626259 0)
(9.80247 0.00911741 0)
(9.76622 0.0123036 0)
(9.7303 0.0157369 0)
(9.6952 0.0193368 0)
(9.66123 0.0230405 0)
(9.62855 0.0267985 0)
(9.59722 0.0305647 0)
(9.56729 0.0342912 0)
(9.53877 0.0379356 0)
(9.51163 0.0414342 0)
(9.48602 0.0448117 0)
(9.46096 0.0476525 0)
(9.87499 0.00747338 0)
(9.86688 0.0217982 0)
(9.84987 0.0342122 0)
(9.82249 0.0444127 0)
(9.78959 0.0528239 0)
(9.75498 0.0599282 0)
(9.71994 0.0660225 0)
(9.68484 0.0713221 0)
(9.65015 0.0760238 0)
(9.61637 0.0802865 0)
(9.58382 0.084218 0)
(9.55265 0.0878865 0)
(9.52289 0.0913344 0)
(9.49459 0.0945847 0)
(9.46771 0.0976463 0)
(9.44227 0.100501 0)
(9.418 0.103186 0)
(9.39593 0.10542 0)
(9.28437 0.0159186 0)
(9.27065 0.0461983 0)
(9.24578 0.071184 0)
(9.20981 0.0904077 0)
(9.16897 0.105229 0)
(9.12725 0.11685 0)
(9.08576 0.125952 0)
(9.04488 0.133079 0)
(9.00516 0.138741 0)
(8.96709 0.143345 0)
(8.93094 0.147168 0)
(8.89678 0.150401 0)
(8.86463 0.153182 0)
(8.83445 0.155612 0)
(8.80615 0.157761 0)
(8.77973 0.159678 0)
(8.75468 0.161414 0)
(8.73301 0.162821 0)
(8.47101 0.0260906 0)
(8.45236 0.0738094 0)
(8.4197 0.11035 0)
(8.37625 0.136886 0)
(8.32995 0.156536 0)
(8.28453 0.171148 0)
(8.24069 0.181756 0)
(8.19875 0.189316 0)
(8.15919 0.194689 0)
(8.12229 0.198502 0)
(8.08811 0.20118 0)
(8.05658 0.20303 0)
(8.02757 0.204283 0)
(8.00095 0.20511 0)
(7.97654 0.205634 0)
(7.95423 0.205955 0)
(7.93352 0.20613 0)
(7.91643 0.206118 0)
(7.51239 0.0385239 0)
(7.4866 0.104505 0)
(7.44644 0.150231 0)
(7.39954 0.181361 0)
(7.35393 0.203341 0)
(7.3118 0.218469 0)
(7.27313 0.228272 0)
(7.23801 0.234289 0)
(7.20653 0.237734 0)
(7.17859 0.239408 0)
(7.15392 0.23985 0)
(7.13223 0.239454 0)
(7.11322 0.238502 0)
(7.09661 0.237199 0)
(7.08215 0.235686 0)
(7.06962 0.234072 0)
(7.05852 0.232412 0)
(7.05059 0.23073 0)
(6.48931 0.0542255 0)
(6.45655 0.136904 0)
(6.41294 0.186953 0)
(6.37062 0.218557 0)
(6.33487 0.239394 0)
(6.30524 0.252044 0)
(6.28102 0.258747 0)
(6.26179 0.261584 0)
(6.24696 0.261944 0)
(6.23588 0.26068 0)
(6.22792 0.258374 0)
(6.22258 0.255438 0)
(6.2194 0.252156 0)
(6.21801 0.24872 0)
(6.2181 0.245259 0)
(6.21943 0.241862 0)
(6.22155 0.238574 0)
(6.22587 0.235451 0)
(5.45712 0.07339 0)
(5.41829 0.166491 0)
(5.37868 0.214118 0)
(5.35276 0.241944 0)
(5.33862 0.258334 0)
(5.33244 0.266091 0)
(5.33267 0.268266 0)
(5.33804 0.267189 0)
(5.34717 0.264176 0)
(5.35898 0.26001 0)
(5.37269 0.255223 0)
(5.38771 0.250169 0)
(5.40362 0.245073 0)
(5.42005 0.240074 0)
(5.43677 0.235258 0)
(5.45359 0.230677 0)
(5.47019 0.226354 0)
(5.48771 0.222352 0)
(4.45282 0.0947776 0)
(4.41205 0.187412 0)
(4.39047 0.225935 0)
(4.39659 0.246396 0)
(4.41647 0.25592 0)
(4.44333 0.257823 0)
(4.47523 0.255574 0)
(4.51031 0.251188 0)
(4.54686 0.245645 0)
(4.58382 0.239541 0)
(4.62059 0.233272 0)
(4.65674 0.227081 0)
(4.69198 0.221108 0)
(4.72615 0.215429 0)
(4.75914 0.210082 0)
(4.79092 0.205083 0)
(4.82132 0.200434 0)
(4.8513 0.196197 0)
(3.50293 0.114452 0)
(3.47301 0.192921 0)
(3.48913 0.217648 0)
(3.54119 0.228888 0)
(3.60259 0.231463 0)
(3.66647 0.228829 0)
(3.73175 0.223824 0)
(3.79671 0.217715 0)
(3.85994 0.211105 0)
(3.9208 0.204392 0)
(3.97904 0.197831 0)
(4.03453 0.191562 0)
(4.08724 0.185654 0)
(4.13723 0.180137 0)
(4.18459 0.175013 0)
(4.22945 0.170273 0)
(4.27183 0.165904 0)
(4.31256 0.161978 0)
(2.62982 0.122983 0)
(2.63207 0.176389 0)
(2.70177 0.18797 0)
(2.80469 0.191086 0)
(2.90733 0.189112 0)
(3.00603 0.184595 0)
(3.10159 0.178921 0)
(3.19303 0.172737 0)
(3.2795 0.166444 0)
(3.36088 0.160296 0)
(3.43732 0.154439 0)
(3.50901 0.148945 0)
(3.57623 0.143842 0)
(3.63924 0.139127 0)
(3.69834 0.134787 0)
(3.75383 0.130798 0)
(3.80587 0.127139 0)
(3.85524 0.123903 0)
(1.85178 0.104826 0)
(1.90638 0.134439 0)
(2.03033 0.141898 0)
(2.17813 0.140515 0)
(2.31586 0.137038 0)
(2.44341 0.132922 0)
(2.56365 0.128104 0)
(2.67647 0.122992 0)
(2.78154 0.117946 0)
(2.87914 0.113119 0)
(2.96981 0.108584 0)
(3.05407 0.104378 0)
(3.13243 0.100505 0)
(3.20537 0.0969519 0)
(3.27336 0.0936982 0)
(3.33684 0.0907204 0)
(3.39611 0.0879832 0)
(3.45193 0.0855936 0)
(1.17533 0.04169 0)
(1.28238 0.0661058 0)
(1.43868 0.0889872 0)
(1.61659 0.0891777 0)
(1.78034 0.086231 0)
(1.92915 0.0833323 0)
(2.06741 0.079835 0)
(2.19583 0.0761189 0)
(2.31431 0.0725294 0)
(2.42343 0.0691509 0)
(2.52405 0.0660085 0)
(2.61698 0.0631181 0)
(2.70291 0.0604761 0)
(2.78251 0.0580663 0)
(2.85637 0.0558684 0)
(2.92505 0.0538653 0)
(2.98896 0.0519953 0)
(3.04882 0.0503577 0)
(0.469485 0.226529 0)
(0.642364 0.0691631 0)
(0.788938 0.0480259 0)
(0.972454 0.0444106 0)
(1.14912 0.0429724 0)
(1.30916 0.0416797 0)
(1.45687 0.0396469 0)
(1.59324 0.0373316 0)
(1.71808 0.0351136 0)
(1.83213 0.0330657 0)
(1.93657 0.0311835 0)
(2.03242 0.0294651 0)
(2.12056 0.0279039 0)
(2.20177 0.0264869 0)
(2.27676 0.0251984 0)
(2.34615 0.0240311 0)
(2.41047 0.0229319 0)
(2.47002 0.0219797 0)
(0.0089373 -0.0186743 -2.69124e-20)
(0.0280214 -0.0302374 2.62574e-20)
(0.0474597 -0.0307086 0)
(0.0634142 -0.025424 0)
(0.0735565 -0.017397 0)
(0.0777815 -0.00855979 -2.46614e-20)
(0.0758532 -0.000364025 0)
(0.0690572 0.00609614 0)
(0.0586002 0.0105061 0)
(0.0453457 0.0132352 0)
(0.0299019 0.0149454 2.41533e-20)
(0.0125606 0.0162416 0)
(-0.00661532 0.0175497 0)
(-0.0277527 0.0191312 0)
(-0.0510947 0.0211057 0)
(-0.0768525 0.0234773 2.27437e-20)
(-0.105205 0.0261858 0)
(-0.136277 0.0291447 0)
(-0.17012 0.0322544 0)
(-0.206712 0.0354067 0)
(-0.245954 0.0384909 0)
(-0.287678 0.0414006 0)
(-0.331653 0.0440408 0)
(-0.377597 0.0463342 1.93616e-20)
(-0.425195 0.0482249 -1.89796e-20)
(-0.474105 0.0496803 1.8614e-20)
(-0.523984 0.0506911 1.8266e-20)
(-0.5745 0.0512702 0)
(-0.625347 0.0514535 0)
(-0.676231 0.0512976 -1.73301e-20)
(-0.726865 0.0508692 -1.70521e-20)
(-0.777105 0.0502301 0)
(-0.826792 0.0494099 0)
(-0.875778 0.0484372 -1.63091e-20)
(-0.923951 0.0473429 0)
(-0.97122 0.0461558 0)
(-1.01751 0.0449013 1.56809e-20)
(-1.06278 0.0436014 0)
(-1.10698 0.0422739 1.53111e-20)
(-1.15008 0.0409333 3.02754e-20)
(-1.19208 0.0395904 0)
(-1.23296 0.0382535 0)
(-1.27271 0.0369282 0)
(-1.31135 0.0356182 0)
(-1.34886 0.0343258 0)
(-1.38525 0.0330519 2.84132e-20)
(-1.42053 0.0317965 2.81261e-20)
(-1.45469 0.0305593 2.78426e-20)
(-1.48774 0.0293392 0)
(-1.51967 0.0281353 -2.72824e-20)
(-1.55049 0.0269462 0)
(-1.5802 0.0257709 2.67259e-20)
(-1.60879 0.024608 2.6447e-20)
(-1.63626 0.0234566 0)
(-1.6626 0.0223158 0)
(-1.6878 0.0211848 0)
(-1.71187 0.0200628 2.53132e-20)
(-1.73479 0.0189494 0)
(-1.75655 0.0178439 0)
(-1.77715 0.0167458 0)
(-1.79659 0.0156545 0)
(-1.81484 0.0145691 0)
(-1.83191 0.0134886 0)
(-1.84779 0.0124113 0)
(-1.86246 0.0113353 0)
(-1.87592 0.010258 -2.25213e-20)
(-1.88816 0.00917605 0)
(-1.89915 0.00808541 0)
(-1.90889 0.00698119 2.14836e-20)
(-1.91735 0.00585835 2.1124e-20)
(-1.9245 0.00471365 0)
(-1.93032 0.00355096 -2.03841e-20)
(-1.93476 0.00239028 2.00039e-20)
(-1.93777 0.00127164 0)
(-1.93928 0.000244516 -1.92204e-20)
(-1.93951 -0.000648161 0)
(-1.93866 -0.00143666 0)
(-1.9367 -0.00218036 1.79771e-20)
(-1.93366 -0.00289826 0)
(-1.92956 -0.00359862 -1.71069e-20)
(-1.92441 -0.00428455 0)
(-1.91821 -0.00495732 1.62034e-20)
(-1.91097 -0.0056174 1.57394e-20)
(-1.90269 -0.00626486 1.52672e-20)
(-1.89338 -0.00689968 2.9574e-20)
(-1.88305 -0.00752176 -2.85977e-20)
(-1.8717 -0.00813099 0)
(-1.85934 -0.00872728 0)
(-1.84598 -0.00931053 0)
(-1.83163 -0.00988067 -2.45392e-20)
(-1.8163 -0.0104377 -2.34878e-20)
(-1.8 -0.0109815 2.24224e-20)
(-1.78273 -0.011512 0)
(-1.76452 -0.0120294 -2.02511e-20)
(-1.74536 -0.0125335 -1.91461e-20)
(-1.72527 -0.0130243 -1.80287e-20)
(-1.70427 -0.0135019 0)
(-1.68236 -0.0139662 0)
(-1.65956 -0.0144173 0)
(-1.63588 -0.0148551 -1.34464e-20)
(-1.61133 -0.0152796 0)
(-1.58593 -0.0156908 0)
(-1.55969 -0.0160888 9.90638e-21)
(-1.53263 -0.0164735 0)
(-1.50476 -0.0168448 0)
(-1.4761 -0.0172028 6.29596e-21)
(-1.44666 -0.0175474 0)
(-1.41646 -0.0178785 0)
(-1.38552 -0.0181961 -2.63314e-21)
(-1.35385 -0.0185001 -1.40388e-21)
(-1.32147 -0.0187905 0)
(-1.2884 -0.0190671 -1.06263e-21)
(-1.25466 -0.0193298 0)
(-1.22026 -0.0195787 3.5346e-21)
(-1.18524 -0.0198135 0)
(-1.1496 -0.0200342 6.00559e-21)
(-1.11337 -0.0202406 7.23866e-21)
(-1.07657 -0.0204328 0)
(-1.03923 -0.0206105 0)
(-1.00136 -0.0207738 0)
(-0.962991 -0.0209225 0)
(-0.924145 -0.0210566 0)
(-0.884847 -0.021176 0)
(-0.845121 -0.0212807 0)
(-0.804993 -0.0213706 1.69327e-20)
(-0.764488 -0.0214458 -1.81102e-20)
(-0.723633 -0.0215061 0)
(-0.682453 -0.0215517 0)
(-0.640976 -0.0215826 0)
(-0.599229 -0.0215987 0)
(-0.557239 -0.0216002 -4.76472e-20)
(-0.515034 -0.0215871 0)
(-0.472642 -0.0215595 5.20249e-20)
(-0.430091 -0.0215173 -5.41661e-20)
(-0.38741 -0.0214607 0)
(-0.344627 -0.0213895 0)
(-0.301772 -0.0213036 0)
(-0.258874 -0.0212028 6.23802e-20)
(-0.215966 -0.0210865 6.43394e-20)
(-0.173079 -0.0209531 0)
(-0.130246 -0.0207987 6.81363e-20)
(-0.0875003 -0.0206215 6.99723e-20)
(-0.0448721 -0.0204179 -7.17661e-20)
(-0.00239134 -0.0201599 0)
(0.0398529 -0.0198144 0)
(0.0818697 -0.0194323 -7.50742e-20)
(0.123642 -0.0190553 0)
(0.165154 -0.0186876 0)
(0.206398 -0.0183265 0)
(0.247365 -0.0179697 0)
(0.288047 -0.017616 7.78992e-20)
(0.328433 -0.0172646 7.832e-20)
(0.368512 -0.0169153 0)
(0.408272 -0.0165683 7.90329e-20)
(0.447703 -0.0162237 0)
(0.486796 -0.0158818 0)
(0.52554 -0.0155432 7.98078e-20)
(0.56393 -0.0152081 0)
(0.601958 -0.0148769 8.01475e-20)
(0.639619 -0.0145502 0)
(0.676909 -0.014228 0)
(0.713825 -0.0139107 8.04218e-20)
(0.750363 -0.0135984 0)
(0.786522 -0.013291 8.04636e-20)
(0.822299 -0.0129882 0)
(0.85769 -0.0126893 0)
(0.89269 -0.0123932 0)
(0.927289 -0.0120982 -8.02536e-20)
(0.961469 -0.0118013 0)
(0.995203 -0.0114984 8.00228e-20)
(1.02845 -0.0111827 0)
(1.06113 -0.0108436 0)
(1.09314 -0.0104639 0)
(1.12428 -0.0100142 0)
(1.15424 -0.0094371 0)
(1.18232 -0.00862535 0)
(1.20778 -0.00725712 0)
(1.22601 -0.00455334 -1.58146e-19)
(1.23979 0.00260603 0)
(1.19368 0.0177266 0)
(0.00993832 -0.0591374 7.93116e-20)
(0.022151 -0.0631438 -7.49006e-20)
(0.0262273 -0.0476866 0)
(0.0251784 -0.0296941 4.45979e-20)
(0.0199816 -0.0120024 0)
(0.0112533 0.00435645 2.11111e-20)
(-0.000334226 0.0186672 -4.14193e-20)
(-0.0149352 0.0305492 -4.06472e-20)
(-0.0326282 0.040135 0)
(-0.0534457 0.0479643 -3.90898e-20)
(-0.0773841 0.054723 -1.9193e-20)
(-0.104403 0.0610208 0)
(-0.13443 0.0672779 0)
(-0.167364 0.0737224 0)
(-0.203082 0.0804195 0)
(-0.241433 0.0873038 -1.72919e-20)
(-0.282228 0.0942292 0)
(-0.325231 0.101011 3.29956e-20)
(-0.370162 0.107454 0)
(-0.416701 0.113374 0)
(-0.464503 0.118613 -3.08699e-20)
(-0.513209 0.123044 0)
(-0.562468 0.126582 2.95694e-20)
(-0.611943 0.129182 -1.45234e-20)
(-0.661328 0.130843 1.42334e-20)
(-0.710353 0.131597 -1.39591e-20)
(-0.758792 0.131506 -1.37005e-20)
(-0.80646 0.130655 0)
(-0.853219 0.129145 0)
(-0.898965 0.127092 1.30151e-20)
(-0.94362 0.124614 -1.27449e-20)
(-0.987128 0.121809 0)
(-1.02945 0.118755 0)
(-1.07057 0.115515 1.22767e-20)
(-1.1105 0.112149 0)
(-1.14924 0.108704 0)
(-1.18681 0.10522 -1.18183e-20)
(-1.22323 0.10173 0)
(-1.25854 0.0982572 1.1473e-20)
(-1.29275 0.0948204 -2.28313e-20)
(-1.32589 0.0914319 0)
(-1.35798 0.0880996 0)
(-1.38904 0.0848279 -4.40564e-20)
(-1.41909 0.0816182 -4.35927e-20)
(-1.44813 0.07847 -4.31376e-20)
(-1.47619 0.0753813 2.12746e-20)
(-1.50327 0.0723491 -2.11924e-20)
(-1.52937 0.06937 -6.278e-20)
(-1.5545 0.0664401 4.13725e-20)
(-1.57867 0.0635558 2.05334e-20)
(-1.60186 0.0607134 0)
(-1.62409 0.0579098 -2.00953e-20)
(-1.64535 0.0551419 1.97593e-20)
(-1.66562 0.0524073 0)
(-1.68492 0.0497038 0)
(-1.70324 0.0470297 0)
(-1.72057 0.0443838 -1.89765e-20)
(-1.7369 0.041765 0)
(-1.75222 0.0391726 3.69416e-20)
(-1.76655 0.0366062 0)
(-1.77986 0.0340653 3.5998e-20)
(-1.79215 0.0315498 0)
(-1.80342 0.0290593 -3.50243e-20)
(-1.81366 0.0265935 0)
(-1.82287 0.0241518 3.4017e-20)
(-1.83105 0.0217332 -1.6734e-20)
(-1.83819 0.0193367 0)
(-1.84431 0.0169606 -3.24374e-20)
(-1.8494 0.0146032 -1.595e-20)
(-1.85347 0.0122624 -1.56681e-20)
(-1.85655 0.00993619 0)
(-1.85867 0.00762477 -1.51047e-20)
(-1.85988 0.00534 -1.47927e-20)
(-1.86025 0.00311523 0)
(-1.85987 0.00099649 1.41788e-20)
(-1.85862 -0.000995129 -2.77671e-20)
(-1.85635 -0.00288486 0)
(-1.85308 -0.00470949 -1.3215e-20)
(-1.84877 -0.00648435 0)
(-1.84344 -0.00821768 3.77117e-20)
(-1.83707 -0.00991282 0)
(-1.82968 -0.0115711 -3.56586e-20)
(-1.82126 -0.0131927 -1.15043e-20)
(-1.81182 -0.0147776 1.12502e-20)
(-1.80137 -0.0163255 2.17904e-20)
(-1.78992 -0.0178361 -2.10703e-20)
(-1.77746 -0.0193089 0)
(-1.76401 -0.0207438 0)
(-1.74957 -0.0221405 0)
(-1.73415 -0.0234988 5.36959e-20)
(-1.71777 -0.0248186 1.70204e-20)
(-1.70043 -0.0261 -1.62316e-20)
(-1.68214 -0.0273428 0)
(-1.66291 -0.0285472 -1.49754e-20)
(-1.64275 -0.0297131 1.38178e-20)
(-1.62168 -0.0308407 1.29985e-20)
(-1.5997 -0.03193 0)
(-1.57683 -0.0329812 0)
(-1.55307 -0.0339943 0)
(-1.52845 -0.0349695 9.65727e-21)
(-1.50297 -0.035907 0)
(-1.47666 -0.0368068 -1.63419e-20)
(-1.44951 -0.0376692 -2.17293e-20)
(-1.42155 -0.0384942 1.29182e-20)
(-1.3928 -0.039282 0)
(-1.36326 -0.0400328 4.96765e-21)
(-1.33295 -0.0407465 0)
(-1.30189 -0.0414234 5.98916e-21)
(-1.2701 -0.0420633 -2.36927e-21)
(-1.23759 -0.0426665 -1.4994e-21)
(-1.20439 -0.043233 0)
(-1.1705 -0.0437629 1.75357e-21)
(-1.13595 -0.0442562 -2.74685e-21)
(-1.10076 -0.044713 -2.50842e-21)
(-1.06494 -0.0451333 0)
(-1.02852 -0.0455172 -4.25584e-21)
(-0.991523 -0.0458648 -1.48429e-20)
(-0.953964 -0.0461762 0)
(-0.915867 -0.0464514 -1.31724e-20)
(-0.877256 -0.0466907 -1.48891e-20)
(-0.838152 -0.0468941 -1.6597e-20)
(-0.798581 -0.0470618 0)
(-0.758566 -0.047194 0)
(-0.718132 -0.0472911 0)
(-0.677304 -0.0473532 1.13852e-20)
(-0.636108 -0.0473807 1.27583e-20)
(-0.594569 -0.0473739 0)
(-0.552715 -0.0473333 2.82178e-20)
(-0.510572 -0.0472592 2.98178e-20)
(-0.468166 -0.0471522 0)
(-0.425526 -0.0470127 3.35039e-20)
(-0.382678 -0.0468412 6.90125e-20)
(-0.33965 -0.0466383 -3.65638e-20)
(-0.296471 -0.0464044 -3.69987e-20)
(-0.253168 -0.0461399 0)
(-0.209771 -0.0458452 0)
(-0.166307 -0.0455204 0)
(-0.122806 -0.0451651 -4.38162e-20)
(-0.0792968 -0.0447781 4.41782e-20)
(-0.0358104 -0.0443584 9.20833e-20)
(0.0076231 -0.0439039 -4.77202e-20)
(0.0509723 -0.0434141 4.76765e-20)
(0.094209 -0.0428936 4.94599e-20)
(0.137307 -0.0423444 0)
(0.180238 -0.0417533 0)
(0.222993 -0.0411288 -5.08737e-20)
(0.26555 -0.0404933 0)
(0.307888 -0.0398563 0)
(0.349988 -0.039219 1.06758e-19)
(0.391836 -0.0385808 0)
(0.433418 -0.0379407 5.41993e-20)
(0.474721 -0.0372986 -5.55181e-20)
(0.515731 -0.0366549 0)
(0.556438 -0.03601 5.58046e-20)
(0.596831 -0.0353649 0)
(0.6369 -0.0347206 0)
(0.676636 -0.0340781 -5.7794e-20)
(0.716032 -0.0334385 1.157e-19)
(0.755081 -0.032803 -5.85111e-20)
(0.79378 -0.0321724 0)
(0.832123 -0.0315476 0)
(0.870107 -0.0309293 5.8842e-20)
(0.907731 -0.030318 0)
(0.944993 -0.0297134 5.9352e-20)
(0.98189 -0.0291152 0)
(1.01842 -0.028522 0)
(1.05457 -0.0279312 0)
(1.09035 -0.0273389 6.05733e-20)
(1.12572 -0.0267385 0)
(1.16067 -0.0261201 -6.0809e-20)
(1.19515 -0.0254681 0)
(1.22909 -0.0247578 0)
(1.26239 -0.0239489 1.21724e-19)
(1.29485 -0.0229732 -1.21871e-19)
(1.32621 -0.0217005 0)
(1.35588 -0.0198885 0)
(1.38325 -0.0169006 0)
(1.40561 -0.0115547 3.6927e-19)
(1.42558 0.000786509 0)
(1.42795 0.0256653 -2.49791e-19)
(0.00326717 -0.0802047 -1.01553e-22)
(0.00166864 -0.0627762 9.62469e-20)
(-0.00667304 -0.03547 0)
(-0.0177832 -0.0100553 -8.07396e-20)
(-0.0314759 0.013146 0)
(-0.0474476 0.0341605 0)
(-0.0656201 0.0530589 3.79494e-23)
(-0.0860795 0.0699013 3.441e-20)
(-0.108991 0.0848485 3.35719e-20)
(-0.134505 0.0982344 3.28679e-20)
(-0.162688 0.110497 0)
(-0.193498 0.12205 0)
(-0.226795 0.133189 -3.06884e-20)
(-0.262356 0.144047 -5.99828e-20)
(-0.299905 0.15461 5.86068e-20)
(-0.33913 0.164754 0)
(-0.379699 0.174293 5.59251e-20)
(-0.421274 0.183019 -2.73399e-20)
(-0.463523 0.190732 0)
(-0.506132 0.197268 5.21408e-20)
(-0.548818 0.202506 2.54901e-20)
(-0.591332 0.20638 -4.98194e-20)
(-0.63347 0.208878 -2.43665e-20)
(-0.675071 0.210038 0)
(-0.716015 0.209939 4.66852e-20)
(-0.756221 0.208695 4.57362e-20)
(-0.795639 0.206441 0)
(-0.834245 0.203324 4.39777e-20)
(-0.872031 0.199498 0)
(-0.908999 0.19511 4.23945e-20)
(-0.945157 0.190295 2.08382e-20)
(-0.980512 0.185173 0)
(-1.01507 0.17984 0)
(-1.04885 0.174377 0)
(-1.08186 0.16885 0)
(-1.11412 0.163311 0)
(-1.14563 0.157801 0)
(-1.1764 0.152348 3.74279e-20)
(-1.20644 0.146974 -5.54138e-20)
(-1.23575 0.141692 0)
(-1.26433 0.136509 0)
(-1.29218 0.131428 0)
(-1.3193 0.126448 7.90474e-23)
(-1.34568 0.121567 3.46998e-20)
(-1.37131 0.116779 6.84692e-20)
(-1.3962 0.11208 -6.76355e-20)
(-1.42032 0.107462 -3.33661e-20)
(-1.44367 0.102919 3.30444e-20)
(-1.46624 0.0984456 -8.17948e-23)
(-1.48802 0.0940356 3.21661e-20)
(-1.50899 0.0896839 0)
(-1.52914 0.085386 3.13817e-20)
(-1.54847 0.0811379 -7.42514e-23)
(-1.56696 0.0769364 0)
(-1.58459 0.0727791 0)
(-1.60136 0.0686639 -2.98205e-20)
(-1.61725 0.0645895 0)
(-1.63225 0.0605551 0)
(-1.64635 0.0565604 2.85825e-20)
(-1.65954 0.0526052 5.64707e-20)
(-1.67181 0.0486899 -2.78759e-20)
(-1.68315 0.044815 0)
(-1.69355 0.0409813 2.70464e-20)
(-1.70301 0.0371897 0)
(-1.71152 0.0334412 2.61484e-20)
(-1.71907 0.0297372 2.57663e-20)
(-1.72567 0.0260792 -5.06292e-20)
(-1.73131 0.0224696 -2.48679e-20)
(-1.736 0.0189117 0)
(-1.73974 0.0154107 4.79697e-20)
(-1.74255 0.0119741 0)
(-1.74443 0.00861214 6.91948e-20)
(-1.7454 0.005338 4.52044e-20)
(-1.74545 0.00216312 4.42454e-20)
(-1.74456 -0.000912907 -4.32684e-20)
(-1.74271 -0.00391363 6.33862e-20)
(-1.73987 -0.00685525 0)
(-1.73603 -0.00973795 0)
(-1.7312 -0.0125624 -3.92452e-20)
(-1.72537 -0.0153287 -5.72516e-20)
(-1.71854 -0.0180367 0)
(-1.71071 -0.0206861 1.79753e-20)
(-1.7019 -0.023276 0)
(-1.69209 -0.025806 -5.08029e-20)
(-1.6813 -0.0282751 1.73138e-22)
(-1.66954 -0.0306828 -1.83893e-22)
(-1.6568 -0.0330285 3.05762e-20)
(-1.6431 -0.0353117 0)
(-1.62844 -0.0375319 -2.82854e-20)
(-1.61283 -0.039689 2.25337e-22)
(-1.59628 -0.0417828 0)
(-1.5788 -0.0438131 0)
(-1.56039 -0.04578 0)
(-1.54107 -0.0476835 2.21045e-20)
(-1.52085 -0.0495238 0)
(-1.49974 -0.0513009 0)
(-1.47774 -0.0530151 0)
(-1.45487 -0.0546665 0)
(-1.43115 -0.0562554 0)
(-1.40658 -0.057782 1.49707e-20)
(-1.38118 -0.0592464 0)
(-1.35495 -0.060649 1.21204e-20)
(-1.32793 -0.0619901 1.08453e-20)
(-1.30011 -0.0632698 -9.56623e-21)
(-1.27151 -0.0644885 0)
(-1.24214 -0.0656464 -6.99837e-21)
(-1.21204 -0.0667437 0)
(-1.18119 -0.0677806 -4.42197e-21)
(-1.14964 -0.0687571 3.13223e-21)
(-1.11738 -0.0696736 6.28471e-21)
(-1.08445 -0.0705301 0)
(-1.05085 -0.0713269 -1.42891e-21)
(-1.0166 -0.0720641 -1.23662e-21)
(-0.981728 -0.0727419 0)
(-0.94625 -0.0733604 -8.37012e-21)
(-0.910184 -0.0739199 -1.09158e-20)
(-0.873552 -0.0744204 2.05845e-20)
(-0.836375 -0.0748623 0)
(-0.798675 -0.0752459 9.65728e-21)
(-0.760473 -0.0755713 1.09099e-20)
(-0.721793 -0.075839 3.56371e-20)
(-0.682657 -0.0760494 0)
(-0.64309 -0.0762028 0)
(-0.603116 -0.0762998 0)
(-0.562758 -0.0763409 1.62118e-20)
(-0.522044 -0.0763267 0)
(-0.480996 -0.076258 0)
(-0.439643 -0.0761354 -2.06009e-20)
(-0.398009 -0.0759598 -2.17612e-20)
(-0.356122 -0.075732 0)
(-0.314007 -0.075453 0)
(-0.271692 -0.0751236 -5.03186e-20)
(-0.229204 -0.0747447 0)
(-0.18657 -0.0743174 5.47008e-20)
(-0.143818 -0.0738424 5.60406e-20)
(-0.100974 -0.0733203 0)
(-0.058068 -0.0727514 0)
(-0.0151262 -0.0721365 -6.226e-20)
(0.0278229 -0.0714756 -7.71968e-22)
(0.0707511 -0.0707683 -7.58699e-22)
(0.113631 -0.0700144 0)
(0.156435 -0.0692154 -1.37723e-19)
(0.199138 -0.0683759 0)
(0.241721 -0.0675042 0)
(0.284174 -0.0666048 0)
(0.326481 -0.0656795 7.45226e-20)
(0.368616 -0.064736 0)
(0.410556 -0.0637813 -1.52607e-19)
(0.452277 -0.0628182 -7.81019e-20)
(0.49376 -0.0618476 0)
(0.534989 -0.0608702 -8.02672e-20)
(0.57595 -0.0598867 0)
(0.616628 -0.0588982 0)
(0.657012 -0.0579062 -2.48459e-19)
(0.697091 -0.0569121 1.6708e-19)
(0.736855 -0.0559177 0)
(0.776296 -0.0549249 1.7047e-19)
(0.815407 -0.0539354 -8.65293e-20)
(0.854181 -0.0529511 0)
(0.892614 -0.0519735 0)
(0.930702 -0.051004 0)
(0.968443 -0.0500439 -2.66895e-19)
(1.00583 -0.0490936 0)
(1.04288 -0.0481534 -9.04257e-20)
(1.07956 -0.0472222 0)
(1.1159 -0.0462979 0)
(1.15187 -0.0453767 0)
(1.18747 -0.0444521 0)
(1.22269 -0.0435139 0)
(1.2575 -0.0425463 0)
(1.29186 -0.0415248 -1.86321e-19)
(1.32571 -0.0404108 0)
(1.35894 -0.0391423 -9.41648e-20)
(1.39139 -0.0376153 2.82808e-19)
(1.42283 -0.0356432 0)
(1.4528 -0.0328853 0)
(1.48086 -0.0285981 -1.90578e-19)
(1.50541 -0.0214657 -1.92294e-19)
(1.52851 -0.00775895 1.93709e-19)
(1.54305 0.0184564 1.9639e-19)
(-0.00554026 -0.0695321 -1.54599e-19)
(-0.0177999 -0.0381531 -1.38554e-19)
(-0.0340973 -0.00560459 -8.13373e-20)
(-0.0518992 0.0235671 -3.68127e-20)
(-0.0713172 0.0501937 0)
(-0.0921746 0.0746978 6.53478e-20)
(-0.114522 0.0972587 -3.14255e-20)
(-0.138503 0.117985 0)
(-0.16426 0.137017 -2.97353e-20)
(-0.191884 0.154562 0)
(-0.221378 0.17086 5.65807e-20)
(-0.252648 0.186124 0)
(-0.285509 0.20048 2.69733e-20)
(-0.319712 0.213951 5.26464e-20)
(-0.354972 0.226466 -5.13695e-20)
(-0.390989 0.23789 0)
(-0.427472 0.248062 -4.88962e-20)
(-0.464153 0.256823 0)
(-0.500796 0.264049 0)
(-0.53721 0.26966 -4.54316e-20)
(-0.573243 0.273627 0)
(-0.60879 0.275978 -6.3696e-23)
(-0.643782 0.276785 0)
(-0.678183 0.27616 0)
(-0.711986 0.274244 6.92712e-23)
(-0.745198 0.271194 -3.95861e-20)
(-0.77784 0.267175 -3.88252e-20)
(-0.809938 0.262354 -3.79759e-20)
(-0.841516 0.256887 0)
(-0.872598 0.250921 -7.30935e-20)
(-0.903199 0.244582 0)
(-0.933329 0.237983 -3.52455e-20)
(-0.962995 0.231215 0)
(-0.992196 0.224352 0)
(-1.02093 0.217455 3.34835e-20)
(-1.0492 0.210569 0)
(-1.07698 0.20373 -3.24363e-20)
(-1.10427 0.196962 -2.22675e-24)
(-1.13106 0.190281 6.29523e-20)
(-1.15732 0.183698 -6.20352e-20)
(-1.18305 0.177218 0)
(-1.20823 0.170841 0)
(-1.23284 0.164566 -2.97186e-20)
(-1.25686 0.158388 0)
(-1.28028 0.152301 -2.8972e-20)
(-1.30307 0.1463 2.85903e-20)
(-1.32522 0.140378 2.82157e-20)
(-1.34671 0.134529 0)
(-1.36752 0.128746 -2.74837e-20)
(-1.38764 0.123023 -2.71246e-20)
(-1.40705 0.117357 5.34815e-20)
(-1.42572 0.111743 -2.6416e-20)
(-1.44364 0.106178 -2.6065e-20)
(-1.4608 0.100658 0)
(-1.47718 0.0951827 0)
(-1.49276 0.0897505 2.50179e-20)
(-1.50753 0.084361 0)
(-1.52147 0.0790145 0)