/*--------------------------------*- C++ -*----------------------------------*\
| =========                 |                                                 |
| \\      /  F ield         | OpenFOAM: The Open Source CFD Toolbox           |
|  \\    /   O peration     | Version:  2412                                  |
|   \\  /    A nd           | Website:  www.openfoam.com                      |
|    \\/     M anipulation  |                                                 |
\*---------------------------------------------------------------------------*/
FoamFile
{
    version     2.0;
    format      ascii;
    arch        "LSB;label=32;scalar=64";
    class       volScalarField;
    location    "0.27";
    object      epsilon;
}
// * * * * * * * * * * * * * * * * * * * * * * * * * * * * * * * * * * * * * //

dimensions      [0 2 -3 0 0 0 0];

internalField   nonuniform List<scalar> 
12225
(
448.248
622.894
830.557
1004.83
1150.4
1270.22
1368.62
1449.63
1516.36
1571.37
1616.74
1654.12
1684.8
1709.78
1729.83
1745.35
1756.67
1766.59
173.744
302.084
403.102
480.178
539.345
585.698
622.138
650.861
673.574
691.54
705.724
716.876
725.587
732.324
737.49
741.335
744.653
744.494
119.435
232.402
315.512
376.255
421.162
455.029
480.63
499.96
514.534
525.462
533.57
539.484
543.694
546.587
548.492
549.675
550.567
550.234
97.6414
199.979
277.776
334.832
376.772
407.859
430.863
447.789
460.145
469.044
475.313
479.575
482.315
483.911
484.683
484.909
484.923
484.521
83.6526
176.289
251.577
308.548
351.099
382.721
406.064
423.141
435.483
444.243
450.285
454.271
456.709
458.001
458.479
458.434
458.17
457.712
71.9917
153.972
226.31
283.823
328.194
361.835
387.033
405.699
419.345
429.146
436.009
440.635
443.571
445.251
446.032
446.219
446.095
445.751
61.3441
131.281
198.624
255.576
301.538
337.583
365.348
386.457
402.304
414.029
422.546
428.582
432.716
435.412
437.052
437.956
438.39
438.454
51.6696
108.73
168.486
222.629
268.751
306.556
336.797
360.607
379.12
393.343
404.135
412.209
418.15
422.438
425.47
427.573
429.003
429.849
43.2224
87.6449
137.684
186.322
230.295
268.238
299.979
326.013
347.069
363.91
377.255
387.739
395.909
402.232
407.098
410.83
413.67
415.684
36.1697
69.2408
108.63
149.499
188.75
224.538
255.992
282.973
305.731
324.696
340.357
353.204
363.691
372.224
379.159
384.792
389.34
392.833
30.4983
54.138
83.3273
115.312
147.811
179.109
208.06
234.087
257.019
276.934
294.053
308.662
321.069
331.58
340.473
347.992
354.312
359.41
26.3765
43.197
64.282
88.2374
113.644
139.251
164.035
187.296
208.643
227.909
245.089
260.276
273.623
285.308
295.518
304.42
312.131
318.556
23.1424
34.7463
49.3125
66.2676
84.8734
104.383
124.075
143.343
161.749
179.007
194.964
209.563
222.815
234.781
245.544
255.191
263.77
271.124
20.3782
27.6942
36.7517
47.4266
59.4445
72.4821
86.1712
100.139
114.056
127.659
140.749
153.193
164.907
175.852
186.019
195.412
204.012
211.616
18.1499
22.2405
27.1487
32.9136
39.489
46.795
54.7159
63.1047
71.804
80.663
89.5465
98.3388
106.946
115.295
123.332
131.012
138.28
144.932
16.4706
18.3567
20.5272
23.0282
25.8741
29.0686
32.6036
36.4546
40.5836
44.945
49.4892
54.166
58.9265
63.7247
68.5188
73.269
77.9269
82.3596
15.3281
15.873
16.4958
17.2132
18.0328
18.9608
20.0036
21.1642
22.4422
23.8339
25.3332
26.9317
28.6187
30.3805
32.2031
34.0727
35.9716
37.8575
14.7508
14.6757
14.6369
14.6352
14.6697
14.7396
14.8449
14.986
15.163
15.3758
15.6241
15.9075
16.2249
16.5767
16.9621
17.3791
17.8249
18.2954
14.8977
14.9733
15.0873
15.2435
15.4418
15.6822
15.9649
16.29
16.6563
17.0625
17.5063
17.9853
18.4962
19.0359
19.6007
20.187
20.7902
21.3965
15.9708
17.2606
18.7266
20.3956
22.2739
24.3609
26.6497
29.1247
31.7619
34.5327
37.4059
40.3501
43.3345
46.3305
49.312
52.2562
55.1383
57.8982
18.0497
21.997
26.6903
32.1487
38.3094
45.0765
52.3264
59.9128
67.6847
75.5019
83.2425
90.8058
98.1124
105.104
111.739
117.993
123.845
129.252
21.5632
30.653
41.9215
55.0382
69.4978
84.7823
100.381
115.834
130.777
144.949
158.186
170.395
181.543
191.639
200.723
208.849
216.079
222.457
27.2186
45.3008
67.7872
92.9388
119.107
145.003
169.646
192.394
212.924
231.138
247.087
260.908
272.781
282.908
291.489
298.716
304.761
309.786
35.7146
67.677
105.679
144.952
182.519
216.745
246.821
272.575
294.23
312.19
326.913
338.857
348.445
356.055
362.012
366.597
370.05
372.595
47.408
97.6117
152.03
202.691
246.855
283.889
314.074
338.201
357.206
371.976
383.289
391.804
398.068
402.526
405.541
407.406
408.365
408.652
61.8882
131.752
198.706
254.807
299.835
335.071
362.112
382.56
397.801
408.962
416.94
422.438
426.011
428.09
429.011
429.04
428.39
427.276
78.4671
165.762
239.653
296.704
339.787
371.976
395.787
413.193
425.729
434.563
440.58
444.45
446.681
447.661
447.688
446.993
445.758
444.17
99.5998
200.965
279.478
337.821
380.456
411.806
434.888
451.764
463.979
472.689
478.744
482.772
485.249
486.538
486.915
486.595
485.746
484.537
144.792
258.314
348.613
417.597
468.464
506.746
535.87
558.047
574.949
587.822
597.579
604.903
610.317
614.228
616.952
618.738
619.78
620.278
366.941
498.482
666.582
808.025
923.442
1016.68
1091.7
1152.36
1201.64
1241.81
1274.65
1301.59
1323.75
1342.03
1357.12
1369.6
1379.91
1388.47
0.829648
0.797428
1.17622
1.51173
1.79291
2.03422
2.29459
2.59619
2.92717
3.29025
3.6935
4.15523
4.73551
5.4871
6.36055
7.35333
8.47008
9.72041
11.1146
12.6614
14.3675
16.2369
18.2718
20.4726
22.8388
25.37
28.0668
30.932
33.9717
37.1977
40.6289
44.253
48.0324
51.9597
56.03
60.2389
64.5821
69.0558
73.6563
78.3802
83.2245
88.186
93.2618
98.4488
103.744
109.145
114.647
120.248
125.944
131.73
137.604
143.56
149.594
155.7
161.874
168.109
174.401
180.743
187.128
193.551
200.004
206.481
212.974
219.476
225.98
232.479
238.965
245.43
251.868
258.273
264.64
270.967
277.257
283.521
289.787
296.009
302.13
308.15
314.067
319.878
325.576
331.153
336.604
341.921
347.097
352.126
357.002
361.718
366.268
370.647
374.849
378.869
382.703
386.345
389.792
393.039
396.083
398.92
401.547
403.961
406.16
408.141
409.902
411.441
412.758
413.851
414.718
415.36
415.776
415.966
415.93
415.669
415.184
414.476
413.547
412.397
411.031
409.449
407.656
405.653
403.445
401.034
398.426
395.625
392.635
389.461
386.109
382.584
378.892
375.039
371.032
366.877
362.581
358.15
353.594
348.918
344.13
339.24
334.248
329.18
324.024
318.816
313.6
308.636
305.374
302.701
300.003
297.238
294.404
291.507
288.55
285.538
282.478
279.373
276.23
273.053
269.848
266.619
263.372
260.111
256.842
253.569
250.297
247.029
243.769
240.522
237.289
234.072
230.872
227.689
224.519
221.356
218.188
214.993
211.733
208.335
204.639
200.241
194.457
186.593
2.6043
1.44788
1.29454
1.35113
1.50125
1.72594
2.01959
2.38404
2.80889
3.29848
3.85717
4.49028
5.20412
6.00034
6.87223
7.81428
8.82193
9.89103
11.0174
12.197
13.4256
14.6999
16.0168
17.3746
18.7722
20.2096
21.6877
23.2078
24.7717
26.3807
28.0353
29.7336
31.4729
33.2527
35.0728
36.9331
38.8334
40.7732
42.7523
44.7702
46.8261
48.9195
51.0495
53.2154
55.416
57.6504
59.9173
62.2156
64.5438
66.9005
69.2843
71.6935
74.1264
76.5811
79.056
81.5489
84.058
86.5811
89.1161
91.6607
94.2128
96.7699
99.3298
101.89
104.448
107.002
109.549
112.088
114.616
117.131
119.635
122.127
124.61
127.09
129.584
132.083
134.554
136.989
139.386
141.743
144.057
146.326
148.547
150.718
152.835
154.897
156.9
158.844
160.724
162.54
164.289
165.968
167.577
169.113
170.574
171.959
173.267
174.495
175.643
176.708
177.691
178.59
179.404
180.132
180.774
181.328
181.795
182.173
182.462
182.663
182.775
182.798
182.732
182.578
182.335
182.004
181.586
181.082
180.492
179.816
179.057
178.216
177.293
176.29
175.209
174.051
172.818
171.512
170.135
168.69
167.177
165.6
163.961
162.263
160.508
158.698
156.837
154.927
152.968
150.973
148.925
146.857
144.796
142.806
141.105
139.54
137.99
136.425
134.84
133.234
131.609
129.966
128.308
126.636
124.954
123.262
121.563
119.859
118.153
116.447
114.741
113.04
111.343
109.654
107.973
106.302
104.644
102.998
101.366
99.7487
98.1464
96.5588
94.985
93.4233
91.8707
90.3236
88.7735
87.232
85.891
85.9297
4.71132
2.29354
1.93877
1.96232
2.1378
2.3999
2.73959
3.15663
3.64945
4.21548
4.85051
5.54916
6.30543
7.11257
7.96348
8.85206
9.77358
10.7247
11.7031
12.7075
13.7374
14.7932
15.8755
16.9856
18.1247
19.2943
20.4955
21.7293
22.9963
24.2965
25.6295
26.9946
28.3909
29.8178
31.2749
32.7614
34.2768
35.8205
37.392
38.9905
40.6155
42.2664
43.9425
45.6431
47.3676
49.1152
50.8853
52.6769
54.4892
56.3214
58.1725
60.0414
61.927
63.8284
65.7441
67.6731
69.614
71.5654
73.5259
75.494
77.4684
79.4474
81.4296
83.4135
85.3975
87.3803
89.3605
91.3371
93.3092
95.2763
97.2382
99.1954
101.149
103.1
105.048
106.983
108.896
110.783
112.641
114.468
116.262
118.02
119.742
121.423
123.064
124.661
126.212
127.717
129.172
130.577
131.93
133.228
134.472
135.659
136.787
137.856
138.865
139.812
140.696
141.517
142.272
142.963
143.587
144.145
144.635
145.058
145.412
145.698
145.915
146.063
146.142
146.152
146.093
145.965
145.768
145.504
145.172
144.772
144.306
143.774
143.177
142.516
141.792
141.006
140.159
139.252
138.288
137.266
136.189
135.058
133.875
132.642
131.361
130.033
128.66
127.244
125.788
124.293
122.755
121.196
119.608
118.002
116.394
114.815
113.321
111.88
110.452
109.02
107.578
106.126
104.662
103.19
101.709
100.222
98.7306
97.236
95.74
94.2444
92.7506
91.2603
89.7751
88.2962
86.8253
85.3637
83.9127
82.4734
81.0472
79.635
78.238
76.8569
75.4928
74.1465
72.819
71.5118
70.2276
68.9727
67.7597
66.6328
65.7143
65.5928
6.90391
3.24947
2.73059
2.72123
2.88542
3.15843
3.52014
3.96236
4.47912
5.06371
5.70808
6.40348
7.14134
7.91411
8.71573
9.54199
10.3905
11.2603
12.1516
13.0654
14.0032
14.9666
15.9572
16.9764
18.0255
19.1052
20.2162
21.3586
22.5321
23.7365
24.971
26.235
27.5277
28.8486
30.197
31.5724
32.9743
34.4022
35.8555
37.3339
38.837
40.3642
41.9153
43.4896
45.0869
46.7065
48.3479
50.0107
51.6941
53.3974
55.12
56.8609
58.6193
60.3943
62.1849
63.9898
65.8081
67.6385
69.4796
71.3303
73.1891
75.0547
76.9256
78.8005
80.6779
82.5565
84.4351
86.3125
88.1875
90.0594
91.9273
93.7905
95.6482
97.4996
99.3397
101.162
102.963
104.739
106.488
108.206
109.893
111.545
113.162
114.74
116.278
117.774
119.227
120.633
121.992
123.303
124.562
125.77
126.925
128.024
129.068
130.054
130.982
131.851
132.66
133.407
134.093
134.716
135.275
135.771
136.203
136.57
136.873
137.11
137.281
137.388
137.428
137.404
137.314
137.16
136.941
136.658
136.311
135.901
135.428
134.894
134.299
133.644
132.93
132.158
131.33
130.446
129.508
128.517
127.476
126.384
125.244
124.059
122.828
121.554
120.24
118.885
117.493
116.072
114.618
113.139
111.637
110.118
108.592
107.075
105.589
104.126
102.67
101.212
99.7495
98.28
96.8043
95.3232
93.8382
92.3507
90.8621
89.3739
87.8878
86.4051
84.9274
83.456
81.9924
80.5379
79.0938
77.6614
76.2417
74.8361
73.4455
72.0711
70.7139
69.3749
68.0555
66.7568
65.4807
64.2301
63.0097
61.829
60.7055
59.6832
58.8506
58.4771
8.89528
4.23425
3.53794
3.45845
3.59898
3.86504
4.22468
4.6633
5.17113
5.73931
6.35886
7.02104
7.71809
8.44384
9.19403
9.96628
10.7598
11.5752
12.4135
13.2765
14.166
15.0834
16.0304
17.0079
18.0167
19.0573
20.1298
21.2342
22.37
23.537
24.7346
25.9623
27.2195
28.5058
29.8209
31.1642
32.5355
33.9344
35.3607
36.814
38.2942
39.8009
41.3339
42.8928
44.4774
46.0873
47.722
49.3811
51.064
52.77
54.4986
56.2489
58.02
59.811
61.6209
63.4485
65.2927
67.1521
69.0254
70.9112
72.808
74.7143
76.6286
78.5491
80.4745
82.403
84.3331
86.2633
88.192
90.1178
92.0392
93.9547
95.8628
97.7601
99.6418
101.504
103.342
105.154
106.937
108.689
110.407
112.089
113.733
115.336
116.897
118.414
119.885
121.308
122.68
124.002
125.27
126.483
127.64
128.74
129.782
130.763
131.684
132.542
133.338
134.07
134.738
135.341
135.878
136.35
136.754
137.093
137.364
137.568
137.705
137.775
137.778
137.714
137.583
137.386
137.124
136.796
136.403
135.947
135.427
134.845
134.202
133.498
132.735
131.914
131.036
130.103
129.116
128.077
126.987
125.847
124.659
123.427
122.151
120.829
119.472
118.079
116.652
115.194
113.707
112.194
110.66
109.108
107.546
105.983
104.43
102.886
101.345
99.8026
98.257
96.7075
95.1546
93.5993
92.0429
90.4868
88.9326
87.3817
85.8356
84.2958
82.7638
81.2408
79.7283
78.2276
76.7399
75.2664
73.8083
72.3667
70.9428
69.5376
68.1522
66.788
65.4461
64.1284
62.8372
61.5759
60.3505
59.1715
58.0571
57.0453
56.1978
55.6405
10.714
5.1438
4.25439
4.10698
4.21539
4.46107
4.8024
5.21991
5.70146
6.23745
6.81937
7.43968
8.09219
8.77233
9.47727
10.2058
10.9579
11.7346
12.5371
13.3671
14.2262
15.1157
16.0368
16.9902
17.9767
18.9964
20.0497
21.1364
22.2564
23.4096
24.5957
25.8143
27.0654
28.3487
29.6639
31.011
32.3898
33.8002
35.2421
36.7154
38.2199
39.7555
41.3222
42.9196
44.5475
46.2057
47.8937
49.6111
51.3574
53.1318
54.9338
56.7624
58.6167
60.4956
62.398
64.3227
66.2681
68.233
70.2157
72.2145
74.2277
76.2536
78.2902
80.3357
82.388
84.4453
86.5056
88.5667
90.6267
92.6835
94.7351
96.7794
98.8141
100.834
102.835
104.813
106.765
108.687
110.578
112.435
114.254
116.034
117.771
119.465
121.112
122.71
124.257
125.752
127.192
128.575
129.901
131.167
132.371
133.513
134.592
135.605
136.552
137.432
138.244
138.988
139.662
140.265
140.799
141.261
141.652
141.972
142.22
142.397
142.502
142.535
142.498
142.389
142.21
141.96
141.642
141.254
140.799
140.276
139.687
139.033
138.314
137.533
136.69
135.787
134.825
133.806
132.731
131.602
130.421
129.19
127.907
126.582
125.214
123.804
122.356
120.872
119.354
117.806
116.228
114.626
113.002
111.359
109.704
108.043
106.382
104.723
103.064
101.404
99.7411
98.0768
96.4114
94.746
93.0821
91.4212
89.7647
88.1143
86.4714
84.8376
83.2142
81.6029
80.0048
78.4212
76.8536
75.303
73.7706
72.2576
70.7652
69.2945
67.8466
66.423
65.0251
63.655
62.3153
61.0101
59.7456
58.5326
57.3882
56.3437
55.4407
54.7409
13.5935
6.12195
4.90557
4.65234
4.71105
4.92451
5.23783
5.62608
6.07499
6.57463
7.11725
7.69659
8.30787
8.94778
9.61443
10.3072
11.0264
11.7729
12.548
13.3531
14.1895
15.0584
15.9608
16.8975
17.8692
18.8763
19.9192
20.9981
22.1132
23.2645
24.4523
25.6765
26.9373
28.2348
29.5691
30.9402
32.3484
33.7936
35.2761
36.7958
38.3528
39.9472
41.5788
43.2476
44.9534
46.6959
48.4747
50.2894
52.1394
54.024
55.9423
57.8934
59.8763
61.8896
63.9319
66.0019
68.0978
70.218
72.3604
74.5232
76.7042
78.9012
81.1121
83.3344
85.5658
87.8037
90.0458
92.2894
94.5319
96.7709
99.0035
101.227
103.439
105.631
107.801
109.944
112.058
114.139
116.184
118.189
120.153
122.073
123.945
125.767
127.538
129.253
130.912
132.512
134.051
135.527
136.938
138.283
139.56
140.768
141.905
142.97
143.962
144.88
145.724
146.492
147.183
147.798
148.335
148.795
149.178
149.482
149.709
149.857
149.928
149.922
149.839
149.679
149.443
149.132
148.746
148.287
147.754
147.15
146.475
145.731
144.918
144.04
143.095
142.086
141.017
139.887
138.698
137.451
136.153
134.804
133.404
131.958
130.468
128.936
127.364
125.756
124.114
122.441
120.739
119.011
117.262
115.494
113.711
111.92
110.123
108.325
106.525
104.724
102.922
101.12
99.3184
97.5195
95.7244
93.9348
92.1524
90.3787
88.6154
86.864
85.1261
83.403
81.6962
80.007
78.3367
76.6865
75.0577
73.4513
71.8688
70.3111
68.7797
67.276
65.8016
64.3588
62.9505
61.5811
60.2569
58.9882
57.7905
56.6886
55.71
54.8866
16.3567
6.9928
5.44096
5.07362
5.07588
5.25193
5.53364
5.89071
6.30682
6.77172
7.27819
7.82096
8.39627
9.00165
9.63582
10.2984
10.9899
11.711
12.4629
13.2469
14.0642
14.916
15.8032
16.7268
17.6877
18.6867
19.7243
20.8012
21.9179
23.0749
24.2728
25.512
26.793
28.1162
29.4822
30.8912
32.3437
33.8401
35.3807
36.9658
38.5955
40.2701
41.9896
43.754
45.5631
47.4167
49.3144
51.2556
53.2398
55.2661
57.3335
59.4409
61.5868
63.77
65.9886
68.2409
70.5249
72.8384
75.1792
77.5448
79.9328
82.3404
84.765
87.2036
89.6534
92.1113
94.5743
97.0393
99.5032
101.963
104.415
106.856
109.28
111.682
114.056
116.4
118.71
120.981
123.212
125.398
127.536
129.623
131.657
133.635
135.553
137.41
139.202
140.928
142.585
144.172
145.686
147.125
148.489
149.775
150.983
152.11
153.157
154.121
155.002
155.8
156.513
157.142
157.686
158.144
158.517
158.804
159.007
159.124
159.156
159.104
158.968
158.749
158.447
158.064
157.6
157.057
156.435
155.736
154.96
154.11
153.188
152.194
151.131
149.997
148.801
147.542
146.222
144.842
143.407
141.918
140.377
138.789
137.154
135.476
133.758
132.002
130.211
128.389
126.537
124.66
122.761
120.842
118.908
116.964
115.012
113.057
111.099
109.14
107.181
105.224
103.27
101.32
99.3766
97.4415
95.5163
93.6026
91.7023
89.8169
87.9479
86.0969
84.2654
82.4547
80.6661
78.9009
77.1605
75.4459
73.7584
72.0994
70.4702
68.8723
67.3076
65.7785
64.288
62.8406
61.4426
60.1036
58.8368
57.6618
56.5963
55.6572
18.7948
7.7108
5.84666
5.36936
5.315
5.45294
5.70309
6.03026
6.41617
6.85005
7.32496
7.83621
8.38069
8.95649
9.5627
10.1992
10.8663
11.565
12.2964
13.0615
13.8618
14.6985
15.5728
16.4859
17.439
18.4331
19.4694
20.5489
21.6726
22.8414
24.0563
25.3183
26.6282
27.9868
29.3951
30.8537
32.3635
33.925
35.5388
37.2055
38.9254
40.699
42.5262
44.4072
46.3419
48.33
50.3711
52.4645
54.6094
56.805
59.0498
61.3427
63.6818
66.0654
68.4915
70.9578
73.462
76.0013
78.5731
81.1743
83.8021
86.453
89.1239
91.8113
94.5117
97.2215
99.9371
102.655
105.371
108.081
110.783
113.471
116.136
118.773
121.379
123.948
126.478
128.964
131.402
133.789
136.121
138.395
140.608
142.757
144.839
146.85
148.789
150.652
152.439
154.145
155.77
157.312
158.769
160.139
161.422
162.615
163.718
164.73
165.65
166.477
167.211
167.852
168.399
168.851
169.21
169.476
169.647
169.726
169.712
169.606
169.408
169.12
168.742
168.276
167.722
167.083
166.358
165.551
164.66
163.69
162.643
161.52
160.324
159.054
157.717
156.313
154.844
153.314
151.725
150.079
148.38
146.631
144.833
142.991
141.108
139.185
137.227
135.237
133.217
131.172
129.104
127.016
124.913
122.799
120.677
118.55
116.42
114.291
112.162
110.037
107.917
105.804
103.7
101.607
99.5265
97.4606
95.4111
93.3797
91.3679
89.3774
87.4097
85.4661
83.5481
81.6571
79.7942
77.9607
76.158
74.3874
72.6503
70.9484
69.2836
67.6585
66.0761
64.5409
63.059
61.639
60.2922
59.0336
57.8741
56.8234
20.8277
8.26819
6.12846
5.55104
5.4433
5.54475
5.76503
6.06469
6.42364
6.83049
7.27826
7.76256
8.28065
8.83096
9.41283
10.0263
10.6719
11.3505
12.0633
12.8116
13.597
14.4209
15.2848
16.1902
17.1389
18.1322
19.1717
20.2591
21.3957
22.583
23.8226
25.1158
26.464
27.8684
29.3305
30.8512
32.4317
34.073
35.776
37.5413
39.3695
41.2612
43.2166
45.2357
47.3185
49.4646
51.6735
53.9444
56.2763
58.6679
61.1178
63.6241
66.1849
68.7979
71.4606
74.1703
76.924
79.7185
82.5505
85.4164
88.3125
91.2351
94.1802
97.1437
100.122
103.11
106.104
109.099
112.092
115.078
118.053
121.007
123.932
126.825
129.679
132.491
135.256
137.971
140.63
143.23
145.767
148.238
150.639
152.967
155.218
157.39
159.48
161.485
163.403
165.231
166.969
168.613
170.162
171.615
172.97
174.226
175.383
176.438
177.392
178.243
178.991
179.637
180.179
180.619
180.955
181.189
181.321
181.352
181.281
181.11
180.84
180.471
180.005
179.443
178.787
178.038
177.199
176.27
175.254
174.152
172.968
171.703
170.359
168.94
167.447
165.884
164.253
162.557
160.799
158.982
157.109
155.184
153.209
151.188
149.124
147.02
144.88
142.707
140.505
138.277
136.026
133.756
131.471
129.174
126.869
124.559
122.248
119.937
117.629
115.327
113.032
110.746
108.472
106.212
103.967
101.741
99.5332
97.3472
95.1842
93.046
90.934
88.8497
86.7945
84.7699
82.7771
80.8174
78.8922
77.0029
75.1509
73.3381
71.5664
69.8383
68.1572
66.5272
64.954
63.4453
62.0106
60.6613
59.4034
58.2436
22.4178
8.67065
6.30025
5.63595
5.48
5.5477
5.74035
6.01501
6.35001
6.73329
7.15769
7.61889
8.11432
8.64266
9.20344
9.79686
10.4236
11.0848
11.7818
12.5163
13.2898
14.1043
14.9618
15.8642
16.8135
17.8119
18.8614
19.9641
21.1221
22.3374
23.612
24.9479
26.3469
27.8108
29.3413
30.9401
32.6085
34.3478
36.1593
38.0437
40.002
42.0346
44.1418
46.3237
48.5801
50.9105
53.3143
55.7902
58.3371
60.9533
63.6369
66.3856
69.1969
72.0681
74.996
77.9773
81.0083
84.0853
87.2042
90.3607
93.5504
96.7689
100.012
103.274
106.551
109.838
113.13
116.422
119.71
122.988
126.25
129.483
132.68
135.838
138.95
142.012
145.019
147.966
150.85
153.666
156.41
159.078
161.667
164.173
166.592
168.921
171.157
173.299
175.343
177.287
179.129
180.868
182.502
184.029
185.448
186.758
187.958
189.047
190.024
190.888
191.64
192.279
192.805
193.22
193.522
193.713
193.792
193.761
193.621
193.372
193.016
192.555
191.988
191.319
190.548
189.679
188.712
187.65
186.494
185.248
183.913
182.493
180.99
179.407
177.746
176.011
174.204
172.33
170.39
168.39
166.331
164.217
162.053
159.84
157.584
155.288
152.954
150.588
148.192
145.77
143.325
140.862
138.385
135.896
133.4
130.9
128.399
125.9
123.406
120.92
118.443
115.979
113.529
111.095
108.681
106.287
103.916
101.57
99.2507
96.9594
94.6979
92.4678
90.2705
88.1075
85.9799
83.8893
81.837
79.8245
77.8532
75.9249
74.0418
72.2063
70.4217
68.692
67.0225
65.4198
63.8918
62.4471
61.0887
59.8215
23.5528
8.92952
6.37846
5.64273
5.445
5.48234
5.64982
5.90185
6.21551
6.57816
6.98242
7.42394
7.90026
8.41019
8.95347
9.53052
10.1423
10.7901
11.4758
12.2011
12.9683
13.7796
14.6376
15.5447
16.5035
17.5168
18.5872
19.7174
20.9101
22.1679
23.4934
24.8891
26.3574
27.9006
29.5208
31.22
33
34.8624
36.8084
38.8392
40.9556
43.1582
45.4472
47.8225
50.2837
52.83
55.4603
58.1733
60.967
63.8393
66.7878
69.8096
72.9015
76.06
79.2814
82.5617
85.8964
89.2809
92.7103
96.1795
99.6834
103.217
106.775
110.352
113.943
117.542
121.144
124.744
128.336
131.916
135.467
138.98
142.451
145.872
149.24
152.548
155.792
158.967
162.068
165.091
168.033
170.888
173.654
176.326
178.9
181.373
183.743
186.007
188.162
190.207
192.14
193.958
195.661
197.246
198.713
200.06
201.288
202.395
203.378
204.239
204.978
205.595
206.089
206.463
206.715
206.846
206.858
206.752
206.527
206.187
205.732
205.163
204.482
203.692
202.793
201.789
200.682
199.473
198.166
196.762
195.265
193.678
192.003
190.243
188.403
186.484
184.491
182.428
180.296
178.101
175.846
173.535
171.171
168.758
166.3
163.802
161.267
158.698
156.1
153.477
150.832
148.169
145.493
142.806
140.113
137.418
134.723
132.032
129.348
126.674
124.012
121.365
118.736
116.126
113.538
110.975
108.438
105.929
103.451
101.004
98.5905
96.2122
93.8704
91.5666
89.3021
87.0783
84.8967
82.7586
80.6657
78.6197
76.6228
74.6774
72.7866
70.9544
69.1854
67.4854
65.8608
64.3183
62.8584
61.486
24.2349
9.05795
6.37929
5.58904
5.35693
5.36793
5.51302
5.7449
6.03982
6.38477
6.77221
7.19779
7.65915
8.15528
8.68614
9.25243
9.85543
10.4969
11.1789
11.9039
12.6745
13.4937
14.3645
15.29
16.2736
17.3186
18.4283
19.6061
20.8553
22.1791
23.5807
25.0631
26.6292
28.2817
30.0232
31.856
33.782
35.803
37.9203
40.1351
42.4481
44.8595
47.3695
49.9775
52.6826
55.4836
58.3789
61.3664
64.4435
67.6074
70.8548
74.1821
77.5852
81.06
84.6018
88.2059
91.8671
95.5801
99.3384
103.136
106.968
110.828
114.71
118.609
122.518
126.433
130.346
134.254
138.149
142.02
145.85
149.633
153.363
157.034
160.641
164.178
167.64
171.023
174.321
177.53
180.646
183.666
186.587
189.402
192.107
194.7
197.178
199.54
201.782
203.904
205.902
207.775
209.522
211.142
212.633
213.995
215.226
216.327
217.296
218.133
218.838
219.412
219.856
220.169
220.352
220.407
220.334
220.134
219.809
219.36
218.789
218.098
217.288
216.362
215.321
214.169
212.907
211.539
210.067
208.493
206.822
205.056
203.198
201.253
199.222
197.111
194.922
192.66
190.328
187.931
185.471
182.955
180.384
177.765
175.1
172.394
169.651
166.876
164.071
161.242
158.392
155.526
152.648
149.76
146.868
143.975
141.085
138.201
135.326
132.463
129.615
126.786
123.977
121.191
118.43
115.697
112.994
110.322
107.685
105.083
102.517
99.9911
97.505
95.0606
92.6592
90.3024
87.9914
85.7278
83.5131
81.3492
79.238
77.1822
75.1845
73.2487
71.3789
69.5803
67.8578
66.2166
64.6559
63.1808
24.4743
9.0689
6.31734
5.4906
5.23247
5.22199
5.34826
5.56321
5.84282
6.17396
6.54917
6.96422
7.41696
7.90663
8.43355
8.9988
9.6041
10.2517
10.9443
11.6848
12.4767
13.3235
14.229
15.1971
16.2317
17.3371
18.5174
19.7765
21.1184
22.5467
24.0649
25.6767
27.3853
29.1938
31.1048
33.1207
35.2434
37.4747
39.8156
42.267
44.829
47.5015
50.2838
53.1749
56.1731
59.2763
62.4819
65.787
69.1881
72.6815
76.2627
79.9273
83.6703
87.4864
91.3703
95.3164
99.3193
103.374
107.469
111.601
115.761
119.946
124.148
128.361
132.579
136.797
141.007
145.206
149.384
153.517
157.598
161.62
165.578
169.466
173.278
177.009
180.654
184.207
187.665
191.022
194.276
197.421
200.455
203.373
206.171
208.848
211.399
213.823
216.118
218.282
220.312
222.208
223.968
225.591
227.076
228.422
229.629
230.695
231.622
232.409
233.055
233.563
233.931
234.161
234.253
234.209
234.031
233.718
233.273
232.697
231.993
231.162
230.207
229.129
227.932
226.617
225.188
223.647
221.998
220.244
218.387
216.432
214.382
212.241
210.013
207.7
205.309
202.842
200.303
197.698
195.03
192.303
189.522
186.692
183.817
180.901
177.948
174.964
171.951
168.916
165.861
162.791
159.71
156.623
153.532
150.443
147.359
144.283
141.22
138.171
135.14
132.13
129.145
126.185
123.254
120.354
117.488
114.657
111.863
109.108
106.394
103.723
101.095
98.5124
95.9768
93.4893
91.0513
88.6643
86.3298
84.0497
81.826
79.6609
77.5575
75.5188
73.5489
71.6519
69.832
68.093
66.4334
64.8588
24.2867
8.97396
6.20507
5.36097
5.08647
5.06088
5.17358
5.37679
5.64682
5.97088
6.34185
6.75591
7.21133
7.7079
8.24646
8.82872
9.45689
10.1339
10.8632
11.6485
12.4941
13.4043
14.3837
15.4371
16.5692
17.7848
19.0891
20.4869
21.9828
23.5791
25.2801
27.0897
29.0113
31.0479
33.2017
35.4749
37.8689
40.3847
43.0226
45.7825
48.6638
51.6653
54.7851
58.0211
61.3704
64.8297
68.3953
72.0631
75.8283
79.686
83.6309
87.6572
91.7591
95.9305
100.165
104.456
108.797
113.181
117.601
122.049
126.519
131.005
135.5
139.998
144.493
148.98
153.451
157.904
162.305
166.648
170.927
175.135
179.267
183.317
187.279
191.148
194.92
198.589
202.151
205.602
208.938
212.156
215.251
218.221
221.062
223.771
226.346
228.785
231.086
233.247
235.266
237.142
238.873
240.46
241.9
243.194
244.34
245.339
246.191
246.895
247.452
247.863
248.128
248.248
248.224
248.058
247.75
247.302
246.716
245.994
245.138
244.149
243.031
241.786
240.417
238.926
237.317
235.592
233.754
231.809
229.758
227.606
225.356
223.012
220.579
218.061
215.462
212.786
210.037
207.221
204.342
201.405
198.413
195.372
192.287
189.161
186
182.809
179.591
176.351
173.094
169.823
166.544
163.261
159.977
156.697
153.424
150.162
146.915
143.686
140.478
137.294
134.137
131.01
127.915
124.854
121.83
118.845
115.901
112.999
110.142
107.331
104.567
101.851
99.1864
96.5729
94.0125
91.5064
89.0563
86.6639
84.3311
82.0602
79.8538
77.715
75.6472
73.654
71.7388
69.9046
68.1494
66.4792
23.6538
8.77488
6.04879
5.2083
4.92901
4.89717
5.00483
5.20573
5.47724
5.80749
6.19024
6.6225
7.10347
7.63387
8.21573
8.85218
9.54502
10.2985
11.1171
12.0058
12.9696
14.0138
15.1439
16.3653
17.6835
19.1036
20.6308
22.2699
24.0251
25.9
27.898
30.0221
32.2748
34.658
37.1728
39.8201
42.5997
45.5112
48.5534
51.7244
55.0219
58.443
61.9843
65.6418
69.4113
73.2879
77.2664
81.3414
85.5069
89.7569
94.0851
98.4848
102.949
107.472
112.046
116.663
121.318
126.003
130.712
135.436
140.17
144.907
149.642
154.368
159.081
163.776
168.444
173.053
177.597
182.069
186.463
190.773
194.995
199.123
203.152
207.077
210.894
214.598
218.185
221.652
224.994
228.209
231.294
234.244
237.058
239.733
242.266
244.656
246.901
248.999
250.948
252.748
254.397
255.894
257.239
258.432
259.472
260.358
261.091
261.672
262.1
262.376
262.502
262.477
262.303
261.982
261.515
260.903
260.149
259.255
258.222
257.053
255.751
254.318
252.758
251.072
249.266
247.341
245.301
243.15
240.893
238.532
236.072
233.517
230.871
228.139
225.326
222.435
219.473
216.442
213.349
210.198
206.994
203.742
200.446
197.111
193.743
190.346
186.925
183.484
180.027
176.561
173.087
169.612
166.14
162.673
159.217
155.775
152.351
148.948
145.569
142.217
138.896
135.608
132.355
129.141
125.966
122.834
119.746
116.704
113.71
110.765
107.87
105.028
102.24
99.5062
96.8287
94.2088
91.648
89.148
86.7105
84.3378
82.0323
79.7967
77.6342
75.5478
73.5404
71.6142
69.7672
68.0059
22.7497
8.5774
5.90077
5.07205
4.79901
4.77437
4.89331
5.11168
5.40866
5.77403
6.20316
6.69465
7.24927
7.86929
8.55811
9.3199
10.1592
11.0812
12.0915
13.1961
14.4008
15.7115
17.1339
18.6734
20.335
22.1234
24.0425
26.0957
28.2857
30.6144
33.083
35.6924
38.4422
41.3319
44.3601
47.5247
50.8231
54.2523
57.8084
61.4874
65.2848
69.1955
73.2145
77.3361
81.5546
85.8639
90.2577
94.7298
99.2737
103.883
108.55
113.269
118.033
122.836
127.669
132.528
137.405
142.294
147.189
152.084
156.973
161.85
166.712
171.554
176.371
181.15
185.86
190.496
195.053
199.526
203.909
208.199
212.39
216.478
220.458
224.327
228.08
231.712
235.222
238.605
241.858
244.978
247.962
250.807
253.511
256.072
258.487
260.755
262.874
264.842
266.658
268.321
269.83
271.184
272.382
273.425
274.311
275.041
275.615
276.033
276.296
276.403
276.357
276.158
275.808
275.307
274.657
273.86
272.919
271.834
270.609
269.246
267.747
266.116
264.355
262.468
260.457
258.328
256.082
253.725
251.259
248.69
246.021
243.258
240.403
237.463
234.441
231.343
228.174
224.937
221.64
218.285
214.879
211.426
207.932
204.402
200.839
197.25
193.639
190.011
186.37
182.721
179.069
175.417
171.771
168.134
164.51
160.904
157.318
153.756
150.222
146.718
143.247
139.813
136.418
133.063
129.752
126.487
123.269
120.1
116.981
113.915
110.903
107.946
105.045
102.202
99.4184
96.6947
94.0327
91.4341
88.9006
86.4342
84.0372
81.712
79.4615
77.2883
75.1947
73.1829
71.2504
69.4049
21.662
8.3361
5.76138
4.9675
4.72134
4.72768
4.88683
5.1582
5.52401
5.97702
6.51549
7.14097
7.85705
8.66864
9.58156
10.602
11.7365
12.9913
14.3726
15.8861
17.537
19.3296
21.2675
23.3535
25.5891
27.9754
30.5122
33.1985
36.0326
39.0121
42.1337
45.3937
48.7879
52.3118
55.9604
59.7285
63.6106
67.6011
71.6943
75.8843
80.1653
84.5312
88.9762
93.4942
98.0794
102.726
107.427
112.178
116.972
121.804
126.668
131.557
136.467
141.392
146.326
151.265
156.201
161.132
166.051
170.955
175.84
180.701
185.536
190.343
195.097
199.775
204.375
208.891
213.32
217.658
221.9
226.043
230.082
234.013
237.833
241.538
245.124
248.588
251.926
255.137
258.216
261.16
263.968
266.636
269.163
271.546
273.783
275.872
277.812
279.601
281.238
282.721
284.05
285.224