/*--------------------------------*- C++ -*----------------------------------*\
| =========                 |                                                 |
| \\      /  F ield         | OpenFOAM: The Open Source CFD Toolbox           |
|  \\    /   O peration     | Version:  2412                                  |
|   \\  /    A nd           | Website:  www.openfoam.com                      |
|    \\/     M anipulation  |                                                 |
\*---------------------------------------------------------------------------*/
FoamFile
{
    version     2.0;
    format      ascii;
    arch        "LSB;label=32;scalar=64";
    class       volScalarField;
    location    "0.27";
    object      k;
}
// * * * * * * * * * * * * * * * * * * * * * * * * * * * * * * * * * * * * * //

dimensions      [0 2 -2 0 0 0 0];

internalField   nonuniform List<scalar> 
12225
(
0.316793
0.394494
0.477907
0.542616
0.593833
0.63438
0.666734
0.69279
0.713892
0.731055
0.745059
0.756498
0.765824
0.773375
0.779411
0.784065
0.787452
0.790413
0.569139
0.788915
0.952583
1.068
1.1512
1.2127
1.25818
1.29171
1.31632
1.33413
1.34672
1.35527
1.36068
1.36365
1.36475
1.3643
1.36353
1.36145
0.670061
0.972155
1.18323
1.33202
1.43945
1.51861
1.57694
1.61969
1.65078
1.67303
1.68851
1.6988
1.70509
1.70832
1.70924
1.70845
1.70696
1.70494
0.722108
1.07674
1.32651
1.50447
1.63404
1.72972
1.80042
1.85243
1.89038
1.91767
1.93679
1.94967
1.95776
1.96221
1.96394
1.96375
1.96264
1.96117
0.74277
1.1292
1.41224
1.61818
1.77022
1.88337
1.96762
2.03016
2.07624
2.10979
2.13375
2.15033
2.16127
2.16791
2.17137
2.1726
2.17262
2.17208
0.739913
1.13776
1.44637
1.67819
1.85303
1.98504
2.08466
2.15963
2.21576
2.2574
2.28789
2.30975
2.32498
2.33514
2.34152
2.34521
2.34721
2.34818
0.719619
1.1088
1.43132
1.68401
1.88027
2.03176
2.14826
2.23764
2.30592
2.35778
2.39684
2.42592
2.44723
2.46256
2.47335
2.4808
2.48592
2.48928
0.68764
1.05045
1.37182
1.63646
1.84971
2.01922
2.1529
2.25789
2.34005
2.40409
2.45377
2.49209
2.52144
2.54379
2.56069
2.57344
2.58304
2.58997
0.648984
0.972373
1.2766
1.54078
1.76291
1.94589
2.09468
2.21482
2.31141
2.3888
2.45062
2.49988
2.53905
2.57016
2.59487
2.61453
2.6301
2.64196
0.607482
0.884082
1.15746
1.40738
1.62721
1.81569
1.97442
2.1067
2.21622
2.30652
2.38079
2.44178
2.49185
2.53299
2.56686
2.59478
2.61771
2.63582
0.565817
0.793314
1.02683
1.25028
1.45563
1.63912
1.7996
1.938
2.05627
2.15675
2.24182
2.31372
2.37448
2.42585
2.46938
2.5063
2.53744
2.56277
0.528744
0.712088
0.90517
1.09645
1.27865
1.44746
1.6004
1.73669
1.85679
1.96183
2.05324
2.13256
2.20132
2.26092
2.31263
2.35749
2.39618
2.42835
0.49465
0.637266
0.790573
0.946974
1.10074
1.248
1.38597
1.51298
1.6284
1.73232
1.82527
1.90804
1.98158
2.04681
2.10467
2.15591
2.20099
2.23924
0.460673
0.56214
0.673137
0.789666
0.907883
1.02492
1.13843
1.24664
1.34837
1.443
1.53033
1.61045
1.68363
1.75028
1.81086
1.86578
1.91519
1.95808
0.429343
0.492744
0.562792
0.638281
0.717337
0.798297
0.879664
0.960086
1.03846
1.11399
1.1861
1.25446
1.31889
1.37933
1.43582
1.48841
1.53695
1.58023
0.403167
0.435381
0.470972
0.510046
0.552179
0.596841
0.643455
0.69138
0.739968
0.788641
0.836902
0.884345
0.930641
0.975538
1.01884
1.06038
1.09987
1.13624
0.384082
0.394607
0.406479
0.419889
0.43484
0.451292
0.469183
0.488402
0.508789
0.530161
0.552322
0.575078
0.598235
0.621585
0.644945
0.668152
0.691002
0.712954
0.374047
0.373709
0.374088
0.375205
0.377035
0.379557
0.382759
0.386626
0.391136
0.396259
0.401962
0.408205
0.414943
0.422151
0.429787
0.437793
0.446103
0.454608
0.376607
0.378925
0.38199
0.385853
0.390487
0.395855
0.401925
0.40865
0.415972
0.423824
0.432138
0.44084
0.449861
0.459131
0.468588
0.478167
0.487796
0.497256
0.394948
0.417782
0.44296
0.470561
0.500304
0.531826
0.56474
0.598611
0.632993
0.667468
0.701669
0.735286
0.768066
0.799811
0.830373
0.859643
0.887497
0.913531
0.427772
0.489069
0.556235
0.628022
0.702591
0.778302
0.853721
0.92759
0.998898
1.06692
1.13118
1.19141
1.24749
1.29943
1.34733
1.39134
1.43162
1.4682
0.475742
0.594977
0.723616
0.855989
0.987211
1.11395
1.23384
1.34526
1.44738
1.54001
1.62333
1.69781
1.76406
1.82277
1.87463
1.92034
1.96051
1.99565
0.536848
0.728699
0.928633
1.12374
1.30644
1.47306
1.62185
1.75259
1.86614
1.96397
2.04774
2.11914
2.17976
2.23107
2.27436
2.31077
2.34128
2.36673
0.604143
0.873972
1.14017
1.3824
1.59449
1.77607
1.92886
2.05587
2.16066
2.24663
2.31682
2.37385
2.41996
2.45701
2.48656
2.50991
2.52811
2.54212
0.668316
1.00767
1.31643
1.57533
1.78711
1.95803
2.09449
2.20267
2.28802
2.355
2.40722
2.44758
2.47841
2.50158
2.51858
2.5306
2.53862
2.54351
0.717304
1.0992
1.41419
1.65889
1.84812
1.99399
2.10592
2.19145
2.2565
2.30558
2.34217
2.36896
2.38806
2.40109
2.40934
2.41381
2.41532
2.41459
0.735719
1.11862
1.40734
1.61983
1.77772
1.89573
1.98395
2.04966
2.09826
2.13377
2.15921
2.17688
2.18852
2.19548
2.19879
2.19926
2.19754
2.19421
0.7082
1.04716
1.29075
1.46557
1.59175
1.68427
1.75245
1.80244
1.83877
1.86478
1.88294
1.89507
1.90255
1.90645
1.90759
1.90658
1.90394
1.90013
0.616921
0.862574
1.0489
1.18265
1.27674
1.3449
1.39483
1.43126
1.45766
1.47655
1.48973
1.49854
1.50398
1.50683
1.50766
1.50696
1.50506
1.50238
0.33327
0.408788
0.496175
0.56409
0.616602
0.657436
0.689395
0.714702
0.734935
0.751222
0.764409
0.775143
0.783917
0.791115
0.797034
0.801915
0.805932
0.809263
0.00668647
0.0107987
0.0139889
0.0165318
0.0185177
0.0201382
0.0218152
0.02368
0.0256443
0.0277148
0.0299261
0.0323608
0.0352959
0.0389258
0.0429406
0.047285
0.0519421
0.0569173
0.062217
0.0678411
0.0737816
0.0800239
0.0865485
0.093334
0.100359
0.107607
0.115063
0.122723
0.130591
0.138683
0.147032
0.155594
0.164271
0.173044
0.181899
0.190826
0.199815
0.208859
0.217951
0.227084
0.236254
0.245456
0.254684
0.263935
0.273205
0.28249
0.291786
0.301087
0.31039
0.319691
0.328983
0.338263
0.347524
0.356761
0.365968
0.375139
0.384269
0.39335
0.402376
0.411341
0.420237
0.429059
0.4378
0.446452
0.45501
0.463466
0.471815
0.480049
0.488164
0.496156
0.50402
0.51176
0.51938
0.5269
0.534353
0.541688
0.548836
0.555802
0.562589
0.569195
0.575615
0.581846
0.587882
0.593719
0.599353
0.604779
0.609993
0.614992
0.619771
0.624327
0.628658
0.632759
0.63663
0.640266
0.643666
0.646828
0.64975
0.652431
0.654868
0.657062
0.65901
0.660712
0.662168
0.663376
0.664338
0.665052
0.665519
0.66574
0.665714
0.665442
0.664926
0.664166
0.663164
0.661921
0.660439
0.65872
0.656766
0.65458
0.652163
0.64952
0.646652
0.643564
0.640259
0.63674
0.633012
0.629079
0.624946
0.620618
0.616099
0.611394
0.60651
0.601452
0.596226
0.590837
0.585293
0.5796
0.573766
0.567797
0.561695
0.555484
0.549151
0.542735
0.536286
0.530099
0.525843
0.522256
0.518632
0.514923
0.511127
0.507249
0.503294
0.499266
0.495171
0.491015
0.486804
0.482542
0.478237
0.473892
0.469514
0.465109
0.460682
0.456238
0.451782
0.44732
0.442855
0.438392
0.433934
0.429483
0.42504
0.420605
0.416174
0.411738
0.407282
0.40278
0.398182
0.393395
0.388215
0.382123
0.374225
0.363572
0.0143353
0.0225561
0.030068
0.0362348
0.0418292
0.0474319
0.0530231
0.0587911
0.0648449
0.0713353
0.0782961
0.0857057
0.0935308
0.101726
0.110231
0.119013
0.128063
0.137385
0.146989
0.15689
0.1671
0.177632
0.1885
0.199711
0.211275
0.223195
0.235473
0.248107
0.26109
0.274413
0.288061
0.302011
0.316243
0.33074
0.345487
0.360468
0.375669
0.391076
0.406676
0.422457
0.438407
0.454515
0.470773
0.487172
0.503701
0.520353
0.53712
0.553992
0.570961
0.588019
0.605156
0.622362
0.639628
0.656943
0.674297
0.691678
0.709075
0.726476
0.743869
0.761241
0.77858
0.795873
0.813106
0.830268
0.847344
0.864322
0.881189
0.897932
0.914538
0.930995
0.94729
0.963411
0.979346
0.995079
1.01053
1.02563
1.04045
1.05501
1.06931
1.08333
1.09707
1.11052
1.12367
1.1365
1.149
1.16117
1.173
1.18447
1.19559
1.20633
1.21669
1.22667
1.23625
1.24544
1.25421
1.26258
1.27053
1.27805
1.28515
1.29181
1.29803
1.30382
1.30916
1.31405
1.31849
1.32248
1.32601
1.32909
1.33171
1.33386
1.33556
1.33679
1.33757
1.33788
1.33773
1.33712
1.33606
1.33453
1.33256
1.33013
1.32725
1.32393
1.32017
1.31598
1.31135
1.3063
1.30083
1.29495
1.28867
1.28198
1.27491
1.26746
1.25964
1.25145
1.24292
1.23404
1.22483
1.2153
1.20546
1.19534
1.1849
1.17424
1.1634
1.15246
1.14167
1.13086
1.11988
1.10873
1.09741
1.08594
1.07432
1.06258
1.05071
1.03875
1.0267
1.01457
1.00237
0.990131
0.977848
0.965539
0.953215
0.940889
0.928571
0.916272
0.904001
0.89177
0.879585
0.867456
0.855387
0.843383
0.831446
0.819573
0.807759
0.795988
0.784234
0.772457
0.760555
0.748411
0.73453
0.719284
0.0212837
0.0359136
0.0472698
0.0561705
0.0642606
0.0718365
0.0793605
0.0871527
0.0953853
0.104131
0.113383
0.123088
0.13318
0.143602
0.154316
0.16531
0.176597
0.188208
0.200179
0.212553
0.225367
0.238656
0.252444
0.266746
0.28157
0.296913
0.312762
0.329099
0.345899
0.363134
0.380772
0.39878
0.41713
0.435792
0.454743
0.473958
0.493416
0.513099
0.532989
0.553073
0.573337
0.593769
0.614361
0.635101
0.655981
0.676992
0.698126
0.719373
0.740725
0.762173
0.783706
0.805314
0.826986
0.84871
0.870475
0.892267
0.914073
0.93588
0.957673
0.979437
1.00116
1.02282
1.0444
1.0659
1.08729
1.10856
1.12969
1.15067
1.17148
1.19211
1.21254
1.23276
1.25277
1.27254
1.29198
1.3111
1.3299
1.34839
1.36654
1.38435
1.4018
1.41888
1.43557
1.45187
1.46775
1.4832
1.49822
1.51279
1.5269
1.54053
1.55368
1.56634
1.5785
1.59014
1.60127
1.61187
1.62194
1.63147
1.64044
1.64887
1.65674
1.66404
1.67078
1.67694
1.68253
1.68754
1.69197
1.69582
1.69908
1.70176
1.70384
1.70534
1.70625
1.70658
1.70631
1.70547
1.70403
1.70202
1.69943
1.69627
1.69254
1.68824
1.68338
1.67797
1.67201
1.66552
1.65849
1.65094
1.64287
1.6343
1.62524
1.61569
1.60567
1.59519
1.58427
1.57292
1.56114
1.54897
1.53636
1.52347
1.51023
1.49669
1.48289
1.4689
1.45482
1.4406
1.42618
1.41155
1.39671
1.38169
1.36648
1.35113
1.33563
1.32001
1.30428
1.28846
1.27256
1.25661
1.24061
1.22459
1.20855
1.19252
1.1765
1.16051
1.14457
1.12868
1.11287
1.09713
1.08147
1.06592
1.05047
1.03513
1.0199
1.00478
0.98977
0.974871
0.960072
0.945412
0.930441
0.914919
0.0274591
0.0500701
0.0647021
0.0758532
0.0853704
0.0942878
0.103135
0.112225
0.121734
0.131733
0.142224
0.153168
0.164517
0.176235
0.188309
0.200748
0.213585
0.226863
0.24063
0.25493
0.269802
0.28527
0.301351
0.318047
0.335349
0.353239
0.371692
0.390678
0.410161
0.430107
0.450479
0.471243
0.492369
0.513827
0.535592
0.557642
0.579956
0.602517
0.625311
0.648323
0.671542
0.694957
0.718559
0.742339
0.766287
0.790396
0.814657
0.839059
0.863594
0.888251
0.913018
0.937886
0.96284
0.987868
1.01296
1.03809
1.06325
1.08842
1.11359
1.13874
1.16385
1.18891
1.21388
1.23877
1.26354
1.28818
1.31267
1.33699
1.36113
1.38507
1.40878
1.43226
1.45549
1.47843
1.50103
1.52327
1.54515
1.56666
1.58779
1.60851
1.62881
1.64867
1.66808
1.68702
1.70548
1.72343
1.74087
1.75778
1.77414
1.78995
1.80519
1.81985
1.83392
1.84739
1.86025
1.87249
1.8841
1.89508
1.90541
1.91509
1.92412
1.93248
1.94018
1.94721
1.95356
1.95924
1.96424
1.96855
1.97218
1.97512
1.97738
1.97895
1.97983
1.98003
1.97954
1.97837
1.97653
1.974
1.9708
1.96694
1.96241
1.95723
1.9514
1.94492
1.93781
1.93007
1.92172
1.91276
1.90321
1.89308
1.88237
1.8711
1.85929
1.84695
1.8341
1.82073
1.8069
1.79263
1.77793
1.76284
1.74737
1.73155
1.71542
1.69903
1.68244
1.66564
1.64861
1.63134
1.61385
1.59614
1.57824
1.56017
1.54194
1.52357
1.50509
1.4865
1.46784
1.44912
1.43035
1.41156
1.39276
1.37397
1.35521
1.33649
1.31783
1.29924
1.28073
1.26233
1.24405
1.22589
1.20787
1.19001
1.17231
1.15478
1.13746
1.12039
1.10361
1.08727
1.0713
1.05568
0.0325137
0.063168
0.0808415
0.0936248
0.104459
0.11448
0.124283
0.134219
0.144491
0.155203
0.166391
0.178051
0.19017
0.202739
0.215766
0.229275
0.243301
0.257887
0.273073
0.288894
0.305374
0.322526
0.340352
0.358843
0.37798
0.397738
0.418087
0.438994
0.460423
0.482341
0.504713
0.52751
0.550701
0.574261
0.598168
0.622401
0.646941
0.671773
0.696884
0.72226
0.74789
0.773765
0.799873
0.826207
0.852757
0.879513
0.906464
0.933602
0.960914
0.988389
1.01601
1.04377
1.07166
1.09965
1.12772
1.15587
1.18408
1.21231
1.24057
1.26881
1.29703
1.32521
1.35331
1.38132
1.40921
1.43697
1.46457
1.49199
1.5192
1.5462
1.57295
1.59944
1.62565
1.6515
1.67698
1.70207
1.72676
1.75102
1.77485
1.79821
1.82109
1.84347
1.86533
1.88666
1.90743
1.92763
1.94724
1.96624
1.98463
2.00238
2.01947
2.03591
2.05167
2.06675
2.08113
2.09481
2.10777
2.12
2.13151
2.14227
2.15229
2.16156
2.17007
2.17782
2.1848
2.19102
2.19647
2.20114
2.20504
2.20816
2.2105
2.21207
2.21286
2.21288
2.21213
2.21061
2.20833
2.20528
2.20148
2.19692
2.19163
2.18559
2.17883
2.17134
2.16315
2.15425
2.14467
2.1344
2.12348
2.1119
2.09967
2.08684
2.07339
2.05933
2.04475
2.02962
2.01397
1.99784
1.98123
1.96417
1.9467
1.92884
1.91061
1.89208
1.87327
1.85421
1.83488
1.8153
1.79547
1.77541
1.75514
1.73468
1.71406
1.69329
1.6724
1.65141
1.63033
1.6092
1.58802
1.56683
1.54563
1.52445
1.50331
1.48223
1.46122
1.44029
1.41948
1.39879
1.37825
1.35786
1.33765
1.31763
1.29784
1.27829
1.25903
1.24014
1.22172
1.20396
1.18694
1.17078
0.0368061
0.0741959
0.0943515
0.10878
0.120833
0.131799
0.142355
0.152901
0.163685
0.174852
0.186481
0.198609
0.211256
0.224438
0.238178
0.252504
0.267448
0.283045
0.299322
0.316302
0.333996
0.352408
0.37153
0.391346
0.411837
0.432975
0.454732
0.477077
0.499979
0.523407
0.547333
0.57173
0.596573
0.621839
0.647509
0.673563
0.699986
0.726764
0.753883
0.78133
0.809096
0.837169
0.865539
0.894196
0.923128
0.952326
0.981778
1.01147
1.04139
1.07153
1.10186
1.13238
1.16306
1.19389
1.22485
1.25592
1.28706
1.31828
1.34953
1.38079
1.41204
1.44326
1.47442
1.50548
1.53643
1.56725
1.59789
1.62834
1.65858
1.68856
1.71828
1.7477
1.77681
1.80551
1.8338
1.86165
1.88905
1.91598
1.9424
1.96831
1.99368
2.01849
2.04271
2.06632
2.08931
2.11166
2.13334
2.15434
2.17465
2.19424
2.2131
2.23121
2.24857
2.26516
2.28097
2.29599
2.31021
2.32362
2.33621
2.34797
2.3589
2.36899
2.37824
2.38663
2.39418
2.40087
2.4067
2.41167
2.41577
2.41902
2.4214
2.42293
2.42359
2.4234
2.42235
2.42045
2.41771
2.41412
2.4097
2.40446
2.39839
2.39151
2.38382
2.37534
2.36608
2.35605
2.34527
2.33373
2.32148
2.30851
2.29481
2.28047
2.26548
2.24985
2.23362
2.21681
2.19944
2.18153
2.1631
2.14419
2.12482
2.10503
2.08483
2.06428
2.0434
2.02223
2.00077
1.97902
1.95702
1.93477
1.9123
1.88963
1.86679
1.8438
1.82068
1.79746
1.77415
1.75079
1.72739
1.70398
1.68058
1.6572
1.63388
1.61062
1.58745
1.56439
1.54146
1.51868
1.49607
1.47365
1.45144
1.42948
1.40778
1.38641
1.36541
1.34489
1.32497
1.30585
1.28767
1.27059
0.043136
0.0832126
0.105295
0.121071
0.134148
0.145915
0.157102
0.168149
0.179339
0.190857
0.202819
0.215298
0.228344
0.241991
0.256271
0.271214
0.286849
0.303199
0.320284
0.338115
0.356698
0.376028
0.396095
0.416884
0.438374
0.460543
0.483365
0.506814
0.530866
0.555494
0.580676
0.606388
0.632611
0.659325
0.686513
0.714158
0.742248
0.770767
0.799704
0.829047
0.858784
0.888904
0.919396
0.950248
0.981449
1.01299
1.04484
1.07701
1.10947
1.1422
1.17519
1.20842
1.24187
1.27551
1.30932
1.34328
1.37736
1.41153
1.44577
1.48005
1.51433
1.5486
1.58281
1.61694
1.65095
1.68482
1.71851
1.75199
1.78524
1.81822
1.8509
1.88324
1.91523
1.94676
1.97784
2.00843
2.03852
2.06807
2.09707
2.12549
2.15331
2.1805
2.20704
2.2329
2.25806
2.2825
2.30621
2.32916
2.35133
2.3727
2.39327
2.41301
2.43191
2.44996
2.46714
2.48345
2.49887
2.51339
2.52701
2.53971
2.55149
2.56235
2.57228
2.58127
2.58932
2.59644
2.6026
2.60783
2.6121
2.61543
2.61782
2.61926
2.61976
2.61932
2.61794
2.61564
2.61241
2.60827
2.60321
2.59725
2.5904
2.58266
2.57405
2.56457
2.55425
2.5431
2.53112
2.51832
2.50476
2.49043
2.47535
2.45956
2.44307
2.42589
2.40807
2.38962
2.37056
2.35093
2.33075
2.31004
2.28884
2.26717
2.24508
2.22258
2.19973
2.17654
2.15304
2.12924
2.10516
2.08082
2.05625
2.03148
2.00653
1.98143
1.95619
1.93085
1.90544
1.87997
1.85446
1.82896
1.80346
1.77801
1.75262
1.72731
1.70211
1.67704
1.65212
1.62737
1.60282
1.5785
1.55442
1.53063
1.50716
1.48408
1.46145
1.43939
1.41803
1.39757
1.37813
1.35984
0.0488
0.0900965
0.113592
0.130417
0.144326
0.15677
0.168506
0.18
0.191558
0.203392
0.215646
0.228421
0.241785
0.255791
0.270477
0.285874
0.302007
0.318896
0.336554
0.354988
0.374198
0.394181
0.414926
0.436421
0.458648
0.481591
0.505229
0.529543
0.554513
0.58012
0.606345
0.633173
0.660585
0.688567
0.717104
0.746183
0.775791
0.805916
0.836546
0.86767
0.899275
0.931351
0.963883
0.99686
1.03027
1.06409
1.09832
1.13292
1.16789
1.20321
1.23884
1.27478
1.31099
1.34744
1.38412
1.42099
1.45802
1.49517
1.53243
1.56974
1.60708
1.64442
1.68171
1.71892
1.75601
1.79296
1.82971
1.86624
1.90252
1.9385
1.97415
2.00944
2.04428
2.07864
2.1125
2.14581
2.17857
2.21074
2.24229
2.27319
2.30343
2.33297
2.36178
2.38985
2.41715
2.44365
2.46933
2.49418
2.51817
2.54128
2.56351
2.58482
2.60521
2.62466
2.64317
2.66071
2.67728
2.69286
2.70746
2.72105
2.73364
2.74521
2.75577
2.76531
2.77382
2.78131
2.78777
2.7932
2.7976
2.80097
2.80332
2.80464
2.80494
2.80422
2.8025
2.79976
2.79602
2.7913
2.78558
2.77889
2.77124
2.76264
2.75309
2.7426
2.73122
2.71895
2.70579
2.69178
2.67694
2.66128
2.64482
2.6276
2.60963
2.59093
2.57154
2.55149
2.53079
2.50947
2.48757
2.46511
2.44212
2.41864
2.39469
2.37032
2.34555
2.32042
2.29495
2.26917
2.24309
2.21675
2.19017
2.16338
2.1364
2.10927
2.082
2.05464
2.0272
1.99971
1.97219
1.94468
1.91719
1.88976
1.86239
1.83513
1.80799
1.781
1.75419
1.72757
1.70117
1.67503
1.64917
1.62365
1.5985
1.57379
1.54961
1.52606
1.5033
1.48149
1.46072
1.44108
0.0535365
0.094928
0.11937
0.136963
0.15152
0.164522
0.176736
0.188637
0.200542
0.212677
0.225202
0.238237
0.251864
0.266146
0.281128
0.296845
0.313321
0.330575
0.348619
0.367458
0.387095
0.407527
0.428747
0.450747
0.473517
0.497044
0.521316
0.546319
0.57204
0.598467
0.625586
0.653386
0.681855
0.71098
0.740751
0.771157
0.802188
0.833831
0.866076
0.898912
0.932326
0.966306
1.00084
1.03591
1.0715
1.10759
1.14417
1.18121
1.2187
1.2566
1.29489
1.33355
1.37254
1.41184
1.45141
1.49121
1.53122
1.57139
1.61168
1.65206
1.69248
1.7329
1.77329
1.8136
1.85379
1.89382
1.93365
1.97323
2.01253
2.0515
2.09011
2.12832
2.16602
2.20318
2.23979
2.2758
2.31119
2.34593
2.37999
2.41334
2.44595
2.47779
2.50883
2.53905
2.56843
2.59692
2.62453
2.65121
2.67696
2.70174
2.72556
2.74838
2.77019
2.79099
2.81075
2.82946
2.84712
2.8637
2.87921
2.89364
2.90697
2.9192
2.93034
2.94036
2.94929
2.9571
2.96381
2.9694
2.97388
2.97725
2.97952
2.98068
2.98075
2.97972
2.9776
2.9744
2.97013
2.9648
2.9584
2.95096
2.9425
2.93302
2.92254
2.91107
2.89864
2.88526
2.87095
2.85572
2.83961
2.82264
2.80482
2.78619
2.76676
2.74657
2.72565
2.70402
2.68171
2.65874
2.63516
2.61099
2.58627
2.56102
2.53527
2.50908
2.48246
2.45545
2.42809
2.4004
2.3724
2.34412
2.3156
2.28687
2.25794
2.22886
2.19965
2.17034
2.14096
2.11153
2.08208
2.05265
2.02325
1.99392
1.96467
1.93554
1.90655
1.87772
1.84909
1.82068
1.79252
1.76464
1.73709
1.70991
1.68315
1.65688
1.6312
1.60621
1.58206
1.55889
1.53675
1.51572
0.0573308
0.0979169
0.122893
0.140998
0.156027
0.169466
0.182082
0.194343
0.206567
0.218982
0.231758
0.24502
0.258861
0.273351
0.288542
0.304471
0.321168
0.338652
0.356937
0.376032
0.395944
0.416673
0.438219
0.46058
0.483751
0.507729
0.532506
0.558078
0.584438
0.611578
0.639493
0.668174
0.697616
0.72781
0.758748
0.790422
0.822823
0.855942
0.889767
0.924288
0.959491
0.995363
1.03189
1.06905
1.10683
1.1452
1.18415
1.22365
1.26367
1.30418
1.34516
1.38657
1.42838
1.47054
1.51302
1.55579
1.59879
1.64199
1.68533
1.72878
1.77229
1.81581
1.85929
1.90269
1.94596
1.98906
2.03193
2.07453
2.11683
2.15876
2.2003
2.24135
2.28184
2.32175
2.36104
2.39968
2.43763
2.47487
2.51136
2.54707
2.58196
2.61602
2.64921
2.68149
2.71285
2.74326
2.77269
2.80112
2.82853
2.8549
2.88021
2.90445
2.9276
2.94965
2.97058
2.99038
3.00904
3.02655
3.0429
3.05807
3.07208
3.0849
3.09654
3.107
3.11627
3.12435
3.13124
3.13694
3.14145
3.14477
3.14691
3.14788
3.14767
3.14629
3.14375
3.14006
3.13524
3.12928
3.1222
3.11401
3.10474
3.09439
3.08298
3.07052
3.05705
3.04257
3.02711
3.01069
2.99333
2.97506
2.95591
2.9359
2.91505
2.8934
2.87098
2.84781
2.82393
2.79937
2.77415
2.74833
2.72191
2.69495
2.66747
2.63952
2.61112
2.58231
2.55312
2.5236
2.49375
2.46363
2.43325
2.40265
2.37186
2.34092
2.30984
2.27867
2.24743
2.21615
2.18487
2.1536
2.12237
2.09123
2.06018
2.02926
1.9985
1.96793
1.93756
1.90745
1.8776
1.84808
1.8189
1.79014
1.76184
1.73407
1.70694
1.68054
1.65501
1.63048
1.60697
1.58453
0.0602132
0.0993141
0.124481
0.142877
0.158215
0.171972
0.184902
0.197463
0.209963
0.222627
0.235621
0.249075
0.263085
0.277727
0.293057
0.309118
0.325944
0.343558
0.361982
0.381228
0.401309
0.422233
0.444006
0.466634
0.49012
0.514467
0.539676
0.56575
0.592688
0.620491
0.649156
0.678683
0.709069
0.740309
0.7724
0.805335
0.839106
0.873706
0.909124
0.945347
0.982362
1.02015
1.0587
1.09799
1.13799
1.17868
1.22004
1.26203
1.30463
1.34779
1.39149
1.43567
1.48031
1.52536
1.57078
1.61651
1.66251
1.70873
1.75511
1.80161
1.84818
1.89475
1.94128
1.98772
2.03401
2.08011
2.12595
2.1715
2.2167
2.26151
2.30587
2.34965
2.39283
2.43536
2.47721
2.51835
2.55874
2.59835
2.63713
2.67507
2.71212
2.74826
2.78345
2.81767
2.85088
2.88306
2.91418
2.94422
2.97316
3.00099
3.02768
3.05321
3.07758
3.10076
3.12274
3.14352
3.16309
3.18142
3.1985
3.21434
3.22892
3.24224
3.25431
3.26511
3.27465
3.28293
3.28994
3.29569
3.30017
3.30339
3.30535
3.30607
3.30555
3.30379
3.30081
3.29661
3.29121
3.28462
3.27685
3.26791
3.25782
3.2466
3.23427
3.22084
3.20634
3.19078
3.17419
3.1566
3.13802
3.11849
3.09804
3.07668
3.05445
3.03138
3.00751
2.98286
2.95746
2.93136
2.90458
2.87715
2.84912
2.82051
2.79137
2.76173
2.73163
2.7011
2.67019
2.63891
2.60732
2.57543
2.54329
2.51092
2.47836
2.44565
2.41281
2.37987
2.34687
2.31384
2.2808
2.24779
2.21484
2.18198
2.14923
2.11662
2.08418
2.05194
2.01994
1.9882
1.95676
1.92566
1.89495
1.86467
1.8349
1.8057
1.77716
1.7494
1.72253
1.69665
1.67176
1.64793
0.062229
0.0993716
0.124458
0.142961
0.158467
0.172428
0.185583
0.198372
0.211093
0.22396
0.237134
0.250743
0.264883
0.279633
0.295053
0.311191
0.328088
0.345775
0.364277
0.383616
0.403812
0.424882
0.446839
0.469697
0.493469
0.518165
0.543796
0.570369
0.597891
0.626369
0.655808
0.686209
0.717576
0.749907
0.7832
0.817451
0.852655
0.888801
0.92588
0.963877
1.00278
1.04256
1.08321
1.12469
1.16699
1.21006
1.25389
1.29842
1.34364
1.38949
1.43593
1.48291
1.5304
1.57833
1.62666
1.67533
1.7243
1.77349
1.82286
1.87234
1.92187
1.9714
2.02088
2.07024
2.11942
2.16838
2.21706
2.2654
2.31336
2.36088
2.40785
2.45419
2.49986
2.54483
2.58905
2.6325
2.67512
2.7169
2.75778
2.79774
2.83675
2.87478
2.91179
2.94774
2.98261
3.01638
3.04901
3.08048
3.11078
3.13989
3.16778
3.19444
3.21987
3.24403
3.26692
3.28854
3.30887
3.3279
3.3456
3.36197
3.37702
3.39074
3.40312
3.41417
3.42389
3.43228
3.43934
3.44506
3.44945
3.45251
3.45426
3.45469
3.45383
3.45166
3.44821
3.44348
3.4375
3.43026
3.42179
3.41209
3.4012
3.38912
3.37588
3.36149
3.34598
3.32937
3.31169
3.29296
3.2732
3.25245
3.23074
3.20809
3.18454
3.16012
3.13485
3.10878
3.08194
3.05437
3.02609
2.99715
2.96758
2.93742
2.90671
2.87548
2.84377
2.81162
2.77907
2.74616
2.71291
2.67937
2.64557
2.61155
2.57733
2.54295
2.50845
2.47386
2.43921
2.40454
2.36986
2.33523
2.30066
2.26618
2.23183
2.19763
2.16362
2.12983
2.09628
2.06302
2.03008
1.9975
1.96533
1.93363
1.90246
1.87189
1.84201
1.81293
1.78475
1.75755
1.73133
1.70614
0.0634249
0.0983232
0.123125
0.141593
0.157148
0.171214
0.184507
0.197452
0.210334
0.223355
0.23667
0.2504
0.264642
0.279475
0.294964
0.311162
0.328115
0.345862
0.364437
0.38387
0.404191
0.425423
0.447592
0.470719
0.494826
0.519932
0.546053
0.573207
0.601407
0.630662
0.660983
0.692377
0.724849
0.7584
0.79303
0.828736
0.86551
0.903343
0.942221
0.982128
1.02304
1.06495
1.10781
1.1516
1.19628
1.24183
1.28819
1.33533
1.38321
1.43177
1.48096
1.53074
1.58104
1.63181
1.68299
1.73453
1.78635
1.83841
1.89063
1.94294
1.99528
2.04759
2.09982
2.15189
2.20375
2.25535
2.30662
2.35752
2.40799
2.45793
2.50724
2.55585
2.60374
2.65086
2.69717
2.74264
2.78722
2.83088
2.87358
2.9153
2.95599
2.99563
3.0342
3.07164
3.10792
3.14301
3.17691
3.20958
3.24101
3.27117
3.30006
3.32765
3.35393
3.37888
3.4025
3.42477
3.44569
3.46523
3.48339
3.50017
3.51556
3.52955
3.54215
3.55335
3.56315
3.57156
3.57858
3.58421
3.58844
3.5913
3.59277
3.59288
3.59163
3.58902
3.58508
3.57981
3.57322
3.56533
3.55616
3.54572
3.53403
3.52111
3.50698
3.49166
3.47518
3.45755
3.43882
3.419
3.39812
3.37621
3.3533
3.32943
3.30462
3.27892
3.25235
3.22495
3.19675
3.1678
3.13812
3.10777
3.07676
3.04515
3.01297
2.98026
2.94707
2.91342
2.87936
2.84492
2.81015
2.77508
2.73975
2.70419
2.66844
2.63253
2.5965
2.56039
2.52422
2.48802
2.45184
2.4157
2.37963
2.34367
2.30784
2.27217
2.23671
2.20147
2.1665
2.13182
2.09748
2.06353
2.03
1.99696
1.96448
1.93262
1.90147
1.87113
1.84169
1.81322
1.78571
1.75921
0.0638422
0.0963761
0.12075
0.139078
0.154594
0.168682
0.18204
0.195079
0.208069
0.221205
0.234632
0.248469
0.26281
0.277736
0.293315
0.309605
0.32666
0.344525
0.363243
0.382856
0.403399
0.424909
0.447418
0.470958
0.495559
0.521248
0.548051
0.57599
0.605083
0.635342
0.666779
0.699404
0.733224
0.768241
0.804454
0.841857
0.880441
0.920192
0.961091
1.00312
1.04625
1.09044
1.13568
1.18191
1.2291
1.27721
1.32618
1.37597
1.42652
1.47777
1.52968
1.58217
1.63519
1.68867
1.74256
1.79678
1.85128
1.906
1.96082
2.0157
2.07057
2.12536
2.18002
2.23448
2.28868
2.34257
2.39608
2.44917
2.50177
2.55371
2.60496
2.65546
2.70517
2.75405
2.80206
2.84916
2.89532
2.94049
2.98464
3.02773
3.06974
3.11064
3.15039
3.18896
3.22632
3.26244
3.2973
3.33088
3.36316
3.39412
3.42374
3.45201
3.47891
3.50444
3.52857
3.5513
3.57261
3.5925
3.61096
3.62798
3.64356
3.65769
3.67037
3.68161
3.69139
3.69973
3.70662
3.71207
3.71608
3.71865
3.7198
3.71954
3.71786
3.71479
3.71033
3.70449
3.6973
3.68876
3.6789
3.66772
3.65525
3.64152
3.62653
3.61032
3.59292
3.57433
3.55461
3.53376
3.51182
3.48883
3.46481
3.4398
3.41383
3.38694
3.35916
3.33053
3.30109
3.27087
3.23992
3.20826
3.17595
3.14302
3.1095
3.07545
3.04089
3.00588
2.97045
2.93464
2.89849
2.86204
2.82532
2.78838
2.75124
2.71395
2.67654
2.63904
2.6015
2.56393
2.52638
2.48888
2.45146
2.41415
2.37698
2.33998
2.30319
2.26664
2.23037
2.1944
2.15879
2.12357
2.0888
2.05453
2.02083
1.98777
1.95543
1.92391
1.89327
1.8636
1.83486
1.80713
0.0635157
0.0937034
0.117554
0.135677
0.151096
0.165153
0.178528
0.19162
0.204691
0.217928
0.231474
0.245443
0.259931
0.27502
0.290785
0.307289
0.324588
0.342739
0.361793
0.381799
0.402804
0.424853
0.447988
0.472248
0.49767
0.524291
0.552141
0.581255
0.611654
0.643323
0.676284
0.710549
0.746123
0.783006
0.821191
0.860667
0.901418
0.943422
0.986652
1.03108
1.07667
1.12337
1.17116
1.21997
1.26977
1.32049
1.37209
1.42449
1.47765
1.53149
1.58596
1.64098
1.6965
1.75243
1.80872
1.8653
1.92209
1.97903
2.03604
2.09305
2.14999
2.2068
2.26342
2.31978
2.37583
2.4315
2.48675
2.54153
2.59566
2.64907
2.70173
2.75358
2.8046
2.85473
2.90394
2.95218
2.99942
3.04562
3.09075
3.13478
3.17767
3.21939
3.25992
3.29923
3.33727
3.37404
3.40951
3.44366
3.47646
3.5079
3.53796
3.56662
3.59388
3.61971
3.64411
3.66707
3.68857
3.7086
3.72716
3.74425
3.75985
3.77396
3.78658
3.79772
3.80736
3.81552
3.82219
3.82737
3.83108
3.83331
3.83408
3.8334
3.83126
3.82769
3.8227
3.81629
3.80849
3.79931
3.78876
3.77688
3.76367
3.74916
3.73337
3.71632
3.69805
3.67858
3.65793
3.63614
3.61324
3.58925
3.56423
3.53818
3.51116
3.4832
3.45434
3.42461
3.39405
3.3627
3.3306
3.2978
3.26432
3.23022
3.19552
3.16028
3.12453
3.08832
3.05168
3.01466
2.9773
2.93963
2.9017
2.86354
2.82518
2.78668
2.74805
2.70935
2.67059
2.63182
2.59307
2.55437
2.51575
2.47725
2.4389
2.40073
2.36277
2.32505
2.28762
2.25051
2.21375
2.1774
2.14151
2.10613
2.07132
2.03716
2.00373
1.9711
1.93936
1.90856
1.87867
1.84979
0.0624067
0.0903037
0.113584
0.131474
0.146777
0.160788
0.174173
0.187326
0.200504
0.213895
0.22764
0.241857
0.256645
0.272094
0.288288
0.305309
0.32319
0.342004
0.361812
0.382674
0.404646
0.427779
0.452122
0.477718
0.504607
0.532826
0.562406
0.59337
0.625734
0.659506
0.694689
0.731285
0.769287
0.808684
0.849459
0.891587
0.93504
0.979783
1.02578
1.07298
1.12134
1.17081
1.22134
1.27286
1.32533
1.37867
1.43282
1.48772
1.5433
1.59949
1.65623
1.71344
1.77106
1.82901
1.88724
1.94566
2.00421
2.06283
2.12143
2.17996
2.23835
2.29653
2.35446
2.41206
2.46929
2.5261
2.58242
2.63808
2.69303
2.74721
2.8006
2.85314
2.90479
2.95552
3.00528
3.05404
3.10176
3.14841
3.19395
3.23835
3.28158
3.32362
3.36443
3.40398
3.44226
3.47923
3.51487
3.54917
3.5821
3.61364
3.64378
3.6725
3.69978
3.72562
3.74999
3.7729
3.79432
3.81425
3.83269
3.84962
3.86504
3.87895
3.89134
3.90221
3.91156
3.9194
3.92572
3.93053
3.93384
3.93564
3.93595
3.93477
3.93212
3.92801
3.92244
3.91544
3.90701
3.89718
3.88596
3.87337
3.85943
3.84417
3.82761
3.80978
3.79069
3.77039
3.74889
3.72623
3.70244
3.67755
3.6516
3.62463
3.59667
3.56775
3.53791
3.5072
3.47565
3.44331
3.4102
3.37638
3.34189
3.30675
3.27103
3.23475
3.19796
3.16071
3.12303
3.08496
3.04655
3.00783
2.96884
2.92963
2.89023
2.85067
2.811
2.77125
2.73144
2.69163
2.65184
2.6121
2.57245
2.53292
2.49353
2.45433
2.41535
2.37661
2.33816
2.30004
2.26227
2.22492
2.18802
2.15164
2.11583
2.08068
2.04624
2.01261
1.97984
1.94799
1.91704
1.88709
0.060808
0.086667
0.109396
0.127078
0.142288
0.156287
0.169736
0.183032
0.196439
0.210151
0.224318
0.239065
0.254502
0.270725
0.287823
0.305879
0.324961
0.34514
0.366482
0.389051
0.412902
0.438087
0.464651
0.492632
0.522064
0.552969
0.585365
0.619261
0.654656
0.691544
0.72991
0.769734
0.81099
0.853645
0.897664
0.943004
0.989618
1.03746
1.08647
1.13659
1.18777
1.23995
1.29306
1.34704
1.40182
1.45735
1.51355
1.57036
1.62772
1.68555
1.7438
1.80239
1.86126
1.92035
1.97959
2.03892
2.09828
2.15759
2.21681
2.27587
2.33471
2.39327
2.45152
2.50939
2.56684
2.62378
2.68006
2.73564
2.79048
2.84452
2.89775
2.9501
3.00155
3.05206
3.10158
3.15009
3.19756
3.24394
3.2892
3.33332
3.37627
3.41802
3.45853
3.49779
3.53577
3.57245
3.6078
3.64179
3.67442
3.70566
3.7355
3.76391
3.79089
3.81641
3.84047
3.86305
3.88415
3.90375
3.92184
3.93842
3.95348
3.96702
3.97903
3.98952
3.99847
4.00589
4.01179
4.01616
4.01901
4.02034
4.02017
4.01849
4.01533
4.01069
4.00458