/*--------------------------------*- C++ -*----------------------------------*\
| =========                 |                                                 |
| \\      /  F ield         | OpenFOAM: The Open Source CFD Toolbox           |
|  \\    /   O peration     | Version:  2412                                  |
|   \\  /    A nd           | Website:  www.openfoam.com                      |
|    \\/     M anipulation  |                                                 |
\*---------------------------------------------------------------------------*/
FoamFile
{
    version     2.0;
    format      ascii;
    arch        "LSB;label=32;scalar=64";
    class       volScalarField;
    location    "0.27";
    object      nut;
}
// * * * * * * * * * * * * * * * * * * * * * * * * * * * * * * * * * * * * * //

dimensions      [0 2 -1 0 0 0 0];

internalField   nonuniform List<scalar> 
12225
(
2.015e-05
2.24858e-05
2.47491e-05
2.63715e-05
2.7588e-05
2.85143e-05
2.92324e-05
2.97981e-05
3.02485e-05
3.061e-05
3.09018e-05
3.11381e-05
3.13294e-05
3.14835e-05
3.16061e-05
3.17004e-05
3.17687e-05
3.18284e-05
0.000167792
0.000185428
0.000202597
0.000213787
0.000221146
0.000225984
0.000229002
0.00023072
0.000231514
0.000231644
0.000231292
0.000230594
0.00022965
0.000228531
0.000227295
0.00022597
0.000224708
0.000224071
0.000338328
0.000365994
0.000399362
0.000424407
0.00044278
0.000456139
0.000465649
0.000472249
0.000476658
0.00047941
0.000480906
0.000481448
0.000481265
0.00048053
0.000479377
0.000477904
0.000476299
0.00047546
0.000480632
0.000521771
0.000570122
0.000608391
0.000637803
0.00066021
0.000677099
0.000689692
0.000698953
0.000705626
0.00071028
0.00071336
0.000715207
0.000716088
0.00071621
0.00071574
0.000714911
0.000714431
0.00059357
0.000650968
0.00071349
0.000763786
0.000803284
0.000834123
0.000858089
0.00087663
0.000890896
0.000901785
0.000909998
0.000916089
0.000920491
0.000923547
0.000925532
0.000926671
0.000927218
0.000927685
0.000684418
0.000756656
0.000831951
0.000893054
0.000941626
0.000980104
0.00101056
0.00103466
0.0010537
0.0010687
0.00108048
0.00108967
0.00109677
0.00110221
0.0011063
0.00110932
0.00111153
0.0011133
0.000759757
0.00084284
0.000928292
0.000998648
0.00105522
0.00110054
0.00113687
0.00116606
0.00118953
0.00120842
0.00122362
0.00123583
0.00124563
0.00125348
0.00125974
0.00126473
0.0012687
0.00127194
0.000823625
0.000913365
0.00100525
0.00108261
0.00114578
0.00119702
0.00123857
0.00127237
0.00129992
0.00132243
0.00134086
0.00135597
0.00136839
0.00137861
0.00138703
0.00139399
0.00139973
0.00140448
0.000877003
0.000970916
0.0010653
0.00114672
0.00121456
0.00127046
0.0013164
0.00135421
0.00138542
0.00141126
0.00143271
0.00145058
0.00146551
0.00147804
0.00148859
0.0014975
0.00150499
0.00151123
0.000918258
0.00101593
0.00110995
0.00119241
0.00126253
0.0013214
0.00137055
0.00141157
0.00144587
0.00147463
0.00149882
0.00151925
0.00153658
0.00155133
0.00156395
0.00157477
0.001584
0.00159171
0.000944752
0.00104624
0.0011388
0.00122006
0.00129015
0.00135004
0.0014009
0.00144402
0.0014806
0.0015117
0.00153822
0.00156093
0.00158044
0.00159729
0.00161189
0.00162457
0.00163549
0.00164465
0.000953929
0.00105647
0.00114713
0.00122621
0.0012948
0.00135413
0.00140528
0.0014493
0.00148719
0.00151986
0.00154809
0.00157257
0.00159388
0.00161249
0.00162881
0.00164312
0.00165555
0.00166601
0.000951545
0.0010519
0.00114069
0.00121792
0.00128482
0.0013429
0.00139336
0.00143724
0.00147545
0.00150878
0.00153794
0.00156353
0.00158606
0.00160596
0.0016236
0.00163923
0.00165292
0.00166447
0.000937266
0.00102693
0.00110961
0.00118333
0.00124793
0.00130434
0.00135362
0.00139676
0.00143463
0.001468
0.00149751
0.00152369
0.00154702
0.00156787
0.00158656
0.00160329
0.00161811
0.00163062
0.000914066
0.000982516
0.00105
0.00111401
0.00117277
0.00122567
0.00127281
0.00131462
0.00135169
0.00138461
0.00141396
0.00144023
0.00146384
0.00148514
0.00150441
0.00152185
0.00153745
0.00155067
0.000888181
0.000929365
0.000972527
0.00101672
0.00106056
0.0011029
0.00114292
0.00118011
0.00121428
0.00124543
0.00127374
0.00129945
0.00132281
0.00134407
0.00136347
0.00138116
0.00139714
0.00141081
0.000866165
0.000882903
0.000901456
0.000921825
0.00094371
0.000966717
0.000990418
0.00101437
0.00103813
0.00106136
0.00108377
0.00110518
0.00112548
0.00114459
0.00116249
0.0011792
0.00119465
0.00120841
0.000853647
0.000856463
0.000860483
0.000865723
0.000872136
0.000879656
0.000888214
0.000897719
0.000908059
0.000919104
0.000930715
0.000942751
0.000955074
0.000967563
0.000980094
0.000992551
0.00100481
0.00101666
0.000856837
0.00086304
0.000870433
0.000879025
0.000888701
0.000899307
0.000910677
0.000922624
0.000934956
0.000947484
0.000960044
0.000972495
0.000984725
0.00099665
0.00100821
0.00101937
0.00103006
0.00104006
0.000879014
0.000910093
0.000943005
0.0009771
0.00101138
0.00104494
0.00107708
0.00110731
0.00113536
0.00116111
0.00118459
0.0012059
0.0012252
0.00124266
0.00125845
0.00127274
0.00128565
0.00129725
0.000912428
0.000978633
0.00104329
0.00110415
0.00115969
0.00120945
0.00125358
0.00129251
0.00132677
0.0013569
0.00138345
0.00140686
0.00142755
0.00144588
0.00146213
0.00147658
0.00148943
0.00150098
0.000944652
0.00103937
0.00112414
0.00119816
0.00126209
0.00131726
0.00136492
0.0014061
0.00144172
0.00147255
0.00149929
0.00152252
0.00154273
0.00156034
0.00157571
0.00158915
0.00160091
0.00161125
0.000952969
0.00105495
0.00114494
0.00122286
0.00128968
0.00134681
0.00139548
0.00143685
0.001472
0.0015019
0.00152736
0.00154908
0.00156764
0.00158352
0.00159712
0.00160878
0.00161878
0.00162735
0.000919762
0.00101577
0.00110711
0.00118655
0.00125366
0.00130983
0.00135663
0.00139556
0.001428
0.00145508
0.00147772
0.00149669
0.0015126
0.00152595
0.00153716
0.00154657
0.00155445
0.00156098
0.000847919
0.000936211
0.0010259
0.00110193
0.0011644
0.00121544
0.00125709
0.00129112
0.00131899
0.00134186
0.00136065
0.00137609
0.00138878
0.00139919
0.00140773
0.00141469
0.00142033
0.0014248
0.00074824
0.000825344
0.000905836
0.000972005
0.00102523
0.00106796
0.00110226
0.00112982
0.00115199
0.00116982
0.00118414
0.00119563
0.00120479
0.00121206
0.00121778
0.00122223
0.00122561
0.00122806
0.000620838
0.000679397
0.000743804
0.000795902
0.000837071
0.000869521
0.000895045
0.000915071
0.000930738
0.000942939
0.000952376
0.000959599
0.000965046
0.000969063
0.000971925
0.000973855
0.000975025
0.000975552
0.000453206
0.00049108
0.000536513
0.000572228
0.000599359
0.000619976
0.000635559
0.000647219
0.000655838
0.000662098
0.000666518
0.000669499
0.000671353
0.000672324
0.000672601
0.000672335
0.000671645
0.000670628
0.00023657
0.00025923
0.000284033
0.000301436
0.000313162
0.000321243
0.000326756
0.000330375
0.000332602
0.000333804
0.000334243
0.000334113
0.000333558
0.000332689
0.000331589
0.000330323
0.000328939
0.000327501
2.7242e-05
3.0171e-05
3.32397e-05
3.54417e-05
3.70547e-05
3.8262e-05
3.91809e-05
3.98936e-05
4.04543e-05
4.09001e-05
4.12575e-05
4.15462e-05
4.17807e-05
4.1972e-05
4.21288e-05
4.22576e-05
4.23633e-05
4.24507e-05
4.85e-06
1.31611e-05
1.49734e-05
1.62708e-05
1.7213e-05
1.79426e-05
1.86662e-05
1.94388e-05
2.02198e-05
2.10106e-05
2.18226e-05
2.26822e-05
2.36769e-05
2.48527e-05
2.60906e-05
2.73656e-05
2.86678e-05
2.99949e-05
3.1345e-05
3.27149e-05
3.41004e-05
3.54959e-05
3.6896e-05
3.82956e-05
3.96904e-05
4.10773e-05
4.24545e-05
4.38218e-05
4.51806e-05
4.65344e-05
4.78887e-05
4.92364e-05
5.05628e-05
5.18666e-05
5.31473e-05
5.4405e-05
5.564e-05
5.68526e-05
5.80431e-05
5.92121e-05
6.03602e-05
6.14877e-05
6.25953e-05
6.36835e-05
6.47526e-05
6.58031e-05
6.68354e-05
6.78498e-05
6.88466e-05
6.98259e-05
7.07879e-05
7.17327e-05
7.26605e-05
7.35713e-05
7.4465e-05
7.53418e-05
7.62014e-05
7.7044e-05
7.78693e-05
7.86774e-05
7.9468e-05
8.02412e-05
8.09967e-05
8.17345e-05
8.24544e-05
8.31563e-05
8.38401e-05
8.45058e-05
8.51533e-05
8.57826e-05
8.63939e-05
8.69878e-05
8.75652e-05
8.81278e-05
8.8679e-05
8.92146e-05
8.97293e-05
9.02239e-05
9.06991e-05
9.11549e-05
9.15915e-05
9.20088e-05
9.24068e-05
9.27853e-05
9.31445e-05
9.34841e-05
9.38042e-05
9.41047e-05
9.43856e-05
9.4647e-05
9.48888e-05
9.5111e-05
9.53136e-05
9.54967e-05
9.56602e-05
9.58043e-05
9.5929e-05
9.60342e-05
9.61201e-05
9.61868e-05
9.62342e-05
9.62625e-05
9.62717e-05
9.62619e-05
9.62332e-05
9.61856e-05
9.61193e-05
9.60343e-05
9.59308e-05
9.58088e-05
9.56685e-05
9.55099e-05
9.53331e-05
9.51384e-05
9.49257e-05
9.46953e-05
9.44474e-05
9.41819e-05
9.38992e-05
9.35993e-05
9.32825e-05
9.2949e-05
9.25988e-05
9.22324e-05
9.18498e-05
9.14513e-05
9.10371e-05
9.06076e-05
9.01629e-05
8.97033e-05
8.92292e-05
8.87409e-05
8.82387e-05
8.77228e-05
8.71937e-05
8.66517e-05
8.60972e-05
8.55307e-05
8.4952e-05
8.4363e-05
8.37624e-05
8.31532e-05
8.25389e-05
8.19424e-05
8.14934e-05
8.1095e-05
8.06928e-05
8.02828e-05
7.9865e-05
7.94396e-05
7.90069e-05
7.85673e-05
7.81212e-05
7.7669e-05
7.72111e-05
7.67479e-05
7.62798e-05
7.58072e-05
7.53306e-05
7.48503e-05
7.43667e-05
7.38803e-05
7.33915e-05
7.29006e-05
7.2408e-05
7.1914e-05
7.14188e-05
7.09227e-05
7.04258e-05
6.99278e-05
6.94286e-05
6.89274e-05
6.8423e-05
6.7913e-05
6.73932e-05
6.68557e-05
6.62827e-05
6.56293e-05
6.48164e-05
6.37571e-05
7.10174e-06
3.16256e-05
6.28542e-05
8.7458e-05
0.000104894
0.000117316
0.000125288
0.000130482
0.000134729
0.000138848
0.000143039
0.000147227
0.000151288
0.000155214
0.00015913
0.000163134
0.000167313
0.000171743
0.000176495
0.000181626
0.000187179
0.000193185
0.000199658
0.000206601
0.000214004
0.000221846
0.000230096
0.000238718
0.000247667
0.000256901
0.000266382
0.000276084
0.000285988
0.000296066
0.000306291
0.000316636
0.000327076
0.000337591
0.000348161
0.000358772
0.00036941
0.000380065
0.000390728
0.000401393
0.000412053
0.000422705
0.000433344
0.000443967
0.000454571
0.000465153
0.000475709
0.000486238
0.000496735
0.000507196
0.000517619
0.000527998
0.000538329
0.000548608
0.000558829
0.000568989
0.000579081
0.0005891
0.000599042
0.000608901
0.000618672
0.000628349
0.000637926
0.000647397
0.000656753
0.000665984
0.000675074
0.000684
0.000692727
0.000701206
0.000709233
0.000716757
0.000724084
0.000731261
0.000738296
0.000745187
0.000751934
0.000758535
0.000764985
0.000771285
0.00077743
0.000783419
0.00078925
0.00079492
0.000800428
0.000805773
0.000810952
0.000815965
0.000820809
0.000825485
0.00082999
0.000834323
0.000838484
0.000842473
0.000846287
0.000849927
0.000853391
0.00085668
0.000859793
0.00086273
0.00086549
0.000868072
0.000870477
0.000872705
0.000874754
0.000876625
0.000878317
0.000879832
0.000881167
0.000882325
0.000883303
0.000884104
0.000884726
0.00088517
0.000885437
0.000885526
0.000885439
0.000885176
0.000884737
0.000884123
0.000883336
0.000882377
0.000881246
0.000879945
0.000878476
0.000876839
0.000875038
0.000873073
0.000870948
0.000868663
0.000866224
0.000863629
0.000860885
0.000857996
0.000854955
0.000851785
0.000848477
0.000845003
0.000841292
0.000837046
0.000831347
0.000824818
0.000817977
0.000810966
0.000803832
0.000796597
0.000789272
0.000781866
0.000774388
0.000766844
0.00075924
0.000751583
0.000743878
0.000736131
0.000728349
0.000720535
0.000712696
0.000704837
0.000696962
0.000689077
0.000681186
0.000673294
0.000665404
0.00065752
0.000649644
0.000641778
0.000633922
0.000626075
0.000618231
0.00061038
0.000602499
0.000594552
0.000586436
0.000577893
0.000565346
0.000541876
8.65356e-06
5.0612e-05
0.000103725
0.000144707
0.000173846
0.000193527
0.000206902
0.000216561
0.000224377
0.000231504
0.000238536
0.000245724
0.000253167
0.000260938
0.000269129
0.000277841
0.000287182
0.000297258
0.000308163
0.000319976
0.000332751
0.000346518
0.00036128
0.000377016
0.000393682
0.000411218
0.000429548
0.00044859
0.000468257
0.000488464
0.000509133
0.000530192
0.000551576
0.000573226
0.000595085
0.000617106
0.000639247
0.000661473
0.000683755
0.00070607
0.0007284
0.000750728
0.000773045
0.000795339
0.000817604
0.000839833
0.00086202
0.00088416
0.000906246
0.000928273
0.000950235
0.000972125
0.000993935
0.00101566
0.00103728
0.00105881
0.00108021
0.00110149
0.00112263
0.00114362
0.00116445
0.00118511
0.00120558
0.00122585
0.00124591
0.00126574
0.00128533
0.00130465
0.00132369
0.00134242
0.00136081
0.00137883
0.00139644
0.0014136
0.00143009
0.00144609
0.00146173
0.00147706
0.00149207
0.00150678
0.00152117
0.00153524
0.00154899
0.0015624
0.00157549
0.00158824
0.00160064
0.0016127
0.0016244
0.00163575
0.00164674
0.00165737
0.00166763
0.00167752
0.00168705
0.0016962
0.00170498
0.00171338
0.00172141
0.00172905
0.00173632
0.0017432
0.0017497
0.00175581
0.00176155
0.00176689
0.00177186
0.00177643
0.00178062
0.00178442
0.00178783
0.00179086
0.0017935
0.00179575
0.00179762
0.0017991
0.00180019
0.0018009
0.00180122
0.00180116
0.00180071
0.00179989
0.00179869
0.00179711
0.00179515
0.00179282
0.00179013
0.00178707
0.00178364
0.00177986
0.00177572
0.00177124
0.00176641
0.00176124
0.00175574
0.00174991
0.00174377
0.00173732
0.00173058
0.00172353
0.0017162
0.0017085
0.00170032
0.00169133
0.00168092
0.00166945
0.00165735
0.00164485
0.00163204
0.00161898
0.00160569
0.00159221
0.00157854
0.0015647
0.00155071
0.00153658
0.00152232
0.00150795
0.00149347
0.00147891
0.00146426
0.00144954
0.00143476
0.00141994
0.00140508
0.00139019
0.00137528
0.00136035
0.00134542
0.00133048
0.00131554
0.00130059
0.00128562
0.00127059
0.00125546
0.00124011
0.00122427
0.00120725
0.00118566
0.00114855
9.82923e-06
6.94365e-05
0.000137982
0.000190294
0.000227325
0.000253327
0.000271954
0.00028607
0.000297764
0.000308434
0.000318932
0.000329734
0.000341103
0.000353204
0.000366166
0.000380107
0.000395138
0.00041136
0.000428854
0.000447674
0.000467847
0.000489365
0.000512192
0.000536265
0.0005615
0.000587797
0.000615049
0.000643144
0.00067197
0.000701421
0.000731401
0.00076182
0.000792598
0.000823666
0.000854961
0.000886431
0.000918029
0.00094972
0.000981472
0.00101326
0.00104506
0.00107687
0.00110865
0.00114041
0.00117213
0.0012038
0.00123542
0.00126696
0.00129844
0.00132982
0.00136111
0.00139229
0.00142334
0.00145427
0.00148504
0.00151565
0.00154608
0.00157632
0.00160634
0.00163614
0.00166568
0.00169496
0.00172396
0.00175265
0.00178101
0.00180902
0.00183667
0.00186392
0.00189075
0.00191714
0.00194306
0.00196847
0.00199335
0.00201763
0.00204125
0.00206432
0.0020869
0.00210904
0.00213073
0.00215197
0.00217277
0.00219311
0.00221298
0.00223239
0.00225132
0.00226976
0.00228772
0.00230518
0.00232213
0.00233858
0.00235452
0.00236994
0.00238484
0.00239921
0.00241306
0.00242637
0.00243915
0.00245139
0.00246309
0.00247424
0.00248485
0.00249491
0.00250443
0.00251339
0.0025218
0.00252966
0.00253697
0.00254372
0.00254991
0.00255555
0.00256063
0.00256515
0.00256911
0.00257252
0.00257537
0.00257766
0.00257939
0.00258057
0.00258119
0.00258126
0.00258078
0.00257975
0.00257816
0.00257604
0.00257337
0.00257016
0.00256642
0.00256214
0.00255735
0.00255203
0.0025462
0.00253986
0.00253303
0.0025257
0.0025179
0.00250963
0.0025009
0.00249172
0.00248211
0.00247205
0.00246153
0.00245051
0.00243886
0.00242636
0.00241269
0.00239798
0.00238251
0.00236646
0.00234995
0.00233304
0.00231578
0.0022982
0.00228033
0.00226218
0.00224379
0.00222517
0.00220634
0.00218731
0.0021681
0.00214874
0.00212923
0.00210959
0.00208984
0.00206999
0.00205005
0.00203005
0.00201
0.0019899
0.00196976
0.00194959
0.0019294
0.00190918
0.00188891
0.00186855
0.00184803
0.0018272
0.0018057
0.00178265
0.00175516
0.00171522
1.06958e-05
8.48127e-05
0.000166249
0.000228109
0.00027287
0.000305176
0.00032906
0.000347678
0.000363362
0.000377733
0.000391852
0.000406379
0.000421713
0.000438105
0.000455726
0.000474703
0.000495136
0.000517099
0.000540636
0.000565762
0.000592462
0.000620686
0.000650364
0.000681399
0.000713682
0.000747094
0.000781513
0.000816815
0.000852884
0.000889608
0.000926888
0.00096463
0.00100275
0.00104119
0.00107986
0.00111873
0.00115775
0.00119687
0.00123607
0.00127531
0.00131458
0.00135384
0.00139309
0.00143231
0.00147148
0.00151059
0.00154962
0.00158857
0.00162741
0.00166614
0.00170473
0.00174318
0.00178146
0.00181956
0.00185746
0.00189514
0.00193258
0.00196976
0.00200666
0.00204326
0.00207953
0.00211546
0.00215102
0.00218619
0.00222093
0.00225524
0.00228909
0.00232245
0.0023553
0.0023876
0.00241936
0.00245053
0.0024811
0.00251095
0.00254014
0.00256873
0.00259675
0.00262423
0.00265116
0.00267755
0.0027034
0.00272869
0.00275341
0.00277757
0.00280115
0.00282414
0.00284654
0.00286833
0.00288952
0.00291009
0.00293004
0.00294936
0.00296805
0.0029861
0.00300351
0.00302027
0.00303638
0.00305184
0.00306664
0.00308077
0.00309424
0.00310704
0.00311918
0.00313064
0.00314142
0.00315153
0.00316096
0.00316971
0.00317778
0.00318517
0.00319187
0.00319789
0.00320323
0.00320787
0.00321183
0.00321511
0.0032177
0.0032196
0.00322082
0.00322135
0.0032212
0.00322037
0.00321887
0.00321669
0.00321384
0.00321032
0.00320613
0.00320129
0.0031958
0.00318966
0.00318289
0.00317548
0.00316746
0.00315882
0.00314959
0.00313977
0.00312937
0.00311841
0.00310688
0.00309479
0.00308213
0.00306885
0.00305488
0.00304007
0.00302425
0.00300748
0.0029899
0.00297163
0.00295279
0.00293344
0.00291363
0.0028934
0.00287279
0.00285181
0.00283049
0.00280886
0.00278694
0.00276475
0.0027423
0.00271963
0.00269676
0.00267369
0.00265045
0.00262707
0.00260355
0.00257992
0.0025562
0.00253239
0.00250852
0.00248459
0.00246061
0.00243658
0.00241249
0.0023883
0.00236393
0.00233924
0.00231384
0.00228691
0.0022562
0.00221719
1.13797e-05
9.63203e-05
0.000188323
0.00025931
0.000311727
0.000350453
0.000379777
0.000403091
0.000422938
0.000441142
0.000458952
0.000477183
0.000496356
0.000516799
0.00053872
0.000562253
0.000587482
0.000614449
0.000643166
0.000673609
0.000705727
0.000739444
0.000774662
0.000811271
0.000849149
0.00088817
0.000928209
0.000969144
0.00101086
0.00105324
0.0010962
0.00113963
0.00118346
0.00122763
0.00127205
0.00131669
0.00136149
0.0014064
0.0014514
0.00149646
0.00154154
0.00158661
0.00163167
0.00167669
0.00172164
0.00176652
0.0018113
0.00185597
0.0019005
0.00194489
0.00198911
0.00203314
0.00207696
0.00212056
0.00216391
0.00220699
0.00224977
0.00229224
0.00233438
0.00237615
0.00241753
0.00245851
0.00249905
0.00253913
0.00257873
0.00261783
0.0026564
0.00269441
0.00273185
0.00276869
0.00280491
0.0028405
0.00287543
0.00290961
0.0029431
0.00297595
0.00300817
0.00303979
0.0030708
0.00310121
0.003131
0.00316017
0.00318871
0.00321662
0.00324388
0.00327048
0.00329642
0.00332168
0.00334627
0.00337017
0.00339337
0.00341587
0.00343766
0.00345873
0.00347909
0.00349872
0.00351761
0.00353577
0.00355319
0.00356986
0.00358579
0.00360096
0.00361537
0.00362903
0.00364192
0.00365405
0.00366541
0.00367601
0.00368583
0.00369487
0.00370314
0.00371063
0.00371735
0.00372328
0.00372843
0.00373281
0.00373639
0.0037392
0.00374123
0.00374248
0.00374295
0.00374264
0.00374155
0.0037397
0.00373707
0.00373368
0.00372953
0.00372462
0.00371897
0.00371257
0.00370544
0.00369758
0.003689
0.00367973
0.00366975
0.00365909
0.00364777
0.00363577
0.00362313
0.00360983
0.00359587
0.00358122
0.00356583
0.00354962
0.0035325
0.00351449
0.00349565
0.00347609
0.00345587
0.00343505
0.0034137
0.00339184
0.00336951
0.00334674
0.00332356
0.00329999
0.00327606
0.00325179
0.00322721
0.00320234
0.00317719
0.00315181
0.0031262
0.00310038
0.00307439
0.00304825
0.00302196
0.00299556
0.00296906
0.00294248
0.00291583
0.00288911
0.00286233
0.00283545
0.00280842
0.00278109
0.00275315
0.00272387
0.00269167
0.00265425
1.23194e-05
0.000101796
0.000203409
0.000283563
0.000343788
0.000389117
0.000424085
0.000452297
0.000476483
0.00049864
0.000520172
0.000542032
0.000564846
0.000589013
0.000614777
0.000642284
0.000671608
0.000702773
0.000735764
0.000770532
0.000807006
0.000845092
0.000884681
0.000925656
0.000967892
0.00101127
0.00105565
0.00110093
0.00114699
0.00119373
0.00124105
0.00128887
0.00133709
0.00138566
0.0014345
0.00148357
0.00153281
0.00158217
0.00163163
0.00168113
0.00173066
0.00178019
0.00182968
0.00187912
0.00192848
0.00197775
0.00202689
0.0020759
0.00212474
0.00217341
0.00222188
0.00227013
0.00231813
0.00236587
0.00241332
0.00246047
0.00250728
0.00255373
0.0025998
0.00264547
0.00269071
0.0027355
0.0027798
0.00282361
0.00286689
0.00290962
0.00295177
0.00299334
0.00303429
0.0030746
0.00311426
0.00315325
0.00319154
0.00322907
0.00326589
0.00330205
0.00333755
0.00337241
0.00340663
0.0034402
0.00347312
0.00350538
0.00353698
0.00356789
0.00359811
0.00362763
0.00365645
0.00368455
0.00371192
0.00373855
0.00376444
0.00378958
0.00381396
0.00383757
0.00386041
0.00388246
0.00390373
0.00392421
0.00394389
0.00396277
0.00398083
0.00399809
0.00401453
0.00403014
0.00404494
0.0040589
0.00407204
0.00408434
0.0040958
0.00410642
0.0041162
0.00412513
0.00413322
0.00414045
0.00414684
0.00415238
0.00415706
0.00416089
0.00416387
0.004166
0.00416728
0.0041677
0.00416728
0.00416601
0.0041639
0.00416095
0.00415717
0.00415256
0.00414712
0.00414086
0.00413379
0.00412593
0.00411727
0.00410783
0.00409763
0.00408667
0.00407496
0.00406252
0.00404935
0.00403546
0.00402084
0.00400548
0.00398935
0.0039724
0.0039546
0.00393593
0.00391645
0.00389621
0.00387527
0.00385368
0.00383148
0.00380871
0.0037854
0.00376159
0.00373731
0.00371257
0.00368742
0.00366186
0.00363594
0.00360967
0.00358307
0.00355618
0.00352901
0.0035016
0.00347396
0.00344613
0.00341812
0.00338995
0.00336166
0.00333326
0.00330478
0.00327622
0.0032476
0.0032189
0.00319009
0.00316105
0.00313153
0.00310096
0.00306825
0.00303215
1.31034e-05
0.000104474
0.000213435
0.000301712
0.000369337
0.000421162
0.000461812
0.000495018
0.000523642
0.000549809
0.000575046
0.000600416
0.000626637
0.000654171
0.000683304
0.0007142
0.000746937
0.000781531
0.000817957
0.000856156
0.000896045
0.000937525
0.000980483
0.0010248
0.00107036
0.00111704
0.00116471
0.00121327
0.0012626
0.00131262
0.00136321
0.0014143
0.00146581
0.00151767
0.00156981
0.00162218
0.00167472
0.00172739
0.00178015
0.00183295
0.00188578
0.00193859
0.00199136
0.00204406
0.00209667
0.00214916
0.00220152
0.00225372
0.00230574
0.00235756
0.00240916
0.00246051
0.0025116
0.0025624
0.00261289
0.00266305
0.00271285
0.00276227
0.00281128
0.00285987
0.002908
0.00295565
0.00300281
0.00304943
0.00309551
0.00314101
0.00318592
0.00323022
0.00327388
0.00331689
0.00335923
0.00340088
0.00344177
0.00348193
0.0035214
0.00356019
0.00359831
0.00363578
0.00367259
0.00370873
0.0037442
0.003779
0.0038131
0.00384649
0.00387918
0.00391114
0.00394236
0.00397284
0.00400257
0.00403152
0.00405971
0.0040871
0.00411371
0.00413951
0.00416451
0.00418869
0.00421204
0.00423456
0.00425625
0.00427708
0.00429707
0.0043162
0.00433447
0.00435188
0.00436842
0.00438409
0.00439887
0.00441278
0.00442579
0.00443792
0.00444916
0.0044595
0.00446894
0.00447749
0.00448513
0.00449187
0.0044977
0.00450263
0.00450666
0.00450978
0.00451199
0.00451329
0.00451369
0.0045132
0.0045118
0.0045095
0.00450631
0.00450223
0.00449728
0.00449144
0.00448475
0.0044772
0.0044688
0.00445956
0.0044495
0.00443863
0.00442695
0.00441448
0.00440122
0.00438719
0.00437238
0.00435679
0.00434041
0.0043232
0.00430516
0.00428628
0.00426659
0.00424612
0.00422492
0.00420303
0.00418048
0.00415731
0.00413355
0.00410924
0.0040844
0.00405906
0.00403324
0.00400698
0.00398029
0.00395321
0.00392576
0.00389797
0.00386986
0.00384145
0.00381278
0.00378388
0.00375476
0.00372546
0.003696
0.00366642
0.00363673
0.00360697
0.00357715
0.00354729
0.00351735
0.00348727
0.00345686
0.00342571
0.00339303
0.00335815
1.37248e-05
0.00010518
0.000219343
0.000314432
0.00038876
0.000446743
0.000492929
0.000531082
0.00056413
0.000594277
0.000623137
0.000651859
0.00068123
0.000711776
0.000743823
0.000777564
0.00081309
0.000850425
0.000889544
0.000930389
0.000972877
0.00101691
0.00106238
0.00110917
0.00115716
0.00120624
0.00125629
0.00130721
0.00135889
0.00141124
0.00146416
0.00151757
0.00157139
0.00162556
0.00168001
0.00173469
0.00178953
0.0018445
0.00189956
0.00195465
0.00200976
0.00206485
0.00211989
0.00217486
0.00222972
0.00228446
0.00233906
0.00239349
0.00244774
0.00250178
0.00255559
0.00260915
0.00266244
0.00271544
0.00276813
0.00282047
0.00287246
0.00292407
0.00297526
0.00302603
0.00307634
0.00312616
0.00317548
0.00322427
0.0032725
0.00332016
0.00336721
0.00341365
0.00345944
0.00350458
0.00354904
0.0035928
0.00363581
0.00367812
0.00371975
0.00376071
0.00380101
0.00384066
0.00387964
0.00391795
0.00395559
0.00399254
0.00402878
0.00406432
0.00409913
0.0041332
0.00416653
0.00419909
0.00423087
0.00426188
0.00429208
0.00432149
0.00435008
0.00437784
0.00440477
0.00443086
0.0044561
0.00448048
0.00450399
0.00452663
0.00454838
0.00456925
0.00458922
0.0046083
0.00462647
0.00464374
0.0046601
0.00467553
0.00469005
0.00470363
0.00471628
0.004728
0.0047388
0.00474866
0.00475756
0.00476553
0.00477254
0.00477861
0.00478375
0.00478794
0.00479116
0.00479344
0.00479477
0.00479516
0.0047946
0.00479311
0.00479068
0.00478732
0.00478304
0.00477784
0.00477174
0.00476473
0.00475683
0.00474806
0.00473841
0.0047279
0.00471655
0.00470436
0.00469134
0.0046775
0.00466284
0.00464738
0.00463109
0.00461398
0.00459603
0.00457726
0.00455768
0.0045373
0.00451618
0.00449433
0.00447178
0.00444859
0.00442476
0.00440033
0.00437533
0.00434979
0.00432373
0.00429718
0.00427017
0.00424272
0.00421486
0.00418661
0.004158
0.00412907
0.00409983
0.00407032
0.00404056
0.0040106
0.00398045
0.00395016
0.00391975
0.00388926
0.00385873
0.00382818
0.0037976
0.00376698
0.00373616
0.00370486
0.00367254
0.00363877
1.42029e-05
0.000104363
0.000221791
0.000322327
0.000402515
0.000466152
0.000517578
0.000560495
0.000597838
0.000631843
0.000664179
0.000696049
0.000728301
0.000761511
0.000796049
0.000832138
0.000869895
0.000909359
0.000950516
0.000993317
0.00103769
0.00108353
0.00113075
0.00117923
0.00122887
0.00127955
0.00133116
0.00138361
0.00143679
0.00149061
0.00154499
0.00159984
0.00165509
0.00171067
0.00176652
0.00182259
0.00187882
0.00193518
0.00199161
0.00204808
0.00210457
0.00216104
0.00221746
0.00227382
0.00233008
0.00238622
0.00244224
0.00249809
0.00255378
0.00260927
0.00266455
0.0027196
0.0027744
0.00282892
0.00288315
0.00293706
0.00299064
0.00304384
0.00309666
0.00314906
0.00320103
0.00325252
0.00330352
0.00335401
0.00340395
0.00345332
0.0035021
0.00355027
0.0035978
0.00364468
0.00369089
0.00373639
0.0037812
0.00382534
0.00386883
0.00391166
0.00395386
0.0039954
0.00403629
0.00407652
0.00411607
0.00415494
0.00419311
0.00423056
0.00426728
0.00430326
0.00433849
0.00437294
0.0044066
0.00443947
0.00447154
0.00450278
0.00453319
0.00456276
0.00459149
0.00461935
0.00464635
0.00467246
0.00469769
0.00472201
0.00474543
0.00476793
0.00478952
0.00481019
0.00482993
0.00484874
0.00486661
0.00488353
0.00489949
0.0049145
0.00492855
0.00494163
0.00495376
0.00496494
0.00497512
0.00498432
0.00499254
0.00499979
0.00500606
0.00501134
0.00501565
0.00501897
0.00502131
0.00502268
0.00502308
0.0050225
0.00502096
0.00501845
0.00501499
0.00501058
0.00500522
0.00499894
0.00499172
0.0049836
0.00497456
0.00496464
0.00495383
0.00494214
0.0049296
0.0049162
0.00490196
0.00488687
0.00487095
0.00485419
0.0048366
0.00481818
0.00479894
0.0047789
0.0047581
0.00473655
0.00471428
0.00469132
0.00466771
0.00464346
0.0046186
0.00459316
0.00456718
0.00454066
0.00451364
0.00448615
0.00445821
0.00442985
0.00440109
0.00437197
0.00434252
0.00431276
0.00428273
0.00425246
0.00422198
0.00419134
0.00416058
0.00412973
0.00409885
0.00406796
0.00403711
0.00400628
0.00397539
0.00394423
0.00391242
0.00387967
1.45557e-05
0.000102379
0.000221356
0.000325986
0.00041111
0.000479785
0.000536031
0.000583415
0.000624819
0.000662475
0.00069807
0.000732844
0.000767686
0.000803215
0.00083984
0.000877819
0.000917294
0.000958329
0.00100093
0.00104505
0.00109064
0.00113761
0.00118587
0.00123532
0.00128585
0.00133736
0.00138975
0.00144292
0.00149678
0.00155125
0.00160623
0.00166167
0.00171748
0.0017736
0.00182998
0.00188657
0.00194333
0.0020002
0.00205716
0.00211418
0.00217122
0.00222826
0.00228528
0.00234226
0.00239918
0.00245601
0.00251275
0.00256937
0.00262586
0.0026822
0.00273837
0.00279435
0.00285013
0.00290567
0.00296097
0.003016
0.00307072
0.00312513
0.00317918
0.00323286
0.00328613
0.00333896
0.00339133
0.00344321
0.00349456
0.00354537
0.00359561
0.00364525
0.00369426
0.00374264
0.00379035
0.0038374
0.00388381
0.0039296
0.00397476
0.0040193
0.00406322
0.00410651
0.00414916
0.00419115
0.00423248
0.00427313
0.00431308
0.00435232
0.00439083
0.00442859
0.00446559
0.00450182
0.00453725
0.00457188
0.00460569
0.00463867
0.00467081
0.0047021
0.00473252
0.00476207
0.00479075
0.00481852
0.00484538
0.00487132
0.00489634
0.00492042
0.00494357
0.00496577
0.00498703
0.00500734
0.0050267
0.00504507
0.00506246
0.00507887
0.00509429
0.00510873
0.00512218
0.00513464
0.0051461
0.00515656
0.00516601
0.00517446
0.00518191
0.00518835
0.00519378
0.00519821
0.00520164
0.00520406
0.00520549
0.00520592
0.00520536
0.00520381
0.00520127
0.00519777
0.00519329
0.00518786
0.00518147
0.00517414
0.00516588
0.00515669
0.00514659
0.0051356
0.00512371
0.00511095
0.00509731
0.00508281
0.00506746
0.00505126
0.00503421
0.00501633
0.00499763
0.00497813
0.00495784
0.00493678
0.004915
0.00489249
0.00486931
0.00484546
0.00482098
0.00479588
0.00477021
0.00474397
0.0047172
0.00468992
0.00466217
0.00463396
0.00460532
0.00457629
0.0045469
0.00451717
0.00448713
0.00445684
0.00442632
0.00439561
0.00436477
0.00433385
0.00430289
0.00427195
0.00424109
0.0042103
0.00417955
0.00414871
0.00411749
0.00408568
1.47974e-05
9.95265e-05
0.000218561
0.000325978
0.000415069
0.000488083
0.000548635
0.00060009
0.000645228
0.000686243
0.000724813
0.000762193
0.0007993
0.000836782
0.000875084
0.000914495
0.000955186
0.000997244
0.0010407
0.00108552
0.00113167
0.00117908
0.00122765
0.00127731
0.00132796
0.00137951
0.00143186
0.00148492
0.00153862
0.00159286
0.00164759
0.00170273
0.00175823
0.00181403
0.00187008
0.00192634
0.00198278
0.00203937
0.00209607
0.00215286
0.00220972
0.00226663
0.00232358
0.00238054
0.00243751
0.00249446
0.00255139
0.00260827
0.00266509
0.00272184
0.0027785
0.00283503
0.00289144
0.00294769
0.00300375
0.00305961
0.00311524
0.0031706
0.00322566
0.0032804
0.00333478
0.00338877
0.00344234
0.00349544
0.00354806
0.00360015
0.00365169
0.00370265
0.00375301
0.00380273
0.00385185
0.00390036
0.0039483
0.00399564