/*--------------------------------*- C++ -*----------------------------------*\
| =========                 |                                                 |
| \\      /  F ield         | OpenFOAM: The Open Source CFD Toolbox           |
|  \\    /   O peration     | Version:  2412                                  |
|   \\  /    A nd           | Website:  www.openfoam.com                      |
|    \\/     M anipulation  |                                                 |
\*---------------------------------------------------------------------------*/
FoamFile
{
    version     2.0;
    format      ascii;
    arch        "LSB;label=32;scalar=64";
    class       volScalarField;
    location    "0.27";
    object      p;
}
// * * * * * * * * * * * * * * * * * * * * * * * * * * * * * * * * * * * * * //

dimensions      [0 2 -2 0 0 0 0];

internalField   nonuniform List<scalar> 
12225
(
-10.3275
-9.73518
-9.07247
-8.51604
-8.00699
-7.55055
-7.152
-6.80101
-6.48866
-6.20939
-5.95828
-5.73084
-5.52322
-5.33209
-5.15438
-4.98659
-4.82649
-4.6596
-10.7613
-9.79336
-9.10729
-8.55702
-8.04729
-7.5908
-7.19162
-6.83921
-6.52524
-6.24427
-5.99143
-5.76226
-5.55294
-5.36012
-5.18074
-5.01141
-4.84929
-4.69115
-10.9417
-9.82764
-9.14903
-8.60789
-8.09769
-7.64208
-7.24303
-6.88957
-6.57405
-6.2913
-6.03651
-5.80533
-5.59398
-5.39916
-5.21784
-5.04685
-4.88333
-4.72223
-10.9656
-9.84335
-9.17371
-8.64184
-8.13434
-7.68159
-7.28442
-6.93151
-6.61583
-6.33248
-6.07677
-5.84448
-5.63194
-5.43595
-5.25358
-5.08207
-4.91816
-4.76103
-10.8955
-9.83807
-9.174
-8.65263
-8.15216
-7.70434
-7.31072
-6.96002
-6.64564
-6.36297
-6.1075
-5.87518
-5.66248
-5.46637
-5.28408
-5.11336
-4.9509
-4.80164
-10.7537
-9.80493
-9.15051
-8.64177
-8.15294
-7.71231
-7.32384
-6.97685
-6.66503
-6.38413
-6.1299
-5.89846
-5.68651
-5.49119
-5.30998
-5.14118
-4.98161
-4.84089
-10.5511
-9.73849
-9.10427
-8.61008
-8.13736
-7.70671
-7.32514
-6.98335
-6.67535
-6.39727
-6.14519
-5.9155
-5.70511
-5.51143
-5.33219
-5.16619
-5.01048
-4.87805
-10.2981
-9.63615
-9.03609
-8.55813
-8.10534
-7.68791
-7.31519
-6.98018
-6.67732
-6.40314
-6.15416
-5.92707
-5.71907
-5.52783
-5.35139
-5.18894
-5.03773
-4.91317
-10.0057
-9.49762
-8.9471
-8.48756
-8.05741
-7.65651
-7.29476
-6.9681
-6.67172
-6.40257
-6.15765
-5.93405
-5.72925
-5.54124
-5.36834
-5.21003
-5.06375
-4.9465
-9.68491
-9.32487
-8.83868
-8.40122
-7.99527
-7.61382
-7.26515
-6.94833
-6.65972
-6.3967
-6.15678
-5.93751
-5.73669
-5.55263
-5.3839
-5.23021
-5.08908
-4.97852
-9.348
-9.12268
-8.71246
-8.30265
-7.92184
-7.56207
-7.22846
-6.92277
-6.64301
-6.38708
-6.15303
-5.93883
-5.7427
-5.56319
-5.39914
-5.25041
-5.1144
-5.01008
-9.036
-8.91689
-8.58271
-8.20447
-7.8476
-7.50917
-7.19102
-6.89655
-6.62564
-6.37692
-6.14886
-5.93988
-5.74852
-5.57362
-5.41416
-5.27015
-5.13863
-5.03991
-8.74098
-8.7025
-8.44415
-8.10223
-7.76957
-7.45314
-7.15174
-6.86929
-6.60771
-6.36665
-6.145
-5.9416
-5.75533
-5.58526
-5.43056
-5.29121
-5.16461
-5.06921
-8.43389
-8.45804
-8.27854
-7.9827
-7.67878
-7.3879
-7.10723
-6.83981
-6.5896
-6.35774
-6.14382
-5.9471
-5.76684
-5.6024
-5.45311
-5.31897
-5.19768
-5.10478
-8.13676
-8.20377
-8.09592
-7.85196
-7.58049
-7.31719
-7.06047
-6.81141
-6.575
-6.35417
-6.14945
-5.96059
-5.78724
-5.62908
-5.48564
-5.35695
-5.2409
-5.15012
-7.87832
-7.97166
-7.92146
-7.72854
-7.49039
-7.25347
-7.02051
-6.79097
-6.5697
-6.36104
-6.16662
-5.98661
-5.82098
-5.66964
-5.5323
-5.40906
-5.29798
-5.20875
-7.69065
-7.79874
-7.79003
-7.64121
-7.43445
-7.2209
-7.00846
-6.79632
-6.58869
-6.3908
-6.20533
-6.03301
-5.87399
-5.72837
-5.59594
-5.4767
-5.36903
-5.27893
-7.61403
-7.72635
-7.73886
-7.61723
-7.43225
-7.23533
-7.0375
-6.83825
-6.64115
-6.45164
-6.27298
-6.10624
-5.95161
-5.8091
-5.67862
-5.55996
-5.45208
-5.3563
-7.71333
-7.82035
-7.82669
-7.70004
-7.51182
-7.31308
-7.11444
-6.91519
-6.71875
-6.53032
-6.35295
-6.18745
-6.0338
-5.89181
-5.76116
-5.64113
-5.53148
-5.42905
-7.98954
-8.08395
-8.05053
-7.87896
-7.65739
-7.43468
-7.21629
-7.00094
-6.7926
-6.59579
-6.4124
-6.24247
-6.08553
-5.94102
-5.80824
-5.68609
-5.57432
-5.46728
-8.38291
-8.44102
-8.33864
-8.10421
-7.83987
-7.58492
-7.3388
-7.10101
-6.87593
-6.66667
-6.47366
-6.29622
-6.13347
-5.9845
-5.8483
-5.72365
-5.61014
-5.50178
-8.88329
-8.86302
-8.65481
-8.34503
-8.03298
-7.73899
-7.45931
-7.19582
-6.95199
-6.72861
-6.52466
-6.33878
-6.16958
-6.01567
-5.8757
-5.74827
-5.63259
-5.52296
-9.44731
-9.29173
-8.94783
-8.56496
-8.20833
-7.87482
-7.56282
-7.27619
-7.01562
-6.77938
-6.56541
-6.37177
-6.19657
-6.03799
-5.89436
-5.76411
-5.64618
-5.53547
-10.0117
-9.66573
-9.18263
-8.74483
-8.3509
-7.98138
-7.64195
-7.33627
-7.06148
-6.81408
-6.59144
-6.39112
-6.21072
-6.04805
-5.9012
-5.76843
-5.64845
-5.53686
-10.5157
-9.94725
-9.35159
-8.87978
-8.4532
-8.05271
-7.69189
-7.37141
-7.08528
-6.8291
-6.59978
-6.39437
-6.21004
-6.04431
-5.89506
-5.76041
-5.63893
-5.52686
-10.9172
-10.1248
-9.45834
-8.96621
-8.51109
-8.08716
-7.71144
-7.38037
-7.08608
-6.82376
-6.58988
-6.38104
-6.19411
-6.02641
-5.87566
-5.73987
-5.61751
-5.5054
-11.1886
-10.2083
-9.50857
-9.00188
-8.52551
-8.08672
-7.70148
-7.36346
-7.064
-6.79796
-6.56145
-6.35076
-6.16253
-5.99395
-5.84263
-5.70648
-5.58393
-5.47233
-11.2958
-10.2237
-9.50923
-8.98616
-8.49776
-8.05142
-7.6606
-7.31877
-7.01698
-6.74958
-6.51239
-6.30149
-6.1134
-5.94517
-5.79435
-5.65879
-5.53684
-5.42643
-11.1631
-10.1939
-9.4742
-8.92853
-8.43522
-7.98655
-7.59338
-7.25071
-6.94926
-6.68276
-6.44679
-6.23733
-6.05079
-5.88414
-5.73487
-5.60083
-5.48026
-5.37142
-10.632
-10.1017
-9.43163
-8.87162
-8.37656
-7.92765
-7.53403
-7.19199
-6.89187
-6.62692
-6.39257
-6.18477
-5.99985
-5.83476
-5.68697
-5.55433
-5.43499
-5.32713
-4.71659
-4.71627
-4.71717
-4.71913
-4.72163
-4.72433
-4.7271
-4.72998
-4.73305
-4.73637
-4.74002
-4.74407
-4.74864
-4.75383
-4.75972
-4.76642
-4.77406
-4.78275
-4.79261
-4.80377
-4.81636
-4.83048
-4.84622
-4.86363
-4.88275
-4.90356
-4.92601
-4.95002
-4.97547
-5.00221
-5.03002
-5.05863
-5.0878
-5.11729
-5.14691
-5.17642
-5.20563
-5.23434
-5.26236
-5.2895
-5.31559
-5.34048
-5.36401
-5.38603
-5.4064
-5.42499
-5.44168
-5.45632
-5.46881
-5.47903
-5.48685
-5.49216
-5.49487
-5.49485
-5.492
-5.48623
-5.47743
-5.46551
-5.45039
-5.43197
-5.41018
-5.38495
-5.3562
-5.32387
-5.28791
-5.24827
-5.2049
-5.15776
-5.10684
-5.05211
-4.99357
-4.93125
-4.86523
-4.79551
-4.72199
-4.6445
-4.563
-4.47763
-4.38847
-4.2956
-4.19906
-4.09891
-3.99518
-3.88796
-3.77729
-3.66325
-3.5459
-3.42534
-3.30164
-3.17489
-3.04519
-2.91264
-2.77733
-2.63937
-2.49887
-2.35595
-2.21073
-2.06332
-1.91384
-1.76243
-1.60921
-1.45431
-1.29787
-1.14003
-0.980908
-0.820658
-0.659416
-0.497325
-0.334527
-0.171165
-0.00738422
0.156672
0.32086
0.485034
0.649052
0.81277
0.976046
1.13874
1.30072
1.46183
1.62196
1.78096
1.93871
2.09508
2.24995
2.4032
2.55471
2.70439
2.85211
2.99778
3.14131
3.2826
3.42158
3.55815
3.69226
3.82382
3.9528
4.07912
4.20275
4.32364
4.44178
4.55714
4.66971
4.77947
4.88635
4.99029
5.09126
5.18931
5.28446
5.37673
5.46616
5.55276
5.63657
5.71761
5.79592
5.87153
5.94447
6.01478
6.08249
6.14766
6.21031
6.27048
6.32822
6.38356
6.43656
6.48725
6.53567
6.58189
6.62595
6.66794
6.70795
6.74611
6.7826
6.81772
6.85196
6.88615
6.92219
6.96322
7.02107
7.09621
-4.71638
-4.71662
-4.7176
-4.71932
-4.72127
-4.7231
-4.72468
-4.72604
-4.72742
-4.72903
-4.73104
-4.73355
-4.73664
-4.74036
-4.74482
-4.75012
-4.7564
-4.76382
-4.77253
-4.78269
-4.79445
-4.80794
-4.82327
-4.84048
-4.85958
-4.88055
-4.90329
-4.92768
-4.95355
-4.98069
-5.00888
-5.03785
-5.06736
-5.09718
-5.12708
-5.15684
-5.18627
-5.21516
-5.24333
-5.27063
-5.29687
-5.32192
-5.34562
-5.36783
-5.38844
-5.40729
-5.42428
-5.43927
-5.45215
-5.4628
-5.4711
-5.47695
-5.48023
-5.48083
-5.47866
-5.4736
-5.46556
-5.45445
-5.44018
-5.42265
-5.40179
-5.37753
-5.34979
-5.31852
-5.28365
-5.24513
-5.20292
-5.15699
-5.1073
-5.05383
-4.99654
-4.93542
-4.87042
-4.80149
-4.72852
-4.65169
-4.57122
-4.48703
-4.39913
-4.30753
-4.21227
-4.11339
-4.01094
-3.90498
-3.79557
-3.68277
-3.56666
-3.44731
-3.32481
-3.19924
-3.0707
-2.93928
-2.80508
-2.66822
-2.52879
-2.3869
-2.24269
-2.09626
-1.94773
-1.79724
-1.64491
-1.49086
-1.33524
-1.17818
-1.01982
-0.860281
-0.699719
-0.538269
-0.376075
-0.213279
-0.0500254
0.113543
0.277282
0.441048
0.604697
0.768088
0.931077
1.09353
1.25529
1.41625
1.57625
1.73517
1.89287
2.04924
2.20414
2.35747
2.5091
2.65892
2.80683
2.95273
3.09652
3.2381
3.3774
3.51434
3.64884
3.78083
3.91026
4.03706
4.1612
4.28264
4.40135
4.5173
4.63048
4.74086
4.84837
4.95295
5.05462
5.15337
5.24923
5.34222
5.43237
5.5197
5.60424
5.68601
5.76504
5.84138
5.91503
5.98606
6.05448
6.12035
6.18369
6.24454
6.30295
6.35896
6.41261
6.46393
6.51299
6.55984
6.60453
6.64714
6.68778
6.72659
6.76378
6.79966
6.83478
6.86996
6.90714
6.94844
7.00448
7.07073
-4.71068
-4.71235
-4.71449
-4.71663
-4.71834
-4.71952
-4.72029
-4.72088
-4.72151
-4.7224
-4.72368
-4.72548
-4.72791
-4.73111
-4.7352
-4.74035
-4.74668
-4.75437
-4.76356
-4.77437
-4.7869
-4.80122
-4.81737
-4.83532
-4.85504
-4.87643
-4.89938
-4.92374
-4.94934
-4.97599
-5.00349
-5.03163
-5.06021
-5.08903
-5.11788
-5.1466
-5.17499
-5.20288
-5.23011
-5.25653
-5.28197
-5.30631
-5.32939
-5.35108
-5.37125
-5.38978
-5.40652
-5.42137
-5.4342
-5.44489
-5.45332
-5.45939
-5.46297
-5.46395
-5.46224
-5.45772
-5.45029
-5.43986
-5.42634
-5.40963
-5.38965
-5.36633
-5.3396
-5.30937
-5.27561
-5.23824
-5.19723
-5.15253
-5.1041
-5.05192
-4.99596
-4.93618
-4.87256
-4.80506
-4.73372
-4.65853
-4.57958
-4.4969
-4.41051
-4.32043
-4.2267
-4.12935
-4.02844
-3.92401
-3.81612
-3.70483
-3.59022
-3.47237
-3.35134
-3.22723
-3.10013
-2.97013
-2.83733
-2.70184
-2.56375
-2.42319
-2.28026
-2.13509
-1.98779
-1.83849
-1.68731
-1.53439
-1.37985
-1.22383
-1.06646
-0.907888
-0.748242
-0.587665
-0.426299
-0.264286
-0.101768
0.0611121
0.224211
0.387385
0.550491
0.713389
0.875936
1.03799
1.19942
1.36008
1.51985
1.67858
1.83615
1.99243
2.1473
2.30064
2.45234
2.60228
2.75035
2.89646
3.04051
3.1824
3.32205
3.45938
3.59432
3.72679
3.85673
3.9841
4.10883
4.23088
4.35023
4.46684
4.58068
4.69173
4.79996
4.90536
5.00789
5.10755
5.20434
5.29827
5.38936
5.47764
5.56312
5.64584
5.72581
5.80308
5.87767
5.94961
6.01895
6.08571
6.14994
6.21167
6.27094
6.32779
6.38227
6.43441
6.48427
6.53191
6.57739
6.62079
6.66222
6.70184
6.73987
6.77664
6.81273
6.84894
6.88712
6.92856
6.98247
7.03573
-4.6993
-4.70298
-4.70694
-4.71026
-4.71254
-4.714
-4.71495
-4.71569
-4.71648
-4.71753
-4.71902
-4.72112
-4.72397
-4.72772
-4.7325
-4.73846
-4.74573
-4.75445
-4.7647
-4.77657
-4.79011
-4.80532
-4.8222
-4.8407
-4.86074
-4.88224
-4.90506
-4.92909
-4.95416
-4.98012
-5.0068
-5.03403
-5.06162
-5.08942
-5.11725
-5.14495
-5.17236
-5.19931
-5.22566
-5.25125
-5.27595
-5.29962
-5.32211
-5.34329
-5.36304
-5.38122
-5.39771
-5.41237
-5.4251
-5.43576
-5.44424
-5.45042
-5.45419
-5.45543
-5.45403
-5.44989
-5.44291
-5.43298
-5.42
-5.4039
-5.38458
-5.36196
-5.33596
-5.30652
-5.27358
-5.23707
-5.19695
-5.15316
-5.10567
-5.05444
-4.99945
-4.94066
-4.87805
-4.81162
-4.74138
-4.66737
-4.58961
-4.50812
-4.42293
-4.33405
-4.24153
-4.1454
-4.0457
-3.94248
-3.83581
-3.72574
-3.61233
-3.49568
-3.37584
-3.25291
-3.12698
-2.99813
-2.86647
-2.73209
-2.59511
-2.45562
-2.31375
-2.16961
-2.02332
-1.87501
-1.72479
-1.57279
-1.41915
-1.264
-1.10747
-0.949693
-0.790815
-0.630971
-0.470302
-0.308949
-0.147054
0.0152415
0.177795
0.340463
0.503105
0.665578
0.827743
0.989459
1.15059
1.31099
1.47054
1.6291
1.78654
1.94274
2.09757
2.25091
2.40264
2.55267
2.70087
2.84714
2.99139
3.13353
3.27346
3.41111
3.5464
3.67926
3.80963
3.93744
4.06266
4.18524
4.30514
4.42231
4.53674
4.64836
4.75718
4.8632
4.96639
5.06674
5.16425
5.25892
5.35076
5.4398
5.52604
5.60952
5.69027
5.7683
5.84366
5.91637
5.98646
6.05397
6.11894
6.18141
6.2414
6.29897
6.35415
6.40699
6.45753
6.50584
6.55198
6.59604
6.63813
6.67841
6.71711
6.75455
6.79127
6.82799
6.86629
6.90662
6.95627
6.99722
-4.68476
-4.69056
-4.69704
-4.70223
-4.70575
-4.70813
-4.70987
-4.71136
-4.71288
-4.71471
-4.71704
-4.72006
-4.72392
-4.72877
-4.73474
-4.74194
-4.75048
-4.76045
-4.77191
-4.7849
-4.79942
-4.81548
-4.83302
-4.852
-4.87233
-4.89391
-4.91664
-4.94039
-4.96504
-4.99043
-5.01644
-5.0429
-5.06967
-5.09661
-5.12356
-5.15037
-5.1769
-5.20301
-5.22855
-5.25338
-5.27737
-5.30039
-5.32229
-5.34295
-5.36224
-5.38003
-5.39619
-5.41059
-5.42312
-5.43365
-5.44206
-5.44822
-5.45203
-5.45336
-5.45211
-5.44816
-5.44142
-5.43177
-5.41913
-5.40339
-5.38448
-5.3623
-5.33679
-5.30786
-5.27546
-5.23952
-5.19999
-5.15683
-5.10998
-5.05942
-5.00512
-4.94705
-4.8852
-4.81956
-4.75014
-4.67696
-4.60004
-4.51939
-4.43505
-4.34702
-4.25536
-4.16009
-4.06125
-3.9589
-3.85309
-3.74389
-3.63135
-3.51555
-3.39657
-3.2745
-3.1494
-3.02139
-2.89056
-2.75699
-2.62081
-2.48212
-2.34103
-2.19765
-2.0521
-1.90451
-1.755
-1.60369
-1.45072
-1.29621
-1.1403
-0.98313
-0.824827
-0.665535
-0.50539
-0.344535
-0.183111
-0.0212582
0.140881
0.303165
0.465451
0.6276
0.78947
0.950922
1.11182
1.27203
1.43141
1.58983
1.74716
1.90329
2.05808
2.21141
2.36317
2.51324
2.66153
2.80792
2.95231
3.09463
3.23477
3.37265
3.5082
3.64134
3.77203
3.90019
4.02578
4.14874
4.26904
4.38663
4.50147
4.61352
4.72275
4.8292
4.93284
5.03367
5.13167
5.22685
5.31922
5.4088
5.4956
5.57963
5.66094
5.73954
5.81546
5.88874
5.95939
6.02747
6.093
6.15602
6.21657
6.27468
6.3304
6.38377
6.43484
6.48366
6.53031
6.57486
6.61743
6.65817
6.6973
6.73512
6.77209
6.80879
6.84643
6.88477
6.92964
6.96012
-4.67083
-4.67854
-4.68749
-4.6947
-4.69973
-4.70337
-4.70626
-4.70886
-4.71149
-4.71446
-4.71798
-4.72224
-4.72741
-4.7336
-4.74094
-4.74951
-4.75939
-4.77063
-4.78327
-4.79732
-4.81276
-4.82957
-4.8477
-4.86709
-4.88765
-4.9093
-4.93193
-4.95544
-4.97971
-5.00463
-5.03006
-5.05587
-5.08194
-5.10814
-5.13433
-5.16038
-5.18615
-5.21152
-5.23635
-5.2605
-5.28386
-5.30629
-5.32765
-5.34782
-5.36667
-5.38407
-5.3999
-5.41402
-5.42632
-5.43666
-5.44493
-5.451
-5.45476
-5.45608
-5.45486
-5.45098
-5.44434
-5.43483
-5.42236
-5.40682
-5.38814
-5.36622
-5.34099
-5.31237
-5.2803
-5.24471
-5.20556
-5.16279
-5.11636
-5.06624
-5.0124
-4.95481
-4.89347
-4.82837
-4.75951
-4.68689
-4.61055
-4.53048
-4.44671
-4.35928
-4.2682
-4.17352
-4.07529
-3.97354
-3.86834
-3.75974
-3.64781
-3.53262
-3.41425
-3.29277
-3.16829
-3.04088
-2.91064
-2.77767
-2.64207
-2.50396
-2.36343
-2.22062
-2.07562
-1.92857
-1.77959
-1.6288
-1.47633
-1.32231
-1.16688
-1.01016
-0.852303
-0.693434
-0.533695
-0.373227
-0.21217
-0.0506641
0.111148
0.273127
0.43513
0.597017
0.758648
0.919884
1.08059
1.24063
1.39986
1.55816
1.7154
1.87145
2.02619
2.17949
2.33125
2.48135
2.62968
2.77614
2.92063
3.06306
3.20334
3.34138
3.47712
3.61047
3.74138
3.86979
3.99563
4.11887
4.23945
4.35733
4.47246
4.58482
4.69437
4.80113
4.9051
5.00627
5.10464
5.2002
5.29296
5.38294
5.47015
5.55461
5.63634
5.71537
5.79173
5.86544
5.93654
6.00506
6.07103
6.13449
6.19547
6.25401
6.31016
6.36394
6.41542
6.46464
6.51168
6.5566
6.59952
6.64057
6.67995
6.71792
6.75485
6.79115
6.8277
6.86369
6.90411
6.92583
-4.66086
-4.66977
-4.68058
-4.68957
-4.69609
-4.70104
-4.70517
-4.70899
-4.71285
-4.71706
-4.72185
-4.72742
-4.73391
-4.74144
-4.75009
-4.75994
-4.77104
-4.78342
-4.79709
-4.81204
-4.82826
-4.84569
-4.8643
-4.88402
-4.90477
-4.92647
-4.94903
-4.97235
-4.99633
-5.02086
-5.04584
-5.07114
-5.09666
-5.12227
-5.14786
-5.17329
-5.19846
-5.22323
-5.24748
-5.27108
-5.29391
-5.31583
-5.33673
-5.35648
-5.37494
-5.39199
-5.40751
-5.42135
-5.43341
-5.44355
-5.45164
-5.45758
-5.46122
-5.46247
-5.4612
-5.45729
-5.45065
-5.44116
-5.42873
-5.41326
-5.39466
-5.37285
-5.34773
-5.31926
-5.28734
-5.25193
-5.21297
-5.17041
-5.12421
-5.07434
-5.02076
-4.96346
-4.90243
-4.83765
-4.76913
-4.69686
-4.62087
-4.54116
-4.45777
-4.3707
-4.28001
-4.18572
-4.08787
-3.98652
-3.88172
-3.77353
-3.66201
-3.54724
-3.42928
-3.30823
-3.18417
-3.05719
-2.92737
-2.79483
-2.65966
-2.52197
-2.38187
-2.23947
-2.09489
-1.94824
-1.79966
-1.64927
-1.49718
-1.34354
-1.18848
-1.03212
-0.87461
-0.716077
-0.556663
-0.396507
-0.235748
-0.0745275
0.0870145
0.248738
0.410501
0.572164
0.733587
0.894632
1.05516
1.21504
1.37414
1.53232
1.68945
1.84542
2.00009
2.15335
2.30508
2.45516
2.6035
2.74998
2.89452
3.03701
3.17737
3.31551
3.45136
3.58485
3.71591
3.84448
3.97049
4.09391
4.21469
4.33277
4.44811
4.56069
4.67047
4.77747
4.88169
4.98313
5.08176
5.17761
5.27067
5.36096
5.44849
5.53327
5.61534
5.69471
5.77141
5.84547
5.91692
5.98579
6.05211
6.11592
6.17725
6.23614
6.29263
6.34675
6.39856
6.4481
6.49544
6.54064
6.5838
6.62505
6.66454
6.70248
6.73916
6.77482
6.81004
6.84361
6.88007
6.89444
-4.65634
-4.66575
-4.67761
-4.68785
-4.69561
-4.70172
-4.707
-4.71196
-4.71697
-4.72235
-4.72833
-4.73508
-4.74275
-4.75143
-4.76121
-4.77214
-4.78425
-4.79756
-4.81206
-4.82774
-4.84457
-4.86251
-4.8815
-4.90148
-4.92238
-4.94414
-4.96665
-4.98984
-5.01362
-5.03788
-5.06253
-5.08746
-5.11257
-5.13774
-5.16288
-5.18785
-5.21256
-5.23687
-5.26067
-5.28384
-5.30625
-5.32779
-5.34831
-5.36771
-5.38585
-5.4026
-5.41783
-5.43143
-5.44325
-5.45318
-5.46109
-5.46685
-5.47035
-5.47146
-5.47007
-5.46606
-5.45933
-5.44978
-5.43728
-5.42177
-5.40313
-5.38129
-5.35617
-5.3277
-5.2958
-5.26042
-5.2215
-5.17899
-5.13286
-5.08308
-5.0296
-4.97242
-4.91153
-4.8469
-4.77854
-4.70645
-4.63064
-4.55112
-4.46792
-4.38106
-4.29058
-4.19651
-4.09889
-3.99778
-3.89322
-3.78528
-3.67402
-3.55951
-3.44184
-3.32107
-3.19729
-3.0706
-2.94108
-2.80884
-2.67397
-2.53658
-2.39679
-2.2547
-2.11042
-1.96409
-1.81581
-1.66572
-1.51394
-1.3606
-1.20582
-1.04975
-0.892522
-0.734263
-0.575116
-0.415218
-0.25471
-0.0937309
0.0675793
0.229081
0.390634
0.552098
0.713332
0.874201
1.03457
1.1943
1.35325
1.51131
1.66833
1.82419
1.97878
2.13196
2.28363
2.43368
2.58199
2.72846
2.873
3.0155
3.15589
3.29408
3.42999
3.56355
3.69469
3.82334
3.94947
4.073
4.1939
4.31211
4.42759
4.54032
4.65028
4.75746
4.86186
4.96348
5.06232
5.15838
5.25166
5.34218
5.42995
5.51499
5.59731
5.67694
5.75391
5.82825
5.89997
5.96912
6.03573
6.09982
6.16144
6.22061
6.27738
6.33177
6.38384
6.43363
6.4812
6.5266
6.56992
6.61127
6.65075
6.68854
6.72481
6.75967
6.79345
6.82463
6.85759
6.86583
-4.65753
-4.66681
-4.67893
-4.68982
-4.69839
-4.70539
-4.71158
-4.71749
-4.72348
-4.72984
-4.73679
-4.74451
-4.75313
-4.76274
-4.77341
-4.78518
-4.79807
-4.81208
-4.82722
-4.84345
-4.86074
-4.87905
-4.89833
-4.91852
-4.93956
-4.96136
-4.98386
-5.00698
-5.03062
-5.0547
-5.07913
-5.10381
-5.12864
-5.15352
-5.17835
-5.203
-5.22738
-5.25137
-5.27485
-5.2977
-5.31981
-5.34105
-5.36129
-5.38041
-5.39829
-5.41479
-5.42978
-5.44315
-5.45476
-5.46448
-5.47219
-5.47776
-5.48107
-5.48201
-5.48045
-5.47628
-5.46939
-5.45968
-5.44704
-5.43138
-5.41261
-5.39065
-5.36541
-5.33682
-5.30482
-5.26934
-5.23034
-5.18777
-5.14158
-5.09175
-5.03825
-4.98106
-4.92016
-4.85555
-4.78722
-4.71516
-4.63939
-4.55993
-4.4768
-4.39001
-4.29961
-4.20563
-4.10812
-4.00711
-3.90268
-3.79488
-3.68376
-3.56941
-3.4519
-3.33131
-3.20771
-3.08121
-2.9519
-2.81987
-2.68521
-2.54805
-2.40848
-2.26662
-2.12258
-1.97648
-1.82845
-1.67859
-1.52705
-1.37395
-1.21942
-1.06359
-0.906588
-0.748561
-0.589642
-0.429968
-0.269679
-0.108914
0.0521887
0.213489
0.374848
0.536125
0.697181
0.857878
1.01808
1.17765
1.33646
1.49438
1.65128
1.80703
1.96151
2.1146
2.26619
2.41616
2.56441
2.71083
2.85533
2.99781
3.13818
3.27637
3.41228
3.54586
3.67702
3.80572
3.93189
4.05548
4.17644
4.29472
4.41029
4.52312
4.63318
4.74048
4.845
4.94676
5.04574
5.14195
5.23539
5.32608
5.41403
5.49925
5.58177
5.66161
5.73879
5.81334
5.88528
5.95466
6.02149
6.08581
6.14766
6.20706
6.26405
6.31866
6.37094
6.42093
6.46866
6.5142
6.55761
6.59897
6.63837
6.67589
6.71165
6.7456
6.77789
6.8068
6.83668
6.8398
-4.66378
-4.67246
-4.68416
-4.69509
-4.70403
-4.71156
-4.71838
-4.72498
-4.73169
-4.73878
-4.74647
-4.75492
-4.76425
-4.77454
-4.78585
-4.79822
-4.81166
-4.82618
-4.84176
-4.85838
-4.876
-4.89458
-4.91407
-4.93441
-4.95555
-4.97741
-4.99992
-5.023
-5.04658
-5.07056
-5.09487
-5.1194
-5.14407
-5.16877
-5.1934
-5.21786
-5.24203
-5.26581
-5.28909
-5.31173
-5.33363
-5.35465
-5.37469
-5.3936
-5.41127
-5.42756
-5.44235
-5.45551
-5.46691
-5.47642
-5.48391
-5.48927
-5.49237
-5.49309
-5.49131
-5.48692
-5.47981
-5.46987
-5.45701
-5.44113
-5.42214
-5.39996
-5.3745
-5.34571
-5.3135
-5.27784
-5.23865
-5.19591
-5.14956
-5.09959
-5.04596
-4.98866
-4.92766
-4.86296
-4.79454
-4.72242
-4.64659
-4.56708
-4.48391
-4.3971
-4.30669
-4.21271
-4.11521
-4.01424
-3.90984
-3.80209
-3.69104
-3.57677
-3.45936
-3.33887
-3.21539
-3.08902
-2.95984
-2.82796
-2.69347
-2.55647
-2.41708
-2.2754
-2.13155
-1.98564
-1.8378
-1.68815
-1.53682
-1.38392
-1.2296
-1.07398
-0.91719
-0.759372
-0.600662
-0.441195
-0.281111
-0.120547
0.0403564
0.20146
0.362625
0.523713
0.684586
0.845107
1.00514
1.16455
1.3232
1.48097
1.63772
1.79333
1.94769
2.10066
2.25213
2.402
2.55016
2.69649
2.84092
2.98333
3.12364
3.26178
3.39766
3.5312
3.66235
3.79104
3.9172
4.04079
4.16177
4.28007
4.39568
4.50855
4.61867
4.72604
4.83064
4.93247
5.03154
5.12785
5.22141
5.31222
5.40029
5.48565
5.56831
5.6483
5.72564
5.80036
5.87248
5.94203
6.00905
6.07355
6.13558
6.19517
6.25234
6.30713
6.35958
6.40971
6.45757
6.5032
6.54664
6.58795
6.62718
6.66436
6.69953
6.73252
6.76335
6.79012
6.81729
6.81614
-4.67392
-4.68164
-4.69241
-4.70286
-4.71173
-4.71944
-4.72659
-4.73359
-4.74076
-4.74834
-4.75653
-4.76547
-4.77527
-4.78601
-4.79775
-4.81051
-4.82431
-4.83915
-4.85501
-4.87188
-4.88971
-4.90847
-4.9281
-4.94856
-4.96978
-4.99169
-5.01423
-5.03732
-5.06088
-5.08483
-5.10909
-5.13356
-5.15816
-5.18277
-5.20731
-5.23167
-5.25574
-5.27941
-5.30255
-5.32507
-5.34683
-5.36771
-5.38759
-5.40634
-5.42384
-5.43995
-5.45455
-5.4675
-5.47869
-5.48797
-5.49523
-5.50035
-5.50319
-5.50364
-5.50159
-5.49692
-5.48953
-5.4793
-5.46615
-5.44997
-5.43069
-5.40821
-5.38247
-5.35339
-5.32091
-5.28497
-5.24553
-5.20254
-5.15596
-5.10578
-5.05195
-4.99446
-4.93328
-4.86841
-4.79984
-4.72757
-4.65162
-4.57199
-4.48871
-4.40182
-4.31133
-4.2173
-4.11975
-4.01875
-3.91435
-3.8066
-3.69558
-3.58134
-3.46398
-3.34355
-3.22016
-3.09388
-2.96481
-2.83304
-2.69868
-2.56183
-2.42258
-2.28106
-2.13738
-1.99165
-1.84399
-1.69453
-1.54338
-1.39068
-1.23656
-1.08114
-0.92456
-0.766951
-0.60845
-0.449193
-0.289317
-0.128961
0.031737
0.192637
0.3536
0.514489
0.675166
0.835495
0.995339
1.15456
1.31304
1.47063
1.62721
1.78267
1.93686
2.08968
2.24101
2.39074
2.53877
2.68498
2.82929
2.97159
3.11181
3.24986
3.38565
3.51912
3.6502
3.77883
3.90495
4.0285
4.14944
4.26772
4.38332
4.49619
4.60633
4.71371
4.81834
4.92022
5.01934
5.1157
5.20932
5.30021
5.38837
5.47382
5.55659
5.63669
5.71415
5.78899
5.86125
5.93094
5.9981
6.06276
6.12494
6.18468
6.242
6.29694
6.34951
6.39976
6.4477
6.49338
6.53681
6.57802
6.61703
6.65382
6.68834
6.72036
6.74976
6.77456
6.79934
6.79464
-4.6865
-4.69307
-4.70255
-4.71211
-4.72054
-4.7281
-4.73528
-4.74243
-4.74982
-4.75767
-4.76613
-4.77535
-4.78542
-4.79642
-4.80839
-4.82137
-4.83537
-4.85039
-4.86641
-4.88341
-4.90136
-4.92022
-4.93995
-4.96048
-4.98175
-5.00372
-5.02629
-5.04942
-5.073
-5.09697
-5.12124
-5.14572
-5.17031
-5.19491
-5.21943
-5.24376
-5.26778
-5.2914
-5.31448
-5.33691
-5.35858
-5.37935
-5.3991
-5.4177
-5.43503
-5.45096
-5.46535
-5.47809
-5.48903
-5.49806
-5.50505
-5.50987
-5.51241
-5.51254
-5.51016
-5.50516
-5.49742
-5.48684
-5.47333
-5.4568
-5.43716
-5.41433
-5.38824
-5.35882
-5.326
-5.28975
-5.25
-5.20671
-5.15986
-5.10941
-5.05534
-4.99761
-4.93621
-4.87112
-4.80235
-4.7299
-4.65377
-4.57399
-4.49058
-4.40356
-4.31298
-4.21886
-4.12125
-4.0202
-3.91576
-3.80801
-3.69699
-3.58278
-3.46545
-3.34508
-3.22176
-3.09557
-2.9666
-2.83495
-2.70071
-2.564
-2.4249
-2.28355
-2.14004
-1.99449
-1.84702
-1.69775
-1.5468
-1.39431
-1.2404
-1.08519
-0.928831
-0.771444
-0.613166
-0.454133
-0.294482
-0.134351
0.0261222
0.186797
0.347537
0.508203
0.668659
0.828769
0.988397
1.14741
1.30567
1.46306
1.61944
1.77469
1.9287
2.08133
2.23248
2.38204
2.52989
2.67594
2.82009
2.96225
3.10233
3.24024
3.37591
3.50926
3.64023
3.76876
3.89478
4.01825
4.13911
4.25733
4.37287
4.4857
4.59581
4.70318
4.8078
4.90967
5.0088
5.10519
5.19884
5.28976
5.37797
5.46348
5.54632
5.6265
5.70404
5.77898
5.85134
5.92114
5.98842
6.0532
6.11551
6.17537
6.23282
6.28787
6.34055
6.39088
6.43888
6.48457
6.52795
6.56903
6.60778
6.64414
6.678
6.70905
6.73709
6.76008
6.78275
6.77512
-4.70007
-4.7054
-4.71337
-4.72175
-4.72944
-4.7366
-4.74356
-4.75064
-4.75803
-4.76594
-4.77449
-4.78382
-4.794
-4.8051
-4.81717
-4.83023
-4.84431
-4.85939
-4.87547
-4.89253
-4.91053
-4.92943
-4.9492
-4.96977
-4.99109
-5.01309
-5.03571
-5.05888
-5.08251
-5.10652
-5.13083
-5.15534
-5.17995
-5.20458
-5.22911
-5.25343
-5.27744
-5.30101
-5.32404
-5.3464
-5.36797
-5.38861
-5.40822
-5.42665
-5.44378
-5.45949
-5.47364
-5.4861
-5.49676
-5.50547
-5.51213
-5.5166
-5.51878
-5.51854
-5.51577
-5.51037
-5.50223
-5.49125
-5.47734
-5.4604
-5.44036
-5.41713
-5.39066
-5.36086
-5.32768
-5.29108
-5.251
-5.2074
-5.16026
-5.10953
-5.05519
-4.99721
-4.93556
-4.87025
-4.80126
-4.72862
-4.65232
-4.57238
-4.48883
-4.40169
-4.31101
-4.21681
-4.11914
-4.01806
-3.91361
-3.80585
-3.69486
-3.58069
-3.46342
-3.34313
-3.2199
-3.09382
-2.96497
-2.83346
-2.69937
-2.56282
-2.4239
-2.28273
-2.13941
-1.99407
-1.84681
-1.69777
-1.54705
-1.39479
-1.24111
-1.08615
-0.930036
-0.7729
-0.614875
-0.456098
-0.296704
-0.136831
0.0233821
0.183798
0.344279
0.504687
0.664886
0.82474
0.984114
1.14287
1.30089
1.45803
1.61417
1.76919
1.92295
2.07536
2.22628
2.37562
2.52326
2.66911
2.81306
2.95503
3.09492
3.23265
3.36815
3.50134
3.63216
3.76054
3.88642
4.00976
4.13051
4.24863
4.36407
4.47682
4.58686
4.69417
4.79875
4.90058
4.99969
5.09606
5.1897
5.28063
5.36886
5.4544
5.53727
5.6175
5.69511
5.77011
5.84255
5.91244
5.97981
6.04469
6.1071
6.16707
6.22461
6.27976
6.33253
6.38293
6.43096
6.47664
6.51996
6.56087
6.59934
6.63526
6.66845
6.69855
6.72531
6.74665
6.76743
6.7574
-4.71332
-4.71739
-4.72376
-4.73077
-4.73753
-4.74406
-4.75062
-4.75743
-4.76467
-4.77248
-4.78098
-4.79027
-4.80044
-4.81153
-4.82359
-4.83664
-4.8507
-4.86577
-4.88183
-4.89887
-4.91686
-4.93575
-4.95551
-4.97609
-4.99742
-5.01944
-5.04208
-5.06527
-5.08893
-5.11297
-5.1373
-5.16183
-5.18645
-5.21108
-5.23559
-5.25988
-5.28383
-5.30733
-5.33025
-5.35248
-5.37389
-5.39436
-5.41375
-5.43194
-5.44881
-5.46422
-5.47805
-5.49017
-5.50046
-5.50879
-5.51505
-5.51911
-5.52086
-5.52019
-5.51698
-5.51114
-5.50256
-5.49114
-5.47679
-5.45942
-5.43897
-5.41534
-5.38847
-5.3583
-5.32476
-5.28782
-5.24743
-5.20354
-5.15613
-5.10514
-5.05054
-4.99231
-4.93044
-4.86492
-4.79575
-4.72293
-4.64649
-4.56643
-4.48277
-4.39556
-4.30481
-4.21057
-4.11289
-4.01181
-3.90739
-3.79968
-3.68875
-3.57467
-3.4575
-3.33733
-3.21424
-3.08831
-2.95963
-2.8283
-2.69441
-2.55807
-2.41937
-2.27843
-2.13535
-1.99026
-1.84326
-1.69448
-1.54404
-1.39206
-1.23867
-1.08399
-0.92817
-0.771329
-0.613603
-0.455126
-0.296036
-0.136468
0.0234406
0.183551
0.343727
0.50383
0.663725
0.823277
0.98235
1.14081
1.29853
1.45538
1.61123
1.76596
1.91945
2.07157
2.22223
2.3713
2.51868
2.66427
2.80798
2.9497
3.08936
3.22687
3.36215
3.49514
3.62576
3.75395
3.87965
4.00282
4.12341
4.24138
4.3567
4.46933
4.57926
4.68648
4.79097
4.89274
4.99178
5.08811
5.18171
5.27262
5.36084
5.44638
5.52926
5.60952
5.68716
5.76222
5.83471
5.90467
5.97211
6.03707
6.09957
6.15962
6.21726
6.27249
6.32533
6.37577
6.42383
6.46949
6.51272
6.55346
6.59164
6.6271
6.65964
6.68883
6.71439
6.73424
6.75332
6.74136
-4.7251
-4.728
-4.73276
-4.73832
-4.74399
-4.74976
-4.75577
-4.76218
-4.76913
-4.77672
-4.78506
-4.79423
-4.80429
-4.81528
-4.82725
-4.84022
-4.85419
-4.86917
-4.88515
-4.9021
-4.92
-4.93882
-4.95851
-4.97902
-5.00028
-5.02225
-5.04484
-5.06798
-5.09159
-5.11558
-5.13985
-5.16432
-5.18886
-5.21339
-5.23779
-5.26194
-5.28574
-5.30905
-5.33177
-5.35376
-5.37491
-5.39508
-5.41415
-5.432
-5.4485
-5.46353
-5.47695
-5.48865
-5.4985
-5.50639
-5.51219
-5.51578
-5.51707
-5.51592
-5.51225
-5.50595
-5.49691
-5.48505
-5.47027
-5.45249
-5.43164
-5.40763
-5.3804
-5.3499
-5.31606
-5.27883
-5.23818
-5.19406
-5.14641
-5.0952
-5.04039
-4.98197
-4.91993
-4.85426
-4.78496
-4.71204
-4.63552
-4.5554
-4.47171
-4.38449
-4.29375
-4.19955
-4.10192
-4.00092
-3.8966
-3.78901
-3.67822
-3.56429
-3.4473
-3.32732
-3.20444
-3.07873
-2.9503
-2.81922
-2.68559
-2.54952
-2.41111
-2.27047
-2.1277
-1.98292
-1.83625
-1.68779
-1.53769
-1.38604
-1.233
-1.07867
-0.923204
-0.766718
-0.60935
-0.451233
-0.292504
-0.133298
0.0262477
0.185996
0.345809
0.505551
0.665086
0.824279
0.982995
1.1411
1.29847
1.45497
1.61048
1.76487
1.91802
2.06982
2.22015
2.3689
2.51597
2.66126
2.80467
2.9461
3.08548
3.22271
3.35773
3.49046
3.62084
3.74879
3.87428
3.99724
4.11763
4.23542
4.35056
4.46303
4.57282
4.67991
4.78429
4.88596
4.98491
5.08116
5.1747
5.26556
5.35374
5.43926
5.52214
5.6024
5.68005
5.75514
5.82767
5.89768
5.96519
6.03021
6.09279
6.15292
6.21063
6.26594
6.31884
6.36933
6.4174
6.46303
6.50616
6.54672
6.5846
6.61962
6.65153
6.67987
6.70432
6.72282
6.74035
6.72688
-4.73489
-4.73683
-4.74002
-4.74407
-4.74857
-4.75344
-4.75877
-4.76466
-4.77121
-4.77848
-4.78656
-4.79551
-4.80537
-4.81617
-4.82795
-4.84073
-4.8545
-4.86927
-4.88503
-4.90176
-4.91944
-4.93802
-4.95748
-4.97776
-4.9988
-5.02054
-5.04291
-5.06583
-5.08921
-5.11297
-5.13701
-5.16122
-5.18551
-5.20977
-5.23387
-5.25772
-5.28118
-5.30415
-5.32649
-5.34809
-5.36883
-5.38857
-5.4072
-5.42459
-5.44062
-5.45516
-5.46809
-5.4793
-5.48865
-5.49604
-5.50134
-5.50445
-5.50525
-5.50363
-5.4995
-5.49276
-5.4833
-5.47103
-5.45587
-5.43773
-5.41654
-5.39223
-5.36473
-5.33398
-5.29992
-5.26252
-5.22172
-5.17743
-5.12962
-5.07827
-5.02334
-4.96482
-4.90271
-4.83699
-4.76767
-4.69476
-4.61826
-4.53819
-4.45458
-4.36745
-4.27683
-4.18278
-4.08531
-3.9845
-3.88038
-3.77302
-3.66247
-3.54881
-3.4321
-3.31242
-3.18985
-3.06447
-2.93637
-2.80564
-2.67237
-2.53668
-2.39865
-2.2584
-2.11603
-1.97165
-1.82539
-1.67735
-1.52767
-1.37645
-1.22384
-1.06995
-0.914914
-0.758865
-0.601936
-0.44426
-0.285971
-0.127206
0.0318987
0.191207
0.350582
0.509887
0.668988
0.827748
0.986035
1.14372
1.30066
1.45675
1.61184
1.76582