/*--------------------------------*- C++ -*----------------------------------*\
| =========                 |                                                 |
| \\      /  F ield         | OpenFOAM: The Open Source CFD Toolbox           |
|  \\    /   O peration     | Version:  2412                                  |
|   \\  /    A nd           | Website:  www.openfoam.com                      |
|    \\/     M anipulation  |                                                 |
\*---------------------------------------------------------------------------*/
FoamFile
{
    version     2.0;
    format      ascii;
    arch        "LSB;label=32;scalar=64";
    class       surfaceScalarField;
    location    "0.27";
    object      phi;
}
// * * * * * * * * * * * * * * * * * * * * * * * * * * * * * * * * * * * * * //

dimensions      [0 3 -1 0 0 0 0];

oriented        oriented;

internalField   nonuniform List<scalar> 
24170
(
1.36706e-07
-5.71619e-08
1.95622e-07
-5.89156e-08
2.5792e-07
-6.22983e-08
3.11676e-07
-5.37562e-08
3.61816e-07
-5.01401e-08
4.07928e-07
-4.61118e-08
4.49577e-07
-4.16486e-08
4.87104e-07
-3.75271e-08
5.20895e-07
-3.37916e-08
5.51289e-07
-3.03932e-08
5.78608e-07
-2.73193e-08
6.03145e-07
-2.45369e-08
6.25142e-07
-2.1997e-08
6.44775e-07
-1.96328e-08
6.62179e-07
-1.74043e-08
6.77225e-07
-1.5046e-08
6.89908e-07
-1.26827e-08
-8.01961e-09
6.97927e-07
3.26112e-07
-1.24822e-07
3.94133e-07
-1.26937e-07
4.55889e-07
-1.24054e-07
5.14189e-07
-1.12057e-07
5.67686e-07
-1.03636e-07
6.16645e-07
-9.50705e-08
6.61289e-07
-8.62929e-08
7.01843e-07
-7.80809e-08
7.38603e-07
-7.05517e-08
7.71889e-07
-6.36799e-08
8.02008e-07
-5.74381e-08
8.29233e-07
-5.17615e-08
8.53795e-07
-4.65592e-08
8.75874e-07
-4.1712e-08
8.95583e-07
-3.71131e-08
9.12918e-07
-3.23813e-08
9.2797e-07
-2.77349e-08
-1.99227e-08
9.39873e-07
5.17245e-07
-1.71611e-07
5.79152e-07
-1.88844e-07
6.38213e-07
-1.83115e-07
6.95372e-07
-1.69216e-07
7.48187e-07
-1.56452e-07
7.96795e-07
-1.43678e-07
8.41442e-07
-1.3094e-07
8.82263e-07
-1.18902e-07
9.19476e-07
-1.07764e-07
9.53343e-07
-9.75468e-08
9.84125e-07
-8.82203e-08
1.01206e-06
-7.96994e-08
1.03737e-06
-7.18618e-08
1.0602e-06
-6.45492e-08
1.08068e-06
-5.75909e-08
1.0989e-06
-5.06044e-08
1.11469e-06
-4.35224e-08
-3.34856e-08
1.12825e-06
7.4348e-07
-1.95421e-07
7.91922e-07
-2.37285e-07
8.43833e-07
-2.35026e-07
8.96368e-07
-2.2175e-07
9.46032e-07
-2.06116e-07
9.92314e-07
-1.8996e-07
1.03523e-06
-1.73856e-07
1.07478e-06
-1.58453e-07
1.11107e-06
-1.44058e-07
1.14429e-06
-1.30763e-07
1.17462e-06
-1.18554e-07
1.20227e-06
-1.07344e-07
1.2274e-06
-9.69923e-08
1.25016e-06
-8.73151e-08
1.27067e-06
-7.80982e-08
1.28903e-06
-6.89661e-08
1.30515e-06
-5.96435e-08
-4.80187e-08
1.31969e-06
1.01492e-06
-1.99876e-07
1.04731e-06
-2.69671e-07
1.08854e-06
-2.76254e-07
1.1334e-06
-2.66614e-07
1.17753e-06
-2.50246e-07
1.21953e-06
-2.3196e-07
1.25903e-06
-2.13351e-07
1.29582e-06
-1.95249e-07
1.32989e-06
-1.7812e-07
1.36128e-06
-1.62159e-07
1.39012e-06
-1.47396e-07
1.41654e-06
-1.3376e-07
1.44066e-06
-1.21112e-07
1.4626e-06
-1.09259e-07
1.48247e-06
-9.79673e-08
1.50039e-06
-8.68827e-08
1.5164e-06
-7.56557e-08
-6.28227e-08
1.5312e-06
1.33808e-06
-1.90517e-07
1.35427e-06
-2.85857e-07
1.38245e-06
-3.04439e-07
1.41696e-06
-3.01126e-07
1.45317e-06
-2.86455e-07
1.48885e-06
-2.67635e-07
1.52314e-06
-2.47643e-07
1.55561e-06
-2.27716e-07
1.58603e-06
-2.08548e-07
1.61435e-06
-1.9048e-07
1.64058e-06
-1.7362e-07
1.66476e-06
-1.57937e-07
1.68696e-06
-1.43314e-07
1.70727e-06
-1.2957e-07
1.72578e-06
-1.16474e-07
1.74261e-06
-1.03714e-07
1.7579e-06
-9.09522e-08
-7.72148e-08
1.7723e-06
1.71767e-06
-1.72907e-07
1.7193e-06
-2.87489e-07
1.73353e-06
-3.18671e-07
1.75572e-06
-3.23314e-07
1.78184e-06
-3.12573e-07
1.80918e-06
-2.94976e-07
1.83645e-06
-2.74909e-07
1.86294e-06
-2.54204e-07
1.88824e-06
-2.3385e-07
1.91214e-06
-2.14377e-07
1.93452e-06
-1.96006e-07
1.95536e-06
-1.78772e-07
1.97465e-06
-1.62603e-07
1.99242e-06
-1.47348e-07
2.00875e-06
-1.32805e-07
2.02376e-06
-1.18719e-07
2.03762e-06
-1.0481e-07
-9.04612e-08
2.05086e-06
2.15734e-06
-1.51553e-07
2.14717e-06
-2.77327e-07
2.14805e-06
-3.19547e-07
2.15705e-06
-3.32314e-07
2.17149e-06
-3.27009e-07
2.18875e-06
-3.12242e-07
2.20729e-06
-2.93448e-07
2.22619e-06
-2.73104e-07
2.24487e-06
-2.52528e-07
2.26296e-06
-2.32466e-07
2.28023e-06
-2.1328e-07
2.29656e-06
-1.95098e-07
2.31187e-06
-1.77909e-07
2.32613e-06
-1.61617e-07
2.3394e-06
-1.46066e-07
2.35174e-06
-1.31068e-07
2.36336e-06
-1.16421e-07
-1.01764e-07
2.37466e-06
2.66011e-06
-1.29475e-07
2.64127e-06
-2.58485e-07
2.63057e-06
-3.0885e-07
2.6268e-06
-3.28541e-07
2.62889e-06
-3.291e-07
2.63493e-06
-3.18284e-07
2.64341e-06
-3.01926e-07
2.65334e-06
-2.83032e-07
2.66403e-06
-2.63218e-07
2.675e-06
-2.43438e-07
2.68592e-06
-2.24203e-07
2.69657e-06
-2.0575e-07
2.70681e-06
-1.8815e-07
2.71656e-06
-1.71369e-07
2.72581e-06
-1.55316e-07
2.73462e-06
-1.39872e-07
2.74312e-06
-1.2492e-07
-1.10278e-07
2.75163e-06
3.22874e-06
-1.08352e-07
3.204e-06
-2.33752e-07
3.18408e-06
-2.88925e-07
3.16904e-06
-3.13507e-07
3.15924e-06
-3.19291e-07
3.15377e-06
-3.1282e-07
3.1515e-06
-2.99652e-07
3.15153e-06
-2.83067e-07
3.1532e-06
-2.64888e-07
3.15598e-06
-2.46217e-07
3.15948e-06
-2.27701e-07
3.16341e-06
-2.09682e-07
3.16758e-06
-1.92315e-07
3.17185e-06
-1.7564e-07
3.17617e-06
-1.59634e-07
3.18054e-06
-1.44245e-07
3.18506e-06
-1.2944e-07
-1.15153e-07
3.18994e-06
3.8657e-06
-8.90288e-08
3.83718e-06
-2.05226e-07
3.81026e-06
-2.62002e-07
3.78607e-06
-2.89319e-07
3.76578e-06
-2.99009e-07
3.74952e-06
-2.96554e-07
3.73665e-06
-2.86789e-07
3.72658e-06
-2.72988e-07
3.71874e-06
-2.57057e-07
3.71269e-06
-2.40164e-07
3.70803e-06
-2.23039e-07
3.70446e-06
-2.06107e-07
3.70174e-06
-1.89599e-07
3.69972e-06
-1.73621e-07
3.6983e-06
-1.58215e-07
3.69744e-06
-1.43388e-07
3.69718e-06
-1.29182e-07
-1.15595e-07
3.69763e-06
3.81123e-06
-7.33564e-08
3.78552e-06
-1.79513e-07
3.75884e-06
-2.35317e-07
3.733e-06
-2.63485e-07
3.70932e-06
-2.75332e-07
3.68839e-06
-2.75621e-07
3.67011e-06
-2.68504e-07
3.65421e-06
-2.5709e-07
3.64042e-06
-2.43264e-07
3.62844e-06
-2.2819e-07
3.61802e-06
-2.12616e-07
3.60892e-06
-1.97007e-07
3.60095e-06
-1.81636e-07
3.59399e-06
-1.66656e-07
3.58792e-06
-1.5215e-07
3.58271e-06
-1.38172e-07
3.57828e-06
-1.24758e-07
-1.12153e-07
3.57484e-06
5.03713e-06
-5.77252e-08
5.00707e-06
-1.49456e-07
4.97361e-06
-2.01858e-07
4.93953e-06
-2.29402e-07
4.90653e-06
-2.42338e-07
4.87577e-06
-2.44855e-07
4.84753e-06
-2.40268e-07
4.8218e-06
-2.31357e-07
4.79846e-06
-2.19922e-07
4.77734e-06
-2.0707e-07
4.75824e-06
-1.9352e-07
4.74098e-06
-1.79741e-07
4.72537e-06
-1.66031e-07
4.71129e-06
-1.52571e-07
4.69861e-06
-1.39476e-07
4.68727e-06
-1.26832e-07
4.67722e-06
-1.14701e-07
-1.03425e-07
4.66849e-06
6.66244e-06
-4.26914e-08
6.62913e-06
-1.16146e-07
6.58918e-06
-1.61905e-07
6.54671e-06
-1.86937e-07
6.50387e-06
-1.99497e-07
6.46231e-06
-2.03299e-07
6.42284e-06
-2.00795e-07
6.38572e-06
-1.94236e-07
6.35104e-06
-1.85243e-07
6.3188e-06
-1.74829e-07
6.28892e-06
-1.63642e-07
6.2613e-06
-1.52119e-07
6.23582e-06
-1.40551e-07
6.21238e-06
-1.29128e-07
6.19088e-06
-1.17977e-07
6.17124e-06
-1.07195e-07
6.1534e-06
-9.68646e-08
-8.73494e-08
6.13733e-06
8.79086e-06
-2.889e-08
8.75646e-06
-8.17466e-08
8.71176e-06
-1.17202e-07
8.66209e-06
-1.37265e-07
8.61015e-06
-1.47561e-07
8.55807e-06
-1.51219e-07
8.50722e-06
-1.49941e-07
8.45827e-06
-1.45288e-07
8.41157e-06
-1.38549e-07
8.36732e-06
-1.30571e-07
8.32557e-06
-1.21896e-07
8.28634e-06
-1.12893e-07
8.24961e-06
-1.03814e-07
8.21532e-06
-9.48357e-08
8.18342e-06
-8.60763e-08
8.15385e-06
-7.76291e-08
8.12655e-06
-6.95625e-08
-6.22537e-08
8.10145e-06
1.15181e-05
-1.66172e-08
1.14848e-05
-4.84472e-08
1.14384e-05
-7.08011e-08
1.13845e-05
-8.34422e-08
1.13265e-05
-8.94812e-08
1.12665e-05
-9.12324e-08
1.12064e-05
-8.98401e-08
1.11473e-05
-8.62186e-08
1.10899e-05
-8.11988e-08
1.10347e-05
-7.53744e-08
1.0982e-05
-6.91207e-08
1.09318e-05
-6.26885e-08
1.08842e-05
-5.62574e-08
1.08393e-05
-4.99548e-08
1.07971e-05
-4.38745e-08
1.07576e-05
-3.80935e-08
1.07207e-05
-3.26389e-08
-2.7894e-08
1.06863e-05
1.48842e-05
-5.41109e-09
1.48525e-05
-1.67322e-08
1.48063e-05
-2.45756e-08
1.47511e-05
-2.82181e-08
1.46904e-05
-2.88225e-08
1.46267e-05
-2.75582e-08
1.45619e-05
-2.50138e-08
1.44973e-05
-2.15863e-08
1.44337e-05
-1.76559e-08
1.43719e-05
-1.35163e-08
1.43121e-05
-9.35221e-09
1.42547e-05
-5.28157e-09
1.41998e-05
-1.39487e-09
1.41476e-05
2.2632e-09
1.40981e-05
5.63756e-09
1.40513e-05
8.68217e-09
1.40073e-05
1.14277e-08
1.3524e-08
1.39658e-05
1.8769e-05
6.26421e-09
1.87365e-05
1.58017e-08
1.86883e-05
2.36154e-08
1.86301e-05
2.99733e-08
1.85661e-05
3.52162e-08
1.84989e-05
3.96091e-08
1.84306e-05
4.33189e-08
1.83625e-05
4.64688e-08
1.82957e-05
4.91534e-08
1.82307e-05
5.1439e-08
1.8168e-05
5.337e-08
1.81078e-05
5.49765e-08
1.80501e-05
5.62782e-08
1.79951e-05
5.72862e-08
1.79427e-05
5.80063e-08
1.7893e-05
5.84261e-08
1.78458e-05
5.86043e-08
5.82811e-08
1.7801e-05
2.26768e-05
1.69953e-08
2.26398e-05
5.27569e-08
2.25834e-05
8.00179e-08
2.25148e-05
9.8575e-08
2.24391e-05
1.10923e-07
2.23597e-05
1.19067e-07
2.22789e-05
1.24065e-07
2.21987e-05
1.26697e-07
2.21202e-05
1.27658e-07
2.20442e-05
1.27471e-07
2.19711e-05
1.26477e-07
2.19011e-05
1.24901e-07
2.18345e-05
1.22905e-07
2.17712e-05
1.20601e-07
2.17111e-05
1.18066e-07
2.16542e-05
1.15348e-07
2.16003e-05
1.12507e-07
1.09403e-07
2.15492e-05
1.5604e-05
3.26418e-08
1.55641e-05
9.26183e-08
1.55091e-05
1.35034e-07
1.54456e-05
1.62012e-07
1.53777e-05
1.78854e-07
1.5308e-05
1.88774e-07
1.52386e-05
1.9349e-07
1.51708e-05
1.94462e-07
1.51055e-05
1.92934e-07
1.50432e-05
1.8977e-07
1.49842e-05
1.85532e-07
1.49285e-05
1.80608e-07
1.48761e-05
1.75271e-07
1.4827e-05
1.69713e-07
1.4781e-05
1.64063e-07
1.47379e-05
1.58414e-07
1.46976e-05
1.52827e-07
1.47244e-07
1.46598e-05
1.23902e-05
5.12344e-08
1.23448e-05
1.38094e-07
1.22864e-05
1.93397e-07
1.22225e-05
2.25901e-07
1.21566e-05
2.44756e-07
1.20913e-05
2.54075e-07
1.20284e-05
2.56393e-07
1.19688e-05
2.5404e-07
1.1913e-05
2.48771e-07
1.18611e-05
2.41708e-07
1.1813e-05
2.33577e-07
1.17687e-05
2.24877e-07
1.17281e-05
2.1595e-07
1.16907e-05
2.07023e-07
1.16566e-05
1.98242e-07
1.16253e-05
1.89707e-07
1.15966e-05
1.81462e-07
1.73494e-07
1.15704e-05
9.55928e-06
7.55426e-08
9.50978e-06
1.87599e-07
9.45371e-06
2.49469e-07
9.39689e-06
2.82718e-07
9.34169e-06
2.99952e-07
9.29011e-06
3.05657e-07
9.24309e-06
3.03411e-07
9.20078e-06
2.96356e-07
9.16302e-06
2.86533e-07
9.12955e-06
2.75175e-07
9.10005e-06
2.63078e-07
9.07415e-06
2.50778e-07
9.05148e-06
2.38612e-07
9.03172e-06
2.26791e-07
9.01452e-06
2.15435e-07
8.99962e-06
2.04615e-07
8.98673e-06
1.94347e-07
1.84636e-07
8.97559e-06
7.18003e-06
1.04962e-07
7.13264e-06
2.34992e-07
7.08699e-06
2.95113e-07
7.04542e-06
3.24295e-07
7.00919e-06
3.3618e-07
6.97925e-06
3.35595e-07
6.95527e-06
3.27388e-07
6.93649e-06
3.15137e-07
6.92217e-06
3.00853e-07
6.91164e-06
2.85704e-07
6.90429e-06
2.70429e-07
6.89958e-06
2.55485e-07
6.89706e-06
2.4113e-07
6.89636e-06
2.275e-07
6.89714e-06
2.14653e-07
6.89915e-06
2.02605e-07
6.90216e-06
1.91334e-07
1.80837e-07
6.90596e-06
5.24556e-06
1.3812e-07
5.20786e-06
2.72692e-07
5.18042e-06
3.22547e-07
5.16161e-06
3.43113e-07
5.15134e-06
3.46449e-07
5.14856e-06
3.38372e-07
5.15145e-06
3.24501e-07
5.1585e-06
3.08087e-07
5.16861e-06
2.90737e-07
5.18094e-06
2.73373e-07
5.19483e-06
2.56546e-07
5.20976e-06
2.40551e-07
5.22537e-06
2.25521e-07
5.24137e-06
2.115e-07
5.25755e-06
1.98476e-07
5.27374e-06
1.86411e-07
5.28983e-06
1.75247e-07
1.6497e-07
5.3057e-06
3.71461e-06
1.71643e-07
3.69607e-06
2.91236e-07
3.69442e-06
3.24197e-07
3.70433e-06
3.33195e-07
3.72341e-06
3.27377e-07
3.74838e-06
3.13401e-07
3.77668e-06
2.96199e-07
3.80677e-06
2.78e-07
3.83764e-06
2.59861e-07
3.86863e-06
2.4239e-07
3.89926e-06
2.25912e-07
3.92925e-06
2.10562e-07
3.9584e-06
1.96366e-07
3.98661e-06
1.83292e-07
4.01381e-06
1.71279e-07
4.03997e-06
1.60249e-07
4.06509e-06
1.50125e-07
1.40893e-07
4.08917e-06
2.5354e-06
1.96844e-07
2.54624e-06
2.80392e-07
2.57485e-06
2.95583e-07
2.61417e-06
2.93877e-07
2.65963e-06
2.81923e-07
2.70723e-06
2.658e-07
2.75495e-06
2.48479e-07
2.80179e-06
2.31161e-07
2.84715e-06
2.14496e-07
2.8907e-06
1.98836e-07
2.93229e-06
1.8433e-07
2.97184e-06
1.71004e-07
3.00939e-06
1.58819e-07
3.04498e-06
1.47702e-07
3.0787e-06
1.37565e-07
3.11062e-06
1.28321e-07
3.14086e-06
1.19886e-07
1.12261e-07
3.1695e-06
1.65469e-06
1.99257e-07
1.70056e-06
2.34526e-07
1.75707e-06
2.39071e-07
1.81981e-06
2.31139e-07
1.88376e-06
2.17977e-07
1.94595e-06
2.03606e-07
2.00552e-06
1.88906e-07
2.06211e-06
1.74577e-07
2.11552e-06
1.61084e-07
2.16575e-06
1.48606e-07
2.2129e-06
1.37186e-07
2.2571e-06
1.26797e-07
2.29854e-06
1.17376e-07
2.33741e-06
1.08839e-07
2.37387e-06
1.01101e-07
2.40812e-06
9.40775e-08
2.44031e-06
8.7691e-08
8.19786e-08
2.47059e-06
1.01827e-06
1.63846e-07
1.09488e-06
1.57921e-07
1.17023e-06
1.63716e-07
1.24668e-06
1.54691e-07
1.32007e-06
1.4459e-07
1.38904e-06
1.34633e-07
1.45366e-06
1.24283e-07
1.51399e-06
1.14252e-07
1.57012e-06
1.04951e-07
1.62228e-06
9.64447e-08
1.67075e-06
8.87223e-08
1.7158e-06
8.17479e-08
1.75771e-06
7.54624e-08
1.79675e-06
6.97965e-08
1.83317e-06
6.46824e-08
1.86719e-06
6.00594e-08
1.89903e-06
5.58481e-08
5.21242e-08
1.92889e-06
5.69236e-07
8.45264e-08
6.58979e-07
6.81779e-08
7.40757e-07
8.19382e-08
8.20847e-07
7.46008e-08
8.9584e-07
6.95974e-08
9.65386e-07
6.50871e-08
1.0298e-06
5.98708e-08
1.0893e-06
5.47547e-08
1.14416e-06
5.00887e-08
1.19474e-06
4.58617e-08
1.24142e-06
4.20447e-08
1.28455e-06
3.86171e-08
1.32447e-06
3.55449e-08
1.36147e-06
3.27883e-08
1.39585e-06
3.0309e-08
1.42783e-06
2.80785e-08
1.45765e-06
2.60247e-08
2.41963e-08
1.48558e-06
2.22451e-07
2.90628e-07
3.72567e-07
4.47167e-07
5.16765e-07
5.81852e-07
6.41723e-07
6.96477e-07
7.46566e-07
7.92428e-07
8.34473e-07
8.7309e-07
9.08635e-07
9.41423e-07
9.71732e-07
9.9981e-07
1.02584e-06
1.05003e-06
1.81982e-08
-1.81982e-08
4.13648e-08
-2.31666e-08
6.16709e-08
-2.03061e-08
7.6607e-08
-1.49361e-08
8.52557e-08
-8.64873e-09
8.75589e-08
-2.30315e-09
8.40461e-08
3.51278e-09
7.56889e-08
8.35716e-09
6.35549e-08
1.21341e-08
4.85152e-08
1.50397e-08
3.1112e-08
1.74031e-08
1.15728e-08
1.95392e-08
-1.0113e-08
2.16859e-08
-3.41181e-08
2.4005e-08
-6.06791e-08
2.65611e-08
-9.00252e-08
2.93461e-08
-1.22346e-07
3.23207e-08
-1.57764e-07
3.5418e-08
-1.96322e-07
3.85577e-08
-2.37975e-07
4.16532e-08
-2.82593e-07
4.46185e-08
-3.29966e-07
4.73726e-08
-3.79812e-07
4.98457e-08
-4.31794e-07
5.19824e-08
-4.85538e-07
5.37444e-08
-5.40649e-07
5.51109e-08
-5.96728e-07
5.60786e-08
-6.53387e-07
5.66593e-08
-7.10266e-07
5.68786e-08
-7.67043e-07
5.67767e-08
-8.23449e-07
5.64065e-08
-8.79271e-07
5.58221e-08
-9.34332e-07
5.50605e-08
-9.8848e-07
5.41481e-08
-1.04159e-06
5.31133e-08
-1.09358e-06
5.19821e-08
-1.14435e-06
5.07777e-08
-1.19387e-06
4.95202e-08
-1.2421e-06
4.82262e-08
-1.28901e-06
4.69091e-08
-1.33459e-06
4.55793e-08
-1.37883e-06
4.42445e-08
-1.42174e-06
4.291e-08
-1.46332e-06
4.15794e-08
-1.50358e-06
4.02545e-08
-1.54251e-06
3.89363e-08
-1.58014e-06
3.76247e-08
-1.61646e-06
3.63189e-08
-1.65147e-06
3.50178e-08
-1.68519e-06
3.37202e-08
-1.71762e-06
3.24247e-08
-1.74875e-06
3.11298e-08
-1.77858e-06
2.98341e-08
-1.80712e-06
2.85366e-08
-1.83436e-06
2.72362e-08
-1.86029e-06
2.5932e-08
-1.88491e-06
2.46233e-08
-1.90822e-06
2.33097e-08
-1.93021e-06
2.19907e-08
-1.95088e-06
2.0666e-08
-1.97021e-06
1.93356e-08
-1.98821e-06
1.79991e-08
-2.00487e-06
1.66562e-08
-2.02017e-06
1.53065e-08
-2.03412e-06
1.39492e-08
-2.04671e-06
1.25831e-08
-2.05791e-06
1.12063e-08
-2.06773e-06
9.8153e-09
-2.07613e-06
8.40615e-09
-2.08311e-06
6.97363e-09
-2.08862e-06
5.51046e-09
-2.09263e-06
4.00756e-09
-2.09509e-06
2.46037e-09
-2.09594e-06
8.55314e-10
-2.09529e-06
-6.52237e-10
-2.09334e-06
-1.94464e-09
-2.09017e-06
-3.17307e-09
-2.08581e-06
-4.35852e-09
-2.08029e-06
-5.51985e-09
-2.07363e-06
-6.66699e-09
-2.06582e-06
-7.80369e-09
-2.05689e-06
-8.93122e-09
-2.04684e-06
-1.00497e-08
-2.03568e-06
-1.11587e-08
-2.02343e-06
-1.22579e-08
-2.01008e-06
-1.33465e-08
-1.99565e-06
-1.44239e-08
-1.98017e-06
-1.54896e-08
-1.96362e-06
-1.65429e-08
-1.94604e-06
-1.75834e-08
-1.92743e-06
-1.86104e-08
-1.9078e-06
-1.96235e-08
-1.88718e-06
-2.06222e-08
-1.86558e-06
-2.16061e-08
-1.843e-06
-2.25748e-08
-1.81947e-06
-2.35278e-08
-1.79501e-06
-2.44647e-08
-1.76962e-06
-2.53852e-08
-1.74334e-06
-2.62887e-08
-1.71616e-06
-2.71749e-08
-1.68812e-06
-2.80434e-08
-1.65922e-06
-2.88938e-08
-1.6295e-06
-2.97257e-08
-1.59896e-06
-3.05387e-08
-1.56763e-06
-3.13324e-08
-1.53552e-06
-3.21063e-08
-1.50266e-06
-3.28601e-08
-1.46907e-06
-3.35931e-08
-1.43476e-06
-3.4305e-08
-1.39977e-06
-3.49952e-08
-1.3641e-06
-3.56633e-08
-1.32779e-06
-3.63088e-08
-1.29086e-06
-3.69312e-08
-1.25333e-06
-3.75299e-08
-1.21523e-06
-3.81045e-08
-1.17657e-06
-3.86543e-08
-1.1374e-06
-3.9179e-08
-1.09772e-06
-3.96779e-08
-1.05757e-06
-4.01507e-08
-1.01697e-06
-4.05968e-08
-9.75955e-07
-4.10157e-08
-9.34548e-07
-4.1407e-08
-8.92777e-07
-4.17703e-08
-8.50672e-07
-4.21052e-08
-8.08261e-07
-4.24114e-08
-7.65572e-07
-4.26885e-08
-7.22636e-07
-4.29362e-08
-6.79482e-07
-4.31543e-08
-6.36139e-07
-4.33426e-08
-5.92638e-07
-4.35009e-08
-5.49009e-07
-4.3629e-08
-5.05282e-07
-4.37269e-08
-4.61488e-07
-4.37943e-08
-4.17657e-07
-4.38311e-08
-3.7382e-07
-4.38372e-08
-3.30007e-07
-4.38123e-08
-2.86251e-07
-4.37559e-08
-2.42584e-07
-4.36673e-08
-1.99038e-07
-4.35461e-08
-1.55648e-07
-4.33896e-08
-1.1245e-07
-4.31987e-08
-6.94747e-08
-4.29749e-08
-2.67617e-08
-4.2713e-08
1.56523e-08
-4.2414e-08
5.77266e-08
-4.20743e-08
9.94309e-08
-4.17043e-08
1.40749e-07
-4.13185e-08
1.81678e-07
-4.09283e-08
2.2221e-07
-4.05323e-08
2.62338e-07
-4.01278e-08
3.02051e-07
-3.97132e-08
3.41339e-07
-3.92878e-08
3.8019e-07
-3.88514e-08
4.18595e-07
-3.84044e-08
4.56542e-07
-3.79477e-08
4.94024e-07
-3.74821e-08
5.31033e-07
-3.70087e-08
5.67562e-07
-3.65287e-08
6.03605e-07
-3.60433e-08
6.39159e-07
-3.55536e-08
6.74219e-07
-3.50606e-08
7.08785e-07
-3.45652e-08
7.42852e-07
-3.40679e-08
7.76421e-07
-3.35687e-08
8.09488e-07
-3.30671e-08
8.4205e-07
-3.25615e-08
8.74099e-07
-3.2049e-08
9.05623e-07
-3.15246e-08
9.36603e-07
-3.09801e-08
9.67006e-07
-3.0403e-08
9.96779e-07
-2.97728e-08
1.02584e-06
-2.90575e-08
1.05404e-06
-2.82033e-08
1.08116e-06
-2.71188e-08
1.10679e-06
-2.56267e-08
1.13017e-06
-2.33851e-08
1.14961e-06
-1.9437e-08
1.16123e-06
-1.1627e-08
1.15244e-06
8.78976e-09
5.40398e-08
1.09841e-06
1.76937e-08
-3.5892e-08
2.83002e-08
-3.37731e-08
3.12579e-08
-2.32638e-08
2.85845e-08
-1.22626e-08
2.15941e-08
-1.6584e-09
1.10282e-08
8.26279e-09
-2.78713e-09
1.73281e-08
-1.98729e-08
2.5443e-08
-4.03513e-08
3.26124e-08
-6.43032e-08
3.89916e-08
-9.17377e-08
4.48377e-08
-1.22618e-07
5.04192e-08
-1.56876e-07
5.59446e-08
-1.94405e-07
6.15341e-08
-2.35064e-07
6.72201e-08
-2.7868e-07
7.29613e-08
-3.25023e-07
7.86645e-08
-3.73812e-07
8.42067e-08
-4.24709e-07
8.94546e-08
-4.77335e-07
9.42791e-08
-5.31283e-07
9.85666e-08
-5.86137e-07
1.02227e-07
-6.4149e-07
1.05198e-07
-6.96955e-07
1.07448e-07
-7.52187e-07
1.08976e-07
-8.06881e-07
1.09805e-07
-8.60786e-07
1.09984e-07
-9.13701e-07
1.09574e-07
-9.65474e-07
1.08652e-07
-1.016e-06
1.07298e-07
-1.06519e-06
1.05597e-07
-1.11299e-06
1.03622e-07
-1.15936e-06
1.01437e-07
-1.20431e-06
9.90923e-08
-1.24783e-06
9.66335e-08
-1.28994e-06
9.4098e-08
-1.33068e-06
9.15161e-08
-1.37007e-06
8.89117e-08
-1.40815e-06
8.63028e-08
-1.44494e-06
8.37022e-08
-1.48048e-06
8.11187e-08
-1.5148e-06
7.85572e-08
-1.54791e-06
7.60203e-08
-1.57983e-06
7.3508e-08
-1.6106e-06
7.10191e-08
-1.64021e-06
6.85513e-08
-1.66869e-06
6.61014e-08
-1.69604e-06
6.36659e-08
-1.72226e-06
6.12414e-08
-1.74737e-06
5.88244e-08
-1.77135e-06
5.64115e-08
-1.79422e-06
5.39997e-08
-1.81597e-06
5.15864e-08
-1.83661e-06
4.91694e-08
-1.85612e-06
4.67467e-08
-1.8745e-06
4.4317e-08
-1.89176e-06
4.1879e-08
-1.90788e-06
3.94322e-08
-1.92287e-06
3.6976e-08
-1.93671e-06
3.45102e-08
-1.94941e-06
3.2035e-08
-1.96096e-06
2.95504e-08
-1.97136e-06
2.70566e-08
-1.98061e-06
2.45541e-08
-1.9887e-06
2.20432e-08
-1.99564e-06
1.9524e-08
-2.00143e-06
1.6997e-08
-2.00608e-06
1.44626e-08
-2.0096e-06
1.19216e-08
-2.012e-06
9.37631e-09
-2.01332e-06
6.83061e-09
-2.01361e-06
4.29264e-09
-2.01293e-06
1.78051e-09
-2.01139e-06
-6.81477e-10
-2.00895e-06
-3.0915e-09
-2.00547e-06
-5.42777e-09
-2.0009e-06
-7.74136e-09
-1.99522e-06
-1.00365e-08
-1.98843e-06
-1.23145e-08
-1.98052e-06
-1.45771e-08
-1.97149e-06
-1.68245e-08
-1.96137e-06
-1.90561e-08
-1.95015e-06
-2.1271e-08
-1.93784e-06
-2.34681e-08
-1.92445e-06
-2.56459e-08
-1.90999e-06
-2.78033e-08
-1.89448e-06
-2.99388e-08
-1.87792e-06
-3.20514e-08
-1.86032e-06
-3.41396e-08
-1.8417e-06
-3.62026e-08
-1.82207e-06
-3.82391e-08
-1.80145e-06
-4.02482e-08
-1.77984e-06
-4.22289e-08
-1.75727e-06
-4.41804e-08
-1.73374e-06
-4.61017e-08
-1.70928e-06
-4.79919e-08
-1.68389e-06
-4.98504e-08
-1.6576e-06
-5.16761e-08
-1.63042e-06
-5.34683e-08
-1.60237e-06
-5.52261e-08
-1.57346e-06
-5.69487e-08
-1.54372e-06
-5.86353e-08
-1.51316e-06
-6.02851e-08
-1.4818e-06
-6.18973e-08
-1.44967e-06
-6.3471e-08
-1.41677e-06
-6.50053e-08
-1.38313e-06
-6.64994e-08
-1.34877e-06
-6.79523e-08
-1.31371e-06
-6.93629e-08
-1.27797e-06
-7.07303e-08
-1.24158e-06
-7.20536e-08
-1.20456e-06
-7.33317e-08
-1.16693e-06
-7.45637e-08
-1.12871e-06
-7.57485e-08
-1.08993e-06
-7.6885e-08
-1.05061e-06
-7.79723e-08
-1.01078e-06
-7.90092e-08
-9.70465e-07
-7.99947e-08
-9.29688e-07
-8.0928e-08
-8.88476e-07
-8.1808e-08
-8.46858e-07
-8.26338e-08
-8.04861e-07
-8.34044e-08
-7.62512e-07
-8.41191e-08
-7.1984e-07
-8.47772e-08
-6.76873e-07
-8.53779e-08
-6.33641e-07
-8.59205e-08
-5.90173e-07
-8.64044e-08
-5.46498e-07
-8.68293e-08
-5.02646e-07
-8.71947e-08
-4.58647e-07
-8.75001e-08
-4.14531e-07
-8.77454e-08
-3.70327e-07
-8.79302e-08
-3.26067e-07
-8.80545e-08
-2.81781e-07
-8.81178e-08
-2.37498e-07
-8.812e-08
-1.93249e-07
-8.80606e-08
-1.49066e-07
-8.79391e-08
-1.04979e-07
-8.77541e-08
-6.102e-08
-8.75055e-08
-1.72191e-08
-8.71905e-08
2.63906e-08
-8.68083e-08
6.97762e-08
-8.63606e-08
1.1291e-07
-8.58465e-08
1.55767e-07
-8.52714e-08
1.98329e-07
-8.46361e-08
2.40574e-07
-8.39491e-08
2.82482e-07
-8.32268e-08
3.24034e-07
-8.248e-08
3.65212e-07
-8.17108e-08
4.06003e-07
-8.09186e-08
4.46393e-07
-8.01028e-08
4.86368e-07
-7.92634e-08
5.25918e-07
-7.8401e-08
5.6503e-07
-7.75169e-08
6.03696e-07
-7.66129e-08
6.41905e-07
-7.56912e-08
6.7965e-07
-7.47539e-08
7.16925e-07
-7.38036e-08
7.53724e-07
-7.28425e-08
7.90043e-07
-7.1873e-08
8.2588e-07
-7.08971e-08
8.61231e-07
-6.99165e-08
8.96096e-07
-6.89323e-08
9.30471e-07
-6.79446e-08
9.64357e-07
-6.69522e-08
9.97747e-07
-6.59521e-08
1.03064e-06
-6.49384e-08
1.06301e-06
-6.3901e-08
1.09486e-06
-6.28239e-08
1.12614e-06
-6.16817e-08
1.1568e-06
-6.04345e-08
1.18676e-06
-5.90188e-08
1.21589e-06
-5.73304e-08
1.24396e-06
-5.51929e-08
1.27061e-06
-5.22794e-08
1.29521e-06
-4.79809e-08
1.31663e-06
-4.08593e-08
1.33329e-06
-2.82915e-08
1.3436e-06
-1.51863e-09
5.34435e-08
1.3442e-06
4.76328e-09
-4.06552e-08
-1.79783e-10
-2.883e-08
-9.99555e-09
-1.3448e-08
-2.31554e-08
8.97245e-10
-3.89917e-08
1.41779e-08
-5.73332e-08
2.66044e-08
-7.81913e-08
3.81861e-08
-1.01695e-07
4.89462e-08
-1.2802e-07
5.89382e-08
-1.57305e-07
6.82767e-08
-1.89588e-07
7.71205e-08
-2.24794e-07
8.56251e-08
-2.62749e-07
9.3899e-08
-3.03196e-07
1.01981e-07
-3.45819e-07
1.09843e-07
-3.90258e-07
1.17401e-07
-4.36131e-07
1.24537e-07
-4.83045e-07
1.31122e-07
-5.30621e-07
1.3703e-07
-5.78496e-07
1.42155e-07
-6.26348e-07
1.46419e-07
-6.73898e-07
1.49777e-07
-7.20918e-07
1.52217e-07
-7.67229e-07
1.5376e-07
-8.12705e-07
1.54451e-07
-8.57259e-07
1.5436e-07
-9.00842e-07
1.53567e-07
-9.43433e-07
1.52165e-07
-9.85028e-07
1.50247e-07
-1.02563e-06
1.47905e-07
-1.06526e-06
1.45226e-07
-1.10393e-06
1.42286e-07
-1.14164e-06
1.3915e-07
-1.17842e-06
1.35872e-07
-1.21428e-06
1.32496e-07
-1.24924e-06
1.2906e-07
-1.28332e-06
1.2559e-07
-1.31651e-06
1.22107e-07
-1.34884e-06
1.18628e-07
-1.3803e-06
1.15162e-07
-1.41089e-06
1.11714e-07
-1.44063e-06
1.08288e-07
-1.46949e-06
1.04884e-07
-1.49748e-06
1.01501e-07
-1.5246e-06
9.81347e-08
-1.55083e-06
9.47823e-08
-1.57617e-06
9.14392e-08
-1.6006e-06
8.81012e-08
-1.62412e-06
8.47639e-08
-1.64672e-06
8.14231e-08
-1.66839e-06
7.80752e-08
-1.6891e-06
7.47166e-08
-1.70886e-06
7.13448e-08
-1.72765e-06
6.79573e-08
-1.74546e-06
6.45524e-08
-1.76227e-06
6.11289e-08
-1.77807e-06
5.76861e-08
-1.79287e-06
5.42237e-08
-1.80663e-06
5.07418e-08
-1.81936e-06
4.72412e-08
-1.83105e-06
4.37225e-08
-1.84169e-06
4.01872e-08
-1.85127e-06
3.66367e-08
-1.85979e-06
3.30727e-08
-1.86724e-06
2.94972e-08
-1.87363e-06
2.59124e-08
-1.87895e-06
2.23212e-08
-1.88322e-06
1.87266e-08
-1.88643e-06
1.5133e-08
-1.8886e-06
1.15454e-08
-1.88974e-06
7.97086e-09
-1.88986e-06
4.41821e-09
-1.88898e-06
8.97581e-10
-1.88708e-06
-2.58082e-09
-1.88415e-06
-6.02267e-09
-1.88014e-06
-9.43397e-09
-1.87506e-06
-1.28259e-08
-1.86889e-06
-1.6201e-08
-1.86165e-06
-1.95593e-08
-1.85333e-06
-2.28997e-08
-1.84393e-06
-2.62206e-08
-1.83347e-06
-2.952e-08
-1.82194e-06
-3.2796e-08
-1.80936e-06
-3.60463e-08
-1.79574e-06
-3.9269e-08
-1.78108e-06
-4.2462e-08
-1.7654e-06
-4.56232e-08
-1.7487e-06
-4.87507e-08
-1.73099e-06
-5.18429e-08
-1.7123e-06
-5.48978e-08
-1.69262e-06
-5.7914e-08
-1.67198e-06
-6.08899e-08
-1.65039e-06
-6.38241e-08
-1.62785e-06
-6.67152e-08
-1.60439e-06
-6.95618e-08
-1.58002e-06
-7.23627e-08
-1.55476e-06
-7.51165e-08
-1.52861e-06
-7.7822e-08
-1.5016e-06
-8.04779e-08
-1.47374e-06
-8.30829e-08
-1.44506e-06
-8.56359e-08
-1.41556e-06
-8.81354e-08
-1.38526e-06
-9.05804e-08
-1.35419e-06
-9.29695e-08
-1.32236e-06
-9.53015e-08
-1.28979e-06
-9.7575e-08
-1.2565e-06
-9.97888e-08
-1.22251e-06
-1.01941e-07
-1.18784e-06
-1.04031e-07
-1.15252e-06
-1.06056e-07
-1.11655e-06
-1.08016e-07
-1.07998e-06
-1.09909e-07
-1.04281e-06
-1.11733e-07
-1.00507e-06
-1.13487e-07
-9.66786e-07
-1.15169e-07
-9.27981e-07
-1.16777e-07
-8.88679e-07
-1.18311e-07
-8.48906e-07
-1.19768e-07
-8.08687e-07
-1.21147e-07
-7.68047e-07
-1.22447e-07
-7.27014e-07
-1.23667e-07
-6.85615e-07
-1.24804e-07
-6.43876e-07
-1.25858e-07
-6.01826e-07
-1.26827e-07
-5.59492e-07
-1.27712e-07
-5.16903e-07
-1.28509e-07
-4.74088e-07
-1.2922e-07
-4.31075e-07
-1.29842e-07
-3.87894e-07
-1.30376e-07
-3.44573e-07
-1.30821e-07
-3.01143e-07
-1.31176e-07
-2.57632e-07
-1.31441e-07
-2.14071e-07
-1.31616e-07
-1.70488e-07
-1.31701e-07
-1.26913e-07
-1.31695e-07
-8.3376e-08
-1.31597e-07
-3.99065e-08
-1.31409e-07
3.46656e-09
-1.31127e-07
4.67127e-08
-1.30752e-07
8.98025e-08
-1.3028e-07
1.32708e-07
-1.29714e-07
1.75401e-07
-1.29053e-07
2.17859e-07
-1.28304e-07
2.60065e-07
-1.27478e-07
3.02006e-07
-1.26577e-07
3.43662e-07
-1.25605e-07
3.85008e-07
-1.24572e-07
4.26018e-07
-1.2349e-07
4.66672e-07
-1.22365e-07
5.06951e-07
-1.21198e-07
5.46841e-07
-1.19992e-07
5.86326e-07
-1.18749e-07
6.25395e-07
-1.1747e-07
6.64035e-07
-1.16157e-07
7.02237e-07
-1.14815e-07
7.39992e-07
-1.13446e-07
7.77292e-07
-1.12054e-07
8.14131e-07
-1.10642e-07
8.50504e-07
-1.09215e-07
8.86406e-07
-1.07775e-07
9.21836e-07
-1.06327e-07
9.5679e-07
-1.04871e-07
9.91268e-07
-1.0341e-07
1.02527e-06
-1.01945e-07
1.05879e-06
-1.00473e-07
1.09183e-06
-9.89895e-08
1.12437e-06
-9.74864e-08
1.15642e-06
-9.59488e-08
1.18795e-06
-9.43528e-08
1.21893e-06
-9.26614e-08
1.24931e-06
-9.08162e-08
1.27902e-06
-8.87255e-08
1.30793e-06
-8.62406e-08
1.33585e-06
-8.31144e-08
1.36248e-06
-7.89086e-08
1.38734e-06
-7.28371e-08
1.40974e-06
-6.32673e-08
1.42883e-06
-4.73789e-08
1.44512e-06
-1.78066e-08
3.63526e-08
1.46221e-06
-9.77671e-09
-3.08785e-08
-2.59946e-08
-1.26121e-08
-4.45419e-08
5.0992e-09
-6.4722e-08
2.10774e-08
-8.65405e-08
3.59964e-08
-1.10047e-07
5.01105e-08
-1.35372e-07
6.35112e-08
-1.62659e-07
7.62333e-08
-1.9203e-07
8.83094e-08
-2.23543e-07
9.97899e-08
-2.5716e-07
1.10737e-07
-2.92738e-07
1.21203e-07
-3.30046e-07
1.31207e-07
-3.6879e-07
1.40725e-07
-4.08638e-07
1.49692e-07
-4.49249e-07
1.58012e-07
-4.90292e-07
1.65579e-07
-5.31462e-07
1.72292e-07
-5.72496e-07
1.78064e-07
-6.1318e-07
1.82838e-07
-6.53348e-07
1.86587e-07
-6.92887e-07
1.89316e-07
-7.31725e-07
1.91056e-07
-7.69831e-07
1.91865e-07
-8.07199e-07
1.91819e-07
-8.43845e-07
1.91005e-07
-8.79795e-07
1.89518e-07
-9.15083e-07
1.87453e-07
-9.49739e-07
1.84902e-07
-9.83789e-07
1.81955e-07
-1.01725e-06
1.78689e-07
-1.05014e-06
1.75174e-07
-1.08246e-06
1.71469e-07
-1.11421e-06
1.67625e-07
-1.14539e-06
1.6368e-07
-1.176e-06
1.59667e-07
-1.20602e-06
1.55612e-07
-1.23545e-06
1.51532e-07
-1.26426e-06
1.4744e-07
-1.29244e-06
1.43344e-07
-1.31998e-06
1.39251e-07
-1.34685e-06
1.35161e-07
-1.37304e-06
1.31074e-07
-1.39853e-06
1.26989e-07
-1.4233e-06
1.22902e-07
-1.44733e-06
1.18809e-07
-1.47059e-06
1.14707e-07
-1.49308e-06
1.10591e-07
-1.51478e-06
1.06457e-07
-1.53565e-06
1.023e-07
-1.5557e-06
9.81187e-08
-1.57489e-06
9.39087e-08
-1.59321e-06
8.96682e-08
-1.61065e-06
8.53952e-08
-1.62719e-06
8.10887e-08
-1.64281e-06
7.67481e-08
-1.65749e-06
7.23736e-08
-1.67123e-06
6.79656e-08
-1.68402e-06
6.35253e-08
-1.69583e-06
5.90544e-08
-1.70666e-06
5.45548e-08
-1.71651e-06
5.00291e-08
-1.72535e-06
4.548e-08
-1.73319e-06
4.09108e-08
-1.74001e-06
3.63251e-08
-1.74583e-06
3.17266e-08
-1.75063e-06
2.71197e-08
-1.75441e-06
2.25093e-08
-1.75718e-06
1.79008e-08
-1.75893e-06
1.33e-08
-1.75967e-06
8.71346e-09
-1.7594e-06
4.14776e-09
-1.75812e-06
-3.91538e-10
-1.7558e-06
-4.9008e-09
-1.75244e-06
-9.38214e-09
-1.74803e-06
-1.38406e-08
-1.74257e-06
-1.82802e-08
-1.73607e-06
-2.27018e-08
-1.72853e-06
-2.71041e-08
-1.71994e-06
-3.1485e-08
-1.71032e-06
-3.58418e-08
-1.69967e-06
-4.01718e-08
-1.688e-06
-4.44719e-08
-1.6753e-06
-4.87392e-08
-1.6616e-06
-5.29709e-08
-1.6469e-06
-5.71642e-08
-1.6312e-06
-6.13164e-08
-1.61453e-06
-6.5425e-08
-1.59689e-06
-6.94875e-08
-1.57828e-06
-7.35017e-08
-1.55873e-06
-7.74654e-08
-1.53824e-06
-8.13766e-08
-1.51683e-06
-8.52332e-08
-1.49452e-06
-8.90336e-08
-1.4713e-06
-9.27757e-08
-1.44721e-06
-9.6458e-08
-1.42224e-06
-1.00079e-07
-1.39643e-06
-1.03636e-07
-1.36978e-06
-1.07128e-07
-1.34231e-06
-1.10554e-07
-1.31403e-06
-1.13911e-07
-1.28497e-06
-1.17198e-07
-1.25514e-06