/*--------------------------------*- C++ -*----------------------------------*\
| =========                 |                                                 |
| \\      /  F ield         | OpenFOAM: The Open Source CFD Toolbox           |
|  \\    /   O peration     | Version:  2412                                  |
|   \\  /    A nd           | Website:  www.openfoam.com                      |
|    \\/     M anipulation  |                                                 |
\*---------------------------------------------------------------------------*/
FoamFile
{
    version     2.0;
    format      ascii;
    arch        "LSB;label=32;scalar=64";
    class       volVectorField;
    location    "0.27";
    object      U;
}
// * * * * * * * * * * * * * * * * * * * * * * * * * * * * * * * * * * * * * //

dimensions      [0 1 -1 0 0 0 0];

internalField   nonuniform List<vector> 
12225
(
(0.377183 -0.200896 0)
(0.543962 -0.0519273 0)
(0.71105 -0.0340154 0)
(0.893987 -0.030478 0)
(1.05913 -0.0297487 0)
(1.20888 -0.0284546 0)
(1.3462 -0.0265208 0)
(1.47051 -0.0245784 0)
(1.58227 -0.0227696 0)
(1.68275 -0.0210775 0)
(1.77313 -0.0194996 0)
(1.85435 -0.0180277 0)
(1.92724 -0.0166404 0)
(1.99249 -0.0152955 0)
(2.05043 -0.0139691 0)
(2.10194 -0.0125088 0)
(2.14314 -0.0103399 0)
(2.19071 -0.0128223 0)
(0.933503 -0.0317784 0)
(1.0567 -0.0587109 0)
(1.23665 -0.0689018 0)
(1.42156 -0.0644871 0)
(1.58554 -0.0618158 0)
(1.73444 -0.0589704 0)
(1.87135 -0.0555691 0)
(1.99608 -0.0521826 0)
(2.10909 -0.0489413 0)
(2.21145 -0.0458526 0)
(2.30411 -0.042931 0)
(2.38792 -0.0401621 0)
(2.46362 -0.037504 0)
(2.53182 -0.0348771 0)
(2.59294 -0.0322203 0)
(2.64732 -0.0290834 0)
(2.69449 -0.0260626 0)
(2.73638 -0.015873 0)
(1.39962 -0.084682 0)
(1.49179 -0.105679 0)
(1.65466 -0.107239 0)
(1.82261 -0.101944 0)
(1.97269 -0.0979935 0)
(2.1104 -0.0936572 0)
(2.23778 -0.0887465 0)
(2.35453 -0.0838045 0)
(2.46099 -0.079004 0)
(2.55793 -0.0743912 0)
(2.64611 -0.0699919 0)
(2.7262 -0.0657869 0)
(2.79883 -0.0617169 0)
(2.86451 -0.0576745 0)
(2.92365 -0.0535276 0)
(2.97646 -0.0488538 0)
(3.02315 -0.0436244 0)
(3.06301 -0.0340862 0)
(1.89741 -0.115425 0)
(1.94623 -0.14331 0)
(2.07521 -0.144986 0)
(2.21748 -0.140771 0)
(2.34799 -0.135784 0)
(2.46975 -0.130052 0)
(2.58355 -0.123703 0)
(2.68871 -0.117217 0)
(2.78529 -0.110832 0)
(2.87378 -0.104649 0)
(2.95468 -0.0987109 0)
(3.02849 -0.0929992 0)
(3.09567 -0.0874429 0)
(3.15666 -0.081912 0)
(3.21178 -0.0762247 0)
(3.26123 -0.0699566 0)
(3.30553 -0.0628147 0)
(3.34314 -0.0517954 0)
(2.43108 -0.125831 0)
(2.44051 -0.169894 0)
(2.52881 -0.177416 0)
(2.64003 -0.176178 0)
(2.74682 -0.171238 0)
(2.84905 -0.16474 0)
(2.9462 -0.157388 0)
(3.03705 -0.149691 0)
(3.12131 -0.141978 0)
(3.1991 -0.134424 0)
(3.27069 -0.1271 0)
(3.33634 -0.120002 0)
(3.39638 -0.113056 0)
(3.45111 -0.106123 0)
(3.50081 -0.0989922 0)
(3.54562 -0.0912544 0)
(3.58635 -0.0824745 0)
(3.62095 -0.0703814 0)
(2.99683 -0.123685 0)
(2.97698 -0.185373 0)
(3.02469 -0.201466 0)
(3.10204 -0.20496 0)
(3.18212 -0.201584 0)
(3.26199 -0.195269 0)
(3.33998 -0.187568 0)
(3.41427 -0.179179 0)
(3.48412 -0.170561 0)
(3.54932 -0.16198 0)
(3.60984 -0.153557 0)
(3.66574 -0.145313 0)
(3.71717 -0.137188 0)
(3.76431 -0.129046 0)
(3.80736 -0.120673 0)
(3.84642 -0.111698 0)
(3.88249 -0.101669 0)
(3.91302 -0.089005 0)
(3.58832 -0.11451 0)
(3.5509 -0.190589 0)
(3.56321 -0.215901 0)
(3.60679 -0.225328 0)
(3.65876 -0.225019 0)
(3.71446 -0.219974 0)
(3.77143 -0.212703 0)
(3.82739 -0.204247 0)
(3.88115 -0.195239 0)
(3.93215 -0.18606 0)
(3.98011 -0.176903 0)
(4.02487 -0.167827 0)
(4.06641 -0.158802 0)
(4.10476 -0.149712 0)
(4.14007 -0.140361 0)
(4.17235 -0.130441 0)
(4.2027 -0.11956 0)
(4.22806 -0.106684 0)
(4.1988 -0.101769 0)
(4.15397 -0.187082 0)
(4.13919 -0.220716 0)
(4.15219 -0.236323 0)
(4.1767 -0.240156 0)
(4.20779 -0.237411 0)
(4.24285 -0.231384 0)
(4.27938 -0.223542 0)
(4.31587 -0.21472 0)
(4.35151 -0.205435 0)
(4.38575 -0.195966 0)
(4.41825 -0.186434 0)
(4.44883 -0.176846 0)
(4.4774 -0.167124 0)
(4.504 -0.157111 0)
(4.52859 -0.146574 0)
(4.55226 -0.135218 0)
(4.57142 -0.122415 0)
(4.82185 -0.0878121 0)
(4.77662 -0.176883 0)
(4.7439 -0.216855 0)
(4.73191 -0.237843 0)
(4.7318 -0.246144 0)
(4.73958 -0.246429 0)
(4.75307 -0.242356 0)
(4.77002 -0.235779 0)
(4.78884 -0.227729 0)
(4.80851 -0.218857 0)
(4.82835 -0.20954 0)
(4.84788 -0.199967 0)
(4.86675 -0.1902 0)
(4.88479 -0.180208 0)
(4.90194 -0.169888 0)
(4.91807 -0.159086 0)
(4.93425 -0.147619 0)
(4.94636 -0.135145 0)
(5.45146 -0.0741128 0)
(5.4095 -0.16202 0)
(5.36682 -0.205842 0)
(5.33654 -0.230663 0)
(5.31637 -0.242921 0)
(5.30385 -0.246443 0)
(5.29762 -0.244758 0)
(5.29604 -0.239943 0)
(5.2977 -0.233173 0)
(5.3016 -0.2252 0)
(5.30701 -0.216491 0)
(5.31335 -0.207303 0)
(5.32022 -0.197758 0)
(5.32735 -0.18788 0)
(5.33461 -0.177628 0)
(5.3418 -0.166923 0)
(5.34992 -0.155693 0)
(5.35435 -0.143785 0)
(6.08167 -0.0613987 0)
(6.04411 -0.144182 0)
(5.99714 -0.189335 0)
(5.95494 -0.216181 0)
(5.92006 -0.23127 0)
(5.89157 -0.23765 0)
(5.86884 -0.238373 0)
(5.85102 -0.235529 0)
(5.83714 -0.230354 0)
(5.82639 -0.223643 0)
(5.81811 -0.215918 0)
(5.81174 -0.207494 0)
(5.80687 -0.198547 0)
(5.8032 -0.189153 0)
(5.80055 -0.179332 0)
(5.79866 -0.169071 0)
(5.79848 -0.158392 0)
(5.79495 -0.147276 0)
(6.65461 -0.0506073 0)
(6.62055 -0.126208 0)
(6.57305 -0.170589 0)
(6.52478 -0.197778 0)
(6.48114 -0.214239 0)
(6.44232 -0.2225 0)
(6.40817 -0.225057 0)
(6.37844 -0.22388 0)
(6.35267 -0.220189 0)
(6.33032 -0.214765 0)
(6.31089 -0.208137 0)
(6.29395 -0.200648 0)
(6.27915 -0.192506 0)
(6.26618 -0.18383 0)
(6.25488 -0.174682 0)
(6.24494 -0.165101 0)
(6.23732 -0.155147 0)
(6.22655 -0.144996 0)
(7.20973 -0.0406602 0)
(7.18016 -0.107396 0)
(7.13447 -0.149613 0)
(7.08343 -0.176146 0)
(7.03446 -0.192987 0)
(6.98882 -0.202367 0)
(6.94662 -0.20625 0)
(6.908 -0.206406 0)
(6.87294 -0.204009 0)
(6.84121 -0.199802 0)
(6.81251 -0.194287 0)
(6.78657 -0.187812 0)
(6.76312 -0.1806 0)
(6.74193 -0.172794 0)
(6.72285 -0.164488 0)
(6.70559 -0.155759 0)
(6.69105 -0.146677 0)
(6.67363 -0.137628 0)
(7.81811 -0.0310717 0)
(7.79338 -0.0861321 0)
(7.75173 -0.123851 0)
(7.70083 -0.148312 0)
(7.64927 -0.164352 0)
(7.59955 -0.173987 0)
(7.55201 -0.178643 0)
(7.507 -0.179764 0)
(7.46483 -0.178434 0)
(7.42559 -0.175343 0)
(7.38918 -0.170949 0)
(7.35548 -0.165576 0)
(7.32437 -0.159446 0)
(7.29569 -0.152712 0)
(7.26938 -0.145483 0)
(7.24517 -0.137857 0)
(7.2239 -0.129926 0)
(7.20009 -0.122159 0)
(8.45855 -0.0222982 0)
(8.43893 -0.0637722 0)
(8.40342 -0.0942603 0)
(8.3561 -0.114683 0)
(8.30536 -0.12833 0)
(8.25484 -0.136943 0)
(8.20528 -0.14149 0)
(8.15716 -0.142972 0)
(8.11104 -0.142266 0)
(8.06723 -0.139974 0)
(8.02584 -0.136496 0)
(7.98689 -0.132114 0)
(7.95035 -0.127036 0)
(7.91619 -0.121413 0)
(7.88437 -0.115358 0)
(7.85471 -0.108972 0)
(7.828 -0.102352 0)
(7.79913 -0.0959873 0)
(9.08866 -0.0143741 0)
(9.07383 -0.041745 0)
(9.04561 -0.0628591 0)
(9.00497 -0.0772096 0)
(8.95897 -0.0866424 0)
(8.91169 -0.0925279 0)
(8.86421 -0.0955578 0)
(8.81708 -0.0963431 0)
(8.77099 -0.0954781 0)
(8.72647 -0.0934095 0)
(8.68382 -0.0904347 0)
(8.64316 -0.0867638 0)
(8.60457 -0.0825572 0)
(8.56808 -0.0779399 0)
(8.53373 -0.0730131 0)
(8.50138 -0.0678724 0)
(8.47175 -0.0625867 0)
(8.44051 -0.0576638 0)
(9.63295 -0.00707661 0)
(9.6217 -0.0207173 0)
(9.59988 -0.0314145 0)
(9.5666 -0.0384046 0)
(9.52747 -0.0424489 0)
(9.48645 -0.0443792 0)
(9.44473 -0.044646 0)
(9.40277 -0.0435881 0)
(9.36114 -0.0415484 0)
(9.32042 -0.0388103 0)
(9.28098 -0.0355696 0)
(9.24301 -0.0319634 0)
(9.20665 -0.0280994 0)
(9.17196 -0.0240685 0)
(9.13904 -0.019944 0)
(9.10778 -0.0158063 0)
(9.07876 -0.0116694 0)
(9.04897 -0.00802707 0)
(9.96404 0.000104144 0)
(9.95459 0.000153356 0)
(9.93649 0.000606814 0)
(9.90812 0.001847 0)
(9.87423 0.00378606 0)
(9.83859 0.00623248 0)
(9.80247 0.00908188 0)
(9.76622 0.0122626 0)
(9.7303 0.0156905 0)
(9.6952 0.0192849 0)
(9.66123 0.0229832 0)
(9.62855 0.0267357 0)
(9.59722 0.0304966 0)
(9.56728 0.0342179 0)
(9.53877 0.0378573 0)
(9.51162 0.041351 0)
(9.48602 0.0447239 0)
(9.46095 0.0475605 0)
(9.87499 0.00747079 0)
(9.86688 0.0217902 0)
(9.84987 0.0341988 0)
(9.82249 0.044394 0)
(9.78959 0.0528 0)
(9.75498 0.0598991 0)
(9.71993 0.0659883 0)
(9.68483 0.0712829 0)
(9.65014 0.0759795 0)
(9.61636 0.0802373 0)
(9.58381 0.084164 0)
(9.55263 0.0878279 0)
(9.52287 0.0912713 0)
(9.49456 0.0945173 0)
(9.46768 0.0975749 0)
(9.44224 0.100426 0)
(9.41796 0.103107 0)
(9.39589 0.105339 0)
(9.28437 0.0159163 0)
(9.27065 0.0461911 0)
(9.24578 0.0711719 0)
(9.2098 0.0903909 0)
(9.16896 0.105207 0)
(9.12725 0.116824 0)
(9.08575 0.125922 0)
(9.04486 0.133044 0)
(9.00514 0.138702 0)
(8.96707 0.143302 0)
(8.93091 0.147121 0)
(8.89675 0.150351 0)
(8.86459 0.153128 0)
(8.8344 0.155555 0)
(8.8061 0.157702 0)
(8.77967 0.159616 0)
(8.75462 0.16135 0)
(8.73294 0.162755 0)
(8.47101 0.0260886 0)
(8.45236 0.0738031 0)
(8.4197 0.110339 0)
(8.37625 0.136871 0)
(8.32995 0.156518 0)
(8.28452 0.171126 0)
(8.24067 0.18173 0)
(8.19873 0.189287 0)
(8.15916 0.194657 0)
(8.12226 0.198466 0)
(8.08808 0.201141 0)
(8.05654 0.202989 0)
(8.02753 0.204239 0)
(8.0009 0.205063 0)
(7.97648 0.205586 0)
(7.95417 0.205905 0)
(7.93345 0.206079 0)
(7.91635 0.206066 0)
(7.51239 0.0385222 0)
(7.4866 0.1045 0)
(7.44644 0.150222 0)
(7.39953 0.181349 0)
(7.35393 0.203325 0)
(7.31179 0.21845 0)
(7.27312 0.228251 0)
(7.23799 0.234266 0)
(7.20651 0.237708 0)
(7.17856 0.239379 0)
(7.15389 0.239819 0)
(7.13219 0.23942 0)
(7.11317 0.238467 0)
(7.09656 0.237161 0)
(7.08209 0.235647 0)
(7.06955 0.234032 0)
(7.05845 0.232371 0)
(7.05051 0.230688 0)
(6.48931 0.0542241 0)
(6.45655 0.136899 0)
(6.41294 0.186946 0)
(6.37062 0.218548 0)
(6.33486 0.239382 0)
(6.30523 0.252029 0)
(6.281 0.25873 0)
(6.26177 0.261565 0)
(6.24694 0.261923 0)
(6.23585 0.260657 0)
(6.22789 0.258349 0)
(6.22254 0.255411 0)
(6.21935 0.252128 0)
(6.21796 0.248691 0)
(6.21804 0.245228 0)
(6.21936 0.241831 0)
(6.22148 0.238542 0)
(6.22579 0.235419 0)
(5.45712 0.073389 0)
(5.41829 0.166488 0)
(5.37867 0.214113 0)
(5.35275 0.241937 0)
(5.33861 0.258324 0)
(5.33242 0.266079 0)
(5.33265 0.268253 0)
(5.33802 0.267174 0)
(5.34715 0.264159 0)
(5.35895 0.259992 0)
(5.37265 0.255203 0)
(5.38767 0.250148 0)
(5.40357 0.245051 0)
(5.42 0.240051 0)
(5.43671 0.235235 0)
(5.45352 0.230653 0)
(5.47012 0.22633 0)
(5.48763 0.222328 0)
(4.45282 0.0947768 0)
(4.41205 0.187409 0)
(4.39047 0.225931 0)
(4.39658 0.24639 0)
(4.41646 0.255913 0)
(4.44331 0.257814 0)
(4.47522 0.255564 0)
(4.51029 0.251177 0)
(4.54683 0.245633 0)
(4.58379 0.239527 0)
(4.62055 0.233257 0)
(4.6567 0.227066 0)
(4.69194 0.221091 0)
(4.7261 0.215412 0)
(4.75908 0.210065 0)
(4.79085 0.205065 0)
(4.82125 0.200415 0)
(4.85122 0.196179 0)
(3.50293 0.114452 0)
(3.47301 0.192919 0)
(3.48912 0.217645 0)
(3.54118 0.228883 0)
(3.60258 0.231457 0)
(3.66646 0.228823 0)
(3.73174 0.223817 0)
(3.79669 0.217706 0)
(3.85991 0.211096 0)
(3.92077 0.204382 0)
(3.979 0.19782 0)
(4.03449 0.19155 0)
(4.08719 0.185642 0)
(4.13718 0.180124 0)
(4.18453 0.175 0)
(4.22939 0.17026 0)
(4.27176 0.165891 0)
(4.31248 0.161965 0)
(2.62982 0.122983 0)
(2.63207 0.176388 0)
(2.70177 0.187968 0)
(2.80468 0.191083 0)
(2.90732 0.189109 0)
(3.00602 0.18459 0)
(3.10158 0.178916 0)
(3.19301 0.172731 0)
(3.27948 0.166437 0)
(3.36086 0.160289 0)
(3.43728 0.154431 0)
(3.50898 0.148937 0)
(3.57618 0.143833 0)
(3.63919 0.139118 0)
(3.69828 0.134777 0)
(3.75377 0.130789 0)
(3.80581 0.12713 0)
(3.85517 0.123894 0)
(1.85178 0.104826 0)
(1.90638 0.134438 0)
(2.03033 0.141897 0)
(2.17812 0.140513 0)
(2.31585 0.137036 0)
(2.4434 0.13292 0)
(2.56364 0.128101 0)
(2.67646 0.122988 0)
(2.78152 0.117941 0)
(2.87912 0.113114 0)
(2.96978 0.108579 0)
(3.05404 0.104373 0)
(3.13239 0.100499 0)
(3.20533 0.0969463 0)
(3.27331 0.0936924 0)
(3.33678 0.0907146 0)
(3.39605 0.0879775 0)
(3.45187 0.085588 0)
(1.17533 0.04169 0)
(1.28238 0.0661055 0)
(1.43868 0.0889865 0)
(1.61658 0.0891766 0)
(1.78033 0.0862296 0)
(1.92914 0.0833306 0)
(2.0674 0.0798331 0)
(2.19581 0.0761168 0)
(2.31428 0.072527 0)
(2.4234 0.0691482 0)
(2.52402 0.0660057 0)
(2.61694 0.0631151 0)
(2.70287 0.060473 0)
(2.78247 0.0580632 0)
(2.85632 0.0558652 0)
(2.925 0.0538621 0)
(2.9889 0.0519922 0)
(3.04876 0.0503548 0)
(0.469485 0.226529 0)
(0.642364 0.069163 0)
(0.788937 0.0480256 0)
(0.972451 0.0444101 0)
(1.14912 0.0429718 0)
(1.30915 0.0416789 0)
(1.45686 0.039646 0)
(1.59323 0.0373307 0)
(1.71806 0.0351126 0)
(1.83211 0.0330646 0)
(1.93654 0.0311823 0)
(2.03239 0.0294639 0)
(2.12052 0.0279026 0)
(2.20173 0.0264856 0)
(2.27671 0.0251971 0)
(2.34611 0.0240298 0)
(2.41042 0.0229307 0)
(2.46997 0.0219786 0)
(0.0082943 -0.0170693 -2.69126e-20)
(0.0267532 -0.0286508 2.62759e-20)
(0.0460094 -0.02988 0)
(0.062195 -0.0254571 0)
(0.0729762 -0.0182022 0)
(0.0781177 -0.009971 -2.46522e-20)
(0.0775182 -0.00209521 0)
(0.0719687 0.00437869 0)
(0.0626725 0.00901093 0)
(0.0504801 0.0120089 0)
(0.035992 0.0139334 2.40927e-20)
(0.0195407 0.0153635 0)
(0.00119819 0.0167155 0)
(-0.0191257 0.018266 0)
(-0.0416298 0.0201725 0)
(-0.066548 0.0224761 2.28408e-20)
(-0.0940764 0.0251427 0)
(-0.124362 0.0280978 0)
(-0.157485 0.0312468 0)
(-0.193449 0.0344822 0)
(-0.23218 0.0376893 0)
(-0.273527 0.0407541 0)
(-0.31727 0.0435717 0)
(-0.363133 0.046054 1.9435e-20)
(-0.410795 0.0481341 -1.90461e-20)
(-0.459911 0.0497699 1.86735e-20)
(-0.51012 0.0509441 1.83184e-20)
(-0.561072 0.0516634 0)
(-0.61244 0.0519586 0)
(-0.663916 0.0518829 -1.73633e-20)
(-0.7152 0.0515043 -1.70802e-20)
(-0.766088 0.05089 0)
(-0.816442 0.0500826 0)
(-0.866093 0.049109 -1.63242e-20)
(-0.914921 0.0480027 0)
(-0.962826 0.0467948 0)
(-1.00973 0.045513 1.56877e-20)
(-1.05558 0.0441813 0)
(-1.10033 0.0428194 1.53142e-20)
(-1.14396 0.041443 3.0279e-20)
(-1.18645 0.0400645 0)
(-1.22778 0.0386926 0)
(-1.26796 0.0373339 0)
(-1.30699 0.0359923 0)
(-1.34487 0.0346704 0)
(-1.38161 0.0333692 2.84091e-20)
(-1.4172 0.0320888 2.81217e-20)
(-1.45166 0.0308286 2.7838e-20)
(-1.48498 0.0295877 0)
(-1.51718 0.0283648 -2.7278e-20)
(-1.54824 0.0271586 0)
(-1.57817 0.0259676 2.67219e-20)
(-1.60697 0.0247905 2.64434e-20)
(-1.63463 0.0236263 0)
(-1.66116 0.0224737 0)
(-1.68654 0.0213319 0)
(-1.71077 0.0202 2.53115e-20)
(-1.73384 0.0190775 0)
(-1.75575 0.0179636 0)
(-1.77649 0.0168577 0)
(-1.79605 0.0157591 0)
(-1.81443 0.0146669 0)
(-1.83162 0.01358 0)
(-1.8476 0.0124969 0)
(-1.86237 0.0114154 0)
(-1.87593 0.010333 -2.25247e-20)
(-1.88826 0.00924633 0)
(-1.89934 0.00815138 0)
(-1.90916 0.00704324 2.14886e-20)
(-1.91769 0.00591685 2.11295e-20)
(-1.92491 0.00476882 0)
(-1.9308 0.00360266 -2.03905e-20)
(-1.9353 0.00243774 2.00108e-20)
(-1.93837 0.00131365 0)
(-1.93994 0.000279511 -1.92283e-20)
(-1.94021 -0.000621939 0)
(-1.93939 -0.00141466 0)
(-1.93746 -0.00216124 1.79863e-20)
(-1.93445 -0.00288135 0)
(-1.93038 -0.00358358 -1.71169e-20)
(-1.92525 -0.00427116 0)
(-1.91907 -0.00494542 1.62142e-20)
(-1.91185 -0.00560684 1.57504e-20)
(-1.90359 -0.00625553 1.52786e-20)
(-1.89429 -0.00689144 2.95974e-20)
(-1.88397 -0.00751449 -2.86218e-20)
(-1.87263 -0.00812457 0)
(-1.86029 -0.00872158 0)
(-1.84694 -0.00930543 0)
(-1.8326 -0.00987607 -2.45659e-20)
(-1.81727 -0.0104334 -2.35151e-20)
(-1.80097 -0.0109775 2.24503e-20)
(-1.78371 -0.0115082 0)
(-1.7655 -0.0120256 -2.02802e-20)
(-1.74635 -0.0125296 -1.91759e-20)
(-1.72627 -0.0130203 -1.80592e-20)
(-1.70527 -0.0134976 0)
(-1.68337 -0.0139615 0)
(-1.66057 -0.0144121 0)
(-1.6369 -0.0148493 -1.34798e-20)
(-1.61236 -0.0152732 0)
(-1.58697 -0.0156837 0)
(-1.56074 -0.0160808 9.94233e-21)
(-1.53369 -0.0164646 0)
(-1.50583 -0.0168351 0)
(-1.47718 -0.017192 6.33475e-21)
(-1.44776 -0.0175356 0)
(-1.41758 -0.0178656 0)
(-1.38665 -0.018182 -2.67516e-21)
(-1.355 -0.0184848 -1.44705e-21)
(-1.32265 -0.018774 0)
(-1.2896 -0.0190493 -1.01701e-21)
(-1.25589 -0.0193108 0)
(-1.22152 -0.0195583 3.48637e-21)
(-1.18653 -0.0197918 0)
(-1.15093 -0.0200112 5.95459e-21)
(-1.11473 -0.0202164 7.18622e-21)
(-1.07798 -0.0204073 0)
(-1.04067 -0.0205838 0)
(-1.00285 -0.0207458 0)
(-0.964526 -0.0208933 0)
(-0.925728 -0.0210262 0)
(-0.886481 -0.0211445 0)
(-0.846808 -0.0212481 0)
(-0.806734 -0.0213369 1.68677e-20)
(-0.766286 -0.0214111 -1.80435e-20)
(-0.725489 -0.0214705 0)
(-0.68437 -0.0215153 0)
(-0.642956 -0.0215454 0)
(-0.601272 -0.0215608 0)
(-0.559348 -0.0215618 -4.74974e-20)
(-0.517209 -0.0215482 0)
(-0.474884 -0.0215201 5.18688e-20)
(-0.432402 -0.0214776 -5.40069e-20)
(-0.389789 -0.0214208 0)
(-0.347076 -0.0213496 0)
(-0.30429 -0.0212638 0)
(-0.261462 -0.0211631 6.22093e-20)
(-0.218623 -0.0210472 6.41659e-20)
(-0.175805 -0.0209145 0)
(-0.133039 -0.0207613 6.79579e-20)
(-0.0903602 -0.0205854 6.97915e-20)
(-0.0477976 -0.0203839 -7.1583e-20)
(-0.00537919 -0.0201322 0)
(0.0368069 -0.0197931 0)
(0.0787642 -0.0194119 -7.49582e-20)
(0.120479 -0.0190349 0)
(0.161934 -0.0186676 0)
(0.203121 -0.0183071 0)
(0.244034 -0.0179512 0)
(0.284663 -0.0175984 7.7795e-20)
(0.324998 -0.0172481 7.82182e-20)
(0.365027 -0.0169 0)
(0.404741 -0.0165541 7.89362e-20)
(0.444128 -0.0162108 0)
(0.483179 -0.0158703 0)
(0.521885 -0.0155329 7.97188e-20)
(0.560239 -0.0151992 0)
(0.598235 -0.0148694 8.00637e-20)
(0.635867 -0.014544 0)
(0.673131 -0.0142232 0)
(0.710024 -0.0139072 8.03457e-20)
(0.746543 -0.0135962 0)
(0.782686 -0.0132902 8.03924e-20)
(0.818451 -0.0129886 0)
(0.853834 -0.0126911 0)
(0.888829 -0.0123963 0)
(0.923427 -0.0121026 -8.01916e-20)
(0.95761 -0.0118072 0)
(0.991353 -0.0115056 7.99651e-20)
(1.02461 -0.0111913 0)
(1.05731 -0.0108538 0)
(1.08934 -0.0104756 0)
(1.12051 -0.0100277 0)
(1.15051 -0.00945259 0)
(1.17862 -0.00864332 0)
(1.20414 -0.00727839 0)
(1.22243 -0.0045835 -1.58051e-19)
(1.23632 0.00256412 0)
(1.19042 0.0176803 0)
(0.00980574 -0.0566439 7.93491e-20)
(0.0225637 -0.0625038 -7.50326e-20)
(0.0275143 -0.048561 0)
(0.0273329 -0.0316465 4.47261e-20)
(0.0230286 -0.0147429 0)
(0.0151789 0.00107777 2.11662e-20)
(0.00440922 0.0151359 -4.15948e-20)
(-0.0092579 0.0270319 -4.08804e-20)
(-0.0259685 0.0367847 0)
(-0.0457713 0.0448289 -3.93215e-20)
(-0.0686874 0.0517837 -1.93072e-20)
(-0.0947046 0.058237 0)
(-0.123784 0.0646155 0)
(-0.155858 0.0711618 0)
(-0.190827 0.0779679 0)
(-0.228556 0.084999 -1.7397e-20)
(-0.268873 0.0921277 0)
(-0.311555 0.0991746 3.31928e-20)
(-0.356325 0.105941 0)
(-0.402866 0.11223 0)
(-0.450824 0.117865 -3.1036e-20)
(-0.499829 0.122704 0)
(-0.54951 0.126641 2.97105e-20)
(-0.59951 0.129615 -1.45879e-20)
(-0.649499 0.131612 1.42915e-20)
(-0.699185 0.132653 -1.40111e-20)
(-0.748317 0.132796 -1.37467e-20)
(-0.796693 0.132124 0)
(-0.844155 0.130738 0)
(-0.890588 0.128756 1.30464e-20)
(-0.935905 0.126301 -1.27735e-20)
(-0.980045 0.123486 0)
(-1.02297 0.120395 0)
(-1.06465 0.117099 1.22954e-20)
(-1.1051 0.113662 0)
(-1.14431 0.110137 0)
(-1.18233 0.106567 -1.18313e-20)
(-1.21916 0.102988 0)
(-1.25484 0.0994269 1.14845e-20)
(-1.28939 0.0959037 -2.28505e-20)
(-1.32285 0.0924323 0)
(-1.35523 0.0890216 0)
(-1.38655 0.0856766 -4.40881e-20)
(-1.41684 0.082399 -4.36224e-20)
(-1.44611 0.0791884 -4.31657e-20)
(-1.47438 0.0760426 2.12885e-20)
(-1.50165 0.0729584 -2.12049e-20)
(-1.52794 0.0699321 -6.28172e-20)
(-1.55324 0.0669594 4.13968e-20)
(-1.57756 0.0640363 2.05452e-20)
(-1.60091 0.0611587 0)
(-1.62327 0.0583232 -2.01068e-20)
(-1.64466 0.0555262 1.97709e-20)
(-1.66506 0.0527652 0)
(-1.68448 0.0500375 0)
(-1.7029 0.0473412 0)
(-1.72033 0.0446748 -1.89881e-20)
(-1.73676 0.0420371 0)
(-1.75218 0.0394272 3.6965e-20)
(-1.76659 0.0368443 0)
(-1.77998 0.0342882 3.60218e-20)
(-1.79235 0.0317583 0)
(-1.8037 0.0292543 -3.50484e-20)
(-1.81401 0.0267757 0)
(-1.82329 0.024322 3.40414e-20)
(-1.83153 0.0218921 -1.67462e-20)
(-1.83873 0.0194849 0)
(-1.8449 0.0170987 -3.24623e-20)
(-1.85004 0.0147318 -1.59626e-20)
(-1.85416 0.0123821 -1.56808e-20)
(-1.85728 0.0100474 0)
(-1.85944 0.00772778 -1.51173e-20)
(-1.86068 0.0054344 -1.48055e-20)
(-1.86108 0.00320008 0)
(-1.86072 0.00107146 1.41918e-20)
(-1.8595 -0.000930182 -2.77929e-20)
(-1.85727 -0.00282727 0)
(-1.85402 -0.0046581 -1.3228e-20)
(-1.84974 -0.00643829 0)
(-1.84443 -0.00817641 3.77504e-20)
(-1.83808 -0.00987591 0)
(-1.83071 -0.0115381 -3.56972e-20)
(-1.82231 -0.0131634 -1.15172e-20)
(-1.81289 -0.0147517 1.12629e-20)
(-1.80245 -0.0163026 2.18158e-20)
(-1.79101 -0.0178159 -2.10958e-20)
(-1.77856 -0.0192911 0)
(-1.76512 -0.0207281 0)
(-1.75069 -0.0221266 0)
(-1.73528 -0.0234864 5.37729e-20)
(-1.71891 -0.0248075 1.70463e-20)
(-1.70157 -0.0260898 -1.62575e-20)
(-1.68329 -0.0273333 0)
(-1.66406 -0.028538 -1.5001e-20)
(-1.64391 -0.0297041 1.38439e-20)
(-1.62284 -0.0308315 1.30247e-20)
(-1.60087 -0.0319205 0)
(-1.578 -0.0329711 0)
(-1.55426 -0.0339834 0)
(-1.52964 -0.0349576 9.68427e-21)
(-1.50418 -0.0358938 0)
(-1.47787 -0.0367922 -1.63964e-20)
(-1.45073 -0.037653 -2.18122e-20)
(-1.42279 -0.0384763 1.2974e-20)
(-1.39404 -0.0392622 0)
(-1.36452 -0.0400109 4.99598e-21)
(-1.33423 -0.0407225 0)
(-1.30319 -0.0413971 6.04832e-21)
(-1.27142 -0.0420347 -2.39897e-21)
(-1.23893 -0.0426355 -1.52962e-21)
(-1.20575 -0.0431995 0)
(-1.17189 -0.0437269 1.65775e-21)
(-1.13736 -0.0442176 -2.68197e-21)
(-1.1022 -0.0446718 -2.47486e-21)
(-1.06642 -0.0450896 0)
(-1.03004 -0.0454709 -4.22081e-21)
(-0.993073 -0.045816 -1.47364e-20)
(-0.955553 -0.0461248 0)
(-0.917497 -0.0463976 -1.30985e-20)
(-0.878929 -0.0466345 -1.48135e-20)
(-0.839872 -0.0468355 -1.65197e-20)
(-0.800348 -0.047001 0)
(-0.760383 -0.0471312 0)
(-0.720001 -0.0472262 0)
(-0.679227 -0.0472865 1.13434e-20)
(-0.638087 -0.0473123 1.27144e-20)
(-0.596606 -0.0473039 0)
(-0.554812 -0.0472619 2.81272e-20)
(-0.512729 -0.0471866 2.97252e-20)
(-0.470386 -0.0470785 0)
(-0.427809 -0.0469382 3.34063e-20)
(-0.385027 -0.0467661 6.88155e-20)
(-0.342065 -0.0465627 -3.64621e-20)
(-0.298953 -0.0463285 -3.68974e-20)
(-0.255717 -0.0460641 0)
(-0.212388 -0.0457696 0)
(-0.168992 -0.0454453 0)
(-0.125559 -0.0450909 -4.37049e-20)
(-0.0821178 -0.0447052 4.40672e-20)
(-0.0386989 -0.044287 9.18555e-20)
(0.00466792 -0.0438346 -4.76189e-20)
(0.0479514 -0.043347 4.75913e-20)
(0.0911232 -0.0428285 4.93734e-20)
(0.134157 -0.0422823 0)
(0.177026 -0.0416951 0)
(0.219719 -0.0410731 -5.07862e-20)
(0.262215 -0.0404391 0)
(0.304494 -0.0398036 0)
(0.346537 -0.039168 1.06584e-19)
(0.388329 -0.0385317 0)
(0.429857 -0.0378938 5.4114e-20)
(0.471107 -0.0372541 -5.54329e-20)
(0.512068 -0.0366129 0)
(0.552728 -0.0359707 5.57213e-20)
(0.593076 -0.0353284 0)
(0.633102 -0.0346869 0)
(0.672799 -0.0340473 -5.77129e-20)
(0.712158 -0.0334107 1.1554e-19)
(0.751174 -0.032778 -5.8432e-20)
(0.789841 -0.0321504 0)
(0.828157 -0.0315287 0)
(0.866117 -0.0309134 5.87658e-20)
(0.903721 -0.0303051 0)
(0.940965 -0.0297036 5.92778e-20)
(0.977848 -0.0291084 0)
(1.01437 -0.0285182 0)
(1.05052 -0.0279305 0)
(1.08629 -0.0273412 6.05035e-20)
(1.12166 -0.0267439 0)
(1.15661 -0.0261287 -6.07413e-20)
(1.1911 -0.0254801 0)
(1.22506 -0.0247733 0)
(1.25837 -0.0239682 1.21593e-19)
(1.29086 -0.0229966 -1.21741e-19)
(1.32224 -0.0217288 0)
(1.35195 -0.0199228 0)
(1.37937 -0.0169429 0)
(1.40178 -0.0116111 3.68886e-19)
(1.4218 0.000702966 0)
(1.42423 0.0255436 -2.49538e-19)
(0.00379547 -0.0793977 -9.46601e-23)
(0.00339677 -0.0646521 9.65905e-20)
(-0.00391852 -0.0385177 0)
(-0.0141657 -0.0139263 -8.13878e-20)
(-0.0270171 0.00867927 0)
(-0.0421891 0.0292831 0)
(-0.0596018 0.0479434 3.66988e-23)
(-0.079317 0.0647267 3.46927e-20)
(-0.101486 0.0797694 3.3845e-20)
(-0.126262 0.0933536 3.31325e-20)
(-0.153731 0.105869 0)
(-0.183882 0.117705 0)
(-0.216608 0.129152 -3.09296e-20)
(-0.251716 0.140352 -6.04485e-20)
(-0.288951 0.151306 5.90551e-20)
(-0.328011 0.1619 0)
(-0.368565 0.171948 5.63362e-20)
(-0.410265 0.181234 -2.75366e-20)
(-0.452765 0.189541 0)
(-0.495731 0.196683 5.24901e-20)
(-0.538856 0.202516 2.56545e-20)
(-0.58187 0.206953 -5.01257e-20)
(-0.624544 0.209961 -2.45088e-20)
(-0.666698 0.211564 0)
(-0.708194 0.211833 4.69296e-20)
(-0.74894 0.210877 4.59613e-20)
(-0.788874 0.208832 0)
(-0.827967 0.205851 4.41677e-20)
(-0.866209 0.202093 0)
(-0.903602 0.197714 4.25541e-20)
(-0.940155 0.192861 2.0909e-20)
(-0.975878 0.187665 0)
(-1.01078 0.182231 0)
(-1.04488 0.17665 0)
(-1.07819 0.170993 0)
(-1.11072 0.165319 0)
(-1.14249 0.159672 0)
(-1.1735 0.154085 3.75108e-20)
(-1.20376 0.148581 -5.55283e-20)
(-1.23329 0.143175 0)
(-1.26207 0.137876 0)
(-1.29011 0.132687 0)
(-1.31741 0.127607 7.74956e-23)
(-1.34395 0.122635 3.47556e-20)
(-1.36975 0.117764 6.85766e-20)
(-1.39479 0.112988 -6.77382e-20)
(-1.41905 0.108301 -3.34158e-20)
(-1.44254 0.103695 3.30914e-20)
(-1.46525 0.099165 -8.12243e-23)
(-1.48715 0.0947034 3.22106e-20)
(-1.50824 0.0903049 0)
(-1.52851 0.0859642 3.14235e-20)
(-1.54795 0.0816771 -7.4018e-23)
(-1.56654 0.0774399 0)
(-1.58428 0.0732498 0)
(-1.60114 0.0691043 -2.98585e-20)
(-1.61712 0.0650019 0)
(-1.63221 0.0609414 0)
(-1.6464 0.0569223 2.86182e-20)
(-1.65967 0.0529443 5.6541e-20)
(-1.67202 0.0490075 -2.79105e-20)
(-1.68343 0.0451124 0)
(-1.6939 0.0412596 2.708e-20)
(-1.70342 0.0374498 0)
(-1.71199 0.0336841 2.61807e-20)
(-1.7196 0.0299637 2.57984e-20)
(-1.72625 0.0262901 -5.06923e-20)
(-1.73195 0.0226656 -2.48989e-20)
(-1.73669 0.0190935 0)
(-1.74048 0.0155788 4.80301e-20)
(-1.74333 0.0121288 0)
(-1.74525 0.00875386 6.9283e-20)
(-1.74625 0.00546687 4.52622e-20)
(-1.74633 0.00227946 4.43032e-20)
(-1.74548 -0.000807784 -4.33251e-20)
(-1.74366 -0.00381775 6.34702e-20)
(-1.74084 -0.00676821 0)
(-1.73703 -0.00965921 0)
(-1.73222 -0.0124914 -3.92986e-20)
(-1.72642 -0.0152649 -5.73307e-20)
(-1.71961 -0.0179797 0)
(-1.7118 -0.0206352 1.80011e-20)
(-1.703 -0.0232309 0)
(-1.69321 -0.025766 -5.08776e-20)
(-1.68244 -0.0282398 1.72839e-22)
(-1.67069 -0.0306517 -1.83592e-22)
(-1.65796 -0.0330011 3.0624e-20)
(-1.64427 -0.0352876 0)
(-1.62962 -0.0375106 -2.83321e-20)
(-1.61402 -0.03967 2.25016e-22)
(-1.59747 -0.0417656 0)
(-1.58 -0.0437974 0)
(-1.5616 -0.0457652 0)
(-1.54229 -0.0476693 2.21493e-20)
(-1.52207 -0.0495097 0)
(-1.50096 -0.0512866 0)
(-1.47898 -0.0530002 0)
(-1.45612 -0.0546506 0)
(-1.4324 -0.0562382 0)
(-1.40784 -0.0577631 1.50138e-20)
(-1.38245 -0.0592256 0)
(-1.35624 -0.0606259 1.21638e-20)
(-1.32922 -0.0619645 1.08889e-20)
(-1.30141 -0.0632414 -9.60987e-21)
(-1.27283 -0.0644572 0)
(-1.24348 -0.0656119 -7.04244e-21)
(-1.21339 -0.0667058 0)
(-1.18257 -0.0677391 -4.46668e-21)
(-1.15103 -0.068712 3.17734e-21)
(-1.1188 -0.0696247 6.4202e-21)
(-1.08588 -0.0704774 0)
(-1.05231 -0.0712702 -1.29022e-21)
(-1.01809 -0.0720034 -1.19069e-21)
(-0.983252 -0.0726772 0)
(-0.947806 -0.0732918 -8.27412e-21)
(-0.911775 -0.0738472 -1.08182e-20)
(-0.87518 -0.0743439 2.04349e-20)
(-0.838042 -0.0747819 0)
(-0.800382 -0.0751617 9.6051e-21)
(-0.762224 -0.0754835 1.08568e-20)
(-0.723589 -0.0757477 3.54761e-20)
(-0.6845 -0.0759547 0)
(-0.644982 -0.0761049 0)
(-0.605059 -0.0761989 0)
(-0.564755 -0.0762372 1.61548e-20)
(-0.524095 -0.0762205 0)
(-0.483104 -0.0761494 0)
(-0.441809 -0.0760248 -2.05385e-20)
(-0.400235 -0.0758474 -2.16975e-20)
(-0.358408 -0.0756181 0)
(-0.316356 -0.0753378 0)
(-0.274104 -0.0750075 -5.01832e-20)
(-0.231681 -0.0746281 0)
(-0.189112 -0.0742006 5.45599e-20)
(-0.146425 -0.0737257 5.58987e-20)
(-0.103648 -0.0732041 0)
(-0.0608082 -0.0726362 0)
(-0.0179329 -0.0720225 -6.21234e-20)
(0.0249498 -0.0713634 -7.70691e-22)
(0.067812 -0.0706583 -7.57467e-22)
(0.110626 -0.069907 0)
(0.153365 -0.0691108 -1.37469e-19)
(0.196004 -0.0682742 0)
(0.238523 -0.0674052 0)
(0.280913 -0.0665088 0)
(0.323157 -0.0655865 7.4388e-20)
(0.365232 -0.0646458 0)
(0.407113 -0.0636938 -1.52336e-19)
(0.448777 -0.0627336 -7.79651e-20)
(0.490205 -0.0617663 0)
(0.531381 -0.0607924 -8.01295e-20)
(0.572291 -0.0598127 0)
(0.61292 -0.0588283 0)
(0.653258 -0.0578404 -2.48044e-19)
(0.693293 -0.0568506 1.66803e-19)
(0.733016 -0.0558607 0)
(0.772418 -0.0548724 1.70193e-19)
(0.811493 -0.0538875 -8.63908e-20)
(0.850234 -0.0529078 0)
(0.888637 -0.0519349 0)
(0.926699 -0.0509702 0)
(0.964416 -0.0500148 -2.66481e-19)
(1.00179 -0.0490693 0)
(1.03881 -0.0481337 -9.02883e-20)
(1.07548 -0.0472073 0)
(1.11181 -0.0462878 0)
(1.14777 -0.0453714 0)
(1.18337 -0.0444517 0)
(1.21859 -0.0435184 0)
(1.2534 -0.0425559 0)
(1.28777 -0.0415396 -1.8605e-19)
(1.32163 -0.0404312 0)
(1.35488 -0.0391686 -9.40303e-20)
(1.38735 -0.0376482 2.82404e-19)
(1.41882 -0.0356836 0)
(1.44882 -0.0329346 0)
(1.47692 -0.028659 -1.90306e-19)
(1.50152 -0.0215425 -1.92019e-19)
(1.52467 -0.00786389 1.93429e-19)
(1.53926 0.0183048 1.96112e-19)
(-0.00456353 -0.0716242 -1.54703e-19)
(-0.0157729 -0.0422508 -1.39097e-19)
(-0.0311584 -0.0106515 -8.19431e-20)
(-0.0480924 0.017905 -3.71578e-20)
(-0.0667123 0.0440946 0)
(-0.0868637 0.0683142 6.5994e-20)
(-0.108579 0.0907458 -3.17346e-20)
(-0.13199 0.1115 0)
(-0.157229 0.130704 -3.00209e-20)
(-0.184389 0.148542 0)
(-0.213484 0.165229 5.71066e-20)
(-0.244436 0.180959 0)
(-0.277079 0.195849 2.72177e-20)
(-0.311175 0.209916 5.3115e-20)
(-0.346442 0.223086 -5.1818e-20)
(-0.382577 0.235212 0)
(-0.419277 0.246119 -4.93041e-20)
(-0.456255 0.255629 0)
(-0.493257 0.263594 0)
(-0.530069 0.26991 -4.57778e-20)
(-0.56652 0.274529 0)
(-0.602487 0.27746 -6.47247e-23)
(-0.637888 0.278763 0)
(-0.672678 0.278545 0)
(-0.706842 0.276944 7.24229e-23)
(-0.740385 0.274121 -3.98152e-20)
(-0.77333 0.270248 -3.90413e-20)
(-0.805703 0.2655 -3.81719e-20)
(-0.837532 0.260044 0)
(-0.868845 0.254037 -7.34322e-20)
(-0.89966 0.247618 0)
(-0.929991 0.240907 -3.53924e-20)
(-0.959847 0.234007 0)
(-0.98923 0.226998 0)
(-1.01814 0.219947 3.36006e-20)
(-1.04657 0.212905 0)
(-1.07452 0.20591 -3.25377e-20)
(-1.10197 0.198991 3.95184e-25)
(-1.12891 0.192165 6.31275e-20)
(-1.15532 0.185445 -6.22018e-20)
(-1.1812 0.178837 0)
(-1.20652 0.17234 0)
(-1.23126 0.165954 -2.97902e-20)
(-1.25542 0.159674 0)
(-1.27897 0.153493 -2.90342e-20)
(-1.30188 0.147407 2.86498e-20)
(-1.32416 0.141407 2.82726e-20)
(-1.34577 0.135486 0)
(-1.36669 0.129637 -2.75364e-20)
(-1.38692 0.123856 -2.71754e-20)
(-1.40643 0.118135 5.35806e-20)
(-1.42521 0.112471 -2.64635e-20)
(-1.44323 0.106859 -2.61111e-20)
(-1.46049 0.101297 0)
(-1.47696 0.0957824 0)
(-1.49263 0.0903137 2.50602e-20)
(-1.50748 0.0848902 0)
(-1.5215 0.0795118 0)