/*--------------------------------*- C++ -*----------------------------------*\
| =========                 |                                                 |
| \\      /  F ield         | OpenFOAM: The Open Source CFD Toolbox           |
|  \\    /   O peration     | Version:  2412                                  |
|   \\  /    A nd           | Website:  www.openfoam.com                      |
|    \\/     M anipulation  |                                                 |
\*---------------------------------------------------------------------------*/
FoamFile
{
    version     2.0;
    format      ascii;
    arch        "LSB;label=32;scalar=64";
    class       volScalarField;
    location    "7.25";
    object      p;
}
// * * * * * * * * * * * * * * * * * * * * * * * * * * * * * * * * * * * * * //

dimensions      [0 2 -2 0 0 0 0];

internalField   nonuniform List<scalar> 
2200
(
0.143215
0.143354
0.144302
0.14807
0.158014
0.179388
0.219535
0.28868
0.398625
0.559553
0.741439
0.893286
0.997079
1.06329
1.10208
1.12306
1.13365
1.13821
1.13999
1.14028
0.137511
0.137786
0.139278
0.1437
0.154008
0.176016
0.217232
0.28641
0.396637
0.559977
0.742851
0.895308
0.999139
1.06456
1.10237
1.12256
1.13226
1.13608
1.13719
1.1373
0.129313
0.129478
0.131559
0.137232
0.149474
0.173197
0.21493
0.284968
0.395959
0.56222
0.747389
0.901248
1.00591
1.07038
1.10683
1.12545
1.13396
1.13728
1.13812
1.13836
0.117752
0.11766
0.119969
0.126443
0.140087
0.165682
0.210285
0.284783
0.398495
0.566173
0.754286
0.911271
1.01647
1.07955
1.11499
1.13238
1.14068
1.14441
1.14563
1.14604
0.10332
0.103239
0.105051
0.110527
0.124173
0.151789
0.199958
0.278352
0.39735
0.572534
0.765125
0.924009
1.03019
1.09427
1.12901
1.14605
1.15419
1.15838
1.16003
1.1604
0.0837664
0.0841331
0.0852175
0.088952
0.10219
0.131225
0.18296
0.264837
0.390206
0.575007
0.775646
0.939474
1.04766
1.11281
1.14684
1.16413
1.17336
1.17849
1.18097
1.1814
0.0509099
0.0509869
0.0516135
0.0551787
0.0673792
0.0963806
0.150878
0.239903
0.376962
0.574585
0.786
0.956946
1.06717
1.13223
1.16917
1.1905
1.20219
1.20845
1.21163
1.21234
0.0110447
0.0102827
0.0112621
0.0168359
0.0294107
0.0553267
0.108195
0.204002
0.354909
0.569154
0.79452
0.974875
1.0932
1.16559
1.20824
1.23343
1.24695
1.25279
1.25605
1.25723
-0.0230531
-0.0241348
-0.0223175
-0.0146388
-0.00219552
0.0206906
0.0729465
0.169775
0.326034
0.557437
0.804165
1.00217
1.13555
1.21991
1.27025
1.30005
1.31469
1.31975
1.32321
1.32519
-0.0554729
-0.0565614
-0.0538114
-0.0446684
-0.0305731
-0.00523705
0.0477203
0.144201
0.302285
0.549128
0.820767
1.04488
1.20053
1.3014
1.36302
1.39721
1.41348
1.41994
1.42064
1.42372
-0.0945518
-0.0955164
-0.092827
-0.0839661
-0.066672
-0.0330457
0.0264484
0.12592
0.291625
0.556268
0.857622
1.11444
1.29594
1.41442
1.48372
1.51937
1.53628
1.54482
1.545
1.54789
-0.15386
-0.154402
-0.151536
-0.143443
-0.12129
-0.0746872
-0.00246062
0.110814
0.297577
0.586798
0.922002
1.21524
1.42066
1.55076
1.62181
1.65353
1.67075
1.6824
1.68299
1.68505
-0.236107
-0.236856
-0.23496
-0.228082
-0.201865
-0.145257
-0.0544549
0.0901004
0.314369
0.639784
1.0166
1.34815
1.56722
1.69686
1.76566
1.79775
1.81664
1.8291
1.83283
1.83505
-0.345311
-0.345763
-0.342369
-0.335506
-0.307283
-0.243796
-0.133979
0.0481278
0.324007
0.707701
1.13582
1.4953
1.72173
1.85163
1.92204
1.96015
1.98205
1.9958
2.00055
2.00259
-0.477524
-0.478645
-0.475936
-0.466984
-0.436516
-0.371227
-0.245341
-0.025648
0.308078
0.767526
1.25811
1.64637
1.88821
2.0222
2.10202
2.1513
2.17443
2.1879
2.19349
2.19572
-0.637182
-0.636986
-0.632602
-0.620922
-0.588364
-0.522094
-0.385969
-0.137311
0.254041
0.800113
1.36577
1.79473
2.06197
2.21687
2.3121
2.37119
2.39818
2.41241
2.42011
2.42254
-0.830119
-0.831291
-0.828497
-0.813353
-0.77283
-0.697901
-0.547448
-0.275338
0.165211
0.797825
1.45099
1.944
2.26067
2.45138
2.56418
2.6316
2.66302
2.67931
2.68871
2.6914
-1.0505
-1.05132
-1.04987
-1.0358
-0.993477
-0.90588
-0.732271
-0.432742
0.0586627
0.774304
1.53269
2.11922
2.50314
2.74019
2.87195
2.94182
2.97728
2.99567
3.00558
3.00856
-1.30812
-1.30804
-1.30543
-1.28946
-1.23845
-1.13626
-0.936119
-0.597976
-0.0354054
0.772295
1.64785
2.34768
2.80689
3.08569
3.23447
3.30608
3.3469
3.3679
3.37921
3.38253
-1.61696
-1.61795
-1.61538
-1.5982
-1.54059
-1.41025
-1.17051
-0.76268
-0.092667
0.834717
1.84563
2.66364
3.1846
3.49399
3.65594
3.73262
3.77642
3.79795
3.80872
3.81132
-1.99766
-1.99643
-1.99056
-1.97127
-1.90502
-1.74691
-1.45006
-0.942709
-0.122141
0.973564
2.13926
3.05717
3.62595
3.95627
4.126
4.2088
4.25546
4.27795
4.28965
4.29241
-2.47711
-2.47689
-2.46846
-2.43818
-2.35702
-2.1618
-1.78876
-1.14944
-0.141038
1.1604
2.496
3.51159
4.12255
4.45379
4.63506
4.72831
4.77669
4.80133
4.81401
4.81499
-3.10327
-3.09968
-3.08578
-3.04599
-2.93169
-2.6772
-2.20566
-1.403
-0.181255
1.35328
2.88387
3.99438
4.64304
4.98658
5.18315
5.28945
5.34158
5.36989
5.38363
5.38539
-3.89884
-3.89365
-3.87125
-3.80469
-3.63799
-3.3016
-2.70042
-1.70809
-0.254329
1.52856
3.26492
4.48005
5.18633
5.57746
5.78821
5.89807
5.95345
5.9845
6.00171
6.00394
-4.96528
-4.94425
-4.88714
-4.75345
-4.4852
-4.01462
-3.23582
-2.02983
-0.337467
1.68834
3.64268
5.0088
5.81504
6.24577
6.44971
6.55529
6.60415
6.63631
6.65992
6.66082
-6.3487
-6.29362
-6.16007
-5.91073
-5.47955
-4.79862
-3.78515
-2.31078
-0.352873
1.92984
4.13404
5.67588
6.55218
6.99075
7.1702
7.26575
7.30558
7.32226
7.33124
7.33513
-8.09873
-7.92065
-7.59462
-7.15599
-6.52362
-5.60287
-4.30298
-2.48476
-0.187856
2.43007
4.92179
6.62502
7.5342
7.97555
8.16682
8.25157
8.28489
8.29769
8.2931
8.29363
-10.0601
-9.59784
-9.05047
-8.42926
-7.57448
-6.38636
-4.76075
-2.56899
0.117466
3.13155
5.92448
7.77077
8.76145
9.24923
9.48488
9.60164
9.66597
9.71017
9.73158
9.73145
-11.8526
-11.1964
-10.4796
-9.67453
-8.5934
-7.12946
-5.18023
-2.64381
0.398444
3.76013
6.84671
8.868
9.94757
10.5154
10.8119
10.9749
11.0706
11.1217
11.1542
11.1568
-13.252
-12.5269
-11.748
-10.8089
-9.52739
-7.81589
-5.58124
-2.72063
0.645561
4.31062
7.69716
9.92471
11.0737
11.7317
12.0762
12.2616
12.3761
12.4544
12.5086
12.5133
-14.4316
-13.6051
-12.7906
-11.7503
-10.3252
-8.42512
-5.93188
-2.74058
0.937839
4.88899
8.54512
10.9325
12.1921
12.899
13.2698
13.4886
13.6271
13.7091
13.7637
13.7677
-15.365
-14.4596
-13.6289
-12.509
-10.9791
-8.92326
-6.18678
-2.68804
1.2845
5.51177
9.39106
11.9037
13.2543
13.9894
14.3909
14.6234
14.7688
14.8651
14.9342
14.9464
-16.0889
-15.1194
-14.307
-13.1231
-11.492
-9.28793
-6.35001
-2.60588
1.61704
6.10216
10.1459
12.7673
14.1922
14.9542
15.3708
15.6283
15.8064
15.9339
16.0259
16.0428
-16.6082
-15.6334
-14.8304
-13.6001
-11.8738
-9.55206
-6.45533
-2.53473
1.87825
6.55989
10.7617
13.4916
14.9973
15.7942
16.2469
16.5361
16.7277
16.8652
16.9744
16.9891
-16.9823
-16.0029
-15.1996
-13.9276
-12.1519
-9.74474
-6.52679
-2.48979
2.05215
6.8831
11.2441
14.0893
15.6703
16.5129
16.9965
17.3131
17.5396
17.6959
17.8098
17.8288
-17.2763
-16.2823
-15.4462
-14.1268
-12.3219
-9.86178
-6.56628
-2.45753
2.17187
7.11433
11.6166
14.5716
16.2199
17.1103
17.6438
17.9895
18.2336
18.4178
18.5563
18.5736
-17.4878
-16.4924
-15.6077
-14.2223
-12.3851
-9.8981
-6.56828
-2.42078
2.2628
7.29045
11.8956
14.945
16.663
17.6135
18.1965
18.5871
18.8586
19.0466
19.2051
19.2189
-17.6512
-16.6484
-15.6929
-14.2278
-12.3601
-9.8599
-6.53028
-2.37452
2.33271
7.41993
12.0932
15.2207
17.0137
18.0358
18.6743
19.1067
19.4108
19.6181
19.7933
19.8065
-17.7932
-16.7747
-15.7304
-14.1984
-12.2957
-9.77479
-6.45961
-2.32098
2.38575
7.50093
12.2243
15.4221
17.2907
18.3918
19.0785
19.5535
19.9086
20.1311
20.3243
20.3392
-17.8869
-16.8646
-15.75
-14.1741
-12.2354
-9.68718
-6.37741
-2.26487
2.42633
7.54348
12.3092
15.573
17.5017
18.6751
19.4261
19.9373
20.3474
20.6158
20.8097
20.8191
-17.9701
-16.9271
-15.763
-14.1678
-12.1989
-9.62499
-6.30307
-2.20765
2.46624
7.56317
12.3625
15.6798
17.6546
18.8852
19.7128
20.2782
20.7494
21.0452
21.2447
21.2478
-18.0412
-16.9807
-15.7857
-14.1848
-12.1942
-9.59816
-6.24618
-2.15229
2.50694
7.58473
12.388
15.7371
17.7458
19.0286
19.941
20.581
21.0804
21.4234
21.6528
21.6436
-18.1158
-17.049
-15.8303
-14.227
-12.219
-9.60321
-6.21135
-2.10482
2.54729
7.60842
12.38
15.7382
17.7653
19.1182
20.1152
20.8433
21.3962
21.7703
22.0173
22.0064
-18.1935
-17.1229
-15.8998
-14.2968
-12.2747
-9.63851
-6.20565
-2.07853
2.57202
7.62161
12.3189
15.6735
17.7225
19.1539
20.2367
21.0599
21.6946
22.1111
22.3661
22.351
-18.3053
-17.2288
-15.9954
-14.39
-12.3597
-9.70518
-6.24029
-2.09107
2.55975
7.58577
12.2107
15.5432
17.6238
19.1348
20.3071
21.2405
21.9811
22.4551
22.667
22.6639
-18.4426
-17.3547
-16.1194
-14.5118
-12.4765
-9.81217
-6.32761
-2.16219
2.49007
7.4872
12.0554
15.3579
17.4931
19.0591
20.3155
21.3592
22.2285
22.8288
23.0593
22.9122
-18.6077
-17.5056
-16.2677
-14.6532
-12.6202
-9.9539
-6.4625
-2.29347
2.35733
7.32771
11.8581
15.1384
17.3096
18.9197
20.2446
21.3888
22.4013
23.2045
23.5432
23.4602
-18.8011
-17.6727
-16.431
-14.805
-12.7824
-10.1172
-6.62996
-2.47221
2.16779
7.1126
11.6179
14.8777
17.0558
18.6932
20.0574
21.2602
22.3465
23.2662
23.5784
23.4349
-18.9977
-17.8548
-16.6095
-14.9668
-12.9529
-10.2891
-6.81222
-2.67615
1.94541
6.86532
11.3448
14.5728
16.7318
18.3655
19.7241
20.9192
21.9871
22.6971
22.8837
22.8465
-19.2004
-18.0461
-16.8162
-15.1519
-13.1312
-10.4709
-7.00319
-2.89408
1.70529
6.60054
11.0441
14.2209
16.3351
17.9297
19.2359
20.3443
21.2745
21.7035
21.8034
21.8201
-19.401
-18.2538
-17.0251
-15.3459
-13.3273
-10.6626
-7.19999
-3.11863
1.45817
6.32656
10.7192
13.822
15.8629
17.381
18.5822
19.5301
20.2474
20.619
20.6841
20.787
-19.5844
-18.4619
-17.2194
-15.5495
-13.5418
-10.8561
-7.40084
-3.34519
1.2074
6.04182
10.3671
13.376
15.3181
16.7191
17.7789
18.573
19.1292
19.383
19.3525
19.5708
-19.7513
-18.6609
-17.4267
-15.7701
-13.7454
-11.0376
-7.59216
-3.56201
0.959458
5.74571
9.98468
12.8845
14.7068
15.9569
16.855
17.4888
17.8289
17.9523
17.9509
18.2062
-19.9224
-18.8224
-17.6142
-15.9603
-13.9067
-11.1912
-7.7523
-3.75331
0.725479
5.44454
9.57694
12.3569
14.0462
15.124
15.8397
16.3049
16.4816
16.3745
16.1825
16.3299
-20.0774
-18.9427
-17.7249
-16.0679
-14.0183
-11.2987
-7.87384
-3.91457
0.509581
5.14304
9.15277
11.806
13.3594
14.2596
14.7732
15.0478
15.0401
14.444
13.478
13.5012
-20.2024
-19.0356
-17.7948
-16.1325
-14.083
-11.3587
-7.96471
-4.05016
0.309308
4.84325
8.72144
11.2442
12.6714
13.4076
13.7
13.7113
13.5017
12.4424
10.2588
8.3265
-20.3134
-19.1241
-17.8625
-16.1777
-14.1126
-11.3946
-8.03429
-4.16719
0.122669
4.5505
8.29614
10.6928
12.0116
12.6144
12.6974
12.3992
11.8755
10.867
7.23872
-2.35539
-20.4338
-19.1999
-17.9016
-16.197
-14.1252
-11.4189
-8.08827
-4.271
-0.0526743
4.2649
7.87601
10.1516
11.3776
11.8822
11.812
11.2946
10.5823
9.91391
9.33564
5.62492
-20.5362
-19.2826
-17.9413
-16.2106
-14.1364
-11.4376
-8.14165
-4.37604
-0.232469
3.97247
7.4509
9.61707
10.769
11.2247
11.1378
10.6958
10.1514
10.122
10.9819
10.1016
-20.6399
-19.3605
-17.9937
-16.2458
-14.1573
-11.4634
-8.20591
-4.49063
-0.423899
3.67226
7.02863
9.10787
10.2168
10.684
10.7296
10.5518
10.3066
10.2011
10.6538
10.1894
-20.7384
-19.446
-18.0567
-16.2837
-14.1834
-11.501
-8.28079
-4.61595
-0.627214
3.36901
6.6191
8.64028
9.74842
10.2945
10.5233
10.5814
10.3889
10.1545
10.2531
10.1975
-20.8179
-19.5151
-18.1161
-16.3254
-14.2152
-11.542
-8.35989
-4.74854
-0.836761
3.07009
6.23287
8.22818
9.37873
10.0304
10.3871
10.5624
10.4637
10.2466
10.354
10.3933
-20.8804
-19.5744
-18.1697
-16.3564
-14.2405
-11.5804
-8.43933
-4.88288
-1.04598
2.78202
5.87806
7.8801
9.09918
9.84427
10.281
10.5247
10.5808
10.4843
10.6003
10.6344
-20.9352
-19.6063
-18.1994
-16.3719
-14.2576
-11.612
-8.51267
-5.01364
-1.24901
2.50925
5.55937
7.59548
8.8926
9.7191
10.2304
10.5628
10.7582
10.7819
10.8712
10.8807
-20.9566
-19.6127
-18.2015
-16.3478
-14.2498
-11.6273
-8.57551
-5.1355
-1.44271
2.25327
5.27932
7.36833
8.74731
9.65853
10.2482
10.6725
10.9897
11.0867
11.1596
11.1658
-20.9141
-19.571
-18.1591
-16.2851
-14.2169
-11.6194
-8.61814
-5.24235
-1.62468
2.01472
5.03862
7.19188
8.6543
9.65362
10.3238
10.8192
11.2232
11.3718
11.4417
11.4577
-20.7812
-19.4599
-18.0524
-16.1624
-14.1471
-11.5771
-8.63486
-5.33253
-1.79263
1.79052
4.83544
7.05683
8.6041
9.69485
10.4467
11.0053
11.4534
11.6861
11.7771
11.8002
-20.546
-19.2707
-17.8631
-15.9755
-14.0351
-11.4942
-8.6206
-5.40154
-1.94073
1.59204
4.65544
6.94599
8.58361
9.77182
10.6172
11.2478
11.7553
12.0975
12.2449
12.2803
-20.1464
-18.9664
-17.5469
-15.7522
-13.8648
-11.358
-8.57299
-5.44872
-2.06547
1.42033
4.49177
6.84495
8.57431
9.86909
10.8266
11.5482
12.1323
12.5759
12.7834
12.8242
-19.5714
-18.4922
-17.1549
-15.484
-13.5739
-11.183
-8.4997
-5.47793
-2.16273
1.2679
4.33485
6.73943
8.55886
9.96602
11.029
11.8343
12.4698
12.9514
13.1962
13.2461
-18.7877
-17.8759
-16.6353
-15.0707
-13.2201
-10.9771
-8.40127
-5.47858
-2.23955
1.11336
4.16748
6.60904
8.49393
9.98302
11.1136
11.9477
12.5852
13.0651
13.3426
13.4126
-17.8169
-17.0968
-16.0019
-14.569
-12.8383
-10.731
-8.27198
-5.45046
-2.31905
0.934642
3.95722
6.40437
8.30434
9.81041
10.9454
11.7654
12.3921
12.881
13.1904
13.2794
-16.6325
-16.2415
-15.3657
-14.0738
-12.4656
-10.4738
-8.1239
-5.41249
-2.41941
0.715784
3.66539
6.06504
7.91347
9.36123
10.4573
11.2677
11.8972
12.3949
12.7207
12.8294
-15.7909
-15.6609
-14.8837
-13.6673
-12.1397
-10.2342
-7.98475
-5.3952
-2.54918
0.443631
3.26104
5.53842
7.26873
8.62577
9.68727
10.4971
11.1245
11.6115
11.9441
12.0714
-15.657
-15.6229
-14.7548
-13.4592
-11.9089
-10.0407
-7.8695
-5.39005
-2.70373
0.105832
2.72896
4.83301
6.44177
7.72314
8.73921
9.51729
10.1156
10.5785
10.9125
11.0697
-15.6477
-15.5372
-14.7845
-13.4546
-11.818
-9.90191
-7.75878
-5.39001
-2.88293
-0.287372
2.12147
4.06066
5.55897
6.74524
7.65321
8.33233
8.85077
9.25244
9.54876
9.71016
-15.3712
-15.262
-14.7296
-13.3306
-11.6002
-9.65882
-7.57152
-5.35261
-3.03026
-0.633183
1.60615
3.41822
4.78984
5.84764
6.62941
7.18524
7.58967
7.88707
8.09008
8.19603
-14.7822
-14.8972
-14.4064
-12.7743
-11.008
-9.15437
-7.2141
-5.18696
-3.06576
-0.867475
1.198
2.85243
4.06739
4.98223
5.65796
6.11688
6.42913
6.63972
6.76405
6.81973
-13.3714
-13.5882
-13.0732
-11.5928
-10.033
-8.38155
-6.65673
-4.85989
-2.97664
-1.01602
0.816618
2.24719
3.26399
4.0176
4.57821
4.94396
5.17819
5.32719
5.41199
5.44698
-10.4197
-10.5297
-10.2294
-9.42639
-8.40496
-7.17145
-5.80432
-4.32817
-2.74823
-1.07973
0.472891
1.66767
2.50181
3.11323
3.5669
3.8553
4.03633
4.14824
4.21015
4.23766
-6.69338
-6.75645
-6.69281
-6.47305
-6.09743
-5.4671
-4.62443
-3.57744
-2.36724
-1.04564
0.203475
1.18175
1.86297
2.35464
2.71415
2.93822
3.07912
3.16794
3.21985
3.24503
-3.6711
-3.70968
-3.73879
-3.81241
-3.82061
-3.65541
-3.28816
-2.69628
-1.86536
-0.906863
0.0475804
0.828657
1.37463
1.75928
2.0409
2.21891
2.3357
2.41586
2.46769
2.49781
-1.71744
-1.74487
-1.81255
-1.93481
-2.06222
-2.12
-2.05105
-1.79377
-1.32936
-0.677827
0.0127895
0.610649
1.03449
1.32744
1.55211
1.70133
1.80481
1.87882
1.92399
1.94418
-0.538345
-0.577779
-0.662611
-0.777223
-0.900905
-0.997518
-1.05394
-1.00824
-0.808301
-0.400276
0.0661897
0.503181
0.825157
1.04775
1.23041
1.35507
1.44246
1.50526
1.53889
1.55276
0.0470024
0.0114771
-0.0747774
-0.180459
-0.27273
-0.332628
-0.392
-0.415898
-0.350551
-0.142864
0.160892
0.471882
0.717582
0.888297
1.03683
1.13554
1.19976
1.24929
1.27087
1.27856
0.286843
0.257772
0.174535
0.0663123
-0.0139817
-0.0513356
-0.0794294
-0.079984
-0.0422795
0.0691403
0.262814
0.484138
0.674416
0.802205
0.922104
0.995955
1.03771
1.06706
1.08054
1.0848
0.340578
0.321324
0.250152
0.147491
0.065325
0.0203693
0.00501555
0.0406487
0.101376
0.197609
0.340128
0.50595
0.656997
0.74293
0.838815
0.890312
0.909771
0.924985
0.932052
0.933743
0.312348
0.300346
0.250021
0.174443
0.103163
0.0467205
0.0170158
0.0533084
0.12783
0.238868
0.371737
0.50408
0.633977
0.679138
0.750985
0.784828
0.787959
0.793159
0.794276
0.793909
0.269108
0.261271
0.230847
0.18659
0.140446
0.0867247
0.0423998
0.0517221
0.11136
0.225005
0.357145
0.463205
0.58232
0.592433
0.638498
0.658465
0.659578
0.661516
0.659104
0.658487
0.241861
0.237467
0.219244
0.195008
0.171298
0.132847
0.0941922
0.0840258
0.111491
0.198894
0.311613
0.388093
0.492085
0.482134
0.50926
0.519638
0.525107
0.530785
0.528375
0.528871
0.230294
0.228621
0.218519
0.205773
0.198887
0.179123
0.15585
0.143856
0.14384
0.186373
0.258165
0.297189
0.372093
0.36757
0.39138
0.395661
0.400999
0.407424
0.406657
0.408304
0.226612
0.226255
0.222375
0.218752
0.224119
0.218909
0.210935
0.204473
0.18258
0.185083
0.216345
0.228612
0.269204
0.273291
0.302683
0.303506
0.305937
0.308028
0.306214
0.306996
0.231958
0.231329
0.228833
0.227234
0.234891
0.233221
0.233857
0.234048
0.208174
0.193418
0.198942
0.198622
0.218762
0.224747
0.241478
0.243412
0.241934
0.239426
0.233608
0.2329
0.242109
0.240582
0.235044
0.22742
0.225088
0.215436
0.213352
0.217462
0.211752
0.207062
0.203742
0.193204
0.204178
0.202952
0.205663
0.201624
0.195343
0.189418
0.180063
0.178178
0.245589
0.243565
0.233704
0.219138
0.205317
0.185775
0.17615
0.180034
0.188228
0.201537
0.204331
0.191909
0.198208
0.187579
0.18128
0.170934
0.15809
0.149262
0.136756
0.133914
0.231492
0.229964
0.218995
0.204384
0.189371
0.167306
0.153851
0.150383
0.151166
0.165449
0.177381
0.173393
0.176088
0.163397
0.151527
0.14021
0.124446
0.115676
0.102238
0.0995578
0.198477
0.197552
0.189205
0.180382
0.173087
0.158485
0.146902
0.135503
0.120803
0.123187
0.134027
0.133819
0.13449
0.123529
0.112778
0.106649
0.0922151
0.0875025
0.0761631
0.0740991
0.160352
0.159645
0.154505
0.150949
0.149874
0.142149
0.136267
0.124689
0.105485
0.0973708
0.0972216
0.0934101
0.0924232
0.0840903
0.0766756
0.0747893
0.063918
0.0625792
0.0542594
0.0527336
0.125944
0.125655
0.122181
0.119803
0.119263
0.112998
0.111683
0.106289
0.0958265
0.0857953
0.0761801
0.0665149
0.0633359
0.0576779
0.0507108
0.0509922
0.0418863
0.0416681
0.0352455
0.0340624
0.0951862
0.094397
0.091209
0.088459
0.0861418
0.0788594
0.0784046
0.0771958
0.0748602
0.0719049
0.0621459
0.0513981
0.0462154
0.0427948
0.0342628
0.0352536
0.0265155
0.0266711
0.0210542
0.0195715
0.0616275
0.0610279
0.0583248
0.0561225
0.0531654
0.0461074
0.0450311
0.043633
0.0416887
0.0457706
0.0415386
0.0362392
0.031329
0.030638
0.0214847
0.0227969
0.0145327
0.015497
0.0109888
0.00981457
0.0253054
0.0258677
0.0240667
0.0224839
0.0178637
0.0156658
0.013838
0.0141342
0.00956447
0.0148
0.0124447
0.0137991
0.0101873
0.0123844
0.00606233
0.00982892
0.00416501
0.00538854
0.00229205
0.00169735
13.4922
17.4953
18.4772
19.7417
20.7553
21.6419
22.399
23.0101
23.3714
23.4416
17.7675
19.684
20.2868
21.0752
21.7476
22.3136
22.7686
23.0977
23.2581
23.2197
20.0051
20.9427
21.4041
21.8866
22.3022
22.6479
22.9142
23.0968
23.1837
23.1914
21.2293
21.8037
22.097
22.3936
22.6391
22.8405
22.9931
23.0962
23.1521
23.1775
22.0282
22.3187
22.4986
22.6767
22.8279
22.9523
23.0472
23.1132
23.1499
23.1803
22.4567
22.6523
22.7507
22.8685
22.9612
23.0374
23.0981
23.1443
23.174
23.1991
22.7393
22.8677
22.917
22.9953
23.0576
23.1099
23.1526
23.1861
23.2085
23.2325
22.9308
23.0109
23.0511
23.1004
23.1434
23.1799
23.2104
23.2357
23.2543
23.2751
23.0777
23.1322
23.1611
23.1904
23.2202
23.2465
23.2685
23.2891
23.3056
23.3255
23.2008
23.2332
23.255
23.2747
23.2946
23.3141
23.3322
23.3503
23.3643
23.3833
23.3056
23.3256
23.343
23.3576
23.3733
23.389
23.4028
23.417
23.4267
23.4435
23.4004
23.4144
23.4305
23.445
23.458
23.4693
23.4792
23.4879
23.4916
23.5028
23.4951
23.5072
23.5218
23.5321
23.5401
23.5474
23.5546
23.5609
23.5622
23.5702
23.5948
23.5995
23.6084
23.6137
23.6174
23.6224
23.6285
23.6363
23.6408
23.6502
23.7098
23.6965
23.6888
23.6833
23.6807
23.6821
23.6891
23.7023
23.7164
23.7457
23.832
23.7763
23.7457
23.7279
23.7196
23.7198
23.7282
23.7471
23.7786
23.8481
)
;

boundaryField
{
    wall-4
    {
        type            zeroGradient;
    }
    pressure-outlet-7
    {
        type            fixedValue;
        value           uniform 0;
    }
    velocity-inlet-6
    {
        type            zeroGradient;
    }
    velocity-inlet-5
    {
        type            zeroGradient;
    }
    frontAndBackPlanes
    {
        type            empty;
    }
}


// ************************************************************************* //
