/*--------------------------------*- C++ -*----------------------------------*\
| =========                 |                                                 |
| \\      /  F ield         | OpenFOAM: The Open Source CFD Toolbox           |
|  \\    /   O peration     | Version:  2412                                  |
|   \\  /    A nd           | Website:  www.openfoam.com                      |
|    \\/     M anipulation  |                                                 |
\*---------------------------------------------------------------------------*/
FoamFile
{
    version     2.0;
    format      ascii;
    arch        "LSB;label=32;scalar=64";
    class       surfaceScalarField;
    location    "7.25";
    object      phi;
}
// * * * * * * * * * * * * * * * * * * * * * * * * * * * * * * * * * * * * * //

dimensions      [0 3 -1 0 0 0 0];

oriented        oriented;

internalField   nonuniform List<scalar> 
4262
(
-0.000709662
0.221222
-0.00229531
0.830239
-0.004086
1.76893
-0.00600464
3.16709
-0.00844606
5.18705
-0.0110584
8.01698
-0.0127425
11.8488
-0.0146061
16.8216
-0.0175042
22.8847
-0.0179264
29.5288
-0.0171765
29.5276
-0.0151889
22.8798
-0.0129523
16.8175
-0.010736
11.8449
-0.00863392
8.01226
-0.00679271
5.18276
-0.00521217
3.16359
-0.00421318
1.76614
-0.00290855
0.827349
0.217604
-0.00267163
0.223894
-0.00645742
0.834025
-0.0114528
1.77393
-0.0173281
3.17296
-0.0250059
5.19472
-0.0319146
8.02389
-0.0387402
11.8557
-0.0457019
16.8286
-0.0512808
22.8903
-0.0500704
29.5276
-0.0469957
29.5245
-0.0415328
22.8744
-0.0366106
16.8126
-0.029723
11.838
-0.0238916
8.00643
-0.0188534
5.17772
-0.0134916
3.15822
-0.00931689
1.76197
-0.00418807
0.82222
0.213416
-0.00553522
0.229429
-0.0120075
0.840497
-0.0207256
1.78265
-0.0310688
3.1833
-0.0422765
5.20593
-0.0525854
8.03419
-0.0642526
11.8673
-0.0730757
16.8374
-0.0837605
22.901
-0.0829679
29.5268
-0.0782406
29.5198
-0.0700182
22.8661
-0.058565
16.8011
-0.048156
11.8276
-0.03697
7.99525
-0.0275493
5.1683
-0.0192475
3.14992
-0.0103471
1.75307
-0.00279933
0.814672
0.210617
-0.00920858
0.238638
-0.0194089
0.850697
-0.0322639
1.7955
-0.0471423
3.19818
-0.0604947
5.21928
-0.0726278
8.04633
-0.0874138
11.8821
-0.099466
16.8494
-0.114113
22.9156
-0.112304
29.525
-0.104835
29.5123
-0.0934521
22.8548
-0.077866
16.7855
-0.0628249
11.8126
-0.0475286
7.97995
-0.0345966
5.15537
-0.0225102
3.13784
-0.0112429
1.7418
-0.00198403
0.805413
0.208633
-0.0139959
0.252634
-0.0279897
0.864691
-0.0444688
1.81198
-0.0620582
3.21577
-0.0803695
5.23759
-0.0976173
8.06358
-0.114889
11.8994
-0.128269
16.8628
-0.144818
22.9322
-0.143074
29.5232
-0.135178
29.5044
-0.119665
22.8393
-0.0969979
16.7629
-0.0766122
11.7922
-0.0570226
7.96036
-0.040355
5.1387
-0.0264192
3.1239
-0.0141644
1.72955
-0.00249217
0.793741
0.20614
-0.0150178
0.267652
-0.0309375
0.880611
-0.0510588
1.8321
-0.0749486
3.23966
-0.10101
5.26366
-0.121568
8.08413
-0.139138
11.9169
-0.158443
16.8821
-0.177109
22.9508
-0.172544
29.5187
-0.160012
29.4919
-0.139133
22.8184
-0.114493
16.7382
-0.087392
11.7651
-0.064486
7.93745
-0.0459341
5.12015
-0.0294431
3.10741
-0.0165322
1.71664
-0.00413554
0.781344
0.202005
-0.0123839
0.280035
-0.0308087
0.899036
-0.0561411
1.85744
-0.085339
3.26886
-0.116111
5.29443
-0.147599
8.11562
-0.168852
11.9382
-0.189356
16.9026
-0.208287
22.9698
-0.203566
29.5139
-0.190441
29.4788
-0.162783
22.7907
-0.131728
16.7072
-0.0987986
11.7322
-0.0733049
7.91196
-0.0522768
5.09912
-0.0339172
3.08905
-0.0185892
1.70131
-0.00680682
0.769562
0.195198
-0.0148475
0.294883
-0.043464
0.927652
-0.0732177
1.88719
-0.102856
3.2985
-0.135531
5.3271
-0.170084
8.15017
-0.199211
11.9673
-0.224377
16.9278
-0.245578
22.991
-0.235742
29.5041
-0.213161
29.4562
-0.178774
22.7563
-0.145577
16.674
-0.112292
11.6989
-0.0849558
7.88462
-0.0575111
5.07168
-0.0350061
3.06654
-0.0174395
1.68374
-0.00831195
0.760434
0.186886
-0.0222179
0.317101
-0.0587993
0.964234
-0.0890107
1.9174
-0.118209
3.3277
-0.149089
5.35798
-0.188253
8.18934
-0.225381
12.0045
-0.258904
16.9613
-0.282918
23.015
-0.269606
29.4908
-0.242528
29.4291
-0.206579
22.7204
-0.171458
16.6389
-0.129905
11.6573
-0.0924534
7.84717
-0.0586628
5.03789
-0.0298786
3.03776
-0.00796845
1.66183
-0.00495426
0.75742
0.181932
-0.0293416
0.346442
-0.0755099
1.0104
-0.104635
1.94653
-0.135445
3.35851
-0.171297
5.39384
-0.210661
8.2287
-0.252919
12.0467
-0.291768
17.0002
-0.324846
23.0481
-0.309066
29.475
-0.275713
29.3958
-0.235381
22.68
-0.192501
16.596
-0.150639
11.6155
-0.106808
7.80334
-0.0644967
4.99558
-0.0275246
3.00079
0.00242046
1.63189
-0.000155216
0.759996
0.181777
-0.0340011
0.380443
-0.085872
1.06227
-0.11618
1.97683
-0.150483
3.39281
-0.18919
5.43254
-0.231689
8.2712
-0.278177
12.0932
-0.321309
17.0433
-0.361233
23.088
-0.349253
29.463
-0.319063
29.3656
-0.276808
22.6378
-0.228037
16.5472
-0.173352
11.5608
-0.119511
7.7495
-0.0738387
4.94991
-0.0329524
2.9599
0.00466221
1.59427
0.000775722
0.763882
0.182552
-0.0354023
0.415846
-0.0892999
1.11617
-0.123797
2.01133
-0.168738
3.43775
-0.218982
5.48279
-0.267263
8.31948
-0.315608
12.1415
-0.362678
17.0904
-0.405599
23.1309
-0.39671
29.4541
-0.366166
29.335
-0.315052
22.5867
-0.25282
16.485
-0.192075
11.5
-0.135297
7.69272
-0.0840643
4.89867
-0.0400842
2.91592
-0.00159975
1.55579
-0.0021261
0.764408
0.180426
-0.0390085
0.454854
-0.100258
1.17742
-0.140711
2.05178
-0.193527
3.49057
-0.2462
5.53546
-0.301664
8.37495
-0.355465
12.1953
-0.406288
17.1412
-0.449544
23.1742
-0.446645
29.4512
-0.419724
29.3081
-0.361819
22.5288
-0.288345
16.4115
-0.212254
11.4239
-0.144693
7.62516
-0.0907528
4.84473
-0.0494515
2.87462
-0.0101904
1.51653
-0.00631734
0.760535
0.174109
-0.0378308
0.492685
-0.0982544
1.23784
-0.149413
2.10294
-0.218606
3.55976
-0.283965
5.60082
-0.352424
8.4434
-0.414858
12.2578
-0.470168
17.1965
-0.514513
23.2185
-0.508157
29.4449
-0.472578
29.2725
-0.394236
22.4504
-0.304607
16.3219
-0.225193
11.3445
-0.159653
7.55962
-0.0970159
4.78209
-0.052626
2.83023
-0.0150444
1.47894
-0.00933746
0.754828
0.164771
-0.0473635
0.540049
-0.118524
1.309
-0.18035
2.16477
-0.254771
3.63418
-0.327905
5.67395
-0.404179
8.51968
-0.477862
12.3315
-0.54032
17.259
-0.587929
23.2661
-0.573556
29.4305
-0.519778
29.2188
-0.433836
22.3645
-0.33993
16.228
-0.248818
11.2534
-0.17182
7.48262
-0.10796
4.71823
-0.0553699
2.77764
-0.0196001
1.44317
-0.0115101
0.746739
0.153261
-0.0467798
0.586828
-0.119682
1.38191
-0.197172
2.24226
-0.283581
3.72059
-0.372482
5.76285
-0.46536
8.61256
-0.554037
12.4201
-0.63381
17.3387
-0.683276
23.3156
-0.65587
29.4031
-0.575712
29.1386
-0.472399
22.2612
-0.365524
16.1211
-0.270649
11.1585
-0.190145
7.40212
-0.117505
4.64559
-0.0488722
2.70901
-0.0172805
1.41158
-0.0112432
0.740701
0.142018
-0.0628033
0.649632
-0.153924
1.47303
-0.237512
2.32585
-0.319746
3.80282
-0.41921
5.86232
-0.524908
8.71826
-0.630538
12.5258
-0.729632
17.4378
-0.785583
23.3715
-0.743549
29.3611
-0.651044
29.0461
-0.53326
22.1434
-0.418796
16.0066
-0.305133
11.0449
-0.20242
7.29941
-0.122902
4.56608
-0.0459711
2.63208
-0.0181894
1.3838
-0.0127826
0.735294
0.129235
-0.065812
0.715444
-0.167148
1.57436
-0.275601
2.4343
-0.382156
3.90938
-0.501004
5.98117
-0.619186
8.83644
-0.73238
12.639
-0.845563
17.551
-0.904167
23.4301
-0.856213
29.3131
-0.748894
28.9388
-0.608583
22.0031
-0.46332
15.8614
-0.331464
10.913
-0.215411
7.18335
-0.124482
4.47515
-0.0398763
2.54747
-0.0146807
1.35861
-0.0121721
0.732786
0.117063
-0.0870024
0.802446
-0.203464
1.69083
-0.320766
2.5516
-0.431613
4.02022
-0.568686
6.11824
-0.703768
8.97152
-0.836221
12.7714
-0.970602
17.6854
-1.02998
23.4895
-0.975835
29.259
-0.857193
28.8201
-0.696071
21.842
-0.527981
15.6933
-0.367921
10.753
-0.222521
7.03795
-0.12171
4.37434
-0.033782
2.45954
-0.0149411
1.33976
-0.0146297
0.732474
0.102434
-0.0938951
0.896341
-0.227334
1.82426
-0.371155
2.69542
-0.513731
4.1628
-0.668831
6.27334
-0.819148
9.12184
-0.973891
12.9262
-1.12356
17.8351
-1.18403
23.55
-1.12784
29.2028
-0.992861
28.6852
-0.797643
21.6467
-0.586978
15.4826
-0.401659
10.5676
-0.242892
6.87919
-0.125106
4.25655
-0.0379733
2.37241
-0.0174
1.31919
-0.0171532
0.732227
0.0852805
-0.113653
1.00999
-0.263541
1.97415
-0.426655
2.85853
-0.587262
4.32341
-0.774366
6.46044
-0.953609
9.30108
-1.13264
13.1052
-1.30648
18.0089
-1.36267
23.6062
-1.29513
29.1352
-1.13238
28.5224
-0.900872
21.4152
-0.667951
15.2497
-0.457696
10.3574
-0.273221
6.69471
-0.129676
4.11301
-0.0432303
2.28596
-0.03093
1.30689
-0.0266319
0.727929
0.0586486
-0.12893
1.13892
-0.298717
2.14394
-0.485328
3.04515
-0.680908
4.51899
-0.895611
6.67514
-1.11404
9.51951
-1.33923
13.3304
-1.53416
18.2038
-1.58674
23.6588
-1.4983
29.0468
-1.29115
28.3153
-1.02287
21.1469
-0.744021
14.9708
-0.501148
10.1145
-0.30603
6.49959
-0.147954
3.95493
-0.0611556
2.19917
-0.0446586
1.29039
-0.0376033
0.720874
0.0210453
-0.149629
1.28855
-0.343403
2.33771
-0.563067
3.26481
-0.797048
4.75297
-1.06145
6.93955
-1.33802
9.79607
-1.59687
13.5892
-1.8091
18.4161
-1.8429
23.6926
-1.72279
28.9267
-1.466
28.0585
-1.14496
20.8259
-0.833919
14.6598
-0.559793
9.8404
-0.341267
6.28107
-0.159766
3.77343
-0.073868
2.11327
-0.059988
1.27651
-0.0497099
0.710596
-0.0286645
-0.18358
1.47213
-0.410003
2.56414
-0.670005
3.52481
-0.971725
5.05469
-1.29896
7.26678
-1.61986
10.117
-1.90977
13.8791
-2.13571
18.642
-2.14503
23.7019
-1.98703
28.7687
-1.66201
27.7335
-1.28054
20.4444
-0.907007
14.2863
-0.593865
9.52725
-0.364932
6.05214
-0.181636
3.59013
-0.110822
2.04246
-0.0990659
1.26476
-0.0657696
0.6773
-0.0944341
-0.230184
1.70232
-0.491051
2.825
-0.838164
3.87192
-1.21571
5.43224
-1.59519
7.64626
-1.96214
10.4839
-2.29753
14.2145
-2.51561
18.8601
-2.48217
23.6684
-2.27382
28.5604
-1.87824
27.3379
-1.41752
19.9837
-1.00728
13.876
-0.649886
9.16986
-0.390031
5.79228
-0.201325
3.40143
-0.137229
1.97836
-0.140967
1.26849
-0.100632
0.636965
-0.195066
-0.355785
2.0581
-0.753969
3.22319
-1.16246
4.28041
-1.57446
5.84424
-1.99551
8.06731
-2.40253
10.8909
-2.75515
14.5671
-2.92902
19.034
-2.8529
23.5923
-2.59422
28.3017
-2.12718
26.8708
-1.59793
19.4545
-1.10541
13.3835
-0.695653
8.7601
-0.398402
5.49503
-0.198022
3.20105
-0.14719
1.92753
-0.153074
1.27438
-0.106718
0.590609
-0.301784
-0.275698
2.3338
-0.620365
3.56785
-0.970486
4.63053
-1.377
6.25076
-1.81373
8.50404
-2.26152
11.3387
-2.6982
15.0038
-2.9489
19.2847
-3.00751
23.6509
-2.85668
28.1508
-2.38674
26.4009
-1.76565
18.8334
-1.15421
12.7721
-0.660973
8.26687
-0.275977
5.11003
-0.0774946
3.00256
-0.0240226
1.87406
-0.0199329
1.27029
-0.0458937
0.61657
-0.347678
-0.166825
2.50063
-0.407037
3.80807
-0.691704
4.9152
-0.996064
6.55512
-1.30707
8.81505
-1.61885
11.6505
-1.92125
15.3062
-2.05948
19.4229
-2.04511
23.6365
-1.82352
27.9292
-1.36023
25.9376
-0.833626
18.3068
-0.373557
12.312
-0.0127386
7.90605
0.248348
4.84895
0.313343
2.93757
0.281752
1.90565
0.181658
1.37038
0.0712489
0.726979
-0.276429
-0.115717
2.61634
-0.258436
3.95079
-0.46634
5.1231
-0.694661
6.78344
-0.928638
9.04902
-1.14214
11.864
-1.33445
15.4985
-1.39012
19.4786
-1.30878
23.5552
-1.03701
27.6575
-0.61751
25.5181
-0.217344
17.9066
0.111197
11.9834
0.338793
7.67845
0.432072
4.75567
0.387014
2.98263
0.281514
2.01115
0.192697
1.4592
0.105945
0.81373
-0.170484
-0.0954364
2.71178
-0.233374
4.08872
-0.381998
5.27173
-0.524099
6.92554
-0.664066
9.18899
-0.800005
11.9999
-0.902615
15.6012
-0.896389
19.4723
-0.769399
23.4282
-0.477685
27.3658
-0.0919676
25.1324
0.235116
17.5795
0.460868
11.7577
0.603698
7.53562
0.645317
4.71405
0.582853
3.04509
0.43673
2.15727
0.267033
1.6289
0.105494
0.97527
-0.0649898
-0.0563524
2.76813
-0.156008
4.18838
-0.264442
5.38016
-0.370489
7.03159
-0.471643
9.29014
-0.558864
12.0872
-0.599682
15.642
-0.5489
19.4216
-0.390388
23.2697
-0.0810795
27.0565
0.254199
24.7971
0.519223
17.3145
0.670149
11.6068
0.736606
7.46917
0.677195
4.77346
0.524384
3.1979
0.344526
2.33713
0.209767
1.76366
0.104041
1.081
0.0390516
-0.0392797
2.80741
-0.149911
4.29901
-0.233695
5.46395
-0.286398
7.08429
-0.340421
9.34417
-0.396687
12.1434
-0.398573
15.6439
-0.319807
19.3428
-0.153926
23.1038
0.139673
26.7629
0.477551
24.4592
0.693141
17.0989
0.827485
11.4724
0.8512
7.44545
0.768044
4.85662
0.618075
3.34787
0.445389
2.50981
0.274962
1.93408
0.121428
1.23453
0.160479
-0.019269
2.82668
-0.10511
4.38485
-0.184917
5.54375
-0.233211
7.13258
-0.272568
9.38352
-0.295696
12.1666
-0.275361
15.6235
-0.183217
19.2507
-0.0128799
22.9335
0.270148
26.4798
0.600513
24.1289
0.790821
16.9086
0.897607
11.3656
0.896124
7.44693
0.790073
4.96267
0.611916
3.52603
0.41256
2.70917
0.246719
2.09992
0.0929831
1.38827
0.253462
-0.00854547
2.83523
-0.0935751
4.46988
-0.167164
5.61734
-0.210298
7.17572
-0.227287
9.40051
-0.237332
12.1766
-0.204877
15.5911
-0.109709
19.1555
0.0575474
22.7662
0.335255
26.2021
0.648909
23.8152
0.830211
16.7273
0.936398
11.2594
0.917174
7.46616
0.760062
5.11978
0.548252
3.73784
0.353916
2.90351
0.177795
2.27605
0.0572015
1.50886
0.310664
-0.00874491
2.84397
-0.062257
4.52339
-0.116482
5.67157
-0.180062
7.2393
-0.205869
9.42632
-0.2097
12.1804
-0.170243
15.5516
-0.0758852
19.0611
0.0846169
22.6057
0.349034
25.9377
0.643938
23.5203
0.814806
16.5564
0.898095
11.1762
0.847769
7.51648
0.701673
5.26588
0.51269
3.92682
0.319376
3.09682
0.158077
2.43734
0.0438819
1.62306
0.354546
0.00125259
2.84272
-0.0470599
4.57171
-0.100168
5.72468
-0.161901
7.30103
-0.189474
9.45389
-0.195802
12.1868
-0.155622
15.5114
-0.0658094
18.9713
0.085434
22.4545
0.328411
25.6947
0.603282
23.2454
0.768015
16.3917
0.848379
11.0958
0.791406
7.57346
0.61617
5.44111
0.419153
4.12384
0.246768
3.2692
0.107994
2.57612
0.0177119
1.71334
0.372258
-0.00387374
2.84659
-0.0370565
4.60489
-0.075807
5.76343
-0.128673
7.3539
-0.177372
9.50259
-0.191469
12.2009
-0.154494
15.4745
-0.0701819
18.887
0.0695955
22.3147
0.288639
25.4757
0.538692
22.9954
0.689158
16.2412
0.74291
11.042
0.671742
7.64463
0.525707
5.58715
0.35413
4.29541
0.185652
3.43768
0.0599304
2.70184
-0.000861114
1.77413
0.371397
0.00566202
2.84093
-0.0295789
4.64013
-0.0740899
5.80794
-0.118832
7.39864
-0.161776
9.54553
-0.185248
12.2243
-0.156904
15.4461
-0.0812095
18.8113
0.0454844
22.188
0.239523
25.2817
0.46294
22.772
0.600267
16.1039
0.642625
10.9997
0.571771
7.71548
0.417199
5.74172
0.255568
4.45704
0.138116
3.55513
0.0323183
2.80764
-0.0137838
1.82023
0.357613
-0.000406309
2.84134
-0.0333036
4.67303
-0.0714816
5.84612
-0.115388
7.44254
-0.154634
9.58478
-0.180143
12.2498
-0.160128
15.4261
-0.0952848
18.7465
0.0193174
22.0734
0.186531
25.1144
0.379322
22.5792
0.495475
15.9878
0.509798
10.9854
0.429054
7.79622
0.316436
5.85434
0.184107
4.58937
0.0628066
3.67643
-0.0165209
2.88697
-0.0289242
1.83263
0.328689
-0.00290172
2.84424
-0.0397564
4.70988
-0.0809395
5.8873
-0.118459
7.48006
-0.15041
9.61673
-0.174279
12.2737
-0.160008
15.4118
-0.107858
18.6943
-0.0120668
21.9776
0.133789
24.9686
0.294873
22.4181
0.393955
15.8887
0.401143
10.9782
0.3156
7.88177
0.200886
5.96905
0.0874287
4.70283
0.0123786
3.75148
-0.0490912
2.94844
-0.0467268
1.83027
0.281962
-0.00678454
2.85102
-0.0459736
4.74907
-0.0830246
5.92435
-0.12073
7.51777
-0.149007
9.64501
-0.171944
12.2966
-0.159892
15.3998
-0.118328
18.6528
-0.0393119
21.8986
0.0846628
24.8446
0.213049
22.2897
0.290987
15.8107
0.274189
10.995
0.184997
7.97096
0.0979064
6.05614
0.00711292
4.79362
-0.0788702
3.83747
-0.106421
2.97599
-0.0620317
1.78588
0.21993
-0.0149605
2.86598
-0.0541735
4.78828
-0.0903552
5.96053
-0.125062
7.55248
-0.148252
9.6682
-0.169648
12.318
-0.15856
15.3887
-0.124938
18.6191
-0.0611116
21.8348
0.041765
24.7417
0.141105
22.1904
0.200349
15.7515
0.168566
11.0268
0.0780983
8.06143
-0.020275
6.15451
-0.0930988
4.86645
-0.1231
3.86747
-0.134386
2.98727
-0.0759584
1.72745
0.143972
-0.0177174
2.8837
-0.0563296
4.82689
-0.0877679
5.99197
-0.124331
7.58904
-0.147562
9.69143
-0.169058
12.3395
-0.15826
15.3779
-0.129295
18.5902
-0.0776878
21.7832
0.00403036
24.66
0.0789757
22.1154
0.11504
15.7154
0.0563382
11.0855
-0.0396485
8.15741
-0.121851
6.23672
-0.18551
4.93011
-0.225031
3.90699
-0.190951
2.95319
-0.0889778
1.62548
0.0549941
-0.023528
2.90723
-0.0633236
4.86669
-0.0935954
6.02224
-0.126609
7.62205
-0.148328
9.71315
-0.167486
12.3587
-0.157391
15.3678
-0.131096
18.5639
-0.0887382
21.7408
-0.0285437
24.5998
0.0291028
22.0578
0.0378168
15.7067
-0.0277127
11.151
-0.139412
8.26911
-0.234959
6.33226
-0.274662
4.96981
-0.259023
3.89135
-0.215848
2.91002
-0.0937512
1.50338
-0.0387571
-0.0222129
2.92944
-0.0580157
4.90249
-0.0865896
6.05082
-0.121669
7.65713
-0.146761
9.73824
-0.165631
12.3776
-0.156714
15.3589
-0.131985
18.5391
-0.0968833
21.7057
-0.0512448
24.5542
-0.00991768
22.0164
-0.0214718
15.7183
-0.106342
11.2359
-0.226577
8.38935
-0.322627
6.42831
-0.372362
5.01954
-0.373486
3.89248
-0.260715
2.79725
-0.0923237
1.33499
-0.131081
-0.0281207
2.95756
-0.063315
4.93769
-0.0911906
6.07869
-0.121452
7.68739
-0.144268
9.76106
-0.161346
12.3946
-0.154418
15.3519
-0.134016
18.5187
-0.104994
21.6767
-0.0706339
24.5198
-0.0418446
21.9877
-0.0703331
15.7468
-0.171929
11.3375
-0.298777
8.5162
-0.414237
6.54377
-0.463881
5.06919
-0.416501
3.8451
-0.256009
2.63675
0.0636773
1.01531
-0.0674034
-0.0257121
2.98327
-0.0558295
4.9678
-0.0847714
6.10763
-0.117263
7.71989
-0.143426
9.78722
-0.163986
12.4152
-0.161037
15.349
-0.145813
18.5035
-0.121778
21.6527
-0.0956087
24.4937
-0.0778341
21.9699
-0.128651
15.7976
-0.258213
11.467
-0.406662
8.66464
-0.524252
6.66136
-0.606216
5.15115
-0.610416
3.8493
-0.404029
2.43037
-0.283737
0.895013
0.55063
-0.901771
-0.0303557
3.01363
-0.0588193
4.99627
-0.0898145
6.13863
-0.115527
7.7456
-0.14232
9.81401
-0.163416
12.4363
-0.163348
15.3489
-0.151852
18.492
-0.132367
21.6332
-0.114688
24.476
-0.110554
21.9657
-0.182819
15.8698
-0.336685
11.6209
-0.510927
8.83889
-0.668481
6.81892
-0.781585
5.26426
-0.810363
3.87807
-0.681453
2.30146
-1.04804
1.2616
1.16013
-1.65753
-0.0285889
3.04222
-0.0507223
5.0184
-0.083679
6.17158
-0.107693
7.76961
-0.136864
9.84318
-0.160752
12.4602
-0.163786
15.352
-0.156682
18.4849
-0.142985
21.6195
-0.132579
24.4656
-0.14188
21.975
-0.235417
15.9634
-0.41583
11.8013
-0.61709
9.04015
-0.80867
7.0105
-0.976423
5.43201
-0.97184
3.87349
-0.975331
2.30495
-1.41637
1.70264
1.53543
-1.79167
-0.0313342
3.07355
-0.0525678
5.03964
-0.0872739
6.20629
-0.104129
7.78647
-0.13341
9.87247
-0.157333
12.4841
-0.162194
15.3568
-0.159452
18.4822
-0.15156
21.6116
-0.147886
24.4619
-0.170519
21.9977
-0.284417
16.0773
-0.490395
12.0073
-0.726485
9.27624
-0.978589
7.2626
-1.16901
5.62243
-1.16198
3.86645
-1.39076
2.53373
-1.74338
2.05526
1.77175
-1.9797
-0.0262511
3.0998
-0.0451592
5.05854
-0.0772722
6.2384
-0.097566
7.80676
-0.12717
9.90207
-0.151048
12.508
-0.158412
15.3642
-0.160407
18.4842
-0.158677
21.6098
-0.161275
24.4645
-0.196146
22.0325
-0.32846
16.2096
-0.560012
12.2388
-0.832937
9.54916
-1.07685
7.50652
-1.19149
5.73707
-1.21282
3.88778
-1.51459
2.8355
-1.85701
2.39768
1.99038
-2.07564
-0.0260365
3.12584
-0.0514003
5.08391
-0.0794615
6.26646
-0.102069
7.82937
-0.128457
9.92846
-0.149281
12.5288
-0.158083
15.373
-0.163372
18.4895
-0.166535
21.613
-0.175159
24.4731
-0.221348
22.0787
-0.370898
16.3591
-0.622581
12.4905
-0.905803
9.83238
-1.15307
7.75378
-1.31891
5.90291
-1.54654
4.11541
-1.86341
3.15237
-2.14252
2.6768
2.13569
-2.28783
-0.0246899
3.15053
-0.0493831
5.1086
-0.0761873
6.29327
-0.105354
7.85853
-0.132732
9.95584
-0.154559
12.5506
-0.164161
15.3826
-0.171412
18.4967
-0.177412
21.619
-0.190891
24.4866
-0.247641
22.1355
-0.411449
16.5229
-0.671481
12.7505
-0.964675
10.1256
-1.22297
8.01208
-1.34038
6.02031
-1.55036
4.32539
-1.87498
3.47699
-2.12444
2.92626
2.3356
-2.32435
-0.0223518
3.17288
-0.0557934
5.14204
-0.0863591
6.32383
-0.114602
7.88678
-0.142403
9.98364
-0.162544
12.5708
-0.171823
15.3919
-0.180435
18.5053
-0.18782
21.6264
-0.205272
24.504
-0.272446
22.2027
-0.447144
16.6976
-0.704081
13.0075
-0.993409
10.4149
-1.25177
8.27045
-1.41435
6.18289
-1.73944
4.65048
-2.23046
3.96801
-2.60278
3.29858
2.63383
-2.90101
-0.020156
3.19304
-0.0484272
5.17031
-0.081049
6.35646
-0.11708
7.92281
-0.148879
10.0154
-0.170111
12.592
-0.180535
15.4023
-0.189751
18.5145
-0.198064
21.6347
-0.218866
24.5248
-0.298915
22.2827
-0.484401
16.8831
-0.723258
13.2463
-0.987591
10.6792
-1.26466
8.54752
-1.53169
6.44992
-1.8474
4.96619
-2.29105
4.41166
-2.7777
3.78523
2.83505
-2.97892
-0.0204694
3.21351
-0.0582109
5.20805
-0.0936611
6.39191
-0.126811
7.95596
-0.159805
10.0484
-0.179848
12.6121
-0.190162
15.4126
-0.19893
18.5233
-0.206576
21.6424
-0.229663
24.5479
-0.319886
22.3729
-0.507347
17.0706
-0.748136
13.4871
-0.993382
10.9245
-1.21385
8.76799
-1.48887
6.72494
-2.02609
5.50341
-2.41773
4.8033
-2.89817
4.26567
3.54416
-3.60729
-0.0176997
3.23121
-0.049434
5.23979
-0.0857299
6.4282
-0.128179
7.99841
-0.164269
10.0845
-0.18605
12.6338
-0.196508
15.4231
-0.204238
18.531
-0.211133
21.6492
-0.233845
24.5706
-0.319382
22.4585
-0.495694
17.2469
-0.717975
13.7094
-0.930673
11.1372
-1.09139
8.92871
-1.36265
6.9962
-1.75245
5.89321
-1.93618
4.98703
-1.41023
3.73972
2.13393
-0.0135706
3.24478
-0.059994
5.28621
-0.102689
6.4709
-0.141821
8.03754
-0.177645
10.1203
-0.198048
12.6542
-0.208565
15.4336
-0.216471
18.5389
-0.224311
21.6571
-0.248068
24.5944
-0.335141
22.5455
-0.512082
17.4238
-0.72823
13.9256
-0.91884
11.3278
-1.02098
9.03085
-1.12698
7.10221
-1.14055
5.90677
-1.01163
4.85811
-0.700345
3.42844
1.43359
-0.0146515
3.25943
-0.050345
5.32191
-0.0917251
6.51228
-0.142227
8.08804
-0.184297
10.1624
-0.208053
12.678
-0.220285
15.4458
-0.227299
18.546
-0.234162
21.664
-0.2556
24.6158
-0.344301
22.6342
-0.51602
17.5956
-0.710035
14.1196
-0.84494
11.4627
-0.905958
9.09187
-0.960132
7.15638
-1.01339
5.96003
-0.988123
4.83284
-0.805864
3.24618
0.627725
-0.0117116
3.27114
-0.0643396
5.37453
-0.114483
6.56242
-0.157404
8.13096
-0.197583
10.2026
-0.219034
12.6994
-0.23044
15.4572
-0.235157
18.5507
-0.239625
21.6684
-0.2558
24.632
-0.34207
22.7205
-0.499304
17.7528
-0.65782
14.2781
-0.746553
11.5514
-0.812448
9.15776
-0.900623
7.24455
-0.942542
6.00195
-0.87162
4.76192
-0.397627
2.77219
0.230098
-0.0137137
3.28485
-0.0504927
5.41131
-0.0968115
6.60874
-0.154232
8.18838
-0.20024
10.2486
-0.224563
12.7238
-0.237062
15.4697
-0.239247
18.5529
-0.239811
21.669
-0.247877
24.6401
-0.325925
22.7986
-0.461257
17.8881
-0.578374
14.3952
-0.675235
11.6483
-0.739262
9.22179
-0.793147
7.29844
-0.78744
5.99624
-0.590406
4.56488
-0.161151
2.34293
0.0689471
-0.0114207
3.29628
-0.0667743
5.46667
-0.123533
6.6655
-0.167999
8.23285
-0.20785
10.2885
-0.228341
12.7443
-0.239152
15.4805
-0.237195
18.5509
-0.232101
21.6639
-0.230076
24.6381
-0.295304
22.8638
-0.406942
17.9998
-0.513552
14.5018
-0.601998
11.7367
-0.633391
9.25318
-0.652038
7.31709
-0.601666
5.94587
-0.427597
4.39081
-0.142267
2.0576
-0.0733201
-0.00763354
3.30391
-0.0460594
5.50509
-0.094394
6.71383
-0.15625
8.2947
-0.202339
10.3345
-0.224988
12.7669
-0.235061
15.4906
-0.228786
18.5446
-0.216011
21.6511
-0.20264
24.6247
-0.255464
22.9166
-0.351041
18.0953
-0.442133
14.5929
-0.500891
11.7955
-0.505569
9.25786
-0.500089
7.31161
-0.440217
5.886
-0.312285
4.26288
-0.0687067
1.81402
-0.142027
-0.00343689
3.30735
-0.0585028
5.56016
-0.121429
6.77676
-0.163887
8.33716
-0.199738
10.3704
-0.216514
12.7837
-0.222607
15.4967
-0.210212
18.5322
-0.188359
21.6293
-0.163741
24.6001
-0.205458
22.9583
-0.283629
18.1735
-0.348216
14.6575
-0.368837
11.8161
-0.364116
9.25314
-0.346868
7.29436
-0.293999
5.83313
-0.181596
4.15048
0.00955714
1.62287
-0.13247
0.0136838
3.29366
-0.026803
5.60065
-0.0748569
6.82481
-0.138496
8.4008
-0.183089
10.415
-0.200386
12.801
-0.201835
15.4982
-0.182757
18.5132
-0.150109
21.5966
-0.114312
24.5643
-0.143571
22.9876
-0.202652
18.2326
-0.238271
14.6931
-0.23226
11.8101
-0.208938
9.22982
-0.183197
7.26862
-0.140149
5.79008
-0.0547101
4.06504
0.0473014
1.52086
-0.0851683
0.0137965
3.27987
-0.0363998
5.65084
-0.0991832
6.8876
-0.131528
8.43315
-0.163314
10.4468
-0.170307
12.808
-0.165882
15.4937
-0.140581
18.4879
-0.0964036
21.5524
-0.0525322
24.5204
-0.0665659
23.0016
-0.103113
18.2691
-0.116142
14.7061
-0.0957634
11.7897
-0.0547859
9.18884
0.000170459
7.21366
0.0387552
5.7515
0.0843329
4.01946
0.0629568
1.54223
-0.0222115
0.0445006
3.23537
0.0232708
5.67207
-0.0210291
6.9319
-0.0870996
8.49922
-0.125907
10.4856
-0.129746
12.8118
-0.118387
15.4824
-0.0845861
18.4541
-0.0287469
21.4966
0.017989
24.4737
0.0221141
22.9975
0.0141161
18.2771
0.028159
14.6921
0.0559972
11.7619
0.102664
9.14218
0.153649
7.16268
0.22352
5.68163
0.24642
3.99656
0.10389
1.68476
0.0816787
0.0571201
3.17825
0.0250437
5.70415
-0.0139886
6.97093
-0.0539296
8.53916
-0.0677227
10.4994
-0.0603582
12.8044
-0.0444605
15.4665
0.00127294
18.4083
0.0633143
21.4346
0.129353
24.4076
0.141734
22.9851
0.14722
18.2717
0.174319
14.665
0.220883
11.7153
0.259101
9.10396
0.31107
7.11071
0.371641
5.62106
0.369603
3.9986
0.162717
1.89165
0.244396
0.102425
3.07582
0.114931
5.69164
0.0712235
7.01464
0.0254246
8.58496
0.0221967
10.5026
0.0183761
12.8083
0.0449852
15.4399
0.100334
18.353
0.183843
21.351
0.25489
24.3366
0.27519
22.9648
0.292268
18.2546
0.327105
14.6302
0.367161
11.6753
0.39916
9.07196
0.434469
7.0754
0.466022
5.5895
0.426085
4.03854
0.211043
2.10669
0.455438
0.136802
2.93902
0.151811
5.67663
0.141174
7.02527
0.132528
8.5936
0.123877
10.5113
0.148703
12.7834
0.182328
15.4062
0.243756
18.2915
0.33713
21.2577
0.408544
24.2652
0.431689
22.9417
0.445042
18.2412
0.462083
14.6131
0.473091
11.6643
0.472124
9.07293
0.476345
7.07118
0.482284
5.58356
0.435996
4.08483
0.233732
2.30895
0.689171
0.235208
2.70381
0.327257
5.58459
0.322703
7.02983
0.284068
8.63224
0.284415
10.5109
0.306156
12.7617
0.351794
15.3606
0.426786
18.2165
0.522221
21.1622
0.589398
24.198
0.604899
22.9262
0.595625
18.2505
0.581589
14.6272
0.559752
11.6861
0.530229
9.10245
0.520514
7.08089
0.513321
5.59076
0.448702
4.14944
0.235382
2.52227
0.924553
0.339248
2.36456
0.485905
5.43793
0.502546
7.01319
0.495272
8.63951
0.503463
10.5027
0.528055
12.7371
0.581531
15.3071
0.665395
18.1327
0.756815
21.0708
0.814065
24.1407
0.8067
22.9335
0.76095
18.2962
0.707317
14.6808
0.654122
11.7393
0.59596
9.16061
0.549799
7.12705
0.503097
5.63746
0.411791
4.24075
0.211498
2.72257
1.13605
0.615574
1.74899
0.822634
5.23087
0.829354
7.00647
0.800838
8.66803
0.800897
10.5027
0.828128
12.7099
0.883935
15.2513
0.969594
18.047
1.05325
20.9872
1.09381
24.1002
1.0542
22.9731
0.97522
18.3752
0.889827
14.7662
0.797956
11.8312
0.689624
9.26894
0.589217
7.22746
0.496178
5.7305
0.375433
4.36149
0.181976
2.91603
1.31803
0.874551
0.874437
1.19917
4.90625
1.22662
6.97901
1.19826
8.69639
1.18379
10.5171
1.20666
12.687
1.26633
15.1916
1.35852
17.9548
1.43845
20.9072
1.46222
24.0764
1.39762
23.0377
1.29458
18.4783
1.17601
14.8847
1.02489
11.9823
0.833236
9.4606
0.654132
7.40656
0.500758
5.88387
0.34371
4.51854
0.150794
3.10894
1.46882
0.784535
0.0899027
1.60406
4.08673
1.76764
6.81543
1.73477
8.72926
1.7011
10.5508
1.71346
12.6747
1.77581
15.1293
1.86555
17.8651
1.94101
20.8318
1.96361
24.0538
1.89767
23.1037
1.76582
18.6101
1.58873
15.0618
1.37477
12.1962
1.11689
9.71848
0.873344
7.65011
0.660997
6.09622
0.445842
4.7337
0.20354
3.35124
1.67236
0.629386
-0.539484
1.78609
2.93003
2.19307
6.40845
2.26169
8.66064
2.28049
10.532
2.32395
12.6312
2.41226
15.041
2.52641
17.751
2.62818
20.73
2.67127
24.0107
2.59548
23.1795
2.42099
18.7846
2.18652
15.2963
1.92104
12.4617
1.61335
10.0262
1.27898
7.98447
0.951486
6.42371
0.6278
5.05738
0.290577
3.68847
1.96294
0.413761
-0.953245
1.61182
1.73197
2.1299
5.89036
2.27197
8.51857
2.28736
10.5166
2.28876
12.6298
2.30499
15.0248
2.32645
17.7295
2.31526
20.7412
2.22104
24.1049
2.0397
23.3608
1.83161
18.9927
1.60263
15.5253
1.34809
12.7163
1.09603
10.2782
0.869592
8.21091
0.658789
6.63452
0.446409
5.26976
0.212106
3.92277
2.17504
0.118046
-1.07129
0.618453
1.23157
1.13433
5.37449
1.39686
8.25604
1.48214
10.4313
1.53745
12.5745
1.62354
14.9387
1.71721
17.6358
1.76247
20.6959
1.7142
24.1532
1.5765
23.4985
1.40935
19.1599
1.23085
15.7038
1.04584
12.9013
0.837546
10.4865
0.638312
8.41014
0.468342
6.80449
0.306997
5.43111
0.142896
4.08687
2.31794
-0.0136197
-1.05767
-0.130986
1.34893
0.118435
5.12506
0.369208
8.00527
0.600552
10.2
0.810516
12.3645
0.994438
14.7547
1.15752
17.4727
1.26381
20.5896
1.27684
24.1402
1.19154
23.5838
1.07372
19.2777
0.939566
15.8379
0.792652
13.0482
0.631748
10.6474
0.474063
8.56783
0.341773
6.93678
0.217145
5.55574
0.0893141
4.2147
2.40725
-0.326759
-0.730912
-0.711236
1.73341
-0.75146
5.16529
-0.484164
7.73797
-0.144193
9.86
0.151683
12.0686
0.420086
14.4863
0.649833
17.243
0.81827
20.4212
0.895547
24.0629
0.875819
23.6035
0.803633
19.3499
0.706606
15.9349
0.595923
13.1589
0.473655
10.7697
0.347472
8.69401
0.245126
7.03912
0.151127
5.64973
0.0577545
4.30808
2.46501
-0.430011
-0.300901
-0.852759
2.15616
-0.918586
5.23111
-0.774687
7.59407
-0.55123
9.63655
-0.273581
11.791
0.0186696
14.1941
0.269605
16.9921
0.474821
20.216
0.595999
23.9417
0.622662
23.5769
0.587371
19.3852
0.523617
15.9987
0.446099
13.2364
0.355285
10.8605
0.257999
8.7913
0.180912
7.11621
0.104855
5.72579
0.0268815
4.38605
2.49189
-0.383283
0.0823827
-0.765012
2.53789
-0.817511
5.28361
-0.752607
7.52917
-0.625705
9.50964
-0.437987
11.6033
-0.197051
13.9532
0.0355981
16.7594
0.234288
20.0173
0.373175
23.8028
0.42572
23.5243
0.417226
19.3937
0.382637
16.0333
0.333961
13.2851
0.268986
10.9255
0.189944
8.87034
0.121399
7.18476
0.0538839
5.79331
-0.0081834
4.44812
2.48371
-0.380009
0.462392
-0.661636
2.81951
-0.704518
5.3265
-0.638634
7.46328
-0.537805
9.40881
-0.424935
11.4904
-0.278466
13.8067
-0.0884845
16.5694
0.0833273
19.8455
0.218671
23.6675
0.282334
23.4607
0.292111
19.3839
0.277698
16.0477
0.247104
13.3157
0.197018
10.9756
0.12965
8.93771
0.0679959
7.24641
0.0100105
5.85129
-0.0334423
4.49157
2.45026
-0.291037
0.753429
-0.523954
3.05243
-0.587491
5.39003
-0.534121
7.40991
-0.446472
9.32117
-0.353363
11.3973
-0.256811
13.7101
-0.132438
16.4451
0.00759501
19.7055
0.121737
23.5533
0.183411
23.399
0.201949
19.3653
0.196651
16.053
0.176744
13.3356
0.138085
11.0142
0.0804065