/*--------------------------------*- C++ -*----------------------------------*\
| =========                 |                                                 |
| \\      /  F ield         | OpenFOAM: The Open Source CFD Toolbox           |
|  \\    /   O peration     | Version:  2412                                  |
|   \\  /    A nd           | Website:  www.openfoam.com                      |
|    \\/     M anipulation  |                                                 |
\*---------------------------------------------------------------------------*/
FoamFile
{
    version     2.0;
    format      ascii;
    arch        "LSB;label=32;scalar=64";
    class       volVectorField;
    location    "7.25";
    object      U;
}
// * * * * * * * * * * * * * * * * * * * * * * * * * * * * * * * * * * * * * //

dimensions      [0 1 -1 0 0 0 0];

internalField   nonuniform List<vector> 
2200
(
(0.379377 -6.33663e-08 0)
(1.19432 0.000804333 0)
(2.12293 0.00156396 0)
(3.16865 0.00240142 0)
(4.32501 0.00320901 0)
(5.57117 0.00432595 0)
(6.86362 0.00519565 0)
(8.12036 0.00555389 0)
(9.20636 0.00649529 0)
(9.90073 0.00723428 0)
(9.90098 0.00709644 0)
(9.20777 0.00679824 0)
(8.12171 0.00589434 0)
(6.86465 0.0049728 0)
(5.57193 0.00440561 0)
(4.32502 0.00341565 0)
(3.1683 0.00270267 0)
(2.12227 0.00224904 0)
(1.19249 0.00160634 0)
(0.376335 0.00128023 0)
(0.382772 0.000796749 0)
(1.19705 0.00189313 0)
(2.12611 0.00430483 0)
(3.17193 0.00641008 0)
(4.32939 0.00991823 0)
(5.57633 0.0121398 0)
(6.86667 0.0150602 0)
(8.12334 0.0179436 0)
(9.20908 0.0197284 0)
(9.90136 0.0201644 0)
(9.9004 0.0196692 0)
(9.20414 0.0180962 0)
(8.11802 0.0162202 0)
(6.86042 0.0145912 0)
(5.5683 0.0118468 0)
(4.32155 0.00976017 0)
(3.16384 0.00742416 0)
(2.11625 0.00518147 0)
(1.18449 0.00361863 0)
(0.370527 0.000618664 0)
(0.389806 0.00201972 0)
(1.20419 0.00355315 0)
(2.13307 0.00728745 0)
(3.1786 0.0116525 0)
(4.33397 0.0159068 0)
(5.57894 0.0211466 0)
(6.87073 0.0252331 0)
(8.12567 0.0289851 0)
(9.21083 0.0326669 0)
(9.89927 0.0342718 0)
(9.89825 0.0330992 0)
(9.20237 0.0309054 0)
(8.11454 0.0274919 0)
(6.85593 0.0231204 0)
(5.56195 0.0191323 0)
(4.31322 0.0145958 0)
(3.15504 0.0106235 0)
(2.10726 0.0066337 0)
(1.17551 0.00335821 0)
(0.365175 -0.000563913 0)
(0.401597 0.0033451 0)
(1.21472 0.00590319 0)
(2.14502 0.0117904 0)
(3.18957 0.0173599 0)
(4.34644 0.0236603 0)
(5.58975 0.0287278 0)
(6.87808 0.0340311 0)
(8.13146 0.0397646 0)
(9.21645 0.0453606 0)
(9.90017 0.0470553 0)
(9.89668 0.0451679 0)
(9.19637 0.0413735 0)
(8.10636 0.0367459 0)
(6.84625 0.0313749 0)
(5.55208 0.024413 0)
(4.30473 0.0191206 0)
(3.14592 0.0126456 0)
(2.09663 0.00731262 0)
(1.16465 0.00336714 0)
(0.360997 -0.00116991 0)
(0.424226 0.00469306 0)
(1.23585 0.00881747 0)
(2.16426 0.0171594 0)
(3.20859 0.0238261 0)
(4.35853 0.0300072 0)
(5.60016 0.0380968 0)
(6.88662 0.0456792 0)
(8.13676 0.052048 0)
(9.22021 0.0576301 0)
(9.89705 0.0601241 0)
(9.89273 0.0583684 0)
(9.19116 0.0540653 0)
(8.09997 0.0467628 0)
(6.83826 0.0381485 0)
(5.54237 0.0306577 0)
(4.2916 0.0215436 0)
(3.1306 0.0154145 0)
(2.08082 0.00837058 0)
(1.15001 0.00401834 0)
(0.357283 -0.00115179 0)
(0.449463 0.00391125 0)
(1.2556 0.00977652 0)
(2.18432 0.0194806 0)
(3.22648 0.0280853 0)
(4.38064 0.0388655 0)
(5.61931 0.0474438 0)
(6.90171 0.0552636 0)
(8.14838 0.0633772 0)
(9.23023 0.0712165 0)
(9.89781 0.0737257 0)
(9.89023 0.0698935 0)
(9.1836 0.0633478 0)
(8.0876 0.0551708 0)
(6.82342 0.0455334 0)
(5.52663 0.0338708 0)
(4.27703 0.024582 0)
(3.11869 0.0164273 0)
(2.06805 0.0101244 0)
(1.13469 0.00404217 0)
(0.353312 0.000321796 0)
(0.473364 0.00138355 0)
(1.2804 0.0109047 0)
(2.2117 0.017866 0)
(3.25618 0.0323012 0)
(4.40197 0.0456877 0)
(5.63686 0.057664 0)
(6.91465 0.0673537 0)
(8.15748 0.0755473 0)
(9.23748 0.0840699 0)
(9.8957 0.0868527 0)
(9.88531 0.0833614 0)
(9.17538 0.076081 0)
(8.07889 0.0652138 0)
(6.81391 0.0517514 0)
(5.51637 0.0380787 0)
(4.26519 0.026545 0)
(3.10115 0.0186991 0)
(2.05153 0.0123951 0)
(1.11591 0.00376629 0)
(0.343436 0.00269064 0)
(0.495742 0.000587439 0)
(1.31295 0.0151072 0)
(2.24934 0.023472 0)
(3.28798 0.0388061 0)
(4.4365 0.0551878 0)
(5.66793 0.0684164 0)
(6.94157 0.0792355 0)
(8.17663 0.0894182 0)
(9.25127 0.099301 0)
(9.8963 0.102102 0)
(9.88259 0.0954712 0)
(9.16682 0.085313 0)
(8.06366 0.0715566 0)
(6.79533 0.0567618 0)
(5.49468 0.0433347 0)
(4.24211 0.0301527 0)
(3.08224 0.0195501 0)
(2.03067 0.0132584 0)
(1.09946 0.00241843 0)
(0.328852 0.00433609 0)
(0.530006 0.0019622 0)
(1.36817 0.021281 0)
(2.28852 0.0293752 0)
(3.31818 0.0462237 0)
(4.45546 0.0606337 0)
(5.68639 0.0756658 0)
(6.95628 0.0907654 0)
(8.1885 0.104202 0)
(9.26323 0.11483 0)
(9.89589 0.116261 0)
(9.87676 0.10964 0)
(9.15558 0.0982524 0)
(8.05044 0.0831998 0)
(6.77905 0.065355 0)
(5.47687 0.0469801 0)
(4.2206 0.0331357 0)
(3.05684 0.0197233 0)
(2.01173 0.00887715 0)
(1.09191 -0.00099431 0)
(0.317784 0.00426296 0)
(0.569941 0.00411632 0)
(1.415 0.0260161 0)
(2.3193 0.0392226 0)
(3.34555 0.052137 0)
(4.48941 0.0666737 0)
(5.71639 0.0847068 0)
(6.98316 0.103237 0)
(8.21048 0.117974 0)
(9.27951 0.131451 0)
(9.89601 0.13429 0)
(9.87234 0.124441 0)
(9.14298 0.110421 0)
(8.02796 0.0920396 0)
(6.74853 0.0725679 0)
(5.44147 0.0558039 0)
(4.1855 0.0397311 0)
(3.02477 0.0200592 0)
(1.98141 0.00459099 0)
(1.09372 -0.00459239 0)
(0.314281 0.00357813 0)
(0.633755 0.00512345 0)
(1.50498 0.0292828 0)
(2.36115 0.0461193 0)
(3.38109 0.0587941 0)
(4.51188 0.0702791 0)
(5.73436 0.0914033 0)
(6.99697 0.112811 0)
(8.22093 0.131353 0)
(9.29102 0.146629 0)
(9.89331 0.150742 0)
(9.86297 0.141399 0)
(9.1245 0.126873 0)
(8.00449 0.108002 0)
(6.72268 0.0864045 0)
(5.40938 0.0637821 0)
(4.14635 0.0450325 0)
(2.97916 0.0240612 0)
(1.93454 0.00392583 0)
(1.09601 -0.00537072 0)
(0.314147 0.00331059 0)
(0.680799 0.00685275 0)
(1.55784 0.0282798 0)
(2.38943 0.0508765 0)
(3.41496 0.0633217 0)
(4.5563 0.0808889 0)
(5.77184 0.105259 0)
(7.0273 0.126722 0)
(8.24572 0.14573 0)
(9.30523 0.166365 0)
(9.88864 0.171427 0)
(9.85093 0.16088 0)
(9.10191 0.143873 0)
(7.97085 0.122167 0)
(6.6759 0.0969463 0)
(5.36157 0.073606 0)
(4.10286 0.051027 0)
(2.93896 0.0274088 0)
(1.88955 0.00523252 0)
(1.10253 -0.00248429 0)
(0.314377 0.00317298 0)
(0.762639 0.00706634 0)
(1.66793 0.0315188 0)
(2.44828 0.058445 0)
(3.47266 0.0724054 0)
(4.59376 0.09542 0)
(5.79905 0.118846 0)
(7.04856 0.139206 0)
(8.25775 0.162795 0)
(9.31391 0.184051 0)
(9.87965 0.192482 0)
(9.83496 0.181613 0)
(9.07288 0.165402 0)
(7.93513 0.141797 0)
(6.64451 0.114125 0)
(5.32515 0.0788317 0)
(4.06211 0.0502265 0)
(2.89196 0.0331413 0)
(1.84003 0.00856724 0)
(1.09699 0.00222298 0)
(0.305413 0.00251621 0)
(0.809428 0.00860127 0)
(1.72895 0.0287653 0)
(2.48979 0.0588982 0)
(3.52928 0.0813851 0)
(4.65508 0.113292 0)
(5.85413 0.139242 0)
(7.09139 0.162372 0)
(8.28996 0.186843 0)
(9.32888 0.211151 0)
(9.87101 0.217241 0)
(9.81346 0.207875 0)
(9.03959 0.185988 0)
(7.89435 0.155466 0)
(6.59019 0.11907 0)
(5.27177 0.0865574 0)
(4.01296 0.051648 0)
(2.85647 0.037336 0)
(1.79774 0.00836593 0)
(1.09236 0.00611082 0)
(0.29354 0.00195445 0)
(0.905038 0.0102604 0)
(1.85367 0.0364116 0)
(2.57187 0.0730359 0)
(3.60796 0.092276 0)
(4.7023 0.135416 0)
(5.89718 0.1612 0)
(7.127 0.187209 0)
(8.31294 0.214873 0)
(9.34234 0.2388 0)
(9.85815 0.246799 0)
(9.79264 0.232447 0)
(9.00643 0.20918 0)
(7.85276 0.172617 0)
(6.55661 0.135327 0)
(5.23242 0.0901456 0)
(3.96067 0.0557813 0)
(2.80473 0.0436069 0)
(1.74948 0.00778498 0)
(1.07957 0.00926228 0)
(0.272273 0.00157187 0)
(0.963728 0.0107024 0)
(1.92881 0.0341577 0)
(2.64955 0.0775148 0)
(3.69281 0.103233 0)
(4.78791 0.150739 0)
(5.97087 0.186557 0)
(7.18603 0.219783 0)
(8.35876 0.2524 0)
(9.36727 0.278044 0)
(9.85258 0.282032 0)
(9.76888 0.265746 0)
(8.96784 0.23258 0)
(7.80488 0.187365 0)
(6.49032 0.13773 0)
(5.16542 0.102109 0)
(3.90033 0.0627356 0)
(2.74774 0.0443959 0)
(1.71365 0.00353581 0)
(1.07194 0.00991988 0)
(0.257279 0.00140116 0)
(1.07815 0.0157636 0)
(2.0706 0.0451232 0)
(2.74777 0.100125 0)
(3.76995 0.114387 0)
(4.84902 0.170496 0)
(6.02968 0.206942 0)
(7.23499 0.251935 0)
(8.40122 0.291637 0)
(9.39065 0.319972 0)
(9.84332 0.323001 0)
(9.74864 0.297205 0)
(8.93266 0.258775 0)
(7.7579 0.206668 0)
(6.44662 0.15722 0)
(5.11879 0.110345 0)
(3.84401 0.0706528 0)
(2.67304 0.0418903 0)
(1.67512 0.00296665 0)
(1.05936 0.0109253 0)
(0.231365 0.00192452 0)
(1.18279 0.0129875 0)
(2.20164 0.0487988 0)
(2.87637 0.108705 0)
(3.88125 0.14354 0)
(4.96487 0.199136 0)
(6.12403 0.243607 0)
(7.30941 0.294944 0)
(8.45961 0.338748 0)
(9.42326 0.370469 0)
(9.84137 0.373548 0)
(9.72417 0.340421 0)
(8.88406 0.292391 0)
(7.69207 0.231481 0)
(6.35482 0.168023 0)
(5.02179 0.124376 0)
(3.76158 0.0747454 0)
(2.58638 0.0367727 0)
(1.64264 0.00216582 0)
(1.05687 0.0091406 0)
(0.214911 0.00287167 0)
(1.30697 0.0229309 0)
(2.35942 0.0579464 0)
(2.99695 0.132213 0)
(3.97816 0.162181 0)
(5.05727 0.225149 0)
(6.20563 0.27761 0)
(7.37222 0.335049 0)
(8.51559 0.386356 0)
(9.44826 0.42602 0)
(9.83082 0.42688 0)
(9.69436 0.387459 0)
(8.8301 0.330602 0)
(7.6225 0.264581 0)
(6.2893 0.198071 0)
(4.95568 0.133005 0)
(3.6958 0.0758371 0)
(2.50694 0.0328979 0)
(1.61703 0.000337224 0)
(1.05208 0.0109332 0)
(0.188756 0.003378 0)
(1.49236 0.0190102 0)
(2.55013 0.0709828 0)
(3.17657 0.139224 0)
(4.11895 0.202979 0)
(5.19327 0.263988 0)
(6.31029 0.324327 0)
(7.46013 0.389227 0)
(8.58445 0.446927 0)
(9.47256 0.489898 0)
(9.81422 0.494759 0)
(9.6522 0.446303 0)
(8.7539 0.383483 0)
(7.5252 0.304236 0)
(6.16765 0.21824 0)
(4.82272 0.145665 0)
(3.58805 0.0806568 0)
(2.40892 0.033232 0)
(1.59305 0.00390101 0)
(1.05572 0.00990166 0)
(0.16535 0.00658421 0)
(1.63122 0.0294211 0)
(2.74845 0.0743774 0)
(3.34936 0.16858 0)
(4.27022 0.224851 0)
(5.33571 0.310058 0)
(6.42297 0.380348 0)
(7.54913 0.449356 0)
(8.6476 0.518017 0)
(9.48782 0.567079 0)
(9.7837 0.56536 0)
(9.5899 0.515044 0)
(8.66135 0.437812 0)
(7.41728 0.345769 0)
(6.06471 0.254991 0)
(4.73035 0.161036 0)
(3.49808 0.087453 0)
(2.32993 0.032354 0)
(1.5692 0.00839563 0)
(1.05128 0.0170548 0)
(0.128397 0.00865268 0)
(1.89835 0.0274815 0)
(2.9926 0.0960048 0)
(3.57683 0.179273 0)
(4.45611 0.266452 0)
(5.50555 0.356063 0)
(6.55769 0.443089 0)
(7.65575 0.526642 0)
(8.73676 0.610582 0)
(9.50304 0.659882 0)
(9.74563 0.659109 0)
(9.52013 0.591418 0)
(8.5555 0.502002 0)
(7.28975 0.393221 0)
(5.92056 0.279708 0)
(4.57268 0.172742 0)
(3.35187 0.0993065 0)
(2.23739 0.0397103 0)
(1.55704 0.0157272 0)
(1.03832 0.0202561 0)
(0.0723633 0.0162076 0)
(2.07919 0.0382449 0)
(3.2515 0.0970722 0)
(3.81783 0.219199 0)
(4.66381 0.302708 0)
(5.69555 0.418779 0)
(6.71402 0.527011 0)
(7.7873 0.627732 0)
(8.8196 0.723535 0)
(9.51245 0.774226 0)
(9.70218 0.758802 0)
(9.43201 0.679536 0)
(8.43075 0.569688 0)
(7.14347 0.433946 0)
(5.78766 0.310957 0)
(4.4607 0.196944 0)
(3.23935 0.107645 0)
(2.16132 0.0431379 0)
(1.53974 0.0218329 0)
(1.03854 0.0286952 0)
(0.000722908 0.0189424 0)
(2.44326 0.0408293 0)
(3.5697 0.132738 0)
(4.11218 0.245886 0)
(4.93432 0.371772 0)
(5.92645 0.503322 0)
(6.90638 0.634725 0)
(7.93333 0.750288 0)
(8.93692 0.864307 0)
(9.52504 0.906801 0)
(9.65642 0.88638 0)
(9.34198 0.776786 0)
(8.30112 0.640757 0)
(7.00098 0.480486 0)
(5.61651 0.327189 0)
(4.2785 0.217151 0)
(3.05654 0.114342 0)
(2.06892 0.0555291 0)
(1.51807 0.0412811 0)
(1.00872 0.0393971 0)
(-0.0986818 0.0247297 0)
(2.69677 0.0590892 0)
(3.90814 0.142727 0)
(4.43878 0.313375 0)
(5.21332 0.449065 0)
(6.17745 0.614446 0)
(7.11943 0.764251 0)
(8.10514 0.910922 0)
(9.04252 1.03104 0)
(9.52492 1.06579 0)
(9.60572 1.02337 0)
(9.23704 0.88357 0)
(8.148 0.714714 0)
(6.81008 0.529743 0)
(5.43162 0.372823 0)
(4.13787 0.232481 0)
(2.93102 0.118683 0)
(2.01995 0.0702762 0)
(1.52984 0.0534425 0)
(0.959493 0.057453 0)
(-0.222185 0.0407857 0)
(3.26581 0.0819953 0)
(4.35754 0.229791 0)
(4.83039 0.412924 0)
(5.57752 0.605753 0)
(6.48672 0.779286 -1.01548e-32)
(7.36299 0.953535 3.65553e-33)
(8.30028 1.10455 0)
(9.15138 1.22228 0)
(9.51636 1.23911 0)
(9.5468 1.18578 0)
(9.11548 1.00525 0)
(7.96519 0.813218 0)
(6.6091 0.600937 0)
(5.20838 0.394511 0)
(3.92757 0.248606 0)
(2.74911 0.114254 0)
(1.9432 0.0674464 0)
(1.52274 0.0639847 0)
(0.864169 0.0654872 0)
(-0.462353 0.0332706 0)
(3.8177 0.210278 -1.16773e-18)
(4.77323 0.322314 9.73719e-19)
(5.23257 0.586701 0)
(5.93914 0.795703 -5.54824e-19)
(6.79255 1.00374 4.48251e-19)
(7.61576 1.17881 -3.8772e-33)
(8.51192 1.34365 0)
(9.21939 1.44594 -4.58483e-20)
(9.46498 1.45031 1.3191e-20)
(9.43626 1.37618 1.98554e-20)
(8.91539 1.16385 0)
(7.68127 0.928747 -3.0585e-19)
(6.29108 0.673948 -3.78591e-19)
(4.91247 0.427776 6.52028e-19)
(3.69071 0.251817 -5.3297e-19)
(2.56879 0.118844 0)
(1.91085 0.0685364 -2.0054e-19)
(1.53435 0.0496521 0)
(0.812591 0.0359285 -1.05046e-18)
(-0.636162 -0.00771889 1.24281e-18)
(4.16052 0.407265 9.18537e-20)
(5.17325 0.581279 -4.28626e-18)
(5.55116 0.854045 6.40734e-19)
(6.21392 1.05699 2.29095e-18)
(7.01384 1.25266 9.80828e-19)
(7.78649 1.44014 -1.54845e-18)
(8.63046 1.61646 0)
(9.21125 1.70841 0)
(9.36975 1.70716 2.72846e-20)
(9.2774 1.60536 0)
(8.68776 1.35274 1.04791e-18)
(7.41769 1.07366 3.34425e-19)
(6.02607 0.762518 -3.70284e-20)
(4.69062 0.490462 -8.44127e-19)
(3.44514 0.266578 0)
(2.48075 0.133677 0)
(1.90128 0.0783065 -3.47924e-18)
(1.59643 0.0603034 9.02276e-18)
(1.02028 0.0536132 -5.33428e-18)
(-0.5366 -0.0478651 -6.28166e-18)
(4.38978 0.645794 3.99823e-18)
(5.41463 0.899877 -1.54268e-18)
(5.79067 1.1287 -5.54189e-19)
(6.40765 1.31381 -4.22029e-18)
(7.16249 1.53494 3.73822e-19)
(7.8858 1.72583 4.21455e-18)
(8.67832 1.91163 -1.18261e-18)
(9.15936 1.99052 0)
(9.26111 1.97965 -1.55739e-19)
(9.12189 1.8484 1.2535e-18)
(8.48932 1.54895 -2.9772e-18)
(7.19157 1.23046 1.57616e-18)
(5.80744 0.878007 -1.26718e-18)
(4.48568 0.579172 2.69947e-18)
(3.34336 0.36554 0)
(2.48247 0.216398 -1.03073e-18)
(1.97837 0.184624 0)
(1.71499 0.182417 5.53648e-18)
(1.07909 0.0895476 -1.30778e-17)
(-0.416007 -0.0555352 8.18664e-18)
(4.53824 0.882803 -1.64395e-17)
(5.64025 1.26786 8.53341e-18)
(5.97057 1.46565 1.48974e-18)
(6.54745 1.63223 0)
(7.25565 1.83712 2.79433e-18)
(7.93397 2.03482 -3.28589e-18)
(8.67733 2.21589 1.16761e-18)
(9.08394 2.28153 0)
(9.14157 2.26167 1.33886e-19)
(8.96718 2.10142 -8.11322e-19)
(8.30864 1.76455 3.05386e-18)
(7.00389 1.39808 0)
(5.66216 1.00955 -2.78554e-18)
(4.37554 0.677279 1.48332e-18)
(3.24863 0.432045 3.99669e-18)
(2.4775 0.272384 -3.55845e-18)
(2.05205 0.230426 5.60245e-18)
(1.81661 0.235445 -1.23771e-17)
(1.2943 0.175698 7.83311e-18)
(-0.166318 -0.0174786 -9.75347e-18)
(4.61745 1.11536 9.22522e-18)
(5.75035 1.58081 -8.91899e-18)
(6.08493 1.74431 4.80126e-18)
(6.62444 1.91899 -7.32739e-18)
(7.29271 2.15068 5.61598e-18)
(7.9411 2.34761 -1.26587e-18)
(8.63341 2.52429 6.53995e-20)
(8.97513 2.5803 9.39208e-19)
(8.99793 2.54508 -3.06939e-19)
(8.79553 2.35833 -2.23763e-18)
(8.12146 1.98624 -6.88002e-18)
(6.83344 1.57374 -2.60312e-18)
(5.51759 1.14998 -4.32167e-20)
(4.26298 0.796432 -5.88623e-18)
(3.2697 0.543954 -1.01324e-19)
(2.59103 0.402048 5.50219e-18)
(2.21939 0.390319 -1.71571e-18)
(2.00447 0.418628 -9.31908e-19)
(1.4434 0.270788 0)
(-0.0662705 0.00267516 2.24818e-17)
(4.64766 1.30771 0)
(5.82783 1.92496 2.5149e-18)
(6.15401 2.05945 0)
(6.65451 2.23592 -3.01509e-19)
(7.29351 2.45798 -6.27287e-18)
(7.91115 2.66041 2.54806e-18)
(8.55217 2.83787 -1.41289e-18)
(8.83977 2.88407 -1.17443e-18)
(8.83196 2.8286 -4.75566e-19)
(8.60218 2.61448 4.53211e-19)
(7.92728 2.2083 3.86496e-18)
(6.67176 1.75014 5.86744e-18)
(5.39583 1.29225 -3.78469e-18)
(4.19935 0.902776 6.65994e-18)
(3.23375 0.624109 -5.33336e-18)
(2.61962 0.501965 0)
(2.31346 0.470375 -1.34374e-17)
(2.09728 0.489526 1.79974e-17)
(1.59574 0.366283 1.39091e-18)
(0.18479 0.0740685 -2.52235e-17)
(4.64321 1.48678 -3.45802e-19)
(5.85544 2.21505 -6.14947e-18)
(6.1855 2.31296 -2.1321e-17)
(6.64826 2.51047 1.30073e-17)
(7.25401 2.7537 -4.1116e-18)
(7.8425 2.96886 2.83942e-18)
(8.43733 3.14884 -3.1561e-18)
(8.68398 3.18746 9.28107e-19)
(8.65073 3.11101 -1.10343e-18)
(8.39853 2.86744 -2.5679e-19)
(7.73305 2.42657 -4.82119e-18)
(6.52334 1.92786 -6.86005e-18)
(5.2837 1.43512 4.36839e-18)
(4.15394 1.02946 -2.4739e-18)
(3.32558 0.768713 6.09963e-18)
(2.81841 0.65526 0)
(2.55838 0.651633 -8.74988e-18)
(2.35388 0.687091 1.29735e-17)
(1.84085 0.520678 2.47294e-17)
(0.339705 0.156573 -2.89758e-17)
(4.61547 1.65862 -3.05294e-17)
(5.84811 2.49283 1.56159e-17)
(6.19009 2.58856 1.37504e-17)
(6.62139 2.8021 -1.3944e-17)
(7.19207 3.0458 3.3659e-19)
(7.75363 3.26875 6.42053e-18)
(8.30655 3.45244 1.25659e-18)
(8.52055 3.48598 7.12587e-20)
(8.46946 3.39062 -1.48814e-18)
(8.20172 3.11993 2.11316e-18)
(7.54729 2.64411 4.27435e-18)
(6.3905 2.11213 1.07646e-17)
(5.1944 1.58638 0)
(4.13691 1.15663 2.4123e-19)
(3.34347 0.882713 -1.75711e-17)
(2.85435 0.800774 4.13008e-18)
(2.62257 0.799587 1.9758e-17)
(2.42391 0.843653 -5.79519e-18)
(1.94217 0.665932 1.23219e-17)
(0.42617 0.211321 -9.88247e-19)
(4.56327 1.8451 4.48019e-19)
(5.83243 2.74159 1.38208e-17)
(6.16803 2.8007 9.98644e-18)
(6.5571 3.05472 -2.31262e-17)
(7.10391 3.32166 1.67975e-17)
(7.64649 3.55751 -7.0138e-18)
(8.1607 3.7441 -1.35188e-18)
(8.35064 3.77292 -1.20247e-18)
(8.28882 3.66185 1.42109e-18)
(8.0103 3.36934 -3.9507e-18)
(7.36453 2.86132 0)
(6.25697 2.30156 -4.47139e-18)
(5.0981 1.74652 5.12279e-18)
(4.11378 1.30824 6.6478e-18)
(3.45101 1.08604 -3.90282e-18)
(3.06634 1.01167 -9.28658e-18)
(2.86129 1.00411 -2.829e-18)
(2.64057 1.05423 -1.446e-19)
(2.1049 0.819248 0)
(0.521134 0.279277 0)
(4.49328 1.99604 -1.40464e-17)
(5.78421 2.96007 0)
(6.12721 3.02907 1.08615e-17)
(6.48454 3.30302 -4.65979e-18)
(7.0092 3.57921 -1.72348e-17)
(7.52951 3.82907 4.88034e-18)
(8.01023 4.01998 -1.46376e-18)
(8.1805 4.04523 1.21097e-18)
(8.10995 3.92137 8.66676e-19)
(7.82309 3.61308 -2.28092e-18)
(7.18446 3.07802 2.64147e-18)
(6.12602 2.49387 1.44108e-17)
(5.02015 1.91241 4.54336e-19)
(4.11626 1.46746 -7.08519e-18)
(3.47724 1.23501 1.32347e-17)
(3.07762 1.17724 8.57149e-20)
(2.88993 1.17597 3.04079e-18)
(2.70144 1.21291 -1.49223e-17)
(2.18331 0.967716 1.52175e-17)
(0.547788 0.315333 -1.79954e-17)
(4.43487 2.15837 -5.11248e-21)
(5.74296 3.18662 0)
(6.06952 3.22167 0)
(6.39151 3.52082 4.53157e-18)
(6.89343 3.81573 6.37059e-18)
(7.40002 4.08284 -4.08448e-18)
(7.85155 4.27671 4.32552e-18)
(8.00536 4.29933 0)
(7.92962 4.16528 -1.83824e-18)
(7.63497 3.8452 6.21047e-18)
(7.00486 3.28998 8.98076e-18)
(5.99041 2.68465 -5.48059e-18)
(4.92693 2.08116 -6.74633e-18)
(4.09057 1.64925 1.58947e-17)
(3.56024 1.46168 -4.73895e-18)
(3.25612 1.40505 -5.63464e-18)
(3.08016 1.40558 -3.48119e-18)
(2.83647 1.43937 -1.65147e-17)
(2.25059 1.09778 2.30608e-18)
(0.549076 0.348805 1.96802e-17)
(4.35411 2.28019 -5.44767e-18)
(5.67756 3.37031 -8.33059e-18)
(6.00443 3.42225 4.97575e-19)
(6.29041 3.732 -8.11541e-21)
(6.77377 4.03216 2.50788e-18)
(7.26703 4.31306 -9.29373e-18)
(7.69274 4.5126 0)
(7.83287 4.53502 -7.19958e-20)
(7.75242 4.39426 5.68784e-20)
(7.45114 4.06525 1.03435e-17)
(6.82984 3.49523 -2.02283e-18)
(5.857 2.87235 2.52984e-18)
(4.847 2.25309 0)
(4.07855 1.82812 -8.6649e-18)
(3.5607 1.63206 1.06838e-17)
(3.22127 1.57656 0)
(3.06826 1.55279 -7.61344e-18)
(2.86791 1.57778 2.23374e-17)
(2.27556 1.22365 2.71426e-18)
(0.529461 0.359499 -2.42982e-17)
(4.29937 2.41634 -1.15035e-17)
(5.61808 3.5745 1.41665e-17)
(5.92146 3.60126 0)
(6.18133 3.92344 1.03853e-17)
(6.64795 4.23003 0)
(7.13009 4.52404 9.31398e-18)
(7.53206 4.72722 0)
(7.66029 4.75091 0)
(7.5772 4.60593 -1.1136e-18)
(7.27228 4.27184 -1.021e-17)
(6.6578 3.69106 -1.68864e-17)
(5.71877 3.05299 3.22882e-18)
(4.74868 2.42768 1.19596e-17)
(4.02949 2.02267 9.75835e-18)
(3.60217 1.86382 -3.44563e-17)
(3.35505 1.81555 -1.39076e-17)
(3.18706 1.77064 8.1249e-18)
(2.92682 1.77805 0)
(2.26902 1.32187 2.36319e-17)
(0.48372 0.366621 -2.66754e-17)
(4.2233 2.52989 1.23804e-17)
(5.54679 3.7505 -1.52315e-17)
(5.84529 3.7916 0)
(6.0782 4.11309 -3.47967e-19)
(6.52944 4.41774 -4.21822e-18)
(6.99911 4.7173 0)
(7.37739 4.92232 -9.14931e-19)
(7.49531 4.94873 6.79456e-19)
(7.40795 4.80091 -1.16453e-18)
(7.10169 4.4654 9.39608e-19)
(6.48989 3.87694 0)
(5.57919 3.22476 1.31479e-17)
(4.66021 2.603 1.74314e-19)
(3.99801 2.20916 5.31065e-18)
(3.56774 2.03185 6.29629e-18)
(3.27462 1.97803 0)
(3.13265 1.90334 -1.37272e-17)
(2.92014 1.89037 2.70097e-17)
(2.2352 1.41189 -2.87584e-17)
(0.413071 0.351328 5.85181e-17)
(4.16947 2.63978 0)
(5.47517 3.92528 0)
(5.75825 3.95449 -8.14485e-18)
(5.9777 4.28575 0)
(6.41479 4.59282 0)
(6.87353 4.89923 1.04679e-17)
(7.22778 5.10172 -9.65456e-19)
(7.33406 5.12941 7.51516e-19)
(7.24387 4.97895 1.42573e-20)
(6.93486 4.64367 0)
(6.32417 4.05089 -2.81784e-18)
(5.43695 3.38569 -1.08879e-17)
(4.55785 2.77574 -1.34015e-17)
(3.94021 2.41199 -5.45693e-18)
(3.5692 2.24873 6.94118e-18)
(3.36084 2.21023 -1.6348e-17)
(3.18432 2.13103 2.97964e-17)
(2.89977 2.05184 3.86975e-19)
(2.15995 1.46257 -2.70311e-17)
(0.319677 0.320862 -4.06003e-18)
(4.10797 2.75076 0)
(5.40554 4.08935 -1.11188e-17)
(5.68627 4.12836 9.07815e-18)
(5.88487 4.45598 0)
(6.30876 4.76068 0)
(6.75724 5.0688 -2.24187e-17)
(7.08612 5.26713 0)
(7.1815 5.29496 0)
(7.08709 5.14202 -2.95711e-18)
(6.77294 4.80733 2.27284e-18)
(6.16372 4.21287 -2.32424e-17)
(5.30011 3.53823 0)
(4.46525 2.94315 -1.45054e-17)
(3.89563 2.60378 3.4501e-19)
(3.51112 2.42366 -2.21073e-17)
(3.24104 2.35253 8.87367e-18)
(3.10214 2.24346 1.76851e-19)
(2.86286 2.14247 -3.21403e-17)
(2.05344 1.49735 1.43249e-17)
(0.211454 0.267799 4.39496e-18)
(4.0623 2.85427 0)
(5.33614 4.23894 -1.23797e-17)
(5.60965 4.27003 9.37471e-18)
(5.79927 4.60802 2.0187e-17)
(6.21056 4.91606 4.36461e-18)
(6.64713 5.22966 -2.54902e-18)
(6.95066 5.42163 2.00558e-18)
(7.03418 5.44705 -3.31531e-18)
(6.93526 5.2905 3.16899e-18)
(6.61402 4.95526 1.48938e-17)
(6.01081 4.36243 1.9378e-17)
(5.16858 3.68291 3.66387e-18)
(4.37334 3.10988 2.09724e-17)
(3.82846 2.7995 1.30566e-17)
(3.48419 2.63841 1.59049e-17)
(3.28312 2.57346 -9.73612e-18)
(3.10546 2.45541 -1.17917e-17)
(2.77097 2.28254 1.38949e-17)
(1.92493 1.48453 -7.95863e-18)
(0.0740237 0.205427 1.45444e-17)
(4.01932 2.95856 1.69779e-17)
(5.27785 4.39403 1.96894e-17)
(5.54839 4.43198 4.87136e-18)
(5.72037 4.76208 8.4708e-20)
(6.11873 5.06713 -1.48942e-17)
(6.54441 5.38042 6.35119e-18)
(6.82311 5.56587 -2.15243e-18)
(6.8962 5.58817 1.05602e-20)
(6.79209 5.42794 -4.2602e-18)
(6.46456 5.09096 -1.66267e-17)
(5.86934 4.50129 1.21602e-18)
(5.04747 3.82062 0)
(4.29235 3.27481 0)
(3.76621 2.98549 -6.76635e-18)
(3.40775 2.81371 -2.5611e-17)
(3.14076 2.71007 2.09299e-17)
(2.98059 2.53727 1.27568e-17)
(2.68183 2.32904 0)
(1.75249 1.46367 2.57689e-17)
(-0.056038 0.0961903 -1.58946e-17)
(3.98486 3.05527 -8.85943e-18)
(5.21835 4.51612 7.40805e-18)
(5.48638 4.55176 -1.08629e-17)
(5.64951 4.89497 -1.21669e-17)
(6.03691 5.20575 -5.52412e-18)
(6.44793 5.52351 1.87537e-18)
(6.70378 5.70269 0)
(6.7667 5.72054 3.79488e-18)
(6.65773 5.55601 6.07185e-20)
(6.32697 5.21755 0)
(5.73927 4.63036 0)
(4.9408 3.95561 2.46643e-18)
(4.20922 3.43738 3.4208e-18)
(3.69392 3.1741 -7.20813e-18)
(3.35609 3.0146 1.8432e-17)
(3.13407 2.92012 -2.25745e-17)
(2.9361 2.73494 -2.73527e-17)
(2.52564 2.42828 2.45071e-17)
(1.47814 1.33879 -9.56206e-18)
(-0.158441 -0.0123408 5.70456e-18)
(3.96467 3.15982 9.88012e-18)
(5.17611 4.66668 0)
(5.43657 4.70421 0)
(5.58494 5.03551 -4.01411e-18)
(5.95989 5.34341 3.23927e-18)
(6.35906 5.65917 -1.88165e-19)
(6.59449 5.83259 -7.03496e-18)
(6.64914 5.84672 -4.83094e-18)
(6.53612 5.67764 7.51904e-18)
(6.20401 5.33763 -1.44014e-18)
(5.62217 4.75133 3.25419e-18)
(4.8443 4.08755 -2.12007e-17)
(4.13082 3.59562 -2.16099e-17)
(3.63056 3.35552 -3.79077e-18)
(3.26861 3.19163 0)
(2.9708 3.06094 -2.98427e-19)
(2.74875 2.79924 1.43456e-17)
(2.36332 2.38659 -2.66602e-17)
(1.3479 1.26719 2.0094e-17)
(-0.199436 -0.373109 1.85611e-17)
(3.93985 3.25719 -2.07363e-17)
(5.12432 4.76937 -8.6116e-18)
(5.38655 4.80864 8.42655e-20)
(5.52665 5.15371 4.80869e-18)
(5.89248 5.4688 0)
(6.27663 5.78951 1.54467e-17)
(6.49238 5.95902 8.55078e-18)
(6.53961 5.9703 -8.57629e-19)
(6.42221 5.7969 -3.67177e-18)
(6.08917 5.45532 -1.39701e-18)
(5.51058 4.86864 1.29291e-18)
(4.74974 4.21871 1.85372e-17)
(4.05438 3.75883 2.09713e-17)
(3.56096 3.54293 3.62841e-18)
(3.20152 3.39538 1.86659e-17)
(2.93046 3.2801 0)
(2.67368 3.00743 0)
(2.12087 2.48123 1.70519e-17)
(0.79619 0.982287 3.1507e-20)
(-0.0544919 0.481921 -1.85175e-17)
(3.93616 3.36063 1.11083e-17)
(5.0949 4.91289 2.63251e-17)
(5.34815 4.95279 -4.0248e-17)
(5.47201 5.28365 2.46896e-17)
(5.82584 5.59657 -3.02635e-18)
(6.19728 5.91539 1.91362e-17)
(6.39504 6.0816 0)
(6.43624 6.09241 4.81177e-18)
(6.31505 5.91627 0)
(5.98018 5.57349 1.68217e-17)
(5.40201 4.98613 -1.85163e-18)
(4.65579 4.35278 2.07073e-18)
(3.98144 3.92953 2.37567e-17)
(3.49572 3.73926 -7.84469e-18)
(3.1117 3.60293 -9.75081e-18)
(2.75591 3.4679 0)
(2.39833 3.12741 0)
(1.68438 2.36417 0)
(0.665296 1.40954 -9.27687e-18)
(0.234721 2.19096 -5.89013e-18)
(3.91676 3.45275 0)
(5.05035 5.00478 0)
(5.30326 5.04474 1.43223e-17)
(5.4192 5.39001 -2.06492e-17)
(5.7681 5.71154 1.43342e-17)
(6.12205 6.03464 -1.75217e-17)
(6.30208 6.1995 -8.26771e-19)
(6.33771 6.21075 6.46514e-19)
(6.21184 6.03301 8.37303e-19)
(5.87464 5.68927 -1.92332e-17)
(5.29643 5.102 3.11873e-18)
(4.56626 4.48856 1.84638e-17)
(3.91347 4.10433 -2.36408e-17)
(3.4319 3.9416 -2.60874e-17)
(3.04546 3.82954 8.96557e-18)
(2.7092 3.71527 0)
(2.28478 3.34301 1.34469e-17)
(1.36104 2.40695 1.59862e-17)
(0.864275 2.22606 -1.81819e-17)
(0.572675 2.87659 2.19556e-17)
(3.91616 3.55109 0)
(5.02568 5.13961 2.07192e-17)
(5.27007 5.1802 -3.69203e-18)
(5.37358 5.50971 2.5279e-17)
(5.7082 5.82744 -1.50549e-17)
(6.04823 6.1492 0)
(6.21268 6.31186 0)
(6.24316 6.3247 0)
(6.11289 6.14643 1.8142e-18)
(5.77244 5.80176 6.11851e-19)
(5.19474 5.21605 0)
(4.48179 4.62574 -1.82596e-17)
(3.85202 4.28108 0)
(3.38014 4.1484 1.86471e-17)
(2.98151 4.05801 -1.28638e-17)
(2.56736 3.92459 -1.03491e-17)
(1.96739 3.40433 -2.41126e-17)
(1.23812 2.75605 -1.48821e-17)
(0.866925 2.99033 -2.6217e-17)
(0.802876 3.34528 1.82167e-17)
(3.90031 3.63678 -7.04211e-18)
(4.99078 5.2213 2.42096e-19)
(5.23999 5.26775 -3.8651e-18)
(5.33121 5.61195 -1.99673e-17)
(5.65684 5.93312 0)
(5.98014 6.25862 0)
(6.12668 6.41952 0)
(6.15191 6.43409 -1.47372e-19)
(6.01538 6.25585 -2.55522e-18)
(5.6715 5.91032 0)
(5.09605 5.32771 0)
(4.40378 4.7638 0)
(3.80023 4.45949 0)
(3.33808 4.35579 1.40092e-17)
(2.94014 4.28497 3.5074e-17)
(2.53612 4.12856 1.09296e-17)
(1.97786 3.54042 2.3637e-17)
(1.53142 3.19407 -2.09486e-17)
(1.10934 3.59614 8.4244e-18)
(0.976342 3.73062 0)
(3.89861 3.72295 6.81273e-18)
(4.97341 5.34927 -4.14049e-17)
(5.20595 5.39173 -1.19475e-17)
(5.28526 5.72474 -2.97367e-18)
(5.60329 6.04509 3.51379e-18)
(5.90988 6.36531 -2.42176e-17)
(6.04167 6.52402 1.60194e-18)
(6.06149 6.54007 7.421e-18)
(5.91903 6.36236 0)
(5.57219 6.01599 -1.28777e-18)
(5.00129 5.438 1.17354e-18)
(4.33233 4.90251 0)
(3.75717 4.63743 0)
(3.31226 4.56335 -1.75242e-17)
(2.92341 4.50531 3.26755e-18)
(2.48856 4.30681 -1.03326e-17)
(1.82665 3.72844 2.30607e-17)
(1.28312 3.65999 2.07104e-17)
(1.01734 4.00804 -3.54893e-17)
(0.939642 4.07449 1.85826e-17)
(3.87185 3.80396 1.27281e-17)
(4.93115 5.4265 3.85447e-17)
(5.16754 5.47033 1.45039e-17)
(5.24391 5.82315 0)
(5.55285 6.14887 0)
(5.8367 6.4699 1.83054e-17)
(5.95401 6.62771 -1.00369e-17)
(5.96804 6.64459 -6.91065e-18)
(5.81899 6.46761 -1.5407e-19)
(5.47116 6.12042 1.37487e-17)
(4.90861 5.54829 -2.20592e-17)
(4.26719 5.04237 0)
(3.72507 4.81434 0)
(3.30176 4.7664 -1.26473e-17)
(2.91966 4.71658 -1.62588e-17)
(2.46522 4.48121 0)
(1.89227 3.96782 -3.32563e-17)
(1.5535 4.07284 -6.22453e-18)
(1.36981 4.49466 3.64283e-17)
(1.07551 4.50401 -1.91746e-17)
(3.86901 3.8872 -2.40531e-17)
(4.90612 5.55994 -1.82801e-17)
(5.13174 5.61149 0)
(5.19514 5.94662 0)
(5.48462 6.26128 0)
(5.75455 6.57687 0)
(5.85905 6.73023 1.05979e-17)
(5.86799 6.7477 -8.37802e-18)
(5.7145 6.57146 0)
(5.36838 6.22347 -1.23287e-17)
(4.81822 5.65869 3.99019e-17)
(4.20747 5.18221 1.71892e-18)
(3.70115 4.98706 2.5773e-18)
(3.30387 4.96345 2.14776e-17)
(2.93435 4.91603 -1.42974e-17)
(2.44398 4.60268 0)
(1.9793 4.28382 1.06941e-17)
(1.52373 4.64832 6.49799e-19)
(1.11948 4.87281 -5.75537e-18)
(0.721398 4.95199 1.15972e-17)
(3.83001 3.96905 1.13561e-17)
(4.84631 5.62818 -1.74687e-17)
(5.0791 5.68067 0)
(5.1297 6.04135 -4.58972e-18)
(5.41482 6.36465 1.72861e-17)
(5.66642 6.68116 0)
(5.75583 6.83131 0)
(5.76192 6.84888 1.50459e-17)
(5.60427 6.67317 -4.90006e-19)
(5.26281 6.32438 1.21156e-17)
(4.72901 5.76801 -1.89769e-17)
(4.15244 5.32037 1.25036e-17)
(3.68586 5.15326 0)
(3.31881 5.14601 -1.17878e-17)
(2.95785 5.08969 7.28961e-18)
(2.50078 4.81344 7.94345e-18)
(2.03644 4.58779 0)
(1.68814 4.94995 5.50028e-18)
(1.27266 5.54122 9.53745e-18)
(1.14269 5.72476 2.77572e-18)
(3.80976 4.05483 -2.13149e-17)
(4.80358 5.77151 2.50169e-17)
(5.01583 5.82392 1.86964e-17)
(5.05648 6.16068 -4.91017e-18)
(5.32903 6.47701 -2.60498e-17)
(5.5636 6.78485 0)
(5.64529 6.93176 8.43726e-18)
(5.64913 6.9481 -6.22765e-18)
(5.48997 6.77263 -3.87182e-19)
(5.15596 6.42257 -1.05573e-17)
(4.64139 5.87521 -9.09786e-19)
(4.10122 5.45499 -1.40138e-17)
(3.67528 5.30919 1.71366e-17)
(3.34026 5.31155 5.42967e-18)
(3.00604 5.25917 -1.26655e-17)
(2.52142 4.93452 1.38265e-17)
(2.25769 4.81909 0)
(1.8984 5.59832 0)
(1.65973 6.12262 2.27594e-18)
(0.502389 6.15575 -7.02155e-18)
(3.75073 4.136 9.65456e-18)
(4.72637 5.84447 2.30768e-17)
(4.95071 5.89582 -1.81901e-17)
(4.97761 6.25867 1.77217e-17)
(5.24091 6.57928 2.49226e-17)
(5.45777 6.88724 0)
(5.52947 7.03062 -9.01915e-18)
(5.53183 7.04509 -7.66271e-18)
(5.37237 6.86883 0)
(5.04817 6.51669 0)
(4.55579 5.97818 0)
(4.05377 5.58323 0)
(3.66833 5.4524 -1.95256e-17)
(3.36885 5.45358 -7.47383e-18)
(3.05406 5.37394 0)
(2.65045 5.1097 -7.05197e-18)
(2.47536 5.24997 0)
(2.49428 5.62412 -3.20792e-18)
(2.55677 5.58197 4.04175e-18)
(1.40451 5.59695 -1.5612e-18)
(3.72199 4.22045 -1.83421e-17)
(4.67991 6.00744 -1.45616e-17)
(4.87248 6.05894 -1.12387e-17)
(4.88547 6.38998 -1.65358e-17)