/*--------------------------------*- C++ -*----------------------------------*\
| =========                 |                                                 |
| \\      /  F ield         | OpenFOAM: The Open Source CFD Toolbox           |
|  \\    /   O peration     | Version:  2412                                  |
|   \\  /    A nd           | Website:  www.openfoam.com                      |
|    \\/     M anipulation  |                                                 |
\*---------------------------------------------------------------------------*/
FoamFile
{
    version     2.0;
    format      ascii;
    arch        "LSB;label=32;scalar=64";
    class       volVectorField;
    location    "0.27";
    object      U_0_0_0;
}
// * * * * * * * * * * * * * * * * * * * * * * * * * * * * * * * * * * * * * //

dimensions      [0 1 -1 0 0 0 0];

internalField   nonuniform List<vector> 
800
(
(0.00213016 0 0)
(0.00639051 0 0)
(0.0106508 0 0)
(0.014911 0 0)
(0.019171 0 0)
(0.0234309 0 0)
(0.0276905 0 0)
(0.0319499 0 0)
(0.0362089 0 0)
(0.0404676 0 0)
(0.0447259 0 0)
(0.0489837 0 0)
(0.053241 0 0)
(0.0574978 0 0)
(0.0617541 0 0)
(0.0660097 0 0)
(0.0702647 0 0)
(0.0745189 0 0)
(0.0787724 0 0)
(0.0830252 0 0)
(0.0872771 0 0)
(0.0915281 0 0)
(0.0957783 0 0)
(0.100027 0 0)
(0.104276 0 0)
(0.108523 0 0)
(0.112769 0 0)
(0.117014 0 0)
(0.121257 0 0)
(0.1255 0 0)
(0.129741 0 0)
(0.133981 0 0)
(0.13822 0 0)
(0.142457 0 0)
(0.146693 0 0)
(0.150927 0 0)
(0.15516 0 0)
(0.159391 0 0)
(0.163621 0 0)
(0.167849 0 0)
(0.172075 0 0)
(0.1763 0 0)
(0.180522 0 0)
(0.184743 0 0)
(0.188962 0 0)
(0.19318 0 0)
(0.197395 0 0)
(0.201608 0 0)
(0.205819 0 0)
(0.210028 0 0)
(0.214235 0 0)
(0.218439 0 0)
(0.222642 0 0)
(0.226842 0 0)
(0.23104 0 0)
(0.235235 0 0)
(0.239428 0 0)
(0.243619 0 0)
(0.247807 0 0)
(0.251992 0 0)
(0.256175 0 0)
(0.260355 0 0)
(0.264532 0 0)
(0.268707 0 0)
(0.272879 0 0)
(0.277048 0 0)
(0.281214 0 0)
(0.285377 0 0)
(0.289538 0 0)
(0.293695 0 0)
(0.297849 0 0)
(0.302 0 0)
(0.306147 0 0)
(0.310292 0 0)
(0.314433 0 0)
(0.318571 0 0)
(0.322705 0 0)
(0.326836 0 0)
(0.330964 0 0)
(0.335088 0 0)
(0.339208 0 0)
(0.343325 0 0)
(0.347438 0 0)
(0.351547 0 0)
(0.355652 0 0)
(0.359754 0 0)
(0.363852 0 0)
(0.367945 0 0)
(0.372035 0 0)
(0.376121 0 0)
(0.380202 0 0)
(0.384279 0 0)
(0.388352 0 0)
(0.392421 0 0)
(0.396485 0 0)
(0.400545 0 0)
(0.404601 0 0)
(0.408652 0 0)
(0.412698 0 0)
(0.41674 0 0)
(0.420777 0 0)
(0.42481 0 0)
(0.428837 0 0)
(0.43286 0 0)
(0.436878 0 0)
(0.44089 0 0)
(0.444898 0 0)
(0.448901 0 0)
(0.452898 0 0)
(0.45689 0 0)
(0.460877 0 0)
(0.464859 0 0)
(0.468835 0 0)
(0.472806 0 0)
(0.476771 0 0)
(0.48073 0 0)
(0.484684 0 0)
(0.488632 0 0)
(0.492575 0 0)
(0.496511 0 0)
(0.500442 0 0)
(0.504366 0 0)
(0.508285 0 0)
(0.512197 0 0)
(0.516103 0 0)
(0.520003 0 0)
(0.523897 0 0)
(0.527784 0 0)
(0.531665 0 0)
(0.535539 0 0)
(0.539406 0 0)
(0.543267 0 0)
(0.547121 0 0)
(0.550969 0 0)
(0.554809 0 0)
(0.558642 0 0)
(0.562469 0 0)
(0.566288 0 0)
(0.5701 0 0)
(0.573904 0 0)
(0.577702 0 0)
(0.581491 0 0)
(0.585274 0 0)
(0.589049 0 0)
(0.592816 0 0)
(0.596575 0 0)
(0.600326 0 0)
(0.60407 0 0)
(0.607805 0 0)
(0.611533 0 0)
(0.615252 0 0)
(0.618963 0 0)
(0.622665 0 0)
(0.626359 0 0)
(0.630045 0 0)
(0.633722 0 0)
(0.63739 0 0)
(0.64105 0 0)
(0.6447 0 0)
(0.648342 0 0)
(0.651974 0 0)
(0.655598 0 0)
(0.659212 0 0)
(0.662816 0 0)
(0.666412 0 0)
(0.669997 0 0)
(0.673573 0 0)
(0.677139 0 0)
(0.680696 0 0)
(0.684242 0 0)
(0.687779 0 0)
(0.691305 0 0)
(0.694821 0 0)
(0.698326 0 0)
(0.701821 0 0)
(0.705305 0 0)
(0.708779 0 0)
(0.712242 0 0)
(0.715694 0 0)
(0.719134 0 0)
(0.722564 0 0)
(0.725982 0 0)
(0.729389 0 0)
(0.732784 0 0)
(0.736168 0 0)
(0.73954 0 0)
(0.7429 0 0)
(0.746248 0 0)
(0.749584 0 0)
(0.752907 0 0)
(0.756218 0 0)
(0.759517 0 0)
(0.762803 0 0)
(0.766076 0 0)
(0.769336 0 0)
(0.772583 0 0)
(0.775817 0 0)
(0.779037 0 0)
(0.782244 0 0)
(0.785437 0 0)
(0.788616 0 0)
(0.791782 0 0)
(0.794933 0 0)
(0.79807 0 0)
(0.801192 0 0)
(0.8043 0 0)
(0.807393 0 0)
(0.810471 0 0)
(0.813535 0 0)
(0.816582 0 0)
(0.819615 0 0)
(0.822632 0 0)
(0.825633 0 0)
(0.828618 0 0)
(0.831587 0 0)
(0.83454 0 0)
(0.837476 0 0)
(0.840395 0 0)
(0.843298 0 0)
(0.846183 0 0)
(0.849052 0 0)
(0.851902 0 0)
(0.854736 0 0)
(0.857551 0 0)
(0.860348 0 0)
(0.863127 0 0)
(0.865887 0 0)
(0.868629 0 0)
(0.871352 0 0)
(0.874055 0 0)
(0.876739 0 0)
(0.879404 0 0)
(0.882048 0 0)
(0.884673 0 0)
(0.887277 0 0)
(0.889861 0 0)
(0.892423 0 0)
(0.894965 0 0)
(0.897485 0 0)
(0.899984 0 0)
(0.90246 0 0)
(0.904915 0 0)
(0.907347 0 0)
(0.909756 0 0)
(0.912142 0 0)
(0.914505 0 0)
(0.916844 0 0)
(0.91916 0 0)
(0.921451 0 0)
(0.923717 0 0)
(0.925959 0 0)
(0.928175 0 0)
(0.930366 0 0)
(0.932531 0 0)
(0.93467 0 0)
(0.936782 0 0)
(0.938867 0 0)
(0.940925 0 0)
(0.942955 0 0)
(0.944957 0 0)
(0.946931 0 0)
(0.948876 0 0)
(0.950791 0 0)
(0.952677 0 0)
(0.954533 0 0)
(0.956358 0 0)
(0.958152 0 0)
(0.959915 0 0)
(0.961646 0 0)
(0.963345 0 0)
(0.96501 0 0)
(0.966643 0 0)
(0.968242 0 0)
(0.969806 0 0)
(0.971336 0 0)
(0.97283 0 0)
(0.974288 0 0)
(0.97571 0 0)
(0.977095 0 0)
(0.978442 0 0)
(0.979751 0 0)
(0.981021 0 0)
(0.982251 0 0)
(0.983442 0 0)
(0.984591 0 0)
(0.9857 0 0)
(0.986766 0 0)
(0.987789 0 0)
(0.988769 0 0)
(0.989705 0 0)
(0.990596 0 0)
(0.99144 0 0)
(0.992238 0 0)
(0.992989 0 0)
(0.993691 0 0)
(0.994345 0 0)
(0.994948 0 0)
(0.9955 0 0)
(0.996001 0 0)
(0.996448 0 0)
(0.996842 0 0)
(0.997181 0 0)
(0.997464 0 0)
(0.99769 0 0)
(0.997858 0 0)
(0.997966 0 0)
(0.998014 0 0)
(0.998001 0 0)
(0.997925 0 0)
(0.997784 0 0)
(0.997578 0 0)
(0.997305 0 0)
(0.996964 0 0)
(0.996553 0 0)
(0.996071 0 0)
(0.995516 0 0)
(0.994887 0 0)
(0.994181 0 0)
(0.993398 0 0)
(0.992535 0 0)
(0.99159 0 0)
(0.990563 0 0)
(0.989449 0 0)
(0.988249 0 0)
(0.986959 0 0)
(0.985577 0 0)
(0.984101 0 0)
(0.982528 0 0)
(0.980857 0 0)
(0.979084 0 0)
(0.977207 0 0)
(0.975223 0 0)
(0.973129 0 0)
(0.970922 0 0)
(0.9686 0 0)
(0.966157 0 0)
(0.963592 0 0)
(0.960901 0 0)
(0.958079 0 0)
(0.955124 0 0)
(0.95203 0 0)
(0.948794 0 0)
(0.945411 0 0)
(0.941876 0 0)
(0.938184 0 0)
(0.93433 0 0)
(0.930309 0 0)
(0.926115 0 0)
(0.921742 0 0)
(0.917182 0 0)
(0.912431 0 0)
(0.907479 0 0)
(0.902321 0 0)
(0.896947 0 0)
(0.89135 0 0)
(0.88552 0 0)
(0.879447 0 0)
(0.873122 0 0)
(0.866534 0 0)
(0.859671 0 0)
(0.852521 0 0)
(0.845071 0 0)
(0.837306 0 0)
(0.829212 0 0)
(0.820772 0 0)
(0.811969 0 0)
(0.802784 0 0)
(0.793198 0 0)
(0.783187 0 0)
(0.77273 0 0)
(0.761799 0 0)
(0.750369 0 0)
(0.738408 0 0)
(0.725884 0 0)
(0.712761 0 0)
(0.699001 0 0)
(0.684562 0 0)
(0.669397 0 0)
(0.653456 0 0)
(0.636684 0 0)
(0.619021 0 0)
(0.600403 0 0)
(0.580757 0 0)
(0.560007 0 0)
(0.538071 0 0)
(0.514861 0 0)
(0.490285 0 0)
(0.464248 0 0)
(0.436655 0 0)
(0.407416 0 0)
(0.376447 0 0)
(0.343683 0 0)
(0.309084 0 0)
(0.272646 0 0)
(0.234411 0 0)
(0.194483 0 0)
(0.153032 0 0)
(0.110296 0 0)
(0.0665862 0 0)
(0.0222656 0 0)
(-0.0222626 0 0)
(-0.0665827 0 0)
(-0.110292 0 0)
(-0.153026 0 0)
(-0.194476 0 0)
(-0.234403 0 0)
(-0.272635 0 0)
(-0.309073 0 0)
(-0.34367 0 0)
(-0.376433 0 0)
(-0.407401 0 0)
(-0.43664 0 0)
(-0.464232 0 0)
(-0.490268 0 0)
(-0.514844 0 0)
(-0.538054 0 0)
(-0.55999 0 0)
(-0.58074 0 0)
(-0.600386 0 0)
(-0.619006 0 0)
(-0.636669 0 0)
(-0.653441 0 0)
(-0.669382 0 0)
(-0.684548 0 0)
(-0.698987 0 0)
(-0.712748 0 0)
(-0.725871 0 0)
(-0.738396 0 0)
(-0.750357 0 0)
(-0.761788 0 0)
(-0.772719 0 0)
(-0.783177 0 0)
(-0.793188 0 0)
(-0.802775 0 0)
(-0.81196 0 0)
(-0.820764 0 0)
(-0.829204 0 0)
(-0.837298 0 0)
(-0.845064 0 0)
(-0.852514 0 0)
(-0.859665 0 0)
(-0.866528 0 0)
(-0.873117 0 0)
(-0.879442 0 0)
(-0.885514 0 0)
(-0.891345 0 0)
(-0.896943 0 0)
(-0.902317 0 0)
(-0.907475 0 0)
(-0.912427 0 0)
(-0.917179 0 0)
(-0.921738 0 0)
(-0.926112 0 0)
(-0.930306 0 0)
(-0.934328 0 0)
(-0.938181 0 0)
(-0.941873 0 0)
(-0.945408 0 0)
(-0.948792 0 0)
(-0.952028 0 0)
(-0.955122 0 0)
(-0.958078 0 0)
(-0.960899 0 0)
(-0.963591 0 0)
(-0.966156 0 0)
(-0.968598 0 0)
(-0.970921 0 0)
(-0.973128 0 0)
(-0.975222 0 0)
(-0.977206 0 0)
(-0.979083 0 0)
(-0.980856 0 0)
(-0.982528 0 0)
(-0.9841 0 0)
(-0.985576 0 0)
(-0.986958 0 0)
(-0.988248 0 0)
(-0.989449 0 0)
(-0.990562 0 0)
(-0.99159 0 0)
(-0.992535 0 0)
(-0.993398 0 0)
(-0.994181 0 0)
(-0.994887 0 0)
(-0.995516 0 0)
(-0.996071 0 0)
(-0.996553 0 0)
(-0.996964 0 0)
(-0.997305 0 0)
(-0.997578 0 0)
(-0.997784 0 0)
(-0.997925 0 0)
(-0.998001 0 0)
(-0.998014 0 0)
(-0.997966 0 0)
(-0.997858 0 0)
(-0.99769 0 0)
(-0.997464 0 0)
(-0.997181 0 0)
(-0.996842 0 0)
(-0.996448 0 0)
(-0.996001 0 0)
(-0.9955 0 0)
(-0.994948 0 0)
(-0.994345 0 0)
(-0.993691 0 0)
(-0.992989 0 0)
(-0.992238 0 0)
(-0.99144 0 0)
(-0.990595 0 0)
(-0.989705 0 0)
(-0.988769 0 0)
(-0.987789 0 0)
(-0.986766 0 0)
(-0.985699 0 0)
(-0.984591 0 0)
(-0.983441 0 0)
(-0.982251 0 0)
(-0.98102 0 0)
(-0.97975 0 0)
(-0.978441 0 0)
(-0.977094 0 0)
(-0.975709 0 0)
(-0.974287 0 0)
(-0.972829 0 0)
(-0.971335 0 0)
(-0.969805 0 0)
(-0.968241 0 0)
(-0.966642 0 0)
(-0.96501 0 0)
(-0.963344 0 0)
(-0.961645 0 0)
(-0.959914 0 0)
(-0.958152 0 0)
(-0.956357 0 0)
(-0.954532 0 0)
(-0.952676 0 0)
(-0.95079 0 0)
(-0.948875 0 0)
(-0.94693 0 0)
(-0.944956 0 0)
(-0.942954 0 0)
(-0.940924 0 0)
(-0.938866 0 0)
(-0.936781 0 0)
(-0.934669 0 0)
(-0.93253 0 0)
(-0.930365 0 0)
(-0.928174 0 0)
(-0.925958 0 0)
(-0.923716 0 0)
(-0.92145 0 0)
(-0.919158 0 0)
(-0.916843 0 0)
(-0.914504 0 0)
(-0.912141 0 0)
(-0.909755 0 0)
(-0.907345 0 0)
(-0.904913 0 0)
(-0.902459 0 0)
(-0.899982 0 0)
(-0.897484 0 0)
(-0.894964 0 0)
(-0.892422 0 0)
(-0.889859 0 0)
(-0.887276 0 0)
(-0.884671 0 0)
(-0.882047 0 0)
(-0.879402 0 0)
(-0.876738 0 0)
(-0.874054 0 0)
(-0.87135 0 0)
(-0.868627 0 0)
(-0.865886 0 0)
(-0.863125 0 0)
(-0.860346 0 0)
(-0.857549 0 0)
(-0.854734 0 0)
(-0.851901 0 0)
(-0.84905 0 0)
(-0.846182 0 0)
(-0.843296 0 0)
(-0.840394 0 0)
(-0.837474 0 0)
(-0.834538 0 0)
(-0.831585 0 0)
(-0.828616 0 0)
(-0.825631 0 0)
(-0.82263 0 0)
(-0.819613 0 0)
(-0.816581 0 0)
(-0.813533 0 0)
(-0.81047 0 0)
(-0.807391 0 0)
(-0.804298 0 0)
(-0.80119 0 0)
(-0.798068 0 0)
(-0.794931 0 0)
(-0.79178 0 0)
(-0.788614 0 0)
(-0.785435 0 0)
(-0.782242 0 0)
(-0.779035 0 0)
(-0.775815 0 0)
(-0.772581 0 0)
(-0.769334 0 0)
(-0.766074 0 0)
(-0.762801 0 0)
(-0.759515 0 0)
(-0.756217 0 0)
(-0.752906 0 0)
(-0.749582 0 0)
(-0.746246 0 0)
(-0.742898 0 0)
(-0.739538 0 0)
(-0.736166 0 0)
(-0.732783 0 0)
(-0.729387 0 0)
(-0.72598 0 0)
(-0.722562 0 0)
(-0.719133 0 0)
(-0.715692 0 0)
(-0.71224 0 0)
(-0.708777 0 0)
(-0.705303 0 0)
(-0.701819 0 0)
(-0.698324 0 0)
(-0.694819 0 0)
(-0.691303 0 0)
(-0.687777 0 0)
(-0.68424 0 0)
(-0.680694 0 0)
(-0.677138 0 0)
(-0.673571 0 0)
(-0.669995 0 0)
(-0.66641 0 0)
(-0.662815 0 0)
(-0.65921 0 0)
(-0.655596 0 0)
(-0.651973 0 0)
(-0.64834 0 0)
(-0.644699 0 0)
(-0.641048 0 0)
(-0.637389 0 0)
(-0.63372 0 0)
(-0.630043 0 0)
(-0.626358 0 0)
(-0.622664 0 0)
(-0.618961 0 0)
(-0.61525 0 0)
(-0.611531 0 0)
(-0.607804 0 0)
(-0.604068 0 0)
(-0.600325 0 0)
(-0.596573 0 0)
(-0.592814 0 0)
(-0.589047 0 0)
(-0.585272 0 0)
(-0.58149 0 0)
(-0.5777 0 0)
(-0.573903 0 0)
(-0.570098 0 0)
(-0.566286 0 0)
(-0.562467 0 0)
(-0.558641 0 0)
(-0.554808 0 0)
(-0.550967 0 0)
(-0.54712 0 0)
(-0.543266 0 0)
(-0.539405 0 0)
(-0.535538 0 0)
(-0.531663 0 0)
(-0.527783 0 0)
(-0.523896 0 0)
(-0.520002 0 0)
(-0.516102 0 0)
(-0.512196 0 0)
(-0.508284 0 0)
(-0.504365 0 0)
(-0.500441 0 0)
(-0.49651 0 0)
(-0.492574 0 0)
(-0.488631 0 0)
(-0.484683 0 0)
(-0.480729 0 0)
(-0.47677 0 0)
(-0.472805 0 0)
(-0.468834 0 0)
(-0.464858 0 0)
(-0.460876 0 0)
(-0.456889 0 0)
(-0.452897 0 0)
(-0.4489 0 0)
(-0.444897 0 0)
(-0.440889 0 0)
(-0.436877 0 0)
(-0.432859 0 0)
(-0.428836 0 0)
(-0.424809 0 0)
(-0.420776 0 0)
(-0.416739 0 0)
(-0.412697 0 0)
(-0.408651 0 0)
(-0.4046 0 0)
(-0.400545 0 0)
(-0.396485 0 0)
(-0.39242 0 0)
(-0.388352 0 0)
(-0.384279 0 0)
(-0.380201 0 0)
(-0.37612 0 0)
(-0.372034 0 0)
(-0.367945 0 0)
(-0.363851 0 0)
(-0.359753 0 0)
(-0.355652 0 0)
(-0.351546 0 0)
(-0.347437 0 0)
(-0.343324 0 0)
(-0.339208 0 0)
(-0.335087 0 0)
(-0.330963 0 0)
(-0.326836 0 0)
(-0.322705 0 0)
(-0.31857 0 0)
(-0.314433 0 0)
(-0.310291 0 0)
(-0.306147 0 0)
(-0.301999 0 0)
(-0.297848 0 0)
(-0.293694 0 0)
(-0.289537 0 0)
(-0.285377 0 0)
(-0.281214 0 0)
(-0.277048 0 0)
(-0.272879 0 0)
(-0.268707 0 0)
(-0.264532 0 0)
(-0.260355 0 0)
(-0.256174 0 0)
(-0.251992 0 0)
(-0.247806 0 0)
(-0.243618 0 0)
(-0.239428 0 0)
(-0.235235 0 0)
(-0.231039 0 0)
(-0.226842 0 0)
(-0.222642 0 0)
(-0.218439 0 0)
(-0.214234 0 0)
(-0.210028 0 0)
(-0.205819 0 0)
(-0.201608 0 0)
(-0.197394 0 0)
(-0.193179 0 0)
(-0.188962 0 0)
(-0.184743 0 0)
(-0.180522 0 0)
(-0.176299 0 0)
(-0.172075 0 0)
(-0.167849 0 0)
(-0.163621 0 0)
(-0.159391 0 0)
(-0.15516 0 0)
(-0.150927 0 0)
(-0.146693 0 0)
(-0.142457 0 0)
(-0.13822 0 0)
(-0.133981 0 0)
(-0.129741 0 0)
(-0.1255 0 0)
(-0.121257 0 0)
(-0.117014 0 0)
(-0.112769 0 0)
(-0.108523 0 0)
(-0.104276 0 0)
(-0.100027 0 0)
(-0.0957782 0 0)
(-0.0915281 0 0)
(-0.087277 0 0)
(-0.0830251 0 0)
(-0.0787724 0 0)
(-0.0745189 0 0)
(-0.0702646 0 0)
(-0.0660097 0 0)
(-0.061754 0 0)
(-0.0574978 0 0)
(-0.053241 0 0)
(-0.0489837 0 0)
(-0.0447259 0 0)
(-0.0404676 0 0)
(-0.0362089 0 0)
(-0.0319499 0 0)
(-0.0276906 0 0)
(-0.0234309 0 0)
(-0.0191711 0 0)
(-0.014911 0 0)
(-0.0106508 0 0)
(-0.00639055 0 0)
(-0.00213019 0 0)
)
;

boundaryField
{
    left
    {
        type            fixedValue;
        value           uniform (0 0 0);
    }
    right
    {
        type            fixedValue;
        value           uniform (0 0 0);
    }
    frontBackUpDown
    {
        type            empty;
    }
}


// ************************************************************************* //
