/*--------------------------------*- C++ -*----------------------------------*\
| =========                 |                                                 |
| \\      /  F ield         | OpenFOAM: The Open Source CFD Toolbox           |
|  \\    /   O peration     | Version:  2412                                  |
|   \\  /    A nd           | Website:  www.openfoam.com                      |
|    \\/     M anipulation  |                                                 |
\*---------------------------------------------------------------------------*/
FoamFile
{
    version     2.0;
    format      ascii;
    arch        "LSB;label=32;scalar=64";
    class       volVectorField;
    location    "0.27";
    object      U_0_0;
}
// * * * * * * * * * * * * * * * * * * * * * * * * * * * * * * * * * * * * * //

dimensions      [0 1 -1 0 0 0 0];

internalField   nonuniform List<vector> 
800
(
(0.00212834 0 0)
(0.00638508 0 0)
(0.0106418 0 0)
(0.0148983 0 0)
(0.0191547 0 0)
(0.023411 0 0)
(0.027667 0 0)
(0.0319227 0 0)
(0.0361781 0 0)
(0.0404332 0 0)
(0.0446878 0 0)
(0.048942 0 0)
(0.0531958 0 0)
(0.057449 0 0)
(0.0617016 0 0)
(0.0659536 0 0)
(0.070205 0 0)
(0.0744556 0 0)
(0.0787056 0 0)
(0.0829547 0 0)
(0.087203 0 0)
(0.0914505 0 0)
(0.095697 0 0)
(0.0999426 0 0)
(0.104187 0 0)
(0.108431 0 0)
(0.112673 0 0)
(0.116915 0 0)
(0.121155 0 0)
(0.125394 0 0)
(0.129631 0 0)
(0.133868 0 0)
(0.138103 0 0)
(0.142337 0 0)
(0.146569 0 0)
(0.1508 0 0)
(0.155029 0 0)
(0.159257 0 0)
(0.163483 0 0)
(0.167707 0 0)
(0.17193 0 0)
(0.176151 0 0)
(0.18037 0 0)
(0.184588 0 0)
(0.188803 0 0)
(0.193017 0 0)
(0.197229 0 0)
(0.201438 0 0)
(0.205646 0 0)
(0.209851 0 0)
(0.214055 0 0)
(0.218256 0 0)
(0.222455 0 0)
(0.226652 0 0)
(0.230846 0 0)
(0.235038 0 0)
(0.239228 0 0)
(0.243415 0 0)
(0.247599 0 0)
(0.251782 0 0)
(0.255961 0 0)
(0.260138 0 0)
(0.264312 0 0)
(0.268483 0 0)
(0.272652 0 0)
(0.276818 0 0)
(0.28098 0 0)
(0.28514 0 0)
(0.289297 0 0)
(0.293451 0 0)
(0.297602 0 0)
(0.30175 0 0)
(0.305894 0 0)
(0.310035 0 0)
(0.314173 0 0)
(0.318308 0 0)
(0.322439 0 0)
(0.326567 0 0)
(0.330691 0 0)
(0.334812 0 0)
(0.338929 0 0)
(0.343043 0 0)
(0.347153 0 0)
(0.351259 0 0)
(0.355361 0 0)
(0.35946 0 0)
(0.363554 0 0)
(0.367645 0 0)
(0.371731 0 0)
(0.375814 0 0)
(0.379892 0 0)
(0.383967 0 0)
(0.388037 0 0)
(0.392102 0 0)
(0.396164 0 0)
(0.400221 0 0)
(0.404273 0 0)
(0.408322 0 0)
(0.412365 0 0)
(0.416404 0 0)
(0.420438 0 0)
(0.424468 0 0)
(0.428492 0 0)
(0.432512 0 0)
(0.436527 0 0)
(0.440537 0 0)
(0.444542 0 0)
(0.448542 0 0)
(0.452537 0 0)
(0.456526 0 0)
(0.46051 0 0)
(0.464489 0 0)
(0.468463 0 0)
(0.472431 0 0)
(0.476394 0 0)
(0.48035 0 0)
(0.484302 0 0)
(0.488247 0 0)
(0.492187 0 0)
(0.496121 0 0)
(0.500049 0 0)
(0.503971 0 0)
(0.507887 0 0)
(0.511797 0 0)
(0.515701 0 0)
(0.519599 0 0)
(0.52349 0 0)
(0.527375 0 0)
(0.531253 0 0)
(0.535125 0 0)
(0.53899 0 0)
(0.542849 0 0)
(0.546701 0 0)
(0.550546 0 0)
(0.554384 0 0)
(0.558215 0 0)
(0.562039 0 0)
(0.565856 0 0)
(0.569666 0 0)
(0.573469 0 0)
(0.577264 0 0)
(0.581052 0 0)
(0.584832 0 0)
(0.588605 0 0)
(0.59237 0 0)
(0.596127 0 0)
(0.599877 0 0)
(0.603618 0 0)
(0.607352 0 0)
(0.611078 0 0)
(0.614795 0 0)
(0.618504 0 0)
(0.622205 0 0)
(0.625898 0 0)
(0.629582 0 0)
(0.633257 0 0)
(0.636924 0 0)
(0.640581 0 0)
(0.64423 0 0)
(0.647871 0 0)
(0.651502 0 0)
(0.655124 0 0)
(0.658736 0 0)
(0.66234 0 0)
(0.665933 0 0)
(0.669518 0 0)
(0.673092 0 0)
(0.676657 0 0)
(0.680213 0 0)
(0.683758 0 0)
(0.687293 0 0)
(0.690818 0 0)
(0.694333 0 0)
(0.697837 0 0)
(0.701331 0 0)
(0.704815 0 0)
(0.708288 0 0)
(0.711749 0 0)
(0.7152 0 0)
(0.71864 0 0)
(0.722069 0 0)
(0.725487 0 0)
(0.728893 0 0)
(0.732288 0 0)
(0.735671 0 0)
(0.739042 0 0)
(0.742402 0 0)
(0.745749 0 0)
(0.749085 0 0)
(0.752408 0 0)
(0.755719 0 0)
(0.759017 0 0)
(0.762303 0 0)
(0.765576 0 0)
(0.768835 0 0)
(0.772082 0 0)
(0.775316 0 0)
(0.778536 0 0)
(0.781743 0 0)
(0.784936 0 0)
(0.788116 0 0)
(0.791281 0 0)
(0.794433 0 0)
(0.79757 0 0)
(0.800693 0 0)
(0.803801 0 0)
(0.806895 0 0)
(0.809974 0 0)
(0.813037 0 0)
(0.816086 0 0)
(0.819119 0 0)
(0.822136 0 0)
(0.825138 0 0)
(0.828124 0 0)
(0.831094 0 0)
(0.834048 0 0)
(0.836985 0 0)
(0.839906 0 0)
(0.842809 0 0)
(0.845696 0 0)
(0.848566 0 0)
(0.851418 0 0)
(0.854252 0 0)
(0.857069 0 0)
(0.859868 0 0)
(0.862648 0 0)
(0.86541 0 0)
(0.868154 0 0)
(0.870878 0 0)
(0.873584 0 0)
(0.87627 0 0)
(0.878936 0 0)
(0.881583 0 0)
(0.88421 0 0)
(0.886816 0 0)
(0.889402 0 0)
(0.891967 0 0)
(0.894511 0 0)
(0.897034 0 0)
(0.899535 0 0)
(0.902014 0 0)
(0.904472 0 0)
(0.906907 0 0)
(0.909319 0 0)
(0.911708 0 0)
(0.914074 0 0)
(0.916417 0 0)
(0.918735 0 0)
(0.92103 0 0)
(0.9233 0 0)
(0.925545 0 0)
(0.927765 0 0)
(0.92996 0 0)
(0.932128 0 0)
(0.934271 0 0)
(0.936387 0 0)
(0.938477 0 0)
(0.940539 0 0)
(0.942573 0 0)
(0.94458 0 0)
(0.946558 0 0)
(0.948508 0 0)
(0.950428 0 0)
(0.952319 0 0)
(0.95418 0 0)
(0.95601 0 0)
(0.95781 0 0)
(0.959578 0 0)
(0.961314 0 0)
(0.963019 0 0)
(0.96469 0 0)
(0.966329 0 0)
(0.967933 0 0)
(0.969504 0 0)
(0.97104 0 0)
(0.97254 0 0)
(0.974005 0 0)
(0.975433 0 0)
(0.976825 0 0)
(0.978179 0 0)
(0.979495 0 0)
(0.980773 0 0)
(0.982011 0 0)
(0.983209 0 0)
(0.984366 0 0)
(0.985482 0 0)
(0.986557 0 0)
(0.987588 0 0)
(0.988577 0 0)
(0.989521 0 0)
(0.99042 0 0)
(0.991274 0 0)
(0.992081 0 0)
(0.992841 0 0)
(0.993553 0 0)
(0.994216 0 0)
(0.994829 0 0)
(0.995392 0 0)
(0.995902 0 0)
(0.99636 0 0)
(0.996765 0 0)
(0.997114 0 0)
(0.997409 0 0)
(0.997646 0 0)
(0.997825 0 0)
(0.997946 0 0)
(0.998006 0 0)
(0.998005 0 0)
(0.997941 0 0)
(0.997814 0 0)
(0.997621 0 0)
(0.997361 0 0)
(0.997034 0 0)
(0.996637 0 0)
(0.996169 0 0)
(0.995628 0 0)
(0.995013 0 0)
(0.994323 0 0)
(0.993555 0 0)
(0.992707 0 0)
(0.991779 0 0)
(0.990767 0 0)
(0.989671 0 0)
(0.988487 0 0)
(0.987215 0 0)
(0.98585 0 0)
(0.984392 0 0)
(0.982839 0 0)
(0.981186 0 0)
(0.979433 0 0)
(0.977575 0 0)
(0.975611 0 0)
(0.973538 0 0)
(0.971352 0 0)
(0.969051 0 0)
(0.96663 0 0)
(0.964088 0 0)
(0.961419 0 0)
(0.958621 0 0)
(0.95569 0 0)
(0.95262 0 0)
(0.949409 0 0)
(0.946051 0 0)
(0.942543 0 0)
(0.938878 0 0)
(0.935051 0 0)
(0.931058 0 0)
(0.926893 0 0)
(0.922549 0 0)
(0.918019 0 0)
(0.913298 0 0)
(0.908379 0 0)
(0.903252 0 0)
(0.897911 0 0)
(0.892348 0 0)
(0.886552 0 0)
(0.880515 0 0)
(0.874226 0 0)
(0.867675 0 0)
(0.86085 0 0)
(0.853739 0 0)
(0.846329 0 0)
(0.838605 0 0)
(0.830552 0 0)
(0.822155 0 0)
(0.813396 0 0)
(0.804256 0 0)
(0.794715 0 0)
(0.784751 0 0)
(0.774341 0 0)
(0.763459 0 0)
(0.752078 0 0)
(0.740166 0 0)
(0.727693 0 0)
(0.714621 0 0)
(0.700913 0 0)
(0.686525 0 0)
(0.671411 0 0)
(0.655521 0 0)
(0.638799 0 0)
(0.621185 0 0)
(0.602611 0 0)
(0.583007 0 0)
(0.562295 0 0)
(0.54039 0 0)
(0.517204 0 0)
(0.492641 0 0)
(0.466604 0 0)
(0.438996 0 0)
(0.409721 0 0)
(0.378693 0 0)
(0.345841 0 0)
(0.311122 0 0)
(0.274528 0 0)
(0.236098 0 0)
(0.195935 0 0)
(0.15421 0 0)
(0.111166 0 0)
(0.06712 0 0)
(0.0224456 0 0)
(-0.0224426 0 0)
(-0.0671164 0 0)
(-0.111162 0 0)
(-0.154204 0 0)
(-0.195928 0 0)
(-0.23609 0 0)
(-0.274517 0 0)
(-0.311111 0 0)
(-0.345828 0 0)
(-0.378678 0 0)
(-0.409706 0 0)
(-0.43898 0 0)
(-0.466588 0 0)
(-0.492624 0 0)
(-0.517187 0 0)
(-0.540373 0 0)
(-0.562278 0 0)
(-0.582991 0 0)
(-0.602595 0 0)
(-0.621169 0 0)
(-0.638784 0 0)
(-0.655506 0 0)
(-0.671397 0 0)
(-0.686511 0 0)
(-0.700899 0 0)
(-0.714608 0 0)
(-0.72768 0 0)
(-0.740154 0 0)
(-0.752066 0 0)
(-0.763448 0 0)
(-0.77433 0 0)
(-0.784741 0 0)
(-0.794705 0 0)
(-0.804247 0 0)
(-0.813387 0 0)
(-0.822147 0 0)
(-0.830544 0 0)
(-0.838597 0 0)
(-0.846322 0 0)
(-0.853733 0 0)
(-0.860844 0 0)
(-0.867669 0 0)
(-0.874221 0 0)
(-0.88051 0 0)
(-0.886547 0 0)
(-0.892343 0 0)
(-0.897907 0 0)
(-0.903248 0 0)
(-0.908375 0 0)
(-0.913295 0 0)
(-0.918016 0 0)
(-0.922545 0 0)
(-0.92689 0 0)
(-0.931055 0 0)
(-0.935049 0 0)
(-0.938875 0 0)
(-0.94254 0 0)
(-0.946049 0 0)
(-0.949407 0 0)
(-0.952618 0 0)
(-0.955688 0 0)
(-0.95862 0 0)
(-0.961418 0 0)
(-0.964086 0 0)
(-0.966629 0 0)
(-0.96905 0 0)
(-0.971351 0 0)
(-0.973537 0 0)
(-0.97561 0 0)
(-0.977574 0 0)
(-0.979432 0 0)
(-0.981185 0 0)
(-0.982838 0 0)
(-0.984392 0 0)
(-0.98585 0 0)
(-0.987214 0 0)
(-0.988487 0 0)
(-0.989671 0 0)
(-0.990767 0 0)
(-0.991779 0 0)
(-0.992707 0 0)
(-0.993555 0 0)
(-0.994323 0 0)
(-0.995013 0 0)
(-0.995628 0 0)
(-0.996168 0 0)
(-0.996636 0 0)
(-0.997033 0 0)
(-0.997361 0 0)
(-0.997621 0 0)
(-0.997814 0 0)
(-0.997941 0 0)
(-0.998005 0 0)
(-0.998006 0 0)
(-0.997946 0 0)
(-0.997825 0 0)
(-0.997646 0 0)
(-0.997409 0 0)
(-0.997114 0 0)
(-0.996765 0 0)
(-0.99636 0 0)
(-0.995902 0 0)
(-0.995391 0 0)
(-0.994829 0 0)
(-0.994216 0 0)
(-0.993553 0 0)
(-0.992841 0 0)
(-0.992081 0 0)
(-0.991274 0 0)
(-0.99042 0 0)
(-0.989521 0 0)
(-0.988576 0 0)
(-0.987588 0 0)
(-0.986556 0 0)
(-0.985482 0 0)
(-0.984366 0 0)
(-0.983208 0 0)
(-0.98201 0 0)
(-0.980772 0 0)
(-0.979495 0 0)
(-0.978179 0 0)
(-0.976825 0 0)
(-0.975433 0 0)
(-0.974004 0 0)
(-0.97254 0 0)
(-0.971039 0 0)
(-0.969503 0 0)
(-0.967933 0 0)
(-0.966328 0 0)
(-0.964689 0 0)
(-0.963018 0 0)
(-0.961314 0 0)
(-0.959577 0 0)
(-0.957809 0 0)
(-0.956009 0 0)
(-0.954179 0 0)
(-0.952318 0 0)
(-0.950427 0 0)
(-0.948507 0 0)
(-0.946557 0 0)
(-0.944579 0 0)
(-0.942572 0 0)
(-0.940538 0 0)
(-0.938476 0 0)
(-0.936386 0 0)
(-0.93427 0 0)
(-0.932127 0 0)
(-0.929958 0 0)
(-0.927764 0 0)
(-0.925544 0 0)
(-0.923298 0 0)
(-0.921028 0 0)
(-0.918734 0 0)
(-0.916415 0 0)
(-0.914073 0 0)
(-0.911707 0 0)
(-0.909317 0 0)
(-0.906905 0 0)
(-0.90447 0 0)
(-0.902013 0 0)
(-0.899534 0 0)
(-0.897032 0 0)
(-0.89451 0 0)
(-0.891966 0 0)
(-0.889401 0 0)
(-0.886815 0 0)
(-0.884208 0 0)
(-0.881582 0 0)
(-0.878935 0 0)
(-0.876268 0 0)
(-0.873582 0 0)
(-0.870877 0 0)
(-0.868152 0 0)
(-0.865409 0 0)
(-0.862647 0 0)
(-0.859866 0 0)
(-0.857067 0 0)
(-0.854251 0 0)
(-0.851416 0 0)
(-0.848564 0 0)
(-0.845694 0 0)
(-0.842808 0 0)
(-0.839904 0 0)
(-0.836983 0 0)
(-0.834046 0 0)
(-0.831092 0 0)
(-0.828123 0 0)
(-0.825137 0 0)
(-0.822135 0 0)
(-0.819117 0 0)
(-0.816084 0 0)
(-0.813036 0 0)
(-0.809972 0 0)
(-0.806893 0 0)
(-0.803799 0 0)
(-0.800691 0 0)
(-0.797568 0 0)
(-0.794431 0 0)
(-0.79128 0 0)
(-0.788114 0 0)
(-0.784935 0 0)
(-0.781741 0 0)
(-0.778535 0 0)
(-0.775314 0 0)
(-0.77208 0 0)
(-0.768834 0 0)
(-0.765574 0 0)
(-0.762301 0 0)
(-0.759015 0 0)
(-0.755717 0 0)
(-0.752406 0 0)
(-0.749083 0 0)
(-0.745748 0 0)
(-0.7424 0 0)
(-0.739041 0 0)
(-0.735669 0 0)
(-0.732286 0 0)
(-0.728891 0 0)
(-0.725485 0 0)
(-0.722068 0 0)
(-0.718639 0 0)
(-0.715199 0 0)
(-0.711748 0 0)
(-0.708286 0 0)
(-0.704813 0 0)
(-0.70133 0 0)
(-0.697836 0 0)
(-0.694331 0 0)
(-0.690816 0 0)
(-0.687291 0 0)
(-0.683756 0 0)
(-0.680211 0 0)
(-0.676656 0 0)
(-0.673091 0 0)
(-0.669516 0 0)
(-0.665932 0 0)
(-0.662338 0 0)
(-0.658734 0 0)
(-0.655122 0 0)
(-0.6515 0 0)
(-0.647869 0 0)
(-0.644229 0 0)
(-0.64058 0 0)
(-0.636922 0 0)
(-0.633255 0 0)
(-0.62958 0 0)
(-0.625896 0 0)
(-0.622203 0 0)
(-0.618503 0 0)
(-0.614793 0 0)
(-0.611076 0 0)
(-0.60735 0 0)
(-0.603617 0 0)
(-0.599875 0 0)
(-0.596126 0 0)
(-0.592368 0 0)
(-0.588603 0 0)
(-0.58483 0 0)
(-0.58105 0 0)
(-0.577262 0 0)
(-0.573467 0 0)
(-0.569665 0 0)
(-0.565855 0 0)
(-0.562038 0 0)
(-0.558213 0 0)
(-0.554382 0 0)
(-0.550544 0 0)
(-0.546699 0 0)
(-0.542847 0 0)
(-0.538989 0 0)
(-0.535124 0 0)
(-0.531252 0 0)
(-0.527373 0 0)
(-0.523489 0 0)
(-0.519597 0 0)
(-0.5157 0 0)
(-0.511796 0 0)
(-0.507886 0 0)
(-0.50397 0 0)
(-0.500048 0 0)
(-0.49612 0 0)
(-0.492186 0 0)
(-0.488246 0 0)
(-0.484301 0 0)
(-0.480349 0 0)
(-0.476392 0 0)
(-0.47243 0 0)
(-0.468462 0 0)
(-0.464488 0 0)
(-0.460509 0 0)
(-0.456525 0 0)
(-0.452536 0 0)
(-0.448541 0 0)
(-0.444541 0 0)
(-0.440536 0 0)
(-0.436526 0 0)
(-0.432511 0 0)
(-0.428491 0 0)
(-0.424467 0 0)
(-0.420437 0 0)
(-0.416403 0 0)
(-0.412364 0 0)
(-0.408321 0 0)
(-0.404273 0 0)
(-0.40022 0 0)
(-0.396163 0 0)
(-0.392102 0 0)
(-0.388036 0 0)
(-0.383966 0 0)
(-0.379892 0 0)
(-0.375813 0 0)
(-0.371731 0 0)
(-0.367644 0 0)
(-0.363553 0 0)
(-0.359459 0 0)
(-0.35536 0 0)
(-0.351258 0 0)
(-0.347152 0 0)
(-0.343042 0 0)
(-0.338929 0 0)
(-0.334811 0 0)
(-0.330691 0 0)
(-0.326566 0 0)
(-0.322439 0 0)
(-0.318307 0 0)
(-0.314173 0 0)
(-0.310035 0 0)
(-0.305894 0 0)
(-0.301749 0 0)
(-0.297601 0 0)
(-0.293451 0 0)
(-0.289297 0 0)
(-0.28514 0 0)
(-0.28098 0 0)
(-0.276817 0 0)
(-0.272651 0 0)
(-0.268483 0 0)
(-0.264312 0 0)
(-0.260137 0 0)
(-0.255961 0 0)
(-0.251781 0 0)
(-0.247599 0 0)
(-0.243415 0 0)
(-0.239227 0 0)
(-0.235038 0 0)
(-0.230846 0 0)
(-0.226651 0 0)
(-0.222455 0 0)
(-0.218256 0 0)
(-0.214055 0 0)
(-0.209851 0 0)
(-0.205646 0 0)
(-0.201438 0 0)
(-0.197228 0 0)
(-0.193017 0 0)
(-0.188803 0 0)
(-0.184588 0 0)
(-0.18037 0 0)
(-0.176151 0 0)
(-0.17193 0 0)
(-0.167707 0 0)
(-0.163483 0 0)
(-0.159256 0 0)
(-0.155029 0 0)
(-0.1508 0 0)
(-0.146569 0 0)
(-0.142336 0 0)
(-0.138103 0 0)
(-0.133868 0 0)
(-0.129631 0 0)
(-0.125394 0 0)
(-0.121155 0 0)
(-0.116914 0 0)
(-0.112673 0 0)
(-0.108431 0 0)
(-0.104187 0 0)
(-0.0999425 0 0)
(-0.095697 0 0)
(-0.0914504 0 0)
(-0.087203 0 0)
(-0.0829547 0 0)
(-0.0787055 0 0)
(-0.0744556 0 0)
(-0.070205 0 0)
(-0.0659536 0 0)
(-0.0617016 0 0)
(-0.057449 0 0)
(-0.0531958 0 0)
(-0.048942 0 0)
(-0.0446878 0 0)
(-0.0404332 0 0)
(-0.0361781 0 0)
(-0.0319227 0 0)
(-0.027667 0 0)
(-0.023411 0 0)
(-0.0191548 0 0)
(-0.0148984 0 0)
(-0.0106418 0 0)
(-0.00638512 0 0)
(-0.00212838 0 0)
)
;

boundaryField
{
    left
    {
        type            fixedValue;
        value           uniform (0 0 0);
    }
    right
    {
        type            fixedValue;
        value           uniform (0 0 0);
    }
    frontBackUpDown
    {
        type            empty;
    }
}


// ************************************************************************* //
