/*--------------------------------*- C++ -*----------------------------------*\
| =========                 |                                                 |
| \\      /  F ield         | OpenFOAM: The Open Source CFD Toolbox           |
|  \\    /   O peration     | Version:  2412                                  |
|   \\  /    A nd           | Website:  www.openfoam.com                      |
|    \\/     M anipulation  |                                                 |
\*---------------------------------------------------------------------------*/
FoamFile
{
    version     2.0;
    format      ascii;
    arch        "LSB;label=32;scalar=64";
    class       surfaceScalarField;
    location    "0.56";
    object      phi;
}
// * * * * * * * * * * * * * * * * * * * * * * * * * * * * * * * * * * * * * //

dimensions      [0 3 -1 0 0 0 0];

oriented        oriented;

internalField   nonuniform List<scalar> 
799
(
2.84783e-05
5.69568e-05
8.5435e-05
0.000113913
0.000142391
0.000170868
0.000199345
0.000227821
0.000256296
0.000284771
0.000313245
0.000341718
0.00037019
0.00039866
0.00042713
0.000455598
0.000484065
0.000512531
0.000540995
0.000569457
0.000597918
0.000626377
0.000654834
0.000683289
0.000711742
0.000740192
0.000768641
0.000797087
0.000825531
0.000853973
0.000882412
0.000910848
0.000939281
0.000967712
0.00099614
0.00102456
0.00105299
0.0010814
0.00110982
0.00113823
0.00116664
0.00119504
0.00122345
0.00125184
0.00128024
0.00130863
0.00133701
0.00136539
0.00139377
0.00142215
0.00145051
0.00147888
0.00150724
0.0015356
0.00156395
0.00159229
0.00162063
0.00164897
0.0016773
0.00170563
0.00173395
0.00176226
0.00179057
0.00181888
0.00184718
0.00187547
0.00190376
0.00193204
0.00196032
0.00198858
0.00201685
0.00204511
0.00207336
0.0021016
0.00212984
0.00215807
0.00218629
0.00221451
0.00224272
0.00227093
0.00229912
0.00232731
0.00235549
0.00238367
0.00241183
0.00243999
0.00246815
0.00249629
0.00252442
0.00255255
0.00258067
0.00260878
0.00263689
0.00266498
0.00269307
0.00272115
0.00274921
0.00277727
0.00280533
0.00283337
0.0028614
0.00288942
0.00291744
0.00294544
0.00297344
0.00300142
0.0030294
0.00305737
0.00308532
0.00311327
0.0031412
0.00316913
0.00319704
0.00322495
0.00325284
0.00328072
0.0033086
0.00333646
0.00336431
0.00339214
0.00341997
0.00344779
0.00347559
0.00350338
0.00353116
0.00355893
0.00358669
0.00361443
0.00364217
0.00366989
0.00369759
0.00372529
0.00375297
0.00378064
0.00380829
0.00383594
0.00386357
0.00389118
0.00391878
0.00394637
0.00397395
0.00400151
0.00402905
0.00405659
0.00408411
0.00411161
0.0041391
0.00416657
0.00419403
0.00422148
0.00424891
0.00427632
0.00430372
0.0043311
0.00435847
0.00438582
0.00441316
0.00444048
0.00446778
0.00449507
0.00452234
0.0045496
0.00457683
0.00460405
0.00463126
0.00465844
0.00468561
0.00471276
0.00473989
0.00476701
0.00479411
0.00482119
0.00484825
0.00487529
0.00490231
0.00492931
0.0049563
0.00498327
0.00501021
0.00503714
0.00506405
0.00509094
0.0051178
0.00514465
0.00517148
0.00519828
0.00522507
0.00525183
0.00527858
0.0053053
0.005332
0.00535868
0.00538534
0.00541197
0.00543859
0.00546518
0.00549175
0.00551829
0.00554481
0.00557131
0.00559779
0.00562424
0.00565067
0.00567708
0.00570346
0.00572981
0.00575614
0.00578245
0.00580873
0.00583499
0.00586122
0.00588742
0.0059136
0.00593976
0.00596588
0.00599198
0.00601806
0.0060441
0.00607012
0.00609611
0.00612208
0.00614801
0.00617392
0.0061998
0.00622565
0.00625147
0.00627726
0.00630302
0.00632876
0.00635446
0.00638013
0.00640577
0.00643139
0.00645697
0.00648251
0.00650803
0.00653352
0.00655897
0.00658439
0.00660978
0.00663513
0.00666045
0.00668574
0.00671099
0.00673621
0.0067614
0.00678655
0.00681166
0.00683674
0.00686178
0.00688679
0.00691176
0.00693669
0.00696159
0.00698645
0.00701127
0.00703605
0.00706079
0.0070855
0.00711016
0.00713479
0.00715937
0.00718392
0.00720842
0.00723288
0.0072573
0.00728168
0.00730602
0.00733031
0.00735456
0.00737877
0.00740293
0.00742705
0.00745112
0.00747515
0.00749913
0.00752307
0.00754696
0.0075708
0.00759459
0.00761834
0.00764203
0.00766568
0.00768928
0.00771282
0.00773632
0.00775977
0.00778316
0.0078065
0.00782979
0.00785302
0.00787621
0.00789933
0.0079224
0.00794542
0.00796838
0.00799128
0.00801412
0.00803691
0.00805964
0.00808231
0.00810492
0.00812746
0.00814995
0.00817237
0.00819473
0.00821703
0.00823926
0.00826143
0.00828353
0.00830557
0.00832754
0.00834944
0.00837127
0.00839303
0.00841472
0.00843634
0.00845789
0.00847937
0.00850077
0.00852209
0.00854334
0.00856452
0.00858561
0.00860663
0.00862757
0.00864843
0.0086692
0.00868989
0.0087105
0.00873103
0.00875146
0.00877181
0.00879208
0.00881225
0.00883233
0.00885232
0.00887222
0.00889202
0.00891173
0.00893134
0.00895085
0.00897026
0.00898957
0.00900878
0.00902788
0.00904688
0.00906577
0.00908455
0.00910322
0.00912178
0.00914022
0.00915855
0.00917676
0.00919486
0.00921283
0.00923067
0.0092484
0.00926599
0.00928346
0.00930079
0.00931799
0.00933506
0.00935199
0.00936877
0.00938542
0.00940192
0.00941827
0.00943447
0.00945051
0.0094664
0.00948213
0.0094977
0.00951311
0.00952834
0.00954341
0.0095583
0.00957301
0.00958754
0.00960188
0.00961604
0.00963
0.00964376
0.00965732
0.00967068
0.00968383
0.00969676
0.00970947
0.00972196
0.00973421
0.00974623
0.00975801
0.00976955
0.00978084
0.00979174
0.00980366
0.00980296
0.00991805
0.0080519
7.07892e-06
-0.00804484
-0.00991807
-0.00980295
-0.00980366
-0.00979173
-0.00978083
-0.00976954
-0.00975801
-0.00974623
-0.0097342
-0.00972195
-0.00970946
-0.00969675
-0.00968382
-0.00967067
-0.00965731
-0.00964375
-0.00962999
-0.00961602
-0.00960187
-0.00958752
-0.009573
-0.00955828
-0.00954339
-0.00952833
-0.00951309
-0.00949769
-0.00948212
-0.00946639
-0.0094505
-0.00943445
-0.00941825
-0.0094019
-0.0093854
-0.00936876
-0.00935197
-0.00933504
-0.00931798
-0.00930078
-0.00928344
-0.00926598
-0.00924838
-0.00923066
-0.00921281
-0.00919484
-0.00917675
-0.00915853
-0.00914021
-0.00912176
-0.0091032
-0.00908453
-0.00906575
-0.00904686
-0.00902786
-0.00900876
-0.00898955
-0.00897024
-0.00895083
-0.00893132
-0.00891171
-0.008892
-0.0088722
-0.0088523
-0.00883231
-0.00881223
-0.00879206
-0.00877179
-0.00875144
-0.008731
-0.00871048
-0.00868987
-0.00866918
-0.0086484
-0.00862755
-0.00860661
-0.00858559
-0.0085645
-0.00854332
-0.00852207
-0.00850075
-0.00847934
-0.00845787
-0.00843632
-0.0084147
-0.00839301
-0.00837125
-0.00834942
-0.00832752
-0.00830555
-0.00828351
-0.00826141
-0.00823924
-0.00821701
-0.00819471
-0.00817235
-0.00814993
-0.00812744
-0.00810489
-0.00808228
-0.00805962
-0.00803689
-0.0080141
-0.00799126
-0.00796835
-0.00794539
-0.00792238
-0.00789931
-0.00787618
-0.007853
-0.00782977
-0.00780648
-0.00778314
-0.00775974
-0.0077363
-0.0077128
-0.00768925
-0.00766566
-0.00764201
-0.00761831
-0.00759457
-0.00757077
-0.00754693
-0.00752304
-0.00749911
-0.00747513
-0.0074511
-0.00742703
-0.00740291
-0.00737875
-0.00735454
-0.00733029
-0.007306
-0.00728166
-0.00725728
-0.00723286
-0.0072084
-0.00718389
-0.00715935
-0.00713476
-0.00711014
-0.00708547
-0.00706077
-0.00703603
-0.00701124
-0.00698642
-0.00696157
-0.00693667
-0.00691174
-0.00688677
-0.00686176
-0.00683672
-0.00681164
-0.00678652
-0.00676137
-0.00673619
-0.00671097
-0.00668572
-0.00666043
-0.00663511
-0.00660976
-0.00658437
-0.00655895
-0.0065335
-0.00650801
-0.00648249
-0.00645695
-0.00643137
-0.00640575
-0.00638011
-0.00635444
-0.00632874
-0.00630301
-0.00627724
-0.00625145
-0.00622563
-0.00619978
-0.0061739
-0.00614799
-0.00612206
-0.00609609
-0.0060701
-0.00604408
-0.00601804
-0.00599196
-0.00596586
-0.00593974
-0.00591358
-0.00588741
-0.0058612
-0.00583497
-0.00580871
-0.00578243
-0.00575613
-0.00572979
-0.00570344
-0.00567706
-0.00565065
-0.00562423
-0.00559777
-0.0055713
-0.0055448
-0.00551828
-0.00549173
-0.00546516
-0.00543857
-0.00541196
-0.00538532
-0.00535867
-0.00533199
-0.00530529
-0.00527856
-0.00525182
-0.00522505
-0.00519827
-0.00517146
-0.00514464
-0.00511779
-0.00509092
-0.00506403
-0.00503713
-0.0050102
-0.00498325
-0.00495629
-0.0049293
-0.0049023
-0.00487527
-0.00484823
-0.00482117
-0.00479409
-0.004767
-0.00473988
-0.00471275
-0.0046856
-0.00465843
-0.00463124
-0.00460404
-0.00457682
-0.00454958
-0.00452233
-0.00449506
-0.00446777
-0.00444047
-0.00441315
-0.00438581
-0.00435846
-0.00433109
-0.00430371
-0.00427631
-0.0042489
-0.00422147
-0.00419402
-0.00416656
-0.00413909
-0.0041116
-0.0040841
-0.00405658
-0.00402905
-0.0040015
-0.00397394
-0.00394636
-0.00391877
-0.00389117
-0.00386356
-0.00383593
-0.00380828
-0.00378063
-0.00375296
-0.00372528
-0.00369758
-0.00366988
-0.00364216
-0.00361443
-0.00358668
-0.00355893
-0.00353116
-0.00350338
-0.00347558
-0.00344778
-0.00341996
-0.00339214
-0.0033643
-0.00333645
-0.00330859
-0.00328072
-0.00325283
-0.00322494
-0.00319704
-0.00316912
-0.0031412
-0.00311326
-0.00308532
-0.00305736
-0.00302939
-0.00300142
-0.00297343
-0.00294544
-0.00291743
-0.00288942
-0.0028614
-0.00283336
-0.00280532
-0.00277727
-0.00274921
-0.00272114
-0.00269306
-0.00266498
-0.00263688
-0.00260878
-0.00258067
-0.00255255
-0.00252442
-0.00249629
-0.00246814
-0.00243999
-0.00241183
-0.00238366
-0.00235549
-0.00232731
-0.00229912
-0.00227092
-0.00224272
-0.00221451
-0.00218629
-0.00215807
-0.00212984
-0.0021016
-0.00207335
-0.0020451
-0.00201685
-0.00198858
-0.00196031
-0.00193204
-0.00190376
-0.00187547
-0.00184717
-0.00181888
-0.00179057
-0.00176226
-0.00173395
-0.00170563
-0.0016773
-0.00164897
-0.00162063
-0.00159229
-0.00156394
-0.00153559
-0.00150724
-0.00147888
-0.00145051
-0.00142214
-0.00139377
-0.00136539
-0.00133701
-0.00130863
-0.00128024
-0.00125184
-0.00122344
-0.00119504
-0.00116664
-0.00113823
-0.00110982
-0.0010814
-0.00105299
-0.00102456
-0.000996139
-0.000967711
-0.000939281
-0.000910847
-0.000882411
-0.000853972
-0.000825531
-0.000797087
-0.000768641
-0.000740192
-0.000711741
-0.000683288
-0.000654833
-0.000626376
-0.000597918
-0.000569457
-0.000540995
-0.000512531
-0.000484065
-0.000455598
-0.00042713
-0.00039866
-0.00037019
-0.000341718
-0.000313245
-0.000284771
-0.000256296
-0.000227821
-0.000199345
-0.000170868
-0.000142391
-0.000113913
-8.54352e-05
-5.69569e-05
-2.84785e-05
)
;

boundaryField
{
    left
    {
        type            calculated;
        value           uniform 0;
    }
    right
    {
        type            calculated;
        value           uniform 0;
    }
    frontBackUpDown
    {
        type            empty;
    }
}


// ************************************************************************* //
