/*--------------------------------*- C++ -*----------------------------------*\
| =========                 |                                                 |
| \\      /  F ield         | OpenFOAM: The Open Source CFD Toolbox           |
|  \\    /   O peration     | Version:  2412                                  |
|   \\  /    A nd           | Website:  www.openfoam.com                      |
|    \\/     M anipulation  |                                                 |
\*---------------------------------------------------------------------------*/
FoamFile
{
    version     2.0;
    format      ascii;
    arch        "LSB;label=32;scalar=64";
    class       volVectorField;
    location    "0.56";
    object      U;
}
// * * * * * * * * * * * * * * * * * * * * * * * * * * * * * * * * * * * * * //

dimensions      [0 1 -1 0 0 0 0];

internalField   nonuniform List<vector> 
800
(
(0.00142391 0 0)
(0.00427176 0 0)
(0.0071196 0 0)
(0.00996741 0 0)
(0.0128152 0 0)
(0.0156629 0 0)
(0.0185106 0 0)
(0.0213583 0 0)
(0.0242059 0 0)
(0.0270534 0 0)
(0.0299008 0 0)
(0.0327482 0 0)
(0.0355954 0 0)
(0.0384425 0 0)
(0.0412896 0 0)
(0.0441365 0 0)
(0.0469832 0 0)
(0.0498298 0 0)
(0.0526763 0 0)
(0.0555226 0 0)
(0.0583688 0 0)
(0.0612148 0 0)
(0.0640606 0 0)
(0.0669062 0 0)
(0.0697516 0 0)
(0.0725968 0 0)
(0.0754417 0 0)
(0.0782865 0 0)
(0.081131 0 0)
(0.0839753 0 0)
(0.0868193 0 0)
(0.089663 0 0)
(0.0925065 0 0)
(0.0953497 0 0)
(0.0981926 0 0)
(0.101035 0 0)
(0.103878 0 0)
(0.10672 0 0)
(0.109561 0 0)
(0.112403 0 0)
(0.115244 0 0)
(0.118084 0 0)
(0.120925 0 0)
(0.123765 0 0)
(0.126604 0 0)
(0.129443 0 0)
(0.132282 0 0)
(0.13512 0 0)
(0.137958 0 0)
(0.140796 0 0)
(0.143633 0 0)
(0.14647 0 0)
(0.149306 0 0)
(0.152142 0 0)
(0.154977 0 0)
(0.157812 0 0)
(0.160646 0 0)
(0.16348 0 0)
(0.166314 0 0)
(0.169147 0 0)
(0.171979 0 0)
(0.174811 0 0)
(0.177642 0 0)
(0.180473 0 0)
(0.183303 0 0)
(0.186133 0 0)
(0.188962 0 0)
(0.19179 0 0)
(0.194618 0 0)
(0.197445 0 0)
(0.200272 0 0)
(0.203098 0 0)
(0.205923 0 0)
(0.208748 0 0)
(0.211572 0 0)
(0.214396 0 0)
(0.217218 0 0)
(0.22004 0 0)
(0.222862 0 0)
(0.225683 0 0)
(0.228503 0 0)
(0.231322 0 0)
(0.23414 0 0)
(0.236958 0 0)
(0.239775 0 0)
(0.242592 0 0)
(0.245407 0 0)
(0.248222 0 0)
(0.251036 0 0)
(0.253849 0 0)
(0.256661 0 0)
(0.259473 0 0)
(0.262284 0 0)
(0.265094 0 0)
(0.267903 0 0)
(0.270711 0 0)
(0.273518 0 0)
(0.276325 0 0)
(0.27913 0 0)
(0.281935 0 0)
(0.284739 0 0)
(0.287542 0 0)
(0.290343 0 0)
(0.293144 0 0)
(0.295944 0 0)
(0.298743 0 0)
(0.301542 0 0)
(0.304339 0 0)
(0.307135 0 0)
(0.30993 0 0)
(0.312724 0 0)
(0.315517 0 0)
(0.318309 0 0)
(0.3211 0 0)
(0.32389 0 0)
(0.326679 0 0)
(0.329466 0 0)
(0.332253 0 0)
(0.335038 0 0)
(0.337823 0 0)
(0.340606 0 0)
(0.343388 0 0)
(0.346169 0 0)
(0.348949 0 0)
(0.351728 0 0)
(0.354505 0 0)
(0.357281 0 0)
(0.360056 0 0)
(0.36283 0 0)
(0.365603 0 0)
(0.368374 0 0)
(0.371144 0 0)
(0.373913 0 0)
(0.376681 0 0)
(0.379447 0 0)
(0.382212 0 0)
(0.384975 0 0)
(0.387738 0 0)
(0.390499 0 0)
(0.393258 0 0)
(0.396016 0 0)
(0.398773 0 0)
(0.401528 0 0)
(0.404282 0 0)
(0.407035 0 0)
(0.409786 0 0)
(0.412536 0 0)
(0.415284 0 0)
(0.418031 0 0)
(0.420776 0 0)
(0.42352 0 0)
(0.426262 0 0)
(0.429003 0 0)
(0.431742 0 0)
(0.434479 0 0)
(0.437215 0 0)
(0.43995 0 0)
(0.442682 0 0)
(0.445414 0 0)
(0.448143 0 0)
(0.450871 0 0)
(0.453597 0 0)
(0.456322 0 0)
(0.459045 0 0)
(0.461766 0 0)
(0.464485 0 0)
(0.467203 0 0)
(0.469919 0 0)
(0.472633 0 0)
(0.475346 0 0)
(0.478056 0 0)
(0.480765 0 0)
(0.483472 0 0)
(0.486177 0 0)
(0.48888 0 0)
(0.491582 0 0)
(0.494281 0 0)
(0.496979 0 0)
(0.499674 0 0)
(0.502368 0 0)
(0.50506 0 0)
(0.50775 0 0)
(0.510437 0 0)
(0.513123 0 0)
(0.515807 0 0)
(0.518489 0 0)
(0.521168 0 0)
(0.523846 0 0)
(0.526521 0 0)
(0.529194 0 0)
(0.531866 0 0)
(0.534535 0 0)
(0.537202 0 0)
(0.539866 0 0)
(0.542529 0 0)
(0.545189 0 0)
(0.547847 0 0)
(0.550502 0 0)
(0.553156 0 0)
(0.555807 0 0)
(0.558456 0 0)
(0.561102 0 0)
(0.563746 0 0)
(0.566388 0 0)
(0.569027 0 0)
(0.571664 0 0)
(0.574298 0 0)
(0.57693 0 0)
(0.57956 0 0)
(0.582187 0 0)
(0.584811 0 0)
(0.587433 0 0)
(0.590052 0 0)
(0.592669 0 0)
(0.595283 0 0)
(0.597894 0 0)
(0.600503 0 0)
(0.603109 0 0)
(0.605712 0 0)
(0.608312 0 0)
(0.61091 0 0)
(0.613505 0 0)
(0.616097 0 0)
(0.618687 0 0)
(0.621273 0 0)
(0.623857 0 0)
(0.626437 0 0)
(0.629015 0 0)
(0.63159 0 0)
(0.634162 0 0)
(0.63673 0 0)
(0.639296 0 0)
(0.641859 0 0)
(0.644418 0 0)
(0.646975 0 0)
(0.649528 0 0)
(0.652078 0 0)
(0.654625 0 0)
(0.657169 0 0)
(0.659709 0 0)
(0.662246 0 0)
(0.66478 0 0)
(0.66731 0 0)
(0.669837 0 0)
(0.672361 0 0)
(0.674881 0 0)
(0.677398 0 0)
(0.679911 0 0)
(0.682421 0 0)
(0.684927 0 0)
(0.687429 0 0)
(0.689928 0 0)
(0.692423 0 0)
(0.694915 0 0)
(0.697403 0 0)
(0.699886 0 0)
(0.702367 0 0)
(0.704843 0 0)
(0.707315 0 0)
(0.709784 0 0)
(0.712248 0 0)
(0.714709 0 0)
(0.717165 0 0)
(0.719618 0 0)
(0.722066 0 0)
(0.72451 0 0)
(0.72695 0 0)
(0.729386 0 0)
(0.731818 0 0)
(0.734245 0 0)
(0.736668 0 0)
(0.739086 0 0)
(0.7415 0 0)
(0.74391 0 0)
(0.746315 0 0)
(0.748715 0 0)
(0.751111 0 0)
(0.753502 0 0)
(0.755889 0 0)
(0.758271 0 0)
(0.760648 0 0)
(0.76302 0 0)
(0.765387 0 0)
(0.767749 0 0)
(0.770106 0 0)
(0.772459 0 0)
(0.774806 0 0)
(0.777148 0 0)
(0.779484 0 0)
(0.781816 0 0)
(0.784142 0 0)
(0.786463 0 0)
(0.788778 0 0)
(0.791088 0 0)
(0.793392 0 0)
(0.795691 0 0)
(0.797984 0 0)
(0.800272 0 0)
(0.802553 0 0)
(0.804829 0 0)
(0.807099 0 0)
(0.809363 0 0)
(0.81162 0 0)
(0.813872 0 0)
(0.816118 0 0)
(0.818357 0 0)
(0.82059 0 0)
(0.822816 0 0)
(0.825036 0 0)
(0.82725 0 0)
(0.829457 0 0)
(0.831657 0 0)
(0.833851 0 0)
(0.836037 0 0)
(0.838217 0 0)
(0.84039 0 0)
(0.842555 0 0)
(0.844714 0 0)
(0.846865 0 0)
(0.849009 0 0)
(0.851145 0 0)
(0.853274 0 0)
(0.855395 0 0)
(0.857509 0 0)
(0.859614 0 0)
(0.861712 0 0)
(0.863802 0 0)
(0.865883 0 0)
(0.867957 0 0)
(0.870022 0 0)
(0.872079 0 0)
(0.874127 0 0)
(0.876166 0 0)
(0.878197 0 0)
(0.880219 0 0)
(0.882231 0 0)
(0.884235 0 0)
(0.886229 0 0)
(0.888214 0 0)
(0.89019 0 0)
(0.892156 0 0)
(0.894112 0 0)
(0.896058 0 0)
(0.897994 0 0)
(0.89992 0 0)
(0.901836 0 0)
(0.903741 0 0)
(0.905635 0 0)
(0.907519 0 0)
(0.909391 0 0)
(0.911253 0 0)
(0.913103 0 0)
(0.914942 0 0)
(0.916769 0 0)
(0.918584 0 0)
(0.920387 0 0)
(0.922178 0 0)
(0.923957 0 0)
(0.925723 0 0)
(0.927476 0 0)
(0.929216 0 0)
(0.930943 0 0)
(0.932656 0 0)
(0.934356 0 0)
(0.936042 0 0)
(0.937713 0 0)
(0.93937 0 0)
(0.941013 0 0)
(0.94264 0 0)
(0.944253 0 0)
(0.94585 0 0)
(0.947431 0 0)
(0.948996 0 0)
(0.950545 0 0)
(0.952077 0 0)
(0.953592 0 0)
(0.95509 0 0)
(0.95657 0 0)
(0.958032 0 0)
(0.959476 0 0)
(0.960901 0 0)
(0.962306 0 0)
(0.963693 0 0)
(0.965059 0 0)
(0.966405 0 0)
(0.967731 0 0)
(0.969035 0 0)
(0.970317 0 0)
(0.971577 0 0)
(0.972814 0 0)
(0.974028 0 0)
(0.975219 0 0)
(0.976384 0 0)
(0.977525 0 0)
(0.978643 0 0)
(0.979705 0 0)
(0.981027 0 0)
(0.979564 0 0)
(1.00405 0 0)
(0.606333 0 0)
(-0.604918 0 0)
(-1.00405 0 0)
(-0.979563 0 0)
(-0.981027 0 0)
(-0.979704 0 0)
(-0.978643 0 0)
(-0.977524 0 0)
(-0.976384 0 0)
(-0.975218 0 0)
(-0.974027 0 0)
(-0.972813 0 0)
(-0.971576 0 0)
(-0.970316 0 0)
(-0.969034 0 0)
(-0.96773 0 0)
(-0.966404 0 0)
(-0.965058 0 0)
(-0.963692 0 0)
(-0.962305 0 0)
(-0.960899 0 0)
(-0.959474 0 0)
(-0.958031 0 0)
(-0.956568 0 0)
(-0.955088 0 0)
(-0.95359 0 0)
(-0.952075 0 0)
(-0.950543 0 0)
(-0.948995 0 0)
(-0.947429 0 0)
(-0.945848 0 0)
(-0.944251 0 0)
(-0.942639 0 0)
(-0.941011 0 0)
(-0.939369 0 0)
(-0.937712 0 0)
(-0.93604 0 0)
(-0.934354 0 0)
(-0.932654 0 0)
(-0.930941 0 0)
(-0.929214 0 0)
(-0.927474 0 0)
(-0.925721 0 0)
(-0.923955 0 0)
(-0.922176 0 0)
(-0.920385 0 0)
(-0.918582 0 0)
(-0.916767 0 0)
(-0.91494 0 0)
(-0.913101 0 0)
(-0.911251 0 0)
(-0.90939 0 0)
(-0.907517 0 0)
(-0.905633 0 0)
(-0.903739 0 0)
(-0.901834 0 0)
(-0.899918 0 0)
(-0.897992 0 0)
(-0.896056 0 0)
(-0.89411 0 0)
(-0.892154 0 0)
(-0.890188 0 0)
(-0.888212 0 0)
(-0.886227 0 0)
(-0.884233 0 0)
(-0.882229 0 0)
(-0.880216 0 0)
(-0.878195 0 0)
(-0.876164 0 0)
(-0.874124 0 0)
(-0.872076 0 0)
(-0.87002 0 0)
(-0.867955 0 0)
(-0.865881 0 0)
(-0.8638 0 0)
(-0.86171 0 0)
(-0.859612 0 0)
(-0.857506 0 0)
(-0.855393 0 0)
(-0.853272 0 0)
(-0.851143 0 0)
(-0.849006 0 0)
(-0.846863 0 0)
(-0.844711 0 0)
(-0.842553 0 0)
(-0.840387 0 0)
(-0.838215 0 0)
(-0.836035 0 0)
(-0.833848 0 0)
(-0.831655 0 0)
(-0.829455 0 0)
(-0.827248 0 0)
(-0.825034 0 0)
(-0.822814 0 0)
(-0.820587 0 0)
(-0.818355 0 0)
(-0.816115 0 0)
(-0.81387 0 0)
(-0.811618 0 0)
(-0.80936 0 0)
(-0.807096 0 0)
(-0.804827 0 0)
(-0.802551 0 0)
(-0.800269 0 0)
(-0.797982 0 0)
(-0.795689 0 0)
(-0.79339 0 0)
(-0.791086 0 0)
(-0.788776 0 0)
(-0.78646 0 0)
(-0.78414 0 0)
(-0.781814 0 0)
(-0.779482 0 0)
(-0.777145 0 0)
(-0.774803 0 0)
(-0.772456 0 0)
(-0.770104 0 0)
(-0.767747 0 0)
(-0.765384 0 0)
(-0.763017 0 0)
(-0.760645 0 0)
(-0.758268 0 0)
(-0.755887 0 0)
(-0.7535 0 0)
(-0.751109 0 0)
(-0.748713 0 0)
(-0.746313 0 0)
(-0.743907 0 0)
(-0.741498 0 0)
(-0.739084 0 0)
(-0.736665 0 0)
(-0.734243 0 0)
(-0.731815 0 0)
(-0.729384 0 0)
(-0.726948 0 0)
(-0.724508 0 0)
(-0.722064 0 0)
(-0.719616 0 0)
(-0.717163 0 0)
(-0.714707 0 0)
(-0.712246 0 0)
(-0.709782 0 0)
(-0.707313 0 0)
(-0.704841 0 0)
(-0.702364 0 0)
(-0.699884 0 0)
(-0.6974 0 0)
(-0.694913 0 0)
(-0.692421 0 0)
(-0.689926 0 0)
(-0.687427 0 0)
(-0.684925 0 0)
(-0.682419 0 0)
(-0.679909 0 0)
(-0.677396 0 0)
(-0.674879 0 0)
(-0.672359 0 0)
(-0.669835 0 0)
(-0.667308 0 0)
(-0.664778 0 0)
(-0.662244 0 0)
(-0.659707 0 0)
(-0.657167 0 0)
(-0.654623 0 0)
(-0.652076 0 0)
(-0.649526 0 0)
(-0.646973 0 0)
(-0.644416 0 0)
(-0.641857 0 0)
(-0.639294 0 0)
(-0.636728 0 0)
(-0.63416 0 0)
(-0.631588 0 0)
(-0.629013 0 0)
(-0.626435 0 0)
(-0.623855 0 0)
(-0.621271 0 0)
(-0.618685 0 0)
(-0.616095 0 0)
(-0.613503 0 0)
(-0.610908 0 0)
(-0.608311 0 0)
(-0.60571 0 0)
(-0.603107 0 0)
(-0.600501 0 0)
(-0.597892 0 0)
(-0.595281 0 0)
(-0.592667 0 0)
(-0.59005 0 0)
(-0.587431 0 0)
(-0.584809 0 0)
(-0.582185 0 0)
(-0.579558 0 0)
(-0.576929 0 0)
(-0.574297 0 0)
(-0.571662 0 0)
(-0.569025 0 0)
(-0.566386 0 0)
(-0.563745 0 0)
(-0.5611 0 0)
(-0.558454 0 0)
(-0.555805 0 0)
(-0.553154 0 0)
(-0.550501 0 0)
(-0.547845 0 0)
(-0.545187 0 0)
(-0.542527 0 0)
(-0.539865 0 0)
(-0.5372 0 0)
(-0.534533 0 0)
(-0.531864 0 0)
(-0.529193 0 0)
(-0.52652 0 0)
(-0.523844 0 0)
(-0.521167 0 0)
(-0.518487 0 0)
(-0.515805 0 0)
(-0.513122 0 0)
(-0.510436 0 0)
(-0.507748 0 0)
(-0.505058 0 0)
(-0.502367 0 0)
(-0.499673 0 0)
(-0.496977 0 0)
(-0.49428 0 0)
(-0.49158 0 0)
(-0.488879 0 0)
(-0.486176 0 0)
(-0.483471 0 0)
(-0.480764 0 0)
(-0.478055 0 0)
(-0.475344 0 0)
(-0.472632 0 0)
(-0.469918 0 0)
(-0.467202 0 0)
(-0.464484 0 0)
(-0.461765 0 0)
(-0.459044 0 0)
(-0.456321 0 0)
(-0.453596 0 0)
(-0.45087 0 0)
(-0.448142 0 0)
(-0.445413 0 0)
(-0.442681 0 0)
(-0.439949 0 0)
(-0.437214 0 0)
(-0.434478 0 0)
(-0.431741 0 0)
(-0.429002 0 0)
(-0.426261 0 0)
(-0.423519 0 0)
(-0.420775 0 0)
(-0.41803 0 0)
(-0.415283 0 0)
(-0.412535 0 0)
(-0.409785 0 0)
(-0.407034 0 0)
(-0.404282 0 0)
(-0.401528 0 0)
(-0.398772 0 0)
(-0.396015 0 0)
(-0.393257 0 0)
(-0.390498 0 0)
(-0.387737 0 0)
(-0.384975 0 0)
(-0.382211 0 0)
(-0.379446 0 0)
(-0.37668 0 0)
(-0.373912 0 0)
(-0.371144 0 0)
(-0.368373 0 0)
(-0.365602 0 0)
(-0.36283 0 0)
(-0.360056 0 0)
(-0.357281 0 0)
(-0.354504 0 0)
(-0.351727 0 0)
(-0.348948 0 0)
(-0.346169 0 0)
(-0.343388 0 0)
(-0.340605 0 0)
(-0.337822 0 0)
(-0.335038 0 0)
(-0.332252 0 0)
(-0.329466 0 0)
(-0.326678 0 0)
(-0.323889 0 0)
(-0.321099 0 0)
(-0.318308 0 0)
(-0.315516 0 0)
(-0.312723 0 0)
(-0.309929 0 0)
(-0.307134 0 0)
(-0.304338 0 0)
(-0.301541 0 0)
(-0.298743 0 0)
(-0.295944 0 0)
(-0.293144 0 0)
(-0.290343 0 0)
(-0.287541 0 0)
(-0.284738 0 0)
(-0.281934 0 0)
(-0.27913 0 0)
(-0.276324 0 0)
(-0.273518 0 0)
(-0.27071 0 0)
(-0.267902 0 0)
(-0.265093 0 0)
(-0.262283 0 0)
(-0.259473 0 0)
(-0.256661 0 0)
(-0.253849 0 0)
(-0.251035 0 0)
(-0.248222 0 0)
(-0.245407 0 0)
(-0.242591 0 0)
(-0.239775 0 0)
(-0.236958 0 0)
(-0.23414 0 0)
(-0.231321 0 0)
(-0.228502 0 0)
(-0.225682 0 0)
(-0.222861 0 0)
(-0.22004 0 0)
(-0.217218 0 0)
(-0.214395 0 0)
(-0.211572 0 0)
(-0.208748 0 0)
(-0.205923 0 0)
(-0.203098 0 0)
(-0.200272 0 0)
(-0.197445 0 0)
(-0.194618 0 0)
(-0.19179 0 0)
(-0.188961 0 0)
(-0.186132 0 0)
(-0.183303 0 0)
(-0.180473 0 0)
(-0.177642 0 0)
(-0.174811 0 0)
(-0.171979 0 0)
(-0.169146 0 0)
(-0.166313 0 0)
(-0.16348 0 0)
(-0.160646 0 0)
(-0.157812 0 0)
(-0.154977 0 0)
(-0.152142 0 0)
(-0.149306 0 0)
(-0.14647 0 0)
(-0.143633 0 0)
(-0.140796 0 0)
(-0.137958 0 0)
(-0.13512 0 0)
(-0.132282 0 0)
(-0.129443 0 0)
(-0.126604 0 0)
(-0.123764 0 0)
(-0.120925 0 0)
(-0.118084 0 0)
(-0.115244 0 0)
(-0.112403 0 0)
(-0.109561 0 0)
(-0.10672 0 0)
(-0.103878 0 0)
(-0.101035 0 0)
(-0.0981926 0 0)
(-0.0953497 0 0)
(-0.0925065 0 0)
(-0.089663 0 0)
(-0.0868192 0 0)
(-0.0839752 0 0)
(-0.081131 0 0)
(-0.0782864 0 0)
(-0.0754417 0 0)
(-0.0725967 0 0)
(-0.0697515 0 0)
(-0.0669061 0 0)
(-0.0640605 0 0)
(-0.0612148 0 0)
(-0.0583688 0 0)
(-0.0555226 0 0)
(-0.0526763 0 0)
(-0.0498298 0 0)
(-0.0469832 0 0)
(-0.0441365 0 0)
(-0.0412896 0 0)
(-0.0384425 0 0)
(-0.0355954 0 0)
(-0.0327482 0 0)
(-0.0299008 0 0)
(-0.0270534 0 0)
(-0.0242059 0 0)
(-0.0213583 0 0)
(-0.0185107 0 0)
(-0.015663 0 0)
(-0.0128152 0 0)
(-0.00996743 0 0)
(-0.00711961 0 0)
(-0.00427178 0 0)
(-0.00142393 0 0)
)
;

boundaryField
{
    left
    {
        type            fixedValue;
        value           uniform (0 0 0);
    }
    right
    {
        type            fixedValue;
        value           uniform (0 0 0);
    }
    frontBackUpDown
    {
        type            empty;
    }
}


// ************************************************************************* //
