/*--------------------------------*- C++ -*----------------------------------*\
| =========                 |                                                 |
| \\      /  F ield         | OpenFOAM: The Open Source CFD Toolbox           |
|  \\    /   O peration     | Version:  2412                                  |
|   \\  /    A nd           | Website:  www.openfoam.com                      |
|    \\/     M anipulation  |                                                 |
\*---------------------------------------------------------------------------*/
FoamFile
{
    version     2.0;
    format      ascii;
    arch        "LSB;label=32;scalar=64";
    class       volVectorField;
    location    "0.56";
    object      U_0_0;
}
// * * * * * * * * * * * * * * * * * * * * * * * * * * * * * * * * * * * * * //

dimensions      [0 1 -1 0 0 0 0];

internalField   nonuniform List<vector> 
800
(
(0.00142553 0 0)
(0.00427662 0 0)
(0.0071277 0 0)
(0.00997876 0 0)
(0.0128298 0 0)
(0.0156808 0 0)
(0.0185317 0 0)
(0.0213826 0 0)
(0.0242334 0 0)
(0.0270842 0 0)
(0.0299348 0 0)
(0.0327854 0 0)
(0.0356359 0 0)
(0.0384863 0 0)
(0.0413365 0 0)
(0.0441867 0 0)
(0.0470367 0 0)
(0.0498865 0 0)
(0.0527363 0 0)
(0.0555858 0 0)
(0.0584352 0 0)
(0.0612844 0 0)
(0.0641334 0 0)
(0.0669823 0 0)
(0.0698309 0 0)
(0.0726793 0 0)
(0.0755275 0 0)
(0.0783755 0 0)
(0.0812232 0 0)
(0.0840707 0 0)
(0.086918 0 0)
(0.0897649 0 0)
(0.0926117 0 0)
(0.0954581 0 0)
(0.0983042 0 0)
(0.10115 0 0)
(0.103996 0 0)
(0.106841 0 0)
(0.109686 0 0)
(0.11253 0 0)
(0.115375 0 0)
(0.118218 0 0)
(0.121062 0 0)
(0.123905 0 0)
(0.126748 0 0)
(0.12959 0 0)
(0.132432 0 0)
(0.135274 0 0)
(0.138115 0 0)
(0.140956 0 0)
(0.143796 0 0)
(0.146636 0 0)
(0.149475 0 0)
(0.152314 0 0)
(0.155153 0 0)
(0.157991 0 0)
(0.160828 0 0)
(0.163665 0 0)
(0.166502 0 0)
(0.169338 0 0)
(0.172174 0 0)
(0.175009 0 0)
(0.177843 0 0)
(0.180677 0 0)
(0.18351 0 0)
(0.186343 0 0)
(0.189175 0 0)
(0.192007 0 0)
(0.194838 0 0)
(0.197668 0 0)
(0.200498 0 0)
(0.203327 0 0)
(0.206156 0 0)
(0.208984 0 0)
(0.211811 0 0)
(0.214637 0 0)
(0.217463 0 0)
(0.220289 0 0)
(0.223113 0 0)
(0.225937 0 0)
(0.22876 0 0)
(0.231582 0 0)
(0.234404 0 0)
(0.237225 0 0)
(0.240045 0 0)
(0.242865 0 0)
(0.245683 0 0)
(0.248501 0 0)
(0.251318 0 0)
(0.254135 0 0)
(0.25695 0 0)
(0.259765 0 0)
(0.262578 0 0)
(0.265391 0 0)
(0.268204 0 0)
(0.271015 0 0)
(0.273825 0 0)
(0.276635 0 0)
(0.279443 0 0)
(0.282251 0 0)
(0.285058 0 0)
(0.287864 0 0)
(0.290669 0 0)
(0.293473 0 0)
(0.296276 0 0)
(0.299078 0 0)
(0.301879 0 0)
(0.304679 0 0)
(0.307478 0 0)
(0.310276 0 0)
(0.313073 0 0)
(0.315869 0 0)
(0.318664 0 0)
(0.321458 0 0)
(0.324251 0 0)
(0.327043 0 0)
(0.329833 0 0)
(0.332623 0 0)
(0.335411 0 0)
(0.338199 0 0)
(0.340985 0 0)
(0.34377 0 0)
(0.346554 0 0)
(0.349337 0 0)
(0.352118 0 0)
(0.354899 0 0)
(0.357678 0 0)
(0.360456 0 0)
(0.363233 0 0)
(0.366008 0 0)
(0.368782 0 0)
(0.371555 0 0)
(0.374327 0 0)
(0.377097 0 0)
(0.379866 0 0)
(0.382634 0 0)
(0.385401 0 0)
(0.388166 0 0)
(0.390929 0 0)
(0.393692 0 0)
(0.396453 0 0)
(0.399212 0 0)
(0.401971 0 0)
(0.404727 0 0)
(0.407483 0 0)
(0.410237 0 0)
(0.412989 0 0)
(0.41574 0 0)
(0.41849 0 0)
(0.421238 0 0)
(0.423984 0 0)
(0.426729 0 0)
(0.429472 0 0)
(0.432214 0 0)
(0.434955 0 0)
(0.437693 0 0)
(0.44043 0 0)
(0.443166 0 0)
(0.4459 0 0)
(0.448632 0 0)
(0.451363 0 0)
(0.454092 0 0)
(0.456819 0 0)
(0.459544 0 0)
(0.462268 0 0)
(0.46499 0 0)
(0.467711 0 0)
(0.470429 0 0)
(0.473146 0 0)
(0.475861 0 0)
(0.478574 0 0)
(0.481286 0 0)
(0.483995 0 0)
(0.486703 0 0)
(0.489409 0 0)
(0.492112 0 0)
(0.494815 0 0)
(0.497515 0 0)
(0.500213 0 0)
(0.502909 0 0)
(0.505603 0 0)
(0.508295 0 0)
(0.510986 0 0)
(0.513674 0 0)
(0.51636 0 0)
(0.519044 0 0)
(0.521726 0 0)
(0.524406 0 0)
(0.527084 0 0)
(0.52976 0 0)
(0.532433 0 0)
(0.535105 0 0)
(0.537774 0 0)
(0.540441 0 0)
(0.543106 0 0)
(0.545768 0 0)
(0.548429 0 0)
(0.551087 0 0)
(0.553742 0 0)
(0.556396 0 0)
(0.559047 0 0)
(0.561696 0 0)
(0.564342 0 0)
(0.566986 0 0)
(0.569627 0 0)
(0.572266 0 0)
(0.574903 0 0)
(0.577537 0 0)
(0.580169 0 0)
(0.582798 0 0)
(0.585424 0 0)
(0.588048 0 0)
(0.59067 0 0)
(0.593288 0 0)
(0.595904 0 0)
(0.598518 0 0)
(0.601129 0 0)
(0.603737 0 0)
(0.606342 0 0)
(0.608945 0 0)
(0.611544 0 0)
(0.614141 0 0)
(0.616736 0 0)
(0.619327 0 0)
(0.621915 0 0)
(0.624501 0 0)
(0.627083 0 0)
(0.629663 0 0)
(0.63224 0 0)
(0.634813 0 0)
(0.637384 0 0)
(0.639952 0 0)
(0.642516 0 0)
(0.645078 0 0)
(0.647636 0 0)
(0.650191 0 0)
(0.652743 0 0)
(0.655291 0 0)
(0.657837 0 0)
(0.660379 0 0)
(0.662918 0 0)
(0.665453 0 0)
(0.667985 0 0)
(0.670514 0 0)
(0.673039 0 0)
(0.675561 0 0)
(0.678079 0 0)
(0.680594 0 0)
(0.683105 0 0)
(0.685613 0 0)
(0.688117 0 0)
(0.690617 0 0)
(0.693114 0 0)
(0.695607 0 0)
(0.698096 0 0)
(0.700581 0 0)
(0.703063 0 0)
(0.70554 0 0)
(0.708014 0 0)
(0.710484 0 0)
(0.71295 0 0)
(0.715412 0 0)
(0.717869 0 0)
(0.720323 0 0)
(0.722773 0 0)
(0.725218 0 0)
(0.727659 0 0)
(0.730096 0 0)
(0.732529 0 0)
(0.734957 0 0)
(0.737381 0 0)
(0.7398 0 0)
(0.742215 0 0)
(0.744626 0 0)
(0.747032 0 0)
(0.749433 0 0)
(0.75183 0 0)
(0.754222 0 0)
(0.75661 0 0)
(0.758992 0 0)
(0.76137 0 0)
(0.763743 0 0)
(0.766111 0 0)
(0.768474 0 0)
(0.770832 0 0)
(0.773184 0 0)
(0.775532 0 0)
(0.777875 0 0)
(0.780212 0 0)
(0.782544 0 0)
(0.784871 0 0)
(0.787192 0 0)
(0.789508 0 0)
(0.791818 0 0)
(0.794123 0 0)
(0.796422 0 0)
(0.798715 0 0)
(0.801003 0 0)
(0.803285 0 0)
(0.805561 0 0)
(0.807831 0 0)
(0.810094 0 0)
(0.812352 0 0)
(0.814604 0 0)
(0.81685 0 0)
(0.819089 0 0)
(0.821322 0 0)
(0.823548 0 0)
(0.825768 0 0)
(0.827981 0 0)
(0.830188 0 0)
(0.832388 0 0)
(0.834581 0 0)
(0.836767 0 0)
(0.838947 0 0)
(0.841119 0 0)
(0.843284 0 0)
(0.845442 0 0)
(0.847592 0 0)
(0.849735 0 0)
(0.851871 0 0)
(0.853999 0 0)
(0.85612 0 0)
(0.858232 0 0)
(0.860337 0 0)
(0.862434 0 0)
(0.864522 0 0)
(0.866603 0 0)
(0.868675 0 0)
(0.870739 0 0)
(0.872794 0 0)
(0.874841 0 0)
(0.876879 0 0)
(0.878909 0 0)
(0.880929 0 0)
(0.88294 0 0)
(0.884942 0 0)
(0.886935 0 0)
(0.888918 0 0)
(0.890892 0 0)
(0.892856 0 0)
(0.89481 0 0)
(0.896754 0 0)
(0.898688 0 0)
(0.900612 0 0)
(0.902525 0 0)
(0.904428 0 0)
(0.90632 0 0)
(0.908201 0 0)
(0.910071 0 0)
(0.911929 0 0)
(0.913777 0 0)
(0.915613 0 0)
(0.917437 0 0)
(0.919249 0 0)
(0.921049 0 0)
(0.922837 0 0)
(0.924612 0 0)
(0.926374 0 0)
(0.928124 0 0)
(0.92986 0 0)
(0.931583 0 0)
(0.933293 0 0)
(0.934989 0 0)
(0.93667 0 0)
(0.938338 0 0)
(0.93999 0 0)
(0.941628 0 0)
(0.943251 0 0)
(0.944859 0 0)
(0.946451 0 0)
(0.948027 0 0)
(0.949587 0 0)
(0.951131 0 0)
(0.952657 0 0)
(0.954167 0 0)
(0.955659 0 0)
(0.957133 0 0)
(0.958589 0 0)
(0.960026 0 0)
(0.961445 0 0)
(0.962844 0 0)
(0.964224 0 0)
(0.965583 0 0)
(0.966922 0 0)
(0.96824 0 0)
(0.969536 0 0)
(0.970811 0 0)
(0.972063 0 0)
(0.973292 0 0)
(0.974497 0 0)
(0.975679 0 0)
(0.976836 0 0)
(0.977967 0 0)
(0.979075 0 0)
(0.980127 0 0)
(0.981441 0 0)
(0.979953 0 0)
(1.00452 0 0)
(0.606792 0 0)
(-0.605376 0 0)
(-1.00452 0 0)
(-0.979952 0 0)
(-0.981441 0 0)
(-0.980127 0 0)
(-0.979075 0 0)
(-0.977966 0 0)
(-0.976835 0 0)
(-0.975678 0 0)
(-0.974496 0 0)
(-0.973291 0 0)
(-0.972062 0 0)
(-0.97081 0 0)
(-0.969535 0 0)
(-0.968239 0 0)
(-0.966921 0 0)
(-0.965582 0 0)
(-0.964223 0 0)
(-0.962843 0 0)
(-0.961444 0 0)
(-0.960025 0 0)
(-0.958588 0 0)
(-0.957132 0 0)
(-0.955658 0 0)
(-0.954165 0 0)
(-0.952656 0 0)
(-0.951129 0 0)
(-0.949586 0 0)
(-0.948026 0 0)
(-0.94645 0 0)
(-0.944858 0 0)
(-0.94325 0 0)
(-0.941627 0 0)
(-0.939989 0 0)
(-0.938336 0 0)
(-0.936669 0 0)
(-0.934987 0 0)
(-0.933291 0 0)
(-0.931582 0 0)
(-0.929859 0 0)
(-0.928122 0 0)
(-0.926373 0 0)
(-0.92461 0 0)
(-0.922835 0 0)
(-0.921047 0 0)
(-0.919247 0 0)
(-0.917435 0 0)
(-0.915611 0 0)
(-0.913775 0 0)
(-0.911928 0 0)
(-0.910069 0 0)
(-0.908199 0 0)
(-0.906318 0 0)
(-0.904426 0 0)
(-0.902523 0 0)
(-0.90061 0 0)
(-0.898686 0 0)
(-0.896752 0 0)
(-0.894808 0 0)
(-0.892854 0 0)
(-0.89089 0 0)
(-0.888916 0 0)
(-0.886933 0 0)
(-0.88494 0 0)
(-0.882938 0 0)
(-0.880927 0 0)
(-0.878906 0 0)
(-0.876877 0 0)
(-0.874839 0 0)
(-0.872792 0 0)
(-0.870737 0 0)
(-0.868673 0 0)
(-0.866601 0 0)
(-0.86452 0 0)
(-0.862431 0 0)
(-0.860335 0 0)
(-0.85823 0 0)
(-0.856117 0 0)
(-0.853997 0 0)
(-0.851869 0 0)
(-0.849733 0 0)
(-0.84759 0 0)
(-0.845439 0 0)
(-0.843282 0 0)
(-0.841117 0 0)
(-0.838944 0 0)
(-0.836765 0 0)
(-0.834579 0 0)
(-0.832386 0 0)
(-0.830186 0 0)
(-0.827979 0 0)
(-0.825766 0 0)
(-0.823546 0 0)
(-0.821319 0 0)
(-0.819086 0 0)
(-0.816847 0 0)
(-0.814602 0 0)
(-0.81235 0 0)
(-0.810092 0 0)
(-0.807828 0 0)
(-0.805558 0 0)
(-0.803282 0 0)
(-0.801001 0 0)
(-0.798713 0 0)
(-0.79642 0 0)
(-0.79412 0 0)
(-0.791816 0 0)
(-0.789505 0 0)
(-0.78719 0 0)
(-0.784868 0 0)
(-0.782542 0 0)
(-0.78021 0 0)
(-0.777872 0 0)
(-0.77553 0 0)
(-0.773182 0 0)
(-0.770829 0 0)
(-0.768471 0 0)
(-0.766108 0 0)
(-0.76374 0 0)
(-0.761368 0 0)
(-0.75899 0 0)
(-0.756607 0 0)
(-0.75422 0 0)
(-0.751828 0 0)
(-0.749431 0 0)
(-0.74703 0 0)
(-0.744624 0 0)
(-0.742213 0 0)
(-0.739798 0 0)
(-0.737379 0 0)
(-0.734955 0 0)
(-0.732526 0 0)
(-0.730094 0 0)
(-0.727657 0 0)
(-0.725216 0 0)
(-0.72277 0 0)
(-0.720321 0 0)
(-0.717867 0 0)
(-0.715409 0 0)
(-0.712948 0 0)
(-0.710482 0 0)
(-0.708012 0 0)
(-0.705538 0 0)
(-0.70306 0 0)
(-0.700579 0 0)
(-0.698094 0 0)
(-0.695604 0 0)
(-0.693112 0 0)
(-0.690615 0 0)
(-0.688115 0 0)
(-0.685611 0 0)
(-0.683103 0 0)
(-0.680592 0 0)
(-0.678077 0 0)
(-0.675559 0 0)
(-0.673037 0 0)
(-0.670512 0 0)
(-0.667983 0 0)
(-0.665451 0 0)
(-0.662916 0 0)
(-0.660377 0 0)
(-0.657835 0 0)
(-0.655289 0 0)
(-0.652741 0 0)
(-0.650189 0 0)
(-0.647634 0 0)
(-0.645075 0 0)
(-0.642514 0 0)
(-0.63995 0 0)
(-0.637382 0 0)
(-0.634811 0 0)
(-0.632238 0 0)
(-0.629661 0 0)
(-0.627081 0 0)
(-0.624499 0 0)
(-0.621913 0 0)
(-0.619325 0 0)
(-0.616734 0 0)
(-0.614139 0 0)
(-0.611543 0 0)
(-0.608943 0 0)
(-0.60634 0 0)
(-0.603735 0 0)
(-0.601127 0 0)
(-0.598516 0 0)
(-0.595903 0 0)
(-0.593287 0 0)
(-0.590668 0 0)
(-0.588046 0 0)
(-0.585423 0 0)
(-0.582796 0 0)
(-0.580167 0 0)
(-0.577535 0 0)
(-0.574901 0 0)
(-0.572265 0 0)
(-0.569626 0 0)
(-0.566984 0 0)
(-0.56434 0 0)
(-0.561694 0 0)
(-0.559045 0 0)
(-0.556394 0 0)
(-0.553741 0 0)
(-0.551085 0 0)
(-0.548427 0 0)
(-0.545767 0 0)
(-0.543104 0 0)
(-0.54044 0 0)
(-0.537772 0 0)
(-0.535103 0 0)
(-0.532432 0 0)
(-0.529758 0 0)
(-0.527083 0 0)
(-0.524405 0 0)
(-0.521725 0 0)
(-0.519043 0 0)
(-0.516359 0 0)
(-0.513673 0 0)
(-0.510984 0 0)
(-0.508294 0 0)
(-0.505602 0 0)
(-0.502908 0 0)
(-0.500211 0 0)
(-0.497513 0 0)
(-0.494813 0 0)
(-0.492111 0 0)
(-0.489407 0 0)
(-0.486701 0 0)
(-0.483994 0 0)
(-0.481284 0 0)
(-0.478573 0 0)
(-0.47586 0 0)
(-0.473145 0 0)
(-0.470428 0 0)
(-0.467709 0 0)
(-0.464989 0 0)
(-0.462267 0 0)
(-0.459543 0 0)
(-0.456818 0 0)
(-0.45409 0 0)
(-0.451361 0 0)
(-0.448631 0 0)
(-0.445899 0 0)
(-0.443165 0 0)
(-0.440429 0 0)
(-0.437692 0 0)
(-0.434954 0 0)
(-0.432213 0 0)
(-0.429471 0 0)
(-0.426728 0 0)
(-0.423983 0 0)
(-0.421237 0 0)
(-0.418489 0 0)
(-0.415739 0 0)
(-0.412988 0 0)
(-0.410236 0 0)
(-0.407482 0 0)
(-0.404726 0 0)
(-0.40197 0 0)
(-0.399212 0 0)
(-0.396452 0 0)
(-0.393691 0 0)
(-0.390929 0 0)
(-0.388165 0 0)
(-0.3854 0 0)
(-0.382633 0 0)
(-0.379866 0 0)
(-0.377096 0 0)
(-0.374326 0 0)
(-0.371554 0 0)
(-0.368781 0 0)
(-0.366007 0 0)
(-0.363232 0 0)
(-0.360455 0 0)
(-0.357677 0 0)
(-0.354898 0 0)
(-0.352118 0 0)
(-0.349336 0 0)
(-0.346553 0 0)
(-0.343769 0 0)
(-0.340984 0 0)
(-0.338198 0 0)
(-0.335411 0 0)
(-0.332622 0 0)
(-0.329833 0 0)
(-0.327042 0 0)
(-0.32425 0 0)
(-0.321457 0 0)
(-0.318663 0 0)
(-0.315868 0 0)
(-0.313072 0 0)
(-0.310275 0 0)
(-0.307477 0 0)
(-0.304678 0 0)
(-0.301878 0 0)
(-0.299077 0 0)
(-0.296275 0 0)
(-0.293472 0 0)
(-0.290668 0 0)
(-0.287863 0 0)
(-0.285057 0 0)
(-0.28225 0 0)
(-0.279443 0 0)
(-0.276634 0 0)
(-0.273825 0 0)
(-0.271014 0 0)
(-0.268203 0 0)
(-0.265391 0 0)
(-0.262578 0 0)
(-0.259764 0 0)
(-0.25695 0 0)
(-0.254134 0 0)
(-0.251318 0 0)
(-0.248501 0 0)
(-0.245683 0 0)
(-0.242864 0 0)
(-0.240045 0 0)
(-0.237225 0 0)
(-0.234404 0 0)
(-0.231582 0 0)
(-0.22876 0 0)
(-0.225937 0 0)
(-0.223113 0 0)
(-0.220288 0 0)
(-0.217463 0 0)
(-0.214637 0 0)
(-0.211811 0 0)
(-0.208983 0 0)
(-0.206155 0 0)
(-0.203327 0 0)
(-0.200498 0 0)
(-0.197668 0 0)
(-0.194838 0 0)
(-0.192007 0 0)
(-0.189175 0 0)
(-0.186343 0 0)
(-0.18351 0 0)
(-0.180677 0 0)
(-0.177843 0 0)
(-0.175008 0 0)
(-0.172173 0 0)
(-0.169338 0 0)
(-0.166502 0 0)
(-0.163665 0 0)
(-0.160828 0 0)
(-0.157991 0 0)
(-0.155153 0 0)
(-0.152314 0 0)
(-0.149475 0 0)
(-0.146636 0 0)
(-0.143796 0 0)
(-0.140956 0 0)
(-0.138115 0 0)
(-0.135274 0 0)
(-0.132432 0 0)
(-0.12959 0 0)
(-0.126748 0 0)
(-0.123905 0 0)
(-0.121062 0 0)
(-0.118218 0 0)
(-0.115374 0 0)
(-0.11253 0 0)
(-0.109686 0 0)
(-0.106841 0 0)
(-0.103996 0 0)
(-0.10115 0 0)
(-0.0983042 0 0)
(-0.095458 0 0)
(-0.0926116 0 0)
(-0.0897649 0 0)
(-0.0869179 0 0)
(-0.0840707 0 0)
(-0.0812232 0 0)
(-0.0783755 0 0)
(-0.0755275 0 0)
(-0.0726793 0 0)
(-0.0698309 0 0)
(-0.0669822 0 0)
(-0.0641334 0 0)
(-0.0612844 0 0)
(-0.0584352 0 0)
(-0.0555858 0 0)
(-0.0527362 0 0)
(-0.0498865 0 0)
(-0.0470367 0 0)
(-0.0441867 0 0)
(-0.0413365 0 0)
(-0.0384863 0 0)
(-0.0356359 0 0)
(-0.0327854 0 0)
(-0.0299349 0 0)
(-0.0270842 0 0)
(-0.0242334 0 0)
(-0.0213826 0 0)
(-0.0185317 0 0)
(-0.0156808 0 0)
(-0.0128298 0 0)
(-0.00997877 0 0)
(-0.00712772 0 0)
(-0.00427664 0 0)
(-0.00142555 0 0)
)
;

boundaryField
{
    left
    {
        type            fixedValue;
        value           uniform (0 0 0);
    }
    right
    {
        type            fixedValue;
        value           uniform (0 0 0);
    }
    frontBackUpDown
    {
        type            empty;
    }
}


// ************************************************************************* //
