/*--------------------------------*- C++ -*----------------------------------*\
| =========                 |                                                 |
| \\      /  F ield         | OpenFOAM: The Open Source CFD Toolbox           |
|  \\    /   O peration     | Version:  2412                                  |
|   \\  /    A nd           | Website:  www.openfoam.com                      |
|    \\/     M anipulation  |                                                 |
\*---------------------------------------------------------------------------*/
FoamFile
{
    version     2.0;
    format      ascii;
    arch        "LSB;label=32;scalar=64";
    class       surfaceScalarField;
    location    "0.07";
    object      phi;
}
// * * * * * * * * * * * * * * * * * * * * * * * * * * * * * * * * * * * * * //

dimensions      [0 3 -1 0 0 0 0];

oriented        oriented;

internalField   nonuniform List<scalar> 
799
(
6.43678e-05
0.000128734
0.000193096
0.000257452
0.000321798
0.000386134
0.000450457
0.000514764
0.000579054
0.000643324
0.000707572
0.000771796
0.000835993
0.000900162
0.000964301
0.00102841
0.00109248
0.00115651
0.0012205
0.00128446
0.00134836
0.00141223
0.00147604
0.0015398
0.00160351
0.00166717
0.00173077
0.00179431
0.00185778
0.0019212
0.00198454
0.00204782
0.00211103
0.00217417
0.00223723
0.00230022
0.00236312
0.00242594
0.00248868
0.00255134
0.0026139
0.00267638
0.00273876
0.00280104
0.00286323
0.00292532
0.00298731
0.00304919
0.00311097
0.00317264
0.00323419
0.00329564
0.00335697
0.00341818
0.00347927
0.00354024
0.00360108
0.00366179
0.00372238
0.00378284
0.00384316
0.00390334
0.00396339
0.00402329
0.00408306
0.00414267
0.00420214
0.00426146
0.00432063
0.00437964
0.00443849
0.00449718
0.00455571
0.00461408
0.00467228
0.00473031
0.00478817
0.00484585
0.00490336
0.00496069
0.00501784
0.0050748
0.00513158
0.00518817
0.00524457
0.00530078
0.00535679
0.0054126
0.00546821
0.00552361
0.00557881
0.00563381
0.00568859
0.00574316
0.00579751
0.00585164
0.00590556
0.00595925
0.00601271
0.00606595
0.00611895
0.00617173
0.00622426
0.00627656
0.00632861
0.00638043
0.00643199
0.00648331
0.00653438
0.00658519
0.00663574
0.00668604
0.00673607
0.00678584
0.00683534
0.00688457
0.00693353
0.00698221
0.00703062
0.00707874
0.00712659
0.00717414
0.00722141
0.00726838
0.00731506
0.00736145
0.00740753
0.00745331
0.00749879
0.00754396
0.00758882
0.00763336
0.00767759
0.0077215
0.00776509
0.00780835
0.00785128
0.00789389
0.00793616
0.0079781
0.00801969
0.00806095
0.00810185
0.00814242
0.00818263
0.00822248
0.00826199
0.00830113
0.00833991
0.00837832
0.00841637
0.00845404
0.00849135
0.00852827
0.00856481
0.00860098
0.00863675
0.00867214
0.00870713
0.00874173
0.00877593
0.00880973
0.00884313
0.00887612
0.0089087
0.00894086
0.00897261
0.00900394
0.00903484
0.00906532
0.00909537
0.00912499
0.00915418
0.00918292
0.00921123
0.00923909
0.0092665
0.00929346
0.00931996
0.00934601
0.0093716
0.00939673
0.00942138
0.00944557
0.00946928
0.00949252
0.00951528
0.00953755
0.00955934
0.00958064
0.00960144
0.00962175
0.00964156
0.00966087
0.00967967
0.00969796
0.00971574
0.00973301
0.00974975
0.00976597
0.00978167
0.00979684
0.00981147
0.00982557
0.00983913
0.00985215
0.00986462
0.00987655
0.00988792
0.00989874
0.009909
0.00991869
0.00992782
0.00993639
0.00994438
0.00995179
0.00995863
0.00996489
0.00997056
0.00997564
0.00998013
0.00998403
0.00998733
0.00999002
0.00999211
0.0099936
0.00999447
0.00999473
0.00999437
0.00999339
0.00999179
0.00998956
0.0099867
0.00998321
0.00997908
0.00997431
0.0099689
0.00996284
0.00995613
0.00994877
0.00994076
0.00993209
0.00992276
0.00991276
0.0099021
0.00989077
0.00987876
0.00986608
0.00985272
0.00983868
0.00982396
0.00980855
0.00979245
0.00977566
0.00975817
0.00973999
0.00972111
0.00970152
0.00968123
0.00966023
0.00963852
0.0096161
0.00959297
0.00956911
0.00954454
0.00951925
0.00949323
0.00946649
0.00943902
0.00941082
0.00938189
0.00935223
0.00932183
0.00929069
0.00925882
0.0092262
0.00919284
0.00915874
0.00912389
0.0090883
0.00905196
0.00901487
0.00897703
0.00893844
0.00889909
0.008859
0.00881815
0.00877654
0.00873418
0.00869106
0.00864719
0.00860256
0.00855717
0.00851103
0.00846412
0.00841646
0.00836805
0.00831887
0.00826894
0.00821825
0.0081668
0.0081146
0.00806165
0.00800794
0.00795347
0.00789826
0.00784229
0.00778557
0.00772811
0.0076699
0.00761094
0.00755124
0.0074908
0.00742963
0.00736771
0.00730506
0.00724168
0.00717756
0.00711273
0.00704716
0.00698088
0.00691388
0.00684616
0.00677774
0.0067086
0.00663877
0.00656823
0.006497
0.00642508
0.00635247
0.00627918
0.00620521
0.00613057
0.00605526
0.00597929
0.00590267
0.00582539
0.00574747
0.0056689
0.00558971
0.00550988
0.00542944
0.00534838
0.00526671
0.00518444
0.00510158
0.00501813
0.00493411
0.00484951
0.00476434
0.00467862
0.00459235
0.00450554
0.0044182
0.00433034
0.00424196
0.00415307
0.00406369
0.00397382
0.00388347
0.00379265
0.00370138
0.00360965
0.00351748
0.00342489
0.00333187
0.00323844
0.00314462
0.00305041
0.00295582
0.00286086
0.00276554
0.00266989
0.00257389
0.00247758
0.00238095
0.00228403
0.00218682
0.00208933
0.00199157
0.00189357
0.00179532
0.00169685
0.00159816
0.00149927
0.00140019
0.00130092
0.0012015
0.00110191
0.00100219
0.000902339
0.000802371
0.000702301
0.00060214
0.000501902
0.000401599
0.000301244
0.000200851
0.000100432
2.62428e-11
-0.000100432
-0.000200851
-0.000301244
-0.000401599
-0.000501901
-0.00060214
-0.0007023
-0.000802371
-0.000902338
-0.00100219
-0.00110191
-0.0012015
-0.00130092
-0.00140019
-0.00149927
-0.00159816
-0.00169685
-0.00179532
-0.00189357
-0.00199157
-0.00208932
-0.00218681
-0.00228403
-0.00238095
-0.00247758
-0.00257389
-0.00266988
-0.00276554
-0.00286085
-0.00295581
-0.0030504
-0.00314461
-0.00323844
-0.00333186
-0.00342488
-0.00351748
-0.00360964
-0.00370137
-0.00379265
-0.00388346
-0.00397381
-0.00406368
-0.00415306
-0.00424195
-0.00433033
-0.00441819
-0.00450553
-0.00459234
-0.00467861
-0.00476433
-0.0048495
-0.0049341
-0.00501812
-0.00510157
-0.00518443
-0.0052667
-0.00534837
-0.00542943
-0.00550987
-0.0055897
-0.00566889
-0.00574746
-0.00582538
-0.00590266
-0.00597928
-0.00605525
-0.00613056
-0.0062052
-0.00627917
-0.00635246
-0.00642507
-0.00649699
-0.00656822
-0.00663875
-0.00670859
-0.00677772
-0.00684615
-0.00691387
-0.00698087
-0.00704715
-0.00711271
-0.00717755
-0.00724166
-0.00730505
-0.0073677
-0.00742961
-0.00749079
-0.00755123
-0.00761093
-0.00766989
-0.0077281
-0.00778556
-0.00784228
-0.00789825
-0.00795346
-0.00800793
-0.00806164
-0.00811459
-0.00816679
-0.00821824
-0.00826893
-0.00831886
-0.00836804
-0.00841645
-0.00846411
-0.00851102
-0.00855716
-0.00860255
-0.00864718
-0.00869105
-0.00873417
-0.00877653
-0.00881814
-0.00885899
-0.00889909
-0.00893843
-0.00897702
-0.00901486
-0.00905195
-0.00908829
-0.00912389
-0.00915873
-0.00919284
-0.00922619
-0.00925881
-0.00929069
-0.00932182
-0.00935222
-0.00938189
-0.00941082
-0.00943902
-0.00946649
-0.00949323
-0.00951925
-0.00954454
-0.00956911
-0.00959296
-0.0096161
-0.00963852
-0.00966023
-0.00968123
-0.00970152
-0.0097211
-0.00973999
-0.00975817
-0.00977566
-0.00979245
-0.00980855
-0.00982396
-0.00983868
-0.00985272
-0.00986608
-0.00987876
-0.00989076
-0.0099021
-0.00991276
-0.00992276
-0.00993209
-0.00994076
-0.00994877
-0.00995613
-0.00996284
-0.0099689
-0.00997431
-0.00997908
-0.00998321
-0.0099867
-0.00998956
-0.00999179
-0.00999339
-0.00999437
-0.00999473
-0.00999447
-0.0099936
-0.00999211
-0.00999002
-0.00998732
-0.00998403
-0.00998013
-0.00997564
-0.00997056
-0.00996489
-0.00995863
-0.00995179
-0.00994438
-0.00993639
-0.00992782
-0.00991869
-0.009909
-0.00989874
-0.00988792
-0.00987655
-0.00986462
-0.00985215
-0.00983913
-0.00982557
-0.00981147
-0.00979684
-0.00978167
-0.00976597
-0.00974975
-0.009733
-0.00971574
-0.00969796
-0.00967967
-0.00966087
-0.00964156
-0.00962175
-0.00960144
-0.00958064
-0.00955934
-0.00953755
-0.00951528
-0.00949252
-0.00946928
-0.00944557
-0.00942138
-0.00939672
-0.0093716
-0.00934601
-0.00931996
-0.00929345
-0.00926649
-0.00923908
-0.00921122
-0.00918292
-0.00915417
-0.00912499
-0.00909537
-0.00906532
-0.00903484
-0.00900393
-0.0089726
-0.00894085
-0.00890869
-0.00887611
-0.00884312
-0.00880973
-0.00877593
-0.00874173
-0.00870713
-0.00867213
-0.00863675
-0.00860097
-0.00856481
-0.00852826
-0.00849134
-0.00845404
-0.00841636
-0.00837832
-0.0083399
-0.00830112
-0.00826198
-0.00822248
-0.00818262
-0.00814241
-0.00810185
-0.00806094
-0.00801968
-0.00797809
-0.00793615
-0.00789388
-0.00785128
-0.00780834
-0.00776508
-0.00772149
-0.00767758
-0.00763335
-0.00758881
-0.00754395
-0.00749878
-0.00745331
-0.00740752
-0.00736144
-0.00731506
-0.00726837
-0.0072214
-0.00717413
-0.00712658
-0.00707874
-0.00703061
-0.00698221
-0.00693352
-0.00688456
-0.00683533
-0.00678583
-0.00673606
-0.00668603
-0.00663573
-0.00658518
-0.00653437
-0.0064833
-0.00643199
-0.00638042
-0.00632861
-0.00627655
-0.00622425
-0.00617172
-0.00611895
-0.00606594
-0.00601271
-0.00595924
-0.00590555
-0.00585164
-0.0057975
-0.00574315
-0.00568858
-0.0056338
-0.00557881
-0.00552361
-0.0054682
-0.00541259
-0.00535678
-0.00530077
-0.00524456
-0.00518817
-0.00513158
-0.0050748
-0.00501783
-0.00496069
-0.00490336
-0.00484585
-0.00478816
-0.00473031
-0.00467228
-0.00461408
-0.00455571
-0.00449718
-0.00443848
-0.00437963
-0.00432062
-0.00426146
-0.00420214
-0.00414267
-0.00408305
-0.00402329
-0.00396339
-0.00390334
-0.00384316
-0.00378283
-0.00372238
-0.00366179
-0.00360108
-0.00354023
-0.00347927
-0.00341817
-0.00335696
-0.00329564
-0.00323419
-0.00317263
-0.00311097
-0.00304919
-0.00298731
-0.00292532
-0.00286323
-0.00280104
-0.00273876
-0.00267637
-0.0026139
-0.00255133
-0.00248868
-0.00242594
-0.00236312
-0.00230021
-0.00223723
-0.00217417
-0.00211103
-0.00204782
-0.00198454
-0.0019212
-0.00185778
-0.0017943
-0.00173077
-0.00166717
-0.00160351
-0.0015398
-0.00147604
-0.00141223
-0.00134836
-0.00128446
-0.0012205
-0.00115651
-0.00109248
-0.00102841
-0.000964301
-0.000900162
-0.000835993
-0.000771796
-0.000707572
-0.000643324
-0.000579054
-0.000514764
-0.000450457
-0.000386134
-0.000321799
-0.000257452
-0.000193097
-0.000128735
-6.43685e-05
)
;

boundaryField
{
    left
    {
        type            calculated;
        value           uniform 0;
    }
    right
    {
        type            calculated;
        value           uniform 0;
    }
    frontBackUpDown
    {
        type            empty;
    }
}


// ************************************************************************* //
