/*--------------------------------*- C++ -*----------------------------------*\
| =========                 |                                                 |
| \\      /  F ield         | OpenFOAM: The Open Source CFD Toolbox           |
|  \\    /   O peration     | Version:  2412                                  |
|   \\  /    A nd           | Website:  www.openfoam.com                      |
|    \\/     M anipulation  |                                                 |
\*---------------------------------------------------------------------------*/
FoamFile
{
    version     2.0;
    format      ascii;
    arch        "LSB;label=32;scalar=64";
    class       volVectorField;
    location    "0.07";
    object      U;
}
// * * * * * * * * * * * * * * * * * * * * * * * * * * * * * * * * * * * * * //

dimensions      [0 1 -1 0 0 0 0];

internalField   nonuniform List<vector> 
800
(
(0.00321838 0 0)
(0.00965517 0 0)
(0.0160917 0 0)
(0.0225276 0 0)
(0.0289628 0 0)
(0.0353969 0 0)
(0.0418299 0 0)
(0.0482615 0 0)
(0.0546914 0 0)
(0.0611194 0 0)
(0.0675454 0 0)
(0.073969 0 0)
(0.0803901 0 0)
(0.0868085 0 0)
(0.093224 0 0)
(0.0996362 0 0)
(0.106045 0 0)
(0.11245 0 0)
(0.118852 0 0)
(0.125249 0 0)
(0.131642 0 0)
(0.138031 0 0)
(0.144414 0 0)
(0.150793 0 0)
(0.157167 0 0)
(0.163535 0 0)
(0.169898 0 0)
(0.176255 0 0)
(0.182606 0 0)
(0.188951 0 0)
(0.195289 0 0)
(0.20162 0 0)
(0.207945 0 0)
(0.214262 0 0)
(0.220572 0 0)
(0.226874 0 0)
(0.233169 0 0)
(0.239455 0 0)
(0.245733 0 0)
(0.252003 0 0)
(0.258264 0 0)
(0.264516 0 0)
(0.270759 0 0)
(0.276992 0 0)
(0.283216 0 0)
(0.28943 0 0)
(0.295634 0 0)
(0.301828 0 0)
(0.308011 0 0)
(0.314183 0 0)
(0.320344 0 0)
(0.326494 0 0)
(0.332633 0 0)
(0.33876 0 0)
(0.344875 0 0)
(0.350978 0 0)
(0.357069 0 0)
(0.363147 0 0)
(0.369212 0 0)
(0.375264 0 0)
(0.381303 0 0)
(0.387328 0 0)
(0.39334 0 0)
(0.399338 0 0)
(0.405321 0 0)
(0.41129 0 0)
(0.417244 0 0)
(0.423184 0 0)
(0.429108 0 0)
(0.435017 0 0)
(0.44091 0 0)
(0.446788 0 0)
(0.452649 0 0)
(0.458494 0 0)
(0.464322 0 0)
(0.470134 0 0)
(0.475928 0 0)
(0.481706 0 0)
(0.487465 0 0)
(0.493207 0 0)
(0.498931 0 0)
(0.504637 0 0)
(0.510324 0 0)
(0.515992 0 0)
(0.521642 0 0)
(0.527272 0 0)
(0.532883 0 0)
(0.538474 0 0)
(0.544045 0 0)
(0.549596 0 0)
(0.555126 0 0)
(0.560636 0 0)
(0.566125 0 0)
(0.571593 0 0)
(0.577039 0 0)
(0.582463 0 0)
(0.587866 0 0)
(0.593246 0 0)
(0.598604 0 0)
(0.603939 0 0)
(0.609251 0 0)
(0.61454 0 0)
(0.619805 0 0)
(0.625047 0 0)
(0.630265 0 0)
(0.635458 0 0)
(0.640627 0 0)
(0.645771 0 0)
(0.650891 0 0)
(0.655984 0 0)
(0.661053 0 0)
(0.666095 0 0)
(0.671112 0 0)
(0.676102 0 0)
(0.681066 0 0)
(0.686002 0 0)
(0.690912 0 0)
(0.695794 0 0)
(0.700649 0 0)
(0.705475 0 0)
(0.710274 0 0)
(0.715043 0 0)
(0.719785 0 0)
(0.724497 0 0)
(0.72918 0 0)
(0.733833 0 0)
(0.738456 0 0)
(0.74305 0 0)
(0.747613 0 0)
(0.752145 0 0)
(0.756647 0 0)
(0.761117 0 0)
(0.765556 0 0)
(0.769963 0 0)
(0.774337 0 0)
(0.77868 0 0)
(0.78299 0 0)
(0.787267 0 0)
(0.791511 0 0)
(0.795721 0 0)
(0.799898 0 0)
(0.80404 0 0)
(0.808149 0 0)
(0.812222 0 0)
(0.816261 0 0)
(0.820264 0 0)
(0.824233 0 0)
(0.828165 0 0)
(0.832061 0 0)
(0.835921 0 0)
(0.839744 0 0)
(0.84353 0 0)
(0.847279 0 0)
(0.85099 0 0)
(0.854664 0 0)
(0.858299 0 0)
(0.861896 0 0)
(0.865454 0 0)
(0.868973 0 0)
(0.872453 0 0)
(0.875893 0 0)
(0.879293 0 0)
(0.882653 0 0)
(0.885972 0 0)
(0.889251 0 0)
(0.892488 0 0)
(0.895684 0 0)
(0.898838 0 0)
(0.90195 0 0)
(0.905019 0 0)
(0.908046 0 0)
(0.911029 0 0)
(0.913969 0 0)
(0.916866 0 0)
(0.919719 0 0)
(0.922527 0 0)
(0.92529 0 0)
(0.928009 0 0)
(0.930683 0 0)
(0.93331 0 0)
(0.935892 0 0)
(0.938428 0 0)
(0.940917 0 0)
(0.94336 0 0)
(0.945755 0 0)
(0.948102 0 0)
(0.950402 0 0)
(0.952654 0 0)
(0.954857 0 0)
(0.957011 0 0)
(0.959116 0 0)
(0.961172 0 0)
(0.963178 0 0)
(0.965134 0 0)
(0.96704 0 0)
(0.968894 0 0)
(0.970698 0 0)
(0.97245 0 0)
(0.974151 0 0)
(0.975799 0 0)
(0.977395 0 0)
(0.978939 0 0)
(0.980429 0 0)
(0.981866 0 0)
(0.983249 0 0)
(0.984578 0 0)
(0.985853 0 0)
(0.987072 0 0)
(0.988237 0 0)
(0.989347 0 0)
(0.990401 0 0)
(0.991399 0 0)
(0.99234 0 0)
(0.993225 0 0)
(0.994053 0 0)
(0.994823 0 0)
(0.995536 0 0)
(0.996191 0 0)
(0.996787 0 0)
(0.997325 0 0)
(0.997803 0 0)
(0.998223 0 0)
(0.998583 0 0)
(0.998882 0 0)
(0.999122 0 0)
(0.999301 0 0)
(0.999419 0 0)
(0.999475 0 0)
(0.999471 0 0)
(0.999404 0 0)
(0.999275 0 0)
(0.999083 0 0)
(0.998829 0 0)
(0.998511 0 0)
(0.99813 0 0)
(0.997685 0 0)
(0.997176 0 0)
(0.996603 0 0)
(0.995965 0 0)
(0.995261 0 0)
(0.994493 0 0)
(0.993659 0 0)
(0.992759 0 0)
(0.991792 0 0)
(0.99076 0 0)
(0.98966 0 0)
(0.988493 0 0)
(0.987259 0 0)
(0.985957 0 0)
(0.984587 0 0)
(0.983149 0 0)
(0.981643 0 0)
(0.980067 0 0)
(0.978423 0 0)
(0.976709 0 0)
(0.974926 0 0)
(0.973072 0 0)
(0.971149 0 0)
(0.969155 0 0)
(0.967091 0 0)
(0.964955 0 0)
(0.962749 0 0)
(0.960471 0 0)
(0.958122 0 0)
(0.955701 0 0)
(0.953208 0 0)
(0.950642 0 0)
(0.948005 0 0)
(0.945294 0 0)
(0.942511 0 0)
(0.939654 0 0)
(0.936724 0 0)
(0.933721 0 0)
(0.930645 0 0)
(0.927494 0 0)
(0.924269 0 0)
(0.920971 0 0)
(0.917598 0 0)
(0.91415 0 0)
(0.910628 0 0)
(0.907032 0 0)
(0.90336 0 0)
(0.899614 0 0)
(0.895792 0 0)
(0.891895 0 0)
(0.887923 0 0)
(0.883876 0 0)
(0.879753 0 0)
(0.875555 0 0)
(0.871281 0 0)
(0.866932 0 0)
(0.862506 0 0)
(0.858005 0 0)
(0.853429 0 0)
(0.848776 0 0)
(0.844048 0 0)
(0.839244 0 0)
(0.834365 0 0)
(0.829409 0 0)
(0.824378 0 0)
(0.819272 0 0)
(0.814089 0 0)
(0.808831 0 0)
(0.803498 0 0)
(0.798089 0 0)
(0.792605 0 0)
(0.787046 0 0)
(0.781412 0 0)
(0.775703 0 0)
(0.769919 0 0)
(0.764061 0 0)
(0.758128 0 0)
(0.752121 0 0)
(0.74604 0 0)
(0.739885 0 0)
(0.733657 0 0)
(0.727355 0 0)
(0.72098 0 0)
(0.714533 0 0)
(0.708012 0 0)
(0.70142 0 0)
(0.694756 0 0)
(0.68802 0 0)
(0.681213 0 0)
(0.674335 0 0)
(0.667386 0 0)
(0.660367 0 0)
(0.653279 0 0)
(0.646121 0 0)
(0.638895 0 0)
(0.631599 0 0)
(0.624236 0 0)
(0.616806 0 0)
(0.609308 0 0)
(0.601744 0 0)
(0.594115 0 0)
(0.586419 0 0)
(0.578659 0 0)
(0.570835 0 0)
(0.562946 0 0)
(0.554995 0 0)
(0.546982 0 0)
(0.538906 0 0)
(0.53077 0 0)
(0.522573 0 0)
(0.514316 0 0)
(0.506 0 0)
(0.497626 0 0)
(0.489195 0 0)
(0.480706 0 0)
(0.472162 0 0)
(0.463562 0 0)
(0.454908 0 0)
(0.4462 0 0)
(0.43744 0 0)
(0.428627 0 0)
(0.419764 0 0)
(0.41085 0 0)
(0.401888 0 0)
(0.392876 0 0)
(0.383818 0 0)
(0.374713 0 0)
(0.365562 0 0)
(0.356368 0 0)
(0.347129 0 0)
(0.337848 0 0)
(0.328526 0 0)
(0.319163 0 0)
(0.309761 0 0)
(0.30032 0 0)
(0.290843 0 0)
(0.281329 0 0)
(0.27178 0 0)
(0.262197 0 0)
(0.252582 0 0)
(0.242934 0 0)
(0.233256 0 0)
(0.223549 0 0)
(0.213814 0 0)
(0.204051 0 0)
(0.194263 0 0)
(0.184451 0 0)
(0.174614 0 0)
(0.164756 0 0)
(0.154877 0 0)
(0.144977 0 0)
(0.13506 0 0)
(0.125125 0 0)
(0.115174 0 0)
(0.105209 0 0)
(0.0952295 0 0)
(0.0852382 0 0)
(0.075236 0 0)
(0.0652241 0 0)
(0.0552038 0 0)
(0.0451765 0 0)
(0.0351433 0 0)
(0.0251056 0 0)
(0.0150646 0 0)
(0.00502176 0 0)
(-0.00502176 0 0)
(-0.0150646 0 0)
(-0.0251056 0 0)
(-0.0351433 0 0)
(-0.0451765 0 0)
(-0.0552038 0 0)
(-0.0652241 0 0)
(-0.075236 0 0)
(-0.0852382 0 0)
(-0.0952295 0 0)
(-0.105209 0 0)
(-0.115174 0 0)
(-0.125125 0 0)
(-0.13506 0 0)
(-0.144977 0 0)
(-0.154876 0 0)
(-0.164756 0 0)
(-0.174614 0 0)
(-0.18445 0 0)
(-0.194263 0 0)
(-0.204051 0 0)
(-0.213814 0 0)
(-0.223549 0 0)
(-0.233256 0 0)
(-0.242934 0 0)
(-0.252581 0 0)
(-0.262197 0 0)
(-0.27178 0 0)
(-0.281328 0 0)
(-0.290842 0 0)
(-0.30032 0 0)
(-0.30976 0 0)
(-0.319163 0 0)
(-0.328525 0 0)
(-0.337848 0 0)
(-0.347128 0 0)
(-0.356367 0 0)
(-0.365562 0 0)
(-0.374712 0 0)
(-0.383817 0 0)
(-0.392876 0 0)
(-0.401887 0 0)
(-0.41085 0 0)
(-0.419763 0 0)
(-0.428627 0 0)
(-0.437439 0 0)
(-0.446199 0 0)
(-0.454907 0 0)
(-0.463561 0 0)
(-0.472161 0 0)
(-0.480705 0 0)
(-0.489194 0 0)
(-0.497625 0 0)
(-0.505999 0 0)
(-0.514315 0 0)
(-0.522572 0 0)
(-0.530769 0 0)
(-0.538905 0 0)
(-0.546981 0 0)
(-0.554994 0 0)
(-0.562945 0 0)
(-0.570833 0 0)
(-0.578658 0 0)
(-0.586418 0 0)
(-0.594113 0 0)
(-0.601743 0 0)
(-0.609307 0 0)
(-0.616805 0 0)
(-0.624235 0 0)
(-0.631598 0 0)
(-0.638893 0 0)
(-0.64612 0 0)
(-0.653278 0 0)
(-0.660366 0 0)
(-0.667385 0 0)
(-0.674333 0 0)
(-0.681211 0 0)
(-0.688019 0 0)
(-0.694754 0 0)
(-0.701419 0 0)
(-0.708011 0 0)
(-0.714531 0 0)
(-0.720979 0 0)
(-0.727354 0 0)
(-0.733656 0 0)
(-0.739884 0 0)
(-0.746039 0 0)
(-0.75212 0 0)
(-0.758127 0 0)
(-0.76406 0 0)
(-0.769918 0 0)
(-0.775702 0 0)
(-0.781411 0 0)
(-0.787045 0 0)
(-0.792604 0 0)
(-0.798088 0 0)
(-0.803497 0 0)
(-0.80883 0 0)
(-0.814088 0 0)
(-0.81927 0 0)
(-0.824377 0 0)
(-0.829408 0 0)
(-0.834364 0 0)
(-0.839243 0 0)
(-0.844047 0 0)
(-0.848776 0 0)
(-0.853428 0 0)
(-0.858005 0 0)
(-0.862505 0 0)
(-0.866931 0 0)
(-0.87128 0 0)
(-0.875554 0 0)
(-0.879752 0 0)
(-0.883875 0 0)
(-0.887923 0 0)
(-0.891895 0 0)
(-0.895791 0 0)
(-0.899613 0 0)
(-0.903359 0 0)
(-0.907031 0 0)
(-0.910628 0 0)
(-0.91415 0 0)
(-0.917597 0 0)
(-0.92097 0 0)
(-0.924269 0 0)
(-0.927493 0 0)
(-0.930644 0 0)
(-0.933721 0 0)
(-0.936724 0 0)
(-0.939654 0 0)
(-0.94251 0 0)
(-0.945294 0 0)
(-0.948004 0 0)
(-0.950642 0 0)
(-0.953207 0 0)
(-0.9557 0 0)
(-0.958122 0 0)
(-0.960471 0 0)
(-0.962749 0 0)
(-0.964955 0 0)
(-0.96709 0 0)
(-0.969155 0 0)
(-0.971149 0 0)
(-0.973072 0 0)
(-0.974925 0 0)
(-0.976709 0 0)
(-0.978423 0 0)
(-0.980067 0 0)
(-0.981643 0 0)
(-0.983149 0 0)
(-0.984587 0 0)
(-0.985957 0 0)
(-0.987259 0 0)
(-0.988493 0 0)
(-0.98966 0 0)
(-0.99076 0 0)
(-0.991792 0 0)
(-0.992759 0 0)
(-0.993659 0 0)
(-0.994493 0 0)
(-0.995261 0 0)
(-0.995965 0 0)
(-0.996603 0 0)
(-0.997176 0 0)
(-0.997685 0 0)
(-0.99813 0 0)
(-0.998511 0 0)
(-0.998829 0 0)
(-0.999083 0 0)
(-0.999275 0 0)
(-0.999404 0 0)
(-0.999471 0 0)
(-0.999475 0 0)
(-0.999419 0 0)
(-0.999301 0 0)
(-0.999122 0 0)
(-0.998882 0 0)
(-0.998583 0 0)
(-0.998223 0 0)
(-0.997803 0 0)
(-0.997325 0 0)
(-0.996787 0 0)
(-0.996191 0 0)
(-0.995536 0 0)
(-0.994823 0 0)
(-0.994053 0 0)
(-0.993225 0 0)
(-0.99234 0 0)
(-0.991399 0 0)
(-0.990401 0 0)
(-0.989347 0 0)
(-0.988237 0 0)
(-0.987072 0 0)
(-0.985852 0 0)
(-0.984578 0 0)
(-0.983249 0 0)
(-0.981866 0 0)
(-0.980429 0 0)
(-0.978938 0 0)
(-0.977395 0 0)
(-0.975799 0 0)
(-0.974151 0 0)
(-0.97245 0 0)
(-0.970698 0 0)
(-0.968894 0 0)
(-0.967039 0 0)
(-0.965134 0 0)
(-0.963178 0 0)
(-0.961172 0 0)
(-0.959116 0 0)
(-0.957011 0 0)
(-0.954857 0 0)
(-0.952653 0 0)
(-0.950402 0 0)
(-0.948102 0 0)
(-0.945754 0 0)
(-0.943359 0 0)
(-0.940917 0 0)
(-0.938428 0 0)
(-0.935892 0 0)
(-0.93331 0 0)
(-0.930682 0 0)
(-0.928009 0 0)
(-0.92529 0 0)
(-0.922526 0 0)
(-0.919718 0 0)
(-0.916866 0 0)
(-0.913969 0 0)
(-0.911029 0 0)
(-0.908045 0 0)
(-0.905018 0 0)
(-0.901949 0 0)
(-0.898837 0 0)
(-0.895683 0 0)
(-0.892488 0 0)
(-0.88925 0 0)
(-0.885972 0 0)
(-0.882653 0 0)
(-0.879293 0 0)
(-0.875893 0 0)
(-0.872452 0 0)
(-0.868973 0 0)
(-0.865454 0 0)
(-0.861895 0 0)
(-0.858299 0 0)
(-0.854663 0 0)
(-0.85099 0 0)
(-0.847278 0 0)
(-0.843529 0 0)
(-0.839743 0 0)
(-0.83592 0 0)
(-0.83206 0 0)
(-0.828164 0 0)
(-0.824232 0 0)
(-0.820264 0 0)
(-0.81626 0 0)
(-0.812222 0 0)
(-0.808148 0 0)
(-0.80404 0 0)
(-0.799897 0 0)
(-0.79572 0 0)
(-0.79151 0 0)
(-0.787266 0 0)
(-0.782989 0 0)
(-0.778679 0 0)
(-0.774337 0 0)
(-0.769962 0 0)
(-0.765555 0 0)
(-0.761116 0 0)
(-0.756646 0 0)
(-0.752144 0 0)
(-0.747612 0 0)
(-0.743049 0 0)
(-0.738456 0 0)
(-0.733832 0 0)
(-0.729179 0 0)
(-0.724496 0 0)
(-0.719784 0 0)
(-0.715043 0 0)
(-0.710273 0 0)
(-0.705474 0 0)
(-0.700648 0 0)
(-0.695793 0 0)
(-0.690911 0 0)
(-0.686002 0 0)
(-0.681065 0 0)
(-0.676101 0 0)
(-0.671111 0 0)
(-0.666095 0 0)
(-0.661052 0 0)
(-0.655984 0 0)
(-0.65089 0 0)
(-0.645771 0 0)
(-0.640626 0 0)
(-0.635457 0 0)
(-0.630264 0 0)
(-0.625046 0 0)
(-0.619805 0 0)
(-0.614539 0 0)
(-0.60925 0 0)
(-0.603938 0 0)
(-0.598603 0 0)
(-0.593245 0 0)
(-0.587865 0 0)
(-0.582463 0 0)
(-0.577038 0 0)
(-0.571592 0 0)
(-0.566124 0 0)
(-0.560636 0 0)
(-0.555126 0 0)
(-0.549595 0 0)
(-0.544045 0 0)
(-0.538473 0 0)
(-0.532882 0 0)
(-0.527272 0 0)
(-0.521641 0 0)
(-0.515992 0 0)
(-0.510323 0 0)
(-0.504636 0 0)
(-0.498931 0 0)
(-0.493207 0 0)
(-0.487465 0 0)
(-0.481705 0 0)
(-0.475928 0 0)
(-0.470133 0 0)
(-0.464322 0 0)
(-0.458493 0 0)
(-0.452648 0 0)
(-0.446787 0 0)
(-0.44091 0 0)
(-0.435016 0 0)
(-0.429108 0 0)
(-0.423183 0 0)
(-0.417244 0 0)
(-0.41129 0 0)
(-0.405321 0 0)
(-0.399337 0 0)
(-0.39334 0 0)
(-0.387328 0 0)
(-0.381303 0 0)
(-0.375264 0 0)
(-0.369212 0 0)
(-0.363147 0 0)
(-0.357069 0 0)
(-0.350978 0 0)
(-0.344875 0 0)
(-0.33876 0 0)
(-0.332633 0 0)
(-0.326494 0 0)
(-0.320344 0 0)
(-0.314183 0 0)
(-0.308011 0 0)
(-0.301827 0 0)
(-0.295634 0 0)
(-0.28943 0 0)
(-0.283216 0 0)
(-0.276992 0 0)
(-0.270759 0 0)
(-0.264516 0 0)
(-0.258264 0 0)
(-0.252003 0 0)
(-0.245733 0 0)
(-0.239455 0 0)
(-0.233169 0 0)
(-0.226874 0 0)
(-0.220572 0 0)
(-0.214262 0 0)
(-0.207945 0 0)
(-0.20162 0 0)
(-0.195289 0 0)
(-0.188951 0 0)
(-0.182606 0 0)
(-0.176255 0 0)
(-0.169898 0 0)
(-0.163535 0 0)
(-0.157167 0 0)
(-0.150793 0 0)
(-0.144414 0 0)
(-0.138031 0 0)
(-0.131642 0 0)
(-0.125249 0 0)
(-0.118852 0 0)
(-0.11245 0 0)
(-0.106045 0 0)
(-0.0996362 0 0)
(-0.0932239 0 0)
(-0.0868085 0 0)
(-0.0803901 0 0)
(-0.073969 0 0)
(-0.0675453 0 0)
(-0.0611194 0 0)
(-0.0546914 0 0)
(-0.0482615 0 0)
(-0.0418299 0 0)
(-0.035397 0 0)
(-0.0289628 0 0)
(-0.0225276 0 0)
(-0.0160917 0 0)
(-0.00965525 0 0)
(-0.00321845 0 0)
)
;

boundaryField
{
    left
    {
        type            fixedValue;
        value           uniform (0 0 0);
    }
    right
    {
        type            fixedValue;
        value           uniform (0 0 0);
    }
    frontBackUpDown
    {
        type            empty;
    }
}


// ************************************************************************* //
