/*--------------------------------*- C++ -*----------------------------------*\
| =========                 |                                                 |
| \\      /  F ield         | OpenFOAM: The Open Source CFD Toolbox           |
|  \\    /   O peration     | Version:  2412                                  |
|   \\  /    A nd           | Website:  www.openfoam.com                      |
|    \\/     M anipulation  |                                                 |
\*---------------------------------------------------------------------------*/
FoamFile
{
    version     2.0;
    format      ascii;
    arch        "LSB;label=32;scalar=64";
    class       volVectorField;
    location    "0.07";
    object      U_0;
}
// * * * * * * * * * * * * * * * * * * * * * * * * * * * * * * * * * * * * * //

dimensions      [0 1 -1 0 0 0 0];

internalField   nonuniform List<vector> 
800
(
(0.00322253 0 0)
(0.00966763 0 0)
(0.0161124 0 0)
(0.0225566 0 0)
(0.0290001 0 0)
(0.0354426 0 0)
(0.0418838 0 0)
(0.0483236 0 0)
(0.0547618 0 0)
(0.0611981 0 0)
(0.0676323 0 0)
(0.0740642 0 0)
(0.0804935 0 0)
(0.0869201 0 0)
(0.0933438 0 0)
(0.0997642 0 0)
(0.106181 0 0)
(0.112595 0 0)
(0.119004 0 0)
(0.12541 0 0)
(0.131811 0 0)
(0.138207 0 0)
(0.144599 0 0)
(0.150986 0 0)
(0.157368 0 0)
(0.163744 0 0)
(0.170115 0 0)
(0.17648 0 0)
(0.182838 0 0)
(0.189191 0 0)
(0.195537 0 0)
(0.201876 0 0)
(0.208208 0 0)
(0.214533 0 0)
(0.220851 0 0)
(0.227161 0 0)
(0.233463 0 0)
(0.239757 0 0)
(0.246042 0 0)
(0.25232 0 0)
(0.258588 0 0)
(0.264847 0 0)
(0.271097 0 0)
(0.277338 0 0)
(0.283569 0 0)
(0.28979 0 0)
(0.296001 0 0)
(0.302202 0 0)
(0.308392 0 0)
(0.314571 0 0)
(0.32074 0 0)
(0.326896 0 0)
(0.333042 0 0)
(0.339176 0 0)
(0.345297 0 0)
(0.351407 0 0)
(0.357504 0 0)
(0.363589 0 0)
(0.36966 0 0)
(0.375719 0 0)
(0.381764 0 0)
(0.387796 0 0)
(0.393813 0 0)
(0.399817 0 0)
(0.405807 0 0)
(0.411781 0 0)
(0.417742 0 0)
(0.423687 0 0)
(0.429617 0 0)
(0.435531 0 0)
(0.44143 0 0)
(0.447313 0 0)
(0.45318 0 0)
(0.45903 0 0)
(0.464864 0 0)
(0.470681 0 0)
(0.47648 0 0)
(0.482262 0 0)
(0.488027 0 0)
(0.493774 0 0)
(0.499503 0 0)
(0.505213 0 0)
(0.510905 0 0)
(0.516578 0 0)
(0.522231 0 0)
(0.527866 0 0)
(0.533481 0 0)
(0.539076 0 0)
(0.544651 0 0)
(0.550206 0 0)
(0.555741 0 0)
(0.561254 0 0)
(0.566747 0 0)
(0.572218 0 0)
(0.577667 0 0)
(0.583095 0 0)
(0.588501 0 0)
(0.593884 0 0)
(0.599245 0 0)
(0.604583 0 0)
(0.609898 0 0)
(0.61519 0 0)
(0.620458 0 0)
(0.625702 0 0)
(0.630922 0 0)
(0.636118 0 0)
(0.641289 0 0)
(0.646436 0 0)
(0.651557 0 0)
(0.656652 0 0)
(0.661723 0 0)
(0.666767 0 0)
(0.671785 0 0)
(0.676776 0 0)
(0.681741 0 0)
(0.686679 0 0)
(0.69159 0 0)
(0.696473 0 0)
(0.701328 0 0)
(0.706156 0 0)
(0.710955 0 0)
(0.715725 0 0)
(0.720467 0 0)
(0.725179 0 0)
(0.729862 0 0)
(0.734515 0 0)
(0.739139 0 0)
(0.743732 0 0)
(0.748294 0 0)
(0.752826 0 0)
(0.757327 0 0)
(0.761796 0 0)
(0.766234 0 0)
(0.77064 0 0)
(0.775014 0 0)
(0.779355 0 0)
(0.783664 0 0)
(0.787939 0 0)
(0.792182 0 0)
(0.79639 0 0)
(0.800565 0 0)
(0.804705 0 0)
(0.808811 0 0)
(0.812883 0 0)
(0.816919 0 0)
(0.82092 0 0)
(0.824885 0 0)
(0.828815 0 0)
(0.832708 0 0)
(0.836565 0 0)
(0.840384 0 0)
(0.844167 0 0)
(0.847913 0 0)
(0.85162 0 0)
(0.85529 0 0)
(0.858921 0 0)
(0.862514 0 0)
(0.866068 0 0)
(0.869583 0 0)
(0.873058 0 0)
(0.876494 0 0)
(0.879889 0 0)
(0.883244 0 0)
(0.886559 0 0)
(0.889832 0 0)
(0.893064 0 0)
(0.896254 0 0)
(0.899403 0 0)
(0.902509 0 0)
(0.905572 0 0)
(0.908593 0 0)
(0.911571 0 0)
(0.914505 0 0)
(0.917395 0 0)
(0.920241 0 0)
(0.923043 0 0)
(0.925799 0 0)
(0.928511 0 0)
(0.931178 0 0)
(0.933798 0 0)
(0.936373 0 0)
(0.938901 0 0)
(0.941383 0 0)
(0.943818 0 0)
(0.946205 0 0)
(0.948545 0 0)
(0.950836 0 0)
(0.95308 0 0)
(0.955275 0 0)
(0.957421 0 0)
(0.959517 0 0)
(0.961564 0 0)
(0.963562 0 0)
(0.965509 0 0)
(0.967405 0 0)
(0.969251 0 0)
(0.971045 0 0)
(0.972788 0 0)
(0.974479 0 0)
(0.976118 0 0)
(0.977704 0 0)
(0.979237 0 0)
(0.980718 0 0)
(0.982144 0 0)
(0.983517 0 0)
(0.984836 0 0)
(0.9861 0 0)
(0.98731 0 0)
(0.988464 0 0)
(0.989563 0 0)
(0.990606 0 0)
(0.991593 0 0)
(0.992523 0 0)
(0.993397 0 0)
(0.994214 0 0)
(0.994973 0 0)
(0.995674 0 0)
(0.996317 0 0)
(0.996902 0 0)
(0.997428 0 0)
(0.997895 0 0)
(0.998303 0 0)
(0.998651 0 0)
(0.998939 0 0)
(0.999166 0 0)
(0.999333 0 0)
(0.999439 0 0)
(0.999483 0 0)
(0.999466 0 0)
(0.999387 0 0)
(0.999245 0 0)
(0.999041 0 0)
(0.998774 0 0)
(0.998444 0 0)
(0.99805 0 0)
(0.997593 0 0)
(0.997071 0 0)
(0.996485 0 0)
(0.995834 0 0)
(0.995118 0 0)
(0.994337 0 0)
(0.99349 0 0)
(0.992577 0 0)
(0.991597 0 0)
(0.990552 0 0)
(0.989439 0 0)
(0.988259 0 0)
(0.987012 0 0)
(0.985697 0 0)
(0.984314 0 0)
(0.982863 0 0)
(0.981344 0 0)
(0.979755 0 0)
(0.978098 0 0)
(0.976371 0 0)
(0.974575 0 0)
(0.972709 0 0)
(0.970772 0 0)
(0.968766 0 0)
(0.966689 0 0)
(0.964541 0 0)
(0.962321 0 0)
(0.960031 0 0)
(0.957669 0 0)
(0.955236 0 0)
(0.95273 0 0)
(0.950152 0 0)
(0.947502 0 0)
(0.944779 0 0)
(0.941984 0 0)
(0.939115 0 0)
(0.936174 0 0)
(0.933159 0 0)
(0.93007 0 0)
(0.926908 0 0)
(0.923672 0 0)
(0.920362 0 0)
(0.916977 0 0)
(0.913519 0 0)
(0.909986 0 0)
(0.906378 0 0)
(0.902696 0 0)
(0.898939 0 0)
(0.895107 0 0)
(0.8912 0 0)
(0.887218 0 0)
(0.88316 0 0)
(0.879028 0 0)
(0.87482 0 0)
(0.870536 0 0)
(0.866177 0 0)
(0.861743 0 0)
(0.857233 0 0)
(0.852648 0 0)
(0.847987 0 0)
(0.843251 0 0)
(0.838439 0 0)
(0.833551 0 0)
(0.828588 0 0)
(0.82355 0 0)
(0.818436 0 0)
(0.813247 0 0)
(0.807982 0 0)
(0.802643 0 0)
(0.797228 0 0)
(0.791738 0 0)
(0.786173 0 0)
(0.780534 0 0)
(0.77482 0 0)
(0.769031 0 0)
(0.763168 0 0)
(0.757231 0 0)
(0.75122 0 0)
(0.745136 0 0)
(0.738978 0 0)
(0.732746 0 0)
(0.726442 0 0)
(0.720065 0 0)
(0.713615 0 0)
(0.707093 0 0)
(0.700499 0 0)
(0.693834 0 0)
(0.687097 0 0)
(0.680289 0 0)
(0.673411 0 0)
(0.666463 0 0)
(0.659445 0 0)
(0.652357 0 0)
(0.645201 0 0)
(0.637976 0 0)
(0.630683 0 0)
(0.623322 0 0)
(0.615894 0 0)
(0.6084 0 0)
(0.600839 0 0)
(0.593213 0 0)
(0.585522 0 0)
(0.577766 0 0)
(0.569947 0 0)
(0.562064 0 0)
(0.554118 0 0)
(0.546111 0 0)
(0.538042 0 0)
(0.529912 0 0)
(0.521722 0 0)
(0.513473 0 0)
(0.505165 0 0)
(0.496799 0 0)
(0.488376 0 0)
(0.479896 0 0)
(0.471361 0 0)
(0.462771 0 0)
(0.454127 0 0)
(0.445429 0 0)
(0.436679 0 0)
(0.427878 0 0)
(0.419026 0 0)
(0.410124 0 0)
(0.401173 0 0)
(0.392174 0 0)
(0.383129 0 0)
(0.374037 0 0)
(0.364899 0 0)
(0.355718 0 0)
(0.346494 0 0)
(0.337227 0 0)
(0.327919 0 0)
(0.318571 0 0)
(0.309184 0 0)
(0.299759 0 0)
(0.290297 0 0)
(0.280799 0 0)
(0.271266 0 0)
(0.2617 0 0)
(0.252101 0 0)
(0.24247 0 0)
(0.232809 0 0)
(0.22312 0 0)
(0.213402 0 0)
(0.203657 0 0)
(0.193887 0 0)
(0.184092 0 0)
(0.174274 0 0)
(0.164435 0 0)
(0.154574 0 0)
(0.144694 0 0)
(0.134795 0 0)
(0.124879 0 0)
(0.114948 0 0)
(0.105001 0 0)
(0.0950416 0 0)
(0.0850698 0 0)
(0.0750872 0 0)
(0.065095 0 0)
(0.0550945 0 0)
(0.0450869 0 0)
(0.0350736 0 0)
(0.0250558 0 0)
(0.0150347 0 0)
(0.0050118 0 0)
(-0.00501179 0 0)
(-0.0150347 0 0)
(-0.0250558 0 0)
(-0.0350736 0 0)
(-0.0450869 0 0)
(-0.0550945 0 0)
(-0.065095 0 0)
(-0.0750872 0 0)
(-0.0850698 0 0)
(-0.0950416 0 0)
(-0.105001 0 0)
(-0.114947 0 0)
(-0.124879 0 0)
(-0.134795 0 0)
(-0.144693 0 0)
(-0.154574 0 0)
(-0.164434 0 0)
(-0.174274 0 0)
(-0.184092 0 0)
(-0.193887 0 0)
(-0.203657 0 0)
(-0.213402 0 0)
(-0.223119 0 0)
(-0.232809 0 0)
(-0.24247 0 0)
(-0.2521 0 0)
(-0.261699 0 0)
(-0.271266 0 0)
(-0.280798 0 0)
(-0.290296 0 0)
(-0.299758 0 0)
(-0.309183 0 0)
(-0.31857 0 0)
(-0.327918 0 0)
(-0.337226 0 0)
(-0.346493 0 0)
(-0.355717 0 0)
(-0.364899 0 0)
(-0.374036 0 0)
(-0.383128 0 0)
(-0.392174 0 0)
(-0.401172 0 0)
(-0.410123 0 0)
(-0.419025 0 0)
(-0.427877 0 0)
(-0.436679 0 0)
(-0.445429 0 0)
(-0.454126 0 0)
(-0.46277 0 0)
(-0.47136 0 0)
(-0.479895 0 0)
(-0.488375 0 0)
(-0.496798 0 0)
(-0.505164 0 0)
(-0.513472 0 0)
(-0.521721 0 0)
(-0.529911 0 0)
(-0.538041 0 0)
(-0.54611 0 0)
(-0.554117 0 0)
(-0.562063 0 0)
(-0.569946 0 0)
(-0.577765 0 0)
(-0.585521 0 0)
(-0.593212 0 0)
(-0.600838 0 0)
(-0.608399 0 0)
(-0.615893 0 0)
(-0.623321 0 0)
(-0.630682 0 0)
(-0.637975 0 0)
(-0.6452 0 0)
(-0.652356 0 0)
(-0.659444 0 0)
(-0.666462 0 0)
(-0.67341 0 0)
(-0.680288 0 0)
(-0.687096 0 0)
(-0.693832 0 0)
(-0.700498 0 0)
(-0.707092 0 0)
(-0.713614 0 0)
(-0.720063 0 0)
(-0.72644 0 0)
(-0.732745 0 0)
(-0.738976 0 0)
(-0.745134 0 0)
(-0.751219 0 0)
(-0.75723 0 0)
(-0.763167 0 0)
(-0.76903 0 0)
(-0.774818 0 0)
(-0.780533 0 0)
(-0.786172 0 0)
(-0.791737 0 0)
(-0.797227 0 0)
(-0.802642 0 0)
(-0.807981 0 0)
(-0.813246 0 0)
(-0.818435 0 0)
(-0.823549 0 0)
(-0.828587 0 0)
(-0.83355 0 0)
(-0.838438 0 0)
(-0.84325 0 0)
(-0.847986 0 0)
(-0.852647 0 0)
(-0.857233 0 0)
(-0.861742 0 0)
(-0.866177 0 0)
(-0.870535 0 0)
(-0.874819 0 0)
(-0.879027 0 0)
(-0.883159 0 0)
(-0.887217 0 0)
(-0.891199 0 0)
(-0.895106 0 0)
(-0.898938 0 0)
(-0.902695 0 0)
(-0.906378 0 0)
(-0.909985 0 0)
(-0.913518 0 0)
(-0.916977 0 0)
(-0.920361 0 0)
(-0.923671 0 0)
(-0.926907 0 0)
(-0.93007 0 0)
(-0.933158 0 0)
(-0.936173 0 0)
(-0.939115 0 0)
(-0.941983 0 0)
(-0.944779 0 0)
(-0.947502 0 0)
(-0.950152 0 0)
(-0.95273 0 0)
(-0.955235 0 0)
(-0.957669 0 0)
(-0.960031 0 0)
(-0.962321 0 0)
(-0.96454 0 0)
(-0.966688 0 0)
(-0.968766 0 0)
(-0.970772 0 0)
(-0.972708 0 0)
(-0.974575 0 0)
(-0.976371 0 0)
(-0.978098 0 0)
(-0.979755 0 0)
(-0.981344 0 0)
(-0.982863 0 0)
(-0.984314 0 0)
(-0.985697 0 0)
(-0.987012 0 0)
(-0.988259 0 0)
(-0.989439 0 0)
(-0.990551 0 0)
(-0.991597 0 0)
(-0.992576 0 0)
(-0.993489 0 0)
(-0.994337 0 0)
(-0.995118 0 0)
(-0.995834 0 0)
(-0.996485 0 0)
(-0.997071 0 0)
(-0.997593 0 0)
(-0.99805 0 0)
(-0.998444 0 0)
(-0.998774 0 0)
(-0.999041 0 0)
(-0.999245 0 0)
(-0.999387 0 0)
(-0.999466 0 0)
(-0.999483 0 0)
(-0.999439 0 0)
(-0.999333 0 0)
(-0.999166 0 0)
(-0.998939 0 0)
(-0.998651 0 0)
(-0.998303 0 0)
(-0.997895 0 0)
(-0.997428 0 0)
(-0.996902 0 0)
(-0.996317 0 0)
(-0.995674 0 0)
(-0.994973 0 0)
(-0.994214 0 0)
(-0.993397 0 0)
(-0.992523 0 0)
(-0.991593 0 0)
(-0.990606 0 0)
(-0.989563 0 0)
(-0.988464 0 0)
(-0.98731 0 0)
(-0.9861 0 0)
(-0.984836 0 0)
(-0.983517 0 0)
(-0.982144 0 0)
(-0.980718 0 0)
(-0.979237 0 0)
(-0.977704 0 0)
(-0.976118 0 0)
(-0.974479 0 0)
(-0.972788 0 0)
(-0.971045 0 0)
(-0.96925 0 0)
(-0.967405 0 0)
(-0.965508 0 0)
(-0.963561 0 0)
(-0.961564 0 0)
(-0.959517 0 0)
(-0.95742 0 0)
(-0.955274 0 0)
(-0.95308 0 0)
(-0.950836 0 0)
(-0.948544 0 0)
(-0.946205 0 0)
(-0.943817 0 0)
(-0.941383 0 0)
(-0.938901 0 0)
(-0.936373 0 0)
(-0.933798 0 0)
(-0.931177 0 0)
(-0.928511 0 0)
(-0.925799 0 0)
(-0.923042 0 0)
(-0.92024 0 0)
(-0.917394 0 0)
(-0.914504 0 0)
(-0.91157 0 0)
(-0.908593 0 0)
(-0.905572 0 0)
(-0.902508 0 0)
(-0.899402 0 0)
(-0.896254 0 0)
(-0.893063 0 0)
(-0.889831 0 0)
(-0.886558 0 0)
(-0.883244 0 0)
(-0.879889 0 0)
(-0.876493 0 0)
(-0.873058 0 0)
(-0.869582 0 0)
(-0.866068 0 0)
(-0.862514 0 0)
(-0.858921 0 0)
(-0.855289 0 0)
(-0.85162 0 0)
(-0.847912 0 0)
(-0.844167 0 0)
(-0.840384 0 0)
(-0.836564 0 0)
(-0.832707 0 0)
(-0.828814 0 0)
(-0.824885 0 0)
(-0.820919 0 0)
(-0.816918 0 0)
(-0.812882 0 0)
(-0.808811 0 0)
(-0.804705 0 0)
(-0.800564 0 0)
(-0.796389 0 0)
(-0.792181 0 0)
(-0.787939 0 0)
(-0.783663 0 0)
(-0.779355 0 0)
(-0.775013 0 0)
(-0.770639 0 0)
(-0.766233 0 0)
(-0.761796 0 0)
(-0.757326 0 0)
(-0.752825 0 0)
(-0.748294 0 0)
(-0.743731 0 0)
(-0.739138 0 0)
(-0.734514 0 0)
(-0.729861 0 0)
(-0.725178 0 0)
(-0.720466 0 0)
(-0.715724 0 0)
(-0.710954 0 0)
(-0.706155 0 0)
(-0.701328 0 0)
(-0.696472 0 0)
(-0.691589 0 0)
(-0.686678 0 0)
(-0.681741 0 0)
(-0.676776 0 0)
(-0.671784 0 0)
(-0.666766 0 0)
(-0.661722 0 0)
(-0.656652 0 0)
(-0.651556 0 0)
(-0.646435 0 0)
(-0.641288 0 0)
(-0.636117 0 0)
(-0.630922 0 0)
(-0.625701 0 0)
(-0.620457 0 0)
(-0.615189 0 0)
(-0.609897 0 0)
(-0.604582 0 0)
(-0.599244 0 0)
(-0.593884 0 0)
(-0.5885 0 0)
(-0.583094 0 0)
(-0.577667 0 0)
(-0.572217 0 0)
(-0.566746 0 0)
(-0.561253 0 0)
(-0.55574 0 0)
(-0.550206 0 0)
(-0.544651 0 0)
(-0.539076 0 0)
(-0.53348 0 0)
(-0.527865 0 0)
(-0.522231 0 0)
(-0.516577 0 0)
(-0.510904 0 0)
(-0.505212 0 0)
(-0.499502 0 0)
(-0.493773 0 0)
(-0.488027 0 0)
(-0.482262 0 0)
(-0.47648 0 0)
(-0.47068 0 0)
(-0.464863 0 0)
(-0.45903 0 0)
(-0.453179 0 0)
(-0.447313 0 0)
(-0.44143 0 0)
(-0.435531 0 0)
(-0.429616 0 0)
(-0.423686 0 0)
(-0.417741 0 0)
(-0.411781 0 0)
(-0.405806 0 0)
(-0.399817 0 0)
(-0.393813 0 0)
(-0.387795 0 0)
(-0.381764 0 0)
(-0.375719 0 0)
(-0.36966 0 0)
(-0.363588 0 0)
(-0.357504 0 0)
(-0.351407 0 0)
(-0.345297 0 0)
(-0.339175 0 0)
(-0.333042 0 0)
(-0.326896 0 0)
(-0.320739 0 0)
(-0.314571 0 0)
(-0.308392 0 0)
(-0.302202 0 0)
(-0.296001 0 0)
(-0.28979 0 0)
(-0.283569 0 0)
(-0.277338 0 0)
(-0.271097 0 0)
(-0.264847 0 0)
(-0.258588 0 0)
(-0.252319 0 0)
(-0.246042 0 0)
(-0.239757 0 0)
(-0.233463 0 0)
(-0.22716 0 0)
(-0.220851 0 0)
(-0.214533 0 0)
(-0.208208 0 0)
(-0.201876 0 0)
(-0.195537 0 0)
(-0.189191 0 0)
(-0.182838 0 0)
(-0.176479 0 0)
(-0.170115 0 0)
(-0.163744 0 0)
(-0.157368 0 0)
(-0.150986 0 0)
(-0.144599 0 0)
(-0.138207 0 0)
(-0.131811 0 0)
(-0.125409 0 0)
(-0.119004 0 0)
(-0.112595 0 0)
(-0.106181 0 0)
(-0.0997642 0 0)
(-0.0933437 0 0)
(-0.0869201 0 0)
(-0.0804935 0 0)
(-0.0740642 0 0)
(-0.0676323 0 0)
(-0.0611981 0 0)
(-0.0547618 0 0)
(-0.0483237 0 0)
(-0.0418838 0 0)
(-0.0354426 0 0)
(-0.0290001 0 0)
(-0.0225567 0 0)
(-0.0161125 0 0)
(-0.0096677 0 0)
(-0.0032226 0 0)
)
;

boundaryField
{
    left
    {
        type            fixedValue;
        value           uniform (0 0 0);
    }
    right
    {
        type            fixedValue;
        value           uniform (0 0 0);
    }
    frontBackUpDown
    {
        type            empty;
    }
}


// ************************************************************************* //
