/*--------------------------------*- C++ -*----------------------------------*\
| =========                 |                                                 |
| \\      /  F ield         | OpenFOAM: The Open Source CFD Toolbox           |
|  \\    /   O peration     | Version:  2412                                  |
|   \\  /    A nd           | Website:  www.openfoam.com                      |
|    \\/     M anipulation  |                                                 |
\*---------------------------------------------------------------------------*/
FoamFile
{
    version     2.0;
    format      ascii;
    arch        "LSB;label=32;scalar=64";
    class       volVectorField;
    location    "0.07";
    object      U_0_0;
}
// * * * * * * * * * * * * * * * * * * * * * * * * * * * * * * * * * * * * * //

dimensions      [0 1 -1 0 0 0 0];

internalField   nonuniform List<vector> 
800
(
(0.00322669 0 0)
(0.00968011 0 0)
(0.0161332 0 0)
(0.0225858 0 0)
(0.0290375 0 0)
(0.0354883 0 0)
(0.0419379 0 0)
(0.048386 0 0)
(0.0548324 0 0)
(0.061277 0 0)
(0.0677195 0 0)
(0.0741596 0 0)
(0.0805972 0 0)
(0.087032 0 0)
(0.0934639 0 0)
(0.0998925 0 0)
(0.106318 0 0)
(0.112739 0 0)
(0.119157 0 0)
(0.12557 0 0)
(0.13198 0 0)
(0.138384 0 0)
(0.144784 0 0)
(0.151179 0 0)
(0.157569 0 0)
(0.163953 0 0)
(0.170332 0 0)
(0.176704 0 0)
(0.183071 0 0)
(0.189431 0 0)
(0.195785 0 0)
(0.202132 0 0)
(0.208472 0 0)
(0.214805 0 0)
(0.22113 0 0)
(0.227448 0 0)
(0.233757 0 0)
(0.240059 0 0)
(0.246352 0 0)
(0.252637 0 0)
(0.258912 0 0)
(0.265179 0 0)
(0.271437 0 0)
(0.277685 0 0)
(0.283923 0 0)
(0.290151 0 0)
(0.296369 0 0)
(0.302577 0 0)
(0.308774 0 0)
(0.31496 0 0)
(0.321136 0 0)
(0.327299 0 0)
(0.333452 0 0)
(0.339592 0 0)
(0.345721 0 0)
(0.351837 0 0)
(0.357941 0 0)
(0.364032 0 0)
(0.37011 0 0)
(0.376174 0 0)
(0.382226 0 0)
(0.388264 0 0)
(0.394288 0 0)
(0.400298 0 0)
(0.406293 0 0)
(0.412274 0 0)
(0.41824 0 0)
(0.424191 0 0)
(0.430127 0 0)
(0.436047 0 0)
(0.441951 0 0)
(0.44784 0 0)
(0.453712 0 0)
(0.459567 0 0)
(0.465406 0 0)
(0.471228 0 0)
(0.477033 0 0)
(0.48282 0 0)
(0.48859 0 0)
(0.494342 0 0)
(0.500075 0 0)
(0.50579 0 0)
(0.511486 0 0)
(0.517164 0 0)
(0.522822 0 0)
(0.528461 0 0)
(0.53408 0 0)
(0.53968 0 0)
(0.545259 0 0)
(0.550818 0 0)
(0.556356 0 0)
(0.561873 0 0)
(0.567369 0 0)
(0.572844 0 0)
(0.578297 0 0)
(0.583728 0 0)
(0.589137 0 0)
(0.594524 0 0)
(0.599888 0 0)
(0.605229 0 0)
(0.610546 0 0)
(0.615841 0 0)
(0.621111 0 0)
(0.626358 0 0)
(0.631581 0 0)
(0.636779 0 0)
(0.641952 0 0)
(0.647101 0 0)
(0.652224 0 0)
(0.657321 0 0)
(0.662393 0 0)
(0.667439 0 0)
(0.672459 0 0)
(0.677452 0 0)
(0.682418 0 0)
(0.687357 0 0)
(0.692269 0 0)
(0.697153 0 0)
(0.702009 0 0)
(0.706837 0 0)
(0.711636 0 0)
(0.716407 0 0)
(0.721149 0 0)
(0.725862 0 0)
(0.730545 0 0)
(0.735198 0 0)
(0.739821 0 0)
(0.744414 0 0)
(0.748976 0 0)
(0.753508 0 0)
(0.758008 0 0)
(0.762476 0 0)
(0.766913 0 0)
(0.771318 0 0)
(0.775691 0 0)
(0.780031 0 0)
(0.784338 0 0)
(0.788612 0 0)
(0.792853 0 0)
(0.797059 0 0)
(0.801232 0 0)
(0.80537 0 0)
(0.809474 0 0)
(0.813543 0 0)
(0.817577 0 0)
(0.821575 0 0)
(0.825538 0 0)
(0.829465 0 0)
(0.833355 0 0)
(0.837208 0 0)
(0.841025 0 0)
(0.844804 0 0)
(0.848546 0 0)
(0.85225 0 0)
(0.855916 0 0)
(0.859544 0 0)
(0.863132 0 0)
(0.866682 0 0)
(0.870193 0 0)
(0.873663 0 0)
(0.877094 0 0)
(0.880485 0 0)
(0.883835 0 0)
(0.887144 0 0)
(0.890412 0 0)
(0.893639 0 0)
(0.896824 0 0)
(0.899967 0 0)
(0.903067 0 0)
(0.906125 0 0)
(0.90914 0 0)
(0.912111 0 0)
(0.915039 0 0)
(0.917923 0 0)
(0.920762 0 0)
(0.923557 0 0)
(0.926307 0 0)
(0.929012 0 0)
(0.931672 0 0)
(0.934285 0 0)
(0.936852 0 0)
(0.939373 0 0)
(0.941847 0 0)
(0.944274 0 0)
(0.946654 0 0)
(0.948986 0 0)
(0.951269 0 0)
(0.953505 0 0)
(0.955691 0 0)
(0.957829 0 0)
(0.959917 0 0)
(0.961955 0 0)
(0.963943 0 0)
(0.965882 0 0)
(0.967769 0 0)
(0.969605 0 0)
(0.97139 0 0)
(0.973124 0 0)
(0.974805 0 0)
(0.976434 0 0)
(0.978011 0 0)
(0.979534 0 0)
(0.981005 0 0)
(0.982421 0 0)
(0.983784 0 0)
(0.985092 0 0)
(0.986346 0 0)
(0.987545 0 0)
(0.988689 0 0)
(0.989777 0 0)
(0.990809 0 0)
(0.991785 0 0)
(0.992705 0 0)
(0.993567 0 0)
(0.994372 0 0)
(0.99512 0 0)
(0.99581 0 0)
(0.996442 0 0)
(0.997015 0 0)
(0.99753 0 0)
(0.997985 0 0)
(0.998381 0 0)
(0.998717 0 0)
(0.998992 0 0)
(0.999208 0 0)
(0.999362 0 0)
(0.999456 0 0)
(0.999488 0 0)
(0.999459 0 0)
(0.999367 0 0)
(0.999213 0 0)
(0.998997 0 0)
(0.998717 0 0)
(0.998375 0 0)
(0.997968 0 0)
(0.997498 0 0)
(0.996963 0 0)
(0.996365 0 0)
(0.995701 0 0)
(0.994972 0 0)
(0.994178 0 0)
(0.993318 0 0)
(0.992392 0 0)
(0.9914 0 0)
(0.990341 0 0)
(0.989215 0 0)
(0.988023 0 0)
(0.986763 0 0)
(0.985435 0 0)
(0.984039 0 0)
(0.982575 0 0)
(0.981042 0 0)
(0.979441 0 0)
(0.977771 0 0)
(0.976031 0 0)
(0.974222 0 0)
(0.972343 0 0)
(0.970394 0 0)
(0.968374 0 0)
(0.966284 0 0)
(0.964124 0 0)
(0.961892 0 0)
(0.959589 0 0)
(0.957214 0 0)
(0.954768 0 0)
(0.95225 0 0)
(0.94966 0 0)
(0.946998 0 0)
(0.944263 0 0)
(0.941455 0 0)
(0.938575 0 0)
(0.935621 0 0)
(0.932594 0 0)
(0.929494 0 0)
(0.92632 0 0)
(0.923073 0 0)
(0.919751 0 0)
(0.916355 0 0)
(0.912886 0 0)
(0.909342 0 0)
(0.905723 0 0)
(0.90203 0 0)
(0.898262 0 0)
(0.89442 0 0)
(0.890503 0 0)
(0.88651 0 0)
(0.882443 0 0)
(0.878301 0 0)
(0.874083 0 0)
(0.869791 0 0)
(0.865423 0 0)
(0.860979 0 0)
(0.856461 0 0)
(0.851867 0 0)
(0.847197 0 0)
(0.842453 0 0)
(0.837633 0 0)
(0.832738 0 0)
(0.827767 0 0)
(0.822721 0 0)
(0.8176 0 0)
(0.812404 0 0)
(0.807133 0 0)
(0.801787 0 0)
(0.796366 0 0)
(0.790871 0 0)
(0.7853 0 0)
(0.779656 0 0)
(0.773936 0 0)
(0.768143 0 0)
(0.762276 0 0)
(0.756335 0 0)
(0.75032 0 0)
(0.744232 0 0)
(0.738071 0 0)
(0.731836 0 0)
(0.725529 0 0)
(0.71915 0 0)
(0.712698 0 0)
(0.706174 0 0)
(0.699579 0 0)
(0.692913 0 0)
(0.686175 0 0)
(0.679367 0 0)
(0.672489 0 0)
(0.665541 0 0)
(0.658524 0 0)
(0.651437 0 0)
(0.644282 0 0)
(0.637059 0 0)
(0.629768 0 0)
(0.62241 0 0)
(0.614985 0 0)
(0.607493 0 0)
(0.599936 0 0)
(0.592314 0 0)
(0.584627 0 0)
(0.576876 0 0)
(0.569061 0 0)
(0.561184 0 0)
(0.553244 0 0)
(0.545242 0 0)
(0.537179 0 0)
(0.529056 0 0)
(0.520874 0 0)
(0.512632 0 0)
(0.504332 0 0)
(0.495974 0 0)
(0.487559 0 0)
(0.479089 0 0)
(0.470563 0 0)
(0.461982 0 0)
(0.453348 0 0)
(0.444661 0 0)
(0.435921 0 0)
(0.427131 0 0)
(0.41829 0 0)
(0.4094 0 0)
(0.400461 0 0)
(0.391475 0 0)
(0.382441 0 0)
(0.373362 0 0)
(0.364238 0 0)
(0.355071 0 0)
(0.34586 0 0)
(0.336608 0 0)
(0.327314 0 0)
(0.317981 0 0)
(0.308609 0 0)
(0.299199 0 0)
(0.289753 0 0)
(0.280271 0 0)
(0.270754 0 0)
(0.261204 0 0)
(0.251621 0 0)
(0.242008 0 0)
(0.232364 0 0)
(0.222692 0 0)
(0.212991 0 0)
(0.203264 0 0)
(0.193512 0 0)
(0.183736 0 0)
(0.173936 0 0)
(0.164114 0 0)
(0.154272 0 0)
(0.144411 0 0)
(0.134531 0 0)
(0.124634 0 0)
(0.114722 0 0)
(0.104795 0 0)
(0.0948544 0 0)
(0.0849021 0 0)
(0.074939 0 0)
(0.0649664 0 0)
(0.0549856 0 0)
(0.0449977 0 0)
(0.0350042 0 0)
(0.0250062 0 0)
(0.015005 0 0)
(0.00500187 0 0)
(-0.00500187 0 0)
(-0.015005 0 0)
(-0.0250062 0 0)
(-0.0350042 0 0)
(-0.0449977 0 0)
(-0.0549855 0 0)
(-0.0649664 0 0)
(-0.074939 0 0)
(-0.0849021 0 0)
(-0.0948544 0 0)
(-0.104795 0 0)
(-0.114722 0 0)
(-0.124634 0 0)
(-0.134531 0 0)
(-0.144411 0 0)
(-0.154272 0 0)
(-0.164114 0 0)
(-0.173936 0 0)
(-0.183735 0 0)
(-0.193512 0 0)
(-0.203264 0 0)
(-0.212991 0 0)
(-0.222691 0 0)
(-0.232364 0 0)
(-0.242008 0 0)
(-0.251621 0 0)
(-0.261203 0 0)
(-0.270754 0 0)
(-0.28027 0 0)
(-0.289752 0 0)
(-0.299199 0 0)
(-0.308608 0 0)
(-0.31798 0 0)
(-0.327314 0 0)
(-0.336607 0 0)
(-0.345859 0 0)
(-0.35507 0 0)
(-0.364238 0 0)
(-0.373362 0 0)
(-0.382441 0 0)
(-0.391474 0 0)
(-0.40046 0 0)
(-0.409399 0 0)
(-0.418289 0 0)
(-0.42713 0 0)
(-0.435921 0 0)
(-0.44466 0 0)
(-0.453347 0 0)
(-0.461981 0 0)
(-0.470562 0 0)
(-0.479088 0 0)
(-0.487558 0 0)
(-0.495973 0 0)
(-0.504331 0 0)
(-0.512631 0 0)
(-0.520873 0 0)
(-0.529055 0 0)
(-0.537178 0 0)
(-0.545241 0 0)
(-0.553243 0 0)
(-0.561183 0 0)
(-0.56906 0 0)
(-0.576875 0 0)
(-0.584626 0 0)
(-0.592313 0 0)
(-0.599935 0 0)
(-0.607492 0 0)
(-0.614984 0 0)
(-0.622409 0 0)
(-0.629767 0 0)
(-0.637058 0 0)
(-0.644281 0 0)
(-0.651436 0 0)
(-0.658523 0 0)
(-0.66554 0 0)
(-0.672488 0 0)
(-0.679366 0 0)
(-0.686174 0 0)
(-0.692912 0 0)
(-0.699578 0 0)
(-0.706173 0 0)
(-0.712697 0 0)
(-0.719148 0 0)
(-0.725528 0 0)
(-0.731835 0 0)
(-0.738069 0 0)
(-0.744231 0 0)
(-0.750319 0 0)
(-0.756334 0 0)
(-0.762275 0 0)
(-0.768142 0 0)
(-0.773935 0 0)
(-0.779654 0 0)
(-0.785299 0 0)
(-0.79087 0 0)
(-0.796365 0 0)
(-0.801786 0 0)
(-0.807132 0 0)
(-0.812403 0 0)
(-0.817599 0 0)
(-0.82272 0 0)
(-0.827766 0 0)
(-0.832737 0 0)
(-0.837632 0 0)
(-0.842452 0 0)
(-0.847197 0 0)
(-0.851866 0 0)
(-0.85646 0 0)
(-0.860978 0 0)
(-0.865422 0 0)
(-0.86979 0 0)
(-0.874082 0 0)
(-0.8783 0 0)
(-0.882442 0 0)
(-0.88651 0 0)
(-0.890502 0 0)
(-0.894419 0 0)
(-0.898262 0 0)
(-0.902029 0 0)
(-0.905723 0 0)
(-0.909341 0 0)
(-0.912885 0 0)
(-0.916355 0 0)
(-0.91975 0 0)
(-0.923072 0 0)
(-0.92632 0 0)
(-0.929493 0 0)
(-0.932594 0 0)
(-0.935621 0 0)
(-0.938574 0 0)
(-0.941455 0 0)
(-0.944262 0 0)
(-0.946997 0 0)
(-0.94966 0 0)
(-0.95225 0 0)
(-0.954768 0 0)
(-0.957214 0 0)
(-0.959589 0 0)
(-0.961892 0 0)
(-0.964123 0 0)
(-0.966284 0 0)
(-0.968374 0 0)
(-0.970393 0 0)
(-0.972342 0 0)
(-0.974222 0 0)
(-0.976031 0 0)
(-0.97777 0 0)
(-0.979441 0 0)
(-0.981042 0 0)
(-0.982575 0 0)
(-0.984039 0 0)
(-0.985435 0 0)
(-0.986762 0 0)
(-0.988023 0 0)
(-0.989215 0 0)
(-0.990341 0 0)
(-0.9914 0 0)
(-0.992392 0 0)
(-0.993318 0 0)
(-0.994178 0 0)
(-0.994972 0 0)
(-0.995701 0 0)
(-0.996364 0 0)
(-0.996963 0 0)
(-0.997498 0 0)
(-0.997968 0 0)
(-0.998375 0 0)
(-0.998717 0 0)
(-0.998997 0 0)
(-0.999213 0 0)
(-0.999367 0 0)
(-0.999459 0 0)
(-0.999488 0 0)
(-0.999456 0 0)
(-0.999362 0 0)
(-0.999208 0 0)
(-0.998992 0 0)
(-0.998717 0 0)
(-0.998381 0 0)
(-0.997985 0 0)
(-0.99753 0 0)
(-0.997015 0 0)
(-0.996442 0 0)
(-0.99581 0 0)
(-0.99512 0 0)
(-0.994372 0 0)
(-0.993567 0 0)
(-0.992704 0 0)
(-0.991785 0 0)
(-0.990809 0 0)
(-0.989777 0 0)
(-0.988689 0 0)
(-0.987545 0 0)
(-0.986346 0 0)
(-0.985092 0 0)
(-0.983784 0 0)
(-0.982421 0 0)
(-0.981005 0 0)
(-0.979534 0 0)
(-0.978011 0 0)
(-0.976434 0 0)
(-0.974805 0 0)
(-0.973124 0 0)
(-0.97139 0 0)
(-0.969605 0 0)
(-0.967769 0 0)
(-0.965881 0 0)
(-0.963943 0 0)
(-0.961955 0 0)
(-0.959916 0 0)
(-0.957828 0 0)
(-0.955691 0 0)
(-0.953504 0 0)
(-0.951269 0 0)
(-0.948985 0 0)
(-0.946654 0 0)
(-0.944274 0 0)
(-0.941847 0 0)
(-0.939373 0 0)
(-0.936852 0 0)
(-0.934285 0 0)
(-0.931671 0 0)
(-0.929012 0 0)
(-0.926307 0 0)
(-0.923557 0 0)
(-0.920762 0 0)
(-0.917922 0 0)
(-0.915038 0 0)
(-0.912111 0 0)
(-0.909139 0 0)
(-0.906124 0 0)
(-0.903067 0 0)
(-0.899966 0 0)
(-0.896823 0 0)
(-0.893638 0 0)
(-0.890412 0 0)
(-0.887144 0 0)
(-0.883834 0 0)
(-0.880484 0 0)
(-0.877094 0 0)
(-0.873663 0 0)
(-0.870192 0 0)
(-0.866681 0 0)
(-0.863132 0 0)
(-0.859543 0 0)
(-0.855915 0 0)
(-0.85225 0 0)
(-0.848545 0 0)
(-0.844804 0 0)
(-0.841024 0 0)
(-0.837208 0 0)
(-0.833354 0 0)
(-0.829464 0 0)
(-0.825537 0 0)
(-0.821575 0 0)
(-0.817576 0 0)
(-0.813543 0 0)
(-0.809474 0 0)
(-0.80537 0 0)
(-0.801231 0 0)
(-0.797059 0 0)
(-0.792852 0 0)
(-0.788611 0 0)
(-0.784337 0 0)
(-0.78003 0 0)
(-0.77569 0 0)
(-0.771318 0 0)
(-0.766913 0 0)
(-0.762476 0 0)
(-0.758007 0 0)
(-0.753507 0 0)
(-0.748976 0 0)
(-0.744413 0 0)
(-0.739821 0 0)
(-0.735197 0 0)
(-0.730544 0 0)
(-0.725861 0 0)
(-0.721148 0 0)
(-0.716406 0 0)
(-0.711636 0 0)
(-0.706836 0 0)
(-0.702008 0 0)
(-0.697152 0 0)
(-0.692268 0 0)
(-0.687356 0 0)
(-0.682417 0 0)
(-0.677451 0 0)
(-0.672458 0 0)
(-0.667438 0 0)
(-0.662393 0 0)
(-0.657321 0 0)
(-0.652223 0 0)
(-0.6471 0 0)
(-0.641952 0 0)
(-0.636778 0 0)
(-0.63158 0 0)
(-0.626357 0 0)
(-0.621111 0 0)
(-0.61584 0 0)
(-0.610546 0 0)
(-0.605228 0 0)
(-0.599887 0 0)
(-0.594523 0 0)
(-0.589136 0 0)
(-0.583727 0 0)
(-0.578296 0 0)
(-0.572843 0 0)
(-0.567368 0 0)
(-0.561872 0 0)
(-0.556355 0 0)
(-0.550817 0 0)
(-0.545258 0 0)
(-0.539679 0 0)
(-0.53408 0 0)
(-0.52846 0 0)
(-0.522822 0 0)
(-0.517163 0 0)
(-0.511486 0 0)
(-0.50579 0 0)
(-0.500074 0 0)
(-0.494341 0 0)
(-0.488589 0 0)
(-0.48282 0 0)
(-0.477033 0 0)
(-0.471228 0 0)
(-0.465406 0 0)
(-0.459567 0 0)
(-0.453711 0 0)
(-0.447839 0 0)
(-0.441951 0 0)
(-0.436046 0 0)
(-0.430126 0 0)
(-0.424191 0 0)
(-0.41824 0 0)
(-0.412273 0 0)
(-0.406293 0 0)
(-0.400297 0 0)
(-0.394287 0 0)
(-0.388263 0 0)
(-0.382226 0 0)
(-0.376174 0 0)
(-0.370109 0 0)
(-0.364031 0 0)
(-0.35794 0 0)
(-0.351837 0 0)
(-0.34572 0 0)
(-0.339592 0 0)
(-0.333451 0 0)
(-0.327299 0 0)
(-0.321135 0 0)
(-0.31496 0 0)
(-0.308774 0 0)
(-0.302577 0 0)
(-0.296369 0 0)
(-0.290151 0 0)
(-0.283923 0 0)
(-0.277684 0 0)
(-0.271437 0 0)
(-0.265179 0 0)
(-0.258912 0 0)
(-0.252637 0 0)
(-0.246352 0 0)
(-0.240059 0 0)
(-0.233757 0 0)
(-0.227448 0 0)
(-0.22113 0 0)
(-0.214805 0 0)
(-0.208472 0 0)
(-0.202132 0 0)
(-0.195785 0 0)
(-0.189431 0 0)
(-0.183071 0 0)
(-0.176704 0 0)
(-0.170332 0 0)
(-0.163953 0 0)
(-0.157569 0 0)
(-0.151179 0 0)
(-0.144784 0 0)
(-0.138384 0 0)
(-0.13198 0 0)
(-0.12557 0 0)
(-0.119157 0 0)
(-0.112739 0 0)
(-0.106318 0 0)
(-0.0998925 0 0)
(-0.0934638 0 0)
(-0.087032 0 0)
(-0.0805972 0 0)
(-0.0741596 0 0)
(-0.0677195 0 0)
(-0.061277 0 0)
(-0.0548324 0 0)
(-0.048386 0 0)
(-0.0419379 0 0)
(-0.0354883 0 0)
(-0.0290376 0 0)
(-0.0225858 0 0)
(-0.0161333 0 0)
(-0.00968019 0 0)
(-0.00322677 0 0)
)
;

boundaryField
{
    left
    {
        type            fixedValue;
        value           uniform (0 0 0);
    }
    right
    {
        type            fixedValue;
        value           uniform (0 0 0);
    }
    frontBackUpDown
    {
        type            empty;
    }
}


// ************************************************************************* //
