/*--------------------------------*- C++ -*----------------------------------*\
| =========                 |                                                 |
| \\      /  F ield         | OpenFOAM: The Open Source CFD Toolbox           |
|  \\    /   O peration     | Version:  2412                                  |
|   \\  /    A nd           | Website:  www.openfoam.com                      |
|    \\/     M anipulation  |                                                 |
\*---------------------------------------------------------------------------*/
FoamFile
{
    version     2.0;
    format      ascii;
    arch        "LSB;label=32;scalar=64";
    class       volVectorField;
    location    "0.83";
    object      U;
}
// * * * * * * * * * * * * * * * * * * * * * * * * * * * * * * * * * * * * * //

dimensions      [0 1 -1 0 0 0 0];

internalField   nonuniform List<vector> 
800
(
(0.0010895 0 0)
(0.00326852 0 0)
(0.00544753 0 0)
(0.00762653 0 0)
(0.00980553 0 0)
(0.0119845 0 0)
(0.0141635 0 0)
(0.0163424 0 0)
(0.0185213 0 0)
(0.0207003 0 0)
(0.0228791 0 0)
(0.025058 0 0)
(0.0272368 0 0)
(0.0294155 0 0)
(0.0315943 0 0)
(0.033773 0 0)
(0.0359516 0 0)
(0.0381302 0 0)
(0.0403087 0 0)
(0.0424872 0 0)
(0.0446657 0 0)
(0.046844 0 0)
(0.0490223 0 0)
(0.0512006 0 0)
(0.0533788 0 0)
(0.0555569 0 0)
(0.0577349 0 0)
(0.0599128 0 0)
(0.0620907 0 0)
(0.0642685 0 0)
(0.0664462 0 0)
(0.0686238 0 0)
(0.0708013 0 0)
(0.0729787 0 0)
(0.075156 0 0)
(0.0773333 0 0)
(0.0795104 0 0)
(0.0816874 0 0)
(0.0838643 0 0)
(0.086041 0 0)
(0.0882177 0 0)
(0.0903943 0 0)
(0.0925707 0 0)
(0.094747 0 0)
(0.0969231 0 0)
(0.0990992 0 0)
(0.101275 0 0)
(0.103451 0 0)
(0.105626 0 0)
(0.107802 0 0)
(0.109977 0 0)
(0.112152 0 0)
(0.114327 0 0)
(0.116502 0 0)
(0.118677 0 0)
(0.120852 0 0)
(0.123026 0 0)
(0.1252 0 0)
(0.127374 0 0)
(0.129548 0 0)
(0.131722 0 0)
(0.133895 0 0)
(0.136069 0 0)
(0.138242 0 0)
(0.140415 0 0)
(0.142587 0 0)
(0.14476 0 0)
(0.146932 0 0)
(0.149105 0 0)
(0.151277 0 0)
(0.153448 0 0)
(0.15562 0 0)
(0.157791 0 0)
(0.159962 0 0)
(0.162133 0 0)
(0.164304 0 0)
(0.166474 0 0)
(0.168644 0 0)
(0.170814 0 0)
(0.172984 0 0)
(0.175154 0 0)
(0.177323 0 0)
(0.179492 0 0)
(0.181661 0 0)
(0.183829 0 0)
(0.185997 0 0)
(0.188165 0 0)
(0.190333 0 0)
(0.1925 0 0)
(0.194668 0 0)
(0.196834 0 0)
(0.199001 0 0)
(0.201167 0 0)
(0.203333 0 0)
(0.205499 0 0)
(0.207665 0 0)
(0.20983 0 0)
(0.211995 0 0)
(0.214159 0 0)
(0.216324 0 0)
(0.218488 0 0)
(0.220651 0 0)
(0.222815 0 0)
(0.224978 0 0)
(0.22714 0 0)
(0.229303 0 0)
(0.231465 0 0)
(0.233627 0 0)
(0.235788 0 0)
(0.237949 0 0)
(0.24011 0 0)
(0.24227 0 0)
(0.24443 0 0)
(0.24659 0 0)
(0.248749 0 0)
(0.250908 0 0)
(0.253067 0 0)
(0.255225 0 0)
(0.257383 0 0)
(0.259541 0 0)
(0.261698 0 0)
(0.263854 0 0)
(0.266011 0 0)
(0.268167 0 0)
(0.270322 0 0)
(0.272478 0 0)
(0.274632 0 0)
(0.276787 0 0)
(0.278941 0 0)
(0.281094 0 0)
(0.283248 0 0)
(0.2854 0 0)
(0.287553 0 0)
(0.289705 0 0)
(0.291856 0 0)
(0.294007 0 0)
(0.296158 0 0)
(0.298308 0 0)
(0.300458 0 0)
(0.302607 0 0)
(0.304756 0 0)
(0.306904 0 0)
(0.309052 0 0)
(0.311199 0 0)
(0.313346 0 0)
(0.315493 0 0)
(0.317639 0 0)
(0.319785 0 0)
(0.32193 0 0)
(0.324074 0 0)
(0.326218 0 0)
(0.328362 0 0)
(0.330505 0 0)
(0.332648 0 0)
(0.33479 0 0)
(0.336931 0 0)
(0.339072 0 0)
(0.341213 0 0)
(0.343353 0 0)
(0.345492 0 0)
(0.347631 0 0)
(0.34977 0 0)
(0.351908 0 0)
(0.354045 0 0)
(0.356182 0 0)
(0.358318 0 0)
(0.360454 0 0)
(0.362589 0 0)
(0.364723 0 0)
(0.366857 0 0)
(0.368991 0 0)
(0.371124 0 0)
(0.373256 0 0)
(0.375388 0 0)
(0.377519 0 0)
(0.379649 0 0)
(0.381779 0 0)
(0.383908 0 0)
(0.386037 0 0)
(0.388165 0 0)
(0.390292 0 0)
(0.392419 0 0)
(0.394545 0 0)
(0.396671 0 0)
(0.398796 0 0)
(0.40092 0 0)
(0.403043 0 0)
(0.405166 0 0)
(0.407289 0 0)
(0.40941 0 0)
(0.411531 0 0)
(0.413651 0 0)
(0.415771 0 0)
(0.41789 0 0)
(0.420008 0 0)
(0.422126 0 0)
(0.424243 0 0)
(0.426359 0 0)
(0.428474 0 0)
(0.430589 0 0)
(0.432703 0 0)
(0.434816 0 0)
(0.436928 0 0)
(0.43904 0 0)
(0.441151 0 0)
(0.443262 0 0)
(0.445371 0 0)
(0.44748 0 0)
(0.449588 0 0)
(0.451695 0 0)
(0.453802 0 0)
(0.455907 0 0)
(0.458012 0 0)
(0.460116 0 0)
(0.46222 0 0)
(0.464322 0 0)
(0.466424 0 0)
(0.468525 0 0)
(0.470625 0 0)
(0.472724 0 0)
(0.474823 0 0)
(0.47692 0 0)
(0.479017 0 0)
(0.481113 0 0)
(0.483208 0 0)
(0.485302 0 0)
(0.487396 0 0)
(0.489488 0 0)
(0.49158 0 0)
(0.49367 0 0)
(0.49576 0 0)
(0.497849 0 0)
(0.499937 0 0)
(0.502024 0 0)
(0.50411 0 0)
(0.506196 0 0)
(0.50828 0 0)
(0.510363 0 0)
(0.512446 0 0)
(0.514527 0 0)
(0.516608 0 0)
(0.518688 0 0)
(0.520766 0 0)
(0.522844 0 0)
(0.52492 0 0)
(0.526996 0 0)
(0.529071 0 0)
(0.531144 0 0)
(0.533217 0 0)
(0.535289 0 0)
(0.537359 0 0)
(0.539429 0 0)
(0.541497 0 0)
(0.543565 0 0)
(0.545631 0 0)
(0.547697 0 0)
(0.549761 0 0)
(0.551824 0 0)
(0.553886 0 0)
(0.555947 0 0)
(0.558007 0 0)
(0.560066 0 0)
(0.562124 0 0)
(0.56418 0 0)
(0.566236 0 0)
(0.56829 0 0)
(0.570343 0 0)
(0.572395 0 0)
(0.574446 0 0)
(0.576496 0 0)
(0.578544 0 0)
(0.580592 0 0)
(0.582638 0 0)
(0.584683 0 0)
(0.586726 0 0)
(0.588769 0 0)
(0.59081 0 0)
(0.59285 0 0)
(0.594889 0 0)
(0.596926 0 0)
(0.598962 0 0)
(0.600997 0 0)
(0.603031 0 0)
(0.605063 0 0)
(0.607094 0 0)
(0.609124 0 0)
(0.611152 0 0)
(0.613179 0 0)
(0.615205 0 0)
(0.617229 0 0)
(0.619252 0 0)
(0.621274 0 0)
(0.623294 0 0)
(0.625313 0 0)
(0.62733 0 0)
(0.629346 0 0)
(0.631361 0 0)
(0.633374 0 0)
(0.635385 0 0)
(0.637396 0 0)
(0.639404 0 0)
(0.641412 0 0)
(0.643417 0 0)
(0.645422 0 0)
(0.647424 0 0)
(0.649425 0 0)
(0.651425 0 0)
(0.653423 0 0)
(0.65542 0 0)
(0.657415 0 0)
(0.659408 0 0)
(0.6614 0 0)
(0.66339 0 0)
(0.665379 0 0)
(0.667365 0 0)
(0.669351 0 0)
(0.671334 0 0)
(0.673316 0 0)
(0.675296 0 0)
(0.677275 0 0)
(0.679252 0 0)
(0.681227 0 0)
(0.6832 0 0)
(0.685172 0 0)
(0.687142 0 0)
(0.68911 0 0)
(0.691076 0 0)
(0.69304 0 0)
(0.695003 0 0)
(0.696964 0 0)
(0.698922 0 0)
(0.700879 0 0)
(0.702835 0 0)
(0.704788 0 0)
(0.706739 0 0)
(0.708689 0 0)
(0.710636 0 0)
(0.712581 0 0)
(0.714525 0 0)
(0.716466 0 0)
(0.718406 0 0)
(0.720343 0 0)
(0.722279 0 0)
(0.724212 0 0)
(0.726143 0 0)
(0.728072 0 0)
(0.729999 0 0)
(0.731924 0 0)
(0.733847 0 0)
(0.735767 0 0)
(0.737686 0 0)
(0.739602 0 0)
(0.741516 0 0)
(0.743428 0 0)
(0.745337 0 0)
(0.747244 0 0)
(0.749149 0 0)
(0.751051 0 0)
(0.752951 0 0)
(0.754849 0 0)
(0.756745 0 0)
(0.758638 0 0)
(0.760528 0 0)
(0.762416 0 0)
(0.764302 0 0)
(0.766185 0 0)
(0.768065 0 0)
(0.769943 0 0)
(0.771819 0 0)
(0.773692 0 0)
(0.775562 0 0)
(0.777429 0 0)
(0.779294 0 0)
(0.781156 0 0)
(0.783016 0 0)
(0.784873 0 0)
(0.786727 0 0)
(0.788578 0 0)
(0.790426 0 0)
(0.792272 0 0)
(0.794114 0 0)
(0.795954 0 0)
(0.797791 0 0)
(0.799624 0 0)
(0.801455 0 0)
(0.803283 0 0)
(0.805108 0 0)
(0.806929 0 0)
(0.808748 0 0)
(0.810563 0 0)
(0.812375 0 0)
(0.814184 0 0)
(0.81599 0 0)
(0.817792 0 0)
(0.819592 0 0)
(0.821387 0 0)
(0.823175 0 0)
(0.825215 0 0)
(0.807319 0 0)
(0.430492 0 0)
(-0.429245 0 0)
(-0.807161 0 0)
(-0.825214 0 0)
(-0.823173 0 0)
(-0.821385 0 0)
(-0.819589 0 0)
(-0.81779 0 0)
(-0.815988 0 0)
(-0.814182 0 0)
(-0.812373 0 0)
(-0.810561 0 0)
(-0.808745 0 0)
(-0.806927 0 0)
(-0.805105 0 0)
(-0.803281 0 0)
(-0.801453 0 0)
(-0.799622 0 0)
(-0.797788 0 0)
(-0.795951 0 0)
(-0.794112 0 0)
(-0.792269 0 0)
(-0.790424 0 0)
(-0.788575 0 0)
(-0.786724 0 0)
(-0.78487 0 0)
(-0.783013 0 0)
(-0.781154 0 0)
(-0.779292 0 0)
(-0.777427 0 0)
(-0.775559 0 0)
(-0.773689 0 0)
(-0.771816 0 0)
(-0.769941 0 0)
(-0.768063 0 0)
(-0.766182 0 0)
(-0.764299 0 0)
(-0.762414 0 0)
(-0.760526 0 0)
(-0.758635 0 0)
(-0.756742 0 0)
(-0.754847 0 0)
(-0.752949 0 0)
(-0.751049 0 0)
(-0.749147 0 0)
(-0.747242 0 0)
(-0.745335 0 0)
(-0.743425 0 0)
(-0.741514 0 0)
(-0.7396 0 0)
(-0.737684 0 0)
(-0.735765 0 0)
(-0.733845 0 0)
(-0.731922 0 0)
(-0.729997 0 0)
(-0.72807 0 0)
(-0.726141 0 0)
(-0.72421 0 0)
(-0.722276 0 0)
(-0.720341 0 0)
(-0.718404 0 0)
(-0.716464 0 0)
(-0.714523 0 0)
(-0.712579 0 0)
(-0.710634 0 0)
(-0.708686 0 0)
(-0.706737 0 0)
(-0.704786 0 0)
(-0.702832 0 0)
(-0.700877 0 0)
(-0.69892 0 0)
(-0.696961 0 0)
(-0.695001 0 0)
(-0.693038 0 0)
(-0.691074 0 0)
(-0.689107 0 0)
(-0.687139 0 0)
(-0.68517 0 0)
(-0.683198 0 0)
(-0.681225 0 0)
(-0.67925 0 0)
(-0.677273 0 0)
(-0.675294 0 0)
(-0.673314 0 0)
(-0.671332 0 0)
(-0.669349 0 0)
(-0.667363 0 0)
(-0.665376 0 0)
(-0.663388 0 0)
(-0.661398 0 0)
(-0.659406 0 0)
(-0.657413 0 0)
(-0.655418 0 0)
(-0.653421 0 0)
(-0.651423 0 0)
(-0.649423 0 0)
(-0.647422 0 0)
(-0.64542 0 0)
(-0.643415 0 0)
(-0.64141 0 0)
(-0.639402 0 0)
(-0.637394 0 0)
(-0.635383 0 0)
(-0.633372 0 0)
(-0.631359 0 0)
(-0.629344 0 0)
(-0.627328 0 0)
(-0.625311 0 0)
(-0.623292 0 0)
(-0.621272 0 0)
(-0.61925 0 0)
(-0.617227 0 0)
(-0.615203 0 0)
(-0.613177 0 0)
(-0.61115 0 0)
(-0.609122 0 0)
(-0.607092 0 0)
(-0.605061 0 0)
(-0.603029 0 0)
(-0.600995 0 0)
(-0.598961 0 0)
(-0.596924 0 0)
(-0.594887 0 0)
(-0.592848 0 0)
(-0.590808 0 0)
(-0.588767 0 0)
(-0.586725 0 0)
(-0.584681 0 0)
(-0.582636 0 0)
(-0.58059 0 0)
(-0.578543 0 0)
(-0.576494 0 0)
(-0.574445 0 0)
(-0.572394 0 0)
(-0.570342 0 0)
(-0.568289 0 0)
(-0.566234 0 0)
(-0.564179 0 0)
(-0.562122 0 0)
(-0.560065 0 0)
(-0.558006 0 0)
(-0.555946 0 0)
(-0.553885 0 0)
(-0.551823 0 0)
(-0.549759 0 0)
(-0.547695 0 0)
(-0.54563 0 0)
(-0.543563 0 0)
(-0.541496 0 0)
(-0.539427 0 0)
(-0.537358 0 0)
(-0.535287 0 0)
(-0.533216 0 0)
(-0.531143 0 0)
(-0.529069 0 0)
(-0.526995 0 0)
(-0.524919 0 0)
(-0.522842 0 0)
(-0.520765 0 0)
(-0.518686 0 0)
(-0.516606 0 0)
(-0.514526 0 0)
(-0.512444 0 0)
(-0.510362 0 0)
(-0.508279 0 0)
(-0.506194 0 0)
(-0.504109 0 0)
(-0.502023 0 0)
(-0.499936 0 0)
(-0.497848 0 0)
(-0.495759 0 0)
(-0.493669 0 0)
(-0.491578 0 0)
(-0.489487 0 0)
(-0.487394 0 0)
(-0.485301 0 0)
(-0.483207 0 0)
(-0.481112 0 0)
(-0.479016 0 0)
(-0.476919 0 0)
(-0.474822 0 0)
(-0.472723 0 0)
(-0.470624 0 0)
(-0.468524 0 0)
(-0.466423 0 0)
(-0.464321 0 0)
(-0.462219 0 0)
(-0.460115 0 0)
(-0.458011 0 0)
(-0.455906 0 0)
(-0.453801 0 0)
(-0.451694 0 0)
(-0.449587 0 0)
(-0.447479 0 0)
(-0.44537 0 0)
(-0.44326 0 0)
(-0.44115 0 0)
(-0.439039 0 0)
(-0.436927 0 0)
(-0.434815 0 0)
(-0.432702 0 0)
(-0.430588 0 0)
(-0.428473 0 0)
(-0.426358 0 0)
(-0.424242 0 0)
(-0.422125 0 0)
(-0.420007 0 0)
(-0.417889 0 0)
(-0.41577 0 0)
(-0.413651 0 0)
(-0.41153 0 0)
(-0.409409 0 0)
(-0.407288 0 0)
(-0.405165 0 0)
(-0.403043 0 0)
(-0.400919 0 0)
(-0.398795 0 0)
(-0.39667 0 0)
(-0.394544 0 0)
(-0.392418 0 0)
(-0.390291 0 0)
(-0.388164 0 0)
(-0.386036 0 0)
(-0.383907 0 0)
(-0.381778 0 0)
(-0.379648 0 0)
(-0.377518 0 0)
(-0.375387 0 0)
(-0.373255 0 0)
(-0.371123 0 0)
(-0.36899 0 0)
(-0.366857 0 0)
(-0.364723 0 0)
(-0.362588 0 0)
(-0.360453 0 0)
(-0.358317 0 0)
(-0.356181 0 0)
(-0.354044 0 0)
(-0.351907 0 0)
(-0.349769 0 0)
(-0.347631 0 0)
(-0.345492 0 0)
(-0.343352 0 0)
(-0.341212 0 0)
(-0.339072 0 0)
(-0.336931 0 0)
(-0.334789 0 0)
(-0.332647 0 0)
(-0.330504 0 0)
(-0.328361 0 0)
(-0.326218 0 0)
(-0.324074 0 0)
(-0.321929 0 0)
(-0.319784 0 0)
(-0.317638 0 0)
(-0.315492 0 0)
(-0.313346 0 0)
(-0.311199 0 0)
(-0.309051 0 0)
(-0.306903 0 0)
(-0.304755 0 0)
(-0.302606 0 0)
(-0.300457 0 0)
(-0.298307 0 0)
(-0.296157 0 0)
(-0.294007 0 0)
(-0.291856 0 0)
(-0.289704 0 0)
(-0.287552 0 0)
(-0.2854 0 0)
(-0.283247 0 0)
(-0.281094 0 0)
(-0.27894 0 0)
(-0.276786 0 0)
(-0.274632 0 0)
(-0.272477 0 0)
(-0.270322 0 0)
(-0.268166 0 0)
(-0.26601 0 0)
(-0.263854 0 0)
(-0.261697 0 0)
(-0.25954 0 0)
(-0.257383 0 0)
(-0.255225 0 0)
(-0.253067 0 0)
(-0.250908 0 0)
(-0.248749 0 0)
(-0.24659 0 0)
(-0.24443 0 0)
(-0.24227 0 0)
(-0.24011 0 0)
(-0.237949 0 0)
(-0.235788 0 0)
(-0.233626 0 0)
(-0.231465 0 0)
(-0.229303 0 0)
(-0.22714 0 0)
(-0.224977 0 0)
(-0.222814 0 0)
(-0.220651 0 0)
(-0.218487 0 0)
(-0.216323 0 0)
(-0.214159 0 0)
(-0.211995 0 0)
(-0.20983 0 0)
(-0.207664 0 0)
(-0.205499 0 0)
(-0.203333 0 0)
(-0.201167 0 0)
(-0.199001 0 0)
(-0.196834 0 0)
(-0.194667 0 0)
(-0.1925 0 0)
(-0.190333 0 0)
(-0.188165 0 0)
(-0.185997 0 0)
(-0.183829 0 0)
(-0.18166 0 0)
(-0.179492 0 0)
(-0.177323 0 0)
(-0.175153 0 0)
(-0.172984 0 0)
(-0.170814 0 0)
(-0.168644 0 0)
(-0.166474 0 0)
(-0.164304 0 0)
(-0.162133 0 0)
(-0.159962 0 0)
(-0.157791 0 0)
(-0.15562 0 0)
(-0.153448 0 0)
(-0.151276 0 0)
(-0.149104 0 0)
(-0.146932 0 0)
(-0.14476 0 0)
(-0.142587 0 0)
(-0.140415 0 0)
(-0.138242 0 0)
(-0.136069 0 0)
(-0.133895 0 0)
(-0.131722 0 0)
(-0.129548 0 0)
(-0.127374 0 0)
(-0.1252 0 0)
(-0.123026 0 0)
(-0.120851 0 0)
(-0.118677 0 0)
(-0.116502 0 0)
(-0.114327 0 0)
(-0.112152 0 0)
(-0.109977 0 0)
(-0.107802 0 0)
(-0.105626 0 0)
(-0.103451 0 0)
(-0.101275 0 0)
(-0.0990991 0 0)
(-0.0969231 0 0)
(-0.0947469 0 0)
(-0.0925706 0 0)
(-0.0903942 0 0)
(-0.0882177 0 0)
(-0.086041 0 0)
(-0.0838642 0 0)
(-0.0816873 0 0)
(-0.0795103 0 0)
(-0.0773332 0 0)
(-0.075156 0 0)
(-0.0729787 0 0)
(-0.0708013 0 0)
(-0.0686238 0 0)
(-0.0664462 0 0)
(-0.0642685 0 0)
(-0.0620907 0 0)
(-0.0599128 0 0)
(-0.0577349 0 0)
(-0.0555568 0 0)
(-0.0533787 0 0)
(-0.0512006 0 0)
(-0.0490223 0 0)
(-0.046844 0 0)
(-0.0446657 0 0)
(-0.0424872 0 0)
(-0.0403087 0 0)
(-0.0381302 0 0)
(-0.0359516 0 0)
(-0.033773 0 0)
(-0.0315943 0 0)
(-0.0294155 0 0)
(-0.0272368 0 0)
(-0.025058 0 0)
(-0.0228791 0 0)
(-0.0207003 0 0)
(-0.0185214 0 0)
(-0.0163424 0 0)
(-0.0141635 0 0)
(-0.0119845 0 0)
(-0.00980554 0 0)
(-0.00762654 0 0)
(-0.00544754 0 0)
(-0.00326853 0 0)
(-0.00108951 0 0)
)
;

boundaryField
{
    left
    {
        type            fixedValue;
        value           uniform (0 0 0);
    }
    right
    {
        type            fixedValue;
        value           uniform (0 0 0);
    }
    frontBackUpDown
    {
        type            empty;
    }
}


// ************************************************************************* //
