/*--------------------------------*- C++ -*----------------------------------*\
| =========                 |                                                 |
| \\      /  F ield         | OpenFOAM: The Open Source CFD Toolbox           |
|  \\    /   O peration     | Version:  2412                                  |
|   \\  /    A nd           | Website:  www.openfoam.com                      |
|    \\/     M anipulation  |                                                 |
\*---------------------------------------------------------------------------*/
FoamFile
{
    version     2.0;
    format      ascii;
    arch        "LSB;label=32;scalar=64";
    class       volVectorField;
    location    "0.83";
    object      U_0;
}
// * * * * * * * * * * * * * * * * * * * * * * * * * * * * * * * * * * * * * //

dimensions      [0 1 -1 0 0 0 0];

internalField   nonuniform List<vector> 
800
(
(0.00108997 0 0)
(0.00326994 0 0)
(0.0054499 0 0)
(0.00762985 0 0)
(0.0098098 0 0)
(0.0119897 0 0)
(0.0141696 0 0)
(0.0163495 0 0)
(0.0185294 0 0)
(0.0207093 0 0)
(0.0228891 0 0)
(0.0250689 0 0)
(0.0272486 0 0)
(0.0294283 0 0)
(0.031608 0 0)
(0.0337877 0 0)
(0.0359672 0 0)
(0.0381468 0 0)
(0.0403263 0 0)
(0.0425057 0 0)
(0.0446851 0 0)
(0.0468644 0 0)
(0.0490437 0 0)
(0.0512229 0 0)
(0.053402 0 0)
(0.055581 0 0)
(0.05776 0 0)
(0.0599389 0 0)
(0.0621177 0 0)
(0.0642964 0 0)
(0.0664751 0 0)
(0.0686536 0 0)
(0.0708321 0 0)
(0.0730104 0 0)
(0.0751887 0 0)
(0.0773669 0 0)
(0.0795449 0 0)
(0.0817229 0 0)
(0.0839007 0 0)
(0.0860784 0 0)
(0.088256 0 0)
(0.0904335 0 0)
(0.0926109 0 0)
(0.0947881 0 0)
(0.0969652 0 0)
(0.0991422 0 0)
(0.101319 0 0)
(0.103496 0 0)
(0.105672 0 0)
(0.107849 0 0)
(0.110025 0 0)
(0.112201 0 0)
(0.114377 0 0)
(0.116553 0 0)
(0.118729 0 0)
(0.120904 0 0)
(0.123079 0 0)
(0.125255 0 0)
(0.12743 0 0)
(0.129604 0 0)
(0.131779 0 0)
(0.133953 0 0)
(0.136128 0 0)
(0.138302 0 0)
(0.140476 0 0)
(0.142649 0 0)
(0.144823 0 0)
(0.146996 0 0)
(0.149169 0 0)
(0.151342 0 0)
(0.153515 0 0)
(0.155687 0 0)
(0.15786 0 0)
(0.160032 0 0)
(0.162203 0 0)
(0.164375 0 0)
(0.166546 0 0)
(0.168717 0 0)
(0.170888 0 0)
(0.173059 0 0)
(0.175229 0 0)
(0.1774 0 0)
(0.17957 0 0)
(0.181739 0 0)
(0.183909 0 0)
(0.186078 0 0)
(0.188247 0 0)
(0.190415 0 0)
(0.192584 0 0)
(0.194752 0 0)
(0.19692 0 0)
(0.199087 0 0)
(0.201254 0 0)
(0.203421 0 0)
(0.205588 0 0)
(0.207755 0 0)
(0.209921 0 0)
(0.212086 0 0)
(0.214252 0 0)
(0.216417 0 0)
(0.218582 0 0)
(0.220747 0 0)
(0.222911 0 0)
(0.225075 0 0)
(0.227239 0 0)
(0.229402 0 0)
(0.231565 0 0)
(0.233728 0 0)
(0.23589 0 0)
(0.238052 0 0)
(0.240214 0 0)
(0.242375 0 0)
(0.244536 0 0)
(0.246696 0 0)
(0.248857 0 0)
(0.251017 0 0)
(0.253176 0 0)
(0.255335 0 0)
(0.257494 0 0)
(0.259652 0 0)
(0.26181 0 0)
(0.263968 0 0)
(0.266125 0 0)
(0.268282 0 0)
(0.270439 0 0)
(0.272595 0 0)
(0.274751 0 0)
(0.276906 0 0)
(0.279061 0 0)
(0.281215 0 0)
(0.283369 0 0)
(0.285523 0 0)
(0.287676 0 0)
(0.289829 0 0)
(0.291981 0 0)
(0.294133 0 0)
(0.296285 0 0)
(0.298436 0 0)
(0.300587 0 0)
(0.302737 0 0)
(0.304886 0 0)
(0.307036 0 0)
(0.309184 0 0)
(0.311333 0 0)
(0.313481 0 0)
(0.315628 0 0)
(0.317775 0 0)
(0.319922 0 0)
(0.322067 0 0)
(0.324213 0 0)
(0.326358 0 0)
(0.328502 0 0)
(0.330646 0 0)
(0.33279 0 0)
(0.334933 0 0)
(0.337075 0 0)
(0.339217 0 0)
(0.341359 0 0)
(0.3435 0 0)
(0.34564 0 0)
(0.34778 0 0)
(0.349919 0 0)
(0.352058 0 0)
(0.354196 0 0)
(0.356334 0 0)
(0.358471 0 0)
(0.360608 0 0)
(0.362744 0 0)
(0.364879 0 0)
(0.367014 0 0)
(0.369148 0 0)
(0.371282 0 0)
(0.373415 0 0)
(0.375547 0 0)
(0.377679 0 0)
(0.379811 0 0)
(0.381941 0 0)
(0.384071 0 0)
(0.386201 0 0)
(0.38833 0 0)
(0.390458 0 0)
(0.392586 0 0)
(0.394713 0 0)
(0.396839 0 0)
(0.398965 0 0)
(0.40109 0 0)
(0.403214 0 0)
(0.405338 0 0)
(0.407461 0 0)
(0.409584 0 0)
(0.411706 0 0)
(0.413827 0 0)
(0.415947 0 0)
(0.418067 0 0)
(0.420186 0 0)
(0.422304 0 0)
(0.424422 0 0)
(0.426539 0 0)
(0.428655 0 0)
(0.430771 0 0)
(0.432885 0 0)
(0.434999 0 0)
(0.437113 0 0)
(0.439225 0 0)
(0.441337 0 0)
(0.443448 0 0)
(0.445559 0 0)
(0.447668 0 0)
(0.449777 0 0)
(0.451885 0 0)
(0.453993 0 0)
(0.456099 0 0)
(0.458205 0 0)
(0.46031 0 0)
(0.462414 0 0)
(0.464517 0 0)
(0.46662 0 0)
(0.468722 0 0)
(0.470822 0 0)
(0.472922 0 0)
(0.475022 0 0)
(0.47712 0 0)
(0.479218 0 0)
(0.481314 0 0)
(0.48341 0 0)
(0.485505 0 0)
(0.487599 0 0)
(0.489693 0 0)
(0.491785 0 0)
(0.493877 0 0)
(0.495967 0 0)
(0.498057 0 0)
(0.500146 0 0)
(0.502233 0 0)
(0.50432 0 0)
(0.506406 0 0)
(0.508492 0 0)
(0.510576 0 0)
(0.512659 0 0)
(0.514741 0 0)
(0.516823 0 0)
(0.518903 0 0)
(0.520982 0 0)
(0.523061 0 0)
(0.525138 0 0)
(0.527215 0 0)
(0.52929 0 0)
(0.531364 0 0)
(0.533438 0 0)
(0.53551 0 0)
(0.537581 0 0)
(0.539652 0 0)
(0.541721 0 0)
(0.543789 0 0)
(0.545856 0 0)
(0.547923 0 0)
(0.549988 0 0)
(0.552052 0 0)
(0.554114 0 0)
(0.556176 0 0)
(0.558237 0 0)
(0.560296 0 0)
(0.562355 0 0)
(0.564412 0 0)
(0.566468 0 0)
(0.568523 0 0)
(0.570577 0 0)
(0.57263 0 0)
(0.574682 0 0)
(0.576732 0 0)
(0.578781 0 0)
(0.580829 0 0)
(0.582876 0 0)
(0.584921 0 0)
(0.586966 0 0)
(0.589009 0 0)
(0.591051 0 0)
(0.593091 0 0)
(0.595131 0 0)
(0.597169 0 0)
(0.599206 0 0)
(0.601241 0 0)
(0.603276 0 0)
(0.605309 0 0)
(0.60734 0 0)
(0.609371 0 0)
(0.6114 0 0)
(0.613427 0 0)
(0.615454 0 0)
(0.617479 0 0)
(0.619502 0 0)
(0.621525 0 0)
(0.623545 0 0)
(0.625565 0 0)
(0.627583 0 0)
(0.6296 0 0)
(0.631615 0 0)
(0.633628 0 0)
(0.635641 0 0)
(0.637652 0 0)
(0.639661 0 0)
(0.641669 0 0)
(0.643675 0 0)
(0.64568 0 0)
(0.647683 0 0)
(0.649685 0 0)
(0.651685 0 0)
(0.653684 0 0)
(0.655681 0 0)
(0.657677 0 0)
(0.659671 0 0)
(0.661663 0 0)
(0.663654 0 0)
(0.665643 0 0)
(0.66763 0 0)
(0.669616 0 0)
(0.6716 0 0)
(0.673583 0 0)
(0.675563 0 0)
(0.677543 0 0)
(0.67952 0 0)
(0.681496 0 0)
(0.683469 0 0)
(0.685442 0 0)
(0.687412 0 0)
(0.68938 0 0)
(0.691347 0 0)
(0.693312 0 0)
(0.695275 0 0)
(0.697236 0 0)
(0.699196 0 0)
(0.701153 0 0)
(0.703109 0 0)
(0.705063 0 0)
(0.707015 0 0)
(0.708964 0 0)
(0.710912 0 0)
(0.712858 0 0)
(0.714802 0 0)
(0.716744 0 0)
(0.718684 0 0)
(0.720622 0 0)
(0.722558 0 0)
(0.724492 0 0)
(0.726423 0 0)
(0.728353 0 0)
(0.73028 0 0)
(0.732206 0 0)
(0.734129 0 0)
(0.73605 0 0)
(0.737968 0 0)
(0.739885 0 0)
(0.741799 0 0)
(0.743711 0 0)
(0.745621 0 0)
(0.747529 0 0)
(0.749434 0 0)
(0.751337 0 0)
(0.753237 0 0)
(0.755135 0 0)
(0.757031 0 0)
(0.758924 0 0)
(0.760815 0 0)
(0.762704 0 0)
(0.764589 0 0)
(0.766473 0 0)
(0.768354 0 0)
(0.770232 0 0)
(0.772108 0 0)
(0.773981 0 0)
(0.775851 0 0)
(0.777719 0 0)
(0.779584 0 0)
(0.781447 0 0)
(0.783307 0 0)
(0.785164 0 0)
(0.787018 0 0)
(0.788869 0 0)
(0.790718 0 0)
(0.792564 0 0)
(0.794406 0 0)
(0.796246 0 0)
(0.798083 0 0)
(0.799917 0 0)
(0.801748 0 0)
(0.803576 0 0)
(0.805401 0 0)
(0.807223 0 0)
(0.809041 0 0)
(0.810857 0 0)
(0.812669 0 0)
(0.814478 0 0)
(0.816284 0 0)
(0.818087 0 0)
(0.819886 0 0)
(0.821682 0 0)
(0.82347 0 0)
(0.825512 0 0)
(0.807702 0 0)
(0.430798 0 0)
(-0.429551 0 0)
(-0.807544 0 0)
(-0.825511 0 0)
(-0.823467 0 0)
(-0.82168 0 0)
(-0.819884 0 0)
(-0.818084 0 0)
(-0.816282 0 0)
(-0.814476 0 0)
(-0.812667 0 0)
(-0.810855 0 0)
(-0.809039 0 0)
(-0.80722 0 0)
(-0.805399 0 0)
(-0.803574 0 0)
(-0.801746 0 0)
(-0.799915 0 0)
(-0.798081 0 0)
(-0.796244 0 0)
(-0.794404 0 0)
(-0.792561 0 0)
(-0.790715 0 0)
(-0.788867 0 0)
(-0.787015 0 0)
(-0.785161 0 0)
(-0.783304 0 0)
(-0.781444 0 0)
(-0.779582 0 0)
(-0.777717 0 0)
(-0.775849 0 0)
(-0.773978 0 0)
(-0.772105 0 0)
(-0.77023 0 0)
(-0.768351 0 0)
(-0.76647 0 0)
(-0.764587 0 0)
(-0.762701 0 0)
(-0.760813 0 0)
(-0.758922 0 0)
(-0.757029 0 0)
(-0.755133 0 0)
(-0.753235 0 0)
(-0.751334 0 0)
(-0.749431 0 0)
(-0.747526 0 0)
(-0.745619 0 0)
(-0.743709 0 0)
(-0.741797 0 0)
(-0.739883 0 0)
(-0.737966 0 0)
(-0.736047 0 0)
(-0.734126 0 0)
(-0.732203 0 0)
(-0.730278 0 0)
(-0.72835 0 0)
(-0.726421 0 0)
(-0.724489 0 0)
(-0.722555 0 0)
(-0.72062 0 0)
(-0.718682 0 0)
(-0.716742 0 0)
(-0.7148 0 0)
(-0.712856 0 0)
(-0.71091 0 0)
(-0.708962 0 0)
(-0.707012 0 0)
(-0.70506 0 0)
(-0.703107 0 0)
(-0.701151 0 0)
(-0.699194 0 0)
(-0.697234 0 0)
(-0.695273 0 0)
(-0.69331 0 0)
(-0.691345 0 0)
(-0.689378 0 0)
(-0.68741 0 0)
(-0.685439 0 0)
(-0.683467 0 0)
(-0.681493 0 0)
(-0.679518 0 0)
(-0.67754 0 0)
(-0.675561 0 0)
(-0.673581 0 0)
(-0.671598 0 0)
(-0.669614 0 0)
(-0.667628 0 0)
(-0.665641 0 0)
(-0.663652 0 0)
(-0.661661 0 0)
(-0.659668 0 0)
(-0.657675 0 0)
(-0.655679 0 0)
(-0.653682 0 0)
(-0.651683 0 0)
(-0.649683 0 0)
(-0.647681 0 0)
(-0.645678 0 0)
(-0.643673 0 0)
(-0.641667 0 0)
(-0.639659 0 0)
(-0.63765 0 0)
(-0.635639 0 0)
(-0.633626 0 0)
(-0.631613 0 0)
(-0.629598 0 0)
(-0.627581 0 0)
(-0.625563 0 0)
(-0.623544 0 0)
(-0.621523 0 0)
(-0.6195 0 0)
(-0.617477 0 0)
(-0.615452 0 0)
(-0.613426 0 0)
(-0.611398 0 0)
(-0.609369 0 0)
(-0.607339 0 0)
(-0.605307 0 0)
(-0.603274 0 0)
(-0.60124 0 0)
(-0.599204 0 0)
(-0.597167 0 0)
(-0.595129 0 0)
(-0.59309 0 0)
(-0.591049 0 0)
(-0.589007 0 0)
(-0.586964 0 0)
(-0.58492 0 0)
(-0.582874 0 0)
(-0.580827 0 0)
(-0.578779 0 0)
(-0.57673 0 0)
(-0.57468 0 0)
(-0.572628 0 0)
(-0.570576 0 0)
(-0.568522 0 0)
(-0.566467 0 0)
(-0.56441 0 0)
(-0.562353 0 0)
(-0.560295 0 0)
(-0.558235 0 0)
(-0.556175 0 0)
(-0.554113 0 0)
(-0.55205 0 0)
(-0.549986 0 0)
(-0.547921 0 0)
(-0.545855 0 0)
(-0.543788 0 0)
(-0.54172 0 0)
(-0.53965 0 0)
(-0.53758 0 0)
(-0.535509 0 0)
(-0.533436 0 0)
(-0.531363 0 0)
(-0.529288 0 0)
(-0.527213 0 0)
(-0.525137 0 0)
(-0.523059 0 0)
(-0.520981 0 0)
(-0.518901 0 0)
(-0.516821 0 0)
(-0.51474 0 0)
(-0.512658 0 0)
(-0.510574 0 0)
(-0.50849 0 0)
(-0.506405 0 0)
(-0.504319 0 0)
(-0.502232 0 0)
(-0.500144 0 0)
(-0.498055 0 0)
(-0.495966 0 0)
(-0.493875 0 0)
(-0.491784 0 0)
(-0.489691 0 0)
(-0.487598 0 0)
(-0.485504 0 0)
(-0.483409 0 0)
(-0.481313 0 0)
(-0.479216 0 0)
(-0.477119 0 0)
(-0.47502 0 0)
(-0.472921 0 0)
(-0.470821 0 0)
(-0.46872 0 0)
(-0.466619 0 0)
(-0.464516 0 0)
(-0.462413 0 0)
(-0.460309 0 0)
(-0.458204 0 0)
(-0.456098 0 0)
(-0.453991 0 0)
(-0.451884 0 0)
(-0.449776 0 0)
(-0.447667 0 0)
(-0.445558 0 0)
(-0.443447 0 0)
(-0.441336 0 0)
(-0.439224 0 0)
(-0.437112 0 0)
(-0.434998 0 0)
(-0.432884 0 0)
(-0.430769 0 0)
(-0.428654 0 0)
(-0.426538 0 0)
(-0.424421 0 0)
(-0.422303 0 0)
(-0.420185 0 0)
(-0.418066 0 0)
(-0.415946 0 0)
(-0.413826 0 0)
(-0.411705 0 0)
(-0.409583 0 0)
(-0.40746 0 0)
(-0.405337 0 0)
(-0.403213 0 0)
(-0.401089 0 0)
(-0.398964 0 0)
(-0.396838 0 0)
(-0.394712 0 0)
(-0.392585 0 0)
(-0.390457 0 0)
(-0.388329 0 0)
(-0.3862 0 0)
(-0.384071 0 0)
(-0.381941 0 0)
(-0.37981 0 0)
(-0.377678 0 0)
(-0.375547 0 0)
(-0.373414 0 0)
(-0.371281 0 0)
(-0.369147 0 0)
(-0.367013 0 0)
(-0.364878 0 0)
(-0.362743 0 0)
(-0.360607 0 0)
(-0.35847 0 0)
(-0.356333 0 0)
(-0.354195 0 0)
(-0.352057 0 0)
(-0.349918 0 0)
(-0.347779 0 0)
(-0.345639 0 0)
(-0.343499 0 0)
(-0.341358 0 0)
(-0.339217 0 0)
(-0.337075 0 0)
(-0.334932 0 0)
(-0.332789 0 0)
(-0.330646 0 0)
(-0.328502 0 0)
(-0.326357 0 0)
(-0.324212 0 0)
(-0.322067 0 0)
(-0.319921 0 0)
(-0.317774 0 0)
(-0.315628 0 0)
(-0.31348 0 0)
(-0.311332 0 0)
(-0.309184 0 0)
(-0.307035 0 0)
(-0.304886 0 0)
(-0.302736 0 0)
(-0.300586 0 0)
(-0.298435 0 0)
(-0.296284 0 0)
(-0.294133 0 0)
(-0.291981 0 0)
(-0.289828 0 0)
(-0.287676 0 0)
(-0.285522 0 0)
(-0.283369 0 0)
(-0.281215 0 0)
(-0.27906 0 0)
(-0.276905 0 0)
(-0.27475 0 0)
(-0.272594 0 0)
(-0.270438 0 0)
(-0.268282 0 0)
(-0.266125 0 0)
(-0.263968 0 0)
(-0.26181 0 0)
(-0.259652 0 0)
(-0.257494 0 0)
(-0.255335 0 0)
(-0.253176 0 0)
(-0.251016 0 0)
(-0.248856 0 0)
(-0.246696 0 0)
(-0.244535 0 0)
(-0.242374 0 0)
(-0.240213 0 0)
(-0.238052 0 0)
(-0.23589 0 0)
(-0.233727 0 0)
(-0.231565 0 0)
(-0.229402 0 0)
(-0.227238 0 0)
(-0.225075 0 0)
(-0.222911 0 0)
(-0.220746 0 0)
(-0.218582 0 0)
(-0.216417 0 0)
(-0.214252 0 0)
(-0.212086 0 0)
(-0.20992 0 0)
(-0.207754 0 0)
(-0.205588 0 0)
(-0.203421 0 0)
(-0.201254 0 0)
(-0.199087 0 0)
(-0.196919 0 0)
(-0.194752 0 0)
(-0.192583 0 0)
(-0.190415 0 0)
(-0.188246 0 0)
(-0.186078 0 0)
(-0.183908 0 0)
(-0.181739 0 0)
(-0.179569 0 0)
(-0.177399 0 0)
(-0.175229 0 0)
(-0.173059 0 0)
(-0.170888 0 0)
(-0.168717 0 0)
(-0.166546 0 0)
(-0.164375 0 0)
(-0.162203 0 0)
(-0.160031 0 0)
(-0.157859 0 0)
(-0.155687 0 0)
(-0.153515 0 0)
(-0.151342 0 0)
(-0.149169 0 0)
(-0.146996 0 0)
(-0.144823 0 0)
(-0.142649 0 0)
(-0.140476 0 0)
(-0.138302 0 0)
(-0.136128 0 0)
(-0.133953 0 0)
(-0.131779 0 0)
(-0.129604 0 0)
(-0.127429 0 0)
(-0.125254 0 0)
(-0.123079 0 0)
(-0.120904 0 0)
(-0.118728 0 0)
(-0.116553 0 0)
(-0.114377 0 0)
(-0.112201 0 0)
(-0.110025 0 0)
(-0.107849 0 0)
(-0.105672 0 0)
(-0.103496 0 0)
(-0.101319 0 0)
(-0.0991422 0 0)
(-0.0969652 0 0)
(-0.0947881 0 0)
(-0.0926108 0 0)
(-0.0904335 0 0)
(-0.088256 0 0)
(-0.0860784 0 0)
(-0.0839007 0 0)
(-0.0817228 0 0)
(-0.0795449 0 0)
(-0.0773668 0 0)
(-0.0751887 0 0)
(-0.0730104 0 0)
(-0.0708321 0 0)
(-0.0686536 0 0)
(-0.066475 0 0)
(-0.0642964 0 0)
(-0.0621177 0 0)
(-0.0599389 0 0)
(-0.05776 0 0)
(-0.055581 0 0)
(-0.053402 0 0)
(-0.0512228 0 0)
(-0.0490437 0 0)
(-0.0468644 0 0)
(-0.0446851 0 0)
(-0.0425057 0 0)
(-0.0403263 0 0)
(-0.0381468 0 0)
(-0.0359672 0 0)
(-0.0337877 0 0)
(-0.031608 0 0)
(-0.0294283 0 0)
(-0.0272486 0 0)
(-0.0250689 0 0)
(-0.0228891 0 0)
(-0.0207093 0 0)
(-0.0185294 0 0)
(-0.0163495 0 0)
(-0.0141696 0 0)
(-0.0119897 0 0)
(-0.0098098 0 0)
(-0.00762986 0 0)
(-0.00544991 0 0)
(-0.00326995 0 0)
(-0.00108998 0 0)
)
;

boundaryField
{
    left
    {
        type            fixedValue;
        value           uniform (0 0 0);
    }
    right
    {
        type            fixedValue;
        value           uniform (0 0 0);
    }
    frontBackUpDown
    {
        type            empty;
    }
}


// ************************************************************************* //
