/*--------------------------------*- C++ -*----------------------------------*\
| =========                 |                                                 |
| \\      /  F ield         | OpenFOAM: The Open Source CFD Toolbox           |
|  \\    /   O peration     | Version:  2412                                  |
|   \\  /    A nd           | Website:  www.openfoam.com                      |
|    \\/     M anipulation  |                                                 |
\*---------------------------------------------------------------------------*/
FoamFile
{
    version     2.0;
    format      ascii;
    arch        "LSB;label=32;scalar=64";
    class       volVectorField;
    location    "0.83";
    object      U_0_0;
}
// * * * * * * * * * * * * * * * * * * * * * * * * * * * * * * * * * * * * * //

dimensions      [0 1 -1 0 0 0 0];

internalField   nonuniform List<vector> 
800
(
(0.00109045 0 0)
(0.00327136 0 0)
(0.00545227 0 0)
(0.00763317 0 0)
(0.00981406 0 0)
(0.0119949 0 0)
(0.0141758 0 0)
(0.0163566 0 0)
(0.0185375 0 0)
(0.0207183 0 0)
(0.022899 0 0)
(0.0250798 0 0)
(0.0272605 0 0)
(0.0294411 0 0)
(0.0316218 0 0)
(0.0338024 0 0)
(0.0359829 0 0)
(0.0381634 0 0)
(0.0403438 0 0)
(0.0425242 0 0)
(0.0447045 0 0)
(0.0468848 0 0)
(0.049065 0 0)
(0.0512451 0 0)
(0.0534252 0 0)
(0.0556052 0 0)
(0.0577851 0 0)
(0.059965 0 0)
(0.0621447 0 0)
(0.0643244 0 0)
(0.066504 0 0)
(0.0686835 0 0)
(0.0708629 0 0)
(0.0730422 0 0)
(0.0752214 0 0)
(0.0774005 0 0)
(0.0795795 0 0)
(0.0817584 0 0)
(0.0839372 0 0)
(0.0861159 0 0)
(0.0882944 0 0)
(0.0904729 0 0)
(0.0926512 0 0)
(0.0948293 0 0)
(0.0970074 0 0)
(0.0991853 0 0)
(0.101363 0 0)
(0.103541 0 0)
(0.105718 0 0)
(0.107896 0 0)
(0.110073 0 0)
(0.11225 0 0)
(0.114427 0 0)
(0.116604 0 0)
(0.11878 0 0)
(0.120957 0 0)
(0.123133 0 0)
(0.125309 0 0)
(0.127485 0 0)
(0.129661 0 0)
(0.131836 0 0)
(0.134012 0 0)
(0.136187 0 0)
(0.138362 0 0)
(0.140537 0 0)
(0.142711 0 0)
(0.144886 0 0)
(0.14706 0 0)
(0.149234 0 0)
(0.151408 0 0)
(0.153581 0 0)
(0.155755 0 0)
(0.157928 0 0)
(0.160101 0 0)
(0.162274 0 0)
(0.164446 0 0)
(0.166619 0 0)
(0.168791 0 0)
(0.170962 0 0)
(0.173134 0 0)
(0.175305 0 0)
(0.177476 0 0)
(0.179647 0 0)
(0.181818 0 0)
(0.183988 0 0)
(0.186158 0 0)
(0.188328 0 0)
(0.190498 0 0)
(0.192667 0 0)
(0.194836 0 0)
(0.197005 0 0)
(0.199173 0 0)
(0.201341 0 0)
(0.203509 0 0)
(0.205677 0 0)
(0.207844 0 0)
(0.210011 0 0)
(0.212178 0 0)
(0.214345 0 0)
(0.216511 0 0)
(0.218677 0 0)
(0.220842 0 0)
(0.223007 0 0)
(0.225172 0 0)
(0.227337 0 0)
(0.229501 0 0)
(0.231665 0 0)
(0.233828 0 0)
(0.235992 0 0)
(0.238155 0 0)
(0.240317 0 0)
(0.242479 0 0)
(0.244641 0 0)
(0.246803 0 0)
(0.248964 0 0)
(0.251125 0 0)
(0.253285 0 0)
(0.255445 0 0)
(0.257605 0 0)
(0.259764 0 0)
(0.261923 0 0)
(0.264082 0 0)
(0.26624 0 0)
(0.268398 0 0)
(0.270555 0 0)
(0.272712 0 0)
(0.274869 0 0)
(0.277025 0 0)
(0.279181 0 0)
(0.281336 0 0)
(0.283491 0 0)
(0.285646 0 0)
(0.2878 0 0)
(0.289954 0 0)
(0.292107 0 0)
(0.29426 0 0)
(0.296412 0 0)
(0.298564 0 0)
(0.300716 0 0)
(0.302867 0 0)
(0.305017 0 0)
(0.307167 0 0)
(0.309317 0 0)
(0.311466 0 0)
(0.313615 0 0)
(0.315763 0 0)
(0.317911 0 0)
(0.320059 0 0)
(0.322205 0 0)
(0.324352 0 0)
(0.326498 0 0)
(0.328643 0 0)
(0.330788 0 0)
(0.332932 0 0)
(0.335076 0 0)
(0.33722 0 0)
(0.339362 0 0)
(0.341505 0 0)
(0.343646 0 0)
(0.345788 0 0)
(0.347928 0 0)
(0.350069 0 0)
(0.352208 0 0)
(0.354347 0 0)
(0.356486 0 0)
(0.358624 0 0)
(0.360761 0 0)
(0.362898 0 0)
(0.365034 0 0)
(0.36717 0 0)
(0.369305 0 0)
(0.37144 0 0)
(0.373574 0 0)
(0.375707 0 0)
(0.37784 0 0)
(0.379972 0 0)
(0.382104 0 0)
(0.384235 0 0)
(0.386365 0 0)
(0.388495 0 0)
(0.390624 0 0)
(0.392753 0 0)
(0.39488 0 0)
(0.397008 0 0)
(0.399134 0 0)
(0.40126 0 0)
(0.403385 0 0)
(0.40551 0 0)
(0.407634 0 0)
(0.409757 0 0)
(0.41188 0 0)
(0.414002 0 0)
(0.416123 0 0)
(0.418244 0 0)
(0.420364 0 0)
(0.422483 0 0)
(0.424601 0 0)
(0.426719 0 0)
(0.428836 0 0)
(0.430953 0 0)
(0.433068 0 0)
(0.435183 0 0)
(0.437297 0 0)
(0.439411 0 0)
(0.441523 0 0)
(0.443635 0 0)
(0.445746 0 0)
(0.447857 0 0)
(0.449967 0 0)
(0.452075 0 0)
(0.454184 0 0)
(0.456291 0 0)
(0.458397 0 0)
(0.460503 0 0)
(0.462608 0 0)
(0.464712 0 0)
(0.466816 0 0)
(0.468918 0 0)
(0.47102 0 0)
(0.473121 0 0)
(0.475221 0 0)
(0.47732 0 0)
(0.479418 0 0)
(0.481516 0 0)
(0.483613 0 0)
(0.485708 0 0)
(0.487803 0 0)
(0.489897 0 0)
(0.49199 0 0)
(0.494083 0 0)
(0.496174 0 0)
(0.498265 0 0)
(0.500354 0 0)
(0.502443 0 0)
(0.504531 0 0)
(0.506617 0 0)
(0.508703 0 0)
(0.510788 0 0)
(0.512872 0 0)
(0.514955 0 0)
(0.517037 0 0)
(0.519118 0 0)
(0.521199 0 0)
(0.523278 0 0)
(0.525356 0 0)
(0.527433 0 0)
(0.529509 0 0)
(0.531584 0 0)
(0.533659 0 0)
(0.535732 0 0)
(0.537804 0 0)
(0.539875 0 0)
(0.541945 0 0)
(0.544014 0 0)
(0.546082 0 0)
(0.548149 0 0)
(0.550214 0 0)
(0.552279 0 0)
(0.554343 0 0)
(0.556405 0 0)
(0.558467 0 0)
(0.560527 0 0)
(0.562586 0 0)
(0.564644 0 0)
(0.566701 0 0)
(0.568757 0 0)
(0.570811 0 0)
(0.572865 0 0)
(0.574917 0 0)
(0.576968 0 0)
(0.579018 0 0)
(0.581067 0 0)
(0.583114 0 0)
(0.58516 0 0)
(0.587205 0 0)
(0.589249 0 0)
(0.591292 0 0)
(0.593333 0 0)
(0.595373 0 0)
(0.597412 0 0)
(0.59945 0 0)
(0.601486 0 0)
(0.603521 0 0)
(0.605554 0 0)
(0.607587 0 0)
(0.609618 0 0)
(0.611648 0 0)
(0.613676 0 0)
(0.615703 0 0)
(0.617728 0 0)
(0.619753 0 0)
(0.621776 0 0)
(0.623797 0 0)
(0.625817 0 0)
(0.627836 0 0)
(0.629853 0 0)
(0.631869 0 0)
(0.633883 0 0)
(0.635896 0 0)
(0.637908 0 0)
(0.639917 0 0)
(0.641926 0 0)
(0.643933 0 0)
(0.645938 0 0)
(0.647942 0 0)
(0.649945 0 0)
(0.651946 0 0)
(0.653945 0 0)
(0.655943 0 0)
(0.657939 0 0)
(0.659933 0 0)
(0.661926 0 0)
(0.663917 0 0)
(0.665907 0 0)
(0.667895 0 0)
(0.669882 0 0)
(0.671866 0 0)
(0.673849 0 0)
(0.675831 0 0)
(0.67781 0 0)
(0.679788 0 0)
(0.681764 0 0)
(0.683739 0 0)
(0.685711 0 0)
(0.687682 0 0)
(0.689651 0 0)
(0.691619 0 0)
(0.693584 0 0)
(0.695548 0 0)
(0.69751 0 0)
(0.699469 0 0)
(0.701427 0 0)
(0.703384 0 0)
(0.705338 0 0)
(0.70729 0 0)
(0.70924 0 0)
(0.711189 0 0)
(0.713135 0 0)
(0.71508 0 0)
(0.717022 0 0)
(0.718962 0 0)
(0.720901 0 0)
(0.722837 0 0)
(0.724771 0 0)
(0.726703 0 0)
(0.728633 0 0)
(0.730561 0 0)
(0.732487 0 0)
(0.734411 0 0)
(0.736332 0 0)
(0.738251 0 0)
(0.740168 0 0)
(0.742083 0 0)
(0.743995 0 0)
(0.745906 0 0)
(0.747813 0 0)
(0.749719 0 0)
(0.751622 0 0)
(0.753523 0 0)
(0.755421 0 0)
(0.757318 0 0)
(0.759211 0 0)
(0.761102 0 0)
(0.762991 0 0)
(0.764877 0 0)
(0.766761 0 0)
(0.768642 0 0)
(0.770521 0 0)
(0.772397 0 0)
(0.77427 0 0)
(0.776141 0 0)
(0.778009 0 0)
(0.779875 0 0)
(0.781737 0 0)
(0.783597 0 0)
(0.785455 0 0)
(0.787309 0 0)
(0.789161 0 0)
(0.79101 0 0)
(0.792856 0 0)
(0.794699 0 0)
(0.796539 0 0)
(0.798376 0 0)
(0.80021 0 0)
(0.802041 0 0)
(0.803869 0 0)
(0.805694 0 0)
(0.807516 0 0)
(0.809335 0 0)
(0.811151 0 0)
(0.812963 0 0)
(0.814773 0 0)
(0.816579 0 0)
(0.818381 0 0)
(0.820181 0 0)
(0.821977 0 0)
(0.823764 0 0)
(0.825809 0 0)
(0.808085 0 0)
(0.431105 0 0)
(-0.429857 0 0)
(-0.807927 0 0)
(-0.825808 0 0)
(-0.823762 0 0)
(-0.821974 0 0)
(-0.820178 0 0)
(-0.818379 0 0)
(-0.816576 0 0)
(-0.81477 0 0)
(-0.812961 0 0)
(-0.811148 0 0)
(-0.809333 0 0)
(-0.807514 0 0)
(-0.805692 0 0)
(-0.803867 0 0)
(-0.802039 0 0)
(-0.800208 0 0)
(-0.798373 0 0)
(-0.796536 0 0)
(-0.794696 0 0)
(-0.792853 0 0)
(-0.791007 0 0)
(-0.789158 0 0)
(-0.787307 0 0)
(-0.785452 0 0)
(-0.783595 0 0)
(-0.781735 0 0)
(-0.779872 0 0)
(-0.778007 0 0)
(-0.776139 0 0)
(-0.774268 0 0)
(-0.772395 0 0)
(-0.770518 0 0)
(-0.76864 0 0)
(-0.766759 0 0)
(-0.764875 0 0)
(-0.762989 0 0)
(-0.7611 0 0)
(-0.759209 0 0)
(-0.757315 0 0)
(-0.755419 0 0)
(-0.753521 0 0)
(-0.75162 0 0)
(-0.749717 0 0)
(-0.747811 0 0)
(-0.745903 0 0)
(-0.743993 0 0)
(-0.742081 0 0)
(-0.740166 0 0)
(-0.738249 0 0)
(-0.73633 0 0)
(-0.734408 0 0)
(-0.732485 0 0)
(-0.730559 0 0)
(-0.728631 0 0)
(-0.726701 0 0)
(-0.724769 0 0)
(-0.722835 0 0)
(-0.720898 0 0)
(-0.71896 0 0)
(-0.71702 0 0)
(-0.715077 0 0)
(-0.713133 0 0)
(-0.711187 0 0)
(-0.709238 0 0)
(-0.707288 0 0)
(-0.705336 0 0)
(-0.703381 0 0)
(-0.701425 0 0)
(-0.699467 0 0)
(-0.697507 0 0)
(-0.695546 0 0)
(-0.693582 0 0)
(-0.691616 0 0)
(-0.689649 0 0)
(-0.68768 0 0)
(-0.685709 0 0)
(-0.683737 0 0)
(-0.681762 0 0)
(-0.679786 0 0)
(-0.677808 0 0)
(-0.675829 0 0)
(-0.673847 0 0)
(-0.671864 0 0)
(-0.669879 0 0)
(-0.667893 0 0)
(-0.665905 0 0)
(-0.663915 0 0)
(-0.661924 0 0)
(-0.659931 0 0)
(-0.657937 0 0)
(-0.65594 0 0)
(-0.653943 0 0)
(-0.651943 0 0)
(-0.649943 0 0)
(-0.64794 0 0)
(-0.645936 0 0)
(-0.643931 0 0)
(-0.641924 0 0)
(-0.639915 0 0)
(-0.637906 0 0)
(-0.635894 0 0)
(-0.633881 0 0)
(-0.631867 0 0)
(-0.629851 0 0)
(-0.627834 0 0)
(-0.625815 0 0)
(-0.623795 0 0)
(-0.621774 0 0)
(-0.619751 0 0)
(-0.617727 0 0)
(-0.615701 0 0)
(-0.613674 0 0)
(-0.611646 0 0)
(-0.609616 0 0)
(-0.607585 0 0)
(-0.605553 0 0)
(-0.603519 0 0)
(-0.601484 0 0)
(-0.599448 0 0)
(-0.59741 0 0)
(-0.595371 0 0)
(-0.593331 0 0)
(-0.59129 0 0)
(-0.589247 0 0)
(-0.587204 0 0)
(-0.585159 0 0)
(-0.583112 0 0)
(-0.581065 0 0)
(-0.579016 0 0)
(-0.576966 0 0)
(-0.574915 0 0)
(-0.572863 0 0)
(-0.57081 0 0)
(-0.568755 0 0)
(-0.566699 0 0)
(-0.564642 0 0)
(-0.562584 0 0)
(-0.560525 0 0)
(-0.558465 0 0)
(-0.556404 0 0)
(-0.554341 0 0)
(-0.552277 0 0)
(-0.550213 0 0)
(-0.548147 0 0)
(-0.54608 0 0)
(-0.544012 0 0)
(-0.541943 0 0)
(-0.539873 0 0)
(-0.537802 0 0)
(-0.53573 0 0)
(-0.533657 0 0)
(-0.531583 0 0)
(-0.529508 0 0)
(-0.527432 0 0)
(-0.525354 0 0)
(-0.523276 0 0)
(-0.521197 0 0)
(-0.519117 0 0)
(-0.517036 0 0)
(-0.514954 0 0)
(-0.512871 0 0)
(-0.510787 0 0)
(-0.508702 0 0)
(-0.506616 0 0)
(-0.504529 0 0)
(-0.502441 0 0)
(-0.500353 0 0)
(-0.498263 0 0)
(-0.496173 0 0)
(-0.494081 0 0)
(-0.491989 0 0)
(-0.489896 0 0)
(-0.487802 0 0)
(-0.485707 0 0)
(-0.483611 0 0)
(-0.481515 0 0)
(-0.479417 0 0)
(-0.477319 0 0)
(-0.47522 0 0)
(-0.47312 0 0)
(-0.471019 0 0)
(-0.468917 0 0)
(-0.466814 0 0)
(-0.464711 0 0)
(-0.462607 0 0)
(-0.460502 0 0)
(-0.458396 0 0)
(-0.45629 0 0)
(-0.454182 0 0)
(-0.452074 0 0)
(-0.449965 0 0)
(-0.447856 0 0)
(-0.445745 0 0)
(-0.443634 0 0)
(-0.441522 0 0)
(-0.43941 0 0)
(-0.437296 0 0)
(-0.435182 0 0)
(-0.433067 0 0)
(-0.430951 0 0)
(-0.428835 0 0)
(-0.426718 0 0)
(-0.4246 0 0)
(-0.422482 0 0)
(-0.420363 0 0)
(-0.418243 0 0)
(-0.416122 0 0)
(-0.414001 0 0)
(-0.411879 0 0)
(-0.409756 0 0)
(-0.407633 0 0)
(-0.405509 0 0)
(-0.403384 0 0)
(-0.401259 0 0)
(-0.399133 0 0)
(-0.397007 0 0)
(-0.39488 0 0)
(-0.392752 0 0)
(-0.390623 0 0)
(-0.388494 0 0)
(-0.386364 0 0)
(-0.384234 0 0)
(-0.382103 0 0)
(-0.379971 0 0)
(-0.377839 0 0)
(-0.375706 0 0)
(-0.373573 0 0)
(-0.371439 0 0)
(-0.369305 0 0)
(-0.367169 0 0)
(-0.365034 0 0)
(-0.362897 0 0)
(-0.360761 0 0)
(-0.358623 0 0)
(-0.356485 0 0)
(-0.354347 0 0)
(-0.352208 0 0)
(-0.350068 0 0)
(-0.347928 0 0)
(-0.345787 0 0)
(-0.343646 0 0)
(-0.341504 0 0)
(-0.339362 0 0)
(-0.337219 0 0)
(-0.335076 0 0)
(-0.332932 0 0)
(-0.330787 0 0)
(-0.328642 0 0)
(-0.326497 0 0)
(-0.324351 0 0)
(-0.322205 0 0)
(-0.320058 0 0)
(-0.317911 0 0)
(-0.315763 0 0)
(-0.313615 0 0)
(-0.311466 0 0)
(-0.309317 0 0)
(-0.307167 0 0)
(-0.305017 0 0)
(-0.302866 0 0)
(-0.300715 0 0)
(-0.298564 0 0)
(-0.296412 0 0)
(-0.294259 0 0)
(-0.292106 0 0)
(-0.289953 0 0)
(-0.287799 0 0)
(-0.285645 0 0)
(-0.283491 0 0)
(-0.281336 0 0)
(-0.27918 0 0)
(-0.277025 0 0)
(-0.274868 0 0)
(-0.272712 0 0)
(-0.270555 0 0)
(-0.268397 0 0)
(-0.26624 0 0)
(-0.264081 0 0)
(-0.261923 0 0)
(-0.259764 0 0)
(-0.257605 0 0)
(-0.255445 0 0)
(-0.253285 0 0)
(-0.251124 0 0)
(-0.248964 0 0)
(-0.246802 0 0)
(-0.244641 0 0)
(-0.242479 0 0)
(-0.240317 0 0)
(-0.238154 0 0)
(-0.235991 0 0)
(-0.233828 0 0)
(-0.231665 0 0)
(-0.229501 0 0)
(-0.227336 0 0)
(-0.225172 0 0)
(-0.223007 0 0)
(-0.220842 0 0)
(-0.218676 0 0)
(-0.21651 0 0)
(-0.214344 0 0)
(-0.212178 0 0)
(-0.210011 0 0)
(-0.207844 0 0)
(-0.205677 0 0)
(-0.203509 0 0)
(-0.201341 0 0)
(-0.199173 0 0)
(-0.197005 0 0)
(-0.194836 0 0)
(-0.192667 0 0)
(-0.190498 0 0)
(-0.188328 0 0)
(-0.186158 0 0)
(-0.183988 0 0)
(-0.181818 0 0)
(-0.179647 0 0)
(-0.177476 0 0)
(-0.175305 0 0)
(-0.173134 0 0)
(-0.170962 0 0)
(-0.16879 0 0)
(-0.166618 0 0)
(-0.164446 0 0)
(-0.162274 0 0)
(-0.160101 0 0)
(-0.157928 0 0)
(-0.155755 0 0)
(-0.153581 0 0)
(-0.151408 0 0)
(-0.149234 0 0)
(-0.14706 0 0)
(-0.144886 0 0)
(-0.142711 0 0)
(-0.140536 0 0)
(-0.138362 0 0)
(-0.136187 0 0)
(-0.134011 0 0)
(-0.131836 0 0)
(-0.12966 0 0)
(-0.127485 0 0)
(-0.125309 0 0)
(-0.123133 0 0)
(-0.120956 0 0)
(-0.11878 0 0)
(-0.116603 0 0)
(-0.114427 0 0)
(-0.11225 0 0)
(-0.110073 0 0)
(-0.107896 0 0)
(-0.105718 0 0)
(-0.103541 0 0)
(-0.101363 0 0)
(-0.0991852 0 0)
(-0.0970073 0 0)
(-0.0948293 0 0)
(-0.0926511 0 0)
(-0.0904728 0 0)
(-0.0882944 0 0)
(-0.0861158 0 0)
(-0.0839372 0 0)
(-0.0817584 0 0)
(-0.0795795 0 0)
(-0.0774005 0 0)
(-0.0752214 0 0)
(-0.0730422 0 0)
(-0.0708629 0 0)
(-0.0686835 0 0)
(-0.066504 0 0)
(-0.0643244 0 0)
(-0.0621447 0 0)
(-0.0599649 0 0)
(-0.0577851 0 0)
(-0.0556052 0 0)
(-0.0534252 0 0)
(-0.0512451 0 0)
(-0.049065 0 0)
(-0.0468848 0 0)
(-0.0447045 0 0)
(-0.0425242 0 0)
(-0.0403438 0 0)
(-0.0381634 0 0)
(-0.0359829 0 0)
(-0.0338024 0 0)
(-0.0316218 0 0)
(-0.0294411 0 0)
(-0.0272605 0 0)
(-0.0250798 0 0)
(-0.022899 0 0)
(-0.0207183 0 0)
(-0.0185375 0 0)
(-0.0163567 0 0)
(-0.0141758 0 0)
(-0.011995 0 0)
(-0.00981407 0 0)
(-0.00763318 0 0)
(-0.00545228 0 0)
(-0.00327137 0 0)
(-0.00109046 0 0)
)
;

boundaryField
{
    left
    {
        type            fixedValue;
        value           uniform (0 0 0);
    }
    right
    {
        type            fixedValue;
        value           uniform (0 0 0);
    }
    frontBackUpDown
    {
        type            empty;
    }
}


// ************************************************************************* //
