/*--------------------------------*- C++ -*----------------------------------*\
| =========                 |                                                 |
| \\      /  F ield         | OpenFOAM: The Open Source CFD Toolbox           |
|  \\    /   O peration     | Version:  2412                                  |
|   \\  /    A nd           | Website:  www.openfoam.com                      |
|    \\/     M anipulation  |                                                 |
\*---------------------------------------------------------------------------*/
FoamFile
{
    version     2.0;
    format      ascii;
    arch        "LSB;label=32;scalar=64";
    class       surfaceScalarField;
    location    "0.53";
    object      phi;
}
// * * * * * * * * * * * * * * * * * * * * * * * * * * * * * * * * * * * * * //

dimensions      [0 3 -1 0 0 0 0];

oriented        oriented;

internalField   nonuniform List<scalar> 
799
(
2.94841e-05
5.89682e-05
8.84522e-05
0.000117936
0.000147419
0.000176902
0.000206384
0.000235866
0.000265347
0.000294826
0.000324305
0.000353783
0.00038326
0.000412735
0.000442209
0.000471682
0.000501153
0.000530622
0.00056009
0.000589555
0.000619019
0.000648481
0.00067794
0.000707398
0.000736853
0.000766305
0.000795755
0.000825202
0.000854647
0.000884088
0.000913527
0.000942963
0.000972395
0.00100182
0.00103125
0.00106067
0.00109009
0.00111951
0.00114892
0.00117833
0.00120773
0.00123713
0.00126653
0.00129592
0.0013253
0.00135469
0.00138406
0.00141344
0.00144281
0.00147217
0.00150153
0.00153088
0.00156023
0.00158957
0.00161891
0.00164824
0.00167757
0.00170689
0.0017362
0.00176551
0.00179482
0.00182411
0.00185341
0.00188269
0.00191197
0.00194124
0.0019705
0.00199976
0.00202901
0.00205826
0.00208749
0.00211672
0.00214595
0.00217516
0.00220437
0.00223357
0.00226276
0.00229195
0.00232112
0.00235029
0.00237945
0.0024086
0.00243775
0.00246688
0.00249601
0.00252512
0.00255423
0.00258333
0.00261242
0.0026415
0.00267058
0.00269964
0.00272869
0.00275773
0.00278677
0.00281579
0.0028448
0.00287381
0.0029028
0.00293178
0.00296075
0.00298971
0.00301866
0.0030476
0.00307653
0.00310545
0.00313436
0.00316325
0.00319213
0.003221
0.00324986
0.00327871
0.00330755
0.00333637
0.00336518
0.00339398
0.00342277
0.00345154
0.0034803
0.00350905
0.00353778
0.0035665
0.00359521
0.00362391
0.00365259
0.00368125
0.00370991
0.00373855
0.00376717
0.00379578
0.00382438
0.00385296
0.00388152
0.00391008
0.00393861
0.00396713
0.00399564
0.00402413
0.00405261
0.00408106
0.00410951
0.00413793
0.00416634
0.00419474
0.00422312
0.00425148
0.00427982
0.00430815
0.00433646
0.00436475
0.00439303
0.00442128
0.00444952
0.00447775
0.00450595
0.00453413
0.0045623
0.00459045
0.00461858
0.00464669
0.00467478
0.00470285
0.0047309
0.00475893
0.00478695
0.00481494
0.00484291
0.00487086
0.00489879
0.0049267
0.00495459
0.00498246
0.00501031
0.00503813
0.00506594
0.00509372
0.00512148
0.00514922
0.00517693
0.00520462
0.00523229
0.00525994
0.00528756
0.00531516
0.00534274
0.00537029
0.00539781
0.00542532
0.0054528
0.00548025
0.00550768
0.00553508
0.00556246
0.00558981
0.00561714
0.00564444
0.00567171
0.00569896
0.00572618
0.00575338
0.00578054
0.00580768
0.00583479
0.00586187
0.00588893
0.00591596
0.00594295
0.00596992
0.00599686
0.00602377
0.00605065
0.0060775
0.00610432
0.00613111
0.00615787
0.00618459
0.00621129
0.00623795
0.00626459
0.00629118
0.00631775
0.00634429
0.00637079
0.00639725
0.00642369
0.00645009
0.00647645
0.00650279
0.00652908
0.00655534
0.00658157
0.00660776
0.00663391
0.00666002
0.0066861
0.00671215
0.00673815
0.00676412
0.00679005
0.00681593
0.00684179
0.0068676
0.00689337
0.0069191
0.00694479
0.00697044
0.00699605
0.00702162
0.00704714
0.00707262
0.00709806
0.00712346
0.00714881
0.00717412
0.00719938
0.0072246
0.00724978
0.00727491
0.00729999
0.00732502
0.00735001
0.00737495
0.00739984
0.00742469
0.00744948
0.00747423
0.00749892
0.00752357
0.00754816
0.0075727
0.00759719
0.00762163
0.00764601
0.00767034
0.00769462
0.00771884
0.007743
0.00776711
0.00779117
0.00781516
0.0078391
0.00786298
0.0078868
0.00791056
0.00793427
0.00795791
0.00798148
0.008005
0.00802845
0.00805184
0.00807517
0.00809843
0.00812163
0.00814475
0.00816782
0.00819081
0.00821373
0.00823659
0.00825937
0.00828209
0.00830473
0.0083273
0.00834979
0.00837221
0.00839456
0.00841683
0.00843902
0.00846113
0.00848316
0.00850512
0.00852699
0.00854878
0.00857049
0.00859212
0.00861365
0.00863511
0.00865647
0.00867775
0.00869894
0.00872003
0.00874104
0.00876195
0.00878276
0.00880349
0.00882411
0.00884464
0.00886506
0.00888539
0.00890561
0.00892573
0.00894575
0.00896565
0.00898545
0.00900514
0.00902472
0.00904419
0.00906354
0.00908277
0.00910189
0.00912089
0.00913976
0.00915851
0.00917714
0.00919564
0.00921401
0.00923225
0.00925035
0.00926832
0.00928615
0.00930385
0.00932139
0.0093388
0.00935606
0.00937316
0.00939012
0.00940692
0.00942356
0.00944005
0.00945637
0.00947252
0.0094885
0.00950432
0.00951995
0.00953541
0.00955068
0.00956577
0.00958067
0.00959538
0.00960989
0.0096242
0.0096383
0.0096522
0.00966588
0.00967934
0.00969258
0.00970559
0.00971837
0.00973091
0.00974321
0.00975526
0.00976706
0.00977859
0.00978986
0.00980085
0.00981156
0.00982199
0.00983212
0.00984195
0.00985146
0.00986066
0.00986954
0.00987807
0.00988626
0.00989411
0.00990144
0.0099099
0.00990391
0.0100247
0.00816537
7.16377e-06
-0.00815829
-0.0100248
-0.0099039
-0.0099099
-0.00990143
-0.00989411
-0.00988626
-0.00987807
-0.00986953
-0.00986066
-0.00985146
-0.00984194
-0.00983211
-0.00982198
-0.00981156
-0.00980084
-0.00978985
-0.00977858
-0.00976705
-0.00975525
-0.0097432
-0.00973091
-0.00971836
-0.00970558
-0.00969257
-0.00967933
-0.00966587
-0.00965219
-0.00963829
-0.00962419
-0.00960988
-0.00959537
-0.00958066
-0.00956576
-0.00955067
-0.0095354
-0.00951994
-0.0095043
-0.00948849
-0.00947251
-0.00945635
-0.00944003
-0.00942355
-0.00940691
-0.00939011
-0.00937315
-0.00935604
-0.00933878
-0.00932138
-0.00930383
-0.00928614
-0.00926831
-0.00925034
-0.00923223
-0.00921399
-0.00919562
-0.00917712
-0.0091585
-0.00913974
-0.00912087
-0.00910187
-0.00908275
-0.00906352
-0.00904417
-0.0090247
-0.00900512
-0.00898543
-0.00896563
-0.00894573
-0.00892571
-0.00890559
-0.00888537
-0.00886504
-0.00884462
-0.00882409
-0.00880347
-0.00878274
-0.00876193
-0.00874102
-0.00872001
-0.00869891
-0.00867773
-0.00865645
-0.00863508
-0.00861363
-0.00859209
-0.00857047
-0.00854876
-0.00852697
-0.0085051
-0.00848314
-0.00846111
-0.00843899
-0.0084168
-0.00839453
-0.00837219
-0.00834977
-0.00832727
-0.0083047
-0.00828206
-0.00825935
-0.00823657
-0.00821371
-0.00819079
-0.00816779
-0.00814473
-0.0081216
-0.00809841
-0.00807515
-0.00805182
-0.00802843
-0.00800498
-0.00798146
-0.00795788
-0.00793424
-0.00791054
-0.00788678
-0.00786296
-0.00783908
-0.00781514
-0.00779114
-0.00776709
-0.00774298
-0.00771882
-0.00769459
-0.00767032
-0.00764599
-0.0076216
-0.00759717
-0.00757268
-0.00754814
-0.00752354
-0.0074989
-0.0074742
-0.00744946
-0.00742466
-0.00739982
-0.00737493
-0.00734999
-0.007325
-0.00729997
-0.00727488
-0.00724976
-0.00722458
-0.00719936
-0.0071741
-0.00714879
-0.00712344
-0.00709804
-0.0070726
-0.00704712
-0.00702159
-0.00699603
-0.00697042
-0.00694477
-0.00691908
-0.00689335
-0.00686758
-0.00684176
-0.00681591
-0.00679002
-0.0067641
-0.00673813
-0.00671213
-0.00668608
-0.00666
-0.00663389
-0.00660774
-0.00658155
-0.00655532
-0.00652906
-0.00650276
-0.00647643
-0.00645007
-0.00642367
-0.00639724
-0.00637077
-0.00634427
-0.00631773
-0.00629117
-0.00626457
-0.00623793
-0.00621127
-0.00618457
-0.00615785
-0.00613109
-0.0061043
-0.00607748
-0.00605063
-0.00602375
-0.00599684
-0.0059699
-0.00594294
-0.00591594
-0.00588891
-0.00586186
-0.00583477
-0.00580766
-0.00578052
-0.00575336
-0.00572616
-0.00569894
-0.0056717
-0.00564442
-0.00561712
-0.0055898
-0.00556244
-0.00553507
-0.00550766
-0.00548023
-0.00545278
-0.0054253
-0.0053978
-0.00537027
-0.00534272
-0.00531514
-0.00528755
-0.00525992
-0.00523228
-0.00520461
-0.00517692
-0.0051492
-0.00512146
-0.0050937
-0.00506592
-0.00503812
-0.00501029
-0.00498245
-0.00495458
-0.00492669
-0.00489878
-0.00487085
-0.0048429
-0.00481493
-0.00478693
-0.00475892
-0.00473089
-0.00470284
-0.00467477
-0.00464668
-0.00461857
-0.00459044
-0.00456229
-0.00453412
-0.00450594
-0.00447773
-0.00444951
-0.00442127
-0.00439302
-0.00436474
-0.00433645
-0.00430814
-0.00427981
-0.00425147
-0.00422311
-0.00419473
-0.00416633
-0.00413792
-0.0041095
-0.00408105
-0.0040526
-0.00402412
-0.00399563
-0.00396712
-0.0039386
-0.00391007
-0.00388152
-0.00385295
-0.00382437
-0.00379577
-0.00376716
-0.00373854
-0.0037099
-0.00368125
-0.00365258
-0.0036239
-0.0035952
-0.0035665
-0.00353778
-0.00350904
-0.00348029
-0.00345153
-0.00342276
-0.00339397
-0.00336517
-0.00333636
-0.00330754
-0.00327871
-0.00324986
-0.003221
-0.00319213
-0.00316324
-0.00313435
-0.00310544
-0.00307653
-0.0030476
-0.00301866
-0.00298971
-0.00296075
-0.00293178
-0.00290279
-0.0028738
-0.0028448
-0.00281579
-0.00278676
-0.00275773
-0.00272869
-0.00269963
-0.00267057
-0.0026415
-0.00261242
-0.00258333
-0.00255423
-0.00252512
-0.002496
-0.00246688
-0.00243774
-0.0024086
-0.00237945
-0.00235029
-0.00232112
-0.00229194
-0.00226276
-0.00223357
-0.00220437
-0.00217516
-0.00214594
-0.00211672
-0.00208749
-0.00205825
-0.00202901
-0.00199976
-0.0019705
-0.00194124
-0.00191197
-0.00188269
-0.0018534
-0.00182411
-0.00179482
-0.00176551
-0.0017362
-0.00170689
-0.00167757
-0.00164824
-0.00161891
-0.00158957
-0.00156023
-0.00153088
-0.00150153
-0.00147217
-0.0014428
-0.00141344
-0.00138406
-0.00135468
-0.0013253
-0.00129592
-0.00126652
-0.00123713
-0.00120773
-0.00117833
-0.00114892
-0.00111951
-0.00109009
-0.00106067
-0.00103125
-0.00100182
-0.000972395
-0.000942962
-0.000913527
-0.000884088
-0.000854646
-0.000825202
-0.000795755
-0.000766305
-0.000736852
-0.000707397
-0.00067794
-0.000648481
-0.000619019
-0.000589555
-0.00056009
-0.000530622
-0.000501153
-0.000471682
-0.000442209
-0.000412735
-0.00038326
-0.000353783
-0.000324305
-0.000294827
-0.000265347
-0.000235866
-0.000206384
-0.000176902
-0.000147419
-0.000117936
-8.84524e-05
-5.89684e-05
-2.94843e-05
)
;

boundaryField
{
    left
    {
        type            calculated;
        value           uniform 0;
    }
    right
    {
        type            calculated;
        value           uniform 0;
    }
    frontBackUpDown
    {
        type            empty;
    }
}


// ************************************************************************* //
