/*--------------------------------*- C++ -*----------------------------------*\
| =========                 |                                                 |
| \\      /  F ield         | OpenFOAM: The Open Source CFD Toolbox           |
|  \\    /   O peration     | Version:  2412                                  |
|   \\  /    A nd           | Website:  www.openfoam.com                      |
|    \\/     M anipulation  |                                                 |
\*---------------------------------------------------------------------------*/
FoamFile
{
    version     2.0;
    format      ascii;
    arch        "LSB;label=32;scalar=64";
    class       volVectorField;
    location    "0.53";
    object      U_0_0;
}
// * * * * * * * * * * * * * * * * * * * * * * * * * * * * * * * * * * * * * //

dimensions      [0 1 -1 0 0 0 0];

internalField   nonuniform List<vector> 
800
(
(0.00147594 0 0)
(0.00442783 0 0)
(0.00737972 0 0)
(0.0103316 0 0)
(0.0132834 0 0)
(0.0162352 0 0)
(0.0191869 0 0)
(0.0221386 0 0)
(0.0250902 0 0)
(0.0280417 0 0)
(0.0309931 0 0)
(0.0339444 0 0)
(0.0368956 0 0)
(0.0398467 0 0)
(0.0427976 0 0)
(0.0457484 0 0)
(0.0486991 0 0)
(0.0516496 0 0)
(0.0545999 0 0)
(0.05755 0 0)
(0.0605 0 0)
(0.0634497 0 0)
(0.0663992 0 0)
(0.0693485 0 0)
(0.0722976 0 0)
(0.0752464 0 0)
(0.078195 0 0)
(0.0811433 0 0)
(0.0840914 0 0)
(0.0870392 0 0)
(0.0899866 0 0)
(0.0929338 0 0)
(0.0958807 0 0)
(0.0988272 0 0)
(0.101773 0 0)
(0.104719 0 0)
(0.107665 0 0)
(0.11061 0 0)
(0.113555 0 0)
(0.116499 0 0)
(0.119443 0 0)
(0.122387 0 0)
(0.12533 0 0)
(0.128273 0 0)
(0.131215 0 0)
(0.134157 0 0)
(0.137098 0 0)
(0.140039 0 0)
(0.14298 0 0)
(0.14592 0 0)
(0.148859 0 0)
(0.151798 0 0)
(0.154737 0 0)
(0.157675 0 0)
(0.160612 0 0)
(0.163549 0 0)
(0.166486 0 0)
(0.169421 0 0)
(0.172357 0 0)
(0.175291 0 0)
(0.178225 0 0)
(0.181159 0 0)
(0.184091 0 0)
(0.187024 0 0)
(0.189955 0 0)
(0.192886 0 0)
(0.195816 0 0)
(0.198746 0 0)
(0.201674 0 0)
(0.204603 0 0)
(0.20753 0 0)
(0.210457 0 0)
(0.213383 0 0)
(0.216308 0 0)
(0.219232 0 0)
(0.222156 0 0)
(0.225079 0 0)
(0.228001 0 0)
(0.230923 0 0)
(0.233843 0 0)
(0.236763 0 0)
(0.239682 0 0)
(0.2426 0 0)
(0.245517 0 0)
(0.248433 0 0)
(0.251349 0 0)
(0.254264 0 0)
(0.257177 0 0)
(0.26009 0 0)
(0.263002 0 0)
(0.265913 0 0)
(0.268823 0 0)
(0.271732 0 0)
(0.27464 0 0)
(0.277547 0 0)
(0.280453 0 0)
(0.283358 0 0)
(0.286262 0 0)
(0.289165 0 0)
(0.292067 0 0)
(0.294968 0 0)
(0.297868 0 0)
(0.300767 0 0)
(0.303665 0 0)
(0.306561 0 0)
(0.309457 0 0)
(0.312351 0 0)
(0.315244 0 0)
(0.318136 0 0)
(0.321027 0 0)
(0.323917 0 0)
(0.326806 0 0)
(0.329693 0 0)
(0.332579 0 0)
(0.335464 0 0)
(0.338348 0 0)
(0.34123 0 0)
(0.344111 0 0)
(0.346991 0 0)
(0.349869 0 0)
(0.352747 0 0)
(0.355623 0 0)
(0.358497 0 0)
(0.36137 0 0)
(0.364242 0 0)
(0.367113 0 0)
(0.369982 0 0)
(0.372849 0 0)
(0.375716 0 0)
(0.37858 0 0)
(0.381444 0 0)
(0.384306 0 0)
(0.387166 0 0)
(0.390025 0 0)
(0.392883 0 0)
(0.395738 0 0)
(0.398593 0 0)
(0.401446 0 0)
(0.404297 0 0)
(0.407147 0 0)
(0.409995 0 0)
(0.412841 0 0)
(0.415686 0 0)
(0.418529 0 0)
(0.421371 0 0)
(0.424211 0 0)
(0.427049 0 0)
(0.429885 0 0)
(0.43272 0 0)
(0.435553 0 0)
(0.438384 0 0)
(0.441214 0 0)
(0.444042 0 0)
(0.446868 0 0)
(0.449692 0 0)
(0.452514 0 0)
(0.455334 0 0)
(0.458153 0 0)
(0.46097 0 0)
(0.463784 0 0)
(0.466597 0 0)
(0.469408 0 0)
(0.472217 0 0)
(0.475024 0 0)
(0.477829 0 0)
(0.480632 0 0)
(0.483433 0 0)
(0.486232 0 0)
(0.489029 0 0)
(0.491824 0 0)
(0.494616 0 0)
(0.497407 0 0)
(0.500195 0 0)
(0.502982 0 0)
(0.505766 0 0)
(0.508548 0 0)
(0.511327 0 0)
(0.514105 0 0)
(0.51688 0 0)
(0.519653 0 0)
(0.522424 0 0)
(0.525192 0 0)
(0.527958 0 0)
(0.530722 0 0)
(0.533483 0 0)
(0.536242 0 0)
(0.538998 0 0)
(0.541752 0 0)
(0.544504 0 0)
(0.547253 0 0)
(0.55 0 0)
(0.552744 0 0)
(0.555485 0 0)
(0.558224 0 0)
(0.560961 0 0)
(0.563694 0 0)
(0.566425 0 0)
(0.569154 0 0)
(0.57188 0 0)
(0.574603 0 0)
(0.577323 0 0)
(0.580041 0 0)
(0.582755 0 0)
(0.585467 0 0)
(0.588177 0 0)
(0.590883 0 0)
(0.593586 0 0)
(0.596287 0 0)
(0.598984 0 0)
(0.601679 0 0)
(0.604371 0 0)
(0.607059 0 0)
(0.609745 0 0)
(0.612428 0 0)
(0.615107 0 0)
(0.617783 0 0)
(0.620457 0 0)
(0.623127 0 0)
(0.625793 0 0)
(0.628457 0 0)
(0.631117 0 0)
(0.633775 0 0)
(0.636428 0 0)
(0.639079 0 0)
(0.641726 0 0)
(0.644369 0 0)
(0.647009 0 0)
(0.649646 0 0)
(0.652279 0 0)
(0.654909 0 0)
(0.657535 0 0)
(0.660158 0 0)
(0.662777 0 0)
(0.665392 0 0)
(0.668003 0 0)
(0.670611 0 0)
(0.673215 0 0)
(0.675815 0 0)
(0.678412 0 0)
(0.681004 0 0)
(0.683593 0 0)
(0.686178 0 0)
(0.688758 0 0)
(0.691335 0 0)
(0.693908 0 0)
(0.696476 0 0)
(0.699041 0 0)
(0.701601 0 0)
(0.704157 0 0)
(0.706709 0 0)
(0.709256 0 0)
(0.711799 0 0)
(0.714338 0 0)
(0.716873 0 0)
(0.719403 0 0)
(0.721928 0 0)
(0.724449 0 0)
(0.726965 0 0)
(0.729477 0 0)
(0.731984 0 0)
(0.734486 0 0)
(0.736984 0 0)
(0.739476 0 0)
(0.741964 0 0)
(0.744447 0 0)
(0.746925 0 0)
(0.749398 0 0)
(0.751866 0 0)
(0.754329 0 0)
(0.756786 0 0)
(0.759239 0 0)
(0.761686 0 0)
(0.764128 0 0)
(0.766564 0 0)
(0.768995 0 0)
(0.771421 0 0)
(0.773841 0 0)
(0.776255 0 0)
(0.778664 0 0)
(0.781067 0 0)
(0.783464 0 0)
(0.785856 0 0)
(0.788241 0 0)
(0.790621 0 0)
(0.792994 0 0)
(0.795361 0 0)
(0.797723 0 0)
(0.800078 0 0)
(0.802426 0 0)
(0.804769 0 0)
(0.807105 0 0)
(0.809434 0 0)
(0.811757 0 0)
(0.814073 0 0)
(0.816383 0 0)
(0.818685 0 0)
(0.820981 0 0)
(0.82327 0 0)
(0.825552 0 0)
(0.827826 0 0)
(0.830094 0 0)
(0.832354 0 0)
(0.834607 0 0)
(0.836852 0 0)
(0.83909 0 0)
(0.84132 0 0)
(0.843542 0 0)
(0.845757 0 0)
(0.847963 0 0)
(0.850162 0 0)
(0.852353 0 0)
(0.854535 0 0)
(0.856709 0 0)
(0.858875 0 0)
(0.861032 0 0)
(0.86318 0 0)
(0.86532 0 0)
(0.867451 0 0)
(0.869573 0 0)
(0.871686 0 0)
(0.873789 0 0)
(0.875884 0 0)
(0.877969 0 0)
(0.880044 0 0)
(0.882109 0 0)
(0.884165 0 0)
(0.886211 0 0)
(0.888247 0 0)
(0.890272 0 0)
(0.892287 0 0)
(0.894292 0 0)
(0.896286 0 0)
(0.898269 0 0)
(0.900241 0 0)
(0.902202 0 0)
(0.904152 0 0)
(0.90609 0 0)
(0.908017 0 0)
(0.909932 0 0)
(0.911834 0 0)
(0.913725 0 0)
(0.915603 0 0)
(0.917469 0 0)
(0.919322 0 0)
(0.921162 0 0)
(0.922989 0 0)
(0.924803 0 0)
(0.926603 0 0)
(0.928389 0 0)
(0.930162 0 0)
(0.93192 0 0)
(0.933663 0 0)
(0.935392 0 0)
(0.937106 0 0)
(0.938805 0 0)
(0.940488 0 0)
(0.942155 0 0)
(0.943807 0 0)
(0.945442 0 0)
(0.94706 0 0)
(0.948662 0 0)
(0.950246 0 0)
(0.951813 0 0)
(0.953362 0 0)
(0.954893 0 0)
(0.956405 0 0)
(0.957898 0 0)
(0.959372 0 0)
(0.960826 0 0)
(0.96226 0 0)
(0.963674 0 0)
(0.965067 0 0)
(0.966438 0 0)
(0.967788 0 0)
(0.969115 0 0)
(0.97042 0 0)
(0.971701 0 0)
(0.972959 0 0)
(0.974192 0 0)
(0.975401 0 0)
(0.976584 0 0)
(0.97774 0 0)
(0.978871 0 0)
(0.979974 0 0)
(0.981049 0 0)
(0.982095 0 0)
(0.983112 0 0)
(0.984099 0 0)
(0.985054 0 0)
(0.985978 0 0)
(0.98687 0 0)
(0.987727 0 0)
(0.988551 0 0)
(0.989338 0 0)
(0.990093 0 0)
(0.990773 0 0)
(0.991757 0 0)
(0.989538 0 0)
(1.01593 0 0)
(0.617684 0 0)
(-0.616251 0 0)
(-1.01594 0 0)
(-0.989536 0 0)
(-0.991757 0 0)
(-0.990773 0 0)
(-0.990093 0 0)
(-0.989338 0 0)
(-0.98855 0 0)
(-0.987727 0 0)
(-0.986869 0 0)
(-0.985978 0 0)
(-0.985054 0 0)
(-0.984098 0 0)
(-0.983111 0 0)
(-0.982094 0 0)
(-0.981048 0 0)
(-0.979973 0 0)
(-0.97887 0 0)
(-0.97774 0 0)
(-0.976583 0 0)
(-0.9754 0 0)
(-0.974191 0 0)
(-0.972958 0 0)
(-0.9717 0 0)
(-0.970419 0 0)
(-0.969114 0 0)
(-0.967787 0 0)
(-0.966437 0 0)
(-0.965066 0 0)
(-0.963673 0 0)
(-0.962259 0 0)
(-0.960825 0 0)
(-0.959371 0 0)
(-0.957897 0 0)
(-0.956404 0 0)
(-0.954892 0 0)
(-0.953361 0 0)
(-0.951812 0 0)
(-0.950245 0 0)
(-0.948661 0 0)
(-0.947059 0 0)
(-0.94544 0 0)
(-0.943805 0 0)
(-0.942154 0 0)
(-0.940486 0 0)
(-0.938803 0 0)
(-0.937104 0 0)
(-0.935391 0 0)
(-0.933662 0 0)
(-0.931918 0 0)
(-0.93016 0 0)
(-0.928388 0 0)
(-0.926601 0 0)
(-0.924801 0 0)
(-0.922988 0 0)
(-0.921161 0 0)
(-0.91932 0 0)
(-0.917467 0 0)
(-0.915602 0 0)
(-0.913723 0 0)
(-0.911833 0 0)
(-0.90993 0 0)
(-0.908015 0 0)
(-0.906088 0 0)
(-0.90415 0 0)
(-0.9022 0 0)
(-0.900239 0 0)
(-0.898267 0 0)
(-0.896284 0 0)
(-0.89429 0 0)
(-0.892286 0 0)
(-0.89027 0 0)
(-0.888245 0 0)
(-0.886209 0 0)
(-0.884163 0 0)
(-0.882107 0 0)
(-0.880042 0 0)
(-0.877966 0 0)
(-0.875882 0 0)
(-0.873787 0 0)
(-0.871684 0 0)
(-0.869571 0 0)
(-0.867449 0 0)
(-0.865318 0 0)
(-0.863178 0 0)
(-0.86103 0 0)
(-0.858873 0 0)
(-0.856707 0 0)
(-0.854533 0 0)
(-0.852351 0 0)
(-0.85016 0 0)
(-0.847961 0 0)
(-0.845755 0 0)
(-0.84354 0 0)
(-0.841318 0 0)
(-0.839087 0 0)
(-0.83685 0 0)
(-0.834604 0 0)
(-0.832352 0 0)
(-0.830091 0 0)
(-0.827824 0 0)
(-0.825549 0 0)
(-0.823267 0 0)
(-0.820979 0 0)
(-0.818683 0 0)
(-0.81638 0 0)
(-0.814071 0 0)
(-0.811755 0 0)
(-0.809432 0 0)
(-0.807102 0 0)
(-0.804766 0 0)
(-0.802424 0 0)
(-0.800075 0 0)
(-0.79772 0 0)
(-0.795359 0 0)
(-0.792992 0 0)
(-0.790618 0 0)
(-0.788239 0 0)
(-0.785853 0 0)
(-0.783462 0 0)
(-0.781065 0 0)
(-0.778662 0 0)
(-0.776253 0 0)
(-0.773839 0 0)
(-0.771419 0 0)
(-0.768993 0 0)
(-0.766562 0 0)
(-0.764126 0 0)
(-0.761684 0 0)
(-0.759237 0 0)
(-0.756784 0 0)
(-0.754326 0 0)
(-0.751864 0 0)
(-0.749396 0 0)
(-0.746923 0 0)
(-0.744445 0 0)
(-0.741962 0 0)
(-0.739474 0 0)
(-0.736981 0 0)
(-0.734484 0 0)
(-0.731982 0 0)
(-0.729475 0 0)
(-0.726963 0 0)
(-0.724447 0 0)
(-0.721926 0 0)
(-0.7194 0 0)
(-0.71687 0 0)
(-0.714336 0 0)
(-0.711797 0 0)
(-0.709254 0 0)
(-0.706707 0 0)
(-0.704155 0 0)
(-0.701599 0 0)
(-0.699038 0 0)
(-0.696474 0 0)
(-0.693906 0 0)
(-0.691333 0 0)
(-0.688756 0 0)
(-0.686176 0 0)
(-0.683591 0 0)
(-0.681002 0 0)
(-0.67841 0 0)
(-0.675813 0 0)
(-0.673213 0 0)
(-0.670609 0 0)
(-0.668001 0 0)
(-0.66539 0 0)
(-0.662775 0 0)
(-0.660156 0 0)
(-0.657533 0 0)
(-0.654907 0 0)
(-0.652277 0 0)
(-0.649644 0 0)
(-0.647007 0 0)
(-0.644367 0 0)
(-0.641724 0 0)
(-0.639077 0 0)
(-0.636426 0 0)
(-0.633773 0 0)
(-0.631115 0 0)
(-0.628455 0 0)
(-0.625792 0 0)
(-0.623125 0 0)
(-0.620455 0 0)
(-0.617781 0 0)
(-0.615105 0 0)
(-0.612426 0 0)
(-0.609743 0 0)
(-0.607058 0 0)
(-0.604369 0 0)
(-0.601677 0 0)
(-0.598983 0 0)
(-0.596285 0 0)
(-0.593584 0 0)
(-0.590881 0 0)
(-0.588175 0 0)
(-0.585466 0 0)
(-0.582754 0 0)
(-0.580039 0 0)
(-0.577321 0 0)
(-0.574601 0 0)
(-0.571878 0 0)
(-0.569152 0 0)
(-0.566424 0 0)
(-0.563693 0 0)
(-0.560959 0 0)
(-0.558223 0 0)
(-0.555484 0 0)
(-0.552742 0 0)
(-0.549998 0 0)
(-0.547251 0 0)
(-0.544502 0 0)
(-0.541751 0 0)
(-0.538997 0 0)
(-0.53624 0 0)
(-0.533481 0 0)
(-0.53072 0 0)
(-0.527957 0 0)
(-0.525191 0 0)
(-0.522422 0 0)
(-0.519652 0 0)
(-0.516879 0 0)
(-0.514103 0 0)
(-0.511326 0 0)
(-0.508546 0 0)
(-0.505764 0 0)
(-0.50298 0 0)
(-0.500194 0 0)
(-0.497406 0 0)
(-0.494615 0 0)
(-0.491822 0 0)
(-0.489028 0 0)
(-0.486231 0 0)
(-0.483432 0 0)
(-0.480631 0 0)
(-0.477828 0 0)
(-0.475023 0 0)
(-0.472216 0 0)
(-0.469407 0 0)
(-0.466596 0 0)
(-0.463783 0 0)
(-0.460968 0 0)
(-0.458152 0 0)
(-0.455333 0 0)
(-0.452513 0 0)
(-0.449691 0 0)
(-0.446866 0 0)
(-0.444041 0 0)
(-0.441213 0 0)
(-0.438383 0 0)
(-0.435552 0 0)
(-0.432719 0 0)
(-0.429884 0 0)
(-0.427048 0 0)
(-0.42421 0 0)
(-0.42137 0 0)
(-0.418528 0 0)
(-0.415685 0 0)
(-0.41284 0 0)
(-0.409994 0 0)
(-0.407146 0 0)
(-0.404296 0 0)
(-0.401445 0 0)
(-0.398592 0 0)
(-0.395738 0 0)
(-0.392882 0 0)
(-0.390024 0 0)
(-0.387165 0 0)
(-0.384305 0 0)
(-0.381443 0 0)
(-0.37858 0 0)
(-0.375715 0 0)
(-0.372849 0 0)
(-0.369981 0 0)
(-0.367112 0 0)
(-0.364241 0 0)
(-0.36137 0 0)
(-0.358496 0 0)
(-0.355622 0 0)
(-0.352746 0 0)
(-0.349869 0 0)
(-0.34699 0 0)
(-0.34411 0 0)
(-0.341229 0 0)
(-0.338347 0 0)
(-0.335463 0 0)
(-0.332578 0 0)
(-0.329692 0 0)
(-0.326805 0 0)
(-0.323916 0 0)
(-0.321027 0 0)
(-0.318136 0 0)
(-0.315244 0 0)
(-0.31235 0 0)
(-0.309456 0 0)
(-0.306561 0 0)
(-0.303664 0 0)
(-0.300766 0 0)
(-0.297868 0 0)
(-0.294968 0 0)
(-0.292067 0 0)
(-0.289165 0 0)
(-0.286262 0 0)
(-0.283358 0 0)
(-0.280453 0 0)
(-0.277547 0 0)
(-0.274639 0 0)
(-0.271731 0 0)
(-0.268822 0 0)
(-0.265912 0 0)
(-0.263001 0 0)
(-0.26009 0 0)
(-0.257177 0 0)
(-0.254263 0 0)
(-0.251349 0 0)
(-0.248433 0 0)
(-0.245517 0 0)
(-0.2426 0 0)
(-0.239681 0 0)
(-0.236763 0 0)
(-0.233843 0 0)
(-0.230922 0 0)
(-0.228001 0 0)
(-0.225079 0 0)
(-0.222156 0 0)
(-0.219232 0 0)
(-0.216308 0 0)
(-0.213382 0 0)
(-0.210456 0 0)
(-0.20753 0 0)
(-0.204602 0 0)
(-0.201674 0 0)
(-0.198745 0 0)
(-0.195816 0 0)
(-0.192886 0 0)
(-0.189955 0 0)
(-0.187023 0 0)
(-0.184091 0 0)
(-0.181158 0 0)
(-0.178225 0 0)
(-0.175291 0 0)
(-0.172356 0 0)
(-0.169421 0 0)
(-0.166485 0 0)
(-0.163549 0 0)
(-0.160612 0 0)
(-0.157675 0 0)
(-0.154737 0 0)
(-0.151798 0 0)
(-0.148859 0 0)
(-0.14592 0 0)
(-0.14298 0 0)
(-0.140039 0 0)
(-0.137098 0 0)
(-0.134157 0 0)
(-0.131215 0 0)
(-0.128273 0 0)
(-0.12533 0 0)
(-0.122387 0 0)
(-0.119443 0 0)
(-0.116499 0 0)
(-0.113555 0 0)
(-0.11061 0 0)
(-0.107665 0 0)
(-0.104719 0 0)
(-0.101773 0 0)
(-0.0988271 0 0)
(-0.0958806 0 0)
(-0.0929337 0 0)
(-0.0899866 0 0)
(-0.0870391 0 0)
(-0.0840913 0 0)
(-0.0811433 0 0)
(-0.078195 0 0)
(-0.0752464 0 0)
(-0.0722976 0 0)
(-0.0693485 0 0)
(-0.0663992 0 0)
(-0.0634497 0 0)
(-0.0604999 0 0)
(-0.05755 0 0)
(-0.0545999 0 0)
(-0.0516496 0 0)
(-0.0486991 0 0)
(-0.0457484 0 0)
(-0.0427976 0 0)
(-0.0398467 0 0)
(-0.0368956 0 0)
(-0.0339444 0 0)
(-0.0309931 0 0)
(-0.0280417 0 0)
(-0.0250902 0 0)
(-0.0221386 0 0)
(-0.0191869 0 0)
(-0.0162352 0 0)
(-0.0132834 0 0)
(-0.0103316 0 0)
(-0.00737974 0 0)
(-0.00442785 0 0)
(-0.00147595 0 0)
)
;

boundaryField
{
    left
    {
        type            fixedValue;
        value           uniform (0 0 0);
    }
    right
    {
        type            fixedValue;
        value           uniform (0 0 0);
    }
    frontBackUpDown
    {
        type            empty;
    }
}


// ************************************************************************* //
