/*--------------------------------*- C++ -*----------------------------------*\
| =========                 |                                                 |
| \\      /  F ield         | OpenFOAM: The Open Source CFD Toolbox           |
|  \\    /   O peration     | Version:  2412                                  |
|   \\  /    A nd           | Website:  www.openfoam.com                      |
|    \\/     M anipulation  |                                                 |
\*---------------------------------------------------------------------------*/
FoamFile
{
    version     2.0;
    format      ascii;
    arch        "LSB;label=32;scalar=64";
    class       surfaceScalarField;
    location    "0.46";
    object      phi;
}
// * * * * * * * * * * * * * * * * * * * * * * * * * * * * * * * * * * * * * //

dimensions      [0 3 -1 0 0 0 0];

oriented        oriented;

internalField   nonuniform List<scalar> 
799
(
3.21321e-05
6.42643e-05
9.63963e-05
0.000128528
0.000160659
0.000192789
0.000224919
0.000257047
0.000289174
0.000321301
0.000353425
0.000385549
0.00041767
0.00044979
0.000481908
0.000514024
0.000546138
0.000578249
0.000610358
0.000642464
0.000674567
0.000706668
0.000738765
0.00077086
0.000802951
0.000835038
0.000867122
0.000899202
0.000931279
0.000963351
0.000995419
0.00102748
0.00105954
0.0010916
0.00112365
0.00115569
0.00118773
0.00121977
0.0012518
0.00128382
0.00131584
0.00134785
0.00137986
0.00141186
0.00144386
0.00147585
0.00150783
0.00153981
0.00157177
0.00160374
0.00163569
0.00166764
0.00169958
0.00173151
0.00176344
0.00179536
0.00182727
0.00185917
0.00189106
0.00192295
0.00195483
0.00198669
0.00201855
0.0020504
0.00208225
0.00211408
0.0021459
0.00217771
0.00220952
0.00224131
0.00227309
0.00230487
0.00233663
0.00236838
0.00240012
0.00243186
0.00246358
0.00249528
0.00252698
0.00255867
0.00259034
0.00262201
0.00265366
0.0026853
0.00271692
0.00274854
0.00278014
0.00281173
0.0028433
0.00287486
0.00290641
0.00293795
0.00296947
0.00300098
0.00303248
0.00306396
0.00309542
0.00312687
0.00315831
0.00318973
0.00322114
0.00325253
0.00328391
0.00331527
0.00334662
0.00337795
0.00340926
0.00344056
0.00347184
0.00350311
0.00353435
0.00356559
0.0035968
0.003628
0.00365917
0.00369034
0.00372148
0.0037526
0.00378371
0.0038148
0.00384587
0.00387692
0.00390795
0.00393896
0.00396996
0.00400093
0.00403188
0.00406282
0.00409373
0.00412462
0.00415549
0.00418634
0.00421717
0.00424798
0.00427877
0.00430953
0.00434028
0.004371
0.0044017
0.00443237
0.00446302
0.00449365
0.00452426
0.00455484
0.0045854
0.00461594
0.00464645
0.00467693
0.0047074
0.00473783
0.00476824
0.00479863
0.00482899
0.00485933
0.00488963
0.00491992
0.00495017
0.0049804
0.0050106
0.00504077
0.00507092
0.00510104
0.00513113
0.00516119
0.00519122
0.00522123
0.0052512
0.00528114
0.00531106
0.00534094
0.0053708
0.00540062
0.00543042
0.00546018
0.00548991
0.00551961
0.00554927
0.00557891
0.00560851
0.00563808
0.00566761
0.00569711
0.00572658
0.00575601
0.00578541
0.00581477
0.0058441
0.0058734
0.00590265
0.00593187
0.00596106
0.0059902
0.00601931
0.00604839
0.00607742
0.00610642
0.00613538
0.00616429
0.00619317
0.00622201
0.00625081
0.00627957
0.00630829
0.00633697
0.0063656
0.0063942
0.00642275
0.00645126
0.00647972
0.00650814
0.00653652
0.00656485
0.00659314
0.00662139
0.00664958
0.00667773
0.00670584
0.0067339
0.00676191
0.00678987
0.00681778
0.00684565
0.00687346
0.00690123
0.00692895
0.00695661
0.00698422
0.00701179
0.0070393
0.00706675
0.00709416
0.00712151
0.0071488
0.00717604
0.00720323
0.00723036
0.00725743
0.00728445
0.0073114
0.0073383
0.00736514
0.00739192
0.00741865
0.00744531
0.00747191
0.00749844
0.00752492
0.00755133
0.00757768
0.00760396
0.00763018
0.00765633
0.00768242
0.00770844
0.00773439
0.00776027
0.00778608
0.00781182
0.0078375
0.0078631
0.00788862
0.00791408
0.00793946
0.00796476
0.00798999
0.00801515
0.00804022
0.00806522
0.00809014
0.00811498
0.00813973
0.00816441
0.008189
0.00821351
0.00823794
0.00826228
0.00828653
0.00831069
0.00833477
0.00835876
0.00838265
0.00840645
0.00843017
0.00845378
0.0084773
0.00850073
0.00852406
0.00854729
0.00857041
0.00859344
0.00861637
0.00863919
0.0086619
0.00868451
0.00870702
0.00872941
0.00875169
0.00877386
0.00879592
0.00881786
0.00883968
0.00886139
0.00888298
0.00890444
0.00892579
0.008947
0.00896809
0.00898906
0.00900989
0.00903059
0.00905116
0.00907159
0.00909188
0.00911204
0.00913205
0.00915192
0.00917164
0.00919121
0.00921064
0.00922991
0.00924902
0.00926798
0.00928678
0.00930541
0.00932388
0.00934219
0.00936032
0.00937828
0.00939606
0.00941366
0.00943108
0.00944832
0.00946537
0.00948222
0.00949888
0.00951534
0.0095316
0.00954765
0.0095635
0.00957913
0.00959454
0.00960973
0.0096247
0.00963943
0.00965393
0.0096682
0.00968221
0.00969598
0.0097095
0.00972275
0.00973575
0.00974847
0.00976091
0.00977308
0.00978495
0.00979653
0.00980781
0.00981878
0.00982944
0.00983977
0.00984978
0.00985944
0.00986876
0.00987772
0.00988632
0.00989455
0.00990239
0.00990984
0.00991689
0.00992352
0.00992972
0.00993548
0.0099408
0.00994565
0.00995002
0.00995389
0.00995726
0.00996011
0.00996241
0.00996415
0.00996532
0.00996589
0.00996584
0.00996514
0.00996379
0.00996174
0.00995898
0.00995547
0.00995119
0.0099461
0.00994016
0.00993335
0.00992562
0.00991694
0.00990713
0.00989746
0.00987474
0.00996643
0.00806699
7.00525e-06
-0.00805999
-0.00996643
-0.00987473
-0.00989746
-0.00990713
-0.00991694
-0.00992562
-0.00993335
-0.00994016
-0.00994609
-0.00995118
-0.00995547
-0.00995898
-0.00996174
-0.00996379
-0.00996514
-0.00996584
-0.00996589
-0.00996532
-0.00996415
-0.00996241
-0.00996011
-0.00995726
-0.00995389
-0.00995002
-0.00994564
-0.0099408
-0.00993548
-0.00992972
-0.00992351
-0.00991688
-0.00990984
-0.00990239
-0.00989455
-0.00988632
-0.00987772
-0.00986876
-0.00985944
-0.00984977
-0.00983977
-0.00982943
-0.00981878
-0.00980781
-0.00979653
-0.00978494
-0.00977307
-0.00976091
-0.00974846
-0.00973574
-0.00972275
-0.00970949
-0.00969597
-0.00968221
-0.00966819
-0.00965393
-0.00963942
-0.00962469
-0.00960972
-0.00959453
-0.00957912
-0.00956349
-0.00954764
-0.00953159
-0.00951533
-0.00949887
-0.00948221
-0.00946535
-0.00944831
-0.00943107
-0.00941365
-0.00939605
-0.00937826
-0.0093603
-0.00934217
-0.00932387
-0.0093054
-0.00928676
-0.00926797
-0.00924901
-0.00922989
-0.00921062
-0.0091912
-0.00917162
-0.0091519
-0.00913203
-0.00911202
-0.00909187
-0.00907157
-0.00905114
-0.00903057
-0.00900987
-0.00898904
-0.00896808
-0.00894698
-0.00892577
-0.00890442
-0.00888296
-0.00886137
-0.00883966
-0.00881784
-0.0087959
-0.00877384
-0.00875167
-0.00872939
-0.008707
-0.00868449
-0.00866188
-0.00863917
-0.00861635
-0.00859342
-0.00857039
-0.00854726
-0.00852404
-0.00850071
-0.00847728
-0.00845376
-0.00843014
-0.00840643
-0.00838263
-0.00835873
-0.00833475
-0.00831067
-0.00828651
-0.00826225
-0.00823791
-0.00821349
-0.00818898
-0.00816439
-0.00813971
-0.00811495
-0.00809012
-0.0080652
-0.0080402
-0.00801512
-0.00798997
-0.00796474
-0.00793944
-0.00791405
-0.0078886
-0.00786307
-0.00783747
-0.0078118
-0.00778606
-0.00776025
-0.00773437
-0.00770841
-0.0076824
-0.00765631
-0.00763016
-0.00760394
-0.00757766
-0.00755131
-0.0075249
-0.00749842
-0.00747188
-0.00744528
-0.00741862
-0.0073919
-0.00736512
-0.00733828
-0.00731138
-0.00728442
-0.00725741
-0.00723034
-0.00720321
-0.00717602
-0.00714878
-0.00712149
-0.00709414
-0.00706673
-0.00703927
-0.00701177
-0.0069842
-0.00695659
-0.00692892
-0.00690121
-0.00687344
-0.00684563
-0.00681776
-0.00678985
-0.00676189
-0.00673388
-0.00670582
-0.00667771
-0.00664956
-0.00662137
-0.00659312
-0.00656483
-0.0065365
-0.00650812
-0.0064797
-0.00645124
-0.00642273
-0.00639418
-0.00636558
-0.00633695
-0.00630827
-0.00627955
-0.00625079
-0.00622199
-0.00619316
-0.00616428
-0.00613536
-0.0061064
-0.0060774
-0.00604837
-0.0060193
-0.00599019
-0.00596104
-0.00593186
-0.00590263
-0.00587338
-0.00584409
-0.00581476
-0.00578539
-0.005756
-0.00572656
-0.0056971
-0.00566759
-0.00563806
-0.00560849
-0.00557889
-0.00554926
-0.00551959
-0.00548989
-0.00546016
-0.0054304
-0.00540061
-0.00537078
-0.00534093
-0.00531104
-0.00528113
-0.00525119
-0.00522121
-0.00519121
-0.00516117
-0.00513111
-0.00510102
-0.00507091
-0.00504076
-0.00501059
-0.00498039
-0.00495016
-0.0049199
-0.00488962
-0.00485931
-0.00482898
-0.00479862
-0.00476823
-0.00473782
-0.00470738
-0.00467692
-0.00464644
-0.00461593
-0.00458539
-0.00455483
-0.00452425
-0.00449364
-0.00446301
-0.00443236
-0.00440169
-0.00437099
-0.00434027
-0.00430952
-0.00427876
-0.00424797
-0.00421716
-0.00418633
-0.00415548
-0.00412461
-0.00409372
-0.00406281
-0.00403187
-0.00400092
-0.00396995
-0.00393895
-0.00390794
-0.00387691
-0.00384586
-0.00381479
-0.0037837
-0.0037526
-0.00372147
-0.00369033
-0.00365917
-0.00362799
-0.00359679
-0.00356558
-0.00353435
-0.0035031
-0.00347183
-0.00344055
-0.00340926
-0.00337794
-0.00334661
-0.00331527
-0.00328391
-0.00325253
-0.00322114
-0.00318973
-0.00315831
-0.00312687
-0.00309542
-0.00306395
-0.00303247
-0.00300098
-0.00296947
-0.00293794
-0.00290641
-0.00287486
-0.0028433
-0.00281172
-0.00278013
-0.00274853
-0.00271692
-0.00268529
-0.00265365
-0.002622
-0.00259034
-0.00255866
-0.00252698
-0.00249528
-0.00246357
-0.00243185
-0.00240012
-0.00236838
-0.00233663
-0.00230486
-0.00227309
-0.00224131
-0.00220951
-0.00217771
-0.0021459
-0.00211407
-0.00208224
-0.0020504
-0.00201855
-0.00198669
-0.00195482
-0.00192295
-0.00189106
-0.00185917
-0.00182727
-0.00179536
-0.00176344
-0.00173151
-0.00169958
-0.00166764
-0.00163569
-0.00160373
-0.00157177
-0.0015398
-0.00150783
-0.00147585
-0.00144386
-0.00141186
-0.00137986
-0.00134785
-0.00131584
-0.00128382
-0.0012518
-0.00121977
-0.00118773
-0.00115569
-0.00112365
-0.0010916
-0.00105954
-0.00102748
-0.000995419
-0.000963351
-0.000931278
-0.000899202
-0.000867122
-0.000835038
-0.00080295
-0.000770859
-0.000738765
-0.000706668
-0.000674567
-0.000642464
-0.000610357
-0.000578249
-0.000546137
-0.000514024
-0.000481908
-0.00044979
-0.00041767
-0.000385549
-0.000353425
-0.000321301
-0.000289175
-0.000257047
-0.000224919
-0.000192789
-0.000160659
-0.000128528
-9.63965e-05
-6.42645e-05
-3.21323e-05
)
;

boundaryField
{
    left
    {
        type            calculated;
        value           uniform 0;
    }
    right
    {
        type            calculated;
        value           uniform 0;
    }
    frontBackUpDown
    {
        type            empty;
    }
}


// ************************************************************************* //
