/*--------------------------------*- C++ -*----------------------------------*\
| =========                 |                                                 |
| \\      /  F ield         | OpenFOAM: The Open Source CFD Toolbox           |
|  \\    /   O peration     | Version:  2412                                  |
|   \\  /    A nd           | Website:  www.openfoam.com                      |
|    \\/     M anipulation  |                                                 |
\*---------------------------------------------------------------------------*/
FoamFile
{
    version     2.0;
    format      ascii;
    arch        "LSB;label=32;scalar=64";
    class       volVectorField;
    location    "0.46";
    object      U;
}
// * * * * * * * * * * * * * * * * * * * * * * * * * * * * * * * * * * * * * //

dimensions      [0 1 -1 0 0 0 0];

internalField   nonuniform List<vector> 
800
(
(0.0016066 0 0)
(0.00481983 0 0)
(0.00803304 0 0)
(0.0112462 0 0)
(0.0144593 0 0)
(0.0176724 0 0)
(0.0208854 0 0)
(0.0240983 0 0)
(0.0273111 0 0)
(0.0305238 0 0)
(0.0337363 0 0)
(0.0369487 0 0)
(0.040161 0 0)
(0.0433731 0 0)
(0.046585 0 0)
(0.0497967 0 0)
(0.0530081 0 0)
(0.0562194 0 0)
(0.0594304 0 0)
(0.0626411 0 0)
(0.0658516 0 0)
(0.0690618 0 0)
(0.0722717 0 0)
(0.0754813 0 0)
(0.0786906 0 0)
(0.0818995 0 0)
(0.0851081 0 0)
(0.0883163 0 0)
(0.0915242 0 0)
(0.0947316 0 0)
(0.0979386 0 0)
(0.101145 0 0)
(0.104351 0 0)
(0.107557 0 0)
(0.110762 0 0)
(0.113967 0 0)
(0.117171 0 0)
(0.120375 0 0)
(0.123578 0 0)
(0.126781 0 0)
(0.129983 0 0)
(0.133185 0 0)
(0.136386 0 0)
(0.139586 0 0)
(0.142786 0 0)
(0.145985 0 0)
(0.149184 0 0)
(0.152382 0 0)
(0.155579 0 0)
(0.158776 0 0)
(0.161972 0 0)
(0.165167 0 0)
(0.168361 0 0)
(0.171555 0 0)
(0.174748 0 0)
(0.17794 0 0)
(0.181131 0 0)
(0.184322 0 0)
(0.187512 0 0)
(0.190701 0 0)
(0.193889 0 0)
(0.197076 0 0)
(0.200263 0 0)
(0.203448 0 0)
(0.206633 0 0)
(0.209816 0 0)
(0.212999 0 0)
(0.216181 0 0)
(0.219362 0 0)
(0.222542 0 0)
(0.22572 0 0)
(0.228898 0 0)
(0.232075 0 0)
(0.235251 0 0)
(0.238426 0 0)
(0.241599 0 0)
(0.244772 0 0)
(0.247943 0 0)
(0.251114 0 0)
(0.254283 0 0)
(0.257451 0 0)
(0.260618 0 0)
(0.263783 0 0)
(0.266948 0 0)
(0.270111 0 0)
(0.273273 0 0)
(0.276434 0 0)
(0.279593 0 0)
(0.282752 0 0)
(0.285909 0 0)
(0.289064 0 0)
(0.292219 0 0)
(0.295371 0 0)
(0.298523 0 0)
(0.301673 0 0)
(0.304822 0 0)
(0.307969 0 0)
(0.311115 0 0)
(0.31426 0 0)
(0.317403 0 0)
(0.320544 0 0)
(0.323684 0 0)
(0.326823 0 0)
(0.32996 0 0)
(0.333095 0 0)
(0.336229 0 0)
(0.339361 0 0)
(0.342492 0 0)
(0.345621 0 0)
(0.348748 0 0)
(0.351873 0 0)
(0.354997 0 0)
(0.35812 0 0)
(0.36124 0 0)
(0.364359 0 0)
(0.367476 0 0)
(0.370591 0 0)
(0.373705 0 0)
(0.376816 0 0)
(0.379926 0 0)
(0.383034 0 0)
(0.38614 0 0)
(0.389244 0 0)
(0.392346 0 0)
(0.395447 0 0)
(0.398545 0 0)
(0.401641 0 0)
(0.404735 0 0)
(0.407828 0 0)
(0.410918 0 0)
(0.414006 0 0)
(0.417092 0 0)
(0.420176 0 0)
(0.423258 0 0)
(0.426338 0 0)
(0.429416 0 0)
(0.432491 0 0)
(0.435564 0 0)
(0.438635 0 0)
(0.441704 0 0)
(0.44477 0 0)
(0.447835 0 0)
(0.450896 0 0)
(0.453956 0 0)
(0.457013 0 0)
(0.460068 0 0)
(0.46312 0 0)
(0.46617 0 0)
(0.469217 0 0)
(0.472262 0 0)
(0.475305 0 0)
(0.478344 0 0)
(0.481382 0 0)
(0.484416 0 0)
(0.487449 0 0)
(0.490478 0 0)
(0.493505 0 0)
(0.496529 0 0)
(0.499551 0 0)
(0.502569 0 0)
(0.505585 0 0)
(0.508599 0 0)
(0.511609 0 0)
(0.514617 0 0)
(0.517621 0 0)
(0.520623 0 0)
(0.523622 0 0)
(0.526618 0 0)
(0.529611 0 0)
(0.532601 0 0)
(0.535588 0 0)
(0.538572 0 0)
(0.541553 0 0)
(0.544531 0 0)
(0.547505 0 0)
(0.550477 0 0)
(0.553445 0 0)
(0.55641 0 0)
(0.559372 0 0)
(0.56233 0 0)
(0.565285 0 0)
(0.568237 0 0)
(0.571185 0 0)
(0.57413 0 0)
(0.577072 0 0)
(0.58001 0 0)
(0.582945 0 0)
(0.585876 0 0)
(0.588803 0 0)
(0.591727 0 0)
(0.594647 0 0)
(0.597564 0 0)
(0.600477 0 0)
(0.603386 0 0)
(0.606291 0 0)
(0.609193 0 0)
(0.612091 0 0)
(0.614985 0 0)
(0.617874 0 0)
(0.62076 0 0)
(0.623642 0 0)
(0.62652 0 0)
(0.629394 0 0)
(0.632264 0 0)
(0.63513 0 0)
(0.637991 0 0)
(0.640848 0 0)
(0.643701 0 0)
(0.64655 0 0)
(0.649394 0 0)
(0.652234 0 0)
(0.65507 0 0)
(0.657901 0 0)
(0.660728 0 0)
(0.66355 0 0)
(0.666367 0 0)
(0.66918 0 0)
(0.671988 0 0)
(0.674791 0 0)
(0.67759 0 0)
(0.680384 0 0)
(0.683173 0 0)
(0.685957 0 0)
(0.688736 0 0)
(0.69151 0 0)
(0.694279 0 0)
(0.697043 0 0)
(0.699802 0 0)
(0.702555 0 0)
(0.705304 0 0)
(0.708047 0 0)
(0.710785 0 0)
(0.713517 0 0)
(0.716244 0 0)
(0.718965 0 0)
(0.721681 0 0)
(0.724391 0 0)
(0.727095 0 0)
(0.729794 0 0)
(0.732487 0 0)
(0.735174 0 0)
(0.737855 0 0)
(0.74053 0 0)
(0.743199 0 0)
(0.745862 0 0)
(0.748519 0 0)
(0.75117 0 0)
(0.753814 0 0)
(0.756452 0 0)
(0.759084 0 0)
(0.761709 0 0)
(0.764327 0 0)
(0.766939 0 0)
(0.769544 0 0)
(0.772143 0 0)
(0.774735 0 0)
(0.777319 0 0)
(0.779897 0 0)
(0.782468 0 0)
(0.785031 0 0)
(0.787588 0 0)
(0.790137 0 0)
(0.792679 0 0)
(0.795213 0 0)
(0.79774 0 0)
(0.800259 0 0)
(0.80277 0 0)
(0.805274 0 0)
(0.80777 0 0)
(0.810258 0 0)
(0.812737 0 0)
(0.815209 0 0)
(0.817673 0 0)
(0.820128 0 0)
(0.822575 0 0)
(0.825013 0 0)
(0.827442 0 0)
(0.829863 0 0)
(0.832275 0 0)
(0.834678 0 0)
(0.837073 0 0)
(0.839458 0 0)
(0.841833 0 0)
(0.8442 0 0)
(0.846557 0 0)
(0.848904 0 0)
(0.851242 0 0)
(0.85357 0 0)
(0.855888 0 0)
(0.858195 0 0)
(0.860493 0 0)
(0.86278 0 0)
(0.865057 0 0)
(0.867324 0 0)
(0.869579 0 0)
(0.871824 0 0)
(0.874058 0 0)
(0.87628 0 0)
(0.878492 0 0)
(0.880692 0 0)
(0.88288 0 0)
(0.885057 0 0)
(0.887221 0 0)
(0.889374 0 0)
(0.891514 0 0)
(0.893643 0 0)
(0.895758 0 0)
(0.897861 0 0)
(0.899951 0 0)
(0.902027 0 0)
(0.904091 0 0)
(0.906141 0 0)
(0.908177 0 0)
(0.910199 0 0)
(0.912208 0 0)
(0.914202 0 0)
(0.916181 0 0)
(0.918146 0 0)
(0.920096 0 0)
(0.922031 0 0)
(0.92395 0 0)
(0.925854 0 0)
(0.927742 0 0)
(0.929614 0 0)
(0.931469 0 0)
(0.933308 0 0)
(0.93513 0 0)
(0.936934 0 0)
(0.938721 0 0)
(0.940491 0 0)
(0.942242 0 0)
(0.943975 0 0)
(0.945689 0 0)
(0.947384 0 0)
(0.94906 0 0)
(0.950716 0 0)
(0.952352 0 0)
(0.953968 0 0)
(0.955563 0 0)
(0.957137 0 0)
(0.958689 0 0)
(0.960219 0 0)
(0.961727 0 0)
(0.963212 0 0)
(0.964674 0 0)
(0.966113 0 0)
(0.967527 0 0)
(0.968916 0 0)
(0.970281 0 0)
(0.971619 0 0)
(0.972932 0 0)
(0.974217 0 0)
(0.975476 0 0)
(0.976707 0 0)
(0.977909 0 0)
(0.979082 0 0)
(0.980225 0 0)
(0.981338 0 0)
(0.982419 0 0)
(0.983469 0 0)
(0.984486 0 0)
(0.985469 0 0)
(0.986419 0 0)
(0.987333 0 0)
(0.988212 0 0)
(0.989053 0 0)
(0.989857 0 0)
(0.990622 0 0)
(0.991347 0 0)
(0.992031 0 0)
(0.992673 0 0)
(0.993271 0 0)
(0.993826 0 0)
(0.994334 0 0)
(0.994795 0 0)
(0.995208 0 0)
(0.995571 0 0)
(0.995882 0 0)
(0.99614 0 0)
(0.996342 0 0)
(0.996488 0 0)
(0.996576 0 0)
(0.996602 0 0)
(0.996565 0 0)
(0.996464 0 0)
(0.996294 0 0)
(0.996054 0 0)
(0.995741 0 0)
(0.995353 0 0)
(0.994885 0 0)
(0.994334 0 0)
(0.993698 0 0)
(0.992972 0 0)
(0.992152 0 0)
(0.991236 0 0)
(0.990191 0 0)
(0.989302 0 0)
(0.985646 0 0)
(1.00764 0 0)
(0.605758 0 0)
(-0.604357 0 0)
(-1.00764 0 0)
(-0.985645 0 0)
(-0.989301 0 0)
(-0.99019 0 0)
(-0.991236 0 0)
(-0.992152 0 0)
(-0.992972 0 0)
(-0.993698 0 0)
(-0.994334 0 0)
(-0.994884 0 0)
(-0.995352 0 0)
(-0.995741 0 0)
(-0.996054 0 0)
(-0.996294 0 0)
(-0.996463 0 0)
(-0.996565 0 0)
(-0.996602 0 0)
(-0.996576 0 0)
(-0.996488 0 0)
(-0.996342 0 0)
(-0.99614 0 0)
(-0.995882 0 0)
(-0.995571 0 0)
(-0.995208 0 0)
(-0.994795 0 0)
(-0.994334 0 0)
(-0.993825 0 0)
(-0.993271 0 0)
(-0.992672 0 0)
(-0.99203 0 0)
(-0.991346 0 0)
(-0.990621 0 0)
(-0.989856 0 0)
(-0.989053 0 0)
(-0.988211 0 0)
(-0.987333 0 0)
(-0.986418 0 0)
(-0.985469 0 0)
(-0.984485 0 0)
(-0.983468 0 0)
(-0.982419 0 0)
(-0.981337 0 0)
(-0.980224 0 0)
(-0.979081 0 0)
(-0.977908 0 0)
(-0.976706 0 0)
(-0.975475 0 0)
(-0.974217 0 0)
(-0.972931 0 0)
(-0.971618 0 0)
(-0.97028 0 0)
(-0.968915 0 0)
(-0.967526 0 0)
(-0.966112 0 0)
(-0.964673 0 0)
(-0.963211 0 0)
(-0.961726 0 0)
(-0.960218 0 0)
(-0.958688 0 0)
(-0.957136 0 0)
(-0.955562 0 0)
(-0.953967 0 0)
(-0.952351 0 0)
(-0.950715 0 0)
(-0.949059 0 0)
(-0.947383 0 0)
(-0.945688 0 0)
(-0.943973 0 0)
(-0.942241 0 0)
(-0.940489 0 0)
(-0.93872 0 0)
(-0.936933 0 0)
(-0.935128 0 0)
(-0.933306 0 0)
(-0.931468 0 0)
(-0.929612 0 0)
(-0.927741 0 0)
(-0.925853 0 0)
(-0.923949 0 0)
(-0.922029 0 0)
(-0.920095 0 0)
(-0.918145 0 0)
(-0.91618 0 0)
(-0.9142 0 0)
(-0.912206 0 0)
(-0.910198 0 0)
(-0.908175 0 0)
(-0.906139 0 0)
(-0.904089 0 0)
(-0.902026 0 0)
(-0.899949 0 0)
(-0.897859 0 0)
(-0.895756 0 0)
(-0.893641 0 0)
(-0.891513 0 0)
(-0.889372 0 0)
(-0.887219 0 0)
(-0.885055 0 0)
(-0.882878 0 0)
(-0.88069 0 0)
(-0.87849 0 0)
(-0.876278 0 0)
(-0.874056 0 0)
(-0.871822 0 0)
(-0.869577 0 0)
(-0.867322 0 0)
(-0.865055 0 0)
(-0.862778 0 0)
(-0.860491 0 0)
(-0.858193 0 0)
(-0.855885 0 0)
(-0.853567 0 0)
(-0.85124 0 0)
(-0.848902 0 0)
(-0.846555 0 0)
(-0.844198 0 0)
(-0.841831 0 0)
(-0.839455 0 0)
(-0.83707 0 0)
(-0.834676 0 0)
(-0.832273 0 0)
(-0.829861 0 0)
(-0.82744 0 0)
(-0.825011 0 0)
(-0.822572 0 0)
(-0.820126 0 0)
(-0.81767 0 0)
(-0.815207 0 0)
(-0.812735 0 0)
(-0.810255 0 0)
(-0.807768 0 0)
(-0.805272 0 0)
(-0.802768 0 0)
(-0.800257 0 0)
(-0.797737 0 0)
(-0.795211 0 0)
(-0.792676 0 0)
(-0.790135 0 0)
(-0.787586 0 0)
(-0.785029 0 0)
(-0.782466 0 0)
(-0.779895 0 0)
(-0.777317 0 0)
(-0.774732 0 0)
(-0.772141 0 0)
(-0.769542 0 0)
(-0.766937 0 0)
(-0.764325 0 0)
(-0.761706 0 0)
(-0.759081 0 0)
(-0.75645 0 0)
(-0.753812 0 0)
(-0.751167 0 0)
(-0.748517 0 0)
(-0.74586 0 0)
(-0.743197 0 0)
(-0.740528 0 0)
(-0.737853 0 0)
(-0.735172 0 0)
(-0.732485 0 0)
(-0.729792 0 0)
(-0.727093 0 0)
(-0.724389 0 0)
(-0.721678 0 0)
(-0.718963 0 0)
(-0.716241 0 0)
(-0.713515 0 0)
(-0.710782 0 0)
(-0.708045 0 0)
(-0.705302 0 0)
(-0.702553 0 0)
(-0.6998 0 0)
(-0.697041 0 0)
(-0.694277 0 0)
(-0.691508 0 0)
(-0.688734 0 0)
(-0.685955 0 0)
(-0.683171 0 0)
(-0.680382 0 0)
(-0.677588 0 0)
(-0.674789 0 0)
(-0.671986 0 0)
(-0.669178 0 0)
(-0.666365 0 0)
(-0.663548 0 0)
(-0.660726 0 0)
(-0.657899 0 0)
(-0.655068 0 0)
(-0.652232 0 0)
(-0.649392 0 0)
(-0.646548 0 0)
(-0.643699 0 0)
(-0.640846 0 0)
(-0.637989 0 0)
(-0.635128 0 0)
(-0.632262 0 0)
(-0.629392 0 0)
(-0.626518 0 0)
(-0.62364 0 0)
(-0.620759 0 0)
(-0.617873 0 0)
(-0.614983 0 0)
(-0.612089 0 0)
(-0.609191 0 0)
(-0.60629 0 0)
(-0.603384 0 0)
(-0.600475 0 0)
(-0.597562 0 0)
(-0.594646 0 0)
(-0.591725 0 0)
(-0.588802 0 0)
(-0.585874 0 0)
(-0.582943 0 0)
(-0.580008 0 0)
(-0.57707 0 0)
(-0.574129 0 0)
(-0.571184 0 0)
(-0.568235 0 0)
(-0.565284 0 0)
(-0.562328 0 0)
(-0.55937 0 0)
(-0.556408 0 0)
(-0.553443 0 0)
(-0.550475 0 0)
(-0.547504 0 0)
(-0.544529 0 0)
(-0.541551 0 0)
(-0.53857 0 0)
(-0.535586 0 0)
(-0.532599 0 0)
(-0.529609 0 0)
(-0.526617 0 0)
(-0.523621 0 0)
(-0.520622 0 0)
(-0.51762 0 0)
(-0.514615 0 0)
(-0.511608 0 0)
(-0.508597 0 0)
(-0.505584 0 0)
(-0.502568 0 0)
(-0.499549 0 0)
(-0.496528 0 0)
(-0.493504 0 0)
(-0.490477 0 0)
(-0.487447 0 0)
(-0.484415 0 0)
(-0.48138 0 0)
(-0.478343 0 0)
(-0.475303 0 0)
(-0.472261 0 0)
(-0.469216 0 0)
(-0.466169 0 0)
(-0.463119 0 0)
(-0.460066 0 0)
(-0.457012 0 0)
(-0.453955 0 0)
(-0.450895 0 0)
(-0.447833 0 0)
(-0.444769 0 0)
(-0.441703 0 0)
(-0.438634 0 0)
(-0.435563 0 0)
(-0.43249 0 0)
(-0.429415 0 0)
(-0.426337 0 0)
(-0.423257 0 0)
(-0.420175 0 0)
(-0.417091 0 0)
(-0.414005 0 0)
(-0.410917 0 0)
(-0.407827 0 0)
(-0.404735 0 0)
(-0.40164 0 0)
(-0.398544 0 0)
(-0.395446 0 0)
(-0.392345 0 0)
(-0.389243 0 0)
(-0.386139 0 0)
(-0.383033 0 0)
(-0.379925 0 0)
(-0.376815 0 0)
(-0.373704 0 0)
(-0.37059 0 0)
(-0.367475 0 0)
(-0.364358 0 0)
(-0.361239 0 0)
(-0.358119 0 0)
(-0.354997 0 0)
(-0.351873 0 0)
(-0.348747 0 0)
(-0.34562 0 0)
(-0.342491 0 0)
(-0.33936 0 0)
(-0.336228 0 0)
(-0.333094 0 0)
(-0.329959 0 0)
(-0.326822 0 0)
(-0.323684 0 0)
(-0.320544 0 0)
(-0.317402 0 0)
(-0.314259 0 0)
(-0.311115 0 0)
(-0.307969 0 0)
(-0.304821 0 0)
(-0.301673 0 0)
(-0.298522 0 0)
(-0.295371 0 0)
(-0.292218 0 0)
(-0.289064 0 0)
(-0.285908 0 0)
(-0.282751 0 0)
(-0.279593 0 0)
(-0.276433 0 0)
(-0.273273 0 0)
(-0.270111 0 0)
(-0.266947 0 0)
(-0.263783 0 0)
(-0.260617 0 0)
(-0.25745 0 0)
(-0.254282 0 0)
(-0.251113 0 0)
(-0.247943 0 0)
(-0.244771 0 0)
(-0.241599 0 0)
(-0.238425 0 0)
(-0.235251 0 0)
(-0.232075 0 0)
(-0.228898 0 0)
(-0.22572 0 0)
(-0.222541 0 0)
(-0.219361 0 0)
(-0.216181 0 0)
(-0.212999 0 0)
(-0.209816 0 0)
(-0.206632 0 0)
(-0.203448 0 0)
(-0.200262 0 0)
(-0.197076 0 0)
(-0.193889 0 0)
(-0.190701 0 0)
(-0.187512 0 0)
(-0.184322 0 0)
(-0.181131 0 0)
(-0.17794 0 0)
(-0.174748 0 0)
(-0.171555 0 0)
(-0.168361 0 0)
(-0.165167 0 0)
(-0.161971 0 0)
(-0.158776 0 0)
(-0.155579 0 0)
(-0.152382 0 0)
(-0.149184 0 0)
(-0.145985 0 0)
(-0.142786 0 0)
(-0.139586 0 0)
(-0.136386 0 0)
(-0.133185 0 0)
(-0.129983 0 0)
(-0.126781 0 0)
(-0.123578 0 0)
(-0.120375 0 0)
(-0.117171 0 0)
(-0.113967 0 0)
(-0.110762 0 0)
(-0.107557 0 0)
(-0.104351 0 0)
(-0.101145 0 0)
(-0.0979386 0 0)
(-0.0947315 0 0)
(-0.0915241 0 0)
(-0.0883163 0 0)
(-0.0851081 0 0)
(-0.0818995 0 0)
(-0.0786906 0 0)
(-0.0754813 0 0)
(-0.0722717 0 0)
(-0.0690618 0 0)
(-0.0658516 0 0)
(-0.0626411 0 0)
(-0.0594304 0 0)
(-0.0562194 0 0)
(-0.0530081 0 0)
(-0.0497966 0 0)
(-0.046585 0 0)
(-0.0433731 0 0)
(-0.040161 0 0)
(-0.0369487 0 0)
(-0.0337363 0 0)
(-0.0305238 0 0)
(-0.0273111 0 0)
(-0.0240983 0 0)
(-0.0208854 0 0)
(-0.0176724 0 0)
(-0.0144594 0 0)
(-0.0112462 0 0)
(-0.00803306 0 0)
(-0.00481985 0 0)
(-0.00160662 0 0)
)
;

boundaryField
{
    left
    {
        type            fixedValue;
        value           uniform (0 0 0);
    }
    right
    {
        type            fixedValue;
        value           uniform (0 0 0);
    }
    frontBackUpDown
    {
        type            empty;
    }
}


// ************************************************************************* //
