/*--------------------------------*- C++ -*----------------------------------*\
| =========                 |                                                 |
| \\      /  F ield         | OpenFOAM: The Open Source CFD Toolbox           |
|  \\    /   O peration     | Version:  2412                                  |
|   \\  /    A nd           | Website:  www.openfoam.com                      |
|    \\/     M anipulation  |                                                 |
\*---------------------------------------------------------------------------*/
FoamFile
{
    version     2.0;
    format      ascii;
    arch        "LSB;label=32;scalar=64";
    class       volVectorField;
    location    "0.46";
    object      U_0;
}
// * * * * * * * * * * * * * * * * * * * * * * * * * * * * * * * * * * * * * //

dimensions      [0 1 -1 0 0 0 0];

internalField   nonuniform List<vector> 
800
(
(0.00160763 0 0)
(0.00482292 0 0)
(0.00803819 0 0)
(0.0112534 0 0)
(0.0144686 0 0)
(0.0176838 0 0)
(0.0208988 0 0)
(0.0241138 0 0)
(0.0273286 0 0)
(0.0305434 0 0)
(0.033758 0 0)
(0.0369725 0 0)
(0.0401868 0 0)
(0.0434009 0 0)
(0.0466149 0 0)
(0.0498286 0 0)
(0.0530421 0 0)
(0.0562555 0 0)
(0.0594685 0 0)
(0.0626813 0 0)
(0.0658939 0 0)
(0.0691061 0 0)
(0.0723181 0 0)
(0.0755297 0 0)
(0.0787411 0 0)
(0.081952 0 0)
(0.0851627 0 0)
(0.0883729 0 0)
(0.0915828 0 0)
(0.0947923 0 0)
(0.0980014 0 0)
(0.10121 0 0)
(0.104418 0 0)
(0.107626 0 0)
(0.110833 0 0)
(0.11404 0 0)
(0.117246 0 0)
(0.120452 0 0)
(0.123658 0 0)
(0.126862 0 0)
(0.130067 0 0)
(0.13327 0 0)
(0.136473 0 0)
(0.139676 0 0)
(0.142878 0 0)
(0.146079 0 0)
(0.149279 0 0)
(0.152479 0 0)
(0.155679 0 0)
(0.158877 0 0)
(0.162075 0 0)
(0.165272 0 0)
(0.168469 0 0)
(0.171664 0 0)
(0.174859 0 0)
(0.178054 0 0)
(0.181247 0 0)
(0.18444 0 0)
(0.187631 0 0)
(0.190822 0 0)
(0.194012 0 0)
(0.197202 0 0)
(0.20039 0 0)
(0.203578 0 0)
(0.206764 0 0)
(0.20995 0 0)
(0.213135 0 0)
(0.216318 0 0)
(0.219501 0 0)
(0.222683 0 0)
(0.225864 0 0)
(0.229044 0 0)
(0.232222 0 0)
(0.2354 0 0)
(0.238577 0 0)
(0.241752 0 0)
(0.244927 0 0)
(0.2481 0 0)
(0.251273 0 0)
(0.254444 0 0)
(0.257614 0 0)
(0.260783 0 0)
(0.26395 0 0)
(0.267117 0 0)
(0.270282 0 0)
(0.273446 0 0)
(0.276609 0 0)
(0.27977 0 0)
(0.28293 0 0)
(0.286089 0 0)
(0.289246 0 0)
(0.292403 0 0)
(0.295558 0 0)
(0.298711 0 0)
(0.301863 0 0)
(0.305014 0 0)
(0.308163 0 0)
(0.311311 0 0)
(0.314457 0 0)
(0.317602 0 0)
(0.320745 0 0)
(0.323887 0 0)
(0.327028 0 0)
(0.330166 0 0)
(0.333304 0 0)
(0.336439 0 0)
(0.339573 0 0)
(0.342706 0 0)
(0.345837 0 0)
(0.348966 0 0)
(0.352093 0 0)
(0.355219 0 0)
(0.358343 0 0)
(0.361465 0 0)
(0.364586 0 0)
(0.367705 0 0)
(0.370822 0 0)
(0.373937 0 0)
(0.37705 0 0)
(0.380162 0 0)
(0.383272 0 0)
(0.386379 0 0)
(0.389485 0 0)
(0.392589 0 0)
(0.395691 0 0)
(0.398791 0 0)
(0.40189 0 0)
(0.404986 0 0)
(0.40808 0 0)
(0.411172 0 0)
(0.414262 0 0)
(0.41735 0 0)
(0.420435 0 0)
(0.423519 0 0)
(0.4266 0 0)
(0.42968 0 0)
(0.432757 0 0)
(0.435832 0 0)
(0.438904 0 0)
(0.441975 0 0)
(0.445043 0 0)
(0.448109 0 0)
(0.451172 0 0)
(0.454233 0 0)
(0.457292 0 0)
(0.460348 0 0)
(0.463402 0 0)
(0.466454 0 0)
(0.469503 0 0)
(0.472549 0 0)
(0.475593 0 0)
(0.478635 0 0)
(0.481674 0 0)
(0.48471 0 0)
(0.487744 0 0)
(0.490775 0 0)
(0.493803 0 0)
(0.496829 0 0)
(0.499852 0 0)
(0.502872 0 0)
(0.50589 0 0)
(0.508905 0 0)
(0.511917 0 0)
(0.514926 0 0)
(0.517932 0 0)
(0.520935 0 0)
(0.523936 0 0)
(0.526933 0 0)
(0.529928 0 0)
(0.532919 0 0)
(0.535908 0 0)
(0.538893 0 0)
(0.541875 0 0)
(0.544854 0 0)
(0.54783 0 0)
(0.550803 0 0)
(0.553773 0 0)
(0.556739 0 0)
(0.559703 0 0)
(0.562662 0 0)
(0.565619 0 0)
(0.568572 0 0)
(0.571522 0 0)
(0.574468 0 0)
(0.577411 0 0)
(0.580351 0 0)
(0.583286 0 0)
(0.586219 0 0)
(0.589148 0 0)
(0.592073 0 0)
(0.594994 0 0)
(0.597912 0 0)
(0.600826 0 0)
(0.603737 0 0)
(0.606643 0 0)
(0.609546 0 0)
(0.612445 0 0)
(0.61534 0 0)
(0.618231 0 0)
(0.621118 0 0)
(0.624001 0 0)
(0.62688 0 0)
(0.629756 0 0)
(0.632626 0 0)
(0.635493 0 0)
(0.638356 0 0)
(0.641214 0 0)
(0.644068 0 0)
(0.646918 0 0)
(0.649763 0 0)
(0.652604 0 0)
(0.655441 0 0)
(0.658273 0 0)
(0.661101 0 0)
(0.663924 0 0)
(0.666742 0 0)
(0.669556 0 0)
(0.672365 0 0)
(0.675169 0 0)
(0.677969 0 0)
(0.680764 0 0)
(0.683553 0 0)
(0.686338 0 0)
(0.689118 0 0)
(0.691893 0 0)
(0.694663 0 0)
(0.697428 0 0)
(0.700187 0 0)
(0.702942 0 0)
(0.705691 0 0)
(0.708435 0 0)
(0.711173 0 0)
(0.713906 0 0)
(0.716634 0 0)
(0.719356 0 0)
(0.722072 0 0)
(0.724783 0 0)
(0.727488 0 0)
(0.730187 0 0)
(0.732881 0 0)
(0.735568 0 0)
(0.73825 0 0)
(0.740926 0 0)
(0.743595 0 0)
(0.746259 0 0)
(0.748916 0 0)
(0.751567 0 0)
(0.754212 0 0)
(0.756851 0 0)
(0.759483 0 0)
(0.762108 0 0)
(0.764727 0 0)
(0.767339 0 0)
(0.769945 0 0)
(0.772544 0 0)
(0.775136 0 0)
(0.777721 0 0)
(0.780299 0 0)
(0.782869 0 0)
(0.785433 0 0)
(0.78799 0 0)
(0.790539 0 0)
(0.793081 0 0)
(0.795615 0 0)
(0.798142 0 0)
(0.800661 0 0)
(0.803173 0 0)
(0.805677 0 0)
(0.808172 0 0)
(0.81066 0 0)
(0.81314 0 0)
(0.815611 0 0)
(0.818075 0 0)
(0.82053 0 0)
(0.822976 0 0)
(0.825414 0 0)
(0.827844 0 0)
(0.830264 0 0)
(0.832676 0 0)
(0.835079 0 0)
(0.837473 0 0)
(0.839857 0 0)
(0.842233 0 0)
(0.844599 0 0)
(0.846955 0 0)
(0.849302 0 0)
(0.851639 0 0)
(0.853966 0 0)
(0.856284 0 0)
(0.858591 0 0)
(0.860888 0 0)
(0.863174 0 0)
(0.86545 0 0)
(0.867716 0 0)
(0.869971 0 0)
(0.872215 0 0)
(0.874447 0 0)
(0.876669 0 0)
(0.878879 0 0)
(0.881078 0 0)
(0.883266 0 0)
(0.885441 0 0)
(0.887605 0 0)
(0.889756 0 0)
(0.891895 0 0)
(0.894022 0 0)
(0.896136 0 0)
(0.898237 0 0)
(0.900326 0 0)
(0.902401 0 0)
(0.904463 0 0)
(0.906511 0 0)
(0.908546 0 0)
(0.910567 0 0)
(0.912573 0 0)
(0.914565 0 0)
(0.916543 0 0)
(0.918506 0 0)
(0.920454 0 0)
(0.922387 0 0)
(0.924304 0 0)
(0.926206 0 0)
(0.928091 0 0)
(0.929961 0 0)
(0.931814 0 0)
(0.93365 0 0)
(0.935469 0 0)
(0.937271 0 0)
(0.939056 0 0)
(0.940822 0 0)
(0.942571 0 0)
(0.944301 0 0)
(0.946012 0 0)
(0.947704 0 0)
(0.949377 0 0)
(0.95103 0 0)
(0.952662 0 0)
(0.954275 0 0)
(0.955866 0 0)
(0.957436 0 0)
(0.958985 0 0)
(0.960512 0 0)
(0.962016 0 0)
(0.963497 0 0)
(0.964955 0 0)
(0.966389 0 0)
(0.967799 0 0)
(0.969184 0 0)
(0.970544 0 0)
(0.971878 0 0)
(0.973185 0 0)
(0.974466 0 0)
(0.97572 0 0)
(0.976945 0 0)
(0.978142 0 0)
(0.979309 0 0)
(0.980447 0 0)
(0.981554 0 0)
(0.98263 0 0)
(0.983673 0 0)
(0.984684 0 0)
(0.985661 0 0)
(0.986604 0 0)
(0.987511 0 0)
(0.988383 0 0)
(0.989217 0 0)
(0.990013 0 0)
(0.990771 0 0)
(0.991488 0 0)
(0.992164 0 0)
(0.992797 0 0)
(0.993387 0 0)
(0.993933 0 0)
(0.994432 0 0)
(0.994884 0 0)
(0.995287 0 0)
(0.99564 0 0)
(0.995941 0 0)
(0.996188 0 0)
(0.996379 0 0)
(0.996514 0 0)
(0.996589 0 0)
(0.996604 0 0)
(0.996554 0 0)
(0.996439 0 0)
(0.996256 0 0)
(0.996002 0 0)
(0.995675 0 0)
(0.995271 0 0)
(0.994787 0 0)
(0.99422 0 0)
(0.993567 0 0)
(0.992823 0 0)
(0.991984 0 0)
(0.991048 0 0)
(0.989983 0 0)
(0.989071 0 0)
(0.985405 0 0)
(1.00729 0 0)
(0.605368 0 0)
(-0.603968 0 0)
(-1.00729 0 0)
(-0.985405 0 0)
(-0.98907 0 0)
(-0.989982 0 0)
(-0.991048 0 0)
(-0.991984 0 0)
(-0.992823 0 0)
(-0.993567 0 0)
(-0.99422 0 0)
(-0.994787 0 0)
(-0.99527 0 0)
(-0.995675 0 0)
(-0.996002 0 0)
(-0.996256 0 0)
(-0.996439 0 0)
(-0.996554 0 0)
(-0.996603 0 0)
(-0.996589 0 0)
(-0.996514 0 0)
(-0.996379 0 0)
(-0.996188 0 0)
(-0.99594 0 0)
(-0.99564 0 0)
(-0.995287 0 0)
(-0.994884 0 0)
(-0.994432 0 0)
(-0.993933 0 0)
(-0.993387 0 0)
(-0.992797 0 0)
(-0.992163 0 0)
(-0.991487 0 0)
(-0.99077 0 0)
(-0.990013 0 0)
(-0.989217 0 0)
(-0.988382 0 0)
(-0.987511 0 0)
(-0.986604 0 0)
(-0.985661 0 0)
(-0.984683 0 0)
(-0.983673 0 0)
(-0.982629 0 0)
(-0.981553 0 0)
(-0.980446 0 0)
(-0.979309 0 0)
(-0.978141 0 0)
(-0.976944 0 0)
(-0.975719 0 0)
(-0.974465 0 0)
(-0.973185 0 0)
(-0.971877 0 0)
(-0.970543 0 0)
(-0.969183 0 0)
(-0.967798 0 0)
(-0.966388 0 0)
(-0.964954 0 0)
(-0.963496 0 0)
(-0.962015 0 0)
(-0.960511 0 0)
(-0.958984 0 0)
(-0.957435 0 0)
(-0.955865 0 0)
(-0.954274 0 0)
(-0.952661 0 0)
(-0.951028 0 0)
(-0.949375 0 0)
(-0.947703 0 0)
(-0.946011 0 0)
(-0.944299 0 0)
(-0.942569 0 0)
(-0.940821 0 0)
(-0.939054 0 0)
(-0.93727 0 0)
(-0.935468 0 0)
(-0.933648 0 0)
(-0.931812 0 0)
(-0.929959 0 0)
(-0.92809 0 0)
(-0.926204 0 0)
(-0.924302 0 0)
(-0.922385 0 0)
(-0.920452 0 0)
(-0.918504 0 0)
(-0.916541 0 0)
(-0.914564 0 0)
(-0.912571 0 0)
(-0.910565 0 0)
(-0.908544 0 0)
(-0.906509 0 0)
(-0.904461 0 0)
(-0.902399 0 0)
(-0.900324 0 0)
(-0.898236 0 0)
(-0.896134 0 0)
(-0.89402 0 0)
(-0.891893 0 0)
(-0.889754 0 0)
(-0.887603 0 0)
(-0.885439 0 0)
(-0.883264 0 0)
(-0.881076 0 0)
(-0.878877 0 0)
(-0.876667 0 0)
(-0.874445 0 0)
(-0.872213 0 0)
(-0.869969 0 0)
(-0.867714 0 0)
(-0.865448 0 0)
(-0.863172 0 0)
(-0.860886 0 0)
(-0.858589 0 0)
(-0.856281 0 0)
(-0.853964 0 0)
(-0.851637 0 0)
(-0.8493 0 0)
(-0.846953 0 0)
(-0.844596 0 0)
(-0.84223 0 0)
(-0.839855 0 0)
(-0.837471 0 0)
(-0.835077 0 0)
(-0.832674 0 0)
(-0.830262 0 0)
(-0.827842 0 0)
(-0.825412 0 0)
(-0.822974 0 0)
(-0.820528 0 0)
(-0.818073 0 0)
(-0.815609 0 0)
(-0.813138 0 0)
(-0.810658 0 0)
(-0.80817 0 0)
(-0.805674 0 0)
(-0.803171 0 0)
(-0.800659 0 0)
(-0.79814 0 0)
(-0.795613 0 0)
(-0.793079 0 0)
(-0.790537 0 0)
(-0.787988 0 0)
(-0.785431 0 0)
(-0.782867 0 0)
(-0.780296 0 0)
(-0.777718 0 0)
(-0.775133 0 0)
(-0.772541 0 0)
(-0.769943 0 0)
(-0.767337 0 0)
(-0.764725 0 0)
(-0.762106 0 0)
(-0.75948 0 0)
(-0.756848 0 0)
(-0.75421 0 0)
(-0.751565 0 0)
(-0.748914 0 0)
(-0.746257 0 0)
(-0.743593 0 0)
(-0.740923 0 0)
(-0.738248 0 0)
(-0.735566 0 0)
(-0.732879 0 0)
(-0.730185 0 0)
(-0.727486 0 0)
(-0.724781 0 0)
(-0.72207 0 0)
(-0.719354 0 0)
(-0.716632 0 0)
(-0.713904 0 0)
(-0.711171 0 0)
(-0.708433 0 0)
(-0.705689 0 0)
(-0.70294 0 0)
(-0.700185 0 0)
(-0.697426 0 0)
(-0.694661 0 0)
(-0.691891 0 0)
(-0.689116 0 0)
(-0.686336 0 0)
(-0.683551 0 0)
(-0.680761 0 0)
(-0.677967 0 0)
(-0.675167 0 0)
(-0.672363 0 0)
(-0.669554 0 0)
(-0.66674 0 0)
(-0.663922 0 0)
(-0.661099 0 0)
(-0.658271 0 0)
(-0.655439 0 0)
(-0.652602 0 0)
(-0.649761 0 0)
(-0.646916 0 0)
(-0.644066 0 0)
(-0.641212 0 0)
(-0.638354 0 0)
(-0.635491 0 0)
(-0.632625 0 0)
(-0.629754 0 0)
(-0.626879 0 0)
(-0.623999 0 0)
(-0.621116 0 0)
(-0.618229 0 0)
(-0.615338 0 0)
(-0.612443 0 0)
(-0.609544 0 0)
(-0.606641 0 0)
(-0.603735 0 0)
(-0.600824 0 0)
(-0.59791 0 0)
(-0.594993 0 0)
(-0.592071 0 0)
(-0.589146 0 0)
(-0.586217 0 0)
(-0.583285 0 0)
(-0.580349 0 0)
(-0.577409 0 0)
(-0.574467 0 0)
(-0.57152 0 0)
(-0.56857 0 0)
(-0.565617 0 0)
(-0.562661 0 0)
(-0.559701 0 0)
(-0.556738 0 0)
(-0.553771 0 0)
(-0.550802 0 0)
(-0.547829 0 0)
(-0.544853 0 0)
(-0.541874 0 0)
(-0.538891 0 0)
(-0.535906 0 0)
(-0.532918 0 0)
(-0.529926 0 0)
(-0.526932 0 0)
(-0.523934 0 0)
(-0.520934 0 0)
(-0.517931 0 0)
(-0.514924 0 0)
(-0.511915 0 0)
(-0.508903 0 0)
(-0.505889 0 0)
(-0.502871 0 0)
(-0.499851 0 0)
(-0.496828 0 0)
(-0.493802 0 0)
(-0.490774 0 0)
(-0.487743 0 0)
(-0.484709 0 0)
(-0.481673 0 0)
(-0.478634 0 0)
(-0.475592 0 0)
(-0.472548 0 0)
(-0.469502 0 0)
(-0.466453 0 0)
(-0.463401 0 0)
(-0.460347 0 0)
(-0.457291 0 0)
(-0.454232 0 0)
(-0.451171 0 0)
(-0.448108 0 0)
(-0.445042 0 0)
(-0.441974 0 0)
(-0.438903 0 0)
(-0.435831 0 0)
(-0.432756 0 0)
(-0.429679 0 0)
(-0.426599 0 0)
(-0.423518 0 0)
(-0.420434 0 0)
(-0.417349 0 0)
(-0.414261 0 0)
(-0.411171 0 0)
(-0.408079 0 0)
(-0.404985 0 0)
(-0.401889 0 0)
(-0.398791 0 0)
(-0.395691 0 0)
(-0.392588 0 0)
(-0.389485 0 0)
(-0.386379 0 0)
(-0.383271 0 0)
(-0.380161 0 0)
(-0.37705 0 0)
(-0.373936 0 0)
(-0.370821 0 0)
(-0.367704 0 0)
(-0.364585 0 0)
(-0.361465 0 0)
(-0.358342 0 0)
(-0.355218 0 0)
(-0.352092 0 0)
(-0.348965 0 0)
(-0.345836 0 0)
(-0.342705 0 0)
(-0.339573 0 0)
(-0.336439 0 0)
(-0.333303 0 0)
(-0.330166 0 0)
(-0.327027 0 0)
(-0.323887 0 0)
(-0.320745 0 0)
(-0.317601 0 0)
(-0.314457 0 0)
(-0.31131 0 0)
(-0.308162 0 0)
(-0.305013 0 0)
(-0.301862 0 0)
(-0.29871 0 0)
(-0.295557 0 0)
(-0.292402 0 0)
(-0.289246 0 0)
(-0.286088 0 0)
(-0.28293 0 0)
(-0.279769 0 0)
(-0.276608 0 0)
(-0.273445 0 0)
(-0.270281 0 0)
(-0.267116 0 0)
(-0.26395 0 0)
(-0.260782 0 0)
(-0.257613 0 0)
(-0.254443 0 0)
(-0.251272 0 0)
(-0.2481 0 0)
(-0.244927 0 0)
(-0.241752 0 0)
(-0.238576 0 0)
(-0.2354 0 0)
(-0.232222 0 0)
(-0.229043 0 0)
(-0.225863 0 0)
(-0.222683 0 0)
(-0.219501 0 0)
(-0.216318 0 0)
(-0.213134 0 0)
(-0.20995 0 0)
(-0.206764 0 0)
(-0.203577 0 0)
(-0.20039 0 0)
(-0.197201 0 0)
(-0.194012 0 0)
(-0.190822 0 0)
(-0.187631 0 0)
(-0.184439 0 0)
(-0.181247 0 0)
(-0.178053 0 0)
(-0.174859 0 0)
(-0.171664 0 0)
(-0.168468 0 0)
(-0.165272 0 0)
(-0.162075 0 0)
(-0.158877 0 0)
(-0.155678 0 0)
(-0.152479 0 0)
(-0.149279 0 0)
(-0.146079 0 0)
(-0.142877 0 0)
(-0.139676 0 0)
(-0.136473 0 0)
(-0.13327 0 0)
(-0.130066 0 0)
(-0.126862 0 0)
(-0.123657 0 0)
(-0.120452 0 0)
(-0.117246 0 0)
(-0.11404 0 0)
(-0.110833 0 0)
(-0.107626 0 0)
(-0.104418 0 0)
(-0.10121 0 0)
(-0.0980013 0 0)
(-0.0947922 0 0)
(-0.0915828 0 0)
(-0.0883729 0 0)
(-0.0851626 0 0)
(-0.081952 0 0)
(-0.078741 0 0)
(-0.0755297 0 0)
(-0.0723181 0 0)
(-0.0691061 0 0)
(-0.0658938 0 0)
(-0.0626813 0 0)
(-0.0594685 0 0)
(-0.0562554 0 0)
(-0.0530421 0 0)
(-0.0498286 0 0)
(-0.0466149 0 0)
(-0.0434009 0 0)
(-0.0401868 0 0)
(-0.0369725 0 0)
(-0.033758 0 0)
(-0.0305434 0 0)
(-0.0273286 0 0)
(-0.0241138 0 0)
(-0.0208988 0 0)
(-0.0176838 0 0)
(-0.0144686 0 0)
(-0.0112535 0 0)
(-0.00803822 0 0)
(-0.00482294 0 0)
(-0.00160765 0 0)
)
;

boundaryField
{
    left
    {
        type            fixedValue;
        value           uniform (0 0 0);
    }
    right
    {
        type            fixedValue;
        value           uniform (0 0 0);
    }
    frontBackUpDown
    {
        type            empty;
    }
}


// ************************************************************************* //
