/*--------------------------------*- C++ -*----------------------------------*\
| =========                 |                                                 |
| \\      /  F ield         | OpenFOAM: The Open Source CFD Toolbox           |
|  \\    /   O peration     | Version:  2412                                  |
|   \\  /    A nd           | Website:  www.openfoam.com                      |
|    \\/     M anipulation  |                                                 |
\*---------------------------------------------------------------------------*/
FoamFile
{
    version     2.0;
    format      ascii;
    arch        "LSB;label=32;scalar=64";
    class       volVectorField;
    location    "0.46";
    object      U_0_0_0;
}
// * * * * * * * * * * * * * * * * * * * * * * * * * * * * * * * * * * * * * //

dimensions      [0 1 -1 0 0 0 0];

internalField   nonuniform List<vector> 
800
(
(0.0016097 0 0)
(0.00482912 0 0)
(0.00804853 0 0)
(0.0112679 0 0)
(0.0144872 0 0)
(0.0177065 0 0)
(0.0209257 0 0)
(0.0241448 0 0)
(0.0273638 0 0)
(0.0305826 0 0)
(0.0338014 0 0)
(0.03702 0 0)
(0.0402384 0 0)
(0.0434567 0 0)
(0.0466748 0 0)
(0.0498926 0 0)
(0.0531103 0 0)
(0.0563277 0 0)
(0.0595449 0 0)
(0.0627618 0 0)
(0.0659785 0 0)
(0.0691949 0 0)
(0.072411 0 0)
(0.0756267 0 0)
(0.0788422 0 0)
(0.0820573 0 0)
(0.085272 0 0)
(0.0884864 0 0)
(0.0917004 0 0)
(0.0949139 0 0)
(0.0981271 0 0)
(0.10134 0 0)
(0.104552 0 0)
(0.107764 0 0)
(0.110975 0 0)
(0.114186 0 0)
(0.117397 0 0)
(0.120607 0 0)
(0.123816 0 0)
(0.127025 0 0)
(0.130233 0 0)
(0.133441 0 0)
(0.136648 0 0)
(0.139854 0 0)
(0.14306 0 0)
(0.146266 0 0)
(0.14947 0 0)
(0.152674 0 0)
(0.155878 0 0)
(0.15908 0 0)
(0.162282 0 0)
(0.165483 0 0)
(0.168684 0 0)
(0.171884 0 0)
(0.175083 0 0)
(0.178281 0 0)
(0.181478 0 0)
(0.184675 0 0)
(0.187871 0 0)
(0.191066 0 0)
(0.19426 0 0)
(0.197453 0 0)
(0.200645 0 0)
(0.203837 0 0)
(0.207028 0 0)
(0.210217 0 0)
(0.213406 0 0)
(0.216594 0 0)
(0.21978 0 0)
(0.222966 0 0)
(0.226151 0 0)
(0.229335 0 0)
(0.232518 0 0)
(0.235699 0 0)
(0.23888 0 0)
(0.242059 0 0)
(0.245238 0 0)
(0.248415 0 0)
(0.251591 0 0)
(0.254766 0 0)
(0.25794 0 0)
(0.261113 0 0)
(0.264284 0 0)
(0.267455 0 0)
(0.270624 0 0)
(0.273792 0 0)
(0.276958 0 0)
(0.280124 0 0)
(0.283288 0 0)
(0.28645 0 0)
(0.289612 0 0)
(0.292772 0 0)
(0.29593 0 0)
(0.299088 0 0)
(0.302243 0 0)
(0.305398 0 0)
(0.308551 0 0)
(0.311703 0 0)
(0.314853 0 0)
(0.318001 0 0)
(0.321148 0 0)
(0.324294 0 0)
(0.327438 0 0)
(0.330581 0 0)
(0.333722 0 0)
(0.336861 0 0)
(0.339999 0 0)
(0.343135 0 0)
(0.346269 0 0)
(0.349402 0 0)
(0.352533 0 0)
(0.355663 0 0)
(0.358791 0 0)
(0.361917 0 0)
(0.365041 0 0)
(0.368163 0 0)
(0.371284 0 0)
(0.374403 0 0)
(0.37752 0 0)
(0.380635 0 0)
(0.383748 0 0)
(0.38686 0 0)
(0.389969 0 0)
(0.393077 0 0)
(0.396182 0 0)
(0.399286 0 0)
(0.402387 0 0)
(0.405487 0 0)
(0.408584 0 0)
(0.41168 0 0)
(0.414773 0 0)
(0.417865 0 0)
(0.420954 0 0)
(0.424041 0 0)
(0.427126 0 0)
(0.430209 0 0)
(0.433289 0 0)
(0.436367 0 0)
(0.439443 0 0)
(0.442517 0 0)
(0.445589 0 0)
(0.448658 0 0)
(0.451725 0 0)
(0.454789 0 0)
(0.457851 0 0)
(0.460911 0 0)
(0.463968 0 0)
(0.467023 0 0)
(0.470075 0 0)
(0.473125 0 0)
(0.476172 0 0)
(0.479217 0 0)
(0.482259 0 0)
(0.485298 0 0)
(0.488335 0 0)
(0.49137 0 0)
(0.494401 0 0)
(0.49743 0 0)
(0.500456 0 0)
(0.50348 0 0)
(0.5065 0 0)
(0.509518 0 0)
(0.512533 0 0)
(0.515545 0 0)
(0.518554 0 0)
(0.521561 0 0)
(0.524564 0 0)
(0.527565 0 0)
(0.530562 0 0)
(0.533556 0 0)
(0.536548 0 0)
(0.539536 0 0)
(0.542521 0 0)
(0.545503 0 0)
(0.548482 0 0)
(0.551458 0 0)
(0.55443 0 0)
(0.5574 0 0)
(0.560365 0 0)
(0.563328 0 0)
(0.566287 0 0)
(0.569243 0 0)
(0.572196 0 0)
(0.575145 0 0)
(0.57809 0 0)
(0.581032 0 0)
(0.583971 0 0)
(0.586906 0 0)
(0.589837 0 0)
(0.592765 0 0)
(0.595689 0 0)
(0.598609 0 0)
(0.601526 0 0)
(0.604439 0 0)
(0.607348 0 0)
(0.610253 0 0)
(0.613155 0 0)
(0.616052 0 0)
(0.618946 0 0)
(0.621835 0 0)
(0.62472 0 0)
(0.627602 0 0)
(0.630479 0 0)
(0.633352 0 0)
(0.636221 0 0)
(0.639086 0 0)
(0.641947 0 0)
(0.644803 0 0)
(0.647655 0 0)
(0.650502 0 0)
(0.653345 0 0)
(0.656184 0 0)
(0.659018 0 0)
(0.661848 0 0)
(0.664673 0 0)
(0.667493 0 0)
(0.670309 0 0)
(0.67312 0 0)
(0.675926 0 0)
(0.678727 0 0)
(0.681524 0 0)
(0.684316 0 0)
(0.687102 0 0)
(0.689884 0 0)
(0.692661 0 0)
(0.695432 0 0)
(0.698198 0 0)
(0.70096 0 0)
(0.703716 0 0)
(0.706466 0 0)
(0.709212 0 0)
(0.711951 0 0)
(0.714686 0 0)
(0.717415 0 0)
(0.720138 0 0)
(0.722856 0 0)
(0.725568 0 0)
(0.728274 0 0)
(0.730975 0 0)
(0.73367 0 0)
(0.736358 0 0)
(0.739041 0 0)
(0.741718 0 0)
(0.744389 0 0)
(0.747053 0 0)
(0.749711 0 0)
(0.752363 0 0)
(0.755009 0 0)
(0.757648 0 0)
(0.760281 0 0)
(0.762907 0 0)
(0.765527 0 0)
(0.76814 0 0)
(0.770746 0 0)
(0.773346 0 0)
(0.775938 0 0)
(0.778524 0 0)
(0.781102 0 0)
(0.783674 0 0)
(0.786238 0 0)
(0.788795 0 0)
(0.791344 0 0)
(0.793886 0 0)
(0.796421 0 0)
(0.798948 0 0)
(0.801467 0 0)
(0.803979 0 0)
(0.806482 0 0)
(0.808978 0 0)
(0.811466 0 0)
(0.813945 0 0)
(0.816417 0 0)
(0.81888 0 0)
(0.821334 0 0)
(0.82378 0 0)
(0.826218 0 0)
(0.828647 0 0)
(0.831067 0 0)
(0.833478 0 0)
(0.83588 0 0)
(0.838273 0 0)
(0.840657 0 0)
(0.843031 0 0)
(0.845396 0 0)
(0.847752 0 0)
(0.850098 0 0)
(0.852434 0 0)
(0.85476 0 0)
(0.857076 0 0)
(0.859382 0 0)
(0.861677 0 0)
(0.863962 0 0)
(0.866237 0 0)
(0.868501 0 0)
(0.870754 0 0)
(0.872996 0 0)
(0.875227 0 0)
(0.877446 0 0)
(0.879655 0 0)
(0.881852 0 0)
(0.884037 0 0)
(0.88621 0 0)
(0.888371 0 0)
(0.89052 0 0)
(0.892656 0 0)
(0.894781 0 0)
(0.896892 0 0)
(0.89899 0 0)
(0.901076 0 0)
(0.903148 0 0)
(0.905207 0 0)
(0.907252 0 0)
(0.909283 0 0)
(0.9113 0 0)
(0.913303 0 0)
(0.915292 0 0)
(0.917266 0 0)
(0.919225 0 0)
(0.921169 0 0)
(0.923097 0 0)
(0.92501 0 0)
(0.926908 0 0)
(0.928789 0 0)
(0.930653 0 0)
(0.932502 0 0)
(0.934333 0 0)
(0.936147 0 0)
(0.937944 0 0)
(0.939723 0 0)
(0.941484 0 0)
(0.943227 0 0)
(0.944951 0 0)
(0.946656 0 0)
(0.948342 0 0)
(0.950009 0 0)
(0.951655 0 0)
(0.953281 0 0)
(0.954887 0 0)
(0.956471 0 0)
(0.958034 0 0)
(0.959575 0 0)
(0.961094 0 0)
(0.962591 0 0)
(0.964064 0 0)
(0.965514 0 0)
(0.966939 0 0)
(0.96834 0 0)
(0.969716 0 0)
(0.971067 0 0)
(0.972392 0 0)
(0.97369 0 0)
(0.974961 0 0)
(0.976204 0 0)
(0.977419 0 0)
(0.978605 0 0)
(0.979762 0 0)
(0.980888 0 0)
(0.981983 0 0)
(0.983047 0 0)
(0.984078 0 0)
(0.985076 0 0)
(0.986041 0 0)
(0.98697 0 0)
(0.987864 0 0)
(0.988721 0 0)
(0.989541 0 0)
(0.990322 0 0)
(0.991064 0 0)
(0.991765 0 0)
(0.992425 0 0)
(0.993042 0 0)
(0.993615 0 0)
(0.994142 0 0)
(0.994623 0 0)
(0.995056 0 0)
(0.99544 0 0)
(0.995772 0 0)
(0.996052 0 0)
(0.996277 0 0)
(0.996447 0 0)
(0.996558 0 0)
(0.99661 0 0)
(0.996599 0 0)
(0.996524 0 0)
(0.996383 0 0)
(0.996172 0 0)
(0.99589 0 0)
(0.995533 0 0)
(0.995098 0 0)
(0.994582 0 0)
(0.993982 0 0)
(0.993294 0 0)
(0.992514 0 0)
(0.991637 0 0)
(0.990662 0 0)
(0.989555 0 0)
(0.988596 0 0)
(0.984912 0 0)
(1.00658 0 0)
(0.60457 0 0)
(-0.603171 0 0)
(-1.00658 0 0)
(-0.984911 0 0)
(-0.988595 0 0)
(-0.989554 0 0)
(-0.990661 0 0)
(-0.991636 0 0)
(-0.992513 0 0)
(-0.993293 0 0)
(-0.993982 0 0)
(-0.994582 0 0)
(-0.995098 0 0)
(-0.995532 0 0)
(-0.99589 0 0)
(-0.996172 0 0)
(-0.996383 0 0)
(-0.996524 0 0)
(-0.996599 0 0)
(-0.99661 0 0)
(-0.996558 0 0)
(-0.996447 0 0)
(-0.996277 0 0)
(-0.996052 0 0)
(-0.995772 0 0)
(-0.995439 0 0)
(-0.995056 0 0)
(-0.994623 0 0)
(-0.994142 0 0)
(-0.993614 0 0)
(-0.993042 0 0)
(-0.992425 0 0)
(-0.991765 0 0)
(-0.991064 0 0)
(-0.990322 0 0)
(-0.989541 0 0)
(-0.988721 0 0)
(-0.987864 0 0)
(-0.98697 0 0)
(-0.98604 0 0)
(-0.985076 0 0)
(-0.984078 0 0)
(-0.983046 0 0)
(-0.981983 0 0)
(-0.980887 0 0)
(-0.979761 0 0)
(-0.978605 0 0)
(-0.977418 0 0)
(-0.976203 0 0)
(-0.97496 0 0)
(-0.973689 0 0)
(-0.972391 0 0)
(-0.971066 0 0)
(-0.969716 0 0)
(-0.968339 0 0)
(-0.966938 0 0)
(-0.965513 0 0)
(-0.964063 0 0)
(-0.96259 0 0)
(-0.961093 0 0)
(-0.959574 0 0)
(-0.958033 0 0)
(-0.95647 0 0)
(-0.954886 0 0)
(-0.95328 0 0)
(-0.951654 0 0)
(-0.950007 0 0)
(-0.948341 0 0)
(-0.946655 0 0)
(-0.94495 0 0)
(-0.943225 0 0)
(-0.941483 0 0)
(-0.939722 0 0)
(-0.937942 0 0)
(-0.936146 0 0)
(-0.934331 0 0)
(-0.9325 0 0)
(-0.930652 0 0)
(-0.928787 0 0)
(-0.926906 0 0)
(-0.925009 0 0)
(-0.923096 0 0)
(-0.921167 0 0)
(-0.919223 0 0)
(-0.917264 0 0)
(-0.91529 0 0)
(-0.913302 0 0)
(-0.911299 0 0)
(-0.909281 0 0)
(-0.90725 0 0)
(-0.905205 0 0)
(-0.903146 0 0)
(-0.901074 0 0)
(-0.898989 0 0)
(-0.89689 0 0)
(-0.894779 0 0)
(-0.892655 0 0)
(-0.890518 0 0)
(-0.888369 0 0)
(-0.886208 0 0)
(-0.884035 0 0)
(-0.88185 0 0)
(-0.879653 0 0)
(-0.877444 0 0)
(-0.875225 0 0)
(-0.872994 0 0)
(-0.870752 0 0)
(-0.868499 0 0)
(-0.866235 0 0)
(-0.86396 0 0)
(-0.861675 0 0)
(-0.859379 0 0)
(-0.857074 0 0)
(-0.854758 0 0)
(-0.852432 0 0)
(-0.850096 0 0)
(-0.84775 0 0)
(-0.845394 0 0)
(-0.843029 0 0)
(-0.840655 0 0)
(-0.838271 0 0)
(-0.835878 0 0)
(-0.833476 0 0)
(-0.831065 0 0)
(-0.828645 0 0)
(-0.826216 0 0)
(-0.823778 0 0)
(-0.821332 0 0)
(-0.818877 0 0)
(-0.816414 0 0)
(-0.813943 0 0)
(-0.811463 0 0)
(-0.808976 0 0)
(-0.80648 0 0)
(-0.803976 0 0)
(-0.801465 0 0)
(-0.798946 0 0)
(-0.796419 0 0)
(-0.793884 0 0)
(-0.791342 0 0)
(-0.788792 0 0)
(-0.786235 0 0)
(-0.783671 0 0)
(-0.7811 0 0)
(-0.778521 0 0)
(-0.775936 0 0)
(-0.773343 0 0)
(-0.770744 0 0)
(-0.768138 0 0)
(-0.765525 0 0)
(-0.762905 0 0)
(-0.760279 0 0)
(-0.757646 0 0)
(-0.755007 0 0)
(-0.752361 0 0)
(-0.749709 0 0)
(-0.747051 0 0)
(-0.744386 0 0)
(-0.741716 0 0)
(-0.739039 0 0)
(-0.736356 0 0)
(-0.733667 0 0)
(-0.730973 0 0)
(-0.728272 0 0)
(-0.725566 0 0)
(-0.722854 0 0)
(-0.720136 0 0)
(-0.717413 0 0)
(-0.714684 0 0)
(-0.711949 0 0)
(-0.709209 0 0)
(-0.706464 0 0)
(-0.703713 0 0)
(-0.700958 0 0)
(-0.698196 0 0)
(-0.69543 0 0)
(-0.692658 0 0)
(-0.689882 0 0)
(-0.6871 0 0)
(-0.684313 0 0)
(-0.681522 0 0)
(-0.678725 0 0)
(-0.675924 0 0)
(-0.673118 0 0)
(-0.670307 0 0)
(-0.667491 0 0)
(-0.664671 0 0)
(-0.661846 0 0)
(-0.659016 0 0)
(-0.656182 0 0)
(-0.653343 0 0)
(-0.6505 0 0)
(-0.647653 0 0)
(-0.644801 0 0)
(-0.641945 0 0)
(-0.639084 0 0)
(-0.636219 0 0)
(-0.63335 0 0)
(-0.630477 0 0)
(-0.6276 0 0)
(-0.624719 0 0)
(-0.621833 0 0)
(-0.618944 0 0)
(-0.61605 0 0)
(-0.613153 0 0)
(-0.610251 0 0)
(-0.607346 0 0)
(-0.604437 0 0)
(-0.601524 0 0)
(-0.598608 0 0)
(-0.595687 0 0)
(-0.592763 0 0)
(-0.589836 0 0)
(-0.586904 0 0)
(-0.583969 0 0)
(-0.581031 0 0)
(-0.578089 0 0)
(-0.575143 0 0)
(-0.572194 0 0)
(-0.569242 0 0)
(-0.566286 0 0)
(-0.563326 0 0)
(-0.560364 0 0)
(-0.557398 0 0)
(-0.554429 0 0)
(-0.551456 0 0)
(-0.548481 0 0)
(-0.545502 0 0)
(-0.54252 0 0)
(-0.539534 0 0)
(-0.536546 0 0)
(-0.533555 0 0)
(-0.53056 0 0)
(-0.527563 0 0)
(-0.524563 0 0)
(-0.521559 0 0)
(-0.518553 0 0)
(-0.515544 0 0)
(-0.512532 0 0)
(-0.509517 0 0)
(-0.506499 0 0)
(-0.503478 0 0)
(-0.500455 0 0)
(-0.497429 0 0)
(-0.4944 0 0)
(-0.491368 0 0)
(-0.488334 0 0)
(-0.485297 0 0)
(-0.482258 0 0)
(-0.479216 0 0)
(-0.476171 0 0)
(-0.473124 0 0)
(-0.470074 0 0)
(-0.467022 0 0)
(-0.463967 0 0)
(-0.46091 0 0)
(-0.45785 0 0)
(-0.454788 0 0)
(-0.451724 0 0)
(-0.448657 0 0)
(-0.445588 0 0)
(-0.442516 0 0)
(-0.439442 0 0)
(-0.436366 0 0)
(-0.433288 0 0)
(-0.430208 0 0)
(-0.427125 0 0)
(-0.42404 0 0)
(-0.420953 0 0)
(-0.417864 0 0)
(-0.414772 0 0)
(-0.411679 0 0)
(-0.408584 0 0)
(-0.405486 0 0)
(-0.402386 0 0)
(-0.399285 0 0)
(-0.396181 0 0)
(-0.393076 0 0)
(-0.389968 0 0)
(-0.386859 0 0)
(-0.383747 0 0)
(-0.380634 0 0)
(-0.377519 0 0)
(-0.374402 0 0)
(-0.371283 0 0)
(-0.368162 0 0)
(-0.36504 0 0)
(-0.361916 0 0)
(-0.35879 0 0)
(-0.355662 0 0)
(-0.352533 0 0)
(-0.349402 0 0)
(-0.346269 0 0)
(-0.343134 0 0)
(-0.339998 0 0)
(-0.33686 0 0)
(-0.333721 0 0)
(-0.33058 0 0)
(-0.327438 0 0)
(-0.324293 0 0)
(-0.321148 0 0)
(-0.318001 0 0)
(-0.314852 0 0)
(-0.311702 0 0)
(-0.30855 0 0)
(-0.305397 0 0)
(-0.302243 0 0)
(-0.299087 0 0)
(-0.29593 0 0)
(-0.292771 0 0)
(-0.289611 0 0)
(-0.28645 0 0)
(-0.283287 0 0)
(-0.280123 0 0)
(-0.276958 0 0)
(-0.273791 0 0)
(-0.270623 0 0)
(-0.267454 0 0)
(-0.264284 0 0)
(-0.261113 0 0)
(-0.25794 0 0)
(-0.254766 0 0)
(-0.251591 0 0)
(-0.248415 0 0)
(-0.245237 0 0)
(-0.242059 0 0)
(-0.238879 0 0)
(-0.235699 0 0)
(-0.232517 0 0)
(-0.229334 0 0)
(-0.226151 0 0)
(-0.222966 0 0)
(-0.21978 0 0)
(-0.216593 0 0)
(-0.213406 0 0)
(-0.210217 0 0)
(-0.207027 0 0)
(-0.203837 0 0)
(-0.200645 0 0)
(-0.197453 0 0)
(-0.19426 0 0)
(-0.191065 0 0)
(-0.187871 0 0)
(-0.184675 0 0)
(-0.181478 0 0)
(-0.178281 0 0)
(-0.175082 0 0)
(-0.171884 0 0)
(-0.168684 0 0)
(-0.165483 0 0)
(-0.162282 0 0)
(-0.15908 0 0)
(-0.155878 0 0)
(-0.152674 0 0)
(-0.14947 0 0)
(-0.146266 0 0)
(-0.14306 0 0)
(-0.139854 0 0)
(-0.136648 0 0)
(-0.133441 0 0)
(-0.130233 0 0)
(-0.127025 0 0)
(-0.123816 0 0)
(-0.120607 0 0)
(-0.117397 0 0)
(-0.114186 0 0)
(-0.110975 0 0)
(-0.107764 0 0)
(-0.104552 0 0)
(-0.10134 0 0)
(-0.0981271 0 0)
(-0.0949139 0 0)
(-0.0917003 0 0)
(-0.0884863 0 0)
(-0.0852719 0 0)
(-0.0820572 0 0)
(-0.0788421 0 0)
(-0.0756267 0 0)
(-0.0724109 0 0)
(-0.0691949 0 0)
(-0.0659785 0 0)
(-0.0627618 0 0)
(-0.0595449 0 0)
(-0.0563277 0 0)
(-0.0531103 0 0)
(-0.0498926 0 0)
(-0.0466748 0 0)
(-0.0434567 0 0)
(-0.0402384 0 0)
(-0.03702 0 0)
(-0.0338014 0 0)
(-0.0305826 0 0)
(-0.0273638 0 0)
(-0.0241448 0 0)
(-0.0209257 0 0)
(-0.0177065 0 0)
(-0.0144872 0 0)
(-0.0112679 0 0)
(-0.00804855 0 0)
(-0.00482914 0 0)
(-0.00160972 0 0)
)
;

boundaryField
{
    left
    {
        type            fixedValue;
        value           uniform (0 0 0);
    }
    right
    {
        type            fixedValue;
        value           uniform (0 0 0);
    }
    frontBackUpDown
    {
        type            empty;
    }
}


// ************************************************************************* //
