/*--------------------------------*- C++ -*----------------------------------*\
| =========                 |                                                 |
| \\      /  F ield         | OpenFOAM: The Open Source CFD Toolbox           |
|  \\    /   O peration     | Version:  2412                                  |
|   \\  /    A nd           | Website:  www.openfoam.com                      |
|    \\/     M anipulation  |                                                 |
\*---------------------------------------------------------------------------*/
FoamFile
{
    version     2.0;
    format      ascii;
    arch        "LSB;label=32;scalar=64";
    class       volVectorField;
    location    "0.63";
    object      U;
}
// * * * * * * * * * * * * * * * * * * * * * * * * * * * * * * * * * * * * * //

dimensions      [0 1 -1 0 0 0 0];

internalField   nonuniform List<vector> 
800
(
(0.00131894 0 0)
(0.00395685 0 0)
(0.00659474 0 0)
(0.00923263 0 0)
(0.0118705 0 0)
(0.0145083 0 0)
(0.0171461 0 0)
(0.0197839 0 0)
(0.0224216 0 0)
(0.0250592 0 0)
(0.0276968 0 0)
(0.0303344 0 0)
(0.0329718 0 0)
(0.0356092 0 0)
(0.0382465 0 0)
(0.0408837 0 0)
(0.0435208 0 0)
(0.0461578 0 0)
(0.0487947 0 0)
(0.0514315 0 0)
(0.0540681 0 0)
(0.0567047 0 0)
(0.0593411 0 0)
(0.0619773 0 0)
(0.0646134 0 0)
(0.0672494 0 0)
(0.0698852 0 0)
(0.0725208 0 0)
(0.0751562 0 0)
(0.0777915 0 0)
(0.0804266 0 0)
(0.0830615 0 0)
(0.0856961 0 0)
(0.0883306 0 0)
(0.0909649 0 0)
(0.093599 0 0)
(0.0962328 0 0)
(0.0988664 0 0)
(0.1015 0 0)
(0.104133 0 0)
(0.106766 0 0)
(0.109398 0 0)
(0.112031 0 0)
(0.114663 0 0)
(0.117295 0 0)
(0.119926 0 0)
(0.122557 0 0)
(0.125188 0 0)
(0.127819 0 0)
(0.130449 0 0)
(0.133079 0 0)
(0.135709 0 0)
(0.138338 0 0)
(0.140967 0 0)
(0.143596 0 0)
(0.146224 0 0)
(0.148852 0 0)
(0.15148 0 0)
(0.154107 0 0)
(0.156734 0 0)
(0.159361 0 0)
(0.161987 0 0)
(0.164612 0 0)
(0.167238 0 0)
(0.169863 0 0)
(0.172487 0 0)
(0.175111 0 0)
(0.177735 0 0)
(0.180358 0 0)
(0.182981 0 0)
(0.185603 0 0)
(0.188225 0 0)
(0.190846 0 0)
(0.193467 0 0)
(0.196087 0 0)
(0.198707 0 0)
(0.201327 0 0)
(0.203946 0 0)
(0.206564 0 0)
(0.209182 0 0)
(0.2118 0 0)
(0.214417 0 0)
(0.217033 0 0)
(0.219649 0 0)
(0.222264 0 0)
(0.224879 0 0)
(0.227493 0 0)
(0.230106 0 0)
(0.232719 0 0)
(0.235332 0 0)
(0.237944 0 0)
(0.240555 0 0)
(0.243166 0 0)
(0.245776 0 0)
(0.248385 0 0)
(0.250994 0 0)
(0.253602 0 0)
(0.256209 0 0)
(0.258816 0 0)
(0.261422 0 0)
(0.264028 0 0)
(0.266633 0 0)
(0.269237 0 0)
(0.27184 0 0)
(0.274443 0 0)
(0.277045 0 0)
(0.279647 0 0)
(0.282247 0 0)
(0.284847 0 0)
(0.287446 0 0)
(0.290045 0 0)
(0.292642 0 0)
(0.295239 0 0)
(0.297835 0 0)
(0.300431 0 0)
(0.303025 0 0)
(0.305619 0 0)
(0.308212 0 0)
(0.310804 0 0)
(0.313396 0 0)
(0.315986 0 0)
(0.318576 0 0)
(0.321165 0 0)
(0.323753 0 0)
(0.32634 0 0)
(0.328926 0 0)
(0.331512 0 0)
(0.334096 0 0)
(0.33668 0 0)
(0.339263 0 0)
(0.341845 0 0)
(0.344426 0 0)
(0.347006 0 0)
(0.349585 0 0)
(0.352163 0 0)
(0.35474 0 0)
(0.357316 0 0)
(0.359891 0 0)
(0.362466 0 0)
(0.365039 0 0)
(0.367611 0 0)
(0.370183 0 0)
(0.372753 0 0)
(0.375322 0 0)
(0.37789 0 0)
(0.380457 0 0)
(0.383023 0 0)
(0.385589 0 0)
(0.388153 0 0)
(0.390715 0 0)
(0.393277 0 0)
(0.395838 0 0)
(0.398397 0 0)
(0.400956 0 0)
(0.403513 0 0)
(0.40607 0 0)
(0.408625 0 0)
(0.411178 0 0)
(0.413731 0 0)
(0.416283 0 0)
(0.418833 0 0)
(0.421382 0 0)
(0.42393 0 0)
(0.426477 0 0)
(0.429022 0 0)
(0.431567 0 0)
(0.43411 0 0)
(0.436651 0 0)
(0.439192 0 0)
(0.441731 0 0)
(0.444269 0 0)
(0.446805 0 0)
(0.449341 0 0)
(0.451875 0 0)
(0.454407 0 0)
(0.456938 0 0)
(0.459468 0 0)
(0.461997 0 0)
(0.464524 0 0)
(0.46705 0 0)
(0.469574 0 0)
(0.472097 0 0)
(0.474618 0 0)
(0.477138 0 0)
(0.479657 0 0)
(0.482174 0 0)
(0.48469 0 0)
(0.487204 0 0)
(0.489716 0 0)
(0.492228 0 0)
(0.494737 0 0)
(0.497245 0 0)
(0.499752 0 0)
(0.502257 0 0)
(0.50476 0 0)
(0.507262 0 0)
(0.509762 0 0)
(0.51226 0 0)
(0.514757 0 0)
(0.517253 0 0)
(0.519746 0 0)
(0.522238 0 0)
(0.524728 0 0)
(0.527217 0 0)
(0.529704 0 0)
(0.532189 0 0)
(0.534672 0 0)
(0.537154 0 0)
(0.539634 0 0)
(0.542112 0 0)
(0.544588 0 0)
(0.547062 0 0)
(0.549535 0 0)
(0.552006 0 0)
(0.554475 0 0)
(0.556942 0 0)
(0.559407 0 0)
(0.56187 0 0)
(0.564331 0 0)
(0.566791 0 0)
(0.569248 0 0)
(0.571704 0 0)
(0.574157 0 0)
(0.576609 0 0)
(0.579058 0 0)
(0.581506 0 0)
(0.583951 0 0)
(0.586394 0 0)
(0.588836 0 0)
(0.591275 0 0)
(0.593712 0 0)
(0.596147 0 0)
(0.59858 0 0)
(0.60101 0 0)
(0.603439 0 0)
(0.605865 0 0)
(0.608289 0 0)
(0.61071 0 0)
(0.61313 0 0)
(0.615547 0 0)
(0.617962 0 0)
(0.620375 0 0)
(0.622785 0 0)
(0.625193 0 0)
(0.627598 0 0)
(0.630001 0 0)
(0.632402 0 0)
(0.6348 0 0)
(0.637196 0 0)
(0.639589 0 0)
(0.64198 0 0)
(0.644368 0 0)
(0.646754 0 0)
(0.649137 0 0)
(0.651518 0 0)
(0.653896 0 0)
(0.656271 0 0)
(0.658644 0 0)
(0.661014 0 0)
(0.663381 0 0)
(0.665746 0 0)
(0.668108 0 0)
(0.670467 0 0)
(0.672823 0 0)
(0.675177 0 0)
(0.677528 0 0)
(0.679875 0 0)
(0.68222 0 0)
(0.684562 0 0)
(0.686901 0 0)
(0.689237 0 0)
(0.69157 0 0)
(0.693901 0 0)
(0.696228 0 0)
(0.698551 0 0)
(0.700872 0 0)
(0.70319 0 0)
(0.705505 0 0)
(0.707816 0 0)
(0.710124 0 0)
(0.712429 0 0)
(0.714731 0 0)
(0.717029 0 0)
(0.719324 0 0)
(0.721615 0 0)
(0.723904 0 0)
(0.726188 0 0)
(0.72847 0 0)
(0.730748 0 0)
(0.733022 0 0)
(0.735293 0 0)
(0.73756 0 0)
(0.739823 0 0)
(0.742083 0 0)
(0.744339 0 0)
(0.746592 0 0)
(0.74884 0 0)
(0.751085 0 0)
(0.753326 0 0)
(0.755563 0 0)
(0.757797 0 0)
(0.760026 0 0)
(0.762251 0 0)
(0.764472 0 0)
(0.76669 0 0)
(0.768903 0 0)
(0.771112 0 0)
(0.773316 0 0)
(0.775517 0 0)
(0.777713 0 0)
(0.779905 0 0)
(0.782093 0 0)
(0.784276 0 0)
(0.786454 0 0)
(0.788628 0 0)
(0.790798 0 0)
(0.792963 0 0)
(0.795123 0 0)
(0.797279 0 0)
(0.79943 0 0)
(0.801576 0 0)
(0.803717 0 0)
(0.805854 0 0)
(0.807985 0 0)
(0.810112 0 0)
(0.812233 0 0)
(0.814349 0 0)
(0.816461 0 0)
(0.818566 0 0)
(0.820667 0 0)
(0.822762 0 0)
(0.824852 0 0)
(0.826937 0 0)
(0.829016 0 0)
(0.831089 0 0)
(0.833156 0 0)
(0.835218 0 0)
(0.837275 0 0)
(0.839325 0 0)
(0.841369 0 0)
(0.843408 0 0)
(0.84544 0 0)
(0.847466 0 0)
(0.849486 0 0)
(0.8515 0 0)
(0.853507 0 0)
(0.855508 0 0)
(0.857502 0 0)
(0.85949 0 0)
(0.861471 0 0)
(0.863446 0 0)
(0.865413 0 0)
(0.867374 0 0)
(0.869327 0 0)
(0.871274 0 0)
(0.873213 0 0)
(0.875145 0 0)
(0.87707 0 0)
(0.878987 0 0)
(0.880896 0 0)
(0.882798 0 0)
(0.884692 0 0)
(0.886578 0 0)
(0.888456 0 0)
(0.890326 0 0)
(0.892187 0 0)
(0.894041 0 0)
(0.895886 0 0)
(0.897722 0 0)
(0.899549 0 0)
(0.901368 0 0)
(0.903178 0 0)
(0.904978 0 0)
(0.90677 0 0)
(0.908552 0 0)
(0.910324 0 0)
(0.912087 0 0)
(0.91384 0 0)
(0.915583 0 0)
(0.917316 0 0)
(0.919038 0 0)
(0.92075 0 0)
(0.922452 0 0)
(0.924142 0 0)
(0.925822 0 0)
(0.927491 0 0)
(0.929148 0 0)
(0.930793 0 0)
(0.932427 0 0)
(0.934049 0 0)
(0.935659 0 0)
(0.937257 0 0)
(0.938842 0 0)
(0.940414 0 0)
(0.941974 0 0)
(0.943509 0 0)
(0.945158 0 0)
(0.945362 0 0)
(0.961459 0 0)
(0.565236 0 0)
(-0.563873 0 0)
(-0.961427 0 0)
(-0.945363 0 0)
(-0.945156 0 0)
(-0.943508 0 0)
(-0.941972 0 0)
(-0.940412 0 0)
(-0.93884 0 0)
(-0.937255 0 0)
(-0.935658 0 0)
(-0.934048 0 0)
(-0.932426 0 0)
(-0.930792 0 0)
(-0.929146 0 0)
(-0.927489 0 0)
(-0.92582 0 0)
(-0.924141 0 0)
(-0.92245 0 0)
(-0.920748 0 0)
(-0.919036 0 0)
(-0.917314 0 0)
(-0.915581 0 0)
(-0.913838 0 0)
(-0.912085 0 0)
(-0.910322 0 0)
(-0.90855 0 0)
(-0.906768 0 0)
(-0.904976 0 0)
(-0.903176 0 0)
(-0.901366 0 0)
(-0.899547 0 0)
(-0.89772 0 0)
(-0.895884 0 0)
(-0.894039 0 0)
(-0.892185 0 0)
(-0.890324 0 0)
(-0.888454 0 0)
(-0.886576 0 0)
(-0.88469 0 0)
(-0.882796 0 0)
(-0.880894 0 0)
(-0.878984 0 0)
(-0.877067 0 0)
(-0.875143 0 0)
(-0.873211 0 0)
(-0.871272 0 0)
(-0.869325 0 0)
(-0.867372 0 0)
(-0.865411 0 0)
(-0.863444 0 0)
(-0.861469 0 0)
(-0.859488 0 0)
(-0.8575 0 0)
(-0.855506 0 0)
(-0.853505 0 0)
(-0.851497 0 0)
(-0.849484 0 0)
(-0.847464 0 0)
(-0.845438 0 0)
(-0.843405 0 0)
(-0.841367 0 0)
(-0.839322 0 0)
(-0.837272 0 0)
(-0.835216 0 0)
(-0.833154 0 0)
(-0.831086 0 0)
(-0.829013 0 0)
(-0.826934 0 0)
(-0.82485 0 0)
(-0.82276 0 0)
(-0.820665 0 0)
(-0.818564 0 0)
(-0.816458 0 0)
(-0.814347 0 0)
(-0.812231 0 0)
(-0.810109 0 0)
(-0.807983 0 0)
(-0.805852 0 0)
(-0.803715 0 0)
(-0.801574 0 0)
(-0.799428 0 0)
(-0.797277 0 0)
(-0.795121 0 0)
(-0.792961 0 0)
(-0.790796 0 0)
(-0.788626 0 0)
(-0.786452 0 0)
(-0.784273 0 0)
(-0.78209 0 0)
(-0.779903 0 0)
(-0.777711 0 0)
(-0.775514 0 0)
(-0.773314 0 0)
(-0.771109 0 0)
(-0.7689 0 0)
(-0.766687 0 0)
(-0.76447 0 0)
(-0.762249 0 0)
(-0.760024 0 0)
(-0.757794 0 0)
(-0.755561 0 0)
(-0.753324 0 0)
(-0.751083 0 0)
(-0.748838 0 0)
(-0.746589 0 0)
(-0.744337 0 0)
(-0.742081 0 0)
(-0.739821 0 0)
(-0.737557 0 0)
(-0.73529 0 0)
(-0.73302 0 0)
(-0.730745 0 0)
(-0.728467 0 0)
(-0.726186 0 0)
(-0.723901 0 0)
(-0.721613 0 0)
(-0.719322 0 0)
(-0.717027 0 0)
(-0.714728 0 0)
(-0.712427 0 0)
(-0.710122 0 0)
(-0.707814 0 0)
(-0.705502 0 0)
(-0.703188 0 0)
(-0.70087 0 0)
(-0.698549 0 0)
(-0.696225 0 0)
(-0.693898 0 0)
(-0.691568 0 0)
(-0.689235 0 0)
(-0.686899 0 0)
(-0.68456 0 0)
(-0.682218 0 0)
(-0.679873 0 0)
(-0.677525 0 0)
(-0.675175 0 0)
(-0.672821 0 0)
(-0.670465 0 0)
(-0.668106 0 0)
(-0.665744 0 0)
(-0.663379 0 0)
(-0.661012 0 0)
(-0.658642 0 0)
(-0.656269 0 0)
(-0.653894 0 0)
(-0.651516 0 0)
(-0.649135 0 0)
(-0.646752 0 0)
(-0.644366 0 0)
(-0.641978 0 0)
(-0.639587 0 0)
(-0.637194 0 0)
(-0.634798 0 0)
(-0.6324 0 0)
(-0.629999 0 0)
(-0.627596 0 0)
(-0.625191 0 0)
(-0.622783 0 0)
(-0.620373 0 0)
(-0.61796 0 0)
(-0.615545 0 0)
(-0.613128 0 0)
(-0.610709 0 0)
(-0.608287 0 0)
(-0.605863 0 0)
(-0.603437 0 0)
(-0.601008 0 0)
(-0.598578 0 0)
(-0.596145 0 0)
(-0.59371 0 0)
(-0.591273 0 0)
(-0.588834 0 0)
(-0.586393 0 0)
(-0.583949 0 0)
(-0.581504 0 0)
(-0.579056 0 0)
(-0.576607 0 0)
(-0.574156 0 0)
(-0.571702 0 0)
(-0.569247 0 0)
(-0.566789 0 0)
(-0.56433 0 0)
(-0.561868 0 0)
(-0.559405 0 0)
(-0.55694 0 0)
(-0.554473 0 0)
(-0.552004 0 0)
(-0.549533 0 0)
(-0.547061 0 0)
(-0.544586 0 0)
(-0.54211 0 0)
(-0.539632 0 0)
(-0.537152 0 0)
(-0.534671 0 0)
(-0.532187 0 0)
(-0.529702 0 0)
(-0.527215 0 0)
(-0.524727 0 0)
(-0.522237 0 0)
(-0.519745 0 0)
(-0.517251 0 0)
(-0.514756 0 0)
(-0.512259 0 0)
(-0.50976 0 0)
(-0.50726 0 0)
(-0.504759 0 0)
(-0.502255 0 0)
(-0.49975 0 0)
(-0.497244 0 0)
(-0.494736 0 0)
(-0.492226 0 0)
(-0.489715 0 0)
(-0.487202 0 0)
(-0.484688 0 0)
(-0.482173 0 0)
(-0.479656 0 0)
(-0.477137 0 0)
(-0.474617 0 0)
(-0.472096 0 0)
(-0.469573 0 0)
(-0.467048 0 0)
(-0.464523 0 0)
(-0.461996 0 0)
(-0.459467 0 0)
(-0.456937 0 0)
(-0.454406 0 0)
(-0.451873 0 0)
(-0.44934 0 0)
(-0.446804 0 0)
(-0.444268 0 0)
(-0.44173 0 0)
(-0.439191 0 0)
(-0.43665 0 0)
(-0.434109 0 0)
(-0.431566 0 0)
(-0.429021 0 0)
(-0.426476 0 0)
(-0.423929 0 0)
(-0.421381 0 0)
(-0.418832 0 0)
(-0.416282 0 0)
(-0.41373 0 0)
(-0.411177 0 0)
(-0.408624 0 0)
(-0.406069 0 0)
(-0.403512 0 0)
(-0.400955 0 0)
(-0.398397 0 0)
(-0.395837 0 0)
(-0.393276 0 0)
(-0.390715 0 0)
(-0.388152 0 0)
(-0.385588 0 0)
(-0.383023 0 0)
(-0.380457 0 0)
(-0.377889 0 0)
(-0.375321 0 0)
(-0.372752 0 0)
(-0.370182 0 0)
(-0.36761 0 0)
(-0.365038 0 0)
(-0.362465 0 0)
(-0.359891 0 0)
(-0.357315 0 0)
(-0.354739 0 0)
(-0.352162 0 0)
(-0.349584 0 0)
(-0.347005 0 0)
(-0.344425 0 0)
(-0.341844 0 0)
(-0.339262 0 0)
(-0.336679 0 0)
(-0.334096 0 0)
(-0.331511 0 0)
(-0.328926 0 0)
(-0.326339 0 0)
(-0.323752 0 0)
(-0.321164 0 0)
(-0.318575 0 0)
(-0.315986 0 0)
(-0.313395 0 0)
(-0.310804 0 0)
(-0.308212 0 0)
(-0.305619 0 0)
(-0.303025 0 0)
(-0.30043 0 0)
(-0.297835 0 0)
(-0.295239 0 0)
(-0.292642 0 0)
(-0.290044 0 0)
(-0.287446 0 0)
(-0.284847 0 0)
(-0.282247 0 0)
(-0.279646 0 0)
(-0.277045 0 0)
(-0.274443 0 0)
(-0.27184 0 0)
(-0.269236 0 0)
(-0.266632 0 0)
(-0.264027 0 0)
(-0.261422 0 0)
(-0.258816 0 0)
(-0.256209 0 0)
(-0.253601 0 0)
(-0.250993 0 0)
(-0.248385 0 0)
(-0.245775 0 0)
(-0.243165 0 0)
(-0.240555 0 0)
(-0.237943 0 0)
(-0.235332 0 0)
(-0.232719 0 0)
(-0.230106 0 0)
(-0.227493 0 0)
(-0.224878 0 0)
(-0.222264 0 0)
(-0.219648 0 0)
(-0.217033 0 0)
(-0.214416 0 0)
(-0.211799 0 0)
(-0.209182 0 0)
(-0.206564 0 0)
(-0.203946 0 0)
(-0.201327 0 0)
(-0.198707 0 0)
(-0.196087 0 0)
(-0.193467 0 0)
(-0.190846 0 0)
(-0.188225 0 0)
(-0.185603 0 0)
(-0.18298 0 0)
(-0.180358 0 0)
(-0.177734 0 0)
(-0.175111 0 0)
(-0.172487 0 0)
(-0.169862 0 0)
(-0.167237 0 0)
(-0.164612 0 0)
(-0.161986 0 0)
(-0.15936 0 0)
(-0.156734 0 0)
(-0.154107 0 0)
(-0.15148 0 0)
(-0.148852 0 0)
(-0.146224 0 0)
(-0.143596 0 0)
(-0.140967 0 0)
(-0.138338 0 0)
(-0.135709 0 0)
(-0.133079 0 0)
(-0.130449 0 0)
(-0.127819 0 0)
(-0.125188 0 0)
(-0.122557 0 0)
(-0.119926 0 0)
(-0.117294 0 0)
(-0.114663 0 0)
(-0.112031 0 0)
(-0.109398 0 0)
(-0.106766 0 0)
(-0.104133 0 0)
(-0.1015 0 0)
(-0.0988663 0 0)
(-0.0962327 0 0)
(-0.0935989 0 0)
(-0.0909648 0 0)
(-0.0883306 0 0)
(-0.0856961 0 0)
(-0.0830614 0 0)
(-0.0804265 0 0)
(-0.0777914 0 0)
(-0.0751562 0 0)
(-0.0725207 0 0)
(-0.0698851 0 0)
(-0.0672493 0 0)
(-0.0646134 0 0)
(-0.0619773 0 0)
(-0.059341 0 0)
(-0.0567047 0 0)
(-0.0540681 0 0)
(-0.0514315 0 0)
(-0.0487947 0 0)
(-0.0461578 0 0)
(-0.0435208 0 0)
(-0.0408837 0 0)
(-0.0382465 0 0)
(-0.0356092 0 0)
(-0.0329718 0 0)
(-0.0303344 0 0)
(-0.0276968 0 0)
(-0.0250592 0 0)
(-0.0224216 0 0)
(-0.0197839 0 0)
(-0.0171461 0 0)
(-0.0145083 0 0)
(-0.0118705 0 0)
(-0.00923264 0 0)
(-0.00659476 0 0)
(-0.00395686 0 0)
(-0.00131895 0 0)
)
;

boundaryField
{
    left
    {
        type            fixedValue;
        value           uniform (0 0 0);
    }
    right
    {
        type            fixedValue;
        value           uniform (0 0 0);
    }
    frontBackUpDown
    {
        type            empty;
    }
}


// ************************************************************************* //
