/*--------------------------------*- C++ -*----------------------------------*\
| =========                 |                                                 |
| \\      /  F ield         | OpenFOAM: The Open Source CFD Toolbox           |
|  \\    /   O peration     | Version:  2412                                  |
|   \\  /    A nd           | Website:  www.openfoam.com                      |
|    \\/     M anipulation  |                                                 |
\*---------------------------------------------------------------------------*/
FoamFile
{
    version     2.0;
    format      ascii;
    arch        "LSB;label=32;scalar=64";
    class       volVectorField;
    location    "0.63";
    object      U_0_0_0;
}
// * * * * * * * * * * * * * * * * * * * * * * * * * * * * * * * * * * * * * //

dimensions      [0 1 -1 0 0 0 0];

internalField   nonuniform List<vector> 
800
(
(0.00132103 0 0)
(0.00396311 0 0)
(0.00660518 0 0)
(0.00924723 0 0)
(0.0118893 0 0)
(0.0145313 0 0)
(0.0171732 0 0)
(0.0198152 0 0)
(0.0224571 0 0)
(0.0250989 0 0)
(0.0277407 0 0)
(0.0303824 0 0)
(0.033024 0 0)
(0.0356655 0 0)
(0.038307 0 0)
(0.0409484 0 0)
(0.0435897 0 0)
(0.0462308 0 0)
(0.0488719 0 0)
(0.0515128 0 0)
(0.0541536 0 0)
(0.0567943 0 0)
(0.0594349 0 0)
(0.0620753 0 0)
(0.0647156 0 0)
(0.0673557 0 0)
(0.0699956 0 0)
(0.0726354 0 0)
(0.075275 0 0)
(0.0779144 0 0)
(0.0805537 0 0)
(0.0831927 0 0)
(0.0858316 0 0)
(0.0884702 0 0)
(0.0911086 0 0)
(0.0937468 0 0)
(0.0963848 0 0)
(0.0990225 0 0)
(0.10166 0 0)
(0.104297 0 0)
(0.106934 0 0)
(0.109571 0 0)
(0.112208 0 0)
(0.114844 0 0)
(0.11748 0 0)
(0.120115 0 0)
(0.122751 0 0)
(0.125386 0 0)
(0.128021 0 0)
(0.130655 0 0)
(0.133289 0 0)
(0.135923 0 0)
(0.138556 0 0)
(0.14119 0 0)
(0.143822 0 0)
(0.146455 0 0)
(0.149087 0 0)
(0.151719 0 0)
(0.15435 0 0)
(0.156981 0 0)
(0.159612 0 0)
(0.162242 0 0)
(0.164872 0 0)
(0.167501 0 0)
(0.17013 0 0)
(0.172758 0 0)
(0.175387 0 0)
(0.178014 0 0)
(0.180642 0 0)
(0.183268 0 0)
(0.185895 0 0)
(0.188521 0 0)
(0.191146 0 0)
(0.193771 0 0)
(0.196396 0 0)
(0.19902 0 0)
(0.201643 0 0)
(0.204266 0 0)
(0.206889 0 0)
(0.209511 0 0)
(0.212132 0 0)
(0.214753 0 0)
(0.217373 0 0)
(0.219993 0 0)
(0.222613 0 0)
(0.225231 0 0)
(0.22785 0 0)
(0.230467 0 0)
(0.233084 0 0)
(0.235701 0 0)
(0.238316 0 0)
(0.240932 0 0)
(0.243546 0 0)
(0.24616 0 0)
(0.248774 0 0)
(0.251386 0 0)
(0.253999 0 0)
(0.25661 0 0)
(0.259221 0 0)
(0.261831 0 0)
(0.26444 0 0)
(0.267049 0 0)
(0.269657 0 0)
(0.272265 0 0)
(0.274871 0 0)
(0.277478 0 0)
(0.280083 0 0)
(0.282687 0 0)
(0.285291 0 0)
(0.287894 0 0)
(0.290497 0 0)
(0.293098 0 0)
(0.295699 0 0)
(0.298299 0 0)
(0.300898 0 0)
(0.303497 0 0)
(0.306095 0 0)
(0.308691 0 0)
(0.311288 0 0)
(0.313883 0 0)
(0.316477 0 0)
(0.319071 0 0)
(0.321664 0 0)
(0.324255 0 0)
(0.326846 0 0)
(0.329437 0 0)
(0.332026 0 0)
(0.334614 0 0)
(0.337202 0 0)
(0.339788 0 0)
(0.342374 0 0)
(0.344959 0 0)
(0.347542 0 0)
(0.350125 0 0)
(0.352707 0 0)
(0.355288 0 0)
(0.357868 0 0)
(0.360447 0 0)
(0.363025 0 0)
(0.365602 0 0)
(0.368178 0 0)
(0.370753 0 0)
(0.373327 0 0)
(0.3759 0 0)
(0.378472 0 0)
(0.381043 0 0)
(0.383613 0 0)
(0.386182 0 0)
(0.388749 0 0)
(0.391316 0 0)
(0.393881 0 0)
(0.396446 0 0)
(0.399009 0 0)
(0.401571 0 0)
(0.404132 0 0)
(0.406692 0 0)
(0.409251 0 0)
(0.411808 0 0)
(0.414365 0 0)
(0.41692 0 0)
(0.419474 0 0)
(0.422026 0 0)
(0.424578 0 0)
(0.427128 0 0)
(0.429677 0 0)
(0.432225 0 0)
(0.434772 0 0)
(0.437317 0 0)
(0.439861 0 0)
(0.442404 0 0)
(0.444945 0 0)
(0.447485 0 0)
(0.450024 0 0)
(0.452561 0 0)
(0.455097 0 0)
(0.457632 0 0)
(0.460165 0 0)
(0.462697 0 0)
(0.465228 0 0)
(0.467757 0 0)
(0.470285 0 0)
(0.472811 0 0)
(0.475336 0 0)
(0.477859 0 0)
(0.480381 0 0)
(0.482902 0 0)
(0.485421 0 0)
(0.487938 0 0)
(0.490454 0 0)
(0.492969 0 0)
(0.495482 0 0)
(0.497993 0 0)
(0.500503 0 0)
(0.503011 0 0)
(0.505518 0 0)
(0.508023 0 0)
(0.510526 0 0)
(0.513028 0 0)
(0.515528 0 0)
(0.518027 0 0)
(0.520523 0 0)
(0.523018 0 0)
(0.525512 0 0)
(0.528004 0 0)
(0.530494 0 0)
(0.532982 0 0)
(0.535468 0 0)
(0.537953 0 0)
(0.540436 0 0)
(0.542917 0 0)
(0.545397 0 0)
(0.547874 0 0)
(0.55035 0 0)
(0.552824 0 0)
(0.555296 0 0)
(0.557766 0 0)
(0.560234 0 0)
(0.5627 0 0)
(0.565164 0 0)
(0.567627 0 0)
(0.570087 0 0)
(0.572546 0 0)
(0.575002 0 0)
(0.577456 0 0)
(0.579909 0 0)
(0.582359 0 0)
(0.584807 0 0)
(0.587254 0 0)
(0.589698 0 0)
(0.59214 0 0)
(0.59458 0 0)
(0.597017 0 0)
(0.599453 0 0)
(0.601886 0 0)
(0.604317 0 0)
(0.606746 0 0)
(0.609173 0 0)
(0.611597 0 0)
(0.614019 0 0)
(0.616439 0 0)
(0.618857 0 0)
(0.621272 0 0)
(0.623685 0 0)
(0.626095 0 0)
(0.628503 0 0)
(0.630909 0 0)
(0.633312 0 0)
(0.635713 0 0)
(0.638111 0 0)
(0.640507 0 0)
(0.6429 0 0)
(0.645291 0 0)
(0.647679 0 0)
(0.650065 0 0)
(0.652448 0 0)
(0.654828 0 0)
(0.657206 0 0)
(0.659581 0 0)
(0.661953 0 0)
(0.664323 0 0)
(0.66669 0 0)
(0.669054 0 0)
(0.671415 0 0)
(0.673774 0 0)
(0.67613 0 0)
(0.678483 0 0)
(0.680832 0 0)
(0.683179 0 0)
(0.685524 0 0)
(0.687865 0 0)
(0.690203 0 0)
(0.692538 0 0)
(0.69487 0 0)
(0.697199 0 0)
(0.699525 0 0)
(0.701848 0 0)
(0.704167 0 0)
(0.706484 0 0)
(0.708797 0 0)
(0.711107 0 0)
(0.713413 0 0)
(0.715717 0 0)
(0.718017 0 0)
(0.720314 0 0)
(0.722607 0 0)
(0.724897 0 0)
(0.727183 0 0)
(0.729466 0 0)
(0.731745 0 0)
(0.734021 0 0)
(0.736294 0 0)
(0.738562 0 0)
(0.740827 0 0)
(0.743088 0 0)
(0.745346 0 0)
(0.7476 0 0)
(0.74985 0 0)
(0.752096 0 0)
(0.754338 0 0)
(0.756577 0 0)
(0.758811 0 0)
(0.761042 0 0)
(0.763268 0 0)
(0.76549 0 0)
(0.767709 0 0)
(0.769923 0 0)
(0.772133 0 0)
(0.774338 0 0)
(0.77654 0 0)
(0.778737 0 0)
(0.78093 0 0)
(0.783118 0 0)
(0.785302 0 0)
(0.787481 0 0)
(0.789656 0 0)
(0.791826 0 0)
(0.793992 0 0)
(0.796153 0 0)
(0.798309 0 0)
(0.800461 0 0)
(0.802607 0 0)
(0.804749 0 0)
(0.806886 0 0)
(0.809017 0 0)
(0.811144 0 0)
(0.813266 0 0)
(0.815382 0 0)
(0.817493 0 0)
(0.819599 0 0)
(0.8217 0 0)
(0.823795 0 0)
(0.825885 0 0)
(0.827969 0 0)
(0.830048 0 0)
(0.832121 0 0)
(0.834189 0 0)
(0.83625 0 0)
(0.838306 0 0)
(0.840356 0 0)
(0.8424 0 0)
(0.844438 0 0)
(0.846469 0 0)
(0.848495 0 0)
(0.850514 0 0)
(0.852527 0 0)
(0.854533 0 0)
(0.856533 0 0)
(0.858527 0 0)
(0.860514 0 0)
(0.862494 0 0)
(0.864467 0 0)
(0.866433 0 0)
(0.868392 0 0)
(0.870344 0 0)
(0.872289 0 0)
(0.874227 0 0)
(0.876158 0 0)
(0.87808 0 0)
(0.879996 0 0)
(0.881903 0 0)
(0.883803 0 0)
(0.885695 0 0)
(0.887579 0 0)
(0.889455 0 0)
(0.891322 0 0)
(0.893182 0 0)
(0.895033 0 0)
(0.896875 0 0)
(0.898709 0 0)
(0.900533 0 0)
(0.902349 0 0)
(0.904156 0 0)
(0.905953 0 0)
(0.907742 0 0)
(0.90952 0 0)
(0.911289 0 0)
(0.913049 0 0)
(0.914798 0 0)
(0.916537 0 0)
(0.918266 0 0)
(0.919985 0 0)
(0.921693 0 0)
(0.92339 0 0)
(0.925077 0 0)
(0.926752 0 0)
(0.928416 0 0)
(0.930068 0 0)
(0.931709 0 0)
(0.933338 0 0)
(0.934955 0 0)
(0.936559 0 0)
(0.938151 0 0)
(0.939731 0 0)
(0.941297 0 0)
(0.942851 0 0)
(0.94438 0 0)
(0.946025 0 0)
(0.946196 0 0)
(0.962512 0 0)
(0.566237 0 0)
(-0.564873 0 0)
(-0.962482 0 0)
(-0.946197 0 0)
(-0.946024 0 0)
(-0.944378 0 0)
(-0.942849 0 0)
(-0.941295 0 0)
(-0.939729 0 0)
(-0.93815 0 0)
(-0.936558 0 0)
(-0.934953 0 0)
(-0.933336 0 0)
(-0.931707 0 0)
(-0.930067 0 0)
(-0.928414 0 0)
(-0.92675 0 0)
(-0.925075 0 0)
(-0.923388 0 0)
(-0.921691 0 0)
(-0.919983 0 0)
(-0.918265 0 0)
(-0.916535 0 0)
(-0.914796 0 0)
(-0.913047 0 0)
(-0.911288 0 0)
(-0.909518 0 0)
(-0.90774 0 0)
(-0.905951 0 0)
(-0.904154 0 0)
(-0.902347 0 0)
(-0.900531 0 0)
(-0.898707 0 0)
(-0.896873 0 0)
(-0.895031 0 0)
(-0.89318 0 0)
(-0.89132 0 0)
(-0.889453 0 0)
(-0.887577 0 0)
(-0.885693 0 0)
(-0.883801 0 0)
(-0.881901 0 0)
(-0.879993 0 0)
(-0.878078 0 0)
(-0.876155 0 0)
(-0.874225 0 0)
(-0.872287 0 0)
(-0.870342 0 0)
(-0.86839 0 0)
(-0.866431 0 0)
(-0.864465 0 0)
(-0.862491 0 0)
(-0.860511 0 0)
(-0.858525 0 0)
(-0.856531 0 0)
(-0.854531 0 0)
(-0.852525 0 0)
(-0.850512 0 0)
(-0.848492 0 0)
(-0.846467 0 0)
(-0.844435 0 0)
(-0.842397 0 0)
(-0.840354 0 0)
(-0.838304 0 0)
(-0.836248 0 0)
(-0.834186 0 0)
(-0.832119 0 0)
(-0.830046 0 0)
(-0.827967 0 0)
(-0.825883 0 0)
(-0.823793 0 0)
(-0.821698 0 0)
(-0.819597 0 0)
(-0.817491 0 0)
(-0.81538 0 0)
(-0.813263 0 0)
(-0.811142 0 0)
(-0.809015 0 0)
(-0.806883 0 0)
(-0.804747 0 0)
(-0.802605 0 0)
(-0.800458 0 0)
(-0.798307 0 0)
(-0.796151 0 0)
(-0.79399 0 0)
(-0.791824 0 0)
(-0.789654 0 0)
(-0.787479 0 0)
(-0.785299 0 0)
(-0.783116 0 0)
(-0.780927 0 0)
(-0.778734 0 0)
(-0.776537 0 0)
(-0.774336 0 0)
(-0.77213 0 0)
(-0.76992 0 0)
(-0.767706 0 0)
(-0.765488 0 0)
(-0.763266 0 0)
(-0.761039 0 0)
(-0.758809 0 0)
(-0.756574 0 0)
(-0.754336 0 0)
(-0.752094 0 0)
(-0.749847 0 0)
(-0.747597 0 0)
(-0.745344 0 0)
(-0.743086 0 0)
(-0.740825 0 0)
(-0.73856 0 0)
(-0.736291 0 0)
(-0.734019 0 0)
(-0.731743 0 0)
(-0.729464 0 0)
(-0.727181 0 0)
(-0.724894 0 0)
(-0.722605 0 0)
(-0.720311 0 0)
(-0.718015 0 0)
(-0.715715 0 0)
(-0.713411 0 0)
(-0.711104 0 0)
(-0.708794 0 0)
(-0.706481 0 0)
(-0.704165 0 0)
(-0.701845 0 0)
(-0.699523 0 0)
(-0.697197 0 0)
(-0.694868 0 0)
(-0.692536 0 0)
(-0.690201 0 0)
(-0.687862 0 0)
(-0.685521 0 0)
(-0.683177 0 0)
(-0.68083 0 0)
(-0.67848 0 0)
(-0.676128 0 0)
(-0.673772 0 0)
(-0.671413 0 0)
(-0.669052 0 0)
(-0.666688 0 0)
(-0.664321 0 0)
(-0.661951 0 0)
(-0.659579 0 0)
(-0.657204 0 0)
(-0.654826 0 0)
(-0.652446 0 0)
(-0.650063 0 0)
(-0.647677 0 0)
(-0.645289 0 0)
(-0.642898 0 0)
(-0.640505 0 0)
(-0.638109 0 0)
(-0.635711 0 0)
(-0.63331 0 0)
(-0.630907 0 0)
(-0.628501 0 0)
(-0.626093 0 0)
(-0.623683 0 0)
(-0.62127 0 0)
(-0.618855 0 0)
(-0.616437 0 0)
(-0.614018 0 0)
(-0.611595 0 0)
(-0.609171 0 0)
(-0.606744 0 0)
(-0.604315 0 0)
(-0.601884 0 0)
(-0.599451 0 0)
(-0.597015 0 0)
(-0.594578 0 0)
(-0.592138 0 0)
(-0.589696 0 0)
(-0.587252 0 0)
(-0.584806 0 0)
(-0.582357 0 0)
(-0.579907 0 0)
(-0.577455 0 0)
(-0.575 0 0)
(-0.572544 0 0)
(-0.570085 0 0)
(-0.567625 0 0)
(-0.565163 0 0)
(-0.562698 0 0)
(-0.560232 0 0)
(-0.557764 0 0)
(-0.555294 0 0)
(-0.552822 0 0)
(-0.550348 0 0)
(-0.547872 0 0)
(-0.545395 0 0)
(-0.542916 0 0)
(-0.540435 0 0)
(-0.537952 0 0)
(-0.535467 0 0)
(-0.53298 0 0)
(-0.530492 0 0)
(-0.528002 0 0)
(-0.52551 0 0)
(-0.523017 0 0)
(-0.520522 0 0)
(-0.518025 0 0)
(-0.515527 0 0)
(-0.513026 0 0)
(-0.510525 0 0)
(-0.508021 0 0)
(-0.505516 0 0)
(-0.50301 0 0)
(-0.500501 0 0)
(-0.497992 0 0)
(-0.49548 0 0)
(-0.492967 0 0)
(-0.490453 0 0)
(-0.487937 0 0)
(-0.48542 0 0)
(-0.482901 0 0)
(-0.48038 0 0)
(-0.477858 0 0)
(-0.475335 0 0)
(-0.47281 0 0)
(-0.470284 0 0)
(-0.467756 0 0)
(-0.465227 0 0)
(-0.462696 0 0)
(-0.460164 0 0)
(-0.457631 0 0)
(-0.455096 0 0)
(-0.45256 0 0)
(-0.450023 0 0)
(-0.447484 0 0)
(-0.444944 0 0)
(-0.442403 0 0)
(-0.43986 0 0)
(-0.437316 0 0)
(-0.434771 0 0)
(-0.432224 0 0)
(-0.429676 0 0)
(-0.427127 0 0)
(-0.424577 0 0)
(-0.422025 0 0)
(-0.419473 0 0)
(-0.416919 0 0)
(-0.414364 0 0)
(-0.411807 0 0)
(-0.40925 0 0)
(-0.406691 0 0)
(-0.404131 0 0)
(-0.40157 0 0)
(-0.399008 0 0)
(-0.396445 0 0)
(-0.393881 0 0)
(-0.391315 0 0)
(-0.388748 0 0)
(-0.386181 0 0)
(-0.383612 0 0)
(-0.381042 0 0)
(-0.378471 0 0)
(-0.375899 0 0)
(-0.373327 0 0)
(-0.370753 0 0)
(-0.368178 0 0)
(-0.365602 0 0)
(-0.363025 0 0)
(-0.360446 0 0)
(-0.357867 0 0)
(-0.355287 0 0)
(-0.352707 0 0)
(-0.350125 0 0)
(-0.347542 0 0)
(-0.344958 0 0)
(-0.342373 0 0)
(-0.339788 0 0)
(-0.337201 0 0)
(-0.334614 0 0)
(-0.332025 0 0)
(-0.329436 0 0)
(-0.326846 0 0)
(-0.324255 0 0)
(-0.321663 0 0)
(-0.31907 0 0)
(-0.316477 0 0)
(-0.313882 0 0)
(-0.311287 0 0)
(-0.308691 0 0)
(-0.306094 0 0)
(-0.303496 0 0)
(-0.300898 0 0)
(-0.298299 0 0)
(-0.295699 0 0)
(-0.293098 0 0)
(-0.290496 0 0)
(-0.287894 0 0)
(-0.285291 0 0)
(-0.282687 0 0)
(-0.280082 0 0)
(-0.277477 0 0)
(-0.274871 0 0)
(-0.272264 0 0)
(-0.269657 0 0)
(-0.267049 0 0)
(-0.26444 0 0)
(-0.261831 0 0)
(-0.25922 0 0)
(-0.25661 0 0)
(-0.253998 0 0)
(-0.251386 0 0)
(-0.248773 0 0)
(-0.24616 0 0)
(-0.243546 0 0)
(-0.240931 0 0)
(-0.238316 0 0)
(-0.2357 0 0)
(-0.233084 0 0)
(-0.230467 0 0)
(-0.227849 0 0)
(-0.225231 0 0)
(-0.222612 0 0)
(-0.219993 0 0)
(-0.217373 0 0)
(-0.214753 0 0)
(-0.212132 0 0)
(-0.20951 0 0)
(-0.206888 0 0)
(-0.204266 0 0)
(-0.201643 0 0)
(-0.199019 0 0)
(-0.196395 0 0)
(-0.193771 0 0)
(-0.191146 0 0)
(-0.18852 0 0)
(-0.185895 0 0)
(-0.183268 0 0)
(-0.180641 0 0)
(-0.178014 0 0)
(-0.175386 0 0)
(-0.172758 0 0)
(-0.17013 0 0)
(-0.167501 0 0)
(-0.164871 0 0)
(-0.162242 0 0)
(-0.159611 0 0)
(-0.156981 0 0)
(-0.15435 0 0)
(-0.151718 0 0)
(-0.149087 0 0)
(-0.146455 0 0)
(-0.143822 0 0)
(-0.141189 0 0)
(-0.138556 0 0)
(-0.135923 0 0)
(-0.133289 0 0)
(-0.130655 0 0)
(-0.12802 0 0)
(-0.125386 0 0)
(-0.122751 0 0)
(-0.120115 0 0)
(-0.11748 0 0)
(-0.114844 0 0)
(-0.112207 0 0)
(-0.109571 0 0)
(-0.106934 0 0)
(-0.104297 0 0)
(-0.10166 0 0)
(-0.0990225 0 0)
(-0.0963847 0 0)
(-0.0937468 0 0)
(-0.0911086 0 0)
(-0.0884701 0 0)
(-0.0858315 0 0)
(-0.0831927 0 0)
(-0.0805536 0 0)
(-0.0779144 0 0)
(-0.075275 0 0)
(-0.0726354 0 0)
(-0.0699956 0 0)
(-0.0673557 0 0)
(-0.0647155 0 0)
(-0.0620753 0 0)
(-0.0594349 0 0)
(-0.0567943 0 0)
(-0.0541536 0 0)
(-0.0515128 0 0)
(-0.0488719 0 0)
(-0.0462308 0 0)
(-0.0435896 0 0)
(-0.0409484 0 0)
(-0.038307 0 0)
(-0.0356655 0 0)
(-0.033024 0 0)
(-0.0303824 0 0)
(-0.0277407 0 0)
(-0.0250989 0 0)
(-0.0224571 0 0)
(-0.0198152 0 0)
(-0.0171733 0 0)
(-0.0145313 0 0)
(-0.0118893 0 0)
(-0.00924725 0 0)
(-0.00660519 0 0)
(-0.00396312 0 0)
(-0.00132104 0 0)
)
;

boundaryField
{
    left
    {
        type            fixedValue;
        value           uniform (0 0 0);
    }
    right
    {
        type            fixedValue;
        value           uniform (0 0 0);
    }
    frontBackUpDown
    {
        type            empty;
    }
}


// ************************************************************************* //
