/*--------------------------------*- C++ -*----------------------------------*\
| =========                 |                                                 |
| \\      /  F ield         | OpenFOAM: The Open Source CFD Toolbox           |
|  \\    /   O peration     | Version:  2412                                  |
|   \\  /    A nd           | Website:  www.openfoam.com                      |
|    \\/     M anipulation  |                                                 |
\*---------------------------------------------------------------------------*/
FoamFile
{
    version     2.0;
    format      ascii;
    arch        "LSB;label=32;scalar=64";
    class       surfaceScalarField;
    location    "0.55";
    object      phi;
}
// * * * * * * * * * * * * * * * * * * * * * * * * * * * * * * * * * * * * * //

dimensions      [0 3 -1 0 0 0 0];

oriented        oriented;

internalField   nonuniform List<scalar> 
799
(
2.88059e-05
5.76118e-05
8.64176e-05
0.000115223
0.000144028
0.000172833
0.000201637
0.000230441
0.000259244
0.000288046
0.000316847
0.000345647
0.000374446
0.000403244
0.000432041
0.000460836
0.00048963
0.000518423
0.000547213
0.000576003
0.00060479
0.000633575
0.000662359
0.00069114
0.00071992
0.000748697
0.000777471
0.000806244
0.000835014
0.000863781
0.000892545
0.000921307
0.000950066
0.000978822
0.00100757
0.00103632
0.00106507
0.00109381
0.00112255
0.00115129
0.00118002
0.00120875
0.00123748
0.0012662
0.00129492
0.00132363
0.00135234
0.00138104
0.00140974
0.00143844
0.00146713
0.00149582
0.0015245
0.00155318
0.00158185
0.00161052
0.00163918
0.00166784
0.00169649
0.00172514
0.00175378
0.00178241
0.00181104
0.00183967
0.00186828
0.0018969
0.0019255
0.0019541
0.0019827
0.00201128
0.00203986
0.00206844
0.00209701
0.00212557
0.00215412
0.00218267
0.00221121
0.00223974
0.00226827
0.00229678
0.00232529
0.0023538
0.00238229
0.00241078
0.00243926
0.00246773
0.0024962
0.00252465
0.0025531
0.00258154
0.00260997
0.00263839
0.0026668
0.00269521
0.0027236
0.00275199
0.00278037
0.00280873
0.00283709
0.00286544
0.00289378
0.00292211
0.00295043
0.00297874
0.00300704
0.00303533
0.00306361
0.00309188
0.00312014
0.00314839
0.00317662
0.00320485
0.00323307
0.00326127
0.00328946
0.00331765
0.00334582
0.00337398
0.00340212
0.00343026
0.00345838
0.00348649
0.00351459
0.00354268
0.00357076
0.00359882
0.00362687
0.00365491
0.00368293
0.00371094
0.00373894
0.00376692
0.00379489
0.00382285
0.0038508
0.00387873
0.00390664
0.00393454
0.00396243
0.00399031
0.00401817
0.00404601
0.00407384
0.00410166
0.00412946
0.00415724
0.00418501
0.00421276
0.0042405
0.00426822
0.00429593
0.00432362
0.0043513
0.00437896
0.0044066
0.00443422
0.00446183
0.00448942
0.004517
0.00454456
0.0045721
0.00459962
0.00462712
0.00465461
0.00468208
0.00470953
0.00473696
0.00476438
0.00479177
0.00481915
0.00484651
0.00487384
0.00490116
0.00492846
0.00495574
0.004983
0.00501024
0.00503746
0.00506466
0.00509184
0.005119
0.00514614
0.00517325
0.00520035
0.00522742
0.00525448
0.00528151
0.00530852
0.0053355
0.00536247
0.00538941
0.00541633
0.00544322
0.00547009
0.00549694
0.00552377
0.00555057
0.00557735
0.0056041
0.00563083
0.00565754
0.00568422
0.00571087
0.0057375
0.0057641
0.00579068
0.00581724
0.00584376
0.00587026
0.00589674
0.00592318
0.0059496
0.00597599
0.00600236
0.0060287
0.006055
0.00608129
0.00610754
0.00613376
0.00615996
0.00618612
0.00621226
0.00623836
0.00626444
0.00629048
0.0063165
0.00634248
0.00636844
0.00639436
0.00642025
0.00644611
0.00647193
0.00649773
0.00652349
0.00654922
0.00657491
0.00660057
0.0066262
0.00665179
0.00667735
0.00670287
0.00672836
0.00675381
0.00677922
0.0068046
0.00682995
0.00685525
0.00688052
0.00690575
0.00693095
0.0069561
0.00698122
0.0070063
0.00703133
0.00705633
0.00708129
0.00710621
0.00713109
0.00715592
0.00718072
0.00720547
0.00723018
0.00725484
0.00727947
0.00730405
0.00732858
0.00735307
0.00737752
0.00740192
0.00742628
0.00745058
0.00747485
0.00749906
0.00752323
0.00754735
0.00757142
0.00759544
0.00761941
0.00764333
0.0076672
0.00769102
0.00771479
0.00773851
0.00776217
0.00778578
0.00780933
0.00783283
0.00785628
0.00787967
0.00790301
0.00792628
0.0079495
0.00797267
0.00799577
0.00801881
0.0080418
0.00806472
0.00808758
0.00811039
0.00813312
0.0081558
0.00817841
0.00820096
0.00822344
0.00824585
0.0082682
0.00829048
0.00831269
0.00833483
0.0083569
0.0083789
0.00840083
0.00842269
0.00844447
0.00846618
0.00848781
0.00850937
0.00853085
0.00855225
0.00857357
0.00859481
0.00861598
0.00863705
0.00865805
0.00867896
0.00869979
0.00872053
0.00874118
0.00876175
0.00878222
0.0088026
0.00882289
0.00884309
0.00886319
0.0088832
0.00890311
0.00892292
0.00894263
0.00896224
0.00898174
0.00900114
0.00902044
0.00903962
0.0090587
0.00907767
0.00909652
0.00911526
0.00913389
0.0091524
0.00917078
0.00918905
0.00920719
0.00922521
0.0092431
0.00926086
0.00927849
0.00929599
0.00931335
0.00933058
0.00934766
0.0093646
0.0093814
0.00939804
0.00941454
0.00943089
0.00944708
0.00946311
0.00947898
0.00949468
0.00951022
0.00952559
0.00954078
0.00955579
0.00957063
0.00958528
0.00959974
0.00961401
0.00962809
0.00964196
0.00965564
0.0096691
0.00968235
0.00969538
0.00970819
0.00972078
0.00973313
0.00974524
0.00975711
0.00976873
0.00978009
0.00979119
0.00980203
0.00981259
0.00982288
0.00983273
0.00984367
0.00984128
0.00995903
0.00809605
7.11125e-06
-0.00808898
-0.00995907
-0.00984127
-0.00984366
-0.00983273
-0.00982287
-0.00981258
-0.00980202
-0.00979119
-0.00978008
-0.00976872
-0.0097571
-0.00974523
-0.00973312
-0.00972077
-0.00970818
-0.00969537
-0.00968234
-0.00966909
-0.00965563
-0.00964195
-0.00962808
-0.009614
-0.00959973
-0.00958527
-0.00957062
-0.00955578
-0.00954077
-0.00952557
-0.00951021
-0.00949467
-0.00947896
-0.00946309
-0.00944706
-0.00943087
-0.00941453
-0.00939803
-0.00938138
-0.00936459
-0.00934764
-0.00933056
-0.00931334
-0.00929598
-0.00927848
-0.00926085
-0.00924309
-0.00922519
-0.00920718
-0.00918903
-0.00917077
-0.00915238
-0.00913387
-0.00911524
-0.0090965
-0.00907765
-0.00905868
-0.0090396
-0.00902042
-0.00900112
-0.00898172
-0.00896222
-0.00894261
-0.0089229
-0.00890309
-0.00888318
-0.00886317
-0.00884307
-0.00882287
-0.00880258
-0.0087822
-0.00876172
-0.00874116
-0.00872051
-0.00869977
-0.00867894
-0.00865803
-0.00863703
-0.00861595
-0.00859479
-0.00857355
-0.00855223
-0.00853083
-0.00850935
-0.00848779
-0.00846616
-0.00844445
-0.00842267
-0.00840081
-0.00837888
-0.00835688
-0.00833481
-0.00831267
-0.00829045
-0.00826817
-0.00824583
-0.00822341
-0.00820093
-0.00817839
-0.00815578
-0.0081331
-0.00811036
-0.00808756
-0.0080647
-0.00804177
-0.00801879
-0.00799575
-0.00797264
-0.00794948
-0.00792626
-0.00790298
-0.00787965
-0.00785626
-0.00783281
-0.00780931
-0.00778575
-0.00776214
-0.00773848
-0.00771477
-0.007691
-0.00766718
-0.00764331
-0.00761939
-0.00759542
-0.00757139
-0.00754732
-0.00752321
-0.00749904
-0.00747482
-0.00745056
-0.00742625
-0.0074019
-0.0073775
-0.00735305
-0.00732856
-0.00730402
-0.00727944
-0.00725482
-0.00723015
-0.00720544
-0.00718069
-0.0071559
-0.00713106
-0.00710619
-0.00708127
-0.00705631
-0.00703131
-0.00700627
-0.0069812
-0.00695608
-0.00693092
-0.00690573
-0.0068805
-0.00685523
-0.00682992
-0.00680458
-0.0067792
-0.00675379
-0.00672833
-0.00670285
-0.00667732
-0.00665177
-0.00662618
-0.00660055
-0.00657489
-0.00654919
-0.00652347
-0.00649771
-0.00647191
-0.00644609
-0.00642023
-0.00639434
-0.00636842
-0.00634246
-0.00631648
-0.00629047
-0.00626442
-0.00623834
-0.00621224
-0.0061861
-0.00615994
-0.00613374
-0.00610752
-0.00608127
-0.00605499
-0.00602868
-0.00600234
-0.00597598
-0.00594958
-0.00592316
-0.00589672
-0.00587024
-0.00584374
-0.00581722
-0.00579067
-0.00576409
-0.00573748
-0.00571085
-0.0056842
-0.00565752
-0.00563081
-0.00560409
-0.00557733
-0.00555055
-0.00552375
-0.00549693
-0.00547008
-0.00544321
-0.00541631
-0.00538939
-0.00536245
-0.00533549
-0.0053085
-0.00528149
-0.00525446
-0.00522741
-0.00520034
-0.00517324
-0.00514612
-0.00511899
-0.00509183
-0.00506465
-0.00503745
-0.00501023
-0.00498299
-0.00495573
-0.00492845
-0.00490115
-0.00487383
-0.00484649
-0.00481913
-0.00479176
-0.00476436
-0.00473695
-0.00470952
-0.00468207
-0.0046546
-0.00462711
-0.00459961
-0.00457208
-0.00454454
-0.00451699
-0.00448941
-0.00446182
-0.00443421
-0.00440659
-0.00437894
-0.00435129
-0.00432361
-0.00429592
-0.00426821
-0.00424049
-0.00421275
-0.004185
-0.00415723
-0.00412945
-0.00410165
-0.00407383
-0.004046
-0.00401816
-0.0039903
-0.00396242
-0.00393454
-0.00390663
-0.00387872
-0.00385079
-0.00382284
-0.00379489
-0.00376691
-0.00373893
-0.00371093
-0.00368292
-0.0036549
-0.00362686
-0.00359881
-0.00357075
-0.00354267
-0.00351459
-0.00348649
-0.00345838
-0.00343025
-0.00340212
-0.00337397
-0.00334581
-0.00331764
-0.00328946
-0.00326126
-0.00323306
-0.00320484
-0.00317662
-0.00314838
-0.00312013
-0.00309187
-0.00306361
-0.00303533
-0.00300704
-0.00297874
-0.00295043
-0.00292211
-0.00289378
-0.00286544
-0.00283709
-0.00280873
-0.00278036
-0.00275198
-0.0027236
-0.0026952
-0.0026668
-0.00263839
-0.00260996
-0.00258153
-0.0025531
-0.00252465
-0.00249619
-0.00246773
-0.00243926
-0.00241078
-0.00238229
-0.00235379
-0.00232529
-0.00229678
-0.00226826
-0.00223974
-0.0022112
-0.00218266
-0.00215412
-0.00212556
-0.002097
-0.00206843
-0.00203986
-0.00201128
-0.00198269
-0.0019541
-0.0019255
-0.00189689
-0.00186828
-0.00183966
-0.00181104
-0.00178241
-0.00175377
-0.00172513
-0.00169649
-0.00166783
-0.00163918
-0.00161052
-0.00158185
-0.00155318
-0.0015245
-0.00149582
-0.00146713
-0.00143844
-0.00140974
-0.00138104
-0.00135234
-0.00132363
-0.00129491
-0.0012662
-0.00123748
-0.00120875
-0.00118002
-0.00115129
-0.00112255
-0.00109381
-0.00106507
-0.00103632
-0.00100757
-0.000978821
-0.000950065
-0.000921307
-0.000892545
-0.00086378
-0.000835013
-0.000806243
-0.000777471
-0.000748696
-0.000719919
-0.00069114
-0.000662359
-0.000633575
-0.00060479
-0.000576002
-0.000547213
-0.000518422
-0.00048963
-0.000460836
-0.000432041
-0.000403244
-0.000374446
-0.000345647
-0.000316847
-0.000288046
-0.000259244
-0.000230441
-0.000201637
-0.000172833
-0.000144028
-0.000115223
-8.64178e-05
-5.7612e-05
-2.8806e-05
)
;

boundaryField
{
    left
    {
        type            calculated;
        value           uniform 0;
    }
    right
    {
        type            calculated;
        value           uniform 0;
    }
    frontBackUpDown
    {
        type            empty;
    }
}


// ************************************************************************* //
