/*--------------------------------*- C++ -*----------------------------------*\
| =========                 |                                                 |
| \\      /  F ield         | OpenFOAM: The Open Source CFD Toolbox           |
|  \\    /   O peration     | Version:  2412                                  |
|   \\  /    A nd           | Website:  www.openfoam.com                      |
|    \\/     M anipulation  |                                                 |
\*---------------------------------------------------------------------------*/
FoamFile
{
    version     2.0;
    format      ascii;
    arch        "LSB;label=32;scalar=64";
    class       volVectorField;
    location    "0.55";
    object      U;
}
// * * * * * * * * * * * * * * * * * * * * * * * * * * * * * * * * * * * * * //

dimensions      [0 1 -1 0 0 0 0];

internalField   nonuniform List<vector> 
800
(
(0.00144029 0 0)
(0.00432089 0 0)
(0.00720148 0 0)
(0.010082 0 0)
(0.0129626 0 0)
(0.0158431 0 0)
(0.0187235 0 0)
(0.0216039 0 0)
(0.0244842 0 0)
(0.0273645 0 0)
(0.0302447 0 0)
(0.0331247 0 0)
(0.0360047 0 0)
(0.0388845 0 0)
(0.0417643 0 0)
(0.0446439 0 0)
(0.0475234 0 0)
(0.0504027 0 0)
(0.0532818 0 0)
(0.0561608 0 0)
(0.0590397 0 0)
(0.0619183 0 0)
(0.0647968 0 0)
(0.067675 0 0)
(0.0705531 0 0)
(0.0734309 0 0)
(0.0763085 0 0)
(0.0791858 0 0)
(0.0820629 0 0)
(0.0849398 0 0)
(0.0878164 0 0)
(0.0906927 0 0)
(0.0935687 0 0)
(0.0964445 0 0)
(0.0993199 0 0)
(0.102195 0 0)
(0.10507 0 0)
(0.107944 0 0)
(0.110819 0 0)
(0.113692 0 0)
(0.116566 0 0)
(0.119439 0 0)
(0.122312 0 0)
(0.125184 0 0)
(0.128056 0 0)
(0.130927 0 0)
(0.133798 0 0)
(0.136669 0 0)
(0.139539 0 0)
(0.142409 0 0)
(0.145279 0 0)
(0.148148 0 0)
(0.151016 0 0)
(0.153884 0 0)
(0.156751 0 0)
(0.159618 0 0)
(0.162485 0 0)
(0.165351 0 0)
(0.168216 0 0)
(0.171081 0 0)
(0.173946 0 0)
(0.17681 0 0)
(0.179673 0 0)
(0.182535 0 0)
(0.185398 0 0)
(0.188259 0 0)
(0.19112 0 0)
(0.19398 0 0)
(0.19684 0 0)
(0.199699 0 0)
(0.202557 0 0)
(0.205415 0 0)
(0.208272 0 0)
(0.211129 0 0)
(0.213984 0 0)
(0.21684 0 0)
(0.219694 0 0)
(0.222548 0 0)
(0.2254 0 0)
(0.228253 0 0)
(0.231104 0 0)
(0.233955 0 0)
(0.236805 0 0)
(0.239654 0 0)
(0.242502 0 0)
(0.24535 0 0)
(0.248197 0 0)
(0.251043 0 0)
(0.253888 0 0)
(0.256732 0 0)
(0.259576 0 0)
(0.262418 0 0)
(0.26526 0 0)
(0.268101 0 0)
(0.270941 0 0)
(0.27378 0 0)
(0.276618 0 0)
(0.279455 0 0)
(0.282292 0 0)
(0.285127 0 0)
(0.287961 0 0)
(0.290795 0 0)
(0.293627 0 0)
(0.296459 0 0)
(0.299289 0 0)
(0.302119 0 0)
(0.304947 0 0)
(0.307775 0 0)
(0.310601 0 0)
(0.313427 0 0)
(0.316251 0 0)
(0.319074 0 0)
(0.321896 0 0)
(0.324717 0 0)
(0.327537 0 0)
(0.330356 0 0)
(0.333173 0 0)
(0.33599 0 0)
(0.338805 0 0)
(0.341619 0 0)
(0.344432 0 0)
(0.347244 0 0)
(0.350055 0 0)
(0.352864 0 0)
(0.355672 0 0)
(0.358479 0 0)
(0.361285 0 0)
(0.364089 0 0)
(0.366892 0 0)
(0.369694 0 0)
(0.372494 0 0)
(0.375293 0 0)
(0.378091 0 0)
(0.380888 0 0)
(0.383683 0 0)
(0.386476 0 0)
(0.389269 0 0)
(0.39206 0 0)
(0.394849 0 0)
(0.397637 0 0)
(0.400424 0 0)
(0.403209 0 0)
(0.405993 0 0)
(0.408775 0 0)
(0.411556 0 0)
(0.414335 0 0)
(0.417113 0 0)
(0.419889 0 0)
(0.422664 0 0)
(0.425437 0 0)
(0.428208 0 0)
(0.430978 0 0)
(0.433746 0 0)
(0.436513 0 0)
(0.439278 0 0)
(0.442041 0 0)
(0.444803 0 0)
(0.447563 0 0)
(0.450321 0 0)
(0.453078 0 0)
(0.455833 0 0)
(0.458586 0 0)
(0.461337 0 0)
(0.464087 0 0)
(0.466835 0 0)
(0.469581 0 0)
(0.472325 0 0)
(0.475067 0 0)
(0.477808 0 0)
(0.480546 0 0)
(0.483283 0 0)
(0.486018 0 0)
(0.488751 0 0)
(0.491482 0 0)
(0.494211 0 0)
(0.496938 0 0)
(0.499663 0 0)
(0.502386 0 0)
(0.505107 0 0)
(0.507826 0 0)
(0.510543 0 0)
(0.513257 0 0)
(0.51597 0 0)
(0.518681 0 0)
(0.521389 0 0)
(0.524096 0 0)
(0.5268 0 0)
(0.529502 0 0)
(0.532201 0 0)
(0.534899 0 0)
(0.537594 0 0)
(0.540287 0 0)
(0.542978 0 0)
(0.545666 0 0)
(0.548352 0 0)
(0.551036 0 0)
(0.553718 0 0)
(0.556397 0 0)
(0.559073 0 0)
(0.561747 0 0)
(0.564419 0 0)
(0.567088 0 0)
(0.569755 0 0)
(0.572419 0 0)
(0.575081 0 0)
(0.57774 0 0)
(0.580397 0 0)
(0.58305 0 0)
(0.585702 0 0)
(0.588351 0 0)
(0.590997 0 0)
(0.59364 0 0)
(0.59628 0 0)
(0.598918 0 0)
(0.601553 0 0)
(0.604186 0 0)
(0.606815 0 0)
(0.609442 0 0)
(0.612066 0 0)
(0.614687 0 0)
(0.617305 0 0)
(0.61992 0 0)
(0.622532 0 0)
(0.625141 0 0)
(0.627747 0 0)
(0.63035 0 0)
(0.63295 0 0)
(0.635547 0 0)
(0.638141 0 0)
(0.640731 0 0)
(0.643319 0 0)
(0.645903 0 0)
(0.648484 0 0)
(0.651062 0 0)
(0.653636 0 0)
(0.656207 0 0)
(0.658775 0 0)
(0.661339 0 0)
(0.6639 0 0)
(0.666458 0 0)
(0.669012 0 0)
(0.671562 0 0)
(0.674109 0 0)
(0.676652 0 0)
(0.679192 0 0)
(0.681728 0 0)
(0.684261 0 0)
(0.68679 0 0)
(0.689315 0 0)
(0.691836 0 0)
(0.694353 0 0)
(0.696867 0 0)
(0.699377 0 0)
(0.701882 0 0)
(0.704384 0 0)
(0.706882 0 0)
(0.709376 0 0)
(0.711866 0 0)
(0.714351 0 0)
(0.716833 0 0)
(0.71931 0 0)
(0.721783 0 0)
(0.724252 0 0)
(0.726717 0 0)
(0.729177 0 0)
(0.731633 0 0)
(0.734084 0 0)
(0.736531 0 0)
(0.738973 0 0)
(0.741411 0 0)
(0.743844 0 0)
(0.746273 0 0)
(0.748697 0 0)
(0.751116 0 0)
(0.75353 0 0)
(0.755939 0 0)
(0.758344 0 0)
(0.760744 0 0)
(0.763138 0 0)
(0.765528 0 0)
(0.767912 0 0)
(0.770292 0 0)
(0.772666 0 0)
(0.775035 0 0)
(0.777399 0 0)
(0.779757 0 0)
(0.78211 0 0)
(0.784457 0 0)
(0.786799 0 0)
(0.789135 0 0)
(0.791466 0 0)
(0.793791 0 0)
(0.79611 0 0)
(0.798423 0 0)
(0.800731 0 0)
(0.803032 0 0)
(0.805328 0 0)
(0.807617 0 0)
(0.8099 0 0)
(0.812177 0 0)
(0.814448 0 0)
(0.816712 0 0)
(0.81897 0 0)
(0.821221 0 0)
(0.823466 0 0)
(0.825704 0 0)
(0.827935 0 0)
(0.83016 0 0)
(0.832378 0 0)
(0.834588 0 0)
(0.836792 0 0)
(0.838989 0 0)
(0.841178 0 0)
(0.84336 0 0)
(0.845534 0 0)
(0.847701 0 0)
(0.849861 0 0)
(0.852013 0 0)
(0.854157 0 0)
(0.856293 0 0)
(0.858421 0 0)
(0.860542 0 0)
(0.862654 0 0)
(0.864757 0 0)
(0.866853 0 0)
(0.86894 0 0)
(0.871018 0 0)
(0.873088 0 0)
(0.875149 0 0)
(0.8772 0 0)
(0.879243 0 0)
(0.881277 0 0)
(0.883301 0 0)
(0.885316 0 0)
(0.887322 0 0)
(0.889318 0 0)
(0.891304 0 0)
(0.89328 0 0)
(0.895246 0 0)
(0.897201 0 0)
(0.899147 0 0)
(0.901081 0 0)
(0.903006 0 0)
(0.904919 0 0)
(0.906821 0 0)
(0.908712 0 0)
(0.910592 0 0)
(0.91246 0 0)
(0.914317 0 0)
(0.916162 0 0)
(0.917995 0 0)
(0.919815 0 0)
(0.921623 0 0)
(0.923419 0 0)
(0.925202 0 0)
(0.926971 0 0)
(0.928728 0 0)
(0.930471 0 0)
(0.9322 0 0)
(0.933915 0 0)
(0.935617 0 0)
(0.937303 0 0)
(0.938976 0 0)
(0.940633 0 0)
(0.942275 0 0)
(0.943902 0 0)
(0.945513 0 0)
(0.947108 0 0)
(0.948687 0 0)
(0.950249 0 0)
(0.951794 0 0)
(0.953323 0 0)
(0.954833 0 0)
(0.956326 0 0)
(0.9578 0 0)
(0.959256 0 0)
(0.960693 0 0)
(0.96211 0 0)
(0.963508 0 0)
(0.964885 0 0)
(0.966242 0 0)
(0.967578 0 0)
(0.968892 0 0)
(0.970184 0 0)
(0.971454 0 0)
(0.972701 0 0)
(0.973924 0 0)
(0.975123 0 0)
(0.976298 0 0)
(0.977447 0 0)
(0.978571 0 0)
(0.979668 0 0)
(0.980738 0 0)
(0.981779 0 0)
(0.982796 0 0)
(0.983751 0 0)
(0.984983 0 0)
(0.983273 0 0)
(1.00853 0 0)
(0.610676 0 0)
(-0.609253 0 0)
(-1.00854 0 0)
(-0.983271 0 0)
(-0.984983 0 0)
(-0.98375 0 0)
(-0.982795 0 0)
(-0.981779 0 0)
(-0.980737 0 0)
(-0.979667 0 0)
(-0.97857 0 0)
(-0.977447 0 0)
(-0.976297 0 0)
(-0.975123 0 0)
(-0.973923 0 0)
(-0.9727 0 0)
(-0.971453 0 0)
(-0.970183 0 0)
(-0.968891 0 0)
(-0.967577 0 0)
(-0.966241 0 0)
(-0.964884 0 0)
(-0.963507 0 0)
(-0.962109 0 0)
(-0.960692 0 0)
(-0.959255 0 0)
(-0.957799 0 0)
(-0.956325 0 0)
(-0.954832 0 0)
(-0.953321 0 0)
(-0.951793 0 0)
(-0.950248 0 0)
(-0.948686 0 0)
(-0.947107 0 0)
(-0.945512 0 0)
(-0.943901 0 0)
(-0.942274 0 0)
(-0.940632 0 0)
(-0.938974 0 0)
(-0.937302 0 0)
(-0.935615 0 0)
(-0.933914 0 0)
(-0.932198 0 0)
(-0.930469 0 0)
(-0.928726 0 0)
(-0.92697 0 0)
(-0.9252 0 0)
(-0.923417 0 0)
(-0.921622 0 0)
(-0.919813 0 0)
(-0.917993 0 0)
(-0.91616 0 0)
(-0.914315 0 0)
(-0.912459 0 0)
(-0.91059 0 0)
(-0.90871 0 0)
(-0.906819 0 0)
(-0.904917 0 0)
(-0.903004 0 0)
(-0.90108 0 0)
(-0.899145 0 0)
(-0.897199 0 0)
(-0.895244 0 0)
(-0.893278 0 0)
(-0.891302 0 0)
(-0.889316 0 0)
(-0.88732 0 0)
(-0.885314 0 0)
(-0.883299 0 0)
(-0.881275 0 0)
(-0.879241 0 0)
(-0.877198 0 0)
(-0.875146 0 0)
(-0.873086 0 0)
(-0.871016 0 0)
(-0.868938 0 0)
(-0.866851 0 0)
(-0.864755 0 0)
(-0.862651 0 0)
(-0.860539 0 0)
(-0.858419 0 0)
(-0.856291 0 0)
(-0.854155 0 0)
(-0.852011 0 0)
(-0.849859 0 0)
(-0.847699 0 0)
(-0.845532 0 0)
(-0.843358 0 0)
(-0.841176 0 0)
(-0.838986 0 0)
(-0.83679 0 0)
(-0.834586 0 0)
(-0.832375 0 0)
(-0.830158 0 0)
(-0.827933 0 0)
(-0.825702 0 0)
(-0.823464 0 0)
(-0.821219 0 0)
(-0.818968 0 0)
(-0.81671 0 0)
(-0.814445 0 0)
(-0.812175 0 0)
(-0.809898 0 0)
(-0.807615 0 0)
(-0.805325 0 0)
(-0.80303 0 0)
(-0.800728 0 0)
(-0.798421 0 0)
(-0.796108 0 0)
(-0.793788 0 0)
(-0.791464 0 0)
(-0.789133 0 0)
(-0.786797 0 0)
(-0.784455 0 0)
(-0.782107 0 0)
(-0.779755 0 0)
(-0.777396 0 0)
(-0.775033 0 0)
(-0.772664 0 0)
(-0.77029 0 0)
(-0.76791 0 0)
(-0.765526 0 0)
(-0.763136 0 0)
(-0.760741 0 0)
(-0.758342 0 0)
(-0.755937 0 0)
(-0.753528 0 0)
(-0.751113 0 0)
(-0.748694 0 0)
(-0.74627 0 0)
(-0.743842 0 0)
(-0.741409 0 0)
(-0.738971 0 0)
(-0.736529 0 0)
(-0.734082 0 0)
(-0.73163 0 0)
(-0.729175 0 0)
(-0.726714 0 0)
(-0.72425 0 0)
(-0.721781 0 0)
(-0.719308 0 0)
(-0.716831 0 0)
(-0.714349 0 0)
(-0.711863 0 0)
(-0.709374 0 0)
(-0.70688 0 0)
(-0.704382 0 0)
(-0.70188 0 0)
(-0.699374 0 0)
(-0.696865 0 0)
(-0.694351 0 0)
(-0.691834 0 0)
(-0.689312 0 0)
(-0.686787 0 0)
(-0.684259 0 0)
(-0.681726 0 0)
(-0.67919 0 0)
(-0.67665 0 0)
(-0.674107 0 0)
(-0.67156 0 0)
(-0.669009 0 0)
(-0.666455 0 0)
(-0.663898 0 0)
(-0.661337 0 0)
(-0.658773 0 0)
(-0.656205 0 0)
(-0.653634 0 0)
(-0.65106 0 0)
(-0.648482 0 0)
(-0.645901 0 0)
(-0.643317 0 0)
(-0.640729 0 0)
(-0.638139 0 0)
(-0.635545 0 0)
(-0.632948 0 0)
(-0.630348 0 0)
(-0.627745 0 0)
(-0.625139 0 0)
(-0.62253 0 0)
(-0.619918 0 0)
(-0.617303 0 0)
(-0.614685 0 0)
(-0.612064 0 0)
(-0.60944 0 0)
(-0.606813 0 0)
(-0.604184 0 0)
(-0.601552 0 0)
(-0.598916 0 0)
(-0.596279 0 0)
(-0.593638 0 0)
(-0.590995 0 0)
(-0.588349 0 0)
(-0.5857 0 0)
(-0.583049 0 0)
(-0.580395 0 0)
(-0.577738 0 0)
(-0.575079 0 0)
(-0.572417 0 0)
(-0.569753 0 0)
(-0.567086 0 0)
(-0.564417 0 0)
(-0.561746 0 0)
(-0.559071 0 0)
(-0.556395 0 0)
(-0.553716 0 0)
(-0.551035 0 0)
(-0.548351 0 0)
(-0.545665 0 0)
(-0.542976 0 0)
(-0.540286 0 0)
(-0.537593 0 0)
(-0.534897 0 0)
(-0.5322 0 0)
(-0.5295 0 0)
(-0.526798 0 0)
(-0.524094 0 0)
(-0.521388 0 0)
(-0.518679 0 0)
(-0.515969 0 0)
(-0.513256 0 0)
(-0.510541 0 0)
(-0.507824 0 0)
(-0.505105 0 0)
(-0.502384 0 0)
(-0.499661 0 0)
(-0.496936 0 0)
(-0.494209 0 0)
(-0.49148 0 0)
(-0.488749 0 0)
(-0.486017 0 0)
(-0.483282 0 0)
(-0.480545 0 0)
(-0.477807 0 0)
(-0.475066 0 0)
(-0.472324 0 0)
(-0.46958 0 0)
(-0.466834 0 0)
(-0.464086 0 0)
(-0.461336 0 0)
(-0.458585 0 0)
(-0.455832 0 0)
(-0.453077 0 0)
(-0.45032 0 0)
(-0.447562 0 0)
(-0.444802 0 0)
(-0.44204 0 0)
(-0.439277 0 0)
(-0.436512 0 0)
(-0.433745 0 0)
(-0.430977 0 0)
(-0.428207 0 0)
(-0.425436 0 0)
(-0.422663 0 0)
(-0.419888 0 0)
(-0.417112 0 0)
(-0.414334 0 0)
(-0.411555 0 0)
(-0.408774 0 0)
(-0.405992 0 0)
(-0.403208 0 0)
(-0.400423 0 0)
(-0.397636 0 0)
(-0.394848 0 0)
(-0.392059 0 0)
(-0.389268 0 0)
(-0.386476 0 0)
(-0.383682 0 0)
(-0.380887 0 0)
(-0.37809 0 0)
(-0.375293 0 0)
(-0.372493 0 0)
(-0.369693 0 0)
(-0.366891 0 0)
(-0.364088 0 0)
(-0.361284 0 0)
(-0.358478 0 0)
(-0.355671 0 0)
(-0.352863 0 0)
(-0.350054 0 0)
(-0.347243 0 0)
(-0.344432 0 0)
(-0.341619 0 0)
(-0.338805 0 0)
(-0.335989 0 0)
(-0.333173 0 0)
(-0.330355 0 0)
(-0.327536 0 0)
(-0.324717 0 0)
(-0.321896 0 0)
(-0.319073 0 0)
(-0.31625 0 0)
(-0.313426 0 0)
(-0.310601 0 0)
(-0.307774 0 0)
(-0.304947 0 0)
(-0.302118 0 0)
(-0.299289 0 0)
(-0.296458 0 0)
(-0.293627 0 0)
(-0.290794 0 0)
(-0.287961 0 0)
(-0.285127 0 0)
(-0.282291 0 0)
(-0.279455 0 0)
(-0.276618 0 0)
(-0.273779 0 0)
(-0.27094 0 0)
(-0.2681 0 0)
(-0.265259 0 0)
(-0.262418 0 0)
(-0.259575 0 0)
(-0.256732 0 0)
(-0.253887 0 0)
(-0.251042 0 0)
(-0.248196 0 0)
(-0.245349 0 0)
(-0.242502 0 0)
(-0.239654 0 0)
(-0.236804 0 0)
(-0.233954 0 0)
(-0.231104 0 0)
(-0.228252 0 0)
(-0.2254 0 0)
(-0.222547 0 0)
(-0.219694 0 0)
(-0.216839 0 0)
(-0.213984 0 0)
(-0.211128 0 0)
(-0.208272 0 0)
(-0.205415 0 0)
(-0.202557 0 0)
(-0.199699 0 0)
(-0.19684 0 0)
(-0.19398 0 0)
(-0.19112 0 0)
(-0.188259 0 0)
(-0.185397 0 0)
(-0.182535 0 0)
(-0.179673 0 0)
(-0.176809 0 0)
(-0.173945 0 0)
(-0.171081 0 0)
(-0.168216 0 0)
(-0.165351 0 0)
(-0.162485 0 0)
(-0.159618 0 0)
(-0.156751 0 0)
(-0.153884 0 0)
(-0.151016 0 0)
(-0.148147 0 0)
(-0.145278 0 0)
(-0.142409 0 0)
(-0.139539 0 0)
(-0.136669 0 0)
(-0.133798 0 0)
(-0.130927 0 0)
(-0.128056 0 0)
(-0.125184 0 0)
(-0.122311 0 0)
(-0.119439 0 0)
(-0.116566 0 0)
(-0.113692 0 0)
(-0.110818 0 0)
(-0.107944 0 0)
(-0.10507 0 0)
(-0.102195 0 0)
(-0.0993198 0 0)
(-0.0964444 0 0)
(-0.0935687 0 0)
(-0.0906926 0 0)
(-0.0878163 0 0)
(-0.0849397 0 0)
(-0.0820629 0 0)
(-0.0791858 0 0)
(-0.0763084 0 0)
(-0.0734308 0 0)
(-0.070553 0 0)
(-0.067675 0 0)
(-0.0647967 0 0)
(-0.0619183 0 0)
(-0.0590397 0 0)
(-0.0561608 0 0)
(-0.0532818 0 0)
(-0.0504027 0 0)
(-0.0475233 0 0)
(-0.0446439 0 0)
(-0.0417643 0 0)
(-0.0388845 0 0)
(-0.0360047 0 0)
(-0.0331247 0 0)
(-0.0302447 0 0)
(-0.0273645 0 0)
(-0.0244843 0 0)
(-0.0216039 0 0)
(-0.0187235 0 0)
(-0.0158431 0 0)
(-0.0129626 0 0)
(-0.0100821 0 0)
(-0.0072015 0 0)
(-0.00432091 0 0)
(-0.0014403 0 0)
)
;

boundaryField
{
    left
    {
        type            fixedValue;
        value           uniform (0 0 0);
    }
    right
    {
        type            fixedValue;
        value           uniform (0 0 0);
    }
    frontBackUpDown
    {
        type            empty;
    }
}


// ************************************************************************* //
