/*--------------------------------*- C++ -*----------------------------------*\
| =========                 |                                                 |
| \\      /  F ield         | OpenFOAM: The Open Source CFD Toolbox           |
|  \\    /   O peration     | Version:  2412                                  |
|   \\  /    A nd           | Website:  www.openfoam.com                      |
|    \\/     M anipulation  |                                                 |
\*---------------------------------------------------------------------------*/
FoamFile
{
    version     2.0;
    format      ascii;
    arch        "LSB;label=32;scalar=64";
    class       volVectorField;
    location    "0.55";
    object      U_0_0_0;
}
// * * * * * * * * * * * * * * * * * * * * * * * * * * * * * * * * * * * * * //

dimensions      [0 1 -1 0 0 0 0];

internalField   nonuniform List<vector> 
800
(
(0.00144278 0 0)
(0.00432835 0 0)
(0.00721392 0 0)
(0.0100995 0 0)
(0.012985 0 0)
(0.0158705 0 0)
(0.0187559 0 0)
(0.0216412 0 0)
(0.0245265 0 0)
(0.0274118 0 0)
(0.0302969 0 0)
(0.033182 0 0)
(0.0360669 0 0)
(0.0389517 0 0)
(0.0418364 0 0)
(0.044721 0 0)
(0.0476055 0 0)
(0.0504897 0 0)
(0.0533739 0 0)
(0.0562578 0 0)
(0.0591416 0 0)
(0.0620252 0 0)
(0.0649087 0 0)
(0.0677919 0 0)
(0.0706749 0 0)
(0.0735576 0 0)
(0.0764402 0 0)
(0.0793225 0 0)
(0.0822046 0 0)
(0.0850864 0 0)
(0.0879679 0 0)
(0.0908492 0 0)
(0.0937302 0 0)
(0.0966109 0 0)
(0.0994912 0 0)
(0.102371 0 0)
(0.105251 0 0)
(0.10813 0 0)
(0.11101 0 0)
(0.113888 0 0)
(0.116767 0 0)
(0.119645 0 0)
(0.122522 0 0)
(0.1254 0 0)
(0.128276 0 0)
(0.131153 0 0)
(0.134029 0 0)
(0.136905 0 0)
(0.13978 0 0)
(0.142654 0 0)
(0.145529 0 0)
(0.148403 0 0)
(0.151276 0 0)
(0.154149 0 0)
(0.157021 0 0)
(0.159893 0 0)
(0.162764 0 0)
(0.165635 0 0)
(0.168506 0 0)
(0.171375 0 0)
(0.174245 0 0)
(0.177113 0 0)
(0.179981 0 0)
(0.182849 0 0)
(0.185716 0 0)
(0.188582 0 0)
(0.191448 0 0)
(0.194313 0 0)
(0.197178 0 0)
(0.200042 0 0)
(0.202905 0 0)
(0.205767 0 0)
(0.208629 0 0)
(0.211491 0 0)
(0.214351 0 0)
(0.217211 0 0)
(0.22007 0 0)
(0.222928 0 0)
(0.225786 0 0)
(0.228643 0 0)
(0.231499 0 0)
(0.234355 0 0)
(0.23721 0 0)
(0.240064 0 0)
(0.242917 0 0)
(0.245769 0 0)
(0.248621 0 0)
(0.251471 0 0)
(0.254321 0 0)
(0.25717 0 0)
(0.260018 0 0)
(0.262866 0 0)
(0.265712 0 0)
(0.268558 0 0)
(0.271402 0 0)
(0.274246 0 0)
(0.277089 0 0)
(0.279931 0 0)
(0.282772 0 0)
(0.285612 0 0)
(0.288451 0 0)
(0.291289 0 0)
(0.294126 0 0)
(0.296962 0 0)
(0.299798 0 0)
(0.302632 0 0)
(0.305465 0 0)
(0.308297 0 0)
(0.311128 0 0)
(0.313958 0 0)
(0.316787 0 0)
(0.319614 0 0)
(0.322441 0 0)
(0.325267 0 0)
(0.328091 0 0)
(0.330914 0 0)
(0.333737 0 0)
(0.336558 0 0)
(0.339377 0 0)
(0.342196 0 0)
(0.345014 0 0)
(0.34783 0 0)
(0.350645 0 0)
(0.353459 0 0)
(0.356271 0 0)
(0.359083 0 0)
(0.361893 0 0)
(0.364701 0 0)
(0.367509 0 0)
(0.370315 0 0)
(0.37312 0 0)
(0.375924 0 0)
(0.378726 0 0)
(0.381527 0 0)
(0.384326 0 0)
(0.387124 0 0)
(0.389921 0 0)
(0.392716 0 0)
(0.39551 0 0)
(0.398302 0 0)
(0.401093 0 0)
(0.403883 0 0)
(0.406671 0 0)
(0.409457 0 0)
(0.412242 0 0)
(0.415026 0 0)
(0.417808 0 0)
(0.420588 0 0)
(0.423367 0 0)
(0.426144 0 0)
(0.42892 0 0)
(0.431694 0 0)
(0.434467 0 0)
(0.437237 0 0)
(0.440007 0 0)
(0.442774 0 0)
(0.44554 0 0)
(0.448304 0 0)
(0.451067 0 0)
(0.453827 0 0)
(0.456586 0 0)
(0.459343 0 0)
(0.462099 0 0)
(0.464852 0 0)
(0.467604 0 0)
(0.470354 0 0)
(0.473102 0 0)
(0.475849 0 0)
(0.478593 0 0)
(0.481336 0 0)
(0.484076 0 0)
(0.486815 0 0)
(0.489552 0 0)
(0.492287 0 0)
(0.49502 0 0)
(0.497751 0 0)
(0.50048 0 0)
(0.503206 0 0)
(0.505931 0 0)
(0.508654 0 0)
(0.511375 0 0)
(0.514093 0 0)
(0.51681 0 0)
(0.519524 0 0)
(0.522236 0 0)
(0.524946 0 0)
(0.527654 0 0)
(0.53036 0 0)
(0.533063 0 0)
(0.535764 0 0)
(0.538463 0 0)
(0.54116 0 0)
(0.543854 0 0)
(0.546546 0 0)
(0.549236 0 0)
(0.551923 0 0)
(0.554608 0 0)
(0.557291 0 0)
(0.559971 0 0)
(0.562648 0 0)
(0.565323 0 0)
(0.567996 0 0)
(0.570666 0 0)
(0.573334 0 0)
(0.575999 0 0)
(0.578661 0 0)
(0.581321 0 0)
(0.583979 0 0)
(0.586633 0 0)
(0.589285 0 0)
(0.591934 0 0)
(0.594581 0 0)
(0.597225 0 0)
(0.599866 0 0)
(0.602504 0 0)
(0.60514 0 0)
(0.607772 0 0)
(0.610402 0 0)
(0.613029 0 0)
(0.615653 0 0)
(0.618274 0 0)
(0.620892 0 0)
(0.623507 0 0)
(0.626119 0 0)
(0.628728 0 0)
(0.631334 0 0)
(0.633937 0 0)
(0.636537 0 0)
(0.639133 0 0)
(0.641727 0 0)
(0.644317 0 0)
(0.646904 0 0)
(0.649488 0 0)
(0.652068 0 0)
(0.654645 0 0)
(0.657219 0 0)
(0.659789 0 0)
(0.662356 0 0)
(0.66492 0 0)
(0.66748 0 0)
(0.670036 0 0)
(0.672589 0 0)
(0.675139 0 0)
(0.677684 0 0)
(0.680227 0 0)
(0.682765 0 0)
(0.6853 0 0)
(0.687831 0 0)
(0.690358 0 0)
(0.692882 0 0)
(0.695401 0 0)
(0.697917 0 0)
(0.700429 0 0)
(0.702937 0 0)
(0.705441 0 0)
(0.707941 0 0)
(0.710437 0 0)
(0.712928 0 0)
(0.715416 0 0)
(0.717899 0 0)
(0.720379 0 0)
(0.722854 0 0)
(0.725324 0 0)
(0.72779 0 0)
(0.730252 0 0)
(0.73271 0 0)
(0.735163 0 0)
(0.737611 0 0)
(0.740055 0 0)
(0.742495 0 0)
(0.744929 0 0)
(0.747359 0 0)
(0.749785 0 0)
(0.752205 0 0)
(0.754621 0 0)
(0.757031 0 0)
(0.759437 0 0)
(0.761838 0 0)
(0.764234 0 0)
(0.766625 0 0)
(0.76901 0 0)
(0.771391 0 0)
(0.773766 0 0)
(0.776136 0 0)
(0.7785 0 0)
(0.780859 0 0)
(0.783213 0 0)
(0.785561 0 0)
(0.787903 0 0)
(0.79024 0 0)
(0.792571 0 0)
(0.794897 0 0)
(0.797216 0 0)
(0.79953 0 0)
(0.801838 0 0)
(0.80414 0 0)
(0.806435 0 0)
(0.808725 0 0)
(0.811008 0 0)
(0.813285 0 0)
(0.815556 0 0)
(0.81782 0 0)
(0.820078 0 0)
(0.822329 0 0)
(0.824574 0 0)
(0.826811 0 0)
(0.829042 0 0)
(0.831267 0 0)
(0.833484 0 0)
(0.835694 0 0)
(0.837897 0 0)
(0.840093 0 0)
(0.842281 0 0)
(0.844462 0 0)
(0.846636 0 0)
(0.848802 0 0)
(0.85096 0 0)
(0.853111 0 0)
(0.855254 0 0)
(0.857389 0 0)
(0.859516 0 0)
(0.861634 0 0)
(0.863745 0 0)
(0.865847 0 0)
(0.867941 0 0)
(0.870026 0 0)
(0.872102 0 0)
(0.87417 0 0)
(0.876228 0 0)
(0.878278 0 0)
(0.880319 0 0)
(0.88235 0 0)
(0.884372 0 0)
(0.886384 0 0)
(0.888387 0 0)
(0.89038 0 0)
(0.892363 0 0)
(0.894336 0 0)
(0.896299 0 0)
(0.898251 0 0)
(0.900193 0 0)
(0.902125 0 0)
(0.904045 0 0)
(0.905955 0 0)
(0.907853 0 0)
(0.90974 0 0)
(0.911616 0 0)
(0.91348 0 0)
(0.915332 0 0)
(0.917173 0 0)
(0.919001 0 0)
(0.920817 0 0)
(0.92262 0 0)
(0.92441 0 0)
(0.926188 0 0)
(0.927952 0 0)
(0.929703 0 0)
(0.93144 0 0)
(0.933163 0 0)
(0.934873 0 0)
(0.936568 0 0)
(0.938248 0 0)
(0.939914 0 0)
(0.941564 0 0)
(0.943199 0 0)
(0.944819 0 0)
(0.946422 0 0)
(0.94801 0 0)
(0.949581 0 0)
(0.951135 0 0)
(0.952672 0 0)
(0.954191 0 0)
(0.955693 0 0)
(0.957177 0 0)
(0.958642 0 0)
(0.960088 0 0)
(0.961515 0 0)
(0.962922 0 0)
(0.96431 0 0)
(0.965677 0 0)
(0.967022 0 0)
(0.968347 0 0)
(0.96965 0 0)
(0.97093 0 0)
(0.972187 0 0)
(0.973422 0 0)
(0.974632 0 0)
(0.975818 0 0)
(0.976978 0 0)
(0.978114 0 0)
(0.979222 0 0)
(0.980304 0 0)
(0.981359 0 0)
(0.982385 0 0)
(0.983385 0 0)
(0.984322 0 0)
(0.98554 0 0)
(0.983793 0 0)
(1.00916 0 0)
(0.611277 0 0)
(-0.609854 0 0)
(-1.00917 0 0)
(-0.983791 0 0)
(-0.985539 0 0)
(-0.984322 0 0)
(-0.983384 0 0)
(-0.982384 0 0)
(-0.981358 0 0)
(-0.980304 0 0)
(-0.979222 0 0)
(-0.978113 0 0)
(-0.976978 0 0)
(-0.975817 0 0)
(-0.974631 0 0)
(-0.973421 0 0)
(-0.972186 0 0)
(-0.970929 0 0)
(-0.969649 0 0)
(-0.968346 0 0)
(-0.967021 0 0)
(-0.965675 0 0)
(-0.964309 0 0)
(-0.962921 0 0)
(-0.961514 0 0)
(-0.960087 0 0)
(-0.958641 0 0)
(-0.957176 0 0)
(-0.955692 0 0)
(-0.95419 0 0)
(-0.952671 0 0)
(-0.951134 0 0)
(-0.949579 0 0)
(-0.948009 0 0)
(-0.946421 0 0)
(-0.944817 0 0)
(-0.943198 0 0)
(-0.941563 0 0)
(-0.939912 0 0)
(-0.938246 0 0)
(-0.936566 0 0)
(-0.934871 0 0)
(-0.933162 0 0)
(-0.931438 0 0)
(-0.929701 0 0)
(-0.92795 0 0)
(-0.926186 0 0)
(-0.924408 0 0)
(-0.922618 0 0)
(-0.920815 0 0)
(-0.918999 0 0)
(-0.917171 0 0)
(-0.915331 0 0)
(-0.913478 0 0)
(-0.911614 0 0)
(-0.909739 0 0)
(-0.907851 0 0)
(-0.905953 0 0)
(-0.904043 0 0)
(-0.902123 0 0)
(-0.900191 0 0)
(-0.898249 0 0)
(-0.896297 0 0)
(-0.894334 0 0)
(-0.892361 0 0)
(-0.890378 0 0)
(-0.888385 0 0)
(-0.886382 0 0)
(-0.88437 0 0)
(-0.882348 0 0)
(-0.880317 0 0)
(-0.878276 0 0)
(-0.876226 0 0)
(-0.874168 0 0)
(-0.8721 0 0)
(-0.870024 0 0)
(-0.867938 0 0)
(-0.865845 0 0)
(-0.863743 0 0)
(-0.861632 0 0)
(-0.859513 0 0)
(-0.857387 0 0)
(-0.855252 0 0)
(-0.853109 0 0)
(-0.850958 0 0)
(-0.8488 0 0)
(-0.846634 0 0)
(-0.84446 0 0)
(-0.842279 0 0)
(-0.84009 0 0)
(-0.837895 0 0)
(-0.835692 0 0)
(-0.833481 0 0)
(-0.831264 0 0)
(-0.82904 0 0)
(-0.826809 0 0)
(-0.824571 0 0)
(-0.822327 0 0)
(-0.820076 0 0)
(-0.817818 0 0)
(-0.815554 0 0)
(-0.813283 0 0)
(-0.811006 0 0)
(-0.808723 0 0)
(-0.806433 0 0)
(-0.804137 0 0)
(-0.801836 0 0)
(-0.799528 0 0)
(-0.797214 0 0)
(-0.794895 0 0)
(-0.792569 0 0)
(-0.790238 0 0)
(-0.787901 0 0)
(-0.785559 0 0)
(-0.78321 0 0)
(-0.780857 0 0)
(-0.778498 0 0)
(-0.776133 0 0)
(-0.773763 0 0)
(-0.771388 0 0)
(-0.769008 0 0)
(-0.766622 0 0)
(-0.764232 0 0)
(-0.761836 0 0)
(-0.759435 0 0)
(-0.757029 0 0)
(-0.754618 0 0)
(-0.752203 0 0)
(-0.749782 0 0)
(-0.747357 0 0)
(-0.744927 0 0)
(-0.742492 0 0)
(-0.740053 0 0)
(-0.737609 0 0)
(-0.735161 0 0)
(-0.732708 0 0)
(-0.73025 0 0)
(-0.727788 0 0)
(-0.725322 0 0)
(-0.722851 0 0)
(-0.720376 0 0)
(-0.717897 0 0)
(-0.715414 0 0)
(-0.712926 0 0)
(-0.710434 0 0)
(-0.707939 0 0)
(-0.705439 0 0)
(-0.702935 0 0)
(-0.700427 0 0)
(-0.697915 0 0)
(-0.695399 0 0)
(-0.69288 0 0)
(-0.690356 0 0)
(-0.687829 0 0)
(-0.685298 0 0)
(-0.682763 0 0)
(-0.680224 0 0)
(-0.677682 0 0)
(-0.675137 0 0)
(-0.672587 0 0)
(-0.670034 0 0)
(-0.667478 0 0)
(-0.664918 0 0)
(-0.662354 0 0)
(-0.659787 0 0)
(-0.657217 0 0)
(-0.654643 0 0)
(-0.652066 0 0)
(-0.649486 0 0)
(-0.646902 0 0)
(-0.644315 0 0)
(-0.641725 0 0)
(-0.639131 0 0)
(-0.636535 0 0)
(-0.633935 0 0)
(-0.631332 0 0)
(-0.628726 0 0)
(-0.626117 0 0)
(-0.623505 0 0)
(-0.62089 0 0)
(-0.618272 0 0)
(-0.615651 0 0)
(-0.613027 0 0)
(-0.6104 0 0)
(-0.60777 0 0)
(-0.605138 0 0)
(-0.602502 0 0)
(-0.599864 0 0)
(-0.597223 0 0)
(-0.594579 0 0)
(-0.591933 0 0)
(-0.589283 0 0)
(-0.586631 0 0)
(-0.583977 0 0)
(-0.58132 0 0)
(-0.57866 0 0)
(-0.575997 0 0)
(-0.573332 0 0)
(-0.570665 0 0)
(-0.567994 0 0)
(-0.565322 0 0)
(-0.562647 0 0)
(-0.559969 0 0)
(-0.557289 0 0)
(-0.554606 0 0)
(-0.551922 0 0)
(-0.549234 0 0)
(-0.546545 0 0)
(-0.543853 0 0)
(-0.541158 0 0)
(-0.538462 0 0)
(-0.535763 0 0)
(-0.533062 0 0)
(-0.530358 0 0)
(-0.527653 0 0)
(-0.524945 0 0)
(-0.522235 0 0)
(-0.519523 0 0)
(-0.516808 0 0)
(-0.514092 0 0)
(-0.511373 0 0)
(-0.508653 0 0)
(-0.50593 0 0)
(-0.503205 0 0)
(-0.500478 0 0)
(-0.497749 0 0)
(-0.495018 0 0)
(-0.492286 0 0)
(-0.489551 0 0)
(-0.486814 0 0)
(-0.484075 0 0)
(-0.481334 0 0)
(-0.478592 0 0)
(-0.475848 0 0)
(-0.473101 0 0)
(-0.470353 0 0)
(-0.467603 0 0)
(-0.464851 0 0)
(-0.462098 0 0)
(-0.459342 0 0)
(-0.456585 0 0)
(-0.453826 0 0)
(-0.451065 0 0)
(-0.448303 0 0)
(-0.445539 0 0)
(-0.442773 0 0)
(-0.440006 0 0)
(-0.437236 0 0)
(-0.434466 0 0)
(-0.431693 0 0)
(-0.428919 0 0)
(-0.426143 0 0)
(-0.423366 0 0)
(-0.420587 0 0)
(-0.417807 0 0)
(-0.415025 0 0)
(-0.412241 0 0)
(-0.409456 0 0)
(-0.40667 0 0)
(-0.403882 0 0)
(-0.401092 0 0)
(-0.398301 0 0)
(-0.395509 0 0)
(-0.392715 0 0)
(-0.38992 0 0)
(-0.387123 0 0)
(-0.384325 0 0)
(-0.381526 0 0)
(-0.378725 0 0)
(-0.375923 0 0)
(-0.373119 0 0)
(-0.370314 0 0)
(-0.367508 0 0)
(-0.364701 0 0)
(-0.361892 0 0)
(-0.359082 0 0)
(-0.356271 0 0)
(-0.353458 0 0)
(-0.350644 0 0)
(-0.347829 0 0)
(-0.345013 0 0)
(-0.342195 0 0)
(-0.339377 0 0)
(-0.336557 0 0)
(-0.333736 0 0)
(-0.330914 0 0)
(-0.32809 0 0)
(-0.325266 0 0)
(-0.32244 0 0)
(-0.319614 0 0)
(-0.316786 0 0)
(-0.313957 0 0)
(-0.311127 0 0)
(-0.308296 0 0)
(-0.305464 0 0)
(-0.302631 0 0)
(-0.299797 0 0)
(-0.296962 0 0)
(-0.294126 0 0)
(-0.291289 0 0)
(-0.288451 0 0)
(-0.285611 0 0)
(-0.282771 0 0)
(-0.27993 0 0)
(-0.277089 0 0)
(-0.274246 0 0)
(-0.271402 0 0)
(-0.268557 0 0)
(-0.265712 0 0)
(-0.262865 0 0)
(-0.260018 0 0)
(-0.25717 0 0)
(-0.254321 0 0)
(-0.251471 0 0)
(-0.24862 0 0)
(-0.245769 0 0)
(-0.242916 0 0)
(-0.240063 0 0)
(-0.237209 0 0)
(-0.234355 0 0)
(-0.231499 0 0)
(-0.228643 0 0)
(-0.225786 0 0)
(-0.222928 0 0)
(-0.22007 0 0)
(-0.217211 0 0)
(-0.214351 0 0)
(-0.21149 0 0)
(-0.208629 0 0)
(-0.205767 0 0)
(-0.202905 0 0)
(-0.200041 0 0)
(-0.197177 0 0)
(-0.194313 0 0)
(-0.191448 0 0)
(-0.188582 0 0)
(-0.185716 0 0)
(-0.182849 0 0)
(-0.179981 0 0)
(-0.177113 0 0)
(-0.174244 0 0)
(-0.171375 0 0)
(-0.168505 0 0)
(-0.165635 0 0)
(-0.162764 0 0)
(-0.159893 0 0)
(-0.157021 0 0)
(-0.154149 0 0)
(-0.151276 0 0)
(-0.148402 0 0)
(-0.145529 0 0)
(-0.142654 0 0)
(-0.13978 0 0)
(-0.136904 0 0)
(-0.134029 0 0)
(-0.131153 0 0)
(-0.128276 0 0)
(-0.125399 0 0)
(-0.122522 0 0)
(-0.119645 0 0)
(-0.116767 0 0)
(-0.113888 0 0)
(-0.111009 0 0)
(-0.10813 0 0)
(-0.105251 0 0)
(-0.102371 0 0)
(-0.0994912 0 0)
(-0.0966108 0 0)
(-0.0937301 0 0)
(-0.0908491 0 0)
(-0.0879679 0 0)
(-0.0850863 0 0)
(-0.0822045 0 0)
(-0.0793225 0 0)
(-0.0764402 0 0)
(-0.0735576 0 0)
(-0.0706748 0 0)
(-0.0677918 0 0)
(-0.0649086 0 0)
(-0.0620252 0 0)
(-0.0591416 0 0)
(-0.0562578 0 0)
(-0.0533739 0 0)
(-0.0504897 0 0)
(-0.0476054 0 0)
(-0.044721 0 0)
(-0.0418364 0 0)
(-0.0389517 0 0)
(-0.0360669 0 0)
(-0.033182 0 0)
(-0.0302969 0 0)
(-0.0274118 0 0)
(-0.0245266 0 0)
(-0.0216413 0 0)
(-0.0187559 0 0)
(-0.0158705 0 0)
(-0.012985 0 0)
(-0.0100995 0 0)
(-0.00721394 0 0)
(-0.00432837 0 0)
(-0.00144279 0 0)
)
;

boundaryField
{
    left
    {
        type            fixedValue;
        value           uniform (0 0 0);
    }
    right
    {
        type            fixedValue;
        value           uniform (0 0 0);
    }
    frontBackUpDown
    {
        type            empty;
    }
}


// ************************************************************************* //
