/*--------------------------------*- C++ -*----------------------------------*\
| =========                 |                                                 |
| \\      /  F ield         | OpenFOAM: The Open Source CFD Toolbox           |
|  \\    /   O peration     | Version:  2412                                  |
|   \\  /    A nd           | Website:  www.openfoam.com                      |
|    \\/     M anipulation  |                                                 |
\*---------------------------------------------------------------------------*/
FoamFile
{
    version     2.0;
    format      ascii;
    arch        "LSB;label=32;scalar=64";
    class       volScalarField;
    location    "1.75";
    object      p;
}
// * * * * * * * * * * * * * * * * * * * * * * * * * * * * * * * * * * * * * //

dimensions      [0 2 -2 0 0 0 0];

internalField   nonuniform List<scalar> 
2200
(
0.917447
0.91324
0.915322
0.922597
0.941684
0.979459
1.05388
1.1725
1.33101
1.48313
1.50799
1.3944
1.25692
1.15263
1.08691
1.05413
1.03718
1.03043
1.02833
1.03257
0.931754
0.919487
0.920811
0.940271
0.976693
1.04038
1.13812
1.27056
1.4426
1.6216
1.64568
1.5025
1.35412
1.23659
1.14736
1.08839
1.05434
1.03618
1.0355
1.04792
1.04313
1.01858
0.989779
0.993763
1.04206
1.13542
1.28746
1.49172
1.70108
1.8882
1.90947
1.75796
1.57451
1.38594
1.24276
1.15463
1.10982
1.1076
1.13695
1.16166
1.31359
1.27644
1.20365
1.11326
1.11383
1.21866
1.41254
1.70713
2.03488
2.27285
2.29163
2.09344
1.79646
1.51754
1.33208
1.23369
1.2362
1.3276
1.40089
1.43801
1.86234
1.81002
1.69822
1.52736
1.40672
1.40556
1.52808
1.85384
2.26253
2.64315
2.66613
2.33002
1.95212
1.64631
1.5341
1.53845
1.65989
1.83108
1.9429
1.99543
2.79607
2.7383
2.60726
2.4013
2.19322
2.07162
2.03733
2.18059
2.47876
2.89606
2.92661
2.56091
2.29193
2.16698
2.21198
2.33713
2.54662
2.75339
2.88484
2.94259
4.04873
3.99578
3.8578
3.63326
3.37184
3.16514
3.10466
3.09233
3.20986
3.41159
3.44512
3.30018
3.22069
3.25179
3.32299
3.53412
3.79742
4.02156
4.15864
4.21117
5.40531
5.36091
5.23849
5.01851
4.73461
4.47072
4.39141
4.42925
4.62195
4.75172
4.79163
4.72426
4.5776
4.56335
4.65386
4.92078
5.20447
5.4234
5.54524
5.58948
6.67169
6.63726
6.54237
6.35724
6.09539
5.81376
5.67115
5.79887
6.11045
6.39647
6.44367
6.2354
5.97143
5.87396
6.0251
6.31032
6.57233
6.75722
6.85196
6.88647
7.71336
7.68905
7.62446
7.49093
7.28779
7.05935
6.83722
6.87136
7.08539
7.37439
7.42905
7.23431
7.08024
7.08137
7.30961
7.54214
7.74653
7.87939
7.94349
7.96763
8.45322
8.4362
8.39511
8.30773
8.17023
7.97955
7.79643
7.72082
7.74587
7.86129
7.933
7.92624
7.97353
8.07759
8.28312
8.48073
8.61822
8.70536
8.74651
8.76324
8.89751
8.88523
8.86039
8.80833
8.72981
8.61943
8.49096
8.36431
8.39294
8.43865
8.52376
8.61282
8.66663
8.83752
8.99379
9.11166
9.1943
9.24967
9.27647
9.28992
9.10643
9.09719
9.08219
9.05236
9.01094
8.95325
8.88168
8.84762
8.90932
8.99379
9.08963
9.18095
9.21944
9.3182
9.41995
9.4929
9.54521
9.58144
9.60046
9.61233
9.14994
9.14329
9.13542
9.119
9.10042
9.07907
9.05265
9.06444
9.14263
9.25564
9.38296
9.47897
9.52827
9.59815
9.66575
9.71526
9.75123
9.7765
9.79071
9.80125
9.0846
9.07909
9.07577
9.06923
9.06263
9.06287
9.06668
9.09449
9.18428
9.30693
9.47324
9.59345
9.67452
9.75073
9.80846
9.84859
9.87729
9.89647
9.90701
9.91578
8.9402
8.93734
8.93848
8.94062
8.94602
8.9605
8.99097
9.0421
9.15459
9.30721
9.50311
9.65238
9.76665
9.85246
9.9106
9.95032
9.97645
9.9931
10.0009
10.0079
8.74278
8.74197
8.74612
8.75653
8.77412
8.80465
8.85972
8.94117
9.08511
9.29056
9.51892
9.70649
9.85407
9.95182
10.0172
10.0612
10.0886
10.1063
10.1157
10.1218
8.48689
8.48994
8.50052
8.51786
8.54861
8.59725
8.67697
8.79357
8.96657
9.24167
9.52206
9.76053
9.9536
10.0677
10.1465
10.1995
10.2343
10.2559
10.2683
10.2743
8.17251
8.17652
8.1886
8.21437
8.25822
8.32698
8.43829
8.60733
8.83256
9.16789
9.52819
9.83692
10.0588
10.2075
10.308
10.3723
10.4136
10.4379
10.4476
10.4507
7.7608
7.7691
7.79154
7.82819
7.88813
7.98462
8.13365
8.36209
8.67882
9.0926
9.54134
9.92529
10.1956
10.3811
10.5056
10.5857
10.636
10.6666
10.6853
10.6922
7.24895
7.25851
7.28344
7.33271
7.42044
7.55648
7.75961
8.05906
8.47592
9.01498
9.57116
10.0433
10.3776
10.6106
10.7675
10.8695
10.9335
10.9732
10.9971
11.0079
6.57165
6.58876
6.63247
6.71043
6.83248
7.02619
7.31437
7.71884
8.25356
8.93102
9.625
10.2023
10.6145
10.9045
11.102
11.2321
11.3137
11.3653
11.3951
11.4073
5.68539
5.71136
5.77513
5.88838
6.0778
6.36918
6.77633
7.32265
8.01776
8.85425
9.70406
10.4008
10.9029
11.2602
11.508
11.6771
11.7867
11.8516
11.8876
11.9017
4.47488
4.52789
4.64022
4.83366
5.13647
5.56754
6.14527
6.87686
7.76649
8.79516
9.82021
10.6501
11.2524
11.6873
11.9964
12.2109
12.3563
12.4494
12.5015
12.5218
2.82647
2.93145
3.13674
3.4866
3.98286
4.63308
5.43886
6.39675
7.5132
8.75938
9.97241
10.9446
11.6548
12.1753
12.5578
12.8379
13.0365
13.1728
13.2568
13.2919
0.612357
0.764489
1.19105
1.83734
2.63661
3.58376
4.66966
5.89733
7.27105
8.7518
10.1619
11.283
12.1085
12.7244
13.1876
13.5405
13.8129
14.0137
14.1456
14.1896
-2.60976
-1.95463
-0.973522
0.0892113
1.23261
2.49775
3.88608
5.40993
7.05953
8.79624
10.4291
11.7266
12.6962
13.4397
14.0201
14.4774
14.8475
15.171
15.4362
15.5587
-6.31693
-4.65321
-3.06387
-1.64683
-0.163538
1.42562
3.12981
4.95169
6.87244
8.87275
10.7459
12.2413
13.374
14.2602
14.9753
15.5646
16.0452
16.4316
16.8036
17.1021
-8.84116
-6.85823
-5.08107
-3.34315
-1.51378
0.408562
2.42645
4.52356
6.69772
8.94531
11.0371
12.7066
13.9746
14.9658
15.7579
16.4071
16.9445
17.3694
17.677
17.9985
-10.6335
-8.54133
-6.81023
-4.86034
-2.73885
-0.508002
1.78388
4.1265
6.53614
9.00839
11.2881
13.0946
14.4542
15.5033
16.322
16.9673
17.4939
17.9417
18.2295
18.5049
-11.9804
-9.73444
-8.18322
-6.07595
-3.74669
-1.29954
1.20506
3.76002
6.37866
9.04038
11.4689
13.3722
14.7842
15.8582
16.6862
17.325
17.8239
18.2824
18.5744
18.8479
-12.9927
-10.6994
-9.20851
-6.92182
-4.48691
-1.94331
0.69582
3.41666
6.2081
9.0236
11.5743
13.5553
15.0076
16.1014
16.9425
17.5919
18.0828
18.5352
18.8362
19.1017
-13.7456
-11.4828
-9.92725
-7.4821
-5.0259
-2.45442
0.261831
3.10428
6.03115
8.97454
11.6373
13.6942
15.1902
16.308
17.1647
17.8286
18.3195
18.7624
19.0709
19.3096
-14.367
-12.0849
-10.4401
-7.87457
-5.45542
-2.86972
-0.097073
2.84011
5.86942
8.92013
11.6873
13.8192
15.3608
16.5035
17.3727
18.0476
18.5386
18.9762
19.2817
19.5214
-14.9618
-12.6292
-10.9029
-8.2618
-5.85554
-3.2298
-0.396984
2.62228
5.72538
8.86531
11.7271
13.9305
15.5182
16.6874
17.569
18.2509
18.7442
19.1768
19.4746
19.7271
-15.4349
-13.1551
-11.3941
-8.70755
-6.27754
-3.58661
-0.672804
2.42224
5.58149
8.80011
11.7472
14.0205
15.6571
16.8565
17.753
18.4443
18.9461
19.3809
19.6738
19.9317
-15.9655
-13.6297
-11.859
-9.16375
-6.71384
-3.9433
-0.940603
2.21439
5.42278
8.7141
11.739
14.0844
15.7775
17.018
17.9413
18.6457
19.156
19.5851
19.8745
20.1296
-16.4533
-14.1345
-12.3267
-9.61497
-7.12789
-4.28274
-1.20122
1.98956
5.24493
8.60395
11.702
14.1233
15.8808
17.1702
18.1229
18.844
19.3711
19.8133
20.1049
20.3549
-16.8557
-14.5546
-12.7533
-10.0143
-7.5031
-4.59305
-1.45878
1.75261
5.0564
8.47562
11.6378
14.1323
15.9599
17.3138
18.3213
19.0802
19.6268
20.0596
20.3545
20.6024
-17.2795
-14.9364
-13.099
-10.3508
-7.82715
-4.87168
-1.71426
1.51588
4.86584
8.33086
11.5446
14.1096
16.0144
17.4419
18.5035
19.2966
19.8755
20.3364
20.6381
20.8751
-17.6579
-15.3139
-13.4323
-10.6604
-8.11235
-5.12827
-1.96332
1.28566
4.6728
8.16993
11.4257
14.0534
16.0321
17.5376
18.6855
19.5551
20.1819
20.6524
20.9665
21.2138
-17.9511
-15.6134
-13.753
-10.9478
-8.38314
-5.37268
-2.20429
1.06146
4.47674
7.99698
11.2838
13.9613
16.0115
17.6056
18.8377
19.7861
20.4907
21.014
21.3463
21.5699
-18.2938
-15.9292
-14.0077
-11.2126
-8.64227
-5.60769
-2.43765
0.842901
4.27924
7.81437
11.121
13.8356
15.9465
17.6177
18.9489
19.9978
20.781
21.3962
21.7767
22.0117
-18.584
-16.1974
-14.2647
-11.4685
-8.89354
-5.83611
-2.6635
0.630627
4.08152
7.62405
10.9405
13.678
15.8339
17.5762
19.0026
20.1642
21.09
21.8344
22.2881
22.5371
-18.8387
-16.4739
-14.5703
-11.7388
-9.14091
-6.0565
-2.88042
0.425393
3.88491
7.42941
10.7473
13.4943
15.6819
17.4812
18.9872
20.2595
21.3401
22.2416
22.8419
23.1723
-19.1627
-16.8144
-14.8711
-12.0084
-9.3706
-6.263
-3.08627
0.227755
3.69152
7.23512
10.5455
13.2854
15.4862
17.3199
18.8923
20.2595
21.4607
22.5664
23.4106
23.8593
-19.3933
-16.989
-15.0454
-12.1983
-9.57815
-6.45913
-3.28275
0.0350243
3.49999
7.03782
10.3273
13.0425
15.2404
17.0957
18.7034
20.1281
21.4111
22.6583
23.8048
24.3376
-19.552
-17.0512
-15.1088
-12.3149
-9.78092
-6.64871
-3.47713
-0.159659
3.30159
6.82413
10.0837
12.7604
14.93
16.7758
18.3831
19.8151
21.0871
22.2305
23.0635
23.4244
-19.8011
-17.3729
-15.4734
-12.5825
-9.98592
-6.82665
-3.67086
-0.354977
3.0953
6.5964
9.82063
12.4382
14.5418
16.343
17.9153
19.2863
20.4451
21.3488
21.9026
22.2486
-20.1315
-17.8286
-15.9342
-12.9104
-10.1826
-7.00944
-3.86545
-0.554144
2.8792
6.35653
9.53502
12.0784
14.0922
15.802
17.2756
18.5207
19.5407
20.2613
20.5943
20.9319
-20.3291
-17.8259
-15.8794
-12.9571
-10.3792
-7.2042
-4.06065
-0.761437
2.65472
6.10297
9.22786
11.69
13.5854
15.1395
16.4568
17.549
18.4335
19.076
19.3442
19.6934
-20.3641
-17.7236
-15.8222
-12.9815
-10.5875
-7.38758
-4.2645
-0.979515
2.41941
5.83183
8.90242
11.2702
13.0228
14.3921
15.5186
16.4471
17.2007
17.7432
17.9458
18.3124
-20.6113
-18.1334
-16.3276
-13.3318
-10.7962
-7.57151
-4.48279
-1.20537
2.17154
5.54645
8.55955
10.8209
12.4258
13.6065
14.519
15.2439
15.7798
16.1395
16.3644
16.7719
-20.9583
-18.5777
-16.6894
-13.6513
-11.0128
-7.78633
-4.703
-1.43329
1.91879
5.2563
8.20449
10.3567
11.8082
12.7962
13.498
13.9942
14.2427
14.2304
14.1839
14.5391
-21.0944
-18.5767
-16.6248
-13.6664
-11.2259
-7.99467
-4.91484
-1.66026
1.67162
4.96768
7.84584
9.89399
11.1967
11.9866
12.4512
12.686
12.61
11.9328
10.9616
11.1684
-21.1716
-18.6716
-16.7761
-13.8134
-11.4207
-8.16835
-5.12169
-1.87905
1.43529
4.68407
7.49169
9.4416
10.603
11.1903
11.3718
11.2898
10.8982
9.57728
7.22458
4.96175
-21.4472
-19.066
-17.1708
-14.1311
-11.6166
-8.34605
-5.32343
-2.08344
1.21013
4.41486
7.15014
9.00594
10.0412
10.4401
10.3387
9.9027
9.1979
7.78
3.43524
-8.2295
-21.6979
-19.2824
-17.3238
-14.3009
-11.8176
-8.52874
-5.51544
-2.27894
0.99434
4.16043
6.8121
8.57648
9.50778
9.77135
9.44735
8.70175
7.7272
6.69833
5.80682
1.13449
-21.831
-19.3697
-17.4229
-14.4239
-12.0109
-8.69447
-5.70836
-2.47927
0.777136
3.90091
6.47074
8.15917
9.02162
9.21324
8.81444
8.03541
7.22451
6.82012
7.70875
6.48612
-22.0352
-19.6052
-17.6719
-14.6503
-12.2121
-8.86112
-5.91503
-2.68631
0.549803
3.63207
6.14916
7.78121
8.61678
8.82022
8.51641
7.9094
7.28099
6.88986
7.34845
6.69297
-22.2816
-19.8531
-17.8913
-14.866
-12.4324
-9.04311
-6.13981
-2.8991
0.310844
3.36561
5.8645
7.46439
8.3287
8.64277
8.55731
8.23556
7.72234
7.0156
6.91063
6.82877
-22.4762
-20.0289
-18.0547
-15.0458
-12.6504
-9.22254
-6.37989
-3.11137
0.0748978
3.11331
5.62028
7.23752
8.18404
8.65289
8.80562
8.83788
8.63683
8.04431
7.89557
7.95122
-22.6644
-20.2239
-18.246
-15.2312
-12.8565
-9.39703
-6.62991
-3.30322
-0.142807
2.88184
5.417
7.11935
8.18528
8.86383
9.23399
9.56166
9.87493
9.76759
9.84448
9.97018
-22.8463
-20.4202
-18.4361
-15.416
-13.0433
-9.56861
-6.86396
-3.45936
-0.345633
2.67972
5.25629
7.09084
8.30461
9.19898
9.84021
10.355
10.9327
11.3225
11.6524
11.8771
-22.9864
-20.5702
-18.5899
-15.5739
-13.1874
-9.72706
-7.05342
-3.59869
-0.541036
2.51985
5.15167
7.11315
8.49271
9.54417
10.4078
11.0505
11.704
12.263
12.7376
13.0039
-23.0828
-20.6733
-18.6936
-15.6894
-13.2725
-9.88384
-7.19473
-3.7425
-0.709967
2.40823
5.10421
7.1512
8.64784
9.79831
10.7542
11.5036
12.2059
12.7572
13.221
13.5027
-23.1153
-20.7136
-18.7254
-15.7735
-13.3102
-10.0394
-7.2726
-3.8767
-0.831757
2.32006
5.06835
7.17748
8.73841
9.9502
10.9582
11.7656
12.4949
13.0284
13.4757
13.7856
-23.0706
-20.6899
-18.6693
-15.8199
-13.2846
-10.1358
-7.27974
-3.98315
-0.924138
2.22542
5.01051
7.17538
8.79077
10.0602
11.1024
11.9131
12.6379
13.1813
13.6142
13.9544
-22.9115
-20.5793
-18.5091
-15.7511
-13.1749
-10.1391
-7.24002
-4.05966
-1.0019
2.13317
4.93084
7.13929
8.80467
10.1056
11.1562
11.9586
12.6579
13.2176
13.6225
13.9769
-22.5937
-20.3097
-18.2295
-15.5608
-12.9848
-10.0569
-7.1782
-4.08816
-1.05738
2.04502
4.83634
7.05673
8.73617
10.038
11.0881
11.891
12.5596
13.121
13.5077
13.8729
-22.0829
-19.8728
-17.8147
-15.2446
-12.7006
-9.87956
-7.0651
-4.05244
-1.08552
1.94998
4.70804
6.90651
8.56942
9.85529
10.9054
11.7114
12.3576
12.9243
13.2991
13.6827
-21.3486
-19.2146
-17.2048
-14.7463
-12.2689
-9.56688
-6.85589
-3.95699
-1.09869
1.83394
4.52171
6.67076
8.30491
9.56937
10.6071
11.423
12.0537
12.6185
12.9986
13.3794
-20.2508
-18.2532
-16.3367
-14.01
-11.6491
-9.10634
-6.54049
-3.80867
-1.09944
1.69517
4.27277
6.34385
7.93066
9.16514
10.1724
10.9874
11.6184
12.1755
12.5715
12.953
-18.7143
-16.9173
-15.1264
-12.9927
-10.8181
-8.48523
-6.11145
-3.59639
-1.07607
1.53719
3.96106
5.91759
7.42414
8.60711
9.56785
10.3619
10.9863
11.5352
11.942
12.321
-16.6546
-15.1144
-13.5369
-11.6694
-9.74183
-7.67216
-5.5583
-3.31367
-1.02976
1.35368
3.57793
5.37737
6.76271
7.85586
8.74081
9.48171
10.077
10.5996
11.0142
11.3945
-13.983
-12.7435
-11.5127
-10.0082
-8.41379
-6.67558
-4.88061
-2.95435
-0.948827
1.16236
3.14212
4.73993
5.95953
6.91401
7.67585
8.30868
8.81498
9.24761
9.60651
9.94359
-10.4533
-9.7134
-9.06974
-7.99312
-6.81269
-5.49187
-4.09144
-2.51908
-0.814445
1.00572
2.73218
4.12815
5.18057
5.98699
6.60945
7.105
7.48957
7.79294
8.01656
8.23145
-6.90994
-6.59775
-6.56811
-5.79948
-5.09772
-4.25401
-3.25372
-2.0202
-0.629508
0.892052
2.36982
3.57561
4.47845
5.15739
5.66229
6.04436
6.32347
6.53254
6.61197
6.71216
-4.33846
-4.22335
-4.394
-3.81101
-3.59571
-3.1224
-2.41492
-1.48328
-0.404927
0.820496
2.04688
3.05376
3.79851
4.34391
4.72953
4.99446
5.16107
5.28573
5.28859
5.33129
-2.79539
-2.66821
-2.78181
-2.31713
-2.40354
-2.08525
-1.5949
-0.945634
-0.151319
0.808362
1.79895
2.61566
3.21019
3.62999
3.91029
4.08514
4.1752
4.25984
4.25709
4.29177
-1.81196
-1.74594
-1.80446
-1.41406
-1.5773
-1.24587
-0.898616
-0.470529
0.0967579
0.829657
1.60828
2.25398
2.7179
3.03659
3.24519
3.37658
3.44341
3.52472
3.53285
3.55837
-1.16644
-1.15995
-1.19727
-0.923703
-1.08567
-0.710632
-0.454059
-0.145389
0.283254
0.845912
1.45193
1.95897
2.32449
2.57802
2.75044
2.8683
2.92977
3.00546
3.01143
3.0271
-0.711962
-0.722058
-0.762086
-0.586379
-0.739779
-0.390466
-0.221743
0.0323449
0.388925
0.840395
1.32329
1.72985
2.02713
2.23799
2.3847
2.48749
2.53603
2.59332
2.59555
2.60237
-0.352953
-0.363482
-0.394013
-0.284789
-0.402589
-0.142031
-0.0538018
0.153814
0.448674
0.817892
1.21216
1.54437
1.78788
1.95984
2.0765
2.15602
2.18973
2.22801
2.23003
2.23321
-0.0717612
-0.0790507
-0.0948676
-0.0199261
-0.106436
0.0708269
0.116591
0.273207
0.49864
0.790796
1.10918
1.37784
1.57268
1.70724
1.79539
1.85437
1.87966
1.90631
1.90982
1.91224
0.118782
0.113625
0.105762
0.156326
0.106514
0.225402
0.260536
0.376494
0.542155
0.76553
1.01565
1.22785
1.38061
1.48503
1.55283
1.59851
1.61995
1.6397
1.64367
1.64569
0.235338
0.231475
0.227399
0.260296
0.235219
0.314951
0.350601
0.441106
0.567029
0.738796
0.933551
1.09968
1.21952
1.30193
1.35581
1.39214
1.4104
1.42493
1.4284
1.42994
0.30756
0.304926
0.30315
0.324376
0.314591
0.36585
0.399616
0.471611
0.570943
0.706173
0.85943
0.990374
1.08514
1.15061
1.19348
1.22196
1.23685
1.24742
1.25019
1.25136
0.353481
0.351993
0.351843
0.366617
0.365638
0.398034
0.426762
0.482543
0.560655
0.667671
0.789118
0.892886
0.967899
1.01961
1.05334
1.07538
1.08729
1.09511
1.09735
1.09832
0.38024
0.379632
0.380464
0.390272
0.393531
0.415152
0.438722
0.481306
0.541924
0.625877
0.721744
0.80373
0.862833
0.903437
0.929896
0.946997
0.956536
0.962476
0.964193
0.965017
0.390159
0.390037
0.391218
0.397167
0.40193
0.417342
0.436627
0.469452
0.516541
0.582087
0.65732
0.72176
0.768196
0.800087
0.820926
0.8343
0.841917
0.846457
0.847704
0.848364
0.385699
0.38577
0.386893
0.390907
0.395618
0.406968
0.422593
0.44818
0.485026
0.536313
0.595316
0.645922
0.682388
0.707434
0.723823
0.73426
0.740284
0.743802
0.744486
0.745033
0.370989
0.371138
0.372089
0.374964
0.379068
0.387587
0.400074
0.420037
0.448895
0.489024
0.535236
0.574888
0.603469
0.623088
0.63592
0.644026
0.648726
0.65143
0.651962
0.652394
0.34794
0.348098
0.348871
0.350977
0.354356
0.360834
0.370708
0.386215
0.408718
0.440038
0.476195
0.507258
0.529628
0.544943
0.55495
0.561247
0.564931
0.567045
0.567516
0.567861
0.318815
0.318969
0.319592
0.321191
0.32392
0.328895
0.336616
0.348609
0.366072
0.390403
0.418546
0.442695
0.460033
0.471895
0.479657
0.484534
0.487392
0.489011
0.489403
0.489663
0.284709
0.284819
0.285275
0.286472
0.288607
0.292412
0.298393
0.30762
0.321092
0.339848
0.361527
0.380136
0.393543
0.402734
0.40877
0.412564
0.414784
0.416034
0.416298
0.416496
0.246568
0.246667
0.247051
0.24797
0.249621
0.252499
0.257052
0.264062
0.274308
0.288605
0.305198
0.319459
0.329697
0.336684
0.341251
0.344094
0.345738
0.346648
0.346846
0.346995
0.205965
0.206037
0.206282
0.206948
0.208189
0.21033
0.213732
0.218983
0.226683
0.237396
0.249762
0.26032
0.2679
0.273092
0.276467
0.278547
0.27974
0.280385
0.280535
0.280623
0.162675
0.162726
0.162913
0.163406
0.164293
0.165824
0.168285
0.172047
0.177533
0.185198
0.194088
0.201673
0.207086
0.210777
0.213162
0.214629
0.215485
0.215967
0.21599
0.216061
0.117609
0.11769
0.117885
0.118262
0.118881
0.119913
0.121557
0.124059
0.127691
0.132808
0.138817
0.143944
0.147529
0.149866
0.151349
0.152251
0.152755
0.153031
0.1531
0.153152
0.0712929
0.0712955
0.0713239
0.071482
0.0718181
0.0724071
0.0733488
0.0748028
0.0769409
0.0799104
0.0833615
0.0863638
0.0884725
0.0898328
0.0906973
0.0912284
0.0915236
0.091693
0.0917294
0.0917479
0.0237941
0.0236858
0.0236033
0.0236065
0.0236913
0.0238766
0.0241903
0.0246854
0.0254302
0.0264538
0.027585
0.0286351
0.0294065
0.0299567
0.0303251
0.0305532
0.0306752
0.0307358
0.0306877
0.0306547
11.1954
16.005
17.201
18.6906
19.8939
21.0006
22.038
23.0539
23.8625
24.2978
16.4413
18.8041
19.5379
20.4889
21.3613
22.1493
22.8446
23.4356
23.8428
23.9929
19.3208
20.5138
21.0784
21.6884
22.2546
22.7679
23.2057
23.5516
23.7392
23.7754
20.9613
21.6669
22.0367
22.444
22.8048
23.1159
23.3554
23.5355
23.6255
23.6395
22.0083
22.3971
22.6276
22.8744
23.0838
23.2721
23.407
23.5114
23.5578
23.5687
22.6193
22.8624
22.9853
23.1452
23.2614
23.3745
23.4431
23.5034
23.5188
23.539
23.0016
23.1384
23.2003
23.303
23.3612
23.4392
23.469
23.5164
23.5166
23.5477
23.2343
23.3272
23.352
23.4352
23.4464
23.5156
23.5111
23.5605
23.5493
23.5837
23.4012
23.471
23.4695
23.5351
23.5213
23.5851
23.568
23.6134
23.6059
23.6309
23.5172
23.5632
23.5583
23.5997
23.594
23.6288
23.6247
23.6524
23.6499
23.6657
23.5867
23.6099
23.6164
23.6344
23.6426
23.6569
23.6595
23.6812
23.6789
23.6943
23.6398
23.6548
23.665
23.678
23.6925
23.7046
23.7172
23.7316
23.7326
23.7513
23.7285
23.7484
23.7646
23.778
23.7939
23.8048
23.8164
23.8238
23.8262
23.8388
23.8733
23.8782
23.8904
23.8963
23.9006
23.9054
23.9105
23.9191
23.9216
23.9335
23.9962
23.9818
23.9759
23.9694
23.9642
23.9643
23.9698
23.9808
23.9944
24.0227
24.1057
24.0513
24.0205
24.0013
23.9934
23.9936
24.0023
24.0212
24.0511
24.1188
)
;

boundaryField
{
    wall-4
    {
        type            zeroGradient;
    }
    pressure-outlet-7
    {
        type            fixedValue;
        value           uniform 0;
    }
    velocity-inlet-6
    {
        type            zeroGradient;
    }
    velocity-inlet-5
    {
        type            zeroGradient;
    }
    frontAndBackPlanes
    {
        type            empty;
    }
}


// ************************************************************************* //
