/*--------------------------------*- C++ -*----------------------------------*\
| =========                 |                                                 |
| \\      /  F ield         | OpenFOAM: The Open Source CFD Toolbox           |
|  \\    /   O peration     | Version:  2412                                  |
|   \\  /    A nd           | Website:  www.openfoam.com                      |
|    \\/     M anipulation  |                                                 |
\*---------------------------------------------------------------------------*/
FoamFile
{
    version     2.0;
    format      ascii;
    arch        "LSB;label=32;scalar=64";
    class       surfaceScalarField;
    location    "1.75";
    object      phi;
}
// * * * * * * * * * * * * * * * * * * * * * * * * * * * * * * * * * * * * * //

dimensions      [0 3 -1 0 0 0 0];

oriented        oriented;

internalField   nonuniform List<scalar> 
4262
(
-0.00758464
0.228097
0.00507937
0.815989
0.00172679
1.7705
-0.00553954
3.17243
-0.0130708
5.19213
-0.0226945
8.02399
-0.0286422
11.8531
-0.0314569
16.8226
-0.0266968
22.8771
-0.00322913
29.5049
0.0221002
29.503
0.0289128
22.875
0.0258101
16.8228
0.0205037
11.8524
0.0115301
8.02334
0.0044228
5.19171
-0.00260735
3.1722
-0.00573822
1.77027
0.00727979
0.815635
0.227792
-0.0597256
0.287823
-0.0654056
0.821669
-0.0517425
1.75683
-0.0571038
3.17779
-0.0687525
5.20378
-0.0756646
8.0309
-0.0774644
11.8549
-0.0699495
16.815
-0.0484219
22.8555
-0.00617397
29.4626
0.0363009
29.4605
0.0605686
22.8507
0.0702483
16.8132
0.0698455
11.8528
0.0638443
8.02934
0.0534204
5.20214
0.0494954
3.17612
0.0642358
1.75553
0.0592081
0.820663
0.287001
-0.118485
0.406307
-0.177846
0.881031
-0.161128
1.74011
-0.147073
3.16374
-0.175642
5.23235
-0.194982
8.05024
-0.185277
11.8452
-0.150726
16.7805
-0.105095
22.8099
-0.00859428
29.3661
0.0883701
29.3636
0.135051
22.8041
0.171508
16.7767
0.183914
11.8404
0.167372
8.04588
0.141566
5.22794
0.157644
3.16004
0.1763
1.73688
0.118116
0.878848
0.405116
-0.152117
0.558425
-0.298921
1.02783
-0.315176
1.75637
-0.298272
3.14684
-0.304093
5.23817
-0.325475
8.07162
-0.337132
11.8568
-0.275365
16.7187
-0.178901
22.7134
-0.0126454
29.1999
0.152265
29.1987
0.253086
22.7032
0.320121
16.7097
0.312562
11.848
0.294849
8.06359
0.29212
5.23067
0.311804
3.14036
0.29652
1.75216
0.150495
1.02487
0.555611
-0.195258
0.753683
-0.440949
1.27352
-0.5626
1.87802
-0.601364
3.1856
-0.585677
5.22249
-0.566297
8.05224
-0.551045
11.8416
-0.443314
16.611
-0.268954
22.5391
-0.0159867
28.9469
0.235676
28.947
0.413186
22.5257
0.526949
16.5959
0.548437
11.8265
0.573779
8.03825
0.594186
5.21026
0.558164
3.17638
0.439302
1.87102
0.195312
1.26886
0.750923
-0.256531
1.01021
-0.581115
1.59811
-0.858565
2.15547
-0.993288
3.32032
-0.979167
5.20837
-0.908089
7.98116
-0.794523
11.728
-0.690615
16.5071
-0.443836
22.2923
-0.0197948
28.5229
0.405386
28.5218
0.657843
22.2733
0.768012
16.4857
0.887619
11.7069
0.967102
7.95877
0.986166
5.1912
0.855084
3.30746
0.5796
2.14651
0.255719
1.59274
1.00664
-0.300616
1.31083
-0.682905
1.9804
-1.0714
2.54396
-1.3261
3.57502
-1.38032
5.26259
-1.2904
7.89124
-1.03858
11.4762
-0.851985
16.3205
-0.550477
21.9908
-0.0269762
27.9994
0.500499
27.9944
0.810606
21.9632
1.00937
16.287
1.27029
11.446
1.36698
7.86207
1.31642
5.24176
1.06392
3.55997
0.676011
2.53441
0.296417
1.97234
1.30306
-0.313431
1.62426
-0.730146
2.39711
-1.18047
2.99429
-1.55125
3.94581
-1.74144
5.45277
-1.71522
7.86503
-1.4521
11.2131
-1.04391
15.9123
-0.60595
21.5528
-0.0303402
27.4238
0.547625
27.4164
0.990344
21.5204
1.41101
15.8663
1.68973
11.1673
1.72235
7.82944
1.53939
5.42472
1.17269
3.92667
0.725823
2.98128
0.312144
2.38602
1.6152
-0.300772
1.92503
-0.725927
2.82227
-1.20718
3.47554
-1.66285
4.40149
-1.99359
5.78351
-2.07483
7.94626
-1.94449
11.0827
-1.45231
15.4201
-0.803192
20.9037
-0.0386637
26.6592
0.733578
26.6442
1.39753
20.8565
1.89973
15.3641
2.0424
11.0246
1.96814
7.9037
1.64301
5.74986
1.19294
4.37674
0.717873
3.45635
0.296533
2.80736
1.91174
-0.264815
2.18985
-0.668912
3.22637
-1.14072
3.94734
-1.6253
4.88606
-2.04292
6.20113
-2.23437
8.13772
-2.20306
11.0514
-1.79389
15.011
-1.01681
20.1266
-0.0478643
25.6903
0.9313
25.665
1.72418
20.0636
2.14886
14.9394
2.18828
10.9852
2.00865
8.08333
1.59836
6.16014
1.12071
4.85439
0.654667
3.92239
0.25615
3.20587
2.16789
-0.21227
2.40212
-0.568857
3.58295
-0.993453
4.37194
-1.45047
5.34308
-1.88772
6.63838
-2.1845
8.43449
-2.20581
11.0727
-1.87158
14.6767
-1.10361
19.3587
-0.0559523
24.6426
0.99724
24.6118
1.78379
19.2771
2.13388
14.5893
2.12361
10.9955
1.83993
8.36701
1.41327
6.58681
0.966148
5.30151
0.550544
4.33799
0.203629
3.55279
2.37152
-0.156089
2.55821
-0.450196
3.87706
-0.805573
4.72731
-1.19893
5.73644
-1.59789
7.03734
-1.93257
8.76917
-2.02343
11.1636
-1.75722
14.4105
-1.079
18.6804
-0.0657569
23.6294
0.951242
23.5948
1.64546
18.5828
1.92448
14.3103
1.85074
11.0692
1.53128
8.68648
1.14887
6.96921
0.770467
5.67992
0.428519
4.67994
0.146989
3.83432
2.51851
-0.108696
2.6669
-0.338818
4.10718
-0.619835
5.00833
-0.935116
6.05172
-1.26288
7.36511
-1.54846
9.05474
-1.6798
11.295
-1.52982
14.2605
-0.993712
18.1443
-0.0863002
22.722
0.831438
22.6771
1.38741
18.0269
1.55716
14.1406
1.44681
11.1796
1.17988
8.95341
0.872211
7.27688
0.57644
5.97569
0.313172
4.94321
0.0953986
4.05209
2.6139
-0.0737243
2.74063
-0.247523
4.28098
-0.4609
5.22171
-0.702806
6.29363
-0.959045
7.62135
-1.19264
9.28834
-1.32496
11.4273
-1.25862
14.1942
-0.859847
17.7456
-0.115302
21.9774
0.650785
21.911
1.06963
17.608
1.16938
14.0408
1.06502
11.2839
0.858566
9.15987
0.62729
7.50815
0.407173
6.1958
0.212535
5.13785
0.0518734
4.21275
2.66578
-0.0516925
2.79232
-0.180924
4.41021
-0.339881
5.38067
-0.521813
6.47556
-0.715751
7.81528
-0.898408
9.47099
-1.01502
11.5439
-0.992574
14.1717
-0.70439
17.4574
-0.140895
21.4139
0.442168
21.3279
0.745209
17.305
0.808442
13.9776
0.729076
11.3633
0.58363
9.30531
0.421944
7.66984
0.267114
6.35063
0.130267
5.2747
0.0229913
4.32003
2.68877
-0.0358141
2.82813
-0.130846
4.50524
-0.248297
5.49812
-0.383461
6.61072
-0.529722
7.96154
-0.671584
9.61286
-0.773272
11.6456
-0.769053
14.1675
-0.573188
17.2615
-0.169624
21.0104
0.240597
20.9177
0.457135
17.0884
0.504524
13.9302
0.454298
11.4135
0.360236
9.39937
0.256429
7.77365
0.157729
6.44933
0.0722224
5.3602
0.0120173
4.38024
2.70079
-0.032013
2.86015
-0.103972
4.5772
-0.192896
5.58704
-0.29577
6.7136
-0.40605
8.07182
-0.514768
9.72157
-0.599451
11.7303
-0.607024
14.1751
-0.494258
17.1487
-0.217848
20.734
0.0670012
20.6328
0.223141
16.9323
0.266533
13.8868
0.244895
11.4351
0.19468
9.44959
0.137244
7.83108
0.0831223
6.50346
0.0378124
5.40551
0.00579719
4.41225
2.70658
-0.0283219
2.88847
-0.0858226
4.6347
-0.156774
5.65799
-0.238217
6.79504
-0.328037
8.16164
-0.417923
9.81146
-0.492837
11.8052
-0.519431
14.2017
-0.476075
17.1054
-0.293171
20.5511
-0.0937524
20.4334
0.0324175
16.8061
0.0807468
13.8385
0.0878527
11.428
0.0743609
9.46308
0.0523537
7.85309
0.0288497
6.52696
0.0115595
5.4228
-0.000815544
4.42463
2.70577
-0.0369264
2.92539
-0.0890431
4.68682
-0.150678
5.71963
-0.222089
6.86645
-0.300689
8.24025
-0.380376
9.89115
-0.452408
11.8772
-0.498083
14.2474
-0.504177
17.1115
-0.386768
20.4336
-0.237179
20.2838
-0.132412
16.7014
-0.0734377
13.7795
-0.0419873
11.3966
-0.0265435
9.44764
-0.0188248
7.84537
-0.0147539
6.52289
-0.0112338
5.41928
-0.00801223
4.4214
2.69776
-0.0364306
2.96182
-0.0867701
4.73716
-0.149231
5.78209
-0.221962
6.93918
-0.302578
8.32086
-0.386961
9.97553
-0.463566
11.9538
-0.521352
14.3051
-0.563535
17.1537
-0.496316
20.3664
-0.376017
20.1635
-0.278666
16.604
-0.205515
13.7063
-0.14932
11.3404
-0.105399
9.40372
-0.071145
7.81112
-0.0439787
6.49572
-0.0266719
5.40198
-0.0163602
4.41109
2.6814
-0.0573075
3.01913
-0.11772
4.79757
-0.182554
5.84692
-0.256079
7.01271
-0.342246
8.40703
-0.43495
10.0682
-0.5221
12.041
-0.600024
14.3831
-0.661789
17.2154
-0.620625
20.3253
-0.518262
20.0612
-0.420723
16.5065
-0.333208
13.6188
-0.258918
11.2661
-0.196929
9.34173
-0.145255
7.75944
-0.103046
6.45351
-0.0703987
5.36933
-0.0409834
4.38168
2.64041
-0.0580994
3.07723
-0.124029
4.8635
-0.208669
5.93156
-0.310735
7.11477
-0.42277
8.51906
-0.538851
10.1843
-0.649727
12.1518
-0.74634
14.4797
-0.805295
17.2744
-0.77612
20.2961
-0.681207
19.9663
-0.574817
16.4001
-0.469641
13.5136
-0.372758
11.1692
-0.286213
9.25518
-0.210643
7.68387
-0.1453
6.38817
-0.0928942
5.31692
-0.0496016
4.33838
2.59081
-0.103872
3.1811
-0.202437
4.96207
-0.303754
6.03288
-0.419066
7.23008
-0.553028
8.65303
-0.696702
10.328
-0.829265
12.2844
-0.937773
14.5882
-0.984659
17.3213
-0.959477
20.2709
-0.863031
19.8698
-0.741167
16.2782
-0.615698
13.3882
-0.497402
11.0509
-0.390112
9.14789
-0.2976
7.59136
-0.220559
6.31113
-0.150971
5.24733
-0.0731136
4.26053
2.5177
-0.133167
3.31427
-0.246625
5.07553
-0.396202
6.18246
-0.575772
7.40965
-0.758546
8.8358
-0.927471
10.4969
-1.07856
12.4355
-1.19337
14.703
-1.22814
17.356
-1.19496
20.2377
-1.08313
19.758
-0.939064
16.1342
-0.789812
13.2389
-0.646526
10.9076
-0.512384
9.01375
-0.386048
7.46502
-0.270274
6.19536
-0.170659
5.14772
-0.0819229
4.17179
2.43577
-0.245505
3.55978
-0.418438
5.24846
-0.636554
6.40057
-0.847411
7.62051
-1.04784
9.03623
-1.23884
10.6879
-1.40292
12.5996
-1.51274
14.8128
-1.52876
17.3721
-1.47282
20.1818
-1.33312
19.6183
-1.16134
15.9624
-0.984447
13.062
-0.812843
10.736
-0.654461
8.85537
-0.514007
7.32457
-0.386465
6.06782
-0.262098
5.02335
-0.128205
4.0379
2.30757
-0.357555
3.91733
-0.718829
5.60973
-1.01948
6.70122
-1.25626
7.85729
-1.47723
9.2572
-1.67135
10.882
-1.82256
12.7508
-1.90392
14.8942
-1.889
17.3571
-1.79639
20.0892
-1.62037
19.4423
-1.4193
15.7613
-1.21792
12.8607
-1.02452
10.5426
-0.840633
8.67148
-0.667575
7.15151
-0.508415
5.90866
-0.351828
4.86677
-0.166709
3.85278
2.14086
-0.245866
4.1632
-0.529974
5.89384
-0.776559
6.94781
-1.06603
8.14676
-1.35193
9.5431
-1.61275
11.1429
-1.83246
12.9705
-2.00229
15.064
-2.09848
17.4533
-2.10924
20.1
-1.992
19.325
-1.79734
15.5667
-1.56158
12.6249
-1.30632
10.2874
-1.04493
8.4101
-0.785048
6.89163
-0.537764
5.66137
-0.321137
4.65014
-0.134313
3.66596
2.00655
-0.101033
4.26423
-0.199998
5.9928
-0.420911
7.16872
-0.661554
8.3874
-0.894436
9.77599
-1.10631
11.3547
-1.29392
13.1581
-1.44854
15.2186
-1.53588
17.5407
-1.53146
20.0955
-1.40899
19.2025
-1.22308
15.3807
-1.00808
12.4099
-0.788484
10.0678
-0.583127
8.20474
-0.401204
6.7097
-0.237737
5.49791
-0.0922372
4.50464
-0.0201173
3.59384
1.98643
-0.0757333
4.33996
-0.155603
6.07267
-0.264574
7.27769
-0.431175
8.55401
-0.603668
9.94848
-0.771287
11.5223
-0.934707
13.3215
-1.0688
15.3527
-1.14234
17.6142
-1.13386
20.0871
-1.02797
19.0966
-0.87552
15.2283
-0.709016
12.2434
-0.546974
9.90573
-0.399077
8.05684
-0.271636
6.58226
-0.165067
5.39134
-0.0662852
4.40586
0.00933666
3.51821
1.99577
-0.0436592
4.38362
-0.151354
6.18037
-0.264592
7.39093
-0.343419
8.63283
-0.436563
10.0416
-0.567037
11.6528
-0.702155
13.4566
-0.814107
15.4647
-0.876775
17.6769
-0.872008
20.0823
-0.788565
19.0132
-0.669621
15.1094
-0.542252
12.116
-0.418679
9.78216
-0.302486
7.94065
-0.195994
6.47577
-0.10666
5.302
-0.0300926
4.32929
0.0127965
3.47533
2.00856
-0.00331146
4.38693
-0.113066
6.29012
-0.199781
7.47765
-0.271715
8.70477
-0.352434
10.1223
-0.452676
11.7531
-0.557722
13.5617
-0.64819
15.5551
-0.700972
17.7297
-0.699098
20.0804
-0.631681
18.9458
-0.534456
15.0121
-0.430001
12.0116
-0.329272
9.68143
-0.236291
7.84767
-0.15283
6.39231
-0.0817247
5.2309
-0.0246382
4.2722
0.00913309
3.44155
2.01769
0.00817714
4.37876
-0.0700649
6.36836
-0.139369
7.54695
-0.201297
8.7667
-0.294926
10.216
-0.383403
11.8415
-0.467912
13.6462
-0.538487
15.6257
-0.58117
17.7723
-0.581051
20.0803
-0.525256
18.89
-0.442878
14.9298
-0.354117
11.9228
-0.270119
9.59743
-0.19512
7.77267
-0.128877
6.32607
-0.0748831
5.1769
-0.0320083
4.22933
-0.00336695
3.41291
2.01433
-0.0140874
4.39284
-0.0530767
6.40735
-0.105067
7.59894
-0.177056
8.83869
-0.256543
10.2955
-0.332468
11.9175
-0.404362
13.7181
-0.462246
15.6836
-0.500985
17.8111
-0.504637
20.0839
-0.458029
18.8434
-0.386786
14.8585
-0.309988
11.846
-0.237928
9.52537
-0.174843
7.70958
-0.119571
6.27079
-0.0733333
5.13067
-0.0374426
4.19344
-0.0114681
3.38694
2.00286
0.026064
4.36678
-0.0267908
6.46021
-0.0820122
7.65416
-0.153993
8.91067
-0.219462
10.3609
-0.290951
11.989
-0.356933
13.7841
-0.409225
15.7359
-0.44816
17.85
-0.455535
20.0913
-0.417634
18.8055
-0.356309
14.7972
-0.288482
11.7782
-0.223354
9.46024
-0.165741
7.65197
-0.116536
6.22159
-0.0733465
5.08748
-0.039424
4.15951
-0.0136141
3.36113
1.98925
0.00118232
4.3656
-0.0325422
6.49393
-0.0750036
7.69662
-0.132066
8.96773
-0.195944
10.4248
-0.258935
12.0519
-0.317255
13.8424
-0.368069
15.7867
-0.410658
17.8926
-0.42528
20.1059
-0.39817
18.7784
-0.344976
14.744
-0.282742
11.7159
-0.222026
9.39953
-0.167635
7.59758
-0.119704
6.17366
-0.0778376
5.04561
-0.0446708
4.12635
-0.0165669
3.33302
1.97268
-0.000115059
4.36571
-0.0422152
6.53603
-0.0760596
7.73047
-0.123257
9.01493
-0.17838
10.4799
-0.233114
12.1067
-0.285084
13.8944
-0.337409
15.839
-0.385336
17.9405
-0.408074
20.1287
-0.391276
18.7616
-0.345794
14.6985
-0.288098
11.6582
-0.2282
9.33963
-0.172271
7.54165
-0.124962
6.12635
-0.0820731
5.00272
-0.0478245
4.0921
-0.0178359
3.30304
1.95484
0.0133242
4.35239
-0.0248732
6.57423
-0.0655026
7.7711
-0.110737
9.06016
-0.158634
10.5278
-0.210695
12.1587
-0.260494
13.9442
-0.315246
15.8938
-0.365932
17.9912
-0.396487
20.1592
-0.392002
18.7571
-0.355514
14.662
-0.301688
11.6044
-0.243362
9.2813
-0.188968
7.48726
-0.139564
6.07695
-0.0957865
4.95894
-0.0594072
4.05572
-0.0252109
3.26884
1.92963
-0.0112863
4.36367
-0.0395409
6.60249
-0.0622406
7.7938
-0.101766
9.09969
-0.145055
10.5711
-0.192796
12.2065
-0.241593
13.993
-0.298126
15.9503
-0.350668
18.0438
-0.390757
20.1993
-0.400667
18.767
-0.3766
14.638
-0.330308
11.5581
-0.271133
9.22213
-0.208268
7.42439
-0.150602
6.01928
-0.0989716
4.90731
-0.0604391
4.01719
-0.0279439
3.23634
1.90169
0.00698618
4.35669
-0.0264562
6.63593
-0.0591104
7.82645
-0.0961528
9.13673
-0.135548
10.6105
-0.179008
12.2499
-0.226869
14.0408
-0.284106
16.0075
-0.338409
18.0981
-0.387198
20.2481
-0.410021
18.7898
-0.395684
14.6236
-0.352408
11.5149
-0.292565
9.16229
-0.231942
7.36377
-0.180089
5.96743
-0.132532
4.85975
-0.0828058
3.96746
-0.0361227
3.18966
1.86557
-0.00566906
4.36236
-0.0293479
6.65961
-0.0498847
7.84699
-0.088913
9.17576
-0.126801
10.6484
-0.167467
12.2906
-0.214766
14.0881
-0.271388
16.0642
-0.327186
18.1539
-0.383689
20.3046
-0.420066
18.8262
-0.422334
14.6259
-0.397369
11.4899
-0.351173
9.11609
-0.283187
7.29578
-0.201582
5.88582
-0.128811
4.78698
-0.0859321
3.92458
-0.0448036
3.14853
1.82076
0.003803
4.35855
-0.0213271
6.68474
-0.0494099
7.87507
-0.082349
9.2087
-0.118173
10.6842
-0.156633
12.3291
-0.203773
14.1353
-0.259143
16.1195
-0.316579
18.2113
-0.379919
20.368
-0.428669
18.875
-0.443993
14.6412
-0.422493
11.4684
-0.368214
9.06181
-0.30384
7.23141
-0.24777
5.82975
-0.190377
4.72959
-0.113801
3.84801
-0.0494142
3.08415
1.77135
-0.00965224
4.36821
-0.0331127
6.7082
-0.0472489
7.88921
-0.0785075
9.23995
-0.110763
10.7165
-0.146725
12.365
-0.193149
14.1817
-0.246833
16.1732
-0.305707
18.2702
-0.374292
20.4365
-0.433348
18.934
-0.465156
14.673
-0.469645
11.4729
-0.4515
9.04367
-0.392312
7.17222
-0.292903
5.73034
-0.191369
4.62806
-0.13287
3.78951
-0.0701266
3.0214
1.70122
0.00355136
4.36465
-0.0169005
6.72865
-0.0413146
7.91362
-0.0725475
9.27119
-0.103017
10.7469
-0.137206
12.3992
-0.182574
14.2271
-0.234543
16.2252
-0.294482
18.3301
-0.367404
20.5095
-0.436308
19.0029
-0.482238
14.7189
-0.494897
11.4855
-0.470263
9.01903
-0.432474
7.13443
-0.383755
5.68162
-0.304652
4.54895
-0.181133
3.66599
-0.0750331
2.9153
1.62619
-0.00639876
4.37105
-0.026351
6.7486
-0.0414488
7.92872
-0.0679388
9.29768
-0.0962407
10.7752
-0.128458
12.4314
-0.172057
14.2707
-0.222098
16.2752
-0.282574
18.3906
-0.358573
20.5855
-0.434877
19.0792
-0.493088
14.7772
-0.529919
11.5224
-0.545052
9.03416
-0.515001
7.10438
-0.440472
5.60709
-0.334811
4.44329
-0.223822
3.555
-0.10028
2.79176
1.52591
-0.00604898
4.3771
-0.0229895
6.76554
-0.0370706
7.9428
-0.0635965
9.3242
-0.0893379
10.801
-0.120032
12.4621
-0.161636
14.3123
-0.209782
16.3234
-0.270195
18.451
-0.348028
20.6633
-0.430941
19.1621
-0.501782
14.848
-0.548706
11.5693
-0.561065
9.04652
-0.555067
7.09838
-0.538521
5.59055
-0.486236
4.39101
-0.353895
3.42266
-0.158835
2.5967
1.36707
0.00201541
4.37509
-0.0176245
6.78518
-0.0334675
7.95864
-0.0580523
9.34879
-0.0818444
10.8248
-0.112911
12.4932
-0.152437
14.3518
-0.199023
16.37
-0.259266
18.5112
-0.338563
20.7426
-0.42706
19.2506
-0.508486
14.9294
-0.575539
11.6363
-0.62469
9.09567
-0.646164
7.11986
-0.627026
5.57141
-0.58151
4.34549
-0.478024
3.31917
-0.223917
2.34259
1.14316
-0.00621113
4.3813
-0.0236394
6.80261
-0.034973
7.96998
-0.0577306
9.37155
-0.0812603
10.8483
-0.111607
12.5235
-0.151763
14.3919
-0.200599
16.4188
-0.26575
18.5764
-0.353774
20.8306
-0.456581
19.3534
-0.557976
15.0308
-0.649516
11.7279
-0.714514
9.16067
-0.749225
7.15457
-0.771459
5.59364
-0.800222
4.37425
-0.888353
3.40731
-0.846854
2.30109
1.25986
-0.963557
-0.00271374
4.38401
-0.0144862
6.81438
-0.0329971
7.98849
-0.0558493
9.3944
-0.079625
10.8721
-0.106928
12.5508
-0.146327
14.4313
-0.195221
16.4677
-0.262196
18.6434
-0.355013
20.9234
-0.468678
19.4671
-0.588579
15.1507
-0.710574
11.8499
-0.827891
9.27799
-0.945065
7.27174
-1.05367
5.70225
-1.14669
4.46727
-1.11799
3.37861
-0.966492
2.14959
1.44718
-1.15381
-0.00810033
4.39211
-0.0156278
6.82191
-0.029525
8.00238
-0.0491854
9.41406
-0.0726556
10.8956
-0.101675
12.5799
-0.14063
14.4703
-0.189518
16.5166
-0.258191
18.712
-0.355548
21.0208
-0.479189
19.5907
-0.614571
15.2861
-0.761167
11.9965
-0.912787
9.42961
-1.05226
7.41121
-1.18639
5.83638
-1.27178
4.55266
-1.21975
3.32658
-1.28573
2.21558
1.72296
-1.56152
-0.00372719
4.39584
-0.0203353
6.83852
-0.026638
8.00869
-0.0450209
9.43244
-0.0672049
10.9177
-0.0963851
12.609
-0.133804
14.5077
-0.18277
16.5655
-0.252525
18.7818
-0.353559
21.1218
-0.486073
19.7233
-0.638257
15.4383
-0.811644
12.1699
-1.00401
9.62197
-1.21118
7.61838
-1.38575
6.01095
-1.46988
4.63679
-1.4823
3.33899
-1.65321
2.38649
1.93083
-1.86109
0.00515
4.39069
-0.0124796
6.85615
-0.0300662
8.02627
-0.0475775
9.44995
-0.066952
10.9371
-0.0910877
12.6332
-0.127324
14.5439
-0.175918
16.6141
-0.245966
18.8518
-0.350231
21.2261
-0.490696
19.8637
-0.656335
15.6039
-0.848414
12.3619
-1.06087
9.83443
-1.26231
7.81983
-1.42081
6.16945
-1.52249
4.73847
-1.59772
3.41421
-1.81115
2.59992
2.13596
-2.01627
-0.00166355
4.39235
-0.0148686
6.86935
-0.0235883
8.03499
-0.0438953
9.47026
-0.0627483
10.956
-0.0887784
12.6592
-0.125268
14.5804
-0.173368
16.6622
-0.243943
18.9224
-0.351293
21.3334
-0.497279
20.0097
-0.671584
15.7782
-0.876692
12.567
-1.0995
10.0572
-1.33631
8.05664
-1.59129
6.42443
-1.78168
4.92886
-1.94121
3.57374
-2.15292
2.81164
2.3021
-2.31907
-0.00140952
4.39376
-0.0160858
6.88403
-0.0193049
8.03821
-0.0377473
9.4887
-0.0575025
10.9757
-0.0896453
12.6914
-0.12627
14.6171
-0.174911
16.7109
-0.246466
18.994
-0.356463
21.4434
-0.506548
20.1598
-0.684367
15.9561
-0.89677
12.7795
-1.14251
10.303
-1.3912
8.30533
-1.58503
6.61825
-1.7552
5.09904
-1.9993
3.81784
-2.24412
3.05646
2.50124
-2.44326
0.00427306
4.38949
-0.013555
6.90186
-0.0240558
8.04871
-0.0451624
9.50981
-0.0613717
10.9919
-0.0910255
12.721
-0.12677
14.6528
-0.176134
16.7602
-0.247825
19.0657
-0.359185
21.5548
-0.512341
20.3129
-0.690266
16.134
-0.901576
12.9908
-1.15581
10.5572
-1.43669
8.58621
-1.69894
6.88051
-1.95785
5.35794
-2.3269
4.1869
-2.7401
3.46966
2.79195
-3.03081
0.00227396
4.38722
-0.0127351
6.91687
-0.0252852
8.06126
-0.0481715
9.53269
-0.0665115
11.0103
-0.0928676
12.7474
-0.128253
14.6882
-0.177412
16.8094
-0.248452
19.1367
-0.359736
21.6661
-0.514092
20.4673
-0.692308
16.3122
-0.896773
13.1952
-1.14907
10.8095
-1.45044
8.88758
-1.73797
7.16804
-1.93939
5.55936
-2.35845
4.60596
-2.90359
4.0148
3.01354
-3.12518
-0.00686199
4.39408
-0.015961
6.92596
-0.020911
8.06621
-0.0419411
9.55372
-0.0641589
11.0325
-0.0933397
12.7765
-0.129149
14.724
-0.177636
16.8579
-0.247444
19.2065
-0.356344
21.775
-0.509423
20.6204
-0.685604
16.4884
-0.885018
13.3946
-1.10667
11.0312
-1.37999
9.16091
-1.70198
7.49003
-2.13799
5.99537
-2.58268
5.05064
-3.17616
4.60828
3.86854
-4.03117
0.00146252
4.39261
-0.015127
6.94255
-0.0244391
8.07552
-0.0445853
9.57387
-0.0649628
11.0529
-0.0939867
12.8056
-0.128514
14.7585
-0.175481
16.9049
-0.241872
19.2729
-0.342696
21.8758
-0.48183
20.7595
-0.638725
16.6453
-0.818392
13.5743
-1.00676
11.2195
-1.21
9.36415
-1.47149
7.75151
-1.86432
6.3882
-2.11631
5.30263
-1.55992
4.05189
2.30862
0.00501072
4.3876
-0.0156578
6.96322
-0.0265971
8.08646
-0.0492661
9.59654
-0.0671634
11.0708
-0.0954523
12.8339
-0.13013
14.7932
-0.1788
16.9535
-0.246743
19.3408
-0.347325
21.9764
-0.481709
20.8939
-0.628164
16.7917
-0.788508
13.7347
-0.952503
11.3835
-1.08892
9.50057
-1.14782
7.81042
-1.10339
6.34378
-0.994633
5.19387
-0.706438
3.76369
1.60218
0.000794397
4.38681
-0.015805
6.97982
-0.0232777
8.09394
-0.0453221
9.61858
-0.0656475
11.0911
-0.0947558
12.863
-0.129991
14.8284
-0.1788
17.0023
-0.245908
19.408
-0.344238
22.0747
-0.468776
21.0184
-0.598721
16.9217
-0.731036
13.867
-0.834029
11.4865
-0.870847
9.53738
-0.841518
7.78109
-0.833334
6.33559
-0.88006
5.2406
-0.805308
3.68894
0.796876
0.00293805
4.38387
-0.0129874
6.99575
-0.0207454
8.10169
-0.0426583
9.6405
-0.0626659
11.1111
-0.0913311
12.8916
-0.127258
14.8644
-0.174905
17.05
-0.239328
19.4724
-0.33281
22.1682
-0.44131
21.1269
-0.540313
17.0207
-0.593236
13.9199
-0.658646
11.5519
-0.658181
9.53692
-0.652141
7.77505
-0.687594
6.37104
-0.688751
5.24176
-0.364041
3.36423
0.432835
0.00870195
4.37517
-0.0100651
7.01451
-0.0198565
8.11149
-0.0423449
9.66299
-0.0607416
11.1295
-0.0863853
12.9173
-0.122809
14.9008
-0.166683
17.0939
-0.225927
19.5316
-0.310302
22.2526
-0.396473
21.2131
-0.459526
17.0837
-0.473267
13.9336
-0.471222
11.5499
-0.448344
9.51404
-0.478897
7.8056
-0.416826
6.30897
-0.234306
5.05924
-0.042736
3.17266
0.390099
0.00796577
4.3672
-0.00782408
7.0303
-0.0149888
8.11865
-0.0365353
9.68453
-0.0532932
11.1463
-0.0774426
12.9414
-0.114612
14.938
-0.15193
17.1312
-0.204753
19.5844
-0.275766
22.3236
-0.333825
21.2712
-0.356253
17.1062
-0.350306
13.9277
-0.274985
11.4746
-0.182295
9.42135
-0.10421
7.72752
-0.0883534
6.29312
0.0814496
4.88943
0.143025
3.11109
0.533124
0.0115642
4.35564
-0.00258586
7.04445
-0.00911111
8.12518
-0.0302275
9.70565
-0.0436272
11.1597
-0.0662728
12.9641
-0.101882
14.9736
-0.1297
17.159
-0.176635
19.6314
-0.2311
22.378
-0.26548
21.3055
-0.254055
17.0947
-0.214138
13.8878
-0.103879
11.3643
0.0106327
9.30684
0.146023
7.59213
0.298946
6.14019
0.351749
4.83663
0.340141
3.12269
0.873265
0.0133464
4.34229
0.00128627
7.05651
-0.00226863
8.12873
-0.0179639
9.72134
-0.0242804
11.166
-0.049896
12.9897
-0.079739
15.0034
-0.0996091
17.1789
-0.141658
19.6734
-0.178709
22.4151
-0.193184
21.32
-0.160329
17.0619
-0.0852137
13.8127
0.0250248
11.2541
0.147061
9.1848
0.26202
7.47717
0.405448
5.99677
0.490152
4.75193
0.386128
3.22672
1.25939
0.0184176
4.32388
0.0100481
7.06488
0.00838349
8.1304
-0.00345358
9.73318
-0.00851872
11.171
-0.0340721
13.0152
-0.0472998
15.0166
-0.0665191
17.1981
-0.0994484
19.7064
-0.120766
22.4364
-0.120389
21.3196
-0.0825717
17.0241
-0.00463287
13.7347
0.100391
11.149
0.236374
9.04882
0.334056
7.37948
0.399634
5.93119
0.431811
4.71975
0.319405
3.33912
1.5788
0.0220659
4.30181
0.0203172
7.06663
0.0222977
8.12841
0.0125283
9.74295
0.0170801
11.1665
-0.00613527
13.0385
0.00481036
15.0057
-0.0282711
17.2312
-0.047743
19.7258
-0.0602077
22.4489
-0.0533114
21.3127
-0.0170688
16.9878
0.0594941
13.6582
0.15932
11.0492
0.282797
8.92534
0.359
7.30328
0.398651
5.89154
0.391034
4.72737
0.267753
3.4624
1.84655
0.0287289
4.27308
0.0326244
7.06274
0.0411625
8.11988
0.0305937
9.75352
0.0464405
11.1506
0.0306662
13.0542
0.0436804
14.9927
0.0184799
17.2564
0.011739
19.7326
0.0013473
22.4593
0.015575
21.2985
0.0544813
16.9489
0.11627
13.5964
0.191476
10.974
0.270068
8.84675
0.337185
7.23616
0.368165
5.86056
0.354397
4.74114
0.224902
3.5919
2.07145
0.0348331
4.23825
0.0457951
7.05178
0.0627417
8.10293
0.0709891
9.74527
0.0846464
11.137
0.0929152
13.046
0.0983616
14.9872
0.100096
17.2546
0.0977266
19.7349
0.0932575
22.4637
0.102179
21.2896
0.130609
16.9205
0.164623
13.5623
0.205338
10.9333
0.22915
8.82294
0.278543
7.18677
0.29136
5.84774
0.276483
4.75601
0.166793
3.70159
2.23825
0.0486376
4.18961
0.0728791
7.02753
0.0925174
8.08329
0.112143
9.72565
0.133528
11.1156
0.153076
13.0264
0.173623
14.9667
0.186854
17.2414
0.194963
19.7268
0.191931
22.4668
0.191378
21.2902
0.201774
16.9101
0.218026
13.5461
0.228667
10.9226
0.206097
8.84551
0.223363
7.16951
0.214461
5.85664
0.197462
4.77301
0.106175
3.79288
2.34442
0.059469
4.13014
0.0942492
6.99275
0.12659
8.05095
0.167078
9.68516
0.202598
11.0801
0.237608
12.9914
0.27621
14.9281
0.299941
17.2177
0.314372
19.7124
0.308501
22.4726
0.29158
21.3071
0.276531
16.9251
0.268676
13.5539
0.25087
10.9405
0.200001
8.89638
0.185234
7.18427
0.159053
5.88282
0.132627
4.79944
0.0627361
3.86277
2.40716
0.0772677
4.05287
0.134536
6.93549
0.180679
8.00481
0.237131
9.62871
0.29152
11.0257
0.345934
12.937
0.399435
14.8746
0.438449
17.1787
0.456502
19.6944
0.446296
22.4829
0.413872
21.3395
0.373183
16.9658
0.333675
13.5935
0.289733
10.9844
0.229417
8.95669
0.183937
7.22975
0.137057
5.9297
0.0953055
4.84119
0.0301701
3.9279
2.43733
0.103013
3.94986
0.179169
6.85933
0.248349
7.93563
0.333947
9.54311
0.409982
10.9497
0.489099
12.8579
0.55924
14.8044
0.615277
17.1226
0.641674
19.668
0.628951
22.4956
0.576251
21.3922
0.501727
17.0403
0.419344
13.6758
0.340807
11.0629
0.268858
9.02864
0.192737
7.30587
0.130965
5.99148
0.0768828
4.89527
0.023046
3.98174
2.46037
0.133832
3.81603
0.248223
6.74494
0.346358
7.83749
0.459713
9.42975
0.562881
10.8465
0.674856
12.7459
0.772528
14.7068
0.847427
17.0477
0.884767
19.6306
0.869213
22.5111
0.793349
21.4681
0.684604
17.1491
0.56299
13.7975
0.450156
11.1758
0.358792
9.12001
0.259158
7.40551
0.177306
6.07333
0.102169
4.97041
0.0406704
4.04324
2.50104
0.189579
3.62645
0.343042
6.59148
0.48321
7.69732
0.643288
9.26967
0.780374
10.7094
0.928769
12.5975
1.05571
14.5798
1.15573
16.9477
1.21075
19.5756
1.19716
22.5247
1.10021
21.565
0.956103
17.2932
0.790727
13.9628
0.629059
11.3374
0.49027
9.2588
0.349307
7.54647
0.23571
6.18693
0.134781
5.07134
0.0591294
4.11889
2.56017
0.262743
3.36371
0.500215
6.354
0.698618
7.49892
0.904161
9.06413
1.0778
10.5358
1.27095
12.4043
1.43551
14.4153
1.56954
16.8137
1.65053
19.4946
1.64802
22.5272
1.53894
21.6741
1.36629
17.4658
1.16349
14.1656
0.956457
11.5445
0.765532
9.44972
0.576088
7.73591
0.406061
6.35695
0.25446
5.22294
0.121028
4.25232
2.6812
0.427644
2.93606
0.781843
5.9998
1.0196
7.26116
1.27925
8.80448
1.50965
10.3054
1.76165
12.1523
1.96838
14.2085
2.14514
16.6369
2.26534
19.3744
2.28758
22.505
2.17835
21.7833
1.98605
17.6581
1.74885
14.4028
1.49029
11.803
1.22811
9.7119
0.959126
8.0049
0.701417
6.61466
0.461141
5.46321
0.236058
4.4774
2.91726
0.330828
2.60523
0.671071
5.65956
0.936364
6.99587
1.25569
8.48515
1.49825
10.0628
1.71224
11.9384
1.86485
14.0559
1.97542
16.5263
2.00553
19.3443
1.92597
22.5845
1.74795
21.9613
1.53561
17.8705
1.31488
14.6236
1.09887
12.019
0.895001
9.91577
0.699463
8.20044
0.514498
6.79963
0.346165
5.63155
0.17363
4.64994
3.09089
0.0569292
2.5483
0.197732
5.51876
0.433983
6.75962
0.696103
8.22303
0.905872
9.85303
1.11905
11.7252
1.31584
13.8591
1.47152
16.3707
1.54577
19.27
1.51404
22.6163
1.38132
22.0941
1.20446
18.0473
1.01198
14.816
0.818958
12.2121
0.635443
10.0993
0.462509
8.37337
0.307121
6.95502
0.167606
5.77106
0.0652778
4.75227
3.15617
-0.00292556
2.55123
0.116381
5.39945
0.21639
6.65961
0.370628
8.06879
0.536661
9.687
0.738673
11.5232
0.928377
13.6694
1.08306
16.216
1.17566
19.1774
1.17938
22.6126
1.08389
22.1896
0.938262
18.193
0.774719
14.9796
0.610486
12.3763
0.457653
10.2521
0.322868
8.50816
0.208808
7.06908
0.111872
5.868
0.0361681
4.82797
3.19233
-0.0690918
2.62032
0.0309387
5.29942
0.131042
6.55951
0.252515
7.94732
0.379762
9.55975
0.526379
11.3766
0.67167
13.5241
0.801046
16.0866
0.890207
19.0883
0.910141
22.5926
0.843289
22.2564
0.728929
18.3073
0.598559
15.11
0.46999
12.5049
0.353748
10.3684
0.253519
8.60839
0.16695
7.15564
0.0882653
5.94668
0.0217477
4.89449
3.21408
-0.121596
2.74192
-0.0407542
5.21858
0.0648806
6.45387
0.173871
7.83833
0.291293
9.44233
0.412829
11.255
0.518126
13.4188
0.612137
15.9926
0.683506
19.0169
0.704947
22.5712
0.65792
22.3034
0.572066
18.3932
0.473547
15.2085
0.376189
12.6022
0.285389
10.4592
0.202359
8.69142
0.126625
7.23138
0.0559352
6.01737
0.0015377
4.94889
3.21562
-0.104419
2.84634
-0.0641744
5.17834
0.00436649
6.38533
0.0883558
7.75434
0.202178
9.32851
0.31176
11.1454
0.401228
13.3294
0.478622
15.9152
0.534916
18.9606
0.552175
22.5539
0.517448
22.3382
0.452232
18.4584
0.375377
15.2853
0.296437
12.6812
0.219751
10.5358
0.148336
8.76283
0.0849739
7.29474
0.0283232
6.07402
-0.0104599
4.98767
3.20516
-0.076785
2.92312
-0.0594526
5.161
-0.0212523
6.34713
0.0336038
7.69949
0.125357
9.23676
0.21035
11.0604
0.290606
13.2491
0.36359
15.8422
0.414944
18.9093
0.431838
22.537
0.405729
22.3643
0.353444
18.5107
0.289939
15.3488
0.224009
12.7471
0.16091
10.5989
0.10391
8.81983
0.0556203
7.34303
0.0139298
6.11571
-0.01415
5.01575
3.19101
-0.0553205
2.97844
-0.0444968
5.15018
-0.0201911
6.32283
0.0184686
7.66083
0.0802633
9.17496
0.138424
11.0023
0.202809
13.1847
0.265309
15.7797
0.312283
18.8623
0.331289
22.518
0.313042
22.3825
0.271293
18.5524
0.21992
15.4002
0.167558
12.7995
0.118964
10.6475
0.0760418
8.86275
0.0398507
7.37922
0.00905905
6.1465
-0.0121868
5.037
3.17882
-0.0403868
3.01883
-0.0321537
5.14195
-0.0159188
6.30659
0.0153539
7.62955
0.0579762
9.13234
0.0995648
10.9607
0.147151
13.1371
0.194402
15.7325
0.23263
18.8241
0.250947
22.4997
0.239125
22.3943
0.207513
18.584
0.168164
15.4396
0.128305
12.8393