/*--------------------------------*- C++ -*----------------------------------*\
| =========                 |                                                 |
| \\      /  F ield         | OpenFOAM: The Open Source CFD Toolbox           |
|  \\    /   O peration     | Version:  2412                                  |
|   \\  /    A nd           | Website:  www.openfoam.com                      |
|    \\/     M anipulation  |                                                 |
\*---------------------------------------------------------------------------*/
FoamFile
{
    version     2.0;
    format      ascii;
    arch        "LSB;label=32;scalar=64";
    class       volVectorField;
    location    "1.75";
    object      U;
}
// * * * * * * * * * * * * * * * * * * * * * * * * * * * * * * * * * * * * * //

dimensions      [0 1 -1 0 0 0 0];

internalField   nonuniform List<vector> 
2200
(
(0.352199 0.010893 0)
(1.16074 -0.00324805 0)
(2.10691 -0.00167617 0)
(3.16203 0.000391563 0)
(4.32472 0.00459679 0)
(5.57481 0.00793332 0)
(6.86592 0.0106275 0)
(8.12278 0.0117304 0)
(9.20902 0.0124354 0)
(9.89932 0.00648561 0)
(9.8988 -0.00394694 0)
(9.20801 -0.0113378 0)
(8.12314 -0.0105474 0)
(6.86579 -0.00946045 0)
(5.5744 -0.00719155 0)
(4.32452 -0.00403728 0)
(3.16201 9.59508e-05 0)
(2.10674 0.00207461 0)
(1.16049 0.0035172 0)
(0.351916 -0.0108469 0)
(0.403713 0.0251852 0)
(1.14789 0.0387346 0)
(2.1006 0.0205628 0)
(3.1451 0.0229442 0)
(4.3111 0.0286642 0)
(5.56359 0.0279375 0)
(6.85929 0.0301454 0)
(8.11312 0.0307635 0)
(9.18908 0.0225509 0)
(9.88204 0.00880971 0)
(9.88205 -0.00398339 0)
(9.18913 -0.0182596 0)
(8.11235 -0.0274069 0)
(6.8587 -0.0276628 0)
(5.56345 -0.0257069 0)
(4.31069 -0.0266645 0)
(3.1442 -0.0215653 0)
(2.09956 -0.0198653 0)
(1.14675 -0.0383822 0)
(0.402852 -0.0250191 0)
(0.563936 0.0362573 0)
(1.18708 0.0869556 0)
(2.08731 0.0896849 0)
(3.1653 0.0624559 0)
(4.32631 0.0628317 0)
(5.55823 0.0794981 0)
(6.83702 0.076108 0)
(8.08643 0.0641929 0)
(9.17437 0.0503757 0)
(9.85657 0.0278772 0)
(9.8564 -0.0203125 0)
(9.17359 -0.0445051 0)
(8.08606 -0.0578657 0)
(6.83587 -0.0709845 0)
(5.55684 -0.075357 0)
(4.32427 -0.059944 0)
(3.16272 -0.0605059 0)
(2.08474 -0.0883641 0)
(1.18479 -0.0866974 0)
(0.561513 -0.0361417 0)
(0.815736 0.0341092 0)
(1.32005 0.121406 0)
(2.07963 0.169114 0)
(3.16502 0.149609 0)
(4.39154 0.126791 0)
(5.61027 0.127224 0)
(6.84541 0.136627 0)
(8.06314 0.115977 0)
(9.12421 0.0916988 0)
(9.79896 0.0434735 0)
(9.79944 -0.0322629 0)
(9.12312 -0.0815155 0)
(8.0606 -0.108619 0)
(6.84253 -0.12994 0)
(5.60638 -0.122599 0)
(4.3868 -0.12333 0)
(3.16037 -0.147052 0)
(2.07464 -0.16826 0)
(1.31631 -0.12011 0)
(0.81413 -0.0337153 0)
(1.1288 0.0379152 0)
(1.64631 0.159207 0)
(2.14903 0.257763 0)
(3.17231 0.288106 0)
(4.41428 0.278601 0)
(5.6796 0.242529 0)
(6.9241 0.228392 0)
(8.07556 0.198932 0)
(9.10535 0.135069 0)
(9.73297 0.0521078 0)
(9.73348 -0.0388002 0)
(9.10054 -0.12227 0)
(8.07009 -0.186722 0)
(6.91638 -0.220167 0)
(5.67122 -0.235531 0)
(4.40534 -0.273971 0)
(3.16296 -0.285854 0)
(2.14275 -0.255831 0)
(1.64018 -0.159212 0)
(1.11978 -0.0381154 0)
(1.51808 0.0551685 0)
(2.06113 0.188698 0)
(2.3906 0.353897 0)
(3.23721 0.448794 0)
(4.36182 0.461125 0)
(5.63122 0.407265 0)
(6.92262 0.350011 0)
(8.08161 0.315486 0)
(9.0979 0.225642 0)
(9.6892 0.0919366 0)
(9.68828 -0.0756667 0)
(9.09118 -0.211228 0)
(8.07234 -0.302304 0)
(6.91084 -0.339491 0)
(5.61811 -0.399866 0)
(4.34912 -0.456839 0)
(3.22696 -0.446197 0)
(2.3796 -0.35311 0)
(2.05373 -0.188156 0)
(1.5173 -0.0547323 0)
(1.99722 0.0714803 0)
(2.55905 0.204892 0)
(2.79278 0.418085 0)
(3.41071 0.567464 0)
(4.33518 0.632767 0)
(5.52238 0.594383 0)
(6.76471 0.485622 0)
(7.9981 0.383548 0)
(9.00621 0.298557 0)
(9.58398 0.131584 0)
(9.58232 -0.109482 0)
(8.99678 -0.278507 0)
(7.9857 -0.369362 0)
(6.75047 -0.474081 0)
(5.50461 -0.586857 0)
(4.31957 -0.627901 0)
(3.39484 -0.563562 0)
(2.78072 -0.414502 0)
(2.54884 -0.201943 0)
(1.98385 -0.0707226 0)
(2.53139 0.0774462 0)
(3.136 0.210194 0)
(3.29723 0.442747 0)
(3.72316 0.630237 0)
(4.42314 0.76355 0)
(5.4571 0.783611 0)
(6.55713 0.699214 0)
(7.7964 0.496967 0)
(8.80164 0.333704 0)
(9.36153 0.149531 0)
(9.35988 -0.125036 0)
(8.79012 -0.31001 0)
(7.7753 -0.475357 0)
(6.53433 -0.685394 0)
(5.43386 -0.773404 0)
(4.40191 -0.755998 0)
(3.70609 -0.62592 0)
(3.2849 -0.440015 0)
(3.12237 -0.209373 0)
(2.51724 -0.0771361 0)
(3.07089 0.0733864 0)
(3.75174 0.204664 0)
(3.86743 0.43959 0)
(4.14795 0.645761 0)
(4.6483 0.836755 0)
(5.47339 0.92221 0)
(6.43498 0.901554 0)
(7.51153 0.73114 0)
(8.48856 0.439831 0)
(9.00229 0.192802 0)
(8.99787 -0.161314 0)
(8.47166 -0.413785 0)
(7.48682 -0.711081 0)
(6.40435 -0.883726 0)
(5.44682 -0.90906 0)
(4.62162 -0.826845 0)
(4.12561 -0.637457 0)
(3.84684 -0.434499 0)
(3.73172 -0.202294 0)
(3.05298 -0.0722488 0)
(3.56858 0.0614207 0)
(4.36027 0.185833 0)
(4.45328 0.406992 0)
(4.63364 0.612058 0)
(4.97105 0.826186 0)
(5.55723 0.9713 0)
(6.402 0.985409 0)
(7.31249 0.909425 0)
(8.22411 0.570953 0)
(8.72764 0.244222 0)
(8.72341 -0.20552 0)
(8.20101 -0.537818 0)
(7.28385 -0.88454 0)
(6.36478 -0.961722 0)
(5.52427 -0.953742 0)
(4.93865 -0.812478 0)
(4.60323 -0.601482 0)
(4.42464 -0.399381 0)
(4.33458 -0.181369 0)
(3.53793 -0.0579224 0)
(3.98713 0.0451207 0)
(4.91838 0.155662 0)
(5.00403 0.348949 0)
(5.12056 0.536526 0)
(5.34618 0.741208 0)
(5.73449 0.920011 0)
(6.40082 0.985682 0)
(7.16497 0.929805 0)
(7.95427 0.638233 0)
(8.46301 0.265054 0)
(8.45266 -0.220277 0)
(7.92479 -0.597983 0)
(7.12357 -0.892545 0)
(6.35888 -0.958029 0)
(5.68999 -0.896495 0)
(5.30666 -0.721382 0)
(5.08333 -0.52302 0)
(4.96862 -0.338418 0)
(4.88319 -0.149531 0)
(3.94127 -0.0429814 0)
(4.30743 0.0292466 0)
(5.39441 0.120649 0)
(5.48119 0.279386 0)
(5.55733 0.438407 0)
(5.70944 0.617209 0)
(5.97692 0.783432 0)
(6.42429 0.911575 0)
(7.01082 0.844897 0)
(7.64513 0.632431 0)
(8.10654 0.26068 0)
(8.09362 -0.205959 0)
(7.61123 -0.584331 0)
(6.96283 -0.798542 0)
(6.37424 -0.873882 0)
(5.92312 -0.749734 0)
(5.65904 -0.592105 0)
(5.50859 -0.419822 0)
(5.43278 -0.266302 0)
(5.34072 -0.114018 0)
(4.246 -0.0280683 0)
(4.53401 0.0174299 0)
(5.77407 0.0886454 0)
(5.86633 0.212429 0)
(5.91634 0.340066 0)
(6.01843 0.483466 0)
(6.19881 0.623044 0)
(6.49704 0.737668 0)
(6.89754 0.719289 0)
(7.3795 0.576779 0)
(7.74479 0.249143 0)
(7.73341 -0.177809 0)
(7.33647 -0.511572 0)
(6.84441 -0.664742 0)
(6.43397 -0.686881 0)
(6.1327 -0.582371 0)
(5.95107 -0.452517 0)
(5.84837 -0.316148 0)
(5.79735 -0.197007 0)
(5.7008 -0.0813607 0)
(4.45441 -0.0133282 0)
(4.68868 0.0101394 0)
(6.06364 0.0630899 0)
(6.16275 0.156427 0)
(6.19557 0.254172 0)
(6.26402 0.365975 0)
(6.38272 0.473956 0)
(6.57902 0.570609 0)
(6.85401 0.582256 0)
(7.19858 0.490272 0)
(7.46682 0.226911 0)
(7.44821 -0.134021 0)
(7.14447 -0.402415 0)
(6.78766 -0.510339 0)
(6.5032 -0.506543 0)
(6.30216 -0.425909 0)
(6.17815 -0.327388 0)
(6.10539 -0.225877 0)
(6.06971 -0.136856 0)
(5.97263 -0.0522345 0)
(4.5803 -0.00158199 0)
(4.79377 0.00574037 0)
(6.28 0.0467467 0)
(6.38369 0.113614 0)
(6.40605 0.187974 0)
(6.45185 0.272942 0)
(6.52937 0.355092 0)
(6.65606 0.428534 0)
(6.84433 0.456689 0)
(7.07186 0.392121 0)
(7.25936 0.194525 0)
(7.23001 -0.0787306 0)
(7.00934 -0.283232 0)
(6.7563 -0.356898 0)
(6.5594 -0.34685 0)
(6.42372 -0.290497 0)
(6.34063 -0.222037 0)
(6.29219 -0.150525 0)
(6.26773 -0.087895 0)
(6.16721 -0.0277325 0)
(4.63621 0.00226182 0)
(4.87001 0.00392 0)
(6.43992 0.0324347 0)
(6.54942 0.0837858 0)
(6.56477 0.136455 0)
(6.59404 0.200866 0)
(6.64433 0.265223 0)
(6.72294 0.319937 0)
(6.84195 0.352936 0)
(6.97659 0.306941 0)
(7.1018 0.168287 0)
(7.07028 -0.0227765 0)
(6.91245 -0.172562 0)
(6.73549 -0.222276 0)
(6.601 -0.21637 0)
(6.50853 -0.180967 0)
(6.45122 -0.136064 0)
(6.41926 -0.0902553 0)
(6.4021 -0.0507676 0)
(6.28376 -0.0129029 0)
(4.66358 -0.000744983 0)
(4.92397 0.00322872 0)
(6.55959 0.0288482 0)
(6.67035 0.0634358 0)
(6.6812 0.106887 0)
(6.69879 0.15284 0)
(6.72991 0.203316 0)
(6.77689 0.245194 0)
(6.84201 0.273945 0)
(6.91423 0.24925 0)
(6.98767 0.160338 0)
(6.95554 0.0280831 0)
(6.83722 -0.0779028 0)
(6.712 -0.114686 0)
(6.61941 -0.116521 0)
(6.55518 -0.0983901 0)
(6.51393 -0.0729623 0)
(6.49077 -0.0479577 0)
(6.47622 -0.026262 0)
(6.34345 -0.00834411 0)
(4.68271 0.00134071 0)
(4.98001 0.00581074 0)
(6.6482 0.0207684 0)
(6.76617 0.0545523 0)
(6.7732 0.0851139 0)
(6.78128 0.122859 0)
(6.7976 0.164435 0)
(6.82236 0.199675 0)
(6.84977 0.223852 0)
(6.88523 0.225992 0)
(6.91407 0.172358 0)
(6.87805 0.0770043 0)
(6.78276 0.00285338 0)
(6.69141 -0.0291827 0)
(6.62408 -0.0404294 0)
(6.57701 -0.0371991 0)
(6.54585 -0.0281835 0)
(6.52578 -0.0183547 0)
(6.50814 -0.00792931 0)
(6.37457 -0.00258535 0)
(4.6825 0.00259728 0)
(5.03064 0.00530188 0)
(6.7323 0.0296703 0)
(6.84364 0.049573 0)
(6.84811 0.0816024 0)
(6.85091 0.112926 0)
(6.85692 0.148855 0)
(6.86588 0.182233 0)
(6.86913 0.203874 0)
(6.88221 0.226172 0)
(6.8666 0.199871 0)
(6.82107 0.12604 0)
(6.7357 0.0728801 0)
(6.66356 0.0403079 0)
(6.60941 0.0217598 0)
(6.5719 0.0129021 0)
(6.5475 0.00952465 0)
(6.53236 0.00714427 0)
(6.51244 0.004803 0)
(6.37785 0.00500616 0)
(4.67585 0.00255603 0)
(5.10405 0.0106203 0)
(6.7987 0.0215912 0)
(6.9221 0.0526671 0)
(6.92301 0.0808301 0)
(6.91992 0.112618 0)
(6.91535 0.149026 0)
(6.91037 0.186884 0)
(6.89441 0.207968 0)
(6.88994 0.236251 0)
(6.83614 0.239308 0)
(6.77654 0.178471 0)
(6.69636 0.137752 0)
(6.63317 0.101064 0)
(6.58559 0.0746311 0)
(6.55302 0.054015 0)
(6.53148 0.0371039 0)
(6.51789 0.0252253 0)
(6.50104 0.0145044 0)
(6.36828 0.00756216 0)
(4.65599 0.00630832 0)
(5.1792 0.0104155 0)
(6.89631 0.0420133 0)
(7.00126 0.0637545 0)
(7.00117 0.0933829 0)
(6.99154 0.128641 0)
(6.97791 0.166066 0)
(6.9578 0.207648 0)
(6.92889 0.235968 0)
(6.91622 0.270855 0)
(6.82046 0.284935 0)
(6.74158 0.237147 0)
(6.65994 0.201005 0)
(6.5962 0.159489 0)
(6.54837 0.126007 0)
(6.51529 0.0972588 0)
(6.49327 0.073201 0)
(6.47894 0.0531811 0)
(6.46925 0.0363958 0)
(6.34263 0.0259571 0)
(4.61243 0.00901569 0)
(5.29762 0.016161 0)
(6.97453 0.0347262 0)
(7.09554 0.0700715 0)
(7.08733 0.113899 0)
(7.07312 0.157941 0)
(7.04805 0.202966 0)
(7.01096 0.255877 0)
(6.96753 0.295261 0)
(6.93845 0.333352 0)
(6.80584 0.344267 0)
(6.70581 0.309018 0)
(6.61648 0.269975 0)
(6.547 0.222624 0)
(6.49637 0.180485 0)
(6.46155 0.14111 0)
(6.43847 0.106069 0)
(6.42434 0.0781021 0)
(6.41361 0.0506355 0)
(6.27918 0.0276986 0)
(4.51198 0.0168458 0)
(5.41987 0.0226482 0)
(7.1189 0.0681279 0)
(7.21335 0.109226 0)
(7.20351 0.1526 0)
(7.17647 0.203533 0)
(7.13538 0.265379 0)
(7.07942 0.325321 0)
(7.01578 0.377216 0)
(6.95842 0.412679 0)
(6.79846 0.418553 0)
(6.67729 0.391579 0)
(6.57498 0.345604 0)
(6.49619 0.290843 0)
(6.43922 0.238563 0)
(6.39947 0.190197 0)
(6.37259 0.146302 0)
(6.35531 0.109238 0)
(6.34535 0.081412 0)
(6.20526 0.0517684 0)
(4.42811 0.0154266 0)
(5.65287 0.03234 0)
(7.26191 0.0752125 0)
(7.36412 0.133787 0)
(7.34026 0.204477 0)
(7.29756 0.284433 0)
(7.23821 0.355046 0)
(7.15745 0.427423 0)
(7.06643 0.488641 0)
(6.9722 0.520131 0)
(6.78787 0.521168 0)
(6.64186 0.493613 0)
(6.52049 0.436598 0)
(6.42884 0.372357 0)
(6.36244 0.308677 0)
(6.3152 0.248152 0)
(6.28365 0.193084 0)
(6.26314 0.14093 0)
(6.24237 0.0921907 0)
(6.06393 0.0516354 0)
(4.26987 0.0217795 0)
(5.87446 0.0545241 0)
(7.49498 0.141849 0)
(7.56693 0.216953 0)
(7.51559 0.309708 0)
(7.44628 0.395157 0)
(7.35421 0.48673 0)
(7.24127 0.567563 0)
(7.1163 0.630218 0)
(6.98022 0.655795 0)
(6.77283 0.648786 0)
(6.60122 0.611213 0)
(6.45994 0.540462 0)
(6.35474 0.464172 0)
(6.2778 0.388179 0)
(6.22125 0.315558 0)
(6.18009 0.247888 0)
(6.15166 0.190614 0)
(6.12503 0.137448 0)
(5.94398 0.0827696 0)
(4.14831 0.0271489 0)
(6.53209 0.125438 0)
(7.76027 0.212226 0)
(7.80355 0.344791 0)
(7.7177 0.471379 0)
(7.60837 0.586598 3.20666e-33)
(7.47728 0.681272 -2.11954e-33)
(7.32773 0.756172 0)
(7.16332 0.810296 0)
(6.98349 0.825269 0)
(6.75234 0.804349 0)
(6.55336 0.74917 0)
(6.38999 0.662718 0)
(6.26815 0.573631 0)
(6.17649 0.486493 0)
(6.10733 0.405546 0)
(6.05514 0.328862 0)
(6.01378 0.250772 0)
(5.96617 0.180176 0)
(5.71316 0.105914 0)
(3.83134 0.0502878 0)
(6.96835 0.285607 -3.09866e-19)
(8.13861 0.381334 2.71959e-19)
(8.07804 0.592222 0)
(7.92125 0.743323 4.90932e-20)
(7.76516 0.845072 -3.95464e-20)
(7.59179 0.929522 2.24783e-33)
(7.40324 0.992191 0)
(7.19536 1.03533 2.0234e-19)
(6.97209 1.03664 -7.21053e-19)
(6.71279 0.999546 1.57706e-19)
(6.48098 0.925461 0)
(6.29134 0.824123 -5.09534e-19)
(6.14851 0.722898 -6.38145e-19)
(6.03793 0.624771 1.12297e-18)
(5.95092 0.532201 -9.03358e-19)
(5.88207 0.44971 0)
(5.82485 0.379614 -3.49912e-19)
(5.7489 0.28927 0)
(5.41598 0.205987 -1.90242e-18)
(3.56096 0.132279 2.14422e-18)
(7.26988 0.634172 -1.05763e-19)
(8.38406 0.817168 -2.04037e-18)
(8.28151 0.991934 5.38762e-19)
(8.09689 1.07351 6.35508e-19)
(7.90162 1.15316 -7.71991e-20)
(7.69044 1.22007 1.62754e-19)
(7.45903 1.27118 0)
(7.20936 1.3019 0)
(6.94672 1.28882 1.14635e-18)
(6.65621 1.23747 0)
(6.38907 1.14783 1.77883e-18)
(6.1698 1.03657 5.54776e-19)
(6.00091 0.930258 1.80827e-20)
(5.86586 0.832624 -1.27711e-18)
(5.75443 0.744376 0)
(5.65968 0.663498 0)
(5.5776 0.598692 -6.0397e-18)
(5.48852 0.572444 1.53312e-17)
(5.21482 0.450686 -8.99054e-18)
(3.41885 0.318843 -1.01314e-17)
(7.40557 0.981117 2.72693e-18)
(8.5873 1.38596 -9.38586e-19)
(8.4672 1.42838 -2.33399e-19)
(8.2457 1.44911 -1.16203e-18)
(8.01158 1.50285 5.57921e-19)
(7.76287 1.54668 -2.69018e-19)
(7.49261 1.58187 2.5226e-19)
(7.20932 1.58965 0)
(6.91228 1.55774 -2.39161e-18)
(6.59061 1.48955 2.60849e-18)
(6.29044 1.38464 -4.86298e-18)
(6.04297 1.26599 2.36546e-18)
(5.84943 1.15834 -1.74382e-18)
(5.69293 1.06453 3.81983e-18)
(5.56374 0.986413 0)
(5.45496 0.918288 -1.50042e-18)
(5.36076 0.849324 0)
(5.26627 0.80534 8.74888e-18)
(5.03227 0.769235 -2.08694e-17)
(3.38984 0.44069 1.25676e-17)
(7.44571 1.29239 -1.26804e-17)
(8.65659 1.92897 6.34478e-18)
(8.57697 1.88997 9.15801e-19)
(8.34455 1.86668 0)
(8.08694 1.88458 5.52957e-19)
(7.80273 1.9033 -5.61715e-19)
(7.50206 1.9087 -3.03991e-19)
(7.19026 1.88812 0)
(6.86229 1.83561 1.69214e-18)
(6.512 1.7491 -1.79459e-18)
(6.1841 1.62858 4.25859e-18)
(5.91484 1.50224 0)
(5.70532 1.39223 -3.65638e-18)
(5.53816 1.29821 2.02299e-18)
(5.40346 1.22077 5.47515e-18)
(5.29421 1.16091 -4.80878e-18)
(5.2033 1.10392 8.0277e-18)
(5.1111 1.0225 -1.79257e-17)
(4.90984 1.01714 1.14217e-17)
(3.39626 0.622149 -1.45827e-17)
(7.45403 1.55055 8.51672e-18)
(8.6939 2.43386 -7.00357e-18)
(8.63762 2.28631 2.78993e-18)
(8.38513 2.28186 -3.80993e-18)
(8.10479 2.28777 2.42377e-18)
(7.80406 2.27212 -3.22336e-19)
(7.48559 2.24237 1.19007e-19)
(7.15273 2.19207 -1.24575e-18)
(6.79963 2.1176 -1.7227e-18)
(6.42722 2.00992 -3.8651e-18)
(6.07995 1.87176 -9.17462e-18)
(5.79792 1.73541 -3.05764e-18)
(5.58173 1.62024 1.21728e-19)
(5.41217 1.52319 -7.18749e-18)
(5.27759 1.44155 -2.55012e-19)
(5.17036 1.37818 7.01452e-18)
(5.08099 1.34397 -2.17467e-18)
(4.99783 1.23826 -1.29422e-18)
(4.81266 1.25439 0)
(3.39234 0.787231 3.08881e-17)
(7.36819 1.84512 0)
(8.64681 2.86191 1.89399e-18)
(8.64884 2.65236 0)
(8.36197 2.69091 -4.72099e-19)
(8.07807 2.6718 -2.88806e-18)
(7.77234 2.63056 4.80075e-19)
(7.44678 2.571 2.21085e-19)
(7.09947 2.49365 2.20368e-18)
(6.72798 2.39573 -1.0318e-18)
(6.34103 2.26525 1.72724e-18)
(5.98101 2.10947 4.94131e-18)
(5.69092 1.96179 6.75924e-18)
(5.47078 1.83939 -4.19546e-18)
(5.29967 1.73818 7.76583e-18)
(5.16439 1.65255 -6.22987e-18)
(5.05735 1.58114 0)
(4.96473 1.56205 -1.66775e-17)
(4.89125 1.4474 2.24202e-17)
(4.71349 1.46936 1.71321e-18)
(3.36004 0.94512 -3.23754e-17)
(7.29039 2.19184 -9.08839e-19)
(8.61875 3.2899 -5.60503e-18)
(8.60934 3.00616 -1.47471e-17)
(8.29066 3.08246 7.90403e-18)
(8.01397 3.03193 -1.51615e-18)
(7.71395 2.96544 7.6385e-19)
(7.38805 2.88242 7.87428e-20)
(7.03143 2.78459 -3.07469e-19)
(6.64918 2.66611 -3.73398e-18)
(6.25291 2.51472 2.54214e-20)
(5.88171 2.3413 -5.35417e-18)
(5.58354 2.18014 -7.15998e-18)
(5.35873 2.04835 4.71583e-18)
(5.18513 1.94173 -2.7841e-18)
(5.04872 1.85258 6.75478e-18)
(4.94212 1.77198 0)
(4.84659 1.76024 -1.02973e-17)
(4.78112 1.63798 1.5235e-17)
(4.61049 1.65853 2.97347e-17)
(3.30154 1.09008 -3.36771e-17)
(7.17948 2.42462 -2.63281e-17)
(8.51325 3.64101 1.27789e-17)
(8.53327 3.33661 9.20711e-18)
(8.18976 3.44374 -8.25775e-18)
(7.93416 3.35276 4.70242e-19)
(7.6393 3.27253 1.9316e-18)
(7.31295 3.17515 -3.30169e-19)
(6.94925 3.06288 -9.02697e-19)
(6.56085 2.92567 -2.33112e-18)
(6.15694 2.75359 3.89777e-18)
(5.77559 2.56242 5.10514e-18)
(5.4705 2.38754 1.12413e-17)
(5.24194 2.2457 0)
(5.06691 2.13216 2.09538e-19)
(4.93052 2.03894 -1.87297e-17)
(4.82689 1.94785 4.29262e-18)
(4.72821 1.94074 2.20146e-17)
(4.67394 1.80918 -6.3864e-18)
(4.5029 1.83145 1.43135e-17)
(3.23569 1.20995 -8.80835e-19)
(7.05274 2.70359 1.07538e-18)
(8.43428 4.00995 1.16865e-17)
(8.44477 3.66553 6.65535e-18)
(8.09275 3.77534 -1.4028e-17)
(7.84999 3.64766 8.51382e-18)
(7.5554 3.55555 -2.33853e-18)
(7.22502 3.44786 2.77814e-19)
(6.85398 3.32326 2.17857e-18)
(6.46397 3.16861 4.17174e-18)
(6.05513 2.97988 -4.96607e-18)
(5.66629 2.77429 0)
(5.35575 2.58591 -4.41031e-18)
(5.12424 2.4326 5.05943e-18)
(4.9482 2.31031 6.79633e-18)
(4.81241 2.21227 -3.88885e-18)
(4.71192 2.11349 -9.86404e-18)
(4.60998 2.1025 -2.99251e-18)
(4.56281 1.96562 -3.78988e-20)
(4.38871 1.98727 0)
(3.16656 1.31379 0)
(6.96032 2.94852 -1.27004e-17)
(8.31928 4.34519 0)
(8.35417 3.97454 7.46864e-18)
(7.99002 4.09642 -3.54117e-18)
(7.76655 3.92627 -8.50918e-18)
(7.46776 3.82329 2.40243e-18)
(7.13062 3.70536 2.00742e-19)
(6.75442 3.56836 -1.23353e-18)
(6.36602 3.39837 2.8853e-18)
(5.95184 3.19628 -1.9846e-18)
(5.55598 2.97606 2.88941e-18)
(5.23995 2.77338 1.37305e-17)
(5.00534 2.60853 5.12833e-19)
(4.82861 2.4766 -6.91086e-18)
(4.69315 2.37089 1.33595e-17)
(4.59562 2.26401 1.85635e-19)
(4.49332 2.24909 3.20142e-18)
(4.46158 2.10962 -1.56976e-17)
(4.28114 2.12827 1.61909e-17)
(3.09472 1.4063 -1.66843e-17)
(6.83144 3.13794 -1.20498e-21)
(8.22594 4.63286 0)
(8.26205 4.2578 0)
(7.89465 4.38902 3.00451e-18)
(7.68327 4.1866 3.36141e-18)
(7.37747 4.07822 -1.70868e-18)
(7.03205 3.94977 5.36942e-19)
(6.6548 3.79971 0)
(6.26781 3.61436 -4.54098e-18)
(5.84808 3.39992 7.29143e-18)
(5.44722 3.1669 8.67567e-18)
(5.12632 2.9521 -5.15987e-18)
(4.88864 2.7755 -6.44776e-18)
(4.71052 2.63247 1.52168e-17)
(4.57586 2.51992 -4.71725e-18)
(4.48082 2.41085 -5.74166e-18)
(4.3752 2.3815 -3.50284e-18)
(4.33653 2.2364 -1.69787e-17)
(4.15611 2.24714 2.23493e-18)
(3.01521 1.48706 1.77912e-17)
(6.7535 3.39191 -5.06847e-18)
(8.11027 4.93729 -6.87885e-18)
(8.16285 4.52784 9.32774e-19)
(7.7977 4.66202 1.27661e-19)
(7.59475 4.43343 8.8503e-19)
(7.28313 4.31966 -4.71655e-18)
(6.93013 4.18065 0)
(6.55811 4.0167 9.70558e-19)
(6.17205 3.8181 -7.63789e-19)
(5.7478 3.59431 1.17908e-17)
(5.34152 3.35072 -2.1668e-18)
(5.01302 3.12435 2.38e-18)
(4.7687 2.93645 0)
(4.58584 2.78242 -8.30036e-18)
(4.44739 2.65635 1.03098e-17)
(4.35097 2.53431 0)
(4.25339 2.49638 -7.71102e-18)
(4.244 2.35463 2.24922e-17)
(4.057 2.36156 2.74826e-18)
(2.9298 1.55484 -2.19518e-17)
(6.6323 3.54469 -1.06019e-17)
(8.01192 5.18272 1.28689e-17)
(8.07346 4.77847 0)
(7.69151 4.91801 7.34355e-18)
(7.50258 4.66281 0)
(7.18335 4.54649 4.23273e-18)
(6.82839 4.39718 0)
(6.46489 4.21954 0)
(6.07723 4.0103 -1.56147e-18)
(5.64843 3.77793 -1.14088e-17)
(5.23688 3.5243 -1.6139e-17)
(4.90181 3.28756 2.96135e-18)
(4.65298 3.08749 1.09648e-17)
(4.46874 2.91929 9.28143e-18)
(4.33487 2.78417 -3.29975e-17)
(4.2415 2.66505 -1.37413e-17)
(4.1333 2.61507 7.96749e-18)
(4.09227 2.45482 0)
(3.91054 2.44061 2.38649e-17)
(2.83706 1.60834 -2.34546e-17)
(6.5547 3.7455 1.16428e-17)
(7.88773 5.43247 -1.40244e-17)
(7.96139 4.99377 0)
(7.58393 5.14784 -3.84672e-19)
(7.40573 4.87318 -2.93005e-18)
(7.08038 4.75727 0)
(6.72903 4.59872 -5.27028e-20)
(6.3731 4.40812 1.01671e-18)
(5.98262 4.19016 -2.39659e-18)
(5.5522 3.95054 1.27188e-18)
(5.13737 3.69008 0)
(4.79439 3.44633 1.18079e-17)
(4.53408 3.23864 3.41061e-20)
(4.33478 3.06225 5.01056e-18)
(4.18081 2.91183 6.09437e-18)
(4.07902 2.76656 0)
(3.99066 2.6893 -1.35042e-17)
(4.00381 2.54171 2.64692e-17)
(3.80872 2.53808 -2.90342e-17)
(2.73565 1.64558 5.06172e-17)
(6.45144 3.89945 0)
(7.79065 5.63607 0)
(7.8643 5.21509 -7.04813e-18)
(7.47826 5.36124 0)
(7.30783 5.06762 0)
(6.97813 4.95199 5.74923e-18)
(6.63246 4.78517 -1.08941e-19)
(6.28248 4.58325 5.71726e-19)
(5.89031 4.35861 -3.81845e-19)
(5.46025 4.11315 0)
(5.04111 3.84756 -2.54692e-18)
(4.68915 3.59857 -9.75851e-18)
(4.42126 3.38216 -1.21565e-17)
(4.22394 3.1911 -5.01495e-18)
(4.08947 3.02543 6.64238e-18)
(3.98979 2.88894 -1.57678e-17)
(3.87866 2.81501 2.92302e-17)
(3.8369 2.63443 5.29894e-19)
(3.64867 2.57138 -2.77312e-17)
(2.62456 1.67121 -3.45363e-18)
(6.36143 4.05012 0)
(7.66113 5.87769 -1.00885e-17)
(7.76137 5.40362 8.04174e-18)
(7.36782 5.5622 0)
(7.21186 5.24807 0)
(6.87779 5.13283 -1.2605e-17)
(6.53902 4.95767 0)
(6.1941 4.74583 0)
(5.80124 4.51579 -5.09531e-18)
(5.37206 4.26495 2.18624e-18)
(4.94964 3.99629 -2.10657e-17)
(4.59056 3.74549 0)
(4.30976 3.52561 -1.29553e-17)
(4.08454 3.32996 4.45433e-19)
(3.89809 3.15503 -2.07979e-17)
(3.78108 2.972 8.54682e-18)
(3.69138 2.84435 2.20263e-19)
(3.71176 2.67064 -3.13388e-17)
(3.518 2.65458 1.50394e-17)
(2.50159 1.67219 3.67252e-18)
(6.27909 4.19111 0)
(7.56711 6.02426 -1.17898e-17)
(7.66113 5.5821 8.27275e-18)
(7.26558 5.7443 1.58576e-17)
(7.11992 5.41399 2.93639e-18)
(6.78024 5.30025 -1.60398e-18)
(6.44928 5.11689 1.04648e-18)
(6.10825 4.89681 1.16346e-18)
(5.71561 4.66226 5.45914e-18)
(5.2883 4.40705 1.50229e-17)
(4.86326 4.13756 1.75104e-17)
(4.49581 3.88738 3.23958e-18)
(4.20339 3.66616 1.88454e-17)
(3.97857 3.46314 1.1999e-17)
(3.82428 3.27453 1.50029e-17)
(3.69796 3.12661 -9.21259e-18)
(3.5821 3.00333 -1.13138e-17)
(3.54859 2.79262 1.36114e-17)
(3.33061 2.64408 -8.36333e-18)
(2.35659 1.65665 1.20557e-17)
(6.19941 4.32267 1.76386e-17)
(7.45716 6.23666 1.86249e-17)
(7.5638 5.75365 4.31301e-18)
(7.16582 5.9167 2.73418e-19)
(7.03043 5.5689 -1.0526e-17)
(6.68582 5.45624 3.71249e-18)
(6.36339 5.26414 -1.18263e-18)
(6.0254 5.03687 -3.54799e-19)
(5.63404 4.79842 -6.26966e-18)
(5.20915 4.53956 -1.65617e-17)
(4.78229 4.27019 1.12813e-18)
(4.40854 4.02253 0)
(4.10443 3.8036 0)
(3.85172 3.60349 -6.14552e-18)
(3.63228 3.4102 -2.39307e-17)
(3.46912 3.18955 1.97555e-17)
(3.35066 3.00917 1.20753e-17)
(3.34449 2.78226 0)
(3.16956 2.69239 2.68879e-17)
(2.20528 1.61944 -1.36118e-17)
(6.11642 4.44182 -8.94956e-18)
(7.33817 6.38397 7.4937e-18)
(7.46802 5.89932 -9.8801e-18)
(7.06418 6.0722 -9.9826e-18)
(6.94483 5.71254 -4.12246e-18)
(6.59501 5.60093 1.09102e-18)
(6.28124 5.40005 0)
(5.94562 5.16686 -1.40748e-18)
(5.55647 4.92495 6.34266e-19)
(5.13457 4.663 0)
(4.707 4.39499 0)
(4.32735 4.15262 2.16578e-18)
(4.01159 3.93948 3.14932e-18)
(3.74932 3.73812 -6.50675e-18)
(3.54634 3.54164 1.72687e-17)
(3.3957 3.37393 -2.12609e-17)
(3.24032 3.2154 -2.63785e-17)
(3.17115 2.95285 2.43337e-17)
(2.89637 2.66606 -9.92733e-18)
(2.01275 1.57185 5.40531e-18)
(6.04946 4.54848 1.04734e-17)
(7.25331 6.52404 0)
(7.38504 6.04614 0)
(6.9764 6.2185 -3.20377e-18)
(6.8643 5.84446 2.58637e-18)
(6.50745 5.7357 -3.0572e-19)
(6.20277 5.52565 -3.63934e-18)
(5.86918 5.28729 4.89679e-19)
(5.48314 5.04219 1.08282e-17)
(5.06433 4.77753 -1.30785e-18)
(4.63611 4.51151 2.87705e-18)
(4.25141 4.27539 -1.82791e-17)
(3.92346 4.0693 -1.89983e-17)
(3.63927 3.88159 -3.40128e-18)
(3.38213 3.69839 0)
(3.1389 3.48855 -3.62669e-19)
(2.94688 3.27346 1.36161e-17)
(2.88051 2.96779 -2.66262e-17)
(2.66089 2.71447 2.02414e-17)
(1.77593 1.458 1.7743e-17)
(5.9874 4.66158 -2.24755e-17)
(7.17818 6.71414 -8.58584e-18)
(7.31298 6.1939 1.1061e-19)
(6.89123 6.36636 4.26554e-18)
(6.78207 5.96997 0)
(6.42194 5.86205 1.00347e-17)
(6.1259 5.6434 4.23796e-18)
(5.79422 5.40146 -5.96365e-19)
(5.41137 5.15377 -5.44111e-18)
(4.99533 4.88708 -1.26447e-18)
(4.56896 4.62468 1.17004e-18)
(4.18362 4.39842 1.59819e-17)
(3.84923 4.20506 1.84509e-17)
(3.55252 4.02482 3.2362e-18)
(3.29342 3.84377 1.71474e-17)
(3.09164 3.67962 0)
(2.87454 3.53473 0)
(2.65362 3.26956 1.72964e-17)
(2.07194 2.74112 1.96164e-19)
(0.922664 1.81147 -1.58578e-17)
(5.91463 4.74594 1.20893e-17)
(7.06035 6.78877 2.57138e-17)
(7.20474 6.29681 -3.72804e-17)
(6.78541 6.48593 2.09301e-17)
(6.70066 6.08817 -2.19477e-18)
(6.33757 5.98194 1.29161e-17)
(6.05039 5.75575 0)
(5.72032 5.51153 1.29842e-19)
(5.3405 5.26202 0)
(4.92829 4.99478 1.61276e-17)
(4.50422 4.73727 -1.59352e-18)
(4.11478 4.52136 1.78176e-18)
(3.76591 4.341 2.06903e-17)
(3.44676 4.1794 -7.11297e-18)
(3.15409 4.03368 -9.06814e-18)
(2.841 3.87681 0)
(2.53529 3.69564 0)
(2.24869 3.37921 0)
(1.60376 2.72523 -9.75572e-18)
(1.08315 2.24807 -5.50775e-18)
(5.83166 4.83474 0)
(6.93939 6.91031 0)
(7.10125 6.3882 1.33269e-17)
(6.69214 6.58398 -1.73125e-17)
(6.62949 6.19542 1.11278e-17)
(6.25441 6.09418 -1.16988e-17)
(5.9772 5.8622 -3.69337e-19)
(5.64791 5.61695 2.86004e-19)
(5.27177 5.36658 9.39388e-19)
(4.86382 5.09989 -1.84647e-17)
(4.44186 4.84736 2.72948e-18)
(4.05401 4.64513 1.57112e-17)
(3.70696 4.48761 -2.05374e-17)
(3.38261 4.34845 -2.31666e-17)
(3.07249 4.21201 8.05926e-18)
(2.80998 4.08224 0)
(2.5467 3.95641 1.27249e-17)
(2.1845 3.63112 1.56627e-17)
(1.52217 2.96886 -1.84544e-17)
(1.03414 2.95854 2.36784e-17)
(5.79231 4.93813 0)
(6.89185 7.06982 1.74816e-17)
(7.09491 6.55349 -3.31794e-18)
(6.64343 6.72434 2.1657e-17)
(6.5576 6.29849 -1.16903e-17)
(6.175 6.20265 0)
(5.90722 5.96375 0)
(5.57746 5.71804 0)
(5.20576 5.46766 3.66202e-18)
(4.80156 5.20174 6.95788e-19)
(4.38376 4.95499 0)
(3.99943 4.76619 -1.55262e-17)
(3.64656 4.62956 0)
(3.3056 4.51424 1.65116e-17)
(2.98391 4.41506 -1.13316e-17)
(2.65553 4.32567 -9.2345e-18)
(2.32041 4.13781 -2.42831e-17)
(1.90299 3.71771 -1.35234e-17)
(1.295 3.37511 -2.37074e-17)
(1.07462 3.47103 2.02851e-17)
(5.76621 5.00498 -7.48041e-18)
(6.86059 7.18201 -5.25165e-20)
(7.0055 6.64634 -3.40129e-18)
(6.5534 6.85169 -1.67352e-17)
(6.47714 6.40417 0)
(6.10151 6.30778 0)
(5.83819 6.06053 0)
(5.50953 5.81588 1.06059e-19)
(5.1419 5.56562 -4.74703e-18)
(4.74164 5.30112 0)
(4.32989 5.0609 0)
(3.94962 4.88536 0)
(3.60053 4.77216 0)
(3.2689 4.69484 1.21181e-17)
(2.94883 4.62744 3.10339e-17)
(2.66952 4.53767 9.8734e-18)
(2.38669 4.35417 2.33823e-17)
(1.90885 3.93467 -1.89297e-17)
(1.41512 3.81944 7.79658e-18)
(1.22305 3.9232 0)
(5.65148 5.0713 6.2079e-18)
(6.70039 7.21545 -3.97641e-17)
(6.86743 6.70972 -8.49431e-18)
(6.43155 6.9034 -2.59867e-18)
(6.41258 6.49866 2.60088e-18)
(6.02482 6.40641 -1.68087e-17)
(5.77009 6.15523 1.04786e-18)
(5.44335 5.91185 2.36351e-18)
(5.07908 5.66141 0)
(4.68444 5.39921 -1.15847e-18)
(4.2787 5.16437 1.05465e-18)
(3.9068 5.00132 0)
(3.56978 4.91289 0)
(3.24674 4.86762 -1.51658e-17)
(2.93539 4.82901 2.62478e-18)
(2.61411 4.76959 -9.21337e-18)
(2.20234 4.58217 2.05998e-17)
(1.63076 4.19589 1.79666e-17)
(1.18567 4.1823 -3.27363e-17)
(1.05848 4.22952 1.62621e-17)
(5.59263 5.1453 1.17225e-17)
(6.60854 7.34154 3.69117e-17)
(6.82759 6.81604 1.0286e-17)
(6.3834 7.01217 0)
(6.34978 6.58896 0)
(5.943 6.5049 1.26434e-17)
(5.70212 6.25061 -6.11109e-18)
(5.37481 6.0081 -2.306e-18)
(5.0156 5.75777 3.08037e-20)
(4.62704 5.49731 1.32941e-17)
(4.22926 5.26686 -1.89099e-17)
(3.87047 5.11605 0)
(3.54546 5.0448 0)
(3.23492 5.0286 -1.07336e-17)
(2.9344 5.03586 -1.40875e-17)
(2.63127 4.9855 0)
(2.26814 4.7337 -2.98482e-17)
(1.76978 4.46904 -5.50465e-18)
(1.42521 4.66119 3.21731e-17)
(1.25434 4.73682 -1.5104e-17)
(5.57165 5.25023 -2.49735e-17)
(6.58982 7.50397 -1.76577e-17)
(6.79198 6.96727 0)
(6.31611 7.1664 0)
(6.26316 6.69733 0)
(5.86345 6.61319 0)
(5.62984 6.34802 6.40041e-18)
(5.30239 6.10564 -3.51214e-18)
(4.94963 5.85453 0)
(4.56806 5.59459 -1.19978e-17)
(4.18116 5.36794 3.41815e-17)
(3.83766 5.22652 1.45243e-18)
(3.53435 5.17621 2.17262e-18)
(3.24744 5.18735 1.81751e-17)
(2.96089 5.21441 -1.21076e-17)
(2.64927 5.17528 0)
(2.20543 5.00574 9.44426e-18)
(1.62697 4.91267 7.6647e-19)
(1.15805 5.10664 -5.18898e-18)
(0.786509 5.20878 1.00435e-17)
(5.48091 5.31594 1.18133e-17)
(6.47123 7.58589 -1.69088e-17)
(6.65372 7.03279 0)
(6.18445 7.25136 -3.75447e-18)
(6.17484 6.80411 1.39684e-17)
(5.77512 6.72129 0)
(5.54936 6.44622 0)
(5.2259 6.20413 6.43591e-18)
(4.88003 5.95083 -5.97894e-19)
(4.50674 5.69084 1.18231e-17)
(4.13331 5.46682 -1.6284e-17)
(3.80881 5.33161 1.04719e-17)
(3.52633 5.29161 0)
(3.25933 5.32424 -9.9346e-18)
(2.99636 5.38072 6.20581e-18)
(2.70044 5.35574 6.79293e-18)
(2.31864 5.17169 0)
(1.82803 5.17236 4.68624e-18)
(1.3423 5.80667 7.82735e-18)
(1.25631 6.06465 2.34458e-18)
(5.36856 5.39385 -2.18531e-17)
(6.31623 7.67842 2.45563e-17)
(6.53796 7.12353 1.7283e-17)
(6.08184 7.34338 -4.38989e-18)
(6.09166 6.90194 -2.10728e-17)
(5.67587 6.82586 0)
(5.46546 6.54532 5.66197e-18)
(5.14487 6.30277 -2.80872e-18)
(4.80569 6.04562 -7.23208e-20)
(4.44334 5.78504 -1.02784e-17)
(4.0853 5.56213 -8.17114e-19)
(3.78003 5.42939 -1.1748e-17)
(3.52737 5.40117 1.43237e-17)
(3.29827 5.45074 4.51583e-18)
(3.06612 5.5262 -1.04972e-17)
(2.81789 5.50251 1.18537e-17)
(2.46847 5.35015 0)
(2.00645 5.75843 0)
(1.78322 6.62327 9.67001e-19)
(0.427708 6.70298 -4.52611e-18)
(5.30557 5.49831 1.05943e-17)
(6.23755 7.83347 2.28822e-17)
(6.46501 7.27874 -1.72684e-17)
(5.99027 7.49063 1.53462e-17)
(5.99009 7.01205 2.04496e-17)
(5.5727 6.93585 0)
(5.37661 6.64457 -5.9931e-18)
(5.05786 6.39983 -3.99394e-18)
(4.72836 6.1385 0)
(4.37833 5.87604 0)
(4.03666 5.65248 0)
(3.75542 5.52014 0)
(3.532 5.49275 -1.63142e-17)
(3.33875 5.55297 -6.1492e-18)
(3.1677 5.64179 0)
(2.95543 5.63821 -5.65448e-18)
(2.72439 5.59105 0)
(2.64427 5.90122 -2.45658e-18)
(2.7071 6.05327 -3.94843e-19)
(1.46671 6.12911 2.20809e-18)
(5.21163 5.58819 -2.02727e-17)
(6.12027 7.9644 -1.45308e-17)
(6.33155 7.39223 -1.0758e-17)
(5.85731 7.61242 -1.43139e-17)
(5.87758 7.12741 -9.59261e-18)
(5.46354 7.0496 0)
(5.27993 6.74553 -1.07892e-18)
(4.96523 6.49794 5.24751e-19)
(4.64638 6.23126 -1.1951e-18)
(4.30852 5.96374 0)
(3.98752 5.74012 9.63753e-19)
(3.73194 5.60586 -1.09566e-18)