/*--------------------------------*- C++ -*----------------------------------*\
| =========                 |                                                 |
| \\      /  F ield         | OpenFOAM: The Open Source CFD Toolbox           |
|  \\    /   O peration     | Version:  2412                                  |
|   \\  /    A nd           | Website:  www.openfoam.com                      |
|    \\/     M anipulation  |                                                 |
\*---------------------------------------------------------------------------*/
FoamFile
{
    version     2.0;
    format      ascii;
    arch        "LSB;label=32;scalar=64";
    class       volScalarField;
    location    "6.25";
    object      p;
}
// * * * * * * * * * * * * * * * * * * * * * * * * * * * * * * * * * * * * * //

dimensions      [0 2 -2 0 0 0 0];

internalField   nonuniform List<scalar> 
2200
(
0.0351029
0.0351049
0.0357664
0.0385752
0.0459726
0.0628504
0.0947702
0.149066
0.236288
0.362921
0.502577
0.616862
0.694436
0.743345
0.771283
0.786557
0.794343
0.797648
0.799049
0.7994
0.0291678
0.029414
0.0308765
0.0346711
0.0435625
0.0617168
0.0945619
0.150424
0.237854
0.364626
0.505474
0.620601
0.696929
0.744136
0.771502
0.785868
0.792703
0.795387
0.796077
0.796256
0.0218501
0.0217877
0.0237478
0.0289262
0.039961
0.060211
0.0957586
0.154689
0.243491
0.373214
0.514788
0.629264
0.705185
0.751328
0.777104
0.789455
0.795223
0.797635
0.797929
0.798424
0.0138128
0.0136812
0.0158997
0.0220065
0.0345785
0.0580369
0.097853
0.158784
0.24987
0.384046
0.527841
0.64302
0.720241
0.765292
0.788044
0.797956
0.802447
0.804809
0.805703
0.806028
0.00324466
0.00331898
0.00434318
0.00894842
0.0229282
0.0507866
0.0937383
0.160077
0.257833
0.395438
0.5433
0.66273
0.738421
0.78011
0.800719
0.809818
0.813849
0.81652
0.818357
0.818807
-0.0122269
-0.0124873
-0.0133321
-0.0106111
0.00197418
0.0291791
0.0770873
0.152378
0.260999
0.408492
0.562505
0.683932
0.758344
0.798377
0.817977
0.82914
0.835668
0.839237
0.842173
0.842932
-0.0277756
-0.0287376
-0.0289304
-0.0251011
-0.0161097
0.00620883
0.0546918
0.134818
0.251532
0.413317
0.578344
0.704008
0.782791
0.827613
0.850526
0.86575
0.875496
0.87859
0.884015
0.885272
-0.0363776
-0.0377826
-0.0365859
-0.0305641
-0.0239139
-0.00739005
0.0362933
0.114057
0.236646
0.413793
0.592759
0.729279
0.816831
0.87086
0.903513
0.925162
0.937526
0.940202
0.943776
0.946032
-0.0402892
-0.0419117
-0.0401204
-0.034108
-0.0276439
-0.0113715
0.0256906
0.0963762
0.223449
0.417409
0.613749
0.765959
0.868241
0.938178
0.985135
1.01185
1.02524
1.03222
1.03331
1.03612
-0.0483045
-0.049884
-0.0480818
-0.0428576
-0.0317084
-0.00917851
0.0271946
0.0957106
0.224268
0.428354
0.647363
0.826007
0.951194
1.04048
1.09731
1.12421
1.1365
1.14697
1.14598
1.14928
-0.0661824
-0.0676991
-0.0666317
-0.0631033
-0.0454062
-0.0113404
0.0357405
0.116164
0.253173
0.464726
0.709919
0.923986
1.07301
1.16876
1.22565
1.25002
1.26138
1.27217
1.27164
1.27527
-0.0997645
-0.100854
-0.0992991
-0.0954191
-0.0725712
-0.0287983
0.0385414
0.147079
0.307827
0.539692
0.815648
1.06136
1.22609
1.31854
1.36554
1.38825
1.39922
1.41069
1.41204
1.4154
-0.149444
-0.150765
-0.149142
-0.145102
-0.118464
-0.0672166
0.0263624
0.171829
0.371305
0.650191
0.964143
1.22981
1.39716
1.48098
1.51591
1.54359
1.55507
1.56897
1.57318
1.57619
-0.216922
-0.218406
-0.217646
-0.213481
-0.188314
-0.133379
-0.0206468
0.164041
0.42391
0.776018
1.13774
1.4135
1.57607
1.65245
1.68994
1.72315
1.74015
1.75416
1.76272
1.76607
-0.289093
-0.291773
-0.29503
-0.290417
-0.267745
-0.214938
-0.0916026
0.120549
0.445536
0.884689
1.30624
1.59777
1.76188
1.85235
1.90642
1.94726
1.97047
1.98762
2.00001
2.00384
-0.363812
-0.365601
-0.368006
-0.363233
-0.339237
-0.28118
-0.152732
0.0667952
0.433111
0.946045
1.4385
1.77893
1.97848
2.10746
2.18668
2.23384
2.26676
2.28434
2.29594
2.30045
-0.436572
-0.439512
-0.443242
-0.437664
-0.408758
-0.344749
-0.215461
0.0148634
0.411945
0.976952
1.55195
1.98347
2.2527
2.4275
2.53468
2.58695
2.62232
2.64292
2.6544
2.6584
-0.526631
-0.527838
-0.529975
-0.526469
-0.495236
-0.418645
-0.281494
-0.0259456
0.409973
1.03175
1.69953
2.24038
2.59211
2.81279
2.93794
2.99628
3.03578
3.05833
3.07028
3.07462
-0.658541
-0.659605
-0.660466
-0.656091
-0.619945
-0.522173
-0.35396
-0.052566
0.445557
1.15621
1.93723
2.5854
3.0134
3.26041
3.39166
3.46066
3.5035
3.52976
3.54286
3.54694
-0.836252
-0.838299
-0.839442
-0.833557
-0.798147
-0.685361
-0.462935
-0.0754049
0.537125
1.38943
2.30631
3.04022
3.51096
3.76126
3.89797
3.97728
4.02445
4.05442
4.0698
4.07513
-1.08471
-1.08521
-1.08464
-1.07712
-1.03061
-0.901074
-0.620993
-0.115242
0.669877
1.71833
2.78971
3.58642
4.06504
4.31597
4.46218
4.55457
4.6068
4.64276
4.66154
4.66637
-1.41768
-1.41958
-1.41912
-1.40514
-1.34308
-1.1806
-0.84002
-0.223051
0.756787
2.03139
3.26999
4.1334
4.63827
4.93277
5.1034
5.20761
5.26635
5.30355
5.32408
5.33126
-1.86839
-1.86603
-1.85982
-1.83899
-1.75138
-1.54171
-1.12414
-0.398029
0.754277
2.21942
3.63508
4.63993
5.25175
5.62607
5.81983
5.93491
5.99815
6.0388
6.0638
6.07024
-2.49067
-2.48652
-2.46921
-2.41845
-2.28
-1.97989
-1.44127
-0.56773
0.754857
2.38971
4.01041
5.22356
5.96838
6.3923
6.60007
6.72167
6.79161
6.83486
6.8574
6.86225
-3.36639
-3.34257
-3.2914
-3.18123
-2.94136
-2.50033
-1.77473
-0.671423
0.901913
2.77686
4.60925
5.97715
6.78918
7.21889
7.43693
7.5635
7.63729
7.67627
7.70641
7.70868
-4.56319
-4.49986
-4.35381
-4.11799
-3.72735
-3.09681
-2.12359
-0.710619
1.20155
3.36701
5.39804
6.85345
7.68295
8.11139
8.34702
8.47111
8.54525
8.58945
8.61182
8.61287
-6.13187
-5.93462
-5.58664
-5.15705
-4.57652
-3.70732
-2.45357
-0.715709
1.52108
4.00582
6.31509
7.90403
8.79843
9.27993
9.55866
9.70193
9.78421
9.83138
9.85791
9.85724
-8.00159
-7.46757
-6.87292
-6.25524
-5.44712
-4.31131
-2.77528
-0.724526
1.81263
4.63561
7.3013
9.12474
10.138
10.7304
11.0577
11.2654
11.4063
11.5025
11.5682
11.5696
-9.68797
-8.94329
-8.16778
-7.3554
-6.31236
-4.91482
-3.076
-0.6896
2.15703
5.30731
8.32038
10.3523
11.4652
12.151
12.5539
12.8176
13.0005
13.122
13.2099
13.2173
-11.0167
-10.1758
-9.31201
-8.34915
-7.11757
-5.47945
-3.33368
-0.593738
2.57533
6.04442
9.34677
11.5138
12.7565
13.5016
13.9749
14.2755
14.4874
14.6497
14.7709
14.7882
-12.1377
-11.2046
-10.2744
-9.18555
-7.79083
-5.9583
-3.55109
-0.484681
2.99891
6.75062
10.2665
12.5687
13.9281
14.7133
15.2285
15.5837
15.8252
15.9883
16.1127
16.1343
-13.0208
-12.0326
-11.0766
-9.8784
-8.34841
-6.35321
-3.71836
-0.396075
3.35139
7.33457
11.0136
13.457
14.8948
15.7283
16.2631
16.6284
16.8903
17.0908
17.2444
17.2778
-13.7992
-12.6765
-11.6999
-10.4436
-8.8152
-6.6701
-3.82689
-0.31959
3.61413
7.7716
11.5969
14.161
15.6559
16.5266
17.0764
17.4736
17.7747
18.0091
18.1978
18.242
-14.3513
-13.1559
-12.1953
-10.9135
-9.19062
-6.89513
-3.88743
-0.249554
3.79897
8.09508
12.0411
14.6956
16.2206
17.1261
17.7227
18.1553
18.4854
18.7354
18.94
18.9846
-14.8315
-13.5518
-12.5899
-11.2531
-9.44895
-7.03814
-3.91806
-0.200707
3.91618
8.33065
12.357
15.0667
16.6222
17.5776
18.2168
18.6866
19.053
19.3335
19.5515
19.5948
-15.2247
-13.9089
-12.8786
-11.4634
-9.58934
-7.10579
-3.93391
-0.193221
3.97522
8.48251
12.5541
15.3029
16.9072
17.9249
18.62
19.1422
19.5352
19.8182
20.0722
20.1019
-15.5333
-14.187
-13.1024
-11.5761
-9.62965
-7.11356
-3.94501
-0.224099
3.98895
8.55559
12.6511
15.436
17.1055
18.2052
18.9622
19.5226
19.9675
20.2521
20.5112
20.5524
-15.7947
-14.4456
-13.2535
-11.6099
-9.60967
-7.09011
-3.95658
-0.267917
3.97457
8.56781
12.6745
15.5003
17.2532
18.4354
19.264
19.8511
20.3373
20.6441
20.9178
20.9571
-16.0263
-14.6462
-13.3544
-11.621
-9.57214
-7.06381
-3.96749
-0.298209
3.95039
8.54336
12.6511
15.5241
17.3671
18.6186
19.5214
20.1568
20.6747
21.0226
21.2844
21.3317
-16.2002
-14.7971
-13.437
-11.6338
-9.55729
-7.05635
-3.97316
-0.306009
3.93004
8.50177
12.599
15.5126
17.4426
18.7512
19.7229
20.4338
20.9799
21.3657
21.6398
21.6808
-16.3926
-14.9525
-13.5052
-11.6685
-9.58709
-7.06983
-3.97465
-0.300269
3.91745
8.44987
12.524
15.472
17.4552
18.8508
19.883
20.6617
21.2583
21.678
21.9684
22.0149
-16.55
-15.0839
-13.6043
-11.7631
-9.65835
-7.10321
-3.98163
-0.295688
3.90311
8.38363
12.4292
15.3881
17.4154
18.8929
20.0086
20.8552
21.513
21.9761
22.2847
22.3318
-16.697
-15.2414
-13.7594
-11.9026
-9.76313
-7.16241
-4.00868
-0.308043
3.86826
8.29289
12.3033
15.2564
17.3234
18.8813
20.0911
21.0237
21.7484
22.2545
22.5812
22.617
-16.9163
-15.444
-13.9428
-12.0722
-9.89705
-7.25247
-4.06819
-0.353922
3.79565
8.16844
12.1362
15.0791
17.1872
18.8231
20.133
21.162
21.9632
22.5211
22.8695
22.8768
-17.1671
-15.6496
-14.1354
-12.2551
-10.0581
-7.37697
-4.17035
-0.448206
3.675
8.00642
11.9314
14.8681
17.0189
18.7246
20.1246
21.2601
22.1656
22.7827
23.1139
23.1313
-17.455
-15.9104
-14.3749
-12.4714
-10.2453
-7.53983
-4.32275
-0.599825
3.5031
7.80837
11.7006
14.6372
16.8239
18.5826
20.0612
21.2986
22.3196
23.0489
23.4092
23.2366
-17.7818
-16.2116
-14.6766
-12.7214
-10.4563
-7.7375
-4.51992
-0.801542
3.28788
7.57881
11.4475
14.3827
16.5902
18.3822
19.9168
21.2505
22.4148
23.3254
23.8787
23.8726
-18.1127
-16.4841
-14.9315
-12.9376
-10.6796
-7.95426
-4.74471
-1.03536
3.04206
7.32047
11.1676
14.09
16.2942
18.093
19.654
21.0437
22.2973
23.3732
23.8147
23.7046
-18.4112
-16.7142
-15.1137
-13.1251
-10.9011
-8.17218
-4.97512
-1.27627
2.78763
7.04877
10.8672
13.7579
15.9312
17.7054
19.2488
20.6256
21.8429
22.7349
23.0235
22.9908
-18.6819
-17.0108
-15.4322
-13.4032
-11.11
-8.39381
-5.19959
-1.51353
2.53347
6.76869
10.5452
13.3823
15.4987
17.2146
18.6873
19.9645
21.0295
21.5936
21.7766
21.856
-18.9656
-17.4044
-15.8675
-13.7087
-11.3268
-8.62712
-5.41884
-1.74524
2.28106
6.47985
10.1987
12.9623
14.9963
16.6174
17.965
19.0754
19.9354
20.3917
20.5101
20.6835
-19.2538
-17.6967
-16.0921
-13.9026
-11.5876
-8.85801
-5.64177
-1.97586
2.02441
6.17531
9.82315
12.4985
14.4259
15.9138
17.0976
18.0285
18.7067
19.0486
19.0784
19.3547
-19.4735
-17.8643
-16.2096
-14.1213
-11.8575
-9.07696
-5.8669
-2.20499
1.76049
5.85141
9.41767
11.9946
13.7933
15.1135
16.1102
16.8503
17.2906
17.4977
17.5592
17.8728
-19.6827
-18.1503
-16.5639
-14.4662
-12.0752
-9.30099
-6.07632
-2.42614
1.49453
5.51321
8.99015
11.4619
13.1164
14.2454
15.0376
15.588
15.8332
15.7958
15.6576
15.8563
-19.98
-18.472
-16.8759
-14.6986
-12.2649
-9.51181
-6.26038
-2.6375
1.23066
5.16711
8.55039
10.9143
12.422
13.3514
13.9192
14.2627
14.2982
13.7309
12.7785
12.8526
-20.2422
-18.6213
-16.9233
-14.7788
-12.4462
-9.66488
-6.42668
-2.83846
0.970565
4.81897
8.10679
10.3645
11.7366
12.4787
12.8015
12.856
12.6767
11.6055
9.37574
7.39157
-20.422
-18.7568
-17.046
-14.9319
-12.5892
-9.78525
-6.5801
-3.02721
0.718379
4.48012
7.6735
9.83101
11.0867
11.6741
11.7646
11.4777
10.971
9.9504
6.16168
-3.87084
-20.6598
-19.0025
-17.2898
-15.1151
-12.7
-9.91336
-6.7172
-3.20611
0.476352
4.15427
7.25044
9.30965
10.4672
10.9409
10.8585
10.3366
9.61726
8.95533
8.35674
4.46313
-20.9102
-19.2235
-17.4479
-15.2274
-12.8161
-10.0365
-6.84881
-3.3866
0.234595
3.83067
6.82825
8.79415
9.87519
10.2913
10.1777
9.73837
9.16788
9.15872
10.0522
9.14394
-21.1081
-19.393
-17.5943
-15.3547
-12.9433
-10.1475
-6.98819
-3.57198
-0.0101389
3.50795
6.41352
8.30332
9.34221
9.77587
9.78483
9.58434
9.31444
9.22768
9.69185
9.21834
-21.3118
-19.6071
-17.8042
-15.5267
-13.0775
-10.2734
-7.13869
-3.76366
-0.259307
3.18644
6.01411
7.85586
8.89393
9.40754
9.60795
9.57177
9.39806
9.17746
9.28597
9.22676
-21.5296
-19.8292
-17.9971
-15.6819
-13.2182
-10.4156
-7.29748
-3.96342
-0.512483
2.86823
5.63942
7.4681
8.54484
9.15581
9.48464
9.58853
9.48485
9.25849
9.37308
9.41356
-21.7218
-20.0323
-18.162
-15.8268
-13.3634
-10.5623
-7.4628
-4.1686
-0.767615
2.55769
5.29883
7.14948
8.28809
8.98803
9.40477
9.62188
9.62424
9.4903
9.59742
9.63292
-21.8835
-20.2133
-18.3178
-15.9646
-13.5147
-10.7103
-7.6306
-4.37688
-1.0207
2.26226
4.99822
6.8999
8.1116
8.88782
9.3797
9.69485
9.82636
9.78542
9.85335
9.8666
-22.0159
-20.382
-18.4567
-16.0795
-13.6559
-10.8473
-7.79292
-4.58213
-1.26291
1.99062
4.73927
6.71178
8.00555
8.85669
9.41992
9.82412
10.0801
10.1125
10.1616
10.1761
-22.0586
-20.4681
-18.548
-16.1622
-13.793
-10.9528
-7.93882
-4.77811
-1.48408
1.75114
4.52159
6.57294
7.96208
8.90542
9.53834
10.0147
10.3953
10.5134
10.5661
10.5971
-22.0182
-20.5023
-18.5562
-16.2316
-13.8864
-10.9977
-8.06922
-4.95292
-1.67259
1.5463
4.34597
6.47572
7.9682
9.02262
9.74809
10.3109
10.7769
11.0462
11.1578
11.1959
-21.8399
-20.4255
-18.5022
-16.2528
-13.8345
-11.0153
-8.18192
-5.08382
-1.8274
1.37205
4.21157
6.41447
8.01451
9.19028
10.0491
10.7126
11.2645
11.6736
11.8629
11.9119
-21.5521
-20.2559
-18.3365
-16.1183
-13.7098
-11.0387
-8.22587
-5.16157
-1.96125
1.22728
4.11024
6.38106
8.08662
9.39566
10.3854
11.1513
11.7718
12.2466
12.495
12.549
-21.0354
-19.8691
-18.0206
-15.8868
-13.5606
-10.9897
-8.21188
-5.20715
-2.07607
1.10069
4.0178
6.35047
8.14487
9.56683
10.6638
11.486
12.1195
12.5945
12.8708
12.94
-20.3254
-19.3379
-17.5694
-15.5435
-13.3331
-10.8541
-8.14999
-5.2304
-2.17057
0.977442
3.90491
6.27777
8.12527
9.60036
10.7261
11.5369
12.1523
12.6311
12.9379
13.0233
-19.3734
-18.591
-17.0094
-15.1447
-13.0446
-10.6653
-8.05439
-5.22959
-2.25012
0.839726
3.73941
6.10734
7.94005
9.37414
10.459
11.2562
11.8714
12.3577
12.6779
12.78
-18.2726
-17.7627
-16.3823
-14.6662
-12.6888
-10.426
-7.92343
-5.20491
-2.3268
0.667939
3.48473
5.7713
7.51223
8.87248
9.93145
10.7375
11.3585
11.8371
12.1607
12.2808
-17.3015
-17.0645
-15.8513
-14.2344
-12.3371
-10.1632
-7.75898
-5.1596
-2.41308
0.441188
3.11182
5.26214
6.9078
8.22802
9.28107
10.0829
10.6932
11.1591
11.4855
11.6268
-16.6291
-16.5093
-15.3608
-13.8016
-11.9531
-9.85277
-7.55824
-5.10063
-2.51645
0.156901
2.64697
4.66735
6.23867
7.50341
8.49408
9.24518
9.82784
10.2808
10.6113
10.7827
-16.1845
-16.0645
-15.0421
-13.439
-11.5406
-9.48413
-7.30604
-5.00739
-2.61338
-0.145222
2.16195
4.0436
5.48899
6.62301
7.48825
8.14492
8.65469
9.0507
9.34636
9.52089
-15.4841
-15.434
-14.5094
-12.8869
-11.0166
-9.02241
-6.96969
-4.84785
-2.65785
-0.389262
1.74854
3.47202
4.75669
5.74358
6.49331
7.04292
7.44496
7.73801
7.93932
8.05501
-14.03
-14.0762
-13.2377
-11.7018
-10.011
-8.25071
-6.44774
-4.56739
-2.60337
-0.547185
1.39155
2.9309
4.05795
4.91364
5.5701
6.02859
6.34372
6.55246
6.67635
6.73772
-11.4684
-11.5702
-11.0626
-9.87404
-8.58328
-7.17915
-5.69879
-4.12199
-2.43285
-0.646386
1.03468
2.355
3.31054
4.02632
4.5666
4.92647
5.16079
5.30744
5.38955
5.4246
-8.34145
-8.37262
-8.13916
-7.60464
-6.85297
-5.86153
-4.75904
-3.52363
-2.15622
-0.684621
0.71803
1.8234
2.61658
3.19774
3.62257
3.89788
4.07253
4.17946
4.23875
4.26653
-5.26332
-5.28627
-5.24036
-5.10467
-4.84535
-4.36202
-3.68703
-2.80837
-1.78495
-0.64062
0.483267
1.3863
2.02884
2.48414
2.81112
3.02603
3.16256
3.24813
3.30111
3.32878
-2.80546
-2.83423
-2.87002
-2.92778
-2.94219
-2.82923
-2.55137
-2.02313
-1.34022
-0.510295
0.346947
1.06068
1.56718
1.91285
2.16507
2.33968
2.45656
2.53573
2.58708
2.61903
-1.28027
-1.30304
-1.34557
-1.42289
-1.49514
-1.52696
-1.49101
-1.26663
-0.877671
-0.32019
0.302344
0.845808
1.23721
1.50016
1.70164
1.84633
1.94807
2.02076
2.06289
2.08401
-0.444806
-0.474882
-0.544269
-0.614097
-0.653208
-0.682406
-0.706471
-0.638825
-0.457549
-0.105947
0.326855
0.726063
1.02853
1.23473
1.40119
1.51967
1.60369
1.6658
1.69724
1.71
-0.0512793
-0.0812706
-0.161868
-0.239831
-0.271667
-0.280722
-0.275139
-0.227209
-0.137906
0.0919757
0.386145
0.67398
0.909667
1.07484
1.21348
1.30646
1.36992
1.41665
1.43703
1.44415
0.110466
0.0885418
0.0173858
-0.0680618
-0.11325
-0.124036
-0.0993292
-0.0282747
0.0487445
0.229797
0.442409
0.656777
0.843597
0.971113
1.08595
1.157
1.19422
1.22197
1.23321
1.23728
0.158389
0.144862
0.0936461
0.0267921
-0.0193903
-0.0461522
-0.0355527
0.0303031
0.121428
0.291062
0.471104
0.64357
0.79636
0.884974
0.973719
1.02641
1.04088
1.05113
1.0532
1.05484
0.169873
0.161233
0.129861
0.0890713
0.0538589
0.0136729
0.00114879
0.0441195
0.132057
0.297657
0.464753
0.605635
0.736462
0.788363
0.842577
0.877266
0.881743
0.885937
0.88143
0.882481
0.188621
0.183382
0.162082
0.135706
0.113155
0.0738288
0.0509168
0.0740395
0.142667
0.278268
0.424072
0.525064
0.641177
0.670064
0.689796
0.71071
0.717181
0.723779
0.719044
0.720331
0.212084
0.210376
0.195839
0.179572
0.171286
0.147907
0.131106
0.138773
0.169697
0.251431
0.360155
0.423969
0.515729
0.538112
0.547316
0.558795
0.565033
0.572722
0.571201
0.573359
0.232155
0.232087
0.225521
0.21927
0.223
0.220289
0.219207
0.2181
0.20405
0.234087
0.302611
0.341795
0.39418
0.416969
0.433403
0.445556
0.447414
0.451272
0.448879
0.450241
0.253
0.252536
0.248733
0.2467
0.253073
0.255028
0.262239
0.265111
0.240856
0.246511
0.275206
0.293244
0.317111
0.334964
0.353367
0.363634
0.362139
0.362473
0.357436
0.357156
0.275928
0.273484
0.265616
0.258113
0.254605
0.244451
0.246367
0.256872
0.255169
0.26674
0.271677
0.273589
0.285788
0.296798
0.302913
0.304768
0.29876
0.295771
0.287483
0.285607
0.283892
0.280679
0.268318
0.253659
0.240175
0.218546
0.21129
0.217112
0.229485
0.253798
0.259147
0.262481
0.270227
0.270694
0.264914
0.259997
0.248686
0.241837
0.230827
0.227769
0.265141
0.262245
0.250328
0.236083
0.22331
0.20269
0.192185
0.188152
0.189418
0.210238
0.224675
0.235005
0.238795
0.23392
0.223052
0.21683
0.203622
0.196258
0.184745
0.18138
0.228749
0.226876
0.219236
0.211619
0.205888
0.193649
0.18569
0.174884
0.163146
0.169725
0.180583
0.190512
0.189857
0.187569
0.17707
0.172859
0.160505
0.155487
0.146022
0.143125
0.194203
0.192822
0.188595
0.185531
0.183133
0.177358
0.173363
0.164109
0.151351
0.146289
0.144569
0.149469
0.145158
0.143839
0.134884
0.132902
0.122878
0.120347
0.113051
0.110434
0.166139
0.164629
0.161144
0.158275
0.154519
0.15038
0.145906
0.145443
0.13668
0.13159
0.12045
0.119745
0.112904
0.110782
0.102641
0.101699
0.0929167
0.0907511
0.0850843
0.0826661
0.136236
0.134625
0.13115
0.12786
0.121913
0.117606
0.110533
0.114184
0.107261
0.111652
0.098813
0.0961967
0.0883741
0.0871124
0.0779873
0.0772193
0.0683464
0.0667253
0.0617293
0.0591245
0.0997918
0.0977058
0.0948957
0.0925864
0.086745
0.0851806
0.0758056
0.0789429
0.0699062
0.0809526
0.0717798
0.0727807
0.0647419
0.0655645
0.0557793
0.056067
0.047492
0.0456341
0.0417671
0.0391899
0.0589867
0.0572372
0.0565063
0.0567913
0.0505611
0.0525403
0.0428167
0.0485618
0.0360985
0.0472024
0.0386032
0.0457869
0.0373239
0.0410423
0.0317
0.0344089
0.0273933
0.027299
0.0250644
0.0229083
0.0224854
0.021876
0.0225772
0.0225639
0.0149329
0.0206335
0.010558
0.019227
0.00709229
0.0163569
0.00715707
0.0161338
0.0081491
0.0147818
0.00706016
0.0122299
0.00730764
0.0083998
0.00842395
0.00674908
12.8953
17.133
18.2173
19.5881
20.7019
21.6901
22.5489
23.2593
23.7236
23.8167
17.4909
19.5493
20.2316
21.0991
21.8491
22.4893
23.0159
23.4113
23.6221
23.6131
19.9534
20.9715
21.4897
22.0255
22.4956
22.8938
23.2078
23.4318
23.5487
23.566
21.3117
21.9427
22.2757
22.6124
22.8949
23.1298
23.3111
23.4367
23.5082
23.5358
22.208
22.533
22.7397
22.9439
23.1182
23.2631
23.3739
23.4508
23.4939
23.5229
22.6978
22.9168
23.0332
23.1647
23.2687
23.3541
23.4225
23.4733
23.5046
23.5298
23.0183
23.1598
23.2168
23.3001
23.3674
23.4245
23.471
23.5078
23.5313
23.5559
23.2265
23.3133
23.3541
23.4067
23.4536
23.4938
23.5281
23.556
23.5767
23.5971
23.3799
23.4365
23.4677
23.5003
23.534
23.5637
23.5883
23.6103
23.6265
23.6464
23.5075
23.5431
23.5683
23.5912
23.613
23.6337
23.6515
23.6689
23.6822
23.7003
23.6205
23.6427
23.6604
23.6749
23.6901
23.7049
23.7187
23.7333
23.7436
23.7613
23.7174
23.7304
23.7464
23.7602
23.7734
23.7857
23.7964
23.8062
23.8114
23.8229
23.8119
23.8236
23.8384
23.8499
23.8589
23.8666
23.874
23.8805
23.881
23.889
23.9129
23.9183
23.9277
23.9328
23.9365
23.941
23.9467
23.9536
23.9577
23.9671
24.0275
24.0139
24.0064
24.0007
23.998
23.9996
24.0067
24.0202
24.0346
24.0634
24.1494
24.094
24.063
24.0455
24.0372
24.0373
24.0459
24.0652
24.0967
24.1665
)
;

boundaryField
{
    wall-4
    {
        type            zeroGradient;
    }
    pressure-outlet-7
    {
        type            fixedValue;
        value           uniform 0;
    }
    velocity-inlet-6
    {
        type            zeroGradient;
    }
    velocity-inlet-5
    {
        type            zeroGradient;
    }
    frontAndBackPlanes
    {
        type            empty;
    }
}


// ************************************************************************* //
