/*--------------------------------*- C++ -*----------------------------------*\
| =========                 |                                                 |
| \\      /  F ield         | OpenFOAM: The Open Source CFD Toolbox           |
|  \\    /   O peration     | Version:  2412                                  |
|   \\  /    A nd           | Website:  www.openfoam.com                      |
|    \\/     M anipulation  |                                                 |
\*---------------------------------------------------------------------------*/
FoamFile
{
    version     2.0;
    format      ascii;
    arch        "LSB;label=32;scalar=64";
    class       surfaceScalarField;
    location    "6.25";
    object      phi;
}
// * * * * * * * * * * * * * * * * * * * * * * * * * * * * * * * * * * * * * //

dimensions      [0 3 -1 0 0 0 0];

oriented        oriented;

internalField   nonuniform List<scalar> 
4262
(
0.000171742
0.220341
-0.00136376
0.830189
-0.00297381
1.76875
-0.00464426
3.16684
-0.00675753
5.18672
-0.00834008
8.01595
-0.0100592
11.8489
-0.0117512
16.8214
-0.0134767
22.8835
-0.0130185
29.5279
-0.0118317
29.5272
-0.0100774
22.8801
-0.00891238
16.8186
-0.00761726
11.8458
-0.00638842
8.01314
-0.0052183
5.18343
-0.00407342
3.16402
-0.00376558
1.76684
-0.00319773
0.828085
0.217315
-0.00229431
0.222635
-0.00477096
0.832665
-0.00861685
1.7726
-0.0131064
3.17133
-0.019865
5.19348
-0.0266804
8.02276
-0.031404
11.8536
-0.036621
16.8266
-0.0409618
22.8879
-0.0391512
29.5261
-0.035741
29.5238
-0.0315279
22.8759
-0.0269964
16.814
-0.0210643
11.8399
-0.0167458
8.00882
-0.0134268
5.18011
-0.00973828
3.16033
-0.00691857
1.76402
-0.00288229
0.824049
0.214433
-0.00572645
0.228362
-0.00988992
0.836829
-0.0167315
1.77944
-0.0255092
3.1801
-0.0339301
5.2019
-0.0414891
8.03032
-0.0502037
11.8623
-0.0563748
16.8328
-0.063895
22.8954
-0.0625223
29.5247
-0.0574854
29.5187
-0.0494839
22.8679
-0.0408558
16.8054
-0.033579
11.8326
-0.025167
8.00041
-0.0182583
5.17321
-0.012481
3.15456
-0.00572593
1.75726
0.000214487
0.818109
0.214647
-0.0105689
0.23893
-0.0185614
0.844821
-0.0292222
1.7901
-0.0413622
3.19224
-0.0520317
5.21257
-0.060696
8.03899
-0.0725794
11.8742
-0.0807146
16.841
-0.0897775
22.9045
-0.0850693
29.52
-0.0769571
29.5106
-0.0681812
22.8591
-0.0544385
16.7917
-0.0425824
11.8208
-0.0307668
7.98859
-0.0217775
5.16422
-0.0137505
3.14653
-0.00623044
1.74974
0.00133614
0.810542
0.215983
-0.0147012
0.253632
-0.0250238
0.855144
-0.0394741
1.80455
-0.0552244
3.20799
-0.0705264
5.22787
-0.0819199
8.05038
-0.0927946
11.8851
-0.100141
16.8483
-0.111279
22.9156
-0.107807
29.5165
-0.0990348
29.5018
-0.0845723
22.8446
-0.064984
16.7721
-0.0483115
11.8041
-0.0333102
7.97359
-0.0222576
5.15316
-0.0134009
3.13767
-0.00668493
1.74302
0.0017226
0.802134
0.217706
-0.0149199
0.268552
-0.0294587
0.869682
-0.0498264
1.82492
-0.0719176
3.23009
-0.0928417
5.24879
-0.107261
8.0648
-0.117746
11.8955
-0.12819
16.8587
-0.136999
22.9244
-0.129458
29.509
-0.116264
29.4886
-0.0962998
22.8246
-0.0739101
16.7497
-0.0505693
11.7808
-0.0326612
7.95568
-0.0191347
5.13964
-0.00914169
3.12768
-0.00248504
1.73637
0.00207295
0.797576
0.219779
-0.0158788
0.28443
-0.0407837
0.894587
-0.0643019
1.84844
-0.0857034
3.25149
-0.109321
5.27241
-0.133814
8.08929
-0.144717
11.9064
-0.155283
16.8693
-0.16432
22.9335
-0.15316
29.4978
-0.135422
29.4709
-0.10769
22.7969
-0.0809813
16.723
-0.0539704
11.7538
-0.0346964
7.93641
-0.0196505
5.12459
-0.00711116
3.11514
0.00131541
1.72794
0.000846247
0.798045
0.220625
-0.0212138
0.305644
-0.0576103
0.930984
-0.0775286
1.86836
-0.0963128
3.27027
-0.121198
5.29729
-0.146918
8.11501
-0.168287
11.9278
-0.185863
16.8869
-0.193767
22.9414
-0.175739
29.4798
-0.15059
29.4458
-0.118585
22.7649
-0.0903842
16.6948
-0.0617741
11.7251
-0.0408821
7.91551
-0.020538
5.10425
-0.00231871
3.09692
0.0107223
1.7149
0.00261187
0.806156
0.223237
-0.0277772
0.333421
-0.0698913
0.973098
-0.0859985
1.88446
-0.106912
3.29118
-0.131107
5.32149
-0.161729
8.14563
-0.189938
11.956
-0.213973
16.9109
-0.225881
22.9533
-0.203752
29.4577
-0.170681
29.4127
-0.134417
22.7286
-0.105479
16.6658
-0.0752888
11.695
-0.0471937
7.88742
-0.0211346
5.07819
0.00133679
3.07445
0.0241375
1.6921
0.00818967
0.822104
0.231426
-0.0320212
0.365443
-0.0803466
1.02142
-0.0962351
1.90035
-0.120758
3.31571
-0.147041
5.34777
-0.175569
8.17416
-0.208648
11.9891
-0.23757
16.9398
-0.257581
22.9733
-0.232182
29.4323
-0.194788
29.3753
-0.158975
22.6928
-0.12658
16.6334
-0.0936062
11.662
-0.0585775
7.85239
-0.0274707
5.04708
-0.00180622
3.04878
0.0264329
1.66386
0.00981484
0.838722
0.241241
-0.0339035
0.399346
-0.0844517
1.07197
-0.104807
1.92071
-0.138924
3.34982
-0.168369
5.37722
-0.199848
8.20564
-0.233491
12.0227
-0.259313
16.9657
-0.286746
23.0007
-0.267019
29.4125
-0.232215
29.3405
-0.193143
22.6538
-0.149289
16.5896
-0.10597
11.6187
-0.0651152
7.81154
-0.0310469
5.01301
-0.00635128
3.02409
0.0216659
1.63584
0.00730285
0.853085
0.248544
-0.0345652
0.433911
-0.0882748
1.12568
-0.117956
1.95039
-0.16319
3.39506
-0.199792
5.41382
-0.23454
8.24039
-0.265691
12.0539
-0.293173
16.9931
-0.319516
23.0271
-0.302044
29.3951
-0.267203
29.3056
-0.220284
22.6068
-0.165221
16.5345
-0.113061
11.5665
-0.06994
7.76841
-0.0307279
4.9738
-0.00570882
2.99907
0.0178039
1.61233
0.00511684
0.865772
0.253661
-0.037571
0.471482
-0.0970487
1.18516
-0.135214
1.98855
-0.182428
3.44227
-0.224799
5.45619
-0.273019
8.28861
-0.310616
12.0915
-0.339065
17.0216
-0.361989
23.05
-0.344509
29.3776
-0.309626
29.2708
-0.249592
22.5468
-0.179467
16.4644
-0.11353
11.5006
-0.0672911
7.72218
-0.0319331
4.93844
-0.00413271
2.97127
0.0149241
1.59327
0.00323534
0.877461
0.256896
-0.0394739
0.510956
-0.0995687
1.24525
-0.151641
2.04063
-0.205084
3.49572
-0.268901
5.52001
-0.32662
8.34633
-0.368262
12.1331
-0.398835
17.0522
-0.419268
23.0704
-0.392078
29.3504
-0.340337
29.219
-0.259148
22.4656
-0.17947
16.3847
-0.113948
11.435
-0.0677215
7.67595
-0.0321999
4.90292
0.00770639
2.93136
0.0197363
1.58124
0.00492514
0.892272
0.261821
-0.0533368
0.564293
-0.130941
1.32286
-0.196337
2.10602
-0.244059
3.54344
-0.311822
5.58777
-0.378219
8.41273
-0.436596
12.1915
-0.479111
17.0947
-0.49377
23.0851
-0.44749
29.3041
-0.370273
29.1418
-0.276067
22.3714
-0.187599
16.2963
-0.113014
11.3605
-0.0525771
7.61551
-0.0180357
4.86838
0.0258817
2.88745
0.0278268
1.5793
0.00776479
0.912334
0.269586
-0.0567418
0.621035
-0.141853
1.40797
-0.227669
2.19184
-0.296472
3.61224
-0.381034
5.67233
-0.451823
8.48351
-0.519524
12.2592
-0.570612
17.1458
-0.585399
23.0999
-0.515279
29.234
-0.403318
29.0298
-0.290024
22.2581
-0.192965
16.1992
-0.113742
11.2812
-0.0434857
7.54526
0.0033424
4.82155
0.0519447
2.83884
0.0432672
1.58798
0.0131606
0.94244
0.282747
-0.0783663
0.699401
-0.185464
1.51507
-0.284325
2.2907
-0.359644
3.68756
-0.451561
5.76425
-0.524649
8.5566
-0.598991
12.3336
-0.660612
17.2074
-0.676941
23.1162
-0.592469
29.1495
-0.471258
28.9086
-0.342402
22.1293
-0.226605
16.0834
-0.124069
11.1787
-0.0353971
7.45658
0.0180701
4.76808
0.059205
2.79771
0.0426515
1.60453
0.0119054
0.973187
0.294652
-0.0769978
0.776399
-0.190696
1.62876
-0.312395
2.4124
-0.412796
3.78796
-0.518411
5.86987
-0.607415
8.64561
-0.694392
12.4205
-0.76301
17.276
-0.781319
23.1345
-0.688649
29.0569
-0.552882
28.7729
-0.402099
21.9785
-0.256313
15.9376
-0.136458
11.0588
-0.0415172
7.36164
0.027895
4.69867
0.0707856
2.75482
0.0504242
1.62489
0.013918
1.00969
0.30857
-0.0979326
0.874332
-0.22611
1.75694
-0.354822
2.54111
-0.463855
3.89699
-0.582398
5.98841
-0.691977
8.75518
-0.790838
12.5194
-0.875477
17.3607
-0.893974
23.153
-0.797184
28.9601
-0.650892
28.6266
-0.481578
21.8092
-0.31255
15.7686
-0.166305
10.9126
-0.0540036
7.24934
0.0302658
4.6144
0.070611
2.71447
0.0458791
1.64962
0.00939845
1.04617
0.317969
-0.100971
0.975303
-0.244266
1.90024
-0.397936
2.69478
-0.536398
4.03545
-0.668174
6.12018
-0.801217
8.88823
-0.917042
12.6352
-1.02108
17.4647
-1.03901
23.1709
-0.931358
28.8524
-0.758684
28.4539
-0.549458
21.5999
-0.346437
15.5656
-0.187295
10.7535
-0.0707169
7.13276
0.031005
4.51268
0.0655692
2.67991
0.04081
1.67438
0.00464164
1.08234
0.32261
-0.121889
1.09719
-0.278702
2.05705
-0.448556
2.86463
-0.604525
4.19142
-0.761863
6.27752
-0.930956
9.05732
-1.07797
12.7822
-1.20108
17.5878
-1.21191
23.1817
-1.08607
28.7266
-0.872625
28.2405
-0.625091
21.3524
-0.400908
15.3414
-0.204927
10.5575
-0.066183
6.99402
0.0434353
4.40306
0.0718069
2.65154
0.0329701
1.71322
-0.00696458
1.12228
0.315646
-0.136663
1.23386
-0.318443
2.23883
-0.515372
3.06156
-0.716672
4.39272
-0.913706
6.47456
-1.12212
9.26574
-1.29703
12.9571
-1.44505
17.7358
-1.43446
23.1712
-1.26645
28.5586
-1.00005
27.9741
-0.701391
21.0538
-0.430792
15.0708
-0.211863
10.3385
-0.0686517
6.85081
0.0401383
4.29427
0.0602262
2.63145
0.0277799
1.74567
-0.0180806
1.16814
0.297565
-0.159303
1.39316
-0.365396
2.44492
-0.598819
3.29499
-0.836119
4.63002
-1.08474
6.72317
-1.34262
9.52362
-1.55357
13.1681
-1.71846
17.9007
-1.68597
23.1387
-1.4701
28.3427
-1.14284
27.6468
-0.801181
20.7121
-0.494005
14.7636
-0.247227
10.0918
-0.0744561
6.67804
0.0411585
4.17866
0.0518422
2.62077
0.000514563
1.79699
-0.0353326
1.20398
0.262233
-0.191968
1.58513
-0.428248
2.6812
-0.697705
3.56444
-1.00362
4.93594
-1.31752
7.03707
-1.61924
9.82534
-1.86171
13.4106
-2.03265
18.0716
-1.96545
23.0715
-1.71071
28.088
-1.33841
27.2745
-0.942161
20.3158
-0.572963
14.3944
-0.292513
9.81132
-0.095848
6.48137
0.0099275
4.07288
0.0086295
2.62206
-0.0419867
1.84761
-0.0624341
1.22443
0.199798
-0.246379
1.83151
-0.519016
2.95384
-0.881491
3.92692
-1.26144
5.31589
-1.61809
7.39372
-1.9485
10.1558
-2.21505
13.6771
-2.37361
18.2302
-2.27198
22.9698
-1.98766
27.8036
-1.55846
26.8453
-1.09162
19.849
-0.676967
13.9798
-0.364716
9.49907
-0.126036
6.24269
-0.0100322
3.95688
-0.0102116
2.62224
-0.0634924
1.90089
-0.0936791
1.25462
0.106119
-0.372355
2.20386
-0.778285
3.35977
-1.19362
4.34225
-1.59803
5.7203
-2.00015
7.79583
-2.3651
10.5207
-2.67364
13.9856
-2.79255
18.3491
-2.64284
22.8201
-2.30181
27.4626
-1.78145
26.3249
-1.2453
19.3129
-0.769895
13.5044
-0.407652
9.13682
-0.145361
5.9804
-0.047619
3.85914
-0.0672108
2.64183
-0.125311
1.95899
-0.117471
1.24678
-0.0113511
-0.300988
2.50485
-0.664157
3.72294
-1.01427
4.69237
-1.40781
6.11384
-1.82956
8.21759
-2.24743
10.9386
-2.65378
14.392
-2.84011
18.5354
-2.77941
22.7594
-2.46882
27.152
-1.87848
25.7346
-1.23348
18.6678
-0.700147
12.971
-0.237193
8.67387
0.0673912
5.67582
0.130641
3.79589
0.0791924
2.69328
0.0021326
2.03605
-0.041936
1.29085
-0.0532872
-0.182135
2.68698
-0.421199
3.962
-0.719412
4.99058
-1.04492
6.43935
-1.36199
8.53465
-1.65826
11.2349
-1.93494
14.6687
-1.99911
18.5996
-1.85909
22.6194
-1.47307
26.766
-0.869736
25.1313
-0.342206
18.1403
0.108037
12.5208
0.44294
8.33897
0.567728
5.55103
0.534801
3.82881
0.389185
2.8389
0.201535
2.2237
0.0768793
1.4155
0.0235922
-0.144488
2.83147
-0.311779
4.12929
-0.540075
5.21888
-0.782518
6.68179
-1.01923
8.77136
-1.22649
11.4421
-1.39396
14.8361
-1.37522
18.5809
-1.19035
22.4345
-0.770531
26.3462
-0.178801
24.5395
0.282767
17.6787
0.640807
12.1627
0.812252
8.16752
0.776436
5.58685
0.597761
4.00749
0.38426
3.0524
0.235045
2.37292
0.121063
1.52948
0.144655
-0.122405
2.95388
-0.277877
4.28477
-0.456694
5.3977
-0.630935
6.85603
-0.789271
8.9297
-0.93698
11.5898
-1.02455
14.9237
-0.94779
18.5041
-0.729746
22.2165
-0.299854
25.9163
0.272679
23.967
0.679553
17.2719
0.96081
11.8815
1.04018
8.08815
0.976453
5.65058
0.789502
4.19444
0.54672
3.29518
0.32286
2.59678
0.143762
1.70858
0.288418
-0.091579
3.04545
-0.237235
4.43042
-0.372962
5.53342
-0.506197
6.98926
-0.629686
9.05318
-0.748444
11.7086
-0.783828
14.9591
-0.674488
18.3948
-0.431708
21.9737
0.00786503
25.4767
0.515586
23.4593
0.871916
16.9155
1.0901
11.6633
1.08186
8.0964
0.883283
5.84915
0.628205
4.44952
0.394288
3.5291
0.233324
2.75774
0.117159
1.82475
0.405576
-0.0792454
3.1247
-0.22738
4.57856
-0.354094
5.66014
-0.449465
7.08464
-0.538199
9.14192
-0.629484
11.7999
-0.628891
14.9585
-0.509391
18.2753
-0.268298
21.7326
0.128565
25.0799
0.612631
22.9752
0.955155
16.573
1.11736
11.5011
1.06165
8.1521
0.891501
6.01931
0.692854
4.64817
0.49861
3.72334
0.302231
2.95412
0.13621
1.99077
0.541787
-0.048469
3.17317
-0.182887
4.71297
-0.315606
5.79286
-0.418865
7.18789
-0.501224
9.22428
-0.557202
11.8558
-0.531806
14.9331
-0.410995
18.1545
-0.18953
21.5112
0.178785
24.7115
0.619187
22.5348
0.924511
16.2677
1.02543
11.4002
0.945699
8.23183
0.746447
6.21856
0.523029
4.87158
0.331196
3.91518
0.20262
3.08269
0.0882033
2.10518
0.62999
-0.0503852
3.22355
-0.178208
4.8408
-0.299168
5.91382
-0.403777
7.2925
-0.474763
9.29526
-0.512909
11.894
-0.47204
14.8922
-0.357761
18.0402
-0.161297
21.3147
0.17584
24.3744
0.573991
22.1367
0.854267
15.9874
0.930297
11.3241
0.823652
8.33848
0.638583
6.40363
0.452871
5.05729
0.291947
4.0761
0.132448
3.24219
0.0400328
2.1976
0.670023
-0.0364557
3.26001
-0.129556
4.9339
-0.241539
6.0258
-0.367127
7.41809
-0.450521
9.37866
-0.48281
11.9263
-0.436772
14.8462
-0.338675
17.9421
-0.162693
21.1387
0.142037
24.0697
0.502111
21.7766
0.741527
15.748
0.769199
11.2965
0.666931
8.44075
0.513965
6.55659
0.347062
5.2242
0.204661
4.2185
0.0993357
3.34752
0.0238676
2.27307
0.693891
-0.0296542
3.28966
-0.124965
5.02921
-0.225488
6.12632
-0.340751
7.53335
-0.420982
9.45889
-0.458156
11.9635
-0.418807
14.8069
-0.3388
17.8621
-0.178888
20.9788
0.0940762
23.7967
0.414015
21.4566
0.612473
15.5495
0.626178
11.2828
0.524031
8.54289
0.377065
6.70356
0.232258
5.369
0.124449
4.32631
0.0402743
3.43169
-0.00221856
2.31556
0.691672
-0.0297376
3.3194
-0.102183
5.10165
-0.192819
6.21696
-0.298491
7.63903
-0.390214
9.55061
-0.432772
12.006
-0.410246
14.7843
-0.344733
17.7966
-0.201036
20.8351
0.0402147
23.5555
0.315334
21.1815
0.46934
15.3955
0.457215
11.2949
0.361376
8.63873
0.269238
6.7957
0.167475
5.47077
0.0830694
4.41072
0.0167101
3.49805
-0.0103371
2.34261
0.681335
-0.0189717
3.33837
-0.0999764
5.18266
-0.191354
6.30834
-0.285704
7.73338
-0.366226
9.63113
-0.410201
12.05
-0.401591
14.7757
-0.347771
17.7427
-0.222248
20.7096
-0.0129834
23.3462
0.215387
20.9532
0.326869
15.2841
0.308271
11.3135
0.227663
8.71934
0.140186
6.88317
0.0584598
5.55249
0.00928206
4.45989
-0.0262849
3.53362
-0.028711
2.34503
0.652624
-0.023058
3.36143
-0.0940458
5.25365
-0.177708
6.392
-0.264155
7.81982
-0.343647
9.71062
-0.387764
12.0941
-0.38837
14.7763
-0.34549
17.6999
-0.238922
20.603
-0.0623739
23.1697
0.115236
20.7755
0.186931
15.2124
0.155917
11.3445
0.0962492
8.77901
0.0452534
6.93417
0.0118688
5.58588
-0.038521
4.51028
-0.0581597
3.55326
-0.0410075
2.32788
0.611616
-0.0210362
3.38247
-0.0995121
5.33212
-0.181118
6.4736
-0.258732
7.89744
-0.32568
9.77757
-0.366175
12.1346
-0.371433
14.7816
-0.337578
17.666
-0.249576
20.515
-0.106564
23.0266
0.0237702
20.6452
0.0621996
15.1739
0.0285368
11.3782
-0.0167415
8.82429
-0.0628447
6.98027
-0.0930461
5.61608
-0.095772
4.51301
-0.0925708
3.55006
-0.0578523
2.29316
0.553764
-0.0224562
3.40492
-0.0934729
5.40314
-0.167659
6.54779
-0.242069
7.97185
-0.307439
9.84294
-0.34506
12.1722
-0.35299
14.7895
-0.32601
17.639
-0.256435
20.4454
-0.144942
22.9151
-0.0484771
20.5487
-0.0400839
15.1655
-0.0867592
11.4248
-0.129961
8.86749
-0.149003
6.99932
-0.153264
5.62034
-0.157176
4.51692
-0.130038
3.52292
-0.0724291
2.23555
0.481335
-0.0287248
3.43365
-0.102432
5.47685
-0.168393
6.61375
-0.235581
8.03904
-0.291924
9.89928
-0.326354
12.2067
-0.334919
14.7981
-0.313059
17.6172
-0.260132
20.3925
-0.176533
22.8315
-0.11146
20.4837
-0.123423
15.1775
-0.179949
11.4814
-0.223338
8.91088
-0.248899
7.02488
-0.250151
5.62159
-0.218055
4.48483
-0.173958
3.47882
-0.0969118
2.15851
0.384423
-0.0299338
3.46358
-0.093124
5.54004
-0.151781
6.67241
-0.219893
8.10715
-0.276502
9.95589
-0.309382
12.2395
-0.318209
14.8069
-0.300792
17.5998
-0.261406
20.3531
-0.200509
22.7707
-0.163359
20.4465
-0.196533
15.2107
-0.272723
11.5576
-0.319023
8.95718
-0.327619
7.03347
-0.313703
5.60768
-0.286656
4.45778
-0.21456
3.40673
-0.11472
2.05867
0.269704
-0.0243772
3.48796
-0.0908997
5.60656
-0.148674
6.73018
-0.211823
8.1703
-0.263421
10.0075
-0.293686
12.2698
-0.302188
14.8154
-0.288661
17.5862
-0.259932
20.3244
-0.216829
22.7275
-0.203464
20.4332
-0.252409
15.2596
-0.325917
11.6311
-0.392772
9.02403
-0.4225
7.0632
-0.40898
5.59416
-0.350829
4.39963
-0.26542
3.32132
-0.125765
1.91901
0.143939
-0.0290237
3.51698
-0.0823025
5.65984
-0.133844
6.78173
-0.196908
8.23336
-0.249815
10.0604
-0.277495
12.2975
-0.286626
14.8245
-0.276775
17.5764
-0.256258
20.3039
-0.227158
22.6984
-0.234695
20.4407
-0.300789
15.3257
-0.386813
11.7171
-0.455155
9.09238
-0.488348
7.09639
-0.473625
5.57943
-0.430924
4.35693
-0.308687
3.19908
-0.13537
1.7457
0.00856907
-0.0262428
3.54323
-0.0773455
5.71094
-0.129324
6.8337
-0.186789
8.29083
-0.234911
10.1085
-0.262261
12.3248
-0.273215
14.8355
-0.267284
17.5704
-0.253035
20.2896
-0.235229
22.6806
-0.260168
20.4656
-0.338604
15.4042
-0.428854
11.8073
-0.502791
9.16631
-0.562835
7.15644
-0.569602
5.5862
-0.494949
4.28227
-0.331477
3.03561
0.00755527
1.40666
0.0161243
-0.0267747
3.57
-0.069372
5.75354
-0.118767
6.8831
-0.175547
8.34761
-0.226249
10.1592
-0.257106
12.3557
-0.273306
14.8517
-0.273746
17.5709
-0.266693
20.2826
-0.26063
22.6746
-0.305621
20.5106
-0.406123
15.5047
-0.521104
11.9223
-0.616279
9.26149
-0.672268
7.21243
-0.693667
5.6076
-0.643396
4.232
-0.41451
2.80672
-0.239234
1.23139
0.570654
-0.793764
-0.0277141
3.59771
-0.0667808
5.7926
-0.117446
6.93376
-0.166526
8.39669
-0.215167
10.2079
-0.245427
12.3859
-0.265387
14.8717
-0.270855
17.5764
-0.269916
20.2816
-0.275099
22.6798
-0.337159
20.5727
-0.453996
15.6215
-0.58448
12.0528
-0.702751
9.37976
-0.803829
7.3135
-0.881722
5.68549
-0.916921
4.2672
-0.758332
2.64813
-0.941113
1.41417
1.14552
-1.51598
-0.0262559
3.62397
-0.0567654
5.82311
-0.107265
6.98426
-0.155357
8.44478
-0.202227
10.2547
-0.23407
12.4178
-0.257603
14.8952
-0.267906
17.5867
-0.272944
20.2867
-0.288797
22.6956
-0.366468
20.6504
-0.500952
15.756
-0.657119
12.209
-0.810417
9.53306
-0.950987
7.45407
-1.05948
5.79398
-1.03872
4.24645
-0.957777
2.56719
-1.32702
1.78341
1.56247
-1.74396
-0.0291976
3.65317
-0.0577145
5.85163
-0.107507
7.03405
-0.144802
8.48207
-0.187532
10.2975
-0.222556
12.4528
-0.248334
14.921
-0.263248
17.6016
-0.273936
20.2974
-0.299723
22.7214
-0.391038
20.7417
-0.540878
15.9058
-0.717527
12.3856
-0.903298
9.71883
-1.10576
7.65653
-1.26381
5.95203
-1.21917
4.20181
-1.35729
2.70531
-1.6926
2.11872
1.82477
-1.95491
-0.0240338
3.6772
-0.0519836
5.87958
-0.0967901
7.07886
-0.132925
8.51821
-0.176726
10.3413
-0.212491
12.4886
-0.240032
14.9485
-0.258365
17.6199
-0.27397
20.313
-0.308701
22.7561
-0.412038
20.845
-0.576725
16.0705
-0.780505
12.5894
-1.00531
9.94364
-1.20456
7.85578
-1.29499
6.04246
-1.2669
4.17372
-1.52256
2.96096
-1.86081
2.45698
2.04575
-2.08179
-0.0144541
3.69166
-0.0504069
5.91553
-0.0953362
7.12379
-0.13608
8.55895
-0.176884
10.3821
-0.210064
12.5218
-0.23968
14.9781
-0.25936
17.6396
-0.278449
20.3321
-0.320758
22.7984
-0.434632
20.9589
-0.610845
16.2467
-0.830237
12.8088
-1.0641
10.1775
-1.26922
8.06091
-1.41014
6.18338
-1.57802
4.3416
-1.87869
3.26163
-2.16935
2.74763
2.19601
-2.31961
-0.0168105
3.70847
-0.0533328
5.95205
-0.0945557
7.16501
-0.141758
8.60616
-0.181084
10.4214
-0.216891
12.5576
-0.246649
15.0079
-0.266599
17.6595
-0.287851
20.3533
-0.337071
22.8477
-0.460642
21.0825
-0.645126
16.4312
-0.872268
13.0359
-1.12392
10.4291
-1.34469
8.28169
-1.43423
6.27292
-1.59938
4.50675
-1.91075
3.573
-2.16408
3.00097
2.39712
-2.3652
-0.0166839
3.72515
-0.056129
5.9915
-0.0981167
7.207
-0.145006
8.65305
-0.184828
10.4612
-0.224446
12.5972
-0.252247
15.0357
-0.273164
17.6804
-0.295929
20.3761
-0.351902
22.9036
-0.484865
21.2154
-0.672274
16.6186
-0.891762
13.2554
-1.13912
10.6765
-1.36587
8.50844
-1.49819
6.40524
-1.7972
4.80576
-2.28881
4.06461
-2.66714
3.3793
2.69708
-2.9671
-0.00660368
3.73175
-0.049997
6.03489
-0.098878
7.25588
-0.151208
8.70538
-0.195097
10.5051
-0.232285
12.6344
-0.25963
15.063
-0.280241
17.7011
-0.303872
20.3997
-0.365916
22.9657
-0.510434
21.3599
-0.699814
16.808
-0.902294
13.4579
-1.13109
10.9053
-1.37906
8.75641
-1.6172
6.64338
-1.91696
5.10551
-2.3609
4.50856
-2.85178
3.87017
2.8983
-3.053
-0.00324099
3.735
-0.0479107
6.07956
-0.101488
7.30946
-0.15528
8.75917
-0.202533
10.5524
-0.238114
12.67
-0.266091
15.091
-0.28572
17.7207
-0.309908
20.4239
-0.376113
23.0319
-0.524686
21.5085
-0.711158
16.9945
-0.914503
13.6612
-1.12263
11.1134
-1.31871
8.95249
-1.57273
6.8974
-2.09995
5.63273
-2.493
4.90161
-2.98085
4.35802
3.62787
-3.71042
-0.00792705
3.74292
-0.0504756
6.12211
-0.0985836
7.35757
-0.155269
8.81585
-0.204048
10.6011
-0.242521
12.7084
-0.269238
15.1177
-0.287499
17.7389
-0.310522
20.4469
-0.375331
23.0967
-0.511041
21.6442
-0.681277
17.1647
-0.868813
13.8488
-1.05251
11.2971
-1.18737
9.08735
-1.43925
7.14929
-1.82249
6.01597
-2.00049
5.07961
-1.4555
3.81303
2.17238
0.000257248
3.74267
-0.0454248
6.16779
-0.0998184
7.41196
-0.159063
8.8751
-0.208514
10.6506
-0.25037
12.7503
-0.278509
15.1459
-0.299558
17.76
-0.325486
20.4728
-0.393856
23.1651
-0.528119
21.7785
-0.695378
17.332
-0.875301
14.0287
-1.0329
11.4547
-1.11369
9.16814
-1.2022
7.2378
-1.19662
6.01039
-1.05273
4.93572
-0.723986
3.48428
1.44839
-0.000479073
3.74314
-0.0471453
6.21446
-0.100385
7.4652
-0.161197
8.93591
-0.213774
10.7032
-0.256053
12.7926
-0.286256
15.1761
-0.308456
17.7822
-0.33556
20.5
-0.404669
23.2342
-0.53698
21.9108
-0.69485
17.4898
-0.852184
14.186
-0.952265
11.5548
-0.996044
9.21192
-1.02073
7.26248
-1.06072
6.05037
-1.02485
4.89985
-0.821423
3.28086
0.626968
0.00296374
3.74018
-0.0437529
6.26118
-0.098225
7.51967
-0.157262
8.99495
-0.211675
10.7576
-0.255679
12.8366
-0.288356
15.2087
-0.311645
17.8055
-0.339517
20.5278
-0.406637
23.3013
-0.532117
22.0363
-0.671623
17.6293
-0.793651
14.3081
-0.850423
11.6116
-0.902166
9.26366
-0.953708
7.31403
-0.985707
6.08237
-0.899133
4.81327
-0.400359
2.78208
0.22661
0.00309909
3.73708
-0.0400128
6.30429
-0.0930241
7.57268
-0.155029
9.05695
-0.209567
10.8121
-0.25424
12.8812
-0.287271
15.2418
-0.310334
17.8286
-0.336627
20.5541
-0.399019
23.3637
-0.511612
22.1489
-0.624483
17.7422
-0.705139
14.3887
-0.773015
11.6794
-0.799293
9.28994
-0.845733
7.36047
-0.821905
6.05855
-0.607899
4.59927
-0.166213
2.3404
0.0603965
0.0171933
3.71989
-0.0258188
6.3473
-0.0833833
7.63025
-0.145481
9.11905
-0.19953
10.8662
-0.24478
12.9265
-0.277507
15.2745
-0.299368
17.8504
-0.323588
20.5783
-0.378852
23.4189
-0.473219
22.2432
-0.558014
17.827
-0.623911
14.4546
-0.679031
11.7346
-0.686413
9.29732
-0.709347
7.3834
-0.639162
5.98836
-0.450647
4.41075
-0.150733
2.04048
-0.0903369
0.0206512
3.69924
-0.0174747
6.38543
-0.0716207
7.68439
-0.134007
9.18144
-0.188041
10.9202
-0.231757
12.9702
-0.261835
15.3046
-0.28113
17.8697
-0.300614
20.5978
-0.34638
23.4647
-0.419881
22.3167
-0.483704
17.8908
-0.535272
14.5062
-0.564233
11.7635
-0.553678
9.28677
-0.529928
7.35965
-0.454863
5.9133
-0.319406
4.27529
-0.0753936
1.79647
-0.16573
0.0392198
3.66002
0.00641361
6.41823
-0.0515586
7.74237
-0.112838
9.24271
-0.164657
10.972
-0.205688
13.0112
-0.232986
15.3319
-0.24943
17.8862
-0.263675
20.6121
-0.298959
23.5
-0.355307
22.3731
-0.400395
17.9359
-0.426693
14.5325
-0.415403
11.7522
-0.389335
9.2607
-0.350011
7.32033
-0.286313
5.8496
-0.172011
4.16099
0.0055971
1.61886
-0.160133
0.0488861
3.61113
0.0242073
6.44291
-0.0249053
7.79148
-0.0847812
9.30259
-0.137594
11.0248
-0.172296
13.0459
-0.194121
15.3537
-0.207939
17.9
-0.214062
20.6182
-0.237545
23.5235
-0.27564
22.4112
-0.300823
17.9611
-0.298016
14.5297
-0.260624
11.7148
-0.210676
9.21075
-0.144838
7.25449
-0.0825322
5.78729
0.00582415
4.07263
0.0491078
1.57558
-0.111025
0.0682359
3.5429
0.0518634
6.45928
0.00599877
7.83734
-0.0504659
9.35906
-0.0916881
11.0661
-0.119393
13.0736
-0.139777
15.3741
-0.148109
17.9083
-0.146691
20.6168
-0.159395
23.5362
-0.177887
22.4297
-0.179837
17.963
-0.154139
14.504
-0.101917
11.6626
-0.0281202
9.13696
0.0587924
7.16757
0.142326
5.70376
0.185893
4.02907
0.0992155
1.66226
-0.01181
0.0843695
3.45853
0.0835621
6.46009
0.0452974
7.87561
1.911e-05
9.40433
-0.0246717
11.0907
-0.0583897
13.1074
-0.070973
15.3867
-0.0690778
17.9064
-0.0642843
20.612
-0.0663481
23.5382
-0.0637811
22.4271
-0.0421773
17.9414
0.0102188
14.4516
0.0791176
11.5937
0.153753
9.06232
0.232821
7.08851
0.318448
5.61813
0.341185
4.00633
0.152045
1.8514
0.140235
0.110174
3.34835
0.126148
6.44412
0.105575
7.89618
0.073319
9.43659
0.0391895
11.1249
0.0308731
13.1157
0.0285214
15.389
0.0398845
17.895
0.0486802
20.6032
0.0544919
23.5324
0.0711351
22.4105
0.108983
17.9036
0.171214
14.3894
0.244377
11.5206
0.302339
9.00436
0.368943
7.0219
0.440519
5.54656
0.441317
4.00553
0.223143
2.06957
0.363378
0.155064
3.19329
0.208747
6.39043
0.200078
7.90485
0.173349
9.46332
0.16273
11.1355
0.155429
13.123
0.159679
15.3848
0.17708
17.8776
0.19431
20.586
0.206623
23.5201
0.226951
22.3901
0.265112
17.8654
0.317122
14.3373
0.367198
11.4705
0.405429
8.96613
0.44273
6.9846
0.474947
5.51434
0.444638
4.03584
0.244706
2.2695
0.608084
0.196012
2.99728
0.273955
6.31249
0.28761
7.8912
0.288658
9.46227
0.29426
11.1299
0.299567
13.1177
0.320317
15.364
0.346732
17.8512
0.368068
20.5646
0.381998
23.5062
0.3966
22.3755
0.417609
17.8444
0.438984
14.316
0.450763
11.4587
0.449883
8.96701
0.464057
6.97043
0.477301
5.50109
0.436605
4.07654
0.244668
2.46144
0.852751
0.282872
2.7144
0.433597
6.16177
0.472793
7.852
0.480809
9.45425
0.484184
11.1265
0.495278
13.1066
0.524048
15.3352
0.554858
17.8204
0.577201
20.5423
0.5846
23.4988
0.579865
22.3803
0.563272
17.861
0.541089
14.3382
0.521587
11.4782
0.501557
8.98704
0.492407
6.97958
0.477907
5.51559
0.407963
4.14648
0.218389
2.65101
1.07114
0.35763
2.35677
0.558071
5.96132
0.630674
7.7794
0.667994
9.41693
0.690019
11.1045
0.72496
13.0716
0.769963
15.2902
0.809475
17.7809
0.833689
20.5181
0.826933
23.5055
0.787069
22.4201
0.729042
17.919
0.674007
14.3932
0.623201
11.529
0.557474
9.05276
0.490619
7.04643
0.423691
5.58252
0.328751
4.24142
0.164978
2.81479
1.23612
0.552176
1.8046
0.860574
5.65293
0.951413
7.68856
0.982549
9.3858
0.995232
11.0918
1.02934
13.0375
1.08008
15.2395
1.1253
17.7357
1.14798
20.4954
1.12347
23.5301
1.0544
22.4892
0.975506
17.9979
0.895702
14.473
0.80027
11.6244
0.669782
9.18325
0.545132
7.17108
0.436653
5.691
0.313235
4.36484
0.143548
2.98447
1.37967
0.752457
1.05214
1.10335
5.30203
1.22244
7.56947
1.2933
9.31494
1.3402
11.0449
1.40191
12.9758
1.46786
15.1735
1.52239
17.6812
1.54922
20.4686
1.52066
23.5586
1.43907
22.5708
1.32786
18.1091
1.18464
14.6162
1.01425
11.7948
0.820292
9.37721
0.634215
7.35716
0.479331
5.84589
0.326696
4.51748
0.149445
3.16173
1.52911
0.763198
0.288943
1.50639
4.55884
1.71015
7.36571
1.77356
9.25153
1.80969
11.0088
1.86211
12.9234
1.94084
15.0948
2.01625
17.6057
2.06084
20.424
2.04387
23.5756
1.94487
22.6698
1.78154
18.2725
1.5806
14.8172
1.35278
12.0227
1.09732
9.63267
0.853548
7.60093
0.651938
6.0475
0.448773
4.72064
0.216687
3.39381
1.7458
0.62668
-0.337737
1.67911
3.50641
2.12279
6.92203
2.28653
9.08779
2.38087
10.9144
2.45817
12.8461
2.56495
14.988
2.66944
17.5013
2.74415
20.3492
2.74493
23.5748
2.63067
22.784
2.43839
18.4647
2.20581
15.0497
1.93791
12.2906
1.61932
9.95127
1.26922
7.95103
0.947178
6.36954
0.630612
5.03721
0.296331
3.72809
2.04213
0.479082
-0.816819
1.41146
2.57403
1.92182
6.41167
2.16214
8.84747
2.30455
10.772
2.37063
12.78
2.42122
14.9374
2.44231
17.4802
2.40771
20.3838
2.28131
23.7012
2.07974
22.9856
1.86249
18.682
1.63333
15.2789
1.38449
12.5394
1.13171
10.204
0.890153
8.19259
0.671349
6.58834
0.456025
5.25253
0.218983
3.96513
2.26111
-0.00896214
-0.807857
0.391844
2.17322
0.862283
5.94123
1.18879
8.52096
1.40535
10.5555
1.56619
12.6192
1.70648
14.7971
1.8134
17.3733
1.85088
20.3464
1.78592
23.7662
1.63675
23.1348
1.45859
18.8602
1.27502
15.4625
1.09118
12.7232
0.888027
10.4072
0.674585
8.40603
0.495749
6.76717
0.324895
5.42339
0.149503
4.14053
2.41061
-0.193219
-0.614638
-0.271972
2.25198
-0.0140025
5.68326
0.296064
8.2109
0.600291
10.2512
0.878086
12.3414
1.08912
14.5861
1.25574
17.2066
1.35343
20.2487
1.35688
23.7627
1.26304
23.2286
1.13365
18.9895
0.990665
15.6054
0.845476
12.8684
0.690633
10.562
0.523558
8.5731
0.376691
6.91404
0.236427
5.56365
0.0949921
4.28196
2.50561
-0.309849
-0.304789
-0.612954
2.55508
-0.567787
5.63809
-0.30052
7.94363
0.0247758
9.92593
0.314834
12.0514
0.574848
14.3261
0.786367
16.9951
0.932539
20.1025
0.990073
23.7052
0.954484
23.2642
0.869855
19.0742
0.764471
15.7108
0.656673
12.9762
0.542684
10.676
0.414269
8.70152
0.296541
7.03177
0.184234
5.67595
0.0700023
4.39619
2.57561
-0.414826
0.110037
-0.674977
2.81523
-0.659377
5.62249
-0.518012
7.80227
-0.306128
9.71404
-0.0380104
11.7832
0.217902
14.0702
0.440516
16.7725
0.609877
19.9331
0.701962
23.6131
0.704656
23.2615
0.656729
19.1221
0.586249
15.7813
0.51034
13.0521
0.429781
10.7566
0.33285
8.79845
0.234251
7.13037
0.131824
5.77838
0.0276615
4.50036
2.60327
-0.359145
0.469182
-0.617932
3.07402
-0.600763
5.60532
-0.493578
7.69508
-0.358065
9.57853
-0.184489
11.6097
0.0212894
13.8644
0.210806
16.583
0.376312
19.7676
0.482861
23.5066
0.510308
23.2341
0.490389
19.142
0.448715
15.823
0.396212
13.1046
0.337932
10.8149
0.260003
8.87638
0.169524
7.22085
0.0748061
5.8731
-0.0103285
4.58549
2.59294
-0.313742
0.782924
-0.51087
3.27115
-0.501247
5.5957
-0.413579
7.60741
-0.302098
9.46705
-0.188347
11.4959
-0.062316
13.7384
0.0865181
16.4342
0.224225
19.6299
0.32721
23.4036
0.366696
23.1946
0.363898
19.1448
0.341305
15.8456
0.301455
13.1445
0.255217
10.8611
0.18985
8.94174
0.108025
7.30267
0.0249094
5.95622
-0.039205
4.6496
2.55374
-0.243691
1.02661
-0.40608
3.43354
-0.433434
5.62305
-0.35968
7.53366
-0.258467
9.36584
-0.157436
11.3949
-0.0639189
13.6449
0.0425069
16.3277
0.139417
19.533
0.224844
23.3181
0.264751
23.1547
0.26846
19.1411
0.254222
15.8598
0.221341
13.1774
0.182683
10.8998
0.126784
8.99764
0.0564671
7.37299
-0.0153893
6.02807
-0.0590267
4.69324
2.49471
-0.176223
1.20284