/*--------------------------------*- C++ -*----------------------------------*\
| =========                 |                                                 |
| \\      /  F ield         | OpenFOAM: The Open Source CFD Toolbox           |
|  \\    /   O peration     | Version:  2412                                  |
|   \\  /    A nd           | Website:  www.openfoam.com                      |
|    \\/     M anipulation  |                                                 |
\*---------------------------------------------------------------------------*/
FoamFile
{
    version     2.0;
    format      ascii;
    arch        "LSB;label=32;scalar=64";
    class       volVectorField;
    location    "6.25";
    object      U;
}
// * * * * * * * * * * * * * * * * * * * * * * * * * * * * * * * * * * * * * //

dimensions      [0 1 -1 0 0 0 0];

internalField   nonuniform List<vector> 
2200
(
(0.377663 -0.00027564 0)
(1.19358 0.000256551 0)
(2.12282 0.00120549 0)
(3.16884 0.00167867 0)
(4.32576 0.00278467 0)
(5.57163 0.00311132 0)
(6.86363 0.00407726 0)
(8.12025 0.00444662 0)
(9.20652 0.00514526 0)
(9.9012 0.0053146 0)
(9.90144 0.0050728 0)
(9.20702 0.00454738 0)
(8.12206 0.00384342 0)
(6.86435 0.00363241 0)
(5.57156 0.00315731 0)
(4.32493 0.00259033 0)
(3.16819 0.0020591 0)
(2.12224 0.00182613 0)
(1.19223 0.00156979 0)
(0.37497 0.00135544 0)
(0.380306 0.00103786 0)
(1.19537 0.00124391 0)
(2.12502 0.00320018 0)
(3.17063 0.00501565 0)
(4.3275 0.00709188 0)
(5.57402 0.0104538 0)
(6.86639 0.0121214 0)
(8.12342 0.014254 0)
(9.20817 0.0159541 0)
(9.90011 0.0160928 0)
(9.8995 0.0149916 0)
(9.20491 0.013854 0)
(8.11814 0.012814 0)
(6.86124 0.0103709 0)
(5.56959 0.00835461 0)
(4.32251 0.00694133 0)
(3.16475 0.00523214 0)
(2.11709 0.00356206 0)
(1.18521 0.0030165 0)
(0.370373 -0.000203526 0)
(0.386501 0.00280082 0)
(1.19956 0.00292849 0)
(2.12994 0.00574736 0)
(3.17583 0.00942339 0)
(4.33168 0.012952 0)
(5.57797 0.0162701 0)
(6.8679 0.0197456 0)
(8.12253 0.0226224 0)
(9.20885 0.0248608 0)
(9.89954 0.0258953 0)
(9.89864 0.0249924 0)
(9.20254 0.0225995 0)
(8.11573 0.0189915 0)
(6.85759 0.0164423 0)
(5.56402 0.013415 0)
(4.31638 0.00997075 0)
(3.15859 0.00680327 0)
(2.11037 0.00388741 0)
(1.17795 0.00194176 0)
(0.368499 -0.00191211 0)
(0.400046 0.0046333 0)
(1.20776 0.00572667 0)
(2.13961 0.0114077 0)
(3.1848 0.0149359 0)
(4.3405 0.0201713 0)
(5.58499 0.0239717 0)
(6.87365 0.0285958 0)
(8.12818 0.0327236 0)
(9.21212 0.036029 0)
(9.89684 0.0363458 0)
(9.8947 0.033737 0)
(9.19735 0.0302084 0)
(8.10869 0.0267083 0)
(6.84961 0.0217299 0)
(5.55671 0.0164984 0)
(4.30935 0.0119591 0)
(3.15091 0.00831666 0)
(2.10187 0.00379561 0)
(1.16914 0.00178845 0)
(0.369553 -0.00262197 0)
(0.424866 0.00520667 0)
(1.22333 0.00848354 0)
(2.15394 0.0154915 0)
(3.19937 0.0209333 0)
(4.35109 0.0260828 0)
(5.59184 0.0328866 0)
(6.87906 0.0371609 0)
(8.13063 0.0403999 0)
(9.2151 0.0447758 0)
(9.8963 0.0461951 0)
(9.89284 0.0433124 0)
(9.19318 0.0389441 0)
(8.10281 0.032592 0)
(6.84297 0.0256893 0)
(5.54871 0.0183757 0)
(4.30082 0.012202 0)
(3.14265 0.00806933 0)
(2.09404 0.00432934 0)
(1.15911 0.00123084 0)
(0.372771 -0.00216013 0)
(0.450961 0.00297654 0)
(1.23899 0.0112462 0)
(2.17557 0.0171817 0)
(3.22047 0.0273269 0)
(4.3724 0.0376832 0)
(5.60974 0.0421891 0)
(6.89155 0.0466722 0)
(8.13865 0.0522981 0)
(9.21943 0.0560338 0)
(9.89318 0.056013 0)
(9.88793 0.0519307 0)
(9.18446 0.0455555 0)
(8.0938 0.0375011 0)
(6.83438 0.0283289 0)
(5.54173 0.018925 0)
(4.29488 0.0110254 0)
(3.13678 0.00523409 0)
(2.08874 0.00371707 0)
(1.15138 -0.00145449 0)
(0.378944 -6.63923e-05 0)
(0.478119 0.000448404 0)
(1.26939 0.016169 0)
(2.20663 0.0197669 0)
(3.24706 0.0347788 0)
(4.39085 0.0449639 0)
(5.6264 0.0527328 0)
(6.90527 0.0586752 0)
(8.14724 0.062971 0)
(9.22671 0.0670922 0)
(9.89206 0.0669497 0)
(9.88436 0.0613285 0)
(9.1804 0.0532271 0)
(8.08642 0.0423058 0)
(6.82528 0.0302923 0)
(5.53157 0.020128 0)
(4.28298 0.0110195 0)
(3.12562 0.00496844 0)
(2.0797 0.00268416 0)
(1.14736 -0.00413149 0)
(0.380244 0.00287825 0)
(0.509038 0.000704499 0)
(1.31394 0.0219027 0)
(2.23462 0.0266571 0)
(3.26266 0.0389293 0)
(4.41129 0.0502577 0)
(5.64598 0.0598883 0)
(6.9201 0.0689307 0)
(8.15898 0.0749802 0)
(9.23608 0.0792699 0)
(9.89152 0.077836 0)
(9.88059 0.0700488 0)
(9.17014 0.0596776 0)
(8.07496 0.047162 0)
(6.81195 0.0335321 0)
(5.51674 0.0205299 0)
(4.26902 0.0144389 0)
(3.11252 0.0036522 0)
(2.06906 -0.000795594 0)
(1.15229 -0.0072512 0)
(0.382215 0.00334909 0)
(0.552593 0.00277192 0)
(1.37431 0.0262583 0)
(2.25444 0.0325652 0)
(3.28346 0.0434224 0)
(4.42858 0.0504153 0)
(5.6601 0.0668733 0)
(6.93413 0.0793182 0)
(8.17015 0.0861784 0)
(9.24435 0.0919127 0)
(9.88835 0.090712 0)
(9.87507 0.0808662 0)
(9.16306 0.0683282 0)
(8.06375 0.0534573 0)
(6.79858 0.0373168 0)
(5.5015 0.0254603 0)
(4.24922 0.0162495 0)
(3.08825 0.00422989 0)
(2.0488 -0.00518284 0)
(1.172 -0.0118751 0)
(0.391926 0.00184298 0)
(0.601228 0.00507445 0)
(1.43149 0.0276383 0)
(2.27073 0.0417118 0)
(3.30332 0.0460534 0)
(4.45168 0.0552401 0)
(5.67869 0.0728445 0)
(6.94972 0.0850234 0)
(8.18265 0.0963676 0)
(9.25489 0.106081 0)
(9.88724 0.103516 0)
(9.86861 0.0911579 0)
(9.1483 0.0764552 0)
(8.04476 0.0611211 0)
(6.77335 0.0464949 0)
(5.46981 0.0321445 0)
(4.21995 0.0207227 0)
(3.06231 0.00724915 0)
(2.0125 -0.00520987 0)
(1.19651 -0.0123318 0)
(0.408196 0.000496468 0)
(0.66564 0.00597268 0)
(1.51736 0.028142 0)
(2.29564 0.0468824 0)
(3.33515 0.0508894 0)
(4.46937 0.0639623 0)
(5.6917 0.0798381 0)
(6.95926 0.0933817 0)
(8.18858 0.107261 0)
(9.25899 0.118772 0)
(9.87975 0.118268 0)
(9.85808 0.105112 0)
(9.13187 0.0896095 0)
(8.02255 0.0726871 0)
(6.74822 0.0561121 0)
(5.44487 0.0380534 0)
(4.19394 0.0203369 0)
(3.03437 0.0107964 0)
(1.97635 -0.00541252 0)
(1.21643 -0.00876857 0)
(0.422064 -0.000249716 0)
(0.713564 0.0077901 0)
(1.57309 0.0264534 0)
(2.31944 0.0533073 0)
(3.37416 0.0572801 0)
(4.50472 0.0810941 0)
(5.71954 0.0930046 0)
(6.97936 0.104228 0)
(8.19799 0.120118 0)
(9.26366 0.133749 0)
(9.87096 0.132898 0)
(9.84198 0.119802 0)
(9.10585 0.101877 0)
(7.98916 0.0821428 0)
(6.71417 0.0630449 0)
(5.40991 0.0426144 0)
(4.161 0.0180503 0)
(3.01287 0.0126188 0)
(1.94725 -0.00719674 0)
(1.23971 -0.00513313 0)
(0.434452 -0.00106013 0)
(0.79255 0.00809535 0)
(1.68053 0.0293155 0)
(2.37244 0.0596385 0)
(3.42859 0.0673566 0)
(4.53084 0.0941547 0)
(5.74221 0.105842 0)
(6.99225 0.121491 0)
(8.20406 0.138255 0)
(9.26397 0.15013 0)
(9.85334 0.150444 0)
(9.81934 0.137864 0)
(9.07785 0.119128 0)
(7.95927 0.0940253 0)
(6.68239 0.0683217 0)
(5.3852 0.0411997 0)
(4.13164 0.0148856 0)
(2.9868 0.0164156 0)
(1.92103 -0.0111331 0)
(1.25276 -0.00208772 0)
(0.439166 -0.00160661 0)
(0.83863 0.0107105 0)
(1.74054 0.027657 0)
(2.4146 0.0660489 0)
(3.47735 0.074346 0)
(4.58645 0.11272 0)
(5.79026 0.129981 0)
(7.02523 0.14657 0)
(8.22241 0.160288 0)
(9.27009 0.172292 0)
(9.83681 0.172184 0)
(9.79409 0.155728 0)
(9.04383 0.13153 0)
(7.91965 0.0995826 0)
(6.64395 0.0662075 0)
(5.35097 0.040786 0)
(4.10306 0.0167312 0)
(2.95827 0.0129554 0)
(1.9039 -0.0185684 0)
(1.27649 -0.00248944 0)
(0.449071 -0.00209762 0)
(0.9434 0.0125332 0)
(1.86749 0.0385539 0)
(2.50157 0.0867902 0)
(3.53419 0.0905368 0)
(4.63903 0.131209 0)
(5.83265 0.151274 0)
(7.05612 0.176749 0)
(8.24349 0.192455 0)
(9.27595 0.20293 0)
(9.81699 0.198127 0)
(9.76497 0.176591 0)
(9.00989 0.146236 0)
(7.88947 0.106452 0)
(6.61534 0.0647041 0)
(5.32042 0.0366919 0)
(4.07591 0.0110568 0)
(2.90984 0.00494821 0)
(1.89371 -0.0263337 0)
(1.29411 -0.00322636 0)
(0.455622 -0.00297967 0)
(1.01109 0.0136173 0)
(1.95659 0.0377613 0)
(2.58053 0.0963895 0)
(3.58654 0.112477 0)
(4.70959 0.154771 0)
(5.88877 0.183981 0)
(7.099 0.213821 0)
(8.27666 0.230365 0)
(9.2912 0.241239 0)
(9.80339 0.233124 0)
(9.74169 0.198731 0)
(8.97485 0.156981 0)
(7.84489 0.109015 0)
(6.56354 0.0628754 0)
(5.2682 0.0349477 0)
(4.0405 0.00755449 0)
(2.86571 -0.0110873 0)
(1.90017 -0.0344351 0)
(1.33854 -0.00823872 0)
(0.480762 -0.0032904 0)
(1.15616 0.0193798 0)
(2.12422 0.0546029 0)
(2.70129 0.119345 0)
(3.66302 0.140919 0)
(4.77692 0.18149 0)
(5.93157 0.216444 0)
(7.13536 0.244573 0)
(8.30184 0.267223 0)
(9.30412 0.282946 0)
(9.79114 0.268946 0)
(9.71612 0.227149 0)
(8.9345 0.175819 0)
(7.79914 0.123481 0)
(6.51879 0.0742877 0)
(5.21464 0.0329761 0)
(3.99708 0.00369184 0)
(2.81575 -0.0202176 0)
(1.91118 -0.0339946 0)
(1.3729 -0.00675593 0)
(0.494518 -0.00295565 0)
(1.27385 0.0160072 0)
(2.26567 0.0531647 0)
(2.8361 0.123147 0)
(3.75534 0.167263 0)
(4.8729 0.205677 0)
(5.99806 0.247025 0)
(7.18843 0.28182 0)
(8.34269 0.311051 0)
(9.31767 0.328208 0)
(9.77271 0.31377 0)
(9.68552 0.262782 0)
(8.88409 0.202932 0)
(7.73191 0.139089 0)
(6.43871 0.0845762 0)
(5.14161 0.0404848 0)
(3.94507 0.00268567 0)
(2.77414 -0.0269599 0)
(1.93409 -0.0378944 0)
(1.42841 -0.0100177 0)
(0.524804 -0.0019553 0)
(1.42828 0.0251889 0)
(2.45185 0.0649313 0)
(2.98194 0.142625 0)
(3.85749 0.185835 0)
(4.95577 0.236948 0)
(6.0566 0.279273 0)
(7.23423 0.317098 0)
(8.36654 0.356787 0)
(9.32472 0.376405 0)
(9.74562 0.360471 0)
(9.6401 0.305726 0)
(8.81915 0.239322 0)
(7.65655 0.169146 0)
(6.37273 0.112601 0)
(5.08246 0.0457678 0)
(3.88326 0.00566951 0)
(2.73238 -0.0282217 0)
(1.96082 -0.0376245 0)
(1.47592 -0.0062762 0)
(0.539627 -0.0011299 0)
(1.62108 0.0208609 0)
(2.65043 0.0726157 0)
(3.1702 0.151247 0)
(3.99488 0.216468 0)
(5.0811 0.274992 0)
(6.15592 0.325283 0)
(7.29965 0.366578 0)
(8.41516 0.413209 0)
(9.32662 0.436519 0)
(9.7035 0.41897 0)
(9.57629 0.357795 0)
(8.73419 0.282733 0)
(7.55841 0.198582 0)
(6.26367 0.119945 0)
(4.98498 0.0570304 0)
(3.79553 0.00748359 0)
(2.69031 -0.0294639 0)
(1.9882 -0.0323797 0)
(1.53361 -0.00734096 0)
(0.558246 0.00314825 0)
(1.77618 0.0315338 0)
(2.8658 0.0766733 0)
(3.35107 0.178148 0)
(4.13624 0.237537 0)
(5.18864 0.31216 0)
(6.25198 0.37801 0)
(7.3674 0.433117 0)
(8.45 0.48505 0)
(9.31603 0.505216 0)
(9.6418 0.490372 0)
(9.49176 0.415476 0)
(8.6299 0.330632 0)
(7.45354 0.228564 0)
(6.18159 0.135545 0)
(4.9222 0.0579079 0)
(3.71843 0.0020883 0)
(2.6649 -0.0326262 0)
(2.02438 -0.0357345 0)
(1.58216 0.000783494 0)
(0.556649 0.00588972 0)
(2.06116 0.0284173 0)
(3.12077 0.0979293 0)
(3.59767 0.192473 0)
(4.3296 0.283507 0)
(5.3476 0.370419 0)
(6.38588 0.451251 0)
(7.45926 0.524106 0)
(8.51646 0.582664 0)
(9.30828 0.603923 0)
(9.57924 0.575181 0)
(9.39627 0.484275 0)
(8.51164 0.374022 0)
(7.33257 0.250278 0)
(6.04005 0.130326 0)
(4.80107 0.0675485 0)
(3.61681 -0.00346611 0)
(2.636 -0.0284997 0)
(2.07575 -0.0277961 0)
(1.64292 -0.00110918 0)
(0.535091 0.0159142 0)
(2.25181 0.0406819 0)
(3.40345 0.0983768 0)
(3.84342 0.232158 0)
(4.54462 0.323966 0)
(5.52059 0.43564 0)
(6.5344 0.530726 0)
(7.55766 0.625456 0)
(8.59453 0.695988 0)
(9.3066 0.717231 0)
(9.52201 0.681313 0)
(9.31547 0.553349 0)
(8.40485 0.419293 0)
(7.21229 0.280655 0)
(5.93411 0.158608 0)
(4.72278 0.0769241 0)
(3.53986 -0.00599782 0)
(2.62525 -0.027131 0)
(2.10906 -0.0217232 0)
(1.72086 0.0164651 0)
(0.492715 0.0174179 0)
(2.63565 0.0420495 0)
(3.72752 0.133114 0)
(4.16075 0.254281 0)
(4.80507 0.387942 0)
(5.73786 0.518994 0)
(6.7125 0.63283 0)
(7.6882 0.75003 0)
(8.68366 0.827889 0)
(9.30445 0.849483 0)
(9.47699 0.795551 0)
(9.22784 0.644136 0)
(8.27081 0.48734 0)
(7.04927 0.336066 0)
(5.76013 0.186897 0)
(4.56373 0.0907304 0)
(3.42849 0.002616 0)
(2.61608 -0.00992187 0)
(2.18782 -0.000167709 0)
(1.74204 0.0309854 0)
(0.412773 0.0278939 0)
(2.90503 0.0633011 0)
(4.10575 0.144828 0)
(4.49923 0.325672 0)
(5.10607 0.47034 0)
(5.98403 0.635972 0)
(6.90904 0.768007 0)
(7.81216 0.893799 0)
(8.76039 0.975823 0)
(9.27215 0.988432 0)
(9.3824 0.92512 0)
(9.09255 0.748484 0)
(8.09758 0.572908 0)
(6.86515 0.396746 0)
(5.6156 0.227326 0)
(4.45452 0.109932 0)
(3.36791 0.0111806 0)
(2.63929 -0.00142125 0)
(2.26956 0.0105694 0)
(1.81114 0.0343557 0)
(0.296878 0.0503167 0)
(3.50215 0.0919337 0)
(4.53017 0.230093 0)
(4.89182 0.417974 0)
(5.45624 0.612113 0)
(6.26892 0.806703 -7.02892e-33)
(7.129 0.94479 2.39164e-33)
(7.97853 1.08733 0)
(8.82391 1.16481 0)
(9.20215 1.16114 0)
(9.25538 1.08089 0)
(8.9167 0.864926 0)
(7.88914 0.665287 0)
(6.6473 0.450459 0)
(5.40959 0.255615 0)
(4.24603 0.111665 0)
(3.24672 0.0291627 0)
(2.62362 0.014715 0)
(2.31797 0.0368298 0)
(1.80526 0.0684202 0)
(0.0587847 0.0447991 0)
(4.0954 0.228157 -8.71846e-19)
(4.99057 0.341441 7.32382e-19)
(5.29518 0.610369 0)
(5.79765 0.819215 -3.95256e-19)
(6.56036 1.01942 3.19262e-19)
(7.35312 1.18045 -2.53627e-33)
(8.15717 1.33409 0)
(8.85817 1.39917 9.21037e-21)
(9.11224 1.38239 -1.58498e-19)
(9.11093 1.25761 5.29777e-20)
(8.70199 0.996201 0)
(7.62476 0.76108 -3.61921e-19)
(6.37374 0.504756 -4.41449e-19)
(5.16494 0.306098 7.61835e-19)
(4.05411 0.134243 -6.22982e-19)
(3.20337 0.0551316 0)
(2.69672 0.0518249 -2.41273e-19)
(2.41159 0.063575 0)
(1.77794 0.0613484 -1.23423e-18)
(-0.148492 0.0163429 1.48601e-18)
(4.46452 0.439705 5.068e-20)
(5.36278 0.600672 -3.32914e-18)
(5.60404 0.873504 5.27168e-19)
(6.0735 1.07175 1.72272e-18)
(6.77222 1.27742 6.87546e-19)
(7.50563 1.452 -1.07148e-18)
(8.26605 1.60805 0)
(8.83221 1.66725 0)
(9.00228 1.6374 3.11279e-19)
(8.94723 1.47555 0)
(8.47551 1.16979 1.28139e-18)
(7.37449 0.889181 3.95671e-19)
(6.15289 0.609697 -3.87732e-20)
(4.92853 0.343776 -9.78372e-19)
(3.87999 0.200473 0)
(3.1832 0.10443 0)
(2.77017 0.104906 -4.23699e-18)
(2.57245 0.137159 1.06884e-17)
(2.00384 0.131846 -6.3264e-18)
(-0.0334842 0.00803782 -7.46431e-18)
(4.7327 0.696562 3.21671e-18)
(5.65557 0.958319 -1.23059e-18)
(5.87764 1.18593 -4.2726e-19)
(6.28555 1.35039 -3.16585e-18)
(6.91703 1.57186 3.5866e-19)
(7.59829 1.74465 2.89711e-18)
(8.30938 1.90197 -7.72709e-19)
(8.75303 1.94523 0)
(8.85635 1.90746 -7.97311e-19)
(8.75194 1.71351 1.70199e-18)
(8.23032 1.37253 -3.61837e-18)
(7.1406 1.04261 1.8707e-18)
(5.93285 0.720651 -1.4634e-18)
(4.78176 0.438278 3.11931e-18)
(3.90703 0.294635 0)
(3.29815 0.249222 -1.20897e-18)
(2.98669 0.284925 0)
(2.76933 0.314505 6.54721e-18)
(2.06732 0.217788 -1.54678e-17)
(0.102209 0.0320715 9.73386e-18)
(4.92343 0.957731 -1.33268e-17)
(5.89905 1.34559 7.00283e-18)
(6.0768 1.52514 1.19023e-18)
(6.43638 1.68109 0)
(7.02021 1.88852 2.03604e-18)
(7.64995 2.06767 -2.36523e-18)
(8.2912 2.21466 6.96359e-19)
(8.63147 2.24117 0)
(8.68589 2.18468 6.08919e-19)
(8.5277 1.96642 -1.14019e-18)
(7.97242 1.58708 3.68579e-18)
(6.9323 1.21439 0)
(5.76367 0.845532 -3.20964e-18)
(4.69304 0.563071 1.72028e-18)
(3.85976 0.400254 4.56386e-18)
(3.37007 0.350792 -4.1086e-18)
(3.11744 0.386478 6.58021e-18)
(2.93158 0.436302 -1.45569e-17)
(2.33621 0.356099 9.21848e-18)
(0.403694 0.103373 -1.15731e-17)
(5.05274 1.21311 7.5064e-18)
(6.0498 1.70589 -7.42916e-18)
(6.22679 1.85315 3.80935e-18)
(6.54646 1.99035 -5.73119e-18)
(7.07146 2.21242 4.30448e-18)
(7.65999 2.39977 -9.02046e-19)
(8.22913 2.5381 4.13369e-20)
(8.48102 2.55042 1.51405e-19)
(8.49367 2.46764 -8.73511e-19)
(8.29103 2.22891 -3.02605e-18)
(7.71809 1.81239 -8.22513e-18)
(6.7205 1.40379 -2.96642e-18)
(5.57955 0.99516 -1.92542e-20)
(4.61969 0.722261 -6.7311e-18)
(3.97155 0.591884 -1.49522e-19)
(3.57 0.596792 6.30742e-18)
(3.35227 0.647941 -1.97734e-18)
(3.13253 0.69363 -1.092e-18)
(2.45362 0.505695 0)
(0.528899 0.163263 2.63535e-17)
(5.14256 1.45829 0)
(6.18703 2.08549 2.10004e-18)
(6.34367 2.19278 0)
(6.61013 2.33304 -3.03287e-19)
(7.08567 2.54057 -4.84089e-18)
(7.638 2.73249 1.80212e-18)
(8.13477 2.86204 -8.41261e-19)
(8.32037 2.86542 7.62657e-20)
(8.2956 2.75575 -7.65809e-19)
(8.05927 2.49459 9.47405e-19)
(7.47699 2.04554 4.5811e-18)
(6.51735 1.60393 6.64579e-18)
(5.44631 1.16286 -4.23581e-18)
(4.59084 0.895339 7.53275e-18)
(3.98133 0.781642 -6.0339e-18)
(3.63824 0.763705 0)
(3.47089 0.786988 -1.54728e-17)
(3.27041 0.825657 2.07123e-17)
(2.6557 0.66561 1.59088e-18)
(0.804015 0.270085 -2.9186e-17)
(5.18443 1.68958 -3.2128e-19)
(6.24138 2.39793 -5.37462e-18)
(6.41423 2.49935 -1.74986e-17)
(6.64726 2.64396 1.04498e-17)
(7.07778 2.86046 -3.07616e-18)
(7.58873 3.05711 2.01731e-18)
(8.01109 3.18092 -1.89108e-18)
(8.14733 3.17492 4.45169e-19)
(8.09559 3.04093 -2.33486e-18)
(7.83398 2.7588 -1.86032e-19)
(7.24336 2.28321 -5.44437e-18)
(6.31945 1.81059 -7.53403e-18)
(5.31986 1.36246 4.82483e-18)
(4.57926 1.12151 -2.78482e-18)
(4.13192 1.04505 6.78299e-18)
(3.86059 1.05111 0)
(3.69274 1.08381 -9.90918e-18)
(3.4725 1.11352 1.468e-17)
(2.83163 0.86072 2.81135e-17)
(0.947063 0.376979 -3.2976e-17)
(5.20238 1.89801 -1.96823e-17)
(6.30471 2.7559 1.3294e-17)
(6.45778 2.80066 1.12405e-17)
(6.65821 2.96065 -1.11892e-17)
(7.0468 3.17208 3.40468e-19)
(7.51092 3.37501 4.6038e-18)
(7.86937 3.48778 5.96177e-19)
(7.96673 3.4732 -3.82056e-19)
(7.89927 3.31723 -2.03173e-18)
(7.6143 3.01793 3.043e-18)
(7.01617 2.52041 4.98305e-18)
(6.12945 2.01809 1.18281e-17)
(5.22021 1.57065 0)
(4.57346 1.33493 2.27304e-19)
(4.13773 1.26079 -1.91574e-17)
(3.86801 1.25345 4.46551e-18)
(3.72178 1.26014 2.1935e-17)
(3.50704 1.30108 -6.38251e-18)
(2.88903 1.04708 1.38149e-17)
(1.0219 0.450527 -1.08996e-18)
(5.19763 2.10587 4.62358e-19)
(6.29622 3.01956 1.1918e-17)
(6.49676 3.05077 8.20152e-18)
(6.65179 3.2384 -1.87152e-17)
(6.99257 3.47193 1.31746e-17)
(7.41208 3.67651 -5.02854e-18)
(7.71424 3.77845 -6.36548e-19)
(7.78427 3.75569 3.18534e-19)
(7.70541 3.58054 2.78563e-18)
(7.39682 3.2672 -4.74023e-18)
(6.79567 2.7514 0)
(5.95353 2.22631 -4.7558e-18)
(5.1343 1.79571 5.45209e-18)
(4.58095 1.59225 7.10632e-18)
(4.25269 1.53616 -4.12662e-18)
(4.04249 1.53359 -1.00992e-17)
(3.89234 1.53387 -3.06509e-18)
(3.65926 1.54477 -1.00927e-19)
(2.98499 1.21735 0)
(1.0703 0.524078 0)
(5.1889 2.28685 -1.05685e-17)
(6.3303 3.33523 0)
(6.49669 3.31374 8.95286e-18)
(6.61285 3.51748 -3.90803e-18)
(6.91466 3.74944 -1.33014e-17)
(7.29673 3.96149 3.78211e-18)
(7.55289 4.05186 -6.73355e-19)
(7.6105 4.02005 9.63005e-20)
(7.5174 3.83059 1.91872e-18)
(7.18757 3.50539 -2.32947e-18)
(6.58702 2.97337 2.96401e-18)
(5.79054 2.43383 1.50108e-17)
(5.05146 2.02239 4.72115e-19)
(4.55389 1.81997 -7.40815e-18)
(4.22018 1.74832 1.39883e-17)
(3.99258 1.73633 1.3116e-19)
(3.85644 1.72117 3.28291e-18)
(3.63522 1.72864 -1.60871e-17)
(2.98807 1.36686 1.64777e-17)
(1.05865 0.567671 -1.8962e-17)
(5.15196 2.47706 -3.74896e-21)
(6.29616 3.58191 0)
(6.49329 3.54377 0)
(6.56669 3.75847 3.70124e-18)
(6.82409 4.01067 4.95664e-18)
(7.17148 4.22109 -2.91284e-18)
(7.39209 4.3039 2.58981e-18)
(7.44457 4.26534 0)
(7.33324 4.06656 -3.29729e-18)
(6.98662 3.73026 7.21738e-18)
(6.38889 3.18529 9.4334e-18)
(5.6375 2.64168 -5.68003e-18)
(4.96846 2.2569 -6.94891e-18)
(4.53289 2.07252 1.63593e-17)
(4.26399 2.01101 -4.9712e-18)
(4.09177 1.99249 -5.98918e-18)
(3.94061 1.93035 -3.66966e-18)
(3.70686 1.94062 -1.75895e-17)
(2.99576 1.49949 2.42765e-18)
(1.03447 0.600636 2.0144e-17)
(5.12863 2.6391 -4.7238e-18)
(6.29629 3.85079 -7.09923e-18)
(6.46349 3.78157 5.8371e-19)
(6.49065 4.01116 2.33678e-21)
(6.72328 4.24603 1.72234e-18)
(7.04137 4.45777 -6.81279e-18)
(7.23768 4.53353 0)
(7.28462 4.491 4.62456e-19)
(7.15484 4.28794 -3.63887e-19)
(6.79634 3.94106 1.18445e-17)
(6.2026 3.38679 -2.29939e-18)
(5.49213 2.84628 2.60306e-18)
(4.87739 2.48353 0)
(4.47369 2.29656 -8.90526e-18)
(4.17996 2.19348 1.09796e-17)
(3.98742 2.17933 0)
(3.85615 2.09526 -8.05413e-18)
(3.63899 2.06694 2.35334e-17)
(2.95523 1.6201 2.86041e-18)
(0.98173 0.621134 -2.50452e-17)
(5.07598 2.81567 -1.00762e-17)
(6.25956 4.07763 1.24465e-17)
(6.42213 4.00446 0)
(6.42402 4.22538 8.52264e-18)
(6.62494 4.46568 0)
(6.91652 4.6703 6.64161e-18)
(7.08924 4.74064 0)
(7.12623 4.69659 0)
(6.97997 4.49229 -1.42857e-18)
(6.61347 4.13568 -1.15706e-17)
(6.02437 3.57639 -1.75512e-17)
(5.34727 3.04762 3.24139e-18)
(4.77525 2.70551 1.19387e-17)
(4.40986 2.53327 9.93844e-18)
(4.17438 2.42259 -3.52141e-17)
(4.02378 2.39648 -1.44984e-17)
(3.88477 2.29002 8.42479e-18)
(3.63223 2.24009 0)
(2.89871 1.70161 2.47217e-17)
(0.907357 0.631777 -2.72207e-17)
(5.04172 2.95504 1.10829e-17)
(6.21656 4.3173 -1.34295e-17)
(6.37592 4.22238 0)
(6.34148 4.45328 -3.66413e-19)
(6.527 4.66878 -3.38541e-18)
(6.79787 4.86449 0)
(6.94667 4.92931 -4.67864e-19)
(6.96995 4.88343 8.92999e-19)
(6.81115 4.67905 -1.92997e-18)
(6.43884 4.31444 1.18803e-18)
(5.85707 3.75522 0)
(5.20661 3.24228 1.3013e-17)
(4.67381 2.91498 4.13795e-20)
(4.32375 2.7358 5.36548e-18)
(4.06988 2.59253 6.47341e-18)
(3.87312 2.53504 0)
(3.76102 2.41936 -1.42606e-17)
(3.52357 2.32878 2.79529e-17)
(2.80978 1.77613 -2.98359e-17)
(0.811458 0.618867 5.92675e-17)
(4.98007 3.10665 0)
(6.17429 4.51084 0)
(6.32273 4.42199 -6.97388e-18)
(6.2712 4.64558 0)
(6.44381 4.85855 0)
(6.68555 5.04159 7.61587e-18)
(6.80842 5.10146 -5.00943e-19)
(6.81715 5.05351 6.78802e-19)
(6.64689 4.8478 -2.17769e-19)
(6.27176 4.47677 0)
(5.69764 3.9224 -2.80463e-18)
(5.06927 3.43027 -1.07569e-17)
(4.56691 3.11895 -1.32865e-17)
(4.23656 2.94114 -5.42448e-18)
(4.03037 2.80508 7.04316e-18)
(3.8755 2.7388 -1.66782e-17)
(3.74741 2.58909 3.07271e-17)
(3.47135 2.47519 4.79143e-19)
(2.70258 1.81693 -2.81822e-17)
(0.694141 0.591796 -4.08115e-18)
(4.94441 3.24598 0)
(6.12967 4.73532 -9.67585e-18)
(6.26807 4.62745 7.85436e-18)
(6.2024 4.84578 0)
(6.3628 5.03671 0)
(6.57685 5.20677 -1.63625e-17)
(6.6769 5.26065 0)
(6.6705 5.20933 0)
(6.49133 5.00099 -4.53912e-18)
(6.11495 4.62514 2.36538e-18)
(5.54779 4.07823 -2.32508e-17)
(4.94253 3.60944 0)
(4.46988 3.31082 -1.41315e-17)
(4.14649 3.12154 4.08623e-19)
(3.90712 2.95422 -2.2121e-17)
(3.70461 2.85883 9.02078e-18)
(3.59002 2.69444 1.91558e-19)
(3.32955 2.53538 -3.30082e-17)
(2.56723 1.86058 1.52535e-17)
(0.559718 0.541577 4.44702e-18)
(4.87836 3.37616 0)
(6.06706 4.89828 -1.10476e-17)
(6.22494 4.79961 8.06291e-18)
(6.14827 5.01657 1.6868e-17)
(6.29084 5.20498 3.39221e-18)
(6.47421 5.3604 -1.86043e-18)
(6.55217 5.40843 1.42363e-18)
(6.53136 5.35287 -5.28199e-19)
(6.3449 5.14068 4.86366e-18)
(5.96874 4.76118 1.60625e-17)
(5.40899 4.22434 1.93675e-17)
(4.8251 3.78014 3.5821e-18)
(4.37052 3.49654 2.0504e-17)
(4.04976 3.31034 1.28625e-17)
(3.83831 3.14751 1.59268e-17)
(3.67658 3.04559 -9.767e-18)
(3.53839 2.85263 -1.2021e-17)
(3.23018 2.65553 1.41832e-17)
(2.41775 1.85238 -8.44027e-18)
(0.382067 0.474266 1.48473e-17)
(4.85829 3.49751 1.57813e-17)
(6.04892 5.09205 1.7536e-17)
(6.18402 4.98968 4.19389e-18)
(6.09252 5.19512 1.82406e-19)
(6.22049 5.36505 -1.18038e-17)
(6.37747 5.50613 4.64535e-18)
(6.43713 5.54785 -1.54589e-18)
(6.40226 5.48668 -1.20981e-19)
(6.2116 5.2701 -5.97403e-18)
(5.83562 4.88786 -1.77793e-17)
(5.28477 4.36326 1.23597e-18)
(4.72068 3.94247 0)
(4.2826 3.67035 0)
(3.95989 3.47768 -6.63429e-18)
(3.70911 3.29084 -2.54094e-17)
(3.48395 3.15698 2.09482e-17)
(3.35138 2.93831 1.2882e-17)
(3.05626 2.68496 0)
(2.2225 1.84683 2.6903e-17)
(0.189582 0.340127 -1.62593e-17)
(4.81169 3.6239 -8.19527e-18)
(5.99309 5.24584 6.81621e-18)
(6.14673 5.14306 -9.48605e-18)
(6.04553 5.34884 -1.03645e-17)
(6.15719 5.51673 -4.4799e-18)
(6.28746 5.64319 1.35811e-18)
(6.33085 5.67955 0)
(6.28422 5.61256 4.14702e-19)
(6.09024 5.39095 4.64387e-19)
(5.71441 5.00617 0)
(5.17291 4.49503 0)
(4.62393 4.09643 2.36868e-18)
(4.19047 3.8373 3.35835e-18)
(3.85697 3.65155 -7.01381e-18)
(3.61667 3.47324 1.83077e-17)
(3.43709 3.32818 -2.26078e-17)
(3.26785 3.08612 -2.76923e-17)
(2.90184 2.77194 2.49534e-17)
(1.94966 1.74266 -9.83296e-18)
(0.0499678 0.241833 5.85585e-18)
(4.7959 3.74808 9.45414e-18)
(5.96584 5.40746 0)
(6.10524 5.30618 0)
(5.99496 5.50395 -3.38054e-18)
(6.09645 5.65972 2.71223e-18)
(6.20508 5.7739 -2.68312e-19)
(6.23626 5.80551 -4.93403e-18)
(6.17882 5.73257 -1.37357e-18)
(5.98237 5.50555 1.03481e-17)
(5.60572 5.11829 -1.43676e-18)
(5.0726 4.62004 3.17222e-18)
(4.53555 4.24126 -2.017e-17)
(4.10775 3.99271 -2.07004e-17)
(3.76936 3.80685 -3.67138e-18)
(3.49241 3.61651 0)
(3.23372 3.44786 -3.22901e-19)
(3.04257 3.16337 1.43625e-17)
(2.67642 2.73591 -2.70143e-17)
(1.77251 1.66203 2.0349e-17)
(-0.0800598 -0.202255 1.89306e-17)
(4.76304 3.86121 -2.03801e-17)
(5.93179 5.55786 -8.08426e-18)
(6.08108 5.44964 1.15946e-19)
(5.95968 5.64305 4.2608e-18)
(6.04153 5.79537 0)
(6.12919 5.8991 1.17587e-17)
(6.14834 5.92708 5.8757e-18)
(6.08148 5.84912 -7.7377e-19)
(5.88131 5.6168 -5.14382e-18)
(5.50274 5.22735 -1.38581e-18)
(4.97669 4.7421 1.28212e-18)
(4.44857 4.3829 1.76243e-17)
(4.02046 4.14807 2.00929e-17)
(3.66778 3.97484 3.49994e-18)
(3.38856 3.80103 1.83043e-17)
(3.16419 3.62915 0)
(2.93376 3.31964 0)
(2.44697 2.81518 1.72897e-17)
(1.3126 1.32928 9.48965e-20)
(0.00496668 0.499478 -1.87762e-17)
(4.75324 3.98255 1.09951e-17)
(5.90277 5.7106 2.43394e-17)
(6.05459 5.61202 -3.61211e-17)
(5.91742 5.79108 2.16393e-17)
(5.98697 5.92731 -2.44721e-18)
(6.05857 6.02065 1.49524e-17)
(6.06675 6.04599 0)
(5.98971 5.96338 1.86962e-18)
(5.785 5.72655 0)
(5.40375 5.33636 1.72826e-17)
(4.8838 4.86454 -1.76266e-18)
(4.36432 4.5252 1.97091e-18)
(3.9402 4.3051 2.26361e-17)
(3.58342 4.14111 -7.63832e-18)
(3.27174 3.97074 -9.63159e-18)
(2.95329 3.79121 0)
(2.61897 3.45605 0)
(1.98372 2.76068 0)
(0.888505 1.63953 -9.4979e-18)
(0.307689 1.99816 -5.91777e-18)
(4.72153 4.08811 0)
(5.87971 5.8351 0)
(6.01985 5.72905 1.28992e-17)
(5.86741 5.91114 -1.80134e-17)
(5.93587 6.05103 1.19742e-17)
(5.9893 6.13468 -1.3642e-17)
(5.98723 6.15909 -5.5509e-19)
(5.90052 6.07249 4.35331e-19)
(5.69067 5.83208 9.47434e-19)
(5.30699 5.44253 -1.97661e-17)
(4.79394 4.98506 3.00356e-18)
(4.28377 4.66627 1.73876e-17)
(3.86156 4.46429 -2.24959e-17)
(3.4915 4.321 -2.513e-17)
(3.16849 4.17944 8.69524e-18)
(2.87324 4.01467 0)
(2.49702 3.63281 1.35646e-17)
(1.60126 2.66888 1.60207e-17)
(1.01464 2.26725 -1.79245e-17)
(0.642604 2.84924 2.21248e-17)
(4.69412 4.19483 0)
(5.82157 5.96257 1.96187e-17)
(5.9642 5.85432 -3.30308e-18)
(5.82687 6.0345 2.24598e-17)
(5.8869 6.16443 -1.2574e-17)
(5.92387 6.24349 0)
(5.91197 6.26677 0)
(5.81446 6.1765 0)
(5.59929 5.93333 3.0722e-18)
(5.21383 5.54609 6.95265e-19)
(4.70875 5.10355 0)
(4.20987 4.80543 -1.71952e-17)
(3.79426 4.62209 0)
(3.42418 4.49709 1.79411e-17)
(3.08324 4.3711 -1.23726e-17)
(2.7103 4.19639 -1.00315e-17)
(2.18804 3.71118 -2.55466e-17)
(1.40011 2.956 -1.45322e-17)
(0.988324 2.98604 -2.59271e-17)
(0.865688 3.38218 1.82482e-17)
(4.66781 4.28771 -6.9165e-18)
(5.8093 6.10005 3.97228e-19)
(5.97269 5.99631 -3.49366e-18)
(5.8112 6.16413 -1.75772e-17)
(5.83359 6.27116 0)
(5.86453 6.34985 0)
(5.8365 6.36831 0)
(5.72956 6.27511 7.71735e-21)
(5.50912 6.03 -4.06876e-18)
(5.12275 5.64645 0)
(4.62794 5.22004 0)
(4.1423 4.94309 0)
(3.73308 4.78021 0)
(3.35744 4.67978 1.33525e-17)
(3.01033 4.58138 3.3881e-17)
(2.65429 4.39328 1.06927e-17)
(2.1337 3.81147 2.45098e-17)
(1.62311 3.33093 -2.01712e-17)
(1.182 3.65482 8.35358e-18)
(1.04008 3.80643 0)
(4.6601 4.36816 6.68673e-18)
(5.80687 6.22046 -3.92344e-17)
(5.95099 6.13369 -1.09737e-17)
(5.75634 6.28978 -2.69227e-18)
(5.7858 6.38563 2.92032e-18)
(5.80686 6.45299 -1.99227e-17)
(5.76317 6.46832 1.29905e-18)
(5.6466 6.37066 4.5273e-18)
(5.42105 6.12414 0)
(5.03536 5.74557 -1.25716e-18)
(4.55256 5.33538 1.1447e-18)
(4.08209 5.07871 0)
(3.68437 4.93594 0)
(3.3188 4.85764 -1.67145e-17)
(2.9771 4.77099 3.0308e-18)
(2.57774 4.54601 -1.00638e-17)
(1.94991 3.96538 2.23103e-17)
(1.38482 3.75729 1.99594e-17)
(1.05968 4.09375 -3.49858e-17)
(0.98752 4.17435 1.83307e-17)
(4.61446 4.45327 1.24819e-17)
(5.75461 6.31985 3.64277e-17)
(5.87429 6.21471 1.3249e-17)
(5.69827 6.38823 0)
(5.74319 6.49594 0)
(5.73737 6.55361 1.51756e-17)
(5.68634 6.56848 -7.9506e-18)
(5.55955 6.46498 -4.28273e-18)
(5.33111 6.21749 -4.30972e-20)
(4.94801 5.84456 1.39784e-17)
(4.48028 5.45077 -2.07595e-17)
(4.02752 5.21312 0)
(3.64425 5.09042 0)
(3.28816 5.03612 -1.19358e-17)
(2.94869 4.96483 -1.55765e-17)
(2.54302 4.7142 0)
(1.96955 4.16326 -3.25244e-17)
(1.6218 4.17413 -6.08712e-18)
(1.41048 4.61015 3.56448e-17)
(1.11432 4.61519 -1.87956e-17)
(4.56565 4.52957 -2.36743e-17)
(5.69922 6.43718 -1.73317e-17)
(5.84445 6.35629 0)
(5.67715 6.52572 0)
(5.6867 6.60393 0)
(5.66785 6.66129 0)
(5.60624 6.66832 8.36407e-18)
(5.46919 6.55963 -5.64226e-18)
(5.23943 6.31072 0)
(4.86148 5.94414 -1.25903e-17)
(4.41087 5.56558 3.7445e-17)
(3.97809 5.34449 1.60087e-18)
(3.61538 5.23947 2.41622e-18)
(3.28147 5.20603 2.02252e-17)
(2.95534 5.13699 -1.35138e-17)
(2.50861 4.81728 0)
(2.03447 4.45674 1.0326e-17)
(1.57409 4.75633 6.97287e-19)
(1.136 5.00286 -5.50689e-18)
(0.742377 5.07305 1.13344e-17)
(4.54105 4.61362 1.1221e-17)
(5.69387 6.58282 -1.68832e-17)
(5.82715 6.50203 0)
(5.62166 6.66257 -4.07698e-18)
(5.6118 6.71766 1.53076e-17)
(5.59476 6.77287 0)
(5.51439 6.76731 0)
(5.37315 6.65355 1.02293e-17)
(5.14408 6.40273 -5.68342e-19)
(4.77347 6.04285 1.21887e-17)
(4.34258 5.67872 -1.77849e-17)
(3.93263 5.4716 1.15262e-17)
(3.59412 5.38143 0)
(3.28212 5.36526 -1.10621e-17)
(2.96022 5.29424 6.8945e-18)
(2.54382 5.00297 7.49323e-18)
(2.07314 4.74511 0)
(1.71422 5.07332 5.2579e-18)
(1.29351 5.68148 8.97433e-18)
(1.16473 5.86151 2.64881e-18)
(4.47792 4.68854 -2.11918e-17)
(5.62898 6.68278 2.43073e-17)
(5.74174 6.61488 1.73813e-17)
(5.53553 6.77596 -4.54147e-18)
(5.54493 6.83548 -2.30567e-17)
(5.50886 6.87763 0)
(5.41929 6.86745 7.01864e-18)
(5.27477 6.74662 -4.32544e-18)
(5.04699 6.49389 -2.08914e-19)
(4.68594 6.14061 -1.06101e-17)
(4.27587 5.78897 -8.67099e-19)
(3.89015 5.59259 -1.29278e-17)
(3.57946 5.51184 1.58336e-17)
(3.29781 5.50539 5.06119e-18)
(3.00305 5.43866 -1.18285e-17)
(2.55328 5.11018 1.27072e-17)
(2.28443 4.97197 0)
(1.92428 5.72882 0)
(1.68215 6.27085 1.90194e-18)
(0.49458 6.30829 -6.29292e-18)
(4.39728 4.76913 1.01647e-17)
(5.55028 6.82594 2.25821e-17)
(5.66634 6.73796 -1.71402e-17)
(5.47007 6.89785 1.62776e-17)
(5.46645 6.94673 2.22775e-17)
(5.41094 6.98149 0)
(5.31868 6.96599 -7.46711e-18)
(5.17048 6.83725 -5.70804e-18)
(4.94755 6.58228 0)
(4.59732 6.23477 0)
(4.21018 5.89421 0)
(3.85089 5.70555 0)
(3.56953 5.62958 -1.80401e-17)
(3.31827 5.62442 -6.89256e-18)
(3.0397 5.53798 0)
(2.67088 5.26857 -6.49991e-18)
(2.50073 5.39201 0)
(2.52712 5.75612 -2.8969e-18)
(2.59064 5.71355 2.80806e-18)
(1.42087 5.73271 -5.37762e-19)
(4.32138 4.84232 -1.94467e-17)
(5.47642 6.95523 -1.43463e-17)
(5.60859 6.89782 -1.07156e-17)