/*--------------------------------*- C++ -*----------------------------------*\
| =========                 |                                                 |
| \\      /  F ield         | OpenFOAM: The Open Source CFD Toolbox           |
|  \\    /   O peration     | Version:  2412                                  |
|   \\  /    A nd           | Website:  www.openfoam.com                      |
|    \\/     M anipulation  |                                                 |
\*---------------------------------------------------------------------------*/
FoamFile
{
    version     2.0;
    format      ascii;
    arch        "LSB;label=32;scalar=64";
    class       volVectorField;
    location    "0.02";
    object      U_0_0;
}
// * * * * * * * * * * * * * * * * * * * * * * * * * * * * * * * * * * * * * //

dimensions      [0 1 -1 0 0 0 0];

internalField   nonuniform List<vector> 
800
(
(0.0037054 0 0)
(0.0111162 0 0)
(0.0185264 0 0)
(0.0259357 0 0)
(0.0333436 0 0)
(0.0407498 0 0)
(0.0481539 0 0)
(0.0555554 0 0)
(0.0629541 0 0)
(0.0703495 0 0)
(0.0777413 0 0)
(0.085129 0 0)
(0.0925123 0 0)
(0.0998908 0 0)
(0.107264 0 0)
(0.114632 0 0)
(0.121994 0 0)
(0.129349 0 0)
(0.136698 0 0)
(0.14404 0 0)
(0.151374 0 0)
(0.1587 0 0)
(0.166018 0 0)
(0.173328 0 0)
(0.180628 0 0)
(0.187919 0 0)
(0.1952 0 0)
(0.202471 0 0)
(0.209732 0 0)
(0.216982 0 0)
(0.22422 0 0)
(0.231447 0 0)
(0.238661 0 0)
(0.245864 0 0)
(0.253053 0 0)
(0.260229 0 0)
(0.267392 0 0)
(0.274541 0 0)
(0.281675 0 0)
(0.288795 0 0)
(0.295899 0 0)
(0.302988 0 0)
(0.310062 0 0)
(0.317119 0 0)
(0.324159 0 0)
(0.331183 0 0)
(0.338189 0 0)
(0.345177 0 0)
(0.352148 0 0)
(0.3591 0 0)
(0.366033 0 0)
(0.372947 0 0)
(0.379841 0 0)
(0.386715 0 0)
(0.39357 0 0)
(0.400403 0 0)
(0.407215 0 0)
(0.414006 0 0)
(0.420775 0 0)
(0.427522 0 0)
(0.434247 0 0)
(0.440948 0 0)
(0.447626 0 0)
(0.454281 0 0)
(0.460912 0 0)
(0.467518 0 0)
(0.4741 0 0)
(0.480656 0 0)
(0.487187 0 0)
(0.493692 0 0)
(0.500171 0 0)
(0.506624 0 0)
(0.51305 0 0)
(0.519448 0 0)
(0.525819 0 0)
(0.532162 0 0)
(0.538476 0 0)
(0.544762 0 0)
(0.551019 0 0)
(0.557246 0 0)
(0.563444 0 0)
(0.569612 0 0)
(0.575749 0 0)
(0.581856 0 0)
(0.587931 0 0)
(0.593974 0 0)
(0.599986 0 0)
(0.605966 0 0)
(0.611913 0 0)
(0.617828 0 0)
(0.623709 0 0)
(0.629557 0 0)
(0.63537 0 0)
(0.64115 0 0)
(0.646895 0 0)
(0.652605 0 0)
(0.658279 0 0)
(0.663918 0 0)
(0.669522 0 0)
(0.675088 0 0)
(0.680619 0 0)
(0.686112 0 0)
(0.691568 0 0)
(0.696987 0 0)
(0.702368 0 0)
(0.70771 0 0)
(0.713014 0 0)
(0.718279 0 0)
(0.723505 0 0)
(0.728691 0 0)
(0.733837 0 0)
(0.738943 0 0)
(0.744009 0 0)
(0.749033 0 0)
(0.754017 0 0)
(0.758959 0 0)
(0.76386 0 0)
(0.768718 0 0)
(0.773534 0 0)
(0.778308 0 0)
(0.783038 0 0)
(0.787725 0 0)
(0.792369 0 0)
(0.796968 0 0)
(0.801523 0 0)
(0.806034 0 0)
(0.8105 0 0)
(0.814921 0 0)
(0.819296 0 0)
(0.823626 0 0)
(0.82791 0 0)
(0.832148 0 0)
(0.836339 0 0)
(0.840483 0 0)
(0.84458 0 0)
(0.848629 0 0)
(0.852631 0 0)
(0.856585 0 0)
(0.860491 0 0)
(0.864348 0 0)
(0.868156 0 0)
(0.871916 0 0)
(0.875626 0 0)
(0.879286 0 0)
(0.882897 0 0)
(0.886457 0 0)
(0.889967 0 0)
(0.893426 0 0)
(0.896835 0 0)
(0.900192 0 0)
(0.903498 0 0)
(0.906752 0 0)
(0.909954 0 0)
(0.913104 0 0)
(0.916202 0 0)
(0.919247 0 0)
(0.922239 0 0)
(0.925178 0 0)
(0.928063 0 0)
(0.930895 0 0)
(0.933673 0 0)
(0.936397 0 0)
(0.939067 0 0)
(0.941682 0 0)
(0.944243 0 0)
(0.946749 0 0)
(0.949199 0 0)
(0.951594 0 0)
(0.953933 0 0)
(0.956217 0 0)
(0.958444 0 0)
(0.960616 0 0)
(0.962731 0 0)
(0.964789 0 0)
(0.966791 0 0)
(0.968735 0 0)
(0.970622 0 0)
(0.972452 0 0)
(0.974225 0 0)
(0.97594 0 0)
(0.977596 0 0)
(0.979195 0 0)
(0.980735 0 0)
(0.982217 0 0)
(0.98364 0 0)
(0.985005 0 0)
(0.98631 0 0)
(0.987557 0 0)
(0.988744 0 0)
(0.989871 0 0)
(0.99094 0 0)
(0.991948 0 0)
(0.992897 0 0)
(0.993785 0 0)
(0.994614 0 0)
(0.995382 0 0)
(0.99609 0 0)
(0.996738 0 0)
(0.997324 0 0)
(0.99785 0 0)
(0.998315 0 0)
(0.99872 0 0)
(0.999063 0 0)
(0.999344 0 0)
(0.999565 0 0)
(0.999724 0 0)
(0.999822 0 0)
(0.999858 0 0)
(0.999832 0 0)
(0.999744 0 0)
(0.999595 0 0)
(0.999384 0 0)
(0.999111 0 0)
(0.998775 0 0)
(0.998378 0 0)
(0.997918 0 0)
(0.997396 0 0)
(0.996812 0 0)
(0.996165 0 0)
(0.995456 0 0)
(0.994685 0 0)
(0.993851 0 0)
(0.992954 0 0)
(0.991995 0 0)
(0.990973 0 0)
(0.989889 0 0)
(0.988742 0 0)
(0.987532 0 0)
(0.98626 0 0)
(0.984925 0 0)
(0.983528 0 0)
(0.982067 0 0)
(0.980544 0 0)
(0.978959 0 0)
(0.97731 0 0)
(0.975599 0 0)
(0.973825 0 0)
(0.971989 0 0)
(0.97009 0 0)
(0.968129 0 0)
(0.966105 0 0)
(0.964019 0 0)
(0.961871 0 0)
(0.95966 0 0)
(0.957386 0 0)
(0.955051 0 0)
(0.952653 0 0)
(0.950194 0 0)
(0.947672 0 0)
(0.945088 0 0)
(0.942443 0 0)
(0.939735 0 0)
(0.936966 0 0)
(0.934136 0 0)
(0.931244 0 0)
(0.928291 0 0)
(0.925276 0 0)
(0.9222 0 0)
(0.919063 0 0)
(0.915866 0 0)
(0.912607 0 0)
(0.909288 0 0)
(0.905909 0 0)
(0.902469 0 0)
(0.898969 0 0)
(0.895409 0 0)
(0.891789 0 0)
(0.888109 0 0)
(0.88437 0 0)
(0.880571 0 0)
(0.876713 0 0)
(0.872796 0 0)
(0.868821 0 0)
(0.864787 0 0)
(0.860694 0 0)
(0.856543 0 0)
(0.852334 0 0)
(0.848067 0 0)
(0.843743 0 0)
(0.839361 0 0)
(0.834922 0 0)
(0.830427 0 0)
(0.825874 0 0)
(0.821265 0 0)
(0.8166 0 0)
(0.811879 0 0)
(0.807102 0 0)
(0.80227 0 0)
(0.797383 0 0)
(0.792441 0 0)
(0.787444 0 0)
(0.782393 0 0)
(0.777287 0 0)
(0.772128 0 0)
(0.766916 0 0)
(0.76165 0 0)
(0.756332 0 0)
(0.750961 0 0)
(0.745537 0 0)
(0.740062 0 0)
(0.734536 0 0)
(0.728958 0 0)
(0.723329 0 0)
(0.717649 0 0)
(0.71192 0 0)
(0.70614 0 0)
(0.70031 0 0)
(0.694432 0 0)
(0.688505 0 0)
(0.682529 0 0)
(0.676505 0 0)
(0.670434 0 0)
(0.664315 0 0)
(0.658149 0 0)
(0.651937 0 0)
(0.645678 0 0)
(0.639374 0 0)
(0.633024 0 0)
(0.626629 0 0)
(0.62019 0 0)
(0.613707 0 0)
(0.607179 0 0)
(0.600609 0 0)
(0.593996 0 0)
(0.58734 0 0)
(0.580643 0 0)
(0.573903 0 0)
(0.567123 0 0)
(0.560302 0 0)
(0.553441 0 0)
(0.54654 0 0)
(0.5396 0 0)
(0.532621 0 0)
(0.525604 0 0)
(0.518548 0 0)
(0.511456 0 0)
(0.504326 0 0)
(0.497161 0 0)
(0.489959 0 0)
(0.482722 0 0)
(0.475449 0 0)
(0.468143 0 0)
(0.460802 0 0)
(0.453428 0 0)
(0.446021 0 0)
(0.438582 0 0)
(0.431111 0 0)
(0.423608 0 0)
(0.416075 0 0)
(0.408511 0 0)
(0.400918 0 0)
(0.393295 0 0)
(0.385644 0 0)
(0.377965 0 0)
(0.370258 0 0)
(0.362524 0 0)
(0.354763 0 0)
(0.346976 0 0)
(0.339164 0 0)
(0.331327 0 0)
(0.323466 0 0)
(0.315581 0 0)
(0.307673 0 0)
(0.299743 0 0)
(0.29179 0 0)
(0.283816 0 0)
(0.275821 0 0)
(0.267806 0 0)
(0.259771 0 0)
(0.251717 0 0)
(0.243645 0 0)
(0.235554 0 0)
(0.227447 0 0)
(0.219322 0 0)
(0.211181 0 0)
(0.203025 0 0)
(0.194854 0 0)
(0.186668 0 0)
(0.178469 0 0)
(0.170256 0 0)
(0.162031 0 0)
(0.153794 0 0)
(0.145545 0 0)
(0.137286 0 0)
(0.129017 0 0)
(0.120738 0 0)
(0.11245 0 0)
(0.104154 0 0)
(0.0958497 0 0)
(0.0875387 0 0)
(0.0792213 0 0)
(0.0708979 0 0)
(0.0625694 0 0)
(0.0542362 0 0)
(0.0458989 0 0)
(0.0375583 0 0)
(0.0292149 0 0)
(0.0208693 0 0)
(0.0125222 0 0)
(0.00417418 0 0)
(-0.00417418 0 0)
(-0.0125222 0 0)
(-0.0208693 0 0)
(-0.0292149 0 0)
(-0.0375583 0 0)
(-0.0458989 0 0)
(-0.0542362 0 0)
(-0.0625694 0 0)
(-0.0708979 0 0)
(-0.0792213 0 0)
(-0.0875387 0 0)
(-0.0958497 0 0)
(-0.104154 0 0)
(-0.11245 0 0)
(-0.120738 0 0)
(-0.129017 0 0)
(-0.137286 0 0)
(-0.145545 0 0)
(-0.153794 0 0)
(-0.162031 0 0)
(-0.170256 0 0)
(-0.178468 0 0)
(-0.186668 0 0)
(-0.194854 0 0)
(-0.203025 0 0)
(-0.211181 0 0)
(-0.219322 0 0)
(-0.227446 0 0)
(-0.235554 0 0)
(-0.243645 0 0)
(-0.251717 0 0)
(-0.259771 0 0)
(-0.267806 0 0)
(-0.275821 0 0)
(-0.283816 0 0)
(-0.29179 0 0)
(-0.299743 0 0)
(-0.307673 0 0)
(-0.315581 0 0)
(-0.323466 0 0)
(-0.331327 0 0)
(-0.339164 0 0)
(-0.346976 0 0)
(-0.354763 0 0)
(-0.362523 0 0)
(-0.370257 0 0)
(-0.377964 0 0)
(-0.385644 0 0)
(-0.393295 0 0)
(-0.400918 0 0)
(-0.408511 0 0)
(-0.416075 0 0)
(-0.423608 0 0)
(-0.431111 0 0)
(-0.438582 0 0)
(-0.446021 0 0)
(-0.453428 0 0)
(-0.460802 0 0)
(-0.468143 0 0)
(-0.475449 0 0)
(-0.482721 0 0)
(-0.489959 0 0)
(-0.49716 0 0)
(-0.504326 0 0)
(-0.511456 0 0)
(-0.518548 0 0)
(-0.525603 0 0)
(-0.532621 0 0)
(-0.5396 0 0)
(-0.54654 0 0)
(-0.553441 0 0)
(-0.560302 0 0)
(-0.567123 0 0)
(-0.573903 0 0)
(-0.580642 0 0)
(-0.58734 0 0)
(-0.593996 0 0)
(-0.600609 0 0)
(-0.607179 0 0)
(-0.613706 0 0)
(-0.62019 0 0)
(-0.626629 0 0)
(-0.633024 0 0)
(-0.639373 0 0)
(-0.645678 0 0)
(-0.651936 0 0)
(-0.658149 0 0)
(-0.664314 0 0)
(-0.670433 0 0)
(-0.676505 0 0)
(-0.682529 0 0)
(-0.688504 0 0)
(-0.694432 0 0)
(-0.70031 0 0)
(-0.706139 0 0)
(-0.711919 0 0)
(-0.717649 0 0)
(-0.723329 0 0)
(-0.728957 0 0)
(-0.734535 0 0)
(-0.740062 0 0)
(-0.745537 0 0)
(-0.75096 0 0)
(-0.756331 0 0)
(-0.76165 0 0)
(-0.766916 0 0)
(-0.772128 0 0)
(-0.777287 0 0)
(-0.782392 0 0)
(-0.787444 0 0)
(-0.79244 0 0)
(-0.797383 0 0)
(-0.80227 0 0)
(-0.807102 0 0)
(-0.811879 0 0)
(-0.8166 0 0)
(-0.821265 0 0)
(-0.825874 0 0)
(-0.830426 0 0)
(-0.834922 0 0)
(-0.839361 0 0)
(-0.843743 0 0)
(-0.848067 0 0)
(-0.852334 0 0)
(-0.856543 0 0)
(-0.860694 0 0)
(-0.864786 0 0)
(-0.868821 0 0)
(-0.872796 0 0)
(-0.876713 0 0)
(-0.880571 0 0)
(-0.88437 0 0)
(-0.888109 0 0)
(-0.891788 0 0)
(-0.895408 0 0)
(-0.898968 0 0)
(-0.902469 0 0)
(-0.905908 0 0)
(-0.909288 0 0)
(-0.912607 0 0)
(-0.915865 0 0)
(-0.919063 0 0)
(-0.9222 0 0)
(-0.925276 0 0)
(-0.92829 0 0)
(-0.931244 0 0)
(-0.934136 0 0)
(-0.936966 0 0)
(-0.939735 0 0)
(-0.942442 0 0)
(-0.945088 0 0)
(-0.947672 0 0)
(-0.950193 0 0)
(-0.952653 0 0)
(-0.955051 0 0)
(-0.957386 0 0)
(-0.95966 0 0)
(-0.96187 0 0)
(-0.964019 0 0)
(-0.966105 0 0)
(-0.968129 0 0)
(-0.97009 0 0)
(-0.971989 0 0)
(-0.973825 0 0)
(-0.975599 0 0)
(-0.97731 0 0)
(-0.978959 0 0)
(-0.980544 0 0)
(-0.982067 0 0)
(-0.983528 0 0)
(-0.984925 0 0)
(-0.98626 0 0)
(-0.987532 0 0)
(-0.988742 0 0)
(-0.989889 0 0)
(-0.990973 0 0)
(-0.991995 0 0)
(-0.992954 0 0)
(-0.993851 0 0)
(-0.994685 0 0)
(-0.995456 0 0)
(-0.996165 0 0)
(-0.996812 0 0)
(-0.997396 0 0)
(-0.997918 0 0)
(-0.998378 0 0)
(-0.998775 0 0)
(-0.999111 0 0)
(-0.999384 0 0)
(-0.999595 0 0)
(-0.999744 0 0)
(-0.999832 0 0)
(-0.999858 0 0)
(-0.999822 0 0)
(-0.999724 0 0)
(-0.999565 0 0)
(-0.999344 0 0)
(-0.999063 0 0)
(-0.99872 0 0)
(-0.998315 0 0)
(-0.99785 0 0)
(-0.997324 0 0)
(-0.996738 0 0)
(-0.99609 0 0)
(-0.995382 0 0)
(-0.994614 0 0)
(-0.993785 0 0)
(-0.992897 0 0)
(-0.991948 0 0)
(-0.99094 0 0)
(-0.989871 0 0)
(-0.988744 0 0)
(-0.987557 0 0)
(-0.98631 0 0)
(-0.985005 0 0)
(-0.98364 0 0)
(-0.982217 0 0)
(-0.980735 0 0)
(-0.979195 0 0)
(-0.977596 0 0)
(-0.97594 0 0)
(-0.974225 0 0)
(-0.972452 0 0)
(-0.970622 0 0)
(-0.968735 0 0)
(-0.966791 0 0)
(-0.964789 0 0)
(-0.962731 0 0)
(-0.960616 0 0)
(-0.958444 0 0)
(-0.956217 0 0)
(-0.953933 0 0)
(-0.951594 0 0)
(-0.949199 0 0)
(-0.946748 0 0)
(-0.944243 0 0)
(-0.941682 0 0)
(-0.939067 0 0)
(-0.936397 0 0)
(-0.933673 0 0)
(-0.930895 0 0)
(-0.928063 0 0)
(-0.925178 0 0)
(-0.922239 0 0)
(-0.919247 0 0)
(-0.916201 0 0)
(-0.913104 0 0)
(-0.909954 0 0)
(-0.906752 0 0)
(-0.903497 0 0)
(-0.900192 0 0)
(-0.896834 0 0)
(-0.893426 0 0)
(-0.889967 0 0)
(-0.886457 0 0)
(-0.882896 0 0)
(-0.879286 0 0)
(-0.875625 0 0)
(-0.871915 0 0)
(-0.868156 0 0)
(-0.864348 0 0)
(-0.860491 0 0)
(-0.856585 0 0)
(-0.852631 0 0)
(-0.848629 0 0)
(-0.84458 0 0)
(-0.840483 0 0)
(-0.836338 0 0)
(-0.832147 0 0)
(-0.82791 0 0)
(-0.823626 0 0)
(-0.819296 0 0)
(-0.814921 0 0)
(-0.8105 0 0)
(-0.806034 0 0)
(-0.801523 0 0)
(-0.796968 0 0)
(-0.792368 0 0)
(-0.787725 0 0)
(-0.783038 0 0)
(-0.778307 0 0)
(-0.773534 0 0)
(-0.768718 0 0)
(-0.76386 0 0)
(-0.758959 0 0)
(-0.754017 0 0)
(-0.749033 0 0)
(-0.744008 0 0)
(-0.738943 0 0)
(-0.733837 0 0)
(-0.72869 0 0)
(-0.723504 0 0)
(-0.718279 0 0)
(-0.713014 0 0)
(-0.70771 0 0)
(-0.702367 0 0)
(-0.696987 0 0)
(-0.691568 0 0)
(-0.686112 0 0)
(-0.680619 0 0)
(-0.675088 0 0)
(-0.669521 0 0)
(-0.663918 0 0)
(-0.658279 0 0)
(-0.652604 0 0)
(-0.646894 0 0)
(-0.64115 0 0)
(-0.63537 0 0)
(-0.629556 0 0)
(-0.623709 0 0)
(-0.617828 0 0)
(-0.611913 0 0)
(-0.605966 0 0)
(-0.599986 0 0)
(-0.593974 0 0)
(-0.587931 0 0)
(-0.581855 0 0)
(-0.575749 0 0)
(-0.569612 0 0)
(-0.563444 0 0)
(-0.557246 0 0)
(-0.551019 0 0)
(-0.544762 0 0)
(-0.538476 0 0)
(-0.532161 0 0)
(-0.525819 0 0)
(-0.519448 0 0)
(-0.513049 0 0)
(-0.506624 0 0)
(-0.500171 0 0)
(-0.493692 0 0)
(-0.487187 0 0)
(-0.480656 0 0)
(-0.4741 0 0)
(-0.467518 0 0)
(-0.460912 0 0)
(-0.454281 0 0)
(-0.447626 0 0)
(-0.440948 0 0)
(-0.434246 0 0)
(-0.427522 0 0)
(-0.420775 0 0)
(-0.414006 0 0)
(-0.407215 0 0)
(-0.400403 0 0)
(-0.393569 0 0)
(-0.386715 0 0)
(-0.379841 0 0)
(-0.372947 0 0)
(-0.366033 0 0)
(-0.3591 0 0)
(-0.352148 0 0)
(-0.345177 0 0)
(-0.338189 0 0)
(-0.331183 0 0)
(-0.324159 0 0)
(-0.317119 0 0)
(-0.310061 0 0)
(-0.302988 0 0)
(-0.295899 0 0)
(-0.288795 0 0)
(-0.281675 0 0)
(-0.274541 0 0)
(-0.267392 0 0)
(-0.260229 0 0)
(-0.253053 0 0)
(-0.245864 0 0)
(-0.238661 0 0)
(-0.231447 0 0)
(-0.22422 0 0)
(-0.216982 0 0)
(-0.209732 0 0)
(-0.202471 0 0)
(-0.1952 0 0)
(-0.187919 0 0)
(-0.180628 0 0)
(-0.173327 0 0)
(-0.166018 0 0)
(-0.1587 0 0)
(-0.151374 0 0)
(-0.14404 0 0)
(-0.136698 0 0)
(-0.129349 0 0)
(-0.121994 0 0)
(-0.114632 0 0)
(-0.107264 0 0)
(-0.0998908 0 0)
(-0.0925123 0 0)
(-0.085129 0 0)
(-0.0777412 0 0)
(-0.0703495 0 0)
(-0.0629541 0 0)
(-0.0555554 0 0)
(-0.0481539 0 0)
(-0.0407498 0 0)
(-0.0333436 0 0)
(-0.0259357 0 0)
(-0.0185265 0 0)
(-0.0111163 0 0)
(-0.00370549 0 0)
)
;

boundaryField
{
    left
    {
        type            fixedValue;
        value           uniform (0 0 0);
    }
    right
    {
        type            fixedValue;
        value           uniform (0 0 0);
    }
    frontBackUpDown
    {
        type            empty;
    }
}


// ************************************************************************* //
