/*--------------------------------*- C++ -*----------------------------------*\
| =========                 |                                                 |
| \\      /  F ield         | OpenFOAM: The Open Source CFD Toolbox           |
|  \\    /   O peration     | Version:  2412                                  |
|   \\  /    A nd           | Website:  www.openfoam.com                      |
|    \\/     M anipulation  |                                                 |
\*---------------------------------------------------------------------------*/
FoamFile
{
    version     2.0;
    format      ascii;
    arch        "LSB;label=32;scalar=64";
    class       volVectorField;
    location    "0.13";
    object      U;
}
// * * * * * * * * * * * * * * * * * * * * * * * * * * * * * * * * * * * * * //

dimensions      [0 1 -1 0 0 0 0];

internalField   nonuniform List<vector> 
800
(
(0.00278766 0 0)
(0.00836304 0 0)
(0.0139382 0 0)
(0.0195131 0 0)
(0.0250876 0 0)
(0.0306615 0 0)
(0.0362347 0 0)
(0.0418071 0 0)
(0.0473786 0 0)
(0.0529491 0 0)
(0.0585183 0 0)
(0.0640863 0 0)
(0.0696529 0 0)
(0.0752179 0 0)
(0.0807812 0 0)
(0.0863427 0 0)
(0.0919023 0 0)
(0.0974599 0 0)
(0.103015 0 0)
(0.108568 0 0)
(0.114119 0 0)
(0.119667 0 0)
(0.125213 0 0)
(0.130755 0 0)
(0.136295 0 0)
(0.141832 0 0)
(0.147366 0 0)
(0.152896 0 0)
(0.158423 0 0)
(0.163946 0 0)
(0.169466 0 0)
(0.174981 0 0)
(0.180493 0 0)
(0.186001 0 0)
(0.191505 0 0)
(0.197004 0 0)
(0.202499 0 0)
(0.20799 0 0)
(0.213475 0 0)
(0.218956 0 0)
(0.224432 0 0)
(0.229903 0 0)
(0.235368 0 0)
(0.240829 0 0)
(0.246284 0 0)
(0.251733 0 0)
(0.257176 0 0)
(0.262614 0 0)
(0.268045 0 0)
(0.273471 0 0)
(0.27889 0 0)
(0.284303 0 0)
(0.289709 0 0)
(0.295109 0 0)
(0.300502 0 0)
(0.305888 0 0)
(0.311266 0 0)
(0.316638 0 0)
(0.322002 0 0)
(0.327359 0 0)
(0.332709 0 0)
(0.33805 0 0)
(0.343384 0 0)
(0.348709 0 0)
(0.354027 0 0)
(0.359336 0 0)
(0.364637 0 0)
(0.369929 0 0)
(0.375212 0 0)
(0.380487 0 0)
(0.385752 0 0)
(0.391009 0 0)
(0.396256 0 0)
(0.401494 0 0)
(0.406722 0 0)
(0.41194 0 0)
(0.417149 0 0)
(0.422347 0 0)
(0.427536 0 0)
(0.432714 0 0)
(0.437882 0 0)
(0.443039 0 0)
(0.448185 0 0)
(0.453321 0 0)
(0.458445 0 0)
(0.463558 0 0)
(0.46866 0 0)
(0.473751 0 0)
(0.478829 0 0)
(0.483896 0 0)
(0.488951 0 0)
(0.493994 0 0)
(0.499025 0 0)
(0.504043 0 0)
(0.509048 0 0)
(0.514041 0 0)
(0.519021 0 0)
(0.523988 0 0)
(0.528941 0 0)
(0.533882 0 0)
(0.538808 0 0)
(0.543721 0 0)
(0.54862 0 0)
(0.553505 0 0)
(0.558376 0 0)
(0.563232 0 0)
(0.568074 0 0)
(0.572901 0 0)
(0.577714 0 0)
(0.582511 0 0)
(0.587293 0 0)
(0.592059 0 0)
(0.59681 0 0)
(0.601546 0 0)
(0.606265 0 0)
(0.610968 0 0)
(0.615655 0 0)
(0.620325 0 0)
(0.624979 0 0)
(0.629616 0 0)
(0.634236 0 0)
(0.638838 0 0)
(0.643424 0 0)
(0.647991 0 0)
(0.652541 0 0)
(0.657073 0 0)
(0.661587 0 0)
(0.666082 0 0)
(0.670559 0 0)
(0.675017 0 0)
(0.679457 0 0)
(0.683877 0 0)
(0.688278 0 0)
(0.692659 0 0)
(0.69702 0 0)
(0.701362 0 0)
(0.705683 0 0)
(0.709984 0 0)
(0.714265 0 0)
(0.718525 0 0)
(0.722764 0 0)
(0.726981 0 0)
(0.731177 0 0)
(0.735352 0 0)
(0.739505 0 0)
(0.743636 0 0)
(0.747744 0 0)
(0.75183 0 0)
(0.755893 0 0)
(0.759934 0 0)
(0.763951 0 0)
(0.767944 0 0)
(0.771914 0 0)
(0.775861 0 0)
(0.779783 0 0)
(0.78368 0 0)
(0.787554 0 0)
(0.791402 0 0)
(0.795225 0 0)
(0.799023 0 0)
(0.802796 0 0)
(0.806542 0 0)
(0.810263 0 0)
(0.813957 0 0)
(0.817625 0 0)
(0.821265 0 0)
(0.824879 0 0)
(0.828466 0 0)
(0.832024 0 0)
(0.835555 0 0)
(0.839058 0 0)
(0.842532 0 0)
(0.845978 0 0)
(0.849395 0 0)
(0.852782 0 0)
(0.85614 0 0)
(0.859468 0 0)
(0.862766 0 0)
(0.866034 0 0)
(0.869271 0 0)
(0.872477 0 0)
(0.875652 0 0)
(0.878795 0 0)
(0.881906 0 0)
(0.884985 0 0)
(0.888032 0 0)
(0.891046 0 0)
(0.894027 0 0)
(0.896974 0 0)
(0.899888 0 0)
(0.902768 0 0)
(0.905613 0 0)
(0.908424 0 0)
(0.911199 0 0)
(0.913939 0 0)
(0.916644 0 0)
(0.919312 0 0)
(0.921944 0 0)
(0.924539 0 0)
(0.927098 0 0)
(0.929618 0 0)
(0.932101 0 0)
(0.934546 0 0)
(0.936953 0 0)
(0.93932 0 0)
(0.941648 0 0)
(0.943937 0 0)
(0.946185 0 0)
(0.948393 0 0)
(0.950561 0 0)
(0.952687 0 0)
(0.954772 0 0)
(0.956814 0 0)
(0.958814 0 0)
(0.960772 0 0)
(0.962686 0 0)
(0.964557 0 0)
(0.966384 0 0)
(0.968166 0 0)
(0.969904 0 0)
(0.971596 0 0)
(0.973243 0 0)
(0.974843 0 0)
(0.976397 0 0)
(0.977903 0 0)
(0.979363 0 0)
(0.980774 0 0)
(0.982137 0 0)
(0.983451 0 0)
(0.984715 0 0)
(0.98593 0 0)
(0.987094 0 0)
(0.988208 0 0)
(0.98927 0 0)
(0.990281 0 0)
(0.991239 0 0)
(0.992145 0 0)
(0.992997 0 0)
(0.993796 0 0)
(0.99454 0 0)
(0.995229 0 0)
(0.995863 0 0)
(0.996441 0 0)
(0.996962 0 0)
(0.997427 0 0)
(0.997834 0 0)
(0.998183 0 0)
(0.998473 0 0)
(0.998704 0 0)
(0.998875 0 0)
(0.998985 0 0)
(0.999035 0 0)
(0.999023 0 0)
(0.998949 0 0)
(0.998812 0 0)
(0.998612 0 0)
(0.998348 0 0)
(0.998019 0 0)
(0.997625 0 0)
(0.997165 0 0)
(0.996638 0 0)
(0.996044 0 0)
(0.995383 0 0)
(0.994653 0 0)
(0.993854 0 0)
(0.992985 0 0)
(0.992046 0 0)
(0.991035 0 0)
(0.989953 0 0)
(0.988798 0 0)
(0.98757 0 0)
(0.986268 0 0)
(0.984892 0 0)
(0.98344 0 0)
(0.981912 0 0)
(0.980307 0 0)
(0.978625 0 0)
(0.976865 0 0)
(0.975025 0 0)
(0.973106 0 0)
(0.971106 0 0)
(0.969026 0 0)
(0.966863 0 0)
(0.964617 0 0)
(0.962288 0 0)
(0.959875 0 0)
(0.957376 0 0)
(0.954792 0 0)
(0.952121 0 0)
(0.949363 0 0)
(0.946517 0 0)
(0.943581 0 0)
(0.940556 0 0)
(0.93744 0 0)
(0.934232 0 0)
(0.930933 0 0)
(0.92754 0 0)
(0.924054 0 0)
(0.920473 0 0)
(0.916796 0 0)
(0.913024 0 0)
(0.909154 0 0)
(0.905186 0 0)
(0.90112 0 0)
(0.896954 0 0)
(0.892688 0 0)
(0.88832 0 0)
(0.883851 0 0)
(0.879279 0 0)
(0.874604 0 0)
(0.869824 0 0)
(0.864939 0 0)
(0.859949 0 0)
(0.854852 0 0)
(0.849647 0 0)
(0.844334 0 0)
(0.838913 0 0)
(0.833382 0 0)
(0.82774 0 0)
(0.821988 0 0)
(0.816124 0 0)
(0.810147 0 0)
(0.804057 0 0)
(0.797854 0 0)
(0.791536 0 0)
(0.785104 0 0)
(0.778555 0 0)
(0.771891 0 0)
(0.76511 0 0)
(0.758212 0 0)
(0.751196 0 0)
(0.744062 0 0)
(0.73681 0 0)
(0.729439 0 0)
(0.721948 0 0)
(0.714337 0 0)
(0.706607 0 0)
(0.698756 0 0)
(0.690785 0 0)
(0.682693 0 0)
(0.67448 0 0)
(0.666147 0 0)
(0.657692 0 0)
(0.649116 0 0)
(0.64042 0 0)
(0.631602 0 0)
(0.622664 0 0)
(0.613605 0 0)
(0.604426 0 0)
(0.595127 0 0)
(0.585709 0 0)
(0.576171 0 0)
(0.566515 0 0)
(0.55674 0 0)
(0.546849 0 0)
(0.536841 0 0)
(0.526716 0 0)
(0.516477 0 0)
(0.506124 0 0)
(0.495658 0 0)
(0.48508 0 0)
(0.474391 0 0)
(0.463593 0 0)
(0.452686 0 0)
(0.441673 0 0)
(0.430555 0 0)
(0.419334 0 0)
(0.40801 0 0)
(0.396587 0 0)
(0.385065 0 0)
(0.373447 0 0)
(0.361735 0 0)
(0.349931 0 0)
(0.338038 0 0)
(0.326057 0 0)
(0.313991 0 0)
(0.301842 0 0)
(0.289614 0 0)
(0.277308 0 0)
(0.264928 0 0)
(0.252477 0 0)
(0.239956 0 0)
(0.22737 0 0)
(0.214722 0 0)
(0.202014 0 0)
(0.18925 0 0)
(0.176433 0 0)
(0.163566 0 0)
(0.150653 0 0)
(0.137697 0 0)
(0.124703 0 0)
(0.111673 0 0)
(0.0986104 0 0)
(0.0855199 0 0)
(0.0724048 0 0)
(0.0592689 0 0)
(0.0461158 0 0)
(0.0329494 0 0)
(0.0197735 0 0)
(0.0065918 0 0)
(-0.00659177 0 0)
(-0.0197734 0 0)
(-0.0329493 0 0)
(-0.0461157 0 0)
(-0.0592688 0 0)
(-0.0724047 0 0)
(-0.0855198 0 0)
(-0.0986102 0 0)
(-0.111672 0 0)
(-0.124703 0 0)
(-0.137697 0 0)
(-0.150653 0 0)
(-0.163565 0 0)
(-0.176432 0 0)
(-0.189249 0 0)
(-0.202013 0 0)
(-0.214721 0 0)
(-0.22737 0 0)
(-0.239955 0 0)
(-0.252476 0 0)
(-0.264927 0 0)
(-0.277307 0 0)
(-0.289613 0 0)
(-0.301841 0 0)
(-0.313989 0 0)
(-0.326055 0 0)
(-0.338036 0 0)
(-0.34993 0 0)
(-0.361734 0 0)
(-0.373445 0 0)
(-0.385063 0 0)
(-0.396585 0 0)
(-0.408008 0 0)
(-0.419332 0 0)
(-0.430553 0 0)
(-0.441671 0 0)
(-0.452684 0 0)
(-0.46359 0 0)
(-0.474389 0 0)
(-0.485077 0 0)
(-0.495655 0 0)
(-0.506122 0 0)
(-0.516475 0 0)
(-0.526714 0 0)
(-0.536838 0 0)
(-0.546846 0 0)
(-0.556738 0 0)
(-0.566512 0 0)
(-0.576168 0 0)
(-0.585706 0 0)
(-0.595124 0 0)
(-0.604423 0 0)
(-0.613602 0 0)
(-0.622661 0 0)
(-0.631599 0 0)
(-0.640417 0 0)
(-0.649113 0 0)
(-0.657689 0 0)
(-0.666144 0 0)
(-0.674477 0 0)
(-0.68269 0 0)
(-0.690782 0 0)
(-0.698753 0 0)
(-0.706604 0 0)
(-0.714334 0 0)
(-0.721945 0 0)
(-0.729436 0 0)
(-0.736807 0 0)
(-0.74406 0 0)
(-0.751194 0 0)
(-0.758209 0 0)
(-0.765107 0 0)
(-0.771888 0 0)
(-0.778553 0 0)
(-0.785101 0 0)
(-0.791534 0 0)
(-0.797851 0 0)
(-0.804055 0 0)
(-0.810145 0 0)
(-0.816121 0 0)
(-0.821985 0 0)
(-0.827738 0 0)
(-0.833379 0 0)
(-0.838911 0 0)
(-0.844332 0 0)
(-0.849645 0 0)
(-0.85485 0 0)
(-0.859947 0 0)
(-0.864938 0 0)
(-0.869822 0 0)
(-0.874602 0 0)
(-0.879278 0 0)
(-0.88385 0 0)
(-0.888319 0 0)
(-0.892686 0 0)
(-0.896952 0 0)
(-0.901118 0 0)
(-0.905185 0 0)
(-0.909153 0 0)
(-0.913022 0 0)
(-0.916795 0 0)
(-0.920472 0 0)
(-0.924053 0 0)
(-0.927539 0 0)
(-0.930932 0 0)
(-0.934231 0 0)
(-0.937439 0 0)
(-0.940555 0 0)
(-0.94358 0 0)
(-0.946516 0 0)
(-0.949362 0 0)
(-0.952121 0 0)
(-0.954792 0 0)
(-0.957376 0 0)
(-0.959874 0 0)
(-0.962288 0 0)
(-0.964617 0 0)
(-0.966862 0 0)
(-0.969025 0 0)
(-0.971106 0 0)
(-0.973106 0 0)
(-0.975025 0 0)
(-0.976864 0 0)
(-0.978625 0 0)
(-0.980307 0 0)
(-0.981912 0 0)
(-0.98344 0 0)
(-0.984891 0 0)
(-0.986268 0 0)
(-0.98757 0 0)
(-0.988798 0 0)
(-0.989953 0 0)
(-0.991035 0 0)
(-0.992046 0 0)
(-0.992985 0 0)
(-0.993854 0 0)
(-0.994653 0 0)
(-0.995383 0 0)
(-0.996044 0 0)
(-0.996638 0 0)
(-0.997165 0 0)
(-0.997625 0 0)
(-0.998019 0 0)
(-0.998348 0 0)
(-0.998612 0 0)
(-0.998812 0 0)
(-0.998949 0 0)
(-0.999023 0 0)
(-0.999035 0 0)
(-0.998985 0 0)
(-0.998875 0 0)
(-0.998704 0 0)
(-0.998473 0 0)
(-0.998183 0 0)
(-0.997834 0 0)
(-0.997427 0 0)
(-0.996962 0 0)
(-0.996441 0 0)
(-0.995863 0 0)
(-0.995229 0 0)
(-0.99454 0 0)
(-0.993796 0 0)
(-0.992997 0 0)
(-0.992145 0 0)
(-0.991239 0 0)
(-0.990281 0 0)
(-0.98927 0 0)
(-0.988208 0 0)
(-0.987094 0 0)
(-0.98593 0 0)
(-0.984715 0 0)
(-0.98345 0 0)
(-0.982136 0 0)
(-0.980774 0 0)
(-0.979362 0 0)
(-0.977903 0 0)
(-0.976396 0 0)
(-0.974843 0 0)
(-0.973242 0 0)
(-0.971596 0 0)
(-0.969903 0 0)
(-0.968166 0 0)
(-0.966384 0 0)
(-0.964557 0 0)
(-0.962686 0 0)
(-0.960772 0 0)
(-0.958814 0 0)
(-0.956814 0 0)
(-0.954771 0 0)
(-0.952686 0 0)
(-0.95056 0 0)
(-0.948393 0 0)
(-0.946185 0 0)
(-0.943936 0 0)
(-0.941648 0 0)
(-0.939319 0 0)
(-0.936952 0 0)
(-0.934546 0 0)
(-0.932101 0 0)
(-0.929618 0 0)
(-0.927097 0 0)
(-0.924539 0 0)
(-0.921943 0 0)
(-0.919311 0 0)
(-0.916643 0 0)
(-0.913938 0 0)
(-0.911198 0 0)
(-0.908423 0 0)
(-0.905612 0 0)
(-0.902767 0 0)
(-0.899887 0 0)
(-0.896973 0 0)
(-0.894026 0 0)
(-0.891045 0 0)
(-0.888031 0 0)
(-0.884984 0 0)
(-0.881905 0 0)
(-0.878794 0 0)
(-0.875651 0 0)
(-0.872476 0 0)
(-0.86927 0 0)
(-0.866033 0 0)
(-0.862765 0 0)
(-0.859467 0 0)
(-0.856139 0 0)
(-0.852781 0 0)
(-0.849394 0 0)
(-0.845977 0 0)
(-0.842531 0 0)
(-0.839057 0 0)
(-0.835554 0 0)
(-0.832023 0 0)
(-0.828464 0 0)
(-0.824878 0 0)
(-0.821264 0 0)
(-0.817623 0 0)
(-0.813956 0 0)
(-0.810262 0 0)
(-0.806541 0 0)
(-0.802794 0 0)
(-0.799022 0 0)
(-0.795224 0 0)
(-0.791401 0 0)
(-0.787552 0 0)
(-0.783679 0 0)
(-0.779781 0 0)
(-0.775859 0 0)
(-0.771913 0 0)
(-0.767943 0 0)
(-0.763949 0 0)
(-0.759932 0 0)
(-0.755892 0 0)
(-0.751829 0 0)
(-0.747743 0 0)
(-0.743634 0 0)
(-0.739504 0 0)
(-0.735351 0 0)
(-0.731176 0 0)
(-0.72698 0 0)
(-0.722762 0 0)
(-0.718524 0 0)
(-0.714264 0 0)
(-0.709983 0 0)
(-0.705682 0 0)
(-0.701361 0 0)
(-0.697019 0 0)
(-0.692658 0 0)
(-0.688276 0 0)
(-0.683876 0 0)
(-0.679455 0 0)
(-0.675016 0 0)
(-0.670558 0 0)
(-0.666081 0 0)
(-0.661586 0 0)
(-0.657072 0 0)
(-0.65254 0 0)
(-0.64799 0 0)
(-0.643422 0 0)
(-0.638837 0 0)
(-0.634235 0 0)
(-0.629615 0 0)
(-0.624978 0 0)
(-0.620324 0 0)
(-0.615654 0 0)
(-0.610967 0 0)
(-0.606264 0 0)
(-0.601544 0 0)
(-0.596809 0 0)
(-0.592058 0 0)
(-0.587292 0 0)
(-0.58251 0 0)
(-0.577713 0 0)
(-0.5729 0 0)
(-0.568073 0 0)
(-0.563231 0 0)
(-0.558375 0 0)
(-0.553504 0 0)
(-0.548619 0 0)
(-0.54372 0 0)
(-0.538807 0 0)
(-0.533881 0 0)
(-0.52894 0 0)
(-0.523987 0 0)
(-0.51902 0 0)
(-0.51404 0 0)
(-0.509047 0 0)
(-0.504042 0 0)
(-0.499024 0 0)
(-0.493993 0 0)
(-0.48895 0 0)
(-0.483895 0 0)
(-0.478828 0 0)
(-0.47375 0 0)
(-0.468659 0 0)
(-0.463558 0 0)
(-0.458444 0 0)
(-0.45332 0 0)
(-0.448184 0 0)
(-0.443038 0 0)
(-0.437881 0 0)
(-0.432713 0 0)
(-0.427535 0 0)
(-0.422347 0 0)
(-0.417148 0 0)
(-0.41194 0 0)
(-0.406721 0 0)
(-0.401493 0 0)
(-0.396255 0 0)
(-0.391008 0 0)
(-0.385752 0 0)
(-0.380486 0 0)
(-0.375212 0 0)
(-0.369928 0 0)
(-0.364636 0 0)
(-0.359335 0 0)
(-0.354026 0 0)
(-0.348709 0 0)
(-0.343383 0 0)
(-0.33805 0 0)
(-0.332708 0 0)
(-0.327359 0 0)
(-0.322002 0 0)
(-0.316638 0 0)
(-0.311266 0 0)
(-0.305887 0 0)
(-0.300501 0 0)
(-0.295108 0 0)
(-0.289709 0 0)
(-0.284303 0 0)
(-0.27889 0 0)
(-0.273471 0 0)
(-0.268045 0 0)
(-0.262614 0 0)
(-0.257176 0 0)
(-0.251732 0 0)
(-0.246283 0 0)
(-0.240828 0 0)
(-0.235368 0 0)
(-0.229903 0 0)
(-0.224432 0 0)
(-0.218956 0 0)
(-0.213475 0 0)
(-0.207989 0 0)
(-0.202499 0 0)
(-0.197004 0 0)
(-0.191505 0 0)
(-0.186001 0 0)
(-0.180493 0 0)
(-0.174981 0 0)
(-0.169466 0 0)
(-0.163946 0 0)
(-0.158423 0 0)
(-0.152896 0 0)
(-0.147365 0 0)
(-0.141832 0 0)
(-0.136295 0 0)
(-0.130755 0 0)
(-0.125213 0 0)
(-0.119667 0 0)
(-0.114119 0 0)
(-0.108568 0 0)
(-0.103015 0 0)
(-0.0974599 0 0)
(-0.0919023 0 0)
(-0.0863427 0 0)
(-0.0807812 0 0)
(-0.0752178 0 0)
(-0.0696528 0 0)
(-0.0640863 0 0)
(-0.0585183 0 0)
(-0.0529491 0 0)
(-0.0473786 0 0)
(-0.0418072 0 0)
(-0.0362347 0 0)
(-0.0306615 0 0)
(-0.0250876 0 0)
(-0.0195132 0 0)
(-0.0139383 0 0)
(-0.0083631 0 0)
(-0.00278772 0 0)
)
;

boundaryField
{
    left
    {
        type            fixedValue;
        value           uniform (0 0 0);
    }
    right
    {
        type            fixedValue;
        value           uniform (0 0 0);
    }
    frontBackUpDown
    {
        type            empty;
    }
}


// ************************************************************************* //
