/*--------------------------------*- C++ -*----------------------------------*\
| =========                 |                                                 |
| \\      /  F ield         | OpenFOAM: The Open Source CFD Toolbox           |
|  \\    /   O peration     | Version:  2412                                  |
|   \\  /    A nd           | Website:  www.openfoam.com                      |
|    \\/     M anipulation  |                                                 |
\*---------------------------------------------------------------------------*/
FoamFile
{
    version     2.0;
    format      ascii;
    arch        "LSB;label=32;scalar=64";
    class       volVectorField;
    location    "0.13";
    object      U_0;
}
// * * * * * * * * * * * * * * * * * * * * * * * * * * * * * * * * * * * * * //

dimensions      [0 1 -1 0 0 0 0];

internalField   nonuniform List<vector> 
800
(
(0.00279077 0 0)
(0.00837237 0 0)
(0.0139538 0 0)
(0.0195349 0 0)
(0.0251156 0 0)
(0.0306957 0 0)
(0.0362751 0 0)
(0.0418538 0 0)
(0.0474315 0 0)
(0.0530081 0 0)
(0.0585836 0 0)
(0.0641577 0 0)
(0.0697305 0 0)
(0.0753016 0 0)
(0.0808711 0 0)
(0.0864388 0 0)
(0.0920046 0 0)
(0.0975683 0 0)
(0.10313 0 0)
(0.108689 0 0)
(0.114246 0 0)
(0.1198 0 0)
(0.125352 0 0)
(0.130901 0 0)
(0.136446 0 0)
(0.141989 0 0)
(0.147529 0 0)
(0.153065 0 0)
(0.158598 0 0)
(0.164127 0 0)
(0.169653 0 0)
(0.175175 0 0)
(0.180692 0 0)
(0.186206 0 0)
(0.191716 0 0)
(0.197221 0 0)
(0.202722 0 0)
(0.208218 0 0)
(0.21371 0 0)
(0.219196 0 0)
(0.224678 0 0)
(0.230155 0 0)
(0.235626 0 0)
(0.241092 0 0)
(0.246552 0 0)
(0.252007 0 0)
(0.257456 0 0)
(0.2629 0 0)
(0.268337 0 0)
(0.273768 0 0)
(0.279192 0 0)
(0.284611 0 0)
(0.290023 0 0)
(0.295428 0 0)
(0.300826 0 0)
(0.306217 0 0)
(0.311601 0 0)
(0.316978 0 0)
(0.322348 0 0)
(0.32771 0 0)
(0.333065 0 0)
(0.338411 0 0)
(0.34375 0 0)
(0.349081 0 0)
(0.354403 0 0)
(0.359718 0 0)
(0.365023 0 0)
(0.37032 0 0)
(0.375609 0 0)
(0.380888 0 0)
(0.386159 0 0)
(0.39142 0 0)
(0.396672 0 0)
(0.401914 0 0)
(0.407147 0 0)
(0.41237 0 0)
(0.417583 0 0)
(0.422787 0 0)
(0.42798 0 0)
(0.433162 0 0)
(0.438334 0 0)
(0.443496 0 0)
(0.448647 0 0)
(0.453786 0 0)
(0.458915 0 0)
(0.464032 0 0)
(0.469138 0 0)
(0.474233 0 0)
(0.479316 0 0)
(0.484387 0 0)
(0.489445 0 0)
(0.494492 0 0)
(0.499527 0 0)
(0.504549 0 0)
(0.509558 0 0)
(0.514554 0 0)
(0.519538 0 0)
(0.524508 0 0)
(0.529465 0 0)
(0.534409 0 0)
(0.539339 0 0)
(0.544255 0 0)
(0.549158 0 0)
(0.554046 0 0)
(0.55892 0 0)
(0.563779 0 0)
(0.568624 0 0)
(0.573454 0 0)
(0.57827 0 0)
(0.58307 0 0)
(0.587854 0 0)
(0.592624 0 0)
(0.597377 0 0)
(0.602115 0 0)
(0.606837 0 0)
(0.611542 0 0)
(0.616232 0 0)
(0.620904 0 0)
(0.62556 0 0)
(0.630199 0 0)
(0.634821 0 0)
(0.639426 0 0)
(0.644013 0 0)
(0.648583 0 0)
(0.653135 0 0)
(0.657668 0 0)
(0.662184 0 0)
(0.666681 0 0)
(0.671159 0 0)
(0.675619 0 0)
(0.680059 0 0)
(0.684481 0 0)
(0.688883 0 0)
(0.693265 0 0)
(0.697628 0 0)
(0.70197 0 0)
(0.706293 0 0)
(0.710595 0 0)
(0.714876 0 0)
(0.719136 0 0)
(0.723376 0 0)
(0.727594 0 0)
(0.73179 0 0)
(0.735965 0 0)
(0.740118 0 0)
(0.744249 0 0)
(0.748358 0 0)
(0.752444 0 0)
(0.756507 0 0)
(0.760547 0 0)
(0.764564 0 0)
(0.768557 0 0)
(0.772526 0 0)
(0.776472 0 0)
(0.780393 0 0)
(0.78429 0 0)
(0.788163 0 0)
(0.79201 0 0)
(0.795832 0 0)
(0.799629 0 0)
(0.8034 0 0)
(0.807145 0 0)
(0.810864 0 0)
(0.814557 0 0)
(0.818223 0 0)
(0.821862 0 0)
(0.825474 0 0)
(0.829059 0 0)
(0.832615 0 0)
(0.836144 0 0)
(0.839644 0 0)
(0.843116 0 0)
(0.84656 0 0)
(0.849974 0 0)
(0.853358 0 0)
(0.856714 0 0)
(0.860039 0 0)
(0.863334 0 0)
(0.866598 0 0)
(0.869832 0 0)
(0.873035 0 0)
(0.876206 0 0)
(0.879346 0 0)
(0.882453 0 0)
(0.885529 0 0)
(0.888571 0 0)
(0.891581 0 0)
(0.894558 0 0)
(0.897501 0 0)
(0.900411 0 0)
(0.903286 0 0)
(0.906126 0 0)
(0.908932 0 0)
(0.911703 0 0)
(0.914438 0 0)
(0.917137 0 0)
(0.919801 0 0)
(0.922427 0 0)
(0.925017 0 0)
(0.92757 0 0)
(0.930085 0 0)
(0.932562 0 0)
(0.935001 0 0)
(0.937401 0 0)
(0.939762 0 0)
(0.942084 0 0)
(0.944366 0 0)
(0.946608 0 0)
(0.94881 0 0)
(0.95097 0 0)
(0.953089 0 0)
(0.955167 0 0)
(0.957202 0 0)
(0.959195 0 0)
(0.961145 0 0)
(0.963052 0 0)
(0.964915 0 0)
(0.966734 0 0)
(0.968509 0 0)
(0.970238 0 0)
(0.971922 0 0)
(0.97356 0 0)
(0.975152 0 0)
(0.976697 0 0)
(0.978195 0 0)
(0.979645 0 0)
(0.981048 0 0)
(0.982401 0 0)
(0.983706 0 0)
(0.984961 0 0)
(0.986166 0 0)
(0.987321 0 0)
(0.988425 0 0)
(0.989477 0 0)
(0.990478 0 0)
(0.991426 0 0)
(0.992321 0 0)
(0.993163 0 0)
(0.993951 0 0)
(0.994684 0 0)
(0.995363 0 0)
(0.995986 0 0)
(0.996553 0 0)
(0.997063 0 0)
(0.997516 0 0)
(0.997912 0 0)
(0.998249 0 0)
(0.998527 0 0)
(0.998746 0 0)
(0.998905 0 0)
(0.999004 0 0)
(0.999041 0 0)
(0.999017 0 0)
(0.998931 0 0)
(0.998781 0 0)
(0.998568 0 0)
(0.998291 0 0)
(0.997949 0 0)
(0.997542 0 0)
(0.997069 0 0)
(0.996529 0 0)
(0.995922 0 0)
(0.995248 0 0)
(0.994504 0 0)
(0.993691 0 0)
(0.992809 0 0)
(0.991856 0 0)
(0.990831 0 0)
(0.989735 0 0)
(0.988566 0 0)
(0.987324 0 0)
(0.986008 0 0)
(0.984617 0 0)
(0.983151 0 0)
(0.981608 0 0)
(0.979989 0 0)
(0.978292 0 0)
(0.976517 0 0)
(0.974663 0 0)
(0.972729 0 0)
(0.970715 0 0)
(0.968619 0 0)
(0.966441 0 0)
(0.964181 0 0)
(0.961837 0 0)
(0.959408 0 0)
(0.956895 0 0)
(0.954296 0 0)
(0.95161 0 0)
(0.948836 0 0)
(0.945975 0 0)
(0.943024 0 0)
(0.939984 0 0)
(0.936853 0 0)
(0.933631 0 0)
(0.930316 0 0)
(0.926909 0 0)
(0.923407 0 0)
(0.919812 0 0)
(0.91612 0 0)
(0.912333 0 0)
(0.908448 0 0)
(0.904466 0 0)
(0.900385 0 0)
(0.896205 0 0)
(0.891925 0 0)
(0.887543 0 0)
(0.88306 0 0)
(0.878474 0 0)
(0.873785 0 0)
(0.868992 0 0)
(0.864094 0 0)
(0.85909 0 0)
(0.85398 0 0)
(0.848763 0 0)
(0.843437 0 0)
(0.838004 0 0)
(0.83246 0 0)
(0.826807 0 0)
(0.821043 0 0)
(0.815168 0 0)
(0.80918 0 0)
(0.80308 0 0)
(0.796866 0 0)
(0.790538 0 0)
(0.784096 0 0)
(0.777538 0 0)
(0.770865 0 0)
(0.764075 0 0)
(0.757169 0 0)
(0.750146 0 0)
(0.743004 0 0)
(0.735745 0 0)
(0.728367 0 0)
(0.72087 0 0)
(0.713254 0 0)
(0.705519 0 0)
(0.697664 0 0)
(0.689689 0 0)
(0.681594 0 0)
(0.673378 0 0)
(0.665042 0 0)
(0.656586 0 0)
(0.648009 0 0)
(0.639312 0 0)
(0.630495 0 0)
(0.621558 0 0)
(0.612501 0 0)
(0.603324 0 0)
(0.594028 0 0)
(0.584613 0 0)
(0.57508 0 0)
(0.565429 0 0)
(0.55566 0 0)
(0.545776 0 0)
(0.535775 0 0)
(0.525659 0 0)
(0.515429 0 0)
(0.505085 0 0)
(0.49463 0 0)
(0.484063 0 0)
(0.473386 0 0)
(0.462601 0 0)
(0.451709 0 0)
(0.44071 0 0)
(0.429608 0 0)
(0.418402 0 0)
(0.407096 0 0)
(0.395691 0 0)
(0.384188 0 0)
(0.372589 0 0)
(0.360898 0 0)
(0.349115 0 0)
(0.337243 0 0)
(0.325285 0 0)
(0.313242 0 0)
(0.301118 0 0)
(0.288915 0 0)
(0.276635 0 0)
(0.264281 0 0)
(0.251856 0 0)
(0.239364 0 0)
(0.226806 0 0)
(0.214186 0 0)
(0.201508 0 0)
(0.188773 0 0)
(0.175987 0 0)
(0.163151 0 0)
(0.15027 0 0)
(0.137346 0 0)
(0.124384 0 0)
(0.111386 0 0)
(0.0983568 0 0)
(0.0852995 0 0)
(0.0722179 0 0)
(0.0591157 0 0)
(0.0459965 0 0)
(0.0328641 0 0)
(0.0197222 0 0)
(0.00657471 0 0)
(-0.00657468 0 0)
(-0.0197222 0 0)
(-0.032864 0 0)
(-0.0459964 0 0)
(-0.0591156 0 0)
(-0.0722178 0 0)
(-0.0852994 0 0)
(-0.0983566 0 0)
(-0.111386 0 0)
(-0.124383 0 0)
(-0.137346 0 0)
(-0.150269 0 0)
(-0.163151 0 0)
(-0.175986 0 0)
(-0.188773 0 0)
(-0.201507 0 0)
(-0.214186 0 0)
(-0.226805 0 0)
(-0.239363 0 0)
(-0.251855 0 0)
(-0.26428 0 0)
(-0.276634 0 0)
(-0.288913 0 0)
(-0.301117 0 0)
(-0.313241 0 0)
(-0.325284 0 0)
(-0.337242 0 0)
(-0.349113 0 0)
(-0.360896 0 0)
(-0.372588 0 0)
(-0.384186 0 0)
(-0.395689 0 0)
(-0.407094 0 0)
(-0.4184 0 0)
(-0.429606 0 0)
(-0.440708 0 0)
(-0.451707 0 0)
(-0.462599 0 0)
(-0.473384 0 0)
(-0.484061 0 0)
(-0.494627 0 0)
(-0.505083 0 0)
(-0.515426 0 0)
(-0.525656 0 0)
(-0.535772 0 0)
(-0.545773 0 0)
(-0.555658 0 0)
(-0.565426 0 0)
(-0.575077 0 0)
(-0.58461 0 0)
(-0.594025 0 0)
(-0.603321 0 0)
(-0.612498 0 0)
(-0.621555 0 0)
(-0.630492 0 0)
(-0.639309 0 0)
(-0.648006 0 0)
(-0.656583 0 0)
(-0.665039 0 0)
(-0.673375 0 0)
(-0.681591 0 0)
(-0.689686 0 0)
(-0.697661 0 0)
(-0.705516 0 0)
(-0.713252 0 0)
(-0.720868 0 0)
(-0.728364 0 0)
(-0.735742 0 0)
(-0.743002 0 0)
(-0.750143 0 0)
(-0.757166 0 0)
(-0.764073 0 0)
(-0.770862 0 0)
(-0.777536 0 0)
(-0.784093 0 0)
(-0.790536 0 0)
(-0.796863 0 0)
(-0.803077 0 0)
(-0.809178 0 0)
(-0.815165 0 0)
(-0.821041 0 0)
(-0.826805 0 0)
(-0.832458 0 0)
(-0.838001 0 0)
(-0.843435 0 0)
(-0.848761 0 0)
(-0.853978 0 0)
(-0.859088 0 0)
(-0.864092 0 0)
(-0.86899 0 0)
(-0.873784 0 0)
(-0.878473 0 0)
(-0.883058 0 0)
(-0.887542 0 0)
(-0.891923 0 0)
(-0.896204 0 0)
(-0.900384 0 0)
(-0.904465 0 0)
(-0.908447 0 0)
(-0.912332 0 0)
(-0.916119 0 0)
(-0.91981 0 0)
(-0.923406 0 0)
(-0.926908 0 0)
(-0.930315 0 0)
(-0.93363 0 0)
(-0.936852 0 0)
(-0.939983 0 0)
(-0.943023 0 0)
(-0.945974 0 0)
(-0.948836 0 0)
(-0.951609 0 0)
(-0.954295 0 0)
(-0.956894 0 0)
(-0.959408 0 0)
(-0.961836 0 0)
(-0.96418 0 0)
(-0.966441 0 0)
(-0.968618 0 0)
(-0.970714 0 0)
(-0.972729 0 0)
(-0.974663 0 0)
(-0.976517 0 0)
(-0.978292 0 0)
(-0.979989 0 0)
(-0.981608 0 0)
(-0.98315 0 0)
(-0.984617 0 0)
(-0.986008 0 0)
(-0.987324 0 0)
(-0.988566 0 0)
(-0.989735 0 0)
(-0.990831 0 0)
(-0.991855 0 0)
(-0.992809 0 0)
(-0.993691 0 0)
(-0.994504 0 0)
(-0.995247 0 0)
(-0.995922 0 0)
(-0.996529 0 0)
(-0.997069 0 0)
(-0.997542 0 0)
(-0.997949 0 0)
(-0.998291 0 0)
(-0.998568 0 0)
(-0.998781 0 0)
(-0.998931 0 0)
(-0.999017 0 0)
(-0.999041 0 0)
(-0.999004 0 0)
(-0.998905 0 0)
(-0.998746 0 0)
(-0.998527 0 0)
(-0.998249 0 0)
(-0.997911 0 0)
(-0.997516 0 0)
(-0.997063 0 0)
(-0.996553 0 0)
(-0.995986 0 0)
(-0.995363 0 0)
(-0.994684 0 0)
(-0.993951 0 0)
(-0.993163 0 0)
(-0.992321 0 0)
(-0.991426 0 0)
(-0.990478 0 0)
(-0.989477 0 0)
(-0.988425 0 0)
(-0.987321 0 0)
(-0.986166 0 0)
(-0.984961 0 0)
(-0.983706 0 0)
(-0.982401 0 0)
(-0.981047 0 0)
(-0.979645 0 0)
(-0.978195 0 0)
(-0.976697 0 0)
(-0.975152 0 0)
(-0.97356 0 0)
(-0.971922 0 0)
(-0.970238 0 0)
(-0.968508 0 0)
(-0.966734 0 0)
(-0.964915 0 0)
(-0.963052 0 0)
(-0.961145 0 0)
(-0.959195 0 0)
(-0.957202 0 0)
(-0.955167 0 0)
(-0.953089 0 0)
(-0.95097 0 0)
(-0.948809 0 0)
(-0.946608 0 0)
(-0.944366 0 0)
(-0.942084 0 0)
(-0.939762 0 0)
(-0.937401 0 0)
(-0.935 0 0)
(-0.932561 0 0)
(-0.930084 0 0)
(-0.927569 0 0)
(-0.925017 0 0)
(-0.922427 0 0)
(-0.9198 0 0)
(-0.917137 0 0)
(-0.914437 0 0)
(-0.911702 0 0)
(-0.908931 0 0)
(-0.906126 0 0)
(-0.903285 0 0)
(-0.90041 0 0)
(-0.8975 0 0)
(-0.894557 0 0)
(-0.89158 0 0)
(-0.888571 0 0)
(-0.885528 0 0)
(-0.882452 0 0)
(-0.879345 0 0)
(-0.876205 0 0)
(-0.873034 0 0)
(-0.869831 0 0)
(-0.866597 0 0)
(-0.863333 0 0)
(-0.860038 0 0)
(-0.856713 0 0)
(-0.853357 0 0)
(-0.849973 0 0)
(-0.846559 0 0)
(-0.843115 0 0)
(-0.839643 0 0)
(-0.836143 0 0)
(-0.832614 0 0)
(-0.829057 0 0)
(-0.825473 0 0)
(-0.821861 0 0)
(-0.818222 0 0)
(-0.814556 0 0)
(-0.810863 0 0)
(-0.807144 0 0)
(-0.803399 0 0)
(-0.799628 0 0)
(-0.795831 0 0)
(-0.792009 0 0)
(-0.788161 0 0)
(-0.784289 0 0)
(-0.780392 0 0)
(-0.776471 0 0)
(-0.772525 0 0)
(-0.768556 0 0)
(-0.764562 0 0)
(-0.760546 0 0)
(-0.756505 0 0)
(-0.752442 0 0)
(-0.748356 0 0)
(-0.744248 0 0)
(-0.740117 0 0)
(-0.735964 0 0)
(-0.731789 0 0)
(-0.727593 0 0)
(-0.723375 0 0)
(-0.719135 0 0)
(-0.714875 0 0)
(-0.710593 0 0)
(-0.706291 0 0)
(-0.701969 0 0)
(-0.697627 0 0)
(-0.693264 0 0)
(-0.688882 0 0)
(-0.68448 0 0)
(-0.680058 0 0)
(-0.675618 0 0)
(-0.671158 0 0)
(-0.66668 0 0)
(-0.662183 0 0)
(-0.657667 0 0)
(-0.653133 0 0)
(-0.648582 0 0)
(-0.644012 0 0)
(-0.639425 0 0)
(-0.63482 0 0)
(-0.630198 0 0)
(-0.625559 0 0)
(-0.620903 0 0)
(-0.616231 0 0)
(-0.611541 0 0)
(-0.606836 0 0)
(-0.602114 0 0)
(-0.597376 0 0)
(-0.592623 0 0)
(-0.587853 0 0)
(-0.583069 0 0)
(-0.578269 0 0)
(-0.573453 0 0)
(-0.568623 0 0)
(-0.563778 0 0)
(-0.558919 0 0)
(-0.554045 0 0)
(-0.549157 0 0)
(-0.544254 0 0)
(-0.539338 0 0)
(-0.534408 0 0)
(-0.529464 0 0)
(-0.524507 0 0)
(-0.519537 0 0)
(-0.514553 0 0)
(-0.509557 0 0)
(-0.504548 0 0)
(-0.499526 0 0)
(-0.494491 0 0)
(-0.489445 0 0)
(-0.484386 0 0)
(-0.479315 0 0)
(-0.474232 0 0)
(-0.469138 0 0)
(-0.464032 0 0)
(-0.458914 0 0)
(-0.453786 0 0)
(-0.448646 0 0)
(-0.443495 0 0)
(-0.438334 0 0)
(-0.433162 0 0)
(-0.427979 0 0)
(-0.422786 0 0)
(-0.417583 0 0)
(-0.41237 0 0)
(-0.407147 0 0)
(-0.401914 0 0)
(-0.396671 0 0)
(-0.391419 0 0)
(-0.386158 0 0)
(-0.380888 0 0)
(-0.375608 0 0)
(-0.37032 0 0)
(-0.365023 0 0)
(-0.359717 0 0)
(-0.354403 0 0)
(-0.34908 0 0)
(-0.34375 0 0)
(-0.338411 0 0)
(-0.333064 0 0)
(-0.32771 0 0)
(-0.322348 0 0)
(-0.316978 0 0)
(-0.311601 0 0)
(-0.306217 0 0)
(-0.300826 0 0)
(-0.295427 0 0)
(-0.290022 0 0)
(-0.28461 0 0)
(-0.279192 0 0)
(-0.273767 0 0)
(-0.268336 0 0)
(-0.262899 0 0)
(-0.257456 0 0)
(-0.252007 0 0)
(-0.246552 0 0)
(-0.241092 0 0)
(-0.235626 0 0)
(-0.230154 0 0)
(-0.224678 0 0)
(-0.219196 0 0)
(-0.213709 0 0)
(-0.208218 0 0)
(-0.202722 0 0)
(-0.197221 0 0)
(-0.191716 0 0)
(-0.186206 0 0)
(-0.180692 0 0)
(-0.175174 0 0)
(-0.169653 0 0)
(-0.164127 0 0)
(-0.158598 0 0)
(-0.153065 0 0)
(-0.147529 0 0)
(-0.141989 0 0)
(-0.136446 0 0)
(-0.1309 0 0)
(-0.125352 0 0)
(-0.1198 0 0)
(-0.114246 0 0)
(-0.108689 0 0)
(-0.10313 0 0)
(-0.0975683 0 0)
(-0.0920046 0 0)
(-0.0864388 0 0)
(-0.0808711 0 0)
(-0.0753016 0 0)
(-0.0697305 0 0)
(-0.0641577 0 0)
(-0.0585836 0 0)
(-0.0530081 0 0)
(-0.0474315 0 0)
(-0.0418538 0 0)
(-0.0362752 0 0)
(-0.0306957 0 0)
(-0.0251156 0 0)
(-0.019535 0 0)
(-0.0139539 0 0)
(-0.00837243 0 0)
(-0.00279083 0 0)
)
;

boundaryField
{
    left
    {
        type            fixedValue;
        value           uniform (0 0 0);
    }
    right
    {
        type            fixedValue;
        value           uniform (0 0 0);
    }
    frontBackUpDown
    {
        type            empty;
    }
}


// ************************************************************************* //
