/*--------------------------------*- C++ -*----------------------------------*\
| =========                 |                                                 |
| \\      /  F ield         | OpenFOAM: The Open Source CFD Toolbox           |
|  \\    /   O peration     | Version:  2412                                  |
|   \\  /    A nd           | Website:  www.openfoam.com                      |
|    \\/     M anipulation  |                                                 |
\*---------------------------------------------------------------------------*/
FoamFile
{
    version     2.0;
    format      ascii;
    arch        "LSB;label=32;scalar=64";
    class       surfaceScalarField;
    location    "0.64";
    object      phi;
}
// * * * * * * * * * * * * * * * * * * * * * * * * * * * * * * * * * * * * * //

dimensions      [0 3 -1 0 0 0 0];

oriented        oriented;

internalField   nonuniform List<scalar> 
799
(
2.6104e-05
5.22082e-05
7.83122e-05
0.000104416
0.00013052
0.000156623
0.000182726
0.000208828
0.00023493
0.000261032
0.000287133
0.000313233
0.000339332
0.000365431
0.000391529
0.000417626
0.000443722
0.000469817
0.000495911
0.000522004
0.000548095
0.000574185
0.000600274
0.000626362
0.000652448
0.000678533
0.000704616
0.000730697
0.000756777
0.000782855
0.000808931
0.000835005
0.000861078
0.000887148
0.000913216
0.000939282
0.000965346
0.000991408
0.00101747
0.00104352
0.00106958
0.00109563
0.00112168
0.00114773
0.00117377
0.00119981
0.00122585
0.00125189
0.00127792
0.00130395
0.00132998
0.001356
0.00138202
0.00140804
0.00143405
0.00146006
0.00148607
0.00151207
0.00153808
0.00156407
0.00159006
0.00161605
0.00164204
0.00166802
0.001694
0.00171997
0.00174594
0.00177191
0.00179787
0.00182382
0.00184978
0.00187572
0.00190167
0.00192761
0.00195354
0.00197947
0.00200539
0.00203131
0.00205723
0.00208314
0.00210904
0.00213494
0.00216084
0.00218673
0.00221261
0.00223849
0.00226437
0.00229024
0.0023161
0.00234195
0.00236781
0.00239365
0.00241949
0.00244532
0.00247115
0.00249697
0.00252279
0.0025486
0.0025744
0.0026002
0.00262599
0.00265177
0.00267755
0.00270332
0.00272909
0.00275484
0.00278059
0.00280634
0.00283207
0.0028578
0.00288352
0.00290924
0.00293495
0.00296065
0.00298634
0.00301202
0.0030377
0.00306337
0.00308903
0.00311469
0.00314033
0.00316597
0.0031916
0.00321722
0.00324284
0.00326844
0.00329404
0.00331963
0.00334521
0.00337078
0.00339634
0.0034219
0.00344744
0.00347298
0.0034985
0.00352402
0.00354953
0.00357503
0.00360052
0.003626
0.00365147
0.00367693
0.00370238
0.00372782
0.00375325
0.00377868
0.00380409
0.00382949
0.00385488
0.00388026
0.00390563
0.00393099
0.00395634
0.00398167
0.004007
0.00403232
0.00405762
0.00408291
0.0041082
0.00413347
0.00415873
0.00418398
0.00420921
0.00423444
0.00425965
0.00428485
0.00431004
0.00433522
0.00436038
0.00438554
0.00441068
0.0044358
0.00446092
0.00448602
0.00451111
0.00453618
0.00456125
0.0045863
0.00461133
0.00463636
0.00466137
0.00468636
0.00471135
0.00473631
0.00476127
0.00478621
0.00481114
0.00483605
0.00486095
0.00488583
0.0049107
0.00493555
0.00496039
0.00498521
0.00501002
0.00503482
0.00505959
0.00508436
0.0051091
0.00513383
0.00515855
0.00518325
0.00520793
0.0052326
0.00525725
0.00528188
0.0053065
0.0053311
0.00535568
0.00538025
0.0054048
0.00542933
0.00545384
0.00547834
0.00550282
0.00552728
0.00555172
0.00557614
0.00560055
0.00562494
0.00564931
0.00567366
0.00569799
0.0057223
0.00574659
0.00577086
0.00579512
0.00581935
0.00584357
0.00586776
0.00589193
0.00591609
0.00594022
0.00596433
0.00598842
0.00601249
0.00603654
0.00606057
0.00608457
0.00610855
0.00613252
0.00615646
0.00618037
0.00620427
0.00622814
0.00625199
0.00627581
0.00629962
0.00632339
0.00634715
0.00637088
0.00639459
0.00641827
0.00644193
0.00646556
0.00648917
0.00651276
0.00653632
0.00655985
0.00658336
0.00660684
0.00663029
0.00665372
0.00667712
0.0067005
0.00672385
0.00674717
0.00677046
0.00679373
0.00681696
0.00684017
0.00686335
0.0068865
0.00690963
0.00693272
0.00695578
0.00697882
0.00700182
0.00702479
0.00704774
0.00707065
0.00709353
0.00711638
0.00713919
0.00716198
0.00718473
0.00720745
0.00723014
0.00725279
0.00727541
0.007298
0.00732055
0.00734307
0.00736555
0.007388
0.00741041
0.00743279
0.00745513
0.00747743
0.0074997
0.00752193
0.00754412
0.00756627
0.00758839
0.00761047
0.00763251
0.0076545
0.00767646
0.00769838
0.00772026
0.0077421
0.00776389
0.00778565
0.00780736
0.00782903
0.00785065
0.00787223
0.00789377
0.00791527
0.00793671
0.00795812
0.00797947
0.00800079
0.00802205
0.00804327
0.00806443
0.00808555
0.00810663
0.00812765
0.00814862
0.00816954
0.00819041
0.00821123
0.008232
0.00825271
0.00827337
0.00829398
0.00831453
0.00833502
0.00835546
0.00837585
0.00839617
0.00841644
0.00843665
0.0084568
0.0084769
0.00849693
0.00851689
0.0085368
0.00855665
0.00857643
0.00859614
0.00861579
0.00863538
0.00865489
0.00867434
0.00869372
0.00871303
0.00873228
0.00875144
0.00877054
0.00878957
0.00880852
0.00882739
0.00884619
0.00886491
0.00888355
0.00890211
0.0089206
0.008939
0.00895732
0.00897555
0.0089937
0.00901176
0.00902974
0.00904762
0.00906542
0.00908312
0.00910073
0.00911824
0.00913566
0.00915299
0.00917021
0.00918733
0.00920435
0.00922127
0.00923808
0.00925478
0.00927138
0.00928786
0.00930423
0.00932049
0.00933663
0.00935265
0.00936851
0.00938474
0.00939517
0.00947029
0.00756412
6.77995e-06
-0.00755716
-0.00947011
-0.00939517
-0.00938472
-0.0093685
-0.00935264
-0.00933661
-0.00932047
-0.00930422
-0.00928784
-0.00927136
-0.00925477
-0.00923806
-0.00922125
-0.00920433
-0.00918731
-0.00917019
-0.00915297
-0.00913565
-0.00911823
-0.00910071
-0.0090831
-0.0090654
-0.0090476
-0.00902972
-0.00901174
-0.00899368
-0.00897553
-0.0089573
-0.00893898
-0.00892058
-0.00890209
-0.00888353
-0.00886489
-0.00884617
-0.00882737
-0.00880849
-0.00878954
-0.00877052
-0.00875142
-0.00873225
-0.00871301
-0.0086937
-0.00867432
-0.00865487
-0.00863535
-0.00861577
-0.00859612
-0.0085764
-0.00855662
-0.00853678
-0.00851687
-0.0084969
-0.00847687
-0.00845678
-0.00843663
-0.00841642
-0.00839615
-0.00837582
-0.00835544
-0.008335
-0.0083145
-0.00829395
-0.00827335
-0.00825269
-0.00823197
-0.00821121
-0.00819039
-0.00816952
-0.0081486
-0.00812762
-0.0081066
-0.00808553
-0.00806441
-0.00804324
-0.00802203
-0.00800076
-0.00797945
-0.00795809
-0.00793669
-0.00791524
-0.00789375
-0.00787221
-0.00785063
-0.007829
-0.00780733
-0.00778562
-0.00776387
-0.00774207
-0.00772024
-0.00769836
-0.00767644
-0.00765448
-0.00763248
-0.00761044
-0.00758837
-0.00756625
-0.0075441
-0.0075219
-0.00749968
-0.00747741
-0.0074551
-0.00743276
-0.00741039
-0.00738798
-0.00736553
-0.00734305
-0.00732053
-0.00729798
-0.00727539
-0.00725277
-0.00723012
-0.00720743
-0.00718471
-0.00716196
-0.00713917
-0.00711635
-0.0070935
-0.00707062
-0.00704771
-0.00702477
-0.0070018
-0.00697879
-0.00695576
-0.0069327
-0.0069096
-0.00688648
-0.00686333
-0.00684015
-0.00681694
-0.0067937
-0.00677044
-0.00674715
-0.00672382
-0.00670048
-0.0066771
-0.0066537
-0.00663027
-0.00660682
-0.00658334
-0.00655983
-0.0065363
-0.00651274
-0.00648915
-0.00646554
-0.00644191
-0.00641825
-0.00639457
-0.00637086
-0.00634713
-0.00632337
-0.0062996
-0.00627579
-0.00625197
-0.00622812
-0.00620425
-0.00618035
-0.00615644
-0.0061325
-0.00610854
-0.00608455
-0.00606055
-0.00603652
-0.00601247
-0.0059884
-0.00596431
-0.0059402
-0.00591607
-0.00589191
-0.00586774
-0.00584355
-0.00581933
-0.0057951
-0.00577085
-0.00574657
-0.00572228
-0.00569797
-0.00567364
-0.00564929
-0.00562492
-0.00560053
-0.00557613
-0.0055517
-0.00552726
-0.0055028
-0.00547832
-0.00545383
-0.00542931
-0.00540478
-0.00538023
-0.00535567
-0.00533108
-0.00530648
-0.00528187
-0.00525723
-0.00523258
-0.00520792
-0.00518323
-0.00515853
-0.00513382
-0.00510909
-0.00508434
-0.00505958
-0.0050348
-0.00501001
-0.0049852
-0.00496038
-0.00493554
-0.00491068
-0.00488582
-0.00486093
-0.00483604
-0.00481112
-0.0047862
-0.00476126
-0.0047363
-0.00471133
-0.00468635
-0.00466136
-0.00463635
-0.00461132
-0.00458629
-0.00456124
-0.00453617
-0.0045111
-0.00448601
-0.00446091
-0.00443579
-0.00441066
-0.00438552
-0.00436037
-0.00433521
-0.00431003
-0.00428484
-0.00425964
-0.00423443
-0.0042092
-0.00418397
-0.00415872
-0.00413346
-0.00410819
-0.00408291
-0.00405761
-0.00403231
-0.00400699
-0.00398166
-0.00395633
-0.00393098
-0.00390562
-0.00388025
-0.00385487
-0.00382948
-0.00380408
-0.00377867
-0.00375325
-0.00372781
-0.00370237
-0.00367692
-0.00365146
-0.00362599
-0.00360051
-0.00357502
-0.00354952
-0.00352401
-0.0034985
-0.00347297
-0.00344743
-0.00342189
-0.00339634
-0.00337077
-0.0033452
-0.00331962
-0.00329403
-0.00326844
-0.00324283
-0.00321722
-0.0031916
-0.00316597
-0.00314033
-0.00311468
-0.00308903
-0.00306337
-0.0030377
-0.00301202
-0.00298633
-0.00296064
-0.00293494
-0.00290923
-0.00288352
-0.0028578
-0.00283207
-0.00280633
-0.00278059
-0.00275484
-0.00272908
-0.00270332
-0.00267755
-0.00265177
-0.00262599
-0.00260019
-0.0025744
-0.0025486
-0.00252279
-0.00249697
-0.00247115
-0.00244532
-0.00241949
-0.00239365
-0.0023678
-0.00234195
-0.00231609
-0.00229023
-0.00226436
-0.00223849
-0.00221261
-0.00218673
-0.00216084
-0.00213494
-0.00210904
-0.00208314
-0.00205723
-0.00203131
-0.00200539
-0.00197947
-0.00195354
-0.0019276
-0.00190166
-0.00187572
-0.00184977
-0.00182382
-0.00179786
-0.0017719
-0.00174594
-0.00171997
-0.001694
-0.00166802
-0.00164204
-0.00161605
-0.00159006
-0.00156407
-0.00153807
-0.00151207
-0.00148607
-0.00146006
-0.00143405
-0.00140804
-0.00138202
-0.001356
-0.00132998
-0.00130395
-0.00127792
-0.00125189
-0.00122585
-0.00119981
-0.00117377
-0.00114773
-0.00112168
-0.00109563
-0.00106958
-0.00104352
-0.00101747
-0.000991407
-0.000965346
-0.000939282
-0.000913216
-0.000887147
-0.000861077
-0.000835005
-0.00080893
-0.000782854
-0.000756776
-0.000730697
-0.000704615
-0.000678532
-0.000652448
-0.000626362
-0.000600274
-0.000574185
-0.000548095
-0.000522003
-0.000495911
-0.000469817
-0.000443722
-0.000417626
-0.000391529
-0.000365431
-0.000339332
-0.000313233
-0.000287133
-0.000261032
-0.00023493
-0.000208828
-0.000182726
-0.000156623
-0.00013052
-0.000104416
-7.83123e-05
-5.22083e-05
-2.61042e-05
)
;

boundaryField
{
    left
    {
        type            calculated;
        value           uniform 0;
    }
    right
    {
        type            calculated;
        value           uniform 0;
    }
    frontBackUpDown
    {
        type            empty;
    }
}


// ************************************************************************* //
