/*--------------------------------*- C++ -*----------------------------------*\
| =========                 |                                                 |
| \\      /  F ield         | OpenFOAM: The Open Source CFD Toolbox           |
|  \\    /   O peration     | Version:  2412                                  |
|   \\  /    A nd           | Website:  www.openfoam.com                      |
|    \\/     M anipulation  |                                                 |
\*---------------------------------------------------------------------------*/
FoamFile
{
    version     2.0;
    format      ascii;
    arch        "LSB;label=32;scalar=64";
    class       volVectorField;
    location    "0.64";
    object      U_0_0_0;
}
// * * * * * * * * * * * * * * * * * * * * * * * * * * * * * * * * * * * * * //

dimensions      [0 1 -1 0 0 0 0];

internalField   nonuniform List<vector> 
800
(
(0.00130724 0 0)
(0.00392174 0 0)
(0.00653624 0 0)
(0.00915072 0 0)
(0.0117652 0 0)
(0.0143796 0 0)
(0.016994 0 0)
(0.0196084 0 0)
(0.0222227 0 0)
(0.0248369 0 0)
(0.0274511 0 0)
(0.0300653 0 0)
(0.0326794 0 0)
(0.0352934 0 0)
(0.0379073 0 0)
(0.0405211 0 0)
(0.0431348 0 0)
(0.0457485 0 0)
(0.048362 0 0)
(0.0509754 0 0)
(0.0535887 0 0)
(0.0562019 0 0)
(0.0588149 0 0)
(0.0614278 0 0)
(0.0640406 0 0)
(0.0666532 0 0)
(0.0692656 0 0)
(0.0718779 0 0)
(0.0744901 0 0)
(0.077102 0 0)
(0.0797138 0 0)
(0.0823254 0 0)
(0.0849368 0 0)
(0.087548 0 0)
(0.090159 0 0)
(0.0927698 0 0)
(0.0953803 0 0)
(0.0979907 0 0)
(0.100601 0 0)
(0.103211 0 0)
(0.10582 0 0)
(0.10843 0 0)
(0.111039 0 0)
(0.113648 0 0)
(0.116256 0 0)
(0.118865 0 0)
(0.121473 0 0)
(0.124081 0 0)
(0.126688 0 0)
(0.129295 0 0)
(0.131902 0 0)
(0.134509 0 0)
(0.137115 0 0)
(0.139721 0 0)
(0.142326 0 0)
(0.144932 0 0)
(0.147537 0 0)
(0.150141 0 0)
(0.152745 0 0)
(0.155349 0 0)
(0.157953 0 0)
(0.160556 0 0)
(0.163159 0 0)
(0.165761 0 0)
(0.168363 0 0)
(0.170964 0 0)
(0.173566 0 0)
(0.176166 0 0)
(0.178767 0 0)
(0.181366 0 0)
(0.183966 0 0)
(0.186565 0 0)
(0.189163 0 0)
(0.191762 0 0)
(0.194359 0 0)
(0.196956 0 0)
(0.199553 0 0)
(0.202149 0 0)
(0.204745 0 0)
(0.20734 0 0)
(0.209935 0 0)
(0.212529 0 0)
(0.215123 0 0)
(0.217716 0 0)
(0.220309 0 0)
(0.222901 0 0)
(0.225493 0 0)
(0.228084 0 0)
(0.230674 0 0)
(0.233264 0 0)
(0.235853 0 0)
(0.238442 0 0)
(0.24103 0 0)
(0.243618 0 0)
(0.246205 0 0)
(0.248791 0 0)
(0.251377 0 0)
(0.253962 0 0)
(0.256547 0 0)
(0.259131 0 0)
(0.261714 0 0)
(0.264296 0 0)
(0.266878 0 0)
(0.26946 0 0)
(0.27204 0 0)
(0.27462 0 0)
(0.277199 0 0)
(0.279778 0 0)
(0.282356 0 0)
(0.284933 0 0)
(0.287509 0 0)
(0.290085 0 0)
(0.29266 0 0)
(0.295234 0 0)
(0.297808 0 0)
(0.30038 0 0)
(0.302952 0 0)
(0.305524 0 0)
(0.308094 0 0)
(0.310664 0 0)
(0.313232 0 0)
(0.3158 0 0)
(0.318368 0 0)
(0.320934 0 0)
(0.3235 0 0)
(0.326064 0 0)
(0.328628 0 0)
(0.331191 0 0)
(0.333753 0 0)
(0.336315 0 0)
(0.338875 0 0)
(0.341435 0 0)
(0.343993 0 0)
(0.346551 0 0)
(0.349108 0 0)
(0.351664 0 0)
(0.354219 0 0)
(0.356773 0 0)
(0.359326 0 0)
(0.361878 0 0)
(0.36443 0 0)
(0.36698 0 0)
(0.369529 0 0)
(0.372077 0 0)
(0.374625 0 0)
(0.377171 0 0)
(0.379716 0 0)
(0.38226 0 0)
(0.384804 0 0)
(0.387346 0 0)
(0.389887 0 0)
(0.392427 0 0)
(0.394966 0 0)
(0.397504 0 0)
(0.400041 0 0)
(0.402576 0 0)
(0.405111 0 0)
(0.407645 0 0)
(0.410177 0 0)
(0.412708 0 0)
(0.415238 0 0)
(0.417767 0 0)
(0.420295 0 0)
(0.422822 0 0)
(0.425347 0 0)
(0.427871 0 0)
(0.430394 0 0)
(0.432916 0 0)
(0.435437 0 0)
(0.437956 0 0)
(0.440474 0 0)
(0.442991 0 0)
(0.445506 0 0)
(0.448021 0 0)
(0.450534 0 0)
(0.453045 0 0)
(0.455556 0 0)
(0.458065 0 0)
(0.460573 0 0)
(0.463079 0 0)
(0.465584 0 0)
(0.468088 0 0)
(0.47059 0 0)
(0.473091 0 0)
(0.47559 0 0)
(0.478089 0 0)
(0.480585 0 0)
(0.48308 0 0)
(0.485574 0 0)
(0.488067 0 0)
(0.490557 0 0)
(0.493047 0 0)
(0.495535 0 0)
(0.498021 0 0)
(0.500506 0 0)
(0.502989 0 0)
(0.505471 0 0)
(0.507951 0 0)
(0.51043 0 0)
(0.512907 0 0)
(0.515382 0 0)
(0.517856 0 0)
(0.520329 0 0)
(0.522799 0 0)
(0.525268 0 0)
(0.527736 0 0)
(0.530201 0 0)
(0.532665 0 0)
(0.535127 0 0)
(0.537588 0 0)
(0.540047 0 0)
(0.542504 0 0)
(0.544959 0 0)
(0.547413 0 0)
(0.549864 0 0)
(0.552314 0 0)
(0.554763 0 0)
(0.557209 0 0)
(0.559653 0 0)
(0.562096 0 0)
(0.564537 0 0)
(0.566976 0 0)
(0.569413 0 0)
(0.571848 0 0)
(0.574281 0 0)
(0.576712 0 0)
(0.579141 0 0)
(0.581568 0 0)
(0.583993 0 0)
(0.586417 0 0)
(0.588838 0 0)
(0.591257 0 0)
(0.593674 0 0)
(0.596089 0 0)
(0.598502 0 0)
(0.600913 0 0)
(0.603321 0 0)
(0.605728 0 0)
(0.608132 0 0)
(0.610534 0 0)
(0.612934 0 0)
(0.615332 0 0)
(0.617727 0 0)
(0.62012 0 0)
(0.622511 0 0)
(0.6249 0 0)
(0.627286 0 0)
(0.62967 0 0)
(0.632051 0 0)
(0.634431 0 0)
(0.636808 0 0)
(0.639182 0 0)
(0.641554 0 0)
(0.643923 0 0)
(0.64629 0 0)
(0.648655 0 0)
(0.651017 0 0)
(0.653376 0 0)
(0.655733 0 0)
(0.658088 0 0)
(0.660439 0 0)
(0.662788 0 0)
(0.665135 0 0)
(0.667479 0 0)
(0.66982 0 0)
(0.672158 0 0)
(0.674494 0 0)
(0.676827 0 0)
(0.679157 0 0)
(0.681484 0 0)
(0.683808 0 0)
(0.68613 0 0)
(0.688448 0 0)
(0.690764 0 0)
(0.693077 0 0)
(0.695387 0 0)
(0.697693 0 0)
(0.699997 0 0)
(0.702298 0 0)
(0.704596 0 0)
(0.70689 0 0)
(0.709182 0 0)
(0.71147 0 0)
(0.713755 0 0)
(0.716037 0 0)
(0.718315 0 0)
(0.720591 0 0)
(0.722863 0 0)
(0.725132 0 0)
(0.727397 0 0)
(0.729659 0 0)
(0.731917 0 0)
(0.734172 0 0)
(0.736424 0 0)
(0.738672 0 0)
(0.740916 0 0)
(0.743157 0 0)
(0.745394 0 0)
(0.747628 0 0)
(0.749858 0 0)
(0.752084 0 0)
(0.754306 0 0)
(0.756525 0 0)
(0.75874 0 0)
(0.76095 0 0)
(0.763157 0 0)
(0.76536 0 0)
(0.767559 0 0)
(0.769754 0 0)
(0.771945 0 0)
(0.774132 0 0)
(0.776314 0 0)
(0.778493 0 0)
(0.780667 0 0)
(0.782837 0 0)
(0.785002 0 0)
(0.787163 0 0)
(0.78932 0 0)
(0.791472 0 0)
(0.79362 0 0)
(0.795763 0 0)
(0.797902 0 0)
(0.800036 0 0)
(0.802165 0 0)
(0.804289 0 0)
(0.806409 0 0)
(0.808524 0 0)
(0.810634 0 0)
(0.812739 0 0)
(0.814839 0 0)
(0.816933 0 0)
(0.819023 0 0)
(0.821108 0 0)
(0.823187 0 0)
(0.825261 0 0)
(0.82733 0 0)
(0.829393 0 0)
(0.831451 0 0)
(0.833503 0 0)
(0.835549 0 0)
(0.83759 0 0)
(0.839625 0 0)
(0.841655 0 0)
(0.843678 0 0)
(0.845696 0 0)
(0.847707 0 0)
(0.849713 0 0)
(0.851712 0 0)
(0.853705 0 0)
(0.855691 0 0)
(0.857672 0 0)
(0.859646 0 0)
(0.861613 0 0)
(0.863574 0 0)
(0.865527 0 0)
(0.867475 0 0)
(0.869415 0 0)
(0.871348 0 0)
(0.873274 0 0)
(0.875193 0 0)
(0.877105 0 0)
(0.879009 0 0)
(0.880906 0 0)
(0.882796 0 0)
(0.884677 0 0)
(0.886551 0 0)
(0.888418 0 0)
(0.890276 0 0)
(0.892126 0 0)
(0.893968 0 0)
(0.895801 0 0)
(0.897626 0 0)
(0.899443 0 0)
(0.901251 0 0)
(0.90305 0 0)
(0.90484 0 0)
(0.906621 0 0)
(0.908393 0 0)
(0.910155 0 0)
(0.911908 0 0)
(0.913652 0 0)
(0.915385 0 0)
(0.917109 0 0)
(0.918822 0 0)
(0.920526 0 0)
(0.922219 0 0)
(0.923901 0 0)
(0.925572 0 0)
(0.927233 0 0)
(0.928882 0 0)
(0.930521 0 0)
(0.932147 0 0)
(0.933762 0 0)
(0.935365 0 0)
(0.936957 0 0)
(0.938526 0 0)
(0.940193 0 0)
(0.940579 0 0)
(0.955412 0 0)
(0.559511 0 0)
(-0.558154 0 0)
(-0.955376 0 0)
(-0.94058 0 0)
(-0.940192 0 0)
(-0.938525 0 0)
(-0.936955 0 0)
(-0.935363 0 0)
(-0.93376 0 0)
(-0.932145 0 0)
(-0.930519 0 0)
(-0.928881 0 0)
(-0.927231 0 0)
(-0.925571 0 0)
(-0.923899 0 0)
(-0.922217 0 0)
(-0.920524 0 0)
(-0.918821 0 0)
(-0.917107 0 0)
(-0.915383 0 0)
(-0.91365 0 0)
(-0.911906 0 0)
(-0.910153 0 0)
(-0.908391 0 0)
(-0.906619 0 0)
(-0.904838 0 0)
(-0.903048 0 0)
(-0.901249 0 0)
(-0.899441 0 0)
(-0.897624 0 0)
(-0.895799 0 0)
(-0.893966 0 0)
(-0.892124 0 0)
(-0.890274 0 0)
(-0.888415 0 0)
(-0.886549 0 0)
(-0.884675 0 0)
(-0.882794 0 0)
(-0.880904 0 0)
(-0.879007 0 0)
(-0.877103 0 0)
(-0.875191 0 0)
(-0.873272 0 0)
(-0.871346 0 0)
(-0.869413 0 0)
(-0.867472 0 0)
(-0.865525 0 0)
(-0.863571 0 0)
(-0.861611 0 0)
(-0.859643 0 0)
(-0.85767 0 0)
(-0.855689 0 0)
(-0.853703 0 0)
(-0.851709 0 0)
(-0.84971 0 0)
(-0.847705 0 0)
(-0.845693 0 0)
(-0.843676 0 0)
(-0.841652 0 0)
(-0.839623 0 0)
(-0.837588 0 0)
(-0.835547 0 0)
(-0.8335 0 0)
(-0.831448 0 0)
(-0.82939 0 0)
(-0.827327 0 0)
(-0.825259 0 0)
(-0.823185 0 0)
(-0.821105 0 0)
(-0.819021 0 0)
(-0.816931 0 0)
(-0.814836 0 0)
(-0.812736 0 0)
(-0.810631 0 0)
(-0.808522 0 0)
(-0.806407 0 0)
(-0.804287 0 0)
(-0.802163 0 0)
(-0.800033 0 0)
(-0.797899 0 0)
(-0.795761 0 0)
(-0.793618 0 0)
(-0.79147 0 0)
(-0.789318 0 0)
(-0.787161 0 0)
(-0.785 0 0)
(-0.782834 0 0)
(-0.780664 0 0)
(-0.77849 0 0)
(-0.776312 0 0)
(-0.774129 0 0)
(-0.771943 0 0)
(-0.769752 0 0)
(-0.767557 0 0)
(-0.765358 0 0)
(-0.763155 0 0)
(-0.760948 0 0)
(-0.758737 0 0)
(-0.756523 0 0)
(-0.754304 0 0)
(-0.752082 0 0)
(-0.749856 0 0)
(-0.747626 0 0)
(-0.745392 0 0)
(-0.743155 0 0)
(-0.740914 0 0)
(-0.73867 0 0)
(-0.736422 0 0)
(-0.73417 0 0)
(-0.731915 0 0)
(-0.729657 0 0)
(-0.727395 0 0)
(-0.725129 0 0)
(-0.722861 0 0)
(-0.720589 0 0)
(-0.718313 0 0)
(-0.716035 0 0)
(-0.713753 0 0)
(-0.711468 0 0)
(-0.709179 0 0)
(-0.706888 0 0)
(-0.704593 0 0)
(-0.702296 0 0)
(-0.699995 0 0)
(-0.697691 0 0)
(-0.695384 0 0)
(-0.693075 0 0)
(-0.690762 0 0)
(-0.688446 0 0)
(-0.686128 0 0)
(-0.683806 0 0)
(-0.681482 0 0)
(-0.679154 0 0)
(-0.676824 0 0)
(-0.674492 0 0)
(-0.672156 0 0)
(-0.669818 0 0)
(-0.667477 0 0)
(-0.665133 0 0)
(-0.662786 0 0)
(-0.660437 0 0)
(-0.658086 0 0)
(-0.655731 0 0)
(-0.653374 0 0)
(-0.651015 0 0)
(-0.648653 0 0)
(-0.646288 0 0)
(-0.643921 0 0)
(-0.641552 0 0)
(-0.63918 0 0)
(-0.636806 0 0)
(-0.634429 0 0)
(-0.632049 0 0)
(-0.629668 0 0)
(-0.627284 0 0)
(-0.624898 0 0)
(-0.622509 0 0)
(-0.620118 0 0)
(-0.617725 0 0)
(-0.61533 0 0)
(-0.612932 0 0)
(-0.610532 0 0)
(-0.60813 0 0)
(-0.605726 0 0)
(-0.603319 0 0)
(-0.600911 0 0)
(-0.5985 0 0)
(-0.596087 0 0)
(-0.593672 0 0)
(-0.591255 0 0)
(-0.588836 0 0)
(-0.586415 0 0)
(-0.583992 0 0)
(-0.581566 0 0)
(-0.579139 0 0)
(-0.57671 0 0)
(-0.574279 0 0)
(-0.571846 0 0)
(-0.569411 0 0)
(-0.566974 0 0)
(-0.564535 0 0)
(-0.562094 0 0)
(-0.559652 0 0)
(-0.557207 0 0)
(-0.554761 0 0)
(-0.552313 0 0)
(-0.549863 0 0)
(-0.547411 0 0)
(-0.544958 0 0)
(-0.542502 0 0)
(-0.540045 0 0)
(-0.537586 0 0)
(-0.535126 0 0)
(-0.532664 0 0)
(-0.5302 0 0)
(-0.527734 0 0)
(-0.525267 0 0)
(-0.522798 0 0)
(-0.520327 0 0)
(-0.517855 0 0)
(-0.515381 0 0)
(-0.512906 0 0)
(-0.510428 0 0)
(-0.50795 0 0)
(-0.50547 0 0)
(-0.502988 0 0)
(-0.500504 0 0)
(-0.49802 0 0)
(-0.495533 0 0)
(-0.493045 0 0)
(-0.490556 0 0)
(-0.488065 0 0)
(-0.485573 0 0)
(-0.483079 0 0)
(-0.480584 0 0)
(-0.478087 0 0)
(-0.475589 0 0)
(-0.47309 0 0)
(-0.470589 0 0)
(-0.468086 0 0)
(-0.465583 0 0)
(-0.463078 0 0)
(-0.460571 0 0)
(-0.458064 0 0)
(-0.455555 0 0)
(-0.453044 0 0)
(-0.450533 0 0)
(-0.44802 0 0)
(-0.445505 0 0)
(-0.44299 0 0)
(-0.440473 0 0)
(-0.437955 0 0)
(-0.435436 0 0)
(-0.432915 0 0)
(-0.430393 0 0)
(-0.42787 0 0)
(-0.425346 0 0)
(-0.422821 0 0)
(-0.420294 0 0)
(-0.417766 0 0)
(-0.415237 0 0)
(-0.412707 0 0)
(-0.410176 0 0)
(-0.407644 0 0)
(-0.40511 0 0)
(-0.402576 0 0)
(-0.40004 0 0)
(-0.397503 0 0)
(-0.394965 0 0)
(-0.392426 0 0)
(-0.389886 0 0)
(-0.387345 0 0)
(-0.384803 0 0)
(-0.38226 0 0)
(-0.379715 0 0)
(-0.37717 0 0)
(-0.374624 0 0)
(-0.372077 0 0)
(-0.369528 0 0)
(-0.366979 0 0)
(-0.364429 0 0)
(-0.361878 0 0)
(-0.359325 0 0)
(-0.356772 0 0)
(-0.354218 0 0)
(-0.351663 0 0)
(-0.349107 0 0)
(-0.34655 0 0)
(-0.343993 0 0)
(-0.341434 0 0)
(-0.338875 0 0)
(-0.336314 0 0)
(-0.333753 0 0)
(-0.331191 0 0)
(-0.328628 0 0)
(-0.326064 0 0)
(-0.323499 0 0)
(-0.320933 0 0)
(-0.318367 0 0)
(-0.3158 0 0)
(-0.313232 0 0)
(-0.310663 0 0)
(-0.308093 0 0)
(-0.305523 0 0)
(-0.302952 0 0)
(-0.30038 0 0)
(-0.297807 0 0)
(-0.295234 0 0)
(-0.292659 0 0)
(-0.290085 0 0)
(-0.287509 0 0)
(-0.284932 0 0)
(-0.282355 0 0)
(-0.279777 0 0)
(-0.277199 0 0)
(-0.27462 0 0)
(-0.27204 0 0)
(-0.269459 0 0)
(-0.266878 0 0)
(-0.264296 0 0)
(-0.261713 0 0)
(-0.25913 0 0)
(-0.256546 0 0)
(-0.253962 0 0)
(-0.251377 0 0)
(-0.248791 0 0)
(-0.246204 0 0)
(-0.243617 0 0)
(-0.24103 0 0)
(-0.238442 0 0)
(-0.235853 0 0)
(-0.233264 0 0)
(-0.230674 0 0)
(-0.228083 0 0)
(-0.225492 0 0)
(-0.222901 0 0)
(-0.220309 0 0)
(-0.217716 0 0)
(-0.215123 0 0)
(-0.212529 0 0)
(-0.209935 0 0)
(-0.20734 0 0)
(-0.204745 0 0)
(-0.202149 0 0)
(-0.199553 0 0)
(-0.196956 0 0)
(-0.194359 0 0)
(-0.191761 0 0)
(-0.189163 0 0)
(-0.186565 0 0)
(-0.183966 0 0)
(-0.181366 0 0)
(-0.178766 0 0)
(-0.176166 0 0)
(-0.173565 0 0)
(-0.170964 0 0)
(-0.168363 0 0)
(-0.165761 0 0)
(-0.163158 0 0)
(-0.160556 0 0)
(-0.157953 0 0)
(-0.155349 0 0)
(-0.152745 0 0)
(-0.150141 0 0)
(-0.147536 0 0)
(-0.144932 0 0)
(-0.142326 0 0)
(-0.139721 0 0)
(-0.137115 0 0)
(-0.134509 0 0)
(-0.131902 0 0)
(-0.129295 0 0)
(-0.126688 0 0)
(-0.12408 0 0)
(-0.121473 0 0)
(-0.118865 0 0)
(-0.116256 0 0)
(-0.113648 0 0)
(-0.111039 0 0)
(-0.10843 0 0)
(-0.10582 0 0)
(-0.103211 0 0)
(-0.100601 0 0)
(-0.0979906 0 0)
(-0.0953803 0 0)
(-0.0927697 0 0)
(-0.0901589 0 0)
(-0.0875479 0 0)
(-0.0849367 0 0)
(-0.0823253 0 0)
(-0.0797138 0 0)
(-0.077102 0 0)
(-0.07449 0 0)
(-0.0718779 0 0)
(-0.0692656 0 0)
(-0.0666532 0 0)
(-0.0640406 0 0)
(-0.0614278 0 0)
(-0.0588149 0 0)
(-0.0562019 0 0)
(-0.0535887 0 0)
(-0.0509754 0 0)
(-0.048362 0 0)
(-0.0457485 0 0)
(-0.0431348 0 0)
(-0.0405211 0 0)
(-0.0379073 0 0)
(-0.0352934 0 0)
(-0.0326794 0 0)
(-0.0300653 0 0)
(-0.0274512 0 0)
(-0.0248369 0 0)
(-0.0222227 0 0)
(-0.0196084 0 0)
(-0.016994 0 0)
(-0.0143796 0 0)
(-0.0117652 0 0)
(-0.00915073 0 0)
(-0.00653625 0 0)
(-0.00392176 0 0)
(-0.00130725 0 0)
)
;

boundaryField
{
    left
    {
        type            fixedValue;
        value           uniform (0 0 0);
    }
    right
    {
        type            fixedValue;
        value           uniform (0 0 0);
    }
    frontBackUpDown
    {
        type            empty;
    }
}


// ************************************************************************* //
