/*--------------------------------*- C++ -*----------------------------------*\
| =========                 |                                                 |
| \\      /  F ield         | OpenFOAM: The Open Source CFD Toolbox           |
|  \\    /   O peration     | Version:  2412                                  |
|   \\  /    A nd           | Website:  www.openfoam.com                      |
|    \\/     M anipulation  |                                                 |
\*---------------------------------------------------------------------------*/
FoamFile
{
    version     2.0;
    format      ascii;
    arch        "LSB;label=32;scalar=64";
    class       volVectorField;
    location    "0.64";
    object      U_0_0;
}
// * * * * * * * * * * * * * * * * * * * * * * * * * * * * * * * * * * * * * //

dimensions      [0 1 -1 0 0 0 0];

internalField   nonuniform List<vector> 
800
(
(0.00130656 0 0)
(0.0039197 0 0)
(0.00653283 0 0)
(0.00914594 0 0)
(0.011759 0 0)
(0.0143721 0 0)
(0.0169851 0 0)
(0.0195981 0 0)
(0.0222111 0 0)
(0.024824 0 0)
(0.0274368 0 0)
(0.0300496 0 0)
(0.0326623 0 0)
(0.035275 0 0)
(0.0378875 0 0)
(0.0405 0 0)
(0.0431123 0 0)
(0.0457246 0 0)
(0.0483368 0 0)
(0.0509488 0 0)
(0.0535608 0 0)
(0.0561726 0 0)
(0.0587843 0 0)
(0.0613958 0 0)
(0.0640072 0 0)
(0.0666184 0 0)
(0.0692295 0 0)
(0.0718405 0 0)
(0.0744513 0 0)
(0.0770619 0 0)
(0.0796723 0 0)
(0.0822825 0 0)
(0.0848925 0 0)
(0.0875024 0 0)
(0.090112 0 0)
(0.0927215 0 0)
(0.0953307 0 0)
(0.0979397 0 0)
(0.100548 0 0)
(0.103157 0 0)
(0.105765 0 0)
(0.108373 0 0)
(0.110981 0 0)
(0.113589 0 0)
(0.116196 0 0)
(0.118803 0 0)
(0.12141 0 0)
(0.124016 0 0)
(0.126622 0 0)
(0.129228 0 0)
(0.131833 0 0)
(0.134439 0 0)
(0.137044 0 0)
(0.139648 0 0)
(0.142252 0 0)
(0.144856 0 0)
(0.14746 0 0)
(0.150063 0 0)
(0.152666 0 0)
(0.155269 0 0)
(0.157871 0 0)
(0.160472 0 0)
(0.163074 0 0)
(0.165675 0 0)
(0.168275 0 0)
(0.170876 0 0)
(0.173476 0 0)
(0.176075 0 0)
(0.178674 0 0)
(0.181272 0 0)
(0.183871 0 0)
(0.186468 0 0)
(0.189065 0 0)
(0.191662 0 0)
(0.194259 0 0)
(0.196854 0 0)
(0.19945 0 0)
(0.202045 0 0)
(0.204639 0 0)
(0.207233 0 0)
(0.209826 0 0)
(0.212419 0 0)
(0.215012 0 0)
(0.217604 0 0)
(0.220195 0 0)
(0.222786 0 0)
(0.225376 0 0)
(0.227966 0 0)
(0.230555 0 0)
(0.233143 0 0)
(0.235731 0 0)
(0.238319 0 0)
(0.240906 0 0)
(0.243492 0 0)
(0.246078 0 0)
(0.248663 0 0)
(0.251247 0 0)
(0.253831 0 0)
(0.256414 0 0)
(0.258997 0 0)
(0.261579 0 0)
(0.26416 0 0)
(0.266741 0 0)
(0.269321 0 0)
(0.2719 0 0)
(0.274479 0 0)
(0.277057 0 0)
(0.279634 0 0)
(0.282211 0 0)
(0.284786 0 0)
(0.287362 0 0)
(0.289936 0 0)
(0.29251 0 0)
(0.295083 0 0)
(0.297655 0 0)
(0.300226 0 0)
(0.302797 0 0)
(0.305367 0 0)
(0.307936 0 0)
(0.310504 0 0)
(0.313072 0 0)
(0.315639 0 0)
(0.318205 0 0)
(0.32077 0 0)
(0.323334 0 0)
(0.325897 0 0)
(0.32846 0 0)
(0.331022 0 0)
(0.333583 0 0)
(0.336143 0 0)
(0.338702 0 0)
(0.34126 0 0)
(0.343818 0 0)
(0.346374 0 0)
(0.34893 0 0)
(0.351485 0 0)
(0.354038 0 0)
(0.356591 0 0)
(0.359143 0 0)
(0.361694 0 0)
(0.364244 0 0)
(0.366793 0 0)
(0.369341 0 0)
(0.371888 0 0)
(0.374434 0 0)
(0.376979 0 0)
(0.379523 0 0)
(0.382066 0 0)
(0.384608 0 0)
(0.387149 0 0)
(0.389689 0 0)
(0.392228 0 0)
(0.394766 0 0)
(0.397303 0 0)
(0.399838 0 0)
(0.402373 0 0)
(0.404906 0 0)
(0.407439 0 0)
(0.40997 0 0)
(0.4125 0 0)
(0.415029 0 0)
(0.417556 0 0)
(0.420083 0 0)
(0.422609 0 0)
(0.425133 0 0)
(0.427656 0 0)
(0.430178 0 0)
(0.432698 0 0)
(0.435218 0 0)
(0.437736 0 0)
(0.440253 0 0)
(0.442768 0 0)
(0.445283 0 0)
(0.447796 0 0)
(0.450308 0 0)
(0.452818 0 0)
(0.455328 0 0)
(0.457836 0 0)
(0.460342 0 0)
(0.462847 0 0)
(0.465351 0 0)
(0.467854 0 0)
(0.470355 0 0)
(0.472855 0 0)
(0.475353 0 0)
(0.47785 0 0)
(0.480346 0 0)
(0.48284 0 0)
(0.485333 0 0)
(0.487824 0 0)
(0.490314 0 0)
(0.492802 0 0)
(0.495289 0 0)
(0.497774 0 0)
(0.500258 0 0)
(0.50274 0 0)
(0.505221 0 0)
(0.5077 0 0)
(0.510177 0 0)
(0.512653 0 0)
(0.515128 0 0)
(0.517601 0 0)
(0.520072 0 0)
(0.522542 0 0)
(0.525009 0 0)
(0.527476 0 0)
(0.52994 0 0)
(0.532403 0 0)
(0.534864 0 0)
(0.537324 0 0)
(0.539782 0 0)
(0.542238 0 0)
(0.544692 0 0)
(0.547145 0 0)
(0.549595 0 0)
(0.552044 0 0)
(0.554492 0 0)
(0.556937 0 0)
(0.55938 0 0)
(0.561822 0 0)
(0.564262 0 0)
(0.5667 0 0)
(0.569136 0 0)
(0.57157 0 0)
(0.574002 0 0)
(0.576432 0 0)
(0.57886 0 0)
(0.581287 0 0)
(0.583711 0 0)
(0.586133 0 0)
(0.588553 0 0)
(0.590971 0 0)
(0.593388 0 0)
(0.595802 0 0)
(0.598214 0 0)
(0.600623 0 0)
(0.603031 0 0)
(0.605437 0 0)
(0.60784 0 0)
(0.610241 0 0)
(0.61264 0 0)
(0.615037 0 0)
(0.617432 0 0)
(0.619824 0 0)
(0.622214 0 0)
(0.624602 0 0)
(0.626987 0 0)
(0.62937 0 0)
(0.631751 0 0)
(0.634129 0 0)
(0.636505 0 0)
(0.638879 0 0)
(0.64125 0 0)
(0.643619 0 0)
(0.645985 0 0)
(0.648349 0 0)
(0.65071 0 0)
(0.653069 0 0)
(0.655425 0 0)
(0.657779 0 0)
(0.660129 0 0)
(0.662478 0 0)
(0.664823 0 0)
(0.667167 0 0)
(0.669507 0 0)
(0.671844 0 0)
(0.674179 0 0)
(0.676511 0 0)
(0.678841 0 0)
(0.681167 0 0)
(0.683491 0 0)
(0.685812 0 0)
(0.68813 0 0)
(0.690445 0 0)
(0.692757 0 0)
(0.695066 0 0)
(0.697372 0 0)
(0.699675 0 0)
(0.701976 0 0)
(0.704273 0 0)
(0.706567 0 0)
(0.708857 0 0)
(0.711145 0 0)
(0.71343 0 0)
(0.715711 0 0)
(0.717989 0 0)
(0.720264 0 0)
(0.722535 0 0)
(0.724803 0 0)
(0.727068 0 0)
(0.729329 0 0)
(0.731587 0 0)
(0.733842 0 0)
(0.736093 0 0)
(0.738341 0 0)
(0.740584 0 0)
(0.742825 0 0)
(0.745062 0 0)
(0.747295 0 0)
(0.749524 0 0)
(0.75175 0 0)
(0.753972 0 0)
(0.75619 0 0)
(0.758404 0 0)
(0.760615 0 0)
(0.762821 0 0)
(0.765024 0 0)
(0.767222 0 0)
(0.769417 0 0)
(0.771608 0 0)
(0.773794 0 0)
(0.775976 0 0)
(0.778154 0 0)
(0.780328 0 0)
(0.782498 0 0)
(0.784663 0 0)
(0.786824 0 0)
(0.78898 0 0)
(0.791132 0 0)
(0.79328 0 0)
(0.795423 0 0)
(0.797561 0 0)
(0.799695 0 0)
(0.801824 0 0)
(0.803948 0 0)
(0.806068 0 0)
(0.808183 0 0)
(0.810292 0 0)
(0.812397 0 0)
(0.814497 0 0)
(0.816592 0 0)
(0.818682 0 0)
(0.820766 0 0)
(0.822845 0 0)
(0.824919 0 0)
(0.826988 0 0)
(0.829051 0 0)
(0.831109 0 0)
(0.833161 0 0)
(0.835208 0 0)
(0.837249 0 0)
(0.839284 0 0)
(0.841314 0 0)
(0.843337 0 0)
(0.845355 0 0)
(0.847367 0 0)
(0.849372 0 0)
(0.851372 0 0)
(0.853365 0 0)
(0.855352 0 0)
(0.857333 0 0)
(0.859307 0 0)
(0.861275 0 0)
(0.863236 0 0)
(0.86519 0 0)
(0.867137 0 0)
(0.869078 0 0)
(0.871012 0 0)
(0.872939 0 0)
(0.874858 0 0)
(0.87677 0 0)
(0.878675 0 0)
(0.880573 0 0)
(0.882463 0 0)
(0.884345 0 0)
(0.88622 0 0)
(0.888087 0 0)
(0.889946 0 0)
(0.891796 0 0)
(0.893639 0 0)
(0.895473 0 0)
(0.897299 0 0)
(0.899117 0 0)
(0.900926 0 0)
(0.902726 0 0)
(0.904517 0 0)
(0.906299 0 0)
(0.908072 0 0)
(0.909835 0 0)
(0.911589 0 0)
(0.913334 0 0)
(0.915069 0 0)
(0.916794 0 0)
(0.918508 0 0)
(0.920213 0 0)
(0.921907 0 0)
(0.923591 0 0)
(0.925264 0 0)
(0.926926 0 0)
(0.928577 0 0)
(0.930216 0 0)
(0.931845 0 0)
(0.933461 0 0)
(0.935066 0 0)
(0.936659 0 0)
(0.938231 0 0)
(0.939899 0 0)
(0.940295 0 0)
(0.955052 0 0)
(0.559172 0 0)
(-0.557815 0 0)
(-0.955016 0 0)
(-0.940296 0 0)
(-0.939897 0 0)
(-0.938229 0 0)
(-0.936658 0 0)
(-0.935064 0 0)
(-0.933459 0 0)
(-0.931843 0 0)
(-0.930215 0 0)
(-0.928575 0 0)
(-0.926924 0 0)
(-0.925262 0 0)
(-0.923589 0 0)
(-0.921905 0 0)
(-0.920211 0 0)
(-0.918506 0 0)
(-0.916792 0 0)
(-0.915067 0 0)
(-0.913332 0 0)
(-0.911587 0 0)
(-0.909833 0 0)
(-0.90807 0 0)
(-0.906297 0 0)
(-0.904515 0 0)
(-0.902724 0 0)
(-0.900924 0 0)
(-0.899115 0 0)
(-0.897297 0 0)
(-0.895471 0 0)
(-0.893637 0 0)
(-0.891794 0 0)
(-0.889943 0 0)
(-0.888085 0 0)
(-0.886218 0 0)
(-0.884343 0 0)
(-0.882461 0 0)
(-0.880571 0 0)
(-0.878673 0 0)
(-0.876768 0 0)
(-0.874856 0 0)
(-0.872936 0 0)
(-0.87101 0 0)
(-0.869076 0 0)
(-0.867135 0 0)
(-0.865188 0 0)
(-0.863233 0 0)
(-0.861272 0 0)
(-0.859305 0 0)
(-0.857331 0 0)
(-0.85535 0 0)
(-0.853363 0 0)
(-0.85137 0 0)
(-0.84937 0 0)
(-0.847365 0 0)
(-0.845353 0 0)
(-0.843335 0 0)
(-0.841311 0 0)
(-0.839282 0 0)
(-0.837247 0 0)
(-0.835206 0 0)
(-0.833159 0 0)
(-0.831107 0 0)
(-0.829049 0 0)
(-0.826986 0 0)
(-0.824917 0 0)
(-0.822843 0 0)
(-0.820764 0 0)
(-0.818679 0 0)
(-0.81659 0 0)
(-0.814495 0 0)
(-0.812395 0 0)
(-0.81029 0 0)
(-0.80818 0 0)
(-0.806066 0 0)
(-0.803946 0 0)
(-0.801822 0 0)
(-0.799693 0 0)
(-0.797559 0 0)
(-0.795421 0 0)
(-0.793278 0 0)
(-0.79113 0 0)
(-0.788978 0 0)
(-0.786821 0 0)
(-0.784661 0 0)
(-0.782495 0 0)
(-0.780326 0 0)
(-0.778152 0 0)
(-0.775974 0 0)
(-0.773792 0 0)
(-0.771605 0 0)
(-0.769415 0 0)
(-0.76722 0 0)
(-0.765021 0 0)
(-0.762819 0 0)
(-0.760612 0 0)
(-0.758402 0 0)
(-0.756188 0 0)
(-0.753969 0 0)
(-0.751748 0 0)
(-0.749522 0 0)
(-0.747292 0 0)
(-0.745059 0 0)
(-0.742823 0 0)
(-0.740582 0 0)
(-0.738338 0 0)
(-0.736091 0 0)
(-0.73384 0 0)
(-0.731585 0 0)
(-0.729327 0 0)
(-0.727066 0 0)
(-0.724801 0 0)
(-0.722533 0 0)
(-0.720261 0 0)
(-0.717987 0 0)
(-0.715709 0 0)
(-0.713427 0 0)
(-0.711143 0 0)
(-0.708855 0 0)
(-0.706564 0 0)
(-0.70427 0 0)
(-0.701973 0 0)
(-0.699673 0 0)
(-0.69737 0 0)
(-0.695064 0 0)
(-0.692755 0 0)
(-0.690443 0 0)
(-0.688128 0 0)
(-0.68581 0 0)
(-0.683489 0 0)
(-0.681165 0 0)
(-0.678839 0 0)
(-0.676509 0 0)
(-0.674177 0 0)
(-0.671842 0 0)
(-0.669505 0 0)
(-0.667164 0 0)
(-0.664821 0 0)
(-0.662476 0 0)
(-0.660127 0 0)
(-0.657776 0 0)
(-0.655423 0 0)
(-0.653067 0 0)
(-0.650708 0 0)
(-0.648347 0 0)
(-0.645983 0 0)
(-0.643617 0 0)
(-0.641248 0 0)
(-0.638877 0 0)
(-0.636503 0 0)
(-0.634127 0 0)
(-0.631749 0 0)
(-0.629368 0 0)
(-0.626985 0 0)
(-0.6246 0 0)
(-0.622212 0 0)
(-0.619822 0 0)
(-0.61743 0 0)
(-0.615035 0 0)
(-0.612638 0 0)
(-0.610239 0 0)
(-0.607838 0 0)
(-0.605435 0 0)
(-0.603029 0 0)
(-0.600622 0 0)
(-0.598212 0 0)
(-0.5958 0 0)
(-0.593386 0 0)
(-0.59097 0 0)
(-0.588552 0 0)
(-0.586131 0 0)
(-0.583709 0 0)
(-0.581285 0 0)
(-0.578859 0 0)
(-0.57643 0 0)
(-0.574 0 0)
(-0.571568 0 0)
(-0.569134 0 0)
(-0.566698 0 0)
(-0.56426 0 0)
(-0.56182 0 0)
(-0.559379 0 0)
(-0.556935 0 0)
(-0.55449 0 0)
(-0.552043 0 0)
(-0.549594 0 0)
(-0.547143 0 0)
(-0.544691 0 0)
(-0.542236 0 0)
(-0.53978 0 0)
(-0.537322 0 0)
(-0.534863 0 0)
(-0.532402 0 0)
(-0.529939 0 0)
(-0.527474 0 0)
(-0.525008 0 0)
(-0.52254 0 0)
(-0.52007 0 0)
(-0.517599 0 0)
(-0.515126 0 0)
(-0.512652 0 0)
(-0.510176 0 0)
(-0.507698 0 0)
(-0.505219 0 0)
(-0.502739 0 0)
(-0.500256 0 0)
(-0.497773 0 0)
(-0.495287 0 0)
(-0.492801 0 0)
(-0.490312 0 0)
(-0.487822 0 0)
(-0.485331 0 0)
(-0.482839 0 0)
(-0.480344 0 0)
(-0.477849 0 0)
(-0.475352 0 0)
(-0.472854 0 0)
(-0.470354 0 0)
(-0.467853 0 0)
(-0.46535 0 0)
(-0.462846 0 0)
(-0.460341 0 0)
(-0.457834 0 0)
(-0.455326 0 0)
(-0.452817 0 0)
(-0.450307 0 0)
(-0.447795 0 0)
(-0.445282 0 0)
(-0.442767 0 0)
(-0.440252 0 0)
(-0.437735 0 0)
(-0.435217 0 0)
(-0.432697 0 0)
(-0.430177 0 0)
(-0.427655 0 0)
(-0.425132 0 0)
(-0.422607 0 0)
(-0.420082 0 0)
(-0.417555 0 0)
(-0.415028 0 0)
(-0.412499 0 0)
(-0.409969 0 0)
(-0.407438 0 0)
(-0.404905 0 0)
(-0.402372 0 0)
(-0.399837 0 0)
(-0.397302 0 0)
(-0.394765 0 0)
(-0.392227 0 0)
(-0.389688 0 0)
(-0.387149 0 0)
(-0.384608 0 0)
(-0.382066 0 0)
(-0.379523 0 0)
(-0.376979 0 0)
(-0.374433 0 0)
(-0.371887 0 0)
(-0.36934 0 0)
(-0.366792 0 0)
(-0.364243 0 0)
(-0.361693 0 0)
(-0.359142 0 0)
(-0.356591 0 0)
(-0.354038 0 0)
(-0.351484 0 0)
(-0.348929 0 0)
(-0.346374 0 0)
(-0.343817 0 0)
(-0.34126 0 0)
(-0.338701 0 0)
(-0.336142 0 0)
(-0.333582 0 0)
(-0.331021 0 0)
(-0.328459 0 0)
(-0.325897 0 0)
(-0.323333 0 0)
(-0.320769 0 0)
(-0.318204 0 0)
(-0.315638 0 0)
(-0.313071 0 0)
(-0.310504 0 0)
(-0.307935 0 0)
(-0.305366 0 0)
(-0.302796 0 0)
(-0.300226 0 0)
(-0.297654 0 0)
(-0.295082 0 0)
(-0.292509 0 0)
(-0.289935 0 0)
(-0.287361 0 0)
(-0.284786 0 0)
(-0.28221 0 0)
(-0.279634 0 0)
(-0.277056 0 0)
(-0.274478 0 0)
(-0.2719 0 0)
(-0.26932 0 0)
(-0.26674 0 0)
(-0.26416 0 0)
(-0.261579 0 0)
(-0.258997 0 0)
(-0.256414 0 0)
(-0.253831 0 0)
(-0.251247 0 0)
(-0.248662 0 0)
(-0.246077 0 0)
(-0.243492 0 0)
(-0.240905 0 0)
(-0.238319 0 0)
(-0.235731 0 0)
(-0.233143 0 0)
(-0.230554 0 0)
(-0.227965 0 0)
(-0.225376 0 0)
(-0.222785 0 0)
(-0.220195 0 0)
(-0.217603 0 0)
(-0.215011 0 0)
(-0.212419 0 0)
(-0.209826 0 0)
(-0.207233 0 0)
(-0.204639 0 0)
(-0.202044 0 0)
(-0.199449 0 0)
(-0.196854 0 0)
(-0.194258 0 0)
(-0.191662 0 0)
(-0.189065 0 0)
(-0.186468 0 0)
(-0.18387 0 0)
(-0.181272 0 0)
(-0.178674 0 0)
(-0.176075 0 0)
(-0.173475 0 0)
(-0.170876 0 0)
(-0.168275 0 0)
(-0.165675 0 0)
(-0.163074 0 0)
(-0.160472 0 0)
(-0.157871 0 0)
(-0.155268 0 0)
(-0.152666 0 0)
(-0.150063 0 0)
(-0.14746 0 0)
(-0.144856 0 0)
(-0.142252 0 0)
(-0.139648 0 0)
(-0.137043 0 0)
(-0.134439 0 0)
(-0.131833 0 0)
(-0.129228 0 0)
(-0.126622 0 0)
(-0.124016 0 0)
(-0.121409 0 0)
(-0.118803 0 0)
(-0.116196 0 0)
(-0.113589 0 0)
(-0.110981 0 0)
(-0.108373 0 0)
(-0.105765 0 0)
(-0.103157 0 0)
(-0.100548 0 0)
(-0.0979396 0 0)
(-0.0953306 0 0)
(-0.0927214 0 0)
(-0.090112 0 0)
(-0.0875023 0 0)
(-0.0848925 0 0)
(-0.0822825 0 0)
(-0.0796722 0 0)
(-0.0770618 0 0)
(-0.0744512 0 0)
(-0.0718404 0 0)
(-0.0692295 0 0)
(-0.0666184 0 0)
(-0.0640072 0 0)
(-0.0613958 0 0)
(-0.0587842 0 0)
(-0.0561726 0 0)
(-0.0535607 0 0)
(-0.0509488 0 0)
(-0.0483368 0 0)
(-0.0457246 0 0)
(-0.0431123 0 0)
(-0.0405 0 0)
(-0.0378875 0 0)
(-0.035275 0 0)
(-0.0326623 0 0)
(-0.0300496 0 0)
(-0.0274368 0 0)
(-0.024824 0 0)
(-0.0222111 0 0)
(-0.0195981 0 0)
(-0.0169852 0 0)
(-0.0143721 0 0)
(-0.0117591 0 0)
(-0.00914596 0 0)
(-0.00653284 0 0)
(-0.00391971 0 0)
(-0.00130657 0 0)
)
;

boundaryField
{
    left
    {
        type            fixedValue;
        value           uniform (0 0 0);
    }
    right
    {
        type            fixedValue;
        value           uniform (0 0 0);
    }
    frontBackUpDown
    {
        type            empty;
    }
}


// ************************************************************************* //
