/*--------------------------------*- C++ -*----------------------------------*\
| =========                 |                                                 |
| \\      /  F ield         | OpenFOAM: The Open Source CFD Toolbox           |
|  \\    /   O peration     | Version:  2412                                  |
|   \\  /    A nd           | Website:  www.openfoam.com                      |
|    \\/     M anipulation  |                                                 |
\*---------------------------------------------------------------------------*/
FoamFile
{
    version     2.0;
    format      ascii;
    arch        "LSB;label=32;scalar=64";
    class       volScalarField;
    location    "0.04";
    object      epsilon;
}
// * * * * * * * * * * * * * * * * * * * * * * * * * * * * * * * * * * * * * //

dimensions      [0 2 -3 0 0 0 0];

internalField   nonuniform List<scalar> 
12225
(
448.254
622.592
829.625
1003.01
1147.49
1266.01
1362.94
1442.3
1507.22
1560.26
1603.48
1638.54
1666.71
1688.99
1706.12
1718.54
1727.04
1735.81
173.75
302.008
402.863
479.712
538.6
584.629
620.702
649.019
671.29
688.782
702.459
713.074
721.217
727.354
731.878
735.017
737.475
736.276
119.451
232.408
315.465
376.121
420.918
454.655
480.107
499.271
513.667
524.408
532.321
538.035
542.043
544.732
546.429
547.388
548.009
547.387
97.6726
200.052
277.862
334.906
376.818
407.862
430.812
447.675
459.962
468.79
474.987
479.183
481.864
483.413
484.154
484.364
484.396
484.117
83.6997
176.422
251.782
308.806
351.396
383.044
406.403
423.489
435.837
444.602
450.655
454.66
457.131
458.477
459.039
459.121
459.064
458.972
72.0519
154.155
226.622
284.253
328.733
362.47
387.754
406.5
420.222
430.1
437.047
441.768
444.819
446.642
447.606
448.041
448.27
448.45
61.4127
131.498
199.019
256.156
302.298
338.517
366.446
387.712
403.714
415.595
424.274
430.487
434.821
437.751
439.674
440.937
441.846
442.547
51.7414
108.959
168.93
223.314
269.689
307.748
338.239
362.295
381.051
395.52
406.566
414.909
421.144
425.764
429.184
431.755
433.767
435.335
43.2932
87.8701
138.138
187.055
231.339
269.61
301.687
328.059
349.456
366.643
380.344
391.2
399.77
406.533
411.895
416.201
419.719
422.524
36.236
69.4475
109.057
150.215
189.811
225.981
257.843
285.247
308.441
327.853
343.976
357.305
368.303
377.387
384.927
391.237
396.55
400.892
30.558
54.3181
83.7023
115.959
148.8
180.5
209.9
236.41
259.854
280.304
297.981
313.174
326.198
337.364
346.964
355.252
362.413
368.407
26.4292
43.3509
64.6016
88.7969
114.52
140.515
165.751
189.517
211.413
231.267
249.07
264.914
278.954
291.376
302.369
312.11
320.718
328.074
23.1877
34.8734
49.5729
66.7251
85.6
105.454
125.562
145.313
164.261
182.115
198.716
214.004
227.99
240.736
252.327
262.85
272.353
280.65
20.415
27.7928
36.9481
47.7688
59.9902
73.2968
87.3241
101.7
116.092
130.234
143.924
157.023
169.447
181.155
192.134
202.387
211.887
220.402
18.178
22.3113
27.2839
33.1437
39.8524
47.3379
55.491
64.1694
73.2181
82.4875
91.8419
101.164
110.359
119.351
128.082
136.502
144.546
151.984
16.4901
18.4027
20.6102
23.1635
26.0817
29.3735
33.036
37.0491
41.3786
45.9817
50.8114
55.8184
60.9542
66.1718
71.4217
76.6446
81.7895
86.7187
15.3394
15.8979
16.538
17.2782
18.1279
19.0951
20.1867
21.4068
22.7561
24.232
25.8296
27.5412
29.357
31.266
33.2602
35.3394
37.4839
39.6425
14.7537
14.6818
14.6466
14.6493
14.6891
14.7656
14.8804
15.0351
15.2309
15.4687
15.7493
16.0729
16.4395
16.8484
17.2984
17.7883
18.3152
18.8689
14.8917
14.9606
15.0668
15.2134
15.4002
15.6264
15.892
16.1964
16.5384
16.9162
17.3275
17.7696
18.2396
18.7343
19.2504
19.7844
20.3319
20.8763
15.9549
17.2242
18.663
20.295
22.1241
24.1468
26.354
28.7276
31.2424
33.8689
36.5758
39.3321
42.1081
44.8768
47.6144
50.3005
52.9148
55.4124
18.0231
21.931
26.5664
31.9419
37.9893
44.6079
51.6711
59.0315
66.5391
74.0561
81.4646
88.6683
95.5929
102.185
108.409
114.245
119.679
124.674
21.5243
30.5479
41.7127
54.679
68.9364
83.9648
99.2562
114.356
128.908
142.662
155.459
167.218
177.911
187.556
196.195
203.889
210.705
216.692
27.1669
45.1508
67.48
92.4111
118.298
143.861
168.132
190.481
210.598
228.395
243.932
257.352
268.84
278.6
286.837
293.742
299.491
304.247
35.6523
67.4855
105.289
144.303
181.568
215.467
245.204
270.622
291.95
309.599
324.03
335.704
345.044
352.428
358.183
362.588
365.881
368.291
47.3405
97.3983
151.613
202.038
245.955
282.742
312.692
336.601
355.408
370
381.156
389.534
395.68
400.038
402.97
404.768
405.675
405.925
61.8246
131.553
198.344
254.283
299.159
334.256
361.178
381.525
396.684
407.78
415.708
421.172
424.724
426.793
427.715
427.755
427.125
426.039
78.4178
165.617
239.416
296.395
339.422
371.571
395.36
412.761
425.305
434.161
440.211
444.124
446.405
447.444
447.537
446.913
445.754
444.244
99.5706
200.898
279.4
337.756
380.425
411.827
434.977
451.936
464.248
473.065
479.236
483.389
485.998
487.423
487.941
487.766
487.065
486.004
144.777
258.337
348.725
417.84
468.872
507.345
536.687
559.104
576.265
589.414
599.461
607.086
612.811
617.04
620.087
622.201
623.574
624.401
366.935
498.696
667.237
809.281
925.43
1019.5
1095.46
1157.14
1207.5
1248.81
1282.85
1311.04
1334.47
1354.05
1370.46
1384.28
1395.93
1405.83
10.0622
11.0286
15.6121
19.078
21.6294
23.4512
24.6942
25.4763
25.9114
26.2869
27.1175
28.3554
30.0663
32.3681
35.378
39.1285
43.3867
47.8316
52.2095
56.6981
63.2198
71.8115
82.4266
95.1631
109.944
126.54
144.63
163.868
183.918
204.478
225.285
246.117
266.791
287.161
307.113
326.561
345.446
363.729
381.392
398.432
414.858
430.687
445.943
460.654
474.85
488.563
501.821
514.657
527.096
539.166
550.892
562.297
573.403
584.229
594.795
605.12
615.222
625.118
634.827
644.369
653.767
663.045
672.234
681.373
690.509
699.705
709.039
718.568
728.053
737.514
746.97
756.434
765.911
775.408
784.925
794.465
804.025
813.6
823.184
832.769
842.34
851.882
861.375
870.795
880.111
889.288
898.287
907.06
915.551
923.699
931.431
938.669
945.321
951.289
956.46
960.716
963.924
965.947
966.634
965.834
963.387
959.137
952.932
944.634
934.133
921.387
906.558
890.562
877.446
873.451
871.773
868.497
863.018
855.229
845.16
832.909
818.616
802.45
784.603
765.281
744.694
723.052
700.561
677.415
653.794
629.864
605.772
581.645
557.595
533.712
510.07
486.722
463.705
441.034
418.632
396.313
374.198
352.702
331.622
310.904
290.573
270.687
251.327
232.579
214.533
197.274
180.883
165.427
150.961
137.528
125.161
113.88
103.7
94.6257
86.6507
79.7604
73.9343
69.1534
65.4122
62.5513
60.3375
58.618
57.2841
56.2533
55.461
54.8557
54.396
54.0481
53.7845
53.5819
53.4198
53.2793
53.1412
52.9844
52.7833
52.502
52.0948
51.4604
50.5604
48.737
30.4834
20.1597
17.6237
16.7039
16.5131
16.8113
17.518
18.633
20.2385
22.4989
25.4563
29.2012
33.9233
39.8792
47.3991
56.614
66.3999
76.4709
86.4361
95.9832
104.963
113.223
120.736
127.595
133.93
139.863
145.498
150.926
156.219
161.434
166.614
171.785
176.959
182.136
187.309
192.466
197.59
202.665
207.677
212.613
217.463
222.218
226.873
231.424
235.87
240.21
244.445
248.576
252.607
256.54
260.378
264.126
267.788
271.368
274.872
278.304
281.67
284.978
288.234
291.448
294.629
297.79
300.945
304.115
307.32
310.59
313.956
317.473
321.037
324.622
328.23
331.868
335.538
339.244
342.988
346.774
350.602
354.474
358.388
362.343
366.339
370.37
374.432
378.519
382.622
386.731
390.833
394.913
398.954
402.933
406.826
410.605
414.237
417.685
420.906
423.854
426.478
428.72
430.52
431.813
432.532
432.607
431.97
430.562
428.336
425.28
421.458
417.1
412.856
409.308
405.477
400.854
395.319
388.863
381.525
373.368
364.466
354.909
344.789
334.202
323.246
312.014
300.595
289.074
277.525
266.016
254.604
243.34
232.265
221.411
210.802
200.458
190.388
180.6
171.094
161.879
153.082
145.106
137.609
130.462
123.604
117.002
110.635
104.487
98.5416
92.7813
87.1881
81.7446
76.4359
71.2525
66.1932
61.2667
56.4927
51.9003
47.5264
43.4111
39.5945
36.1111
32.9842
30.2174
27.7992
25.7114
23.9317
22.4336
21.1882
20.1654
19.3356
18.6713
18.1478
17.7441
17.4435
17.2337
17.1071
17.0621
17.1049
17.2535
17.5449
18.0597
18.9395
20.6751
53.5542
28.7116
23.3429
21.6087
21.2764
21.8103
23.0935
25.1968
28.2354
32.2199
37.1978
43.2579
50.4667
58.7449
67.824
77.2164
86.262
94.4587
101.492
107.274
111.921
115.671
118.826
121.68
124.473
127.373
130.483
133.856
137.503
141.406
145.529
149.822
154.23
158.7
163.181
167.632
172.018
176.315
180.504
184.574
188.519
192.337
196.029
199.597
203.044
206.376
209.597
212.714
215.73
218.652
221.485
224.235
226.909
229.511
232.049
234.53
236.959
239.346
241.698
244.025
246.335
248.64
250.949
253.275
255.629
258.022
260.461
262.947
265.451
267.972
270.512
273.074
275.663
278.282
280.936
283.629
286.363
289.141
291.965
294.838
297.761
300.732
303.753
306.821
309.932
313.083
316.268
319.477
322.7
325.924
329.134
332.309
335.428
338.463
341.382
344.152
346.73
349.071
351.126
352.84
354.153
355.006
355.337
355.085
354.199
352.64
350.4
347.533
344.283
340.65
336.425
331.475
325.763
319.302
312.135
304.324
295.94
287.065
277.785
268.185
258.352
248.37
238.317
228.263
218.273
208.403
198.699
189.202
179.941
170.941
162.218
153.782
145.638
137.787
130.226
122.955
115.984
109.356
103.102
97.1555
91.4798
86.0482
80.8393
75.835
71.0197
66.3797
61.9021
57.576
53.3919
49.3437
45.429
41.6509
38.0181
34.5449
31.2503
28.1559
25.2835
22.6518
20.2738
18.1549
16.2929
14.6787
13.298
12.1322
11.1598
10.3584
9.70536
9.17918
8.76033
8.43163
8.17859
7.98961
7.85609
7.77277
7.73844
7.75763
7.84423
8.0311
8.39097
9.0975
76.6107
37.0326
30.0546
28.2551
28.3106
29.5223
31.7606
34.9417
38.9402
43.8355
49.6289
56.2432
63.4995
71.097
78.6325
85.6641
91.8145
96.8822
100.872
103.963
106.445
108.628
110.789
113.135
115.789
118.81
122.201
125.936
129.965
134.23
138.67
143.222
147.832
152.448
157.029
161.542
165.96
170.265
174.445
178.492
182.404
186.178
189.817
193.324
196.704
199.96
203.099
206.126
209.046
211.866
214.591
217.227
219.781
222.258
224.665
227.009
229.296
231.533
233.727
235.886
238.017
240.127
242.224
244.315
246.405
248.501
250.607
252.721
254.836
256.954
259.079
261.214
263.365
265.537
267.734
269.96
272.22
274.519
276.859
279.244
281.676
284.159
286.693
289.278
291.915
294.6
297.332
300.104
302.909
305.738
308.579
311.415
314.229
316.996
319.692
322.283
324.733
327.001
329.039
330.796
332.215
333.236
333.796
333.831
333.277
332.079
330.2
327.696
324.588
320.853
316.429
311.28
305.402
298.823
291.588
283.761
275.415
266.629
257.489
248.081
238.489
228.794
219.072
209.391
199.813
190.391
181.168
172.181
163.456
155.015
146.871
139.031
131.496
124.265
117.332
110.69
104.329
98.2495
92.4571
86.9316
81.6479
76.5848
71.7241
67.0503
62.55
58.2122
54.0278
49.99
46.0943
42.3388
38.7248
35.2571
31.9439
28.7966
25.8293
23.0567
20.4932
18.1506
16.0365
14.1534
12.4982
11.0626
9.83352
8.79458
7.92699
7.21087
6.62635
6.15442
5.77757
5.48021
5.24889
5.07245
4.942
4.85105
4.79573
4.77543
4.79421
4.8645
5.01374
5.29939
100.71
46.7029
38.2664
36.3759
36.7591
38.4871
41.1343
44.5147
48.633
53.441
58.8217
64.5869
70.486
76.2292
81.5311
86.1683
90.0336
93.1619
95.7123
97.9174
100.023
102.24
104.72
107.548
110.754
114.33
118.241
122.44
126.874
131.487
136.226
141.042
145.89
150.729
155.527
160.256
164.894
169.424
173.835
178.117
182.265
186.278
190.154
193.895
197.503
200.982
204.335
207.568
210.683
213.688
216.586
219.384
222.086
224.699
227.228
229.679
232.057
234.369
236.62
238.816
240.963
243.066
245.132
247.166
249.171
251.155
253.121
255.07
257
258.917
260.823
262.726
264.628
266.537
268.456
270.392
272.348
274.331
276.343
278.39
280.475
282.602
284.772
286.988
289.251
291.559
293.911
296.303
298.731
301.186
303.659
306.136
308.6
311.032
313.408
315.697
317.866
319.876
321.683
323.235
324.479
325.353
325.794
325.735
325.106
323.855
321.965
319.423
316.215
312.32
307.716
302.396
296.372
289.679
282.365
274.493
266.136
257.374
248.291
238.97
229.496
219.946
210.396
200.91
191.549
182.362
173.392
164.672
156.227
148.076
140.231
132.696
125.472
118.555
111.937
105.607
99.5524
93.7617
88.2266
82.9332
77.8611
72.992
68.3096
63.7999
59.4508
55.2529
51.1991
47.2847
43.5075
39.8681
36.3699
33.019
29.8239
26.7955
23.9461
21.2883
18.8335
16.5911
14.5666
12.7615
11.1722
9.79081
8.60523
7.60022
6.75841
6.06135
5.49048
5.02791
4.657
4.36277
4.13211
3.95389
3.81893
3.72005
3.65209
3.61214
3.60004
3.61993
3.6819
3.80618
122.3
56.5585
46.7299
44.694
45.2052
46.8567
49.2748
52.3433
55.9641
60.0157
64.3394
68.7462
73.0368
77.0306
80.598
83.6878
86.3381
88.6657
90.8349
93.0192
95.3684
97.99
100.945
104.255
107.912
111.889
116.15
120.65
125.348
130.2
135.162
140.197
145.267
150.34
155.385
160.379
165.3
170.13
174.855
179.464
183.95
188.307
192.531
196.621
200.576
204.397
208.087
211.647
215.081
218.393
221.586
224.664
227.632
230.494
233.255
235.92
238.493
240.98
243.384
245.711
247.965
250.152
252.275
254.34
256.352
258.315
260.234
262.112
263.95
265.754
267.529
269.28
271.012
272.732
274.444
276.154
277.868
279.589
281.324
283.076
284.851
286.65
288.479
290.338
292.23
294.154
296.11
298.096
300.106
302.135
304.174
306.212
308.233
310.22
312.15
313.997
315.729
317.31
318.697
319.844
320.696
321.195
321.278
320.876
319.939
318.422
316.29
313.516
310.079
305.96
301.153
295.661
289.504
282.72
275.358
267.48
259.159
250.471
241.498
232.32
223.018
213.666
204.335
195.087
185.978
177.055
168.355
159.911
151.745
143.872
136.303
129.041
122.085
115.43
109.066
102.982
97.1623
91.5931
86.2596
81.1474
76.2387
71.5168
66.9667
62.5752
58.3314
54.2268
50.2555
46.4143
42.7026
39.1224
35.6783
32.3775
29.2291
26.244
23.4341
20.8112
18.386
16.1671
14.1598
12.3655
10.7812
9.39951
8.20947
7.19684
6.34532
5.63737
5.05518
4.58144
4.19986
3.89563
3.65562
3.46852
3.32482
3.21679
3.13845
3.08563
3.05609
3.05016
3.07102
3.12557
138.673
64.9069
54.1029
51.8108
51.9657
53.2825
55.3129
57.8443
60.7318
63.8423
67.0406
70.1948
73.1921
75.9572
78.4664
80.7518
82.8938
85.0029
87.1965
89.578
92.2243
95.1815
98.4678
102.08
106.002
110.206
114.662
119.336
124.195
129.203
134.328
139.536
144.798
150.083
155.365
160.62
165.825
170.963
176.016
180.972
185.819
190.549
195.154
199.631
203.975
208.184
212.259
216.199
220.004
223.678
227.221
230.637
233.927
237.096
240.147
243.083
245.908
248.624
251.237
253.75
256.167
258.491
260.728
262.88
264.953
266.952
268.881
270.742
272.541
274.284
275.974
277.619
279.223
280.792
282.332
283.848
285.345
286.828
288.302
289.772
291.242
292.716
294.197
295.687
297.188
298.7
300.224
301.757
303.295
304.833
306.364
307.876
309.357
310.791
312.156
313.43
314.583
315.582
316.387
316.955
317.235
317.173
316.711
315.799
314.388
312.437
309.907
306.771
303.006
298.602
293.556
287.879
281.596
274.745
267.377
259.552
251.338
242.809
234.041
225.11
216.09
207.05
198.054
189.158
180.413
171.86
163.533
155.459
147.657
140.14
132.916
125.986
119.348
112.995
106.917
101.101
95.5333
90.1966
85.074
80.1511
75.4119
70.8412
66.4251
62.1514
58.01
53.9935
50.0969
46.3182
42.658
39.1195
35.7086
32.4332
29.3032
26.3302
23.5262
20.9033
18.4724
16.2423
14.2189
12.4043
10.7964
9.38893
8.17191
7.13218
6.25427
5.52139
4.91621
4.42169
4.02168
3.7013
3.44725
3.24793
3.09342
2.97553
2.88765
2.82479
2.78352
2.76222
2.76095
2.78139
148.526
70.7348
59.0481
56.3459
56.2767
57.3354
58.995
61.0071
63.2214
65.5279
67.8382
70.0851
72.2288
74.262
76.2119
78.1348
80.1056
82.2038
84.5014
87.054
89.8974
93.0487
96.5095
100.27
104.314
108.62
113.164
117.919
122.86
127.959
133.188
138.52
143.927
149.384
154.865
160.345
165.804
171.221
176.578
181.859
187.05
192.14
197.117
201.976
206.708
211.31
215.778
220.108
224.301
228.354
232.269
236.045
239.684
243.187
246.556
249.794
252.902
255.882
258.738
261.473
264.088
266.588
268.975
271.254
273.428
275.502
277.478
279.361
281.158
282.873
284.513
286.082
287.587
289.032
290.423
291.765
293.063
294.322
295.546
296.74
297.907
299.052
300.176
301.283
302.373
303.448
304.506
305.546
306.564
307.554
308.511
309.424
310.282
311.069
311.768
312.357
312.809
313.095
313.181
313.024
312.583
311.815
310.672
309.111
307.09
304.571
301.523
297.921
293.749
289
283.681
277.806
271.403
264.512
257.183
249.472
241.445
233.17
224.714
216.147
207.533
198.935
190.406
181.997
173.749
165.697
157.869
150.286
142.964
135.911
129.131
122.625
116.388
110.413
104.688
99.2013
93.9368
88.878
84.0064
79.3092
74.7721
70.3814
66.1244
61.9899
57.969
54.0552
50.2446
46.5364
42.9323
39.4367
36.0566
32.8011
29.6813
26.7093
23.8981
21.2607
18.8087
16.5519
14.4974
12.6481
11.0035
9.55833
8.30389
7.22799
6.31599
5.55168
4.9181
4.39839
3.97637
3.63702
3.36677
3.15367
2.98742
2.85936
2.76237
2.69084
2.64057
2.60879
2.59401
2.59565
159.393
74.3525
61.5052
58.4673
58.2202
59.086
60.4732
62.1119
63.8572
65.6253
67.3695
69.0707
70.7347
72.3891
74.0787
75.8587
77.787
79.9161
82.2883
84.9326
87.8654
91.0919
94.6089
98.4069
102.473
106.79
111.34
116.104
121.061
126.188
131.462
136.86
142.358
147.931
153.556
159.21
164.87
170.516
176.128
181.688
187.18
192.59
197.905
203.114
208.208
213.179
218.021
222.728
227.297
231.725
236.008
240.146
244.138
247.983
251.682
255.234
258.642
261.904
265.024
268.003
270.841
273.542
276.108
278.541
280.845
283.024
285.077
287.012
288.836
290.554
292.17
293.692
295.122
296.467
297.732
298.92
300.036
301.086
302.072
302.999
303.87
304.688
305.454
306.172
306.842
307.463
308.034
308.554
309.017
309.42
309.756
310.015
310.186
310.255
310.209
310.026
309.681
309.151
308.409
307.421
306.153
304.57
302.635
300.313
297.572
294.383
290.723
286.576
281.933
276.797
271.178
265.098
258.588
251.687
244.445
236.914
229.153
221.223
213.182
205.091
197.003
188.969
181.035
173.239
165.614
158.188
150.979
144.005
137.273
130.79
124.556
118.569
112.822
107.306
102.01
96.9209
92.0229
87.2988
82.7301
78.3066
74.0158
69.8451
65.7831
61.82
57.9479
54.1615
50.4581
46.8381
43.3044
39.8627
36.5213
33.2907
30.183
27.2118
24.3913
21.7356
19.2579
16.9692
14.8779
12.9886
11.3021
9.81465
8.51867
7.40304
6.45392
5.65563
4.99156
4.44493
3.99952
3.6401
3.35282
3.12537
2.94707
2.80881
2.70303
2.62363
2.56583
2.52614
2.50217
2.49226
166.865
75.7022
61.8547
58.5143
58.1281
58.8779
60.1188
61.5625
63.0666
64.5634
66.0305
67.4753
68.926
70.424
72.017
73.7533
75.6767
77.823
80.2188
82.8811
85.8183
89.0323
92.52
96.2745
100.287
104.544
109.035
113.744
118.654
123.747
129.005
134.408
139.933
145.56
151.265
157.027
162.823
168.634
174.437
180.215
185.949
191.623
197.222
202.732
208.143
213.442
218.622
223.674
228.592
233.371
238.005
242.49
246.825
251.006
255.031
258.9
262.61
266.163
269.557
272.792
275.87
278.79
281.554
284.164
286.62
288.926
291.083
293.098
294.976
296.723
298.345
299.844
301.227
302.497
303.659
304.717
305.674
306.534
307.301
307.978
308.566
309.068
309.486
309.819
310.069
310.234
310.313
310.3
310.193
309.986
309.673
309.245
308.69
307.992
307.144
306.13
304.929
303.52
301.882
299.989
297.817
295.34
292.533
289.371
285.833
281.903
277.569
272.825
267.675
262.129
256.205
249.93
243.337
236.467
229.365
222.08
214.663
207.163
199.63
192.112
184.65
177.284
170.046
162.966
156.065
149.361
142.868
136.593
130.542
124.714
119.107
113.716
108.533
103.547
98.7459
94.1169
89.6437
85.3078
81.0931
76.9922
72.9932
69.0848
65.2567
61.5002
57.8088
54.1783
50.6075
47.0978
43.6535
40.2819
36.9924
33.7971
30.7097
27.7452
24.9194
22.2481
19.746
17.4259
15.2979
13.3683
11.6395
10.1092
8.77126
7.61549
6.62891
5.79639
5.10162
4.52792
4.059
3.67943
3.37508
3.1333
2.94302
2.79475
2.68054
2.59383
2.52943
2.48332
2.45254
2.43485
168.694
74.9094
60.4925
56.9493
56.4776
57.1834
58.3874
59.7867
61.2355
62.6694
64.0734
65.4634
66.8738
68.3481
69.9318
71.6672
73.5901
75.7286
78.1028
80.7255
83.6041
86.7411
90.1356
93.7845
97.6822
101.822
106.194
110.788
115.591
120.591
125.77
131.112
136.599
142.21
147.925
153.723
159.584
165.486
171.41
177.334
183.241
189.112
194.931
200.682
206.352
211.927
217.396
222.749
227.977
233.071
238.025
242.833
247.489
251.988
256.328
260.504
264.514
268.355
272.026
275.525
278.85
282.002
284.979
287.782
290.41
292.865
295.149
297.269
299.229
301.034
302.688
304.195
305.559
306.783
307.871
308.825
309.65
310.348
310.92
311.37
311.697
311.904
311.99
311.955
311.798
311.517
311.109
310.569
309.888
309.065
308.093
306.963
305.665
304.187
302.518
300.645
298.554
296.229
293.655
290.815
287.695
284.279
280.553
276.508
272.136
267.432
262.401
257.048
251.389
245.443
239.237
232.802
226.174
219.39
212.493
205.524
198.524
191.531
184.584
177.715
170.955
164.328
157.856
151.556
145.441
139.52
133.798
128.278
122.958
117.835
112.904
108.156
103.583
99.172
94.9112
90.7858
86.7795
82.8707
79.053
75.3157
71.6479
68.0391
64.48
60.963
57.4828
54.0362
50.6233
47.2468
43.9124
40.6286
37.4066
34.2599
31.2038
28.2553
25.4319
22.7511
20.2297
17.8823
15.7209
13.7539
11.9851
10.4141
9.03586
7.84152
6.81883
5.95325
5.22877
4.62885
4.13711
3.73797
3.41703
3.16133
2.95945
2.80153
2.67927
2.58577
2.51543
2.46387
2.42772
2.40436
165.6
72.4527
57.9154
54.2855
53.7786
54.4902
55.7286
57.1814
58.6955
60.201
61.6783
63.1391
64.6137
66.1415
67.7635
69.5179
71.437
73.5464
75.8652
78.4072
81.1813
84.1931
87.4454
90.9386
94.6713
98.6403
102.841
107.265
111.906
116.751
121.79
127.007
132.387
137.912
143.565
149.327
155.177
161.095
167.063
173.058
179.064
185.06
191.028
196.953
202.818
208.609
214.311
219.913
225.403
230.77
236.006
241.102
246.05
250.845
255.479
259.947
264.245
268.368
272.312
276.075
279.653
283.043
286.244
289.254
292.07
294.694
297.129
299.379
301.449
303.341
305.058
306.603
307.978
309.188
310.233
311.116
311.84
312.405
312.813
313.065
313.16
313.098
312.877
312.497
311.954
311.246
310.368
309.314
308.078
306.653
305.033
303.209
301.171
298.91
296.415
293.678
290.688
287.437
283.916
280.118
276.039
271.674
267.026
262.096
256.894
251.431
245.723
239.794
233.668
227.375
220.948
214.422
207.832
201.212
194.598
188.021
181.51
175.092
168.789
162.622
156.607
150.756
145.078
139.582
134.27
129.144
124.203
119.444
114.863
110.452
106.204
102.108
98.1551
94.3321
90.6257
87.021
83.5
80.0416
76.6444
73.2966
69.9867
66.7046
63.4412
60.1898
56.9456
53.7067
50.474
47.2513
44.0458
40.8671
37.7281
34.6438
31.6314
28.7096
25.8978
23.2157
20.6819
18.3134
16.1241
14.1243
12.3198
10.7117
9.29652
8.06643
7.01011
6.11358
5.36121
4.73657
4.22328
3.80562
3.46895
3.20003
2.98713
2.82008
2.69025
2.59043
2.51471
2.4584
2.41783
2.3901
158.528
68.82
54.5863
50.9868
50.4864
51.2295
52.5337
54.0848
55.7231
57.3688
58.9913
60.5908
62.1877
63.8128
65.5013
67.2876
69.2028
71.2725
73.5166
75.9519
78.591
81.4436
84.5168
87.8151
91.3412
95.0957
99.0774
103.283
107.708
112.344
117.182
122.212
127.42
132.793
138.314
143.966
149.731
155.591
161.527
167.519
173.548
179.595
185.642
191.67
197.664
203.606
209.482
215.276
220.976
226.57
232.044
237.39
242.597
247.656
252.559
257.299
261.869
266.262
270.472
274.495
278.325
281.958
285.39
288.616
291.635
294.446
297.055
299.462
301.669
303.676
305.486
307.1
308.519
309.747
310.782
311.627
312.283
312.748
313.024
313.11
313.004
312.703
312.207
311.511
310.611
309.503
308.181
306.638
304.867
302.859
300.608
298.105
295.341
292.309
289.001
285.411
281.535
277.37
272.917
268.179
263.162
257.878
252.341
246.57
240.591
234.43
228.12
221.696
215.195
208.655
202.111
195.6
189.153
182.797
176.557
170.453
164.501
158.712
153.095
147.656
142.397
137.321
132.426
127.711
123.173
118.807
114.609
110.571
106.687
102.949
99.3466
95.8705
92.5091
89.25
86.0794
82.9813
79.9362
76.9275
73.9545
71.0035
68.0619
65.1191
62.166
59.1957
56.204
53.1895
50.1535
47.101
44.0399
40.9812
37.939
34.93
31.9731
29.0886
26.2983
23.6237
21.0857
18.7033
16.4927
14.466
12.6311
10.9907
9.54271
8.28058
7.19385
6.26917
5.49127
4.84393
4.31078
3.87599
3.52473
3.24352
3.02037
2.84483
2.70799
2.60235
2.52176
2.46127
2.41695
2.38572
148.299
64.415
50.8762
47.4213
46.9625
47.7449
49.1164
50.7707
52.545
54.3508
56.1441
57.9106
59.657
61.4035
63.1778
65.0102
66.9322
68.9712
71.1388
73.4587
75.9489
78.6239
81.4954
84.5723
87.8613
91.3672
95.0925
99.0375
103.201
107.578
112.164
116.951
121.929
127.087
132.41
137.886
143.498
149.229
155.061
160.977
166.958
172.985
179.04
185.105
191.161
197.191
203.179
209.109
214.966
220.734
226.402
231.956
237.384
242.674
247.818
252.804
257.624
262.27
266.734
271.008
275.086
278.96
282.626
286.076
289.308
292.325
295.125
297.708
300.075
302.223
304.153
305.866
307.361
308.638
309.696
310.536
311.156
311.555
311.731
311.682
311.406
310.898
310.154
309.171
307.94
306.458
304.715
302.705
300.419
297.848
294.986
291.822
288.352
284.568
280.468
276.049
271.314
266.269
260.922
255.289
249.39
243.249
236.9
230.376
223.72
216.975
210.188
203.405
196.671
190.029
183.515
177.159
170.986
165.013
159.251
153.703
148.372
143.253
138.34
133.627
129.106
124.768
120.605
116.609
112.773
109.09
105.552
102.152
98.8829
95.7364
92.7037
89.7751
86.9398
84.1857
81.4991
78.8633
76.255
73.6729
71.1053
68.5375
65.9559
63.3486
60.7058
58.02
55.2867
52.5043
49.6743
46.8021
43.8961
40.9683
38.0338
35.1107
32.2195
29.3824
26.6228
23.9645
21.4304
19.0418
16.8169
14.7699
12.9104
11.2431
9.76719
8.47731
7.36393
6.41436
5.61375
4.94609
4.39508
3.94481
3.58033
3.28796
3.05548
2.8722
2.72897
2.61806
2.53311
2.46893
2.42141
2.38728
135.428
59.5345
47.0628
43.861
43.4738
44.2936
45.7172
47.4559
49.3499
51.3062
53.2733
55.2115
57.1163
58.997
60.8718
62.7641
64.7
66.7043
68.7991
71.0073
73.3496
75.8445
78.5079
81.3532
84.3914
87.6311
91.0788
94.7386
98.6125
102.7
106.999
111.505
116.211
121.108
126.188
131.436
136.841
142.388
148.059
153.84
159.713
165.659
171.661
177.7
183.758
189.817
195.86
201.87
207.83
213.724
219.537
225.254
230.861
236.346
241.695
246.898
251.942
256.818
261.516
266.026
270.34
274.449
278.344
282.018
285.473
288.704
291.709
294.485
297.028
299.337
301.409
303.242
304.835
306.185
307.29
308.149
308.757
309.113
309.213
309.053
308.628
307.933
306.962
305.709
304.166
302.324
300.177
297.714
294.927
291.808
288.348
284.541
280.382
275.87
271.003
265.788
260.233
254.355
248.173
241.716
235.018
228.122
221.075
213.931
206.746
199.58
192.49
185.531
178.752
172.193
165.887
159.853
154.104
148.641
143.458
138.544
133.883
129.456
125.245
121.232
117.399
113.732
110.219
106.848
103.61
100.499
97.5074
94.63
91.861
89.1943
86.6231
84.1398
81.7352
79.3985
77.1167
74.8731
72.646
70.4392
68.2348
66.0161
63.7674
61.4751
59.1279
56.7169
54.2365
51.6841
49.061
46.3721
43.6261
40.8352
38.0155
35.186
32.3685
29.5867
26.866
24.2321
21.7098
19.3224
17.0903
15.0297
13.152
11.4635
9.96485
8.65188
7.51598
6.54513
5.72493
5.03962
4.47299
4.00913
3.63299
3.33073
3.08996
2.89979
2.75087
2.63529
2.54648
2.47908
2.42881
2.39228
120.743
54.8317
43.3856
40.4421
40.1293
40.977
42.433
44.2301
46.2152
48.2919
50.3974
52.4906
54.5513
56.5746
58.5666
60.5417
62.5192
64.5213
66.5713
68.6928
70.9089
73.2414
75.7099
78.3319
81.1227
84.0951
87.2595
90.624
94.1942
97.9736
101.963
106.162
110.567
115.172
119.97
124.952
130.108
135.425
140.889
146.486
152.199
158.011
163.907
169.867
175.874
181.909
187.955
193.994
200.008
205.98
211.892
217.73
223.477
229.118
234.639
240.027
245.267
250.349
255.259
259.988
264.523
268.855
272.973
276.873
280.553
284.004
287.221
290.197
292.927
295.407
297.631
299.596
301.298
302.733
303.896
304.783
305.39
305.711
305.741
305.475
304.906
304.026
302.829
301.305
299.446
297.243
294.686
291.767
288.475
284.804
280.747
276.3
271.461
266.233
260.623
254.643
248.313
241.659
234.716
227.527
220.143
212.624
205.034
197.443
189.923
182.543
175.37
168.459
161.857
155.598
149.7
144.169
138.999
134.173
129.666
125.45
121.493
117.763
114.231
110.87
107.658
104.577
101.612
98.7538
95.9943
93.3289
90.7544
88.2686
85.8697
83.5553
81.3225
79.1667
77.0817
75.059
73.0871
71.1497
69.2342
67.3388
65.4426
63.526
61.5714
59.5627
57.4864
55.3315
53.0905
50.7593
48.338
45.8303
43.2446
40.5932
37.8921
35.1612
32.4232
29.7034
27.0284
24.4258
21.9224
19.5433
17.3108
15.2431
13.3533
11.6492
10.1331
8.80178
7.64757
6.65915
5.82258
5.12239
4.5425
4.06703
3.68088
3.3701
3.12216
2.92602
2.77216
2.65251
2.56036
2.4902
2.4376
2.39906
106.15
50.6414
40.3288
37.6437
37.3923
38.2466
39.7061
41.5266
43.5651
45.7267
47.9452
50.1734
52.381
54.5513
56.6792
58.7689
60.832
62.8854
64.9493
67.0462
69.1994
71.432
73.7661
76.2222
78.8188
81.5724
84.4969
87.604
90.9031
94.401
98.1022
102.009
106.121
110.437
114.951
119.659
124.55
129.617
134.847
140.228
145.745
151.384
157.128
162.96
168.862
174.818
180.809
186.817
192.823
198.811
204.761
210.657
216.482
222.219
227.852
233.366
238.747
243.98
249.052
253.951
258.662
263.176
267.481
271.575
275.448
279.089
282.488
285.637
288.529
291.155
293.509
295.585
297.375
298.874
300.074
300.97
301.555
301.822
301.763
301.37
300.634
299.548
298.101
296.284
294.086
291.498
288.509
285.112
281.297
277.058
272.392
267.298
261.781
255.848
249.516
242.808
235.755
228.398
220.787
212.982
205.053
197.076
189.134
181.31
173.686
166.339
159.334
152.724
146.543
140.81
135.526
130.675
126.23
122.152
118.398
114.923
111.681
108.629
105.731
102.956
100.28
97.6829
95.154
92.6858
90.2751
87.9218
85.6281
83.397
81.232
79.1359
77.1103
75.1552
73.2681
71.4438
69.6735
67.9411
66.251
64.584
62.9196
61.2371
59.5168
57.7402
55.8912
53.9562
51.9251
49.7917
47.5538
45.2139
42.7791
40.261
37.6755
35.0425
32.3854
29.7303
27.1053
24.5392
22.0604
19.696
17.4697
15.4014
13.506
11.7927
10.2649
8.92065
7.75306
6.75146
5.90239
5.19066
4.60039
4.11574
3.72161
3.404
3.15026
2.94927
2.79139
2.66842
2.57353
2.50111
2.44663
2.40646
91.9014
46.589
37.6799
35.3578
35.2256
36.1257
37.6172
39.4825
41.591
43.8527
46.2008
48.5839
50.9644
53.3164
55.6248
57.8846
60.0989
62.278
64.4373
66.596
68.7757
70.9993
73.2897
75.6689
78.1579
80.7758
83.5395
86.464
89.5615
92.8423
96.3138
99.9815
103.848
107.915
112.179
116.638
121.287
126.116
131.118
136.282
141.595
147.044
152.614
158.289
164.052
169.888
175.778
181.704
187.647
193.591
199.516
205.405
211.239
217.002
222.676
228.246
233.695
239.008
244.17
249.168
253.987
258.614
263.045
267.265
271.264
275.026
278.542
281.8
284.79
287.501
289.926
292.055
293.878
295.388
296.576
297.433
297.949
298.117
297.925
297.365
296.426
295.098
293.369
291.229
288.667
285.672
282.236
278.35
274.008
269.206
263.945
258.229
252.069
245.484
238.498
231.146