/*--------------------------------*- C++ -*----------------------------------*\
| =========                 |                                                 |
| \\      /  F ield         | OpenFOAM: The Open Source CFD Toolbox           |
|  \\    /   O peration     | Version:  2412                                  |
|   \\  /    A nd           | Website:  www.openfoam.com                      |
|    \\/     M anipulation  |                                                 |
\*---------------------------------------------------------------------------*/
FoamFile
{
    version     2.0;
    format      ascii;
    arch        "LSB;label=32;scalar=64";
    class       volScalarField;
    location    "0.04";
    object      k;
}
// * * * * * * * * * * * * * * * * * * * * * * * * * * * * * * * * * * * * * //

dimensions      [0 2 -2 0 0 0 0];

internalField   nonuniform List<scalar> 
12225
(
0.316796
0.394367
0.477552
0.541967
0.592837
0.632989
0.664901
0.690472
0.711044
0.727632
0.741015
0.751783
0.760383
0.767151
0.772342
0.776099
0.778678
0.781343
0.569136
0.78876
0.952193
1.06732
1.15022
1.21139
1.25651
1.28968
1.3139
1.33131
1.34349
1.3516
1.35657
1.35907
1.35967
1.35869
1.35726
1.35454
0.670077
0.972091
1.18299
1.33155
1.43873
1.51762
1.57565
1.61811
1.64889
1.67083
1.686
1.69597
1.70195
1.70486
1.70546
1.70435
1.70253
1.7004
0.722172
1.07684
1.32654
1.50437
1.63378
1.72929
1.79982
1.85164
1.8894
1.91649
1.93543
1.94814
1.95608
1.9604
1.96205
1.96183
1.96082
1.95984
0.742901
1.12951
1.41263
1.6186
1.77064
1.88376
1.96799
2.03049
2.07654
2.11007
2.13401
2.15062
2.16163
2.1684
2.17207
2.17363
2.17424
2.17479
0.74012
1.13829
1.44719
1.67924
1.85429
1.98649
2.08627
2.16142
2.21773
2.25957
2.29029
2.31243
2.328
2.3386
2.34555
2.35
2.35312
2.35576
0.719902
1.10956
1.43258
1.68576
1.88249
2.03442
2.15137
2.24119
2.30993
2.36228
2.40186
2.43153
2.45353
2.46967
2.48145
2.49015
2.49692
2.5025
0.687998
1.05141
1.3735
1.63888
1.85291
2.02319
2.15764
2.26341
2.34638
2.41126
2.46183
2.50112
2.53157
2.55516
2.57353
2.58805
2.59984
2.60947
0.649409
0.973493
1.27861
1.54379
1.767
1.95111
2.10105
2.22237
2.32017
2.39882
2.46198
2.51267
2.5534
2.58626
2.61295
2.63491
2.6532
2.66821
0.607964
0.885315
1.1597
1.41082
1.63201
1.82195
1.98223
2.11611
2.2273
2.31935
2.39544
2.45837
2.51053
2.55396
2.59036
2.62113
2.64727
2.66896
0.566338
0.794611
1.02918
1.25395
1.46086
1.64609
1.80847
1.94889
2.06928
2.172
2.25941
2.3338
2.39719
2.45141
2.49803
2.53832
2.57317
2.60246
0.529281
0.713401
0.907542
1.10018
1.28404
1.45477
1.60985
1.74847
1.87107
1.97876
2.07297
2.15526
2.22715
2.2901
2.34539
2.39409
2.43689
2.47334
0.495181
0.638544
0.792869
0.950596
1.10602
1.25525
1.39548
1.52501
1.64318
1.75007
1.84618
1.93232
2.00941
2.07843
2.14028
2.19576
2.24529
2.28809
0.461166
0.563313
0.675231
0.792971
0.912723
1.03163
1.14735
1.25809
1.36265
1.46039
1.55109
1.63482
1.71185
1.78258
1.84747
1.90691
1.961
2.00861
0.429763
0.493728
0.564534
0.641026
0.72137
0.803931
0.887231
0.969922
1.0509
1.12934
1.20468
1.27656
1.34477
1.40926
1.47002
1.52706
1.58019
1.62805
0.403482
0.436103
0.472226
0.512004
0.55505
0.600866
0.648902
0.69853
0.749113
0.800073
0.850909
0.901206
0.950622
0.998882
1.04571
1.09077
1.13377
1.17365
0.384274
0.395031
0.407191
0.420972
0.4364
0.453453
0.472068
0.492132
0.513491
0.535963
0.559356
0.583472
0.608118
0.633113
0.658328
0.68371
0.709013
0.733613
0.374097
0.373816
0.374262
0.375457
0.377384
0.380027
0.383398
0.387501
0.392328
0.397862
0.404078
0.410943
0.418418
0.426456
0.435006
0.444012
0.453397
0.462956
0.376502
0.378702
0.381629
0.385325
0.389758
0.394884
0.400664
0.407049
0.413978
0.421383
0.429197
0.437349
0.445774
0.454407
0.46319
0.472067
0.480965
0.489629
0.394685
0.41719
0.441951
0.469012
0.498069
0.528739
0.560618
0.593265
0.626232
0.659107
0.691535
0.723219
0.753928
0.783483
0.811761
0.838679
0.864162
0.887965
0.427373
0.488142
0.554613
0.625496
0.69893
0.773257
0.847043
0.919042
0.988265
1.05401
1.11585
1.17352
1.22696
1.27621
1.32138
1.36266
1.40024
1.43421
0.475247
0.593802
0.721534
0.852742
0.982531
1.10759
1.22556
1.33488
1.43476
1.52503
1.60595
1.678
1.74183
1.79814
1.84766
1.8911
1.92908
1.96218
0.536332
0.727443
0.926382
1.12024
1.30147
1.46644
1.61346
1.74234
1.854
1.94994
2.03184
2.10142
2.16028
2.2099
2.25159
2.28649
2.31558
2.33975
0.603678
0.872791
1.13804
1.37916
1.59001
1.77029
1.92175
2.04746
2.15097
2.23571
2.30472
2.36065
2.40572
2.44181
2.47047
2.49299
2.51045
2.52381
0.667943
1.00668
1.31469
1.57278
1.78373
1.95385
2.08954
2.19699
2.28165
2.348
2.39964
2.43949
2.46985
2.4926
2.50923
2.52094
2.5287
2.53338
0.717041
1.09849
1.41302
1.65729
1.84613
1.99164
2.10325
2.18852
2.25333
2.30222
2.33865
2.36533
2.38435
2.39733
2.40556
2.41004
2.41159
2.41093
0.735566
1.11824
1.40679
1.61918
1.777
1.89498
1.98321
2.04895
2.09761
2.13321
2.15877
2.17658
2.18838
2.19551
2.19901
2.19969
2.19819
2.1951
0.708139
1.04707
1.29071
1.46564
1.59197
1.68467
1.75304
1.80325
1.83982
1.86609
1.88453
1.89694
1.90472
1.90893
1.91038
1.9097
1.90738
1.9039
0.616907
0.862662
1.04917
1.18315
1.2775
1.34595
1.39617
1.43292
1.45966
1.47889
1.49243
1.5016
1.50742
1.51064
1.51186
1.51154
1.51003
1.50772
0.333267
0.408904
0.496497
0.564671
0.61748
0.658645
0.690965
0.716661
0.737306
0.754026
0.767663
0.778863
0.788116
0.795801
0.802217
0.807599
0.812119
0.815951
0.0350558
0.0619383
0.0781237
0.0893016
0.0970825
0.102434
0.105987
0.108168
0.109343
0.110334
0.112576
0.115899
0.120436
0.126434
0.1341
0.14339
0.153618
0.163958
0.173832
0.183674
0.197577
0.215081
0.235785
0.259475
0.285652
0.313644
0.342754
0.372364
0.401973
0.431196
0.459749
0.48743
0.514103
0.539681
0.564119
0.5874
0.609534
0.630549
0.650488
0.669403
0.687351
0.704395
0.720597
0.736019
0.75072
0.764755
0.778176
0.791032
0.803365
0.815217
0.826623
0.837618
0.84823
0.858488
0.868418
0.878044
0.887387
0.89647
0.905315
0.913943
0.922377
0.930643
0.93877
0.946793
0.954754
0.962705
0.970716
0.978877
0.986985
0.99502
1.003
1.01094
1.01885
1.02672
1.03457
1.0424
1.05019
1.05796
1.0657
1.07339
1.08103
1.0886
1.0961
1.10349
1.11077
1.11789
1.12484
1.13157
1.13804
1.14421
1.15002
1.15541
1.16032
1.16466
1.16837
1.17133
1.17347
1.17466
1.17481
1.17378
1.17145
1.16769
1.16238
1.1554
1.14663
1.13601
1.12358
1.1098
1.09698
1.09099
1.08901
1.08605
1.08132
1.07468
1.0661
1.05564
1.04339
1.02946
1.01397
0.997065
0.978899
0.959622
0.939384
0.918331
0.896602
0.874326
0.851621
0.828591
0.80533
0.781915
0.758412
0.734869
0.711319
0.68778
0.66421
0.640424
0.616299
0.59242
0.568615
0.544775
0.520887
0.496992
0.473163
0.449491
0.426081
0.403045
0.380503
0.358572
0.337366
0.316995
0.297569
0.279193
0.261978
0.246032
0.23146
0.218363
0.206829
0.196945
0.188804
0.18242
0.177381
0.17338
0.170202
0.167681
0.165684
0.164102
0.162846
0.161842
0.161031
0.160359
0.159782
0.159259
0.158748
0.158206
0.157581
0.156798
0.155766
0.154282
0.152262
0.148368
0.073531
0.11795
0.150349
0.172712
0.189162
0.202408
0.214224
0.225956
0.238893
0.253944
0.270221
0.289226
0.31229
0.340347
0.37392
0.412262
0.45055
0.487431
0.521762
0.553064
0.581567
0.60778
0.632568
0.656914
0.681677
0.707495
0.734782
0.763755
0.794467
0.826828
0.86063
0.895577
0.931312
0.967457
1.00364
1.03951
1.07477
1.10919
1.14259
1.17484
1.20587
1.23567
1.26422
1.29157
1.31776
1.34284
1.36688
1.38995
1.41211
1.43344
1.45399
1.47382
1.49299
1.51156
1.52958
1.5471
1.56417
1.58084
1.59714
1.61312
1.62883
1.6443
1.65957
1.67469
1.6897
1.70463
1.71954
1.73432
1.74909
1.76393
1.77889
1.79399
1.80928
1.82477
1.8405
1.85648
1.87273
1.88927
1.90612
1.92329
1.94077
1.95858
1.9767
1.99512
2.01383
2.0328
2.05199
2.07136
2.09085
2.11038
2.12987
2.14923
2.16832
2.18701
2.20515
2.22254
2.23899
2.25427
2.26813
2.2803
2.29048
2.29837
2.30364
2.30596
2.30503
2.30055
2.29232
2.28025
2.2647
2.24666
2.22525
2.19983
2.17029
2.1367
2.09924
2.05816
2.01377
1.96639
1.91641
1.8642
1.81016
1.75469
1.69816
1.64094
1.58335
1.5257
1.46827
1.41129
1.35496
1.29946
1.24493
1.19146
1.13914
1.08801
1.0381
0.989349
0.941554
0.894325
0.848739
0.804943
0.762988
0.722879
0.684587
0.648055
0.613193
0.579875
0.547937
0.517189
0.487424
0.458444
0.430087
0.402251
0.374913
0.348144
0.322102
0.297018
0.273168
0.250843
0.230306
0.211752
0.195275
0.180883
0.168515
0.158048
0.149317
0.142128
0.13628
0.131574
0.127828
0.124878
0.122587
0.120843
0.119558
0.118672
0.118154
0.118014
0.118305
0.119254
0.121004
0.125858
0.10715
0.171836
0.216856
0.247075
0.269917
0.289382
0.308076
0.328151
0.350856
0.375828
0.403766
0.435479
0.471393
0.511014
0.552912
0.594905
0.63452
0.670267
0.701706
0.729417
0.754737
0.779355
0.80496
0.832958
0.864309
0.899493
0.938572
0.981276
1.02709
1.07536
1.12534
1.17626
1.22742
1.2782
1.32806
1.3766
1.42353
1.46866
1.51189
1.55318
1.59255
1.63006
1.66579
1.69982
1.73225
1.76319
1.79273
1.82096
1.84798
1.87386
1.89869
1.92255
1.94549
1.9676
1.98892
2.00953
2.02948
2.04883
2.06764
2.08596
2.10386
2.12139
2.1386
2.15556
2.17232
2.18894
2.20546
2.22187
2.23821
2.25454
2.27089
2.28732
2.30385
2.32053
2.3374
2.35448
2.37181
2.38942
2.40734
2.42558
2.44416
2.4631
2.48241
2.50207
2.52209
2.54245
2.56311
2.58403
2.60517
2.62645
2.64778
2.66906
2.69015
2.71091
2.73115
2.75068
2.76924
2.78658
2.80241
2.81638
2.82815
2.83733
2.84353
2.84632
2.8453
2.84007
2.83026
2.81564
2.79666
2.77322
2.74498
2.71172
2.67342
2.63022
2.58234
2.5301
2.47389
2.41412
2.35127
2.28582
2.21827
2.14911
2.07881
2.00783
1.93658
1.86542
1.79471
1.72472
1.6557
1.58785
1.52132
1.45625
1.3927
1.33073
1.27034
1.2115
1.15405
1.09772
1.04243
0.988531
0.936082
0.885117
0.835661
0.787727
0.741314
0.696407
0.652978
0.61098
0.570355
0.531041
0.492986
0.456167
0.420603
0.386368
0.353592
0.322455
0.29317
0.265954
0.241005
0.21847
0.198426
0.180876
0.165745
0.152896
0.142144
0.13327
0.126044
0.120232
0.115612
0.111982
0.109161
0.106995
0.105355
0.104139
0.103269
0.102697
0.102403
0.102462
0.102927
0.104635
0.136077
0.232406
0.289648
0.326962
0.355701
0.381022
0.406131
0.432284
0.459475
0.488991
0.521413
0.556765
0.594483
0.633411
0.672001
0.708703
0.742441
0.773028
0.801203
0.828403
0.856379
0.886798
0.920954
0.959619
1.00303
1.05097
1.10291
1.15811
1.21573
1.27494
1.33494
1.39501
1.45453
1.513
1.57003
1.62532
1.67868
1.72999
1.77921
1.82631
1.87134
1.91436
1.95544
1.99466
2.03212
2.06791
2.10211
2.13482
2.16611
2.19608
2.22479
2.25233
2.27875
2.30413
2.32853
2.35202
2.37465
2.39648
2.41759
2.43801
2.45782
2.47708
2.49582
2.51413
2.53203
2.5496
2.56689
2.58389
2.60065
2.61724
2.63371
2.65009
2.66644
2.68281
2.69923
2.71576
2.73242
2.74927
2.76634
2.78365
2.80124
2.81913
2.83734
2.85587
2.87473
2.89391
2.9134
2.93316
2.95314
2.97329
2.99353
3.01374
3.03382
3.05361
3.07292
3.09155
3.10926
3.12576
3.14075
3.15387
3.16475
3.17295
3.17805
3.17957
3.17705
3.16999
3.15798
3.14103
3.11901
3.09176
3.05909
3.02092
2.97728
2.92833
2.87434
2.81566
2.7527
2.68594
2.6159
2.54311
2.46813
2.39149
2.31371
2.23529
2.15669
2.0783
2.00051
1.92361
1.84787
1.77351
1.70069
1.62953
1.56011
1.49246
1.42659
1.36245
1.29994
1.23886
1.17901
1.12046
1.06319
1.00719
0.952436
0.898938
0.846689
0.795693
0.745954
0.697481
0.650289
0.604401
0.559853
0.516709
0.475063
0.435045
0.396827
0.360606
0.3266
0.29502
0.266052
0.239834
0.21644
0.195868
0.178041
0.162819
0.150006
0.13937
0.13066
0.12362
0.118
0.11357
0.110119
0.107465
0.105452
0.103951
0.102859
0.102104
0.101635
0.101459
0.101563
0.102214
0.163292
0.293546
0.36263
0.408033
0.443141
0.473767
0.501935
0.528937
0.556572
0.585795
0.616872
0.64952
0.683048
0.71655
0.749173
0.780403
0.810302
0.83957
0.86941
0.901238
0.936365
0.975756
1.01991
1.06888
1.12232
1.17965
1.24015
1.30303
1.36752
1.43293
1.49859
1.56395
1.62853
1.69196
1.75391
1.81417
1.87255
1.92896
1.98332
2.03562
2.08587
2.13408
2.18031
2.22461
2.26705
2.3077
2.34662
2.38389
2.41959
2.45377
2.48651
2.51788
2.54794
2.57675
2.60437
2.63086
2.65628
2.68069
2.70413
2.72668
2.74838
2.76928
2.78944
2.80891
2.82775
2.846
2.86372
2.88093
2.8977
2.91407
2.93011
2.94588
2.96142
2.97679
2.99203
3.0072
3.02234
3.03749
3.05271
3.06804
3.0835
3.09913
3.11495
3.13099
3.14725
3.16375
3.18046
3.19738
3.21447
3.23167
3.24892
3.26613
3.28318
3.29994
3.31624
3.33187
3.3466
3.36016
3.37224
3.38248
3.3905
3.39588
3.39815
3.39682
3.39139
3.38141
3.36662
3.34679
3.32169
3.29113
3.25501
3.21326
3.16595
3.11327
3.05547
2.99293
2.92607
2.85538
2.78141
2.70471
2.62583
2.54534
2.46378
2.38164
2.29941
2.21749
2.13625
2.05602
1.97706
1.89957
1.82373
1.74964
1.67738
1.60698
1.53842
1.47165
1.40657
1.34304
1.28084
1.21989
1.16012
1.10146
1.04388
0.987334
0.931808
0.877295
0.823808
0.771374
0.720038
0.669865
0.620945
0.573393
0.527357
0.483018
0.440587
0.400299
0.362396
0.327111
0.294648
0.265159
0.238732
0.215379
0.195032
0.177555
0.162753
0.150387
0.140194
0.1319
0.125235
0.119943
0.115793
0.112576
0.110115
0.108258
0.106885
0.1059
0.105235
0.104859
0.104738
0.104965
0.185895
0.348807
0.431097
0.484826
0.52563
0.558221
0.586153
0.612096
0.637684
0.663815
0.690815
0.718597
0.746859
0.775291
0.80378
0.832553
0.862217
0.893678
0.927954
0.965967
1.00837
1.05544
1.10714
1.16313
1.22288
1.28576
1.35112
1.41829
1.48667
1.55569
1.62486
1.69373
1.76191
1.82909
1.895
1.95941
2.02217
2.08313
2.14221
2.19936
2.25454
2.30774
2.35897
2.40826
2.45563
2.50113
2.54481
2.58671
2.62689
2.6654
2.7023
2.73764
2.77147
2.80385
2.83483
2.86447
2.8928
2.91989
2.94578
2.97052
2.99415
3.01674
3.03832
3.05894
3.07867
3.09753
3.1156
3.13289
3.14947
3.16542
3.1808
3.19565
3.21004
3.22403
3.23766
3.25099
3.26408
3.27696
3.28969
3.30232
3.31488
3.32741
3.33996
3.35253
3.36516
3.37786
3.39062
3.40344
3.4163
3.42915
3.44195
3.45462
3.46706
3.47915
3.49073
3.50164
3.51164
3.52049
3.5279
3.53353
3.53701
3.53792
3.53582
3.53019
3.52067
3.50687
3.48846
3.46514
3.43668
3.40292
3.36372
3.31909
3.26909
3.21391
3.1538
3.08915
3.02036
2.94793
2.87239
2.79427
2.71414
2.63254
2.54999
2.46699
2.38398
2.30138
2.21953
2.13874
2.05927
1.98129
1.90498
1.83042
1.75767
1.68676
1.61766
1.5503
1.48458
1.42036
1.35746
1.29569
1.23496
1.1752
1.11631
1.05826
1.001
0.944508
0.888802
0.833914
0.779903
0.72686
0.674905
0.624191
0.574905
0.527267
0.481526
0.437951
0.396818
0.358391
0.322903
0.290533
0.261395
0.235521
0.212863
0.193297
0.176632
0.162629
0.151017
0.141509
0.13382
0.127674
0.122818
0.119024
0.116094
0.11386
0.11218
0.110943
0.110064
0.109488
0.109164
0.10912
0.202182
0.394572
0.488727
0.549223
0.59247
0.625988
0.653784
0.678399
0.701524
0.72425
0.747225
0.7708
0.795188
0.820625
0.847479
0.876292
0.907743
0.942541
0.981303
1.02444
1.07211
1.12423
1.18049
1.24045
1.30359
1.36938
1.43726
1.50673
1.57729
1.64851
1.71997
1.79131
1.8622
1.93236
2.00151
2.06946
2.13601
2.20102
2.26436
2.32594
2.38569
2.44356
2.49953
2.55359
2.60572
2.65595
2.7043
2.75077
2.79542
2.83827
2.87936
2.91872
2.9564
2.99244
3.02688
3.05975
3.0911
3.12097
3.1494
3.17643
3.2021
3.22645
3.24953
3.27137
3.29203
3.31154
3.32996
3.34731
3.36368
3.37914
3.39375
3.40757
3.42066
3.43307
3.44485
3.45607
3.46678
3.47702
3.48685
3.49632
3.50546
3.51433
3.52296
3.53138
3.53962
3.5477
3.55563
3.56341
3.57102
3.57845
3.58565
3.59257
3.59912
3.60521
3.61071
3.61547
3.61928
3.62195
3.62319
3.62271
3.62018
3.61518
3.60736
3.59633
3.5817
3.56311
3.54025
3.51284
3.48065
3.44352
3.40137
3.3542
3.30209
3.24522
3.18387
3.11837
3.04915
2.97665
2.90138
2.82385
2.74459
2.66409
2.58286
2.50134
2.41994
2.33904
2.25895
2.17995
2.10225
2.02603
1.95142
1.87848
1.80727
1.73778
1.66996
1.60376
1.53904
1.47568
1.41348
1.35223
1.29184
1.2322
1.17323
1.11486
1.05702
0.999689
0.94288
0.886624
0.830992
0.776091
0.722063
0.669089
0.617386
0.56721
0.518842
0.472588
0.428759
0.387655
0.349542
0.314635
0.283078
0.254931
0.230168
0.208683
0.190294
0.174765
0.161822
0.151167
0.142503
0.135537
0.129999
0.125642
0.122252
0.119641
0.117654
0.116165
0.115072
0.114304
0.113799
0.113551
0.211645
0.426281
0.527856
0.592494
0.638843
0.67422
0.702666
0.726793
0.748453
0.769009
0.789478
0.810637
0.833127
0.857538
0.884455
0.91446
0.948091
0.98578
1.0278
1.07422
1.12496
1.17976
1.23825
1.30003
1.36464
1.43164
1.50059
1.57109
1.64274
1.71519
1.78808
1.86111
1.93397
2.0064
2.07815
2.14899
2.21873
2.2872
2.35425
2.41976
2.48361
2.54573
2.60605
2.66453
2.72113
2.77584
2.82863
2.87952
2.9285
2.97558
3.02079
3.06414
3.10566
3.14536
3.18328
3.21944
3.25387
3.2866
3.31766
3.34707
3.37487
3.40109
3.42576
3.44892
3.47061
3.49087
3.5097
3.52718
3.54338
3.55838
3.57224
3.58501
3.59676
3.60753
3.61738
3.62637
3.63454
3.64195
3.64866
3.65469
3.66012
3.66496
3.66928
3.67309
3.67644
3.67935
3.68183
3.68388
3.68552
3.68673
3.68748
3.68773
3.68742
3.68648
3.68482
3.68229
3.67875
3.67402
3.66788
3.66003
3.65027
3.63826
3.62369
3.60621
3.58551
3.56127
3.53321
3.50109
3.46474
3.42402
3.37887
3.32932
3.27548
3.21751
3.15569
3.09033
3.02182
2.95059
2.87709
2.80179
2.72514
2.6476
2.56959
2.49152
2.41374
2.33655
2.26024
2.18502
2.11108
2.03854
1.96749
1.898
1.83007
1.76367
1.69876
1.63523
1.57298
1.51183
1.4516
1.39207
1.33316
1.27475
1.21674
1.15905
1.10161
1.04438
0.987382
0.930639
0.874231
0.818278
0.762941
0.708423
0.65497
0.602867
0.55243
0.504
0.457924
0.414541
0.374154
0.337017
0.303307
0.273116
0.246447
0.223209
0.203237
0.186299
0.172119
0.160394
0.150815
0.143076
0.136891
0.131998
0.128166
0.125193
0.12291
0.121176
0.119879
0.118932
0.118267
0.117856
0.221627
0.4418
0.54773
0.615978
0.665313
0.702977
0.732944
0.757827
0.779569
0.799723
0.819569
0.840176
0.862448
0.887153
0.91494
0.946329
0.981701
1.02128
1.06513
1.11318
1.16522
1.22096
1.28008
1.34221
1.40699
1.47406
1.54307
1.61369
1.6856
1.75849
1.83208
1.90607
1.98021
2.05422
2.12788
2.20095
2.27322
2.34451
2.41464
2.48347
2.55085
2.61669
2.68087
2.74332
2.80398
2.8628
2.91972
2.97473
3.02781
3.07893
3.1281
3.17531
3.22057
3.26388
3.30525
3.34469
3.38221
3.41783
3.45157
3.48343
3.51345
3.54163
3.568
3.59259
3.61542
3.63653
3.6559
3.67362
3.68977
3.70442
3.71761
3.72942
3.73988
3.74907
3.75701
3.76378
3.7694
3.77395
3.77745
3.77997
3.78153
3.7822
3.78199
3.78097
3.77914
3.77655
3.77321
3.76913
3.76432
3.75878
3.75251
3.74547
3.73763
3.72891
3.71929
3.70866
3.69686
3.6838
3.66937
3.65332
3.63547
3.61556
3.59335
3.56858
3.541
3.51037
3.47648
3.43914
3.39824
3.35369
3.30548
3.25365
3.19834
3.13972
3.07804
3.01361
2.94677
2.87789
2.80738
2.73562
2.66301
2.58992
2.51671
2.4437
2.37116
2.29935
2.22846
2.15867
2.0901
2.02284
1.95694
1.8924
1.82923
1.76736
1.70671
1.64719
1.58865
1.53091
1.47376
1.41703
1.36062
1.30441
1.24829
1.19217
1.13598
1.07969
1.02328
0.966799
0.910334
0.854012
0.798011
0.742555
0.687916
0.634407
0.582378
0.532207
0.484278
0.438968
0.396624
0.357536
0.321921
0.289904
0.261514
0.236687
0.21527
0.197038
0.181719
0.169004
0.158574
0.150114
0.143324
0.137927
0.133677
0.130361
0.127797
0.125831
0.124342
0.123231
0.122423
0.121879
0.228572
0.444502
0.551835
0.622226
0.674004
0.714116
0.746323
0.773117
0.796407
0.81779
0.838649
0.86018
0.8834
0.909141
0.938049
0.970586
1.00703
1.04751
1.09201
1.14039
1.19245
1.24792
1.30654
1.36799
1.43201
1.49829
1.56656
1.63655
1.70799
1.78064
1.85422
1.92848
2.00318
2.07807
2.15292
2.2275
2.30159
2.37499
2.44752
2.51901
2.58928
2.65822
2.72568
2.79157
2.85579
2.91825
2.97889
3.03766
3.0945
3.14938
3.20227
3.25314
3.30197
3.34875
3.39348
3.43613
3.47672
3.51523
3.55166
3.58602
3.61831
3.64854
3.67671
3.70283
3.72692
3.749
3.76906
3.78718
3.80343
3.81787
3.83056
3.84155
3.85089
3.85861
3.86478
3.86944
3.87262
3.87438
3.87476
3.8738
3.87153
3.86801
3.86327
3.85734
3.85027
3.84206
3.83276
3.82235
3.81086
3.7983
3.7847
3.77003
3.75424
3.73726
3.7192
3.69996
3.67945
3.65759
3.63429
3.60942
3.58283
3.55438
3.52391
3.49124
3.45621
3.41868
3.37851
3.33561
3.28991
3.2414
3.19013
3.13617
3.07966
3.0208
2.95981
2.89698
2.83259
2.76695
2.7004
2.63325
2.56579
2.49833
2.43112
2.36439
2.29835
2.23316
2.16896
2.10585
2.04389
1.98313
1.92356
1.86517
1.80791
1.75169
1.69642
1.64196
1.58815
1.5348
1.48168
1.42867
1.37565
1.32249
1.26908
1.21532
1.16113
1.10647
1.05134
0.995783
0.939884
0.883786
0.82768
0.771813
0.716479
0.662022
0.608825
0.5573
0.507872
0.460958
0.416946
0.376168
0.338879
0.30524
0.275311
0.249051
0.226322
0.206913
0.19055
0.176925
0.165711
0.156584
0.149231
0.143365
0.138726
0.135089
0.132261
0.130079
0.128411
0.127151
0.126217
0.125561
0.230321
0.436807
0.543211
0.614439
0.668038
0.710543
0.745412
0.774916
0.800814
0.824609
0.847639
0.871088
0.895971
0.923114
0.953144
0.986494
1.02342
1.06401
1.10825
1.15603
1.20719
1.26151
1.31879
1.37879
1.4413
1.50609
1.57293
1.64162
1.71193
1.78364
1.85652
1.93035
2.0049
2.07994
2.15524
2.23058
2.30574
2.38052
2.45472
2.52814
2.60061
2.67197
2.74208
2.8108
2.878
2.94359
3.00747
3.06954
3.12976
3.18803
3.24433
3.29858
3.35076
3.40083
3.44876
3.49452
3.53808
3.57943
3.61854
3.65541
3.69001
3.72234
3.75239
3.78016
3.80563
3.82881
3.8497
3.8684
3.88494
3.89938
3.91176
3.92214
3.93055
3.93703
3.94162
3.94436
3.9453
3.94446
3.94189
3.93762
3.93169
3.92412
3.91495
3.90423
3.89199
3.87824
3.86301
3.8463
3.8281
3.80846
3.78745
3.76505
3.74124
3.71601
3.68939
3.66135
3.63187
3.60092
3.56846
3.53444
3.49881
3.46149
3.42243
3.38156
3.33881
3.29415
3.24754
3.19898
3.14848
3.09611
3.04195
2.98614
2.92882
2.8702
2.81046
2.74985
2.6886
2.62696
2.56515
2.5034
2.44192
2.38091
2.32053
2.26091
2.20219
2.14444
2.08773
2.03209
1.97754
1.92406
1.87162
1.82015
1.76958
1.71979
1.67066
1.62203
1.57372
1.52548
1.47714
1.42859
1.37968
1.33027
1.28025
1.2295
1.17795
1.12554
1.07227
1.0182
0.963403
0.908041
0.85232
0.796502
0.740908
0.685909
0.631921
0.579393
0.528788
0.480566
0.435156
0.392931
0.354188
0.319124
0.287829
0.260287
0.236379
0.215903
0.198592
0.184137
0.172207
0.162467
0.154596
0.148296
0.143298
0.139363
0.13629
0.133908
0.132075
0.13068
0.129634
0.128882
0.227569
0.421274
0.525076
0.596111
0.650914
0.695564
0.733176
0.76575
0.794818
0.821694
0.847564
0.873498
0.900431
0.929139
0.960224
0.99411
1.03106
1.07121
1.11457
1.1611
1.21069
1.2632
1.3185
1.37641
1.43679
1.49946
1.56425
1.631
1.69952
1.76962
1.84112
1.9138
1.98748
2.06192
2.13692
2.21226
2.28773
2.36311
2.43821
2.51282
2.58675
2.65984
2.7319
2.8028
2.87238
2.94051
3.00708
3.07198
3.1351
3.19637
3.2557
3.31302
3.36826
3.42138
3.4723
3.52099
3.56741
3.6115
3.65324
3.69259
3.72951
3.76398
3.79597
3.82545
3.85241
3.87682
3.89873
3.91818
3.93521
3.94987
3.96218
3.97219
3.97992
3.9854
3.98868
3.98978
3.98873
3.98556
3.9803
3.97298
3.96363
3.95226
3.9389
3.92361
3.90641
3.88733
3.86638
3.84357
3.81892
3.79247
3.76426
3.73429
3.70258
3.66915
3.63404
3.59726
3.55885
3.51882
3.47722
3.43406
3.38938
3.34322
3.2956
3.24659
3.19622
3.14457
3.09172
3.03775
2.98278
2.92694
2.87038
2.81324
2.7557
2.69792
2.64009
2.58236
2.5249
2.46787
2.41141
2.35563
2.30066
2.24658
2.19346
2.14136
2.09031
2.04034
1.99144
1.94359
1.89675
1.85087
1.80587
1.76167
1.71814
1.67516
1.63257
1.59019
1.5478
1.50513
1.46209
1.4185
1.37423
1.3291
1.28298
1.23576
1.18735
1.13768
1.08676
1.03464
0.981397
0.927208
0.872288
0.816918
0.761443
0.706261
0.65182
0.598604
0.547118
0.497861
0.451305
0.407865
0.367877
0.331575
0.299081
0.270403
0.245444
0.224013
0.205849
0.190644
0.178063
0.167766
0.159423
0.152727
0.147398
0.14319
0.139893
0.137326
0.135344
0.133826
0.132681
0.131847
0.22111
0.400233
0.500393
0.570507
0.62596
0.67237
0.712524
0.748141
0.780499
0.810675
0.839647
0.868308
0.897463
0.927804
0.959893
0.994156
1.03089
1.07027
1.11237
1.1572
1.20476
1.25497
1.30778
1.36308
1.42078
1.48077
1.54293
1.60712
1.67322
1.74106
1.81049
1.88133
1.95339
2.0265
2.10043
2.175
2.25
2.32521
2.40043
2.47547
2.55011
2.62419
2.69751
2.7699
2.84121
2.91127
2.97996
3.04713
3.11268
3.17647
3.23842
3.29843
3.35641
3.41227
3.46595
3.51736
3.56645
3.61316
3.65742
3.69917
3.73838
3.77498
3.80893
3.84019
3.86871
3.89449
3.91756
3.93796
3.9557
3.9708
3.98328
3.99317
4.00049
4.00526
4.00751
4.00725
4.00451
3.99932
3.99169
3.98164
3.9692
3.95438
3.93722
3.91773
3.89594
3.87188
3.84556
3.817
3.78623
3.75327
3.71815
3.68092
3.64162
3.60027
3.55696
3.51174
3.46468
3.41589
3.36545
3.31348
3.2601
3.20546
3.14971
3.09301
3.03553
2.97745
2.91898
2.86029
2.8016
2.74309
2.68494
2.62732
2.5704
2.5143
2.45914
2.40502
2.35199
2.30012
2.24945
2.19999
2.15175
2.10474
2.05893
2.01432
1.97087
1.92853
1.88727
1.84701
1.80769
1.76922
1.7315
1.69442
1.65784
1.62162
1.58557
1.54949
1.51311
1.47619
1.43866
1.40031
1.36096
1.32043
1.27856
1.23521
1.19029
1.14373
1.09552
1.04571
0.994385
0.94172
0.887946
0.83336
0.778327
0.723273
0.668677
0.615059
0.562959
0.512919
0.465451
0.421013
0.379979
0.342619
0.309088
0.27942
0.253535
0.231258
0.212335
0.196459
0.183294
0.172495
0.163726
0.156671
0.151042
0.146587
0.143085
0.140352
0.138234
0.136607
0.135373
0.134467
0.211556
0.375578
0.471592
0.540353
0.596007
0.643742
0.686056
0.724421
0.759871
0.79325
0.825305
0.856718
0.888134
0.920138
0.953237
0.987857
1.02434
1.06294
1.10363
1.14655
1.19179
1.23937
1.28931
1.34158
1.39615
1.45295
1.51193
1.57301
1.63607
1.70102
1.76771
1.83601
1.90575
1.97678
2.0489
2.12193
2.19568
2.26994
2.34452
2.41921
2.49382
2.56814
2.64199
2.71519
2.78755
2.8589
2.9291
2.99798
3.0654
3.13123
3.19534
3.25761
3.31794
3.37621
3.43233
3.4862
3.53774
3.58686
3.63349
3.67753
3.71894
3.75762
3.7935
3.82654
3.85667
3.88392
3.90829
3.92978
3.9484
3.96415
3.97704
3.98707
3.99426
3.99861
4.00014
3.99886
3.99477
3.98791
3.97826
3.96586
3.95071
3.93283
3.91223
3.88893
3.86295
3.83431
3.80303
3.76912
3.73262
3.69355
3.65196
3.60791
3.56144
3.51263
3.46159
3.40841
3.35323
3.29621
3.23752
3.17737
3.11599
3.05362
2.99053
2.92702
2.86337
2.7999
2.73689
2.67465
2.61342
2.55346
2.49495
2.43805
2.38288
2.3295
2.27795
2.2282
2.18024
2.134
2.0894
2.04638
2.00485
1.96472
1.92591
1.88836
1.85197
1.81668
1.78241
1.74908
1.71661
1.68489
1.65382
1.62328
1.59312
1.56318
1.53327
1.50315
1.47251
1.44124
1.40916
1.37604
1.34167
1.30582
1.26833
1.22903
1.1878
1.14457
1.0993
1.05205
1.0029
0.952028
0.899668
0.846135
0.791811
0.737149
0.682655
0.628882
0.576409
0.525816
0.477655
0.432422
0.390531
0.352287
0.317876
0.287357
0.260671
0.237656
0.218066
0.201599
0.187917
0.176673
0.167525
0.160149
0.154252
0.149574
0.145889
0.143006
0.140767
0.139043
0.137731
0.136763
0.1992
0.348541
0.440398
0.507672
0.563245
0.611918
0.65596
0.696648
0.734824
0.771139
0.80618
0.840271
0.873925
0.907618
0.941775
0.976773
1.01293
1.05051
1.08967
1.13058
1.17339
1.21819
1.26506
1.31405
1.36519
1.41848
1.47391
1.53144
1.59102
1.65257
1.716
1.7812
1.84803
1.91636
1.98602
2.05686
2.12868
2.2013
2.27453
2.34817
2.42202
2.49588
2.56956
2.64287
2.71561
2.7876
2.85867
2.92865
2.99738
3.06469
3.13045
3.19451
3.25673
3.317
3.37519
3.43118
3.48487
3.53614
3.5849
3.63104
3.67447
3.7151
3.75284
3.78759
3.81936
3.84813
3.87388
3.89658
3.91622
3.93278
3.94626
3.95665
3.96393
3.96812
3.9692
3.96718
3.96205
3.95382
3.9425
3.92808
3.91057
3.88998
3.86631
3.83958
3.8098
3.77699
3.74116
3.70233
3.66054
3.61583
3.56825
3.51787
3.46478
3.40908
3.35091
3.29043
3.22784
3.16336
3.09727
3.02986
2.96146
2.89246
2.82324
2.75421
2.6858
2.61841
2.55244
2.48825
2.42614
2.36635
2.30907
2.25439
2.20234
2.1529
2.10597
2.06143
2.01912
1.97886
1.94048
1.90381
1.86869
1.83497
1.80253
1.77125
1.74106
1.71185
1.68355
1.65609
1.62939
1.60337
1.57792
1.55294
1.52828
1.50379
1.47926
1.45444
1.42901
1.40294
1.37595
1.34778
1.31818
1.28689
1.25371
1.21843
1.18093
1.14109
1.09888
1.05432
1.0075
0.958596
0.90784
0.855558
0.802152
0.748093
0.693916
0.640204
0.587571
0.536631
0.487976
0.442139
0.39957
0.360609
0.325469
0.294236
0.266871
0.243226
0.223063
0.206084
0.191954
0.180321
0.17084
0.163182
0.15705
0.152176
0.148329
0.145314
0.142968
0.141158
0.139779
0.138756
0.184563
0.318334
0.406511
0.472635
0.528173
0.577622
0.623103
0.665756
0.706271
0.745114
0.782643
0.819146
0.854932
0.890316
0.925614
0.961131
0.997157
1.03395
1.07176
1.11078
1.15122
1.19325
1.23701
1.28261
1.33015
1.37969
1.43127
1.48491
1.54061
1.59832
1.658
1.71957
1.78293
1.84797
1.91456
1.98255
2.05179
2.12209
2.19328
2.26517
2.33757
2.41027
2.48309
2.55583
2.62828
2.70026
2.77157
2.84204
2.91147
2.97971
3.04659
3.11193
3.17559
3.23742
3.29727
3.35501
3.4105
3.46362
3.51424
3.56224
3.6075
3.64991
3.68935
3.72577
3.75916
3.78946
3.81662
3.84059
3.86134
3.87882
3.89302
3.90391
3.91146
3.91566
3.91649
3.91393
3.90798
3.89863
3.88586
3.86968
3.85007
3.82705
3.8006
3.77074
3.73747
3.70081
3.66077
3.61739
3.57071
3.52077
3.46765
3.41145
3.35228
3.29029
3.22567
3.15863
3.08946
3.01847
2.94601
2.8725
2.79839
2.72418
2.65039
2.57756
2.50621
2.43684
2.36992
2.30584
2.24489
2.18728
2.13311
2.08239
2.03503
1.99084
1.94961
1.91108
1.87494
1.84093
1.80877
1.77821
1.74903
1.72106
1.69414
1.66818
1.64307
1.61876
1.59518
1.57231
1.55008
1.52846
1.50737
1.48673
1.46641
1.44628
1.42614
1.40573
1.3848
1.36329
1.34085
1.31718
1.29198
1.26497
1.23587
1.20449
1.17062
1.13414
1.095
1.05318
1.00877
0.961931
0.912904
0.862017
0.809683
0.756394
0.702707
0.649234
0.59662
0.545513
0.49654
0.45027
0.407186
0.367659
0.331932
0.300115
0.272186
0.248012
0.227365
0.209952
0.195438
0.183471
0.173703
0.165803
0.159465
0.154421
0.150434
0.147304
0.144864
0.14298
0.141542
0.140472
0.169459
0.290588
0.374925
0.439846
0.49516
0.545022
0.591431
0.63545
0.677673
0.718454
0.758023
0.796556
0.834226
0.871217
0.907734
0.944003
0.980258
1.01674
1.0537
1.09137
1.12997
1.16972
1.21082
1.25343
1.2977
1.34375
1.39167
1.44153
1.49337
1.5472
1.60301
1.66076
1.72039
1.78183
1.84496
1.90966
1.97581
2.04325
2.11181
2.18131
2.25158
2.32243
2.39366
2.46508
2.53648
2.60766
2.67844
2.74862
2.818
2.8864
2.95364
3.01953
3.08391
3.1466
3.20745
3.2663
3.32298
3.37737
3.4293
3.47864
3.52525
3.569
3.60977
3.64756
3.6823
3.71388
3.74224
3.76731
3.78902
3.80732
3.82216
3.8335
3.8413
3.84552
3.84613
3.84311
3.83642
3.82605
3.81198
3.7942
3.77268
3.74742
3.71842
3.68568
3.64919
3.60898
3.56507
3.5175
3.46632
3.41159
3.35343
3.29195
3.22731
3.15972
3.08942
3.01671
2.94195
2.86556
2.788
2.70981
2.63157
2.55392
2.47748
2.40292
2.33084
2.26181
2.19631
2.1347
2.07723
2.02401
1.975
1.93007
1.88894
1.85129
1.81674
1.78488
1.75529
1.7276
1.70146
1.67657
1.65268
1.62961
1.60721