/*--------------------------------*- C++ -*----------------------------------*\
| =========                 |                                                 |
| \\      /  F ield         | OpenFOAM: The Open Source CFD Toolbox           |
|  \\    /   O peration     | Version:  2412                                  |
|   \\  /    A nd           | Website:  www.openfoam.com                      |
|    \\/     M anipulation  |                                                 |
\*---------------------------------------------------------------------------*/
FoamFile
{
    version     2.0;
    format      ascii;
    arch        "LSB;label=32;scalar=64";
    class       volScalarField;
    location    "0.04";
    object      nut;
}
// * * * * * * * * * * * * * * * * * * * * * * * * * * * * * * * * * * * * * //

dimensions      [0 2 -1 0 0 0 0];

internalField   nonuniform List<scalar> 
12225
(
2.01501e-05
2.24823e-05
2.47402e-05
2.63561e-05
2.75654e-05
2.84838e-05
2.91932e-05
2.97495e-05
3.01896e-05
3.05401e-05
3.082e-05
3.10435e-05
3.1221e-05
3.13602e-05
3.14668e-05
3.15441e-05
3.15977e-05
3.16537e-05
0.000167784
0.000185402
0.000202552
0.000213725
0.000221074
0.000225908
0.000228925
0.000230648
0.00023145
0.000231591
0.000231253
0.000230572
0.000229647
0.000228549
0.000227336
0.000226039
0.000224813
0.000224279
0.0003383
0.000365936
0.000399258
0.000424257
0.00044259
0.000455916
0.000465399
0.000471978
0.000476371
0.000479112
0.0004806
0.000481137
0.000480951
0.000480214
0.000479062
0.000477599
0.000476043
0.000475389
0.000480564
0.000521675
0.000569971
0.000608178
0.00063753
0.000659883
0.000676724
0.000689275
0.0006985
0.000705141
0.000709768
0.000712823
0.000714648
0.000715508
0.000715614
0.000715143
0.000714359
0.000714056
0.000593446
0.000650827
0.000713306
0.000763545
0.000802986
0.000833773
0.000857692
0.000876193
0.000890425
0.000901287
0.000909479
0.000915555
0.000919947
0.000923
0.000924993
0.000926162
0.000926792
0.000927453
0.000684228
0.000756469
0.000831748
0.000892822
0.000941363
0.000979813
0.00101025
0.00103433
0.00105337
0.00106838
0.00108017
0.00108939
0.00109654
0.00110203
0.0011062
0.00110933
0.00111171
0.00111376
0.000759507
0.000842609
0.000928085
0.000998457
0.00105504
0.00110038
0.00113675
0.00116598
0.00118951
0.00120846
0.00122375
0.00123606
0.00124599
0.00125399
0.00126044
0.00126566
0.00126994
0.00127359
0.000823337
0.000913106
0.00100506
0.00108249
0.00114574
0.00119707
0.00123873
0.00127264
0.00130033
0.001323
0.00134162
0.00135694
0.0013696
0.0013801
0.00138885
0.00139621
0.00140242
0.00140775
0.000876718
0.00097066
0.00106514
0.0011467
0.0012147
0.00127078
0.00131692
0.00135495
0.00138641
0.00141252
0.00143428
0.00145249
0.00146781
0.00148078
0.00149183
0.00150131
0.00150947
0.00151647
0.000918032
0.00101574
0.00110989
0.00119253
0.00126289
0.00132204
0.0013715
0.00141286
0.00144754
0.00147671
0.00150136
0.00152229
0.00154017
0.00155554
0.00156885
0.00158044
0.00159053
0.00159918
0.000944645
0.00104618
0.0011389
0.00122039
0.00129079
0.00135105
0.00140234
0.00144593
0.00148304
0.00151471
0.00154186
0.00156524
0.0015855
0.00160316
0.00161865
0.0016323
0.00164428
0.00165456
0.000953965
0.0010566
0.00114745
0.00122679
0.00129574
0.00135552
0.0014072
0.00145181
0.00149037
0.00152376
0.00155278
0.00157811
0.00160033
0.00161993
0.00163732
0.00165278
0.00166645
0.00167818
0.000951728
0.00105228
0.0011413
0.00121884
0.00128615
0.00134474
0.00139582
0.0014404
0.00147939
0.00151359
0.00154369
0.00157029
0.00159391
0.00161499
0.00163388
0.00165084
0.00166592
0.00167889
0.000937577
0.00102757
0.00111059
0.00118471
0.0012498
0.00130679
0.00135676
0.00140071
0.00143949
0.00147387
0.00150447
0.00153185
0.00155646
0.00157867
0.00159879
0.00161703
0.0016334
0.00164747
0.000914438
0.000983315
0.00105127
0.00111582
0.00117518
0.00122877
0.00127671
0.00131943
0.00135752
0.00139157
0.00142215
0.00144975
0.00147479
0.0014976
0.00151845
0.00153751
0.00155473
0.00156957
0.000888522
0.00093012
0.000973776
0.00101856
0.00106309
0.00110622
0.00114713
0.00118532
0.00122057
0.0012529
0.00128247
0.00130952
0.0013343
0.00135706
0.00137796
0.00139709
0.00141447
0.00142958
0.000866396
0.000883415
0.000902309
0.000923101
0.000945507
0.000969137
0.00099354
0.00101825
0.00104283
0.0010669
0.00109019
0.0011125
0.00113372
0.00115381
0.00117274
0.00119049
0.001207
0.00122184
0.000853711
0.000856603
0.00086071
0.000866057
0.0008726
0.000880282
0.000889055
0.000898842
0.000909531
0.000920989
0.000933067
0.00094561
0.000958463
0.00097148
0.000984523
0.000997464
0.00101015
0.00102229
0.000856708
0.000862757
0.000869974
0.000878356
0.000887783
0.000898097
0.00090913
0.000920701
0.000932618
0.000944704
0.000956799
0.000968772
0.000980519
0.000991962
0.00100305
0.00101374
0.00102398
0.00103353
0.000878716
0.000909431
0.000941911
0.000975486
0.00100915
0.00104199
0.00107332
0.00110266
0.00112971
0.00115439
0.00117673
0.00119684
0.00121489
0.00123106
0.00124555
0.00125852
0.00127015
0.00128064
0.000912067
0.000977857
0.00104205
0.00110238
0.00115731
0.00120636
0.0012497
0.00128774
0.00132103
0.00135013
0.00137557
0.00139784
0.00141736
0.00143449
0.00144954
0.00146278
0.00147446
0.00148488
0.000944393
0.00103883
0.00112328
0.0011969
0.00126034
0.00131493
0.00136192
0.00140237
0.0014372
0.00146721
0.0014931
0.00151546
0.00153479
0.00155153
0.00156603
0.00157861
0.00158954
0.0015991
0.00095295
0.00105481
0.00114458
0.0012222
0.00128864
0.00134532
0.0013935
0.00143435
0.00146895
0.00149829
0.00152319
0.00154433
0.00156232
0.00157764
0.00159069
0.00160182
0.00161131
0.0016194
0.000919954
0.0010159
0.00110707
0.0011863
0.00125314
0.00130903
0.00135553
0.00139415
0.00142627
0.00145303
0.00147535
0.001494
0.00150959
0.00152263
0.00153354
0.00154266
0.00155027
0.00155655
0.000848182
0.000936422
0.00102601
0.00110191
0.00116425
0.00121517
0.00125668
0.00129057
0.0013183
0.00134102
0.00135967
0.00137497
0.00138752
0.00139781
0.00140621
0.00141306
0.00141859
0.00142297
0.00074846
0.00082553
0.000905986
0.000972129
0.00102533
0.00106804
0.00110231
0.00112985
0.00115199
0.00116979
0.00118409
0.00119555
0.00120469
0.00121194
0.00121764
0.00122207
0.00122544
0.00122789
0.00062097
0.000679527
0.000743954
0.000796086
0.000837291
0.000869778
0.000895336
0.000915394
0.000931091
0.000943321
0.000952786
0.000960038
0.000965513
0.000969559
0.000972452
0.000974413
0.000975616
0.00097618
0.000453261
0.000491155
0.00053663
0.000572393
0.000599572
0.000620234
0.000635858
0.000647556
0.000656211
0.000662504
0.000666955
0.000669967
0.00067185
0.000672849
0.000673154
0.000672914
0.00067225
0.00067126
0.000236581
0.000259262
0.000284089
0.000301517
0.000313264
0.000321362
0.000326887
0.000330516
0.000332752
0.00033396
0.000334403
0.000334275
0.000333722
0.000332853
0.000331753
0.000330485
0.000329099
0.000327658
2.72418e-05
3.01752e-05
3.32503e-05
3.54595e-05
3.70805e-05
3.82964e-05
3.92246e-05
3.99471e-05
4.05182e-05
4.09748e-05
4.13435e-05
4.16438e-05
4.18902e-05
4.20937e-05
4.22629e-05
4.24042e-05
4.25225e-05
4.26226e-05
1.09919e-05
3.13069e-05
3.51842e-05
3.76207e-05
3.92175e-05
4.02688e-05
4.09403e-05
4.1334e-05
4.15275e-05
4.16796e-05
4.20611e-05
4.26348e-05
4.34186e-05
4.44484e-05
4.57475e-05
4.72916e-05
4.89517e-05
5.05815e-05
5.20899e-05
5.35512e-05
5.55725e-05
5.79767e-05
6.07026e-05
6.36743e-05
6.67952e-05
6.99662e-05
7.3105e-05
7.61523e-05
7.90698e-05
8.1836e-05
8.44407e-05
8.68813e-05
8.91603e-05
9.12833e-05
9.32577e-05
9.50923e-05
9.67963e-05
9.83791e-05
9.98503e-05
0.000101219
0.000102494
0.000103684
0.000104797
0.000105839
0.000106817
0.000107737
0.000108605
0.000109424
0.000110199
0.000110934
0.000111633
0.000112297
0.00011293
0.000113535
0.000114112
0.000114666
0.000115196
0.000115705
0.000116195
0.000116666
0.000117122
0.000117562
0.000117989
0.000118404
0.000118811
0.00011921
0.000119607
0.000120014
0.000120421
0.000120819
0.000121211
0.000121597
0.000121978
0.000122354
0.000122726
0.000123093
0.000123456
0.000123815
0.000124169
0.000124518
0.000124861
0.000125199
0.00012553
0.000125854
0.000126168
0.000126474
0.000126767
0.000127048
0.000127314
0.000127562
0.000127791
0.000127998
0.000128179
0.000128331
0.00012845
0.000128532
0.000128571
0.000128563
0.000128503
0.000128384
0.000128199
0.000127943
0.000127608
0.000127187
0.000126672
0.000126057
0.00012533
0.000124472
0.000123429
0.000122643
0.000122433
0.000122228
0.000121937
0.000121539
0.000121032
0.000120415
0.00011969
0.000118861
0.000117934
0.000116914
0.000115809
0.000114623
0.000113366
0.000112043
0.000110663
0.00010923
0.000107752
0.000106234
0.000104682
0.000103099
0.00010149
9.98576e-05
9.8204e-05
9.65316e-05
9.48462e-05
9.31406e-05
9.13531e-05
8.95557e-05
8.77479e-05
8.59112e-05
8.40377e-05
8.21247e-05
8.01725e-05
7.81833e-05
7.6161e-05
7.41105e-05
7.20379e-05
6.99501e-05
6.78545e-05
6.5759e-05
6.3672e-05
6.16034e-05
5.95651e-05
5.75726e-05
5.56446e-05
5.38036e-05
5.20737e-05
5.04799e-05
4.90461e-05
4.78798e-05
4.69318e-05
4.61541e-05
4.55134e-05
4.49845e-05
4.45466e-05
4.41822e-05
4.38762e-05
4.36161e-05
4.33913e-05
4.31927e-05
4.30126e-05
4.2844e-05
4.26804e-05
4.2515e-05
4.234e-05
4.21451e-05
4.19175e-05
4.16291e-05
4.12684e-05
4.06504e-05
1.59632e-05
6.21092e-05
0.000115437
0.00016072
0.000195022
0.000219329
0.000235775
0.000246609
0.000253788
0.000257963
0.000258158
0.000257821
0.000258738
0.00026142
0.000265479
0.000270188
0.000275145
0.000279623
0.000283461
0.000286812
0.000290005
0.00029363
0.000298278
0.000304386
0.000312264
0.000322098
0.000333965
0.000347846
0.000363632
0.000381134
0.000400095
0.000420206
0.000441124
0.000462497
0.000483989
0.000505293
0.00052615
0.000546355
0.000565758
0.000584261
0.000601812
0.000618395
0.000634026
0.000648739
0.000662583
0.000675615
0.000687897
0.00069949
0.000710456
0.000720852
0.000730732
0.000740147
0.000749145
0.000757767
0.000766054
0.00077404
0.000781757
0.000789234
0.000796493
0.000803555
0.000810432
0.000817133
0.000823656
0.000829992
0.00083612
0.000842007
0.000847612
0.000852696
0.000857652
0.000862636
0.000867681
0.000872808
0.000878036
0.00088338
0.000888859
0.000894487
0.00090028
0.000906251
0.000912413
0.000918778
0.000925357
0.000932156
0.000939184
0.000946444
0.000953938
0.000961667
0.000969625
0.000977807
0.000986201
0.00099479
0.00100356
0.00101247
0.0010215
0.00103061
0.00103976
0.00104888
0.00105792
0.0010668
0.00107544
0.00108375
0.00109164
0.00109898
0.00110565
0.00111151
0.00111638
0.00112004
0.00112212
0.00112193
0.00111806
0.00110986
0.0010991
0.00108651
0.00107233
0.00105665
0.00103955
0.00102109
0.00100139
0.00098054
0.000958659
0.000935874
0.000912316
0.000888118
0.000863414
0.000838335
0.000813006
0.000787543
0.000762057
0.000736647
0.0007114
0.000686393
0.000661693
0.000637353
0.000613416
0.000589915
0.000566869
0.000544191
0.000521206
0.000496076
0.000471133
0.000446979
0.000423882
0.000401957
0.000381246
0.000361745
0.000343413
0.000326175
0.000309918
0.000294498
0.000279743
0.00026547
0.000251503
0.00023769
0.00022393
0.00021018
0.000196469
0.000182897
0.000169616
0.000156821
0.000144726
0.000133549
0.000123453
0.000114528
0.000106794
0.000100213
9.47039e-05
9.01566e-05
8.64467e-05
8.34467e-05
8.10341e-05
7.90969e-05
7.75351e-05
7.62616e-05
7.52007e-05
7.42857e-05
7.34546e-05
7.26494e-05
7.17957e-05
7.08723e-05
6.95785e-05
6.89537e-05
1.92946e-05
9.25575e-05
0.000181313
0.000254256
0.00030818
0.000345561
0.000369886
0.000384632
0.00039238
0.000394544
0.000394444
0.000394558
0.000396282
0.000400071
0.000405668
0.000412503
0.000420063
0.000428052
0.000436637
0.000446374
0.000458061
0.000472593
0.000490771
0.00051318
0.000540141
0.000571693
0.000607607
0.00064742
0.000690481
0.00073601
0.000783173
0.000831141
0.00087915
0.000926535
0.00097276
0.00101742
0.00106023
0.00110102
0.00113971
0.00117629
0.00121081
0.00124334
0.00127398
0.00130285
0.00133007
0.00135575
0.00138002
0.00140297
0.00142471
0.00144532
0.0014649
0.00148352
0.00150124
0.00151814
0.00153426
0.00154965
0.00156436
0.00157844
0.00159191
0.0016048
0.00161715
0.00162897
0.00164028
0.00165109
0.00166142
0.00167129
0.00168074
0.00168971
0.00169848
0.00170713
0.00171573
0.00172431
0.0017329
0.00174154
0.00175025
0.00175906
0.00176802
0.00177713
0.00178642
0.00179593
0.00180566
0.00181563
0.00182586
0.00183636
0.00184713
0.00185817
0.00186948
0.00188105
0.00189285
0.00190486
0.00191705
0.00192937
0.00194176
0.00195417
0.0019665
0.00197866
0.00199055
0.00200204
0.00201299
0.00202324
0.00203262
0.00204092
0.00204794
0.00205342
0.00205709
0.00205859
0.00205747
0.00205305
0.00204459
0.0020319
0.00201572
0.00199655
0.00197459
0.00194996
0.00192277
0.00189314
0.00186122
0.00182717
0.00179117
0.00175344
0.00171419
0.00167363
0.001632
0.0015895
0.00154636
0.00150277
0.00145892
0.00141499
0.00137111
0.00132743
0.00128407
0.00124111
0.00119863
0.00115668
0.00111528
0.00107434
0.00103346
0.00099171
0.000948559
0.000905223
0.000862074
0.000819411
0.000777465
0.000736419
0.000696414
0.000657558
0.000619917
0.000583519
0.000548349
0.000514359
0.000481481
0.000449642
0.000418792
0.000388921
0.000360075
0.000332362
0.000305945
0.000281031
0.000257845
0.000236608
0.000217492
0.000200594
0.000185925
0.000173419
0.000162944
0.000154317
0.000147324
0.000141735
0.000137319
0.000133853
0.000131129
0.000128957
0.00012716
0.000125573
0.000124031
0.000122358
0.000120314
0.000117651
0.00011363
0.000108312
2.1753e-05
0.000131266
0.000251232
0.000340518
0.00040222
0.000442581
0.000467397
0.000481323
0.000487942
0.000490929
0.000493028
0.00049604
0.000500901
0.000507882
0.000516869
0.000527682
0.000540325
0.000555122
0.000572742
0.000594081
0.000620083
0.000651554
0.000689001
0.000732562
0.000781992
0.000836709
0.000895877
0.000958499
0.00102351
0.00108987
0.0011566
0.00122288
0.00128801
0.00135145
0.00141279
0.00147175
0.00152818
0.001582
0.00163319
0.00168179
0.00172789
0.00177159
0.00181299
0.00185223
0.00188942
0.00192469
0.00195814
0.0019899
0.00202005
0.0020487
0.00207592
0.0021018
0.00212641
0.0021498
0.00217205
0.00219321
0.00221332
0.00223243
0.00225059
0.00226784
0.00228421
0.00229974
0.00231448
0.00232845
0.00234171
0.00235429
0.00236626
0.00237765
0.00238862
0.00239925
0.0024096
0.00241973
0.00242968
0.00243948
0.00244918
0.00245881
0.00246842
0.00247803
0.00248768
0.0024974
0.00250722
0.00251717
0.00252725
0.00253749
0.00254789
0.00255847
0.00256922
0.00258013
0.00259119
0.00260236
0.00261362
0.00262492
0.00263619
0.00264737
0.00265836
0.00266906
0.00267935
0.0026891
0.00269813
0.00270627
0.00271332
0.00271905
0.00272322
0.00272555
0.00272574
0.00272344
0.00271821
0.00270967
0.0026974
0.00268132
0.00266165
0.00263857
0.00261222
0.00258268
0.00255006
0.00251449
0.00247613
0.00243517
0.00239181
0.00234629
0.00229885
0.00224975
0.00219925
0.0021476
0.00209504
0.00204181
0.00198811
0.00193416
0.00188012
0.00182615
0.00177239
0.00171893
0.00166586
0.00161324
0.00156107
0.00150931
0.00145774
0.0014059
0.00135313
0.00129975
0.00124601
0.00119212
0.00113828
0.00108468
0.00103149
0.000978857
0.000926934
0.000875839
0.000825674
0.000776522
0.000728453
0.000681535
0.000635853
0.00059152
0.000548696
0.000507588
0.000468451
0.000431573
0.000397251
0.000365766
0.000337341
0.000312113
0.000290119
0.000271292
0.000255475
0.000242432
0.000231873
0.000223475
0.000216902
0.000211823
0.000207923
0.000204909
0.000202511
0.000200475
0.000198552
0.000196478
0.000193915
0.000190451
0.000185163
0.000177433
2.38286e-05
0.000166055
0.000309281
0.000411927
0.000480796
0.000524876
0.000551231
0.000565648
0.000573264
0.000577908
0.000582231
0.000587872
0.000595719
0.000606198
0.00061956
0.000636111
0.000656344
0.000680954
0.000710761
0.000746554
0.000788919
0.000838113
0.000894004
0.000956088
0.00102357
0.00109544
0.00117063
0.00124803
0.0013266
0.00140542
0.0014837
0.00156077
0.00163611
0.00170932
0.00178013
0.00184834
0.00191383
0.00197657
0.00203654
0.00209379
0.00214839
0.00220041
0.00224995
0.00229712
0.00234202
0.00238474
0.0024254
0.00246409
0.00250089
0.00253589
0.00256917
0.00260081
0.00263087
0.00265941
0.00268649
0.00271217
0.0027365
0.00275953
0.0027813
0.00280187
0.00282127
0.00283956
0.00285677
0.00287296
0.00288818
0.00290248
0.00291592
0.00292854
0.00294046
0.00295177
0.00296255
0.00297283
0.00298268
0.00299213
0.00300124
0.00301004
0.00301858
0.00302691
0.00303505
0.00304305
0.00305095
0.00305876
0.00306653
0.00307426
0.00308199
0.00308973
0.00309748
0.00310524
0.00311301
0.00312076
0.00312849
0.00313614
0.00314367
0.00315101
0.00315809
0.00316482
0.00317108
0.00317673
0.00318164
0.00318562
0.00318849
0.00319001
0.00318995
0.00318805
0.00318401
0.00317751
0.00316827
0.00315597
0.00314035
0.00312129
0.00309882
0.00307297
0.00304378
0.00301133
0.00297569
0.00293699
0.00289539
0.00285106
0.00280422
0.00275511
0.00270396
0.00265105
0.00259662
0.00254094
0.00248424
0.00242678
0.00236875
0.00231036
0.00225178
0.00219315
0.00213462
0.00207627
0.00201818
0.00196039
0.00190291
0.0018457
0.00178861
0.00173138
0.00167353
0.00161495
0.00155571
0.00149592
0.00143569
0.00137515
0.00131443
0.00125366
0.00119298
0.00113254
0.00107248
0.00101296
0.000954126
0.000896155
0.000839242
0.000783622
0.000729578
0.000677442
0.000627594
0.000580443
0.000536402
0.000495855
0.00045912
0.000426413
0.000397826
0.000373323
0.000352742
0.000335811
0.000322174
0.000311417
0.000303099
0.000296779
0.000292035
0.000288477
0.000285753
0.00028354
0.000281534
0.000279428
0.000276857
0.000273374
0.000268148
0.000260522
2.54304e-05
0.000193605
0.00035793
0.000473331
0.000550066
0.000598526
0.000627537
0.0006442
0.000653949
0.000660803
0.000667558
0.000676027
0.000687349
0.000702277
0.000721427
0.000745425
0.000774949
0.000810679
0.000853185
0.000902807
0.000959564
0.00102313
0.00109286
0.00116789
0.00124721
0.00132977
0.00141452
0.00150052
0.00158691
0.00167294
0.001758
0.00184158
0.00192329
0.00200282
0.00207994
0.0021545
0.0022264
0.00229559
0.00236206
0.00242582
0.0024869
0.00254537
0.00260128
0.00265472
0.00270576
0.00275448
0.00280096
0.00284527
0.0028875
0.00292771
0.00296597
0.00300235
0.0030369
0.00306968
0.00310075
0.00313015
0.00315794
0.00318416
0.00320886
0.00323208
0.00325387
0.00327427
0.00329333
0.00331109
0.0033276
0.00334292
0.00335708
0.00337012
0.00338218
0.00339333
0.00340364
0.00341317
0.00342196
0.00343008
0.00343757
0.00344447
0.00345084
0.00345672
0.00346215
0.00346718
0.00347184
0.00347619
0.00348025
0.00348405
0.00348762
0.003491
0.00349419
0.00349722
0.00350009
0.0035028
0.00350534
0.00350769
0.00350983
0.00351171
0.00351328
0.00351447
0.00351519
0.00351533
0.00351477
0.00351335
0.00351093
0.00350727
0.0035022
0.00349543
0.0034868
0.003476
0.00346277
0.00344686
0.00342807
0.00340628
0.0033814
0.00335341
0.00332232
0.00328816
0.00325098
0.00321091
0.00316806
0.00312262
0.00307479
0.00302477
0.00297281
0.00291915
0.00286403
0.00280768
0.00275034
0.00269223
0.00263353
0.00257444
0.00251509
0.00245563
0.00239616
0.00233677
0.00227749
0.00221836
0.00215937
0.00210046
0.00204151
0.00198233
0.00192259
0.00186195
0.00180043
0.00173802
0.00167477
0.00161074
0.00154599
0.00148061
0.00141472
0.00134844
0.00128194
0.0012154
0.00114901
0.00108302
0.0010177
0.000953397
0.0008905
0.000829464
0.000770794
0.00071503
0.000662715
0.000614357
0.000570388
0.000531125
0.00049674
0.000467251
0.000442513
0.000422242
0.000406027
0.000393377
0.000383749
0.000376589
0.000371367
0.000367594
0.000364835
0.000362709
0.000360874
0.000359005
0.000356755
0.000353713
0.000349235
0.000342862
2.65299e-05
0.000215876
0.000397333
0.000523986
0.000607937
0.000661897
0.00069548
0.000716064
0.000729309
0.000739454
0.000749563
0.000761764
0.00077753
0.000797926
0.00082379
0.000855831
0.000894636
0.00094061
0.000993916
0.00105442
0.00112171
0.00119509
0.00127371
0.00135661
0.00144282
0.00153138
0.00162142
0.00171214
0.00180286
0.001893
0.00198207
0.00206965
0.00215543
0.00223916
0.00232063
0.00239971
0.00247628
0.00255028
0.00262168
0.00269046
0.00275664
0.00282022
0.00288126
0.0029398
0.00299587
0.00304955
0.00310088
0.00314992
0.00319673
0.00324136
0.00328386
0.0033243
0.0033627
0.00339914
0.00343364
0.00346625
0.00349701
0.00352597
0.00355315
0.00357861
0.00360237
0.00362449
0.00364498
0.0036639
0.00368129
0.00369717
0.00371159
0.0037246
0.00373629
0.00374676
0.00375608
0.00376429
0.00377146
0.00377765
0.00378289
0.00378723
0.00379074
0.00379346
0.00379543
0.0037967
0.00379733
0.00379736
0.00379682
0.00379577
0.00379425
0.00379229
0.00378992
0.00378718
0.00378409
0.00378068
0.00377695
0.00377291
0.00376856
0.00376388
0.00375886
0.00375345
0.00374759
0.00374124
0.00373428
0.0037266
0.00371811
0.00370858
0.00369793
0.00368596
0.00367243
0.00365712
0.00363981
0.0036203
0.00359841
0.003574
0.00354699
0.0035173
0.00348492
0.00344986
0.00341216
0.0033719
0.00332921
0.00328422
0.00323712
0.00318809
0.00313734
0.00308508
0.00303153
0.00297689
0.00292136
0.00286512
0.00280835
0.00275119
0.00269376
0.00263617
0.00257849
0.00252078
0.00246305
0.00240532
0.00234753
0.00228961
0.00223146
0.00217288
0.0021136
0.00205322
0.00199168
0.00192896
0.001865
0.00179982
0.00173342
0.00166583
0.00159714
0.00152746
0.00145692
0.00138571
0.00131407
0.00124228
0.00117069
0.0010997
0.00102982
0.000961598
0.000895668
0.000832694
0.000773348
0.000718265
0.000667999
0.000622975
0.000583458
0.000549533
0.000521093
0.000497856
0.000479386
0.000465125
0.000454444
0.000446686
0.000441211
0.000437429
0.000434822
0.000432948
0.00043143
0.000429936
0.000428143
0.000425703
0.000422144
0.000417214
2.71429e-05
0.000231207
0.000424686
0.000560723
0.000652682
0.000713548
0.000753225
0.000779262
0.000797457
0.000812231
0.000826892
0.000843859
0.000864878
0.000891215
0.000923785
0.000963223
0.0010099
0.00106392
0.00112511
0.00119301
0.00126698
0.00134622
0.00142985
0.00151696
0.00160669
0.00169823
0.00179085
0.0018839
0.00197683
0.00206916
0.00216049
0.00225047
0.00233883
0.00242534
0.00250982
0.00259212
0.00267213
0.00274976
0.00282495
0.00289768
0.00296791
0.00303564
0.00310087
0.00316362
0.00322392
0.00328179
0.00333725
0.00339036
0.00344113
0.00348962
0.00353585
0.00357986
0.00362169
0.00366137
0.00369894
0.00373442
0.00376784
0.00379924
0.00382864
0.00385607
0.00388157
0.00390515
0.00392684
0.00394668
0.0039647
0.00398093
0.00399534
0.00400803
0.0040191
0.00402862
0.00403666
0.00404327
0.00404851
0.00405243
0.00405508
0.00405651
0.00405677
0.00405592
0.004054
0.00405106
0.00404717
0.00404237
0.00403671
0.00403025
0.00402304
0.00401513
0.00400657
0.0039974
0.00398767
0.00397743
0.00396671
0.00395555
0.00394396
0.00393197
0.00391961
0.00390687
0.00389371
0.00388015
0.00386614
0.00385153
0.00383641
0.00382062
0.00380401
0.00378643
0.00376772
0.00374768
0.00372615
0.00370296
0.00367796
0.00365103
0.00362206
0.00359098
0.00355776
0.00352239
0.00348489
0.00344532
0.00340378
0.00336039
0.00331528
0.00326862
0.00322056
0.00317129
0.00312097
0.00306978
0.00301786
0.00296537
0.00291242
0.00285913
0.00280559
0.00275186
0.00269797
0.00264396
0.0025898
0.00253546
0.00248089
0.00242596
0.00237056
0.00231448
0.00225747
0.0021991
0.00213929
0.00207795
0.00201501
0.0019504
0.00188408
0.00181604
0.00174632
0.00167499
0.00160218
0.00152807
0.00145291
0.00137702
0.00130078
0.00122468
0.0011493
0.00107529
0.00100339
0.000934389
0.000869072
0.000808201
0.00075245
0.000702354
0.000658274
0.000620369
0.000588582
0.000562652
0.000542129
0.000526414
0.000514807
0.000506561
0.000500933
0.000497238
0.000494871
0.000493327
0.000492191
0.00049112
0.000489814
0.000487981
0.000485282
0.000481613
2.77344e-05
0.000236264
0.000438998
0.000584063
0.00068426
0.000752732
0.000799504
0.000832161
0.000856529
0.000877102
0.000897326
0.00091979
0.000946402
0.000978514
0.00101703
0.00106248
0.00111505
0.00117462
0.00124083
0.0013131
0.00139071
0.00147288
0.00155878
0.00164763
0.00173867
0.00183123
0.00192469
0.00201852
0.00211226
0.0022055
0.0022979
0.00238916
0.00247904
0.00256731
0.0026538
0.00273836
0.00282087
0.00290122
0.00297934
0.00305516
0.00312863
0.00319973
0.00326842
0.00333471
0.00339857
0.00346002
0.00351907
0.00357571
0.00362998
0.00368189
0.00373145
0.00377868
0.0038236
0.00386624
0.0039066
0.00394471
0.00398058
0.00401422
0.00404567
0.00407492
0.00410199
0.0041269
0.00414966
0.0041703
0.00418883
0.00420527
0.00421958
0.00423186
0.00424219
0.00425065
0.0042573
0.00426219
0.00426537
0.00426689
0.00426681
0.00426516
0.00426201
0.0042574
0.00425138
0.00424402
0.00423537
0.00422548
0.00421442
0.00420226
0.00418905
0.00417485
0.00415973
0.00414375
0.00412698
0.00410949
0.00409135
0.00407261
0.00405332
0.00403354
0.00401336
0.00399282
0.00397185
0.00395061
0.00392915
0.00390738
0.0038853
0.00386283
0.00383991
0.00381644
0.00379229
0.00376734
0.00374146
0.00371453
0.00368642
0.00365702
0.00362624
0.00359401
0.00356027
0.00352503
0.00348827
0.00345005
0.00341042
0.00336947
0.0033273
0.00328402
0.00323977
0.00319465
0.00314881
0.00310235
0.00305539
0.00300801
0.00296031
0.00291233
0.00286413
0.00281573
0.00276713
0.00271831
0.00266922
0.0026198
0.00256993
0.00251949
0.00246832
0.0024162
0.00236282
0.00230783
0.00225109
0.00219247
0.00213187
0.00206915
0.00200424
0.00193708
0.00186766
0.00179604
0.00172232
0.00164666
0.00156933
0.00149066
0.00141108
0.00133113
0.00125146
0.00117282
0.00109603
0.00102199
0.000951612
0.000885766
0.000825241
0.000770681
0.00072254
0.000681055
0.000646227
0.000617822
0.000595395
0.000578322
0.000565848
0.000557151
0.0005514
0.000547818
0.000545717
0.000544526
0.000543788
0.000543146
0.000542312
0.000541038
0.000539079
0.000536424
2.8179e-05
0.000234899
0.000443087
0.000595494
0.000703365
0.00077952
0.000833846
0.00087381
0.000905136
0.000932266
0.000958646
0.000986907
0.001019
0.00105629
0.00109966
0.00114955
0.00120606
0.00126898
0.00133789
0.00141219
0.00149121
0.00157424
0.00166054
0.00174944
0.0018403
0.00193255
0.00202567
0.00211921
0.00221276
0.00230599
0.00239858
0.00249028
0.00258084
0.00267006
0.00275778
0.00284382
0.00292807
0.00301039
0.0030907
0.00316891
0.00324496
0.00331877
0.0033903
0.00345953
0.00352641
0.00359093
0.00365307
0.00371282
0.00377018
0.00382513
0.00387768
0.00392783
0.00397558
0.00402092
0.00406387
0.00410442
0.00414257
0.00417832
0.00421168
0.00424264
0.0042712
0.00429737
0.00432114
0.00434252
0.00436151
0.00437811
0.00439229
0.00440415
0.00441374
0.00442113
0.00442639
0.00442955
0.00443067
0.00442979
0.00442696
0.00442223
0.00441564
0.00440725
0.00439711
0.00438528
0.00437181
0.00435676
0.00434022
0.00432226
0.00430294
0.00428235
0.00426055
0.00423761
0.00421362
0.0041887
0.00416295
0.00413646
0.00410927
0.00408141
0.00405321
0.00402468
0.00399586
0.00396686
0.00393773
0.00390851
0.00387923
0.00384989
0.00382047
0.00379094
0.00376123
0.00373129
0.00370103
0.00367035
0.00363917
0.0036074
0.00357496
0.00354179
0.00350784
0.00347308
0.0034375
0.00340112
0.00336397
0.00332609
0.00328755
0.00324841
0.00320875
0.00316864
0.00312815
0.00308735
0.00304629
0.00300501
0.00296355
0.00292191
0.00288011
0.0028381
0.00279586
0.00275332
0.0027104
0.00266699
0.00262294
0.0025781
0.00253226
0.00248519
0.00243651
0.00238595
0.00233333
0.00227848
0.00222124
0.00216145
0.00209899
0.00203375
0.00196569
0.00189483
0.00182126
0.00174513
0.00166669
0.00158631
0.00150444
0.00142167
0.00133872
0.0012564
0.00117563
0.00109741
0.00102275
0.000952638
0.000887966
0.000829481
0.000777731
0.000733029
0.000695433
0.000664751
0.000640547
0.000622186
0.000608875
0.000599732
0.000593851
0.00059037
0.000588525
0.000587679
0.000587331
0.000587102
0.000586709
0.000585935
0.000584599
0.000582744
2.83014e-05
0.000229237
0.000439015
0.00059664
0.000711161
0.00079461
0.000856478
0.000903955
0.000942546
0.000976524
0.00100922
0.0010432
0.00108037
0.00112209
0.00116919
0.00122211
0.00128093
0.00134547
0.00141531
0.00148995
0.00156879
0.00165121
0.00173659
0.00182436
0.00191397
0.00200494
0.00209683
0.00218925
0.00228186
0.00237433
0.0024664
0.00255782
0.00264838
0.00273787
0.00282613
0.00291299
0.0029983
0.00308194
0.00316381
0.00324378
0.00332178
0.00339772
0.00347154
0.00354318
0.00361257
0.00367969
0.00374448
0.00380693
0.00386699
0.00392464
0.00397987
0.00403265
0.00408296
0.00413079
0.00417612
0.00421893
0.00425921
0.00429694
0.00433211
0.00436469
0.00439467
0.00442204
0.00444678
0.00446888
0.00448831
0.00450507
0.00451914
0.00453059
0.00453948
0.00454587
0.00454979
0.0045513
0.00455044
0.00454724
0.00454175
0.00453402
0.00452409
0.00451201
0.00449783
0.00448162
0.00446342
0.00444331
0.00442136
0.00439767
0.00437233
0.00434541
0.004317
0.00428719
0.00425601
0.00422368
0.00419039
0.00415621
0.00412124
0.0040856
0.00404949
0.00401302
0.00397632
0.00393952
0.00390272
0.00386605
0.00382957
0.00379336
0.00375747
0.00372193
0.00368673
0.00365187
0.00361732
0.00358303
0.00354894
0.00351499
0.00348112
0.00344727
0.0034134
0.00337946
0.00334544
0.0033113
0.00327706
0.00324271
0.00320828
0.00317379
0.00313925
0.00310469
0.00307012
0.00303555
0.00300099
0.00296643
0.00293184
0.00289719
0.00286244
0.00282752
0.00279234
0.0027568
0.00272079
0.00268414
0.00264669
0.00260822
0.0025685
0.00252728
0.0024841
0.00243877
0.00239108
0.00234081
0.00228774
0.00223169
0.00217248
0.00210998
0.0020441
0.00197485
0.00190227
0.00182651
0.00174783
0.0016666
0.0015833
0.00149856
0.00141315
0.00132796
0.00124399
0.00116232
0.00108406
0.0010103
0.000942042
0.000880118
0.000825168
0.000777582
0.000737477
0.0007047
0.000678839
0.000659254
0.000645127
0.00063553
0.000629494
0.000626086
0.000624468
0.000623941
0.000623958
0.000624116
0.000624128
0.000623798
0.000622988
0.000621768
2.81456e-05
0.000220454
0.000428443
0.000589132
0.000709055
0.000799095
0.000868122
0.000922916
0.000968664
0.00100939
0.00104823
0.0010876
0.00112932
0.00117471
0.00122459
0.00127942
0.00133934
0.0014042
0.00147373
0.00154748
0.00162499
0.00170573
0.00178922
0.00187496
0.0019625
0.00205143
0.00214137
0.00223198
0.00232295
0.00241402
0.00250492
0.00259544
0.00268536
0.00277449
0.00286265
0.00294969
0.00303546
0.00311981
0.00320261
0.00328376
0.00336314
0.00344065
0.00351622
0.00358974
0.00366116
0.00373041
0.00379742
0.00386214
0.00392453
0.00398453
0.00404211
0.00409722
0.00414983
0.0041999
0.0042474
0.00429229
0.00433453
0.0043741
0.00441095