/*--------------------------------*- C++ -*----------------------------------*\
| =========                 |                                                 |
| \\      /  F ield         | OpenFOAM: The Open Source CFD Toolbox           |
|  \\    /   O peration     | Version:  2412                                  |
|   \\  /    A nd           | Website:  www.openfoam.com                      |
|    \\/     M anipulation  |                                                 |
\*---------------------------------------------------------------------------*/
FoamFile
{
    version     2.0;
    format      ascii;
    arch        "LSB;label=32;scalar=64";
    class       volScalarField;
    location    "0.04";
    object      p;
}
// * * * * * * * * * * * * * * * * * * * * * * * * * * * * * * * * * * * * * //

dimensions      [0 2 -2 0 0 0 0];

internalField   nonuniform List<scalar> 
12225
(
-10.3822
-9.79023
-9.12751
-8.57039
-8.05981
-7.60084
-7.19865
-6.84286
-6.52457
-6.23818
-5.97878
-5.74186
-5.52355
-5.32048
-5.12961
-4.94763
-4.77293
-4.59512
-10.816
-9.8483
-9.16205
-8.61093
-8.09952
-7.64034
-7.23735
-6.88
-6.55991
-6.27166
-6.01035
-5.77151
-5.55129
-5.34631
-5.15349
-4.96953
-4.7918
-4.61628
-10.9964
-9.88243
-9.20345
-8.66123
-8.14912
-7.69059
-7.28751
-6.92888
-6.60702
-6.31675
-6.05326
-5.81214
-5.58962
-5.38233
-5.18718
-5.00094
-4.82036
-4.63851
-11.0202
-9.8981
-9.22788
-8.69472
-8.1851
-7.72921
-7.32779
-6.9695
-6.64727
-6.35618
-6.09155
-5.8491
-5.62515
-5.41643
-5.21989
-5.03257
-4.85058
-4.67135
-10.9503
-9.89292
-9.22811
-8.70527
-8.2025
-7.75135
-7.35331
-6.99705
-6.67595
-6.38538
-6.12084
-5.87821
-5.65396
-5.44497
-5.24833
-5.06154
-4.88066
-4.7094
-10.8089
-9.86013
-9.20482
-8.69443
-8.20314
-7.75904
-7.36601
-7.01331
-6.69466
-6.40577
-6.14237
-5.90058
-5.67704
-5.46885
-5.27335
-5.08858
-4.91094
-4.74936
-10.607
-9.7944
-9.15913
-8.66313
-8.1878
-7.75355
-7.3673
-7.01972
-6.70482
-6.4187
-6.15746
-5.91746
-5.69559
-5.48923
-5.29601
-5.11457
-4.94176
-4.79039
-10.3553
-9.69327
-9.09199
-8.61206
-8.15653
-7.73539
-7.35791
-7.01705
-6.70728
-6.4251
-6.16705
-5.92983
-5.71062
-5.5071
-5.31728
-5.14032
-4.97352
-4.83248
-10.0648
-9.55663
-9.00475
-8.54306
-8.11004
-7.70535
-7.33879
-7.00629
-6.70306
-6.42603
-6.17225
-5.93881
-5.72325
-5.52359
-5.33822
-5.16672
-5.00679
-4.87591
-9.747
-9.38672
-8.89902
-8.45924
-8.0503
-7.665
-7.31152
-6.98892
-6.69359
-6.42292
-6.17447
-5.94583
-5.73491
-5.54009
-5.3601
-5.19489
-5.04239
-4.92126
-9.41417
-9.18859
-8.77674
-8.36446
-7.98056
-7.61691
-7.27854
-6.96721
-6.68095
-6.41773
-6.17562
-5.95272
-5.74734
-5.55823
-5.38443
-5.22614
-5.08129
-4.96957
-9.10721
-8.9879
-8.65204
-8.27121
-7.91118
-7.56891
-7.24611
-6.9462
-6.6691
-6.41352
-6.178
-5.96109
-5.7615
-5.57827
-5.41069
-5.25913
-5.12124
-5.01803
-8.81863
-8.78001
-8.51999
-8.17544
-7.83961
-7.5194
-7.21352
-6.92591
-6.65856
-6.41119
-6.18281
-5.97242
-5.77909
-5.60215
-5.4411
-5.29635
-5.16588
-5.06882
-8.52107
-8.54515
-8.36409
-8.06568
-7.75868
-7.46421
-7.17937
-6.90725
-6.65187
-6.41451
-6.19489
-5.99244
-5.80668
-5.63724
-5.4838
-5.3468
-5.22449
-5.13301
-8.23812
-8.30511
-8.19589
-7.94958
-7.67532
-7.40885
-7.14853
-6.8955
-6.65485
-6.42968
-6.22067
-6.02778
-5.85093
-5.69009
-5.54513
-5.41649
-5.30252
-5.21636
-8.00069
-8.09405
-8.04275
-7.84791
-7.60754
-7.36819
-7.1326
-6.90025
-6.67613
-6.46477
-6.26797
-6.08615
-5.9195
-5.76825
-5.63246
-5.5125
-5.40671
-5.32515
-7.84348
-7.95161
-7.94221
-7.79223
-7.58419
-7.36936
-7.15581
-6.94265
-6.73422
-6.53596
-6.35073
-6.17944
-6.02243
-5.87998
-5.75215
-5.63918
-5.53964
-5.4598
-7.80938
-7.92153
-7.93398
-7.81243
-7.62771
-7.43126
-7.23406
-7.03587
-6.8404
-6.65318
-6.47762
-6.31495
-6.16552
-6.02956
-5.90704
-5.79785
-5.70103
-5.61812
-7.96172
-8.06901
-8.07626
-7.95116
-7.76498
-7.56878
-7.37325
-7.17784
-6.98602
-6.80304
-6.63204
-6.47393
-6.32877
-6.19648
-6.07679
-5.96914
-5.87333
-5.7865
-8.28368
-8.37844
-8.34661
-8.17766
-7.95938
-7.7406
-7.52688
-7.31701
-7.11498
-6.92535
-6.75001
-6.58903
-6.44195
-6.30816
-6.18693
-6.07707
-5.97818
-5.88441
-8.70619
-8.76457
-8.66391
-8.43237
-8.17167
-7.92104
-7.68006
-7.44828
-7.23007
-7.02856
-6.84417
-6.67623
-6.52383
-6.38603
-6.26181
-6.14991
-6.04992
-5.95585
-9.22563
-9.20567
-8.99923
-8.69236
-8.38395
-8.09433
-7.81988
-7.56252
-7.32573
-7.11029
-6.91516
-6.73895
-6.58025
-6.43763
-6.30969
-6.19495
-6.09261
-5.99684
-9.80149
-9.64627
-9.30406
-8.92388
-8.57065
-8.2413
-7.93438
-7.65378
-7.4002
-7.17187
-6.96671
-6.78274
-6.61803
-6.4707
-6.33903
-6.22136
-6.11661
-6.01955
-10.3729
-10.0273
-9.54563
-9.11019
-8.71933
-8.35372
-8.01918
-7.71938
-7.45145
-7.21187
-6.99797
-6.80726
-6.63728
-6.48579
-6.3508
-6.23049
-6.12354
-6.02541
-10.8808
-10.3126
-9.71812
-9.24833
-8.82454
-8.42774
-8.07161
-7.75684
-7.47743
-7.22895
-7.00826
-6.81235
-6.63833
-6.48366
-6.34615
-6.22384
-6.11523
-6.01647
-11.2843
-10.492
-9.82646
-9.33607
-8.88349
-8.46303
-8.0918
-7.76627
-7.47854
-7.22376
-6.99836
-6.79888
-6.62213
-6.46536
-6.32621
-6.20261
-6.09297
-5.99401
-11.5565
-10.5763
-9.87721
-9.37201
-8.89795
-8.4624
-8.08144
-7.74874
-7.45565
-7.19697
-6.96876
-6.76725
-6.58904
-6.43122
-6.29133
-6.16722
-6.05722
-5.95861
-11.6639
-10.5918
-9.87779
-9.35595
-8.8696
-8.42624
-8.03944
-7.7027
-7.40704
-7.14677
-6.91766
-6.71574
-6.53746
-6.37979
-6.24021
-6.1165
-6.00692
-5.90934
-11.5312
-10.5619
-9.84239
-9.29764
-8.80609
-8.36012
-7.9707
-7.63286
-7.33727
-7.07766
-6.84954
-6.64883
-6.47188
-6.31558
-6.17735
-6.05496
-5.94658
-5.85039
-11.0001
-10.4694
-9.79945
-9.24015
-8.74663
-8.30021
-7.91013
-7.5727
-7.27826
-7.02001
-6.79333
-6.5941
-6.4186
-6.2637
-6.1268
-6.00566
-5.89835
-5.80298
-5.48508
-5.47757
-5.48272
-5.50113
-5.52778
-5.55834
-5.5896
-5.61886
-5.64397
-5.66393
-5.67985
-5.69288
-5.70418
-5.71489
-5.72613
-5.739
-5.75452
-5.77352
-5.79678
-5.82523
-5.85997
-5.90269
-5.95514
-6.01952
-6.09809
-6.19289
-6.30527
-6.43561
-6.58317
-6.74608
-6.92158
-7.10628
-7.29651
-7.48866
-7.67939
-7.86586
-8.04575
-8.21734
-8.37943
-8.53126
-8.67249
-8.803
-8.92291
-9.03246
-9.13195
-9.22172
-9.3021
-9.37339
-9.43588
-9.48977
-9.53525
-9.57243
-9.60138
-9.62212
-9.63463
-9.63883
-9.63461
-9.62182
-9.60027
-9.56974
-9.52998
-9.48073
-9.42173
-9.35277
-9.27368
-9.18405
-9.08311
-8.97022
-8.84381
-8.70391
-8.55019
-8.3822
-8.19936
-8.00109
-7.78675
-7.55569
-7.30728
-7.04087
-6.75582
-6.45152
-6.12739
-5.78288
-5.4175
-5.03082
-4.62251
-4.19232
-3.74016
-3.26604
-2.77016
-2.25291
-1.71491
-1.15702
-0.580359
0.0136301
0.623195
1.24623
1.88029
2.52252
3.16972
3.81831
4.46437
5.10367
5.73171
6.34377
6.935
7.50047
8.03527
8.53474
8.99504
9.4137
9.78742
10.1124
10.3867
10.6095
10.7806
10.901
10.9723
10.9969
10.978
10.9193
10.8249
10.6996
10.548
10.3749
10.1853
9.98385
9.775
9.56296
9.35156
9.14425
8.94403
8.75349
8.57481
8.40982
8.26007
8.12797
8.01618
7.91455
7.82542
7.74903
7.68576
7.63492
7.59539
7.566
7.54557
7.53296
7.52716
7.52722
7.53228
7.54158
7.55438
7.57
7.58777
7.60708
7.62737
7.6481
7.66883
7.68915
7.70883
7.72751
7.74497
7.76135
7.77676
7.79125
7.80489
7.81783
7.83028
7.84248
7.85475
7.86749
7.88123
7.89664
7.91459
7.9363
7.96346
7.9984
8.04506
8.10734
8.19896
8.30398
-5.51867
-5.51698
-5.52717
-5.54837
-5.57499
-5.60253
-5.6284
-5.65115
-5.66999
-5.68387
-5.69102
-5.69265
-5.69103
-5.68836
-5.68659
-5.68722
-5.69134
-5.6998
-5.71345
-5.73354
-5.76145
-5.79903
-5.84889
-5.91398
-5.99718
-6.10073
-6.22565
-6.37139
-6.53587
-6.71575
-6.90688
-7.10478
-7.30517
-7.50419
-7.69869
-7.88621
-8.06502
-8.23398
-8.39245
-8.54018
-8.67718
-8.80366
-8.9199
-9.02627
-9.12313
-9.21084
-9.28972
-9.36006
-9.42208
-9.47597
-9.52186
-9.55985
-9.58996
-9.61219
-9.62649
-9.63277
-9.63089
-9.62069
-9.60196
-9.57444
-9.53786
-9.49187
-9.4361
-9.37011
-9.29336
-9.20535
-9.1057
-8.99383
-8.87045
-8.73456
-8.58538
-8.42228
-8.24464
-8.05184
-7.84324
-7.61823
-7.37616
-7.11639
-6.83831
-6.54132
-6.22483
-5.88831
-5.53127
-5.15331
-4.75407
-4.33332
-3.89094
-3.42695
-2.94153
-2.43504
-1.90806
-1.3614
-0.79616
-0.213692
0.384321
0.995866
1.61858
2.24975
2.88629
3.52477
4.16141
4.79215
5.41265
6.0184
6.60477
7.16712
7.70089
8.20169
8.66487
9.08535
9.46016
9.78793
10.0669
10.2961
10.4753
10.6054
10.6878
10.7247
10.7192
10.6747
10.5952
10.4851
10.349
10.1915
10.0173
9.83099
9.63685
9.43898
9.24113
9.04665
8.85851
8.67923
8.51096
8.35534
8.2137
8.08659
7.97256
7.87658
7.79425
7.72514
7.66858
7.62357
7.58905
7.56393
7.54708
7.53736
7.53374
7.53527
7.54114
7.55063
7.5631
7.57798
7.59476
7.61296
7.63211
7.65181
7.67166
7.69132
7.71052
7.72888
7.74615
7.76238
7.77763
7.79195
7.80544
7.81822
7.83049
7.84249
7.85454
7.86701
7.88041
7.89538
7.91273
7.93358
7.95948
7.99241
8.0358
8.0922
8.17252
8.25848
-5.53658
-5.54463
-5.55851
-5.5779
-5.59943
-5.62003
-5.63801
-5.65252
-5.66306
-5.66941
-5.67154
-5.67012
-5.66637
-5.66171
-5.6577
-5.65598
-5.65817
-5.66604
-5.68173
-5.70783
-5.74712
-5.80219
-5.875
-5.96674
-6.07763
-6.20688
-6.35274
-6.51272
-6.68379
-6.86272
-7.04631
-7.2316
-7.41595
-7.59716
-7.77345
-7.94344
-8.10611
-8.26074
-8.40688
-8.54428
-8.67285
-8.79259
-8.90362
-9.00607
-9.10013
-9.18596
-9.26373
-9.33361
-9.39572
-9.45014
-9.49696
-9.53619
-9.56783
-9.59184
-9.60814
-9.61662
-9.61713
-9.6095
-9.59352
-9.56893
-9.53548
-9.49285
-9.44071
-9.37866
-9.3062
-9.22282
-9.12815
-9.02175
-8.90345
-8.77267
-8.62883
-8.47133
-8.29957
-8.11293
-7.9108
-7.69256
-7.45757
-7.20522
-6.93489
-6.646
-6.33797
-6.01029
-5.66246
-5.29408
-4.90481
-4.49441
-4.06275
-3.60984
-3.13584
-2.6411
-2.12617
-1.59182
-1.03908
-0.469275
0.115996
0.714797
1.32486
1.94357
2.56797
3.19474
3.82025
4.44059
5.05156
5.64883
6.22791
6.78429
7.31346
7.81088
8.27237
8.69423
9.07347
9.40769
9.6949
9.934
10.1247
10.2676
10.364
10.4161
10.4265
10.3986
10.3363
10.2436
10.1249
9.98486
9.82785
9.6583
9.48046
9.29828
9.11542
8.93516
8.76041
8.59366
8.43696
8.29192
8.15976
8.04129
7.93652
7.84709
7.77041
7.70646
7.65437
7.61324
7.58213
7.55996
7.54563
7.53805
7.53619
7.53912
7.546
7.55614
7.5689
7.58375
7.60023
7.61793
7.63647
7.65549
7.67467
7.69371
7.71232
7.73022
7.74719
7.76323
7.77835
7.79257
7.80596
7.81864
7.83078
7.8426
7.8544
7.86655
7.87952
7.89389
7.91044
7.93013
7.9543
7.98456
8.02345
8.07212
8.13632
8.19459
-5.5073
-5.52634
-5.54474
-5.56408
-5.58277
-5.59952
-5.61358
-5.62449
-5.63209
-5.63651
-5.63833
-5.63843
-5.638
-5.63851
-5.64162
-5.64925
-5.66355
-5.68683
-5.72144
-5.76959
-5.83297
-5.91259
-6.00859
-6.12027
-6.24629
-6.38486
-6.5339
-6.69124
-6.8547
-7.02216
-7.19163
-7.36127
-7.52942
-7.69464
-7.85568
-8.01153
-8.16138
-8.30462
-8.4408
-8.56964
-8.69096
-8.80469
-8.9108
-9.00933
-9.10035
-9.18393
-9.26015
-9.32908
-9.39077
-9.44524
-9.49252
-9.53259
-9.56538
-9.59084
-9.60885
-9.61928
-9.62196
-9.61669
-9.60324
-9.58137
-9.55078
-9.51116
-9.46217
-9.40344
-9.33456
-9.25512
-9.16472
-9.06296
-8.94941
-8.82354
-8.6848
-8.53261
-8.36638
-8.18551
-7.98939
-7.77739
-7.54889
-7.30327
-7.03993
-6.75826
-6.45772
-6.13775
-5.79788
-5.43769
-5.05683
-4.65505
-4.23219
-3.78825
-3.32335
-2.83782
-2.33215
-1.80709
-1.26362
-0.702994
-0.126761
0.463211
1.06473
1.67524
2.29187
2.91139
3.53023
4.14455
4.75025
5.34301
5.91838
6.47179
6.99878
7.49514
7.95698
8.3807
8.76318
9.10176
9.39446
9.64014
9.83846
9.98992
10.0958
10.1581
10.1794
10.1631
10.1128
10.0326
9.92663
9.79941
9.6553
9.49859
9.33342
9.16367
8.99289
8.8243
8.66073
8.50461
8.35793
8.22227
8.0988
7.98816
7.89053
7.80646
7.73536
7.67663
7.62942
7.59285
7.56593
7.54756
7.53666
7.53214
7.53298
7.53824
7.54711
7.55885
7.57287
7.58863
7.60572
7.62374
7.64237
7.6613
7.68026
7.69898
7.71722
7.73475
7.75139
7.76709
7.78186
7.79572
7.80872
7.82098
7.83266
7.84399
7.85524
7.86675
7.87896
7.89238
7.90769
7.92571
7.94751
7.97425
8.00755
8.04727
8.09501
8.13067
-5.41981
-5.44942
-5.47868
-5.5039
-5.52454
-5.54148
-5.55528
-5.56624
-5.57484
-5.58176
-5.58794
-5.59453
-5.60294
-5.6148
-5.63196
-5.65638
-5.69006
-5.73484
-5.79223
-5.86319
-5.94804
-6.04648
-6.15765
-6.28028
-6.41287
-6.55378
-6.70136
-6.85397
-7.01002
-7.168
-7.3265
-7.48422
-7.64
-7.79282
-7.94178
-8.08615
-8.22532
-8.35882
-8.48628
-8.60744
-8.72209
-8.83014
-8.9315
-9.02614
-9.11404
-9.19522
-9.26967
-9.33739
-9.39839
-9.45264
-9.5001
-9.54071
-9.57439
-9.60103
-9.6205
-9.63264
-9.63727
-9.63418
-9.62313
-9.60385
-9.57605
-9.53943
-9.49362
-9.43828
-9.37301
-9.29739
-9.21103
-9.1135
-9.00431
-8.88297
-8.74893
-8.60162
-8.44045
-8.26483
-8.07415
-7.86777
-7.64509
-7.40548
-7.14832
-6.87302
-6.579
-6.26572
-5.93268
-5.57945
-5.20566
-4.81103
-4.3954
-3.95871
-3.50106
-3.02274
-2.5242
-2.00614
-1.46949
-0.915446
-0.345511
0.238508
0.83447
1.43989
2.05193
2.66742
3.28283
3.89434
4.49785
5.08905
5.66339
6.21641
6.7437
7.241
7.70428
8.12995
8.51488
8.85647
9.15282
9.40278
9.60602
9.76301
9.87501
9.944
9.97262
9.96407
9.922
9.85038
9.75344
9.6355
9.50087
9.35378
9.19828
9.03817
8.87693
8.71772
8.56327
8.41597
8.27773
8.15009
8.03414
7.93051
7.83944
7.76123
7.69557
7.64187
7.59937
7.56719
7.54434
7.52976
7.52236
7.52108
7.5249
7.53288
7.54418
7.55807
7.57392
7.59122
7.60951
7.62845
7.64771
7.66702
7.68614
7.70485
7.72293
7.74022
7.75656
7.77192
7.78629
7.7997
7.81222
7.82396
7.83508
7.84579
7.85634
7.86705
7.8783
7.89055
7.90437
7.92041
7.93945
7.96223
7.98951
8.02021
8.05335
8.07184
-5.29332
-5.33497
-5.37843
-5.41269
-5.43799
-5.45784
-5.4742
-5.48828
-5.50121
-5.51423
-5.52866
-5.54594
-5.56762
-5.59529
-5.63058
-5.67501
-5.72987
-5.79612
-5.87426
-5.96427
-6.06569
-6.17763
-6.29896
-6.42835
-6.56442
-6.70578
-6.8511
-6.99912
-7.14866
-7.29865
-7.44809
-7.59608
-7.74183
-7.8846
-8.02378
-8.15883
-8.28929
-8.41478
-8.53501
-8.64973
-8.75875
-8.86194
-8.95919
-9.05042
-9.13558
-9.21461
-9.28747
-9.35412
-9.41451
-9.46857
-9.51622
-9.55738
-9.59192
-9.61973
-9.64064
-9.65447
-9.66103
-9.66009
-9.65141
-9.6347
-9.60968
-9.57602
-9.53338
-9.48139
-9.41966
-9.34779
-9.26533
-9.17186
-9.06689
-8.94992
-8.8204
-8.67777
-8.52144
-8.35082
-8.1653
-7.96424
-7.74702
-7.51302
-7.26161
-6.99219
-6.70417
-6.39699
-6.07014
-5.72317
-5.35568
-4.96737
-4.55804
-4.12762
-3.67616
-3.20391
-2.71128
-2.19892
-1.66771
-1.11881
-0.553654
0.0259895
0.618025
1.22001
1.82915
2.44228
3.0559
3.66619
4.26899
4.85995
5.4346
5.98845
6.51699
7.01588
7.48104
7.90884
8.29615
8.6404
8.93973
9.193
9.3999
9.56093
9.67738
9.75123
9.78514
9.78231
9.74639
9.68134
9.59135
9.48069
9.35364
9.21436
9.06685
8.91482
8.76171
8.61058
8.46413
8.32463
8.19399
8.07364
7.96466
7.86766
7.78293
7.71062
7.65043
7.60185
7.56413
7.53643
7.51776
7.50709
7.50335
7.5055
7.51251
7.52346
7.53748
7.55385
7.57191
7.59113
7.61106
7.63133
7.65163
7.67171
7.69134
7.71033
7.72851
7.74573
7.76191
7.777
7.79101
7.80399
7.81601
7.82719
7.83769
7.8477
7.85746
7.86725
7.87741
7.88832
7.90045
7.91428
7.93033
7.94893
7.97018
7.99236
8.01311
8.01818
-5.15979
-5.2121
-5.26837
-5.3114
-5.34248
-5.36691
-5.38792
-5.40744
-5.42715
-5.44872
-5.47375
-5.50382
-5.54042
-5.58488
-5.63835
-5.70171
-5.77549
-5.85985
-5.95456
-6.05903
-6.17239
-6.29359
-6.42144
-6.55474
-6.69229
-6.83297
-6.97575
-7.11967
-7.26386
-7.40754
-7.55
-7.69061
-7.82877
-7.96397
-8.09575
-8.2237
-8.34749
-8.46681
-8.58141
-8.69107
-8.79564
-8.89497
-8.98893
-9.07744
-9.16041
-9.23776
-9.30941
-9.37529
-9.43531
-9.48938
-9.5374
-9.57925
-9.61479
-9.64387
-9.66631
-9.68192
-9.69049
-9.69178
-9.68553
-9.67146
-9.64926
-9.61861
-9.57916
-9.53054
-9.47236
-9.40419
-9.32562
-9.23618
-9.13539
-9.02274
-8.89768
-8.75966
-8.60809
-8.44236
-8.26186
-8.06596
-7.85403
-7.62543
-7.37953
-7.11572
-6.83338
-6.53195
-6.21091
-5.86976
-5.5081
-5.12559
-4.722
-4.29723
-3.85129
-3.38439
-2.89689
-2.38941
-1.86277
-1.31809
-0.756759
-0.1805
0.408623
1.0082
1.61547
2.22725
2.84005
3.44997
4.05286
4.64443
5.22012
5.77536
6.30555
6.8063
7.27348
7.70343
8.09296
8.43953
8.74126
8.99708
9.20671
9.3707
9.49038
9.5678
9.60565
9.60717
9.57602
9.51619
9.43184
9.32723
9.20659
9.07406
8.93354
8.78872
8.64294
8.49922
8.36016
8.228
8.10455
7.99122
7.88902
7.79856
7.72014
7.65378
7.59923
7.55597
7.52328
7.5003
7.4861
7.47963
7.47985
7.48571
7.49621
7.51042
7.52747
7.54661
7.56719
7.58865
7.61053
7.63245
7.65411
7.67525
7.69566
7.71517
7.73364
7.75097
7.76709
7.78199
7.7957
7.80827
7.8198
7.83041
7.84025
7.84951
7.85842
7.86721
7.87619
7.88566
7.89597
7.90745
7.92038
7.93477
7.9502
7.96461
7.97495
7.96946
-5.04572
-5.10436
-5.1696
-5.21965
-5.25605
-5.28553
-5.31207
-5.33805
-5.36548
-5.39626
-5.43212
-5.47457
-5.52489
-5.58406
-5.65276
-5.73128
-5.81959
-5.91733
-6.02383
-6.13822
-6.2595
-6.38657
-6.51834
-6.65373
-6.79175
-6.93148
-7.07211
-7.21288
-7.35312
-7.49223
-7.62969
-7.765
-7.89773
-8.02749
-8.15393
-8.27675
-8.39568
-8.51048
-8.62095
-8.72691
-8.82821
-8.92472
-9.01631
-9.10289
-9.18435
-9.26061
-9.33156
-9.39711
-9.45715
-9.51158
-9.56026
-9.60306
-9.63982
-9.67038
-9.69454
-9.7121
-9.72283
-9.72649
-9.7228
-9.71148
-9.69221
-9.66467
-9.6285
-9.58332
-9.52873
-9.46433
-9.38967
-9.30429
-9.20771
-9.09939
-8.9788
-8.84538
-8.69853
-8.53766
-8.36213
-8.17131
-7.96457
-7.74125
-7.50071
-7.24233
-6.96548
-6.66958
-6.35408
-6.01847
-5.66232
-5.28525
-4.88702
-4.46746
-4.02659
-3.56454
-3.08165
-2.57847
-2.05581
-1.51473
-0.956582
-0.383034
0.20386
0.801704
1.40775
2.01878
2.63129
3.24143
3.84503
4.43767
5.01475
5.57158
6.10353
6.60613
7.0752
7.50699
7.89832
8.24661
8.55003
8.80756
9.01898
9.18491
9.30676
9.38665
9.42735
9.43215
9.40475
9.34916
9.26955
9.17017
9.05521
8.92875
8.79467
8.65657
8.51774
8.3811
8.24921
8.12422
8.00788
7.90155
7.8062
7.7224
7.65042
7.59026
7.54162
7.50399
7.47666
7.45878
7.4494
7.44749
7.45203
7.46196
7.47628
7.49407
7.51445
7.53667
7.56005
7.58403
7.60814
7.63198
7.65524
7.67767
7.69907
7.7193
7.73823
7.7558
7.77198
7.78677
7.80023
7.81243
7.82348
7.83352
7.84269
7.85118
7.85919
7.86694
7.87467
7.88262
7.89104
7.90011
7.90991
7.92017
7.93015
7.93759
7.93924
7.92542
-4.96594
-5.02614
-5.095
-5.149
-5.18938
-5.22329
-5.25498
-5.28706
-5.32166
-5.36068
-5.4058
-5.4584
-5.51949
-5.58975
-5.66947
-5.75858
-5.8567
-5.96319
-6.07717
-6.19769
-6.32369
-6.45414
-6.58801
-6.72437
-6.86236
-7.00118
-7.14014
-7.27864
-7.41611
-7.55207
-7.68609
-7.81778
-7.94681
-8.07287
-8.19569
-8.31503
-8.43067
-8.54244
-8.65015
-8.75366
-8.85284
-8.94756
-9.03771
-9.12319
-9.20389
-9.27971
-9.35055
-9.41629
-9.47682
-9.53201
-9.58172
-9.62581
-9.66409
-9.6964
-9.72252
-9.74226
-9.75535
-9.76156
-9.7606
-9.75219
-9.73599
-9.71168
-9.6789
-9.63727
-9.58638
-9.52582
-9.45515
-9.37389
-9.28155
-9.17761
-9.06152
-8.93272
-8.7906
-8.63456
-8.46397
-8.27819
-8.07657
-7.85845
-7.62317
-7.3701
-7.09859
-6.80805
-6.49791
-6.16763
-5.81675
-5.44487
-5.0517
-4.63706
-4.20092
-3.74338
-3.26473
-2.76548
-2.24638
-1.70848
-1.1531
-0.581855
0.00319057
0.599639
1.20477
1.81541
2.42801
3.03866
3.64313
4.23692
4.81536
5.37369
5.90717
6.41127
6.88174
7.31479
7.7072
8.05641
8.36065
8.61895
8.83117
8.99805
9.12108
9.20249
9.24513
9.25236
9.22795
9.17591
9.10045
9.00578
8.89607
8.77537
8.64747
8.51592
8.38392
8.25434
8.12964
8.01191
7.90283
7.8037
7.71543
7.63856
7.57334
7.51972
7.47737
7.44578
7.42422
7.41185
7.4077
7.41078
7.42002
7.4344
7.45291
7.47461
7.49865
7.52424
7.55071
7.57747
7.60404
7.63003
7.65511
7.67903
7.70161
7.72272
7.74227
7.7602
7.77653
7.79129
7.80455
7.81642
7.82702
7.8365
7.845
7.85271
7.8598
7.86648
7.87292
7.87932
7.88581
7.89246
7.89917
7.90549
7.91043
7.91172
7.90612
7.88572
-4.92393
-4.98147
-5.04843
-5.10271
-5.14495
-5.18176
-5.21729
-5.25408
-5.2942
-5.33943
-5.39129
-5.45097
-5.51928
-5.59668
-5.68324
-5.77868
-5.88247
-5.99382
-6.11183
-6.23551
-6.36383
-6.49581
-6.63051
-6.76707
-6.90468
-7.04266
-7.18038
-7.3173
-7.45292
-7.58684
-7.71867
-7.8481
-7.97484
-8.09863
-8.21925
-8.33651
-8.45023
-8.56024
-8.66642
-8.76863
-8.86675
-8.96066
-9.05028
-9.13548
-9.21617
-9.29223
-9.36357
-9.43006
-9.49158
-9.54799
-9.59914
-9.64487
-9.68501
-9.71936
-9.74773
-9.76988
-9.78556
-9.79453
-9.79649
-9.79114
-9.77817
-9.75724
-9.72797
-9.68999
-9.64289
-9.58626
-9.51965
-9.44258
-9.35455
-9.25502
-9.14345
-9.01927
-8.88188
-8.73066
-8.56498
-8.38419
-8.18762
-7.97461
-7.7445
-7.49662
-7.23033
-6.945
-6.64004
-6.31491
-5.9691
-5.6022
-5.21388
-4.80391
-4.37224
-3.91895
-3.44427
-2.94867
-2.43288
-1.89793
-1.34512
-0.776021
-0.19265
0.402609
1.00699
1.61731
2.22998
2.84105
3.44622
4.0409
4.62033
5.17967
5.71409
6.21898
6.69004
7.12344
7.51596
7.86508
8.16907
8.42707
8.63906
8.80587
8.92914
9.01121
9.05502
9.06402
9.04203
8.99309
8.92141
8.8312
8.72659
8.61155
8.48983
8.36488
8.23985
8.11749
8.00021
7.89002
7.78851
7.69692
7.61612
7.5466
7.48855
7.44191
7.40632
7.38123
7.36592
7.35952
7.36108
7.36957
7.38395
7.40318
7.42625
7.45223
7.48024
7.5095
7.53932
7.56911
7.59838
7.62673
7.65382
7.67942
7.70335
7.72549
7.74577
7.76419
7.78076
7.79556
7.80869
7.82027
7.83044
7.83937
7.8472
7.85412
7.86029
7.86588
7.87102
7.87584
7.88041
7.88468
7.88841
7.89102
7.89137
7.88726
7.87561
7.84996
-4.91443
-4.96555
-5.02612
-5.07727
-5.11896
-5.15672
-5.19422
-5.23379
-5.27727
-5.32627
-5.38211
-5.4458
-5.51801
-5.59906
-5.6889
-5.7872
-5.89337
-6.00662
-6.12604
-6.25069
-6.37958
-6.51178
-6.64638
-6.78257
-6.91961
-7.05683
-7.19364
-7.32953
-7.46405
-7.59681
-7.72746
-7.85571
-7.98129
-8.10399
-8.2236
-8.33996
-8.4529
-8.5623
-8.66801
-8.76993
-8.86795
-8.96196
-9.05187
-9.13757
-9.21896
-9.29592
-9.36836
-9.43614
-9.49914
-9.55722
-9.61022
-9.65797
-9.70031
-9.73701
-9.76789
-9.7927
-9.8112
-9.82312
-9.82818
-9.82607
-9.81647
-9.79903
-9.77339
-9.73916
-9.69594
-9.64332
-9.58082
-9.50798
-9.42427
-9.32917
-9.22213
-9.10256
-8.96986
-8.82341
-8.66257
-8.48669
-8.29508
-8.08708
-7.86201
-7.61918
-7.35794
-7.07765
-6.7777
-6.45752
-6.11658
-5.75444
-5.37074
-4.96522
-4.53781
-4.08856
-3.61767
-3.12559
-2.613
-2.08086
-1.53047
-0.963426
-0.381711
0.212299
0.815811
1.42561
2.03807
2.64917
3.25452
3.84947
4.42917
4.98865
5.52305
6.02766
6.49815
6.93068
7.32205
7.6698
7.9723
8.2288
8.43942
8.60514
8.72773
8.80967
8.85399
8.86424
8.84426
8.79816
8.73012
8.64431
8.54482
8.43556
8.32021
8.20212
8.08434
7.96956
7.86008
7.75782
7.66433
7.58075
7.50789
7.44621
7.39586
7.35672
7.3284
7.31034
7.30179
7.30187
7.30961
7.32399
7.34395
7.36845
7.39647
7.42707
7.45938
7.49261
7.52605
7.55911
7.5913
7.6222
7.65149
7.67893
7.70435
7.72765
7.7488
7.76779
7.78469
7.7996
7.81265
7.82398
7.83376
7.84215
7.84934
7.85547
7.86071
7.8652
7.86904
7.87231
7.87498
7.87694
7.87784
7.87698
7.87319
7.86435
7.84763
7.81777
-4.92612
-4.96844
-5.01963
-5.06498
-5.10394
-5.1407
-5.17826
-5.21862
-5.26334
-5.31382
-5.37118
-5.43628
-5.50969
-5.59164
-5.68208
-5.78067
-5.88684
-5.99985
-6.11885
-6.24293
-6.37117
-6.50265
-6.63652
-6.77199
-6.90833
-7.04488
-7.18107
-7.31639
-7.4504
-7.5827
-7.71297
-7.84091
-7.96627
-8.08884
-8.20842
-8.32486
-8.438
-8.54771
-8.65388
-8.7564
-8.85516
-8.95006
-9.04101
-9.1279
-9.21064
-9.2891
-9.36319
-9.43277
-9.49772
-9.55789
-9.61311
-9.66324
-9.70807
-9.74742
-9.78106
-9.80876
-9.83027
-9.84532
-9.85363
-9.85489
-9.84877
-9.83493
-9.81299
-9.78259
-9.7433
-9.69472
-9.63636
-9.56774
-9.48835
-9.39764
-9.29507
-9.18004
-9.05196
-8.91019
-8.75407
-8.58296
-8.39617
-8.19301
-7.9728
-7.73484
-7.47845
-7.20297
-6.90781
-6.59235
-6.25605
-5.89844
-5.51916
-5.11791
-4.69457
-4.24916
-3.78188
-3.29314
-2.78362
-2.25426
-1.7063
-1.14137
-0.561447
0.0310803
0.633392
1.24223
1.85392
2.46435
3.06908
3.66334
4.2422
4.80062
5.33365
5.83655
6.30496
6.73508
7.12375
7.46862
7.76819
8.02185
8.2299
8.39347
8.51449
8.59556
8.63985
8.65094
8.63274
8.58936
8.52495
8.44366
8.3495
8.24631
8.13765
8.0268
7.91671
7.80995
7.70875
7.61494
7.52998
7.45495
7.39059
7.33731
7.29521
7.26412
7.24364
7.23316
7.23191
7.239
7.25344
7.27418
7.30017
7.33036
7.36372
7.39931
7.43624
7.47372
7.51104
7.54761
7.58292
7.61656
7.64821
7.67764
7.70469
7.72928
7.75138
7.77105
7.78836
7.80345
7.81646
7.82758
7.837
7.84489
7.85143
7.85679
7.86112
7.86452
7.86707
7.8688
7.86964
7.86938
7.8676
7.86356
7.85604
7.84308
7.82211
7.78881
-4.94605
-4.9785
-5.01877
-5.05663
-5.09122
-5.12541
-5.16146
-5.20095
-5.24518
-5.2953
-5.35228
-5.41684
-5.48948
-5.57042
-5.65961
-5.75676
-5.86135
-5.97272
-6.09008
-6.21258
-6.33935
-6.46953
-6.60227
-6.73679
-6.87238
-7.00837
-7.14419
-7.27931
-7.41327
-7.54569
-7.67621
-7.80455
-7.93043
-8.05364
-8.17398
-8.2913
-8.40543
-8.51625
-8.62364
-8.7275
-8.82771
-8.92417
-9.0168
-9.10549
-9.19013
-9.27061
-9.34683
-9.41865
-9.48595
-9.54857
-9.60636
-9.65915
-9.70675
-9.74897
-9.78558
-9.81635
-9.84103
-9.85935
-9.87102
-9.87574
-9.87318
-9.86299
-9.8448
-9.81823
-9.78289
-9.73833
-9.68407
-9.61962
-9.54446
-9.45806
-9.35985
-9.24924
-9.12562
-8.98836
-8.8368
-8.67027
-8.48808
-8.28954
-8.07395
-7.8406
-7.58882
-7.31791
-7.02724
-6.71621
-6.38426
-6.0309
-5.65574
-5.2585
-4.83899
-4.39723
-3.93339
-3.44789
-2.94137
-2.41477
-1.86934
-1.3067
-0.728838
-0.138184
0.462409
1.06963
1.67973
2.28854
2.89151
3.48379
4.06037
4.61615
5.14612
5.64552
6.11004
6.5359
6.92008
7.26036
7.5554
7.80479
8.009
8.16936
8.28795
8.3675
8.41127
8.42292
8.40638
8.36574
8.30511
8.22858
8.14007
8.04331
7.94178
7.83865
7.73674
7.63854
7.54616
7.46135
7.38548
7.31957
7.2643
7.21999
7.18673
7.16429
7.15221
7.14987
7.15647
7.17109
7.19273
7.22033
7.2528
7.2891
7.32819
7.36911
7.41098
7.45299
7.49445
7.53474
7.57337
7.60992
7.64409
7.67564
7.70444
7.73043
7.75359
7.77402
7.79181
7.80712
7.82016
7.83111
7.84019
7.8476
7.85352
7.85812
7.86154
7.86388
7.86518
7.86542
7.86449
7.86211
7.85784
7.85087
7.84003
7.82347
7.79891
7.76279
-4.96238
-4.98506
-5.01415
-5.04376
-5.07304
-5.10363
-5.13706
-5.17451
-5.21702
-5.26552
-5.32083
-5.38357
-5.4542
-5.53292
-5.61973
-5.71439
-5.81647
-5.92538
-6.04041
-6.16079
-6.28567
-6.41422
-6.54563
-6.67913
-6.81399
-6.94955
-7.0852
-7.22042
-7.35472
-7.48769
-7.61896
-7.74822
-7.87519
-7.99964
-8.12136
-8.24017
-8.35591
-8.46845
-8.57767
-8.68344
-8.78565
-8.88422
-8.97903
-9.06998
-9.15697
-9.23988
-9.31861
-9.39302
-9.46297
-9.52833
-9.58894
-9.64462
-9.69519
-9.74044
-9.78017
-9.81413
-9.84208
-9.86374
-9.87883
-9.88705
-9.88806
-9.88151
-9.86705
-9.8443
-9.81284
-9.77222
-9.72196
-9.66155
-9.59049
-9.50822
-9.41419
-9.30779
-9.18841
-9.05542
-8.90814
-8.7459
-8.56802
-8.37378
-8.16248
-7.93341
-7.68587
-7.41917
-7.13266
-6.82571
-6.49776
-6.14832
-5.77698
-5.38342
-4.96748
-4.52914
-4.06858
-3.5862
-3.08265
-2.55886
-2.0161
-1.45601
-0.880611
-0.292369
0.305808
0.910544
1.51801
2.12395
2.72374
3.31245
3.88498
4.4362
4.96108
5.4549
5.9134
6.33294
6.71064
7.04445
7.33327
7.5769
7.77601
7.93213
8.0475
8.12496
8.16786
8.1799
8.165
8.12722
8.0706
7.99915
7.91668
7.82681
7.73289
7.63797
7.54478
7.45567
7.37267
7.29741
7.23121
7.17499
7.12936
7.09462
7.07076
7.05752
7.05441
7.06076
7.07575
7.09843
7.12776
7.16268
7.20208
7.24489
7.29007
7.33667
7.38378
7.4306
7.47642
7.52066
7.56279
7.60242
7.63924
7.67304
7.7037
7.73117
7.75548
7.77673
7.79507
7.81067
7.82377
7.83459
7.84336
7.85031
7.85563
7.8595
7.86204
7.86334
7.86342
7.86223
7.85961
7.85525
7.84866
7.83903
7.82522
7.80554
7.77792
7.73947
-4.96512
-4.97971
-4.99833
-5.01982
-5.04347
-5.06994
-5.10012
-5.13485
-5.17491
-5.22107
-5.27401
-5.33427
-5.40227
-5.47822
-5.56214
-5.65386
-5.75302
-5.85912
-5.97153
-6.08951
-6.21229
-6.33908
-6.46909
-6.60154
-6.73571
-6.87094
-7.0066
-7.14213
-7.27703
-7.41087
-7.54324
-7.67381
-7.80228
-7.9284
-8.05193
-8.17268
-8.29049
-8.40519
-8.51666
-8.62477
-8.72941
-8.83046
-8.92782
-9.02138
-9.11103
-9.19667
-9.27817
-9.3554
-9.42824
-9.49652
-9.5601
-9.61881
-9.67246
-9.72084
-9.76375
-9.80094
-9.83218
-9.85719
-9.87568
-9.88735
-9.89187
-9.88891
-9.87809
-9.85904
-9.83132
-9.79448
-9.74802
-9.69145
-9.62426
-9.54588
-9.45575
-9.35328
-9.23783
-9.10877
-8.96544
-8.80714
-8.63317
-8.44284
-8.23542
-8.01021
-7.76648
-7.50355
-7.22075
-6.91746
-6.5931
-6.24717
-5.87926
-5.48904
-5.07636
-4.6412
-4.18373
-3.70436
-3.20375
-2.68286
-2.14299
-1.5858
-1.01338
-0.428233
0.166652
0.767824
1.37137
1.97294
2.56784
3.15106
3.71746
4.26191
4.7794
5.26529
5.71545
6.12641
6.4955
6.82093
7.10182
7.33822
7.53104
7.68198
7.79343
7.86835
7.91013
7.92248
7.90931
7.87458
7.82228
7.75627
7.68026
7.59773
7.51191
7.42571
7.34173
7.26222
7.18911
7.12393
7.06791
7.0219
6.98645
6.9618
6.94787
6.94436
6.95074
6.9663
6.99018
7.02139
7.05889
7.10156
7.14829
7.198
7.24963
7.30221
7.35485
7.40673
7.45715
7.50551
7.55131
7.59416
7.63376
7.66993
7.70254
7.73158
7.75711
7.77925
7.79818
7.81412
7.82732
7.83804
7.84654
7.85306
7.8578
7.86096
7.86265
7.86294
7.86185
7.85929
7.85508
7.84887
7.84014
7.82811
7.81165
7.78924
7.75903
7.71862
-4.95002
-4.95662
-4.96631
-4.98046
-4.99858
-5.02073
-5.04733
-5.07894
-5.11616
-5.15959
-5.2098
-5.26727
-5.33237
-5.40531
-5.48616
-5.57478
-5.67089
-5.77406
-5.88373
-5.99923
-6.11984
-6.24481
-6.37338
-6.50479
-6.63831
-6.77327
-6.90903
-7.04501
-7.18068
-7.31558
-7.44928
-7.58141
-7.71166
-7.83974
-7.96539
-8.0884
-8.20859
-8.32578
-8.43983
-8.55059
-8.65795
-8.76178
-8.86197
-8.95841
-9.05098
-9.13957
-9.22406
-9.30431
-9.3802
-9.45157
-9.51826
-9.58011
-9.63693
-9.68852
-9.73467
-9.77514
-9.80968
-9.83804
-9.85992
-9.87502
-9.88302
-9.88357
-9.87632
-9.86087
-9.83676
-9.80353
-9.7607
-9.70776
-9.6442
-9.56946
-9.48297
-9.38412
-9.27229
-9.14683
-9.00707
-8.85232
-8.68188
-8.49504
-8.29107
-8.06926
-7.8289
-7.56928
-7.28974
-6.98966
-6.66845
-6.32561
-5.96074
-5.57351
-5.16378
-4.73154
-4.27699
-3.80054
-3.3029
-2.78505
-2.24835
-1.6945
-1.12567
-0.54443
0.0461379
0.642493
1.24063
1.83611
2.42415
2.99972
3.55765
4.09282
4.60034
5.07569
5.51495
5.91487
6.27306
6.58802
6.85916
7.08679
7.27205
7.41683
7.52365
7.59557
7.63598
7.6486
7.63724
7.60581
7.55815
7.498
7.42892
7.35425
7.27707
7.20015
7.12596
7.05665
6.99401
6.93952
6.89428
6.8591
6.83445
6.82051
6.81713
6.82397
6.84045
6.86582
6.89917
6.93949
6.98568
7.03661
7.09116
7.14821
7.20669
7.26563
7.32412
7.38134
7.43661
7.48932
7.53898
7.58521
7.62774
7.66637
7.70104
7.73174
7.75856
7.78165
7.80122
7.81753
7.83087
7.84152
7.84977
7.85588
7.86007
7.86254
7.8634
7.86274
7.86052
7.85667
7.85095
7.84302
7.83234