/*--------------------------------*- C++ -*----------------------------------*\
| =========                 |                                                 |
| \\      /  F ield         | OpenFOAM: The Open Source CFD Toolbox           |
|  \\    /   O peration     | Version:  2412                                  |
|   \\  /    A nd           | Website:  www.openfoam.com                      |
|    \\/     M anipulation  |                                                 |
\*---------------------------------------------------------------------------*/
FoamFile
{
    version     2.0;
    format      ascii;
    arch        "LSB;label=32;scalar=64";
    class       surfaceScalarField;
    location    "0.04";
    object      phi;
}
// * * * * * * * * * * * * * * * * * * * * * * * * * * * * * * * * * * * * * //

dimensions      [0 3 -1 0 0 0 0];

oriented        oriented;

internalField   nonuniform List<scalar> 
24170
(
1.36708e-07
-5.71632e-08
1.95427e-07
-5.87193e-08
2.57348e-07
-6.19207e-08
3.1057e-07
-5.32223e-08
3.6004e-07
-4.94697e-08
4.05359e-07
-4.53198e-08
4.46104e-07
-4.07446e-08
4.82621e-07
-3.65173e-08
5.153e-07
-3.2679e-08
5.44479e-07
-2.91784e-08
5.70478e-07
-2.59998e-08
5.93586e-07
-2.31073e-08
6.14034e-07
-2.04487e-08
6.31991e-07
-1.79571e-08
6.47588e-07
-1.55969e-08
6.60738e-07
-1.31496e-08
6.7177e-07
-1.10322e-08
-7.59852e-09
6.79369e-07
3.26069e-07
-1.24779e-07
3.93846e-07
-1.26497e-07
4.55159e-07
-1.23234e-07
5.12842e-07
-1.10906e-07
5.65567e-07
-1.02195e-07
6.13615e-07
-9.33679e-08
6.57221e-07
-8.43501e-08
6.96614e-07
-7.59107e-08
7.32096e-07
-6.81612e-08
7.63988e-07
-6.10702e-08
7.92593e-07
-5.46044e-08
8.18178e-07
-4.86927e-08
8.40967e-07
-4.32379e-08
8.61129e-07
-3.81186e-08
8.78766e-07
-3.3234e-08
8.93882e-07
-2.82655e-08
9.06467e-07
-2.36174e-08
-1.62849e-08
9.15153e-07
5.17163e-07
-1.71486e-07
5.7878e-07
-1.88114e-07
6.37345e-07
-1.81799e-07
6.93824e-07
-1.67385e-07
7.45794e-07
-1.54164e-07
7.93405e-07
-1.40979e-07
8.36917e-07
-1.27863e-07
8.76473e-07
-1.15466e-07
9.12293e-07
-1.03981e-07
9.44641e-07
-9.34187e-08
9.73777e-07
-8.374e-08
9.99934e-07
-7.48502e-08
1.02331e-06
-6.66168e-08
1.04407e-06
-5.88747e-08
1.06229e-06
-5.14528e-08
1.07803e-06
-4.40026e-08
1.09093e-06
-3.6518e-08
-2.61138e-08
1.10075e-06
7.43363e-07
-1.95179e-07
7.91465e-07
-2.36216e-07
8.42825e-07
-2.33158e-07
8.94614e-07
-2.19174e-07
9.43359e-07
-2.02909e-07
9.88562e-07
-1.86182e-07
1.03025e-06
-1.69551e-07
1.06843e-06
-1.5365e-07
1.10323e-06
-1.38773e-07
1.13481e-06
-1.25e-07
1.16337e-06
-1.12304e-07
1.1891e-06
-1.00584e-07
1.21217e-06
-8.96847e-08
1.23271e-06
-7.94099e-08
1.25079e-06
-6.9532e-08
1.26645e-06
-5.96716e-08
1.27946e-06
-4.95249e-08
-3.68174e-08
1.29017e-06
1.01478e-06
-1.99485e-07
1.04677e-06
-2.6821e-07
1.08738e-06
-2.73771e-07
1.13143e-06
-2.63223e-07
1.17456e-06
-2.4604e-07
1.21539e-06
-2.27013e-07
1.25356e-06
-2.07722e-07
1.28889e-06
-1.88974e-07
1.32134e-06
-1.71221e-07
1.35098e-06
-1.54641e-07
1.37792e-06
-1.39249e-07
1.4023e-06
-1.24956e-07
1.42421e-06
-1.11603e-07
1.44378e-06
-9.89771e-08
1.46107e-06
-8.68168e-08
1.47613e-06
-7.47327e-08
1.48889e-06
-6.22925e-08
-4.7826e-08
1.4999e-06
1.3379e-06
-1.8995e-07
1.35365e-06
-2.83951e-07
1.38115e-06
-3.01273e-07
1.41476e-06
-2.96839e-07
1.44988e-06
-2.81161e-07
1.4843e-06
-2.61424e-07
1.51716e-06
-2.40584e-07
1.54804e-06
-2.19856e-07
1.57673e-06
-1.99914e-07
1.60317e-06
-1.81081e-07
1.62737e-06
-1.63445e-07
1.64937e-06
-1.46954e-07
1.66923e-06
-1.31465e-07
1.68702e-06
-1.16769e-07
1.7028e-06
-1.02597e-07
1.71665e-06
-8.85815e-08
1.72863e-06
-7.42772e-08
-5.8516e-08
1.73932e-06
1.71747e-06
-1.72144e-07
1.71861e-06
-2.85085e-07
1.73209e-06
-3.1475e-07
1.75329e-06
-3.18046e-07
1.77823e-06
-3.06094e-07
1.8042e-06
-2.87393e-07
1.82992e-06
-2.66306e-07
1.8547e-06
-2.44638e-07
1.87814e-06
-2.23355e-07
1.90002e-06
-2.02965e-07
1.92025e-06
-1.83666e-07
1.93876e-06
-1.6547e-07
1.95557e-06
-1.48272e-07
1.97069e-06
-1.31891e-07
1.98417e-06
-1.16077e-07
1.9961e-06
-1.00509e-07
2.00662e-06
-8.48011e-08
-6.81801e-08
2.01629e-06
2.15712e-06
-1.50578e-07
2.14642e-06
-2.74379e-07
2.14647e-06
-3.148e-07
2.1544e-06
-3.25974e-07
2.16754e-06
-3.19242e-07
2.18333e-06
-3.03175e-07
2.2002e-06
-2.83179e-07
2.21726e-06
-2.61702e-07
2.23394e-06
-2.40036e-07
2.24988e-06
-2.18901e-07
2.26485e-06
-1.98634e-07
2.27871e-06
-1.79334e-07
2.2914e-06
-1.60959e-07
2.30288e-06
-1.43375e-07
2.31318e-06
-1.26377e-07
2.32239e-06
-1.09712e-07
2.33067e-06
-9.30863e-08
-7.60277e-08
2.33852e-06
2.65989e-06
-1.28281e-07
2.64047e-06
-2.54956e-07
2.62888e-06
-3.03211e-07
2.62394e-06
-3.21041e-07
2.62464e-06
-3.19939e-07
2.62908e-06
-3.07613e-07
2.63576e-06
-2.89862e-07
2.64372e-06
-2.69657e-07
2.65227e-06
-2.48588e-07
2.66094e-06
-2.27575e-07
2.66941e-06
-2.07105e-07
2.67746e-06
-1.87383e-07
2.68495e-06
-1.68446e-07
2.6918e-06
-1.50224e-07
2.698e-06
-1.32576e-07
2.70361e-06
-1.15327e-07
2.70882e-06
-9.82897e-08
-8.1213e-08
2.714e-06
3.22851e-06
-1.06932e-07
3.20317e-06
-2.29612e-07
3.1823e-06
-2.82342e-07
3.16602e-06
-3.04768e-07
3.15472e-06
-3.08635e-07
3.14754e-06
-3.00429e-07
3.14334e-06
-2.85664e-07
3.14127e-06
-2.67584e-07
3.14065e-06
-2.47976e-07
3.14099e-06
-2.27913e-07
3.1419e-06
-2.08008e-07
3.14309e-06
-1.88575e-07
3.14437e-06
-1.69733e-07
3.14564e-06
-1.51488e-07
3.14683e-06
-1.33772e-07
3.148e-06
-1.16489e-07
3.14926e-06
-9.95582e-08
-8.28784e-08
3.15093e-06
3.86548e-06
-8.73796e-08
3.83632e-06
-2.00457e-07
3.80841e-06
-2.54434e-07
3.78292e-06
-2.79277e-07
3.76106e-06
-2.86771e-07
3.74297e-06
-2.82336e-07
3.72806e-06
-2.70758e-07
3.71574e-06
-2.55266e-07
3.7055e-06
-2.37729e-07
3.69686e-06
-2.19281e-07
3.68947e-06
-2.00619e-07
3.68304e-06
-1.82136e-07
3.67733e-06
-1.6403e-07
3.67222e-06
-1.46376e-07
3.66763e-06
-1.29181e-07
3.66356e-06
-1.12419e-07
3.66011e-06
-9.61046e-08
-8.02264e-08
3.65745e-06
3.81103e-06
-7.15085e-08
3.78478e-06
-1.74203e-07
3.75724e-06
-2.26898e-07
3.73027e-06
-2.5231e-07
3.70521e-06
-2.61711e-07
3.68268e-06
-2.598e-07
3.66259e-06
-2.50673e-07
3.64472e-06
-2.37394e-07
3.6288e-06
-2.21807e-07
3.61456e-06
-2.0504e-07
3.60174e-06
-1.87805e-07
3.59014e-06
-1.70537e-07
3.57959e-06
-1.53479e-07
3.56997e-06
-1.36755e-07
3.56121e-06
-1.20419e-07
3.5533e-06
-1.04505e-07
3.54623e-06
-8.90344e-08
-7.42571e-08
3.54026e-06
5.0369e-06
-5.56462e-08
5.00621e-06
-1.43515e-07
4.97176e-06
-1.92452e-07
4.93637e-06
-2.16914e-07
4.90176e-06
-2.27106e-07
4.86912e-06
-2.27157e-07
4.83877e-06
-2.20323e-07
4.81071e-06
-2.09338e-07
4.78486e-06
-1.95958e-07
4.76108e-06
-1.81251e-07
4.73917e-06
-1.65903e-07
4.71899e-06
-1.50352e-07
4.70038e-06
-1.34867e-07
4.68323e-06
-1.19608e-07
4.66748e-06
-1.04667e-07
4.65309e-06
-9.0119e-08
4.64008e-06
-7.60248e-08
-6.27401e-08
4.62857e-06
6.66217e-06
-4.03467e-08
6.62814e-06
-1.09487e-07
6.58707e-06
-1.51383e-07
6.54313e-06
-1.72966e-07
6.49846e-06
-1.82444e-07
6.45478e-06
-1.83472e-07
6.4129e-06
-1.78444e-07
6.37313e-06
-1.69564e-07
6.33558e-06
-1.58411e-07
6.30029e-06
-1.45958e-07
6.2672e-06
-1.32821e-07
6.23626e-06
-1.19408e-07
6.20738e-06
-1.05985e-07
6.18049e-06
-9.2725e-08
6.15557e-06
-7.9741e-08
6.13258e-06
-6.71272e-08
6.11152e-06
-5.49721e-08
-4.3658e-08
6.09244e-06
8.79057e-06
-2.62541e-08
8.75539e-06
-7.43026e-08
8.70947e-06
-1.05464e-07
8.65819e-06
-1.21685e-07
8.60428e-06
-1.28533e-07
8.54989e-06
-1.29083e-07
8.49642e-06
-1.24977e-07
8.44459e-06
-1.17731e-07
8.39477e-06
-1.08594e-07
8.34719e-06
-9.83779e-08
8.30196e-06
-8.75936e-08
8.25914e-06
-7.65835e-08
8.21874e-06
-6.5583e-08
8.18076e-06
-5.47523e-08
8.14523e-06
-4.4205e-08
8.11214e-06
-3.40359e-08
8.08149e-06
-2.43264e-08
-1.54698e-08
8.0533e-06
1.15178e-05
-1.36957e-08
1.14837e-05
-4.0228e-08
1.14361e-05
-5.78607e-08
1.13807e-05
-6.62668e-08
1.13206e-05
-6.84946e-08
1.12584e-05
-6.68042e-08
1.11957e-05
-6.22753e-08
1.11337e-05
-5.57901e-08
1.10733e-05
-4.81409e-08
1.10148e-05
-3.98875e-08
1.09586e-05
-3.13784e-08
1.09048e-05
-2.28445e-08
1.08537e-05
-1.44519e-08
1.08053e-05
-6.32269e-09
1.07596e-05
1.45241e-09
1.07168e-05
8.79876e-09
1.06768e-05
1.56813e-08
2.17121e-08
1.06396e-05
1.4884e-05
-2.26213e-09
1.48517e-05
-7.89832e-09
1.48045e-05
-1.06897e-08
1.4748e-05
-9.78792e-09
1.46858e-05
-6.29365e-09
1.46204e-05
-1.35533e-09
1.45535e-05
4.56388e-09
1.44867e-05
1.10395e-08
1.44208e-05
1.77504e-08
1.43565e-05
2.44323e-08
1.42942e-05
3.09229e-08
1.42342e-05
3.71227e-08
1.41768e-05
4.29609e-08
1.41221e-05
4.8383e-08
1.40702e-05
5.33499e-08
1.40212e-05
5.78131e-08
1.39751e-05
6.17961e-08
6.49522e-08
1.39318e-05
1.87689e-05
9.51724e-09
1.87362e-05
2.4795e-08
1.86878e-05
3.77385e-08
1.86293e-05
4.87054e-08
1.85649e-05
5.8105e-08
1.84973e-05
6.6254e-08
1.84285e-05
7.33705e-08
1.83599e-05
7.96021e-08
1.82926e-05
8.50753e-08
1.82272e-05
8.98826e-08
1.8164e-05
9.40872e-08
1.81034e-05
9.77328e-08
1.80455e-05
1.00849e-07
1.79904e-05
1.03454e-07
1.79382e-05
1.0556e-07
1.78889e-05
1.07162e-07
1.78423e-05
1.08321e-07
1.08782e-07
1.77985e-05
2.2677e-05
2.00387e-08
2.26406e-05
6.11953e-08
2.25851e-05
9.32564e-08
2.25177e-05
1.16108e-07
2.24435e-05
1.32297e-07
2.23659e-05
1.43877e-07
2.22873e-05
1.51948e-07
2.22096e-05
1.57325e-07
2.21339e-05
1.60734e-07
2.20611e-05
1.62721e-07
2.19915e-05
1.63644e-07
2.19255e-05
1.63745e-07
2.18632e-05
1.63192e-07
2.18045e-05
1.62107e-07
2.17495e-05
1.6057e-07
2.1698e-05
1.58632e-07
2.165e-05
1.56356e-07
1.53599e-07
2.16052e-05
1.56043e-05
3.52977e-08
1.55655e-05
1.00056e-07
1.5512e-05
1.4672e-07
1.54507e-05
1.77472e-07
1.53853e-05
1.97659e-07
1.53186e-05
2.10541e-07
1.52527e-05
2.17877e-07
1.51889e-05
2.21165e-07
1.51279e-05
2.21677e-07
1.50703e-05
2.20301e-07
1.50164e-05
2.1762e-07
1.49661e-05
2.14036e-07
1.49194e-05
2.09836e-07
1.48763e-05
2.05223e-07
1.48365e-05
2.00335e-07
1.47999e-05
1.95278e-07
1.47661e-05
1.90122e-07
1.84821e-07
1.47349e-05
1.23907e-05
5.34622e-08
1.23463e-05
1.44401e-07
1.22897e-05
2.03329e-07
1.22282e-05
2.39031e-07
1.21651e-05
2.60695e-07
1.21032e-05
2.72478e-07
1.20441e-05
2.76958e-07
1.19888e-05
2.765e-07
1.19376e-05
2.72887e-07
1.18906e-05
2.67264e-07
1.18478e-05
2.60377e-07
1.18091e-05
2.52739e-07
1.17743e-05
2.44703e-07
1.1743e-05
2.36506e-07
1.1715e-05
2.28304e-07
1.16901e-05
2.20202e-07
1.1668e-05
2.12252e-07
2.04452e-07
1.16483e-05
9.5597e-06
7.73509e-08
9.51132e-06
1.92784e-07
9.45699e-06
2.57659e-07
9.40248e-06
2.9354e-07
9.35011e-06
3.13067e-07
9.30182e-06
3.2077e-07
9.2585e-06
3.20273e-07
9.22026e-06
3.14746e-07
9.18689e-06
3.06256e-07
9.1581e-06
2.96055e-07
9.13352e-06
2.84955e-07
9.11276e-06
2.73502e-07
9.09541e-06
2.62046e-07
9.08112e-06
2.50802e-07
9.06952e-06
2.39898e-07
9.06031e-06
2.29412e-07
9.0532e-06
2.19365e-07
2.0977e-07
9.04788e-06
7.18042e-06
1.06383e-07
7.13407e-06
2.39126e-07
7.09007e-06
3.01668e-07
7.05064e-06
3.32961e-07
7.01703e-06
3.46678e-07
6.99011e-06
3.47692e-07
6.9695e-06
3.40884e-07
6.95439e-06
3.2986e-07
6.944e-06
3.16646e-07
6.93763e-06
3.02426e-07
6.93463e-06
2.87952e-07
6.93444e-06
2.73689e-07
6.93659e-06
2.59902e-07
6.94065e-06
2.46732e-07
6.94631e-06
2.34245e-07
6.95326e-06
2.2246e-07
6.96126e-06
2.1136e-07
2.00949e-07
6.97009e-06
5.24591e-06
1.39185e-07
5.20917e-06
2.75868e-07
5.18321e-06
3.27626e-07
5.16632e-06
3.49851e-07
5.15837e-06
3.54632e-07
5.15824e-06
3.4782e-07
5.16407e-06
3.35061e-07
5.17431e-06
3.1962e-07
5.18783e-06
3.03121e-07
5.20376e-06
2.86497e-07
5.2214e-06
2.70307e-07
5.24024e-06
2.54852e-07
5.25987e-06
2.40273e-07
5.27999e-06
2.26617e-07
5.30035e-06
2.13878e-07
5.32079e-06
2.0202e-07
5.34116e-06
1.90989e-07
1.80778e-07
5.36134e-06
3.71493e-06
1.72384e-07
3.69724e-06
2.93567e-07
3.69687e-06
3.27993e-07
3.70845e-06
3.38273e-07
3.7295e-06
3.33575e-07
3.75674e-06
3.20583e-07
3.78756e-06
3.04244e-07
3.82038e-06
2.86801e-07
3.85418e-06
2.69322e-07
3.88825e-06
2.52425e-07
3.92211e-06
2.3644e-07
3.95546e-06
2.21509e-07
3.98807e-06
2.07662e-07
4.01981e-06
1.94872e-07
4.05061e-06
1.83078e-07
4.08043e-06
1.72208e-07
4.10923e-06
1.62187e-07
1.53004e-07
4.137e-06
2.53568e-06
1.97304e-07
2.54723e-06
2.82011e-07
2.57692e-06
2.98301e-07
2.61764e-06
2.97557e-07
2.66477e-06
2.86443e-07
2.7143e-06
2.71056e-07
2.76417e-06
2.54378e-07
2.81334e-06
2.37623e-07
2.86122e-06
2.2145e-07
2.90742e-06
2.06217e-07
2.95179e-06
1.92078e-07
2.99423e-06
1.79064e-07
3.03476e-06
1.67138e-07
3.0734e-06
1.56231e-07
3.11022e-06
1.46257e-07
3.14529e-06
1.37131e-07
3.17871e-06
1.28772e-07
1.21184e-07
3.21053e-06
1.65491e-06
1.99496e-07
1.70136e-06
2.35571e-07
1.75876e-06
2.40899e-07
1.82267e-06
2.33646e-07
1.88804e-06
2.21075e-07
1.95187e-06
2.07219e-07
2.01328e-06
1.92967e-07
2.07188e-06
1.7903e-07
2.12745e-06
1.65879e-07
2.17996e-06
1.53699e-07
2.22951e-06
1.42534e-07
2.27621e-06
1.32362e-07
2.32023e-06
1.23121e-07
2.36173e-06
1.1473e-07
2.40088e-06
1.07105e-07
2.43785e-06
1.00163e-07
2.47279e-06
9.38287e-08
8.81418e-08
2.50583e-06
1.01842e-06
1.63933e-07
1.09548e-06
1.58517e-07
1.17157e-06
1.64811e-07
1.249e-06
1.56212e-07
1.3236e-06
1.46478e-07
1.39398e-06
1.36838e-07
1.46018e-06
1.26765e-07
1.52224e-06
1.16975e-07
1.58023e-06
1.07884e-07
1.63437e-06
9.95613e-08
1.68491e-06
9.19958e-08
1.73211e-06
8.51545e-08
1.77626e-06
7.89795e-08
1.81758e-06
7.34028e-08
1.85633e-06
6.83576e-08
1.89271e-06
6.37843e-08
1.92694e-06
5.96035e-08
5.58932e-08
1.95918e-06
5.69317e-07
8.45328e-08
6.59403e-07
6.84311e-08
7.41785e-07
8.24284e-08
8.2271e-07
7.52874e-08
8.98734e-07
7.04538e-08
9.69483e-07
6.60885e-08
1.03525e-06
6.09979e-08
1.09623e-06
5.59919e-08
1.1527e-06
5.14217e-08
1.20498e-06
4.72778e-08
1.25344e-06
4.3532e-08
1.29843e-06
4.01646e-08
1.34027e-06
3.71423e-08
1.37925e-06
3.44258e-08
1.41563e-06
3.19774e-08
1.44964e-06
2.9769e-08
1.48152e-06
2.77271e-08
2.58992e-08
1.51151e-06
2.22457e-07
2.90888e-07
3.73316e-07
4.48604e-07
5.19058e-07
5.85146e-07
6.46144e-07
7.02136e-07
7.53558e-07
8.00836e-07
8.44368e-07
8.84532e-07
9.21674e-07
9.561e-07
9.88078e-07
1.01785e-06
1.04557e-06
1.07147e-06
6.31519e-08
-6.31519e-08
1.6247e-07
-9.93181e-08
2.62429e-07
-9.99587e-08
3.51621e-07
-8.91928e-08
4.26038e-07
-7.44166e-08
4.84337e-07
-5.8299e-08
5.26382e-07
-4.20446e-08
5.52553e-07
-2.61714e-08
5.63457e-07
-1.09042e-08
5.59646e-07
3.81088e-09
5.40987e-07
1.86596e-08
5.10527e-07
3.04597e-08
4.71036e-07
3.94909e-08
4.24653e-07
4.63827e-08
3.7271e-07
5.19438e-08
3.1553e-07
5.718e-08
2.52322e-07
6.32079e-08
1.81422e-07
7.08997e-08
1.006e-07
8.08223e-08
7.60708e-09
9.29927e-08
-9.97818e-08
1.07389e-07
-2.23262e-07
1.2348e-07
-3.63276e-07
1.40014e-07
-5.19015e-07
1.5574e-07
-6.88445e-07
1.6943e-07
-8.68575e-07
1.8013e-07
-1.05585e-06
1.87272e-07
-1.24653e-06
1.90681e-07
-1.43703e-06
1.90505e-07
-1.62417e-06
1.87137e-07
-1.80529e-06
1.81119e-07
-1.97835e-06
1.73063e-07
-2.14193e-06
1.6358e-07
-2.29517e-06
1.53236e-07
-2.43769e-06
1.42519e-07
-2.56951e-06
1.31822e-07
-2.69095e-06
1.21445e-07
-2.80255e-06
1.11597e-07
-2.90496e-06
1.0241e-07
-2.99891e-06
9.39534e-08
-3.08516e-06
8.62457e-08
-3.16443e-06
7.92704e-08
-3.23742e-06
7.29866e-08
-3.30476e-06
6.73389e-08
-3.36702e-06
6.22643e-08
-3.42472e-06
5.76975e-08
-3.47829e-06
5.35743e-08
-3.52813e-06
4.98341e-08
-3.57455e-06
4.64204e-08
-3.61783e-06
4.32824e-08
-3.6582e-06
4.03738e-08
-3.69586e-06
3.76535e-08
-3.73094e-06
3.50846e-08
-3.76358e-06
3.26343e-08
-3.79385e-06
3.02725e-08
-3.82182e-06
2.79722e-08
-3.84753e-06
2.57083e-08
-3.87099e-06
2.34571e-08
-3.89218e-06
2.11962e-08
-3.91109e-06
1.89042e-08
-3.92765e-06
1.656e-08
-3.94179e-06
1.41435e-08
-3.95342e-06
1.16348e-08
-3.96244e-06
9.0133e-09
-3.96871e-06
6.27057e-09
-3.97214e-06
3.42924e-09
-3.97261e-06
4.76228e-10
-3.97055e-06
-2.06346e-09
-3.96595e-06
-4.59661e-09
-3.95881e-06
-7.14071e-09
-3.94906e-06
-9.7558e-09
-3.93658e-06
-1.24749e-08
-3.92126e-06
-1.53175e-08
-3.90297e-06
-1.82971e-08
-3.88154e-06
-2.14249e-08
-3.85683e-06
-2.47109e-08
-3.82867e-06
-2.81647e-08
-3.79687e-06
-3.17954e-08
-3.76126e-06
-3.56123e-08
-3.72164e-06
-3.9624e-08
-3.6778e-06
-4.3839e-08
-3.62953e-06
-4.82652e-08
-3.57662e-06
-5.29099e-08
-3.51884e-06
-5.77795e-08
-3.45596e-06
-6.28796e-08
-3.38775e-06
-6.82142e-08
-3.31396e-06
-7.37857e-08
-3.23437e-06
-7.95949e-08
-3.14873e-06
-8.56399e-08
-3.05681e-06
-9.19164e-08
-2.95839e-06
-9.84168e-08
-2.85326e-06
-1.0513e-07
-2.74123e-06
-1.12039e-07
-2.6221e-06
-1.19125e-07
-2.49574e-06
-1.26361e-07
-2.36202e-06
-1.33716e-07
-2.22087e-06
-1.41152e-07
-2.07225e-06
-1.48624e-07
-1.91617e-06
-1.56081e-07
-1.7527e-06
-1.63463e-07
-1.582e-06
-1.70705e-07
-1.40426e-06
-1.77734e-07
-1.21979e-06
-1.8447e-07
-1.02897e-06
-1.90828e-07
-8.32254e-07
-1.96712e-07
-6.30247e-07
-2.02007e-07
-4.23692e-07
-2.06554e-07
-2.13556e-07
-2.10136e-07
-7.00505e-10
-2.12856e-07
2.14381e-07
-2.15081e-07
4.30844e-07
-2.16463e-07
6.47546e-07
-2.16702e-07
8.63464e-07
-2.15918e-07
1.07758e-06
-2.14112e-07
1.28886e-06
-2.11287e-07
1.49632e-06
-2.07458e-07
1.69897e-06
-2.02651e-07
1.89588e-06
-1.96912e-07
2.08618e-06
-1.90296e-07
2.26905e-06
-1.82872e-07
2.44377e-06
-1.74714e-07
2.60967e-06
-1.65905e-07
2.7662e-06
-1.56532e-07
2.91288e-06
-1.46681e-07
3.04932e-06
-1.3644e-07
3.17522e-06
-1.25895e-07
3.29035e-06
-1.15128e-07
3.39456e-06
-1.04216e-07
3.4878e-06
-9.32322e-08
3.57004e-06
-8.22427e-08
3.64135e-06
-7.13071e-08
3.7018e-06
-6.04575e-08
3.7515e-06
-4.96967e-08
3.79061e-06
-3.91125e-08
3.81925e-06
-2.86406e-08
3.83591e-06
-1.66594e-08
3.83765e-06
-1.74242e-09
3.8224e-06
1.52533e-08
3.79281e-06
2.95877e-08
3.75085e-06
4.19602e-08
3.69828e-06
5.25689e-08
3.63669e-06
6.15994e-08
3.56759e-06
6.90943e-08
3.49256e-06
7.50322e-08
3.41319e-06
7.93723e-08
3.3311e-06
8.20872e-08
3.2479e-06
8.32024e-08
3.16509e-06
8.28098e-08
3.08402e-06
8.10646e-08
3.00585e-06
7.81716e-08
2.93149e-06
7.43638e-08
2.86161e-06
6.98813e-08
2.79665e-06
6.49544e-08
2.73686e-06
5.97922e-08
2.68228e-06
5.45764e-08
2.63282e-06
4.94596e-08
2.58826e-06
4.45666e-08
2.54826e-06
3.99915e-08
2.51251e-06
3.57564e-08
2.48073e-06
3.17757e-08
2.45269e-06
2.80433e-08
2.428e-06
2.4691e-08
2.40619e-06
2.18112e-08
2.38676e-06
1.94267e-08
2.36924e-06
1.75242e-08
2.35316e-06
1.60784e-08
2.33809e-06
1.50647e-08
2.32362e-06
1.44688e-08
2.30933e-06
1.42936e-08
2.29476e-06
1.45662e-08
2.27942e-06
1.53478e-08
2.26267e-06
1.67491e-08
2.24371e-06
1.89567e-08
2.22143e-06
2.22783e-08
2.19419e-06
2.72402e-08
2.15949e-06
3.47043e-08
2.11296e-06
4.65263e-08
2.04825e-06
6.47144e-08
1.94681e-06
1.0144e-07
1.44744e-07
1.80206e-06
9.77439e-08
-1.60896e-07
1.80094e-07
-1.81668e-07
2.36795e-07
-1.56659e-07
2.75126e-07
-1.27525e-07
2.9957e-07
-9.88606e-08
3.12454e-07
-7.11822e-08
3.15012e-07
-4.46028e-08
3.07987e-07
-1.91462e-08
2.91779e-07
5.30331e-09
2.6674e-07
2.88502e-08
2.33607e-07
5.17923e-08
1.90211e-07
7.38556e-08
1.34821e-07
9.48814e-08
6.60915e-08
1.15112e-07
-1.71635e-08
1.35199e-07
-1.15998e-07
1.56015e-07
-2.31204e-07
1.78414e-07
-3.63188e-07
2.02883e-07
-5.11642e-07
2.29277e-07
-6.75423e-07
2.56774e-07
-8.52061e-07
2.84027e-07
-1.03799e-06
3.09414e-07
-1.22923e-06
3.31245e-07
-1.42152e-06
3.48033e-07
-1.61083e-06
3.58744e-07
-1.79364e-06
3.62939e-07
-1.96714e-06
3.60767e-07
-2.12932e-06
3.52866e-07
-2.27902e-06
3.40199e-07
-2.41578e-06
3.239e-07
-2.53979e-06
3.05125e-07
-2.65167e-06
2.84943e-07
-2.75236e-06
2.64272e-07
-2.84296e-06
2.43841e-07
-2.92463e-06
2.24189e-07
-2.99849e-06
2.05677e-07
-3.06556e-06
1.88518e-07
-3.12677e-06
1.72808e-07
-3.18291e-06
1.58552e-07
-3.23466e-06
1.45695e-07
-3.28255e-06
1.34143e-07
-3.32706e-06
1.23779e-07
-3.36855e-06
1.14476e-07
-3.40732e-06
1.06109e-07
-3.44361e-06
9.85555e-08
-3.47762e-06
9.17036e-08
-3.50949e-06
8.54502e-08
-3.53936e-06
7.97031e-08
-3.56732e-06
7.43805e-08
-3.59345e-06
6.94098e-08
-3.61781e-06
6.47276e-08
-3.64043e-06
6.0278e-08
-3.66136e-06
5.60117e-08
-3.68061e-06
5.18853e-08
-3.6982e-06
4.78606e-08
-3.71413e-06
4.39035e-08
-3.7284e-06
3.99836e-08
-3.74102e-06
3.6074e-08
-3.75197e-06
3.21509e-08
-3.76126e-06
2.81935e-08
-3.76889e-06
2.4184e-08
-3.77485e-06
2.01084e-08
-3.77917e-06
1.5957e-08
-3.78189e-06
1.17261e-08
-3.78304e-06
7.42055e-09
-3.78266e-06
3.05599e-09
-3.78077e-06
-1.42161e-09
-3.77684e-06
-5.99078e-09
-3.77067e-06
-1.07668e-08
-3.76206e-06
-1.57529e-08
-3.75085e-06
-2.09618e-08
-3.73691e-06
-2.64125e-08
-3.72011e-06
-3.21244e-08
-3.70029e-06
-3.81169e-08
-3.6773e-06
-4.44082e-08
-3.651e-06
-5.10169e-08
-3.6212e-06
-5.79607e-08
-3.58774e-06
-6.52573e-08
-3.55043e-06
-7.29239e-08
-3.50907e-06
-8.09773e-08
-3.46348e-06
-8.94333e-08
-3.41344e-06
-9.83072e-08
-3.35874e-06
-1.07612e-07
-3.29915e-06
-1.17361e-07
-3.23447e-06
-1.27564e-07
-3.16446e-06
-1.38226e-07
-3.08889e-06
-1.49354e-07
-3.00754e-06
-1.60946e-07
-2.92018e-06
-1.72999e-07
-2.82659e-06
-1.85502e-07
-2.72657e-06
-1.9844e-07
-2.61991e-06
-2.11787e-07
-2.50644e-06
-2.25514e-07
-2.38599e-06
-2.39576e-07
-2.25842e-06
-2.53924e-07
-2.12365e-06
-2.68492e-07
-1.98159e-06
-2.83205e-07
-1.83225e-06
-2.97973e-07
-1.67563e-06
-3.12694e-07
-1.51185e-06
-3.27249e-07
-1.34104e-06
-3.41508e-07
-1.16345e-06
-3.55327e-07
-9.7937e-07
-3.68551e-07
-7.89188e-07
-3.8101e-07
-5.93372e-07
-3.92528e-07
-3.9247e-07
-4.02909e-07
-1.87068e-07
-4.11956e-07
2.23127e-08
-4.19517e-07
2.34959e-07
-4.25502e-07
4.49714e-07
-4.29837e-07
6.65604e-07
-4.32353e-07
8.81807e-07
-4.32905e-07
1.09735e-06
-4.31465e-07
1.31125e-06
-4.28009e-07
1.5225e-06
-4.22537e-07
1.73012e-06
-4.15077e-07
1.93316e-06
-4.05688e-07
2.1307e-06
-3.94459e-07
2.32191e-06
-3.815e-07
2.50598e-06
-3.66946e-07
2.68221e-06
-3.50947e-07
2.84997e-06
-3.33665e-07
3.00871e-06
-3.15268e-07
3.15796e-06
-2.95929e-07
3.29734e-06
-2.75819e-07
3.42655e-06
-2.55106e-07
3.54537e-06
-2.33951e-07
3.65366e-06
-2.12507e-07
3.75135e-06
-1.90915e-07
3.83841e-06
-1.69308e-07
3.9149e-06
-1.478e-07
3.98092e-06
-1.26477e-07
4.03663e-06
-1.05406e-07
4.08219e-06
-8.46653e-08
4.11778e-06
-6.4239e-08
4.14491e-06
-4.37893e-08
4.16599e-06
-2.28189e-08
4.18223e-06
-9.84983e-10
4.1914e-06
2.04176e-08
4.19244e-06
4.09234e-08
4.18486e-06
6.01406e-08
4.1686e-06
7.78632e-08
4.1438e-06
9.38951e-08
4.11079e-06
1.08037e-07
4.07008e-06
1.20086e-07
4.02232e-06
1.29845e-07
3.96836e-06
1.37167e-07
3.90919e-06
1.41978e-07
3.84595e-06
1.44301e-07
3.77987e-06
1.44255e-07
3.71218e-06
1.42053e-07
3.64408e-06
1.37982e-07
3.57666e-06
1.32378e-07
3.51085e-06
1.25598e-07
3.44743e-06
1.17999e-07
3.38697e-06
1.09919e-07
3.32987e-06
1.01665e-07
3.27637e-06
9.34935e-08
3.22657e-06
8.55573e-08
3.18046e-06
7.78866e-08
3.13797e-06
7.05285e-08
3.09904e-06
6.36243e-08
3.06353e-06
5.73155e-08
3.03127e-06
5.16928e-08
3.00199e-06
4.68058e-08
2.97539e-06
4.26766e-08
2.95114e-06
3.93124e-08
2.92889e-06
3.67181e-08
2.90828e-06
3.49082e-08
2.88892e-06
3.39208e-08
2.87044e-06
3.38339e-08
2.8524e-06
3.47883e-08
2.83433e-06
3.70268e-08
2.81566e-06
4.09453e-08
2.79565e-06
4.72467e-08
2.77337e-06
5.69907e-08
2.74717e-06
7.27192e-08
2.71512e-06
9.67684e-08
2.67261e-06
1.4395e-07
2.1055e-07
2.6068e-06
6.86405e-08
-2.29536e-07
9.98266e-08
-2.12855e-07
1.14176e-07
-1.71009e-07
1.18077e-07
-1.31425e-07
1.13328e-07
-9.41117e-08
1.00468e-07
-5.83225e-08
7.94971e-08
-2.36319e-08
5.00956e-08
1.02553e-08
1.17665e-08
4.36324e-08
-3.61929e-08
7.68096e-08
-9.44454e-08
1.10045e-07
-1.64072e-07
1.43483e-07
-2.46392e-07
1.77201e-07
-3.42625e-07
2.11345e-07
-4.5355e-07
2.46124e-07
-5.79205e-07
2.81669e-07
-7.1861e-07
3.1782e-07
-8.69676e-07
3.53949e-07
-1.02929e-06
3.88892e-07
-1.1936e-06
4.21079e-07
-1.35836e-06
4.48793e-07
-1.51942e-06
4.70475e-07
-1.67316e-06
4.84986e-07
-1.81689e-06
4.91759e-07
-1.94899e-06
4.90846e-07
-2.0689e-06
4.82852e-07
-2.17693e-06
4.68791e-07
-2.27398e-06
4.49914e-07
-2.36132e-06
4.27542e-07
-2.44036e-06
4.02938e-07
-2.51245e-06
3.77219e-07
-2.57881e-06
3.51308e-07
-2.64046e-06
3.25921e-07
-2.6982e-06
3.01576e-07
-2.75263e-06
2.78618e-07
-2.80419e-06
2.57244e-07
-2.85322e-06
2.37541e-07
-2.89992e-06
2.19509e-07
-2.94445e-06
2.03088e-07
-2.98694e-06
1.88179e-07
-3.02745e-06
1.74661e-07
-3.06608e-06
1.62401e-07
-3.10286e-06
1.51263e-07
-3.13787e-06
1.41114e-07
-3.17114e-06
1.3183e-07
-3.20273e-06
1.23293e-07
-3.23268e-06
1.15397e-07
-3.26102e-06
1.08047e-07
-3.2878e-06
1.01156e-07
-3.31304e-06
9.46471e-08
-3.33676e-06
8.84512e-08
-3.35899e-06
8.25071e-08
-3.37974e-06
7.67603e-08
-3.39901e-06
7.1162e-08
-3.41682e-06
6.56685e-08
-3.43316e-06
6.02405e-08
-3.44802e-06
5.48431e-08
-3.46139e-06
4.94443e-08
-3.47325e-06
4.40156e-08
-3.48359e-06
3.85316e-08
-3.49238e-06
3.29688e-08
-3.49957e-06
2.73065e-08
-3.50514e-06
2.1525e-08
-3.50902e-06
1.56058e-08
-3.51113e-06
9.5296e-09
-3.51134e-06
3.26661e-09
-3.50954e-06
-3.21888e-09
-3.50556e-06
-9.97554e-09
-3.49929e-06
-1.70383e-08
-3.49061e-06
-2.44301e-08
-3.4794e-06
-3.2172e-08
-3.46553e-06
-4.02871e-08
-3.44885e-06
-4.88e-08
-3.42923e-06
-5.7736e-08
-3.40652e-06
-6.71213e-08
-3.38055e-06
-7.69815e-08
-3.35117e-06
-8.73427e-08
-3.3182e-06
-9.82303e-08
-3.28145e-06
-1.09669e-07
-3.24075e-06
-1.21685e-07
-3.19588e-06
-1.34299e-07
-3.14665e-06
-1.47534e-07
-3.09286e-06
-1.6141e-07
-3.03427e-06
-1.75945e-07
-2.97068e-06
-1.91152e-07
-2.90187e-06
-2.07041e-07
-2.82761e-06
-2.23617e-07
-2.74767e-06
-2.40881e-07
-2.66185e-06
-2.58824e-07
-2.56992e-06
-2.77432e-07
-2.47168e-06
-2.96678e-07
-2.36694e-06
-3.16528e-07
-2.25552e-06
-3.36931e-07
-2.13727e-06
-3.57826e-07
-2.01206e-06
-3.79134e-07
-1.87979e-06
-4.00759e-07
-1.74041e-06
-4.22589e-07
-1.5939e-06
-4.44487e-07
-1.44029e-06
-4.66302e-07
-1.27968e-06
-4.87859e-07
-1.11222e-06
-5.08962e-07
-9.38152e-07
-5.29399e-07
-7.57762e-07
-5.4894e-07
-5.71431e-07
-5.67342e-07
-3.79608e-07
-5.84351e-07
-1.82798e-07
-5.99718e-07
1.84419e-08
-6.13196e-07
2.23468e-07
-6.24543e-07
4.31519e-07
-6.33553e-07
6.41698e-07
-6.40015e-07
8.53079e-07
-6.43734e-07
1.06475e-06
-6.44572e-07
1.27573e-06
-6.42452e-07
1.48506e-06
-6.37332e-07
1.69174e-06
-6.29218e-07
1.89481e-06
-6.18155e-07
2.09336e-06
-6.04236e-07
2.2865e-06
-5.87594e-07
2.4734e-06
-5.68399e-07
2.6533e-06
-5.4685e-07
2.82552e-06
-5.23171e-07
2.98946e-06
-4.97601e-07
3.14458e-06
-4.70391e-07
3.29045e-06
-4.41796e-07
3.4267e-06
-4.1207e-07
3.55306e-06
-3.8146e-07
3.66931e-06
-3.50206e-07
3.77534e-06
-3.18532e-07
3.87107e-06
-2.8665e-07
3.95652e-06
-2.54754e-07
4.03173e-06
-2.23017e-07
4.09684e-06
-1.91587e-07
4.15202e-06
-1.60586e-07
4.19748e-06
-1.30121e-07
4.23348e-06
-1.00236e-07
4.26062e-06
-7.09293e-08
4.27992e-06
-4.21226e-08
4.29256e-06
-1.36234e-08
4.2987e-06
1.42789e-08
4.2984e-06
4.12159e-08
4.29168e-06
6.68649e-08
4.2786e-06
9.09406e-08
4.25932e-06
1.13178e-07
4.23404e-06
1.33317e-07
4.20303e-06
1.51092e-07
4.16663e-06
1.66247e-07
4.12525e-06
1.78553e-07
4.07938e-06
1.87841e-07
4.02966e-06
1.94025e-07
3.97679e-06
1.97126e-07
3.92157e-06
1.97274e-07
3.86484e-06
1.94709e-07
3.80746e-06
1.89758e-07
3.75024e-06
1.82819e-07
3.69391e-06
1.74324e-07
3.63912e-06
1.64714e-07
3.58637e-06
1.54413e-07
3.53607e-06
1.43798e-07
3.48847e-06
1.33153e-07
3.4437e-06
1.22652e-07
3.40179e-06
1.12442e-07
3.36271e-06
1.02708e-07
3.3264e-06
9.36267e-08
3.29276e-06
8.53338e-08
3.26164e-06
7.79231e-08
3.23286e-06
7.14567e-08
3.2062e-06
6.59754e-08
3.1814e-06
6.15124e-08
3.1582e-06
5.81079e-08
3.1363e-06
5.5826e-08
3.11535e-06
5.47757e-08
3.095e-06
5.5139e-08
3.07481e-06
5.72164e-08
3.05427e-06
6.14867e-08
3.03275e-06
6.87689e-08
3.00944e-06
8.02973e-08
2.98346e-06
9.87028e-08
2.95336e-06
1.26873e-07
2.92104e-06
1.76268e-07
2.47392e-07
2.8842e-06
1.45812e-08
-2.44117e-07
3.51607e-09
-2.01789e-07
-1.37899e-08
-1.53703e-07
-3.61387e-08
-1.09076e-07
-6.40413e-08
-6.62091e-08
-9.81944e-08
-2.41693e-08
-1.39399e-07
1.75727e-08
-1.88515e-07
5.93712e-08
-2.46395e-07
1.01513e-07
-3.13802e-07
1.44216e-07
-3.91367e-07
1.8761e-07
-4.7958e-07
2.31695e-07
-5.78709e-07
2.7633e-07
-6.88597e-07
3.21233e-07
-8.08414e-07
3.65942e-07
-9.36485e-07
4.09739e-07
-1.07025e-06
4.51589e-07
-1.20646e-06
4.90152e-07
-1.34148e-06
5.23911e-07
-1.47179e-06
5.51392e-07
-1.59442e-06
5.71421e-07
-1.70725e-06
5.83312e-07
-1.80922e-06
5.86954e-07
-1.90025e-06
5.82789e-07
-1.9811e-06
5.71691e-07
-2.05306e-06
5.54816e-07
-2.11771e-06
5.33438e-07
-2.17662e-06
5.08825e-07
-2.23122e-06
4.82142e-07
-2.28268e-06
4.544e-07
-2.33189e-06
4.26428e-07
-2.37946e-06
3.98877e-07
-2.42577e-06
3.72232e-07
-2.47103e-06
3.46831e-07
-2.5153e-06
3.22888e-07
-2.55857e-06
3.00519e-07
-2.6008e-06
2.79763e-07
-2.64189e-06
2.60599e-07
-2.68176e-06
2.42965e-07
-2.72036e-06
2.26771e-07
-2.7576e-06
2.11907e-07
-2.79346e-06
1.98258e-07
-2.8279e-06
1.85701e-07
-2.8609e-06
1.74118e-07
-2.89247e-06
1.63395e-07
-2.92259e-06
1.53422e-07
-2.9513e-06
1.44099e-07
-2.97858e-06
1.35333e-07
-3.00446e-06
1.27039e-07
-3.02896e-06
1.19138e-07
-3.05206e-06
1.1156e-07
-3.0738e-06
1.04241e-07
-3.09416e-06
9.71215e-08
-3.11315e-06
9.01495e-08
-3.13075e-06
8.32761e-08
-3.14697e-06
7.64568e-08
-3.16178e-06
6.96508e-08
-3.17515e-06
6.28204e-08
-3.18707e-06
5.59303e-08
-3.19748e-06
4.89477e-08
-3.20636e-06
4.18411e-08
-3.21363e-06
3.45801e-08
-3.21924e-06
2.71345e-08
-3.22311e-06
1.94735e-08
-3.22514e-06
1.15636e-08
-3.22524e-06
3.36655e-09
-3.2233e-06
-5.15742e-09
-3.21923e-06
-1.40511e-08
-3.21292e-06
-2.33509e-08
-3.20426e-06
-3.30882e-08
-3.19314e-06
-4.32934e-08
-3.17943e-06
-5.39974e-08
-3.16299e-06
-6.52321e-08
-3.1437e-06
-7.70306e-08
-3.12139e-06
-8.94261e-08
-3.09592e-06
-1.02452e-07
-3.06712e-06
-1.16143e-07
-3.03482e-06
-1.30531e-07
-2.99884e-06
-1.4565e-07
-2.959e-06
-1.61531e-07
-2.91509e-06
-1.78205e-07
-2.86692e-06
-1.957e-07
-2.81429e-06
-2.14042e-07
-2.75698e-06
-2.33254e-07
-2.69478e-06
-2.53354e-07
-2.62747e-06
-2.74354e-07
-2.55482e-06
-2.96262e-07
-2.47663e-06
-3.19075e-07
-2.39267e-06
-3.42784e-07
-2.30273e-06
-3.67367e-07
-2.20662e-06
-3.92791e-07
-2.10414e-06
-4.19008e-07
-1.99512e-06
-4.45951e-07
-1.87941e-06
-4.73538e-07
-1.75688e-06
-5.01665e-07
-1.62743e-06
-5.30204e-07
-1.49102e-06
-5.59004e-07
-1.34762e-06
-5.87888e-07
-1.19727e-06
-6.16651e-07
-1.04006e-06
-6.45063e-07
-8.76161e-07
-6.72866e-07
-7.05782e-07
-6.99778e-07
-5.29224e-07
-7.25498e-07
-3.46857e-07
-7.49709e-07
-1.59121e-07
-7.72087e-07
3.34656e-08
-7.92305e-07
2.30303e-07
-8.10033e-07
4.30719e-07
-8.2496e-07
6.33952e-07
-8.36786e-07
8.39161e-07
-8.45224e-07
1.04546e-06
-8.5003e-07