/*--------------------------------*- C++ -*----------------------------------*\
| =========                 |                                                 |
| \\      /  F ield         | OpenFOAM: The Open Source CFD Toolbox           |
|  \\    /   O peration     | Version:  2412                                  |
|   \\  /    A nd           | Website:  www.openfoam.com                      |
|    \\/     M anipulation  |                                                 |
\*---------------------------------------------------------------------------*/
FoamFile
{
    version     2.0;
    format      ascii;
    arch        "LSB;label=32;scalar=64";
    class       volVectorField;
    location    "0.04";
    object      U;
}
// * * * * * * * * * * * * * * * * * * * * * * * * * * * * * * * * * * * * * //

dimensions      [0 1 -1 0 0 0 0];

internalField   nonuniform List<vector> 
12225
(
(0.377256 -0.200928 0)
(0.543803 -0.0518292 0)
(0.709963 -0.033814 0)
(0.891465 -0.0301846 0)
(1.05471 -0.0293693 0)
(1.20216 -0.0279931 0)
(1.33683 -0.0259785 0)
(1.45814 -0.0239552 0)
(1.56657 -0.0220632 0)
(1.6634 -0.0202834 0)
(1.74981 -0.018611 0)
(1.82673 -0.017035 0)
(1.89496 -0.0155311 0)
(1.95517 -0.0140554 0)
(2.00768 -0.0125873 0)
(2.05335 -0.0109867 0)
(2.089 -0.00903332 0)
(2.13133 -0.0115525 0)
(0.933549 -0.0317575 0)
(1.05637 -0.0584874 0)
(1.23529 -0.0684651 0)
(1.41865 -0.0638468 0)
(1.58059 -0.0609809 0)
(1.72703 -0.0579453 0)
(1.86108 -0.0543532 0)
(1.98259 -0.0507707 0)
(2.09204 -0.0473246 0)
(2.19049 -0.0440177 0)
(2.2789 -0.0408591 0)
(2.3581 -0.0378286 0)
(2.42882 -0.034877 0)
(2.49164 -0.0319212 0)
(2.54694 -0.0289024 0)
(2.59503 -0.025446 0)
(2.63543 -0.0224089 0)
(2.6693 -0.0134629 0)
(1.39963 -0.0846284 0)
(1.49133 -0.105294 0)
(1.65311 -0.106506 0)
(1.81944 -0.100876 0)
(1.96744 -0.0966016 0)
(2.10263 -0.0919454 0)
(2.2271 -0.086712 0)
(2.34057 -0.0814377 0)
(2.4434 -0.0762887 0)
(2.53637 -0.0713042 0)
(2.62023 -0.0665012 0)
(2.69566 -0.0618504 0)
(2.76324 -0.0572807 0)
(2.82347 -0.0526755 0)
(2.8767 -0.0479007 0)
(2.92308 -0.0425854 0)
(2.96257 -0.0368478 0)
(2.99375 -0.0271393 0)
(1.89738 -0.11531 0)
(1.94565 -0.142722 0)
(2.07348 -0.143899 0)
(2.2141 -0.139202 0)
(2.34248 -0.133746 0)
(2.46169 -0.127549 0)
(2.57255 -0.120731 0)
(2.6744 -0.113761 0)
(2.76733 -0.106869 0)
(2.85183 -0.100146 0)
(2.9284 -0.0936211 0)
(2.99753 -0.0872622 0)
(3.05966 -0.0809808 0)
(3.11519 -0.0746291 0)
(3.16441 -0.0680096 0)
(3.20738 -0.0607048 0)
(3.2444 -0.0524287 0)
(3.27339 -0.0400324 0)
(2.43104 -0.125631 0)
(2.43984 -0.169065 0)
(2.52693 -0.175928 0)
(2.63645 -0.174051 0)
(2.74108 -0.168485 0)
(2.84072 -0.161365 0)
(2.93491 -0.153384 0)
(3.02244 -0.14504 0)
(3.10302 -0.13665 0)
(3.17682 -0.128373 0)
(3.24407 -0.120267 0)
(3.30505 -0.112305 0)
(3.36005 -0.104394 0)
(3.40936 -0.0963628 0)
(3.45319 -0.087968 0)
(3.49158 -0.0787603 0)
(3.52515 -0.0682095 0)
(3.55148 -0.0537597 0)
(2.99677 -0.123381 0)
(2.97625 -0.184266 0)
(3.0227 -0.199532 0)
(3.09828 -0.202221 0)
(3.17616 -0.198053 0)
(3.25342 -0.190949 0)
(3.32842 -0.182451 0)
(3.39937 -0.173241 0)
(3.46554 -0.163763 0)
(3.52673 -0.154268 0)
(3.58292 -0.144856 0)
(3.63416 -0.135523 0)
(3.68059 -0.126179 0)
(3.72235 -0.116651 0)
(3.75961 -0.106669 0)
(3.79238 -0.0957893 0)
(3.82152 -0.0834051 0)
(3.8443 -0.0676243 0)
(3.58826 -0.114087 0)
(3.55013 -0.189169 0)
(3.56113 -0.213472 0)
(3.6029 -0.221918 0)
(3.65263 -0.220643 0)
(3.70568 -0.214632 0)
(3.75964 -0.206384 0)
(3.81223 -0.196924 0)
(3.8623 -0.186865 0)
(3.90929 -0.176571 0)
(3.95293 -0.166207 0)
(3.99305 -0.155808 0)
(4.02963 -0.145304 0)
(4.06269 -0.134533 0)
(4.09231 -0.123231 0)
(4.11848 -0.110991 0)
(4.14222 -0.0972496 0)
(4.1604 -0.0806924 0)
(4.19874 -0.101216 0)
(4.15321 -0.185318 0)
(4.13708 -0.217743 0)
(4.14823 -0.232178 0)
(4.17045 -0.234858 0)
(4.19887 -0.230962 0)
(4.23088 -0.223769 0)
(4.26402 -0.214729 0)
(4.29682 -0.204655 0)
(4.32845 -0.194043 0)
(4.35839 -0.183145 0)
(4.38629 -0.172046 0)
(4.41198 -0.160715 0)
(4.43533 -0.149018 0)
(4.4564 -0.136723 0)
(4.4751 -0.12349 0)
(4.49252 -0.108859 0)
(4.5051 -0.0919744 0)
(4.82179 -0.0871222 0)
(4.77587 -0.174746 0)
(4.7418 -0.213291 0)
(4.72794 -0.232899 0)
(4.72552 -0.239846 0)
(4.7306 -0.238781 0)
(4.74102 -0.233343 0)
(4.75458 -0.225363 0)
(4.76969 -0.215852 0)
(4.78537 -0.205433 0)
(4.80094 -0.194455 0)
(4.81591 -0.183071 0)
(4.82997 -0.171296 0)
(4.84291 -0.159043 0)
(4.8547 -0.146132 0)
(4.86522 -0.132305 0)
(4.87554 -0.117238 0)
(4.88163 -0.100419 0)
(5.4514 -0.0732825 0)
(5.40878 -0.15949 0)
(5.36478 -0.201646 0)
(5.33264 -0.224859 0)
(5.31016 -0.235546 0)
(5.29494 -0.237505 0)
(5.28564 -0.234242 0)
(5.28066 -0.22781 0)
(5.27863 -0.219359 0)
(5.27856 -0.209613 0)
(5.27974 -0.199006 0)
(5.28159 -0.187759 0)
(5.28375 -0.175947 0)
(5.28593 -0.163537 0)
(5.28803 -0.150415 0)
(5.28989 -0.13641 0)
(5.29256 -0.121337 0)
(5.29152 -0.104932 0)
(6.08161 -0.0604258 0)
(6.04342 -0.141247 0)
(5.99518 -0.184478 0)
(5.95116 -0.209468 0)
(5.91402 -0.222749 0)
(5.88285 -0.227337 0)
(5.85708 -0.226254 0)
(5.8359 -0.221567 0)
(5.81837 -0.214482 0)
(5.8037 -0.205765 0)
(5.79125 -0.195904 0)
(5.78049 -0.185176 0)
(5.77103 -0.173711 0)
(5.76259 -0.161534 0)
(5.75502 -0.148597 0)
(5.74811 -0.134815 0)
(5.74289 -0.120129 0)
(5.73437 -0.104448 0)
(6.65455 -0.0494987 0)
(6.61989 -0.122886 0)
(6.57117 -0.165102 0)
(6.52115 -0.190193 0)
(6.47531 -0.204612 0)
(6.43388 -0.210853 0)
(6.39676 -0.211382 0)
(6.36374 -0.208142 0)
(6.33439 -0.202322 0)
(6.3082 -0.194672 0)
(6.28472 -0.185687 0)
(6.26352 -0.175673 0)
(6.24428 -0.164796 0)
(6.22673 -0.153125 0)
(6.21075 -0.14067 0)
(6.1961 -0.127412 0)
(6.1838 -0.113356 0)
(6.16849 -0.0986387 0)
(7.20967 -0.039411 0)
(7.17953 -0.103682 0)
(7.13269 -0.143488 0)
(7.07998 -0.167679 0)
(7.02891 -0.182234 0)
(6.98078 -0.189357 0)
(6.93572 -0.190981 0)
(6.89393 -0.188844 0)
(6.85541 -0.184094 0)
(6.81997 -0.177439 0)
(6.78736 -0.16935 0)
(6.75732 -0.160136 0)
(6.72963 -0.149984 0)
(6.70409 -0.138996 0)
(6.68062 -0.127222 0)
(6.65896 -0.114699 0)
(6.64011 -0.101463 0)
(6.61855 -0.0878876 0)
(7.81805 -0.0296654 0)
(7.79278 -0.0819701 0)
(7.75006 -0.117 0)
(7.69763 -0.138838 0)
(7.64411 -0.152312 0)
(7.59208 -0.159411 0)
(7.54187 -0.161531 0)
(7.49389 -0.16009 0)
(7.44848 -0.156141 0)
(7.40576 -0.150345 0)
(7.36568 -0.143128 0)
(7.32815 -0.134781 0)
(7.29308 -0.125495 0)
(7.26039 -0.11539 0)
(7.23004 -0.104546 0)
(7.20184 -0.0930344 0)
(7.17669 -0.0809364 0)
(7.1492 -0.0687245 0)
(8.45848 -0.0207217 0)
(8.43838 -0.059114 0)
(8.40193 -0.0866011 0)
(8.35323 -0.104092 0)
(8.30076 -0.114862 0)
(8.24818 -0.120627 0)
(8.19625 -0.122328 0)
(8.14549 -0.120939 0)
(8.09647 -0.117313 0)
(8.04955 -0.112026 0)
(8.00489 -0.10545 0)
(7.96252 -0.0978425 0)
(7.92248 -0.0893859 0)
(7.88477 -0.0802094 0)
(7.84943 -0.0704091 0)
(7.81631 -0.0600776 0)
(7.78627 -0.0493172 0)
(7.75427 -0.0386349 0)
(9.0886 -0.0126254 0)
(9.07338 -0.0365768 0)
(9.0444 -0.0543619 0)
(9.00265 -0.0654529 0)
(8.95524 -0.0716773 0)
(8.90627 -0.0743856 0)
(8.85686 -0.0742396 0)
(8.80758 -0.0718279 0)
(8.75912 -0.0677244 0)
(8.71207 -0.0623557 0)
(8.66676 -0.0559991 0)
(8.62334 -0.0488473 0)
(8.58193 -0.0410477 0)
(8.54262 -0.0327178 0)
(8.5055 -0.0239573 0)
(8.47047 -0.0148636 0)
(8.43831 -0.0055182 0)
(8.40471 0.00355467 0)
(9.63291 -0.00516765 0)
(9.62141 -0.0150844 0)
(9.59909 -0.0221569 0)
(9.5651 -0.0255886 0)
(9.52506 -0.0261182 0)
(9.48296 -0.0245599 0)
(9.44001 -0.0213512 0)
(9.39668 -0.0168107 0)
(9.35358 -0.0112615 0)
(9.3113 -0.00497124 0)
(9.27024 0.00187672 0)
(9.23062 0.00915419 0)
(9.19259 0.0167592 0)
(9.15627 0.0246025 0)
(9.12176 0.0326035 0)
(9.089 0.0406693 0)
(9.05859 0.0487673 0)
(9.02751 0.0563924 0)
(9.96403 0.00208937 0)
(9.9545 0.00602755 0)
(9.93629 0.010278 0)
(9.90779 0.0152511 0)
(9.87372 0.0208808 0)
(9.83787 0.0269927 0)
(9.8015 0.033491 0)
(9.76499 0.0403199 0)
(9.7288 0.0474092 0)
(9.69342 0.0546872 0)
(9.6592 0.0620959 0)
(9.6263 0.0695869 0)
(9.59482 0.0771126 0)
(9.56481 0.0846214 0)
(9.53631 0.0920629 0)
(9.50931 0.0993618 0)
(9.48399 0.106527 0)
(9.45928 0.113135 0)
(9.87501 0.00940424 0)
(9.86706 0.0275227 0)
(9.85035 0.0436468 0)
(9.82343 0.0574905 0)
(9.79112 0.0694937 0)
(9.75724 0.0801503 0)
(9.72306 0.089773 0)
(9.68897 0.0985865 0)
(9.65545 0.106793 0)
(9.62298 0.114553 0)
(9.5919 0.121974 0)
(9.56234 0.129119 0)
(9.53436 0.136022 0)
(9.508 0.142695 0)
(9.48323 0.149131 0)
(9.46007 0.155296 0)
(9.43826 0.161206 0)
(9.41876 0.166565 0)
(9.28442 0.0176942 0)
(9.27109 0.0514407 0)
(9.24697 0.0797933 0)
(9.21208 0.102299 0)
(9.17263 0.120327 0)
(9.13258 0.135091 0)
(9.09302 0.147281 0)
(9.05435 0.157449 0)
(9.01708 0.166111 0)
(8.98171 0.173675 0)
(8.94846 0.180418 0)
(8.91742 0.186529 0)
(8.88858 0.19214 0)
(8.86188 0.197342 0)
(8.83722 0.202196 0)
(8.81456 0.206736 0)
(8.79337 0.211 0)
(8.77564 0.214821 0)
(8.47108 0.027629 0)
(8.45293 0.0783469 0)
(8.42123 0.11779 0)
(8.37919 0.147136 0)
(8.33468 0.16951 0)
(8.29138 0.18677 0)
(8.24999 0.199959 0)
(8.21081 0.210047 0)
(8.17427 0.217898 0)
(8.14066 0.224144 0)
(8.10999 0.229212 0)
(8.08216 0.233409 0)
(8.05704 0.236962 0)
(8.03445 0.240038 0)
(8.01422 0.242756 0)
(7.99622 0.245211 0)
(7.9799 0.247458 0)
(7.96729 0.249459 0)
(7.51246 0.039808 0)
(7.48723 0.108302 0)
(7.44819 0.156462 0)
(7.40289 0.189938 0)
(7.35931 0.214177 0)
(7.31958 0.231487 0)
(7.28366 0.24341 0)
(7.25158 0.251494 0)
(7.22343 0.25696 0)
(7.19905 0.260612 0)
(7.17814 0.262995 0)
(7.1604 0.264499 0)
(7.14549 0.265407 0)
(7.13312 0.265917 0)
(7.12299 0.266168 0)
(7.1149 0.266261 0)
(7.1083 0.266245 0)
(7.10492 0.266139 0)
(6.48937 0.0552583 0)
(6.45723 0.139984 0)
(6.41482 0.192022 0)
(6.37423 0.225533 0)
(6.34064 0.248193 0)
(6.31355 0.262599 0)
(6.29221 0.271006 0)
(6.27615 0.275506 0)
(6.26476 0.27749 0)
(6.25732 0.277819 0)
(6.2532 0.277075 0)
(6.25185 0.275668 0)
(6.25281 0.273881 0)
(6.25568 0.271903 0)
(6.26011 0.269856 0)
(6.26587 0.267826 0)
(6.27246 0.265853 0)
(6.28129 0.263989 0)
(5.45718 0.0741872 0)
(5.41899 0.16891 0)
(5.38065 0.218119 0)
(5.35651 0.247454 0)
(5.34458 0.265285 0)
(5.34098 0.274436 0)
(5.3441 0.277966 0)
(5.35265 0.278213 0)
(5.3652 0.276496 0)
(5.38063 0.273601 0)
(5.39815 0.27006 0)
(5.41715 0.266226 0)
(5.43715 0.262321 0)
(5.4578 0.258482 0)
(5.47881 0.254791 0)
(5.5 0.251295 0)
(5.52101 0.248014 0)
(5.54298 0.245007 0)
(4.45288 0.0953593 0)
(4.41278 0.189234 0)
(4.39248 0.228983 0)
(4.40037 0.250615 0)
(4.42242 0.261264 0)
(4.45181 0.264257 0)
(4.48656 0.26307 0)
(4.52476 0.25972 0)
(4.56468 0.255193 0)
(4.60522 0.250083 0)
(4.64574 0.244789 0)
(4.68581 0.239551 0)
(4.7251 0.234508 0)
(4.76343 0.229734 0)
(4.80066 0.225264 0)
(4.83676 0.221109 0)
(4.87152 0.217269 0)
(4.90589 0.213806 0)
(3.50299 0.114841 0)
(3.47373 0.194225 0)
(3.49108 0.21988 0)
(3.54485 0.232009 0)
(3.60836 0.235441 0)
(3.67471 0.233636 0)
(3.74277 0.229438 0)
(3.81079 0.224115 0)
(3.87734 0.218275 0)
(3.94173 0.212316 0)
(4.00368 0.206492 0)
(4.06304 0.200945 0)
(4.11975 0.195741 0)
(4.17386 0.190908 0)
(4.22543 0.186446 0)
(4.27457 0.182344 0)
(4.32126 0.178585 0)
(4.36634 0.175243 0)
(2.62987 0.12321 0)
(2.63273 0.177263 0)
(2.70359 0.189522 0)
(2.80814 0.193285 0)
(2.91281 0.191934 0)
(3.01392 0.188015 0)
(3.11222 0.182923 0)
(3.20667 0.177306 0)
(3.29642 0.171567 0)
(3.38129 0.165962 0)
(3.4614 0.160636 0)
(3.53694 0.155662 0)
(3.60813 0.151065 0)
(3.67523 0.146842 0)
(3.73851 0.142977 0)
(3.79825 0.139447 0)
(3.85459 0.136226 0)
(3.90828 0.133409 0)
(1.8518 0.104932 0)
(1.90692 0.134978 0)
(2.03194 0.142898 0)
(2.1813 0.141949 0)
(2.32102 0.138888 0)
(2.45094 0.135172 0)
(2.57387 0.130739 0)
(2.68968 0.126003 0)
(2.79798 0.121324 0)
(2.89905 0.116857 0)
(2.99337 0.112675 0)
(3.08145 0.108812 0)
(3.16376 0.105274 0)
(3.24077 0.102046 0)
(3.31292 0.0991063 0)
(3.38062 0.0964307 0)
(3.44417 0.0939818 0)
(3.5043 0.0918667 0)
(1.17531 0.0417266 0)
(1.28276 0.0664043 0)
(1.44006 0.0895606 0)
(1.61946 0.0900091 0)
(1.78515 0.0873061 0)
(1.93628 0.0846382 0)
(2.07719 0.0813621 0)
(2.20855 0.0778602 0)
(2.33023 0.074479 0)
(2.44277 0.0713033 0)
(2.54701 0.0683584 0)
(2.64371 0.0656596 0)
(2.73356 0.0632036 0)
(2.81718 0.0609734 0)
(2.89516 0.0589481 0)
(2.96802 0.0571102 0)
(3.03616 0.0553957 0)
(3.10029 0.0539017 0)
(0.469425 0.226504 0)
(0.642543 0.0692952 0)
(0.79003 0.0482944 0)
(0.974952 0.0447981 0)
(1.15346 0.0434703 0)
(1.3157 0.0422787 0)
(1.46595 0.0403404 0)
(1.60514 0.0381142 0)
(1.73303 0.0359803 0)
(1.85035 0.0340122 0)
(1.95824 0.0322057 0)
(2.05771 0.0305591 0)
(2.14959 0.0290658 0)
(2.23465 0.0277129 0)
(2.31357 0.0264843 0)
(2.38696 0.0253729 0)
(2.45532 0.0243241 0)
(2.51892 0.0234172 0)
(0.0300703 -0.0406021 -3.03872e-20)
(0.100502 -0.10262 2.81916e-20)
(0.187071 -0.125648 0)
(0.273066 -0.125529 0)
(0.347308 -0.113461 0)
(0.406884 -0.0957923 -2.40677e-20)
(0.451783 -0.0759428 0)
(0.482422 -0.055567 0)
(0.499484 -0.0351634 0)
(0.503573 -0.0148708 0)
(0.493096 0.00404545 2.31978e-20)
(0.470734 0.0200607 0)
(0.439235 0.0321688 0)
(0.400778 0.040102 0)
(0.35693 0.0443498 0)
(0.308446 0.0460502 2.39202e-20)
(0.25511 0.0468612 0)
(0.195849 0.0486556 0)
(0.128876 0.0530592 0)
(0.0518756 0.0609165 0)
(-0.0372814 0.0722218 0)
(-0.140371 0.0867802 0)
(-0.258533 0.10424 0)
(-0.391637 0.123116 2.24128e-20)
(-0.538358 0.141404 -2.14586e-20)
(-0.696342 0.157298 2.06034e-20)
(-0.862544 0.169525 1.98615e-20)
(-1.0336 0.17742 0)
(-1.20616 0.180868 0)
(-1.37716 0.180182 -1.83159e-20)
(-1.54394 0.17596 -1.79959e-20)
(-1.7044 0.168953 0)
(-1.857 0.159943 0)
(-2.00072 0.149669 -1.74265e-20)
(-2.13503 0.138771 0)
(-2.25977 0.127762 0)
(-2.37512 0.117031 1.71899e-20)
(-2.48146 0.106845 0)
(-2.57933 0.0973686 1.71077e-20)
(-2.66935 0.0886879 3.41497e-20)
(-2.7522 0.080826 0)
(-2.82853 0.0737637 0)
(-2.89898 0.0674538 0)
(-2.96415 0.0618325 0)
(-3.02457 0.0568283 0)
(-3.08072 0.0523679 3.37128e-20)
(-3.13303 0.0483801 3.36129e-20)
(-3.18187 0.0447982 3.35022e-20)
(-3.22754 0.041561 0)
(-3.27033 0.0386136 -3.32465e-20)
(-3.31044 0.0359067 0)
(-3.34807 0.0333964 3.29415e-20)
(-3.38336 0.0310438 3.27695e-20)
(-3.41643 0.028814 0)
(-3.44738 0.0266759 0)
(-3.47627 0.024601 0)
(-3.50313 0.0225636 3.19403e-20)
(-3.52799 0.0205402 0)
(-3.55085 0.0185099 0)
(-3.57168 0.0164545 0)
(-3.59043 0.0143592 0)
(-3.60705 0.0122161 0)
(-3.62146 0.0100252 0)
(-3.63357 0.00779728 0)
(-3.64327 0.0055704 0)
(-3.65042 0.0034175 -2.90987e-20)
(-3.65491 0.0013863 0)
(-3.65674 -0.000502588 0)
(-3.65643 -0.00222805 2.77493e-20)
(-3.6538 -0.00392935 2.72394e-20)
(-3.64882 -0.00566031 0)
(-3.64139 -0.00744482 -2.61226e-20)
(-3.6314 -0.00929613 2.55122e-20)
(-3.61872 -0.0112231 0)
(-3.60323 -0.0132329 -2.4178e-20)
(-3.58476 -0.0153318 0)
(-3.56316 -0.0175258 0)
(-3.53827 -0.0198208 2.18613e-20)
(-3.5099 -0.0222225 0)
(-3.47787 -0.0247367 -2.00797e-20)
(-3.44198 -0.0273689 0)
(-3.40204 -0.0301244 1.80844e-20)
(-3.35782 -0.0330086 1.69998e-20)
(-3.30912 -0.0360261 1.58534e-20)
(-3.2557 -0.0391814 2.92844e-20)
(-3.19734 -0.0424784 -2.67264e-20)
(-3.1338 -0.0459202 0)
(-3.06484 -0.0495092 0)
(-2.99022 -0.0532466 0)
(-2.90972 -0.0571327 -1.50175e-20)
(-2.82309 -0.0611658 -1.16908e-20)
(-2.73011 -0.0653429 8.19299e-21)
(-2.63057 -0.0696587 0)
(-2.52427 -0.0741056 -6.6333e-22)
(-2.41104 -0.0786735 3.3774e-21)
(-2.29073 -0.0833492 7.60691e-21)
(-2.16321 -0.0881165 0)
(-2.0284 -0.0929557 0)
(-1.88628 -0.0978434 0)
(-1.73686 -0.102752 2.64486e-20)
(-1.5802 -0.107651 0)
(-1.41646 -0.112502 0)
(-1.24585 -0.117264 -4.25707e-20)
(-1.06866 -0.121884 0)
(-0.885275 -0.126289 0)
(-0.696207 -0.130361 -6.02376e-20)
(-0.502121 -0.133883 0)
(-0.303842 -0.136432 0)
(-0.102256 -0.137305 7.83762e-20)
(0.102112 -0.13623 8.08646e-20)
(0.308748 -0.133956 0)
(0.516722 -0.131149 -8.03294e-20)
(0.724936 -0.127922 0)
(0.932387 -0.124295 7.8483e-20)
(1.13809 -0.120288 0)
(1.34107 -0.115926 7.56333e-20)
(1.54037 -0.111238 7.39242e-20)
(1.73504 -0.10626 0)
(1.92421 -0.101029 0)
(2.10703 -0.0955884 0)
(2.28275 -0.0899809 0)
(2.45067 -0.0842505 0)
(2.61017 -0.0784402 0)
(2.76073 -0.0725916 0)
(2.90189 -0.0667438 5.76678e-20)
(3.03328 -0.0609333 -5.5703e-20)
(3.15461 -0.0551932 0)
(3.26568 -0.0495527 0)
(3.36634 -0.0440376 0)
(3.45652 -0.0386711 0)
(3.53621 -0.0334724 -9.46198e-20)
(3.60544 -0.0284392 0)
(3.66427 -0.0235535 8.955e-20)
(3.71273 -0.0189098 -8.74015e-20)
(3.75102 -0.0145213 0)
(3.77953 -0.00914677 0)
(3.79464 -0.0015497 0)
(3.79242 0.00644738 8.15117e-20)
(3.77494 0.0136965 8.06676e-20)
(3.74432 0.0197129 0)
(3.70227 0.0244726 7.96775e-20)
(3.65036 0.028107 7.94897e-20)
(3.59012 0.0307168 -7.94767e-20)
(3.52304 0.0323608 0)
(3.45065 0.0330782 0)
(3.37455 0.0329203 -8.02636e-20)
(3.29637 0.0319695 0)
(3.21767 0.0303442 0)
(3.13989 0.0281925 0)
(3.0643 0.0256776 0)
(2.99195 0.0229612 8.30453e-20)
(2.92367 0.0201887 8.3657e-20)
(2.86001 0.0174812 0)
(2.80135 0.0149326 8.48258e-20)
(2.74785 0.0126101 0)
(2.69949 0.0105589 0)
(2.65612 0.00880728 8.63007e-20)
(2.6175 0.00736493 0)
(2.58327 0.00617625 8.70213e-20)
(2.5531 0.00511947 0)
(2.52689 0.00414775 0)
(2.50428 0.0033111 8.76248e-20)
(2.48484 0.0026483 0)
(2.46808 0.00216212 8.77478e-20)
(2.45349 0.00183694 0)
(2.44061 0.0016529 0)
(2.42898 0.00159317 0)
(2.41818 0.00164762 -8.7556e-20)
(2.40778 0.0018143 0)
(2.39732 0.0021007 8.73683e-20)
(2.38633 0.00252617 0)
(2.37422 0.00312624 0)
(2.36026 0.00396 0)
(2.34345 0.00512467 0)
(2.32244 0.00678195 0)
(2.2949 0.00919986 0)
(2.25834 0.0129498 0)
(2.20367 0.0185692 -1.775e-19)
(2.13619 0.0303054 0)
(1.97176 0.0413776 0)
(0.0546053 -0.225756 8.6296e-20)
(0.130199 -0.293624 -7.57807e-20)
(0.187769 -0.267031 0)
(0.2292 -0.223182 4.20765e-20)
(0.257154 -0.177451 0)
(0.273808 -0.132964 1.92709e-20)
(0.280738 -0.0906919 -3.80922e-20)
(0.27882 -0.0509594 -3.78036e-20)
(0.268367 -0.0137072 0)
(0.249984 0.0211464 -3.76313e-20)
(0.225054 0.0529176 -1.8824e-20)
(0.191535 0.0807653 0)
(0.147897 0.104598 0)
(0.0928483 0.125257 0)
(0.0252733 0.144372 0)
(-0.0558358 0.164033 -1.89046e-20)
(-0.15131 0.186407 0)
(-0.261718 0.212975 3.46972e-20)
(-0.387255 0.244156 0)
(-0.527423 0.279143 0)
(-0.680571 0.316038 -3.06766e-20)
(-0.843961 0.35237 0)
(-1.01418 0.385506 2.84332e-20)
(-1.18747 0.412907 -1.38141e-20)
(-1.36002 0.432627 1.33854e-20)
(-1.52838 0.443617 -1.30323e-20)
(-1.68964 0.445756 -1.27545e-20)
(-1.8416 0.439692 0)
(-1.98282 0.426614 0)
(-2.11259 0.408005 1.23134e-20)
(-2.23081 0.385432 -1.24873e-20)
(-2.33788 0.360382 0)
(-2.43453 0.334157 0)
(-2.5217 0.307823 1.2284e-20)
(-2.60041 0.282192 0)
(-2.67169 0.257838 0)
(-2.73652 0.235126 -1.23907e-20)
(-2.79577 0.21425 0)
(-2.8502 0.195275 1.2497e-20)
(-2.90047 0.178166 -2.49638e-20)
(-2.94711 0.162826 0)
(-2.99057 0.149119 0)
(-3.03121 0.136888 -5.00445e-20)
(-3.06934 0.125968 -5.00353e-20)
(-3.10518 0.116201 -5.00078e-20)
(-3.13894 0.107433 2.49323e-20)
(-3.17075 0.0995255 -2.5e-20)
(-3.20075 0.0923539 -7.47722e-20)
(-3.22903 0.0858066 4.97095e-20)
(-3.25567 0.0797857 2.48451e-20)
(-3.28072 0.0742059 0)
(-3.30422 0.0689926 -2.46862e-20)
(-3.32622 0.0640811 2.45037e-20)
(-3.34672 0.0594152 0)
(-3.36575 0.0549454 0)
(-3.38331 0.0506284 0)
(-3.39939 0.0464257 -2.40819e-20)
(-3.41401 0.0423029 0)
(-3.42714 0.0382289 4.74813e-20)
(-3.43878 0.0341756 0)
(-3.44894 0.030117 4.67281e-20)
(-3.4576 0.02603 0)
(-3.46478 0.0218954 -4.58489e-20)
(-3.47048 0.0177011 0)
(-3.47476 0.0134558 4.48293e-20)
(-3.47764 0.00920186 -2.21772e-20)
(-3.47917 0.0049889 0)
(-3.47923 0.00082209 -4.29626e-20)
(-3.47723 -0.00330922 -2.10502e-20)
(-3.47307 -0.00748929 -2.06559e-20)
(-3.4666 -0.0117666 0)
(-3.45769 -0.0161705 -1.99981e-20)
(-3.44619 -0.0207208 -1.93123e-20)
(-3.43198 -0.0254327 0)
(-3.41491 -0.0303188 1.82696e-20)
(-3.39483 -0.0353904 -3.57191e-20)
(-3.37159 -0.0406581 0)
(-3.34501 -0.0461319 -1.64564e-20)
(-3.31492 -0.051821 0)
(-3.28114 -0.0577342 4.56428e-20)
(-3.24347 -0.0638794 0)
(-3.20171 -0.0702636 -4.10573e-20)
(-3.15567 -0.0768925 -1.26692e-20)
(-3.10512 -0.0837707 1.23927e-20)
(-3.04984 -0.090901 2.30101e-20)
(-2.98962 -0.0982843 -2.11441e-20)
(-2.92423 -0.105919 0)
(-2.85343 -0.113801 0)
(-2.777 -0.121924 0)
(-2.69472 -0.130276 3.45787e-20)
(-2.60637 -0.138842 8.46381e-21)
(-2.51173 -0.147603 -5.90173e-21)
(-2.41061 -0.156534 0)
(-2.30282 -0.165604 -2.75368e-21)
(-2.18821 -0.174775 -2.39116e-21)
(-2.06663 -0.184005 -5.35047e-21)
(-1.938 -0.19324 0)
(-1.80224 -0.202423 0)
(-1.65933 -0.211487 0)
(-1.50931 -0.220357 -1.80467e-20)
(-1.35228 -0.228953 0)
(-1.18838 -0.237187 4.6297e-20)
(-1.01785 -0.244964 8.13441e-20)
(-0.840982 -0.252186 -5.99326e-20)
(-0.658166 -0.258745 0)
(-0.469865 -0.264525 -3.49901e-20)
(-0.276602 -0.26938 0)
(-0.0789332 -0.27311 -8.69488e-20)
(0.122609 -0.275416 4.35643e-20)
(0.327214 -0.276062 4.48085e-20)
(0.533842 -0.275193 0)
(0.741608 -0.273045 1.46882e-19)
(0.949673 -0.269697 -9.77159e-20)
(1.1571 -0.265179 -5.07716e-20)
(1.36294 -0.259524 0)
(1.56623 -0.252776 -5.05776e-20)
(1.76603 -0.244997 -1.47826e-19)
(1.96144 -0.236264 0)
(2.15159 -0.226666 -9.56152e-20)
(2.33568 -0.216303 -9.42623e-20)
(2.51296 -0.20528 -9.27241e-20)
(2.68276 -0.193706 0)
(2.84448 -0.181692 0)
(2.99762 -0.169346 0)
(3.14172 -0.156771 4.19643e-20)
(3.27643 -0.144068 4.24744e-20)
(3.40147 -0.131328 0)
(3.51662 -0.118637 7.9816e-20)
(3.62175 -0.10607 7.80448e-20)
(3.71678 -0.0936956 0)
(3.8017 -0.0815693 7.55826e-20)
(3.87654 -0.0697275 1.46733e-19)
(3.94139 -0.0581882 -7.26568e-20)
(3.99639 -0.0469942 -7.04225e-20)
(4.04169 -0.0360618 0)
(4.07735 -0.024599 0)
(4.10603 -0.0119808 0)
(4.13066 0.000628709 -6.81833e-20)
(4.14931 0.0125082 6.71544e-20)
(4.16036 0.0232716 1.3409e-19)
(4.16303 0.0328688 -6.69786e-20)
(4.15709 0.0413257 6.66792e-20)
(4.14254 0.0486157 6.68924e-20)
(4.1196 0.0546826 0)
(4.08865 0.0594616 0)
(4.05023 0.0629014 -6.7707e-20)
(4.00507 0.0649849 0)
(3.95405 0.0657419 0)
(3.89823 0.0652545 1.38676e-19)
(3.8388 0.0636531 0)
(3.777 0.0611063 7.08265e-20)
(3.71405 0.0578056 -7.14691e-20)
(3.65112 0.0539514 0)
(3.58924 0.0497385 7.3211e-20)
(3.52928 0.0453459 0)
(3.47193 0.0409297 0)
(3.41771 0.0366192 -7.55569e-20)
(3.36694 0.0325112 1.52671e-19)
(3.3198 0.0286554 -7.70163e-20)
(3.27634 0.025045 0)
(3.23653 0.0216906 0)
(3.20033 0.0186576 7.87212e-20)
(3.16765 0.0159991 0)
(3.13834 0.0137316 7.94486e-20)
(3.11221 0.0118489 0)
(3.08896 0.0103344 0)
(3.06828 0.009169 0)
(3.04983 0.00833772 8.00858e-20)
(3.03324 0.00783417 0)
(3.01814 0.00766557 -8.01404e-20)
(3.00415 0.00785901 0)
(2.99083 0.00847034 0)
(2.97775 0.00959972 1.60213e-19)
(2.96433 0.0114138 -1.60239e-19)
(2.94997 0.0142088 0)
(2.93357 0.0184354 0)
(2.9147 0.025181 0)
(2.88866 0.035321 4.84952e-19)
(2.86272 0.0557626 0)
(2.80154 0.0811337 -3.26386e-19)
(0.0387775 -0.401278 -5.68068e-23)
(0.0797681 -0.400103 9.55294e-20)
(0.0967114 -0.32433 0)
(0.104345 -0.253323 -7.62305e-20)
(0.104176 -0.188474 0)
(0.0965352 -0.128102 0)
(0.0816538 -0.0713191 4.48948e-23)
(0.059423 -0.0175621 3.39367e-20)
(0.0294862 0.0337138 3.37395e-20)
(-0.00868366 0.0831083 3.35618e-20)
(-0.0556858 0.131205 0)
(-0.112347 0.178185 0)
(-0.179791 0.224139 -3.1241e-20)
(-0.259229 0.269543 -6.06013e-20)
(-0.351641 0.315298 5.85749e-20)
(-0.457468 0.362404 0)
(-0.576334 0.411466 5.43851e-20)
(-0.706894 0.462235 -2.62106e-20)
(-0.846821 0.513389 0)
(-0.992968 0.562658 4.87097e-20)
(-1.14163 0.60724 2.34266e-20)
(-1.28892 0.644289 -4.57741e-20)
(-1.43126 0.671398 -2.20011e-20)
(-1.56573 0.686992 0)
(-1.6904 0.690531 4.28163e-20)
(-1.8043 0.682493 4.21683e-20)
(-1.90733 0.66419 0)
(-2.0001 0.637482 4.12457e-20)
(-2.08363 0.604487 0)
(-2.15915 0.567334 4.06698e-20)
(-2.22793 0.527965 1.98283e-20)
(-2.29114 0.488029 0)
(-2.34978 0.448825 0)
(-2.40466 0.411303 0)
(-2.4564 0.37609 0)
(-2.50548 0.343549 0)
(-2.55221 0.313826 0)
(-2.59682 0.28691 3.97214e-20)
(-2.6395 0.262684 -5.94269e-20)
(-2.68033 0.240961 0)
(-2.71942 0.221514 0)
(-2.75683 0.204107 0)
(-2.7926 0.188499 2.01255e-23)
(-2.8268 0.174465 3.93613e-20)
(-2.85946 0.161795 7.85431e-20)
(-2.89063 0.150298 -7.83836e-20)
(-2.92034 0.139805 -3.90718e-20)
(-2.94863 0.130167 3.90368e-20)
(-2.97553 0.121252 -6.47779e-23)
(-3.00106 0.112945 3.87438e-20)
(-3.02526 0.105148 0)
(-3.04814 0.0977744 3.84713e-20)
(-3.06971 0.0907489 -4.92153e-23)
(-3.08998 0.0840068 0)
(-3.10895 0.0774918 0)
(-3.12662 0.071155 -3.7765e-20)
(-3.14299 0.064954 0)
(-3.15804 0.0588526 0)
(-3.17175 0.0528199 3.70657e-20)
(-3.18412 0.0468302 7.35812e-20)
(-3.19512 0.0408626 -3.6472e-20)
(-3.20471 0.0349007 0)
(-3.21286 0.0289311 3.57904e-20)
(-3.21952 0.0229416 0)
(-3.22462 0.0169165 3.51586e-20)
(-3.22807 0.0108262 3.45661e-20)
(-3.22975 0.00462413 -6.83766e-20)
(-3.22952 -0.00173778 -3.38058e-20)
(-3.22724 -0.00830808 0)
(-3.22281 -0.0150884 6.5096e-20)
(-3.21612 -0.0220875 0)
(-3.20704 -0.0293204 9.358e-20)
(-3.19544 -0.036804 6.11055e-20)
(-3.18119 -0.0445552 5.95972e-20)
(-3.16414 -0.0525906 -5.79925e-20)
(-3.14415 -0.060926 8.41411e-20)
(-3.12105 -0.0695765 0)
(-3.09469 -0.0785561 0)
(-3.06488 -0.0878782 -5.05228e-20)
(-3.03146 -0.0975547 -7.21651e-20)
(-2.99422 -0.107596 0)
(-2.95297 -0.118011 2.14001e-20)
(-2.90752 -0.128808 0)
(-2.85764 -0.139989 -5.72486e-20)
(-2.80313 -0.151556 1.08527e-21)
(-2.74377 -0.163509 -1.15234e-21)
(-2.67933 -0.17584 2.96943e-20)
(-2.60959 -0.188538 0)
(-2.53433 -0.201589 -2.31146e-20)
(-2.45333 -0.21497 1.44171e-21)
(-2.36638 -0.228652 0)
(-2.27326 -0.242597 0)
(-2.17379 -0.256761 0)
(-2.06779 -0.271088 2.45527e-21)
(-1.9551 -0.285514 0)
(-1.83561 -0.29996 0)
(-1.7092 -0.314339 0)
(-1.57582 -0.328552 0)
(-1.43546 -0.342485 0)
(-1.28816 -0.356015 -2.24125e-20)
(-1.134 -0.369009 0)
(-0.973154 -0.381321 -3.43083e-20)
(-0.805834 -0.392799 -3.91751e-20)
(-0.632344 -0.403288 4.4048e-20)
(-0.453053 -0.412626 0)
(-0.2684 -0.420657 5.37427e-20)
(-0.0788856 -0.427235 0)
(0.114949 -0.432219 6.16199e-20)
(0.312495 -0.435499 -6.41452e-20)
(0.512954 -0.437004 -1.93811e-19)
(0.715436 -0.436647 0)
(0.919076 -0.43436 -2.04452e-19)
(1.12299 -0.43013 -6.62295e-20)
(1.32623 -0.423971 0)
(1.52787 -0.415925 -1.40829e-19)
(1.72696 -0.406063 -1.41762e-19)
(1.9226 -0.394481 2.15337e-19)
(2.11389 -0.381302 0)
(2.3 -0.366668 7.2697e-20)
(2.48016 -0.350739 7.21758e-20)
(2.65364 -0.333681 2.11182e-19)
(2.8198 -0.315672 0)
(2.97807 -0.296887 0)
(3.12796 -0.277502 0)
(3.26905 -0.257685 6.51967e-20)
(3.40099 -0.2376 0)
(3.52353 -0.217396 0)
(3.63647 -0.197213 -6.43624e-20)
(3.73968 -0.177178 -6.3302e-20)
(3.83311 -0.157403 0)
(3.91675 -0.137986 0)
(3.99066 -0.119002 -1.21006e-19)
(4.05494 -0.10051 0)
(4.10976 -0.0825519 1.18195e-19)
(4.1553 -0.0651229 1.1631e-19)
(4.19182 -0.0482179 0)
(4.22015 -0.0317751 0)
(4.24159 -0.0154599 -1.14997e-19)
(4.25675 0.000492937 -4.35874e-22)
(4.26561 0.0157484 -3.61901e-22)
(4.26813 0.0300743 0)
(4.26433 0.0432892 -2.31071e-19)
(4.25429 0.0552385 0)
(4.23817 0.0657851 0)
(4.21618 0.0747997 0)
(4.18859 0.0821635 1.19165e-19)
(4.15574 0.0877842 0)
(4.11807 0.0916138 -2.43864e-19)
(4.07611 0.093662 -1.2348e-19)
(4.03053 0.0940032 0)
(3.98207 0.0927745 -1.26963e-19)
(3.93155 0.0901672 0)
(3.87983 0.0864115 0)
(3.82777 0.0817593 -3.9862e-19)
(3.77614 0.0764661 2.69871e-19)
(3.72566 0.0707773 0)
(3.67692 0.0649174 2.77904e-19)
(3.63038 0.059077 -1.40803e-19)
(3.58639 0.0533841 0)
(3.54517 0.0478927 0)
(3.50679 0.042647 0)
(3.47126 0.0377257 -4.41775e-19)
(3.43853 0.0332075 0)
(3.40855 0.0291476 -1.49398e-19)
(3.3812 0.0255787 0)
(3.35633 0.022516 0)
(3.33372 0.0199635 0)
(3.31316 0.017921 0)
(3.29437 0.0163911 0)
(3.27706 0.015388 0)
(3.26093 0.0149462 -3.04335e-19)
(3.2456 0.0151334 0)
(3.23067 0.0160703 -1.52297e-19)
(3.21565 0.0179561 4.5698e-19)
(3.19996 0.0211449 0)
(3.18277 0.0261663 0)
(3.16358 0.0342359 -3.05756e-19)
(3.13994 0.0465604 -3.07433e-19)
(3.11588 0.0691337 3.07495e-19)
(3.07941 0.101996 3.10058e-19)
(0.00693877 -0.471813 -1.60593e-19)
(0.0105723 -0.402517 -1.36748e-19)
(-0.00385078 -0.313885 -7.77755e-20)
(-0.0212318 -0.23274 -3.45763e-20)
(-0.0433045 -0.15654 0)
(-0.0706597 -0.0837652 6.21809e-20)
(-0.103958 -0.0134888 -2.99494e-20)
(-0.143931 0.0549615 0)
(-0.191353 0.122183 -2.8877e-20)
(-0.246995 0.188773 0)
(-0.311488 0.255228 5.46804e-20)
(-0.385344 0.321825 0)
(-0.468949 0.388647 2.60312e-20)
(-0.56242 0.455651 5.03917e-20)
(-0.665382 0.52261 -4.86727e-20)
(-0.77676 0.588919 0)
(-0.894665 0.653386 -4.52976e-20)
(-1.01645 0.714124 0)
(-1.13897 0.768682 0)
(-1.2589 0.814397 -4.09562e-20)
(-1.37325 0.848888 0)
(-1.47968 0.870485 -8.083e-22)
(-1.57672 0.878494 0)
(-1.66387 0.873249 0)
(-1.74148 0.855976 9.93213e-22)
(-1.81054 0.828539 -3.59948e-20)
(-1.87239 0.793149 -3.6531e-20)
(-1.92847 0.752087 -3.52194e-20)
(-1.98016 0.707496 0)
(-2.02863 0.661248 -7.0159e-20)
(-2.07481 0.614877 0)
(-2.11935 0.569562 -3.49378e-20)
(-2.16269 0.526153 0)
(-2.20509 0.485214 0)
(-2.24665 0.447072 3.43589e-20)
(-2.28739 0.411867 0)
(-2.32727 0.379605 -3.40719e-20)
(-2.36622 0.35019 1.99822e-22)
(-2.40418 0.323463 6.75147e-20)
(-2.44105 0.299223 -6.74646e-20)
(-2.47679 0.277251 0)
(-2.51134 0.25732 0)
(-2.54467 0.239208 -3.34995e-20)
(-2.57676 0.222703 0)
(-2.6076 0.207607 -3.32388e-20)
(-2.63718 0.193738 3.3154e-20)
(-2.66551 0.180933 3.30639e-20)
(-2.6926 0.169043 0)
(-2.71846 0.157937 -3.28647e-20)
(-2.74309 0.147497 -3.27544e-20)
(-2.76651 0.137619 6.5283e-20)
(-2.78871 0.128212 -3.2509e-20)
(-2.80971 0.119195 -3.23725e-20)
(-2.8295 0.110495 0)
(-2.84808 0.10205 0)
(-2.86543 0.0938028 3.18985e-20)
(-2.88154 0.0857036 0)
(-2.8964 0.0777079 0)
(-2.90996 0.0697761 -6.26187e-20)
(-2.92221 0.0618725 -6.21656e-20)
(-2.9331 0.0539648 0)
(-2.94259 0.0460235 0)
(-2.95061 0.0380206 0)
(-2.95709 0.0299289 0)
(-2.96197 0.0217194 -5.93402e-20)
(-2.96513 0.0133575 5.88797e-20)
(-2.96649 0.00479998 5.78496e-20)
(-2.96595 -0.00398941 1.14273e-19)
(-2.96341 -0.0130502 0)
(-2.95878 -0.0224039 3.45374e-22)
(-2.95193 -0.0320704 0)
(-2.94276 -0.0420703 -5.29329e-20)
(-2.93115 -0.0524253 4.37394e-22)
(-2.91695 -0.0631571 -5.0472e-20)
(-2.90003 -0.0742871 4.912e-20)
(-2.88024 -0.0858364 5.4006e-22)
(-2.85743 -0.0978251 0)
(-2.83144 -0.110272 4.51468e-20)