/*--------------------------------*- C++ -*----------------------------------*\
| =========                 |                                                 |
| \\      /  F ield         | OpenFOAM: The Open Source CFD Toolbox           |
|  \\    /   O peration     | Version:  2412                                  |
|   \\  /    A nd           | Website:  www.openfoam.com                      |
|    \\/     M anipulation  |                                                 |
\*---------------------------------------------------------------------------*/
FoamFile
{
    version     2.0;
    format      ascii;
    arch        "LSB;label=32;scalar=64";
    class       volVectorField;
    location    "0.88";
    object      U;
}
// * * * * * * * * * * * * * * * * * * * * * * * * * * * * * * * * * * * * * //

dimensions      [0 1 -1 0 0 0 0];

internalField   nonuniform List<vector> 
800
(
(0.0010441 0 0)
(0.00313231 0 0)
(0.00522051 0 0)
(0.00730872 0 0)
(0.00939691 0 0)
(0.0114851 0 0)
(0.0135733 0 0)
(0.0156614 0 0)
(0.0177495 0 0)
(0.0198377 0 0)
(0.0219257 0 0)
(0.0240138 0 0)
(0.0261018 0 0)
(0.0281898 0 0)
(0.0302778 0 0)
(0.0323658 0 0)
(0.0344536 0 0)
(0.0365415 0 0)
(0.0386293 0 0)
(0.0407171 0 0)
(0.0428048 0 0)
(0.0448925 0 0)
(0.0469801 0 0)
(0.0490676 0 0)
(0.0511551 0 0)
(0.0532426 0 0)
(0.0553299 0 0)
(0.0574173 0 0)
(0.0595045 0 0)
(0.0615917 0 0)
(0.0636788 0 0)
(0.0657658 0 0)
(0.0678527 0 0)
(0.0699396 0 0)
(0.0720264 0 0)
(0.074113 0 0)
(0.0761997 0 0)
(0.0782862 0 0)
(0.0803726 0 0)
(0.0824589 0 0)
(0.0845451 0 0)
(0.0866313 0 0)
(0.0887173 0 0)
(0.0908032 0 0)
(0.092889 0 0)
(0.0949747 0 0)
(0.0970603 0 0)
(0.0991457 0 0)
(0.101231 0 0)
(0.103316 0 0)
(0.105401 0 0)
(0.107486 0 0)
(0.109571 0 0)
(0.111656 0 0)
(0.11374 0 0)
(0.115825 0 0)
(0.117909 0 0)
(0.119993 0 0)
(0.122077 0 0)
(0.124161 0 0)
(0.126245 0 0)
(0.128329 0 0)
(0.130412 0 0)
(0.132495 0 0)
(0.134578 0 0)
(0.136661 0 0)
(0.138744 0 0)
(0.140827 0 0)
(0.142909 0 0)
(0.144991 0 0)
(0.147073 0 0)
(0.149155 0 0)
(0.151237 0 0)
(0.153318 0 0)
(0.1554 0 0)
(0.157481 0 0)
(0.159562 0 0)
(0.161643 0 0)
(0.163723 0 0)
(0.165804 0 0)
(0.167884 0 0)
(0.169964 0 0)
(0.172044 0 0)
(0.174123 0 0)
(0.176202 0 0)
(0.178282 0 0)
(0.18036 0 0)
(0.182439 0 0)
(0.184518 0 0)
(0.186596 0 0)
(0.188674 0 0)
(0.190752 0 0)
(0.192829 0 0)
(0.194906 0 0)
(0.196983 0 0)
(0.19906 0 0)
(0.201137 0 0)
(0.203213 0 0)
(0.205289 0 0)
(0.207365 0 0)
(0.20944 0 0)
(0.211516 0 0)
(0.213591 0 0)
(0.215665 0 0)
(0.21774 0 0)
(0.219814 0 0)
(0.221888 0 0)
(0.223962 0 0)
(0.226035 0 0)
(0.228108 0 0)
(0.230181 0 0)
(0.232254 0 0)
(0.234326 0 0)
(0.236398 0 0)
(0.238469 0 0)
(0.240541 0 0)
(0.242612 0 0)
(0.244682 0 0)
(0.246753 0 0)
(0.248823 0 0)
(0.250893 0 0)
(0.252962 0 0)
(0.255031 0 0)
(0.2571 0 0)
(0.259168 0 0)
(0.261237 0 0)
(0.263304 0 0)
(0.265372 0 0)
(0.267439 0 0)
(0.269506 0 0)
(0.271572 0 0)
(0.273638 0 0)
(0.275704 0 0)
(0.27777 0 0)
(0.279835 0 0)
(0.281899 0 0)
(0.283963 0 0)
(0.286027 0 0)
(0.288091 0 0)
(0.290154 0 0)
(0.292217 0 0)
(0.294279 0 0)
(0.296341 0 0)
(0.298403 0 0)
(0.300464 0 0)
(0.302525 0 0)
(0.304586 0 0)
(0.306646 0 0)
(0.308705 0 0)
(0.310765 0 0)
(0.312823 0 0)
(0.314882 0 0)
(0.31694 0 0)
(0.318997 0 0)
(0.321055 0 0)
(0.323111 0 0)
(0.325168 0 0)
(0.327224 0 0)
(0.329279 0 0)
(0.331334 0 0)
(0.333388 0 0)
(0.335443 0 0)
(0.337496 0 0)
(0.339549 0 0)
(0.341602 0 0)
(0.343654 0 0)
(0.345706 0 0)
(0.347758 0 0)
(0.349808 0 0)
(0.351859 0 0)
(0.353909 0 0)
(0.355958 0 0)
(0.358007 0 0)
(0.360055 0 0)
(0.362103 0 0)
(0.364151 0 0)
(0.366198 0 0)
(0.368244 0 0)
(0.37029 0 0)
(0.372335 0 0)
(0.37438 0 0)
(0.376425 0 0)
(0.378468 0 0)
(0.380512 0 0)
(0.382554 0 0)
(0.384597 0 0)
(0.386638 0 0)
(0.38868 0 0)
(0.39072 0 0)
(0.39276 0 0)
(0.3948 0 0)
(0.396839 0 0)
(0.398877 0 0)
(0.400915 0 0)
(0.402952 0 0)
(0.404989 0 0)
(0.407025 0 0)
(0.40906 0 0)
(0.411095 0 0)
(0.413129 0 0)
(0.415163 0 0)
(0.417196 0 0)
(0.419228 0 0)
(0.42126 0 0)
(0.423291 0 0)
(0.425322 0 0)
(0.427352 0 0)
(0.429381 0 0)
(0.43141 0 0)
(0.433438 0 0)
(0.435466 0 0)
(0.437493 0 0)
(0.439519 0 0)
(0.441544 0 0)
(0.443569 0 0)
(0.445593 0 0)
(0.447617 0 0)
(0.449639 0 0)
(0.451662 0 0)
(0.453683 0 0)
(0.455704 0 0)
(0.457724 0 0)
(0.459743 0 0)
(0.461762 0 0)
(0.46378 0 0)
(0.465797 0 0)
(0.467814 0 0)
(0.46983 0 0)
(0.471845 0 0)
(0.473859 0 0)
(0.475873 0 0)
(0.477886 0 0)
(0.479898 0 0)
(0.481909 0 0)
(0.48392 0 0)
(0.48593 0 0)
(0.487939 0 0)
(0.489947 0 0)
(0.491955 0 0)
(0.493961 0 0)
(0.495967 0 0)
(0.497972 0 0)
(0.499977 0 0)
(0.50198 0 0)
(0.503983 0 0)
(0.505985 0 0)
(0.507986 0 0)
(0.509986 0 0)
(0.511986 0 0)
(0.513984 0 0)
(0.515982 0 0)
(0.517979 0 0)
(0.519975 0 0)
(0.52197 0 0)
(0.523965 0 0)
(0.525958 0 0)
(0.527951 0 0)
(0.529942 0 0)
(0.531933 0 0)
(0.533923 0 0)
(0.535912 0 0)
(0.5379 0 0)
(0.539887 0 0)
(0.541874 0 0)
(0.543859 0 0)
(0.545843 0 0)
(0.547827 0 0)
(0.549809 0 0)
(0.551791 0 0)
(0.553771 0 0)
(0.555751 0 0)
(0.557729 0 0)
(0.559707 0 0)
(0.561684 0 0)
(0.563659 0 0)
(0.565634 0 0)
(0.567608 0 0)
(0.56958 0 0)
(0.571552 0 0)
(0.573522 0 0)
(0.575492 0 0)
(0.57746 0 0)
(0.579428 0 0)
(0.581394 0 0)
(0.583359 0 0)
(0.585324 0 0)
(0.587287 0 0)
(0.589249 0 0)
(0.59121 0 0)
(0.59317 0 0)
(0.595128 0 0)
(0.597086 0 0)
(0.599042 0 0)
(0.600998 0 0)
(0.602952 0 0)
(0.604905 0 0)
(0.606857 0 0)
(0.608808 0 0)
(0.610757 0 0)
(0.612706 0 0)
(0.614653 0 0)
(0.616599 0 0)
(0.618543 0 0)
(0.620487 0 0)
(0.622429 0 0)
(0.62437 0 0)
(0.62631 0 0)
(0.628249 0 0)
(0.630186 0 0)
(0.632122 0 0)
(0.634057 0 0)
(0.63599 0 0)
(0.637922 0 0)
(0.639853 0 0)
(0.641783 0 0)
(0.643711 0 0)
(0.645638 0 0)
(0.647563 0 0)
(0.649487 0 0)
(0.65141 0 0)
(0.653331 0 0)
(0.655251 0 0)
(0.65717 0 0)
(0.659087 0 0)
(0.661003 0 0)
(0.662917 0 0)
(0.66483 0 0)
(0.666741 0 0)
(0.668651 0 0)
(0.67056 0 0)
(0.672467 0 0)
(0.674372 0 0)
(0.676276 0 0)
(0.678179 0 0)
(0.680079 0 0)
(0.681979 0 0)
(0.683877 0 0)
(0.685773 0 0)
(0.687668 0 0)
(0.689561 0 0)
(0.691452 0 0)
(0.693342 0 0)
(0.69523 0 0)
(0.697117 0 0)
(0.699002 0 0)
(0.700885 0 0)
(0.702766 0 0)
(0.704646 0 0)
(0.706524 0 0)
(0.708401 0 0)
(0.710275 0 0)
(0.712148 0 0)
(0.71402 0 0)
(0.715889 0 0)
(0.717757 0 0)
(0.719622 0 0)
(0.721486 0 0)
(0.723348 0 0)
(0.725209 0 0)
(0.727067 0 0)
(0.728924 0 0)
(0.730778 0 0)
(0.732631 0 0)
(0.734482 0 0)
(0.73633 0 0)
(0.738177 0 0)
(0.740022 0 0)
(0.741865 0 0)
(0.743706 0 0)
(0.745545 0 0)
(0.747381 0 0)
(0.749216 0 0)
(0.751049 0 0)
(0.752879 0 0)
(0.754708 0 0)
(0.756534 0 0)
(0.758358 0 0)
(0.76018 0 0)
(0.762 0 0)
(0.763817 0 0)
(0.765632 0 0)
(0.767446 0 0)
(0.769256 0 0)
(0.771065 0 0)
(0.772871 0 0)
(0.774675 0 0)
(0.776476 0 0)
(0.778275 0 0)
(0.780072 0 0)
(0.781866 0 0)
(0.783658 0 0)
(0.785447 0 0)
(0.787234 0 0)
(0.789018 0 0)
(0.7908 0 0)
(0.792579 0 0)
(0.794354 0 0)
(0.795967 0 0)
(0.76971 0 0)
(0.401011 0 0)
(-0.399785 0 0)
(-0.769521 0 0)
(-0.795963 0 0)
(-0.794351 0 0)
(-0.792576 0 0)
(-0.790797 0 0)
(-0.789016 0 0)
(-0.787231 0 0)
(-0.785444 0 0)
(-0.783655 0 0)
(-0.781863 0 0)
(-0.780069 0 0)
(-0.778273 0 0)
(-0.776474 0 0)
(-0.774672 0 0)
(-0.772868 0 0)
(-0.771062 0 0)
(-0.769254 0 0)
(-0.767443 0 0)
(-0.76563 0 0)
(-0.763815 0 0)
(-0.761997 0 0)
(-0.760178 0 0)
(-0.758356 0 0)
(-0.756532 0 0)
(-0.754705 0 0)
(-0.752877 0 0)
(-0.751046 0 0)
(-0.749214 0 0)
(-0.747379 0 0)
(-0.745542 0 0)
(-0.743704 0 0)
(-0.741863 0 0)
(-0.74002 0 0)
(-0.738175 0 0)
(-0.736328 0 0)
(-0.734479 0 0)
(-0.732629 0 0)
(-0.730776 0 0)
(-0.728921 0 0)
(-0.727065 0 0)
(-0.725206 0 0)
(-0.723346 0 0)
(-0.721484 0 0)
(-0.71962 0 0)
(-0.717754 0 0)
(-0.715887 0 0)
(-0.714017 0 0)
(-0.712146 0 0)
(-0.710273 0 0)
(-0.708399 0 0)
(-0.706522 0 0)
(-0.704644 0 0)
(-0.702764 0 0)
(-0.700883 0 0)
(-0.698999 0 0)
(-0.697114 0 0)
(-0.695228 0 0)
(-0.69334 0 0)
(-0.69145 0 0)
(-0.689558 0 0)
(-0.687665 0 0)
(-0.685771 0 0)
(-0.683874 0 0)
(-0.681977 0 0)
(-0.680077 0 0)
(-0.678176 0 0)
(-0.676274 0 0)
(-0.67437 0 0)
(-0.672465 0 0)
(-0.670558 0 0)
(-0.668649 0 0)
(-0.666739 0 0)
(-0.664828 0 0)
(-0.662915 0 0)
(-0.661001 0 0)
(-0.659085 0 0)
(-0.657168 0 0)
(-0.655249 0 0)
(-0.653329 0 0)
(-0.651408 0 0)
(-0.649485 0 0)
(-0.647561 0 0)
(-0.645636 0 0)
(-0.643709 0 0)
(-0.641781 0 0)
(-0.639851 0 0)
(-0.63792 0 0)
(-0.635988 0 0)
(-0.634055 0 0)
(-0.63212 0 0)
(-0.630184 0 0)
(-0.628247 0 0)
(-0.626308 0 0)
(-0.624368 0 0)
(-0.622427 0 0)
(-0.620485 0 0)
(-0.618541 0 0)
(-0.616597 0 0)
(-0.614651 0 0)
(-0.612704 0 0)
(-0.610755 0 0)
(-0.608806 0 0)
(-0.606855 0 0)
(-0.604903 0 0)
(-0.60295 0 0)
(-0.600996 0 0)
(-0.599041 0 0)
(-0.597084 0 0)
(-0.595127 0 0)
(-0.593168 0 0)
(-0.591208 0 0)
(-0.589247 0 0)
(-0.587285 0 0)
(-0.585322 0 0)
(-0.583358 0 0)
(-0.581392 0 0)
(-0.579426 0 0)
(-0.577459 0 0)
(-0.57549 0 0)
(-0.573521 0 0)
(-0.57155 0 0)
(-0.569579 0 0)
(-0.567606 0 0)
(-0.565632 0 0)
(-0.563658 0 0)
(-0.561682 0 0)
(-0.559705 0 0)
(-0.557728 0 0)
(-0.555749 0 0)
(-0.55377 0 0)
(-0.551789 0 0)
(-0.549808 0 0)
(-0.547825 0 0)
(-0.545842 0 0)
(-0.543857 0 0)
(-0.541872 0 0)
(-0.539886 0 0)
(-0.537899 0 0)
(-0.535911 0 0)
(-0.533922 0 0)
(-0.531932 0 0)
(-0.529941 0 0)
(-0.527949 0 0)
(-0.525957 0 0)
(-0.523963 0 0)
(-0.521969 0 0)
(-0.519974 0 0)
(-0.517978 0 0)
(-0.515981 0 0)
(-0.513983 0 0)
(-0.511984 0 0)
(-0.509985 0 0)
(-0.507985 0 0)
(-0.505984 0 0)
(-0.503982 0 0)
(-0.501979 0 0)
(-0.499975 0 0)
(-0.497971 0 0)
(-0.495966 0 0)
(-0.49396 0 0)
(-0.491953 0 0)
(-0.489946 0 0)
(-0.487937 0 0)
(-0.485928 0 0)
(-0.483918 0 0)
(-0.481908 0 0)
(-0.479896 0 0)
(-0.477884 0 0)
(-0.475871 0 0)
(-0.473858 0 0)
(-0.471843 0 0)
(-0.469828 0 0)
(-0.467813 0 0)
(-0.465796 0 0)
(-0.463779 0 0)
(-0.461761 0 0)
(-0.459742 0 0)
(-0.457723 0 0)
(-0.455703 0 0)
(-0.453682 0 0)
(-0.451661 0 0)
(-0.449638 0 0)
(-0.447616 0 0)
(-0.445592 0 0)
(-0.443568 0 0)
(-0.441543 0 0)
(-0.439518 0 0)
(-0.437491 0 0)
(-0.435465 0 0)
(-0.433437 0 0)
(-0.431409 0 0)
(-0.42938 0 0)
(-0.427351 0 0)
(-0.425321 0 0)
(-0.42329 0 0)
(-0.421259 0 0)
(-0.419227 0 0)
(-0.417195 0 0)
(-0.415162 0 0)
(-0.413128 0 0)
(-0.411094 0 0)
(-0.409059 0 0)
(-0.407024 0 0)
(-0.404988 0 0)
(-0.402951 0 0)
(-0.400914 0 0)
(-0.398876 0 0)
(-0.396838 0 0)
(-0.394799 0 0)
(-0.392759 0 0)
(-0.390719 0 0)
(-0.388679 0 0)
(-0.386638 0 0)
(-0.384596 0 0)
(-0.382554 0 0)
(-0.380511 0 0)
(-0.378468 0 0)
(-0.376424 0 0)
(-0.374379 0 0)
(-0.372335 0 0)
(-0.370289 0 0)
(-0.368243 0 0)
(-0.366197 0 0)
(-0.36415 0 0)
(-0.362103 0 0)
(-0.360055 0 0)
(-0.358006 0 0)
(-0.355957 0 0)
(-0.353908 0 0)
(-0.351858 0 0)
(-0.349808 0 0)
(-0.347757 0 0)
(-0.345705 0 0)
(-0.343654 0 0)
(-0.341601 0 0)
(-0.339549 0 0)
(-0.337496 0 0)
(-0.335442 0 0)
(-0.333388 0 0)
(-0.331333 0 0)
(-0.329278 0 0)
(-0.327223 0 0)
(-0.325167 0 0)
(-0.323111 0 0)
(-0.321054 0 0)
(-0.318997 0 0)
(-0.316939 0 0)
(-0.314881 0 0)
(-0.312823 0 0)
(-0.310764 0 0)
(-0.308705 0 0)
(-0.306645 0 0)
(-0.304585 0 0)
(-0.302525 0 0)
(-0.300464 0 0)
(-0.298403 0 0)
(-0.296341 0 0)
(-0.294279 0 0)
(-0.292216 0 0)
(-0.290154 0 0)
(-0.28809 0 0)
(-0.286027 0 0)
(-0.283963 0 0)
(-0.281899 0 0)
(-0.279834 0 0)
(-0.277769 0 0)
(-0.275704 0 0)
(-0.273638 0 0)
(-0.271572 0 0)
(-0.269505 0 0)
(-0.267439 0 0)
(-0.265371 0 0)
(-0.263304 0 0)
(-0.261236 0 0)
(-0.259168 0 0)
(-0.2571 0 0)
(-0.255031 0 0)
(-0.252962 0 0)
(-0.250892 0 0)
(-0.248822 0 0)
(-0.246752 0 0)
(-0.244682 0 0)
(-0.242611 0 0)
(-0.24054 0 0)
(-0.238469 0 0)
(-0.236397 0 0)
(-0.234325 0 0)
(-0.232253 0 0)
(-0.230181 0 0)
(-0.228108 0 0)
(-0.226035 0 0)
(-0.223961 0 0)
(-0.221888 0 0)
(-0.219814 0 0)
(-0.21774 0 0)
(-0.215665 0 0)
(-0.21359 0 0)
(-0.211515 0 0)
(-0.20944 0 0)
(-0.207365 0 0)
(-0.205289 0 0)
(-0.203213 0 0)
(-0.201136 0 0)
(-0.19906 0 0)
(-0.196983 0 0)
(-0.194906 0 0)
(-0.192829 0 0)
(-0.190751 0 0)
(-0.188674 0 0)
(-0.186596 0 0)
(-0.184517 0 0)
(-0.182439 0 0)
(-0.18036 0 0)
(-0.178281 0 0)
(-0.176202 0 0)
(-0.174123 0 0)
(-0.172043 0 0)
(-0.169964 0 0)
(-0.167884 0 0)
(-0.165803 0 0)
(-0.163723 0 0)
(-0.161643 0 0)
(-0.159562 0 0)
(-0.157481 0 0)
(-0.1554 0 0)
(-0.153318 0 0)
(-0.151237 0 0)
(-0.149155 0 0)
(-0.147073 0 0)
(-0.144991 0 0)
(-0.142909 0 0)
(-0.140826 0 0)
(-0.138744 0 0)
(-0.136661 0 0)
(-0.134578 0 0)
(-0.132495 0 0)
(-0.130412 0 0)
(-0.128328 0 0)
(-0.126245 0 0)
(-0.124161 0 0)
(-0.122077 0 0)
(-0.119993 0 0)
(-0.117909 0 0)
(-0.115825 0 0)
(-0.11374 0 0)
(-0.111656 0 0)
(-0.109571 0 0)
(-0.107486 0 0)
(-0.105401 0 0)
(-0.103316 0 0)
(-0.101231 0 0)
(-0.0991457 0 0)
(-0.0970602 0 0)
(-0.0949746 0 0)
(-0.0928889 0 0)
(-0.0908031 0 0)
(-0.0887172 0 0)
(-0.0866312 0 0)
(-0.0845451 0 0)
(-0.0824589 0 0)
(-0.0803725 0 0)
(-0.0782861 0 0)
(-0.0761996 0 0)
(-0.074113 0 0)
(-0.0720263 0 0)
(-0.0699395 0 0)
(-0.0678527 0 0)
(-0.0657657 0 0)
(-0.0636787 0 0)
(-0.0615916 0 0)
(-0.0595045 0 0)
(-0.0574172 0 0)
(-0.0553299 0 0)
(-0.0532426 0 0)
(-0.0511551 0 0)
(-0.0490676 0 0)
(-0.0469801 0 0)
(-0.0448925 0 0)
(-0.0428048 0 0)
(-0.0407171 0 0)
(-0.0386293 0 0)
(-0.0365415 0 0)
(-0.0344536 0 0)
(-0.0323657 0 0)
(-0.0302778 0 0)
(-0.0281898 0 0)
(-0.0261018 0 0)
(-0.0240138 0 0)
(-0.0219257 0 0)
(-0.0198377 0 0)
(-0.0177495 0 0)
(-0.0156614 0 0)
(-0.0135733 0 0)
(-0.0114851 0 0)
(-0.00939692 0 0)
(-0.00730872 0 0)
(-0.00522052 0 0)
(-0.00313232 0 0)
(-0.00104411 0 0)
)
;

boundaryField
{
    left
    {
        type            fixedValue;
        value           uniform (0 0 0);
    }
    right
    {
        type            fixedValue;
        value           uniform (0 0 0);
    }
    frontBackUpDown
    {
        type            empty;
    }
}


// ************************************************************************* //
