/*--------------------------------*- C++ -*----------------------------------*\
| =========                 |                                                 |
| \\      /  F ield         | OpenFOAM: The Open Source CFD Toolbox           |
|  \\    /   O peration     | Version:  2412                                  |
|   \\  /    A nd           | Website:  www.openfoam.com                      |
|    \\/     M anipulation  |                                                 |
\*---------------------------------------------------------------------------*/
FoamFile
{
    version     2.0;
    format      ascii;
    arch        "LSB;label=32;scalar=64";
    class       volVectorField;
    location    "0.88";
    object      U_0;
}
// * * * * * * * * * * * * * * * * * * * * * * * * * * * * * * * * * * * * * //

dimensions      [0 1 -1 0 0 0 0];

internalField   nonuniform List<vector> 
800
(
(0.00104453 0 0)
(0.00313361 0 0)
(0.00522269 0 0)
(0.00731176 0 0)
(0.00940083 0 0)
(0.0114899 0 0)
(0.0135789 0 0)
(0.0156679 0 0)
(0.0177569 0 0)
(0.0198459 0 0)
(0.0219349 0 0)
(0.0240238 0 0)
(0.0261127 0 0)
(0.0282016 0 0)
(0.0302904 0 0)
(0.0323792 0 0)
(0.034468 0 0)
(0.0365567 0 0)
(0.0386454 0 0)
(0.040734 0 0)
(0.0428226 0 0)
(0.0449112 0 0)
(0.0469997 0 0)
(0.0490881 0 0)
(0.0511764 0 0)
(0.0532648 0 0)
(0.055353 0 0)
(0.0574412 0 0)
(0.0595293 0 0)
(0.0616173 0 0)
(0.0637053 0 0)
(0.0657932 0 0)
(0.067881 0 0)
(0.0699687 0 0)
(0.0720564 0 0)
(0.0741439 0 0)
(0.0762314 0 0)
(0.0783188 0 0)
(0.0804061 0 0)
(0.0824933 0 0)
(0.0845803 0 0)
(0.0866673 0 0)
(0.0887542 0 0)
(0.090841 0 0)
(0.0929277 0 0)
(0.0950142 0 0)
(0.0971007 0 0)
(0.099187 0 0)
(0.101273 0 0)
(0.103359 0 0)
(0.105445 0 0)
(0.107531 0 0)
(0.109617 0 0)
(0.111702 0 0)
(0.113788 0 0)
(0.115873 0 0)
(0.117958 0 0)
(0.120043 0 0)
(0.122128 0 0)
(0.124213 0 0)
(0.126298 0 0)
(0.128382 0 0)
(0.130466 0 0)
(0.13255 0 0)
(0.134634 0 0)
(0.136718 0 0)
(0.138802 0 0)
(0.140885 0 0)
(0.142968 0 0)
(0.145052 0 0)
(0.147134 0 0)
(0.149217 0 0)
(0.1513 0 0)
(0.153382 0 0)
(0.155464 0 0)
(0.157546 0 0)
(0.159628 0 0)
(0.16171 0 0)
(0.163791 0 0)
(0.165873 0 0)
(0.167954 0 0)
(0.170034 0 0)
(0.172115 0 0)
(0.174195 0 0)
(0.176276 0 0)
(0.178356 0 0)
(0.180435 0 0)
(0.182515 0 0)
(0.184594 0 0)
(0.186673 0 0)
(0.188752 0 0)
(0.190831 0 0)
(0.192909 0 0)
(0.194987 0 0)
(0.197065 0 0)
(0.199143 0 0)
(0.20122 0 0)
(0.203297 0 0)
(0.205374 0 0)
(0.207451 0 0)
(0.209527 0 0)
(0.211603 0 0)
(0.213679 0 0)
(0.215755 0 0)
(0.21783 0 0)
(0.219905 0 0)
(0.22198 0 0)
(0.224054 0 0)
(0.226129 0 0)
(0.228203 0 0)
(0.230276 0 0)
(0.23235 0 0)
(0.234423 0 0)
(0.236495 0 0)
(0.238568 0 0)
(0.24064 0 0)
(0.242712 0 0)
(0.244784 0 0)
(0.246855 0 0)
(0.248926 0 0)
(0.250996 0 0)
(0.253067 0 0)
(0.255137 0 0)
(0.257206 0 0)
(0.259276 0 0)
(0.261344 0 0)
(0.263413 0 0)
(0.265481 0 0)
(0.267549 0 0)
(0.269617 0 0)
(0.271684 0 0)
(0.273751 0 0)
(0.275818 0 0)
(0.277884 0 0)
(0.27995 0 0)
(0.282015 0 0)
(0.284081 0 0)
(0.286145 0 0)
(0.28821 0 0)
(0.290274 0 0)
(0.292337 0 0)
(0.294401 0 0)
(0.296463 0 0)
(0.298526 0 0)
(0.300588 0 0)
(0.30265 0 0)
(0.304711 0 0)
(0.306772 0 0)
(0.308832 0 0)
(0.310892 0 0)
(0.312952 0 0)
(0.315011 0 0)
(0.31707 0 0)
(0.319129 0 0)
(0.321186 0 0)
(0.323244 0 0)
(0.325301 0 0)
(0.327358 0 0)
(0.329414 0 0)
(0.33147 0 0)
(0.333525 0 0)
(0.33558 0 0)
(0.337635 0 0)
(0.339689 0 0)
(0.341742 0 0)
(0.343795 0 0)
(0.345848 0 0)
(0.3479 0 0)
(0.349952 0 0)
(0.352003 0 0)
(0.354053 0 0)
(0.356104 0 0)
(0.358153 0 0)
(0.360203 0 0)
(0.362251 0 0)
(0.3643 0 0)
(0.366347 0 0)
(0.368395 0 0)
(0.370441 0 0)
(0.372487 0 0)
(0.374533 0 0)
(0.376578 0 0)
(0.378623 0 0)
(0.380667 0 0)
(0.382711 0 0)
(0.384754 0 0)
(0.386796 0 0)
(0.388838 0 0)
(0.390879 0 0)
(0.39292 0 0)
(0.39496 0 0)
(0.397 0 0)
(0.399039 0 0)
(0.401078 0 0)
(0.403116 0 0)
(0.405153 0 0)
(0.40719 0 0)
(0.409226 0 0)
(0.411262 0 0)
(0.413297 0 0)
(0.415331 0 0)
(0.417365 0 0)
(0.419399 0 0)
(0.421431 0 0)
(0.423463 0 0)
(0.425495 0 0)
(0.427525 0 0)
(0.429555 0 0)
(0.431585 0 0)
(0.433614 0 0)
(0.435642 0 0)
(0.43767 0 0)
(0.439696 0 0)
(0.441723 0 0)
(0.443748 0 0)
(0.445773 0 0)
(0.447798 0 0)
(0.449821 0 0)
(0.451844 0 0)
(0.453866 0 0)
(0.455888 0 0)
(0.457909 0 0)
(0.459929 0 0)
(0.461948 0 0)
(0.463967 0 0)
(0.465985 0 0)
(0.468002 0 0)
(0.470019 0 0)
(0.472035 0 0)
(0.47405 0 0)
(0.476064 0 0)
(0.478078 0 0)
(0.48009 0 0)
(0.482103 0 0)
(0.484114 0 0)
(0.486125 0 0)
(0.488134 0 0)
(0.490143 0 0)
(0.492152 0 0)
(0.494159 0 0)
(0.496166 0 0)
(0.498172 0 0)
(0.500177 0 0)
(0.502181 0 0)
(0.504185 0 0)
(0.506187 0 0)
(0.508189 0 0)
(0.51019 0 0)
(0.51219 0 0)
(0.51419 0 0)
(0.516188 0 0)
(0.518186 0 0)
(0.520182 0 0)
(0.522178 0 0)
(0.524173 0 0)
(0.526167 0 0)
(0.528161 0 0)
(0.530153 0 0)
(0.532145 0 0)
(0.534135 0 0)
(0.536125 0 0)
(0.538114 0 0)
(0.540102 0 0)
(0.542088 0 0)
(0.544074 0 0)
(0.546059 0 0)
(0.548044 0 0)
(0.550027 0 0)
(0.552009 0 0)
(0.55399 0 0)
(0.55597 0 0)
(0.55795 0 0)
(0.559928 0 0)
(0.561905 0 0)
(0.563882 0 0)
(0.565857 0 0)
(0.567831 0 0)
(0.569805 0 0)
(0.571777 0 0)
(0.573748 0 0)
(0.575718 0 0)
(0.577687 0 0)
(0.579655 0 0)
(0.581622 0 0)
(0.583588 0 0)
(0.585553 0 0)
(0.587517 0 0)
(0.58948 0 0)
(0.591441 0 0)
(0.593402 0 0)
(0.595361 0 0)
(0.597319 0 0)
(0.599276 0 0)
(0.601232 0 0)
(0.603187 0 0)
(0.605141 0 0)
(0.607093 0 0)
(0.609045 0 0)
(0.610995 0 0)
(0.612944 0 0)
(0.614892 0 0)
(0.616838 0 0)
(0.618784 0 0)
(0.620728 0 0)
(0.622671 0 0)
(0.624612 0 0)
(0.626553 0 0)
(0.628492 0 0)
(0.63043 0 0)
(0.632366 0 0)
(0.634302 0 0)
(0.636236 0 0)
(0.638168 0 0)
(0.6401 0 0)
(0.64203 0 0)
(0.643959 0 0)
(0.645886 0 0)
(0.647812 0 0)
(0.649737 0 0)
(0.65166 0 0)
(0.653582 0 0)
(0.655502 0 0)
(0.657422 0 0)
(0.659339 0 0)
(0.661256 0 0)
(0.66317 0 0)
(0.665084 0 0)
(0.666996 0 0)
(0.668906 0 0)
(0.670815 0 0)
(0.672723 0 0)
(0.674629 0 0)
(0.676533 0 0)
(0.678436 0 0)
(0.680338 0 0)
(0.682237 0 0)
(0.684136 0 0)
(0.686033 0 0)
(0.687928 0 0)
(0.689821 0 0)
(0.691713 0 0)
(0.693604 0 0)
(0.695492 0 0)
(0.697379 0 0)
(0.699265 0 0)
(0.701148 0 0)
(0.70303 0 0)
(0.704911 0 0)
(0.706789 0 0)
(0.708666 0 0)
(0.710541 0 0)
(0.712415 0 0)
(0.714286 0 0)
(0.716156 0 0)
(0.718024 0 0)
(0.71989 0 0)
(0.721755 0 0)
(0.723617 0 0)
(0.725478 0 0)
(0.727337 0 0)
(0.729194 0 0)
(0.731049 0 0)
(0.732902 0 0)
(0.734753 0 0)
(0.736602 0 0)
(0.73845 0 0)
(0.740295 0 0)
(0.742138 0 0)
(0.743979 0 0)
(0.745818 0 0)
(0.747656 0 0)
(0.749491 0 0)
(0.751324 0 0)
(0.753155 0 0)
(0.754983 0 0)
(0.75681 0 0)
(0.758634 0 0)
(0.760457 0 0)
(0.762277 0 0)
(0.764094 0 0)
(0.76591 0 0)
(0.767723 0 0)
(0.769534 0 0)
(0.771343 0 0)
(0.77315 0 0)
(0.774954 0 0)
(0.776755 0 0)
(0.778555 0 0)
(0.780351 0 0)
(0.782146 0 0)
(0.783938 0 0)
(0.785728 0 0)
(0.787515 0 0)
(0.789299 0 0)
(0.791081 0 0)
(0.79286 0 0)
(0.794636 0 0)
(0.796255 0 0)
(0.77008 0 0)
(0.401294 0 0)
(-0.400068 0 0)
(-0.76989 0 0)
(-0.796251 0 0)
(-0.794633 0 0)
(-0.792858 0 0)
(-0.791079 0 0)
(-0.789297 0 0)
(-0.787512 0 0)
(-0.785725 0 0)
(-0.783936 0 0)
(-0.782144 0 0)
(-0.780349 0 0)
(-0.778552 0 0)
(-0.776753 0 0)
(-0.774951 0 0)
(-0.773147 0 0)
(-0.771341 0 0)
(-0.769532 0 0)
(-0.767721 0 0)
(-0.765908 0 0)
(-0.764092 0 0)
(-0.762274 0 0)
(-0.760454 0 0)
(-0.758632 0 0)
(-0.756807 0 0)
(-0.754981 0 0)
(-0.753152 0 0)
(-0.751321 0 0)
(-0.749488 0 0)
(-0.747653 0 0)
(-0.745816 0 0)
(-0.743977 0 0)
(-0.742136 0 0)
(-0.740292 0 0)
(-0.738447 0 0)
(-0.7366 0 0)
(-0.734751 0 0)
(-0.7329 0 0)
(-0.731046 0 0)
(-0.729191 0 0)
(-0.727335 0 0)
(-0.725476 0 0)
(-0.723615 0 0)
(-0.721753 0 0)
(-0.719888 0 0)
(-0.718022 0 0)
(-0.716154 0 0)
(-0.714284 0 0)
(-0.712412 0 0)
(-0.710539 0 0)
(-0.708664 0 0)
(-0.706787 0 0)
(-0.704908 0 0)
(-0.703028 0 0)
(-0.701146 0 0)
(-0.699262 0 0)
(-0.697377 0 0)
(-0.69549 0 0)
(-0.693601 0 0)
(-0.691711 0 0)
(-0.689819 0 0)
(-0.687925 0 0)
(-0.68603 0 0)
(-0.684134 0 0)
(-0.682235 0 0)
(-0.680335 0 0)
(-0.678434 0 0)
(-0.676531 0 0)
(-0.674627 0 0)
(-0.672721 0 0)
(-0.670813 0 0)
(-0.668904 0 0)
(-0.666994 0 0)
(-0.665082 0 0)
(-0.663168 0 0)
(-0.661253 0 0)
(-0.659337 0 0)
(-0.657419 0 0)
(-0.6555 0 0)
(-0.65358 0 0)
(-0.651658 0 0)
(-0.649735 0 0)
(-0.64781 0 0)
(-0.645884 0 0)
(-0.643957 0 0)
(-0.642028 0 0)
(-0.640098 0 0)
(-0.638166 0 0)
(-0.636234 0 0)
(-0.6343 0 0)
(-0.632364 0 0)
(-0.630428 0 0)
(-0.62849 0 0)
(-0.626551 0 0)
(-0.62461 0 0)
(-0.622669 0 0)
(-0.620726 0 0)
(-0.618782 0 0)
(-0.616836 0 0)
(-0.61489 0 0)
(-0.612942 0 0)
(-0.610993 0 0)
(-0.609043 0 0)
(-0.607092 0 0)
(-0.605139 0 0)
(-0.603185 0 0)
(-0.601231 0 0)
(-0.599275 0 0)
(-0.597318 0 0)
(-0.595359 0 0)
(-0.5934 0 0)
(-0.591439 0 0)
(-0.589478 0 0)
(-0.587515 0 0)
(-0.585551 0 0)
(-0.583587 0 0)
(-0.581621 0 0)
(-0.579654 0 0)
(-0.577686 0 0)
(-0.575716 0 0)
(-0.573746 0 0)
(-0.571775 0 0)
(-0.569803 0 0)
(-0.56783 0 0)
(-0.565855 0 0)
(-0.56388 0 0)
(-0.561904 0 0)
(-0.559926 0 0)
(-0.557948 0 0)
(-0.555969 0 0)
(-0.553989 0 0)
(-0.552007 0 0)
(-0.550025 0 0)
(-0.548042 0 0)
(-0.546058 0 0)
(-0.544073 0 0)
(-0.542087 0 0)
(-0.5401 0 0)
(-0.538112 0 0)
(-0.536123 0 0)
(-0.534134 0 0)
(-0.532143 0 0)
(-0.530152 0 0)
(-0.528159 0 0)
(-0.526166 0 0)
(-0.524172 0 0)
(-0.522177 0 0)
(-0.520181 0 0)
(-0.518184 0 0)
(-0.516187 0 0)
(-0.514188 0 0)
(-0.512189 0 0)
(-0.510189 0 0)
(-0.508188 0 0)
(-0.506186 0 0)
(-0.504183 0 0)
(-0.50218 0 0)
(-0.500175 0 0)
(-0.49817 0 0)
(-0.496165 0 0)
(-0.494158 0 0)
(-0.49215 0 0)
(-0.490142 0 0)
(-0.488133 0 0)
(-0.486123 0 0)
(-0.484113 0 0)
(-0.482101 0 0)
(-0.480089 0 0)
(-0.478076 0 0)
(-0.476063 0 0)
(-0.474048 0 0)
(-0.472033 0 0)
(-0.470017 0 0)
(-0.468001 0 0)
(-0.465984 0 0)
(-0.463966 0 0)
(-0.461947 0 0)
(-0.459928 0 0)
(-0.457907 0 0)
(-0.455887 0 0)
(-0.453865 0 0)
(-0.451843 0 0)
(-0.44982 0 0)
(-0.447796 0 0)
(-0.445772 0 0)
(-0.443747 0 0)
(-0.441722 0 0)
(-0.439695 0 0)
(-0.437668 0 0)
(-0.435641 0 0)
(-0.433613 0 0)
(-0.431584 0 0)
(-0.429554 0 0)
(-0.427524 0 0)
(-0.425494 0 0)
(-0.423462 0 0)
(-0.42143 0 0)
(-0.419398 0 0)
(-0.417364 0 0)
(-0.41533 0 0)
(-0.413296 0 0)
(-0.411261 0 0)
(-0.409225 0 0)
(-0.407189 0 0)
(-0.405152 0 0)
(-0.403115 0 0)
(-0.401077 0 0)
(-0.399038 0 0)
(-0.396999 0 0)
(-0.39496 0 0)
(-0.392919 0 0)
(-0.390878 0 0)
(-0.388837 0 0)
(-0.386795 0 0)
(-0.384753 0 0)
(-0.38271 0 0)
(-0.380666 0 0)
(-0.378622 0 0)
(-0.376577 0 0)
(-0.374532 0 0)
(-0.372487 0 0)
(-0.37044 0 0)
(-0.368394 0 0)
(-0.366347 0 0)
(-0.364299 0 0)
(-0.362251 0 0)
(-0.360202 0 0)
(-0.358153 0 0)
(-0.356103 0 0)
(-0.354053 0 0)
(-0.352002 0 0)
(-0.349951 0 0)
(-0.347899 0 0)
(-0.345847 0 0)
(-0.343795 0 0)
(-0.341741 0 0)
(-0.339688 0 0)
(-0.337634 0 0)
(-0.335579 0 0)
(-0.333525 0 0)
(-0.331469 0 0)
(-0.329413 0 0)
(-0.327357 0 0)
(-0.325301 0 0)
(-0.323243 0 0)
(-0.321186 0 0)
(-0.319128 0 0)
(-0.31707 0 0)
(-0.315011 0 0)
(-0.312951 0 0)
(-0.310892 0 0)
(-0.308832 0 0)
(-0.306771 0 0)
(-0.30471 0 0)
(-0.302649 0 0)
(-0.300587 0 0)
(-0.298525 0 0)
(-0.296463 0 0)
(-0.2944 0 0)
(-0.292337 0 0)
(-0.290273 0 0)
(-0.288209 0 0)
(-0.286145 0 0)
(-0.28408 0 0)
(-0.282015 0 0)
(-0.279949 0 0)
(-0.277884 0 0)
(-0.275817 0 0)
(-0.273751 0 0)
(-0.271684 0 0)
(-0.269617 0 0)
(-0.267549 0 0)
(-0.265481 0 0)
(-0.263413 0 0)
(-0.261344 0 0)
(-0.259275 0 0)
(-0.257206 0 0)
(-0.255136 0 0)
(-0.253066 0 0)
(-0.250996 0 0)
(-0.248925 0 0)
(-0.246854 0 0)
(-0.244783 0 0)
(-0.242712 0 0)
(-0.24064 0 0)
(-0.238568 0 0)
(-0.236495 0 0)
(-0.234422 0 0)
(-0.232349 0 0)
(-0.230276 0 0)
(-0.228202 0 0)
(-0.226128 0 0)
(-0.224054 0 0)
(-0.22198 0 0)
(-0.219905 0 0)
(-0.21783 0 0)
(-0.215755 0 0)
(-0.213679 0 0)
(-0.211603 0 0)
(-0.209527 0 0)
(-0.207451 0 0)
(-0.205374 0 0)
(-0.203297 0 0)
(-0.20122 0 0)
(-0.199142 0 0)
(-0.197065 0 0)
(-0.194987 0 0)
(-0.192909 0 0)
(-0.19083 0 0)
(-0.188752 0 0)
(-0.186673 0 0)
(-0.184594 0 0)
(-0.182515 0 0)
(-0.180435 0 0)
(-0.178355 0 0)
(-0.176275 0 0)
(-0.174195 0 0)
(-0.172115 0 0)
(-0.170034 0 0)
(-0.167953 0 0)
(-0.165872 0 0)
(-0.163791 0 0)
(-0.16171 0 0)
(-0.159628 0 0)
(-0.157546 0 0)
(-0.155464 0 0)
(-0.153382 0 0)
(-0.1513 0 0)
(-0.149217 0 0)
(-0.147134 0 0)
(-0.145051 0 0)
(-0.142968 0 0)
(-0.140885 0 0)
(-0.138802 0 0)
(-0.136718 0 0)
(-0.134634 0 0)
(-0.13255 0 0)
(-0.130466 0 0)
(-0.128382 0 0)
(-0.126297 0 0)
(-0.124213 0 0)
(-0.122128 0 0)
(-0.120043 0 0)
(-0.117958 0 0)
(-0.115873 0 0)
(-0.113788 0 0)
(-0.111702 0 0)
(-0.109617 0 0)
(-0.107531 0 0)
(-0.105445 0 0)
(-0.103359 0 0)
(-0.101273 0 0)
(-0.0991869 0 0)
(-0.0971006 0 0)
(-0.0950142 0 0)
(-0.0929276 0 0)
(-0.0908409 0 0)
(-0.0887542 0 0)
(-0.0866673 0 0)
(-0.0845803 0 0)
(-0.0824932 0 0)
(-0.080406 0 0)
(-0.0783187 0 0)
(-0.0762314 0 0)
(-0.0741439 0 0)
(-0.0720563 0 0)
(-0.0699687 0 0)
(-0.067881 0 0)
(-0.0657932 0 0)
(-0.0637053 0 0)
(-0.0616173 0 0)
(-0.0595293 0 0)
(-0.0574412 0 0)
(-0.055353 0 0)
(-0.0532647 0 0)
(-0.0511764 0 0)
(-0.0490881 0 0)
(-0.0469996 0 0)
(-0.0449112 0 0)
(-0.0428226 0 0)
(-0.040734 0 0)
(-0.0386454 0 0)
(-0.0365567 0 0)
(-0.034468 0 0)
(-0.0323792 0 0)
(-0.0302904 0 0)
(-0.0282016 0 0)
(-0.0261127 0 0)
(-0.0240238 0 0)
(-0.0219349 0 0)
(-0.0198459 0 0)
(-0.0177569 0 0)
(-0.0156679 0 0)
(-0.0135789 0 0)
(-0.0114899 0 0)
(-0.00940083 0 0)
(-0.00731177 0 0)
(-0.0052227 0 0)
(-0.00313362 0 0)
(-0.00104454 0 0)
)
;

boundaryField
{
    left
    {
        type            fixedValue;
        value           uniform (0 0 0);
    }
    right
    {
        type            fixedValue;
        value           uniform (0 0 0);
    }
    frontBackUpDown
    {
        type            empty;
    }
}


// ************************************************************************* //
