/*--------------------------------*- C++ -*----------------------------------*\
| =========                 |                                                 |
| \\      /  F ield         | OpenFOAM: The Open Source CFD Toolbox           |
|  \\    /   O peration     | Version:  2412                                  |
|   \\  /    A nd           | Website:  www.openfoam.com                      |
|    \\/     M anipulation  |                                                 |
\*---------------------------------------------------------------------------*/
FoamFile
{
    version     2.0;
    format      ascii;
    arch        "LSB;label=32;scalar=64";
    class       volVectorField;
    location    "0.88";
    object      U_0_0;
}
// * * * * * * * * * * * * * * * * * * * * * * * * * * * * * * * * * * * * * //

dimensions      [0 1 -1 0 0 0 0];

internalField   nonuniform List<vector> 
800
(
(0.00104497 0 0)
(0.00313492 0 0)
(0.00522487 0 0)
(0.00731481 0 0)
(0.00940475 0 0)
(0.0114947 0 0)
(0.0135846 0 0)
(0.0156745 0 0)
(0.0177643 0 0)
(0.0198542 0 0)
(0.021944 0 0)
(0.0240338 0 0)
(0.0261236 0 0)
(0.0282134 0 0)
(0.0303031 0 0)
(0.0323927 0 0)
(0.0344824 0 0)
(0.036572 0 0)
(0.0386615 0 0)
(0.040751 0 0)
(0.0428405 0 0)
(0.0449299 0 0)
(0.0470193 0 0)
(0.0491085 0 0)
(0.0511978 0 0)
(0.053287 0 0)
(0.0553761 0 0)
(0.0574651 0 0)
(0.0595541 0 0)
(0.061643 0 0)
(0.0637318 0 0)
(0.0658206 0 0)
(0.0679093 0 0)
(0.0699979 0 0)
(0.0720864 0 0)
(0.0741748 0 0)
(0.0762632 0 0)
(0.0783514 0 0)
(0.0804396 0 0)
(0.0825276 0 0)
(0.0846156 0 0)
(0.0867034 0 0)
(0.0887912 0 0)
(0.0908788 0 0)
(0.0929664 0 0)
(0.0950538 0 0)
(0.0971411 0 0)
(0.0992283 0 0)
(0.101315 0 0)
(0.103402 0 0)
(0.105489 0 0)
(0.107576 0 0)
(0.109662 0 0)
(0.111749 0 0)
(0.113835 0 0)
(0.115921 0 0)
(0.118007 0 0)
(0.120093 0 0)
(0.122179 0 0)
(0.124265 0 0)
(0.12635 0 0)
(0.128435 0 0)
(0.13052 0 0)
(0.132605 0 0)
(0.13469 0 0)
(0.136775 0 0)
(0.138859 0 0)
(0.140944 0 0)
(0.143028 0 0)
(0.145112 0 0)
(0.147196 0 0)
(0.149279 0 0)
(0.151363 0 0)
(0.153446 0 0)
(0.155529 0 0)
(0.157612 0 0)
(0.159695 0 0)
(0.161777 0 0)
(0.163859 0 0)
(0.165941 0 0)
(0.168023 0 0)
(0.170105 0 0)
(0.172186 0 0)
(0.174268 0 0)
(0.176349 0 0)
(0.17843 0 0)
(0.18051 0 0)
(0.182591 0 0)
(0.184671 0 0)
(0.186751 0 0)
(0.18883 0 0)
(0.19091 0 0)
(0.192989 0 0)
(0.195068 0 0)
(0.197147 0 0)
(0.199225 0 0)
(0.201304 0 0)
(0.203382 0 0)
(0.205459 0 0)
(0.207537 0 0)
(0.209614 0 0)
(0.211691 0 0)
(0.213768 0 0)
(0.215844 0 0)
(0.21792 0 0)
(0.219996 0 0)
(0.222072 0 0)
(0.224147 0 0)
(0.226222 0 0)
(0.228297 0 0)
(0.230372 0 0)
(0.232446 0 0)
(0.23452 0 0)
(0.236593 0 0)
(0.238667 0 0)
(0.24074 0 0)
(0.242812 0 0)
(0.244885 0 0)
(0.246957 0 0)
(0.249029 0 0)
(0.2511 0 0)
(0.253171 0 0)
(0.255242 0 0)
(0.257312 0 0)
(0.259383 0 0)
(0.261452 0 0)
(0.263522 0 0)
(0.265591 0 0)
(0.26766 0 0)
(0.269728 0 0)
(0.271796 0 0)
(0.273864 0 0)
(0.275932 0 0)
(0.277999 0 0)
(0.280065 0 0)
(0.282132 0 0)
(0.284198 0 0)
(0.286263 0 0)
(0.288328 0 0)
(0.290393 0 0)
(0.292458 0 0)
(0.294522 0 0)
(0.296586 0 0)
(0.298649 0 0)
(0.300712 0 0)
(0.302774 0 0)
(0.304836 0 0)
(0.306898 0 0)
(0.308959 0 0)
(0.31102 0 0)
(0.313081 0 0)
(0.315141 0 0)
(0.3172 0 0)
(0.31926 0 0)
(0.321318 0 0)
(0.323377 0 0)
(0.325435 0 0)
(0.327492 0 0)
(0.329549 0 0)
(0.331606 0 0)
(0.333662 0 0)
(0.335718 0 0)
(0.337773 0 0)
(0.339828 0 0)
(0.341882 0 0)
(0.343936 0 0)
(0.34599 0 0)
(0.348042 0 0)
(0.350095 0 0)
(0.352147 0 0)
(0.354198 0 0)
(0.356249 0 0)
(0.3583 0 0)
(0.36035 0 0)
(0.3624 0 0)
(0.364449 0 0)
(0.366497 0 0)
(0.368545 0 0)
(0.370593 0 0)
(0.37264 0 0)
(0.374686 0 0)
(0.376732 0 0)
(0.378777 0 0)
(0.380822 0 0)
(0.382867 0 0)
(0.38491 0 0)
(0.386954 0 0)
(0.388996 0 0)
(0.391039 0 0)
(0.39308 0 0)
(0.395121 0 0)
(0.397162 0 0)
(0.399202 0 0)
(0.401241 0 0)
(0.40328 0 0)
(0.405318 0 0)
(0.407356 0 0)
(0.409393 0 0)
(0.411429 0 0)
(0.413465 0 0)
(0.4155 0 0)
(0.417535 0 0)
(0.419569 0 0)
(0.421602 0 0)
(0.423635 0 0)
(0.425667 0 0)
(0.427699 0 0)
(0.42973 0 0)
(0.43176 0 0)
(0.433789 0 0)
(0.435818 0 0)
(0.437847 0 0)
(0.439874 0 0)
(0.441901 0 0)
(0.443928 0 0)
(0.445953 0 0)
(0.447978 0 0)
(0.450003 0 0)
(0.452026 0 0)
(0.454049 0 0)
(0.456072 0 0)
(0.458093 0 0)
(0.460114 0 0)
(0.462134 0 0)
(0.464154 0 0)
(0.466173 0 0)
(0.468191 0 0)
(0.470208 0 0)
(0.472225 0 0)
(0.47424 0 0)
(0.476255 0 0)
(0.47827 0 0)
(0.480283 0 0)
(0.482296 0 0)
(0.484308 0 0)
(0.48632 0 0)
(0.48833 0 0)
(0.49034 0 0)
(0.492349 0 0)
(0.494357 0 0)
(0.496365 0 0)
(0.498371 0 0)
(0.500377 0 0)
(0.502382 0 0)
(0.504386 0 0)
(0.50639 0 0)
(0.508392 0 0)
(0.510394 0 0)
(0.512395 0 0)
(0.514395 0 0)
(0.516394 0 0)
(0.518392 0 0)
(0.52039 0 0)
(0.522386 0 0)
(0.524382 0 0)
(0.526377 0 0)
(0.528371 0 0)
(0.530364 0 0)
(0.532356 0 0)
(0.534348 0 0)
(0.536338 0 0)
(0.538327 0 0)
(0.540316 0 0)
(0.542303 0 0)
(0.54429 0 0)
(0.546276 0 0)
(0.548261 0 0)
(0.550245 0 0)
(0.552227 0 0)
(0.554209 0 0)
(0.55619 0 0)
(0.55817 0 0)
(0.560149 0 0)
(0.562127 0 0)
(0.564104 0 0)
(0.56608 0 0)
(0.568055 0 0)
(0.570029 0 0)
(0.572002 0 0)
(0.573974 0 0)
(0.575945 0 0)
(0.577914 0 0)
(0.579883 0 0)
(0.581851 0 0)
(0.583817 0 0)
(0.585783 0 0)
(0.587747 0 0)
(0.589711 0 0)
(0.591673 0 0)
(0.593634 0 0)
(0.595594 0 0)
(0.597553 0 0)
(0.599511 0 0)
(0.601467 0 0)
(0.603423 0 0)
(0.605377 0 0)
(0.60733 0 0)
(0.609282 0 0)
(0.611233 0 0)
(0.613182 0 0)
(0.615131 0 0)
(0.617078 0 0)
(0.619024 0 0)
(0.620969 0 0)
(0.622912 0 0)
(0.624854 0 0)
(0.626795 0 0)
(0.628735 0 0)
(0.630674 0 0)
(0.632611 0 0)
(0.634547 0 0)
(0.636481 0 0)
(0.638415 0 0)
(0.640347 0 0)
(0.642277 0 0)
(0.644207 0 0)
(0.646135 0 0)
(0.648061 0 0)
(0.649986 0 0)
(0.65191 0 0)
(0.653833 0 0)
(0.655754 0 0)
(0.657673 0 0)
(0.659592 0 0)
(0.661509 0 0)
(0.663424 0 0)
(0.665338 0 0)
(0.66725 0 0)
(0.669161 0 0)
(0.671071 0 0)
(0.672979 0 0)
(0.674885 0 0)
(0.67679 0 0)
(0.678694 0 0)
(0.680596 0 0)
(0.682496 0 0)
(0.684395 0 0)
(0.686292 0 0)
(0.688188 0 0)
(0.690082 0 0)
(0.691975 0 0)
(0.693865 0 0)
(0.695755 0 0)
(0.697642 0 0)
(0.699528 0 0)
(0.701412 0 0)
(0.703295 0 0)
(0.705175 0 0)
(0.707054 0 0)
(0.708932 0 0)
(0.710807 0 0)
(0.712681 0 0)
(0.714553 0 0)
(0.716424 0 0)
(0.718292 0 0)
(0.720159 0 0)
(0.722024 0 0)
(0.723886 0 0)
(0.725748 0 0)
(0.727607 0 0)
(0.729464 0 0)
(0.73132 0 0)
(0.733173 0 0)
(0.735025 0 0)
(0.736874 0 0)
(0.738722 0 0)
(0.740568 0 0)
(0.742411 0 0)
(0.744253 0 0)
(0.746092 0 0)
(0.74793 0 0)
(0.749765 0 0)
(0.751599 0 0)
(0.75343 0 0)
(0.755259 0 0)
(0.757086 0 0)
(0.758911 0 0)
(0.760733 0 0)
(0.762554 0 0)
(0.764372 0 0)
(0.766188 0 0)
(0.768001 0 0)
(0.769813 0 0)
(0.771622 0 0)
(0.773428 0 0)
(0.775233 0 0)
(0.777035 0 0)
(0.778834 0 0)
(0.780631 0 0)
(0.782426 0 0)
(0.784218 0 0)
(0.786008 0 0)
(0.787796 0 0)
(0.78958 0 0)
(0.791362 0 0)
(0.793142 0 0)
(0.794918 0 0)
(0.796543 0 0)
(0.770449 0 0)
(0.401578 0 0)
(-0.400351 0 0)
(-0.77026 0 0)
(-0.796538 0 0)
(-0.794915 0 0)
(-0.79314 0 0)
(-0.79136 0 0)
(-0.789578 0 0)
(-0.787793 0 0)
(-0.786006 0 0)
(-0.784216 0 0)
(-0.782424 0 0)
(-0.780629 0 0)
(-0.778832 0 0)
(-0.777032 0 0)
(-0.77523 0 0)
(-0.773426 0 0)
(-0.771619 0 0)
(-0.76981 0 0)
(-0.767999 0 0)
(-0.766185 0 0)
(-0.764369 0 0)
(-0.762551 0 0)
(-0.760731 0 0)
(-0.758908 0 0)
(-0.757084 0 0)
(-0.755257 0 0)
(-0.753427 0 0)
(-0.751596 0 0)
(-0.749763 0 0)
(-0.747928 0 0)
(-0.74609 0 0)
(-0.74425 0 0)
(-0.742409 0 0)
(-0.740565 0 0)
(-0.73872 0 0)
(-0.736872 0 0)
(-0.735022 0 0)
(-0.733171 0 0)
(-0.731317 0 0)
(-0.729462 0 0)
(-0.727605 0 0)
(-0.725745 0 0)
(-0.723884 0 0)
(-0.722021 0 0)
(-0.720156 0 0)
(-0.71829 0 0)
(-0.716421 0 0)
(-0.714551 0 0)
(-0.712679 0 0)
(-0.710805 0 0)
(-0.70893 0 0)
(-0.707052 0 0)
(-0.705173 0 0)
(-0.703292 0 0)
(-0.70141 0 0)
(-0.699526 0 0)
(-0.69764 0 0)
(-0.695752 0 0)
(-0.693863 0 0)
(-0.691972 0 0)
(-0.69008 0 0)
(-0.688186 0 0)
(-0.68629 0 0)
(-0.684393 0 0)
(-0.682494 0 0)
(-0.680594 0 0)
(-0.678692 0 0)
(-0.676788 0 0)
(-0.674883 0 0)
(-0.672977 0 0)
(-0.671069 0 0)
(-0.669159 0 0)
(-0.667248 0 0)
(-0.665336 0 0)
(-0.663422 0 0)
(-0.661506 0 0)
(-0.65959 0 0)
(-0.657671 0 0)
(-0.655752 0 0)
(-0.653831 0 0)
(-0.651908 0 0)
(-0.649984 0 0)
(-0.648059 0 0)
(-0.646132 0 0)
(-0.644205 0 0)
(-0.642275 0 0)
(-0.640345 0 0)
(-0.638413 0 0)
(-0.636479 0 0)
(-0.634545 0 0)
(-0.632609 0 0)
(-0.630672 0 0)
(-0.628733 0 0)
(-0.626793 0 0)
(-0.624852 0 0)
(-0.62291 0 0)
(-0.620967 0 0)
(-0.619022 0 0)
(-0.617076 0 0)
(-0.615129 0 0)
(-0.613181 0 0)
(-0.611231 0 0)
(-0.60928 0 0)
(-0.607328 0 0)
(-0.605375 0 0)
(-0.603421 0 0)
(-0.601465 0 0)
(-0.599509 0 0)
(-0.597551 0 0)
(-0.595592 0 0)
(-0.593632 0 0)
(-0.591671 0 0)
(-0.589709 0 0)
(-0.587746 0 0)
(-0.585781 0 0)
(-0.583816 0 0)
(-0.581849 0 0)
(-0.579881 0 0)
(-0.577913 0 0)
(-0.575943 0 0)
(-0.573972 0 0)
(-0.572 0 0)
(-0.570027 0 0)
(-0.568053 0 0)
(-0.566078 0 0)
(-0.564103 0 0)
(-0.562126 0 0)
(-0.560148 0 0)
(-0.558169 0 0)
(-0.556189 0 0)
(-0.554208 0 0)
(-0.552226 0 0)
(-0.550243 0 0)
(-0.548259 0 0)
(-0.546274 0 0)
(-0.544289 0 0)
(-0.542302 0 0)
(-0.540314 0 0)
(-0.538326 0 0)
(-0.536336 0 0)
(-0.534346 0 0)
(-0.532355 0 0)
(-0.530363 0 0)
(-0.528369 0 0)
(-0.526376 0 0)
(-0.524381 0 0)
(-0.522385 0 0)
(-0.520388 0 0)
(-0.518391 0 0)
(-0.516393 0 0)
(-0.514393 0 0)
(-0.512393 0 0)
(-0.510392 0 0)
(-0.508391 0 0)
(-0.506388 0 0)
(-0.504385 0 0)
(-0.502381 0 0)
(-0.500376 0 0)
(-0.49837 0 0)
(-0.496363 0 0)
(-0.494356 0 0)
(-0.492348 0 0)
(-0.490339 0 0)
(-0.488329 0 0)
(-0.486318 0 0)
(-0.484307 0 0)
(-0.482295 0 0)
(-0.480282 0 0)
(-0.478269 0 0)
(-0.476254 0 0)
(-0.474239 0 0)
(-0.472223 0 0)
(-0.470207 0 0)
(-0.468189 0 0)
(-0.466171 0 0)
(-0.464153 0 0)
(-0.462133 0 0)
(-0.460113 0 0)
(-0.458092 0 0)
(-0.456071 0 0)
(-0.454048 0 0)
(-0.452025 0 0)
(-0.450002 0 0)
(-0.447977 0 0)
(-0.445952 0 0)
(-0.443927 0 0)
(-0.4419 0 0)
(-0.439873 0 0)
(-0.437846 0 0)
(-0.435817 0 0)
(-0.433788 0 0)
(-0.431759 0 0)
(-0.429728 0 0)
(-0.427698 0 0)
(-0.425666 0 0)
(-0.423634 0 0)
(-0.421601 0 0)
(-0.419568 0 0)
(-0.417534 0 0)
(-0.415499 0 0)
(-0.413464 0 0)
(-0.411428 0 0)
(-0.409392 0 0)
(-0.407355 0 0)
(-0.405317 0 0)
(-0.403279 0 0)
(-0.40124 0 0)
(-0.399201 0 0)
(-0.397161 0 0)
(-0.39512 0 0)
(-0.393079 0 0)
(-0.391038 0 0)
(-0.388996 0 0)
(-0.386953 0 0)
(-0.38491 0 0)
(-0.382866 0 0)
(-0.380821 0 0)
(-0.378777 0 0)
(-0.376731 0 0)
(-0.374685 0 0)
(-0.372639 0 0)
(-0.370592 0 0)
(-0.368544 0 0)
(-0.366496 0 0)
(-0.364448 0 0)
(-0.362399 0 0)
(-0.360349 0 0)
(-0.358299 0 0)
(-0.356249 0 0)
(-0.354198 0 0)
(-0.352146 0 0)
(-0.350094 0 0)
(-0.348042 0 0)
(-0.345989 0 0)
(-0.343935 0 0)
(-0.341882 0 0)
(-0.339827 0 0)
(-0.337772 0 0)
(-0.335717 0 0)
(-0.333661 0 0)
(-0.331605 0 0)
(-0.329549 0 0)
(-0.327492 0 0)
(-0.325434 0 0)
(-0.323376 0 0)
(-0.321318 0 0)
(-0.319259 0 0)
(-0.3172 0 0)
(-0.31514 0 0)
(-0.31308 0 0)
(-0.31102 0 0)
(-0.308959 0 0)
(-0.306897 0 0)
(-0.304836 0 0)
(-0.302774 0 0)
(-0.300711 0 0)
(-0.298648 0 0)
(-0.296585 0 0)
(-0.294521 0 0)
(-0.292457 0 0)
(-0.290393 0 0)
(-0.288328 0 0)
(-0.286263 0 0)
(-0.284197 0 0)
(-0.282131 0 0)
(-0.280065 0 0)
(-0.277998 0 0)
(-0.275931 0 0)
(-0.273864 0 0)
(-0.271796 0 0)
(-0.269728 0 0)
(-0.267659 0 0)
(-0.265591 0 0)
(-0.263522 0 0)
(-0.261452 0 0)
(-0.259382 0 0)
(-0.257312 0 0)
(-0.255242 0 0)
(-0.253171 0 0)
(-0.2511 0 0)
(-0.249028 0 0)
(-0.246956 0 0)
(-0.244884 0 0)
(-0.242812 0 0)
(-0.240739 0 0)
(-0.238666 0 0)
(-0.236593 0 0)
(-0.234519 0 0)
(-0.232445 0 0)
(-0.230371 0 0)
(-0.228297 0 0)
(-0.226222 0 0)
(-0.224147 0 0)
(-0.222072 0 0)
(-0.219996 0 0)
(-0.21792 0 0)
(-0.215844 0 0)
(-0.213767 0 0)
(-0.211691 0 0)
(-0.209614 0 0)
(-0.207537 0 0)
(-0.205459 0 0)
(-0.203381 0 0)
(-0.201303 0 0)
(-0.199225 0 0)
(-0.197147 0 0)
(-0.195068 0 0)
(-0.192989 0 0)
(-0.19091 0 0)
(-0.18883 0 0)
(-0.18675 0 0)
(-0.184671 0 0)
(-0.18259 0 0)
(-0.18051 0 0)
(-0.178429 0 0)
(-0.176349 0 0)
(-0.174268 0 0)
(-0.172186 0 0)
(-0.170105 0 0)
(-0.168023 0 0)
(-0.165941 0 0)
(-0.163859 0 0)
(-0.161777 0 0)
(-0.159694 0 0)
(-0.157612 0 0)
(-0.155529 0 0)
(-0.153446 0 0)
(-0.151363 0 0)
(-0.149279 0 0)
(-0.147196 0 0)
(-0.145112 0 0)
(-0.143028 0 0)
(-0.140944 0 0)
(-0.138859 0 0)
(-0.136775 0 0)
(-0.13469 0 0)
(-0.132605 0 0)
(-0.13052 0 0)
(-0.128435 0 0)
(-0.12635 0 0)
(-0.124265 0 0)
(-0.122179 0 0)
(-0.120093 0 0)
(-0.118007 0 0)
(-0.115921 0 0)
(-0.113835 0 0)
(-0.111749 0 0)
(-0.109662 0 0)
(-0.107576 0 0)
(-0.105489 0 0)
(-0.103402 0 0)
(-0.101315 0 0)
(-0.0992282 0 0)
(-0.0971411 0 0)
(-0.0950537 0 0)
(-0.0929663 0 0)
(-0.0908788 0 0)
(-0.0887911 0 0)
(-0.0867034 0 0)
(-0.0846155 0 0)
(-0.0825276 0 0)
(-0.0804395 0 0)
(-0.0783514 0 0)
(-0.0762631 0 0)
(-0.0741748 0 0)
(-0.0720864 0 0)
(-0.0699978 0 0)
(-0.0679093 0 0)
(-0.0658206 0 0)
(-0.0637318 0 0)
(-0.061643 0 0)
(-0.0595541 0 0)
(-0.0574651 0 0)
(-0.0553761 0 0)
(-0.0532869 0 0)
(-0.0511978 0 0)
(-0.0491085 0 0)
(-0.0470192 0 0)
(-0.0449299 0 0)
(-0.0428405 0 0)
(-0.040751 0 0)
(-0.0386615 0 0)
(-0.036572 0 0)
(-0.0344824 0 0)
(-0.0323927 0 0)
(-0.0303031 0 0)
(-0.0282134 0 0)
(-0.0261236 0 0)
(-0.0240338 0 0)
(-0.021944 0 0)
(-0.0198542 0 0)
(-0.0177644 0 0)
(-0.0156745 0 0)
(-0.0135846 0 0)
(-0.0114947 0 0)
(-0.00940476 0 0)
(-0.00731482 0 0)
(-0.00522488 0 0)
(-0.00313493 0 0)
(-0.00104498 0 0)
)
;

boundaryField
{
    left
    {
        type            fixedValue;
        value           uniform (0 0 0);
    }
    right
    {
        type            fixedValue;
        value           uniform (0 0 0);
    }
    frontBackUpDown
    {
        type            empty;
    }
}


// ************************************************************************* //
