/*--------------------------------*- C++ -*----------------------------------*\
| =========                 |                                                 |
| \\      /  F ield         | OpenFOAM: The Open Source CFD Toolbox           |
|  \\    /   O peration     | Version:  2412                                  |
|   \\  /    A nd           | Website:  www.openfoam.com                      |
|    \\/     M anipulation  |                                                 |
\*---------------------------------------------------------------------------*/
FoamFile
{
    version     2.0;
    format      ascii;
    arch        "LSB;label=32;scalar=64";
    class       volVectorField;
    location    "0.88";
    object      U_0_0_0;
}
// * * * * * * * * * * * * * * * * * * * * * * * * * * * * * * * * * * * * * //

dimensions      [0 1 -1 0 0 0 0];

internalField   nonuniform List<vector> 
800
(
(0.0010454 0 0)
(0.00313623 0 0)
(0.00522705 0 0)
(0.00731786 0 0)
(0.00940867 0 0)
(0.0114995 0 0)
(0.0135902 0 0)
(0.015681 0 0)
(0.0177718 0 0)
(0.0198625 0 0)
(0.0219532 0 0)
(0.0240439 0 0)
(0.0261345 0 0)
(0.0282251 0 0)
(0.0303157 0 0)
(0.0324063 0 0)
(0.0344968 0 0)
(0.0365872 0 0)
(0.0386777 0 0)
(0.040768 0 0)
(0.0428584 0 0)
(0.0449486 0 0)
(0.0470389 0 0)
(0.049129 0 0)
(0.0512191 0 0)
(0.0533092 0 0)
(0.0553992 0 0)
(0.0574891 0 0)
(0.0595789 0 0)
(0.0616687 0 0)
(0.0637584 0 0)
(0.0658481 0 0)
(0.0679376 0 0)
(0.0700271 0 0)
(0.0721165 0 0)
(0.0742058 0 0)
(0.076295 0 0)
(0.0783841 0 0)
(0.0804731 0 0)
(0.082562 0 0)
(0.0846509 0 0)
(0.0867396 0 0)
(0.0888282 0 0)
(0.0909167 0 0)
(0.0930051 0 0)
(0.0950934 0 0)
(0.0971816 0 0)
(0.0992697 0 0)
(0.101358 0 0)
(0.103445 0 0)
(0.105533 0 0)
(0.107621 0 0)
(0.109708 0 0)
(0.111795 0 0)
(0.113883 0 0)
(0.11597 0 0)
(0.118057 0 0)
(0.120143 0 0)
(0.12223 0 0)
(0.124316 0 0)
(0.126403 0 0)
(0.128489 0 0)
(0.130575 0 0)
(0.132661 0 0)
(0.134746 0 0)
(0.136832 0 0)
(0.138917 0 0)
(0.141002 0 0)
(0.143087 0 0)
(0.145172 0 0)
(0.147257 0 0)
(0.149341 0 0)
(0.151426 0 0)
(0.15351 0 0)
(0.155594 0 0)
(0.157677 0 0)
(0.159761 0 0)
(0.161844 0 0)
(0.163927 0 0)
(0.16601 0 0)
(0.168093 0 0)
(0.170176 0 0)
(0.172258 0 0)
(0.17434 0 0)
(0.176422 0 0)
(0.178504 0 0)
(0.180585 0 0)
(0.182666 0 0)
(0.184747 0 0)
(0.186828 0 0)
(0.188909 0 0)
(0.190989 0 0)
(0.193069 0 0)
(0.195149 0 0)
(0.197229 0 0)
(0.199308 0 0)
(0.201387 0 0)
(0.203466 0 0)
(0.205545 0 0)
(0.207623 0 0)
(0.209701 0 0)
(0.211779 0 0)
(0.213856 0 0)
(0.215934 0 0)
(0.218011 0 0)
(0.220087 0 0)
(0.222164 0 0)
(0.22424 0 0)
(0.226316 0 0)
(0.228392 0 0)
(0.230467 0 0)
(0.232542 0 0)
(0.234617 0 0)
(0.236691 0 0)
(0.238765 0 0)
(0.240839 0 0)
(0.242913 0 0)
(0.244986 0 0)
(0.247059 0 0)
(0.249132 0 0)
(0.251204 0 0)
(0.253276 0 0)
(0.255348 0 0)
(0.257419 0 0)
(0.25949 0 0)
(0.26156 0 0)
(0.263631 0 0)
(0.265701 0 0)
(0.26777 0 0)
(0.26984 0 0)
(0.271909 0 0)
(0.273977 0 0)
(0.276046 0 0)
(0.278113 0 0)
(0.280181 0 0)
(0.282248 0 0)
(0.284315 0 0)
(0.286381 0 0)
(0.288447 0 0)
(0.290513 0 0)
(0.292578 0 0)
(0.294643 0 0)
(0.296708 0 0)
(0.298772 0 0)
(0.300836 0 0)
(0.302899 0 0)
(0.304962 0 0)
(0.307024 0 0)
(0.309087 0 0)
(0.311148 0 0)
(0.31321 0 0)
(0.31527 0 0)
(0.317331 0 0)
(0.319391 0 0)
(0.321451 0 0)
(0.32351 0 0)
(0.325568 0 0)
(0.327627 0 0)
(0.329685 0 0)
(0.331742 0 0)
(0.333799 0 0)
(0.335856 0 0)
(0.337912 0 0)
(0.339967 0 0)
(0.342022 0 0)
(0.344077 0 0)
(0.346131 0 0)
(0.348185 0 0)
(0.350238 0 0)
(0.352291 0 0)
(0.354343 0 0)
(0.356395 0 0)
(0.358447 0 0)
(0.360497 0 0)
(0.362548 0 0)
(0.364598 0 0)
(0.366647 0 0)
(0.368696 0 0)
(0.370744 0 0)
(0.372792 0 0)
(0.374839 0 0)
(0.376886 0 0)
(0.378932 0 0)
(0.380978 0 0)
(0.383023 0 0)
(0.385068 0 0)
(0.387112 0 0)
(0.389155 0 0)
(0.391198 0 0)
(0.39324 0 0)
(0.395282 0 0)
(0.397324 0 0)
(0.399364 0 0)
(0.401404 0 0)
(0.403444 0 0)
(0.405483 0 0)
(0.407521 0 0)
(0.409559 0 0)
(0.411596 0 0)
(0.413633 0 0)
(0.415669 0 0)
(0.417704 0 0)
(0.419739 0 0)
(0.421773 0 0)
(0.423807 0 0)
(0.42584 0 0)
(0.427872 0 0)
(0.429904 0 0)
(0.431935 0 0)
(0.433965 0 0)
(0.435995 0 0)
(0.438024 0 0)
(0.440052 0 0)
(0.44208 0 0)
(0.444107 0 0)
(0.446134 0 0)
(0.44816 0 0)
(0.450185 0 0)
(0.452209 0 0)
(0.454233 0 0)
(0.456256 0 0)
(0.458278 0 0)
(0.4603 0 0)
(0.462321 0 0)
(0.464341 0 0)
(0.466361 0 0)
(0.468379 0 0)
(0.470397 0 0)
(0.472415 0 0)
(0.474431 0 0)
(0.476447 0 0)
(0.478462 0 0)
(0.480477 0 0)
(0.48249 0 0)
(0.484503 0 0)
(0.486515 0 0)
(0.488526 0 0)
(0.490537 0 0)
(0.492547 0 0)
(0.494555 0 0)
(0.496564 0 0)
(0.498571 0 0)
(0.500577 0 0)
(0.502583 0 0)
(0.504588 0 0)
(0.506592 0 0)
(0.508595 0 0)
(0.510598 0 0)
(0.512599 0 0)
(0.5146 0 0)
(0.5166 0 0)
(0.518599 0 0)
(0.520597 0 0)
(0.522595 0 0)
(0.524591 0 0)
(0.526587 0 0)
(0.528581 0 0)
(0.530575 0 0)
(0.532568 0 0)
(0.53456 0 0)
(0.536551 0 0)
(0.538541 0 0)
(0.54053 0 0)
(0.542519 0 0)
(0.544506 0 0)
(0.546493 0 0)
(0.548478 0 0)
(0.550463 0 0)
(0.552446 0 0)
(0.554429 0 0)
(0.55641 0 0)
(0.558391 0 0)
(0.560371 0 0)
(0.562349 0 0)
(0.564327 0 0)
(0.566303 0 0)
(0.568279 0 0)
(0.570254 0 0)
(0.572227 0 0)
(0.5742 0 0)
(0.576171 0 0)
(0.578142 0 0)
(0.580111 0 0)
(0.582079 0 0)
(0.584047 0 0)
(0.586013 0 0)
(0.587978 0 0)
(0.589942 0 0)
(0.591905 0 0)
(0.593866 0 0)
(0.595827 0 0)
(0.597787 0 0)
(0.599745 0 0)
(0.601702 0 0)
(0.603658 0 0)
(0.605613 0 0)
(0.607567 0 0)
(0.60952 0 0)
(0.611471 0 0)
(0.613421 0 0)
(0.61537 0 0)
(0.617318 0 0)
(0.619264 0 0)
(0.62121 0 0)
(0.623154 0 0)
(0.625097 0 0)
(0.627038 0 0)
(0.628979 0 0)
(0.630918 0 0)
(0.632855 0 0)
(0.634792 0 0)
(0.636727 0 0)
(0.638661 0 0)
(0.640594 0 0)
(0.642525 0 0)
(0.644455 0 0)
(0.646383 0 0)
(0.64831 0 0)
(0.650236 0 0)
(0.652161 0 0)
(0.654084 0 0)
(0.656005 0 0)
(0.657926 0 0)
(0.659844 0 0)
(0.661762 0 0)
(0.663678 0 0)
(0.665592 0 0)
(0.667505 0 0)
(0.669417 0 0)
(0.671327 0 0)
(0.673235 0 0)
(0.675142 0 0)
(0.677048 0 0)
(0.678952 0 0)
(0.680854 0 0)
(0.682755 0 0)
(0.684655 0 0)
(0.686552 0 0)
(0.688449 0 0)
(0.690343 0 0)
(0.692236 0 0)
(0.694127 0 0)
(0.696017 0 0)
(0.697905 0 0)
(0.699791 0 0)
(0.701676 0 0)
(0.703559 0 0)
(0.70544 0 0)
(0.70732 0 0)
(0.709198 0 0)
(0.711074 0 0)
(0.712948 0 0)
(0.71482 0 0)
(0.716691 0 0)
(0.71856 0 0)
(0.720427 0 0)
(0.722292 0 0)
(0.724156 0 0)
(0.726017 0 0)
(0.727877 0 0)
(0.729735 0 0)
(0.731591 0 0)
(0.733444 0 0)
(0.735296 0 0)
(0.737146 0 0)
(0.738994 0 0)
(0.74084 0 0)
(0.742684 0 0)
(0.744526 0 0)
(0.746366 0 0)
(0.748204 0 0)
(0.75004 0 0)
(0.751874 0 0)
(0.753705 0 0)
(0.755535 0 0)
(0.757362 0 0)
(0.759187 0 0)
(0.76101 0 0)
(0.762831 0 0)
(0.764649 0 0)
(0.766465 0 0)
(0.768279 0 0)
(0.770091 0 0)
(0.7719 0 0)
(0.773707 0 0)
(0.775512 0 0)
(0.777314 0 0)
(0.779114 0 0)
(0.780912 0 0)
(0.782707 0 0)
(0.784499 0 0)
(0.786289 0 0)
(0.788077 0 0)
(0.789862 0 0)
(0.791644 0 0)
(0.793424 0 0)
(0.7952 0 0)
(0.796831 0 0)
(0.770818 0 0)
(0.401862 0 0)
(-0.400635 0 0)
(-0.77063 0 0)
(-0.796826 0 0)
(-0.795197 0 0)
(-0.793421 0 0)
(-0.791642 0 0)
(-0.789859 0 0)
(-0.788074 0 0)
(-0.786287 0 0)
(-0.784497 0 0)
(-0.782704 0 0)
(-0.780909 0 0)
(-0.779112 0 0)
(-0.777312 0 0)
(-0.77551 0 0)
(-0.773705 0 0)
(-0.771898 0 0)
(-0.770089 0 0)
(-0.768277 0 0)
(-0.766463 0 0)
(-0.764647 0 0)
(-0.762828 0 0)
(-0.761008 0 0)
(-0.759185 0 0)
(-0.75736 0 0)
(-0.755532 0 0)
(-0.753703 0 0)
(-0.751871 0 0)
(-0.750038 0 0)
(-0.748202 0 0)
(-0.746364 0 0)
(-0.744524 0 0)
(-0.742682 0 0)
(-0.740838 0 0)
(-0.738992 0 0)
(-0.737144 0 0)
(-0.735294 0 0)
(-0.733442 0 0)
(-0.731588 0 0)
(-0.729732 0 0)
(-0.727875 0 0)
(-0.726015 0 0)
(-0.724153 0 0)
(-0.72229 0 0)
(-0.720425 0 0)
(-0.718558 0 0)
(-0.716689 0 0)
(-0.714818 0 0)
(-0.712946 0 0)
(-0.711071 0 0)
(-0.709195 0 0)
(-0.707317 0 0)
(-0.705438 0 0)
(-0.703557 0 0)
(-0.701674 0 0)
(-0.699789 0 0)
(-0.697903 0 0)
(-0.696015 0 0)
(-0.694125 0 0)
(-0.692234 0 0)
(-0.690341 0 0)
(-0.688446 0 0)
(-0.68655 0 0)
(-0.684652 0 0)
(-0.682753 0 0)
(-0.680852 0 0)
(-0.67895 0 0)
(-0.677046 0 0)
(-0.67514 0 0)
(-0.673233 0 0)
(-0.671325 0 0)
(-0.669415 0 0)
(-0.667503 0 0)
(-0.66559 0 0)
(-0.663676 0 0)
(-0.66176 0 0)
(-0.659842 0 0)
(-0.657923 0 0)
(-0.656003 0 0)
(-0.654082 0 0)
(-0.652159 0 0)
(-0.650234 0 0)
(-0.648308 0 0)
(-0.646381 0 0)
(-0.644453 0 0)
(-0.642523 0 0)
(-0.640592 0 0)
(-0.638659 0 0)
(-0.636725 0 0)
(-0.63479 0 0)
(-0.632854 0 0)
(-0.630916 0 0)
(-0.628977 0 0)
(-0.627036 0 0)
(-0.625095 0 0)
(-0.623152 0 0)
(-0.621208 0 0)
(-0.619263 0 0)
(-0.617316 0 0)
(-0.615368 0 0)
(-0.613419 0 0)
(-0.611469 0 0)
(-0.609518 0 0)
(-0.607565 0 0)
(-0.605611 0 0)
(-0.603656 0 0)
(-0.6017 0 0)
(-0.599743 0 0)
(-0.597785 0 0)
(-0.595825 0 0)
(-0.593865 0 0)
(-0.591903 0 0)
(-0.58994 0 0)
(-0.587976 0 0)
(-0.586011 0 0)
(-0.584045 0 0)
(-0.582078 0 0)
(-0.580109 0 0)
(-0.57814 0 0)
(-0.57617 0 0)
(-0.574198 0 0)
(-0.572226 0 0)
(-0.570252 0 0)
(-0.568277 0 0)
(-0.566302 0 0)
(-0.564325 0 0)
(-0.562348 0 0)
(-0.560369 0 0)
(-0.558389 0 0)
(-0.556409 0 0)
(-0.554427 0 0)
(-0.552444 0 0)
(-0.550461 0 0)
(-0.548476 0 0)
(-0.546491 0 0)
(-0.544505 0 0)
(-0.542517 0 0)
(-0.540529 0 0)
(-0.53854 0 0)
(-0.53655 0 0)
(-0.534558 0 0)
(-0.532566 0 0)
(-0.530574 0 0)
(-0.52858 0 0)
(-0.526585 0 0)
(-0.52459 0 0)
(-0.522593 0 0)
(-0.520596 0 0)
(-0.518598 0 0)
(-0.516599 0 0)
(-0.514599 0 0)
(-0.512598 0 0)
(-0.510596 0 0)
(-0.508594 0 0)
(-0.506591 0 0)
(-0.504587 0 0)
(-0.502582 0 0)
(-0.500576 0 0)
(-0.49857 0 0)
(-0.496562 0 0)
(-0.494554 0 0)
(-0.492545 0 0)
(-0.490535 0 0)
(-0.488525 0 0)
(-0.486514 0 0)
(-0.484502 0 0)
(-0.482489 0 0)
(-0.480475 0 0)
(-0.478461 0 0)
(-0.476446 0 0)
(-0.47443 0 0)
(-0.472413 0 0)
(-0.470396 0 0)
(-0.468378 0 0)
(-0.466359 0 0)
(-0.46434 0 0)
(-0.46232 0 0)
(-0.460299 0 0)
(-0.458277 0 0)
(-0.456255 0 0)
(-0.454232 0 0)
(-0.452208 0 0)
(-0.450184 0 0)
(-0.448158 0 0)
(-0.446133 0 0)
(-0.444106 0 0)
(-0.442079 0 0)
(-0.440051 0 0)
(-0.438023 0 0)
(-0.435994 0 0)
(-0.433964 0 0)
(-0.431934 0 0)
(-0.429903 0 0)
(-0.427871 0 0)
(-0.425839 0 0)
(-0.423806 0 0)
(-0.421772 0 0)
(-0.419738 0 0)
(-0.417703 0 0)
(-0.415668 0 0)
(-0.413632 0 0)
(-0.411595 0 0)
(-0.409558 0 0)
(-0.40752 0 0)
(-0.405482 0 0)
(-0.403443 0 0)
(-0.401403 0 0)
(-0.399363 0 0)
(-0.397323 0 0)
(-0.395281 0 0)
(-0.39324 0 0)
(-0.391197 0 0)
(-0.389154 0 0)
(-0.387111 0 0)
(-0.385067 0 0)
(-0.383022 0 0)
(-0.380977 0 0)
(-0.378931 0 0)
(-0.376885 0 0)
(-0.374838 0 0)
(-0.372791 0 0)
(-0.370743 0 0)
(-0.368695 0 0)
(-0.366646 0 0)
(-0.364597 0 0)
(-0.362547 0 0)
(-0.360497 0 0)
(-0.358446 0 0)
(-0.356395 0 0)
(-0.354343 0 0)
(-0.35229 0 0)
(-0.350238 0 0)
(-0.348184 0 0)
(-0.346131 0 0)
(-0.344076 0 0)
(-0.342022 0 0)
(-0.339967 0 0)
(-0.337911 0 0)
(-0.335855 0 0)
(-0.333798 0 0)
(-0.331741 0 0)
(-0.329684 0 0)
(-0.327626 0 0)
(-0.325568 0 0)
(-0.323509 0 0)
(-0.32145 0 0)
(-0.31939 0 0)
(-0.31733 0 0)
(-0.31527 0 0)
(-0.313209 0 0)
(-0.311148 0 0)
(-0.309086 0 0)
(-0.307024 0 0)
(-0.304961 0 0)
(-0.302898 0 0)
(-0.300835 0 0)
(-0.298771 0 0)
(-0.296707 0 0)
(-0.294643 0 0)
(-0.292578 0 0)
(-0.290512 0 0)
(-0.288447 0 0)
(-0.286381 0 0)
(-0.284314 0 0)
(-0.282248 0 0)
(-0.28018 0 0)
(-0.278113 0 0)
(-0.276045 0 0)
(-0.273977 0 0)
(-0.271908 0 0)
(-0.269839 0 0)
(-0.26777 0 0)
(-0.2657 0 0)
(-0.26363 0 0)
(-0.26156 0 0)
(-0.259489 0 0)
(-0.257418 0 0)
(-0.255347 0 0)
(-0.253275 0 0)
(-0.251204 0 0)
(-0.249131 0 0)
(-0.247059 0 0)
(-0.244986 0 0)
(-0.242912 0 0)
(-0.240839 0 0)
(-0.238765 0 0)
(-0.236691 0 0)
(-0.234616 0 0)
(-0.232542 0 0)
(-0.230467 0 0)
(-0.228391 0 0)
(-0.226316 0 0)
(-0.22424 0 0)
(-0.222164 0 0)
(-0.220087 0 0)
(-0.21801 0 0)
(-0.215933 0 0)
(-0.213856 0 0)
(-0.211779 0 0)
(-0.209701 0 0)
(-0.207623 0 0)
(-0.205544 0 0)
(-0.203466 0 0)
(-0.201387 0 0)
(-0.199308 0 0)
(-0.197228 0 0)
(-0.195149 0 0)
(-0.193069 0 0)
(-0.190989 0 0)
(-0.188909 0 0)
(-0.186828 0 0)
(-0.184747 0 0)
(-0.182666 0 0)
(-0.180585 0 0)
(-0.178504 0 0)
(-0.176422 0 0)
(-0.17434 0 0)
(-0.172258 0 0)
(-0.170176 0 0)
(-0.168093 0 0)
(-0.16601 0 0)
(-0.163927 0 0)
(-0.161844 0 0)
(-0.159761 0 0)
(-0.157677 0 0)
(-0.155594 0 0)
(-0.15351 0 0)
(-0.151426 0 0)
(-0.149341 0 0)
(-0.147257 0 0)
(-0.145172 0 0)
(-0.143087 0 0)
(-0.141002 0 0)
(-0.138917 0 0)
(-0.136832 0 0)
(-0.134746 0 0)
(-0.132661 0 0)
(-0.130575 0 0)
(-0.128489 0 0)
(-0.126403 0 0)
(-0.124316 0 0)
(-0.12223 0 0)
(-0.120143 0 0)
(-0.118056 0 0)
(-0.11597 0 0)
(-0.113883 0 0)
(-0.111795 0 0)
(-0.109708 0 0)
(-0.107621 0 0)
(-0.105533 0 0)
(-0.103445 0 0)
(-0.101358 0 0)
(-0.0992696 0 0)
(-0.0971815 0 0)
(-0.0950934 0 0)
(-0.0930051 0 0)
(-0.0909167 0 0)
(-0.0888281 0 0)
(-0.0867395 0 0)
(-0.0846508 0 0)
(-0.082562 0 0)
(-0.0804731 0 0)
(-0.078384 0 0)
(-0.0762949 0 0)
(-0.0742057 0 0)
(-0.0721164 0 0)
(-0.070027 0 0)
(-0.0679376 0 0)
(-0.065848 0 0)
(-0.0637584 0 0)
(-0.0616687 0 0)
(-0.0595789 0 0)
(-0.0574891 0 0)
(-0.0553992 0 0)
(-0.0533092 0 0)
(-0.0512191 0 0)
(-0.049129 0 0)
(-0.0470389 0 0)
(-0.0449486 0 0)
(-0.0428584 0 0)
(-0.040768 0 0)
(-0.0386777 0 0)
(-0.0365872 0 0)
(-0.0344968 0 0)
(-0.0324063 0 0)
(-0.0303157 0 0)
(-0.0282251 0 0)
(-0.0261345 0 0)
(-0.0240439 0 0)
(-0.0219532 0 0)
(-0.0198625 0 0)
(-0.0177718 0 0)
(-0.015681 0 0)
(-0.0135903 0 0)
(-0.0114995 0 0)
(-0.00940868 0 0)
(-0.00731787 0 0)
(-0.00522706 0 0)
(-0.00313624 0 0)
(-0.00104541 0 0)
)
;

boundaryField
{
    left
    {
        type            fixedValue;
        value           uniform (0 0 0);
    }
    right
    {
        type            fixedValue;
        value           uniform (0 0 0);
    }
    frontBackUpDown
    {
        type            empty;
    }
}


// ************************************************************************* //
