/*--------------------------------*- C++ -*----------------------------------*\
| =========                 |                                                 |
| \\      /  F ield         | OpenFOAM: The Open Source CFD Toolbox           |
|  \\    /   O peration     | Version:  2412                                  |
|   \\  /    A nd           | Website:  www.openfoam.com                      |
|    \\/     M anipulation  |                                                 |
\*---------------------------------------------------------------------------*/
FoamFile
{
    version     2.0;
    format      ascii;
    arch        "LSB;label=32;scalar=64";
    class       volScalarField;
    location    "3.25";
    object      p;
}
// * * * * * * * * * * * * * * * * * * * * * * * * * * * * * * * * * * * * * //

dimensions      [0 2 -2 0 0 0 0];

internalField   nonuniform List<scalar> 
2200
(
0.454044
0.453128
0.455635
0.45482
0.459813
0.473691
0.501116
0.543938
0.603072
0.670177
0.71581
0.726168
0.713402
0.70252
0.692442
0.688447
0.688295
0.688726
0.686979
0.687957
0.448644
0.448124
0.449859
0.45478
0.466395
0.486663
0.517068
0.563335
0.629351
0.698946
0.743296
0.748454
0.731291
0.716157
0.703852
0.693203
0.686433
0.684269
0.682847
0.68311
0.456343
0.453396
0.45373
0.466243
0.48702
0.518714
0.560368
0.615902
0.682814
0.756019
0.799441
0.797241
0.781209
0.756996
0.734181
0.713241
0.698524
0.689533
0.69088
0.694086
0.496786
0.492131
0.488776
0.496271
0.516314
0.554842
0.611447
0.687107
0.762975
0.840605
0.880773
0.875595
0.854152
0.812539
0.776771
0.749686
0.736269
0.731768
0.736284
0.741432
0.571959
0.566234
0.561023
0.556107
0.562882
0.592484
0.655141
0.743759
0.845895
0.942726
0.985832
0.967618
0.923096
0.869708
0.828449
0.810691
0.80997
0.816762
0.822921
0.828766
0.666005
0.658677
0.652852
0.642425
0.637218
0.646398
0.695137
0.783126
0.912347
1.04859
1.10035
1.05208
0.979749
0.928102
0.901513
0.902738
0.914852
0.928867
0.935324
0.942813
0.782668
0.773888
0.762307
0.74251
0.733638
0.731441
0.753942
0.832582
0.973903
1.13516
1.19486
1.13163
1.05276
1.01341
1.01187
1.02377
1.03648
1.0622
1.07507
1.08426
0.950465
0.938496
0.914044
0.88843
0.894218
0.902418
0.905156
0.958238
1.07825
1.2384
1.3064
1.25847
1.20752
1.19543
1.21442
1.22082
1.22047
1.24914
1.27543
1.28779
1.21957
1.20537
1.17659
1.13798
1.13458
1.17033
1.2131
1.25376
1.33427
1.46081
1.53551
1.53803
1.53677
1.5434
1.52629
1.50679
1.51959
1.56114
1.59096
1.60564
1.60273
1.58801
1.55369
1.50269
1.47394
1.51412
1.61636
1.72551
1.81197
1.90934
1.99041
2.04078
2.05018
1.99673
1.92776
1.90706
1.94519
2.00025
2.03603
2.05125
2.07809
2.06214
2.02274
1.95839
1.90193
1.90434
2.02317
2.23695
2.4409
2.64217
2.73709
2.70727
2.61658
2.46953
2.39374
2.41447
2.47982
2.54803
2.58863
2.60488
2.63051
2.61292
2.56722
2.48879
2.41003
2.36778
2.4418
2.65269
2.98267
3.35337
3.46617
3.29368
3.10362
2.97672
2.9528
3.01791
3.10766
3.19019
3.23749
3.25566
3.25975
3.24095
3.19078
3.10172
3.00206
2.92971
2.93459
3.03493
3.31219
3.6762
3.81049
3.68787
3.58269
3.58071
3.62862
3.72638
3.83736
3.93064
3.98228
4.00113
3.93165
3.91386
3.86377
3.76929
3.6508
3.55176
3.51822
3.53794
3.6905
3.90915
4.07627
4.15473
4.20516
4.30148
4.39414
4.52234
4.65413
4.75367
4.80617
4.82476
4.61914
4.60166
4.55174
4.45652
4.32553
4.20194
4.159
4.20878
4.38449
4.58802
4.79718
4.95084
5.02385
5.1152
5.23039
5.38627
5.52989
5.62946
5.67975
5.69734
5.27787
5.26468
5.22243
5.1352
5.00632
4.87324
4.8223
4.93103
5.20906
5.52393
5.78206
5.8953
5.92644
5.98625
6.12345
6.29286
6.43491
6.52873
6.57524
6.59045
5.87141
5.85975
5.82297
5.74766
5.63737
5.51319
5.44995
5.56624
5.85355
6.23138
6.55168
6.69351
6.77724
6.86677
7.03206
7.19717
7.32521
7.40484
7.44321
7.4551
6.31873
6.31386
6.29071
6.23473
6.1465
6.04072
5.9769
6.07679
6.31895
6.69954
7.09665
7.36499
7.55479
7.7087
7.88281
8.03656
8.14564
8.21395
8.24768
8.25823
6.58371
6.57993
6.56505
6.52906
6.47465
6.41129
6.37907
6.48048
6.73988
7.14363
7.62849
8.0324
8.2903
8.47649
8.64064
8.78904
8.88224
8.93833
8.96581
8.9757
6.62409
6.62684
6.62616
6.6122
6.59545
6.58053
6.61945
6.75723
7.10029
7.58065
8.1653
8.67012
8.94831
9.17814
9.35137
9.46544
9.53927
9.58427
9.60532
9.61665
6.41901
6.42411
6.43758
6.45233
6.47446
6.52074
6.62451
6.84231
7.30549
7.91031
8.61296
9.20165
9.53428
9.78408
9.95363
10.0593
10.129
10.1704
10.1892
10.206
5.95193
5.96103
5.98792
6.02935
6.0979
6.21695
6.40918
6.75187
7.34634
8.09905
8.93692
9.61587
10.0249
10.3072
10.492
10.6112
10.6934
10.7454
10.7758
10.7865
5.18996
5.21051
5.26382
5.35416
5.49347
5.70604
6.03733
6.5415
7.2758
8.19705
9.19278
9.96091
10.4683
10.7981
11.0217
11.1706
11.2706
11.3496
11.3884
11.3964
4.07872
4.12252
4.22456
4.39043
4.64606
5.021
5.53242
6.22214
7.13833
8.2569
9.41663
10.304
10.8932
11.2925
11.5707
11.7686
11.9062
11.9998
12.0574
12.0816
2.52549
2.61815
2.80243
3.11523
3.56975
4.163
4.89932
5.82315
6.97266
8.30064
9.62952
10.6462
11.3378
11.8199
12.165
12.4162
12.6025
12.7355
12.8286
12.8646
0.398392
0.541294
0.937259
1.55244
2.29988
3.17639
4.20444
5.40352
6.79474
8.34815
9.85505
11.0063
11.806
12.379
12.8032
13.1258
13.3712
13.548
13.6572
13.6871
-2.62299
-2.08766
-1.15557
-0.137162
0.948201
2.15823
3.49593
4.98625
6.63434
8.43187
10.1359
11.4488
12.3924
13.0938
13.6274
14.0465
14.3962
14.6877
14.8705
14.9142
-6.15902
-4.71762
-3.21817
-1.81776
-0.37725
1.15324
2.79487
4.5755
6.49276
8.54437
10.4602
11.9622
13.0699
13.9215
14.594
15.1326
15.5664
15.9632
16.337
16.4774
-8.70798
-6.9706
-5.19239
-3.44912
-1.67607
0.175631
2.12779
4.18923
6.37389
8.65792
10.7669
12.4389
13.6832
14.6496
15.4275
16.0621
16.5711
16.9336
17.3637
17.5032
-10.6474
-8.77467
-6.89071
-4.93713
-2.89161
-0.731855
1.5014
3.82712
6.26028
8.75112
11.0373
12.8551
14.2106
15.2549
16.0812
16.7532
17.3109
17.6602
18.0403
18.177
-12.1188
-10.068
-8.31109
-6.25443
-3.97463
-1.56214
0.917005
3.48173
6.1303
8.8088
11.2592
13.1978
14.6366
15.7281
16.564
17.2172
17.7667
18.1382
18.4903
18.6352
-13.1814
-11.1443
-9.46017
-7.28583
-4.87096
-2.29483
0.383987
3.14596
5.97663
8.82876
11.4234
13.4479
14.9266
16.0323
16.8636
17.5092
18.0508
18.4513
18.8001
18.9637
-14.0687
-12.0756
-10.3852
-8.08294
-5.5786
-2.89425
-0.0810606
2.82715
5.80886
8.81175
11.5209
13.6069
15.1139
16.2424
17.1
17.7514
18.2768
18.6888
19.03
19.2015
-14.8039
-12.7609
-11.0766
-8.69151
-6.11961
-3.37515
-0.478983
2.5329
5.63484
8.7563
11.5586
13.7094
15.2594
16.4135
17.2882
17.9576
18.4953
18.9083
19.2606
19.3886
-15.3885
-13.2928
-11.5502
-9.0508
-6.49399
-3.74859
-0.817088
2.26424
5.45658
8.67078
11.5638
13.794
15.3991
16.5873
17.4963
18.1813
18.7038
19.1035
19.4406
19.5975
-15.8745
-13.8169
-11.9182
-9.28085
-6.75805
-4.03305
-1.096
2.02723
5.28335
8.57519
11.5617
13.879
15.5499
16.7779
17.6956
18.388
18.9222
19.3241
19.6655
19.82
-16.3027
-14.24
-12.2524
-9.56105
-7.0285
-4.29016
-1.33432
1.82458
5.12659
8.48347
11.5549
13.9533
15.6826
16.9461
17.8876
18.5934
19.134
19.5388
19.8648
20.0332
-16.6742
-14.5656
-12.5582
-9.90374
-7.35165
-4.57439
-1.56346
1.64359
4.98414
8.39145
11.5309
14.0013
15.7879
17.0967
18.077
18.8096
19.3629
19.7779
20.1011
20.2597
-17.03
-14.9641
-12.9161
-10.2635
-7.70602
-4.87561
-1.79402
1.46461
4.8383
8.28369
11.4757
14.0097
15.8612
17.2309
18.2558
19.0212
19.5924
20.0194
20.3522
20.5194
-17.4283
-15.3838
-13.3217
-10.6855
-8.07764
-5.17504
-2.02864
1.27128
4.67177
8.14927
11.385
13.9787
15.9012
17.3422
18.428
19.242
19.8471
20.293
20.6209
20.7764
-17.7913
-15.7734
-13.7663
-11.1205
-8.44894
-5.47479
-2.27183
1.0568
4.4798
7.98887
11.2655
13.9153
15.9098
17.4238
18.5803
19.4606
20.115
20.5947
20.9389
21.1045
-18.2234
-16.1749
-14.1334
-11.4716
-8.78276
-5.76301
-2.52145
0.825036
4.27003
7.81147
11.1238
13.8165
15.8781
17.4763
18.7171
19.6736
20.3959
20.9201
21.2738
21.4262
-18.6048
-16.56
-14.4418
-11.7588
-9.06449
-6.02387
-2.76716
0.589261
4.05563
7.62654
10.9653
13.6901
15.8113
17.4858
18.8095
19.8559
20.6576
21.2688
21.6703
21.8347
-18.9069
-16.8733
-14.7454
-12.0209
-9.30469
-6.25467
-2.99822
0.362727
3.84702
7.44
10.7927
13.5369
15.6988
17.4394
18.8567
20.0081
20.9164
21.6169
22.0762
22.2594
-19.2303
-17.1688
-15.0076
-12.2661
-9.51845
-6.46091
-3.21065
0.151855
3.64861
7.25329
10.6072
13.3581
15.5473
17.3427
18.8367
20.0886
21.1228
21.9534
22.5169
22.7166
-19.4544
-17.4121
-15.2143
-12.4567
-9.71287
-6.65271
-3.40854
-0.0454142
3.45845
7.06502
10.4103
13.1575
15.3603
17.1923
18.7497
20.0993
21.2565
22.2434
22.9461
23.0828
-19.6613
-17.5268
-15.2914
-12.5852
-9.90301
-6.8426
-3.60202
-0.23749
3.26879
6.86891
10.1975
12.9295
15.1298
16.9803
18.5766
19.9897
21.2489
22.3833
23.355
23.6042
-19.8801
-17.7649
-15.5656
-12.8387
-10.1252
-7.04347
-3.80288
-0.436062
3.06741
6.65395
9.95821
12.6599
14.8341
16.6741
18.28
19.7173
21.022
22.1889
22.9489
23.0252
-20.1718
-18.201
-16.0615
-13.2313
-10.3762
-7.25943
-4.01212
-0.642591
2.85455
6.42315
9.69451
12.3489
14.4749
16.2746
17.8434
19.2287
20.434
21.4283
21.9105
22.0328
-20.4458
-18.4314
-16.2189
-13.3941
-10.6122
-7.48518
-4.22946
-0.859058
2.62908
6.17635
9.40652
11.9975
14.0493
15.7702
17.249
18.519
19.5538
20.2524
20.5488
20.7835
-20.5824
-18.4002
-16.1333
-13.4434
-10.8334
-7.70463
-4.4535
-1.0857
2.39085
5.91332
9.0954
11.608
13.5561
15.1563
16.4904
17.5941
18.4629
19.023
19.2476
19.552
-20.7855
-18.718
-16.5814
-13.7943
-11.0833
-7.92765
-4.68703
-1.32468
2.13712
5.63099
8.76108
11.1828
12.9996
14.4404
15.5947
16.5146
17.2366
17.6747
17.8082
18.1842
-21.0991
-19.2377
-17.1517
-14.2614
-11.3517
-8.17461
-4.92952
-1.57547
1.86873
5.32998
8.40503
10.7264
12.3902
13.6384
14.5987
15.3174
15.8082
16.1109
16.269
16.6483
-21.364
-19.3555
-17.1308
-14.3104
-11.5704
-8.41199
-5.16984
-1.82897
1.59453
5.01821
8.03407
10.2486
11.7499
12.7869
13.5349
14.0586
14.3264
14.3524
14.2813
14.5323
-21.4835
-19.3739
-17.1016
-14.3689
-11.7617
-8.61215
-5.40014
-2.07586
1.32299
4.70399
7.65541
9.76162
11.1065
11.9295
12.4426
12.7623
12.7623
12.1799
11.2343
11.3627
-21.6808
-19.7024
-17.5191
-14.7313
-11.9811
-8.81361
-5.62135
-2.31235
1.05927
4.39295
7.27445
9.27732
10.4837
11.1103
11.3615
11.3848
11.1201
9.96204
7.65628
5.52412
-21.959
-20.0203
-17.7913
-14.9584
-12.1873
-9.02123
-5.83137
-2.53673
0.809056
4.09375
6.90242
8.81189
9.9028
10.3673
10.3653
10.0274
9.41551
8.24307
4.19471
-6.67853
-22.1319
-20.1145
-17.8189
-15.0184
-12.3565
-9.20096
-6.02815
-2.74924
0.5727
3.80743
6.53877
8.36157
9.35792
9.69275
9.47988
8.84899
8.02933
7.23694
6.53717
2.25629
-22.2835
-20.2862
-18.0287
-15.2226
-12.5497
-9.3745
-6.225
-2.96077
0.337716
3.52282
6.17719
7.92014
8.83947
9.09489
8.8046
8.17948
7.52618
7.4182
8.30581
7.29664
-22.5162
-20.5634
-18.2987
-15.4749
-12.7698
-9.56341
-6.4303
-3.17836
0.0986237
3.23802
5.82558
7.50533
8.38119
8.63331
8.42812
8.00683
7.55065
7.44191
7.91548
7.37938
-22.7209
-20.7684
-18.4637
-15.6508
-12.9768
-9.74917
-6.64349
-3.40369
-0.145506
2.95384
5.4927
7.13832
8.01079
8.34345
8.33978
8.13546
7.78527
7.43449
7.48264
7.40929
-22.8864
-20.9388
-18.6321
-15.8428
-13.178
-9.93136
-6.86513
-3.63218
-0.39099
2.67599
5.18712
6.83831
7.76133
8.22393
8.42884
8.40512
8.12431
7.65774
7.60848
7.66096
-23.0605
-21.1335
-18.8263
-16.065
-13.3756
-10.1228
-7.09372
-3.85655
-0.631271
2.41305
4.9211
6.61867
7.64902
8.24425
8.5785
8.72447
8.62392
8.20089
8.13682
8.22546
-23.2157
-21.296
-18.9876
-16.2645
-13.5473
-10.3193
-7.31704
-4.0681
-0.859362
2.1764
4.71188
6.48624
7.64452
8.37729
8.80793
9.09516
9.32363
9.17843
9.19172
9.27746
-23.3227
-21.4203
-19.1185
-16.4345
-13.6762
-10.509
-7.51488
-4.2588
-1.06734
1.97604
4.56758
6.43974
7.72074
8.59878
9.18642
9.64619
10.116
10.3682
10.5131
10.6018
-23.3819
-21.5027
-19.2126
-16.5555
-13.7734
-10.6758
-7.67103
-4.42041
-1.24669
1.81917
4.48661
6.45956
7.86511
8.91176
9.71745
10.3775
10.9917
11.4582
11.749
11.8542
-23.3689
-21.525
-19.2447
-16.6154
-13.8265
-10.7926
-7.77887
-4.54655
-1.39086
1.70779
4.45161
6.52492
8.06754
9.29634
10.2849
11.0609
11.7022
12.1942
12.5321
12.6543
-23.2486
-21.45
-19.1981
-16.594
-13.8189
-10.8441
-7.83093
-4.6326
-1.49282
1.63161
4.4359
6.61344
8.26969
9.59324
10.6382
11.435
12.0586
12.5352
12.8826
13.0309
-22.9948
-21.2738
-19.0436
-16.4757
-13.7364
-10.8165
-7.82107
-4.67386
-1.55524
1.57796
4.42166
6.66278
8.35503
9.68231
10.7247
11.5378
12.1819
12.6666
13.0244
13.1968
-22.5794
-20.9518
-18.7605
-16.2405
-13.5537
-10.6964
-7.74893
-4.67214
-1.59191
1.53064
4.37735
6.62507
8.32055
9.65731
10.7231
11.5611
12.2311
12.7293
13.0918
13.2864
-21.9688
-20.4506
-18.3028
-15.8561
-13.2513
-10.4796
-7.61406
-4.62634
-1.60983
1.4654
4.27689
6.51831
8.23578
9.59836
10.6847
11.5278
12.2078
12.718
13.0859
13.3054
-21.1047
-19.7142
-17.6517
-15.3102
-12.8102
-10.157
-7.40472
-4.53083
-1.61396
1.37226
4.12736
6.3522
8.06744
9.42458
10.5036
11.3371
12.0212
12.546
12.9258
13.1688
-19.9379
-18.7098
-16.7638
-14.564
-12.2112
-9.7161
-7.11121
-4.38717
-1.60506
1.26257
3.92759
6.08701
7.74267
9.05554
10.1126
10.9316
11.6145
12.1533
12.5511
12.8179
-18.4201
-17.3925
-15.6202
-13.6092
-11.4398
-9.14085
-6.72925
-4.19135
-1.57667
1.12873
3.64502
5.68832
7.25238
8.49476
9.51446
10.3109
10.9749
11.5159
11.9232
12.2102
-16.5422
-15.7647
-14.2084
-12.4216
-10.4841
-8.43035
-6.25056
-3.93364
-1.53349
0.954356
3.27441
5.16536
6.6161
7.75543
8.69793
9.44276
10.0608
10.5852
10.9991
11.3029
-14.3814
-13.8629
-12.5544
-11.0225
-9.34597
-7.56446
-5.66026
-3.61258
-1.47257
0.755953
2.84485
4.53976
5.83279
6.82828
7.64025
8.28288
8.81164
9.25931
9.62566
9.90542
-12.0024
-11.669
-10.5977
-9.35781
-8.00635
-6.5615
-4.97207
-3.22061
-1.36861
0.582984
2.43963
3.94011
5.07107
5.92605
6.60839
7.13232
7.53658
7.85014
8.0922
8.27341
-9.44311
-9.21271
-8.39803
-7.53406
-6.5636
-5.46046
-4.18849
-2.75552
-1.21273
0.464372
2.09189
3.4068
4.39127
5.11861
5.68166
6.10794
6.39893
6.59754
6.72646
6.81354
-6.77783
-6.61279
-6.19668
-5.72101
-5.06953
-4.27311
-3.34586
-2.24213
-1.00466
0.396993
1.76836
2.87317
3.69612
4.28098
4.70513
5.01617
5.21071
5.32536
5.37372
5.41351
-4.36207
-4.26836
-4.1241
-3.92332
-3.56425
-3.10197
-2.50059
-1.69231
-0.73951
0.38
1.48174
2.37441
3.03654
3.49332
3.79943
4.01187
4.13659
4.21107
4.23607
4.25875
-2.551
-2.52476
-2.48389
-2.40096
-2.26963
-2.0598
-1.69265
-1.14041
-0.451423
0.395169
1.25062
1.95354
2.47017
2.82385
3.04829
3.19449
3.27934
3.35069
3.37824
3.41707
-1.42806
-1.44271
-1.4512
-1.40716
-1.3629
-1.22039
-0.996194
-0.646717
-0.181111
0.439458
1.09934
1.64685
2.04207
2.31529
2.49063
2.60645
2.67391
2.75481
2.77674
2.80132
-0.818855
-0.847908
-0.87991
-0.852539
-0.815788
-0.637931
-0.507046
-0.270932
0.0500515
0.508702
1.0162
1.44
1.74211
1.9575
2.10765
2.21738
2.26544
2.34132
2.35543
2.36602
-0.470961
-0.494777
-0.531652
-0.514613
-0.499145
-0.318838
-0.265962
-0.0496372
0.213327
0.566305
0.955571
1.28732
1.52718
1.70313
1.83519
1.9461
1.96382
2.0212
2.02613
2.03136
-0.233945
-0.249545
-0.2789
-0.264912
-0.283328
-0.168317
-0.184285
0.0614264
0.284659
0.573287
0.887473
1.16044
1.36213
1.5063
1.606
1.70975
1.7033
1.73764
1.73937
1.74264
-0.049061
-0.060106
-0.0799125
-0.0628145
-0.104301
-0.0352591
-0.101108
0.156979
0.28892
0.540569
0.813366
1.04513
1.21473
1.32779
1.3809
1.46802
1.45523
1.47934
1.47835
1.47998
0.101638
0.0922562
0.0781362
0.0987397
0.0597207
0.127446
0.0558291
0.281885
0.286596
0.516816
0.743638
0.928607
1.06094
1.14817
1.16342
1.23597
1.22779
1.24726
1.24594
1.24686
0.218834
0.209321
0.197771
0.216185
0.188185
0.257965
0.214036
0.391627
0.311184
0.520079
0.682182
0.813055
0.90927
0.983
0.979221
1.04085
1.03881
1.05347
1.05219
1.05252
0.292705
0.281694
0.271551
0.286206
0.261277
0.320409
0.286703
0.43652
0.337806
0.53069
0.626611
0.714963
0.785675
0.855604
0.843693
0.892449
0.890378
0.900871
0.898635
0.897372
0.326876
0.314835
0.306657
0.313878
0.287058
0.333007
0.296535
0.4209
0.341954
0.526778
0.570137
0.640324
0.694331
0.760561
0.743954
0.77771
0.773724
0.780552
0.777453
0.774764
0.334818
0.323028
0.316888
0.321363
0.298642
0.334405
0.297769
0.388542
0.330618
0.502406
0.509289
0.580099
0.616931
0.671724
0.660242
0.680915
0.675679
0.67966
0.676409
0.673158
0.332003
0.321546
0.319262
0.3232
0.305197
0.334708
0.301701
0.366718
0.324888
0.465763
0.44779
0.525653
0.540458
0.585282
0.577616
0.592215
0.587485
0.590033
0.587518
0.584545
0.321644
0.312702
0.313062
0.315957
0.302443
0.326549
0.30048
0.350341
0.31785
0.421086
0.396469
0.472974
0.467558
0.503268
0.500962
0.511727
0.508365
0.510113
0.5084
0.506006
0.302459
0.294948
0.296118
0.297731
0.287533
0.306275
0.286477
0.326392
0.303777
0.373287
0.354467
0.416458
0.407057
0.434079
0.433233
0.440906
0.438558
0.439603
0.438307
0.436433
0.275793
0.269835
0.270996
0.271762
0.263919
0.277984
0.262794
0.293735
0.278094
0.326976
0.315006
0.363012
0.355933
0.372998
0.372729
0.378204
0.376469
0.376992
0.375913
0.374462
0.244522
0.24017
0.241053
0.241525
0.235776
0.246177
0.2346
0.257596
0.246046
0.281721
0.274614
0.309837
0.306341
0.317236
0.317008
0.320585
0.319257
0.319414
0.318504
0.317422
0.211054
0.208045
0.208616
0.208962
0.204864
0.212464
0.20392
0.220719
0.211868
0.238266
0.233727
0.25801
0.256081
0.264402
0.263968
0.266411
0.265342
0.265362
0.264538
0.263756
0.175611
0.173678
0.173942
0.174217
0.1713
0.176649
0.17058
0.182707
0.176085
0.195308
0.191462
0.20985
0.207039
0.213526
0.213073
0.214798
0.214004
0.213975
0.213291
0.212732
0.138545
0.137219
0.137259
0.13742
0.135375
0.139038
0.134706
0.143424
0.13858
0.152211
0.148554
0.162434
0.159817
0.164622
0.164152
0.16516
0.164524
0.164395
0.163819
0.163413
0.100118
0.0993013
0.0992194
0.0992591
0.097727
0.100225
0.0969505
0.103379
0.0994412
0.110071
0.105062
0.115518
0.11383
0.117267
0.116381
0.116979
0.11644
0.116285
0.115766
0.115473
0.0607029
0.0601492
0.0600244
0.0600669
0.0590081
0.0606423
0.0581104
0.062894
0.0595731
0.0667425
0.0626277
0.0686849
0.0683669
0.0698634
0.0695441
0.0698711
0.0694333
0.0693704
0.0689723
0.0687466
0.020499
0.0201615
0.0200798
0.0202122
0.0195654
0.0206541
0.0191407
0.0213862
0.0194047
0.0221316
0.0208163
0.0227968
0.0227492
0.0233801
0.0232159
0.0234244
0.023116
0.0231215
0.0227973
0.0226749
11.409
15.9481
17.0804
18.5126
19.6925
20.7529
21.7074
22.5829
23.3041
23.6484
16.3565
18.5749
19.2968
20.2187
21.0401
21.7603
22.3811
22.8997
23.2269
23.2693
19.0726
20.1696
20.7192
21.2958
21.82
22.28
22.6654
22.9646
23.1284
23.1487
20.5791
21.2394
21.6079
21.9787
22.2994
22.5745
22.7941
22.9509
23.0389
23.0553
21.5489
21.9022
22.1331
22.3557
22.5519
22.723
22.852
22.9414
22.9837
23.0069
22.1001
22.3305
22.4633
22.6008
22.7182
22.8209
22.8982
22.9516
22.9783
22.9953
22.4701
22.5923
22.6657
22.7567
22.8304
22.8978
22.948
22.9828
22.9972
23.0177
22.6744
22.7708
22.82
22.8807
22.9274
22.9671
22.9938
23.0185
23.0324
23.0488
22.8371
22.8975
22.9308
22.9642
22.9929
23.0163
23.0362
23.053
23.0647
23.0828
22.9551
22.9873
23.0046
23.0246
23.0463
23.0644
23.0815
23.0989
23.1115
23.1304
23.0459
23.0667
23.083
23.099
23.1179
23.1357
23.1522
23.1694
23.1811
23.1988
23.1481
23.1668
23.1865
23.2013
23.216
23.2308
23.2423
23.2521
23.2581
23.271
23.2655
23.2757
23.2906
23.3011
23.3081
23.3152
23.3218
23.3277
23.3298
23.3388
23.365
23.3678
23.3756
23.3809
23.3833
23.3864
23.3925
23.3998
23.404
23.4151
23.4694
23.4577
23.4513
23.4464
23.4449
23.4468
23.4534
23.4655
23.4799
23.5075
23.5944
23.5399
23.5088
23.4902
23.4819
23.4824
23.4912
23.511
23.5421
23.6108
)
;

boundaryField
{
    wall-4
    {
        type            zeroGradient;
    }
    pressure-outlet-7
    {
        type            fixedValue;
        value           uniform 0;
    }
    velocity-inlet-6
    {
        type            zeroGradient;
    }
    velocity-inlet-5
    {
        type            zeroGradient;
    }
    frontAndBackPlanes
    {
        type            empty;
    }
}


// ************************************************************************* //
