/*--------------------------------*- C++ -*----------------------------------*\
| =========                 |                                                 |
| \\      /  F ield         | OpenFOAM: The Open Source CFD Toolbox           |
|  \\    /   O peration     | Version:  2412                                  |
|   \\  /    A nd           | Website:  www.openfoam.com                      |
|    \\/     M anipulation  |                                                 |
\*---------------------------------------------------------------------------*/
FoamFile
{
    version     2.0;
    format      ascii;
    arch        "LSB;label=32;scalar=64";
    class       surfaceScalarField;
    location    "3.25";
    object      phi;
}
// * * * * * * * * * * * * * * * * * * * * * * * * * * * * * * * * * * * * * //

dimensions      [0 3 -1 0 0 0 0];

oriented        oriented;

internalField   nonuniform List<scalar> 
4262
(
0.00303939
0.217473
0.00394536
0.827747
0.000679405
1.77041
-0.00206514
3.16791
-0.00484197
5.18738
-0.00710855
8.01663
-0.00773686
11.8478
-0.00896179
16.821
-0.00870858
22.8816
-0.00532305
29.525
-0.000529857
29.5236
0.00233816
22.879
0.00170115
16.8204
0.00223118
11.8466
0.00112345
8.01547
-0.00032607
5.18605
-0.00254053
3.16738
-0.00563834
1.77024
-0.00384117
0.826856
0.216672
-0.0109235
0.228397
-0.00778954
0.824613
-0.0110038
1.77362
-0.0136465
3.17055
-0.0193837
5.19312
-0.0236731
8.02092
-0.0256152
11.8497
-0.0256954
16.821
-0.0212467
22.8771
-0.0119006
29.5156
-0.00205285
29.5137
0.0056916
22.8712
0.00962967
16.8164
0.0112894
11.845
0.0097278
8.01703
0.00693005
5.18885
0.00654802
3.16776
0.00536884
1.77142
0.00980458
0.82242
0.226476
-0.0292237
0.25762
-0.0322477
0.827637
-0.0389284
1.7803
-0.0430683
3.17469
-0.0479763
5.19803
-0.0502482
8.02319
-0.0489914
11.8485
-0.0454464
16.8175
-0.0384242
22.8701
-0.0188817
29.4961
0.00122516
29.4936
0.0136505
22.8588
0.021977
16.8081
0.0270946
11.8398
0.0293425
8.01479
0.0294015
5.18879
0.0295232
3.16764
0.0275907
1.77335
0.0276881
0.822323
0.254164
-0.0486492
0.30627
-0.0709536
0.849942
-0.0780101
1.78736
-0.0893403
3.18602
-0.086523
5.19521
-0.0837207
8.02039
-0.0816354
11.8464
-0.0691674
16.805
-0.0545002
22.8554
-0.0243086
29.4659
0.00583627
29.4635
0.0255022
22.8391
0.0443306
16.7893
0.0524863
11.8317
0.061694
8.00558
0.0695903
5.1809
0.0642406
3.17299
0.0630748
1.77452
0.044909
0.840489
0.299073
-0.0540009
0.360271
-0.102399
0.89834
-0.097993
1.78295
-0.121509
3.20954
-0.132807
5.20651
-0.126768
8.01435
-0.120318
11.8399
-0.0981142
16.7828
-0.0733114
22.8306
-0.0301542
29.4227
0.0115517
29.4218
0.0423469
22.8083
0.0722285
16.7594
0.0879501
11.816
0.102467
7.99106
0.0970672
5.1863
0.082651
3.18741
0.0937403
1.76343
0.0505635
0.883666
0.349637
-0.0514578
0.411728
-0.12136
0.968242
-0.112186
1.77378
-0.127783
3.22514
-0.163079
5.2418
-0.178945
8.03022
-0.173409
11.8344
-0.147727
16.7571
-0.105532
22.7884
-0.0385423
29.3557
0.0283433
29.3549
0.0793399
22.7573
0.115295
16.7234
0.132568
11.7987
0.127036
7.99659
0.103452
5.20988
0.0982567
3.1926
0.114339
1.74735
0.0492818
0.948723
0.398919
-0.0557357
0.467464
-0.13566
1.04817
-0.139704
1.77782
-0.144716
3.23015
-0.194147
5.29123
-0.223748
8.05982
-0.222361
11.833
-0.204483
16.7393
-0.148677
22.7326
-0.046339
29.2534
0.0585238
29.25
0.125832
22.69
0.155795
16.6935
0.171114
11.7834
0.15405
8.01366
0.118288
5.24564
0.122281
3.18861
0.125101
1.74453
0.0506376
1.02319
0.449556
-0.0713163
0.53878
-0.165573
1.14242
-0.20003
1.81228
-0.20081
3.23093
-0.240033
5.33046
-0.267929
8.08771
-0.268599
11.8337
-0.251444
16.7221
-0.186588
22.6678
-0.0540894
29.1209
0.0794673
29.1164
0.160962
22.6085
0.19448
16.66
0.210601
11.7672
0.199893
8.02437
0.17403
5.27151
0.183268
3.17937
0.156187
1.77161
0.0668188
1.11255
0.516375
-0.0973909
0.636171
-0.221438
1.26647
-0.310671
1.90151
-0.321798
3.24206
-0.321251
5.32991
-0.339948
8.10641
-0.329191
11.8229
-0.296512
16.6894
-0.228382
22.5996
-0.0633724
28.9559
0.104731
28.9483
0.19206
22.5212
0.244362
16.6077
0.272856
11.7387
0.272378
8.02484
0.288588
5.2553
0.291182
3.17678
0.210329
1.85246
0.0926499
1.23023
0.609025
-0.120118
0.756289
-0.272619
1.41897
-0.407151
2.03605
-0.449064
3.28397
-0.434779
5.31562
-0.447333
8.11897
-0.423424
11.799
-0.346563
16.6126
-0.257735
22.5108
-0.0733898
28.7715
0.114788
28.7602
0.224584
22.4114
0.324233
16.508
0.37234
11.6906
0.381047
8.01614
0.415538
5.2208
0.3866
3.20572
0.259316
1.97975
0.114211
1.37534
0.723236
-0.13752
0.89381
-0.315285
1.59674
-0.484978
2.20574
-0.570063
3.36905
-0.570195
5.31576
-0.577202
8.12597
-0.546624
11.7684
-0.432079
16.498
-0.295954
22.3747
-0.0843791
28.56
0.128467
28.5473
0.290337
22.2495
0.434525
16.3638
0.490558
11.6346
0.509716
7.99698
0.530885
5.19964
0.460359
3.27624
0.301392
2.13871
0.131059
1.54567
0.854295
-0.152812
1.04662
-0.356734
1.80066
-0.560877
2.40988
-0.695122
3.5033
-0.735164
5.3558
-0.740139
8.13095
-0.703695
11.732
-0.601685
16.396
-0.405501
22.1785
-0.10242
28.2569
0.207412
28.2375
0.432074
22.0249
0.570248
16.2257
0.640117
11.5647
0.668588
7.96851
0.653298
5.21492
0.533534
3.39601
0.339355
2.33289
0.14427
1.74076
0.998565
-0.167696
1.21432
-0.399362
2.03233
-0.64327
2.65379
-0.829138
3.68917
-0.908858
5.43552
-0.901969
8.12406
-0.852385
11.6824
-0.769026
16.3127
-0.530447
21.9399
-0.118263
27.8447
0.305681
27.8135
0.568554
21.762
0.694735
16.0995
0.78949
11.47
0.829334
7.92866
0.772328
5.27193
0.604046
3.56429
0.374514
2.56242
0.153943
1.96133
1.15251
-0.17308
1.3874
-0.426597
2.28584
-0.701312
2.92851
-0.930422
3.91828
-1.05326
5.55836
-1.0441
8.1149
-0.969587
11.6079
-0.862653
16.2057
-0.599546
21.6768
-0.143835
27.389
0.327187
27.3425
0.621427
21.4678
0.786426
15.9345
0.920003
11.3364
0.969403
7.87926
0.874288
5.36705
0.662157
3.77642
0.400603
2.82398
0.159258
2.20267
1.31177
-0.177654
1.56505
-0.449651
2.55784
-0.75112
3.22997
-1.02195
4.18911
-1.19289
5.7293
-1.20998
8.13199
-1.12289
11.5208
-0.956498
16.0393
-0.65323
21.3736
-0.172374
26.9081
0.328382
26.8418
0.670821
21.1253
0.90969
15.6956
1.06221
11.1839
1.08708
7.85439
0.944407
5.50972
0.694373
4.02645
0.409402
3.10895
0.15537
2.4567
1.46714
-0.172543
1.73759
-0.454822
2.84012
-0.781965
3.55712
-1.09662
4.50376
-1.3302
5.96288
-1.40913
8.21092
-1.34921
11.4609
-1.12496
15.8151
-0.756328
21.0049
-0.214418
26.3662
0.353445
26.2739
0.774128
20.7046
1.08204
15.3877
1.22066
11.0453
1.19752
7.87753
0.998817
5.70842
0.711295
4.31397
0.406955
3.41329
0.143708
2.71995
1.61084
-0.172482
1.91008
-0.468842
3.13648
-0.810701
3.89898
-1.15444
4.8475
-1.44187
6.25031
-1.58757
8.35662
-1.56171
11.435
-1.3034
15.5568
-0.869172
20.5707
-0.25884
25.7559
0.381057
25.634
0.888679
20.197
1.22942
15.047
1.33674
10.9379
1.25073
7.96354
1.00262
5.95654
0.690712
4.62588
0.380663
3.72334
0.120411
2.9802
1.73126
-0.148796
2.05887
-0.434753
3.42243
-0.785246
4.24947
-1.15569
5.21794
-1.48976
6.58438
-1.69222
8.55908
-1.69637
11.4392
-1.44035
15.3008
-0.968629
20.099
-0.320687
25.108
0.369066
24.9443
0.944398
19.6217
1.2904
14.701
1.36772
10.8606
1.23148
8.09977
0.959847
6.22817
0.645491
4.94023
0.341993
4.02684
0.0924373
3.22976
1.82369
-0.146285
2.20516
-0.428843
3.70499
-0.763693
4.58432
-1.12341
5.57766
-1.47096
6.93194
-1.72461
8.81273
-1.75959
11.4741
-1.54521
15.0864
-1.06881
19.6226
-0.397819
24.437
0.332539
24.2139
0.936331
19.0179
1.26615
14.3711
1.30678
10.82
1.1325
8.27404
0.849409
6.51127
0.54601
5.24363
0.271072
4.30177
0.0533077
3.44752
1.877
-0.116227
2.32138
-0.372333
3.9611
-0.692314
4.9043
-1.05256
5.9379
-1.41304
7.29242
-1.70003
9.09972
-1.79299
11.5671
-1.6382
14.9316
-1.18141
19.1658
-0.493764
23.7493
0.261245
23.4589
0.850465
18.4287
1.14572
14.0759
1.14634
10.8194
0.959948
8.46044
0.706155
6.76506
0.444902
5.50489
0.209573
4.5371
0.0226195
3.63448
1.89962
-0.127312
2.4487
-0.366214
4.2
-0.65217
5.19026
-0.97442
6.26015
-1.31175
7.62974
-1.61419
9.40217
-1.78076
11.7337
-1.69482
14.8456
-1.28408
18.755
-0.614022
23.0793
0.133864
22.711
0.668384
17.8941
0.90193
13.8423
0.889349
10.832
0.732614
8.61717
0.522878
6.9748
0.311928
5.71584
0.130166
4.71887
-0.000218002
3.76486
1.8994
-0.114704
2.5634
-0.331011
4.41631
-0.598831
5.45808
-0.908281
6.5696
-1.23623
7.9577
-1.53884
9.70478
-1.73749
11.9323
-1.71402
14.8222
-1.38174
18.4227
-0.769158
22.4667
-0.0768537
22.0187
0.391528
17.4258
0.579803
13.6541
0.568661
10.8431
0.45662
8.72921
0.316049
7.11537
0.173694
5.85819
0.0470123
4.84555
-0.0155968
3.82747
1.88381
-0.146327
2.70973
-0.354387
4.62437
-0.60102
5.70471
-0.890525
6.85911
-1.20661
8.27378
-1.5069
10.0051
-1.73201
12.1574
-1.7555
14.8457
-1.49788
18.1651
-0.962534
21.9313
-0.353649
21.4098
0.0511422
17.021
0.217102
13.4881
0.235734
10.8245
0.178352
8.78659
0.0919261
7.2018
0.00836543
5.94175
-0.0533781
4.90729
-0.0570856
3.83118
1.82672
-0.183057
2.89278
-0.392261
4.83357
-0.650351
5.9628
-0.956691
7.16545
-1.27346
8.59054
-1.57163
10.3032
-1.79664
12.3824
-1.85279
14.9018
-1.66162
17.974
-1.20272
21.4724
-0.678637
20.8857
-0.326097
16.6684
-0.162562
13.3246
-0.106969
10.7689
-0.100633
8.78026
-0.1109
7.21206
-0.12456
5.95541
-0.123394
4.90613
-0.0930338
3.80082
1.73369
-0.288948
3.18173
-0.515137
5.05976
-0.821451
6.26911
-1.14393
7.48793
-1.45383
8.90044
-1.73606
10.5855
-1.94381
12.5902
-2.0183
14.9763
-1.88034
17.836
-1.48757
21.0797
-1.03362
20.4318
-0.7141
16.3489
-0.53559
13.1461
-0.434888
10.6682
-0.37498
8.72035
-0.329491
7.16657
-0.286115
5.91204
-0.24169
4.8617
-0.145582
3.70471
1.5881
-0.405983
3.58771
-0.804902
5.45868
-1.17771
6.64192
-1.48358
7.79379
-1.77707
9.19393
-2.03447
10.8429
-2.22023
12.7759
-2.28265
15.0387
-2.16491
17.7183
-1.81312
20.7279
-1.40837
20.027
-1.10909
16.0496
-0.909039
12.946
-0.763318
10.5224
-0.651834
8.60887
-0.563294
7.07804
-0.480615
5.82936
-0.368656
4.74974
-0.194522
3.53058
1.39358
-0.275223
3.86294
-0.602696
5.78615
-0.890821
6.93005
-1.21564
8.11861
-1.54284
9.52113
-1.84884
11.1489
-2.10307
13.0301
-2.27807
15.2137
-2.31702
17.7572
-2.11575
20.5266
-1.8057
19.717
-1.52785
15.7718
-1.29533
12.7135
-1.08736
10.3145
-0.886245
8.40775
-0.690788
6.88258
-0.512522
5.65109
-0.341068
4.57829
-0.155069
3.34458
1.23851
-0.119515
3.98245
-0.256796
5.92343
-0.487017
7.16027
-0.753858
8.38545
-1.01824
9.78551
-1.25811
11.3888
-1.46262
13.2347
-1.61564
15.3668
-1.6617
17.8033
-1.52124
20.3861
-1.2898
19.4855
-1.06113
15.5431
-0.845058
12.4974
-0.647869
10.1173
-0.472902
8.23279
-0.314073
6.72375
-0.16393
5.50095
-0.0535109
4.46787
0.0128775
3.27819
1.25139
-0.0938411
4.07629
-0.177238
6.00683
-0.311855
7.29489
-0.492902
8.5665
-0.685615
9.97822
-0.869577
11.5727
-1.04114
13.4062
-1.17203
15.4976
-1.21512
17.8464
-1.12301
20.294
-0.949846
19.3124
-0.766443
15.3597
-0.588548
12.3195
-0.426599
9.95534
-0.287985
8.09417
-0.17571
6.61147
-0.082942
5.40818
0.00739816
4.37753
0.048555
3.23703
1.29994
-0.0527638
4.12906
-0.136703
6.09077
-0.235851
7.39403
-0.350955
8.68161
-0.473596
10.1009
-0.6212
11.7203
-0.762619
13.5476
-0.871621
15.6066
-0.912544
17.8873
-0.857116
20.2386
-0.726625
19.1819
-0.583863
15.2169
-0.448429
12.1841
-0.326068
9.83298
-0.219773
7.98788
-0.12646
6.51816
-0.0439308
5.32565
0.0250724
4.30852
0.0591578
3.20295
1.3591
0.00304922
4.12601
-0.141684
6.2355
-0.234917
7.48727
-0.291867
8.73856
-0.364598
10.1736
-0.472337
11.8281
-0.583489
13.6588
-0.67273
15.6959
-0.711655
17.9262
-0.681962
20.2089
-0.587026
19.0869
-0.480276
15.1102
-0.379597
12.0834
-0.283331
9.73671
-0.188509
7.89305
-0.0961812
6.42583
-0.0118055
5.24128
0.0475893
4.24913
0.0589072
3.19163
1.41801
-0.0043643
4.13037
-0.0854005
6.31654
-0.162223
7.56409
-0.226851
8.80318
-0.307548
10.2543
-0.389164
11.9097
-0.473971
13.7436
-0.545216
15.7671
-0.581485
17.9625
-0.570329
20.1978
-0.502723
19.0193
-0.416257
15.0237
-0.325164
11.9923
-0.234332
9.64588
-0.147858
7.80658
-0.076264
6.35424
-0.0199504
5.18496
0.0282168
4.20096
0.0415332
3.17831
1.45954
-0.0120262
4.1424
-0.069229
6.37374
-0.123492
7.61835
-0.182298
8.86199
-0.259358
10.3313
-0.334535
11.9849
-0.404704
13.8138
-0.465025
15.8275
-0.499558
17.997
-0.500057
20.1983
-0.446016
18.9653
-0.365868
14.9436
-0.280098
11.9065
-0.20397
9.56975
-0.143139
7.74575
-0.0894021
6.3005
-0.0394263
5.13499
-0.00239718
4.16393
0.00754553
3.16837
1.46709
0.0236813
4.11872
-0.031667
6.42909
-0.0913936
7.67808
-0.16121
8.93181
-0.232929
10.4031
-0.299737
12.0517
-0.36064
13.8747
-0.413665
15.8805
-0.446148
18.0295
-0.453175
20.2053
-0.409482
18.9216
-0.343001
14.8771
-0.274308
11.8379
-0.205069
9.50052
-0.126012
7.66669
-0.0590927
6.23358
-0.0247023
5.1006
-0.00656471
4.1458
-0.0105414
3.17235
1.45655
0.00869139
4.11003
-0.0169303
6.45471
-0.0641761
7.72532
-0.140519
9.00815
-0.211626
10.4742
-0.275051
12.1151
-0.331171
13.9308
-0.379287
15.9286
-0.410698
18.0609
-0.424537
20.2191
-0.391765
18.8888
-0.33072
14.8161
-0.257333
11.7645
-0.193247
9.43643
-0.164888
7.63833
-0.140764
6.20946
-0.09991
5.05974
-0.0435635
4.08945
-0.0111796
3.13996
1.44537
0.0208416
4.08918
-0.00388347
6.47944
-0.0494599
7.7709
-0.118426
9.07711
-0.184905
10.5407
-0.247772
12.178
-0.304707
13.9877
-0.352866
15.9768
-0.386762
18.0948
-0.409335
20.2417
-0.389302
18.8688
-0.341227
14.768
-0.288504
11.7117
-0.231852
9.37978
-0.145937
7.55242
-0.0652749
6.1288
-0.0210148
5.01548
-0.0123598
4.08079
-0.0134696
3.14107
1.4319
0.0175399
4.07164
-0.0237634
6.52074
-0.06442
7.81156
-0.108242
9.12094
-0.162255
10.5947
-0.221843
12.2376
-0.278552
14.0444
-0.329581
16.0278
-0.369872
18.1351
-0.40302
20.2748
-0.397452
18.8632
-0.356731
14.7273
-0.293151
11.6482
-0.227531
9.31416
-0.194667
7.51956
-0.169813
6.10394
-0.133494
4.97916
-0.0723477
4.01965
-0.023069
3.09179
1.40883
0.0126616
4.05898
-0.0200757
6.55348
-0.0629142
7.8544
-0.102886
9.16091
-0.149772
10.6416
-0.200642
12.2884
-0.25553
14.0993
-0.309009
16.0813
-0.356416
18.1825
-0.399929
20.3184
-0.408861
18.8722
-0.382469
14.7009
-0.336459
11.6022
-0.279815
9.25751
-0.201797
7.44154
-0.120589
6.02274
-0.0663514
4.92492
-0.0460353
3.99933
-0.0314955
3.07725
1.37733
0.00112286
4.05786
-0.0269814
6.58158
-0.0517974
7.87921
-0.0912662
9.20038
-0.134421
10.6847
-0.18344
12.3374
-0.237345
14.1532
-0.291976
16.1359
-0.344829
18.2354
-0.397536
20.3711
-0.421101
18.8957
-0.407767
14.6875
-0.36394
11.5583
-0.29861
9.19218
-0.249212
7.39214
-0.209343
5.98287
-0.161028
4.87661
-0.0925717
3.93087
-0.0363802
3.02106
1.34095
0.0115706
4.04629
-0.0183567
6.61151
-0.0515273
7.91238
-0.0831033
9.23195
-0.121606
10.7232
-0.168783
12.3846
-0.221304
14.2058
-0.276652
16.1912
-0.333757
18.2925
-0.393662
20.431
-0.430214
18.9323
-0.433367
14.6907
-0.404958
11.5299
-0.357251
9.14448
-0.278975
7.31386
-0.190614
5.89451
-0.126405
4.8124
-0.099549
3.90402
-0.0574795
2.97899
1.28347
-0.000397797
4.04669
-0.0269112
6.63802
-0.0443042
7.92978
-0.0781741
9.26582
-0.114401
10.7594
-0.157978
12.4282
-0.207773
14.2555
-0.263123
16.2466
-0.32306
18.3524
-0.389201
20.4971
-0.438328
18.9814
-0.459216
14.7116
-0.440795
11.5115
-0.389481
9.09316
-0.332159
7.25654
-0.280464
5.84281
-0.213052
4.74499
-0.1234
3.81437
-0.0568864
2.91248
1.22659
0.0133102
4.03338
-0.00739628
6.65873
-0.0360517
7.95843
-0.072305
9.30208
-0.108452
10.7956
-0.148711
12.4685
-0.195499
14.3023
-0.250041
16.3011
-0.312187
18.4145
-0.383555
20.5685
-0.441877
19.0397
-0.47558
14.7453
-0.478298
11.5142
-0.455672
9.07054
-0.396506
7.19737
-0.305962
5.75227
-0.2246
4.66363
-0.16789
3.75766
-0.0860866
2.83067
1.1405
0.00504468
4.02833
-0.0131197
6.67689
-0.0318657
7.97718
-0.0665307
9.33674
-0.101399
10.8305
-0.139952
12.507
-0.184535
14.3469
-0.238113
16.3547
-0.301298
18.4777
-0.376453
20.6436
-0.444791
19.1081
-0.492862
14.7934
-0.51406
11.5354
-0.492687
9.04916
-0.447601
7.15229
-0.39506
5.69973
-0.3099
4.57847
-0.185372
3.63313
-0.0841726
2.72948
1.05633
0.00743345
4.0209
-0.0159699
6.7003
-0.0315832
7.99279
-0.0622796
9.36744
-0.0940029
10.8622
-0.130666
12.5437
-0.173614
14.3899
-0.226044
16.4071
-0.289603
18.5413
-0.367816
20.7219
-0.444197
19.1844
-0.50018
14.8493
-0.533037
11.5683
-0.548835
9.06496
-0.529584
7.13304
-0.470784
5.64093
-0.384976
4.49266
-0.27848
3.52663
-0.129561
2.58056
0.926768
0.0100942
4.01081
-0.00338465
6.71378
-0.0265649
8.01597
-0.0570759
9.39795
-0.0863477
10.8914
-0.121439
12.5788
-0.163045
14.4315
-0.214381
16.4585
-0.277462
18.6044
-0.357457
20.8018
-0.441344
19.2683
-0.510891
14.9189
-0.559362
11.6167
-0.576701
9.0823
-0.568136
7.12447
-0.537522
5.61031
-0.464813
4.41995
-0.331329
3.39315
-0.166245
2.41547
0.760523
0.00270651
4.0081
-0.016395
6.73288
-0.0289549
8.02853
-0.0533658
9.42236
-0.0799795
10.9181
-0.113073
12.6119
-0.153545
14.4719
-0.203795
16.5087
-0.266451
18.667
-0.348222
20.8836
-0.438038
19.3581
-0.516217
14.9971
-0.576288
11.6768
-0.616982
9.12299
-0.642612
7.1501
-0.634062
5.60176
-0.59747
4.38336
-0.491757
3.28744
-0.189875
2.11359
0.570647
0.00461233
4.00349
-0.00702168
6.74451
-0.0254649
8.04697
-0.0523922
9.44929
-0.0785607
10.9442
-0.110661
12.644
-0.152663
14.5139
-0.205666
16.5617
-0.273323
18.7347
-0.364399
20.9747
-0.470079
19.4638
-0.570977
15.098
-0.661586
11.7674
-0.728064
9.18947
-0.755844
7.17788
-0.757331
5.60325
-0.717229
4.34326
-0.655089
3.22529
-0.45699
1.91549
0.937947
-0.82429
-0.00145821
4.00494
-0.00903819
6.75209
-0.0273178
8.06525
-0.0484045
9.47037
-0.0732035
10.969
-0.104696
12.6754
-0.146734
14.556
-0.199967
16.615
-0.269744
18.8045
-0.366316
21.0713
-0.482987
19.5805
-0.600144
15.2151
-0.712056
11.8793
-0.812195
9.28961
-0.907928
7.27362
-1.01091
5.70623
-1.10939
4.44174
-1.0487
3.1646
-0.933822
1.80061
1.3055
-1.30138
-0.00192501
4.00687
-0.0158202
6.76599
-0.0251721
8.07461
-0.0429818
9.48818
-0.0675439
10.9936
-0.0990332
12.7069
-0.140663
14.5976
-0.194196
16.6685
-0.266055
18.8763
-0.367432
21.1726
-0.494469
19.7075
-0.630586
15.3512
-0.774824
12.0236
-0.92117
9.43596
-1.05756
7.41
-1.16395
5.81263
-1.19941
4.47719
-1.08421
3.04941
-1.29372
2.01012
1.65136
-1.63957
0.00681661
4.00005
-0.00245641
6.77526
-0.0211852
8.09333
-0.0425621
9.50956
-0.0675892
11.0186
-0.0935477
12.7329
-0.134066
14.6381
-0.187242
16.7217
-0.260592
18.9497
-0.366404
21.2785
-0.503053
19.8442
-0.655095
15.5033
-0.822128
12.1906
-1.00328
9.61711
-1.20091
7.60764
-1.37492
5.98664
-1.40249
4.50476
-1.40773
3.05464
-1.67447
2.27686
1.90233
-1.92545
0.000753339
3.9993
-0.011083
6.7871
-0.0271163
8.10937
-0.0411835
9.52363
-0.0635968
11.041
-0.0882063
12.7575
-0.127843
14.6778
-0.180394
16.7742
-0.25477
19.024
-0.364229
21.3879
-0.508948
19.9889
-0.676466
15.6708
-0.872529
12.3867
-1.0856
9.83018
-1.28564
7.80768
-1.41013
6.11113
-1.42759
4.52223
-1.57386
3.20091
-1.85358
2.55659
2.11246
-2.06371
-0.00142389
4.00072
-0.00284594
6.78852
-0.0132552
8.11978
-0.0330837
9.54346
-0.0535658
11.0615
-0.0854712
12.7894
-0.125325
14.7176
-0.17811
16.827
-0.253544
19.0995
-0.36695
21.5013
-0.51881
20.1408
-0.696887
15.8489
-0.904498
12.5943
-1.12427
10.05
-1.33137
8.01478
-1.54023
6.31998
-1.69632
4.67832
-1.92744
3.43203
-2.1819
2.81105
2.25253
-2.32198
0.0032989
3.99742
-0.0137795
6.8056
-0.0203551
8.12635
-0.036473
9.55957
-0.0544636
11.0795
-0.0868641
12.8218
-0.126569
14.7573
-0.180289
16.8807
-0.257258
19.1764
-0.374835
21.6189
-0.532516
20.2984
-0.717494
16.0338
-0.935581
12.8124
-1.18078
10.2952
-1.41223
8.24623
-1.54741
6.45516
-1.67357
4.80448
-1.9531
3.71156
-2.19232
3.05026
2.453
-2.39278
0.0143269
3.9831
0.000343983
6.81958
-0.0182198
8.14492
-0.0423011
9.58366
-0.0619063
11.0991
-0.0886837
12.8486
-0.128138
14.7968
-0.181831
16.9344
-0.259666
19.2543
-0.380854
21.7401
-0.543861
20.4615
-0.730138
16.2201
-0.942717
13.0249
-1.19118
10.5436
-1.43952
8.49456
-1.62855
6.64419
-1.88081
5.05674
-2.33027
4.16102
-2.72934
3.44933
2.7514
-3.02774
0.00153895
3.98156
-0.00409294
6.82521
-0.015133
8.15596
-0.0361972
9.60472
-0.059491
11.1224
-0.0892238
12.8783
-0.12957
14.8371
-0.183376
16.9882
-0.261796
19.3327
-0.385262
21.8635
-0.553314
20.6295
-0.74257
16.4094
-0.945919
13.2283
-1.18957
10.7873
-1.47564
8.78063
-1.73206
6.90062
-1.9609
5.28558
-2.39718
4.5973
-2.90617
3.95832
2.96546
-3.12023
0.00527755
3.97628
-0.00460066
6.83509
-0.0147037
8.16606
-0.0350395
9.62506
-0.05765
11.145
-0.0895268
12.9102
-0.129691
14.8773
-0.183788
17.0423
-0.261665
19.4106
-0.38503
21.9869
-0.554205
20.7987
-0.741954
16.5971
-0.946374
13.4327
-1.16093
11.0018
-1.40941
9.02912
-1.67578
7.16698
-2.16912
5.77892
-2.56585
4.99403
-3.09669
4.48916
3.75736
-3.88859
0.0129073
3.96337
-0.000506469
6.8485
-0.0181671
8.18372
-0.0409767
9.64787
-0.0623205
11.1664
-0.0910764
12.939
-0.129236
14.9155
-0.181998
17.0951
-0.256746
19.4853
-0.37354
22.1037
-0.528301
20.9534
-0.699001
16.7678
-0.889513
13.6232
-1.08539
11.1977
-1.27007
9.2138
-1.50573
7.40264
-1.8783
6.15149
-2.08217
5.19791
-1.52468
3.93166
2.23268
0.0117228
3.95165
-0.000772855
6.861
-0.0160295
8.19898
-0.0375454
9.66938
-0.0614325
11.1902
-0.0911831
12.9687
-0.13054
14.9548
-0.185518
17.1501
-0.262537
19.5623
-0.381389
22.2226
-0.534544
21.1066
-0.701964
16.9352
-0.883658
13.8049
-1.05827
11.3723
-1.16463
9.32016
-1.23778
7.47579
-1.18598
6.09969
-1.06413
5.07606
-0.740018
3.60756
1.49266
0.00617585
3.94548
-0.00186049
6.86904
-0.0117293
8.20884
-0.0321564
9.68981
-0.0574377
11.2155
-0.0884144
12.9997
-0.129017
14.9954
-0.185598
17.2066
-0.262739
19.6395
-0.381272
22.3411
-0.531724
21.257
-0.687603
17.0911
-0.842297
13.9596
-0.963821
11.4938
-0.996644
9.35298
-0.993378
7.47252
-1.02166
6.12796
-1.00667
5.06107
-0.827467
3.42836
0.665198
0.0165959
3.92888
0.00465577
6.88098
-0.00903517
8.22254
-0.0316249
9.7124
-0.0559468
11.2398
-0.0843042
13.028
-0.125476
15.0366
-0.181677
17.2628
-0.256693
19.7145
-0.371473
22.4559
-0.512874
21.3984
-0.648125
17.2264
-0.76083
14.0723
-0.835288
11.5683
-0.857124
9.37482
-0.878096
7.49349
-0.929735
6.1796
-0.864381
4.99572
-0.412389
2.97636
0.252809
0.0146543
3.91422
0.00421472
6.89142
-0.00536675
8.23212
-0.0270032
9.73404
-0.0509063
11.2638
-0.0777077
13.0548
-0.12094
15.0798
-0.172751
17.3147
-0.243994
19.7857
-0.351314
22.5632
-0.477435
21.5246
-0.581128
17.3301
-0.640222
14.1314
-0.699473
11.6275
-0.738378
9.41372
-0.765019
7.52013
-0.745183
6.15977
-0.561256
4.81179
-0.174849
2.58996
0.0779596
0.021391
3.89283
0.0117409
6.90107
0.000397601
8.24346
-0.0203883
9.75482
-0.0413409
11.2847
-0.0669344
13.0804
-0.110715
15.1236
-0.155797
17.3597
-0.222519
19.8525
-0.31775
22.6584
-0.416764
21.6236
-0.488505
17.4018
-0.528789
14.1717
-0.560385
11.6591
-0.574755
9.42809
-0.577682
7.52306
-0.481024
6.06311
-0.298076
4.62884
-0.110676
2.40256
-0.0327163
0.0212599
3.87157
0.0170406
6.90529
0.0103854
8.25012
-0.0124211
9.77763
-0.0263716
11.2987
-0.0536135
13.1077
-0.0939188
15.1639
-0.131546
17.3974
-0.192448
19.9134
-0.272133
22.7381
-0.343547
21.695
-0.389255
17.4475
-0.414408
14.1968
-0.389245
11.634
-0.357254
9.3961
-0.289991
7.4558
-0.185607
5.95873
-0.0307064
4.47394
0.0511725
2.32068
0.0184561
0.0319136
3.83966
0.0280706
6.90913
0.0192127
8.25897
-0.00089656
9.79774
-0.00413221
11.3019
-0.0359775
13.1395
-0.0657486
15.1937
-0.0983472
17.43
-0.151123
19.9661
-0.213116
22.8001
-0.260718
21.7426
-0.281339
17.4681
-0.277055
14.1926
-0.20968
11.5666
-0.119522
9.30594
0.014892
7.32138
0.145085
5.82853
0.216414
4.40261
0.166426
2.37067
0.184882
0.0306573
3.809
0.0366963
6.90309
0.0348739
8.2608
0.0215666
9.81104
0.0167282
11.3067
-0.0152271
13.1715
-0.0259943
15.2044
-0.0587443
17.4627
-0.0999667
20.0074
-0.14352
22.8437
-0.168462
21.7675
-0.16292
17.4626
-0.122158
14.1518
-0.0349747
11.4794
0.0736669
9.1973
0.188646
7.2064
0.320611
5.69657
0.405516
4.31771
0.276349
2.49983
0.461231
0.0451324
3.76387
0.0535467
6.89467
0.0541207
8.26022
0.0477253
9.81744
0.0422579
11.3122
0.0247879
13.1889
0.0232527
15.206
-0.0107882
17.4968
-0.0368265
20.0334
-0.0629282
22.8698
-0.0672923
21.7719
-0.0374908
17.4328
0.0356892
14.0786
0.12637
11.3887
0.204295
9.11938
0.274007
7.13669
0.362471
5.60811
0.433097
4.24708
0.314213
2.61872
0.775444
0.0476214
3.71625
0.0695968
6.8727
0.0802876
8.24953
0.0818933
9.81583
0.0810273
11.3131
0.0799344
13.19
0.0746897
15.2112
0.0626586
17.5088
0.0441599
20.0519
0.030748
22.8832
0.0465552
21.7561
0.0961146
17.3832
0.163416
14.0113
0.230502
11.3217
0.281979
9.0679
0.322392
7.09628
0.376423
5.55407
0.402022
4.22148
0.279786
2.74095
1.05523
0.0688227
3.64743
0.094901
6.84662
0.111987
8.23245
0.120677
9.80714
0.132843
11.3009
0.145461
13.1774
0.1475
15.2092
0.154599
17.5017
0.14771
20.0588
0.148738
22.8821
0.169925
21.7349
0.212694
17.3405
0.264757
13.9593
0.325379
11.261
0.372305
9.02097
0.39404
7.07454
0.40668
5.54144
0.375213
4.25295
0.228648
2.88752
1.28388
0.0803961
3.56703
0.124602
6.80242
0.154261
8.20279
0.176952
9.78445
0.201274
11.2766
0.221699
13.157
0.237964
15.1929
0.258568
17.4811
0.2646
20.0528
0.274007
22.8727
0.290841
21.7181
0.329972
17.3013
0.384717
13.9045
0.445653
11.2001
0.483294
8.98333
0.469322
7.08852
0.431843
5.57891
0.35312
4.33167
0.190468
3.05017
1.47435
0.105846
3.46118
0.161615
6.74665
0.207601
8.1568
0.246357
9.7457
0.284886
11.238
0.320509
13.1214
0.359641
15.1538
0.388529
17.4522
0.405523
20.0358
0.419634
22.8586
0.434862
21.7028
0.46772
17.2685
0.513196
13.859
0.55289
11.1604
0.56725
8.96897
0.513602
7.14216
0.443606
5.64891
0.339171
4.43611
0.176684
3.21266
1.65103
0.132949
3.32823
0.218505
6.66109
0.281169
8.09414
0.338235
9.68863
0.394301
11.182
0.444656
13.071
0.504086
15.0944
0.543656
17.4126
0.572891
20.0065
0.591098
22.8404
0.59873
21.6952
0.607737
17.2595
0.623081
13.8437
0.63212
11.1514
0.634703
8.96639
0.565275
7.21159
0.468669
5.74552
0.337898
4.56688
0.162052
3.3885
1.81308
0.175107
3.15313
0.284814
6.55139
0.375082
8.00387
0.45936
9.60435
0.53647
11.1049
0.609016
12.9985
0.688646
15.0147
0.74465
17.3566
0.785711
19.9655
0.799569
22.8266
0.78026
21.7145
0.749556
17.2902
0.719109
13.8741
0.680959
11.1895
0.651569
8.99578
0.563744
7.29942
0.449883
5.85938
0.309889
4.70687
0.134915
3.56348
1.948
0.234918
2.91821
0.397252
6.38905
0.5116
7.88952
0.619477
9.49648
0.721363
11.003
0.819904
12.8999
0.920743
14.9139
0.996957
17.2804
1.05033
19.9121
1.05401
22.8229
1.00504
21.7635
0.932436
17.3628
0.851556
13.955
0.759842
11.2812
0.676026
9.0796
0.572683
7.40276
0.440027
5.99203
0.29364
4.85326
0.115626
3.74149
2.06362
0.317584
2.60063
0.533075
6.17356
0.694946
7.72765
0.844867
9.34655
0.974771
10.8731
1.10406
12.7706
1.23227
14.7857
1.32807
17.1846
1.39377
19.8464
1.39225
22.8244
1.31816
21.8376
1.19774
17.4832
1.05963
14.0931
0.903737
11.4371
0.73201
9.25132
0.583164
7.55161
0.423325
6.15187
0.270353
5.00623
0.103804
3.90804
2.16743
0.454369
2.14626
0.760936
5.86699
0.963595
7.52499
1.14335
9.1668
1.30642
10.71
1.47746
12.5996
1.63575
14.6274
1.75692
17.0634
1.8436
19.7597
1.84579
22.8222
1.75082
21.9325
1.5867
17.6473
1.39624
14.2836
1.19117
11.6422
0.952593
9.4899
0.751391
7.75281
0.548502
6.35476
0.358577
5.19616
0.157551
4.10907
2.32498
0.62225
1.52401
1.05162
5.43762
1.33583
7.24078
1.57423
8.9284
1.77627
10.508
1.98329
12.3926
2.17658
14.4341
2.339
16.901
2.45817
19.6405
2.47948
22.8009
2.3762
22.0358
2.18459
17.8389
1.95143
14.5167
1.69717
11.8965
1.39775
9.78932
1.10844
8.04212
0.816227
6.64697
0.539076
5.47331
0.262884
4.38526
2.58786
0.54501
0.978997
0.982433
5.0002
1.28488
6.93833
1.52621
8.68707
1.72748
10.3067
1.91406
12.206
2.04962
14.2985
2.13768
16.813
2.15173
19.6265
2.0622
22.8904
1.87768
22.2203
1.65883
18.0578
1.43097
14.7446
1.20894
12.1185
0.973471
10.0248
0.765587
8.25
0.567385
6.84518
0.386572
5.65412
0.191818
4.58001
2.77968
0.0941758
0.884821
0.300664
4.79371
0.552823
6.68617
0.810563
8.42933
1.05376
10.0635
1.26174
11.998
1.43361
14.1267
1.57669
16.6699
1.6469
19.5563
1.60998
22.9274
1.46717
22.3631
1.28009
18.2449
1.07692
14.9478
0.883151
12.3123
0.690435
10.2175
0.50729
8.43315
0.351304
7.00116
0.210523
5.7949
0.0866972
4.70384
2.86638
-0.174643
1.05946
-0.0829094
4.70198
0.106242
6.49702
0.336195
8.19938
0.553528
9.84617
0.765413
11.7861
0.966806
13.9253
1.13008
16.5066
1.22446
19.4619
1.22743
22.9244
1.12517
22.4654
0.974899
18.3951
0.805087
15.1176
0.642193
12.4752
0.490701
10.369
0.351156
8.57269
0.228953
7.12336
0.12209
5.90176
0.0410006
4.78493
2.90738
-0.267341
1.3268
-0.188746
4.62338
-0.0735726
6.38185
0.0667219
8.05908
0.244032
9.66886
0.441394
11.5888
0.63913
13.7275
0.796014
16.3497
0.892729
19.3652
0.914004
22.9031
0.849096
22.5303
0.737539
18.5067
0.603217
15.2519
0.471679
12.6067
0.356831
10.4838
0.252433
8.67709
0.164948
7.21085
0.0917612
5.97495
0.0233633
4.85333
2.93074
-0.273155
1.59996
-0.23925
4.58948
-0.149918
6.29251
-0.0237703
7.93293
0.122778
9.52231
0.285396
11.4261
0.427847
13.5851
0.552919
16.2246
0.645829
19.2723
0.681496
22.8675
0.6419
22.5699
0.558901
18.5897
0.455409
15.3554
0.354031
12.7081
0.270305
10.5676
0.188881
8.75851
0.114302
7.28543
0.0477026
6.04155
-0.0090663
4.9101
2.92167
-0.207294
1.80725
-0.225034
4.60722
-0.156509
6.22399
-0.0335284
7.80995
0.0829823
9.4058
0.199191
11.3099
0.297284
13.487
0.389754
16.1322
0.471319
19.1907
0.510139
22.8286
0.485931
22.5941
0.42477
18.6509
0.347582
15.4326
0.26884
12.7868
0.201729
10.6347
0.132777
8.82746
0.0647656
7.35344
0.00143809
6.10488
-0.0361735
4.94771
2.8855
-0.15245
1.9597
-0.189959
4.64473
-0.148782
6.18281
-0.052535
7.71371
0.0401883
9.31308
0.131852
11.2183
0.198623
13.4202
0.284752
16.046
0.352037
19.1234
0.384075
22.7966
0.368276
22.6099
0.324053
18.6951
0.266091
15.4906
0.200218
12.8527
0.140904
10.694
0.0815462
8.88682
0.0257939
7.40919
-0.0209124
6.15158
-0.0442866
4.97108
2.84121
-0.111201
2.0709
-0.149493
4.68302
-0.134908
6.16823
-0.077652
7.65645
-0.013203
9.24863
0.0607534
11.1443
0.134148
13.3468
0.214822
15.9654
0.269318
19.0689
0.291872
22.774
0.280021
22.6218
0.244868
18.7302
0.197558
15.5379
0.141752
12.9085
0.0893241
10.7464
0.040227
8.93592
0.00047249
7.44895
-0.03332
6.18538
-0.0452287
4.98299
2.79599
-0.0845214
2.15543
-0.12028
4.71878
-0.118422
6.16637
-0.0883971
7.62642
-0.0610847
9.22132
0.00397429
11.0793
0.0784236
13.2724
0.157588
15.8862
0.198016
19.0285
0.218461
22.7536
0.210783
22.6294
0.179403
18.7616
0.137845
15.5794
0.0926509