/*--------------------------------*- C++ -*----------------------------------*\
| =========                 |                                                 |
| \\      /  F ield         | OpenFOAM: The Open Source CFD Toolbox           |
|  \\    /   O peration     | Version:  2412                                  |
|   \\  /    A nd           | Website:  www.openfoam.com                      |
|    \\/     M anipulation  |                                                 |
\*---------------------------------------------------------------------------*/
FoamFile
{
    version     2.0;
    format      ascii;
    arch        "LSB;label=32;scalar=64";
    class       volVectorField;
    location    "3.25";
    object      U;
}
// * * * * * * * * * * * * * * * * * * * * * * * * * * * * * * * * * * * * * //

dimensions      [0 1 -1 0 0 0 0];

internalField   nonuniform List<vector> 
2200
(
(0.36595 0.00154054 0)
(1.18759 -0.00385338 0)
(2.12005 -0.000407661 0)
(3.16803 0.000400192 0)
(4.32563 0.00143735 0)
(5.57191 0.00264616 0)
(6.86273 0.00288293 0)
(8.12038 0.0033483 0)
(9.20758 0.00354928 0)
(9.9016 0.00296361 0)
(9.90085 0.00125525 0)
(9.20654 -0.000579589 0)
(8.12105 -0.000738076 0)
(6.86347 -0.00065281 0)
(5.57182 -0.0007188 0)
(4.32513 -0.000246104 0)
(3.16783 0.000348757 0)
(2.11993 0.00122633 0)
(1.18712 0.00453796 0)
(0.365077 -0.0015054 0)
(0.372102 0.00773025 0)
(1.17487 0.00265278 0)
(2.11835 0.00469971 0)
(3.16806 0.00443228 0)
(4.32417 0.00724388 0)
(5.57206 0.00870797 0)
(6.86423 0.0107379 0)
(8.11914 0.0102232 0)
(9.20262 0.00904854 0)
(9.89669 0.00655527 0)
(9.89721 0.00283529 0)
(9.20314 -0.000427339 0)
(8.1183 -0.00295709 0)
(6.86232 -0.0047038 0)
(5.57061 -0.0043538 0)
(4.32367 -0.00333572 0)
(3.16696 -0.00213918 0)
(2.11597 -0.00356188 0)
(1.17198 -0.00129174 0)
(0.36998 -0.00777797 0)
(0.403042 0.0121191 0)
(1.17611 0.0174588 0)
(2.12429 0.0127358 0)
(3.16603 0.0178617 0)
(4.32434 0.0177223 0)
(5.56574 0.0217338 0)
(6.85889 0.0197819 0)
(8.11534 0.0191163 0)
(9.20091 0.0176026 0)
(9.89183 0.0116219 0)
(9.89174 0.00424189 0)
(9.19861 -0.00363049 0)
(8.11298 -0.00703513 0)
(6.85629 -0.00953971 0)
(5.56325 -0.0123626 0)
(4.32125 -0.0109911 0)
(3.16218 -0.0129848 0)
(2.11968 -0.00972587 0)
(1.17032 -0.016184 0)
(0.398104 -0.0117642 0)
(0.478851 0.0133875 0)
(1.19575 0.0356682 0)
(2.14136 0.0309357 0)
(3.17743 0.0396593 0)
(4.33271 0.035391 0)
(5.57415 0.0345615 0)
(6.85449 0.0329588 0)
(8.1049 0.0308392 0)
(9.18974 0.0255006 0)
(9.8797 0.0171198 0)
(9.88057 0.00415929 0)
(9.18719 -0.00688363 0)
(8.10194 -0.0140593 0)
(6.84932 -0.0187714 0)
(5.56679 -0.0226328 0)
(4.32327 -0.0259048 0)
(3.1686 -0.0320462 0)
(2.12983 -0.025736 0)
(1.18524 -0.0333508 0)
(0.471388 -0.0122289 0)
(0.573626 0.00870503 0)
(1.24094 0.046969 0)
(2.14134 0.0446491 0)
(3.20123 0.0482613 0)
(4.34164 0.0615112 0)
(5.5827 0.050002 0)
(6.8615 0.051026 0)
(8.10641 0.0430417 0)
(9.18415 0.0343167 0)
(9.86776 0.0216512 0)
(9.86809 0.00371738 0)
(9.17763 -0.0101214 0)
(8.09776 -0.0215303 0)
(6.85093 -0.0325387 0)
(5.56897 -0.0358047 0)
(4.32641 -0.0492967 0)
(3.1834 -0.0385919 0)
(2.12135 -0.0395885 0)
(1.22325 -0.044112 0)
(0.55515 -0.00809675 0)
(0.669133 0.00498852 0)
(1.34341 0.0497354 0)
(2.13098 0.0588295 0)
(3.22096 0.0467592 0)
(4.35733 0.0702464 0)
(5.59025 0.0756082 0)
(6.86815 0.0728822 0)
(8.10549 0.0644788 0)
(9.1785 0.0496956 0)
(9.85176 0.0287646 0)
(9.85148 0.00277563 0)
(9.16642 -0.0195658 0)
(8.09164 -0.0380636 0)
(6.85017 -0.050812 0)
(5.56898 -0.0577131 0)
(4.33571 -0.0550809 0)
(3.19385 -0.0391061 0)
(2.10329 -0.0532394 0)
(1.31894 -0.0481723 0)
(0.651133 -0.00442133 0)
(0.759067 0.0086501 0)
(1.45379 0.0490604 0)
(2.12633 0.0783898 0)
(3.23114 0.0528731 0)
(4.39586 0.0730202 0)
(5.6174 0.0980179 0)
(6.88606 0.0951932 0)
(8.11237 0.0866853 0)
(9.17563 0.0711702 0)
(9.8351 0.0392551 0)
(9.83415 -0.00153418 0)
(9.15911 -0.0364989 0)
(8.09295 -0.056322 0)
(6.8607 -0.0690447 0)
(5.58839 -0.0773019 0)
(4.36227 -0.0579867 0)
(3.19306 -0.0426273 0)
(2.08933 -0.0724056 0)
(1.42025 -0.0450926 0)
(0.731411 -0.00757739 0)
(0.865722 0.0161771 0)
(1.57441 0.0546518 0)
(2.14417 0.105881 0)
(3.23391 0.083334 0)
(4.43626 0.0917641 0)
(5.63021 0.111777 0)
(6.89033 0.115581 0)
(8.11035 0.111356 0)
(9.16963 0.088878 0)
(9.81816 0.0495422 0)
(9.81589 -0.00489691 0)
(9.14577 -0.0477903 0)
(8.0829 -0.0759155 0)
(6.85534 -0.0868552 0)
(5.59153 -0.0898614 0)
(4.39179 -0.0788214 0)
(3.18767 -0.0723157 0)
(2.0993 -0.100612 0)
(1.5339 -0.0512726 0)
(0.829956 -0.0151818 0)
(1.01164 0.0249234 0)
(1.73089 0.0679651 0)
(2.21666 0.142326 0)
(3.23869 0.155552 0)
(4.45415 0.138915 0)
(5.63294 0.135429 0)
(6.87099 0.139043 0)
(8.0895 0.135326 0)
(9.14559 0.113264 0)
(9.78104 0.0622384 0)
(9.7785 -0.00896234 0)
(9.1149 -0.0657479 0)
(8.05388 -0.0940273 0)
(6.82688 -0.107062 0)
(5.5818 -0.110393 0)
(4.3975 -0.120047 0)
(3.178 -0.144041 0)
(2.16091 -0.135373 0)
(1.68305 -0.064281 0)
(0.968768 -0.024364 0)
(1.20138 0.031841 0)
(1.93078 0.0788942 0)
(2.35803 0.176086 0)
(3.25908 0.209766 0)
(4.44256 0.208903 0)
(5.64111 0.180463 0)
(6.83974 0.179079 0)
(8.03612 0.156631 0)
(9.09333 0.13224 0)
(9.71726 0.0723759 0)
(9.71433 -0.0101862 0)
(9.05666 -0.0772912 0)
(7.99049 -0.109291 0)
(6.78365 -0.141683 0)
(5.577 -0.153047 0)
(4.37187 -0.188296 0)
(3.18647 -0.19891 0)
(2.29336 -0.168004 0)
(1.87206 -0.0746023 0)
(1.14882 -0.030597 0)
(1.4267 0.036433 0)
(2.1703 0.088686 0)
(2.54053 0.20124 0)
(3.32137 0.254792 0)
(4.43232 0.272802 0)
(5.653 0.250515 0)
(6.82588 0.236155 0)
(7.96803 0.196274 0)
(9.00961 0.145727 0)
(9.60413 0.0814752 0)
(9.59945 -0.0101571 0)
(8.96316 -0.0809252 0)
(7.90925 -0.143052 0)
(6.75541 -0.193271 0)
(5.57207 -0.217317 0)
(4.33998 -0.250885 0)
(3.23143 -0.240154 0)
(2.4638 -0.192871 0)
(2.09917 -0.0839953 0)
(1.362 -0.0345319 0)
(1.67574 0.0400954 0)
(2.44272 0.0970736 0)
(2.76662 0.227132 0)
(3.43139 0.296409 0)
(4.44697 0.339407 0)
(5.66126 0.330527 0)
(6.81775 0.313984 0)
(7.92614 0.271577 0)
(8.92522 0.19531 0)
(9.46886 0.110032 0)
(9.46269 -0.0242557 0)
(8.8688 -0.118751 0)
(7.85087 -0.208095 0)
(6.73125 -0.262496 0)
(5.55748 -0.292064 0)
(4.33734 -0.315551 0)
(3.32893 -0.281998 0)
(2.67684 -0.215834 0)
(2.36273 -0.0924795 0)
(1.60139 -0.0370806 0)
(1.95842 0.0414452 0)
(2.76083 0.109293 0)
(3.0336 0.249828 0)
(3.59271 0.344635 0)
(4.49757 0.409791 0)
(5.65849 0.405141 0)
(6.80094 0.382476 0)
(7.91117 0.343914 0)
(8.87719 0.267075 0)
(9.39109 0.145065 0)
(9.38267 -0.0469037 0)
(8.81189 -0.178564 0)
(7.81704 -0.267238 0)
(6.69048 -0.321905 0)
(5.53064 -0.361839 0)
(4.36514 -0.380276 0)
(3.47209 -0.321551 0)
(2.93018 -0.236631 0)
(2.65985 -0.100373 0)
(1.85889 -0.037405 0)
(2.248 0.0413766 0)
(3.10404 0.11283 0)
(3.34837 0.268487 0)
(3.8003 0.373224 0)
(4.57998 0.469153 0)
(5.64628 0.473661 0)
(6.76389 0.435288 0)
(7.8784 0.383939 0)
(8.81846 0.316187 0)
(9.31309 0.169975 0)
(9.29996 -0.0517986 0)
(8.73857 -0.208463 0)
(7.759 -0.291477 0)
(6.62274 -0.367848 0)
(5.49425 -0.427081 0)
(4.42857 -0.437427 0)
(3.66291 -0.353166 0)
(3.22555 -0.252097 0)
(2.99573 -0.10571 0)
(2.13176 -0.0373408 0)
(2.56433 0.0379144 0)
(3.49759 0.121854 0)
(3.69632 0.279403 0)
(4.05317 0.400937 0)
(4.70176 0.518754 0)
(5.64452 0.548524 0)
(6.70808 0.510977 0)
(7.8006 0.430864 0)
(8.68904 0.346628 0)
(9.14623 0.188757 0)
(9.12697 -0.0483281 0)
(8.59486 -0.218121 0)
(7.64965 -0.322369 0)
(6.52988 -0.432439 0)
(5.45983 -0.493109 0)
(4.52213 -0.476697 0)
(3.89284 -0.370705 0)
(3.55446 -0.258243 0)
(3.35262 -0.10686 0)
(2.40659 -0.033319 0)
(2.85274 0.0366971 0)
(3.8813 0.117442 0)
(4.07207 0.286027 0)
(4.34324 0.419996 0)
(4.86779 0.559468 0)
(5.67231 0.626135 0)
(6.65677 0.614741 0)
(7.68899 0.524621 0)
(8.51666 0.392955 0)
(8.91675 0.225135 0)
(8.88871 -0.0510928 0)
(8.40283 -0.234536 0)
(7.49527 -0.390979 0)
(6.43594 -0.51445 0)
(5.45297 -0.55529 0)
(4.65993 -0.508215 0)
(4.15963 -0.381674 0)
(3.90742 -0.25837 0)
(3.72426 -0.104919 0)
(2.66686 -0.0252654 0)
(3.17306 0.0314527 0)
(4.32003 0.125959 0)
(4.4819 0.291419 0)
(4.68027 0.434895 0)
(5.08791 0.58797 0)
(5.75035 0.689933 0)
(6.62968 0.706788 0)
(7.56928 0.627574 0)
(8.35224 0.445565 0)
(8.71506 0.269384 0)
(8.67812 -0.0598283 0)
(8.21642 -0.254506 0)
(7.33637 -0.470246 0)
(6.36182 -0.576354 0)
(5.48657 -0.593066 0)
(4.84778 -0.512754 0)
(4.46169 -0.37535 0)
(4.27821 -0.243447 0)
(4.10186 -0.0956654 0)
(2.89566 -0.0158413 0)
(3.43178 0.0262513 0)
(4.72432 0.108622 0)
(4.89612 0.275554 0)
(5.03906 0.42783 0)
(5.35161 0.597224 0)
(5.87647 0.717051 0)
(6.62555 0.764974 0)
(7.44873 0.698915 0)
(8.1853 0.493363 0)
(8.52846 0.312673 0)
(8.48004 -0.0524009 0)
(8.01226 -0.261892 0)
(7.17233 -0.510965 0)
(6.3053 -0.599805 0)
(5.56293 -0.59315 0)
(5.06627 -0.491941 0)
(4.77785 -0.353975 0)
(4.65021 -0.224155 0)
(4.47759 -0.0816578 0)
(3.08684 -0.00623685 0)
(3.71031 0.0225093 0)
(5.16124 0.114686 0)
(5.32465 0.265595 0)
(5.41645 0.414424 0)
(5.64486 0.574814 0)
(6.03713 0.717859 0)
(6.63701 0.790758 0)
(7.33092 0.735952 0)
(7.9937 0.545209 0)
(8.31344 0.349577 0)
(8.24731 -0.0249449 0)
(7.77247 -0.262033 0)
(7.00884 -0.505223 0)
(6.26964 -0.589976 0)
(5.67691 -0.550236 0)
(5.30331 -0.444303 0)
(5.09212 -0.306955 0)
(5.00334 -0.181682 0)
(4.81525 -0.0587138 0)
(3.20999 0.00452502 0)
(3.92522 0.0163684 0)
(5.53603 0.0910499 0)
(5.71755 0.23673 0)
(5.78373 0.380582 0)
(5.94774 0.550845 0)
(6.23187 0.690908 0)
(6.66571 0.793299 0)
(7.24003 0.761344 0)
(7.7954 0.603063 0)
(8.07461 0.384139 0)
(7.98709 0.0209926 0)
(7.52034 -0.244035 0)
(6.85036 -0.452694 0)
(6.25433 -0.540847 0)
(5.8044 -0.466165 0)
(5.53236 -0.369957 0)
(5.37826 -0.253792 0)
(5.31128 -0.146573 0)
(5.11237 -0.0396618 0)
(3.27467 0.0126392 0)
(4.13869 0.0194583 0)
(5.91885 0.101649 0)
(6.09492 0.219665 0)
(6.1332 0.355357 0)
(6.24469 0.503408 0)
(6.44256 0.642215 0)
(6.74671 0.766862 0)
(7.17555 0.771575 0)
(7.61477 0.647284 0)
(7.837 0.422121 0)
(7.72627 0.083989 0)
(7.28728 -0.187598 0)
(6.71946 -0.362186 0)
(6.25851 -0.418627 0)
(5.93014 -0.360058 0)
(5.7297 -0.280894 0)
(5.61968 -0.182483 0)
(5.56677 -0.0985941 0)
(5.35103 -0.0191666 0)
(3.2876 0.0146926 0)
(4.3704 0.0195184 0)
(6.23674 0.0866682 0)
(6.43197 0.202138 0)
(6.45844 0.327348 0)
(6.53102 0.469095 0)
(6.65532 0.608461 0)
(6.85686 0.725858 0)
(7.15469 0.769893 0)
(7.46551 0.681202 0)
(7.62029 0.47004 0)
(7.48428 0.16523 0)
(7.09041 -0.0898934 0)
(6.62542 -0.232023 0)
(6.27257 -0.269761 0)
(6.03001 -0.228773 0)
(5.88059 -0.171303 0)
(5.79741 -0.10784 0)
(5.75506 -0.05141 0)
(5.49957 0.0033153 0)
(3.2772 0.0117171 0)
(4.56157 0.027526 0)
(6.56375 0.10353 0)
(6.74844 0.20185 0)
(6.76018 0.320172 0)
(6.79133 0.456616 0)
(6.86261 0.586482 0)
(6.97744 0.709647 0)
(7.15663 0.779017 0)
(7.34753 0.717198 0)
(7.43049 0.532031 0)
(7.26736 0.268075 0)
(6.91946 0.041358 0)
(6.54702 -0.0751066 0)
(6.27732 -0.111864 0)
(6.09363 -0.0964246 0)
(5.97965 -0.0637732 0)
(5.91534 -0.0188788 0)
(5.86863 0.00547006 0)
(5.52917 0.0347267 0)
(3.22642 0.0162225 0)
(4.89083 0.0405764 0)
(6.85239 0.114029 0)
(7.04992 0.220282 0)
(7.04335 0.346836 0)
(7.04551 0.47144 0)
(7.058 0.612166 0)
(7.10191 0.737476 0)
(7.17067 0.802997 0)
(7.25348 0.774398 0)
(7.26132 0.617996 0)
(7.0774 0.393399 0)
(6.76986 0.195517 0)
(6.4725 0.0915705 0)
(6.26235 0.0479731 0)
(6.11862 0.0402604 0)
(6.02638 0.0404427 0)
(5.96919 0.0472167 0)
(5.90614 0.0570338 0)
(5.51041 0.0444627 0)
(3.07918 0.0318954 0)
(5.16933 0.0665761 0)
(7.19645 0.168989 0)
(7.35633 0.278115 0)
(7.32798 0.408984 0)
(7.2824 0.55221 0)
(7.24524 0.685124 0)
(7.21718 0.802403 0)
(7.19728 0.860538 0)
(7.18713 0.858341 0)
(7.12089 0.730529 0)
(6.91976 0.535494 0)
(6.64122 0.363415 0)
(6.3956 0.261995 0)
(6.22055 0.202972 0)
(6.09853 0.170753 0)
(6.01752 0.149063 0)
(5.96191 0.130032 0)
(5.88775 0.107857 0)
(5.45169 0.0853018 0)
(2.93267 0.0447216 0)
(5.92933 0.137564 0)
(7.52739 0.245751 0)
(7.67437 0.390502 0)
(7.59476 0.557233 0)
(7.50669 0.699779 2.68731e-33)
(7.41601 0.824141 -1.86007e-33)
(7.32266 0.93032 0)
(7.22855 0.98257 0)
(7.13845 0.981525 0)
(7.00001 0.874248 0)
(6.77825 0.694987 0)
(6.51941 0.541202 0)
(6.30856 0.434367 0)
(6.15472 0.361584 0)
(6.04416 0.306885 0)
(5.96537 0.259562 0)
(5.90671 0.220561 0)
(5.81273 0.181734 0)
(5.22588 0.123721 0)
(2.54528 0.0604933 0)
(6.43584 0.292689 -3.27154e-19)
(7.95581 0.399303 2.86969e-19)
(7.97342 0.616246 0)
(7.83641 0.810931 2.86409e-20)
(7.70187 0.925524 -2.30726e-20)
(7.5557 1.038 1.97224e-33)
(7.40764 1.11918 0)
(7.25001 1.15851 1.88476e-19)
(7.09404 1.15082 -6.79269e-19)
(6.88199 1.05781 1.49693e-19)
(6.63963 0.890394 0)
(6.3916 0.75058 -4.97711e-19)
(6.19726 0.636427 -6.22361e-19)
(6.05063 0.550063 1.09362e-18)
(5.94206 0.479358 -8.79285e-19)
(5.85903 0.418474 0)
(5.78634 0.349931 -3.39477e-19)
(5.63758 0.267022 0)
(4.92155 0.223279 -1.71541e-18)
(2.23845 0.0985758 2.12463e-18)
(6.76216 0.622757 -8.57933e-20)
(8.24085 0.790735 -2.07058e-18)
(8.22687 1.00432 5.33605e-19)
(8.04662 1.11424 6.75491e-19)
(7.85822 1.2116 -4.37436e-20)
(7.66866 1.29777 1.077e-19)
(7.46945 1.36084 0)
(7.26121 1.38621 0)
(7.04861 1.37075 1.08513e-18)
(6.76796 1.28579 0)
(6.50214 1.12872 1.7338e-18)
(6.24863 0.997351 5.42012e-19)
(6.05134 0.88132 1.54003e-20)
(5.89722 0.786886 -1.24823e-18)
(5.77559 0.704139 0)
(5.68023 0.638076 0)
(5.59355 0.599075 -5.86541e-18)
(5.43873 0.516542 1.48419e-17)
(4.7521 0.418888 -8.05947e-18)
(2.12569 0.193145 -1.03532e-17)
(6.92974 0.975607 2.6755e-18)
(8.46169 1.3465 -9.5617e-19)
(8.41334 1.42623 -2.40956e-19)
(8.19375 1.49252 -1.22356e-18)
(7.97659 1.54587 5.39366e-19)
(7.74813 1.59905 -1.2944e-19)
(7.50526 1.64129 2.02097e-19)
(7.25757 1.64588 0)
(6.99542 1.61621 -2.27883e-18)
(6.66209 1.52619 2.53206e-18)
(6.37395 1.37433 -4.74374e-18)
(6.10956 1.24335 2.31259e-18)
(5.90456 1.12645 -1.70865e-18)
(5.74256 1.0332 3.7404e-18)
(5.61061 0.950948 0)
(5.49875 0.880755 -1.47586e-18)
(5.39779 0.823253 0)
(5.23726 0.817843 8.56612e-18)
(4.63551 0.614094 -1.94269e-17)
(2.13577 0.34833 1.2849e-17)
(6.98883 1.3093 -1.18718e-17)
(8.57414 1.84201 6.42085e-18)
(8.53936 1.88871 9.28481e-19)
(8.30612 1.89211 0)
(8.06402 1.90041 6.12079e-19)
(7.79437 1.93264 -6.40536e-19)
(7.51846 1.94447 -2.45618e-19)
(7.23581 1.92667 0)
(6.93313 1.87692 1.61597e-18)
(6.56296 1.77411 -1.74043e-18)
(6.25193 1.6223 4.1732e-18)
(5.9726 1.48567 0)
(5.75347 1.36648 -3.59707e-18)
(5.57806 1.27358 1.98038e-18)
(5.43322 1.19843 5.40196e-18)
(5.31573 1.13136 -4.7494e-18)
(5.22055 1.05407 7.92229e-18)
(5.07584 1.0582 -1.76879e-17)
(4.53447 0.841051 1.11674e-17)
(2.22952 0.464632 -1.42937e-17)
(7.01151 1.50167 8.10883e-18)
(8.60716 2.37817 -7.15285e-18)
(8.60066 2.33577 2.85699e-18)
(8.37309 2.29657 -3.9017e-18)
(8.10013 2.29012 2.54563e-18)
(7.81018 2.28306 -3.73642e-19)
(7.50841 2.26163 1.22311e-19)
(7.1966 2.21997 -1.15053e-18)
(6.86445 2.14555 -1.65734e-18)
(6.46726 2.02532 -3.7744e-18)
(6.13294 1.86829 -9.01176e-18)
(5.8407 1.72567 -3.02625e-18)
(5.61503 1.60497 1.15234e-19)
(5.44104 1.51067 -7.13699e-18)
(5.30932 1.43794 -2.59097e-19)
(5.19743 1.37483 6.96862e-18)
(5.09434 1.27793 -2.16978e-18)
(4.93216 1.26045 -1.27883e-18)
(4.44505 1.04791 0)
(2.31859 0.59283 3.04807e-17)
(6.90552 1.80627 0)
(8.59348 2.7984 1.98103e-18)
(8.63374 2.70169 0)
(8.37331 2.69831 -4.75532e-19)
(8.09713 2.67559 -3.08169e-18)
(7.79637 2.63791 5.70899e-19)
(7.47623 2.58579 1.50597e-19)
(7.14342 2.5175 2.0547e-18)
(6.79001 2.41596 -1.00206e-18)
(6.37199 2.27668 1.66237e-18)
(6.01719 2.11081 4.86484e-18)
(5.71517 1.95913 6.70322e-18)
(5.48346 1.83163 -4.18064e-18)
(5.3008 1.72328 7.72936e-18)
(5.15401 1.63629 -6.20265e-18)
(5.04522 1.57283 0)
(4.96532 1.49479 -1.66238e-17)
(4.85053 1.47773 2.23423e-17)
(4.41138 1.27209 1.70746e-18)
(2.3867 0.718765 -3.21722e-17)
(6.86698 2.12924 -7.99772e-19)
(8.57382 3.21966 -5.7479e-18)
(8.61513 3.07285 -1.55317e-17)
(8.33983 3.07753 8.45039e-18)
(8.05786 3.03468 -1.71312e-18)
(7.74867 2.97811 8.97537e-19)
(7.42017 2.90102 -9.96043e-20)
(7.07542 2.80957 -2.45058e-19)
(6.70749 2.68325 -3.59094e-18)
(6.27499 2.52565 1.80904e-20)
(5.90715 2.34664 -5.2982e-18)
(5.60412 2.18144 -7.10908e-18)
(5.38052 2.04631 4.69521e-18)
(5.21549 1.93485 -2.7762e-18)
(5.09538 1.84748 6.72934e-18)
(4.98514 1.79681 0)
(4.8801 1.71888 -1.02672e-17)
(4.71623 1.65397 1.51887e-17)
(4.30742 1.47537 2.96034e-17)
(2.39379 0.835682 -3.47354e-17)
(6.75157 2.35843 -2.72295e-17)
(8.49582 3.55572 1.33266e-17)
(8.56784 3.41525 9.84248e-18)
(8.27787 3.44115 -8.99864e-18)
(7.99064 3.38271 5.11094e-19)
(7.68264 3.30211 2.26467e-18)
(7.3494 3.20342 -2.36435e-19)
(6.99723 3.09102 -8.34795e-19)
(6.61787 2.94275 -2.24741e-18)
(6.1784 2.76733 3.79749e-18)
(5.80269 2.57203 5.03828e-18)
(5.4944 2.39199 1.11541e-17)
(5.26006 2.24775 0)
(5.07152 2.12709 2.06306e-19)
(4.91494 2.01927 -1.86395e-17)
(4.80941 1.93123 4.26173e-18)
(4.73327 1.87696 2.19604e-17)
(4.64188 1.83509 -6.35709e-18)
(4.27255 1.65671 1.42117e-17)
(2.34648 0.947884 -1.00857e-18)
(6.63751 2.61149 9.65128e-19)
(8.41546 3.91624 1.21512e-17)
(8.48851 3.72134 7.1548e-18)
(8.16959 3.77325 -1.52471e-17)
(7.89575 3.69551 9.38372e-18)
(7.593 3.60144 -2.6982e-18)
(7.26331 3.48672 1.64755e-19)
(6.90818 3.35773 1.94369e-18)
(6.52312 3.19125 3.9908e-18)
(6.08213 2.9996 -4.84823e-18)
(5.69959 2.78823 0)
(5.38693 2.59474 -4.37273e-18)
(5.15799 2.44035 5.01639e-18)
(4.99361 2.31516 6.7633e-18)
(4.87379 2.21402 -3.86793e-18)
(4.7551 2.16031 -9.82569e-18)
(4.65499 2.10327 -2.98995e-18)
(4.51247 2.01174 -3.90487e-20)
(4.14974 1.79125 0)
(2.29693 1.01925 0)
(6.50505 2.83519 -1.30245e-17)
(8.3022 4.20523 0)
(8.39009 4.01698 7.89663e-18)
(8.0515 4.07286 -3.66974e-18)
(7.79121 3.97279 -9.19377e-18)
(7.49632 3.87033 2.60059e-18)
(7.17002 3.74785 8.33854e-20)
(6.81332 3.60767 -1.04908e-18)
(6.42487 3.42659 2.70782e-18)
(5.98348 3.22038 -1.95223e-18)
(5.5916 2.99401 2.83175e-18)
(5.26822 2.78586 1.36051e-17)
(5.02362 2.61683 5.24303e-19)
(4.82755 2.48124 -6.87222e-18)
(4.66956 2.36137 1.33187e-17)
(4.57285 2.23481 1.84673e-19)
(4.49368 2.17879 3.2012e-18)
(4.40334 2.10631 -1.57039e-17)
(4.09232 1.95205 1.61585e-17)
(2.24476 1.08143 -1.7221e-17)
(6.38952 3.0276 -4.29948e-21)
(8.20593 4.52735 0)
(8.27538 4.31468 0)
(7.93498 4.36406 3.1189e-18)
(7.69001 4.22546 3.56609e-18)
(7.39604 4.11536 -1.8411e-18)
(7.07004 3.98624 8.07135e-19)
(6.71139 3.83798 0)
(6.32193 3.64627 -4.29639e-18)
(5.88069 3.42871 7.11174e-18)
(5.48047 3.18964 8.54053e-18)
(5.15106 2.96956 -5.12017e-18)
(4.91052 2.79037 -6.41582e-18)
(4.74076 2.64535 1.51476e-17)
(4.62399 2.5272 -4.70281e-18)
(4.51444 2.45708 -5.72457e-18)
(4.42313 2.3998 -3.50401e-18)
(4.3088 2.29378 -1.69799e-17)
(3.9672 2.05946 2.26378e-18)
(2.18016 1.139 1.84597e-17)
(6.24482 3.20595 -5.1513e-18)
(8.06853 4.7743 -7.07169e-18)
(8.1637 4.58689 9.71577e-19)
(7.82599 4.63373 9.61013e-20)
(7.59429 4.47015 9.54311e-19)
(7.30265 4.3479 -4.94432e-18)
(6.97151 4.2102 0)
(6.60912 4.05243 8.84326e-19)
(6.21768 3.85115 -6.95893e-19)
(5.77647 3.62397 1.15133e-17)
(5.36955 3.37472 -2.1295e-18)
(5.03294 3.14355 2.35366e-18)
(4.78412 2.9509 0)
(4.58893 2.79199 -8.26518e-18)
(4.42772 2.65422 1.02784e-17)
(4.32778 2.50938 0)
(4.24876 2.44815 -7.70969e-18)
(4.16492 2.33245 2.25284e-17)
(3.87484 2.18253 2.74676e-18)
(2.10675 1.17846 -2.2784e-17)
(6.13891 3.38964 -1.07684e-17)
(7.95679 5.05395 1.31409e-17)
(8.05743 4.82544 0)
(7.72012 4.88029 7.56541e-18)
(7.50418 4.69337 0)
(7.20751 4.56656 4.50703e-18)
(6.87063 4.42099 0)
(6.50551 4.2524 0)
(6.11398 4.04198 -1.51288e-18)
(5.67463 3.80725 -1.11498e-17)
(5.26218 3.5509 -1.591e-17)
(4.91962 3.31092 2.93998e-18)
(4.66811 3.10629 1.08943e-17)
(4.48917 2.94241 9.24341e-18)
(4.37074 2.80635 -3.28762e-17)
(4.26423 2.70429 -1.36784e-17)
(4.17294 2.64314 7.93517e-18)
(4.07252 2.49626 0)
(3.74404 2.25593 2.37983e-17)
(2.02209 1.21016 -2.44714e-17)
(6.01683 3.53505 1.18268e-17)
(7.86349 5.26846 -1.43305e-17)
(7.95883 5.07173 0)
(7.6278 5.1144 -3.84295e-19)
(7.41775 4.9069 -3.02499e-18)
(7.11423 4.77407 0)
(6.77284 4.6198 -1.10313e-19)
(6.40744 4.44043 9.91013e-19)
(6.0165 4.22152 -2.29293e-18)
(5.57822 3.98003 1.23472e-18)
(5.16103 3.7181 0)
(4.81352 3.4722 1.16955e-17)
(4.5548 3.25988 2.28535e-20)
(4.34753 3.07683 4.98653e-18)
(4.17796 2.91673 6.07678e-18)
(4.07354 2.74917 0)
(3.99484 2.6681 -1.34767e-17)
(3.92233 2.52526 2.6533e-17)
(3.62182 2.35534 -2.89384e-17)
(1.92045 1.21911 5.29056e-17)
(5.92758 3.68722 0)
(7.73509 5.51142 0)
(7.86724 5.28726 -7.25848e-18)
(7.5363 5.33506 0)
(7.32845 5.1101 0)
(7.0199 4.97032 6.15472e-18)
(6.67633 4.80667 -1.68443e-19)
(6.31306 4.61677 5.8221e-19)
(5.92386 4.39016 -3.53009e-19)
(5.48692 4.14274 0)
(5.06395 3.87723 -2.51776e-18)
(4.70648 3.62663 -9.67128e-18)
(4.43413 3.40436 -1.20655e-17)
(4.23676 3.21879 -4.97979e-18)
(4.10783 3.06256 6.60748e-18)
(4.00187 2.92296 -1.56044e-17)
(3.90109 2.84911 2.89193e-17)
(3.81584 2.65414 5.45785e-19)
(3.48065 2.38176 -2.7659e-17)
(1.80637 1.2204 -3.61693e-18)
(5.82745 3.81497 0)
(7.66705 5.68487 -1.04402e-17)
(7.77733 5.48256 8.3219e-18)
(7.43981 5.53689 0)
(7.23916 5.30003 0)
(6.92766 5.1554 -1.35154e-17)
(6.58438 4.9825 0)
(6.22564 4.78252 0)
(5.83777 4.54905 -4.84547e-18)
(5.40029 4.29619 2.1473e-18)
(4.97185 4.02786 -2.07631e-17)
(4.60976 3.77586 0)
(4.33267 3.55133 -1.28436e-17)
(4.10672 3.35256 4.47552e-19)
(3.91404 3.1724 -2.06555e-17)
(3.79147 2.98073 8.45611e-18)
(3.70539 2.86229 2.14391e-19)
(3.63738 2.67945 -3.14389e-17)
(3.32582 2.45892 1.50293e-17)
(1.66894 1.19025 3.86376e-18)
(5.74905 3.95899 0)
(7.55013 5.88506 -1.22667e-17)
(7.68508 5.67202 8.54603e-18)
(7.34141 5.72049 1.66728e-17)
(7.14725 5.47243 3.07158e-18)
(6.83377 5.32578 -1.74031e-18)
(6.49468 5.14576 1.14129e-18)
(6.14094 4.93692 7.49455e-19)
(5.75406 4.69744 5.19158e-18)
(5.31669 4.43953 1.46636e-17)
(4.88391 4.16983 1.72593e-17)
(4.51304 3.91835 3.20112e-18)
(4.21622 3.69143 1.86871e-17)
(3.98679 3.49102 1.19068e-17)
(3.83223 3.3131 1.48985e-17)
(3.71584 3.14264 -9.19857e-18)
(3.60335 3.03769 -1.13937e-17)
(3.52342 2.77638 1.35281e-17)
(3.15291 2.4387 -8.33198e-18)
(1.52564 1.15283 1.29063e-17)
(5.64918 4.05309 1.79199e-17)
(7.45233 6.06202 1.94281e-17)
(7.57712 5.83711 4.4431e-18)
(7.24086 5.88946 2.63878e-19)
(7.05504 5.63094 -1.10547e-17)
(6.7425 5.48253 3.99016e-18)
(6.40859 5.29638 -1.28527e-18)
(6.0601 5.08001 -3.71578e-19)
(5.67437 4.83554 -5.9211e-18)
(5.23677 4.57354 -1.6183e-17)
(4.80111 4.30354 1.10802e-18)
(4.42576 4.05459 0)
(4.12406 3.83061 0)
(3.87444 3.62563 -6.09936e-18)
(3.65454 3.43251 -2.37445e-17)
(3.48815 3.22456 1.97267e-17)
(3.36867 3.06827 1.21992e-17)
(3.29543 2.82011 0)
(2.95835 2.49848 2.68367e-17)
(1.35997 1.08283 -1.47419e-17)
(5.56643 4.17168 -9.16902e-18)
(7.36781 6.19636 7.7218e-18)
(7.49034 5.99424 -1.02343e-17)
(7.14621 6.04314 -1.04888e-17)
(6.96548 5.77463 -4.31726e-18)
(6.65286 5.62573 1.18271e-18)
(6.32475 5.43444 0)
(5.98073 5.21174 -8.55705e-19)
(5.59615 4.96324 5.87317e-19)
(5.16002 4.6978 0)
(4.72354 4.42878 0)
(4.34157 4.18417 2.14596e-18)
(4.02243 3.96575 3.1261e-18)
(3.75807 3.76729 -6.45335e-18)
(3.55817 3.5813 1.71336e-17)
(3.4158 3.38436 -2.11653e-17)
(3.26532 3.23622 -2.63202e-17)
(3.14985 2.90461 2.39286e-17)
(2.70909 2.43322 -9.84559e-18)
(1.13104 1.02173 5.57634e-18)
(5.47614 4.25434 1.05836e-17)
(7.24927 6.37275 0)
(7.39944 6.15505 0)
(7.05829 6.19443 -3.33455e-18)
(6.87949 5.91042 2.68517e-18)
(6.56803 5.75835 -2.90081e-19)
(6.24466 5.56166 -3.98549e-18)
(5.90493 5.33326 -1.33559e-19)
(5.52234 5.08141 1.01723e-17)
(5.08823 4.81369 -1.28548e-18)
(4.65195 4.54643 2.83807e-18)
(4.26667 4.30743 -1.81085e-17)
(3.94177 4.09664 -1.88522e-17)
(3.66193 3.90071 -3.37524e-18)
(3.40816 3.71027 0)
(3.17978 3.50777 -3.53598e-19)
(2.99115 3.31482 1.35365e-17)
(2.858 2.97395 -2.61218e-17)
(2.42768 2.46938 2.01446e-17)
(0.775824 0.771962 1.76488e-17)
(5.39663 4.35343 -2.27364e-17)
(7.19257 6.49315 -9.01454e-18)
(7.30548 6.27866 1.08658e-19)
(6.96121 6.32721 4.37912e-18)
(6.79473 6.03683 0)
(6.4842 5.88207 1.06471e-17)
(6.16641 5.68114 4.68385e-18)
(5.83021 5.44814 -6.35967e-19)
(5.44926 5.19391 -5.09043e-18)
(5.01815 4.92476 -1.24271e-18)
(4.5831 4.6603 1.14982e-18)
(4.1926 4.42865 1.58347e-17)
(3.85229 4.22875 1.83057e-17)
(3.553 4.04735 3.21342e-18)
(3.30158 3.87663 1.704e-17)
(3.10935 3.68027 0)
(2.89811 3.50231 0)
(2.66287 3.09073 1.69376e-17)
(1.97863 2.27082 1.98411e-19)
(0.548552 1.14528 -1.73516e-17)
(5.30239 4.42368 1.22222e-17)
(7.04504 6.59442 2.66551e-17)
(7.1873 6.38639 -3.8562e-17)
(6.86466 6.43832 2.19594e-17)
(6.71617 6.15447 -2.29531e-18)
(6.40445 6.0007 1.36834e-17)
(6.09112 5.79607 0)
(5.75746 5.55934 6.86269e-19)
(5.37871 5.30371 0)
(4.95057 5.0347 1.57163e-17)
(4.51633 4.7743 -1.57808e-18)
(4.12298 4.55211 1.76441e-18)
(3.77793 4.36655 2.05756e-17)
(3.46779 4.19722 -7.07195e-18)
(3.17342 4.03158 -9.01007e-18)
(2.88187 3.86382 0)
(2.57283 3.68327 0)
(2.22098 3.24786 0)
(1.23904 2.31765 -8.7104e-18)
(0.748778 2.03718 -5.54719e-18)
(5.24595 4.51882 0)
(6.98011 6.7507 0)
(7.13614 6.53977 1.38608e-17)
(6.80943 6.56949 -1.82149e-17)
(6.64554 6.26827 1.16039e-17)
(6.32875 6.11538 -1.24219e-17)
(6.01858 5.9063 -4.23114e-19)
(5.68672 5.66656 3.27641e-19)
(5.30985 5.41025 8.97125e-19)
(4.88482 5.14181 -1.79889e-17)
(4.45303 4.88634 2.69351e-18)
(4.05793 4.6755 1.56086e-17)
(3.70263 4.50738 -2.04193e-17)
(3.37278 4.36244 -2.30824e-17)
(3.07175 4.2328 8.02593e-18)
(2.80642 4.08294 0)
(2.51135 3.87356 1.27302e-17)
(2.0146 3.24323 1.54877e-17)
(1.27167 2.59975 -1.59756e-17)
(0.863707 2.89757 2.18561e-17)
(5.19542 4.58648 0)
(6.96753 6.87895 2.14582e-17)
(7.11045 6.66882 -3.47151e-18)
(6.74807 6.71875 2.25471e-17)
(6.57143 6.38736 -1.21945e-17)
(6.25778 6.22793 0)
(5.94876 6.01291 0)
(5.61881 5.77034 0)
(5.24433 5.51362 3.28214e-18)
(4.82254 5.24657 6.61511e-19)
(4.39351 4.9968 0)
(3.99893 4.79852 -1.54177e-17)
(3.64151 4.64905 0)
(3.3081 4.52336 1.64644e-17)
(2.98534 4.40702 -1.13347e-17)
(2.65864 4.28419 -9.23636e-18)
(2.27504 4.04364 -2.43079e-17)
(1.67698 3.40463 -1.29988e-17)
(1.20523 3.165 -2.33856e-17)
(0.98 3.44591 1.72396e-17)
(5.12064 4.65235 -7.55053e-18)
(6.84779 6.94741 1.72078e-19)
(6.94801 6.76147 -2.47199e-18)
(6.62549 6.7919 -1.74903e-17)
(6.49712 6.49163 0)
(6.18428 6.33184 0)
(5.88053 6.11536 0)
(5.55297 5.87088 6.49416e-20)
(5.18063 5.61445 -4.28238e-18)
(4.76212 5.34903 0)
(4.33784 5.10522 0)
(3.94617 4.92035 0)
(3.58754 4.7933 0)
(3.24565 4.69952 1.21431e-17)
(2.92506 4.62399 3.10843e-17)
(2.62716 4.50299 9.88474e-18)
(2.25847 4.17 2.29747e-17)
(1.75863 3.64693 -1.79752e-17)
(1.32146 3.76836 7.86754e-18)
(1.15624 3.90605 0)
(5.03228 4.71874 7.22436e-18)
(6.73483 7.01969 -4.18596e-17)
(6.8946 6.82657 -8.26276e-18)
(6.56211 6.87376 -2.74851e-18)
(6.43841 6.58269 2.75278e-18)
(6.11247 6.43161 -1.80532e-17)
(5.81475 6.21514 1.13299e-18)
(5.48856 5.96974 3.13783e-18)
(5.11908 5.71376 0)
(4.70473 5.45046 -1.13139e-18)
(4.2857 5.21243 1.02995e-18)
(3.89966 5.04079 0)
(3.54787 4.93527 0)
(3.21607 4.86431 -1.52032e-17)
(2.89871 4.80244 2.66127e-18)
(2.56887 4.68115 -9.24269e-18)
(2.09238 4.35738 2.03251e-17)
(1.5174 3.99212 1.76359e-17)
(1.13415 4.18641 -3.24994e-17)
(1.04078 4.24329 1.71028e-17)
(5.0075 4.80538 1.35345e-17)
(6.70311 7.20069 3.22555e-17)
(6.8709 7.01271 1.21241e-17)
(6.53802 7.03862 0)
(6.36691 6.69565 0)
(6.04163 6.5396 1.36038e-17)
(5.74621 6.3161 -6.71708e-18)
(5.42228 6.06969 -3.00399e-18)
(5.05624 5.81398 -3.34074e-21)
(4.64685 5.55247 1.27345e-17)
(4.23543 5.31909 -1.85421e-17)
(3.85912 5.15976 0)
(3.51774 5.07701 0)
(3.19443 5.04058 -1.07407e-17)
(2.88837 5.01205 -1.41581e-17)
(2.55961 4.89192 0)
(2.09904 4.48089 -2.91811e-17)
(1.73057 4.3092 -5.35707e-18)
(1.43859 4.70126 3.3452e-17)
(1.16646 4.70332 -1.72645e-17)
(4.94345 4.8549 -2.56004e-17)
(6.64674 7.26732 -1.55198e-17)
(6.77922 7.09163 0)
(6.42012 7.14151 0)
(6.27659 6.809 0)
(5.96317 6.6491 0)
(5.67168 6.41952 7.05317e-18)
(5.35252 6.17106 -4.3811e-18)
(4.9911 5.91474 0)
(4.58864 5.6547 -1.1481e-17)
(4.18655 5.42501 3.34652e-17)
(3.82317 5.27609 1.43098e-18)
(3.49976 5.21194 2.16663e-18)
(3.1991 5.19843 1.81602e-17)
(2.90207 5.1772 -1.21194e-17)
(2.5647 5.01771 0)
(2.08501 4.74258 9.48999e-18)
(1.63836 4.85031 7.26434e-19)
(1.13952 5.11476 -5.04191e-18)
(0.750405 5.17204 1.03672e-17)
(4.83618 4.92894 1.20948e-17)
(6.50205 7.35135 -1.77664e-17)
(6.62726 7.15364 0)
(6.30364 7.20738 -3.95775e-18)
(6.19459 6.90314 1.46804e-17)
(5.87275 6.7511 0)
(5.59183 6.52243 0)
(5.27759 6.27238 8.04647e-18)
(4.92214 6.0156 -5.38861e-19)
(4.5278 5.75651 1.11244e-17)
(4.13777 5.52918 -1.59106e-17)
(3.79191 5.38839 1.03127e-17)
(3.48934 5.33968 0)
(3.20786 5.35355 -9.90564e-18)
(2.93068 5.35462 6.20035e-18)
(2.59431 5.22348 6.81268e-18)
(2.13735 4.96436 0)
(1.76992 5.16018 4.71728e-18)
(1.30635 5.78653 7.87483e-18)
(1.19968 5.98854 2.37576e-18)
(4.74982 4.99061 -2.26253e-17)
(6.39886 7.47022 2.57256e-17)
(6.56096 7.30833 1.80846e-17)
(6.23813 7.34976 -4.64023e-18)
(6.10626 7.01481 -2.21471e-17)
(5.78041 6.86065 0)
(5.50815 6.62626 6.18946e-18)
(5.19806 6.3738 -3.45664e-18)
(4.84975 6.11537 -1.4785e-19)
(4.46556 5.85662 -9.67439e-18)
(4.08994 5.63087 -7.82778e-19)
(3.76294 5.49525 -1.15658e-17)
(3.48507 5.45547 1.41411e-17)
(3.23393 5.48114 4.49751e-18)
(2.97195 5.49276 -1.04958e-17)
(2.64576 5.32179 1.14465e-17)
(2.30791 5.16025 0)
(1.95876 5.79741 0)
(1.72316 6.46998 1.20258e-18)
(0.457937 6.53334 -4.93361e-18)
(4.68072 5.08045 1.08935e-17)
(6.32798 7.61537 2.39843e-17)
(6.46803 7.44645 -1.80247e-17)
(6.12773 7.48521 1.62478e-17)
(5.998 7.13456 2.14876e-17)
(5.68105 6.97467 0)
(5.41689 6.73042 -6.5692e-18)
(5.11353 6.47431 -4.83906e-18)
(4.77372 6.21318 0)
(4.40112 5.95382 0)
(4.04211 5.72836 0)
(3.73714 5.5949 0)
(3.48642 5.55948 -1.61092e-17)
(3.2638 5.59322 -6.10609e-18)
(3.04007 5.60842 0)
(2.73182 5.47797 -5.8337e-18)
(2.55174 5.52772 0)
(2.58745 5.87637 -2.43048e-18)
(2.6406 5.90734 5.98549e-19)
(1.43061 5.947 1.31735e-18)
(4.5519 5.12505 -2.07653e-17)
(6.17702 7.70498 -1.52412e-17)
(6.31382 7.54358 -1.11174e-17)
(5.99113 7.58069 -1.51538e-17)
(5.88598 7.24243 -1.0073e-17)
(5.57177 7.0848 0)