/*--------------------------------*- C++ -*----------------------------------*\
| =========                 |                                                 |
| \\      /  F ield         | OpenFOAM: The Open Source CFD Toolbox           |
|  \\    /   O peration     | Version:  2412                                  |
|   \\  /    A nd           | Website:  www.openfoam.com                      |
|    \\/     M anipulation  |                                                 |
\*---------------------------------------------------------------------------*/
FoamFile
{
    version     2.0;
    format      ascii;
    arch        "LSB;label=32;scalar=64";
    class       volVectorField;
    location    "0.54";
    object      U_0_0;
}
// * * * * * * * * * * * * * * * * * * * * * * * * * * * * * * * * * * * * * //

dimensions      [0 1 -1 0 0 0 0];

internalField   nonuniform List<vector> 
800
(
(0.00145874 0 0)
(0.00437625 0 0)
(0.00729375 0 0)
(0.0102112 0 0)
(0.0131287 0 0)
(0.0160461 0 0)
(0.0189634 0 0)
(0.0218807 0 0)
(0.0247979 0 0)
(0.0277151 0 0)
(0.0306321 0 0)
(0.0335491 0 0)
(0.0364659 0 0)
(0.0393827 0 0)
(0.0422993 0 0)
(0.0452157 0 0)
(0.048132 0 0)
(0.0510482 0 0)
(0.0539642 0 0)
(0.05688 0 0)
(0.0597957 0 0)
(0.0627111 0 0)
(0.0656264 0 0)
(0.0685414 0 0)
(0.0714562 0 0)
(0.0743708 0 0)
(0.0772852 0 0)
(0.0801993 0 0)
(0.0831131 0 0)
(0.0860267 0 0)
(0.08894 0 0)
(0.091853 0 0)
(0.0947657 0 0)
(0.0976781 0 0)
(0.10059 0 0)
(0.103502 0 0)
(0.106413 0 0)
(0.109324 0 0)
(0.112235 0 0)
(0.115146 0 0)
(0.118055 0 0)
(0.120965 0 0)
(0.123874 0 0)
(0.126783 0 0)
(0.129691 0 0)
(0.132599 0 0)
(0.135507 0 0)
(0.138414 0 0)
(0.141321 0 0)
(0.144227 0 0)
(0.147133 0 0)
(0.150038 0 0)
(0.152943 0 0)
(0.155847 0 0)
(0.158751 0 0)
(0.161654 0 0)
(0.164556 0 0)
(0.167459 0 0)
(0.17036 0 0)
(0.173261 0 0)
(0.176162 0 0)
(0.179061 0 0)
(0.181961 0 0)
(0.184859 0 0)
(0.187757 0 0)
(0.190655 0 0)
(0.193552 0 0)
(0.196448 0 0)
(0.199343 0 0)
(0.202238 0 0)
(0.205132 0 0)
(0.208026 0 0)
(0.210919 0 0)
(0.213811 0 0)
(0.216702 0 0)
(0.219593 0 0)
(0.222482 0 0)
(0.225372 0 0)
(0.22826 0 0)
(0.231148 0 0)
(0.234034 0 0)
(0.23692 0 0)
(0.239806 0 0)
(0.24269 0 0)
(0.245574 0 0)
(0.248457 0 0)
(0.251338 0 0)
(0.25422 0 0)
(0.2571 0 0)
(0.259979 0 0)
(0.262857 0 0)
(0.265735 0 0)
(0.268612 0 0)
(0.271487 0 0)
(0.274362 0 0)
(0.277236 0 0)
(0.280109 0 0)
(0.282981 0 0)
(0.285852 0 0)
(0.288721 0 0)
(0.29159 0 0)
(0.294458 0 0)
(0.297325 0 0)
(0.300191 0 0)
(0.303056 0 0)
(0.305919 0 0)
(0.308782 0 0)
(0.311644 0 0)
(0.314504 0 0)
(0.317363 0 0)
(0.320222 0 0)
(0.323079 0 0)
(0.325935 0 0)
(0.328789 0 0)
(0.331643 0 0)
(0.334495 0 0)
(0.337347 0 0)
(0.340197 0 0)
(0.343045 0 0)
(0.345893 0 0)
(0.348739 0 0)
(0.351584 0 0)
(0.354428 0 0)
(0.357271 0 0)
(0.360112 0 0)
(0.362952 0 0)
(0.36579 0 0)
(0.368627 0 0)
(0.371463 0 0)
(0.374298 0 0)
(0.377131 0 0)
(0.379963 0 0)
(0.382793 0 0)
(0.385622 0 0)
(0.388449 0 0)
(0.391275 0 0)
(0.3941 0 0)
(0.396923 0 0)
(0.399744 0 0)
(0.402564 0 0)
(0.405383 0 0)
(0.4082 0 0)
(0.411015 0 0)
(0.413829 0 0)
(0.416642 0 0)
(0.419452 0 0)
(0.422262 0 0)
(0.425069 0 0)
(0.427875 0 0)
(0.430679 0 0)
(0.433482 0 0)
(0.436283 0 0)
(0.439082 0 0)
(0.441879 0 0)
(0.444675 0 0)
(0.447469 0 0)
(0.450261 0 0)
(0.453052 0 0)
(0.45584 0 0)
(0.458627 0 0)
(0.461412 0 0)
(0.464195 0 0)
(0.466977 0 0)
(0.469756 0 0)
(0.472534 0 0)
(0.475309 0 0)
(0.478083 0 0)
(0.480855 0 0)
(0.483624 0 0)
(0.486392 0 0)
(0.489158 0 0)
(0.491922 0 0)
(0.494684 0 0)
(0.497444 0 0)
(0.500201 0 0)
(0.502957 0 0)
(0.50571 0 0)
(0.508462 0 0)
(0.511211 0 0)
(0.513958 0 0)
(0.516703 0 0)
(0.519446 0 0)
(0.522186 0 0)
(0.524924 0 0)
(0.52766 0 0)
(0.530394 0 0)
(0.533125 0 0)
(0.535855 0 0)
(0.538581 0 0)
(0.541306 0 0)
(0.544028 0 0)
(0.546747 0 0)
(0.549465 0 0)
(0.552179 0 0)
(0.554892 0 0)
(0.557602 0 0)
(0.560309 0 0)
(0.563014 0 0)
(0.565716 0 0)
(0.568416 0 0)
(0.571113 0 0)
(0.573807 0 0)
(0.576499 0 0)
(0.579188 0 0)
(0.581875 0 0)
(0.584559 0 0)
(0.58724 0 0)
(0.589918 0 0)
(0.592594 0 0)
(0.595266 0 0)
(0.597936 0 0)
(0.600603 0 0)
(0.603267 0 0)
(0.605929 0 0)
(0.608587 0 0)
(0.611242 0 0)
(0.613895 0 0)
(0.616544 0 0)
(0.619191 0 0)
(0.621834 0 0)
(0.624474 0 0)
(0.627111 0 0)
(0.629745 0 0)
(0.632376 0 0)
(0.635004 0 0)
(0.637628 0 0)
(0.640249 0 0)
(0.642867 0 0)
(0.645481 0 0)
(0.648092 0 0)
(0.6507 0 0)
(0.653305 0 0)
(0.655906 0 0)
(0.658503 0 0)
(0.661097 0 0)
(0.663688 0 0)
(0.666274 0 0)
(0.668858 0 0)
(0.671437 0 0)
(0.674013 0 0)
(0.676586 0 0)
(0.679154 0 0)
(0.681719 0 0)
(0.68428 0 0)
(0.686837 0 0)
(0.689391 0 0)
(0.69194 0 0)
(0.694486 0 0)
(0.697027 0 0)
(0.699565 0 0)
(0.702098 0 0)
(0.704627 0 0)
(0.707153 0 0)
(0.709674 0 0)
(0.712191 0 0)
(0.714703 0 0)
(0.717211 0 0)
(0.719715 0 0)
(0.722215 0 0)
(0.72471 0 0)
(0.727201 0 0)
(0.729687 0 0)
(0.732169 0 0)
(0.734646 0 0)
(0.737119 0 0)
(0.739586 0 0)
(0.742049 0 0)
(0.744508 0 0)
(0.746961 0 0)
(0.74941 0 0)
(0.751854 0 0)
(0.754292 0 0)
(0.756726 0 0)
(0.759155 0 0)
(0.761578 0 0)
(0.763997 0 0)
(0.76641 0 0)
(0.768818 0 0)
(0.77122 0 0)
(0.773618 0 0)
(0.776009 0 0)
(0.778396 0 0)
(0.780776 0 0)
(0.783152 0 0)
(0.785521 0 0)
(0.787885 0 0)
(0.790243 0 0)
(0.792595 0 0)
(0.794941 0 0)
(0.797281 0 0)
(0.799615 0 0)
(0.801943 0 0)
(0.804265 0 0)
(0.806581 0 0)
(0.80889 0 0)
(0.811193 0 0)
(0.813489 0 0)
(0.815779 0 0)
(0.818062 0 0)
(0.820339 0 0)
(0.822609 0 0)
(0.824872 0 0)
(0.827128 0 0)
(0.829377 0 0)
(0.831619 0 0)
(0.833854 0 0)
(0.836082 0 0)
(0.838302 0 0)
(0.840515 0 0)
(0.842721 0 0)
(0.844919 0 0)
(0.847109 0 0)
(0.849292 0 0)
(0.851466 0 0)
(0.853633 0 0)
(0.855791 0 0)
(0.857942 0 0)
(0.860084 0 0)
(0.862218 0 0)
(0.864343 0 0)
(0.86646 0 0)
(0.868568 0 0)
(0.870667 0 0)
(0.872757 0 0)
(0.874839 0 0)
(0.876911 0 0)
(0.878974 0 0)
(0.881027 0 0)
(0.883071 0 0)
(0.885105 0 0)
(0.88713 0 0)
(0.889145 0 0)
(0.891149 0 0)
(0.893143 0 0)
(0.895127 0 0)
(0.897101 0 0)
(0.899064 0 0)
(0.901016 0 0)
(0.902957 0 0)
(0.904887 0 0)
(0.906806 0 0)
(0.908713 0 0)
(0.910609 0 0)
(0.912493 0 0)
(0.914365 0 0)
(0.916225 0 0)
(0.918072 0 0)
(0.919907 0 0)
(0.92173 0 0)
(0.923539 0 0)
(0.925335 0 0)
(0.927118 0 0)
(0.928888 0 0)
(0.930643 0 0)
(0.932385 0 0)
(0.934112 0 0)
(0.935825 0 0)
(0.937523 0 0)
(0.939206 0 0)
(0.940874 0 0)
(0.942526 0 0)
(0.944163 0 0)
(0.945783 0 0)
(0.947387 0 0)
(0.948975 0 0)
(0.950545 0 0)
(0.952099 0 0)
(0.953634 0 0)
(0.955152 0 0)
(0.956651 0 0)
(0.958132 0 0)
(0.959593 0 0)
(0.961035 0 0)
(0.962458 0 0)
(0.96386 0 0)
(0.965241 0 0)
(0.966602 0 0)
(0.967941 0 0)
(0.969257 0 0)
(0.970552 0 0)
(0.971823 0 0)
(0.973071 0 0)
(0.974295 0 0)
(0.975494 0 0)
(0.976668 0 0)
(0.977817 0 0)
(0.978939 0 0)
(0.980034 0 0)
(0.981101 0 0)
(0.98214 0 0)
(0.983149 0 0)
(0.984129 0 0)
(0.985078 0 0)
(0.985995 0 0)
(0.986884 0 0)
(0.987704 0 0)
(0.988817 0 0)
(0.986839 0 0)
(1.01278 0 0)
(0.614744 0 0)
(-0.613315 0 0)
(-1.0128 0 0)
(-0.986837 0 0)
(-0.988817 0 0)
(-0.987704 0 0)
(-0.986884 0 0)
(-0.985995 0 0)
(-0.985078 0 0)
(-0.984129 0 0)
(-0.983149 0 0)
(-0.982139 0 0)
(-0.9811 0 0)
(-0.980033 0 0)
(-0.978938 0 0)
(-0.977816 0 0)
(-0.976668 0 0)
(-0.975494 0 0)
(-0.974294 0 0)
(-0.97307 0 0)
(-0.971822 0 0)
(-0.970551 0 0)
(-0.969256 0 0)
(-0.96794 0 0)
(-0.966601 0 0)
(-0.96524 0 0)
(-0.963859 0 0)
(-0.962457 0 0)
(-0.961034 0 0)
(-0.959592 0 0)
(-0.95813 0 0)
(-0.95665 0 0)
(-0.95515 0 0)
(-0.953633 0 0)
(-0.952097 0 0)
(-0.950544 0 0)
(-0.948974 0 0)
(-0.947386 0 0)
(-0.945782 0 0)
(-0.944161 0 0)
(-0.942525 0 0)
(-0.940872 0 0)
(-0.939205 0 0)
(-0.937521 0 0)
(-0.935823 0 0)
(-0.93411 0 0)
(-0.932383 0 0)
(-0.930642 0 0)
(-0.928886 0 0)
(-0.927117 0 0)
(-0.925334 0 0)
(-0.923537 0 0)
(-0.921728 0 0)
(-0.919906 0 0)
(-0.918071 0 0)
(-0.916223 0 0)
(-0.914363 0 0)
(-0.912491 0 0)
(-0.910607 0 0)
(-0.908711 0 0)
(-0.906804 0 0)
(-0.904885 0 0)
(-0.902955 0 0)
(-0.901014 0 0)
(-0.899062 0 0)
(-0.897099 0 0)
(-0.895125 0 0)
(-0.893141 0 0)
(-0.891147 0 0)
(-0.889143 0 0)
(-0.887128 0 0)
(-0.885103 0 0)
(-0.883069 0 0)
(-0.881025 0 0)
(-0.878972 0 0)
(-0.876909 0 0)
(-0.874837 0 0)
(-0.872755 0 0)
(-0.870665 0 0)
(-0.868566 0 0)
(-0.866458 0 0)
(-0.864341 0 0)
(-0.862216 0 0)
(-0.860082 0 0)
(-0.85794 0 0)
(-0.855789 0 0)
(-0.853631 0 0)
(-0.851464 0 0)
(-0.849289 0 0)
(-0.847107 0 0)
(-0.844917 0 0)
(-0.842719 0 0)
(-0.840513 0 0)
(-0.8383 0 0)
(-0.83608 0 0)
(-0.833852 0 0)
(-0.831617 0 0)
(-0.829375 0 0)
(-0.827126 0 0)
(-0.82487 0 0)
(-0.822607 0 0)
(-0.820337 0 0)
(-0.81806 0 0)
(-0.815777 0 0)
(-0.813487 0 0)
(-0.81119 0 0)
(-0.808888 0 0)
(-0.806578 0 0)
(-0.804263 0 0)
(-0.801941 0 0)
(-0.799613 0 0)
(-0.797279 0 0)
(-0.794938 0 0)
(-0.792592 0 0)
(-0.79024 0 0)
(-0.787882 0 0)
(-0.785519 0 0)
(-0.783149 0 0)
(-0.780774 0 0)
(-0.778393 0 0)
(-0.776007 0 0)
(-0.773615 0 0)
(-0.771218 0 0)
(-0.768816 0 0)
(-0.766408 0 0)
(-0.763994 0 0)
(-0.761576 0 0)
(-0.759153 0 0)
(-0.756724 0 0)
(-0.75429 0 0)
(-0.751851 0 0)
(-0.749408 0 0)
(-0.746959 0 0)
(-0.744505 0 0)
(-0.742047 0 0)
(-0.739584 0 0)
(-0.737116 0 0)
(-0.734644 0 0)
(-0.732167 0 0)
(-0.729685 0 0)
(-0.727199 0 0)
(-0.724708 0 0)
(-0.722213 0 0)
(-0.719713 0 0)
(-0.717209 0 0)
(-0.714701 0 0)
(-0.712188 0 0)
(-0.709671 0 0)
(-0.70715 0 0)
(-0.704625 0 0)
(-0.702096 0 0)
(-0.699562 0 0)
(-0.697025 0 0)
(-0.694483 0 0)
(-0.691938 0 0)
(-0.689389 0 0)
(-0.686835 0 0)
(-0.684278 0 0)
(-0.681717 0 0)
(-0.679152 0 0)
(-0.676584 0 0)
(-0.674011 0 0)
(-0.671435 0 0)
(-0.668856 0 0)
(-0.666272 0 0)
(-0.663685 0 0)
(-0.661095 0 0)
(-0.658501 0 0)
(-0.655904 0 0)
(-0.653303 0 0)
(-0.650698 0 0)
(-0.64809 0 0)
(-0.645479 0 0)
(-0.642865 0 0)
(-0.640247 0 0)
(-0.637626 0 0)
(-0.635002 0 0)
(-0.632374 0 0)
(-0.629743 0 0)
(-0.627109 0 0)
(-0.624472 0 0)
(-0.621832 0 0)
(-0.619189 0 0)
(-0.616542 0 0)
(-0.613893 0 0)
(-0.61124 0 0)
(-0.608585 0 0)
(-0.605927 0 0)
(-0.603266 0 0)
(-0.600601 0 0)
(-0.597934 0 0)
(-0.595264 0 0)
(-0.592592 0 0)
(-0.589916 0 0)
(-0.587238 0 0)
(-0.584557 0 0)
(-0.581873 0 0)
(-0.579187 0 0)
(-0.576497 0 0)
(-0.573806 0 0)
(-0.571111 0 0)
(-0.568414 0 0)
(-0.565714 0 0)
(-0.563012 0 0)
(-0.560307 0 0)
(-0.5576 0 0)
(-0.55489 0 0)
(-0.552178 0 0)
(-0.549463 0 0)
(-0.546746 0 0)
(-0.544026 0 0)
(-0.541304 0 0)
(-0.53858 0 0)
(-0.535853 0 0)
(-0.533124 0 0)
(-0.530392 0 0)
(-0.527659 0 0)
(-0.524923 0 0)
(-0.522185 0 0)
(-0.519444 0 0)
(-0.516701 0 0)
(-0.513957 0 0)
(-0.511209 0 0)
(-0.50846 0 0)
(-0.505709 0 0)
(-0.502955 0 0)
(-0.5002 0 0)
(-0.497442 0 0)
(-0.494682 0 0)
(-0.491921 0 0)
(-0.489157 0 0)
(-0.486391 0 0)
(-0.483623 0 0)
(-0.480853 0 0)
(-0.478082 0 0)
(-0.475308 0 0)
(-0.472532 0 0)
(-0.469755 0 0)
(-0.466975 0 0)
(-0.464194 0 0)
(-0.461411 0 0)
(-0.458626 0 0)
(-0.455839 0 0)
(-0.45305 0 0)
(-0.45026 0 0)
(-0.447468 0 0)
(-0.444674 0 0)
(-0.441878 0 0)
(-0.439081 0 0)
(-0.436281 0 0)
(-0.433481 0 0)
(-0.430678 0 0)
(-0.427874 0 0)
(-0.425068 0 0)
(-0.42226 0 0)
(-0.419451 0 0)
(-0.416641 0 0)
(-0.413828 0 0)
(-0.411014 0 0)
(-0.408199 0 0)
(-0.405382 0 0)
(-0.402563 0 0)
(-0.399743 0 0)
(-0.396922 0 0)
(-0.394099 0 0)
(-0.391274 0 0)
(-0.388448 0 0)
(-0.385621 0 0)
(-0.382792 0 0)
(-0.379962 0 0)
(-0.37713 0 0)
(-0.374297 0 0)
(-0.371462 0 0)
(-0.368627 0 0)
(-0.365789 0 0)
(-0.362951 0 0)
(-0.360111 0 0)
(-0.35727 0 0)
(-0.354427 0 0)
(-0.351584 0 0)
(-0.348739 0 0)
(-0.345892 0 0)
(-0.343045 0 0)
(-0.340196 0 0)
(-0.337346 0 0)
(-0.334495 0 0)
(-0.331642 0 0)
(-0.328789 0 0)
(-0.325934 0 0)
(-0.323078 0 0)
(-0.320221 0 0)
(-0.317363 0 0)
(-0.314503 0 0)
(-0.311643 0 0)
(-0.308781 0 0)
(-0.305919 0 0)
(-0.303055 0 0)
(-0.30019 0 0)
(-0.297325 0 0)
(-0.294458 0 0)
(-0.29159 0 0)
(-0.288721 0 0)
(-0.285851 0 0)
(-0.28298 0 0)
(-0.280108 0 0)
(-0.277235 0 0)
(-0.274362 0 0)
(-0.271487 0 0)
(-0.268611 0 0)
(-0.265735 0 0)
(-0.262857 0 0)
(-0.259979 0 0)
(-0.257099 0 0)
(-0.254219 0 0)
(-0.251338 0 0)
(-0.248456 0 0)
(-0.245573 0 0)
(-0.24269 0 0)
(-0.239805 0 0)
(-0.23692 0 0)
(-0.234034 0 0)
(-0.231147 0 0)
(-0.22826 0 0)
(-0.225371 0 0)
(-0.222482 0 0)
(-0.219592 0 0)
(-0.216702 0 0)
(-0.21381 0 0)
(-0.210918 0 0)
(-0.208025 0 0)
(-0.205132 0 0)
(-0.202238 0 0)
(-0.199343 0 0)
(-0.196448 0 0)
(-0.193551 0 0)
(-0.190655 0 0)
(-0.187757 0 0)
(-0.184859 0 0)
(-0.18196 0 0)
(-0.179061 0 0)
(-0.176161 0 0)
(-0.173261 0 0)
(-0.17036 0 0)
(-0.167458 0 0)
(-0.164556 0 0)
(-0.161654 0 0)
(-0.15875 0 0)
(-0.155847 0 0)
(-0.152942 0 0)
(-0.150038 0 0)
(-0.147132 0 0)
(-0.144227 0 0)
(-0.141321 0 0)
(-0.138414 0 0)
(-0.135507 0 0)
(-0.132599 0 0)
(-0.129691 0 0)
(-0.126783 0 0)
(-0.123874 0 0)
(-0.120965 0 0)
(-0.118055 0 0)
(-0.115145 0 0)
(-0.112235 0 0)
(-0.109324 0 0)
(-0.106413 0 0)
(-0.103502 0 0)
(-0.10059 0 0)
(-0.097678 0 0)
(-0.0947656 0 0)
(-0.0918529 0 0)
(-0.0889399 0 0)
(-0.0860266 0 0)
(-0.0831131 0 0)
(-0.0801992 0 0)
(-0.0772851 0 0)
(-0.0743708 0 0)
(-0.0714562 0 0)
(-0.0685414 0 0)
(-0.0656264 0 0)
(-0.0627111 0 0)
(-0.0597957 0 0)
(-0.05688 0 0)
(-0.0539642 0 0)
(-0.0510482 0 0)
(-0.048132 0 0)
(-0.0452157 0 0)
(-0.0422992 0 0)
(-0.0393826 0 0)
(-0.0364659 0 0)
(-0.0335491 0 0)
(-0.0306321 0 0)
(-0.0277151 0 0)
(-0.0247979 0 0)
(-0.0218807 0 0)
(-0.0189634 0 0)
(-0.0160461 0 0)
(-0.0131287 0 0)
(-0.0102112 0 0)
(-0.00729377 0 0)
(-0.00437627 0 0)
(-0.00145876 0 0)
)
;

boundaryField
{
    left
    {
        type            fixedValue;
        value           uniform (0 0 0);
    }
    right
    {
        type            fixedValue;
        value           uniform (0 0 0);
    }
    frontBackUpDown
    {
        type            empty;
    }
}


// ************************************************************************* //
