/*--------------------------------*- C++ -*----------------------------------*\
| =========                 |                                                 |
| \\      /  F ield         | OpenFOAM: The Open Source CFD Toolbox           |
|  \\    /   O peration     | Version:  2412                                  |
|   \\  /    A nd           | Website:  www.openfoam.com                      |
|    \\/     M anipulation  |                                                 |
\*---------------------------------------------------------------------------*/
FoamFile
{
    version     2.0;
    format      ascii;
    arch        "LSB;label=32;scalar=64";
    class       volVectorField;
    location    "0.92";
    object      U;
}
// * * * * * * * * * * * * * * * * * * * * * * * * * * * * * * * * * * * * * //

dimensions      [0 1 -1 0 0 0 0];

internalField   nonuniform List<vector> 
800
(
(0.00101041 0 0)
(0.00303125 0 0)
(0.00505209 0 0)
(0.00707293 0 0)
(0.00909375 0 0)
(0.0111146 0 0)
(0.0131354 0 0)
(0.0151562 0 0)
(0.0171769 0 0)
(0.0191977 0 0)
(0.0212184 0 0)
(0.0232391 0 0)
(0.0252598 0 0)
(0.0272805 0 0)
(0.0293011 0 0)
(0.0313217 0 0)
(0.0333423 0 0)
(0.0353628 0 0)
(0.0373833 0 0)
(0.0394037 0 0)
(0.0414242 0 0)
(0.0434445 0 0)
(0.0454648 0 0)
(0.0474851 0 0)
(0.0495053 0 0)
(0.0515255 0 0)
(0.0535456 0 0)
(0.0555656 0 0)
(0.0575856 0 0)
(0.0596056 0 0)
(0.0616254 0 0)
(0.0636452 0 0)
(0.0656649 0 0)
(0.0676846 0 0)
(0.0697042 0 0)
(0.0717237 0 0)
(0.0737431 0 0)
(0.0757625 0 0)
(0.0777817 0 0)
(0.0798009 0 0)
(0.08182 0 0)
(0.083839 0 0)
(0.085858 0 0)
(0.0878768 0 0)
(0.0898955 0 0)
(0.0919141 0 0)
(0.0939327 0 0)
(0.0959511 0 0)
(0.0979694 0 0)
(0.0999876 0 0)
(0.102006 0 0)
(0.104024 0 0)
(0.106042 0 0)
(0.108059 0 0)
(0.110077 0 0)
(0.112095 0 0)
(0.114112 0 0)
(0.116129 0 0)
(0.118146 0 0)
(0.120163 0 0)
(0.12218 0 0)
(0.124197 0 0)
(0.126214 0 0)
(0.12823 0 0)
(0.130247 0 0)
(0.132263 0 0)
(0.134279 0 0)
(0.136295 0 0)
(0.138311 0 0)
(0.140326 0 0)
(0.142342 0 0)
(0.144357 0 0)
(0.146372 0 0)
(0.148387 0 0)
(0.150402 0 0)
(0.152417 0 0)
(0.154431 0 0)
(0.156445 0 0)
(0.158459 0 0)
(0.160473 0 0)
(0.162487 0 0)
(0.164501 0 0)
(0.166514 0 0)
(0.168527 0 0)
(0.170541 0 0)
(0.172553 0 0)
(0.174566 0 0)
(0.176579 0 0)
(0.178591 0 0)
(0.180603 0 0)
(0.182615 0 0)
(0.184626 0 0)
(0.186638 0 0)
(0.188649 0 0)
(0.19066 0 0)
(0.192671 0 0)
(0.194682 0 0)
(0.196692 0 0)
(0.198702 0 0)
(0.200712 0 0)
(0.202722 0 0)
(0.204731 0 0)
(0.206741 0 0)
(0.20875 0 0)
(0.210759 0 0)
(0.212767 0 0)
(0.214775 0 0)
(0.216784 0 0)
(0.218791 0 0)
(0.220799 0 0)
(0.222806 0 0)
(0.224813 0 0)
(0.22682 0 0)
(0.228827 0 0)
(0.230833 0 0)
(0.232839 0 0)
(0.234845 0 0)
(0.23685 0 0)
(0.238856 0 0)
(0.240861 0 0)
(0.242865 0 0)
(0.24487 0 0)
(0.246874 0 0)
(0.248878 0 0)
(0.250881 0 0)
(0.252884 0 0)
(0.254887 0 0)
(0.25689 0 0)
(0.258892 0 0)
(0.260895 0 0)
(0.262896 0 0)
(0.264898 0 0)
(0.266899 0 0)
(0.2689 0 0)
(0.2709 0 0)
(0.272901 0 0)
(0.2749 0 0)
(0.2769 0 0)
(0.278899 0 0)
(0.280898 0 0)
(0.282897 0 0)
(0.284895 0 0)
(0.286893 0 0)
(0.288891 0 0)
(0.290888 0 0)
(0.292885 0 0)
(0.294881 0 0)
(0.296877 0 0)
(0.298873 0 0)
(0.300869 0 0)
(0.302864 0 0)
(0.304859 0 0)
(0.306853 0 0)
(0.308847 0 0)
(0.310841 0 0)
(0.312834 0 0)
(0.314827 0 0)
(0.316819 0 0)
(0.318812 0 0)
(0.320803 0 0)
(0.322795 0 0)
(0.324786 0 0)
(0.326776 0 0)
(0.328767 0 0)
(0.330756 0 0)
(0.332746 0 0)
(0.334735 0 0)
(0.336723 0 0)
(0.338711 0 0)
(0.340699 0 0)
(0.342686 0 0)
(0.344673 0 0)
(0.34666 0 0)
(0.348646 0 0)
(0.350632 0 0)
(0.352617 0 0)
(0.354601 0 0)
(0.356586 0 0)
(0.35857 0 0)
(0.360553 0 0)
(0.362536 0 0)
(0.364518 0 0)
(0.366501 0 0)
(0.368482 0 0)
(0.370463 0 0)
(0.372444 0 0)
(0.374424 0 0)
(0.376404 0 0)
(0.378383 0 0)
(0.380362 0 0)
(0.38234 0 0)
(0.384318 0 0)
(0.386295 0 0)
(0.388272 0 0)
(0.390248 0 0)
(0.392224 0 0)
(0.394199 0 0)
(0.396174 0 0)
(0.398148 0 0)
(0.400122 0 0)
(0.402095 0 0)
(0.404068 0 0)
(0.40604 0 0)
(0.408012 0 0)
(0.409983 0 0)
(0.411953 0 0)
(0.413923 0 0)
(0.415893 0 0)
(0.417862 0 0)
(0.41983 0 0)
(0.421798 0 0)
(0.423765 0 0)
(0.425732 0 0)
(0.427698 0 0)
(0.429663 0 0)
(0.431628 0 0)
(0.433593 0 0)
(0.435557 0 0)
(0.43752 0 0)
(0.439482 0 0)
(0.441444 0 0)
(0.443406 0 0)
(0.445367 0 0)
(0.447327 0 0)
(0.449286 0 0)
(0.451245 0 0)
(0.453204 0 0)
(0.455162 0 0)
(0.457119 0 0)
(0.459075 0 0)
(0.461031 0 0)
(0.462986 0 0)
(0.464941 0 0)
(0.466895 0 0)
(0.468848 0 0)
(0.4708 0 0)
(0.472752 0 0)
(0.474704 0 0)
(0.476654 0 0)
(0.478604 0 0)
(0.480553 0 0)
(0.482502 0 0)
(0.48445 0 0)
(0.486397 0 0)
(0.488343 0 0)
(0.490289 0 0)
(0.492234 0 0)
(0.494178 0 0)
(0.496122 0 0)
(0.498065 0 0)
(0.500007 0 0)
(0.501948 0 0)
(0.503889 0 0)
(0.505829 0 0)
(0.507768 0 0)
(0.509706 0 0)
(0.511644 0 0)
(0.513581 0 0)
(0.515517 0 0)
(0.517452 0 0)
(0.519387 0 0)
(0.521321 0 0)
(0.523254 0 0)
(0.525186 0 0)
(0.527117 0 0)
(0.529048 0 0)
(0.530978 0 0)
(0.532907 0 0)
(0.534835 0 0)
(0.536762 0 0)
(0.538689 0 0)
(0.540614 0 0)
(0.542539 0 0)
(0.544463 0 0)
(0.546386 0 0)
(0.548308 0 0)
(0.55023 0 0)
(0.55215 0 0)
(0.55407 0 0)
(0.555989 0 0)
(0.557906 0 0)
(0.559823 0 0)
(0.56174 0 0)
(0.563655 0 0)
(0.565569 0 0)
(0.567482 0 0)
(0.569395 0 0)
(0.571306 0 0)
(0.573217 0 0)
(0.575126 0 0)
(0.577035 0 0)
(0.578942 0 0)
(0.580849 0 0)
(0.582755 0 0)
(0.58466 0 0)
(0.586563 0 0)
(0.588466 0 0)
(0.590368 0 0)
(0.592269 0 0)
(0.594168 0 0)
(0.596067 0 0)
(0.597965 0 0)
(0.599861 0 0)
(0.601757 0 0)
(0.603652 0 0)
(0.605545 0 0)
(0.607438 0 0)
(0.609329 0 0)
(0.611219 0 0)
(0.613109 0 0)
(0.614997 0 0)
(0.616884 0 0)
(0.61877 0 0)
(0.620654 0 0)
(0.622538 0 0)
(0.624421 0 0)
(0.626302 0 0)
(0.628182 0 0)
(0.630062 0 0)
(0.631939 0 0)
(0.633816 0 0)
(0.635692 0 0)
(0.637566 0 0)
(0.63944 0 0)
(0.641312 0 0)
(0.643182 0 0)
(0.645052 0 0)
(0.64692 0 0)
(0.648787 0 0)
(0.650653 0 0)
(0.652518 0 0)
(0.654381 0 0)
(0.656243 0 0)
(0.658104 0 0)
(0.659964 0 0)
(0.661822 0 0)
(0.663679 0 0)
(0.665534 0 0)
(0.667388 0 0)
(0.669241 0 0)
(0.671093 0 0)
(0.672943 0 0)
(0.674792 0 0)
(0.676639 0 0)
(0.678485 0 0)
(0.68033 0 0)
(0.682173 0 0)
(0.684014 0 0)
(0.685855 0 0)
(0.687694 0 0)
(0.689531 0 0)
(0.691367 0 0)
(0.693201 0 0)
(0.695034 0 0)
(0.696866 0 0)
(0.698696 0 0)
(0.700524 0 0)
(0.702351 0 0)
(0.704176 0 0)
(0.706 0 0)
(0.707822 0 0)
(0.709643 0 0)
(0.711462 0 0)
(0.713279 0 0)
(0.715095 0 0)
(0.716909 0 0)
(0.718722 0 0)
(0.720532 0 0)
(0.722342 0 0)
(0.724149 0 0)
(0.725955 0 0)
(0.727759 0 0)
(0.729561 0 0)
(0.731362 0 0)
(0.73316 0 0)
(0.734957 0 0)
(0.736753 0 0)
(0.738546 0 0)
(0.740338 0 0)
(0.742127 0 0)
(0.743915 0 0)
(0.745701 0 0)
(0.747485 0 0)
(0.749268 0 0)
(0.751048 0 0)
(0.752826 0 0)
(0.754603 0 0)
(0.756377 0 0)
(0.75815 0 0)
(0.75992 0 0)
(0.761689 0 0)
(0.763455 0 0)
(0.76522 0 0)
(0.766982 0 0)
(0.768742 0 0)
(0.7705 0 0)
(0.772244 0 0)
(0.773283 0 0)
(0.740679 0 0)
(0.379088 0 0)
(-0.377877 0 0)
(-0.740466 0 0)
(-0.773275 0 0)
(-0.772241 0 0)
(-0.770498 0 0)
(-0.76874 0 0)
(-0.76698 0 0)
(-0.765217 0 0)
(-0.763453 0 0)
(-0.761686 0 0)
(-0.759918 0 0)
(-0.758147 0 0)
(-0.756375 0 0)
(-0.7546 0 0)
(-0.752824 0 0)
(-0.751046 0 0)
(-0.749265 0 0)
(-0.747483 0 0)
(-0.745699 0 0)
(-0.743913 0 0)
(-0.742125 0 0)
(-0.740335 0 0)
(-0.738544 0 0)
(-0.73675 0 0)
(-0.734955 0 0)
(-0.733158 0 0)
(-0.731359 0 0)
(-0.729559 0 0)
(-0.727756 0 0)
(-0.725952 0 0)
(-0.724147 0 0)
(-0.722339 0 0)
(-0.72053 0 0)
(-0.718719 0 0)
(-0.716907 0 0)
(-0.715093 0 0)
(-0.713277 0 0)
(-0.71146 0 0)
(-0.709641 0 0)
(-0.70782 0 0)
(-0.705998 0 0)
(-0.704174 0 0)
(-0.702349 0 0)
(-0.700522 0 0)
(-0.698694 0 0)
(-0.696864 0 0)
(-0.695032 0 0)
(-0.693199 0 0)
(-0.691365 0 0)
(-0.689529 0 0)
(-0.687691 0 0)
(-0.685853 0 0)
(-0.684012 0 0)
(-0.682171 0 0)
(-0.680327 0 0)
(-0.678483 0 0)
(-0.676637 0 0)
(-0.674789 0 0)
(-0.672941 0 0)
(-0.671091 0 0)
(-0.669239 0 0)
(-0.667386 0 0)
(-0.665532 0 0)
(-0.663676 0 0)
(-0.66182 0 0)
(-0.659961 0 0)
(-0.658102 0 0)
(-0.656241 0 0)
(-0.654379 0 0)
(-0.652516 0 0)
(-0.650651 0 0)
(-0.648785 0 0)
(-0.646918 0 0)
(-0.64505 0 0)
(-0.64318 0 0)
(-0.64131 0 0)
(-0.639438 0 0)
(-0.637564 0 0)
(-0.63569 0 0)
(-0.633814 0 0)
(-0.631938 0 0)
(-0.63006 0 0)
(-0.62818 0 0)
(-0.6263 0 0)
(-0.624419 0 0)
(-0.622536 0 0)
(-0.620653 0 0)
(-0.618768 0 0)
(-0.616882 0 0)
(-0.614995 0 0)
(-0.613107 0 0)
(-0.611217 0 0)
(-0.609327 0 0)
(-0.607436 0 0)
(-0.605543 0 0)
(-0.60365 0 0)
(-0.601755 0 0)
(-0.59986 0 0)
(-0.597963 0 0)
(-0.596065 0 0)
(-0.594167 0 0)
(-0.592267 0 0)
(-0.590366 0 0)
(-0.588464 0 0)
(-0.586562 0 0)
(-0.584658 0 0)
(-0.582753 0 0)
(-0.580847 0 0)
(-0.578941 0 0)
(-0.577033 0 0)
(-0.575124 0 0)
(-0.573215 0 0)
(-0.571304 0 0)
(-0.569393 0 0)
(-0.567481 0 0)
(-0.565567 0 0)
(-0.563653 0 0)
(-0.561738 0 0)
(-0.559822 0 0)
(-0.557905 0 0)
(-0.555987 0 0)
(-0.554068 0 0)
(-0.552149 0 0)
(-0.550228 0 0)
(-0.548307 0 0)
(-0.546385 0 0)
(-0.544461 0 0)
(-0.542538 0 0)
(-0.540613 0 0)
(-0.538687 0 0)
(-0.536761 0 0)
(-0.534833 0 0)
(-0.532905 0 0)
(-0.530976 0 0)
(-0.529046 0 0)
(-0.527116 0 0)
(-0.525184 0 0)
(-0.523252 0 0)
(-0.521319 0 0)
(-0.519385 0 0)
(-0.517451 0 0)
(-0.515516 0 0)
(-0.513579 0 0)
(-0.511643 0 0)
(-0.509705 0 0)
(-0.507767 0 0)
(-0.505827 0 0)
(-0.503887 0 0)
(-0.501947 0 0)
(-0.500005 0 0)
(-0.498063 0 0)
(-0.49612 0 0)
(-0.494177 0 0)
(-0.492233 0 0)
(-0.490288 0 0)
(-0.488342 0 0)
(-0.486395 0 0)
(-0.484448 0 0)
(-0.4825 0 0)
(-0.480552 0 0)
(-0.478603 0 0)
(-0.476653 0 0)
(-0.474702 0 0)
(-0.472751 0 0)
(-0.470799 0 0)
(-0.468847 0 0)
(-0.466893 0 0)
(-0.464939 0 0)
(-0.462985 0 0)
(-0.46103 0 0)
(-0.459074 0 0)
(-0.457117 0 0)
(-0.45516 0 0)
(-0.453203 0 0)
(-0.451244 0 0)
(-0.449285 0 0)
(-0.447326 0 0)
(-0.445366 0 0)
(-0.443405 0 0)
(-0.441443 0 0)
(-0.439481 0 0)
(-0.437519 0 0)
(-0.435556 0 0)
(-0.433592 0 0)
(-0.431627 0 0)
(-0.429662 0 0)
(-0.427697 0 0)
(-0.425731 0 0)
(-0.423764 0 0)
(-0.421797 0 0)
(-0.419829 0 0)
(-0.417861 0 0)
(-0.415892 0 0)
(-0.413922 0 0)
(-0.411952 0 0)
(-0.409982 0 0)
(-0.408011 0 0)
(-0.406039 0 0)
(-0.404067 0 0)
(-0.402094 0 0)
(-0.400121 0 0)
(-0.398147 0 0)
(-0.396173 0 0)
(-0.394198 0 0)
(-0.392223 0 0)
(-0.390247 0 0)
(-0.388271 0 0)
(-0.386294 0 0)
(-0.384317 0 0)
(-0.382339 0 0)
(-0.380361 0 0)
(-0.378382 0 0)
(-0.376403 0 0)
(-0.374423 0 0)
(-0.372443 0 0)
(-0.370462 0 0)
(-0.368481 0 0)
(-0.3665 0 0)
(-0.364518 0 0)
(-0.362535 0 0)
(-0.360552 0 0)
(-0.358569 0 0)
(-0.356585 0 0)
(-0.354601 0 0)
(-0.352616 0 0)
(-0.350631 0 0)
(-0.348645 0 0)
(-0.346659 0 0)
(-0.344673 0 0)
(-0.342686 0 0)
(-0.340698 0 0)
(-0.338711 0 0)
(-0.336723 0 0)
(-0.334734 0 0)
(-0.332745 0 0)
(-0.330756 0 0)
(-0.328766 0 0)
(-0.326776 0 0)
(-0.324785 0 0)
(-0.322794 0 0)
(-0.320803 0 0)
(-0.318811 0 0)
(-0.316819 0 0)
(-0.314826 0 0)
(-0.312833 0 0)
(-0.31084 0 0)
(-0.308847 0 0)
(-0.306852 0 0)
(-0.304858 0 0)
(-0.302863 0 0)
(-0.300868 0 0)
(-0.298873 0 0)
(-0.296877 0 0)
(-0.294881 0 0)
(-0.292884 0 0)
(-0.290887 0 0)
(-0.28889 0 0)
(-0.286892 0 0)
(-0.284895 0 0)
(-0.282896 0 0)
(-0.280898 0 0)
(-0.278899 0 0)
(-0.2769 0 0)
(-0.2749 0 0)
(-0.2729 0 0)
(-0.2709 0 0)
(-0.268899 0 0)
(-0.266899 0 0)
(-0.264897 0 0)
(-0.262896 0 0)
(-0.260894 0 0)
(-0.258892 0 0)
(-0.25689 0 0)
(-0.254887 0 0)
(-0.252884 0 0)
(-0.250881 0 0)
(-0.248877 0 0)
(-0.246873 0 0)
(-0.244869 0 0)
(-0.242865 0 0)
(-0.24086 0 0)
(-0.238855 0 0)
(-0.23685 0 0)
(-0.234845 0 0)
(-0.232839 0 0)
(-0.230833 0 0)
(-0.228826 0 0)
(-0.22682 0 0)
(-0.224813 0 0)
(-0.222806 0 0)
(-0.220799 0 0)
(-0.218791 0 0)
(-0.216783 0 0)
(-0.214775 0 0)
(-0.212767 0 0)
(-0.210758 0 0)
(-0.20875 0 0)
(-0.20674 0 0)
(-0.204731 0 0)
(-0.202722 0 0)
(-0.200712 0 0)
(-0.198702 0 0)
(-0.196692 0 0)
(-0.194681 0 0)
(-0.192671 0 0)
(-0.19066 0 0)
(-0.188649 0 0)
(-0.186638 0 0)
(-0.184626 0 0)
(-0.182615 0 0)
(-0.180603 0 0)
(-0.178591 0 0)
(-0.176578 0 0)
(-0.174566 0 0)
(-0.172553 0 0)
(-0.17054 0 0)
(-0.168527 0 0)
(-0.166514 0 0)
(-0.164501 0 0)
(-0.162487 0 0)
(-0.160473 0 0)
(-0.158459 0 0)
(-0.156445 0 0)
(-0.154431 0 0)
(-0.152416 0 0)
(-0.150402 0 0)
(-0.148387 0 0)
(-0.146372 0 0)
(-0.144357 0 0)
(-0.142342 0 0)
(-0.140326 0 0)
(-0.13831 0 0)
(-0.136295 0 0)
(-0.134279 0 0)
(-0.132263 0 0)
(-0.130247 0 0)
(-0.12823 0 0)
(-0.126214 0 0)
(-0.124197 0 0)
(-0.12218 0 0)
(-0.120163 0 0)
(-0.118146 0 0)
(-0.116129 0 0)
(-0.114112 0 0)
(-0.112095 0 0)
(-0.110077 0 0)
(-0.108059 0 0)
(-0.106042 0 0)
(-0.104024 0 0)
(-0.102006 0 0)
(-0.0999876 0 0)
(-0.0979694 0 0)
(-0.095951 0 0)
(-0.0939326 0 0)
(-0.0919141 0 0)
(-0.0898955 0 0)
(-0.0878767 0 0)
(-0.0858579 0 0)
(-0.083839 0 0)
(-0.08182 0 0)
(-0.0798009 0 0)
(-0.0777817 0 0)
(-0.0757624 0 0)
(-0.0737431 0 0)
(-0.0717237 0 0)
(-0.0697042 0 0)
(-0.0676846 0 0)
(-0.0656649 0 0)
(-0.0636452 0 0)
(-0.0616254 0 0)
(-0.0596055 0 0)
(-0.0575856 0 0)
(-0.0555656 0 0)
(-0.0535456 0 0)
(-0.0515255 0 0)
(-0.0495053 0 0)
(-0.0474851 0 0)
(-0.0454648 0 0)
(-0.0434445 0 0)
(-0.0414241 0 0)
(-0.0394037 0 0)
(-0.0373833 0 0)
(-0.0353628 0 0)
(-0.0333423 0 0)
(-0.0313217 0 0)
(-0.0293011 0 0)
(-0.0272805 0 0)
(-0.0252598 0 0)
(-0.0232391 0 0)
(-0.0212184 0 0)
(-0.0191977 0 0)
(-0.0171769 0 0)
(-0.0151562 0 0)
(-0.0131354 0 0)
(-0.0111146 0 0)
(-0.00909376 0 0)
(-0.00707293 0 0)
(-0.0050521 0 0)
(-0.00303126 0 0)
(-0.00101042 0 0)
)
;

boundaryField
{
    left
    {
        type            fixedValue;
        value           uniform (0 0 0);
    }
    right
    {
        type            fixedValue;
        value           uniform (0 0 0);
    }
    frontBackUpDown
    {
        type            empty;
    }
}


// ************************************************************************* //
