/*--------------------------------*- C++ -*----------------------------------*\
| =========                 |                                                 |
| \\      /  F ield         | OpenFOAM: The Open Source CFD Toolbox           |
|  \\    /   O peration     | Version:  2412                                  |
|   \\  /    A nd           | Website:  www.openfoam.com                      |
|    \\/     M anipulation  |                                                 |
\*---------------------------------------------------------------------------*/
FoamFile
{
    version     2.0;
    format      ascii;
    arch        "LSB;label=32;scalar=64";
    class       volVectorField;
    location    "0.92";
    object      U_0;
}
// * * * * * * * * * * * * * * * * * * * * * * * * * * * * * * * * * * * * * //

dimensions      [0 1 -1 0 0 0 0];

internalField   nonuniform List<vector> 
800
(
(0.00101082 0 0)
(0.00303248 0 0)
(0.00505413 0 0)
(0.00707578 0 0)
(0.00909742 0 0)
(0.0111191 0 0)
(0.0131407 0 0)
(0.0151623 0 0)
(0.0171839 0 0)
(0.0192054 0 0)
(0.021227 0 0)
(0.0232485 0 0)
(0.02527 0 0)
(0.0272915 0 0)
(0.0293129 0 0)
(0.0313343 0 0)
(0.0333557 0 0)
(0.0353771 0 0)
(0.0373984 0 0)
(0.0394196 0 0)
(0.0414409 0 0)
(0.043462 0 0)
(0.0454832 0 0)
(0.0475043 0 0)
(0.0495253 0 0)
(0.0515463 0 0)
(0.0535672 0 0)
(0.055588 0 0)
(0.0576089 0 0)
(0.0596296 0 0)
(0.0616503 0 0)
(0.0636709 0 0)
(0.0656914 0 0)
(0.0677119 0 0)
(0.0697323 0 0)
(0.0717526 0 0)
(0.0737729 0 0)
(0.075793 0 0)
(0.0778131 0 0)
(0.0798331 0 0)
(0.081853 0 0)
(0.0838728 0 0)
(0.0858926 0 0)
(0.0879122 0 0)
(0.0899317 0 0)
(0.0919512 0 0)
(0.0939705 0 0)
(0.0959898 0 0)
(0.0980089 0 0)
(0.100028 0 0)
(0.102047 0 0)
(0.104066 0 0)
(0.106084 0 0)
(0.108103 0 0)
(0.110121 0 0)
(0.11214 0 0)
(0.114158 0 0)
(0.116176 0 0)
(0.118194 0 0)
(0.120212 0 0)
(0.12223 0 0)
(0.124247 0 0)
(0.126265 0 0)
(0.128282 0 0)
(0.130299 0 0)
(0.132316 0 0)
(0.134333 0 0)
(0.13635 0 0)
(0.138366 0 0)
(0.140383 0 0)
(0.142399 0 0)
(0.144415 0 0)
(0.146431 0 0)
(0.148447 0 0)
(0.150462 0 0)
(0.152478 0 0)
(0.154493 0 0)
(0.156508 0 0)
(0.158523 0 0)
(0.160538 0 0)
(0.162553 0 0)
(0.164567 0 0)
(0.166581 0 0)
(0.168595 0 0)
(0.170609 0 0)
(0.172623 0 0)
(0.174636 0 0)
(0.176649 0 0)
(0.178663 0 0)
(0.180675 0 0)
(0.182688 0 0)
(0.184701 0 0)
(0.186713 0 0)
(0.188725 0 0)
(0.190737 0 0)
(0.192748 0 0)
(0.19476 0 0)
(0.196771 0 0)
(0.198782 0 0)
(0.200793 0 0)
(0.202803 0 0)
(0.204814 0 0)
(0.206824 0 0)
(0.208834 0 0)
(0.210843 0 0)
(0.212852 0 0)
(0.214862 0 0)
(0.21687 0 0)
(0.218879 0 0)
(0.220887 0 0)
(0.222896 0 0)
(0.224903 0 0)
(0.226911 0 0)
(0.228918 0 0)
(0.230926 0 0)
(0.232932 0 0)
(0.234939 0 0)
(0.236945 0 0)
(0.238951 0 0)
(0.240957 0 0)
(0.242962 0 0)
(0.244968 0 0)
(0.246973 0 0)
(0.248977 0 0)
(0.250982 0 0)
(0.252986 0 0)
(0.254989 0 0)
(0.256993 0 0)
(0.258996 0 0)
(0.260999 0 0)
(0.263001 0 0)
(0.265004 0 0)
(0.267006 0 0)
(0.269007 0 0)
(0.271009 0 0)
(0.27301 0 0)
(0.27501 0 0)
(0.277011 0 0)
(0.279011 0 0)
(0.28101 0 0)
(0.28301 0 0)
(0.285009 0 0)
(0.287007 0 0)
(0.289006 0 0)
(0.291004 0 0)
(0.293001 0 0)
(0.294999 0 0)
(0.296996 0 0)
(0.298992 0 0)
(0.300989 0 0)
(0.302985 0 0)
(0.30498 0 0)
(0.306975 0 0)
(0.30897 0 0)
(0.310964 0 0)
(0.312959 0 0)
(0.314952 0 0)
(0.316945 0 0)
(0.318938 0 0)
(0.320931 0 0)
(0.322923 0 0)
(0.324915 0 0)
(0.326906 0 0)
(0.328897 0 0)
(0.330888 0 0)
(0.332878 0 0)
(0.334868 0 0)
(0.336857 0 0)
(0.338846 0 0)
(0.340834 0 0)
(0.342822 0 0)
(0.34481 0 0)
(0.346797 0 0)
(0.348784 0 0)
(0.350771 0 0)
(0.352756 0 0)
(0.354742 0 0)
(0.356727 0 0)
(0.358712 0 0)
(0.360696 0 0)
(0.362679 0 0)
(0.364663 0 0)
(0.366646 0 0)
(0.368628 0 0)
(0.37061 0 0)
(0.372591 0 0)
(0.374572 0 0)
(0.376553 0 0)
(0.378532 0 0)
(0.380512 0 0)
(0.382491 0 0)
(0.384469 0 0)
(0.386447 0 0)
(0.388425 0 0)
(0.390402 0 0)
(0.392379 0 0)
(0.394355 0 0)
(0.39633 0 0)
(0.398305 0 0)
(0.40028 0 0)
(0.402254 0 0)
(0.404227 0 0)
(0.4062 0 0)
(0.408172 0 0)
(0.410144 0 0)
(0.412115 0 0)
(0.414086 0 0)
(0.416056 0 0)
(0.418026 0 0)
(0.419995 0 0)
(0.421964 0 0)
(0.423932 0 0)
(0.425899 0 0)
(0.427866 0 0)
(0.429832 0 0)
(0.431798 0 0)
(0.433763 0 0)
(0.435727 0 0)
(0.437691 0 0)
(0.439655 0 0)
(0.441617 0 0)
(0.443579 0 0)
(0.445541 0 0)
(0.447502 0 0)
(0.449462 0 0)
(0.451422 0 0)
(0.453381 0 0)
(0.455339 0 0)
(0.457297 0 0)
(0.459254 0 0)
(0.461211 0 0)
(0.463167 0 0)
(0.465122 0 0)
(0.467077 0 0)
(0.469031 0 0)
(0.470984 0 0)
(0.472937 0 0)
(0.474888 0 0)
(0.47684 0 0)
(0.47879 0 0)
(0.48074 0 0)
(0.482689 0 0)
(0.484638 0 0)
(0.486586 0 0)
(0.488533 0 0)
(0.490479 0 0)
(0.492425 0 0)
(0.49437 0 0)
(0.496314 0 0)
(0.498258 0 0)
(0.500201 0 0)
(0.502143 0 0)
(0.504084 0 0)
(0.506025 0 0)
(0.507965 0 0)
(0.509904 0 0)
(0.511842 0 0)
(0.513779 0 0)
(0.515716 0 0)
(0.517652 0 0)
(0.519588 0 0)
(0.521522 0 0)
(0.523456 0 0)
(0.525389 0 0)
(0.527321 0 0)
(0.529252 0 0)
(0.531182 0 0)
(0.533112 0 0)
(0.535041 0 0)
(0.536969 0 0)
(0.538896 0 0)
(0.540822 0 0)
(0.542748 0 0)
(0.544672 0 0)
(0.546596 0 0)
(0.548519 0 0)
(0.550441 0 0)
(0.552362 0 0)
(0.554282 0 0)
(0.556202 0 0)
(0.55812 0 0)
(0.560038 0 0)
(0.561954 0 0)
(0.56387 0 0)
(0.565785 0 0)
(0.567699 0 0)
(0.569612 0 0)
(0.571524 0 0)
(0.573435 0 0)
(0.575345 0 0)
(0.577255 0 0)
(0.579163 0 0)
(0.58107 0 0)
(0.582977 0 0)
(0.584882 0 0)
(0.586786 0 0)
(0.58869 0 0)
(0.590592 0 0)
(0.592493 0 0)
(0.594394 0 0)
(0.596293 0 0)
(0.598191 0 0)
(0.600089 0 0)
(0.601985 0 0)
(0.60388 0 0)
(0.605774 0 0)
(0.607667 0 0)
(0.609559 0 0)
(0.61145 0 0)
(0.61334 0 0)
(0.615229 0 0)
(0.617116 0 0)
(0.619003 0 0)
(0.620888 0 0)
(0.622772 0 0)
(0.624655 0 0)
(0.626537 0 0)
(0.628418 0 0)
(0.630298 0 0)
(0.632176 0 0)
(0.634054 0 0)
(0.63593 0 0)
(0.637805 0 0)
(0.639679 0 0)
(0.641551 0 0)
(0.643423 0 0)
(0.645293 0 0)
(0.647162 0 0)
(0.649029 0 0)
(0.650896 0 0)
(0.652761 0 0)
(0.654625 0 0)
(0.656487 0 0)
(0.658349 0 0)
(0.660209 0 0)
(0.662067 0 0)
(0.663925 0 0)
(0.665781 0 0)
(0.667635 0 0)
(0.669489 0 0)
(0.671341 0 0)
(0.673191 0 0)
(0.675041 0 0)
(0.676889 0 0)
(0.678735 0 0)
(0.68058 0 0)
(0.682424 0 0)
(0.684266 0 0)
(0.686107 0 0)
(0.687946 0 0)
(0.689784 0 0)
(0.69162 0 0)
(0.693455 0 0)
(0.695289 0 0)
(0.697121 0 0)
(0.698951 0 0)
(0.70078 0 0)
(0.702607 0 0)
(0.704433 0 0)
(0.706257 0 0)
(0.70808 0 0)
(0.709901 0 0)
(0.71172 0 0)
(0.713538 0 0)
(0.715354 0 0)
(0.717169 0 0)
(0.718982 0 0)
(0.720793 0 0)
(0.722603 0 0)
(0.72441 0 0)
(0.726216 0 0)
(0.728021 0 0)
(0.729824 0 0)
(0.731625 0 0)
(0.733424 0 0)
(0.735221 0 0)
(0.737017 0 0)
(0.73881 0 0)
(0.740602 0 0)
(0.742392 0 0)
(0.744181 0 0)
(0.745967 0 0)
(0.747752 0 0)
(0.749534 0 0)
(0.751315 0 0)
(0.753094 0 0)
(0.75487 0 0)
(0.756645 0 0)
(0.758418 0 0)
(0.760189 0 0)
(0.761958 0 0)
(0.763725 0 0)
(0.765489 0 0)
(0.767252 0 0)
(0.769012 0 0)
(0.770771 0 0)
(0.772515 0 0)
(0.773562 0 0)
(0.741036 0 0)
(0.379353 0 0)
(-0.378142 0 0)
(-0.740823 0 0)
(-0.773554 0 0)
(-0.772512 0 0)
(-0.770768 0 0)
(-0.76901 0 0)
(-0.767249 0 0)
(-0.765487 0 0)
(-0.763722 0 0)
(-0.761955 0 0)
(-0.760187 0 0)
(-0.758416 0 0)
(-0.756643 0 0)
(-0.754868 0 0)
(-0.753091 0 0)
(-0.751313 0 0)
(-0.749532 0 0)
(-0.747749 0 0)
(-0.745965 0 0)
(-0.744178 0 0)
(-0.74239 0 0)
(-0.7406 0 0)
(-0.738808 0 0)
(-0.737014 0 0)
(-0.735219 0 0)
(-0.733421 0 0)
(-0.731622 0 0)
(-0.729821 0 0)
(-0.728019 0 0)
(-0.726214 0 0)
(-0.724408 0 0)
(-0.7226 0 0)
(-0.720791 0 0)
(-0.718979 0 0)
(-0.717167 0 0)
(-0.715352 0 0)
(-0.713536 0 0)
(-0.711718 0 0)
(-0.709899 0 0)
(-0.708078 0 0)
(-0.706255 0 0)
(-0.704431 0 0)
(-0.702605 0 0)
(-0.700778 0 0)
(-0.698949 0 0)
(-0.697118 0 0)
(-0.695287 0 0)
(-0.693453 0 0)
(-0.691618 0 0)
(-0.689782 0 0)
(-0.687944 0 0)
(-0.686105 0 0)
(-0.684264 0 0)
(-0.682422 0 0)
(-0.680578 0 0)
(-0.678733 0 0)
(-0.676886 0 0)
(-0.675039 0 0)
(-0.673189 0 0)
(-0.671339 0 0)
(-0.669487 0 0)
(-0.667633 0 0)
(-0.665779 0 0)
(-0.663923 0 0)
(-0.662065 0 0)
(-0.660206 0 0)
(-0.658346 0 0)
(-0.656485 0 0)
(-0.654623 0 0)
(-0.652759 0 0)
(-0.650894 0 0)
(-0.649027 0 0)
(-0.64716 0 0)
(-0.645291 0 0)
(-0.643421 0 0)
(-0.641549 0 0)
(-0.639677 0 0)
(-0.637803 0 0)
(-0.635928 0 0)
(-0.634052 0 0)
(-0.632174 0 0)
(-0.630296 0 0)
(-0.628416 0 0)
(-0.626535 0 0)
(-0.624653 0 0)
(-0.62277 0 0)
(-0.620886 0 0)
(-0.619001 0 0)
(-0.617114 0 0)
(-0.615227 0 0)
(-0.613338 0 0)
(-0.611448 0 0)
(-0.609557 0 0)
(-0.607665 0 0)
(-0.605772 0 0)
(-0.603878 0 0)
(-0.601983 0 0)
(-0.600087 0 0)
(-0.598189 0 0)
(-0.596291 0 0)
(-0.594392 0 0)
(-0.592492 0 0)
(-0.59059 0 0)
(-0.588688 0 0)
(-0.586784 0 0)
(-0.58488 0 0)
(-0.582975 0 0)
(-0.581068 0 0)
(-0.579161 0 0)
(-0.577253 0 0)
(-0.575344 0 0)
(-0.573433 0 0)
(-0.571522 0 0)
(-0.56961 0 0)
(-0.567697 0 0)
(-0.565783 0 0)
(-0.563869 0 0)
(-0.561953 0 0)
(-0.560036 0 0)
(-0.558119 0 0)
(-0.5562 0 0)
(-0.554281 0 0)
(-0.55236 0 0)
(-0.550439 0 0)
(-0.548517 0 0)
(-0.546594 0 0)
(-0.544671 0 0)
(-0.542746 0 0)
(-0.540821 0 0)
(-0.538894 0 0)
(-0.536967 0 0)
(-0.535039 0 0)
(-0.53311 0 0)
(-0.531181 0 0)
(-0.52925 0 0)
(-0.527319 0 0)
(-0.525387 0 0)
(-0.523454 0 0)
(-0.521521 0 0)
(-0.519586 0 0)
(-0.517651 0 0)
(-0.515715 0 0)
(-0.513778 0 0)
(-0.511841 0 0)
(-0.509902 0 0)
(-0.507963 0 0)
(-0.506023 0 0)
(-0.504083 0 0)
(-0.502141 0 0)
(-0.500199 0 0)
(-0.498256 0 0)
(-0.496313 0 0)
(-0.494369 0 0)
(-0.492424 0 0)
(-0.490478 0 0)
(-0.488532 0 0)
(-0.486584 0 0)
(-0.484637 0 0)
(-0.482688 0 0)
(-0.480739 0 0)
(-0.478789 0 0)
(-0.476838 0 0)
(-0.474887 0 0)
(-0.472935 0 0)
(-0.470983 0 0)
(-0.469029 0 0)
(-0.467075 0 0)
(-0.465121 0 0)
(-0.463166 0 0)
(-0.46121 0 0)
(-0.459253 0 0)
(-0.457296 0 0)
(-0.455338 0 0)
(-0.45338 0 0)
(-0.451421 0 0)
(-0.449461 0 0)
(-0.447501 0 0)
(-0.44554 0 0)
(-0.443578 0 0)
(-0.441616 0 0)
(-0.439654 0 0)
(-0.43769 0 0)
(-0.435726 0 0)
(-0.433762 0 0)
(-0.431797 0 0)
(-0.429831 0 0)
(-0.427865 0 0)
(-0.425898 0 0)
(-0.423931 0 0)
(-0.421963 0 0)
(-0.419994 0 0)
(-0.418025 0 0)
(-0.416055 0 0)
(-0.414085 0 0)
(-0.412114 0 0)
(-0.410143 0 0)
(-0.408171 0 0)
(-0.406199 0 0)
(-0.404226 0 0)
(-0.402253 0 0)
(-0.400279 0 0)
(-0.398304 0 0)
(-0.396329 0 0)
(-0.394354 0 0)
(-0.392378 0 0)
(-0.390401 0 0)
(-0.388424 0 0)
(-0.386447 0 0)
(-0.384469 0 0)
(-0.38249 0 0)
(-0.380511 0 0)
(-0.378532 0 0)
(-0.376552 0 0)
(-0.374571 0 0)
(-0.37259 0 0)
(-0.370609 0 0)
(-0.368627 0 0)
(-0.366645 0 0)
(-0.364662 0 0)
(-0.362679 0 0)
(-0.360695 0 0)
(-0.358711 0 0)
(-0.356726 0 0)
(-0.354741 0 0)
(-0.352756 0 0)
(-0.35077 0 0)
(-0.348783 0 0)
(-0.346797 0 0)
(-0.344809 0 0)
(-0.342822 0 0)
(-0.340834 0 0)
(-0.338845 0 0)
(-0.336856 0 0)
(-0.334867 0 0)
(-0.332877 0 0)
(-0.330887 0 0)
(-0.328897 0 0)
(-0.326906 0 0)
(-0.324914 0 0)
(-0.322922 0 0)
(-0.32093 0 0)
(-0.318938 0 0)
(-0.316945 0 0)
(-0.314952 0 0)
(-0.312958 0 0)
(-0.310964 0 0)
(-0.308969 0 0)
(-0.306975 0 0)
(-0.304979 0 0)
(-0.302984 0 0)
(-0.300988 0 0)
(-0.298992 0 0)
(-0.296995 0 0)
(-0.294998 0 0)
(-0.293001 0 0)
(-0.291003 0 0)
(-0.289005 0 0)
(-0.287007 0 0)
(-0.285008 0 0)
(-0.283009 0 0)
(-0.28101 0 0)
(-0.27901 0 0)
(-0.27701 0 0)
(-0.27501 0 0)
(-0.273009 0 0)
(-0.271008 0 0)
(-0.269007 0 0)
(-0.267005 0 0)
(-0.265003 0 0)
(-0.263001 0 0)
(-0.260998 0 0)
(-0.258996 0 0)
(-0.256992 0 0)
(-0.254989 0 0)
(-0.252985 0 0)
(-0.250981 0 0)
(-0.248977 0 0)
(-0.246972 0 0)
(-0.244967 0 0)
(-0.242962 0 0)
(-0.240957 0 0)
(-0.238951 0 0)
(-0.236945 0 0)
(-0.234939 0 0)
(-0.232932 0 0)
(-0.230925 0 0)
(-0.228918 0 0)
(-0.226911 0 0)
(-0.224903 0 0)
(-0.222895 0 0)
(-0.220887 0 0)
(-0.218879 0 0)
(-0.21687 0 0)
(-0.214861 0 0)
(-0.212852 0 0)
(-0.210843 0 0)
(-0.208833 0 0)
(-0.206823 0 0)
(-0.204813 0 0)
(-0.202803 0 0)
(-0.200793 0 0)
(-0.198782 0 0)
(-0.196771 0 0)
(-0.19476 0 0)
(-0.192748 0 0)
(-0.190737 0 0)
(-0.188725 0 0)
(-0.186713 0 0)
(-0.1847 0 0)
(-0.182688 0 0)
(-0.180675 0 0)
(-0.178662 0 0)
(-0.176649 0 0)
(-0.174636 0 0)
(-0.172623 0 0)
(-0.170609 0 0)
(-0.168595 0 0)
(-0.166581 0 0)
(-0.164567 0 0)
(-0.162552 0 0)
(-0.160538 0 0)
(-0.158523 0 0)
(-0.156508 0 0)
(-0.154493 0 0)
(-0.152478 0 0)
(-0.150462 0 0)
(-0.148447 0 0)
(-0.146431 0 0)
(-0.144415 0 0)
(-0.142399 0 0)
(-0.140383 0 0)
(-0.138366 0 0)
(-0.13635 0 0)
(-0.134333 0 0)
(-0.132316 0 0)
(-0.130299 0 0)
(-0.128282 0 0)
(-0.126264 0 0)
(-0.124247 0 0)
(-0.122229 0 0)
(-0.120212 0 0)
(-0.118194 0 0)
(-0.116176 0 0)
(-0.114158 0 0)
(-0.11214 0 0)
(-0.110121 0 0)
(-0.108103 0 0)
(-0.106084 0 0)
(-0.104066 0 0)
(-0.102047 0 0)
(-0.100028 0 0)
(-0.0980088 0 0)
(-0.0959897 0 0)
(-0.0939705 0 0)
(-0.0919511 0 0)
(-0.0899317 0 0)
(-0.0879121 0 0)
(-0.0858925 0 0)
(-0.0838728 0 0)
(-0.081853 0 0)
(-0.0798331 0 0)
(-0.0778131 0 0)
(-0.075793 0 0)
(-0.0737728 0 0)
(-0.0717526 0 0)
(-0.0697323 0 0)
(-0.0677119 0 0)
(-0.0656914 0 0)
(-0.0636709 0 0)
(-0.0616502 0 0)
(-0.0596296 0 0)
(-0.0576088 0 0)
(-0.055588 0 0)
(-0.0535672 0 0)
(-0.0515462 0 0)
(-0.0495253 0 0)
(-0.0475042 0 0)
(-0.0454832 0 0)
(-0.043462 0 0)
(-0.0414409 0 0)
(-0.0394196 0 0)
(-0.0373984 0 0)
(-0.0353771 0 0)
(-0.0333557 0 0)
(-0.0313343 0 0)
(-0.0293129 0 0)
(-0.0272915 0 0)
(-0.02527 0 0)
(-0.0232485 0 0)
(-0.021227 0 0)
(-0.0192054 0 0)
(-0.0171839 0 0)
(-0.0151623 0 0)
(-0.0131407 0 0)
(-0.0111191 0 0)
(-0.00909743 0 0)
(-0.00707579 0 0)
(-0.00505414 0 0)
(-0.00303249 0 0)
(-0.00101083 0 0)
)
;

boundaryField
{
    left
    {
        type            fixedValue;
        value           uniform (0 0 0);
    }
    right
    {
        type            fixedValue;
        value           uniform (0 0 0);
    }
    frontBackUpDown
    {
        type            empty;
    }
}


// ************************************************************************* //
