/*--------------------------------*- C++ -*----------------------------------*\
| =========                 |                                                 |
| \\      /  F ield         | OpenFOAM: The Open Source CFD Toolbox           |
|  \\    /   O peration     | Version:  2412                                  |
|   \\  /    A nd           | Website:  www.openfoam.com                      |
|    \\/     M anipulation  |                                                 |
\*---------------------------------------------------------------------------*/
FoamFile
{
    version     2.0;
    format      ascii;
    arch        "LSB;label=32;scalar=64";
    class       volVectorField;
    location    "0.92";
    object      U_0_0_0;
}
// * * * * * * * * * * * * * * * * * * * * * * * * * * * * * * * * * * * * * //

dimensions      [0 1 -1 0 0 0 0];

internalField   nonuniform List<vector> 
800
(
(0.00101164 0 0)
(0.00303493 0 0)
(0.00505821 0 0)
(0.00708149 0 0)
(0.00910477 0 0)
(0.011128 0 0)
(0.0131513 0 0)
(0.0151745 0 0)
(0.0171977 0 0)
(0.0192209 0 0)
(0.0212441 0 0)
(0.0232673 0 0)
(0.0252904 0 0)
(0.0273135 0 0)
(0.0293366 0 0)
(0.0313596 0 0)
(0.0333827 0 0)
(0.0354056 0 0)
(0.0374286 0 0)
(0.0394515 0 0)
(0.0414743 0 0)
(0.0434971 0 0)
(0.0455199 0 0)
(0.0475426 0 0)
(0.0495653 0 0)
(0.0515879 0 0)
(0.0536104 0 0)
(0.0556329 0 0)
(0.0576554 0 0)
(0.0596777 0 0)
(0.0617 0 0)
(0.0637223 0 0)
(0.0657444 0 0)
(0.0677665 0 0)
(0.0697886 0 0)
(0.0718105 0 0)
(0.0738324 0 0)
(0.0758542 0 0)
(0.0778759 0 0)
(0.0798975 0 0)
(0.081919 0 0)
(0.0839405 0 0)
(0.0859618 0 0)
(0.0879831 0 0)
(0.0900043 0 0)
(0.0920253 0 0)
(0.0940463 0 0)
(0.0960672 0 0)
(0.0980879 0 0)
(0.100109 0 0)
(0.102129 0 0)
(0.10415 0 0)
(0.10617 0 0)
(0.10819 0 0)
(0.11021 0 0)
(0.11223 0 0)
(0.11425 0 0)
(0.11627 0 0)
(0.118289 0 0)
(0.120309 0 0)
(0.122328 0 0)
(0.124347 0 0)
(0.126366 0 0)
(0.128385 0 0)
(0.130404 0 0)
(0.132423 0 0)
(0.134441 0 0)
(0.136459 0 0)
(0.138478 0 0)
(0.140496 0 0)
(0.142514 0 0)
(0.144531 0 0)
(0.146549 0 0)
(0.148566 0 0)
(0.150584 0 0)
(0.152601 0 0)
(0.154617 0 0)
(0.156634 0 0)
(0.158651 0 0)
(0.160667 0 0)
(0.162683 0 0)
(0.164699 0 0)
(0.166715 0 0)
(0.168731 0 0)
(0.170746 0 0)
(0.172762 0 0)
(0.174777 0 0)
(0.176792 0 0)
(0.178806 0 0)
(0.180821 0 0)
(0.182835 0 0)
(0.184849 0 0)
(0.186863 0 0)
(0.188877 0 0)
(0.19089 0 0)
(0.192903 0 0)
(0.194916 0 0)
(0.196929 0 0)
(0.198942 0 0)
(0.200954 0 0)
(0.202966 0 0)
(0.204978 0 0)
(0.20699 0 0)
(0.209001 0 0)
(0.211012 0 0)
(0.213023 0 0)
(0.215034 0 0)
(0.217044 0 0)
(0.219055 0 0)
(0.221065 0 0)
(0.223074 0 0)
(0.225084 0 0)
(0.227093 0 0)
(0.229102 0 0)
(0.231111 0 0)
(0.233119 0 0)
(0.235127 0 0)
(0.237135 0 0)
(0.239143 0 0)
(0.24115 0 0)
(0.243157 0 0)
(0.245164 0 0)
(0.24717 0 0)
(0.249177 0 0)
(0.251182 0 0)
(0.253188 0 0)
(0.255193 0 0)
(0.257198 0 0)
(0.259203 0 0)
(0.261208 0 0)
(0.263212 0 0)
(0.265216 0 0)
(0.267219 0 0)
(0.269222 0 0)
(0.271225 0 0)
(0.273228 0 0)
(0.27523 0 0)
(0.277232 0 0)
(0.279233 0 0)
(0.281235 0 0)
(0.283236 0 0)
(0.285236 0 0)
(0.287237 0 0)
(0.289236 0 0)
(0.291236 0 0)
(0.293235 0 0)
(0.295234 0 0)
(0.297233 0 0)
(0.299231 0 0)
(0.301229 0 0)
(0.303226 0 0)
(0.305223 0 0)
(0.30722 0 0)
(0.309216 0 0)
(0.311212 0 0)
(0.313208 0 0)
(0.315203 0 0)
(0.317198 0 0)
(0.319192 0 0)
(0.321186 0 0)
(0.32318 0 0)
(0.325173 0 0)
(0.327166 0 0)
(0.329159 0 0)
(0.331151 0 0)
(0.333142 0 0)
(0.335134 0 0)
(0.337125 0 0)
(0.339115 0 0)
(0.341105 0 0)
(0.343095 0 0)
(0.345084 0 0)
(0.347073 0 0)
(0.349061 0 0)
(0.351049 0 0)
(0.353036 0 0)
(0.355023 0 0)
(0.35701 0 0)
(0.358996 0 0)
(0.360982 0 0)
(0.362967 0 0)
(0.364952 0 0)
(0.366936 0 0)
(0.36892 0 0)
(0.370903 0 0)
(0.372886 0 0)
(0.374868 0 0)
(0.37685 0 0)
(0.378832 0 0)
(0.380813 0 0)
(0.382793 0 0)
(0.384773 0 0)
(0.386753 0 0)
(0.388732 0 0)
(0.39071 0 0)
(0.392688 0 0)
(0.394666 0 0)
(0.396643 0 0)
(0.398619 0 0)
(0.400595 0 0)
(0.402571 0 0)
(0.404546 0 0)
(0.40652 0 0)
(0.408494 0 0)
(0.410467 0 0)
(0.41244 0 0)
(0.414412 0 0)
(0.416384 0 0)
(0.418355 0 0)
(0.420325 0 0)
(0.422295 0 0)
(0.424265 0 0)
(0.426234 0 0)
(0.428202 0 0)
(0.43017 0 0)
(0.432137 0 0)
(0.434103 0 0)
(0.436069 0 0)
(0.438035 0 0)
(0.439999 0 0)
(0.441964 0 0)
(0.443927 0 0)
(0.44589 0 0)
(0.447852 0 0)
(0.449814 0 0)
(0.451775 0 0)
(0.453736 0 0)
(0.455696 0 0)
(0.457655 0 0)
(0.459613 0 0)
(0.461571 0 0)
(0.463529 0 0)
(0.465485 0 0)
(0.467441 0 0)
(0.469397 0 0)
(0.471351 0 0)
(0.473305 0 0)
(0.475259 0 0)
(0.477211 0 0)
(0.479163 0 0)
(0.481115 0 0)
(0.483065 0 0)
(0.485015 0 0)
(0.486964 0 0)
(0.488913 0 0)
(0.490861 0 0)
(0.492808 0 0)
(0.494754 0 0)
(0.4967 0 0)
(0.498645 0 0)
(0.500589 0 0)
(0.502532 0 0)
(0.504475 0 0)
(0.506417 0 0)
(0.508358 0 0)
(0.510299 0 0)
(0.512238 0 0)
(0.514177 0 0)
(0.516115 0 0)
(0.518053 0 0)
(0.519989 0 0)
(0.521925 0 0)
(0.52386 0 0)
(0.525794 0 0)
(0.527728 0 0)
(0.52966 0 0)
(0.531592 0 0)
(0.533523 0 0)
(0.535453 0 0)
(0.537382 0 0)
(0.539311 0 0)
(0.541238 0 0)
(0.543165 0 0)
(0.545091 0 0)
(0.547016 0 0)
(0.54894 0 0)
(0.550863 0 0)
(0.552786 0 0)
(0.554707 0 0)
(0.556628 0 0)
(0.558548 0 0)
(0.560467 0 0)
(0.562385 0 0)
(0.564302 0 0)
(0.566218 0 0)
(0.568133 0 0)
(0.570047 0 0)
(0.571961 0 0)
(0.573873 0 0)
(0.575784 0 0)
(0.577695 0 0)
(0.579604 0 0)
(0.581513 0 0)
(0.58342 0 0)
(0.585327 0 0)
(0.587233 0 0)
(0.589137 0 0)
(0.591041 0 0)
(0.592943 0 0)
(0.594845 0 0)
(0.596745 0 0)
(0.598645 0 0)
(0.600543 0 0)
(0.602441 0 0)
(0.604337 0 0)
(0.606232 0 0)
(0.608127 0 0)
(0.61002 0 0)
(0.611912 0 0)
(0.613803 0 0)
(0.615693 0 0)
(0.617581 0 0)
(0.619469 0 0)
(0.621356 0 0)
(0.623241 0 0)
(0.625125 0 0)
(0.627008 0 0)
(0.62889 0 0)
(0.630771 0 0)
(0.632651 0 0)
(0.634529 0 0)
(0.636407 0 0)
(0.638283 0 0)
(0.640158 0 0)
(0.642031 0 0)
(0.643904 0 0)
(0.645775 0 0)
(0.647645 0 0)
(0.649513 0 0)
(0.651381 0 0)
(0.653247 0 0)
(0.655112 0 0)
(0.656976 0 0)
(0.658838 0 0)
(0.660699 0 0)
(0.662559 0 0)
(0.664417 0 0)
(0.666274 0 0)
(0.66813 0 0)
(0.669984 0 0)
(0.671837 0 0)
(0.673689 0 0)
(0.675539 0 0)
(0.677388 0 0)
(0.679236 0 0)
(0.681082 0 0)
(0.682926 0 0)
(0.68477 0 0)
(0.686611 0 0)
(0.688452 0 0)
(0.69029 0 0)
(0.692128 0 0)
(0.693964 0 0)
(0.695798 0 0)
(0.697631 0 0)
(0.699462 0 0)
(0.701292 0 0)
(0.70312 0 0)
(0.704947 0 0)
(0.706772 0 0)
(0.708595 0 0)
(0.710417 0 0)
(0.712238 0 0)
(0.714056 0 0)
(0.715873 0 0)
(0.717689 0 0)
(0.719502 0 0)
(0.721314 0 0)
(0.723125 0 0)
(0.724934 0 0)
(0.72674 0 0)
(0.728546 0 0)
(0.730349 0 0)
(0.732151 0 0)
(0.733951 0 0)
(0.735749 0 0)
(0.737545 0 0)
(0.73934 0 0)
(0.741132 0 0)
(0.742923 0 0)
(0.744712 0 0)
(0.746499 0 0)
(0.748285 0 0)
(0.750068 0 0)
(0.751849 0 0)
(0.753629 0 0)
(0.755406 0 0)
(0.757182 0 0)
(0.758955 0 0)
(0.760727 0 0)
(0.762496 0 0)
(0.764264 0 0)
(0.766029 0 0)
(0.767792 0 0)
(0.769553 0 0)
(0.771312 0 0)
(0.773057 0 0)
(0.774121 0 0)
(0.74175 0 0)
(0.379883 0 0)
(-0.378673 0 0)
(-0.741537 0 0)
(-0.774113 0 0)
(-0.773055 0 0)
(-0.77131 0 0)
(-0.769551 0 0)
(-0.76779 0 0)
(-0.766026 0 0)
(-0.764261 0 0)
(-0.762494 0 0)
(-0.760724 0 0)
(-0.758953 0 0)
(-0.757179 0 0)
(-0.755404 0 0)
(-0.753626 0 0)
(-0.751847 0 0)
(-0.750066 0 0)
(-0.748282 0 0)
(-0.746497 0 0)
(-0.74471 0 0)
(-0.742921 0 0)
(-0.74113 0 0)
(-0.739337 0 0)
(-0.737543 0 0)
(-0.735747 0 0)
(-0.733948 0 0)
(-0.732149 0 0)
(-0.730347 0 0)
(-0.728543 0 0)
(-0.726738 0 0)
(-0.724931 0 0)
(-0.723123 0 0)
(-0.721312 0 0)
(-0.7195 0 0)
(-0.717686 0 0)
(-0.715871 0 0)
(-0.714054 0 0)
(-0.712235 0 0)
(-0.710415 0 0)
(-0.708593 0 0)
(-0.70677 0 0)
(-0.704945 0 0)
(-0.703118 0 0)
(-0.70129 0 0)
(-0.69946 0 0)
(-0.697629 0 0)
(-0.695796 0 0)
(-0.693961 0 0)
(-0.692126 0 0)
(-0.690288 0 0)
(-0.688449 0 0)
(-0.686609 0 0)
(-0.684767 0 0)
(-0.682924 0 0)
(-0.68108 0 0)
(-0.679234 0 0)
(-0.677386 0 0)
(-0.675537 0 0)
(-0.673687 0 0)
(-0.671835 0 0)
(-0.669982 0 0)
(-0.668128 0 0)
(-0.666272 0 0)
(-0.664415 0 0)
(-0.662557 0 0)
(-0.660697 0 0)
(-0.658836 0 0)
(-0.656974 0 0)
(-0.65511 0 0)
(-0.653245 0 0)
(-0.651379 0 0)
(-0.649511 0 0)
(-0.647643 0 0)
(-0.645773 0 0)
(-0.643902 0 0)
(-0.642029 0 0)
(-0.640156 0 0)
(-0.638281 0 0)
(-0.636405 0 0)
(-0.634527 0 0)
(-0.632649 0 0)
(-0.630769 0 0)
(-0.628888 0 0)
(-0.627007 0 0)
(-0.625123 0 0)
(-0.623239 0 0)
(-0.621354 0 0)
(-0.619467 0 0)
(-0.61758 0 0)
(-0.615691 0 0)
(-0.613801 0 0)
(-0.61191 0 0)
(-0.610018 0 0)
(-0.608125 0 0)
(-0.606231 0 0)
(-0.604335 0 0)
(-0.602439 0 0)
(-0.600542 0 0)
(-0.598643 0 0)
(-0.596744 0 0)
(-0.594843 0 0)
(-0.592942 0 0)
(-0.591039 0 0)
(-0.589135 0 0)
(-0.587231 0 0)
(-0.585325 0 0)
(-0.583419 0 0)
(-0.581511 0 0)
(-0.579603 0 0)
(-0.577693 0 0)
(-0.575783 0 0)
(-0.573871 0 0)
(-0.571959 0 0)
(-0.570046 0 0)
(-0.568131 0 0)
(-0.566216 0 0)
(-0.5643 0 0)
(-0.562383 0 0)
(-0.560465 0 0)
(-0.558546 0 0)
(-0.556626 0 0)
(-0.554706 0 0)
(-0.552784 0 0)
(-0.550862 0 0)
(-0.548939 0 0)
(-0.547014 0 0)
(-0.545089 0 0)
(-0.543163 0 0)
(-0.541237 0 0)
(-0.539309 0 0)
(-0.537381 0 0)
(-0.535451 0 0)
(-0.533521 0 0)
(-0.53159 0 0)
(-0.529659 0 0)
(-0.527726 0 0)
(-0.525793 0 0)
(-0.523859 0 0)
(-0.521924 0 0)
(-0.519988 0 0)
(-0.518051 0 0)
(-0.516114 0 0)
(-0.514176 0 0)
(-0.512237 0 0)
(-0.510297 0 0)
(-0.508357 0 0)
(-0.506416 0 0)
(-0.504474 0 0)
(-0.502531 0 0)
(-0.500587 0 0)
(-0.498643 0 0)
(-0.496698 0 0)
(-0.494753 0 0)
(-0.492806 0 0)
(-0.490859 0 0)
(-0.488912 0 0)
(-0.486963 0 0)
(-0.485014 0 0)
(-0.483064 0 0)
(-0.481113 0 0)
(-0.479162 0 0)
(-0.47721 0 0)
(-0.475257 0 0)
(-0.473304 0 0)
(-0.47135 0 0)
(-0.469396 0 0)
(-0.46744 0 0)
(-0.465484 0 0)
(-0.463528 0 0)
(-0.46157 0 0)
(-0.459612 0 0)
(-0.457654 0 0)
(-0.455695 0 0)
(-0.453735 0 0)
(-0.451774 0 0)
(-0.449813 0 0)
(-0.447851 0 0)
(-0.445889 0 0)
(-0.443926 0 0)
(-0.441962 0 0)
(-0.439998 0 0)
(-0.438034 0 0)
(-0.436068 0 0)
(-0.434102 0 0)
(-0.432136 0 0)
(-0.430169 0 0)
(-0.428201 0 0)
(-0.426233 0 0)
(-0.424264 0 0)
(-0.422294 0 0)
(-0.420324 0 0)
(-0.418354 0 0)
(-0.416383 0 0)
(-0.414411 0 0)
(-0.412439 0 0)
(-0.410466 0 0)
(-0.408493 0 0)
(-0.406519 0 0)
(-0.404545 0 0)
(-0.40257 0 0)
(-0.400594 0 0)
(-0.398618 0 0)
(-0.396642 0 0)
(-0.394665 0 0)
(-0.392687 0 0)
(-0.390709 0 0)
(-0.388731 0 0)
(-0.386752 0 0)
(-0.384772 0 0)
(-0.382792 0 0)
(-0.380812 0 0)
(-0.378831 0 0)
(-0.37685 0 0)
(-0.374868 0 0)
(-0.372885 0 0)
(-0.370902 0 0)
(-0.368919 0 0)
(-0.366935 0 0)
(-0.364951 0 0)
(-0.362966 0 0)
(-0.360981 0 0)
(-0.358995 0 0)
(-0.357009 0 0)
(-0.355023 0 0)
(-0.353036 0 0)
(-0.351048 0 0)
(-0.34906 0 0)
(-0.347072 0 0)
(-0.345083 0 0)
(-0.343094 0 0)
(-0.341104 0 0)
(-0.339114 0 0)
(-0.337124 0 0)
(-0.335133 0 0)
(-0.333142 0 0)
(-0.33115 0 0)
(-0.329158 0 0)
(-0.327166 0 0)
(-0.325173 0 0)
(-0.323179 0 0)
(-0.321186 0 0)
(-0.319192 0 0)
(-0.317197 0 0)
(-0.315202 0 0)
(-0.313207 0 0)
(-0.311212 0 0)
(-0.309216 0 0)
(-0.307219 0 0)
(-0.305223 0 0)
(-0.303226 0 0)
(-0.301228 0 0)
(-0.29923 0 0)
(-0.297232 0 0)
(-0.295234 0 0)
(-0.293235 0 0)
(-0.291235 0 0)
(-0.289236 0 0)
(-0.287236 0 0)
(-0.285236 0 0)
(-0.283235 0 0)
(-0.281234 0 0)
(-0.279233 0 0)
(-0.277231 0 0)
(-0.27523 0 0)
(-0.273227 0 0)
(-0.271225 0 0)
(-0.269222 0 0)
(-0.267219 0 0)
(-0.265215 0 0)
(-0.263211 0 0)
(-0.261207 0 0)
(-0.259203 0 0)
(-0.257198 0 0)
(-0.255193 0 0)
(-0.253188 0 0)
(-0.251182 0 0)
(-0.249176 0 0)
(-0.24717 0 0)
(-0.245164 0 0)
(-0.243157 0 0)
(-0.24115 0 0)
(-0.239142 0 0)
(-0.237135 0 0)
(-0.235127 0 0)
(-0.233119 0 0)
(-0.23111 0 0)
(-0.229102 0 0)
(-0.227093 0 0)
(-0.225084 0 0)
(-0.223074 0 0)
(-0.221064 0 0)
(-0.219054 0 0)
(-0.217044 0 0)
(-0.215034 0 0)
(-0.213023 0 0)
(-0.211012 0 0)
(-0.209001 0 0)
(-0.206989 0 0)
(-0.204978 0 0)
(-0.202966 0 0)
(-0.200954 0 0)
(-0.198941 0 0)
(-0.196929 0 0)
(-0.194916 0 0)
(-0.192903 0 0)
(-0.19089 0 0)
(-0.188876 0 0)
(-0.186863 0 0)
(-0.184849 0 0)
(-0.182835 0 0)
(-0.180821 0 0)
(-0.178806 0 0)
(-0.176791 0 0)
(-0.174776 0 0)
(-0.172761 0 0)
(-0.170746 0 0)
(-0.168731 0 0)
(-0.166715 0 0)
(-0.164699 0 0)
(-0.162683 0 0)
(-0.160667 0 0)
(-0.158651 0 0)
(-0.156634 0 0)
(-0.154617 0 0)
(-0.1526 0 0)
(-0.150583 0 0)
(-0.148566 0 0)
(-0.146549 0 0)
(-0.144531 0 0)
(-0.142513 0 0)
(-0.140496 0 0)
(-0.138478 0 0)
(-0.136459 0 0)
(-0.134441 0 0)
(-0.132423 0 0)
(-0.130404 0 0)
(-0.128385 0 0)
(-0.126366 0 0)
(-0.124347 0 0)
(-0.122328 0 0)
(-0.120309 0 0)
(-0.118289 0 0)
(-0.11627 0 0)
(-0.11425 0 0)
(-0.11223 0 0)
(-0.11021 0 0)
(-0.10819 0 0)
(-0.10617 0 0)
(-0.10415 0 0)
(-0.102129 0 0)
(-0.100109 0 0)
(-0.0980879 0 0)
(-0.0960671 0 0)
(-0.0940463 0 0)
(-0.0920253 0 0)
(-0.0900042 0 0)
(-0.0879831 0 0)
(-0.0859618 0 0)
(-0.0839404 0 0)
(-0.081919 0 0)
(-0.0798975 0 0)
(-0.0778758 0 0)
(-0.0758541 0 0)
(-0.0738323 0 0)
(-0.0718105 0 0)
(-0.0697885 0 0)
(-0.0677665 0 0)
(-0.0657444 0 0)
(-0.0637222 0 0)
(-0.0617 0 0)
(-0.0596777 0 0)
(-0.0576553 0 0)
(-0.0556329 0 0)
(-0.0536104 0 0)
(-0.0515879 0 0)
(-0.0495653 0 0)
(-0.0475426 0 0)
(-0.0455199 0 0)
(-0.0434971 0 0)
(-0.0414743 0 0)
(-0.0394515 0 0)
(-0.0374286 0 0)
(-0.0354056 0 0)
(-0.0333827 0 0)
(-0.0313596 0 0)
(-0.0293366 0 0)
(-0.0273135 0 0)
(-0.0252904 0 0)
(-0.0232673 0 0)
(-0.0212441 0 0)
(-0.0192209 0 0)
(-0.0171977 0 0)
(-0.0151745 0 0)
(-0.0131513 0 0)
(-0.011128 0 0)
(-0.00910477 0 0)
(-0.0070815 0 0)
(-0.00505822 0 0)
(-0.00303493 0 0)
(-0.00101165 0 0)
)
;

boundaryField
{
    left
    {
        type            fixedValue;
        value           uniform (0 0 0);
    }
    right
    {
        type            fixedValue;
        value           uniform (0 0 0);
    }
    frontBackUpDown
    {
        type            empty;
    }
}


// ************************************************************************* //
