/*--------------------------------*- C++ -*----------------------------------*\
| =========                 |                                                 |
| \\      /  F ield         | OpenFOAM: The Open Source CFD Toolbox           |
|  \\    /   O peration     | Version:  2412                                  |
|   \\  /    A nd           | Website:  www.openfoam.com                      |
|    \\/     M anipulation  |                                                 |
\*---------------------------------------------------------------------------*/
FoamFile
{
    version     2.0;
    format      ascii;
    arch        "LSB;label=32;scalar=64";
    class       volVectorField;
    location    "0.92";
    object      U_0_0;
}
// * * * * * * * * * * * * * * * * * * * * * * * * * * * * * * * * * * * * * //

dimensions      [0 1 -1 0 0 0 0];

internalField   nonuniform List<vector> 
800
(
(0.00101123 0 0)
(0.0030337 0 0)
(0.00505617 0 0)
(0.00707864 0 0)
(0.00910109 0 0)
(0.0111235 0 0)
(0.013146 0 0)
(0.0151684 0 0)
(0.0171908 0 0)
(0.0192132 0 0)
(0.0212356 0 0)
(0.0232579 0 0)
(0.0252802 0 0)
(0.0273025 0 0)
(0.0293248 0 0)
(0.031347 0 0)
(0.0333692 0 0)
(0.0353913 0 0)
(0.0374135 0 0)
(0.0394355 0 0)
(0.0414576 0 0)
(0.0434796 0 0)
(0.0455015 0 0)
(0.0475234 0 0)
(0.0495453 0 0)
(0.0515671 0 0)
(0.0535888 0 0)
(0.0556105 0 0)
(0.0576321 0 0)
(0.0596536 0 0)
(0.0616751 0 0)
(0.0636966 0 0)
(0.0657179 0 0)
(0.0677392 0 0)
(0.0697604 0 0)
(0.0717815 0 0)
(0.0738026 0 0)
(0.0758236 0 0)
(0.0778445 0 0)
(0.0798653 0 0)
(0.081886 0 0)
(0.0839066 0 0)
(0.0859272 0 0)
(0.0879476 0 0)
(0.089968 0 0)
(0.0919882 0 0)
(0.0940084 0 0)
(0.0960285 0 0)
(0.0980484 0 0)
(0.100068 0 0)
(0.102088 0 0)
(0.104108 0 0)
(0.106127 0 0)
(0.108147 0 0)
(0.110166 0 0)
(0.112185 0 0)
(0.114204 0 0)
(0.116223 0 0)
(0.118242 0 0)
(0.12026 0 0)
(0.122279 0 0)
(0.124297 0 0)
(0.126315 0 0)
(0.128334 0 0)
(0.130352 0 0)
(0.132369 0 0)
(0.134387 0 0)
(0.136405 0 0)
(0.138422 0 0)
(0.140439 0 0)
(0.142456 0 0)
(0.144473 0 0)
(0.14649 0 0)
(0.148506 0 0)
(0.150523 0 0)
(0.152539 0 0)
(0.154555 0 0)
(0.156571 0 0)
(0.158587 0 0)
(0.160603 0 0)
(0.162618 0 0)
(0.164633 0 0)
(0.166648 0 0)
(0.168663 0 0)
(0.170678 0 0)
(0.172692 0 0)
(0.174706 0 0)
(0.17672 0 0)
(0.178734 0 0)
(0.180748 0 0)
(0.182762 0 0)
(0.184775 0 0)
(0.186788 0 0)
(0.188801 0 0)
(0.190813 0 0)
(0.192826 0 0)
(0.194838 0 0)
(0.19685 0 0)
(0.198862 0 0)
(0.200873 0 0)
(0.202885 0 0)
(0.204896 0 0)
(0.206907 0 0)
(0.208917 0 0)
(0.210928 0 0)
(0.212938 0 0)
(0.214948 0 0)
(0.216957 0 0)
(0.218967 0 0)
(0.220976 0 0)
(0.222985 0 0)
(0.224994 0 0)
(0.227002 0 0)
(0.22901 0 0)
(0.231018 0 0)
(0.233026 0 0)
(0.235033 0 0)
(0.23704 0 0)
(0.239047 0 0)
(0.241053 0 0)
(0.24306 0 0)
(0.245066 0 0)
(0.247071 0 0)
(0.249077 0 0)
(0.251082 0 0)
(0.253087 0 0)
(0.255091 0 0)
(0.257096 0 0)
(0.2591 0 0)
(0.261103 0 0)
(0.263107 0 0)
(0.26511 0 0)
(0.267112 0 0)
(0.269115 0 0)
(0.271117 0 0)
(0.273119 0 0)
(0.27512 0 0)
(0.277121 0 0)
(0.279122 0 0)
(0.281122 0 0)
(0.283123 0 0)
(0.285122 0 0)
(0.287122 0 0)
(0.289121 0 0)
(0.29112 0 0)
(0.293118 0 0)
(0.295116 0 0)
(0.297114 0 0)
(0.299112 0 0)
(0.301109 0 0)
(0.303105 0 0)
(0.305102 0 0)
(0.307097 0 0)
(0.309093 0 0)
(0.311088 0 0)
(0.313083 0 0)
(0.315078 0 0)
(0.317072 0 0)
(0.319065 0 0)
(0.321059 0 0)
(0.323052 0 0)
(0.325044 0 0)
(0.327036 0 0)
(0.329028 0 0)
(0.331019 0 0)
(0.33301 0 0)
(0.335001 0 0)
(0.336991 0 0)
(0.33898 0 0)
(0.34097 0 0)
(0.342959 0 0)
(0.344947 0 0)
(0.346935 0 0)
(0.348922 0 0)
(0.35091 0 0)
(0.352896 0 0)
(0.354883 0 0)
(0.356868 0 0)
(0.358854 0 0)
(0.360839 0 0)
(0.362823 0 0)
(0.364807 0 0)
(0.366791 0 0)
(0.368774 0 0)
(0.370756 0 0)
(0.372739 0 0)
(0.37472 0 0)
(0.376701 0 0)
(0.378682 0 0)
(0.380662 0 0)
(0.382642 0 0)
(0.384621 0 0)
(0.3866 0 0)
(0.388578 0 0)
(0.390556 0 0)
(0.392533 0 0)
(0.39451 0 0)
(0.396486 0 0)
(0.398462 0 0)
(0.400437 0 0)
(0.402412 0 0)
(0.404386 0 0)
(0.40636 0 0)
(0.408333 0 0)
(0.410305 0 0)
(0.412278 0 0)
(0.414249 0 0)
(0.41622 0 0)
(0.41819 0 0)
(0.42016 0 0)
(0.422129 0 0)
(0.424098 0 0)
(0.426066 0 0)
(0.428034 0 0)
(0.430001 0 0)
(0.431967 0 0)
(0.433933 0 0)
(0.435898 0 0)
(0.437863 0 0)
(0.439827 0 0)
(0.44179 0 0)
(0.443753 0 0)
(0.445716 0 0)
(0.447677 0 0)
(0.449638 0 0)
(0.451599 0 0)
(0.453558 0 0)
(0.455517 0 0)
(0.457476 0 0)
(0.459434 0 0)
(0.461391 0 0)
(0.463348 0 0)
(0.465304 0 0)
(0.467259 0 0)
(0.469214 0 0)
(0.471168 0 0)
(0.473121 0 0)
(0.475074 0 0)
(0.477025 0 0)
(0.478977 0 0)
(0.480927 0 0)
(0.482877 0 0)
(0.484826 0 0)
(0.486775 0 0)
(0.488723 0 0)
(0.49067 0 0)
(0.492616 0 0)
(0.494562 0 0)
(0.496507 0 0)
(0.498451 0 0)
(0.500395 0 0)
(0.502337 0 0)
(0.504279 0 0)
(0.506221 0 0)
(0.508161 0 0)
(0.510101 0 0)
(0.51204 0 0)
(0.513978 0 0)
(0.515916 0 0)
(0.517852 0 0)
(0.519788 0 0)
(0.521723 0 0)
(0.523658 0 0)
(0.525591 0 0)
(0.527524 0 0)
(0.529456 0 0)
(0.531387 0 0)
(0.533317 0 0)
(0.535247 0 0)
(0.537175 0 0)
(0.539103 0 0)
(0.54103 0 0)
(0.542956 0 0)
(0.544882 0 0)
(0.546806 0 0)
(0.548729 0 0)
(0.550652 0 0)
(0.552574 0 0)
(0.554495 0 0)
(0.556415 0 0)
(0.558334 0 0)
(0.560252 0 0)
(0.562169 0 0)
(0.564086 0 0)
(0.566001 0 0)
(0.567916 0 0)
(0.56983 0 0)
(0.571742 0 0)
(0.573654 0 0)
(0.575565 0 0)
(0.577475 0 0)
(0.579384 0 0)
(0.581291 0 0)
(0.583198 0 0)
(0.585104 0 0)
(0.587009 0 0)
(0.588913 0 0)
(0.590816 0 0)
(0.592718 0 0)
(0.594619 0 0)
(0.596519 0 0)
(0.598418 0 0)
(0.600316 0 0)
(0.602213 0 0)
(0.604108 0 0)
(0.606003 0 0)
(0.607897 0 0)
(0.609789 0 0)
(0.611681 0 0)
(0.613571 0 0)
(0.615461 0 0)
(0.617349 0 0)
(0.619236 0 0)
(0.621122 0 0)
(0.623007 0 0)
(0.62489 0 0)
(0.626773 0 0)
(0.628654 0 0)
(0.630534 0 0)
(0.632414 0 0)
(0.634291 0 0)
(0.636168 0 0)
(0.638044 0 0)
(0.639918 0 0)
(0.641791 0 0)
(0.643663 0 0)
(0.645534 0 0)
(0.647403 0 0)
(0.649271 0 0)
(0.651138 0 0)
(0.653004 0 0)
(0.654868 0 0)
(0.656731 0 0)
(0.658593 0 0)
(0.660454 0 0)
(0.662313 0 0)
(0.664171 0 0)
(0.666027 0 0)
(0.667883 0 0)
(0.669737 0 0)
(0.671589 0 0)
(0.67344 0 0)
(0.67529 0 0)
(0.677138 0 0)
(0.678985 0 0)
(0.680831 0 0)
(0.682675 0 0)
(0.684518 0 0)
(0.686359 0 0)
(0.688199 0 0)
(0.690037 0 0)
(0.691874 0 0)
(0.693709 0 0)
(0.695543 0 0)
(0.697376 0 0)
(0.699207 0 0)
(0.701036 0 0)
(0.702864 0 0)
(0.70469 0 0)
(0.706514 0 0)
(0.708338 0 0)
(0.710159 0 0)
(0.711979 0 0)
(0.713797 0 0)
(0.715614 0 0)
(0.717429 0 0)
(0.719242 0 0)
(0.721054 0 0)
(0.722864 0 0)
(0.724672 0 0)
(0.726478 0 0)
(0.728283 0 0)
(0.730086 0 0)
(0.731888 0 0)
(0.733687 0 0)
(0.735485 0 0)
(0.737281 0 0)
(0.739075 0 0)
(0.740867 0 0)
(0.742658 0 0)
(0.744446 0 0)
(0.746233 0 0)
(0.748018 0 0)
(0.749801 0 0)
(0.751582 0 0)
(0.753361 0 0)
(0.755138 0 0)
(0.756913 0 0)
(0.758687 0 0)
(0.760458 0 0)
(0.762227 0 0)
(0.763994 0 0)
(0.765759 0 0)
(0.767522 0 0)
(0.769283 0 0)
(0.771041 0 0)
(0.772786 0 0)
(0.773842 0 0)
(0.741393 0 0)
(0.379618 0 0)
(-0.378407 0 0)
(-0.74118 0 0)
(-0.773834 0 0)
(-0.772783 0 0)
(-0.771039 0 0)
(-0.76928 0 0)
(-0.76752 0 0)
(-0.765757 0 0)
(-0.763992 0 0)
(-0.762224 0 0)
(-0.760455 0 0)
(-0.758684 0 0)
(-0.756911 0 0)
(-0.755136 0 0)
(-0.753359 0 0)
(-0.75158 0 0)
(-0.749799 0 0)
(-0.748016 0 0)
(-0.746231 0 0)
(-0.744444 0 0)
(-0.742655 0 0)
(-0.740865 0 0)
(-0.739073 0 0)
(-0.737279 0 0)
(-0.735483 0 0)
(-0.733685 0 0)
(-0.731885 0 0)
(-0.730084 0 0)
(-0.728281 0 0)
(-0.726476 0 0)
(-0.72467 0 0)
(-0.722861 0 0)
(-0.721051 0 0)
(-0.71924 0 0)
(-0.717426 0 0)
(-0.715611 0 0)
(-0.713795 0 0)
(-0.711977 0 0)
(-0.710157 0 0)
(-0.708335 0 0)
(-0.706512 0 0)
(-0.704688 0 0)
(-0.702861 0 0)
(-0.701034 0 0)
(-0.699204 0 0)
(-0.697373 0 0)
(-0.695541 0 0)
(-0.693707 0 0)
(-0.691872 0 0)
(-0.690035 0 0)
(-0.688197 0 0)
(-0.686357 0 0)
(-0.684516 0 0)
(-0.682673 0 0)
(-0.680829 0 0)
(-0.678983 0 0)
(-0.677136 0 0)
(-0.675288 0 0)
(-0.673438 0 0)
(-0.671587 0 0)
(-0.669734 0 0)
(-0.667881 0 0)
(-0.666025 0 0)
(-0.664169 0 0)
(-0.662311 0 0)
(-0.660452 0 0)
(-0.658591 0 0)
(-0.656729 0 0)
(-0.654866 0 0)
(-0.653002 0 0)
(-0.651136 0 0)
(-0.649269 0 0)
(-0.647401 0 0)
(-0.645532 0 0)
(-0.643661 0 0)
(-0.641789 0 0)
(-0.639916 0 0)
(-0.638042 0 0)
(-0.636166 0 0)
(-0.63429 0 0)
(-0.632412 0 0)
(-0.630533 0 0)
(-0.628652 0 0)
(-0.626771 0 0)
(-0.624888 0 0)
(-0.623005 0 0)
(-0.62112 0 0)
(-0.619234 0 0)
(-0.617347 0 0)
(-0.615459 0 0)
(-0.613569 0 0)
(-0.611679 0 0)
(-0.609787 0 0)
(-0.607895 0 0)
(-0.606001 0 0)
(-0.604107 0 0)
(-0.602211 0 0)
(-0.600314 0 0)
(-0.598416 0 0)
(-0.596517 0 0)
(-0.594617 0 0)
(-0.592716 0 0)
(-0.590815 0 0)
(-0.588912 0 0)
(-0.587008 0 0)
(-0.585103 0 0)
(-0.583197 0 0)
(-0.58129 0 0)
(-0.579382 0 0)
(-0.577473 0 0)
(-0.575563 0 0)
(-0.573652 0 0)
(-0.571741 0 0)
(-0.569828 0 0)
(-0.567914 0 0)
(-0.566 0 0)
(-0.564084 0 0)
(-0.562168 0 0)
(-0.560251 0 0)
(-0.558332 0 0)
(-0.556413 0 0)
(-0.554493 0 0)
(-0.552572 0 0)
(-0.55065 0 0)
(-0.548728 0 0)
(-0.546804 0 0)
(-0.54488 0 0)
(-0.542955 0 0)
(-0.541029 0 0)
(-0.539102 0 0)
(-0.537174 0 0)
(-0.535245 0 0)
(-0.533316 0 0)
(-0.531386 0 0)
(-0.529454 0 0)
(-0.527523 0 0)
(-0.52559 0 0)
(-0.523656 0 0)
(-0.521722 0 0)
(-0.519787 0 0)
(-0.517851 0 0)
(-0.515914 0 0)
(-0.513977 0 0)
(-0.512039 0 0)
(-0.5101 0 0)
(-0.50816 0 0)
(-0.506219 0 0)
(-0.504278 0 0)
(-0.502336 0 0)
(-0.500393 0 0)
(-0.49845 0 0)
(-0.496506 0 0)
(-0.494561 0 0)
(-0.492615 0 0)
(-0.490669 0 0)
(-0.488722 0 0)
(-0.486774 0 0)
(-0.484825 0 0)
(-0.482876 0 0)
(-0.480926 0 0)
(-0.478976 0 0)
(-0.477024 0 0)
(-0.475072 0 0)
(-0.47312 0 0)
(-0.471166 0 0)
(-0.469212 0 0)
(-0.467258 0 0)
(-0.465302 0 0)
(-0.463347 0 0)
(-0.46139 0 0)
(-0.459433 0 0)
(-0.457475 0 0)
(-0.455516 0 0)
(-0.453557 0 0)
(-0.451597 0 0)
(-0.449637 0 0)
(-0.447676 0 0)
(-0.445714 0 0)
(-0.443752 0 0)
(-0.441789 0 0)
(-0.439826 0 0)
(-0.437862 0 0)
(-0.435897 0 0)
(-0.433932 0 0)
(-0.431966 0 0)
(-0.43 0 0)
(-0.428033 0 0)
(-0.426065 0 0)
(-0.424097 0 0)
(-0.422128 0 0)
(-0.420159 0 0)
(-0.418189 0 0)
(-0.416219 0 0)
(-0.414248 0 0)
(-0.412277 0 0)
(-0.410305 0 0)
(-0.408332 0 0)
(-0.406359 0 0)
(-0.404385 0 0)
(-0.402411 0 0)
(-0.400436 0 0)
(-0.398461 0 0)
(-0.396486 0 0)
(-0.394509 0 0)
(-0.392533 0 0)
(-0.390555 0 0)
(-0.388578 0 0)
(-0.386599 0 0)
(-0.384621 0 0)
(-0.382641 0 0)
(-0.380662 0 0)
(-0.378681 0 0)
(-0.376701 0 0)
(-0.374719 0 0)
(-0.372738 0 0)
(-0.370756 0 0)
(-0.368773 0 0)
(-0.36679 0 0)
(-0.364806 0 0)
(-0.362822 0 0)
(-0.360838 0 0)
(-0.358853 0 0)
(-0.356868 0 0)
(-0.354882 0 0)
(-0.352896 0 0)
(-0.350909 0 0)
(-0.348922 0 0)
(-0.346934 0 0)
(-0.344946 0 0)
(-0.342958 0 0)
(-0.340969 0 0)
(-0.33898 0 0)
(-0.33699 0 0)
(-0.335 0 0)
(-0.333009 0 0)
(-0.331019 0 0)
(-0.329027 0 0)
(-0.327036 0 0)
(-0.325043 0 0)
(-0.323051 0 0)
(-0.321058 0 0)
(-0.319065 0 0)
(-0.317071 0 0)
(-0.315077 0 0)
(-0.313083 0 0)
(-0.311088 0 0)
(-0.309093 0 0)
(-0.307097 0 0)
(-0.305101 0 0)
(-0.303105 0 0)
(-0.301108 0 0)
(-0.299111 0 0)
(-0.297114 0 0)
(-0.295116 0 0)
(-0.293118 0 0)
(-0.291119 0 0)
(-0.289121 0 0)
(-0.287121 0 0)
(-0.285122 0 0)
(-0.283122 0 0)
(-0.281122 0 0)
(-0.279122 0 0)
(-0.277121 0 0)
(-0.27512 0 0)
(-0.273118 0 0)
(-0.271116 0 0)
(-0.269114 0 0)
(-0.267112 0 0)
(-0.265109 0 0)
(-0.263106 0 0)
(-0.261103 0 0)
(-0.259099 0 0)
(-0.257095 0 0)
(-0.255091 0 0)
(-0.253086 0 0)
(-0.251082 0 0)
(-0.249076 0 0)
(-0.247071 0 0)
(-0.245065 0 0)
(-0.243059 0 0)
(-0.241053 0 0)
(-0.239047 0 0)
(-0.23704 0 0)
(-0.235033 0 0)
(-0.233025 0 0)
(-0.231018 0 0)
(-0.22901 0 0)
(-0.227002 0 0)
(-0.224993 0 0)
(-0.222985 0 0)
(-0.220976 0 0)
(-0.218967 0 0)
(-0.216957 0 0)
(-0.214947 0 0)
(-0.212938 0 0)
(-0.210927 0 0)
(-0.208917 0 0)
(-0.206906 0 0)
(-0.204896 0 0)
(-0.202884 0 0)
(-0.200873 0 0)
(-0.198862 0 0)
(-0.19685 0 0)
(-0.194838 0 0)
(-0.192826 0 0)
(-0.190813 0 0)
(-0.188801 0 0)
(-0.186788 0 0)
(-0.184775 0 0)
(-0.182761 0 0)
(-0.180748 0 0)
(-0.178734 0 0)
(-0.17672 0 0)
(-0.174706 0 0)
(-0.172692 0 0)
(-0.170677 0 0)
(-0.168663 0 0)
(-0.166648 0 0)
(-0.164633 0 0)
(-0.162618 0 0)
(-0.160602 0 0)
(-0.158587 0 0)
(-0.156571 0 0)
(-0.154555 0 0)
(-0.152539 0 0)
(-0.150523 0 0)
(-0.148506 0 0)
(-0.14649 0 0)
(-0.144473 0 0)
(-0.142456 0 0)
(-0.140439 0 0)
(-0.138422 0 0)
(-0.136404 0 0)
(-0.134387 0 0)
(-0.132369 0 0)
(-0.130351 0 0)
(-0.128333 0 0)
(-0.126315 0 0)
(-0.124297 0 0)
(-0.122279 0 0)
(-0.12026 0 0)
(-0.118242 0 0)
(-0.116223 0 0)
(-0.114204 0 0)
(-0.112185 0 0)
(-0.110166 0 0)
(-0.108146 0 0)
(-0.106127 0 0)
(-0.104108 0 0)
(-0.102088 0 0)
(-0.100068 0 0)
(-0.0980483 0 0)
(-0.0960284 0 0)
(-0.0940083 0 0)
(-0.0919882 0 0)
(-0.0899679 0 0)
(-0.0879476 0 0)
(-0.0859271 0 0)
(-0.0839066 0 0)
(-0.081886 0 0)
(-0.0798652 0 0)
(-0.0778444 0 0)
(-0.0758235 0 0)
(-0.0738026 0 0)
(-0.0717815 0 0)
(-0.0697604 0 0)
(-0.0677392 0 0)
(-0.0657179 0 0)
(-0.0636965 0 0)
(-0.0616751 0 0)
(-0.0596536 0 0)
(-0.0576321 0 0)
(-0.0556105 0 0)
(-0.0535888 0 0)
(-0.051567 0 0)
(-0.0495453 0 0)
(-0.0475234 0 0)
(-0.0455015 0 0)
(-0.0434796 0 0)
(-0.0414576 0 0)
(-0.0394355 0 0)
(-0.0374135 0 0)
(-0.0353913 0 0)
(-0.0333692 0 0)
(-0.031347 0 0)
(-0.0293248 0 0)
(-0.0273025 0 0)
(-0.0252802 0 0)
(-0.0232579 0 0)
(-0.0212356 0 0)
(-0.0192132 0 0)
(-0.0171908 0 0)
(-0.0151684 0 0)
(-0.013146 0 0)
(-0.0111235 0 0)
(-0.0091011 0 0)
(-0.00707864 0 0)
(-0.00505618 0 0)
(-0.00303371 0 0)
(-0.00101124 0 0)
)
;

boundaryField
{
    left
    {
        type            fixedValue;
        value           uniform (0 0 0);
    }
    right
    {
        type            fixedValue;
        value           uniform (0 0 0);
    }
    frontBackUpDown
    {
        type            empty;
    }
}


// ************************************************************************* //
