/*--------------------------------*- C++ -*----------------------------------*\
| =========                 |                                                 |
| \\      /  F ield         | OpenFOAM: The Open Source CFD Toolbox           |
|  \\    /   O peration     | Version:  2412                                  |
|   \\  /    A nd           | Website:  www.openfoam.com                      |
|    \\/     M anipulation  |                                                 |
\*---------------------------------------------------------------------------*/
FoamFile
{
    version     2.0;
    format      ascii;
    arch        "LSB;label=32;scalar=64";
    class       volScalarField;
    location    "0";
    object      T;
}
// * * * * * * * * * * * * * * * * * * * * * * * * * * * * * * * * * * * * * //

dimensions      [0 0 0 1 0 0 0];

internalField   nonuniform List<scalar> 
1000
(
1.371824083303873e-14
1.609206663426406e-14
1.886911380126552e-14
2.211655437622458e-14
2.591252376562893e-14
3.034787185386361e-14
3.552818747893993e-14
4.157613791632514e-14
4.863417119805202e-14
5.686763616750412e-14
6.646838326036012e-14
7.765891825088665e-14
9.069719177099124e-14
1.058821194795972e-13
1.23559941538874e-13
1.441315457759727e-13
1.680608968395608e-13
1.958847341000464e-13
2.282237243306944e-13
2.65795281728143e-13
3.094282980191741e-13
3.600800597466439e-13
4.188556688844706e-13
4.870303273245441e-13
5.660748962113506e-13
6.576851983672073e-13
7.638155970463501e-13
8.867174579867373e-13
1.028983185327248e-12
1.193596616699267e-12
1.383990670118013e-12
1.60411325679898e-12
1.858502611516551e-12
2.152373347631675e-12
2.4917147197188e-12
2.883402775368635e-12
3.335328302088996e-12
3.856542728469724e-12
4.457424424501071e-12
5.14986816813983e-12
5.947500908382988e-12
6.865927364235869e-12
7.923009459635387e-12
9.139184112844631e-12
1.053782448202433e-11
1.21456504243628e-11
1.399319466294411e-11
1.61153319830739e-11
1.855187970876405e-11
2.134827875240876e-11
2.455636569959618e-11
2.823524770120035e-11
3.245229341270062e-11
3.728425486421485e-11
4.281853698407716e-11
4.915463355623133e-11
5.640575069190168e-11
6.470064146626346e-11
7.418567824137633e-11
8.502719240089086e-11
9.741411479690721e-11
1.115609541956436e-10
1.277111554512833e-10
1.461408840861732e-10
1.671632894651568e-10
1.9113330488264e-10
2.184530496993078e-10
2.495779062444363e-10
2.850233526197643e-10
3.253726418902669e-10
3.71285428522943e-10
4.235074544433386e-10
4.82881419837841e-10
5.50359177965821e-10
6.270154088996972e-10
7.140629444368706e-10
8.128699355925573e-10
9.249790752715936e-10
1.052129112130022e-09
1.196278917493824e-09
1.359634395740795e-09
1.544678560034628e-09
1.754205130009754e-09
1.991356046253631e-09
2.259663338554536e-09
2.563095831245292e-09
2.90611121997421e-09
3.293714110306092e-09
3.731520670168306e-09
4.225830615816925e-09
4.783707325259006e-09
5.413066954523295e-09
6.122777521472977e-09
6.922769019692733e-09
7.824155732119411e-09
8.839372031329833e-09
9.982323081632092e-09
1.126855199827327e-08
1.271542517219803e-08
1.434233763596687e-08
1.617094052884099e-08
1.822539291795247e-08
2.053264044923165e-08
2.312272353785232e-08
2.602911806491744e-08
2.928911182663372e-08
3.294422028609577e-08
3.704064550794334e-08
4.162978251460459e-08
4.676877769177936e-08
5.252114429258643e-08
5.895744054684629e-08
6.615601637697701e-08
7.420383525767738e-08
8.319737833602703e-08
9.324363855489317e-08
1.044612131990352e-07
1.169815040135189e-07
1.309500348317468e-07
1.465278974995569e-07
1.638933377965333e-07
1.832434940404139e-07
2.047963021197459e-07
2.287925818387064e-07
2.554983206813466e-07
2.852071724156533e-07
3.1824318936658e-07
3.549638086971308e-07
3.957631146541237e-07
4.410754004664113e-07
4.913790554350382e-07
5.472008047337439e-07
6.091203315515481e-07
6.777753134644236e-07
7.53866907327437e-07
8.381657195409629e-07
9.315183012715742e-07
1.034854211109383e-06
1.14919369072691e-06
1.27565600237878e-06
1.415468480555281e-06
1.569976353786438e-06
1.740653396493288e-06
1.929113474911959e-06
2.13712305548029e-06
2.366614748687569e-06
2.619701966253564e-06
2.898694774632932e-06
3.206117033244838e-06
3.54472491151359e-06
3.917526884783099e-06
4.327805315445001e-06
4.779139732204638e-06
5.27543192730887e-06
5.820932998781889e-06
6.420272472266484e-06
7.078489644953848e-06
7.801067302310826e-06
8.593967966882676e-06
9.463672847366076e-06
1.041722366541188e-05
1.146226754723216e-05
1.260710517704854e-05
1.386074241973023e-05
1.523294563062133e-05
1.673430088154548e-05
1.837627734329658e-05
2.017129507655817e-05
2.213279749513957e-05
2.42753287776531e-05
2.661461651626495e-05
2.916765990391847e-05
3.195282377442299e-05
3.498993882300121e-05
3.83004083482617e-05
4.19073218700763e-05
4.583557599146284e-05
5.011200288624759e-05
5.476550680798166e-05
5.982720902924332e-05
6.533060163403201e-05
7.131171059938146e-05
7.780926861553722e-05
8.486489810696466e-05
9.252330492903415e-05
0.0001008324832273671
0.0001098439319584352
0.0001196128835810244
0.0001301985454384374
0.0001416643543608326
0.0001540782450256141
0.000167512932621344
0.0001820462103670067
0.0001977612624435426
0.0002147469928982597
0.0002330983710848411
0.0002529167942021212
0.0002743104674934007
0.0002973948026646406
0.0003222928350743927
0.000349135660240387
0.0003780628901974262
0.0004092231302281789
0.0004427744764727033
0.0004788850349036896
0.0005177334621323912
0.0005595095284849118
0.0006044147037595522
0.0006526627660433524
0.0007044804339294009
0.0007601080224359065
0.0008198001228831402
0.00088382630693505
0.0009524718549584869
0.001026038508794287
0.001104845248970879
0.001189229096322468
0.001279545937899918
0.00137617137698345
0.001479501606921341
0.001589954308429019
0.001707969569886793
0.001834010830073158
0.001968565842663307
0.002112147661709396
0.002265295647200296
0.002428576489673987
0.002602585252725398
0.002787946432116438
0.002985315030053256
0.003195377643049271
0.003418853561639212
0.003656495880052893
0.003909092613794796
0.004177467822908131
0.004462482738531713
0.004765036890181779
0.005086069231012673
0.005426559258127904
0.005787528124828434
0.006170039741498039
0.006575201861636505
0.007004167149362398
0.00745813422451564
0.007938348681301378
0.008446104076226089
0.008982742880890902
0.009549657395020316
0.01014829061492445
0.01078013705241505
0.01144674349902204
0.0121497097301937
0.01289068914400142
0.01367138932872295
0.01449357255353146
0.01535905617639238
0.01626971296314387
0.01722747131163506
0.01823431537469869
0.01929228507565743
0.02040347601000175
0.02157003922682939
0.0227941808836122
0.02407816176784728
0.02542429667916096
0.02683495366547702
0.0283125531069069
0.02985956664111545
0.03147851592401213
0.03317197121975897
0.03494254981424576
0.0367929142463671
0.03872577035166428
0.04074386511313013
0.04284998431426087
0.04504694998974872
0.04733761766953671
0.04972487341234951
0.05221163062519421
0.05480082666577874
0.05749541922525794
0.06029838248920902
0.06321270307528874
0.06624137574656222
0.06938739890011698
0.07265376983117401
0.07604347977357839
0.07955950871822758
0.08320482001170681
0.08698235473813729
0.09089502588800048
0.09494571231849136
0.09913725251074722
0.1034724381301301
0.1079540073965823
0.1125846382729147
0.1173669414797754
0.1223034533469004
0.1273966285111472
0.1326488324726839
0.1380623340216108
0.1436392975481452
0.1493817752504182
0.1552916992547542
0.1613708736642043
0.1676209665518993
0.1740435019166363
0.1806398516188942
0.1874112273162287
0.1943586724177539
0.2014830540780793
0.2087850552517554
0.2162651668298868
0.2239236798811209
0.2317606780197484
0.2397760299241029
0.2479693820288506
0.2563401514150735
0.2648875189223586
0.2736104225072634
0.2825075508726796
0.2915773373926629
0.300817954357275
0.3102273075618546
0.3198030312649796
0.3295424835390772
0.3394427420372883
0.3495006001997559
0.3597125639219338
0.3700748487069247
0.3805833773231131
0.3912337779875495
0.4020213830946549
0.4129412285088171
0.4239880534383815
0.4351563009073557
0.4464401188399427
0.4578333617716143
0.4693295931991097
0.4809220885801864
0.4926038389924209
0.5043675554587189
0.5162056739454959
0.5281103610377278
0.540073520293253
0.5520867992768449
0.5641415972726789
0.5762290736717994
0.5883401570293135
0.6004655547839312
0.6125957636304773
0.6247210805339609
0.636831614371742
0.6489172981882293
0.6609679020445861
0.6729730464438328
0.684922216309752
0.6968047754960337
0.7086099818001758
0.7203270024547551
0.7319449300668612
0.743452798974751
0.754839601989007
0.766094307483966
0.7772058768035821
0.7881632819444517
0.7989555234774172
0.809571648667886
0.8200007697539078
0.830232082340008
0.8402548838639013
0.8500585920924471
0.8596327636025426
0.8689671122021951
0.8780515272466152
0.8868760918039535
0.8954311006252473
0.903707077873195
0.9116947945645899
0.9193852856815897
0.9267698669075555
0.9338401509437891
0.9405880633643416
0.9470058579669853
0.9530861315795488
0.9588218382820234
0.9642063030062364
0.969233234476344
0.9738967374550571
0.9781913242622371
0.9821119255343638
0.9856539001953456
0.9888130446112332
0.9915856009035504
0.9939682643982342
0.9959581901895134
0.9975529988004797
0.9987507809245808
0.9995501012348141
0.9999500012499791
0.9999500012499791
0.9995501012348141
0.998750780924581
0.9975529988004798
0.9959581901895134
0.9939682643982343
0.9915856009035505
0.988813044611233
0.9856539001953456
0.9821119255343638
0.9781913242622375
0.9738967374550573
0.9692332344763446
0.9642063030062368
0.9588218382820237
0.9530861315795485
0.947005857966986
0.9405880633643423
0.9338401509437891
0.9267698669075551
0.9193852856815905
0.9116947945645912
0.9037070778731968
0.8954311006252479
0.886876091803954
0.8780515272466166
0.8689671122021966
0.859632763602543
0.8500585920924475
0.8402548838639019
0.8302320823400087
0.820000769753909
0.8095716486678878
0.7989555234774184
0.7881632819444536
0.7772058768035833
0.7660943074839667
0.754839601989007
0.7434527989747522
0.7319449300668631
0.7203270024547558
0.7086099818001771
0.6968047754960357
0.6849222163097534
0.6729730464438348
0.6609679020445882
0.64891729818823
0.6368316143717434
0.6247210805339622
0.6125957636304773
0.6004655547839318
0.5883401570293149
0.5762290736717994
0.5641415972726809
0.5520867992768469
0.5400735202932523
0.5281103610377285
0.5162056739454971
0.5043675554587189
0.4926038389924222
0.4809220885801871
0.469329593199111
0.457833361771615
0.4464401188399427
0.4351563009073582
0.4239880534383821
0.4129412285088183
0.4020213830946543
0.3912337779875502
0.3805833773231143
0.370074848706927
0.3597125639219343
0.3495006001997576
0.33944274203729
0.3295424835390782
0.3198030312649813
0.3102273075618557
0.3008179543572755
0.2915773373926639
0.2825075508726801
0.2736104225072649
0.26488751892236
0.2563401514150749
0.247969382028851
0.2397760299241038
0.2317606780197488
0.2239236798811226
0.2162651668298884
0.2087850552517562
0.20148305407808
0.1943586724177555
0.1874112273162299
0.1806398516188946
0.174043501916637
0.1676209665519006
0.161370873664205
0.1552916992547549
0.1493817752504179
0.1436392975481461
0.1380623340216114
0.1326488324726842
0.1273966285111469
0.122303453346901
0.117366941479776
0.1125846382729153
0.1079540073965828
0.1034724381301308
0.0991372525107477
0.09494571231849204
0.09089502588800093
0.08698235473813751
0.08320482001170722
0.07955950871822796
0.07604347977357875
0.07265376983117472
0.06938739890011733
0.06624137574656222
0.06321270307528941
0.0602983824892095
0.05749541922525794
0.05480082666577858
0.05221163062519421
0.04972487341234978
0.04733761766953698
0.04504694998974859
0.04284998431426101
0.04074386511313002
0.03872577035166449
0.0367929142463672
0.03494254981424576
0.03317197121975897
0.03147851592401203
0.02985956664111563
0.0283125531069069
0.02683495366547695
0.02542429667916127
0.02407816176784735
0.02279418088361228
0.02157003922682947
0.02040347601000169
0.01929228507565755
0.01823431537469869
0.01722747131163517
0.01626971296314392
0.01535905617639252
0.01449357255353146
0.0136713893287229
0.0128906891440016
0.01214970973019374
0.01144674349902212
0.0107801370524151
0.01014829061492451
0.009549657395020334
0.008982742880890886
0.008446104076226073
0.007938348681301407
0.007458134224515692
0.007004167149362392
0.006575201861636552
0.006170039741498072
0.005787528124828434
0.005426559258127942
0.005086069231012714
0.004765036890181851
0.004462482738531805
0.004177467822908146
0.003909092613794803
0.003656495880052932
0.003418853561639239
0.003195377643049283
0.002985315030053286
0.002787946432116455
0.002602585252725449
0.002428576489674011
0.002265295647200318
0.002112147661709421
0.00196856584266333
0.001834010830073176
0.00170796956988681
0.001589954308429025
0.00147950160692136
0.001376171376983456
0.001279545937899926
0.001189229096322479
0.001104845248970902
0.00102603850879429
0.0009524718549584886
0.0008838263069350515
0.0008198001228831482
0.0007601080224359214
0.0007044804339294022
0.0006526627660433605
0.0006044147037595662
0.0005595095284849197
0.0005177334621323935
0.0004788850349036904
0.000442774476472708
0.0004092231302281789
0.0003780628901974269
0.0003491356602403907
0.0003222928350743927
0.0002973948026646443
0.0002743104674934036
0.0002529167942021243
0.0002330983710848452
0.0002147469928982616
0.0001977612624435443
0.0001820462103670099
0.0001675129326213457
0.0001540782450256158
0.0001416643543608359
0.000130198545438439
0.0001196128835810254
0.0001098439319584364
0.0001008324832273669
9.252330492903547e-05
8.486489810696586e-05
7.78092686155375e-05
7.131171059938158e-05
6.533060163403201e-05
5.98272090292447e-05
5.476550680798166e-05
5.011200288624803e-05
4.583557599146284e-05
4.190732187007674e-05
3.83004083482617e-05
3.498993882300133e-05
3.195282377442332e-05
2.916765990391873e-05
2.661461651626495e-05
2.42753287776528e-05
2.213279749513972e-05
2.017129507655835e-05
1.837627734329677e-05
1.673430088154548e-05
1.523294563062147e-05
1.386074241973038e-05
1.260710517704863e-05
1.146226754723227e-05
1.041722366541201e-05
9.463672847366042e-06
8.593967966882843e-06
7.801067302310909e-06
7.078489644953924e-06
6.420272472266473e-06
5.820932998781879e-06
5.275431927308917e-06
4.779139732204732e-06
4.327805315445039e-06
3.917526884783134e-06
3.54472491151359e-06
3.206117033244912e-06
2.898694774632963e-06
2.619701966253625e-06
2.366614748687569e-06
2.13712305548029e-06
1.929113474911986e-06
1.740653396493312e-06
1.569976353786474e-06
1.415468480555297e-06
1.275656002378757e-06
1.14919369072691e-06
1.034854211109372e-06
9.315183012715907e-07
8.381657195409718e-07
7.538669073274504e-07
6.777753134644128e-07
6.091203315515481e-07
5.472008047337546e-07
4.913790554350443e-07
4.410754004664113e-07
3.957631146541322e-07
3.549638086971383e-07
3.182431893665834e-07
2.852071724156502e-07
2.554983206813479e-07
2.287925818387076e-07
2.04796302119747e-07
1.832434940404159e-07
1.638933377965342e-07
1.465278974995579e-07
1.309500348317482e-07
1.169815040135182e-07
1.044612131990349e-07
9.324363855489383e-08
8.319737833602674e-08
7.42038352576787e-08
6.615601637697653e-08
5.895744054684608e-08
5.252114429258717e-08
4.676877769178019e-08
4.162978251460533e-08
3.704064550794453e-08
3.294422028609636e-08
2.928911182663434e-08
2.602911806491772e-08
2.312272353785248e-08
2.053264044923238e-08
1.822539291795286e-08
1.617094052884128e-08
1.434233763596687e-08
1.271542517219835e-08
1.126855199827327e-08
9.982323081632198e-09
8.83937203132999e-09
7.824155732119411e-09
6.922769019692807e-09
6.122777521473151e-09
5.413066954523372e-09
4.783707325259141e-09
4.225830615816941e-09
3.731520670168306e-09
3.293714110306092e-09
2.906111219974293e-09
2.563095831245366e-09
2.259663338554568e-09
1.991356046253659e-09
1.754205130009779e-09
1.544678560034628e-09
1.359634395740751e-09
1.196278917493841e-09
1.052129112130045e-09
9.249790752715936e-10
8.128699355925689e-10
7.140629444368809e-10
6.270154088996972e-10
5.50359177965821e-10
4.828814198378444e-10
4.235074544433386e-10
3.712854285229536e-10
3.253726418902669e-10
2.850233526197734e-10
2.495779062444434e-10
2.184530496993141e-10
1.9113330488264e-10
1.671632894651591e-10
1.461408840861732e-10
1.277111554512874e-10
1.115609541956468e-10
9.741411479691033e-11
8.502719240089086e-11
7.418567824137633e-11
6.470064146626346e-11
5.640575069190268e-11
4.915463355623133e-11
4.281853698407716e-11
3.728425486421552e-11
3.245229341270062e-11
2.823524770120035e-11
2.455636569959696e-11
2.134827875240906e-11
1.855187970876405e-11
1.611533198307419e-11
1.399319466294411e-11
1.214565042436297e-11
1.053782448202418e-11
9.13918411284476e-12
7.923009459635639e-12
6.865927364235869e-12
5.947500908382988e-12
5.14986816813983e-12
4.457424424501151e-12
3.856542728469779e-12
3.335328302089055e-12
2.883402775368635e-12
2.491714719718755e-12
2.152373347631675e-12
1.858502611516551e-12
1.60411325679898e-12
1.383990670118033e-12
1.193596616699306e-12
1.028983185327274e-12
8.867174579867278e-13
7.638155970463665e-13
6.57685198367198e-13
5.660748962113445e-13
4.870303273245389e-13
4.188556688844736e-13
3.600800597466477e-13
3.094282980191719e-13
2.657952817281487e-13
2.282237243306969e-13
1.958847341000471e-13
1.680608968395602e-13
1.441315457759743e-13
1.235599415388744e-13
1.058821194795995e-13
9.069719177099511e-14
7.76589182508861e-14
6.646838326036202e-14
5.686763616750574e-14
4.863417119805064e-14
4.15761379163247e-14
3.552818747894031e-14
3.034787185386447e-14
2.591252376562966e-14
2.211655437622481e-14
1.886911380126633e-14
1.609206663426361e-14
1.371824083303868e-14
1.168991372141695e-14
9.9575035731202e-15
8.478439358132721e-15
7.216184819643935e-15
6.139396177587754e-15
5.221195480417326e-15
4.438544000775023e-15
3.771702137447308e-15
3.203764084403218e-15
2.720257091868821e-15
2.308796504186826e-15
1.958788940773061e-15
1.661177012699755e-15
1.40821985830576e-15
1.193304554258735e-15
1.010784128925882e-15
8.558384861144482e-16
7.243550508414852e-16
6.128263849578657e-16
5.182623980238064e-16
4.381151055422764e-16
3.702141692146745e-16
3.127116981472697e-16
2.640350009970866e-16
2.228461613304501e-16
1.880074658280634e-16
1.585518507504431e-16
1.336576491831877e-16
1.126270225338908e-16
9.486754673981957e-17
7.987649856452151e-17
6.722745185729424e-17
5.655884914605533e-17
4.756426166538601e-17
3.998409195531893e-17
3.359850842574419e-17
2.822143156546219e-17
2.369541747340226e-17
1.988730669899179e-17
1.668452551353637e-17
1.39919431390981e-17
1.17292025188086e-17
9.828454253128457e-18
8.232433634993127e-18
6.892829538144117e-18
5.768901458349278e-18
4.82630745827946e-18
4.036111279710455e-18
3.373941595786409e-18
2.819280396648093e-18
2.354860932935908e-18
1.966158568556399e-18
1.640960389667041e-18
1.369001543666805e-18
1.141658093748917e-18
9.516877172455684e-19
7.930108889482029e-19
6.605263075206845e-19
5.499552728754057e-19
4.577105296082007e-19
3.807857773695391e-19
3.16662631392738e-19
2.632323106842283e-19
2.187297507329221e-19
1.816781932155052e-19
1.508426066108533e-19
1.251905470318458e-19
1.038592848701501e-19
8.612820593714847e-20
7.13956506964761e-20
5.915948619954672e-20
4.900081609024938e-20
4.057032763071401e-20
3.357685374255781e-20
2.777779478747666e-20
2.297110112030836e-20
1.898856494290979e-20
1.569021002978583e-20
1.295960164100552e-20
1.069992736230278e-20
8.830723544470573e-21
7.285142155251854e-21
6.007669799860425e-21
4.952224912531125e-21
4.080571094957825e-21
3.360994636291909e-21
2.76720269590202e-21
2.277405719653131e-21
1.873553608390396e-21
1.540700145240823e-21
1.266474369358436e-21
1.040641086821861e-21
8.547356431734754e-22
7.017605379887874e-22
5.759335168259655e-22
4.724784946156716e-22
3.874521013977736e-22
3.175998419890084e-22
2.602368640467454e-22
2.131491662964945e-22
1.745117774398812e-22
1.428210191294678e-22
1.168384523870498e-22
9.554451187749063e-23
7.810016986858128e-23
6.381525267104453e-23
5.212226620604167e-23
4.255478190312828e-23
3.472959592231315e-23
2.833200917859804e-23
2.310368738528051e-23
1.883265313030578e-23
1.534503903443645e-23
1.249829496065801e-23
1.017559526028811e-23
8.281235993689863e-24
6.736848485755696e-24
5.478285745498959e-24
4.453063257619052e-24
3.618256325869942e-24
2.938773248499038e-24
2.385937745733064e-24
1.936325745854751e-24
1.57081129116363e-24
1.273784297839293e-24
1.032509484592756e-24
8.366012146028227e-25
6.775934730503735e-25
5.485878938129975e-25
4.439657904107121e-25
3.59152651369465e-25
2.904256225091596e-25
2.347561957800312e-25
1.89681720231294e-25
1.532004984420325e-25
1.236861750018458e-25
9.981789849147918e-26
8.052337466936355e-26
6.49324507848742e-26
5.23392993676971e-26
4.21716211758787e-26
3.396557497104486e-26
2.734537774754753e-26
2.200671228834588e-26
1.770323711727184e-26
1.423562336585369e-26
1.144264895135102e-26
9.193967025366331e-27
7.384236392492357e-27
5.928359383121357e-27
4.757619846032137e-27
3.816552433661777e-27
3.060405767218269e-27
2.45308768543294e-27
1.965501660768495e-27
1.574200478734842e-27
1.260297130272431e-27
1.00858414511297e-27
8.068217707762527e-28
6.451628656602808e-28
5.1568844265537e-28
4.120327307744633e-28
3.290806277274959e-28
2.627236685313902e-28
2.096632746625491e-28
1.6725218945282e-28
1.33366741702281e-28
1.063039868002941e-28
8.469891484439128e-29
6.745783862889757e-29
5.370482184853314e-29
4.273861267914264e-29
3.399803707364237e-29
2.703420158679497e-29
2.148817512878445e-29
1.707307719629607e-29
1.355970856224378e-29
1.07650286242278e-29
8.542919317315425e-30
6.776784926287044e-30
5.373625335782486e-30
4.259291320794245e-30
3.374687710501159e-30
2.67273632867791e-30
2.115947684293186e-30
1.674480201782226e-30
1.324589751281752e-30
1.047391502434465e-30
8.278715990951614e-31
6.540985765729383e-31
5.165944146242747e-31
4.078331190532586e-31
3.218411396895994e-31
2.538790744479425e-31
2.001882289709234e-31
1.577889008001823e-31
1.243198983291821e-31
9.791091834503883e-32
7.70810964906413e-32
6.06583965676969e-32
)
;

boundaryField
{
    left
    {
        type            cyclic;
    }
    right
    {
        type            cyclic;
    }
    frontBackUpDown
    {
        type            empty;
    }
}


// ************************************************************************* //
