/*--------------------------------*- C++ -*----------------------------------*\
| =========                 |                                                 |
| \\      /  F ield         | OpenFOAM: The Open Source CFD Toolbox           |
|  \\    /   O peration     | Version:  2412                                  |
|   \\  /    A nd           | Website:  www.openfoam.com                      |
|    \\/     M anipulation  |                                                 |
\*---------------------------------------------------------------------------*/
FoamFile
{
    version     2.0;
    format      ascii;
    arch        "LSB;label=32;scalar=64";
    class       volVectorField;
    location    "0.61";
    object      U;
}
// * * * * * * * * * * * * * * * * * * * * * * * * * * * * * * * * * * * * * //

dimensions      [0 1 -1 0 0 0 0];

internalField   nonuniform List<vector> 
800
(
(0.00134732 0 0)
(0.00404198 0 0)
(0.00673663 0 0)
(0.00943127 0 0)
(0.0121259 0 0)
(0.0148205 0 0)
(0.017515 0 0)
(0.0202095 0 0)
(0.0229039 0 0)
(0.0255983 0 0)
(0.0282927 0 0)
(0.0309869 0 0)
(0.0336811 0 0)
(0.0363752 0 0)
(0.0390692 0 0)
(0.0417631 0 0)
(0.0444569 0 0)
(0.0471505 0 0)
(0.0498441 0 0)
(0.0525375 0 0)
(0.0552308 0 0)
(0.057924 0 0)
(0.060617 0 0)
(0.0633099 0 0)
(0.0660026 0 0)
(0.0686951 0 0)
(0.0713874 0 0)
(0.0740796 0 0)
(0.0767716 0 0)
(0.0794634 0 0)
(0.082155 0 0)
(0.0848464 0 0)
(0.0875375 0 0)
(0.0902285 0 0)
(0.0929192 0 0)
(0.0956096 0 0)
(0.0982999 0 0)
(0.10099 0 0)
(0.10368 0 0)
(0.106369 0 0)
(0.109058 0 0)
(0.111747 0 0)
(0.114436 0 0)
(0.117124 0 0)
(0.119812 0 0)
(0.1225 0 0)
(0.125187 0 0)
(0.127874 0 0)
(0.130561 0 0)
(0.133247 0 0)
(0.135933 0 0)
(0.138619 0 0)
(0.141304 0 0)
(0.143989 0 0)
(0.146674 0 0)
(0.149358 0 0)
(0.152042 0 0)
(0.154726 0 0)
(0.157409 0 0)
(0.160091 0 0)
(0.162774 0 0)
(0.165455 0 0)
(0.168137 0 0)
(0.170818 0 0)
(0.173498 0 0)
(0.176178 0 0)
(0.178858 0 0)
(0.181537 0 0)
(0.184216 0 0)
(0.186894 0 0)
(0.189571 0 0)
(0.192249 0 0)
(0.194925 0 0)
(0.197601 0 0)
(0.200277 0 0)
(0.202952 0 0)
(0.205627 0 0)
(0.208301 0 0)
(0.210974 0 0)
(0.213647 0 0)
(0.216319 0 0)
(0.218991 0 0)
(0.221662 0 0)
(0.224333 0 0)
(0.227003 0 0)
(0.229672 0 0)
(0.232341 0 0)
(0.235009 0 0)
(0.237677 0 0)
(0.240344 0 0)
(0.24301 0 0)
(0.245676 0 0)
(0.248341 0 0)
(0.251005 0 0)
(0.253669 0 0)
(0.256331 0 0)
(0.258994 0 0)
(0.261655 0 0)
(0.264316 0 0)
(0.266976 0 0)
(0.269635 0 0)
(0.272294 0 0)
(0.274952 0 0)
(0.277609 0 0)
(0.280266 0 0)
(0.282921 0 0)
(0.285576 0 0)
(0.28823 0 0)
(0.290883 0 0)
(0.293536 0 0)
(0.296187 0 0)
(0.298838 0 0)
(0.301488 0 0)
(0.304137 0 0)
(0.306786 0 0)
(0.309433 0 0)
(0.31208 0 0)
(0.314725 0 0)
(0.31737 0 0)
(0.320014 0 0)
(0.322657 0 0)
(0.325299 0 0)
(0.327941 0 0)
(0.330581 0 0)
(0.33322 0 0)
(0.335859 0 0)
(0.338496 0 0)
(0.341133 0 0)
(0.343768 0 0)
(0.346403 0 0)
(0.349036 0 0)
(0.351669 0 0)
(0.3543 0 0)
(0.356931 0 0)
(0.35956 0 0)
(0.362189 0 0)
(0.364816 0 0)
(0.367442 0 0)
(0.370068 0 0)
(0.372692 0 0)
(0.375315 0 0)
(0.377937 0 0)
(0.380558 0 0)
(0.383178 0 0)
(0.385796 0 0)
(0.388414 0 0)
(0.39103 0 0)
(0.393645 0 0)
(0.396259 0 0)
(0.398872 0 0)
(0.401484 0 0)
(0.404094 0 0)
(0.406703 0 0)
(0.409311 0 0)
(0.411918 0 0)
(0.414524 0 0)
(0.417128 0 0)
(0.419731 0 0)
(0.422333 0 0)
(0.424933 0 0)
(0.427532 0 0)
(0.43013 0 0)
(0.432726 0 0)
(0.435321 0 0)
(0.437915 0 0)
(0.440508 0 0)
(0.443099 0 0)
(0.445688 0 0)
(0.448277 0 0)
(0.450864 0 0)
(0.453449 0 0)
(0.456033 0 0)
(0.458616 0 0)
(0.461197 0 0)
(0.463776 0 0)
(0.466355 0 0)
(0.468931 0 0)
(0.471506 0 0)
(0.47408 0 0)
(0.476652 0 0)
(0.479223 0 0)
(0.481792 0 0)
(0.484359 0 0)
(0.486925 0 0)
(0.489489 0 0)
(0.492052 0 0)
(0.494613 0 0)
(0.497173 0 0)
(0.49973 0 0)
(0.502286 0 0)
(0.504841 0 0)
(0.507394 0 0)
(0.509945 0 0)
(0.512494 0 0)
(0.515042 0 0)
(0.517587 0 0)
(0.520131 0 0)
(0.522674 0 0)
(0.525214 0 0)
(0.527753 0 0)
(0.53029 0 0)
(0.532825 0 0)
(0.535358 0 0)
(0.537889 0 0)
(0.540419 0 0)
(0.542946 0 0)
(0.545472 0 0)
(0.547996 0 0)
(0.550517 0 0)
(0.553037 0 0)
(0.555555 0 0)
(0.558071 0 0)
(0.560585 0 0)
(0.563096 0 0)
(0.565606 0 0)
(0.568114 0 0)
(0.570619 0 0)
(0.573123 0 0)
(0.575624 0 0)
(0.578123 0 0)
(0.580621 0 0)
(0.583115 0 0)
(0.585608 0 0)
(0.588099 0 0)
(0.590587 0 0)
(0.593073 0 0)
(0.595557 0 0)
(0.598039 0 0)
(0.600518 0 0)
(0.602995 0 0)
(0.605469 0 0)
(0.607942 0 0)
(0.610412 0 0)
(0.612879 0 0)
(0.615344 0 0)
(0.617807 0 0)
(0.620267 0 0)
(0.622725 0 0)
(0.62518 0 0)
(0.627633 0 0)
(0.630083 0 0)
(0.63253 0 0)
(0.634975 0 0)
(0.637418 0 0)
(0.639858 0 0)
(0.642295 0 0)
(0.644729 0 0)
(0.647161 0 0)
(0.64959 0 0)
(0.652016 0 0)
(0.65444 0 0)
(0.65686 0 0)
(0.659278 0 0)
(0.661694 0 0)
(0.664106 0 0)
(0.666515 0 0)
(0.668922 0 0)
(0.671325 0 0)
(0.673726 0 0)
(0.676123 0 0)
(0.678518 0 0)
(0.680909 0 0)
(0.683297 0 0)
(0.685683 0 0)
(0.688065 0 0)
(0.690444 0 0)
(0.69282 0 0)
(0.695192 0 0)
(0.697562 0 0)
(0.699928 0 0)
(0.702291 0 0)
(0.70465 0 0)
(0.707006 0 0)
(0.709359 0 0)
(0.711709 0 0)
(0.714054 0 0)
(0.716397 0 0)
(0.718736 0 0)
(0.721071 0 0)
(0.723403 0 0)
(0.725731 0 0)
(0.728055 0 0)
(0.730376 0 0)
(0.732693 0 0)
(0.735007 0 0)
(0.737316 0 0)
(0.739622 0 0)
(0.741924 0 0)
(0.744222 0 0)
(0.746516 0 0)
(0.748806 0 0)
(0.751092 0 0)
(0.753374 0 0)
(0.755651 0 0)
(0.757925 0 0)
(0.760195 0 0)
(0.76246 0 0)
(0.764721 0 0)
(0.766978 0 0)
(0.769231 0 0)
(0.771479 0 0)
(0.773722 0 0)
(0.775961 0 0)
(0.778196 0 0)
(0.780426 0 0)
(0.782652 0 0)
(0.784872 0 0)
(0.787089 0 0)
(0.7893 0 0)
(0.791506 0 0)
(0.793708 0 0)
(0.795905 0 0)
(0.798097 0 0)
(0.800284 0 0)
(0.802465 0 0)
(0.804642 0 0)
(0.806813 0 0)
(0.80898 0 0)
(0.811141 0 0)
(0.813296 0 0)
(0.815446 0 0)
(0.817591 0 0)
(0.81973 0 0)
(0.821864 0 0)
(0.823992 0 0)
(0.826114 0 0)
(0.82823 0 0)
(0.830341 0 0)
(0.832446 0 0)
(0.834544 0 0)
(0.836637 0 0)
(0.838723 0 0)
(0.840804 0 0)
(0.842878 0 0)
(0.844945 0 0)
(0.847007 0 0)
(0.849062 0 0)
(0.85111 0 0)
(0.853151 0 0)
(0.855186 0 0)
(0.857214 0 0)
(0.859235 0 0)
(0.861249 0 0)
(0.863256 0 0)
(0.865256 0 0)
(0.867249 0 0)
(0.869234 0 0)
(0.871212 0 0)
(0.873182 0 0)
(0.875145 0 0)
(0.8771 0 0)
(0.879047 0 0)
(0.880986 0 0)
(0.882917 0 0)
(0.88484 0 0)
(0.886754 0 0)
(0.88866 0 0)
(0.890558 0 0)
(0.892447 0 0)
(0.894327 0 0)
(0.896199 0 0)
(0.898061 0 0)
(0.899915 0 0)
(0.901759 0 0)
(0.903593 0 0)
(0.905418 0 0)
(0.907234 0 0)
(0.909039 0 0)
(0.910835 0 0)
(0.91262 0 0)
(0.914396 0 0)
(0.91616 0 0)
(0.917915 0 0)
(0.919658 0 0)
(0.92139 0 0)
(0.923112 0 0)
(0.924822 0 0)
(0.92652 0 0)
(0.928207 0 0)
(0.929882 0 0)
(0.931545 0 0)
(0.933195 0 0)
(0.934833 0 0)
(0.936459 0 0)
(0.938071 0 0)
(0.93967 0 0)
(0.941256 0 0)
(0.942829 0 0)
(0.944387 0 0)
(0.945931 0 0)
(0.947461 0 0)
(0.948976 0 0)
(0.950476 0 0)
(0.951961 0 0)
(0.953431 0 0)
(0.95487 0 0)
(0.956463 0 0)
(0.956216 0 0)
(0.975118 0 0)
(0.578291 0 0)
(-0.576912 0 0)
(-0.975099 0 0)
(-0.956216 0 0)
(-0.956462 0 0)
(-0.954868 0 0)
(-0.95343 0 0)
(-0.951959 0 0)
(-0.950475 0 0)
(-0.948974 0 0)
(-0.947459 0 0)
(-0.94593 0 0)
(-0.944385 0 0)
(-0.942827 0 0)
(-0.941255 0 0)
(-0.939669 0 0)
(-0.93807 0 0)
(-0.936457 0 0)
(-0.934832 0 0)
(-0.933194 0 0)
(-0.931543 0 0)
(-0.92988 0 0)
(-0.928205 0 0)
(-0.926518 0 0)
(-0.92482 0 0)
(-0.92311 0 0)
(-0.921389 0 0)
(-0.919656 0 0)
(-0.917913 0 0)
(-0.916159 0 0)
(-0.914394 0 0)
(-0.912619 0 0)
(-0.910833 0 0)
(-0.909037 0 0)
(-0.907232 0 0)
(-0.905416 0 0)
(-0.903591 0 0)
(-0.901757 0 0)
(-0.899913 0 0)
(-0.898059 0 0)
(-0.896197 0 0)
(-0.894325 0 0)
(-0.892445 0 0)
(-0.890556 0 0)
(-0.888658 0 0)
(-0.886752 0 0)
(-0.884838 0 0)
(-0.882915 0 0)
(-0.880984 0 0)
(-0.879045 0 0)
(-0.877098 0 0)
(-0.875143 0 0)
(-0.87318 0 0)
(-0.87121 0 0)
(-0.869232 0 0)
(-0.867247 0 0)
(-0.865254 0 0)
(-0.863254 0 0)
(-0.861247 0 0)
(-0.859233 0 0)
(-0.857212 0 0)
(-0.855184 0 0)
(-0.853149 0 0)
(-0.851107 0 0)
(-0.849059 0 0)
(-0.847004 0 0)
(-0.844943 0 0)
(-0.842875 0 0)
(-0.840801 0 0)
(-0.838721 0 0)
(-0.836635 0 0)
(-0.834542 0 0)
(-0.832443 0 0)
(-0.830339 0 0)
(-0.828228 0 0)
(-0.826111 0 0)
(-0.823989 0 0)
(-0.821861 0 0)
(-0.819728 0 0)
(-0.817589 0 0)
(-0.815444 0 0)
(-0.813294 0 0)
(-0.811138 0 0)
(-0.808977 0 0)
(-0.806811 0 0)
(-0.80464 0 0)
(-0.802463 0 0)
(-0.800281 0 0)
(-0.798094 0 0)
(-0.795903 0 0)
(-0.793706 0 0)
(-0.791504 0 0)
(-0.789298 0 0)
(-0.787086 0 0)
(-0.78487 0 0)
(-0.782649 0 0)
(-0.780424 0 0)
(-0.778194 0 0)
(-0.775959 0 0)
(-0.77372 0 0)
(-0.771476 0 0)
(-0.769228 0 0)
(-0.766976 0 0)
(-0.764719 0 0)
(-0.762458 0 0)
(-0.760192 0 0)
(-0.757923 0 0)
(-0.755649 0 0)
(-0.753371 0 0)
(-0.751089 0 0)
(-0.748803 0 0)
(-0.746513 0 0)
(-0.744219 0 0)
(-0.741921 0 0)
(-0.739619 0 0)
(-0.737314 0 0)
(-0.735004 0 0)
(-0.732691 0 0)
(-0.730374 0 0)
(-0.728053 0 0)
(-0.725729 0 0)
(-0.7234 0 0)
(-0.721069 0 0)
(-0.718733 0 0)
(-0.716395 0 0)
(-0.714052 0 0)
(-0.711706 0 0)
(-0.709357 0 0)
(-0.707004 0 0)
(-0.704648 0 0)
(-0.702289 0 0)
(-0.699926 0 0)
(-0.69756 0 0)
(-0.69519 0 0)
(-0.692818 0 0)
(-0.690442 0 0)
(-0.688063 0 0)
(-0.685681 0 0)
(-0.683295 0 0)
(-0.680907 0 0)
(-0.678515 0 0)
(-0.676121 0 0)
(-0.673723 0 0)
(-0.671323 0 0)
(-0.668919 0 0)
(-0.666513 0 0)
(-0.664104 0 0)
(-0.661691 0 0)
(-0.659276 0 0)
(-0.656858 0 0)
(-0.654438 0 0)
(-0.652014 0 0)
(-0.649588 0 0)
(-0.647159 0 0)
(-0.644727 0 0)
(-0.642293 0 0)
(-0.639855 0 0)
(-0.637416 0 0)
(-0.634973 0 0)
(-0.632528 0 0)
(-0.630081 0 0)
(-0.627631 0 0)
(-0.625178 0 0)
(-0.622723 0 0)
(-0.620265 0 0)
(-0.617805 0 0)
(-0.615342 0 0)
(-0.612877 0 0)
(-0.61041 0 0)
(-0.60794 0 0)
(-0.605468 0 0)
(-0.602993 0 0)
(-0.600516 0 0)
(-0.598037 0 0)
(-0.595555 0 0)
(-0.593071 0 0)
(-0.590585 0 0)
(-0.588097 0 0)
(-0.585606 0 0)
(-0.583114 0 0)
(-0.580619 0 0)
(-0.578122 0 0)
(-0.575622 0 0)
(-0.573121 0 0)
(-0.570618 0 0)
(-0.568112 0 0)
(-0.565604 0 0)
(-0.563095 0 0)
(-0.560583 0 0)
(-0.558069 0 0)
(-0.555553 0 0)
(-0.553035 0 0)
(-0.550516 0 0)
(-0.547994 0 0)
(-0.54547 0 0)
(-0.542945 0 0)
(-0.540417 0 0)
(-0.537888 0 0)
(-0.535356 0 0)
(-0.532823 0 0)
(-0.530288 0 0)
(-0.527751 0 0)
(-0.525213 0 0)
(-0.522672 0 0)
(-0.52013 0 0)
(-0.517586 0 0)
(-0.51504 0 0)
(-0.512493 0 0)
(-0.509943 0 0)
(-0.507392 0 0)
(-0.504839 0 0)
(-0.502285 0 0)
(-0.499729 0 0)
(-0.497171 0 0)
(-0.494612 0 0)
(-0.492051 0 0)
(-0.489488 0 0)
(-0.486924 0 0)
(-0.484358 0 0)
(-0.481791 0 0)
(-0.479221 0 0)
(-0.476651 0 0)
(-0.474079 0 0)
(-0.471505 0 0)
(-0.46893 0 0)
(-0.466353 0 0)
(-0.463775 0 0)
(-0.461196 0 0)
(-0.458614 0 0)
(-0.456032 0 0)
(-0.453448 0 0)
(-0.450862 0 0)
(-0.448276 0 0)
(-0.445687 0 0)
(-0.443098 0 0)
(-0.440507 0 0)
(-0.437914 0 0)
(-0.43532 0 0)
(-0.432725 0 0)
(-0.430129 0 0)
(-0.427531 0 0)
(-0.424932 0 0)
(-0.422332 0 0)
(-0.41973 0 0)
(-0.417127 0 0)
(-0.414523 0 0)
(-0.411917 0 0)
(-0.40931 0 0)
(-0.406702 0 0)
(-0.404093 0 0)
(-0.401483 0 0)
(-0.398871 0 0)
(-0.396258 0 0)
(-0.393644 0 0)
(-0.391029 0 0)
(-0.388413 0 0)
(-0.385795 0 0)
(-0.383177 0 0)
(-0.380557 0 0)
(-0.377936 0 0)
(-0.375314 0 0)
(-0.372691 0 0)
(-0.370067 0 0)
(-0.367442 0 0)
(-0.364815 0 0)
(-0.362188 0 0)
(-0.35956 0 0)
(-0.35693 0 0)
(-0.3543 0 0)
(-0.351668 0 0)
(-0.349035 0 0)
(-0.346402 0 0)
(-0.343767 0 0)
(-0.341132 0 0)
(-0.338495 0 0)
(-0.335858 0 0)
(-0.33322 0 0)
(-0.33058 0 0)
(-0.32794 0 0)
(-0.325299 0 0)
(-0.322657 0 0)
(-0.320014 0 0)
(-0.31737 0 0)
(-0.314725 0 0)
(-0.312079 0 0)
(-0.309433 0 0)
(-0.306785 0 0)
(-0.304137 0 0)
(-0.301488 0 0)
(-0.298838 0 0)
(-0.296187 0 0)
(-0.293535 0 0)
(-0.290883 0 0)
(-0.288229 0 0)
(-0.285575 0 0)
(-0.282921 0 0)
(-0.280265 0 0)
(-0.277609 0 0)
(-0.274952 0 0)
(-0.272294 0 0)
(-0.269635 0 0)
(-0.266976 0 0)
(-0.264316 0 0)
(-0.261655 0 0)
(-0.258993 0 0)
(-0.256331 0 0)
(-0.253668 0 0)
(-0.251005 0 0)
(-0.24834 0 0)
(-0.245675 0 0)
(-0.24301 0 0)
(-0.240344 0 0)
(-0.237677 0 0)
(-0.235009 0 0)
(-0.232341 0 0)
(-0.229672 0 0)
(-0.227003 0 0)
(-0.224333 0 0)
(-0.221662 0 0)
(-0.218991 0 0)
(-0.216319 0 0)
(-0.213647 0 0)
(-0.210974 0 0)
(-0.2083 0 0)
(-0.205626 0 0)
(-0.202952 0 0)
(-0.200277 0 0)
(-0.197601 0 0)
(-0.194925 0 0)
(-0.192248 0 0)
(-0.189571 0 0)
(-0.186893 0 0)
(-0.184215 0 0)
(-0.181537 0 0)
(-0.178858 0 0)
(-0.176178 0 0)
(-0.173498 0 0)
(-0.170817 0 0)
(-0.168137 0 0)
(-0.165455 0 0)
(-0.162773 0 0)
(-0.160091 0 0)
(-0.157409 0 0)
(-0.154725 0 0)
(-0.152042 0 0)
(-0.149358 0 0)
(-0.146674 0 0)
(-0.143989 0 0)
(-0.141304 0 0)
(-0.138619 0 0)
(-0.135933 0 0)
(-0.133247 0 0)
(-0.130561 0 0)
(-0.127874 0 0)
(-0.125187 0 0)
(-0.1225 0 0)
(-0.119812 0 0)
(-0.117124 0 0)
(-0.114436 0 0)
(-0.111747 0 0)
(-0.109058 0 0)
(-0.106369 0 0)
(-0.103679 0 0)
(-0.10099 0 0)
(-0.0982998 0 0)
(-0.0956096 0 0)
(-0.0929191 0 0)
(-0.0902284 0 0)
(-0.0875375 0 0)
(-0.0848463 0 0)
(-0.0821549 0 0)
(-0.0794634 0 0)
(-0.0767716 0 0)
(-0.0740796 0 0)
(-0.0713874 0 0)
(-0.0686951 0 0)
(-0.0660025 0 0)
(-0.0633098 0 0)
(-0.060617 0 0)
(-0.057924 0 0)
(-0.0552308 0 0)
(-0.0525375 0 0)
(-0.0498441 0 0)
(-0.0471505 0 0)
(-0.0444569 0 0)
(-0.0417631 0 0)
(-0.0390692 0 0)
(-0.0363752 0 0)
(-0.0336811 0 0)
(-0.0309869 0 0)
(-0.0282927 0 0)
(-0.0255983 0 0)
(-0.022904 0 0)
(-0.0202095 0 0)
(-0.017515 0 0)
(-0.0148205 0 0)
(-0.0121259 0 0)
(-0.00943128 0 0)
(-0.00673665 0 0)
(-0.00404199 0 0)
(-0.00134733 0 0)
)
;

boundaryField
{
    left
    {
        type            fixedValue;
        value           uniform (0 0 0);
    }
    right
    {
        type            fixedValue;
        value           uniform (0 0 0);
    }
    frontBackUpDown
    {
        type            empty;
    }
}


// ************************************************************************* //
