/*--------------------------------*- C++ -*----------------------------------*\
| =========                 |                                                 |
| \\      /  F ield         | OpenFOAM: The Open Source CFD Toolbox           |
|  \\    /   O peration     | Version:  2412                                  |
|   \\  /    A nd           | Website:  www.openfoam.com                      |
|    \\/     M anipulation  |                                                 |
\*---------------------------------------------------------------------------*/
FoamFile
{
    version     2.0;
    format      ascii;
    arch        "LSB;label=32;scalar=64";
    class       volVectorField;
    location    "0.61";
    object      U_0;
}
// * * * * * * * * * * * * * * * * * * * * * * * * * * * * * * * * * * * * * //

dimensions      [0 1 -1 0 0 0 0];

internalField   nonuniform List<vector> 
800
(
(0.00134804 0 0)
(0.00404415 0 0)
(0.00674026 0 0)
(0.00943634 0 0)
(0.0121324 0 0)
(0.0148284 0 0)
(0.0175244 0 0)
(0.0202204 0 0)
(0.0229163 0 0)
(0.0256121 0 0)
(0.0283079 0 0)
(0.0310036 0 0)
(0.0336992 0 0)
(0.0363948 0 0)
(0.0390902 0 0)
(0.0417855 0 0)
(0.0444808 0 0)
(0.0471759 0 0)
(0.0498709 0 0)
(0.0525658 0 0)
(0.0552605 0 0)
(0.0579552 0 0)
(0.0606496 0 0)
(0.0633439 0 0)
(0.0660381 0 0)
(0.068732 0 0)
(0.0714258 0 0)
(0.0741195 0 0)
(0.0768129 0 0)
(0.0795061 0 0)
(0.0821991 0 0)
(0.084892 0 0)
(0.0875846 0 0)
(0.0902769 0 0)
(0.0929691 0 0)
(0.095661 0 0)
(0.0983527 0 0)
(0.101044 0 0)
(0.103735 0 0)
(0.106426 0 0)
(0.109117 0 0)
(0.111807 0 0)
(0.114497 0 0)
(0.117187 0 0)
(0.119876 0 0)
(0.122565 0 0)
(0.125254 0 0)
(0.127943 0 0)
(0.130631 0 0)
(0.133319 0 0)
(0.136006 0 0)
(0.138693 0 0)
(0.14138 0 0)
(0.144067 0 0)
(0.146753 0 0)
(0.149438 0 0)
(0.152124 0 0)
(0.154809 0 0)
(0.157493 0 0)
(0.160177 0 0)
(0.162861 0 0)
(0.165544 0 0)
(0.168227 0 0)
(0.170909 0 0)
(0.173591 0 0)
(0.176273 0 0)
(0.178954 0 0)
(0.181634 0 0)
(0.184314 0 0)
(0.186994 0 0)
(0.189673 0 0)
(0.192351 0 0)
(0.195029 0 0)
(0.197707 0 0)
(0.200384 0 0)
(0.203061 0 0)
(0.205737 0 0)
(0.208412 0 0)
(0.211087 0 0)
(0.213761 0 0)
(0.216435 0 0)
(0.219108 0 0)
(0.221781 0 0)
(0.224453 0 0)
(0.227124 0 0)
(0.229795 0 0)
(0.232465 0 0)
(0.235135 0 0)
(0.237804 0 0)
(0.240472 0 0)
(0.24314 0 0)
(0.245807 0 0)
(0.248473 0 0)
(0.251139 0 0)
(0.253803 0 0)
(0.256468 0 0)
(0.259131 0 0)
(0.261794 0 0)
(0.264456 0 0)
(0.267118 0 0)
(0.269779 0 0)
(0.272439 0 0)
(0.275098 0 0)
(0.277756 0 0)
(0.280414 0 0)
(0.283071 0 0)
(0.285727 0 0)
(0.288383 0 0)
(0.291037 0 0)
(0.293691 0 0)
(0.296344 0 0)
(0.298996 0 0)
(0.301648 0 0)
(0.304298 0 0)
(0.306948 0 0)
(0.309597 0 0)
(0.312245 0 0)
(0.314892 0 0)
(0.317538 0 0)
(0.320183 0 0)
(0.322828 0 0)
(0.325471 0 0)
(0.328114 0 0)
(0.330755 0 0)
(0.333396 0 0)
(0.336036 0 0)
(0.338674 0 0)
(0.341312 0 0)
(0.343949 0 0)
(0.346585 0 0)
(0.34922 0 0)
(0.351854 0 0)
(0.354486 0 0)
(0.357118 0 0)
(0.359749 0 0)
(0.362379 0 0)
(0.365008 0 0)
(0.367635 0 0)
(0.370262 0 0)
(0.372887 0 0)
(0.375512 0 0)
(0.378135 0 0)
(0.380757 0 0)
(0.383378 0 0)
(0.385998 0 0)
(0.388617 0 0)
(0.391234 0 0)
(0.393851 0 0)
(0.396466 0 0)
(0.39908 0 0)
(0.401693 0 0)
(0.404305 0 0)
(0.406915 0 0)
(0.409525 0 0)
(0.412133 0 0)
(0.414739 0 0)
(0.417345 0 0)
(0.419949 0 0)
(0.422552 0 0)
(0.425154 0 0)
(0.427754 0 0)
(0.430353 0 0)
(0.432951 0 0)
(0.435547 0 0)
(0.438142 0 0)
(0.440736 0 0)
(0.443328 0 0)
(0.445919 0 0)
(0.448508 0 0)
(0.451096 0 0)
(0.453683 0 0)
(0.456268 0 0)
(0.458852 0 0)
(0.461434 0 0)
(0.464015 0 0)
(0.466595 0 0)
(0.469173 0 0)
(0.471749 0 0)
(0.474324 0 0)
(0.476897 0 0)
(0.479469 0 0)
(0.482039 0 0)
(0.484608 0 0)
(0.487175 0 0)
(0.48974 0 0)
(0.492304 0 0)
(0.494866 0 0)
(0.497427 0 0)
(0.499986 0 0)
(0.502543 0 0)
(0.505098 0 0)
(0.507652 0 0)
(0.510204 0 0)
(0.512755 0 0)
(0.515304 0 0)
(0.517851 0 0)
(0.520396 0 0)
(0.522939 0 0)
(0.525481 0 0)
(0.52802 0 0)
(0.530558 0 0)
(0.533095 0 0)
(0.535629 0 0)
(0.538161 0 0)
(0.540692 0 0)
(0.54322 0 0)
(0.545747 0 0)
(0.548272 0 0)
(0.550795 0 0)
(0.553315 0 0)
(0.555834 0 0)
(0.558351 0 0)
(0.560866 0 0)
(0.563379 0 0)
(0.56589 0 0)
(0.568398 0 0)
(0.570905 0 0)
(0.573409 0 0)
(0.575912 0 0)
(0.578412 0 0)
(0.58091 0 0)
(0.583406 0 0)
(0.5859 0 0)
(0.588391 0 0)
(0.590881 0 0)
(0.593368 0 0)
(0.595852 0 0)
(0.598335 0 0)
(0.600815 0 0)
(0.603293 0 0)
(0.605769 0 0)
(0.608242 0 0)
(0.610713 0 0)
(0.613181 0 0)
(0.615647 0 0)
(0.618111 0 0)
(0.620572 0 0)
(0.62303 0 0)
(0.625486 0 0)
(0.62794 0 0)
(0.630391 0 0)
(0.632839 0 0)
(0.635285 0 0)
(0.637729 0 0)
(0.640169 0 0)
(0.642607 0 0)
(0.645043 0 0)
(0.647475 0 0)
(0.649905 0 0)
(0.652332 0 0)
(0.654757 0 0)
(0.657178 0 0)
(0.659597 0 0)
(0.662013 0 0)
(0.664426 0 0)
(0.666836 0 0)
(0.669243 0 0)
(0.671647 0 0)
(0.674049 0 0)
(0.676447 0 0)
(0.678842 0 0)
(0.681234 0 0)
(0.683623 0 0)
(0.686009 0 0)
(0.688392 0 0)
(0.690772 0 0)
(0.693149 0 0)
(0.695522 0 0)
(0.697892 0 0)
(0.700259 0 0)
(0.702622 0 0)
(0.704982 0 0)
(0.707339 0 0)
(0.709692 0 0)
(0.712042 0 0)
(0.714389 0 0)
(0.716732 0 0)
(0.719071 0 0)
(0.721407 0 0)
(0.72374 0 0)
(0.726068 0 0)
(0.728393 0 0)
(0.730715 0 0)
(0.733032 0 0)
(0.735346 0 0)
(0.737656 0 0)
(0.739962 0 0)
(0.742265 0 0)
(0.744563 0 0)
(0.746858 0 0)
(0.749148 0 0)
(0.751435 0 0)
(0.753717 0 0)
(0.755995 0 0)
(0.758269 0 0)
(0.760539 0 0)
(0.762805 0 0)
(0.765067 0 0)
(0.767324 0 0)
(0.769577 0 0)
(0.771825 0 0)
(0.774069 0 0)
(0.776308 0 0)
(0.778543 0 0)
(0.780774 0 0)
(0.782999 0 0)
(0.785221 0 0)
(0.787437 0 0)
(0.789648 0 0)
(0.791855 0 0)
(0.794057 0 0)
(0.796254 0 0)
(0.798446 0 0)
(0.800633 0 0)
(0.802815 0 0)
(0.804992 0 0)
(0.807163 0 0)
(0.809329 0 0)
(0.81149 0 0)
(0.813646 0 0)
(0.815796 0 0)
(0.817941 0 0)
(0.82008 0 0)
(0.822214 0 0)
(0.824342 0 0)
(0.826464 0 0)
(0.82858 0 0)
(0.830691 0 0)
(0.832795 0 0)
(0.834894 0 0)
(0.836986 0 0)
(0.839073 0 0)
(0.841153 0 0)
(0.843227 0 0)
(0.845294 0 0)
(0.847355 0 0)
(0.84941 0 0)
(0.851458 0 0)
(0.853499 0 0)
(0.855533 0 0)
(0.857561 0 0)
(0.859582 0 0)
(0.861596 0 0)
(0.863602 0 0)
(0.865602 0 0)
(0.867594 0 0)
(0.869579 0 0)
(0.871556 0 0)
(0.873526 0 0)
(0.875488 0 0)
(0.877442 0 0)
(0.879388 0 0)
(0.881327 0 0)
(0.883257 0 0)
(0.885179 0 0)
(0.887093 0 0)
(0.888999 0 0)
(0.890895 0 0)
(0.892784 0 0)
(0.894663 0 0)
(0.896534 0 0)
(0.898395 0 0)
(0.900247 0 0)
(0.90209 0 0)
(0.903924 0 0)
(0.905748 0 0)
(0.907562 0 0)
(0.909367 0 0)
(0.911161 0 0)
(0.912945 0 0)
(0.914719 0 0)
(0.916483 0 0)
(0.918236 0 0)
(0.919978 0 0)
(0.921709 0 0)
(0.923429 0 0)
(0.925137 0 0)
(0.926834 0 0)
(0.928519 0 0)
(0.930192 0 0)
(0.931854 0 0)
(0.933502 0 0)
(0.935139 0 0)
(0.936762 0 0)
(0.938373 0 0)
(0.93997 0 0)
(0.941554 0 0)
(0.943124 0 0)
(0.94468 0 0)
(0.946222 0 0)
(0.94775 0 0)
(0.949262 0 0)
(0.95076 0 0)
(0.952242 0 0)
(0.95371 0 0)
(0.955146 0 0)
(0.956738 0 0)
(0.956479 0 0)
(0.975448 0 0)
(0.578608 0 0)
(-0.577229 0 0)
(-0.975428 0 0)
(-0.956479 0 0)
(-0.956736 0 0)
(-0.955145 0 0)
(-0.953709 0 0)
(-0.952241 0 0)
(-0.950759 0 0)
(-0.949261 0 0)
(-0.947748 0 0)
(-0.946221 0 0)
(-0.944679 0 0)
(-0.943122 0 0)
(-0.941552 0 0)
(-0.939968 0 0)
(-0.938371 0 0)
(-0.936761 0 0)
(-0.935137 0 0)
(-0.933501 0 0)
(-0.931852 0 0)
(-0.930191 0 0)
(-0.928517 0 0)
(-0.926832 0 0)
(-0.925135 0 0)
(-0.923427 0 0)
(-0.921707 0 0)
(-0.919976 0 0)
(-0.918234 0 0)
(-0.916481 0 0)
(-0.914718 0 0)
(-0.912944 0 0)
(-0.911159 0 0)
(-0.909365 0 0)
(-0.90756 0 0)
(-0.905746 0 0)
(-0.903922 0 0)
(-0.902088 0 0)
(-0.900245 0 0)
(-0.898393 0 0)
(-0.896532 0 0)
(-0.894661 0 0)
(-0.892782 0 0)
(-0.890893 0 0)
(-0.888996 0 0)
(-0.887091 0 0)
(-0.885177 0 0)
(-0.883255 0 0)
(-0.881325 0 0)
(-0.879386 0 0)
(-0.87744 0 0)
(-0.875485 0 0)
(-0.873523 0 0)
(-0.871554 0 0)
(-0.869576 0 0)
(-0.867592 0 0)
(-0.865599 0 0)
(-0.8636 0 0)
(-0.861593 0 0)
(-0.85958 0 0)
(-0.857559 0 0)
(-0.855531 0 0)
(-0.853497 0 0)
(-0.851455 0 0)
(-0.849408 0 0)
(-0.847353 0 0)
(-0.845292 0 0)
(-0.843224 0 0)
(-0.841151 0 0)
(-0.83907 0 0)
(-0.836984 0 0)
(-0.834892 0 0)
(-0.832793 0 0)
(-0.830688 0 0)
(-0.828578 0 0)
(-0.826462 0 0)
(-0.824339 0 0)
(-0.822211 0 0)
(-0.820078 0 0)
(-0.817939 0 0)
(-0.815794 0 0)
(-0.813644 0 0)
(-0.811488 0 0)
(-0.809327 0 0)
(-0.807161 0 0)
(-0.804989 0 0)
(-0.802813 0 0)
(-0.800631 0 0)
(-0.798444 0 0)
(-0.796252 0 0)
(-0.794055 0 0)
(-0.791853 0 0)
(-0.789646 0 0)
(-0.787435 0 0)
(-0.785218 0 0)
(-0.782997 0 0)
(-0.780771 0 0)
(-0.778541 0 0)
(-0.776306 0 0)
(-0.774067 0 0)
(-0.771823 0 0)
(-0.769574 0 0)
(-0.767321 0 0)
(-0.765064 0 0)
(-0.762803 0 0)
(-0.760537 0 0)
(-0.758267 0 0)
(-0.755993 0 0)
(-0.753715 0 0)
(-0.751432 0 0)
(-0.749146 0 0)
(-0.746855 0 0)
(-0.744561 0 0)
(-0.742262 0 0)
(-0.73996 0 0)
(-0.737654 0 0)
(-0.735344 0 0)
(-0.73303 0 0)
(-0.730712 0 0)
(-0.728391 0 0)
(-0.726066 0 0)
(-0.723737 0 0)
(-0.721405 0 0)
(-0.719069 0 0)
(-0.71673 0 0)
(-0.714387 0 0)
(-0.71204 0 0)
(-0.70969 0 0)
(-0.707337 0 0)
(-0.70498 0 0)
(-0.70262 0 0)
(-0.700257 0 0)
(-0.69789 0 0)
(-0.69552 0 0)
(-0.693146 0 0)
(-0.69077 0 0)
(-0.68839 0 0)
(-0.686007 0 0)
(-0.683621 0 0)
(-0.681232 0 0)
(-0.67884 0 0)
(-0.676445 0 0)
(-0.674046 0 0)
(-0.671645 0 0)
(-0.669241 0 0)
(-0.666834 0 0)
(-0.664424 0 0)
(-0.662011 0 0)
(-0.659595 0 0)
(-0.657176 0 0)
(-0.654754 0 0)
(-0.65233 0 0)
(-0.649903 0 0)
(-0.647473 0 0)
(-0.645041 0 0)
(-0.642605 0 0)
(-0.640167 0 0)
(-0.637727 0 0)
(-0.635283 0 0)
(-0.632838 0 0)
(-0.630389 0 0)
(-0.627938 0 0)
(-0.625484 0 0)
(-0.623028 0 0)
(-0.62057 0 0)
(-0.618109 0 0)
(-0.615645 0 0)
(-0.613179 0 0)
(-0.610711 0 0)
(-0.60824 0 0)
(-0.605767 0 0)
(-0.603291 0 0)
(-0.600813 0 0)
(-0.598333 0 0)
(-0.595851 0 0)
(-0.593366 0 0)
(-0.590879 0 0)
(-0.58839 0 0)
(-0.585898 0 0)
(-0.583404 0 0)
(-0.580908 0 0)
(-0.57841 0 0)
(-0.57591 0 0)
(-0.573408 0 0)
(-0.570903 0 0)
(-0.568397 0 0)
(-0.565888 0 0)
(-0.563377 0 0)
(-0.560864 0 0)
(-0.558349 0 0)
(-0.555833 0 0)
(-0.553314 0 0)
(-0.550793 0 0)
(-0.54827 0 0)
(-0.545745 0 0)
(-0.543219 0 0)
(-0.54069 0 0)
(-0.53816 0 0)
(-0.535627 0 0)
(-0.533093 0 0)
(-0.530557 0 0)
(-0.528019 0 0)
(-0.525479 0 0)
(-0.522938 0 0)
(-0.520394 0 0)
(-0.517849 0 0)
(-0.515302 0 0)
(-0.512753 0 0)
(-0.510203 0 0)
(-0.507651 0 0)
(-0.505097 0 0)
(-0.502541 0 0)
(-0.499984 0 0)
(-0.497425 0 0)
(-0.494865 0 0)
(-0.492303 0 0)
(-0.489739 0 0)
(-0.487173 0 0)
(-0.484606 0 0)
(-0.482038 0 0)
(-0.479468 0 0)
(-0.476896 0 0)
(-0.474322 0 0)
(-0.471748 0 0)
(-0.469171 0 0)
(-0.466593 0 0)
(-0.464014 0 0)
(-0.461433 0 0)
(-0.458851 0 0)
(-0.456267 0 0)
(-0.453682 0 0)
(-0.451095 0 0)
(-0.448507 0 0)
(-0.445918 0 0)
(-0.443327 0 0)
(-0.440735 0 0)
(-0.438141 0 0)
(-0.435546 0 0)
(-0.43295 0 0)
(-0.430352 0 0)
(-0.427753 0 0)
(-0.425153 0 0)
(-0.422551 0 0)
(-0.419948 0 0)
(-0.417344 0 0)
(-0.414738 0 0)
(-0.412132 0 0)
(-0.409524 0 0)
(-0.406914 0 0)
(-0.404304 0 0)
(-0.401692 0 0)
(-0.399079 0 0)
(-0.396465 0 0)
(-0.39385 0 0)
(-0.391234 0 0)
(-0.388616 0 0)
(-0.385997 0 0)
(-0.383377 0 0)
(-0.380756 0 0)
(-0.378134 0 0)
(-0.375511 0 0)
(-0.372886 0 0)
(-0.370261 0 0)
(-0.367634 0 0)
(-0.365007 0 0)
(-0.362378 0 0)
(-0.359748 0 0)
(-0.357118 0 0)
(-0.354486 0 0)
(-0.351853 0 0)
(-0.349219 0 0)
(-0.346584 0 0)
(-0.343948 0 0)
(-0.341312 0 0)
(-0.338674 0 0)
(-0.336035 0 0)
(-0.333395 0 0)
(-0.330755 0 0)
(-0.328113 0 0)
(-0.32547 0 0)
(-0.322827 0 0)
(-0.320183 0 0)
(-0.317537 0 0)
(-0.314891 0 0)
(-0.312244 0 0)
(-0.309596 0 0)
(-0.306947 0 0)
(-0.304298 0 0)
(-0.301647 0 0)
(-0.298996 0 0)
(-0.296344 0 0)
(-0.293691 0 0)
(-0.291037 0 0)
(-0.288382 0 0)
(-0.285727 0 0)
(-0.283071 0 0)
(-0.280414 0 0)
(-0.277756 0 0)
(-0.275097 0 0)
(-0.272438 0 0)
(-0.269778 0 0)
(-0.267118 0 0)
(-0.264456 0 0)
(-0.261794 0 0)
(-0.259131 0 0)
(-0.256467 0 0)
(-0.253803 0 0)
(-0.251138 0 0)
(-0.248472 0 0)
(-0.245806 0 0)
(-0.243139 0 0)
(-0.240472 0 0)
(-0.237803 0 0)
(-0.235134 0 0)
(-0.232465 0 0)
(-0.229795 0 0)
(-0.227124 0 0)
(-0.224452 0 0)
(-0.22178 0 0)
(-0.219108 0 0)
(-0.216435 0 0)
(-0.213761 0 0)
(-0.211087 0 0)
(-0.208412 0 0)
(-0.205736 0 0)
(-0.20306 0 0)
(-0.200384 0 0)
(-0.197707 0 0)
(-0.195029 0 0)
(-0.192351 0 0)
(-0.189673 0 0)
(-0.186993 0 0)
(-0.184314 0 0)
(-0.181634 0 0)
(-0.178953 0 0)
(-0.176272 0 0)
(-0.173591 0 0)
(-0.170909 0 0)
(-0.168227 0 0)
(-0.165544 0 0)
(-0.162861 0 0)
(-0.160177 0 0)
(-0.157493 0 0)
(-0.154808 0 0)
(-0.152124 0 0)
(-0.149438 0 0)
(-0.146753 0 0)
(-0.144067 0 0)
(-0.14138 0 0)
(-0.138693 0 0)
(-0.136006 0 0)
(-0.133319 0 0)
(-0.130631 0 0)
(-0.127943 0 0)
(-0.125254 0 0)
(-0.122565 0 0)
(-0.119876 0 0)
(-0.117187 0 0)
(-0.114497 0 0)
(-0.111807 0 0)
(-0.109117 0 0)
(-0.106426 0 0)
(-0.103735 0 0)
(-0.101044 0 0)
(-0.0983526 0 0)
(-0.0956609 0 0)
(-0.092969 0 0)
(-0.0902769 0 0)
(-0.0875845 0 0)
(-0.0848919 0 0)
(-0.0821991 0 0)
(-0.0795061 0 0)
(-0.0768128 0 0)
(-0.0741194 0 0)
(-0.0714258 0 0)
(-0.068732 0 0)
(-0.066038 0 0)
(-0.0633439 0 0)
(-0.0606496 0 0)
(-0.0579551 0 0)
(-0.0552605 0 0)
(-0.0525658 0 0)
(-0.0498709 0 0)
(-0.0471759 0 0)
(-0.0444808 0 0)
(-0.0417855 0 0)
(-0.0390902 0 0)
(-0.0363948 0 0)
(-0.0336992 0 0)
(-0.0310036 0 0)
(-0.0283079 0 0)
(-0.0256121 0 0)
(-0.0229163 0 0)
(-0.0202204 0 0)
(-0.0175244 0 0)
(-0.0148284 0 0)
(-0.0121324 0 0)
(-0.00943636 0 0)
(-0.00674027 0 0)
(-0.00404417 0 0)
(-0.00134806 0 0)
)
;

boundaryField
{
    left
    {
        type            fixedValue;
        value           uniform (0 0 0);
    }
    right
    {
        type            fixedValue;
        value           uniform (0 0 0);
    }
    frontBackUpDown
    {
        type            empty;
    }
}


// ************************************************************************* //
