/*--------------------------------*- C++ -*----------------------------------*\
| =========                 |                                                 |
| \\      /  F ield         | OpenFOAM: The Open Source CFD Toolbox           |
|  \\    /   O peration     | Version:  2412                                  |
|   \\  /    A nd           | Website:  www.openfoam.com                      |
|    \\/     M anipulation  |                                                 |
\*---------------------------------------------------------------------------*/
FoamFile
{
    version     2.0;
    format      ascii;
    arch        "LSB;label=32;scalar=64";
    class       volVectorField;
    location    "0.61";
    object      U_0_0;
}
// * * * * * * * * * * * * * * * * * * * * * * * * * * * * * * * * * * * * * //

dimensions      [0 1 -1 0 0 0 0];

internalField   nonuniform List<vector> 
800
(
(0.00134877 0 0)
(0.00404633 0 0)
(0.00674388 0 0)
(0.00944142 0 0)
(0.0121389 0 0)
(0.0148364 0 0)
(0.0175339 0 0)
(0.0202313 0 0)
(0.0229286 0 0)
(0.0256259 0 0)
(0.0283231 0 0)
(0.0310203 0 0)
(0.0337174 0 0)
(0.0364143 0 0)
(0.0391112 0 0)
(0.041808 0 0)
(0.0445047 0 0)
(0.0472013 0 0)
(0.0498978 0 0)
(0.0525941 0 0)
(0.0552903 0 0)
(0.0579863 0 0)
(0.0606822 0 0)
(0.063378 0 0)
(0.0660736 0 0)
(0.068769 0 0)
(0.0714643 0 0)
(0.0741593 0 0)
(0.0768542 0 0)
(0.0795489 0 0)
(0.0822434 0 0)
(0.0849376 0 0)
(0.0876317 0 0)
(0.0903255 0 0)
(0.0930191 0 0)
(0.0957124 0 0)
(0.0984055 0 0)
(0.101098 0 0)
(0.103791 0 0)
(0.106483 0 0)
(0.109175 0 0)
(0.111867 0 0)
(0.114559 0 0)
(0.11725 0 0)
(0.119941 0 0)
(0.122631 0 0)
(0.125322 0 0)
(0.128012 0 0)
(0.130701 0 0)
(0.13339 0 0)
(0.136079 0 0)
(0.138768 0 0)
(0.141456 0 0)
(0.144144 0 0)
(0.146831 0 0)
(0.149519 0 0)
(0.152205 0 0)
(0.154892 0 0)
(0.157577 0 0)
(0.160263 0 0)
(0.162948 0 0)
(0.165633 0 0)
(0.168317 0 0)
(0.171001 0 0)
(0.173684 0 0)
(0.176367 0 0)
(0.179049 0 0)
(0.181731 0 0)
(0.184413 0 0)
(0.187094 0 0)
(0.189774 0 0)
(0.192454 0 0)
(0.195134 0 0)
(0.197813 0 0)
(0.200491 0 0)
(0.203169 0 0)
(0.205846 0 0)
(0.208523 0 0)
(0.2112 0 0)
(0.213875 0 0)
(0.21655 0 0)
(0.219225 0 0)
(0.221899 0 0)
(0.224572 0 0)
(0.227245 0 0)
(0.229917 0 0)
(0.232589 0 0)
(0.23526 0 0)
(0.23793 0 0)
(0.2406 0 0)
(0.243269 0 0)
(0.245937 0 0)
(0.248605 0 0)
(0.251272 0 0)
(0.253939 0 0)
(0.256604 0 0)
(0.259269 0 0)
(0.261934 0 0)
(0.264597 0 0)
(0.26726 0 0)
(0.269922 0 0)
(0.272583 0 0)
(0.275244 0 0)
(0.277904 0 0)
(0.280563 0 0)
(0.283221 0 0)
(0.285879 0 0)
(0.288536 0 0)
(0.291192 0 0)
(0.293847 0 0)
(0.296501 0 0)
(0.299155 0 0)
(0.301807 0 0)
(0.304459 0 0)
(0.30711 0 0)
(0.30976 0 0)
(0.31241 0 0)
(0.315058 0 0)
(0.317706 0 0)
(0.320352 0 0)
(0.322998 0 0)
(0.325643 0 0)
(0.328287 0 0)
(0.33093 0 0)
(0.333572 0 0)
(0.336213 0 0)
(0.338853 0 0)
(0.341492 0 0)
(0.34413 0 0)
(0.346767 0 0)
(0.349404 0 0)
(0.352039 0 0)
(0.354673 0 0)
(0.357306 0 0)
(0.359938 0 0)
(0.362569 0 0)
(0.365199 0 0)
(0.367828 0 0)
(0.370456 0 0)
(0.373083 0 0)
(0.375708 0 0)
(0.378333 0 0)
(0.380956 0 0)
(0.383579 0 0)
(0.3862 0 0)
(0.38882 0 0)
(0.391439 0 0)
(0.394057 0 0)
(0.396673 0 0)
(0.399289 0 0)
(0.401903 0 0)
(0.404516 0 0)
(0.407127 0 0)
(0.409738 0 0)
(0.412347 0 0)
(0.414955 0 0)
(0.417562 0 0)
(0.420167 0 0)
(0.422772 0 0)
(0.425375 0 0)
(0.427976 0 0)
(0.430576 0 0)
(0.433175 0 0)
(0.435773 0 0)
(0.438369 0 0)
(0.440964 0 0)
(0.443558 0 0)
(0.44615 0 0)
(0.44874 0 0)
(0.45133 0 0)
(0.453918 0 0)
(0.456504 0 0)
(0.459089 0 0)
(0.461672 0 0)
(0.464254 0 0)
(0.466835 0 0)
(0.469414 0 0)
(0.471992 0 0)
(0.474568 0 0)
(0.477142 0 0)
(0.479715 0 0)
(0.482286 0 0)
(0.484856 0 0)
(0.487424 0 0)
(0.489991 0 0)
(0.492556 0 0)
(0.495119 0 0)
(0.497681 0 0)
(0.500241 0 0)
(0.5028 0 0)
(0.505356 0 0)
(0.507911 0 0)
(0.510465 0 0)
(0.513016 0 0)
(0.515566 0 0)
(0.518114 0 0)
(0.52066 0 0)
(0.523205 0 0)
(0.525747 0 0)
(0.528288 0 0)
(0.530827 0 0)
(0.533365 0 0)
(0.5359 0 0)
(0.538433 0 0)
(0.540965 0 0)
(0.543495 0 0)
(0.546022 0 0)
(0.548548 0 0)
(0.551072 0 0)
(0.553594 0 0)
(0.556114 0 0)
(0.558632 0 0)
(0.561148 0 0)
(0.563662 0 0)
(0.566173 0 0)
(0.568683 0 0)
(0.571191 0 0)
(0.573696 0 0)
(0.5762 0 0)
(0.578701 0 0)
(0.5812 0 0)
(0.583697 0 0)
(0.586192 0 0)
(0.588684 0 0)
(0.591174 0 0)
(0.593662 0 0)
(0.596148 0 0)
(0.598632 0 0)
(0.601113 0 0)
(0.603592 0 0)
(0.606068 0 0)
(0.608542 0 0)
(0.611014 0 0)
(0.613483 0 0)
(0.61595 0 0)
(0.618415 0 0)
(0.620877 0 0)
(0.623336 0 0)
(0.625793 0 0)
(0.628248 0 0)
(0.6307 0 0)
(0.633149 0 0)
(0.635596 0 0)
(0.63804 0 0)
(0.640481 0 0)
(0.64292 0 0)
(0.645356 0 0)
(0.64779 0 0)
(0.65022 0 0)
(0.652648 0 0)
(0.655074 0 0)
(0.657496 0 0)
(0.659915 0 0)
(0.662332 0 0)
(0.664746 0 0)
(0.667157 0 0)
(0.669565 0 0)
(0.67197 0 0)
(0.674372 0 0)
(0.676771 0 0)
(0.679167 0 0)
(0.68156 0 0)
(0.68395 0 0)
(0.686336 0 0)
(0.68872 0 0)
(0.6911 0 0)
(0.693478 0 0)
(0.695852 0 0)
(0.698222 0 0)
(0.70059 0 0)
(0.702954 0 0)
(0.705315 0 0)
(0.707672 0 0)
(0.710026 0 0)
(0.712377 0 0)
(0.714724 0 0)
(0.717067 0 0)
(0.719407 0 0)
(0.721744 0 0)
(0.724077 0 0)
(0.726406 0 0)
(0.728732 0 0)
(0.731053 0 0)
(0.733372 0 0)
(0.735686 0 0)
(0.737996 0 0)
(0.740303 0 0)
(0.742606 0 0)
(0.744905 0 0)
(0.7472 0 0)
(0.749491 0 0)
(0.751778 0 0)
(0.75406 0 0)
(0.756339 0 0)
(0.758614 0 0)
(0.760884 0 0)
(0.76315 0 0)
(0.765412 0 0)
(0.76767 0 0)
(0.769923 0 0)
(0.772171 0 0)
(0.774416 0 0)
(0.776656 0 0)
(0.778891 0 0)
(0.781121 0 0)
(0.783347 0 0)
(0.785569 0 0)
(0.787785 0 0)
(0.789997 0 0)
(0.792204 0 0)
(0.794406 0 0)
(0.796603 0 0)
(0.798796 0 0)
(0.800983 0 0)
(0.803165 0 0)
(0.805342 0 0)
(0.807513 0 0)
(0.80968 0 0)
(0.811841 0 0)
(0.813996 0 0)
(0.816147 0 0)
(0.818291 0 0)
(0.82043 0 0)
(0.822564 0 0)
(0.824692 0 0)
(0.826814 0 0)
(0.82893 0 0)
(0.831041 0 0)
(0.833145 0 0)
(0.835244 0 0)
(0.837336 0 0)
(0.839422 0 0)
(0.841502 0 0)
(0.843576 0 0)
(0.845643 0 0)
(0.847704 0 0)
(0.849758 0 0)
(0.851806 0 0)
(0.853847 0 0)
(0.855881 0 0)
(0.857908 0 0)
(0.859929 0 0)
(0.861942 0 0)
(0.863948 0 0)
(0.865947 0 0)
(0.867939 0 0)
(0.869923 0 0)
(0.8719 0 0)
(0.873869 0 0)
(0.87583 0 0)
(0.877784 0 0)
(0.87973 0 0)
(0.881668 0 0)
(0.883597 0 0)
(0.885519 0 0)
(0.887432 0 0)
(0.889337 0 0)
(0.891233 0 0)
(0.89312 0 0)
(0.894999 0 0)
(0.896868 0 0)
(0.898729 0 0)
(0.90058 0 0)
(0.902422 0 0)
(0.904255 0 0)
(0.906078 0 0)
(0.907891 0 0)
(0.909694 0 0)
(0.911487 0 0)
(0.91327 0 0)
(0.915043 0 0)
(0.916805 0 0)
(0.918557 0 0)
(0.920297 0 0)
(0.922027 0 0)
(0.923745 0 0)
(0.925452 0 0)
(0.927148 0 0)
(0.928831 0 0)
(0.930503 0 0)
(0.932162 0 0)
(0.933809 0 0)
(0.935444 0 0)
(0.937065 0 0)
(0.938674 0 0)
(0.940269 0 0)
(0.941851 0 0)
(0.943419 0 0)
(0.944973 0 0)
(0.946513 0 0)
(0.948038 0 0)
(0.949548 0 0)
(0.951044 0 0)
(0.952523 0 0)
(0.953989 0 0)
(0.955422 0 0)
(0.957012 0 0)
(0.956741 0 0)
(0.975777 0 0)
(0.578924 0 0)
(-0.577545 0 0)
(-0.975758 0 0)
(-0.956741 0 0)
(-0.957011 0 0)
(-0.955421 0 0)
(-0.953987 0 0)
(-0.952522 0 0)
(-0.951042 0 0)
(-0.949547 0 0)
(-0.948037 0 0)
(-0.946511 0 0)
(-0.944972 0 0)
(-0.943418 0 0)
(-0.94185 0 0)
(-0.940268 0 0)
(-0.938672 0 0)
(-0.937064 0 0)
(-0.935442 0 0)
(-0.933808 0 0)
(-0.932161 0 0)
(-0.930501 0 0)
(-0.928829 0 0)
(-0.927146 0 0)
(-0.92545 0 0)
(-0.923743 0 0)
(-0.922025 0 0)
(-0.920296 0 0)
(-0.918555 0 0)
(-0.916803 0 0)
(-0.915041 0 0)
(-0.913269 0 0)
(-0.911485 0 0)
(-0.909692 0 0)
(-0.907889 0 0)
(-0.906076 0 0)
(-0.904253 0 0)
(-0.90242 0 0)
(-0.900578 0 0)
(-0.898727 0 0)
(-0.896866 0 0)
(-0.894997 0 0)
(-0.893118 0 0)
(-0.891231 0 0)
(-0.889334 0 0)
(-0.88743 0 0)
(-0.885517 0 0)
(-0.883595 0 0)
(-0.881666 0 0)
(-0.879728 0 0)
(-0.877782 0 0)
(-0.875828 0 0)
(-0.873867 0 0)
(-0.871898 0 0)
(-0.869921 0 0)
(-0.867937 0 0)
(-0.865945 0 0)
(-0.863946 0 0)
(-0.86194 0 0)
(-0.859926 0 0)
(-0.857906 0 0)
(-0.855879 0 0)
(-0.853845 0 0)
(-0.851804 0 0)
(-0.849756 0 0)
(-0.847702 0 0)
(-0.845641 0 0)
(-0.843574 0 0)
(-0.8415 0 0)
(-0.83942 0 0)
(-0.837334 0 0)
(-0.835241 0 0)
(-0.833143 0 0)
(-0.831038 0 0)
(-0.828928 0 0)
(-0.826812 0 0)
(-0.82469 0 0)
(-0.822562 0 0)
(-0.820428 0 0)
(-0.818289 0 0)
(-0.816144 0 0)
(-0.813994 0 0)
(-0.811838 0 0)
(-0.809677 0 0)
(-0.807511 0 0)
(-0.805339 0 0)
(-0.803162 0 0)
(-0.80098 0 0)
(-0.798793 0 0)
(-0.796601 0 0)
(-0.794404 0 0)
(-0.792202 0 0)
(-0.789995 0 0)
(-0.787783 0 0)
(-0.785566 0 0)
(-0.783345 0 0)
(-0.781119 0 0)
(-0.778888 0 0)
(-0.776653 0 0)
(-0.774413 0 0)
(-0.772169 0 0)
(-0.76992 0 0)
(-0.767667 0 0)
(-0.76541 0 0)
(-0.763148 0 0)
(-0.760882 0 0)
(-0.758611 0 0)
(-0.756337 0 0)
(-0.754058 0 0)
(-0.751775 0 0)
(-0.749488 0 0)
(-0.747197 0 0)
(-0.744903 0 0)
(-0.742604 0 0)
(-0.740301 0 0)
(-0.737994 0 0)
(-0.735684 0 0)
(-0.733369 0 0)
(-0.731051 0 0)
(-0.728729 0 0)
(-0.726404 0 0)
(-0.724074 0 0)
(-0.721742 0 0)
(-0.719405 0 0)
(-0.717065 0 0)
(-0.714721 0 0)
(-0.712374 0 0)
(-0.710024 0 0)
(-0.70767 0 0)
(-0.705312 0 0)
(-0.702952 0 0)
(-0.700588 0 0)
(-0.69822 0 0)
(-0.695849 0 0)
(-0.693475 0 0)
(-0.691098 0 0)
(-0.688718 0 0)
(-0.686334 0 0)
(-0.683947 0 0)
(-0.681558 0 0)
(-0.679165 0 0)
(-0.676769 0 0)
(-0.67437 0 0)
(-0.671968 0 0)
(-0.669563 0 0)
(-0.667155 0 0)
(-0.664744 0 0)
(-0.66233 0 0)
(-0.659913 0 0)
(-0.657494 0 0)
(-0.655071 0 0)
(-0.652646 0 0)
(-0.650218 0 0)
(-0.647788 0 0)
(-0.645354 0 0)
(-0.642918 0 0)
(-0.640479 0 0)
(-0.638038 0 0)
(-0.635594 0 0)
(-0.633147 0 0)
(-0.630698 0 0)
(-0.628246 0 0)
(-0.625791 0 0)
(-0.623334 0 0)
(-0.620875 0 0)
(-0.618413 0 0)
(-0.615948 0 0)
(-0.613481 0 0)
(-0.611012 0 0)
(-0.60854 0 0)
(-0.606066 0 0)
(-0.60359 0 0)
(-0.601111 0 0)
(-0.59863 0 0)
(-0.596146 0 0)
(-0.593661 0 0)
(-0.591173 0 0)
(-0.588682 0 0)
(-0.58619 0 0)
(-0.583695 0 0)
(-0.581198 0 0)
(-0.578699 0 0)
(-0.576198 0 0)
(-0.573694 0 0)
(-0.571189 0 0)
(-0.568681 0 0)
(-0.566172 0 0)
(-0.56366 0 0)
(-0.561146 0 0)
(-0.55863 0 0)
(-0.556112 0 0)
(-0.553592 0 0)
(-0.55107 0 0)
(-0.548547 0 0)
(-0.546021 0 0)
(-0.543493 0 0)
(-0.540963 0 0)
(-0.538432 0 0)
(-0.535898 0 0)
(-0.533363 0 0)
(-0.530826 0 0)
(-0.528287 0 0)
(-0.525746 0 0)
(-0.523203 0 0)
(-0.520659 0 0)
(-0.518112 0 0)
(-0.515564 0 0)
(-0.513015 0 0)
(-0.510463 0 0)
(-0.50791 0 0)
(-0.505355 0 0)
(-0.502798 0 0)
(-0.50024 0 0)
(-0.49768 0 0)
(-0.495118 0 0)
(-0.492555 0 0)
(-0.48999 0 0)
(-0.487423 0 0)
(-0.484855 0 0)
(-0.482285 0 0)
(-0.479714 0 0)
(-0.477141 0 0)
(-0.474566 0 0)
(-0.47199 0 0)
(-0.469413 0 0)
(-0.466834 0 0)
(-0.464253 0 0)
(-0.461671 0 0)
(-0.459088 0 0)
(-0.456503 0 0)
(-0.453916 0 0)
(-0.451328 0 0)
(-0.448739 0 0)
(-0.446149 0 0)
(-0.443556 0 0)
(-0.440963 0 0)
(-0.438368 0 0)
(-0.435772 0 0)
(-0.433174 0 0)
(-0.430575 0 0)
(-0.427975 0 0)
(-0.425373 0 0)
(-0.422771 0 0)
(-0.420166 0 0)
(-0.417561 0 0)
(-0.414954 0 0)
(-0.412346 0 0)
(-0.409737 0 0)
(-0.407126 0 0)
(-0.404515 0 0)
(-0.401902 0 0)
(-0.399288 0 0)
(-0.396672 0 0)
(-0.394056 0 0)
(-0.391438 0 0)
(-0.388819 0 0)
(-0.386199 0 0)
(-0.383578 0 0)
(-0.380956 0 0)
(-0.378332 0 0)
(-0.375708 0 0)
(-0.373082 0 0)
(-0.370455 0 0)
(-0.367827 0 0)
(-0.365198 0 0)
(-0.362568 0 0)
(-0.359937 0 0)
(-0.357305 0 0)
(-0.354672 0 0)
(-0.352038 0 0)
(-0.349403 0 0)
(-0.346767 0 0)
(-0.344129 0 0)
(-0.341491 0 0)
(-0.338852 0 0)
(-0.336212 0 0)
(-0.333571 0 0)
(-0.330929 0 0)
(-0.328286 0 0)
(-0.325642 0 0)
(-0.322997 0 0)
(-0.320352 0 0)
(-0.317705 0 0)
(-0.315058 0 0)
(-0.312409 0 0)
(-0.30976 0 0)
(-0.30711 0 0)
(-0.304459 0 0)
(-0.301807 0 0)
(-0.299154 0 0)
(-0.296501 0 0)
(-0.293846 0 0)
(-0.291191 0 0)
(-0.288535 0 0)
(-0.285878 0 0)
(-0.283221 0 0)
(-0.280563 0 0)
(-0.277903 0 0)
(-0.275244 0 0)
(-0.272583 0 0)
(-0.269922 0 0)
(-0.267259 0 0)
(-0.264597 0 0)
(-0.261933 0 0)
(-0.259269 0 0)
(-0.256604 0 0)
(-0.253938 0 0)
(-0.251272 0 0)
(-0.248605 0 0)
(-0.245937 0 0)
(-0.243269 0 0)
(-0.2406 0 0)
(-0.23793 0 0)
(-0.23526 0 0)
(-0.232589 0 0)
(-0.229917 0 0)
(-0.227245 0 0)
(-0.224572 0 0)
(-0.221899 0 0)
(-0.219225 0 0)
(-0.21655 0 0)
(-0.213875 0 0)
(-0.211199 0 0)
(-0.208523 0 0)
(-0.205846 0 0)
(-0.203169 0 0)
(-0.200491 0 0)
(-0.197812 0 0)
(-0.195133 0 0)
(-0.192454 0 0)
(-0.189774 0 0)
(-0.187094 0 0)
(-0.184413 0 0)
(-0.181731 0 0)
(-0.179049 0 0)
(-0.176367 0 0)
(-0.173684 0 0)
(-0.171001 0 0)
(-0.168317 0 0)
(-0.165633 0 0)
(-0.162948 0 0)
(-0.160263 0 0)
(-0.157577 0 0)
(-0.154891 0 0)
(-0.152205 0 0)
(-0.149518 0 0)
(-0.146831 0 0)
(-0.144144 0 0)
(-0.141456 0 0)
(-0.138768 0 0)
(-0.136079 0 0)
(-0.13339 0 0)
(-0.130701 0 0)
(-0.128011 0 0)
(-0.125321 0 0)
(-0.122631 0 0)
(-0.119941 0 0)
(-0.11725 0 0)
(-0.114559 0 0)
(-0.111867 0 0)
(-0.109175 0 0)
(-0.106483 0 0)
(-0.103791 0 0)
(-0.101098 0 0)
(-0.0984055 0 0)
(-0.0957124 0 0)
(-0.093019 0 0)
(-0.0903254 0 0)
(-0.0876316 0 0)
(-0.0849376 0 0)
(-0.0822433 0 0)
(-0.0795488 0 0)
(-0.0768542 0 0)
(-0.0741593 0 0)
(-0.0714642 0 0)
(-0.068769 0 0)
(-0.0660736 0 0)
(-0.063378 0 0)
(-0.0606822 0 0)
(-0.0579863 0 0)
(-0.0552903 0 0)
(-0.0525941 0 0)
(-0.0498977 0 0)
(-0.0472013 0 0)
(-0.0445047 0 0)
(-0.041808 0 0)
(-0.0391112 0 0)
(-0.0364143 0 0)
(-0.0337174 0 0)
(-0.0310203 0 0)
(-0.0283231 0 0)
(-0.0256259 0 0)
(-0.0229286 0 0)
(-0.0202313 0 0)
(-0.0175339 0 0)
(-0.0148364 0 0)
(-0.0121389 0 0)
(-0.00944144 0 0)
(-0.0067439 0 0)
(-0.00404635 0 0)
(-0.00134878 0 0)
)
;

boundaryField
{
    left
    {
        type            fixedValue;
        value           uniform (0 0 0);
    }
    right
    {
        type            fixedValue;
        value           uniform (0 0 0);
    }
    frontBackUpDown
    {
        type            empty;
    }
}


// ************************************************************************* //
