/*--------------------------------*- C++ -*----------------------------------*\
| =========                 |                                                 |
| \\      /  F ield         | OpenFOAM: The Open Source CFD Toolbox           |
|  \\    /   O peration     | Version:  2412                                  |
|   \\  /    A nd           | Website:  www.openfoam.com                      |
|    \\/     M anipulation  |                                                 |
\*---------------------------------------------------------------------------*/
FoamFile
{
    version     2.0;
    format      ascii;
    arch        "LSB;label=32;scalar=64";
    class       volScalarField;
    location    "0";
    object      T_0;
}
// * * * * * * * * * * * * * * * * * * * * * * * * * * * * * * * * * * * * * //

dimensions      [0 0 0 1 0 0 0];

internalField   nonuniform List<scalar> 
2000
(
1.320192793898215e-14
1.430001912833376e-14
1.548789691804565e-14
1.677277229461977e-14
1.816242455339115e-14
1.9665245204943e-14
2.129028520286305e-14
2.304730573851326e-14
2.494683286622703e-14
2.700021624133757e-14
2.92196922737657e-14
3.16184520216428e-14
3.421071417271769e-14
3.701180348619221e-14
4.003823509426355e-14
4.330780509114032e-14
4.683968786776591e-14
5.065454068305996e-14
5.477461599732801e-14
5.922388213072918e-14
6.402815284950386e-14
6.921522652521449e-14
7.481503555773025e-14
8.085980680127585e-14
8.738423378479619e-14
9.442566157334398e-14
1.020242851764643e-13
1.102233624728245e-13
1.190694426879305e-13
1.286126115339344e-13
1.389067541975997e-13
1.50009837444735e-13
1.619842121972398e-13
1.748969380325876e-13
1.888201311556098e-13
2.038313374991499e-13
2.200139327239966e-13
2.374575510100083e-13
2.562585446598377e-13
2.765204766748844e-13
2.983546486104381e-13
3.21880666174081e-13
3.472270451989141e-13
3.745318608017654e-13
4.039434427268017e-13
4.356211200778678e-13
4.697360188589535e-13
5.064719159725379e-13
5.460261535708804e-13
5.886106179166902e-13
6.344527871879648e-13
6.83796852958254e-13
7.36904920399222e-13
7.940582925885701e-13
8.555588446640445e-13
9.217304939452589e-13
9.929207725502453e-13
1.069502509465154e-12
1.151875629484424e-12
1.24046907692707e-12
1.335742872554271e-12
1.438190312665896e-12
1.548340319941374e-12
1.666759956215049e-12
1.794057108040692e-12
1.930883356606188e-12
2.077937044310324e-12
2.235966551111613e-12
2.405773794607075e-12
2.588217968700703e-12
2.784219536678054e-12
2.994764495521249e-12
3.220908929379028e-12
3.463783871253768e-12
3.724600493186554e-12
4.004655646514723e-12
4.305337775150753e-12
4.628133226289041e-12
4.974632984495427e-12
5.346539856776831e-12
5.745676137971635e-12
6.173991787650641e-12
6.633573151680908e-12
7.12665226368621e-12
7.655616763843762e-12
8.2230204748004e-12
8.831594676971094e-12
9.484260128114998e-12
1.018413987487496e-11
1.093457290692185e-11
1.173912870747919e-11
1.260162275732486e-11
1.352613305288397e-11
1.451701770275572e-11
1.557893367096371e-11
1.671685673940199e-11
1.793610276637758e-11
1.924235032283859e-11
2.064166479284183e-11
2.214052403006965e-11
2.37458456677664e-11
2.5465016185355e-11
2.730592184121947e-11
2.927698158773303e-11
3.138718209158526e-11
3.364611498982859e-11
3.606401651988311e-11
3.865180966996108e-11
4.142114900512603e-11
4.438446833339014e-11
4.755503138603482e-11
5.094698569660699e-11
5.457541987397082e-11
5.845642447625662e-11
6.260715670474968e-11
6.704590914956854e-11
7.179218283255511e-11
7.686676480714576e-11
8.229181059008452e-11
8.809093171584193e-11
9.42892887214437e-11
1.009136898872329e-10
1.079926960778567e-10
1.155567320476026e-10
1.23638204595131e-10
1.322716279747067e-10
1.414937569943302e-10
1.51343728255695e-10
1.618632100168515e-10
1.73096561185657e-10
1.850909999810263e-10
1.978967828291834e-10
2.11567394094253e-10
2.26159747276114e-10
2.417343983440866e-10
2.583557719122954e-10
2.760924010021886e-10
2.950171811789823e-10
3.152076398927958e-10
3.367462219010656e-10
3.597205916975238e-10
3.842239539239536e-10
4.103553927947442e-10
4.382202316208099e-10
4.679304135789789e-10
4.996049049355707e-10
5.33370121998779e-10
5.69360383143842e-10
6.077183873277753e-10
6.485957205872056e-10
6.921533920934356e-10
7.38562401423565e-10
7.880043387956341e-10
8.406720201093986e-10
8.967701587326939e-10
9.56516076076737e-10
1.020140453112484e-09
1.087888125094005e-09
1.160018921874963e-09
1.236808556329976e-09
1.318549563524811e-09
1.405552293418244e-09
1.498145960023837e-09
1.596679750113014e-09
1.701523994701065e-09
1.81307140672609e-09
1.931738388507521e-09
2.057966412756193e-09
2.192223481102046e-09
2.335005664309533e-09
2.486838728564347e-09
2.648279852439117e-09
2.819919439380548e-09
3.002383030806625e-09
3.196333325160239e-09
3.402472308536154e-09
3.621543502780993e-09
3.854334337262799e-09
4.101678650816957e-09
4.364459330701082e-09
4.643611095731401e-09
4.94012343113012e-09
5.255043682986516e-09
5.589480320624603e-09
5.944606375579516e-09
6.321663066312018e-09
6.721963618238063e-09
7.146897289118215e-09
7.597933610341124e-09
8.076626855147096e-09
8.584620745372281e-09
9.123653408854553e-09
9.695562600224393e-09
1.030229119841817e-08
1.094589299488648e-08
1.162853878713856e-08
1.235252279296083e-08
1.312026940137363e-08
1.393434027715129e-08
1.479744183652322e-08
1.571243311250199e-08
1.668233402914865e-08
1.771033410498752e-08
1.879980160672444e-08
1.995429317540261e-08
2.117756394815921e-08
2.247357819980603e-08
2.384652052958178e-08
2.530080761957746e-08
2.684110059254901e-08
2.847231799809883e-08
3.019964945751526e-08
3.202856999893347e-08
3.396485511591554e-08
3.60145965840216e-08
3.818421907150831e-08
4.048049758189065e-08
4.291057576779594e-08
4.548198515727783e-08
4.820266533558168e-08
5.108098512724765e-08
5.412576482541479e-08
5.73462995172201e-08
6.075238355634855e-08
6.435433623598299e-08
6.81630287177212e-08
7.218991227442908e-08
7.644704790747721e-08
8.094713740141829e-08
8.570355588183636e-08
9.073038594490752e-08
9.604245343012323e-08
1.016553649106153e-07
1.075855469787002e-07
1.138502874074765e-07
1.204677782727095e-07
1.274571611227161e-07
1.348385742876586e-07
1.426332024233429e-07
1.50863328388623e-07
1.59552387559509e-07
1.687250246873275e-07
1.784071534126225e-07
1.886260185510409e-07
1.994102612721006e-07
2.10789987296659e-07
2.227968382438573e-07
2.35464066263633e-07
2.48826612096188e-07
2.629211867055174e-07
2.777863566397872e-07
2.934626332774285e-07
3.099925661239722e-07
3.274208403311288e-07
3.457943786161905e-07
3.651624477668028e-07
3.855767699231479e-07
4.07091638837063e-07
4.297640413150961e-07
4.536537840604895e-07
4.78823626137019e-07
5.053394172862607e-07
5.33270242338201e-07
5.626885719644377e-07
5.936704200320554e-07
6.26295507826152e-07
6.606474354186154e-07
6.968138604710326e-07
7.348866847700044e-07
7.74962248804113e-07
8.171415347027098e-07
8.615303778684934e-07
9.082396876473544e-07
9.573856773916515e-07
1.009090104285081e-06
1.063480519310984e-06
1.120690527758592e-06
1.180860060676149e-06
1.244135657693395e-06
1.310670761651148e-06
1.380626025490012e-06
1.454169631866511e-06
1.531477625980024e-06
1.612734262110844e-06
1.698132364386388e-06
1.787873702309566e-06
1.882169381601433e-06
1.981240250928352e-06
2.085317325102752e-06
2.194642225365476e-06
2.309467637378194e-06
2.430057787573815e-06
2.556688938534404e-06
2.689649904086872e-06
2.829242584829415e-06
2.975782524822956e-06
3.129599490206712e-06
3.291038070518288e-06
3.460458303525691e-06
3.638236324400515e-06
3.824765040089877e-06
4.020454829768207e-06
4.225734272278495e-06
4.441050901498506e-06
4.666871990596708e-06
4.903685366169774e-06
5.152000253283766e-06
5.412348152470625e-06
5.685283749761722e-06
5.971385860872029e-06
6.271258410679709e-06
6.585531449178477e-06
6.914862205113752e-06
7.259936178546693e-06
7.621468273625109e-06
8.000203972875777e-06
8.396920554367474e-06
8.81242835313187e-06
9.247572068265874e-06
9.703232117176857e-06
1.018032603847149e-05
1.067980994502723e-05
1.120268002882673e-05
1.174997411917425e-05
1.23227732959565e-05
1.292220355965061e-05
1.354943755982593e-05
1.420569638392777e-05
1.48922514081782e-05
1.561042621246904e-05
1.63615985611729e-05
1.714720245183852e-05
1.796873023378666e-05
1.882773479866881e-05
1.972583184509769e-05
2.066470221950752e-05
2.164609433545023e-05
2.267182667358428e-05
2.374379036465802e-05
2.486395185784872e-05
2.60343556768551e-05
2.725712726620888e-05
2.853447593030637e-05
2.9868697867725e-05
3.126217930343365e-05
3.271739972156502e-05
3.423693520146269e-05
3.582346185977844e-05
3.747975940143735e-05
3.920871478235361e-05
4.101332598682267e-05
4.289670592257433e-05
4.486208643652592e-05
4.691282245432416e-05
4.905239624681995e-05
5.128442182667727e-05
5.361264947836046e-05
5.604097042480816e-05
5.857342163415266e-05
6.121419076988519e-05
6.396762128793468e-05
6.683821768417002e-05
6.983065089588862e-05
7.294976386090241e-05
7.620057723788769e-05
7.958829529170764e-05
8.311831194746557e-05
8.679621701710245e-05
9.06278026023772e-05
9.461906967814526e-05
9.877623485985868e-05
0.0001031057373592861
0.0001076142461324608
0.0001123086672239397
0.0001171961513114579
0.0001222841014551266
0.0001275801810553446
0.0001330923220236265
0.0001388287331705851
0.0001447979088153331
0.0001510086376205906
0.0001574700116578121
0.0001641914357066789
0.0001711826367932883
0.0001784536739714354
0.0001860149483513488
0.0001938772133802851
0.0002020515853793795
0.0002105495543411489
0.0002193829949920553
0.000228564178124532
0.0002381057822028623
0.0002480209052472828
0.0002583230770006876
0.0002690262713822841
0.0002801449192324999
0.0002916939213534636
0.0003036886618492985
0.0003161450217704631
0.0003290793930663187
0.0003425086928500459
0.000356450377980006
0.0003709224599615578
0.0003859435201732754
0.0004015327254214682
0.0004177098438268115
0.0004344952610468037
0.0004519099968376783
0.0004699757219593463
0.0004887147754267631
0.0005081501821110828
0.0005283056706938059
0.0005492056919769901
0.0005708754375525108
0.0005933408588331674
0.0006166286864483158
0.0006407664500065586
0.0006657824982278229
0.0006917060194470369
0.0007185670624913752
0.0007463965579329399
0.0007752263397184341
0.0008050891671773067
0.0008360187474095238
0.0008680497580539373
0.0009012178704380334
0.0009355597731094977
0.0009711131957498993
0.001007916933470453
0.001046010871489514
0.001085436010191314
0.001126234490565038
0.001168449620022992
0.001212125898596553
0.001257309045507823
0.001304046026115139
0.001352385079229657
0.00140237574480036
0.001454068891964192
0.001507516747457648
0.001562772924385979
0.001619892451345436
0.001678931801893905
0.001739948924364566
0.001803003272016972
0.00186815583351947
0.001935469163756233
0.00200500741495204
0.002076836368107141
0.002151023464734249
0.002227637838889106
0.002306750349485587
0.002388433612885792
0.002472762035754966
0.002559811848170725
0.00264966113697515
0.002742389879358258
0.002838079976660152
0.00293681528837934
0.003038681666373101
0.003143766989236278
0.003252161196843472
0.003363956325039026
0.003479246540459286
0.00359812817546978
0.003720699763200552
0.003847062072661263
0.003977318143917379
0.004111573323308296
0.004249935298687201
0.004392514134661757
0.004539422307814438
0.004690774741880144
0.004846688842858219
0.005007284534035414
0.005172684290895263
0.00534301317588898
0.005518398873041834
0.005698971722368881
0.005884864754072429
0.006076213722493296
0.006273157139787179
0.006475836309296636
0.006684395358588504
0.00689898127212534
0.007119743923539851
0.007346836107479366
0.007580413570987085
0.007820635044386679
0.008067662271634786
0.008321660040106774
0.008582796209779267
0.008851241741772457
0.009127170726215135
0.00941076040939358
0.009702191220146089
0.01000164679546281
0.01030931400525116
0.01062538297622583
0.01095004711488131
0.01128350312950524
0.01162595105118989
0.01197759425379764
0.0123386394728373
0.01270929682320587
0.01308977981575154
0.01348030537261157
0.01388109384127918
0.01429236900735299
0.0147143581059217
0.01514729183153626
0.0155914043467231
0.01604693328898723
0.01651411977626002
0.01699320841073981
0.01748444728107813
0.01798808796286029
0.0185043855173326
0.01903359848832393
0.01957598889731355
0.02013182223659425
0.02070136746047973
0.02128489697450685
0.02188268662258272
0.02249501567202453
0.02312216679644378
0.02376442605642333
0.02442208287793899
0.02509543002847359
0.02578476359077537
0.02649038293421207
0.02721259068367035
0.02795169268595332
0.0287079979736262
0.02948181872626574
0.03027347022906407
0.03108327082873932
0.03191154188671189
0.03275860772949647
0.03362479559626828
0.03451043558355942
0.03541586058704263
0.03634140624036047
0.03728741085096168
0.03825421533289984
0.03924216313656263
0.04025160017528944
0.0412828747488428
0.04233633746370047
0.04341234115013053
0.04451124077602298
0.04563339335744456
0.04677915786588525
0.04794889513217587
0.04914296774704367
0.05036173995828709
0.05160557756454661
0.05287484780564872
0.05416991924950906
0.05549116167557355
0.05683894595478722
0.05821364392607873
0.05961562826934429
0.06104527237493163
0.06250295020961384
0.06398903617904947
0.06550390498673012
0.06704793148941834
0.06862149054907504
0.07022495688128944
0.07185870490021608
0.07352310856003509
0.0752185411929485
0.0769453753437284
0.07870398260084192
0.08049473342417404
0.08231799696937564
0.08417414090886249
0.08606353124950493
0.0879865321470366
0.08994350571722529
0.09193481184384542
0.09396080798350026
0.09602184896733566
0.09811828679970853
0.1002504704538483
0.1024187456645875
0.1046234547182094
0.1068649362394825
0.1091435249759556
0.1114595515795717
0.1138133423856884
0.1162052191895824
0.1186354990205094
0.1211044939134168
0.123612510678393
0.1261598506679468
0.1287468095422106
0.1313736770321682
0.1340407367010144
0.1367482657037442
0.1394965345450851
0.1422858068358931
0.1451163390481119
0.1479883802684329
0.1509021719507682
0.1538579476676622
0.1568559328607861
0.1598963445906251
0.1629793912855149
0.1661052724901556
0.169274178613748
0.1724862906778974
0.1757417800644384
0.1790408082633159
0.1823835266207013
0.1857700760874735
0.1892005869682469
0.1926751786710932
0.1961939594581306
0.1997570261971369
0.2033644641143725
0.2070163465487707
0.2107127347076661
0.2144536774242575
0.2182392109169598
0.2220693585508363
0.2259441306012942
0.2298635240202178
0.2338275222047332
0.237836094768781
0.241889197317691
0.2459867712259489
0.2501287434183319
0.2543150261546154
0.2585455168180415
0.262820097707728
0.2671386358352223
0.2715009827253901
0.2759069742218257
0.2803564302969758
0.2848491548671788
0.2893849356128013
0.2939635438036587
0.2985847341299311
0.3032482445387369
0.307953796076572
0.3127010927377938
0.3174898213193436
0.3223196512818725
0.3271902346174885
0.3321012057242612
0.3370521812877089
0.3420427601694031
0.3470725233029026
0.3521410335971537
0.3572478358475595
0.3623924566548531
0.3675744043519641
0.3727931689390228
0.3780482220266604
0.3833390167877631
0.3886649879178316
0.3940255516040729
0.3994201055033995
0.4048480287294269
0.4103086818486507
0.4158014068858896
0.4213255273391487
0.4268803482039946
0.4324651560075768
0.4380792188523853
0.4437217864698698
0.4493920902839793
0.4550893434847539
0.4608127411120316
0.4665614601493464
0.4723346596280964
0.4781314807420601
0.4839510469722913
0.4897924642224729
0.4956548209647709
0.5015371883962163
0.5074386206056467
0.5133581547512676
0.5192948112488001
0.5252475939702648
0.5312154904533937
0.537197472121663
0.5431924945149431
0.5491994975307343
0.5552174056759839
0.5612451283294264
0.5672815600144268
0.5733255806822585
0.5793760560057686
0.5854318376833679
0.5914917637532678
0.5975546589178691
0.6036193348782508
0.6096845906786096
0.6157492130606044
0.6218119768274265
0.6278716452175394
0.6339269702878991
0.6399766933065746
0.6460195451545682
0.652054246736728
0.658079509401558
0.6640940353697795
0.6700965181714641
0.676085643091525
0.6820600876234301
0.6880185219308823
0.6939596093172905
0.6998820067028134
0.7057843651087475
0.7116653301490407
0.7175235425286778
0.7233576385487253
0.7291662506177577
0.734948007769428
0.7407015361859076
0.7464254597269401
0.7521184004642315
0.7577789792208832
0.7634058161156022
0.7689975311113864
0.7745527445683872
0.7800700778006516
0.7855481536364396
0.7909855969817868
0.796381035387029
0.8017330996159404
0.8070404242171658
0.8123016480976348
0.8175154150976048
0.8226803745670118
0.8277951819427815
0.8328584993267719
0.8378689960639876
0.8428253493207271
0.8477262446623212
0.8525703766301059
0.8573564493172682
0.8620831769432349
0.8667492844262333
0.8713535079536654
0.8758945955499612
0.8803713076415359
0.8847824176185035
0.8891267123927886
0.8934029929522965
0.8976100749107637
0.9017467890529536
0.9058119818748557
0.909804516118511
0.9137232713011451
0.9175671442382505
0.9213350495602872
0.9250259202226436
0.9286387080085539
0.9321723840246098
0.93562593918856
0.9389983847090573
0.9422887525570568
0.9454960959285276
0.948619489698181
0.9516580308639115
0.9546108389816459
0.9574770565903112
0.9602558496266346
0.9629464078294943
0.9655479451335479
0.9680597000518653
0.9704809360473098
0.9728109418924202
0.975049032017533
0.9771945468469196
0.9792468531227015
0.9812053442163177
0.9830694404273425
0.9848385892694308
0.9865122657432073
0.9880899725959037
0.9895712405675651
0.9909556286236588
0.9922427241739159
0.9934321432772641
0.994523530832702
0.995516560755983
0.9964109361419879
0.9972063894126721
0.9979026824504826
0.9984996067171551
0.9989969833578045
0.999394663290238
0.9996925272794286
0.9998904859970963
0.999988480066355
0.9999864800913948
0.9998844866721782
0.9996825304041403
0.9993806718628923
0.9989790015739407
0.9984776399674425
0.9978767373180271
0.9971764736697281
0.9963770587460782
0.9954787318454285
0.994481761721565
0.9933864464497087
0.9921931132779901
0.9909021184645007
0.9895138471000396
0.9880287129166725
0.9864471580822449
0.9847696529809804
0.9829966959803289
0.9811288131842185
0.9791665581728836
0.9771105117294536
0.9749612815534816
0.9727195019616267
0.9703858335756749
0.9679609629981356
0.9654456024756214
0.9628404895502464
0.9601463866992825
0.9573640809633273
0.9544943835632164
0.9515381295059679
0.9484961771800083
0.9453694079399583
0.9421587256812651
0.9388650564049625
0.9354893477728544
0.9320325686534227
0.9284957086587535
0.9248797776728139
0.9211858053713645
0.9174148407338487
0.9135679515475779
0.9096462239045292
0.9056507616911053
0.9015826860711708
0.8974431349627272
0.8932332625085394
0.8889542385410895
0.8846072480421768
0.8801934905975209
0.8757141798467343
0.8711705429289962
0.8665638199247766
0.8618952632939948
0.8571661373109346
0.8523777174962912
0.8475312900466913
0.8426281512620593
0.8376696069711675
0.832656971955732
0.827591569373397
0.8224747301799894
0.8173077925513501
0.8120921013051265
0.8068290073228458
0.8015198669726425
0.7961660415329527
0.7907688966175205
0.7853298016020694
0.7798501290529446
0.7743312541580796
0.7687745541605858
0.7631814077953055
0.7575531947286374
0.7518912950019453
0.7461970884788497
0.7404719542967226
0.7347172703226639
0.7289344126142587
0.7231247548853957
0.7172896679774365
0.7114305193360078
0.7055486724936622
0.6996454865587052
0.6937223157104255
0.6877805087009587
0.6818214083640707
0.6758463511310471
0.6698566665539598
0.6638536768364975
0.6578386963725895
0.6518130312930462
0.6457779790203638
0.6397348278319599
0.6336848564319404
0.62762933353165
0.6215695174391196
0.615506655657606
0.6094419844933547
0.6033767286727442
0.5973121009689445
0.5912493018382187
0.5851895190659832
0.5791339274227582
0.5730836883300872
0.5670399495365476
0.5610038448039212
0.5549764936036221
0.5489590008234408
0.5429524564846819
0.5369579354697421
0.5309764972601917
0.5250091856853772
0.5190570286816119
0.5131210380619439
0.5072022092965576
0.5013015213037756
0.4954199362517096
0.4895583993705321
0.4837178387753411
0.4778991652996452
0.4721032723393953
0.4663310357075556
0.4605833134991756
0.4548609459668987
0.4491647554068707
0.4434955460549804
0.4378541039933708
0.4322411970671383
0.4266575748111475
0.4211039683868812
0.4155810905292325
0.4100896355031231
0.4046302790698824
0.3992036784632441
0.3938104723748712
0.3884512809492816
0.3831267057880409
0.3778373299631286
0.3725837180392965
0.367366416105329
0.3621859518140312
0.3570428344308189
0.3519375548907467
0.3468705858638358
0.3418423818285324
0.3368533791531464
0.3319039961850938
0.3269946333477964
0.3221256732450499
0.317297480772697
0.312510403237436
0.3077647704825776
0.3030608950205774
0.2983990721721586
0.2937795802118511
0.2892026805197486
0.284668617739311
0.2801776199410161
0.2757298987916709
0.2713256497292062
0.2669650521427416
0.2626482695577567
0.2583754498261526
0.2541467253210252
0.2499622131359557
0.2458220152886307
0.2417262189285871
0.2376748965489003
0.2336681062016266
0.2297058917168032
0.2257882829248115
0.2219152958819325
0.2180869330988812
0.2143031837721592
0.2105640240180133
0.2068694171088449
0.2032193137118563
0.1996136521297777
0.1960523585434845
0.192535347256325
0.1890625209399925
0.1856337708817558
0.1822489772328872
0.1789080092581087
0.175610725585909
0.1723569744595341
0.1691465939885219
0.1659794124006093
0.1628552482938439
0.1597739108887641
0.1567352002804926
0.1537389076905828
0.1507848157184847
0.1478726985924945
0.1450023224200255
0.1421734454370896
0.1393858182568403
0.136639184117054
0.133933279126428
0.1312678325095533
0.1286425668504711
0.126057198334672
0.1235114369894334
0.1210049869223962
0.1185375465582549
0.1161088088734718
0.1137184616289144
0.111366187600319
0.1090516648064851
0.1067745667351157
0.1045345625662153
0.1023313173929762
0.1001644924400423
0.09803374527911814
0.09593873004182053
0.0938790976297129
0.09185449592146508
0.08986456997706638
0.08790896223904121
0.08598731273060768
0.08409925925073407
0.08224443756603761
0.08042248159948416
0.07863302361584931
0.07687569440389914
0.07515012345525612
0.07345593913991326
0.07179276887838257
0.07016023931042988
0.06855797646038871
0.06698560589902521
0.06544275290194182
0.06392904260449923
0.06244410015324521
0.0609875508538494
0.05955902031552387
0.05815813459193549
0.05678452031860508
0.05543780484679078
0.05411761637387019
0.05282358407020847
0.05155533820254009
0.05031251025385747
0.04909473303983391
0.04790164082177908
0.04673286941616125
0.04558805630069711
0.04446684071704318
0.0433688637701033
0.04229376852397899
0.04124120009458977
0.04021080573898613
0.03920223494138914
0.03821513949598354
0.03724917358650005
0.03630399386261551
0.03537925951321178
0.0344746323365237
0.03358977680721482
0.03272436014042321
0.03187805235281305
0.0310505263206731
0.0302414578351043
0.02945052565434103
0.0286774115532446
0.02792180037002023
0.02718338005019431
0.02646184168790475
0.02575687956454886
0.02506819118483199
0.02439547731027071
0.02373844199019337
0.02309679259028969
0.02247023981875668
0.0218584977500904
0.02126128384657573
0.0206783189775172
0.02010932743627016
0.01955403695511329
0.01901217871801983
0.01848348737137438
0.01796770103268457
0.01746456129734325
0.01697381324348324
0.01649520543498406
0.01602848992267322
0.01557342224377608
0.01512976141966277
0.01469726995194279
0.01427571381695347
0.01386486245869541
0.01346448878026062
0.0130743691338023
0.01269428330909563
0.01232401452073357
0.01196334939400811
0.01161207794952454
0.01126999358658806
0.01093689306541668
0.01061257648822094
0.01029684727919513
0.009989512163465155
0.009690381145035818
0.009399267483781032
0.009115987671518147
0.008840361407207686
0.00857221157132154
0.008311364199417541
0.008057648454960833
0.007810896601431376
0.007570943973754738
0.00733762894909547
0.007110792917047653
0.006890280249260181
0.006675938268532101
0.006467617217411943
0.006265170226335242
0.006068453281334127
0.005877325191350088
0.005691647555182752
0.005511284728105609
0.00533610378817737
0.005165974502280611
0.005000769291915171
0.004840363198774174
0.004684633850130591
0.004533461424060311
0.00438672861452758
0.004244320596358306
0.004106124990124842
0.003972031826966005
0.003841933513365967
0.00371572479591271
0.00359330272605909
0.003474566624905541
0.003359418048026472
0.003247760750357521
0.003139500651164119
0.003034545799108502
0.002932806337432321
0.00283419446927242
0.002738624423124847
0.002646012418472842
0.0025562766315939
0.00246933716155953
0.002385115996441478
0.002303536979737498
0.002224525777028457
0.002148009842879244
0.002073918387994304
0.002002182346638175
0.0019327343443317
0.001865508665833002
0.001800441223412453
0.001737469525430024
0.001676532645223072
0.001617571190312147
0.001560527271931791
0.001505344474892745
0.001451967827781925
0.001400343773505607
0.001350420140181325
0.001302146112382749
0.001255472202742549
0.001210350223916774
0.001166733260914592
0.001124575643796372
0.001083832920743176
0.001044461831500114
0.00100642028119537
0.0009696673145372445
0.0009341630903902513
0.0008998688567316552
0.0008667469259891589
0.0008347606507604933
0.0008038743999149788
0.0007740535350772433
0.0007452643874927772
0.0007174742352747479
0.0006906512810314523
0.0006647646298733856
0.0006397842677986052
0.0006156810404551311
0.0005924266322786784
0.000569993546003874
0.0005483550825470308
0.0005274853212581527
0.0005073591005399193
0.0004879519988311544
0.0004692403159519538
0.000451201054807768
0.0004338119034494299
0.0004170512174861043
0.0004008980028477816
0.0003853318988941625
0.0003703331618663601
0.0003558826486779689
0.0003419618010418089
0.0003285526299285623
0.0003156377003536407
0.000303200116488269
0.0002912235070908316
0.0002796920112545448
0.0002685902644673011
0.0002579033849795651
0.000247616960476157
0.0002377170350476674
0.0002281900964572917
0.0002190230636987383
0.0002102032748409136
0.0002017184751550163
0.0001935568055197005
0.0001857067910999337
0.000178157330295106
0.0001708976839520187
0.0001639174648383988
0.0001572066273724499
0.0001507554576041019
0.0001445545634435358
0.0001385948651326167
0.0001328675859548747
0.0001273642431796564
0.000122076639236127
0.0001169968531128047
0.0001121172319783507
0.0001074303830193389
0.0001029291654907709
9.860668297514195e-05
9.4456275845877e-05
9.047151393100953e-05
8.664618937299452e-05
8.297430968059635e-05
7.945009096883666e-05
7.60679513829983e-05
7.282250470277672e-05
6.970855412265754e-05
6.672108620468899e-05
6.385526499982404e-05
6.110642633409779e-05
5.847007225590808e-05
5.594186564076427e-05
5.351762494986268e-05
5.119331913895931e-05
4.896506271399727e-05
4.682911093006391e-05
4.478185513024617e-05
4.281981822103931e-05
4.093965028100663e-05
3.913812429944342e-05
3.741213204184577e-05
3.575868003904621e-05
3.41748856969234e-05
3.265797352365321e-05
3.120527147152132e-05
2.981420739036496e-05
2.848230558977493e-05
2.720718350722877e-05
2.59865484793944e-05
2.481819461388571e-05
2.369999975880958e-05
2.262992256748767e-05
2.160599965580564e-05
2.062634284967355e-05
1.968913652015186e-05
1.879263500382801e-05
1.793516010610144e-05
1.711509868506847e-05
1.633090031375196e-05
1.558107501847395e-05
1.486419109121877e-05
1.417887297386955e-05
1.352379921226723e-05
1.289770047807484e-05
1.229935765647988e-05
1.172759999781441e-05
1.118130333121657e-05
1.065938833850421e-05
1.016081888646857e-05
9.684600415848275e-06
9.229778385279669e-06
8.795436768563905e-06
8.380696603632528e-06
7.984714591634777e-06
7.606681744604593e-06
7.245822080215005e-06
6.901391362154245e-06
6.572675884703578e-06
6.258991300131913e-06
5.959681487557804e-06
5.674117461967206e-06
5.401696322108075e-06
5.141840236020075e-06
4.893995462989107e-06
4.657631410751014e-06
4.432239726800693e-06
4.217333422694328e-06
4.012446030264347e-06
3.817130788696534e-06
3.630959861448798e-06
3.453523582020021e-06
3.284429727606065e-06
3.123302819708996e-06
2.969783450789443e-06
2.823527636083219e-06
2.684206189725928e-06
2.55150412435607e-06
2.425120073391519e-06
2.304765735198956e-06
2.190165338398489e-06
2.081055127570501e-06
1.977182868651727e-06
1.878307373331922e-06
1.784198041782221e-06
1.694634423067935e-06
1.60940579261824e-06
1.528310746145702e-06
1.451156809426852e-06
1.377760063374971e-06
1.307944783852971e-06
1.241543095693713e-06
1.178394640410945e-06
1.118346257101457e-06
1.061251676055584e-06
1.006971224608582e-06
9.553715447811419e-07
9.063253222721459e-07
8.59711026381755e-07
8.154126604563352e-07
7.733195224612135e-07
7.333259753001953e-07
6.953312265139458e-07
6.592391170016418e-07
6.249579184230097e-07
5.924001389490816e-07
5.614823370420074e-07
5.321249429552005e-07
5.042520876558514e-07
4.777914388824407e-07
4.526740440599247e-07
4.288341798051731e-07
4.062092077647728e-07
3.847394365365186e-07
3.643679894347502e-07
3.450406778686116e-07
3.267058801103951e-07
3.093144252394683e-07
2.928194820548978e-07
2.771764527578063e-07
2.623428712114224e-07
2.482783055943342e-07
2.349442652688521e-07
2.22304111693552e-07
2.103229732149087e-07
1.989676635796918e-07
1.882066040153101e-07
1.780097487314242e-07
1.683485137015349e-07
1.591957085887919e-07
1.505254716852605e-07
1.423132077392485e-07
1.34535528549816e-07
1.271701962124947e-07
1.201960689046881e-07
1.135930491035652e-07
1.07342034133498e-07
1.014248689441659e-07
9.58243010243144e-08
9.052393735994091e-08
8.550820334932998e-08
8.076230359085684e-08
7.627218446283037e-08
7.202449841790629e-08
6.800656991774142e-08
6.42063629365804e-08
6.061244996530682e-08
5.721398245038573e-08
5.400066260470069e-08
5.096271652998332e-08
4.809086859292228e-08
4.537631699951063e-08
4.281071051445817e-08
4.038612627469162e-08
3.809504864816288e-08
3.593034909114415e-08
3.388526695922469e-08
3.195339122908901e-08
3.012864308997623e-08
2.840525936545899e-08
2.677777672787401e-08
2.52410166693357e-08
2.3790071194811e-08
2.242028920422513e-08
2.112726353198897e-08
1.990681861370929e-08
1.87549987511526e-08
1.766805694780386e-08
1.664244428855402e-08
1.567479983822823e-08
1.476194103476339e-08
1.390085455392321e-08
1.308868762344451e-08
1.232273976551589e-08
1.160045494739668e-08
1.091941412091335e-08
1.027732813241327e-08
9.67203098559697e-09
9.101473440429394e-09
8.563716932097485e-09