/*--------------------------------*- C++ -*----------------------------------*\
| =========                 |                                                 |
| \\      /  F ield         | OpenFOAM: The Open Source CFD Toolbox           |
|  \\    /   O peration     | Version:  2412                                  |
|   \\  /    A nd           | Website:  www.openfoam.com                      |
|    \\/     M anipulation  |                                                 |
\*---------------------------------------------------------------------------*/
FoamFile
{
    version     2.0;
    format      ascii;
    arch        "LSB;label=32;scalar=64";
    class       volScalarField;
    location    "0";
    object      T_0_0;
}
// * * * * * * * * * * * * * * * * * * * * * * * * * * * * * * * * * * * * * //

dimensions      [0 0 0 1 0 0 0];

internalField   nonuniform List<scalar> 
2000
(
1.322305391472389e-14
1.432287364466931e-14
1.55126188941498e-14
1.679951160592403e-14
1.819134287867076e-14
1.969651693753297e-14
2.132409843074866e-14
2.308386329838721e-14
2.498635347696991e-14
2.704293572277299e-14
2.92658648569612e-14
3.166835175747787e-14
3.426463644592361e-14
3.707006664258001e-14
4.010118218941204e-14
4.337580576940313e-14
4.69131403810852e-14
5.073387405975316e-14
5.486029237173043e-14
5.931639924534974e-14
6.412804674216878e-14
6.932307441456152e-14
7.493145894135112e-14
8.098547478181164e-14
8.751986664036555e-14
9.457203458982671e-14
1.02182232760395e-13
1.10393782564955e-13
1.192533014989129e-13
1.288109486250849e-13
1.391206879312723e-13
1.502405708305635e-13
1.622330391622867e-13
1.751652501454188e-13
1.891094248363327e-13
2.041432217497023e-13
2.203501374153039e-13
2.378199357651251e-13
2.566491083749066e-13
2.769413677225572e-13
2.988081757734757e-13
3.223693103600816e-13
3.477534719905897e-13
3.750989339008647e-13
4.045542383537265e-13
4.362789423931844e-13
4.704444164775111e-13
5.072346996456285e-13
5.468474151169524e-13
5.894947504865328e-13
6.354045069560123e-13
6.848212223377862e-13
7.380073728857693e-13
7.952446593427452e-13
8.568353829524405e-13
9.231039175658679e-13
9.943982843772683e-13
1.071091836256982e-12
1.153585059107929e-12
1.242307498161632e-12
1.337719817649452e-12
1.4403160028383e-12
1.550625714008119e-12
1.669216802574412e-12
1.796698000223996e-12
1.933721792639758e-12
2.080987490141599e-12
2.239244508370135e-12
2.409295872988678e-12
2.592001963281402e-12
2.788284510484329e-12
2.999130867704155e-12
3.225598569361872e-12
3.468820199246889e-12
3.730008587487546e-12
4.010462358039597e-12
4.31157184966937e-12
4.6348254348686e-12
4.981816262687451e-12
5.354249453116983e-12
5.753949772397809e-12
6.182869820482613e-12
6.643098763845706e-12
7.136871648915241e-12
7.666579333615058e-12
8.234779076845301e-12
8.844205828217722e-12
9.497784262993985e-12
1.019864160997112e-11
1.095012132301531e-11
1.175579765008538e-11
1.26194911569101e-11
1.354528526600668e-11
1.453754387545903e-11
1.560093012582736e-11
1.674042638774755e-11
1.796135554721188e-11
1.926940367021615e-11
2.067064413343119e-11
2.217156331281423e-11
2.377908792764715e-11
2.550061414338193e-11
2.734403854290781e-11
2.931779108245621e-11
3.143087015533778e-11
3.369287989408762e-11
3.611406984941419e-11
3.87053771925857e-11
4.14784715966476e-11
4.444580296106377e-11
4.762065215416737e-11
5.101718495808654e-11
5.465050941174748e-11
5.85367367590343e-11
6.269304622139725e-11
6.713775382702324e-11
7.18903855422711e-11
7.697175496543485e-11
8.240404585800441e-11
8.821089980462012e-11
9.441750930976997e-11
1.01050716657116e-10
1.081391188761328e-10
1.157131791805872e-10
1.23805345264335e-10
1.324501748619921e-10
1.416844690053607e-10
1.515474134310422e-10
1.620807286206375e-10
1.733288289821995e-10
1.853389917105149e-10
1.981615358940655e-10
2.118500124686418e-10
2.26461405651242e-10
2.420563465235484e-10
2.586993394715928e-10
2.764590022278985e-10
2.954083203037313e-10
3.156249166431092e-10
3.371913373761196e-10
3.601953545978026e-10
3.847302871498953e-10
4.108953404365214e-10
4.387959663615953e-10
4.685442445352256e-10
5.002592859591539e-10
5.340676604672001e-10
5.701038492660609e-10
6.085107239948351e-10
6.494400537982878e-10
6.930530419896866e-10
7.395208939637716e-10
7.890254181096536e-10
8.417596615671372e-10
8.979285827684924e-10
9.577497628111265e-10
1.021454157815467e-09
1.089286894536413e-09
1.161508111616881e-09
1.238393848997754e-09
1.320236988130993e-09
1.407348245781476e-09
1.50005722434889e-09
1.598713521794167e-09
1.703687904415321e-09
1.815373545886262e-09
1.934187336148746e-09
2.060571263933244e-09
2.194993876878854e-09
2.337951823426471e-09
2.489971480873114e-09
2.651610674199867e-09
2.823460490520454e-09
3.00614719424428e-09
3.200334248305684e-09
3.406724447081409e-09
3.626062166902386e-09
3.859135740361885e-09
4.106779960933654e-09
4.369878724738893e-09
4.649367816641884e-09
4.946237848210965e-09
5.261537355455043e-09
5.596376064636891e-09
5.951928334873247e-09
6.329436786660295e-09
6.730216125910432e-09
7.155657173554636e-09
7.607231111254713e-09
8.086493954281917e-09
8.595091263153689e-09
9.13476310618038e-09
9.707349285657875e-09
1.031479484105558e-08
1.095915584318577e-08
1.164260549400895e-08
1.236744054742699e-08
1.31360880671438e-08
1.395111253843377e-08
1.481522335145152e-08
1.573128267454693e-08
1.670231373691191e-08
1.773150954079098e-08
1.882224202442784e-08
1.997807169790323e-08
2.120275777504627e-08
2.250026882566671e-08
2.387479397347726e-08
2.533075466623045e-08
2.687281704581094e-08
2.850590494728832e-08
3.023521355724833e-08
3.206622376309321e-08
3.400471722643689e-08
3.605679221520086e-08
3.822888023057188e-08
4.052776346660082e-08
4.296059314189423e-08
4.553490874461036e-08
4.825865823378523e-08
5.114021924191346e-08
5.418842132568883e-08
5.741256931383757e-08
6.08224678031484e-08
6.442844685598788e-08
6.824138895492182e-08
7.227275727245256e-08
7.653462531638064e-08
8.103970801389069e-08
8.580139430015352e-08
9.083378128004058e-08
9.615171003445875e-08
1.01770803145811e-07
1.077075040202545e-07
1.139791180876705e-07
1.206038559636341e-07
1.276008786611832e-07
1.349903449438537e-07
1.427934609151676e-07
1.510325319437466e-07
1.59731017027236e-07
1.689135857024687e-07
1.78606177613653e-07
1.888360648549131e-07
1.996319172081836e-07
2.1102387040237e-07
2.230435975246459e-07
2.357243837201108e-07
2.491012043212712e-07
2.632108065545942e-07
2.780917949770182e-07
2.937847208014234e-07
3.103321752762174e-07
3.277788872906416e-07
3.46171825384052e-07
3.655603043443299e-07
3.859960965876266e-07
4.075335485191007e-07
4.302297020818235e-07
4.541444217089886e-07
4.793405269025165e-07
5.058839306698069e-07
5.338437840587417e-07
5.632926270403199e-07
5.943065459972588e-07
6.269653380866871e-07
6.613526827547572e-07
6.975563206912282e-07
7.356682405225652e-07
7.757848735529482e-07
8.180072968736624e-07
8.624414451730015e-07
9.091983315904568e-07
9.583942779715696e-07
1.010151154891881e-06
1.064596631832108e-06
1.121864437899241e-06
1.182094633502883e-06
1.245433893409533e-06
1.312035801612871e-06
1.382061158472379e-06
1.455678300588872e-06
1.533063433900737e-06
1.614400980501402e-06
1.699883939695522e-06
1.789714263828124e-06
1.88410324943934e-06
1.983271944315188e-06
2.087451571023947e-06
2.196883967546459e-06
2.311822045629296e-06
2.432530267509106e-06
2.559285141678033e-06
2.692375738380955e-06
2.832104225557946e-06
2.978786425966751e-06
3.132752396244582e-06
3.294347028690615e-06
3.463930676576472e-06
3.641879803815012e-06
3.828587659845033e-06
4.024464980613945e-06
4.22994071656819e-06
4.44546278858773e-06
4.671498872829781e-06
4.908537215474288e-06
5.157087478393768e-06
5.417681616799921e-06
5.690874789949066e-06
5.977246306020982e-06
6.27740060231628e-06
6.591968261950407e-06
6.921607068256181e-06
7.267003098139131e-06
7.628871855666049e-06
8.007959447201121e-06
8.405043799440674e-06
8.820935921733436e-06
9.256481214111313e-06
9.71256082249272e-06
1.019009304255981e-05
1.069003477384958e-05
1.121338302563997e-05
1.176117647625067e-05
1.233449708742219e-05
1.293447177547622e-05
1.356227414100567e-05
1.421912625888249e-05
1.49063005304197e-05
1.562512159956393e-05
1.637696833504445e-05
1.716327588044698e-05
1.798553777422803e-05
1.884530814173457e-05
1.974420396133766e-05
2.068390740683956e-05
2.166616826836189e-05
2.269280645397101e-05
2.376571457434591e-05
2.488686061284788e-05
2.605829068339387e-05
2.7282131878597e-05
2.85605952106791e-05
2.989597864771915e-05
3.129067024784857e-05
3.274715139406216e-05
3.426800013235911e-05
3.585589461598972e-05
3.751361665862678e-05
3.924405539934678e-05
4.105021108234523e-05
4.29351989543738e-05
4.490225328293926e-05
4.695473149835267e-05
4.90961184627754e-05
5.133003086946359e-05
5.366022177545663e-05
5.609058527101897e-05
5.862516128919447e-05
6.126814055887657e-05
6.402386970485988e-05
6.689685649838881e-05
6.98917752617603e-05
7.301347243060087e-05
7.626697227747812e-05
7.965748280056189e-05
8.319040178109018e-05
8.687132301345691e-05
9.070604271175944e-05
9.470056609672314e-05
9.886111416692675e-05
0.0001031941306583262
0.0001077062891960911
0.0001124045006428296
0.0001172959206472937
0.0001223879573977101
0.0001276882795839095
0.0001332048245724556
0.0001389458067990136
0.0001449197263822257
0.0001511353779633739
0.0001576018597761547
0.0001643285829509003
0.000171325281057588
0.0001786020198920286
0.000186169207509595
0.0001940376045108981
0.0002022183345838101
0.0002107228953062225
0.0002195631692139577
0.0002287514351382288
0.0002383003798170398
0.0002482231097848967
0.0002585331635452122
0.0002692445240297384
0.0002803716313493504
0.0002919293958404739
0.000303933211411425
0.0003163989691928709
0.0003293430714966056
0.0003427824460867546
0.0003567345607675077
0.000371217438291382
0.0003862496715919728
0.0004018504393450753
0.0004180395218619942
0.0004348373173187603
0.000452264858324863
0.0004703438288350912
0.0004890965814078613
0.0005085461548134027
0.0005287162919949951
0.000549631458386333
0.0005713168605879958
0.0005937984654058158
0.0006171030192538352
0.0006412580679243517
0.0006662919767274156
0.000692233951001955
0.0007191140570005132
0.0007469632431494549
0.0007758133616861948
0.0008056971906749268
0.0008366484564019924
0.0008687018561518776
0.0009018930813645925
0.0009362588411748709
0.0009718368863335041
0.00100866603351074
0.001046786189981405
0.001086238378691263
0.001127064763703682
0.001169308676025373
0.001213014639809874
0.001258228398936708
0.001304996943964336
0.00135336853945413
0.001403392751662731
0.001455120476599444
0.001508603968445015
0.001563896868327954
0.001621054233453771
0.001680132566582557
0.001741189845849419
0.001804285554922272
0.001869480713490799
0.001936837908079907
0.002006421323180815
0.002078296772692001
0.002152531731662172
0.002229195368326622
0.002308358576427902
0.002390094007811328
0.002474476105285102
0.002561581135734483
0.002651487223478645
0.002744274383858635
0.002840024557043781
0.002938821642043987
0.003040751530913798
0.003145902143134624
0.003254363460160026
0.003366227560108522
0.003481588652588301
0.003600543113636541
0.00372318952075651
0.003849628688034089
0.003979963701314983
0.004114299953423466
0.004252745179402503
0.00439540949175418
0.004542405415659478
0.004693847924154731
0.004849854473242151
0.005010545036910731
0.005176042142043108
0.005346470903183432
0.00552195905714017
0.005702636997397757
0.005888637808309427
0.006080097299043219
0.006277154037252592
0.006479949382442
0.006688627518997273
0.006903335488849471
0.007124223223740992
0.007351443577061151
0.00758515235521781
0.007825508348511669
0.008072673361477775
0.008326812242659628
0.0085880929137792
0.008856686398266093
0.009132766849108642
0.00941651157598806
0.00970810107165755
0.01000771903752574
0.01031555240840503
0.01063179137638375
0.01095662941377976
0.01129026329513433
0.01163289311820298
0.01198472232389975
0.01234595771515118
0.01271680947461504
0.01309749118121912
0.01348821982547423
0.01388921582351524
0.01430070302982363
0.01472290874858445
0.01515606374362957
0.01560040224692159
0.01605616196552581
0.01652358408702682
0.01700291328333616
0.01749439771284513
0.01799828902087061
0.01851484233834686
0.01904431627871036
0.01958697293293004
0.02014307786263193
0.02071290009126674
0.02129671209327165
0.02189478978117569
0.02250741249059689
0.02313486296308303
0.02377742732674391
0.02443539507462727
0.02510905904078638
0.02579871537399075
0.02650466350903145
0.02722720613557127
0.02796664916449135
0.02872330169168577
0.02949747595925808
0.03028948731407204
0.03109965416360795
0.03192829792908354
0.03277574299579006
0.03364231666060156
0.03452834907661314
0.03543417319486642
0.03636012470311886
0.03730654196162003
0.03827376593584922
0.03926214012618266
0.04027201049444878
0.04130372538733613
0.04235763545662179
0.04343409357618152
0.04453345475575647
0.0456560760514418
0.04680231647286714
0.04797253688704694
0.04916709991886898
0.05038636984820083
0.05163071250359288
0.0529004951525532
0.05419608638838185
0.05551785601354274
0.05686617491956254
0.05824141496344572
0.05964394884058827
0.06107414995419155
0.062532392281166
0.06401905023452086
0.06553449852224151
0.06707911200265729
0.06865326553629869
0.07025733383425743
0.0718916913030539
0.07355671188602773
0.07525276890126534
0.07698023487607893
0.07873948137806376
0.08053087884275255
0.08235479639789688
0.0842116016843992
0.08610166067393682
0.08802533748330534
0.08998299418552493
0.09197499061774998
0.09400168418602801
0.09606342966695224
0.09816057900626927
0.1002934811144818
0.1024624816595201
0.1046679228565335
0.1069101432548694
0.1091894775223129
0.1115062562266498
0.1138608056146345
0.1162534473884454
0.118684498479697
0.1211542708211063
0.123663071115898
0.1262112006050407
0.128798954832411
0.1314266234079816
0.1340944897691448
0.1368028309402681
0.1395519172905938
0.1423420122906055
0.1451733722669602
0.1480462461561232
0.1509608752568187
0.1539174929814217
0.1569163246064351
0.1599575870221626
0.1630414884817333
0.1661682283496064
0.1693379968497021
0.1725509748133014
0.1758073334268714
0.1791072339799491
0.1824508276132635
0.1858382550672255
0.1892696464309689
0.1927451208920873
0.1962647864872425
0.1998287398538001
0.2034370659826782
0.2070898379725661
0.2107871167856871
0.2145289510052956
0.2183153765950702
0.2221464166605894
0.226022081213073
0.2299423669355674
0.2339072569517637
0.2379167205976293
0.2419707131960442
0.2460691758346328
0.2502120351469703
0.2543992030973615
0.2586305767693869
0.2629060381583925
0.2672254539681289
0.2715886754117274
0.2759955380172046
0.2804458614376807
0.2849394492665202
0.2894760888575712
0.2940555511506955
0.2986775905027937
0.3033419445244963
0.308048333922721
0.312796462349279
0.3175860162557255
0.3224166647546144
0.3272880594873799
0.3321998344989786
0.3371516061195172
0.3421429728530024
0.3471735152734221
0.3522427959282973
0.3573503592499068
0.3624957314743172
0.3676784205684118
0.3728979161650585
0.3781536895065782
0.3834451933966688
0.3887718621609387
0.394133111616175
0.3995283390485209
0.4049569232006567
0.4104182242681597
0.4159115839051353
0.4214363252392689
0.4269917528963932
0.4325771530347028
0.4381917933887087
0.4438349233230545
0.4495057738962561
0.4552035579344957
0.4609274701155305
0.4666766870627971
0.4724503674497841
0.4782476521147568
0.4840676641858604
0.4899095092166828
0.4957722753323197
0.5016550333859668
0.507556837126074
0.5134767233741176
0.5194137122129613
0.5253668071858523
0.5313349955060456
0.5373172482770499
0.5433125207234882
0.5493197524325474
0.5553378676060042
0.5613657753227774
0.5674023698119789
0.5734465307364013
0.5794971234863897
0.5855529994840372
0.5916129964976263
0.5976759389662201
0.6037406383343513
0.6098058933966605
0.615870490652437
0.6219332046698831
0.627992798460045
0.6340480238602226
0.6400976219267749
0.6461403233371242
0.6521748488008485
0.6581999094796672
0.6642142074161764
0.6702164359711512
0.6762052802692025
0.6821794176526522
0.6881375181433709
0.6940782449124026
0.7000002547571577
0.7059021985859454
0.7117827219096278
0.7176404653401401
0.7234740650956661
0.7292821535121898
0.7350633595611856
0.7408163093731734
0.7465396267668817
0.7522319337837416
0.757891851227418
0.7635179992081121
0.7691089976913336
0.774663467050843
0.7801800286254694
0.7856573052794948
0.7910939219662798
0.7964885062948431
0.8018396890990492
0.8071461050090832
0.8124063930249008
0.817619197091301
0.8227831666742994
0.8278969573384549
0.8329592313248216
0.8379686581291649
0.8429239150801042
0.8478236879168393
0.8526666713661039
0.8574515697179865
0.8621770974002855
0.8668419795510299
0.8714449525888062
0.8759847647805578
0.8804601768064806
0.8848699623216677
0.8892129085141465
0.8934878166589652
0.8976935026679537
0.9018287976348237
0.9058925483752628
0.9098836179616496
0.9138008862520697
0.917643250413273
0.9214096254372436
0.9250989446510223
0.9287101602194794
0.9322422436406758
0.9356941862335039
0.9390649996172713
0.9423537161829286
0.9455593895556031
0.9486810950481461
0.9517179301053835
0.9546690147387707
0.9575334919511604
0.9603105281513952
0.9629993135584475
0.9655990625948306
0.9681090142690084
0.9705284325465497
0.9728566067097776
0.975092851705653
0.9772365084816711
0.9792869443095293
0.9812435530963435
0.9831057556832105
0.9848730001308941
0.9865447619924511
0.9881205445726019
0.9895998791736658
0.9909823253278969
0.9922674710160487
0.9934549328720266
0.9945443563734803
0.9955354160182026
0.9964278154862138
0.9972212877874206
0.9979155953947402
0.9985105303626048
0.9990059144307576
0.9994015991132685
0.9996974657727115
0.9998934256794464
0.999989420055968
0.9999854201062877
0.9998814270303303
0.9996774720233342
0.9993736162602552
0.9989699508651863
0.998466596865813
0.997863705132938
0.9971614563051157
0.9963600606984497
0.9954597582016188
0.9944608181561996
0.993363539222375
0.9921682492301191
0.9908753050159627
0.9894850922454529
0.9879980252214317
0.9864145466782681
0.984735127562181
0.9829602667978129
0.9810904910412118
0.9791263544193938
0.9770684382566669
0.9749173507879023
0.972673726858961
0.9703382276144634
0.9679115401731404
0.9653943772909702
0.9627874770123404
0.960091602309471
0.9573075407103557
0.9544361039154518
0.9514781274034074
0.9484344700260765
0.9453060135930981
0.942093662446329
0.9387983430244089
0.9354210034177558
0.9319626129142913
0.9284241615361903
0.9248066595679879
0.9211111370763281
0.9173386434216956
0.9134902467624506
0.9095670335514822
0.90557010802583
0.901500591689591
0.8973596227904692
0.8931483557902855
0.8888679608298218
0.8845196231883165
0.8801045427379721
0.8756239333938389
0.8710790225594053
0.8664710505682478
0.8618012701221207
0.8570709457258114
0.852281353119132
0.8474337787063935
0.8425295189837323
0.8375698799646281
0.8325561766039727
0.8274897322210384
0.822371877921719
0.8172039520203572
0.8119872994615406
0.8067232712421828
0.8014132238342685
0.7960585186085697
0.7906605212596831
0.7852206012327363
0.7797401311520747
0.774220486252277
0.7686630438118005
0.7630691825895968
0.7574402822650061
0.7517777228812406
0.7460828842927565
0.7403571456168363
0.734601884689658
0.7288184775271502
0.7230082977909156
0.717172716259509
0.7113131003053454
0.7054308133774816
0.6995272144905672
0.6936036577202074
0.6876614917049607
0.6817020591552636
0.6757266963694645
0.66973673275724
0.6637334903705787
0.6577182834425633
0.6516924179341735
0.6456571910892557
0.6396138909979292
0.6335637961685258
0.6275081751083174
0.6214482859131431
0.6153853758661325
0.6093206810456543
0.6032554259426495
0.5971908230874818
0.5911280726864335
0.5850683622679616
0.5790128663388472
0.5729627460503161
0.5669191488742509
0.5608832082895669
0.5548560434788455
0.5488387590352843
0.542832444680045
0.5368381749900392
0.5308570091362214
0.5248899906324019
0.5189381470946499
0.5130024900112731
0.5070840145234309
0.5011836992163504
0.4953025059211889
0.4894413795275177
0.4836012478064
0.4777830212440864
0.4719875928862581
0.4662158381928087
0.4604686149031246
0.4547467629118028
0.4490511041547668
0.4433824425057124
0.437741563682824
0.4321292351656772
0.4265462061222547
0.4209932073459956
0.4154709512027865
0.4099801315877742
0.4045214238919396
0.3990954849782851
0.3937029531675498
0.3883444482333205
0.38302057140641
0.377731905388404
0.3724790143741996
0.3672624440834406
0.3620827218006799
0.3569403564241391
0.3518358385229048
0.3467696404024199
0.3417422161781033
0.3367540018569469
0.3318054154269119
0.3268968569539802
0.32202870868667
0.3172013351678534
0.3124150833537054
0.3076702827395986
0.3029672454927693
0.2983062665915688
0.2936876239711312
0.2891115786752511
0.2845783750143056
0.2800882407290216
0.2756413871598974
0.2712380094221057
0.266878286585662
0.2625623818606957
0.2582904427876079
0.254062601431936
0.2498789745837341
0.2457396639612763
0.241644756418883
0.2375943241586855
0.2335884249461423
0.2296271023291072
0.2257103858602588
0.2218382913227178
0.2180108209586383
0.2142279637006158
0.2104896954056955
0.2067959790918288
0.2031467651765631
0.1995419917178077
0.1959815846564873
0.1924654580609034
0.1889935143726332
0.1855656446537873
0.1821817288354597
0.1788416359671915
0.1755452244673052
0.1722923423739059
0.1690828275964259
0.1659165081675371
0.1627932024952658
0.1597127196151719
0.1566748594424396
0.1536794130237177
0.1507261627885755
0.1478148828004415
0.1449453390068589
0.14211728948895
0.1393304847099392
0.1365846677626119
0.1338795746155869
0.1312149343582626
0.1285904694443425
0.1260058959338038
0.1234609237331991
0.1209552568341971
0.1184885935502343
0.1160606267511883
0.1136710440959729
0.111319528262957
0.1090057571781129
0.1067294042408087
0.1044901385471565
0.1022876251108474
0.1001215250813626
0.09799149595952814
0.09589719181031101
0.09383826347279631
0.0918143587672888
0.08982512269946674
0.08787019766153673
0.08594922363033067
0.08406183836229991
0.08220767758535
0.08038637518747653
0.07859756340216031
0.07684087299048287
0.07511593341992531
0.07342237303981514
0.0717598192534073
0.0701278986865503
0.06852623735293162
0.06695446081587328
0.06541219434666636
0.06389906307942284
0.06241469216243488
0.06095870690603934
0.05953073292696816
0.05813039628919046
0.05675732364124148
0.05541114235003567
0.05409148063117876
0.05279796767576574
0.05153023377369297
0.05028791043347709
0.04907063049860864
0.04787802826043858
0.04670973956763187
0.04556540193218891
0.04444465463206915
0.04334713881043138
0.0422724975715166
0.04122037607320281
0.04019042161625154
0.03918228373028251
0.03819561425650218
0.03723006742722192
0.03628529994219525
0.0353609710418139
0.03445674257719404
0.03357227907719118
0.03270724781238549
0.03186131885607404
0.03103416514231066
0.03022546252103562
0.0294348898103402
0.02866212884590391
0.02790686452765652
0.02716878486370081
0.02644758101154992
0.02574294731672256
0.02505458134874046
0.02438218393458078
0.02372545918962745
0.02308411454617204
0.02245786077951212
0.02184641203169653
0.0212494858329695
0.02066680312095692
0.020098088257654
0.01954306904425502
0.01900147673388322
0.01847304604226686
0.01795751515641143
0.01745462574132329
0.01696412294482676
0.01648575540053448
0.01601927522901311
0.01556443803719851
0.01512100291610938
0.01468873243690899
0.01426739264536226
0.0138567530547406
0.0134565866372203
0.01306666981382369
0.01268678244295232
0.01231670780755573
0.01195623260098716
0.01160514691159266
0.01126324420607388
0.0109303213116778
0.01060617839725423
0.01029061895322586
0.009983449770515528
0.009684480918474016
0.00939352572185158
0.00911040073685432
0.008834925726326874
0.008566923634104407
0.008306220558571678
0.008052645725469793
0.007806031459989799
0.007566213158190333
0.007333029257778592
0.007106321208289274
0.00688593344069885
0.006671713336510668
0.006463511196344728
0.006261180208066318
0.006064576414487367
0.005873558680671591
0.005687988660876296
0.005507730765161809
0.005332652125696992
0.005162622562792764
0.00499751455069086
0.004837203183135804
0.004681566138757934
0.004530483646293484
0.004383838449667537
0.004241515772965301
0.004103403285315404
0.003969391065708846
0.003839371567777257
0.003713239584551221
0.003590892213221575
0.003472228819922751
0.003357151004560248
0.003245562565699314
0.003137369465535295
0.003032479794962814
0.002930803738760867
0.002832253540911404
0.002736743470066494
0.002644189785179738
0.002554510701317042
0.002467626355660391
0.002383458773718327
0.002301931835756231
0.002222971243458198
0.00214650448683291
0.002072460811374393
0.002000771185487955
0.001931368268192011
0.001864186377104831
0.001799161456725508
0.001736231047017407
0.001675334252302267
0.001616411710472411
0.001559405562528151
0.001504259422446651
0.00145091834738874
0.00139932880824901
0.00134943866055473
0.001301197115717846
0.001254554712645032
0.001209463289709345
0.001165875957087302
0.001123747069464367
0.001083032199111884
0.001043688109337945
0.001005672728313944
0.0009689451232791948
0.0009334654751246201
0.0008991950533569163
0.0008660961914438604
0.0008341322625415456
0.0008032676556035863
0.0007734677518724737
0.0007446989017527625
0.0007169284020655067
0.0006901244736833183
0.000664256239545005
0.0006392937030484993
0.0006152077268207792
0.0005919700118630861
0.0005695530770695949
0.0005479302391175948
0.0005270755927268601
0.0005069639912859449
0.0004875710278429162
0.0004688730164576844
0.0004508469739132397
0.0004334706017827652
0.0004167222688496085
0.0004005809938767385
0.0003850264287225239
0.0003700388417992475
0.0003555991018709348
0.0003416886621867686
0.0003282895449463285
0.0003153843260929793
0.0003029561204314001
0.0002909885670652998
0.0002794658151513674
0.0002683725099653227
0.0002576937792759276
0.0002474152200228074
0.0002375228852938114
0.0002280032715977171
0.0002188433064279087
0.000210030336112761
0.0002015521139483309
0.000193396788609042
0.0001855528928319686
0.0001780093323702871
0.0001707553752115157
0.0001637806410561958
0.000157075091052518
0.0001506290177825612
0.0001444330354957181
0.0001384780705849414
0.0001327553523014523
0.0001272564037035304
0.000121973032835067
0.0001168973241295704
0.0001120216300353336
0.0001073385628575026
0.000102840986812802
9.852201029273005e-05
9.437497833103936e-05
9.039346527137931e-05
8.657126763098902e-05
8.290239715638665e-05
7.93810740670375e-05
7.60017204829985e-05
7.27589540326318e-05
6.964758163646967e-05
6.666259346339378e-05
6.379915705531143e-05
6.105261161659062e-05
5.841846246452674e-05
5.589237563720223e-05
5.347017265510272e-05
5.114782543295954e-05
4.892145133827727e-05
4.678730839312197e-05
4.474179061574025e-05
4.278142349866552e-05
4.090285962000908e-05
3.910287438469129e-05
3.737836189241476e-05
3.572633092924094e-05
3.414390107968103e-05
3.262829895626655e-05
3.117685454362327e-05
2.97869976541164e-05
2.84562544921985e-05
2.718224432463292e-05
2.596267625383316e-05
2.479534609159996e-05
2.367813333059746e-05
2.260899821095219e-05
2.158597887942912e-05
2.060718863866904e-05
1.967081328404322e-05
1.877510852571077e-05
1.791839749353823e-05
1.709906832257344e-05
1.631557181681895e-05
1.556641918910607e-05
1.485017987491557e-05
1.416547941803067e-05
1.3510997425972e-05
1.288546559319741e-05
1.228766579010163e-05
1.171642821589537e-05
1.117062961348883e-05
1.064919154455111e-05
1.015107872295453e-05
9.675297404864555e-06
9.220893833772719e-06
8.786952738813383e-06
8.37259588474695e-06
7.976980672033906e-06
7.599298785458e-06
7.238774889807244e-06
6.894665371147961e-06
6.566257122272326e-06
6.252866370935472e-06
5.953837549533268e-06
5.668542204910146e-06
5.396377947018358e-06
5.136767435187968e-06
4.889157400797785e-06
4.653017705172246e-06
4.427840431561212e-06
4.213139010090937e-06
4.008447374606484e-06
3.813319150355526e-06
3.627326871493749e-06
3.450061227420839e-06
3.281130336984543e-06
3.120159049619623e-06
2.966788272512024e-06
2.82067432290995e-06
2.681488304726094e-06
2.548915508602019e-06
2.422654834630047e-06
2.302418236952776e-06
2.187930189482828e-06
2.078927172010399e-06
1.97515717598602e-06
1.876379229290369e-06
1.782362939322552e-06
1.692888053760166e-06
1.607744038363826e-06
1.526729671219658e-06
1.449652652831197e-06
1.376329231492339e-06
1.306583843389548e-06
1.240248766900965e-06
1.177163790576021e-06
1.11717589429646e-06
1.060138943136146e-06
1.005913393452637e-06
9.543660107589458e-07
9.053695989390128e-07
8.588027403851797e-07
8.145495466494771e-07
7.724994192150304e-07
7.325468200066827e-07
6.945910512733252e-07
6.585360444864425e-07
6.242901579123626e-07
5.917659825266707e-07
5.60880155951423e-07
5.315531841066279e-07
5.037092702782372e-07
4.772761513154981e-07
4.521849406805361e-07
4.28369978082928e-07
4.057686854415913e-07
3.843214289254768e-07
3.639713868333902e-07
3.446644230822141e-07
3.263489660808416e-07
3.089758927754747e-07
2.924984176595678e-07
2.768719865496012e-07
2.620541749347734e-07
2.480045907162852e-07
2.346847811582356e-07
2.220581438793461e-07
2.100898417205386e-07
1.987467213301715e-07
1.87997235314224e-07
1.778113678048763e-07
1.68160563306298e-07
1.590176586819834e-07
1.503568181530001e-07
1.421534711818227e-07
1.343842531209891e-07
1.270269485106924e-07
1.200604369138664e-07
1.134646411816674e-07
1.07220478046477e-07
1.013098109436423e-07
9.571540496699972e-08
9.042088386704982e-08
8.541068900425578e-08
8.067004017347102e-08
7.618489821881993e-08
7.194192936163515e-08
6.792847116717977e-08
6.413250007890454e-08
6.054260045182885e-08
5.714793501953259e-08
5.393821673180473e-08
5.090368190270869e-08
4.8035064611188e-08
4.532357229883251e-08
4.276086251166169e-08
4.033902073500364e-08
3.805053927272451e-08
3.58882971240314e-08
3.38455408130974e-08
3.191586612863137e-08
3.009320073232352e-08
2.83717875968409e-08
2.674616923573822e-08
2.521117268924524e-08
2.376189523144188e-08
2.239369076581687e-08
2.110215687763092e-08
1.988312251287143e-08
1.873263625489496e-08
1.764695517112377e-08
1.662253420335473e-08
1.565601607641343e-08
1.474422170098578e-08
1.38841410475349e-08
1.307292446921788e-08
1.230787445272166e-08
1.15864377768456e-08
1.090619805958496e-08
1.026486867531133e-08
9.660286024488826e-09
9.090403139140855e-09
8.553283608050332e-09
8.047095806401402e-09