/*--------------------------------*- C++ -*----------------------------------*\
| =========                 |                                                 |
| \\      /  F ield         | OpenFOAM: The Open Source CFD Toolbox           |
|  \\    /   O peration     | Version:  2412                                  |
|   \\  /    A nd           | Website:  www.openfoam.com                      |
|    \\/     M anipulation  |                                                 |
\*---------------------------------------------------------------------------*/
FoamFile
{
    version     2.0;
    format      ascii;
    arch        "LSB;label=32;scalar=64";
    class       volScalarField;
    location    "0";
    object      T_0_0_0;
}
// * * * * * * * * * * * * * * * * * * * * * * * * * * * * * * * * * * * * * //

dimensions      [0 0 0 1 0 0 0];

internalField   nonuniform List<scalar> 
2000
(
1.324421316688443e-14
1.434576411362286e-14
1.553737971028807e-14
1.682629287223778e-14
1.822030651907524e-14
1.972783760941333e-14
2.13579645064791e-14
2.312047792092185e-14
2.502593569497025e-14
2.708572171113039e-14
2.931210922899601e-14
3.171832897554543e-14
3.431864233763879e-14
3.712842003039309e-14
4.016422664181356e-14
4.344391148263123e-14
4.698670620083807e-14
5.081332965308266e-14
5.494610056002007e-14
5.940905851004159e-14
6.422809391574311e-14
6.943108757013997e-14
7.504806049524376e-14
8.111133482433716e-14
8.765570651133737e-14
9.471863071626416e-14
1.023404207752275e-13
1.1056446172681e-13
1.194374394344762e-13
1.290095864170036e-13
1.393349455761896e-13
1.504716530935507e-13
1.624822418557782e-13
1.754339668626734e-13
1.893991541715473e-13
2.044555750390614e-13
2.206868470356633e-13
2.381828640295006e-13
2.570402570666246e-13
2.773628883128052e-13
2.99262380370015e-13
3.228586834381384e-13
3.482806829604293e-13
3.756668505702019e-13
4.051659413471112e-13
4.369377405946655e-13
4.711538635673591e-13
5.07998611806653e-13
5.476698899910582e-13
5.903801874674975e-13
6.363576289102853e-13
6.858470988512173e-13
7.391114451406902e-13
7.964327667367722e-13
8.581137915777892e-13
9.244793506758113e-13
9.958779549747939e-13
1.072683481949519e-12
1.155296979381654e-12
1.244148594238767e-12
1.339699635102942e-12
1.442444777149326e-12
1.552914419264502e-12
1.671677203520381e-12
1.799342707885935e-12
1.936564323766841e-12
2.084042330715903e-12
2.242527181457296e-12
2.412823011217485e-12
2.595791386259601e-12
2.79235530747749e-12
3.0035034859256e-12
3.230294908243721e-12
3.473863711086323e-12
3.735424384887264e-12
4.016277328588245e-12
4.317814778336234e-12
4.641527134616457e-12
4.989009713840144e-12
5.36196995205164e-12
5.762235090167645e-12
6.191760372014721e-12
6.652637788398374e-12
7.147105402522703e-12
7.677557294292342e-12
8.246554163375265e-12
8.856834633392216e-12
9.51132730223715e-12
1.021316358632782e-11
1.096569140955147e-11
1.177248979080976e-11
1.263738438739585e-11
1.356446405496419e-11
1.455809848858763e-11
1.562295701335561e-11
1.676402859715738e-11
1.798664316273312e-11
1.929649428077588e-11
2.069966333084238e-11
2.220264522209904e-11
2.381237577150283e-11
2.553626084291929e-11
2.738220735692158e-11
2.935865628761974e-11
3.147461776986229e-11
3.373970844753331e-11
3.616419120150556e-11
3.875901740405052e-11
4.153587185527952e-11
4.450722056639835e-11
4.768636156436375e-11
5.108747890281565e-11
5.472570007511421e-11
5.861715703679831e-11
6.277905105700682e-11
6.722972163123867e-11
7.198871970143871e-11
7.707688544376037e-11
8.251643089949401e-11
8.83310277406776e-11
9.454590047879309e-11
1.01187925442796e-10
1.082857358715514e-10
1.158698334856103e-10
1.239727069242332e-10
1.326289574556745e-10
1.418754323920864e-10
1.517513666649748e-10
1.622985330431487e-10
1.735614015023797e-10
1.855873082849508e-10
1.984266352175597e-10
2.121329998882152e-10
2.267634573164462e-10
2.42378713786847e-10
2.590433535533449e-10
2.768260791612856e-10
2.957999661758177e-10
3.160427331491288e-10
3.376370277050324e-10
3.606707296681602e-10
3.852372722160878e-10
4.114359820866158e-10
4.393724399290967e-10
4.691588619483523e-10
5.009145040524798e-10
5.347660897818872e-10
5.708482633663162e-10
6.09304069329715e-10
6.502854601396004e-10
6.939538334783087e-10
7.404806007985326e-10
7.900477889146778e-10
8.428486764755624e-10
8.990884672623577e-10
9.589850023595313e-10
1.022769513355143e-09
1.090687418841352e-09
1.162999166605991e-09
1.239981124032207e-09
1.321926519355569e-09
1.409146436567087e-09
1.501970866896443e-09
1.60074981996307e-09
1.705854497843205e-09
1.817678535469998e-09
1.936639310960387e-09
2.063179329648409e-09
2.197767685798934e-09
2.34090160618034e-09
2.493108079888379e-09
2.654945579038159e-09
2.827005875176324e-09
3.009915956512059e-09
3.204340051324031e-09
3.410981763171015e-09
3.630586323817741e-09
3.863942970084329e-09
4.111887451139358e-09
4.375304673081782e-09
4.655131487998905e-09
4.952359635043954e-09
5.268038841451585e-09
5.60328009179996e-09
5.959259074238563e-09
6.337219812828321e-09
6.738478495589526e-09
7.164427508321459e-09
7.616539684747792e-09
8.096372784055164e-09
8.605574207426794e-09
9.145885965735545e-09
9.719149911143452e-09
1.032731324597023e-08
1.097243432282922e-08
1.165668875069991e-08
1.238237582230231e-08
1.315192527886806e-08
1.396790442916409e-08
1.483302564041917e-08
1.575015421963263e-08
1.672231670461155e-08
1.775270958498515e-08
1.884470847438862e-08
2.000187775599187e-08
2.122798072457625e-08
2.252699024942773e-08
2.390309998344013e-08
2.536073614497467e-08
2.690456990024307e-08
2.853953037524466e-08
3.027081832760122e-08
3.210392051000995e-08
3.404462475846877e-08
3.609903583990917e-08
3.827359209543174e-08
4.057508291695366e-08
4.301066709675755e-08
4.558789209118526e-08
4.831471424154262e-08
5.119951999717838e-08
5.42511481876773e-08
5.747891339315217e-08
6.089263046377244e-08
6.450264024186828e-08
6.831983654227943e-08
7.235569444900096e-08
7.662229998869428e-08
8.113238124420913e-08
8.589934097396591e-08
9.093729080585086e-08
9.626108707719521e-08
1.018863683953977e-07
1.078295949969339e-07
1.141080899857294e-07
1.207400825352516e-07
1.277447531421967e-07
1.351422810233064e-07
1.429538937505865e-07
1.512019192241675e-07
1.599098400860909e-07
1.691023506825187e-07
1.788054166862569e-07
1.89046337495998e-07
1.998538115333922e-07
2.112580045639515e-07
2.23290621172761e-07
2.359849795313259e-07
2.493760895971371e-07
2.635007348933007e-07
2.783975580212513e-07
2.941071500656704e-07
3.106721440568711e-07
3.281373126624285e-07
3.465496702863918e-07
3.659585797614266e-07
3.864158638261866e-07
4.079759215877684e-07
4.30695850176539e-07
4.546355718086649e-07
4.79857966479576e-07
5.064290105203096e-07
5.344179212569808e-07
5.638973080229762e-07
5.949433297823842e-07
6.276358596329642e-07
6.620586564666939e-07
6.982995440761841e-07
7.364505980056417e-07
7.766083404560794e-07
8.188739435654301e-07
8.633534413959113e-07
9.101579509727014e-07
9.594039027305221e-07
1.01121328073683e-06
1.065713873073972e-06
1.123039532775362e-06
1.183330449725171e-06
1.246733433944589e-06
1.313402210703003e-06
1.383497727906694e-06
1.457188476234002e-06
1.534650822501026e-06
1.616069356758747e-06
1.701637253639339e-06
1.791556648486419e-06
1.886039028821995e-06
1.985305641721127e-06
2.089587917684161e-06
2.199127911615273e-06
2.314178761536607e-06
2.435005165686829e-06
2.561883878674337e-06
2.695104227376318e-06
2.834968647297584e-06
2.981793240124242e-06
3.135908353232251e-06
3.297659181932406e-06
3.467406395259811e-06
3.645526786138482e-06
3.832413946779308e-06
4.028478970193806e-06
4.234151178734215e-06
4.449878880596603e-06
4.676130155252803e-06
4.913393668804256e-06
5.162179520280977e-06
5.42302011993864e-06
5.69647110063645e-06
5.983112263411036e-06
6.283548558392061e-06
6.598411102238469e-06
6.928358233307714e-06
7.274076605803175e-06
7.636282324180538e-06
8.015722119128652e-06
8.413174566476224e-06
8.829451350412201e-06
9.265398572445564e-06
9.721898107567227e-06
1.019986900911643e-05
1.070026896389199e-05
1.122409579909082e-05
1.177238904269377e-05
1.234623153896341e-05
1.2946751120758e-05
1.357512234040981e-05
1.423256826095829e-05
1.49203623095738e-05
1.563983019505058e-05
1.639235189129464e-05
1.71793636887764e-05
1.800236031596501e-05
1.886289713280924e-05
1.976259239837538e-05
2.070312961480213e-05
2.16862599497811e-05
2.271380473982071e-05
2.378765807659818e-05
2.490978947876221e-05
2.608224665158677e-05
2.730715833694303e-05
2.858673725609256e-05
2.992328314786951e-05
3.131918590486164e-05
3.277692881026111e-05
3.429909187810028e-05
3.588835529964903e-05
3.75475029987941e-05
3.927942629928567e-05
4.108712770677826e-05
4.297372480865282e-05
4.494245429466205e-05
4.699667610148886e-05
4.913987768436483e-05
5.137567841895122e-05
5.37078341367299e-05
5.614024179721506e-05
5.867694430034321e-05
6.132213544244977e-05
6.408016501929568e-05
6.69555440796618e-05
6.995295033306964e-05
7.307723371524969e-05
7.633342211501653e-05
7.97267272662689e-05
8.326255080887203e-05
8.694649052223479e-05
9.078434673542781e-05
9.47821289177547e-05
9.89460624537043e-05
0.0001032825956062812
0.0001077984066727301
0.0001125004113367294
0.0001173957702211495
0.0001224918966455171
0.0001277964645923649
0.0001333174168866624
0.0001390629735925727
0.0001450416406318028
0.0001512622186278254
0.0001577338119802997
0.0001644658381740259
0.0001714680373267769
0.0001787504819803904
0.0001863235871394981
0.0001941981205622837
0.000202385213307675
0.0002108963705433677
0.000219743482619077
0.0002289388364094416
0.0002384951269309411
0.0002484254692372214
0.000258743410597195
0.0002694629429602612
0.0002805985157129587
0.0002921650487313507
0.0003041779457334057
0.0003166531079355817
0.0003296069480178155
0.0003430564044010114
0.0003570189558411504
0.0003715126363440023
0.0003865560504044073
0.0004021683885740022
0.0004183694433612155
0.0004351796254672363
0.0004526199803615748
0.0004707122052007987
0.0004894786660938317
0.0005089424157171626
0.0005291272112831761
0.0005500575328646736
0.0005717586020785536
0.0005942564011314444
0.0006175776922299797
0.0006417500373582105
0.0006668018184245148
0.0006927622577801719
0.0007196614391116003
0.0007475303287080796
0.0007764007971065454
0.0008063056411148912
0.0008372786062149476
0.0008693544093460984
0.0009025687620702875
0.0009369583941188713
0.0009725610773215835
0.001009415649917574
0.001047562041248175
0.001087041296830855
0.001127895603813497
0.0011701683168077
0.001213903984099799
0.001259148374237512
0.00130594850299035
0.001354352660680987
0.001404410439884944
0.001456172763495251
0.001509691913148421
0.001565021558007863
0.001622216783900152
0.001681334122799502
0.001742431582655022
0.001805568677555168
0.001870806458223293
0.001938207542837503
0.002007836148168009
0.002079758121024233
0.002154040970003687
0.002230753897534138
0.002309967832199859
0.00239175546134253
0.002476191263926545
0.002563351543658158
0.002653314462347066
0.002746160073498872
0.002841970356125737
0.002940829248762632
0.003042822683675137
0.003148038621245034
0.003256567084518733
0.003368500193902853
0.003483932201991397
0.003602959528507212
0.003725680795340843
0.003852196861668455
0.003982610859130081
0.004117028227048979
0.004255556747671969
0.004398306581409672
0.004545390302055629
0.004696922931961666
0.004853021977146862
0.005013807462316427
0.005179401965766001
0.005349930654146504
0.005525521317063372
0.005706304401484114
0.005892413045926445
0.00608398311439912
0.006281153230066688
0.006484064808608716
0.006692862091243091
0.006907692177382281
0.007128705056891121
0.007356053641913466
0.007589893798234169
0.007830384376143107
0.008077687240765666
0.008331967301825128
0.008593392542800209
0.008862134049441096
0.0091383660376065
0.009422265880383165
0.00971401413444937
0.01001379456564214
0.01032179417368847
0.01063820321605943
0.0109632152309051
0.01129702705902871
0.01163983886485709
0.01199185415636347
0.01235327980389922
0.01272432605788942
0.01310520656534762
0.01349613838516384
0.01389734200211969
0.01430904133958401
0.01473146377084214
0.01516484012901042
0.01560940471549021
0.01606539530690948
0.0165330531605074
0.01701262301790964
0.01750435310724741
0.01800849514356868
0.01852530432749443
0.0190550393420667
0.0195979623477414
0.02015433897547421
0.02072443831784857
0.02130853291819676
0.02190689875766378
0.02251981524016167
0.02314756517516665
0.02379043475830685
0.02444871354969243
0.02512269444993654
0.02581267367381842
0.02651895072154012
0.02724182834752702
0.02798161252672392
0.02873861241833807
0.02951314032698335
0.03030551166117751
0.03111604488914419
0.0319450614918787
0.03279288591342779
0.03365984550834213
0.03454627048625663
0.03545249385355718
0.03637885135209053
0.03732568139488024
0.03829332499880306
0.03928212571419445
0.04029242955134117
0.04132458490382605
0.04237894246869206
0.04345585516338835
0.04455567803947128
0.04567876819302745
0.04682548467178749
0.04799618837890988
0.04919124197340159
0.05041100976715699
0.05165585761859235
0.05292615282285211
0.05422226399857409
0.05554456097119206
0.05689341465276502
0.05826919691832236
0.05967228047870764
0.06110303874992228
0.06256184571895886
0.06404907580612094
0.06556510372382988
0.06711030433192246
0.06868505248943815
0.07028972290290914
0.07192468997115817
0.07359032762661959
0.0752870091731979
0.07701510712067801
0.07877499301571417
0.08056703726941672
0.08239160898156624
0.08424907576147893
0.08613980354556471
0.08806415641160559
0.09002249638979758
0.09201518327059652
0.09404257440941512
0.09610502452821314
0.09820288551404557
0.1003365062146049
0.1025062322308355
0.1047124057066675
0.1069553651159404
0.1092354450465889
0.1115529759821527
0.1139082840806938
0.1163016909512019
0.1187335134275589
0.1212040633401591
0.1237136472852704
0.1262625663922276
0.1288511160885563
0.1314795858631228
0.1341482590274209
0.1368574124750935
0.1396073164398003
0.1423982342515545
0.145230422091628
0.1481041287461608
0.1510195953585898
0.1539770551810208
0.1569767333246882
0.1600188465096138
0.1631036028136195
0.166231201420823
0.1694018323697628
0.172615676301295
0.1758729042064183
0.1791736771741609
0.1825181461397088
0.1859064516329046
0.1893387235273012
0.1928150807899146
0.1963356312318509
0.1999004712599645
0.2035096856297326
0.2071633471995033
0.210861516686291
0.21460424242331
0.2183915601194072
0.2222234926205812
0.2261000496737715
0.2300212276930937
0.233987009528713
0.2379973642385329
0.2420522468628948
0.2461515982024749
0.2502953445995597
0.254483397722899
0.2587156543563286
0.2629919961913415
0.2673122896238115
0.2716763855550584
0.2760841191974445
0.2805353098846899
0.2850297608871131
0.2895672592319745
0.2941475755291137
0.2987704638020873
0.3034356613249746
0.3081428884650542
0.3128918485315338
0.3176822276305264
0.3225136945264361
0.327385900509973
0.3322984792729333
0.337251046789968
0.3422432012074769
0.3472745227398387
0.3523445735731138
0.3574528977764239
0.36259902122114
0.3677824515080731
0.3730026779028064
0.3782591712793311
0.3835513840721408
0.3888787502369396
0.3942406852200856
0.3996365859369481
0.4050658307592703
0.4105277795117138
0.4160217734776762
0.4215471354145336
0.427103169578398
0.4326891617585271
0.4383043793214741
0.4439480712651021
0.4496194682825236
0.4553177828360961
0.4610422092415342
0.466791923762218
0.4725660847137732
0.4783638325790017
0.4841842901331941
0.4900265625799022
0.4958897376972137
0.5017728859945563
0.5076750608800625
0.5135952988385553
0.5195326196201205
0.5254860264393156
0.531454506185007
0.5374370296408278
0.543432551716251
0.5494400116882502
0.5554583334535369
0.5614864257913228
0.5675231826365807
0.5735674833637399
0.5796181930807648
0.5856741629335571
0.5917342304206
0.5977972197177526
0.6038619420131393
0.6099271958519863
0.6159917674913594
0.6220544312646211
0.628113949955554
0.6341690751819586
0.640218547788645
0.64626109824962
0.652295447079359
0.6583203052529689
0.6643343746350953
0.670336348417395
0.6763249115643583
0.6822987412673457
0.6882565074065833
0.6941968730209414
0.7001184947852754
0.7060200234951045
0.7119001045584041
0.717757378494262
0.7235904814381837
0.7293980456537699
0.7351787000505255
0.7409310707075312
0.7466537814027139
0.7523454541474457
0.7580047097261725
0.7636301682408095
0.7692204496595992
0.7747741743701342
0.7802899637362495
0.7857664406584748
0.7912022301377222
0.7965959598419212
0.801946260675255
0.8072517673496783
0.8125111189584032
0.8177229595510007
0.822885938709797
0.8279987121272154
0.8330599421837376
0.8380682985261206
0.8430224586455363
0.8479211084552837
0.8527629428677251
0.8575466663700801
0.8622709935987476
0.8669346499117864
0.8715363719591949
0.8760749082506556
0.88054901972037
0.8849574802886335
0.8892990774197975
0.8935726126762734
0.8977769022682031
0.9019107775984616
0.9059730858026489
0.909962690283693
0.9138784712407486
0.9177193261920297
0.9214841704912483
0.9251719378372986
0.9287815807768854
0.9323120711997338
0.935762400826072
0.9391315816860507
0.9424186465908004
0.9456226495947891
0.948742666449185
0.9517777950459198
0.9547271558521472
0.9575898923348113
0.960365171375032
0.9630521836720333
0.9656501441363368
0.9681582922719492
0.9705758925472888
0.9729022347546016
0.9751366343576077
0.9772784328271558
0.9793269979646433
0.9812817242129823
0.9831420329549068
0.9849073727983982
0.9865772198490496
0.9881510779691677
0.9896284790234396
0.9910089831109938
0.9922921787836874
0.9934776832504802
0.9945651425677434
0.9955542318153741
0.9964446552585913
0.9972361464953057
0.9979284685889527
0.9985214141867025
0.9990148056229617
0.9994084950080931
0.9997023643022951
0.9998963253745854
0.9999903200468511
0.9999843201229306
0.999878327402711
0.9996723736812276
0.9993665207327689
0.9989608602799956
0.9984555139480981
0.9978506332040221
0.9971463992808063
0.9963430230870838
0.9954407451018129
0.9944398352543069
0.9933405927896513
0.9921433461195989
0.9908484526590479
0.9894562986482175
0.9879672989606431
0.98638189689713
0.9847005639657982
0.9829237996483845
0.9810521311529529
0.9790861131531907
0.977026327514471
0.9748733830068628
0.9726279150053035
0.970290585177119
0.9678620811571261
0.9653431162105297
0.9627344288838463
0.9600367826440955
0.9572509655065135
0.9543777896510214
0.9514180910277359
0.9483727289517716
0.945242585687616
0.9420285660233613
0.938731596835075
0.9353526266416077
0.9318926251501348
0.9283525827927319
0.9247335102543096
0.9210364379921999
0.9172624157477309
0.91341251205011
0.9094878137129339
0.9054894253236727
0.9014184687264458
0.8972760824984484
0.8930634214203432
0.8887816559409953
0.8844319716368646
0.8800155686664165
0.8755336612199165
0.8709874769649395
0.8663782564879435
0.8617072527322923
0.8569757304330488
0.8521849655489141
0.8473362446916546
0.842430864553389
0.8374701313320733
0.8324553601555452
0.827387874504473
0.8222690056345866
0.8171000919984996
0.8118824786675078
0.8066175167536811
0.8013065628326234
0.7959509783672125
0.7905521291326685
0.7851113846432948
0.7796301175812091
0.7741097032274087
0.7685515188954717
0.7629569433682349
0.7573273563377575
0.7516641378488785
0.7459686677466709
0.7402423251281103
0.7344864877982364
0.7287025317311083
0.7228918305358307
0.7170557549279428
0.7111956722064413
0.7053129457366818
0.6994089344394571
0.6934849922864889
0.6875424678025625
0.6815827035745915
0.6756070357677965
0.6696167936492708
0.6636132991191188
0.6575978662493954
0.6515718008310711
0.6455363999291682
0.6394929514463364
0.6334427336949657
0.6273870149780909
0.6213270531791992
0.6152640953611356
0.6091993773742392
0.6031341234738643
0.5970695459474232
0.5910068447510752
0.5849472071561806
0.5788918074056483
0.5728418063802561
0.5667983512750671
0.5607625752860085
0.5547355973067113
0.5487185216356678
0.5427124376937875
0.5367184197523923
0.5307375266717206
0.5247708016499505
0.5188192719828145
0.5128839488337921
0.5069658270149346
0.5010658847782944
0.495185083617999
0.4893243680829484
0.4834846656001036
0.4776668863083953
0.4718719229031771
0.4661006504912178
0.4603539264561913
0.4546325903346026
0.4489374637021111
0.4432693500701826
0.4376290347930099
0.4320172849846181
0.4264348494460829
0.420882458602779
0.4153608244515685
0.4098706405178104
0.4044125818221276
0.3989873048567855
0.3935954475715971
0.38823762936922
0.3829144511097195
0.3776264951242968
0.3723743252380065
0.3671584868013682
0.3619795067307019
0.3568378935570581
0.3517341374835814
0.3466687104511658
0.341642066212236
0.3366546404125011
0.3317068506805066
0.3267990967248364
0.3219317604387756
0.3171052060122734
0.3123197800510322
0.3075758117025396
0.3028736127888674
0.2982134779460544
0.2935956847698989
0.2890204939679599
0.2844881495175971
0.2799988788298543
0.2755528929189911
0.2711503865774942
0.2667915385563492
0.2624765117504113
0.2582054533886591
0.2539784952291523
0.2497957537584982
0.2456573303956423
0.2415633116997729
0.2375137695821637
0.2335087615217626
0.2295483307843293
0.22563250664493
0.221761304613616
0.2179347266640736
0.2141527614650854
0.21041538461459
0.2067225588761841
0.2030742344178562
0.1994703490527922
0.1959108284820641
0.1923955865390239
0.1889245254352326
0.1854975360077419
0.1821144979675665
0.1787752801491677
0.1754797407608016
0.1722277276355332
0.1690190784827902
0.16585362114028
0.1627311738261085
0.1596515453909582
0.1566145355701755
0.1536199352356048
0.1506675266470356
0.1477570837031285
0.1448883721916564
0.1420611500389516
0.1392751675584082
0.1365301676979191
0.1338258862861229
0.1311620522773222
0.1285383879949805
0.1259546093736569
0.1234104261992747
0.1209055423476255
0.1184396560209813
0.1160124599827283
0.1136236417899186
0.111272884023645
0.1089598645171431
0.1066842565815353
0.1044457292291294
0.1022439473942029
0.1000785721511604
0.09794926093003473
0.09585566772922684
0.09379744332542632
0.09177423548065476
0.08978568914635959
0.08783144666450894
0.08591114796562659
0.08402443076372351
0.08217093074806926
0.08035028177176297
0.07856211603706392
0.07680606427744036
0.07508175593630219
0.0733888193423804
0.07172688188174028
0.07009557016637906
0.06849451019940292
0.06692332753675313
0.06538164744547122
0.06386909505848114
0.06238529552587858
0.06092987416272532
0.05950245659332948
0.05810266889201744
0.05673013772039234
0.05538449046107705
0.05406535534795611
0.05277236159290377
0.05150513950902616
0.05026332063041059
0.04904653782841016
0.04785442542446082
0.04668661929946663
0.04554275699975269
0.04442247783962123
0.04332542300052403
0.04225123562687898
0.04119956091855805
0.04017004622006827
0.03916234110646104
0.03817609746599632
0.0372109695795968
0.03626661419712179
0.03534269061050101
0.03443886072375879
0.03355478911996818
0.03269014312517578
0.03184459286933485
0.03101781134428623
0.03020947445883057
0.02941926109093571
0.0286468531371181
0.02789193555904951
0.02715419642742577
0.02643332696315054
0.02572902157587844
0.02504097789996083
0.02436889682784798
0.02371248254099071
0.02307144253829289
0.02244548766216216
0.02183433212220871
0.0212376935166438
0.02065529285142151
0.02008685455718272
0.01953210650404254
0.01899078001427841
0.01846260987296572
0.01794733433661053
0.01744469513983456
0.01695443750015494
0.01647631012091782
0.01601006519242875
0.01555545839133327
0.01511224887829694
0.01468019929403467
0.01425907575373614
0.01384864783994008
0.01344868859390305
0.01305897450551197
0.01267928550178952
0.01230940493403628
0.01194911956366048
0.01159821954674234
0.01125649841737279
0.0109237530698202
0.0105997837395657
0.01028439398325187
0.009977390657589669
0.009678583897266698
0.009387787091899922
0.009104816862074273
0.008829493034508256
0.008561638616389731
0.008301079768919497
0.008047645780103462
0.007801169036832333
0.007561484996286108
0.007328432156702734
0.007101852027545336
0.006881589099105597
0.006667490811578623
0.006459407523643124
0.006257192480581229
0.006060701781971572
0.005869794348986854
0.005684331891328762
0.005504178873830925
0.005329202482758796
0.005159272591837947
0.004994261728038235
0.004834045037141724
0.004678500249122228
0.004527507643362346
0.004380950013733983
0.004238712633567614
0.004100683220534056
0.003966751901462397
0.003836811177117649
0.00371075588695889
0.003588483173900837
0.003469892449097869
0.003354885356772527
0.003243365739105648
0.003135239601208532
0.003030415076194259
0.002928802390365285
0.002830313828534866
0.002734863699497341
0.002642368301662991
0.002552745888872541
0.002465916636404933
0.002381802607192071
0.002300327718253639
0.002221417707363709
0.002145000099961628
0.002071004176317975
0.001999360938965904
0.001930003080408594
0.001862864951111782
0.001797882527790702
0.001734993381999686
0.001674136649032528
0.00161525299714115
0.001558284597079568
0.00150317509197946
0.001449869567563786
0.001398314522703813
0.001348457840325044
0.001300248758666349
0.001253637842897191
0.001208576957096572
0.00116501923659744
0.001122919060699584
0.00108223202575401
0.001042914918621322
0.001004925690505807
0.0009682234311676222
0.0009327683435140927
0.0008985217185714773
0.0008654459108379188
0.0008335043140183202
0.0008026613371411837
0.0007728823810576133
0.0007441338153221307
0.0007163829554547326
0.0006895980405835457
0.0006637482114670518
0.0006388034888945681
0.0006147347524636845
0.0005915137197329779
0.0005691129257481279
0.0005475057029395049
0.0005266661613889013
0.000506569169463146
0.0004871903348120863
0.000468505985728135
0.0004504931528646468
0.0004331295513101225
0.0004163935630152025
0.000400264219569081
0.0003847211853221738
0.0003697447408514581
0.0003553157667650416
0.0003414157278422562
0.0003280266575054955
0.0003151311426201254
0.0003027123086184555
0.000290753804943819
0.0002792397908108059
0.0002681549212775112
0.0002574843336256666
0.000247213634044493
0.0002373288846140096
0.0002278165905835975
0.0002186636879414621
0.0002098575312706952
0.0002013858818875795
0.00019323689625778
0.0001853991146860609
0.0001778614502750708
0.0001706131781488377
0.0001636439249366109
0.0001569436585125625
0.0001505026779870139
0.0001443116039447599
0.0001383613689261282
0.0001326432081464093
0.0001271486504492872
0.0001218695094899427
0.0001167978751435226
0.0001119261051346902
0.0001072468168839844
0.0001027528795667587
9.843740638050126e-05
9.429374701636043e-05
9.031548033074572e-05
8.649640721290389e-05
8.283054364440441e-05
7.93121139465268e-05
7.593554421154533e-05
7.269545591400321e-05
6.958665969806144e-05
6.660414933708538e-05
6.374309586165216e-05
6.099884185224361e-05
5.836689589289521e-05
5.584292718216761e-05
5.342276029780062e-05
5.11023701115245e-05
4.887787685048605e-05
4.674554130186677e-05
4.470176015726453e-05
4.274306149349508e-05
4.086610038651437e-05
3.906765465521551e-05
3.734462073190391e-05
3.569400965631541e-05
3.411294319008521e-05
3.259865004863831e-05
3.114846224752306e-05
2.975981156025844e-05
2.843022608482679e-05
2.715732691598691e-05
2.593882492064742e-05
2.477251761358453e-05
2.365628613084636e-05
2.258809229822813e-05
2.15659757922738e-05
2.058805139128976e-05
1.965250631392694e-05
1.87575976429183e-05
1.790164983163172e-05
1.708305229113191e-05
1.630025705549744e-05
1.555177652319435e-05
1.483618127235411e-05
1.415209794784248e-05
1.349820721806887e-05
1.287324179952179e-05
1.227598454706435e-05
1.170526660807194e-05
1.115996563853687e-05
1.063900407931297e-05
1.014134749070971e-05
9.666002943697491e-06
9.212017466022417e-06
8.77847654157204e-06
8.364502661375756e-06
7.969253924664789e-06
7.591922688450997e-06
7.231734264133963e-06
6.88794565967231e-06
6.559844365900469e-06
6.246747185607704e-06
5.947999104031177e-06
5.662972199453287e-06
5.391064592625143e-06
5.1316994337763e-06
4.884323926001664e-06
4.648408383851125e-06
4.423445325979516e-06
4.208948600745948e-06
4.004452543683191e-06
3.809511165787853e-06
3.623697371611994e-06
3.446602206165777e-06
3.277834129669335e-06
3.11701831922101e-06
2.963795996473035e-06
2.817823780436663e-06
2.678773064561728e-06
2.54632941726197e-06
2.420192005082039e-06
2.300073037726748e-06
2.185697234195693e-06
2.076801309291229e-06
1.973133479787632e-06
1.874452989573716e-06
1.780529653100921e-06
1.691143416490256e-06
1.606083935671499e-06
1.52515017094838e-06
1.448149997401609e-06
1.37489983056177e-06
1.305224266800595e-06
1.238955737908728e-06
1.175934179343766e-06
1.116006711649948e-06
1.059027334567137e-06
1.004856633362343e-06
9.533614969326114e-07
9.044148472430075e-07
8.578953796783177e-07
8.136873139005731e-07
7.716801548188983e-07
7.317684632911555e-07
6.938516361900196e-07
6.578336954783337e-07
6.236230859513955e-07
5.911324813149287e-07
5.602785982795694e-07
5.309820183635569e-07
5.031670171060926e-07
4.767614004044206e-07
4.516963476976943e-07
4.279062617305913e-07
4.053286246391876e-07
3.839038601107465e-07
3.63575201377942e-07
3.442885648169558e-07
3.259924289269024e-07
3.086377184764314e-07
2.921776936109016e-07
2.765678437214949e-07
2.617657858844833e-07
2.477311676864645e-07
2.344255742577313e-07
2.218124393430997e-07
2.098569602453821e-07
1.985260164833858e-07
1.87788092011895e-07
1.776132008571537e-07
1.679728160267967e-07
1.58839801558669e-07
1.501883475779962e-07
1.419939082376827e-07
1.34233142421068e-07
1.26883857091344e-07
1.199249531762855e-07
1.133363738812747e-07
1.070990553278358e-07
1.011948794189678e-07
9.560662883640197e-08
9.031794407872443e-08
8.531328245291055e-08
8.057787893534036e-08
7.609770882168628e-08
7.185945208834887e-08
6.785045939121184e-08
6.40587196305477e-08
6.047282901370163e-08
5.708196155010435e-08
5.38758409157126e-08
5.084471362668193e-08
4.797932346445328e-08
4.527088709691064e-08
4.271107084251896e-08
4.029196852656125e-08
3.800608038077024e-08
3.584629293962051e-08
3.380585988856673e-08
3.187838382138658e-08
3.005779886559792e-08
2.833835413665556e-08
2.671459798332734e-08
2.518136298824246e-08
2.373375168915311e-08
2.236712298793346e-08
2.107707921576661e-08
1.985945382433222e-08
1.871029967411633e-08
1.762587789223554e-08
1.660264727335689e-08
1.563725419846821e-08
1.472652304735495e-08
1.386744708170947e-08
1.305717977680998e-08
1.229302658070589e-08
1.157243708075617e-08
1.089299755829214e-08
1.025242391301809e-08
9.648554939604511e-09
9.079345939703922e-09
8.542862653387372e-09