/*--------------------------------*- C++ -*----------------------------------*\
| =========                 |                                                 |
| \\      /  F ield         | OpenFOAM: The Open Source CFD Toolbox           |
|  \\    /   O peration     | Version:  2412                                  |
|   \\  /    A nd           | Website:  www.openfoam.com                      |
|    \\/     M anipulation  |                                                 |
\*---------------------------------------------------------------------------*/
FoamFile
{
    version     2.0;
    format      ascii;
    arch        "LSB;label=32;scalar=64";
    class       surfaceScalarField;
    location    "0.26";
    object      phi;
}
// * * * * * * * * * * * * * * * * * * * * * * * * * * * * * * * * * * * * * //

dimensions      [0 3 -1 0 0 0 0];

oriented        oriented;

internalField   nonuniform List<scalar> 
799
(
4.32288e-05
8.64576e-05
0.000129686
0.000172912
0.000216137
0.000259359
0.000302579
0.000345796
0.000389009
0.000432218
0.000475423
0.000518623
0.000561817
0.000605005
0.000648187
0.000691363
0.000734531
0.000777692
0.000820844
0.000863988
0.000907123
0.000950249
0.000993364
0.00103647
0.00107956
0.00112265
0.00116572
0.00120878
0.00125182
0.00129486
0.00133788
0.00138088
0.00142388
0.00146685
0.00150981
0.00155276
0.00159569
0.0016386
0.00168149
0.00172437
0.00176723
0.00181007
0.00185289
0.00189569
0.00193847
0.00198123
0.00202397
0.00206669
0.00210939
0.00215206
0.00219471
0.00223734
0.00227994
0.00232252
0.00236507
0.0024076
0.0024501
0.00249258
0.00253502
0.00257744
0.00261984
0.0026622
0.00270454
0.00274684
0.00278912
0.00283137
0.00287358
0.00291576
0.00295792
0.00300003
0.00304212
0.00308417
0.00312619
0.00316817
0.00321012
0.00325203
0.00329391
0.00333575
0.00337755
0.00341931
0.00346104
0.00350273
0.00354437
0.00358598
0.00362755
0.00366907
0.00371056
0.003752
0.00379339
0.00383475
0.00387606
0.00391732
0.00395854
0.00399972
0.00404085
0.00408193
0.00412296
0.00416395
0.00420488
0.00424577
0.00428661
0.00432739
0.00436813
0.00440881
0.00444944
0.00449002
0.00453054
0.00457101
0.00461143
0.00465178
0.00469209
0.00473233
0.00477252
0.00481265
0.00485271
0.00489272
0.00493267
0.00497256
0.00501239
0.00505215
0.00509185
0.00513149
0.00517106
0.00521057
0.00525001
0.00528938
0.00532868
0.00536792
0.00540709
0.00544619
0.00548522
0.00552417
0.00556306
0.00560187
0.00564061
0.00567927
0.00571786
0.00575637
0.0057948
0.00583316
0.00587144
0.00590964
0.00594776
0.00598579
0.00602375
0.00606162
0.00609941
0.00613711
0.00617473
0.00621226
0.00624971
0.00628707
0.00632433
0.00636151
0.0063986
0.00643559
0.00647249
0.0065093
0.00654601
0.00658263
0.00661915
0.00665557
0.00669189
0.00672812
0.00676424
0.00680026
0.00683617
0.00687199
0.00690769
0.00694329
0.00697879
0.00701417
0.00704944
0.00708461
0.00711966
0.0071546
0.00718942
0.00722413
0.00725872
0.00729319
0.00732754
0.00736177
0.00739588
0.00742987
0.00746373
0.00749747
0.00753108
0.00756456
0.00759791
0.00763113
0.00766422
0.00769717
0.00772999
0.00776267
0.00779521
0.00782761
0.00785987
0.00789199
0.00792396
0.00795579
0.00798747
0.00801899
0.00805037
0.0080816
0.00811267
0.00814358
0.00817434
0.00820494
0.00823537
0.00826564
0.00829575
0.00832569
0.00835546
0.00838507
0.00841449
0.00844375
0.00847283
0.00850172
0.00853044
0.00855898
0.00858733
0.00861549
0.00864347
0.00867125
0.00869884
0.00872624
0.00875343
0.00878043
0.00880722
0.00883381
0.00886018
0.00888635
0.00891231
0.00893805
0.00896357
0.00898887
0.00901395
0.0090388
0.00906343
0.00908782
0.00911197
0.00913589
0.00915957
0.009183
0.00920619
0.00922912
0.00925181
0.00927423
0.0092964
0.0093183
0.00933994
0.0093613
0.00938239
0.00940321
0.00942374
0.00944398
0.00946394
0.0094836
0.00950297
0.00952204
0.0095408
0.00955925
0.00957738
0.0095952
0.00961269
0.00962986
0.00964669
0.00966318
0.00967934
0.00969514
0.00971059
0.00972569
0.00974042
0.00975478
0.00976877
0.00978238
0.0097956
0.00980843
0.00982086
0.00983288
0.0098445
0.00985569
0.00986646
0.0098768
0.00988671
0.00989616
0.00990517
0.00991371
0.00992178
0.00992938
0.00993649
0.0099431
0.00994922
0.00995482
0.00995991
0.00996446
0.00996848
0.00997194
0.00997485
0.00997718
0.00997894
0.0099801
0.00998067
0.00998061
0.00997993
0.00997861
0.00997664
0.00997401
0.00997069
0.00996668
0.00996197
0.00995653
0.00995036
0.00994343
0.00993573
0.00992725
0.00991796
0.00990785
0.0098969
0.00988509
0.00987239
0.0098588
0.00984429
0.00982883
0.0098124
0.00979498
0.00977654
0.00975706
0.00973651
0.00971486
0.00969209
0.00966816
0.00964304
0.0096167
0.0095891
0.00956022
0.00953
0.00949842
0.00946543
0.009431
0.00939507
0.00935759
0.00931853
0.00927783
0.00923544
0.0091913
0.00914534
0.00909752
0.00904777
0.008996
0.00894217
0.00888618
0.00882795
0.00876741
0.00870446
0.00863901
0.00857095
0.00850018
0.00842659
0.00835005
0.00827043
0.0081876
0.00810142
0.00801172
0.00791834
0.00782111
0.00771983
0.0076143
0.0075043
0.0073896
0.00726994
0.00714506
0.00701467
0.00687845
0.00673608
0.00658718
0.00643139
0.00626828
0.00609741
0.00591832
0.00573051
0.00553346
0.00532661
0.00510941
0.00488128
0.00464164
0.00438994
0.00412567
0.00384837
0.0035577
0.00325346
0.00293564
0.00260448
0.00226049
0.00190453
0.00153782
0.00116194
0.000778822
0.000390697
1.04294e-08
-0.000390674
-0.000778795
-0.0011619
-0.00153778
-0.00190448
-0.00226042
-0.0026044
-0.00293555
-0.00325336
-0.00355759
-0.00384824
-0.00412554
-0.0043898
-0.0046415
-0.00488113
-0.00510926
-0.00532646
-0.00553331
-0.00573037
-0.00591818
-0.00609727
-0.00626814
-0.00643125
-0.00658705
-0.00673595
-0.00687833
-0.00701455
-0.00714494
-0.00726983
-0.00738949
-0.00750419
-0.0076142
-0.00771973
-0.00782102
-0.00791825
-0.00801164
-0.00810134
-0.00818752
-0.00827036
-0.00834998
-0.00842652
-0.00850012
-0.00857089
-0.00863895
-0.00870441
-0.00876736
-0.0088279
-0.00888613
-0.00894212
-0.00899596
-0.00904773
-0.00909749
-0.00914531
-0.00919126
-0.00923541
-0.0092778
-0.00931851
-0.00935757
-0.00939504
-0.00943097
-0.00946541
-0.0094984
-0.00952998
-0.0095602
-0.00958909
-0.00961668
-0.00964302
-0.00966814
-0.00969208
-0.00971485
-0.0097365
-0.00975705
-0.00977653
-0.00979497
-0.00981239
-0.00982882
-0.00984428
-0.0098588
-0.00987239
-0.00988508
-0.00989689
-0.00990785
-0.00991796
-0.00992725
-0.00993573
-0.00994343
-0.00995035
-0.00995653
-0.00996197
-0.00996668
-0.00997069
-0.009974
-0.00997664
-0.00997861
-0.00997993
-0.00998061
-0.00998067
-0.0099801
-0.00997894
-0.00997718
-0.00997485
-0.00997194
-0.00996847
-0.00996446
-0.00995991
-0.00995482
-0.00994922
-0.0099431
-0.00993649
-0.00992937
-0.00992178
-0.00991371
-0.00990516
-0.00989616
-0.0098867
-0.0098768
-0.00986646
-0.00985569
-0.00984449
-0.00983288
-0.00982085
-0.00980842
-0.00979559
-0.00978237
-0.00976876
-0.00975478
-0.00974041
-0.00972568
-0.00971059
-0.00969514
-0.00967933
-0.00966318
-0.00964668
-0.00962985
-0.00961268
-0.00959519
-0.00957737
-0.00955924
-0.00954079
-0.00952203
-0.00950296
-0.0094836
-0.00946393
-0.00944397
-0.00942373
-0.0094032
-0.00938238
-0.00936129
-0.00933993
-0.00931829
-0.00929639
-0.00927422
-0.0092518
-0.00922911
-0.00920618
-0.00918299
-0.00915956
-0.00913588
-0.00911196
-0.0090878
-0.00906341
-0.00903879
-0.00901394
-0.00898886
-0.00896356
-0.00893804
-0.0089123
-0.00888634
-0.00886017
-0.00883379
-0.0088072
-0.00878041
-0.00875342
-0.00872622
-0.00869883
-0.00867124
-0.00864345
-0.00861548
-0.00858731
-0.00855896
-0.00853043
-0.00850171
-0.00847281
-0.00844373
-0.00841448
-0.00838505
-0.00835545
-0.00832567
-0.00829573
-0.00826563
-0.00823535
-0.00820492
-0.00817432
-0.00814356
-0.00811265
-0.00808158
-0.00805035
-0.00801898
-0.00798745
-0.00795577
-0.00792394
-0.00789197
-0.00785985
-0.00782759
-0.00779519
-0.00776265
-0.00772997
-0.00769715
-0.0076642
-0.00763111
-0.00759789
-0.00756454
-0.00753106
-0.00749745
-0.00746372
-0.00742985
-0.00739587
-0.00736176
-0.00732752
-0.00729317
-0.0072587
-0.00722411
-0.0071894
-0.00715458
-0.00711964
-0.00708459
-0.00704943
-0.00701415
-0.00697877
-0.00694327
-0.00690767
-0.00687197
-0.00683616
-0.00680024
-0.00676422
-0.0067281
-0.00669188
-0.00665555
-0.00661913
-0.00658261
-0.006546
-0.00650928
-0.00647248
-0.00643558
-0.00639858
-0.00636149
-0.00632432
-0.00628705
-0.00624969
-0.00621225
-0.00617472
-0.0061371
-0.00609939
-0.00606161
-0.00602373
-0.00598578
-0.00594774
-0.00590962
-0.00587142
-0.00583314
-0.00579479
-0.00575635
-0.00571784
-0.00567925
-0.00564059
-0.00560185
-0.00556304
-0.00552416
-0.0054852
-0.00544617
-0.00540708
-0.00536791
-0.00532867
-0.00528937
-0.00524999
-0.00521055
-0.00517105
-0.00513148
-0.00509184
-0.00505214
-0.00501238
-0.00497255
-0.00493266
-0.00489271
-0.0048527
-0.00481263
-0.00477251
-0.00473232
-0.00469207
-0.00465177
-0.00461142
-0.004571
-0.00453053
-0.00449001
-0.00444943
-0.0044088
-0.00436812
-0.00432738
-0.0042866
-0.00424576
-0.00420488
-0.00416394
-0.00412295
-0.00408192
-0.00404084
-0.00399971
-0.00395854
-0.00391732
-0.00387605
-0.00383474
-0.00379339
-0.00375199
-0.00371055
-0.00366907
-0.00362754
-0.00358597
-0.00354437
-0.00350272
-0.00346103
-0.00341931
-0.00337754
-0.00333574
-0.0032939
-0.00325203
-0.00321012
-0.00316817
-0.00312619
-0.00308417
-0.00304212
-0.00300003
-0.00295791
-0.00291576
-0.00287358
-0.00283136
-0.00278912
-0.00274684
-0.00270453
-0.0026622
-0.00261983
-0.00257744
-0.00253502
-0.00249257
-0.0024501
-0.00240759
-0.00236507
-0.00232251
-0.00227994
-0.00223733
-0.00219471
-0.00215206
-0.00210938
-0.00206669
-0.00202397
-0.00198123
-0.00193847
-0.00189569
-0.00185289
-0.00181007
-0.00176723
-0.00172437
-0.00168149
-0.0016386
-0.00159568
-0.00155276
-0.00150981
-0.00146685
-0.00142387
-0.00138088
-0.00133788
-0.00129486
-0.00125182
-0.00120878
-0.00116572
-0.00112265
-0.00107956
-0.00103647
-0.000993364
-0.000950248
-0.000907123
-0.000863988
-0.000820844
-0.000777691
-0.000734531
-0.000691363
-0.000648187
-0.000605005
-0.000561817
-0.000518622
-0.000475423
-0.000432218
-0.000389009
-0.000345796
-0.000302579
-0.00025936
-0.000216137
-0.000172912
-0.000129686
-8.6458e-05
-4.32292e-05
)
;

boundaryField
{
    left
    {
        type            calculated;
        value           uniform 0;
    }
    right
    {
        type            calculated;
        value           uniform 0;
    }
    frontBackUpDown
    {
        type            empty;
    }
}


// ************************************************************************* //
