/*--------------------------------*- C++ -*----------------------------------*\
| =========                 |                                                 |
| \\      /  F ield         | OpenFOAM: The Open Source CFD Toolbox           |
|  \\    /   O peration     | Version:  2412                                  |
|   \\  /    A nd           | Website:  www.openfoam.com                      |
|    \\/     M anipulation  |                                                 |
\*---------------------------------------------------------------------------*/
FoamFile
{
    version     2.0;
    format      ascii;
    arch        "LSB;label=32;scalar=64";
    class       volVectorField;
    location    "0.26";
    object      U_0;
}
// * * * * * * * * * * * * * * * * * * * * * * * * * * * * * * * * * * * * * //

dimensions      [0 1 -1 0 0 0 0];

internalField   nonuniform List<vector> 
800
(
(0.0021633 0 0)
(0.00648994 0 0)
(0.0108165 0 0)
(0.015143 0 0)
(0.0194693 0 0)
(0.0237954 0 0)
(0.0281213 0 0)
(0.0324469 0 0)
(0.0367721 0 0)
(0.041097 0 0)
(0.0454214 0 0)
(0.0497453 0 0)
(0.0540688 0 0)
(0.0583916 0 0)
(0.0627139 0 0)
(0.0670355 0 0)
(0.0713564 0 0)
(0.0756766 0 0)
(0.079996 0 0)
(0.0843145 0 0)
(0.0886322 0 0)
(0.0929489 0 0)
(0.0972647 0 0)
(0.101579 0 0)
(0.105893 0 0)
(0.110206 0 0)
(0.114517 0 0)
(0.118827 0 0)
(0.123136 0 0)
(0.127444 0 0)
(0.13175 0 0)
(0.136055 0 0)
(0.140359 0 0)
(0.144661 0 0)
(0.148961 0 0)
(0.15326 0 0)
(0.157558 0 0)
(0.161853 0 0)
(0.166147 0 0)
(0.17044 0 0)
(0.17473 0 0)
(0.179019 0 0)
(0.183305 0 0)
(0.18759 0 0)
(0.191873 0 0)
(0.196153 0 0)
(0.200432 0 0)
(0.204708 0 0)
(0.208983 0 0)
(0.213255 0 0)
(0.217524 0 0)
(0.221792 0 0)
(0.226057 0 0)
(0.230319 0 0)
(0.234579 0 0)
(0.238837 0 0)
(0.243092 0 0)
(0.247344 0 0)
(0.251594 0 0)
(0.255841 0 0)
(0.260085 0 0)
(0.264326 0 0)
(0.268565 0 0)
(0.2728 0 0)
(0.277033 0 0)
(0.281263 0 0)
(0.285489 0 0)
(0.289712 0 0)
(0.293932 0 0)
(0.298149 0 0)
(0.302363 0 0)
(0.306573 0 0)
(0.31078 0 0)
(0.314983 0 0)
(0.319183 0 0)
(0.323379 0 0)
(0.327572 0 0)
(0.331761 0 0)
(0.335947 0 0)
(0.340128 0 0)
(0.344306 0 0)
(0.34848 0 0)
(0.35265 0 0)
(0.356815 0 0)
(0.360977 0 0)
(0.365135 0 0)
(0.369289 0 0)
(0.373438 0 0)
(0.377583 0 0)
(0.381724 0 0)
(0.38586 0 0)
(0.389992 0 0)
(0.394119 0 0)
(0.398242 0 0)
(0.40236 0 0)
(0.406474 0 0)
(0.410582 0 0)
(0.414686 0 0)
(0.418785 0 0)
(0.42288 0 0)
(0.426969 0 0)
(0.431053 0 0)
(0.435132 0 0)
(0.439205 0 0)
(0.443274 0 0)
(0.447337 0 0)
(0.451395 0 0)
(0.455447 0 0)
(0.459494 0 0)
(0.463536 0 0)
(0.467572 0 0)
(0.471602 0 0)
(0.475626 0 0)
(0.479644 0 0)
(0.483657 0 0)
(0.487663 0 0)
(0.491664 0 0)
(0.495658 0 0)
(0.499647 0 0)
(0.503629 0 0)
(0.507604 0 0)
(0.511574 0 0)
(0.515537 0 0)
(0.519493 0 0)
(0.523443 0 0)
(0.527386 0 0)
(0.531322 0 0)
(0.535252 0 0)
(0.539174 0 0)
(0.54309 0 0)
(0.546999 0 0)
(0.5509 0 0)
(0.554794 0 0)
(0.558681 0 0)
(0.562561 0 0)
(0.566433 0 0)
(0.570298 0 0)
(0.574155 0 0)
(0.578005 0 0)
(0.581846 0 0)
(0.58568 0 0)
(0.589506 0 0)
(0.593324 0 0)
(0.597133 0 0)
(0.600935 0 0)
(0.604728 0 0)
(0.608513 0 0)
(0.61229 0 0)
(0.616058 0 0)
(0.619817 0 0)
(0.623568 0 0)
(0.627309 0 0)
(0.631042 0 0)
(0.634766 0 0)
(0.638481 0 0)
(0.642187 0 0)
(0.645883 0 0)
(0.64957 0 0)
(0.653248 0 0)
(0.656915 0 0)
(0.660574 0 0)
(0.664222 0 0)
(0.667861 0 0)
(0.671489 0 0)
(0.675108 0 0)
(0.678716 0 0)
(0.682314 0 0)
(0.685902 0 0)
(0.689479 0 0)
(0.693045 0 0)
(0.696601 0 0)
(0.700146 0 0)
(0.70368 0 0)
(0.707203 0 0)
(0.710714 0 0)
(0.714214 0 0)
(0.717703 0 0)
(0.721181 0 0)
(0.724646 0 0)
(0.7281 0 0)
(0.731542 0 0)
(0.734972 0 0)
(0.73839 0 0)
(0.741795 0 0)
(0.745188 0 0)
(0.748568 0 0)
(0.751936 0 0)
(0.755291 0 0)
(0.758633 0 0)
(0.761962 0 0)
(0.765277 0 0)
(0.768579 0 0)
(0.771868 0 0)
(0.775143 0 0)
(0.778404 0 0)
(0.781651 0 0)
(0.784884 0 0)
(0.788103 0 0)
(0.791307 0 0)
(0.794497 0 0)
(0.797672 0 0)
(0.800832 0 0)
(0.803977 0 0)
(0.807106 0 0)
(0.810221 0 0)
(0.813319 0 0)
(0.816402 0 0)
(0.819469 0 0)
(0.82252 0 0)
(0.825555 0 0)
(0.828573 0 0)
(0.831574 0 0)
(0.834559 0 0)
(0.837527 0 0)
(0.840477 0 0)
(0.84341 0 0)
(0.846325 0 0)
(0.849223 0 0)
(0.852103 0 0)
(0.854964 0 0)
(0.857807 0 0)
(0.860631 0 0)
(0.863436 0 0)
(0.866222 0 0)
(0.868989 0 0)
(0.871737 0 0)
(0.874464 0 0)
(0.877172 0 0)
(0.879859 0 0)
(0.882526 0 0)
(0.885172 0 0)
(0.887797 0 0)
(0.890401 0 0)
(0.892983 0 0)
(0.895544 0 0)
(0.898083 0 0)
(0.900599 0 0)
(0.903093 0 0)
(0.905564 0 0)
(0.908011 0 0)
(0.910436 0 0)
(0.912836 0 0)
(0.915213 0 0)
(0.917565 0 0)
(0.919893 0 0)
(0.922196 0 0)
(0.924473 0 0)
(0.926725 0 0)
(0.928951 0 0)
(0.93115 0 0)
(0.933323 0 0)
(0.935469 0 0)
(0.937588 0 0)
(0.939679 0 0)
(0.941742 0 0)
(0.943776 0 0)
(0.945782 0 0)
(0.947758 0 0)
(0.949705 0 0)
(0.951622 0 0)
(0.953508 0 0)
(0.955363 0 0)
(0.957187 0 0)
(0.95898 0 0)
(0.96074 0 0)
(0.962467 0 0)
(0.964161 0 0)
(0.965822 0 0)
(0.967448 0 0)
(0.96904 0 0)
(0.970597 0 0)
(0.972118 0 0)
(0.973603 0 0)
(0.975051 0 0)
(0.976461 0 0)
(0.977834 0 0)
(0.979169 0 0)
(0.980464 0 0)
(0.98172 0 0)
(0.982935 0 0)
(0.984109 0 0)
(0.985242 0 0)
(0.986332 0 0)
(0.98738 0 0)
(0.988384 0 0)
(0.989343 0 0)
(0.990258 0 0)
(0.991126 0 0)
(0.991948 0 0)
(0.992722 0 0)
(0.993448 0 0)
(0.994125 0 0)
(0.994752 0 0)
(0.995328 0 0)
(0.995853 0 0)
(0.996324 0 0)
(0.996743 0 0)
(0.997106 0 0)
(0.997414 0 0)
(0.997665 0 0)
(0.997858 0 0)
(0.997993 0 0)
(0.998067 0 0)
(0.998081 0 0)
(0.998032 0 0)
(0.99792 0 0)
(0.997743 0 0)
(0.997499 0 0)
(0.997189 0 0)
(0.996809 0 0)
(0.996359 0 0)
(0.995838 0 0)
(0.995243 0 0)
(0.994574 0 0)
(0.993828 0 0)
(0.993004 0 0)
(0.9921 0 0)
(0.991115 0 0)
(0.990046 0 0)
(0.988891 0 0)
(0.98765 0 0)
(0.986319 0 0)
(0.984896 0 0)
(0.98338 0 0)
(0.981768 0 0)
(0.980057 0 0)
(0.978246 0 0)
(0.976331 0 0)
(0.974311 0 0)
(0.972181 0 0)
(0.96994 0 0)
(0.967585 0 0)
(0.965111 0 0)
(0.962517 0 0)
(0.959799 0 0)
(0.956953 0 0)
(0.953976 0 0)
(0.950863 0 0)
(0.947611 0 0)
(0.944216 0 0)
(0.940674 0 0)
(0.936979 0 0)
(0.933127 0 0)
(0.929113 0 0)
(0.924932 0 0)
(0.920579 0 0)
(0.916047 0 0)
(0.911331 0 0)
(0.906424 0 0)
(0.901319 0 0)
(0.89601 0 0)
(0.890489 0 0)
(0.884748 0 0)
(0.878779 0 0)
(0.872573 0 0)
(0.86612 0 0)
(0.859412 0 0)
(0.852438 0 0)
(0.845186 0 0)
(0.837645 0 0)
(0.829803 0 0)
(0.821645 0 0)
(0.813159 0 0)
(0.804329 0 0)
(0.795139 0 0)
(0.785572 0 0)
(0.77561 0 0)
(0.765232 0 0)
(0.754419 0 0)
(0.743147 0 0)
(0.731392 0 0)
(0.719129 0 0)
(0.70633 0 0)
(0.692965 0 0)
(0.679001 0 0)
(0.664405 0 0)
(0.64914 0 0)
(0.633167 0 0)
(0.616442 0 0)
(0.598923 0 0)
(0.58056 0 0)
(0.561304 0 0)
(0.541101 0 0)
(0.519899 0 0)
(0.49764 0 0)
(0.474269 0 0)
(0.449731 0 0)
(0.423972 0 0)
(0.396948 0 0)
(0.368618 0 0)
(0.338958 0 0)
(0.307958 0 0)
(0.275629 0 0)
(0.242009 0 0)
(0.207167 0 0)
(0.171205 0 0)
(0.134262 0 0)
(0.0965102 0 0)
(0.0581554 0 0)
(0.0194278 0 0)
(-0.0194258 0 0)
(-0.0581531 0 0)
(-0.0965072 0 0)
(-0.134258 0 0)
(-0.1712 0 0)
(-0.207161 0 0)
(-0.242002 0 0)
(-0.27562 0 0)
(-0.307948 0 0)
(-0.338947 0 0)
(-0.368606 0 0)
(-0.396935 0 0)
(-0.423959 0 0)
(-0.449717 0 0)
(-0.474255 0 0)
(-0.497626 0 0)
(-0.519884 0 0)
(-0.541087 0 0)
(-0.561289 0 0)
(-0.580545 0 0)
(-0.598908 0 0)
(-0.616428 0 0)
(-0.633153 0 0)
(-0.649127 0 0)
(-0.664392 0 0)
(-0.678988 0 0)
(-0.692952 0 0)
(-0.706318 0 0)
(-0.719118 0 0)
(-0.731381 0 0)
(-0.743136 0 0)
(-0.754408 0 0)
(-0.765222 0 0)
(-0.7756 0 0)
(-0.785563 0 0)
(-0.795131 0 0)
(-0.804321 0 0)
(-0.813151 0 0)
(-0.821638 0 0)
(-0.829795 0 0)
(-0.837638 0 0)
(-0.845179 0 0)
(-0.852432 0 0)
(-0.859406 0 0)
(-0.866115 0 0)
(-0.872567 0 0)
(-0.878773 0 0)
(-0.884743 0 0)
(-0.890484 0 0)
(-0.896006 0 0)
(-0.901315 0 0)
(-0.90642 0 0)
(-0.911327 0 0)
(-0.916044 0 0)
(-0.920576 0 0)
(-0.924929 0 0)
(-0.929111 0 0)
(-0.933124 0 0)
(-0.936976 0 0)
(-0.940671 0 0)
(-0.944214 0 0)
(-0.947609 0 0)
(-0.950861 0 0)
(-0.953974 0 0)
(-0.956951 0 0)
(-0.959797 0 0)
(-0.962516 0 0)
(-0.96511 0 0)
(-0.967583 0 0)
(-0.969939 0 0)
(-0.97218 0 0)
(-0.97431 0 0)
(-0.97633 0 0)
(-0.978245 0 0)
(-0.980057 0 0)
(-0.981767 0 0)
(-0.98338 0 0)
(-0.984896 0 0)
(-0.986318 0 0)
(-0.987649 0 0)
(-0.988891 0 0)
(-0.990045 0 0)
(-0.991114 0 0)
(-0.9921 0 0)
(-0.993004 0 0)
(-0.993828 0 0)
(-0.994574 0 0)
(-0.995243 0 0)
(-0.995838 0 0)
(-0.996359 0 0)
(-0.996809 0 0)
(-0.997189 0 0)
(-0.997499 0 0)
(-0.997743 0 0)
(-0.99792 0 0)
(-0.998032 0 0)
(-0.998081 0 0)
(-0.998067 0 0)
(-0.997993 0 0)
(-0.997858 0 0)
(-0.997665 0 0)
(-0.997414 0 0)
(-0.997106 0 0)
(-0.996742 0 0)
(-0.996324 0 0)
(-0.995853 0 0)
(-0.995328 0 0)
(-0.994752 0 0)
(-0.994125 0 0)
(-0.993448 0 0)
(-0.992722 0 0)
(-0.991948 0 0)
(-0.991126 0 0)
(-0.990258 0 0)
(-0.989343 0 0)
(-0.988384 0 0)
(-0.98738 0 0)
(-0.986332 0 0)
(-0.985242 0 0)
(-0.984109 0 0)
(-0.982934 0 0)
(-0.981719 0 0)
(-0.980463 0 0)
(-0.979168 0 0)
(-0.977834 0 0)
(-0.976461 0 0)
(-0.97505 0 0)
(-0.973602 0 0)
(-0.972117 0 0)
(-0.970596 0 0)
(-0.969039 0 0)
(-0.967448 0 0)
(-0.965821 0 0)
(-0.964161 0 0)
(-0.962466 0 0)
(-0.960739 0 0)
(-0.958979 0 0)
(-0.957187 0 0)
(-0.955362 0 0)
(-0.953507 0 0)
(-0.951621 0 0)
(-0.949704 0 0)
(-0.947757 0 0)
(-0.945781 0 0)
(-0.943775 0 0)
(-0.941741 0 0)
(-0.939678 0 0)
(-0.937587 0 0)
(-0.935468 0 0)
(-0.933322 0 0)
(-0.931149 0 0)
(-0.92895 0 0)
(-0.926724 0 0)
(-0.924472 0 0)
(-0.922194 0 0)
(-0.919892 0 0)
(-0.917564 0 0)
(-0.915212 0 0)
(-0.912835 0 0)
(-0.910434 0 0)
(-0.90801 0 0)
(-0.905562 0 0)
(-0.903091 0 0)
(-0.900598 0 0)
(-0.898081 0 0)
(-0.895543 0 0)
(-0.892982 0 0)
(-0.8904 0 0)
(-0.887796 0 0)
(-0.885171 0 0)
(-0.882524 0 0)
(-0.879858 0 0)
(-0.87717 0 0)
(-0.874463 0 0)
(-0.871735 0 0)
(-0.868988 0 0)
(-0.866221 0 0)
(-0.863435 0 0)
(-0.860629 0 0)
(-0.857805 0 0)
(-0.854962 0 0)
(-0.852101 0 0)
(-0.849221 0 0)
(-0.846324 0 0)
(-0.843408 0 0)
(-0.840475 0 0)
(-0.837525 0 0)
(-0.834557 0 0)
(-0.831573 0 0)
(-0.828571 0 0)
(-0.825553 0 0)
(-0.822518 0 0)
(-0.819468 0 0)
(-0.816401 0 0)
(-0.813318 0 0)
(-0.810219 0 0)
(-0.807105 0 0)
(-0.803975 0 0)
(-0.80083 0 0)
(-0.79767 0 0)
(-0.794495 0 0)
(-0.791305 0 0)
(-0.788101 0 0)
(-0.784882 0 0)
(-0.781649 0 0)
(-0.778402 0 0)
(-0.775141 0 0)
(-0.771866 0 0)
(-0.768578 0 0)
(-0.765275 0 0)
(-0.76196 0 0)
(-0.758631 0 0)
(-0.755289 0 0)
(-0.751934 0 0)
(-0.748567 0 0)
(-0.745186 0 0)
(-0.741793 0 0)
(-0.738388 0 0)
(-0.73497 0 0)
(-0.73154 0 0)
(-0.728098 0 0)
(-0.724644 0 0)
(-0.721179 0 0)
(-0.717702 0 0)
(-0.714213 0 0)
(-0.710712 0 0)
(-0.707201 0 0)
(-0.703678 0 0)
(-0.700144 0 0)
(-0.696599 0 0)
(-0.693043 0 0)
(-0.689477 0 0)
(-0.6859 0 0)
(-0.682312 0 0)
(-0.678714 0 0)
(-0.675106 0 0)
(-0.671488 0 0)
(-0.667859 0 0)
(-0.66422 0 0)
(-0.660572 0 0)
(-0.656914 0 0)
(-0.653246 0 0)
(-0.649568 0 0)
(-0.645881 0 0)
(-0.642185 0 0)
(-0.638479 0 0)
(-0.634765 0 0)
(-0.631041 0 0)
(-0.627308 0 0)
(-0.623566 0 0)
(-0.619815 0 0)
(-0.616056 0 0)
(-0.612288 0 0)
(-0.608512 0 0)
(-0.604727 0 0)
(-0.600934 0 0)
(-0.597132 0 0)
(-0.593322 0 0)
(-0.589504 0 0)
(-0.585678 0 0)
(-0.581845 0 0)
(-0.578003 0 0)
(-0.574154 0 0)
(-0.570297 0 0)
(-0.566432 0 0)
(-0.56256 0 0)
(-0.55868 0 0)
(-0.554793 0 0)
(-0.550899 0 0)
(-0.546997 0 0)
(-0.543089 0 0)
(-0.539173 0 0)
(-0.53525 0 0)
(-0.531321 0 0)
(-0.527385 0 0)
(-0.523442 0 0)
(-0.519492 0 0)
(-0.515535 0 0)
(-0.511573 0 0)
(-0.507603 0 0)
(-0.503628 0 0)
(-0.499646 0 0)
(-0.495657 0 0)
(-0.491663 0 0)
(-0.487662 0 0)
(-0.483656 0 0)
(-0.479643 0 0)
(-0.475625 0 0)
(-0.4716 0 0)
(-0.46757 0 0)
(-0.463535 0 0)
(-0.459493 0 0)
(-0.455446 0 0)
(-0.451394 0 0)
(-0.447336 0 0)
(-0.443273 0 0)
(-0.439204 0 0)
(-0.435131 0 0)
(-0.431052 0 0)
(-0.426968 0 0)
(-0.422879 0 0)
(-0.418785 0 0)
(-0.414685 0 0)
(-0.410582 0 0)
(-0.406473 0 0)
(-0.402359 0 0)
(-0.398241 0 0)
(-0.394118 0 0)
(-0.389991 0 0)
(-0.385859 0 0)
(-0.381723 0 0)
(-0.377582 0 0)
(-0.373437 0 0)
(-0.369288 0 0)
(-0.365134 0 0)
(-0.360977 0 0)
(-0.356815 0 0)
(-0.352649 0 0)
(-0.348479 0 0)
(-0.344305 0 0)
(-0.340127 0 0)
(-0.335946 0 0)
(-0.331761 0 0)
(-0.327572 0 0)
(-0.323379 0 0)
(-0.319183 0 0)
(-0.314983 0 0)
(-0.310779 0 0)
(-0.306573 0 0)
(-0.302362 0 0)
(-0.298149 0 0)
(-0.293932 0 0)
(-0.289712 0 0)
(-0.285489 0 0)
(-0.281262 0 0)
(-0.277033 0 0)
(-0.2728 0 0)
(-0.268565 0 0)
(-0.264326 0 0)
(-0.260085 0 0)
(-0.255841 0 0)
(-0.251594 0 0)
(-0.247344 0 0)
(-0.243092 0 0)
(-0.238837 0 0)
(-0.234579 0 0)
(-0.230319 0 0)
(-0.226056 0 0)
(-0.221791 0 0)
(-0.217524 0 0)
(-0.213254 0 0)
(-0.208982 0 0)
(-0.204708 0 0)
(-0.200432 0 0)
(-0.196153 0 0)
(-0.191872 0 0)
(-0.18759 0 0)
(-0.183305 0 0)
(-0.179018 0 0)
(-0.17473 0 0)
(-0.170439 0 0)
(-0.166147 0 0)
(-0.161853 0 0)
(-0.157558 0 0)
(-0.15326 0 0)
(-0.148961 0 0)
(-0.144661 0 0)
(-0.140359 0 0)
(-0.136055 0 0)
(-0.13175 0 0)
(-0.127444 0 0)
(-0.123136 0 0)
(-0.118827 0 0)
(-0.114517 0 0)
(-0.110206 0 0)
(-0.105893 0 0)
(-0.101579 0 0)
(-0.0972646 0 0)
(-0.0929489 0 0)
(-0.0886321 0 0)
(-0.0843145 0 0)
(-0.0799959 0 0)
(-0.0756766 0 0)
(-0.0713564 0 0)
(-0.0670355 0 0)
(-0.0627139 0 0)
(-0.0583916 0 0)
(-0.0540688 0 0)
(-0.0497453 0 0)
(-0.0454214 0 0)
(-0.041097 0 0)
(-0.0367721 0 0)
(-0.0324469 0 0)
(-0.0281213 0 0)
(-0.0237955 0 0)
(-0.0194693 0 0)
(-0.015143 0 0)
(-0.0108166 0 0)
(-0.00648998 0 0)
(-0.00216334 0 0)
)
;

boundaryField
{
    left
    {
        type            fixedValue;
        value           uniform (0 0 0);
    }
    right
    {
        type            fixedValue;
        value           uniform (0 0 0);
    }
    frontBackUpDown
    {
        type            empty;
    }
}


// ************************************************************************* //
