/*--------------------------------*- C++ -*----------------------------------*\
| =========                 |                                                 |
| \\      /  F ield         | OpenFOAM: The Open Source CFD Toolbox           |
|  \\    /   O peration     | Version:  2412                                  |
|   \\  /    A nd           | Website:  www.openfoam.com                      |
|    \\/     M anipulation  |                                                 |
\*---------------------------------------------------------------------------*/
FoamFile
{
    version     2.0;
    format      ascii;
    arch        "LSB;label=32;scalar=64";
    class       volVectorField;
    location    "0.26";
    object      U_0_0_0;
}
// * * * * * * * * * * * * * * * * * * * * * * * * * * * * * * * * * * * * * //

dimensions      [0 1 -1 0 0 0 0];

internalField   nonuniform List<vector> 
800
(
(0.00216705 0 0)
(0.00650118 0 0)
(0.0108353 0 0)
(0.0151692 0 0)
(0.019503 0 0)
(0.0238366 0 0)
(0.02817 0 0)
(0.032503 0 0)
(0.0368358 0 0)
(0.0411681 0 0)
(0.0455 0 0)
(0.0498314 0 0)
(0.0541623 0 0)
(0.0584927 0 0)
(0.0628224 0 0)
(0.0671515 0 0)
(0.0714798 0 0)
(0.0758075 0 0)
(0.0801343 0 0)
(0.0844603 0 0)
(0.0887853 0 0)
(0.0931095 0 0)
(0.0974327 0 0)
(0.101755 0 0)
(0.106076 0 0)
(0.110396 0 0)
(0.114715 0 0)
(0.119032 0 0)
(0.123349 0 0)
(0.127664 0 0)
(0.131977 0 0)
(0.13629 0 0)
(0.140601 0 0)
(0.14491 0 0)
(0.149218 0 0)
(0.153524 0 0)
(0.157829 0 0)
(0.162132 0 0)
(0.166433 0 0)
(0.170732 0 0)
(0.17503 0 0)
(0.179326 0 0)
(0.18362 0 0)
(0.187912 0 0)
(0.192201 0 0)
(0.196489 0 0)
(0.200775 0 0)
(0.205059 0 0)
(0.20934 0 0)
(0.213619 0 0)
(0.217896 0 0)
(0.22217 0 0)
(0.226443 0 0)
(0.230712 0 0)
(0.234979 0 0)
(0.239244 0 0)
(0.243506 0 0)
(0.247765 0 0)
(0.252022 0 0)
(0.256276 0 0)
(0.260527 0 0)
(0.264775 0 0)
(0.26902 0 0)
(0.273263 0 0)
(0.277502 0 0)
(0.281739 0 0)
(0.285972 0 0)
(0.290202 0 0)
(0.294429 0 0)
(0.298652 0 0)
(0.302873 0 0)
(0.30709 0 0)
(0.311303 0 0)
(0.315513 0 0)
(0.31972 0 0)
(0.323922 0 0)
(0.328122 0 0)
(0.332317 0 0)
(0.336509 0 0)
(0.340697 0 0)
(0.344881 0 0)
(0.349062 0 0)
(0.353238 0 0)
(0.35741 0 0)
(0.361578 0 0)
(0.365742 0 0)
(0.369902 0 0)
(0.374058 0 0)
(0.378209 0 0)
(0.382356 0 0)
(0.386499 0 0)
(0.390637 0 0)
(0.39477 0 0)
(0.398899 0 0)
(0.403023 0 0)
(0.407143 0 0)
(0.411257 0 0)
(0.415367 0 0)
(0.419472 0 0)
(0.423572 0 0)
(0.427667 0 0)
(0.431757 0 0)
(0.435842 0 0)
(0.439921 0 0)
(0.443995 0 0)
(0.448064 0 0)
(0.452128 0 0)
(0.456186 0 0)
(0.460238 0 0)
(0.464285 0 0)
(0.468326 0 0)
(0.472362 0 0)
(0.476392 0 0)
(0.480415 0 0)
(0.484433 0 0)
(0.488445 0 0)
(0.492451 0 0)
(0.49645 0 0)
(0.500444 0 0)
(0.504431 0 0)
(0.508412 0 0)
(0.512386 0 0)
(0.516354 0 0)
(0.520315 0 0)
(0.52427 0 0)
(0.528218 0 0)
(0.532159 0 0)
(0.536093 0 0)
(0.54002 0 0)
(0.543941 0 0)
(0.547854 0 0)
(0.55176 0 0)
(0.555659 0 0)
(0.55955 0 0)
(0.563434 0 0)
(0.567311 0 0)
(0.57118 0 0)
(0.575041 0 0)
(0.578894 0 0)
(0.58274 0 0)
(0.586578 0 0)
(0.590408 0 0)
(0.59423 0 0)
(0.598043 0 0)
(0.601849 0 0)
(0.605646 0 0)
(0.609434 0 0)
(0.613214 0 0)
(0.616986 0 0)
(0.620749 0 0)
(0.624503 0 0)
(0.628248 0 0)
(0.631984 0 0)
(0.635711 0 0)
(0.63943 0 0)
(0.643138 0 0)
(0.646838 0 0)
(0.650528 0 0)
(0.654208 0 0)
(0.657879 0 0)
(0.66154 0 0)
(0.665191 0 0)
(0.668832 0 0)
(0.672463 0 0)
(0.676084 0 0)
(0.679695 0 0)
(0.683296 0 0)
(0.686885 0 0)
(0.690465 0 0)
(0.694033 0 0)
(0.697591 0 0)
(0.701138 0 0)
(0.704674 0 0)
(0.708198 0 0)
(0.711712 0 0)
(0.715214 0 0)
(0.718704 0 0)
(0.722183 0 0)
(0.72565 0 0)
(0.729105 0 0)
(0.732548 0 0)
(0.735979 0 0)
(0.739398 0 0)
(0.742805 0 0)
(0.746199 0 0)
(0.74958 0 0)
(0.752948 0 0)
(0.756304 0 0)
(0.759646 0 0)
(0.762975 0 0)
(0.766291 0 0)
(0.769594 0 0)
(0.772882 0 0)
(0.776157 0 0)
(0.779418 0 0)
(0.782665 0 0)
(0.785898 0 0)
(0.789116 0 0)
(0.79232 0 0)
(0.795509 0 0)
(0.798683 0 0)
(0.801843 0 0)
(0.804987 0 0)
(0.808115 0 0)
(0.811228 0 0)
(0.814326 0 0)
(0.817407 0 0)
(0.820473 0 0)
(0.823522 0 0)
(0.826555 0 0)
(0.829572 0 0)
(0.832571 0 0)
(0.835554 0 0)
(0.838519 0 0)
(0.841467 0 0)
(0.844398 0 0)
(0.84731 0 0)
(0.850205 0 0)
(0.853082 0 0)
(0.85594 0 0)
(0.85878 0 0)
(0.861601 0 0)
(0.864403 0 0)
(0.867185 0 0)
(0.869949 0 0)
(0.872692 0 0)
(0.875416 0 0)
(0.878119 0 0)
(0.880802 0 0)
(0.883465 0 0)
(0.886106 0 0)
(0.888727 0 0)
(0.891326 0 0)
(0.893903 0 0)
(0.896458 0 0)
(0.898992 0 0)
(0.901502 0 0)
(0.903991 0 0)
(0.906456 0 0)
(0.908897 0 0)
(0.911315 0 0)
(0.91371 0 0)
(0.91608 0 0)
(0.918425 0 0)
(0.920746 0 0)
(0.923041 0 0)
(0.925311 0 0)
(0.927556 0 0)
(0.929774 0 0)
(0.931966 0 0)
(0.93413 0 0)
(0.936268 0 0)
(0.938378 0 0)
(0.940461 0 0)
(0.942515 0 0)
(0.94454 0 0)
(0.946536 0 0)
(0.948503 0 0)
(0.95044 0 0)
(0.952347 0 0)
(0.954222 0 0)
(0.956067 0 0)
(0.957881 0 0)
(0.959662 0 0)
(0.961411 0 0)
(0.963127 0 0)
(0.964809 0 0)
(0.966458 0 0)
(0.968072 0 0)
(0.969651 0 0)
(0.971195 0 0)
(0.972703 0 0)
(0.974175 0 0)
(0.975609 0 0)
(0.977006 0 0)
(0.978365 0 0)
(0.979685 0 0)
(0.980965 0 0)
(0.982206 0 0)
(0.983406 0 0)
(0.984565 0 0)
(0.985681 0 0)
(0.986756 0 0)
(0.987787 0 0)
(0.988773 0 0)
(0.989716 0 0)
(0.990612 0 0)
(0.991463 0 0)
(0.992266 0 0)
(0.993022 0 0)
(0.993729 0 0)
(0.994386 0 0)
(0.994993 0 0)
(0.995549 0 0)
(0.996053 0 0)
(0.996504 0 0)
(0.9969 0 0)
(0.997242 0 0)
(0.997527 0 0)
(0.997756 0 0)
(0.997926 0 0)
(0.998037 0 0)
(0.998087 0 0)
(0.998076 0 0)
(0.998003 0 0)
(0.997865 0 0)
(0.997662 0 0)
(0.997392 0 0)
(0.997054 0 0)
(0.996647 0 0)
(0.996169 0 0)
(0.995619 0 0)
(0.994995 0 0)
(0.994296 0 0)
(0.99352 0 0)
(0.992665 0 0)
(0.99173 0 0)
(0.990712 0 0)
(0.98961 0 0)
(0.988423 0 0)
(0.987147 0 0)
(0.985781 0 0)
(0.984323 0 0)
(0.982771 0 0)
(0.981122 0 0)
(0.979374 0 0)
(0.977524 0 0)
(0.97557 0 0)
(0.97351 0 0)
(0.971339 0 0)
(0.969057 0 0)
(0.966659 0 0)
(0.964143 0 0)
(0.961504 0 0)
(0.958741 0 0)
(0.955849 0 0)
(0.952825 0 0)
(0.949665 0 0)
(0.946364 0 0)
(0.942919 0 0)
(0.939326 0 0)
(0.935579 0 0)
(0.931675 0 0)
(0.927607 0 0)
(0.923371 0 0)
(0.918961 0 0)
(0.914372 0 0)
(0.909597 0 0)
(0.90463 0 0)
(0.899465 0 0)
(0.894093 0 0)
(0.888508 0 0)
(0.882703 0 0)
(0.876667 0 0)
(0.870394 0 0)
(0.863873 0 0)
(0.857095 0 0)
(0.850049 0 0)
(0.842724 0 0)
(0.835109 0 0)
(0.827191 0 0)
(0.818957 0 0)
(0.810393 0 0)
(0.801483 0 0)
(0.792212 0 0)
(0.782564 0 0)
(0.772518 0 0)
(0.762057 0 0)
(0.751159 0 0)
(0.739802 0 0)
(0.727962 0 0)
(0.715614 0 0)
(0.702729 0 0)
(0.68928 0 0)
(0.675233 0 0)
(0.660556 0 0)
(0.645212 0 0)
(0.629162 0 0)
(0.612367 0 0)
(0.594782 0 0)
(0.57636 0 0)
(0.557055 0 0)
(0.536814 0 0)
(0.515586 0 0)
(0.493319 0 0)
(0.469958 0 0)
(0.445452 0 0)
(0.419754 0 0)
(0.392821 0 0)
(0.364618 0 0)
(0.335125 0 0)
(0.304336 0 0)
(0.272265 0 0)
(0.238954 0 0)
(0.204472 0 0)
(0.168919 0 0)
(0.13243 0 0)
(0.0951711 0 0)
(0.0573393 0 0)
(0.0191536 0 0)
(-0.0191517 0 0)
(-0.0573371 0 0)
(-0.0951683 0 0)
(-0.132426 0 0)
(-0.168914 0 0)
(-0.204466 0 0)
(-0.238948 0 0)
(-0.272257 0 0)
(-0.304326 0 0)
(-0.335115 0 0)
(-0.364607 0 0)
(-0.392808 0 0)
(-0.419741 0 0)
(-0.445439 0 0)
(-0.469944 0 0)
(-0.493304 0 0)
(-0.515572 0 0)
(-0.5368 0 0)
(-0.55704 0 0)
(-0.576346 0 0)
(-0.594767 0 0)
(-0.612353 0 0)
(-0.629149 0 0)
(-0.645198 0 0)
(-0.660543 0 0)
(-0.67522 0 0)
(-0.689267 0 0)
(-0.702717 0 0)
(-0.715602 0 0)
(-0.727951 0 0)
(-0.739792 0 0)
(-0.751149 0 0)
(-0.762047 0 0)
(-0.772509 0 0)
(-0.782554 0 0)
(-0.792204 0 0)
(-0.801475 0 0)
(-0.810384 0 0)
(-0.818949 0 0)
(-0.827184 0 0)
(-0.835102 0 0)
(-0.842717 0 0)
(-0.850042 0 0)
(-0.857089 0 0)
(-0.863867 0 0)
(-0.870388 0 0)
(-0.876662 0 0)
(-0.882698 0 0)
(-0.888504 0 0)
(-0.894089 0 0)
(-0.89946 0 0)
(-0.904626 0 0)
(-0.909593 0 0)
(-0.914369 0 0)
(-0.918958 0 0)
(-0.923368 0 0)
(-0.927604 0 0)
(-0.931672 0 0)
(-0.935577 0 0)
(-0.939324 0 0)
(-0.942917 0 0)
(-0.946362 0 0)
(-0.949663 0 0)
(-0.952823 0 0)
(-0.955848 0 0)
(-0.95874 0 0)
(-0.961503 0 0)
(-0.964141 0 0)
(-0.966658 0 0)
(-0.969056 0 0)
(-0.971338 0 0)
(-0.973509 0 0)
(-0.975569 0 0)
(-0.977523 0 0)
(-0.979373 0 0)
(-0.981121 0 0)
(-0.98277 0 0)
(-0.984323 0 0)
(-0.985781 0 0)
(-0.987146 0 0)
(-0.988422 0 0)
(-0.98961 0 0)
(-0.990712 0 0)
(-0.991729 0 0)
(-0.992665 0 0)
(-0.99352 0 0)
(-0.994296 0 0)
(-0.994995 0 0)
(-0.995619 0 0)
(-0.996169 0 0)
(-0.996647 0 0)
(-0.997054 0 0)
(-0.997392 0 0)
(-0.997662 0 0)
(-0.997865 0 0)
(-0.998003 0 0)
(-0.998076 0 0)
(-0.998087 0 0)
(-0.998037 0 0)
(-0.997926 0 0)
(-0.997756 0 0)
(-0.997527 0 0)
(-0.997242 0 0)
(-0.9969 0 0)
(-0.996504 0 0)
(-0.996053 0 0)
(-0.995549 0 0)
(-0.994993 0 0)
(-0.994386 0 0)
(-0.993729 0 0)
(-0.993022 0 0)
(-0.992266 0 0)
(-0.991463 0 0)
(-0.990612 0 0)
(-0.989715 0 0)
(-0.988773 0 0)
(-0.987786 0 0)
(-0.986755 0 0)
(-0.985681 0 0)
(-0.984564 0 0)
(-0.983406 0 0)
(-0.982206 0 0)
(-0.980965 0 0)
(-0.979684 0 0)
(-0.978364 0 0)
(-0.977006 0 0)
(-0.975609 0 0)
(-0.974174 0 0)
(-0.972703 0 0)
(-0.971195 0 0)
(-0.969651 0 0)
(-0.968071 0 0)
(-0.966457 0 0)
(-0.964809 0 0)
(-0.963126 0 0)
(-0.96141 0 0)
(-0.959661 0 0)
(-0.95788 0 0)
(-0.956067 0 0)
(-0.954222 0 0)
(-0.952346 0 0)
(-0.950439 0 0)
(-0.948502 0 0)
(-0.946535 0 0)
(-0.944539 0 0)
(-0.942514 0 0)
(-0.94046 0 0)
(-0.938377 0 0)
(-0.936267 0 0)
(-0.934129 0 0)
(-0.931964 0 0)
(-0.929773 0 0)
(-0.927555 0 0)
(-0.92531 0 0)
(-0.92304 0 0)
(-0.920745 0 0)
(-0.918424 0 0)
(-0.916078 0 0)
(-0.913708 0 0)
(-0.911314 0 0)
(-0.908896 0 0)
(-0.906454 0 0)
(-0.903989 0 0)
(-0.901501 0 0)
(-0.89899 0 0)
(-0.896457 0 0)
(-0.893902 0 0)
(-0.891324 0 0)
(-0.888725 0 0)
(-0.886105 0 0)
(-0.883463 0 0)
(-0.880801 0 0)
(-0.878118 0 0)
(-0.875414 0 0)
(-0.872691 0 0)
(-0.869947 0 0)
(-0.867184 0 0)
(-0.864401 0 0)
(-0.861599 0 0)
(-0.858778 0 0)
(-0.855939 0 0)
(-0.85308 0 0)
(-0.850204 0 0)
(-0.847309 0 0)
(-0.844396 0 0)
(-0.841465 0 0)
(-0.838517 0 0)
(-0.835552 0 0)
(-0.832569 0 0)
(-0.82957 0 0)
(-0.826553 0 0)
(-0.823521 0 0)
(-0.820471 0 0)
(-0.817406 0 0)
(-0.814324 0 0)
(-0.811227 0 0)
(-0.808114 0 0)
(-0.804985 0 0)
(-0.801841 0 0)
(-0.798682 0 0)
(-0.795507 0 0)
(-0.792318 0 0)
(-0.789114 0 0)
(-0.785896 0 0)
(-0.782663 0 0)
(-0.779416 0 0)
(-0.776155 0 0)
(-0.77288 0 0)
(-0.769592 0 0)
(-0.766289 0 0)
(-0.762973 0 0)
(-0.759644 0 0)
(-0.756302 0 0)
(-0.752946 0 0)
(-0.749578 0 0)
(-0.746197 0 0)
(-0.742803 0 0)
(-0.739396 0 0)
(-0.735978 0 0)
(-0.732547 0 0)
(-0.729103 0 0)
(-0.725648 0 0)
(-0.722181 0 0)
(-0.718702 0 0)
(-0.715212 0 0)
(-0.71171 0 0)
(-0.708197 0 0)
(-0.704672 0 0)
(-0.701136 0 0)
(-0.697589 0 0)
(-0.694032 0 0)
(-0.690463 0 0)
(-0.686884 0 0)
(-0.683294 0 0)
(-0.679693 0 0)
(-0.676083 0 0)
(-0.672462 0 0)
(-0.668831 0 0)
(-0.665189 0 0)
(-0.661538 0 0)
(-0.657877 0 0)
(-0.654206 0 0)
(-0.650526 0 0)
(-0.646836 0 0)
(-0.643137 0 0)
(-0.639428 0 0)
(-0.63571 0 0)
(-0.631983 0 0)
(-0.628246 0 0)
(-0.624501 0 0)
(-0.620747 0 0)
(-0.616984 0 0)
(-0.613213 0 0)
(-0.609433 0 0)
(-0.605644 0 0)
(-0.601847 0 0)
(-0.598042 0 0)
(-0.594228 0 0)
(-0.590406 0 0)
(-0.586577 0 0)
(-0.582739 0 0)
(-0.578893 0 0)
(-0.575039 0 0)
(-0.571178 0 0)
(-0.567309 0 0)
(-0.563433 0 0)
(-0.559549 0 0)
(-0.555657 0 0)
(-0.551758 0 0)
(-0.547852 0 0)
(-0.543939 0 0)
(-0.540019 0 0)
(-0.536092 0 0)
(-0.532158 0 0)
(-0.528216 0 0)
(-0.524269 0 0)
(-0.520314 0 0)
(-0.516353 0 0)
(-0.512385 0 0)
(-0.508411 0 0)
(-0.50443 0 0)
(-0.500443 0 0)
(-0.496449 0 0)
(-0.49245 0 0)
(-0.488444 0 0)
(-0.484432 0 0)
(-0.480414 0 0)
(-0.47639 0 0)
(-0.472361 0 0)
(-0.468325 0 0)
(-0.464284 0 0)
(-0.460237 0 0)
(-0.456185 0 0)
(-0.452127 0 0)
(-0.448063 0 0)
(-0.443995 0 0)
(-0.43992 0 0)
(-0.435841 0 0)
(-0.431756 0 0)
(-0.427666 0 0)
(-0.423571 0 0)
(-0.419471 0 0)
(-0.415366 0 0)
(-0.411257 0 0)
(-0.407142 0 0)
(-0.403022 0 0)
(-0.398898 0 0)
(-0.394769 0 0)
(-0.390636 0 0)
(-0.386498 0 0)
(-0.382355 0 0)
(-0.378208 0 0)
(-0.374057 0 0)
(-0.369902 0 0)
(-0.365742 0 0)
(-0.361578 0 0)
(-0.35741 0 0)
(-0.353237 0 0)
(-0.349061 0 0)
(-0.344881 0 0)
(-0.340697 0 0)
(-0.336509 0 0)
(-0.332317 0 0)
(-0.328121 0 0)
(-0.323922 0 0)
(-0.319719 0 0)
(-0.315513 0 0)
(-0.311303 0 0)
(-0.307089 0 0)
(-0.302872 0 0)
(-0.298652 0 0)
(-0.294428 0 0)
(-0.290201 0 0)
(-0.285971 0 0)
(-0.281738 0 0)
(-0.277502 0 0)
(-0.273262 0 0)
(-0.26902 0 0)
(-0.264775 0 0)
(-0.260526 0 0)
(-0.256275 0 0)
(-0.252022 0 0)
(-0.247765 0 0)
(-0.243506 0 0)
(-0.239244 0 0)
(-0.234979 0 0)
(-0.230712 0 0)
(-0.226442 0 0)
(-0.22217 0 0)
(-0.217896 0 0)
(-0.213619 0 0)
(-0.20934 0 0)
(-0.205058 0 0)
(-0.200775 0 0)
(-0.196489 0 0)
(-0.192201 0 0)
(-0.187911 0 0)
(-0.183619 0 0)
(-0.179326 0 0)
(-0.17503 0 0)
(-0.170732 0 0)
(-0.166433 0 0)
(-0.162132 0 0)
(-0.157829 0 0)
(-0.153524 0 0)
(-0.149218 0 0)
(-0.14491 0 0)
(-0.1406 0 0)
(-0.13629 0 0)
(-0.131977 0 0)
(-0.127664 0 0)
(-0.123349 0 0)
(-0.119032 0 0)
(-0.114715 0 0)
(-0.110396 0 0)
(-0.106076 0 0)
(-0.101755 0 0)
(-0.0974326 0 0)
(-0.0931095 0 0)
(-0.0887853 0 0)
(-0.0844602 0 0)
(-0.0801342 0 0)
(-0.0758074 0 0)
(-0.0714798 0 0)
(-0.0671514 0 0)
(-0.0628224 0 0)
(-0.0584927 0 0)
(-0.0541623 0 0)
(-0.0498314 0 0)
(-0.0455 0 0)
(-0.0411681 0 0)
(-0.0368358 0 0)
(-0.0325031 0 0)
(-0.02817 0 0)
(-0.0238367 0 0)
(-0.0195031 0 0)
(-0.0151693 0 0)
(-0.0108353 0 0)
(-0.00650122 0 0)
(-0.00216708 0 0)
)
;

boundaryField
{
    left
    {
        type            fixedValue;
        value           uniform (0 0 0);
    }
    right
    {
        type            fixedValue;
        value           uniform (0 0 0);
    }
    frontBackUpDown
    {
        type            empty;
    }
}


// ************************************************************************* //
