/*--------------------------------*- C++ -*----------------------------------*\
| =========                 |                                                 |
| \\      /  F ield         | OpenFOAM: The Open Source CFD Toolbox           |
|  \\    /   O peration     | Version:  2412                                  |
|   \\  /    A nd           | Website:  www.openfoam.com                      |
|    \\/     M anipulation  |                                                 |
\*---------------------------------------------------------------------------*/
FoamFile
{
    version     2.0;
    format      ascii;
    arch        "LSB;label=32;scalar=64";
    class       surfaceScalarField;
    location    "0.1";
    object      phi;
}
// * * * * * * * * * * * * * * * * * * * * * * * * * * * * * * * * * * * * * //

dimensions      [0 3 -1 0 0 0 0];

oriented        oriented;

internalField   nonuniform List<scalar> 
799
(
5.9751e-05
0.000119501
0.000179248
0.00023899
0.000298726
0.000358453
0.000418171
0.000477877
0.00053757
0.000597248
0.00065691
0.000716555
0.000776179
0.000835783
0.000895363
0.00095492
0.00101445
0.00107395
0.00113343
0.00119287
0.00125228
0.00131165
0.00137099
0.00143029
0.00148955
0.00154878
0.00160795
0.00166709
0.00172618
0.00178522
0.00184421
0.00190315
0.00196204
0.00202088
0.00207965
0.00213838
0.00219704
0.00225564
0.00231418
0.00237265
0.00243106
0.0024894
0.00254767
0.00260587
0.002664
0.00272205
0.00278003
0.00283793
0.00289575
0.00295349
0.00301114
0.00306871
0.0031262
0.00318359
0.0032409
0.00329811
0.00335523
0.00341226
0.00346919
0.00352601
0.00358274
0.00363937
0.00369589
0.00375231
0.00380862
0.00386482
0.0039209
0.00397688
0.00403274
0.00408848
0.00414411
0.00419961
0.00425499
0.00431025
0.00436538
0.00442038
0.00447526
0.00453
0.00458461
0.00463909
0.00469342
0.00474762
0.00480168
0.00485559
0.00490936
0.00496298
0.00501645
0.00506978
0.00512295
0.00517596
0.00522882
0.00528152
0.00533406
0.00538644
0.00543865
0.0054907
0.00554258
0.00559428
0.00564582
0.00569718
0.00574836
0.00579937
0.00585019
0.00590083
0.00595129
0.00600156
0.00605164
0.00610153
0.00615122
0.00620072
0.00625002
0.00629913
0.00634802
0.00639672
0.00644521
0.00649349
0.00654156
0.00658941
0.00663706
0.00668448
0.00673168
0.00677866
0.00682542
0.00687195
0.00691825
0.00696432
0.00701016
0.00705576
0.00710112
0.00714624
0.00719112
0.00723575
0.00728013
0.00732426
0.00736814
0.00741177
0.00745514
0.00749824
0.00754109
0.00758367
0.00762598
0.00766802
0.00770979
0.00775128
0.00779249
0.00783342
0.00787407
0.00791444
0.00795451
0.0079943
0.00803379
0.00807298
0.00811187
0.00815047
0.00818875
0.00822673
0.0082644
0.00830176
0.0083388
0.00837552
0.00841192
0.00844799
0.00848374
0.00851916
0.00855424
0.00858899
0.00862339
0.00865746
0.00869118
0.00872455
0.00875757
0.00879024
0.00882255
0.0088545
0.00888609
0.0089173
0.00894815
0.00897863
0.00900873
0.00903845
0.00906779
0.00909674
0.0091253
0.00915347
0.00918125
0.00920862
0.00923559
0.00926216
0.00928832
0.00931406
0.00933939
0.0093643
0.00938878
0.00941284
0.00943647
0.00945966
0.00948242
0.00950474
0.00952661
0.00954803
0.009569
0.00958952
0.00960957
0.00962917
0.00964829
0.00966695
0.00968513
0.00970283
0.00972005
0.00973679
0.00975303
0.00976878
0.00978403
0.00979878
0.00981302
0.00982676
0.00983998
0.00985268
0.00986486
0.00987651
0.00988764
0.00989822
0.00990827
0.00991778
0.00992674
0.00993515
0.009943
0.00995029
0.00995702
0.00996318
0.00996876
0.00997377
0.0099782
0.00998204
0.00998529
0.00998794
0.00998999
0.00999144
0.00999228
0.00999251
0.00999212
0.00999111
0.00998947
0.00998719
0.00998429
0.00998074
0.00997654
0.00997169
0.00996619
0.00996003
0.0099532
0.00994571
0.00993754
0.00992869
0.00991916
0.00990894
0.00989803
0.00988642
0.0098741
0.00986108
0.00984735
0.0098329
0.00981772
0.00980182
0.00978519
0.00976783
0.00974972
0.00973086
0.00971126
0.0096909
0.00966977
0.00964789
0.00962523
0.0096018
0.00957759
0.0095526
0.00952682
0.00950024
0.00947287
0.00944469
0.00941571
0.00938592
0.00935531
0.00932388
0.00929163
0.00925854
0.00922463
0.00918987
0.00915428
0.00911783
0.00908054
0.0090424
0.00900339
0.00896352
0.00892279
0.00888119
0.00883872
0.00879537
0.00875113
0.00870602
0.00866002
0.00861312
0.00856534
0.00851666
0.00846708
0.00841659
0.0083652
0.00831291
0.0082597
0.00820559
0.00815056
0.00809461
0.00803775
0.00797996
0.00792126
0.00786163
0.00780108
0.00773961
0.00767721
0.00761388
0.00754963
0.00748446
0.00741835
0.00735132
0.00728336
0.00721448
0.00714468
0.00707395
0.0070023
0.00692973
0.00685624
0.00678183
0.00670651
0.00663028
0.00655315
0.0064751
0.00639616
0.00631631
0.00623558
0.00615395
0.00607144
0.00598805
0.00590379
0.00581866
0.00573266
0.00564581
0.00555811
0.00546957
0.00538019
0.00528999
0.00519897
0.00510713
0.00501449
0.00492107
0.00482685
0.00473187
0.00463612
0.00453962
0.00444237
0.0043444
0.00424571
0.00414631
0.00404622
0.00394545
0.00384401
0.00374192
0.00363918
0.00353582
0.00343185
0.00332728
0.00322213
0.00311642
0.00301016
0.00290336
0.00279605
0.00268824
0.00257995
0.0024712
0.00236199
0.00225236
0.00214232
0.00203189
0.00192109
0.00180994
0.00169845
0.00158665
0.00147456
0.00136219
0.00124957
0.00113672
0.00102365
0.000910397
0.000796971
0.000683396
0.000569693
0.000455883
0.000341987
0.000228027
0.000114024
7.35745e-11
-0.000114024
-0.000228027
-0.000341987
-0.000455882
-0.000569692
-0.000683395
-0.00079697
-0.000910396
-0.00102365
-0.00113672
-0.00124957
-0.00136219
-0.00147455
-0.00158665
-0.00169845
-0.00180993
-0.00192109
-0.00203189
-0.00214232
-0.00225236
-0.00236199
-0.00247119
-0.00257995
-0.00268824
-0.00279605
-0.00290336
-0.00301015
-0.00311641
-0.00322213
-0.00332727
-0.00343184
-0.00353581
-0.00363917
-0.0037419
-0.003844
-0.00394544
-0.00404621
-0.0041463
-0.0042457
-0.00434439
-0.00444236
-0.0045396
-0.0046361
-0.00473185
-0.00482684
-0.00492105
-0.00501448
-0.00510711
-0.00519895
-0.00528997
-0.00538018
-0.00546955
-0.00555809
-0.00564579
-0.00573264
-0.00581864
-0.00590377
-0.00598803
-0.00607142
-0.00615393
-0.00623556
-0.00631629
-0.00639614
-0.00647508
-0.00655313
-0.00663026
-0.00670649
-0.00678181
-0.00685622
-0.00692971
-0.00700228
-0.00707393
-0.00714466
-0.00721446
-0.00728334
-0.0073513
-0.00741833
-0.00748444
-0.00754961
-0.00761387
-0.00767719
-0.00773959
-0.00780107
-0.00786162
-0.00792124
-0.00797995
-0.00803773
-0.0080946
-0.00815054
-0.00820557
-0.00825969
-0.00831289
-0.00836519
-0.00841658
-0.00846706
-0.00851664
-0.00856532
-0.00861311
-0.00866
-0.00870601
-0.00875112
-0.00879535
-0.0088387
-0.00888118
-0.00892278
-0.00896351
-0.00900338
-0.00904238
-0.00908053
-0.00911782
-0.00915427
-0.00918986
-0.00922462
-0.00925853
-0.00929162
-0.00932387
-0.0093553
-0.00938591
-0.00941571
-0.00944469
-0.00947286
-0.00950024
-0.00952681
-0.00955259
-0.00957759
-0.0096018
-0.00962523
-0.00964788
-0.00966977
-0.00969089
-0.00971125
-0.00973086
-0.00974971
-0.00976782
-0.00978519
-0.00980182
-0.00981772
-0.0098329
-0.00984735
-0.00986108
-0.0098741
-0.00988642
-0.00989803
-0.00990894
-0.00991916
-0.00992869
-0.00993754
-0.00994571
-0.0099532
-0.00996003
-0.00996619
-0.00997169
-0.00997654
-0.00998074
-0.00998429
-0.00998719
-0.00998947
-0.00999111
-0.00999212
-0.00999251
-0.00999228
-0.00999144
-0.00998999
-0.00998794
-0.00998529
-0.00998204
-0.0099782
-0.00997377
-0.00996876
-0.00996318
-0.00995702
-0.00995029
-0.009943
-0.00993515
-0.00992674
-0.00991778
-0.00990827
-0.00989822
-0.00988764
-0.00987651
-0.00986486
-0.00985268
-0.00983998
-0.00982676
-0.00981302
-0.00979878
-0.00978403
-0.00976878
-0.00975303
-0.00973678
-0.00972005
-0.00970283
-0.00968513
-0.00966695
-0.00964829
-0.00962916
-0.00960957
-0.00958951
-0.009569
-0.00954803
-0.00952661
-0.00950473
-0.00948242
-0.00945966
-0.00943647
-0.00941284
-0.00938878
-0.00936429
-0.00933939
-0.00931406
-0.00928831
-0.00926216
-0.00923559
-0.00920862
-0.00918124
-0.00915347
-0.0091253
-0.00909673
-0.00906778
-0.00903844
-0.00900872
-0.00897862
-0.00894815
-0.0089173
-0.00888608
-0.00885449
-0.00882254
-0.00879023
-0.00875757
-0.00872454
-0.00869117
-0.00865745
-0.00862339
-0.00858898
-0.00855423
-0.00851915
-0.00848373
-0.00844798
-0.00841191
-0.00837551
-0.00833879
-0.00830175
-0.00826439
-0.00822672
-0.00818874
-0.00815046
-0.00811187
-0.00807297
-0.00803378
-0.00799429
-0.0079545
-0.00791443
-0.00787406
-0.00783341
-0.00779248
-0.00775127
-0.00770977
-0.00766801
-0.00762597
-0.00758366
-0.00754108
-0.00749823
-0.00745513
-0.00741176
-0.00736813
-0.00732425
-0.00728012
-0.00723574
-0.00719111
-0.00714623
-0.00710111
-0.00705575
-0.00701015
-0.00696431
-0.00691824
-0.00687194
-0.00682541
-0.00677865
-0.00673167
-0.00668447
-0.00663705
-0.0065894
-0.00654155
-0.00649348
-0.0064452
-0.00639671
-0.00634802
-0.00629912
-0.00625001
-0.00620071
-0.00615121
-0.00610152
-0.00605163
-0.00600155
-0.00595128
-0.00590082
-0.00585018
-0.00579936
-0.00574835
-0.00569717
-0.00564581
-0.00559428
-0.00554257
-0.00549069
-0.00543864
-0.00538643
-0.00533405
-0.00528151
-0.00522881
-0.00517595
-0.00512294
-0.00506977
-0.00501645
-0.00496297
-0.00490935
-0.00485558
-0.00480167
-0.00474761
-0.00469342
-0.00463908
-0.0045846
-0.00453
-0.00447525
-0.00442038
-0.00436537
-0.00431024
-0.00425499
-0.0041996
-0.0041441
-0.00408848
-0.00403273
-0.00397687
-0.0039209
-0.00386481
-0.00380861
-0.0037523
-0.00369589
-0.00363937
-0.00358274
-0.00352601
-0.00346918
-0.00341225
-0.00335523
-0.00329811
-0.00324089
-0.00318359
-0.00312619
-0.00306871
-0.00301114
-0.00295348
-0.00289575
-0.00283793
-0.00278003
-0.00272205
-0.002664
-0.00260587
-0.00254767
-0.0024894
-0.00243106
-0.00237265
-0.00231418
-0.00225564
-0.00219704
-0.00213837
-0.00207965
-0.00202087
-0.00196204
-0.00190315
-0.00184421
-0.00178522
-0.00172618
-0.00166709
-0.00160795
-0.00154877
-0.00148955
-0.00143029
-0.00137099
-0.00131165
-0.00125228
-0.00119287
-0.00113342
-0.00107395
-0.00101445
-0.000954919
-0.000895363
-0.000835783
-0.000776179
-0.000716555
-0.00065691
-0.000597248
-0.00053757
-0.000477877
-0.000418171
-0.000358453
-0.000298726
-0.000238991
-0.000179249
-0.000119502
-5.97517e-05
)
;

boundaryField
{
    left
    {
        type            calculated;
        value           uniform 0;
    }
    right
    {
        type            calculated;
        value           uniform 0;
    }
    frontBackUpDown
    {
        type            empty;
    }
}


// ************************************************************************* //
