/*--------------------------------*- C++ -*----------------------------------*\
| =========                 |                                                 |
| \\      /  F ield         | OpenFOAM: The Open Source CFD Toolbox           |
|  \\    /   O peration     | Version:  2412                                  |
|   \\  /    A nd           | Website:  www.openfoam.com                      |
|    \\/     M anipulation  |                                                 |
\*---------------------------------------------------------------------------*/
FoamFile
{
    version     2.0;
    format      ascii;
    arch        "LSB;label=32;scalar=64";
    class       volVectorField;
    location    "0.1";
    object      U_0_0;
}
// * * * * * * * * * * * * * * * * * * * * * * * * * * * * * * * * * * * * * //

dimensions      [0 1 -1 0 0 0 0];

internalField   nonuniform List<vector> 
800
(
(0.0029947 0 0)
(0.00898414 0 0)
(0.0149733 0 0)
(0.0209621 0 0)
(0.0269504 0 0)
(0.0329379 0 0)
(0.0389244 0 0)
(0.0449099 0 0)
(0.0508942 0 0)
(0.0568771 0 0)
(0.0628584 0 0)
(0.068838 0 0)
(0.0748157 0 0)
(0.0807913 0 0)
(0.0867647 0 0)
(0.0927357 0 0)
(0.0987042 0 0)
(0.10467 0 0)
(0.110633 0 0)
(0.116593 0 0)
(0.122549 0 0)
(0.128503 0 0)
(0.134452 0 0)
(0.140398 0 0)
(0.14634 0 0)
(0.152278 0 0)
(0.158212 0 0)
(0.164142 0 0)
(0.170067 0 0)
(0.175987 0 0)
(0.181902 0 0)
(0.187812 0 0)
(0.193717 0 0)
(0.199617 0 0)
(0.205511 0 0)
(0.2114 0 0)
(0.217282 0 0)
(0.223159 0 0)
(0.229029 0 0)
(0.234893 0 0)
(0.24075 0 0)
(0.2466 0 0)
(0.252444 0 0)
(0.258281 0 0)
(0.26411 0 0)
(0.269932 0 0)
(0.275746 0 0)
(0.281552 0 0)
(0.287351 0 0)
(0.293141 0 0)
(0.298923 0 0)
(0.304697 0 0)
(0.310462 0 0)
(0.316218 0 0)
(0.321965 0 0)
(0.327703 0 0)
(0.333432 0 0)
(0.339151 0 0)
(0.34486 0 0)
(0.35056 0 0)
(0.356249 0 0)
(0.361928 0 0)
(0.367597 0 0)
(0.373255 0 0)
(0.378903 0 0)
(0.384539 0 0)
(0.390164 0 0)
(0.395778 0 0)
(0.401381 0 0)
(0.406972 0 0)
(0.41255 0 0)
(0.418117 0 0)
(0.423672 0 0)
(0.429214 0 0)
(0.434744 0 0)
(0.44026 0 0)
(0.445764 0 0)
(0.451255 0 0)
(0.456732 0 0)
(0.462196 0 0)
(0.467646 0 0)
(0.473081 0 0)
(0.478503 0 0)
(0.483911 0 0)
(0.489304 0 0)
(0.494682 0 0)
(0.500045 0 0)
(0.505394 0 0)
(0.510727 0 0)
(0.516044 0 0)
(0.521346 0 0)
(0.526632 0 0)
(0.531901 0 0)
(0.537155 0 0)
(0.542392 0 0)
(0.547612 0 0)
(0.552816 0 0)
(0.558002 0 0)
(0.563171 0 0)
(0.568322 0 0)
(0.573456 0 0)
(0.578572 0 0)
(0.58367 0 0)
(0.588749 0 0)
(0.59381 0 0)
(0.598852 0 0)
(0.603875 0 0)
(0.608879 0 0)
(0.613863 0 0)
(0.618828 0 0)
(0.623773 0 0)
(0.628698 0 0)
(0.633602 0 0)
(0.638487 0 0)
(0.64335 0 0)
(0.648192 0 0)
(0.653014 0 0)
(0.657814 0 0)
(0.662592 0 0)
(0.667349 0 0)
(0.672083 0 0)
(0.676795 0 0)
(0.681485 0 0)
(0.686152 0 0)
(0.690796 0 0)
(0.695417 0 0)
(0.700014 0 0)
(0.704587 0 0)
(0.709137 0 0)
(0.713662 0 0)
(0.718164 0 0)
(0.72264 0 0)
(0.727092 0 0)
(0.731518 0 0)
(0.735919 0 0)
(0.740295 0 0)
(0.744644 0 0)
(0.748968 0 0)
(0.753265 0 0)
(0.757535 0 0)
(0.761779 0 0)
(0.765995 0 0)
(0.770184 0 0)
(0.774346 0 0)
(0.778479 0 0)
(0.782585 0 0)
(0.786662 0 0)
(0.79071 0 0)
(0.79473 0 0)
(0.79872 0 0)
(0.80268 0 0)
(0.806611 0 0)
(0.810512 0 0)
(0.814383 0 0)
(0.818223 0 0)
(0.822032 0 0)
(0.82581 0 0)
(0.829556 0 0)
(0.833271 0 0)
(0.836954 0 0)
(0.840605 0 0)
(0.844223 0 0)
(0.847808 0 0)
(0.85136 0 0)
(0.854879 0 0)
(0.858364 0 0)
(0.861814 0 0)
(0.865231 0 0)
(0.868613 0 0)
(0.87196 0 0)
(0.875272 0 0)
(0.878549 0 0)
(0.881789 0 0)
(0.884993 0 0)
(0.888161 0 0)
(0.891293 0 0)
(0.894387 0 0)
(0.897443 0 0)
(0.900462 0 0)
(0.903443 0 0)
(0.906386 0 0)
(0.90929 0 0)
(0.912155 0 0)
(0.914981 0 0)
(0.917766 0 0)
(0.920512 0 0)
(0.923218 0 0)
(0.925883 0 0)
(0.928507 0 0)
(0.931089 0 0)
(0.93363 0 0)
(0.936129 0 0)
(0.938585 0 0)
(0.940999 0 0)
(0.943369 0 0)
(0.945696 0 0)
(0.947979 0 0)
(0.950218 0 0)
(0.952413 0 0)
(0.954562 0 0)
(0.956667 0 0)
(0.958725 0 0)
(0.960738 0 0)
(0.962704 0 0)
(0.964624 0 0)
(0.966496 0 0)
(0.968321 0 0)
(0.970098 0 0)
(0.971827 0 0)
(0.973507 0 0)
(0.975138 0 0)
(0.976719 0 0)
(0.978251 0 0)
(0.979733 0 0)
(0.981163 0 0)
(0.982543 0 0)
(0.983872 0 0)
(0.985148 0 0)
(0.986372 0 0)
(0.987544 0 0)
(0.988662 0 0)
(0.989727 0 0)
(0.990738 0 0)
(0.991695 0 0)
(0.992597 0 0)
(0.993444 0 0)
(0.994236 0 0)
(0.994971 0 0)
(0.99565 0 0)
(0.996272 0 0)
(0.996836 0 0)
(0.997343 0 0)
(0.997792 0 0)
(0.998182 0 0)
(0.998513 0 0)
(0.998785 0 0)
(0.998996 0 0)
(0.999147 0 0)
(0.999238 0 0)
(0.999267 0 0)
(0.999234 0 0)
(0.999139 0 0)
(0.998982 0 0)
(0.998761 0 0)
(0.998477 0 0)
(0.998128 0 0)
(0.997715 0 0)
(0.997238 0 0)
(0.996695 0 0)
(0.996085 0 0)
(0.99541 0 0)
(0.994668 0 0)
(0.993858 0 0)
(0.992981 0 0)
(0.992035 0 0)
(0.991021 0 0)
(0.989938 0 0)
(0.988784 0 0)
(0.987561 0 0)
(0.986267 0 0)
(0.984903 0 0)
(0.983466 0 0)
(0.981958 0 0)
(0.980377 0 0)
(0.978723 0 0)
(0.976996 0 0)
(0.975194 0 0)
(0.973319 0 0)
(0.971368 0 0)
(0.969342 0 0)
(0.967241 0 0)
(0.965063 0 0)
(0.962809 0 0)
(0.960477 0 0)
(0.958068 0 0)
(0.95558 0 0)
(0.953014 0 0)
(0.950369 0 0)
(0.947645 0 0)
(0.94484 0 0)
(0.941956 0 0)
(0.93899 0 0)
(0.935943 0 0)
(0.932815 0 0)
(0.929604 0 0)
(0.926311 0 0)
(0.922935 0 0)
(0.919476 0 0)
(0.915933 0 0)
(0.912305 0 0)
(0.908594 0 0)
(0.904797 0 0)
(0.900914 0 0)
(0.896947 0 0)
(0.892892 0 0)
(0.888752 0 0)
(0.884525 0 0)
(0.88021 0 0)
(0.875808 0 0)
(0.871318 0 0)
(0.86674 0 0)
(0.862073 0 0)
(0.857318 0 0)
(0.852474 0 0)
(0.84754 0 0)
(0.842517 0 0)
(0.837403 0 0)
(0.8322 0 0)
(0.826906 0 0)
(0.821522 0 0)
(0.816047 0 0)
(0.810481 0 0)
(0.804824 0 0)
(0.799075 0 0)
(0.793236 0 0)
(0.787304 0 0)
(0.781281 0 0)
(0.775166 0 0)
(0.76896 0 0)
(0.762661 0 0)
(0.756271 0 0)
(0.749788 0 0)
(0.743214 0 0)
(0.736548 0 0)
(0.72979 0 0)
(0.72294 0 0)
(0.715998 0 0)
(0.708965 0 0)
(0.701841 0 0)
(0.694625 0 0)
(0.687318 0 0)
(0.67992 0 0)
(0.672432 0 0)
(0.664853 0 0)
(0.657184 0 0)
(0.649425 0 0)
(0.641577 0 0)
(0.63364 0 0)
(0.625615 0 0)
(0.617501 0 0)
(0.609299 0 0)
(0.60101 0 0)
(0.592635 0 0)
(0.584173 0 0)
(0.575626 0 0)
(0.566994 0 0)
(0.558278 0 0)
(0.549478 0 0)
(0.540595 0 0)
(0.53163 0 0)
(0.522584 0 0)
(0.513457 0 0)
(0.504251 0 0)
(0.494966 0 0)
(0.485604 0 0)
(0.476164 0 0)
(0.466649 0 0)
(0.457059 0 0)
(0.447396 0 0)
(0.437659 0 0)
(0.427852 0 0)
(0.417974 0 0)
(0.408027 0 0)
(0.398013 0 0)
(0.387932 0 0)
(0.377786 0 0)
(0.367576 0 0)
(0.357304 0 0)
(0.346971 0 0)
(0.336579 0 0)
(0.326129 0 0)
(0.315622 0 0)
(0.30506 0 0)
(0.294445 0 0)
(0.283779 0 0)
(0.273063 0 0)
(0.262298 0 0)
(0.251487 0 0)
(0.240631 0 0)
(0.229732 0 0)
(0.218792 0 0)
(0.207813 0 0)
(0.196796 0 0)
(0.185744 0 0)
(0.174658 0 0)
(0.16354 0 0)
(0.152392 0 0)
(0.141216 0 0)
(0.130015 0 0)
(0.11879 0 0)
(0.107543 0 0)
(0.0962759 0 0)
(0.0849913 0 0)
(0.0736909 0 0)
(0.062377 0 0)
(0.0510515 0 0)
(0.0397165 0 0)
(0.0283742 0 0)
(0.0170266 0 0)
(0.0056759 0 0)
(-0.00567589 0 0)
(-0.0170266 0 0)
(-0.0283742 0 0)
(-0.0397165 0 0)
(-0.0510515 0 0)
(-0.0623769 0 0)
(-0.0736909 0 0)
(-0.0849912 0 0)
(-0.0962758 0 0)
(-0.107543 0 0)
(-0.11879 0 0)
(-0.130015 0 0)
(-0.141216 0 0)
(-0.152392 0 0)
(-0.163539 0 0)
(-0.174657 0 0)
(-0.185743 0 0)
(-0.196796 0 0)
(-0.207812 0 0)
(-0.218792 0 0)
(-0.229732 0 0)
(-0.240631 0 0)
(-0.251486 0 0)
(-0.262297 0 0)
(-0.273062 0 0)
(-0.283778 0 0)
(-0.294445 0 0)
(-0.305059 0 0)
(-0.315621 0 0)
(-0.326128 0 0)
(-0.336578 0 0)
(-0.34697 0 0)
(-0.357303 0 0)
(-0.367575 0 0)
(-0.377785 0 0)
(-0.387931 0 0)
(-0.398012 0 0)
(-0.408026 0 0)
(-0.417973 0 0)
(-0.427851 0 0)
(-0.437658 0 0)
(-0.447394 0 0)
(-0.457058 0 0)
(-0.466648 0 0)
(-0.476163 0 0)
(-0.485602 0 0)
(-0.494965 0 0)
(-0.50425 0 0)
(-0.513456 0 0)
(-0.522582 0 0)
(-0.531628 0 0)
(-0.540593 0 0)
(-0.549476 0 0)
(-0.558276 0 0)
(-0.566992 0 0)
(-0.575624 0 0)
(-0.584171 0 0)
(-0.592633 0 0)
(-0.601009 0 0)
(-0.609297 0 0)
(-0.617499 0 0)
(-0.625613 0 0)
(-0.633638 0 0)
(-0.641576 0 0)
(-0.649424 0 0)
(-0.657182 0 0)
(-0.664851 0 0)
(-0.67243 0 0)
(-0.679918 0 0)
(-0.687316 0 0)
(-0.694623 0 0)
(-0.701839 0 0)
(-0.708963 0 0)
(-0.715996 0 0)
(-0.722938 0 0)
(-0.729788 0 0)
(-0.736546 0 0)
(-0.743212 0 0)
(-0.749786 0 0)
(-0.756269 0 0)
(-0.762659 0 0)
(-0.768958 0 0)
(-0.775164 0 0)
(-0.781279 0 0)
(-0.787302 0 0)
(-0.793234 0 0)
(-0.799074 0 0)
(-0.804822 0 0)
(-0.810479 0 0)
(-0.816045 0 0)
(-0.82152 0 0)
(-0.826905 0 0)
(-0.832199 0 0)
(-0.837402 0 0)
(-0.842515 0 0)
(-0.847539 0 0)
(-0.852472 0 0)
(-0.857317 0 0)
(-0.862072 0 0)
(-0.866739 0 0)
(-0.871317 0 0)
(-0.875807 0 0)
(-0.880209 0 0)
(-0.884523 0 0)
(-0.888751 0 0)
(-0.892891 0 0)
(-0.896945 0 0)
(-0.900913 0 0)
(-0.904796 0 0)
(-0.908593 0 0)
(-0.912305 0 0)
(-0.915932 0 0)
(-0.919475 0 0)
(-0.922934 0 0)
(-0.926311 0 0)
(-0.929604 0 0)
(-0.932814 0 0)
(-0.935943 0 0)
(-0.938989 0 0)
(-0.941955 0 0)
(-0.94484 0 0)
(-0.947644 0 0)
(-0.950369 0 0)
(-0.953014 0 0)
(-0.95558 0 0)
(-0.958067 0 0)
(-0.960476 0 0)
(-0.962808 0 0)
(-0.965063 0 0)
(-0.967241 0 0)
(-0.969342 0 0)
(-0.971368 0 0)
(-0.973318 0 0)
(-0.975194 0 0)
(-0.976995 0 0)
(-0.978723 0 0)
(-0.980377 0 0)
(-0.981957 0 0)
(-0.983466 0 0)
(-0.984902 0 0)
(-0.986267 0 0)
(-0.987561 0 0)
(-0.988784 0 0)
(-0.989937 0 0)
(-0.991021 0 0)
(-0.992035 0 0)
(-0.992981 0 0)
(-0.993858 0 0)
(-0.994668 0 0)
(-0.99541 0 0)
(-0.996085 0 0)
(-0.996694 0 0)
(-0.997238 0 0)
(-0.997715 0 0)
(-0.998128 0 0)
(-0.998477 0 0)
(-0.998761 0 0)
(-0.998982 0 0)
(-0.999139 0 0)
(-0.999234 0 0)
(-0.999267 0 0)
(-0.999238 0 0)
(-0.999147 0 0)
(-0.998996 0 0)
(-0.998785 0 0)
(-0.998513 0 0)
(-0.998182 0 0)
(-0.997792 0 0)
(-0.997343 0 0)
(-0.996836 0 0)
(-0.996272 0 0)
(-0.99565 0 0)
(-0.994971 0 0)
(-0.994235 0 0)
(-0.993444 0 0)
(-0.992597 0 0)
(-0.991695 0 0)
(-0.990738 0 0)
(-0.989727 0 0)
(-0.988662 0 0)
(-0.987544 0 0)
(-0.986372 0 0)
(-0.985148 0 0)
(-0.983871 0 0)
(-0.982543 0 0)
(-0.981163 0 0)
(-0.979732 0 0)
(-0.978251 0 0)
(-0.976719 0 0)
(-0.975138 0 0)
(-0.973507 0 0)
(-0.971827 0 0)
(-0.970098 0 0)
(-0.968321 0 0)
(-0.966496 0 0)
(-0.964624 0 0)
(-0.962704 0 0)
(-0.960738 0 0)
(-0.958725 0 0)
(-0.956666 0 0)
(-0.954562 0 0)
(-0.952412 0 0)
(-0.950218 0 0)
(-0.947979 0 0)
(-0.945696 0 0)
(-0.943369 0 0)
(-0.940998 0 0)
(-0.938585 0 0)
(-0.936128 0 0)
(-0.933629 0 0)
(-0.931089 0 0)
(-0.928506 0 0)
(-0.925882 0 0)
(-0.923217 0 0)
(-0.920512 0 0)
(-0.917766 0 0)
(-0.91498 0 0)
(-0.912154 0 0)
(-0.909289 0 0)
(-0.906385 0 0)
(-0.903443 0 0)
(-0.900462 0 0)
(-0.897443 0 0)
(-0.894386 0 0)
(-0.891292 0 0)
(-0.888161 0 0)
(-0.884993 0 0)
(-0.881788 0 0)
(-0.878548 0 0)
(-0.875271 0 0)
(-0.871959 0 0)
(-0.868612 0 0)
(-0.86523 0 0)
(-0.861814 0 0)
(-0.858363 0 0)
(-0.854878 0 0)
(-0.851359 0 0)
(-0.847807 0 0)
(-0.844222 0 0)
(-0.840604 0 0)
(-0.836953 0 0)
(-0.83327 0 0)
(-0.829555 0 0)
(-0.825809 0 0)
(-0.822031 0 0)
(-0.818222 0 0)
(-0.814382 0 0)
(-0.810511 0 0)
(-0.80661 0 0)
(-0.802679 0 0)
(-0.798719 0 0)
(-0.794729 0 0)
(-0.790709 0 0)
(-0.786661 0 0)
(-0.782584 0 0)
(-0.778478 0 0)
(-0.774345 0 0)
(-0.770183 0 0)
(-0.765994 0 0)
(-0.761778 0 0)
(-0.757534 0 0)
(-0.753264 0 0)
(-0.748967 0 0)
(-0.744643 0 0)
(-0.740294 0 0)
(-0.735918 0 0)
(-0.731517 0 0)
(-0.727091 0 0)
(-0.722639 0 0)
(-0.718163 0 0)
(-0.713661 0 0)
(-0.709136 0 0)
(-0.704586 0 0)
(-0.700013 0 0)
(-0.695415 0 0)
(-0.690795 0 0)
(-0.686151 0 0)
(-0.681484 0 0)
(-0.676794 0 0)
(-0.672082 0 0)
(-0.667348 0 0)
(-0.662591 0 0)
(-0.657813 0 0)
(-0.653013 0 0)
(-0.648192 0 0)
(-0.643349 0 0)
(-0.638486 0 0)
(-0.633601 0 0)
(-0.628697 0 0)
(-0.623772 0 0)
(-0.618827 0 0)
(-0.613862 0 0)
(-0.608878 0 0)
(-0.603874 0 0)
(-0.598851 0 0)
(-0.593809 0 0)
(-0.588748 0 0)
(-0.583669 0 0)
(-0.578571 0 0)
(-0.573455 0 0)
(-0.568322 0 0)
(-0.56317 0 0)
(-0.558001 0 0)
(-0.552815 0 0)
(-0.547611 0 0)
(-0.542391 0 0)
(-0.537154 0 0)
(-0.531901 0 0)
(-0.526631 0 0)
(-0.521345 0 0)
(-0.516043 0 0)
(-0.510726 0 0)
(-0.505393 0 0)
(-0.500045 0 0)
(-0.494681 0 0)
(-0.489303 0 0)
(-0.48391 0 0)
(-0.478503 0 0)
(-0.473081 0 0)
(-0.467645 0 0)
(-0.462195 0 0)
(-0.456731 0 0)
(-0.451254 0 0)
(-0.445764 0 0)
(-0.44026 0 0)
(-0.434743 0 0)
(-0.429214 0 0)
(-0.423671 0 0)
(-0.418117 0 0)
(-0.41255 0 0)
(-0.406971 0 0)
(-0.40138 0 0)
(-0.395778 0 0)
(-0.390164 0 0)
(-0.384539 0 0)
(-0.378902 0 0)
(-0.373255 0 0)
(-0.367597 0 0)
(-0.361928 0 0)
(-0.356249 0 0)
(-0.350559 0 0)
(-0.34486 0 0)
(-0.33915 0 0)
(-0.333431 0 0)
(-0.327703 0 0)
(-0.321965 0 0)
(-0.316218 0 0)
(-0.310461 0 0)
(-0.304696 0 0)
(-0.298923 0 0)
(-0.293141 0 0)
(-0.28735 0 0)
(-0.281552 0 0)
(-0.275746 0 0)
(-0.269931 0 0)
(-0.26411 0 0)
(-0.25828 0 0)
(-0.252444 0 0)
(-0.2466 0 0)
(-0.24075 0 0)
(-0.234892 0 0)
(-0.229029 0 0)
(-0.223158 0 0)
(-0.217282 0 0)
(-0.211399 0 0)
(-0.205511 0 0)
(-0.199617 0 0)
(-0.193717 0 0)
(-0.187812 0 0)
(-0.181902 0 0)
(-0.175987 0 0)
(-0.170066 0 0)
(-0.164142 0 0)
(-0.158212 0 0)
(-0.152278 0 0)
(-0.14634 0 0)
(-0.140398 0 0)
(-0.134452 0 0)
(-0.128502 0 0)
(-0.122549 0 0)
(-0.116593 0 0)
(-0.110633 0 0)
(-0.10467 0 0)
(-0.0987042 0 0)
(-0.0927357 0 0)
(-0.0867647 0 0)
(-0.0807913 0 0)
(-0.0748157 0 0)
(-0.068838 0 0)
(-0.0628584 0 0)
(-0.0568771 0 0)
(-0.0508942 0 0)
(-0.04491 0 0)
(-0.0389245 0 0)
(-0.0329379 0 0)
(-0.0269504 0 0)
(-0.0209622 0 0)
(-0.0149734 0 0)
(-0.00898421 0 0)
(-0.00299476 0 0)
)
;

boundaryField
{
    left
    {
        type            fixedValue;
        value           uniform (0 0 0);
    }
    right
    {
        type            fixedValue;
        value           uniform (0 0 0);
    }
    frontBackUpDown
    {
        type            empty;
    }
}


// ************************************************************************* //
