/*--------------------------------*- C++ -*----------------------------------*\
| =========                 |                                                 |
| \\      /  F ield         | OpenFOAM: The Open Source CFD Toolbox           |
|  \\    /   O peration     | Version:  2412                                  |
|   \\  /    A nd           | Website:  www.openfoam.com                      |
|    \\/     M anipulation  |                                                 |
\*---------------------------------------------------------------------------*/
FoamFile
{
    version     2.0;
    format      ascii;
    arch        "LSB;label=32;scalar=64";
    class       volVectorField;
    location    "0.1";
    object      U_0_0_0;
}
// * * * * * * * * * * * * * * * * * * * * * * * * * * * * * * * * * * * * * //

dimensions      [0 1 -1 0 0 0 0];

internalField   nonuniform List<vector> 
800
(
(0.00299829 0 0)
(0.00899492 0 0)
(0.0149913 0 0)
(0.0209873 0 0)
(0.0269827 0 0)
(0.0329773 0 0)
(0.0389711 0 0)
(0.0449638 0 0)
(0.0509552 0 0)
(0.0569452 0 0)
(0.0629337 0 0)
(0.0689204 0 0)
(0.0749052 0 0)
(0.080888 0 0)
(0.0868685 0 0)
(0.0928466 0 0)
(0.0988222 0 0)
(0.104795 0 0)
(0.110765 0 0)
(0.116732 0 0)
(0.122695 0 0)
(0.128656 0 0)
(0.134612 0 0)
(0.140565 0 0)
(0.146514 0 0)
(0.152459 0 0)
(0.1584 0 0)
(0.164336 0 0)
(0.170268 0 0)
(0.176195 0 0)
(0.182117 0 0)
(0.188035 0 0)
(0.193946 0 0)
(0.199853 0 0)
(0.205754 0 0)
(0.211649 0 0)
(0.217538 0 0)
(0.223421 0 0)
(0.229298 0 0)
(0.235168 0 0)
(0.241032 0 0)
(0.246889 0 0)
(0.252739 0 0)
(0.258582 0 0)
(0.264418 0 0)
(0.270246 0 0)
(0.276067 0 0)
(0.281879 0 0)
(0.287684 0 0)
(0.293481 0 0)
(0.299269 0 0)
(0.305049 0 0)
(0.31082 0 0)
(0.316582 0 0)
(0.322335 0 0)
(0.328079 0 0)
(0.333814 0 0)
(0.339539 0 0)
(0.345254 0 0)
(0.350959 0 0)
(0.356655 0 0)
(0.36234 0 0)
(0.368014 0 0)
(0.373678 0 0)
(0.379331 0 0)
(0.384973 0 0)
(0.390604 0 0)
(0.396223 0 0)
(0.401831 0 0)
(0.407427 0 0)
(0.413011 0 0)
(0.418583 0 0)
(0.424143 0 0)
(0.42969 0 0)
(0.435225 0 0)
(0.440746 0 0)
(0.446255 0 0)
(0.45175 0 0)
(0.457232 0 0)
(0.462701 0 0)
(0.468155 0 0)
(0.473596 0 0)
(0.479022 0 0)
(0.484434 0 0)
(0.489832 0 0)
(0.495214 0 0)
(0.500582 0 0)
(0.505934 0 0)
(0.511271 0 0)
(0.516593 0 0)
(0.521899 0 0)
(0.527188 0 0)
(0.532462 0 0)
(0.537719 0 0)
(0.54296 0 0)
(0.548184 0 0)
(0.553391 0 0)
(0.558581 0 0)
(0.563753 0 0)
(0.568908 0 0)
(0.574045 0 0)
(0.579164 0 0)
(0.584265 0 0)
(0.589347 0 0)
(0.594411 0 0)
(0.599455 0 0)
(0.604481 0 0)
(0.609488 0 0)
(0.614475 0 0)
(0.619442 0 0)
(0.624389 0 0)
(0.629317 0 0)
(0.634224 0 0)
(0.63911 0 0)
(0.643975 0 0)
(0.64882 0 0)
(0.653643 0 0)
(0.658445 0 0)
(0.663225 0 0)
(0.667983 0 0)
(0.672719 0 0)
(0.677433 0 0)
(0.682124 0 0)
(0.686792 0 0)
(0.691437 0 0)
(0.696059 0 0)
(0.700657 0 0)
(0.705231 0 0)
(0.709782 0 0)
(0.714308 0 0)
(0.718809 0 0)
(0.723286 0 0)
(0.727738 0 0)
(0.732165 0 0)
(0.736566 0 0)
(0.740942 0 0)
(0.745291 0 0)
(0.749614 0 0)
(0.753911 0 0)
(0.758181 0 0)
(0.762424 0 0)
(0.76664 0 0)
(0.770829 0 0)
(0.774989 0 0)
(0.779122 0 0)
(0.783226 0 0)
(0.787302 0 0)
(0.791349 0 0)
(0.795367 0 0)
(0.799356 0 0)
(0.803315 0 0)
(0.807244 0 0)
(0.811143 0 0)
(0.815012 0 0)
(0.81885 0 0)
(0.822657 0 0)
(0.826432 0 0)
(0.830176 0 0)
(0.833889 0 0)
(0.837569 0 0)
(0.841217 0 0)
(0.844832 0 0)
(0.848414 0 0)
(0.851963 0 0)
(0.855479 0 0)
(0.85896 0 0)
(0.862408 0 0)
(0.865821 0 0)
(0.869199 0 0)
(0.872542 0 0)
(0.87585 0 0)
(0.879122 0 0)
(0.882359 0 0)
(0.885559 0 0)
(0.888722 0 0)
(0.891849 0 0)
(0.894938 0 0)
(0.89799 0 0)
(0.901004 0 0)
(0.90398 0 0)
(0.906917 0 0)
(0.909816 0 0)
(0.912675 0 0)
(0.915495 0 0)
(0.918276 0 0)
(0.921016 0 0)
(0.923715 0 0)
(0.926374 0 0)
(0.928992 0 0)
(0.931568 0 0)
(0.934102 0 0)
(0.936594 0 0)
(0.939044 0 0)
(0.94145 0 0)
(0.943814 0 0)
(0.946134 0 0)
(0.94841 0 0)
(0.950641 0 0)
(0.952828 0 0)
(0.95497 0 0)
(0.957067 0 0)
(0.959117 0 0)
(0.961122 0 0)
(0.96308 0 0)
(0.964991 0 0)
(0.966855 0 0)
(0.968672 0 0)
(0.97044 0 0)
(0.97216 0 0)
(0.973831 0 0)
(0.975453 0 0)
(0.977025 0 0)
(0.978548 0 0)
(0.98002 0 0)
(0.981441 0 0)
(0.982811 0 0)
(0.98413 0 0)
(0.985396 0 0)
(0.98661 0 0)
(0.987772 0 0)
(0.98888 0 0)
(0.989935 0 0)
(0.990935 0 0)
(0.991882 0 0)
(0.992773 0 0)
(0.993609 0 0)
(0.994389 0 0)
(0.995114 0 0)
(0.995781 0 0)
(0.996392 0 0)
(0.996945 0 0)
(0.997441 0 0)
(0.997878 0 0)
(0.998256 0 0)
(0.998576 0 0)
(0.998835 0 0)
(0.999035 0 0)
(0.999174 0 0)
(0.999252 0 0)
(0.999269 0 0)
(0.999224 0 0)
(0.999116 0 0)
(0.998946 0 0)
(0.998713 0 0)
(0.998416 0 0)
(0.998055 0 0)
(0.997629 0 0)
(0.997139 0 0)
(0.996583 0 0)
(0.99596 0 0)
(0.995272 0 0)
(0.994516 0 0)
(0.993694 0 0)
(0.992803 0 0)
(0.991844 0 0)
(0.990816 0 0)
(0.989719 0 0)
(0.988553 0 0)
(0.987316 0 0)
(0.986009 0 0)
(0.98463 0 0)
(0.98318 0 0)
(0.981658 0 0)
(0.980063 0 0)
(0.978396 0 0)
(0.976655 0 0)
(0.97484 0 0)
(0.97295 0 0)
(0.970986 0 0)
(0.968947 0 0)
(0.966831 0 0)
(0.96464 0 0)
(0.962372 0 0)
(0.960026 0 0)
(0.957603 0 0)
(0.955102 0 0)
(0.952522 0 0)
(0.949864 0 0)
(0.947126 0 0)
(0.944308 0 0)
(0.94141 0 0)
(0.938431 0 0)
(0.935371 0 0)
(0.932229 0 0)
(0.929006 0 0)
(0.925699 0 0)
(0.92231 0 0)
(0.918838 0 0)
(0.915282 0 0)
(0.911642 0 0)
(0.907918 0 0)
(0.904108 0 0)
(0.900214 0 0)
(0.896234 0 0)
(0.892168 0 0)
(0.888015 0 0)
(0.883776 0 0)
(0.87945 0 0)
(0.875037 0 0)
(0.870535 0 0)
(0.865946 0 0)
(0.861269 0 0)
(0.856503 0 0)
(0.851648 0 0)
(0.846704 0 0)
(0.841671 0 0)
(0.836548 0 0)
(0.831335 0 0)
(0.826032 0 0)
(0.820639 0 0)
(0.815155 0 0)
(0.80958 0 0)
(0.803915 0 0)
(0.798159 0 0)
(0.792311 0 0)
(0.786372 0 0)
(0.780342 0 0)
(0.774221 0 0)
(0.768008 0 0)
(0.761703 0 0)
(0.755307 0 0)
(0.748819 0 0)
(0.74224 0 0)
(0.735569 0 0)
(0.728807 0 0)
(0.721953 0 0)
(0.715008 0 0)
(0.707972 0 0)
(0.700845 0 0)
(0.693627 0 0)
(0.686318 0 0)
(0.678919 0 0)
(0.67143 0 0)
(0.66385 0 0)
(0.656181 0 0)
(0.648423 0 0)
(0.640576 0 0)
(0.63264 0 0)
(0.624616 0 0)
(0.616505 0 0)
(0.608306 0 0)
(0.60002 0 0)
(0.591649 0 0)
(0.583191 0 0)
(0.574649 0 0)
(0.566022 0 0)
(0.557311 0 0)
(0.548518 0 0)
(0.539642 0 0)
(0.530684 0 0)
(0.521646 0 0)
(0.512527 0 0)
(0.50333 0 0)
(0.494055 0 0)
(0.484702 0 0)
(0.475273 0 0)
(0.465769 0 0)
(0.45619 0 0)
(0.446538 0 0)
(0.436815 0 0)
(0.42702 0 0)
(0.417156 0 0)
(0.407223 0 0)
(0.397223 0 0)
(0.387157 0 0)
(0.377027 0 0)
(0.366833 0 0)
(0.356578 0 0)
(0.346262 0 0)
(0.335887 0 0)
(0.325454 0 0)
(0.314966 0 0)
(0.304423 0 0)
(0.293827 0 0)
(0.28318 0 0)
(0.272484 0 0)
(0.26174 0 0)
(0.250949 0 0)
(0.240115 0 0)
(0.229237 0 0)
(0.218319 0 0)
(0.207362 0 0)
(0.196368 0 0)
(0.185338 0 0)
(0.174275 0 0)
(0.163181 0 0)
(0.152056 0 0)
(0.140905 0 0)
(0.129728 0 0)
(0.118527 0 0)
(0.107304 0 0)
(0.0960618 0 0)
(0.084802 0 0)
(0.0735266 0 0)
(0.0622377 0 0)
(0.0509374 0 0)
(0.0396277 0 0)
(0.0283107 0 0)
(0.0169885 0 0)
(0.00566319 0 0)
(-0.00566318 0 0)
(-0.0169885 0 0)
(-0.0283107 0 0)
(-0.0396277 0 0)
(-0.0509374 0 0)
(-0.0622377 0 0)
(-0.0735265 0 0)
(-0.0848019 0 0)
(-0.0960617 0 0)
(-0.107304 0 0)
(-0.118526 0 0)
(-0.129727 0 0)
(-0.140905 0 0)
(-0.152056 0 0)
(-0.16318 0 0)
(-0.174275 0 0)
(-0.185338 0 0)
(-0.196367 0 0)
(-0.207362 0 0)
(-0.218319 0 0)
(-0.229237 0 0)
(-0.240114 0 0)
(-0.250949 0 0)
(-0.261739 0 0)
(-0.272483 0 0)
(-0.28318 0 0)
(-0.293826 0 0)
(-0.304422 0 0)
(-0.314965 0 0)
(-0.325453 0 0)
(-0.335886 0 0)
(-0.346261 0 0)
(-0.356577 0 0)
(-0.366832 0 0)
(-0.377026 0 0)
(-0.387156 0 0)
(-0.397222 0 0)
(-0.407222 0 0)
(-0.417155 0 0)
(-0.427019 0 0)
(-0.436813 0 0)
(-0.446537 0 0)
(-0.456189 0 0)
(-0.465767 0 0)
(-0.475271 0 0)
(-0.4847 0 0)
(-0.494053 0 0)
(-0.503328 0 0)
(-0.512526 0 0)
(-0.521644 0 0)
(-0.530682 0 0)
(-0.53964 0 0)
(-0.548516 0 0)
(-0.557309 0 0)
(-0.56602 0 0)
(-0.574647 0 0)
(-0.583189 0 0)
(-0.591647 0 0)
(-0.600018 0 0)
(-0.608304 0 0)
(-0.616503 0 0)
(-0.624614 0 0)
(-0.632638 0 0)
(-0.640574 0 0)
(-0.648421 0 0)
(-0.656179 0 0)
(-0.663848 0 0)
(-0.671428 0 0)
(-0.678917 0 0)
(-0.686316 0 0)
(-0.693625 0 0)
(-0.700843 0 0)
(-0.70797 0 0)
(-0.715006 0 0)
(-0.721951 0 0)
(-0.728805 0 0)
(-0.735567 0 0)
(-0.742238 0 0)
(-0.748817 0 0)
(-0.755305 0 0)
(-0.761701 0 0)
(-0.768006 0 0)
(-0.774219 0 0)
(-0.780341 0 0)
(-0.786371 0 0)
(-0.792309 0 0)
(-0.798157 0 0)
(-0.803913 0 0)
(-0.809579 0 0)
(-0.815153 0 0)
(-0.820637 0 0)
(-0.82603 0 0)
(-0.831333 0 0)
(-0.836546 0 0)
(-0.841669 0 0)
(-0.846703 0 0)
(-0.851647 0 0)
(-0.856502 0 0)
(-0.861268 0 0)
(-0.865945 0 0)
(-0.870534 0 0)
(-0.875035 0 0)
(-0.879449 0 0)
(-0.883775 0 0)
(-0.888014 0 0)
(-0.892166 0 0)
(-0.896233 0 0)
(-0.900213 0 0)
(-0.904107 0 0)
(-0.907917 0 0)
(-0.911641 0 0)
(-0.915281 0 0)
(-0.918837 0 0)
(-0.92231 0 0)
(-0.925699 0 0)
(-0.929005 0 0)
(-0.932228 0 0)
(-0.93537 0 0)
(-0.93843 0 0)
(-0.941409 0 0)
(-0.944307 0 0)
(-0.947125 0 0)
(-0.949863 0 0)
(-0.952522 0 0)
(-0.955102 0 0)
(-0.957603 0 0)
(-0.960026 0 0)
(-0.962371 0 0)
(-0.964639 0 0)
(-0.966831 0 0)
(-0.968946 0 0)
(-0.970986 0 0)
(-0.97295 0 0)
(-0.974839 0 0)
(-0.976655 0 0)
(-0.978396 0 0)
(-0.980063 0 0)
(-0.981658 0 0)
(-0.98318 0 0)
(-0.98463 0 0)
(-0.986009 0 0)
(-0.987316 0 0)
(-0.988553 0 0)
(-0.989719 0 0)
(-0.990816 0 0)
(-0.991844 0 0)
(-0.992803 0 0)
(-0.993693 0 0)
(-0.994516 0 0)
(-0.995272 0 0)
(-0.99596 0 0)
(-0.996583 0 0)
(-0.997139 0 0)
(-0.997629 0 0)
(-0.998055 0 0)
(-0.998416 0 0)
(-0.998713 0 0)
(-0.998946 0 0)
(-0.999116 0 0)
(-0.999224 0 0)
(-0.999269 0 0)
(-0.999252 0 0)
(-0.999174 0 0)
(-0.999035 0 0)
(-0.998835 0 0)
(-0.998576 0 0)
(-0.998256 0 0)
(-0.997878 0 0)
(-0.997441 0 0)
(-0.996945 0 0)
(-0.996392 0 0)
(-0.995781 0 0)
(-0.995114 0 0)
(-0.994389 0 0)
(-0.993609 0 0)
(-0.992773 0 0)
(-0.991881 0 0)
(-0.990935 0 0)
(-0.989935 0 0)
(-0.98888 0 0)
(-0.987772 0 0)
(-0.98661 0 0)
(-0.985396 0 0)
(-0.984129 0 0)
(-0.982811 0 0)
(-0.981441 0 0)
(-0.98002 0 0)
(-0.978547 0 0)
(-0.977025 0 0)
(-0.975453 0 0)
(-0.973831 0 0)
(-0.97216 0 0)
(-0.97044 0 0)
(-0.968671 0 0)
(-0.966855 0 0)
(-0.964991 0 0)
(-0.96308 0 0)
(-0.961122 0 0)
(-0.959117 0 0)
(-0.957066 0 0)
(-0.95497 0 0)
(-0.952828 0 0)
(-0.950641 0 0)
(-0.948409 0 0)
(-0.946133 0 0)
(-0.943813 0 0)
(-0.94145 0 0)
(-0.939043 0 0)
(-0.936594 0 0)
(-0.934101 0 0)
(-0.931567 0 0)
(-0.928991 0 0)
(-0.926373 0 0)
(-0.923715 0 0)
(-0.921015 0 0)
(-0.918275 0 0)
(-0.915495 0 0)
(-0.912675 0 0)
(-0.909815 0 0)
(-0.906917 0 0)
(-0.903979 0 0)
(-0.901003 0 0)
(-0.897989 0 0)
(-0.894938 0 0)
(-0.891848 0 0)
(-0.888722 0 0)
(-0.885558 0 0)
(-0.882358 0 0)
(-0.879122 0 0)
(-0.875849 0 0)
(-0.872541 0 0)
(-0.869198 0 0)
(-0.86582 0 0)
(-0.862407 0 0)
(-0.858959 0 0)
(-0.855478 0 0)
(-0.851962 0 0)
(-0.848413 0 0)
(-0.844831 0 0)
(-0.841216 0 0)
(-0.837568 0 0)
(-0.833888 0 0)
(-0.830175 0 0)
(-0.826431 0 0)
(-0.822656 0 0)
(-0.818849 0 0)
(-0.815011 0 0)
(-0.811142 0 0)
(-0.807243 0 0)
(-0.803314 0 0)
(-0.799355 0 0)
(-0.795366 0 0)
(-0.791348 0 0)
(-0.787301 0 0)
(-0.783225 0 0)
(-0.779121 0 0)
(-0.774988 0 0)
(-0.770828 0 0)
(-0.766639 0 0)
(-0.762423 0 0)
(-0.75818 0 0)
(-0.75391 0 0)
(-0.749613 0 0)
(-0.74529 0 0)
(-0.740941 0 0)
(-0.736565 0 0)
(-0.732164 0 0)
(-0.727737 0 0)
(-0.723285 0 0)
(-0.718808 0 0)
(-0.714307 0 0)
(-0.709781 0 0)
(-0.70523 0 0)
(-0.700656 0 0)
(-0.696058 0 0)
(-0.691436 0 0)
(-0.686791 0 0)
(-0.682123 0 0)
(-0.677432 0 0)
(-0.672718 0 0)
(-0.667982 0 0)
(-0.663224 0 0)
(-0.658444 0 0)
(-0.653642 0 0)
(-0.648819 0 0)
(-0.643974 0 0)
(-0.639109 0 0)
(-0.634223 0 0)
(-0.629316 0 0)
(-0.624389 0 0)
(-0.619441 0 0)
(-0.614474 0 0)
(-0.609487 0 0)
(-0.60448 0 0)
(-0.599455 0 0)
(-0.59441 0 0)
(-0.589346 0 0)
(-0.584264 0 0)
(-0.579163 0 0)
(-0.574044 0 0)
(-0.568907 0 0)
(-0.563752 0 0)
(-0.55858 0 0)
(-0.55339 0 0)
(-0.548183 0 0)
(-0.542959 0 0)
(-0.537719 0 0)
(-0.532461 0 0)
(-0.527188 0 0)
(-0.521898 0 0)
(-0.516592 0 0)
(-0.511271 0 0)
(-0.505934 0 0)
(-0.500581 0 0)
(-0.495214 0 0)
(-0.489831 0 0)
(-0.484434 0 0)
(-0.479022 0 0)
(-0.473595 0 0)
(-0.468155 0 0)
(-0.4627 0 0)
(-0.457232 0 0)
(-0.45175 0 0)
(-0.446254 0 0)
(-0.440746 0 0)
(-0.435224 0 0)
(-0.429689 0 0)
(-0.424142 0 0)
(-0.418582 0 0)
(-0.41301 0 0)
(-0.407426 0 0)
(-0.40183 0 0)
(-0.396222 0 0)
(-0.390603 0 0)
(-0.384972 0 0)
(-0.37933 0 0)
(-0.373677 0 0)
(-0.368014 0 0)
(-0.362339 0 0)
(-0.356654 0 0)
(-0.350959 0 0)
(-0.345254 0 0)
(-0.339538 0 0)
(-0.333813 0 0)
(-0.328079 0 0)
(-0.322335 0 0)
(-0.316582 0 0)
(-0.31082 0 0)
(-0.305049 0 0)
(-0.299269 0 0)
(-0.293481 0 0)
(-0.287684 0 0)
(-0.281879 0 0)
(-0.276066 0 0)
(-0.270246 0 0)
(-0.264418 0 0)
(-0.258582 0 0)
(-0.252739 0 0)
(-0.246889 0 0)
(-0.241032 0 0)
(-0.235168 0 0)
(-0.229298 0 0)
(-0.223421 0 0)
(-0.217538 0 0)
(-0.211649 0 0)
(-0.205754 0 0)
(-0.199853 0 0)
(-0.193946 0 0)
(-0.188034 0 0)
(-0.182117 0 0)
(-0.176195 0 0)
(-0.170268 0 0)
(-0.164336 0 0)
(-0.1584 0 0)
(-0.152459 0 0)
(-0.146514 0 0)
(-0.140565 0 0)
(-0.134612 0 0)
(-0.128656 0 0)
(-0.122695 0 0)
(-0.116732 0 0)
(-0.110765 0 0)
(-0.104795 0 0)
(-0.0988221 0 0)
(-0.0928466 0 0)
(-0.0868685 0 0)
(-0.080888 0 0)
(-0.0749052 0 0)
(-0.0689204 0 0)
(-0.0629337 0 0)
(-0.0569452 0 0)
(-0.0509552 0 0)
(-0.0449638 0 0)
(-0.0389711 0 0)
(-0.0329774 0 0)
(-0.0269827 0 0)
(-0.0209873 0 0)
(-0.0149914 0 0)
(-0.00899499 0 0)
(-0.00299836 0 0)
)
;

boundaryField
{
    left
    {
        type            fixedValue;
        value           uniform (0 0 0);
    }
    right
    {
        type            fixedValue;
        value           uniform (0 0 0);
    }
    frontBackUpDown
    {
        type            empty;
    }
}


// ************************************************************************* //
