/*--------------------------------*- C++ -*----------------------------------*\
| =========                 |                                                 |
| \\      /  F ield         | OpenFOAM: The Open Source CFD Toolbox           |
|  \\    /   O peration     | Version:  2412                                  |
|   \\  /    A nd           | Website:  www.openfoam.com                      |
|    \\/     M anipulation  |                                                 |
\*---------------------------------------------------------------------------*/
FoamFile
{
    version     2.0;
    format      ascii;
    arch        "LSB;label=32;scalar=64";
    class       volScalarField;
    location    "9.75";
    object      p;
}
// * * * * * * * * * * * * * * * * * * * * * * * * * * * * * * * * * * * * * //

dimensions      [0 2 -2 0 0 0 0];

internalField   nonuniform List<scalar> 
2200
(
1.50291
1.50311
1.50494
1.51135
1.52726
1.56041
1.6222
1.7285
1.89904
2.15453
2.44565
2.69154
2.86006
2.96461
3.02703
3.06142
3.07788
3.08496
3.08745
3.08774
1.49788
1.49822
1.50027
1.50664
1.52232
1.55589
1.61842
1.72508
1.89585
2.15205
2.44356
2.68937
2.85771
2.96583
3.02839
3.06106
3.077
3.08348
3.08545
3.08552
1.48788
1.48807
1.49033
1.49719
1.51353
1.54749
1.61047
1.71854
1.89072
2.14914
2.44178
2.69038
2.86295
2.9702
3.03156
3.06413
3.07937
3.0852
3.08679
3.08686
1.47306
1.47319
1.47557
1.48251
1.49948
1.53437
1.59847
1.70777
1.88184
2.14521
2.44356
2.69687
2.86995
2.97778
3.03954
3.07084
3.08518
3.09092
3.09284
3.09306
1.45188
1.45201
1.45471
1.46256
1.47951
1.51423
1.57966
1.69157
1.86975
2.14021
2.44557
2.70446
2.88114
2.98921
3.0506
3.08223
3.09716
3.10358
3.10581
3.1061
1.4199
1.41971
1.42186
1.42916
1.44804
1.48556
1.55271
1.6682
1.85286
2.13299
2.44828
2.7148
2.89438
3.00478
3.06798
3.10152
3.11829
3.12543
3.12784
3.12809
1.38071
1.38075
1.38269
1.38857
1.40517
1.4428
1.51458
1.63552
1.82874
2.12177
2.44976
2.72436
2.90947
3.02543
3.09237
3.12834
3.14643
3.15483
3.1579
3.15804
1.33066
1.33104
1.33354
1.33988
1.35549
1.39129
1.46275
1.58948
1.79442
2.1037
2.44808
2.73637
2.9308
3.05259
3.12415
3.16363
3.18398
3.19356
3.19692
3.19688
1.26211
1.26263
1.26538
1.27283
1.29118
1.32997
1.40449
1.53563
1.75118
2.07942
2.44554
2.75069
2.95783
3.08952
3.16752
3.21039
3.2321
3.24132
3.2445
3.24454
1.17216
1.1724
1.17618
1.1855
1.2059
1.24701
1.32764
1.46866
1.69904
2.0498
2.44218
2.77139
2.99677
3.13888
3.22212
3.26697
3.28812
3.29673
3.30025
3.30074
1.064
1.06374
1.06697
1.07794
1.10235
1.14957
1.23608
1.3882
1.63858
2.01641
2.44252
2.80428
3.05094
3.20448
3.29262
3.33848
3.35966
3.36818
3.37212
3.37307
0.941815
0.941256
0.946099
0.95921
0.985708
1.03866
1.13697
1.30531
1.57652
1.98455
2.4503
2.85031
3.12351
3.29095
3.38543
3.43445
3.45707
3.46614
3.47015
3.47135
0.804231
0.803461
0.806286
0.821141
0.853421
0.911772
1.02056
1.209
1.51243
1.95832
2.47106
2.91679
3.21892
3.40278
3.50642
3.55977
3.58414
3.59431
3.59821
3.59935
0.644333
0.644407
0.649069
0.663042
0.698612
0.770941
0.895879
1.10535
1.44182
1.9367
2.50712
3.00068
3.33393
3.53737
3.65185
3.70962
3.7367
3.74852
3.75205
3.75249
0.449444
0.448757
0.45328
0.468851
0.507756
0.587977
0.734776
0.976265
1.35916
1.91703
2.55686
3.1005
3.46391
3.68535
3.80865
3.87322
3.90513
3.91831
3.92097
3.92054
0.215913
0.216342
0.221254
0.236098
0.277024
0.364006
0.524135
0.800177
1.24535
1.88637
2.60663
3.20126
3.5955
3.83546
3.96832
4.03899
4.07543
4.09023
4.09342
4.0927
-0.0767467
-0.0758312
-0.0680543
-0.0504865
-0.00654987
0.0903583
0.271881
0.5818
1.09253
1.82838
2.64192
3.29553
3.72237
3.98497
4.13239
4.20771
4.24572
4.26262
4.26737
4.26707
-0.437506
-0.43725
-0.42938
-0.408555
-0.360638
-0.254467
-0.0482682
0.309388
0.898129
1.7343
2.65158
3.38294
3.85771
4.1446
4.3076
4.3917
4.429
4.44619
4.4522
4.45254
-0.882547
-0.88151
-0.871552
-0.844594
-0.782398
-0.658467
-0.425857
-0.0178972
0.658051
1.60773
2.64635
3.47284
4.00466
4.32699
4.50827
4.5983
4.63507
4.65181
4.65862
4.65906
-1.40207
-1.40182
-1.39161
-1.36067
-1.28861
-1.13881
-0.863585
-0.391059
0.389372
1.4672
2.6441
3.58287
4.18385
4.53972
4.73707
4.83337
4.87015
4.88527
4.89173
4.89173
-2.02898
-2.02733
-2.01319
-1.97738
-1.89049
-1.71177
-1.38272
-0.811136
0.108639
1.33809
2.66526
3.72057
4.38915
4.7788
4.98627
5.08564
5.12716
5.14091
5.14699
5.1458
-2.77688
-2.77521
-2.76401
-2.72106
-2.61104
-2.38895
-1.98071
-1.27443
-0.179697
1.23568
2.73339
3.89658
4.61514
5.02597
5.24032
5.3436
5.38842
5.40322
5.40992
5.40789
-3.72723
-3.72105
-3.69417
-3.63141
-3.48635
-3.19366
-2.66349
-1.77738
-0.471517
1.16343
2.84992
4.11499
4.87537
5.2877
5.49104
5.59307
5.64194
5.66141
5.6714
5.66983
-4.8692
-4.86242
-4.83303
-4.74461
-4.53719
-4.13727
-3.44094
-2.32814
-0.769989
1.12181
3.01993
4.38042
5.16356
5.56627
5.75239
5.84389
5.89215
5.91532
5.93033
5.92979
-6.39677
-6.36575
-6.28582
-6.11121
-5.77778
-5.20803
-4.29625
-2.91321
-1.06869
1.11325
3.24078
4.69705
5.4941
5.87778
6.04317
6.11383
6.14522
6.15985
6.16865
6.17353
-8.32828
-8.25792
-8.07925
-7.75534
-7.22987
-6.41854
-5.21321
-3.5136
-1.35057
1.15161
3.51663
5.06978
5.88037
6.24853
6.39106
6.42948
6.43423
6.43403
6.43213
6.44946
-10.6755
-10.4862
-10.1004
-9.532
-8.7303
-7.63427
-6.12674
-4.08926
-1.57687
1.27635
3.90965
5.58261
6.42403
6.78851
6.91463
6.94044
6.93648
6.93888
6.93418
6.96111
-13.302
-12.7798
-12.1184
-11.3163
-10.2602
-8.85623
-6.99659
-4.5877
-1.70252
1.52659
4.45169
6.2668
7.16493
7.53681
7.66868
7.72361
7.7353
7.75366
7.74569
7.7621
-15.7163
-14.9613
-14.0985
-13.0774
-11.76
-10.0387
-7.7956
-4.99734
-1.72363
1.87843
5.07062
7.01175
7.94935
8.34127
8.4841
8.53571
8.55568
8.56652
8.56778
8.58784
-17.5655
-16.74
-15.8256
-14.666
-13.1172
-11.0855
-8.47749
-5.30091
-1.64388
2.30572
5.76093
7.82063
8.77458
9.18004
9.30441
9.3612
9.38824
9.40507
9.41502
9.42918
-19.1185
-18.1493
-17.2433
-15.9807
-14.2284
-11.9507
-9.03271
-5.49318
-1.48298
2.77185
6.48751
8.65312
9.6079
10.0134
10.1717
10.2268
10.2545
10.2682
10.2751
10.2848
-20.2942
-19.247
-18.3633
-16.9811
-15.1023
-12.6523
-9.47628
-5.61068
-1.29506
3.22694
7.18224
9.45202
10.434
10.8781
11.0363
11.087
11.1133
11.1263
11.1348
11.1432
-21.1354
-20.0936
-19.2195
-17.7278
-15.7681
-13.1928
-9.80983
-5.68141
-1.12004
3.63206
7.8
10.1774
11.2524
11.7132
11.8721
11.9259
11.9568
11.9749
11.9865
11.9899
-21.7299
-20.7465
-19.8495
-18.3025
-16.2728
-13.5907
-10.049
-5.72547
-0.974186
3.98972
8.33715
10.8555
12.0183
12.4875
12.6527
12.7167
12.7442
12.7562
12.7598
12.7638
-22.1631
-21.2414
-20.2707
-18.7251
-16.6534
-13.8815
-10.2265
-5.75972
-0.852189
4.30253
8.82929
11.4798
12.7037
13.2016
13.3861
13.4547
13.4901
13.5046
13.5095
13.5116
-22.4768
-21.5762
-20.551
-19.0179
-16.9251
-14.0952
-10.361
-5.78838
-0.745544
4.58695
9.27539
12.0352
13.3141
13.8503
14.0597
14.14
14.1769
14.1973
14.2075
14.2069
-22.6705
-21.7831
-20.7418
-19.1973
-17.096
-14.2399
-10.4531
-5.80251
-0.643715
4.84103
9.65668
12.5073
13.8478
14.4344
14.6748
14.7668
14.8129
14.8319
14.8382
14.8385
-22.7851
-21.9246
-20.8452
-19.2824
-17.1717
-14.3115
-10.4948
-5.78999
-0.546168
5.0451
9.95401
12.8884
14.3115
14.9635
15.2336
15.3355
15.3856
15.4129
15.4254
15.4243
-22.8571
-22.0203
-20.9038
-19.3032
-17.174
-14.3145
-10.4854
-5.75071
-0.463978
5.17998
10.1631
13.191
14.7163
15.4296
15.7343
15.8535
15.9154
15.9457
15.9601
15.9572
-22.9056
-22.0793
-20.9306
-19.2909
-17.1339
-14.2663
-10.4358
-5.6958
-0.406424
5.24736
10.299
13.443
15.0751
15.8478
16.1847
16.3176
16.3855
16.4218
16.4439
16.4378
-22.9427
-22.1174
-20.9473
-19.2718
-17.0807
-14.1919
-10.3626
-5.63567
-0.369769
5.27214
10.3937
13.6654
15.3961
16.2199
16.5806
16.7294
16.8087
16.8529
16.8783
16.8654
-22.9646
-22.1499
-20.9667
-19.2618
-17.0378
-14.1175
-10.2856
-5.57759
-0.339638
5.28985
10.4796
13.8653
15.6746
16.5467
16.9378
17.1019
17.1909
17.2272
17.2463
17.2363
-22.9925
-22.1829
-20.9928
-19.271
-17.0192
-14.0636
-10.2204
-5.52488
-0.30284
5.32642
10.5734
14.0383
15.904
16.8265
17.2547
17.4381
17.5364
17.5632
17.5585
17.5593
-23.0262
-22.222
-21.0283
-19.3001
-17.0312
-14.0471
-10.186
-5.48877
-0.261817
5.38449
10.6721
14.1758
16.0782
17.0538
17.5328
17.7494
17.8698
17.896
17.8198
17.8595
-23.0719
-22.2695
-21.0734
-19.3523
-17.0794
-14.0804
-10.2017
-5.49003
-0.238528
5.44228
10.7589
14.2721
16.1964
17.226
17.765
18.0392
18.2031
18.2585
18.1235
18.1437
-23.1241
-22.3277
-21.1356
-19.4319
-17.172
-14.1789
-10.2924
-5.56077
-0.270101
5.46302
10.8107
14.326
16.2622
17.3416
17.9389
18.2994
18.5506
18.7004
18.5675
18.3611
-23.1875
-22.3945
-21.2153
-19.5379
-17.3051
-14.3389
-10.4601
-5.70757
-0.371187
5.42353
10.8074
14.3309
16.274
17.3955
18.0569
18.507
18.9068
19.2784
19.3242
19.1106
-23.2585
-22.4757
-21.3107
-19.6594
-17.4617
-14.5369
-10.6778
-5.90895
-0.533637
5.31299
10.7285
14.2667
16.2115
17.3701
18.0856
18.5956
19.0217
19.3401
19.2903
19.1418
-23.3407
-22.5683
-21.419
-19.7907
-17.6323
-14.7541
-10.9198
-6.13847
-0.735035
5.14499
10.5766
14.1254
16.0691
17.2486
17.9761
18.4828
18.8292
19.0312
18.9197
18.7605
-23.4309
-22.6769
-21.5432
-19.9378
-17.8218
-14.9892
-11.1799
-6.38898
-0.96704
4.92878
10.3593
13.9048
15.8481
17.02
17.7209
18.1657
18.3982
18.4237
18.2916
18.2184
-23.5245
-22.8054
-21.6898
-20.1142
-18.0388
-15.2436
-11.455
-6.65745
-1.22441
4.67314
10.0878
13.6143
15.5507
16.6804
17.3078
17.6353
17.8103
17.7932
17.6324
17.5927
-23.6154
-22.95
-21.8568
-20.3198
-18.2793
-15.5098
-11.7371
-6.93848
-1.50314
4.3835
9.77302
13.2694
15.1801
16.236
16.7783
17.0326
17.1212
17.0245
16.8112
16.832
-23.6969
-23.09
-22.022
-20.5248
-18.5107
-15.7557
-11.9971
-7.20892
-1.78595
4.07433
9.42965
12.8861
14.7453
15.7038
16.1536
16.3263
16.3078
16.1202
15.9029
15.9365
-23.7616
-23.1909
-22.1451
-20.6806
-18.685
-15.9376
-12.1969
-7.43562
-2.0453
3.76931
9.07734
12.4794
14.2589
15.107
15.4555
15.5372
15.3851
15.0529
14.6997
14.6487
-23.7994
-23.2414
-22.2071
-20.7602
-18.7754
-16.0342
-12.3189
-7.60164
-2.26437
3.48583
8.73054
12.0583
13.7355
14.4702
14.711
14.682
14.3916
13.7051
12.7857
12.6351
-23.814
-23.2425
-22.2027
-20.7631
-18.7843
-16.0532
-12.3708
-7.70883
-2.43878
3.23271
8.3962
11.6281
13.1918
13.819
13.9382
13.7785
13.3523
12.3405
10.5418
8.96489
-23.8015
-23.2064
-22.152
-20.707
-18.7323
-16.0173
-12.3733
-7.76906
-2.56959
3.01647
8.08017
11.1993
12.6534
13.186
13.1958
12.8892
12.2864
11.3271
8.64606
1.53406
-23.7559
-23.1443
-22.0685
-20.6152
-18.6433
-15.9466
-12.3422
-7.79302
-2.66078
2.83585
7.77585
10.7687
12.122
12.5804
12.5196
12.0937
11.4196
10.7221
10.3647
7.73457
-23.6822
-23.0616
-21.9688
-20.5087
-18.5406
-15.8641
-12.2986
-7.80398
-2.73726
2.66484
7.46321
10.331
11.6
12.0223
11.9627
11.5875
11.1017
10.9423
11.6492
11.0207
-23.5811
-22.964
-21.8602
-20.4023
-18.4445
-15.7921
-12.2665
-7.82586
-2.82468
2.48029
7.13655
9.90096
11.1211
11.5543
11.586
11.3936
11.1151
11.0108
11.3908
11.0001
-23.4556
-22.8496
-21.7473
-20.2984
-18.3575
-15.7353
-12.2559
-7.87225
-2.94012
2.26814
6.79911
9.49565
10.7187
11.1991
11.3743
11.3574
11.1947
10.9852
11.0724
11.0227
-23.304
-22.7137
-21.6214
-20.193
-18.275
-15.6876
-12.2622
-7.94387
-3.08785
2.02791
6.46364
9.13544
10.3977
10.9567
11.2552
11.3721
11.3012
11.077
11.157
11.19
-23.1215
-22.5513
-21.4753
-20.0706
-18.1814
-15.6369
-12.275
-8.03279
-3.25993
1.77198
6.14595
8.82645
10.1508
10.8116
11.1906
11.402
11.4577
11.2934
11.3721
11.4047
-22.8989
-22.3481
-21.2935
-19.9226
-18.0702
-15.576
-12.2848
-8.12599
-3.43931
1.51827
5.85664
8.57053
9.97265
10.7361
11.1706
11.4479
11.6472
11.5904
11.6428
11.6626
-22.6263
-22.0971
-21.0655
-19.7302
-17.9239
-15.4918
-12.2789
-8.20832
-3.60713
1.28326
5.6001
8.36411
9.84778
10.6978
11.2118
11.5332
11.8807
11.9404
12.0006
12.0153
-22.2893
-21.7843
-20.7812
-19.4888
-17.7351
-15.3735
-12.2467
-8.2687
-3.75142
1.07642
5.3769
8.19737
9.75923
10.6854
11.2841
11.7089
12.0988
12.3254
12.418
12.4249
-21.8764
-21.3941
-20.423
-19.1786
-17.4872
-15.2077
-12.1769
-8.29968
-3.86997
0.895493
5.18128
8.05451
9.68625
10.6938
11.388
11.9091
12.3536
12.6673
12.7925
12.7952
-21.3728
-20.9233
-19.9934
-18.8013
-17.1784
-14.9898
-12.0655
-8.30006
-3.96715
0.729297
4.99642
7.91533
9.61606
10.7141
11.4989
12.0906
12.57
12.9138
13.0522
13.0579
-20.7505
-20.3413
-19.4641
-18.343
-16.8062
-14.7224
-11.9165
-8.27473
-4.052
0.563442
4.80337
7.76071
9.52912
10.7126
11.5709
12.2053
12.6953
13.0602
13.2159
13.2342
-20.0374
-19.6517
-18.849
-17.8088
-16.3716
-14.4103
-11.7384
-8.23631
-4.1386
0.385373
4.5854
7.5694
9.39706
10.6532
11.5728
12.2454
12.7671
13.1756
13.3626
13.3941
-19.1432
-18.868
-18.1413
-17.2004
-15.8869
-14.0647
-11.5418
-8.19378
-4.2346
0.181714
4.3252
7.32104
9.19591
10.5182
11.5099
12.2491
12.8265
13.2822
13.508
13.5525
-18.1506
-17.914
-17.3358
-16.537
-15.3655
-13.6945
-11.3351
-8.15603
-4.34853
-0.0588892
4.00472
6.9892
8.90639
10.3049
11.3832
12.1884
12.8033
13.2783
13.5407
13.602
-17.0952
-16.969
-16.5029
-15.8314
-14.8118
-13.3109
-11.1307
-8.13221
-4.49
-0.348728
3.60682
6.55303
8.50277
9.96125
11.0874
11.9144
12.5387
13.0237
13.3226
13.4085
-16.1631
-16.0726
-15.7178
-15.1587
-14.2822
-12.9502
-10.9441
-8.12762
-4.66514
-0.699218
3.11381
5.98275
7.9137
9.36357
10.4742
11.2924
11.9206
12.4222
12.754
12.8645
-15.3461
-15.2223
-14.9479
-14.5374
-13.846
-12.6704
-10.8021
-8.1573
-4.88488
-1.12199
2.50036
5.22358
7.06264
8.44099
9.50017
10.2989
10.9212
11.421
11.777
11.9181
-14.4992
-14.395
-14.3557
-14.1549
-13.5762
-12.4602
-10.6879
-8.20727
-5.14024
-1.61981
1.7567
4.27691
5.98152
7.2452
8.21816
8.95383
9.51365
9.94737
10.2635
10.4156
-14.285
-14.1976
-14.4851
-14.3135
-13.6218
-12.408
-10.6271
-8.24958
-5.37312
-2.10421
1.03233
3.37041
4.94494
6.0981
6.97814
7.60511
8.05022
8.36974
8.58735
8.69331
-15.7188
-15.8063
-15.8161
-15.1076
-13.9277
-12.4095
-10.5204
-8.20986
-5.51117
-2.48986
0.405024
2.55267
3.99462
5.05332
5.84623
6.37705
6.7278
6.96203
7.10675
7.16582
-16.7896
-17.0295
-16.8474
-15.6771
-13.99
-12.2026
-10.2639
-8.03792
-5.52287
-2.77212
-0.164336
1.7414
3.01189
3.9424
4.62348
5.05374
5.31984
5.48958
5.58997
5.62739
-15.0151
-15.2458
-15.0862
-14.2507
-12.9555
-11.4413
-9.68423
-7.64686
-5.36568
-2.91459
-0.613049
1.02873
2.11293
2.90428
3.46854
3.8104
4.01508
4.14605
4.22455
4.256
-10.8524
-10.9559
-11.0062
-10.9009
-10.4966
-9.72475
-8.51282
-6.90109
-4.98696
-2.89438
-0.912392
0.450674
1.34939
2.0052
2.46488
2.73754
2.90282
3.01461
3.08325
3.10716
-7.18824
-7.2306
-7.3281
-7.42143
-7.43036
-7.24398
-6.68777
-5.69816
-4.32158
-2.68565
-1.07367
0.0113239
0.737936
1.26955
1.65099
1.87687
2.02025
2.12346
2.18869
2.2148
-4.34186
-4.38541
-4.48808
-4.63118
-4.79972
-4.85622
-4.70283
-4.23637
-3.40735
-2.28598
-1.11418
-0.275322
0.302626
0.723668
1.0569
1.24787
1.37222
1.47667
1.53055
1.55107
-2.39115
-2.43017
-2.52045
-2.66103
-2.81377
-2.94373
-2.99558
-2.85197
-2.44407
-1.78187
-1.01498
-0.388922
0.061369
0.38706
0.670937
0.826285
0.936032
1.01742
1.06889
1.08781
-1.17687
-1.20799
-1.2813
-1.39047
-1.5073
-1.61183
-1.71115
-1.72948
-1.59221
-1.26032
-0.796548
-0.355033
-0.0190225
0.234543
0.442684
0.56953
0.655537
0.713409
0.748594
0.760677
-0.382723
-0.415453
-0.495172
-0.602904
-0.71095
-0.797532
-0.875729
-0.92763
-0.911344
-0.778878
-0.521113
-0.231288
0.00189409
0.184671
0.328201
0.418697
0.477323
0.512991
0.532148
0.537568
0.0688818
0.0444137
-0.0303289
-0.139583
-0.244963
-0.328785
-0.393412
-0.434562
-0.439591
-0.389644
-0.255949
-0.081191
0.063053
0.181303
0.27486
0.330055
0.362105
0.377982
0.384657
0.386009
0.29747
0.280798
0.217133
0.115363
0.012255
-0.0740475
-0.143393
-0.178949
-0.174855
-0.137853
-0.0582938
0.0442377
0.125457
0.193219
0.247409
0.272964
0.282534
0.283388
0.281527
0.280331
0.397486
0.385932
0.335153
0.247965
0.150451
0.0593286
-0.0208234
-0.0632984
-0.0570022
-0.0171774
0.0452633
0.115633
0.163231
0.196572
0.219434
0.223263
0.219664
0.213408
0.207291
0.204667
0.434987
0.427044
0.389159
0.319423
0.230931
0.137881
0.0463021
-0.00844124
-0.0136887
0.0212816
0.0744164
0.131574
0.161574
0.173361
0.176141
0.169433
0.161952
0.154457
0.147274
0.14397
0.441951
0.436758
0.410325
0.360335
0.288254
0.200567
0.101679
0.0315354
0.00368447
0.0227479
0.0633753
0.109293
0.126365
0.125684
0.121245
0.112162
0.104922
0.0982153
0.0916758
0.0886593
0.423458
0.4204
0.40363
0.37256
0.324819
0.257369
0.165125
0.0833309
0.0305547
0.0193776
0.0365726
0.0663345
0.0726935
0.0660402
0.0617468
0.0542321
0.048965
0.044234
0.0400653
0.0383195
0.384386
0.382632
0.373496
0.356836
0.332604
0.293609
0.227626
0.150599
0.0795736
0.032492
0.0145347
0.0216748
0.019381
0.0107068
0.00831436
0.00235705
-0.0009188
-0.00234136
-0.0035458
-0.00445306
0.337483
0.336546
0.332401
0.324248
0.313868
0.296076
0.259201
0.204789
0.135925
0.0652081
0.0131061
-0.00435172
-0.0145779
-0.0237137
-0.0265831
-0.0331033
-0.037118
-0.0394925
-0.0410462
-0.0421795
0.293369
0.292636
0.291247
0.286194
0.279721
0.26919
0.247627
0.217733
0.169474
0.102206
0.0352646
0.000374801
-0.0180531
-0.0321718
-0.0392387
-0.0498892
-0.0580332
-0.0643631
-0.0693753
-0.0715959
0.255491
0.254407
0.2533
0.24785
0.239376
0.227124
0.207673
0.191235
0.164341
0.118742
0.0635337
0.0264279
0.00123566
-0.0224927
-0.0374139
-0.0540011
-0.0681812
-0.0798165
-0.0891327
-0.092077
0.222316
0.221098
0.219012
0.211255
0.199344
0.182329
0.159709
0.14554
0.129478
0.107159
0.0764646
0.0470524
0.019536
-0.0110207
-0.0328696
-0.0537754
-0.071491
-0.0868633
-0.0987208
-0.101619
0.189955
0.188252
0.184859
0.17548
0.162071
0.143736
0.119875
0.103165
0.0882244
0.079899
0.0690205
0.0488556
0.0253438
-0.00572105
-0.0285947
-0.0523099
-0.0707796
-0.085365
-0.0978759
-0.100106
0.154839
0.153435
0.149513
0.14057
0.130035
0.114541
0.0933607
0.07712
0.0583341
0.0499019
0.0450639
0.0326859
0.0187238
-0.00793303
-0.0259389
-0.0493911
-0.0640747
-0.074016
-0.0865076
-0.0879043
0.114459
0.113315
0.110591
0.105285
0.100825
0.0925707
0.0785368
0.064814
0.0419303
0.0265076
0.0174301
0.00603559
0.0018799
-0.0177577
-0.0262362
-0.0404977
-0.0512862
-0.0560185
-0.0658223
-0.0657616
0.0706117
0.0701971
0.0688765
0.066268
0.0670716
0.0643862
0.0572266
0.0500427
0.0285437
0.0123106
0.000680162
-0.0136736
-0.0112274
-0.0213817
-0.0226872
-0.0285027
-0.0333052
-0.0343932
-0.0397786
-0.0394033
0.0289354
0.0301665
0.028891
0.0249937
0.0260623
0.0211149
0.0187607
0.0209344
0.00972798
0.00417368
-0.000253745
-0.0129515
-0.00868624
-0.0133788
-0.0105975
-0.00965098
-0.00891104
-0.0066429
-0.0124019
-0.0124829
12.4677
15.3624
15.9593
16.8136
17.4521
17.9952
18.4523
18.8078
19.0274
18.8581
15.3874
16.7262
17.0424
17.5616
17.9818
18.3228
18.5854
18.7552
18.7874
18.6668
16.7968
17.4347
17.6989
18.0081
18.2659
18.4713
18.6195
18.7022
18.7071
18.685
17.5603
17.9345
18.1089
18.294
18.4454
18.5632
18.6426
18.6875
18.6982
18.713
18.048
18.2401
18.3475
18.4617
18.5549
18.6289
18.678
18.7094
18.7227
18.7528
18.3091
18.4485
18.5016
18.5914
18.6432
18.6907
18.7259
18.7525
18.7712
18.7974
18.5033
18.5931
18.6262
18.6819
18.72
18.7539
18.7817
18.8053
18.8217
18.8484
18.6448
18.7037
18.7303
18.7641
18.7942
18.8203
18.8425
18.8636
18.8815
18.9041
18.7617
18.8004
18.823
18.8443
18.8668
18.8878
18.9072
18.9262
18.9411
18.9618
18.8645
18.8906
18.9088
18.9252
18.942
18.9584
18.9735
18.9891
19.0013
19.0205
18.9594
18.9768
18.9923
19.0057
19.0194
19.0325
19.0445
19.0566
19.0652
19.0818
19.0482
19.0618
19.0765
19.089
19.1003
19.1109
19.1205
19.1293
19.1333
19.1448
19.1398
19.1511
19.1653
19.1752
19.1833
19.1908
19.198
19.2043
19.2053
19.2124
19.2407
19.2454
19.2534
19.2579
19.2612
19.2655
19.2712
19.2786
19.2826
19.2924
19.3543
19.3408
19.3328
19.3267
19.324
19.3253
19.3313
19.3438
19.3588
19.3885
19.4742
19.4184
19.388
19.3711
19.3629
19.3627
19.3719
19.3913
19.4224
19.4917
)
;

boundaryField
{
    wall-4
    {
        type            zeroGradient;
    }
    pressure-outlet-7
    {
        type            fixedValue;
        value           uniform 0;
    }
    velocity-inlet-6
    {
        type            zeroGradient;
    }
    velocity-inlet-5
    {
        type            zeroGradient;
    }
    frontAndBackPlanes
    {
        type            empty;
    }
}


// ************************************************************************* //
