/*--------------------------------*- C++ -*----------------------------------*\
| =========                 |                                                 |
| \\      /  F ield         | OpenFOAM: The Open Source CFD Toolbox           |
|  \\    /   O peration     | Version:  2412                                  |
|   \\  /    A nd           | Website:  www.openfoam.com                      |
|    \\/     M anipulation  |                                                 |
\*---------------------------------------------------------------------------*/
FoamFile
{
    version     2.0;
    format      ascii;
    arch        "LSB;label=32;scalar=64";
    class       surfaceScalarField;
    location    "9.75";
    object      phi;
}
// * * * * * * * * * * * * * * * * * * * * * * * * * * * * * * * * * * * * * //

dimensions      [0 3 -1 0 0 0 0];

oriented        oriented;

internalField   nonuniform List<scalar> 
4262
(
-0.00208741
0.2226
-0.00461078
0.831177
-0.00724141
1.76977
-0.0104404
3.16837
-0.0140043
5.18817
-0.0174153
8.01778
-0.0204873
11.8502
-0.0230052
16.8223
-0.0256122
22.8844
-0.0253787
29.5281
-0.0258198
29.5288
-0.0245452
22.8805
-0.0225225
16.8177
-0.018258
11.8429
-0.0140417
8.01015
-0.0106769
5.18124
-0.00776682
3.16226
-0.00532494
1.7647
-0.0027889
0.826117
0.217724
-0.00482376
0.227424
-0.0115946
0.837947
-0.0196346
1.77781
-0.028166
3.1769
-0.0385438
5.19855
-0.049274
8.02851
-0.060047
11.861
-0.071683
16.8339
-0.0845729
22.8973
-0.0847157
29.5283
-0.0794769
29.5236
-0.0692646
22.8703
-0.057746
16.8062
-0.0479006
11.833
-0.0391654
8.00141
-0.0298779
5.17195
-0.0213522
3.15373
-0.0139229
1.75727
-0.00586942
0.818064
0.211854
-0.00737159
0.234795
-0.0181388
0.848715
-0.0316824
1.79136
-0.0476648
3.19288
-0.0646721
5.21555
-0.081779
8.04561
-0.0994835
11.8787
-0.114271
16.8487
-0.130879
22.9139
-0.131247
29.5286
-0.126126
29.5184
-0.115912
22.8601
-0.102056
16.7923
-0.0833336
11.8143
-0.0636058
7.98169
-0.0484351
5.15678
-0.033682
3.13898
-0.0192105
1.7428
-0.00705737
0.80591
0.204797
-0.0108006
0.245596
-0.0269602
0.864874
-0.0460879
1.81049
-0.0678606
3.21465
-0.0901303
5.23782
-0.112719
8.0682
-0.137961
11.9039
-0.159648
16.8704
-0.184989
22.9393
-0.185152
29.5288
-0.177464
29.5107
-0.158936
22.8416
-0.13169
16.7651
-0.109702
11.7923
-0.0872178
7.9592
-0.0639885
5.13355
-0.0428533
3.11784
-0.024395
1.72434
-0.00867373
0.790189
0.196123
-0.0140794
0.259675
-0.0344823
0.885277
-0.0580674
1.83407
-0.0847147
3.2413
-0.115731
5.26884
-0.145497
8.09797
-0.174897
11.9333
-0.201304
16.8968
-0.231263
22.9692
-0.232509
29.53
-0.222661
29.5009
-0.202182
22.8211
-0.174918
16.7378
-0.140884
11.7583
-0.106214
7.92453
-0.0777162
5.10505
-0.0522694
3.0924
-0.0292953
1.70137
-0.00985156
0.770745
0.186272
-0.0161723
0.275848
-0.0422174
0.911322
-0.0730961
1.86495
-0.106534
3.27474
-0.142362
5.30467
-0.178899
8.13451
-0.214397
11.9688
-0.248997
16.9314
-0.285509
23.0057
-0.2859
29.5304
-0.274336
29.4893
-0.24445
22.7912
-0.203121
16.6965
-0.164028
11.7192
-0.129018
7.88952
-0.0943543
5.07039
-0.0621932
3.06023
-0.0339049
1.67308
-0.0113681
0.748209
0.174904
-0.0199052
0.295753
-0.0490266
0.940444
-0.0838142
1.89974
-0.125161
3.31608
-0.167637
5.34714
-0.210807
8.17768
-0.250856
12.0089
-0.292414
16.9729
-0.333797
23.0471
-0.335376
29.532
-0.319766
29.4737
-0.285095
22.7566
-0.245928
16.6573
-0.196427
11.6697
-0.150093
7.84319
-0.109733
5.03003
-0.0732726
3.02377
-0.0414777
1.64129
-0.014665
0.721396
0.160239
-0.0214116
0.317165
-0.0545655
0.973598
-0.0928753
1.93805
-0.135642
3.35885
-0.187989
5.39949
-0.245098
8.23479
-0.296279
12.0601
-0.344535
17.0212
-0.390931
23.0935
-0.390788
29.5319
-0.371896
29.4548
-0.329082
22.7137
-0.27543
16.6037
-0.222156
11.6164
-0.174854
7.79589
-0.127834
4.98301
-0.0857803
2.98172
-0.0484677
1.60397
-0.0174347
0.690363
0.142804
-0.0216701
0.338835
-0.0598039
1.01173
-0.105078
1.98332
-0.157518
3.41129
-0.21207
5.45404
-0.272225
8.29494
-0.333529
12.1214
-0.391933
17.0796
-0.444286
23.1459
-0.444712
29.5323
-0.420463
29.4306
-0.37281
22.6661
-0.321593
16.5525
-0.261041
11.5559
-0.201713
7.73656
-0.147484
4.92878
-0.0987332
2.93297
-0.0556749
1.56091
-0.020831
0.655519
0.121973
-0.0237068
0.362541
-0.0655904
1.05361
-0.116363
2.03409
-0.172031
3.46696
-0.235884
5.51789
-0.306417
8.36547
-0.376221
12.1912
-0.445354
17.1487
-0.505855
23.2064
-0.505493
29.5319
-0.478042
29.4031
-0.425966
22.614
-0.358823
16.4853
-0.290638
11.4877
-0.224934
7.67085
-0.162053
4.8659
-0.106993
2.87791
-0.061193
1.51511
-0.0242795
0.618605
0.0976933
-0.0277395
0.390281
-0.0768019
1.10268
-0.135843
2.09313
-0.199952
3.53107
-0.267753
5.58569
-0.342541
8.44026
-0.42384
12.2725
-0.499228
17.2241
-0.56588
23.273
-0.566558
29.5326
-0.536868
29.3734
-0.478414
22.5556
-0.407979
16.4149
-0.328393
11.4081
-0.246817
7.58928
-0.175051
4.79413
-0.112515
2.81537
-0.0605306
1.46313
-0.0240614
0.582136
0.0736318
-0.0343218
0.424603
-0.0903923
1.15875
-0.152804
2.15555
-0.226419
3.60468
-0.307088
5.66636
-0.389691
8.52286
-0.471756
12.3545
-0.561151
17.3135
-0.635072
23.3469
-0.637868
29.5354
-0.606738
29.3423
-0.539139
22.488
-0.44953
16.3253
-0.35667
11.3152
-0.269328
7.50194
-0.186764
4.71157
-0.114079
2.74269
-0.054463
1.40351
-0.0213347
0.549008
0.0522971
-0.0438621
0.468465
-0.11289
1.22778
-0.183353
2.22601
-0.257775
3.67911
-0.341661
5.75025
-0.435911
8.61711
-0.533111
12.4517
-0.627211
17.4076
-0.704081
23.4238
-0.710965
29.5423
-0.67933
29.3107
-0.6021
22.4107
-0.503449
16.2266
-0.396602
11.2084
-0.293669
7.399
-0.200245
4.61815
-0.116698
2.65914
-0.0490397
1.33585
-0.0187941
0.518762
0.033503
-0.0489519
0.517417
-0.123813
1.30264
-0.205403
2.3076
-0.297081
3.77078
-0.393694
5.84686
-0.494845
8.71826
-0.596583
12.5535
-0.707372
17.5184
-0.790282
23.5067
-0.798989
29.551
-0.763135
29.2748
-0.672251
22.3198
-0.554429
16.1088
-0.434055
11.088
-0.32142
7.28637
-0.214881
4.51161
-0.122779
2.56704
-0.0507342
1.26381
-0.0185984
0.486626
0.0149047
-0.0581832
0.5756
-0.148952
1.39341
-0.231005
2.38965
-0.3245
3.86428
-0.434049
5.95641
-0.549992
8.83421
-0.668161
12.6716
-0.78755
17.6378
-0.878161
23.5973
-0.891763
29.5646
-0.84955
29.2326
-0.747137
22.2174
-0.620079
15.9817
-0.483876
10.9518
-0.355099
7.15759
-0.241067
4.39758
-0.140699
2.46667
-0.0612146
1.18433
-0.0218298
0.447242
-0.00692511
-0.0603648
0.635965
-0.155816
1.48886
-0.260644
2.49448
-0.375186
3.97882
-0.495423
6.07665
-0.626103
8.96489
-0.759563
12.8051
-0.896484
17.7747
-0.991085
23.6919
-1.00326
29.5768
-0.946661
29.176
-0.82537
22.0961
-0.680666
15.837
-0.535692
10.8068
-0.399452
7.02135
-0.274189
4.27231
-0.164209
2.35669
-0.0768149
1.09693
-0.0273226
0.397749
-0.0342477
-0.0715184
0.707483
-0.17607
1.59341
-0.280188
2.5986
-0.402785
4.10142
-0.543223
6.21709
-0.689582
9.11125
-0.843936
12.9595
-1.00596
17.9367
-1.11039
23.7964
-1.12108
29.5875
-1.05342
29.1083
-0.918601
21.9613
-0.760086
15.6785
-0.597205
10.644
-0.439347
6.86349
-0.301492
4.13446
-0.186835
2.24203
-0.0937214
1.00382
-0.0349934
0.339021
-0.069241
-0.0732537
0.780737
-0.184456
1.70461
-0.309085
2.72323
-0.456307
4.24864
-0.6157
6.37648
-0.787175
9.28272
-0.962404
13.1347
-1.14543
18.1198
-1.25591
23.9068
-1.26189
29.5934
-1.17606
29.0225
-1.02091
21.8062
-0.838826
15.4964
-0.655839
10.461
-0.482404
6.69006
-0.327176
3.97923
-0.199877
2.11473
-0.102311
0.906252
-0.0397443
0.276455
-0.108985
-0.0832553
0.863992
-0.209723
1.83108
-0.349569
2.86307
-0.508251
4.40732
-0.688462
6.55669
-0.881049
9.47531
-1.08126
13.3349
-1.29519
18.3337
-1.40934
24.021
-1.41246
29.5966
-1.31515
28.9252
-1.13744
21.6285
-0.928098
15.2871
-0.717428
10.2503
-0.518676
6.49131
-0.345009
3.80556
-0.202358
1.97208
-0.107545
0.81144
-0.0428619
0.211771
-0.151847
-0.100548
0.96454
-0.244042
1.97457
-0.402134
3.02117
-0.589139
4.59432
-0.789574
6.75713
-1.00596
9.69169
-1.23743
13.5664
-1.47746
18.5737
-1.59426
24.1378
-1.59294
29.5952
-1.47496
28.8072
-1.26892
21.4224
-1.02999
15.0482
-0.790607
10.0109
-0.562852
6.26355
-0.364167
3.60688
-0.20403
1.81195
-0.109389
0.716799
-0.0445576
0.14694
-0.196405
-0.10839
1.07293
-0.264265
2.13045
-0.447098
3.204
-0.660586
4.80781
-0.897018
6.99356
-1.15198
9.94665
-1.41667
13.8311
-1.67989
18.8369
-1.79362
24.2515
-1.78914
29.5908
-1.65409
28.6722
-1.41213
21.1805
-1.13572
14.7717
-0.865622
9.74082
-0.614067
6.012
-0.395232
3.38804
-0.211415
1.62813
-0.1177
0.623084
-0.0480747
0.0773141
-0.244479
-0.141816
1.21475
-0.336635
2.32527
-0.54909
3.41645
-0.784296
5.04302
-1.04345
7.25271
-1.33435
10.2375
-1.64762
14.1443
-1.93
19.1193
-2.03612
24.3576
-2.02157
29.5762
-1.8549
28.5055
-1.57229
20.8979
-1.25719
14.4566
-0.946196
9.42983
-0.669507
5.73531
-0.428199
3.14674
-0.23273
1.43266
-0.13706
0.527414
-0.0562799
-0.00346614
-0.300759
-0.148188
1.36293
-0.349287
2.52636
-0.593358
3.66052
-0.883017
5.33268
-1.20871
7.57841
-1.56513
10.594
-1.92473
14.5039
-2.21109
19.4057
-2.30591
24.4525
-2.27643
29.5467
-2.06298
28.2921
-1.7282
20.5631
-1.36397
14.0924
-1.02142
9.08728
-0.717609
5.43149
-0.459121
2.88825
-0.257789
1.23133
-0.160457
0.430081
-0.0715023
-0.0924204
-0.372262
-0.211723
1.57466
-0.480536
2.79518
-0.770025
3.95001
-1.0992
5.66185
-1.47396
7.95316
-1.87234
10.9923
-2.271
14.9026
-2.55098
19.6857
-2.62634
24.5278
-2.57419
29.4946
-2.29701
28.0149
-1.89247
20.1585
-1.46668
13.6666
-1.07097
8.69157
-0.735323
5.09584
-0.473212
2.62614
-0.294453
1.05257
-0.205217
0.340845
-0.0908646
-0.206773
-0.463126
-0.236043
1.8107
-0.498897
3.05803
-0.864736
4.31585
-1.31173
6.10884
-1.78118
8.42261
-2.24222
11.4534
-2.68164
15.342
-2.94245
19.9465
-2.99612
24.5815
-2.90345
29.4019
-2.53353
27.645
-2.03743
19.6624
-1.54981
13.179
-1.11225
8.25402
-0.745475
4.72907
-0.469056
2.34972
-0.315913
0.899429
-0.23059
0.255522
-0.104672
-0.332691
-0.567798
-0.391788
2.20249
-0.860189
3.52643
-1.33196
4.78762
-1.80149
6.57837
-2.26761
8.88874
-2.74082
11.9266
-3.18308
15.7843
-3.39649
20.1599
-3.42091
24.6059
-3.24922
29.2302
-2.77915
27.1749
-2.20356
19.0868
-1.63481
12.6103
-1.12024
7.73944
-0.697977
4.30681
-0.398489
2.05023
-0.24464
0.745579
-0.156643
0.167525
-0.0733255
-0.416009
-0.641123
-0.304688
2.50718
-0.68171
3.90345
-1.06509
5.171
-1.51112
7.0244
-2.02938
9.407
-2.59658
12.4938
-3.13547
16.3232
-3.45464
20.479
-3.65979
24.8111
-3.6455
29.2159
-3.22007
26.7495
-2.5865
18.4533
-1.90287
11.9266
-1.26247
7.09904
-0.720078
3.76442
-0.308609
1.63876
-0.118026
0.554997
-0.037995
0.0874945
-0.0405971
-0.413407
-0.681721
-0.176626
2.6838
-0.445629
4.17246
-0.765792
5.49117
-1.11062
7.36923
-1.48258
9.77896
-1.87549
12.8867
-2.25133
16.699
-2.4775
20.7052
-2.621
24.9545
-2.55047
29.1454
-2.16163
26.3606
-1.62593
17.9176
-1.11049
11.4112
-0.654823
6.64337
-0.308965
3.41856
-0.0723283
1.40212
0.0270293
0.455639
0.0600963
0.0544274
0.0215664
-0.374877
-0.660154
-0.105291
2.78909
-0.246053
4.31322
-0.454167
5.69928
-0.710249
7.62531
-1.01301
10.0817
-1.31278
13.1865
-1.56174
16.948
-1.7183
20.8618
-1.79982
25.0361
-1.68568
29.0313
-1.3544
26.0294
-0.945753
17.5089
-0.558942
11.0244
-0.2677
6.35213
-0.0921518
3.24302
0.012537
1.29743
0.056893
0.411283
0.0719584
0.0393621
0.036809
-0.339728
-0.623345
-0.0840551
2.87315
-0.225331
4.4545
-0.386778
5.86073
-0.557961
7.7965
-0.710523
10.2343
-0.883834
13.3598
-1.0438
17.1079
-1.15459
20.9726
-1.17933
25.0608
-1.04105
28.893
-0.769211
25.7575
-0.470325
17.21
-0.227235
10.7813
-0.0161013
6.141
0.125972
3.10094
0.161512
1.26189
0.158435
0.41436
0.112311
0.0854866
0.0413432
-0.26876
-0.582002
-0.0413691
2.91452
-0.099297
4.51242
-0.196816
5.95825
-0.312508
7.91219
-0.441191
10.363
-0.568551
13.4871
-0.669911
17.2093
-0.730503
21.0332
-0.71086
25.0412
-0.568468
28.7506
-0.34014
25.5292
-0.126292
16.9962
0.0859664
10.569
0.206061
6.0209
0.237267
3.06974
0.21502
1.28414
0.162576
0.466804
0.106804
0.141258
0.0480991
-0.210055
-0.533903
0.010615
2.9039
-0.0970079
4.62005
-0.204378
6.06562
-0.240352
7.94816
-0.281589
10.4042
-0.343913
13.5495
-0.40031
17.2657
-0.42213
21.055
-0.372318
24.9913
-0.222425
28.6007
-0.023707
25.3305
0.155111
16.8174
0.265755
10.4584
0.3334
5.95326
0.348597
3.05454
0.289245
1.34349
0.213936
0.542113
0.138797
0.216397
0.0511548
-0.122412
-0.482748
0.0289003
2.875
-0.0180141
4.66696
-0.0391747
6.08678
-0.0768899
7.98588
-0.135599
10.4629
-0.179816
13.5937
-0.208169
17.2941
-0.203981
21.0508
-0.134102
24.9215
0.0272166
28.4394
0.203587
25.1541
0.337071
16.6839
0.415374
10.3801
0.414135
5.95449
0.399496
3.06918
0.344337
1.39865
0.245925
0.640525
0.143558
0.318765
0.0485484
-0.027403
-0.4342
0.0123654
2.86264
-0.0322448
4.71157
-0.0565226
6.11106
-0.0583645
7.98772
-0.0616596
10.4662
-0.0640622
13.5961
-0.0668496
17.2968
-0.0491861
21.0331
0.0249361
24.8473
0.157817
28.3065
0.328986
24.9829
0.439446
16.5734
0.504949
10.3146
0.506938
5.95251
0.435144
3.14097
0.321054
1.51274
0.213795
0.747784
0.119511
0.413049
0.0376342
0.0544738
-0.396565
0.0559971
2.80664
0.0649103
4.70266
0.0501497
6.12582
0.0196825
8.01819
0.00851143
10.4774
0.0177217
13.5869
0.0254616
17.2891
0.047252
21.0113
0.118982
24.7756
0.244413
28.1811
0.394346
24.833
0.497499
16.4703
0.547403
10.2647
0.508941
5.99097
0.456116
3.1938
0.362398
1.60646
0.238926
0.871257
0.122874
0.5291
0.0301315
0.147216
-0.366434
0.0518369
2.7548
0.0284551
4.72604
0.0325007
6.12177
0.0201135
8.03058
0.0333079
10.4642
0.0555191
13.5647
0.0729338
17.2717
0.107109
20.9772
0.177419
24.7053
0.294519
28.064
0.430539
24.697
0.520718
16.3801
0.553676
10.2317
0.525855
6.01879
0.428772
3.29088
0.315357
1.71987
0.208178
0.978436
0.10682
0.630458
0.0212121
0.232825
-0.345222
0.0637954
2.69101
0.0944037
4.69543
0.088174
6.128
0.0694315
8.04932
0.0620138
10.4716
0.0821672
13.5445
0.104409
17.2494
0.142746
20.9388
0.209462
24.6386
0.318454
27.955
0.443179
24.5723
0.518649
16.3046
0.53944
10.2109
0.499396
6.05883
0.441546
3.34873
0.331832
1.82959
0.195423
1.11485
0.081745
0.744136
0.00870075
0.305869
-0.336521
0.0576582
2.63335
0.0670727
4.68602
0.0690627
6.12601
0.0690759
8.0493
0.0757482
10.4649
0.0992442
13.521
0.125253
17.2234
0.163231
20.9009
0.225035
24.5768
0.325156
27.8549
0.438832
24.4586
0.495689
16.2478
0.501822
10.2048
0.466117
6.09454
0.374907
3.43994
0.276184
1.92831
0.18385
1.20718
0.082671
0.845315
0.00923563
0.379304
-0.327285
0.0622916
2.57106
0.0925692
4.65574
0.0998281
6.11875
0.0987841
8.05035
0.0932863
10.4704
0.110065
13.5042
0.136067
17.1974
0.173203
20.8637
0.23083
24.5192
0.319974
27.7657
0.414077
24.3645
0.454182
16.2077
0.454457
10.2045
0.425551
6.12344
0.3786
3.48689
0.267975
2.03894
0.133524
1.34163
0.0385954
0.940243
-0.000139496
0.418039
-0.327425
0.054706
2.51635
0.0658889
4.64456
0.0746982
6.10994
0.0879991
8.03705
0.100658
10.4578
0.116965
13.4879
0.142926
17.1715
0.179042
20.8276
0.23191
24.4663
0.307583
27.69
0.376395
24.2957
0.403548
16.1805
0.396352
10.2117
0.361721
6.15808
0.288488
3.56013
0.197335
2.13009
0.112245
1.42672
0.0251517
1.02734
-0.00556047
0.448751
-0.332985
0.0524157
2.46394
0.0756141
4.62136
0.0868396
6.09872
0.0972443
8.02664
0.105135
10.4499
0.120515
13.4725
0.145866
17.1461
0.181166
20.7923
0.22954
24.4179
0.289832
27.6298
0.333049
24.2524
0.346474
16.1671
0.332733
10.2255
0.311021
6.17979
0.270758
3.60039
0.177615
2.22323
0.0567641
1.54757
-0.0283778
1.11248
-0.0185314
0.438905
-0.351517
0.0411267
2.42281
0.0504168
4.61207
0.0619387
6.08719
0.078301
8.01028
0.098922
10.4293
0.121159
13.4503
0.147444
17.1198
0.182099
20.7576
0.225272
24.3747
0.26917
27.5859
0.289834
24.2318
0.289791
16.1671
0.270329
10.2449
0.241253
6.20886
0.184265
3.65738
0.10388
2.30362
0.0200233
1.63143
-0.0514878
1.18399
-0.0312205
0.418637
-0.382737
0.0383086
2.3845
0.0546368
4.59574
0.0658543
6.07598
0.0772711
7.99886
0.0946223
10.4119
0.119848
13.4251
0.147202
17.0925
0.180438
20.7244
0.21822
24.337
0.246903
27.5572
0.249001
24.2297
0.234929
16.1812
0.20676
10.2731
0.183277
6.23235
0.144098
3.69656
0.0687647
2.37895
-0.00291664
1.70311
-0.0496219
1.23069
-0.0367462
0.405762
-0.419483
0.0274084
2.35709
0.0341545
4.58899
0.0456068
6.06452
0.0609943
7.98348
0.0857777
10.3871
0.115171
13.3957
0.144886
17.0628
0.177584
20.6917
0.209687
24.3049
0.225161
27.5417
0.213016
24.2418
0.185214
16.209
0.148054
10.3102
0.113824
6.26658
0.0622537
3.74813
0.0101916
2.43101
-0.0396717
1.75297
-0.0401017
1.23112
0.00121802
0.364442
-0.418265
0.0251789
2.33191
0.0349587
4.57921
0.0474831
6.052
0.0592657
7.97169
0.080627
10.3658
0.110091
13.3662
0.140929
17.0319
0.172509
20.6601
0.199434
24.2779
0.204328
27.5368
0.181655
24.2645
0.140453
16.2502
0.0894304
10.3613
0.0519693
6.30404
-0.0010343
3.80113
-0.0490478
2.47902
-0.0585913
1.76252
-0.0168792
1.18941
0.0729961
0.274567
-0.345269
0.0158895
2.31602
0.0214684
4.57364
0.0326674
6.0408
0.0477102
7.95665
0.0732357
10.3402
0.103986
13.3355
0.136309
16.9996
0.166587
20.6299
0.188532
24.256
0.186891
27.5384
0.155864
24.2955
0.100832
16.3052
0.0373149
10.4248
-0.0168292
6.35818
-0.089503
3.8738
-0.141445
2.53097
-0.113213
1.73428
0.100513
0.975686
0.271312
0.103768
-0.0739577
0.0149428
2.30108
0.0230845
4.56549
0.0344369
6.02945
0.0481487
7.94294
0.0701726
10.3182
0.0999603
13.3057
0.133596
16.966
0.163218
20.6002
0.182884
24.2363
0.17982
27.5415
0.140636
24.3347
0.0696437
16.3762
-0.014121
10.5085
-0.0847074
6.42877
-0.165342
3.95444
-0.23974
2.60537
-0.264456
1.759
-0.248678
0.959908
-0.595343
0.450433
0.718448
-1.38775
0.00647422
2.29461
0.0144297
4.55754
0.0239878
6.01989
0.0414566
7.92547
0.0658914
10.2938
0.095344
13.2762
0.128895
16.9324
0.156858
20.5723
0.173892
24.2193
0.168058
27.5473
0.121204
24.3816
0.036036
16.4614
-0.0599748
10.6046
-0.167939
6.53673
-0.339318
4.12582
-0.547516
2.81356
-0.665058
1.87654
-0.85907
1.15392
-1.48693
1.07829
1.21007
-1.97854
0.00675536
2.28785
0.0168731
4.54742
0.0264237
6.01034
0.0441344
7.90776
0.0653214
10.2726
0.0920759
13.2495
0.124575
16.8999
0.151243
20.5456
0.166259
24.2043
0.157582
27.556
0.103114
24.436
-0.0006646
16.5652
-0.113956
10.7178
-0.262217
6.68499
-0.452787
4.31639
-0.652921
3.0137
-0.824447
2.04807
-1.29612
1.62559
-1.83624
1.61841
1.45151
-2.07768
0.00116404
2.28669
0.0114798
4.5371
0.0195869
6.00223
0.0403507
7.887
0.0637825
10.2492
0.0899496
13.2233
0.12157
16.8683
0.147118
20.5201
0.160564
24.1908
0.149029
27.5676
0.0881684
24.4969
-0.0228258
16.6762
-0.162384
10.8574
-0.347183
6.86979
-0.641586
4.61079
-0.939987
3.3121
-1.25611
2.36419
-1.66507
2.03455
-1.9544
1.90774
1.59317
-2.09606
0.00354356
2.28314
0.0136679
4.52698
0.0234193
5.99248
0.0435193
7.8669
0.0650966
10.2276
0.0898602
13.1985
0.120112
16.838
0.144441
20.4957
0.156585
24.1787
0.142223
27.5819
0.0752275
24.5639
-0.0458477
16.7973
-0.209709
11.0213
-0.438905
7.09899
-0.722782
4.89467
-0.940764
3.53008
-1.29368
2.7171
-1.72
2.46087
-1.97023
2.15798
1.75123
-2.1283
0.00200017
2.28114
0.0112176
4.51776
0.021307
5.98239
0.0425189
7.84568
0.0676714
10.2024
0.0944913
13.1717
0.124527
16.808
0.147734
20.4725
0.158384
24.168
0.140109
27.6002
0.0653801
24.6386
-0.0672728
16.9299
-0.245014
11.199
-0.490129
7.3441
-0.800058
5.2046
-1.16919
3.89921
-1.60003
3.14793
-1.92885
2.78969
-2.1179
2.34703
1.86404
-2.23071
0.00750385
2.27364
0.0166709
4.5086
0.0299577
5.96911
0.0501351
7.82551
0.0746949
10.1779
0.102275
13.1442
0.131838
16.7784
0.153817
20.4505
0.162641
24.1592
0.139594
27.6232
0.0565313
24.7217
-0.0870066
17.0734
-0.275483
11.3875
-0.551727
7.62035
-0.885962
5.53883
-1.2087
4.22195
-1.55751
3.49675
-1.87799
3.11017
-2.06809
2.53714
2.04128
-2.24533
0.00789502
2.26574
0.0170033
4.49949
0.0295552
5.95655
0.0511429
7.80392
0.0786514
10.1504
0.108195
13.1146
0.137904
16.7487
0.159208
20.4292
0.166516
24.1519
0.139117
27.6506
0.0492881
24.8115
-0.101196
17.2239
-0.294302
11.5806
-0.576759
7.9028
-0.921418
5.88349
-1.2737
4.57423
-1.67612
3.89917
-2.0857
3.51975
-2.40064
2.85208
2.28994
-2.64931
0.0159331
2.24981
0.0264783
4.48894
0.041589
5.94144
0.0607679
7.78474
0.0860167
10.1251
0.115097
13.0855
0.144225
16.7196
0.164643
20.4088
0.170178
24.1464
0.138628
27.6822
0.0442499
24.9059
-0.108967
17.3771
-0.303871
11.7755
-0.588915
8.18785
-0.957984
6.25256
-1.37279
4.98903
-1.73319
4.25957
-2.09069
3.87726
-2.48464
3.24603
2.4631
-2.65781
0.0148935
2.23492
0.0280188
4.47582
0.0416401
5.92782
0.0630284
7.76335
0.0905538
10.0976
0.121123
13.055
0.150695
16.69
0.17073
20.3888
0.174588
24.1425
0.139597
27.7172
0.0433375
25.0022
-0.108598
17.5291
-0.304032
11.9709
-0.591645
8.47546
-0.927865
6.58878
-1.31992
5.38108
-1.81306
4.75271
-2.10902
4.17322
-2.48289
3.6199
3.03445
-3.05424
0.0262965
2.20862
0.0408036
4.46131
0.0562587
5.91237
0.0749383
7.74467
0.0989125
10.0736
0.127972
13.0259
0.15635
16.6617
0.174687
20.3704
0.176151
24.141
0.138883
27.7544
0.0449608
25.0961
-0.0991117
17.6732
-0.289368
12.1612
-0.548504
8.7346
-0.841002
6.88128
-1.16479
5.70487
-1.50768
5.0956
-1.64792
4.31346
-1.18787
3.15986
1.84658
0.0206821
2.18794
0.0393106
4.44268
0.0556722
5.896
0.0792202
7.72112
0.108539
10.0443
0.141663
12.9928
0.17341
16.6299
0.19314
20.3507
0.194613
24.1396
0.155613
27.7934
0.0590877
25.1926
-0.087231
17.8195
-0.281439
12.3554
-0.530643
8.9838
-0.763274
7.11391
-0.942612
5.88421
-0.933457
5.08645
-0.824102
4.20411
-0.563666
2.89942
1.28291
0.0337881
2.15415
0.0533852
4.42308
0.0737055
5.87568
0.0966107
7.69822
0.125086
10.0158
0.159651
12.9582
0.193664
16.5959
0.214299
20.3301
0.216201
24.1377
0.177458
27.8322
0.0819026
25.2882
-0.061145
17.9625
-0.246984
12.5412
-0.467859
9.20468
-0.638336
7.28439
-0.761426
6.0073
-0.821978
5.147
-0.818298
4.20043
-0.699064
2.78019
0.583847
0.0237567
2.13039
0.048384
4.39846
0.0696039
5.85446
0.0995145
7.66831
0.136076
9.97925
0.176493
12.9178
0.215558
16.5568
0.238889
20.3068
0.243327
24.1332
0.208199
27.8673
0.116415
25.3799
-0.0228363
18.1018
-0.182747
12.7011
-0.373708
9.39564
-0.539787
7.45047
-0.672003
6.13951
-0.76112
5.23611
-0.727787
4.16709
-0.358741
2.41114
0.225106
0.039455
2.09094
0.0634291
4.37448
0.09028
5.82761
0.119939
7.63865
0.156144
9.94304
0.198556
12.8754
0.241094
16.5143
0.267966
20.2799
0.276885
24.1243
0.248119
27.8961
0.163731
25.4643
0.0335922
18.2319
-0.106068
12.8408
-0.297097
9.58667
-0.479961
7.63333
-0.601915
6.26147
-0.63726
5.27146
-0.49508
4.02491
-0.149739
2.0658
0.075367
0.0263173
2.06462
0.0569738
4.34383
0.0835302
5.80106
0.122264
7.59992
0.168905
9.8964
0.218774
12.8255
0.26829
16.4648
0.301721
20.2464
0.318183
24.1078
0.299329
27.9149
0.225536
25.5381
0.110102
18.3473
-0.0337127
12.9846
-0.222989
9.77594
-0.38202
7.79236
-0.478936
6.35838
-0.46717
5.25969
-0.357327
3.91507
-0.140308
1.84878
-0.0649411
0.0460564
2.01857
0.075762
4.31412
0.110696
5.76612
0.148902
7.56171
0.194958
9.85035
0.247517
12.773
0.302263
16.41
0.343028
20.2057
0.368606
24.0823
0.360894
27.9226
0.301369
25.5976
0.19919
18.4495
0.0534548
13.1304
-0.123651
9.95305
-0.260495
7.9292
-0.320396
6.41828
-0.316311
5.25561
-0.245606
3.84436
-0.0694771
1.67265
-0.134418
0.0318549
1.98671
0.0701325
4.27584
0.103782
5.73247
0.153619
7.51187
0.213398
9.79057
0.276283
12.7101
0.3413
16.345
0.392348
20.1546
0.429339
24.0453
0.435684
27.9163
0.393667
25.6397
0.297778
18.5454
0.15315
13.275
-0.0196739
10.1259
-0.117366
8.0269
-0.166308
6.46722
-0.158336
5.24764
-0.103561
3.78959
0.0142182
1.55487
-0.1202
0.0570753
1.92963
0.0953818
4.23754
0.14132
5.68653
0.191278
7.46192
0.251066
9.73078
0.31884
12.6423
0.392093
16.2718
0.453105
20.0936
0.502151
23.9962
0.522439
27.896
0.494813
25.6673
0.407271
18.633
0.263706
13.4185
0.1017
10.2879
0.00718525
8.12141
-0.00412474
6.47853
-0.018025
5.26154
0.00885648
3.76271
0.0569135
1.50682
-0.0632864
0.0424036
1.88723
0.0934593
4.18648
0.139503
5.64049
0.204025
7.39739
0.282511
9.65229
0.36428
12.5605
0.451627
16.1844
0.525561
20.0197
0.588473
23.9333
0.624375
27.8601
0.60727
25.6844
0.526439
18.7138
0.388757
13.5562
0.237692
10.4389
0.144075
8.21503
0.106324
6.51629
0.111835
5.25603
0.11179
3.76275
0.0885188
1.53009
0.0252324
0.0773194
1.80991
0.128916
4.13488
0.191156
5.57825
0.258207
7.33034
0.339759
9.57074
0.429297
12.471
0.527619
16.0861
0.613144
19.9342
0.6899
23.8566
0.739198
27.8108
0.731088
25.6925
0.660254
18.7846
0.52478
13.6917
0.368137
10.5956
0.258906
8.32426
0.203102
6.57209
0.179315
5.27981
0.157281
3.78479
0.100938
1.58643
0.126171
0.0598905
1.75002
0.13625
4.05852
0.204924
5.50958
0.28977
7.2455
0.394388
9.46612
0.501364
12.364
0.617099
15.9704
0.717694
19.8336
0.809267
23.765
0.872387
27.7477
0.873055
25.6918
0.805819
18.8519
0.657922
13.8396
0.486998
10.7665
0.35825
8.45301
0.278475
6.65186
0.243203
5.31509
0.211023
3.81697
0.10016
1.69729
0.226331
0.113752
1.63627
0.188402
3.98387
0.272318
5.42566
0.370325
7.14749
0.481329
9.35512
0.600576
12.2448
0.729763
15.8412
0.843388
19.7199
0.948983
23.6594
1.02215
27.6745
1.02871
25.6853
0.960359
18.9202
0.793934
14.006
0.607244
10.9532
0.47188
8.58837
0.390303
6.73344
0.342564
5.36282
0.275362
3.88417
0.108065
1.86459
0.334396
0.106072
1.5302
0.224465
3.86548
0.326204
5.32392
0.443174
7.03052
0.573564
9.22473
0.713258
12.1051
0.863234
15.6912
0.995313
19.5879
1.11571
23.539
1.19862
27.5916
1.20675
25.6771
1.12796
18.999
0.942317
14.1917
0.747606
11.1479
0.608186
8.72779
0.51423
6.8274
0.446564
5.43049
0.352746
3.97799
0.147392
2.06994
0.481787
0.16056
1.36964
0.301027
3.72501
0.431649
5.1933
0.567032
6.89514
0.711139
9.08062
0.866092
11.9501
1.03077
15.5265
1.17712
19.4415
1.31049
23.4056
1.40059
27.5015
1.40589
25.6718
1.31301
19.0919
1.11079
14.3939
0.904039
11.3547
0.743218
8.88861
0.621641
6.94897
0.528679
5.52345
0.415817
4.09085
0.19224
2.29352
0.674027
0.245089
1.12455
0.42443
3.54567
0.554121
5.06361
0.700894
6.74836
0.871653
8.90986
1.04809
11.7737
1.23591
15.3387
1.40288
19.2745
1.54945
23.2591
1.64669
27.4043
1.64436
25.6742
1.52553
19.2107
1.288
14.6314
1.04355
11.5991
0.838791
9.09338
0.684995
7.10277
0.569286
5.63916
0.444269
4.21586
0.217263
2.52053
0.89129
0.351587
0.77296
0.588088
3.30917
0.763512
4.88819
0.92778
6.5841
1.10367
8.73398
1.28945
11.5879
1.49081
15.1373
1.67507
19.0903
1.83535
23.0988
1.93962
27.3
1.92059
25.6932
1.75715
19.3742
1.46916
14.9194
1.1875
11.8808
0.955798
9.32508
0.779856
7.27871
0.639718
5.7793
0.487049
4.36853
0.236471
2.7711
1.12776
0.531645
0.241315
0.849329
2.99149
1.01493
4.72259
1.19907
6.39996
1.40286
8.53019
1.60026
11.3905
1.81859
14.919
2.02381
18.8851
2.19773
22.9249
2.30842
27.1893
2.25924
25.7424
2.04255
19.5908
1.71506
15.2469
1.40003
12.1958
1.1195
9.60561
0.883967
7.51425
0.690193
5.97307
0.496116
4.56261
0.237081
3.03014
1.36484
0.425565
-0.18425
1.11518
2.30188
1.44215
4.39561
1.61338
6.22873
1.77807
8.3655
1.98187
11.1867
2.2207
14.6802
2.45113
18.6546
2.64526
22.7307
2.76783
27.0668
2.69883
25.8114
2.44916
19.8405
2.10396
15.5921
1.75002
12.5497
1.3978
9.95782
1.08544
7.82661
0.821433
6.23708
0.569085
4.81496
0.265404
3.33382
1.63025
0.321709
-0.505959
1.45911
1.16447
1.91824
3.93649
2.11206
6.03491
2.2871
8.19045
2.48756
10.9862
2.73634
14.4314
2.99835
18.3926
3.22706
22.502
3.39796
26.8959
3.34447
25.8649
3.06695
20.118
2.66802
15.991
2.26023
12.9575
1.8608
10.3573
1.459
8.22841
1.06854
6.62754
0.698821
5.18468
0.316889
3.71575
1.94713
0.272443
-0.778402
1.5837
-0.146785
2.20872
3.31146
2.29544
5.9482
2.31502
8.17086
2.40066
10.9006
2.51799
14.3141
2.62619
18.2844
2.68898
22.4392
2.6848
26.9
2.52252
26.0271
2.23932
20.4012
1.89541
16.3349
1.55152
13.3014
1.23628
10.6725
0.970756
8.49393
0.734198
6.8641
0.496039
5.42284
0.232382
3.97941
2.17952
0.476504
-1.25491
1.0274
-0.697677
1.63262
2.70623
1.73264
5.84818
1.69776
8.20574
1.69699
10.9014
1.76384
14.2472
1.87614
18.1721
1.96942
22.346
2.01102
26.8584
1.92931
26.1089
1.72531
20.6052
1.46899
16.5913
1.21069
13.5597
0.953379
10.9298
0.721622
8.72569
0.522432
7.06329
0.334278
5.61099
0.146169
4.16752
2.32569
0.423723
-1.67863
0.185867
-0.459821
0.32193
2.57017
0.598993
5.57112
0.749732
8.055
0.852005
10.7991
0.989909
14.1093
1.16199
18.0001
1.31207
22.1959
1.41208
26.7584
1.41999
26.1009
1.28937
20.7359
1.09542
16.7852
0.898843
13.7563
0.702033
11.1266
0.522598
8.90513
0.368142
7.21775
0.227873
5.75126
0.0901
4.30529
2.41579
-0.104419
-1.57421
-0.746434
0.182195
-0.997019
2.82076
-0.79282
5.36692
-0.429289
7.69147
-0.0869922
10.4568
0.202669
13.8197
0.466197
17.7365
0.703593
21.9585
0.878096
26.5839
0.976225
26.0028
0.912849
20.7992
0.779889
16.9182
0.639788
13.8964
0.497252
11.2692
0.366415
9.03596
0.251888
7.33227
0.145773
5.85737
0.0458269
4.40524
2.46161
-0.487453
-1.08676
-0.924152
0.618894
-1.24478
3.14138
-1.27171
5.39385
-1.11441
7.53418
-0.840264
10.1827
-0.499134
13.4785
-0.143246
17.3806
0.164466
21.6508
0.412928
26.3355
0.594239
25.8215
0.594003
20.7995
0.520967
16.9912
0.43073
13.9866
0.332614
11.3673
0.240646
9.12793
0.158614
7.41431
0.0784826
5.93751
0.00680527
4.47692
2.46842
-0.452638
-0.63412
-0.923863
1.09012
-1.16768
3.3852
-1.26107
5.48724
-1.27053
7.54364
-1.16572
10.0778
-0.938546
13.2513
-0.618391
17.0605
-0.274389
21.3068
0.0480644
26.013
0.278211
25.5914
0.33475
20.7429
0.311774
17.0142
0.25928
14.0391
0.199526
11.427
0.136589
9.19087
0.0748389
7.47606
0.0226599
5.98969
-0.0233397
4.52291
2.44508
-0.433374
-0.200747
-0.829083
1.48583
-1.07266
3.62877
-1.16957
5.58415
-1.24289
7.61695
-1.24123
10.0762
-1.12627
13.1364
-0.886011
16.8202
-0.579237
21
-0.235862
25.6696
0.037372
25.3181
0.12478
20.6555
0.141843
16.9971
0.117188
14.0638
0.0825682
11.4616
0.0389069
9.23453
0.000938133
7.51402
-0.039046
6.02967
-0.0604013
4.54427
2.38468
-0.33443
0.133684
-0.699036
1.85043
-0.9339
3.86364
-1.06466
5.71491
-1.1381
7.69039
-1.17664
10.1147
-1.15851
13.1183
-0.997508
16.6592
-0.741206
20.7437
-0.410928
25.3393
-0.142102
25.0493
-0.0357401
20.5492
-0.00460026
16.966
0.00933379
14.0498
-0.0161291
11.4871
-0.0430325
9.26143
-0.0716732
7.54267
-0.092995
6.05099
-0.0847121
4.53599
2.29997
-0.304431
0.438115
-0.621921
2.16792
-0.836021
4.07774
-0.986659
5.86555
-1.07852
7.78226
-1.10338
10.1396
-1.08314
13.098
-0.993185
16.5693
-0.800927
20.5514
-0.506061
25.0445
-0.262203
24.8054
-0.150117
20.4371
-0.103447
16.9193
-0.0887343
14.0351
-0.0884717
11.4868
-0.104967
9.27793
-0.11962