/*--------------------------------*- C++ -*----------------------------------*\
| =========                 |                                                 |
| \\      /  F ield         | OpenFOAM: The Open Source CFD Toolbox           |
|  \\    /   O peration     | Version:  2412                                  |
|   \\  /    A nd           | Website:  www.openfoam.com                      |
|    \\/     M anipulation  |                                                 |
\*---------------------------------------------------------------------------*/
FoamFile
{
    version     2.0;
    format      ascii;
    arch        "LSB;label=32;scalar=64";
    class       volVectorField;
    location    "9.75";
    object      U;
}
// * * * * * * * * * * * * * * * * * * * * * * * * * * * * * * * * * * * * * //

dimensions      [0 1 -1 0 0 0 0];

internalField   nonuniform List<vector> 
2200
(
(0.381699 0.000507754 0)
(1.1951 0.00173656 0)
(2.12311 0.00285552 0)
(3.16889 0.00404237 0)
(4.32425 0.00562418 0)
(5.57015 0.00688209 0)
(6.86152 0.00825406 0)
(8.11783 0.00918899 0)
(9.20442 0.00997323 0)
(9.90028 0.00970142 0)
(9.9009 0.0103968 0)
(9.20743 0.0102124 0)
(8.12024 0.00992935 0)
(6.86615 0.00937175 0)
(5.5736 0.00654257 0)
(4.32678 0.00568142 0)
(3.16764 0.00430303 0)
(2.12168 0.00306563 0)
(1.19277 0.00199012 0)
(0.377777 0.000967196 0)
(0.387279 0.00110212 0)
(1.2009 0.00378308 0)
(2.12905 0.00734401 0)
(3.17505 0.0111649 0)
(4.33266 0.0150484 0)
(5.57913 0.0193778 0)
(6.87108 0.0232098 0)
(8.12755 0.0277936 0)
(9.21187 0.0315857 0)
(9.9016 0.0347024 0)
(9.90086 0.032637 0)
(9.20404 0.0309407 0)
(8.1187 0.0262363 0)
(6.85714 0.0216219 0)
(5.56454 0.0202932 0)
(4.31733 0.0156983 0)
(3.16224 0.0115374 0)
(2.11483 0.0084576 0)
(1.18327 0.00474773 0)
(0.370634 0.00131524 0)
(0.39903 0.00175597 0)
(1.2139 0.00572669 0)
(2.14095 0.0113052 0)
(3.18491 0.0181472 0)
(4.34007 0.0253762 0)
(5.58428 0.0324864 0)
(6.87319 0.0393039 0)
(8.12686 0.0450491 0)
(9.21332 0.0512807 0)
(9.90013 0.0532043 0)
(9.89799 0.0534192 0)
(9.20092 0.0494055 0)
(8.11026 0.0459947 0)
(6.85308 0.0411804 0)
(5.5583 0.0319709 0)
(4.30888 0.0251043 0)
(3.14787 0.0191274 0)
(2.0994 0.0121723 0)
(1.16797 0.00607602 0)
(0.360057 0.00112 0)
(0.4138 0.00257932 0)
(1.2324 0.0082568 0)
(2.16165 0.0167122 0)
(3.20619 0.0256449 0)
(4.36125 0.0354274 0)
(5.60409 0.0447208 0)
(6.89167 0.0539918 0)
(8.14309 0.0636671 0)
(9.22559 0.0722848 0)
(9.90157 0.0774533 0)
(9.89739 0.0744777 0)
(9.19348 0.0711693 0)
(8.10158 0.0619065 0)
(6.83507 0.0510169 0)
(5.53834 0.0446062 0)
(4.28909 0.0344279 0)
(3.1306 0.0241351 0)
(2.08057 0.0153174 0)
(1.14932 0.00745446 0)
(0.346481 0.00127817 0)
(0.436389 0.00327105 0)
(1.25991 0.0107989 0)
(2.18527 0.0209965 0)
(3.22738 0.0315913 0)
(4.37724 0.0446805 0)
(5.61721 0.0572867 0)
(6.90116 0.0692422 0)
(8.14851 0.0803401 0)
(9.23322 0.0918722 0)
(9.90013 0.0963524 0)
(9.89173 0.0958153 0)
(9.18513 0.0883796 0)
(8.08754 0.080599 0)
(6.82509 0.0709167 0)
(5.52517 0.0543135 0)
(4.27102 0.0413702 0)
(3.10708 0.0292032 0)
(2.05722 0.018519 0)
(1.12436 0.00869602 0)
(0.33038 0.00124718 0)
(0.462639 0.0038052 0)
(1.29288 0.0123242 0)
(2.21841 0.0268308 0)
(3.25837 0.0405269 0)
(4.41428 0.0540551 0)
(5.65005 0.0701505 0)
(6.92936 0.0849596 0)
(8.17161 0.0995076 0)
(9.25014 0.11331 0)
(9.90208 0.120485 0)
(9.89081 0.116771 0)
(9.1754 0.110723 0)
(8.07308 0.0964762 0)
(6.798 0.0785766 0)
(5.49523 0.0665766 0)
(4.24241 0.0497727 0)
(3.08029 0.0350806 0)
(2.02584 0.0213988 0)
(1.09524 0.0098103 0)
(0.312932 0.0016726 0)
(0.495311 0.00447999 0)
(1.33926 0.0147805 0)
(2.26532 0.0301025 0)
(3.30149 0.0472839 0)
(4.43848 0.0663605 0)
(5.67125 0.0817076 0)
(6.94618 0.0993221 0)
(8.18305 0.116329 0)
(9.2636 0.133508 0)
(9.90063 0.140554 0)
(9.88295 0.138711 0)
(9.1616 0.128008 0)
(8.05293 0.114195 0)
(6.78268 0.0989489 0)
(5.47569 0.0759079 0)
(4.21364 0.0580482 0)
(3.04257 0.0407649 0)
(1.98884 0.0249749 0)
(1.05957 0.0121267 0)
(0.290457 0.00271314 0)
(0.527453 0.00404926 0)
(1.37126 0.0166229 0)
(2.29608 0.0331484 0)
(3.33665 0.0515059 0)
(4.48849 0.071598 0)
(5.71623 0.0967029 0)
(6.98406 0.117052 0)
(8.21421 0.137128 0)
(9.28593 0.156458 0)
(9.90399 0.165599 0)
(9.8819 0.160519 0)
(9.15056 0.150401 0)
(8.03434 0.131601 0)
(6.74659 0.107401 0)
(5.43432 0.0887088 0)
(4.17548 0.0663578 0)
(3.00917 0.047024 0)
(1.95014 0.0302126 0)
(1.01722 0.0137404 0)
(0.262064 0.00384803 0)
(0.569842 0.0034653 0)
(1.4369 0.0177214 0)
(2.35958 0.0366224 0)
(3.38622 0.0576737 0)
(4.51987 0.0842639 0)
(5.74658 0.106369 0)
(7.01177 0.132391 0)
(8.2347 0.155482 0)
(9.30515 0.178515 0)
(9.90335 0.187764 0)
(9.87263 0.183697 0)
(9.13063 0.169556 0)
(8.00525 0.149298 0)
(6.72354 0.128219 0)
(5.40734 0.0999853 0)
(4.1353 0.0764548 0)
(2.95558 0.0551516 0)
(1.89555 0.0351212 0)
(0.966947 0.0152109 0)
(0.228336 0.00525006 0)
(0.601571 0.00376299 0)
(1.47981 0.0200861 0)
(2.4052 0.0383385 0)
(3.44478 0.0642117 0)
(4.58419 0.0902528 0)
(5.79903 0.122586 0)
(7.05324 0.14854 0)
(8.27045 0.176716 0)
(9.33206 0.203388 0)
(9.90776 0.21485 0)
(9.87027 0.208086 0)
(9.11702 0.193306 0)
(7.98217 0.169474 0)
(6.67778 0.139496 0)
(5.35088 0.113406 0)
(4.08209 0.0855126 0)
(2.9092 0.0603599 0)
(1.84799 0.0380888 0)
(0.917706 0.0166699 0)
(0.189555 0.006282 0)
(0.656895 0.00420271 0)
(1.56513 0.0238899 0)
(2.48717 0.0466737 0)
(3.50077 0.0726339 0)
(4.62725 0.104747 0)
(5.84477 0.133649 0)
(7.09563 0.169539 0)
(8.3042 0.19893 0)
(9.3565 0.22863 0)
(9.90772 0.240565 0)
(9.85907 0.233872 0)
(9.08896 0.216155 0)
(7.94053 0.189647 0)
(6.64164 0.161116 0)
(5.31506 0.125943 0)
(4.03444 0.0938581 0)
(2.84998 0.0643486 0)
(1.78913 0.0393055 0)
(0.864769 0.0156154 0)
(0.147251 0.00642861 0)
(0.696884 0.00596787 0)
(1.61969 0.0289561 0)
(2.5521 0.0515293 0)
(3.58262 0.0848853 0)
(4.70531 0.116483 0)
(5.9043 0.154499 0)
(7.14329 0.185704 0)
(8.34277 0.223332 0)
(9.38624 0.25756 0)
(9.91188 0.271273 0)
(9.85308 0.263402 0)
(9.06919 0.243707 0)
(7.90903 0.212797 0)
(6.58458 0.174918 0)
(5.23997 0.139302 0)
(3.96234 0.101726 0)
(2.78587 0.0677267 0)
(1.72689 0.0369348 0)
(0.816364 0.0134865 0)
(0.109283 0.00589647 0)
(0.781019 0.0076814 0)
(1.73362 0.0357903 0)
(2.6351 0.0696708 0)
(3.64223 0.0938878 0)
(4.75991 0.131108 0)
(5.96186 0.167466 0)
(7.19212 0.21234 0)
(8.38701 0.249245 0)
(9.41281 0.286281 0)
(9.91031 0.302162 0)
(9.83744 0.293925 0)
(9.03085 0.272504 0)
(7.85294 0.237665 0)
(6.53135 0.198534 0)
(5.1916 0.152766 0)
(3.89894 0.111342 0)
(2.70566 0.0708786 0)
(1.64473 0.0344146 0)
(0.76932 0.0119477 0)
(0.0742503 0.00544539 0)
(0.843208 0.0096165 0)
(1.81365 0.0383824 0)
(2.72972 0.071906 0)
(3.74297 0.116855 0)
(4.84897 0.148039 0)
(6.03365 0.19336 0)
(7.25529 0.234712 0)
(8.4334 0.281316 0)
(9.44505 0.32226 0)
(9.91248 0.338384 0)
(9.82506 0.330758 0)
(9.00064 0.306043 0)
(7.80793 0.265754 0)
(6.45884 0.216672 0)
(5.09299 0.169463 0)
(3.79981 0.120738 0)
(2.61465 0.0735396 0)
(1.56344 0.0353749 0)
(0.727265 0.0131798 0)
(0.0433503 0.00493638 0)
(0.953771 0.0114069 0)
(1.95164 0.0459002 0)
(2.81941 0.0900143 0)
(3.81589 0.119578 0)
(4.92292 0.170526 0)
(6.10203 0.213362 0)
(7.30687 0.264014 0)
(8.48679 0.311728 0)
(9.47415 0.356881 0)
(9.90891 0.37706 0)
(9.80266 0.368412 0)
(8.95119 0.342479 0)
(7.73791 0.296922 0)
(6.38723 0.245606 0)
(5.02764 0.186783 0)
(3.7205 0.132145 0)
(2.51964 0.0829971 0)
(1.46752 0.0420242 0)
(0.671581 0.0167834 0)
(0.00748573 0.00496422 0)
(1.04548 0.0109676 0)
(2.08178 0.047547 0)
(2.94785 0.0923598 0)
(3.94726 0.147692 0)
(5.03478 0.189203 0)
(6.20124 0.247924 0)
(7.3982 0.300566 0)
(8.55197 0.354584 0)
(9.51187 0.403153 0)
(9.91019 0.423052 0)
(9.78393 0.414374 0)
(8.90989 0.382279 0)
(7.67857 0.330235 0)
(6.30106 0.267186 0)
(4.91337 0.207078 0)
(3.60236 0.149101 0)
(2.406 0.0967768 0)
(1.36849 0.0507272 0)
(0.611487 0.0218564 0)
(-0.0316585 0.00573471 0)
(1.15931 0.0166395 0)
(2.21885 0.0526568 0)
(3.05274 0.105423 0)
(4.03537 0.149756 0)
(5.13117 0.214354 0)
(6.28842 0.270516 0)
(7.46585 0.333489 0)
(8.62331 0.396792 0)
(9.5489 0.450962 0)
(9.90878 0.473767 0)
(9.75815 0.46127 0)
(8.85355 0.425936 0)
(7.60011 0.366538 0)
(6.21657 0.298914 0)
(4.83442 0.225167 0)
(3.51406 0.163121 0)
(2.30335 0.110409 0)
(1.25925 0.057826 0)
(0.527875 0.0280756 0)
(-0.0892859 0.00690684 0)
(1.30169 0.0128624 0)
(2.39819 0.0594899 0)
(3.21997 0.108351 0)
(4.20824 0.172846 0)
(5.27234 0.237742 0)
(6.41416 0.312638 0)
(7.57925 0.381473 0)
(8.7114 0.451301 0)
(9.59474 0.512138 0)
(9.91457 0.53474 0)
(9.73734 0.518047 0)
(8.80161 0.472262 0)
(7.52503 0.404943 0)
(6.11397 0.327548 0)
(4.69932 0.248853 0)
(3.37445 0.177367 0)
(2.17651 0.122477 0)
(1.14469 0.0600886 0)
(0.444168 0.0308989 0)
(-0.152115 0.00833876 0)
(1.40593 0.0196072 0)
(2.53286 0.0611355 0)
(3.34603 0.131604 0)
(4.32915 0.186419 0)
(5.40998 0.267438 0)
(6.53787 0.347719 0)
(7.6804 0.427649 0)
(8.80412 0.510914 0)
(9.63969 0.576497 0)
(9.9179 0.600132 0)
(9.70942 0.578258 0)
(8.73471 0.52687 0)
(7.42779 0.449085 0)
(6.00459 0.361268 0)
(4.59478 0.272163 0)
(3.25501 0.191643 0)
(2.05028 0.126028 0)
(1.02852 0.0603702 0)
(0.349893 0.0335246 0)
(-0.225521 0.00892735 0)
(1.61003 0.0201008 0)
(2.78503 0.0784322 0)
(3.57794 0.144811 0)
(4.54713 0.222082 0)
(5.5783 0.306874 0)
(6.68517 0.395767 0)
(7.81003 0.487916 0)
(8.91682 0.58254 0)
(9.69159 0.655865 0)
(9.92565 0.679281 0)
(9.67991 0.651011 0)
(8.66223 0.587201 0)
(7.32719 0.49859 0)
(5.87197 0.403488 0)
(4.42657 0.300495 0)
(3.08602 0.205689 0)
(1.89414 0.128953 0)
(0.916638 0.0610522 0)
(0.259385 0.0337551 0)
(-0.298853 0.0103926 0)
(1.74025 0.0262842 0)
(2.93698 0.0787243 0)
(3.72361 0.164628 0)
(4.70391 0.24379 0)
(5.7603 0.348442 0)
(6.84855 0.453644 0)
(7.94962 0.554291 0)
(9.02824 0.663486 0)
(9.73521 0.741408 0)
(9.92475 0.7649 0)
(9.63822 0.730538 0)
(8.57131 0.657796 0)
(7.19437 0.555173 0)
(5.72067 0.441497 0)
(4.27695 0.33374 0)
(2.92279 0.223142 0)
(1.73061 0.134717 0)
(0.805996 0.0639905 0)
(0.166725 0.0368458 0)
(-0.377599 0.0114135 0)
(2.01816 0.0278401 0)
(3.26785 0.108312 0)
(4.03986 0.205339 0)
(4.99406 0.295358 0)
(5.97407 0.408387 0)
(7.03663 0.520177 0)
(8.10469 0.639654 0)
(9.16195 0.766056 0)
(9.78288 0.846829 0)
(9.92278 0.86675 0)
(9.58602 0.82351 0)
(8.46599 0.737332 0)
(7.06117 0.617814 0)
(5.55666 0.492968 0)
(4.07885 0.360464 0)
(2.72425 0.244657 0)
(1.52458 0.142297 0)
(0.683778 0.0753083 0)
(0.0529042 0.0414236 0)
(-0.468152 0.0150176 0)
(2.20171 0.0402815 0)
(3.47681 0.101481 0)
(4.23642 0.216693 0)
(5.18363 0.329615 0)
(6.19936 0.470876 0)
(7.24039 0.603289 0)
(8.28388 0.744169 0)
(9.29086 0.885764 0)
(9.8172 0.964828 0)
(9.90857 0.979467 0)
(9.51557 0.923737 0)
(8.33813 0.819065 0)
(6.88601 0.679602 0)
(5.36077 0.532252 0)
(3.89038 0.393844 0)
(2.51754 0.257032 0)
(1.34033 0.154907 0)
(0.581772 0.0841534 0)
(-0.0640409 0.0514378 0)
(-0.572494 0.0195706 0)
(2.59876 0.0414397 0)
(3.91187 0.161271 0)
(4.64597 0.287557 0)
(5.56698 0.413026 0)
(6.48807 0.566798 0)
(7.48539 0.720189 0)
(8.4886 0.882644 0)
(9.42948 1.03444 0)
(9.85285 1.10739 0)
(9.89092 1.11292 0)
(9.43043 1.03741 0)
(8.18912 0.911531 0)
(6.70666 0.743744 0)
(5.15784 0.570248 0)
(3.66032 0.40352 0)
(2.30504 0.265135 0)
(1.13454 0.162728 0)
(0.462534 0.105406 0)
(-0.198319 0.0654152 0)
(-0.701092 0.0248225 0)
(2.8699 0.0645884 0)
(4.2022 0.15015 0)
(4.91505 0.31169 0)
(5.81926 0.473031 0)
(6.76814 0.678279 0)
(7.74199 0.861004 0)
(8.72416 1.05418 0)
(9.55834 1.20947 0)
(9.87003 1.26994 0)
(9.85802 1.26104 0)
(9.31993 1.15886 0)
(8.0106 0.99903 0)
(6.48168 0.800056 0)
(4.90991 0.596809 0)
(3.42353 0.413589 0)
(2.06802 0.266556 0)
(0.962073 0.163212 0)
(0.351948 0.121497 0)
(-0.403829 0.076195 0)
(-0.908005 0.0212883 0)
(3.48545 0.0910395 0)
(4.76445 0.267445 0)
(5.45142 0.470621 0)
(6.31666 0.671738 0)
(7.15999 0.877662 -1.35255e-32)
(8.05005 1.06673 4.94573e-33)
(8.97957 1.2746 0)
(9.67943 1.41778 0)
(9.88431 1.46171 0)
(9.81657 1.43292 0)
(9.18983 1.29391 0)
(7.80602 1.09626 0)
(6.24332 0.853924 0)
(4.65155 0.614975 0)
(3.14017 0.399325 0)
(1.82541 0.241402 0)
(0.80127 0.12989 0)
(0.22716 0.0909879 0)
(-0.582341 0.0603494 0)
(-1.08637 -0.00285575 0)
(4.09335 0.220523 -1.53076e-18)
(5.21764 0.37672 1.27445e-18)
(5.82835 0.628223 0)
(6.65253 0.847848 -7.39534e-19)
(7.47535 1.09295 5.99407e-19)
(8.34901 1.3166 -5.23996e-33)
(9.24442 1.54095 0)
(9.76627 1.66119 -9.23694e-20)
(9.88399 1.69169 1.64454e-19)
(9.74085 1.63714 -5.91944e-21)
(9.00384 1.45314 0)
(7.51964 1.20159 -2.51408e-19)
(5.88992 0.91234 -3.224e-19)
(4.25544 0.628099 5.59153e-19)
(2.76812 0.390908 -4.53334e-19)
(1.51701 0.191361 0)
(0.644635 0.0725345 -1.68212e-19)
(0.151129 0.0148606 0)
(-0.623431 -0.0017018 -8.83717e-19)
(-1.15151 -0.0384156 1.01917e-18)
(4.47006 0.429696 1.29996e-19)
(5.71021 0.648085 -5.64088e-18)
(6.27246 0.94592 8.42941e-19)
(7.03506 1.1687 3.07064e-18)
(7.78084 1.38763 1.34396e-18)
(8.58019 1.59651 -2.13072e-18)
(9.40325 1.82163 0)
(9.79932 1.9334 0)
(9.85262 1.95782 -2.78568e-19)
(9.63751 1.8794 0)
(8.80346 1.6497 7.81003e-19)
(7.24162 1.34487 2.74778e-19)
(5.5818 0.990191 -2.16153e-20)
(3.95522 0.668081 -6.83764e-19)
(2.48398 0.381071 0)
(1.2644 0.16023 0)
(0.50713 0.0555181 -2.85678e-18)
(0.0896777 -0.0205204 7.16849e-18)
(-0.542249 -0.0481736 -4.21416e-18)
(-1.1616 -0.123079 -4.93581e-18)
(4.69875 0.683088 5.23889e-18)
(5.88974 0.968403 -2.05841e-18)
(6.43855 1.21291 -7.39861e-19)
(7.19486 1.40965 -5.68254e-18)
(7.9431 1.66654 4.4783e-19)
(8.74215 1.90272 5.89954e-18)
(9.48657 2.12593 -1.68527e-18)
(9.78683 2.22399 0)
(9.79281 2.23671 6.00471e-19)
(9.51543 2.13065 7.18167e-19)
(8.61578 1.85383 -2.212e-18)
(7.00735 1.49099 1.2137e-18)
(5.33765 1.08332 -9.94541e-19)
(3.71523 0.69445 2.14436e-18)
(2.28483 0.398807 0)
(1.09132 0.17151 -8.02243e-19)
(0.424916 0.0477712 0)
(0.0564583 -0.0141805 4.24341e-18)
(-0.528606 -0.0928199 -9.98601e-18)
(-1.10009 -0.177831 6.31495e-18)
(4.82869 0.931106 -2.15789e-17)
(6.1878 1.37837 1.13477e-17)
(6.71911 1.613 1.99589e-18)
(7.42521 1.80422 0)
(8.10002 2.01193 3.90091e-18)
(8.83184 2.22834 -4.58762e-18)
(9.50592 2.43955 1.76236e-18)
(9.742 2.52527 0)
(9.70662 2.52571 -4.32666e-19)
(9.38265 2.38823 -4.21551e-19)
(8.4376 2.06314 2.30335e-18)
(6.80611 1.647 0)
(5.14233 1.18238 -2.18834e-18)
(3.55344 0.765073 1.17209e-18)
(2.16185 0.4059 3.00577e-18)
(1.04592 0.15769 -2.71898e-18)
(0.399952 0.0247501 4.20334e-18)
(0.0604791 -0.0443741 -9.3287e-18)
(-0.429582 -0.108599 5.83463e-18)
(-1.01006 -0.215397 -7.38483e-18)
(4.86874 1.1772 1.21228e-17)
(6.19424 1.66948 -1.18229e-17)
(6.73809 1.85885 6.46717e-18)
(7.44501 2.04631 -9.95815e-18)
(8.12747 2.31707 7.70877e-18)
(8.85408 2.5589 -1.79155e-18)
(9.47989 2.76115 1.07738e-19)
(9.66685 2.8345 1.92302e-18)
(9.59607 2.81663 3.81422e-19)
(9.23869 2.64797 -1.29278e-18)
(8.26547 2.27468 -5.21836e-18)
(6.62711 1.798 -2.06181e-18)
(4.99015 1.27739 -5.39357e-20)
(3.41641 0.795303 -4.52791e-18)
(2.09897 0.447846 -3.50329e-20)
(1.06262 0.179423 4.10184e-18)
(0.453876 0.0392738 -1.2895e-18)
(0.157309 -0.00666434 -7.0014e-19)
(-0.31901 -0.112991 0)
(-0.948578 -0.248545 1.67938e-17)
(4.89333 1.31262 0)
(6.32439 2.05518 3.3368e-18)
(6.87616 2.22508 0)
(7.52989 2.44224 -3.61534e-19)
(8.15048 2.66784 -8.59946e-18)
(8.83281 2.88998 3.61341e-18)
(9.41559 3.08189 -2.15904e-18)
(9.56813 3.14452 -2.74754e-18)
(9.47093 3.10681 -8.50085e-20)
(9.09173 2.90788 -2.79474e-20)
(8.10471 2.4878 2.94683e-18)
(6.47931 1.9485 4.63945e-18)
(4.8701 1.37174 -2.96313e-18)
(3.35286 0.890372 5.12944e-18)
(2.06369 0.478809 -4.0173e-18)
(1.04807 0.180857 0)
(0.470016 0.0389028 -1.00696e-17)
(0.183481 -0.0135286 1.35151e-17)
(-0.25036 -0.122955 1.0374e-18)
(-0.830769 -0.251051 -1.88083e-17)
(4.75973 1.49454 -4.15969e-19)
(6.22411 2.28094 -7.96075e-18)
(6.80168 2.42137 -2.83778e-17)
(7.44756 2.66613 1.75609e-17)
(8.08647 2.95126 -5.7278e-18)
(8.76708 3.20261 4.05174e-18)
(9.32472 3.39823 -4.91895e-18)
(9.45174 3.45217 1.58679e-18)
(9.33643 3.39185 6.58984e-19)
(8.94376 3.1653 -1.87546e-19)
(7.95901 2.702 -3.72295e-18)
(6.35751 2.10571 -5.49115e-18)
(4.77234 1.48284 3.43479e-18)
(3.26716 0.946189 -1.90035e-18)
(2.02578 0.536805 4.65939e-18)
(1.14373 0.224702 0)
(0.618123 0.0745861 -6.59014e-18)
(0.353665 0.0427996 9.79377e-18)
(-0.0577706 -0.0743574 1.84699e-17)
(-0.74584 -0.249959 -2.16551e-17)
(4.70373 1.70776 -4.05976e-17)
(6.25749 2.60323 2.04615e-17)
(6.82926 2.75525 1.83009e-17)
(7.43083 3.02108 -1.88349e-17)
(8.02811 3.26326 3.84606e-19)
(8.67418 3.50571 9.16263e-18)
(9.20945 3.70173 2.18417e-18)
(9.32258 3.74897 7.25136e-19)
(9.19746 3.66945 -5.14533e-19)
(8.79764 3.4176 7.25555e-19)
(7.82335 2.91605 3.10835e-18)
(6.2452 2.27177 8.58823e-18)
(4.6856 1.60153 0)
(3.26626 1.04113 1.71291e-19)
(2.06301 0.575086 -1.3658e-17)
(1.14951 0.2705 3.26212e-18)
(0.649689 0.126897 1.50089e-17)
(0.394936 0.0789907 -4.43534e-18)
(0.0101295 -0.0429022 9.2313e-18)
(-0.676321 -0.256238 -7.46249e-19)
(4.53616 1.82409 4.21567e-19)
(6.12951 2.75628 1.81742e-17)
(6.70353 2.89962 1.33665e-17)
(7.3017 3.2213 -3.11487e-17)
(7.91499 3.51465 2.29621e-17)
(8.55505 3.78461 -1.00389e-17)
(9.08141 3.9908 -2.37748e-18)
(9.18587 4.03343 -3.4017e-18)
(9.05424 3.93619 -6.58567e-19)
(8.64989 3.66246 -2.51392e-18)
(7.68678 3.12686 0)
(6.13695 2.43954 -3.63076e-18)
(4.61907 1.73028 4.15599e-18)
(3.23955 1.12817 5.25899e-18)
(2.09049 0.669804 -3.12127e-18)
(1.28501 0.335143 -7.21991e-18)
(0.820199 0.184691 -2.18155e-18)
(0.55459 0.163595 -1.33988e-19)
(0.153737 0.0107645 0)
(-0.603506 -0.241937 0)
(4.43337 1.96215 -1.82496e-17)
(6.08575 3.01145 0)
(6.64947 3.1897 1.453e-17)
(7.22968 3.51286 -6.20249e-18)
(7.81404 3.78365 -2.38285e-17)
(8.42611 4.05111 6.68062e-18)
(8.94444 4.26169 -2.60658e-18)
(9.04409 4.30197 2.83663e-18)
(8.9086 4.19137 -8.55238e-19)
(8.50187 3.89935 -2.00234e-18)
(7.55281 3.33347 1.95454e-18)
(6.03668 2.60745 1.19374e-17)
(4.55886 1.86194 3.21299e-19)
(3.23757 1.23652 -5.75763e-18)
(2.11061 0.726147 1.0482e-17)
(1.28915 0.414842 1.90235e-20)
(0.855924 0.254639 2.33502e-18)
(0.640442 0.221654 -1.14616e-17)
(0.272048 0.0813244 1.16651e-17)
(-0.559515 -0.244218 -1.37291e-17)
(4.2479 2.04065 -9.92931e-21)
(5.93023 3.13572 0)
(6.51015 3.31051 0)
(7.08208 3.6734 6.13272e-18)
(7.67625 3.99624 8.78033e-18)
(8.2861 4.29317 -5.93076e-18)
(8.80107 4.51532 6.91565e-18)
(8.89787 4.55541 0)
(8.75947 4.43372 5.73844e-19)
(8.35132 4.12582 4.2285e-18)
(7.42052 3.53345 7.40523e-18)
(5.94191 2.77363 -4.57982e-18)
(4.50849 1.99749 -5.55635e-18)
(3.23007 1.34452 1.30791e-17)
(2.1657 0.837227 -3.78777e-18)
(1.42779 0.490002 -4.43748e-18)
(1.01548 0.346665 -2.72659e-18)
(0.745385 0.323316 -1.27951e-17)
(0.33807 0.130483 1.82818e-18)
(-0.53749 -0.248849 1.54378e-17)
(4.11412 2.13737 -7.0347e-18)
(5.84924 3.33466 -1.10031e-17)
(6.41806 3.544 5.44513e-19)
(6.9777 3.90843 -2.30943e-20)
(7.55139 4.2158 3.71349e-18)
(8.14206 4.51749 -1.34545e-17)
(8.65336 4.74808 0)
(8.74876 4.79071 -9.65952e-19)
(8.60965 4.66245 7.60593e-19)
(8.20485 4.34231 7.10237e-18)
(7.29693 3.72759 -1.54642e-18)
(5.85599 2.93862 2.1181e-18)
(4.45866 2.13491 0)
(3.21379 1.45997 -7.13077e-18)
(2.15618 0.910381 8.73554e-18)
(1.41987 0.587508 0)
(1.05124 0.418962 -5.95961e-18)
(0.865921 0.400926 1.75132e-17)
(0.467232 0.218293 2.11502e-18)
(-0.506891 -0.2552 -1.9561e-17)
(3.93723 2.18814 -1.48883e-17)
(5.69051 3.43449 1.84131e-17)
(6.27496 3.64783 0)
(6.82313 4.03807 1.41148e-17)
(7.40193 4.38729 0)
(7.99128 4.71768 1.36518e-17)
(8.50174 4.9625 0)
(8.59741 5.00925 0)
(8.46096 4.87661 -4.9216e-19)
(8.06382 4.54772 -7.22333e-18)
(7.17955 3.91474 -1.39938e-17)
(5.77284 3.10254 2.75457e-18)
(4.40683 2.27557 1.02457e-17)
(3.19657 1.57949 8.09237e-18)
(2.21522 1.0237 -2.83963e-17)
(1.54577 0.674309 -1.1142e-17)
(1.18112 0.537817 6.56188e-18)
(0.915249 0.511956 0)
(0.493356 0.262222 1.84889e-17)
(-0.497142 -0.268048 -2.16517e-17)
(3.80806 2.25747 1.59699e-17)
(5.60065 3.59914 -1.9756e-17)
(6.1661 3.84699 0)
(6.70419 4.23378 -3.84417e-19)
(7.26823 4.56538 -5.81321e-18)
(7.84133 4.90053 0)
(8.35039 5.15655 -1.69659e-18)
(8.44837 5.20909 2.69636e-19)
(8.31815 5.07581 3.00534e-19)
(7.93232 4.7431 4.25175e-19)
(7.06945 4.09581 0)
(5.68851 3.26297 1.14113e-17)
(4.34856 2.41471 3.26486e-19)
(3.1659 1.69792 4.45133e-18)
(2.18125 1.11039 5.13459e-18)
(1.52011 0.780579 0)
(1.20583 0.617993 -1.09406e-17)
(1.01685 0.606561 2.15075e-17)
(0.55286 0.333955 -2.27885e-17)
(-0.487543 -0.282744 4.7702e-17)
(3.64979 2.29468 0)
(5.44417 3.67905 0)
(6.02798 3.94104 -1.08072e-17)
(6.55557 4.3465 0)
(7.12173 4.70812 0)
(7.69138 5.065 1.55037e-17)
(8.2013 5.33417 -1.80366e-18)
(8.30276 5.39296 8.59777e-19)
(8.18062 5.26005 4.45059e-19)
(7.80595 4.92626 0)
(6.96011 4.26872 -2.42603e-18)
(5.5984 3.41866 -9.47858e-18)
(4.28268 2.55125 -1.16199e-17)
(3.12668 1.81474 -4.70815e-18)
(2.22112 1.22517 5.75676e-18)
(1.62903 0.888854 -1.34509e-17)
(1.31481 0.74981 2.39805e-17)
(1.05019 0.719201 1.50429e-19)
(0.531279 0.371313 -2.189e-17)
(-0.497611 -0.3068 -3.30628e-18)
(3.53208 2.35723 0)
(5.35902 3.82477 -1.45995e-17)
(5.91947 4.11427 1.19318e-17)
(6.43819 4.51639 0)
(6.9927 4.8603 0)
(7.54699 5.21761 -3.31595e-17)
(8.05622 5.49533 0)
(8.16313 5.5601 0)
(8.04935 5.42903 3.74451e-19)
(7.68421 5.09704 1.79677e-18)
(6.85081 4.43221 -1.96748e-17)
(5.50453 3.56778 0)
(4.2128 2.68288 -1.29637e-17)
(3.082 1.92599 1.94428e-19)
(2.17535 1.31655 -1.88393e-17)
(1.58646 0.986782 7.25129e-18)
(1.31572 0.833635 1.0339e-19)
(1.0976 0.812365 -2.57301e-17)
(0.49363 0.384004 1.16772e-17)
(-0.528463 -0.337022 3.53314e-18)
(3.39793 2.38421 0)
(5.2172 3.8888 -1.60621e-17)
(5.79453 4.19954 1.24194e-17)
(6.30414 4.61854 2.73997e-17)
(6.85944 4.9859 6.17108e-18)
(7.40926 5.3582 -3.83577e-18)
(7.91935 5.64435 3.10395e-18)
(8.02913 5.71404 -8.75623e-18)
(7.92131 5.5838 -4.01236e-19)
(7.56211 5.25332 1.05011e-17)
(6.73874 4.58378 1.64304e-17)
(5.40774 3.70876 3.21601e-18)
(4.14051 2.80965 1.86427e-17)
(3.02792 2.0348 1.15335e-17)
(2.18505 1.42746 1.35294e-17)
(1.66328 1.1146 -8.01745e-18)
(1.39496 0.968138 -9.49921e-18)
(1.13101 0.883417 1.12446e-17)
(0.44994 0.377976 -6.40632e-18)
(-0.579689 -0.392032 1.16281e-17)
(3.30205 2.44666 2.14063e-17)
(5.14396 4.01998 2.56103e-17)
(5.69489 4.35013 6.47738e-18)
(6.197 4.76834 4.24082e-20)
(6.74236 5.12154 -2.08247e-17)
(7.2784 5.49197 9.42722e-18)
(7.78723 5.78196 -3.32106e-18)
(7.90151 5.85524 2.86163e-20)
(7.79805 5.72546 -4.64934e-20)
(7.44247 5.39679 -1.20058e-17)
(6.62804 4.72385 9.81011e-19)
(5.31398 3.84177 0)
(4.07006 2.93171 0)
(2.97555 2.14177 -6.03644e-18)
(2.12951 1.52189 -2.22677e-17)
(1.59738 1.20087 1.73026e-17)
(1.36929 1.03858 1.04779e-17)
(1.13642 0.948214 0)
(0.409914 0.362602 2.07843e-17)
(-0.575366 -0.494525 -1.26851e-17)
(3.19489 2.47109 -1.12762e-17)
(5.01986 4.07258 9.42523e-18)
(5.58523 4.4254 -1.4306e-17)
(6.08032 4.85974 -1.63316e-17)
(6.6264 5.23447 -7.64058e-18)
(7.15893 5.61806 2.74577e-18)
(7.66759 5.91327 0)
(7.78176 5.98857 1.07433e-17)
(7.67968 5.85759 -5.54587e-19)
(7.32515 5.5286 0)
(6.52003 4.85285 0)
(5.2237 3.96626 2.26916e-18)
(4.0007 3.04901 3.0768e-18)
(2.91491 2.25024 -6.53029e-18)
(2.11658 1.63916 1.59848e-17)
(1.63451 1.34549 -1.86614e-17)
(1.39626 1.16386 -2.2224e-17)
(1.11455 0.939157 1.8025e-17)
(0.336254 0.290233 -7.6754e-18)
(-0.430495 -0.557774 4.50913e-18)
(3.11947 2.53478 1.23099e-17)
(4.95946 4.19268 0)
(5.49851 4.55677 0)
(5.9879 4.99157 -5.4312e-18)
(6.52594 5.35671 4.39039e-18)
(7.04803 5.73998 -1.97739e-19)
(7.55563 6.03793 -1.14416e-17)
(7.67169 6.11532 -1.25935e-17)
(7.57054 5.98312 -2.69448e-19)
(7.2162 5.65328 -1.19913e-18)
(6.41977 4.97395 2.87696e-18)
(5.14059 4.08346 -1.98955e-17)
(3.93589 3.16216 -2.02624e-17)
(2.86003 2.35807 -3.48203e-18)
(2.0535 1.75557 0)
(1.5215 1.45087 -1.45466e-19)
(1.30438 1.2305 1.20303e-17)
(1.04347 0.939416 -2.00025e-17)
(0.35955 0.0137056 1.6581e-17)
(-0.377719 -0.594586 1.46479e-17)
(3.0345 2.55815 -2.631e-17)
(4.85254 4.23718 -1.08462e-17)
(5.40568 4.62314 8.04565e-20)
(5.88965 5.07295 6.32158e-18)
(6.42874 5.45973 0)
(6.9483 5.85801 2.24862e-17)
(7.45498 6.16248 1.42172e-17)
(7.56955 6.24193 -1.34889e-18)
(7.4673 6.10841 4.83827e-19)
(7.11168 5.77673 -1.17988e-18)
(6.32396 5.09384 1.09304e-18)
(5.06034 4.19901 1.74312e-17)
(3.87081 3.27536 1.9646e-17)
(2.7975 2.47439 3.37574e-18)
(2.01692 1.90168 1.67917e-17)
(1.54202 1.62119 0)
(1.24202 1.40241 0)
(0.747746 0.867025 1.35985e-17)
(-0.0640709 0.287628 -1.53358e-19)
(-0.168232 1.09813 -1.54324e-17)
(2.97693 2.62157 1.40722e-17)
(4.80515 4.34693 3.35918e-17)
(5.33285 4.73944 -5.20193e-17)
(5.81083 5.19034 3.25835e-17)
(6.3427 5.57117 -4.22337e-18)
(6.85385 5.97298 2.7647e-17)
(7.35841 6.2836 0)
(7.47156 6.36724 1.17508e-17)
(7.36846 6.23448 0)
(7.01241 5.90328 1.25895e-17)
(6.23354 5.21781 -1.75139e-18)
(4.98517 4.31896 1.95834e-18)
(3.81133 3.39601 2.27168e-17)
(2.74617 2.60394 -7.17624e-18)
(1.95566 2.06966 -8.60289e-18)
(1.38952 1.85396 0)
(0.974035 1.62069 0)
(0.453258 1.20847 0)
(0.0846043 1.51223 -8.07431e-18)
(0.149651 2.53112 -4.76848e-18)
(2.91428 2.64657 0)
(4.71536 4.38693 0)
(5.25427 4.79788 1.84583e-17)
(5.72579 5.26168 -2.73075e-17)
(6.25797 5.66334 1.95091e-17)
(6.7654 6.08194 -2.54224e-17)
(7.26668 6.40227 -1.48851e-18)
(7.3769 6.49085 1.14735e-18)
(7.27241 6.35974 3.81302e-19)
(6.91628 6.02997 -1.43671e-17)
(6.14759 5.34385 2.86228e-18)
(4.91479 4.44169 1.80101e-17)
(3.75446 3.52088 -2.26544e-17)
(2.68981 2.74695 -2.45158e-17)
(1.91665 2.27269 8.29407e-18)
(1.41653 2.06706 0)
(0.957522 1.80411 1.13308e-17)
(0.653574 1.7079 1.33348e-17)
(0.356556 2.63498 -1.59028e-17)
(0.394712 3.01156 1.90472e-17)
(2.87233 2.70856 0)
(4.68014 4.48696 2.59273e-17)
(5.19337 4.90198 -4.76856e-18)
(5.65822 5.36633 3.30735e-17)
(6.18376 5.76346 -2.04951e-17)
(6.68238 6.18732 0)
(7.17876 6.51607 0)
(7.28512 6.61063 0)
(7.17969 6.4826 -2.1578e-18)
(6.82499 6.15654 2.62286e-19)
(6.06742 5.47169 0)
(4.85186 4.56845 -1.77964e-17)
(3.70462 3.65082 0)
(2.65587 2.89991 1.75893e-17)
(1.90168 2.48242 -1.21619e-17)
(1.34247 2.34957 -9.52242e-18)
(0.8427 2.21251 -2.24467e-17)
(0.619736 2.49937 -1.32852e-17)
(0.56521 3.12979 -2.17835e-17)
(0.557437 3.28204 1.87834e-17)
(2.82647 2.7336 -8.42518e-18)
(4.60637 4.52484 1.59391e-19)
(5.12858 4.95559 -4.9732e-18)
(5.58711 5.43106 -2.62289e-17)
(6.11226 5.84694 0)
(6.6042 6.28695 0)
(7.09396 6.62691 0)
(7.1958 6.72844 -5.82041e-19)
(7.08896 6.60385 2.28702e-18)
(6.73564 6.2819 0)
(5.99017 5.59991 0)
(4.79392 4.69841 0)
(3.65993 3.7849 0)
(2.62751 3.06387 1.35454e-17)
(1.90742 2.72001 3.27445e-17)
(1.41281 2.5998 9.50806e-18)
(1.15829 2.49668 2.18049e-17)
(0.928907 3.04065 -1.90886e-17)
(0.817469 3.45558 7.20641e-18)
(0.653896 3.51867 0)
(2.79421 2.7899 8.20254e-18)
(4.58171 4.6188 -5.18662e-17)
(5.07796 5.05334 -1.50681e-17)
(5.53092 5.53053 -3.81241e-18)
(6.04801 5.94182 4.85244e-18)
(6.52788 6.38642 -3.4864e-17)
(7.0096 6.73537 2.40809e-18)
(7.10677 6.84403 1.51772e-17)
(6.99934 6.72355 0)
(6.64897 6.4071 -1.10656e-18)
(5.91639 5.72879 1.01049e-18)
(4.73997 4.82985 0)
(3.62344 3.9222 0)
(2.62616 3.23366 -1.69201e-17)
(1.95975 2.93756 3.36568e-18)
(1.46412 2.85065 -9.36774e-18)
(1.13168 2.97926 2.14788e-17)
(0.898332 3.51609 1.87074e-17)
(0.776423 3.70798 -3.24639e-17)
(0.649695 3.72282 1.67757e-17)
(2.75303 2.80447 1.5237e-17)
(4.51121 4.65041 4.7298e-17)
(5.01539 5.10415 1.83963e-17)
(5.46249 5.59324 0)
(5.9764 6.02271 0)
(6.44634 6.48251 2.63438e-17)
(6.91948 6.84303 -1.60014e-17)
(7.01291 6.96003 -1.39074e-17)
(6.906 6.84395 -4.75006e-19)
(6.55956 6.53281 9.61027e-18)
(5.8411 5.85815 -2.086e-17)
(4.68707 4.96215 0)
(3.59297 4.06142 0)
(2.63638 3.41018 -1.25686e-17)
(2.0097 3.18014 -1.54997e-17)
(1.56959 3.15715 0)
(1.31562 3.29494 -3.10488e-17)
(1.1762 3.8123 -5.64733e-18)
(1.03625 4.02551 3.27703e-17)
(0.806219 4.0443 -1.64879e-17)
(2.71381 2.85643 -2.87077e-17)
(4.48051 4.74201 -2.24002e-17)
(4.95554 5.20193 0)
(5.39526 5.69217 0)
(5.8979 6.11595 0)
(6.35317 6.57893 0)
(6.81828 6.94858 1.70066e-17)
(6.91006 7.07379 -1.61854e-17)
(6.80626 6.96284 0)
(6.4667 6.6581 -8.44595e-18)
(5.76432 5.98719 3.78655e-17)
(4.63451 5.09303 1.6953e-18)
(3.5702 4.20041 2.59795e-18)
(2.66527 3.5868 2.14835e-17)
(2.095 3.40303 -1.41252e-17)
(1.68641 3.3874 0)
(1.44075 3.66242 9.90844e-18)
(1.26938 4.22293 4.40081e-19)
(0.878939 4.3021 -5.3576e-18)
(0.560974 4.38404 1.01169e-17)
(2.66254 2.85133 1.36825e-17)
(4.39027 4.75719 -2.08111e-17)
(4.87433 5.24126 0)
(5.30539 5.7439 -6.00973e-18)
(5.8036 6.18848 2.30292e-17)
(6.24835 6.66748 0)
(6.70641 7.0497 0)
(6.79789 7.18449 2.91369e-17)
(6.69886 7.07938 -5.86311e-20)
(6.36739 6.78098 7.91748e-18)
(5.68284 6.11372 -1.79708e-17)
(4.58226 5.22162 1.29169e-17)
(3.55432 4.33787 0)
(2.70584 3.76136 -1.18957e-17)
(2.17869 3.62523 7.20523e-18)
(1.81313 3.68011 7.96135e-18)
(1.63245 4.03554 0)
(1.4246 4.43293 5.16255e-18)
(1.03676 4.82897 9.18766e-18)
(0.929493 4.98663 2.6091e-18)
(2.60618 2.90215 -2.5604e-17)
(4.34197 4.84739 2.9637e-17)
(4.79253 5.33362 2.34344e-17)
(5.21402 5.83568 -6.19842e-18)
(5.69947 6.2732 -3.47706e-17)
(6.13031 6.75482 0)
(6.58313 7.14629 1.31137e-17)
(6.67631 7.29036 -1.18351e-17)
(6.58407 7.19171 -9.80493e-19)
(6.26325 6.90045 -6.90826e-18)
(5.59914 6.23719 -7.78638e-19)
(4.53162 5.34672 -1.44203e-17)
(3.54576 4.47162 1.79727e-17)
(2.75783 3.93015 5.56468e-18)
(2.2861 3.83387 -1.28949e-17)
(1.98081 3.90302 1.47257e-17)
(1.83942 4.20554 0)
(1.67481 4.90959 0)
(1.36942 5.22938 2.81864e-18)
(0.506202 5.28213 -7.64389e-18)
(2.5386 2.88277 1.20895e-17)
(4.22972 4.84555 2.85151e-17)
(4.68817 5.36179 -2.25755e-17)
(5.09972 5.87513 2.25911e-17)
(5.5816 6.33557 3.31175e-17)
(6.00472 6.83451 0)
(6.45336 7.2383 -1.41193e-17)
(6.54835 7.39193 -1.4098e-17)
(6.46346 7.2994 0)
(6.15381 7.01421 0)
(5.51243 6.35471 0)
(4.48345 5.46634 0)
(3.54263 4.59858 -2.05054e-17)
(2.81713 4.08624 -7.89361e-18)
(2.39923 4.01453 0)
(2.13336 4.10465 -7.41431e-18)
(2.10478 4.58982 0)
(2.16699 4.84817 -3.48668e-18)
(2.1942 4.73095 6.6569e-18)
(1.2559 4.77677 -3.8745e-18)
(2.45713 2.93431 -2.25966e-17)
(4.15766 4.94562 -1.79219e-17)
(4.58403 5.45664 -1.38603e-17)