/*--------------------------------*- C++ -*----------------------------------*\
| =========                 |                                                 |
| \\      /  F ield         | OpenFOAM: The Open Source CFD Toolbox           |
|  \\    /   O peration     | Version:  2412                                  |
|   \\  /    A nd           | Website:  www.openfoam.com                      |
|    \\/     M anipulation  |                                                 |
\*---------------------------------------------------------------------------*/
FoamFile
{
    version     2.0;
    format      ascii;
    arch        "LSB;label=32;scalar=64";
    class       surfaceScalarField;
    location    "0.3";
    object      phi;
}
// * * * * * * * * * * * * * * * * * * * * * * * * * * * * * * * * * * * * * //

dimensions      [0 3 -1 0 0 0 0];

oriented        oriented;

internalField   nonuniform List<scalar> 
799
(
4.04352e-05
8.08705e-05
0.000121305
0.000161739
0.000202171
0.000242601
0.00028303
0.000323456
0.000363879
0.000404299
0.000444716
0.000485129
0.000525538
0.000565942
0.000606341
0.000646736
0.000687125
0.000727508
0.000767884
0.000808255
0.000848618
0.000888974
0.000929323
0.000969663
0.00101
0.00105032
0.00109063
0.00113094
0.00117123
0.00121152
0.0012518
0.00129206
0.00133231
0.00137256
0.00141279
0.001453
0.00149321
0.0015334
0.00157358
0.00161375
0.0016539
0.00169404
0.00173416
0.00177427
0.00181436
0.00185443
0.00189449
0.00193454
0.00197457
0.00201458
0.00205457
0.00209454
0.0021345
0.00217443
0.00221435
0.00225425
0.00229413
0.00233399
0.00237383
0.00241364
0.00245344
0.00249321
0.00253296
0.00257269
0.0026124
0.00265208
0.00269174
0.00273137
0.00277098
0.00281057
0.00285013
0.00288966
0.00292917
0.00296865
0.00300811
0.00304754
0.00308694
0.00312631
0.00316565
0.00320496
0.00324425
0.0032835
0.00332273
0.00336192
0.00340109
0.00344022
0.00347932
0.00351838
0.00355742
0.00359642
0.00363539
0.00367432
0.00371322
0.00375208
0.00379091
0.0038297
0.00386846
0.00390718
0.00394586
0.0039845
0.00402311
0.00406168
0.00410021
0.00413869
0.00417714
0.00421555
0.00425392
0.00429224
0.00433053
0.00436877
0.00440696
0.00444512
0.00448323
0.00452129
0.00455932
0.00459729
0.00463522
0.0046731
0.00471094
0.00474872
0.00478646
0.00482415
0.0048618
0.00489939
0.00493693
0.00497442
0.00501186
0.00504924
0.00508658
0.00512386
0.00516109
0.00519826
0.00523538
0.00527244
0.00530945
0.0053464
0.00538329
0.00542013
0.0054569
0.00549362
0.00553028
0.00556687
0.00560341
0.00563988
0.0056763
0.00571265
0.00574893
0.00578515
0.00582131
0.0058574
0.00589343
0.00592938
0.00596527
0.0060011
0.00603685
0.00607253
0.00610814
0.00614368
0.00617915
0.00621455
0.00624987
0.00628512
0.0063203
0.00635539
0.00639042
0.00642536
0.00646023
0.00649501
0.00652972
0.00656435
0.00659889
0.00663336
0.00666774
0.00670203
0.00673625
0.00677037
0.00680441
0.00683836
0.00687223
0.006906
0.00693969
0.00697328
0.00700678
0.00704019
0.0070735
0.00710672
0.00713985
0.00717287
0.0072058
0.00723863
0.00727136
0.00730399
0.00733652
0.00736894
0.00740126
0.00743347
0.00746558
0.00749758
0.00752947
0.00756125
0.00759292
0.00762448
0.00765592
0.00768725
0.00771846
0.00774956
0.00778053
0.00781139
0.00784213
0.00787274
0.00790323
0.0079336
0.00796383
0.00799395
0.00802393
0.00805378
0.0080835
0.00811308
0.00814253
0.00817184
0.00820102
0.00823005
0.00825894
0.00828769
0.0083163
0.00834476
0.00837307
0.00840123
0.00842924
0.0084571
0.0084848
0.00851235
0.00853973
0.00856696
0.00859402
0.00862092
0.00864765
0.00867422
0.00870061
0.00872683
0.00875288
0.00877875
0.00880444
0.00882995
0.00885528
0.00888042
0.00890537
0.00893013
0.0089547
0.00897907
0.00900325
0.00902723
0.009051
0.00907457
0.00909792
0.00912107
0.00914401
0.00916672
0.00918922
0.0092115
0.00923355
0.00925537
0.00927696
0.00929831
0.00931943
0.0093403
0.00936093
0.00938131
0.00940144
0.00942131
0.00944093
0.00946028
0.00947936
0.00949818
0.00951672
0.00953497
0.00955295
0.00957064
0.00958804
0.00960514
0.00962194
0.00963843
0.00965461
0.00967048
0.00968603
0.00970125
0.00971614
0.0097307
0.00974491
0.00975878
0.00977229
0.00978544
0.00979823
0.00981065
0.00982268
0.00983434
0.0098456
0.00985646
0.00986692
0.00987696
0.00988658
0.00989578
0.00990454
0.00991285
0.00992071
0.00992811
0.00993504
0.00994148
0.00994744
0.0099529
0.00995785
0.00996227
0.00996617
0.00996952
0.00997233
0.00997456
0.00997622
0.00997729
0.00997775
0.0099776
0.00997681
0.00997538
0.00997329
0.00997052
0.00996706
0.00996289
0.00995799
0.00995235
0.00994594
0.00993875
0.00993076
0.00992194
0.00991227
0.00990173
0.0098903
0.00987795
0.00986465
0.00985038
0.0098351
0.0098188
0.00980143
0.00978296
0.00976336
0.0097426
0.00972063
0.00969741
0.00967291
0.00964707
0.00961985
0.00959121
0.00956108
0.00952941
0.00949615
0.00946123
0.00942458
0.00938613
0.00934581
0.00930354
0.00925923
0.00921278
0.00916411
0.00911309
0.00905963
0.00900358
0.00894482
0.00888321
0.00881858
0.00875076
0.00867956
0.00860478
0.00852619
0.00844354
0.00835655
0.00826491
0.00816827
0.00806626
0.00795843
0.00784429
0.00772328
0.00759476
0.00745797
0.00731206
0.00715601
0.00698863
0.00680848
0.00661384
0.00640262
0.00617224
0.00591949
0.00564035
0.0053298
0.00498151
0.00458776
0.00413943
0.00362668
0.00304059
0.00237614
0.00163625
0.000835388
7.37756e-08
-0.00083523
-0.00163607
-0.00237591
-0.00304033
-0.0036264
-0.00413913
-0.00458746
-0.00498122
-0.00532951
-0.00564008
-0.00591922
-0.00617199
-0.00640239
-0.00661362
-0.00680827
-0.00698843
-0.00715582
-0.00731188
-0.0074578
-0.0075946
-0.00772314
-0.00784415
-0.0079583
-0.00806614
-0.00816816
-0.0082648
-0.00835645
-0.00844345
-0.00852611
-0.0086047
-0.00867949
-0.00875069
-0.00881851
-0.00888315
-0.00894476
-0.00900353
-0.00905957
-0.00911305
-0.00916406
-0.00921274
-0.00925919
-0.00930351
-0.00934578
-0.0093861
-0.00942455
-0.0094612
-0.00949613
-0.00952939
-0.00956106
-0.00959119
-0.00961984
-0.00964705
-0.00967289
-0.0096974
-0.00972062
-0.00974259
-0.00976335
-0.00978295
-0.00980142
-0.00981879
-0.0098351
-0.00985037
-0.00986464
-0.00987794
-0.00989029
-0.00990173
-0.00991227
-0.00992193
-0.00993076
-0.00993875
-0.00994594
-0.00995235
-0.00995799
-0.00996289
-0.00996706
-0.00997052
-0.00997329
-0.00997538
-0.00997681
-0.0099776
-0.00997775
-0.00997729
-0.00997622
-0.00997456
-0.00997233
-0.00996952
-0.00996617
-0.00996227
-0.00995784
-0.0099529
-0.00994744
-0.00994148
-0.00993503
-0.00992811
-0.00992071
-0.00991285
-0.00990453
-0.00989578
-0.00988658
-0.00987696
-0.00986691
-0.00985646
-0.00984559
-0.00983433
-0.00982268
-0.00981064
-0.00979823
-0.00978544
-0.00977228
-0.00975877
-0.00974491
-0.00973069
-0.00971614
-0.00970125
-0.00968602
-0.00967047
-0.00965461
-0.00963842
-0.00962193
-0.00960513
-0.00958803
-0.00957063
-0.00955294
-0.00953497
-0.00951671
-0.00949817
-0.00947935
-0.00946027
-0.00944092
-0.0094213
-0.00940143
-0.0093813
-0.00936092
-0.00934029
-0.00931942
-0.0092983
-0.00927695
-0.00925536
-0.00923353
-0.00921148
-0.00918921
-0.00916671
-0.00914399
-0.00912106
-0.00909791
-0.00907455
-0.00905098
-0.00902721
-0.00900323
-0.00897906
-0.00895468
-0.00893011
-0.00890535
-0.0088804
-0.00885526
-0.00882993
-0.00880442
-0.00877873
-0.00875286
-0.00872682
-0.00870059
-0.0086742
-0.00864764
-0.0086209
-0.008594
-0.00856694
-0.00853971
-0.00851233
-0.00848478
-0.00845708
-0.00842922
-0.00840121
-0.00837305
-0.00834474
-0.00831628
-0.00828768
-0.00825893
-0.00823003
-0.008201
-0.00817182
-0.00814251
-0.00811306
-0.00808348
-0.00805376
-0.00802391
-0.00799393
-0.00796382
-0.00793358
-0.00790321
-0.00787272
-0.00784211
-0.00781137
-0.00778051
-0.00774954
-0.00771844
-0.00768723
-0.0076559
-0.00762446
-0.0075929
-0.00756123
-0.00752945
-0.00749756
-0.00746556
-0.00743345
-0.00740124
-0.00736892
-0.0073365
-0.00730397
-0.00727134
-0.00723861
-0.00720578
-0.00717285
-0.00713983
-0.0071067
-0.00707349
-0.00704017
-0.00700676
-0.00697326
-0.00693967
-0.00690598
-0.00687221
-0.00683835
-0.00680439
-0.00677035
-0.00673623
-0.00670202
-0.00666772
-0.00663334
-0.00659888
-0.00656433
-0.0065297
-0.006495
-0.00646021
-0.00642534
-0.0063904
-0.00635538
-0.00632028
-0.0062851
-0.00624986
-0.00621453
-0.00617914
-0.00614367
-0.00610813
-0.00607251
-0.00603683
-0.00600108
-0.00596526
-0.00592937
-0.00589341
-0.00585739
-0.00582129
-0.00578514
-0.00574892
-0.00571263
-0.00567628
-0.00563987
-0.0056034
-0.00556686
-0.00553026
-0.0054936
-0.00545689
-0.00542011
-0.00538328
-0.00534638
-0.00530943
-0.00527243
-0.00523537
-0.00519825
-0.00516107
-0.00512385
-0.00508657
-0.00504923
-0.00501184
-0.00497441
-0.00493692
-0.00489937
-0.00486178
-0.00482414
-0.00478645
-0.00474871
-0.00471093
-0.00467309
-0.00463521
-0.00459728
-0.0045593
-0.00452128
-0.00448322
-0.00444511
-0.00440695
-0.00436876
-0.00433052
-0.00429223
-0.00425391
-0.00421554
-0.00417713
-0.00413869
-0.0041002
-0.00406167
-0.0040231
-0.0039845
-0.00394585
-0.00390717
-0.00386845
-0.0038297
-0.0037909
-0.00375207
-0.00371321
-0.00367431
-0.00363538
-0.00359641
-0.00355741
-0.00351838
-0.00347931
-0.00344021
-0.00340108
-0.00336192
-0.00332272
-0.0032835
-0.00324424
-0.00320496
-0.00316564
-0.0031263
-0.00308693
-0.00304753
-0.0030081
-0.00296865
-0.00292917
-0.00288966
-0.00285012
-0.00281056
-0.00277098
-0.00273137
-0.00269173
-0.00265208
-0.00261239
-0.00257269
-0.00253296
-0.00249321
-0.00245343
-0.00241364
-0.00237382
-0.00233398
-0.00229413
-0.00225425
-0.00221435
-0.00217443
-0.00213449
-0.00209454
-0.00205456
-0.00201457
-0.00197456
-0.00193454
-0.00189449
-0.00185443
-0.00181436
-0.00177426
-0.00173416
-0.00169403
-0.0016539
-0.00161374
-0.00157358
-0.0015334
-0.00149321
-0.001453
-0.00141278
-0.00137255
-0.00133231
-0.00129206
-0.00125179
-0.00121152
-0.00117123
-0.00113094
-0.00109063
-0.00105032
-0.00100999
-0.000969663
-0.000929322
-0.000888974
-0.000848618
-0.000808254
-0.000767884
-0.000727507
-0.000687124
-0.000646736
-0.000606341
-0.000565942
-0.000525537
-0.000485129
-0.000444716
-0.000404299
-0.000363879
-0.000323456
-0.00028303
-0.000242601
-0.000202171
-0.000161739
-0.000121305
-8.08708e-05
-4.04356e-05
)
;

boundaryField
{
    left
    {
        type            calculated;
        value           uniform 0;
    }
    right
    {
        type            calculated;
        value           uniform 0;
    }
    frontBackUpDown
    {
        type            empty;
    }
}


// ************************************************************************* //
