/*--------------------------------*- C++ -*----------------------------------*\
| =========                 |                                                 |
| \\      /  F ield         | OpenFOAM: The Open Source CFD Toolbox           |
|  \\    /   O peration     | Version:  2412                                  |
|   \\  /    A nd           | Website:  www.openfoam.com                      |
|    \\/     M anipulation  |                                                 |
\*---------------------------------------------------------------------------*/
FoamFile
{
    version     2.0;
    format      ascii;
    arch        "LSB;label=32;scalar=64";
    class       volVectorField;
    location    "0.3";
    object      U_0;
}
// * * * * * * * * * * * * * * * * * * * * * * * * * * * * * * * * * * * * * //

dimensions      [0 1 -1 0 0 0 0];

internalField   nonuniform List<vector> 
800
(
(0.00202339 0 0)
(0.0060702 0 0)
(0.010117 0 0)
(0.0141637 0 0)
(0.0182102 0 0)
(0.0222566 0 0)
(0.0263028 0 0)
(0.0303488 0 0)
(0.0343946 0 0)
(0.03844 0 0)
(0.0424851 0 0)
(0.0465299 0 0)
(0.0505742 0 0)
(0.0546182 0 0)
(0.0586616 0 0)
(0.0627046 0 0)
(0.066747 0 0)
(0.0707889 0 0)
(0.0748301 0 0)
(0.0788707 0 0)
(0.0829107 0 0)
(0.0869499 0 0)
(0.0909884 0 0)
(0.0950261 0 0)
(0.099063 0 0)
(0.103099 0 0)
(0.107134 0 0)
(0.111168 0 0)
(0.115202 0 0)
(0.119234 0 0)
(0.123265 0 0)
(0.127295 0 0)
(0.131325 0 0)
(0.135353 0 0)
(0.139379 0 0)
(0.143405 0 0)
(0.147429 0 0)
(0.151452 0 0)
(0.155474 0 0)
(0.159495 0 0)
(0.163514 0 0)
(0.167531 0 0)
(0.171548 0 0)
(0.175562 0 0)
(0.179575 0 0)
(0.183587 0 0)
(0.187597 0 0)
(0.191605 0 0)
(0.195612 0 0)
(0.199617 0 0)
(0.20362 0 0)
(0.207622 0 0)
(0.211621 0 0)
(0.215619 0 0)
(0.219615 0 0)
(0.223609 0 0)
(0.227601 0 0)
(0.231591 0 0)
(0.235579 0 0)
(0.239564 0 0)
(0.243548 0 0)
(0.24753 0 0)
(0.251509 0 0)
(0.255486 0 0)
(0.259461 0 0)
(0.263433 0 0)
(0.267403 0 0)
(0.271371 0 0)
(0.275336 0 0)
(0.279299 0 0)
(0.283259 0 0)
(0.287217 0 0)
(0.291172 0 0)
(0.295125 0 0)
(0.299074 0 0)
(0.303022 0 0)
(0.306966 0 0)
(0.310907 0 0)
(0.314846 0 0)
(0.318782 0 0)
(0.322715 0 0)
(0.326645 0 0)
(0.330571 0 0)
(0.334495 0 0)
(0.338416 0 0)
(0.342334 0 0)
(0.346248 0 0)
(0.350159 0 0)
(0.354067 0 0)
(0.357972 0 0)
(0.361873 0 0)
(0.365771 0 0)
(0.369665 0 0)
(0.373556 0 0)
(0.377443 0 0)
(0.381327 0 0)
(0.385207 0 0)
(0.389084 0 0)
(0.392957 0 0)
(0.396826 0 0)
(0.400691 0 0)
(0.404552 0 0)
(0.40841 0 0)
(0.412263 0 0)
(0.416113 0 0)
(0.419958 0 0)
(0.423799 0 0)
(0.427637 0 0)
(0.43147 0 0)
(0.435298 0 0)
(0.439123 0 0)
(0.442943 0 0)
(0.446759 0 0)
(0.45057 0 0)
(0.454377 0 0)
(0.458179 0 0)
(0.461977 0 0)
(0.46577 0 0)
(0.469558 0 0)
(0.473342 0 0)
(0.47712 0 0)
(0.480894 0 0)
(0.484663 0 0)
(0.488427 0 0)
(0.492186 0 0)
(0.49594 0 0)
(0.499689 0 0)
(0.503433 0 0)
(0.507171 0 0)
(0.510904 0 0)
(0.514632 0 0)
(0.518354 0 0)
(0.522071 0 0)
(0.525782 0 0)
(0.529487 0 0)
(0.533187 0 0)
(0.536882 0 0)
(0.54057 0 0)
(0.544253 0 0)
(0.54793 0 0)
(0.5516 0 0)
(0.555265 0 0)
(0.558924 0 0)
(0.562576 0 0)
(0.566223 0 0)
(0.569863 0 0)
(0.573496 0 0)
(0.577124 0 0)
(0.580744 0 0)
(0.584359 0 0)
(0.587966 0 0)
(0.591567 0 0)
(0.595161 0 0)
(0.598749 0 0)
(0.602329 0 0)
(0.605903 0 0)
(0.609469 0 0)
(0.613029 0 0)
(0.616581 0 0)
(0.620126 0 0)
(0.623663 0 0)
(0.627193 0 0)
(0.630716 0 0)
(0.634231 0 0)
(0.637739 0 0)
(0.641239 0 0)
(0.644731 0 0)
(0.648215 0 0)
(0.651691 0 0)
(0.655159 0 0)
(0.658619 0 0)
(0.662071 0 0)
(0.665514 0 0)
(0.668949 0 0)
(0.672376 0 0)
(0.675794 0 0)
(0.679204 0 0)
(0.682604 0 0)
(0.685996 0 0)
(0.689379 0 0)
(0.692753 0 0)
(0.696118 0 0)
(0.699474 0 0)
(0.70282 0 0)
(0.706157 0 0)
(0.709485 0 0)
(0.712803 0 0)
(0.716111 0 0)
(0.71941 0 0)
(0.722699 0 0)
(0.725977 0 0)
(0.729246 0 0)
(0.732504 0 0)
(0.735752 0 0)
(0.73899 0 0)
(0.742217 0 0)
(0.745434 0 0)
(0.74864 0 0)
(0.751834 0 0)
(0.755018 0 0)
(0.758191 0 0)
(0.761353 0 0)
(0.764503 0 0)
(0.767642 0 0)
(0.770769 0 0)
(0.773885 0 0)
(0.776989 0 0)
(0.780081 0 0)
(0.78316 0 0)
(0.786228 0 0)
(0.789283 0 0)
(0.792326 0 0)
(0.795356 0 0)
(0.798373 0 0)
(0.801377 0 0)
(0.804369 0 0)
(0.807347 0 0)
(0.810312 0 0)
(0.813263 0 0)
(0.816201 0 0)
(0.819124 0 0)
(0.822034 0 0)
(0.82493 0 0)
(0.827812 0 0)
(0.830679 0 0)
(0.833531 0 0)
(0.836369 0 0)
(0.839192 0 0)
(0.841999 0 0)
(0.844792 0 0)
(0.847569 0 0)
(0.85033 0 0)
(0.853075 0 0)
(0.855805 0 0)
(0.858518 0 0)
(0.861215 0 0)
(0.863895 0 0)
(0.866558 0 0)
(0.869205 0 0)
(0.871834 0 0)
(0.874446 0 0)
(0.87704 0 0)
(0.879616 0 0)
(0.882174 0 0)
(0.884714 0 0)
(0.887236 0 0)
(0.889738 0 0)
(0.892222 0 0)
(0.894686 0 0)
(0.897131 0 0)
(0.899556 0 0)
(0.901962 0 0)
(0.904347 0 0)
(0.906711 0 0)
(0.909055 0 0)
(0.911377 0 0)
(0.913679 0 0)
(0.915959 0 0)
(0.918216 0 0)
(0.920452 0 0)
(0.922665 0 0)
(0.924856 0 0)
(0.927023 0 0)
(0.929167 0 0)
(0.931287 0 0)
(0.933383 0 0)
(0.935454 0 0)
(0.937501 0 0)
(0.939523 0 0)
(0.941519 0 0)
(0.943489 0 0)
(0.945434 0 0)
(0.947351 0 0)
(0.949242 0 0)
(0.951105 0 0)
(0.95294 0 0)
(0.954747 0 0)
(0.956526 0 0)
(0.958275 0 0)
(0.959995 0 0)
(0.961685 0 0)
(0.963345 0 0)
(0.964973 0 0)
(0.96657 0 0)
(0.968136 0 0)
(0.969668 0 0)
(0.971168 0 0)
(0.972635 0 0)
(0.974067 0 0)
(0.975465 0 0)
(0.976827 0 0)
(0.978154 0 0)
(0.979444 0 0)
(0.980698 0 0)
(0.981914 0 0)
(0.983091 0 0)
(0.98423 0 0)
(0.985328 0 0)
(0.986387 0 0)
(0.987404 0 0)
(0.98838 0 0)
(0.989312 0 0)
(0.990202 0 0)
(0.991047 0 0)
(0.991847 0 0)
(0.992601 0 0)
(0.993308 0 0)
(0.993968 0 0)
(0.994579 0 0)
(0.99514 0 0)
(0.995651 0 0)
(0.996109 0 0)
(0.996515 0 0)
(0.996867 0 0)
(0.997165 0 0)
(0.997405 0 0)
(0.997589 0 0)
(0.997714 0 0)
(0.997779 0 0)
(0.997782 0 0)
(0.997723 0 0)
(0.9976 0 0)
(0.997411 0 0)
(0.997155 0 0)
(0.996831 0 0)
(0.996435 0 0)
(0.995968 0 0)
(0.995427 0 0)
(0.99481 0 0)
(0.994115 0 0)
(0.993341 0 0)
(0.992484 0 0)
(0.991544 0 0)
(0.990517 0 0)
(0.989402 0 0)
(0.988196 0 0)
(0.986896 0 0)
(0.985499 0 0)
(0.984004 0 0)
(0.982406 0 0)
(0.980703 0 0)
(0.978891 0 0)
(0.976968 0 0)
(0.974929 0 0)
(0.972771 0 0)
(0.970489 0 0)
(0.968081 0 0)
(0.965541 0 0)
(0.962865 0 0)
(0.960047 0 0)
(0.957083 0 0)
(0.953968 0 0)
(0.950695 0 0)
(0.947259 0 0)
(0.943652 0 0)
(0.939869 0 0)
(0.935901 0 0)
(0.931741 0 0)
(0.927381 0 0)
(0.922811 0 0)
(0.918021 0 0)
(0.913003 0 0)
(0.907743 0 0)
(0.902231 0 0)
(0.896453 0 0)
(0.890396 0 0)
(0.884043 0 0)
(0.877379 0 0)
(0.870386 0 0)
(0.863042 0 0)
(0.855328 0 0)
(0.847218 0 0)
(0.838687 0 0)
(0.829704 0 0)
(0.820238 0 0)
(0.810251 0 0)
(0.799702 0 0)
(0.788546 0 0)
(0.776728 0 0)
(0.764189 0 0)
(0.75086 0 0)
(0.73666 0 0)
(0.721497 0 0)
(0.705259 0 0)
(0.687816 0 0)
(0.669013 0 0)
(0.648661 0 0)
(0.626529 0 0)
(0.602333 0 0)
(0.575719 0 0)
(0.546243 0 0)
(0.513353 0 0)
(0.476362 0 0)
(0.434443 0 0)
(0.386658 0 0)
(0.332061 0 0)
(0.269919 0 0)
(0.200065 0 0)
(0.123313 0 0)
(0.0416967 0 0)
(-0.0416824 0 0)
(-0.123297 0 0)
(-0.200046 0 0)
(-0.269895 0 0)
(-0.332035 0 0)
(-0.38663 0 0)
(-0.434413 0 0)
(-0.476332 0 0)
(-0.513324 0 0)
(-0.546215 0 0)
(-0.575692 0 0)
(-0.602307 0 0)
(-0.626505 0 0)
(-0.648638 0 0)
(-0.668992 0 0)
(-0.687796 0 0)
(-0.705239 0 0)
(-0.721478 0 0)
(-0.736643 0 0)
(-0.750844 0 0)
(-0.764174 0 0)
(-0.776714 0 0)
(-0.788532 0 0)
(-0.79969 0 0)
(-0.810239 0 0)
(-0.820227 0 0)
(-0.829694 0 0)
(-0.838677 0 0)
(-0.847209 0 0)
(-0.855319 0 0)
(-0.863034 0 0)
(-0.870378 0 0)
(-0.877372 0 0)
(-0.884037 0 0)
(-0.89039 0 0)
(-0.896447 0 0)
(-0.902226 0 0)
(-0.907738 0 0)
(-0.912998 0 0)
(-0.918017 0 0)
(-0.922807 0 0)
(-0.927377 0 0)
(-0.931738 0 0)
(-0.935898 0 0)
(-0.939866 0 0)
(-0.94365 0 0)
(-0.947256 0 0)
(-0.950693 0 0)
(-0.953966 0 0)
(-0.957081 0 0)
(-0.960045 0 0)
(-0.962863 0 0)
(-0.965539 0 0)
(-0.96808 0 0)
(-0.970488 0 0)
(-0.97277 0 0)
(-0.974928 0 0)
(-0.976967 0 0)
(-0.97889 0 0)
(-0.980702 0 0)
(-0.982405 0 0)
(-0.984003 0 0)
(-0.985499 0 0)
(-0.986895 0 0)
(-0.988195 0 0)
(-0.989402 0 0)
(-0.990517 0 0)
(-0.991544 0 0)
(-0.992484 0 0)
(-0.99334 0 0)
(-0.994115 0 0)
(-0.99481 0 0)
(-0.995427 0 0)
(-0.995968 0 0)
(-0.996435 0 0)
(-0.996831 0 0)
(-0.997155 0 0)
(-0.997411 0 0)
(-0.9976 0 0)
(-0.997723 0 0)
(-0.997782 0 0)
(-0.997779 0 0)
(-0.997714 0 0)
(-0.997589 0 0)
(-0.997405 0 0)
(-0.997165 0 0)
(-0.996867 0 0)
(-0.996515 0 0)
(-0.996109 0 0)
(-0.99565 0 0)
(-0.99514 0 0)
(-0.994579 0 0)
(-0.993968 0 0)
(-0.993308 0 0)
(-0.992601 0 0)
(-0.991847 0 0)
(-0.991047 0 0)
(-0.990202 0 0)
(-0.989312 0 0)
(-0.988379 0 0)
(-0.987404 0 0)
(-0.986386 0 0)
(-0.985328 0 0)
(-0.984229 0 0)
(-0.983091 0 0)
(-0.981913 0 0)
(-0.980697 0 0)
(-0.979444 0 0)
(-0.978154 0 0)
(-0.976827 0 0)
(-0.975464 0 0)
(-0.974066 0 0)
(-0.972634 0 0)
(-0.971168 0 0)
(-0.969668 0 0)
(-0.968135 0 0)
(-0.96657 0 0)
(-0.964973 0 0)
(-0.963344 0 0)
(-0.961684 0 0)
(-0.959994 0 0)
(-0.958275 0 0)
(-0.956525 0 0)
(-0.954747 0 0)
(-0.952939 0 0)
(-0.951104 0 0)
(-0.949241 0 0)
(-0.94735 0 0)
(-0.945433 0 0)
(-0.943488 0 0)
(-0.941518 0 0)
(-0.939522 0 0)
(-0.9375 0 0)
(-0.935453 0 0)
(-0.933382 0 0)
(-0.931286 0 0)
(-0.929165 0 0)
(-0.927022 0 0)
(-0.924854 0 0)
(-0.922664 0 0)
(-0.920451 0 0)
(-0.918215 0 0)
(-0.915957 0 0)
(-0.913677 0 0)
(-0.911376 0 0)
(-0.909053 0 0)
(-0.90671 0 0)
(-0.904345 0 0)
(-0.90196 0 0)
(-0.899555 0 0)
(-0.89713 0 0)
(-0.894685 0 0)
(-0.89222 0 0)
(-0.889737 0 0)
(-0.887234 0 0)
(-0.884713 0 0)
(-0.882173 0 0)
(-0.879614 0 0)
(-0.877038 0 0)
(-0.874444 0 0)
(-0.871832 0 0)
(-0.869203 0 0)
(-0.866557 0 0)
(-0.863893 0 0)
(-0.861213 0 0)
(-0.858516 0 0)
(-0.855803 0 0)
(-0.853074 0 0)
(-0.850328 0 0)
(-0.847567 0 0)
(-0.84479 0 0)
(-0.841998 0 0)
(-0.83919 0 0)
(-0.836367 0 0)
(-0.833529 0 0)
(-0.830677 0 0)
(-0.82781 0 0)
(-0.824928 0 0)
(-0.822032 0 0)
(-0.819122 0 0)
(-0.816199 0 0)
(-0.813261 0 0)
(-0.81031 0 0)
(-0.807345 0 0)
(-0.804367 0 0)
(-0.801375 0 0)
(-0.798371 0 0)
(-0.795354 0 0)
(-0.792324 0 0)
(-0.789281 0 0)
(-0.786226 0 0)
(-0.783158 0 0)
(-0.780079 0 0)
(-0.776987 0 0)
(-0.773883 0 0)
(-0.770768 0 0)
(-0.76764 0 0)
(-0.764501 0 0)
(-0.761351 0 0)
(-0.758189 0 0)
(-0.755016 0 0)
(-0.751833 0 0)
(-0.748638 0 0)
(-0.745432 0 0)
(-0.742215 0 0)
(-0.738988 0 0)
(-0.73575 0 0)
(-0.732502 0 0)
(-0.729244 0 0)
(-0.725975 0 0)
(-0.722697 0 0)
(-0.719408 0 0)
(-0.716109 0 0)
(-0.712801 0 0)
(-0.709483 0 0)
(-0.706155 0 0)
(-0.702818 0 0)
(-0.699472 0 0)
(-0.696116 0 0)
(-0.692751 0 0)
(-0.689377 0 0)
(-0.685994 0 0)
(-0.682602 0 0)
(-0.679202 0 0)
(-0.675792 0 0)
(-0.672374 0 0)
(-0.668948 0 0)
(-0.665512 0 0)
(-0.662069 0 0)
(-0.658617 0 0)
(-0.655157 0 0)
(-0.651689 0 0)
(-0.648213 0 0)
(-0.644729 0 0)
(-0.641237 0 0)
(-0.637737 0 0)
(-0.63423 0 0)
(-0.630714 0 0)
(-0.627192 0 0)
(-0.623662 0 0)
(-0.620124 0 0)
(-0.616579 0 0)
(-0.613027 0 0)
(-0.609468 0 0)
(-0.605901 0 0)
(-0.602328 0 0)
(-0.598747 0 0)
(-0.59516 0 0)
(-0.591566 0 0)
(-0.587965 0 0)
(-0.584357 0 0)
(-0.580743 0 0)
(-0.577122 0 0)
(-0.573495 0 0)
(-0.569861 0 0)
(-0.566221 0 0)
(-0.562575 0 0)
(-0.558922 0 0)
(-0.555264 0 0)
(-0.551599 0 0)
(-0.547928 0 0)
(-0.544251 0 0)
(-0.540569 0 0)
(-0.53688 0 0)
(-0.533186 0 0)
(-0.529486 0 0)
(-0.52578 0 0)
(-0.522069 0 0)
(-0.518352 0 0)
(-0.51463 0 0)
(-0.510903 0 0)
(-0.50717 0 0)
(-0.503431 0 0)
(-0.499688 0 0)
(-0.495939 0 0)
(-0.492185 0 0)
(-0.488426 0 0)
(-0.484662 0 0)
(-0.480893 0 0)
(-0.477119 0 0)
(-0.47334 0 0)
(-0.469557 0 0)
(-0.465769 0 0)
(-0.461976 0 0)
(-0.458178 0 0)
(-0.454376 0 0)
(-0.450569 0 0)
(-0.446758 0 0)
(-0.442942 0 0)
(-0.439122 0 0)
(-0.435297 0 0)
(-0.431469 0 0)
(-0.427636 0 0)
(-0.423798 0 0)
(-0.419957 0 0)
(-0.416112 0 0)
(-0.412262 0 0)
(-0.408409 0 0)
(-0.404551 0 0)
(-0.40069 0 0)
(-0.396825 0 0)
(-0.392956 0 0)
(-0.389083 0 0)
(-0.385207 0 0)
(-0.381326 0 0)
(-0.377443 0 0)
(-0.373555 0 0)
(-0.369664 0 0)
(-0.36577 0 0)
(-0.361872 0 0)
(-0.357971 0 0)
(-0.354066 0 0)
(-0.350158 0 0)
(-0.346247 0 0)
(-0.342333 0 0)
(-0.338415 0 0)
(-0.334495 0 0)
(-0.330571 0 0)
(-0.326644 0 0)
(-0.322714 0 0)
(-0.318781 0 0)
(-0.314845 0 0)
(-0.310907 0 0)
(-0.306965 0 0)
(-0.303021 0 0)
(-0.299074 0 0)
(-0.295124 0 0)
(-0.291172 0 0)
(-0.287217 0 0)
(-0.283259 0 0)
(-0.279299 0 0)
(-0.275336 0 0)
(-0.271371 0 0)
(-0.267403 0 0)
(-0.263433 0 0)
(-0.25946 0 0)
(-0.255486 0 0)
(-0.251509 0 0)
(-0.247529 0 0)
(-0.243548 0 0)
(-0.239564 0 0)
(-0.235578 0 0)
(-0.23159 0 0)
(-0.227601 0 0)
(-0.223609 0 0)
(-0.219615 0 0)
(-0.215619 0 0)
(-0.211621 0 0)
(-0.207621 0 0)
(-0.20362 0 0)
(-0.199617 0 0)
(-0.195612 0 0)
(-0.191605 0 0)
(-0.187597 0 0)
(-0.183587 0 0)
(-0.179575 0 0)
(-0.175562 0 0)
(-0.171547 0 0)
(-0.167531 0 0)
(-0.163514 0 0)
(-0.159495 0 0)
(-0.155474 0 0)
(-0.151452 0 0)
(-0.147429 0 0)
(-0.143405 0 0)
(-0.139379 0 0)
(-0.135352 0 0)
(-0.131324 0 0)
(-0.127295 0 0)
(-0.123265 0 0)
(-0.119234 0 0)
(-0.115202 0 0)
(-0.111168 0 0)
(-0.107134 0 0)
(-0.103099 0 0)
(-0.0990629 0 0)
(-0.095026 0 0)
(-0.0909883 0 0)
(-0.0869498 0 0)
(-0.0829106 0 0)
(-0.0788707 0 0)
(-0.0748301 0 0)
(-0.0707888 0 0)
(-0.066747 0 0)
(-0.0627046 0 0)
(-0.0586616 0 0)
(-0.0546182 0 0)
(-0.0505742 0 0)
(-0.0465299 0 0)
(-0.0424851 0 0)
(-0.03844 0 0)
(-0.0343946 0 0)
(-0.0303489 0 0)
(-0.0263029 0 0)
(-0.0222566 0 0)
(-0.0182102 0 0)
(-0.0141637 0 0)
(-0.010117 0 0)
(-0.00607024 0 0)
(-0.00202342 0 0)
)
;

boundaryField
{
    left
    {
        type            fixedValue;
        value           uniform (0 0 0);
    }
    right
    {
        type            fixedValue;
        value           uniform (0 0 0);
    }
    frontBackUpDown
    {
        type            empty;
    }
}


// ************************************************************************* //
