/*--------------------------------*- C++ -*----------------------------------*\
| =========                 |                                                 |
| \\      /  F ield         | OpenFOAM: The Open Source CFD Toolbox           |
|  \\    /   O peration     | Version:  2412                                  |
|   \\  /    A nd           | Website:  www.openfoam.com                      |
|    \\/     M anipulation  |                                                 |
\*---------------------------------------------------------------------------*/
FoamFile
{
    version     2.0;
    format      ascii;
    arch        "LSB;label=32;scalar=64";
    class       volScalarField;
    location    "0.2";
    object      epsilon;
}
// * * * * * * * * * * * * * * * * * * * * * * * * * * * * * * * * * * * * * //

dimensions      [0 2 -3 0 0 0 0];

internalField   nonuniform List<scalar> 
12225
(
448.248
622.893
830.555
1004.83
1150.4
1270.21
1368.61
1449.61
1516.34
1571.35
1616.71
1654.08
1684.75
1709.73
1729.77
1745.29
1756.62
1766.58
173.744
302.084
403.101
480.177
539.343
585.695
622.133
650.856
673.567
691.532
705.714
716.864
725.574
732.308
737.472
741.313
744.626
744.456
119.435
232.402
315.511
376.254
421.161
455.028
480.628
499.957
514.531
525.459
533.565
539.479
543.688
546.58
548.484
549.664
550.552
550.213
97.6414
199.979
277.776
334.832
376.772
407.858
430.862
447.788
460.144
469.043
475.311
479.573
482.312
483.908
484.68
484.904
484.916
484.512
83.6527
176.289
251.577
308.549
351.1
382.721
406.065
423.142
435.484
444.243
450.286
454.272
456.71
458.001
458.479
458.434
458.169
457.712
71.9919
153.973
226.311
283.824
328.196
361.837
387.035
405.701
419.348
429.149
436.012
440.638
443.575
445.255
446.036
446.223
446.1
445.758
61.3443
131.282
198.625
255.578
301.54
337.586
365.351
386.46
402.308
414.034
422.551
428.588
432.722
435.419
437.06
437.964
438.4
438.468
51.6697
108.73
168.487
222.63
268.753
306.559
336.801
360.612
379.126
393.35
404.143
412.217
418.159
422.449
425.482
427.587
429.019
429.869
43.2226
87.6455
137.686
186.324
230.298
268.241
299.983
326.018
347.075
363.918
377.264
387.749
395.921
402.246
407.113
410.848
413.691
415.708
36.1698
69.2413
108.632
149.501
188.753
224.542
255.998
282.98
305.739
324.705
340.368
353.216
363.705
372.241
379.178
384.813
389.365
392.862
30.4985
54.1385
83.3283
115.314
147.814
179.112
208.065
234.093
257.027
276.944
294.065
308.675
321.085
331.598
340.494
348.015
354.339
359.441
26.3766
43.1974
64.2829
88.2389
113.647
139.255
164.04
187.303
208.651
227.919
245.101
260.29
273.639
285.327
295.539
304.445
312.16
318.588
23.1425
34.7466
49.3132
66.2688
84.8754
104.386
124.079
143.349
161.756
179.016
194.975
209.576
222.831
234.8
245.565
255.215
263.797
271.155
20.3783
27.6945
36.7522
47.4276
59.446
72.4843
86.1744
100.143
114.062
127.666
140.758
153.204
164.92
175.868
186.037
195.433
204.037
211.644
18.15
22.2407
27.149
32.9142
39.49
46.7965
54.7181
63.1077
71.8079
80.6682
89.553
98.3469
106.956
115.307
123.346
131.028
138.298
144.953
16.4707
18.3568
20.5275
23.0286
25.8747
29.0694
32.6048
36.4562
40.5858
44.9478
49.4929
54.1706
58.9322
63.7316
68.5271
73.2787
77.9382
82.3726
15.3282
15.8731
16.496
17.2134
18.033
18.9612
20.0041
21.1649
22.4431
23.8351
25.3347
26.9335
28.6209
30.3832
32.2062
34.0763
35.9757
37.8622
14.7508
14.6758
14.6369
14.6353
14.6698
14.7396
14.845
14.9861
15.1631
15.376
15.6244
15.9078
16.2253
16.5772
16.9628
17.38
17.826
18.2967
14.8977
14.9733
15.0873
15.2434
15.4417
15.6821
15.9647
16.2897
16.656
17.0621
17.5058
17.9847
18.4955
19.035
19.5997
20.1859
20.7889
21.3951
15.9708
17.2605
18.7264
20.3953
22.2735
24.3603
26.6489
29.1236
31.7605
34.5309
37.4037
40.3474
43.3313
46.3266
49.3075
52.251
55.1324
57.8916
18.0496
21.9968
26.69
32.1481
38.3085
45.0753
52.3247
59.9105
67.6816
75.4981
83.2379
90.8002
98.1058
105.096
111.73
117.983
123.835
129.241
21.5631
30.6528
41.9209
55.0372
69.4964
84.7802
100.378
115.83
130.772
144.943
158.179
170.386
181.533
191.629
200.711
208.836
216.066
222.443
27.2185
45.3004
67.7865
92.9375
119.105
145
169.642
192.389
212.917
231.131
247.079
260.899
272.771
282.897
291.478
298.703
304.748
309.773
35.7145
67.6765
105.678
144.951
182.516
216.741
246.817
272.57
294.225
312.183
326.906
338.849
348.437
356.046
362.003
366.588
370.04
372.585
47.4078
97.6111
152.029
202.689
246.853
283.886
314.071
338.197
357.201
371.971
383.284
391.799
398.062
402.52
405.535
407.4
408.359
408.646
61.8881
131.752
198.705
254.805
299.834
335.069
362.11
382.558
397.798
408.96
416.937
422.436
426.009
428.087
429.009
429.037
428.388
427.275
78.467
165.761
239.652
296.704
339.787
371.975
395.786
413.193
425.728
434.562
440.58
444.45
446.681
447.661
447.689
446.994
445.759
444.171
99.5997
200.965
279.478
337.821
380.456
411.807
434.889
451.765
463.981
472.691
478.746
482.775
485.252
486.541
486.919
486.599
485.751
484.543
144.792
258.315
348.614
417.598
468.466
506.748
535.873
558.05
574.953
587.827
597.584
604.909
610.325
614.237
616.961
618.748
619.791
620.29
366.941
498.483
666.584
808.029
923.448
1016.68
1091.71
1152.38
1201.66
1241.83
1274.67
1301.62
1323.78
1342.06
1357.15
1369.64
1379.94
1388.51
0.939106
0.892864
1.30196
1.65666
1.94752
2.19515
2.48782
2.812
3.16237
3.54517
3.97315
4.47902
5.16019
5.96675
6.89222
7.93517
9.10281
10.4051
11.8513
13.4492
15.2041
17.119
19.1954
21.4334
23.8328
26.3936
29.1174
32.0081
35.074
38.3287
41.7946
45.4306
49.2179
53.1508
57.225
61.4363
65.7809
70.2553
74.8561
79.5801
84.4243
89.3857
94.4615
99.6487
104.944
110.345
115.848
121.45
127.146
132.933
138.808
144.764
150.798
156.904
163.077
169.312
175.603
181.944
188.327
194.747
201.198
207.671
214.16
220.658
227.157
233.65
240.13
246.589
253.02
259.418
265.777
272.096
278.379
284.637
290.898
297.11
303.219
309.228
315.135
320.935
326.621
332.187
337.625
342.93
348.094
353.11
357.973
362.675
367.212
371.577
375.765
379.771
383.59
387.218
390.65
393.882
396.91
399.732
402.343
404.741
406.923
408.887
410.631
412.154
413.453
414.527
415.376
415.999
416.395
416.565
416.509
416.227
415.721
414.992
414.04
412.868
411.479
409.874
408.056
406.029
403.795
401.36
398.726
395.898
392.882
389.681
386.302
382.749
379.03
375.149
371.113
366.93
362.606
358.147
353.562
348.857
344.042
339.122
334.104
329.009
323.823
318.593
313.361
308.475
305.348
302.664
299.944
297.156
294.3
291.38
288.402
285.369
282.287
279.162
275.999
272.803
269.578
266.331
263.066
259.789
256.503
253.214
249.927
246.644
243.371
240.11
236.864
233.636
230.425
227.231
224.051
220.879
217.702
214.498
211.23
207.824
204.12
199.715
193.932
186.078
2.8875
1.59195
1.41951
1.48099
1.64638
1.89416
2.21779
2.60783
3.06051
3.57926
4.16822
4.83295
5.57884
6.40033
7.29208
8.2495
9.2688
10.3463
11.4783
12.661
13.8907
15.1647
16.4804
17.8366
19.2327
20.6692
22.1471
23.6678
25.2332
26.8442
28.5009
30.2
31.9402
33.721
35.5422
37.4038
39.3055
41.2469
43.2276
45.247
47.3045
49.3995
51.5312
53.6985
55.9006
58.1364
60.4046
62.704
65.0333
67.3909
69.7755
72.1852
74.6185
77.0736
79.5485
82.0413
84.55
87.0726
89.6068
92.1505
94.7014
97.2572
99.8155
102.374
104.93
107.482
110.027
112.563
115.088
117.601
120.101
122.59
125.071
127.549
130.043
132.538
135.004
137.435
139.827
142.18
144.489
146.753
148.969
151.134
153.246
155.303
157.301
159.238
161.113
162.923
164.665
166.339
167.941
169.47
170.925
172.304
173.604
174.825
175.966
177.025
178
178.892
179.698
180.418
181.052
181.598
182.057
182.427
182.708
182.9
183.003
183.017
182.942
182.778
182.526
182.186
181.758
181.244
180.643
179.958
179.188
178.336
177.403
176.389
175.297
174.128
172.884
171.567
170.179
168.722
167.198
165.61
163.96
162.25
160.483
158.662
156.79
154.869
152.9
150.893
148.833
146.759
144.693
142.716
141.036
139.471
137.914
136.341
134.747
133.134
131.5
129.85
128.184
126.505
124.815
123.117
121.412
119.702
117.99
116.278
114.567
112.86
111.159
109.465
107.78
106.106
104.444
102.795
101.16
99.5402
97.9355
96.3457
94.77
93.2066
91.6524
90.104
88.5528
87.0107
85.6742
85.715
5.14647
2.49604
2.11399
2.13976
2.32426
2.60048
2.96011
3.39991
3.91671
4.50622
5.16272
5.87971
6.65029
7.46702
8.32334
9.21415
10.1358
11.0856
12.0622
13.0646
14.093
15.1476
16.2295
17.3398
18.4798
19.6508
20.8539
22.0899
23.359
24.6612
25.996
27.3624
28.7599
30.1879
31.6458
33.1331
34.6493
36.1937
37.7657
39.3648
40.9903
42.6417
44.3183
46.0194
47.7443
49.4923
51.2627
53.0546
54.8672
56.6996
58.5507
60.4196
62.3052
64.2064
66.1219
68.0504
69.9907
71.9414
73.9011
75.8683
77.8416
79.8194
81.8002
83.7825
85.7649
87.7458
89.7242
91.6988
93.6688
95.6337
97.5934
99.5484
101.5
103.449
105.395
107.327
109.236
111.119
112.973
114.796
116.586
118.341
120.057
121.735
123.37
124.963
126.51
128.009
129.46
130.86
132.207
133.501
134.739
135.92
137.044
138.107
139.11
140.051
140.93
141.745
142.494
143.179
143.797
144.349
144.833
145.249
145.597
145.876
146.086
146.227
146.299
146.302
146.236
146.101
145.897
145.625
145.286
144.879
144.405
143.866
143.261
142.592
141.86
141.066
140.211
139.296
138.323
137.293
136.208
135.069
133.878
132.637
131.347
130.01
128.63
127.205
125.741
124.238
122.693
121.127
119.532
117.921
116.31
114.732
113.243
111.801
110.37
108.932
107.485
106.027
104.559
103.081
101.596
100.104
98.6082
97.1094
95.6094
94.11
92.6127
91.1191
89.6307
88.1491
86.6756
85.2116
83.7584
82.3173
80.8893
79.4757
78.0773
76.6952
75.3301
73.983
72.6549
71.3471
70.0625
68.8074
67.5943
66.4675
65.5499
65.429
7.46994
3.52137
2.95748
2.93446
3.0996
3.38094
3.75552
4.21311
4.74596
5.34574
6.0031
6.70847
7.45304
8.22951
9.03253
9.85877
10.7066
11.5758
12.4669
13.3812
14.3201
15.2853
16.2782
17.3001
18.352
19.4347
20.5484
21.6934
22.8692
24.0755
25.3116
26.5768
27.8705
29.1922
30.5412
31.9171
33.3193
34.7475
36.2011
37.6798
39.1831
40.7105
42.2618
43.8363
45.4338
47.0536
48.6952
50.3581
52.0416
53.745
55.4675
57.2083
58.9666
60.7413
62.5315
64.336
66.1537
67.9833
69.8237
71.6734
73.5311
75.3954
77.2649
79.1382
81.014
82.8908
84.7675
86.6429
88.5158
90.3855
92.2511
94.1119
95.9672
97.8161
99.6531
101.473
103.27
105.042
106.787
108.501
110.184
111.832
113.444
115.018
116.552
118.043
119.491
120.892
122.247
123.552
124.807
126.01
127.159
128.253
129.291
130.272
131.195
132.058
132.861
133.603
134.283
134.9
135.454
135.944
136.37
136.731
137.027
137.258
137.423
137.523
137.558
137.527
137.431
137.27
137.044
136.754
136.4
135.983
135.504
134.963
134.361
133.699
132.978
132.199
131.363
130.472
129.527
128.529
127.48
126.382
125.235
124.042
122.804
121.523
120.202
118.839
117.441
116.013
114.553
113.069
111.561
110.037
108.508
106.99
105.504
104.039
102.58
101.119
99.6518
98.1782
96.6984
95.2135
93.7247
92.2336
90.7416
89.2503
87.7612
86.2758
84.7955
83.3219
81.8562
80.3998
78.954
77.52
76.0991
74.6923
73.3008
71.9256
70.5678
69.2285
67.9087
66.6098
65.3337
64.0831
62.8628
61.6822
60.5589
59.5369
58.7047
58.3314
9.54815
4.56121
3.79698
3.69611
3.8309
4.09878
4.46449
4.91149
5.42849
6.00541
6.63238
7.30024
8.00121
8.72945
9.48122
10.2547
11.0496
11.8668
12.7075
13.5735
14.4664
15.3877
16.3386
17.3201
18.3328
19.3771
20.453
21.5603
22.6988
23.868
25.0675
26.2967
27.5552
28.8426
30.1586
31.5027
32.8746
34.2741
35.7009
37.1547
38.6353
40.1425
41.6759
43.2352
44.8202
46.4304
48.0654
49.7248
51.4079
53.1141
54.8428
56.5931
58.3641
60.1549
61.9645
63.7917
65.6352
67.4939
69.3664
71.2512
73.1469
75.0518
76.9646
78.8836
80.8072
82.7337
84.6618
86.5898
88.5161
90.4395
92.3583
94.2711
96.1763
98.0705
99.9487
101.807
103.641
105.449
107.228
108.976
110.689
112.367
114.006
115.605
117.161
118.673
120.139
121.556
122.924
124.24
125.503
126.711
127.863
128.957
129.993
130.969
131.884
132.736
133.527
134.253
134.915
135.512
136.043
136.508
136.907
137.239
137.504
137.702
137.833
137.896
137.893
137.822
137.685
137.482
137.213
136.878
136.479
136.016
135.49
134.901
134.251
133.54
132.77
131.942
131.058
130.118
129.124
128.078
126.981
125.834
124.639
123.401
122.117
120.789
119.426
118.027
116.593
115.129
113.636
112.119
110.579
109.023
107.457
105.892
104.337
102.791
101.247
99.701
98.1519
96.5989
95.0426
93.484
91.9245
90.3654
88.8085
87.255
85.7066
84.1646
82.6306
81.1059
79.5918
78.0898
76.6009
75.1264
73.6675
72.2254
70.801
69.3955
68.01
66.6457
65.3039
63.9864
62.6955
61.4346
60.2096
59.031
57.917
56.9056
56.0585
55.5014
11.6594
5.53456
4.54233
4.36078
4.45582
4.6972
5.03899
5.45957
5.94545
6.48611
7.07243
7.69661
8.35243
9.03553
9.74338
10.475
11.2306
12.0112
12.8181
13.6529
14.517
15.4117
16.3379
17.2963
18.2875
19.3117
20.369
21.4594
22.5828
23.739
24.9277
26.1487
27.4019
28.687
30.0039
31.3525
32.7327
34.1443
35.5874
37.0617
38.5673
40.1039
41.6715
43.2697
44.8985
46.5574
48.2461
49.9641
51.7109
53.4858
55.2881
57.1169
58.9713
60.8502
62.7525
64.6768
66.6218
68.586
70.5678
72.5656
74.5776
76.6021
78.6371
80.6809
82.7313
84.7865
86.8444
88.903
90.9604
93.0144
95.063
97.1041
99.1355
101.152
103.149
105.123
107.07
108.988
110.875
112.726
114.541
116.315
118.048
119.736
121.378
122.97
124.512
126.001
127.436
128.814
130.133
131.393
132.592
133.728
134.801
135.808
136.749
137.623
138.429
139.166
139.834
140.431
140.958
141.414
141.799
142.113
142.354
142.524
142.623
142.649
142.605
142.49
142.304
142.048
141.722
141.328
140.866
140.336
139.74
139.079
138.354
137.566
136.716
135.806
134.837
133.811
132.729
131.593
130.406
129.168
127.878
126.547
125.172
123.755
122.301
120.811
119.288
117.733
116.15
114.543
112.913
111.266
109.608
107.944
106.28
104.618
102.956
101.292
99.6268
97.9593
96.2908
94.6225
92.9558
91.2923
89.6334
87.9808
86.336
84.7004
83.0755
81.4628
79.8635
78.2791
76.7106
75.1594
73.6267
72.1134
70.6209
69.1502
67.7025
66.2792
64.8817
63.5121
62.173
60.8684
59.6046
58.3922
57.2485
56.2045
55.302
54.6025
14.7349
6.55503
5.20958
4.91234
4.95182
5.15644
5.46627
5.85411
6.3044
6.80646
7.35206
7.93472
8.54957
9.19333
9.8642
10.5616
11.2859
12.0379
12.8189
13.63
14.4726
15.3477
16.2563
17.1989
18.1763
19.1887
20.2367
21.3202
22.4397
23.5951
24.7866
26.0143
27.2783
28.5788
29.9158
31.2895
32.7
34.1475
35.6321
37.1538
38.7127
40.3089
41.9422
43.6125
45.3198
47.0636
48.8437
50.6596
52.5106
54.396
56.3151
58.2668
60.2501
62.2636
64.306
66.3758
68.4714
70.591
72.7326
74.8944
77.0741
79.2697
81.4789
83.6993
85.9285
88.1641
90.4035
92.6443
94.8839
97.1196
99.3489
101.569
103.776
105.965
108.13
110.269
112.378
114.453
116.493
118.493
120.452
122.366
124.232
126.049
127.813
129.523
131.176
132.769
134.302
135.772
137.177
138.515
139.786
140.987
142.117
143.176
144.162
145.073
145.91
146.671
147.356
147.964
148.494
148.947
149.323
149.62
149.84
149.982
150.046
150.033
149.942
149.775
149.532
149.214
148.821
148.355
147.815
147.204
146.521
145.77
144.951
144.064
143.113
142.097
141.02
139.883
138.687
137.433
136.128
134.772
133.365
131.913
130.416
128.878
127.3
125.686
124.038
122.359
120.652
118.919
117.164
115.391
113.605
111.81
110.011
108.209
106.406
104.602
102.797
100.992
99.1874
97.3857
95.5881
93.7962
92.0117
90.2361
88.4711
86.7183
84.9791
83.255
81.5473
79.8574
78.1867
76.5362
74.9072
73.301
71.7186
70.1613
68.6303
67.1272
65.6535
64.2115
62.804
61.4354
60.1121
58.8443
57.6474
56.5462
55.5683
54.7453
17.5996
7.44673
5.75021
5.33245
5.31147
5.47564
5.75136
6.10593
6.52181
6.98802
7.49694
8.04302
8.62235
9.23241
9.87185
10.5403
11.238
11.9658
12.7246
13.5157
14.3402
15.1991
16.0933
17.0239
17.9915
18.9969
20.0406
21.1234
22.2457
23.4081
24.6111
25.8551
27.1407
28.4682
29.8382
31.2511
32.7073
34.2072
35.7511
37.3393
38.972
40.6494
42.3716
44.1385
45.9499
47.8057
49.7054
51.6485
53.6344
55.6621
57.7308
59.8392
61.986
64.1697
66.3887
68.641
70.9248
73.2379
75.578
77.9427
80.3294
82.7355
85.1582
87.5947
90.0421
92.4973
94.9574
97.4192
99.8797
102.336
104.784
107.221
109.64
112.037
114.406
116.745
119.049
121.315
123.54
125.719
127.852
129.933
131.96
133.931
135.843
137.693
139.479
141.198
142.848
144.427
145.934
147.367
148.724
150.003
151.203
152.323
153.363
154.32
155.194
155.984
156.69
157.311
157.847
158.298
158.664
158.944
159.139
159.248
159.273
159.213
159.07
158.843
158.534
158.143
157.672
157.121
156.491
155.784
155.001
154.143
153.213
152.212
151.141
150
148.797
147.53
146.202
144.815
143.373
141.877
140.33
138.734
137.093
135.408
133.684
131.922
130.125
128.297
126.44
124.557
122.652
120.729
118.791
116.843
114.888
112.929
110.967
109.005
107.044
105.083
103.126
101.174
99.2287
97.2915
95.3644
93.449
91.5472
89.6606
87.7906
85.9388
84.1067
82.2956
80.5068
78.7416
77.0013
75.287
73.6
71.9416
70.3131
68.7161
67.1523
65.6242
64.1348
62.6884
61.2916
59.9536
58.6878
57.5138
56.4491
55.5108
20.1005
8.17428
6.15493
5.62281
5.54254
5.66665
5.90928
6.23277
6.61761
7.05232
7.52952
8.04426
8.59321
9.17432
9.78655
10.4296
11.1039
11.8101
12.5492
13.3223
14.1306
14.9754
15.8577
16.7787
17.7396
18.7414
19.7852
20.8719
22.0026
23.1783
24.3998
25.668
26.984
28.3485
29.7624
31.2264
32.7413
34.3077
35.9263
37.5975
39.3217
41.0993
42.9304
44.815
46.7531
48.7444
50.7884
52.8845
55.0319
57.2296
59.4763
61.7707
64.1112
66.4958
68.9226
71.3893
73.8935
76.4325
79.0037
81.604
84.2303
86.8796
89.5485
92.2336
94.9313
97.6382
100.351
103.065
105.777
108.483
111.18
113.863
116.523
119.155
121.754
124.318
126.841
129.321
131.752
134.132
136.458
138.725
140.931
143.073
145.147
147.151
149.082
150.938
152.717
154.416
156.033
157.567
159.016
160.378
161.653
162.838
163.934
164.938
165.849
166.668
167.394
168.027
168.565
169.01
169.361
169.618
169.782
169.852
169.83
169.716
169.51
169.214
168.828
168.353
167.791
167.143
166.411
165.595
164.696
163.718
162.663
161.532
160.327
159.05
157.705
156.293
154.817
153.279
151.682
150.029
148.323
146.566
144.762
142.913
141.023
139.094
137.13
135.134
133.108
131.057
128.984
126.891
124.784
122.666
120.539
118.409
116.276
114.143
112.011
109.884
107.761
105.646
103.539
101.444
99.3619
97.2946
95.2438
93.2113
91.1987
89.2076
87.2395
85.2958
83.3779
81.487
79.6245
77.7916
75.9896
74.2199
72.4837
70.7829
69.1194
67.4954
65.9143
64.3805
62.8999
61.4812
60.1356
58.8782
57.7197
56.67
22.1667
8.73383
6.43224
5.79718
5.6618
5.74818
5.96003
6.25536
6.61281
7.02027
7.47034
7.9583
8.48117
9.03722
9.62562
10.2463
10.8996
11.5863
12.3076
13.0647
13.8589
14.6918
15.5647
16.4792
17.4369
18.4391
19.4875
20.5835
21.7287
22.9244
24.1722
25.4734
26.8293
28.2414
29.7107
31.2385
32.8259
34.4737
36.183
37.9543
39.7884
41.6856
43.6461
45.6702
47.7575
49.9079
52.1208
54.3954
56.7306
59.1252
61.5776
64.0862
66.6488
69.2633
71.9271
74.6374
77.3913
80.1857
83.017
85.8819
88.7767
91.6974
94.6403
97.6013
100.576
103.561
106.551
109.543
112.531
115.512
118.482
121.43
124.35
127.236
130.084
132.889
135.647
138.354
141.006
143.598
146.128
148.591
150.984
153.304
155.547
157.711
159.792
161.789
163.698
165.518
167.247
168.882
170.423
171.867
173.214
174.461
175.609
176.656
177.6
178.443
179.182
179.819
180.352
180.783
181.111
181.336
181.459
181.481
181.401
181.221
180.942
180.565
180.09
179.519
178.854
178.097
177.249
176.311
175.286
174.175
172.982
171.709
170.357
168.929
167.428
165.856
164.217
162.513
160.747
158.922
157.042
155.109
153.127
151.099
149.028
146.917
144.771
142.592
140.384
138.15
135.893
133.618
131.328
129.027
126.718
124.404
122.089
119.775
117.465
115.159
112.862
110.574
108.297
106.035
103.789
101.561
99.3524
97.1655
95.002
92.8633
90.7512
88.6669
86.612
84.5878
82.5956
80.6367
78.7125
76.8243
74.9735
73.162
71.3918
69.6652
67.9856
66.3571
64.7855
63.2783
61.845
60.4971
59.2406
58.082
23.7654
9.13318
6.59767
5.87419
5.6896
5.74151
5.92519
6.19515
6.52841
6.91219
7.33888
7.80384
8.30427
8.83862
9.40628
10.0073
10.6423
11.3122
12.0183
12.7622
13.5454
14.3699
15.2374
16.15
17.1096
18.1183
19.1781
20.2911
21.4592
22.6846
23.9692
25.3148
26.7235
28.1968
29.7365
31.3442
33.0212
34.7689
36.5884
38.4806
40.4463
42.4859
44.5998
46.788
49.0503
51.3863
53.7951
56.2758
58.8269
61.4469
64.1338
66.8853
69.699
72.5721
75.5014
78.4836
81.515
84.5919
87.7102
90.8655
94.0537
97.2701
100.51
103.77
107.043
110.326
113.614
116.902
120.185
123.457
126.714
129.94
133.13
136.281
139.385
142.44
145.439
148.378
151.254
154.061
156.797
159.456
162.036
164.533
166.943
169.263
171.49
173.623
175.657
177.592
179.425
181.155
182.779
184.296
185.706
187.007
188.197
189.276
190.243
191.098
191.84
192.47
192.986
193.391
193.684
193.865
193.935
193.894
193.744
193.486
193.121
192.649
192.073
191.394
190.614
189.735
188.759
187.687
186.522
185.267
183.923
182.494
180.981
179.389
177.719
175.975
174.16
172.277
170.329
168.32
166.253
164.132
161.959
159.74
157.476
155.173
152.833
150.459
148.057
145.629
143.179
140.711
138.228
135.735
133.234
130.73
128.226
125.724
123.227
120.737
118.258
115.791
113.339
110.904
108.488
106.093
103.721
101.374
99.0544
96.7629
94.5015
92.2717
90.0748
87.9124
85.7857
83.6962
81.645
79.6338
77.664
75.7373
73.8558
72.0221
70.2392
68.5113
66.8436
65.2427
63.7163
62.2733
60.9164
59.6508
24.8873
9.38485
6.66855
5.87323
5.64644
5.66765
5.82589
6.073
6.38477
6.74783
7.15435
7.59967
8.08108
8.59721
9.14762
9.7326
10.353
11.0101
11.7054
12.4409
13.2186
14.0409
14.91
15.8286
16.799
17.8241
18.9064
20.0485
21.2531
22.5228
23.8602
25.2676
26.7474
28.302
29.9334
31.6434
33.434
35.3066
37.2626
39.3029
41.4285
43.6397
45.9369
48.32
50.7884
53.3415
55.9781
58.6967
61.4956
64.3725
67.325
70.3501
73.4449
76.6056
79.8287
83.11
86.4451
89.8295
93.2581
96.726
100.228
103.759
107.314
110.888
114.475
118.07
121.667
125.262
128.849
132.422
135.966
139.472
142.934
146.348
149.707
153.007
156.242
159.408
162.5
165.514
168.446
171.292
174.048
176.71
179.274
181.737
184.097
186.351
188.496
190.531
192.454
194.262
195.954
197.529
198.985
200.323
201.541
202.636
203.61
204.46
205.188
205.795
206.279
206.642
206.883
207.005
207.006
206.889
206.654
206.304
205.838
205.259
204.568
203.767
202.858
201.844
200.726
199.507
198.19
196.776
195.269
193.672
191.987
190.218
188.368
186.441
184.439
182.366
180.225
178.022
175.758
173.438
171.066
168.645
166.18
163.675
161.132
158.557
155.952
153.323
150.672
148.004
145.322
142.63
139.933
137.233
134.535
131.84
129.153
126.476
123.811
121.162
118.531
115.92
113.331
110.766
108.228
105.719
103.24
100.793
98.3799
96.002
93.6609
91.3579
89.0945
86.872
84.6917
82.5552
80.464
78.4198
76.4248
74.4814
72.5926
70.7624
68.9954
67.2975
65.6748
64.1341
62.6761
61.3055
25.5363
9.50266
6.66149
5.81228
5.55124
5.54607
5.68184
5.9087
6.20164
6.54693
6.9366
7.36599
7.83251
8.33497
8.87318
9.44771
10.0597
10.7109
11.4033
12.1393
12.9214
13.7525
14.6357
15.574
16.5707
17.629
18.7522
19.9438
21.2067
22.5443
23.9597
25.4558
27.0355
28.7015
30.4562
32.3019
34.2405
36.2736
38.4028
40.6289
42.9527
45.3745
47.8942
50.5114
53.225
56.034
58.9366
61.9306
65.0136
68.1827
71.4346
74.7657
78.172
81.6491
85.1927
88.7978
92.4593
96.1719
99.929
103.725
107.555
111.412
115.29
119.185
123.09
127
130.908
134.809
138.698
142.562
146.384
150.158
153.88
157.542
161.139
164.667
168.12
171.492
174.78
177.979
181.085
184.095
187.005
189.809
192.504
195.086
197.554
199.904
202.136
204.246
206.233
208.096
209.832
211.441
212.921
214.271
215.491
216.581
217.538
218.364
219.058
219.621
220.054
220.355
220.528
220.571
220.487
220.276
219.94
219.48
218.898
218.195
217.374
216.437
215.385
214.222
212.949
211.57
210.087
208.503
206.821
205.045
203.177
201.221
199.18
197.059
194.86
192.589
190.247
187.841
185.372
182.847
180.268
177.64
174.967
172.254
169.503
166.721
163.909
161.074
158.218
155.346
152.462
149.57
146.673
143.775
140.881
137.993
135.115
132.249
129.399
126.567
123.756
120.969
118.207
115.473
112.769
110.097
107.459
104.857
102.292
99.7665
97.2812
94.8379
92.4378
90.0824
87.7731
85.5113
83.2985
81.1366
79.0276
76.974
74.9786
73.045
71.1775
69.3811
67.6608
66.0217
64.4631
62.99
25.7226
9.49981
6.59133
5.70721
5.42076
5.39438
5.51143
5.72139
5.999
6.33048
6.70793
7.12684
7.58484
8.08103
8.61555
9.18939
9.80418
10.4621
11.1658
11.9181
12.7225
13.5824
14.5016
15.4839
16.5332
17.6537
18.8494
20.1242
21.4817
22.9257
24.4597
26.0872
27.8115
29.6354
31.5617
33.5925
35.7298
37.9752
40.3297
42.7941
45.3686
48.0529
50.8463
53.7477
56.7555
59.8675
63.0812
66.3935
69.8011
73.2999
76.8859
80.5544
84.3005
88.119
92.0045
95.9514
99.9545
104.008
108.102
112.231
116.389
120.57
124.767
128.976
133.189
137.401
141.606
145.798
149.968
154.092
158.164
162.176
166.125
170.003
173.805
177.526
181.16
184.703
188.15
191.497
194.739
197.873
200.896
203.803
206.59
209.254
211.794
214.207
216.49
218.642
220.661
222.545
224.293
225.904
227.377
228.711
229.906
230.961
231.876
232.651
233.285
233.781
234.137
234.355
234.435
234.379
234.189
233.864
233.407
232.82
232.103
231.261
230.293
229.204
227.994
226.668
225.227
223.675
222.014
220.249
218.381
216.415
214.354
212.202
209.963
207.64
205.238
202.761
200.212
197.597
194.919
192.184
189.394
186.555
183.672
180.747
177.787
174.795
171.776
168.733
165.672
162.596
159.51
156.417
153.322
150.228
147.14
144.061
140.993
137.942
134.908
131.896
128.909
125.947
123.015
120.115
117.247
114.416
111.622
108.868
106.154
103.483
100.857
98.2756
95.7415
93.2556
90.8195
88.4345
86.1022
83.8243
81.603
79.4404
77.3394
75.3033
73.3358
71.4413
69.6238
67.8872
66.23
64.6575
25.4611
9.38814
6.47074
5.57175
5.26998
5.22902
5.33279
5.53119
5.79935
6.12385
6.49719
6.91529
7.37625
7.87969
8.42629
9.01754
9.65572
10.3437
11.0849
11.8831
12.7422
13.6668
14.6613
15.7304
16.8788
18.1115
19.4333
20.8494
22.3621
23.9757
25.6943
27.5216
29.4608
31.5147
33.6857
35.9757
38.3859
40.9174
43.5704
46.3447
49.2397
52.254
55.3859
58.633
61.9926
65.4612
69.0353
72.7105
76.4822
80.3455
84.295
88.325
92.4297
96.603
100.838
105.13
109.47
113.853
118.27
122.716
127.182
131.664
136.154
140.647
145.137
149.617
154.082
158.526
162.918
167.252
171.521
175.719
179.841
183.88
187.831
191.689
195.45
199.107
202.658
206.098
209.422
212.628
215.712
218.67
221.499
224.196
226.759
229.186
231.475
233.623
235.63
237.493
239.212
240.786
242.214
243.495
244.629
245.616
246.455
247.146
247.691
248.089
248.341
248.449
248.412
248.233
247.912
247.451
246.853
246.118
245.249
244.248
243.118
241.86
240.478
238.975
237.353
235.616
233.766
231.809
229.746
227.582
225.32
222.965
220.521
217.992
215.381
212.695
209.936
207.11
204.221
201.273
198.272
195.223
192.128
188.994
185.825
182.626
179.401
176.154
172.89
169.614
166.329
163.04
159.751
156.466
153.189
149.924
146.673
143.441
140.23
137.044
133.886
130.757
127.66
124.599
121.575
118.59
115.645
112.744
109.888
107.077
104.314
101.601
98.9373
96.3257
93.7673
91.2635
88.8158
86.4258
84.0956
81.8274
79.6237
77.4876
75.4225
73.4321
71.5195
69.6879
67.9353
66.2676
24.7283
9.18044
6.30788
5.41462
5.10927
5.06279
5.16202
5.35847
5.62842
5.95942
6.34487
6.7816
7.2687
7.80691
8.39791
9.04333
9.74663
10.5118
11.3432
12.2457
13.2242
14.2841
15.4306
16.6692
18.0052
19.4438
20.99
22.6483
24.4227
26.3169
28.3342
30.4776
32.7494
35.1514
37.6848
40.3501
43.1471
46.0754
49.1335
52.3197
55.6315
59.066
62.6196
66.2886
70.0684
73.9543
77.9412
82.0234
86.1951
90.4503
94.7827
99.1856
103.652
108.176
112.75
117.368
122.022
126.705
131.41
136.131
140.861
145.593
150.323
155.043
159.75
164.438
169.098
173.698
178.232
182.693
187.077
191.377
195.589
199.705
203.723
207.637
211.442
215.134
218.71
222.165
225.495
228.698
231.771
234.709
237.51
240.173
242.694
245.071
247.303
249.388
251.325
253.111
254.748
256.232
257.564
258.744
259.77
260.644
261.364
261.931
262.346
262.609
262.721
262.683
262.496
262.161
261.68
261.055
260.288
259.38
258.334
257.152
255.836
254.39
252.816
251.118
249.298
247.36
245.308
243.144
240.874
238.501
236.028
233.461
230.804
228.06
225.235
222.334
219.36
216.319
213.216
210.055
206.841
203.579
200.274
196.931
193.555
190.15
186.721
183.272
179.809
176.336
172.857
169.377
165.899
162.428
158.967
155.522
152.094
148.688
145.306
141.953
138.63
135.34
132.086
128.871
125.696
122.564
119.476
116.435
113.441
110.497
107.604
104.764
101.977
99.2458
96.5705
93.953
91.3948
88.8974
86.4628
84.0929
81.7904
79.5578
77.3983
75.3149
73.3103
71.387
69.5427
67.7842
23.718
8.96612
6.1567
5.27737
4.97917
4.94053
5.05158
5.26602
5.56197
5.92862
6.36099
6.85749
7.41873
8.04682
8.74493
9.51693
10.3675
11.302
12.3258
13.445
14.6651
15.9922
17.4318
18.9892
20.6694
22.4769
24.4155
26.4885
28.6985
31.0471
33.5358
36.1649
38.9343
41.8433
44.8902
48.0729
51.3889
54.8348
58.4068
62.1009
65.9124
69.8363
73.8674
78.0001
82.2286
86.5468
90.9486
95.4275
99.9772
104.591
109.262
113.984
118.75
123.553
128.387
133.245
138.121
143.008
147.9
152.791
157.676
162.549
167.405
172.241
177.053
181.823
186.524
191.15
195.697
200.16
204.534
208.813
212.994
217.071
221.04
224.897
228.638
232.26
235.757
239.128
242.369
245.477
248.449
251.282
253.974
256.522
258.924
261.179
263.285
265.24
267.043
268.693
270.189
271.529
272.715
273.744
274.616
275.333
275.893
276.297
276.546
276.64
276.58
276.367
276.002
275.487
274.824
274.013
273.057
271.959
270.719
269.342
267.829
266.184
264.409
262.508
260.484
258.341
256.082
253.711
251.233
248.651
245.969
243.193
240.326
237.374
234.34
231.231
228.05
224.803
221.494
218.129
214.713
211.251
207.747
204.208
200.637
197.04
193.421
189.785
186.138
182.482
178.824
175.167
171.516
167.874
164.246
160.635
157.046
153.481
149.945
146.439
142.966
139.531
136.134
132.78
129.468
126.203
122.985
119.817
116.699
113.635
110.624
107.669
104.77
101.929
99.1478
96.4267
93.7675
91.1718
88.6413
86.178
83.7841
81.4621
79.2148
77.0448
74.9543
72.9455
71.0161
69.1734
22.5161
8.70579
6.01265
5.172
4.90246
4.89602
5.04833
5.31674
5.68243
6.13756
6.68004
7.31113
8.03422
8.85406
9.77625
10.8069
11.9524
13.219
14.613
16.1401
17.8052
19.6128
21.5665
23.6687
25.9213
28.3251
30.8797
33.5843
36.437
39.435
42.5753
45.854
49.2667
52.8088
56.4753
60.2608
64.1598
68.1666
72.2753
76.4801
80.775
85.154
89.6111
94.1403
98.7356
103.391
108.101
112.859
117.659
122.496
127.364
132.258
137.17
142.097
147.032
151.97
156.906
161.835
166.752
171.654
176.535
181.393
186.223
191.025
195.771
200.442
205.033
209.541
213.961
218.289
222.522
226.655
230.684
234.605
238.414
242.108
245.684
249.137
252.464
255.663
258.73
261.663
264.459
267.115
269.63
272
274.224
276.301
278.228
280.004
281.627
283.098