/*--------------------------------*- C++ -*----------------------------------*\
| =========                 |                                                 |
| \\      /  F ield         | OpenFOAM: The Open Source CFD Toolbox           |
|  \\    /   O peration     | Version:  2412                                  |
|   \\  /    A nd           | Website:  www.openfoam.com                      |
|    \\/     M anipulation  |                                                 |
\*---------------------------------------------------------------------------*/
FoamFile
{
    version     2.0;
    format      ascii;
    arch        "LSB;label=32;scalar=64";
    class       volScalarField;
    location    "0.2";
    object      k;
}
// * * * * * * * * * * * * * * * * * * * * * * * * * * * * * * * * * * * * * //

dimensions      [0 2 -2 0 0 0 0];

internalField   nonuniform List<scalar> 
12225
(
0.316793
0.394493
0.477906
0.542614
0.59383
0.634376
0.666729
0.692784
0.713885
0.731046
0.745049
0.756486
0.76581
0.77336
0.779394
0.784047
0.787436
0.790411
0.569139
0.788914
0.952582
1.068
1.1512
1.2127
1.25817
1.29171
1.31631
1.33412
1.34671
1.35526
1.36067
1.36364
1.36473
1.36428
1.36351
1.36142
0.670061
0.972154
1.18323
1.33202
1.43945
1.51861
1.57693
1.61968
1.65077
1.67302
1.6885
1.69879
1.70508
1.7083
1.70922
1.70843
1.70694
1.70491
0.722108
1.07674
1.32651
1.50447
1.63403
1.72971
1.80042
1.85243
1.89038
1.91766
1.93679
1.94967
1.95775
1.9622
1.96393
1.96374
1.96263
1.96115
0.742771
1.1292
1.41224
1.61818
1.77022
1.88337
1.96762
2.03016
2.07624
2.10979
2.13375
2.15033
2.16126
2.16791
2.17137
2.1726
2.17261
2.17208
0.739914
1.13776
1.44637
1.67819
1.85304
1.98505
2.08466
2.15963
2.21576
2.25741
2.28789
2.30976
2.32499
2.33515
2.34153
2.34522
2.34723
2.3482
0.719619
1.1088
1.43132
1.68402
1.88028
2.03176
2.14827
2.23764
2.30593
2.35779
2.39685
2.42593
2.44725
2.46258
2.47338
2.48083
2.48595
2.48933
0.687641
1.05045
1.37183
1.63646
1.84972
2.01923
2.15291
2.2579
2.34007
2.40411
2.45379
2.49211
2.52147
2.54382
2.56072
2.57348
2.58309
2.59003
0.648985
0.972376
1.27661
1.54079
1.76292
1.94591
2.0947
2.21484
2.31143
2.38882
2.45065
2.49991
2.53909
2.57021
2.59493
2.61459
2.63018
2.64205
0.607483
0.884085
1.15747
1.40738
1.62722
1.8157
1.97444
2.10672
2.21625
2.30656
2.38083
2.44182
2.4919
2.53305
2.56693
2.59486
2.6178
2.63593
0.565818
0.793317
1.02683
1.25029
1.45565
1.63913
1.79963
1.93803
2.0563
2.15679
2.24187
2.31378
2.37454
2.42593
2.46947
2.50639
2.53755
2.5629
0.528745
0.712092
0.905176
1.09645
1.27867
1.44748
1.60042
1.73672
1.85683
1.96188
2.05329
2.13262
2.20139
2.261
2.31272
2.3576
2.3963
2.42849
0.494651
0.637269
0.790579
0.946982
1.10075
1.24802
1.38599
1.51301
1.62844
1.73236
1.82532
1.90811
1.98165
2.0469
2.10477
2.15603
2.20112
2.23939
0.460674
0.562142
0.673142
0.789674
0.907896
1.02493
1.13846
1.24667
1.34841
1.44305
1.53039
1.61051
1.6837
1.75037
1.81096
1.8659
1.91532
1.95823
0.429344
0.492746
0.562797
0.638288
0.717347
0.798311
0.879683
0.960111
1.0385
1.11403
1.18615
1.25452
1.31896
1.37941
1.43591
1.48851
1.53707
1.58037
0.403167
0.435383
0.470975
0.510051
0.552186
0.596851
0.643469
0.691398
0.739992
0.788671
0.836939
0.88439
0.930695
0.975601
1.01891
1.06046
1.09997
1.13634
0.384082
0.394608
0.406481
0.419891
0.434844
0.451297
0.469191
0.488412
0.508802
0.530177
0.552342
0.575103
0.598265
0.621619
0.644982
0.668195
0.691049
0.713008
0.374047
0.373709
0.374089
0.375205
0.377036
0.379559
0.382761
0.386628
0.391139
0.396263
0.401966
0.408209
0.414949
0.422159
0.429797
0.437806
0.446119
0.454626
0.376606
0.378924
0.38199
0.385851
0.390485
0.395853
0.401921
0.408645
0.415967
0.423818
0.43213
0.440831
0.44985
0.459119
0.468573
0.478151
0.487778
0.497235
0.394948
0.41778
0.442958
0.470557
0.500298
0.531819
0.564729
0.598598
0.632976
0.667447
0.701643
0.735256
0.768031
0.79977
0.830327
0.859591
0.887439
0.913468
0.427771
0.489067
0.556231
0.628016
0.702582
0.778289
0.853704
0.927569
0.998872
1.06689
1.13114
1.19137
1.24744
1.29937
1.34727
1.39127
1.43155
1.46812
0.475741
0.594974
0.723611
0.855982
0.987199
1.11394
1.23382
1.34523
1.44735
1.53997
1.62328
1.69776
1.76401
1.82271
1.87457
1.92027
1.96043
1.99557
0.536847
0.728696
0.928628
1.12373
1.30643
1.47304
1.62183
1.75257
1.86611
1.96394
2.0477
2.1191
2.17972
2.23102
2.2743
2.31071
2.34122
2.36668
0.604142
0.87397
1.14016
1.3824
1.59448
1.77606
1.92884
2.05585
2.16064
2.24661
2.31679
2.37382
2.41993
2.45698
2.48653
2.50987
2.52808
2.54208
0.668315
1.00766
1.31642
1.57533
1.7871
1.95803
2.09448
2.20266
2.288
2.35498
2.4072
2.44756
2.4784
2.50156
2.51856
2.53058
2.5386
2.54349
0.717304
1.09919
1.41419
1.65889
1.84812
1.99399
2.10591
2.19145
2.25649
2.30557
2.34216
2.36896
2.38805
2.40109
2.40933
2.41381
2.41531
2.41459
0.735718
1.11862
1.40734
1.61983
1.77772
1.89573
1.98395
2.04967
2.09826
2.13377
2.15921
2.17689
2.18853
2.19548
2.19879
2.19926
2.19754
2.19422
0.7082
1.04716
1.29075
1.46557
1.59175
1.68428
1.75245
1.80244
1.83877
1.86479
1.88294
1.89508
1.90256
1.90646
1.9076
1.90659
1.90395
1.90014
0.616922
0.862574
1.0489
1.18265
1.27674
1.34491
1.39483
1.43126
1.45767
1.47656
1.48974
1.49855
1.50399
1.50684
1.50768
1.50697
1.50508
1.50239
0.33327
0.408788
0.496175
0.564092
0.616605
0.657439
0.689399
0.714707
0.734941
0.751229
0.764417
0.775152
0.783928
0.791126
0.797047
0.801929
0.805947
0.809278
0.00725951
0.0116397
0.014964
0.017567
0.0195622
0.0211815
0.0230172
0.0249682
0.0269933
0.0291212
0.0314104
0.0340117
0.0373646
0.0411507
0.045289
0.0497347
0.0544844
0.0595458
0.0649229
0.0706125
0.0766041
0.0828818
0.0894262
0.0962172
0.103236
0.110468
0.117903
0.12554
0.133387
0.141467
0.149818
0.15833
0.166951
0.175666
0.184464
0.193335
0.20227
0.211261
0.220302
0.229387
0.23851
0.247668
0.256855
0.266067
0.2753
0.28455
0.293812
0.303082
0.312356
0.321627
0.330892
0.340145
0.34938
0.358592
0.367774
0.376921
0.386027
0.395084
0.404087
0.413029
0.421902
0.430701
0.439419
0.448049
0.456584
0.465017
0.473343
0.481555
0.489647
0.497616
0.505459
0.513177
0.520777
0.528278
0.535715
0.543027
0.550152
0.557096
0.563861
0.570445
0.576844
0.583053
0.589069
0.594885
0.600498
0.605903
0.611097
0.616075
0.620834
0.62537
0.629681
0.633762
0.637613
0.64123
0.64461
0.647753
0.650655
0.653316
0.655734
0.657908
0.659836
0.661518
0.662954
0.664143
0.665084
0.665778
0.666224
0.666424
0.666377
0.666084
0.665546
0.664764
0.663739
0.662473
0.660968
0.659225
0.657247
0.655036
0.652594
0.649925
0.647031
0.643917
0.640584
0.637038
0.633283
0.629322
0.62516
0.620802
0.616253
0.611519
0.606604
0.601516
0.596258
0.590839
0.585264
0.579539
0.573673
0.567672
0.561539
0.555297
0.54893
0.542488
0.536019
0.529918
0.525816
0.522215
0.518566
0.514831
0.511009
0.507105
0.503124
0.499071
0.494951
0.49077
0.486534
0.482249
0.47792
0.473553
0.469153
0.464726
0.460277
0.455813
0.451337
0.446856
0.442372
0.437891
0.433416
0.428949
0.424491
0.420041
0.415595
0.411145
0.406675
0.40216
0.397549
0.39275
0.387558
0.381452
0.37355
0.362901
0.0153513
0.0243017
0.032282
0.0387946
0.0447007
0.0505956
0.0563713
0.0622733
0.0684995
0.0751667
0.0822873
0.0898325
0.0977665
0.106023
0.11456
0.12336
0.132423
0.141761
0.151386
0.161313
0.171554
0.18212
0.193023
0.204269
0.215866
0.227816
0.240118
0.25277
0.265764
0.279089
0.292729
0.30666
0.320866
0.335332
0.350042
0.364983
0.38014
0.395502
0.411055
0.426788
0.44269
0.458752
0.474964
0.491317
0.507803
0.524412
0.541137
0.557968
0.574898
0.591917
0.609016
0.626185
0.643414
0.660693
0.67801
0.695355
0.712715
0.73008
0.747436
0.764771
0.782072
0.799327
0.816522
0.833645
0.850682
0.867621
0.884448
0.90115
0.917716
0.934132
0.950386
0.966466
0.982359
0.998052
1.01345
1.0285
1.04328
1.0578
1.07205
1.08604
1.09974
1.11314
1.12625
1.13903
1.1515
1.16363
1.17541
1.18685
1.19792
1.20862
1.21894
1.22888
1.23842
1.24757
1.25631
1.26463
1.27254
1.28002
1.28708
1.2937
1.29989
1.30563
1.31093
1.31578
1.32018
1.32413
1.32762
1.33065
1.33323
1.33534
1.33699
1.33818
1.33891
1.33918
1.33898
1.33833
1.33721
1.33564
1.33361
1.33114
1.32821
1.32484
1.32102
1.31677
1.31209
1.30698
1.30146
1.29552
1.28918
1.28243
1.2753
1.26779
1.2599
1.25165
1.24306
1.23411
1.22484
1.21525
1.20534
1.19517
1.18465
1.17393
1.16305
1.15207
1.14125
1.13038
1.11935
1.10814
1.09676
1.08523
1.07355
1.06175
1.04984
1.03782
1.02571
1.01353
1.00129
0.988998
0.976669
0.964315
0.951948
0.93958
0.927222
0.914884
0.902578
0.890312
0.878094
0.865934
0.853836
0.841804
0.829841
0.817944
0.806107
0.794314
0.78254
0.770744
0.758825
0.746664
0.732757
0.717529
0.022568
0.0386309
0.0505685
0.0599113
0.0682705
0.0760332
0.0837493
0.0917312
0.100149
0.109061
0.11845
0.128256
0.138416
0.148878
0.159619
0.170639
0.181961
0.193621
0.205657
0.218107
0.231008
0.244386
0.258262
0.272647
0.287543
0.302944
0.318836
0.335199
0.352009
0.369236
0.38685
0.404823
0.423126
0.441734
0.460623
0.479773
0.499163
0.518776
0.538596
0.558611
0.578807
0.599173
0.6197
0.640379
0.661199
0.682153
0.703232
0.724426
0.745726
0.767124
0.788608
0.810168
0.831793
0.85347
0.875189
0.896935
0.918695
0.940455
0.962201
0.983918
1.00559
1.0272
1.04874
1.07019
1.09153
1.11275
1.13383
1.15475
1.17551
1.19609
1.21647
1.23664
1.25659
1.27631
1.29569
1.31475
1.3335
1.35193
1.37003
1.38778
1.40518
1.42221
1.43884
1.45508
1.47091
1.48631
1.50128
1.51579
1.52984
1.54342
1.55652
1.56913
1.58123
1.59282
1.6039
1.61445
1.62446
1.63393
1.64286
1.65123
1.65905
1.6663
1.67298
1.67909
1.68463
1.68958
1.69396
1.69775
1.70095
1.70357
1.7056
1.70704
1.7079
1.70816
1.70784
1.70693
1.70543
1.70336
1.70071
1.69748
1.69368
1.68931
1.68439
1.67891
1.67288
1.66631
1.65921
1.65158
1.64344
1.6348
1.62566
1.61604
1.60594
1.59538
1.58438
1.57294
1.56109
1.54884
1.53616
1.52318
1.50986
1.49625
1.48238
1.46833
1.45419
1.4399
1.42541
1.4107
1.3958
1.3807
1.36543
1.35
1.33444
1.31875
1.30296
1.28707
1.27112
1.25511
1.23905
1.22298
1.20689
1.1908
1.17474
1.15871
1.14272
1.12679
1.11093
1.09516
1.07947
1.06389
1.04841
1.03304
1.01778
1.00264
0.987606
0.972685
0.957866
0.943188
0.9282
0.912673
0.0289323
0.0533112
0.0687037
0.0802234
0.090014
0.0991491
0.108186
0.11745
0.127118
0.137258
0.147867
0.158907
0.170333
0.182119
0.19426
0.206775
0.219702
0.233084
0.246967
0.26139
0.276385
0.291973
0.308162
0.324951
0.342327
0.360272
0.378759
0.397758
0.417235
0.437158
0.457492
0.478206
0.499271
0.520662
0.542355
0.564329
0.586566
0.60905
0.631766
0.654702
0.677847
0.701191
0.724724
0.748437
0.772321
0.796368
0.820568
0.844912
0.86939
0.893992
0.918706
0.94352
0.968421
0.993397
1.01843
1.04351
1.06862
1.09374
1.11886
1.14395
1.16901
1.19401
1.21893
1.24376
1.26847
1.29305
1.31748
1.34174
1.36582
1.38969
1.41335
1.43677
1.45993
1.48281
1.50533
1.52751
1.54933
1.57078
1.59183
1.61249
1.63272
1.65252
1.67186
1.69074
1.70913
1.72702
1.74439
1.76123
1.77753
1.79328
1.80845
1.82305
1.83705
1.85046
1.86325
1.87543
1.88697
1.89789
1.90815
1.91777
1.92674
1.93504
1.94267
1.94964
1.95593
1.96154
1.96647
1.97072
1.97428
1.97716
1.97935
1.98085
1.98166
1.98179
1.98123
1.97999
1.97807
1.97547
1.9722
1.96825
1.96365
1.95839
1.95248
1.94592
1.93873
1.93091
1.92247
1.91343
1.90379
1.89357
1.88277
1.87142
1.85952
1.84708
1.83415
1.82069
1.80676
1.79241
1.77762
1.76245
1.74689
1.73098
1.71477
1.6983
1.68163
1.66476
1.64764
1.6303
1.61272
1.59494
1.57696
1.55881
1.5405
1.52206
1.50351
1.48485
1.46613
1.44734
1.42851
1.40966
1.3908
1.37196
1.35314
1.33437
1.31566
1.29703
1.27849
1.26005
1.24173
1.22353
1.20549
1.18759
1.16986
1.15231
1.13497
1.11787
1.10107
1.08472
1.06873
1.05309
0.0340774
0.0667804
0.0851651
0.0983776
0.109507
0.119749
0.129731
0.139823
0.150237
0.161078
0.172385
0.184156
0.196383
0.209062
0.222206
0.235842
0.250006
0.264738
0.280074
0.296044
0.312666
0.329947
0.347885
0.366468
0.385676
0.405484
0.425861
0.446775
0.468194
0.490086
0.512419
0.535165
0.558297
0.581792
0.605629
0.629788
0.654254
0.679011
0.704047
0.729349
0.754907
0.780711
0.806751
0.833018
0.859503
0.886196
0.913086
0.940164
0.967418
0.994835
1.0224
1.05011
1.07793
1.10586
1.13389
1.16198
1.19012
1.2183
1.2465
1.27468
1.30284
1.33095
1.35899
1.38693
1.41476
1.44245
1.46998
1.49733
1.52448
1.5514
1.57808
1.6045
1.63063
1.65641
1.68182
1.70683
1.73144
1.75563
1.77938
1.80266
1.82547
1.84777
1.86956
1.89081
1.9115
1.93162
1.95116
1.97009
1.98839
2.00607
2.02309
2.03945
2.05514
2.07014
2.08445
2.09805
2.11094
2.1231
2.13453
2.14522
2.15516
2.16436
2.1728
2.18047
2.18738
2.19352
2.19889
2.20349
2.20731
2.21036
2.21262
2.21411
2.21483
2.21477
2.21394
2.21234
2.20997
2.20684
2.20295
2.19831
2.19293
2.1868
2.17995
2.17237
2.16409
2.1551
2.14542
2.13506
2.12404
2.11236
2.10004
2.08711
2.07356
2.0594
2.04472
2.02949
2.01375
1.99751
1.98081
1.96366
1.94609
1.92813
1.90981
1.89119
1.8723
1.85315
1.83373
1.81406
1.79414
1.774
1.75364
1.7331
1.7124
1.69155
1.67059
1.64952
1.62837
1.60717
1.58593
1.56467
1.54341
1.52218
1.50098
1.47984
1.45878
1.43782
1.41696
1.39623
1.37565
1.35523
1.33498
1.31494
1.29511
1.27554
1.25626
1.23735
1.21891
1.20113
1.18408
1.16791
0.0389293
0.0779302
0.0988442
0.113724
0.126083
0.137274
0.148009
0.158709
0.169634
0.180937
0.192699
0.204963
0.217752
0.231084
0.244982
0.259474
0.27459
0.290361
0.306809
0.323951
0.341796
0.360341
0.379577
0.399488
0.420051
0.441241
0.46303
0.485388
0.508287
0.531698
0.555594
0.579951
0.604745
0.629957
0.655567
0.681559
0.707917
0.734629
0.761681
0.789062
0.816762
0.84477
0.873075
0.901669
0.93054
0.959677
0.989068
1.0187
1.04856
1.07864
1.10892
1.13938
1.17
1.20077
1.23167
1.26267
1.29376
1.32491
1.35609
1.38729
1.41847
1.44962
1.48071
1.5117
1.54258
1.57332
1.60388
1.63426
1.66441
1.69432
1.72395
1.75329
1.78231
1.81093
1.83913
1.8669
1.89421
1.92105
1.94739
1.97321
1.99849
2.02321
2.04734
2.07087
2.09378
2.11603
2.13763
2.15854
2.17876
2.19826
2.21704
2.23507
2.25234
2.26885
2.28458
2.29951
2.31365
2.32697
2.33948
2.35115
2.362
2.37201
2.38117
2.38948
2.39694
2.40355
2.40929
2.41418
2.4182
2.42136
2.42366
2.4251
2.42567
2.42539
2.42425
2.42226
2.41943
2.41575
2.41123
2.40589
2.39972
2.39275
2.38496
2.37638
2.36702
2.35689
2.346
2.33436
2.322
2.30893
2.29512
2.28068
2.26558
2.24985
2.23351
2.21659
2.19911
2.18109
2.16257
2.14355
2.12408
2.10418
2.08388
2.06323
2.04227
2.021
1.99944
1.9776
1.9555
1.93316
1.9106
1.88784
1.86492
1.84184
1.81864
1.79534
1.77196
1.74853
1.72506
1.70158
1.67811
1.65468
1.6313
1.60798
1.58477
1.56166
1.53869
1.51587
1.49322
1.47076
1.44852
1.42653
1.4048
1.3834
1.36238
1.34184
1.3219
1.30276
1.28456
1.26747
0.0455062
0.0869828
0.109816
0.12605
0.139443
0.151446
0.162823
0.174035
0.18538
0.197051
0.20917
0.221813
0.235031
0.248859
0.263328
0.278465
0.294293
0.310835
0.328104
0.346108
0.364848
0.384318
0.404506
0.425396
0.446967
0.469198
0.492063
0.51554
0.539603
0.56423
0.589399
0.615088
0.64128
0.667956
0.695101
0.7227
0.750739
0.779206
0.808088
0.837376
0.867057
0.897121
0.927556
0.958352
0.989497
1.02098
1.05278
1.08489
1.11729
1.14997
1.1829
1.21607
1.24945
1.28303
1.31678
1.35067
1.38469
1.41879
1.45296
1.48717
1.52138
1.55557
1.5897
1.62375
1.65768
1.69147
1.72507
1.75847
1.79163
1.82451
1.8571
1.88936
1.92124
1.95268
1.98366
2.01416
2.04415
2.0736
2.10251
2.13083
2.15855
2.18564
2.21207
2.23784
2.2629
2.28725
2.31085
2.3337
2.35578
2.37706
2.39752
2.41717
2.43597
2.45393
2.47102
2.48723
2.50255
2.51698
2.53051
2.54312
2.55481
2.56557
2.57541
2.58431
2.59227
2.59928
2.60536
2.61049
2.61467
2.6179
2.62019
2.62153
2.62193
2.6214
2.61993
2.61752
2.61419
2.60995
2.60479
2.59872
2.59176
2.58392
2.5752
2.56562
2.55519
2.54392
2.53183
2.51892
2.50524
2.4908
2.47561
2.4597
2.44309
2.4258
2.40787
2.3893
2.37013
2.35038
2.33009
2.30927
2.28796
2.26618
2.24398
2.22138
2.19842
2.17513
2.15153
2.12762
2.10344
2.07901
2.05435
2.02949
2.00445
1.97925
1.95393
1.92851
1.90302
1.87747
1.8519
1.82632
1.80076
1.77525
1.7498
1.72444
1.69919
1.67407
1.6491
1.62431
1.59973
1.57536
1.55125
1.52743
1.50394
1.48083
1.45818
1.43609
1.41472
1.39424
1.37479
1.35648
0.0512298
0.0938048
0.118039
0.135326
0.149562
0.162256
0.1742
0.185878
0.197612
0.209621
0.222057
0.23502
0.248583
0.262793
0.277689
0.293298
0.309641
0.326734
0.344587
0.363202
0.382579
0.402711
0.423588
0.445196
0.467519
0.490539
0.514238
0.538598
0.5636
0.589227
0.615462
0.642288
0.669691
0.697656
0.726171
0.755222
0.784798
0.814888
0.84548
0.876562
0.908125
0.940156
0.972642
1.00557
1.03893
1.07271
1.10688
1.14143
1.17635
1.21161
1.24719
1.28306
1.31921
1.35561
1.39222
1.42902
1.46598
1.50307
1.54024
1.57748
1.61474
1.652
1.6892
1.72632
1.76333
1.80018
1.83684
1.87328
1.90945
1.94533
1.98088
2.01607
2.05081
2.08506
2.11881
2.15201
2.18466
2.21672
2.24816
2.27896
2.30908
2.33851
2.36722
2.39518
2.42236
2.44876
2.47433
2.49907
2.52295
2.54596
2.56807
2.58928
2.60956
2.62891
2.64731
2.66475
2.68121
2.69669
2.71118
2.72467
2.73716
2.74863
2.75908
2.76852
2.77693
2.78432
2.79067
2.796
2.8003
2.80356
2.8058
2.80702
2.80721
2.80639
2.80455
2.80171
2.79786
2.79302
2.78719
2.78039
2.77263
2.76391
2.75424
2.74364
2.73214
2.71974
2.70647
2.69234
2.67737
2.66159
2.64501
2.62766
2.60957
2.59076
2.57124
2.55106
2.53024
2.5088
2.48678
2.4642
2.4411
2.4175
2.39344
2.36895
2.34407
2.31884
2.29326
2.26737
2.24119
2.21474
2.18806
2.16117
2.1341
2.10688
2.07953
2.05208
2.02455
1.99699
1.9694
1.94181
1.91426
1.88676
1.85934
1.83202
1.80483
1.77779
1.75093
1.72427
1.69783
1.67165
1.64577
1.62021
1.59504
1.57031
1.5461
1.52253
1.49975
1.47793
1.45714
1.4375
0.0559764
0.0985256
0.123687
0.141743
0.156635
0.169901
0.182341
0.194447
0.20655
0.218883
0.231612
0.244857
0.258702
0.273206
0.288415
0.304357
0.321055
0.338523
0.356771
0.375802
0.395616
0.41621
0.437576
0.459705
0.482588
0.506212
0.530567
0.555639
0.581416
0.607887
0.635041
0.662864
0.691348
0.720481
0.750252
0.780653
0.811672
0.8433
0.875525
0.908337
0.941724
0.975674
1.01017
1.04521
1.08076
1.11681
1.15334
1.19034
1.22778
1.26563
1.30387
1.34247
1.3814
1.42064
1.46014
1.49988
1.53981
1.5799
1.62012
1.66041
1.70075
1.74108
1.78138
1.8216
1.86169
1.90162
1.94134
1.98082
2.02001
2.05888
2.09738
2.13547
2.17305
2.21009
2.24658
2.28247
2.31774
2.35236
2.3863
2.41953
2.45202
2.48374
2.51466
2.54476
2.57401
2.60239
2.62987
2.65644
2.68206
2.70673
2.73043
2.75313
2.77483
2.79551
2.81515
2.83375
2.85129
2.86777
2.88316
2.89747
2.91069
2.92281
2.93383
2.94375
2.95256
2.96026
2.96685
2.97233
2.9767
2.97996
2.98211
2.98316
2.98311
2.98196
2.97973
2.97641
2.97202
2.96657
2.96005
2.95249
2.9439
2.9343
2.92369
2.9121
2.89954
2.88603
2.87159
2.85623
2.83999
2.82289
2.80494
2.78618
2.76662
2.7463
2.72525
2.70349
2.68104
2.65795
2.63425
2.60995
2.5851
2.55972
2.53386
2.50754
2.48081
2.45369
2.42621
2.39841
2.3703
2.34192
2.31329
2.28446
2.25544
2.22626
2.19696
2.16756
2.13809
2.10858
2.07906
2.04955
2.02009
1.99069
1.96138
1.93219
1.90314
1.87427
1.84559
1.81714
1.78894
1.76104
1.73345
1.70624
1.67946
1.65317
1.62746
1.60246
1.57828
1.5551
1.53295
1.51191
0.0597509
0.101381
0.127056
0.145621
0.160991
0.174707
0.187564
0.200049
0.21249
0.225123
0.23812
0.251609
0.265683
0.280409
0.295837
0.312002
0.32893
0.346637
0.365137
0.384435
0.404536
0.425441
0.447149
0.469658
0.492963
0.51706
0.541944
0.56761
0.594051
0.621263
0.649238
0.67797
0.707453
0.73768
0.768644
0.800337
0.83275
0.865875
0.899701
0.934217
0.96941
1.00527
1.04177
1.07891
1.11666
1.15501
1.19392
1.23338
1.27336
1.31383
1.35476
1.39611
1.43786
1.47996
1.52238
1.56507
1.608
1.65112
1.69438
1.73774
1.78116
1.82458
1.86797
1.91127
1.95443
1.99742
2.04018
2.08267
2.12485
2.16667
2.20809
2.24901
2.28937
2.32915
2.36831
2.40682
2.44464
2.48175
2.5181
2.55368
2.58844
2.62237
2.65542
2.68758
2.71881
2.74908
2.77838
2.80668
2.83396
2.8602
2.88539
2.9095
2.93252
2.95444
2.97524
2.99492
3.01346
3.03084
3.04707
3.06212
3.076
3.0887
3.10022
3.11055
3.1197
3.12766
3.13443
3.14001
3.14439
3.14759
3.14961
3.15045
3.15012
3.14861
3.14594
3.14213
3.13717
3.13108
3.12387
3.11556
3.10615
3.09567
3.08412
3.07153
3.05792
3.04331
3.02771
3.01115
2.99366
2.97525
2.95596
2.9358
2.91482
2.89303
2.87047
2.84717
2.82315
2.79845
2.7731
2.74714
2.7206
2.6935
2.6659
2.63781
2.60929
2.58036
2.55106
2.52142
2.49146
2.46122
2.43074
2.40003
2.36914
2.3381
2.30693
2.27567
2.24434
2.21298
2.18162
2.15027
2.11898
2.08777
2.05666
2.02568
1.99487
1.96424
1.93384
1.90368
1.8738
1.84424
1.81503
1.78624
1.75791
1.73013
1.70297
1.67656
1.65101
1.62647
1.60294
1.5805
0.0625915
0.102635
0.128481
0.147333
0.163017
0.177061
0.190245
0.203043
0.215775
0.228671
0.241901
0.255594
0.269848
0.284735
0.300311
0.316616
0.33368
0.351528
0.370175
0.389636
0.40992
0.431035
0.452988
0.475784
0.499425
0.523915
0.549256
0.57545
0.602497
0.630398
0.659152
0.688757
0.719212
0.750512
0.782655
0.815634
0.849442
0.884071
0.919511
0.95575
0.992774
1.03057
1.06912
1.10839
1.14838
1.18906
1.23039
1.27235
1.31491
1.35804
1.40168
1.44582
1.49041
1.53539
1.58074
1.6264
1.67233
1.71846
1.76476
1.81117
1.85764
1.90411
1.95054
1.99687
2.04304
2.08902
2.13475
2.18018
2.22525
2.26993
2.31415
2.3578
2.40084
2.44323
2.48495
2.52594
2.56619
2.60565
2.6443
2.68209
2.719
2.755
2.79005
2.82412
2.85719
2.88923
2.92021
2.95011
2.97891
3.0066
3.03315
3.05854
3.08277
3.10582
3.12767
3.14831
3.16774
3.18594
3.20289
3.21859
3.23304
3.24623
3.25816
3.26883
3.27824
3.28639
3.29327
3.29888
3.30323
3.30632
3.30815
3.30874
3.30808
3.30619
3.30307
3.29873
3.2932
3.28646
3.27855
3.26947
3.25924
3.24788
3.23541
3.22183
3.20719
3.19148
3.17475
3.15701
3.13829
3.11861
3.09801
3.0765
3.05413
3.03092
3.0069
2.9821
2.95656
2.93031
2.90339
2.87583
2.84765
2.81891
2.78964
2.75987
2.72963
2.69898
2.66794
2.63654
2.60483
2.57283
2.54057
2.5081
2.47544
2.44262
2.40968
2.37665
2.34356
2.31044
2.27733
2.24425
2.21122
2.17829
2.14547
2.11281
2.08032
2.04803
2.01598
1.9842
1.95273
1.92159
1.89085
1.86055
1.83075
1.80153
1.77298
1.7452
1.71831
1.69242
1.66752
1.64369
0.0645471
0.102548
0.128296
0.147253
0.163108
0.177362
0.19078
0.203818
0.216781
0.22989
0.243309
0.257165
0.271555
0.286557
0.302229
0.318618
0.33576
0.353687
0.372423
0.391988
0.412401
0.433678
0.455833
0.478879
0.502828
0.527692
0.553479
0.580198
0.607856
0.636461
0.666015
0.696523
0.727986
0.760405
0.793777
0.828099
0.863363
0.899563
0.936686
0.97472
1.01365
1.05345
1.09411
1.13561
1.1779
1.22097
1.26478
1.3093
1.35448
1.4003
1.4467
1.49364
1.54107
1.58894
1.6372
1.6858
1.73469
1.7838
1.83307
1.88246
1.93189
1.98132
2.03068
2.07992
2.12899
2.17783
2.22638
2.27459
2.32241
2.3698
2.41662
2.46281
2.50834
2.55315
2.59723
2.64052
2.683
2.72462
2.76535
2.80516
2.84402
2.88189
2.91875
2.95455
2.98927
3.02288
3.05536
3.08669
3.11684
3.14579
3.17354
3.20006
3.22533
3.24935
3.2721
3.29357
3.31376
3.33264
3.3502
3.36643
3.38133
3.39491
3.40715
3.41806
3.42764
3.43589
3.4428
3.44838
3.45263
3.45555
3.45716
3.45745
3.45643
3.45413
3.45053
3.44566
3.43952
3.43214
3.42352
3.41367
3.40263
3.3904
3.37701
3.36247
3.3468
3.33004
3.31221
3.29332
3.27341
3.25251
3.23064
3.20783
3.18413
3.15955
3.13413
3.10791
3.08092
3.0532
3.02477
2.99569
2.96597
2.93567
2.90481
2.87345
2.8416
2.80932
2.77665
2.7436
2.71024
2.67658
2.64266
2.60852
2.5742
2.53972
2.50512
2.47043
2.43569
2.40093
2.36617
2.33146
2.29681
2.26227
2.22785
2.1936
2.15953
2.12569
2.0921
2.0588
2.02582
1.99321
1.96101
1.92928
1.89809
1.8675
1.83761
1.80851
1.78031
1.75311
1.72687
1.70168
0.0656653
0.101354
0.126805
0.145725
0.161633
0.175998
0.18956
0.202761
0.215892
0.229162
0.242726
0.256708
0.271205
0.286293
0.302037
0.31849
0.335694
0.353688
0.372505
0.392176
0.412726
0.434181
0.456565
0.4799
0.504206
0.529502
0.555805
0.583131
0.611492
0.6409
0.671364
0.702891
0.735487
0.769153
0.803888
0.839689
0.876549
0.914459
0.953404
0.993369
1.03433
1.07627
1.11917
1.16298
1.20768
1.25322
1.29959
1.34672
1.39457
1.4431
1.49226
1.54199
1.59224
1.64295
1.69407
1.74553
1.79728
1.84925
1.90137
1.95358
2.00581
2.05801
2.11012
2.16207
2.21381
2.26528
2.31642
2.36718
2.4175
2.4673
2.51645
2.56491
2.61264
2.65961
2.70576
2.75107
2.79549
2.83899
2.88154
2.92309
2.96362
3.0031
3.04151
3.07879
3.1149
3.14984
3.18357
3.21609
3.24735
3.27736
3.30609
3.33352
3.35965
3.38445
3.40791
3.43003
3.45079
3.47019
3.4882
3.50482
3.52006
3.5339
3.54634
3.5574
3.56705
3.57531
3.58218
3.58765
3.59174
3.59444
3.59576
3.59572
3.59431
3.59156
3.58746
3.58203
3.57529
3.56724
3.55791
3.54731
3.53547
3.52238
3.50809
3.49262
3.47597
3.45819
3.43929
3.41931
3.39826
3.37619
3.35312
3.32909
3.30412
3.27825
3.25152
3.22396
3.19561
3.1665
3.13667
3.10616
3.07501
3.04325
3.01092
2.97807
2.94473
2.91094
2.87675
2.84219
2.80729
2.7721
2.73664
2.70097
2.66511
2.62909
2.59296
2.55675
2.52048
2.4842
2.44793
2.41171
2.37557
2.33954
2.30364
2.26792
2.2324
2.19711
2.16209
2.12738
2.093
2.05902
2.02546
1.9924
1.95989
1.92802
1.89685
1.8665
1.83705
1.80857
1.78105
1.75455
0.0659852
0.0992593
0.124273
0.143056
0.158929
0.173321
0.186955
0.200254
0.213498
0.226884
0.240564
0.254655
0.269252
0.284435
0.30027
0.316817
0.334126
0.352243
0.371211
0.391069
0.411854
0.4336
0.45634
0.480105
0.504925
0.530827
0.557835
0.585971
0.615249
0.645684
0.677288
0.710071
0.74404
0.779196
0.815538
0.853061
0.891754
0.931603
0.97259
1.01469
1.05789
1.10214
1.14742
1.19369
1.24091
1.28903
1.338
1.38779
1.43832
1.48955
1.54143
1.59388
1.64685
1.70027
1.75409
1.80824
1.86266
1.91729
1.97202
2.02679
2.08154
2.13622
2.19076
2.2451
2.29917
2.35292
2.4063
2.45925
2.51169
2.56348
2.61457
2.66491
2.71446
2.76317
2.81102
2.85796
2.90395
2.94895
2.99293
3.03586
3.0777
3.11843
3.15802
3.19642
3.23361
3.26956
3.30425
3.33766
3.36978
3.40057
3.43003
3.45814
3.48488
3.51024
3.53421
3.55678
3.57793
3.59766
3.61596
3.63282
3.64824
3.66221
3.67473
3.6858
3.69543
3.70361
3.71034
3.71563
3.71948
3.7219
3.72289
3.72246
3.72062
3.71739
3.71276
3.70677
3.69941
3.6907
3.68067
3.66933
3.65669
3.64279
3.62764
3.61126
3.59368
3.57493
3.55503
3.53401
3.51191
3.48875
3.46456
3.43938
3.41324
3.38618
3.35823
3.32944
3.29983
3.26945
3.23833
3.20652
3.17405
3.14096
3.1073
3.0731
3.0384
3.00324
2.96767
2.93173
2.89545
2.85887
2.82203
2.78497
2.74772
2.71031
2.6728
2.6352
2.59756
2.5599
2.52227
2.48469
2.44719
2.40981
2.37257
2.33552
2.29868
2.26208
2.22576
2.18975
2.1541
2.11885
2.08405
2.04976
2.01604
1.98296
1.95061
1.91907
1.88843
1.85875
1.83
1.80227
0.0655379
0.0964307
0.12092
0.139502
0.155286
0.169653
0.183309
0.196665
0.209992
0.223482
0.23728
0.251503
0.266247
0.281594
0.297616
0.314374
0.331928
0.350332
0.369638
0.389895
0.41115
0.433445
0.456823
0.481323
0.506982
0.533834
0.561914
0.591257
0.621848
0.653708
0.686856
0.721299
0.757043
0.794086
0.832421
0.872037
0.912915
0.955036
0.998371
1.04289
1.08856
1.13534
1.18318
1.23204
1.28187
1.33262
1.38423
1.43664
1.48978
1.54361
1.59805
1.65303
1.7085
1.76438
1.82061
1.87711
1.93382
1.99067
2.04758
2.10449
2.16132
2.21801
2.27451
2.33074
2.38666
2.4422
2.49731
2.55194
2.60591
2.65916
2.71166
2.76335
2.8142
2.86417
2.91321
2.96128
3.00835
3.05438
3.09934
3.1432
3.18592
3.22747
3.26783
3.30696
3.34483
3.38143
3.41673
3.4507
3.48333
3.51459
3.54448
3.57298
3.60007
3.62573
3.64996
3.67275
3.69408
3.71395
3.73234
3.74926
3.76469
3.77863
3.79109
3.80206
3.81153
3.81952
3.82602
3.83104
3.83458
3.83665
3.83725
3.83639
3.83409
3.83035
3.82518
3.8186
3.81063
3.80127
3.79056
3.77849
3.76511
3.75042
3.73446
3.71723
3.69878
3.67913
3.65831
3.63634
3.61326
3.5891
3.56389
3.53768
3.51048
3.48235
3.45331
3.4234
3.39268
3.36116
3.3289
3.29592
3.26229
3.22802
3.19317
3.15777
3.12188
3.08552
3.04874
3.01158
2.97408
2.93628
2.89822
2.85994
2.82147
2.78285
2.74412
2.70531
2.66646
2.6276
2.58876
2.54998
2.51129
2.47272
2.4343
2.39606
2.35805
2.32029
2.28281
2.24565
2.20886
2.17248
2.13656
2.10116
2.06633
2.03216
1.99871
1.96608
1.93433
1.90352
1.87363
1.84474
0.0642741
0.0928196
0.116773
0.13514
0.150819
0.165151
0.178823
0.192244
0.20568
0.219323
0.233319
0.247789
0.262833
0.278545
0.295003
0.312259
0.330384
0.349446
0.369504
0.390617
0.41284
0.436223
0.460814
0.486657
0.513791
0.542252
0.572067
0.603262
0.635845
0.669826
0.705212
0.742002
0.780189
0.819762
0.860701
0.902983
0.946577
0.99145
1.03756
1.08487
1.13333
1.18288
1.23347
1.28505
1.33756
1.39093
1.4451
1.50001
1.55559
1.61177
1.66848
1.72566
1.78324
1.84115
1.89931
1.95767
2.01614
2.07467
2.13318
2.19161
2.24989
2.30797
2.36577
2.42325
2.48036
2.53703
2.59321
2.64871
2.70351
2.75754
2.81077
2.86315
2.91464
2.9652
3.0148
3.06339
3.11094
3.15741
3.20278
3.24701
3.29007
3.33193
3.37257
3.41195
3.45005
3.48685
3.52231
3.55643
3.58919
3.62055
3.65052
3.67906
3.70617
3.73183
3.75603
3.77876
3.80001
3.81977
3.83803
3.85478
3.87003
3.88376
3.89598
3.90668
3.91586
3.92352
3.92966
3.9343
3.93743
3.93906
3.93919
3.93784
3.93501
3.93071
3.92497
3.91778
3.90918
3.89916
3.88776
3.87499
3.86087
3.84543
3.82868
3.81066
3.79139
3.7709
3.74922
3.72637
3.7024
3.67733
3.6512
3.62404
3.59589
3.56679
3.53678
3.50589
3.47417
3.44165
3.40837
3.37438
3.33972
3.30442
3.26853
3.2321
3.19516
3.15775
3.11992
3.08171
3.04316
3.00431
2.9652
2.92586
2.88634
2.84667
2.80689
2.76703
2.72713
2.68722
2.64734
2.60752
2.56779
2.52819
2.48874
2.44948
2.41044
2.37166
2.33316
2.29499
2.25719
2.21981
2.18288
2.14648
2.11066
2.07549
2.04104
2.0074
1.97462
1.94277
1.91182
1.88187
0.0625138
0.0890567
0.112433
0.130602
0.1462
0.160528
0.17427
0.187837
0.201502
0.215463
0.229876
0.244868
0.260549
0.277017
0.294358
0.31265
0.331969
0.352386
0.373968
0.396777
0.420869
0.446295
0.473101
0.501323
0.530993
0.562134
0.594763
0.628886
0.664501
0.701602
0.740174
0.780195
0.82164
0.864476
0.908664
0.954163
1.00093
1.0489
1.09804
1.14827
1.19956
1.25182
1.30501
1.35905
1.41389
1.46946
1.5257
1.58253
1.6399
1.69773
1.75596
1.81454
1.87338
1.93243
1.99162
2.0509
2.11018
2.16943
2.22856
2.28753
2.34628
2.40474
2.46288
2.52063
2.57797
2.63478
2.69092
2.74636
2.80105
2.85496
2.90803
2.96023
3.01153
3.06187
3.11124
3.15959
3.20689
3.2531
3.2982
3.34215
3.38493
3.4265
3.46685
3.50593
3.54374
3.58024
3.61541
3.64923
3.68168
3.71275
3.7424
3.77064
3.79744
3.82278
3.84666
3.86907
3.88998
3.9094
3.92732
3.94372
3.9586
3.97196
3.98379
3.99409
4.00286
4.01011
4.01582
4.02001
4.02267
4.02383
4.02347
4.02161
4.01826
4.01343
4.00713
3.99938
3.9902