/*--------------------------------*- C++ -*----------------------------------*\
| =========                 |                                                 |
| \\      /  F ield         | OpenFOAM: The Open Source CFD Toolbox           |
|  \\    /   O peration     | Version:  2412                                  |
|   \\  /    A nd           | Website:  www.openfoam.com                      |
|    \\/     M anipulation  |                                                 |
\*---------------------------------------------------------------------------*/
FoamFile
{
    version     2.0;
    format      ascii;
    arch        "LSB;label=32;scalar=64";
    class       volScalarField;
    location    "0.2";
    object      nut;
}
// * * * * * * * * * * * * * * * * * * * * * * * * * * * * * * * * * * * * * //

dimensions      [0 2 -1 0 0 0 0];

internalField   nonuniform List<scalar> 
12225
(
2.015e-05
2.24858e-05
2.47491e-05
2.63714e-05
2.75879e-05
2.85142e-05
2.92323e-05
2.9798e-05
3.02484e-05
3.06098e-05
3.09016e-05
3.11379e-05
3.13292e-05
3.14832e-05
3.16058e-05
3.17e-05
3.17684e-05
3.18284e-05
0.000167792
0.000185428
0.000202597
0.000213786
0.000221145
0.000225984
0.000229001
0.00023072
0.000231514
0.000231643
0.000231292
0.000230594
0.00022965
0.000228531
0.000227295
0.00022597
0.000224708
0.000224072
0.000338328
0.000365994
0.000399361
0.000424406
0.000442779
0.000456138
0.000465648
0.000472248
0.000476657
0.000479409
0.000480905
0.000481447
0.000481264
0.000480529
0.000479376
0.000477903
0.000476299
0.000475463
0.000480631
0.00052177
0.000570121
0.00060839
0.000637802
0.000660209
0.000677098
0.00068969
0.000698952
0.000705624
0.000710278
0.000713358
0.000715205
0.000716085
0.000716207
0.000715738
0.00071491
0.000714433
0.00059357
0.000650967
0.000713489
0.000763784
0.000803283
0.000834122
0.000858087
0.000876628
0.000890894
0.000901782
0.000909996
0.000916086
0.000920488
0.000923544
0.000925529
0.000926668
0.000927217
0.000927686
0.000684417
0.000756655
0.00083195
0.000893053
0.000941625
0.000980102
0.00101056
0.00103465
0.00105369
0.0010687
0.00108047
0.00108966
0.00109677
0.00110221
0.0011063
0.00110932
0.00111153
0.00111331
0.000759756
0.000842839
0.000928291
0.000998647
0.00105522
0.00110054
0.00113687
0.00116606
0.00118953
0.00120842
0.00122362
0.00123583
0.00124563
0.00125348
0.00125974
0.00126473
0.0012687
0.00127194
0.000823624
0.000913364
0.00100525
0.00108261
0.00114578
0.00119702
0.00123857
0.00127236
0.00129992
0.00132243
0.00134086
0.00135597
0.00136839
0.00137861
0.00138703
0.00139399
0.00139973
0.00140449
0.000877002
0.000970915
0.00106529
0.00114672
0.00121456
0.00127046
0.0013164
0.00135421
0.00138542
0.00141126
0.00143271
0.00145058
0.00146551
0.00147804
0.0014886
0.0014975
0.001505
0.00151125
0.000918257
0.00101593
0.00110995
0.00119241
0.00126253
0.0013214
0.00137055
0.00141157
0.00144587
0.00147463
0.00149882
0.00151926
0.00153658
0.00155134
0.00156396
0.00157478
0.00158401
0.00159173
0.000944751
0.00104624
0.0011388
0.00122006
0.00129015
0.00135004
0.0014009
0.00144402
0.0014806
0.0015117
0.00153823
0.00156093
0.00158045
0.0015973
0.00161191
0.00162459
0.00163551
0.00164467
0.000953929
0.00105647
0.00114713
0.00122621
0.0012948
0.00135413
0.00140528
0.0014493
0.00148719
0.00151986
0.0015481
0.00157258
0.00159389
0.0016125
0.00162882
0.00164314
0.00165558
0.00166604
0.000951546
0.0010519
0.00114069
0.00121792
0.00128482
0.0013429
0.00139337
0.00143725
0.00147545
0.00150879
0.00153795
0.00156354
0.00158607
0.00160598
0.00162362
0.00163925
0.00165295
0.0016645
0.000937266
0.00102693
0.00110962
0.00118333
0.00124794
0.00130434
0.00135362
0.00139676
0.00143464
0.00146801
0.00149752
0.00152371
0.00154704
0.00156789
0.00158658
0.00160332
0.00161814
0.00163066
0.000914066
0.000982518
0.00105
0.00111402
0.00117277
0.00122567
0.00127281
0.00131463
0.0013517
0.00138462
0.00141397
0.00144024
0.00146386
0.00148516
0.00150444
0.00152189
0.00153749
0.00155072
0.000888182
0.000929366
0.00097253
0.00101672
0.00106057
0.00110291
0.00114292
0.00118012
0.00121429
0.00124545
0.00127376
0.00129947
0.00132283
0.0013441
0.0013635
0.0013812
0.00139717
0.00141085
0.000866165
0.000882904
0.000901458
0.000921827
0.000943714
0.000966722
0.000990425
0.00101437
0.00103814
0.00106137
0.00108378
0.0011052
0.0011255
0.00114461
0.00116251
0.00117922
0.00119468
0.00120844
0.000853647
0.000856464
0.000860483
0.000865724
0.000872137
0.000879657
0.000888215
0.000897721
0.000908062
0.000919107
0.000930719
0.000942756
0.00095508
0.00096757
0.000980102
0.000992561
0.00100482
0.00101667
0.000856837
0.000863039
0.000870432
0.000879024
0.000888699
0.000899305
0.000910673
0.00092262
0.00093495
0.000947478
0.000960037
0.000972487
0.000984716
0.00099664
0.0010082
0.00101935
0.00103004
0.00104005
0.000879014
0.000910091
0.000943003
0.000977097
0.00101137
0.00104493
0.00107707
0.0011073
0.00113535
0.0011611
0.00118457
0.00120588
0.00122518
0.00124263
0.00125843
0.00127272
0.00128562
0.00129722
0.000912427
0.000978631
0.00104329
0.00110415
0.00115969
0.00120945
0.00125358
0.0012925
0.00132676
0.00135689
0.00138343
0.00140684
0.00142753
0.00144586
0.00146211
0.00147655
0.00148941
0.00150095
0.000944651
0.00103937
0.00112414
0.00119816
0.00126209
0.00131726
0.00136492
0.0014061
0.00144171
0.00147254
0.00149928
0.00152251
0.00154272
0.00156033
0.0015757
0.00158913
0.00160089
0.00161123
0.000952969
0.00105495
0.00114494
0.00122286
0.00128968
0.00134681
0.00139548
0.00143685
0.001472
0.0015019
0.00152736
0.00154908
0.00156763
0.00158351
0.00159711
0.00160877
0.00161877
0.00162734
0.000919762
0.00101577
0.00110711
0.00118655
0.00125366
0.00130983
0.00135663
0.00139556
0.001428
0.00145508
0.00147772
0.00149669
0.00151259
0.00152595
0.00153716
0.00154656
0.00155444
0.00156098
0.00084792
0.000936213
0.00102591
0.00110193
0.0011644
0.00121544
0.00125709
0.00129112
0.00131899
0.00134186
0.00136065
0.00137609
0.00138878
0.00139919
0.00140773
0.00141469
0.00142033
0.00142481
0.000748241
0.000825344
0.000905837
0.000972007
0.00102523
0.00106796
0.00110226
0.00112982
0.00115199
0.00116982
0.00118415
0.00119563
0.00120479
0.00121206
0.00121778
0.00122223
0.00122561
0.00122806
0.000620838
0.000679397
0.000743804
0.000795903
0.000837072
0.000869523
0.000895047
0.000915073
0.000930739
0.000942941
0.000952378
0.000959602
0.000965049
0.000969065
0.000971928
0.000973857
0.000975028
0.000975555
0.000453206
0.00049108
0.000536514
0.000572228
0.00059936
0.000619977
0.00063556
0.00064722
0.00065584
0.000662099
0.000666519
0.000669501
0.000671355
0.000672326
0.000672603
0.000672337
0.000671647
0.00067063
0.00023657
0.000259231
0.000284033
0.000301437
0.000313162
0.000321244
0.000326756
0.000330375
0.000332603
0.000333805
0.000334244
0.000334114
0.000333559
0.00033269
0.00033159
0.000330323
0.00032894
0.000327502
2.7242e-05
3.0171e-05
3.32398e-05
3.54418e-05
3.70547e-05
3.8262e-05
3.9181e-05
3.98937e-05
4.04545e-05
4.09003e-05
4.12578e-05
4.15464e-05
4.1781e-05
4.19723e-05
4.21291e-05
4.22579e-05
4.23637e-05
4.24511e-05
5.0506e-06
1.36566e-05
1.54789e-05
1.6765e-05
1.76846e-05
1.83946e-05
1.91659e-05
1.99527e-05
2.07368e-05
2.1529e-05
2.23488e-05
2.32442e-05
2.43499e-05
2.55422e-05
2.67836e-05
2.80546e-05
2.93502e-05
3.0669e-05
3.20089e-05
3.33663e-05
3.47366e-05
3.61145e-05
3.74951e-05
3.88737e-05
4.02467e-05
4.16117e-05
4.29675e-05
4.43144e-05
4.56548e-05
4.69925e-05
4.83339e-05
4.96613e-05
5.09679e-05
5.22528e-05
5.35158e-05
5.47569e-05
5.59763e-05
5.71743e-05
5.83514e-05
5.95078e-05
6.06442e-05
6.17609e-05
6.28584e-05
6.39372e-05
6.49976e-05
6.604e-05
6.70646e-05
6.80719e-05
6.90619e-05
7.00348e-05
7.09908e-05
7.193e-05
7.28523e-05
7.3758e-05
7.46468e-05
7.55188e-05
7.63739e-05
7.72121e-05
7.80332e-05
7.88372e-05
7.96239e-05
8.03932e-05
8.1145e-05
8.18792e-05
8.25956e-05
8.32941e-05
8.39746e-05
8.46371e-05
8.52814e-05
8.59077e-05
8.65161e-05
8.71072e-05
8.76819e-05
8.82421e-05
8.87911e-05
8.93239e-05
8.9836e-05
9.03281e-05
9.08008e-05
9.12543e-05
9.16886e-05
9.21037e-05
9.24994e-05
9.28759e-05
9.32329e-05
9.35705e-05
9.38886e-05
9.41872e-05
9.44662e-05
9.47257e-05
9.49657e-05
9.51861e-05
9.5387e-05
9.55684e-05
9.57302e-05
9.58727e-05
9.59957e-05
9.60994e-05
9.61837e-05
9.62488e-05
9.62947e-05
9.63214e-05
9.63291e-05
9.63178e-05
9.62875e-05
9.62384e-05
9.61706e-05
9.60841e-05
9.5979e-05
9.58555e-05
9.57136e-05
9.55534e-05
9.53751e-05
9.51787e-05
9.49644e-05
9.47324e-05
9.44827e-05
9.42155e-05
9.3931e-05
9.36294e-05
9.33108e-05
9.29754e-05
9.26234e-05
9.2255e-05
9.18704e-05
9.14699e-05
9.10537e-05
9.06221e-05
9.01753e-05
8.97137e-05
8.92374e-05
8.87468e-05
8.82423e-05
8.77242e-05
8.71928e-05
8.66484e-05
8.60915e-05
8.55225e-05
8.49416e-05
8.43501e-05
8.37469e-05
8.31355e-05
8.25196e-05
8.19295e-05
8.1492e-05
8.10925e-05
8.06883e-05
8.02763e-05
7.98563e-05
7.94288e-05
7.89941e-05
7.85524e-05
7.81043e-05
7.76501e-05
7.71902e-05
7.6725e-05
7.62549e-05
7.57804e-05
7.53018e-05
7.48197e-05
7.43343e-05
7.38461e-05
7.33555e-05
7.28629e-05
7.23686e-05
7.18729e-05
7.13762e-05
7.08786e-05
7.03801e-05
6.98807e-05
6.93801e-05
6.88775e-05
6.83717e-05
6.78603e-05
6.73393e-05
6.68004e-05
6.62261e-05
6.55711e-05
6.47574e-05
6.36976e-05
7.3453e-06
3.33878e-05
6.60733e-05
9.14607e-05
0.00010923
0.000121633
0.000128955
0.000133834
0.000137982
0.000142069
0.000146203
0.000150278
0.000154198
0.000158067
0.000161978
0.00016602
0.000170274
0.000174812
0.000179696
0.000184976
0.000190685
0.000196846
0.000203466
0.000210541
0.000218057
0.000225988
0.000234302
0.000242961
0.000251921
0.000261143
0.000270592
0.000280253
0.000290104
0.000300117
0.000310268
0.000320531
0.000330885
0.000341309
0.000351788
0.000362307
0.000372855
0.000383421
0.000393998
0.00040458
0.00041516
0.000425735
0.000436301
0.000446855
0.000457392
0.000467911
0.000478407
0.000488877
0.000499317
0.000509725
0.000520095
0.000530424
0.000540706
0.000550937
0.000561112
0.000571225
0.000581273
0.000591248
0.000601147
0.000610963
0.000620692
0.000630328
0.000639865
0.000649296
0.000658613
0.000667804
0.000676854
0.00068574
0.000694427
0.000702864
0.000710818
0.000718304
0.000725598
0.000732744
0.000739749
0.000746611
0.000753329
0.000759901
0.000766325
0.000772597
0.000778716
0.00078468
0.000790486
0.000796132
0.000801617
0.000806939
0.000812096
0.000817087
0.000821911
0.000826565
0.00083105
0.000835364
0.000839507
0.000843477
0.000847273
0.000850895
0.000854342
0.000857614
0.000860711
0.000863631
0.000866375
0.000868941
0.00087133
0.000873542
0.000875575
0.00087743
0.000879107
0.000880606
0.000881926
0.000883067
0.00088403
0.000884814
0.000885419
0.000885847
0.000886096
0.000886168
0.000886063
0.000885782
0.000885324
0.000884692
0.000883886
0.000882906
0.000881755
0.000880433
0.000878942
0.000877284
0.00087546
0.000873473
0.000871324
0.000869015
0.000866551
0.000863931
0.000861162
0.000858245
0.000855179
0.000851981
0.000848644
0.000845134
0.000841371
0.000837
0.000831136
0.000824535
0.000817647
0.000810597
0.000803426
0.000796154
0.000788794
0.000781353
0.00077384
0.000766262
0.000758624
0.000750933
0.000743195
0.000735415
0.0007276
0.000719754
0.000711884
0.000703994
0.000696089
0.000688175
0.000680256
0.000672336
0.000664419
0.000656508
0.000648607
0.000640717
0.000632837
0.000624967
0.000617101
0.000609229
0.000601328
0.000593361
0.000585225
0.00057666
0.000564044
0.000540586
8.90679e-06
5.38097e-05
0.000108868
0.000150971
0.000180478
0.000200076
0.000213254
0.000222746
0.000230468
0.00023756
0.000244588
0.000251792
0.000259282
0.000267152
0.000275494
0.000284409
0.000293999
0.00030436
0.000315575
0.000327707
0.000340795
0.000354856
0.000369879
0.000385835
0.000402672
0.000420326
0.000438722
0.000457779
0.000477414
0.000497549
0.000518111
0.000539036
0.000560266
0.000581743
0.000603418
0.000625247
0.000647191
0.00066922
0.000691308
0.000713432
0.000735577
0.000757727
0.000779872
0.000802003
0.000824111
0.000846191
0.000868236
0.00089024
0.000912197
0.000934101
0.000955944
0.00097772
0.00099942
0.00102104
0.00104256
0.00106398
0.00108529
0.00110647
0.00112752
0.00114842
0.00116916
0.00118973
0.00121011
0.00123029
0.00125027
0.00127001
0.00128951
0.00130875
0.0013277
0.00134635
0.00136466
0.0013826
0.00140012
0.00141719
0.00143359
0.00144952
0.00146509
0.00148035
0.0014953
0.00150994
0.00152426
0.00153827
0.00155196
0.00156532
0.00157835
0.00159104
0.00160339
0.0016154
0.00162705
0.00163835
0.00164929
0.00165987
0.00167009
0.00167994
0.00168942
0.00169853
0.00170727
0.00171563
0.00172361
0.00173122
0.00173845
0.00174529
0.00175175
0.00175783
0.00176353
0.00176884
0.00177377
0.0017783
0.00178246
0.00178622
0.0017896
0.00179259
0.00179519
0.00179741
0.00179924
0.00180068
0.00180173
0.0018024
0.00180268
0.00180258
0.00180209
0.00180122
0.00179997
0.00179835
0.00179635
0.00179397
0.00179123
0.00178811
0.00178464
0.0017808
0.00177661
0.00177207
0.00176718
0.00176195
0.0017564
0.00175051
0.0017443
0.0017378
0.00173098
0.00172387
0.00171647
0.00170868
0.00170039
0.00169123
0.00168063
0.00166901
0.00165681
0.00164421
0.00163131
0.00161817
0.0016048
0.00159123
0.00157748
0.00156356
0.00154949
0.00153528
0.00152095
0.0015065
0.00149194
0.0014773
0.00146258
0.00144779
0.00143294
0.00141805
0.00140312
0.00138816
0.00137318
0.0013582
0.0013432
0.00132821
0.00131321
0.00129821
0.00128318
0.0012681
0.00125292
0.00123752
0.00122164
0.00120456
0.00118291
0.00114578
1.00853e-05
7.26385e-05
0.000143642
0.000197386
0.000235265
0.000261687
0.000280489
0.000294677
0.000306429
0.000317182
0.000327801
0.00033877
0.000350355
0.000362726
0.000376009
0.000390317
0.00040575
0.000422393
0.000440312
0.000459542
0.000480092
0.000501942
0.000525043
0.000549326
0.000574702
0.000601073
0.000628334
0.000656377
0.0006851
0.000714404
0.0007442
0.000774408
0.000804953
0.000835773
0.00086681
0.000898017
0.000929352
0.000960781
0.000992277
0.00102382
0.00105538
0.00108695
0.00111851
0.00115005
0.00118157
0.00121305
0.00124447
0.00127584
0.00130714
0.00133836
0.00136948
0.00140051
0.00143141
0.00146219
0.00149282
0.00152329
0.00155359
0.00158369
0.00161358
0.00164324
0.00167266
0.00170181
0.00173068
0.00175924
0.00178748
0.00181537
0.0018429
0.00187003
0.00189674
0.00192301
0.00194881
0.00197411
0.00199888
0.00202303
0.00204653
0.00206949
0.00209197
0.00211401
0.0021356
0.00215675
0.00217746
0.00219771
0.00221749
0.00223681
0.00225566
0.00227402
0.0022919
0.00230928
0.00232616
0.00234254
0.0023584
0.00237375
0.00238858
0.00240289
0.00241667
0.00242991
0.00244263
0.00245481
0.00246644
0.00247754
0.00248809
0.00249809
0.00250755
0.00251646
0.00252481
0.00253262
0.00253987
0.00254656
0.0025527
0.00255828
0.0025633
0.00256777
0.00257168
0.00257502
0.00257781
0.00258004
0.00258172
0.00258283
0.00258339
0.00258339
0.00258284
0.00258174
0.00258009
0.00257789
0.00257515
0.00257186
0.00256804
0.00256369
0.00255881
0.00255341
0.00254749
0.00254107
0.00253415
0.00252673
0.00251883
0.00251046
0.00250163
0.00249236
0.00248264
0.00247247
0.00246184
0.00245069
0.00243889
0.0024262
0.00241232
0.00239744
0.00238181
0.00236562
0.00234897
0.00233193
0.00231454
0.00229683
0.00227884
0.00226057
0.00224206
0.00222331
0.00220436
0.00218521
0.00216588
0.0021464
0.00212677
0.00210702
0.00208716
0.0020672
0.00204716
0.00202706
0.0020069
0.0019867
0.00196647
0.00194621
0.00192593
0.00190562
0.00188527
0.00186483
0.00184423
0.00182333
0.00180175
0.00177864
0.00175107
0.0017111
1.0946e-05
8.79955e-05
0.000171921
0.000235662
0.000281723
0.000314869
0.000339282
0.000358252
0.000374211
0.000388843
0.000403247
0.000418099
0.000433805
0.000450615
0.000468694
0.000488157
0.00050909
0.000531547
0.000555557
0.000581116
0.000608194
0.000636733
0.000666652
0.000697854
0.000730229
0.000763661
0.000798033
0.000833231
0.000869145
0.000905672
0.00094272
0.000980205
0.00101805
0.00105619
0.00109457
0.00113314
0.00117186
0.00121068
0.00124959
0.00128854
0.00132753
0.00136653
0.00140552
0.00144449
0.00148342
0.0015223
0.00156111
0.00159984
0.00163848
0.001677
0.0017154
0.00175366
0.00179176
0.00182968
0.0018674
0.00190491
0.00194218
0.00197919
0.00201593
0.00205236
0.00208848
0.00212424
0.00215964
0.00219465
0.00222924
0.0022634
0.00229709
0.0023303
0.002363
0.00239516
0.00242676
0.00245778
0.00248821
0.00251792
0.00254697
0.00257542
0.00260331
0.00263066
0.00265747
0.00268375
0.00270947
0.00273465
0.00275926
0.00278331
0.00280678
0.00282967
0.00285196
0.00287366
0.00289474
0.00291522
0.00293508
0.00295431
0.00297291
0.00299087
0.00300819
0.00302487
0.0030409
0.00305628
0.00307099
0.00308505
0.00309844
0.00311117
0.00312323
0.00313461
0.00314532
0.00315536
0.00316472
0.00317339
0.00318139
0.0031887
0.00319533
0.00320127
0.00320653
0.0032111
0.00321498
0.00321818
0.00322068
0.0032225
0.00322363
0.00322408
0.00322384
0.00322292
0.00322132
0.00321905
0.0032161
0.00321248
0.00320819
0.00320324
0.00319764
0.00319139
0.0031845
0.00317698
0.00316884
0.00316008
0.00315072
0.00314077
0.00313025
0.00311915
0.00310748
0.00309525
0.00308244
0.003069
0.00305485
0.00303984
0.00302381
0.00300683
0.00298905
0.00297061
0.0029516
0.00293208
0.0029121
0.00289171
0.00287092
0.00284978
0.0028283
0.00280651
0.00278443
0.00276208
0.00273948
0.00271666
0.00269363
0.00267042
0.00264703
0.0026235
0.00259985
0.00257608
0.00255222
0.00252829
0.00250429
0.00248024
0.00245614
0.002432
0.0024078
0.0023835
0.00235904
0.00233424
0.00230875
0.00228173
0.00225095
0.00221187
1.16981e-05
9.87577e-05
0.000193582
0.000266922
0.000321089
0.000361061
0.000391267
0.000415229
0.000435596
0.000454267
0.000472535
0.000491243
0.000510922
0.000531898
0.000554372
0.000578464
0.000604242
0.000631732
0.000660928
0.000691793
0.000724266
0.000758264
0.000793685
0.000830419
0.000868347
0.000907349
0.000947306
0.000988103
0.00102963
0.00107179
0.00111449
0.00115764
0.00120118
0.00124503
0.00128914
0.00133345
0.00137793
0.00142252
0.00146721
0.00151196
0.00155673
0.00160152
0.00164629
0.00169104
0.00173572
0.00178034
0.00182487
0.0018693
0.0019136
0.00195776
0.00200175
0.00204556
0.00208917
0.00213256
0.0021757
0.00221858
0.00226117
0.00230344
0.00234538
0.00238696
0.00242816
0.00246894
0.0025093
0.0025492
0.00258862
0.00262753
0.00266592
0.00270375
0.00274101
0.00277768
0.00281373
0.00284915
0.00288391
0.00291792
0.00295125
0.00298394
0.00301601
0.00304748
0.00307834
0.0031086
0.00313826
0.00316729
0.0031957
0.00322347
0.00325061
0.00327708
0.0033029
0.00332805
0.00335251
0.0033763
0.00339938
0.00342177
0.00344346
0.00346443
0.00348468
0.0035042
0.003523
0.00354106
0.00355839
0.00357496
0.00359079
0.00360587
0.0036202
0.00363376
0.00364657
0.00365861
0.00366988
0.00368038
0.00369011
0.00369906
0.00370724
0.00371464
0.00372126
0.0037271
0.00373216
0.00373643
0.00373992
0.00374263
0.00374455
0.00374569
0.00374605
0.00374563
0.00374443
0.00374246
0.00373972
0.0037362
0.00373192
0.00372689
0.0037211
0.00371457
0.0037073
0.0036993
0.00369058
0.00368115
0.00367103
0.00366021
0.00364873
0.00363658
0.00362376
0.00361029
0.00359615
0.00358132
0.00356573
0.0035493
0.00353196
0.00351372
0.00349467
0.00347489
0.00345447
0.00343345
0.0034119
0.00338984
0.00336732
0.00334435
0.00332098
0.00329722
0.0032731
0.00324864
0.00322387
0.00319881
0.00317349
0.00314793
0.00312214
0.00309616
0.00307
0.00304369
0.00301724
0.00299069
0.00296404
0.00293731
0.00291052
0.00288367
0.00285675
0.00282975
0.00280259
0.00277515
0.00274709
0.00271771
0.00268542
0.00264793
1.26484e-05
0.000103881
0.00020834
0.0002911
0.000353405
0.000400323
0.000436497
0.000465645
0.000490599
0.000513428
0.00053559
0.000558067
0.000581499
0.000606286
0.000632666
0.000660773
0.000690666
0.000722356
0.000755815
0.000790985
0.000827786
0.000866122
0.000905883
0.000946953
0.000989213
0.00103254
0.00107683
0.00112195
0.00116782
0.00121432
0.00126137
0.0013089
0.00135681
0.00140506
0.00145358
0.00150231
0.00155122
0.00160025
0.00164937
0.00169856
0.00174777
0.00179698
0.00184617
0.00189532
0.00194439
0.00199337
0.00204225
0.00209099
0.00213957
0.00218799
0.00223621
0.00228421
0.00233198
0.00237948
0.00242671
0.00247362
0.00252021
0.00256644
0.0026123
0.00265775
0.00270278
0.00274735
0.00279144
0.00283504
0.00287811
0.00292064
0.00296259
0.00300395
0.0030447
0.00308482
0.00312429
0.00316309
0.00320117
0.00323851
0.00327516
0.00331114
0.00334647
0.00338116
0.00341521
0.00344862
0.00348139
0.00351349
0.00354493
0.00357569
0.00360577
0.00363515
0.00366382
0.00369178
0.00371902
0.00374552
0.00377128
0.00379629
0.00382054
0.00384403
0.00386675
0.00388869
0.00390985
0.00393022
0.00394978
0.00396855
0.00398651
0.00400366
0.00401999
0.0040355
0.00405019
0.00406405
0.00407708
0.00408928
0.00410063
0.00411115
0.00412082
0.00412964
0.00413762
0.00414475
0.00415103
0.00415645
0.00416102
0.00416473
0.00416759
0.0041696
0.00417075
0.00417104
0.00417049
0.00416909
0.00416684
0.00416375
0.00415982
0.00415506
0.00414947
0.00414306
0.00413583
0.0041278
0.00411898
0.00410938
0.004099
0.00408786
0.00407598
0.00406335
0.00404999
0.0040359
0.00402108
0.00400551
0.00398916
0.00397199
0.00395395
0.00393505
0.00391533
0.00389486
0.00387369
0.00385187
0.00382944
0.00380645
0.00378292
0.00375889
0.00373439
0.00370944
0.00368406
0.0036583
0.00363216
0.00360568
0.00357888
0.00355178
0.00352442
0.00349681
0.00346898
0.00344096
0.00341276
0.00338442
0.00335596
0.0033274
0.00329875
0.00327004
0.00324127
0.00321243
0.00318348
0.00315431
0.00312466
0.00309398
0.00306116
0.00302499
1.3421e-05
0.000106347
0.000218078
0.000309087
0.000379029
0.000432723
0.000474861
0.000509267
0.00053889
0.000565925
0.000591951
0.000618064
0.000644998
0.000673219
0.000703012
0.00073453
0.000767843
0.000802957
0.000839836
0.000878416
0.000918609
0.000960315
0.00100342
0.00104782
0.00109339
0.00114001
0.00118757
0.00123597
0.0012851
0.00133488
0.0013852
0.001436
0.00148721
0.00153874
0.00159055
0.00164258
0.00169478
0.00174711
0.00179953
0.001852
0.0019045
0.00195698
0.00200944
0.00206183
0.00211413
0.00216633
0.00221839
0.00227031
0.00232205
0.0023736
0.00242492
0.00247601
0.00252684
0.00257739
0.00262763
0.00267754
0.00272709
0.00277627
0.00282505
0.0028734
0.00292129
0.00296871
0.00301564
0.00306203
0.00310788
0.00315316
0.00319785
0.00324192
0.00328536
0.00332815
0.00337028
0.00341172
0.0034524
0.00349236
0.00353162
0.00357022
0.00360815
0.00364543
0.00368206
0.00371802
0.00375332
0.00378794
0.00382187
0.0038551
0.00388762
0.00391942
0.00395049
0.00398081
0.00401039
0.0040392
0.00406723
0.00409449
0.00412096
0.00414662
0.00417149
0.00419553
0.00421876
0.00424115
0.00426271
0.00428343
0.00430329
0.0043223
0.00434046
0.00435775
0.00437417
0.00438971
0.00440439
0.00441817
0.00443107
0.00444308
0.0044542
0.00446442
0.00447374
0.00448217
0.00448969
0.0044963
0.004502
0.0045068
0.00451069
0.00451367
0.00451574
0.0045169
0.00451716
0.00451652
0.00451497
0.00451251
0.00450916
0.00450492
0.00449979
0.00449379
0.00448692
0.00447918
0.0044706
0.00446118
0.00445093
0.00443986
0.00442798
0.0044153
0.00440184
0.00438759
0.00437257
0.00435675
0.00434013
0.00432269
0.0043044
0.00428527
0.00426533
0.00424461
0.00422316
0.00420102
0.00417823
0.00415482
0.00413082
0.00410626
0.00408118
0.0040556
0.00402955
0.00400305
0.00397613
0.00394882
0.00392114
0.00389313
0.0038648
0.00383618
0.0038073
0.00377819
0.00374887
0.00371938
0.00368974
0.00365997
0.00363011
0.00360018
0.00357019
0.00354017
0.00351008
0.00347986
0.00344931
0.00341803
0.00338524
0.00335027
1.40296e-05
0.000106879
0.000223702
0.000321581
0.000398394
0.000458468
0.000506382
0.000545966
0.00058022
0.000611412
0.000641206
0.000670781
0.000700947
0.000732235
0.000764975
0.000799354
0.000835458
0.000873304
0.000912864
0.000954073
0.000996849
0.00104109
0.0010867
0.00113355
0.00118154
0.00123057
0.00128051
0.00133127
0.00138275
0.00143485
0.00148751
0.00154063
0.00159415
0.001648
0.00170212
0.00175645
0.00181096
0.00186558
0.00192029
0.00197505
0.00202982
0.00208458
0.00213929
0.00219393
0.00224848
0.00230291
0.0023572
0.00241133
0.00246529
0.00251904
0.00257256
0.00262585
0.00267886
0.00273159
0.00278401
0.0028361
0.00288782
0.00293917
0.00299011
0.00304062
0.00309067
0.00314025
0.00318932
0.00323786
0.00328585
0.00333327
0.00338008
0.00342628
0.00347184
0.00351674
0.00356097
0.0036045
0.00364729
0.00368938
0.00373079
0.00377155
0.00381164
0.00385108
0.00388987
0.00392799
0.00396543
0.00400219
0.00403825
0.00407361
0.00410824
0.00414214
0.00417529
0.00420768
0.0042393
0.00427015
0.0043002
0.00432944
0.00435788
0.00438549
0.00441228
0.00443822
0.00446332
0.00448756
0.00451094
0.00453344
0.00455505
0.00457579
0.00459563
0.00461458
0.00463262
0.00464976
0.00466599
0.0046813
0.00469568
0.00470914
0.00472166
0.00473325
0.00474391
0.00475363
0.00476241
0.00477023
0.0047771
0.00478303
0.00478803
0.00479206
0.00479514
0.00479725
0.00479843
0.00479866
0.00479793
0.00479627
0.00479366
0.00479013
0.00478567
0.00478028
0.00477399
0.00476679
0.00475869
0.00474971
0.00473986
0.00472914
0.00471757
0.00470516
0.00469192
0.00467785
0.00466296
0.00464725
0.00463072
0.00461336
0.00459516
0.00457612
0.00455628
0.00453564
0.00451425
0.00449214
0.00446934
0.00444588
0.00442179
0.0043971
0.00437185
0.00434605
0.00431974
0.00429294
0.00426568
0.00423798
0.00420988
0.00418139
0.00415255
0.00412338
0.00409392
0.00406419
0.00403422
0.00400405
0.0039737
0.00394321
0.00391262
0.00388195
0.00385124
0.00382052
0.00378978
0.003759
0.00372804
0.0036966
0.00366416
0.00363029
1.44954e-05
0.000105913
0.000225875
0.00032921
0.000411996
0.000477896
0.000531243
0.000575787
0.000614514
0.00064972
0.000683115
0.000715937
0.000749054
0.000783054
0.000818312
0.000855052
0.000893388
0.000933356
0.000974943
0.0010181
0.00106274
0.00110878
0.00115613
0.00120467
0.0012543
0.00130492
0.00135642
0.00140871
0.0014617
0.00151529
0.0015694
0.00162397
0.00167891
0.00173418
0.0017897
0.00184543
0.00190132
0.00195733
0.00201342
0.00206955
0.0021257
0.00218183
0.00223792
0.00229394
0.00234988
0.00240571
0.00246141
0.00251696
0.00257234
0.00262754
0.00268252
0.00273728
0.0027918
0.00284604
0.00289999
0.00295363
0.00300693
0.00305987
0.00311242
0.00316455
0.00321625
0.00326748
0.00331823
0.00336845
0.00341813
0.00346725
0.00351578
0.0035637
0.00361098
0.00365761
0.00370358
0.00374884
0.00379341
0.00383732
0.00388058
0.00392319
0.00396517
0.0040065
0.00404718
0.0040872
0.00412655
0.00416521
0.00420318
0.00424044
0.00427697
0.00431276
0.0043478
0.00438207
0.00441556
0.00444825
0.00448014
0.00451122
0.00454147
0.00457088
0.00459945
0.00462715
0.004654
0.00467996
0.00470503
0.00472921
0.00475248
0.00477485
0.00479629
0.00481682
0.00483642
0.00485509
0.00487282
0.0048896
0.00490543
0.00492029
0.0049342
0.00494714
0.00495913
0.00497016
0.00498019
0.00498924
0.00499731
0.00500441
0.00501052
0.00501565
0.00501979
0.00502294
0.00502512
0.00502631
0.00502653
0.00502577
0.00502404
0.00502135
0.00501769
0.00501308
0.00500753
0.00500103
0.00499361
0.00498527
0.00497602
0.00496586
0.00495483
0.00494291
0.00493013
0.00491649
0.004902
0.00488666
0.00487048
0.00485346
0.0048356
0.00481691
0.0047974
0.00477709
0.00475601
0.00473419
0.00471164
0.00468842
0.00466453
0.00464
0.00461488
0.00458917
0.00456292
0.00453614
0.00450886
0.00448111
0.00445291
0.0044243
0.0043953
0.00436594
0.00433625
0.00430626
0.004276
0.00424551
0.00421482
0.00418398
0.00415302
0.00412198
0.00409091
0.00405985
0.00402883
0.00399784
0.00396679
0.00393549
0.00390355
0.0038707
1.48364e-05
0.000103804
0.000225181
0.00033258
0.000420367
0.000491429
0.000549751
0.000598919
0.000641858
0.000680846
0.000717609
0.000753418
0.000789187
0.000825546
0.000862914
0.000901553
0.000941607
0.00098314
0.00102616
0.00107062
0.00111647
0.00116363
0.00121201
0.00126151
0.00131203
0.00136347
0.00141575
0.00146877
0.00152243
0.00157667
0.0016314
0.00168655
0.00174206
0.00179787
0.00185393
0.00191019
0.0019666
0.00202314
0.00207976
0.00213643
0.00219313
0.00224984
0.00230653
0.00236318
0.00241977
0.00247629
0.00253271
0.00258902
0.00264521
0.00270125
0.00275712
0.00281282
0.0028683
0.00292357
0.00297858
0.00303333
0.00308778
0.00314191
0.00319569
0.00324909
0.00330209
0.00335465
0.00340675
0.00345836
0.00350945
0.00356
0.00360997
0.00365934
0.0037081
0.00375622
0.00380368
0.00385048
0.00389665
0.00394219
0.00398712
0.00403143
0.00407512
0.00411818
0.00416061
0.00420239
0.0042435
0.00428393
0.00432368
0.00436271
0.00440102
0.00443858
0.00447538
0.00451141
0.00454666
0.0045811
0.00461473
0.00464753
0.00467949
0.00471061
0.00474086
0.00477025
0.00479876
0.00482637
0.00485307
0.00487886
0.00490372
0.00492765
0.00495064
0.00497269
0.0049938
0.00501396
0.00503317
0.0050514
0.00506864
0.00508489
0.00510017
0.00511445
0.00512775
0.00514006
0.00515136
0.00516166
0.00517095
0.00517924
0.00518652
0.00519279
0.00519805
0.00520231
0.00520555
0.00520779
0.00520903
0.00520927
0.00520851
0.00520676
0.00520403
0.00520031
0.00519562
0.00518997
0.00518336
0.0051758
0.00516731
0.00515789
0.00514755
0.00513631
0.00512418
0.00511116
0.00509727
0.00508251
0.00506689
0.00505042
0.0050331
0.00501494
0.00499596
0.00497617
0.0049556
0.00493426
0.00491219
0.0048894
0.00486593
0.0048418
0.00481704
0.00479167
0.00476571
0.0047392
0.00471216
0.00468462
0.0046566
0.00462813
0.00459924
0.00456995
0.00454031
0.00451034
0.00448008
0.00444955
0.00441881
0.0043879
0.00435685
0.00432573
0.00429458
0.00426346
0.00423242
0.00420146
0.00417056
0.00413957
0.0041082
0.00407628
1.50667e-05
0.000100848
0.000222147
0.000332272
0.000424049
0.000499531
0.000562273
0.000615636
0.000662431
0.000704885
0.000744712
0.000783197
0.000821278
0.000859621
0.000898682
0.000938757
0.000980021
0.00102257
0.00106642
0.00111157
0.00115797
0.00120554
0.00125422
0.00130393
0.00135456
0.00140603
0.00145826
0.00151117
0.00156466
0.00161868
0.00167316
0.00172802
0.00178323
0.00183872
0.00189445
0.0019504
0.00200651
0.00206276
0.00211913
0.00217559
0.00223213
0.00228872
0.00234534
0.00240199
0.00245864
0.00251528
0.00257191
0.00262849
0.00268501
0.00274147
0.00279783
0.00285409
0.00291021
0.00296617
0.00302196
0.00307754
0.00313289
0.00318797
0.00324276
0.00329723
0.00335134
0.00340505
0.00345834
0.00351118
0.00356352
0.00361535
0.00366662
0.00371731
0.0037674
0.00381687
0.00386572
0.00391399
0.00396167
0.00400877
0.00405529