/*--------------------------------*- C++ -*----------------------------------*\
| =========                 |                                                 |
| \\      /  F ield         | OpenFOAM: The Open Source CFD Toolbox           |
|  \\    /   O peration     | Version:  2412                                  |
|   \\  /    A nd           | Website:  www.openfoam.com                      |
|    \\/     M anipulation  |                                                 |
\*---------------------------------------------------------------------------*/
FoamFile
{
    version     2.0;
    format      ascii;
    arch        "LSB;label=32;scalar=64";
    class       volScalarField;
    location    "0.2";
    object      p;
}
// * * * * * * * * * * * * * * * * * * * * * * * * * * * * * * * * * * * * * //

dimensions      [0 2 -2 0 0 0 0];

internalField   nonuniform List<scalar> 
12225
(
-10.3315
-9.73914
-9.07643
-8.52
-8.01095
-7.55451
-7.15595
-6.80495
-6.49259
-6.21331
-5.96219
-5.73473
-5.52709
-5.33593
-5.1582
-4.9904
-4.83031
-4.66352
-10.7653
-9.79732
-9.11124
-8.56098
-8.05125
-7.59475
-7.19556
-6.84315
-6.52917
-6.24818
-5.99533
-5.76614
-5.5568
-5.36396
-5.18456
-5.01521
-4.85309
-4.69494
-10.9457
-9.8316
-9.15299
-8.61184
-8.10164
-7.64603
-7.24697
-6.89351
-6.57797
-6.29521
-6.04041
-5.8092
-5.59783
-5.40299
-5.22165
-5.05063
-4.88709
-4.72594
-10.9696
-9.84731
-9.17767
-8.6458
-8.1383
-7.68554
-7.28836
-6.93544
-6.61975
-6.33638
-6.08066
-5.84835
-5.63579
-5.43978
-5.25738
-5.08583
-4.92189
-4.76467
-10.8995
-9.84203
-9.17796
-8.65658
-8.15611
-7.70828
-7.31465
-6.96395
-6.64956
-6.36687
-6.11139
-5.87904
-5.66632
-5.47019
-5.28787
-5.11712
-4.9546
-4.80525
-10.7577
-9.80889
-9.15447
-8.64572
-8.15689
-7.71625
-7.32778
-6.98077
-6.66895
-6.38803
-6.13379
-5.90233
-5.69035
-5.49501
-5.31376
-5.14492
-4.98529
-4.84449
-10.555
-9.74245
-9.10823
-8.61404
-8.14131
-7.71065
-7.32908
-6.98727
-6.67927
-6.40117
-6.14907
-5.91936
-5.70895
-5.51524
-5.33597
-5.16993
-5.01416
-4.88165
-10.3021
-9.64012
-9.04005
-8.56209
-8.10929
-7.69186
-7.31913
-6.9841
-6.68123
-6.40704
-6.15804
-5.93094
-5.72291
-5.53165
-5.35518
-5.19268
-5.04143
-4.9168
-10.0096
-9.50158
-8.95107
-8.49152
-8.06137
-7.66046
-7.2987
-6.97203
-6.67564
-6.40647
-6.16154
-5.93792
-5.7331
-5.54506
-5.37213
-5.21379
-5.06747
-4.95018
-9.68888
-9.32884
-8.84265
-8.40518
-7.99923
-7.61777
-7.26909
-6.95226
-6.66364
-6.40061
-6.16068
-5.94138
-5.74055
-5.55647
-5.38772
-5.234
-5.09284
-4.98226
-9.35199
-9.12666
-8.71644
-8.30663
-7.92581
-7.56603
-7.23241
-6.92672
-6.64694
-6.391
-6.15693
-5.94272
-5.74657
-5.56705
-5.40299
-5.25423
-5.11821
-5.01389
-9.03999
-8.92089
-8.58671
-8.20846
-7.85158
-7.51315
-7.19499
-6.90051
-6.62959
-6.38086
-6.15278
-5.94379
-5.75242
-5.57751
-5.41804
-5.27402
-5.1425
-5.04379
-8.745
-8.70651
-8.44816
-8.10623
-7.77356
-7.45713
-7.15573
-6.87326
-6.61168
-6.3706
-6.14895
-5.94554
-5.75926
-5.58919
-5.43448
-5.29514
-5.16855
-5.07317
-8.43793
-8.46208
-8.28257
-7.98673
-7.6828
-7.39192
-7.11123
-6.84381
-6.59359
-6.36173
-6.1478
-5.95107
-5.77081
-5.60638
-5.45709
-5.32296
-5.2017
-5.10885
-8.14083
-8.20784
-8.09999
-7.85602
-7.58455
-7.32124
-7.06451
-6.81545
-6.57904
-6.35821
-6.15349
-5.96462
-5.79128
-5.63313
-5.4897
-5.36104
-5.24502
-5.1543
-7.88244
-7.97578
-7.92558
-7.73266
-7.49451
-7.25758
-7.02462
-6.79507
-6.5738
-6.36515
-6.17073
-5.99073
-5.82511
-5.67379
-5.53648
-5.41327
-5.30224
-5.21307
-7.69485
-7.80294
-7.79423
-7.6454
-7.43865
-7.2251
-7.01265
-6.80051
-6.59289
-6.39501
-6.20955
-6.03725
-5.87824
-5.73266
-5.60025
-5.48105
-5.37344
-5.2834
-7.61833
-7.73065
-7.74316
-7.62153
-7.43655
-7.23964
-7.04181
-6.84258
-6.64548
-6.45598
-6.27735
-6.11062
-5.95602
-5.81354
-5.6831
-5.56448
-5.45666
-5.36093
-7.71776
-7.82478
-7.83113
-7.70448
-7.51627
-7.31754
-7.1189
-6.91967
-6.72324
-6.53483
-6.35748
-6.19201
-6.03839
-5.89643
-5.76581
-5.64583
-5.53622
-5.43384
-7.99408
-8.0885
-8.05507
-7.88352
-7.66195
-7.43925
-7.22087
-7.00554
-6.79721
-6.60043
-6.41706
-6.24715
-6.09024
-5.94575
-5.813
-5.69089
-5.57915
-5.47215
-8.38752
-8.44563
-8.34325
-8.10883
-7.84451
-7.58956
-7.34345
-7.10568
-6.88062
-6.67137
-6.47838
-6.30096
-6.13824
-5.98929
-5.85312
-5.7285
-5.61501
-5.50669
-8.88794
-8.86768
-8.65947
-8.3497
-8.03766
-7.74368
-7.46401
-7.20053
-6.95672
-6.73335
-6.52942
-6.34355
-6.17437
-6.02049
-5.88055
-5.75314
-5.63748
-5.52788
-9.45199
-9.29641
-8.95252
-8.56965
-8.21303
-7.87953
-7.56754
-7.28092
-7.02037
-6.78414
-6.57018
-6.37657
-6.20139
-6.04282
-5.89922
-5.76899
-5.65108
-5.5404
-10.0164
-9.67043
-9.18734
-8.74954
-8.35561
-7.9861
-7.64668
-7.34101
-7.06623
-6.81884
-6.59622
-6.39592
-6.21554
-6.05289
-5.90606
-5.7733
-5.65335
-5.54177
-10.5204
-9.95196
-9.35631
-8.8845
-8.45792
-8.05744
-7.69663
-7.37616
-7.09003
-6.83387
-6.60457
-6.39917
-6.21485
-6.04914
-5.89991
-5.76528
-5.64382
-5.53177
-10.922
-10.1296
-9.46306
-8.97093
-8.51581
-8.09189
-7.71617
-7.38511
-7.09084
-6.82853
-6.59466
-6.38584
-6.19892
-6.03124
-5.88051
-5.74473
-5.62239
-5.5103
-11.1933
-10.2131
-9.51329
-9.0066
-8.53023
-8.09145
-7.70622
-7.3682
-7.06875
-6.80273
-6.56623
-6.35555
-6.16734
-5.99877
-5.84747
-5.71134
-5.5888
-5.47722
-11.3005
-10.2284
-9.51394
-8.99087
-8.50248
-8.05614
-7.66533
-7.32351
-7.02173
-6.75434
-6.51716
-6.30628
-6.1182
-5.94999
-5.79918
-5.66364
-5.5417
-5.43132
-11.1678
-10.1986
-9.47892
-8.93324
-8.43994
-7.99127
-7.59811
-7.25545
-6.954
-6.68751
-6.45155
-6.24211
-6.05558
-5.88894
-5.73969
-5.60567
-5.48511
-5.37629
-10.6367
-10.1064
-9.43634
-8.87633
-8.38128
-7.93237
-7.53875
-7.19672
-6.89661
-6.63167
-6.39733
-6.18954
-6.00464
-5.83956
-5.69179
-5.55917
-5.43984
-5.332
-4.72085
-4.72056
-4.72159
-4.7237
-4.72633
-4.72909
-4.73193
-4.73492
-4.73814
-4.74164
-4.7455
-4.74984
-4.75473
-4.76029
-4.7666
-4.77378
-4.78195
-4.7912
-4.80168
-4.8135
-4.82676
-4.84156
-4.85796
-4.87602
-4.89574
-4.91708
-4.93998
-4.96436
-4.99009
-5.01701
-5.04487
-5.07342
-5.10243
-5.13171
-5.16104
-5.19021
-5.21904
-5.24732
-5.27489
-5.30156
-5.32717
-5.35156
-5.37459
-5.39612
-5.416
-5.4341
-5.45029
-5.46446
-5.47648
-5.48623
-5.4936
-5.49846
-5.50072
-5.50027
-5.497
-5.4908
-5.48159
-5.46927
-5.45375
-5.43495
-5.41278
-5.38717
-5.35806
-5.32537
-5.28906
-5.24907
-5.20536
-5.15791
-5.10667
-5.05162
-4.99279
-4.93019
-4.86389
-4.7939
-4.72011
-4.64234
-4.56057
-4.47495
-4.38556
-4.29245
-4.19568
-4.0953
-3.99136
-3.88393
-3.77305
-3.6588
-3.54126
-3.4205
-3.29661
-3.16967
-3.03978
-2.90704
-2.77154
-2.6334
-2.49272
-2.34962
-2.20421
-2.05662
-1.90696
-1.75536
-1.60196
-1.44688
-1.29025
-1.13222
-0.972913
-0.812475
-0.651046
-0.488766
-0.325779
-0.162229
0.00174048
0.165985
0.330359
0.494719
0.658921
0.822821
0.986277
1.14915
1.3113
1.47258
1.63287
1.79203
1.94994
2.10646
2.26147
2.41485
2.5665
2.71629
2.86412
3.0099
3.15352
3.2949
3.43395
3.57059
3.70474
3.83636
3.96536
4.0917
4.21534
4.33624
4.45437
4.56971
4.68224
4.79195
4.89877
5.00263
5.10352
5.20148
5.29652
5.38868
5.47798
5.56446
5.64812
5.72902
5.80717
5.88261
5.95538
6.02552
6.09305
6.15803
6.22048
6.28046
6.338
6.39314
6.44593
6.49641
6.54463
6.59064
6.6345
6.67628
6.71609
6.75405
6.79036
6.8253
6.85938
6.89342
6.92935
6.97031
7.02817
7.1034
-4.72043
-4.72079
-4.72191
-4.72373
-4.72572
-4.72751
-4.72901
-4.73033
-4.73174
-4.73348
-4.73572
-4.73852
-4.74195
-4.74607
-4.75099
-4.75681
-4.76369
-4.77176
-4.78117
-4.79209
-4.80462
-4.8189
-4.83498
-4.8529
-4.87266
-4.89419
-4.9174
-4.94214
-4.96825
-4.99552
-5.02372
-5.0526
-5.08193
-5.11149
-5.14108
-5.17048
-5.1995
-5.22796
-5.25568
-5.2825
-5.30826
-5.33282
-5.35604
-5.37777
-5.39789
-5.41627
-5.43278
-5.44731
-5.45973
-5.46993
-5.47779
-5.4832
-5.48605
-5.48623
-5.48363
-5.47817
-5.46973
-5.45822
-5.44355
-5.42564
-5.40441
-5.37978
-5.35168
-5.32005
-5.28483
-5.24598
-5.20344
-5.15719
-5.10718
-5.0534
-4.99582
-4.9344
-4.86912
-4.7999
-4.72665
-4.64957
-4.56885
-4.48442
-4.39628
-4.30444
-4.20896
-4.10986
-4.00719
-3.90102
-3.7914
-3.6784
-3.56209
-3.44255
-3.31985
-3.19409
-3.06536
-2.93376
-2.79938
-2.66232
-2.52271
-2.38065
-2.23625
-2.08964
-1.94093
-1.79025
-1.63774
-1.48351
-1.32771
-1.17046
-1.01191
-0.85219
-0.691441
-0.529805
-0.367424
-0.20444
-0.0409994
0.122756
0.28668
0.450631
0.614463
0.778035
0.941203
1.10383
1.26577
1.42689
1.58706
1.74613
1.90399
2.06051
2.21556
2.36902
2.52078
2.67072
2.81874
2.96475
3.10863
3.2503
3.38968
3.52668
3.66124
3.79327
3.92273
4.04956
4.17372
4.29516
4.41386
4.5298
4.64295
4.75328
4.86073
4.96525
5.06683
5.16549
5.26125
5.35413
5.44416
5.53137
5.61577
5.69739
5.77628
5.85245
5.92594
5.99679
6.06504
6.13072
6.19387
6.25453
6.31274
6.36855
6.422
6.47312
6.52197
6.56861
6.6131
6.65551
6.69596
6.73458
6.77158
6.80728
6.84223
6.87728
6.91434
6.95556
7.01158
7.07785
-4.71399
-4.71602
-4.71834
-4.72062
-4.72236
-4.72349
-4.7242
-4.72477
-4.72547
-4.7265
-4.72801
-4.73011
-4.73294
-4.7366
-4.74124
-4.74699
-4.754
-4.76241
-4.77235
-4.78392
-4.79721
-4.81225
-4.82908
-4.84764
-4.86789
-4.88973
-4.91302
-4.93763
-4.96339
-4.9901
-5.01758
-5.04561
-5.07402
-5.1026
-5.13117
-5.15956
-5.18759
-5.21509
-5.24192
-5.26791
-5.29293
-5.31682
-5.33946
-5.36071
-5.38044
-5.39852
-5.41483
-5.42924
-5.44163
-5.4519
-5.45991
-5.46555
-5.46872
-5.46929
-5.46718
-5.46226
-5.45444
-5.44363
-5.42972
-5.41264
-5.3923
-5.36862
-5.34152
-5.31095
-5.27685
-5.23915
-5.19781
-5.15279
-5.10405
-5.05156
-4.99531
-4.93524
-4.87133
-4.80356
-4.73194
-4.6565
-4.5773
-4.49438
-4.40775
-4.31744
-4.22349
-4.12592
-4.02479
-3.92014
-3.81205
-3.70056
-3.58575
-3.4677
-3.34649
-3.22219
-3.0949
-2.96472
-2.83173
-2.69606
-2.55779
-2.41705
-2.27394
-2.12859
-1.98111
-1.83162
-1.68027
-1.52716
-1.37244
-1.21624
-1.05869
-0.899928
-0.740097
-0.579335
-0.417784
-0.255584
-0.0928807
0.0701842
0.233467
0.396824
0.560113
0.723191
0.885916
1.04815
1.20975
1.37058
1.53051
1.6894
1.84712
2.00355
2.15857
2.31205
2.46387
2.61393
2.76212
2.90834
3.05248
3.19447
3.3342
3.4716
3.60659
3.73911
3.86909
3.99649
4.12123
4.2433
4.36264
4.47924
4.59305
4.70406
4.81225
4.91758
5.02004
5.11962
5.21631
5.31014
5.40112
5.48927
5.57462
5.6572
5.73703
5.81414
5.88856
5.96034
6.0295
6.09609
6.16013
6.22167
6.28075
6.33741
6.39168
6.44363
6.49329
6.54073
6.586
6.6292
6.67044
6.70987
6.74772
6.78432
6.82024
6.85631
6.89437
6.93571
6.98955
7.04279
-4.70168
-4.7058
-4.7102
-4.71381
-4.71622
-4.71773
-4.71873
-4.71955
-4.72046
-4.72172
-4.72349
-4.72595
-4.72923
-4.73348
-4.73883
-4.74542
-4.75335
-4.76276
-4.7737
-4.78626
-4.80045
-4.81627
-4.83371
-4.8527
-4.87316
-4.895
-4.91809
-4.94229
-4.96747
-4.99346
-5.0201
-5.04722
-5.07466
-5.10226
-5.12984
-5.15725
-5.18434
-5.21095
-5.23694
-5.26216
-5.28647
-5.30974
-5.33183
-5.35261
-5.37194
-5.38971
-5.40579
-5.42005
-5.43236
-5.44262
-5.4507
-5.45648
-5.45985
-5.4607
-5.45891
-5.45439
-5.44702
-5.43672
-5.42337
-5.4069
-5.38722
-5.36425
-5.33791
-5.30813
-5.27485
-5.23801
-5.19756
-5.15346
-5.10567
-5.05414
-4.99885
-4.93978
-4.87689
-4.81018
-4.73968
-4.66542
-4.58741
-4.50568
-4.42025
-4.33115
-4.2384
-4.14205
-4.04214
-3.93871
-3.83183
-3.72156
-3.60796
-3.49111
-3.37109
-3.24797
-3.12185
-2.99282
-2.86097
-2.72642
-2.58925
-2.44959
-2.30754
-2.16322
-2.01676
-1.86826
-1.71786
-1.56568
-1.41186
-1.25653
-1.09982
-0.941859
-0.782798
-0.62277
-0.461917
-0.30038
-0.1383
0.0241792
0.186916
0.349767
0.51259
0.675243
0.837585
0.999475
1.16078
1.32135
1.48107
1.63979
1.79738
1.95373
2.1087
2.26218
2.41405
2.56419
2.71251
2.85889
3.00324
3.14547
3.28549
3.42321
3.55856
3.69147
3.82188
3.94973
4.07497
4.19756
4.31746
4.43462
4.54902
4.66061
4.76939
4.87535
4.97848
5.07875
5.17617
5.27074
5.36247
5.45139
5.53751
5.62086
5.70146
5.77935
5.85454
5.92709
5.99701
6.06435
6.12914
6.19142
6.25123
6.3086
6.36359
6.41623
6.46658
6.51469
6.56063
6.6045
6.6464
6.68649
6.725
6.76227
6.79883
6.8354
6.87358
6.91379
6.96335
7.00423
-4.68646
-4.69279
-4.69989
-4.70553
-4.70932
-4.71188
-4.71378
-4.71544
-4.71719
-4.71928
-4.72194
-4.72536
-4.72968
-4.73505
-4.74157
-4.74937
-4.75852
-4.76911
-4.78117
-4.79474
-4.80981
-4.82637
-4.84436
-4.86372
-4.88437
-4.9062
-4.92912
-4.953
-4.97771
-5.00311
-5.02906
-5.05542
-5.08205
-5.10879
-5.13552
-5.16207
-5.18832
-5.21412
-5.23934
-5.26384
-5.28748
-5.31013
-5.33167
-5.35195
-5.37086
-5.38827
-5.40405
-5.41807
-5.43021
-5.44036
-5.44838
-5.45416
-5.45759
-5.45855
-5.45692
-5.4526
-5.44549
-5.43548
-5.42247
-5.40638
-5.38712
-5.36459
-5.33874
-5.30948
-5.27674
-5.24048
-5.20064
-5.15716
-5.11002
-5.05916
-5.00457
-4.94621
-4.88409
-4.81818
-4.7485
-4.67507
-4.5979
-4.51702
-4.43244
-4.34419
-4.2523
-4.15682
-4.05777
-3.95521
-3.8492
-3.7398
-3.62706
-3.51108
-3.39191
-3.26964
-3.14437
-3.01618
-2.88516
-2.75142
-2.61506
-2.47619
-2.33492
-2.19136
-2.04564
-1.89787
-1.74818
-1.59669
-1.44354
-1.28885
-1.13276
-0.97541
-0.816925
-0.657449
-0.497122
-0.336083
-0.174475
-0.0124391
0.149883
0.312349
0.474816
0.637144
0.799191
0.960819
1.12189
1.28226
1.44181
1.60039
1.75789
1.91416
2.06909
2.22256
2.37446
2.52466
2.67306
2.81956
2.96406
3.10647
3.24669
3.38465
3.52026
3.65346
3.78419
3.91239
4.038
4.16098
4.28128
4.39886
4.51368
4.6257
4.73489
4.84128
4.94486
5.04562
5.14354
5.23863
5.33089
5.42036
5.50703
5.59094
5.67211
5.75056
5.82633
5.89944
5.96994
6.03785
6.1032
6.16604
6.2264
6.28433
6.33985
6.39303
6.4439
6.49253
6.53898
6.58334
6.62572
6.66628
6.70523
6.74287
6.77968
6.81623
6.85373
6.89195
6.9367
6.96709
-4.6724
-4.68068
-4.69032
-4.69807
-4.70349
-4.70742
-4.71057
-4.71343
-4.71635
-4.71963
-4.72352
-4.7282
-4.73382
-4.74051
-4.74837
-4.75747
-4.76789
-4.77966
-4.7928
-4.80733
-4.82321
-4.84041
-4.85889
-4.87856
-4.89936
-4.92119
-4.94396
-4.96754
-4.99184
-5.01674
-5.0421
-5.06781
-5.09374
-5.11976
-5.14574
-5.17156
-5.19708
-5.22217
-5.24671
-5.27056
-5.2936
-5.31569
-5.33671
-5.35654
-5.37504
-5.39208
-5.40755
-5.42131
-5.43324
-5.44322
-5.45112
-5.45683
-5.46022
-5.46118
-5.4596
-5.45536
-5.44836
-5.4385
-5.42567
-5.40979
-5.39076
-5.3685
-5.34293
-5.31398
-5.28159
-5.24568
-5.20622
-5.16315
-5.11642
-5.06601
-5.01188
-4.95402
-4.89241
-4.82704
-4.75792
-4.68506
-4.60847
-4.52816
-4.44417
-4.35651
-4.26521
-4.17032
-4.07188
-3.96992
-3.86452
-3.75572
-3.6436
-3.52822
-3.40966
-3.28801
-3.16334
-3.03575
-2.90533
-2.77218
-2.63641
-2.49812
-2.35742
-2.21443
-2.06926
-1.92203
-1.77287
-1.6219
-1.46926
-1.31506
-1.15945
-1.00255
-0.844507
-0.685455
-0.525534
-0.364883
-0.203642
-0.0419534
0.120042
0.282202
0.444386
0.606452
0.768261
0.929672
1.09055
1.25076
1.41016
1.56862
1.72601
1.88222
2.0371
2.19055
2.34244
2.49267
2.64112
2.78769
2.93228
3.07481
3.21517
3.35329
3.4891
3.62251
3.75347
3.88191
4.00778
4.13103
4.25162
4.36949
4.48461
4.59693
4.70644
4.81315
4.91707
5.01817
5.11646
5.21193
5.30459
5.39446
5.48155
5.56588
5.64748
5.72637
5.80258
5.87614
5.94707
6.01542
6.08122
6.1445
6.2053
6.26366
6.31961
6.37321
6.42449
6.47353
6.52037
6.5651
6.60783
6.6487
6.6879
6.72569
6.76246
6.7986
6.83501
6.87086
6.91114
6.93276
-4.6629
-4.67232
-4.68379
-4.69335
-4.70033
-4.70564
-4.71009
-4.71422
-4.7184
-4.72296
-4.72814
-4.73411
-4.74103
-4.74901
-4.75813
-4.76844
-4.77999
-4.79281
-4.80689
-4.82222
-4.83878
-4.85652
-4.87539
-4.89532
-4.91623
-4.93806
-4.9607
-4.98405
-5.00803
-5.03252
-5.05742
-5.08262
-5.108
-5.13344
-5.15883
-5.18405
-5.20898
-5.2335
-5.25748
-5.28079
-5.30333
-5.32495
-5.34553
-5.36496
-5.38309
-5.3998
-5.41498
-5.42848
-5.44019
-5.44998
-5.45772
-5.4633
-5.4666
-5.46749
-5.46587
-5.46161
-5.45462
-5.44479
-5.43201
-5.4162
-5.39726
-5.37511
-5.34967
-5.32087
-5.28864
-5.25292
-5.21365
-5.17079
-5.1243
-5.07414
-5.02028
-4.9627
-4.9014
-4.83637
-4.76759
-4.69508
-4.61885
-4.53891
-4.45528
-4.368
-4.27708
-4.18258
-4.08453
-3.98298
-3.87798
-3.76959
-3.65788
-3.54292
-3.42478
-3.30355
-3.17931
-3.05214
-2.92215
-2.78943
-2.65409
-2.51622
-2.37595
-2.23337
-2.08862
-1.9418
-1.79304
-1.64247
-1.49021
-1.33639
-1.18114
-1.02461
-0.866914
-0.708199
-0.548603
-0.388264
-0.227322
-0.0659189
0.0958057
0.257711
0.419655
0.581498
0.743098
0.904319
1.06502
1.22507
1.38433
1.54268
1.69997
1.85609
2.01091
2.16431
2.31617
2.46639
2.61484
2.76144
2.90608
3.04867
3.18912
3.32734
3.46326
3.59681
3.72792
3.85652
3.98257
4.10601
4.22679
4.34486
4.46019
4.57274
4.68249
4.78944
4.89361
4.99497
5.09353
5.18929
5.28226
5.37244
5.45985
5.54452
5.62645
5.70568
5.78224
5.85614
5.92743
5.99614
6.06229
6.12592
6.18708
6.24578
6.30208
6.35602
6.40764
6.45699
6.50413
6.54915
6.59212
6.63319
6.6725
6.71027
6.74678
6.78228
6.81734
6.85077
6.88707
6.90133
-4.65923
-4.66905
-4.68149
-4.69229
-4.70051
-4.70701
-4.71264
-4.71794
-4.7233
-4.72903
-4.73537
-4.7425
-4.75056
-4.75964
-4.76982
-4.78114
-4.79363
-4.80729
-4.82212
-4.8381
-4.85519
-4.87335
-4.89253
-4.91266
-4.93368
-4.95551
-4.97806
-5.00126
-5.025
-5.04921
-5.07376
-5.09858
-5.12355
-5.14856
-5.17351
-5.19828
-5.22276
-5.24684
-5.27039
-5.29329
-5.31542
-5.33667
-5.3569
-5.37599
-5.39381
-5.41025
-5.42516
-5.43842
-5.44991
-5.4595
-5.46707
-5.47249
-5.47565
-5.47642
-5.47468
-5.47034
-5.46327
-5.45337
-5.44054
-5.42469
-5.40572
-5.38355
-5.35811
-5.32931
-5.2971
-5.26141
-5.22219
-5.17939
-5.13297
-5.0829
-5.02915
-4.9717
-4.91054
-4.84566
-4.77705
-4.70472
-4.62867
-4.54892
-4.4655
-4.37842
-4.28772
-4.19344
-4.09562
-3.9943
-3.88955
-3.78142
-3.66997
-3.55528
-3.43741
-3.31646
-3.19251
-3.06564
-2.93595
-2.80353
-2.66849
-2.53093
-2.39096
-2.24869
-2.10425
-1.95774
-1.80929
-1.65902
-1.50706
-1.35354
-1.19859
-1.04234
-0.884924
-0.726483
-0.567154
-0.407073
-0.246382
-0.0852204
0.0762725
0.237956
0.39969
0.561334
0.722747
0.883791
1.04433
1.20423
1.36335
1.52157
1.67875
1.83477
1.9895
2.14283
2.29464
2.44481
2.59325
2.73983
2.88448
3.02708
3.16756
3.30583
3.44181
3.57543
3.70662
3.83532
3.96147
4.08503
4.20593
4.32414
4.43961
4.55231
4.66223
4.76937
4.87372
4.97527
5.07404
5.17001
5.2632
5.35362
5.44128
5.52619
5.60839
5.68788
5.76471
5.8389
5.91047
5.97945
6.04589
6.10981
6.17125
6.23024
6.28682
6.34103
6.39292
6.44252
6.48989
6.53511
6.57825
6.6194
6.65871
6.69632
6.73243
6.76712
6.80074
6.83177
6.86456
6.87268
-4.66147
-4.67108
-4.68367
-4.69505
-4.70406
-4.71144
-4.71799
-4.72423
-4.73055
-4.73724
-4.74454
-4.75261
-4.76157
-4.77153
-4.78254
-4.79463
-4.80783
-4.82213
-4.83752
-4.85398
-4.87147
-4.88995
-4.90936
-4.92965
-4.95076
-4.9726
-4.99511
-5.0182
-5.0418
-5.0658
-5.09014
-5.11469
-5.13938
-5.1641
-5.18874
-5.2132
-5.23736
-5.26112
-5.28436
-5.30696
-5.3288
-5.34977
-5.36972
-5.38855
-5.40613
-5.42232
-5.437
-5.45005
-5.46133
-5.47073
-5.4781
-5.48334
-5.48632
-5.48692
-5.48502
-5.48052
-5.4733
-5.46325
-5.45028
-5.43429
-5.4152
-5.39291
-5.36735
-5.33844
-5.30613
-5.27035
-5.23105
-5.18819
-5.14172
-5.09161
-5.03783
-4.98038
-4.91923
-4.85436
-4.78578
-4.71348
-4.63748
-4.55779
-4.47443
-4.38743
-4.29682
-4.20263
-4.10491
-4.00371
-3.89909
-3.79109
-3.67979
-3.56526
-3.44756
-3.32679
-3.20302
-3.07634
-2.94685
-2.81465
-2.67982
-2.54249
-2.40275
-2.26071
-2.1165
-1.97022
-1.82201
-1.67198
-1.52027
-1.36699
-1.21228
-1.05626
-0.899086
-0.740878
-0.581776
-0.42192
-0.261448
-0.100499
0.0607859
0.222269
0.383809
0.545266
0.7065
0.867375
1.02775
1.1875
1.34647
1.50456
1.66161
1.81752
1.97215
2.12538
2.27711
2.42721
2.57558
2.72212
2.86673
3.00931
3.14977
3.28804
3.42403
3.55767
3.68889
3.81763
3.94383
4.06744
4.18841
4.30669
4.42225
4.53505
4.64508
4.75234
4.85681
4.9585
5.05741
5.15354
5.24689
5.33748
5.42532
5.51042
5.59282
5.67252
5.74956
5.82396
5.89575
5.96496
6.03163
6.09578
6.15745
6.21668
6.27348
6.32792
6.38001
6.4298
6.47735
6.52271
6.56593
6.60711
6.64632
6.68367
6.71925
6.75303
6.78516
6.81391
6.84361
6.8466
-4.66884
-4.67775
-4.68981
-4.70115
-4.71047
-4.71835
-4.7255
-4.73241
-4.73943
-4.74684
-4.75484
-4.7636
-4.77323
-4.78382
-4.79541
-4.80805
-4.82175
-4.83649
-4.85228
-4.86907
-4.88684
-4.90555
-4.92513
-4.94554
-4.96671
-4.98858
-5.01108
-5.03412
-5.05764
-5.08153
-5.10573
-5.13014
-5.15466
-5.1792
-5.20365
-5.22792
-5.25188
-5.27544
-5.29848
-5.32087
-5.34251
-5.36327
-5.38303
-5.40166
-5.41903
-5.43503
-5.44951
-5.46235
-5.47343
-5.48262
-5.4898
-5.49483
-5.49759
-5.49798
-5.49587
-5.49114
-5.4837
-5.47344
-5.46025
-5.44404
-5.42473
-5.40222
-5.37646
-5.34735
-5.31484
-5.27887
-5.2394
-5.19636
-5.14974
-5.09949
-5.04559
-4.98803
-4.92677
-4.86182
-4.79316
-4.7208
-4.64474
-4.56501
-4.48161
-4.39459
-4.30397
-4.20978
-4.11208
-4.01091
-3.90633
-3.79839
-3.68716
-3.5727
-3.4551
-3.33444
-3.21079
-3.08424
-2.95489
-2.82283
-2.68817
-2.551
-2.41144
-2.26958
-2.12556
-1.97948
-1.83147
-1.68164
-1.53013
-1.37705
-1.22255
-1.06675
-0.909784
-0.751786
-0.592893
-0.433243
-0.272976
-0.112229
0.0488583
0.210145
0.371492
0.53276
0.693812
0.85451
1.01472
1.1743
1.33312
1.49105
1.64796
1.80373
1.95824
2.11135
2.26297
2.41297
2.56125
2.7077
2.85223
2.99475
3.13516
3.27338
3.40933
3.54294
3.67414
3.80287
3.92907
4.05269
4.17367
4.29198
4.40757
4.52042
4.63051
4.73784
4.84239
4.94416
5.04316
5.13939
5.23286
5.32357
5.41154
5.49678
5.57932
5.65918
5.73638
5.81095
5.88292
5.95231
6.01916
6.0835
6.14536
6.20477
6.26176
6.31637
6.36863
6.41858
6.46625
6.51169
6.55495
6.59607
6.63512
6.67213
6.70711
6.73994
6.77059
6.79719
6.82417
6.82289
-4.68002
-4.6879
-4.69893
-4.70969
-4.71888
-4.72689
-4.73433
-4.74162
-4.74907
-4.75693
-4.76539
-4.77461
-4.78467
-4.79567
-4.80765
-4.82064
-4.83465
-4.84968
-4.86571
-4.88272
-4.90067
-4.91952
-4.93922
-4.95972
-4.98095
-5.00286
-5.02537
-5.0484
-5.07189
-5.09575
-5.1199
-5.14424
-5.16869
-5.19315
-5.21751
-5.24167
-5.26554
-5.28898
-5.3119
-5.33417
-5.35568
-5.3763
-5.3959
-5.41437
-5.43158
-5.44739
-5.46169
-5.47433
-5.4852
-5.49417
-5.50111
-5.5059
-5.50841
-5.50854
-5.50615
-5.50116
-5.49343
-5.48288
-5.4694
-5.4529
-5.4333
-5.4105
-5.38445
-5.35506
-5.32228
-5.28605
-5.24631
-5.20304
-5.15618
-5.10572
-5.05163
-4.99388
-4.93245
-4.86733
-4.79852
-4.72602
-4.64983
-4.56998
-4.48649
-4.39938
-4.30869
-4.21445
-4.11671
-4.01551
-3.91092
-3.80299
-3.69178
-3.57736
-3.45982
-3.33922
-3.21565
-3.0892
-2.95995
-2.82802
-2.69348
-2.55645
-2.41704
-2.27535
-2.13149
-1.98559
-1.83775
-1.68811
-1.53679
-1.38392
-1.22961
-1.07401
-0.917253
-0.759463
-0.600779
-0.441339
-0.281279
-0.120739
0.0401428
0.201226
0.362371
0.523442
0.684299
0.844806
1.00483
1.16422
1.32287
1.48062
1.63737
1.79298
1.94732
2.10029
2.25176
2.40163
2.54978
2.69611
2.84053
2.98294
3.12325
3.26138
3.39725
3.53078
3.66192
3.7906
3.91675
4.04032
4.16128
4.27956
4.39515
4.508
4.61811
4.72545
4.83004
4.93185
5.0309
5.12719
5.22073
5.31151
5.39957
5.48491
5.56756
5.64753
5.72485
5.79955
5.87165
5.94119
6.00819
6.07268
6.13469
6.19426
6.2514
6.30615
6.35855
6.40861
6.45637
6.50185
6.5451
6.58613
6.62495
6.66156
6.69591
6.72775
6.75697
6.78159
6.80618
6.80135
-4.6935
-4.70016
-4.70981
-4.71959
-4.72826
-4.73607
-4.7435
-4.7509
-4.75854
-4.76663
-4.77534
-4.7848
-4.79511
-4.80634
-4.81853
-4.83171
-4.84589
-4.86108
-4.87724
-4.89437
-4.91242
-4.93136
-4.95113
-4.97169
-4.99298
-5.01493
-5.03747
-5.06054
-5.08405
-5.10792
-5.13208
-5.15642
-5.18086
-5.20531
-5.22965
-5.25378
-5.2776
-5.301
-5.32385
-5.34604
-5.36745
-5.38796
-5.40744
-5.42576
-5.4428
-5.45843
-5.47252
-5.48495
-5.49558
-5.50428
-5.51095
-5.51545
-5.51766
-5.51747
-5.51476
-5.50942
-5.50135
-5.49045
-5.47662
-5.45977
-5.43981
-5.41666
-5.39026
-5.36054
-5.32742
-5.29087
-5.25083
-5.20727
-5.16014
-5.10942
-5.05508
-4.9971
-4.93544
-4.87011
-4.8011
-4.72842
-4.65207
-4.57207
-4.48844
-4.40121
-4.31042
-4.2161
-4.1183
-4.01705
-3.91243
-3.80449
-3.69329
-3.5789
-3.46139
-3.34085
-3.21735
-3.09099
-2.96185
-2.83002
-2.69562
-2.55873
-2.41946
-2.27793
-2.13425
-1.98853
-1.84088
-1.69144
-1.54032
-1.38765
-1.23355
-1.07817
-0.921625
-0.764055
-0.605594
-0.446377
-0.286542
-0.126226
0.0344306
0.19529
0.356212
0.51706
0.677697
0.837986
0.99779
1.15698
1.31541
1.47296
1.62951
1.78492
1.93907
2.09185
2.24314
2.39283
2.54082
2.68699
2.83125
2.97351
3.11368
3.25168
3.38743
3.52085
3.65188
3.78045
3.90651
4.03
4.15088
4.2691
4.38464
4.49745
4.60753
4.71486
4.81944
4.92125
5.02032
5.11662
5.21019
5.30102
5.38912
5.47452
5.55724
5.63729
5.7147
5.7895
5.86171
5.93136
5.99848
6.06309
6.12523
6.18492
6.24219
6.29706
6.34956
6.39971
6.44752
6.49303
6.53623
6.57712
6.61569
6.65187
6.68555
6.71641
6.74427
6.76708
6.78954
6.78178
-4.70778
-4.71314
-4.72119
-4.7297
-4.73757
-4.74491
-4.75209
-4.75937
-4.76699
-4.77512
-4.7839
-4.79345
-4.80385
-4.81516
-4.82743
-4.84069
-4.85494
-4.87018
-4.8864
-4.90357
-4.92166
-4.94064
-4.96046
-4.98106
-5.00239
-5.02438
-5.04697
-5.07008
-5.09364
-5.11756
-5.14175
-5.16613
-5.19061
-5.21507
-5.23942
-5.26355
-5.28735
-5.31071
-5.3335
-5.35562
-5.37692
-5.39731
-5.41664
-5.43478
-5.45163
-5.46703
-5.48087
-5.49303
-5.50336
-5.51176
-5.51809
-5.52224
-5.52409
-5.52352
-5.52042
-5.51469
-5.50622
-5.49491
-5.48068
-5.46342
-5.44306
-5.41953
-5.39274
-5.36264
-5.32917
-5.29227
-5.2519
-5.20803
-5.16061
-5.10962
-5.05502
-4.99678
-4.93488
-4.86933
-4.80011
-4.72723
-4.6507
-4.57055
-4.48678
-4.39944
-4.30855
-4.21415
-4.11629
-4.01502
-3.91038
-3.80244
-3.69126
-3.57691
-3.45947
-3.339
-3.2156
-3.08934
-2.96033
-2.82864
-2.69438
-2.55766
-2.41857
-2.27722
-2.13374
-1.98822
-1.84079
-1.69156
-1.54067
-1.38823
-1.23437
-1.07923
-0.922934
-0.765615
-0.607406
-0.448444
-0.288865
-0.128808
0.0315911
0.192192
0.352856
0.513447
0.673828
0.833861
0.993412
1.15235
1.31053
1.46784
1.62415
1.77932
1.93324
2.08579
2.23686
2.38633
2.53411
2.68007
2.82414
2.96621
3.10619
3.24401
3.37959
3.51285
3.64373
3.77215
3.89808
4.02144
4.14221
4.26033
4.37577
4.48851
4.59852
4.70579
4.81032
4.91211
5.01114
5.10744
5.201
5.29184
5.37996
5.46539
5.54815
5.62825
5.70572
5.78059
5.85288
5.92262
5.98983
6.05455
6.11679
6.17659
6.23396
6.28893
6.34151
6.39173
6.43958
6.48508
6.5282
6.56894
6.60722
6.64295
6.67596
6.70588
6.73246
6.75361
6.77417
6.76402
-4.72149
-4.72555
-4.73193
-4.739
-4.74586
-4.75253
-4.75926
-4.76625
-4.77369
-4.7817
-4.79042
-4.79993
-4.8103
-4.8216
-4.83387
-4.84711
-4.86135
-4.87658
-4.89279
-4.90996
-4.92805
-4.94703
-4.96686
-4.98747
-5.00882
-5.03084
-5.05346
-5.0766
-5.10019
-5.12415
-5.14837
-5.17277
-5.19726
-5.22172
-5.24605
-5.27015
-5.29389
-5.31717
-5.33985
-5.36183
-5.38298
-5.40318
-5.42229
-5.44019
-5.45676
-5.47187
-5.48539
-5.49719
-5.50716
-5.51517
-5.5211
-5.52483
-5.52625
-5.52525
-5.52171
-5.51554
-5.50662
-5.49488
-5.48021
-5.46252
-5.44175
-5.41781
-5.39063
-5.36016
-5.32633
-5.2891
-5.24843
-5.20426
-5.15658
-5.10532
-5.05046
-4.99198
-4.92986
-4.8641
-4.79469
-4.72165
-4.64498
-4.5647
-4.48084
-4.39341
-4.30247
-4.20803
-4.11016
-4.00889
-3.90428
-3.79638
-3.68527
-3.57101
-3.45367
-3.33332
-3.21006
-3.08395
-2.9551
-2.8236
-2.68954
-2.55302
-2.41415
-2.27304
-2.12979
-1.98452
-1.83735
-1.68839
-1.53777
-1.38561
-1.23204
-1.07718
-0.921175
-0.76415
-0.606239
-0.447577
-0.288301
-0.128546
0.0315481
0.191844
0.352205
0.512492
0.67257
0.832302
0.991553
1.15019
1.30808
1.4651
1.62111
1.776
1.92964
2.08192
2.23272
2.38193
2.52944
2.67515
2.81897
2.9608
3.10056
3.23815
3.37352
3.50657
3.63725
3.76549
3.89123
4.01443
4.13504
4.25302
4.36833
4.48094
4.59085
4.69803
4.80248
4.9042
5.00318
5.09943
5.19296
5.28377
5.37189
5.45732
5.54009
5.62022
5.69773
5.77265
5.845
5.91481
5.9821
6.04689
6.10922
6.16911
6.22657
6.28163
6.33428
6.38455
6.43243
6.4779
6.52094
6.5615
6.59949
6.63476
6.66712
6.69612
6.7215
6.74115
6.76001
6.74793
-4.73347
-4.73633
-4.74104
-4.74659
-4.75232
-4.75818
-4.76432
-4.7709
-4.77803
-4.78582
-4.79437
-4.80376
-4.81404
-4.82525
-4.83744
-4.85061
-4.86478
-4.87995
-4.89609
-4.91319
-4.93123
-4.95016
-4.96993
-4.9905
-5.01181
-5.03379
-5.05637
-5.07948
-5.10304
-5.12695
-5.15112
-5.17546
-5.19987
-5.22424
-5.24845
-5.27241
-5.29599
-5.31908
-5.34155
-5.36329
-5.38417
-5.40406
-5.42285
-5.4404
-5.4566
-5.47131
-5.48442
-5.4958
-5.50532
-5.51288
-5.51835
-5.52161
-5.52256
-5.52109
-5.51708
-5.51045
-5.50108
-5.48889
-5.47379
-5.45569
-5.43452
-5.41021
-5.38267
-5.35187
-5.31773
-5.28022
-5.23929
-5.19489
-5.14697
-5.09549
-5.04042
-4.98175
-4.91946
-4.85356
-4.78403
-4.71088
-4.63413
-4.5538
-4.4699
-4.38247
-4.29153
-4.19713
-4.09931
-3.99812
-3.89361
-3.78584
-3.67487
-3.56076
-3.44359
-3.32344
-3.20038
-3.0745
-2.94589
-2.81464
-2.68084
-2.5446
-2.40602
-2.2652
-2.12226
-1.9773
-1.83045
-1.68182
-1.53153
-1.37971
-1.22648
-1.07197
-0.916319
-0.759648
-0.602094
-0.443791
-0.284874
-0.125481
0.0342518
0.194186
0.354186
0.514113
0.673831
0.833206
0.992101
1.15039
1.30793
1.4646
1.62027
1.77482
1.92813
2.08007
2.23055
2.37944
2.52664
2.67205
2.81557
2.95711
3.09659
3.23391
3.36901
3.50181
3.63225
3.76026
3.88578
4.00877
4.12918
4.24697
4.36211
4.47458
4.58434
4.6914
4.79574
4.89735
4.99624
5.09242
5.18589
5.27665
5.36474
5.45015
5.53291
5.61305
5.69058
5.76553
5.83792
5.90778
5.97513
6.04
6.1024
6.16237
6.21991
6.27504
6.32776
6.37807
6.42596
6.4714
6.51435
6.55473
6.59242
6.62726
6.65897
6.68712
6.71138
6.72968
6.747
6.73339
-4.74324
-4.74505
-4.74816
-4.75216
-4.75666
-4.76159
-4.76703
-4.77307
-4.7798
-4.78727
-4.79558
-4.80475
-4.81485
-4.8259
-4.83793
-4.85094
-4.86495
-4.87994
-4.8959
-4.91282
-4.93067
-4.9494
-4.96898
-4.98935
-5.01046
-5.03224
-5.05462
-5.07752
-5.10087
-5.12456
-5.1485
-5.1726
-5.19675
-5.22085
-5.24477
-5.26842
-5.29166
-5.31439
-5.33649
-5.35783
-5.37829
-5.39775
-5.41609
-5.43317
-5.44889
-5.46311
-5.47572
-5.4866
-5.49562
-5.50267
-5.50764
-5.51041
-5.51088
-5.50893
-5.50447
-5.49739
-5.48759
-5.475
-5.45952
-5.44106
-5.41956
-5.39494
-5.36713
-5.33608
-5.30173
-5.26405
-5.22295
-5.17839
-5.13031
-5.07869
-5.02351
-4.96474
-4.90238
-4.83643
-4.76688
-4.69373
-4.61701
-4.53673
-4.45291
-4.36557
-4.27476
-4.1805
-4.08285
-3.98184
-3.87754
-3.76999
-3.65926
-3.54542
-3.42853
-3.30867
-3.18593
-3.06037
-2.9321
-2.80119
-2.66776
-2.53188
-2.39368
-2.25325
-2.11071
-1.96616
-1.81971
-1.6715
-1.52163
-1.37024
-1.21744
-1.06336
-0.908144
-0.751909
-0.594792
-0.436928
-0.278451
-0.119497
0.0397962
0.199292
0.358854
0.518346
0.677631
0.836574
0.995041
1.1529
1.31002
1.46627
1.62153
1.77568