/*--------------------------------*- C++ -*----------------------------------*\
| =========                 |                                                 |
| \\      /  F ield         | OpenFOAM: The Open Source CFD Toolbox           |
|  \\    /   O peration     | Version:  2412                                  |
|   \\  /    A nd           | Website:  www.openfoam.com                      |
|    \\/     M anipulation  |                                                 |
\*---------------------------------------------------------------------------*/
FoamFile
{
    version     2.0;
    format      ascii;
    arch        "LSB;label=32;scalar=64";
    class       surfaceScalarField;
    location    "0.2";
    object      phi;
}
// * * * * * * * * * * * * * * * * * * * * * * * * * * * * * * * * * * * * * //

dimensions      [0 3 -1 0 0 0 0];

oriented        oriented;

internalField   nonuniform List<scalar> 
24170
(
1.36706e-07
-5.7162e-08
1.95621e-07
-5.89152e-08
2.57919e-07
-6.22975e-08
3.11674e-07
-5.37551e-08
3.61813e-07
-5.01386e-08
4.07923e-07
-4.611e-08
4.49569e-07
-4.16465e-08
4.87094e-07
-3.75248e-08
5.20883e-07
-3.3789e-08
5.51273e-07
-3.03903e-08
5.78589e-07
-2.73163e-08
6.03123e-07
-2.45337e-08
6.25117e-07
-2.19936e-08
6.44746e-07
-1.96294e-08
6.62147e-07
-1.74013e-08
6.77192e-07
-1.5045e-08
6.89884e-07
-1.26913e-08
-8.05884e-09
6.97943e-07
3.26112e-07
-1.24822e-07
3.94133e-07
-1.26936e-07
4.55887e-07
-1.24052e-07
5.14186e-07
-1.12054e-07
5.67681e-07
-1.03633e-07
6.16638e-07
-9.50665e-08
6.61279e-07
-8.62884e-08
7.0183e-07
-7.80758e-08
7.38587e-07
-7.0546e-08
7.71871e-07
-6.36737e-08
8.01986e-07
-5.74314e-08
8.29207e-07
-5.17544e-08
8.53765e-07
-4.65517e-08
8.7584e-07
-4.17043e-08
8.95544e-07
-3.71061e-08
9.12877e-07
-3.23774e-08
9.27927e-07
-2.77412e-08
-1.99533e-08
9.39821e-07
5.17245e-07
-1.7161e-07
5.79151e-07
-1.88842e-07
6.38211e-07
-1.83112e-07
6.95368e-07
-1.69211e-07
7.48181e-07
-1.56446e-07
7.96786e-07
-1.43671e-07
8.41431e-07
-1.30933e-07
8.82249e-07
-1.18894e-07
9.19458e-07
-1.07755e-07
9.53321e-07
-9.75369e-08
9.841e-07
-8.82095e-08
1.01203e-06
-7.96878e-08
1.03733e-06
-7.18496e-08
1.06016e-06
-6.45366e-08
1.08064e-06
-5.75787e-08
1.09885e-06
-5.0595e-08
1.11463e-06
-4.35207e-08
-3.34988e-08
1.12818e-06
7.4348e-07
-1.95421e-07
7.91921e-07
-2.37283e-07
8.43831e-07
-2.35022e-07
8.96363e-07
-2.21744e-07
9.46026e-07
-2.06109e-07
9.92305e-07
-1.89951e-07
1.03522e-06
-1.73845e-07
1.07476e-06
-1.58441e-07
1.11105e-06
-1.44045e-07
1.14427e-06
-1.30749e-07
1.1746e-06
-1.18539e-07
1.20224e-06
-1.07328e-07
1.22736e-06
-9.69747e-08
1.25012e-06
-8.72968e-08
1.27062e-06
-7.80798e-08
1.28898e-06
-6.89492e-08
1.30509e-06
-5.96307e-08
-4.80122e-08
1.3196e-06
1.01492e-06
-1.99875e-07
1.04731e-06
-2.69667e-07
1.08853e-06
-2.76248e-07
1.1334e-06
-2.66606e-07
1.17752e-06
-2.50236e-07
1.21952e-06
-2.31948e-07
1.25901e-06
-2.13338e-07
1.29581e-06
-1.95234e-07
1.32986e-06
-1.78103e-07
1.36126e-06
-1.6214e-07
1.39009e-06
-1.47376e-07
1.4165e-06
-1.33738e-07
1.44062e-06
-1.21088e-07
1.46255e-06
-1.09234e-07
1.48242e-06
-9.79416e-08
1.50032e-06
-8.68567e-08
1.51632e-06
-7.56302e-08
-6.27968e-08
1.53111e-06
1.33808e-06
-1.90516e-07
1.35427e-06
-2.85852e-07
1.38245e-06
-3.04431e-07
1.41696e-06
-3.01115e-07
1.45316e-06
-2.86442e-07
1.48884e-06
-2.6762e-07
1.52312e-06
-2.47626e-07
1.55559e-06
-2.27696e-07
1.58601e-06
-2.08526e-07
1.61433e-06
-1.90456e-07
1.64054e-06
-1.73594e-07
1.66472e-06
-1.5791e-07
1.68691e-06
-1.43284e-07
1.70722e-06
-1.29538e-07
1.72571e-06
-1.1644e-07
1.74253e-06
-1.03678e-07
1.75782e-06
-9.09135e-08
-7.71707e-08
1.77219e-06
1.71767e-06
-1.72906e-07
1.7193e-06
-2.87483e-07
1.73353e-06
-3.18661e-07
1.75572e-06
-3.23301e-07
1.78183e-06
-3.12557e-07
1.80917e-06
-2.94957e-07
1.83643e-06
-2.74888e-07
1.86291e-06
-2.5418e-07
1.88821e-06
-2.33823e-07
1.9121e-06
-2.14348e-07
1.93448e-06
-1.95974e-07
1.95531e-06
-1.78738e-07
1.97459e-06
-1.62566e-07
1.99236e-06
-1.47308e-07
2.00869e-06
-1.32762e-07
2.02368e-06
-1.18673e-07
2.03753e-06
-1.04759e-07
-9.04008e-08
2.05076e-06
2.15734e-06
-1.5155e-07
2.14717e-06
-2.7732e-07
2.14805e-06
-3.19535e-07
2.15704e-06
-3.32298e-07
2.17148e-06
-3.26989e-07
2.18874e-06
-3.12219e-07
2.20727e-06
-2.93422e-07
2.22617e-06
-2.73075e-07
2.24484e-06
-2.52496e-07
2.26292e-06
-2.32431e-07
2.28019e-06
-2.13242e-07
2.29651e-06
-1.95057e-07
2.31181e-06
-1.77865e-07
2.32607e-06
-1.61569e-07
2.33932e-06
-1.46014e-07
2.35166e-06
-1.3101e-07
2.36326e-06
-1.16357e-07
-1.01689e-07
2.37455e-06
2.66011e-06
-1.29472e-07
2.64127e-06
-2.58476e-07
2.63057e-06
-3.08836e-07
2.62679e-06
-3.28522e-07
2.62888e-06
-3.29077e-07
2.63492e-06
-3.18257e-07
2.64339e-06
-3.01895e-07
2.65331e-06
-2.82997e-07
2.664e-06
-2.63181e-07
2.67496e-06
-2.43396e-07
2.68588e-06
-2.24158e-07
2.69652e-06
-2.05702e-07
2.70675e-06
-1.88098e-07
2.7165e-06
-1.71313e-07
2.72574e-06
-1.55255e-07
2.73453e-06
-1.39804e-07
2.74302e-06
-1.24844e-07
-1.10191e-07
2.75152e-06
3.22874e-06
-1.08349e-07
3.204e-06
-2.33741e-07
3.18407e-06
-2.88909e-07
3.16904e-06
-3.13485e-07
3.15922e-06
-3.19264e-07
3.15376e-06
-3.12789e-07
3.15148e-06
-2.99616e-07
3.15151e-06
-2.83027e-07
3.15317e-06
-2.64844e-07
3.15594e-06
-2.46169e-07
3.15943e-06
-2.27649e-07
3.16336e-06
-2.09626e-07
3.16752e-06
-1.92254e-07
3.17178e-06
-1.75575e-07
3.17609e-06
-1.59563e-07
3.18045e-06
-1.44167e-07
3.18496e-06
-1.29354e-07
-1.15056e-07
3.18982e-06
3.8657e-06
-8.90248e-08
3.83718e-06
-2.05214e-07
3.81025e-06
-2.61983e-07
3.78606e-06
-2.89294e-07
3.76577e-06
-2.98977e-07
3.7495e-06
-2.96517e-07
3.73663e-06
-2.86748e-07
3.72655e-06
-2.72942e-07
3.71871e-06
-2.57006e-07
3.71265e-06
-2.4011e-07
3.70798e-06
-2.2298e-07
3.7044e-06
-2.06043e-07
3.70167e-06
-1.8953e-07
3.69964e-06
-1.73547e-07
3.69822e-06
-1.58135e-07
3.69735e-06
-1.433e-07
3.69708e-06
-1.29086e-07
-1.15489e-07
3.69752e-06
3.81123e-06
-7.33519e-08
3.78552e-06
-1.795e-07
3.75883e-06
-2.35296e-07
3.73299e-06
-2.63456e-07
3.70931e-06
-2.75297e-07
3.68838e-06
-2.7558e-07
3.67009e-06
-2.68458e-07
3.65418e-06
-2.57039e-07
3.64038e-06
-2.43208e-07
3.6284e-06
-2.28129e-07
3.61798e-06
-2.12551e-07
3.60887e-06
-1.96936e-07
3.6009e-06
-1.8156e-07
3.59393e-06
-1.66575e-07
3.58785e-06
-1.52062e-07
3.58263e-06
-1.38077e-07
3.5782e-06
-1.24655e-07
-1.12041e-07
3.57475e-06
5.03713e-06
-5.77202e-08
5.00707e-06
-1.49441e-07
4.97361e-06
-2.01834e-07
4.93952e-06
-2.2937e-07
4.90652e-06
-2.42299e-07
4.87575e-06
-2.44809e-07
4.84751e-06
-2.40216e-07
4.82177e-06
-2.313e-07
4.79842e-06
-2.19859e-07
4.77729e-06
-2.07002e-07
4.75819e-06
-1.93447e-07
4.74092e-06
-1.79663e-07
4.7253e-06
-1.65947e-07
4.71121e-06
-1.52481e-07
4.69853e-06
-1.3938e-07
4.68718e-06
-1.26729e-07
4.67712e-06
-1.14591e-07
-1.03307e-07
4.66838e-06
6.66244e-06
-4.26857e-08
6.62913e-06
-1.1613e-07
6.58917e-06
-1.61879e-07
6.5467e-06
-1.86901e-07
6.50386e-06
-1.99453e-07
6.4623e-06
-2.03248e-07
6.42282e-06
-2.00738e-07
6.38569e-06
-1.94172e-07
6.351e-06
-1.85173e-07
6.31875e-06
-1.74753e-07
6.28887e-06
-1.6356e-07
6.26123e-06
-1.52032e-07
6.23575e-06
-1.40458e-07
6.21229e-06
-1.29029e-07
6.19079e-06
-1.17872e-07
6.17114e-06
-1.07084e-07
6.1533e-06
-9.67472e-08
-8.72254e-08
6.13722e-06
8.79086e-06
-2.88836e-08
8.75646e-06
-8.1728e-08
8.71175e-06
-1.17172e-07
8.66208e-06
-1.37226e-07
8.61014e-06
-1.47512e-07
8.55805e-06
-1.51163e-07
8.50719e-06
-1.49876e-07
8.45823e-06
-1.45217e-07
8.41153e-06
-1.3847e-07
8.36726e-06
-1.30486e-07
8.32551e-06
-1.21806e-07
8.28628e-06
-1.12796e-07
8.24953e-06
-1.03713e-07
8.21523e-06
-9.47283e-08
8.18332e-06
-8.59633e-08
8.15375e-06
-7.75108e-08
8.12644e-06
-6.9439e-08
-6.21252e-08
8.10134e-06
1.15181e-05
-1.66101e-08
1.14848e-05
-4.84268e-08
1.14384e-05
-7.07685e-08
1.13845e-05
-8.33987e-08
1.13264e-05
-8.94277e-08
1.12664e-05
-9.11698e-08
1.12063e-05
-8.97692e-08
1.11473e-05
-8.614e-08
1.10899e-05
-8.1113e-08
1.10347e-05
-7.5282e-08
1.09819e-05
-6.90221e-08
1.09317e-05
-6.25842e-08
1.08841e-05
-5.61476e-08
1.08393e-05
-4.98397e-08
1.0797e-05
-4.37547e-08
1.07575e-05
-3.79693e-08
1.07206e-05
-3.25108e-08
-2.77626e-08
1.06862e-05
1.48842e-05
-5.40342e-09
1.48525e-05
-1.67102e-08
1.48063e-05
-2.45407e-08
1.47511e-05
-2.81715e-08
1.46904e-05
-2.87653e-08
1.46267e-05
-2.74914e-08
1.45619e-05
-2.49381e-08
1.44972e-05
-2.15025e-08
1.44337e-05
-1.75647e-08
1.43718e-05
-1.34184e-08
1.43121e-05
-9.24809e-09
1.42546e-05
-5.17191e-09
1.41998e-05
-1.28115e-09
1.41476e-05
2.38231e-09
1.4098e-05
5.76024e-09
1.40513e-05
8.80812e-09
1.40072e-05
1.15563e-08
1.36545e-08
1.39658e-05
1.8769e-05
6.27206e-09
1.87365e-05
1.58239e-08
1.86883e-05
2.36507e-08
1.86301e-05
3.00204e-08
1.85661e-05
3.52739e-08
1.84989e-05
3.96764e-08
1.84306e-05
4.3395e-08
1.83625e-05
4.65528e-08
1.82957e-05
4.92445e-08
1.82307e-05
5.15364e-08
1.8168e-05
5.34731e-08
1.81078e-05
5.50845e-08
1.80501e-05
5.63904e-08
1.79951e-05
5.7402e-08
1.79427e-05
5.8125e-08
1.7893e-05
5.85468e-08
1.78458e-05
5.87264e-08
5.84038e-08
1.78011e-05
2.26768e-05
1.70026e-08
2.26398e-05
5.27777e-08
2.25834e-05
8.00508e-08
2.25148e-05
9.86188e-08
2.24391e-05
1.10976e-07
2.23597e-05
1.19129e-07
2.2279e-05
1.24135e-07
2.21987e-05
1.26773e-07
2.21202e-05
1.2774e-07
2.20442e-05
1.27559e-07
2.19711e-05
1.26569e-07
2.19012e-05
1.24997e-07
2.18346e-05
1.23004e-07
2.17713e-05
1.20702e-07
2.17113e-05
1.18169e-07
2.16543e-05
1.15451e-07
2.16005e-05
1.1261e-07
1.09505e-07
2.15494e-05
1.5604e-05
3.2648e-08
1.55641e-05
9.26365e-08
1.55091e-05
1.35063e-07
1.54457e-05
1.6205e-07
1.53777e-05
1.789e-07
1.5308e-05
1.88828e-07
1.52386e-05
1.9355e-07
1.51709e-05
1.94529e-07
1.51056e-05
1.93005e-07
1.50433e-05
1.89845e-07
1.49843e-05
1.85611e-07
1.49286e-05
1.80689e-07
1.48762e-05
1.75354e-07
1.48271e-05
1.69797e-07
1.47812e-05
1.64148e-07
1.47381e-05
1.58499e-07
1.46978e-05
1.52912e-07
1.47328e-07
1.466e-05
1.23902e-05
5.12397e-08
1.23448e-05
1.38109e-07
1.22864e-05
1.93421e-07
1.22225e-05
2.25933e-07
1.21566e-05
2.44795e-07
1.20913e-05
2.5412e-07
1.20284e-05
2.56444e-07
1.19689e-05
2.54095e-07
1.19131e-05
2.4883e-07
1.18611e-05
2.4177e-07
1.18131e-05
2.33641e-07
1.17688e-05
2.24943e-07
1.17282e-05
2.16018e-07
1.16909e-05
2.07092e-07
1.16567e-05
1.98311e-07
1.16254e-05
1.89776e-07
1.15968e-05
1.8153e-07
1.73561e-07
1.15706e-05
9.55928e-06
7.55468e-08
9.50978e-06
1.87611e-07
9.45371e-06
2.49489e-07
9.3969e-06
2.82745e-07
9.34171e-06
2.99985e-07
9.29014e-06
3.05694e-07
9.24313e-06
3.03452e-07
9.20083e-06
2.964e-07
9.16308e-06
2.86581e-07
9.12962e-06
2.75225e-07
9.10013e-06
2.6313e-07
9.07424e-06
2.50831e-07
9.0516e-06
2.38666e-07
9.03184e-06
2.26846e-07
9.01466e-06
2.1549e-07
8.99977e-06
2.0467e-07
8.9869e-06
1.94401e-07
1.84689e-07
8.97577e-06
7.18003e-06
1.04965e-07
7.13264e-06
2.35002e-07
7.087e-06
2.95129e-07
7.04543e-06
3.24316e-07
7.00921e-06
3.36206e-07
6.97928e-06
3.35624e-07
6.95531e-06
3.2742e-07
6.93654e-06
3.15173e-07
6.92223e-06
3.00891e-07
6.91171e-06
2.85743e-07
6.90437e-06
2.7047e-07
6.89967e-06
2.55527e-07
6.89716e-06
2.41173e-07
6.89647e-06
2.27543e-07
6.89726e-06
2.14696e-07
6.89928e-06
2.02647e-07
6.90231e-06
1.91376e-07
1.80879e-07
6.90612e-06
5.24556e-06
1.38123e-07
5.20786e-06
2.727e-07
5.18043e-06
3.22559e-07
5.16162e-06
3.43129e-07
5.15135e-06
3.46469e-07
5.14858e-06
3.38395e-07
5.15148e-06
3.24526e-07
5.15854e-06
3.08114e-07
5.16866e-06
2.90766e-07
5.181e-06
2.73404e-07
5.19489e-06
2.56578e-07
5.20984e-06
2.40583e-07
5.22546e-06
2.25554e-07
5.24147e-06
2.11533e-07
5.25765e-06
1.98509e-07
5.27386e-06
1.86443e-07
5.28995e-06
1.75279e-07
1.65002e-07
5.30583e-06
3.71461e-06
1.71645e-07
3.69607e-06
2.91242e-07
3.69442e-06
3.24206e-07
3.70435e-06
3.33207e-07
3.72342e-06
3.27392e-07
3.7484e-06
3.13418e-07
3.77671e-06
2.96218e-07
3.8068e-06
2.78021e-07
3.83768e-06
2.59883e-07
3.86867e-06
2.42414e-07
3.89932e-06
2.25936e-07
3.92931e-06
2.10586e-07
3.95848e-06
1.96391e-07
3.98669e-06
1.83317e-07
4.0139e-06
1.71304e-07
4.04007e-06
1.60273e-07
4.0652e-06
1.5015e-07
1.40917e-07
4.08928e-06
2.5354e-06
1.96845e-07
2.54624e-06
2.80396e-07
2.57486e-06
2.95589e-07
2.61418e-06
2.93886e-07
2.65964e-06
2.81934e-07
2.70724e-06
2.65813e-07
2.75497e-06
2.48493e-07
2.80181e-06
2.31176e-07
2.84718e-06
2.14512e-07
2.89075e-06
1.98853e-07
2.93233e-06
1.84347e-07
2.9719e-06
1.71022e-07
3.00945e-06
1.58837e-07
3.04505e-06
1.4772e-07
3.07877e-06
1.37583e-07
3.11071e-06
1.28338e-07
3.14095e-06
1.19903e-07
1.12278e-07
3.16959e-06
1.65469e-06
1.99257e-07
1.70056e-06
2.34528e-07
1.75708e-06
2.39075e-07
1.81982e-06
2.31145e-07
1.88377e-06
2.17984e-07
1.94597e-06
2.03615e-07
2.00554e-06
1.88916e-07
2.06213e-06
1.74587e-07
2.11555e-06
1.61095e-07
2.16578e-06
1.48617e-07
2.21293e-06
1.37197e-07
2.25715e-06
1.26809e-07
2.2986e-06
1.17389e-07
2.33746e-06
1.08852e-07
2.37393e-06
1.01113e-07
2.40818e-06
9.40895e-08
2.44038e-06
8.77026e-08
8.19898e-08
2.47067e-06
1.01827e-06
1.63846e-07
1.09488e-06
1.57922e-07
1.17024e-06
1.63718e-07
1.24669e-06
1.54695e-07
1.32007e-06
1.44595e-07
1.38905e-06
1.34638e-07
1.45368e-06
1.24289e-07
1.51401e-06
1.14258e-07
1.57014e-06
1.04957e-07
1.62231e-06
9.64516e-08
1.67078e-06
8.87294e-08
1.71583e-06
8.17552e-08
1.75775e-06
7.54697e-08
1.7968e-06
6.98038e-08
1.83322e-06
6.46897e-08
1.86725e-06
6.00666e-08
1.89909e-06
5.58551e-08
5.21308e-08
1.92895e-06
5.69236e-07
8.45264e-08
6.5898e-07
6.81784e-08
7.40759e-07
8.19392e-08
8.20852e-07
7.46024e-08
8.95847e-07
6.95993e-08
9.65395e-07
6.50893e-08
1.02981e-06
5.98733e-08
1.08931e-06
5.47575e-08
1.14418e-06
5.00916e-08
1.19476e-06
4.58648e-08
1.24145e-06
4.20479e-08
1.28458e-06
3.86204e-08
1.3245e-06
3.55482e-08
1.36151e-06
3.27915e-08
1.39589e-06
3.03122e-08
1.42788e-06
2.80817e-08
1.4577e-06
2.60277e-08
2.41991e-08
1.48564e-06
2.22451e-07
2.90629e-07
3.72568e-07
4.47171e-07
5.1677e-07
5.81859e-07
6.41732e-07
6.9649e-07
7.46582e-07
7.92446e-07
8.34494e-07
8.73115e-07
9.08663e-07
9.41454e-07
9.71767e-07
9.99848e-07
1.02588e-06
1.05008e-06
1.95471e-08
-1.95471e-08
4.34636e-08
-2.39165e-08
6.37497e-08
-2.02861e-08
7.8006e-08
-1.42562e-08
8.54373e-08
-7.43133e-09
8.61287e-08
-6.91417e-10
8.0811e-08
5.31768e-09
7.06744e-08
1.01366e-08
5.68986e-08
1.37759e-08
4.03755e-08
1.65231e-08
2.16178e-08
1.87577e-08
8.11705e-10
2.08061e-08
-2.21147e-08
2.29264e-08
-4.73642e-08
2.52495e-08
-7.51675e-08
2.78034e-08
-1.0574e-07
3.0572e-08
-1.39239e-07
3.34999e-08
-1.75753e-07
3.65135e-08
-2.15284e-07
3.95313e-08
-2.57754e-07
4.24699e-08
-3.03004e-07
4.52495e-08
-3.50802e-07
4.7798e-08
-4.00857e-07
5.00552e-08
-4.52832e-07
5.19758e-08
-5.06363e-07
5.35308e-08
-5.61071e-07
5.47074e-08
-6.16579e-07
5.55083e-08
-6.72528e-07
5.59491e-08
-7.28587e-07
5.60586e-08
-7.84466e-07
5.58792e-08
-8.3993e-07
5.54646e-08
-8.94792e-07
5.48617e-08
-9.48889e-07
5.4097e-08
-1.00209e-06
5.31963e-08
-1.05427e-06
5.21852e-08
-1.10536e-06
5.1087e-08
-1.15528e-06
4.99224e-08
-1.20399e-06
4.87094e-08
-1.25145e-06
4.74625e-08
-1.29765e-06
4.61936e-08
-1.34256e-06
4.49116e-08
-1.38618e-06
4.36233e-08
-1.42851e-06
4.23334e-08
-1.46956e-06
4.10448e-08
-1.50932e-06
3.97592e-08
-1.5478e-06
3.84774e-08
-1.58499e-06
3.71992e-08
-1.62092e-06
3.59241e-08
-1.65557e-06
3.4651e-08
-1.68895e-06
3.33788e-08
-1.72105e-06
3.21063e-08
-1.75189e-06
3.08324e-08
-1.78144e-06
2.95558e-08
-1.80972e-06
2.82755e-08
-1.83671e-06
2.69908e-08
-1.86241e-06
2.5701e-08
-1.88682e-06
2.44055e-08
-1.90992e-06
2.3104e-08
-1.93172e-06
2.17961e-08
-1.9522e-06
2.04819e-08
-1.97136e-06
1.9161e-08
-1.98919e-06
1.78334e-08
-2.00569e-06
1.64989e-08
-2.02085e-06
1.5157e-08
-2.03466e-06
1.3807e-08
-2.0471e-06
1.24477e-08
-2.05818e-06
1.10772e-08
-2.06787e-06
9.69185e-09
-2.07616e-06
8.28787e-09
-2.08302e-06
6.85989e-09
-2.08842e-06
5.40053e-09
-2.09232e-06
3.90085e-09
-2.09468e-06
2.35681e-09
-2.09543e-06
7.49072e-10
-2.0947e-06
-7.29253e-10
-2.09268e-06
-2.01523e-09
-2.08945e-06
-3.2371e-09
-2.08503e-06
-4.41775e-09
-2.07945e-06
-5.57548e-09
-2.07273e-06
-6.71961e-09
-2.06488e-06
-7.85365e-09
-2.0559e-06
-8.97878e-09
-2.0458e-06
-1.0095e-08
-2.0346e-06
-1.12021e-08
-2.0223e-06
-1.22994e-08
-2.00892e-06
-1.33863e-08
-1.99445e-06
-1.44622e-08
-1.97893e-06
-1.55266e-08
-1.96235e-06
-1.65788e-08
-1.94473e-06
-1.76182e-08
-1.92609e-06
-1.86444e-08
-1.90643e-06
-1.96568e-08
-1.88578e-06
-2.06551e-08
-1.86414e-06
-2.16387e-08
-1.84153e-06
-2.26072e-08
-1.81797e-06
-2.35602e-08
-1.79347e-06
-2.44973e-08
-1.76805e-06
-2.5418e-08
-1.74173e-06
-2.6322e-08
-1.71452e-06
-2.72088e-08
-1.68644e-06
-2.8078e-08
-1.65752e-06
-2.89293e-08
-1.62775e-06
-2.97621e-08
-1.59718e-06
-3.05762e-08
-1.56581e-06
-3.1371e-08
-1.53366e-06
-3.21462e-08
-1.50076e-06
-3.29013e-08
-1.46712e-06
-3.36357e-08
-1.43277e-06
-3.43491e-08
-1.39773e-06
-3.50409e-08
-1.36202e-06
-3.57106e-08
-1.32566e-06
-3.63577e-08
-1.28868e-06
-3.69817e-08
-1.2511e-06
-3.75821e-08
-1.21294e-06
-3.81583e-08
-1.17423e-06
-3.87098e-08
-1.135e-06
-3.92361e-08
-1.09526e-06
-3.97367e-08
-1.05505e-06
-4.0211e-08
-1.01439e-06
-4.06587e-08
-9.73311e-07
-4.10791e-08
-9.31839e-07
-4.14718e-08
-8.90003e-07
-4.18365e-08
-8.4783e-07
-4.21727e-08
-8.0535e-07
-4.248e-08
-7.62592e-07
-4.27582e-08
-7.19585e-07
-4.30069e-08
-6.76359e-07
-4.32258e-08
-6.32944e-07
-4.34148e-08
-5.89371e-07
-4.35737e-08
-5.45669e-07
-4.37022e-08
-5.01868e-07
-4.38003e-08
-4.58001e-07
-4.38677e-08
-4.14096e-07
-4.39044e-08
-3.70186e-07
-4.39101e-08
-3.26301e-07
-4.38846e-08
-2.82474e-07
-4.38274e-08
-2.38736e-07
-4.37377e-08
-1.95121e-07
-4.36149e-08
-1.51665e-07
-4.34563e-08
-1.08402e-07
-4.32636e-08
-6.53638e-08
-4.30378e-08
-2.25912e-08
-4.27725e-08
1.98797e-08
-4.24709e-08
6.20074e-08
-4.21277e-08
1.03763e-07
-4.17553e-08
1.45132e-07
-4.13692e-08
1.86111e-07
-4.09786e-08
2.26692e-07
-4.05815e-08
2.66867e-07
-4.01754e-08
3.06626e-07
-3.97589e-08
3.45958e-07
-3.93312e-08
3.8485e-07
-3.88923e-08
4.23293e-07
-3.84427e-08
4.61276e-07
-3.7983e-08
4.9879e-07
-3.75144e-08
5.35828e-07
-3.70378e-08
5.72382e-07
-3.65545e-08
6.08448e-07
-3.60658e-08
6.44021e-07
-3.55726e-08
6.79097e-07
-3.5076e-08
7.13674e-07
-3.4577e-08
7.47749e-07
-3.40759e-08
7.81322e-07
-3.35729e-08
8.1439e-07
-3.30674e-08
8.46947e-07
-3.25578e-08
8.78989e-07
-3.20411e-08
9.10501e-07
-3.15125e-08
9.41465e-07
-3.09636e-08
9.71846e-07
-3.03818e-08
1.00159e-06
-2.97467e-08
1.03062e-06
-2.90261e-08
1.05879e-06
-2.81659e-08
1.08586e-06
-2.70747e-08
1.11143e-06
-2.55745e-08
1.13476e-06
-2.33224e-08
1.15412e-06
-1.93587e-08
1.16563e-06
-1.15149e-08
1.15665e-06
8.98338e-09
5.43071e-08
1.10234e-06
1.76445e-08
-3.71916e-08
2.71123e-08
-3.33843e-08
2.8779e-08
-2.19528e-08
2.4794e-08
-1.02713e-08
1.65185e-08
8.44189e-10
4.70219e-09
1.11249e-08
-1.03852e-08
2.0405e-08
-2.88315e-08
2.8583e-08
-5.0753e-08
3.56974e-08
-7.61882e-08
4.19583e-08
-1.05097e-07
4.76666e-08
-1.37401e-07
5.31103e-08
-1.72974e-07
5.84988e-08
-2.11667e-07
6.39427e-08
-2.5332e-07
6.94564e-08
-2.97731e-07
7.49828e-08
-3.44652e-07
8.04209e-08
-3.93787e-07
8.56483e-08
-4.44795e-07
9.05392e-08
-4.97302e-07
9.49772e-08
-5.50917e-07
9.88643e-08
-6.05246e-07
1.02127e-07
-6.5991e-07
1.04719e-07
-7.14558e-07
1.06624e-07
-7.68876e-07
1.07849e-07
-8.22594e-07
1.08426e-07
-8.75491e-07
1.08405e-07
-9.27393e-07
1.07851e-07
-9.78169e-07
1.06835e-07
-1.02773e-06
1.05436e-07
-1.07599e-06
1.03731e-07
-1.12292e-06
1.01785e-07
-1.16847e-06
9.96503e-08
-1.21265e-06
9.73748e-08
-1.25546e-06
9.49976e-08
-1.29692e-06
9.25517e-08
-1.33707e-06
9.00637e-08
-1.37591e-06
8.75544e-08
-1.41349e-06
8.50393e-08
-1.44982e-06
8.25296e-08
-1.48494e-06
8.00326e-08
-1.51887e-06
7.75526e-08
-1.55163e-06
7.50915e-08
-1.58324e-06
7.26493e-08
-1.6137e-06
7.02247e-08
-1.64304e-06
6.78156e-08
-1.67126e-06
6.5419e-08
-1.69837e-06
6.3032e-08
-1.72437e-06
6.06514e-08
-1.74926e-06
5.82741e-08
-1.77305e-06
5.58971e-08
-1.79574e-06
5.35179e-08
-1.81732e-06
5.11341e-08
-1.83779e-06
4.8744e-08
-1.85714e-06
4.63458e-08
-1.87538e-06
4.39385e-08
-1.89249e-06
4.15212e-08
-1.90848e-06
3.90934e-08
-1.92334e-06
3.66548e-08
-1.93707e-06
3.42054e-08
-1.94965e-06
3.17455e-08
-1.96109e-06
2.92752e-08
-1.97139e-06
2.6795e-08
-1.98054e-06
2.43053e-08
-1.98854e-06
2.18063e-08
-1.99539e-06
1.92986e-08
-2.00109e-06
1.67823e-08
-2.00566e-06
1.42582e-08
-2.0091e-06
1.1727e-08
-2.01143e-06
9.19123e-09
-2.01268e-06
6.65484e-09
-2.01291e-06
4.12635e-09
-2.01218e-06
1.62509e-09
-2.0106e-06
-8.29657e-10
-2.0081e-06
-3.22411e-09
-2.00457e-06
-5.55311e-09
-1.99994e-06
-7.86013e-09
-1.99421e-06
-1.01491e-08
-1.98737e-06
-1.24214e-08
-1.97941e-06
-1.46788e-08
-1.97034e-06
-1.69214e-08
-1.96017e-06
-1.91486e-08
-1.9489e-06
-2.13594e-08
-1.93655e-06
-2.35526e-08
-1.92313e-06
-2.57271e-08
-1.90863e-06
-2.78813e-08
-1.89308e-06
-3.00141e-08
-1.87648e-06
-3.21241e-08
-1.85885e-06
-3.42103e-08
-1.8402e-06
-3.62714e-08
-1.82054e-06
-3.83064e-08
-1.79988e-06
-4.03144e-08
-1.77824e-06
-4.22943e-08
-1.75563e-06
-4.42452e-08
-1.73207e-06
-4.61663e-08
-1.70758e-06
-4.80567e-08
-1.68216e-06
-4.99155e-08
-1.65583e-06
-5.17419e-08
-1.62862e-06
-5.3535e-08
-1.60054e-06
-5.5294e-08
-1.5716e-06
-5.70181e-08
-1.54182e-06
-5.87064e-08
-1.51122e-06
-6.03581e-08
-1.47983e-06
-6.19724e-08
-1.44765e-06
-6.35484e-08
-1.41471e-06
-6.50852e-08
-1.38103e-06
-6.65819e-08
-1.34663e-06
-6.80375e-08
-1.31153e-06
-6.94511e-08
-1.27575e-06
-7.08215e-08
-1.23931e-06
-7.21479e-08
-1.20224e-06
-7.34292e-08
-1.16455e-06
-7.46644e-08
-1.12628e-06
-7.58525e-08
-1.08745e-06
-7.69922e-08
-1.04808e-06
-7.80827e-08
-1.00819e-06
-7.91228e-08
-9.67815e-07
-8.01115e-08
-9.26979e-07
-8.10479e-08
-8.85706e-07
-8.19309e-08
-8.44026e-07
-8.27595e-08
-8.01965e-07
-8.35329e-08
-7.59551e-07
-8.42503e-08
-7.16813e-07
-8.49108e-08
-6.73779e-07
-8.55137e-08
-6.30479e-07
-8.60584e-08
-5.86942e-07
-8.65442e-08
-5.43197e-07
-8.69706e-08
-4.99274e-07
-8.73373e-08
-4.55204e-07
-8.76438e-08
-4.11017e-07
-8.78898e-08
-3.66742e-07
-8.80751e-08
-3.2241e-07
-8.81994e-08
-2.78052e-07
-8.82625e-08
-2.33698e-07
-8.8264e-08
-1.89379e-07
-8.82035e-08
-1.45126e-07
-8.80803e-08
-1.00971e-07
-8.78933e-08
-5.69435e-08
-8.7642e-08
-1.30764e-08
-8.73234e-08
3.05976e-08
-8.69376e-08
7.40456e-08
-8.64859e-08
1.1724e-07
-8.59673e-08
1.60157e-07
-8.53878e-08
2.02777e-07
-8.47478e-08
2.45079e-07
-8.4057e-08
2.87042e-07
-8.33323e-08
3.28647e-07
-8.25831e-08
3.69876e-07
-8.18109e-08
4.10716e-07
-8.10152e-08
4.51152e-07
-8.01953e-08
4.91172e-07
-7.93513e-08
5.30764e-07
-7.84838e-08
5.69916e-07
-7.75944e-08
6.08617e-07
-7.66847e-08
6.4686e-07
-7.5757e-08
6.84636e-07
-7.48135e-08
7.21938e-07
-7.38567e-08
7.58761e-07
-7.28889e-08
7.95101e-07
-7.19126e-08
8.30955e-07
-7.09297e-08
8.6632e-07
-6.9942e-08
9.01194e-07
-6.89504e-08
9.35577e-07
-6.79553e-08
9.69464e-07
-6.69553e-08
1.00285e-06
-6.59473e-08
1.03574e-06
-6.49255e-08
1.06811e-06
-6.38798e-08
1.09994e-06
-6.27941e-08
1.1312e-06
-6.16428e-08
1.16184e-06
-6.0386e-08
1.19177e-06
-5.896e-08
1.22086e-06
-5.72601e-08
1.2489e-06
-5.51097e-08
1.27551e-06
-5.21808e-08
1.30005e-06
-4.78629e-08
1.3214e-06
-4.07149e-08
1.33799e-06
-2.81062e-08
1.34824e-06
-1.25792e-09
5.38356e-08
1.34871e-06
3.17325e-09
-4.03648e-08
-3.33151e-09
-2.68796e-08
-1.45997e-08
-1.06846e-08
-2.90364e-08
4.16545e-09
-4.60633e-08
1.78711e-08
-6.55219e-08
3.05835e-08
-8.7454e-08
4.23372e-08
-1.12021e-07
5.31496e-08
-1.3941e-07
6.30863e-08
-1.69738e-07
7.22871e-08
-2.03006e-07
8.09342e-08
-2.39092e-07
8.91963e-08
-2.77778e-07
9.71848e-08
-3.18772e-07
1.04936e-07
-3.61734e-07
1.12419e-07
-4.06299e-07
1.19548e-07
-4.5209e-07
1.26212e-07
-4.98734e-07
1.32292e-07
-5.45873e-07
1.37678e-07
-5.93178e-07
1.42282e-07
-6.40359e-07
1.46045e-07
-6.8717e-07
1.48938e-07
-7.33414e-07
1.50963e-07
-7.78939e-07
1.52149e-07
-8.23639e-07
1.52549e-07
-8.67445e-07
1.52231e-07
-9.10317e-07
1.51278e-07
-9.52241e-07
1.49774e-07
-9.93215e-07
1.47809e-07
-1.03324e-06
1.45466e-07
-1.07234e-06
1.42824e-07
-1.1105e-06
1.3995e-07
-1.14775e-06
1.36901e-07
-1.18411e-06
1.33726e-07
-1.21957e-06
1.30463e-07
-1.25416e-06
1.27144e-07
-1.28789e-06
1.23793e-07
-1.32076e-06
1.20428e-07
-1.35279e-06
1.17063e-07
-1.38396e-06
1.13706e-07
-1.41429e-06
1.10361e-07
-1.44377e-06
1.07032e-07
-1.4724e-06
1.03718e-07
-1.50017e-06
1.00417e-07
-1.52707e-06
9.71274e-08
-1.5531e-06
9.38444e-08
-1.57825e-06
9.05648e-08
-1.6025e-06
8.72844e-08
-1.62585e-06
8.39995e-08
-1.64828e-06
8.07064e-08
-1.66978e-06
7.74017e-08
-1.69035e-06
7.40827e-08
-1.70996e-06
7.07469e-08
-1.72861e-06
6.73924e-08
-1.74628e-06
6.40178e-08
-1.76296e-06
6.06222e-08
-1.77865e-06
5.72052e-08
-1.79332e-06
5.37667e-08
-1.80697e-06
5.03072e-08
-1.8196e-06
4.68276e-08
-1.83118e-06
4.33287e-08
-1.84172e-06
3.9812e-08
-1.8512e-06
3.62791e-08
-1.85963e-06
3.27319e-08
-1.86699e-06
2.91724e-08
-1.8733e-06
2.56031e-08
-1.87854e-06
2.20265e-08
-1.88273e-06
1.84462e-08
-1.88587e-06
1.48662e-08
-1.88797e-06
1.1292e-08
-1.88905e-06
7.73061e-09
-1.88911e-06
4.19102e-09
-1.88817e-06
6.83026e-10
-1.88621e-06
-2.78313e-09
-1.88323e-06
-6.2133e-09
-1.87916e-06
-9.61482e-09
-1.87403e-06
-1.29978e-08
-1.86781e-06
-1.63647e-08
-1.86052e-06
-1.97153e-08
-1.85215e-06
-2.30485e-08
-1.84271e-06
-2.63627e-08
-1.8322e-06
-2.96558e-08
-1.82063e-06
-3.2926e-08
-1.80801e-06
-3.6171e-08
-1.79435e-06
-3.93888e-08
-1.77966e-06
-4.25774e-08
-1.76393e-06
-4.57347e-08
-1.7472e-06
-4.88588e-08
-1.72946e-06
-5.19479e-08
-1.71073e-06
-5.50003e-08
-1.69103e-06
-5.80145e-08
-1.67035e-06
-6.09888e-08
-1.64872e-06
-6.39219e-08
-1.62616e-06
-6.68123e-08
-1.60266e-06
-6.96587e-08
-1.57826e-06
-7.24598e-08
-1.55296e-06
-7.52142e-08
-1.52678e-06
-7.79208e-08
-1.49974e-06
-8.05781e-08
-1.47185e-06
-8.3185e-08
-1.44313e-06
-8.57401e-08
-1.41359e-06
-8.82422e-08
-1.38326e-06
-9.069e-08
-1.35215e-06
-9.30822e-08
-1.32028e-06
-9.54176e-08
-1.28767e-06
-9.76948e-08
-1.25434e-06
-9.99124e-08
-1.22031e-06
-1.02069e-07
-1.1856e-06
-1.04163e-07
-1.15023e-06
-1.06193e-07
-1.11422e-06
-1.08157e-07
-1.07759e-06
-1.10055e-07
-1.04037e-06
-1.11883e-07
-1.00258e-06
-1.13642e-07
-9.64246e-07
-1.15328e-07
-9.25387e-07
-1.16942e-07
-8.8603e-07
-1.1848e-07
-8.46199e-07
-1.19942e-07
-8.05922e-07
-1.21326e-07
-7.65222e-07
-1.2263e-07
-7.24128e-07
-1.23854e-07
-6.82666e-07
-1.24995e-07
-6.40864e-07
-1.26053e-07
-5.98749e-07
-1.27026e-07
-5.5635e-07
-1.27913e-07
-5.13694e-07
-1.28714e-07
-4.70812e-07
-1.29427e-07
-4.27731e-07
-1.30052e-07
-3.84481e-07
-1.30587e-07
-3.41091e-07
-1.31033e-07
-2.97591e-07
-1.3139e-07
-2.54011e-07
-1.31656e-07
-2.10379e-07
-1.31831e-07
-1.66727e-07
-1.31915e-07
-1.23083e-07
-1.31908e-07
-7.94774e-08
-1.31809e-07
-3.59397e-08
-1.31618e-07
7.50056e-09
-1.31334e-07
5.08128e-08
-1.30954e-07
9.39678e-08
-1.30478e-07
1.36937e-07
-1.29907e-07
1.79692e-07
-1.29241e-07
2.22211e-07
-1.28487e-07
2.64478e-07
-1.27655e-07
3.06479e-07
-1.26749e-07
3.48193e-07
-1.25771e-07
3.89594e-07
-1.24733e-07
4.30658e-07
-1.23646e-07
4.71362e-07
-1.22515e-07
5.1169e-07
-1.21343e-07
5.51626e-07
-1.20131e-07
5.91155e-07
-1.1888e-07
6.30264e-07
-1.17593e-07
6.68943e-07
-1.16273e-07
7.07181e-07
-1.14922e-07
7.44968e-07
-1.13545e-07
7.82298e-07
-1.12143e-07
8.19164e-07
-1.10722e-07
8.5556e-07
-1.09285e-07
8.91483e-07
-1.07835e-07
9.2693e-07
-1.06376e-07
9.61898e-07
-1.0491e-07
9.96386e-07
-1.03439e-07
1.03039e-06
-1.01962e-07
1.06392e-06
-1.00479e-07
1.09695e-06
-9.89842e-08
1.1295e-06
-9.74694e-08
1.16154e-06
-9.59195e-08
1.19305e-06
-9.4311e-08
1.22402e-06
-9.26063e-08
1.25438e-06
-9.07471e-08
1.28406e-06
-8.86413e-08
1.31294e-06
-8.61398e-08
1.34083e-06
-8.29949e-08
1.36741e-06
-7.87673e-08
1.39222e-06
-7.26691e-08
1.41457e-06
-6.30644e-08
1.43359e-06
-4.7128e-08
1.44981e-06
-1.74773e-08
3.68187e-08
1.46683e-06
-1.17301e-08
-2.86347e-08
-2.95609e-08
-9.04875e-09
-4.94504e-08
9.20485e-09
-7.08513e-08
2.55663e-08
-9.37368e-08
4.07566e-08
-1.18198e-07
5.50447e-08
-1.4438e-07
6.85191e-08
-1.72441e-07
8.12108e-08
-2.0251e-07
9.3155e-08
-2.34635e-07
1.04412e-07
-2.68756e-07
1.15056e-07
-3.04709e-07
1.25149e-07
-3.42241e-07
1.34717e-07
-3.81048e-07
1.43744e-07
-4.208e-07
1.52171e-07
-4.61167e-07
1.59915e-07
-5.01838e-07
1.66883e-07
-5.42537e-07
1.72991e-07
-5.83032e-07
1.78172e-07
-6.23135e-07
1.82386e-07
-6.6271e-07
1.8562e-07
-7.01663e-07
1.87891e-07
-7.39941e-07
1.8924e-07
-7.77521e-07
1.89729e-07
-8.14404e-07
1.89432e-07
-8.50607e-07
1.88435e-07
-8.86157e-07
1.86827e-07
-9.2108e-07
1.84698e-07
-9.55403e-07
1.82132e-07
-9.89146e-07
1.7921e-07
-1.02232e-06
1.76001e-07
-1.05494e-06
1.7257e-07
-1.08701e-06
1.68967e-07
-1.11852e-06
1.65236e-07
-1.14947e-06
1.61414e-07
-1.17985e-06
1.57527e-07
-1.20966e-06
1.53598e-07
-1.23887e-06
1.49642e-07
-1.26748e-06
1.4567e-07
-1.29546e-06
1.4169e-07
-1.32281e-06
1.37706e-07
-1.34949e-06
1.33718e-07
-1.3755e-06
1.29727e-07
-1.40081e-06
1.2573e-07
-1.42541e-06
1.21724e-07
-1.44927e-06
1.17707e-07
-1.47238e-06
1.13673e-07
-1.49472e-06
1.0962e-07
-1.51626e-06
1.05543e-07
-1.53699e-06
1.01439e-07
-1.5569e-06
9.73058e-08
-1.57595e-06
9.31401e-08
-1.59415e-06
8.89401e-08
-1.61146e-06
8.47046e-08
-1.62787e-06
8.04327e-08
-1.64338e-06
7.61242e-08
-1.65795e-06
7.17796e-08
-1.67158e-06
6.73995e-08
-1.68426e-06
6.29856e-08
-1.69597e-06
5.85394e-08
-1.70671e-06
5.40633e-08
-1.71646e-06
4.95599e-08
-1.72521e-06
4.50322e-08
-1.73296e-06
4.04834e-08
-1.73971e-06
3.59172e-08
-1.74544e-06
3.13375e-08
-1.75016e-06
2.67488e-08
-1.75387e-06
2.21559e-08
-1.75657e-06
1.75643e-08
-1.75826e-06
1.29801e-08
-1.75894e-06
8.40955e-09
-1.75861e-06
3.85938e-09
-1.75726e-06
-6.65009e-10
-1.75488e-06
-5.16015e-09
-1.75147e-06
-9.62836e-09
-1.74701e-06
-1.40749e-08
-1.7415e-06
-1.85035e-08
-1.73495e-06
-2.29147e-08
-1.72736e-06
-2.73073e-08
-1.71873e-06
-3.16791e-08
-1.70906e-06
-3.60275e-08
-1.69837e-06
-4.03495e-08
-1.68665e-06
-4.46422e-08
-1.67392e-06
-4.89028e-08
-1.66018e-06
-5.31284e-08
-1.64544e-06
-5.73161e-08
-1.62971e-06
-6.14634e-08
-1.61301e-06
-6.55676e-08
-1.59533e-06
-6.96264e-08
-1.57669e-06
-7.36375e-08
-1.55711e-06
-7.75986e-08
-1.53659e-06
-8.15079e-08
-1.51515e-06
-8.53632e-08
-1.49279e-06
-8.91628e-08
-1.46955e-06
-9.29048e-08
-1.44542e-06
-9.65875e-08
-1.42043e-06
-1.00209e-07
-1.39458e-06
-1.03768e-07
-1.36789e-06
-1.07262e-07
-1.34039e-06
-1.1069e-07
-1.31208e-06
-1.1405e-07
-1.28298e-06
-1.17341e-07