/*--------------------------------*- C++ -*----------------------------------*\
| =========                 |                                                 |
| \\      /  F ield         | OpenFOAM: The Open Source CFD Toolbox           |
|  \\    /   O peration     | Version:  2412                                  |
|   \\  /    A nd           | Website:  www.openfoam.com                      |
|    \\/     M anipulation  |                                                 |
\*---------------------------------------------------------------------------*/
FoamFile
{
    version     2.0;
    format      ascii;
    arch        "LSB;label=32;scalar=64";
    class       volVectorField;
    location    "0.2";
    object      U;
}
// * * * * * * * * * * * * * * * * * * * * * * * * * * * * * * * * * * * * * //

dimensions      [0 1 -1 0 0 0 0];

internalField   nonuniform List<vector> 
12225
(
(0.377183 -0.200896 0)
(0.543962 -0.0519272 0)
(0.711048 -0.034015 0)
(0.893982 -0.0304774 0)
(1.05912 -0.0297478 0)
(1.20886 -0.0284536 0)
(1.34618 -0.0265195 0)
(1.47048 -0.024577 0)
(1.58223 -0.0227679 0)
(1.68271 -0.0210757 0)
(1.77307 -0.0194976 0)
(1.85429 -0.0180255 0)
(1.92716 -0.0166379 0)
(1.99241 -0.015293 0)
(2.05034 -0.0139668 0)
(2.10184 -0.0125078 0)
(2.14305 -0.0103473 0)
(2.19066 -0.0128451 0)
(0.933503 -0.0317784 0)
(1.0567 -0.0587105 0)
(1.23664 -0.0689009 0)
(1.42156 -0.0644856 0)
(1.58553 -0.0618139 0)
(1.73443 -0.058968 0)
(1.87133 -0.0555663 0)
(1.99604 -0.0521793 0)
(2.10905 -0.0489375 0)
(2.2114 -0.0458483 0)
(2.30405 -0.0429262 0)
(2.38785 -0.0401568 0)
(2.46354 -0.0374981 0)
(2.53173 -0.0348709 0)
(2.59283 -0.0322146 0)
(2.64721 -0.0290808 0)
(2.69436 -0.0260724 0)
(2.73624 -0.0159246 0)
(1.39962 -0.0846819 0)
(1.49179 -0.105678 0)
(1.65466 -0.107238 0)
(1.8226 -0.101942 0)
(1.97268 -0.0979902 0)
(2.11038 -0.0936532 0)
(2.23776 -0.0887417 0)
(2.3545 -0.0837989 0)
(2.46095 -0.0789975 0)
(2.55788 -0.0743839 0)
(2.64605 -0.0699836 0)
(2.72613 -0.0657777 0)
(2.79874 -0.0617067 0)
(2.86441 -0.0576636 0)
(2.92353 -0.053517 0)
(2.97633 -0.0488462 0)
(3.02301 -0.0436276 0)
(3.06283 -0.0341154 0)
(1.89741 -0.115425 0)
(1.94623 -0.143309 0)
(2.07521 -0.144984 0)
(2.21748 -0.140767 0)
(2.34798 -0.135779 0)
(2.46973 -0.130046 0)
(2.58352 -0.123696 0)
(2.68867 -0.117209 0)
(2.78525 -0.110823 0)
(2.87373 -0.104638 0)
(2.95462 -0.0986986 0)
(3.02841 -0.0929854 0)
(3.09558 -0.0874276 0)
(3.15655 -0.0818955 0)
(3.21166 -0.0762077 0)
(3.26109 -0.0699415 0)
(3.30537 -0.0628062 0)
(3.34294 -0.0517998 0)
(2.43108 -0.125831 0)
(2.4405 -0.169892 0)
(2.52881 -0.177413 0)
(2.64002 -0.176173 0)
(2.74681 -0.171231 0)
(2.84903 -0.164732 0)
(2.94617 -0.157378 0)
(3.03702 -0.14968 0)
(3.12126 -0.141965 0)
(3.19905 -0.134409 0)
(3.27062 -0.127083 0)
(3.33626 -0.119983 0)
(3.39629 -0.113035 0)
(3.451 -0.1061 0)
(3.50069 -0.0989677 0)
(3.54547 -0.0912296 0)
(3.58618 -0.0824514 0)
(3.62075 -0.0703605 0)
(2.99683 -0.123684 0)
(2.97697 -0.185371 0)
(3.02469 -0.201461 0)
(3.10203 -0.204954 0)
(3.1821 -0.201576 0)
(3.26197 -0.195259 0)
(3.33995 -0.187556 0)
(3.41424 -0.179165 0)
(3.48407 -0.170544 0)
(3.54926 -0.161961 0)
(3.60977 -0.153535 0)
(3.66566 -0.145289 0)
(3.71707 -0.137161 0)
(3.76419 -0.129016 0)
(3.80723 -0.120639 0)
(3.84627 -0.111662 0)
(3.88232 -0.10163 0)
(3.91282 -0.0889601 0)
(3.58832 -0.114509 0)
(3.55089 -0.190585 0)
(3.5632 -0.215895 0)
(3.60678 -0.22532 0)
(3.65874 -0.225008 0)
(3.71443 -0.219961 0)
(3.7714 -0.212687 0)
(3.82735 -0.204229 0)
(3.8811 -0.195218 0)
(3.93209 -0.186036 0)
(3.98004 -0.176875 0)
(4.02478 -0.167797 0)
(4.06631 -0.158768 0)
(4.10465 -0.149674 0)
(4.13994 -0.140318 0)
(4.1722 -0.130393 0)
(4.20253 -0.119504 0)
(4.22786 -0.106618 0)
(4.1988 -0.101768 0)
(4.15397 -0.187078 0)
(4.13918 -0.220709 0)
(4.15218 -0.236312 0)
(4.17668 -0.240142 0)
(4.20777 -0.237395 0)
(4.24281 -0.231364 0)
(4.27934 -0.22352 0)
(4.31582 -0.214694 0)
(4.35145 -0.205406 0)
(4.38568 -0.195933 0)
(4.41817 -0.186397 0)
(4.44874 -0.176804 0)
(4.47729 -0.167077 0)
(4.50387 -0.157058 0)
(4.52844 -0.146513 0)
(4.55209 -0.135147 0)
(4.57122 -0.122329 0)
(4.82185 -0.0878104 0)
(4.77662 -0.176878 0)
(4.7439 -0.216847 0)
(4.7319 -0.237831 0)
(4.73178 -0.246128 0)
(4.73955 -0.246409 0)
(4.75303 -0.242333 0)
(4.76998 -0.235752 0)
(4.78879 -0.227698 0)
(4.80845 -0.218822 0)
(4.82828 -0.209501 0)
(4.84779 -0.199923 0)
(4.86666 -0.190151 0)
(4.88468 -0.180152 0)
(4.90181 -0.169824 0)
(4.91793 -0.159013 0)
(4.93409 -0.147534 0)
(4.94617 -0.135042 0)
(5.45146 -0.0741108 0)
(5.4095 -0.162013 0)
(5.36682 -0.205831 0)
(5.33653 -0.230649 0)
(5.31635 -0.242903 0)
(5.30383 -0.24642 0)
(5.29759 -0.244732 0)
(5.296 -0.239912 0)
(5.29765 -0.233137 0)
(5.30154 -0.22516 0)
(5.30693 -0.216445 0)
(5.31326 -0.207252 0)
(5.32012 -0.1977 0)
(5.32724 -0.187815 0)
(5.33448 -0.177554 0)
(5.34165 -0.166838 0)
(5.34976 -0.155594 0)
(5.35417 -0.143668 0)
(6.08167 -0.0613964 0)
(6.04411 -0.144175 0)
(5.99713 -0.189323 0)
(5.95493 -0.216164 0)
(5.92005 -0.231249 0)
(5.89155 -0.237624 0)
(5.86881 -0.238342 0)
(5.85098 -0.235493 0)
(5.8371 -0.230313 0)
(5.82633 -0.223597 0)
(5.81803 -0.215865 0)
(5.81165 -0.207435 0)
(5.80678 -0.19848 0)
(5.80309 -0.189078 0)
(5.80042 -0.179247 0)
(5.79852 -0.168974 0)
(5.79833 -0.158281 0)
(5.79478 -0.147147 0)
(6.65461 -0.0506046 0)
(6.62055 -0.1262 0)
(6.57304 -0.170576 0)
(6.52477 -0.197758 0)
(6.48113 -0.214215 0)
(6.4423 -0.22247 0)
(6.40814 -0.225021 0)
(6.3784 -0.223839 0)
(6.35262 -0.220143 0)
(6.33026 -0.214713 0)
(6.31082 -0.208078 0)
(6.29387 -0.200581 0)
(6.27905 -0.192432 0)
(6.26607 -0.183747 0)
(6.25476 -0.174587 0)
(6.2448 -0.164994 0)
(6.23717 -0.155026 0)
(6.22639 -0.144858 0)
(7.20973 -0.0406572 0)
(7.18016 -0.107387 0)
(7.13447 -0.149598 0)
(7.08342 -0.176125 0)
(7.03444 -0.192959 0)
(6.9888 -0.202334 0)
(6.94659 -0.206211 0)
(6.90797 -0.20636 0)
(6.87289 -0.203957 0)
(6.84115 -0.199743 0)
(6.81245 -0.194221 0)
(6.7865 -0.187738 0)
(6.76304 -0.180517 0)
(6.74183 -0.172702 0)
(6.72274 -0.164384 0)
(6.70547 -0.155643 0)
(6.69092 -0.146547 0)
(6.67349 -0.137482 0)
(7.81811 -0.0310683 0)
(7.79338 -0.0861217 0)
(7.75173 -0.123834 0)
(7.70083 -0.148288 0)
(7.64926 -0.164321 0)
(7.59953 -0.173949 0)
(7.55198 -0.178598 0)
(7.50696 -0.179713 0)
(7.46479 -0.178375 0)
(7.42553 -0.175277 0)
(7.38912 -0.170876 0)
(7.35541 -0.165494 0)
(7.32428 -0.159354 0)
(7.2956 -0.15261 0)
(7.26928 -0.14537 0)
(7.24506 -0.137732 0)
(7.22378 -0.129787 0)
(7.19996 -0.122005 0)
(8.45855 -0.0222944 0)
(8.43893 -0.0637606 0)
(8.40342 -0.094241 0)
(8.35609 -0.114656 0)
(8.30535 -0.128296 0)
(8.25482 -0.136901 0)
(8.20526 -0.14144 0)
(8.15713 -0.142915 0)
(8.111 -0.142201 0)
(8.06718 -0.139901 0)
(8.02579 -0.136414 0)
(7.98683 -0.132023 0)
(7.95028 -0.126935 0)
(7.91611 -0.121302 0)
(7.88428 -0.115235 0)
(7.85462 -0.108838 0)
(7.82789 -0.102205 0)
(7.79902 -0.0958271 0)
(9.08866 -0.0143699 0)
(9.07382 -0.0417321 0)
(9.04561 -0.0628377 0)
(9.00496 -0.0771797 0)
(8.95896 -0.0866042 0)
(8.91167 -0.0924813 0)
(8.86419 -0.0955028 0)
(8.81706 -0.0962796 0)
(8.77096 -0.0954059 0)
(8.72644 -0.0933284 0)
(8.68377 -0.0903444 0)
(8.64311 -0.0866639 0)
(8.60451 -0.0824474 0)
(8.56802 -0.0778197 0)
(8.53366 -0.072882 0)
(8.5013 -0.0677301 0)
(8.47167 -0.062433 0)
(8.44043 -0.0574986 0)
(9.63295 -0.007072 0)
(9.6217 -0.0207033 0)
(9.59987 -0.0313912 0)
(9.5666 -0.0383721 0)
(9.52747 -0.0424074 0)
(9.48644 -0.0443286 0)
(9.44472 -0.0445862 0)
(9.40275 -0.0435191 0)
(9.36112 -0.0414701 0)
(9.3204 -0.0387225 0)
(9.28095 -0.0354722 0)
(9.24298 -0.0318561 0)
(9.20662 -0.0279823 0)
(9.17193 -0.0239415 0)
(9.139 -0.0198069 0)
(9.10774 -0.0156592 0)
(9.07872 -0.0115122 0)
(9.04893 -0.00786015 0)
(9.96404 0.000108919 0)
(9.95459 0.000167914 0)
(9.93649 0.000631044 0)
(9.90812 0.0018808 0)
(9.87423 0.0038293 0)
(9.83859 0.00628516 0)
(9.80247 0.009144 0)
(9.76622 0.0123342 0)
(9.7303 0.0157716 0)
(9.6952 0.0193755 0)
(9.66123 0.0230833 0)
(9.62855 0.0268453 0)
(9.59722 0.0306157 0)
(9.56729 0.0343461 0)
(9.53877 0.0379946 0)
(9.51163 0.0414971 0)
(9.48603 0.0448785 0)
(9.46096 0.0477231 0)
(9.87499 0.00747542 0)
(9.86688 0.0218043 0)
(9.84987 0.0342224 0)
(9.82249 0.0444268 0)
(9.78959 0.0528419 0)
(9.75498 0.05995 0)
(9.71994 0.0660482 0)
(9.68484 0.0713516 0)
(9.65016 0.076057 0)
(9.61638 0.0803235 0)
(9.58383 0.0842587 0)
(9.55266 0.0879309 0)
(9.52291 0.0913823 0)
(9.4946 0.0946361 0)
(9.46773 0.0977011 0)
(9.4423 0.100559 0)
(9.41802 0.103247 0)
(9.39596 0.105484 0)
(9.28437 0.0159205 0)
(9.27065 0.0462039 0)
(9.24578 0.0711932 0)
(9.20981 0.0904205 0)
(9.16897 0.105245 0)
(9.12726 0.116869 0)
(9.08577 0.125975 0)
(9.04489 0.133105 0)
(9.00517 0.13877 0)
(8.96711 0.143377 0)
(8.93096 0.147203 0)
(8.89681 0.150439 0)
(8.86465 0.153223 0)
(8.83448 0.155655 0)
(8.80619 0.157807 0)
(8.77977 0.159727 0)
(8.75472 0.161465 0)
(8.73306 0.162874 0)
(8.47101 0.0260922 0)
(8.45236 0.0738142 0)
(8.4197 0.110358 0)
(8.37625 0.136897 0)
(8.32996 0.15655 0)
(8.28454 0.171165 0)
(8.2407 0.181775 0)
(8.19876 0.189338 0)
(8.1592 0.194714 0)
(8.12231 0.198529 0)
(8.08814 0.201209 0)
(8.05661 0.203062 0)
(8.0276 0.204317 0)
(8.00098 0.205146 0)
(7.97658 0.205672 0)
(7.95428 0.205995 0)
(7.93357 0.206172 0)
(7.91648 0.206162 0)
(7.51239 0.0385252 0)
(7.4866 0.104509 0)
(7.44645 0.150237 0)
(7.39954 0.18137 0)
(7.35394 0.203352 0)
(7.31181 0.218482 0)
(7.27315 0.228288 0)
(7.23802 0.234308 0)
(7.20655 0.237754 0)
(7.17862 0.23943 0)
(7.15395 0.239874 0)
(7.13226 0.23948 0)
(7.11325 0.23853 0)
(7.09665 0.237228 0)
(7.08219 0.235717 0)
(7.06967 0.234104 0)
(7.05858 0.232446 0)
(7.05065 0.230764 0)
(6.48931 0.0542266 0)
(6.45655 0.136907 0)
(6.41295 0.186958 0)
(6.37063 0.218565 0)
(6.33487 0.239404 0)
(6.30525 0.252055 0)
(6.28103 0.25876 0)
(6.2618 0.261599 0)
(6.24698 0.26196 0)
(6.2359 0.260698 0)
(6.22795 0.258393 0)
(6.22261 0.255458 0)
(6.21944 0.252178 0)
(6.21805 0.248743 0)
(6.21815 0.245283 0)
(6.21948 0.241887 0)
(6.2216 0.238601 0)
(6.22593 0.235479 0)
(5.45712 0.0733908 0)
(5.41829 0.166493 0)
(5.37868 0.214123 0)
(5.35276 0.24195 0)
(5.33862 0.258341 0)
(5.33245 0.266099 0)
(5.33268 0.268276 0)
(5.33805 0.267201 0)
(5.34719 0.264188 0)
(5.359 0.260024 0)
(5.37271 0.255238 0)
(5.38775 0.250185 0)
(5.40365 0.24509 0)
(5.42009 0.240092 0)
(5.43681 0.235277 0)
(5.45364 0.230697 0)
(5.47024 0.226375 0)
(5.48776 0.222374 0)
(4.45282 0.0947782 0)
(4.41205 0.187413 0)
(4.39047 0.225938 0)
(4.39659 0.2464 0)
(4.41647 0.255925 0)
(4.44333 0.257829 0)
(4.47525 0.255582 0)
(4.51033 0.251197 0)
(4.54688 0.245655 0)
(4.58385 0.239552 0)
(4.62062 0.233284 0)
(4.65677 0.227094 0)
(4.69202 0.221121 0)
(4.72619 0.215443 0)
(4.75918 0.210097 0)
(4.79096 0.205099 0)
(4.82137 0.20045 0)
(4.85135 0.196213 0)
(3.50293 0.114453 0)
(3.47301 0.192922 0)
(3.48913 0.217651 0)
(3.54119 0.228891 0)
(3.6026 0.231467 0)
(3.66648 0.228834 0)
(3.73176 0.22383 0)
(3.79672 0.217721 0)
(3.85996 0.211112 0)
(3.92082 0.2044 0)
(3.97906 0.19784 0)
(4.03456 0.191571 0)
(4.08727 0.185664 0)
(4.13726 0.180147 0)
(4.18463 0.175024 0)
(4.2295 0.170285 0)
(4.27188 0.165916 0)
(4.31261 0.16199 0)
(2.62982 0.122983 0)
(2.63207 0.17639 0)
(2.70177 0.187971 0)
(2.80469 0.191088 0)
(2.90733 0.189115 0)
(3.00604 0.184598 0)
(3.1016 0.178925 0)
(3.19304 0.172742 0)
(3.27952 0.166449 0)
(3.3609 0.160302 0)
(3.43734 0.154445 0)
(3.50904 0.148952 0)
(3.57626 0.143849 0)
(3.63927 0.139135 0)
(3.69838 0.134794 0)
(3.75387 0.130806 0)
(3.80592 0.127147 0)
(3.85529 0.123911 0)
(1.85178 0.104826 0)
(1.90638 0.134439 0)
(2.03033 0.141899 0)
(2.17813 0.140516 0)
(2.31586 0.13704 0)
(2.44342 0.132925 0)
(2.56366 0.128107 0)
(2.67649 0.122995 0)
(2.78156 0.117949 0)
(2.87916 0.113123 0)
(2.96984 0.108588 0)
(3.0541 0.104382 0)
(3.13246 0.10051 0)
(3.20541 0.0969568 0)
(3.2734 0.0937033 0)
(3.33688 0.0907257 0)
(3.39616 0.0879887 0)
(3.45198 0.0855992 0)
(1.17533 0.0416901 0)
(1.28238 0.0661061 0)
(1.43868 0.0889878 0)
(1.61659 0.0891785 0)
(1.78034 0.0862321 0)
(1.92916 0.0833336 0)
(2.06742 0.0798365 0)
(2.19584 0.0761207 0)
(2.31432 0.0725313 0)
(2.42345 0.069153 0)
(2.52407 0.0660108 0)
(2.617 0.0631205 0)
(2.70294 0.0604787 0)
(2.78255 0.058069 0)
(2.85641 0.0558712 0)
(2.92509 0.0538682 0)
(2.989 0.0519983 0)
(3.04887 0.0503608 0)
(0.469484 0.226529 0)
(0.642365 0.0691632 0)
(0.788939 0.0480262 0)
(0.972456 0.0444109 0)
(1.14913 0.0429729 0)
(1.30916 0.0416803 0)
(1.45688 0.0396476 0)
(1.59325 0.0373324 0)
(1.71809 0.0351145 0)
(1.83215 0.0330666 0)
(1.93659 0.0311845 0)
(2.03244 0.0294662 0)
(2.12059 0.027905 0)
(2.2018 0.0264881 0)
(2.27679 0.0251996 0)
(2.34619 0.0240323 0)
(2.41052 0.0229331 0)
(2.47007 0.0219809 0)
(0.00913456 -0.0191627 -2.69101e-20)
(0.0284203 -0.0307366 2.62491e-20)
(0.0479292 -0.0309867 0)
(0.0638287 -0.0254393 0)
(0.0737924 -0.0171709 0)
(0.0777528 -0.00814333 -2.46594e-20)
(0.0754338 0.000152785 0)
(0.0682668 0.00661375 0)
(0.0574583 0.0109666 0)
(0.0438748 0.0136279 0)
(0.0281232 0.0152854 2.41672e-20)
(0.0104664 0.0165515 0)
(-0.00898912 0.0178623 0)
(-0.0303811 0.0194516 0)
(-0.054002 0.0214369 0)
(-0.0800357 0.0238174 2.27111e-20)
(-0.108653 0.0265268 0)
(-0.13997 0.0294761 0)
(-0.174034 0.0325643 0)
(-0.210813 0.0356837 0)
(-0.250205 0.0387249 0)
(-0.292036 0.0415835 0)
(-0.336072 0.0441675 0)
(-0.382032 0.0464027 1.93379e-20)
(-0.429601 0.0482362 -1.89581e-20)
(-0.478442 0.0496383 1.85948e-20)
(-0.528215 0.0506014 1.8249e-20)
(-0.578596 0.0511405 0)
(-0.629284 0.0512927 0)
(-0.67999 0.0511155 -1.73193e-20)
(-0.730429 0.0506749 -1.7043e-20)
(-0.780479 0.050031 0)
(-0.829971 0.0492095 0)
(-0.878765 0.0482393 -1.6304e-20)
(-0.926751 0.0471507 0)
(-0.973839 0.0459717 0)
(-1.01996 0.0447271 1.56786e-20)
(-1.06506 0.0434381 0)
(-1.10911 0.0421221 1.531e-20)
(-1.15208 0.0407931 3.02743e-20)
(-1.19394 0.0394617 0)
(-1.2347 0.0381358 0)
(-1.27434 0.036821 0)
(-1.31288 0.0355207 0)
(-1.35029 0.0342372 0)
(-1.3866 0.0329714 2.84151e-20)
(-1.4218 0.0317233 2.81282e-20)
(-1.45588 0.0304927 2.78449e-20)
(-1.48887 0.0292785 0)
(-1.52074 0.0280797 -2.72849e-20)
(-1.5515 0.0268952 0)
(-1.58116 0.0257238 2.67284e-20)
(-1.6097 0.0245644 2.64495e-20)
(-1.63712 0.0234161 0)
(-1.66341 0.0222779 0)
(-1.68858 0.0211492 0)
(-1.7126 0.0200292 2.53154e-20)
(-1.73548 0.0189175 0)
(-1.75721 0.0178135 0)
(-1.77778 0.0167166 0)
(-1.79718 0.0156264 0)
(-1.8154 0.0145418 0)
(-1.83244 0.0134619 0)
(-1.84829 0.0123852 0)
(-1.86293 0.0113095 0)
(-1.87635 0.0102324 -2.25221e-20)
(-1.88856 0.00915041 0)
(-1.89952 0.0080596 0)
(-1.90923 0.00695502 2.14837e-20)
(-1.91766 0.00583169 2.11239e-20)
(-1.92478 0.00468645 0)
(-1.93056 0.00352348 -2.03836e-20)
(-1.93497 0.0023632 2.00032e-20)
(-1.93795 0.00124592 0)
(-1.93942 0.000221185 -1.92191e-20)
(-1.93963 -0.000667694 0)
(-1.93875 -0.00145498 0)
(-1.93676 -0.00219814 1.7975e-20)
(-1.9337 -0.00291585 0)
(-1.92957 -0.00361613 -1.71042e-20)
(-1.9244 -0.00430204 0)
(-1.91817 -0.00497482 1.62001e-20)
(-1.9109 -0.0056349 1.57358e-20)
(-1.9026 -0.00628238 1.52633e-20)
(-1.89326 -0.00691721 2.95655e-20)
(-1.88291 -0.0075393 -2.85886e-20)
(-1.87153 -0.00814853 0)
(-1.85915 -0.00874481 0)
(-1.84576 -0.00932805 0)
(-1.83139 -0.00989818 -2.45276e-20)
(-1.81603 -0.0104551 -2.34756e-20)
(-1.7997 -0.0109989 2.24095e-20)
(-1.78241 -0.0115294 0)
(-1.76416 -0.0120467 -2.02369e-20)
(-1.74498 -0.0125507 -1.91312e-20)
(-1.72486 -0.0130415 -1.80133e-20)
(-1.70383 -0.013519 0)
(-1.6819 -0.0139832 0)
(-1.65907 -0.0144341 0)
(-1.63536 -0.0148718 -1.34284e-20)
(-1.61079 -0.0152962 0)
(-1.58536 -0.0157072 0)
(-1.5591 -0.016105 9.88663e-21)
(-1.53201 -0.0164895 0)
(-1.50412 -0.0168607 0)
(-1.47543 -0.0172184 6.27453e-21)
(-1.44597 -0.0175628 0)
(-1.41574 -0.0178937 0)
(-1.38478 -0.018211 -2.61017e-21)
(-1.35308 -0.0185147 -1.38043e-21)
(-1.32068 -0.0188048 0)
(-1.28758 -0.0190811 -1.08698e-21)
(-1.25382 -0.0193435 0)
(-1.2194 -0.019592 3.55976e-21)
(-1.18436 -0.0198265 0)
(-1.1487 -0.0200469 6.03148e-21)
(-1.11245 -0.020253 7.26488e-21)
(-1.07563 -0.0204448 0)
(-1.03827 -0.0206222 0)
(-1.00038 -0.0207851 0)
(-0.961998 -0.0209334 0)
(-0.923135 -0.0210671 0)
(-0.883821 -0.0211861 0)
(-0.84408 -0.0212904 0)
(-0.803937 -0.02138 1.69606e-20)
(-0.763418 -0.0214547 -1.81382e-20)
(-0.722549 -0.0215147 0)
(-0.681357 -0.02156 0)
(-0.639868 -0.0215905 0)
(-0.59811 -0.0216063 0)
(-0.55611 -0.0216074 -4.77037e-20)
(-0.513895 -0.021594 0)
(-0.471494 -0.021566 5.20812e-20)
(-0.428934 -0.0215235 -5.42223e-20)
(-0.386245 -0.0214665 0)
(-0.343455 -0.021395 0)
(-0.300594 -0.0213088 0)
(-0.257691 -0.0212076 6.24354e-20)
(-0.214777 -0.021091 6.43944e-20)
(-0.171886 -0.0209571 0)
(-0.12905 -0.0208022 6.81907e-20)
(-0.0863011 -0.0206243 7.00263e-20)
(-0.0436705 -0.02042 -7.18197e-20)
(-0.00118887 -0.0201595 0)
(0.0410551 -0.0198119 0)
(0.0830726 -0.0194298 -7.50988e-20)
(0.124845 -0.0190531 0)
(0.166358 -0.0186857 0)
(0.207602 -0.0183249 0)
(0.24857 -0.0179683 0)
(0.289253 -0.0176146 7.79188e-20)
(0.32964 -0.0172632 7.83386e-20)
(0.36972 -0.016914 0)
(0.409481 -0.016567 7.90499e-20)
(0.448913 -0.0162224 0)
(0.488006 -0.0158805 0)
(0.526752 -0.0155419 7.98225e-20)
(0.565142 -0.0152068 0)
(0.60317 -0.0148756 8.0161e-20)
(0.640832 -0.0145488 0)
(0.678122 -0.0142266 0)
(0.715037 -0.0139093 8.04336e-20)
(0.751575 -0.0135969 0)
(0.787734 -0.0132894 8.04744e-20)
(0.82351 -0.0129865 0)
(0.8589 -0.0126876 0)
(0.893898 -0.0123914 0)
(0.928495 -0.0120962 -8.02628e-20)
(0.962673 -0.0117993 0)
(0.996405 -0.0114963 8.00314e-20)
(1.02965 -0.0111804 0)
(1.06233 -0.0108412 0)
(1.09433 -0.0104612 0)
(1.12546 -0.0100112 0)
(1.15542 -0.00943378 0)
(1.18349 -0.00862148 0)
(1.20894 -0.00725236 0)
(1.22715 -0.00454585 -1.58162e-19)
(1.24091 0.00261805 0)
(1.19474 0.017742 0)
(0.00999309 -0.0599354 7.92869e-20)
(0.0220521 -0.0633659 -7.48273e-20)
(0.0258644 -0.0474483 0)
(0.0245549 -0.0291371 4.45118e-20)
(0.0190964 -0.0112082 0)
(0.0101148 0.00531757 2.10688e-20)
(-0.0017131 0.0197149 -4.13182e-20)
(-0.0165889 0.0316082 -4.05326e-20)
(-0.0345721 0.041163 0)
(-0.0556914 0.0489479 -3.89827e-20)
(-0.079936 0.0556655 -1.91418e-20)
(-0.107258 0.0619274 0)
(-0.137569 0.0681514 0)
(-0.170761 0.0745613 0)
(-0.206706 0.0812161 0)
(-0.245246 0.0880427 -1.72516e-20)
(-0.286188 0.0948925 0)
(-0.329293 0.101581 3.29233e-20)
(-0.374277 0.107916 0)
(-0.42082 0.113717 0)
(-0.46858 0.11883 -3.08116e-20)
(-0.517204 0.123136 0)
(-0.566343 0.126552 2.95206e-20)
(-0.615669 0.129042 -1.45014e-20)
(-0.664882 0.130604 1.42136e-20)
(-0.71372 0.131275 -1.39414e-20)
(-0.761963 0.131118 -1.36848e-20)
(-0.809432 0.130217 0)
(-0.855995 0.128675 0)
(-0.90155 0.126605 1.30044e-20)
(-0.946021 0.124124 -1.27352e-20)
(-0.989356 0.121327 0)
(-1.03152 0.118286 0)
(-1.07249 0.115067 1.22705e-20)
(-1.11228 0.111725 0)
(-1.15089 0.108306 0)
(-1.18834 0.10485 -1.18142e-20)
(-1.22466 0.101388 0)
(-1.25987 0.0979427 1.14695e-20)
(-1.294 0.0945326 -2.28257e-20)
(-1.32706 0.0911694 0)
(-1.35908 0.0878607 0)
(-1.39008 0.0846107 -4.40483e-20)
(-1.42006 0.0814209 -4.35855e-20)
(-1.44906 0.0782907 -4.31312e-20)
(-1.47706 0.0752182 2.12717e-20)
(-1.5041 0.0722005 -2.11899e-20)
(-1.53016 0.0692341 -6.27732e-20)
(-1.55525 0.0663156 4.13683e-20)
(-1.57938 0.0634413 2.05316e-20)
(-1.60254 0.0606077 0)
(-1.62473 0.0578117 -2.00937e-20)
(-1.64596 0.0550505 1.97578e-20)
(-1.66621 0.0523217 0)
(-1.68548 0.0496232 0)
(-1.70377 0.0469536 0)
(-1.72107 0.0443115 -1.89753e-20)
(-1.73737 0.041696 0)
(-1.75267 0.0391065 3.69392e-20)
(-1.76697 0.0365425 0)
(-1.78026 0.0340038 3.59957e-20)
(-1.79252 0.0314901 0)
(-1.80377 0.0290011 -3.50218e-20)
(-1.81399 0.0265367 0)
(-1.82318 0.0240961 3.40143e-20)
(-1.83133 0.0216784 -1.67327e-20)
(-1.83845 0.0192826 0)
(-1.84455 0.0169071 -3.24344e-20)
(-1.84961 0.0145501 -1.59483e-20)
(-1.85366 0.0122097 -1.56663e-20)
(-1.85672 0.00988359 0)
(-1.85882 0.00757241 -1.51029e-20)
(-1.86001 0.0052884 -1.47906e-20)
(-1.86036 0.00306531 0)
(-1.85997 0.000948845 1.41764e-20)
(-1.8587 -0.00104019 -2.77622e-20)
(-1.85641 -0.00292878 0)
(-1.85311 -0.00475276 -1.32122e-20)
(-1.84878 -0.00652729 0)
(-1.84342 -0.00826044 3.77025e-20)
(-1.83703 -0.00995545 0)
(-1.82961 -0.0116136 -3.56485e-20)
(-1.82117 -0.0132352 -1.15007e-20)
(-1.81171 -0.01482 1.12467e-20)
(-1.80123 -0.0163678 2.17829e-20)
(-1.78975 -0.0178782 -2.10625e-20)
(-1.77727 -0.0193509 0)
(-1.76379 -0.0207856 0)
(-1.74933 -0.0221821 0)
(-1.73389 -0.0235403 5.36671e-20)
(-1.71748 -0.0248599 1.70103e-20)
(-1.70011 -0.026141 -1.62211e-20)
(-1.6818 -0.0273836 0)
(-1.66254 -0.0285876 -1.49646e-20)
(-1.64236 -0.0297532 1.38061e-20)
(-1.62126 -0.0308804 1.29864e-20)
(-1.59925 -0.0319694 0)
(-1.57635 -0.0330201 0)
(-1.55257 -0.0340328 0)
(-1.52793 -0.0350075 9.64374e-21)
(-1.50242 -0.0359445 0)
(-1.47608 -0.0368437 -1.63139e-20)
(-1.44891 -0.0377055 -2.1686e-20)
(-1.42093 -0.0385299 1.28888e-20)
(-1.39214 -0.0393171 0)
(-1.36258 -0.0400671 4.95251e-21)
(-1.33225 -0.0407802 0)
(-1.30117 -0.0414562 5.95721e-21)
(-1.26935 -0.0420954 -2.35321e-21)
(-1.23682 -0.0426978 -1.48305e-21)
(-1.20359 -0.0432635 0)
(-1.16968 -0.0437925 1.80498e-21)
(-1.13511 -0.0442849 -2.78147e-21)
(-1.0999 -0.0447408 -2.52614e-21)
(-1.06406 -0.0451602 0)
(-1.02762 -0.0455432 -4.27396e-21)
(-0.990604 -0.0458898 -1.48974e-20)
(-0.953025 -0.0462002 0)
(-0.91491 -0.0464744 -1.32093e-20)
(-0.876281 -0.0467127 -1.49263e-20)
(-0.837161 -0.0469151 -1.66344e-20)
(-0.797573 -0.0470818 0)
(-0.757542 -0.0472131 0)
(-0.717093 -0.0473092 0)
(-0.676251 -0.0473703 1.14041e-20)
(-0.635041 -0.0473969 1.27775e-20)
(-0.593489 -0.0473891 0)
(-0.551623 -0.0473476 2.82559e-20)
(-0.509468 -0.0472727 2.98559e-20)
(-0.467051 -0.0471647 0)
(-0.4244 -0.0470244 3.35422e-20)
(-0.381543 -0.0468521 6.90884e-20)
(-0.338507 -0.0466483 -3.66018e-20)
(-0.295319 -0.0464136 -3.70363e-20)
(-0.252009 -0.0461484 0)
(-0.208604 -0.0458529 0)
(-0.165134 -0.0455273 0)
(-0.121627 -0.0451712 -4.38532e-20)
(-0.0781128 -0.0447834 4.42148e-20)
(-0.0346219 -0.0443629 9.21562e-20)
(0.0088155 -0.0439075 -4.77504e-20)
(0.052168 -0.0434169 4.76999e-20)
(0.0954077 -0.0428958 4.94827e-20)
(0.138508 -0.0423456 0)
(0.181441 -0.0417535 0)
(0.224199 -0.0411285 -5.08957e-20)
(0.266758 -0.0404931 0)
(0.309097 -0.0398563 0)
(0.351199 -0.0392192 1.06798e-19)
(0.393049 -0.038581 0)
(0.434632 -0.0379409 5.42182e-20)
(0.475937 -0.0372989 -5.55363e-20)
(0.516949 -0.0366551 0)
(0.557657 -0.0360102 5.58218e-20)
(0.598052 -0.0353651 0)
(0.638122 -0.0347207 0)
(0.677859 -0.0340781 -5.78096e-20)
(0.717256 -0.0334384 1.15731e-19)
(0.756307 -0.0328028 -5.85258e-20)
(0.795006 -0.032172 0)
(0.83335 -0.0315472 0)
(0.871335 -0.0309287 5.88556e-20)
(0.908959 -0.0303172 0)
(0.946221 -0.0297125 5.93649e-20)
(0.983118 -0.0291141 0)
(1.01965 -0.0285206 0)
(1.0558 -0.0279296 0)
(1.09157 -0.027337 6.05849e-20)
(1.12695 -0.0267363 0)
(1.16189 -0.0261176 -6.08202e-20)
(1.19637 -0.0254652 0)
(1.23031 -0.0247545 0)
(1.2636 -0.023945 1.21745e-19)
(1.29607 -0.0229686 -1.21892e-19)
(1.32741 -0.0216949 0)
(1.35708 -0.0198816 0)
(1.38444 -0.0168915 0)
(1.40679 -0.0115411 3.69335e-19)
(1.42675 0.00080967 0)
(1.42911 0.0257022 -2.49837e-19)
(0.00311673 -0.0805169 -1.03797e-22)
(0.00118261 -0.0622609 9.60946e-20)
(-0.00746225 -0.0346037 0)
(-0.0188307 -0.00894724 -8.04534e-20)
(-0.0327652 0.0144323 0)
(-0.0489652 0.0355765 0)
(-0.0673525 0.0545578 3.82871e-23)
(-0.0880226 0.0714332 3.42831e-20)
(-0.111145 0.0863698 3.34509e-20)
(-0.136869 0.0997153 3.27527e-20)
(-0.165255 0.111918 0)
(-0.196252 0.123399 0)
(-0.229711 0.134453 -3.05902e-20)
(-0.265401 0.145209 -5.97975e-20)
(-0.303041 0.155651 5.84322e-20)
(-0.342315 0.165653 0)
(-0.382893 0.175031 5.57711e-20)
(-0.424438 0.183581 -2.72676e-20)
(-0.466622 0.19111 0)
(-0.509137 0.197459 5.20153e-20)
(-0.551706 0.202515 2.54317e-20)
(-0.594087 0.20622 -4.97114e-20)
(-0.636083 0.208567 -2.43168e-20)
(-0.677537 0.209596 0)
(-0.718335 0.20939 4.66009e-20)
(-0.758399 0.208064 4.56589e-20)
(-0.797681 0.205751 0)
(-0.83616 0.202599 4.39133e-20)
(-0.873827 0.198757 0)
(-0.910687 0.19437 4.23411e-20)
(-0.946744 0.189572 2.08147e-20)
(-0.982006 0.184475 0)
(-1.01648 0.179175 0)
(-1.05018 0.173751 0)
(-1.08312 0.168265 0)
(-1.11531 0.162768 0)
(-1.14676 0.1573 0)
(-1.17747 0.151889 3.74028e-20)
(-1.20746 0.146554 -5.53798e-20)
(-1.23672 0.141309 0)
(-1.26526 0.13616 0)
(-1.29307 0.13111 0)
(-1.32014 0.12616 7.94869e-23)
(-1.34649 0.121304 3.46852e-20)
(-1.37209 0.11654 6.84418e-20)
(-1.39694 0.111861 -6.76101e-20)
(-1.42103 0.107262 -3.33542e-20)
(-1.44435 0.102736 3.30335e-20)
(-1.46689 0.0982765 -8.19234e-23)
(-1.48864 0.0938791 3.21564e-20)
(-1.50958 0.0895385 0)
(-1.52971 0.0852502 3.13732e-20)
(-1.54902 0.0810106 -7.42673e-23)
(-1.56748 0.0768164 0)
(-1.58509 0.0726655 0)
(-1.60184 0.0685558 -2.98137e-20)
(-1.6177 0.0644862 0)
(-1.63268 0.060456 0)
(-1.64676 0.0564649 2.85766e-20)
(-1.65993 0.0525128 5.64591e-20)
(-1.67218 0.0486002 -2.78702e-20)
(-1.6835 0.0447277 0)
(-1.69388 0.0408961 2.7041e-20)
(-1.70332 0.0371062 0)
(-1.7118 0.0333593 2.61434e-20)
(-1.71934 0.0296566 2.57612e-20)
(-1.72591 0.0259999 -5.06193e-20)
(-1.73153 0.0223914 -2.48632e-20)
(-1.7362 0.0188346 0)
(-1.73993 0.0153347 4.79599e-20)
(-1.74272 0.0118993 0)
(-1.74458 0.00853872 6.91799e-20)
(-1.74552 0.00526622 4.51945e-20)
(-1.74555 0.00209312 4.4235e-20)
(-1.74465 -0.000981626 -4.32579e-20)
(-1.74278 -0.00398207 6.33701e-20)
(-1.73991 -0.00692345 0)
(-1.73605 -0.00980597 0)
(-1.73119 -0.0126302 -3.92339e-20)
(-1.72534 -0.0153965 -5.72341e-20)
(-1.71849 -0.0181044 0)
(-1.71064 -0.0207537 1.79691e-20)
(-1.7018 -0.0233435 0)
(-1.69197 -0.0258734 -5.07833e-20)
(-1.68116 -0.0283424 1.73523e-22)
(-1.66937 -0.0307499 -1.84279e-22)
(-1.65661 -0.0330953 3.05621e-20)
(-1.64288 -0.0353783 0)
(-1.6282 -0.0375982 -2.82705e-20)
(-1.61256 -0.039755 2.25721e-22)
(-1.59599 -0.0418484 0)
(-1.57848 -0.0438783 0)
(-1.56005 -0.0458448 0)
(-1.54071 -0.0477478 2.2087e-20)
(-1.52046 -0.0495875 0)
(-1.49932 -0.051364 0)
(-1.4773 -0.0530776 0)
(-1.45441 -0.0547283 0)
(-1.43066 -0.0563164 0)
(-1.40606 -0.0578422 1.49507e-20)
(-1.38064 -0.0593058 0)
(-1.35439 -0.0607074 1.20991e-20)
(-1.32734 -0.0620475 1.08236e-20)
(-1.29949 -0.0633262 -9.54409e-21)
(-1.27087 -0.0645439 0)
(-1.24148 -0.0657006 -6.97541e-21)
(-1.21135 -0.0667968 0)
(-1.18049 -0.0678324 -4.39823e-21)
(-1.14891 -0.0688077 3.10812e-21)
(-1.11663 -0.0697228 6.21191e-21)
(-1.08367 -0.0705779 0)
(-1.05005 -0.0713733 -1.50371e-21)
(-1.01578 -0.0721091 -1.2615e-21)
(-0.980889 -0.0727854 0)
(-0.94539 -0.0734024 -8.42154e-21)
(-0.909305 -0.0739603 -1.09677e-20)
(-0.872654 -0.0744593 2.06633e-20)
(-0.835459 -0.0748997 0)
(-0.797741 -0.0752816 9.68408e-21)
(-0.759522 -0.0756055 1.09369e-20)
(-0.720825 -0.0758716 3.57179e-20)
(-0.681673 -0.0760804 0)
(-0.642091 -0.0762322 0)
(-0.602102 -0.0763276 0)
(-0.56173 -0.0763672 1.62389e-20)
(-0.521002 -0.0763515 0)
(-0.479942 -0.0762812 0)
(-0.438577 -0.0761572 -2.06283e-20)
(-0.396932 -0.0759802 -2.17886e-20)
(-0.355034 -0.075751 0)
(-0.312909 -0.0754705 0)
(-0.270585 -0.0751398 -5.0373e-20)
(-0.228088 -0.0747597 0)
(-0.185446 -0.0743311 5.47547e-20)
(-0.142686 -0.0738548 5.60941e-20)
(-0.0998358 -0.0733315 0)
(-0.056923 -0.0727615 0)
(-0.0139755 -0.0721454 -6.2307e-20)
(0.0289789 -0.0714833 -7.71972e-22)
(0.0719118 -0.0707749 -7.58695e-22)
(0.114796 -0.0700198 0)
(0.157603 -0.0692198 -1.37798e-19)
(0.20031 -0.0683795 0)
(0.242896 -0.0675072 0)
(0.285353 -0.0666073 0)
(0.327663 -0.0656816 7.45585e-20)
(0.369801 -0.064738 0)
(0.411743 -0.0637833 -1.52676e-19)
(0.453467 -0.0628202 -7.81356e-20)
(0.494952 -0.0618496 0)
(0.536183 -0.0608721 -8.02993e-20)
(0.577145 -0.0598886 0)
(0.617825 -0.0589 0)
(0.658211 -0.0579079 -2.48549e-19)
(0.698291 -0.0569137 1.67138e-19)
(0.738057 -0.0559192 0)
(0.7775 -0.0549262 1.70526e-19)
(0.816612 -0.0539366 -8.65568e-20)
(0.855387 -0.052952 0)
(0.893821 -0.0519743 0)
(0.931911 -0.0510046 0)
(0.969653 -0.0500442 -2.66971e-19)
(1.00704 -0.0490937 0)
(1.04409 -0.0481532 -9.04501e-20)
(1.08077 -0.0472216 0)
(1.11711 -0.046297 0)
(1.15308 -0.0453754 0)
(1.18868 -0.0444504 0)
(1.2239 -0.0435117 0)
(1.25871 -0.0425436 0)
(1.29307 -0.0415214 -1.86365e-19)
(1.32691 -0.0404067 0)
(1.36014 -0.0391373 -9.41866e-20)
(1.39259 -0.0376093 2.82873e-19)
(1.42403 -0.0356357 0)
(1.45399 -0.0328758 0)
(1.48205 -0.0285855 -1.90622e-19)
(1.50658 -0.0214482 -1.92339e-19)
(1.52968 -0.00773171 1.93756e-19)
(1.5442 0.0184996 1.96437e-19)
(-0.00583279 -0.0689885 -1.54538e-19)
(-0.0183979 -0.0370009 -1.38321e-19)
(-0.0349547 -0.00417335 -8.10864e-20)
(-0.0530006 0.0251802 -3.66703e-20)
(-0.0726416 0.0519401 0)
(-0.0936963 0.0765364 6.50789e-20)
(-0.116218 0.0991482 -3.12975e-20)
(-0.140356 0.119882 0)
(-0.166256 0.138882 -2.96191e-20)
(-0.194006 0.156359 0)
(-0.223608 0.17256 5.63718e-20)
(-0.254962 0.187699 0)
(-0.28788 0.201907 2.68792e-20)
(-0.32211 0.215206 5.24684e-20)
(-0.357366 0.227529 -5.12014e-20)
(-0.39335 0.238743 0)
(-0.429774 0.248693 -4.87471e-20)
(-0.466375 0.257229 0)
(-0.502924 0.264232 0)
(-0.539233 0.269631 -4.53087e-20)
(-0.575159 0.273403 0)
(-0.610598 0.275581 -6.33194e-23)
(-0.645486 0.276242 0)
(-0.679791 0.275498 0)
(-0.713505 0.27349 6.82678e-23)
(-0.746636 0.270375 -3.95081e-20)
(-0.779206 0.266316 -3.87522e-20)
(-0.811239 0.261476 -3.791e-20)
(-0.84276 0.256009 0)
(-0.87379 0.250058 -7.29816e-20)
(-0.904343 0.243746 0)
(-0.934429 0.237183 -3.51979e-20)
(-0.964053 0.230457 0)
(-0.993216 0.22364 0)
(-1.02191 0.21679 3.34468e-20)
(-1.05014 0.209952 0)
(-1.07789 0.20316 -3.24054e-20)
(-1.10515 0.196437 -2.96883e-24)
(-1.1319 0.1898 6.29007e-20)
(-1.15814 0.183258 -6.1987e-20)
(-1.18384 0.176815 0)
(-1.20899 0.170473 0)
(-1.23357 0.164229 -2.96992e-20)
(-1.25757 0.158079 0)
(-1.28096 0.152019 -2.89559e-20)
(-1.30372 0.146041 2.85752e-20)
(-1.32585 0.140139 2.82016e-20)
(-1.34732 0.134308 0)
(-1.36811 0.128541 -2.74714e-20)
(-1.3882 0.122833 -2.7113e-20)
(-1.40759 0.117179 5.34595e-20)
(-1.42624 0.111576 -2.64057e-20)
(-1.44414 0.106019 -2.60553e-20)
(-1.46128 0.100508 0)
(-1.47764 0.0950399 0)
(-1.4932 0.089614 2.50095e-20)
(-1.50795 0.08423 0)
(-1.52187 0.0788882 0)