/*--------------------------------*- C++ -*----------------------------------*\
| =========                 |                                                 |
| \\      /  F ield         | OpenFOAM: The Open Source CFD Toolbox           |
|  \\    /   O peration     | Version:  2412                                  |
|   \\  /    A nd           | Website:  www.openfoam.com                      |
|    \\/     M anipulation  |                                                 |
\*---------------------------------------------------------------------------*/
FoamFile
{
    version     2.0;
    format      ascii;
    arch        "LSB;label=32;scalar=64";
    class       volScalarField;
    location    "7.5";
    object      p;
}
// * * * * * * * * * * * * * * * * * * * * * * * * * * * * * * * * * * * * * //

dimensions      [0 2 -2 0 0 0 0];

internalField   nonuniform List<scalar> 
2200
(
0.212692
0.212843
0.213937
0.218017
0.228599
0.251252
0.293391
0.366099
0.481891
0.652239
0.845075
1.00635
1.11688
1.18737
1.22869
1.25101
1.26226
1.26709
1.26895
1.26923
0.207011
0.207287
0.2088
0.213395
0.22427
0.247348
0.29076
0.364056
0.480262
0.652019
0.845834
1.00819
1.11872
1.1883
1.22884
1.25045
1.26086
1.265
1.26623
1.26632
0.198537
0.198723
0.200779
0.206456
0.218956
0.243472
0.287314
0.36094
0.478149
0.654186
0.850226
1.01351
1.12502
1.19415
1.23329
1.25342
1.26259
1.26615
1.26708
1.26731
0.186454
0.186422
0.188786
0.195429
0.209488
0.236061
0.282275
0.359302
0.478514
0.656432
0.855854
1.02264
1.13533
1.20323
1.24125
1.26007
1.2691
1.27302
1.2743
1.27471
0.170652
0.170491
0.172384
0.178159
0.192179
0.220447
0.270202
0.35212
0.477012
0.66084
0.86499
1.03478
1.14813
1.21633
1.25438
1.27343
1.28251
1.28704
1.28874
1.28911
0.150662
0.151009
0.15232
0.156299
0.169666
0.1988
0.251319
0.336762
0.468441
0.662677
0.874548
1.04862
1.16447
1.23535
1.27293
1.29201
1.30212
1.30758
1.31002
1.31042
0.117279
0.117605
0.118583
0.122371
0.13478
0.164383
0.220372
0.311313
0.452541
0.660009
0.883938
1.06568
1.1841
1.25544
1.29548
1.31819
1.33056
1.33715
1.34027
1.34082
0.0720703
0.0715596
0.0727422
0.0781853
0.0915121
0.119516
0.175157
0.273784
0.429445
0.653439
0.891185
1.08265
1.2087
1.28584
1.33179
1.35843
1.37253
1.37891
1.38213
1.38309
0.0292127
0.0282189
0.0299887
0.0376058
0.0512645
0.0767552
0.131899
0.233799
0.39877
0.640622
0.899114
1.10795
1.24831
1.33666
1.38915
1.41985
1.43502
1.44039
1.44376
1.44538
-0.0107857
-0.0118705
-0.00915114
0.000279725
0.0156664
0.0429358
0.0992316
0.20231
0.370214
0.628176
0.912393
1.14759
1.31002
1.41418
1.47665
1.51134
1.52782
1.53395
1.53693
1.5388
-0.0546563
-0.0555853
-0.0527566
-0.0430635
-0.0249984
0.00878269
0.0716507
0.17862
0.352931
0.628101
0.942937
1.21234
1.40108
1.52225
1.59363
1.63141
1.64893
1.65738
1.65776
1.6597
-0.117651
-0.118094
-0.114814
-0.105575
-0.0832787
-0.0373804
0.0374157
0.155546
0.349001
0.650828
1.00081
1.30556
1.5196
1.65594
1.73105
1.76604
1.78413
1.79462
1.79672
1.79816
-0.20498
-0.205565
-0.203357
-0.195405
-0.168843
-0.112049
-0.0201301
0.125642
0.355178
0.694529
1.08676
1.43027
1.66207
1.80149
1.87552
1.9101
1.93001
1.94207
1.94557
1.94761
-0.322398
-0.322643
-0.319006
-0.311117
-0.282294
-0.217219
-0.106838
0.0747472
0.355362
0.751509
1.19628
1.57157
1.81159
1.95285
2.02909
2.0682
2.09165
2.10571
2.11042
2.11234
-0.466329
-0.467398
-0.464584
-0.455443
-0.424209
-0.355254
-0.226766
-0.00657336
0.332421
0.802343
1.30963
1.71601
1.9721
2.11832
2.20417
2.25378
2.27841
2.29243
2.29773
2.29973
-0.637471
-0.63728
-0.632378
-0.62068
-0.588121
-0.518491
-0.378672
-0.126234
0.272092
0.826233
1.40996
1.86055
2.14213
2.30599
2.40686
2.46751
2.49462
2.50883
2.51553
2.51778
-0.845178
-0.845845
-0.841377
-0.824742
-0.782673
-0.705912
-0.553989
-0.275979
0.175107
0.816914
1.48799
2.00271
2.3315
2.52785
2.64652
2.7163
2.74725
2.76277
2.77093
2.7732
-1.08923
-1.08976
-1.08684
-1.07093
-1.02604
-0.935325
-0.75993
-0.449532
0.0550116
0.784435
1.56042
2.16469
2.55871
2.79889
2.93467
3.00805
3.04276
3.06002
3.06926
3.07197
-1.37499
-1.37464
-1.37078
-1.3523
-1.29922
-1.19519
-0.990581
-0.641437
-0.0663709
0.761961
1.65777
2.36857
2.83683
3.1202
3.27108
3.34636
3.3867
3.40705
3.4175
3.42039
-1.71531
-1.71607
-1.71255
-1.69224
-1.6307
-1.49956
-1.25342
-0.838659
-0.158369
0.790879
1.82193
2.65079
3.1852
3.50027
3.6651
3.74416
3.78808
3.80936
3.82019
3.82297
-2.13038
-2.12913
-2.12298
-2.10201
-2.03124
-1.8689
-1.56556
-1.05064
-0.220864
0.891763
2.08004
3.01445
3.59768
3.93863
4.11164
4.19531
4.24241
4.26457
4.2756
4.27767
-2.63945
-2.63898
-2.62969
-2.59791
-2.51285
-2.31327
-1.93348
-1.28838
-0.269139
1.04764
2.40685
3.44194
4.06656
4.41707
4.60045
4.69138
4.73949
4.76238
4.77455
4.7757
-3.29964
-3.29564
-3.28016
-3.23642
-3.11801
-2.85646
-2.3743
-1.5657
-0.330537
1.21629
2.76699
3.90676
4.57357
4.92611
5.12307
5.22597
5.27598
5.30219
5.31501
5.31657
-4.13274
-4.12739
-4.10407
-4.03489
-3.86305
-3.51467
-2.9006
-1.89203
-0.420171
1.3768
3.13872
4.38267
5.09455
5.47932
5.68946
5.79697
5.84931
5.87975
5.8958
5.89722
-5.2457
-5.22426
-5.16409
-5.02441
-4.75013
-4.27157
-3.47755
-2.24269
-0.519077
1.53485
3.51365
4.88612
5.67782
6.09884
6.30606
6.40699
6.45246
6.48089
6.50145
6.50303
-6.68098
-6.62657
-6.49179
-6.23448
-5.79245
-5.10174
-4.07006
-2.56879
-0.578884
1.73868
3.95956
5.49393
6.36842
6.79902
6.97537
7.06525
7.09883
7.11345
7.12173
7.12631
-8.4878
-8.31146
-7.98588
-7.53711
-6.89067
-5.95268
-4.63827
-2.80544
-0.492337
2.15114
4.67126
6.38262
7.29689
7.73512
7.91136
7.98911
8.01647
8.02352
8.01547
8.01741
-10.5065
-10.048
-9.49947
-8.86837
-7.99503
-6.78855
-5.14774
-2.9348
-0.228628
2.81295
5.64433
7.50618
8.48443
8.94797
9.18738
9.28646
9.33817
9.3753
9.3911
9.39268
-12.3468
-11.6966
-10.98
-10.1642
-9.06426
-7.58226
-5.60263
-3.01993
0.0632496
3.47176
6.58426
8.59513
9.6622
10.1845
10.4688
10.6143
10.6962
10.7369
10.7609
10.7638
-13.7832
-13.0632
-12.285
-11.3349
-10.0392
-8.30454
-6.02229
-3.10884
0.305376
4.02722
7.42955
9.63331
10.7635
11.3865
11.7037
11.8646
11.9595
12.023
12.0654
12.0684
-14.99
-14.163
-13.3594
-12.3097
-10.8667
-8.9343
-6.39721
-3.1674
0.551905
4.55286
8.23544
10.6117
11.8471
12.5252
12.8636
13.0532
13.1689
13.2352
13.2781
13.2801
-15.9478
-15.0416
-14.224
-13.098
-11.5413
-9.45669
-6.68958
-3.1588
0.851429
5.12093
9.04389
11.5599
12.8863
13.5928
13.9588
14.162
14.2841
14.3615
14.4158
14.4246
-16.6615
-15.7161
-14.9207
-13.726
-12.0736
-9.84987
-6.88514
-3.09969
1.1761
5.70239
9.79531
12.4249
13.8175
14.5494
14.9296
15.1543
15.3076
15.4149
15.4896
15.5026
-17.1856
-16.2463
-15.4549
-14.2121
-12.4717
-10.1285
-7.00786
-3.0328
1.45938
6.18747
10.4288
13.1608
14.628
15.3938
15.8129
16.07
16.2349
16.3499
16.4402
16.4495
-17.5648
-16.6246
-15.8388
-14.5566
-12.7577
-10.3284
-7.09026
-2.98823
1.65225
6.53477
10.9293
13.7732
15.3226
16.1373
16.5853
16.8691
17.0649
17.1962
17.2897
17.3037
-17.845
-16.8888
-16.0842
-14.7519
-12.9345
-10.4625
-7.14431
-2.96441
1.76956
6.7705
11.3177
14.2781
15.9057
16.7703
17.2656
17.5767
17.7899
17.9455
18.0618
18.0742
-18.0651
-17.1005
-16.2407
-14.8402
-13.0106
-10.5193
-7.16187
-2.93919
1.84867
6.94222
11.6168
14.6838
16.3893
17.3127
17.8548
18.2033
18.4437
18.6062
18.7386
18.7481
-18.2081
-17.2513
-16.3282
-14.8566
-13.0036
-10.5005
-7.13637
-2.89924
1.91372
7.07683
11.8409
14.9969
16.7839
17.7728
18.3703
18.7567
19.0186
19.2012
19.3535
19.3604
-18.3389
-17.3681
-16.362
-14.8297
-12.9446
-10.4231
-7.06972
-2.84228
1.9699
7.17752
12.0006
15.2333
17.1055
18.1682
18.8105
19.2401
19.5465
19.7375
19.9074
19.9141
-18.4266
-17.4549
-16.3687
-14.8038
-12.8787
-10.329
-6.97835
-2.77307
2.01905
7.24266
12.111
15.4159
17.3592
18.4929
19.1902
19.6556
20.0112
20.2451
20.4162
20.4161
-18.5003
-17.5198
-16.3773
-14.7948
-12.8339
-10.2513
-6.88647
-2.69765
2.07027
7.28027
12.1858
15.5569
17.5486
18.7437
19.5102
20.0278
20.4319
20.6972
20.8732
20.8697
-18.5574
-17.561
-16.3941
-14.814
-12.8237
-10.2104
-6.81442
-2.62496
2.12624
7.3071
12.2331
15.6521
17.6781
18.9182
19.7667
20.3497
20.7988
21.0999
21.3041
21.289
-18.6168
-17.6143
-16.4263
-14.8482
-12.8426
-10.2062
-6.77141
-2.56541
2.18307
7.33232
12.2502
15.6891
17.7412
19.0315
19.967
20.6357
21.1339
21.4674
21.6871
21.6736
-18.6891
-17.6797
-16.4829
-14.9072
-12.8891
-10.2359
-6.76267
-2.53191
2.22143
7.35863
12.2252
15.6658
17.731
19.095
20.1145
20.8744
21.4506
21.8188
22.0388
22.0305
-18.7761
-17.766
-16.5634
-14.9868
-12.9627
-10.2994
-6.79461
-2.53971
2.22307
7.35771
12.1484
15.5767
17.6596
19.1039
20.2084
21.0709
21.7577
22.1843
22.3531
22.3438
-18.8946
-17.8716
-16.6692
-15.0941
-13.0685
-10.4023
-6.87785
-2.60678
2.16621
7.2964
12.0165
15.4266
17.542
19.0581
20.2414
21.2115
22.0234
22.5786
22.7743
22.6111
-19.0403
-18.0019
-16.7975
-15.2222
-13.2047
-10.541
-7.00927
-2.73297
2.04524
7.16237
11.8364
15.2194
17.3858
18.9439
20.1935
21.2672
22.2198
22.983
23.28
23.191
-19.2068
-18.1485
-16.9469
-15.3661
-13.3593
-10.7025
-7.17399
-2.9043
1.86782
6.96338
11.6087
14.9695
17.1561
18.7385
20.0301
21.1662
22.1878
23.0461
23.3139
23.1724
-19.3798
-18.31
-17.1176
-15.5203
-13.5223
-10.8741
-7.35256
-3.10028
1.65591
6.7269
11.3478
14.6817
16.8482
18.4307
19.7188
20.8462
21.8573
22.5102
22.656
22.6097
-19.5602
-18.4798
-17.296
-15.684
-13.6982
-11.0521
-7.53823
-3.31246
1.42121
6.46765
11.0584
14.3476
16.4662
18.0159
19.2569
20.2995
21.1795
21.5707
21.6322
21.6384
-19.7339
-18.668
-17.483
-15.8681
-13.8925
-11.2346
-7.72948
-3.53478
1.17336
6.1946
10.7422
13.9633
16.01
17.489
18.6323
19.5201
20.1845
20.5211
20.5668
20.649
-19.902
-18.8664
-17.6918
-16.0868
-14.1008
-11.423
-7.92484
-3.76154
0.9188
5.90943
10.3981
13.529
15.4798
16.8472
17.8553
18.5983
19.1039
19.3227
19.2746
19.4747
-20.0713
-19.0594
-17.8983
-16.3012
-14.3013
-11.6062
-8.11005
-3.97883
0.668665
5.61554
10.0262
13.048
14.8813
16.1029
16.9561
17.5429
17.8454
17.943
17.9193
18.1542
-20.2271
-19.2161
-18.0517
-16.4618
-14.4643
-11.7533
-8.26391
-4.16785
0.437465
5.32112
9.63175
12.5295
14.2314
15.2862
15.9672
16.3936
16.5426
16.4118
16.2007
16.3306
-20.3531
-19.3298
-18.1573
-16.5681
-14.5685
-11.8464
-8.37801
-4.32148
0.229319
5.03003
9.22115
11.9863
13.5537
14.4373
14.9259
15.1703
15.144
14.535
13.5646
13.5712
-20.4611
-19.4025
-18.2243
-16.629
-14.6162
-11.896
-8.4556
-4.44474
0.0403366
4.74291
8.80171
11.4307
12.8709
13.597
13.8762
13.8715
13.6433
12.5849
10.4245
8.51521
-20.5539
-19.4543
-18.2538
-16.6402
-14.6233
-11.9162
-8.50622
-4.54698
-0.133184
4.46431
8.38667
10.8828
12.2136
12.8133
12.8919
12.5909
12.0562
11.0498
7.49011
-1.9218
-20.6253
-19.4968
-18.268
-16.6321
-14.6124
-11.9152
-8.54057
-4.63492
-0.293822
4.1943
7.97608
10.3422
11.5798
12.0861
12.0181
11.5061
10.7896
10.1183
9.55213
5.91769
-20.6887
-19.5422
-18.2893
-16.6277
-14.6
-11.9125
-8.5761
-4.72392
-0.457587
3.91744
7.55947
9.80606
10.9701
11.4301
11.3451
10.9093
10.3654
10.328
11.1747
10.3083
-20.7557
-19.5851
-18.313
-16.6349
-14.6
-11.9216
-8.6207
-4.82355
-0.632848
3.63093
7.14401
9.29434
10.4159
10.8898
10.9296
10.7516
10.5169
10.4088
10.8568
10.3962
-20.8215
-19.6357
-18.3428
-16.6483
-14.6092
-11.9405
-8.67652
-4.93599
-0.820929
3.33871
6.73975
8.8232
9.94451
10.4942
10.7189
10.7553
10.5942
10.3611
10.4592
10.4046
-20.8779
-19.681
-18.3747
-16.67
-14.6245
-11.9647
-8.73945
-5.05643
-1.01705
3.04917
6.35754
8.40638
9.57185
10.229
10.5968
10.7591
10.6711
10.4517
10.5574
10.5969
-20.9249
-19.7156
-18.3961
-16.678
-14.6302
-11.9846
-8.80176
-5.1776
-1.21376
2.77046
6.00563
8.05313
9.29098
10.0476
10.4988
10.7439
10.7967
10.6953
10.8103
10.8448
-20.9336
-19.7231
-18.3954
-16.6658
-14.6208
-11.9921
-8.85446
-5.29209
-1.40406
2.50782
5.6887
7.76279
9.08162
9.92076
10.4386
10.7734
10.9754
11.0039
11.096
11.1053
-20.9064
-19.6843
-18.3533
-16.6146
-14.5858
-11.9784
-8.8924
-5.39625
-1.58357
2.26178
5.40906
7.52789
8.92938
9.85319
10.4465
10.8734
11.2076
11.3189
11.3981
11.4022
-20.8291
-19.5932
-18.2738
-16.5137
-14.5202
-11.9379
-8.91105
-5.48466
-1.75039
2.02867
5.16708
7.34284
8.82784
9.84246
10.5217
11.0193
11.4385
11.5989
11.6736
11.6865
-20.6675
-19.4401
-18.1284
-16.3519
-14.4186
-11.8607
-8.90237
-5.55255
-1.90315
1.80581
4.95698
7.20518
8.7687
9.87116
10.6357
11.1951
11.6458
11.88
11.9693
11.9884
-20.3962
-19.211
-17.9035
-16.1249
-14.2645
-11.7406
-8.86437
-5.59609
-2.03998
1.61018
4.76876
7.08529
8.73613
9.93224
10.7818
11.4075
11.9069
12.2392
12.38
12.4113
-19.9734
-18.8755
-17.5471
-15.8481
-14.0327
-11.58
-8.79288
-5.61816
-2.15515
1.43746
4.59548
6.97294
8.71217
10.0083
10.9604
11.672
12.2461
12.6804
12.8799
12.9187
-19.3775
-18.3579
-17.1004
-15.5258
-13.7157
-11.3684
-8.69057
-5.62175
-2.2496
1.28296
4.42663
6.85304
8.67937
10.0843
11.1414
11.9399
12.5724
13.0542
13.2927
13.3389
-18.5571
-17.6881
-16.5471
-15.0885
-13.326
-11.1241
-8.5637
-5.60702
-2.32341
1.13095
4.24623
6.70829
8.6042
10.0956
11.2261
12.063
12.7049
13.1875
13.4586
13.5244
-17.5653
-16.8744
-15.8699
-14.5447
-12.9021
-10.8452
-8.41331
-5.57367
-2.39118
0.955062
4.0268
6.49635
8.41264
9.92961
11.0733
11.9008
12.532
13.0213
13.3261
13.4125
-16.3219
-15.9448
-15.1679
-13.985
-12.4777
-10.5549
-8.24382
-5.52573
-2.47702
0.732704
3.7282
6.15508
8.02776
9.49743
10.6064
11.4215
12.0539
12.5549
12.8809
12.9869
-15.3661
-15.231
-14.6011
-13.5297
-12.1164
-10.2925
-8.08273
-5.49473
-2.60142
0.45201
3.31829
5.63141
7.3908
8.76823
9.83684
10.6487
11.2805
11.7741
12.1088
12.2342
-15.2108
-15.1872
-14.4448
-13.2918
-11.8613
-10.0821
-7.95145
-5.4942
-2.76105
0.10538
2.77777
4.91582
6.54255
7.8313
8.85198
9.63533
10.2395
10.707
11.0431
11.198
-15.3286
-15.2275
-14.5615
-13.3294
-11.7956
-9.95876
-7.85449
-5.50538
-2.94639
-0.301996
2.14649
4.10696
5.61559
6.8077
7.72587
8.41376
8.93611
9.33986
9.63724
9.79703
-15.2037
-15.1174
-14.6622
-13.3577
-11.6996
-9.79573
-7.72935
-5.48657
-3.1139
-0.674337
1.59921
3.43143
4.82185
5.89565
6.69085
7.25293
7.65971
7.95912
8.16336
8.26824
-14.8586
-14.9599
-14.5393
-12.962
-11.2154
-9.36415
-7.42221
-5.3458
-3.17831
-0.934739
1.16741
2.84905
4.09117
5.0267
5.71277
6.17461
6.48907
6.70154
6.82693
6.88178
-13.7033
-13.9325
-13.4399
-11.9055
-10.3106
-8.63228
-6.88722
-5.03899
-3.10736
-1.09929
0.773534
2.23587
3.27798
4.04857
4.61561
4.98353
5.21959
5.37019
5.45631
5.49139
-10.877
-11.0247
-10.7175
-9.85275
-8.77159
-7.48769
-6.07025
-4.5311
-2.89335
-1.1739
0.422973
1.64713
2.49779
3.12044
3.58086
3.87408
4.05795
4.17235
4.23623
4.26439
-7.08307
-7.15314
-7.09001
-6.85874
-6.45721
-5.7887
-4.89023
-3.79663
-2.52563
-1.14869
0.14361
1.14655
1.83922
2.34102
2.7094
2.93995
3.0841
3.17511
3.22788
3.25263
-3.90939
-3.95938
-3.99007
-4.06614
-4.07087
-3.89001
-3.49437
-2.87314
-2.02351
-1.01287
-0.0243505
0.779506
1.33743
1.73377
2.02443
2.20604
2.32384
2.40551
2.45827
2.4875
-1.8703
-1.89117
-1.95778
-2.07939
-2.20908
-2.26491
-2.18755
-1.92372
-1.45252
-0.775957
-0.0642508
0.555859
0.991466
1.29477
1.52739
1.67773
1.78085
1.85581
1.90383
1.92382
-0.580324
-0.621059
-0.714164
-0.839957
-0.976872
-1.08685
-1.14478
-1.09596
-0.886787
-0.494854
-0.00552439
0.450817
0.78113
1.00982
1.19972
1.32494
1.41144
1.47513
1.50821
1.52193
0.0514055
0.0163046
-0.0718374
-0.186215
-0.29408
-0.370172
-0.439913
-0.472896
-0.411215
-0.211597
0.104086
0.425226
0.675169
0.846887
1.00184
1.10137
1.16548
1.20871
1.23082
1.23884
0.319662
0.289349
0.205032
0.0937873
0.00478236
-0.0414066
-0.0815456
-0.101448
-0.0769153
0.0231736
0.218357
0.442537
0.63705
0.761098
0.885384
0.95971
0.998678
1.02708
1.04059
1.04488
0.387903
0.36696
0.292872
0.185159
0.0965946
0.0478046
0.0247261
0.0443561
0.0907671
0.17303
0.306384
0.470459
0.628491
0.706372
0.804004
0.854689
0.877872
0.89263
0.898942
0.900623
0.359768
0.34673
0.291775
0.206547
0.125255
0.0645059
0.0306912
0.0609532
0.128316
0.226483
0.350276
0.476702
0.61712
0.650623
0.724148
0.75566
0.765006
0.770167
0.771482
0.771061
0.304453
0.29581
0.261672
0.209263
0.15321
0.0939082
0.0431877
0.0508617
0.110265
0.215875
0.340909
0.444792
0.574005
0.56951
0.621304
0.639247
0.642694
0.643918
0.641102
0.640191
0.260795
0.255683
0.23595
0.207985
0.178574
0.135729
0.0890383
0.074521
0.100917
0.186154
0.298441
0.37814
0.47618
0.457298
0.497672
0.505842
0.511285
0.5156
0.512856
0.513227
0.236881
0.234621
0.223801
0.209496
0.199024
0.176349
0.146426
0.129113
0.127207
0.171246
0.245583
0.289247
0.35757
0.3472
0.378983
0.381174
0.387936
0.395121
0.394535
0.395987
0.225178
0.224502
0.220261
0.215459
0.219457
0.210116
0.197644
0.188335
0.168293
0.172631
0.20343
0.216058
0.259132
0.260151
0.289984
0.289331
0.292403
0.295281
0.294332
0.295136
0.223853
0.223248
0.221365
0.219949
0.22637
0.226015
0.225306
0.223645
0.197107
0.180174
0.183614
0.182518
0.206106
0.210349
0.22728
0.228041
0.226979
0.224546
0.219728
0.219037
0.230212
0.228925
0.224969
0.21924
0.217429
0.212987
0.213046
0.21572
0.203608
0.191551
0.185607
0.174594
0.186689
0.185358
0.19028
0.186091
0.180715
0.174556
0.165701
0.164001
0.234603
0.23276
0.224705
0.211954
0.200531
0.183764
0.175197
0.179278
0.184342
0.192242
0.191487
0.175726
0.181313
0.170461
0.166191
0.155569
0.144305
0.135562
0.123529
0.1209
0.225825
0.224232
0.213908
0.198697
0.18328
0.161957
0.147547
0.1456
0.149311
0.164221
0.17391
0.165363
0.167508
0.151363
0.140497
0.128801
0.112884
0.103522
0.0898134
0.0872129
0.198318
0.197324
0.188461
0.177573
0.167886
0.151719
0.138477
0.128271
0.116918
0.121543
0.133658
0.131323
0.132068
0.118603
0.105409
0.0993832
0.0828758
0.0774739
0.0650941
0.063165
0.160932
0.160226
0.154403
0.149643
0.14743
0.138816
0.130702
0.11846
0.0976859
0.090408
0.0934172
0.0892958
0.0891242
0.0795841
0.0705788
0.0700471
0.0566028
0.0555251
0.0462795
0.04491
0.124196
0.124095
0.120458
0.118224
0.118192
0.112341
0.109834
0.103187
0.0880836
0.0764113
0.0681451
0.058714
0.0572794
0.0505707
0.0442534
0.0459201
0.0356055
0.0361209
0.029149
0.0283621
0.0919646
0.0913244
0.0883132
0.0861311
0.0847266
0.0781617
0.0778342
0.0769236
0.0723673
0.0664401
0.0554821
0.0430571
0.0399893
0.0354936
0.0272657
0.0299166
0.0206058
0.0214396
0.0155329
0.0143114
0.059479
0.0590469
0.0561613
0.0539235
0.0517593
0.0446093
0.0445442
0.0439977
0.0432862
0.045043
0.0403202
0.0315914
0.0278035
0.0262097
0.0169663
0.0189976
0.0102549
0.0117094
0.00668332
0.00581241
0.0251349
0.0260936
0.0238244
0.0220066
0.0182219
0.0138045
0.0138406
0.0136953
0.0107196
0.0150354
0.0136489
0.0127032
0.00981388
0.0110898
0.00531086
0.00869728
0.0024746
0.0045609
0.00100188
0.000625019
13.5445
17.456
18.4003
19.6265
20.605
21.4583
22.1832
22.7625
23.1094
23.1735
17.7011
19.5658
20.1406
20.9021
21.5492
22.0922
22.527
22.8391
22.9887
22.9432
19.8605
20.77
21.2122
21.6776
22.0769
22.4077
22.6617
22.8344
22.9144
22.9199
21.04
21.5951
21.8761
22.1612
22.3968
22.5896
22.7353
22.8334
22.8857
22.9104
21.8083
22.0883
22.2609
22.4324
22.5779
22.6973
22.7883
22.8518
22.8868
22.917
22.2193
22.4093
22.5035
22.6182
22.7079
22.7817
22.8403
22.8846
22.9133
22.9382
22.4927
22.6185
22.6657
22.7427
22.803
22.8537
22.895
22.9272
22.9487
22.9729
22.6808
22.7591
22.7981
22.846
22.8876
22.9228
22.952
22.9767
22.9952
23.0161
22.8253
22.8785
22.9062
22.9344
22.9632
22.9889
23.0104
23.0309
23.0476
23.0678
22.9458
22.9771
22.9984
23.0176
23.0373
23.0567
23.0748
23.0931
23.1071
23.1262
23.0489
23.0685
23.086
23.1008
23.1166
23.1321
23.1458
23.1597
23.169
23.1856
23.1436
23.1578
23.1739
23.1882
23.2009
23.2119
23.2215
23.2302
23.2337
23.245
23.238
23.25
23.2645
23.2745
23.2824
23.2898
23.297
23.3035
23.305
23.313
23.3376
23.3422
23.351
23.3565
23.3602
23.3651
23.3713
23.3792
23.3836
23.393
23.4528
23.4396
23.4319
23.4263
23.4237
23.425
23.4318
23.4449
23.459
23.4884
23.5747
23.519
23.4884
23.4705
23.4623
23.4625
23.471
23.4899
23.5214
23.5908
)
;

boundaryField
{
    wall-4
    {
        type            zeroGradient;
    }
    pressure-outlet-7
    {
        type            fixedValue;
        value           uniform 0;
    }
    velocity-inlet-6
    {
        type            zeroGradient;
    }
    velocity-inlet-5
    {
        type            zeroGradient;
    }
    frontAndBackPlanes
    {
        type            empty;
    }
}


// ************************************************************************* //
