/*--------------------------------*- C++ -*----------------------------------*\
| =========                 |                                                 |
| \\      /  F ield         | OpenFOAM: The Open Source CFD Toolbox           |
|  \\    /   O peration     | Version:  2412                                  |
|   \\  /    A nd           | Website:  www.openfoam.com                      |
|    \\/     M anipulation  |                                                 |
\*---------------------------------------------------------------------------*/
FoamFile
{
    version     2.0;
    format      ascii;
    arch        "LSB;label=32;scalar=64";
    class       surfaceScalarField;
    location    "7.5";
    object      phi;
}
// * * * * * * * * * * * * * * * * * * * * * * * * * * * * * * * * * * * * * //

dimensions      [0 3 -1 0 0 0 0];

oriented        oriented;

internalField   nonuniform List<scalar> 
4262
(
-0.000912479
0.221425
-0.00260189
0.830343
-0.00449206
1.76903
-0.00651233
3.16719
-0.00911385
5.18721
-0.0118762
8.01713
-0.0138558
11.8491
-0.0158948
16.8218
-0.0187565
22.8847
-0.0189839
29.5286
-0.0182205
29.5276
-0.0164022
22.88
-0.013893
16.8172
-0.0114416
11.8447
-0.00912576
8.01205
-0.00716383
5.18264
-0.00549743
3.1635
-0.00433369
1.76598
-0.002864
0.827184
0.217649
-0.00281593
0.224241
-0.00682855
0.834355
-0.0121077
1.77431
-0.0183575
3.17344
-0.0261598
5.19501
-0.0334736
8.02444
-0.0402108
11.8559
-0.0475878
16.8292
-0.0542835
22.8914
-0.0534456
29.5277
-0.0500698
29.5242
-0.0442853
22.8742
-0.0391365
16.8121
-0.0318108
11.8374
-0.0256363
8.00587
-0.0201892
5.17719
-0.0143921
3.1577
-0.00985109
1.76144
-0.00441788
0.82175
0.213231
-0.00565064
0.229892
-0.0126348
0.841339
-0.0217801
1.78346
-0.0324517
3.18411
-0.0442984
5.20685
-0.0554497
8.03559
-0.0681456
11.8686
-0.0773594
16.8384
-0.0881601
22.9022
-0.0876588
29.5272
-0.0835899
29.5201
-0.0749548
22.8656
-0.0627841
16.7999
-0.0518513
11.8264
-0.0399492
7.99397
-0.0296899
5.16694
-0.0207648
3.14878
-0.0113934
1.75207
-0.00340934
0.813766
0.209821
-0.00908026
0.238972
-0.019849
0.852108
-0.0333488
1.79696
-0.0490777
3.19984
-0.0635969
5.22137
-0.0763451
8.04834
-0.0919936
11.8842
-0.105288
16.8517
-0.121404
22.9183
-0.119687
29.5255
-0.111678
29.5121
-0.0998353
22.8537
-0.0836585
16.7837
-0.0677611
11.8105
-0.0514541
7.97767
-0.0377682
5.15325
-0.0247517
3.13576
-0.0126564
1.73997
-0.00280435
0.803914
0.207017
-0.0137347
0.252707
-0.028476
0.866849
-0.0457199
1.8142
-0.0642258
3.21834
-0.0833712
5.24052
-0.101641
8.06661
-0.120076
11.9026
-0.134778
16.8664
-0.152747
22.9363
-0.151921
29.5247
-0.144619
29.5048
-0.128604
22.8377
-0.105272
16.7604
-0.0834659
11.7887
-0.0626359
7.95684
-0.044635
5.13525
-0.0293188
3.12045
-0.0156606
1.72631
-0.00330005
0.791553
0.203717
-0.0156168
0.268323
-0.0328809
0.884113
-0.0537003
1.83502
-0.0778761
3.24252
-0.104595
5.26724
-0.126854
8.08887
-0.146418
11.9222
-0.167157
16.8871
-0.187867
22.957
-0.183969
29.5208
-0.171319
29.4922
-0.14939
22.8158
-0.123508
16.7345
-0.0958273
11.761
-0.0717399
7.93275
-0.0511804
5.11469
-0.0331514
3.10242
-0.0187381
1.7119
-0.00509943
0.777915
0.198617
-0.0128267
0.28115
-0.031273
0.90256
-0.0567118
1.86046
-0.0868888
3.2727
-0.118993
5.29934
-0.152035
8.12191
-0.175647
11.9458
-0.199108
16.9106
-0.220485
22.9784
-0.216382
29.5167
-0.20346
29.4793
-0.175945
22.7883
-0.144304
16.7029
-0.10918
11.7259
-0.0816141
7.90518
-0.0592714
5.09235
-0.0391162
3.08226
-0.0220566
1.69484
-0.00801946
0.763878
0.190598
-0.0138529
0.295003
-0.0410528
0.92976
-0.071803
1.89121
-0.10395
3.30484
-0.139571
5.33496
-0.176607
8.15895
-0.207986
11.9772
-0.2354
16.938
-0.259712
23.0027
-0.25147
29.5085
-0.229836
29.4576
-0.194471
22.7529
-0.159273
16.6677
-0.124927
11.6916
-0.0960064
7.87626
-0.0668726
5.06321
-0.0426678
3.05806
-0.0230174
1.67519
-0.0102972
0.751157
0.180301
-0.0206342
0.315637
-0.0556261
0.964751
-0.088332
1.92392
-0.120326
3.33684
-0.153791
5.36843
-0.195429
8.20059
-0.235116
12.0169
-0.270834
16.9737
-0.297673
23.0295
-0.286774
29.4976
-0.260551
29.4314
-0.22389
22.7163
-0.187446
16.6312
-0.143757
11.6479
-0.104298
7.8368
-0.0687213
5.02764
-0.0387029
3.02804
-0.0155462
1.65203
-0.00805035
0.743662
0.17225
-0.0282996
0.343937
-0.0735304
1.00998
-0.106143
1.95653
-0.139846
3.37054
-0.17789
5.40647
-0.220528
8.24322
-0.265629
12.062
-0.307489
17.0156
-0.343155
23.0652
-0.328703
29.4831
-0.296258
29.399
-0.254717
22.6747
-0.209055
16.5856
-0.164239
11.6031
-0.118179
7.79074
-0.0737433
4.9832
-0.0350468
2.98934
-0.0048239
1.62181
-0.00322021
0.742058
0.16903
-0.0340475
0.377984
-0.0865689
1.0625
-0.120412
1.99037
-0.156889
3.40702
-0.197522
5.4471
-0.242504
8.28821
-0.291664
12.1111
-0.337802
17.0617
-0.381269
23.1086
-0.370919
29.4728
-0.340776
29.3688
-0.297595
22.6315
-0.246903
16.5349
-0.189533
11.5457
-0.132114
7.73332
-0.0828947
4.93398
-0.039291
2.94574
-0.000804075
1.58332
-0.0011191
0.742373
0.167911
-0.0360795
0.414064
-0.0907833
1.11721
-0.128189
2.02778
-0.173976
3.4528
-0.226233
5.49936
-0.278065
8.34004
-0.330511
12.1636
-0.382274
17.1135
-0.428518
23.1549
-0.42115
29.4654
-0.390586
29.3383
-0.33763
22.5786
-0.272904
16.4702
-0.209426
11.4822
-0.150024
7.67392
-0.094706
4.87866
-0.0460049
2.89704
-0.0048357
1.54215
-0.00330012
0.740837
0.164611
-0.0399062
0.45397
-0.102088
1.17939
-0.144661
2.07035
-0.198244
3.50639
-0.255237
5.55635
-0.313611
8.39841
-0.371007
12.221
-0.4266
17.1691
-0.474761
23.203
-0.472559
29.4632
-0.445717
29.3114
-0.387503
22.5204
-0.312615
16.3953
-0.233268
11.4029
-0.16165
7.6023
-0.104773
4.82179
-0.0575683
2.84983
-0.0140962
1.49868
-0.00777185
0.734513
0.156839
-0.0384485
0.492419
-0.100002
1.24094
-0.151866
2.12221
-0.220917
3.57544
-0.290438
5.62587
-0.362986
8.47096
-0.429702
12.2877
-0.491726
17.2311
-0.540743
23.2521
-0.538473
29.4609
-0.504541
29.2775
-0.425628
22.4414
-0.333307
16.3029
-0.249696
11.3193
-0.179109
7.53172
-0.11269
4.75537
-0.0641515
2.80129
-0.0214366
1.45597
-0.0116551
0.724732
0.145184
-0.047206
0.539625
-0.118846
1.31258
-0.181176
2.18455
-0.258396
3.65266
-0.334011
5.70149
-0.413577
8.55053
-0.492824
12.3669
-0.562553
17.3008
-0.615259
23.3048
-0.605163
29.4508
-0.555219
29.2275
-0.46824
22.3545
-0.371903
16.2066
-0.276972
11.2243
-0.19398
7.44873
-0.123713
4.6851
-0.0692407
2.74682
-0.0273245
1.41405
-0.0144399
0.711847
0.130744
-0.0469907
0.586615
-0.120174
1.38577
-0.19927
2.26364
-0.292867
3.74626
-0.38443
5.79305
-0.479912
8.64601
-0.57268
12.4597
-0.655953
17.3841
-0.711922
23.3607
-0.692225
29.4311
-0.617101
29.1524
-0.513332
22.2507
-0.40224
16.0955
-0.302897
11.125
-0.215667
7.3615
-0.135846
4.60528
-0.066033
2.67701
-0.0273373
1.37536
-0.0151253
0.699635
0.115619
-0.0619432
0.648558
-0.152165
1.47599
-0.236319
2.3478
-0.324549
3.83449
-0.425955
5.89446
-0.53548
8.75553
-0.646882
12.5711
-0.753682
17.4909
-0.816008
23.4231
-0.782087
29.3972
-0.694622
29.0649
-0.57692
22.133
-0.459716
15.9783
-0.342057
11.0073
-0.234609
7.25405
-0.147443
4.51811
-0.0660516
2.59562
-0.0298707
1.33917
-0.017215
0.686979
0.098404
-0.0638591
0.712418
-0.163751
1.57588
-0.271618
2.45566
-0.383068
3.94594
-0.503561
6.01495
-0.627558
8.87953
-0.749413
12.693
-0.870399
17.6119
-0.938235
23.4909
-0.897895
29.3569
-0.79519
28.9622
-0.657
21.9948
-0.509065
15.8304
-0.372345
10.8706
-0.25413
7.13583
-0.155585
4.41957
-0.0631507
2.50318
-0.0282588
1.30428
-0.0172904
0.676011
0.0811136
-0.084825
0.797243
-0.199838
1.69089
-0.315799
2.57162
-0.430501
4.06064
-0.572152
6.1566
-0.716713
9.02409
-0.855356
12.8316
-0.999729
17.7562
-1.06734
23.5585
-1.02188
29.3114
-0.906982
28.8473
-0.746325
21.8342
-0.577467
15.6615
-0.414939
10.7081
-0.266399
6.98729
-0.157373
4.31054
-0.0587458
2.40455
-0.0294762
1.27501
-0.019797
0.666332
0.0613166
-0.0923395
0.889582
-0.223919
1.82247
-0.365822
2.71353
-0.508929
4.20374
-0.666301
6.31397
-0.826315
9.18411
-0.99105
12.9963
-1.15452
17.9197
-1.22437
23.6284
-1.17583
29.2629
-1.04455
28.7161
-0.852583
21.6422
-0.641157
15.4501
-0.450362
10.5173
-0.284578
6.82151
-0.161653
4.18762
-0.062045
2.30495
-0.0309906
1.24396
-0.0219775
0.657319
0.0393392
-0.112017
1.0016
-0.260963
1.97142
-0.423276
2.87584
-0.587143
4.36761
-0.779398
6.50623
-0.967381
9.37209
-1.15628
13.1852
-1.34012
18.1035
-1.40437
23.6926
-1.3474
29.2059
-1.19233
28.561
-0.960048
21.4099
-0.725242
15.2153
-0.507414
10.2995
-0.312886
6.62698
-0.16445
4.03918
-0.0657371
2.20624
-0.0428415
1.22106
-0.0296544
0.644132
0.00968471
-0.129273
1.13087
-0.299276
2.14142
-0.486748
3.06331
-0.685631
4.5665
-0.90721
6.72781
-1.13119
9.59607
-1.36123
13.4153
-1.56927
18.3116
-1.62978
23.7531
-1.55359
29.1297
-1.35599
28.3634
-1.08688
21.1408
-0.803316
14.9317
-0.552655
10.0488
-0.345783
6.42011
-0.181456
3.87485
-0.0831617
2.10794
-0.0576514
1.19555
-0.0398975
0.626378
-0.0302128
-0.148916
1.27979
-0.343169
2.33567
-0.563459
3.2836
-0.798523
4.80156
-1.06967
6.99895
-1.35141
9.87782
-1.62314
13.687
-1.84594
18.5344
-1.88878
23.796
-1.7823
29.0232
-1.53443
28.1155
-1.21525
20.8216
-0.89953
14.616
-0.617948
9.76722
-0.38536
6.18752
-0.196223
3.68572
-0.0965845
2.0083
-0.0719469
1.17092
-0.0520537
0.606485
-0.0822665
-0.184291
1.46408
-0.411435
2.56282
-0.672886
3.54505
-0.978229
5.1069
-1.31208
7.3328
-1.63774
10.2035
-1.93852
13.9878
-2.17191
18.7678
-2.19299
23.817
-2.05194
28.8822
-1.73945
27.803
-1.35877
20.4409
-0.979794
14.237
-0.662078
9.4495
-0.418315
5.94376
-0.219401
3.4868
-0.134243
1.92314
-0.110258
1.14693
-0.0679513
0.564178
-0.150218
-0.228699
1.69278
-0.488862
2.82298
-0.836842
3.89303
-1.21998
5.49004
-1.60655
7.71937
-1.97907
10.576
-2.32645
14.3352
-2.55319
18.9945
-2.53446
23.7983
-2.34536
28.6931
-1.95578
27.4135
-1.49735
19.9825
-1.0789
13.8186
-0.715828
9.08643
-0.445887
5.67382
-0.242331
3.28325
-0.164972
1.84579
-0.157451
1.13941
-0.103771
0.510498
-0.253989
-0.356336
2.04911
-0.760083
3.22673
-1.1704
4.30335
-1.58201
5.90165
-2.00775
8.14511
-2.42269
10.9909
-2.79197
14.7045
-2.97514
19.1777
-2.91205
23.7352
-2.66659
28.4476
-2.19864
26.9455
-1.67014
19.454
-1.18019
13.3286
-0.758187
8.66443
-0.451707
5.36734
-0.233208
3.06475
-0.166324
1.7789
-0.160595
1.13368
-0.104888
0.45479
-0.358876
-0.273708
2.32282
-0.614086
3.5671
-0.965983
4.65525
-1.3788
6.31446
-1.82392
8.59023
-2.28139
11.4484
-2.7335
15.1566
-2.99602
19.4402
-3.07377
23.813
-2.94264
28.3165
-2.48814
26.491
-1.87071
18.8366
-1.25582
12.7137
-0.7428
8.15142
-0.349292
4.97383
-0.116993
2.83245
-0.0454518
1.70736
-0.0251935
1.11342
-0.0452929
0.474889
-0.404169
-0.164286
2.48711
-0.406137
3.80896
-0.689431
4.93854
-0.993556
6.61859
-1.30651
8.90319
-1.62605
11.768
-1.93876
15.4693
-2.08826
19.5897
-2.09816
23.8229
-1.9069
28.1252
-1.46058
26.0447
-0.933692
18.3097
-0.457458
12.2375
-0.0893747
7.78334
0.182341
4.70211
0.264977
2.74981
0.254434
1.7179
0.173599
1.19426
0.0691423
0.579347
-0.335027
-0.111284
2.59839
-0.249973
3.94764
-0.456409
5.14498
-0.684858
6.84703
-0.92104
9.13937
-1.14034
11.9873
-1.33865
15.6676
-1.40923
19.6602
-1.35308
23.7667
-1.1086
27.8807
-0.704632
25.6407
-0.305281
17.9103
0.0279485
11.9043
0.258494
7.55279
0.373882
4.58673
0.345763
2.77793
0.260572
1.8031
0.181957
1.27287
0.0990017
0.662302
-0.236025
-0.0906483
2.68904
-0.22579
4.08279
-0.372031
5.29122
-0.511547
6.98655
-0.652539
9.28036
-0.791037
12.1258
-0.900454
15.777
-0.910753
19.6705
-0.805657
23.6616
-0.536602
27.6117
-0.173232
25.2773
0.140605
17.5965
0.372612
11.6723
0.51961
7.40579
0.576847
4.52949
0.534071
2.82071
0.407825
1.92934
0.252336
1.42836
0.0983189
0.81632
-0.137706
-0.0523507
2.74139
-0.147773
4.17821
-0.252063
5.39551
-0.356436
7.09092
-0.455974
9.3799
-0.544277
12.2141
-0.589526
15.8223
-0.553961
19.635
-0.414131
23.5218
-0.131599
27.3292
0.17709
24.9686
0.437965
17.3356
0.578825
11.5314
0.649868
7.33475
0.612928
4.56643
0.483083
2.95055
0.322361
2.09006
0.198293
1.55243
0.0991151
0.915498
-0.0385912
-0.0320592
2.77345
-0.134175
4.28032
-0.215433
5.47677
-0.265793
7.14128
-0.319142
9.43325
-0.371568
12.2665
-0.375648
15.8263
-0.309806
19.5691
-0.160473
23.3725
0.110243
27.0584
0.409531
24.6694
0.614934
17.1302
0.734532
11.4118
0.767156
7.30213
0.699735
4.63385
0.567993
3.08229
0.411135
2.24692
0.256736
1.70683
0.113611
1.05862
0.0750197
-0.0102917
2.78374
-0.0967543
4.36679
-0.169507
5.54952
-0.209787
7.18156
-0.243773
9.46723
-0.260862
12.2836
-0.240698
15.8062
-0.158904
19.4873
0.000488151
23.2131
0.25063
26.8083
0.543512
24.3765
0.721682
16.9521
0.816353
11.3171
0.820487
7.29799
0.738964
4.71537
0.585606
3.23565
0.400428
2.4321
0.241266
1.86599
0.0885554
1.21133
0.163575
-0.00231894
2.78606
-0.0749091
4.43938
-0.14025
5.61486
-0.175749
7.21706
-0.188527
9.48001
-0.192725
12.2878
-0.160527
15.774
-0.0745619
19.4014
0.0787053
23.0598
0.330731
26.5563
0.610951
24.0962
0.77773
16.7853
0.872601
11.2223
0.866372
7.30422
0.730471
4.85127
0.532878
3.43324
0.346638
2.61834
0.176994
2.03563
0.0571528
1.33118
0.220728
-0.00401368
2.79008
-0.0507553
4.48612
-0.095109
5.65922
-0.147302
7.26926
-0.162956
9.49567
-0.159507
12.2843
-0.119089
15.7336
-0.0317598
19.3141
0.117256
22.9108
0.361241
26.3123
0.627944
23.8295
0.780447
16.6328
0.855218
11.1475
0.818276
7.34116
0.691294
4.97826
0.513567
3.61097
0.323538
2.80837
0.16154
2.19763
0.0451007
1.44761
0.265829
0.0108351
2.77924
-0.0289131
4.52587
-0.0742602
5.70456
-0.127048
7.32204
-0.145456
9.51407
-0.142103
12.281
-0.0996104
15.6911
-0.0141561
19.2286
0.127024
22.7696
0.354776
26.0845
0.606835
23.5775
0.750638
16.489
0.826823
11.0713
0.786042
7.38194
0.623464
5.14083
0.430828
3.80361
0.26069
2.97851
0.118259
2.34006
0.0211855
1.54469
0.287014
0.00681066
2.77243
-0.0190674
4.55175
-0.0490248
5.73452
-0.0912771
7.3643
-0.131612
9.55441
-0.135531
12.2849
-0.0953012
15.6508
-0.0140474
19.1473
0.117248
22.6383
0.325018
25.8768
0.558056
23.3444
0.687082
16.3599
0.741246
11.0171
0.683083
7.44011
0.548016
5.2759
0.377184
3.97444
0.200576
3.15511
0.068118
2.47252
0.000821485
1.61198
0.287836
0.0100844
2.76235
-0.0171402
4.57897
-0.0508886
5.76827
-0.0847926
7.3982
-0.118606
9.58822
-0.12994
12.2962
-0.0965057
15.6174
-0.0225198
19.0734
0.0961119
22.5197
0.282851
25.69
0.493803
23.1335
0.610057
16.2437
0.659091
10.9681
0.601907
7.49729
0.448146
5.42966
0.28294
4.13964
0.156593
3.28146
0.0423175
2.5868
-0.0107378
1.66504
0.277098
0.0117665
2.75058
-0.0128953
4.60363
-0.0420998
5.79747
-0.0784398
7.43454
-0.109274
9.61906
-0.126007
12.313
-0.100652
15.592
-0.0352751
19.008
0.0703776
22.414
0.23488
25.5255
0.418679
22.9497
0.516409
16.146
0.539864
10.9447
0.473502
7.56365
0.359295
5.54387
0.218069
4.28087
0.0828016
3.41673
-0.0057287
2.67533
-0.0256954
1.68501
0.251402
0.00213658
2.74844
-0.0272924
4.63306
-0.0591782
5.82936
-0.0860351
7.4614
-0.108028
9.64105
-0.122465
12.3274
-0.103092
15.5727
-0.0476808
18.9526
0.0456164
22.3208
0.185295
25.3859
0.338755
22.7962
0.423399
16.0613
0.439502
10.9286
0.367094
7.63606
0.245565
5.6654
0.12284
4.4036
0.0380608
3.50151
-0.0362935
2.74968
-0.0416494
1.69036
0.209753
0.00272365
2.74572
-0.0259505
4.66173
-0.0546127
5.85802
-0.0853728
7.49216
-0.106051
9.66173
-0.1215
12.3428
-0.105323
15.5565
-0.059307
18.9066
0.0223873
22.2391
0.136883
25.2714
0.259418
22.6737
0.328955
15.9918
0.323613
10.9339
0.241679
7.71799
0.149766
5.75731
0.0411926
4.51217
-0.0585819
3.60128
-0.0985267
2.78963
-0.0567247
1.64856
0.153028
-0.00978971
2.75551
-0.0448196
4.69676
-0.0726297
5.88583
-0.0960951
7.51562
-0.10995
9.67558
-0.122548
12.3554
-0.107171
15.5411
-0.0689847
18.8684
-0.00216567
22.1722
0.0927021
25.1765
0.188286
22.5781
0.242439
15.9376
0.224681
10.9517
0.133401
7.80927
0.0280175
5.86269
-0.0528437
4.59303
-0.0966819
3.64512
-0.122508
2.81545
-0.0686843
1.59474
0.0843439
-0.0110723
2.76658
-0.0390426
4.72473
-0.064052
5.91084
-0.0941424
7.54571
-0.10974
9.69118
-0.12427
12.37
-0.10987
15.5267
-0.0770485
18.8355
-0.0230812
22.1183
0.0546414
25.0988
0.12609
22.5067
0.1622
15.9015
0.121315
10.9925
0.0255379
7.90505
-0.0672954
5.95553
-0.147953
4.67369
-0.201718
3.69889
-0.179169
2.7929
-0.0822592
1.49783
0.00208474
-0.0184981
2.78508
-0.0543325
4.76057
-0.0775857
5.93409
-0.101013
7.56914
-0.113924
9.70409
-0.126408
12.3824
-0.112708
15.513
-0.0829578
18.8058
-0.039092
22.0744
0.0243376
25.0353
0.0733799
22.4576
0.0908984
15.884
0.0277361
11.0557
-0.0809022
8.01369
-0.184329
6.05895
-0.23859
4.72795
-0.237335
3.69763
-0.204496
2.76006
-0.0909273
1.38426
-0.0888426
-0.0197429
2.80482
-0.0461198
4.78695
-0.0683837
5.95636
-0.0966478
7.5974
-0.112808
9.72025
-0.127051
12.3967
-0.115393
15.5014
-0.0876027
18.778
-0.0513646
22.0382
-0.00521609
24.9892
0.0308128
22.4216
0.0234335
15.8914
-0.0469591
11.1261
-0.166868
8.1336
-0.273967
6.16605
-0.337879
4.79186
-0.34849
3.70824
-0.241719
2.65329
-0.0747958
1.21734
-0.163638
-0.0232276
2.82805
-0.0556303
4.81935
-0.0777139
5.97844
-0.0995083
7.6192
-0.113202
9.73394
-0.126336
12.4098
-0.116477
15.4915
-0.0923232
18.7538
-0.0623543
22.0082
-0.025936
24.9528
-0.00227632
22.3979
-0.0236487
15.9127
-0.113762
11.2162
-0.243755
8.26359
-0.370669
6.29297
-0.4323
4.85349
-0.393206
3.66915
-0.233809
2.4939
0.0832009
0.900325
-0.0804375
-0.0242961
2.85234
-0.0468321
4.84188
-0.0696719
6.00128
-0.0960485
7.64557
-0.113152
9.75105
-0.130378
12.4271
-0.124508
15.4856
-0.104735
18.7341
-0.0790824
21.9825
-0.0498306
24.9235
-0.0349324
22.383
-0.0747322
15.9525
-0.19323
11.3347
-0.347509
8.41787
-0.478082
6.42354
-0.573323
4.94873
-0.591327
3.68715
-0.390642
2.29321
-0.29359
0.803274
0.561099
-0.935127
-0.027979
2.88032
-0.0529094
4.86681
-0.0786039
6.02698
-0.0965487
7.66352
-0.114373
9.76887
-0.132524
12.4452
-0.129394
15.4825
-0.1131
18.7178
-0.0906472
21.9601
-0.0698706
24.9027
-0.0663802
22.3796
-0.126404
16.0126
-0.270905
11.4792
-0.454792
8.60176
-0.629104
6.59785
-0.759566
5.07919
-0.790678
3.71826
-0.680208
2.18274
-1.08649
1.20955
1.17141
-1.6968
-0.0282759
2.9086
-0.0435519
4.88209
-0.0706003
6.05402
-0.0887977
7.68172
-0.110395
9.79047
-0.131736
12.4665
-0.131779
15.4825
-0.119659
18.7057
-0.102281
21.9427
-0.0889693
24.8894
-0.0967738
22.3874
-0.176016
16.0918
-0.34886
11.6521
-0.55965
8.81255
-0.763378
6.80158
-0.94365
5.25947
-0.946792
3.72141
-0.993607
2.22955
-1.4593
1.67525
1.52872
-1.81661
-0.0288206
2.93742
-0.0467028
4.89997
-0.0769077
6.08423
-0.0872541
7.69206
-0.109467
9.81268
-0.130431
12.4875
-0.132313
15.4844
-0.12418
18.6975
-0.112092
21.9306
-0.105723
24.8831
-0.124521
22.4062
-0.222703
16.19
-0.424
11.8533
-0.670597
9.05914
-0.937339
7.06832
-1.14403
5.46616
-1.15675
3.73413
-1.4089
2.4817
-1.76741
2.03376
1.75381
-1.99249
-0.026303
2.96372
-0.0386318
4.9123
-0.0647866
6.11038
-0.0804063
7.70768
-0.103708
9.83598
-0.125485
12.5093
-0.129976
15.4889
-0.126322
18.6939
-0.120164
21.9245
-0.12061
24.8835
-0.14932
22.4349
-0.265174
16.3058
-0.493601
12.0818
-0.779138
9.34468
-1.03919
7.32837
-1.1647
5.59167
-1.20656
3.77599
-1.51995
2.79509
-1.86169
2.37549
1.97008
-2.07796
-0.0232733
2.987
-0.044655
4.93368
-0.0689746
6.1347
-0.0847371
7.72345
-0.104723
9.85597
-0.124667
12.5292
-0.129966
15.4942
-0.129564
18.6935
-0.128085
21.923
-0.135305
24.8907
-0.173127
22.4727
-0.305928
16.4386
-0.556822
12.3327
-0.853485
9.64134
-1.11491
7.5898
-1.29374
5.7705
-1.54312
4.02536
-1.86261
3.11458
-2.13656
2.64944
2.11278
-2.27926
-0.0209838
3.00798
-0.0405319
4.95323
-0.0631874
6.15736
-0.0871684
7.74743
-0.109634
9.87843
-0.129974
12.5496
-0.135651
15.4999
-0.137383
18.6952
-0.138785
21.9244
-0.151161
24.9031
-0.197549
22.5191
-0.344994
16.5861
-0.6063
12.594
-0.912491
9.94753
-1.18452
7.86183
-1.31371
5.8997
-1.53971
4.25136
-1.86658
3.44145
-2.11353
2.8964
2.31129
-2.31204
-0.0181291
3.02611
-0.0488845
4.98399
-0.0750029
6.18348
-0.0970621
7.76949
-0.11999
9.90136
-0.138154
12.5677
-0.14327
15.505
-0.146316
18.6983
-0.149583
21.9277
-0.165669
24.9192
-0.220257
22.5737
-0.379094
16.7449
-0.639893
12.8548
-0.941835
10.2495
-1.2121
8.13209
-1.38889
6.07649
-1.72367
4.58614
-2.21292
3.9307
-2.58151
3.26499
2.60757
-2.87779
-0.0179105
3.04402
-0.0432815
5.00936
-0.0688904
6.20909
-0.0990343
7.79963
-0.126641
9.92897
-0.146126
12.5872
-0.151759
15.5106
-0.155823
18.7023
-0.160356
21.9322
-0.179262
24.9381
-0.243987
22.6384
-0.415358
16.9163
-0.661223
13.1006
-0.93951
10.5278
-1.22764
8.42022
-1.50779
6.35663
-1.8267
4.90505
-2.26811
4.37211
-2.75073
3.74761
2.8082
-2.95136
-0.016491
3.06051
-0.0518948
5.04476
-0.0835487
6.24074
-0.110493
7.82657
-0.137579
9.95605
-0.15578
12.6054
-0.160747
15.5156
-0.165272
18.7068
-0.169677
21.9366
-0.19007
24.9585
-0.263898
22.7122
-0.439189
17.0916
-0.687691
13.3491
-0.945099
10.7852
-1.17749
8.65262
-1.46492
6.64407
-2.00238
5.4425
-2.3903
4.76004
-2.86567
4.22298
3.5088
-3.56627
-0.018153
3.07866
-0.0441255
5.07073
-0.0744689
6.27108
-0.110991
7.8631
-0.142832
9.9879
-0.162149
12.6247
-0.167062
15.5205
-0.17123
18.711
-0.175042
21.9404
-0.195073
24.9785
-0.264468
22.7816
-0.431165
17.2583
-0.662576
13.5806
-0.888788
11.0114
-1.06171
8.82553
-1.33669
6.91905
-1.72763
5.83345
-1.91134
4.94375
-1.39261
3.70424
2.11619
-0.017269
3.09593
-0.0558153
5.10928
-0.0916466
6.30692
-0.123098
7.89455
-0.153249
10.018
-0.171536
12.643
-0.176944
15.5259
-0.181624
18.7157
-0.186455
21.9452
-0.207198
24.9993
-0.276954
22.8514
-0.44591
17.4272
-0.672499
13.8071
-0.875393
11.2143
-0.988885
8.93903
-1.10078
7.03094
-1.12012
5.85279
-0.995574
4.8192
-0.690752
3.39942
1.42544
-0.0177146
3.11365
-0.0452986
5.13686
-0.0786224
6.34024
-0.121802
7.93773
-0.159033
10.0553
-0.180327
12.6643
-0.186959
15.5326
-0.191692
18.7204
-0.195305
21.9489
-0.212901
25.0169
-0.282859
22.9213
-0.448588
17.593
-0.65468
14.0132
-0.8062
11.3658
-0.875809
9.00864
-0.935477
7.09061
-0.995072
5.91239
-0.973467
4.7976
-0.798577
3.22453
0.626865
-0.0137485
3.1274
-0.0581918
5.18131
-0.0995803
6.38163
-0.134439
7.97259
-0.168055
10.0889
-0.188013
12.6843
-0.194862
15.5394
-0.198511
18.7241
-0.199644
21.95
-0.211191
25.0284
-0.277544
22.9877
-0.431966
17.7474
-0.603882
14.1851
-0.707976
11.4699
-0.779674
9.08033
-0.876926
7.18786
-0.923496
5.95896
-0.859603
4.7337
-0.395782
2.76071
0.231083
-0.0133458
3.14074
-0.0442623
5.21222
-0.0808794
6.41824
-0.130319
8.02203
-0.171647
10.1302
-0.194259
12.7069
-0.201136
15.5463
-0.202354
18.7253
-0.199328
21.947
-0.201621
25.0307
-0.259032
23.0451
-0.394338
17.8827
-0.52557
14.3164
-0.634275
11.5786
-0.713815
9.15987
-0.775212
7.24926
-0.774442
5.95819
-0.583234
4.5425
-0.160059
2.33753
0.0710246
-0.0101653
3.15091
-0.0601874
5.26225
-0.106687
6.46474
-0.143261
8.0586
-0.177491
10.1644
-0.196538
12.7259
-0.202092
15.5518
-0.199602
18.7228
-0.191348
21.9387
-0.182238
25.0216
-0.227615
23.0905
-0.341194
17.9963
-0.46215
14.4373
-0.563587
11.68
-0.609535
9.20582
-0.634548
7.27427
-0.589753
5.91339
-0.4211
4.37384
-0.142203
2.05864
-0.071178
-0.00447154
3.15538
-0.0395745
5.29735
-0.0801552
6.50533
-0.135073
8.11352
-0.1772
10.2066
-0.197268
12.746
-0.199897
15.5545
-0.191627
18.7145
-0.175999
21.9231
-0.153608
24.9992
-0.188129
23.125
-0.288048
18.0962
-0.395035
14.5443
-0.467737
11.7527
-0.482854
9.22094
-0.48318
7.27459
-0.429561
5.85977
-0.306128
4.25041
-0.0671408
1.81965
-0.138319
-0.00774924
3.16313
-0.0572107
5.34681
-0.108598
6.55671
-0.143756
8.14868
-0.175187
10.238
-0.188633
12.7594
-0.187304
15.5531
-0.173041
18.7003
-0.149178
21.8992
-0.11367
24.9637
-0.138817
23.1501
-0.224849
18.1822
-0.306405
14.6259
-0.340419
11.7867
-0.344366
9.22489
-0.333203
7.26343
-0.284927
5.8115
-0.1766
4.14208
0.0118956
1.63115
-0.126423
0.0114465
3.15168
-0.0258737
5.38413
-0.0692846
6.60012
-0.124771
8.20416
-0.164466
10.2777
-0.176418
12.7714
-0.169117
15.5458
-0.146232
18.6774
-0.111858
21.8648
-0.0645712
24.9164
-0.0790337
23.1646
-0.147533
18.2507
-0.200339
14.6787
-0.208444
11.7949
-0.193965
9.21041
-0.177817
7.24728
-0.142214
5.77589
-0.0598201
4.05969
0.0495168
1.52182
-0.0769062
0.00750521
3.14418
-0.0381101
5.42975
-0.0906367
6.65265
-0.117064
8.23059
-0.145587
10.3062
-0.146333
12.7721
-0.133299
15.5328
-0.103773
18.6479
-0.058422
21.8195
-0.00562997
24.8636
-0.00756189
23.1665
-0.0528088
18.296
-0.0825008
14.7084
-0.0776644
11.79
-0.0484738
9.18122
-0.0051277
7.20394
0.0223595
5.74841
0.0665139
4.01553
0.0606882
1.52764
-0.016218
0.0375254
3.10665
0.0161333
5.45114
-0.024927
6.69371
-0.0779788
8.28364
-0.110899
10.3391
-0.106263
12.7675
-0.0874838
15.514
-0.0470996
18.6075
0.0101669
21.7622
0.0770561
24.7967
0.0849785
23.1586
0.0597574
18.3212
0.055537
14.7126
0.0688786
11.7767
0.102308
9.14779
0.140498
7.16575
0.201756
5.68715
0.224228
3.99306
0.0946187
1.65725
0.0784008
0.0455418
3.06111
0.0113462
5.48533
-0.015428
6.72049
-0.0472132
8.31543
-0.0550971
10.347
-0.0392023
12.7516
-0.0154848
15.4903
0.0367958
18.5552
0.101887
21.6971
0.183603
24.715
0.198772
23.1434
0.187846
18.3321
0.196511
14.7039
0.227873
11.7453
0.256396
9.11926
0.298385
7.12376
0.352282
5.63325
0.348517
3.99683
0.149148
1.85662
0.227548
0.0897294
2.97138
0.105235
5.46983
0.0640081
6.76171
0.0236423
8.35579
0.0316982
10.339
0.040935
12.7424
0.0734707
15.4578
0.134908
18.4938
0.219396
21.6126
0.3068
24.6276
0.326751
23.1235
0.327482
18.3314
0.346751
14.6847
0.376172
11.7159
0.401173
9.09426
0.431642
7.09329
0.460224
5.60467
0.416783
4.04027
0.199455
2.07395
0.427003
0.119088
2.85229
0.128217
5.4607
0.120365
6.76956
0.124903
8.35126
0.123784
10.3401
0.158813
12.7073
0.199886
15.4167
0.26954
18.4241
0.368429
21.5138
0.457033
24.539
0.477489
23.103
0.47822
18.3307
0.484887
14.678
0.489466
11.7113
0.484677
9.09905
0.483796
7.09417
0.484921
5.60354
0.434241
4.09095
0.229698
2.27849
0.656701
0.209172
2.64312
0.292242
5.37763
0.29475
6.76705
0.27051
8.3755
0.279282
10.3313
0.315148
12.6715
0.367588
15.3643
0.44634
18.3453
0.552497
21.4076
0.635003
24.4565
0.647156
23.0909
0.628145
18.3497
0.605348
14.7008
0.576638
11.74
0.542088
9.1336
0.527024
7.10924
0.51637
5.6142
0.4507
4.15662
0.235224
2.49397
0.891925
0.309205
2.33392
0.44613
5.2407
0.461417
6.75177
0.458393
8.37852
0.478859
10.3109
0.517624
12.6327
0.581623
15.3003
0.672547
18.2544
0.78216
21.298
0.853348
24.3853
0.843916
23.1003
0.790629
18.403
0.731045
14.7604
0.672022
11.799
0.608665
9.19696
0.561576
7.15632
0.516427
5.65935
0.42539
4.24765
0.217851
2.70151
1.10978
0.576182
1.75773
0.768237
5.04865
0.775927
6.74408
0.757418
8.39703
0.770283
10.298
0.80819
12.5948
0.875449
15.233
0.967549
18.1623
1.07037
21.1952
1.12528
24.3304
1.0869
23.1387
1.00164
18.4882
0.908763
14.8533
0.813168
11.8946
0.706023
9.3041
0.608619
7.25373
0.517584
5.75038
0.396131
4.36911
0.194363
2.90328
1.30414
0.88784
0.869894
1.18029
4.7562
1.18191
6.74246
1.14738
8.43155
1.14476
10.3006
1.17625
12.5633
1.24795
15.1613
1.34689
18.0634
1.44612
21.0959
1.48446
24.2921
1.41864
23.2045
1.30772
18.5991
1.18467
14.9763
1.03239
12.0469
0.842835
9.49366
0.665621
7.43094
0.513464
5.90254
0.356407
4.52616
0.158214
3.10147
1.46235
0.792897
0.0769963
1.60054
3.94855
1.74921
6.5938
1.69569
8.48507
1.65117
10.3451
1.66713
12.5474
1.73843
15.09
1.83746
17.9644
1.93224
21.0011
1.96876
24.2555
1.90356
23.2697
1.77082
18.7319
1.59668
15.1504
1.38195
12.2616
1.11996
9.75565
0.875198
7.6757
0.662703
6.11504
0.447217
4.74165
0.202083
3.34661
1.66444
0.632729
-0.555732
1.79943
2.78185
2.19673
6.1965
2.24268
8.43912
2.244
10.3438
2.28844
12.5029
2.37333
15.0051
2.49309
17.8446
2.60722
20.887
2.66481
24.1979
2.59794
23.3366
2.42654
18.9033
2.19262
15.3844
1.92647
12.5278
1.6164
10.0657
1.28239
8.00971
0.953644
6.44379
0.628045
5.06725
0.288641
3.68601
1.95308
0.41497
-0.970702
1.65641
1.54041
2.14701
5.7059
2.25496
8.33117
2.24842
10.3504
2.24262
12.5087
2.25318
14.9946
2.28521
17.8126
2.28703
20.8852
2.20848
24.2765
2.03622
23.5088
1.83114
19.1084
1.6034
15.6121
1.34964
12.7815
1.09868
10.3167
0.872795
8.2356
0.662257
6.65432
0.448477
5.28103
0.21203
3.92246
2.16511
0.146132
-1.11683
0.674323
1.01222
1.18031
5.19991
1.40517
8.10631
1.4514
10.3041
1.48421
12.4759
1.55818
14.9206
1.66013
17.7106
1.7202
20.8251
1.68945
24.3073
1.56173
23.6365
1.40014
19.27
1.22445
15.7878
1.04236
12.9636
0.836851
10.5222
0.639949
8.4325
0.46932
6.82495
0.306813
5.44353
0.14218
4.08709
2.30729
0.0214023
-1.13824
-0.0944401
1.12806
0.156522
4.94895
0.382879
7.87995
0.581803
10.1052
0.764701
12.293
0.930695
14.7546
1.09709
17.5442
1.21528
20.7069
1.24235
24.2802
1.16744
23.7115
1.05761
19.3798
0.927871
15.9176
0.784659
13.1069
0.626229
10.6806
0.473315
8.58541
0.341714
6.95655
0.217043
5.5682
0.0890994
4.21503
2.39639
-0.307672
-0.830565
-0.708907
1.5293
-0.786185
5.02623
-0.528474
7.62224
-0.197445
9.77417
0.0923025
12.0033
0.352605
14.4943
0.585742
17.3111
0.764536
20.5281
0.855308
24.1894
0.845586
23.7212
0.782013
19.4434
0.690364
16.0092
0.583723
13.2135
0.463949
10.8004
0.342458
8.70691
0.240712
7.0583
0.146464
5.66245
0.0539527
4.30755
2.45034
-0.422563
-0.408002
-0.883873
1.99061
-0.973216
5.11557
-0.845193
7.49421
-0.631367
9.56035
-0.362603
11.7345
-0.066615
14.1983
0.191745
17.0527
0.413004
20.3069
0.549663
24.0528
0.588586
23.6823
0.562267
19.4697
0.503756
16.0677
0.428462
13.2888
0.338689
10.8902
0.2453
8.80029
0.170503
7.1331
0.0970077
5.73595
0.0234467
4.38111
2.47379
-0.394712
-0.0132894
-0.812651
2.40855
-0.867426
5.17034
-0.823474
7.45026
-0.710746
9.44762
-0.534418
11.5582
-0.293194
13.9571
-0.0402242
16.7997
0.168128
20.0985
0.324318
23.8966
0.389181
23.6174
0.388607
19.4702
0.358589
16.0977
0.311262
13.3361
0.247364
10.9541
0.172344
8.87531
0.108461
7.19698
0.0459404
5.79847
-0.0101468
4.43719
2.46364
-0.405073
0.391783
-0.702513
2.70599
-0.765271
5.2331
-0.707876
7.39287
-0.616551
9.35629
-0.513273
11.4549
-0.36542
13.8092
-0.169207
16.6035
0.0227508
19.9066
0.170996
23.7483
0.24504
23.5433
0.261198
19.4541
0.251403
16.1075
0.222351
13.3652
0.173455
11.003
0.109434
8.93934
0.0532903
7.25312
0.00163059
5.85013
-0.0353903
4.47421
2.42825
-0.299081
0.690865
-0.546688
2.95359
-0.631284
5.3177
-0.591388
7.35297
-0.515161
9.28007
-0.429669
11.3694
-0.333227
13.7128
-0.201935
16.4722
-0.0492253
19.7539
0.0753677
23.6237
0.146658
23.4721
0.170571
19.4302
0.169728
16.1084
0.151824
13.3831