/*--------------------------------*- C++ -*----------------------------------*\
| =========                 |                                                 |
| \\      /  F ield         | OpenFOAM: The Open Source CFD Toolbox           |
|  \\    /   O peration     | Version:  2412                                  |
|   \\  /    A nd           | Website:  www.openfoam.com                      |
|    \\/     M anipulation  |                                                 |
\*---------------------------------------------------------------------------*/
FoamFile
{
    version     2.0;
    format      ascii;
    arch        "LSB;label=32;scalar=64";
    class       volVectorField;
    location    "7.5";
    object      U;
}
// * * * * * * * * * * * * * * * * * * * * * * * * * * * * * * * * * * * * * //

dimensions      [0 1 -1 0 0 0 0];

internalField   nonuniform List<vector> 
2200
(
(0.379737 6.93059e-05 0)
(1.19453 0.00094735 0)
(2.12298 0.00170011 0)
(3.16866 0.00265248 0)
(4.32491 0.00339964 0)
(5.57101 0.00472369 0)
(6.86385 0.00556668 0)
(8.12054 0.00611689 0)
(9.2062 0.00703673 0)
(9.90038 0.00767095 0)
(9.90078 0.00748943 0)
(9.20756 0.00723397 0)
(8.12173 0.00643989 0)
(6.86474 0.00525727 0)
(5.57205 0.00468213 0)
(4.32499 0.00359573 0)
(3.16825 0.00287157 0)
(2.12225 0.0023513 0)
(1.19256 0.0016292 0)
(0.376587 0.00124339 0)
(0.383325 0.000784141 0)
(1.19746 0.00205496 0)
(2.12637 0.00452272 0)
(3.17216 0.00682172 0)
(4.32974 0.0104399 0)
(5.5766 0.0127678 0)
(6.86679 0.0157237 0)
(8.12348 0.0184825 0)
(9.20943 0.0207989 0)
(9.90164 0.0215707 0)
(9.90058 0.0209424 0)
(9.20453 0.0192265 0)
(8.11777 0.0172938 0)
(6.86008 0.0156012 0)
(5.56792 0.0126442 0)
(4.32143 0.0105262 0)
(3.16376 0.00790228 0)
(2.11608 0.00555576 0)
(1.18431 0.00374476 0)
(0.370576 0.000750485 0)
(0.390767 0.00192715 0)
(1.20526 0.00376016 0)
(2.13403 0.00775738 0)
(3.17959 0.0121754 0)
(4.3346 0.0167917 0)
(5.57991 0.0220943 0)
(6.87101 0.026856 0)
(8.12593 0.0309039 0)
(9.21109 0.0343092 0)
(9.89928 0.0359562 0)
(9.89805 0.0352604 0)
(9.20183 0.033148 0)
(8.11441 0.0292796 0)
(6.85568 0.0247565 0)
(5.56169 0.0207579 0)
(4.31254 0.0155992 0)
(3.15403 0.0115711 0)
(2.10632 0.00725097 0)
(1.17472 0.00370163 0)
(0.364502 -0.000299825 0)
(0.402448 0.00311874 0)
(1.21632 0.00602213 0)
(2.1462 0.012092 0)
(3.19051 0.0180437 0)
(4.34788 0.0248606 0)
(5.59111 0.0303495 0)
(6.87973 0.0357849 0)
(8.13291 0.0419806 0)
(9.21774 0.048106 0)
(9.90032 0.0502518 0)
(9.89691 0.0480053 0)
(9.19658 0.0440582 0)
(8.10548 0.0393217 0)
(6.84501 0.0337874 0)
(5.55044 0.0262596 0)
(4.30297 0.0207696 0)
(3.14461 0.0138206 0)
(2.09537 0.00824801 0)
(1.16327 0.00378569 0)
(0.35912 -0.000838124 0)
(0.424637 0.00448051 0)
(1.2385 0.00892895 0)
(2.16676 0.0173936 0)
(3.21103 0.0246781 0)
(4.36051 0.0312834 0)
(5.60145 0.0397018 0)
(6.88744 0.0476544 0)
(8.13766 0.0544333 0)
(9.22155 0.0608345 0)
(9.89787 0.0635263 0)
(9.89275 0.0622137 0)
(9.19023 0.057883 0)
(8.09904 0.0504675 0)
(6.83711 0.0414841 0)
(5.54093 0.0332231 0)
(4.29013 0.0239268 0)
(3.12803 0.0169469 0)
(2.07805 0.0093813 0)
(1.14753 0.00451812 0)
(0.353939 -0.000884272 0)
(0.450208 0.00412238 0)
(1.26026 0.0101594 0)
(2.1883 0.0206893 0)
(3.23001 0.029353 0)
(4.38428 0.0401442 0)
(5.6229 0.0493672 0)
(6.90537 0.0581291 0)
(8.15118 0.0669718 0)
(9.23224 0.0752335 0)
(9.89811 0.0784331 0)
(9.89054 0.07464 0)
(9.18329 0.0680885 0)
(8.08624 0.0590455 0)
(6.82102 0.0489399 0)
(5.52325 0.0378017 0)
(4.27257 0.0273353 0)
(3.1142 0.0185217 0)
(2.06302 0.0112669 0)
(1.1308 0.00491316 0)
(0.348281 0.000427884 0)
(0.474916 0.00178491 0)
(1.28565 0.0106739 0)
(2.21457 0.0185856 0)
(3.25806 0.0327858 0)
(4.40368 0.0465267 0)
(5.63915 0.0591355 0)
(6.91697 0.0697846 0)
(8.15959 0.0794543 0)
(9.24054 0.0888431 0)
(9.89691 0.091964 0)
(9.88539 0.088788 0)
(9.17393 0.0813682 0)
(8.07637 0.070751 0)
(6.81047 0.0570624 0)
(5.51202 0.0418795 0)
(4.25984 0.0301225 0)
(3.09517 0.0215341 0)
(2.04499 0.0140477 0)
(1.10969 0.00514102 0)
(0.336645 0.0026685 0)
(0.496704 0.000674795 0)
(1.31634 0.013877 0)
(2.25233 0.0230156 0)
(3.2925 0.0386386 0)
(4.44184 0.0561195 0)
(5.67275 0.0707745 0)
(6.94597 0.0827391 0)
(8.18096 0.0934095 0)
(9.25501 0.104813 0)
(9.89717 0.108449 0)
(9.88255 0.102268 0)
(9.16542 0.0920725 0)
(8.06092 0.0778367 0)
(6.79042 0.0625067 0)
(5.48868 0.0486817 0)
(4.23544 0.0345694 0)
(3.07397 0.0234357 0)
(2.02109 0.0161145 0)
(1.08862 0.00441863 0)
(0.319227 0.00440918 0)
(0.529057 0.00180998 0)
(1.3707 0.0197963 0)
(2.29525 0.0285528 0)
(3.32659 0.0464967 0)
(4.46323 0.0622594 0)
(5.69288 0.0784775 0)
(6.96216 0.0940553 0)
(8.19287 0.108729 0)
(9.26757 0.120415 0)
(9.89705 0.123402 0)
(9.87722 0.116793 0)
(9.15354 0.10556 0)
(8.04627 0.0902113 0)
(6.7746 0.0721093 0)
(5.47024 0.0527933 0)
(4.21234 0.0374924 0)
(3.04725 0.0239938 0)
(1.99969 0.0128786 0)
(1.0751 0.00157376 0)
(0.30369 0.00457946 0)
(0.566301 0.0039351 0)
(1.4146 0.0251881 0)
(2.32909 0.0385758 0)
(3.35645 0.0533581 0)
(4.50005 0.0699722 0)
(5.72632 0.0884859 0)
(6.9918 0.107822 0)
(8.21797 0.123919 0)
(9.28548 0.139309 0)
(9.89788 0.141966 0)
(9.87203 0.133103 0)
(9.14044 0.118603 0)
(8.0239 0.0999232 0)
(6.7413 0.0792186 0)
(5.43375 0.0613771 0)
(4.17699 0.0439183 0)
(3.01535 0.0238468 0)
(1.97043 0.0078636 0)
(1.07103 -0.00236875 0)
(0.294934 0.00406827 0)
(0.629661 0.00504196 0)
(1.5053 0.0294467 0)
(2.37663 0.0467252 0)
(3.3955 0.0611562 0)
(4.52351 0.0743087 0)
(5.74563 0.0955488 0)
(7.00687 0.118023 0)
(8.22875 0.138164 0)
(9.29797 0.154222 0)
(9.89542 0.159951 0)
(9.86428 0.150214 0)
(9.12217 0.136201 0)
(7.99857 0.116333 0)
(6.716 0.0943127 0)
(5.40055 0.0699663 0)
(4.13565 0.0496747 0)
(2.96713 0.0274965 0)
(1.92293 0.00611481 0)
(1.06829 -0.00400196 0)
(0.29063 0.0038549 0)
(0.676952 0.00682863 0)
(1.55872 0.0289913 0)
(2.40715 0.0513938 0)
(3.42965 0.0661246 0)
(4.5698 0.0834599 0)
(5.78568 0.108775 0)
(7.03966 0.133035 0)
(8.25641 0.153676 0)
(9.31489 0.175335 0)
(9.89265 0.180774 0)
(9.85143 0.171911 0)
(9.09887 0.154015 0)
(7.96543 0.131302 0)
(6.66648 0.104105 0)
(5.34928 0.0811103 0)
(4.08762 0.0570724 0)
(2.92308 0.0308771 0)
(1.87542 0.00763366 0)
(1.0696 -0.0015617 0)
(0.288 0.00347858 0)
(0.760397 0.00708121 0)
(1.67002 0.0323057 0)
(2.46991 0.0594131 0)
(3.48786 0.0744792 0)
(4.60791 0.0975805 0)
(5.81387 0.123096 0)
(7.06219 0.14627 0)
(8.27082 0.17044 0)
(9.32512 0.193798 0)
(9.88355 0.203451 0)
(9.83698 0.192441 0)
(9.07107 0.176656 0)
(7.92802 0.152151 0)
(6.63377 0.12397 0)
(5.3111 0.086863 0)
(4.04358 0.0589334 0)
(2.86964 0.0369009 0)
(1.82101 0.0119301 0)
(1.06213 0.0027724 0)
(0.277166 0.0031787 0)
(0.808386 0.00840465 0)
(1.73222 0.0295167 0)
(2.51271 0.0590835 0)
(3.54563 0.0832725 0)
(4.67555 0.113378 0)
(5.87204 0.143421 0)
(7.10784 0.168284 0)
(8.30485 0.195101 0)
(9.34283 0.22121 0)
(9.87722 0.229718 0)
(9.81576 0.220874 0)
(9.0361 0.199125 0)
(7.88566 0.168638 0)
(6.57575 0.130109 0)
(5.25295 0.0963621 0)
(3.99217 0.0606018 0)
(2.82851 0.0419967 0)
(1.77349 0.0133335 0)
(1.0519 0.00743547 0)
(0.261738 0.00268385 0)
(0.904393 0.00997358 0)
(1.85847 0.0366704 0)
(2.59439 0.072345 0)
(3.62227 0.0942857 0)
(4.723 0.136471 0)
(5.91678 0.164265 0)
(7.1449 0.192793 0)
(8.33224 0.222791 0)
(9.35722 0.250309 0)
(9.8652 0.259264 0)
(9.79571 0.246355 0)
(9.00348 0.223067 0)
(7.84372 0.187047 0)
(6.54097 0.148892 0)
(5.21198 0.10112 0)
(3.937 0.0646589 0)
(2.77451 0.0489958 0)
(1.71813 0.0137722 0)
(1.03271 0.0110049 0)
(0.236034 0.00241742 0)
(0.963716 0.0104325 0)
(1.93521 0.0350729 0)
(2.67552 0.0759306 0)
(3.71654 0.107213 0)
(4.81368 0.154856 0)
(5.99392 0.192885 0)
(7.20816 0.226548 0)
(8.37885 0.260685 0)
(9.38382 0.288951 0)
(9.86067 0.297061 0)
(9.77308 0.280891 0)
(8.96313 0.249741 0)
(7.79222 0.20445 0)
(6.4708 0.154315 0)
(5.13782 0.114148 0)
(3.86815 0.0718283 0)
(2.71574 0.0525307 0)
(1.67431 0.0103292 0)
(1.0175 0.0124025 0)
(0.214949 0.00235428 0)
(1.07605 0.0154266 0)
(2.07393 0.0448269 0)
(2.77202 0.0979408 0)
(3.79716 0.115512 0)
(4.87444 0.172555 0)
(6.05412 0.212157 0)
(7.25887 0.256733 0)
(8.42404 0.299915 0)
(9.40919 0.332603 0)
(9.85372 0.336931 0)
(9.75226 0.315456 0)
(8.92679 0.27673 0)
(7.74405 0.225428 0)
(6.42565 0.175342 0)
(5.08889 0.125216 0)
(3.80824 0.0822945 0)
(2.64035 0.0530304 0)
(1.62689 0.0100608 0)
(0.995033 0.0141405 0)
(0.182033 0.00288629 0)
(1.1805 0.0124187 0)
(2.206 0.0484118 0)
(2.9034 0.105743 0)
(3.91566 0.142461 0)
(4.99064 0.200563 0)
(6.14978 0.246066 0)
(7.33715 0.300003 0)
(8.48684 0.348383 0)
(9.44341 0.382887 0)
(9.85174 0.389784 0)
(9.72997 0.358689 0)
(8.8792 0.313678 0)
(7.67718 0.251608 0)
(6.33208 0.187573 0)
(4.98897 0.141466 0)
(3.71729 0.0903223 0)
(2.54585 0.0499616 0)
(1.58328 0.0102352 0)
(0.981389 0.0129107 0)
(0.157025 0.003908 0)
(1.29864 0.0223939 0)
(2.35977 0.0567765 0)
(3.02221 0.130574 0)
(4.01829 0.158158 0)
(5.08976 0.227313 0)
(6.24066 0.280936 0)
(7.40755 0.341877 0)
(8.54539 0.39794 0)
(9.47325 0.440083 0)
(9.84501 0.443267 0)
(9.69962 0.408983 0)
(8.82456 0.352746 0)
(7.60579 0.28526 0)
(6.26212 0.218526 0)
(4.92196 0.153977 0)
(3.64646 0.0934643 0)
(2.45829 0.046911 0)
(1.54563 0.00908544 0)
(0.963928 0.0148975 0)
(0.122132 0.0044425 0)
(1.48207 0.0186478 0)
(2.54913 0.0702256 0)
(3.19816 0.137547 0)
(4.15881 0.199207 0)
(5.22451 0.261742 0)
(6.34958 0.324802 0)
(7.49578 0.394873 0)
(8.62378 0.458511 0)
(9.50228 0.505161 0)
(9.83234 0.51353 0)
(9.66272 0.467429 0)
(8.75329 0.406141 0)
(7.51218 0.327663 0)
(6.14326 0.240241 0)
(4.7869 0.166361 0)
(3.53225 0.0981215 0)
(2.34841 0.0475127 0)
(1.50968 0.0117576 0)
(0.953947 0.0139463 0)
(0.0898813 0.00725252 0)
(1.6179 0.0289594 0)
(2.74443 0.0739927 0)
(3.3716 0.167111 0)
(4.31223 0.22341 0)
(5.37198 0.310471 0)
(6.47055 0.382733 0)
(7.59549 0.45916 0)
(8.69092 0.530453 0)
(9.5221 0.583449 0)
(9.8073 0.585795 0)
(9.603 0.538032 0)
(8.66014 0.46357 0)
(7.3998 0.370617 0)
(6.03293 0.277027 0)
(4.68732 0.183373 0)
(3.44015 0.10353 0)
(2.25669 0.046031 0)
(1.47301 0.0159576 0)
(0.938491 0.0196612 0)
(0.0460222 0.00921092 0)
(1.88351 0.027595 0)
(2.9896 0.09666 0)
(3.59702 0.17915 0)
(4.50451 0.267409 0)
(5.54779 0.359304 0)
(6.61042 0.4486 0)
(7.704 0.53508 0)
(8.78668 0.622941 0)
(9.54166 0.677224 0)
(9.77411 0.680543 0)
(9.53652 0.616582 0)
(8.5556 0.528515 0)
(7.27684 0.420962 0)
(5.8862 0.30366 0)
(4.52221 0.194751 0)
(3.28748 0.115379 0)
(2.15149 0.0526769 0)
(1.4477 0.0236866 0)
(0.910497 0.0232062 0)
(-0.0144551 0.0158835 0)
(2.06386 0.0380656 0)
(3.24486 0.0979683 0)
(3.83881 0.218928 0)
(4.70862 0.302062 0)
(5.74065 0.421688 0)
(6.76873 0.529379 0)
(7.83819 0.637487 0)
(8.87556 0.736586 0)
(9.55362 0.792628 0)
(9.73351 0.782228 0)
(9.45135 0.706119 0)
(8.4291 0.597618 0)
(7.12079 0.465743 0)
(5.7444 0.342031 0)
(4.39939 0.216635 0)
(3.17023 0.127355 0)
(2.06472 0.0565936 0)
(1.42158 0.0290336 0)
(0.893961 0.0314653 0)
(-0.0898985 0.0188612 0)
(2.42887 0.0408525 0)
(3.57154 0.134276 0)
(4.13664 0.24646 0)
(4.98637 0.373635 0)
(5.98026 0.506735 0)
(6.96348 0.642461 0)
(7.99215 0.759619 0)
(8.99415 0.877122 0)
(9.56902 0.926064 0)
(9.69276 0.909419 0)
(9.36241 0.806532 0)
(8.2975 0.675888 0)
(6.97608 0.515447 0)
(5.57274 0.359599 0)
(4.20921 0.242805 0)
(2.97902 0.136721 0)
(1.95602 0.0681427 0)
(1.3843 0.0495616 0)
(0.854494 0.0412555 0)
(-0.192439 0.0248406 0)
(2.68098 0.0592069 0)
(3.89891 0.143146 0)
(4.46099 0.311957 0)
(5.26796 0.447638 0)
(6.23503 0.61943 0)
(7.18062 0.770595 0)
(8.16981 0.91954 0)
(9.10377 1.04519 0)
(9.57202 1.0852 0)
(9.64197 1.04807 0)
(9.25488 0.917281 0)
(8.14029 0.749936 0)
(6.78346 0.563642 0)
(5.38429 0.402614 0)
(4.05622 0.258929 0)
(2.83547 0.142689 0)
(1.8927 0.0842472 0)
(1.37901 0.0643307 0)
(0.787239 0.0612626 0)
(-0.321338 0.039564 0)
(3.25004 0.0807578 0)
(4.36227 0.233162 0)
(4.86046 0.418574 0)
(5.63578 0.60625 0)
(6.54735 0.780717 -1.07308e-32)
(7.42777 0.958548 3.88526e-33)
(8.37419 1.11738 0)
(9.21611 1.24137 0)
(9.56567 1.26262 0)
(9.58698 1.21216 0)
(9.13649 1.03835 0)
(7.9659 0.844731 0)
(6.5808 0.628968 0)
(5.15926 0.430014 0)
(3.84066 0.272585 0)
(2.64444 0.135445 0)
(1.80194 0.0796766 0)
(1.35852 0.0698086 0)
(0.667891 0.0672561 0)
(-0.569604 0.0289328 0)
(3.80013 0.20837 -1.22567e-18)
(4.77676 0.322691 1.0199e-18)
(5.261 0.582822 0)
(5.99754 0.795587 -5.85158e-19)
(6.85991 1.00493 4.72767e-19)
(7.68595 1.1868 -4.12111e-33)
(8.59509 1.35706 0)
(9.29262 1.46625 -5.57011e-20)
(9.52891 1.47509 4.49379e-20)
(9.49273 1.40357 1.39709e-20)
(8.94784 1.19522 0)
(7.68609 0.963412 -2.9506e-19)
(6.26629 0.706372 -3.66922e-19)
(4.84538 0.454466 6.32137e-19)
(3.59686 0.27702 -5.17123e-19)
(2.43773 0.130161 0)
(1.7464 0.0722318 -1.94361e-19)
(1.35377 0.0471957 0)
(0.612516 0.0305099 -1.01787e-18)
(-0.726729 -0.0130704 1.1999e-18)
(4.13972 0.40435 9.90913e-20)
(5.17202 0.580516 -4.48199e-18)
(5.58454 0.857344 6.66998e-19)
(6.28084 1.05869 2.40775e-18)
(7.08727 1.25439 1.03839e-18)
(7.86189 1.4483 -1.64293e-18)
(8.72362 1.62692 0)
(9.2927 1.72685 0)
(9.44408 1.72982 -2.81704e-20)
(9.34188 1.63549 0)
(8.72296 1.39135 1.00355e-18)
(7.41579 1.10834 3.22626e-19)
(5.99358 0.794489 -3.79614e-20)
(4.61987 0.511254 -8.15529e-19)
(3.35084 0.279786 0)
(2.32903 0.139727 0)
(1.72465 0.0740823 -3.36398e-18)
(1.39665 0.0462517 8.71103e-18)
(0.81032 0.0383119 -5.14942e-18)
(-0.634914 -0.0603325 -6.06379e-18)
(4.36359 0.641459 4.17062e-18)
(5.41969 0.897448 -1.61163e-18)
(5.81874 1.12584 -5.81101e-19)
(6.47217 1.3162 -4.4407e-18)
(7.2359 1.53728 3.79364e-19)
(7.96738 1.73383 4.47891e-18)
(8.77467 1.92111 -1.26449e-18)
(9.24228 2.01035 0)
(9.33626 2.00254 -3.54189e-20)
(9.1835 1.8795 1.17427e-18)
(8.51868 1.58837 -2.85859e-18)
(7.18766 1.26458 1.52279e-18)
(5.76448 0.903567 -1.22843e-18)
(4.41107 0.595821 2.61343e-18)
(3.23019 0.371781 0)
(2.31694 0.209631 -9.95161e-19)
(1.77528 0.164376 0)
(1.49776 0.154811 5.3427e-18)
(0.868548 0.0640668 -1.26211e-17)
(-0.514728 -0.0724543 7.88713e-18)
(4.50424 0.876161 -1.71436e-17)
(5.62653 1.26003 8.89013e-18)
(6.00018 1.46648 1.55681e-18)
(6.6132 1.63467 0)
(7.33319 1.84073 2.95461e-18)
(8.01943 2.04245 -3.47702e-18)
(8.77402 2.22938 1.25885e-18)
(9.16937 2.3048 0)
(9.22052 2.28663 4.79436e-20)
(9.03116 2.13424 -7.54106e-19)
(8.34079 1.80129 2.94531e-18)
(6.99948 1.4308 0)
(5.61378 1.03285 -2.70481e-18)
(4.29673 0.694331 1.44092e-18)
(3.12373 0.436427 3.86888e-18)
(2.29918 0.258421 -3.44839e-18)
(1.83726 0.201621 5.41309e-18)
(1.58715 0.196176 -1.19491e-17)
(1.06955 0.137273 7.56098e-18)
(-0.288987 -0.0444748 -9.39272e-18)
(4.57603 1.10204 9.7636e-18)
(5.74515 1.57777 -9.27374e-18)
(6.10663 1.74072 5.0223e-18)
(6.68324 1.92205 -7.67748e-18)
(7.36777 2.15136 5.89911e-18)
(8.0237 2.3587 -1.34033e-18)
(8.73139 2.5405 7.21541e-20)
(9.06812 2.60455 1.09501e-18)
(9.08732 2.57231 -1.94235e-19)
(8.87184 2.39379 -2.08148e-18)
(8.16576 2.02339 -6.63172e-18)
(6.83268 1.60857 -2.52714e-18)
(5.47358 1.17304 -4.41789e-20)
(4.1821 0.811673 -5.7121e-18)
(3.1307 0.544381 -9.0506e-20)
(2.39764 0.374176 5.33145e-18)
(1.9883 0.344122 -1.65949e-18)
(1.7657 0.362942 -8.99635e-19)
(1.22125 0.221567 0)
(-0.189105 -0.0316371 2.16739e-17)
(4.59662 1.29001 0)
(5.80489 1.90427 2.61551e-18)
(6.17266 2.05464 0)
(6.71656 2.23361 -3.05381e-19)
(7.36696 2.46037 -6.58518e-18)
(7.99401 2.6705 2.70155e-18)
(8.65531 2.85303 -1.5268e-18)
(8.94326 2.90729 -1.42629e-18)
(8.93301 2.85619 -4.07789e-19)
(8.69373 2.6526 3.7238e-19)
(7.98476 2.24841 3.72362e-18)
(6.67459 1.78899 5.69883e-18)
(5.35715 1.31786 -3.67684e-18)
(4.1153 0.918999 6.46457e-18)
(3.0858 0.613951 -5.1858e-18)
(2.41278 0.464682 0)
(2.06792 0.415056 -1.29825e-17)
(1.84562 0.425262 1.73892e-17)
(1.35565 0.301675 1.34396e-18)
(0.0468986 0.0306017 -2.43294e-17)
(4.58822 1.45514 -3.51123e-19)
(5.83463 2.20536 -6.35285e-18)
(6.19696 2.30173 -2.22257e-17)
(6.69929 2.51173 1.35931e-17)
(7.32497 2.75631 -4.336e-18)
(7.92644 2.97744 3.01424e-18)
(8.54355 3.16246 -3.42631e-18)
(8.79401 3.20819 1.03166e-18)
(8.75905 3.13699 -8.33054e-19)
(8.49888 2.90531 -2.61655e-19)
(7.80067 2.46857 -4.66402e-18)
(6.52598 1.96599 -6.68398e-18)
(5.24694 1.45952 4.2507e-18)
(4.0599 1.03547 -2.39966e-18)
(3.16046 0.744899 5.93962e-18)
(2.59232 0.594269 0)
(2.29921 0.569756 -8.46549e-18)
(2.09037 0.597464 1.25532e-17)
(1.60099 0.443238 2.39054e-17)
(0.198018 0.104854 -2.79982e-17)
(4.53488 1.63577 -3.20259e-17)
(5.81839 2.46122 1.61969e-17)
(6.19789 2.56877 1.43395e-17)
(6.66794 2.79578 -1.45737e-17)
(7.26246 3.04269 3.3811e-19)
(7.8336 3.27229 6.81092e-18)
(8.4131 3.46334 1.40016e-18)
(8.63495 3.50464 1.71361e-19)
(8.58008 3.41422 -1.36787e-18)
(8.308 3.15484 1.89835e-18)
(7.62404 2.68496 4.10128e-18)
(6.39735 2.14487 1.04836e-17)
(5.16632 1.60581 0)
(4.04734 1.15645 2.35219e-19)
(3.17433 0.836268 -1.70986e-17)
(2.62466 0.721476 4.02774e-18)
(2.3608 0.70511 1.91473e-17)
(2.15953 0.739234 -5.62987e-18)
(1.7028 0.575269 1.19249e-17)
(0.282331 0.151867 -9.60162e-19)
(4.48605 1.81855 4.3008e-19)
(5.79685 2.7116 1.43221e-17)
(6.16494 2.78392 1.04178e-17)
(6.6003 3.0491 -2.41654e-17)
(7.17013 3.31578 1.76182e-17)
(7.72203 3.55739 -7.4414e-18)
(8.26762 3.75203 -1.50802e-18)
(8.46757 3.79051 -1.53965e-18)
(8.40252 3.68396 1.12579e-18)
(8.12318 3.4003 -3.75601e-18)
(7.45267 2.89887 0)
(6.27347 2.32699 -4.37176e-18)
(5.07462 1.75891 5.00807e-18)
(4.01212 1.29016 6.48969e-18)
(3.26606 1.0171 -3.81659e-18)
(2.82486 0.907313 -9.04303e-18)
(2.59738 0.887934 -2.7523e-18)
(2.37716 0.937245 -1.48604e-19)
(1.87075 0.717769 0)
(0.380282 0.215863 0)
(4.39699 1.9564 -1.45042e-17)
(5.74176 2.91234 0)
(6.1208 3.00123 1.13203e-17)
(6.5168 3.29143 -4.84835e-18)
(7.06821 3.57042 -1.8116e-17)
(7.60167 3.82399 5.11984e-18)
(8.11726 4.0254 -1.64624e-18)
(8.30131 4.06251 1.45897e-18)
(8.22961 3.94395 6.23546e-19)
(7.94501 3.64167 -2.24081e-18)
(7.28474 3.11178 2.55113e-18)
(6.15423 2.51297 1.41368e-17)
(5.00287 1.91935 4.45705e-19)
(4.0169 1.43397 -6.94445e-18)
(3.29585 1.14627 1.29455e-17)
(2.84173 1.06138 7.65728e-20)
(2.6313 1.04551 2.94861e-18)
(2.4477 1.08151 -1.45334e-17)
(1.96158 0.860423 1.48089e-17)
(0.413538 0.249311 -1.75029e-17)
(4.32831 2.10731 -9.37449e-21)
(5.68639 3.12634 0)
(6.04869 3.18545 0)
(6.41579 3.50273 4.72901e-18)
(6.95165 3.79963 6.68875e-18)
(7.47066 4.07282 -4.34982e-18)
(7.96023 4.28073 4.72332e-18)
(8.1305 4.3167 0)
(8.05588 4.18895 -1.49995e-18)
(7.7659 3.8735 5.93665e-18)
(7.11568 3.32069 8.79118e-18)
(6.03087 2.69904 -5.38375e-18)
(4.91323 2.08115 -6.63295e-18)
(3.98497 1.59578 1.5633e-17)
(3.37232 1.35351 -4.64245e-18)
(3.02261 1.26877 -5.51184e-18)
(2.82755 1.26301 -3.39043e-18)
(2.5893 1.30231 -1.61227e-17)
(2.03797 0.986668 2.25867e-18)
(0.419388 0.27977 1.92687e-17)
(4.23789 2.22771 -5.62039e-18)
(5.62312 3.31628 -8.64401e-18)
(5.97989 3.38789 4.91178e-19)
(6.30884 3.71096 -3.27829e-21)
(6.82821 4.01223 2.68664e-18)
(7.33428 4.29881 -9.88078e-18)
(7.80155 4.51541 0)
(7.96125 4.55233 -2.06313e-19)
(7.88367 4.41867 1.62759e-19)
(7.58828 4.09399 9.88376e-18)
(6.94861 3.5237 -1.9493e-18)
(5.90834 2.88428 2.4868e-18)
(4.83626 2.24568 0)
(3.97853 1.75998 -8.52679e-18)
(3.38219 1.50848 1.0519e-17)
(2.99888 1.43285 0)
(2.83229 1.40794 -7.45831e-18)
(2.63901 1.43769 2.18535e-17)
(2.0791 1.11073 2.65472e-18)
(0.406524 0.288706 -2.39247e-17)
(4.16339 2.34277 -1.18745e-17)
(5.54468 3.48758 1.46352e-17)
(5.88587 3.54916 0)
(6.19485 3.89212 1.08422e-17)
(6.70129 4.20181 0)
(7.19456 4.50547 9.93775e-18)
(7.64155 4.72959 0)
(7.79096 4.76863 0)
(7.71225 4.6315 -1.0247e-18)
(7.41202 4.30078 -9.78718e-18)
(6.78325 3.71778 -1.65625e-17)
(5.78126 3.0645 3.19284e-18)
(4.74028 2.40996 1.18553e-17)
(3.92901 1.9372 9.62798e-18)
(3.42696 1.72725 -3.39717e-17)
(3.14212 1.65502 -1.36533e-17)
(2.9635 1.62032 8.00318e-18)
(2.70284 1.63558 0)
(2.08043 1.20859 2.31385e-17)
(0.368142 0.293538 -2.63191e-17)
(4.08856 2.45757 1.27752e-17)
(5.47768 3.67853 -1.57327e-17)
(5.80245 3.74448 0)
(6.08417 4.07981 -3.45719e-19)
(6.57476 4.38538 -4.41875e-18)
(7.05775 4.69452 0)
(7.48458 4.92371 -1.03114e-18)
(7.62554 4.96622 6.21408e-19)
(7.5463 4.82873 -9.55212e-19)
(7.24234 4.49499 8.68356e-19)
(6.62145 3.90246 0)
(5.65138 3.23762 1.30342e-17)
(4.65206 2.57529 2.12384e-19)
(3.89839 2.10938 5.25097e-18)
(3.40703 1.89082 6.20014e-18)
(3.07528 1.81856 0)
(2.93066 1.75048 -1.3476e-17)
(2.72382 1.75357 2.65321e-17)
(2.06373 1.30068 -2.80914e-17)
(0.305375 0.277507 5.7821e-17)
(4.01236 2.55133 0)
(5.39086 3.82083 0)
(5.70659 3.88628 -8.45469e-18)
(5.97791 4.239 0)
(6.45719 4.55132 0)
(6.92734 4.87126 1.11577e-17)
(7.33291 5.10212 -1.08615e-18)
(7.46425 5.14621 7.68945e-19)
(7.38312 5.00876 7.53637e-20)
(7.07812 4.6756 0)
(6.46136 4.07626 -2.78964e-18)
(5.51688 3.40015 -1.0799e-17)
(4.55346 2.7384 -1.33074e-17)
(3.84287 2.29529 -5.41876e-18)
(3.4163 2.09882 6.86013e-18)
(3.17642 2.04614 -1.61208e-17)
(2.99155 1.97547 2.93065e-17)
(2.70613 1.91423 3.63415e-19)
(1.99562 1.35159 -2.64345e-17)
(0.22254 0.247551 -4.01505e-18)
(3.95639 2.65632 0)
(5.32392 4.00318 -1.15164e-17)
(5.62784 4.07187 9.40551e-18)
(5.87998 4.41162 0)
(6.34333 4.71847 0)
(6.80468 5.03845 -2.38849e-17)
(7.18865 5.26715 0)
(7.30983 5.31128 0)
(7.22562 5.17252 -2.52234e-18)
(6.92074 4.84219 2.22419e-18)
(6.30506 4.23955 -2.29647e-17)
(5.3829 3.55267 0)
(4.46101 2.89655 -1.44817e-17)
(3.80131 2.47861 3.2767e-19)
(3.36889 2.26743 -2.19279e-17)
(3.07261 2.19062 8.74671e-18)
(2.92628 2.09106 1.73231e-19)
(2.69613 2.00926 -3.16419e-17)
(1.8962 1.38452 1.40637e-17)
(0.126865 0.196073 4.33422e-18)
(3.88947 2.74906 0)
(5.23886 4.11755 -1.2783e-17)
(5.54344 4.18914 9.72366e-18)
(5.78705 4.55024 2.10689e-17)
(6.24138 4.86712 4.60318e-18)
(6.69105 5.19624 -2.72654e-18)
(7.05211 5.42206 2.15791e-18)
(7.16217 5.46391 -4.04649e-18)
(7.07358 5.3219 2.70315e-18)
(6.7674 4.99378 1.43732e-17)
(6.15322 4.39131 1.91479e-17)
(5.25509 3.69674 3.64306e-18)
(4.3679 3.05096 2.09209e-17)
(3.74422 2.66667 1.30055e-17)
(3.35158 2.4775 1.57734e-17)
(3.12512 2.41125 -9.61886e-18)
(2.94311 2.30909 -1.1578e-17)
(2.61437 2.15068 1.37068e-17)
(1.775 1.3721 -7.81012e-18)
(0.00152392 0.138442 1.43269e-17)
(3.85658 2.84626 1.7424e-17)
(5.18434 4.28861 2.03362e-17)
(5.47683 4.36047 5.05236e-18)
(5.70338 4.70472 7.19847e-20)
(6.14236 5.01739 -1.56602e-17)
(6.58403 5.34647 6.76554e-18)
(6.92329 5.56749 -2.31459e-18)
(7.02268 5.60618 2.06775e-20)
(6.93065 5.46003 -3.74774e-18)
(6.6197 5.13158 -1.60871e-17)
(6.01137 4.53277 1.19474e-18)
(5.13422 3.83341 0)
(4.28558 3.20416 0)
(3.68773 2.84661 -6.74633e-18)
(3.28319 2.65746 -2.54709e-17)
(2.99879 2.55052 2.07376e-17)
(2.83288 2.39573 1.25414e-17)
(2.53927 2.20608 0)
(1.60826 1.35193 2.54203e-17)
(-0.115704 0.0400231 -1.56604e-17)
(3.80359 2.94023 -9.10846e-18)
(5.10999 4.38608 7.61112e-18)
(5.40721 4.46154 -1.12442e-17)
(5.62494 4.82749 -1.26611e-17)
(6.05587 5.15008 -5.79305e-18)
(6.48635 5.48785 1.99259e-18)
(6.80312 5.70533 0)
(6.89262 5.74016 4.71441e-18)
(6.79619 5.58924 -3.02031e-20)
(6.47969 5.25785 0)
(5.88126 4.66494 0)
(5.0231 3.96273 2.47257e-18)
(4.20875 3.35808 3.41492e-18)
(3.62121 3.02867 -7.20659e-18)
(3.24204 2.85796 1.83269e-17)
(3.00555 2.76707 -2.23889e-17)
(2.80262 2.59697 -2.68476e-17)
(2.3978 2.29956 2.42514e-17)
(1.3506 1.23168 -9.47826e-18)
(-0.210516 -0.093852 5.62006e-18)
(3.7898 3.03206 1.01107e-17)
(5.06841 4.54188 0)
(5.35325 4.61914 0)
(5.55588 4.96665 -4.18471e-18)
(5.97247 5.28523 3.38098e-18)
(6.39518 5.62349 -1.83325e-19)
(6.69204 5.83657 -7.64751e-18)
(6.77319 5.86794 -5.84272e-18)
(6.67371 5.71238 6.61072e-18)
(6.35367 5.37766 -1.42336e-18)
(5.7639 4.78923 3.24187e-18)
(4.92556 4.08956 -2.13029e-17)
(4.1326 3.5079 -2.16991e-17)
(3.55842 3.20855 -3.79581e-18)
(3.16226 3.03935 0)
(2.85337 2.91285 -2.8684e-19)
(2.62548 2.66585 1.42142e-17)
(2.24337 2.26327 -2.62058e-17)
(1.235 1.14645 1.99209e-17)
(-0.217232 -0.399502 1.82767e-17)
(3.75531 3.12929 -2.07432e-17)
(5.00671 4.62855 -8.82032e-18)
(5.2984 4.708 7.89462e-20)
(5.4913 5.07741 4.97475e-18)
(5.90116 5.40601 0)
(6.31258 5.75277 1.64229e-17)
(6.58873 5.96398 9.33387e-18)
(6.66218 5.99304 -9.07005e-19)
(6.55881 5.83357 -3.18988e-18)
(6.23701 5.49652 -1.38322e-18)
(5.65268 4.9099 1.28026e-18)
(4.83315 4.21803 1.86314e-17)
(4.05555 3.66185 2.10552e-17)
(3.49563 3.39472 3.63936e-18)
(3.10686 3.24409 1.86372e-17)
(2.82383 3.13621 0)
(2.56029 2.88011 0)
(2.00278 2.35914 1.66863e-17)
(0.667894 0.871461 1.19419e-20)
(-0.0688518 0.494065 -1.83053e-17)
(3.75464 3.22145 1.10903e-17)
(4.9758 4.77364 2.70402e-17)
(5.25346 4.85447 -4.14724e-17)
(5.43255 5.20514 2.55784e-17)
(5.83002 5.53129 -3.18268e-18)
(6.23204 5.87921 2.02932e-17)
(6.48987 6.08841 0)
(6.55606 6.11657 5.69876e-18)
(6.44996 5.95462 0)
(6.12671 5.61668 1.64775e-17)
(5.5446 5.03055 -1.85829e-18)
(4.73967 4.34869 2.07823e-18)
(3.98146 3.82638 2.39146e-17)
(3.4357 3.59339 -7.84905e-18)
(3.02443 3.45924 -9.71371e-18)
(2.6566 3.33511 0)
(2.28963 3.01103 0)
(1.55884 2.22825 0)
(0.573323 1.36025 -9.26999e-18)
(0.234242 2.24957 -5.82636e-18)
(3.73022 3.31272 0)
(4.92264 4.85317 0)
(5.2093 4.93458 1.47509e-17)
(5.37781 5.30453 -2.14046e-17)
(5.76842 5.64114 1.49795e-17)
(6.15746 5.99812 -1.85985e-17)
(6.39548 6.20758 -9.11568e-19)
(6.45477 6.23632 7.11137e-19)
(6.34527 6.07301 7.92539e-19)
(6.02014 5.73487 -1.88366e-17)
(5.43883 5.14891 3.11816e-18)
(4.64857 4.47928 1.86241e-17)
(3.91475 3.99739 -2.38046e-17)
(3.38048 3.7981 -2.61847e-17)
(2.96985 3.69037 8.98054e-18)
(2.62443 3.58704 0)
(2.19133 3.21462 1.33128e-17)
(1.29628 2.32677 1.60788e-17)
(0.789646 2.23365 -1.83287e-17)
(0.557088 2.89579 2.18018e-17)
(3.73441 3.40291 0)
(4.90009 4.98452 2.11964e-17)
(5.17401 5.07263 -3.80552e-18)
(5.32777 5.42409 2.61211e-17)
(5.706 5.75569 -1.57343e-17)
(6.08397 6.11354 0)
(6.30404 6.32193 0)
(6.3572 6.35207 0)
(6.24483 6.18827 1.38716e-18)
(5.91712 5.85031 5.77891e-19)
(5.33612 5.26504 0)
(4.5622 4.61074 -1.84134e-17)
(3.85409 4.17172 0)
(3.33423 4.00919 1.87242e-17)
(2.91417 3.9261 -1.29194e-17)
(2.48983 3.80774 -1.03675e-17)
(1.87452 3.3058 -2.33803e-17)
(1.18433 2.70367 -1.49332e-17)
(0.823078 2.99973 -2.6007e-17)
(0.779299 3.33627 1.87671e-17)
(3.71386 3.48827 -7.15855e-18)
(4.85747 5.05522 2.25296e-19)
(5.13765 5.14114 -3.98123e-18)
(5.2803 5.51358 -2.06587e-17)
(5.65385 5.85734 0)
(6.01537 6.22203 0)
(6.21596 6.43123 0)
(6.26312 6.46348 -1.96746e-19)
(6.14664 6.29997 -2.03695e-18)
(5.81565 5.96248 0)
(5.23606 5.3787 0)
(4.48211 4.74348 0)
(3.80303 4.34872 0)
(3.29914 4.22118 1.41101e-17)
(2.88139 4.15944 3.51762e-17)
(2.46441 4.01897 1.09168e-17)
(1.90326 3.44741 2.32503e-17)
(1.49465 3.15748 -2.10647e-17)
(1.07901 3.57839 8.37086e-18)
(0.950212 3.70683 0)
(3.71497 3.56511 6.93724e-18)
(4.84081 5.17814 -4.24453e-17)
(5.1052 5.27171 -1.228e-17)
(5.23872 5.62882 -3.06436e-18)
(5.59912 5.96679 3.68067e-18)
(5.94427 6.32972 -2.55715e-17)
(6.12912 6.53774 1.70167e-18)
(6.17021 6.57171 8.32324e-18)
(6.04957 6.40891 0)
(5.71559 6.07203 -1.27931e-18)
(5.1392 5.49063 1.16607e-18)
(4.40846 4.87737 0)
(3.76104 4.52668 0)
(3.27924 4.43473 -1.76468e-17)
(2.87384 4.38774 3.31615e-18)
(2.43193 4.20457 -1.03338e-17)
(1.76758 3.64111 2.32496e-17)
(1.24522 3.63237 2.07273e-17)
(0.998515 3.9779 -3.53403e-17)
(0.919104 4.03994 1.85032e-17)
(3.6909 3.64218 1.29614e-17)
(4.79678 5.2459 3.94974e-17)
(5.07216 5.3427 1.49255e-17)
(5.19441 5.72257 0)
(5.54277 6.06885 0)
(5.87162 6.43719 1.93299e-17)
(6.03885 6.64268 -1.07442e-17)
(6.07391 6.67832 -7.72718e-18)
(5.9488 6.51642 -1.90098e-19)
(5.6132 6.1803 1.34332e-17)
(5.04338 5.60174 -2.21664e-17)
(4.34043 5.01278 0)
(3.73001 4.70514 0)
(3.27556 4.64408 -1.27768e-17)
(2.87883 4.60513 -1.63467e-17)
(2.41504 4.38452 0)
(1.85551 3.89779 -3.31947e-17)
(1.52382 4.0398 -6.21506e-18)
(1.35 4.45228 3.63443e-17)
(1.05692 4.46257 -1.9117e-17)
(3.68609 3.71564 -2.44731e-17)
(4.7727 5.37747 -1.87295e-17)
(5.02745 5.47904 0)
(5.13658 5.84278 0)
(5.47468 6.18368 0)
(5.7885 6.54697 0)
(5.94106 6.74699 1.13556e-17)
(5.97154 6.78335 -9.26065e-18)
(5.84273 6.62218 0)
(5.50822 6.28691 -1.20256e-17)
(4.94877 5.712 4.01315e-17)
(4.27784 5.14856 1.73764e-18)
(3.70809 4.88024 2.60854e-18)
(3.28387 4.8478 2.17113e-17)
(2.90183 4.81045 -1.44323e-17)
(2.4029 4.51062 0)
(1.94842 4.21757 1.07234e-17)
(1.50098 4.61155 6.31329e-19)
(1.10872 4.82311 -5.77415e-18)
(0.710575 4.90518 1.15687e-17)
(3.64316 3.79133 1.15453e-17)
(4.70662 5.44562 -1.78768e-17)
(4.971 5.5422 0)
(5.07125 5.93041 -4.74989e-18)
(5.40033 6.28501 1.7973e-17)
(5.69619 6.65172 0)
(5.83539 6.84881 0)
(5.86168 6.88571 1.66193e-17)
(5.73047 6.72557 -4.50899e-19)
(5.39975 6.39118 1.18311e-17)
(4.85487 5.82059 -1.90926e-17)
(4.21966 5.28333 1.27113e-17)
(3.69406 5.05018 0)
(3.30343 5.03752 -1.19276e-17)
(2.92921 4.9921 7.35839e-18)
(2.46713 4.73098 8.04057e-18)
(2.01376 4.53034 0)
(1.67262 4.90501 5.52616e-18)
(1.26025 5.48468 9.62431e-18)
(1.13048 5.66869 2.7913e-18)
(3.62676 3.86632 -2.16585e-17)
(4.66749 5.58568 2.55691e-17)
(4.90991 5.68751 1.9195e-17)
(4.99665 6.05451 -5.04453e-18)
(5.31208 6.39796 -2.7082e-17)
(5.59352 6.75747 0)
(5.72233 6.94908 8.96516e-18)
(5.74592 6.98594 -6.85034e-18)
(5.61369 6.82651 -4.49617e-19)
(5.28953 6.49253 -1.03105e-17)
(4.76234 5.9267 -9.08329e-19)
(4.16544 5.41523 -1.42399e-17)
(3.6858 5.21066 1.74197e-17)
(3.33039 5.21057 5.50384e-18)
(2.98611 5.16653 -1.28304e-17)
(2.4986 4.86048 1.41174e-17)
(2.23149 4.75615 0)
(1.88573 5.54603 0)
(1.64526 6.05873 2.36405e-18)
(0.503917 6.09309 -7.1765e-18)
(3.56717 3.94632 1.03043e-17)
(4.58154 5.65303 2.37534e-17)
(4.83779 5.7467 -1.86343e-17)
(4.9123 6.13883 1.82213e-17)
(5.2175 6.49632 2.58703e-17)
(5.48538 6.85972 0)
(5.60271 7.04666 -9.59646e-18)
(5.62491 7.08348 -8.34381e-18)
(5.49324 6.92422 0)
(5.178 6.58955 0)
(4.67165 6.0282 0)
(4.11509 5.54182 0)
(3.68045 5.35942 -1.98496e-17)
(3.36181 5.36003 -7.59927e-18)
(3.03451 5.29237 0)
(2.6306 5.04089 -7.15533e-18)
(2.4547 5.19094 0)
(2.47651 5.56758 -3.27681e-18)
(2.53736 5.523 4.36827e-18)
(1.39569 5.54014 -1.83825e-18)
(3.53606 4.03198 -1.94479e-17)
(4.52834 5.80988 -1.49765e-17)
(4.75936 5.90311 -1.1499e-17)
(4.81888 6.26684 -1.70034e-17)
(5.1149 6.61089 -1.20418e-17)