/*--------------------------------*- C++ -*----------------------------------*\
| =========                 |                                                 |
| \\      /  F ield         | OpenFOAM: The Open Source CFD Toolbox           |
|  \\    /   O peration     | Version:  2412                                  |
|   \\  /    A nd           | Website:  www.openfoam.com                      |
|    \\/     M anipulation  |                                                 |
\*---------------------------------------------------------------------------*/
FoamFile
{
    version     2.0;
    format      ascii;
    arch        "LSB;label=32;scalar=64";
    class       volScalarField;
    location    "6.75";
    object      p;
}
// * * * * * * * * * * * * * * * * * * * * * * * * * * * * * * * * * * * * * //

dimensions      [0 2 -2 0 0 0 0];

internalField   nonuniform List<scalar> 
2200
(
0.0630059
0.0631149
0.0638412
0.0670439
0.0755871
0.0945587
0.130679
0.192192
0.290624
0.434567
0.594751
0.727326
0.817868
0.875662
0.909059
0.927227
0.936454
0.940404
0.942
0.942307
0.0574389
0.057721
0.0592196
0.0633661
0.072772
0.0928413
0.129629
0.191236
0.289642
0.43494
0.596531
0.730018
0.820388
0.876924
0.909346
0.926627
0.934888
0.938096
0.938994
0.939145
0.0496262
0.0497088
0.051787
0.0573502
0.0690597
0.0907889
0.128761
0.193376
0.292991
0.438878
0.602284
0.737485
0.827613
0.882465
0.913844
0.929509
0.936722
0.939621
0.940263
0.940526
0.0394805
0.0393123
0.041499
0.0475905
0.0605428
0.0845777
0.126515
0.194923
0.297381
0.447855
0.613228
0.748945
0.839728
0.894124
0.92365
0.937581
0.944188
0.947334
0.948383
0.94874
0.0274457
0.0275342
0.0291468
0.0342054
0.0476433
0.0751691
0.120887
0.1917
0.298299
0.455792
0.626051
0.764088
0.856059
0.910324
0.93803
0.950824
0.956875
0.960262
0.961939
0.962291
0.00846779
0.00865704
0.00889756
0.0121934
0.025295
0.054127
0.103802
0.181133
0.297175
0.461966
0.639069
0.782783
0.874298
0.926341
0.953521
0.967637
0.975225
0.979821
0.982562
0.983192
-0.0189938
-0.0195205
-0.0195015
-0.0162267
-0.00502726
0.0213813
0.0722866
0.157774
0.287079
0.46606
0.652936
0.801295
0.895073
0.949151
0.978635
0.997236
1.00795
1.0132
1.01649
1.01759
-0.0438195
-0.0449227
-0.0440092
-0.0379525
-0.0277487
-0.00692955
0.0413519
0.12962
0.266336
0.46135
0.663884
0.822142
0.925489
0.988901
1.02542
1.04831
1.06074
1.06538
1.06884
1.07054
-0.0613497
-0.0625968
-0.0605982
-0.0533064
-0.0438311
-0.0252972
0.0205457
0.105366
0.243987
0.455489
0.677697
0.853336
0.972255
1.04866
1.097
1.12549
1.13964
1.14501
1.1467
1.14934
-0.0812222
-0.0824637
-0.0799893
-0.0722093
-0.0605922
-0.0373944
0.00755882
0.0892671
0.231406
0.458123
0.703355
0.903459
1.04463
1.14022
1.19972
1.23123
1.2464
1.25345
1.25411
1.25705
-0.111188
-0.112354
-0.110285
-0.103706
-0.0868767
-0.0525684
0.000348305
0.0869093
0.237735
0.478468
0.751527
0.98557
1.15145
1.2619
1.32572
1.35557
1.37018
1.37948
1.37942
1.38255
-0.160406
-0.16128
-0.159307
-0.153707
-0.130959
-0.0843842
-0.0161672
0.09257
0.266564
0.526199
0.831304
1.10379
1.28882
1.40181
1.46349
1.48979
1.50471
1.51641
1.51629
1.52014
-0.227745
-0.228811
-0.227244
-0.222443
-0.196889
-0.142519
-0.0528905
0.0918139
0.305526
0.603895
0.949768
1.25269
1.4462
1.554
1.60948
1.63875
1.65552
1.6683
1.66891
1.67161
-0.317313
-0.318025
-0.314839
-0.308882
-0.28132
-0.222289
-0.112999
0.0696671
0.334053
0.697174
1.09238
1.41443
1.61345
1.71802
1.77303
1.81008
1.82866
1.84126
1.84684
1.84937
-0.425745
-0.427142
-0.425849
-0.417504
-0.388786
-0.3307
-0.207924
0.00997978
0.33443
0.780185
1.23644
1.57969
1.78798
1.89816
1.96376
2.01053
2.03231
2.04523
2.05679
2.05908
-0.556133
-0.556724
-0.55546
-0.546247
-0.516536
-0.454899
-0.321287
-0.0829013
0.295853
0.830204
1.35953
1.73992
1.9741
2.11386
2.19699
2.25205
2.27996
2.29579
2.30803
2.30933
-0.701168
-0.703564
-0.704756
-0.694042
-0.65907
-0.588302
-0.441046
-0.188644
0.230696
0.838592
1.4559
1.91111
2.20256
2.38574
2.49213
2.55173
2.58384
2.60303
2.61467
2.61693
-0.859309
-0.86045
-0.861281
-0.85198
-0.814972
-0.734154
-0.5725
-0.29687
0.169778
0.843358
1.56043
2.12343
2.48846
2.71891
2.84829
2.90964
2.94683
2.96782
2.97971
2.98316
-1.05356
-1.05389
-1.05299
-1.04268
-0.997268
-0.896965
-0.714484
-0.394552
0.142263
0.899402
1.72908
2.41091
2.84998
3.11718
3.26096
3.32841
3.36992
3.39214
3.40352
3.40745
-1.29693
-1.29819
-1.29671
-1.2844
-1.23642
-1.1104
-0.884359
-0.4923
0.151818
1.03823
2.00236
2.78793
3.28564
3.57521
3.72773
3.80233
3.84491
3.86948
3.88322
3.88727
-1.61543
-1.61466
-1.61017
-1.59467
-1.53795
-1.39144
-1.10435
-0.605034
0.191355
1.25569
2.37267
3.24343
3.78445
4.07518
4.23501
4.32068
4.36846
4.39839
4.41347
4.41701
-2.03353
-2.0342
-2.02913
-2.0053
-1.93217
-1.74952
-1.39019
-0.753564
0.233837
1.51378
2.80665
3.75601
4.32088
4.61731
4.79204
4.89243
4.94444
4.97931
4.99566
4.99995
-2.57954
-2.57682
-2.56681
-2.53639
-2.43254
-2.19916
-1.74964
-0.968426
0.22809
1.74531
3.22678
4.26224
4.87336
5.22025
5.41566
5.52747
5.58704
5.62259
5.63843
5.64222
-3.29104
-3.28638
-3.26677
-3.20753
-3.05425
-2.73903
-2.16674
-1.22641
0.174654
1.90592
3.58518
4.77356
5.49101
5.90468
6.11156
6.22583
6.2861
6.32334
6.34448
6.34576
-4.25932
-4.23796
-4.18546
-4.06543
-3.8114
-3.35359
-2.60739
-1.46254
0.156088
2.10043
4.00899
5.39383
6.21804
6.66224
6.86358
6.97784
7.03464
7.06935
7.0937
7.09318
-5.53928
-5.48124
-5.3445
-5.10746
-4.69637
-4.04044
-3.05376
-1.61644
0.299488
2.5173
4.65779
6.18818
7.04571
7.48318
7.68413
7.79046
7.84237
7.86615
7.87989
7.88237
-7.18042
-6.99637
-6.66597
-6.23732
-5.63379
-4.74411
-3.46189
-1.67511
0.602489
3.17259
5.57454
7.21855
8.11369
8.55888
8.79295
8.89911
8.95403
8.98105
8.98742
8.98876
-9.0693
-8.5833
-8.02212
-7.41049
-6.58868
-5.42731
-3.83879
-1.7198
0.909002
3.84339
6.56993
8.39373
9.37676
9.90745
10.1953
10.3512
10.4457
10.5099
10.5483
10.5467
-10.7982
-10.1132
-9.37934
-8.58407
-7.52379
-6.09115
-4.21436
-1.7731
1.17827
4.43067
7.49041
9.56388
10.5744
11.2345
11.5871
11.7991
11.9344
12.0157
12.0709
12.0726
-12.1525
-11.3874
-10.5879
-9.65122
-8.39563
-6.72604
-4.56338
-1.77411
1.50094
5.05881
8.42107
10.6484
11.8235
12.5348
12.9429
13.187
13.3483
13.4651
13.5507
13.5628
-13.2859
-12.4286
-11.5732
-10.5268
-9.13924
-7.28057
-4.83665
-1.69784
1.89377
5.75225
9.3609
11.7148
13.0223
13.7689
14.2092
14.4925
14.6823
14.8016
14.886
14.8973
-14.1647
-13.2547
-12.3774
-11.247
-9.73919
-7.71555
-5.02902
-1.59297
2.28253
6.41656
10.2116
12.6898
14.096
14.8781
15.3487
15.6417
15.8378
15.9799
16.0863
16.1073
-14.9124
-13.8925
-13.0265
-11.8299
-10.2128
-8.05079
-5.15781
-1.50578
2.5907
6.95091
10.9115
13.5088
14.9962
15.8118
16.294
16.6182
16.8508
17.0249
17.159
17.1874
-15.4541
-14.3793
-13.5161
-12.2819
-10.5878
-8.29934
-5.23692
-1.44148
2.80945
7.34449
11.4604
14.1755
15.725
16.5741
17.093
17.4489
17.7038
17.894
18.0468
18.0751
-15.8516
-14.7464
-13.8842
-12.6178
-10.8557
-8.46131
-5.27699
-1.38791
2.96815
7.6338
11.8805
14.6974
16.2895
17.1822
17.7413
18.1293
18.4212
18.6377
18.7998
18.8303
-16.1517
-15.0326
-14.1447
-12.8188
-10.9971
-8.53891
-5.28508
-1.33799
3.08491
7.84704
12.1865
15.0826
16.7208
17.6654
18.2762
18.7059
19.0215
19.2594
19.4524
19.4774
-16.3982
-15.2728
-14.3119
-12.8948
-11.029
-8.53636
-5.26683
-1.29869
3.15951
7.99181
12.3908
15.3493
17.045
18.0617
18.727
19.2068
19.5583
19.7966
20.0105
20.0338
-16.6043
-15.4665
-14.4158
-12.9082
-10.9945
-8.4795
-5.22838
-1.2766
3.19532
8.07188
12.511
15.5234
17.2856
18.3872
19.1099
19.6302
20.0284
20.2878
20.5157
20.5396
-16.7572
-15.6056
-14.4763
-12.8871
-10.9374
-8.41081
-5.1822
-1.26732
3.20784
8.10225
12.5709
15.6358
17.4686
18.6507
19.4428
19.9972
20.4489
20.7341
20.9667
20.9976
-16.9011
-15.7199
-14.507
-12.8641
-10.8892
-8.35158
-5.13749
-1.25595
3.21618
8.10578
12.5948
15.7029
17.6013
18.8465
19.7176
20.3184
20.8314
21.1584
21.3918
21.4146
-17.0192
-15.8105
-14.5414
-12.8718
-10.872
-8.31511
-5.10036
-1.23166
3.23165
8.10999
12.5823
15.7278
17.6802
18.9878
19.9336
20.6161
21.152
21.518
21.7702
21.7964
-17.119
-15.8943
-14.5921
-12.912
-10.8885
-8.30942
-5.0746
-1.19698
3.25366
8.10422
12.5413
15.7012
17.6969
19.0757
20.0982
20.8577
21.4446
21.8562
22.1288
22.1453
-17.229
-15.9835
-14.6651
-12.9809
-10.9394
-8.33642
-5.06448
-1.16766
3.27207
8.07976
12.4629
15.6191
17.6446
19.1181
20.2224
21.0668
21.7184
22.1665
22.4583
22.4625
-17.3689
-16.1098
-14.7713
-13.0798
-11.0208
-8.3925
-5.07825
-1.16297
3.26714
8.02108
12.3445
15.4778
17.5523
19.0976
20.302
21.2431
21.9709
22.4694
22.7796
22.7623
-17.5371
-16.2617
-14.9175
-13.216
-11.1323
-8.47833
-5.13112
-1.2028
3.21461
7.91617
12.1875
15.2942
17.4113
19.0253
20.3283
21.3817
22.2188
22.7695
23.0481
23.0548
-17.7247
-16.4272
-15.0851
-13.3725
-11.2743
-8.6014
-5.23909
-1.30561
3.09746
7.76028
11.9923
15.0807
17.2342
18.9076
20.2956
21.4557
22.4192
23.0939
23.386
23.2727
-17.9704
-16.6261
-15.2668
-13.5431
-11.4417
-8.75903
-5.39747
-1.46844
2.91972
7.55848
11.7599
14.8361
17.017
18.7335
20.1847
21.442
22.5487
23.4146
23.8459
23.7928
-18.2242
-16.8553
-15.4863
-13.7387
-11.6233
-8.94143
-5.58936
-1.67396
2.69645
7.31761
11.4907
14.5499
16.7383
18.4724
19.9553
21.2679
22.454
23.4777
23.8662
23.7325
-18.4768
-17.0978
-15.7395
-13.9406
-11.8111
-9.13477
-5.79397
-1.89691
2.45442
7.05808
11.1979
14.2235
16.3906
18.1098
19.5823
20.8895
22.0478
22.8671
23.118
23.0794
-18.7266
-17.3316
-15.9487
-14.1168
-12.0132
-9.33045
-6.00376
-2.12537
2.20701
6.78779
10.8831
13.8542
15.9703
17.6403
19.0509
20.2617
21.2718
21.7834
21.935
21.9795
-18.9419
-17.5517
-16.1421
-14.3203
-12.2258
-9.52823
-6.21561
-2.35252
1.9601
6.50815
10.5437
13.44
15.4774
17.0604
18.3552
19.4044
20.2035
20.6223
20.7204
20.8626
-19.1472
-17.8193
-16.4377
-14.5956
-12.4391
-9.73923
-6.4272
-2.57809
1.71151
6.21395
10.1743
12.9805
14.9149
16.3709
17.5115
18.3944
19.0209
19.3224
19.3268
19.5787
-19.384
-18.0877
-16.723
-14.8408
-12.6538
-9.95031
-6.62919
-2.79707
1.46183
5.90351
9.7737
12.478
14.2882
15.5836
16.5467
17.2501
17.6507
17.8219
17.8563
18.1448
-19.5952
-18.2582
-16.8557
-14.9945
-12.852
-10.121
-6.80905
-2.99821
1.21795
5.58293
9.34966
11.9426
13.6146
14.7271
15.4934
16.0135
16.2323
16.1668
16.0061
16.1836
-19.7618
-18.4029
-16.9938
-15.1525
-12.9984
-10.2486
-6.96193
-3.17733
0.98281
5.25729
8.91191
11.3876
12.9187
13.8414
14.3912
14.7103
14.7297
14.1522
13.1931
13.2459
-19.9403
-18.5736
-17.1753
-15.3023
-13.0988
-10.3617
-7.08917
-3.33916
0.754841
4.92971
8.46856
10.8265
12.2277
12.9727
13.2859
13.3244
13.1379
12.072
9.85617
7.89061
-20.1428
-18.7116
-17.2645
-15.3693
-13.1797
-10.4544
-7.1981
-3.48733
0.534945
4.60808
8.03287
10.2806
11.5699
12.1678
12.2573
11.9677
11.4584
10.4408
6.70984
-3.15983
-20.2958
-18.8305
-17.3317
-15.4259
-13.2483
-10.5195
-7.29495
-3.62344
0.322882
4.29498
7.60463
9.74761
10.9413
11.4311
11.3535
10.835
10.1218
9.45651
8.86344
5.03757
-20.4637
-18.9862
-17.4599
-15.5198
-13.31
-10.5832
-7.38875
-3.76101
0.107165
3.97919
7.17492
9.22158
10.3392
10.7741
10.6685
10.2319
9.67649
9.6609
10.542
9.64276
-20.6435
-19.1436
-17.588
-15.6122
-13.3773
-10.6595
-7.4863
-3.90864
-0.116166
3.66072
6.75142
8.72021
9.79423
10.2484
10.2723
10.0766
9.82464
9.73422
10.1956
9.72622
-20.8134
-19.2928
-17.7052
-15.7016
-13.4546
-10.7383
-7.59286
-4.06732
-0.346497
3.34246
6.34265
8.2609
9.33309
9.86761
10.0949
10.0941
9.9147
9.68912
9.79264
9.73484
-20.9625
-19.4344
-17.8415
-15.8114
-13.5407
-10.8268
-7.70832
-4.2337
-0.5813
3.0288
5.95773
7.85839
8.97098
9.60305
9.95123
10.1036
9.99914
9.77936
9.89234
9.93164
-21.1206
-19.578
-17.9697
-15.9101
-13.6274
-10.9198
-7.82611
-4.40439
-0.816237
2.72438
5.60562
7.52173
8.69977
9.42121
9.84994
10.0919
10.1225
10.0113
10.1246
10.1595
-21.2367
-19.6917
-18.0732
-15.9937
-13.7015
-11.0106
-7.94395
-4.57353
-1.04754
2.43351
5.29197
7.25088
8.50471
9.30769
9.81286
10.1419
10.306
10.2996
10.3798
10.3905
-21.3208
-19.7741
-18.1537
-16.0342
-13.7603
-11.0902
-8.05207
-4.73682
-1.27127
2.16155
5.01887
7.04041
8.37453
9.25626
9.83527
10.2538
10.5382
10.6043
10.6608
10.672
-21.353
-19.8379
-18.1687
-16.0416
-13.8015
-11.1496
-8.14622
-4.89033
-1.48129
1.91401
4.78469
6.88001
8.30072
9.2692
9.91948
10.4059
10.7967
10.9228
10.9825
11.0044
-21.2846
-19.8338
-18.1521
-15.982
-13.8154
-11.1741
-8.21591
-5.02991
-1.6696
1.69526
4.58629
6.75837
8.27417
9.34472
10.0761
10.633
11.085
11.3286
11.4269
11.4565
-21.0874
-19.6962
-18.0365
-15.9421
-13.7971
-11.1391
-8.25875
-5.15414
-1.82803
1.50524
4.42219
6.6669
8.28199
9.45879
10.3062
10.9511
11.4796
11.8499
12.014
12.0574
-20.7258
-19.4506
-17.8221
-15.8365
-13.6762
-11.0528
-8.28886
-5.24525
-1.95857
1.34063
4.28544
6.59366
8.30826
9.60626
10.5774
11.3205
11.9233
12.3842
12.6108
12.6565
-20.2182
-19.0778
-17.5042
-15.5937
-13.4485
-10.9755
-8.27718
-5.28552
-2.06627
1.19143
4.16071
6.5241
8.3291
9.74203
10.8183
11.6347
12.2715
12.7494
13.0086
13.0676
-19.4946
-18.5313
-17.0276
-15.2212
-13.1855
-10.8442
-8.2142
-5.29143
-2.16508
1.04291
4.02016
6.42236
8.2855
9.76972
10.9012
11.7257
12.352
12.8293
13.1213
13.1994
-18.5832
-17.8368
-16.4862
-14.8164
-12.8929
-10.6548
-8.10928
-5.28467
-2.26251
0.879123
3.82972
6.23487
8.10311
9.57927
10.6924
11.4982
12.1173
12.6057
12.9223
13.0165
-17.5049
-17.0651
-15.9186
-14.385
-12.5756
-10.4333
-7.98692
-5.27624
-2.36467
0.681816
3.55594
5.8999
7.69561
9.0954
10.1675
10.9727
11.5974
12.0862
12.4112
12.5263
-16.6955
-16.5328
-15.4827
-14.0017
-12.2494
-10.192
-7.85344
-5.25984
-2.47709
0.432496
3.16721
5.375
7.05398
8.38232
9.43642
10.2433
10.8616
11.3366
11.6654
11.7985
-16.3709
-16.2905
-15.2205
-13.7293
-11.9944
-9.97921
-7.70812
-5.23353
-2.60927
0.119079
2.66385
4.71499
6.29989
7.57378
8.57934
9.34402
9.93253
10.389
10.7201
10.8831
-15.9975
-15.8591
-14.9732
-13.5184
-11.7374
-9.71374
-7.52267
-5.19463
-2.75311
-0.231145
2.1162
4.02425
5.49967
6.66608
7.55073
8.21459
8.72704
9.12505
9.4201
9.58642
-15.4563
-15.3752
-14.6801
-13.151
-11.3212
-9.32789
-7.25284
-5.09148
-2.84316
-0.521267
1.66044
3.43074
4.75853
5.77907
6.53925
7.08808
7.4884
7.7823
7.98338
8.09289
-14.5794
-14.6762
-14.0022
-12.3611
-10.5765
-8.73058
-6.83825
-4.87441
-2.83467
-0.713941
1.28652
2.88258
4.04655
4.92473
5.58766
6.044
6.35447
6.56255
6.68547
6.74347
-12.498
-12.6612
-12.1631
-10.7928
-9.34856
-7.8021
-6.18409
-4.49241
-2.70949
-0.834678
0.920018
2.28989
3.26862
3.99737
4.54782
4.9096
5.1428
5.28928
5.37167
5.4065
-9.31357
-9.37176
-9.10236
-8.43826
-7.56814
-6.47156
-5.24776
-3.91091
-2.44701
-0.880843
0.588497
1.73292
2.54377
3.13793
3.57777
3.8573
4.0342
4.14247
4.20193
4.22899
-5.91864
-5.96314
-5.91159
-5.73313
-5.41488
-4.86165
-4.11379
-3.16677
-2.06264
-0.841693
0.337816
1.27526
1.93657
2.40997
2.75269
2.96881
3.10624
3.19274
3.24479
3.27113
-3.22834
-3.26733
-3.31238
-3.36668
-3.37533
-3.23418
-2.90639
-2.34833
-1.59633
-0.707732
0.196685
0.9411
1.46646
1.83106
2.09673
2.2726
2.38954
2.46859
2.52039
2.55186
-1.4995
-1.52469
-1.57318
-1.66848
-1.77512
-1.82305
-1.77097
-1.53505
-1.09289
-0.495419
0.160345
0.727631
1.13392
1.41088
1.62226
1.77099
1.8749
1.94757
1.99057
2.0112
-0.47916
-0.514557
-0.584698
-0.672349
-0.756047
-0.817709
-0.865184
-0.816582
-0.621438
-0.250065
0.199531
0.615674
0.926862
1.14078
1.31359
1.43751
1.52422
1.58579
1.61905
1.63279
0.010817
-0.0226083
-0.106518
-0.19767
-0.256472
-0.288977
-0.320129
-0.314002
-0.234267
-0.0176762
0.278352
0.576456
0.816306
0.984983
1.12713
1.22479
1.29013
1.33814
1.35992
1.36741
0.197994
0.172898
0.0934729
-0.0056712
-0.0679282
-0.0922816
-0.0944215
-0.0568422
0.00965484
0.158787
0.359654
0.576182
0.762691
0.892042
1.00881
1.08124
1.12327
1.15437
1.16731
1.17128
0.240295
0.224239
0.161733
0.0754062
0.00997975
-0.0261827
-0.0279427
0.0283391
0.111475
0.251477
0.410938
0.579397
0.729737
0.81939
0.913494
0.96478
0.98364
0.997164
1.00265
1.00426
0.228298
0.218295
0.177872
0.122023
0.0710886
0.0231921
0.00256223
0.0427055
0.127302
0.267475
0.420017
0.559365
0.689147
0.73914
0.805567
0.839344
0.844739
0.84831
0.847219
0.846993
0.216616
0.210161
0.185443
0.152754
0.120704
0.0758819
0.044376
0.0589884
0.121318
0.24835
0.393527
0.49978
0.619391
0.636087
0.671511
0.691432
0.695421
0.699799
0.696265
0.696564
0.218702
0.215617
0.199288
0.17937
0.163022
0.132337
0.106635
0.107033
0.139553
0.226844
0.339872
0.407315
0.51205
0.514602
0.530584
0.540475
0.547855
0.5554
0.553194
0.554881
0.226129
0.225542
0.216813
0.206996
0.205054
0.194224
0.181867
0.177502
0.174952
0.211086
0.281655
0.316011
0.3876
0.394032
0.412201
0.419851
0.424081
0.429227
0.427978
0.429816
0.236362
0.236406
0.233039
0.230932
0.238418
0.238944
0.239104
0.237214
0.208799
0.209335
0.242246
0.25883
0.289427
0.304235
0.32682
0.334697
0.334916
0.335524
0.331602
0.332081
0.252442
0.251272
0.246895
0.243098
0.246431
0.243038
0.244322
0.24833
0.231313
0.227017
0.234266
0.234373
0.248101
0.257761
0.270181
0.273998
0.27084
0.268487
0.261374
0.260218
0.265706
0.263349
0.254021
0.242478
0.233147
0.216506
0.212119
0.217955
0.2245
0.236169
0.2371
0.229489
0.237928
0.236403
0.235783
0.23129
0.222101
0.215969
0.205583
0.203124
0.261612
0.259238
0.246956
0.231565
0.215633
0.191658
0.181277
0.182978
0.190675
0.209844
0.219501
0.217679
0.223463
0.214924
0.204737
0.195425
0.181561
0.173112
0.160456
0.157224
0.233685
0.232067
0.221698
0.209987
0.199521
0.181025
0.169036
0.161265
0.154289
0.165131
0.178844
0.183544
0.186106
0.177054
0.165478
0.157768
0.143479
0.136449
0.124643
0.121779
0.195278
0.194184
0.18797
0.182713
0.179719
0.169147
0.162008
0.148857
0.132926
0.1311
0.136152
0.13931
0.138183
0.132502
0.123276
0.1194
0.107551
0.104182
0.0950013
0.0927022
0.161368
0.160498
0.156577
0.153779
0.152916
0.146146
0.143808
0.134706
0.123061
0.113879
0.107654
0.104934
0.100472
0.0964981
0.0892928
0.0875292
0.0778643
0.0763088
0.0694467
0.0675676
0.131782
0.130939
0.127501
0.124279
0.121446
0.114605
0.113052
0.1106
0.105743
0.100887
0.0896929
0.0828007
0.0761433
0.0727912
0.0647743
0.0642328
0.0557369
0.0546663
0.0488307
0.0469569
0.100395
0.0989846
0.0956466
0.0923345
0.0879728
0.0817383
0.0785791
0.0778364
0.0733972
0.0779055
0.0691698
0.0641223
0.0568977
0.0555258
0.0463839
0.0465637
0.0381733
0.0371057
0.0320001
0.0298674
0.0620088
0.0608999
0.058846
0.0572926
0.0528517
0.049979
0.0449487
0.0445944
0.037231
0.0461871
0.0410171
0.041956
0.0360266
0.0368909
0.0274272
0.0294464
0.0206266
0.02118
0.017736
0.0161052
0.0237028
0.0236904
0.0229585
0.0222463
0.0162123
0.0187137
0.0122755
0.0157017
0.00770093
0.0150942
0.0100439
0.0153414
0.0102665
0.0137096
0.00608779
0.0107034
0.00434579
0.00611944
0.00475028
0.0037015
13.2674
17.4145
18.4584
19.7861
20.859
21.8061
22.6232
23.2887
23.6938
23.7701
17.7355
19.7368
20.3869
21.2218
21.9394
22.5478
23.0421
23.405
23.5899
23.5666
20.1053
21.0906
21.5853
22.0986
22.5449
22.9193
23.2106
23.4144
23.5166
23.5291
21.4075
22.0156
22.3315
22.6504
22.9157
23.1346
23.3017
23.4159
23.4796
23.5062
22.2624
22.5724
22.7669
22.9587
23.1217
23.2565
23.3595
23.4309
23.4706
23.5006
22.7247
22.9325
23.0399
23.1641
23.2625
23.3436
23.4086
23.4577
23.4886
23.5141
23.0265
23.1617
23.2147
23.2952
23.3606
23.4158
23.4608
23.4966
23.5203
23.5444
23.226
23.3097
23.3508
23.4026
23.4481
23.4869
23.5195
23.5462
23.5658
23.5863
23.3768
23.433
23.4638
23.4953
23.5271
23.5552
23.5783
23.5994
23.6155
23.6353
23.5038
23.538
23.5615
23.5825
23.6032
23.623
23.6409
23.6586
23.6724
23.6911
23.6127
23.6335
23.651
23.6652
23.6807
23.6961
23.7102
23.7247
23.7349
23.7521
23.708
23.7215
23.7377
23.7522
23.7654
23.7774
23.7877
23.7969
23.8012
23.8123
23.8029
23.8151
23.8299
23.8408
23.8492
23.8565
23.8636
23.8698
23.8706
23.8786
23.9032
23.9081
23.9172
23.9223
23.9259
23.9307
23.9367
23.9441
23.9485
23.958
24.0179
24.0043
23.9966
23.9911
23.9885
23.9901
23.9972
24.0107
24.0249
24.054
24.14
24.0846
24.0538
24.0361
24.0279
24.0279
24.0364
24.0554
24.0869
24.1565
)
;

boundaryField
{
    wall-4
    {
        type            zeroGradient;
    }
    pressure-outlet-7
    {
        type            fixedValue;
        value           uniform 0;
    }
    velocity-inlet-6
    {
        type            zeroGradient;
    }
    velocity-inlet-5
    {
        type            zeroGradient;
    }
    frontAndBackPlanes
    {
        type            empty;
    }
}


// ************************************************************************* //
