/*--------------------------------*- C++ -*----------------------------------*\
| =========                 |                                                 |
| \\      /  F ield         | OpenFOAM: The Open Source CFD Toolbox           |
|  \\    /   O peration     | Version:  2412                                  |
|   \\  /    A nd           | Website:  www.openfoam.com                      |
|    \\/     M anipulation  |                                                 |
\*---------------------------------------------------------------------------*/
FoamFile
{
    version     2.0;
    format      ascii;
    arch        "LSB;label=32;scalar=64";
    class       surfaceScalarField;
    location    "6.75";
    object      phi;
}
// * * * * * * * * * * * * * * * * * * * * * * * * * * * * * * * * * * * * * //

dimensions      [0 3 -1 0 0 0 0];

oriented        oriented;

internalField   nonuniform List<scalar> 
4262
(
-0.000293486
0.220806
-0.00178279
0.830143
-0.00344594
1.76881
-0.00521239
3.16693
-0.00743251
5.18682
-0.00940041
8.01633
-0.0110477
11.8488
-0.0126767
16.8214
-0.0148947
22.884
-0.0153308
29.5288
-0.0147565
29.5278
-0.0125016
22.8796
-0.0108729
16.8181
-0.00923826
11.8455
-0.00754027
8.01267
-0.00598768
5.18305
-0.00462532
3.1638
-0.00397735
1.7665
-0.00303016
0.827706
0.217483
-0.00244154
0.223248
-0.00570093
0.833402
-0.0101845
1.77329
-0.0154132
3.17216
-0.0227618
5.19417
-0.0292177
8.02279
-0.0354228
11.855
-0.0419403
16.8279
-0.0467239
22.8888
-0.0444784
29.5265
-0.0407626
29.5241
-0.0364239
22.8752
-0.0318816
16.8136
-0.0253995
11.839
-0.0203238
8.00759
-0.0162254
5.17895
-0.0116999
3.15928
-0.00819823
1.76299
-0.00364165
0.823149
0.213841
-0.00542702
0.228675
-0.0107228
0.838698
-0.0184228
1.78099
-0.0278667
3.18161
-0.0375189
5.20382
-0.0468771
8.03215
-0.0565111
11.8646
-0.0637558
16.8351
-0.0735989
22.8987
-0.0730077
29.526
-0.068244
29.5193
-0.0601063
22.8671
-0.0498311
16.8033
-0.0407863
11.83
-0.0311252
7.99793
-0.0230132
5.17084
-0.0159432
3.15221
-0.00806292
1.75511
-0.0013821
0.816469
0.212459
-0.00978393
0.238459
-0.0189493
0.847863
-0.0306363
1.79268
-0.043974
3.19494
-0.0557019
5.21555
-0.0664427
8.04289
-0.0800646
11.8782
-0.0899075
16.845
-0.101109
22.9099
-0.0979892
29.5228
-0.0907025
29.512
-0.0804679
22.8569
-0.0657821
16.7886
-0.0527064
11.8169
-0.0392137
7.98444
-0.0280221
5.15965
-0.0179903
3.14218
-0.0085724
1.7457
-0.000325127
0.808221
0.212134
-0.0143232
0.252782
-0.026477
0.860017
-0.0416413
1.80784
-0.0581062
3.21141
-0.0752044
5.23265
-0.0894759
8.05716
-0.103484
11.8923
-0.114549
16.856
-0.128801
22.9241
-0.125549
29.5196
-0.116422
29.5029
-0.102161
22.8426
-0.0815029
16.7679
-0.063058
11.7985
-0.0455656
7.96694
-0.0319713
5.14605
-0.0205855
3.13079
-0.0110389
1.73615
-0.000714777
0.797897
0.211419
-0.0141796
0.266961
-0.0282446
0.874082
-0.0478548
1.82745
-0.0711624
3.23472
-0.0951545
5.25664
-0.112526
8.07453
-0.126408
11.9061
-0.141379
16.871
-0.155351
22.9381
-0.150201
29.5144
-0.138583
29.4913
-0.11841
22.8224
-0.0950105
16.7445
-0.0696997
11.7731
-0.049699
7.94694
-0.0340621
5.13042
-0.0206947
3.11742
-0.0108484
1.7263
-0.00165985
0.788709
0.209759
-0.0131606
0.280122
-0.0336626
0.894584
-0.058843
1.85263
-0.0849113
3.26078
-0.111806
5.28354
-0.139942
8.10267
-0.156512
11.9227
-0.171554
16.8861
-0.1854
22.9519
-0.178231
29.5073
-0.162793
29.4758
-0.13492
22.7945
-0.105765
16.7154
-0.0764137
11.7438
-0.0544481
7.92498
-0.0361031
5.11207
-0.0212807
3.1026
-0.00962198
1.71464
-0.00353365
0.78262
0.206225
-0.0178639
0.297986
-0.0502972
0.927017
-0.0765892
1.87892
-0.100655
3.28485
-0.128261
5.31114
-0.157861
8.13227
-0.182555
11.9474
-0.204105
16.9076
-0.219049
22.9669
-0.204888
29.4931
-0.181009
29.4519
-0.148588
22.7621
-0.118892
16.6857
-0.0874909
11.7124
-0.0625351
7.90002
-0.0387062
5.08824
-0.0186982
3.08259
-0.00456795
1.70051
-0.00321231
0.781265
0.203013
-0.0251764
0.323162
-0.0646744
0.966515
-0.0882415
1.90249
-0.112328
3.30894
-0.139738
5.33855
-0.174295
8.16682
-0.206604
11.9797
-0.234844
16.9358
-0.253352
22.9854
-0.236323
29.4761
-0.207117
29.4227
-0.171473
22.7265
-0.138667
16.6529
-0.102761
11.6765
-0.070197
7.86746
-0.0398619
5.05791
-0.0134591
3.05619
0.00797797
1.67908
0.00150593
0.787737
0.204519
-0.030793
0.353955
-0.0780969
1.01382
-0.0999721
1.92437
-0.126143
3.33511
-0.157829
5.37024
-0.191581
8.20057
-0.229122
12.0173
-0.263266
16.97
-0.289558
23.0117
-0.269716
29.4562
-0.234541
29.3876
-0.196257
22.6882
-0.159119
16.6158
-0.121969
11.6393
-0.0832256
7.82872
-0.0464369
5.02112
-0.0140252
3.02378
0.0158398
1.64921
0.00526629
0.79831
0.209785
-0.0337122
0.387667
-0.0842847
1.06439
-0.108414
1.9485
-0.14091
3.3676
-0.175753
5.40508
-0.213424
8.23825
-0.254208
12.058
-0.289804
17.0056
-0.323126
23.045
-0.307124
29.4402
-0.276135
29.3566
-0.235735
22.6478
-0.190182
16.5702
-0.140875
11.59
-0.0929963
7.78084
-0.0542988
4.98242
-0.0208371
2.99032
0.0130517
1.61532
0.00399629
0.807366
0.213782
-0.0345535
0.422221
-0.0878362
1.11767
-0.118437
1.9791
-0.163442
3.41261
-0.20683
5.44847
-0.247491
8.27891
-0.287182
12.0977
-0.324107
17.0425
-0.359887
23.0808
-0.349027
29.4294
-0.317138
29.3247
-0.268679
22.5993
-0.210806
16.5123
-0.155834
11.5351
-0.104497
7.7295
-0.0587732
4.9367
-0.024943
2.95649
0.0071332
1.58325
0.00103766
0.813461
0.214819
-0.0379657
0.460187
-0.0982631
1.17797
-0.136675
2.01751
-0.189029
3.46496
-0.233167
5.49261
-0.283074
8.32881
-0.329122
12.1438
-0.36977
17.0832
-0.403163
23.1142
-0.394358
29.4206
-0.365356
29.2957
-0.307563
22.5415
-0.235629
16.4404
-0.165401
11.4648
-0.108033
7.67213
-0.0608938
4.88956
-0.0294428
2.92504
0.000283763
1.55352
-0.00261783
0.816363
0.212201
-0.0375911
0.497778
-0.0965369
1.23692
-0.147468
2.06844
-0.213236
3.53073
-0.275411
5.55478
-0.337639
8.39104
-0.389927
12.1961
-0.431329
17.1246
-0.465512
23.1484
-0.449835
29.4049
-0.40737
29.2532
-0.329691
22.4639
-0.245444
16.3561
-0.172387
11.3918
-0.118096
7.61784
-0.0670727
4.83854
-0.0265985
2.88456
-0.000241026
1.52716
-0.00343768
0.819559
0.208764
-0.0483792
0.546157
-0.119824
1.30836
-0.180782
2.1294
-0.242181
3.59213
-0.312347
5.62495
-0.384941
8.46363
-0.44943
12.2606
-0.502348
17.1775
-0.536207
23.1822
-0.509593
29.3783
-0.446391
29.19
-0.359537
22.377
-0.270146
16.2668
-0.186696
11.3083
-0.121559
7.55271
-0.0728086
4.78979
-0.0222377
2.83399
-0.000543272
1.50547
-0.00377509
0.822791
0.204989
-0.0487671
0.594924
-0.124343
1.38394
-0.201515
2.20657
-0.274092
3.66471
-0.359854
5.71071
-0.44667
8.55045
-0.527198
12.3411
-0.596094
17.2464
-0.630551
23.2167
-0.583927
29.3316
-0.491004
29.0971
-0.384919
22.2709
-0.284998
16.1668
-0.19948
11.2228
-0.126752
7.47998
-0.068262
4.7313
-0.00560111
2.77133
0.00840544
1.49146
-0.00101627
0.832213
0.203972
-0.0686153
0.663539
-0.165889
1.48121
-0.254087
2.29477
-0.329364
3.73999
-0.426031
5.80738
-0.517968
8.64239
-0.60788
12.431
-0.689466
17.328
-0.727731
23.2549
-0.668383
29.2723
-0.563318
28.992
-0.441099
22.1487
-0.329595
16.0553
-0.223238
11.1164
-0.124272
7.38101
-0.0592855
4.66631
0.00277282
2.70927
0.0102872
1.48395
-0.00166129
0.844161
0.202311
-0.071602
0.735141
-0.178374
1.58798
-0.292413
2.40881
-0.393654
3.84123
-0.507076
5.9208
-0.60735
8.74266
-0.706228
12.5299
-0.801077
17.4228
-0.839312
23.2932
-0.770568
29.2036
-0.652506
28.874
-0.507176
22.0034
-0.362982
15.9111
-0.237946
10.9914
-0.128053
7.27112
-0.0507145
4.58897
0.0138785
2.64468
0.0168494
1.48098
0.000356196
0.860655
0.202667
-0.0923188
0.82746
-0.213825
1.70949
-0.336425
2.53141
-0.445354
3.95015
-0.575026
6.05047
-0.691827
8.85946
-0.809986
12.648
-0.917204
17.53
-0.958521
23.3345
-0.886397
29.1314
-0.75717
28.7447
-0.59271
21.8389
-0.422361
15.7408
-0.267505
10.8366
-0.13572
7.13933
-0.0464148
4.49966
0.0183407
2.57992
0.0151955
1.48412
-0.00297688
0.878827
0.19969
-0.0971152
0.924575
-0.235034
1.84741
-0.383066
2.67944
-0.523693
4.09078
-0.6711
6.19788
-0.807733
8.99609
-0.941106
12.7814
-1.06749
17.6564
-1.10736
23.3744
-1.0302
29.0543
-0.880919
28.5955
-0.681441
21.6394
-0.473512
15.5329
-0.303034
10.6661
-0.164022
7.00032
-0.0525641
4.38821
0.00959338
2.51777
0.00925121
1.48446
-0.00716562
0.895244
0.192525
-0.116283
1.04086
-0.267392
1.99852
-0.431361
2.84341
-0.585063
4.24448
-0.755901
6.36872
-0.926482
9.16668
-1.09343
12.9483
-1.24374
17.8067
-1.28374
23.4144
-1.19018
28.9607
-1.00548
28.4108
-0.774707
21.4087
-0.548248
15.3064
-0.349882
10.4677
-0.187647
6.83809
-0.0555404
4.2561
0.00633065
2.4559
-0.00410621
1.4949
-0.0185119
0.909649
0.174013
-0.130344
1.1712
-0.302064
2.17024
-0.489393
3.03074
-0.683666
4.43876
-0.885415
6.57047
-1.09917
9.38043
-1.30509
13.1543
-1.47427
17.9759
-1.50359
23.4437
-1.38578
28.8429
-1.15633
28.1813
-0.878143
21.1305
-0.608287
15.0365
-0.376034
10.2355
-0.207324
6.66938
-0.0670986
4.11587
-0.00828839
2.39709
-0.0122714
1.49888
-0.0303682
0.927746
0.143645
-0.153171
1.32437
-0.350296
2.36736
-0.572898
3.25334
-0.80573
4.67159
-1.0588
6.82354
-1.32652
9.64816
-1.55765
13.3854
-1.75073
18.169
-1.75713
23.4501
-1.59804
28.6838
-1.31195
27.8952
-0.980342
20.7989
-0.675893
14.7321
-0.413163
9.97273
-0.223134
6.47935
-0.0689893
3.96173
-0.0178663
2.34596
-0.0305974
1.51161
-0.0442918
0.941441
0.0993528
-0.185397
1.50977
-0.414506
2.59647
-0.676151
3.51498
-0.97436
4.9698
-1.29291
7.14208
-1.60518
9.96043
-1.87506
13.6553
-2.07869
18.3726
-2.05394
23.4253
-1.85089
28.4808
-1.5005
27.5448
-1.11007
20.4084
-0.744418
14.3664
-0.443248
9.67156
-0.236834
6.27294
-0.0918711
3.81677
-0.0543969
2.30849
-0.0738335
1.53105
-0.0644195
0.932027
0.0349333
-0.236121
1.74589
-0.500292
2.86064
-0.852072
3.86676
-1.22949
5.34721
-1.5974
7.50999
-1.95019
10.3132
-2.24869
13.9538
-2.44203
18.5659
-2.37561
23.3589
-2.12837
28.2335
-1.72542
27.1419
-1.25986
19.9429
-0.848906
13.9555
-0.512677
9.33533
-0.265897
6.02615
-0.109275
3.66015
-0.0764981
2.27571
-0.105932
1.56049
-0.0954459
0.92154
-0.0605126
-0.360294
2.10619
-0.758366
3.25871
-1.16864
4.27703
-1.57895
5.75753
-1.98874
7.91979
-2.37613
10.7006
-2.69587
14.2735
-2.84481
18.7149
-2.73849
23.2526
-2.45028
27.9453
-1.96917
26.6608
-1.44129
19.415
-0.943538
13.4577
-0.563437
8.95523
-0.28007
5.74279
-0.122702
3.50278
-0.106004
2.25901
-0.13557
1.59005
-0.108727
0.894697
-0.169239
-0.285712
2.3919
-0.639677
3.61268
-0.988936
4.62629
-1.38379
6.15238
-1.81017
8.34617
-2.23876
11.1292
-2.65398
14.6887
-2.87852
18.9394
-2.88647
23.2606
-2.67212
27.731
-2.15598
26.1446
-1.52655
18.7856
-0.946918
12.8781
-0.479829
8.48814
-0.117208
5.38017
0.0113125
3.37426
0.0214575
2.24887
-0.0100754
1.62158
-0.0465703
0.931192
-0.21581
-0.173011
2.56491
-0.410633
3.8503
-0.697443
4.9131
-1.00851
6.46344
-1.32066
8.65833
-1.62163
11.4302
-1.90759
14.9747
-2.01506
19.0469
-1.94382
23.1893
-1.64982
27.437
-1.13891
25.6337
-0.609248
18.2559
-0.179942
12.4488
0.176547
8.13165
0.391635
5.16508
0.4163
3.34959
0.335249
2.32992
0.194255
1.76258
0.0752025
1.05024
-0.140607
-0.126337
2.69125
-0.278497
4.00246
-0.491114
5.12572
-0.721874
6.6942
-0.952574
8.88903
-1.1593
11.6369
-1.33965
15.155
-1.35994
19.0672
-1.22747
23.0568
-0.895588
27.1051
-0.418778
25.1569
-0.0126705
17.8498
0.32373
12.1124
0.541678
7.9137
0.577042
5.12971
0.484259
3.44237
0.332293
2.48189
0.216829
1.87804
0.119063
1.14801
-0.0215442
-0.105364
2.79661
-0.245298
4.1424
-0.406504
5.28692
-0.558756
6.84645
-0.700982
9.03125
-0.833684
11.7696
-0.929832
15.2512
-0.890497
19.0279
-0.719889
22.8862
-0.36625
26.7514
0.0969557
24.6937
0.457006
17.4898
0.695653
11.8738
0.815651
7.79371
0.814147
5.13122
0.696214
3.56031
0.500402
2.6777
0.299359
2.07908
0.123625
1.32374
0.102081
-0.0700992
2.86671
-0.187873
4.26017
-0.304665
5.40372
-0.41814
6.95993
-0.522416
9.13553
-0.617946
11.8651
-0.659386
15.2926
-0.577784
18.9462
-0.378844
22.6873
0.00380129
26.3688
0.42629
24.2712
0.707911
17.2081
0.89414
11.6875
0.934373
7.75347
0.815665
5.24993
0.60659
3.76938
0.387111
2.89718
0.229843
2.23635
0.111939
1.44165
0.214021
-0.0611096
2.92782
-0.187148
4.38621
-0.281875
5.49844
-0.344926
7.02298
-0.409104
9.19971
-0.485366
11.9414
-0.489996
15.2973
-0.386545
18.8428
-0.180834
22.4816
0.169696
26.0183
0.597786
23.8431
0.856059
16.9499
1.02199
11.5216
1.01859
7.75687
0.887471
5.38104
0.697634
3.95922
0.498235
3.09657
0.301483
2.4331
0.133099
1.61003
0.347119
-0.0314024
2.95922
-0.135022
4.48983
-0.23671
5.60013
-0.307148
7.09342
-0.365645
9.2582
-0.406845
11.9826
-0.388379
15.2788
-0.279216
18.7336
-0.0774048
22.2798
0.260633
25.6802
0.661863
23.4419
0.90409
16.7076
1.02927
11.3964
0.997588
7.78855
0.83196
5.54667
0.613071
4.17811
0.400338
3.30931
0.238837
2.59461
0.0951557
1.75371
0.442275
-0.0276345
2.98686
-0.130436
4.59263
-0.226117
5.69581
-0.299124
7.16642
-0.336281
9.29536
-0.364472
12.0108
-0.331453
15.2458
-0.222414
18.6246
-0.0301902
22.0875
0.286819
25.3632
0.653434
23.0753
0.892232
16.4688
1.00779
11.2809
0.944483
7.85186
0.755095
5.73606
0.53541
4.39779
0.342465
3.50225
0.16479
2.77228
0.0521197
1.86638
0.494395
-0.0240478
3.0109
-0.0973651
4.66595
-0.176317
5.77476
-0.265513
7.25562
-0.318232
9.34808
-0.342373
12.0349
-0.302518
15.2059
-0.198269
18.5203
-0.0192127
21.9085
0.27003
25.074
0.605251
22.7401
0.832387
16.2417
0.910377
11.2029
0.825653
7.93658
0.656337
5.90537
0.463983
4.59015
0.280762
3.68547
0.136441
2.9166
0.0366461
1.96618
0.531041
-0.0195044
3.03041
-0.089552
4.73599
-0.165139
5.85035
-0.252656
7.34314
-0.305934
9.40136
-0.331228
12.0602
-0.291341
15.166
-0.195817
18.4248
-0.0321609
21.7448
0.229592
24.8122
0.535384
22.4343
0.747135
16.0299
0.808422
11.1416
0.719793
8.02521
0.537275
6.08789
0.348117
4.7793
0.194831
3.83876
0.0770741
3.03436
0.00753898
2.03571
0.53858
-0.0158465
3.04625
-0.0656418
4.78579
-0.130121
5.91483
-0.21135
7.42437
-0.283558
9.47356
-0.319812
12.0965
-0.288898
15.1351
-0.204443
18.3404
-0.0579834
21.5984
0.17768
24.5766
0.450901
22.161
0.636921
15.8439
0.662635
11.1159
0.567392
8.12046
0.426546
6.22874
0.275848
4.93
0.14302
3.97159
0.0386695
3.13871
-0.00508223
2.07947
0.533497
-0.0128891
3.05914
-0.0720607
4.84496
-0.138499
5.98127
-0.203958
7.48982
-0.265524
9.53513
-0.305534
12.1365
-0.285567
15.1152
-0.216092
18.2709
-0.0876587
21.4699
0.121962
24.3669
0.362196
21.9208
0.520195
15.6859
0.529125
11.1069
0.434159
8.21542
0.305275
6.35762
0.171572
5.06371
0.0834162
4.05974
0.00735198
3.21477
-0.0205474
2.10736
0.51295
-0.015022
3.07417
-0.0654184
4.89536
-0.125148
6.041
-0.193522
7.5582
-0.254357
9.59597
-0.29137
12.1735
-0.279514
15.1033
-0.22652
18.2179
-0.116037
21.3595
0.0668909
24.184
0.270714
21.717
0.391561
15.5651
0.378517
11.12
0.282924
8.31102
0.193212
6.44733
0.0964907
5.16043
0.00869114
4.14754
-0.0406917
3.26416
-0.0358689
2.10254
0.477081
-0.0131758
3.08734
-0.0741869
4.95637
-0.136097
6.10291
-0.193069
7.61517
-0.24348
9.64638
-0.276885
12.2069
-0.271
15.0974
-0.232279
18.1792
-0.139418
21.2666
0.0167099
24.0279
0.183346
21.5504
0.272628
15.4758
0.251425
11.1412
0.166623
8.39582
0.0767732
6.53718
0.00508198
5.23212
-0.0413774
4.194
-0.0729131
3.29569
-0.0533696
2.083
0.423712
-0.021785
3.10913
-0.0771232
5.01171
-0.130178
6.15596
-0.188464
7.67346
-0.235111
9.69302
-0.265314
12.2371
-0.262416
15.0945
-0.233239
18.15
-0.156487
21.1898
-0.0325633
23.904
0.0999923
21.4178
0.157494
15.4183
0.111526
11.1872
0.0369667
8.47038
-0.0260662
6.60021
-0.0790269
5.28508
-0.122546
4.23752
-0.120956
3.2941
-0.0696593
2.0317
0.354052
-0.0229034
3.13203
-0.0816374
5.07044
-0.134398
6.20872
-0.185989
7.72505
-0.226542
9.73358
-0.25465
12.2652
-0.252626
15.0925
-0.229526
18.1269
-0.167005
21.1273
-0.0706956
23.8077
0.0299399
21.3172
0.0576748
15.3906
0.00550459
11.2393
-0.0700535
8.54594
-0.139473
6.66963
-0.176045
5.32165
-0.176384
4.23786
-0.157028
3.27475
-0.0894291
1.9641
0.264623
-0.0286229
3.16065
-0.0832247
5.12504
-0.12816
6.25366
-0.18092
7.77781
-0.220568
9.77323
-0.24691
12.2915
-0.243817
15.0894
-0.223874
18.107
-0.174355
21.0778
-0.101618
23.7349
-0.0258452
21.2414
-0.0242653
15.389
-0.1019
11.317
-0.182919
8.62696
-0.230499
6.71721
-0.254027
5.34518
-0.260379
4.24421
-0.207518
3.22189
-0.104004
1.86059
0.160619
-0.0279276
3.18858
-0.0802065
5.17732
-0.12531
6.29876
-0.174942
7.82744
-0.213269
9.81155
-0.238396
12.3167
-0.234508
15.0855
-0.216949
18.0894
-0.179259
21.0401
-0.12505
23.6807
-0.0712282
21.1876
-0.0893254
15.4071
-0.173784
11.4014
-0.271285
8.72446
-0.336612
6.78254
-0.348404
5.35697
-0.307887
4.2037
-0.241466
3.15546
-0.107773
1.7269
0.052846
-0.0294125
3.21799
-0.0791255
5.22703
-0.12002
6.33966
-0.168117
7.87553
-0.207729
9.85116
-0.230208
12.3391
-0.226166
15.0815
-0.210521
18.0738
-0.182122
21.0117
-0.1421
23.6407
-0.108657
21.1541
-0.148913
15.4473
-0.24932
11.5018
-0.34985
8.82499
-0.413976
6.84667
-0.429238
5.37223
-0.407677
4.18213
-0.289896
3.03768
-0.120429
1.55743
-0.0675826
-0.0301472
3.24814
-0.073958
5.27084
-0.115439
6.38114
-0.160811
7.92091
-0.198877
9.88923
-0.219827
12.3601
-0.218714
15.0804
-0.206551
18.0616
-0.185338
20.9905
-0.155317
23.6107
-0.139803
21.1386
-0.198207
15.5057
-0.306369
11.61
-0.409407
8.92803
-0.496813
6.93407
-0.522435
5.39786
-0.458612
4.11831
-0.295707
2.87478
0.0325139
1.22921
-0.0350686
-0.0282562
3.2764
-0.0693447
5.31193
-0.110939
6.42273
-0.156801
7.96677
-0.195953
9.92838
-0.219058
12.3832
-0.223
15.0843
-0.215966
18.0546
-0.20163
20.9762
-0.179814
23.5888
-0.182362
21.1412
-0.265644
15.589
-0.399067
11.7434
-0.521954
9.05091
-0.607094
7.01921
-0.656261
5.44702
-0.628683
4.09073
-0.405414
2.65151
-0.254083
1.07788
0.548685
-0.837837
-0.0312181
3.30761
-0.065354
5.34607
-0.109274
6.46665
-0.148839
8.00633
-0.187749
9.96729
-0.212195
12.4076
-0.219934
15.092
-0.217052
18.0517
-0.209109
20.9682
-0.195771
23.5755
-0.216885
21.1623
-0.320786
15.6929
-0.471732
11.8944
-0.617311
9.19649
-0.742791
7.14469
-0.832455
5.53669
-0.860854
4.11913
-0.705114
2.49577
-0.981869
1.35463
1.14688
-1.58006
-0.0317253
3.33934
-0.0618163
5.37616
-0.105747
6.51058
-0.13934
8.03993
-0.17978
10.0077
-0.204958
12.4328
-0.216777
15.1039
-0.218361
18.0533
-0.216014
20.9659
-0.211037
23.5705
-0.249765
21.201
-0.374216
15.8174
-0.549112
12.0693
-0.724774
9.37215
-0.887766
7.30768
-1.0233
5.67222
-1.0114
4.10723
-0.961548
2.44591
-1.35758
1.75066
1.55024
-1.76094
-0.0289547
3.36829
-0.0560187
5.40322
-0.102273
6.55684
-0.131536
8.06919
-0.171367
10.0476
-0.196142
12.4576
-0.211735
15.1194
-0.217569
18.0591
-0.220582
20.9689
-0.22387
23.5738
-0.278842
21.256
-0.421457
15.96
-0.617864
12.2657
-0.827094
9.58138
-1.05039
7.53098
-1.21827
5.8401
-1.18543
4.07439
-1.36993
2.63041
-1.70994
2.09067
1.80307
-1.96278
-0.0287727
3.39707
-0.054724
5.42918
-0.0958769
6.59799
-0.126132
8.09945
-0.162831
10.0843
-0.189093
12.4839
-0.206854
15.1372
-0.216609
18.0688
-0.224015
20.9763
-0.235066
23.5849
-0.304426
21.3253
-0.463755
16.1193
-0.685172
12.4871
-0.931126
9.82734
-1.14875
7.7486
-1.24936
5.94072
-1.23822
4.06325
-1.51582
2.90801
-1.85681
2.43167
2.02337
-2.0771
-0.026983
3.42405
-0.0558865
5.45808
-0.0929819
6.63509
-0.126542
8.13301
-0.160942
10.1187
-0.187955
12.5109
-0.206805
15.1561
-0.21952
18.0816
-0.230448
20.9872
-0.248195
23.6026
-0.33053
21.4077
-0.504204
16.293
-0.742303
12.7252
-0.998287
10.0833
-1.22162
7.97193
-1.37082
6.08992
-1.56097
4.2534
-1.86977
3.21681
-2.15696
2.71886
2.17216
-2.30575
-0.0208793
3.44493
-0.0571564
5.49436
-0.096247
6.67418
-0.134132
8.17089
-0.169963
10.1545
-0.195019
12.5359
-0.214635
15.1757
-0.228166
18.0951
-0.240759
20.9998
-0.26464
23.6265
-0.358779
21.5018
-0.543526
16.4777
-0.788372
12.97
-1.05735
10.3523
-1.29245
8.20704
-1.39107
6.18854
-1.57487
4.43719
-1.89274
3.53468
-2.14603
2.97215
2.37367
-2.34754
-0.0202355
3.46516
-0.0582675
5.53239
-0.10087
6.71678
-0.141993
8.21201
-0.179272
10.1918
-0.20264
12.5593
-0.223323
15.1964
-0.236307
18.1081
-0.249996
21.0135
-0.279794
23.6563
-0.385518
21.6075
-0.57691
16.6691
-0.814879
13.208
-1.0795
10.6169
-1.31835
8.44588
-1.46056
6.33075
-1.77028
4.74691
-2.26245
4.02685
-2.63953
3.34924
2.67382
-2.93968
-0.0222778
3.48744
-0.0612423
5.57135
-0.102408
6.75795
-0.14688
8.25649
-0.186676
10.2316
-0.212364
12.585
-0.232946
15.2169
-0.24532
18.1205
-0.259329
21.0275
-0.294438
23.6914
-0.414514
21.7276
-0.610579
16.8652
-0.829435
13.4268
-1.07151
10.859
-1.32941
8.70378
-1.5766
6.57794
-1.8848
5.05511
-2.33099
4.47304
-2.82199
3.84024
2.87532
-3.02349
-0.017722
3.50516
-0.0604089
5.61404
-0.107599
6.80513
-0.154832
8.30372
-0.19589
10.2726
-0.222057
12.6112
-0.241886
15.2368
-0.253225
18.1318
-0.26681
21.0411
-0.305903
23.7305
-0.434118
21.8558
-0.628594
17.0597
-0.848303
13.6466
-1.07077
11.0815
-1.27432
8.90733
-1.53538
6.839
-2.06839
5.58812
-2.46255
4.8672
-2.94881
4.3265
3.59705
-3.67055
-0.0128232
3.51799
-0.0572883
5.6585
-0.108029
6.85588
-0.159747
8.35544
-0.203379
10.3163
-0.229144
12.6369
-0.248484
15.2561
-0.257972
18.1413
-0.26996
21.0531
-0.308803
23.7693
-0.428512
21.9755
-0.60732
17.2385
-0.809011
13.8482
-1.00248
11.2749
-1.145
9.04986
-1.40558
7.09958
-1.79301
5.97555
-1.97503
5.04923
-1.43764
3.7891
2.15941
-0.0144134
3.5324
-0.0617807
5.70587
-0.113953
6.90805
-0.167518
8.409
-0.212839
10.3616
-0.240252
12.6643
-0.261802
15.2777
-0.272046
18.1515
-0.285164
21.0662
-0.326907
23.8111
-0.447468
22.0961
-0.624033
17.415
-0.818556
14.0428
-0.988806
11.4452
-1.07668
9.13773
-1.16971
7.19261
-1.17395
5.97979
-1.03657
4.91184
-0.714968
3.4675
1.44445
-0.0101049
3.54251
-0.0566862
5.75245
-0.111943
6.9633
-0.170593
8.46765
-0.219615
10.4106
-0.250968
12.6957
-0.273188
15.2999
-0.28402
18.1624
-0.296396
21.0786
-0.338146
23.8528
-0.459074
22.217
-0.626717
17.5827
-0.797788
14.2138
-0.907246
11.5546
-0.959608
9.19009
-0.995666
7.22867
-1.04189
6.02601
-1.01043
4.88039
-0.816071
3.27315
0.628375
-0.00909559
3.5516
-0.0617243
5.80508
-0.120592
7.02217
-0.179442
8.5265
-0.227895
10.4591
-0.258895
12.7267
-0.281596
15.3226
-0.292337
18.1731
-0.302388
21.0886
-0.341742
23.8922
-0.458092
22.3334
-0.60794
17.7325
-0.743659
14.3496
-0.813279
11.6243
-0.870872
9.24768
-0.935545
7.29334
-0.970892
6.06136
-0.889631
4.79912
-0.399515
2.78303
0.22886
-0.00445923
3.55606
-0.0528446
5.85347
-0.112348
7.08168
-0.176193
8.59035
-0.227847
10.5107
-0.262856
12.7617
-0.286715
15.3464
-0.296127
18.1825
-0.30274
21.0953
-0.336691
23.9261
-0.442154
22.4388
-0.566501
17.8569
-0.66061
14.4437
-0.73948
11.7031
-0.773511
9.28171
-0.827273
7.3471
-0.808347
6.04243
-0.601492
4.59227
-0.163558
2.3451
0.0653023
-0.00508528
3.56115
-0.0609689
5.90935
-0.12139
7.1421
-0.182289
8.65124
-0.230997
10.5594
-0.263936
12.7946
-0.286469
15.369
-0.293232
18.1893
-0.294427
21.0964
-0.320843
23.9526
-0.409388
22.5274
-0.506797
17.9543
-0.587913
14.5248
-0.654205
11.7694
-0.668528
9.29603
-0.689146
7.36772
-0.626743
5.98003
-0.441945
4.40747
-0.145485
2.04864
-0.0801826
0.00845637
3.55269
-0.0384959
5.9563
-0.100711
7.20431
-0.16962
8.72015
-0.21993
10.6097
-0.257952
12.8327
-0.279732
15.3908
-0.282011
18.1916
-0.277129
21.0916
-0.294053
23.9695
-0.364272
22.5976
-0.441944
18.032
-0.507262
14.5901
-0.545666
11.8078
-0.539179
9.28955
-0.523618
7.35216
-0.455291
5.9117
-0.320645
4.27283
-0.0729504
1.80094
-0.153133
0.00767786
3.54501
-0.0469787
6.01096
-0.109893
7.26723
-0.169793
8.78005
-0.215891
10.6558
-0.248925
12.8657
-0.264007
15.4058
-0.261033
18.1886
-0.24804
21.0786
-0.254543
23.976
-0.308672
22.6517
-0.366225
18.0895
-0.405847
14.6297
-0.406526
11.8085
-0.387911
9.27093
-0.358066
7.32232
-0.298303
5.85194
-0.182125
4.15665
0.00618751
1.61263
-0.146946
0.030264
3.51475
-0.0103109
6.05153
-0.0690315
7.32595
-0.138495
8.84952
-0.187852
10.7052
-0.2232
12.901
-0.236097
15.4187
-0.227981
18.1805
-0.206644
21.0572
-0.202048
23.9714
-0.239376
22.6891
-0.276868
18.127
-0.287143
14.64
-0.260425
11.7818
-0.221957
9.23247
-0.174908
7.27527
-0.120005
5.79704
-0.0317173
4.06836
0.0455223
1.53539
-0.101423
0.0336827
3.48106
-0.0151474
6.10036
-0.0731651
7.38397
-0.123674
8.90003
-0.168829
10.7503
-0.191329
12.9235
-0.194988
15.4224
-0.181764
18.1672
-0.149868
21.0253
-0.134417
23.9559
-0.152904
22.7075
-0.165659
18.1398
-0.153819
14.6282
-0.112397
11.7404
-0.0523538
9.17242
0.0220126
7.2009
0.0834062
5.73564
0.12779
4.02398
0.0747167
1.58846
-0.0267064
0.0706833
3.41038
0.0605064
6.11054
0.00981943
7.43465
-0.0640106
8.97386
-0.109125
10.7954
-0.130595
12.945
-0.134688
15.4265
-0.11679
18.1493
-0.0763627
20.9849
-0.0529406
23.9325
-0.0493641
22.704
-0.036408
18.1268
0.00313548
14.5886
0.0539415
11.6896
0.119511
9.10685
0.189709
7.1307
0.271355
5.654
0.293475
4.00186
0.126715
1.75522
0.100009
0.0835726
3.32681
0.0599597
6.13415
0.0155117
7.4791
-0.0288733
9.01824
-0.0436823
10.8103
-0.0620141
12.9633
-0.0553254
15.4198
-0.022682
18.1167
0.0185236
20.9437
0.0544463
23.8966
0.0748883
22.6835
0.105595
18.0961
0.158403
14.5358
0.225259
11.6227
0.275983
9.05613
0.339079
7.06761
0.408562
5.58452
0.410518
3.9999
0.192959
1.97278
0.292968
0.135884
3.19092
0.167897
6.10214
0.139544
7.50745
0.0946767
9.06311
0.0537949
10.8511
0.0471189
12.97
0.0578026
15.4091
0.0981325
18.0764
0.154121
20.8877
0.194897
23.8558
0.222063
22.6564
0.258902
18.0593
0.309989
14.4847
0.360468
11.5722
0.39986
9.01674
0.437857
7.02961
0.471371
5.551
0.437943
4.03333
0.229983
2.18074
0.522951
0.178183
3.01274
0.217004
6.06332
0.205575
7.51888
0.184579
9.0841
0.182559
10.8532
0.189837
12.9627
0.213012
15.3859
0.261681
18.0277
0.318419
20.831
0.361303
23.8129
0.388314
22.6293
0.413342
18.0342
0.439555
14.4585
0.455301
11.5565
0.45655
9.01549
0.467993
7.01817
0.480219
5.53877
0.438872
4.07468
0.240605
2.37901
0.763556
0.280962
2.73178
0.407663
5.93662
0.414846
7.5117
0.383533
9.11542
0.370971
10.8657
0.37178
12.9619
0.405229
15.3525
0.461791
17.9711
0.516917
20.7759
0.55605
23.7738
0.569335
22.6161
0.5654
18.0382
0.554601
14.4693
0.538006
11.5731
0.515528
9.03796
0.510581
7.02311
0.503473
5.54588
0.437082
4.14107
0.232076
2.58401
0.995632
0.377075
2.3547
0.549556
5.76414
0.586805
7.47445
0.593801
9.10842
0.599103
10.8604
0.618034
12.943
0.662387
15.3081
0.719634
17.9139
0.77042
20.7251
0.796196
23.748
0.778448
22.6338
0.731738
18.0849
0.678741
14.5223
0.628885
11.6229
0.572897
9.09395
0.520717
7.07529
0.466159
5.60044
0.37352
4.2337
0.191376
2.76616
1.18701
0.614307
1.7404
0.875253
5.50319
0.909206
7.44049
0.897593
9.12003
0.891432
10.8666
0.915377
12.9191
0.9687
15.2548
1.03285
17.8497
1.082
20.6759
1.08841
23.7416
1.03553
22.6867
0.958762
18.1617
0.880806
14.6003
0.79036
11.7134
0.671205
9.21311
0.559713
7.18679
0.459351
5.7008
0.33764
4.35542
0.157961
2.94584
1.34497
0.81772
0.922677
1.18661
5.13431
1.27772
7.34939
1.29825
9.0995
1.29761
10.8672
1.32243
12.8942
1.3798
15.1974
1.44299
17.7865
1.48678
20.6321
1.47758
23.7508
1.40565
22.7586
1.30461
18.2627
1.17984
14.725
1.02394
11.8693
0.830002
9.40704
0.645808
7.37098
0.488126
5.85849
0.330046
4.51349
0.145188
3.1307
1.49016
0.762424
0.160254
1.55528
4.34145
1.73646
7.1682
1.75925
9.07672
1.77387
10.8526
1.80761
12.8605
1.87816
15.1269
1.95283
17.7119
2.00513
20.5798
2.00119
23.7547
1.91989
22.8399
1.77436
18.4082
1.58273
14.9167
1.36277
12.0892
1.11059
9.65922
0.868164
7.61341
0.658223
6.06843
0.446779
4.72494
0.210047
3.36743
1.7002
0.60884
-0.448586
1.74258
3.20771
2.1852
6.72559
2.30629
8.95562
2.35969
10.7992
2.4127
12.8075
2.50864
15.0309
2.61503
17.6055
2.69906
20.4958
2.71347
23.7403
2.61283
22.9406
2.4258
18.5953
2.18848
15.154
1.91827
12.3594
1.605
9.97249
1.26644
7.95196
0.943363
6.39151
0.625686
5.04262
0.293129
3.69999
1.99333
0.454406
-0.902993
1.53406
2.12806
2.0859
6.17374
2.28964
8.75189
2.3646
10.7242
2.38921
12.7829
2.41116
15.009
2.41922
17.5974
2.3834
20.5316
2.26105
23.8627
2.06172
23.1399
1.84486
18.8121
1.61339
15.3855
1.35712
12.6157
1.10017
10.2294
0.867416
8.18471
0.655863
6.60306
0.445748
5.25273
0.213682
3.93205
2.20701
0.0678139
-0.970806
0.509681
1.68619
0.993972
5.68945
1.30412
8.44174
1.47255
10.5558
1.59267
12.6628
1.70733
14.8943
1.80226
17.5025
1.833
20.5009
1.76486
23.9308
1.61321
23.2915
1.43532
18.99
1.25197
15.5688
1.06333
12.8044
0.853071
10.4397
0.644708
8.39308
0.47381
6.77396
0.312091
5.41445
0.145742
4.0984
2.35276
-0.121679
-0.849128
-0.238021
1.80253
0.0192304
5.4322
0.308495
8.15248
0.590545
10.2737
0.855428
12.3979
1.06455
14.6852
1.23166
17.3354
1.33033
20.4022
1.33191
23.9293
1.23645
23.387
1.10775
19.1187
0.966835
15.7097
0.817036
12.9542
0.655472
10.6013
0.488815
8.55973
0.351964
6.91081
0.22341
5.543
0.0919769
4.22984
2.44473
-0.328472
-0.520656
-0.673995
2.14806
-0.666966
5.42517
-0.391461
7.87697
-0.0480508
9.93033
0.252309
12.0975
0.518649
14.4189
0.739862
17.1142
0.895358
20.2467
0.957426
23.8672
0.926315
23.4181
0.843814
19.2012
0.739597
15.8139
0.627749
13.066
0.506314
10.7227
0.374774
8.69127
0.267109
7.01847
0.167507
5.64261
0.0660869
4.33126
2.51082
-0.428595
-0.0920617
-0.765634
2.48509
-0.782957
5.4425
-0.632744
7.72676
-0.408223
9.70581
-0.127059
11.8164
0.146924
14.1449
0.38293
16.8782
0.564166
20.0655
0.665157
23.7662
0.67612
23.4072
0.630817
19.2465
0.561163
15.8836
0.484935
13.1422
0.397422
10.8102
0.296759
8.79194
0.209884
7.10535
0.122197
5.73029
0.0308725
4.42258
2.54169
-0.361696
0.269634
-0.68356
2.80696
-0.707372
5.46631
-0.614302
7.63369
-0.475967
9.56748
-0.286596
11.627
-0.0581015
13.9164
0.1462
16.6739
0.325468
19.8862
0.443763
23.6479
0.480576
23.3703
0.464341
19.2627
0.424433
15.9235
0.375948
13.1907
0.313047
10.8731
0.231492
8.87349
0.150822
7.18602
0.0687694
5.81234
-0.00680078
4.49815
2.53489
-0.345048
0.614682
-0.586234
3.04815
-0.593443
5.47352
-0.514348
7.55459
-0.404238
9.45737
-0.288585
11.5113
-0.15302
13.7808
0.0180638
16.5028
0.171351
19.7329
0.286998
23.5323
0.336438
23.3209
0.339669
19.2595
0.319885
15.9433
0.286808
13.2238
0.238494
10.9214
0.170399
8.94159
0.096841
7.25958
0.0241158
5.88507
-0.0334017
4.55567
2.50149
-0.271556
0.886238
-0.470345
3.24693
-0.507042
5.51021
-0.436424
7.48398
-0.336877
9.35782
-0.238214
11.4127
-0.143507
13.6861
-0.0298007
16.3891
0.0848238
19.6183
0.185145
23.4319
0.235414
23.2706
0.247502
19.2474
0.23703
15.9538
0.212102
13.2487
0.174391
10.9591
0.117021
8.99896
0.0525382
7.32406