/*--------------------------------*- C++ -*----------------------------------*\
| =========                 |                                                 |
| \\      /  F ield         | OpenFOAM: The Open Source CFD Toolbox           |
|  \\    /   O peration     | Version:  2412                                  |
|   \\  /    A nd           | Website:  www.openfoam.com                      |
|    \\/     M anipulation  |                                                 |
\*---------------------------------------------------------------------------*/
FoamFile
{
    version     2.0;
    format      ascii;
    arch        "LSB;label=32;scalar=64";
    class       volVectorField;
    location    "6.75";
    object      U;
}
// * * * * * * * * * * * * * * * * * * * * * * * * * * * * * * * * * * * * * //

dimensions      [0 1 -1 0 0 0 0];

internalField   nonuniform List<vector> 
2200
(
(0.378593 -0.000149894 0)
(1.19392 0.000530163 0)
(2.12285 0.00135884 0)
(3.16875 0.0019708 0)
(4.32538 0.00301276 0)
(5.57168 0.00352021 0)
(6.86334 0.00451205 0)
(8.11988 0.00490766 0)
(9.20643 0.00546291 0)
(9.90142 0.0060847 0)
(9.9015 0.00619364 0)
(9.20751 0.00581043 0)
(8.12188 0.00464922 0)
(6.86464 0.00437913 0)
(5.57177 0.00381812 0)
(4.325 0.00298656 0)
(3.16829 0.00237184 0)
(2.12227 0.00203413 0)
(1.19234 0.00157786 0)
(0.375728 0.00134017 0)
(0.381616 0.000871495 0)
(1.19627 0.00157385 0)
(2.1256 0.00383237 0)
(3.17132 0.00573927 0)
(4.32859 0.00868448 0)
(5.57499 0.0113322 0)
(6.86686 0.0136371 0)
(8.12369 0.0163318 0)
(9.2085 0.0182433 0)
(9.90035 0.0182167 0)
(9.89981 0.017118 0)
(9.20415 0.0156461 0)
(8.11825 0.0146534 0)
(6.86082 0.012487 0)
(5.56886 0.0100672 0)
(4.32189 0.00836557 0)
(3.16418 0.00640043 0)
(2.11665 0.00442318 0)
(1.18487 0.0033412 0)
(0.370423 0.00027354 0)
(0.388009 0.00230583 0)
(1.20195 0.00315685 0)
(2.13139 0.00633941 0)
(3.177 0.0105063 0)
(4.33253 0.0139419 0)
(5.57758 0.0188248 0)
(6.86926 0.022228 0)
(8.12429 0.0251053 0)
(9.21012 0.0287379 0)
(9.89985 0.0302375 0)
(9.89862 0.0290493 0)
(9.20296 0.0268827 0)
(8.11508 0.0235171 0)
(6.85669 0.0197142 0)
(5.56297 0.0161636 0)
(4.31498 0.0124386 0)
(3.15699 0.00866517 0)
(2.10897 0.00528204 0)
(1.17693 0.00264675 0)
(0.366716 -0.00116655 0)
(0.400409 0.00393181 0)
(1.21143 0.00579467 0)
(2.14252 0.0115255 0)
(3.18746 0.0160932 0)
(4.34366 0.0218462 0)
(5.58817 0.0259471 0)
(6.87591 0.0312126 0)
(8.12934 0.0366285 0)
(9.21388 0.04027 0)
(9.89851 0.0411663 0)
(9.89585 0.0394392 0)
(9.19627 0.0358834 0)
(8.10779 0.0313355 0)
(6.84837 0.0263984 0)
(5.55493 0.0207173 0)
(4.30729 0.0154415 0)
(3.14838 0.0104066 0)
(2.09913 0.00545377 0)
(1.16716 0.00256321 0)
(0.365116 -0.00186822 0)
(0.423993 0.00501387 0)
(1.2299 0.00850879 0)
(2.1588 0.0163861 0)
(3.20332 0.0221047 0)
(4.35433 0.0278138 0)
(5.59617 0.0353004 0)
(6.88338 0.0414092 0)
(8.1343 0.0462682 0)
(9.21806 0.0514532 0)
(9.89628 0.0534185 0)
(9.89253 0.0506633 0)
(9.19291 0.0461544 0)
(8.10127 0.0399206 0)
(6.8402 0.0322318 0)
(5.545 0.0247622 0)
(4.29539 0.0170798 0)
(3.13628 0.0122126 0)
(2.08701 0.00647825 0)
(1.1547 0.00285006 0)
(0.364502 -0.00170049 0)
(0.448862 0.00341502 0)
(1.24649 0.00966697 0)
(2.17824 0.0175029 0)
(3.2221 0.0265719 0)
(4.37576 0.0371965 0)
(5.61344 0.0442161 0)
(6.89519 0.0503322 0)
(8.14316 0.0565486 0)
(9.22523 0.062986 0)
(9.89638 0.0644401 0)
(9.88953 0.0607453 0)
(9.18399 0.0546188 0)
(8.09097 0.0467828 0)
(6.82895 0.0375585 0)
(5.53399 0.0263966 0)
(4.28654 0.0185249 0)
(3.12775 0.0115018 0)
(2.07828 0.00742458 0)
(1.14253 0.0017396 0)
(0.36471 7.28612e-05 0)
(0.472906 0.000795803 0)
(1.27243 0.0127493 0)
(2.20827 0.0180688 0)
(3.25275 0.0330011 0)
(4.39786 0.0450308 0)
(5.63246 0.0550509 0)
(6.91089 0.0626191 0)
(8.15285 0.0690814 0)
(9.2315 0.0750967 0)
(9.89323 0.0768559 0)
(9.88505 0.0722788 0)
(9.17825 0.0647221 0)
(8.08296 0.0535205 0)
(6.82046 0.040598 0)
(5.52516 0.0297308 0)
(4.2746 0.0185216 0)
(3.11338 0.0120149 0)
(2.06519 0.00816443 0)
(1.13006 0.000259658 0)
(0.359354 0.00272611 0)
(0.498642 0.000590142 0)
(1.31035 0.0183713 0)
(2.24312 0.0250893 0)
(3.27654 0.0392478 0)
(4.42363 0.0534553 0)
(5.65714 0.0638374 0)
(6.93123 0.0731047 0)
(8.16788 0.0819901 0)
(9.24413 0.0893289 0)
(9.89475 0.0893283 0)
(9.88161 0.0825026 0)
(9.16879 0.0721779 0)
(8.06943 0.0595113 0)
(6.80357 0.0457419 0)
(5.50565 0.0319438 0)
(4.25546 0.0218716 0)
(3.09839 0.0115443 0)
(2.05045 0.00664552 0)
(1.12427 -0.00203966 0)
(0.352348 0.00399582 0)
(0.537514 0.00229856 0)
(1.36802 0.0240095 0)
(2.27336 0.030881 0)
(3.30062 0.0449807 0)
(4.44057 0.0560279 0)
(5.67286 0.0704602 0)
(6.94446 0.0849846 0)
(8.1791 0.0949155 0)
(9.25398 0.102553 0)
(9.89246 0.103238 0)
(9.87654 0.0952806 0)
(9.1599 0.083935 0)
(8.05777 0.0685853 0)
(6.78885 0.0514566 0)
(5.48921 0.0361445 0)
(4.23585 0.025086 0)
(3.07383 0.011646 0)
(2.03327 0.00139175 0)
(1.12815 -0.00602401 0)
(0.35122 0.00314969 0)
(0.582067 0.00449102 0)
(1.42017 0.027057 0)
(2.29672 0.0400816 0)
(3.32342 0.0490619 0)
(4.46989 0.0596121 0)
(5.697 0.0779597 0)
(6.96638 0.0941318 0)
(8.19604 0.10656 0)
(9.26764 0.117526 0)
(9.89232 0.118463 0)
(9.8711 0.107595 0)
(9.14645 0.0932315 0)
(8.03621 0.0764821 0)
(6.76215 0.0588641 0)
(5.45658 0.0441206 0)
(4.20208 0.0309783 0)
(3.04277 0.0131989 0)
(1.99925 -0.000826099 0)
(1.1435 -0.00927657 0)
(0.357908 0.00224067 0)
(0.646065 0.00539257 0)
(1.50788 0.0286503 0)
(2.32852 0.0454623 0)
(3.35464 0.0541916 0)
(4.49009 0.0644726 0)
(5.71247 0.0848221 0)
(6.97768 0.102746 0)
(8.20576 0.118522 0)
(9.2756 0.13255 0)
(9.88706 0.133905 0)
(9.86066 0.123134 0)
(9.12891 0.108476 0)
(8.015 0.0911752 0)
(6.73481 0.0716626 0)
(5.42717 0.0508594 0)
(4.16983 0.0342823 0)
(3.00486 0.0175006 0)
(1.95591 -0.000294251 0)
(1.15427 -0.00741459 0)
(0.365042 0.00179539 0)
(0.692947 0.00713021 0)
(1.56069 0.027156 0)
(2.35344 0.0511681 0)
(3.39046 0.0592818 0)
(4.53115 0.07898 0)
(5.74545 0.0987007 0)
(7.00322 0.113852 0)
(8.22228 0.130968 0)
(9.28509 0.148601 0)
(9.88095 0.1525 0)
(9.84881 0.139696 0)
(9.10533 0.123083 0)
(7.98054 0.102976 0)
(6.69554 0.0815771 0)
(5.38546 0.058892 0)
(4.1333 0.0357142 0)
(2.97401 0.0198648 0)
(1.91788 0.000316619 0)
(1.16929 -0.00365946 0)
(0.371082 0.00150564 0)
(0.772678 0.00736174 0)
(1.66972 0.0303671 0)
(2.40737 0.0581032 0)
(3.44748 0.0699294 0)
(4.56226 0.0946424 0)
(5.7698 0.111135 0)
(7.02128 0.128126 0)
(8.2316 0.148764 0)
(9.28993 0.166986 0)
(9.86937 0.169952 0)
(9.82853 0.159987 0)
(9.07586 0.142342 0)
(7.94906 0.118747 0)
(6.66539 0.0922572 0)
(5.3538 0.0614994 0)
(4.09663 0.0318509 0)
(2.93953 0.0249635 0)
(1.87925 -0.000120745 0)
(1.17121 0.000715214 0)
(0.367391 0.000803501 0)
(0.818257 0.00936756 0)
(1.72933 0.0276609 0)
(2.44838 0.0604862 0)
(3.5033 0.0775491 0)
(4.61528 0.113655 0)
(5.81877 0.133816 0)
(7.05773 0.152817 0)
(8.25717 0.173147 0)
(9.30025 0.190692 0)
(9.85556 0.194588 0)
(9.80682 0.181613 0)
(9.04446 0.159821 0)
(7.90792 0.128321 0)
(6.61765 0.0953056 0)
(5.31025 0.0649692 0)
(4.0544 0.0348683 0)
(2.91074 0.0274958 0)
(1.84819 -0.00301344 0)
(1.17979 0.00263587 0)
(0.364435 0.000283007 0)
(0.915076 0.0110317 0)
(1.85184 0.0361016 0)
(2.53156 0.0767751 0)
(3.57615 0.0874395 0)
(4.66554 0.130532 0)
(5.86124 0.153777 0)
(7.09068 0.177498 0)
(8.27557 0.200919 0)
(9.31129 0.218378 0)
(9.84172 0.220692 0)
(9.78173 0.205354 0)
(9.01008 0.179015 0)
(7.87134 0.142118 0)
(6.58641 0.1032 0)
(5.27655 0.06653 0)
(4.01396 0.0370629 0)
(2.86043 0.0295247 0)
(1.81633 -0.00631265 0)
(1.17929 0.00502936 0)
(0.35469 -0.000554519 0)
(0.974866 0.0116364 0)
(1.9287 0.0338984 0)
(2.60485 0.0839625 0)
(3.64024 0.100236 0)
(4.74318 0.146662 0)
(5.92999 0.177453 0)
(7.14303 0.212905 0)
(8.32062 0.238786 0)
(9.33107 0.257373 0)
(9.83023 0.255664 0)
(9.75792 0.232494 0)
(8.97544 0.197006 0)
(7.82838 0.15009 0)
(6.5283 0.101949 0)
(5.22191 0.0733492 0)
(3.96916 0.0397801 0)
(2.80694 0.0218853 0)
(1.79882 -0.0134732 0)
(1.19307 0.00222563 0)
(0.35586 -0.000610649 0)
(1.09928 0.0172059 0)
(2.08079 0.0485956 0)
(2.71071 0.108405 0)
(3.71372 0.121968 0)
(4.80804 0.172978 0)
(5.98434 0.206536 0)
(7.18662 0.246826 0)
(8.35246 0.277105 0)
(9.3517 0.298065 0)
(9.82092 0.29622 0)
(9.73615 0.261861 0)
(8.93812 0.219221 0)
(7.78204 0.167536 0)
(6.4854 0.118418 0)
(5.17178 0.0751784 0)
(3.91901 0.0403778 0)
(2.73974 0.0140155 0)
(1.78257 -0.0147831 0)
(1.20169 0.00242884 0)
(0.347562 -0.00041601 0)
(1.20938 0.0144766 0)
(2.21461 0.0509555 0)
(2.83919 0.115955 0)
(3.81228 0.153608 0)
(4.916 0.20004 0)
(6.06579 0.24397 0)
(7.24917 0.286355 0)
(8.40592 0.321101 0)
(9.37578 0.348908 0)
(9.81433 0.341927 0)
(9.70978 0.301882 0)
(8.88931 0.247437 0)
(7.71861 0.188345 0)
(6.39976 0.125981 0)
(5.08104 0.0842386 0)
(3.85384 0.0392471 0)
(2.67435 0.00641348 0)
(1.77597 -0.0171311 0)
(1.22798 -0.000622206 0)
(0.352577 0.000678867 0)
(1.34875 0.0240767 0)
(2.38496 0.061298 0)
(2.97092 0.136593 0)
(3.90822 0.174072 0)
(5.00093 0.228487 0)
(6.12966 0.276979 0)
(7.30424 0.325551 0)
(8.44658 0.368135 0)
(9.39051 0.398666 0)
(9.79385 0.395022 0)
(9.67537 0.34558 0)
(8.83058 0.28675 0)
(7.64521 0.218794 0)
(6.33563 0.155711 0)
(5.0182 0.0889233 0)
(3.79354 0.0405315 0)
(2.61309 0.00306181 0)
(1.77653 -0.0186168 0)
(1.24836 0.00203746 0)
(0.346504 0.000928466 0)
(1.53796 0.0198047 0)
(2.57968 0.0720916 0)
(3.15625 0.144052 0)
(4.05011 0.209331 0)
(5.13779 0.269697 0)
(6.22792 0.324555 0)
(7.3822 0.375945 0)
(8.50085 0.427713 0)
(9.40569 0.462216 0)
(9.76867 0.454828 0)
(9.62136 0.404756 0)
(8.7483 0.334273 0)
(7.54586 0.253922 0)
(6.21487 0.174206 0)
(4.89794 0.103844 0)
(3.69549 0.0472374 0)
(2.54113 0.00387839 0)
(1.77686 -0.0123145 0)
(1.27865 0.00148754 0)
(0.342556 0.00504849 0)
(1.68264 0.0302353 0)
(2.78402 0.0744723 0)
(3.32887 0.171247 0)
(4.19256 0.227026 0)
(5.2632 0.306207 0)
(6.32947 0.373325 0)
(7.4563 0.432745 0)
(8.55627 0.497043 0)
(9.41049 0.534947 0)
(9.72404 0.526574 0)
(9.55417 0.4656 0)
(8.65773 0.386231 0)
(7.44167 0.292471 0)
(6.12848 0.206831 0)
(4.82227 0.114061 0)
(3.60908 0.0523926 0)
(2.48713 0.00314985 0)
(1.77943 -0.00971289 0)
(1.29718 0.0110469 0)
(0.321351 0.00733674 0)
(1.95516 0.0275761 0)
(3.02901 0.095568 0)
(3.56319 0.182068 0)
(4.37575 0.269393 0)
(5.42391 0.354468 0)
(6.4622 0.440015 0)
(7.56408 0.516656 0)
(8.62702 0.590857 0)
(9.41629 0.627242 0)
(9.67699 0.615311 0)
(9.4711 0.540552 0)
(8.54383 0.446384 0)
(7.31276 0.329525 0)
(5.98585 0.215975 0)
(4.68182 0.126442 0)
(3.47983 0.0569047 0)
(2.42156 0.00973459 0)
(1.79626 -0.00231518 0)
(1.3145 0.0112088 0)
(0.279414 0.0167254 0)
(2.13865 0.0391987 0)
(3.29553 0.0966736 0)
(3.80183 0.223576 0)
(4.58846 0.308929 0)
(5.60436 0.42038 0)
(6.6161 0.525237 0)
(7.67661 0.617065 0)
(8.70825 0.704576 0)
(9.4181 0.740373 0)
(9.6213 0.715789 0)
(9.37903 0.620983 0)
(8.42443 0.500476 0)
(7.18764 0.360395 0)
(5.86721 0.236039 0)
(4.5908 0.144841 0)
(3.38099 0.0562589 0)
(2.37339 0.0116142 0)
(1.8007 0.00331597 0)
(1.35894 0.0222991 0)
(0.218485 0.0189523 0)
(2.50789 0.0410494 0)
(3.61014 0.131602 0)
(4.10045 0.248095 0)
(4.84565 0.375472 0)
(5.82286 0.50416 0)
(6.80258 0.626218 0)
(7.81508 0.744713 0)
(8.81642 0.845102 0)
(9.42485 0.87413 0)
(9.57422 0.843051 0)
(9.2937 0.71055 0)
(8.29873 0.564447 0)
(7.03814 0.405694 0)
(5.69192 0.258851 0)
(4.42249 0.155885 0)
(3.22822 0.0610911 0)
(2.32102 0.0261829 0)
(1.81609 0.0199907 0)
(1.3504 0.0376261 0)
(0.124751 0.025689 0)
(2.76727 0.0602459 0)
(3.96943 0.143045 0)
(4.43307 0.316911 0)
(5.13114 0.459301 0)
(6.07295 0.617242 0)
(7.0071 0.764101 0)
(7.96763 0.899463 0)
(8.91241 1.00209 0)
(9.41834 1.02782 0)
(9.52172 0.972984 0)
(9.18915 0.815853 0)
(8.13997 0.645286 0)
(6.85247 0.466039 0)
(5.52197 0.302474 0)
(4.30211 0.177472 0)
(3.13806 0.0654546 0)
(2.30218 0.0369753 0)
(1.87491 0.0327298 0)
(1.35225 0.0480225 0)
(0.00658171 0.0443333 0)
(3.34401 0.086075 0)
(4.39747 0.227051 0)
(4.81942 0.411856 0)
(5.49358 0.607282 0)
(6.37052 0.790123 -8.73994e-33)
(7.2428 0.946401 3.08716e-33)
(8.14008 1.08839 0)
(9.003 1.18684 0)
(9.38678 1.19309 0)
(9.42981 1.13346 0)
(9.04222 0.940475 0)
(7.93885 0.743187 0)
(6.64134 0.537927 0)
(5.31061 0.322295 0)
(4.09423 0.189813 0)
(2.97848 0.0717722 0)
(2.26058 0.040362 0)
(1.89018 0.0501512 0)
(1.3006 0.0626959 0)
(-0.218874 0.0400905 0)
(3.91144 0.21706 -1.02981e-18)
(4.83676 0.328905 8.61111e-19)
(5.22555 0.597598 0)
(5.84431 0.802 -4.81624e-19)
(6.66426 1.00939 3.8908e-19)
(7.48093 1.16857 -3.27402e-33)
(8.33324 1.3322 0)
(9.0497 1.41327 -2.05634e-20)
(9.30311 1.40986 -6.6384e-20)
(9.28853 1.31922 3.52971e-20)
(8.82237 1.08942 0)
(7.66147 0.85357 -3.31736e-19)
(6.32915 0.596154 -4.07002e-19)
(5.04727 0.378025 7.01643e-19)
(3.87263 0.194818 -5.7288e-19)
(2.85922 0.0936108 0)
(2.27251 0.0599942 -2.20438e-19)
(1.93793 0.0559436 0)
(1.26049 0.0479295 -1.13231e-18)
(-0.421588 0.00453352 1.34546e-18)
(4.26439 0.418892 7.34715e-20)
(5.22377 0.586913 -3.82996e-18)
(5.5362 0.854157 5.85067e-19)
(6.11028 1.05789 2.02353e-18)
(6.88256 1.25524 8.44998e-19)
(7.63999 1.43535 -1.32686e-18)
(8.43854 1.60633 0)
(9.03431 1.67699 0)
(9.20308 1.66772 1.57376e-19)
(9.13178 1.54248 0)
(8.60383 1.26555 1.15341e-18)
(7.40779 0.994606 3.62713e-19)
(6.09492 0.692598 -3.51979e-20)
(4.81865 0.436948 -9.03894e-19)
(3.64057 0.240103 0)
(2.80965 0.11819 0)
(2.29781 0.0901725 -3.87477e-18)
(2.04299 0.0942781 9.76658e-18)
(1.48188 0.0891617 -5.77643e-18)
(-0.307283 -0.0215072 -6.77809e-18)
(4.50845 0.663575 3.62227e-18)
(5.4806 0.917986 -1.39259e-18)
(5.78276 1.14496 -4.93945e-19)
(6.31401 1.31789 -3.72468e-18)
(7.02734 1.53774 3.66159e-19)
(7.73242 1.72161 3.60023e-18)
(8.48645 1.89488 -9.92669e-19)
(8.97699 1.95586 0)
(9.08813 1.93671 -4.42662e-19)
(8.97449 1.78147 1.44784e-18)
(8.40341 1.46599 -3.2654e-18)
(7.18413 1.14492 1.70992e-18)
(5.88908 0.813426 -1.35105e-18)
(4.63043 0.521942 2.87908e-18)
(3.59578 0.34209 0)
(2.85093 0.230162 -1.11335e-18)
(2.4353 0.228618 0)
(2.19967 0.242448 5.98725e-18)
(1.5412 0.146999 -1.41413e-17)
(-0.185258 -0.0165758 8.89114e-18)
(4.67268 0.909166 -1.49382e-17)
(5.72061 1.29268 7.7861e-18)
(5.97326 1.4763 1.34571e-18)
(6.45582 1.64001 0)
(7.11832 1.84667 2.43895e-18)
(7.78108 2.02857 -2.85785e-18)
(8.48427 2.19501 9.53108e-19)
(8.88451 2.24659 0)
(8.94606 2.2164 3.4212e-19)
(8.79364 2.03039 -9.53556e-19)
(8.1937 1.67933 3.34311e-18)
(6.99352 1.30916 0)
(5.73751 0.942208 -2.97654e-18)
(4.52895 0.622169 1.58565e-18)
(3.52759 0.411538 4.27457e-18)
(2.88049 0.30112 -3.80847e-18)
(2.5381 0.295359 6.04605e-18)
(2.33243 0.324635 -1.33787e-17)
(1.78767 0.259769 8.47032e-18)
(0.102546 0.0402669 -1.06111e-17)
(4.76988 1.1483 8.39225e-18)
(5.82594 1.61999 -8.18198e-18)
(6.10161 1.77442 4.32371e-18)
(6.54134 1.93507 -6.56617e-18)
(7.16243 2.16256 4.9964e-18)
(7.78996 2.34524 -1.09585e-18)
(8.43279 2.50961 5.01832e-20)
(8.75298 2.5495 5.68266e-19)
(8.7756 2.49928 -5.7538e-19)
(8.58414 2.28574 -2.61657e-18)
(7.97074 1.89796 -7.51769e-18)
(6.81128 1.48268 -2.78217e-18)
(5.57552 1.08017 -3.91486e-20)
(4.42978 0.750957 -6.29448e-18)
(3.58488 0.5441 -1.24877e-19)
(3.03576 0.473356 5.88446e-18)
(2.74563 0.500113 -1.8424e-18)
(2.53609 0.543818 -1.00704e-18)
(1.92794 0.380856 0)
(0.212255 0.0790642 2.43289e-17)
(4.82985 1.37102 0)
(5.94522 1.98276 2.30719e-18)
(6.17763 2.10145 0)
(6.58121 2.25566 -2.97616e-19)
(7.16246 2.47277 -5.59341e-18)
(7.75812 2.66988 2.20028e-18)
(8.34467 2.83142 -1.14699e-18)
(8.60041 2.85994 -5.81175e-19)
(8.59007 2.78608 -6.23638e-19)
(8.36417 2.5447 6.7684e-19)
(7.74811 2.11941 4.2164e-18)
(6.6395 1.6667 6.25829e-18)
(5.44373 1.22266 -4.02273e-18)
(4.38101 0.871341 7.10252e-18)
(3.57182 0.661668 -5.67995e-18)
(3.0934 0.602662 0)
(2.86562 0.606375 -1.44547e-17)
(2.66145 0.642268 1.93867e-17)
(2.11566 0.509864 1.49252e-18)
(0.485344 0.16907 -2.71902e-17)
(4.84699 1.57047 -3.16583e-19)
(5.96967 2.27081 -5.74033e-18)
(6.2318 2.37385 -1.94339e-17)
(6.59453 2.54391 1.17632e-17)
(7.1324 2.78545 -3.61885e-18)
(7.70049 2.98809 2.44863e-18)
(8.22897 3.15021 -2.55486e-18)
(8.43499 3.17046 6.97646e-19)
(8.399 3.07234 -1.70227e-18)
(8.14742 2.805 -2.27072e-19)
(7.53207 2.34396 -5.15653e-18)
(6.47571 1.86135 -7.23159e-18)
(5.32162 1.38146 4.61862e-18)
(4.35206 1.0353 -2.63866e-18)
(3.70528 0.864409 6.45628e-18)
(3.325 0.822324 0)
(3.12121 0.850403 -9.35612e-18)
(2.91452 0.890847 1.38942e-17)
(2.34141 0.688057 2.64848e-17)
(0.641006 0.266454 -3.10532e-17)
(4.84207 1.75176 -2.45058e-17)
(6.00014 2.58979 1.4435e-17)
(6.24893 2.65869 1.25058e-17)
(6.57279 2.85356 -1.25941e-17)
(7.08268 3.08382 3.31534e-19)
(7.62092 3.30064 5.56381e-18)
(8.09503 3.46048 9.4096e-19)
(8.26335 3.47274 -1.4883e-19)
(8.20901 3.35307 -1.76051e-18)
(7.93921 3.06439 2.57456e-18)
(7.32403 2.57235 4.64559e-18)
(6.31351 2.0619 1.1354e-17)
(5.21643 1.55201 0)
(4.33682 1.19658 2.40764e-19)
(3.72613 1.03281 -1.84861e-17)
(3.3561 1.00252 4.32651e-18)
(3.17895 1.01863 2.09808e-17)
(2.97481 1.07032 -6.12234e-18)
(2.42962 0.857176 1.31281e-17)
(0.726263 0.333362 -1.04436e-18)
(4.80957 1.94407 4.74799e-19)
(5.98222 2.8431 1.28291e-17)
(6.24953 2.8939 9.0973e-18)
(6.54464 3.11089 -2.09582e-17)
(7.01327 3.37071 1.50493e-17)
(7.52207 3.59974 -6.07226e-18)
(7.94641 3.75531 -1.00693e-18)
(8.08586 3.76027 -4.6206e-19)
(8.01684 3.62206 2.08757e-18)
(7.73376 3.31667 -4.36764e-18)
(7.11832 2.80046 0)
(6.1503 2.2627 -4.6539e-18)
(5.11885 1.7345 5.33342e-18)
(4.33865 1.40085 6.93174e-18)
(3.85248 1.27983 -4.04982e-18)
(3.57006 1.25813 -9.7524e-18)
(3.39823 1.26326 -2.97082e-18)
(3.173 1.30197 -1.27202e-19)
(2.56701 1.02558 0)
(0.80488 0.405757 0)
(4.78408 2.11396 -1.29748e-17)
(5.96943 3.11168 0)
(6.23148 3.136 9.91713e-18)
(6.48465 3.37933 -4.27645e-18)
(6.92312 3.64235 -1.53298e-17)
(7.40935 3.88283 4.35695e-18)
(7.79037 4.03307 -1.06405e-18)
(7.90589 4.03043 6.65068e-19)
(7.82766 3.87721 1.4052e-18)
(7.53198 3.55887 -2.33635e-18)
(6.91892 3.02461 2.82417e-18)
(5.99313 2.46002 1.4859e-17)
(5.03378 1.9218 4.63393e-19)
(4.33084 1.59867 -7.31218e-18)
(3.8607 1.46705 1.37199e-17)
(3.55694 1.4451 1.07819e-19)
(3.40876 1.45982 3.18448e-18)
(3.19863 1.48116 -1.5619e-17)
(2.61168 1.1779 1.59623e-17)
(0.813475 0.445543 -1.88917e-17)
(4.73028 2.28867 -3.62965e-21)
(5.93621 3.33382 0)
(6.20152 3.33482 0)
(6.41114 3.60373 4.11339e-18)
(6.81996 3.8893 5.68258e-18)
(7.28373 4.14213 -3.50629e-18)
(7.62836 4.28948 3.45284e-18)
(7.72622 4.28184 0)
(7.64174 4.11661 -2.58711e-18)
(7.33381 3.78832 6.76798e-18)
(6.7247 3.24025 9.29984e-18)
(5.83759 2.65333 -5.63747e-18)
(4.9435 2.1182 -6.90961e-18)
(4.31355 1.8218 1.6269e-17)
(3.93996 1.72554 -4.89448e-18)
(3.71257 1.70406 -5.87157e-18)
(3.55336 1.68311 -3.60316e-18)
(3.30904 1.70817 -1.71828e-17)
(2.65165 1.311 2.38516e-18)
(0.801884 0.481532 2.03682e-17)
(4.69493 2.44123 -5.11807e-18)
(5.90044 3.57199 -7.70487e-18)
(6.14908 3.56579 5.28217e-19)
(6.3253 3.83732 -7.42992e-21)
(6.70913 4.11871 2.1215e-18)
(7.15473 4.37934 -8.05117e-18)
(7.46884 4.5236 0)
(7.55306 4.5147 2.05992e-19)
(7.46351 4.34078 -1.63191e-19)
(7.14346 4.00565 1.12048e-17)
(6.53887 3.44583 -2.17495e-18)
(5.68856 2.84149 2.59357e-18)
(4.86094 2.31841 0)
(4.28436 2.02964 -8.85998e-18)
(3.90391 1.9151 1.09137e-17)
(3.64409 1.882 0)
(3.50734 1.84044 -7.91231e-18)
(3.29628 1.84771 2.31212e-17)
(2.64243 1.43811 2.8101e-18)
(0.767648 0.495569 -2.48508e-17)
(4.63622 2.59113 -1.07804e-17)
(5.85365 3.78124 1.32208e-17)
(6.09652 3.75416 0)
(6.23557 4.04 9.43519e-18)
(6.59553 4.33022 0)
(7.0255 4.5954 7.98572e-18)
(7.31122 4.73538 0)
(7.38639 4.7282 0)
(7.28959 4.54839 -1.28498e-18)
(6.95941 4.20905 -1.0998e-17)
(6.35808 3.6391 -1.7401e-17)
(5.53816 3.02318 3.26478e-18)
(4.76177 2.52242 1.20371e-17)
(4.23747 2.2561 9.92452e-18)
(3.92388 2.15313 -3.50995e-17)
(3.74354 2.13677 -1.43561e-17)
(3.58503 2.05527 8.3525e-18)
(3.32831 2.03754 0)
(2.61378 1.53139 2.43924e-17)
(0.706334 0.506064 -2.71423e-17)
(4.59322 2.72014 1.1637e-17)
(5.79845 3.98431 -1.42293e-17)
(6.02663 3.96425 0)
(6.1443 4.24654 -3.54573e-19)
(6.48986 4.52746 -3.79843e-18)
(6.90212 4.79333 0)
(7.16222 4.9282 -6.80687e-19)
(7.22769 4.92323 7.87376e-19)
(7.12132 4.73989 -1.57086e-18)
(6.78208 4.39787 1.07554e-18)
(6.18344 3.8202 0)
(5.39289 3.19858 1.32117e-17)
(4.66794 2.72002 1.01009e-19)
(4.18934 2.46609 5.37738e-18)
(3.85397 2.32411 6.43346e-18)
(3.62635 2.28439 0)
(3.49134 2.19582 -1.41368e-17)
(3.26476 2.13622 2.77028e-17)
(2.54801 1.61245 -2.94749e-17)
(0.621531 0.491298 5.93167e-17)
(4.54259 2.86121 0)
(5.74933 4.18379 0)
(5.96176 4.14263 -7.49381e-18)
(6.05926 4.42973 0)
(6.38751 4.7112 0)
(6.78151 4.97557 9.01073e-18)
(7.01744 5.1038 -7.22149e-19)
(7.07275 5.09982 7.11456e-19)
(6.95612 4.91476 -1.05944e-19)
(6.60935 4.57002 0)
(6.01336 3.98713 -2.84031e-18)
(5.24814 3.36767 -1.09296e-17)
(4.56348 2.9145 -1.34441e-17)
(4.11762 2.68494 -5.47776e-18)
(3.83901 2.55353 7.04213e-18)
(3.6709 2.5098 -1.66661e-17)
(3.51701 2.39764 3.05459e-17)
(3.23302 2.29613 4.40199e-19)
(2.45523 1.65798 -2.7776e-17)
(0.5141 0.463849 -4.1008e-18)
(4.49235 2.97958 0)
(5.68686 4.35663 -1.02908e-17)
(5.89583 4.33102 8.40158e-18)
(5.98212 4.61302 0)
(6.29591 4.88543 0)
(6.67002 5.14517 -1.9299e-17)
(6.88171 5.26592 0)
(6.92465 5.2608 0)
(6.7972 5.07463 -3.81515e-18)
(6.44512 4.72759 2.34802e-18)
(5.85272 4.14187 -2.34893e-17)
(5.11315 3.5302 0)
(4.47383 3.10356 -1.4406e-17)
(4.05147 2.87773 3.78122e-19)
(3.75315 2.72272 -2.22514e-17)
(3.5235 2.64498 9.01046e-18)
(3.39414 2.50656 1.86532e-19)
(3.13633 2.37128 -3.28114e-17)
(2.33547 1.69707 1.48884e-17)
(0.385674 0.411259 4.46133e-18)
(4.45395 3.10483 0)
(5.63821 4.53904 -1.15305e-17)
(5.83733 4.49322 8.6256e-18)
(5.90782 4.77778 1.84193e-17)
(6.20706 5.04895 3.86034e-18)
(6.56223 5.30409 -2.18087e-18)
(6.74913 5.41617 1.69131e-18)
(6.78141 5.408 -1.84163e-18)
(6.64425 5.22004 4.08818e-18)
(6.28952 4.87057 1.57284e-17)
(5.70323 4.28579 1.95758e-17)
(4.98826 3.6888 3.65414e-18)
(4.37627 3.28971 2.08663e-17)
(3.96554 3.07838 1.30385e-17)
(3.70429 2.93001 1.60143e-17)
(3.53071 2.85182 -9.82958e-18)
(3.37141 2.69292 -1.19963e-17)
(3.0398 2.50175 1.41371e-17)
(2.19414 1.688 -8.23428e-18)
(0.222329 0.340972 1.48264e-17)
(4.41569 3.22154 1.62522e-17)
(5.58421 4.68509 1.83219e-17)
(5.78329 4.65597 4.48237e-18)
(5.84265 4.93837 1.22397e-19)
(6.12999 5.20393 -1.32726e-17)
(6.46299 5.45314 5.45842e-18)
(6.62536 5.55734 -1.83242e-18)
(6.64884 5.54482 -3.12032e-20)
(6.50184 5.35443 -5.25671e-18)
(6.14712 5.00226 -1.74736e-17)
(5.56647 4.41961 1.24079e-18)
(4.87539 3.84322 0)
(4.29081 3.46816 0)
(3.89454 3.2612 -6.74267e-18)
(3.6033 3.09048 -2.56595e-17)
(3.35698 2.97908 2.11077e-17)
(3.21266 2.77724 1.29122e-17)
(2.9072 2.53842 0)
(2.01153 1.66961 2.63889e-17)
(0.0622782 0.217797 -1.62065e-17)
(4.39311 3.33571 -8.43005e-18)
(5.54768 4.85439 6.98943e-18)
(5.73654 4.80693 -1.00496e-17)
(5.78259 5.08741 -1.1195e-17)
(6.05476 5.34988 -4.96444e-18)
(6.36679 5.59403 1.61511e-18)
(6.50798 5.69104 0)
(6.52482 5.67331 1.98642e-18)
(6.37094 5.47987 2.64831e-19)
(6.01696 5.12418 0)
(5.44137 4.54469 0)
(4.77106 3.99201 2.43056e-18)
(4.20508 3.64282 3.40611e-18)
(3.80794 3.44876 -7.14822e-18)
(3.52839 3.28564 1.84767e-17)
(3.32862 3.16896 -2.2733e-17)
(3.14575 2.94774 -2.77091e-17)
(2.74623 2.63635 2.50174e-17)
(1.7233 1.55001 -9.70059e-18)
(-0.0541556 0.129506 5.81968e-18)
(4.36012 3.4525 9.07674e-18)
(5.49924 4.98675 0)
(5.69675 4.95493 0)
(5.73026 5.23334 -3.67551e-18)
(5.99004 5.49033 2.95133e-18)
(6.28011 5.72699 -2.10386e-19)
(6.40374 5.81909 -5.90348e-18)
(6.41478 5.79649 -2.93681e-18)
(6.25464 5.59983 9.21845e-18)
(5.90096 5.23947 -1.45523e-18)
(5.3292 4.66339 3.24215e-18)
(4.67656 4.1342 -2.0799e-17)
(4.12879 3.80846 -2.12427e-17)
(3.73337 3.62099 -3.74796e-18)
(3.4224 3.44721 0)
(3.14309 3.29943 -3.15039e-19)
(2.93798 3.01645 1.44451e-17)
(2.55222 2.59114 -2.70961e-17)
(1.57017 1.48844 2.02699e-17)
(-0.152025 -0.314056 1.89364e-17)
(4.35527 3.5625 -1.9454e-17)
(5.47213 5.13345 -8.18516e-18)
(5.65838 5.0876 9.92682e-20)
(5.67713 5.36701 4.49154e-18)
(5.92587 5.62298 0)
(6.19654 5.85492 1.34523e-17)
(6.30581 5.94339 7.11086e-18)
(6.31144 5.91684 -8.03611e-19)
(6.14677 5.71718 -4.55797e-18)
(5.79158 5.35152 -1.40693e-18)
(5.22325 4.7805 1.30186e-18)
(4.58517 4.27572 1.81774e-17)
(4.04843 3.97425 2.06171e-17)
(3.64505 3.80121 3.57889e-18)
(3.33327 3.64227 1.85775e-17)
(3.08627 3.49922 0)
(2.84399 3.19979 0)
(2.31812 2.67898 1.72539e-17)
(1.07689 1.16845 6.68986e-20)
(-0.0329079 0.470735 -1.87823e-17)
(4.33354 3.67081 1.10434e-17)
(5.43298 5.26014 2.48453e-17)
(5.62199 5.22249 -3.77275e-17)
(5.63074 5.49852 2.30323e-17)
(5.86969 5.75181 -2.71281e-18)
(6.11948 5.9777 1.68469e-17)
(6.2153 6.06438 0)
(6.21548 6.03561 3.19566e-18)
(6.04501 5.83404 0)
(5.68691 5.46321 1.72957e-17)
(5.12097 4.89879 -1.81824e-18)
(4.49612 4.41999 2.03326e-18)
(3.97272 4.14337 2.32816e-17)
(3.56871 3.98433 -7.77761e-18)
(3.22863 3.8305 -9.74372e-18)
(2.89178 3.6703 0)
(2.54471 3.32062 0)
(1.86907 2.58632 0)
(0.81209 1.52639 -9.35037e-18)
(0.258293 2.07988 -5.94692e-18)
(4.32834 3.77987 0)
(5.40318 5.39769 0)
(5.59357 5.34955 1.34644e-17)
(5.58849 5.62263 -1.92378e-17)
(5.81126 5.87119 1.30506e-17)
(6.04426 6.09549 -1.54012e-17)
(6.12746 6.18022 -6.78358e-19)
(6.1214 6.14999 5.31336e-19)
(5.94606 5.94686 9.11358e-19)
(5.58427 5.57159 -1.97779e-17)
(5.02168 5.0158 3.08497e-18)
(4.41113 4.5646 1.79921e-17)
(3.89939 4.31489 -2.31526e-17)
(3.48838 4.17603 -2.57138e-17)
(3.14048 4.04696 8.87032e-18)
(2.82379 3.90386 0)
(2.42419 3.52334 1.35851e-17)
(1.4831 2.54722 1.60361e-17)
(0.963619 2.24642 -1.81124e-17)
(0.609593 2.85536 2.21721e-17)
(4.31061 3.87826 0)
(5.38096 5.51239 1.97958e-17)
(5.57422 5.48055 -3.45948e-18)
(5.54387 5.74607 2.36467e-17)
(5.75992 5.98939 -1.37129e-17)
(5.9743 6.2068 0)
(6.04453 6.29078 0)
(6.03227 6.25983 0)
(5.85038 6.05567 2.57163e-18)
(5.48497 5.67678 6.68431e-19)
(4.92678 5.13125 0)
(4.33201 4.7086 -1.77969e-17)
(3.83539 4.48591 0)
(3.42713 4.3683 1.83675e-17)
(3.06262 4.25707 -1.26701e-17)
(2.66871 4.09695 -1.02388e-17)
(2.11057 3.57945 -2.55095e-17)
(1.33102 2.85985 -1.48374e-17)
(0.930592 2.98569 -2.63899e-17)
(0.842012 3.36456 1.83693e-17)
(4.30077 3.97464 -6.87963e-18)
(5.35049 5.63119 2.82066e-19)
(5.52681 5.58099 -3.61946e-18)
(5.4942 5.85344 -1.8615e-17)
(5.71071 6.10045 0)
(5.90297 6.31239 0)
(5.96379 6.39671 0)
(5.94305 6.36462 -5.86808e-20)
(5.75555 6.15949 -3.47147e-18)
(5.38718 5.77846 0)
(4.83602 5.2454 0)
(4.25976 4.85188 0)
(3.77877 4.65709 0)
(3.3704 4.56305 1.37273e-17)
(3.00283 4.47381 3.46293e-17)
(2.62245 4.29495 1.08678e-17)
(2.08075 3.70312 2.4849e-17)
(1.58963 3.26984 -2.06922e-17)
(1.15196 3.62909 8.42944e-18)
(1.01637 3.7736 0)
(4.27417 4.05982 6.64779e-18)
(5.31582 5.73809 -3.95658e-17)
(5.50415 5.7018 -1.13783e-17)
(5.46704 5.97124 -2.81709e-18)
(5.6627 6.20728 3.18591e-18)
(5.83536 6.4157 -2.16434e-17)
(5.88527 6.49874 1.43008e-18)
(5.85594 6.46624 5.81865e-18)
(5.66225 6.26035 0)
(5.29236 5.87825 -1.28709e-18)
(4.75058 5.35919 1.17241e-18)
(4.19448 4.99421 0)
(3.73236 4.82565 0)
(3.33615 4.7554 -1.71784e-17)
(2.97434 4.67922 3.15593e-18)
(2.5556 4.46098 -1.02516e-17)
(1.90537 3.86946 2.28557e-17)
(1.34561 3.71402 2.04243e-17)
(1.0428 4.05797 -3.5434e-17)
(0.969434 4.13299 1.85647e-17)
(4.27201 4.14732 1.24634e-17)
(5.30369 5.8646 3.69068e-17)
(5.48816 5.82885 1.37481e-17)
(5.42742 6.09373 0)
(5.60465 6.3173 0)
(5.76505 6.52197 1.63566e-17)
(5.80155 6.60049 -8.84905e-18)
(5.7635 6.56685 -5.4592e-18)
(5.56567 6.35956 -8.92708e-20)
(5.19671 5.97749 1.41209e-17)
(4.66798 5.47377 -2.15662e-17)
(4.13554 5.13613 0)
(3.69579 4.99247 0)
(3.3134 4.9449 -1.23272e-17)
(2.95578 4.87954 -1.59808e-17)
(2.52494 4.628 0)
(1.94402 4.08168 -3.30722e-17)
(1.59713 4.12996 -6.19231e-18)
(1.39636 4.5629 3.62441e-17)
(1.10153 4.571 -1.90929e-17)
(4.24028 4.22988 -2.35618e-17)
(5.26397 5.96676 -1.75243e-17)
(5.43944 5.94077 0)
(5.36456 6.20615 0)
(5.54675 6.43261 0)
(5.68601 6.62525 0)
(5.71179 6.70237 9.32625e-18)
(5.66688 6.66653 -6.83803e-18)
(5.46607 6.45791 0)
(5.10071 6.07633 -1.26985e-17)
(4.58822 5.58861 3.89498e-17)
(4.08174 5.27625 1.66728e-18)
(3.66818 5.15375 2.50322e-18)
(3.30862 5.12688 2.09098e-17)
(2.96351 5.06401 -1.39509e-17)
(2.49366 4.73974 0)
(2.01923 4.38775 1.05554e-17)
(1.557 4.71117 6.79489e-19)
(1.13211 4.95132 -5.66214e-18)
(0.736311 5.02594 1.15381e-17)
(4.20613 4.3198 1.11333e-17)
(5.20767 6.08466 -1.68232e-17)
(5.37997 6.04531 0)
(5.30925 6.31623 -4.28904e-18)
(5.47903 6.54096 1.60306e-17)
(5.59407 6.72741 0)
(5.61584 6.80392 0)
(5.56185 6.76455 1.23122e-17)
(5.36152 6.55422 -5.49653e-19)
(5.00258 6.17391 1.24047e-17)
(4.50961 5.70242 -1.85133e-17)
(4.03259 5.41286 1.20379e-17)
(3.64925 5.30783 0)
(3.31477 5.29592 -1.14552e-17)
(2.97601 5.2269 7.11438e-18)
(2.53754 4.93204 7.73696e-18)
(2.0658 4.68015 0)
(1.70768 5.02387 5.40526e-18)
(1.28838 5.62863 9.29503e-18)
(1.1587 5.81065 2.72424e-18)
(4.16366 4.40419 -1.94419e-17)
(5.16437 6.20799 2.42152e-17)
(5.34131 6.1902 1.78204e-17)
(5.24948 6.44774 -4.68617e-18)
(5.39759 6.65465 -2.41394e-17)
(5.50037 6.83251 0)
(5.51314 6.90351 7.60933e-18)
(5.45283 6.86144 -5.14673e-18)
(5.25468 6.6488 -2.77829e-19)
(4.90416 6.26995 -1.08049e-17)
(4.43296 5.81409 -8.98767e-19)
(3.9865 5.5441 -1.35e-17)
(3.63489 5.45058 1.65146e-17)
(3.33074 5.4471 5.2581e-18)
(3.01838 5.38182 -1.22792e-17)
(2.54866 5.04496 1.32665e-17)
(2.28276 4.91413 0)
(1.91653 5.67977 0)
(1.67718 6.21717 2.09226e-18)
(0.498856 6.25088 -6.67545e-18)
(4.12676 4.49538 9.34326e-18)
(5.10924 6.32848 2.25621e-17)
(5.26972 6.30015 -1.74422e-17)
(5.1664 6.56126 1.67907e-17)
(5.31038 6.76673 2.31918e-17)
(5.3984 6.93797 0)
(5.40382 7.00351 -8.11399e-18)
(5.33836 6.95634 -6.50903e-18)
(5.14462 6.74024 0)
(4.80493 6.36281 0)
(4.35795 5.92143 0)
(3.94376 5.66721 0)
(3.62542 5.57988 -1.88156e-17)
(3.35419 5.57533 -7.19542e-18)
(3.06014 5.48564 0)
(2.67137 5.20919 -6.79423e-18)
(2.49688 5.33756 0)
(2.51862 5.70861 -3.05818e-18)
(2.58177 5.6673 3.4081e-18)
(1.41644 5.68234 -1.03061e-18)
(4.05483 4.57481 -1.90928e-17)
(5.03652 6.46539 -1.42701e-17)
(5.1943 6.44326 -1.07967e-17)