/*--------------------------------*- C++ -*----------------------------------*\
| =========                 |                                                 |
| \\      /  F ield         | OpenFOAM: The Open Source CFD Toolbox           |
|  \\    /   O peration     | Version:  2412                                  |
|   \\  /    A nd           | Website:  www.openfoam.com                      |
|    \\/     M anipulation  |                                                 |
\*---------------------------------------------------------------------------*/
FoamFile
{
    version     2.0;
    format      ascii;
    arch        "LSB;label=32;scalar=64";
    class       volScalarField;
    location    "0";
    object      T;
}
// * * * * * * * * * * * * * * * * * * * * * * * * * * * * * * * * * * * * * //

dimensions      [0 0 0 1 0 0 0];

internalField   nonuniform List<scalar> 
2000
(
1.318083518818365e-14
1.427720050907507e-14
1.546321372205409e-14
1.67460748736843e-14
1.813355147351179e-14
1.963402233644346e-14
2.125652474172556e-14
2.301080515385352e-14
2.49073737684575e-14
2.695756316517879e-14
2.917359136983991e-14
3.156862964994072e-14
3.415687539074153e-14
3.695363042407093e-14
3.997538520857801e-14
4.323990928861471e-14
4.676634848934711e-14
5.057532933823372e-14
5.468907123780529e-14
5.913150695186129e-14
6.392841200696498e-14
6.910754365361158e-14
7.469879007686059e-14
8.073433059474761e-14
8.724880763465378e-14
9.427951133320134e-14
1.018665776644162e-13
1.100532010641051e-13
1.188858625858865e-13
1.284145746964046e-13
1.386931438941777e-13
1.497794524187205e-13
1.617357604042508e-13
1.746290299258724e-13
1.885312724860571e-13
2.035199215957522e-13
2.196782322182123e-13
2.370957089649341e-13
2.55868565062433e-13
2.761002142466638e-13
2.979017978889591e-13
3.213927498143535e-13
3.46701401440406e-13
3.739656300429295e-13
4.033335531452239e-13
4.349642722298617e-13
4.690286691880196e-13
5.057102591513376e-13
5.452061035963119e-13
5.877277878722748e-13
6.335024675820094e-13
6.827739885401148e-13
7.358040853495446e-13
7.928736639723591e-13
8.542841740281747e-13
9.203590769340135e-13
9.914454164042646e-13
1.067915498260229e-12
1.150168686957057e-12
1.23863332672372e-12
1.333768795730527e-12
1.436067702250324e-12
1.546058232366772e-12
1.664306659406882e-12
1.791420025938926e-12
1.928049009882002e-12
2.074890987023896e-12
2.232693303040454e-12
2.402256768957429e-12
2.58443939489527e-12
2.780160377894201e-12
2.990404360632532e-12
3.216225978930713e-12
3.458754717079506e-12
3.719200091248023e-12
3.998857182519715e-12
4.299112542476609e-12
4.621450495708517e-12
4.967459865169972e-12
5.338841147948895e-12
5.73741417075106e-12
6.165126256252815e-12
6.62406093343348e-12
7.116447227078322e-12
7.644669563847199e-12
8.211278334642146e-12
8.819001155487566e-12
9.470754871762985e-12
1.016965835341707e-11
1.09190461317437e-11
1.172248293143052e-11
1.258377915490961e-11
1.350700737955045e-11
1.449651993196248e-11
1.555696760761493e-11
1.669331960816075e-11
1.791088477327339e-11
1.921533418849024e-11
2.061272525551371e-11
2.210952731667158e-11
2.371264893079395e-11
2.542946690364354e-11
2.726785718226109e-11
2.923622772916571e-11
3.13435534993235e-11
3.359941365015151e-11
3.601403112263653e-11
3.859831473985938e-11
4.136390397796271e-11
4.432321657377303e-11
4.748949914306483e-11
5.087688099370636e-11
5.450043132884158e-11
5.837622004671714e-11
6.252138235594394e-11
6.695418743777999e-11
7.169411140058107e-11
7.676191478588963e-11
8.217972490071456e-11
8.797112326653996e-11
9.416123849241446e-11
1.007768448972861e-10
1.078464672254828e-10
1.154004918190625e-10
1.234712846316408e-10
1.320933164903546e-10
1.413032960358812e-10
1.511403107949381e-10
1.616459768656018e-10
1.728645977229809e-10
1.848433326816548e-10
1.976323755814639e-10
2.112851442953209e-10
2.258584816912976e-10
2.414128687167957e-10
2.580126503099144e-10
2.757262748826505e-10
2.946265481618801e-10
3.147909022179583e-10
3.363016805566137e-10
3.592464401983977e-10
3.837182717208773e-10
4.098161382924735e-10
4.376452347833734e-10
4.673173680983692e-10
4.989513599390875e-10
5.326734732688739e-10
5.686178638228527e-10
6.069270580785034e-10
6.477524591786858e-10
6.912548823795888e-10
7.376051216806963e-10
7.869845493829371e-10
8.395857504146687e-10
8.95613193363432e-10
9.552839402548062e-10
1.018828397228077e-09
1.086491108372521e-09
1.158531595107841e-09
1.235225243617952e-09
1.316864242979428e-09
1.403758576764489e-09
1.496237071043946e-09
1.594648501868211e-09
1.699362765464782e-09
1.810772114558813e-09
1.929292464399696e-09
2.055364772261907e-09
2.189456494382134e-09
2.332063124498778e-09
2.483709818372813e-09
2.644953108893268e-09
2.816382716604879e-09
2.998623460741597e-09
3.192337276106982e-09
3.398225341412827e-09
3.617030324969942e-09
3.849538753921676e-09
4.096583513520439e-09
4.359046483273238e-09
4.637861317121889e-09
4.934016375180019e-09
5.248557814921897e-09
5.582592850108123e-09
5.937293186141757e-09
6.313898640975781e-09
6.713720961139543e-09
7.13814784291937e-09
7.588647169217682e-09
8.066771473126004e-09
8.57416263978184e-09
9.112556858638435e-09
9.683789838859393e-09
1.028980230116285e-08
1.093264576007459e-08
1.161448861121786e-08
1.233762253896332e-08
1.310446926048902e-08
1.391758762305888e-08
1.477968107212253e-08
1.569360550866444e-08
1.666237755509529e-08
1.768918324988011e-08
1.877738719203617e-08
1.993054215761757e-08
2.115239921132505e-08
2.24469183374462e-08
2.381827961544842e-08
2.527089496670305e-08
2.680942050003109e-08
2.843876948502446e-08
3.016412598340685e-08
3.199095917006897e-08
3.392503837684612e-08
3.597244889358093e-08
3.813960856257443e-08
4.043328520413064e-08
4.286061491258691e-08
4.542912126396323e-08
4.814673547818542e-08
5.102181758072924e-08
5.406317861050799e-08
5.728010392285597e-08
6.068237763862251e-08
6.42803082925753e-08
6.80847557366413e-08
7.210715935589218e-08
7.635956765768942e-08
8.085466929697488e-08
8.560582560339504e-08
9.062710467873759e-08
9.59333171360708e-08
1.015400535549687e-07
1.074637237303671e-07
1.137215977958304e-07
1.203318493053755e-07
1.273136003615216e-07
1.346869688808708e-07
1.424731180922601e-07
1.506943083664968e-07
1.593739514806978e-07
1.685366674244831e-07
1.782083438596447e-07
1.884161983494171e-07
1.991888434781767e-07
2.105563549872702e-07
2.225503430576498e-07
2.352040268753126e-07
2.485523126208033e-07
2.626318750297873e-07
2.774812426773476e-07
2.931408871447765e-07
3.09653316233736e-07
3.270631713991647e-07
3.454173295788851e-07
3.647650096048138e-07
3.851578833876637e-07
4.066501920745164e-07
4.292988673861277e-07
4.53163658348768e-07
4.783072636433875e-07
5.047954698034861e-07
5.326972955014603e-07
5.620851421724338e-07
5.930349512335357e-07
6.256263681663718e-07
6.599429137400805e-07
6.960721626626754e-07
7.341059299587195e-07
7.741404653823501e-07
8.162766561856408e-07
8.606202385739416e-07
9.072820181915645e-07
9.563780999935927e-07
1.00803012787185e-06
1.062365534416502e-06
1.119517801207587e-06
1.179626730045097e-06
1.242838725539849e-06
1.309307089502542e-06
1.379192327582744e-06
1.452662468625787e-06
1.529893397230637e-06
1.61106920000875e-06
1.696382526060507e-06
1.786034962202997e-06
1.880237423500878e-06
1.979210559670121e-06
2.083185177943407e-06
2.192402683004745e-06
2.307115534621408e-06
2.427587723620713e-06
2.554095266880663e-06
2.686926722024373e-06
2.826383722530801e-06
2.972781533995517e-06
3.126449632300182e-06
3.287732304470793e-06
3.456989273031332e-06
3.634596344681896e-06
3.820946084158022e-06
4.016448514152143e-06
4.221531842205889e-06
4.436643215508524e-06
4.662249504565356e-06
4.898838116727795e-06
5.146917840606178e-06
5.407019722416709e-06
5.679697975343412e-06
5.965530923028213e-06
6.265121978333193e-06
6.579100658551665e-06
6.908123638278751e-06
7.252875841184195e-06
7.614071571966609e-06
7.992455689802047e-06
8.388804824636355e-06
8.803928637706922e-06
9.238671127717279e-06
9.693911984124868e-06
1.017056798904204e-05
1.066959446928863e-05
1.119198680017521e-05
1.173878196263583e-05
1.231106015537145e-05
1.290994646370586e-05
1.353661258690035e-05
1.419227862571396e-05
1.487821493204354e-05
1.559574402251855e-05
1.634624255797412e-05
1.71311433907696e-05
1.7951937681966e-05
1.881017709042526e-05
1.970747603593794e-05
2.064551403853775e-05
2.16260381362071e-05
2.265086538322939e-05
2.37218854314899e-05
2.484106319708388e-05
2.601044161463059e-05
2.723214448175568e-05
2.850837939624364e-05
2.984144078842309e-05
3.123371305139358e-05
3.268767377175977e-05
3.420589706358645e-05
3.579105700834741e-05
3.744593120368455e-05
3.917340442386101e-05
4.097647239483006e-05
4.285824568690566e-05
4.482195372807148e-05
4.687094894101632e-05
4.900871100703932e-05
5.123885126002405e-05
5.356511721372632e-05
5.599139722568191e-05
5.852172530109099e-05
6.116028604008159e-05
6.391141973181517e-05
6.677962759894686e-05
6.976957719599697e-05
7.288610796525163e-05
7.613423695384916e-05
7.951916469576773e-05
8.304628126246687e-05
8.672117248599512e-05
9.054962635840655e-05
9.453763961139341e-05
9.869142448006368e-05
0.0001030174156548563
0.0001075222774256071
0.0001122129110218393
0.0001170964621533706
0.0001221803287553794
0.0001274721689421013
0.0001329799091733565
0.0001387117526381487
0.0001446761878595962
0.0001508819975254813
0.0001573382675487381
0.00016405439636221
0.0001710401044520281
0.0001783054441339832
0.0001858608095772718
0.00019371694708001
0.0002018849656009154
0.000210376347551555
0.0002192029598535627
0.0002283770652652348
0.0002379113339818871
0.0002478188555143531
0.0002581131508499907
0.0002688081849005586
0.0002799183792412545
0.0002914586251452459
0.0003034442969179193
0.000315891265535107
0.000328815912589443
0.0003422351445489951
0.0003561664073322578
0.0003706277012035199
0.0003856375959925573
0.000401215246642549
0.0004173804090900273
0.0004341534564805841
0.0004515553957239605
0.0004696078843920873
0.0004883332479635009
0.0005077544974174617
0.0005278953471810141
0.0005487802334320468
0.000570434332761345
0.0005928835811964305
0.000616154693589882
0.0006402751833746548
0.0006652733826887584
0.0006911784628714696
0.0007180204553330954
0.000745830272800128
0.0007746397309373622
0.0008044815703484579
0.0008353894789561115
0.0008673981147627973
0.0009005431289928975
0.0009348611896166115
0.0009703900052560035
0.001007168349473127
0.00104523608543989
0.001084634190989168
0.001125404784046288
0.001167591148439635
0.001211237760089043
0.001256390313569982
0.001303095749051591
0.001351402279605876
0.001401359418885388
0.001453018009166075
0.001506430249751685
0.001561649725735871
0.001618731437117397
0.001677731828263878
0.001738708817718622
0.001801721828345024
0.001866831817802412
0.001934101309346667
0.002003594422948717
0.002075376906723273
0.002149516168659858
0.002226081308647604
0.002305143150784739
0.00238677427596328
0.002471049054718775
0.002558043680334531
0.00264783620218897
0.002740506559334596
0.002836136614295898
0.002934810187073668
0.003036613089341663
0.003141633158821988
0.00324996029382415
0.00336168648793225
0.003476905864824771
0.003595714713209602
0.003718211521857609
0.003844497014716304
0.003974674186085003
0.004108848335832315
0.004247127104635766
0.004389620509222654
0.004536440977591046
0.004687703384188433
0.004843525085025314
0.005004025952700159
0.005169328411311303
0.00533955747123088
0.005514840763714721
0.005695308575322171
0.005881093882118218
0.006072332383629907
0.006269162536528526
0.00647172558800798
0.006680165608829147
0.006894629525999019
0.007115267155053328
0.007342231231909985
0.007575677444259889
0.007815764462461815
0.008062653969905876
0.00831651069281104
0.008577502429419981
0.00884580007855462
0.009121577667495072
0.009405012379143219
0.009696284578432723
0.009995577837945144
0.01030307896269244
0.01061897801402493
0.01094346833262248
0.01127674656052757
0.01161901266217715
0.01197046994438948
0.01233132507526274
0.01270178810193986
0.01308207246719554
0.01347239502479904
0.01387297605360711
0.01428403927034003
0.0147058118409942
0.01513852439084294
0.01558241101297948
0.01603770927535052
0.01650466022623589
0.01698350839812156
0.01747450180991953
0.01797789196748295
0.01849393386236904
0.01902288596879704
0.01956501023875378
0.02012057209519538
0.02068984042329416
0.02127308755968156
0.02187058927963678
0.02248262478216925
0.02310947667294655
0.023751430945016
0.0244087769572718
0.02508180741061593
0.02577081832176394
0.0264761089946477
0.0271979819893644
0.02793674308862451
0.02869270126164907
0.02946616862547141
0.03025746040359436
0.03106689488195519
0.03189479336215707
0.03274148011191716
0.03360728231268986
0.03449253000442085
0.03539755602738964
0.0363226959610981
0.03726828806016726
0.03823467318719704
0.03922219474255705
0.04023119859106711
0.04126203298553183
0.04231504848709652
0.04339059788238703
0.04448903609740655
0.04561072010815617
0.04675600884794789
0.04792526311138903
0.04911884545500531
0.05033712009448334
0.05158045279851005
0.05284921077918498
0.05414376257899275
0.05546447795431341
0.05681172775546073
0.05818588380323689
0.05958731876198606
0.06101640600914871
0.06247351950130563
0.06395903363670828
0.06547332311429657
0.06701676278920708
0.06858972752477052
0.0701925920410115
0.0718257307596554
0.07348951764565792
0.07518432604527074
0.07691052852065802
0.07866849668109011
0.08045860101073374
0.08228121069306762
0.08413669343194791
0.08602541526936373
0.08794774039991139
0.08990403098202905
0.09189464694603351
0.09391994579900438
0.09598028242655963
0.09807600889158448
0.1002074742299525
0.1023750242433141
0.1045790012890015
0.1068197440671182
0.109097587404889
0.1114128620383259
0.1137658943913003
0.1161570063520966
0.1185865150475207
0.1210547326146579
0.1235619659703677
0.1261085165786044
0.128694680215662
0.13132074673344
0.1339869998208392
0.1366937167633854
0.1394411682011941
0.1422296178853954
0.1450593224331212
0.1479305310811902
0.1508434854386026
0.1537984192379726
0.1567955580860394
0.1598351192133696
0.1629173112234049
0.1660423338409852
0.1692103776604915
0.1724216238937522
0.1756762441178684
0.1789744000230925
0.1823162431609377
0.1857019146926502
0.1891315451382253
0.1926052541261126
0.1961231501437875
0.1996853302893411
0.2032918800242781
0.2069428729276773
0.2106383704518886
0.2143784216799582
0.218163063084942
0.2219923182912939
0.2258661978385146
0.2297846989472339
0.2337478052879214
0.2377554867524009
0.2418076992283632
0.2459043843770673
0.2500454694144068
0.2542308668955428
0.2584604745032961
0.2627341748404746
0.2670518352263435
0.2714133074974242
0.2758184278128135
0.28026701646421
0.2847588776908546
0.2892937994995619
0.2938715534900342
0.2984918946856648
0.3031545613699974
0.3078592749290457
0.3126057396996546
0.3173936428240963
0.3222226541110663
0.3270924259032958
0.3320025929519206
0.3369527722978254
0.3419425631601053
0.3469715468318513
0.3520392865833988
0.3571453275732439
0.362289196766756
0.3674704028628853
0.3726884362290018
0.3779427688440279
0.3832328542500218
0.3885581275123644
0.3939180051886742
0.3993118853066269
0.4047391473507724
0.4101991522585264
0.4156912424254269
0.4212147417198087
0.4267689555069857
0.4323531706830795
0.4379666557185811
0.4436086607117716
0.449278417452062
0.4549751394933845
0.4606980222376947
0.4664462430286665
0.472218961255653
0.4780153184679956
0.4838344384997111
0.4896754276046354
0.4955373746020679
0.5014193510329409
0.5073204113265516
0.5132395929779094
0.5191759167356725
0.5251283868007188
0.531095991035345
0.5370777011830875
0.5430724730991598
0.549079246991477
0.5550969476722616
0.5611244848201736
0.5671607532529436
0.5732046332104436
0.5792549906481442
0.5853106775408998
0.5913705321969803
0.5974333795822581
0.6034980316544962
0.6095632877075892
0.615627934725711
0.6216907477471917
0.6277504902380652
0.6338059144751009
0.6398557619382383
0.645898763712224
0.6519336408973445
0.6579591050290596
0.6639738585063907
0.669976595028884
0.6759660000419363
0.6819407511903467
0.6878995187798379
0.6938409662463746
0.6997637506330575
0.7056665230743668
0.711547929287536
0.7174066100708013
0.7232412018083163
0.7290503369814535
0.7348326446862536
0.7405867511567511
0.7463112802939186
0.7520048541999527
0.7576660937176087
0.7632936189743194
0.7688860499307919
0.7744420069337908
0.779960111272806
0.7854389857403
0.7908772551952106
0.7962735471294181
0.8016264922368351
0.8069347249847957
0.812196884187433
0.8174116135806935
0.8225775623986646
0.8276933859508701
0.8327577462002029
0.8377693123411381
0.8427267613778847
0.8476287787021354
0.8524740586700582
0.8572613051781689
0.8619892322377516
0.8666565645474602
0.871262038063739
0.8758044005687307
0.8802824122352949
0.8846948461887892
0.8890404890652575
0.8933181415656821
0.8975266190059236
0.9016647518620139
0.9057313863104582
0.9097253847631714
0.9136456263967286
0.9174910076755712
0.9212604428688396
0.9249528645604705
0.9285672241522603
0.9321024923595269
0.9355576596990669
0.9389317369690668
0.9422237557206721
0.9454327687208741
0.9485578504064227
0.9515980973284546
0.9545526285875376
0.95742058625884
0.9602011358071344
0.9628934664913625
0.9654967917584797
0.9680103496263097
0.9704334030551547
0.9727652403079088
0.9750051752984179
0.9771525479278594
0.9792067244089034
0.9811670975774319
0.9830330871916109
0.9848041402180956
0.9864797311051822
0.9880593620427126
0.9895425632085504
0.9909288930014637
0.9922179382602434
0.9934093144689157
0.9945026659478985
0.9954976660309715
0.9963940172279343
0.9971914513728449
0.9978897297577276
0.9984886432516629
0.9989880124051735
0.9993876875398336
0.9996875488230391
0.9998875063278877
0.9999875000781246
0.9999875000781246
0.9998875063278877
0.9996875488230392
0.9993876875398338
0.9989880124051738
0.998488643251663
0.9978897297577275
0.9971914513728448
0.9963940172279343
0.9954976660309717
0.994502665947899
0.9934093144689159
0.9922179382602435
0.990928893001464
0.9895425632085512
0.9880593620427126
0.9864797311051824
0.9848041402180957
0.9830330871916113
0.9811670975774326
0.9792067244089037
0.9771525479278603
0.9750051752984179
0.972765240307909
0.9704334030551551
0.9680103496263099
0.9654967917584805
0.9628934664913638
0.9602011358071344
0.9574205862588406
0.954552628587539
0.9515980973284556
0.9485578504064234
0.9454327687208746
0.9422237557206725
0.9389317369690673
0.9355576596990669
0.9321024923595285
0.9285672241522607
0.9249528645604705
0.9212604428688399
0.9174910076755725
0.9136456263967294
0.9097253847631723
0.9057313863104596
0.9016647518620143
0.8975266190059241
0.893318141565683
0.889040489065258
0.8846948461887907
0.8802824122352974
0.8758044005687317
0.87126203806374
0.8666565645474612
0.8619892322377531
0.8572613051781695
0.8524740586700599
0.8476287787021375
0.8427267613778853
0.8377693123411381
0.8327577462002046
0.8276933859508706
0.8225775623986646
0.817411613580694
0.8121968841874353
0.806934724984798
0.8016264922368364
0.7962735471294199
0.7908772551952118
0.7854389857403018
0.7799601112728077
0.7744420069337915
0.7688860499307931
0.7632936189743212
0.7576660937176106
0.7520048541999558
0.7463112802939217
0.7405867511567524
0.7348326446862543
0.7290503369814548
0.7232412018083176
0.7174066100708013
0.7115479292875373
0.7056665230743701
0.6997637506330587
0.6938409662463766
0.6878995187798392
0.6819407511903488
0.675966000041937
0.669976595028884
0.6639738585063932
0.6579591050290596
0.6519336408973466
0.6458987637122247
0.639855761938239
0.6338059144751017
0.6277504902380658
0.6216907477471937
0.6156279347257123
0.6095632877075912
0.6034980316544962
0.5974333795822587
0.591370532196981
0.5853106775409013
0.579254990648145
0.5732046332104442
0.5671607532529449
0.5611244848201742
0.5550969476722623
0.5490792469914784
0.5430724730991618
0.537077701183089
0.5310959910353457
0.5251283868007182
0.5191759167356719
0.513239592977908
0.5073204113265516
0.5014193510329416
0.4955373746020691
0.4896754276046368
0.4838344384997111
0.4780153184679962
0.4722189612556542
0.4664462430286665
0.4606980222376954
0.4549751394933851
0.4492784174520627
0.4436086607117722
0.4379666557185818
0.4323531706830795
0.4267689555069869
0.4212147417198087
0.4156912424254275
0.4101991522585264
0.4047391473507736
0.3993118853066281
0.3939180051886753
0.3885581275123656
0.383232854250023
0.3779427688440291
0.3726884362290036
0.3674704028628871
0.3622891967667565
0.3571453275732444
0.3520392865833999
0.3469715468318518
0.3419425631601059
0.336952772297826
0.3320025929519217
0.3270924259032963
0.3222226541110678
0.3173936428240973
0.3126057396996561
0.3078592749290463
0.303154561369999
0.2984918946856663
0.2938715534900357
0.2892937994995629
0.2847588776908556
0.280267016464211
0.2758184278128139
0.2714133074974256
0.267051835226344
0.2627341748404746
0.258460474503297
0.2542308668955447
0.2500454694144077
0.2459043843770683
0.2418076992283645
0.2377554867524017
0.2337478052879222
0.2297846989472352
0.225866197838515
0.2219923182912948
0.2181630630849425
0.2143784216799595
0.210638370451889
0.2069428729276777
0.2032918800242793
0.1996853302893419
0.1961231501437887
0.1926052541261142
0.189131545138226
0.1857019146926505
0.1823162431609388
0.1789744000230929
0.1756762441178688
0.1724216238937536
0.1692103776604919
0.1660423338409863
0.1629173112234067
0.1598351192133707
0.1567955580860401
0.1537984192379739
0.1508434854386028
0.1479305310811911
0.1450593224331219
0.142229617885396
0.139441168201195
0.1366937167633851
0.1339869998208398
0.1313207467334403
0.128694680215662
0.1261085165786055
0.1235619659703683
0.1210547326146579
0.118586515047521
0.1161570063520975
0.1137658943913008
0.1114128620383259
0.1090975874048897
0.1068197440671198
0.1045790012890012
0.1023750242433149
0.1002074742299534
0.09807600889158517
0.09598028242656079
0.09391994579900484
0.09189464694603397
0.08990403098202905
0.08794774039991159
0.08602541526936373
0.08413669343194768
0.08228121069306762
0.08045860101073413
0.07866849668109011
0.07691052852065802
0.07518432604527187
0.07348951764565886
0.07182573075965575
0.07019259204101165
0.06858972752477105
0.06701676278920744
0.06547332311429672
0.06395903363670877
0.06247351950130613
0.06101640600914904
0.05958731876198606
0.05818588380323673
0.05681172775546103
0.05546447795431295
0.05414376257899275
0.05284921077918498
0.05158045279851035
0.05033712009448348
0.0491188454550057
0.04792526311138916
0.04675600884794789
0.04561072010815591
0.04448903609740655
0.04339059788238727
0.04231504848709676
0.04126203298553206
0.040231198591067
0.03922219474255705
0.03823467318719714
0.0372682880601678
0.03632269596109863
0.03539755602738964
0.03449253000442104
0.03360728231269016
0.03274148011191735
0.03189479336215716
0.03106689488195537
0.03025746040359444
0.02946616862547169
0.02869270126164892
0.02793674308862441
0.02719798198936465
0.02647610899464777
0.0257708183217641
0.02508180741061606
0.02440877695727195
0.023751430945016
0.02310947667294655
0.02248262478216954
0.02187058927963684
0.02127308755968169
0.02068984042329403
0.02012057209519538
0.01956501023875384
0.01902288596879698
0.01849393386236922
0.01797789196748302
0.0174745018099197
0.01698350839812173
0.01650466022623595
0.01603770927535064
0.01558241101297959
0.01513852439084294
0.01470581184099416
0.01428403927034011
0.01387297605360724
0.01347239502479922
0.01308207246719549
0.01270178810193986
0.01233132507526294
0.0119704699443894
0.01161901266217707
0.01127674656052761
0.01094346833262248
0.01061897801402493
0.01030307896269248
0.009995577837945243
0.009696284578432801
0.009405012379143219
0.009121577667495153
0.008845800078554745
0.008577502429420058
0.008316510692811099
0.008062653969905905
0.00781576446246194
0.007575677444259996
0.007342231231910037
0.007115267155053403
0.006894629525999056
0.00668016560882917
0.006471725588008037
0.006269162536528543
0.006072332383629945
0.005881093882118286
0.005695308575322131
0.005514840763714691
0.005339557471230918
0.005169328411311376
0.00500402595270023
0.004843525085025362
0.004687703384188458
0.004536440977591095
0.004389620509222685
0.004247127104635774
0.00410884833583237
0.003974674186085024
0.003844497014716345
0.003718211521857616
0.003595714713209637
0.003476905864824765
0.003361686487932268
0.003249960293824173
0.003141633158822013
0.003036613089341709
0.002934810187073707
0.002836136614295908
0.002740506559334604
0.002647836202188996
0.002558043680334561
0.00247104905471882
0.002386774275963291
0.002305143150784759
0.002226081308647634
0.002149516168659864
0.002075376906723282
0.002003594422948733
0.001934101309346691
0.001866831817802426
0.001801721828345034
0.001738708817718634
0.001677731828263902
0.001618731437117399
0.001561649725735864
0.00150643024975169
0.001453018009166093
0.001401359418885392
0.001351402279605882
0.001303095749051603
0.001256390313570001
0.001211237760089053
0.001167591148439651
0.001125404784046305
0.001084634190989165
0.00104523608543989
0.001007168349473135
0.000970390005256013
0.0009348611896166123
0.0009005431289929055
0.000867398114762805
0.0008353894789561196
0.0008044815703484708
0.0007746397309373684
0.0007458302728001374
0.0007180204553331089
0.0006911784628714721
0.0006652733826887584
0.0006402751833746564
0.0006161546935898863
0.0005928835811964379
0.0005704343327613466
0.0005487802334320458
0.0005278953471810189
0.000507754497417464
0.0004883332479635009
0.0004696078843920902
0.0004515553957239693
0.0004341534564805865
0.0004173804090900273
0.0004012152466425454
0.0003856375959925597
0.0003706277012035255
0.0003561664073322587
0.0003422351445489994
0.0003288159125894489
0.0003158912655351093
0.0003034442969179226
0.0002914586251452495
0.0002799183792412575
0.0002688081849005595
0.0002581131508499907
0.0002478188555143562
0.0002379113339818917
0.0002283770652652376
0.0002192029598535615
0.000210376347551555
0.000201884965600919
0.0001937169470800103
0.0001858608095772692
0.0001783054441339854
0.0001710401044520312
0.0001640543963622123
0.0001573382675487381
0.0001508819975254802
0.0001446761878595975
0.0001387117526381507
0.0001329799091733575
0.0001274721689421017
0.0001221803287553805
0.000117096462153372
0.0001122129110218401
0.0001075222774256075
0.0001030174156548561
9.869142448006402e-05
9.453763961139409e-05
9.054962635840768e-05
8.672117248599682e-05
8.30462812624676e-05
7.951916469576845e-05
7.613423695385024e-05
7.288610796525291e-05
6.976957719599722e-05
6.677962759894675e-05
6.391141973181473e-05
6.116028604008202e-05
5.85217253010913e-05
5.599139722568231e-05
5.356511721372575e-05
5.12388512600246e-05
4.900871100704002e-05
4.687094894101657e-05
4.482195372807165e-05
4.285824568690596e-05
4.097647239483057e-05
3.917340442386178e-05
3.744593120368501e-05
3.579105700834767e-05
3.420589706358706e-05
3.268767377176036e-05
3.123371305139425e-05
2.984144078842325e-05
2.850837939624369e-05
2.723214448175583e-05
2.601044161463087e-05
2.48410631970837e-05
2.372188543148994e-05
2.265086538322947e-05
2.16260381362076e-05
2.064551403853782e-05
1.970747603593815e-05
1.881017709042556e-05
1.7951937681966e-05
1.713114339076951e-05
1.634624255797433e-05
1.559574402251847e-05
1.487821493204354e-05
1.419227862571421e-05
1.353661258690064e-05
1.290994646370611e-05
1.23110601553716e-05
1.173878196263606e-05
1.119198680017525e-05
1.066959446928861e-05
1.017056798904204e-05
9.693911984124954e-06
9.238671127717392e-06
8.803928637707078e-06
8.388804824636265e-06
7.992455689802104e-06
7.61407157196669e-06
7.252875841184234e-06
6.908123638278764e-06
6.579100658551653e-06
6.265121978333193e-06
5.965530923028202e-06
5.679697975343412e-06
5.407019722416738e-06
5.146917840606251e-06
4.898838116727874e-06
4.662249504565405e-06
4.436643215508531e-06
4.221531842205873e-06
4.016448514152129e-06
3.820946084157975e-06
3.634596344681877e-06
3.456989273031412e-06
3.287732304470828e-06
3.126449632300182e-06
2.972781533995554e-06
2.826383722530831e-06
2.686926722024402e-06
2.554095266880663e-06
2.427587723620683e-06
2.307115534621408e-06
2.192402683004733e-06
2.083185177943407e-06
1.979210559670141e-06
1.880237423500901e-06
1.786034962203007e-06
1.696382526060528e-06
1.611069200008761e-06
1.529893397230656e-06
1.452662468625787e-06
1.379192327582744e-06
1.309307089502542e-06
1.242838725539849e-06
1.179626730045097e-06
1.1195178012076e-06
1.062365534416502e-06
1.00803012787185e-06
9.563780999936062e-07
9.072820181915742e-07
8.606202385739416e-07
8.162766561856408e-07
7.741404653823501e-07
7.341059299587131e-07
6.960721626626828e-07
6.599429137400887e-07
6.256263681663752e-07
5.930349512335441e-07
5.620851421724438e-07
5.326972955014727e-07
5.047954698034933e-07
4.783072636433927e-07
4.531636583487744e-07
4.292988673861376e-07
4.066501920745164e-07
3.851578833876677e-07
3.64765009604821e-07
3.454173295788924e-07
3.270631713991647e-07
3.096533162337393e-07
2.93140887144775e-07
2.774812426773476e-07
2.626318750297808e-07
2.485523126208055e-07
2.352040268753126e-07
2.225503430576553e-07
2.105563549872702e-07
1.991888434781767e-07
1.884161983494171e-07
1.782083438596491e-07
1.685366674244822e-07
1.593739514806978e-07
1.50694308366496e-07
1.424731180922601e-07
1.34686968880873e-07
1.273136003615234e-07
1.20331849305374e-07
1.137215977958304e-07
1.074637237303671e-07
1.015400535549676e-07
9.593331713607011e-08
9.062710467873887e-08
8.560582560339626e-08
8.085466929697602e-08
7.63595676576897e-08
7.210715935589346e-08
6.80847557366413e-08
6.428030829257598e-08
6.068237763862165e-08
5.728010392285638e-08
5.406317861050799e-08
5.102181758072996e-08
4.814673547818593e-08
4.542912126396323e-08
4.286061491258828e-08
4.04332852041315e-08
3.813960856257443e-08
3.597244889358132e-08
3.392503837684708e-08
3.199095917006965e-08
3.016412598340718e-08
2.843876948502476e-08
2.680942050003109e-08
2.527089496670286e-08
2.381827961544859e-08
2.244691833744652e-08
2.11523992113252e-08
1.993054215761786e-08
1.877738719203617e-08
1.768918324988024e-08
1.666237755509552e-08
1.569360550866477e-08
1.477968107212237e-08
1.391758762305903e-08
1.310446926048902e-08
1.233762253896341e-08
1.161448861121786e-08
1.093264576007479e-08
1.0289802301163e-08
9.683789838859428e-09
9.112556858638661e-09
8.57416263978184e-09
8.066771473126004e-09