/*--------------------------------*- C++ -*----------------------------------*\
| =========                 |                                                 |
| \\      /  F ield         | OpenFOAM: The Open Source CFD Toolbox           |
|  \\    /   O peration     | Version:  2412                                  |
|   \\  /    A nd           | Website:  www.openfoam.com                      |
|    \\/     M anipulation  |                                                 |
\*---------------------------------------------------------------------------*/
FoamFile
{
    version     2.0;
    format      ascii;
    arch        "LSB;label=32;scalar=64";
    class       volScalarField;
    location    "0";
    object      T_0;
}
// * * * * * * * * * * * * * * * * * * * * * * * * * * * * * * * * * * * * * //

dimensions      [0 0 0 1 0 0 0];

internalField   nonuniform List<scalar> 
2000
(
1.319137741367916e-14
1.428860533503787e-14
1.547555047627732e-14
1.675941835189216e-14
1.814798236213005e-14
1.964962766737737e-14
2.127339838151447e-14
2.302904832974186e-14
2.492709563410775e-14
2.69788814089453e-14
2.919663286873559e-14
3.159353117264919e-14
3.418378435327336e-14
3.69827057019126e-14
4.000679800946596e-14
4.327384409035275e-14
4.680300404740471e-14
5.061491976820068e-14
5.473182717813294e-14
5.917767681270852e-14
6.397826331137873e-14
6.916136447771114e-14
7.475689059615605e-14
8.079704474424288e-14
8.731649489090189e-14
9.43525586270617e-14
1.019454014338726e-13
1.101382494571605e-13
1.189776178242448e-13
1.285135556113883e-13
1.387999086471417e-13
1.498946014190553e-13
1.618599394389793e-13
1.747629335158257e-13
1.886756474846084e-13
2.036755710472452e-13
2.198460194943425e-13
2.372765621986206e-13
2.560634819000655e-13
2.763102669409839e-13
2.981281387564444e-13
3.216366170824827e-13
3.469641255120123e-13
3.742486402066152e-13
4.036383847628382e-13
4.352925744340474e-13
4.693822131251774e-13
5.060909468076132e-13
5.456159772468417e-13
5.881690401965515e-13
6.339774524911181e-13
6.832852327646691e-13
7.363543008403643e-13
7.934657611694501e-13
8.549212760571711e-13
9.210445347933017e-13
9.921828252100434e-13
1.06870871462126e-12
1.151021847555653e-12
1.239550868184492e-12
1.334755475863666e-12
1.437128622762122e-12
1.54719886313589e-12
1.665532864431507e-12
1.792738091066624e-12
1.92946567244161e-12
2.076413467486056e-12
2.23432933884233e-12
2.404014650635065e-12
2.58632800467705e-12
2.782189230918163e-12
2.992583648961179e-12
3.21856661854782e-12
3.461268398065461e-12
3.721899331342416e-12
4.001755384293727e-12
4.30222405435144e-12
4.624790677071258e-12
4.971045155854483e-12
5.342689142365652e-12
5.741543696968404e-12
6.169557460350629e-12
6.628815369470967e-12
7.121547953038366e-12
7.65014124394316e-12
8.217147348396643e-12
8.825295714017951e-12
9.477505141736564e-12
1.017689658916617e-11
1.092680681606223e-11
1.173080292560602e-11
1.25926978585773e-11
1.351656690099447e-11
1.450676526952553e-11
1.556794684291966e-11
1.670508411188851e-11
1.792348942429153e-11
1.922883760716769e-11
2.062719005211485e-11
2.212502035577396e-11
2.372924161273007e-11
2.544723546403122e-11
2.728688301074514e-11
2.925659770856887e-11
3.136536036646898e-11
3.362275637970064e-11
3.603901533536191e-11
3.86250531368597e-11
4.139251680241626e-11
4.435383210191915e-11
4.752225420620476e-11
5.091192153311997e-11
5.453791298562738e-11
5.841630878868397e-11
6.256425514380399e-11
6.70000329330262e-11
7.174313071757329e-11
7.681432229081687e-11
8.223574906025966e-11
8.803100754923357e-11
9.42252423258433e-11
1.00845244684497e-10
1.079195574241218e-10
1.154785860869883e-10
1.235547170429684e-10
1.321824428261155e-10
1.41398495153711e-10
1.512419860824755e-10
1.617545577825278e-10
1.729805414369268e-10
1.849671258034821e-10
1.977645360057471e-10
2.114262231521896e-10
2.260090654161274e-10
2.415735812446219e-10
2.581841554018081e-10
2.759092785917125e-10
2.948218014469248e-10
3.14999203713424e-10
3.365238795076825e-10
3.594834395708372e-10
3.839710314956032e-10
4.100856789554284e-10
4.379326410218384e-10
4.676237927154997e-10
4.992780279990535e-10
5.330216864856926e-10
5.689890052066869e-10
6.073225968539807e-10
6.481739559905398e-10
6.917039948017666e-10
7.380836100459654e-10
7.874942829508987e-10
8.401287138970585e-10
8.961914938266284e-10
9.558998144204722e-10
1.019484219193994e-09
1.087189397776896e-09
1.15927502576147e-09
1.23601665263006e-09
1.317706640404251e-09
1.404655155797111e-09
1.497191218795442e-09
1.595663810751641e-09
1.700443045225259e-09
1.811921404982597e-09
1.930515048739082e-09
2.056665191414481e-09
2.190839561865184e-09
2.333533942261356e-09
2.485273793490538e-09
2.646615971193018e-09
2.818150537268932e-09
3.000502671943377e-09
3.194334691733113e-09
3.400348178929105e-09
3.619286228491608e-09
3.85193581855126e-09
4.099130311020142e-09
4.361752089141508e-09
4.640735339147739e-09
4.937068983552171e-09
5.251799773973543e-09
5.586035551782372e-09
5.940948685266645e-09
6.317779692442384e-09
6.717841059081089e-09
7.142521261994343e-09
7.593289008104425e-09
8.071697700342003e-09
8.579390141946324e-09
9.118103491302058e-09
9.689674480031555e-09
1.029604490767296e-08
1.093926742690985e-08
1.162151163398808e-08
1.234507047964886e-08
1.311236701663645e-08
1.392596150059645e-08
1.478855886197537e-08
1.570301656735831e-08
1.667235288954623e-08
1.769975560657656e-08
1.878859115082978e-08
1.994241423034884e-08
2.116497794552096e-08
2.246024442533692e-08
2.383239600856236e-08
2.528584699631078e-08
2.682525600372183e-08
2.845553893971105e-08
3.018188264506815e-08
3.200975922055361e-08
3.394494107807571e-08
3.599351674950616e-08
3.816190748925174e-08
4.045688470830749e-08
4.288558827919472e-08
4.545554575294192e-08
4.817469253107636e-08
5.105139303749501e-08
5.409446293705902e-08
5.731319244978064e-08
6.071737081164459e-08
6.43173119352805e-08
6.812388132603953e-08
7.214852431141066e-08
7.640329564420785e-08
8.090089054255204e-08
8.565467723235286e-08
9.067873106080457e-08
9.598787025231336e-08
1.015976933812704e-07
1.075246186392441e-07
1.137859249774109e-07
1.203997952084058e-07
1.273853611552825e-07
1.347627509389473e-07
1.425531384991293e-07
1.50778795447946e-07
1.594631453591191e-07
1.686308206001476e-07
1.783077218190881e-07
1.885210802021237e-07
1.992995226227933e-07
2.106731398086362e-07
2.226735576559665e-07
2.353340118288524e-07
2.486894257835883e-07
2.627764923657387e-07
2.776337591324686e-07
2.933017175589769e-07
3.098228962939881e-07
3.272419586357325e-07
3.456058044064465e-07
3.649636764103507e-07
3.853672716670815e-07
4.068708576200299e-07
4.295313935265102e-07
4.534086572446607e-07
4.785653776399299e-07
5.050673728426405e-07
5.329836945964505e-07
5.623867789468585e-07
5.933526035277631e-07
6.259608517139527e-07
6.60295083917006e-07
6.964429163124016e-07
7.344962072960001e-07
7.745512519790153e-07
8.167089850415896e-07
8.610751922767154e-07
9.077607311679978e-07
9.568817608571749e-07
1.008559981869512e-06
1.062922885978752e-06
1.120104016605953e-06
1.180243240161109e-06
1.24348702874977e-06
1.309988754682359e-06
1.379908997237992e-06
1.453415862150961e-06
1.530685314303127e-06
1.611901524122326e-06
1.697257228203697e-06
1.786954104687705e-06
1.881203163946883e-06
1.980225155151245e-06
2.084250989301344e-06
2.19352217933673e-06
2.308291297948052e-06
2.428822453740672e-06
2.555391786418883e-06
2.688287981680948e-06
2.827812806537592e-06
2.97428166578818e-06
3.12802418041308e-06
3.289384788662865e-06
3.458723370651098e-06
3.636415897279924e-06
3.822855104355659e-06
4.018451192775375e-06
4.223632555693633e-06
4.438846533604756e-06
4.664560198304945e-06
4.901261166726015e-06
5.149458445662317e-06
5.40968330844247e-06
5.682490204626962e-06
5.9684577038453e-06
6.268189474916849e-06
6.582315301432431e-06
6.911492135007738e-06
7.256405187451603e-06
7.61776906312856e-06
7.996328932829155e-06
8.392861750497704e-06
8.808177514203375e-06
9.243120572778737e-06
9.698570979586069e-06
1.017544589491225e-05
1.067470103853072e-05
1.119733219401021e-05
1.174437676638927e-05
1.231691539487828e-05
1.291607362229126e-05
1.354302362295418e-05
1.419898599087669e-05
1.488523159002253e-05
1.560308346855336e-05
1.635391883897066e-05
1.713917112612256e-05
1.79603320850905e-05
1.8818953991018e-05
1.971665190298972e-05
2.065510600411867e-05
2.163606402004711e-05
2.266134371811679e-05
2.373283548951131e-05
2.485250501672901e-05
2.602239602878673e-05
2.724463314661632e-05
2.852142482115635e-05
2.985506636670341e-05
3.124794309213012e-05
3.270253353263838e-05
3.42214127847604e-05
3.580725594738144e-05
3.746284167160196e-05
3.919105582232175e-05
4.099489525447063e-05
4.287747170686967e-05
4.484201581676241e-05
4.689188125810346e-05
4.903054900674803e-05
5.126163173574358e-05
5.358887834396683e-05
5.601617862141477e-05
5.854756805450616e-05
6.118723277479611e-05
6.393951465456716e-05
6.680891655281154e-05
6.980010771516023e-05
7.291792933137633e-05
7.616740025407293e-05
7.955372288236822e-05
8.308228921423233e-05
8.675868707133999e-05
9.058870650026853e-05
9.457834635395363e-05
9.873382105732787e-05
0.0001030615675611374
0.0001075682524879499
0.0001122607794744279
0.0001171462967139608
0.0001222322047037959
0.0001275261642008414
0.000133036104390346
0.0001387702312716871
0.0001447370362655389
0.0001509453050466993
0.000157404126606898
0.0001641229025519201
0.0001711113566373916
0.0001783795445476033
0.0001859378639217545
0.0001937970646320049
0.000201968259317741
0.0002104629341804517
0.0002192929600436177
0.0002284706036820254
0.0002380085394248791
0.0002479198610371062
0.00025821809388321
0.0002689172073780354
0.0002800316277287455
0.0002915762509723196
0.0003035664563128319
0.0003160181197627286
0.0003289476280922955
0.0003423718930914275
0.0003563083661478084
0.0003707750531455
0.0003857905296878998
0.0004013739566489585
0.000417545096056468
0.0004343243273111463
0.0004517326637451354
0.0004697917695234933
0.0004885239768920876
0.0005079523037752264
0.000528100471726268
0.000548992924234251
0.0005706548453895558
0.0005931121789113713
0.0006163916475396789
0.0006405207727942506
0.0006655278951030301
0.0006914421943020753
0.0007182937105090654
0.0007461133653722145
0.0007749329836961743
0.0008047853154463785
0.0008357040581330182
0.0008677238795756025
0.0009008804410488882
0.0009352104208106199
0.0009707515380114035
0.001007542576986637
0.001045623411930199
0.001085035031949374
0.001125819566500123
0.001168020311201486
0.001211681754027736
0.001256849601876317
0.001303570807509598
0.001351893596867776
0.001401867496750218
0.001453543362861946
0.001506973408221645
0.001562211231927312
0.001619311848274979
0.001678331716225908
0.001739328769216832
0.001802362445307709
0.001867493717660827
0.001934785125344663
0.002004300804455496
0.00207610651954922
0.002150269695375354
0.002226859448904716
0.002305946621641728
0.002387603812211809
0.002471905409213699
0.002558927624326193
0.002648748525657858
0.002741448071328271
0.002837108143268022
0.002935812581225055
0.003037647216963171
0.003142699908639115
0.003251060575343197
0.003362821231787913
0.003478076023128923
0.003596921259901184
0.003719455453053399
0.00384577934906239
0.003975995965108788
0.004110210624294834
0.004248530990884127
0.00439106710554238
0.004537931420558108
0.004689238835020752
0.004845106729933479
0.005005655003237154
0.005171006104720971
0.005341285070794881
0.005516619559097706
0.005697139882914941
0.005882979045378538
0.00607427277342073
0.006271159551453358
0.006473780654742988
0.00668228018245185
0.006896805090313114
0.007117505222909388
0.007344533345521734
0.007578045175515655
0.007818199413230855
0.008065157772339222
0.008319085009636462
0.008580148954230796
0.008848520536091888
0.009124373813922842
0.009407886002316393
0.009699237498157263
0.009998611906230059
0.01030619606399327
0.01062218006547827
0.0109467572842711
0.01128012439553581
0.01162248139703599
0.01197403162911102
0.0123349817935635
0.01270554197141256
0.0130859256394689
0.01347634968568507
0.0138770344232354
0.01428820360327876
0.01471008442635726
0.01514290755238254
0.01558690710916412
0.01604232069942756
0.01650938940627828
0.01698835779705832
0.01747947392554944
0.01798298933247089
0.01849915904422463
0.01902824156983493
0.01957049889603518
0.0201261964804503
0.02069560324282382
0.02127899155424053
0.02187663722429436
0.02248881948614943
0.02311582097944627
0.02375792773100105
0.02441542913324997
0.02508861792038672
0.02577779014214466
0.02648324513517511
0.02720528549197174
0.02794421702729306
0.02870034874203419
0.02947399278450225
0.03026546440904685
0.03107508193199812
0.03190316668487028
0.03275004296478184
0.03361603798205046
0.03450148180491787
0.03540670730136328
0.03633205007796211
0.03727784841575257
0.03824444320306495
0.03923217786528158
0.04024139829148589
0.04127245275796538
0.04232569184853577
0.04340146837164833
0.04450013727425414
0.04562205555239173
0.04676758215846689
0.04793707790520366
0.04913090536623368
0.05034942877330474
0.05159301391008611
0.05286202800254639
0.05415683960589154
0.05547781848804056
0.05682533550962903
0.05819976250052872
0.05960147213286634
0.0610308377905427
0.06248823343524157
0.06397403346892501
0.06548861259281606
0.06703234566287168
0.06860560754174522
0.07020877294725136
0.07184221629733797
0.07350631155158109
0.07520143204921584
0.07692795034371874
0.07868623803396725
0.08047666559199584
0.08229960218737845
0.08415541550826004
0.0860444715790796
0.08796713457501164
0.0899237666331686
0.09191472766060604
0.09394037513917509
0.09600106392726791
0.09809714605851566
0.1002289705374803
0.1023968831324137
0.1046012261651343
0.106842338298089
0.1091205543186753
0.1114362049208818
0.1137896164843344
0.1161811108508247
0.118611005098395
0.1210796113130731
0.1235872363583447
0.1261341816424531
0.1287207428836232
0.1313472098733088
0.1340138662375694
0.1367209891966777
0.1394688493230675
0.1422577102977439
0.145087828665257
0.1479594535873744
0.1508728265955646
0.1538281813424194
0.1568257433521564
0.1598657297703142
0.162948349112794
0.1660738010143783
0.1692422759768708
0.1724539551170008
0.1757090099142488
0.1790076019587261
0.1823498826992876
0.1857359931920083
0.1891660638492056
0.1926402141891526
0.1961585525866586
0.1997211760246703
0.2033281698470827
0.2069796075129138
0.2106755503520183
0.2144160473225305
0.2182011347701978
0.2220308361897907
0.2259051619887747
0.2298241092534185
0.2337876615175314
0.2377957885340067
0.2418484460493661
0.2459455755814927
0.2500871042007327
0.2542729443145649
0.2585029934560312
0.2627771340761046
0.2670952333402014
0.2714571429290248
0.2758626988439298
0.2803117212169985
0.2848040141260294
0.2893393654146218
0.2939175465175433
0.2985383122915882
0.303201400852096
0.3079065334153289
0.3126534141468951
0.3174417300164086
0.3222711506585491
0.3271413282407427
0.3320518973375978
0.3370024748123216
0.3419926597052526
0.3470220331297205
0.3520901581753705
0.3571965798191566
0.3623408248441333
0.3675224017662441
0.3727408007692417
0.3779954936479056
0.3832859337597097
0.3886115559850966
0.3939717766964799
0.3993659937361547
0.4047935864032035
0.410253915449582
0.4157463230854676
0.4212701329940292
0.4268246503557053
0.4324091618821291
0.4380229358597887
0.4436652222035462
0.4493352525200779
0.4550322401813658
0.4607553804083019
0.4665038503644851
0.4722768092602853
0.4780733984672562
0.4838927416429262
0.4897339448660475
0.495596096782345
0.5014782687607919
0.5073795150604469
0.5132988730079079
0.5192353631853549
0.5251879896292263
0.5311557400395256
0.5371375859997477
0.5431324832074222
0.5491393717152446
0.5551571761827864
0.5611848061387313
0.5672211562536129
0.5732651066229894
0.5793155230610043
0.5853712574042743
0.5914311478260242
0.5974940191603737
0.6035586832367267
0.6096239392241108
0.6156885739854248
0.6217513624414102
0.6278110679442965
0.6338664426609273
0.6399162279652862
0.6459591548402275
0.6519939442882974
0.6580193077514563
0.6640339475395537
0.6700365572673762
0.6760258223000564
0.6820004202067044
0.6879590212220095
0.6939002887156349
0.699822879669186
0.7057254451605265
0.7116066308552221
0.7174650775048584
0.7232994214520195
0.7291082951416533
0.7348903276385803
0.7406441451508771
0.7463683715588749
0.7520616289494982
0.7577225381556483
0.7633497193003673
0.7689417923454803
0.7744973776444175
0.7800150964989191
0.7854935717193183
0.7909314281880735
0.7963272934262643
0.8016797981627055
0.8069875769053579
0.812249268514724
0.8174635167788771
0.8226289709897999
0.8277442865206883
0.8328081254038889
0.8378191569091125
0.842776058121584
0.8476775145197863
0.8525222205524428
0.8573088802143759
0.8620362076209125
0.8667029275804649
0.8713077761649275
0.8758495012775586
0.8803268632179675
0.884738635243862
0.8890836041291987
0.8933605707183941
0.8975683504762192
0.9017057740330446
0.9057716877250912
0.9097649541293104
0.9136844525925761
0.9175290797548297
0.9212977500658459
0.924989396295262
0.9286029700355686
0.9321374421976959
0.9355918034988928
0.9389650649425553
0.9422562582897106
0.945464436521816
0.9485886742945802
0.9516280683824967
0.9545817381137918
0.9574488257954922
0.9602284971283278
0.9629199416111888
0.9655223729348624
0.968035029364777
0.9704571741124973
0.9727880956957224
0.9750271082865266
0.9771735520476181
0.9792267934563771
0.9811862256164492
0.9830512685566902
0.9848213695172415
0.9864960032225507
0.9880746721411422
0.9895569067319585
0.9909422656771066
0.9922303361008373
0.9934207337746178
0.9945131033081476
0.9955071183261851
0.9964024816310632
0.9971989253507817
0.9978962110725704
0.9984941299618323
0.9989925028663816
0.9993911804059054
0.9996900430465849
0.999889001160827
0.9999879950720597
0.9999869950845647
0.9998860014983231
0.9996850446088659
0.9993841846921276
0.9989835119743151
0.9984831465868115
0.9978832385061482
0.9971839674790857
0.9963855429328549
0.995488203870625
0.9944922187522672
0.993397885360499
0.9922055306525044
0.9909155105971289
0.9895282099977687
0.9880440423010708
0.9864634493915857
0.9847869013725047
0.9830148963326443
0.9811479600998332
0.9791866459808745
0.9771315344882651
0.9749832330538538
0.9727423757296526
0.9704096228759811
0.9679856608371878
0.96547120160515
0.9628669824707911
0.960173765663853
0.9573923379811778
0.9545235104037313
0.9515681177026558
0.9485270180346018
0.945401092526617
0.9421912448508784
0.9388984007895502
0.9355235077900611
0.9320675345111037
0.928531470359649
0.9249163250193081
0.9212231279703266
0.9174529280015528
0.9136067927146981
0.9096858080212076
0.9056910776320873
0.9016237225410076
0.8974848805010394
0.8932757054953387
0.8889973672021573
0.8846510504544929
0.8802379546947409
0.875759293424712
0.8712162936513471
0.8666101953284787
0.8619422507950234
0.8572137242099286
0.852425890984245
0.8475800372106714
0.8426774590909401
0.8377194623613834
0.8327073617170426
0.8276424802346617
0.8225261487949473
0.8173597055044023
0.8121444951171174
0.8068818684568403
0.8015731818396938
0.7962197964978596
0.7908230780045701
0.7853843957007602
0.7799051221236902
0.774386632437886
0.7688303038687014
0.7632375151388401
0.7576096459081464
0.7519480762169772
0.7462541859334527
0.7405293542049081
0.7347749589138236
0.7289923761385321
0.7231829796189861
0.7173481402278722
0.7114892254473449
0.7056075988516287
0.6997046195957809
0.6937816419108574
0.6878400146057085
0.6818810805756925
0.6759061763184917
0.6699166314573056
0.6639137682716035
0.6578989012356701
0.6518733365651646
0.645838371771842
0.6397952952267053
0.6337453857316846
0.6276899121000991
0.6216301327460155
0.6155672952826955
0.6095026361302655
0.6034373801327665
0.5973727401847174
0.5913099168673184
0.5852500980944143
0.5791944587683445
0.573144160445763
0.5671003510135471
0.5610641643748665
0.5550367201455081
0.5490191233605158
0.5430124641912253
0.5370178176727359
0.5310362434418888
0.525068785485762
0.5191164719007565
0.513180314662258
0.5072613094049314
0.5013604352136178
0.4954786544248779
0.489616912439158
0.4837761375435486
0.4779572407451642
0.4721611156150681
0.4663886381427402
0.4606406666010426
0.4549180414216247
0.4492215850807282
0.4435521019953243
0.4379103784295226
0.432297182411169
0.4267132636585598
0.4211593535171914
0.4156361649064538
0.4101443922761511
0.4046847115727834
0.3992577802154476
0.3938642370812683
0.3885047025002293
0.3831797782592749
0.3778900476155844
0.3726360753188421
0.3674184076424085
0.3622375724232222
0.3570940791103042
0.3519884188217036
0.3469210644097415
0.3418924705343898
0.3369030737446308
0.3319532925676226
0.3270435276055227
0.322174161639782
0.3173455597427468
0.3125580693963954
0.3078120206180275
0.3031077260927298
0.2984454813124325
0.2938255647213868
0.2892482378678592
0.2847137455618757
0.2802223160388153
0.2757741611286649
0.2713694764307618
0.2670084414938053
0.2626912200009785
0.2584179599599621
0.2541887938976609
0.2500038390594501
0.2458631976127539
0.2417669568547493
0.2377151894240156
0.2337079535159413
0.2297452931016886
0.225827238150524
0.2219538048553431
0.2181249958611758
0.214340800496512
0.2106011950072348
0.2069061427930064
0.2032555946458926
0.1996494889910707
0.1960877521294273
0.192570298481872
0.1890970308351927
0.1856678405892747
0.1822826080055169
0.1789412024562691
0.175643482675141
0.1723892970079864
0.1691784836644343
0.1660108709697915
0.1628862776171544
0.1598045129195884
0.1567653770622229
0.1537686613541018
0.1508141484796527
0.1479016127496433
0.1450308203514596
0.1422015295985954
0.1394134911792057
0.1366664484035997
0.1339601374505504
0.1312942876122819
0.1286686215380402
0.1260828554761091
0.1235366995141638
0.121029857817867
0.1185620288675774
0.1161329056930844
0.1137421761062671
0.1113895229315796
0.109074624234269
0.1067971535462391
0.1045567800894739
0.102353168996949
0.1001859815309218
0.09805487529856823
0.09595950446486144
0.09389951996263511
0.09187456969977226
0.08988429876344789
0.08792834962137508
0.08600636231999419
0.08411797467956084
0.08226282248607632
0.08044053968001957
0.07865075854184075
0.07689310987417514
0.07516722318074229
0.07347272684189361
0.07180924828679507
0.07017641416219583
0.06857385049777691
0.06700118286805008
0.06545803655079691
0.06394403668202492
0.06245880840743205
0.0610019770303759
0.05957316815632979
0.05817200783383004
0.05679812269191038
0.05545114007402027
0.05413068816844242
0.05283639613519539
0.05156789422945086
0.0503248139214565
0.04910678801299396
0.04791345075036869
0.04674443793396657
0.04559938702437774
0.0444779372451222
0.04337972968199083
0.04230440737902903
0.04125161543119068
0.04022100107368359
0.03921221376804191
0.03822490528495152
0.03725872978386418
0.03631334388942944
0.03538840676478479
0.03448358018173434
0.03359852858785532
0.03273291917057395
0.03188642191824663
0.03105870967828789
0.03024945821238682
0.02945834624885678
0.02868505553215699
0.02792927086963703
0.02719068017554121
0.02646897451232567
0.02576384812933243
0.02507499849886367
0.02440212634971028
0.02374493569817711
0.02310313387665692
0.02247643155979995
0.02186454278832914
0.02126718499055252
0.02068407900161655
0.02011494908055887
0.01955952292520223
0.01901753168494652
0.01848870997150581
0.01797279586763979
0.01746953093393533
0.01697866021367989
0.0164999322358866
0.0160330990165134
0.01557791605792995
0.01513414234668163
0.01470154034960014
0.01427987600830793
0.01386891873216901
0.01346844138973168
0.01307822029871282
0.01269803521457259
0.01232766931772348
0.01196690919942457
0.01161554484640826
0.01127336962427888
0.0109401802597371
0.0106157768216708
0.01029996270115698
0.009992544590419709
0.00969333246078735
0.009402139539692081
0.009118782286753148
0.008843080368985156
0.008574856635174426
0.008313937089461213
0.008060150864168515
0.00781333019191646
0.007573310377059708
0.007339929766486977
0.007113029719817534
0.006892454579031815
0.006678051637572027
0.006469671108946158
0.006267166094870043
0.006070392552981005
0.005879209264154468
0.005693477799456191
0.005513062486761204
0.00533783037706805
0.005167651210539999
0.005002397382300779
0.004841943908012617
0.004686168389264594
0.004534950978797179
0.00438817434558895
0.004245723639830899
0.004107486457811957
0.003973352806739573
0.003843215069518899
0.003716967969511329
0.003594508535295454
0.003475736065449427
0.003360552093376844
0.003248860352193286
0.003140566739693983
0.003035579283419756
0.002933808105838383
0.002835165389658971
0.0027395653432944
0.002646924166487608
0.002557160016116779
0.002470192972193116
0.002385945004064932
0.002304339936841163
0.002225303418046101
0.002148762884517806
0.002074647529561051
0.002002888270365142
0.001933417715697335
0.001866170133880916
0.001801081421067186
0.001738089069809751
0.001677132137949166
0.00161815121781551
0.001561088405755929
0.00150588727199348
0.001452492830823705
0.001400851511154355
0.001350911127393783
0.001302620850692266
0.00125593118054126
0.001210793916734164
0.001167162131692372
0.001124990143159672
0.001084233487267997
0.001044848891977041
0.001006794250889513
0.0009700285974443921
0.0009345120794892332
0.0009002059342328841
0.0008670724635793713
0.0008350750098436573
0.0008041779318493865
0.0007743465814087907
0.0007455472801844107
0.0007177472969321162
0.0006909148251247506
0.0006650189609554069
0.0006400296817190208
0.0006159178245710066
0.0005926550656612397
0.0005702138996415579
0.0005485676195448225
0.0005276902970332452
0.0005075567630137162
0.0004881425886176416
0.000469424066542463
0.0004513781927521716
0.0004339826485337879
0.0004172157829068002
0.0004010565953821734
0.0003854847190677963
0.0003704804041167623
0.0003560245015150714
0.0003420984472050308
0.0003286842465405927
0.0003157644590709584
0.0003033221836484409
0.0002913410438566247
0.0002798051737548986
0.000268699203935198
0.0002580082478868387
0.0002477178886652844
0.0002378141658605861
0.0002282835628612833
0.0002191129944094226
0.0002102897944423957
0.000201801704217233
0.0001936368607130059
0.0001857837853069707
0.0001782313727200074
0.0001709688802269789
0.0001639859171276653
0.0001572724344737739
0.0001508187150476943
0.0001446153635885728
0.0001386532972613371
0.0001329237363643142
0.0001274181952710603
0.0001221284736020869
0.000117046647622161
0.0001121650618589037
0.0001074763209384105
0.0001029732816336604
9.864904512151726e-05
9.449694944414162e-05
9.051056217068835e-05
8.668367325517765e-05
8.30102880864833e-05
7.948462072641939e-05
7.610108733192261e-05
7.285429975742138e-05
6.973905933347154e-05
6.675035081782306e-05
6.388333651509457e-05
6.113335056132201e-05
5.849589336964522e-05
5.596662623350107e-05
5.354136608367767e-05
5.121608039570168e-05
4.898688224401539e-05
4.685002549951786e-05
4.480190016703754e-05
4.283902785939218e-05
4.095805740473184e-05
3.915576058391927e-05
3.742902799474569e-05
3.577486503984574e-05
3.419038803521596e-05
3.267282043630596e-05
3.121948917869928e-05
2.982782113045361e-05
2.849533965322927e-05
2.721966126937653e-05
2.599849243222147e-05
2.482962639683006e-05
2.371094018859034e-05
2.264039166699513e-05
2.161601668207772e-05
2.063592632098311e-05
1.969830424222955e-05
1.880140409524412e-05
1.794354702283037e-05
1.712311924425839e-05
1.633856971672176e-05
1.558840787296e-05
1.48712014328919e-05
1.418557428714366e-05
1.353020445041973e-05
1.290382208269895e-05
1.230520757628797e-05
1.17331897068117e-05
1.118664384626332e-05
1.066449023628498e-05
1.016569231988577e-05
9.689255129857497e-06
9.234223732183564e-06
8.799681722780987e-06
8.384749775956683e-06
7.988584243001507e-06
7.610375799378757e-06
7.249348139015062e-06
6.904756714227318e-06
6.575887519865503e-06
6.262055920285779e-06
5.9626055178044e-06
5.676907061320317e-06
5.404357393827232e-06
5.144378437572902e-06
4.896416215655415e-06
4.659939908880006e-06
4.434440946732782e-06
4.219432131358355e-06
4.014446793460916e-06
3.8190379790779e-06
3.632777666205191e-06
3.455256010282339e-06
3.286080617574388e-06
3.124875845516079e-06
2.971282129108184e-06
2.82495533248675e-06
2.685566124808805e-06
2.552799379624691e-06
2.426353596931674e-06
2.305940347128327e-06
2.191283736111344e-06
2.082119890782048e-06
1.978196464248946e-06
1.87927216003777e-06
1.785116274639723e-06
1.695508257750637e-06
1.61023728957306e-06
1.529101874574257e-06
1.451909451111035e-06
1.378476016352352e-06
1.308625765947467e-06
1.242190747906762e-06
1.179010530178292e-06
1.118931881420429e-06
1.06180846448763e-06
1.007500542161662e-06
9.558746946764082e-07
9.068035485992166e-07
8.601655166467473e-07
8.158445480266206e-07
7.737298889108309e-07
7.337158526596149e-07
6.957015994278503e-07
6.595909247981741e-07
6.252920570978892e-07
5.927174630678218e-07
5.617836615634014e-07
5.32411044979092e-07
5.045237080981137e-07
4.780492840800125e-07
4.529187873085909e-07
4.290664628327483e-07
4.064296421421953e-07
3.849486050293268e-07
3.645664472972564e-07
3.452289540830805e-07
3.268844785733883e-07
3.094838258974735e-07
2.929801419912626e-07
2.773288072329452e-07
2.624873346581666e-07
2.484152725702439e-07
2.350741113672334e-07
2.224271944148606e-07
2.104396328001576e-07
1.990782238074159e-07
1.883113729635866e-07
1.781090195063904e-07
1.684425651337888e-07
1.592848058989998e-07
1.506098671202665e-07
1.423931411799051e-07
1.346112280917266e-07
1.272418787208015e-07
1.202639405440031e-07
1.136573058440922e-07
1.074028622343544e-07
1.014824454148752e-07
9.58787940653996e-08
9.057550678351324e-08
8.55570009805308e-08
8.080847365097845e-08
7.631586393490191e-08
7.206581739551081e-08
6.804565193778638e-08
6.42433252967223e-08
6.064740402670092e-08
5.724703392640372e-08
5.403191183623073e-08
5.09922587479059e-08
4.81187941683271e-08
4.540271168219893e-08
4.283565566024915e-08
4.040969906203368e-08
3.811732228452657e-08
3.595139300965605e-08
3.390514700597839e-08
3.197216984155516e-08
3.014637946691447e-08
2.842200962871448e-08
2.679359407642979e-08
2.525595152597135e-08
2.380417134570795e-08
2.243359993183981e-08
2.113982774150327e-08
1.991867695335516e-08
1.876618972669329e-08
1.767861703144108e-08
1.665240802252213e-08
1.568419993332078e-08
1.477080846402958e-08
1.390921864176021e-08
1.309657613030126e-08
1.233017896841506e-08
1.160746971647218e-08
1.092602799215189e-08
1.028356337677903e-08
9.677908674712582e-09
9.107013508976479e-09
8.56893823709363e-09