/*--------------------------------*- C++ -*----------------------------------*\
| =========                 |                                                 |
| \\      /  F ield         | OpenFOAM: The Open Source CFD Toolbox           |
|  \\    /   O peration     | Version:  2412                                  |
|   \\  /    A nd           | Website:  www.openfoam.com                      |
|    \\/     M anipulation  |                                                 |
\*---------------------------------------------------------------------------*/
FoamFile
{
    version     2.0;
    format      ascii;
    arch        "LSB;label=32;scalar=64";
    class       volVectorField;
    location    "0.32";
    object      U_0;
}
// * * * * * * * * * * * * * * * * * * * * * * * * * * * * * * * * * * * * * //

dimensions      [0 1 -1 0 0 0 0];

internalField   nonuniform List<vector> 
800
(
(0.00196001 0 0)
(0.00588007 0 0)
(0.0098001 0 0)
(0.01372 0 0)
(0.0176399 0 0)
(0.0215596 0 0)
(0.0254791 0 0)
(0.0293985 0 0)
(0.0333176 0 0)
(0.0372364 0 0)
(0.041155 0 0)
(0.0450733 0 0)
(0.0489912 0 0)
(0.0529087 0 0)
(0.0568258 0 0)
(0.0607425 0 0)
(0.0646586 0 0)
(0.0685743 0 0)
(0.0724895 0 0)
(0.0764041 0 0)
(0.0803181 0 0)
(0.0842315 0 0)
(0.0881442 0 0)
(0.0920562 0 0)
(0.0959676 0 0)
(0.0998781 0 0)
(0.103788 0 0)
(0.107697 0 0)
(0.111605 0 0)
(0.115512 0 0)
(0.119419 0 0)
(0.123324 0 0)
(0.127229 0 0)
(0.131132 0 0)
(0.135035 0 0)
(0.138936 0 0)
(0.142836 0 0)
(0.146735 0 0)
(0.150633 0 0)
(0.15453 0 0)
(0.158426 0 0)
(0.16232 0 0)
(0.166213 0 0)
(0.170105 0 0)
(0.173995 0 0)
(0.177885 0 0)
(0.181772 0 0)
(0.185658 0 0)
(0.189543 0 0)
(0.193426 0 0)
(0.197308 0 0)
(0.201188 0 0)
(0.205067 0 0)
(0.208943 0 0)
(0.212819 0 0)
(0.216692 0 0)
(0.220564 0 0)
(0.224434 0 0)
(0.228302 0 0)
(0.232168 0 0)
(0.236033 0 0)
(0.239895 0 0)
(0.243756 0 0)
(0.247615 0 0)
(0.251471 0 0)
(0.255326 0 0)
(0.259178 0 0)
(0.263029 0 0)
(0.266877 0 0)
(0.270723 0 0)
(0.274567 0 0)
(0.278409 0 0)
(0.282248 0 0)
(0.286085 0 0)
(0.28992 0 0)
(0.293752 0 0)
(0.297582 0 0)
(0.301409 0 0)
(0.305234 0 0)
(0.309056 0 0)
(0.312876 0 0)
(0.316693 0 0)
(0.320508 0 0)
(0.324319 0 0)
(0.328128 0 0)
(0.331935 0 0)
(0.335738 0 0)
(0.339539 0 0)
(0.343337 0 0)
(0.347132 0 0)
(0.350924 0 0)
(0.354713 0 0)
(0.358498 0 0)
(0.362281 0 0)
(0.366061 0 0)
(0.369838 0 0)
(0.373611 0 0)
(0.377381 0 0)
(0.381148 0 0)
(0.384912 0 0)
(0.388672 0 0)
(0.392429 0 0)
(0.396182 0 0)
(0.399932 0 0)
(0.403679 0 0)
(0.407422 0 0)
(0.411161 0 0)
(0.414897 0 0)
(0.418629 0 0)
(0.422357 0 0)
(0.426081 0 0)
(0.429802 0 0)
(0.433519 0 0)
(0.437232 0 0)
(0.440941 0 0)
(0.444646 0 0)
(0.448347 0 0)
(0.452044 0 0)
(0.455736 0 0)
(0.459425 0 0)
(0.463109 0 0)
(0.466789 0 0)
(0.470465 0 0)
(0.474136 0 0)
(0.477803 0 0)
(0.481466 0 0)
(0.485124 0 0)
(0.488777 0 0)
(0.492426 0 0)
(0.496071 0 0)
(0.49971 0 0)
(0.503345 0 0)
(0.506975 0 0)
(0.5106 0 0)
(0.51422 0 0)
(0.517835 0 0)
(0.521446 0 0)
(0.525051 0 0)
(0.528651 0 0)
(0.532246 0 0)
(0.535835 0 0)
(0.53942 0 0)
(0.542999 0 0)
(0.546572 0 0)
(0.55014 0 0)
(0.553703 0 0)
(0.55726 0 0)
(0.560812 0 0)
(0.564358 0 0)
(0.567898 0 0)
(0.571432 0 0)
(0.57496 0 0)
(0.578483 0 0)
(0.582 0 0)
(0.58551 0 0)
(0.589015 0 0)
(0.592513 0 0)
(0.596005 0 0)
(0.599491 0 0)
(0.60297 0 0)
(0.606443 0 0)
(0.60991 0 0)
(0.61337 0 0)
(0.616823 0 0)
(0.62027 0 0)
(0.623709 0 0)
(0.627143 0 0)
(0.630569 0 0)
(0.633988 0 0)
(0.6374 0 0)
(0.640805 0 0)
(0.644203 0 0)
(0.647594 0 0)
(0.650978 0 0)
(0.654354 0 0)
(0.657722 0 0)
(0.661083 0 0)
(0.664437 0 0)
(0.667782 0 0)
(0.67112 0 0)
(0.67445 0 0)
(0.677772 0 0)
(0.681086 0 0)
(0.684392 0 0)
(0.68769 0 0)
(0.69098 0 0)
(0.694261 0 0)
(0.697534 0 0)
(0.700798 0 0)
(0.704053 0 0)
(0.7073 0 0)
(0.710538 0 0)
(0.713768 0 0)
(0.716988 0 0)
(0.720199 0 0)
(0.723401 0 0)
(0.726594 0 0)
(0.729777 0 0)
(0.732951 0 0)
(0.736115 0 0)
(0.73927 0 0)
(0.742415 0 0)
(0.74555 0 0)
(0.748675 0 0)
(0.75179 0 0)
(0.754895 0 0)
(0.75799 0 0)
(0.761074 0 0)
(0.764147 0 0)
(0.76721 0 0)
(0.770263 0 0)
(0.773304 0 0)
(0.776335 0 0)
(0.779354 0 0)
(0.782362 0 0)
(0.785359 0 0)
(0.788345 0 0)
(0.791318 0 0)
(0.79428 0 0)
(0.797231 0 0)
(0.800169 0 0)
(0.803095 0 0)
(0.806009 0 0)
(0.808911 0 0)
(0.8118 0 0)
(0.814676 0 0)
(0.81754 0 0)
(0.82039 0 0)
(0.823228 0 0)
(0.826052 0 0)
(0.828863 0 0)
(0.831661 0 0)
(0.834444 0 0)
(0.837214 0 0)
(0.83997 0 0)
(0.842711 0 0)
(0.845439 0 0)
(0.848151 0 0)
(0.850849 0 0)
(0.853532 0 0)
(0.8562 0 0)
(0.858853 0 0)
(0.861491 0 0)
(0.864113 0 0)
(0.866719 0 0)
(0.869309 0 0)
(0.871883 0 0)
(0.87444 0 0)
(0.876981 0 0)
(0.879505 0 0)
(0.882012 0 0)
(0.884502 0 0)
(0.886974 0 0)
(0.889429 0 0)
(0.891866 0 0)
(0.894285 0 0)
(0.896685 0 0)
(0.899067 0 0)
(0.90143 0 0)
(0.903774 0 0)
(0.906099 0 0)
(0.908404 0 0)
(0.910689 0 0)
(0.912954 0 0)
(0.915199 0 0)
(0.917423 0 0)
(0.919626 0 0)
(0.921807 0 0)
(0.923968 0 0)
(0.926106 0 0)
(0.928222 0 0)
(0.930316 0 0)
(0.932387 0 0)
(0.934435 0 0)
(0.93646 0 0)
(0.93846 0 0)
(0.940437 0 0)
(0.942389 0 0)
(0.944316 0 0)
(0.946218 0 0)
(0.948095 0 0)
(0.949945 0 0)
(0.951769 0 0)
(0.953567 0 0)
(0.955337 0 0)
(0.957079 0 0)
(0.958794 0 0)
(0.96048 0 0)
(0.962137 0 0)
(0.963764 0 0)
(0.965362 0 0)
(0.966929 0 0)
(0.968465 0 0)
(0.96997 0 0)
(0.971443 0 0)
(0.972884 0 0)
(0.974291 0 0)
(0.975665 0 0)
(0.977004 0 0)
(0.978309 0 0)
(0.979578 0 0)
(0.980812 0 0)
(0.982008 0 0)
(0.983168 0 0)
(0.984289 0 0)
(0.985371 0 0)
(0.986414 0 0)
(0.987417 0 0)
(0.988378 0 0)
(0.989298 0 0)
(0.990175 0 0)
(0.991009 0 0)
(0.991799 0 0)
(0.992543 0 0)
(0.993241 0 0)
(0.993891 0 0)
(0.994494 0 0)
(0.995048 0 0)
(0.995551 0 0)
(0.996003 0 0)
(0.996403 0 0)
(0.99675 0 0)
(0.997041 0 0)
(0.997277 0 0)
(0.997455 0 0)
(0.997574 0 0)
(0.997634 0 0)
(0.997632 0 0)
(0.997568 0 0)
(0.997438 0 0)
(0.997243 0 0)
(0.99698 0 0)
(0.996648 0 0)
(0.996244 0 0)
(0.995767 0 0)
(0.995215 0 0)
(0.994585 0 0)
(0.993876 0 0)
(0.993086 0 0)
(0.992212 0 0)
(0.991252 0 0)
(0.990202 0 0)
(0.989061 0 0)
(0.987826 0 0)
(0.986494 0 0)
(0.985061 0 0)
(0.983524 0 0)
(0.981881 0 0)
(0.980126 0 0)
(0.978258 0 0)
(0.976271 0 0)
(0.974161 0 0)
(0.971925 0 0)
(0.969556 0 0)
(0.967051 0 0)
(0.964404 0 0)
(0.961608 0 0)
(0.958659 0 0)
(0.95555 0 0)
(0.952274 0 0)
(0.948824 0 0)
(0.945191 0 0)
(0.941367 0 0)
(0.937344 0 0)
(0.933111 0 0)
(0.928658 0 0)
(0.923974 0 0)
(0.919045 0 0)
(0.91386 0 0)
(0.908401 0 0)
(0.902655 0 0)
(0.896602 0 0)
(0.890224 0 0)
(0.883498 0 0)
(0.8764 0 0)
(0.868904 0 0)
(0.86098 0 0)
(0.852593 0 0)
(0.843705 0 0)
(0.834272 0 0)
(0.824244 0 0)
(0.813561 0 0)
(0.802156 0 0)
(0.789948 0 0)
(0.776839 0 0)
(0.762714 0 0)
(0.747427 0 0)
(0.7308 0 0)
(0.7126 0 0)
(0.692525 0 0)
(0.670164 0 0)
(0.644936 0 0)
(0.615987 0 0)
(0.582004 0 0)
(0.540887 0 0)
(0.489262 0 0)
(0.422008 0 0)
(0.33264 0 0)
(0.216241 0 0)
(0.075471 0 0)
(-0.0754208 0 0)
(-0.216189 0 0)
(-0.332586 0 0)
(-0.421956 0 0)
(-0.489213 0 0)
(-0.540842 0 0)
(-0.581964 0 0)
(-0.615951 0 0)
(-0.644903 0 0)
(-0.670134 0 0)
(-0.692498 0 0)
(-0.712575 0 0)
(-0.730777 0 0)
(-0.747407 0 0)
(-0.762695 0 0)
(-0.776822 0 0)
(-0.789932 0 0)
(-0.802141 0 0)
(-0.813548 0 0)
(-0.824231 0 0)
(-0.83426 0 0)
(-0.843694 0 0)
(-0.852583 0 0)
(-0.86097 0 0)
(-0.868895 0 0)
(-0.876392 0 0)
(-0.88349 0 0)
(-0.890216 0 0)
(-0.896596 0 0)
(-0.902649 0 0)
(-0.908396 0 0)
(-0.913854 0 0)
(-0.919041 0 0)
(-0.923969 0 0)
(-0.928654 0 0)
(-0.933107 0 0)
(-0.93734 0 0)
(-0.941364 0 0)
(-0.945188 0 0)
(-0.948821 0 0)
(-0.952272 0 0)
(-0.955548 0 0)
(-0.958657 0 0)
(-0.961606 0 0)
(-0.964402 0 0)
(-0.967049 0 0)
(-0.969555 0 0)
(-0.971923 0 0)
(-0.97416 0 0)
(-0.97627 0 0)
(-0.978257 0 0)
(-0.980126 0 0)
(-0.98188 0 0)
(-0.983523 0 0)
(-0.98506 0 0)
(-0.986493 0 0)
(-0.987826 0 0)
(-0.989061 0 0)
(-0.990202 0 0)
(-0.991251 0 0)
(-0.992212 0 0)
(-0.993086 0 0)
(-0.993876 0 0)
(-0.994585 0 0)
(-0.995214 0 0)
(-0.995767 0 0)
(-0.996244 0 0)
(-0.996647 0 0)
(-0.99698 0 0)
(-0.997243 0 0)
(-0.997438 0 0)
(-0.997567 0 0)
(-0.997632 0 0)
(-0.997634 0 0)
(-0.997574 0 0)
(-0.997455 0 0)
(-0.997276 0 0)
(-0.997041 0 0)
(-0.996749 0 0)
(-0.996403 0 0)
(-0.996003 0 0)
(-0.995551 0 0)
(-0.995048 0 0)
(-0.994494 0 0)
(-0.993891 0 0)
(-0.99324 0 0)
(-0.992542 0 0)
(-0.991798 0 0)
(-0.991009 0 0)
(-0.990175 0 0)
(-0.989298 0 0)
(-0.988378 0 0)
(-0.987416 0 0)
(-0.986414 0 0)
(-0.985371 0 0)
(-0.984288 0 0)
(-0.983167 0 0)
(-0.982008 0 0)
(-0.980811 0 0)
(-0.979578 0 0)
(-0.978309 0 0)
(-0.977004 0 0)
(-0.975664 0 0)
(-0.97429 0 0)
(-0.972883 0 0)
(-0.971442 0 0)
(-0.969969 0 0)
(-0.968465 0 0)
(-0.966928 0 0)
(-0.965361 0 0)
(-0.963763 0 0)
(-0.962136 0 0)
(-0.960479 0 0)
(-0.958793 0 0)
(-0.957078 0 0)
(-0.955336 0 0)
(-0.953566 0 0)
(-0.951768 0 0)
(-0.949944 0 0)
(-0.948094 0 0)
(-0.946217 0 0)
(-0.944315 0 0)
(-0.942388 0 0)
(-0.940436 0 0)
(-0.938459 0 0)
(-0.936458 0 0)
(-0.934434 0 0)
(-0.932386 0 0)
(-0.930315 0 0)
(-0.928221 0 0)
(-0.926105 0 0)
(-0.923966 0 0)
(-0.921806 0 0)
(-0.919624 0 0)
(-0.917421 0 0)
(-0.915197 0 0)
(-0.912952 0 0)
(-0.910687 0 0)
(-0.908402 0 0)
(-0.906097 0 0)
(-0.903773 0 0)
(-0.901429 0 0)
(-0.899066 0 0)
(-0.896684 0 0)
(-0.894283 0 0)
(-0.891864 0 0)
(-0.889428 0 0)
(-0.886973 0 0)
(-0.8845 0 0)
(-0.88201 0 0)
(-0.879503 0 0)
(-0.876979 0 0)
(-0.874438 0 0)
(-0.871881 0 0)
(-0.869307 0 0)
(-0.866717 0 0)
(-0.864111 0 0)
(-0.861489 0 0)
(-0.858852 0 0)
(-0.856199 0 0)
(-0.853531 0 0)
(-0.850847 0 0)
(-0.848149 0 0)
(-0.845437 0 0)
(-0.842709 0 0)
(-0.839968 0 0)
(-0.837212 0 0)
(-0.834442 0 0)
(-0.831659 0 0)
(-0.828861 0 0)
(-0.82605 0 0)
(-0.823226 0 0)
(-0.820388 0 0)
(-0.817538 0 0)
(-0.814674 0 0)
(-0.811798 0 0)
(-0.808909 0 0)
(-0.806007 0 0)
(-0.803093 0 0)
(-0.800167 0 0)
(-0.797229 0 0)
(-0.794278 0 0)
(-0.791316 0 0)
(-0.788343 0 0)
(-0.785357 0 0)
(-0.78236 0 0)
(-0.779352 0 0)
(-0.776333 0 0)
(-0.773302 0 0)
(-0.770261 0 0)
(-0.767208 0 0)
(-0.764145 0 0)
(-0.761072 0 0)
(-0.757988 0 0)
(-0.754893 0 0)
(-0.751788 0 0)
(-0.748673 0 0)
(-0.745548 0 0)
(-0.742413 0 0)
(-0.739268 0 0)
(-0.736113 0 0)
(-0.732949 0 0)
(-0.729775 0 0)
(-0.726592 0 0)
(-0.723399 0 0)
(-0.720197 0 0)
(-0.716986 0 0)
(-0.713766 0 0)
(-0.710536 0 0)
(-0.707298 0 0)
(-0.704051 0 0)
(-0.700796 0 0)
(-0.697532 0 0)
(-0.694259 0 0)
(-0.690978 0 0)
(-0.687688 0 0)
(-0.68439 0 0)
(-0.681084 0 0)
(-0.67777 0 0)
(-0.674448 0 0)
(-0.671118 0 0)
(-0.66778 0 0)
(-0.664435 0 0)
(-0.661081 0 0)
(-0.65772 0 0)
(-0.654352 0 0)
(-0.650976 0 0)
(-0.647592 0 0)
(-0.644202 0 0)
(-0.640804 0 0)
(-0.637399 0 0)
(-0.633986 0 0)
(-0.630567 0 0)
(-0.627141 0 0)
(-0.623708 0 0)
(-0.620268 0 0)
(-0.616821 0 0)
(-0.613368 0 0)
(-0.609908 0 0)
(-0.606441 0 0)
(-0.602968 0 0)
(-0.599489 0 0)
(-0.596003 0 0)
(-0.592511 0 0)
(-0.589013 0 0)
(-0.585508 0 0)
(-0.581998 0 0)
(-0.578481 0 0)
(-0.574959 0 0)
(-0.57143 0 0)
(-0.567896 0 0)
(-0.564356 0 0)
(-0.56081 0 0)
(-0.557259 0 0)
(-0.553702 0 0)
(-0.550139 0 0)
(-0.546571 0 0)
(-0.542997 0 0)
(-0.539418 0 0)
(-0.535834 0 0)
(-0.532244 0 0)
(-0.528649 0 0)
(-0.525049 0 0)
(-0.521444 0 0)
(-0.517834 0 0)
(-0.514219 0 0)
(-0.510599 0 0)
(-0.506973 0 0)
(-0.503344 0 0)
(-0.499709 0 0)
(-0.496069 0 0)
(-0.492425 0 0)
(-0.488776 0 0)
(-0.485123 0 0)
(-0.481465 0 0)
(-0.477802 0 0)
(-0.474135 0 0)
(-0.470464 0 0)
(-0.466788 0 0)
(-0.463108 0 0)
(-0.459424 0 0)
(-0.455735 0 0)
(-0.452043 0 0)
(-0.448346 0 0)
(-0.444645 0 0)
(-0.44094 0 0)
(-0.437231 0 0)
(-0.433518 0 0)
(-0.429801 0 0)
(-0.42608 0 0)
(-0.422356 0 0)
(-0.418628 0 0)
(-0.414896 0 0)
(-0.41116 0 0)
(-0.407421 0 0)
(-0.403678 0 0)
(-0.399932 0 0)
(-0.396182 0 0)
(-0.392428 0 0)
(-0.388671 0 0)
(-0.384911 0 0)
(-0.381147 0 0)
(-0.377381 0 0)
(-0.37361 0 0)
(-0.369837 0 0)
(-0.36606 0 0)
(-0.362281 0 0)
(-0.358498 0 0)
(-0.354712 0 0)
(-0.350923 0 0)
(-0.347131 0 0)
(-0.343336 0 0)
(-0.339538 0 0)
(-0.335738 0 0)
(-0.331934 0 0)
(-0.328128 0 0)
(-0.324319 0 0)
(-0.320507 0 0)
(-0.316693 0 0)
(-0.312875 0 0)
(-0.309056 0 0)
(-0.305233 0 0)
(-0.301409 0 0)
(-0.297581 0 0)
(-0.293751 0 0)
(-0.289919 0 0)
(-0.286084 0 0)
(-0.282248 0 0)
(-0.278408 0 0)
(-0.274567 0 0)
(-0.270723 0 0)
(-0.266877 0 0)
(-0.263028 0 0)
(-0.259178 0 0)
(-0.255326 0 0)
(-0.251471 0 0)
(-0.247614 0 0)
(-0.243756 0 0)
(-0.239895 0 0)
(-0.236033 0 0)
(-0.232168 0 0)
(-0.228302 0 0)
(-0.224434 0 0)
(-0.220564 0 0)
(-0.216692 0 0)
(-0.212818 0 0)
(-0.208943 0 0)
(-0.205066 0 0)
(-0.201188 0 0)
(-0.197308 0 0)
(-0.193426 0 0)
(-0.189543 0 0)
(-0.185658 0 0)
(-0.181772 0 0)
(-0.177884 0 0)
(-0.173995 0 0)
(-0.170105 0 0)
(-0.166213 0 0)
(-0.16232 0 0)
(-0.158426 0 0)
(-0.15453 0 0)
(-0.150633 0 0)
(-0.146735 0 0)
(-0.142836 0 0)
(-0.138936 0 0)
(-0.135034 0 0)
(-0.131132 0 0)
(-0.127229 0 0)
(-0.123324 0 0)
(-0.119419 0 0)
(-0.115512 0 0)
(-0.111605 0 0)
(-0.107697 0 0)
(-0.103788 0 0)
(-0.0998781 0 0)
(-0.0959675 0 0)
(-0.0920562 0 0)
(-0.0881442 0 0)
(-0.0842314 0 0)
(-0.0803181 0 0)
(-0.0764041 0 0)
(-0.0724895 0 0)
(-0.0685743 0 0)
(-0.0646586 0 0)
(-0.0607424 0 0)
(-0.0568258 0 0)
(-0.0529087 0 0)
(-0.0489912 0 0)
(-0.0450733 0 0)
(-0.041155 0 0)
(-0.0372365 0 0)
(-0.0333176 0 0)
(-0.0293985 0 0)
(-0.0254792 0 0)
(-0.0215596 0 0)
(-0.0176399 0 0)
(-0.0137201 0 0)
(-0.00980013 0 0)
(-0.00588011 0 0)
(-0.00196004 0 0)
)
;

boundaryField
{
    left
    {
        type            fixedValue;
        value           uniform (0 0 0);
    }
    right
    {
        type            fixedValue;
        value           uniform (0 0 0);
    }
    frontBackUpDown
    {
        type            empty;
    }
}


// ************************************************************************* //
