/*--------------------------------*- C++ -*----------------------------------*\
| =========                 |                                                 |
| \\      /  F ield         | OpenFOAM: The Open Source CFD Toolbox           |
|  \\    /   O peration     | Version:  2412                                  |
|   \\  /    A nd           | Website:  www.openfoam.com                      |
|    \\/     M anipulation  |                                                 |
\*---------------------------------------------------------------------------*/
FoamFile
{
    version     2.0;
    format      ascii;
    arch        "LSB;label=32;scalar=64";
    class       volScalarField;
    location    "0.19";
    object      epsilon;
}
// * * * * * * * * * * * * * * * * * * * * * * * * * * * * * * * * * * * * * //

dimensions      [0 2 -3 0 0 0 0];

internalField   nonuniform List<scalar> 
12225
(
448.248
622.893
830.554
1004.82
1150.39
1270.2
1368.6
1449.6
1516.33
1571.33
1616.69
1654.05
1684.72
1709.69
1729.73
1745.24
1756.56
1766.52
173.744
302.084
403.101
480.176
539.342
585.694
622.132
650.854
673.564
691.529
705.71
716.86
725.569
732.303
737.466
741.306
744.617
744.447
119.435
232.402
315.512
376.254
421.161
455.027
480.628
499.957
514.53
525.458
533.564
539.478
543.687
546.579
548.483
549.664
550.552
550.215
97.6415
199.979
277.776
334.832
376.772
407.859
430.863
447.788
460.144
469.043
475.312
479.574
482.313
483.909
484.682
484.906
484.92
484.518
83.6528
176.289
251.578
308.549
351.1
382.722
406.065
423.142
435.485
444.244
450.287
454.274
456.712
458.004
458.483
458.438
458.175
457.72
71.992
153.973
226.311
283.824
328.197
361.838
387.037
405.703
419.349
429.151
436.014
440.641
443.578
445.259
446.041
446.229
446.108
445.768
61.3444
131.282
198.626
255.579
301.541
337.587
365.352
386.462
402.31
414.036
422.554
428.591
432.726
435.424
437.066
437.972
438.409
438.479
51.6699
108.731
168.488
222.631
268.754
306.561
336.803
360.615
379.129
393.353
404.146
412.222
418.164
422.455
425.489
427.595
429.03
429.882
43.2227
87.6458
137.686
186.325
230.299
268.243
299.986
326.021
347.079
363.922
377.269
387.754
395.927
402.253
407.122
410.858
413.702
415.722
36.1699
69.2416
108.632
149.502
188.755
224.544
256
282.983
305.743
324.709
340.373
353.222
363.712
372.249
379.187
384.824
389.377
392.876
30.4986
54.1387
83.3288
115.314
147.815
179.114
208.068
234.096
257.031
276.949
294.07
308.682
321.092
331.606
340.503
348.027
354.352
359.455
26.3767
43.1976
64.2833
88.2397
113.648
139.256
164.042
187.306
208.654
227.924
245.106
260.296
273.646
285.335
295.549
304.456
312.172
318.603
23.1426
34.7468
49.3136
66.2694
84.8763
104.388
124.081
143.352
161.759
179.02
194.98
209.582
222.838
234.807
245.574
255.226
263.809
271.168
20.3783
27.6946
36.7525
47.428
59.4467
72.4853
86.1759
100.145
114.065
127.669
140.762
153.209
164.926
175.874
186.045
195.442
204.047
211.656
18.15
22.2408
27.1492
32.9145
39.4905
46.7972
54.719
63.109
71.8097
80.6704
89.5559
98.3504
106.96
115.312
123.352
131.035
138.306
144.962
16.4707
18.3569
20.5276
23.0288
25.8749
29.0698
32.6053
36.457
40.5868
44.9491
49.4945
54.1726
58.9346
63.7346
68.5306
73.2828
77.9429
82.3779
15.3282
15.8731
16.496
17.2135
18.0331
18.9614
20.0043
21.1652
22.4435
23.8356
25.3353
26.9343
28.6219
30.3843
32.2075
34.0778
35.9774
37.8641
14.7508
14.6758
14.6369
14.6353
14.6698
14.7397
14.845
14.9861
15.1632
15.376
15.6245
15.9079
16.2254
16.5775
16.9631
17.3804
17.8265
18.2972
14.8977
14.9732
15.0872
15.2434
15.4417
15.682
15.9647
16.2896
16.6559
17.0619
17.5056
17.9844
18.4952
19.0347
19.5994
20.1854
20.7884
21.3945
15.9707
17.2604
18.7263
20.3952
22.2733
24.3601
26.6486
29.1232
31.76
34.5302
37.4028
40.3463
43.33
46.3251
49.3057
52.249
55.1302
57.8892
18.0496
21.9968
26.6898
32.1479
38.3081
45.0747
52.3239
59.9095
67.6804
75.4965
83.236
90.798
98.1032
105.093
111.727
117.979
123.831
129.236
21.5631
30.6526
41.9207
55.0368
69.4957
84.7792
100.377
115.829
130.77
144.941
158.176
170.383
181.53
191.625
200.707
208.832
216.061
222.438
27.2184
45.3003
67.7861
92.9369
119.104
144.998
169.64
192.387
212.915
231.128
247.076
260.895
272.767
282.893
291.473
298.699
304.744
309.768
35.7144
67.6763
105.678
144.95
182.515
216.74
246.815
272.568
294.222
312.181
326.903
338.846
348.433
356.042
361.999
366.584
370.036
372.581
47.4078
97.6109
152.029
202.688
246.852
283.885
314.069
338.195
357.199
371.969
383.282
391.796
398.059
402.517
405.532
407.398
408.356
408.644
61.888
131.751
198.704
254.805
299.833
335.068
362.109
382.556
397.797
408.958
416.935
422.434
426.007
428.086
429.007
429.036
428.386
427.273
78.467
165.761
239.652
296.703
339.786
371.975
395.785
413.192
425.727
434.561
440.579
444.449
446.68
447.66
447.688
446.993
445.759
444.171
99.5997
200.965
279.478
337.821
380.456
411.806
434.889
451.765
463.981
472.691
478.746
482.775
485.253
486.542
486.919
486.6
485.751
484.543
144.791
258.315
348.614
417.598
468.466
506.748
535.873
558.051
574.954
587.828
597.586
604.911
610.327
614.239
616.964
618.751
619.794
620.294
366.941
498.483
666.585
808.03
923.45
1016.69
1091.72
1152.38
1201.67
1241.83
1274.68
1301.63
1323.79
1342.07
1357.17
1369.65
1379.96
1388.53
0.969176
0.918198
1.33437
1.69313
1.98575
2.23407
2.53507
2.86498
3.22052
3.60918
4.04602
4.57098
5.27343
6.09776
7.03934
8.09816
9.282
10.6007
12.0634
13.6771
15.4469
17.3756
19.4644
21.7134
24.1223
26.6915
29.4225
32.32
35.3925
38.6545
42.129
45.7668
49.5545
53.4869
57.5599
61.7695
66.1121
70.5842
75.1824
79.9037
84.7451
89.7038
94.7769
99.9614
105.254
110.653
116.153
121.752
127.446
133.231
139.103
145.057
151.088
157.192
163.363
169.596
175.884
182.222
188.603
195.02
201.467
207.938
214.424
220.918
227.414
233.903
240.379
246.834
253.262
259.655
266.011
272.326
278.605
284.861
291.121
297.327
303.431
309.435
315.337
321.131
326.812
332.373
337.806
343.105
348.263
353.274
358.131
362.828
367.358
371.718
375.9
379.901
383.714
387.336
390.763
393.989
397.012
399.828
402.434
404.827
407.005
408.964
410.704
412.221
413.516
414.586
415.431
416.05
416.443
416.609
416.55
416.265
415.755
415.023
414.068
412.894
411.502
409.894
408.074
406.045
403.81
401.372
398.736
395.907
392.889
389.686
386.305
382.751
379.03
375.148
371.111
366.927
362.601
358.141
353.554
348.848
344.031
339.11
334.092
328.995
323.807
318.578
313.351
308.52
305.456
302.775
300.054
297.265
294.407
291.486
288.505
285.47
282.387
279.26
276.094
272.896
269.669
266.42
263.153
259.873
256.585
253.294
250.005
246.72
243.444
240.181
236.934
233.703
230.49
227.294
224.112
220.937
217.758
214.552
211.281
207.872
204.165
199.755
193.97
186.113
2.96327
1.62621
1.44922
1.51231
1.68208
1.93544
2.2667
2.66339
3.1235
3.65024
4.24775
4.92155
5.67594
6.50469
7.40242
8.36473
9.38793
10.4684
11.6026
12.7866
14.0171
15.2912
16.6067
17.9625
19.3582
20.7942
22.2717
23.7922
25.3574
26.9685
28.6251
30.3237
32.0633
33.8435
35.6642
37.5252
39.4263
41.3672
43.3473
45.3661
47.4231
49.5175
51.6486
53.8153
56.0168
58.2518
60.5194
62.8181
65.1467
67.5036
69.8873
72.2962
74.7287
77.1828
79.6568
82.1486
84.6563
87.1778
89.711
92.2535
94.8032
97.3578
99.9149
102.472
105.027
107.577
110.121
112.655
115.179
117.69
120.19
122.677
125.157
127.635
130.129
132.623
135.088
137.516
139.907
142.258
144.565
146.828
149.042
151.205
153.315
155.37
157.366
159.302
161.174
162.982
164.723
166.394
167.995
169.523
170.976
172.352
173.651
174.871
176.01
177.067
178.041
178.931
179.736
180.455
181.087
181.632
182.089
182.457
182.737
182.929
183.031
183.043
182.967
182.803
182.55
182.208
181.78
181.264
180.663
179.977
179.207
178.354
177.42
176.405
175.313
174.143
172.898
171.581
170.192
168.734
167.21
165.621
163.97
162.259
160.492
158.67
156.797
154.875
152.906
150.899
148.837
146.763
144.7
142.733
141.065
139.501
137.944
136.371
134.777
133.162
131.528
129.877
128.211
126.531
124.84
123.141
121.434
119.724
118.011
116.298
114.587
112.879
111.177
109.482
107.797
106.122
104.459
102.809
101.173
99.5524
97.9468
96.3562
94.7796
93.2153
91.6601
90.1107
88.5585
87.0155
85.6799
85.7219
5.26258
2.54478
2.15695
2.18421
2.37161
2.65235
3.01769
3.46383
3.98726
4.58327
5.24574
5.96789
6.74254
7.56216
8.42035
9.31222
10.2343
11.1842
12.1607
13.1629
14.1909
15.2454
16.3272
17.4375
18.5777
19.749
20.9523
22.1885
23.4579
24.7603
26.0952
27.4616
28.8589
30.2867
31.7443
33.2313
34.7471
36.2911
37.8626
39.4613
41.0863
42.7371
44.4132
46.1137
47.838
49.5855
51.3552
53.1465
54.9584
56.7901
58.6406
60.5088
62.3937
64.294
66.2087
68.1365
70.076
72.0258
73.9846
75.951
77.9233
79.9001
81.88
83.8613
85.8427
87.8227
89.8
91.7736
93.7426
95.7066
97.6655
99.6198
101.57
103.519
105.464
107.395
109.303
111.185
113.038
114.859
116.648
118.401
120.116
121.792
123.426
125.017
126.562
128.061
129.51
130.908
132.254
133.547
134.783
135.963
137.085
138.147
139.149
140.089
140.966
141.779
142.528
143.211
143.829
144.379
144.862
145.277
145.624
145.902
146.111
146.251
146.322
146.325
146.258
146.122
145.917
145.645
145.304
144.896
144.422
143.882
143.277
142.607
141.874
141.079
140.224
139.308
138.335
137.304
136.219
135.079
133.887
132.646
131.355
130.018
128.637
127.212
125.747
124.243
122.698
121.132
119.535
117.925
116.315
114.74
113.255
111.815
110.383
108.946
107.498
106.04
104.571
103.092
101.606
100.114
98.6175
97.1181
95.6175
94.1175
92.6196
91.1254
89.6365
88.1542
86.6802
85.2156
83.7618
82.3201
80.8916
79.4773
78.0784
76.6957
75.33
73.9823
72.6535
71.3452
70.0599
68.8041
67.5903
66.4629
65.5452
65.4248
7.62129
3.58809
3.01447
2.98951
3.15607
3.44049
3.81913
4.28129
4.81881
5.42293
6.08399
6.79224
7.53883
8.31655
9.12024
9.94679
10.7948
11.6641
12.5554
13.47
14.4094
15.3752
16.3687
17.3914
18.4441
19.5275
20.6419
21.7874
22.9637
24.1704
25.4067
26.672
27.9657
29.2873
30.6361
32.0118
33.4137
34.8416
36.2948
37.7731
39.2759
40.8029
42.3537
43.9278
45.5247
47.144
48.7851
50.4474
52.1303
53.8331
55.555
57.2953
59.0529
60.8269
62.6164
64.4202
66.2371
68.066
69.9055
71.7544
73.6113
75.4748
77.3434
79.2159
81.0907
82.9667
84.8424
86.7169
88.5889
90.4577
92.3224
94.1824
96.0369
97.8849
99.7209
101.539
103.335
105.106
106.849
108.563
110.244
111.89
113.501
115.073
116.606
118.096
119.542
120.942
122.295
123.599
124.852
126.053
127.201
128.294
129.331
130.31
131.232
132.094
132.895
133.636
134.314
134.93
135.483
135.972
136.397
136.757
137.052
137.282
137.446
137.545
137.579
137.547
137.45
137.288
137.061
136.77
136.416
135.998
135.518
134.976
134.373
133.711
132.989
132.209
131.373
130.482
129.536
128.537
127.488
126.389
125.241
124.048
122.809
121.527
120.206
118.842
117.444
116.015
114.555
113.07
111.562
110.038
108.509
106.993
105.508
104.044
102.585
101.124
99.6563
98.1822
96.702
95.2165
93.7273
92.2357
90.7432
89.2514
87.7618
86.2758
84.7951
83.3209
81.8548
80.3979
78.9516
77.5172
76.0958
74.6886
73.2966
71.9209
70.5626
69.2228
67.9025
66.6031
65.3265
64.0754
62.8545
61.6733
60.5495
59.5269
58.6945
58.3211
9.72226
4.64231
3.86287
3.75837
3.89312
4.16256
4.53072
4.98056
5.50048
6.08008
6.7093
7.3789
8.08112
8.81024
9.56267
10.3367
11.1323
11.9502
12.7918
13.6588
14.5528
15.4752
16.4274
17.4101
18.4239
19.4693
20.5461
21.6543
22.7935
23.9632
25.1631
26.3927
27.6514
28.9389
30.2549
31.599
32.9708
34.3702
35.7968
37.2503
38.7307
40.2375
41.7706
43.3296
44.9142
46.524
48.1586
49.8175
51.5001
53.2059
54.934
56.6838
58.4542
60.2444
62.0534
63.8799
65.7228
67.5808
69.4525
71.3365
73.2314
75.1356
77.0475
78.9656
80.8882
82.8139
84.741
86.668
88.5935
90.5158
92.4336
94.3454
96.2497
98.1427
100.02
101.876
103.709
105.516
107.293
109.039
110.751
112.427
114.065
115.662
117.217
118.727
120.191
121.607
122.973
124.288
125.549
126.755
127.905
128.998
130.033
131.007
131.92
132.772
133.56
134.285
134.946
135.541
136.071
136.535
136.933
137.263
137.527
137.724
137.854
137.916
137.911
137.84
137.702
137.497
137.227
136.892
136.492
136.028
135.501
134.911
134.26
133.549
132.778
131.95
131.064
130.124
129.129
128.082
126.984
125.837
124.642
123.402
122.118
120.79
119.426
118.026
116.592
115.128
113.634
112.116
110.576
109.02
107.454
105.89
104.335
102.789
101.245
99.6995
98.15
96.5967
95.0399
93.4809
91.9209
90.3615
88.8041
87.2502
85.7013
84.1589
82.6245
81.0994
79.5849
78.0825
76.5932
75.1183
73.6591
72.2165
70.7917
69.3858
67.9999
66.6352
65.293
63.975
62.6836
61.4223
60.1968
59.0176
57.9031
56.8913
56.0438
55.4865
11.9255
5.63371
4.61621
4.42775
4.52094
4.76246
5.10534
5.52747
6.01507
6.55738
7.14519
7.77065
8.42758
9.11168
9.8205
10.5532
11.3099
12.0918
12.9002
13.7365
14.6022
15.4985
16.4262
17.3862
18.3789
19.4044
20.463
21.5545
22.6789
23.8359
25.0254
26.247
27.5007
28.7862
30.1035
31.4523
32.8327
34.2444
35.6875
37.1619
38.6674
40.2039
41.7714
43.3695
44.998
46.6567
48.3451
50.0629
51.8093
53.5839
55.3858
57.2142
59.0681
60.9465
62.8482
64.7719
66.7162
68.6798
70.6609
72.6579
74.6692
76.6928
78.727
80.7698
82.8193
84.8735
86.9304
88.988
91.0443
93.0972
95.1447
97.1846
99.2148
101.23
103.225
105.197
107.143
109.06
110.944
112.794
114.607
116.38
118.11
119.797
121.437
123.027
124.567
126.055
127.487
128.863
130.181
131.439
132.636
133.771
134.841
135.847
136.786
137.658
138.463
139.198
139.864
140.46
140.986
141.44
141.824
142.135
142.376
142.544
142.641
142.667
142.621
142.505
142.318
142.061
141.734
141.339
140.875
140.345
139.748
139.086
138.36
137.571
136.72
135.809
134.84
133.813
132.73
131.593
130.405
129.166
127.876
126.544
125.169
123.752
122.297
120.806
119.282
117.727
116.144
114.536
112.906
111.259
109.6
107.936
106.273
104.611
102.949
101.285
99.6192
97.9514
96.2825
94.6138
92.9468
91.2829
89.6237
87.9707
86.3255
84.6895
83.0643
81.4512
79.8516
78.2668
76.698
75.1465
73.6134
72.0998
70.607
69.1359
67.6879
66.2642
64.8664
63.4964
62.1568
60.8518
59.5876
58.3747
57.2305
56.186
55.2831
54.5834
15.0436
6.66324
5.2871
4.98094
5.01732
5.22108
5.53111
5.91968
6.37099
6.87418
7.42095
8.00478
8.62082
9.26584
9.93806
10.6369
11.3628
12.1166
12.8994
13.7124
14.557
15.434
16.3445
17.289
18.2681
19.2822
20.3317
21.4168
22.5375
23.6942
24.8868
26.1155
27.3804
28.6816
30.0193
31.3936
32.8047
34.2526
35.7376
37.2596
38.8187
40.4151
42.0485
43.7189
45.4262
47.1701
48.9501
50.7658
52.6167
54.5019
56.4208
58.3722
60.355
62.3682
64.4101
66.4794
68.5745
70.6934
72.8344
74.9954
77.1744
79.3691
81.5774
83.7968
86.025
88.2595
90.4979
92.7375
94.9758
97.2103
99.4383
101.657
103.863
106.049
108.213
110.35
112.457
114.531
116.568
118.567
120.523
122.435
124.3
126.114
127.876
129.584
131.235
132.826
134.357
135.824
137.227
138.563
139.832
141.031
142.159
143.216
144.2
145.109
145.944
146.703
147.386
147.992
148.521
148.972
149.346
149.642
149.86
150
150.063
150.048
149.956
149.788
149.544
149.224
148.83
148.362
147.821
147.209
146.526
145.773
144.953
144.065
143.113
142.096
141.018
139.881
138.683
137.429
136.123
134.766
133.359
131.906
130.409
128.869
127.291
125.677
124.028
122.348
120.641
118.907
117.152
115.379
113.593
111.797
109.998
108.196
106.393
104.589
102.784
100.978
99.1735
97.3715
95.5735
93.7813
91.9965
90.2206
88.4553
86.7022
84.9627
83.2383
81.5303
79.8402
78.1691
76.5184
74.8892
73.2827
71.7
70.1424
68.6112
67.1077
65.6337
64.1913
62.7835
61.4145
60.0909
58.8226
57.6253
56.5237
55.5454
54.7221
17.9339
7.55951
5.82868
5.40061
5.37571
5.53839
5.81377
6.16863
6.58518
7.05229
7.56229
8.10959
8.6903
9.30186
9.94295
10.6132
11.3128
12.0427
12.8037
13.597
14.4237
15.2848
16.1812
17.1139
18.0836
19.091
20.1367
21.2213
22.3453
23.5093
24.7138
25.9592
27.2461
28.5748
29.9459
31.3598
32.8169
34.3177
35.8623
37.4512
39.0845
40.7624
42.485
44.2522
46.064
47.92
49.8199
51.7632
53.7491
55.7768
57.8454
59.9536
62.1002
64.2837
66.5023
68.7543
71.0376
73.3501
75.6896
78.0535
80.4394
82.8446
85.2664
87.7019
90.1482
92.6023
95.0611
97.5217
99.9807
102.435
104.882
107.318
109.735
112.13
114.497
116.834
119.136
121.399
123.622
125.799
127.929
130.008
132.033
134.002
135.911
137.758
139.542
141.258
142.906
144.483
145.988
147.418
148.772
150.049
151.247
152.365
153.401
154.356
155.228
156.016
156.72
157.339
157.873
158.322
158.686
158.964
159.157
159.265
159.288
159.226
159.081
158.853
158.542
158.15
157.677
157.124
156.494
155.785
155.001
154.142
153.211
152.209
151.136
149.995
148.79
147.523
146.194
144.806
143.363
141.866
140.318
138.722
137.08
135.395
133.669
131.907
130.11
128.281
126.423
124.54
122.635
120.711
118.773
116.824
114.869
112.91
110.949
108.986
107.024
105.064
103.107
101.154
99.2085
97.271
95.3436
93.428
91.526
89.6391
87.7689
85.9169
84.0845
82.2732
80.4842
78.7188
76.9783
75.2638
73.5766
71.918
70.2892
68.692
67.128
65.5995
64.1098
62.6632
61.266
59.9276
58.6615
57.487
56.422
55.4833
20.4505
8.28898
6.23281
5.68943
5.60467
5.7269
5.9689
6.29245
6.67781
7.11336
7.59166
8.10772
8.65819
9.24102
9.85513
10.5003
11.1767
11.8852
12.6267
13.4022
14.213
15.0603
15.9451
16.8686
17.8318
18.836
19.882
20.971
22.1038
23.2814
24.5049
25.775
27.0927
28.4588
29.8742
31.3397
32.8559
34.4236
36.0433
37.7156
39.4408
41.2193
43.0512
44.9366
46.8753
48.8671
50.9116
53.0081
55.1558
57.3537
59.6006
61.8951
64.2355
66.62
69.0466
71.513
74.0167
76.5553
79.1258
81.7254
84.351
86.9994
89.6673
92.3513
95.0479
97.7535
100.464
103.177
105.888
108.593
111.288
113.969
116.626
119.256
121.854
124.415
126.936
129.413
131.842
134.219
136.542
138.807
141.01
143.149
145.22
147.221
149.149
151.003
152.778
154.474
156.089
157.62
159.066
160.426
161.698
162.881
163.973
164.975
165.884
166.701
167.424
168.054
168.59
169.033
169.381
169.636
169.798
169.866
169.842
169.726
169.518
169.22
168.832
168.356
167.792
167.143
166.409
165.592
164.691
163.712
162.656
161.524
160.318
159.04
157.693
156.28
154.803
153.264
151.667
150.013
148.306
146.548
144.743
142.894
141.003
139.073
137.109
135.112
133.086
131.034
128.96
126.868
124.76
122.641
120.515
118.384
116.251
114.118
111.986
109.858
107.735
105.619
103.513
101.418
99.3353
97.2677
95.2168
93.1841
91.1714
89.1801
87.2119
85.268
83.35
81.459
79.5963
77.7633
75.9612
74.1912
72.455
70.754
69.0902
67.4661
65.8847
64.3506
62.8698
61.4507
60.1048
58.847
57.6882
56.6381
22.5249
8.84878
6.50876
5.86177
5.72153
5.8058
6.01684
6.31213
6.67005
7.07835
7.52956
8.01893
8.54345
9.10135
9.6918
10.3147
10.9703
11.6595
12.3834
13.1431
13.94
14.7756
15.6513
16.5685
17.5289
18.5338
19.5848
20.6834
21.8311
23.0293
24.2794
25.5829
26.9411
28.3552
29.8266
31.3563
32.9455
34.5951
36.3059
38.0788
39.9142
41.8127
43.7745
45.7997
47.8881
50.0394
52.2531
54.5283
56.8641
59.2592
61.7121
64.2209
66.7837
69.3982
72.0619
74.7721
77.5257
80.3196
83.1505
86.0147
88.9086
91.8285
94.7704
97.7302
100.704
103.687
106.676
109.666
112.653
115.632
118.6
121.546
124.463
127.347
130.192
132.994
135.75
138.454
141.103
143.692
146.219
148.679
151.069
153.386
155.626
157.786
159.864
161.858
163.764
165.581
167.306
168.938
170.476
171.917
173.26
174.505
175.65
176.693
177.635
178.475
179.212
179.846
180.377
180.805
181.13
181.353
181.474
181.493
181.411
181.229
180.948
180.568
180.091
179.518
178.852
178.093
177.243
176.304
175.277
174.165
172.97
171.695
170.342
168.913
167.41
165.838
164.197
162.492
160.725
158.9
157.019
155.085
153.102
151.073
149.001
146.89
144.743
142.564
140.355
138.12
135.863
133.588
131.298
128.996
126.687
124.373
122.058
119.744
117.433
115.127
112.829
110.541
108.265
106.003
103.756
101.528
99.3193
97.1324
94.9687
92.83
90.7178
88.6335
86.5785
84.5542
82.562
80.603
78.6787
76.7904
74.9396
73.128
71.3576
69.6309
67.9511
66.3224
64.7506
63.2432
61.8096
60.4614
59.2046
58.0456
24.1258
9.24725
6.67247
5.93667
5.74699
5.79662
5.97941
6.24926
6.58297
6.9676
7.39547
7.8619
8.36404
8.90034
9.47014
10.0735
10.7109
11.3834
12.0923
12.8389
13.6251
14.4524
15.3229
16.2385
17.2011
18.2128
19.2757
20.3916
21.5627
22.791
24.0783
25.4267
26.838
28.3139
29.8562
31.4663
33.1456
34.8955
36.7171
38.6113
40.5788
42.6202
44.7358
46.9255
49.1893
51.5266
53.9366
56.4183
58.9703
61.5911
64.2786
67.0307
69.8448
72.7181
75.6475
78.6296
81.6609
84.7374
87.8552
91.0099
94.1973
97.4129
100.652
103.91
107.182
110.464
113.751
117.037
120.317
123.588
126.842
130.065
133.253
136.401
139.503
142.554
145.55
148.486
151.359
154.163
156.895
159.551
162.127
164.62
167.027
169.343
171.567
173.696
175.727
177.658
179.488
181.214
182.834
184.348
185.755
187.052
188.239
189.315
190.279
191.13
191.869
192.496
193.01
193.411
193.701
193.88
193.947
193.904
193.751
193.491
193.123
192.649
192.071
191.39
190.608
189.727
188.749
187.675
186.508
185.251
183.906
182.475
180.961
179.367
177.696
175.951
174.134
172.25
170.302
168.291
166.224
164.101
161.928
159.708
157.443
155.139
152.798
150.424
148.022
145.593
143.143
140.674
138.191
135.697
133.196
130.692
128.188
125.685
123.188
120.699
118.219
115.752
113.3
110.865
108.448
106.054
103.682
101.335
99.015
96.7235
94.4621
92.2323
90.0354
87.873
85.7464
83.6568
81.6057
79.5945
77.6246
75.6979
73.8164
71.9826
70.1996
68.4716
66.8037
65.2026
63.6761
62.2328
60.8756
59.6097
25.2445
9.49727
6.74151
5.93372
5.70171
5.72055
5.87782
6.1248
6.43699
6.8009
7.20861
7.65541
8.13857
8.65667
9.20927
9.79663
10.4196
11.0793
11.7775
12.5159
13.2967
14.1221
14.9944
15.9162
16.89
17.9184
19.004
20.1495
21.3574
22.6304
23.971
25.3816
26.8646
28.4223
30.0566
31.7696
33.563
35.4384
37.3969
39.4398
41.5677
43.7812
46.0805
48.4656
50.9358
53.4906
56.1288
58.8488
61.6489
64.5269
67.4803
70.5063
73.6016
76.7628
79.9861
83.2675
86.6025
89.9866
93.4148
96.8821
100.383
103.914
107.468
111.04
114.626
118.219
121.815
125.408
128.992
132.564
136.104
139.608
143.067
146.477
149.833
153.13
156.361
159.524
162.612
165.623
168.551
171.393
174.145
176.803
179.364
181.823
184.179
186.429
188.57
190.601
192.519
194.324
196.012
197.583
199.036
200.369
201.584
202.676
203.645
204.492
205.217
205.82
206.301
206.661
206.899
207.018
207.016
206.896
206.659
206.305
205.837
205.255
204.562
203.759
202.848
201.831
200.712
199.491
198.171
196.755
195.247
193.648
191.962
190.191
188.34
186.41
184.407
182.333
180.191
177.986
175.722
173.401
171.028
168.606
166.14
163.634
161.091
158.515
155.91
153.28
150.628
147.96
145.277
142.586
139.888
137.188
134.489
131.795
129.107
126.43
123.766
121.116
118.485
115.873
113.284
110.72
108.182
105.673
103.194
100.747
98.3342
95.9564
93.6154
91.3125
89.0492
86.8268
84.6466
82.5102
80.419
78.3749
76.3799
74.4365
72.5477
70.7175
68.9504
67.2524
65.6296
64.0887
62.6304
61.2595
25.8854
9.61276
6.73264
5.871
5.6047
5.59711
5.73187
5.95856
6.25189
6.598
6.98884
7.4197
7.88796
8.39239
8.93279
9.50972
10.1243
10.7783
11.4736
12.2126
12.9979
13.8323
14.7189
15.6607
16.6609
17.7229
18.8498
20.045
21.3117
22.653
24.0721
25.5718
27.1552
28.8247
30.5829
32.432
34.374
36.4104
38.5427
40.7718
43.0985
45.523
48.0453
50.6648
53.3808
56.1918
59.0963
62.0921
65.1767
68.3472
71.6002
74.9323
78.3394
81.8172
85.3611
88.9665
92.628
96.3404
100.097
103.893
107.721
111.577
115.455
119.349
123.252
127.16
131.067
134.966
138.853
142.714
146.533
150.304
154.022
157.681
161.275
164.799
168.248
171.616
174.9
178.095
181.197
184.203
187.109
189.909
192.598
195.176
197.64
199.986
202.213
204.319
206.302
208.16
209.892
211.497
212.973
214.319
215.535
216.621
217.574
218.396
219.087
219.646
220.075
220.373
220.542
220.582
220.495
220.281
219.941
219.479
218.894
218.188
217.365
216.425
215.371
214.205
212.93
211.549
210.063
208.477
206.793
205.015
203.145
201.187
199.145
197.022
194.823
192.549
190.207
187.799
185.329
182.803
180.223
177.594
174.92
172.206
169.455
166.672
163.86
161.024
158.167
155.295
152.41
149.518
146.62
143.723
140.829
137.941
135.062
132.196
129.346
126.514
123.703
120.916
118.154
115.42
112.716
110.044
107.407
104.805
102.24
99.7145
97.2294
94.7862
92.3864
90.0312
87.722
85.4603
83.2478
81.086
78.9771
76.9235
74.9282
72.9947
71.1272
69.3307
67.6104
65.9711
64.4124
62.9391
26.0585
9.60694
6.66069
5.76441
5.47274
5.44393
5.55995
5.76969
6.04766
6.37992
6.7585
7.17884
7.63855
8.13669
8.67338
9.24961
9.86699
10.5277
11.2343
11.9898
12.7975
13.6609
14.5837
15.5697
16.6229
17.7473
18.947
20.2258
21.5874
23.0354
24.5736
26.2052
27.9336
29.7616
31.6918
33.7266
35.8678
38.1169
40.475
42.9429
45.5206
48.2081
51.0045
53.9088
56.9192
60.0337
63.2496
66.564
69.9733
73.4738
77.0612
80.7309
84.478
88.2972
92.1832
96.1305
100.134
104.187
108.28
112.409
116.566
120.746
124.943
129.15
133.362
137.572
141.775
145.965
150.133
154.254
158.322
162.331
166.276
170.15
173.949
177.665
181.296
184.834
188.277
191.619
194.857
197.987
201.005
203.907
206.69
209.35
211.885
214.293
216.571
218.718
220.733
222.612
224.356
225.962
227.431
228.761
229.951
231.002
231.913
232.683
233.314
233.805
234.157
234.372
234.449
234.389
234.195
233.867
233.406
232.816
232.097
231.251
230.28
229.188
227.976
226.647
225.204
223.649
221.986
220.218
218.348
216.38
214.317
212.163
209.922
207.598
205.194
202.715
200.165
197.549
194.87
192.133
189.342
186.502
183.618
180.693
177.731
174.739
171.719
168.676
165.614
162.537
159.451
156.358
153.262
150.168
147.08
144
140.933
137.881
134.848
131.836
128.848
125.887
122.955
120.055
117.188
114.357
111.563
108.809
106.095
103.425
100.798
98.2176
95.6837
93.1981
90.7623
88.3775
86.0455
83.7678
81.5467
79.3843
77.2834
75.2474
73.2801
71.3856
69.5681
67.8315
66.1741
64.6016
25.778
9.49167
6.53838
5.62769
5.32084
5.27747
5.38019
5.57834
5.84681
6.17205
6.54647
6.96597
7.42861
7.93398
8.4827
9.0763
9.71706
10.4079
11.1521
11.9534
12.816
13.7442
14.7424
15.8155
16.968
18.205
19.5313
20.9517
22.4687
24.0867
25.8098
27.6416
29.5854
31.6438
33.8192
36.1135
38.5281
41.0637
43.7207
46.4989
49.3976
52.4154
55.5507
58.8009
62.1634
65.6348
69.2113
72.8887
76.6625
80.5275
84.4786
88.51
92.6157
96.7898
101.026
105.317
109.658
114.041
118.458
122.903
127.369
131.849
136.339
140.83
145.318
149.797
154.26
158.701
163.091
167.421
171.687
175.881
179.999
184.034
187.981
191.836
195.592
199.245
202.791
206.226
209.546
212.747
215.826
218.779
221.603
224.295
226.854
229.276
231.559
233.703
235.704
237.563
239.277
240.847
242.27
243.546
244.675
245.657
246.492
247.179
247.72
248.113
248.361
248.465
248.424
248.241
247.916
247.452
246.85
246.112
245.239
244.235
243.102
241.841
240.456
238.95
237.325
235.585
233.733
231.773
229.708
227.542
225.278
222.921
220.475
217.943
215.331
212.643
209.883
207.055
204.165
201.216
198.214
195.163
192.067
188.933
185.763
182.563
179.337
176.089
172.825
169.548
166.263
162.974
159.684
156.399
153.122
149.856
146.606
143.374
140.163
136.977
133.818
130.69
127.593
124.532
121.508
118.523
115.579
112.678
109.822
107.012
104.25
101.536
98.8732
96.262
93.7039
91.2004
88.753
86.3634
84.0335
81.7655
79.5621
77.4262
75.3613
73.371
71.4585
69.6269
67.8743
66.2065
25.0195
9.28344
6.37444
5.46971
5.1594
5.11054
5.20871
5.40488
5.67509
6.00678
6.39329
6.83141
7.32024
7.86058
8.45347
9.10113
9.80696
10.5749
11.4094
12.3151
13.2971
14.3607
15.5111
16.7539
18.0941
19.5372
21.088
22.751
24.5301
26.429
28.4512
30.5995
32.8762
35.283
37.8211
40.4911
43.2928
46.2255
49.2879
52.4782
55.794
59.2322
62.7894
66.4616
70.2445
74.1333
78.1227
82.2073
86.3811
90.6382
94.9721
99.3764
103.844
108.369
112.944
117.562
122.216
126.899
131.604
136.324
141.053
145.785
150.513
155.233
159.938
164.625
169.282
173.879
178.41
182.868
187.249
191.545
195.752
199.865
203.879
207.788
211.589
215.277
218.847
222.298
225.623
228.821
231.888
234.822
237.618
240.275
242.791
245.163
247.39
249.47
251.401
253.183
254.814
256.294
257.621
258.796
259.817
260.686
261.401
261.964
262.374
262.633
262.74
262.698
262.507
262.168
261.683
261.055
260.283
259.372
258.322
257.136
255.817
254.368
252.791
251.089
249.267
247.326
245.271
243.105
240.832
238.456
235.981
233.412
230.752
228.007
225.18
222.276
219.301
216.258
213.153
209.991
206.776
203.513
200.207
196.863
193.485
190.079
186.65
183.201
179.737
176.263
172.784
169.303
165.825
162.353
158.893
155.447
152.019
148.613
145.232
141.878
138.555
135.266
132.012
128.797
125.622
122.49
119.403
116.362
113.369
110.426
107.533
104.693
101.907
99.1758
96.5009
93.8839
91.326
88.8291
86.3948
84.0253
81.7231
79.4908
77.3315
75.2483
73.2439
71.3207
69.4766
67.718
23.9804
9.06522
6.223
5.33249
5.02935
4.98831
5.09826
5.31238
5.60855
5.97585
6.40923
6.90704
7.46989
8.09984
8.79996
9.5742
10.4273
11.3644
12.3913
13.5136
14.7372
16.068
17.5115
19.073
20.7575
22.5695
24.5128
26.5905
28.8053
31.1589
33.6525
36.2866
39.0611
41.9749
45.0267
48.2143
51.5349
54.9853
58.5617
62.2599
66.0754
70.0031
74.0377
78.1737
82.4053
86.7264
91.1308
95.6121
100.164
104.779
109.452
114.176
118.943
123.747
128.582
133.44
138.316
143.203
148.095
152.986
157.87
162.742
167.598
172.433
177.244
182.012
186.71
191.333
195.877
200.337
204.707
208.983
213.159
217.232
221.198
225.05
228.787
232.404
235.897
239.263
242.499
245.602
248.569
251.397
254.083
256.626
259.024
261.274
263.374
265.324
267.122
268.767
270.257
271.592
272.772
273.796
274.664
275.376
275.931
276.33
276.575
276.664
276.599
276.382
276.013
275.494
274.826
274.011
273.051
271.949
270.706
269.325
267.808
266.16
264.381
262.477
260.45
258.303
256.041
253.668
251.187
248.602
245.918
243.139
240.27
237.315
234.28
231.168
227.985
224.736
221.426
218.06
214.642
211.178
207.674
204.133
200.561
196.963
193.343
189.707
186.059
182.403
178.744
175.087
171.435
167.793
164.165
160.554
156.965
153.4
149.863
146.357
142.885
139.45
136.054
132.699
129.388
126.123
122.906
119.738
116.621
113.557
110.546
107.592
104.693
101.853
99.0721
96.3515
93.6928
91.0976
88.5675
86.1046
83.7112
81.3896
79.1426
76.9729
74.8827
72.8741
70.9448
69.1022
22.7473
8.80049
6.07815
5.22709
4.95285
4.94409
5.09535
5.36347
5.7294
6.18517
6.7286
7.36091
8.08545
8.90693
9.83091
10.8635
12.0111
13.2801
14.6766
16.2064
17.8745
19.6853
21.6423
23.7482
26.0047
28.4125
30.9714
33.6804
36.5376
39.5403
42.6853
45.9688
49.3863
52.9333
56.6045
60.3947
64.2983
68.3095
72.4225
76.6315
80.9303
85.313
89.7737
94.3062
98.9047
103.563
108.276
113.036
117.839
122.678
127.548
132.443
137.357
142.284
147.22
152.159
157.096
162.026
166.943
171.845
176.726
181.584
186.413
191.215
195.959
200.627
205.216
209.721
214.139
218.464
222.694
226.823
230.848
234.766
238.571
242.261
245.832
249.281
252.604
255.798
258.86
261.788
264.579
267.231
269.74