/*--------------------------------*- C++ -*----------------------------------*\
| =========                 |                                                 |
| \\      /  F ield         | OpenFOAM: The Open Source CFD Toolbox           |
|  \\    /   O peration     | Version:  2412                                  |
|   \\  /    A nd           | Website:  www.openfoam.com                      |
|    \\/     M anipulation  |                                                 |
\*---------------------------------------------------------------------------*/
FoamFile
{
    version     2.0;
    format      ascii;
    arch        "LSB;label=32;scalar=64";
    class       volScalarField;
    location    "0.19";
    object      k;
}
// * * * * * * * * * * * * * * * * * * * * * * * * * * * * * * * * * * * * * //

dimensions      [0 2 -2 0 0 0 0];

internalField   nonuniform List<scalar> 
12225
(
0.316793
0.394493
0.477906
0.542613
0.593829
0.634374
0.666727
0.692781
0.713881
0.731041
0.745043
0.756479
0.765801
0.773349
0.779382
0.784032
0.787419
0.790392
0.569139
0.788914
0.952582
1.06799
1.1512
1.2127
1.25817
1.2917
1.31631
1.33412
1.3467
1.35525
1.36066
1.36363
1.36473
1.36428
1.3635
1.36141
0.670061
0.972154
1.18323
1.33202
1.43945
1.51861
1.57693
1.61968
1.65077
1.67302
1.6885
1.69879
1.70508
1.7083
1.70922
1.70843
1.70694
1.70492
0.722108
1.07674
1.32651
1.50447
1.63403
1.72971
1.80042
1.85243
1.89038
1.91766
1.93679
1.94967
1.95776
1.9622
1.96393
1.96374
1.96263
1.96117
0.742771
1.1292
1.41224
1.61818
1.77023
1.88337
1.96763
2.03016
2.07624
2.1098
2.13375
2.15033
2.16127
2.16792
2.17138
2.17261
2.17263
2.1721
0.739914
1.13776
1.44637
1.67819
1.85304
1.98505
2.08466
2.15964
2.21577
2.25742
2.2879
2.30977
2.325
2.33516
2.34155
2.34524
2.34725
2.34824
0.71962
1.1088
1.43133
1.68402
1.88028
2.03177
2.14828
2.23765
2.30594
2.3578
2.39686
2.42594
2.44726
2.4626
2.4734
2.48086
2.48599
2.48937
0.687641
1.05045
1.37183
1.63647
1.84973
2.01924
2.15292
2.25791
2.34008
2.40412
2.45381
2.49213
2.52149
2.54384
2.56075
2.57352
2.58314
2.59009
0.648986
0.972378
1.27661
1.54079
1.76293
1.94591
2.09471
2.21486
2.31145
2.38884
2.45067
2.49994
2.53912
2.57024
2.59496
2.61463
2.63023
2.64211
0.607484
0.884087
1.15747
1.40739
1.62723
1.81571
1.97445
2.10674
2.21627
2.30658
2.38085
2.44185
2.49194
2.53309
2.56697
2.59491
2.61786
2.636
0.565819
0.793319
1.02684
1.25029
1.45565
1.63914
1.79964
1.93804
2.05632
2.15682
2.2419
2.31381
2.37458
2.42597
2.46952
2.50645
2.53762
2.56298
0.528746
0.712094
0.90518
1.09646
1.27868
1.44749
1.60044
1.73674
1.85685
1.9619
2.05332
2.13266
2.20143
2.26105
2.31278
2.35766
2.39638
2.42857
0.494652
0.637271
0.790582
0.946988
1.10076
1.24803
1.38601
1.51303
1.62846
1.73239
1.82535
1.90815
1.9817
2.04695
2.10483
2.1561
2.20119
2.23947
0.460675
0.562144
0.673145
0.789679
0.907903
1.02494
1.13847
1.24669
1.34843
1.44307
1.53042
1.61055
1.68375
1.75042
1.81102
1.86596
1.91539
1.95831
0.429345
0.492748
0.562799
0.638292
0.717353
0.798319
0.879694
0.960125
1.03851
1.11405
1.18618
1.25455
1.31899
1.37945
1.43596
1.48857
1.53713
1.58044
0.403168
0.435384
0.470977
0.510054
0.55219
0.596857
0.643477
0.691408
0.740005
0.788686
0.836959
0.884413
0.930722
0.975633
1.01895
1.06051
1.10001
1.1364
0.384083
0.394609
0.406482
0.419893
0.434846
0.4513
0.469194
0.488417
0.508808
0.530185
0.552352
0.575115
0.598279
0.621635
0.645001
0.668215
0.691072
0.713033
0.374047
0.373709
0.374089
0.375206
0.377036
0.379559
0.382762
0.386629
0.39114
0.396264
0.401968
0.408212
0.414952
0.422163
0.429802
0.437812
0.446126
0.454635
0.376606
0.378924
0.381989
0.385851
0.390484
0.395852
0.40192
0.408643
0.415964
0.423815
0.432126
0.440826
0.449844
0.459113
0.468566
0.478143
0.48777
0.497226
0.394947
0.417779
0.442957
0.470555
0.500295
0.531815
0.564724
0.598591
0.632968
0.667437
0.701631
0.735241
0.768014
0.799751
0.830305
0.859567
0.887413
0.913439
0.42777
0.489066
0.556229
0.628012
0.702578
0.778283
0.853696
0.927558
0.998859
1.06687
1.13113
1.19134
1.24741
1.29935
1.34724
1.39124
1.43151
1.46808
0.47574
0.594972
0.723608
0.855977
0.987193
1.11393
1.23381
1.34522
1.44734
1.53995
1.62326
1.69774
1.76398
1.82268
1.87454
1.92024
1.9604
1.99553
0.536846
0.728694
0.928625
1.12373
1.30642
1.47303
1.62182
1.75255
1.8661
1.96392
2.04768
2.11908
2.17969
2.23099
2.27428
2.31068
2.34119
2.36665
0.604141
0.873968
1.14016
1.38239
1.59447
1.77605
1.92883
2.05584
2.16063
2.24659
2.31677
2.3738
2.41991
2.45696
2.48651
2.50985
2.52806
2.54206
0.668314
1.00766
1.31642
1.57532
1.78709
1.95802
2.09447
2.20265
2.288
2.35497
2.40719
2.44755
2.47838
2.50155
2.51854
2.53056
2.53859
2.54348
0.717303
1.09919
1.41419
1.65889
1.84811
1.99399
2.10591
2.19144
2.25649
2.30557
2.34215
2.36895
2.38805
2.40108
2.40933
2.4138
2.41531
2.41458
0.735718
1.11862
1.40734
1.61983
1.77772
1.89573
1.98395
2.04966
2.09826
2.13376
2.15921
2.17688
2.18853
2.19548
2.19879
2.19926
2.19754
2.19422
0.708199
1.04716
1.29075
1.46557
1.59175
1.68428
1.75245
1.80244
1.83877
1.86479
1.88295
1.89508
1.90256
1.90646
1.9076
1.90659
1.90395
1.90014
0.616921
0.862574
1.0489
1.18265
1.27674
1.34491
1.39483
1.43126
1.45767
1.47656
1.48974
1.49855
1.50399
1.50684
1.50768
1.50698
1.50508
1.5024
0.33327
0.408788
0.496176
0.564092
0.616606
0.657441
0.689401
0.714709
0.734944
0.751232
0.764421
0.775156
0.783932
0.791131
0.797053
0.801935
0.805954
0.809286
0.00741282
0.0118578
0.0152102
0.0178228
0.0198165
0.0214303
0.0233068
0.0252799
0.0273223
0.0294697
0.031792
0.0344733
0.0379076
0.0417484
0.0459284
0.0504101
0.0551935
0.0602859
0.0656905
0.0714032
0.0774127
0.0837028
0.0902544
0.0970478
0.104065
0.111292
0.11872
0.126348
0.134188
0.142262
0.15061
0.159104
0.167705
0.1764
0.185178
0.194028
0.202943
0.211914
0.220936
0.230003
0.239109
0.248251
0.257422
0.266619
0.275838
0.285075
0.294324
0.303582
0.312844
0.322104
0.331358
0.340601
0.349826
0.359028
0.368201
0.377339
0.386436
0.395485
0.404479
0.413412
0.422277
0.431068
0.439778
0.448399
0.456926
0.465352
0.47367
0.481873
0.489958
0.497919
0.505754
0.513465
0.521059
0.528554
0.535988
0.543291
0.550407
0.557344
0.564101
0.570677
0.577069
0.58327
0.589278
0.595087
0.600692
0.60609
0.611276
0.616247
0.620998
0.625528
0.629831
0.633906
0.63775
0.64136
0.644734
0.64787
0.650766
0.653421
0.655833
0.658
0.659923
0.6616
0.663031
0.664215
0.665151
0.66584
0.666282
0.666477
0.666426
0.666129
0.665587
0.664802
0.663774
0.662505
0.660996
0.659251
0.65727
0.655056
0.652612
0.649941
0.647045
0.643928
0.640594
0.637046
0.633288
0.629325
0.625162
0.620802
0.616252
0.611516
0.6066
0.60151
0.596251
0.59083
0.585254
0.579527
0.57366
0.567657
0.561523
0.55528
0.54891
0.542469
0.536005
0.529967
0.525937
0.522341
0.518691
0.514954
0.511131
0.507225
0.503242
0.499187
0.495065
0.490882
0.486644
0.482357
0.478026
0.473656
0.469254
0.464825
0.460374
0.455908
0.45143
0.446946
0.442461
0.437977
0.4335
0.42903
0.42457
0.420117
0.415669
0.411216
0.406744
0.402226
0.397612
0.39281
0.387614
0.381503
0.373598
0.362946
0.0156175
0.0247434
0.032834
0.0394331
0.0454281
0.0513865
0.0572072
0.0631475
0.0694258
0.0761485
0.083322
0.0909146
0.0988855
0.107167
0.11572
0.124532
0.133606
0.142954
0.15259
0.162527
0.172779
0.183355
0.194268
0.205523
0.217127
0.229081
0.241387
0.254039
0.26703
0.280349
0.29398
0.307898
0.322089
0.336537
0.351228
0.366149
0.381286
0.396626
0.412157
0.427869
0.443749
0.45979
0.475981
0.492314
0.50878
0.52537
0.542077
0.558891
0.575804
0.592807
0.60989
0.627044
0.644258
0.661522
0.678826
0.696157
0.713505
0.730856
0.748199
0.765522
0.782811
0.800054
0.817237
0.834348
0.851373
0.868299
0.885114
0.901805
0.918359
0.934764
0.951006
0.967074
0.982956
0.998637
1.01401
1.02905
1.04382
1.05833
1.07257
1.08654
1.10023
1.11362
1.12671
1.13949
1.15194
1.16406
1.17584
1.18726
1.19832
1.20901
1.21932
1.22924
1.23878
1.24791
1.25664
1.26495
1.27285
1.28033
1.28737
1.29399
1.30016
1.3059
1.31119
1.31603
1.32042
1.32436
1.32785
1.33088
1.33344
1.33555
1.3372
1.33838
1.3391
1.33936
1.33916
1.3385
1.33738
1.33581
1.33378
1.3313
1.32836
1.32499
1.32117
1.31692
1.31223
1.30712
1.30159
1.29565
1.2893
1.28256
1.27542
1.26791
1.26002
1.25177
1.24317
1.23422
1.22494
1.21535
1.20544
1.19526
1.18474
1.17402
1.16313
1.15216
1.14136
1.13049
1.11945
1.10824
1.09686
1.08532
1.07364
1.06184
1.04992
1.03789
1.02578
1.0136
1.00135
0.989055
0.976721
0.964363
0.951992
0.939619
0.927257
0.914915
0.902604
0.890334
0.878113
0.865948
0.853845
0.841809
0.829841
0.81794
0.806098
0.7943
0.78252
0.770719
0.758793
0.746626
0.732709
0.717483
0.0229049
0.039327
0.0514003
0.0608473
0.069266
0.0770842
0.0848544
0.0928904
0.101362
0.110325
0.119756
0.129595
0.139779
0.150258
0.161012
0.172045
0.183383
0.195061
0.207119
0.219594
0.232521
0.245925
0.259826
0.274233
0.289147
0.30456
0.32046
0.336825
0.35363
0.370848
0.388448
0.406402
0.424683
0.443267
0.462129
0.481251
0.500612
0.520195
0.539986
0.559971
0.580139
0.600477
0.620977
0.641629
0.662425
0.683354
0.704409
0.725581
0.74686
0.768236
0.7897
0.811241
0.832847
0.854507
0.876207
0.897936
0.919679
0.941423
0.963152
0.984853
1.00651
1.02811
1.04963
1.07106
1.09239
1.11359
1.13465
1.15556
1.17631
1.19687
1.21724
1.2374
1.25733
1.27703
1.29639
1.31544
1.33418
1.35259
1.37067
1.38841
1.40579
1.4228
1.43943
1.45565
1.47146
1.48685
1.5018
1.5163
1.53034
1.5439
1.55699
1.56958
1.58167
1.59325
1.60431
1.61485
1.62485
1.63431
1.64322
1.65158
1.65938
1.66662
1.6733
1.6794
1.68492
1.68987
1.69424
1.69802
1.70122
1.70383
1.70585
1.70728
1.70813
1.70839
1.70806
1.70714
1.70564
1.70356
1.7009
1.69767
1.69386
1.68949
1.68456
1.67908
1.67304
1.66647
1.65937
1.65174
1.64359
1.63494
1.6258
1.61617
1.60607
1.59551
1.58451
1.57306
1.56121
1.54894
1.53626
1.52329
1.50996
1.49635
1.48248
1.46843
1.45429
1.44
1.42551
1.4108
1.39589
1.38078
1.36551
1.35008
1.33451
1.31881
1.30301
1.28713
1.27116
1.25515
1.23909
1.22301
1.20691
1.19082
1.17475
1.15872
1.14272
1.12679
1.11093
1.09515
1.07946
1.06387
1.04838
1.033
1.01774
1.00259
0.987552
0.972624
0.957798
0.943112
0.928117
0.912585
0.0293202
0.0541491
0.0697281
0.0813353
0.091191
0.10038
0.109465
0.118775
0.128486
0.138666
0.14931
0.160378
0.171829
0.183637
0.1958
0.208341
0.221297
0.234712
0.248631
0.263091
0.278123
0.293745
0.309964
0.326777
0.344173
0.362129
0.380621
0.399619
0.419088
0.438997
0.459312
0.480003
0.501043
0.522405
0.544068
0.56601
0.588215
0.610666
0.63335
0.656255
0.679368
0.702682
0.726185
0.749869
0.773726
0.797746
0.821921
0.84624
0.870694
0.895273
0.919964
0.944757
0.969637
0.994592
1.01961
1.04467
1.06976
1.09486
1.11996
1.14503
1.17007
1.19505
1.21995
1.24476
1.26946
1.29402
1.31843
1.34268
1.36674
1.3906
1.41423
1.43764
1.46079
1.48364
1.50615
1.52831
1.55011
1.57153
1.59257
1.61321
1.63343
1.65321
1.67253
1.69139
1.70976
1.72763
1.74499
1.76181
1.77809
1.79382
1.80898
1.82356
1.83755
1.85094
1.86372
1.87588
1.88741
1.89831
1.90856
1.91816
1.92711
1.9354
1.94302
1.94998
1.95626
1.96186
1.96678
1.97101
1.97457
1.97743
1.97961
1.9811
1.98191
1.98203
1.98146
1.98021
1.97828
1.97568
1.9724
1.96845
1.96384
1.95857
1.95265
1.94609
1.9389
1.93107
1.92263
1.91358
1.90394
1.89371
1.88291
1.87155
1.85965
1.84721
1.83427
1.8208
1.80687
1.79252
1.77772
1.76254
1.74698
1.73107
1.71486
1.69839
1.68172
1.66484
1.64773
1.63038
1.6128
1.595
1.57702
1.55886
1.54055
1.52211
1.50354
1.48489
1.46615
1.44736
1.42852
1.40967
1.3908
1.37195
1.35313
1.33436
1.31564
1.297
1.27845
1.26001
1.24168
1.22348
1.20543
1.18752
1.16979
1.15223
1.13488
1.11777
1.10097
1.0846
1.06861
1.05297
0.0344888
0.067718
0.0862755
0.0995903
0.110788
0.121082
0.131107
0.141238
0.151687
0.162562
0.173901
0.185704
0.197961
0.210673
0.223852
0.237526
0.251732
0.266508
0.281889
0.297902
0.314565
0.331883
0.349852
0.36846
0.387686
0.407503
0.427884
0.448795
0.470205
0.492083
0.514397
0.53712
0.560226
0.583693
0.6075
0.631628
0.656062
0.680787
0.70579
0.731061
0.756587
0.782361
0.808371
0.834609
0.861065
0.88773
0.914594
0.941646
0.968874
0.996267
1.02381
1.05149
1.07929
1.1072
1.1352
1.16327
1.1914
1.21956
1.24773
1.2759
1.30403
1.33212
1.36014
1.38806
1.41587
1.44354
1.47105
1.49838
1.52551
1.55241
1.57908
1.60547
1.63159
1.65734
1.68273
1.70772
1.73231
1.75648
1.7802
1.80346
1.82625
1.84853
1.8703
1.89153
1.9122
1.9323
1.95182
1.97072
1.98901
2.00666
2.02367
2.04001
2.05568
2.07066
2.08495
2.09854
2.1114
2.12355
2.13496
2.14564
2.15557
2.16475
2.17317
2.18083
2.18773
2.19386
2.19921
2.2038
2.20761
2.21064
2.2129
2.21438
2.21508
2.21501
2.21417
2.21256
2.21018
2.20704
2.20315
2.1985
2.19311
2.18698
2.18012
2.17254
2.16425
2.15525
2.14557
2.1352
2.12417
2.11249
2.10016
2.08722
2.07367
2.05951
2.04482
2.02959
2.01384
1.9976
1.98089
1.96374
1.94616
1.9282
1.90988
1.89126
1.87236
1.85321
1.83379
1.81411
1.79419
1.77404
1.75368
1.73313
1.71242
1.69157
1.6706
1.64952
1.62837
1.60716
1.58591
1.56465
1.54339
1.52214
1.50094
1.4798
1.45873
1.43776
1.4169
1.39616
1.37557
1.35514
1.33489
1.31484
1.295
1.27542
1.25614
1.23722
1.21877
1.20098
1.18393
1.16775
0.0395163
0.0788994
0.0999937
0.11498
0.127409
0.138651
0.149426
0.160162
0.171121
0.182457
0.194255
0.206556
0.219384
0.232758
0.246701
0.261241
0.276408
0.292228
0.308726
0.325915
0.343803
0.362386
0.381654
0.401589
0.42217
0.443371
0.465164
0.487521
0.510412
0.533811
0.557691
0.582027
0.606799
0.631985
0.657568
0.683532
0.709861
0.736542
0.763564
0.790915
0.818585
0.846563
0.87484
0.903404
0.932247
0.961357
0.990721
1.02033
1.05017
1.08022
1.11047
1.1409
1.1715
1.20225
1.23312
1.2641
1.29517
1.32629
1.35745
1.38863
1.41979
1.45092
1.48198
1.51295
1.54381
1.57452
1.60507
1.63542
1.66555
1.69543
1.72505
1.75437
1.78336
1.81195
1.84013
1.86788
1.89516
1.92198
1.94829
1.97409
1.99935
2.02404
2.04815
2.07165
2.09453
2.11677
2.13834
2.15923
2.17943
2.19891
2.21766
2.23567
2.25292
2.26941
2.28511
2.30003
2.31414
2.32745
2.33993
2.35159
2.36242
2.37241
2.38155
2.38985
2.39729
2.40388
2.40962
2.41449
2.4185
2.42164
2.42393
2.42535
2.42592
2.42562
2.42447
2.42248
2.41963
2.41594
2.41142
2.40606
2.39989
2.3929
2.38511
2.37653
2.36716
2.35702
2.34612
2.33448
2.32211
2.30903
2.29522
2.28077
2.26567
2.24993
2.23359
2.21666
2.19918
2.18116
2.16262
2.1436
2.12413
2.10422
2.08392
2.06327
2.0423
2.02103
1.99946
1.97762
1.95551
1.93317
1.9106
1.88784
1.8649
1.84182
1.81862
1.79531
1.77192
1.74848
1.72501
1.70153
1.67805
1.65461
1.63122
1.6079
1.58468
1.56157
1.53859
1.51576
1.4931
1.47064
1.44839
1.42639
1.40466
1.38325
1.36222
1.34167
1.32172
1.30258
1.28437
1.26727
0.0461364
0.0879483
0.11096
0.127302
0.140768
0.152824
0.164243
0.175492
0.186874
0.198582
0.210741
0.223428
0.236692
0.25057
0.265091
0.280282
0.296166
0.312762
0.330083
0.348136
0.36692
0.386429
0.40665
0.427566
0.449157
0.471401
0.494274
0.517752
0.541812
0.566431
0.591588
0.617262
0.643436
0.670091
0.697214
0.724788
0.752801
0.781242
0.810097
0.839357
0.869011
0.899047
0.929455
0.960224
0.991341
1.02279
1.05457
1.08665
1.11903
1.15168
1.18459
1.21773
1.25109
1.28465
1.31837
1.35224
1.38623
1.42031
1.45446
1.48864
1.52282
1.55699
1.5911
1.62512
1.65903
1.69279
1.72637
1.75974
1.79287
1.82573
1.8583
1.89053
1.92238
1.9538
1.98475
2.01522
2.04518
2.07461
2.10348
2.13178
2.15947
2.18653
2.21294
2.23867
2.26371
2.28803
2.31161
2.33444
2.35648
2.37774
2.39818
2.4178
2.43658
2.45451
2.47158
2.48776
2.50307
2.51747
2.53098
2.54357
2.55524
2.56598
2.5758
2.58468
2.59262
2.59962
2.60568
2.61079
2.61495
2.61817
2.62044
2.62178
2.62216
2.62161
2.62013
2.61772
2.61438
2.61012
2.60495
2.59887
2.59191
2.58405
2.57533
2.56573
2.55529
2.54402
2.53192
2.519
2.50532
2.49087
2.47567
2.45976
2.44315
2.42585
2.40791
2.38934
2.37016
2.35041
2.33011
2.30929
2.28797
2.26619
2.24398
2.22138
2.19842
2.17512
2.15151
2.1276
2.10342
2.07898
2.05431
2.02944
2.0044
1.9792
1.95387
1.92844
1.90294
1.87739
1.85181
1.82623
1.80066
1.77514
1.74969
1.72432
1.69906
1.67393
1.64896
1.62417
1.59957
1.5752
1.55108
1.52725
1.50375
1.48063
1.45797
1.43588
1.41449
1.39401
1.37454
1.35623
0.051873
0.0947419
0.119149
0.136545
0.150856
0.163607
0.175597
0.187317
0.199092
0.211144
0.223625
0.236637
0.250252
0.264519
0.279472
0.295139
0.31154
0.32869
0.346596
0.365262
0.384684
0.404857
0.425768
0.447405
0.46975
0.492788
0.516499
0.540866
0.56587
0.591494
0.617723
0.64454
0.67193
0.69988
0.728378
0.75741
0.786965
0.817033
0.847602
0.878661
0.910199
0.942205
0.974667
1.00757
1.04091
1.07465
1.1088
1.14333
1.17822
1.21345
1.24901
1.28486
1.32098
1.35735
1.39394
1.43072
1.46765
1.50471
1.54186
1.57907
1.61631
1.65353
1.69071
1.72781
1.76479
1.80161
1.83825
1.87465
1.9108
1.94665
1.98217
2.01733
2.05204
2.08626
2.11997
2.15315
2.18577
2.21779
2.2492
2.27997
2.31007
2.33947
2.36814
2.39607
2.42323
2.44959
2.47513
2.49984
2.52369
2.54667
2.56876
2.58994
2.61019
2.62951
2.64789
2.6653
2.68174
2.69719
2.71166
2.72513
2.73759
2.74904
2.75947
2.76888
2.77728
2.78464
2.79098
2.79629
2.80057
2.80382
2.80604
2.80724
2.80742
2.80658
2.80473
2.80187
2.79801
2.79316
2.78732
2.78051
2.77273
2.76401
2.75433
2.74372
2.73221
2.71981
2.70652
2.69238
2.67741
2.66162
2.64504
2.62768
2.60958
2.59076
2.57125
2.55106
2.53023
2.50879
2.48676
2.46418
2.44107
2.41746
2.3934
2.36891
2.34402
2.31878
2.2932
2.2673
2.24112
2.21467
2.18798
2.16108
2.13401
2.10678
2.07942
2.05196
2.02443
1.99686
1.96926
1.94167
1.91411
1.8866
1.85918
1.83185
1.80466
1.77761
1.75074
1.72407
1.69763
1.67145
1.64555
1.61999
1.59481
1.57006
1.54585
1.52227
1.49948
1.47765
1.45685
1.4372
0.0566205
0.0994224
0.12475
0.142913
0.157883
0.17121
0.183701
0.195854
0.208003
0.220384
0.233164
0.246462
0.260363
0.274927
0.290196
0.306198
0.322956
0.340482
0.358785
0.377868
0.397729
0.418365
0.439768
0.46193
0.48484
0.508486
0.532858
0.557942
0.583728
0.610203
0.637356
0.665177
0.693655
0.722779
0.752539
0.782927
0.813931
0.845542
0.877749
0.910542
0.943908
0.977837
1.01231
1.04732
1.08285
1.11888
1.15539
1.19237
1.22978
1.26761
1.30582
1.3444
1.38331
1.42252
1.46199
1.5017
1.54161
1.58167
1.62186
1.66212
1.70243
1.74274
1.78301
1.8232
1.86326
1.90316
1.94285
1.9823
2.02146
2.06029
2.09876
2.13682
2.17436
2.21138
2.24783
2.28369
2.31892
2.35351
2.38741
2.4206
2.45306
2.48474
2.51563
2.5457
2.57492
2.60326
2.63071
2.65725
2.68284
2.70748
2.73114
2.75381
2.77548
2.79613
2.81574
2.83431
2.85183
2.86827
2.88364
2.89792
2.91112
2.92321
2.93421
2.94411
2.95289
2.96057
2.96714
2.9726
2.97695
2.98019
2.98232
2.98335
2.98329
2.98212
2.97987
2.97654
2.97214
2.96667
2.96014
2.95257
2.94397
2.93436
2.92374
2.91213
2.89956
2.88605
2.87159
2.85623
2.83999
2.82287
2.80492
2.78615
2.76659
2.74626
2.7252
2.70343
2.68099
2.65789
2.63417
2.60987
2.58502
2.55964
2.53377
2.50745
2.48071
2.45358
2.4261
2.39829
2.37017
2.34179
2.31316
2.28432
2.25529
2.2261
2.1968
2.16739
2.13792
2.1084
2.07888
2.04936
2.01989
1.99048
1.96117
1.93197
1.90292
1.87404
1.84536
1.8169
1.78869
1.76078
1.73319
1.70597
1.67917
1.65288
1.62716
1.60214
1.57796
1.55476
1.53261
1.51156
0.0603888
0.102233
0.128067
0.146738
0.162188
0.175968
0.18888
0.201417
0.213909
0.226594
0.239645
0.253191
0.267324
0.282111
0.297601
0.313828
0.330816
0.348582
0.367137
0.386488
0.406638
0.427588
0.449337
0.471881
0.495218
0.519342
0.544249
0.569933
0.596389
0.623611
0.651593
0.68033
0.709814
0.740039
0.770998
0.802684
0.835088
0.868202
0.902015
0.936516
0.971694
1.00754
1.04402
1.08114
1.11887
1.1572
1.19609
1.23553
1.27549
1.31593
1.35684
1.39817
1.43989
1.48196
1.52436
1.56702
1.60992
1.65301
1.69624
1.73958
1.78296
1.82636
1.86971
1.91298
1.95611
1.99907
2.04179
2.08425
2.12639
2.16818
2.20956
2.25044
2.29077
2.33051
2.36963
2.4081
2.44589
2.48296
2.51928
2.55481
2.58954
2.62343
2.65645
2.68856
2.71975
2.74999
2.77925
2.80752
2.83476
2.86097
2.88612
2.9102
2.93319
2.95507
2.97584
2.99549
3.014
3.03135
3.04754
3.06257
3.07642
3.0891
3.10059
3.1109
3.12002
3.12795
3.1347
3.14025
3.14462
3.1478
3.1498
3.15062
3.15026
3.14874
3.14606
3.14223
3.13725
3.13115
3.12392
3.11559
3.10618
3.09568
3.08412
3.07152
3.0579
3.04328
3.02767
3.0111
2.9936
2.97518
2.95588
2.93572
2.91473
2.89294
2.87037
2.84706
2.82303
2.79833
2.77298
2.74701
2.72046
2.69336
2.66575
2.63766
2.60913
2.5802
2.55089
2.52124
2.49128
2.46104
2.43054
2.39984
2.36894
2.33789
2.30672
2.27545
2.24412
2.21275
2.18138
2.15003
2.11873
2.08751
2.05639
2.02541
1.99459
1.96396
1.93354
1.90338
1.87349
1.84392
1.81471
1.78591
1.75757
1.72978
1.70262
1.67619
1.65064
1.62608
1.60255
1.58009
0.0632184
0.103444
0.129442
0.148399
0.164163
0.178273
0.191517
0.204371
0.217157
0.230108
0.243394
0.257146
0.27146
0.286409
0.302046
0.318413
0.335538
0.353444
0.372148
0.391663
0.411998
0.433161
0.455157
0.477992
0.501669
0.526192
0.551561
0.577779
0.604848
0.632766
0.661534
0.69115
0.721612
0.752918
0.785063
0.818041
0.851847
0.886471
0.921904
0.958134
0.995148
1.03293
1.07146
1.11073
1.1507
1.19136
1.23267
1.27461
1.31715
1.36025
1.40388
1.44799
1.49255
1.53751
1.58284
1.62847
1.67436
1.72047
1.76674
1.81312
1.85955
1.90599
1.95239
1.99868
2.04483
2.09077
2.13646
2.18185
2.22689
2.27153
2.31571
2.35932
2.40232
2.44467
2.48634
2.5273
2.5675
2.60693
2.64553
2.68328
2.72015
2.75611
2.79112
2.82515
2.85818
2.89017
2.92111
2.95098
2.97974
3.00739
3.0339
3.05926
3.08345
3.10646
3.12827
3.14888
3.16828
3.18644
3.20336
3.21903
3.23345
3.24661
3.25852
3.26916
3.27854
3.28666
3.29352
3.29911
3.30343
3.30649
3.3083
3.30887
3.30819
3.30628
3.30314
3.29879
3.29324
3.28649
3.27856
3.26946
3.25922
3.24785
3.23536
3.22177
3.20711
3.1914
3.17466
3.15691
3.13818
3.11849
3.09788
3.07637
3.05398
3.03076
3.00674
2.98193
2.95639
2.93013
2.9032
2.87563
2.84746
2.81871
2.78943
2.75965
2.72941
2.69876
2.66771
2.63631
2.60459
2.57258
2.54032
2.50784
2.47517
2.44235
2.4094
2.37637
2.34327
2.31015
2.27703
2.24394
2.21091
2.17797
2.14515
2.11248
2.07998
2.04769
2.01563
1.98385
1.95236
1.92122
1.89047
1.86016
1.83036
1.80112
1.77256
1.74478
1.71788
1.69197
1.66707
1.64322
0.0651588
0.103315
0.12921
0.14827
0.164207
0.17853
0.19201
0.205106
0.218125
0.231291
0.244767
0.258682
0.273133
0.288195
0.303928
0.320378
0.337581
0.355567
0.37436
0.39398
0.414445
0.435771
0.457973
0.481062
0.505052
0.529952
0.555773
0.582522
0.610208
0.638836
0.668411
0.698937
0.730415
0.762846
0.796227
0.830555
0.865823
0.902024
0.939147
0.977178
1.0161
1.0559
1.09655
1.13803
1.18031
1.22337
1.26716
1.31166
1.35683
1.40262
1.449
1.49592
1.54332
1.59117
1.63941
1.68798
1.73683
1.78591
1.83516
1.88451
1.93391
1.9833
2.03263
2.08184
2.13087
2.17966
2.22818
2.27635
2.32414
2.37148
2.41826
2.46441
2.50988
2.55466
2.59869
2.64194
2.68437
2.72595
2.76664
2.8064
2.84522
2.88304
2.91986
2.95562
2.99029
3.02386
3.0563
3.08758
3.11769
3.1466
3.17431
3.20078
3.22602
3.25
3.27271
3.29414
3.3143
3.33314
3.35066
3.36686
3.38173
3.39528
3.40749
3.41837
3.42792
3.43614
3.44302
3.44857
3.4528
3.4557
3.45728
3.45755
3.45651
3.45418
3.45056
3.44567
3.43952
3.43212
3.42348
3.41362
3.40256
3.39032
3.37691
3.36235
3.34668
3.32991
3.31206
3.29316
3.27324
3.25233
3.23045
3.20764
3.18392
3.15934
3.13391
3.10768
3.08069
3.05296
3.02452
2.99543
2.96571
2.9354
2.90454
2.87317
2.84132
2.80903
2.77635
2.7433
2.70993
2.67627
2.64234
2.6082
2.57387
2.53938
2.50478
2.47009
2.43534
2.40057
2.36581
2.33109
2.29644
2.26189
2.22747
2.19321
2.15914
2.12529
2.09169
2.05838
2.0254
1.99278
1.96057
1.92884
1.89763
1.86704
1.83713
1.80803
1.77982
1.7526
1.72636
1.70116
0.066258
0.102082
0.127675
0.1467
0.16269
0.177125
0.190752
0.204013
0.217201
0.230528
0.24415
0.258191
0.272746
0.287894
0.303698
0.32021
0.337473
0.355525
0.374399
0.394125
0.414728
0.436235
0.458668
0.48205
0.506399
0.531737
0.558079
0.585441
0.613835
0.643273
0.673764
0.705316
0.737933
0.771617
0.806368
0.842182
0.879053
0.91697
0.95592
0.995887
1.03685
1.07879
1.12168
1.16548
1.21017
1.25571
1.30206
1.34917
1.39701
1.44552
1.49466
1.54436
1.59459
1.64528
1.69637
1.7478
1.79952
1.85146
1.90355
1.95572
2.00792
2.06009
2.11216
2.16407
2.21577
2.2672
2.3183
2.36902
2.4193
2.46905
2.51816
2.56657
2.61426
2.66117
2.70728
2.75254
2.79692
2.84037
2.88286
2.92437
2.96485
3.00428
3.04265
3.07988
3.11595
3.15084
3.18453
3.217
3.24822
3.27819
3.30687
3.33426
3.36034
3.3851
3.40853
3.4306
3.45133
3.47068
3.48866
3.50524
3.52044
3.53425
3.54666
3.55768
3.56731
3.57554
3.58238
3.58782
3.59188
3.59455
3.59585
3.59578
3.59435
3.59157
3.58745
3.58201
3.57524
3.56718
3.55783
3.54721
3.53535
3.52225
3.50794
3.49245
3.47579
3.458
3.43909
3.41909
3.39804
3.37595
3.35288
3.32883
3.30385
3.27798
3.25124
3.22367
3.19531
3.16619
3.13636
3.10584
3.07468
3.04291
3.01058
2.97772
2.94438
2.91059
2.87639
2.84182
2.80692
2.77172
2.73626
2.70058
2.66471
2.62869
2.59256
2.55634
2.52007
2.48378
2.44751
2.41128
2.37513
2.33909
2.30319
2.26747
2.23194
2.19665
2.16162
2.1269
2.09252
2.05852
2.02496
1.99189
1.95938
1.92749
1.89632
1.86596
1.83649
1.808
1.78047
1.75396
0.0665537
0.0999501
0.125104
0.143992
0.159949
0.174414
0.188113
0.201473
0.214775
0.228219
0.241955
0.256103
0.270758
0.285998
0.301892
0.318496
0.335862
0.354035
0.373059
0.392972
0.41381
0.435609
0.4584
0.482215
0.507082
0.53303
0.560082
0.588258
0.617574
0.648043
0.67968
0.712494
0.74649
0.781671
0.818036
0.855577
0.894286
0.934149
0.975147
1.01726
1.06046
1.10471
1.14999
1.19626
1.24347
1.29158
1.34055
1.39032
1.44084
1.49205
1.5439
1.59633
1.64928
1.70268
1.75647
1.81059
1.86498
1.91958
1.97427
2.02901
2.08373
2.13837
2.19287
2.24716
2.3012
2.35491
2.40825
2.46115
2.51355
2.56529
2.61633
2.66662
2.71612
2.76479
2.81259
2.85947
2.90541
2.95037
2.9943
3.03718
3.07897
3.11965
3.15919
3.19754
3.23468
3.27058
3.30523
3.33859
3.37066
3.40141
3.43082
3.45888
3.48558
3.5109
3.53482
3.55735
3.57846
3.59815
3.61641
3.63323
3.64861
3.66255
3.67503
3.68607
3.69567
3.70381
3.71051
3.71577
3.71959
3.72198
3.72295
3.72249
3.72063
3.71737
3.71272
3.7067
3.69932
3.6906
3.68054
3.66918
3.65653
3.64261
3.62744
3.61105
3.59345
3.57469
3.55477
3.53374
3.51162
3.48845
3.46425
3.43906
3.41291
3.38584
3.35789
3.32908
3.29947
3.26908
3.23796
3.20614
3.17366
3.14056
3.10689
3.07268
3.03798
3.00282
2.96725
2.9313
2.89501
2.85842
2.82158
2.78451
2.74725
2.70985
2.67233
2.63473
2.59708
2.55942
2.52178
2.48419
2.44669
2.4093
2.37206
2.335
2.29815
2.26155
2.22522
2.18921
2.15355
2.1183
2.08349
2.04919
2.01546
1.98237
1.95001
1.91846
1.88781
1.85812
1.82936
1.80161
0.0660759
0.0970839
0.121715
0.140404
0.156274
0.170716
0.184438
0.197856
0.211242
0.224788
0.238643
0.252921
0.267721
0.283124
0.2992
0.316012
0.33362
0.352078
0.371438
0.391749
0.413056
0.435405
0.458835
0.483386
0.509095
0.535998
0.564128
0.593513
0.624143
0.656043
0.689228
0.723707
0.759484
0.796557
0.83492
0.87456
0.91546
0.957599
1.00095
1.04548
1.09116
1.13794
1.18579
1.23465
1.28448
1.33522
1.38682
1.43922
1.49235
1.54616
1.60058
1.65554
1.71099
1.76684
1.82304
1.87951
1.9362
1.99301
2.04989
2.10676
2.16355
2.22021
2.27666
2.33286
2.38873
2.44424
2.49931
2.55389
2.6078
2.66101
2.71346
2.7651
2.8159
2.86582
2.9148
2.96283
3.00985
3.05583
3.10074
3.14454
3.18721
3.22871
3.26902
3.3081
3.34592
3.38247
3.41771
3.45164
3.48422
3.51544
3.54528
3.57373
3.60077
3.62639
3.65058
3.67332
3.69461
3.71443
3.73278
3.74966
3.76505
3.77896
3.79138
3.80231
3.81175
3.81971
3.82618
3.83116
3.83467
3.83671
3.83728
3.83639
3.83406
3.83029
3.8251
3.8185
3.8105
3.80113
3.79039
3.7783
3.7649
3.75019
3.73421
3.71697
3.6985
3.67884
3.658
3.63602
3.61292
3.58875
3.56353
3.5373
3.51009
3.48195
3.4529
3.42299
3.39225
3.36073
3.32845
3.29547
3.26183
3.22756
3.1927
3.1573
3.12139
3.08503
3.04824
3.01108
2.97358
2.93577
2.89771
2.85942
2.82094
2.78232
2.74358
2.70477
2.66591
2.62704
2.5882
2.54941
2.51072
2.47214
2.43372
2.39548
2.35746
2.31969
2.2822
2.24504
2.20825
2.17186
2.13593
2.10052
2.06568
2.0315
1.99805
1.9654
1.93364
1.90282
1.87292
1.84402
0.0647732
0.0934191
0.117527
0.136007
0.151777
0.166186
0.179927
0.19341
0.206905
0.220605
0.234656
0.24918
0.26428
0.28005
0.296553
0.313857
0.332032
0.351144
0.371252
0.392417
0.41469
0.438125
0.462767
0.488661
0.515847
0.544357
0.574222
0.605463
0.638091
0.672116
0.707543
0.744373
0.782598
0.822205
0.863176
0.905487
0.949108
0.994003
1.04013
1.08746
1.13593
1.18549
1.23609
1.28767
1.34018
1.39355
1.44771
1.50261
1.55817
1.61434
1.67104
1.7282
1.78575
1.84363
1.90177
1.9601
2.01854
2.07704
2.13551
2.19391
2.25215
2.31019
2.36795
2.4254
2.48246
2.53909
2.59522
2.65068
2.70543
2.75941
2.81259
2.86492
2.91636
2.96687
3.01641
3.06495
3.11245
3.15887
3.20419
3.24837
3.29138
3.33319
3.37377
3.4131
3.45115
3.48789
3.52331
3.55738
3.59008
3.6214
3.65131
3.67981
3.70687
3.73248
3.75664
3.77933
3.80053
3.82025
3.83846
3.85518
3.87038
3.88408
3.89625
3.90691
3.91606
3.92368
3.9298
3.9344
3.93749
3.93909
3.93919
3.93781
3.93495
3.93063
3.92486
3.91765
3.90902
3.89898
3.88755
3.87476
3.86062
3.84516
3.82839
3.81035
3.79106
3.77056
3.74886
3.726
3.70201
3.67692
3.65078
3.62361
3.59545
3.56634
3.53631
3.50541
3.47368
3.44115
3.40787
3.37387
3.3392
3.30389
3.268
3.23156
3.19461
3.1572
3.11936
3.08115
3.04259
3.00373
2.96461
2.92527
2.88574
2.84607
2.80628
2.76642
2.72651
2.6866
2.64672
2.60689
2.56716
2.52755
2.48809
2.44883
2.40978
2.37099
2.33249
2.29432
2.25651
2.21912
2.18219
2.14578
2.10995
2.07477
2.04031
2.00666
1.97387
1.94201
1.91105
1.88108
0.0629696
0.0896312
0.113156
0.131441
0.147134
0.161543
0.175356
0.188986
0.20271
0.216726
0.231192
0.246235
0.261965
0.278481
0.295868
0.314205
0.333568
0.35403
0.375657
0.398512
0.422651
0.448124
0.474978
0.503248
0.532967
0.564157
0.596833
0.631003
0.666665
0.703811
0.742426
0.782489
0.823973
0.866846
0.911069
0.9566
1.00339
1.05139
1.10055
1.15081
1.2021
1.25438
1.30758
1.36163
1.41647
1.47204
1.52827
1.58509
1.64245
1.70027
1.75849
1.81704
1.87586
1.93489
1.99406
2.0533
2.11256
2.17177
2.23088
2.28981
2.34852
2.40695
2.46505
2.52277
2.58006
2.63683
2.69292
2.74832
2.80296
2.85682
2.90984
2.96199
3.01324
3.06354
3.11285
3.16115
3.2084
3.25456
3.2996
3.34351
3.38623
3.42776
3.46805
3.50708
3.54484
3.58129
3.61641
3.65018
3.68258
3.71359
3.7432
3.77139
3.79814
3.82344
3.84727
3.86963
3.8905
3.90988
3.92775
3.9441
3.95895
3.97226
3.98405
3.99432
4.00305
4.01026
4.01593
4.02009
4.02272
4.02384
4.02345
4.02156
4.01818
4.01332
4.007