/*--------------------------------*- C++ -*----------------------------------*\
| =========                 |                                                 |
| \\      /  F ield         | OpenFOAM: The Open Source CFD Toolbox           |
|  \\    /   O peration     | Version:  2412                                  |
|   \\  /    A nd           | Website:  www.openfoam.com                      |
|    \\/     M anipulation  |                                                 |
\*---------------------------------------------------------------------------*/
FoamFile
{
    version     2.0;
    format      ascii;
    arch        "LSB;label=32;scalar=64";
    class       volScalarField;
    location    "0.19";
    object      nut;
}
// * * * * * * * * * * * * * * * * * * * * * * * * * * * * * * * * * * * * * //

dimensions      [0 2 -1 0 0 0 0];

internalField   nonuniform List<scalar> 
12225
(
2.015e-05
2.24858e-05
2.47491e-05
2.63714e-05
2.75879e-05
2.85142e-05
2.92322e-05
2.97979e-05
3.02483e-05
3.06097e-05
3.09015e-05
3.11377e-05
3.1329e-05
3.1483e-05
3.16056e-05
3.16997e-05
3.17681e-05
3.1828e-05
0.000167792
0.000185428
0.000202597
0.000213786
0.000221145
0.000225984
0.000229001
0.00023072
0.000231514
0.000231643
0.000231292
0.000230594
0.00022965
0.000228531
0.000227296
0.00022597
0.000224709
0.000224073
0.000338328
0.000365994
0.000399361
0.000424406
0.000442779
0.000456138
0.000465648
0.000472248
0.000476657
0.000479409
0.000480905
0.000481447
0.000481264
0.000480529
0.000479376
0.000477903
0.000476299
0.000475464
0.000480631
0.00052177
0.000570122
0.00060839
0.000637802
0.000660209
0.000677098
0.000689691
0.000698952
0.000705624
0.000710279
0.000713358
0.000715206
0.000716086
0.000716208
0.000715739
0.00071491
0.000714434
0.00059357
0.000650967
0.00071349
0.000763785
0.000803283
0.000834122
0.000858088
0.000876629
0.000890895
0.000901783
0.000909997
0.000916087
0.000920489
0.000923546
0.000925531
0.000926671
0.00092722
0.00092769
0.000684417
0.000756656
0.00083195
0.000893053
0.000941625
0.000980103
0.00101056
0.00103466
0.00105369
0.0010687
0.00108048
0.00108967
0.00109678
0.00110221
0.0011063
0.00110932
0.00111153
0.00111331
0.000759756
0.000842839
0.000928291
0.000998647
0.00105522
0.00110054
0.00113687
0.00116606
0.00118953
0.00120842
0.00122362
0.00123583
0.00124564
0.00125348
0.00125975
0.00126474
0.00126871
0.00127196
0.000823624
0.000913364
0.00100525
0.00108261
0.00114578
0.00119702
0.00123857
0.00127237
0.00129992
0.00132243
0.00134086
0.00135598
0.00136839
0.00137861
0.00138704
0.001394
0.00139975
0.0014045
0.000877002
0.000970915
0.0010653
0.00114672
0.00121456
0.00127046
0.0013164
0.00135421
0.00138543
0.00141126
0.00143272
0.00145059
0.00146552
0.00147806
0.00148861
0.00149752
0.00150502
0.00151127
0.000918257
0.00101593
0.00110995
0.00119241
0.00126253
0.0013214
0.00137055
0.00141158
0.00144588
0.00147464
0.00149883
0.00151927
0.00153659
0.00155135
0.00156398
0.0015748
0.00158404
0.00159176
0.000944751
0.00104624
0.0011388
0.00122006
0.00129015
0.00135004
0.00140091
0.00144403
0.00148061
0.00151171
0.00153824
0.00156095
0.00158047
0.00159732
0.00161193
0.00162461
0.00163554
0.0016447
0.000953929
0.00105647
0.00114713
0.00122621
0.0012948
0.00135413
0.00140528
0.00144931
0.0014872
0.00151987
0.00154811
0.0015726
0.00159391
0.00161253
0.00162885
0.00164316
0.00165561
0.00166608
0.000951546
0.0010519
0.0011407
0.00121792
0.00128482
0.0013429
0.00139337
0.00143726
0.00147546
0.0015088
0.00153796
0.00156356
0.00158609
0.001606
0.00162365
0.00163928
0.00165299
0.00166454
0.000937267
0.00102693
0.00110962
0.00118334
0.00124794
0.00130435
0.00135363
0.00139677
0.00143465
0.00146802
0.00149754
0.00152373
0.00154706
0.00156792
0.00158661
0.00160336
0.00161818
0.0016307
0.000914067
0.000982519
0.00105001
0.00111402
0.00117278
0.00122568
0.00127282
0.00131464
0.00135171
0.00138464
0.00141399
0.00144027
0.00146388
0.00148519
0.00150447
0.00152192
0.00153753
0.00155076
0.000888183
0.000929367
0.000972532
0.00101673
0.00106057
0.00110291
0.00114293
0.00118013
0.0012143
0.00124546
0.00127378
0.00129949
0.00132285
0.00134413
0.00136353
0.00138123
0.00139721
0.00141089
0.000866166
0.000882905
0.00090146
0.000921829
0.000943717
0.000966726
0.00099043
0.00101438
0.00103815
0.00106138
0.0010838
0.00110521
0.00112552
0.00114463
0.00116253
0.00117925
0.0011947
0.00120847
0.000853647
0.000856464
0.000860484
0.000865725
0.000872138
0.000879658
0.000888217
0.000897723
0.000908064
0.00091911
0.000930722
0.000942759
0.000955084
0.000967575
0.000980109
0.000992568
0.00100483
0.00101668
0.000856837
0.000863039
0.000870432
0.000879023
0.000888698
0.000899303
0.000910671
0.000922617
0.000934947
0.000947474
0.000960031
0.00097248
0.000984708
0.000996632
0.00100819
0.00101934
0.00103003
0.00104003
0.000879013
0.00091009
0.000943001
0.000977094
0.00101137
0.00104492
0.00107706
0.0011073
0.00113534
0.00116108
0.00118456
0.00120586
0.00122516
0.00124261
0.0012584
0.00127269
0.0012856
0.00129719
0.000912426
0.00097863
0.00104329
0.00110415
0.00115969
0.00120944
0.00125357
0.0012925
0.00132675
0.00135688
0.00138342
0.00140683
0.00142752
0.00144584
0.00146209
0.00147653
0.00148938
0.00150092
0.000944651
0.00103937
0.00112414
0.00119816
0.00126209
0.00131726
0.00136491
0.00140609
0.0014417
0.00147253
0.00149927
0.0015225
0.0015427
0.00156031
0.00157568
0.00158912
0.00160087
0.00161121
0.000952969
0.00105495
0.00114494
0.00122286
0.00128968
0.0013468
0.00139547
0.00143684
0.00147199
0.00150189
0.00152735
0.00154907
0.00156762
0.0015835
0.0015971
0.00160876
0.00161876
0.00162732
0.000919762
0.00101577
0.00110711
0.00118655
0.00125366
0.00130983
0.00135662
0.00139556
0.00142799
0.00145507
0.00147772
0.00149668
0.00151259
0.00152594
0.00153715
0.00154655
0.00155443
0.00156097
0.00084792
0.000936212
0.00102591
0.00110193
0.0011644
0.00121544
0.00125709
0.00129112
0.00131899
0.00134186
0.00136065
0.00137609
0.00138877
0.00139919
0.00140772
0.00141468
0.00142032
0.0014248
0.000748241
0.000825344
0.000905837
0.000972006
0.00102523
0.00106796
0.00110226
0.00112982
0.00115199
0.00116982
0.00118414
0.00119563
0.00120479
0.00121206
0.00121778
0.00122223
0.00122561
0.00122806
0.000620838
0.000679397
0.000743804
0.000795903
0.000837072
0.000869522
0.000895046
0.000915072
0.000930739
0.00094294
0.000952377
0.000959601
0.000965048
0.000969065
0.000971927
0.000973857
0.000975027
0.000975555
0.000453206
0.00049108
0.000536513
0.000572228
0.000599359
0.000619977
0.00063556
0.00064722
0.00065584
0.000662099
0.000666519
0.000669501
0.000671355
0.000672326
0.000672603
0.000672337
0.000671647
0.00067063
0.00023657
0.000259231
0.000284033
0.000301437
0.000313162
0.000321244
0.000326756
0.000330375
0.000332603
0.000333805
0.000334244
0.000334114
0.000333559
0.00033269
0.00033159
0.000330323
0.00032894
0.000327502
2.7242e-05
3.0171e-05
3.32398e-05
3.54418e-05
3.70548e-05
3.82621e-05
3.91811e-05
3.98938e-05
4.04546e-05
4.09004e-05
4.12579e-05
4.15466e-05
4.17811e-05
4.19725e-05
4.21293e-05
4.22581e-05
4.23638e-05
4.24513e-05
5.10278e-06
1.3782e-05
1.5604e-05
1.68852e-05
1.7798e-05
1.85013e-05
1.92849e-05
2.00757e-05
2.08617e-05
2.16564e-05
2.24829e-05
2.33991e-05
2.45246e-05
2.57248e-05
2.69695e-05
2.82417e-05
2.95377e-05
3.08559e-05
3.21943e-05
3.35493e-05
3.4916e-05
3.62896e-05
3.76649e-05
3.90378e-05
4.04047e-05
4.17633e-05
4.31128e-05
4.44538e-05
4.57885e-05
4.71213e-05
4.84586e-05
4.97798e-05
5.10803e-05
5.23593e-05
5.36168e-05
5.48526e-05
5.60672e-05
5.72606e-05
5.84334e-05
5.95859e-05
6.07185e-05
6.18318e-05
6.29262e-05
6.4002e-05
6.50596e-05
6.60995e-05
6.71217e-05
6.81267e-05
6.91147e-05
7.00856e-05
7.10398e-05
7.19772e-05
7.2898e-05
7.3802e-05
7.46893e-05
7.55599e-05
7.64137e-05
7.72506e-05
7.80704e-05
7.88732e-05
7.96588e-05
8.0427e-05
8.11777e-05
8.19108e-05
8.26262e-05
8.33237e-05
8.40033e-05
8.46648e-05
8.53082e-05
8.59336e-05
8.65412e-05
8.71315e-05
8.77054e-05
8.8265e-05
8.88135e-05
8.93455e-05
8.98567e-05
9.0348e-05
9.082e-05
9.12728e-05
9.17063e-05
9.21207e-05
9.25157e-05
9.28915e-05
9.32478e-05
9.35848e-05
9.39022e-05
9.42002e-05
9.44786e-05
9.47375e-05
9.49769e-05
9.51967e-05
9.53971e-05
9.55779e-05
9.57393e-05
9.58812e-05
9.60037e-05
9.61069e-05
9.61908e-05
9.62554e-05
9.63008e-05
9.63272e-05
9.63344e-05
9.63227e-05
9.62921e-05
9.62427e-05
9.61745e-05
9.60877e-05
9.59823e-05
9.58585e-05
9.57163e-05
9.55558e-05
9.53772e-05
9.51806e-05
9.49661e-05
9.47339e-05
9.4484e-05
9.42166e-05
9.3932e-05
9.36301e-05
9.33114e-05
9.29758e-05
9.26236e-05
9.22551e-05
9.18704e-05
9.14698e-05
9.10535e-05
9.06217e-05
9.01748e-05
8.97131e-05
8.92367e-05
8.8746e-05
8.82414e-05
8.77231e-05
8.71916e-05
8.66471e-05
8.60902e-05
8.55211e-05
8.494e-05
8.43485e-05
8.37451e-05
8.31338e-05
8.25183e-05
8.19328e-05
8.15008e-05
8.11017e-05
8.06974e-05
8.02853e-05
7.98653e-05
7.94377e-05
7.90028e-05
7.85611e-05
7.81129e-05
7.76585e-05
7.71985e-05
7.67332e-05
7.6263e-05
7.57883e-05
7.53096e-05
7.48273e-05
7.43418e-05
7.38535e-05
7.33627e-05
7.287e-05
7.23755e-05
7.18797e-05
7.13829e-05
7.08851e-05
7.03864e-05
6.98869e-05
6.93861e-05
6.88834e-05
6.83774e-05
6.78658e-05
6.73445e-05
6.68054e-05
6.62308e-05
6.55754e-05
6.47615e-05
6.37016e-05
7.40791e-06
3.38832e-05
6.6951e-05
9.25388e-05
0.000110419
0.000122789
0.000129942
0.000134747
0.000138881
0.00014297
0.000147097
0.00015115
0.000155049
0.000158904
0.000162812
0.00016686
0.00017113
0.000175693
0.00018061
0.000185926
0.000191675
0.000197874
0.000204531
0.000211639
0.000219182
0.000227133
0.00023546
0.000244123
0.00025308
0.000262292
0.000271725
0.000281368
0.000291196
0.000301184
0.000311307
0.00032154
0.000331862
0.000342254
0.000352701
0.000363188
0.000373704
0.00038424
0.000394788
0.000405342
0.000415896
0.000426446
0.000436988
0.000447519
0.000458036
0.000468535
0.000479013
0.000489466
0.000499891
0.000510283
0.000520639
0.000530954
0.000541223
0.000551442
0.000561606
0.000571709
0.000581746
0.000591711
0.000601601
0.000611408
0.000621128
0.000630755
0.000640284
0.000649706
0.000659015
0.000668198
0.00067724
0.000686116
0.000694792
0.000703218
0.000711138
0.000718613
0.000725899
0.000733038
0.000740036
0.000746892
0.000753604
0.000760169
0.000766587
0.000772853
0.000778966
0.000784924
0.000790724
0.000796365
0.000801844
0.00080716
0.000812312
0.000817298
0.000822116
0.000826766
0.000831246
0.000835555
0.000839693
0.000843658
0.00084745
0.000851068
0.000854511
0.000857779
0.000860872
0.000863788
0.000866528
0.000869092
0.000871478
0.000873686
0.000875717
0.000877569
0.000879244
0.00088074
0.000882057
0.000883196
0.000884157
0.000884939
0.000885543
0.000885968
0.000886216
0.000886287
0.00088618
0.000885898
0.000885439
0.000884806
0.000883998
0.000883018
0.000881865
0.000880543
0.000879051
0.000877392
0.000875567
0.000873579
0.000871429
0.00086912
0.000866655
0.000864034
0.000861265
0.000858347
0.00085528
0.000852081
0.000848743
0.00084523
0.000841455
0.000837039
0.000831126
0.00082451
0.000817617
0.000810564
0.000803391
0.000796117
0.000788755
0.000781312
0.000773798
0.000766217
0.000758578
0.000750885
0.000743145
0.000735364
0.000727547
0.0007197
0.000711828
0.000703936
0.00069603
0.000688114
0.000680193
0.000672271
0.000664353
0.000656441
0.000648538
0.000640646
0.000632765
0.000624893
0.000617025
0.000609151
0.000601247
0.000593278
0.000585139
0.00057657
0.000563932
0.000540472
8.97221e-06
5.46985e-05
0.000110239
0.000152556
0.000182071
0.000201625
0.000214742
0.000224196
0.000231908
0.000239009
0.000246055
0.00025328
0.000260798
0.000268704
0.000277095
0.000286072
0.000295736
0.000306181
0.000317487
0.000329712
0.000342891
0.000357035
0.000372132
0.000388147
0.000405029
0.000422712
0.000441121
0.000460174
0.00047979
0.000499894
0.000520414
0.000541289
0.000562461
0.000583877
0.000605486
0.000627246
0.000649121
0.000671082
0.000693101
0.00071516
0.00073724
0.000759329
0.000781416
0.000803491
0.000825548
0.000847578
0.000869577
0.000891537
0.000913453
0.000935318
0.000957126
0.000978867
0.00100054
0.00102212
0.00104362
0.00106501
0.00108629
0.00110745
0.00112847
0.00114935
0.00117007
0.00119062
0.00121098
0.00123114
0.0012511
0.00127082
0.0012903
0.00130952
0.00132846
0.00134709
0.00136538
0.00138329
0.00140079
0.00141783
0.0014342
0.00145011
0.00146567
0.00148091
0.00149585
0.00151048
0.00152479
0.00153879
0.00155246
0.00156581
0.00157883
0.00159151
0.00160384
0.00161583
0.00162748
0.00163876
0.00164969
0.00166026
0.00167047
0.00168031
0.00168978
0.00169888
0.0017076
0.00171596
0.00172393
0.00173153
0.00173875
0.00174558
0.00175204
0.00175811
0.0017638
0.0017691
0.00177402
0.00177855
0.0017827
0.00178646
0.00178983
0.00179282
0.00179542
0.00179763
0.00179945
0.00180089
0.00180194
0.0018026
0.00180288
0.00180277
0.00180229
0.00180142
0.00180017
0.00179854
0.00179654
0.00179416
0.00179141
0.0017883
0.00178482
0.00178099
0.00177679
0.00177225
0.00176736
0.00176213
0.00175657
0.00175068
0.00174448
0.00173797
0.00173116
0.00172404
0.00171664
0.00170885
0.00170053
0.00169134
0.00168069
0.00166905
0.00165683
0.00164423
0.00163133
0.00161817
0.0016048
0.00159123
0.00157748
0.00156355
0.00154948
0.00153527
0.00152093
0.00150647
0.00149192
0.00147727
0.00146254
0.00144775
0.0014329
0.001418
0.00140307
0.00138811
0.00137313
0.00135814
0.00134314
0.00132814
0.00131314
0.00129813
0.0012831
0.00126802
0.00125283
0.00123742
0.00122153
0.00120445
0.00118279
0.00114564
1.01519e-05
7.35463e-05
0.00014516
0.000199159
0.000237138
0.000263581
0.000282377
0.000296563
0.000308329
0.000319115
0.000329784
0.000340816
0.000352477
0.000364937
0.000378323
0.000392745
0.000408302
0.000425074
0.00044312
0.000462474
0.000483136
0.000505083
0.000528262
0.000552602
0.000578015
0.0006044
0.000631654
0.000659671
0.000688351
0.000717599
0.000747326
0.000777456
0.000807916
0.000838646
0.00086959
0.000900703
0.000931944
0.000963281
0.000994686
0.00102614
0.00105761
0.0010891
0.00112059
0.00115206
0.0011835
0.00121491
0.00124628
0.00127759
0.00130883
0.00134
0.00137107
0.00140205
0.00143291
0.00146365
0.00149424
0.00152467
0.00155493
0.001585
0.00161486
0.00164449
0.00167387
0.00170299
0.00173183
0.00176037
0.00178858
0.00181644
0.00184394
0.00187104
0.00189773
0.00192397
0.00194974
0.00197501
0.00199976
0.00202387
0.00204734
0.00207028
0.00209275
0.00211476
0.00213634
0.00215747
0.00217815
0.00219838
0.00221815
0.00223746
0.00225628
0.00227463
0.00229249
0.00230985
0.00232672
0.00234308
0.00235893
0.00237426
0.00238907
0.00240337
0.00241713
0.00243037
0.00244307
0.00245523
0.00246686
0.00247794
0.00248848
0.00249847
0.00250792
0.00251682
0.00252516
0.00253296
0.0025402
0.00254689
0.00255302
0.00255859
0.00256361
0.00256807
0.00257197
0.00257531
0.00257809
0.00258032
0.00258199
0.0025831
0.00258366
0.00258366
0.0025831
0.002582
0.00258034
0.00257814
0.0025754
0.00257211
0.00256829
0.00256394
0.00255906
0.00255366
0.00254774
0.00254132
0.00253439
0.00252697
0.00251908
0.00251071
0.00250188
0.00249261
0.00248289
0.00247272
0.00246208
0.00245092
0.00243911
0.00242639
0.00241248
0.00239757
0.00238193
0.00236573
0.00234907
0.00233203
0.00231463
0.00229692
0.00227892
0.00226065
0.00224213
0.00222338
0.00220442
0.00218527
0.00216594
0.00214645
0.00212682
0.00210706
0.00208719
0.00206723
0.00204718
0.00202707
0.00200691
0.00198671
0.00196647
0.00194621
0.00192592
0.0019056
0.00188524
0.0018648
0.0018442
0.00182328
0.0018017
0.00177857
0.00175099
0.00171099
1.10111e-05
8.8903e-05
0.000173423
0.000237507
0.000283749
0.000316986
0.000341452
0.000360466
0.000376477
0.000391178
0.000405668
0.000420623
0.000436447
0.00045339
0.000471612
0.000491226
0.000512312
0.00053492
0.000559073
0.000584762
0.000611953
0.000640583
0.000670569
0.000701814
0.000734208
0.000767636
0.000801983
0.000837135
0.000872987
0.000909438
0.000946399
0.000983788
0.00102153
0.00105957
0.00109784
0.0011363
0.0011749
0.00121362
0.00125242
0.00129128
0.00133016
0.00136907
0.00140797
0.00144685
0.0014857
0.0015245
0.00156324
0.0016019
0.00164047
0.00167894
0.00171728
0.00175548
0.00179352
0.00183139
0.00186907
0.00190653
0.00194375
0.00198072
0.00201742
0.00205381
0.00208988
0.00212561
0.00216098
0.00219595
0.00223051
0.00226463
0.00229829
0.00233147
0.00236413
0.00239626
0.00242783
0.00245882
0.00248922
0.00251889
0.00254791
0.00257634
0.0026042
0.00263153
0.00265832
0.00268457
0.00271027
0.00273543
0.00276002
0.00278405
0.0028075
0.00283036
0.00285264
0.00287431
0.00289538
0.00291584
0.00293568
0.00295489
0.00297347
0.00299142
0.00300873
0.00302539
0.00304141
0.00305677
0.00307147
0.00308551
0.00309889
0.00311161
0.00312365
0.00313503
0.00314573
0.00315576
0.0031651
0.00317377
0.00318176
0.00318906
0.00319569
0.00320162
0.00320687
0.00321144
0.00321531
0.0032185
0.00322101
0.00322282
0.00322395
0.0032244
0.00322416
0.00322324
0.00322164
0.00321936
0.00321641
0.00321279
0.0032085
0.00320355
0.00319795
0.0031917
0.00318481
0.00317729
0.00316915
0.0031604
0.00315104
0.00314109
0.00313056
0.00311947
0.0031078
0.00309557
0.00308276
0.00306931
0.00305515
0.00304012
0.00302407
0.00300707
0.00298928
0.00297083
0.00295181
0.00293228
0.0029123
0.0028919
0.00287111
0.00284996
0.00282848
0.00280668
0.00278459
0.00276224
0.00273963
0.0027168
0.00269377
0.00267055
0.00264716
0.00262362
0.00259996
0.00257619
0.00255232
0.00252838
0.00250438
0.00248032
0.00245622
0.00243207
0.00240786
0.00238356
0.00235908
0.00233428
0.00230878
0.00228175
0.00225095
0.00221184
1.17847e-05
9.94479e-05
0.000194941
0.000268722
0.000323157
0.000363294
0.000393615
0.000417672
0.000438135
0.000456914
0.000475305
0.000494152
0.000513983
0.000535122
0.000557765
0.000582028
0.000607971
0.000635619
0.000664958
0.000695948
0.000728524
0.0007626
0.000798074
0.000834837
0.000872769
0.000911751
0.000951668
0.000992406
0.00103386
0.00107593
0.00111853
0.00116158
0.00120501
0.00124874
0.00129273
0.00133693
0.00138128
0.00142576
0.00147034
0.00151497
0.00155964
0.00160433
0.001649
0.00169365
0.00173825
0.00178278
0.00182723
0.00187157
0.0019158
0.00195989
0.00200381
0.00204756
0.00209111
0.00213444
0.00217753
0.00222035
0.00226289
0.00230511
0.00234701
0.00238854
0.00242969
0.00247044
0.00251075
0.00255061
0.00258999
0.00262886
0.00266721
0.00270501
0.00274224
0.00277887
0.00281488
0.00285027
0.00288499
0.00291897
0.00295227
0.00298493
0.00301697
0.00304841
0.00307925
0.00310949
0.00313912
0.00316813
0.00319652
0.00322427
0.00325138
0.00327784
0.00330363
0.00332876
0.0033532
0.00337697
0.00340004
0.00342241
0.00344407
0.00346502
0.00348526
0.00350477
0.00352355
0.0035416
0.0035589
0.00357547
0.00359129
0.00360635
0.00362066
0.00363422
0.00364701
0.00365904
0.0036703
0.0036808
0.00369052
0.00369946
0.00370764
0.00371503
0.00372164
0.00372748
0.00373253
0.0037368
0.00374029
0.00374299
0.00374492
0.00374606
0.00374641
0.00374599
0.00374479
0.00374282
0.00374008
0.00373656
0.00373229
0.00372725
0.00372147
0.00371493
0.00370767
0.00369967
0.00369095
0.00368153
0.00367141
0.0036606
0.00364911
0.00363696
0.00362415
0.00361068
0.00359654
0.0035817
0.00356611
0.00354967
0.00353231
0.00351406
0.003495
0.00347521
0.00345478
0.00343376
0.0034122
0.00339014
0.00336761
0.00334464
0.00332126
0.00329749
0.00327336
0.0032489
0.00322413
0.00319906
0.00317373
0.00314816
0.00312237
0.00309638
0.00307021
0.00304389
0.00301744
0.00299088
0.00296422
0.00293749
0.00291069
0.00288383
0.00285691
0.00282989
0.00280273
0.00277528
0.00274721
0.00271782
0.00268551
0.00264801
1.27344e-05
0.000104475
0.000209583
0.00029282
0.000355449
0.000402592
0.000438937
0.000468231
0.000493325
0.000516301
0.000538619
0.000561264
0.000584872
0.00060984
0.000636403
0.000664687
0.000694749
0.000726594
0.000760189
0.000795473
0.000832366
0.000870767
0.000910569
0.000951655
0.000993907
0.00103721
0.00108144
0.0011265
0.00117229
0.0012187
0.00126565
0.00131306
0.00136086
0.00140899
0.00145738
0.00150599
0.00155477
0.00160369
0.00165269
0.00170176
0.00175086
0.00179997
0.00184905
0.00189809
0.00194707
0.00199596
0.00204475
0.0020934
0.00214191
0.00219025
0.0022384
0.00228633
0.00233403
0.00238147
0.00242864
0.0024755
0.00252203
0.00256821
0.00261401
0.00265941
0.00270439
0.00274892
0.00279297
0.00283652
0.00287955
0.00292203
0.00296395
0.00300527
0.00304598
0.00308606
0.00312549
0.00316426
0.00320231
0.00323961
0.00327622
0.00331217
0.00334747
0.00338214
0.00341617
0.00344955
0.00348229
0.00351437
0.00354578
0.00357652
0.00360657
0.00363593
0.00366458
0.00369252
0.00371974
0.00374622
0.00377196
0.00379695
0.00382119
0.00384466
0.00386736
0.00388928
0.00391042
0.00393077
0.00395033
0.00396908
0.00398702
0.00400416
0.00402048
0.00403598
0.00405066
0.00406451
0.00407753
0.00408972
0.00410107
0.00411157
0.00412124
0.00413006
0.00413803
0.00414516
0.00415143
0.00415685
0.00416142
0.00416513
0.00416799
0.00417
0.00417114
0.00417144
0.00417089
0.00416949
0.00416724
0.00416415
0.00416023
0.00415547
0.00414988
0.00414347
0.00413625
0.00412823
0.00411941
0.00410981
0.00409944
0.0040883
0.00407642
0.0040638
0.00405044
0.00403636
0.00402154
0.00400597
0.00398961
0.00397243
0.00395438
0.00393547
0.00391575
0.00389527
0.00387409
0.00385227
0.00382984
0.00380684
0.00378331
0.00375927
0.00373476
0.00370981
0.00368443
0.00365865
0.00363251
0.00360602
0.00357922
0.00355211
0.00352474
0.00349713
0.00346929
0.00344126
0.00341306
0.00338472
0.00335625
0.00332768
0.00329902
0.0032703
0.00324152
0.00321267
0.00318371
0.00315453
0.00312487
0.00309418
0.00306135
0.00302516
1.35036e-05
0.000106864
0.000219207
0.000310705
0.000381006
0.000434971
0.000477328
0.000511925
0.000541729
0.000568944
0.000595154
0.000621456
0.000648581
0.000676994
0.000706974
0.00073867
0.000772148
0.000807408
0.000844414
0.000883098
0.000923371
0.000965132
0.00100827
0.00105267
0.00109822
0.00114481
0.00119232
0.00124065
0.0012897
0.00133938
0.0013896
0.00144029
0.00149138
0.00154279
0.00159448
0.00164638
0.00169846
0.00175067
0.00180297
0.00185532
0.0019077
0.00196008
0.00201242
0.00206471
0.00211691
0.00216902
0.00222099
0.00227282
0.00232448
0.00237594
0.0024272
0.00247821
0.00252897
0.00257945
0.00262963
0.00267948
0.00272897
0.00277809
0.00282682
0.00287511
0.00292296
0.00297033
0.0030172
0.00306355
0.00310936
0.0031546
0.00319924
0.00324327
0.00328668
0.00332943
0.00337151
0.00341291
0.00345355
0.00349348
0.00353271
0.00357127
0.00360918
0.00364643
0.00368303
0.00371897
0.00375424
0.00378883
0.00382274
0.00385595
0.00388844
0.00392022
0.00395127
0.00398157
0.00401112
0.00403991
0.00406793
0.00409516
0.00412161
0.00414726
0.0041721
0.00419613
0.00421934
0.00424172
0.00426327
0.00428397
0.00430382
0.00432282
0.00434096
0.00435824
0.00437465
0.00439019
0.00440485
0.00441863
0.00443152
0.00444352
0.00445463
0.00446485
0.00447417
0.00448259
0.00449011
0.00449672
0.00450242
0.00450722
0.00451111
0.00451409
0.00451616
0.00451732
0.00451758
0.00451695
0.0045154
0.00451294
0.0045096
0.00450536
0.00450024
0.00449424
0.00448737
0.00447965
0.00447107
0.00446165
0.00445141
0.00444034
0.00442847
0.0044158
0.00440234
0.0043881
0.00437307
0.00435726
0.00434064
0.00432319
0.0043049
0.00428577
0.00426582
0.0042451
0.00422365
0.0042015
0.00417871
0.00415529
0.00413129
0.00410673
0.00408164
0.00405606
0.00403
0.0040035
0.00397657
0.00394926
0.00392157
0.00389355
0.00386521
0.00383659
0.00380771
0.00377859
0.00374926
0.00371976
0.00369011
0.00366034
0.00363047
0.00360053
0.00357054
0.0035405
0.00351041
0.00348018
0.00344962
0.00341832
0.00338553
0.00335054
1.41087e-05
0.000107327
0.000224718
0.000323084
0.000400279
0.000460659
0.00050883
0.000548642
0.000583109
0.000614509
0.000644507
0.000674285
0.000704652
0.000736136
0.000769062
0.000803615
0.000839876
0.00087786
0.000917536
0.000958839
0.00100168
0.00104597
0.0010916
0.00113846
0.00118643
0.00123541
0.0012853
0.00133599
0.00138738
0.0014394
0.00149195
0.00154497
0.00159837
0.0016521
0.0017061
0.00176031
0.00181469
0.0018692
0.00192379
0.00197843
0.00203309
0.00208773
0.00214234
0.00219687
0.00225132
0.00230566
0.00235986
0.00241391
0.00246777
0.00252144
0.00257489
0.0026281
0.00268104
0.00273371
0.00278606
0.00283808
0.00288975
0.00294103
0.00299192
0.00304237
0.00309238
0.0031419
0.00319092
0.00323941
0.00328736
0.00333473
0.0033815
0.00342765
0.00347317
0.00351803
0.00356222
0.00360571
0.00364846
0.00369052
0.0037319
0.00377262
0.00381268
0.0038521
0.00389085
0.00392894
0.00396636
0.00400309
0.00403913
0.00407446
0.00410907
0.00414294
0.00417607
0.00420844
0.00424004
0.00427086
0.00430089
0.00433012
0.00435854
0.00438613
0.0044129
0.00443883
0.00446391
0.00448813
0.00451149
0.00453398
0.00455558
0.0045763
0.00459613
0.00461507
0.00463311
0.00465024
0.00466646
0.00468176
0.00469613
0.00470958
0.0047221
0.00473369
0.00474434
0.00475406
0.00476284
0.00477066
0.00477753
0.00478346
0.00478846
0.00479249
0.00479557
0.00479769
0.00479887
0.0047991
0.00479838
0.00479672
0.00479412
0.00479059
0.00478613
0.00478076
0.00477447
0.00476728
0.00475919
0.00475022
0.00474037
0.00472966
0.0047181
0.00470569
0.00469245
0.00467839
0.00466351
0.0046478
0.00463127
0.00461391
0.00459571
0.00457668
0.00455683
0.00453619
0.0045148
0.00449269
0.00446988
0.00444642
0.00442233
0.00439764
0.00437238
0.00434658
0.00432027
0.00429346
0.0042662
0.0042385
0.00421039
0.00418189
0.00415305
0.00412388
0.00409441
0.00406467
0.0040347
0.00400452
0.00397416
0.00394367
0.00391306
0.00388239
0.00385167
0.00382094
0.0037902
0.0037594
0.00372843
0.00369698
0.00366453
0.00363065
1.45711e-05
0.000106303
0.000226786
0.000330596
0.000413776
0.000480006
0.00053364
0.00057844
0.000617406
0.000652839
0.000686453
0.000719487
0.000752809
0.000787004
0.000822444
0.00085935
0.000897834
0.000937931
0.000979625
0.00102286
0.00106757
0.00111365
0.00116101
0.00120955
0.00125916
0.00130974
0.00136119
0.00141341
0.00146631
0.00151981
0.00157383
0.00162829
0.00168312
0.00173827
0.00179368
0.0018493
0.00190507
0.00196096
0.00201694
0.00207296
0.00212899
0.00218501
0.002241
0.00229692
0.00235276
0.0024085
0.0024641
0.00251957
0.00257487
0.00262998
0.00268489
0.00273958
0.00279402
0.00284819
0.00290208
0.00295565
0.00300889
0.00306177
0.00311426
0.00316634
0.00321798
0.00326916
0.00331985
0.00337003
0.00341966
0.00346873
0.00351722
0.00356509
0.00361233
0.00365892
0.00370484
0.00375006
0.0037946
0.00383847
0.00388169
0.00392427
0.00396622
0.00400752
0.00404817
0.00408816
0.00412748
0.00416612
0.00420406
0.00424129
0.0042778
0.00431357
0.00434858
0.00438283
0.00441629
0.00444897
0.00448084
0.00451189
0.00454212
0.00457151
0.00460006
0.00462775
0.00465458
0.00468052
0.00470558
0.00472974
0.004753
0.00477535
0.00479679
0.0048173
0.00483689
0.00485555
0.00487328
0.00489005
0.00490587
0.00492073
0.00493463
0.00494757
0.00495956
0.00497058
0.00498062
0.00498967
0.00499774
0.00500483
0.00501095
0.00501608
0.00502022
0.00502338
0.00502556
0.00502676
0.00502698
0.00502623
0.00502451
0.00502182
0.00501817
0.00501357
0.00500802
0.00500153
0.00499412
0.00498579
0.00497654
0.0049664
0.00495537
0.00494346
0.00493069
0.00491705
0.00490257
0.00488724
0.00487107
0.00485405
0.0048362
0.00481751
0.004798
0.00477769
0.00475661
0.00473479
0.00471224
0.00468901
0.00466512
0.0046406
0.00461547
0.00458977
0.00456351
0.00453673
0.00450944
0.00448169
0.00445349
0.00442488
0.00439587
0.0043665
0.00433681
0.00430681
0.00427655
0.00424605
0.00421536
0.00418451
0.00415354
0.00412249
0.00409142
0.00406035
0.00402932
0.00399832
0.00396726
0.00393595
0.00390399
0.00387113
1.4909e-05
0.000104146
0.000225998
0.000333856
0.00042204
0.000493448
0.000552075
0.000601521
0.000644716
0.000683946
0.000720937
0.000756963
0.000792935
0.000829485
0.000867028
0.000905825
0.000946018
0.000987669
0.00103078
0.00107532
0.00112123
0.00116842
0.00121681
0.0012663
0.0013168
0.00136821
0.00142043
0.00147338
0.00152697
0.00158112
0.00163576
0.00169081
0.00174622
0.00180193
0.00185788
0.00191403
0.00197033
0.00202676
0.00208327
0.00213984
0.00219643
0.00225304
0.00230963
0.00236618
0.00242268
0.0024791
0.00253544
0.00259167
0.00264777
0.00270373
0.00275953
0.00281515
0.00287056
0.00292576
0.00298071
0.00303539
0.00308978
0.00314384
0.00319756
0.00325091
0.00330385
0.00335636
0.00340841
0.00345996
0.003511
0.0035615
0.00361142
0.00366075
0.00370947
0.00375754
0.00380496
0.00385172
0.00389784
0.00394335
0.00398824
0.00403252
0.00407618
0.00411921
0.0041616
0.00420335
0.00424443
0.00428484
0.00432456
0.00436357
0.00440184
0.00443938
0.00447616
0.00451217
0.00454739
0.00458181
0.00461541
0.00464819
0.00468014
0.00471123
0.00474147
0.00477083
0.00479932
0.00482692
0.0048536
0.00487937
0.00490422
0.00492814
0.00495112
0.00497316
0.00499426
0.00501441
0.00503361
0.00505183
0.00506906
0.00508531
0.00510058
0.00511486
0.00512816
0.00514047
0.00515177
0.00516207
0.00517136
0.00517965
0.00518693
0.0051932
0.00519847
0.00520273
0.00520598
0.00520823
0.00520947
0.00520972
0.00520897
0.00520723
0.0052045
0.00520079
0.00519611
0.00519047
0.00518387
0.00517632
0.00516784
0.00515843
0.00514811
0.00513688
0.00512475
0.00511174
0.00509786
0.00508311
0.00506749
0.00505103
0.00503372
0.00501556
0.00499659
0.0049768
0.00495623
0.0049349
0.00491283
0.00489004
0.00486657
0.00484244
0.00481768
0.00479231
0.00476635
0.00473984
0.0047128
0.00468525
0.00465723
0.00462876
0.00459986
0.00457058
0.00454093
0.00451096
0.00448069
0.00445016
0.00441941
0.00438849
0.00435744
0.0043263
0.00429515
0.00426402
0.00423297
0.00420201
0.00417109
0.00414009
0.00410872
0.00407679
1.51364e-05
0.000101151
0.000222882
0.000333445
0.000425616
0.000501452
0.000564512
0.000618167
0.00066523
0.000707934
0.000747994
0.000786696
0.000824979
0.000863507
0.000902735
0.000942957
0.00098435
0.001027
0.00107095
0.00111616
0.0011626
0.00121021
0.0012589
0.0013086
0.00135921
0.00141064
0.00146283
0.00151567
0.0015691
0.00162304
0.00167743
0.00173221
0.00178732
0.00184271
0.00189835
0.00195419
0.0020102
0.00206636
0.00212263
0.00217899
0.00223543
0.00229192
0.00234845
0.00240501
0.00246157
0.00251813
0.00257467
0.00263117
0.00268762
0.002744
0.00280028
0.00285646
0.00291251
0.00296841
0.00302413
0.00307965
0.00313493
0.00318995
0.00324469
0.00329909
0.00335314
0.0034068
0.00346004
0.00351282
0.00356511
0.00361688
0.0036681
0.00371874
0.00376878
0.0038182
0.00386701
0.00391524
0.00396288