/*--------------------------------*- C++ -*----------------------------------*\
| =========                 |                                                 |
| \\      /  F ield         | OpenFOAM: The Open Source CFD Toolbox           |
|  \\    /   O peration     | Version:  2412                                  |
|   \\  /    A nd           | Website:  www.openfoam.com                      |
|    \\/     M anipulation  |                                                 |
\*---------------------------------------------------------------------------*/
FoamFile
{
    version     2.0;
    format      ascii;
    arch        "LSB;label=32;scalar=64";
    class       volScalarField;
    location    "0.19";
    object      p;
}
// * * * * * * * * * * * * * * * * * * * * * * * * * * * * * * * * * * * * * //

dimensions      [0 2 -2 0 0 0 0];

internalField   nonuniform List<scalar> 
12225
(
-10.3294
-9.73708
-9.07437
-8.51794
-8.00888
-7.55244
-7.15388
-6.80286
-6.4905
-6.2112
-5.96007
-5.73259
-5.52493
-5.33375
-5.15599
-4.98815
-4.82803
-4.6612
-10.7632
-9.79526
-9.10918
-8.55891
-8.04918
-7.59269
-7.19349
-6.84107
-6.52707
-6.24608
-5.99321
-5.764
-5.55464
-5.36177
-5.18234
-5.01296
-4.85079
-4.69259
-10.9436
-9.82954
-9.15093
-8.60978
-8.09958
-7.64396
-7.24489
-6.89142
-6.57588
-6.2931
-6.03828
-5.80706
-5.59567
-5.4008
-5.21943
-5.04837
-4.88478
-4.72356
-10.9675
-9.84525
-9.17561
-8.64374
-8.13623
-7.68347
-7.28628
-6.93336
-6.61765
-6.33427
-6.07853
-5.8462
-5.63361
-5.43758
-5.25515
-5.08357
-4.91957
-4.76229
-10.8974
-9.83997
-9.17589
-8.65452
-8.15405
-7.70621
-7.31257
-6.96186
-6.64745
-6.36475
-6.10926
-5.87689
-5.66415
-5.46799
-5.28563
-5.11485
-4.95228
-4.80288
-10.7556
-9.80683
-9.15241
-8.64366
-8.15482
-7.71418
-7.3257
-6.97868
-6.66685
-6.38592
-6.13165
-5.90017
-5.68817
-5.49281
-5.31153
-5.14265
-4.98298
-4.84213
-10.553
-9.74039
-9.10617
-8.61197
-8.13924
-7.70858
-7.327
-6.98518
-6.67716
-6.39905
-6.14694
-5.91721
-5.70677
-5.51304
-5.33375
-5.16767
-5.01187
-4.87932
-10.3
-9.63806
-9.03799
-8.56002
-8.10723
-7.68978
-7.31705
-6.98201
-6.67913
-6.40492
-6.15591
-5.92879
-5.72074
-5.52945
-5.35296
-5.19044
-5.03916
-4.9145
-10.0076
-9.49953
-8.94901
-8.48946
-8.0593
-7.65839
-7.29662
-6.96994
-6.67354
-6.40436
-6.15941
-5.93577
-5.73093
-5.54288
-5.36993
-5.21156
-5.06523
-4.94792
-9.68683
-9.32679
-8.8406
-8.40313
-7.99717
-7.61571
-7.26702
-6.95018
-6.66155
-6.3985
-6.15856
-5.93925
-5.7384
-5.5543
-5.38553
-5.2318
-5.09063
-4.98005
-9.34994
-9.12462
-8.71439
-8.30458
-7.92376
-7.56397
-7.23034
-6.92464
-6.64485
-6.3889
-6.15482
-5.9406
-5.74443
-5.5649
-5.40083
-5.25207
-5.11604
-5.01172
-9.03796
-8.91885
-8.58467
-8.20641
-7.84953
-7.51109
-7.19293
-6.89844
-6.62751
-6.37877
-6.15068
-5.94168
-5.7503
-5.57538
-5.41591
-5.27189
-5.14037
-5.04168
-8.74297
-8.70448
-8.44613
-8.1042
-7.77152
-7.45509
-7.15367
-6.8712
-6.60961
-6.36853
-6.14686
-5.94345
-5.75716
-5.58709
-5.43238
-5.29305
-5.16646
-5.07111
-8.43591
-8.46006
-8.28055
-7.98471
-7.68078
-7.38989
-7.1092
-6.84177
-6.59155
-6.35967
-6.14574
-5.94901
-5.76875
-5.60431
-5.45504
-5.32092
-5.19968
-5.10685
-8.13884
-8.20585
-8.09799
-7.85402
-7.58254
-7.31923
-7.0625
-6.81343
-6.57702
-6.35618
-6.15146
-5.9626
-5.78926
-5.63111
-5.4877
-5.35906
-5.24307
-5.15238
-7.88047
-7.97381
-7.92361
-7.73068
-7.49253
-7.2556
-7.02264
-6.7931
-6.57182
-6.36317
-6.16875
-5.98876
-5.82315
-5.67184
-5.53455
-5.41136
-5.30036
-5.21123
-7.69292
-7.80101
-7.7923
-7.64347
-7.43672
-7.22317
-7.01073
-6.79859
-6.59097
-6.39309
-6.20764
-6.03534
-5.87636
-5.73079
-5.59841
-5.47923
-5.37165
-5.28165
-7.61646
-7.72878
-7.74129
-7.61966
-7.43469
-7.23778
-7.03995
-6.84072
-6.64364
-6.45414
-6.27552
-6.10881
-5.95422
-5.81176
-5.68134
-5.56275
-5.45496
-5.35927
-7.71596
-7.82299
-7.82933
-7.70269
-7.51448
-7.31575
-7.11712
-6.9179
-6.72148
-6.53309
-6.35575
-6.19029
-6.03669
-5.89475
-5.76416
-5.6442
-5.53463
-5.43228
-7.99234
-8.08676
-8.05334
-7.88179
-7.66023
-7.43753
-7.21916
-7.00384
-6.79552
-6.59875
-6.41539
-6.2455
-6.08861
-5.94415
-5.81141
-5.68932
-5.57761
-5.47063
-8.38582
-8.44393
-8.34156
-8.10714
-7.84282
-7.58788
-7.34178
-7.10402
-6.87897
-6.66973
-6.47676
-6.29935
-6.13665
-5.98772
-5.85157
-5.72697
-5.6135
-5.5052
-8.88627
-8.866
-8.6578
-8.34803
-8.036
-7.74203
-7.46236
-7.19889
-6.95509
-6.73174
-6.52782
-6.34197
-6.17281
-6.01894
-5.87902
-5.75163
-5.63599
-5.52641
-9.45033
-9.29476
-8.95086
-8.568
-8.21139
-7.87789
-7.56591
-7.27929
-7.01876
-6.78254
-6.5686
-6.37499
-6.19983
-6.04128
-5.8977
-5.76749
-5.64959
-5.53893
-10.0148
-9.66878
-9.18569
-8.7479
-8.35398
-7.98447
-7.64505
-7.3394
-7.06463
-6.81725
-6.59464
-6.39435
-6.21399
-6.05135
-5.90454
-5.77181
-5.65187
-5.54031
-10.5188
-9.95031
-9.35466
-8.88286
-8.45629
-8.05581
-7.69501
-7.37454
-7.08843
-6.83228
-6.60299
-6.39761
-6.21331
-6.04761
-5.8984
-5.76378
-5.64234
-5.53031
-10.9203
-10.1279
-9.46142
-8.96929
-8.51418
-8.09026
-7.71455
-7.3835
-7.08924
-6.82694
-6.59308
-6.38427
-6.19737
-6.02971
-5.87899
-5.74324
-5.62091
-5.50884
-11.1916
-10.2114
-9.51165
-9.00496
-8.5286
-8.08982
-7.70459
-7.36659
-7.06715
-6.80114
-6.56465
-6.35398
-6.16579
-5.99724
-5.84595
-5.70984
-5.58732
-5.47576
-11.2989
-10.2268
-9.5123
-8.98924
-8.50085
-8.05452
-7.66371
-7.32189
-7.02012
-6.75275
-6.51558
-6.30471
-6.11665
-5.94845
-5.79766
-5.66214
-5.54022
-5.42985
-11.1662
-10.197
-9.47728
-8.93161
-8.4383
-7.98964
-7.59648
-7.25383
-6.95239
-6.68592
-6.44997
-6.24054
-6.05403
-5.8874
-5.73817
-5.60416
-5.48363
-5.37482
-10.6351
-10.1047
-9.4347
-8.87469
-8.37964
-7.93074
-7.53713
-7.1951
-6.895
-6.63007
-6.39575
-6.18797
-6.00308
-5.83802
-5.69027
-5.55766
-5.43835
-5.33053
-4.71916
-4.71887
-4.71993
-4.72209
-4.72475
-4.72753
-4.73039
-4.73341
-4.73667
-4.74022
-4.74416
-4.74857
-4.75356
-4.75923
-4.76568
-4.77301
-4.78134
-4.79078
-4.80146
-4.81349
-4.82697
-4.842
-4.85864
-4.87692
-4.89684
-4.91838
-4.94145
-4.96598
-4.99183
-5.01884
-5.04676
-5.07533
-5.10434
-5.13359
-5.16287
-5.19199
-5.22073
-5.24893
-5.2764
-5.30296
-5.32846
-5.35274
-5.37565
-5.39705
-5.41681
-5.43479
-5.45086
-5.46491
-5.4768
-5.48643
-5.49367
-5.49841
-5.50054
-5.49996
-5.49655
-5.49023
-5.48089
-5.46843
-5.45278
-5.43383
-5.41153
-5.38578
-5.35652
-5.32369
-5.28723
-5.2471
-5.20324
-5.15563
-5.10424
-5.04905
-4.99006
-4.92731
-4.86087
-4.79072
-4.71678
-4.63885
-4.55692
-4.47115
-4.38161
-4.28835
-4.19143
-4.09091
-3.98683
-3.87924
-3.76823
-3.65385
-3.53617
-3.41528
-3.29126
-3.1642
-3.03419
-2.90133
-2.76573
-2.62748
-2.4867
-2.3435
-2.198
-2.05032
-1.90058
-1.74891
-1.59544
-1.44029
-1.28361
-1.12552
-0.966167
-0.805687
-0.64422
-0.481909
-0.318896
-0.155325
0.00866052
0.172916
0.337296
0.501657
0.665855
0.829747
0.99319
1.15605
1.31817
1.47943
1.6397
1.79883
1.95669
2.11317
2.26814
2.42149
2.57308
2.72283
2.87061
3.01633
3.1599
3.30122
3.44021
3.57678
3.71088
3.84243
3.97137
4.09765
4.22122
4.34205
4.46012
4.57539
4.68786
4.7975
4.90425
5.00803
5.10885
5.20673
5.3017
5.39379
5.48303
5.56943
5.65303
5.73386
5.81194
5.88732
5.96002
6.03009
6.09755
6.16247
6.22486
6.28477
6.34225
6.39733
6.45006
6.50049
6.54865
6.59461
6.63842
6.68016
6.71992
6.75784
6.79411
6.82902
6.86308
6.8971
6.93302
6.974
7.03192
7.10724
-4.71868
-4.71907
-4.72023
-4.72208
-4.72407
-4.72586
-4.72734
-4.72864
-4.73006
-4.73185
-4.73414
-4.73703
-4.74056
-4.7448
-4.74985
-4.75584
-4.7629
-4.77118
-4.78083
-4.79199
-4.80478
-4.81931
-4.83565
-4.85382
-4.8738
-4.89554
-4.91892
-4.94381
-4.97003
-4.99738
-5.02562
-5.05452
-5.08384
-5.11337
-5.1429
-5.17223
-5.20117
-5.22954
-5.25716
-5.28387
-5.30953
-5.33397
-5.35707
-5.37869
-5.39869
-5.41695
-5.43334
-5.44775
-5.46005
-5.47013
-5.47787
-5.48315
-5.48588
-5.48593
-5.48322
-5.47762
-5.46905
-5.45741
-5.44261
-5.42457
-5.4032
-5.37843
-5.35019
-5.31842
-5.28306
-5.24405
-5.20137
-5.15497
-5.10481
-5.05088
-4.99315
-4.93158
-4.86614
-4.79677
-4.72335
-4.64613
-4.56526
-4.48068
-4.39238
-4.3004
-4.20477
-4.10552
-4.00271
-3.8964
-3.78664
-3.6735
-3.55706
-3.43738
-3.31456
-3.18868
-3.05983
-2.92811
-2.79361
-2.65646
-2.51674
-2.37458
-2.23009
-2.08339
-1.9346
-1.78385
-1.63126
-1.47697
-1.32111
-1.16381
-1.00521
-0.845441
-0.684654
-0.522985
-0.360576
-0.197571
-0.0341129
0.129654
0.293586
0.457538
0.621368
0.784932
0.948089
1.1107
1.27262
1.43372
1.59386
1.7529
1.91073
2.06721
2.22221
2.37563
2.52734
2.67724
2.82521
2.97116
3.11499
3.2566
3.39592
3.53287
3.66736
3.79933
3.92873
4.0555
4.17959
4.30097
4.4196
4.53547
4.64856
4.75882
4.8662
4.97064
5.07215
5.17074
5.26643
5.35924
5.44921
5.53634
5.62067
5.70223
5.78104
5.85715
5.93058
6.00136
6.06954
6.13516
6.19824
6.25884
6.317
6.37275
6.42613
6.4772
6.526
6.57259
6.61702
6.65939
6.69979
6.73837
6.77534
6.81101
6.84593
6.88096
6.91801
6.95924
7.01531
7.08165
-4.71203
-4.71416
-4.71655
-4.71886
-4.7206
-4.72171
-4.72241
-4.72298
-4.7237
-4.72477
-4.72635
-4.72855
-4.73149
-4.7353
-4.74011
-4.74605
-4.75327
-4.76191
-4.77209
-4.78391
-4.79745
-4.81274
-4.8298
-4.84858
-4.86902
-4.89103
-4.91447
-4.93919
-4.96503
-4.99181
-5.01931
-5.04736
-5.07575
-5.1043
-5.13283
-5.16116
-5.18911
-5.21654
-5.24328
-5.26918
-5.2941
-5.3179
-5.34043
-5.36157
-5.38119
-5.39917
-5.41536
-5.42966
-5.44195
-5.45209
-5.45999
-5.46552
-5.46856
-5.46902
-5.46678
-5.46174
-5.45379
-5.44285
-5.42882
-5.4116
-5.39113
-5.36731
-5.34008
-5.30937
-5.27512
-5.23728
-5.19579
-5.15063
-5.10174
-5.04911
-4.9927
-4.93248
-4.86842
-4.8005
-4.72872
-4.65312
-4.57378
-4.49071
-4.40393
-4.31347
-4.21937
-4.12165
-4.02038
-3.91559
-3.80735
-3.69573
-3.58079
-3.46261
-3.34126
-3.21684
-3.08943
-2.95913
-2.82604
-2.69025
-2.55188
-2.41104
-2.26784
-2.1224
-1.97483
-1.82527
-1.67384
-1.52067
-1.36589
-1.20963
-1.05203
-0.893226
-0.733356
-0.57256
-0.41098
-0.248757
-0.0860352
0.0770428
0.240334
0.403694
0.566982
0.730053
0.892768
1.05499
1.21657
1.37738
1.53728
1.69614
1.85383
2.01022
2.1652
2.31863
2.47041
2.62043
2.76857
2.91473
3.05882
3.20075
3.34042
3.47776
3.61269
3.74515
3.87507
4.0024
4.12709
4.24909
4.36837
4.48489
4.59865
4.70959
4.8177
4.92297
5.02536
5.12487
5.22149
5.31525
5.40616
5.49424
5.57952
5.66203
5.74179
5.81884
5.8932
5.96491
6.03401
6.10053
6.16451
6.22599
6.28501
6.3416
6.39582
6.44771
6.49732
6.5447
6.58993
6.63308
6.67428
6.71367
6.75148
6.78805
6.82394
6.85999
6.89805
6.93939
6.99327
7.04655
-4.69945
-4.7037
-4.70823
-4.71191
-4.71436
-4.71589
-4.7169
-4.71774
-4.71871
-4.72003
-4.72189
-4.72446
-4.72788
-4.73229
-4.73782
-4.74461
-4.75276
-4.76239
-4.77357
-4.78635
-4.80076
-4.8168
-4.83444
-4.85361
-4.87423
-4.8962
-4.91941
-4.94371
-4.96895
-4.99499
-5.02166
-5.04879
-5.07622
-5.10379
-5.13134
-5.1587
-5.18573
-5.21227
-5.23819
-5.26333
-5.28756
-5.31074
-5.33273
-5.35342
-5.37265
-5.39032
-5.4063
-5.42045
-5.43266
-5.44281
-5.45078
-5.45645
-5.45971
-5.46044
-5.45854
-5.45389
-5.4464
-5.43597
-5.4225
-5.4059
-5.38609
-5.36298
-5.3365
-5.30659
-5.27317
-5.23619
-5.1956
-5.15135
-5.10341
-5.05173
-4.99629
-4.93707
-4.87403
-4.80717
-4.73652
-4.6621
-4.58394
-4.50206
-4.41649
-4.32723
-4.23434
-4.13784
-4.03778
-3.93422
-3.8272
-3.71679
-3.60305
-3.48607
-3.36592
-3.24267
-3.11643
-2.98728
-2.85533
-2.72066
-2.58339
-2.44363
-2.30149
-2.15708
-2.01053
-1.86195
-1.71148
-1.55924
-1.40535
-1.24996
-1.0932
-0.935194
-0.776093
-0.61603
-0.455147
-0.293586
-0.131487
0.0310068
0.193752
0.356608
0.51943
0.682078
0.84441
1.00629
1.16757
1.32812
1.48781
1.6465
1.80407
1.96038
2.11531
2.26875
2.42057
2.57067
2.71893
2.86526
3.00956
3.15173
3.29169
3.42936
3.56465
3.6975
3.82785
3.95563
4.08081
4.20333
4.32317
4.44027
4.5546
4.66612
4.77483
4.88072
4.98378
5.08399
5.18134
5.27584
5.36751
5.45636
5.54241
5.62569
5.70622
5.78404
5.85918
5.93166
6.00152
6.06879
6.13352
6.19574
6.25548
6.3128
6.36773
6.42031
6.47061
6.51867
6.56456
6.60838
6.65023
6.69029
6.72876
6.766
6.80253
6.83909
6.87725
6.91746
6.96704
7.00795
-4.68403
-4.69053
-4.6978
-4.70356
-4.70741
-4.71003
-4.71198
-4.7137
-4.71551
-4.7177
-4.72047
-4.72402
-4.7285
-4.73403
-4.74074
-4.74873
-4.75809
-4.76889
-4.78116
-4.79493
-4.81019
-4.82693
-4.84509
-4.8646
-4.88538
-4.90733
-4.93034
-4.95429
-4.97906
-5.00449
-5.03047
-5.05684
-5.08346
-5.11018
-5.13687
-5.16339
-5.18959
-5.21533
-5.24049
-5.26491
-5.28848
-5.31106
-5.33251
-5.35271
-5.37153
-5.38885
-5.40453
-5.41846
-5.4305
-5.44054
-5.44846
-5.45414
-5.45745
-5.4583
-5.45656
-5.45212
-5.44489
-5.43476
-5.42163
-5.40541
-5.38601
-5.36336
-5.33737
-5.30797
-5.2751
-5.2387
-5.19871
-5.15509
-5.1078
-5.05679
-5.00205
-4.94355
-4.88127
-4.81521
-4.74538
-4.6718
-4.59448
-4.51345
-4.42872
-4.34032
-4.24829
-4.15265
-4.05346
-3.95076
-3.84461
-3.73506
-3.6222
-3.50607
-3.38678
-3.26439
-3.13899
-3.01068
-2.87955
-2.7457
-2.60923
-2.47026
-2.3289
-2.18525
-2.03944
-1.89159
-1.74183
-1.59027
-1.43706
-1.28231
-1.12617
-0.968771
-0.810245
-0.650733
-0.490375
-0.329312
-0.167684
-0.00563295
0.156699
0.319169
0.481637
0.64396
0.805998
0.967612
1.12866
1.28902
1.44854
1.60709
1.76455
1.92079
2.07568
2.22911
2.38096
2.53112
2.67947
2.82592
2.97037
3.11272
3.25288
3.39078
3.52634
3.65948
3.79015
3.91828
4.04383
4.16674
4.28698
4.4045
4.51925
4.63119
4.74032
4.84665
4.95016
5.05085
5.1487
5.24372
5.33592
5.42531
5.51192
5.59576
5.67686
5.75525
5.83096
5.90401
5.97444
6.04228
6.10757
6.17035
6.23065
6.28852
6.34399
6.39711
6.44793
6.4965
6.54291
6.58722
6.62956
6.67007
6.70898
6.74659
6.78337
6.8199
6.85739
6.8956
6.94036
6.97077
-4.66993
-4.67838
-4.68821
-4.69611
-4.70163
-4.70564
-4.70887
-4.7118
-4.71482
-4.71822
-4.72223
-4.72706
-4.73284
-4.7397
-4.74773
-4.75702
-4.76763
-4.77958
-4.79291
-4.80761
-4.82365
-4.84101
-4.85962
-4.87942
-4.90033
-4.92225
-4.94509
-4.96874
-4.99308
-5.018
-5.04338
-5.0691
-5.09502
-5.12103
-5.14698
-5.17276
-5.19824
-5.22328
-5.24776
-5.27155
-5.29453
-5.31655
-5.3375
-5.35725
-5.37567
-5.39263
-5.40801
-5.42168
-5.43351
-5.4434
-5.4512
-5.4568
-5.46009
-5.46094
-5.45925
-5.45489
-5.44778
-5.4378
-5.42485
-5.40884
-5.38968
-5.36729
-5.34159
-5.31251
-5.27997
-5.24393
-5.20432
-5.1611
-5.11423
-5.06367
-5.0094
-4.95139
-4.88962
-4.82411
-4.75484
-4.68183
-4.60508
-4.52463
-4.44048
-4.35267
-4.26123
-4.16619
-4.0676
-3.9655
-3.85996
-3.75102
-3.63876
-3.52325
-3.40456
-3.28278
-3.15799
-3.03028
-2.89974
-2.76649
-2.63061
-2.49222
-2.35142
-2.20834
-2.06308
-1.91578
-1.76654
-1.6155
-1.46279
-1.30854
-1.15287
-0.995928
-0.837843
-0.678755
-0.518803
-0.358126
-0.196865
-0.0351615
0.126844
0.289009
0.451193
0.613255
0.775055
0.936453
1.09731
1.2575
1.41687
1.57531
1.73267
1.88884
2.04368
2.19709
2.34893
2.49911
2.64752
2.79404
2.93858
3.08105
3.22135
3.35942
3.49516
3.62851
3.75941
3.88779
4.0136
4.13679
4.25731
4.37512
4.49017
4.60242
4.71186
4.81851
4.92235
5.02339
5.12161
5.21701
5.30961
5.39941
5.48644
5.5707
5.65223
5.73106
5.8072
5.88069
5.95157
6.01985
6.08559
6.14881
6.20955
6.26784
6.32374
6.37728
6.42852
6.47749
6.52429
6.56897
6.61166
6.65249
6.69165
6.72941
6.76614
6.80227
6.83865
6.8745
6.91478
6.93639
-4.66056
-4.67012
-4.68178
-4.6915
-4.69859
-4.704
-4.70854
-4.71277
-4.71707
-4.72175
-4.72706
-4.73318
-4.74026
-4.7484
-4.75768
-4.76816
-4.77988
-4.79286
-4.8071
-4.82258
-4.83928
-4.85715
-4.87613
-4.89616
-4.91716
-4.93906
-4.96176
-4.98517
-5.00918
-5.0337
-5.05861
-5.08381
-5.10918
-5.13461
-5.15998
-5.18517
-5.21006
-5.23453
-5.25846
-5.28172
-5.3042
-5.32576
-5.34628
-5.36563
-5.38368
-5.40032
-5.41541
-5.42883
-5.44045
-5.45015
-5.4578
-5.46328
-5.46647
-5.46726
-5.46553
-5.46116
-5.45405
-5.4441
-5.43121
-5.41527
-5.39621
-5.37393
-5.34836
-5.31942
-5.28705
-5.25119
-5.21178
-5.16878
-5.12214
-5.07183
-5.01782
-4.9601
-4.89865
-4.83346
-4.76453
-4.69187
-4.61549
-4.5354
-4.45162
-4.36419
-4.27312
-4.17847
-4.08027
-3.97858
-3.87343
-3.76491
-3.65306
-3.53797
-3.4197
-3.29834
-3.17397
-3.04669
-2.91658
-2.78375
-2.6483
-2.51034
-2.36996
-2.2273
-2.08245
-1.93556
-1.78672
-1.63608
-1.48375
-1.32988
-1.17458
-1.018
-0.86026
-0.701509
-0.541881
-0.381516
-0.220554
-0.0591357
0.102599
0.26451
0.426454
0.588293
0.749885
0.911092
1.07178
1.23181
1.39104
1.54936
1.70662
1.8627
2.01748
2.17084
2.32266
2.47283
2.62124
2.76778
2.91237
3.0549
3.19529
3.33346
3.46932
3.60281
3.73385
3.8624
3.98838
4.11175
4.23247
4.35048
4.46574
4.57822
4.6879
4.79479
4.89889
5.00018
5.09868
5.19437
5.28727
5.37739
5.46473
5.54933
5.6312
5.71036
5.78685
5.86069
5.93192
6.00056
6.06665
6.13022
6.19132
6.24997
6.30621
6.36009
6.41165
6.46095
6.50805
6.55301
6.59594
6.63696
6.67624
6.71397
6.75045
6.78593
6.82097
6.85438
6.89067
6.90493
-4.65712
-4.66706
-4.67967
-4.69061
-4.69894
-4.70555
-4.71129
-4.71669
-4.72217
-4.72802
-4.7345
-4.74177
-4.74998
-4.75922
-4.76955
-4.78102
-4.79365
-4.80746
-4.82243
-4.83853
-4.85574
-4.87401
-4.89328
-4.9135
-4.93459
-4.95647
-4.97908
-5.00231
-5.02609
-5.05031
-5.07488
-5.0997
-5.12466
-5.14966
-5.17459
-5.19933
-5.22378
-5.24781
-5.27132
-5.29417
-5.31625
-5.33744
-5.35761
-5.37663
-5.39439
-5.41074
-5.42558
-5.43876
-5.45017
-5.45967
-5.46715
-5.47247
-5.47553
-5.47619
-5.47435
-5.4699
-5.46271
-5.4527
-5.43975
-5.42378
-5.40468
-5.38239
-5.35681
-5.32788
-5.29553
-5.25971
-5.22034
-5.1774
-5.13084
-5.08062
-5.02672
-4.96912
-4.90781
-4.84278
-4.77402
-4.70153
-4.62533
-4.54543
-4.46185
-4.37463
-4.28378
-4.18935
-4.09138
-3.98992
-3.88502
-3.77675
-3.66516
-3.55034
-3.43235
-3.31127
-3.18719
-3.0602
-2.93039
-2.79786
-2.66271
-2.52505
-2.38499
-2.24263
-2.09809
-1.9515
-1.80297
-1.65264
-1.50061
-1.34703
-1.19203
-1.03573
-0.878275
-0.719798
-0.560436
-0.40033
-0.239618
-0.0784409
0.0830623
0.244752
0.406486
0.568125
0.729529
0.89056
1.05108
1.21096
1.37006
1.52825
1.6854
1.84138
1.99607
2.14936
2.30112
2.45125
2.59963
2.74617
2.89076
3.03331
3.17373
3.31194
3.44786
3.58142
3.71255
3.84119
3.96728
4.09077
4.21161
4.32975
4.44515
4.55779
4.66764
4.77471
4.87899
4.98048
5.07918
5.17509
5.26821
5.35856
5.44615
5.531
5.61313
5.69256
5.76932
5.84344
5.91495
5.98387
6.05025
6.11411
6.17549
6.23442
6.29094
6.3451
6.39693
6.44648
6.4938
6.53897
6.58206
6.62317
6.66244
6.70002
6.73609
6.77075
6.80435
6.83536
6.86813
6.87623
-4.65965
-4.66935
-4.68208
-4.69358
-4.7027
-4.71018
-4.71684
-4.72319
-4.72962
-4.73644
-4.74386
-4.75206
-4.76117
-4.77127
-4.78241
-4.79464
-4.80797
-4.82239
-4.8379
-4.85447
-4.87206
-4.89063
-4.91013
-4.93049
-4.95165
-4.97354
-4.99609
-5.01922
-5.04284
-5.06686
-5.0912
-5.11576
-5.14044
-5.16515
-5.18977
-5.2142
-5.23834
-5.26206
-5.28526
-5.30781
-5.32961
-5.35051
-5.37041
-5.38918
-5.40669
-5.42281
-5.43742
-5.45039
-5.46159
-5.4709
-5.47818
-5.48333
-5.48621
-5.48671
-5.48471
-5.48009
-5.47276
-5.4626
-5.44951
-5.4334
-5.41418
-5.39176
-5.36607
-5.33703
-5.30458
-5.26867
-5.22923
-5.18622
-5.1396
-5.08934
-5.03542
-4.97782
-4.91651
-4.8515
-4.78276
-4.71031
-4.63416
-4.55432
-4.4708
-4.38365
-4.29289
-4.19855
-4.10069
-3.99934
-3.89457
-3.78643
-3.675
-3.56033
-3.4425
-3.3216
-3.19771
-3.07091
-2.9413
-2.80898
-2.67405
-2.53661
-2.39677
-2.25465
-2.11035
-1.96399
-1.8157
-1.66561
-1.51382
-1.36048
-1.20572
-1.04966
-0.892437
-0.734192
-0.575059
-0.415176
-0.254683
-0.0937195
0.0675762
0.229064
0.390605
0.552058
0.713283
0.874144
1.0345
1.19423
1.35318
1.51123
1.66825
1.82412
1.97871
2.13191
2.28359
2.43364
2.58197
2.72845
2.87301
3.01553
3.15594
3.29415
3.43008
3.56365
3.69481
3.82349
3.94963
4.07317
4.19408
4.31229
4.42779
4.54052
4.65048
4.75767
4.86208
4.9637
5.06254
5.1586
5.25189
5.34241
5.43019
5.51523
5.59755
5.67719
5.75416
5.8285
5.90023
5.96938
6.03599
6.10008
6.16169
6.22085
6.2776
6.33197
6.38401
6.43376
6.48125
6.52656
6.56974
6.61087
6.65004
6.68735
6.7229
6.75665
6.78876
6.81748
6.84715
6.85012
-4.66732
-4.6763
-4.68846
-4.6999
-4.70932
-4.7173
-4.72455
-4.73156
-4.73869
-4.74621
-4.75433
-4.76321
-4.77297
-4.78368
-4.7954
-4.80816
-4.82197
-4.83683
-4.85272
-4.86961
-4.88747
-4.90625
-4.92591
-4.94638
-4.9676
-4.98952
-5.01205
-5.03512
-5.05865
-5.08257
-5.10677
-5.13118
-5.15569
-5.18022
-5.20465
-5.22889
-5.25283
-5.27636
-5.29935
-5.32171
-5.3433
-5.36401
-5.38371
-5.40228
-5.41959
-5.43551
-5.44993
-5.46269
-5.47369
-5.4828
-5.48988
-5.49482
-5.49749
-5.49778
-5.49556
-5.49073
-5.48318
-5.4728
-5.45949
-5.44316
-5.42372
-5.40109
-5.37519
-5.34595
-5.31331
-5.2772
-5.23758
-5.19441
-5.14764
-5.09724
-5.0432
-4.98548
-4.92408
-4.85897
-4.79016
-4.71764
-4.64143
-4.56154
-4.478
-4.39082
-4.30005
-4.20572
-4.10787
-4.00655
-3.90182
-3.79374
-3.68237
-3.56778
-3.45005
-3.32925
-3.20548
-3.07881
-2.94934
-2.81717
-2.6824
-2.54513
-2.40546
-2.26352
-2.11941
-1.97325
-1.82516
-1.67526
-1.52368
-1.37055
-1.21599
-1.06014
-0.903132
-0.745096
-0.586172
-0.426496
-0.266207
-0.105445
0.0556522
0.216944
0.378291
0.539555
0.700598
0.861283
1.02147
1.18103
1.33983
1.49773
1.65461
1.81034
1.96481
2.11788
2.26945
2.4194
2.56763
2.71404
2.85851
3.00097
3.14132
3.27948
3.41538
3.54892
3.68006
3.80873
3.93487
4.05842
4.17934
4.29758
4.4131
4.52589
4.63591
4.74317
4.84765
4.94936
5.04829
5.14446
5.23786
5.3285
5.4164
5.50158
5.58405
5.66385
5.74098
5.81549
5.88739
5.95672
6.02351
6.08779
6.14959
6.20894
6.26587
6.32042
6.37263
6.42252
6.47014
6.51554
6.55875
6.59983
6.63883
6.6758
6.71075
6.74354
6.77416
6.80074
6.82769
6.82638
-4.67878
-4.68671
-4.69781
-4.70865
-4.71791
-4.72601
-4.73353
-4.74092
-4.74847
-4.75644
-4.76501
-4.77434
-4.78452
-4.79563
-4.80773
-4.82082
-4.83494
-4.85007
-4.8662
-4.88329
-4.90132
-4.92024
-4.94001
-4.96056
-4.98184
-5.00379
-5.02633
-5.04939
-5.0729
-5.09677
-5.12092
-5.14527
-5.16971
-5.19415
-5.2185
-5.24264
-5.26648
-5.28989
-5.31278
-5.33501
-5.35647
-5.37704
-5.39659
-5.415
-5.43214
-5.44789
-5.46211
-5.47468
-5.48547
-5.49436
-5.50121
-5.50591
-5.50833
-5.50835
-5.50587
-5.50076
-5.49292
-5.48226
-5.46866
-5.45204
-5.43231
-5.40939
-5.38321
-5.35368
-5.32077
-5.28439
-5.24452
-5.2011
-5.1541
-5.10349
-5.04925
-4.99135
-4.92977
-4.8645
-4.79553
-4.72287
-4.64654
-4.56653
-4.48289
-4.39562
-4.30478
-4.21039
-4.1125
-4.01116
-3.90642
-3.79834
-3.68699
-3.57244
-3.45476
-3.33403
-3.21034
-3.08376
-2.9544
-2.82235
-2.68771
-2.55058
-2.41107
-2.26928
-2.12533
-1.97935
-1.83144
-1.68173
-1.53034
-1.3774
-1.22305
-1.0674
-0.910595
-0.752767
-0.594052
-0.434585
-0.274505
-0.113949
0.046943
0.208031
0.369177
0.530243
0.691091
0.851584
1.01159
1.17096
1.32958
1.48731
1.64402
1.79959
1.9539
2.10682
2.25824
2.40806
2.55616
2.70244
2.84681
2.98916
3.12941
3.26748
3.40329
3.53677
3.66784
3.79645
3.92254
4.04605
4.16694
4.28516
4.40068
4.51346
4.6235
4.73078
4.8353
4.93705
5.03603
5.13225
5.22572
5.31644
5.40443
5.48971
5.57229
5.65219
5.72945
5.80409
5.87613
5.9456
6.01254
6.07697
6.13892
6.19842
6.2555
6.3102
6.36254
6.41255
6.46025
6.50569
6.54889
6.58987
6.62865
6.66522
6.69953
6.73134
6.76053
6.78512
6.80967
6.80481
-4.6925
-4.69919
-4.70887
-4.7187
-4.72744
-4.73532
-4.74283
-4.75031
-4.75804
-4.76623
-4.77505
-4.78461
-4.79503
-4.80636
-4.81866
-4.83194
-4.84622
-4.8615
-4.87775
-4.89496
-4.91308
-4.93209
-4.95193
-4.97254
-4.99387
-5.01586
-5.03843
-5.06152
-5.08505
-5.10894
-5.1331
-5.15745
-5.18189
-5.20632
-5.23065
-5.25476
-5.27856
-5.30192
-5.32474
-5.34689
-5.36825
-5.38871
-5.40814
-5.4264
-5.44338
-5.45894
-5.47296
-5.48531
-5.49586
-5.50449
-5.51107
-5.51548
-5.51759
-5.5173
-5.51449
-5.50905
-5.50087
-5.48985
-5.4759
-5.45893
-5.43884
-5.41557
-5.38904
-5.35918
-5.32593
-5.28924
-5.24906
-5.20535
-5.15808
-5.10721
-5.05272
-4.99458
-4.93278
-4.8673
-4.79813
-4.72529
-4.64878
-4.56863
-4.48485
-4.39746
-4.30652
-4.21205
-4.11409
-4.0127
-3.90793
-3.79985
-3.6885
-3.57398
-3.45634
-3.33566
-3.21204
-3.08555
-2.95629
-2.82436
-2.68984
-2.55285
-2.41349
-2.27186
-2.12809
-1.98228
-1.83456
-1.68505
-1.53386
-1.38113
-1.22698
-1.07155
-0.914959
-0.757352
-0.598858
-0.439615
-0.279759
-0.119428
0.0412391
0.202103
0.363025
0.523869
0.684496
0.844771
1.00456
1.16372
1.32213
1.47965
1.63616
1.79153
1.94565
2.09839
2.24963
2.39927
2.5472
2.69332
2.83753
2.97974
3.11985
3.25779
3.39347
3.52683
3.6578
3.78631
3.9123
4.03573
4.15654
4.2747
4.39017
4.50291
4.61292
4.72019
4.8247
4.92645
5.02544
5.12168
5.21518
5.30594
5.39398
5.47932
5.56197
5.64195
5.7193
5.79403
5.86618
5.93577
6.00282
6.06737
6.12945
6.18908
6.24629
6.3011
6.35355
6.40364
6.45141
6.49686
6.54001
6.58085
6.61938
6.65551
6.68915
6.71998
6.74781
6.77058
6.793
6.78521
-4.70695
-4.71231
-4.72038
-4.72892
-4.73684
-4.74424
-4.75148
-4.75884
-4.76655
-4.77476
-4.78364
-4.79329
-4.80379
-4.8152
-4.82757
-4.84093
-4.85527
-4.8706
-4.88691
-4.90416
-4.92233
-4.94138
-4.96126
-4.98191
-5.00329
-5.02532
-5.04794
-5.07108
-5.09466
-5.11859
-5.1428
-5.16718
-5.19165
-5.2161
-5.24044
-5.26455
-5.28833
-5.31165
-5.33441
-5.35649
-5.37775
-5.39808
-5.41736
-5.43545
-5.45223
-5.46757
-5.48134
-5.49342
-5.50368
-5.51199
-5.51823
-5.52229
-5.52404
-5.52337
-5.52017
-5.51434
-5.50576
-5.49434
-5.47998
-5.4626
-5.44212
-5.41846
-5.39154
-5.36131
-5.3277
-5.29066
-5.25015
-5.20613
-5.15857
-5.10743
-5.05268
-4.99428
-4.93223
-4.86652
-4.79715
-4.72411
-4.64743
-4.56712
-4.4832
-4.3957
-4.30466
-4.21011
-4.1121
-4.01067
-3.90589
-3.7978
-3.68648
-3.572
-3.45442
-3.33382
-3.21029
-3.08391
-2.95477
-2.82297
-2.6886
-2.55177
-2.41258
-2.27115
-2.12757
-1.98197
-1.83446
-1.68516
-1.5342
-1.3817
-1.22779
-1.0726
-0.916259
-0.758901
-0.600661
-0.441672
-0.282073
-0.121999
0.0384093
0.199015
0.359679
0.520265
0.680636
0.840655
1.00019
1.1591
1.31726
1.47454
1.63081
1.78594
1.93982
2.09233
2.24335
2.39278
2.5405
2.68641
2.83042
2.97243
3.11236
3.25012
3.38564
3.51884
3.64965
3.77801
3.90387
4.02717
4.14787
4.26592
4.3813
4.49397
4.60391
4.71112
4.81558
4.9173
5.01627
5.1125
5.20599
5.29676
5.38482
5.47018
5.55287
5.63291
5.71032
5.78512
5.85735
5.92702
5.99417
6.05883
6.12101
6.18074
6.23806
6.29297
6.3455
6.39566
6.44346
6.4889
6.53198
6.57266
6.6109
6.64659
6.67956
6.70944
6.73597
6.75709
6.77761
6.76742
-4.72075
-4.7248
-4.73118
-4.73826
-4.74515
-4.75187
-4.75866
-4.76572
-4.77323
-4.78134
-4.79014
-4.79975
-4.81022
-4.82162
-4.83398
-4.84732
-4.86166
-4.87698
-4.89328
-4.91053
-4.9287
-4.94776
-4.96765
-4.98832
-5.00972
-5.03179
-5.05444
-5.07762
-5.10123
-5.1252
-5.14944
-5.17385
-5.19833
-5.22279
-5.24711
-5.27118
-5.2949
-5.31815
-5.3408
-5.36274
-5.38385
-5.40399
-5.42305
-5.44089
-5.4574
-5.47244
-5.48588
-5.49761
-5.5075
-5.51543
-5.52127
-5.52491
-5.52624
-5.52514
-5.5215
-5.51521
-5.50619
-5.49433
-5.47954
-5.46174
-5.44084
-5.41677
-5.38946
-5.35885
-5.32489
-5.28752
-5.2467
-5.20239
-5.15456
-5.10315
-5.04814
-4.9895
-4.92723
-4.86131
-4.79175
-4.71855
-4.64172
-4.56129
-4.47727
-4.38969
-4.29858
-4.20399
-4.10597
-4.00455
-3.89979
-3.79175
-3.6805
-3.56609
-3.44862
-3.32814
-3.20474
-3.07852
-2.94955
-2.81793
-2.68376
-2.54713
-2.40816
-2.26695
-2.12362
-1.97826
-1.83101
-1.68198
-1.53129
-1.37907
-1.22544
-1.07054
-0.914489
-0.757426
-0.599483
-0.440795
-0.281497
-0.121728
0.0383766
0.198678
0.359038
0.51932
0.679387
0.839104
0.998336
1.15695
1.31481
1.4718
1.62778
1.78263
1.93623
2.08846
2.23922
2.38837
2.53583
2.68149
2.82526
2.96703
3.10673
3.24427
3.37957
3.51256
3.64317
3.77135
3.89703
4.02016
4.1407
4.25861
4.37386
4.48641
4.59625
4.70336
4.80774
4.90939
5.0083
5.10449
5.19795
5.2887
5.37675
5.46211
5.54482
5.62488
5.70233
5.77718
5.84947
5.91921
5.98643
6.05117
6.11344
6.17326
6.23067
6.28566
6.33826
6.38847
6.43629
6.48171
6.5247
6.56521
6.60316
6.63839
6.6707
6.69966
6.725
6.74461
6.76343
6.75131
-4.73273
-4.73558
-4.74028
-4.74583
-4.75157
-4.75747
-4.76366
-4.7703
-4.77751
-4.78539
-4.79403
-4.80351
-4.81389
-4.82521
-4.83749
-4.85077
-4.86504
-4.8803
-4.89654
-4.91374
-4.93186
-4.95086
-4.97071
-4.99135
-5.01271
-5.03475
-5.05738
-5.08052
-5.10411
-5.12804
-5.15223
-5.17658
-5.20099
-5.22535
-5.24955
-5.27349
-5.29705
-5.32011
-5.34255
-5.36424
-5.38508
-5.40492
-5.42365
-5.44115
-5.45728
-5.47193
-5.48496
-5.49626
-5.50571
-5.51318
-5.51856
-5.52173
-5.52259
-5.52101
-5.5169
-5.51016
-5.50068
-5.48838
-5.47316
-5.45494
-5.43364
-5.4092
-5.38153
-5.35059
-5.31632
-5.27867
-5.2376
-5.19305
-5.14498
-5.09335
-5.03813
-4.9793
-4.91686
-4.85079
-4.7811
-4.7078
-4.63089
-4.5504
-4.46634
-4.37875
-4.28766
-4.19311
-4.09513
-3.99379
-3.88913
-3.78121
-3.67009
-3.55585
-3.43854
-3.31826
-3.19507
-3.06907
-2.94033
-2.80896
-2.67506
-2.53871
-2.40002
-2.25911
-2.11608
-1.97104
-1.82411
-1.6754
-1.52505
-1.37316
-1.21988
-1.06532
-0.909624
-0.752915
-0.595328
-0.436998
-0.27806
-0.118652
0.0410908
0.20103
0.361029
0.52095
0.680659
0.840018
0.998894
1.15715
1.31467
1.47131
1.62694
1.78146
1.93472
2.08662
2.23705
2.38589
2.53304
2.6784
2.82186
2.96335
3.10276
3.24003
3.37507
3.50781
3.63818
3.76612
3.89158
4.0145
4.13485
4.25257
4.36765
4.48004
4.58974
4.69673
4.801
4.90254
5.00137
5.09748
5.19088
5.28158
5.3696
5.45494
5.53764
5.61771
5.69517
5.77006
5.84238
5.91218
5.97947
6.04427
6.10662
6.16652
6.224
6.27907
6.33173
6.38199
6.42982
6.47521
6.51811
6.55844
6.59608
6.63087
6.66254
6.69065
6.71486
6.73313
6.75039
6.73675
-4.74243
-4.74422
-4.74731
-4.75129
-4.7558
-4.76076
-4.76625
-4.77235
-4.77915
-4.78671
-4.79511
-4.80439
-4.81459
-4.82575
-4.83789
-4.85101
-4.86513
-4.88023
-4.8963
-4.91332
-4.93126
-4.95008
-4.96975
-4.99019
-5.01137
-5.03322
-5.05565
-5.0786
-5.10198
-5.1257
-5.14966
-5.17377
-5.19793
-5.22202
-5.24593
-5.26956
-5.29278
-5.31549
-5.33755
-5.35884
-5.37926
-5.39867
-5.41695
-5.43397
-5.44962
-5.46378
-5.47632
-5.48711
-5.49606
-5.50302
-5.5079
-5.51058
-5.51095
-5.5089
-5.50433
-5.49714
-5.48724
-5.47453
-5.45893
-5.44035
-5.41872
-5.39397
-5.36603
-5.33484
-5.30036
-5.26253
-5.22129
-5.17659
-5.12836
-5.07658
-5.02124
-4.96232
-4.8998
-4.83369
-4.76398
-4.69067
-4.61379
-4.53335
-4.44937
-4.36187
-4.2709
-4.17649
-4.07868
-3.97752
-3.87307
-3.76537
-3.6545
-3.54051
-3.42349
-3.30349
-3.18062
-3.05493
-2.92654
-2.79552
-2.66197
-2.52599
-2.38769
-2.24716
-2.10452
-1.95989
-1.81337
-1.66508
-1.51514
-1.36368
-1.21083
-1.0567
-0.901438
-0.745165
-0.588016
-0.430125
-0.271627
-0.112658
0.0466456
0.206146
0.365708
0.525193
0.684468
0.843396
1.00184
1.15968
1.31677
1.47299
1.62822
1.78232
1.93519
2.08669