/*--------------------------------*- C++ -*----------------------------------*\
| =========                 |                                                 |
| \\      /  F ield         | OpenFOAM: The Open Source CFD Toolbox           |
|  \\    /   O peration     | Version:  2412                                  |
|   \\  /    A nd           | Website:  www.openfoam.com                      |
|    \\/     M anipulation  |                                                 |
\*---------------------------------------------------------------------------*/
FoamFile
{
    version     2.0;
    format      ascii;
    arch        "LSB;label=32;scalar=64";
    class       surfaceScalarField;
    location    "0.19";
    object      phi;
}
// * * * * * * * * * * * * * * * * * * * * * * * * * * * * * * * * * * * * * //

dimensions      [0 3 -1 0 0 0 0];

oriented        oriented;

internalField   nonuniform List<scalar> 
24170
(
1.36706e-07
-5.7162e-08
1.95621e-07
-5.89149e-08
2.57918e-07
-6.22969e-08
3.11672e-07
-5.37542e-08
3.6181e-07
-5.01375e-08
4.07918e-07
-4.61087e-08
4.49563e-07
-4.1645e-08
4.87087e-07
-3.75231e-08
5.20874e-07
-3.3787e-08
5.51262e-07
-3.03881e-08
5.78575e-07
-2.73137e-08
6.03106e-07
-2.45308e-08
6.25097e-07
-2.19903e-08
6.44722e-07
-1.96255e-08
6.62119e-07
-1.73967e-08
6.77158e-07
-1.50395e-08
6.89843e-07
-1.26853e-08
-8.05324e-09
6.97897e-07
3.26112e-07
-1.24822e-07
3.94132e-07
-1.26935e-07
4.55886e-07
-1.24051e-07
5.14184e-07
-1.12052e-07
5.67678e-07
-1.03631e-07
6.16633e-07
-9.50638e-08
6.61273e-07
-8.62852e-08
7.01822e-07
-7.80721e-08
7.38577e-07
-7.05419e-08
7.71858e-07
-6.3669e-08
8.0197e-07
-5.74261e-08
8.29188e-07
-5.17483e-08
8.53742e-07
-4.65447e-08
8.75813e-07
-4.16962e-08
8.95512e-07
-3.70964e-08
9.12839e-07
-3.23658e-08
9.27881e-07
-2.77273e-08
-1.9936e-08
9.39764e-07
5.17244e-07
-1.7161e-07
5.79151e-07
-1.88841e-07
6.3821e-07
-1.8311e-07
6.95366e-07
-1.69209e-07
7.48178e-07
-1.56443e-07
7.96781e-07
-1.43667e-07
8.41424e-07
-1.30928e-07
8.8224e-07
-1.18888e-07
9.19447e-07
-1.07749e-07
9.53308e-07
-9.75296e-08
9.84083e-07
-8.82013e-08
1.01201e-06
-7.96784e-08
1.03731e-06
-7.18388e-08
1.06013e-06
-6.4524e-08
1.0806e-06
-5.75638e-08
1.09881e-06
-5.05771e-08
1.11458e-06
-4.34986e-08
-3.34701e-08
1.12812e-06
7.4348e-07
-1.9542e-07
7.9192e-07
-2.37281e-07
8.43829e-07
-2.35019e-07
8.96361e-07
-2.2174e-07
9.46022e-07
-2.06104e-07
9.92299e-07
-1.89945e-07
1.03521e-06
-1.73839e-07
1.07475e-06
-1.58433e-07
1.11104e-06
-1.44036e-07
1.14425e-06
-1.30739e-07
1.17458e-06
-1.18528e-07
1.20221e-06
-1.07315e-07
1.22734e-06
-9.696e-08
1.25009e-06
-8.72797e-08
1.27059e-06
-7.80597e-08
1.28893e-06
-6.8925e-08
1.30504e-06
-5.96009e-08
-4.79738e-08
1.31954e-06
1.01492e-06
-1.99874e-07
1.04731e-06
-2.69665e-07
1.08853e-06
-2.76244e-07
1.13339e-06
-2.66601e-07
1.17752e-06
-2.5023e-07
1.21952e-06
-2.3194e-07
1.25901e-06
-2.13329e-07
1.2958e-06
-1.95224e-07
1.32985e-06
-1.78092e-07
1.36124e-06
-1.62127e-07
1.39007e-06
-1.47361e-07
1.41648e-06
-1.33722e-07
1.44059e-06
-1.2107e-07
1.46252e-06
-1.09213e-07
1.48238e-06
-9.79162e-08
1.50028e-06
-8.68265e-08
1.51627e-06
-7.55933e-08
-6.27502e-08
1.53105e-06
1.33808e-06
-1.90515e-07
1.35426e-06
-2.8585e-07
1.38245e-06
-3.04426e-07
1.41695e-06
-3.01109e-07
1.45316e-06
-2.86434e-07
1.48883e-06
-2.6761e-07
1.52312e-06
-2.47615e-07
1.55558e-06
-2.27684e-07
1.586e-06
-2.08512e-07
1.61431e-06
-1.9044e-07
1.64052e-06
-1.73576e-07
1.66469e-06
-1.5789e-07
1.68688e-06
-1.43262e-07
1.70718e-06
-1.29512e-07
1.72568e-06
-1.1641e-07
1.74249e-06
-1.03642e-07
1.75777e-06
-9.08702e-08
-7.71174e-08
1.77214e-06
1.71767e-06
-1.72904e-07
1.7193e-06
-2.87479e-07
1.73353e-06
-3.18656e-07
1.75571e-06
-3.23294e-07
1.78183e-06
-3.12547e-07
1.80916e-06
-2.94945e-07
1.83642e-06
-2.74875e-07
1.8629e-06
-2.54165e-07
1.8882e-06
-2.33806e-07
1.91209e-06
-2.14329e-07
1.93446e-06
-1.95953e-07
1.95529e-06
-1.78715e-07
1.97457e-06
-1.62539e-07
1.99233e-06
-1.47278e-07
2.00865e-06
-1.32727e-07
2.02364e-06
-1.18631e-07
2.03748e-06
-1.0471e-07
-9.03422e-08
2.0507e-06
2.15734e-06
-1.51549e-07
2.14717e-06
-2.77315e-07
2.14804e-06
-3.19528e-07
2.15704e-06
-3.32289e-07
2.17147e-06
-3.26978e-07
2.18873e-06
-3.12206e-07
2.20726e-06
-2.93407e-07
2.22616e-06
-2.73058e-07
2.24483e-06
-2.52477e-07
2.26291e-06
-2.3241e-07
2.28017e-06
-2.13218e-07
2.29649e-06
-1.95029e-07
2.31178e-06
-1.77834e-07
2.32604e-06
-1.61534e-07
2.33928e-06
-1.45974e-07
2.35162e-06
-1.30964e-07
2.36321e-06
-1.16303e-07
-1.01626e-07
2.3745e-06
2.66011e-06
-1.29471e-07
2.64127e-06
-2.58471e-07
2.63056e-06
-3.08828e-07
2.62679e-06
-3.28511e-07
2.62887e-06
-3.29064e-07
2.63491e-06
-3.18241e-07
2.64338e-06
-3.01877e-07
2.6533e-06
-2.82977e-07
2.66398e-06
-2.63158e-07
2.67494e-06
-2.43371e-07
2.68585e-06
-2.2413e-07
2.69649e-06
-2.05671e-07
2.70672e-06
-1.88063e-07
2.71646e-06
-1.71274e-07
2.7257e-06
-1.55211e-07
2.73449e-06
-1.39754e-07
2.74297e-06
-1.24787e-07
-1.10125e-07
2.75147e-06
3.22873e-06
-1.08347e-07
3.204e-06
-2.33735e-07
3.18407e-06
-2.88899e-07
3.16903e-06
-3.13473e-07
3.15922e-06
-3.19249e-07
3.15375e-06
-3.12771e-07
3.15147e-06
-2.99596e-07
3.15149e-06
-2.83004e-07
3.15315e-06
-2.64818e-07
3.15592e-06
-2.46141e-07
3.15941e-06
-2.27618e-07
3.16333e-06
-2.09591e-07
3.16748e-06
-1.92216e-07
3.17174e-06
-1.75532e-07
3.17605e-06
-1.59515e-07
3.18041e-06
-1.44113e-07
3.18491e-06
-1.29293e-07
-1.14987e-07
3.18978e-06
3.8657e-06
-8.90224e-08
3.83718e-06
-2.05207e-07
3.81025e-06
-2.61972e-07
3.78605e-06
-2.8928e-07
3.76577e-06
-2.9896e-07
3.74949e-06
-2.96497e-07
3.73662e-06
-2.86725e-07
3.72653e-06
-2.72916e-07
3.71869e-06
-2.56978e-07
3.71263e-06
-2.40078e-07
3.70796e-06
-2.22945e-07
3.70437e-06
-2.06005e-07
3.70164e-06
-1.89488e-07
3.69961e-06
-1.735e-07
3.69818e-06
-1.58083e-07
3.69731e-06
-1.43243e-07
3.69704e-06
-1.29023e-07
-1.1542e-07
3.69747e-06
3.81123e-06
-7.33493e-08
3.78552e-06
-1.79492e-07
3.75883e-06
-2.35284e-07
3.73299e-06
-2.63441e-07
3.70931e-06
-2.75278e-07
3.68837e-06
-2.75558e-07
3.67008e-06
-2.68433e-07
3.65417e-06
-2.5701e-07
3.64037e-06
-2.43176e-07
3.62839e-06
-2.28095e-07
3.61795e-06
-2.12513e-07
3.60884e-06
-1.96895e-07
3.60087e-06
-1.81515e-07
3.5939e-06
-1.66525e-07
3.58782e-06
-1.52008e-07
3.58259e-06
-1.38017e-07
3.57816e-06
-1.2459e-07
-1.1197e-07
3.57471e-06
5.03713e-06
-5.77173e-08
5.00707e-06
-1.49433e-07
4.9736e-06
-2.01821e-07
4.93952e-06
-2.29353e-07
4.90652e-06
-2.42278e-07
4.87574e-06
-2.44784e-07
4.8475e-06
-2.40189e-07
4.82176e-06
-2.31268e-07
4.7984e-06
-2.19825e-07
4.77727e-06
-2.06965e-07
4.75817e-06
-1.93406e-07
4.74089e-06
-1.79618e-07
4.72527e-06
-1.65898e-07
4.71118e-06
-1.52429e-07
4.69849e-06
-1.39323e-07
4.68714e-06
-1.26668e-07
4.67708e-06
-1.14525e-07
-1.03236e-07
4.66834e-06
6.66244e-06
-4.26824e-08
6.62912e-06
-1.1612e-07
6.58917e-06
-1.61864e-07
6.5467e-06
-1.86882e-07
6.50385e-06
-1.9943e-07
6.46229e-06
-2.03221e-07
6.4228e-06
-2.00707e-07
6.38567e-06
-1.94137e-07
6.35098e-06
-1.85135e-07
6.31873e-06
-1.74712e-07
6.28884e-06
-1.63515e-07
6.26121e-06
-1.51984e-07
6.23571e-06
-1.40406e-07
6.21226e-06
-1.28974e-07
6.19075e-06
-1.17813e-07
6.1711e-06
-1.07021e-07
6.15326e-06
-9.668e-08
-8.71544e-08
6.13718e-06
8.79086e-06
-2.88799e-08
8.75646e-06
-8.17178e-08
8.71175e-06
-1.17156e-07
8.66207e-06
-1.37205e-07
8.61013e-06
-1.47487e-07
8.55804e-06
-1.51133e-07
8.50718e-06
-1.49842e-07
8.45822e-06
-1.45179e-07
8.41151e-06
-1.38429e-07
8.36724e-06
-1.30442e-07
8.32548e-06
-1.21758e-07
8.28625e-06
-1.12745e-07
8.2495e-06
-1.03658e-07
8.21519e-06
-9.46704e-08
8.18328e-06
-8.59021e-08
8.15371e-06
-7.74464e-08
8.1264e-06
-6.93715e-08
-6.20549e-08
8.1013e-06
1.15181e-05
-1.66061e-08
1.14848e-05
-4.84156e-08
1.14383e-05
-7.07511e-08
1.13845e-05
-8.33756e-08
1.13264e-05
-8.93996e-08
1.12664e-05
-9.11371e-08
1.12063e-05
-8.97324e-08
1.11472e-05
-8.60993e-08
1.10899e-05
-8.10687e-08
1.10347e-05
-7.52343e-08
1.09819e-05
-6.89712e-08
1.09317e-05
-6.25301e-08
1.08841e-05
-5.60906e-08
1.08392e-05
-4.97799e-08
1.0797e-05
-4.36923e-08
1.07575e-05
-3.79046e-08
1.07205e-05
-3.2444e-08
-2.76941e-08
1.06862e-05
1.48842e-05
-5.39911e-09
1.48525e-05
-1.66983e-08
1.48063e-05
-2.45222e-08
1.47511e-05
-2.8147e-08
1.46904e-05
-2.87356e-08
1.46267e-05
-2.74569e-08
1.45619e-05
-2.48993e-08
1.44972e-05
-2.14598e-08
1.44337e-05
-1.75184e-08
1.43718e-05
-1.33687e-08
1.4312e-05
-9.19548e-09
1.42546e-05
-5.11659e-09
1.41998e-05
-1.22389e-09
1.41475e-05
2.44225e-09
1.4098e-05
5.82191e-09
1.40513e-05
8.87135e-09
1.40072e-05
1.16208e-08
1.37198e-08
1.39658e-05
1.8769e-05
6.27645e-09
1.87365e-05
1.58359e-08
1.86883e-05
2.36693e-08
1.86301e-05
3.00449e-08
1.85661e-05
3.53037e-08
1.84989e-05
3.97108e-08
1.84306e-05
4.34336e-08
1.83625e-05
4.65951e-08
1.82957e-05
4.92901e-08
1.82307e-05
5.1585e-08
1.8168e-05
5.35242e-08
1.81078e-05
5.51378e-08
1.80501e-05
5.64456e-08
1.79951e-05
5.74589e-08
1.79427e-05
5.8183e-08
1.7893e-05
5.86056e-08
1.78458e-05
5.87856e-08
5.84632e-08
1.78011e-05
2.26768e-05
1.70066e-08
2.26398e-05
5.27888e-08
2.25835e-05
8.0068e-08
2.25149e-05
9.86414e-08
2.24392e-05
1.11003e-07
2.23597e-05
1.1916e-07
2.2279e-05
1.2417e-07
2.21988e-05
1.26812e-07
2.21203e-05
1.27781e-07
2.20442e-05
1.27602e-07
2.19712e-05
1.26614e-07
2.19012e-05
1.25044e-07
2.18346e-05
1.23052e-07
2.17713e-05
1.20751e-07
2.17113e-05
1.18218e-07
2.16544e-05
1.15501e-07
2.16005e-05
1.1266e-07
1.09554e-07
2.15495e-05
1.5604e-05
3.26516e-08
1.55641e-05
9.26462e-08
1.55091e-05
1.35078e-07
1.54457e-05
1.6207e-07
1.53777e-05
1.78924e-07
1.5308e-05
1.88855e-07
1.52386e-05
1.93581e-07
1.51709e-05
1.94562e-07
1.51056e-05
1.9304e-07
1.50433e-05
1.89882e-07
1.49843e-05
1.85649e-07
1.49286e-05
1.80729e-07
1.48763e-05
1.75395e-07
1.48272e-05
1.69838e-07
1.47812e-05
1.64189e-07
1.47382e-05
1.58541e-07
1.46979e-05
1.52954e-07
1.47369e-07
1.46601e-05
1.23902e-05
5.12426e-08
1.23448e-05
1.38117e-07
1.22864e-05
1.93434e-07
1.22225e-05
2.2595e-07
1.21566e-05
2.44815e-07
1.20914e-05
2.54144e-07
1.20285e-05
2.5647e-07
1.19689e-05
2.54123e-07
1.19131e-05
2.4886e-07
1.18612e-05
2.41801e-07
1.18131e-05
2.33673e-07
1.17689e-05
2.24976e-07
1.17282e-05
2.16052e-07
1.16909e-05
2.07126e-07
1.16568e-05
1.98346e-07
1.16255e-05
1.8981e-07
1.15969e-05
1.81564e-07
1.73595e-07
1.15707e-05
9.55928e-06
7.55492e-08
9.50978e-06
1.87618e-07
9.45372e-06
2.49499e-07
9.39691e-06
2.82758e-07
9.34172e-06
3.00001e-07
9.29015e-06
3.05713e-07
9.24315e-06
3.03473e-07
9.20085e-06
2.96423e-07
9.16311e-06
2.86605e-07
9.12966e-06
2.7525e-07
9.10017e-06
2.63157e-07
9.07429e-06
2.50858e-07
9.05165e-06
2.38694e-07
9.0319e-06
2.26874e-07
9.01473e-06
2.15518e-07
8.99984e-06
2.04698e-07
8.98698e-06
1.94429e-07
1.84717e-07
8.97586e-06
7.18003e-06
1.04967e-07
7.13264e-06
2.35007e-07
7.087e-06
2.95137e-07
7.04544e-06
3.24327e-07
7.00922e-06
3.36219e-07
6.97929e-06
3.3564e-07
6.95533e-06
3.27437e-07
6.93656e-06
3.15191e-07
6.92225e-06
3.00911e-07
6.91174e-06
2.85764e-07
6.9044e-06
2.70492e-07
6.89971e-06
2.55549e-07
6.89721e-06
2.41196e-07
6.89652e-06
2.27566e-07
6.89732e-06
2.14719e-07
6.89935e-06
2.0267e-07
6.90238e-06
1.91399e-07
1.80901e-07
6.90619e-06
5.24556e-06
1.38124e-07
5.20786e-06
2.72704e-07
5.18043e-06
3.22566e-07
5.16162e-06
3.43138e-07
5.15136e-06
3.4648e-07
5.1486e-06
3.38407e-07
5.15149e-06
3.2454e-07
5.15856e-06
3.08129e-07
5.16869e-06
2.90781e-07
5.18103e-06
2.7342e-07
5.19493e-06
2.56595e-07
5.20987e-06
2.40601e-07
5.2255e-06
2.25572e-07
5.24151e-06
2.11551e-07
5.2577e-06
1.98528e-07
5.27391e-06
1.86462e-07
5.29001e-06
1.75298e-07
1.6502e-07
5.3059e-06
3.71461e-06
1.71646e-07
3.69607e-06
2.91245e-07
3.69443e-06
3.24211e-07
3.70435e-06
3.33213e-07
3.72343e-06
3.274e-07
3.74841e-06
3.13427e-07
3.77672e-06
2.96229e-07
3.80682e-06
2.78032e-07
3.8377e-06
2.59895e-07
3.8687e-06
2.42426e-07
3.89934e-06
2.25949e-07
3.92934e-06
2.106e-07
3.95851e-06
1.96405e-07
3.98673e-06
1.83332e-07
4.01394e-06
1.71318e-07
4.04011e-06
1.60288e-07
4.06525e-06
1.50164e-07
1.40931e-07
4.08934e-06
2.5354e-06
1.96845e-07
2.54624e-06
2.80398e-07
2.57486e-06
2.95593e-07
2.61419e-06
2.93891e-07
2.65964e-06
2.8194e-07
2.70725e-06
2.65819e-07
2.75498e-06
2.485e-07
2.80183e-06
2.31184e-07
2.8472e-06
2.14521e-07
2.89077e-06
1.98863e-07
2.93236e-06
1.84357e-07
2.97193e-06
1.71032e-07
3.00948e-06
1.58848e-07
3.04508e-06
1.4773e-07
3.07881e-06
1.37594e-07
3.11075e-06
1.28349e-07
3.141e-06
1.19914e-07
1.12289e-07
3.16964e-06
1.65469e-06
1.99258e-07
1.70056e-06
2.3453e-07
1.75708e-06
2.39078e-07
1.81982e-06
2.31148e-07
1.88377e-06
2.17988e-07
1.94597e-06
2.03619e-07
2.00555e-06
1.88921e-07
2.06214e-06
1.74593e-07
2.11556e-06
1.61101e-07
2.1658e-06
1.48624e-07
2.21296e-06
1.37204e-07
2.25717e-06
1.26817e-07
2.29862e-06
1.17396e-07
2.33749e-06
1.08859e-07
2.37397e-06
1.0112e-07
2.40822e-06
9.40971e-08
2.44042e-06
8.77104e-08
8.19976e-08
2.47071e-06
1.01827e-06
1.63846e-07
1.09488e-06
1.57923e-07
1.17024e-06
1.6372e-07
1.24669e-06
1.54697e-07
1.32008e-06
1.44597e-07
1.38906e-06
1.34641e-07
1.45369e-06
1.24292e-07
1.51402e-06
1.14262e-07
1.57016e-06
1.04961e-07
1.62233e-06
9.64557e-08
1.6708e-06
8.87337e-08
1.71585e-06
8.17597e-08
1.75778e-06
7.54743e-08
1.79683e-06
6.98085e-08
1.83325e-06
6.46944e-08
1.86728e-06
6.00714e-08
1.89913e-06
5.58599e-08
5.21357e-08
1.92899e-06
5.69237e-07
8.45264e-08
6.58981e-07
6.81788e-08
7.40761e-07
8.19399e-08
8.20854e-07
7.46033e-08
8.95851e-07
6.96005e-08
9.65401e-07
6.50907e-08
1.02982e-06
5.98748e-08
1.08932e-06
5.47592e-08
1.14419e-06
5.00934e-08
1.19478e-06
4.58667e-08
1.24146e-06
4.20499e-08
1.2846e-06
3.86224e-08
1.32452e-06
3.55503e-08
1.36154e-06
3.27937e-08
1.39592e-06
3.03144e-08
1.4279e-06
2.80839e-08
1.45773e-06
2.60299e-08
2.42014e-08
1.48567e-06
2.22451e-07
2.90629e-07
3.72569e-07
4.47173e-07
5.16773e-07
5.81864e-07
6.41739e-07
6.96498e-07
7.46591e-07
7.92458e-07
8.34508e-07
8.7313e-07
9.0868e-07
9.41474e-07
9.71789e-07
9.99872e-07
1.0259e-06
1.0501e-06
1.99208e-08
-1.99208e-08
4.40577e-08
-2.41369e-08
6.43559e-08
-2.02982e-08
7.84435e-08
-1.40876e-08
8.55578e-08
-7.11427e-09
8.58288e-08
-2.71011e-10
8.00306e-08
5.7982e-09
6.94168e-08
1.06138e-08
5.51926e-08
1.42242e-08
3.82523e-08
1.69404e-08
1.90994e-08
1.91528e-08
-2.09312e-09
2.11925e-08
-2.54067e-08
2.33136e-08
-5.1052e-08
2.56453e-08
-7.92577e-08
2.82057e-08
-1.1023e-07
3.09728e-08
-1.44118e-07
3.38879e-08
-1.80995e-07
3.68763e-08
-2.20851e-07
3.98568e-08
-2.63599e-07
4.27472e-08
-3.09068e-07
4.54699e-08
-3.57024e-07
4.79554e-08
-4.07171e-07
5.01469e-08
-4.59173e-07
5.20019e-08
-5.12667e-07
5.34942e-08
-5.6728e-07
5.46133e-08
-6.22644e-07
5.53634e-08
-6.78405e-07
5.57617e-08
-7.34243e-07
5.58375e-08
-7.89877e-07
5.5634e-08
-8.45082e-07
5.52052e-08
-8.99677e-07
5.45955e-08
-9.53506e-07
5.38286e-08
-1.00644e-06
5.29303e-08
-1.05836e-06
5.1925e-08
-1.1092e-06
5.08355e-08
-1.15888e-06
4.96818e-08
-1.20736e-06
4.8481e-08
-1.25461e-06
4.72472e-08
-1.3006e-06
4.59917e-08
-1.34532e-06
4.47231e-08
-1.38877e-06
4.34478e-08
-1.43094e-06
4.21703e-08
-1.47183e-06
4.08935e-08
-1.51145e-06
3.96188e-08
-1.5498e-06
3.8347e-08
-1.58688e-06
3.70779e-08
-1.62269e-06
3.5811e-08
-1.65723e-06
3.45453e-08
-1.69051e-06
3.32797e-08
-1.72253e-06
3.2013e-08
-1.75327e-06
3.07441e-08
-1.78274e-06
2.9472e-08
-1.81094e-06
2.81957e-08
-1.83785e-06
2.69144e-08
-1.86348e-06
2.56275e-08
-1.88781e-06
2.43346e-08
-1.91085e-06
2.30352e-08
-1.93258e-06
2.17293e-08
-1.953e-06
2.04166e-08
-1.97209e-06
1.90971e-08
-1.98986e-06
1.77706e-08
-2.0063e-06
1.6437e-08
-2.0214e-06
1.50958e-08
-2.03514e-06
1.37463e-08
-2.04753e-06
1.23873e-08
-2.05855e-06
1.10169e-08
-2.06818e-06
9.63142e-09
-2.0764e-06
8.22699e-09
-2.0832e-06
6.79823e-09
-2.08854e-06
5.33763e-09
-2.09238e-06
3.83637e-09
-2.09467e-06
2.29091e-09
-2.09534e-06
6.76875e-10
-2.09456e-06
-7.84036e-10
-2.09249e-06
-2.06753e-09
-2.08921e-06
-3.28709e-09
-2.08474e-06
-4.46637e-09
-2.07912e-06
-5.62338e-09
-2.07235e-06
-6.767e-09
-2.06445e-06
-7.90061e-09
-2.05542e-06
-9.02531e-09
-2.04528e-06
-1.01411e-08
-2.03403e-06
-1.12477e-08
-2.02169e-06
-1.23445e-08
-2.00826e-06
-1.34309e-08
-1.99375e-06
-1.45062e-08
-1.97818e-06
-1.55699e-08
-1.96156e-06
-1.66214e-08
-1.9439e-06
-1.76602e-08
-1.92522e-06
-1.86857e-08
-1.90552e-06
-1.96974e-08
-1.88482e-06
-2.06949e-08
-1.86315e-06
-2.16777e-08
-1.8405e-06
-2.26454e-08
-1.8169e-06
-2.35976e-08
-1.79237e-06
-2.45338e-08
-1.76692e-06
-2.54536e-08
-1.74056e-06
-2.63567e-08
-1.71332e-06
-2.72426e-08
-1.68521e-06
-2.81109e-08
-1.65624e-06
-2.89612e-08
-1.62645e-06
-2.97932e-08
-1.59584e-06
-3.06063e-08
-1.56444e-06
-3.14002e-08
-1.53227e-06
-3.21745e-08
-1.49934e-06
-3.29287e-08
-1.46568e-06
-3.36622e-08
-1.4313e-06
-3.43747e-08
-1.39624e-06
-3.50656e-08
-1.3605e-06
-3.57344e-08
-1.32412e-06
-3.63806e-08
-1.28712e-06
-3.70038e-08
-1.24952e-06
-3.76033e-08
-1.21134e-06
-3.81787e-08
-1.17261e-06
-3.87294e-08
-1.13335e-06
-3.92549e-08
-1.0936e-06
-3.97547e-08
-1.05337e-06
-4.02283e-08
-1.0127e-06
-4.06752e-08
-9.716e-07
-4.10949e-08
-9.30113e-07
-4.14869e-08
-8.88263e-07
-4.18509e-08
-8.46076e-07
-4.21865e-08
-8.03583e-07
-4.24932e-08
-7.60812e-07
-4.27708e-08
-7.17793e-07
-4.30189e-08
-6.74556e-07
-4.32372e-08
-6.3113e-07
-4.34257e-08
-5.87546e-07
-4.3584e-08
-5.43834e-07
-4.3712e-08
-5.00025e-07
-4.38095e-08
-4.56148e-07
-4.38765e-08
-4.12236e-07
-4.39126e-08
-3.68318e-07
-4.39178e-08
-3.24426e-07
-4.38917e-08
-2.80593e-07
-4.38338e-08
-2.36849e-07
-4.37434e-08
-1.93229e-07
-4.36199e-08
-1.49769e-07
-4.34602e-08
-1.06502e-07
-4.32667e-08
-6.34623e-08
-4.304e-08
-2.06891e-08
-4.27732e-08
2.17812e-08
-4.24703e-08
6.39071e-08
-4.21259e-08
1.0566e-07
-4.17528e-08
1.47027e-07
-4.13668e-08
1.88003e-07
-4.09763e-08
2.28582e-07
-4.05791e-08
2.68755e-07
-4.01728e-08
3.08511e-07
-3.97559e-08
3.47839e-07
-3.93278e-08
3.86727e-07
-3.88884e-08
4.25165e-07
-3.84382e-08
4.63143e-07
-3.7978e-08
5.00652e-07
-3.75088e-08
5.37683e-07
-3.70316e-08
5.74231e-07
-3.65478e-08
6.1029e-07
-3.60584e-08
6.45854e-07
-3.55647e-08
6.80922e-07
-3.50677e-08
7.1549e-07
-3.45681e-08
7.49557e-07
-3.40665e-08
7.8312e-07
-3.35631e-08
8.16177e-07
-3.30572e-08
8.48724e-07
-3.25472e-08
8.80755e-07
-3.20303e-08
9.12256e-07
-3.15013e-08
9.43208e-07
-3.09521e-08
9.73578e-07
-3.037e-08
1.00331e-06
-2.97346e-08
1.03233e-06
-2.90134e-08
1.06048e-06
-2.81527e-08
1.08754e-06
-2.70606e-08
1.1131e-06
-2.5559e-08
1.1364e-06
-2.33044e-08
1.15574e-06
-1.93361e-08
1.16722e-06
-1.14805e-08
1.15817e-06
9.04755e-09
5.44044e-08
1.10377e-06
1.76503e-08
-3.75711e-08
2.68317e-08
-3.33183e-08
2.816e-08
-2.16264e-08
2.38245e-08
-9.75217e-09
1.51991e-08
1.5111e-09
3.02683e-09
1.19013e-08
-1.24269e-08
2.12519e-08
-3.1273e-08
2.94599e-08
-5.36234e-08
3.65745e-08
-7.95034e-08
4.28204e-08
-1.08859e-07
4.85088e-08
-1.41599e-07
5.3932e-08
-1.77583e-07
5.92983e-08
-2.16651e-07
6.4713e-08
-2.5863e-07
7.0185e-08
-3.03312e-07
7.56538e-08
-3.5044e-07
8.10166e-08
-3.99716e-07
8.61517e-08
-4.50795e-07
9.09363e-08
-5.03306e-07
9.52583e-08
-5.56861e-07
9.90246e-08
-6.11072e-07
1.02167e-07
-6.6557e-07
1.04644e-07
-7.20011e-07
1.06443e-07
-7.74092e-07
1.07575e-07
-8.27552e-07
1.08074e-07
-8.80179e-07
1.07991e-07
-9.31807e-07
1.0739e-07
-9.82313e-07
1.06343e-07
-1.03161e-06
1.04927e-07
-1.07962e-06
1.03217e-07
-1.1263e-06
1.01275e-07
-1.17162e-06
9.9153e-08
-1.21559e-06
9.68948e-08
-1.2582e-06
9.4539e-08
-1.29948e-06
9.2117e-08
-1.33945e-06
8.96544e-08
-1.37814e-06
8.7171e-08
-1.41558e-06
8.46816e-08
-1.45178e-06
8.21969e-08
-1.48678e-06
7.97238e-08
-1.5206e-06
7.72661e-08
-1.55326e-06
7.48258e-08
-1.58477e-06
7.24027e-08
-1.61514e-06
6.99955e-08
-1.6444e-06
6.76021e-08
-1.67254e-06
6.52196e-08
-1.69958e-06
6.28452e-08
-1.72551e-06
6.04757e-08
-1.75033e-06
5.81081e-08
-1.77406e-06
5.57398e-08
-1.79669e-06
5.33681e-08
-1.8182e-06
5.09909e-08
-1.83861e-06
4.86064e-08
-1.85791e-06
4.62131e-08
-1.8761e-06
4.38101e-08
-1.89316e-06
4.13964e-08
-1.90909e-06
3.89717e-08
-1.9239e-06
3.65358e-08
-1.93757e-06
3.40887e-08
-1.95011e-06
3.16307e-08
-1.9615e-06
2.9162e-08
-1.97174e-06
2.66832e-08
-1.98084e-06
2.41945e-08
-1.98879e-06
2.16965e-08
-1.9956e-06
1.91895e-08
-2.00125e-06
1.66738e-08
-2.00577e-06
1.41501e-08
-2.00916e-06
1.16194e-08
-2.01145e-06
9.08398e-09
-2.01266e-06
6.54814e-09
-2.01284e-06
4.02063e-09
-2.01207e-06
1.52166e-09
-2.01047e-06
-9.32567e-10
-2.00793e-06
-3.32112e-09
-2.00435e-06
-5.64899e-09
-1.99968e-06
-7.95519e-09
-1.9939e-06
-1.02433e-08
-1.98701e-06
-1.2515e-08
-1.97901e-06
-1.47717e-08
-1.96989e-06
-1.70135e-08
-1.95968e-06
-1.924e-08
-1.94837e-06
-2.14499e-08
-1.93597e-06
-2.36423e-08
-1.9225e-06
-2.58158e-08
-1.90796e-06
-2.79689e-08
-1.89237e-06
-3.01006e-08
-1.87573e-06
-3.22094e-08
-1.85806e-06
-3.42943e-08
-1.83936e-06
-3.63541e-08
-1.81966e-06
-3.83877e-08
-1.79897e-06
-4.03942e-08
-1.77729e-06
-4.23726e-08
-1.75464e-06
-4.4322e-08
-1.73105e-06
-4.62414e-08
-1.70651e-06
-4.81302e-08
-1.68106e-06
-4.99873e-08
-1.6547e-06
-5.1812e-08
-1.62746e-06
-5.36034e-08
-1.59934e-06
-5.53607e-08
-1.57037e-06
-5.7083e-08
-1.54056e-06
-5.87695e-08
-1.50993e-06
-6.04194e-08
-1.47851e-06
-6.20319e-08
-1.4463e-06
-6.36062e-08
-1.41333e-06
-6.51412e-08
-1.37963e-06
-6.66361e-08
-1.3452e-06
-6.809e-08
-1.31007e-06
-6.95017e-08
-1.27427e-06
-7.08705e-08
-1.23781e-06
-7.21951e-08
-1.20071e-06
-7.34747e-08
-1.16301e-06
-7.47082e-08
-1.12472e-06
-7.58946e-08
-1.08586e-06
-7.70327e-08
-1.04647e-06
-7.81216e-08
-1.00656e-06
-7.91602e-08
-9.66172e-07
-8.01474e-08
-9.25318e-07
-8.10822e-08
-8.84029e-07
-8.19638e-08
-8.42333e-07
-8.27911e-08
-8.00257e-07
-8.35631e-08
-7.57829e-07
-8.42792e-08
-7.15077e-07
-8.49384e-08
-6.7203e-07
-8.55401e-08
-6.28717e-07
-8.60836e-08
-5.85168e-07
-8.65682e-08
-5.41411e-07
-8.69936e-08
-4.97478e-07
-8.73591e-08
-4.53397e-07
-8.76646e-08
-4.092e-07
-8.79096e-08
-3.64915e-07
-8.80938e-08
-3.20575e-07
-8.82171e-08
-2.76208e-07
-8.82791e-08
-2.31847e-07
-8.82795e-08
-1.8752e-07
-8.82178e-08
-1.43261e-07
-8.80934e-08
-9.90993e-08
-8.7905e-08
-5.5067e-08
-8.76522e-08
-1.11954e-08
-8.73318e-08
3.24822e-08
-8.69443e-08
7.59329e-08
-8.64907e-08
1.1913e-07
-8.59702e-08
1.62049e-07
-8.5389e-08
2.0467e-07
-8.47472e-08
2.46973e-07
-8.40554e-08
2.88936e-07
-8.33303e-08
3.30541e-07
-8.25807e-08
3.7177e-07
-8.18081e-08
4.12609e-07
-8.10118e-08
4.53044e-07
-8.01911e-08
4.93062e-07
-7.93461e-08
5.32651e-07
-7.84777e-08
5.71801e-07
-7.75872e-08
6.10499e-07
-7.66765e-08
6.48738e-07
-7.57477e-08
6.86509e-07
-7.48031e-08
7.23807e-07
-7.38452e-08
7.60625e-07
-7.28764e-08
7.96959e-07
-7.18991e-08
8.32807e-07
-7.09152e-08
8.68165e-07
-6.99265e-08
9.03033e-07
-6.89341e-08
9.37408e-07
-6.79381e-08
9.71288e-07
-6.69374e-08
1.00467e-06
-6.59288e-08
1.03755e-06
-6.49063e-08
1.0699e-06
-6.386e-08
1.10173e-06
-6.27737e-08
1.13298e-06
-6.16219e-08
1.16361e-06
-6.03645e-08
1.19353e-06
-5.89376e-08
1.22262e-06
-5.72366e-08
1.25064e-06
-5.50846e-08
1.27723e-06
-5.21531e-08
1.30176e-06
-4.7831e-08
1.3231e-06
-4.06756e-08
1.33967e-06
-2.80528e-08
1.3499e-06
-1.17617e-09
5.3969e-08
1.35033e-06
2.744e-09
-4.03151e-08
-4.18612e-09
-2.63882e-08
-1.58474e-08
-9.96521e-09
-3.06449e-08
5.04542e-09
-4.80143e-08
1.88804e-08
-6.78028e-08
3.16898e-08
-9.00596e-08
4.35088e-08
-1.14954e-07
5.43541e-08
-1.42674e-07
6.42948e-08
-1.73331e-07
7.34772e-08
-2.06911e-07
8.20888e-08
-2.4328e-07
9.03008e-08
-2.82205e-07
9.82241e-08
-3.23386e-07
1.05894e-07
-3.66477e-07
1.13275e-07
-4.11109e-07
1.20286e-07
-4.56908e-07
1.26815e-07
-5.03504e-07
1.32748e-07
-5.50547e-07
1.3798e-07
-5.97718e-07
1.42428e-07
-6.44733e-07
1.4604e-07
-6.91358e-07
1.48791e-07
-7.37402e-07
1.50688e-07
-7.82723e-07
1.51764e-07
-8.27219e-07
1.52071e-07
-8.70827e-07
1.51681e-07
-9.1351e-07
1.50674e-07
-9.55255e-07
1.49134e-07
-9.96061e-07
1.47149e-07
-1.03593e-06
1.448e-07
-1.07488e-06
1.42164e-07
-1.11291e-06
1.39304e-07
-1.15003e-06
1.36277e-07
-1.18626e-06
1.33127e-07
-1.22162e-06
1.29893e-07
-1.25611e-06
1.26605e-07
-1.28974e-06
1.23286e-07
-1.32252e-06
1.19954e-07
-1.35446e-06
1.1662e-07
-1.38556e-06
1.13292e-07
-1.41581e-06
1.09976e-07
-1.44522e-06
1.06673e-07
-1.47377e-06
1.03383e-07
-1.50147e-06
1.00105e-07
-1.52831e-06
9.68349e-08
-1.55428e-06
9.35701e-08
-1.57937e-06
9.03068e-08
-1.60357e-06
8.70409e-08
-1.62686e-06
8.37689e-08
-1.64924e-06
8.04871e-08
-1.67069e-06
7.71924e-08
-1.6912e-06
7.3882e-08
-1.71077e-06
7.05537e-08
-1.72937e-06
6.72057e-08
-1.74699e-06
6.38368e-08
-1.76363e-06
6.04461e-08
-1.77926e-06
5.70332e-08
-1.79389e-06
5.35983e-08
-1.8075e-06
5.01419e-08
-1.82007e-06
4.66648e-08
-1.83161e-06
4.31681e-08
-1.8421e-06
3.96534e-08
-1.85154e-06
3.61221e-08
-1.85992e-06
3.25762e-08
-1.86724e-06
2.9018e-08
-1.8735e-06
2.54496e-08
-1.8787e-06
2.1874e-08
-1.88285e-06
1.82946e-08
-1.88594e-06
1.47156e-08
-1.888e-06
1.11425e-08
-1.88904e-06
7.58241e-09
-1.88906e-06
4.04451e-09
-1.88808e-06
5.38232e-10
-1.88608e-06
-2.92577e-09
-1.88305e-06
-6.35401e-09
-1.87894e-06
-9.75448e-09
-1.87376e-06
-1.31367e-08
-1.8675e-06
-1.65028e-08
-1.86017e-06
-1.98526e-08
-1.85175e-06
-2.3185e-08
-1.84227e-06
-2.64982e-08
-1.83172e-06
-2.97903e-08
-1.82011e-06
-3.30593e-08
-1.80745e-06
-3.6303e-08
-1.79374e-06
-3.95194e-08
-1.77901e-06
-4.27064e-08
-1.76325e-06
-4.5862e-08
-1.74647e-06
-4.89844e-08
-1.72869e-06
-5.20716e-08
-1.70993e-06
-5.51221e-08
-1.69018e-06
-5.81342e-08
-1.66947e-06
-6.11065e-08
-1.6478e-06
-6.40373e-08
-1.6252e-06
-6.69255e-08
-1.60167e-06
-6.97695e-08
-1.57723e-06
-7.25682e-08
-1.5519e-06
-7.53202e-08
-1.52569e-06
-7.80243e-08
-1.49861e-06
-8.06791e-08
-1.47069e-06
-8.32834e-08
-1.44194e-06
-8.58359e-08
-1.41237e-06
-8.83354e-08
-1.38201e-06
-9.07806e-08
-1.35087e-06
-9.31702e-08
-1.31897e-06
-9.5503e-08
-1.28634e-06
-9.77776e-08
-1.25298e-06
-9.99926e-08
-1.21892e-06
-1.02147e-07
-1.18419e-06
-1.04238e-07
-1.14879e-06
-1.06265e-07
-1.11276e-06
-1.08227e-07
-1.07611e-06
-1.10122e-07
-1.03887e-06
-1.11948e-07
-1.00106e-06
-1.13704e-07
-9.62708e-07
-1.15389e-07
-9.2383e-07
-1.17e-07
-8.84455e-07
-1.18536e-07
-8.44607e-07
-1.19995e-07
-8.04312e-07
-1.21377e-07
-7.63597e-07
-1.22679e-07
-7.22488e-07
-1.23901e-07
-6.81011e-07
-1.2504e-07
-6.39195e-07
-1.26096e-07
-5.97066e-07
-1.27067e-07
-5.54654e-07
-1.27953e-07
-5.11986e-07
-1.28751e-07
-4.69091e-07
-1.29463e-07
-4.25999e-07
-1.30086e-07
-3.82738e-07
-1.3062e-07
-3.39338e-07
-1.31065e-07
-2.95828e-07
-1.31419e-07
-2.52239e-07
-1.31684e-07
-2.08599e-07
-1.31857e-07
-1.64938e-07
-1.3194e-07
-1.21286e-07
-1.31931e-07
-7.76733e-08
-1.31831e-07
-3.4129e-08
-1.31638e-07
9.31728e-09
-1.31351e-07
5.26349e-08
-1.3097e-07
9.57946e-08
-1.30492e-07
1.38768e-07
-1.29917e-07
1.81526e-07
-1.29249e-07
2.24049e-07
-1.28493e-07
2.6632e-07
-1.27659e-07
3.08324e-07
-1.26752e-07
3.50041e-07
-1.25772e-07
3.91444e-07
-1.24733e-07
4.32508e-07
-1.23645e-07
4.73214e-07
-1.22513e-07
5.13542e-07
-1.2134e-07
5.53477e-07
-1.20126e-07
5.93005e-07
-1.18874e-07
6.32114e-07
-1.17586e-07
6.70791e-07
-1.16264e-07
7.09027e-07
-1.14912e-07
7.46812e-07
-1.13533e-07
7.84138e-07
-1.1213e-07
8.21001e-07
-1.10707e-07
8.57393e-07
-1.09269e-07
8.93311e-07
-1.07818e-07
9.28753e-07
-1.06357e-07
9.63716e-07
-1.0489e-07
9.98199e-07
-1.03417e-07
1.0322e-06
-1.01939e-07
1.06572e-06
-1.00455e-07
1.09875e-06
-9.89592e-08
1.13128e-06
-9.74434e-08
1.16332e-06
-9.58928e-08
1.19483e-06
-9.42834e-08
1.22578e-06
-9.25779e-08
1.25614e-06
-9.07178e-08
1.28581e-06
-8.86109e-08
1.31468e-06
-8.61079e-08
1.34256e-06
-8.29607e-08
1.36913e-06
-7.87297e-08
1.39393e-06
-7.2626e-08
1.41627e-06
-6.3012e-08
1.43527e-06
-4.70601e-08
1.45148e-06
-1.73807e-08
3.69666e-08
1.46848e-06
-1.22737e-08
-2.80414e-08
-3.05622e-08
-8.09972e-09
-5.08405e-08
1.03131e-08
-7.2593e-08
2.6798e-08
-9.57971e-08
4.20845e-08
-1.2055e-07
5.64429e-08
-1.47001e-07
6.99597e-08
-1.75312e-07
8.26646e-08
-2.0561e-07
9.45931e-08
-2.37941e-07
1.05808e-07
-2.72237e-07
1.16385e-07
-3.08325e-07
1.26389e-07
-3.45948e-07
1.35848e-07
-3.84799e-07
1.44744e-07
-4.24548e-07
1.53024e-07
-4.64868e-07
1.60606e-07
-5.05455e-07
1.67403e-07
-5.46041e-07
1.73334e-07
-5.86402e-07
1.7834e-07
-6.26359e-07
1.82386e-07
-6.65782e-07
1.85463e-07
-7.04584e-07
1.87594e-07
-7.42716e-07
1.8882e-07
-7.80158e-07
1.89206e-07
-8.16914e-07
1.88828e-07
-8.53002e-07
1.87769e-07
-8.88445e-07
1.86117e-07
-9.23272e-07
1.83961e-07
-9.57507e-07
1.81384e-07
-9.91168e-07
1.78462e-07
-1.02427e-06
1.75265e-07
-1.05682e-06
1.71852e-07
-1.08881e-06
1.68273e-07
-1.12026e-06
1.64572e-07
-1.15115e-06
1.60781e-07
-1.18147e-06
1.56927e-07
-1.21121e-06
1.53032e-07
-1.24037e-06
1.49109e-07
-1.26892e-06
1.4517e-07
-1.29685e-06
1.41221e-07
-1.32414e-06
1.37266e-07
-1.35077e-06
1.33306e-07
-1.37673e-06
1.2934e-07
-1.40199e-06
1.25366e-07
-1.42654e-06
1.21382e-07
-1.45035e-06
1.17383e-07
-1.47341e-06
1.13367e-07
-1.4957e-06
1.09329e-07
-1.51719e-06
1.05266e-07
-1.53788e-06
1.01174e-07
-1.55774e-06
9.70513e-08
-1.57675e-06
9.28947e-08
-1.5949e-06
8.87028e-08
-1.61217e-06
8.44741e-08
-1.62854e-06
8.02082e-08
-1.644e-06
7.59049e-08
-1.65853e-06
7.15646e-08
-1.67212e-06
6.71883e-08
-1.68476e-06
6.27775e-08
-1.69643e-06
5.83341e-08
-1.70712e-06
5.38603e-08
-1.71682e-06
4.93589e-08
-1.72553e-06
4.48329e-08
-1.73324e-06
4.02855e-08
-1.73995e-06
3.57206e-08
-1.74564e-06
3.11422e-08
-1.75032e-06
2.65546e-08
-1.75399e-06
2.19629e-08
-1.75665e-06
1.73725e-08
-1.75829e-06
1.27895e-08
-1.75893e-06
8.22044e-09
-1.75856e-06
3.67183e-09
-1.75717e-06
-8.50964e-10
-1.75475e-06
-5.34449e-09
-1.75129e-06
-9.81135e-09
-1.74679e-06
-1.42569e-08
-1.74124e-06
-1.86846e-08
-1.73465e-06
-2.3095e-08
-1.72702e-06
-2.74867e-08
-1.71834e-06
-3.18574e-08
-1.70864e-06
-3.62046e-08
-1.6979e-06
-4.05252e-08
-1.68614e-06
-4.48165e-08
-1.67337e-06
-4.90754e-08
-1.65959e-06
-5.32992e-08
-1.64481e-06
-5.74849e-08
-1.62905e-06
-6.16301e-08
-1.6123e-06
-6.5732e-08
-1.59458e-06
-6.97884e-08
-1.57591e-06
-7.3797e-08
-1.55629e-06
-7.77555e-08
-1.53573e-06
-8.1662e-08
-1.51425e-06
-8.55144e-08
-1.49187e-06
-8.93111e-08
-1.46859e-06
-9.30501e-08
-1.44442e-06
-9.67296e-08
-1.4194e-06
-1.00348e-07
-1.39352e-06
-1.03904e-07
-1.3668e-06
-1.07395e-07
-1.33927e-06
-1.10819e-07
-1.31093e-06
-1.14176e-07
-1.2818e-06
-1.17463e-07
-1.2519e-06
-1.20678e-07
-1.22125e-06