/*--------------------------------*- C++ -*----------------------------------*\
| =========                 |                                                 |
| \\      /  F ield         | OpenFOAM: The Open Source CFD Toolbox           |
|  \\    /   O peration     | Version:  2412                                  |
|   \\  /    A nd           | Website:  www.openfoam.com                      |
|    \\/     M anipulation  |                                                 |
\*---------------------------------------------------------------------------*/
FoamFile
{
    version     2.0;
    format      ascii;
    arch        "LSB;label=32;scalar=64";
    class       volVectorField;
    location    "0.19";
    object      U;
}
// * * * * * * * * * * * * * * * * * * * * * * * * * * * * * * * * * * * * * //

dimensions      [0 1 -1 0 0 0 0];

internalField   nonuniform List<vector> 
12225
(
(0.377183 -0.200896 0)
(0.543962 -0.051927 0)
(0.711047 -0.0340147 0)
(0.893978 -0.0304769 0)
(1.05911 -0.0297472 0)
(1.20885 -0.0284528 0)
(1.34616 -0.0265186 0)
(1.47046 -0.0245759 0)
(1.58221 -0.0227667 0)
(1.68267 -0.0210742 0)
(1.77303 -0.0194959 0)
(1.85424 -0.0180235 0)
(1.92711 -0.0166355 0)
(1.99234 -0.0152901 0)
(2.05025 -0.0139633 0)
(2.10174 -0.0125033 0)
(2.14293 -0.0103425 0)
(2.19052 -0.0128369 0)
(0.933503 -0.0317783 0)
(1.0567 -0.0587102 0)
(1.23664 -0.0689002 0)
(1.42155 -0.0644846 0)
(1.58552 -0.0618125 0)
(1.73442 -0.0589663 0)
(1.87131 -0.0555643 0)
(1.99602 -0.0521769 0)
(2.10903 -0.0489347 0)
(2.21136 -0.045845 0)
(2.30401 -0.0429222 0)
(2.3878 -0.0401521 0)
(2.46347 -0.0374925 0)
(2.53166 -0.0348641 0)
(2.59275 -0.0322062 0)
(2.64711 -0.0290704 0)
(2.69424 -0.0260596 0)
(2.73609 -0.0159099 0)
(1.39962 -0.0846818 0)
(1.49179 -0.105677 0)
(1.65465 -0.107237 0)
(1.8226 -0.10194 0)
(1.97267 -0.0979881 0)
(2.11037 -0.0936504 0)
(2.23774 -0.0887383 0)
(2.35448 -0.0837949 0)
(2.46092 -0.0789928 0)
(2.55785 -0.0743783 0)
(2.646 -0.0699771 0)
(2.72608 -0.06577 0)
(2.79868 -0.0616974 0)
(2.86434 -0.0576524 0)
(2.92345 -0.0535031 0)
(2.97623 -0.0488289 0)
(3.02289 -0.0436055 0)
(3.06269 -0.034086 0)
(1.89741 -0.115425 0)
(1.94623 -0.143308 0)
(2.0752 -0.144982 0)
(2.21747 -0.140765 0)
(2.34797 -0.135776 0)
(2.46972 -0.130042 0)
(2.58351 -0.123691 0)
(2.68865 -0.117203 0)
(2.78522 -0.110816 0)
(2.8737 -0.10463 0)
(2.95458 -0.0986893 0)
(3.02836 -0.0929743 0)
(3.09553 -0.0874144 0)
(3.15648 -0.0818795 0)
(3.21158 -0.0761881 0)
(3.26099 -0.0699169 0)
(3.30525 -0.0627745 0)
(3.34281 -0.051757 0)
(2.43108 -0.12583 0)
(2.4405 -0.169891 0)
(2.5288 -0.17741 0)
(2.64002 -0.17617 0)
(2.7468 -0.171227 0)
(2.84902 -0.164726 0)
(2.94615 -0.157372 0)
(3.03699 -0.149672 0)
(3.12123 -0.141956 0)
(3.19901 -0.134398 0)
(3.27058 -0.127071 0)
(3.33621 -0.119968 0)
(3.39623 -0.113018 0)
(3.45093 -0.106079 0)
(3.50061 -0.0989421 0)
(3.54538 -0.0911977 0)
(3.58608 -0.0824106 0)
(3.62062 -0.0703063 0)
(2.99683 -0.123684 0)
(2.97697 -0.185369 0)
(3.02469 -0.201459 0)
(3.10202 -0.20495 0)
(3.18209 -0.20157 0)
(3.26196 -0.195252 0)
(3.33993 -0.187548 0)
(3.41421 -0.179155 0)
(3.48405 -0.170533 0)
(3.54923 -0.161948 0)
(3.60973 -0.15352 0)
(3.66561 -0.14527 0)
(3.71702 -0.137139 0)
(3.76413 -0.12899 0)
(3.80716 -0.120608 0)
(3.84619 -0.111624 0)
(3.88222 -0.101581 0)
(3.9127 -0.0888965 0)
(3.58832 -0.114508 0)
(3.55089 -0.190583 0)
(3.5632 -0.215891 0)
(3.60678 -0.225315 0)
(3.65873 -0.225002 0)
(3.71442 -0.219953 0)
(3.77139 -0.212677 0)
(3.82733 -0.204218 0)
(3.88107 -0.195204 0)
(3.93206 -0.186021 0)
(3.98 -0.176857 0)
(4.02474 -0.167775 0)
(4.06625 -0.158742 0)
(4.10458 -0.149643 0)
(4.13986 -0.140281 0)
(4.17212 -0.130348 0)
(4.20243 -0.119448 0)
(4.22775 -0.106546 0)
(4.1988 -0.101767 0)
(4.15397 -0.187075 0)
(4.13918 -0.220704 0)
(4.15217 -0.236306 0)
(4.17667 -0.240135 0)
(4.20776 -0.237385 0)
(4.2428 -0.231353 0)
(4.27931 -0.223506 0)
(4.3158 -0.214678 0)
(4.35142 -0.205387 0)
(4.38564 -0.195912 0)
(4.41812 -0.186371 0)
(4.44868 -0.176775 0)
(4.47723 -0.167042 0)
(4.5038 -0.157016 0)
(4.52836 -0.146462 0)
(4.552 -0.135085 0)
(4.57112 -0.122251 0)
(4.82185 -0.0878094 0)
(4.77662 -0.176875 0)
(4.74389 -0.216841 0)
(4.73189 -0.237824 0)
(4.73177 -0.246119 0)
(4.73954 -0.246398 0)
(4.75302 -0.242319 0)
(4.76996 -0.235737 0)
(4.78876 -0.22768 0)
(4.80842 -0.218801 0)
(4.82824 -0.209476 0)
(4.84775 -0.199894 0)
(4.8666 -0.190117 0)
(4.88462 -0.180112 0)
(4.90174 -0.169777 0)
(4.91785 -0.158957 0)
(4.93401 -0.147466 0)
(4.94608 -0.13496 0)
(5.45146 -0.0741096 0)
(5.4095 -0.16201 0)
(5.36681 -0.205825 0)
(5.33652 -0.23064 0)
(5.31634 -0.242892 0)
(5.30382 -0.246407 0)
(5.29757 -0.244716 0)
(5.29598 -0.239894 0)
(5.29762 -0.233116 0)
(5.30151 -0.225135 0)
(5.3069 -0.216417 0)
(5.31322 -0.207219 0)
(5.32007 -0.197662 0)
(5.32718 -0.187771 0)
(5.33442 -0.177502 0)
(5.34158 -0.166777 0)
(5.34968 -0.155522 0)
(5.35409 -0.143583 0)
(6.08167 -0.061395 0)
(6.04411 -0.144171 0)
(5.99713 -0.189316 0)
(5.95492 -0.216155 0)
(5.92004 -0.231237 0)
(5.89154 -0.237609 0)
(5.8688 -0.238324 0)
(5.85096 -0.235473 0)
(5.83707 -0.230289 0)
(5.82631 -0.223569 0)
(5.818 -0.215834 0)
(5.81161 -0.207399 0)
(5.80673 -0.198439 0)
(5.80304 -0.18903 0)
(5.80037 -0.179191 0)
(5.79846 -0.168909 0)
(5.79826 -0.158206 0)
(5.79471 -0.14706 0)
(6.65461 -0.050603 0)
(6.62055 -0.126195 0)
(6.57304 -0.170568 0)
(6.52476 -0.197748 0)
(6.48112 -0.214201 0)
(6.44229 -0.222453 0)
(6.40812 -0.225002 0)
(6.37839 -0.223817 0)
(6.3526 -0.220116 0)
(6.33023 -0.214682 0)
(6.31079 -0.208043 0)
(6.29383 -0.200542 0)
(6.27901 -0.192387 0)
(6.26602 -0.183695 0)
(6.2547 -0.174528 0)
(6.24475 -0.164926 0)
(6.23711 -0.154948 0)
(6.22633 -0.144769 0)
(7.20973 -0.0406555 0)
(7.18016 -0.107382 0)
(7.13446 -0.149589 0)
(7.08342 -0.176113 0)
(7.03444 -0.192944 0)
(6.98879 -0.202316 0)
(6.94658 -0.206189 0)
(6.90795 -0.206335 0)
(6.87287 -0.203928 0)
(6.84112 -0.19971 0)
(6.81242 -0.194184 0)
(6.78646 -0.187695 0)
(6.763 -0.180469 0)
(6.74179 -0.172647 0)
(6.72269 -0.164322 0)
(6.70542 -0.155572 0)
(6.69086 -0.146467 0)
(6.67343 -0.137392 0)
(7.81811 -0.0310663 0)
(7.79338 -0.0861159 0)
(7.75173 -0.123825 0)
(7.70082 -0.148275 0)
(7.64925 -0.164304 0)
(7.59952 -0.173929 0)
(7.55197 -0.178575 0)
(7.50695 -0.179685 0)
(7.46477 -0.178344 0)
(7.42551 -0.175241 0)
(7.38909 -0.170835 0)
(7.35538 -0.165448 0)
(7.32425 -0.159303 0)
(7.29556 -0.152552 0)
(7.26923 -0.145305 0)
(7.24501 -0.137659 0)
(7.22373 -0.129706 0)
(7.19991 -0.121915 0)
(8.45855 -0.0222922 0)
(8.43893 -0.0637542 0)
(8.40342 -0.0942305 0)
(8.35609 -0.114641 0)
(8.30534 -0.128277 0)
(8.25482 -0.136878 0)
(8.20524 -0.141414 0)
(8.15712 -0.142884 0)
(8.11098 -0.142166 0)
(8.06716 -0.139862 0)
(8.02577 -0.13637 0)
(7.9868 -0.131974 0)
(7.95025 -0.12688 0)
(7.91607 -0.121241 0)
(7.88425 -0.115168 0)
(7.85458 -0.108763 0)
(7.82786 -0.102124 0)
(7.79898 -0.0957377 0)
(9.08866 -0.0143675 0)
(9.07382 -0.041725 0)
(9.04561 -0.0628262 0)
(9.00496 -0.0771638 0)
(8.95896 -0.086584 0)
(8.91167 -0.0924569 0)
(8.86418 -0.0954741 0)
(8.81705 -0.0962465 0)
(8.77095 -0.0953682 0)
(8.72642 -0.093286 0)
(8.68376 -0.0902972 0)
(8.64309 -0.0866115 0)
(8.60449 -0.0823897 0)
(8.56799 -0.0777562 0)
(8.53364 -0.0728125 0)
(8.50128 -0.0676546 0)
(8.47165 -0.0623513 0)
(8.44041 -0.0574108 0)
(9.63295 -0.00706939 0)
(9.6217 -0.0206957 0)
(9.59987 -0.0313788 0)
(9.56659 -0.038355 0)
(9.52747 -0.0423857 0)
(9.48644 -0.0443023 0)
(9.44472 -0.0445554 0)
(9.40275 -0.0434836 0)
(9.36111 -0.04143 0)
(9.32039 -0.0386777 0)
(9.28094 -0.0354224 0)
(9.24297 -0.0318015 0)
(9.2066 -0.0279225 0)
(9.17192 -0.0238766 0)
(9.13899 -0.019737 0)
(9.10773 -0.0155841 0)
(9.07871 -0.0114322 0)
(9.04892 -0.00777523 0)
(9.96404 0.000111602 0)
(9.95459 0.000175759 0)
(9.93649 0.000643855 0)
(9.90812 0.00189844 0)
(9.87423 0.00385166 0)
(9.83859 0.00631218 0)
(9.80246 0.00917564 0)
(9.76622 0.0123704 0)
(9.7303 0.0158124 0)
(9.6952 0.0194209 0)
(9.66123 0.0231334 0)
(9.62855 0.0268999 0)
(9.59722 0.0306748 0)
(9.56729 0.0344097 0)
(9.53878 0.0380623 0)
(9.51164 0.041569 0)
(9.48604 0.0449543 0)
(9.46098 0.0478026 0)
(9.87499 0.00747802 0)
(9.86688 0.0218119 0)
(9.84987 0.0342347 0)
(9.82249 0.0444438 0)
(9.7896 0.0528634 0)
(9.75499 0.0599759 0)
(9.71994 0.0660784 0)
(9.68485 0.071386 0)
(9.65016 0.0760956 0)
(9.61639 0.0803661 0)
(9.58385 0.0843053 0)
(9.55267 0.0879813 0)
(9.52293 0.0914364 0)
(9.49463 0.0946938 0)
(9.46776 0.0977621 0)
(9.44233 0.100623 0)
(9.41806 0.103314 0)
(9.396 0.105553 0)
(9.28437 0.0159229 0)
(9.27065 0.0462108 0)
(9.24579 0.0712044 0)
(9.20981 0.0904358 0)
(9.16898 0.105264 0)
(9.12727 0.116892 0)
(9.08578 0.126002 0)
(9.0449 0.133135 0)
(9.00519 0.138804 0)
(8.96713 0.143414 0)
(8.93098 0.147243 0)
(8.89683 0.150482 0)
(8.86469 0.153269 0)
(8.83451 0.155704 0)
(8.80623 0.157858 0)
(8.77981 0.159781 0)
(8.75477 0.16152 0)
(8.73311 0.162931 0)
(8.47101 0.0260943 0)
(8.45236 0.0738201 0)
(8.4197 0.110367 0)
(8.37626 0.13691 0)
(8.32997 0.156566 0)
(8.28455 0.171185 0)
(8.24071 0.181798 0)
(8.19878 0.189364 0)
(8.15922 0.194742 0)
(8.12233 0.19856 0)
(8.08817 0.201243 0)
(8.05664 0.203098 0)
(8.02764 0.204355 0)
(8.00103 0.205186 0)
(7.97662 0.205715 0)
(7.95433 0.206039 0)
(7.93363 0.206218 0)
(7.91655 0.206209 0)
(7.51239 0.0385269 0)
(7.4866 0.104514 0)
(7.44645 0.150245 0)
(7.39954 0.181381 0)
(7.35395 0.203366 0)
(7.31182 0.218499 0)
(7.27316 0.228307 0)
(7.23804 0.234329 0)
(7.20657 0.237778 0)
(7.17864 0.239456 0)
(7.15398 0.239902 0)
(7.13229 0.239509 0)
(7.11329 0.238561 0)
(7.0967 0.237261 0)
(7.08224 0.235752 0)
(7.06972 0.23414 0)
(7.05863 0.232483 0)
(7.05071 0.230803 0)
(6.48931 0.0542279 0)
(6.45655 0.136911 0)
(6.41295 0.186964 0)
(6.37063 0.218573 0)
(6.33488 0.239415 0)
(6.30526 0.252068 0)
(6.28104 0.258775 0)
(6.26182 0.261616 0)
(6.24701 0.261979 0)
(6.23593 0.260719 0)
(6.22798 0.258416 0)
(6.22264 0.255483 0)
(6.21948 0.252204 0)
(6.2181 0.248771 0)
(6.2182 0.245312 0)
(6.21953 0.241917 0)
(6.22166 0.238631 0)
(6.22599 0.235511 0)
(5.45712 0.0733919 0)
(5.41829 0.166497 0)
(5.37868 0.214128 0)
(5.35276 0.241957 0)
(5.33863 0.25835 0)
(5.33246 0.26611 0)
(5.3327 0.268288 0)
(5.33807 0.267215 0)
(5.34721 0.264204 0)
(5.35903 0.26004 0)
(5.37274 0.255256 0)
(5.38778 0.250204 0)
(5.40369 0.245111 0)
(5.42014 0.240114 0)
(5.43686 0.2353 0)
(5.45369 0.230721 0)
(5.4703 0.2264 0)
(5.48783 0.2224 0)
(4.45282 0.0947789 0)
(4.41206 0.187416 0)
(4.39048 0.225942 0)
(4.3966 0.246406 0)
(4.41648 0.255932 0)
(4.44334 0.257838 0)
(4.47526 0.255592 0)
(4.51034 0.251208 0)
(4.5469 0.245667 0)
(4.58387 0.239565 0)
(4.62065 0.233298 0)
(4.6568 0.227109 0)
(4.69206 0.221138 0)
(4.72623 0.21546 0)
(4.75923 0.210115 0)
(4.79102 0.205118 0)
(4.82143 0.200469 0)
(4.85142 0.196234 0)
(3.50293 0.114453 0)
(3.47301 0.192924 0)
(3.48913 0.217654 0)
(3.54119 0.228895 0)
(3.6026 0.231472 0)
(3.66649 0.22884 0)
(3.73178 0.223837 0)
(3.79674 0.21773 0)
(3.85998 0.211122 0)
(3.92085 0.20441 0)
(3.9791 0.197851 0)
(4.03459 0.191583 0)
(4.08731 0.185677 0)
(4.13731 0.180161 0)
(4.18468 0.175038 0)
(4.22955 0.170299 0)
(4.27194 0.165931 0)
(4.31267 0.162006 0)
(2.62982 0.122983 0)
(2.63207 0.176391 0)
(2.70178 0.187974 0)
(2.8047 0.191091 0)
(2.90734 0.189119 0)
(3.00605 0.184603 0)
(3.10161 0.17893 0)
(3.19306 0.172748 0)
(3.27954 0.166456 0)
(3.36093 0.160309 0)
(3.43737 0.154453 0)
(3.50908 0.14896 0)
(3.5763 0.143858 0)
(3.63932 0.139144 0)
(3.69843 0.134805 0)
(3.75393 0.130817 0)
(3.80598 0.127158 0)
(3.85535 0.123923 0)
(1.85178 0.104826 0)
(1.90638 0.13444 0)
(2.03033 0.141901 0)
(2.17814 0.140518 0)
(2.31587 0.137043 0)
(2.44343 0.132928 0)
(2.56368 0.12811 0)
(2.6765 0.122999 0)
(2.78158 0.117953 0)
(2.87919 0.113127 0)
(2.96987 0.108594 0)
(3.05414 0.104388 0)
(3.1325 0.100516 0)
(3.20546 0.0969633 0)
(3.27345 0.0937102 0)
(3.33694 0.090733 0)
(3.39622 0.0879964 0)
(3.45205 0.0856073 0)
(1.17533 0.0416901 0)
(1.28238 0.0661066 0)
(1.43869 0.0889886 0)
(1.61659 0.0891796 0)
(1.78035 0.0862335 0)
(1.92917 0.0833354 0)
(2.06744 0.0798386 0)
(2.19586 0.076123 0)
(2.31434 0.0725339 0)
(2.42347 0.0691558 0)
(2.52411 0.0660139 0)
(2.61704 0.0631239 0)
(2.70298 0.0604823 0)
(2.78259 0.0580728 0)
(2.85646 0.0558752 0)
(2.92515 0.0538725 0)
(2.98907 0.0520028 0)
(3.04894 0.0503655 0)
(0.469484 0.226529 0)
(0.642365 0.0691634 0)
(0.788941 0.0480266 0)
(0.97246 0.0444115 0)
(1.14913 0.0429736 0)
(1.30917 0.0416811 0)
(1.45689 0.0396485 0)
(1.59327 0.0373335 0)
(1.71811 0.0351156 0)
(1.83217 0.0330679 0)
(1.93662 0.0311859 0)
(2.03248 0.0294676 0)
(2.12063 0.0279065 0)
(2.20185 0.0264897 0)
(2.27684 0.0252013 0)
(2.34625 0.0240341 0)
(2.41058 0.022935 0)
(2.47014 0.0219829 0)
(0.00936324 -0.0197309 -2.68932e-20)
(0.0288858 -0.0313092 2.62261e-20)
(0.048479 -0.0312965 0)
(0.0643169 -0.0254485 0)
(0.0740732 -0.0169086 0)
(0.0777246 -0.00766753 -2.46466e-20)
(0.074951 0.000734558 0)
(0.0673543 0.00718872 0)
(0.0561369 0.0114745 0)
(0.0421665 0.0140628 0)
(0.0260548 0.0156692 2.41727e-20)
(0.00807708 0.0169091 0)
(-0.0117224 0.0182136 0)
(-0.0334904 0.0198305 0)
(-0.0574724 0.0218513 0)
(-0.0838674 0.0242587 2.26612e-20)
(-0.112841 0.0269813 0)
(-0.144499 0.0299271 0)
(-0.178875 0.0329943 0)
(-0.215929 0.0360758 0)
(-0.255547 0.0390641 0)
(-0.29755 0.0418582 0)
(-0.3417 0.0443701 0)
(-0.387715 0.0465297 1.9298e-20)
(-0.435281 0.0482883 -1.89212e-20)
(-0.484064 0.0496195 1.85609e-20)
(-0.533731 0.050519 1.82181e-20)
(-0.583963 0.0510038 0)
(-0.63447 0.0511129 0)
(-0.684966 0.0509049 -1.72967e-20)
(-0.735174 0.0504451 -1.70226e-20)
(-0.784993 0.0497913 0)
(-0.834245 0.0489646 0)
(-0.882801 0.0479945 -1.62895e-20)
(-0.930551 0.0469103 0)
(-0.97741 0.045739 0)
(-1.02331 0.0445046 1.56681e-20)
(-1.0682 0.0432276 0)
(-1.11205 0.0419246 1.53014e-20)
(-1.15483 0.040609 3.02585e-20)
(-1.19652 0.039291 0)
(-1.23712 0.0379782 0)
(-1.27661 0.0366758 0)
(-1.315 0.0353873 0)
(-1.35229 0.0341146 0)
(-1.38847 0.0328587 2.84045e-20)
(-1.42356 0.0316196 2.81181e-20)
(-1.45754 0.030397 2.78351e-20)
(-1.49042 0.0291901 0)
(-1.52221 0.0279977 -2.72756e-20)
(-1.55288 0.0268188 0)
(-1.58246 0.0256524 2.67193e-20)
(-1.61092 0.0244973 2.64405e-20)
(-1.63826 0.0233528 0)
(-1.66449 0.0222179 0)
(-1.68959 0.021092 0)
(-1.71355 0.0199745 2.53063e-20)
(-1.73636 0.0188649 0)
(-1.75803 0.0177626 0)
(-1.77854 0.0166673 0)
(-1.79788 0.0155783 0)
(-1.81605 0.0144948 0)
(-1.83303 0.0134157 0)
(-1.84882 0.0123395 0)
(-1.8634 0.0112642 0)
(-1.87677 0.0101872 -2.25112e-20)
(-1.88892 0.00910509 0)
(-1.89983 0.00801386 0)
(-1.90949 0.00690859 2.1472e-20)
(-1.91786 0.00578431 2.11119e-20)
(-1.92492 0.00463807 0)
(-1.93065 0.00347457 -2.03709e-20)
(-1.935 0.00231502 1.99902e-20)
(-1.9379 0.00120008 0)
(-1.93931 0.00017926 -1.92053e-20)
(-1.93948 -0.000702944 0)
(-1.93855 -0.00148793 0)
(-1.93652 -0.00222992 1.79601e-20)
(-1.93341 -0.002947 0)
(-1.92924 -0.00364683 -1.70885e-20)
(-1.92402 -0.00433235 0)
(-1.91775 -0.00500476 1.61836e-20)
(-1.91044 -0.00566448 1.57188e-20)
(-1.90209 -0.00631158 1.52459e-20)
(-1.89271 -0.00694601 2.953e-20)
(-1.88231 -0.00756769 -2.85523e-20)
(-1.87089 -0.00817649 0)
(-1.85847 -0.00877233 0)
(-1.84504 -0.00935512 0)
(-1.83063 -0.00992478 -2.44881e-20)
(-1.81523 -0.0104813 -2.34353e-20)
(-1.79886 -0.0110245 2.23685e-20)
(-1.78153 -0.0115546 0)
(-1.76325 -0.0120713 -2.01944e-20)
(-1.74403 -0.0125749 -1.9088e-20)
(-1.72388 -0.0130651 -1.79693e-20)
(-1.70281 -0.0135421 0)
(-1.68084 -0.0140058 0)
(-1.65798 -0.0144562 0)
(-1.63424 -0.0148933 -1.33819e-20)
(-1.60963 -0.0153172 0)
(-1.58417 -0.0157277 0)
(-1.55788 -0.016125 9.83831e-21)
(-1.53076 -0.016509 0)
(-1.50284 -0.0168797 0)
(-1.47412 -0.0172369 6.22467e-21)
(-1.44463 -0.0175808 0)
(-1.41438 -0.0179112 0)
(-1.38338 -0.0182281 -2.55898e-21)
(-1.35166 -0.0185313 -1.32885e-21)
(-1.31924 -0.0188209 0)
(-1.28612 -0.0190968 -1.13928e-21)
(-1.25233 -0.0193588 0)
(-1.21789 -0.0196069 3.61268e-21)
(-1.18282 -0.019841 0)
(-1.14714 -0.0200609 6.08493e-21)
(-1.11088 -0.0202666 7.31856e-21)
(-1.07404 -0.0204581 0)
(-1.03666 -0.0206351 0)
(-0.998753 -0.0207977 0)
(-0.960349 -0.0209457 0)
(-0.92147 -0.0210791 0)
(-0.882139 -0.0211978 0)
(-0.842382 -0.0213019 0)
(-0.802224 -0.0213911 1.70154e-20)
(-0.761691 -0.0214656 -1.8193e-20)
(-0.720808 -0.0215253 0)
(-0.679602 -0.0215703 0)
(-0.6381 -0.0216006 0)
(-0.596329 -0.0216162 0)
(-0.554317 -0.0216171 -4.78131e-20)
(-0.51209 -0.0216034 0)
(-0.469678 -0.0215752 5.21904e-20)
(-0.427108 -0.0215324 -5.43313e-20)
(-0.384408 -0.0214752 0)
(-0.341609 -0.0214034 0)
(-0.298738 -0.0213169 0)
(-0.255826 -0.0212154 6.25435e-20)
(-0.212905 -0.0210983 6.45021e-20)
(-0.170007 -0.0209639 0)
(-0.127164 -0.0208082 6.82977e-20)
(-0.0844102 -0.0206295 7.0133e-20)
(-0.0417751 -0.0204238 -7.1926e-20)
(0.000708629 -0.0201594 0)
(0.0429532 -0.0198083 0)
(0.0849719 -0.0194261 -7.51591e-20)
(0.126745 -0.0190498 0)
(0.168258 -0.0186827 0)
(0.209503 -0.018322 0)
(0.250472 -0.0179654 0)
(0.291155 -0.0176116 7.79703e-20)
(0.331542 -0.0172602 7.83886e-20)
(0.371621 -0.0169108 0)
(0.41138 -0.0165636 7.90969e-20)
(0.450811 -0.0162189 0)
(0.489901 -0.0158769 0)
(0.528644 -0.0155381 7.98656e-20)
(0.567031 -0.0152028 0)
(0.605055 -0.0148715 8.02016e-20)
(0.642712 -0.0145446 0)
(0.679997 -0.0142223 0)
(0.716907 -0.0139048 8.0471e-20)
(0.753439 -0.0135924 0)
(0.78959 -0.0132848 8.05099e-20)
(0.82536 -0.0129818 0)
(0.860742 -0.0126828 0)
(0.895733 -0.0123866 0)
(0.930321 -0.0120914 -8.0295e-20)
(0.964491 -0.0117945 0)
(0.998214 -0.0114914 8.00623e-20)
(1.03145 -0.0111755 0)
(1.06412 -0.0108362 0)
(1.09611 -0.0104561 0)
(1.12723 -0.010006 0)
(1.15718 -0.00942816 0)
(1.18523 -0.00861521 0)
(1.21067 -0.00724483 0)
(1.22885 -0.00453409 -1.58219e-19)
(1.24257 0.00263636 0)
(1.1963 0.0177674 0)
(0.0100466 -0.0608647 7.92219e-20)
(0.0219406 -0.0636625 -7.4728e-20)
(0.0254612 -0.0472031 0)
(0.0238532 -0.0285029 4.44331e-20)
(0.0180827 -0.0102831 0)
(0.00878637 0.00644676 2.1034e-20)
(-0.00334678 0.02095 -4.12279e-20)
(-0.0185733 0.03286 -4.04231e-20)
(-0.0369313 0.0423841 0)
(-0.0584434 0.0501255 -3.88732e-20)
(-0.0830886 0.0568057 -1.90876e-20)
(-0.110806 0.0630424 0)
(-0.141499 0.0692496 0)
(-0.175046 0.0756411 0)
(-0.211308 0.082264 0)
(-0.250118 0.0890372 -1.72012e-20)
(-0.291278 0.0958071 0)
(-0.334541 0.102389 3.28288e-20)
(-0.379622 0.108593 0)
(-0.426202 0.114246 0)
(-0.473938 0.119201 -3.0731e-20)
(-0.522483 0.123344 0)
(-0.571495 0.126602 2.94507e-20)
(-0.620654 0.128944 -1.44689e-20)
(-0.669668 0.130373 1.41838e-20)
(-0.718284 0.13093 -1.39143e-20)
(-0.76629 0.13068 -1.36602e-20)
(-0.813517 0.129708 0)
(-0.859836 0.128116 0)
(-0.905152 0.126016 1.29863e-20)
(-0.949391 0.123523 -1.27185e-20)
(-0.992504 0.120728 0)
(-1.03445 0.117699 0)
(-1.07523 0.114499 1.22583e-20)
(-1.11483 0.111181 0)
(-1.15327 0.107791 0)
(-1.19057 0.104366 -1.18047e-20)
(-1.22675 0.100936 0)
(-1.26182 0.097523 1.14611e-20)
(-1.29583 0.0941444 -2.28106e-20)
(-1.32878 0.0908113 0)
(-1.36069 0.087531 0)
(-1.39159 0.0843074 -4.40229e-20)
(-1.42149 0.0811419 -4.35613e-20)
(-1.4504 0.0780338 -4.31081e-20)
(-1.47833 0.0749813 2.12606e-20)
(-1.50529 0.0719815 -2.11793e-20)
(-1.53129 0.0690311 -6.27423e-20)
(-1.55632 0.0661268 4.13483e-20)
(-1.58038 0.063265 2.05218e-20)
(-1.60348 0.0604425 0)
(-1.62562 0.0576561 -2.00843e-20)
(-1.64679 0.0549034 1.97486e-20)
(-1.66699 0.052182 0)
(-1.68621 0.04949 0)
(-1.70445 0.046826 0)
(-1.7217 0.0441888 -1.89661e-20)
(-1.73795 0.0415776 0)
(-1.75321 0.0389918 3.6921e-20)
(-1.76746 0.036431 0)
(-1.7807 0.0338951 3.59772e-20)
(-1.79292 0.0313839 0)
(-1.80412 0.0288971 -3.5003e-20)
(-1.81429 0.0264344 0)
(-1.82344 0.0239954 3.3995e-20)
(-1.83155 0.0215791 -1.67231e-20)
(-1.83862 0.0191843 0)
(-1.84467 0.0168096 -3.24141e-20)
(-1.84969 0.0144533 -1.59378e-20)
(-1.8537 0.0121133 -1.56557e-20)
(-1.85672 0.00978742 0)
(-1.85878 0.00747663 -1.50922e-20)
(-1.85993 0.00519404 -1.47794e-20)
(-1.86025 0.00297421 0)
(-1.85983 0.000862164 1.41645e-20)
(-1.85851 -0.00112181 -2.77385e-20)
(-1.85618 -0.00300777 0)
(-1.85284 -0.00482991 -1.31997e-20)
(-1.84847 -0.0066031 0)
(-1.84307 -0.00833509 3.76641e-20)
(-1.83664 -0.010029 0)
(-1.82918 -0.0116861 -3.56086e-20)
(-1.82069 -0.0133065 -1.1487e-20)
(-1.81119 -0.0148902 1.12331e-20)
(-1.80067 -0.0164368 2.17554e-20)
(-1.78915 -0.0179459 -2.10345e-20)
(-1.77663 -0.0194174 0)
(-1.76311 -0.0208508 0)
(-1.74861 -0.0222459 0)
(-1.73313 -0.0236026 5.3576e-20)
(-1.71668 -0.0249209 1.69793e-20)
(-1.69927 -0.0262006 -1.61896e-20)
(-1.68092 -0.0274417 0)
(-1.66163 -0.0286442 -1.49329e-20)
(-1.64141 -0.0298084 1.37734e-20)
(-1.62027 -0.0309341 1.29533e-20)
(-1.59823 -0.0320215 0)
(-1.5753 -0.0330708 0)
(-1.55149 -0.034082 0)
(-1.52681 -0.0350552 9.60927e-21)
(-1.50127 -0.0359907 0)
(-1.4749 -0.0368885 -1.62443e-20)
(-1.4477 -0.0377488 -2.15804e-20)
(-1.41968 -0.0385718 1.28181e-20)
(-1.39087 -0.0393575 0)
(-1.36128 -0.0401062 4.91692e-21)
(-1.33092 -0.0408178 0)
(-1.29982 -0.0414926 5.88471e-21)
(-1.26798 -0.0421304 -2.31701e-21)
(-1.23542 -0.0427315 -1.44668e-21)
(-1.20217 -0.0432959 0)
(-1.16823 -0.0438237 1.91579e-21)
(-1.13364 -0.0443149 -2.85542e-21)
(-1.0984 -0.0447696 -2.56341e-21)
(-1.06254 -0.0451879 0)
(-1.02608 -0.0455697 -4.31136e-21)
(-0.989046 -0.0459153 -1.50093e-20)
(-0.951448 -0.0462247 0)
(-0.913315 -0.0464979 -1.32838e-20)
(-0.874667 -0.0467353 -1.50008e-20)
(-0.835529 -0.0469367 -1.67089e-20)
(-0.795925 -0.0471026 0)
(-0.755878 -0.047233 0)
(-0.715413 -0.0473283 0)
(-0.674555 -0.0473886 1.14409e-20)
(-0.633331 -0.0474144 1.28146e-20)
(-0.591765 -0.047406 0)
(-0.549885 -0.0473638 2.83294e-20)
(-0.507717 -0.0472882 2.99292e-20)
(-0.465288 -0.0471796 0)
(-0.422625 -0.0470387 3.36152e-20)
(-0.379755 -0.0468657 6.92332e-20)
(-0.336708 -0.0466614 -3.66741e-20)
(-0.293509 -0.0464261 -3.71078e-20)
(-0.250189 -0.0461602 0)
(-0.206774 -0.0458641 0)
(-0.163294 -0.0455378 0)
(-0.119778 -0.0451809 -4.39238e-20)
(-0.0762564 -0.0447922 4.42845e-20)
(-0.0327581 -0.0443706 9.22954e-20)
(0.010686 -0.0439141 -4.781e-20)
(0.0540443 -0.0434222 4.77489e-20)
(0.0972892 -0.0429001 4.95307e-20)
(0.140394 -0.0423484 0)
(0.183331 -0.0417544 0)
(0.226093 -0.0411286 -5.0942e-20)
(0.268656 -0.0404931 0)
(0.310998 -0.0398562 0)
(0.353103 -0.039219 1.06884e-19)
(0.394955 -0.0385806 0)
(0.43654 -0.0379403 5.42594e-20)
(0.477846 -0.0372979 -5.55764e-20)
(0.518859 -0.0366537 0)
(0.559568 -0.0360083 5.58602e-20)
(0.599963 -0.0353628 0)
(0.640032 -0.0347179 0)
(0.679769 -0.0340749 -5.78452e-20)
(0.719164 -0.0334348 1.158e-19)
(0.758213 -0.0327987 -5.85598e-20)
(0.79691 -0.0321676 0)
(0.835251 -0.0315424 0)
(0.873233 -0.0309236 5.88876e-20)
(0.910854 -0.0303118 0)
(0.948111 -0.0297068 5.93955e-20)
(0.985004 -0.0291081 0)
(1.02153 -0.0285145 0)
(1.05768 -0.0279233 0)
(1.09345 -0.0273305 6.06131e-20)
(1.12881 -0.0267296 0)
(1.16375 -0.0261107 -6.08474e-20)
(1.19823 -0.0254581 0)
(1.23216 -0.0247472 0)
(1.26544 -0.0239373 1.21797e-19)
(1.2979 -0.0229603 -1.21944e-19)
(1.32924 -0.0216857 0)
(1.35889 -0.0198708 0)
(1.38624 -0.0168776 0)
(1.40857 -0.0115207 3.69491e-19)
(1.42852 0.000844302 0)
(1.43086 0.025758 -2.49944e-19)
(0.00294382 -0.080885 -1.06362e-22)
(0.000611941 -0.0616987 9.59085e-20)
(-0.00840575 -0.03361 0)
(-0.0200988 -0.00763641 -8.01864e-20)
(-0.0343434 0.015983 0)
(-0.0508435 0.0373041 0)
(-0.0695214 0.0564017 3.87526e-23)
(-0.090483 0.0733314 3.41702e-20)
(-0.113901 0.08827 3.33405e-20)
(-0.139922 0.101583 3.26445e-20)
(-0.168597 0.113732 0)
(-0.199864 0.125145 0)
(-0.233559 0.136114 -3.04886e-20)
(-0.269444 0.146764 -5.96e-20)
(-0.307227 0.157071 5.82412e-20)
(-0.34659 0.16691 0)
(-0.387203 0.176096 5.55944e-20)
(-0.42873 0.18443 -2.71825e-20)
(-0.470851 0.191728 0)
(-0.513263 0.197839 5.18631e-20)
(-0.555697 0.202661 2.53595e-20)
(-0.597921 0.206143 -4.95766e-20)
(-0.639744 0.208286 -2.42536e-20)
(-0.681017 0.209138 0)
(-0.721633 0.208784 4.64917e-20)
(-0.761518 0.20734 4.55577e-20)
(-0.800628 0.20494 0)
(-0.838942 0.201729 4.3827e-20)
(-0.876456 0.197854 0)
(-0.913171 0.193457 4.2268e-20)
(-0.949093 0.188667 2.07818e-20)
(-0.984229 0.183593 0)
(-1.01859 0.178326 0)
(-1.05218 0.172942 0)
(-1.08502 0.167501 0)
(-1.11711 0.162052 0)
(-1.14847 0.156632 0)
(-1.1791 0.151269 3.73645e-20)
(-1.20901 0.14598 -5.53268e-20)
(-1.23819 0.140779 0)
(-1.26666 0.135672 0)
(-1.2944 0.130661 0)
(-1.32142 0.125745 7.98398e-23)
(-1.3477 0.120922 3.46597e-20)
(-1.37324 0.116186 6.8393e-20)
(-1.39804 0.111533 -6.75636e-20)
(-1.42207 0.106957 -3.3332e-20)
(-1.44534 0.102451 3.30122e-20)
(-1.46783 0.0980103 -8.19325e-23)
(-1.48953 0.0936289 3.21366e-20)
(-1.51043 0.0893024 0)
(-1.53052 0.0850264 3.13545e-20)
(-1.54977 0.0807974 -7.41551e-23)
(-1.56819 0.0766127 0)
(-1.58576 0.0724699 0)
(-1.60246 0.0683674 -2.97964e-20)
(-1.61829 0.0643041 0)
(-1.63322 0.0602794 0)
(-1.64726 0.056293 2.856e-20)
(-1.66039 0.0523452 5.64257e-20)
(-1.67259 0.0484363 -2.78533e-20)
(-1.68387 0.0445671 0)
(-1.69421 0.0407383 2.70241e-20)
(-1.70361 0.0369511 0)
(-1.71205 0.0332065 2.61269e-20)
(-1.71954 0.029506 2.5744e-20)
(-1.72608 0.0258513 -5.05852e-20)
(-1.73166 0.0222448 -2.48463e-20)
(-1.73629 0.01869 0)
(-1.73998 0.0151922 4.79249e-20)
(-1.74273 0.0117591 0)
(-1.74455 0.00840138 6.91259e-20)
(-1.74546 0.00513229 4.51583e-20)
(-1.74545 0.00196294 4.41975e-20)
(-1.74451 -0.00110861 -4.322e-20)
(-1.74259 -0.00410748 6.33123e-20)
(-1.73969 -0.00704726 0)
(-1.73579 -0.0099282 0)
(-1.73089 -0.0127509 -3.9194e-20)
(-1.72499 -0.0155155 -5.7173e-20)
(-1.7181 -0.0182218 0)
(-1.71021 -0.0208693 1.79479e-20)
(-1.70133 -0.0234574 0)
(-1.69146 -0.0259853 -5.07187e-20)
(-1.68061 -0.0284523 1.74045e-22)
(-1.66878 -0.0308578 -1.84794e-22)
(-1.65598 -0.0332012 3.05174e-20)
(-1.64222 -0.035482 0)
(-1.6275 -0.0376997 -2.82246e-20)
(-1.61182 -0.0398542 2.26206e-22)
(-1.59521 -0.0419453 0)
(-1.57767 -0.0439729 0)
(-1.5592 -0.045937 0)
(-1.53982 -0.0478376 2.20379e-20)
(-1.51954 -0.0496749 0)
(-1.49837 -0.0514491 0)
(-1.47631 -0.0531602 0)
(-1.45339 -0.0548085 0)
(-1.42961 -0.0563942 0)
(-1.40498 -0.0579175 1.48995e-20)
(-1.37952 -0.0593787 0)
(-1.35325 -0.060778 1.20468e-20)
(-1.32616 -0.0621158 1.0771e-20)
(-1.29829 -0.0633921 -9.49116e-21)
(-1.26964 -0.0646075 0)
(-1.24023 -0.065762 -6.922e-21)
(-1.21007 -0.0668559 0)
(-1.17918 -0.0678893 -4.34444e-21)
(-1.14757 -0.0688625 3.05417e-21)
(-1.11527 -0.0697755 6.05033e-21)
(-1.08229 -0.0706286 0)
(-1.04864 -0.0714219 -1.66582e-21)
(-1.01435 -0.0721557 -1.31521e-21)
(-0.979441 -0.0728302 0)
(-0.943921 -0.0734454 -8.52958e-21)
(-0.907816 -0.0740015 -1.10757e-20)
(-0.871145 -0.0744987 2.08254e-20)
(-0.833931 -0.0749374 0)
(-0.796195 -0.0753178 9.73811e-21)
(-0.757958 -0.0756401 1.09908e-20)
(-0.719244 -0.0759047 3.58788e-20)
(-0.680076 -0.076112 0)
(-0.640478 -0.0762625 0)
(-0.600473 -0.0763566 0)
(-0.560087 -0.0763949 1.62914e-20)
(-0.519344 -0.076378 0)
(-0.478271 -0.0763066 0)
(-0.436892 -0.0761814 -2.06806e-20)
(-0.395234 -0.0760033 -2.18405e-20)
(-0.353323 -0.0757731 0)
(-0.311186 -0.0754916 0)
(-0.268851 -0.0751599 -5.0475e-20)
(-0.226343 -0.0747788 0)
(-0.18369 -0.0743492 5.48555e-20)
(-0.14092 -0.073872 5.61938e-20)
(-0.0980596 -0.0733476 0)
(-0.0551375 -0.0727765 0)
(-0.0121812 -0.0721592 -6.23958e-20)
(0.0307813 -0.0714958 -7.72053e-22)
(0.0737218 -0.0707859 -7.58769e-22)
(0.116613 -0.0700294 0)
(0.159427 -0.0692279 -1.37945e-19)
(0.202139 -0.0683864 0)
(0.244732 -0.0675131 0)
(0.287195 -0.0666121 0)
(0.32951 -0.0656856 7.46285e-20)
(0.371654 -0.0647416 0)
(0.4136 -0.0637864 -1.52811e-19)
(0.455327 -0.0628228 -7.82017e-20)
(0.496816 -0.0618518 0)
(0.53805 -0.0608737 -8.03628e-20)
(0.579014 -0.0598896 0)
(0.619696 -0.0589004 0)
(0.660084 -0.0579075 -2.48728e-19)
(0.700165 -0.0569126 1.67256e-19)
(0.739932 -0.0559173 0)
(0.779375 -0.0549237 1.70639e-19)
(0.818486 -0.0539334 -8.66119e-20)
(0.857261 -0.0529482 0)
(0.895694 -0.0519697 0)
(0.933782 -0.0509995 0)
(0.971522 -0.0500386 -2.67125e-19)
(1.00891 -0.0490876 0)
(1.04595 -0.0481466 -9.04994e-20)
(1.08264 -0.0472146 0)
(1.11896 -0.0462897 0)
(1.15493 -0.0453678 0)
(1.19053 -0.0444424 0)
(1.22575 -0.0435035 0)
(1.26055 -0.0425351 0)
(1.2949 -0.0415126 -1.86454e-19)
(1.32874 -0.0403975 0)
(1.36197 -0.0391275 -9.42299e-20)
(1.39442 -0.0375986 2.83003e-19)
(1.42584 -0.0356236 0)
(1.4558 -0.0328614 0)
(1.48385 -0.0285671 -1.90708e-19)
(1.50837 -0.0214228 -1.92426e-19)
(1.53145 -0.00769202 1.93845e-19)
(1.54596 0.0185633 1.96526e-19)
(-0.00618907 -0.0683237 -1.54399e-19)
(-0.0191313 -0.035637 -1.38035e-19)
(-0.0360235 -0.00245434 -8.08256e-20)
(-0.0543909 0.0271527 -3.65336e-20)
(-0.0743319 0.0541079 0)
(-0.0956593 0.0788459 6.48402e-20)
(-0.118431 0.101544 -3.11845e-20)
(-0.142801 0.122309 0)
(-0.168915 0.141288 -2.95143e-20)
(-0.196862 0.158699 0)
(-0.226636 0.174796 5.61745e-20)
(-0.258131 0.189799 0)
(-0.291153 0.203837 2.67855e-20)
(-0.325445 0.216936 5.2287e-20)
(-0.36072 0.229027 -5.10265e-20)
(-0.396682 0.239985 0)
(-0.433048 0.24966 -4.85859e-20)
(-0.46956 0.25791 0)
(-0.505998 0.264627 0)
(-0.542182 0.26975 -4.51699e-20)
(-0.577974 0.273265 0)
(-0.613278 0.275211 -6.34761e-23)
(-0.648034 0.275671 0)
(-0.682213 0.27476 0)
(-0.715809 0.272619 6.75865e-23)
(-0.748833 0.269406 -3.94149e-20)
(-0.781304 0.26528 -3.86649e-20)
(-0.813248 0.260401 -3.78303e-20)
(-0.844687 0.25492 0)
(-0.875642 0.248974 -7.28449e-20)
(-0.906125 0.242685 0)
(-0.936145 0.236156 -3.51392e-20)
(-0.965707 0.229473 0)
(-0.99481 0.222705 0)
(-1.02345 0.215909 3.34009e-20)
(-1.05162 0.209125 0)
(-1.07932 0.202388 -3.23661e-20)
(-1.10653 0.195718 -3.69414e-24)
(-1.13323 0.189132 6.28339e-20)
(-1.15941 0.182638 -6.19242e-20)
(-1.18507 0.176241 0)
(-1.21017 0.16994 0)
(-1.2347 0.163735 -2.96732e-20)
(-1.25865 0.15762 0)
(-1.282 0.151591 -2.89332e-20)
(-1.30472 0.145642 2.85537e-20)
(-1.3268 0.139766 2.81811e-20)
(-1.34823 0.133957 0)
(-1.36898 0.12821 -2.74526e-20)
(-1.38903 0.12252 -2.70949e-20)
(-1.40837 0.116882 5.34246e-20)
(-1.42698 0.111292 -2.63888e-20)
(-1.44485 0.105748 -2.60388e-20)
(-1.46195 0.100247 0)
(-1.47827 0.0947882 0)
(-1.49379 0.0893704 2.49941e-20)
(-1.5085 0.0839934 0)
(-1.52238 0.0786579 0)