/*--------------------------------*- C++ -*----------------------------------*\
| =========                 |                                                 |
| \\      /  F ield         | OpenFOAM: The Open Source CFD Toolbox           |
|  \\    /   O peration     | Version:  2412                                  |
|   \\  /    A nd           | Website:  www.openfoam.com                      |
|    \\/     M anipulation  |                                                 |
\*---------------------------------------------------------------------------*/
FoamFile
{
    version     2.0;
    format      ascii;
    arch        "LSB;label=32;scalar=64";
    class       volScalarField;
    location    "10";
    object      p;
}
// * * * * * * * * * * * * * * * * * * * * * * * * * * * * * * * * * * * * * //

dimensions      [0 2 -2 0 0 0 0];

internalField   nonuniform List<scalar> 
2200
(
1.69716
1.69737
1.69923
1.70584
1.72234
1.75666
1.82059
1.93065
2.10731
2.37137
2.67218
2.92691
3.1023
3.21026
3.27465
3.31029
3.32734
3.33462
3.33718
3.33747
1.69218
1.6925
1.69463
1.70116
1.71735
1.75208
1.81675
1.92706
2.10352
2.36872
2.6708
2.92539
3.09952
3.21119
3.27621
3.30998
3.3264
3.33312
3.33517
3.33526
1.68225
1.68247
1.68479
1.69191
1.70859
1.74342
1.80846
1.9201
2.0979
2.36556
2.66892
2.92612
3.10442
3.21574
3.27948
3.31321
3.329
3.33508
3.33671
3.33678
1.66688
1.66699
1.66937
1.6764
1.694
1.73005
1.79598
1.90883
2.08876
2.36121
2.66971
2.93205
3.11185
3.22359
3.28747
3.32016
3.33513
3.34103
3.34298
3.34315
1.64552
1.64566
1.64838
1.65623
1.67334
1.70901
1.77663
1.89195
2.07588
2.35554
2.67162
2.93949
3.12224
3.23481
3.29868
3.33137
3.34674
3.35333
3.35564
3.3559
1.61308
1.61293
1.61517
1.62275
1.64182
1.67974
1.74833
1.867
2.05769
2.34719
2.6732
2.94943
3.13579
3.25006
3.31554
3.35039
3.36766
3.37497
3.3774
3.37764
1.57228
1.57228
1.57429
1.58048
1.59804
1.63728
1.71073
1.83464
2.03324
2.33525
2.67441
2.95905
3.15073
3.27068
3.34008
3.3773
3.39595
3.40442
3.40746
3.40757
1.52096
1.52125
1.52382
1.53044
1.54644
1.58309
1.65716
1.78774
1.99833
2.3168
2.67227
2.97007
3.17131
3.29758
3.37157
3.4122
3.43301
3.44274
3.44614
3.44607
1.45212
1.45258
1.45522
1.4627
1.48118
1.52049
1.59616
1.73082
1.95323
2.29101
2.66842
2.98404
3.19808
3.33395
3.41436
3.45859
3.48097
3.49049
3.49369
3.49362
1.36209
1.36243
1.36636
1.37574
1.39652
1.4389
1.52153
1.6655
1.90046
2.26005
2.66365
3.00263
3.23512
3.38189
3.46789
3.51433
3.53633
3.54529
3.54875
3.549
1.25077
1.25067
1.25381
1.26467
1.28932
1.33687
1.42537
1.58119
1.83798
2.22498
2.66188
3.03331
3.28681
3.4447
3.53552
3.58271
3.60447
3.6133
3.61723
3.61795
1.12263
1.12226
1.12729
1.14021
1.16689
1.22163
1.32138
1.49262
1.77055
2.18896
2.66617
3.07571
3.35502
3.52628
3.62298
3.67287
3.69588
3.70509
3.7091
3.71015
0.977076
0.976325
0.979499
0.9948
1.02716
1.08629
1.19837
1.39124
1.70092
2.1574
2.68211
3.13662
3.44434
3.63152
3.73676
3.79108
3.81584
3.82598
3.82991
3.83098
0.810008
0.810065
0.814686
0.829098
0.865215
0.936981
1.06228
1.27663
1.62254
2.12877
2.71079
3.21394
3.55312
3.75976
3.87599
3.93465
3.96193
3.97375
3.97755
3.97809
0.608491
0.607821
0.612697
0.628894
0.668865
0.751261
0.899778
1.14337
1.53229
2.10029
2.7522
3.30675
3.67731
3.90364
4.03046
4.09596
4.12767
4.14083
4.14364
4.14327
0.367861
0.367989
0.372551
0.387707
0.429628
0.518142
0.682484
0.9636
1.41429
2.06216
2.7945
3.40344
3.8078
4.0527
4.18893
4.26183
4.29829
4.31265
4.31546
4.31456
0.0716963
0.0725877
0.0801521
0.0979671
0.143233
0.241303
0.423596
0.738045
1.25511
1.99861
2.82461
3.49296
3.93092
4.19978
4.34962
4.42646
4.46526
4.48164
4.48573
4.485
-0.292184
-0.291717
-0.283463
-0.262471
-0.214728
-0.106735
0.101905
0.461214
1.05453
1.8998
2.8308
3.57452
4.05798
4.35046
4.51567
4.60028
4.63831
4.65526
4.66072
4.66064
-0.74861
-0.747662
-0.737661
-0.711027
-0.649073
-0.52462
-0.288898
0.125102
0.808267
1.76705
2.81719
3.65356
4.19274
4.51836
4.70035
4.79043
4.82791
4.8448
4.85139
4.85165
-1.28307
-1.28283
-1.27318
-1.24233
-1.16851
-1.01852
-0.740863
-0.263641
0.525306
1.61487
2.80361
3.74878
4.35301
4.71257
4.91142
5.00749
5.04404
5.05966
5.06623
5.06627
-1.92903
-1.92697
-1.91167
-1.87506
-1.79008
-1.60906
-1.27593
-0.700881
0.225802
1.46717
2.80757
3.87031
4.54378
4.9357
5.14439
5.2443
5.28492
5.29837
5.30443
5.30318
-2.69999
-2.69869
-2.68715
-2.64478
-2.53341
-2.31022
-1.89886
-1.18606
-0.0831716
1.34292
2.85347
4.02685
4.75239
5.16813
5.38491
5.48784
5.53137
5.54472
5.55069
5.54819
-3.67686
-3.6703
-3.64285
-3.57947
-3.43318
-3.13693
-2.60528
-1.71247
-0.39819
1.24596
2.94617
4.22271
4.98856
5.40611
5.61406
5.71667
5.76385
5.78155
5.7906
5.78806
-4.85129
-4.84404
-4.81307
-4.72205
-4.5155
-4.11195
-3.40707
-2.28572
-0.72036
1.17865
3.08911
4.46067
5.2501
5.65478
5.84188
5.93377
5.98059
6.00211
6.01615
6.01506
-6.41879
-6.38759
-6.30568
-6.12721
-5.78526
-5.21062
-4.29249
-2.8972
-1.04344
1.14669
3.28388
4.74855
5.54749
5.92939
6.09144
6.1607
6.19165
6.20564
6.21349
6.21877
-8.41426
-8.34065
-8.15584
-7.82435
-7.28688
-6.45608
-5.23869
-3.52362
-1.34896
1.16393
3.53552
5.0908
5.89771
6.25919
6.39573
6.43252
6.4384
6.43971
6.43794
6.45705
-10.8306
-10.6356
-10.2385
-9.65587
-8.84144
-7.72657
-6.19214
-4.13211
-1.60327
1.26605
3.90467
5.57057
6.40387
6.76087
6.88159
6.90374
6.89926
6.90156
6.90128
6.93062
-13.5253
-12.9902
-12.3105
-11.4833
-10.4012
-8.97874
-7.09465
-4.66662
-1.76098
1.48864
4.41823
6.22231
7.10745
7.47099
7.59926
7.65199
7.66223
7.68431
7.67534
7.69185
-16.0068
-15.2302
-14.3418
-13.2943
-11.9424
-10.1903
-7.922
-5.10342
-1.8089
1.81175
5.00244
6.92687
7.84653
8.22635
8.36298
8.41112
8.42969
8.44072
8.44105
8.46474
-17.9064
-17.0549
-16.1136
-14.9261
-13.3465
-11.2818
-8.63964
-5.43271
-1.75372
2.2102
5.65559
7.69405
8.63021
9.00989
9.14142
9.18596
9.20894
9.22415
9.2337
9.25089
-19.4984
-18.5018
-17.5663
-16.2715
-14.4894
-12.1752
-9.21769
-5.64803
-1.61663
2.65021
6.35453
8.49825
9.43113
9.80561
9.95015
9.99736
10.0239
10.0375
10.0435
10.0564
-20.6972
-19.6229
-18.7214
-17.3034
-15.3828
-12.8891
-9.6693
-5.77823
-1.44332
3.08884
7.04
9.28204
10.2167
10.6339
10.7752
10.8163
10.8403
10.8527
10.8623
10.8738
-21.5586
-20.4914
-19.5918
-18.06
-16.0635
-13.4433
-10.0116
-5.85514
-1.27071
3.49157
7.65649
9.98964
11.0109
11.4423
11.5875
11.6354
11.661
11.6752
11.6823
11.6882
-22.165
-21.1504
-20.2276
-18.6435
-16.5802
-13.8538
-10.2587
-5.90045
-1.12016
3.85679
8.18337
10.6516
11.7667
12.2078
12.3568
12.4135
12.4376
12.4494
12.455
12.4592
-22.5918
-21.6461
-20.6581
-19.0765
-16.9635
-14.1463
-10.4339
-5.9303
-0.993429
4.17096
8.6632
11.2684
12.4506
12.918
13.0835
13.1423
13.1723
13.1845
13.1885
13.1918
-22.9028
-21.9884
-20.9373
-19.3655
-17.2322
-14.3521
-10.5602
-5.9539
-0.887551
4.44771
9.10411
11.8246
13.0633
13.5679
13.7549
13.8227
13.8524
13.8686
13.8762
13.8766
-23.1068
-22.2023
-21.129
-19.5461
-17.4022
-14.491
-10.6478
-5.96631
-0.790296
4.69406
9.48936
12.3044
13.6023
14.1533
14.3693
14.4462
14.4828
14.496
14.4984
14.4996
-23.2165
-22.3371
-21.2361
-19.6357
-17.4818
-14.5659
-10.6937
-5.95743
-0.695831
4.90131
9.79918
12.697
14.0708
14.6847
14.9293
15.0132
15.0518
15.0718
15.0791
15.0792
-23.2825
-22.4263
-21.2913
-19.6615
-17.4901
-14.5755
-10.69
-5.92003
-0.607718
5.05314
10.0242
13.0081
14.4799
15.1545
15.4304
15.5288
15.5774
15.5998
15.607
15.6066
-23.3194
-22.4841
-21.3201
-19.65
-17.4516
-14.5316
-10.6421
-5.85993
-0.534952
5.1428
10.1731
13.263
14.8423
15.5752
15.8818
15.9926
16.0453
16.0711
16.0846
16.0803
-23.3536
-22.5197
-21.334
-19.629
-17.397
-14.4563
-10.5653
-5.78957
-0.481533
5.18275
10.2715
13.4861
15.1682
15.9521
16.2807
16.4039
16.4643
16.4955
16.5118
16.5006
-23.375
-22.5498
-21.3501
-19.6136
-17.3491
-14.3777
-10.4805
-5.72129
-0.442962
5.20058
10.3522
13.6877
15.4548
16.2851
16.6411
16.7761
16.8421
16.8634
16.8707
16.863
-23.3972
-22.5788
-21.3723
-19.6155
-17.3231
-14.3181
-10.41
-5.66614
-0.410778
5.22456
10.438
13.8659
15.6946
16.5733
16.9632
17.1131
17.1834
17.1983
17.177
17.1779
-23.4265
-22.6169
-21.4041
-19.6387
-17.3282
-14.2951
-10.3717
-5.63474
-0.383361
5.2669
10.5337
14.0133
15.881
16.8119
17.2487
17.429
17.5102
17.5371
17.4423
17.4797
-23.4675
-22.6626
-21.4472
-19.6868
-17.3724
-14.3252
-10.388
-5.64575
-0.374679
5.31611
10.6264
14.1227
16.0125
16.997
17.4896
17.7303
17.8424
17.8836
17.7378
17.7714
-23.5205
-22.719
-21.5056
-19.7638
-17.4638
-14.4239
-10.4841
-5.72767
-0.415333
5.33974
10.6929
14.1907
16.0917
17.1268
17.6784
17.996
18.1954
18.31
18.1469
17.9602
-23.579
-22.7857
-21.5828
-19.8694
-17.5991
-14.587
-10.6581
-5.88268
-0.517774
5.3126
10.7092
14.2104
16.1184
17.1952
17.8128
18.2191
18.5826
18.899
18.9082
18.6926
-23.6489
-22.8603
-21.6749
-19.9925
-17.7591
-14.7885
-10.881
-6.08817
-0.675512
5.21823
10.6499
14.1611
16.0715
17.184
17.8533
18.3067
18.6797
18.9635
18.8856
18.7345
-23.7248
-22.9495
-21.783
-20.1273
-17.9327
-15.0072
-11.1246
-6.31805
-0.870724
5.06355
10.5141
14.0354
15.9443
17.0767
17.7568
18.2096
18.5251
18.6538
18.5258
18.3761
-23.8073
-23.0559
-21.9085
-20.2788
-18.1251
-15.2437
-11.3861
-6.56874
-1.09941
4.85425
10.3077
13.833
15.7362
16.8657
17.524
17.9214
18.1312
18.1021
17.9465
17.8681
-23.8941
-23.1856
-22.0574
-20.4582
-18.345
-15.5017
-11.6657
-6.83993
-1.35803
4.59933
10.0427
13.5557
15.4537
16.5447
17.1322
17.4269
17.5636
17.5102
17.3274
17.2773
-23.981
-23.3311
-22.2258
-20.6652
-18.5904
-15.7773
-11.9585
-7.12718
-1.64144
4.30695
9.73127
13.2185
15.0974
16.1196
16.6288
16.8493
16.8845
16.7791
16.5539
16.5555
-24.0623
-23.4687
-22.3883
-20.8685
-18.8271
-16.0364
-12.2331
-7.40577
-1.92955
3.99475
9.38996
12.8392
14.6738
15.6051
16.0284
16.171
16.1048
15.9028
15.6745
15.694
-24.1217
-23.5645
-22.5077
-21.0223
-19.0059
-16.2311
-12.4462
-7.63927
-2.19212
3.68844
9.03935
12.4359
14.1986
15.0254
15.35
15.4072
15.2285
14.8752
14.5132
14.4501
-24.1569
-23.6083
-22.5644
-21.1015
-19.0998
-16.338
-12.5778
-7.80898
-2.41158
3.40502
8.69411
12.0208
13.6885
14.4068
14.6251
14.5772
14.2678
13.5752
12.6665
12.5047
-24.1602
-23.6046
-22.5619
-21.1065
-19.1114
-16.3618
-12.633
-7.91613
-2.58467
3.15174
8.36112
11.5997
13.1586
13.774
13.877
13.7009
13.2599
12.2546
10.5025
8.96458
-24.1399
-23.5658
-22.509
-21.0506
-19.058
-16.3228
-12.6304
-7.97216
-2.71416
2.93385
8.04701
11.1819
12.6321
13.1588
13.1552
12.8397
12.2351
11.2837
8.698
1.82287
-24.0903
-23.5016
-22.4231
-20.956
-18.9652
-16.2466
-12.5924
-7.9911
-2.8058
2.75075
7.74616
10.7618
12.1104
12.5627
12.4943
12.0756
11.4051
10.7117
10.3791
7.85463
-24.0114
-23.416
-22.3189
-20.844
-18.8578
-16.1605
-12.5477
-8.00141
-2.88529
2.57777
7.43814
10.3328
11.5965
12.0073
11.9493
11.5866
11.0996
10.9339
11.6209
11.0234
-23.903
-23.3123
-22.2053
-20.7326
-18.7565
-16.083
-12.5143
-8.02454
-2.97548
2.39374
7.11674
9.90923
11.1257
11.5407
11.5747
11.3904
11.1085
10.9983
11.3609
10.9805
-23.7676
-23.1907
-22.0846
-20.6225
-18.6646
-16.0205
-12.4993
-8.07122
-3.09092
2.18523
6.78399
9.50536
10.7277
11.1873
11.3581
11.3461
11.1794
10.9694
11.0528
11.0028
-23.604
-23.0457
-21.9513
-20.5116
-18.5804
-15.9723
-12.5048
-8.14466
-3.23728
1.94879
6.44998
9.14276
10.407
10.9472
11.2372
11.348
11.2734
11.057
11.1364
11.167
-23.4083
-22.8717
-21.7949
-20.3843
-18.4878
-15.9256
-12.5221
-8.23845
-3.40975
1.69249
6.12951
8.83275
10.1589
10.801
11.1689
11.3684
11.4189
11.2622
11.339
11.3703
-23.1713
-22.6584
-21.6068
-20.2319
-18.3753
-15.8667
-12.5377
-8.33944
-3.59416
1.43341
5.83612
8.57636
9.9789
10.7225
11.1417
11.4099
11.5999
11.5408
11.588
11.6076
-22.8837
-22.3939
-21.3684
-20.0355
-18.2281
-15.7839
-12.5388
-8.43196
-3.77217
1.18888
5.57652
8.36867
9.85241
10.6824
11.1743
11.4897
11.8192
11.87
11.9246
11.941
-22.5329
-22.0706
-21.0778
-19.7903
-18.0383
-15.6683
-12.5153
-8.5037
-3.92899
0.969992
5.34902
8.20015
9.76453
10.6712
11.2475
11.6489
12.0287
12.248
12.3348
12.3449
-22.1035
-21.6687
-20.7118
-19.4801
-17.7953
-15.5105
-12.4585
-8.54728
-4.0597
0.777313
5.14709
8.05699
9.69516
10.6799
11.3505
11.851
12.2837
12.5974
12.7218
12.7263
-21.5935
-21.1881
-20.2769
-19.1017
-17.4902
-15.3015
-12.3616
-8.56203
-4.1699
0.601052
4.9569
7.91932
9.62844
10.7015
11.4621
12.0392
12.5123
12.8615
13.0019
13.0069
-20.9586
-20.6046
-19.7474
-18.6463
-17.1244
-15.0431
-12.2259
-8.55256
-4.27108
0.425362
4.75855
7.76677
9.54602
10.7045
11.5371
12.1598
12.6445
13.0083
13.1641
13.1801
-20.2418
-19.903
-19.1288
-18.1184
-16.6985
-14.7415
-12.0638
-8.53039
-4.37364
0.234537
4.53269
7.57551
9.41641
10.6465
11.5371
12.1924
12.6996
13.0965
13.2795
13.3095
-19.3721
-19.1297
-18.4341
-17.5182
-16.2211
-14.4088
-11.8859
-8.50779
-4.48897
0.0148679
4.26109
7.32383
9.21217
10.5042
11.4595
12.1732
12.7317
13.1744
13.3948
13.4382
-18.4046
-18.2156
-17.6537
-16.8716
-15.7145
-14.0562
-11.7007
-8.49196
-4.62493
-0.245575
3.92534
6.98692
8.91404
10.2755
11.3162
12.0993
12.7
13.1659
13.4228
13.4823
-17.3927
-17.2729
-16.8273
-16.1799
-15.1817
-13.6983
-11.5257
-8.49676
-4.79258
-0.558489
3.50874
6.54113
8.50101
9.92694
11.0278
11.8428
12.4575
12.9346
13.2282
13.3114
-16.4778
-16.3909
-16.0576
-15.5206
-14.6614
-13.3518
-11.3658
-8.52263
-4.99624
-0.933896
2.99621
5.96206
7.91358
9.34546
10.4421
11.2519
11.8712
12.3647
12.6921
12.8002
-15.6881
-15.5846
-15.3264
-14.9215
-14.2439
-13.1016
-11.2587
-8.58204
-5.24186
-1.38054
2.36739
5.19945
7.0682
8.43888
9.48881
10.2802
10.8955
11.3908
11.7451
11.8847
-14.8244
-14.7166
-14.6763
-14.5054
-13.9847
-12.9199
-11.1728
-8.66117
-5.52458
-1.9009
1.61245
4.24028
5.9807
7.2453
8.21362
8.94644
9.50351
9.93662
10.2537
10.4046
-14.5035
-14.3953
-14.6659
-14.5989
-14.0001
-12.8514
-11.1098
-8.71589
-5.77428
-2.40585
0.873258
3.31565
4.92833
6.08575
6.96494
7.59347
8.03903
8.35901
8.57729
8.68309
-15.9717
-16.0536
-16.0784
-15.486
-14.3647
-12.8883
-11.0233
-8.68792
-5.92074
-2.80385
0.223624
2.47913
3.95658
5.01927
5.81572
6.35153
6.70511
6.94064
7.08679
7.14696
-17.167
-17.3894
-17.2818
-16.1909
-14.4935
-12.7171
-10.7832
-8.52424
-5.94176
-3.09453
-0.370851
1.64306
2.94503
3.88164
4.57149
5.00916
5.27952
5.45217
5.55482
5.59335
-15.3922
-15.6199
-15.5109
-14.7509
-13.4507
-11.947
-10.1925
-8.12317
-5.78036
-3.24226
-0.839434
0.908015
2.01878
2.82077
3.39904
3.75034
3.95986
4.0934
4.17437
4.20646
-11.2765
-11.3705
-11.4412
-11.3701
-10.9887
-10.2443
-9.03019
-7.37277
-5.39201
-3.2238
-1.14425
0.31677
1.23676
1.90907
2.38466
2.66574
2.83377
2.94721
3.01725
3.04056
-7.72104
-7.75687
-7.84724
-7.92022
-7.93133
-7.76567
-7.2072
-6.17571
-4.73228
-3.01388
-1.29516
-0.133136
0.613608
1.1668
1.56066
1.791
1.93649
2.0419
2.10879
2.13557
-4.87354
-4.91765
-5.01522
-5.13543
-5.29284
-5.34465
-5.17661
-4.68537
-3.80279
-2.60126
-1.3207
-0.433476
0.16662
0.611297
0.951631
1.14873
1.27855
1.38573
1.4421
1.46304
-2.86993
-2.90832
-2.99653
-3.13021
-3.26226
-3.37283
-3.40426
-3.23639
-2.78532
-2.06158
-1.21468
-0.557308
-0.0856435
0.262611
0.553533
0.717756
0.83282
0.918299
0.971183
0.990377
-1.58818
-1.61692
-1.68559
-1.79033
-1.89735
-1.98033
-2.06042
-2.05038
-1.87614
-1.50121
-0.987021
-0.522355
-0.167555
0.101632
0.321487
0.455136
0.545216
0.606718
0.643942
0.656797
-0.698925
-0.730974
-0.807927
-0.911935
-1.02067
-1.10259
-1.16428
-1.1943
-1.15243
-0.988747
-0.696059
-0.388158
-0.137761
0.0564074
0.20836
0.30399
0.365573
0.403751
0.424645
0.430756
-0.157647
-0.181962
-0.253965
-0.358798
-0.462282
-0.549151
-0.607234
-0.640391
-0.633915
-0.566076
-0.409217
-0.221651
-0.0632004
0.0627013
0.16065
0.218939
0.253156
0.270856
0.278904
0.280628
0.149869
0.133108
0.071359
-0.028998
-0.129813
-0.217235
-0.287568
-0.323352
-0.315334
-0.272921
-0.182576
-0.074785
0.0126548
0.0843817
0.140621
0.167743
0.178766
0.180261
0.178899
0.177809
0.307943
0.296236
0.246263
0.158132
0.060102
-0.0337402
-0.117691
-0.163689
-0.155497
-0.11642
-0.0506602
0.0193062
0.0658573
0.0999519
0.123758
0.127552
0.12315
0.115467
0.108791
0.10605
0.3833
0.375018
0.337015
0.265357
0.174731
0.0783284
-0.0184949
-0.0797194
-0.0850799
-0.0551229
-0.00267445
0.0524183
0.0798532
0.090962
0.0931561
0.0848263
0.0749879
0.0652053
0.0568193
0.0532318
0.418026
0.412406
0.385434
0.332395
0.255949
0.163296
0.0590814
-0.0171618
-0.0479768
-0.0372511
-0.000603936
0.0423559
0.0574937
0.0560456
0.0494631
0.0382015
0.0288748
0.020574
0.0128
0.00927042
0.42397
0.420604
0.403003
0.368399
0.31354
0.237256
0.13655
0.0491741
-0.00879749
-0.0277422
-0.0152368
0.0112073
0.0152008
0.0078511
0.00082015
-0.00883655
-0.0156632
-0.0219055
-0.0274953
-0.0298074
0.403505
0.401617
0.39115
0.371321
0.339954
0.290733
0.21201
0.125273
0.0466225
-0.00600559
-0.0273255
-0.0227175
-0.0284588
-0.0387361
-0.0433677
-0.0508285
-0.054945
-0.0574652
-0.0598393
-0.0610709
0.36592
0.364745
0.359171
0.348763
0.333176
0.308227
0.259827
0.19171
0.110509
0.0326024
-0.0230395
-0.0420626
-0.056204
-0.0678497
-0.0719832
-0.0787633
-0.0827966
-0.0848915
-0.0863988
-0.0875642
0.323239
0.322554
0.320072
0.313602
0.304104
0.289418
0.260925
0.218765
0.156427
0.0772101
0.00247124
-0.0349856
-0.0571751
-0.0723389
-0.0798041
-0.0897484
-0.0969913
-0.10243
-0.106436
-0.108545
0.282311
0.281362
0.27988
0.273785
0.263922
0.24899
0.225806
0.20106
0.163576
0.105285
0.0379203
-0.00427209
-0.0331027
-0.0567888
-0.0714937
-0.087882
-0.101339
-0.111974
-0.120239
-0.123241
0.244285
0.243306
0.241409
0.233689
0.221216
0.202211
0.17643
0.157255
0.135304
0.102664
0.0598634
0.0259545
-0.00524211
-0.0371332
-0.0597871
-0.0811233
-0.0991669
-0.114368
-0.125835
-0.12886
0.20716
0.205706
0.202808
0.193813
0.179893
0.159904
0.132772
0.111974
0.0938032
0.0784188
0.0591538
0.0359567
0.00803396
-0.0250193
-0.0501421
-0.0742842
-0.0934373
-0.109374
-0.121784
-0.124256
0.168205
0.166833
0.163358
0.154399
0.142545
0.125342
0.100772
0.0806741
0.0599256
0.0484785
0.0399899
0.0259621
0.0067937
-0.0219188
-0.042777
-0.066227
-0.0835186
-0.095631
-0.107832
-0.109679
0.124771
0.123606
0.120971
0.115069
0.108635
0.0980094
0.0808607
0.0647251
0.0407998
0.0246404
0.0150655
0.00432483
-0.00379839
-0.0247473
-0.0368101
-0.054064
-0.0681327
-0.0750739
-0.0847872
-0.084774
0.0770128
0.0765294
0.075292
0.0722448
0.0720392
0.0686158
0.0594169
0.0499985
0.0270889
0.0102176
-0.00168201
-0.0141737
-0.0136623
-0.027125
-0.0283309
-0.0366329
-0.042836
-0.04426
-0.0506171
-0.0502159
0.0310116
0.032109
0.0311567
0.0271675
0.028625
0.0242111
0.020308
0.0220615
0.00931757
0.00325222
-0.00209174
-0.0141299
-0.00965439
-0.0160239
-0.0132815
-0.0127437
-0.0118586
-0.00983893
-0.0160331
-0.0162033
12.327
15.1269
15.6967
16.5214
17.1295
17.644
18.0763
18.4117
18.6176
18.4457
15.1361
16.4288
16.7226
17.2213
17.6211
17.9443
18.1916
18.3495
18.3724
18.2557
16.482
17.0965
17.3449
17.6408
17.8871
18.0818
18.22
18.2956
18.2975
18.2757
17.211
17.5687
17.7341
17.9118
18.0558
18.1669
18.241
18.2821
18.2902
18.305
17.6743
17.8598
17.9606
18.0707
18.1589
18.2286
18.275
18.3046
18.3166
18.3467
17.9235
18.0589
18.1095
18.1938
18.2421
18.2885
18.3225
18.3486
18.3666
18.3928
18.1111
18.1976
18.2297
18.2821
18.3192
18.3517
18.3787
18.4021
18.4184
18.4451
18.2486
18.305
18.3313
18.3639
18.3933
18.4187
18.4403
18.4611
18.4786
18.5012
18.363
18.4009
18.4231
18.4437
18.4656
18.4859
18.5049
18.5236
18.5382
18.559
18.4647
18.4902
18.5079
18.524
18.5403
18.5564
18.5712
18.5866
18.599
18.6184
18.5583
18.5754
18.5908
18.6039
18.6174
18.6305
18.6426
18.6549
18.6635
18.6801
18.6467
18.6603
18.675
18.6875
18.6988
18.7093
18.7188
18.7276
18.7314
18.7427
18.7384
18.7497
18.7638
18.7736
18.7817
18.7891
18.7962
18.8023
18.8033
18.8104
18.839
18.8436
18.8515
18.8559
18.8592
18.8635
18.8692
18.8766
18.8808
18.8907
18.9524
18.9389
18.931
18.9249
18.9222
18.9235
18.9296
18.942
18.957
18.9867
19.0725
19.0167
18.9863
18.9694
18.9611
18.9609
18.9701
18.9896
19.0206
19.0899
)
;

boundaryField
{
    wall-4
    {
        type            zeroGradient;
    }
    pressure-outlet-7
    {
        type            fixedValue;
        value           uniform 0;
    }
    velocity-inlet-6
    {
        type            zeroGradient;
    }
    velocity-inlet-5
    {
        type            zeroGradient;
    }
    frontAndBackPlanes
    {
        type            empty;
    }
}


// ************************************************************************* //
