/*--------------------------------*- C++ -*----------------------------------*\
| =========                 |                                                 |
| \\      /  F ield         | OpenFOAM: The Open Source CFD Toolbox           |
|  \\    /   O peration     | Version:  2412                                  |
|   \\  /    A nd           | Website:  www.openfoam.com                      |
|    \\/     M anipulation  |                                                 |
\*---------------------------------------------------------------------------*/
FoamFile
{
    version     2.0;
    format      ascii;
    arch        "LSB;label=32;scalar=64";
    class       surfaceScalarField;
    location    "10";
    object      phi;
}
// * * * * * * * * * * * * * * * * * * * * * * * * * * * * * * * * * * * * * //

dimensions      [0 3 -1 0 0 0 0];

oriented        oriented;

internalField   nonuniform List<scalar> 
4262
(
-0.00217424
0.222687
-0.00476308
0.831242
-0.00748471
1.76986
-0.0108423
3.16852
-0.0144656
5.18823
-0.0179757
8.01787
-0.0211275
11.8503
-0.0238375
16.8224
-0.0266819
22.8847
-0.0265871
29.5283
-0.0265187
29.5283
-0.0252074
22.8805
-0.0234436
16.818
-0.0191125
11.8428
-0.0145721
8.00982
-0.0111497
5.18118
-0.00807939
3.1621
-0.00546841
1.76453
-0.00282085
0.826006
0.217692
-0.00507264
0.22776
-0.0121465
0.838316
-0.0204303
1.77815
-0.0293199
3.17741
-0.0399925
5.1989
-0.0510709
8.02895
-0.0623805
11.8616
-0.0742368
16.8343
-0.0872137
22.8976
-0.0870444
29.5281
-0.0827079
29.5239
-0.0722872
22.8701
-0.0594773
16.8052
-0.0493622
11.8327
-0.0405807
8.00104
-0.0308756
5.17148
-0.0220234
3.15324
-0.0143325
1.75684
-0.00601507
0.817688
0.211677
-0.00764222
0.235402
-0.0188782
0.849552
-0.0328914
1.79216
-0.0491684
3.19369
-0.0669942
5.21673
-0.0847099
8.04667
-0.102787
11.8797
-0.118207
16.8497
-0.135855
22.9153
-0.13656
29.5288
-0.130545
29.5179
-0.119623
22.8592
-0.106118
16.7917
-0.0865112
11.8131
-0.065852
7.98038
-0.0499794
5.1556
-0.0347887
3.13805
-0.0198554
1.74191
-0.00730137
0.805134
0.204375
-0.0109635
0.246365
-0.0276233
0.866212
-0.0475765
1.81211
-0.0702505
3.21636
-0.0930513
5.23953
-0.116759
8.07038
-0.143004
11.9059
-0.16555
16.8723
-0.191473
22.9412
-0.191451
29.5288
-0.184169
29.5107
-0.165409
22.8404
-0.136761
16.763
-0.113829
11.7902
-0.0907398
7.95729
-0.0667913
5.13165
-0.0447054
3.11597
-0.025419
1.72262
-0.00909581
0.788811
0.19528
-0.0145575
0.260923
-0.0357187
0.887373
-0.0599578
1.83635
-0.0877746
3.24418
-0.11989
5.27164
-0.150383
8.10087
-0.180818
11.9364
-0.20842
16.8999
-0.239876
22.9727
-0.241444
29.5303
-0.231211
29.5004
-0.209617
22.8188
-0.181816
16.7352
-0.14687
11.7552
-0.110909
7.92133
-0.0811173
5.10186
-0.0546321
3.08948
-0.0308489
1.69884
-0.0105274
0.768489
0.184752
-0.0163526
0.277275
-0.0432054
0.914225
-0.0748812
1.86803
-0.108632
3.27793
-0.146079
5.30909
-0.184731
8.13952
-0.222021
11.9737
-0.258082
16.9359
-0.295836
23.0104
-0.29645
29.531
-0.284709
29.4887
-0.254521
22.7886
-0.211941
16.6926
-0.171054
11.7143
-0.134427
7.88471
-0.0983201
5.06576
-0.0649156
3.05608
-0.0354123
1.66933
-0.0119449
0.745022
0.172807
-0.0200081
0.297283
-0.0501716
0.944389
-0.0866442
1.9045
-0.130104
3.32139
-0.173667
5.35265
-0.217913
8.18377
-0.25973
12.0155
-0.302735
16.9789
-0.346272
23.054
-0.348299
29.533
-0.332535
29.4729
-0.29642
22.7525
-0.25555
16.6518
-0.205005
11.6638
-0.157098
7.8368
-0.114909
5.02357
-0.0765221
3.01769
-0.0430871
1.6359
-0.0151851
0.71712
0.157622
-0.0223003
0.319584
-0.0565866
0.978675
-0.0961037
1.94402
-0.14012
3.36541
-0.194014
5.40654
-0.252636
8.24239
-0.30501
12.0678
-0.35608
17.03
-0.404829
23.1027
-0.405602
29.5338
-0.386402
29.4537
-0.342786
22.7089
-0.287905
16.5969
-0.231973
11.6078
-0.182167
7.78699
-0.133145
4.97454
-0.0893488
2.97389
-0.050363
1.59691
-0.0179485
0.684705
0.139673
-0.0229463
0.34253
-0.062399
1.01813
-0.108898
1.99052
-0.162747
3.41926
-0.219267
5.46306
-0.282184
8.30531
-0.346952
12.1326
-0.406698
17.0898
-0.460876
23.1569
-0.461676
29.5346
-0.437444
29.4295
-0.388573
22.66
-0.334702
16.543
-0.272142
11.5453
-0.210571
7.72542
-0.15393
4.9179
-0.102891
2.92286
-0.0576338
1.55166
-0.02114
0.648212
0.118534
-0.0248412
0.367371
-0.0683332
1.06162
-0.120449
2.04263
-0.178447
3.47726
-0.244852
5.52947
-0.316921
8.37738
-0.388054
12.2037
-0.460932
17.1626
-0.524074
23.22
-0.524778
29.5353
-0.496933
29.4016
-0.443023
22.6061
-0.374257
16.4742
-0.303772
11.4748
-0.235581
7.65723
-0.170389
4.85271
-0.112715
2.86518
-0.0643525
1.50329
-0.0249179
0.608777
0.0936156
-0.0279895
0.395361
-0.0779221
1.11155
-0.138855
2.10357
-0.204225
3.54263
-0.274204
5.59945
-0.352756
8.45593
-0.437826
12.2888
-0.516125
17.2409
-0.585476
23.2894
-0.587415
29.5372
-0.557981
29.3722
-0.498269
22.5464
-0.425024
16.401
-0.342809
11.3926
-0.258925
7.57335
-0.184614
4.7784
-0.11982
2.80039
-0.0657353
1.44921
-0.0255822
0.568624
0.0680335
-0.0341044
0.429465
-0.0903272
1.16778
-0.155598
2.16884
-0.233022
3.62005
-0.31701
5.68344
-0.402939
8.54186
-0.488823
12.3747
-0.581941
17.334
-0.657888
23.3653
-0.661327
29.5406
-0.629638
29.3405
-0.560014
22.4768
-0.468437
16.3094
-0.372949
11.2971
-0.282541
7.48294
-0.197241
4.6931
-0.1226
2.72575
-0.0609347
1.38754
-0.0234489
0.531138
0.0445846
-0.0432437
0.472709
-0.112349
1.23688
-0.184551
2.24104
-0.262529
3.69803
-0.3506
5.77151
-0.448089
8.63935
-0.548104
12.4747
-0.647258
17.4332
-0.727774
23.4458
-0.736104
29.549
-0.704544
29.309
-0.62565
22.3979
-0.523939
16.2077
-0.413749
11.1869
-0.307794
7.37698
-0.211812
4.59712
-0.125535
2.63947
-0.0550924
1.3171
-0.0208072
0.496853
0.0237774
-0.0492736
0.521982
-0.124514
1.31212
-0.209652
2.32618
-0.30419
3.79257
-0.404223
5.87154
-0.510945
8.74607
-0.618335
12.5821
-0.732358
17.5472
-0.817161
23.5306
-0.826708
29.5585
-0.789946
29.2722
-0.696603
22.3045
-0.57583
16.0869
-0.452424
11.0635
-0.336314
7.26087
-0.226091
4.4869
-0.130237
2.54362
-0.0549655
1.24183
-0.0197652
0.461652
0.00401213
-0.0587819
0.580764
-0.150347
1.40369
-0.235298
2.41113
-0.332592
3.88986
-0.445546
5.98449
-0.56418
8.8647
-0.686186
12.7041
-0.812951
17.674
-0.906728
23.6244
-0.921479
29.5733
-0.879416
29.2301
-0.77462
22.1997
-0.64329
15.9556
-0.502276
10.9225
-0.368548
7.12715
-0.249323
4.36767
-0.144827
2.43912
-0.0627311
1.15973
-0.021667
0.420588
-0.0176549
-0.0617217
0.642486
-0.159356
1.50132
-0.266767
2.51854
-0.384793
4.00789
-0.509556
6.10926
-0.644545
8.99969
-0.782506
12.8421
-0.923175
17.8147
-1.02135
23.7226
-1.03567
29.5876
-0.979083
29.1735
-0.855636
22.0763
-0.707425
15.8074
-0.557151
10.7722
-0.414788
6.98478
-0.283172
4.23606
-0.167752
2.3237
-0.0775136
1.0695
-0.026712
0.369787
-0.0443669
-0.0740708
0.716557
-0.183138
1.61039
-0.292489
2.62789
-0.417356
4.13275
-0.560279
6.25218
-0.710669
9.15008
-0.868665
13.0001
-1.03605
17.982
-1.1425
23.829
-1.15584
29.6009
-1.0892
29.1069
-0.951531
21.9386
-0.787722
15.6436
-0.619316
10.6038
-0.45675
6.82222
-0.314137
4.09344
-0.193553
2.20312
-0.0961185
0.972061
-0.0348728
0.308541
-0.0792397
-0.0766428
0.7932
-0.191451
1.7252
-0.319174
2.75561
-0.469299
4.28288
-0.631305
6.41419
-0.805528
9.3243
-0.98624
13.1808
-1.17592
18.1717
-1.29029
23.9434
-1.29969
29.6103
-1.21448
29.0217
-1.05718
21.7813
-0.871615
15.458
-0.682844
10.415
-0.502788
6.64216
-0.342727
3.93338
-0.210433
2.07082
-0.107124
0.868752
-0.0406635
0.242081
-0.119903
-0.0844473
0.877647
-0.212726
1.85347
-0.35553
2.89842
-0.519087
4.44643
-0.705194
6.60029
-0.904479
9.52359
-1.10891
13.3852
-1.32794
18.3908
-1.44582
24.0613
-1.45286
29.6174
-1.35529
28.9241
-1.17411
21.6002
-0.959651
15.2436
-0.744874
10.2003
-0.541957
6.43924
-0.362967
3.75439
-0.215606
1.92346
-0.113902
0.767048
-0.0444724
0.172651
-0.164376
-0.102519
0.980165
-0.251383
2.00234
-0.415507
3.06254
-0.602912
4.63384
-0.806487
6.80387
-1.02747
9.74457
-1.2652
13.6229
-1.51332
18.6389
-1.63302
24.181
-1.63543
29.6198
-1.51829
28.807
-1.30917
21.391
-1.06507
14.9995
-0.818196
9.95338
-0.583991
6.20504
-0.379322
3.54972
-0.215734
1.75987
-0.115241
0.666555
-0.0458869
0.103297
-0.210262
-0.109312
1.08948
-0.265818
2.15885
-0.449466
3.24619
-0.668018
4.85239
-0.912207
7.04806
-1.17362
10.006
-1.448
13.8973
-1.71754
18.9084
-1.83475
24.2982
-1.83381
29.6188
-1.69726
28.6704
-1.45174
21.1455
-1.17072
14.7184
-0.894308
9.67697
-0.633712
5.94444
-0.407037
3.32305
-0.219564
1.5724
-0.121306
0.568297
-0.0481675
0.0301589
-0.25843
-0.144125
1.2336
-0.341224
2.35594
-0.555417
3.46038
-0.799182
5.09616
-1.06395
7.31283
-1.36188
10.3039
-1.68277
14.2182
-1.96888
19.1945
-2.07842
24.4077
-2.06889
29.6093
-1.90323
28.5048
-1.61599
20.8583
-1.29333
14.3958
-0.974522
9.35817
-0.689177
5.6591
-0.439961
3.07383
-0.238704
1.37114
-0.139356
0.468948
-0.0554082
-0.0537889
-0.313838
-0.148264
1.38187
-0.351233
2.55891
-0.599514
3.70866
-0.892427
5.38907
-1.22636
7.64676
-1.59063
10.6682
-1.96199
14.5896
-2.25292
19.4854
-2.35053
24.5053
-2.32647
29.5852
-2.1133
28.2916
-1.77523
20.5202
-1.40621
14.0268
-1.0565
9.00846
-0.744368
5.34696
-0.475784
2.80525
-0.266941
1.1623
-0.165789
0.367796
-0.0713245
-0.148253
-0.385163
-0.21575
1.59762
-0.490932
2.83409
-0.788612
4.00634
-1.12457
5.72502
-1.50158
8.02378
-1.90532
11.0719
-2.31056
14.9948
-2.59217
19.7671
-2.67189
24.5851
-2.62673
29.5401
-2.35045
28.0153
-1.94106
20.1108
-1.50926
13.595
-1.10788
8.60708
-0.766216
5.00529
-0.495898
2.53493
-0.308664
0.975065
-0.214102
0.273234
-0.0922581
-0.270097
-0.477421
-0.241688
1.8393
-0.510154
3.10256
-0.878789
4.37498
-1.32948
6.17571
-1.80768
8.50198
-2.27907
11.5433
-2.72637
15.4421
-2.98778
20.0285
-3.04888
24.6462
-2.96046
29.4517
-2.58893
27.6438
-2.08872
19.6106
-1.59502
13.1013
-1.14998
8.16204
-0.775791
4.6311
-0.490721
2.24986
-0.327604
0.811948
-0.232104
0.177735
-0.104459
-0.397743
-0.581879
-0.395618
2.23492
-0.86792
3.57486
-1.34631
4.85337
-1.8214
6.6508
-2.29579
8.97637
-2.77506
12.0226
-3.22445
15.8915
-3.44066
20.2447
-3.47217
24.6777
-3.30523
29.2847
-2.83337
27.172
-2.25133
19.0286
-1.67492
12.5248
-1.15103
7.63816
-0.718534
4.19861
-0.410757
1.94208
-0.248382
0.649574
-0.154499
0.0838517
-0.0722119
-0.48003
-0.654091
-0.309643
2.54457
-0.69167
3.95689
-1.08026
5.24196
-1.53513
7.10567
-2.06063
9.50187
-2.64029
12.6022
-3.17882
16.43
-3.50205
20.5679
-3.71777
24.8934
-3.71287
29.2798
-3.28736
26.7464
-2.64663
18.3878
-1.94768
11.8259
-1.28963
6.9801
-0.731811
3.64078
-0.316261
1.52653
-0.121101
0.454414
-0.0421601
0.00491083
-0.039514
-0.482676
-0.693605
-0.180117
2.72468
-0.454501
4.23127
-0.779908
5.56737
-1.13258
7.45835
-1.50832
9.8776
-1.90911
13.003
-2.28972
16.8106
-2.52165
20.7998
-2.67624
25.048
-2.61328
29.2169
-2.22474
26.3579
-1.68524
17.8483
-1.1642
11.3049
-0.69836
6.51426
-0.340959
3.28338
-0.0946658
1.28024
0.0114562
0.348292
0.0521237
-0.0357568
0.0169712
-0.447524
-0.676634
-0.106561
2.83124
-0.25166
4.37637
-0.463388
5.7791
-0.72195
7.71691
-1.02783
10.1835
-1.33561
13.3108
-1.58992
17.0649
-1.75521
20.9651
-1.84917
25.142
-1.74236
29.11
-1.41336
26.0289
-1.00069
17.4357
-0.608425
10.9126
-0.313128
6.21897
-0.129727
3.09998
-0.0139854
1.1645
0.0389807
0.295326
0.0603292
-0.0571052
0.0308854
-0.41808
-0.645749
-0.0846719
2.91592
-0.228241
4.51994
-0.391385
5.94224
-0.566677
7.8922
-0.723878
10.3407
-0.903401
13.4903
-1.06791
17.2294
-1.18717
21.0844
-1.2217
25.1765
-1.09073
28.9791
-0.821626
25.7598
-0.520735
17.1348
-0.273668
10.6655
-0.0629797
6.00828
0.0815914
2.95541
0.125066
1.12102
0.130173
0.290219
0.09675
-0.023682
0.0347741
-0.356104
-0.610975
-0.0413403
2.95726
-0.0988042
4.57741
-0.199214
6.04265
-0.314186
8.00717
-0.445936
10.4724
-0.580207
13.6246
-0.688929
17.3382
-0.757556
21.153
-0.745578
25.1645
-0.612506
28.846
-0.389384
25.5367
-0.174945
16.9203
0.0333756
10.4572
0.163648
5.878
0.197806
2.92125
0.182034
1.13679
0.140696
0.331557
0.0944974
0.022517
0.0411838
-0.30279
-0.569791
0.00940184
2.94785
-0.0978127
4.68462
-0.203107
6.14795
-0.238826
8.04289
-0.283855
10.5175
-0.351607
13.6924
-0.413733
17.4003
-0.44297
21.1823
-0.399528
25.1211
-0.261864
28.7083
-0.0673877
25.3422
0.103326
16.7496
0.220826
10.3397
0.292556
5.80628
0.312909
2.9009
0.260624
1.18908
0.194149
0.398031
0.12534
0.0913264
0.0442842
-0.221734
-0.525507
0.0331266
2.91473
-0.0114109
4.72916
-0.0327049
6.16924
-0.0757448
8.08593
-0.137128
10.5789
-0.183844
13.7391
-0.217047
17.4335
-0.218869
21.1841
-0.154956
25.0572
0.00554574
28.5478
0.168217
25.1795
0.302953
16.6149
0.379752
10.2629
0.386206
5.79982
0.375636
2.91147
0.323393
1.24132
0.230529
0.490894
0.133495
0.18836
0.0442446
-0.132484
-0.481262
0.0155032
2.89922
-0.0285417
4.7732
-0.0497796
6.19048
-0.0517201
8.08787
-0.0574374
10.5846
-0.0626956
13.7443
-0.0714548
17.4422
-0.059043
21.1717
0.0120133
24.9861
0.137835
28.422
0.307766
25.0096
0.416435
16.5062
0.478744
10.2006
0.481113
5.79745
0.412188
2.9804
0.303385
1.35012
0.201131
0.593149
0.111498
0.277994
0.0347791
-0.0557654
-0.446483
0.0562105
2.84301
0.0668093
4.7626
0.0536511
6.20364
0.0241106
8.11741
0.0130968
10.5956
0.0201674
13.7373
0.0241505
17.4383
0.041914
21.1539
0.109291
24.9187
0.231181
28.3001
0.379406
24.8614
0.481026
16.4046
0.532174
10.1495
0.492651
5.83698
0.440496
3.03255
0.349994
1.44063
0.231544
0.711598
0.119603
0.389935
0.0280882
0.0357498
-0.418395
0.0552652
2.78775
0.0388571
4.77901
0.0404872
6.20201
0.027342
8.13056
0.0404248
10.5825
0.060613
13.7171
0.0744824
17.4244
0.105609
21.1228
0.172731
24.8516
0.286335
28.1865
0.419866
24.7278
0.509393
16.3151
0.543447
10.1154
0.512847
5.86758
0.415181
3.13022
0.304368
1.55144
0.200643
0.815323
0.102742
0.487836
0.0212404
0.117252
-0.397154
0.0672333
2.72052
0.0966191
4.74963
0.0934954
6.20513
0.0756849
8.14837
0.0694876
10.5887
0.0890668
13.6975
0.108752
17.4047
0.145028
21.0865
0.208975
24.7877
0.313908
28.0816
0.436535
24.6052
0.510672
16.2409
0.533035
10.093
0.491278
5.90933
0.433414
3.18808
0.325888
1.65896
0.193271
0.94794
0.0823172
0.59879
0.00936702
0.190202
-0.387787
0.0605583
2.65996
0.073029
4.73715
0.0754906
6.20267
0.0763978
8.14746
0.0836171
10.5815
0.107344
13.6738
0.131704
17.3804
0.168929
21.0493
0.227823
24.7288
0.323451
27.986
0.435945
24.4927
0.491293
16.1856
0.498497
10.0858
0.459019
5.94881
0.36756
3.27954
0.271628
1.7549
0.182037
1.03753
0.0839505
0.696877
0.010677
0.263476
-0.37711
0.0662365
2.59372
0.0978692
4.70552
0.105804
6.19473
0.106596
8.14667
0.102788
10.5853
0.120139
13.6564
0.14502
17.3555
0.181046
21.0132
0.235471
24.6743
0.320949
27.9005
0.414513
24.3992
0.452549
16.1475
0.452269
10.0861
0.421118
5.97996
0.374818
3.32584
0.268298
1.86142
0.13697
1.16886
0.0428745
0.790972
0.00200425
0.304346
-0.375106
0.0565476
2.53717
0.0713234
4.69075
0.0825852
6.18347
0.0966534
8.1326
0.109969
10.572
0.127115
13.6393
0.152714
17.3299
0.188188
20.9778
0.238256
24.6243
0.311228
27.8275
0.37864
24.3317
0.40372
16.1225
0.39725
10.0926
0.36027
6.01694
0.288697
3.39741
0.200379
1.94973
0.115661
1.25358
0.029568
0.877065
-0.00261089
0.336525
-0.377717
0.0579737
2.4792
0.0826893
4.66603
0.0943498
6.17181
0.106829
8.12012
0.116298
10.5625
0.131995
13.6236
0.15666
17.3052
0.191225
20.9432
0.237458
24.578
0.296079
27.7689
0.337306
24.2905
0.348419
16.1113
0.334928
10.1061
0.311122
6.04075
0.273121
3.43542
0.184573
2.03828
0.0666156
1.37154
-0.0199905
0.963671
-0.0149214
0.331456
-0.392638
0.0440531
2.43515
0.0569261
4.65316
0.0706314
6.15811
0.0878794
8.10287
0.109091
10.5413
0.132257
13.6004
0.158531
17.2789
0.193015
20.9087
0.235097
24.536
0.277644
27.7263
0.295617
24.2725
0.293114
16.1139
0.27451
10.1247
0.245651
6.06961
0.193039
3.48803
0.115163
2.11616
0.0307328
1.45597
-0.0423063
1.03671
-0.0267382
0.315888
-0.419377
0.0430379
2.39211
0.0613117
4.63488
0.0737912
6.14563
0.0871511
8.08951
0.10567
10.5228
0.131253
13.5748
0.158606
17.2516
0.192257
20.8751
0.229672
24.4985
0.256873
27.6991
0.255704
24.2737
0.239577
16.13
0.211276
10.153
0.188921
6.09196
0.15539
3.52156
0.0852071
2.18634
0.0151809
1.52599
-0.0300949
1.08199
-0.0271037
0.312897
-0.44648
0.0306168
2.36149
0.0402971
4.6252
0.0539808
6.13194
0.0706209
8.07287
0.0959717
10.4974
0.126527
13.5443
0.156855
17.2213
0.189977
20.8419
0.222095
24.4664
0.235981
27.6853
0.220276
24.2894
0.190814
16.1594
0.153662
10.1901
0.12249
6.12314
0.0801484
3.5639
0.033565
2.23292
-0.0140294
1.57359
-0.0193599
1.08732
0.0148396
0.278697
-0.431641
0.028972
2.33252
0.040969
4.61321
0.0550577
6.11785
0.0687987
8.05913
0.0912321
10.475
0.12189
13.5136
0.153574
17.1896
0.185312
20.8102
0.211935
24.4398
0.215442
27.6817
0.189407
24.3155
0.14667
16.2022
0.0952013
10.2416
0.0616599
6.15668
0.0174698
3.60809
-0.0233158
2.27371
-0.0285143
1.57878
0.00937335
1.04943
0.0824413
0.205629
-0.349199
0.0194464
2.31307
0.0277938
4.60486
0.0404062
6.10524
0.0564418
8.0431
0.0829288
10.4485
0.115719
13.4808
0.14939
17.1559
0.179651
20.78
0.20107
24.4184
0.198145
27.6847
0.164285
24.3493
0.107506
16.259
0.0441053
10.305
-0.00636027
6.20714
-0.0664389
3.66817
-0.108191
2.31546
-0.0727308
1.54332
0.1577
0.818998
0.304511
0.0588182
-0.0446883
0.0174649
2.29561
0.0283977
4.59393
0.0418115
6.09183
0.0568741
8.02804
0.0806464
10.4247
0.11283
13.4486
0.14788
17.1208
0.177351
20.7505
0.196435
24.3993
0.191887
27.6892
0.150322
24.3909
0.0773652
16.3319
-0.00784658
10.3902
-0.0722072
6.2715
-0.143684
3.73965
-0.216437
2.38822
-0.242051
1.56894
-0.253183
0.83013
-0.637542
0.443178
0.752773
-1.435
0.0104097
2.2852
0.0203723
4.58396
0.0312326
6.08097
0.0497245
8.00954
0.0756448
10.3988
0.108024
13.4163
0.143367
17.0855
0.171247
20.7226
0.18766
24.3829
0.180521
27.6964
0.131566
24.4398
0.0450452
16.4184
-0.0524493
10.4877
-0.154058
6.37311
-0.317741
3.90333
-0.517883
2.58836
-0.634919
1.68597
-0.899178
1.09439
-1.55057
1.09457
1.21373
-2.01152
0.00958546
2.27561
0.0218505
4.5717
0.0336413
6.06918
0.0530887
7.9901
0.0760246
10.3759
0.105518
13.3868
0.139713
17.0513
0.166203
20.6961
0.180432
24.3687
0.170494
27.7063
0.113866
24.4965
0.00999414
16.5223
-0.104799
10.6025
-0.244422
6.51273
-0.421006
4.07991
-0.613949
2.7813
-0.845543
1.91757
-1.35512
1.60396
-1.87069
1.61014
1.4424
-2.09937
0.00427488
2.27134
0.0166953
4.55928
0.0264425
6.05943
0.0488002
7.96774
0.074029
10.3506
0.102975
13.3578
0.136621
17.0177
0.162277
20.6705
0.174976
24.356
0.1623
27.719
0.0989966
24.5598
-0.0145029
16.6358
-0.152939
10.7409
-0.330393
6.69019
-0.62018
4.3697
-0.929355
3.09048
-1.27212
2.26034
-1.69639
2.02823
-1.97453
1.88828
1.57607
-2.1082
0.00613914
2.2652
0.0183281
4.54709
0.0303969
6.04736
0.0522894
7.94585
0.0759071
10.327
0.103215
13.3305
0.135536
16.9853
0.160269
20.6457
0.171551
24.3447
0.155753
27.7348
0.0864828
24.629
-0.0360227
16.7583
-0.199519
10.9044
-0.418897
6.90957
-0.693792
4.64459
-0.935973
3.33266
-1.32321
2.64758
-1.74309
2.44811
-1.98227
2.12745
1.72685
-2.13304
0.00550455
2.2597
0.0163267
4.53627
0.0283355
6.03535
0.0510864
7.92309
0.0783674
10.2997
0.108177
13.3007
0.140574
16.9529
0.164471
20.6218
0.174125
24.335
0.154017
27.7549
0.0771932
24.7059
-0.056451
16.892
-0.234129
11.0821
-0.470063
7.1455
-0.778255
4.95278
-1.1636
3.71801
-1.61174
3.09571
-1.92763
2.76401
-2.11421
2.31403
1.84003
-2.22739
0.0103685
2.24933
0.0222911
4.52434
0.0381647
6.01948
0.0601899
7.90107
0.0869423
10.273
0.11753
13.2701
0.149441
16.921
0.172197
20.5991
0.179725
24.3275
0.154146
27.7805
0.0688549
24.7912
-0.0755376
17.0363
-0.263282
11.2699
-0.528745
7.41096
-0.866035
5.29007
-1.20969
4.06166
-1.57078
3.4568
-1.88131
3.07453
-2.06406
2.49679
2.01443
-2.23847
0.0111239
2.2382
0.0230818
4.51239
0.0382731
6.00429
0.0619635
7.87738
0.0919077
10.243
0.124627
13.2374
0.156808
16.8889
0.178857
20.577
0.184717
24.3216
0.154304
27.8109
0.0618636
24.8836
-0.0897782
17.188
-0.282039
11.4621
-0.555145
7.68407
-0.902332
5.63726
-1.2722
4.43153
-1.67519
3.85979
-2.07261
3.47195
-2.38203
2.80621
2.25788
-2.62547
0.0203585
2.21784
0.0340948
4.49865
0.0519003
5.98648
0.0737492
7.85553
0.101805
10.215
0.133857
13.2053
0.165055
16.8577
0.185858
20.5562
0.18982
24.3177
0.154658
27.846
0.0568189
24.9814
-0.0976994
17.3425
-0.291344
11.6558
-0.567921
7.96065
-0.9417
6.01104
-1.36888
4.8587
-1.72513
4.21605
-2.07308
3.8199
-2.45948
3.19261
2.42693
-2.62853
0.0189013
2.19894
0.0356924
4.48186
0.0526805
5.96949
0.0771101
7.8311
0.107925
10.1842
0.141539
13.1717
0.172909
16.8263
0.193054
20.5361
0.195389
24.3153
0.156398
27.885
0.0557443
25.0821
-0.0974176
17.4957
-0.290793
11.8491
-0.57063
8.24048
-0.913182
6.35359
-1.31575
5.26128
-1.79614
4.69643
-2.08112
4.10487
-2.44366
3.55515
2.982
-2.99873
0.0313775
2.16757
0.0504411
4.4628
0.0695718
5.95036
0.0917783
7.80889
0.11904
10.1569
0.15081
13.14
0.18022
16.7969
0.198088
20.5182
0.198004
24.3154
0.156199
27.9268
0.0567811
25.1815
-0.0881385
17.6406
-0.275856
12.0369
-0.530889
8.49552
-0.827642
6.65035
-1.1545
5.58814
-1.48702
5.02895
-1.62239
4.24024
-1.16715
3.09991
1.81485
0.0266936
2.14087
0.0500521
4.43944
0.0703465
5.93007
0.0976342
7.78161
0.130626
10.1239
0.166802
13.1038
0.199409
16.7643
0.218694
20.4989
0.21875
24.3154
0.174718
27.9709
0.0713788
25.2848
-0.0764792
17.7884
-0.268146
12.2285
-0.513169
8.74054
-0.751818
6.889
-0.9326
5.76892
-0.921268
5.01762
-0.8096
4.12857
-0.551093
2.8414
1.26376
0.0400045
2.10087
0.0656545
4.41379
0.0907493
5.90497
0.11783
7.75453
0.149604
10.0922
0.186847
13.0665
0.221368
16.7297
0.242149
20.4781
0.242913
24.3146
0.19851
28.0153
0.0948471
25.3885
-0.0513386
17.9346
-0.233285
12.4105
-0.451347
8.9586
-0.628089
7.06574
-0.753094
5.89392
-0.809769
5.0743
-0.805895
4.1247
-0.688855
2.72436
0.574907
0.0314713
2.0694
0.0615459
4.38371
0.0876033
5.87892
0.122053
7.72008
0.162213
10.052
0.205439
13.0233
0.245211
16.69
0.269377
20.454
0.272852
24.3111
0.23148
28.0566
0.130604
25.4894
-0.0145575
18.0798
-0.168796
12.5647
-0.359102
9.14891
-0.530739
7.23738
-0.66431
6.02749
-0.749525
5.15951
-0.714539
4.08971
-0.352477
2.3623
0.22243
0.0461562
2.02324
0.0777984
4.35207
0.110166
5.84655
0.144749
7.68549
0.184806
10.0119
0.230742
12.9774
0.274838
16.6459
0.302565
20.4262
0.310274
24.3034
0.274313
28.0926
0.180092
25.5836
0.0447243
18.2152
-0.0960224
12.7055
-0.283549
9.33643
-0.471084
7.42491
-0.591118
6.14753
-0.624867
5.19326
-0.484662
3.9495
-0.146985
2.02462
0.0754452
0.0352846
1.98796
0.0722303
4.31512
0.104834
5.81395
0.149154
7.64117
0.200781
9.96031
0.255724
12.9224
0.308107
16.5935
0.342014
20.3923
0.356487
24.2889
0.329517
28.1196
0.24449
25.6686
0.120539
18.3391
-0.0253701
12.8514
-0.210826
9.52189
-0.373761
7.58784
-0.469314
6.24308
-0.456384
5.18033
-0.350124
3.84324
-0.137314
1.81181
-0.0618689
0.0530693
1.93489
0.0921448
4.27605
0.133237
5.77285
0.177902
7.59651
0.23042
9.90779
0.290366
12.8625
0.349532
16.5343
0.390052
20.3518
0.412839
24.2662
0.396115
28.1363
0.322922
25.7418
0.210253
18.4518
0.0651912
12.9964
-0.110568
9.69765
-0.252167
7.72944
-0.312495
6.30341
-0.308713
5.17655
-0.241949
3.77648
-0.0700462
1.63991
-0.131915
0.0415799
1.89331
0.0882846
4.22934
0.130273
5.73086
0.187417
7.53936
0.254411
9.84079
0.326169
12.7907
0.396656
16.4638
0.447069
20.3014
0.480529
24.2327
0.476583
28.1402
0.41867
25.7997
0.310548
18.5599
0.16589
13.1411
-0.00920946
9.87275
-0.106966
7.8272
-0.156886
6.35333
-0.150597
5.17026
-0.100968
3.72685
0.0103745
1.52857
-0.121541
0.0651573
1.82815
0.114706
4.1798
0.167601
5.67797
0.226142
7.48082
0.295572
9.77136
0.374644
12.7117
0.454773
16.3837
0.515144
20.241
0.560459
24.1874
0.569713
28.131
0.524811
25.8446
0.422293
18.6624
0.279055
13.2843
0.114915
10.0369
0.015976
7.92614
0.00688392
6.36242
-0.00943869
5.18658
0.0149787
3.70243
0.0556967
1.48785
-0.0658439
0.0529794
1.77517
0.115326
4.11745
0.172765
5.62053
0.246529
7.40706
0.33377
9.68412
0.426712
12.6187
0.521396
16.289
0.59545
20.167
0.654943
24.1279
0.679276
28.1066
0.644125
25.8798
0.545825
18.7607
0.406407
13.4237
0.250855
10.1924
0.154444
8.02255
0.117051
6.39981
0.128626
5.17501
0.123225
3.70783
0.0887646
1.52231
0.0229207
0.0863283
1.68884
0.151105
4.05267
0.221087
5.55055
0.299327
7.32882
0.393245
9.59021
0.496226
12.5157
0.603333
16.1819
0.690252
20.0801
0.764461
24.0537
0.802921
28.0682
0.775259
25.9075
0.68425
18.8517
0.546246
13.5617
0.384682
10.354
0.270954
8.13628
0.217198
6.45357
0.194934
5.19727
0.167548
3.73522
0.104788
1.58507
0.127708
0.0738938
1.61495
0.162436
3.96413
0.244723
5.46826
0.341032
7.23251
0.45573
9.47551
0.57493
12.3965
0.699703
16.0572
0.803348
19.9764
0.893938
23.9631
0.94656
28.0156
0.926226
25.9278
0.838058
18.9399
0.686327
13.7135
0.506701
10.5336
0.368832
8.27415
0.287134
6.53527
0.248499
5.23591
0.210982
3.77274
0.104674
1.69138
0.232383
0.11798
1.49697
0.211025
3.87109
0.307137
5.37215
0.417976
7.12167
0.544012
9.34947
0.678479
12.2621
0.818501
15.9171
0.936895
19.858
1.04268
23.8573
1.1076
27.9506
1.09197
25.9434
1.00149
19.0304
0.827725
13.8872
0.626283
10.7351
0.475671
8.42476
0.384921
6.62602
0.331962
5.28887
0.263338
3.84136
0.105536
1.84918
0.337918
0.126657
1.37031
0.255468
3.74227
0.369409
5.25821
0.500697
6.99038
0.64645
9.20372
0.800976
12.1075
0.961684
15.7564
1.09902
19.7207
1.22069
23.7356
1.2969
27.8744
1.28037
25.9599
1.18003
19.1307
0.982873
14.0844
0.767173
10.9508
0.608818
8.58311
0.504974
6.72986
0.432466
5.36137
0.337607
3.93622
0.138504
2.04828
0.476422
0.165554
1.20476
0.326303
3.58152
0.472719
5.11179
0.621896
6.8412
0.782783
9.04283
0.956793
11.9335
1.13657
15.5766
1.29049
19.5668
1.42645
23.5997
1.51257
27.7883
1.49022
25.9823
1.37645
19.2445
1.16035
14.3005
0.931455
11.1797
0.754363
8.76021
0.623098
6.86113
0.522997
5.46147
0.405048
4.05417
0.182007
2.27132
0.658429
0.254357
0.9504
0.443307
3.39257
0.593384
4.96172
0.762786
6.6718
0.955685
8.84993
1.1539
11.7353
1.35675
15.3738
1.52935
19.3942
1.67771
23.4513
1.77273
27.6933
1.74086
26.0142
1.60439
19.381
1.35376
14.5511
1.08705
11.4464
0.863706
8.98355
0.69567
7.02916
0.569264
5.58788
0.438533
4.1849
0.211754
2.4981
0.870183
0.340013
0.610388
0.608493
3.12409
0.797127
4.77308
0.976654
6.49228
1.17636
8.65023
1.39228
11.5194
1.61695
15.1491
1.8112
19.1999
1.97515
23.2874
2.07976
27.5887
2.03259
26.0613
1.85728
19.5563
1.55327
14.8551
1.24352
11.7561
0.987631
9.23943
0.79521
7.22158
0.644214
5.73888
0.486608
4.34251
0.235374
2.74934
1.10556
0.483258
0.127129
0.839018
2.76833
1.04156
4.57054
1.25752
6.27631
1.48774
8.42
1.7108
11.2963
1.95137
14.9086
2.16768
18.9836
2.34577
23.1093
2.46056
27.4739
2.38695
26.135
2.15854
19.7847
1.80752
15.2062
1.46133
12.1023
1.15759
9.54317
0.907548
7.47163
0.70417
5.94225
0.504094
4.54258
0.240759
3.01267
1.34632
0.379028
-0.251899
1.06693
2.08043
1.43304
4.20443
1.6443
6.06505
1.84127
8.22304
2.08092
11.0567
2.354
14.6355
2.60114
18.7365
2.80004
22.9104
2.92841
27.3455
2.83716
26.2262
2.57514
20.0467
2.20356
15.5777
1.82021
12.4857
1.44642
9.91696
1.11954
7.79851
0.844625
6.21717
0.58463
4.80258
0.273485
3.32382
1.6198
0.272682
-0.524581
1.36883
0.984282
1.87385
3.69942
2.10456
5.83433
2.31948
8.00812
2.56006
10.8161
2.84749
14.3481
3.13473
18.4492
3.37391
22.6712
3.55428
27.1651
3.49196
26.2885
3.20091
20.3377
2.7736
16.005
2.33598
12.9233
1.91463
10.3383
1.49608
8.21706
1.09241
6.62084
0.713407
5.18158
0.323973
3.71325
1.94377
0.252661
-0.777242
1.49309
-0.256143
2.19886
2.99364
2.32187
5.71132
2.35898
7.97101
2.46224
10.7128
2.60438
14.2059
2.73218
18.3214
2.7984
22.605
2.79276
27.1708
2.62683
26.4545
2.33223
20.6323
1.96671
16.3706
1.60127
13.2887
1.27095
10.6686
0.994275
8.49373
0.749825
6.86529
0.505994
5.42541
0.237814
3.98143
2.18159
0.509104
-1.28635
1.0418
-0.788842
1.65756
2.37789
1.76742
5.60146
1.74705
7.99138
1.76203
10.6979
1.84121
14.1267
1.96315
18.1995
2.05934
22.5088
2.09779
27.1323
2.01463
26.5376
1.80896
20.838
1.53692
16.6426
1.25757
13.5681
0.986991
10.9392
0.745463
8.73526
0.538469
7.07228
0.344406
5.61947
0.1513
4.17454
2.33289
0.431148
-1.71749
0.215822
-0.573516
0.311046
2.28266
0.618471
5.29404
0.794541
7.81531
0.905643
10.5868
1.04701
13.9854
1.22435
18.0221
1.37964
22.3535
1.47727
27.0347
1.48608
26.5288
1.36227
20.9618
1.15584
16.849
0.940861
13.7831
0.731974
11.1481
0.543066
8.92417
0.381287
7.23406
0.234937
5.76582
0.092532
4.31694
2.42542
-0.100016
-1.61748
-0.729012
0.0554809
-0.997785
2.55144
-0.795772
5.09203
-0.410289
7.42982
-0.0528874
10.2294
0.242058
13.6904
0.508993
17.7552
0.75105
22.1114
0.920808
26.865
1.02475
26.4249
0.974132
21.0124
0.829858
16.9933
0.67477
13.9382
0.521412
11.3015
0.382141
9.06344
0.260564
7.35564
0.149646
5.87674
0.0466883
4.4199
2.47211
-0.482207
-1.13527
-0.867882
0.441156
-1.20274
2.8863
-1.266
5.15529
-1.10331
7.26713
-0.82461
9.95067
-0.476601
13.3424
-0.114203
17.3928
0.195306
21.8019
0.438827
26.6214
0.63145
26.2322
0.64245
21.0014
0.558359
17.0774
0.456024
14.0405
0.348384
11.4091
0.249979
9.16185
0.162913
7.4427
0.078841
5.96081
0.00550006
4.49324
2.47761
-0.436349
-0.698922
-0.901048
0.905855
-1.15418
3.13943
-1.23355
5.23466
-1.24781
7.28138
-1.16006
9.86292
-0.938751
13.1211
-0.615882
17.0699
-0.264499
21.4506
0.0604803
26.2965
0.306111
25.9866
0.369437
20.9381
0.339059
17.1078
0.27692
14.1026
0.210967
11.4751
0.14369
9.22912
0.0783444
7.50805
0.0248617
6.01429
-0.0236507
4.54175
2.45396
-0.430783
-0.268139
-0.831317
1.30639
-1.08889
3.397
-1.16742
5.3132
-1.24006
7.35402
-1.244
9.86687
-1.13929
13.0164
-0.90378
16.8344
-0.594386
21.1412
-0.250548
25.9526
0.0498245
25.6862
0.147145
20.8408
0.159881
17.095
0.12842
14.1341
0.0887884
11.5147
0.0417741
9.27614
0.00135868
7.54846
-0.0408782
6.05653
-0.0617219
4.5626
2.39223
-0.326893
0.0587537
-0.701235
1.68073
-0.94371
3.63947
-1.083
5.45248
-1.15243
7.42345
-1.1958
9.91023
-1.18837
13.009
-1.03024
16.6763
-0.774088
20.885
-0.442202
25.6207
-0.142431
25.3865
-0.0245888
20.7229
0.00278021
17.0677
0.0125681
14.1243
-0.0172274
11.5445
-0.0454708
9.30438
-0.0756593
7.57865
-0.0965463
6.07742
-0.0861804
4.55223
2.30605
-0.309561
0.368315
-0.636603
2.00777
-0.855842
3.85871
-1.01693
5.61357
-1.1157
7.52223
-1.1392
9.93373
-1.12941
12.9992
-1.03982
16.5867
-0.844024
20.6892
-0.544606
25.3213
-0.270704
25.1126
-0.148123
20.6004
-0.10314
17.0227
-0.0939523
14.1151
-0.0946826
11.5452
-0.112431
9.32213
-0.127482
7.5937