/*--------------------------------*- C++ -*----------------------------------*\
| =========                 |                                                 |
| \\      /  F ield         | OpenFOAM: The Open Source CFD Toolbox           |
|  \\    /   O peration     | Version:  2412                                  |
|   \\  /    A nd           | Website:  www.openfoam.com                      |
|    \\/     M anipulation  |                                                 |
\*---------------------------------------------------------------------------*/
FoamFile
{
    version     2.0;
    format      ascii;
    arch        "LSB;label=32;scalar=64";
    class       volVectorField;
    location    "10";
    object      U;
}
// * * * * * * * * * * * * * * * * * * * * * * * * * * * * * * * * * * * * * //

dimensions      [0 1 -1 0 0 0 0];

internalField   nonuniform List<vector> 
2200
(
(0.381794 0.000540782 0)
(1.19513 0.00178902 0)
(2.1231 0.002963 0)
(3.16861 0.00417814 0)
(4.32418 0.00584085 0)
(5.57009 0.00707865 0)
(6.86138 0.00857532 0)
(8.11777 0.00936742 0)
(9.20459 0.0105009 0)
(9.90033 0.010009 0)
(9.90039 0.0110965 0)
(9.20734 0.0101464 0)
(8.12021 0.0103311 0)
(6.86613 0.00991462 0)
(5.57362 0.00674704 0)
(4.3268 0.0058852 0)
(3.16761 0.00452811 0)
(2.12162 0.00315461 0)
(1.19275 0.00204404 0)
(0.377813 0.000956415 0)
(0.387652 0.00116503 0)
(1.20121 0.00397696 0)
(2.12944 0.00765274 0)
(3.17577 0.0116108 0)
(4.33291 0.0156766 0)
(5.57939 0.0200748 0)
(6.87138 0.0240669 0)
(8.12778 0.0289249 0)
(9.21178 0.0326489 0)
(9.90165 0.0356306 0)
(9.90129 0.0334671 0)
(9.20431 0.0325787 0)
(8.11871 0.0272452 0)
(6.85706 0.0220702 0)
(5.56424 0.0209495 0)
(4.31725 0.0163814 0)
(3.16195 0.0118537 0)
(2.11454 0.00873366 0)
(1.18311 0.00487328 0)
(0.370547 0.001346 0)
(0.3999 0.00178331 0)
(1.21475 0.00596804 0)
(2.14145 0.0117909 0)
(3.18537 0.0187232 0)
(4.34066 0.0262333 0)
(5.58473 0.0337547 0)
(6.8736 0.0406052 0)
(8.12714 0.0465776 0)
(9.21386 0.0530461 0)
(9.90004 0.0554046 0)
(9.89749 0.0555131 0)
(9.20017 0.0509893 0)
(8.10982 0.0474568 0)
(6.85281 0.0429324 0)
(5.55787 0.0331925 0)
(4.30822 0.0259131 0)
(3.14731 0.0197008 0)
(2.09891 0.0126407 0)
(1.16735 0.00624552 0)
(0.359632 0.00119854 0)
(0.415092 0.0025708 0)
(1.2341 0.00844781 0)
(2.16319 0.0171438 0)
(3.20732 0.0267585 0)
(4.36273 0.03646 0)
(5.60537 0.0462986 0)
(6.89269 0.0560511 0)
(8.14396 0.0659886 0)
(9.22615 0.0749181 0)
(9.9018 0.0800078 0)
(9.8978 0.0771109 0)
(9.19389 0.0739927 0)
(8.10129 0.0644399 0)
(6.83391 0.0527394 0)
(5.53719 0.0463904 0)
(4.28786 0.0357437 0)
(3.12928 0.0253272 0)
(2.07896 0.0159313 0)
(1.14786 0.00776523 0)
(0.34547 0.00141034 0)
(0.438202 0.00329898 0)
(1.26267 0.0112387 0)
(2.18839 0.0216634 0)
(3.23062 0.0325892 0)
(4.3792 0.0467723 0)
(5.619 0.0591359 0)
(6.90267 0.0715689 0)
(8.14969 0.0831872 0)
(9.2344 0.0950633 0)
(9.90002 0.100203 0)
(9.89134 0.0992931 0)
(9.18366 0.0919061 0)
(8.0859 0.083425 0)
(6.82375 0.0737836 0)
(5.52351 0.0566197 0)
(4.26887 0.0432993 0)
(3.10445 0.0304455 0)
(2.05464 0.0194407 0)
(1.12183 0.00918383 0)
(0.328397 0.00143522 0)
(0.464806 0.00372084 0)
(1.29578 0.0126118 0)
(2.22038 0.0274887 0)
(3.26048 0.0413712 0)
(4.41711 0.0550292 0)
(5.65259 0.0727228 0)
(6.93147 0.0879059 0)
(8.17343 0.103083 0)
(9.25192 0.117477 0)
(9.90254 0.124786 0)
(9.89096 0.121244 0)
(9.17537 0.114746 0)
(8.07235 0.100693 0)
(6.79569 0.0820673 0)
(5.49229 0.0692656 0)
(4.23936 0.0518207 0)
(3.07742 0.0365786 0)
(2.02269 0.0224906 0)
(1.09148 0.0102319 0)
(0.309848 0.0018112 0)
(0.498027 0.00450529 0)
(1.34484 0.0149728 0)
(2.27094 0.0310072 0)
(3.3057 0.0490058 0)
(4.44256 0.0690123 0)
(5.67514 0.0842688 0)
(6.95008 0.10302 0)
(8.18619 0.120444 0)
(9.26598 0.138327 0)
(9.90085 0.14606 0)
(9.88264 0.143829 0)
(9.15934 0.133392 0)
(8.04945 0.118458 0)
(6.77923 0.102656 0)
(5.47198 0.0795527 0)
(4.20902 0.0607526 0)
(3.03706 0.0427409 0)
(1.98306 0.0260865 0)
(1.05421 0.0126031 0)
(0.286394 0.0027631 0)
(0.530782 0.0043399 0)
(1.37786 0.0172596 0)
(2.30288 0.0342587 0)
(3.34411 0.0533861 0)
(4.49419 0.0738763 0)
(5.72038 0.100009 0)
(6.98678 0.120157 0)
(8.21627 0.141535 0)
(9.28893 0.162018 0)
(9.90444 0.171539 0)
(9.88146 0.166931 0)
(9.14949 0.156046 0)
(8.03242 0.137171 0)
(6.74278 0.112424 0)
(5.42865 0.0923275 0)
(4.16908 0.069363 0)
(3.0024 0.0490404 0)
(1.94313 0.0313829 0)
(1.01041 0.014366 0)
(0.257228 0.00378075 0)
(0.575236 0.00386262 0)
(1.44528 0.0184642 0)
(2.36739 0.0384018 0)
(3.39215 0.0597079 0)
(4.52661 0.0869746 0)
(5.75402 0.109796 0)
(7.01873 0.138048 0)
(8.24122 0.161478 0)
(9.30926 0.185114 0)
(9.90394 0.195065 0)
(9.87226 0.190541 0)
(9.12751 0.176623 0)
(8.00005 0.15549 0)
(6.71705 0.133181 0)
(5.40069 0.104678 0)
(4.12786 0.0798772 0)
(2.94717 0.0574818 0)
(1.88615 0.0364724 0)
(0.957897 0.0158135 0)
(0.222834 0.00512306 0)
(0.608929 0.00408891 0)
(1.48977 0.0207452 0)
(2.41488 0.040078 0)
(3.4551 0.0666023 0)
(4.59255 0.0937235 0)
(5.80564 0.127124 0)
(7.05942 0.152757 0)
(8.27431 0.182887 0)
(9.33665 0.210812 0)
(9.90844 0.222547 0)
(9.86944 0.216474 0)
(9.11449 0.200788 0)
(7.9778 0.176302 0)
(6.67149 0.145908 0)
(5.34167 0.118538 0)
(4.07114 0.0897866 0)
(2.89698 0.0635912 0)
(1.83474 0.039958 0)
(0.905326 0.0176795 0)
(0.183054 0.00627112 0)
(0.665466 0.00433871 0)
(1.57744 0.0238136 0)
(2.49695 0.0480014 0)
(3.50999 0.0742225 0)
(4.63748 0.107099 0)
(5.85408 0.137305 0)
(7.10259 0.175265 0)
(8.31222 0.20526 0)
(9.36191 0.23624 0)
(9.90857 0.24946 0)
(9.85844 0.242494 0)
(9.08504 0.225048 0)
(7.93393 0.197736 0)
(6.63247 0.167799 0)
(5.30476 0.131834 0)
(4.02252 0.0987612 0)
(2.83577 0.06805 0)
(1.77305 0.0421552 0)
(0.847873 0.0173047 0)
(0.138827 0.00659331 0)
(0.705688 0.00592887 0)
(1.63284 0.0287211 0)
(2.56779 0.0515319 0)
(3.59701 0.0876659 0)
(4.71808 0.120319 0)
(5.91718 0.159658 0)
(7.15623 0.192337 0)
(8.35186 0.231543 0)
(9.39337 0.266932 0)
(9.91319 0.280783 0)
(9.85218 0.273523 0)
(9.06494 0.252949 0)
(7.90178 0.221327 0)
(6.5752 0.182723 0)
(5.22746 0.145893 0)
(3.9475 0.106836 0)
(2.76965 0.0718643 0)
(1.70904 0.0407073 0)
(0.793695 0.0154411 0)
(0.0976946 0.00618267 0)
(0.788624 0.00756313 0)
(1.74618 0.0354242 0)
(2.65078 0.069713 0)
(3.65844 0.0942512 0)
(4.77603 0.135229 0)
(5.97469 0.17275 0)
(7.20155 0.217712 0)
(8.39737 0.256656 0)
(9.42064 0.295635 0)
(9.91217 0.312743 0)
(9.83685 0.304478 0)
(9.02633 0.283107 0)
(7.84516 0.247152 0)
(6.51981 0.206708 0)
(5.17791 0.159661 0)
(3.88333 0.116702 0)
(2.68827 0.0757868 0)
(1.62453 0.0380604 0)
(0.740619 0.0136859 0)
(0.0590761 0.00573071 0)
(0.851259 0.00970993 0)
(1.82855 0.0386089 0)
(2.7516 0.0728347 0)
(3.76566 0.119641 0)
(4.8694 0.151284 0)
(6.05414 0.199343 0)
(7.27429 0.243924 0)
(8.44867 0.291059 0)
(9.455 0.333321 0)
(9.91499 0.350097 0)
(9.8245 0.342498 0)
(8.99497 0.316768 0)
(7.798 0.27549 0)
(6.44629 0.225167 0)
(5.07729 0.176624 0)
(3.78141 0.126683 0)
(2.59356 0.078036 0)
(1.53951 0.0380163 0)
(0.69368 0.0142326 0)
(0.0254308 0.00506264 0)
(0.96131 0.0115775 0)
(1.96373 0.0464376 0)
(2.84201 0.0908314 0)
(3.83713 0.122525 0)
(4.94405 0.1751 0)
(6.12068 0.218725 0)
(7.32323 0.27046 0)
(8.50194 0.321832 0)
(9.48507 0.368857 0)
(9.91241 0.389477 0)
(9.80277 0.380979 0)
(8.946 0.354563 0)
(7.72799 0.30759 0)
(6.37251 0.254476 0)
(5.00918 0.193847 0)
(3.69916 0.137255 0)
(2.49548 0.085761 0)
(1.44029 0.0433399 0)
(0.634618 0.0168633 0)
(-0.0110831 0.00484602 0)
(1.05684 0.011123 0)
(2.10045 0.0488081 0)
(2.9774 0.0949253 0)
(3.97754 0.150359 0)
(5.06096 0.194765 0)
(6.22486 0.254981 0)
(7.41807 0.309873 0)
(8.5714 0.365064 0)
(9.52406 0.415809 0)
(9.91439 0.436876 0)
(9.78374 0.427929 0)
(8.90213 0.395102 0)
(7.66468 0.341694 0)
(6.2824 0.278171 0)
(4.88983 0.215817 0)
(3.5746 0.154525 0)
(2.3761 0.0992211 0)
(1.33761 0.0519977 0)
(0.572546 0.0215256 0)
(-0.0497145 0.00552673 0)
(1.17125 0.0171703 0)
(2.23702 0.0543921 0)
(3.08261 0.109811 0)
(4.06501 0.15676 0)
(5.16111 0.220151 0)
(6.31551 0.279084 0)
(7.49101 0.34342 0)
(8.64307 0.409156 0)
(9.56178 0.464473 0)
(9.91346 0.487803 0)
(9.75821 0.476364 0)
(8.84573 0.440584 0)
(7.58443 0.379554 0)
(6.19443 0.308936 0)
(4.80706 0.234899 0)
(3.48058 0.170447 0)
(2.26643 0.113767 0)
(1.22371 0.060637 0)
(0.486023 0.0281616 0)
(-0.106514 0.00687563 0)
(1.3219 0.013623 0)
(2.42954 0.0618319 0)
(3.26069 0.111771 0)
(4.2415 0.178436 0)
(5.30046 0.245002 0)
(6.43993 0.318769 0)
(7.60083 0.390817 0)
(8.73563 0.463513 0)
(9.60905 0.526173 0)
(9.91963 0.550179 0)
(9.73601 0.534142 0)
(8.79082 0.488517 0)
(7.50696 0.419453 0)
(6.08832 0.341346 0)
(4.66814 0.259009 0)
(3.33906 0.185842 0)
(2.13483 0.127597 0)
(1.10321 0.064206 0)
(0.397471 0.03177 0)
(-0.170237 0.00851137 0)
(1.42708 0.019544 0)
(2.55904 0.0625092 0)
(3.38157 0.132573 0)
(4.36323 0.19077 0)
(5.4449 0.273145 0)
(6.57015 0.357617 0)
(7.71135 0.43883 0)
(8.82876 0.523877 0)
(9.65398 0.591459 0)
(9.9233 0.616434 0)
(9.7085 0.595806 0)
(8.72387 0.54354 0)
(7.40708 0.464221 0)
(5.97623 0.373256 0)
(4.55899 0.283839 0)
(3.21333 0.200763 0)
(2.00345 0.132999 0)
(0.979276 0.0650529 0)
(0.296971 0.0348223 0)
(-0.245809 0.00922912 0)
(1.63634 0.0203631 0)
(2.82378 0.080098 0)
(3.62734 0.150103 0)
(4.59151 0.227936 0)
(5.61644 0.313641 0)
(6.72115 0.403892 0)
(7.83928 0.499068 0)
(8.94651 0.597031 0)
(9.70785 0.671627 0)
(9.93204 0.696456 0)
(9.67836 0.669211 0)
(8.64955 0.605894 0)
(7.30595 0.515097 0)
(5.84238 0.417592 0)
(4.39067 0.310004 0)
(3.04348 0.214416 0)
(1.84414 0.134991 0)
(0.859733 0.0651698 0)
(0.199816 0.0349726 0)
(-0.32175 0.0104897 0)
(1.76795 0.0264545 0)
(2.97791 0.0795055 0)
(3.77383 0.164067 0)
(4.73952 0.246907 0)
(5.80019 0.353264 0)
(6.8862 0.461453 0)
(7.98573 0.566763 0)
(9.06094 0.678397 0)
(9.75296 0.758544 0)
(9.93292 0.783253 0)
(9.63717 0.749711 0)
(8.5579 0.675275 0)
(7.16985 0.571246 0)
(5.68575 0.455767 0)
(4.23316 0.344339 0)
(2.87153 0.229722 0)
(1.67831 0.13982 0)
(0.74377 0.0666168 0)
(0.101715 0.0373034 0)
(-0.401648 0.0111653 0)
(2.0489 0.027756 0)
(3.30939 0.110832 0)
(4.08979 0.206429 0)
(5.04732 0.300599 0)
(6.02664 0.415011 0)
(7.08244 0.532497 0)
(8.14518 0.652917 0)
(9.19772 0.781763 0)
(9.80215 0.864538 0)
(9.93288 0.886418 0)
(9.58561 0.843695 0)
(8.45099 0.757344 0)
(7.03325 0.635595 0)
(5.51781 0.506528 0)
(4.03029 0.371004 0)
(2.6691 0.251953 0)
(1.4671 0.146406 0)
(0.616211 0.0772531 0)
(-0.0164689 0.0414553 0)
(-0.491308 0.0144291 0)
(2.23372 0.040364 0)
(3.52065 0.101392 0)
(4.28991 0.218492 0)
(5.2367 0.332743 0)
(6.2476 0.476115 0)
(7.28842 0.613239 0)
(8.33018 0.757888 0)
(9.32915 0.902973 0)
(9.83867 0.984222 0)
(9.92074 1.00006 0)
(9.51531 0.945157 0)
(8.32121 0.839359 0)
(6.85587 0.698843 0)
(5.3164 0.550319 0)
(3.83192 0.406833 0)
(2.45073 0.267366 0)
(1.27467 0.160271 0)
(0.509309 0.0876028 0)
(-0.139053 0.0523262 0)
(-0.594092 0.0191342 0)
(2.63583 0.0424832 0)
(3.96512 0.164517 0)
(4.71062 0.292639 0)
(5.62759 0.424458 0)
(6.55437 0.578081 0)
(7.53858 0.732927 0)
(8.54102 0.897874 0)
(9.46934 1.0521 0)
(9.87472 1.12705 0)
(9.90551 1.13426 0)
(9.43091 1.06027 0)
(8.17145 0.93323 0)
(6.67266 0.763367 0)
(5.10967 0.588142 0)
(3.59915 0.419601 0)
(2.23124 0.276528 0)
(1.0607 0.170997 0)
(0.384635 0.110815 0)
(-0.283311 0.0676494 0)
(-0.725024 0.0242133 0)
(2.91264 0.0645455 0)
(4.26062 0.155124 0)
(4.984 0.316918 0)
(5.88573 0.47922 0)
(6.8231 0.685424 0)
(7.80193 0.877106 0)
(8.77951 1.07142 0)
(9.59858 1.2287 0)
(9.89493 1.29037 0)
(9.87409 1.28353 0)
(9.32012 1.18243 0)
(7.99007 1.02216 0)
(6.44512 0.82165 0)
(4.85743 0.615617 0)
(3.35573 0.430095 0)
(1.98679 0.277361 0)
(0.877568 0.170807 0)
(0.263373 0.124735 0)
(-0.505654 0.0760593 0)
(-0.937767 0.0197066 0)
(3.53829 0.0926361 0)
(4.83331 0.267915 0)
(5.52798 0.475259 0)
(6.3839 0.679144 0)
(7.22914 0.887504 -1.36714e-32)
(8.1075 1.07802 4.99241e-33)
(9.04107 1.29135 0)
(9.71932 1.43725 0)
(9.91105 1.48245 0)
(9.83304 1.45544 0)
(9.18915 1.31861 0)
(7.78393 1.11931 0)
(6.20314 0.873033 0)
(4.59555 0.631943 0)
(3.06978 0.411045 0)
(1.73682 0.248989 0)
(0.70841 0.132953 0)
(0.13124 0.0906992 0)
(-0.672541 0.0600936 0)
(-1.10632 -0.00407535 0)
(4.15465 0.224201 -1.55075e-18)
(5.29012 0.382481 1.29245e-18)
(5.9092 0.635565 0)
(6.72765 0.855322 -7.49157e-19)
(7.55171 1.10983 6.07273e-19)
(8.42302 1.33537 -5.28322e-33)
(9.30738 1.56205 0)
(9.80721 1.68221 -9.33582e-20)
(9.91388 1.71303 1.67938e-19)
(9.75779 1.65987 -6.30455e-21)
(9.00079 1.47744 0)
(7.49354 1.22353 -2.5018e-19)
(5.84656 0.929375 -3.21224e-19)
(4.19413 0.637242 5.57429e-19)
(2.6885 0.393924 -4.51368e-19)
(1.42756 0.192224 0)
(0.547786 0.0707086 -1.67015e-19)
(0.0488024 0.0125068 0)
(-0.713105 -0.00310243 -8.79958e-19)
(-1.17018 -0.0406494 1.01401e-18)
(4.53724 0.435659 1.31152e-19)
(5.7898 0.658659 -5.73038e-18)
(6.36195 0.958822 8.58793e-19)
(7.12046 1.18699 3.11855e-18)
(7.85723 1.40621 1.36279e-18)
(8.65627 1.61717 -2.1592e-18)
(9.46515 1.84564 0)
(9.8421 1.95624 0)
(9.88478 1.98126 -2.88804e-19)
(9.65485 1.9031 0)
(8.79815 1.67379 7.72568e-19)
(7.21061 1.36475 2.73417e-19)
(5.52631 1.00557 -1.96062e-20)
(3.87748 0.678015 -6.77509e-19)
(2.39075 0.384985 0)
(1.16706 0.159941 0)
(0.402372 0.0533516 -2.83271e-18)
(-0.0194827 -0.0266679 7.12171e-18)
(-0.647086 -0.0568308 -4.17299e-18)
(-1.18705 -0.122994 -4.88965e-18)
(4.77035 0.692651 5.31957e-18)
(5.97452 0.982739 -2.09554e-18)
(6.5292 1.23074 -7.52565e-19)
(7.28274 1.43067 -5.78354e-18)
(8.01883 1.68314 4.5772e-19)
(8.82008 1.92435 5.98518e-18)
(9.55058 2.14853 -1.70868e-18)
(9.83076 2.24709 0)
(9.8276 2.26098 6.32059e-19)
(9.53434 2.15522 6.96585e-19)
(8.61068 1.87737 -2.1835e-18)
(6.97479 1.50948 1.19827e-18)
(5.28394 1.09472 -9.78749e-19)
(3.63822 0.700656 2.11528e-18)
(2.18545 0.400654 0)
(0.982331 0.165754 -7.88601e-19)
(0.310844 0.0377217 0)
(-0.0603699 -0.0278969 4.18773e-18)
(-0.634889 -0.104217 -9.82978e-18)
(-1.13225 -0.182721 6.22194e-18)
(4.90152 0.943222 -2.19578e-17)
(6.27901 1.3997 1.15656e-17)
(6.81584 1.63463 2.03388e-18)
(7.51741 1.82616 0)
(8.1808 2.03569 3.9703e-18)
(8.91792 2.25441 -4.66695e-18)
(9.57276 2.46454 1.79594e-18)
(9.78882 2.54983 0)
(9.7437 2.55068 -4.57926e-19)
(9.40341 2.41286 -4.05197e-19)
(8.43359 2.08557 2.2584e-18)
(6.77404 1.66215 0)
(5.08372 1.19069 -2.14951e-18)
(3.47122 0.769902 1.15565e-18)
(2.05742 0.403704 2.95478e-18)
(0.930349 0.148655 -2.6678e-18)
(0.280747 0.01216 4.13617e-18)
(-0.0633089 -0.0612841 -9.15277e-18)
(-0.546803 -0.125759 5.70065e-18)
(-1.05498 -0.226057 -7.24562e-18)
(4.94118 1.19391 1.23392e-17)
(6.28509 1.69321 -1.20607e-17)
(6.83454 1.88248 6.59476e-18)
(7.53524 2.06994 -1.01364e-17)
(8.21212 2.34047 7.85157e-18)
(8.94276 2.58495 -1.82533e-18)
(9.54804 2.78822 1.10967e-19)
(9.71681 2.86083 1.97871e-18)
(9.63616 2.84228 4.20345e-19)
(9.26219 2.67269 -1.23692e-18)
(8.26344 2.29583 -5.11478e-18)
(6.5947 1.81321 -2.02459e-18)
(4.9324 1.28573 -5.28538e-20)
(3.3372 0.792746 -4.43942e-18)
(1.99553 0.436659 -3.11938e-20)
(0.941698 0.163874 4.01904e-18)
(0.325072 0.0172724 -1.25877e-18)
(0.0235993 -0.0344213 -6.85269e-19)
(-0.449856 -0.139787 0)
(-1.00107 -0.263505 1.64189e-17)
(4.96491 1.33115 0)
(6.41261 2.08568 3.40407e-18)
(6.97025 2.25322 0)
(7.62266 2.46674 -3.67613e-19)
(8.23682 2.6961 -8.76209e-18)
(8.92315 2.91891 3.68062e-18)
(9.48505 3.1104 -2.20235e-18)
(9.6203 3.17127 -2.837e-18)
(9.51309 3.1327 -6.08823e-20)
(9.1172 2.93209 -5.67926e-20)
(8.10223 2.5074 2.88748e-18)
(6.4446 1.96104 4.55169e-18)
(4.81021 1.37543 -2.89858e-18)
(3.26818 0.88155 5.0121e-18)
(1.96343 0.465282 -3.84577e-18)
(0.926848 0.157468 0)
(0.335625 0.00799483 -9.82223e-18)
(0.0433973 -0.0492175 1.31871e-17)
(-0.379848 -0.155766 1.00876e-18)
(-0.896101 -0.2723 -1.83525e-17)
(4.83232 1.51389 -4.26201e-19)
(6.31247 2.30967 -8.14458e-18)
(6.89909 2.44843 -2.89819e-17)
(7.53882 2.69868 1.78971e-17)
(8.17275 2.98341 -5.83701e-18)
(8.85761 3.23375 4.12946e-18)
(9.39435 3.42793 -5.02292e-18)
(9.50522 3.47876 1.62458e-18)
(9.37944 3.41719 7.52609e-19)
(8.97034 3.18913 -1.8892e-19)
(7.95557 2.71953 -3.65438e-18)
(6.32328 2.11313 -5.38835e-18)
(4.71567 1.47958 3.35742e-18)
(3.18352 0.934166 -1.85409e-18)
(1.92527 0.509572 4.49139e-18)
(1.01852 0.192351 0)
(0.47736 0.0341841 -6.42712e-18)
(0.207969 -0.00260958 9.55399e-18)
(-0.20066 -0.118133 1.79517e-17)
(-0.818563 -0.278913 -2.11059e-17)
(4.7686 1.72873 -4.1412e-17)
(6.33978 2.63246 2.09285e-17)
(6.91629 2.78538 1.86869e-17)
(7.52131 3.05232 -1.9193e-17)
(8.11613 3.29584 3.91826e-19)
(8.76689 3.53845 9.34024e-18)
(9.28189 3.73255 2.23664e-18)
(9.37753 3.77574 7.57623e-19)
(9.24114 3.69446 -4.70486e-19)
(8.82414 3.44032 6.54409e-19)
(7.82243 2.93138 3.04426e-18)
(6.21448 2.27436 8.42751e-18)
(4.63105 1.59176 0)
(3.17651 1.02045 1.66427e-19)
(1.95568 0.544437 -1.33377e-17)
(1.02321 0.2312 3.18577e-18)
(0.506789 0.0780208 1.46485e-17)
(0.246408 0.0251598 -4.32654e-18)
(-0.133994 -0.0945034 9.01059e-18)
(-0.753377 -0.28946 -7.27719e-19)
(4.59721 1.84688 4.32661e-19)
(6.20603 2.79347 1.85276e-17)
(6.79713 2.9369 1.36231e-17)
(7.39494 3.2578 -3.17406e-17)
(8.00154 3.54962 2.33949e-17)
(8.64729 3.81967 -1.02313e-17)
(9.15342 4.02312 -2.43322e-18)
(9.24089 4.06087 -3.51516e-18)
(9.0983 3.96123 -7.62508e-19)
(8.6775 3.68363 -2.43772e-18)
(7.68892 3.13967 0)
(6.10836 2.43873 -3.5605e-18)
(4.56574 1.71508 4.07535e-18)
(3.15652 1.10129 5.14182e-18)
(1.9881 0.633518 -3.05424e-18)
(1.15731 0.287303 -7.04878e-18)
(0.674694 0.127412 -2.13095e-18)
(0.403954 0.0992968 -1.31942e-19)
(0.00770079 -0.048428 0)
(-0.683249 -0.280188 0)
(4.48579 1.98192 -1.85993e-17)
(6.16354 3.04462 0)
(6.73528 3.21999 1.48026e-17)
(7.31807 3.54806 -6.31948e-18)
(7.89956 3.81873 -2.42675e-17)
(8.51774 4.08626 6.80419e-18)
(9.01605 4.29438 -2.65765e-18)
(9.09981 4.32917 2.91971e-18)
(8.95424 4.21613 -9.39896e-19)
(8.53227 3.91951 -1.97232e-18)
(7.55765 3.34421 1.91067e-18)
(6.00948 2.60382 1.17298e-17)
(4.50635 1.84264 3.08226e-19)
(3.15429 1.20348 -5.64318e-18)
(2.00427 0.684118 1.0251e-17)
(1.16227 0.361 1.59301e-20)
(0.709657 0.190503 2.28032e-18)
(0.488478 0.151541 -1.1195e-17)
(0.124312 0.0148688 1.13932e-17)
(-0.639218 -0.286582 -1.34081e-17)
(4.30288 2.06066 -1.21063e-20)
(5.99732 3.17003 0)
(6.59594 3.35107 0)
(7.17218 3.71247 6.24628e-18)
(7.76069 4.03336 8.9408e-18)
(8.37666 4.32983 -6.03742e-18)
(8.87321 4.54837 7.04804e-18)
(8.95462 4.58235 0)
(8.80712 4.45826 6.93518e-19)
(8.3847 4.14506 4.11077e-18)
(7.42696 3.5425 7.29069e-18)
(5.91554 2.76786 -4.5018e-18)
(4.45572 1.9748 -5.45178e-18)
(3.15102 1.3082 1.28299e-17)
(2.06784 0.791746 -3.70651e-18)
(1.30055 0.429122 -4.33736e-18)
(0.868192 0.273743 -2.66605e-18)
(0.592811 0.242891 -1.25029e-17)
(0.1891 0.0565004 1.78702e-18)
(-0.615891 -0.293669 1.50831e-17)
(4.16158 2.15632 -7.16995e-18)
(5.92162 3.37342 -1.1212e-17)
(6.50081 3.58249 5.56743e-19)
(7.06446 3.94753 -2.28793e-20)
(7.63508 4.25529 3.77977e-18)
(8.23239 4.55553 -1.37022e-17)
(8.72582 4.78193 0)
(8.80721 4.81734 -1.01092e-18)
(8.6598 4.68635 7.96022e-19)
(8.24031 4.36079 6.9158e-18)
(7.30376 3.73532 -1.49956e-18)
(5.83025 2.93066 2.08591e-18)
(4.40714 2.10941 0)
(3.13895 1.42006 -6.99372e-18)
(2.05371 0.860136 8.56191e-18)
(1.29446 0.52141 0)
(0.904501 0.340435 -5.82641e-18)
(0.713633 0.314269 1.71242e-17)
(0.321714 0.139906 2.06759e-18)
(-0.580411 -0.300823 -1.91204e-17)
(3.97829 2.2031 -1.51661e-17)
(5.74792 3.46442 1.87573e-17)
(6.35455 3.69043 0)
(6.91137 4.07969 1.43801e-17)
(7.48591 4.42817 0)
(8.08286 4.75696 1.39017e-17)
(8.57703 4.99694 0)
(8.65776 5.03586 0)
(8.51237 4.90023 -4.59858e-19)
(8.09928 4.56487 -7.04878e-18)
(7.18659 3.92111 -1.37904e-17)
(5.74873 3.09222 2.71278e-18)
(4.35635 2.2469 1.00812e-17)
(3.12275 1.53703 7.93994e-18)
(2.119 0.971179 -2.78471e-17)
(1.41935 0.600908 -1.08913e-17)
(1.03484 0.450406 6.42564e-18)
(0.76564 0.416931 0)
(0.350071 0.178946 1.80777e-17)
(-0.568386 -0.315113 -2.11713e-17)
(3.84299 2.27552 1.62624e-17)
(5.66671 3.63881 -2.01207e-17)
(6.24649 3.88722 0)
(6.79016 4.27442 -3.91699e-19)
(7.35041 4.6087 -5.92286e-18)
(7.93194 4.94137 0)
(8.42486 5.19148 -1.73532e-18)
(8.50896 5.23547 2.52039e-19)
(8.36961 5.09861 3.68188e-19)
(7.9674 4.75874 4.0178e-19)
(7.07744 4.10069 0)
(5.66807 3.25103 1.12595e-17)
(4.30066 2.38412 3.30539e-19)
(3.09746 1.6535 4.37021e-18)
(2.08451 1.05192 5.03071e-18)
(1.39613 0.70021 0)
(1.06043 0.525994 -1.07063e-17)
(0.866634 0.506027 2.10449e-17)
(0.416379 0.247492 -2.22863e-17)
(-0.552193 -0.32935 4.66631e-17)
(3.679 2.30214 0)
(5.49783 3.7044 0)
(6.1041 3.98251 -1.10086e-17)
(6.64113 4.38814 0)
(7.20376 4.75103 0)
(7.78291 5.10599 1.57959e-17)
(8.27741 5.36981 -1.84376e-18)
(8.36365 5.41937 8.67682e-19)
(8.23176 5.28256 4.63468e-19)
(7.84131 4.9406 0)
(6.97061 4.27236 -2.3956e-18)
(5.58154 3.40478 -9.35066e-18)
(4.2363 2.51825 -1.14454e-17)
(3.0592 1.76791 -4.63306e-18)
(2.12494 1.16198 5.64676e-18)
(1.50222 0.800187 -1.32004e-17)
(1.171 0.649192 2.34769e-17)
(0.907582 0.6128 1.36377e-19)
(0.399912 0.283111 -2.14415e-17)
(-0.556054 -0.352824 -3.23485e-18)
(3.55799 2.36966 0)
(5.41879 3.85959 -1.48674e-17)
(5.99666 4.15387 1.21539e-17)
(6.52187 4.55734 0)
(7.07223 4.90518 0)
(7.63655 5.2594 -3.37811e-17)
(8.13062 5.53065 0)
(8.22326 5.58629 0)
(8.10079 5.45127 4.9792e-19)
(7.72193 5.11086 1.77235e-18)
(6.86517 4.43545 -1.94279e-17)
(5.49158 3.55288 0)
(4.16831 2.6484 -1.27921e-17)
(3.01833 1.87718 1.82254e-19)
(2.08209 1.24651 -1.85131e-17)
(1.46503 0.890811 7.1236e-18)
(1.17663 0.726653 9.81602e-20)
(0.954686 0.702967 -2.51776e-17)
(0.369573 0.293318 1.14995e-17)
(-0.581757 -0.381597 3.45701e-18)
(3.41543 2.38652 0)
(5.2657 3.91139 -1.63508e-17)
(5.86677 4.2389 1.26487e-17)
(6.38572 4.65915 2.78949e-17)
(6.93801 5.02944 6.28026e-18)
(7.49864 5.39989 -3.90038e-18)
(7.99407 5.68059 3.16163e-18)
(8.09013 5.74072 -8.98399e-18)
(7.97481 5.60674 -5.33512e-19)
(7.60357 5.26753 1.02872e-17)
(6.75692 4.58717 1.6226e-17)
(5.39738 3.69294 3.17572e-18)
(4.09644 2.77311 1.83867e-17)
(2.96464 1.98359 1.13627e-17)
(2.09058 1.35087 1.32929e-17)
(1.53889 1.00901 -7.89036e-18)
(1.25899 0.849409 -9.3015e-18)
(0.998541 0.76508 1.10109e-17)
(0.338031 0.287793 -6.29464e-18)
(-0.621682 -0.439918 1.13798e-17)
(3.31536 2.45109 2.17772e-17)
(5.1967 4.04871 2.60712e-17)
(5.76782 4.38869 6.59456e-18)
(6.27712 4.80905 3.72547e-20)
(6.81882 5.16643 -2.11984e-17)
(7.36635 5.53407 9.60434e-18)
(7.86177 5.81827 -3.38153e-18)
(7.96346 5.88232 1.61465e-20)
(7.85422 5.74925 1.46708e-19)
(7.48796 5.41173 -1.17754e-17)
(6.64923 4.7277 9.65395e-19)
(5.3054 3.82542 0)
(4.02773 2.89433 0)
(2.91404 2.0872 -5.9514e-18)
(2.0361 1.43827 -2.19123e-17)
(1.48064 1.0849 1.70049e-17)
(1.23931 0.913107 1.02493e-17)
(1.01576 0.817925 0)
(0.319889 0.276408 2.03442e-17)
(-0.59254 -0.526508 -1.24021e-17)
(3.20079 2.46702 -1.14729e-17)
(5.06387 4.09358 9.59049e-18)
(5.65363 4.46376 -1.45653e-17)
(6.15801 4.89993 -1.66225e-17)
(6.70169 5.27783 -7.77507e-18)
(7.24598 5.65917 2.79809e-18)
(7.74213 5.9494 0)
(7.84584 6.01611 1.10513e-17)
(7.73902 5.88238 -5.64024e-19)
(7.37372 5.5442 0)
(6.54254 4.85677 0)
(5.21583 3.94907 2.24415e-18)
(3.95875 3.00962 3.03422e-18)
(2.85291 2.19248 -6.44749e-18)
(2.01902 1.54713 1.57261e-17)
(1.51287 1.21939 -1.82976e-17)
(1.26116 1.03365 -2.15749e-17)
(0.999841 0.804728 1.77623e-17)
(0.260202 0.201724 -7.54307e-18)
(-0.429331 -0.562517 4.40632e-18)
(3.12245 2.53143 1.25185e-17)
(5.0061 4.21527 0)
(5.56681 4.59466 0)
(6.06462 5.03267 -5.52542e-18)
(6.60016 5.40193 4.46653e-18)
(7.1348 5.78247 -2.00348e-19)
(7.63158 6.07515 -1.1655e-17)
(7.73765 6.14348 -1.29786e-17)
(7.63186 6.00854 -6.73064e-19)
(7.2663 5.66888 -1.18134e-18)
(6.44264 4.97756 2.84284e-18)
(5.13357 4.06569 -1.97158e-17)
(3.89603 3.12191 -2.0063e-17)
(2.7991 2.29692 -3.44166e-18)
(1.95724 1.65342 0)
(1.405 1.31366 -1.31135e-19)
(1.1724 1.08244 1.15685e-17)
(0.934917 0.794753 -1.95871e-17)
(0.321434 -0.0879278 1.62999e-17)
(-0.379333 -0.62063 1.43228e-17)
(3.03205 2.54917 -2.67523e-17)
(4.89249 4.25654 -1.10339e-17)
(5.46963 4.66059 8.0438e-20)
(5.96428 5.11298 6.43183e-18)
(6.50209 5.50301 0)
(7.03428 5.89871 2.28797e-17)
(7.53122 6.19868 1.4491e-17)
(7.63731 6.27006 -1.38302e-18)
(7.53011 6.13408 7.03544e-19)
(7.16229 5.79203 -1.16456e-18)
(6.34643 5.09662 1.07891e-18)
(5.05391 4.18028 1.72761e-17)
(3.83173 3.23324 1.94518e-17)
(2.7347 2.40915 3.34007e-18)
(1.91797 1.79204 1.65734e-17)
(1.42076 1.4842 0)
(1.11764 1.26623 0)
(0.597511 0.722003 1.32919e-17)
(-0.1255 0.263596 -1.66924e-19)
(-0.132143 1.20468 -1.51055e-17)
(2.97155 2.61204 1.43067e-17)
(4.84542 4.36452 3.41741e-17)
(5.39609 4.77664 -5.29236e-17)
(5.88516 5.23176 3.31469e-17)
(6.41567 5.61684 -4.29694e-18)
(6.93978 6.01554 2.81302e-17)
(7.43598 6.32096 0)
(7.54041 6.39571 1.21043e-17)
(7.43151 6.26027 0)
(7.06283 5.91804 1.23776e-17)
(6.256 5.2199 -1.73854e-18)
(4.97971 4.29941 1.94395e-18)
(3.77398 3.35257 2.25306e-17)
(2.68319 2.53508 -7.09104e-18)
(1.85474 1.95052 -8.47933e-18)
(1.25788 1.70744 0)
(0.816276 1.44628 0)
(0.390779 1.11263 0)
(0.0439677 1.61879 -7.92863e-18)
(0.147712 2.55927 -4.69701e-18)
(2.90108 2.63196 0)
(4.74945 4.4029 0)
(5.31436 4.83395 1.87783e-17)
(5.79874 5.30145 -2.77793e-17)
(6.3299 5.70667 1.98464e-17)
(6.85021 6.12228 -2.58666e-17)
(7.34418 6.43809 -1.52157e-18)
(7.44657 6.51881 1.17214e-18)
(7.33588 6.38557 3.58759e-19)
(6.96697 6.04465 -1.4122e-17)
(6.17029 5.34533 2.84131e-18)
(4.91007 4.42113 1.79042e-17)
(3.71895 3.476 -2.2474e-17)
(2.62665 2.67279 -2.42729e-17)
(1.81972 2.14614 8.202e-18)
(1.31095 1.91645 0)
(0.879355 1.67662 1.15829e-17)
(0.56964 1.73146 1.36909e-17)
(0.330434 2.67211 -1.55034e-17)
(0.380805 3.02008 1.86957e-17)
(2.85705 2.69228 0)
(4.71463 4.50068 2.63624e-17)
(5.25339 4.93831 -4.85108e-18)
(5.7311 5.40789 3.36488e-17)
(6.25502 5.80923 -2.08494e-17)
(6.7664 6.22929 0)
(7.25677 6.55271 0)
(7.3553 6.63888 0)
(7.24332 6.50895 -2.35453e-18)
(6.87622 6.1716 2.45545e-19)
(6.09106 5.47329 0)
(4.8474 4.54651 -1.76942e-17)
(3.6713 3.60462 0)
(2.59032 2.82123 1.742e-17)
(1.7968 2.34772 -1.20502e-17)
(1.20767 2.19617 -9.39312e-18)
(0.762908 2.12741 -2.24084e-17)
(0.588139 2.52772 -1.30396e-17)
(0.537134 3.13108 -2.12964e-17)
(0.534467 3.27302 1.84046e-17)
(2.80416 2.7112 -8.66458e-18)
(4.63708 4.53689 1.59245e-19)
(5.18615 4.98999 -5.05815e-18)
(5.65862 5.47073 -2.66794e-17)
(6.18188 5.89082 0)
(6.68683 6.32754 0)
(7.17196 6.66263 0)
(7.26679 6.75636 -6.03782e-19)
(7.15357 6.63084 2.52589e-18)
(6.78819 6.29804 0)
(6.01484 5.60203 0)
(4.79048 4.67594 0)
(3.62798 3.73672 0)
(2.56057 2.97913 1.34424e-17)
(1.80453 2.57998 3.24181e-17)
(1.3075 2.4643 9.63611e-18)
(1.08604 2.43389 2.23946e-17)
(0.891775 3.06878 -1.8885e-17)
(0.782722 3.43509 7.11957e-18)
(0.624255 3.49498 0)
(2.77237 2.76524 8.43261e-18)
(4.61334 4.6285 -5.23039e-17)
(5.13561 5.08859 -1.53144e-17)
(5.60196 5.57187 -3.87547e-18)
(6.11686 5.98798 4.93369e-18)
(6.61009 6.42878 -3.54622e-17)
(7.08855 6.77207 2.45037e-18)
(7.17871 6.87256 1.55778e-17)
(7.06485 6.75172 0)
(6.70275 6.42459 -1.09705e-18)
(5.94248 5.73197 1.00196e-18)
(4.73785 4.80783 0)
(3.59286 3.87248 0)
(2.55712 3.14347 -1.67906e-17)
(1.85612 2.79547 3.35826e-18)
(1.36907 2.72982 -9.25227e-18)
(1.08384 2.95227 2.11342e-17)
(0.877625 3.49718 1.84321e-17)
(0.746705 3.67547 -3.21401e-17)
(0.623592 3.68716 1.6519e-17)
(2.72303 2.7753 1.49179e-17)
(4.53914 4.65623 4.89168e-17)
(5.0704 5.13642 1.86949e-17)
(5.53179 5.63171 0)
(6.04435 6.06691 0)
(6.5286 6.52405 2.67916e-17)
(6.99971 6.87954 -1.63152e-17)
(7.08613 6.98867 -1.42673e-17)
(6.9729 6.8731 -4.91792e-19)
(6.61487 6.55188 9.41197e-18)
(5.86852 5.86244 -2.07723e-17)
(4.68633 4.94105 0)
(3.56431 4.01108 0)
(2.5663 3.31434 -1.24966e-17)
(1.91003 3.03481 -1.5373e-17)
(1.47962 3.0412 0)
(1.27561 3.27628 -3.05336e-17)
(1.14121 3.79677 -5.53757e-18)
(1.0016 3.97672 3.2124e-17)
(0.78272 4.00132 -1.61897e-17)
(2.6865 2.82456 -2.81633e-17)
(4.50899 4.74725 -2.31413e-17)
(5.00946 5.23419 0)
(5.46385 5.73142 0)
(5.96587 6.16129 0)
(6.43591 6.62161 0)
(6.89996 6.98597 1.73444e-17)
(6.98435 7.10335 -1.66059e-17)
(6.87407 6.99325 0)
(6.523 6.67866 -8.261e-18)
(5.79329 5.99284 3.77104e-17)
(4.63519 5.0733 1.68903e-18)
(3.54256 4.14947 2.58546e-18)
(2.59334 3.48633 2.1369e-17)
(1.99757 3.26013 -1.40378e-17)
(1.6136 3.28613 0)
(1.40128 3.63925 9.77432e-18)
(1.24452 4.17621 4.23067e-19)
(0.852561 4.24481 -5.27387e-18)
(0.547373 4.3312 9.9489e-18)
(2.62885 2.81017 1.38929e-17)
(4.41475 4.7547 -2.19065e-17)
(4.92482 5.26891 0)
(5.3731 5.77901 -6.10731e-18)
(5.87119 6.23003 2.34136e-17)
(6.33168 6.70797 0)
(6.78922 7.08608 0)
(6.87297 7.21424 2.98999e-17)
(6.76763 7.11058 -3.65342e-20)
(6.42495 6.80311 7.70914e-18)
(5.71331 6.12065 -1.78946e-17)
(4.58357 5.20288 1.28828e-17)
(3.52713 4.28612 0)
(2.63226 3.65544 -1.18389e-17)
(2.08684 3.48263 7.16194e-18)
(1.74269 3.58589 7.90995e-18)
(1.59962 4.00761 0)
(1.39716 4.37731 5.11267e-18)
(1.01056 4.76028 9.10402e-18)
(0.907315 4.91739 2.58128e-18)
(2.57051 2.85852 -2.5988e-17)
(4.36423 4.84531 3.11277e-17)
(4.84274 5.36178 2.38036e-17)
(5.28158 5.87138 -6.29647e-18)
(5.76757 6.31496 -3.53575e-17)
(6.2142 6.79563 0)
(6.6666 7.18352 1.33806e-17)
(6.75175 7.32139 -1.21407e-17)
(6.65341 7.22414 -1.01262e-18)
(6.32178 6.92423 -6.72909e-18)
(5.63136 6.24572 -7.70793e-19)
(4.53309 5.3288 -1.43808e-17)
(3.51777 4.41849 1.79355e-17)
(2.68302 3.81911 5.54322e-18)
(2.19744 3.693 -1.28374e-17)
(1.92105 3.82036 1.46534e-17)
(1.80508 4.17363 0)
(1.64622 4.833 0)
(1.33807 5.14351 2.8475e-18)
(0.506163 5.19376 -7.6449e-18)
(2.495 2.82942 1.22673e-17)
(4.24866 4.83534 2.89536e-17)
(4.7351 5.38374 -2.2927e-17)
(5.16661 5.90603 2.29532e-17)
(5.64911 6.37271 3.36751e-17)
(6.08834 6.87194 0)
(6.53675 7.27429 -1.44091e-17)
(6.62367 7.42359 -1.44467e-17)
(6.5335 7.33271 0)
(6.21384 7.03989 0)
(5.54623 6.36483 0)
(4.48455 5.44917 0)
(3.51443 4.54486 -2.04645e-17)
(2.74026 3.97099 -7.88154e-18)
(2.31173 3.87525 0)
(2.08039 4.0213 -7.38033e-18)
(2.07194 4.54106 0)
(2.13175 4.76924 -3.48997e-18)
(2.15288 4.64849 6.83352e-18)
(1.2408 4.69154 -4.04174e-18)
(2.41191 2.87419 -2.29218e-17)
(4.17542 4.93176 -1.81963e-17)