/*--------------------------------*- C++ -*----------------------------------*\
| =========                 |                                                 |
| \\      /  F ield         | OpenFOAM: The Open Source CFD Toolbox           |
|  \\    /   O peration     | Version:  2412                                  |
|   \\  /    A nd           | Website:  www.openfoam.com                      |
|    \\/     M anipulation  |                                                 |
\*---------------------------------------------------------------------------*/
FoamFile
{
    version     2.0;
    format      ascii;
    arch        "LSB;label=32;scalar=64";
    class       volScalarField;
    location    "0.01";
    object      epsilon;
}
// * * * * * * * * * * * * * * * * * * * * * * * * * * * * * * * * * * * * * //

dimensions      [0 2 -3 0 0 0 0];

internalField   nonuniform List<scalar> 
12225
(
448.199
622.891
831.635
1008.2
1157.38
1282.05
1386.47
1474.5
1549.12
1612.68
1667.06
1713.68
1753.53
1787.28
1815.31
1837.73
1856.6
1882.52
173.693
302.099
403.58
481.552
542.017
590.026
628.428
659.373
684.529
705.126
722.096
736.157
747.868
757.662
765.878
772.633
778.319
780.373
119.391
232.374
315.744
377.006
422.658
457.462
484.158
504.712
520.624
532.995
542.646
550.207
556.178
560.965
564.915
568.306
571.623
575.086
97.5745
199.835
277.713
335.028
377.383
409.018
432.683
450.365
463.564
473.392
480.683
486.08
490.093
493.149
495.634
497.955
500.798
505.218
83.5513
175.988
251.153
308.12
350.782
382.624
406.285
423.768
436.603
445.947
452.681
457.491
460.926
463.456
465.519
467.612
470.494
475.243
71.854
153.512
225.504
282.728
326.889
360.41
385.584
404.32
418.134
428.212
435.482
440.678
444.397
447.156
449.444
451.805
454.967
459.79
61.1765
130.694
197.485
253.859
299.27
334.832
362.202
383.017
398.685
410.362
418.988
425.329
430.022
433.622
436.652
439.667
443.309
448.174
51.4836
108.072
167.126
220.439
265.685
302.634
332.086
355.205
373.15
386.955
397.51
405.573
411.79
416.734
420.936
424.929
429.247
434.259
43.0305
86.9785
136.249
183.892
226.729
263.48
294.047
318.977
339.043
355.049
367.75
377.833
385.908
392.526
398.197
403.403
408.57
413.89
35.9825
68.6142
107.255
147.08
185.056
219.416
249.381
274.883
296.236
313.925
328.49
340.476
350.4
358.744
365.959
372.454
378.554
384.321
30.3238
53.5809
82.105
113.112
144.34
174.128
201.412
225.694
246.881
265.121
280.697
293.956
305.271
315.011
323.529
331.143
338.082
344.315
26.2185
42.7129
63.2314
86.3296
110.572
134.729
157.832
179.251
198.669
215.997
231.295
244.724
256.499
266.858
276.044
284.278
291.699
298.207
23.0039
34.3397
48.4476
64.6996
82.3219
100.558
118.705
136.204
152.675
167.9
181.789
194.351
205.658
215.824
224.978
233.245
240.689
247.163
20.2631
27.3734
36.0896
46.2424
57.5174
69.5632
82.0025
94.474
106.678
118.391
129.464
139.813
149.406
158.247
166.367
173.799
180.541
186.431
18.0608
22.0066
26.6856
32.1062
38.1912
44.8323
51.8924
59.2132
66.638
74.0269
81.2639
88.2587
94.9454
101.279
107.232
112.782
117.892
122.424
16.4079
18.2031
20.2396
22.5469
25.1216
27.9493
31.0045
34.2476
37.6299
41.0995
44.6052
48.0991
51.5382
54.8846
58.1059
61.1732
64.0519
66.6662
15.2917
15.7893
16.3486
16.9801
17.6848
18.4621
19.3106
20.2261
21.2009
22.2253
23.2881
24.3768
25.4787
26.5808
27.6705
28.7359
29.7638
30.735
14.7418
14.6564
14.6051
14.5886
14.605
14.6532
14.7325
14.8426
14.9832
15.1542
15.3552
15.5861
15.8466
16.1363
16.455
16.8026
17.1794
17.5884
14.9189
15.0201
15.1661
15.3629
15.613
15.9189
16.2843
16.7131
17.2103
17.7863
18.4463
19.1941
20.0332
20.9665
21.997
23.1275
24.3601
25.6882
16.0265
17.3935
18.9697
20.7948
22.8895
25.2684
27.9412
30.9076
34.1559
37.6601
41.3977
45.345
49.4776
53.7725
58.2126
62.8015
67.5381
72.3432
18.1428
22.239
27.1636
32.9644
39.607
47.0231
55.114
63.7534
72.8039
82.1331
91.6225
101.17
110.691
120.115
129.38
138.41
147.121
155.382
21.6995
31.0364
42.7082
56.4228
71.7033
88.0512
104.965
121.981
138.726
154.928
170.404
185.045
198.798
211.653
223.625
234.741
245.009
254.329
27.3985
45.8398
68.9149
94.9016
122.147
149.347
175.496
199.925
222.281
242.446
260.45
276.41
290.493
302.886
313.773
323.328
331.692
338.953
35.9284
68.348
107.064
147.263
185.919
221.358
252.732
279.84
302.888
322.265
338.422
351.811
362.851
371.916
379.328
385.357
390.226
394.124
47.6336
98.3333
153.448
204.906
249.915
287.808
318.844
343.805
363.623
379.186
391.275
400.553
407.57
412.776
416.532
419.129
420.8
421.759
62.0891
132.383
199.848
256.45
301.951
337.624
365.064
385.872
401.442
412.908
421.173
426.95
430.797
433.149
434.347
434.651
434.27
433.406
78.5991
166.133
240.227
297.418
340.601
372.862
396.715
414.138
426.671
435.489
441.486
445.337
447.553
448.526
448.555
447.865
446.633
445.038
99.6316
200.923
279.245
337.334
379.709
410.803
433.628
450.244
462.199
470.654
476.459
480.249
482.498
483.566
483.728
483.193
482.119
480.67
144.728
257.687
347.192
415.317
465.353
502.85
531.227
552.687
568.901
581.113
590.228
596.925
601.717
604.999
607.077
608.186
608.505
608.222
366.845
496.452
661.52
799.534
911.492
1001.41
1073.33
1131.07
1177.61
1215.16
1245.45
1269.85
1289.42
1304.97
1317.16
1326.5
1333.38
1338.21
8.6239
9.79432
13.992
17.6424
20.8928
23.8509
26.6109
29.2631
31.89
34.5613
37.3341
40.2552
43.3142
46.4982
49.7993
53.2057
56.7029
60.2749
63.9052
67.5776
71.277
74.9899
78.7046
82.4122
86.1072
89.7885
93.4608
97.1384
100.842
104.308
107.475
110.309
112.773
114.836
116.468
117.645
118.348
118.567
118.299
117.55
116.337
114.687
112.638
110.24
107.552
104.649
101.621
98.5732
95.6217
92.8842
90.4886
88.4596
86.4959
84.525
82.558
80.6192
78.7343
76.9266
75.2161
73.6191
72.1482
70.8121
69.6166
68.564
67.6542
66.8848
66.2513
65.7479
65.3675
65.102
64.943
64.8813
64.9081
65.014
65.1904
65.4286
65.7203
66.0577
66.4337
66.8415
67.2748
67.7281
68.1962
68.6745
69.1592
69.6465
70.1334
70.6173
71.0959
71.5673
72.0299
72.4825
72.924
73.3536
73.7708
74.1752
74.5666
74.9448
75.3099
75.662
76.0013
76.3279
76.6424
76.9449
77.2358
77.5155
77.7844
78.0421
78.2858
78.5153
78.7307
78.9329
79.123
79.3023
79.4722
79.634
79.7891
79.9383
80.0826
80.2227
80.3592
80.4927
80.6235
80.752
80.8786
81.0035
81.127
81.2492
81.3703
81.4905
81.6101
81.729
81.8475
81.9656
82.0835
82.2014
82.3192
82.4372
82.5554
82.674
82.793
82.9126
83.0327
83.1535
83.275
83.3973
83.5203
83.6443
83.769
83.8946
84.0211
84.1484
84.2764
84.4052
84.5348
84.6649
84.7955
84.9265
85.0578
85.1889
85.3198
85.4498
85.5785
85.7051
85.8287
85.9479
86.0611
86.1659
86.2594
86.3374
86.3942
86.4219
86.4094
86.3399
86.1885
85.9138
85.4531
84.6639
83.4285
80.8362
25.8727
15.6206
17.128
19.4987
21.6089
23.3328
24.7291
25.8887
26.8973
27.8233
28.7147
29.6011
30.4966
31.4068
32.3335
33.2756
34.2312
35.1987
36.1775
37.1682
38.1729
39.1953
40.2401
41.3137
42.4232
43.5773
44.7853
46.0588
47.4148
48.8209
50.1779
51.4582
52.6412
53.7069
54.6364
55.4116
56.0166
56.4382
56.666
56.6933
56.5174
56.1397
55.5661
54.8065
53.8747
52.7879
51.5669
50.2347
48.8141
47.3254
45.7832
44.1996
42.6366
41.0765
39.5257
37.9984
36.509
35.0701
33.6922
32.3839
31.1514
29.9991
28.9296
27.9438
27.0414
26.2207
25.4793
24.814
24.2209
23.6958
23.2344
22.8319
22.4839
22.1858
21.9331
21.7216
21.5472
21.4061
21.2948
21.2099
21.1483
21.1072
21.084
21.0764
21.0821
21.0994
21.1263
21.1615
21.2035
21.251
21.3031
21.3587
21.4169
21.4772
21.5389
21.6013
21.6641
21.7268
21.7891
21.8508
21.9116
21.9714
22.0299
22.0872
22.1431
22.1976
22.2509
22.3039
22.3637
22.4279
22.4927
22.5564
22.6182
22.6773
22.7337
22.7873
22.8383
22.8869
22.9332
22.9776
23.0202
23.0611
23.1006
23.1387
23.1757
23.2115
23.2463
23.2802
23.3133
23.3457
23.3774
23.4086
23.4392
23.4694
23.4992
23.5286
23.5578
23.5867
23.6154
23.6439
23.6724
23.7007
23.729
23.7573
23.7857
23.8141
23.8427
23.8714
23.9003
23.9295
23.9589
23.9887
24.0188
24.0492
24.0801
24.1114
24.1433
24.1757
24.2088
24.2426
24.2773
24.3131
24.35
24.3884
24.4286
24.4711
24.5164
24.5653
24.6189
24.6789
24.7475
24.8283
24.9269
25.0524
25.221
25.4621
25.8352
26.4534
27.5978
29.7779
45.7725
21.7091
20.899
22.3178
23.8266
25.0702
26.039
26.8008
27.4349
28.0095
28.5744
29.1624
29.7923
30.474
31.2118
32.0073
32.8613
33.7746
34.7488
35.7861
36.8892
38.0608
39.3031
40.6175
42.0037
43.4599
44.9821
46.5637
48.1947
49.8285
51.4122
52.9177
54.3208
55.5978
56.7258
57.6832
58.4503
59.01
59.3483
59.455
59.3239
58.953
58.3448
57.5065
56.4491
55.1874
53.74
52.1286
50.3776
48.5121
46.5568
44.5293
42.531
40.5394
38.5655
36.6261
34.7379
32.9151
31.1696
29.5108
27.9453
26.4777
25.1104
23.8436
22.6764
21.6064
20.6301
19.7432
18.941
18.2182
17.5696
16.9895
16.4727
16.0138
15.6078
15.2497
14.9351
14.6597
14.4196
14.211
14.0306
13.8755
13.7427
13.6298
13.5344
13.4546
13.3884
13.3342
13.2906
13.2561
13.2296
13.21
13.1964
13.188
13.184
13.1837
13.1867
13.1923
13.2002
13.2099
13.2212
13.2337
13.2472
13.2615
13.2763
13.2916
13.3072
13.3231
13.3395
13.3567
13.3758
13.3957
13.416
13.4364
13.4566
13.4766
13.4962
13.5153
13.5339
13.552
13.5695
13.5865
13.603
13.619
13.6346
13.6497
13.6644
13.6787
13.6926
13.7063
13.7196
13.7327
13.7456
13.7583
13.7707
13.783
13.7952
13.8073
13.8192
13.8311
13.843
13.8547
13.8665
13.8782
13.8899
13.9017
13.9135
13.9253
13.9372
13.9491
13.9612
13.9734
13.9857
13.9982
14.0108
14.0237
14.0367
14.05
14.0636
14.0775
14.0917
14.1064
14.1216
14.1375
14.154
14.1715
14.1901
14.2103
14.2323
14.2569
14.285
14.3179
14.3577
14.4078
14.4741
14.567
14.7075
14.9369
15.3612
16.1798
66.9317
27.671
24.4636
25.0773
26.2504
27.3795
28.3682
29.2421
30.0553
30.8597
31.6944
32.5842
33.5427
34.5752
35.6826
36.864
38.1179
39.4439
40.8424
42.3146
43.8622
45.4862
47.1868
48.9623
50.8088
52.7193
54.6838
56.6881
58.7143
60.7022
62.5992
64.3738
65.9986
67.4477
68.6961
69.7204
70.4997
71.016
71.2549
71.2058
70.8627
70.2244
69.2946
68.0818
66.5998
64.8665
62.9039
60.7383
58.4001
55.9221
53.3382
50.6881
48.075
45.4811
42.9217
40.4181
37.9907
35.6569
33.4309
31.3237
29.3425
27.4919
25.7737
24.1871
22.7296
21.397
20.1838
19.0838
18.0901
17.1954
16.3924
15.6737
15.0321
14.4608
13.9533
13.5034
13.1055
12.7542
12.4447
12.1726
11.9339
11.7249
11.5423
11.3832
11.245
11.1252
11.0218
10.9328
10.8565
10.7914
10.7362
10.6897
10.6508
10.6186
10.5922
10.5709
10.554
10.5409
10.5312
10.5243
10.5199
10.5176
10.5172
10.5182
10.5206
10.524
10.5284
10.5336
10.5395
10.546
10.5532
10.5615
10.5704
10.5798
10.5896
10.5997
10.6098
10.62
10.6302
10.6404
10.6503
10.6602
10.6699
10.6793
10.6886
10.6977
10.7066
10.7153
10.7238
10.7321
10.7403
10.7483
10.7562
10.764
10.7716
10.7792
10.7867
10.7941
10.8015
10.8088
10.816
10.8232
10.8304
10.8376
10.8448
10.852
10.8591
10.8664
10.8736
10.8809
10.8882
10.8956
10.903
10.9106
10.9182
10.926
10.9338
10.9418
10.95
10.9583
10.9669
10.9756
10.9847
10.9941
11.0039
11.0143
11.0253
11.0371
11.0499
11.0642
11.0803
11.099
11.1214
11.1492
11.1853
11.2347
11.307
11.4209
11.6174
11.9672
89.361
33.8216
28.1847
28.1543
29.2257
30.5189
31.8379
33.1574
34.4984
35.8882
37.3471
38.8843
40.501
42.1926
43.9529
45.776
47.6581
49.5975
51.5947
53.6512
55.7687
57.9477
60.1868
62.4816
64.8241
67.2024
69.6005
71.9984
74.3722
76.6487
78.7783
80.7293
82.4736
83.9848
85.2376
86.2087
86.8772
87.2253
87.2391
86.9087
86.2289
85.1993
83.825
82.1162
80.089
77.7644
75.1684
72.3313
69.2886
66.0802
62.7479
59.3669
56.0248
52.7113
49.4487
46.2647
43.1854
40.2332
37.4261
34.7775
32.2966
29.9883
27.854
25.8919
24.0975
22.4645
20.9847
19.6491
18.448
17.3711
16.4084
15.55
14.7863
14.1082
13.5072
12.9754
12.5054
12.0907
11.7251
11.4033
11.1203
10.8717
10.6537
10.4626
10.2953
10.1492
10.0217
9.91071
9.81423
9.73059
9.65825
9.59588
9.54229
9.49642
9.45734
9.42423
9.39634
9.37303
9.35372
9.33791
9.32515
9.31504
9.30722
9.3014
9.2973
9.29468
9.29334
9.2931
9.29381
9.29535
9.29766
9.3008
9.3047
9.30923
9.31426
9.31971
9.32548
9.3315
9.3377
9.344
9.35037
9.35676
9.36314
9.36947
9.37574
9.38193
9.38804
9.39406
9.39999
9.40582
9.41156
9.41721
9.42279
9.42829
9.43372
9.43909
9.4444
9.44967
9.45489
9.46008
9.46524
9.47037
9.47549
9.48059
9.48569
9.49079
9.49589
9.50101
9.50614
9.5113
9.51649
9.52171
9.52699
9.53231
9.5377
9.54316
9.5487
9.55433
9.56006
9.56591
9.5719
9.57804
9.58437
9.59092
9.59775
9.6049
9.61248
9.62058
9.62936
9.63904
9.64992
9.66246
9.67732
9.69558
9.71897
9.75046
9.79538
9.86371
9.97465
10.1569
113.091
40.3815
32.3255
31.8225
33.0222
34.7427
36.6775
38.7431
40.9202
43.2036
45.5851
48.0493
50.5762
53.1455
55.7402
58.3484
60.9647
63.5887
66.2238
68.875
71.5471
74.2429
76.9617
79.6985
82.4437
85.1824
87.8948
90.5567
93.1407
95.5642
97.791
99.7921
101.54
103.01
104.174
105.012
105.501
105.625
105.37
104.725
103.685
102.25
100.423
98.2138
95.6387
92.7191
89.4821
85.9605
82.1918
78.2201
74.0907
69.9352
65.798
61.6848
57.6286
53.6662
49.8323
46.1568
42.664
39.3725
36.295
33.4387
30.8057
28.3939
26.1973
24.2072
22.4128
20.8016
19.3604
18.0754
16.9331
15.9201
15.0237
14.2319
13.5336
12.9185
12.3772
11.9013
11.4831
11.1159
10.7936
10.5109
10.2629
10.0456
9.8552
9.6885
9.54264
9.41513
9.30376
9.20661
9.12197
9.04835
8.98444
8.92907
8.88123
8.84
8.80459
8.77429
8.74849
8.72662
8.70821
8.69282
8.68008
8.66963
8.6612
8.65452
8.64935
8.64551
8.64281
8.6411
8.64029
8.64031
8.64114
8.64266
8.64477
8.64738
8.65041
8.65378
8.65742
8.66127
8.66529
8.66942
8.67362
8.67788
8.68215
8.68643
8.69069
8.69492
8.69912
8.70328
8.7074
8.71147
8.7155
8.71949
8.72344
8.72736
8.73124
8.73509
8.73891
8.74272
8.7465
8.75027
8.75403
8.75779
8.76153
8.76528
8.76904
8.7728
8.77658
8.78037
8.78419
8.78804
8.79191
8.79583
8.79979
8.8038
8.80787
8.812
8.81621
8.8205
8.82488
8.82938
8.83401
8.83879
8.84376
8.84897
8.85446
8.86033
8.86666
8.87362
8.88141
8.89035
8.90088
8.91374
8.93009
8.95183
8.98231
9.02744
9.09744
9.20547
138.191
47.501
37.0694
36.2848
37.8601
40.2872
43.1347
46.2483
49.5552
53.0031
56.5412
60.1179
63.6851
67.2043
70.6496
74.0095
77.2844
80.484
83.6225
86.7159
89.7779
92.8183
95.8408
98.8431
101.816
104.743
107.604
110.37
113.012
115.444
117.646
119.594
121.26
122.618
123.642
124.31
124.602
124.5
123.991
123.064
121.714
119.935
117.732
115.109
112.079
108.659
104.874
100.756
96.3433
91.6809
86.8093
81.9257
77.0068
72.0846
67.2057
62.4183
57.7679
53.2948
49.0331
45.0096
41.244
37.7485
34.5288
31.5842
28.9089
26.4928
24.3228
22.383
20.6566
19.1258
17.7729
16.5803
15.5317
14.6112
13.8044
13.0981
12.4803
11.9401
11.4681
11.0556
10.6952
10.3802
10.1048
9.86412
9.65366
9.46962
9.30867
9.16792
9.04487
8.93732
8.84337
8.76136
8.68984
8.62753
8.57333
8.52625
8.48544
8.45014
8.41969
8.3935
8.37105
8.35189
8.3356
8.32185
8.3103
8.30069
8.29276
8.2863
8.28113
8.27708
8.27403
8.27186
8.27053
8.26994
8.26999
8.27059
8.27166
8.27312
8.27491
8.27697
8.27925
8.2817
8.28429
8.28698
8.28974
8.29255
8.2954
8.29827
8.30114
8.30402
8.30688
8.30974
8.31258
8.3154
8.31821
8.321
8.32377
8.32653
8.32928
8.33202
8.33475
8.33747
8.34019
8.34291
8.34562
8.34834
8.35106
8.3538
8.35654
8.3593
8.36208
8.36487
8.3677
8.37055
8.37343
8.37635
8.37931
8.38232
8.38539
8.38851
8.39171
8.39498
8.39835
8.40183
8.40544
8.40923
8.41322
8.41747
8.42206
8.42709
8.43272
8.43916
8.44675
8.45599
8.46769
8.48318
8.50466
8.53587
8.58277
8.65195
164.822
55.332
42.5794
41.7146
43.9225
47.3378
51.3808
55.804
60.4584
65.2253
69.9986
74.6857
79.2144
83.5389
87.6402
91.5229
95.2089
98.7297
102.12
105.413
108.635
111.805
114.933
118.018
121.052
124.018
126.895
129.656
132.24
134.592
136.7
138.538
140.076
141.287
142.148
142.637
142.735
142.429
141.707
140.557
138.973
136.95
134.484
131.579
128.238
124.473
120.302
115.748
110.845
105.631
100.23
94.7221
89.1167
83.4599
77.8092
72.2235
66.7601
61.4715
56.4042
51.5967
47.0793
42.8731
38.9908
35.4366
32.2074
29.2941
26.6825
24.3548
22.2907
20.4686
18.8663
17.462
16.2346
15.1641
14.2321
13.4218
12.7179
12.1067
11.5761
11.1155
10.7155
10.3679
10.0657
9.80279
9.57386
9.37438
9.20044
9.04868
8.91619
8.8005
8.69944
8.61117
8.53408
8.46678
8.40806
8.35687
8.31229
8.27351
8.23984
8.21065
8.1854
8.16362
8.14487
8.1288
8.11507
8.10339
8.0935
8.08519
8.07826
8.07253
8.06786
8.06413
8.06126
8.05916
8.05772
8.05686
8.0565
8.05656
8.05697
8.05769
8.05867
8.05984
8.06119
8.06268
8.06428
8.06596
8.06771
8.0695
8.07134
8.0732
8.07508
8.07697
8.07886
8.08076
8.08266
8.08456
8.08646
8.08835
8.09024
8.09214
8.09402
8.09591
8.0978
8.09969
8.10159
8.10349
8.10539
8.1073
8.10923
8.11116
8.11311
8.11508
8.11706
8.11907
8.1211
8.12316
8.12525
8.12737
8.12953
8.13174
8.134
8.13631
8.13869
8.14115
8.14371
8.14639
8.14922
8.15223
8.15548
8.15905
8.16305
8.16764
8.17305
8.17966
8.18804
8.19915
8.21449
8.23654
8.26902
8.31548
193.193
64.0262
48.9783
48.2104
51.2747
55.9062
61.3416
67.2083
73.2577
79.2927
85.1536
90.7212
95.9223
100.729
105.154
109.236
113.03
116.598
119.996
123.274
126.469
129.606
132.7
135.751
138.751
141.681
144.517
147.23
149.708
151.959
153.955
155.666
157.058
158.106
158.788
159.087
158.993
158.495
157.586
156.261
154.513
152.334
149.719
146.663
143.163
139.221
134.844
130.046
124.851
119.326
113.586
107.632
101.503
95.2562
88.9564
82.671
76.4674
70.4105
64.5601
58.9687
53.6799
48.7275
44.1347
39.9146
36.0706
32.5975
29.4829
26.7088
24.2532
22.0913
20.1971
18.5442
17.1069
15.8606
14.7824
13.8512
13.0479
12.3556
11.759
11.2449
10.8017
10.4193
10.0892
9.80379
9.55678
9.34273
9.157
8.99564
8.85529
8.73309
8.6266
8.53373
8.45271
8.38198
8.32025
8.26638
8.21938
8.1784
8.14269
8.11162
8.08462
8.06119
8.04089
8.02334
8.00821
7.9952
7.98405
7.97453
7.96643
7.95958
7.95383
7.94905
7.94514
7.942
7.93954
7.93767
7.9363
7.93536
7.9348
7.93455
7.93458
7.93483
7.93527
7.93586
7.93659
7.93743
7.93835
7.93934
7.94038
7.94147
7.9426
7.94375
7.94492
7.94611
7.94732
7.94853
7.94975
7.95097
7.9522
7.95344
7.95468
7.95592
7.95716
7.95842
7.95967
7.96093
7.9622
7.96347
7.96476
7.96605
7.96736
7.96868
7.97001
7.97136
7.97272
7.97411
7.97552
7.97695
7.97841
7.9799
7.98143
7.98299
7.98461
7.98628
7.98802
7.98984
7.99177
7.99382
7.99605
7.99851
8.00126
8.00444
8.00823
8.01288
8.01884
8.02678
8.03779
8.05356
8.07652
8.10878
223.425
73.686
56.2922
55.7161
59.7599
65.7036
72.5594
79.802
87.0733
94.107
100.715
106.783
112.271
117.195
121.614
125.611
129.276
132.693
135.937
139.07
142.136
145.165
148.172
151.158
154.113
157.012
159.821
162.491
164.919
167.109
169.023
170.62
171.866
172.736
173.215
173.297
172.984
172.277
171.18
169.693
167.815
165.538
162.855
159.754
156.223
152.253
147.836
142.978
137.722
132.14
126.233
120.028
113.571
106.92
100.141
93.3058
86.4897
79.7679
73.2125
66.8902
60.8593
55.1685
49.8547
44.9435
40.4481
36.3711
32.7053
29.4353
26.5394
23.9917
21.7632
19.8238
18.1435
16.6929
15.4446
14.3727
13.4542
12.6679
11.9953
11.4202
10.9282
10.5071
10.1463
9.83688
9.57103
9.34227
9.14508
8.97481
8.82753
8.69991
8.58918
8.49295
8.40924
8.33634
8.27282
8.21743
8.16913
8.127
8.09028
8.05827
8.03039
8.00614
7.98506
7.96677
7.95091
7.9372
7.92537
7.91519
7.90644
7.89896
7.89259
7.88719
7.88266
7.8789
7.8758
7.87328
7.87127
7.86969
7.86848
7.8676
7.86699
7.86661
7.86642
7.86641
7.86654
7.86678
7.86712
7.86754
7.86802
7.86856
7.86915
7.86977
7.87042
7.8711
7.8718
7.87251
7.87324
7.87397
7.87472
7.87547
7.87623
7.877
7.87777
7.87855
7.87934
7.88013
7.88093
7.88173
7.88254
7.88336
7.88418
7.88502
7.88587
7.88673
7.8876
7.88848
7.88938
7.8903
7.89123
7.89219
7.89317
7.89418
7.89522
7.8963
7.89743
7.89861
7.89987
7.90121
7.90267
7.9043
7.90614
7.90828
7.91086
7.91409
7.91829
7.92396
7.9319
7.94331
7.95987
7.98292
255.297
84.29
64.3871
63.9566
68.9373
76.0997
84.1994
92.5494
100.695
108.331
115.276
121.456
126.884
131.634
135.811
139.536
142.922
146.073
149.075
151.998
154.895
157.802
160.738
163.704
166.683
169.639
172.522
175.269
177.769
180.003
181.913
183.444
184.559
185.237
185.477
185.294
184.706
183.738
182.409
180.733
178.717
176.359
173.647
170.566
167.091
163.209
158.881
154.181
149.08
143.578
137.685
131.426
124.841
117.982
110.913
103.704
96.4356
89.1894
82.0478
75.0901
68.3892
62.009
56.0022
50.4087
45.2552
40.555
36.3095
32.509
29.1353
26.1632
23.563
21.3019
19.3464
17.663
16.2196
14.9858
13.9341
13.0392
12.2788
11.6331
11.0851
10.6197
10.2242
9.88774
9.6011
9.35646
9.14725
8.96797
8.81399
8.68147
8.56716
8.46838
8.38286
8.30869
8.24429
8.18831
8.13959
8.09719
8.06025
8.02808
8.00007
7.97569
7.95448
7.93604
7.92004
7.90616
7.89414
7.88376
7.8748
7.8671
7.86049
7.85483
7.85003
7.84597
7.84256
7.83971
7.83736
7.83542
7.83385
7.83259
7.83161
7.83085
7.83029
7.82989
7.82964
7.82951
7.82947
7.82953
7.82965
7.82983
7.83006
7.83033
7.83063
7.83097
7.83132
7.8317
7.83209
7.83249
7.83291
7.83333
7.83377
7.83421
7.83465
7.83511
7.83557
7.83603
7.8365
7.83697
7.83745
7.83794
7.83843
7.83893
7.83944
7.83995
7.84048
7.84101
7.84155
7.84211
7.84267
7.84325
7.84385
7.84446
7.8451
7.84576
7.84645
7.84718
7.84795
7.84879
7.84971
7.85074
7.85193
7.85334
7.85507
7.8573
7.86025
7.86433
7.87014
7.87856
7.89079
7.90778
287.943
95.6247
72.945
72.4454
78.1346
86.2386
95.2458
104.319
112.934
120.778
127.705
133.697
138.822
143.204
146.985
150.309
153.307
156.097
158.779
161.439
164.147
166.953
169.884
172.944
176.106
179.318
182.506
185.524
188.305
190.765
192.809
194.363
195.385
195.868
195.831
195.317
194.378
193.066
191.428
189.499
187.298
184.828
182.086
179.047
175.665
171.974
167.923
163.482
158.626
153.343
147.628
141.494
134.967
128.089
120.915
113.515
105.966
98.3533
90.7673
83.2972
76.0289
69.0408
62.4014
56.1664
50.3774
45.0613
40.2306
35.8844
32.0107
28.5878
25.5872
22.9755
20.7168
18.7745
17.1122
15.6956
14.4925
13.4734
12.6121
11.8852
11.2723
10.7556
10.3199
9.95235
9.6418
9.37903
9.15627
8.96701
8.80583
8.66823
8.55046
8.44941
8.36251
8.28761
8.22293
8.16697
8.11849
8.07644
8.03993
8.00821
7.98064
7.95668
7.93586
7.91778
7.90208
7.88847
7.87667
7.86647
7.85766
7.85006
7.84352
7.8379
7.83311
7.82902
7.82555
7.82262
7.82016
7.8181
7.81638
7.81497
7.81381
7.81287
7.81212
7.81153
7.81107
7.81074
7.81049
7.81033
7.81024
7.81021
7.81023
7.81029
7.81038
7.8105
7.81064
7.81081
7.81099
7.81118
7.81139
7.8116
7.81182
7.81205
7.81229
7.81253
7.81278
7.81303
7.81329
7.81355
7.81381
7.81408
7.81435
7.81463
7.81491
7.8152
7.81549
7.81579
7.81609
7.81641
7.81673
7.81706
7.81739
7.81774
7.81811
7.81849
7.81889
7.81931
7.81977
7.82026
7.82082
7.82145
7.8222
7.82311
7.82427
7.82581
7.82792
7.83093
7.83529
7.84169
7.85101
7.86399
319.646
107.272
81.5211
80.6026
86.6319
95.2905
104.81
114.222
122.957
130.712
137.379
142.989
147.654
151.529
154.78
157.567
160.037
162.329
164.571
166.882
169.364
172.096
175.125
178.454
182.038
185.787
189.562
193.18
196.535
199.468
201.838
203.55
204.558
204.871
204.538
203.64
202.271
200.523
198.484
196.218
193.758
191.11
188.303
185.32
182.116
178.652
174.881
170.757
166.236
161.286
155.886
150.028
143.721
136.994
129.89
122.47
114.809
106.991
99.1101
91.2637
83.548
76.0547
68.867
62.0563
55.6799
49.7795
44.3809
39.4943
35.1162
31.2309
27.8134
24.8317
22.2491
20.0268
18.1257
16.5075
15.1359
13.9777
13.0024
12.183
11.4957
10.9198
10.4375
10.0335
9.69481
9.41065
9.17182
8.97072
8.801
8.65741
8.53561
8.43201
8.34365
8.2681
8.20334
8.1477
8.09979
8.05848
8.0228
7.99194
7.96523
7.9421
7.92206
7.90471
7.88968
7.87666
7.86541
7.85569
7.84729
7.84006
7.83383
7.82849
7.82391
7.82001
7.81668
7.81385
7.81146
7.80945
7.80775
7.80634
7.80516
7.80418
7.80338
7.80273
7.8022
7.80177
7.80144
7.80118
7.80099
7.80085
7.80076
7.8007
7.80067
7.80067
7.80069
7.80074
7.80079
7.80086
7.80094
7.80102
7.80112
7.80122
7.80133
7.80144
7.80155
7.80167
7.80179
7.80192
7.80204
7.80217
7.80231
7.80245
7.80259
7.80273
7.80288
7.80303
7.80318
7.80334
7.8035
7.80367
7.80385
7.80403
7.80422
7.80442
7.80463
7.80486
7.80511
7.80539
7.80571
7.80609
7.80655
7.80714
7.80793
7.80903
7.81059
7.81289
7.81629
7.82133
7.82872
7.83902
347.784
118.71
89.7067
87.9741
93.9287
102.747
112.428
121.888
130.516
138.012
144.292
149.412
153.51
156.755
159.328
161.404
163.157
164.763
166.399
168.237
170.435
173.113
176.338
180.111
184.351
188.906
193.559
198.095
202.305
205.96
208.872
210.916
212.041
212.267
211.676
210.395
208.565
206.32
203.794
201.121
198.346
195.503
192.599
189.62
186.526
183.267
179.783
176.01
171.886
167.355
162.374
156.915
150.966
144.536
137.656
130.374
122.757
114.887
106.859
98.7749
90.7388
82.8538
75.2163
67.9129
61.0162
54.5833
48.6542
43.2517
38.3828
34.0397
30.2029
26.8434
23.9257
21.4104
19.2563
17.4222
15.8686
14.5582
13.4571
12.5346
11.7636
11.1204
10.5844
10.138
9.76625
9.45655
9.19828
8.98261
8.80218
8.65092
8.5238
8.41669
8.32621
8.24955
8.18444
8.12899
8.08165
8.04114
8.00641
7.97659
7.95095
7.92888
7.90986
7.89347
7.87934
7.86716
7.85666
7.84763
7.83986
7.83318
7.82745
7.82254
7.81834
7.81477
7.81172
7.80913
7.80694
7.80509
7.80354
7.80223
7.80113
7.80021
7.79945
7.79882
7.7983
7.79787
7.79752
7.79723
7.797
7.79682
7.79667
7.79656
7.79647
7.79641
7.79636
7.79633
7.79632
7.79631
7.79631
7.79632
7.79633
7.79635
7.79638
7.79641
7.79644
7.79647
7.79651
7.79655
7.79659
7.79663
7.79668
7.79672
7.79677
7.79683
7.79688
7.79694
7.797
7.79706
7.79713
7.7972
7.79727
7.79735
7.79743
7.79752
7.79762
7.79773
7.79785
7.79799
7.79817
7.79838
7.79867
7.79906
7.79962
7.80044
7.80165
7.80348
7.80625
7.81039
7.81648
7.82499
369.012
129.576
97.3936
94.4889
99.9906
108.646
118.245
127.598
136.037
143.239
149.116
153.727
157.21
159.743
161.518
162.735
163.609
164.371
165.263
166.526
168.373
170.965
174.385
178.621
183.557
188.98
194.616
200.176
205.352
209.869
213.492
216.055
217.48
217.778
217.053
215.486
213.267
210.585
207.615
204.5
201.341
198.203
195.111
192.061
189.017
185.924
182.71
179.297
175.6
171.544
167.06
162.095
156.615
150.608
144.085
137.081
129.652
121.873
113.838
105.65
97.4204
89.2602
81.2783
73.5748
66.2373
59.3381
52.9316
47.0542
41.7241
36.9432
32.699
28.967
25.7146
22.9028
20.4895
18.4318
16.6874
15.216
13.9801
12.946
12.0833
11.3654
10.769
10.2743
9.86425
9.52442
9.24274
9.0091
8.81508
8.65374
8.51931
8.40708
8.31316
8.23437
8.16811
8.11223
8.06501
8.025
7.99102
7.96212
7.93748
7.91646
7.8985
7.88313
7.86999
7.85874
7.84911
7.84088
7.83383
7.82782
7.82269
7.81831
7.81459
7.81144
7.80876
7.8065
7.80459
7.80297
7.80162
7.80048
7.79952
7.79872
7.79805
7.79748
7.79701
7.79662
7.79629
7.79601
7.79578
7.79558
7.79541
7.79527
7.79515
7.79505
7.79496
7.79488
7.79481
7.79475
7.7947
7.79465
7.79461
7.79457
7.79453
7.7945
7.79447
7.79444
7.79442
7.7944
7.79437
7.79436
7.79434
7.79433
7.79431
7.7943
7.7943
7.79429
7.79429
7.79429
7.79429
7.7943
7.7943
7.79431
7.79433
7.79435
7.79437
7.79441
7.79445
7.79451
7.79459
7.79471
7.79489
7.79516
7.79557
7.79621
7.7972
7.79873
7.80108
7.80462
7.80982
7.8171
382.33
143.672
106.163
101.206
105.745
113.919
123.273
132.479
140.784
147.796
153.384
157.587
160.516
162.354
163.315
163.635
163.579
163.443
163.533
164.146
165.535
167.88
171.269
175.685
181.009
187.063
193.521
199.85
205.782
211.048
215.381
218.565
220.474
221.092
220.506
218.881
216.434
213.401
210.006
206.441
202.858
199.361
196.007
192.809
189.746
186.763
183.783
180.713
177.453
173.904
169.971
165.576
160.659
155.184
149.139
142.54
135.431
127.877
119.967
111.803
103.501
95.1791
86.9569
78.9472
71.2517
63.9574
57.1334
50.8299
45.0775
39.8883
35.2578
31.1678
27.5891
24.4848
21.8129
19.5295
17.5903
15.9526
14.5761
13.424
12.4631
11.6641
11.0012
10.4524
9.99858
9.62368
9.31411
9.05849
8.84734
8.6728
8.52836
8.40868
8.30934
8.22675
8.15795
8.10051
8.05246
8.01219
7.97837
7.94992
7.92593
7.90569
7.88859
7.87411
7.86186
7.85149
7.8427
7.83525
7.82895
7.82362
7.81911
7.8153
7.8121
7.80939
7.80712
7.80522
7.80361
7.80227
7.80114
7.8002
7.7994
7.79873
7.79817
7.79769
7.79728
7.79693
7.79663
7.79636
7.79613
7.79593
7.79574
7.79558
7.79543
7.79528
7.79515
7.79503
7.79491
7.7948
7.79469
7.79459
7.79449
7.79439
7.7943
7.79421
7.79412
7.79404
7.79395
7.79388
7.7938
7.79373
7.79366
7.79359
7.79353
7.79347
7.79341
7.79335
7.7933
7.79325
7.79321
7.79316
7.79312
7.79309
7.79305
7.79302
7.793
7.79298
7.79297
7.79298
7.793
7.79306
7.79317
7.79336
7.79369
7.79421
7.79506
7.7964
7.79846
7.80159
7.80617
7.81258
382.968
159.432
116.278
108.755
112.014
119.516
128.556
137.668
145.991
153.048
158.636
162.736
165.442
166.923
167.402
167.146
166.461
165.684
165.161
165.21
166.088
167.963
170.91
174.907
179.872
185.648
191.874
198.205
204.359
210.036
214.921
218.723
221.225
222.325
222.049
220.538
218.012
214.736
210.978
206.985
202.958
199.05
195.36
191.933
188.767
185.818
183.012
180.248
177.41
174.378
171.033
167.267
162.993
158.146
152.689
146.617
139.954
132.755
125.098
117.085
108.831
100.462
92.106
83.8873
75.9213
68.3095
61.1356
54.4638
48.3374
42.7795
37.7948
33.3718
29.4859
26.1031
23.1825
20.6799
18.5498
16.7473
15.2301
13.9588
12.8975
12.0146
11.2819
10.6754
10.1741
9.76035
9.41919
9.13803
8.90638
8.71549
8.55814
8.42836
8.32123
8.23271
8.15949
8.09884
8.04855
8.00679
7.97207
7.94317
7.91909
7.89899
7.88222
7.8682
7.85648
7.84668
7.83849
7.83164
7.82591
7.82113
7.81714
7.81381
7.81104
7.80874
7.80682
7.80523
7.8039
7.80279
7.80187
7.80109
7.80044
7.79988
7.79941
7.799
7.79863
7.79831
7.79803
7.79776
7.79752
7.79729
7.79708
7.79687
7.79667
7.79648
7.79629
7.79611
7.79593
7.79576
7.79559
7.79542
7.79525
7.79509
7.79493
7.79478
7.79463
7.79448
7.79434
7.7942
7.79407
7.79394
7.79382
7.7937
7.79358
7.79347
7.79337
7.79327
7.79317
7.79308
7.79299
7.7929
7.79282
7.79275
7.79268
7.79261
7.79255
7.79249
7.79244
7.79241
7.7924
7.79241
7.79248
7.79262
7.79288
7.79334
7.79409
7.7953
7.79716
7.79999
7.80413
7.8099
370.033
176.222
128.427
118.05
119.891
126.709
135.523
144.717
153.311
160.728
166.674
171.061
173.94
175.462
175.849
175.384
174.393
173.231
172.251
171.766
172.016
173.148
175.224
178.242
182.18
186.973
192.309
197.958
203.682
209.187
214.128
218.151
220.956
222.356
222.305
220.894
218.324
214.861
210.798
206.417
201.964
197.637
193.576
189.862
186.519
183.524
180.807
178.267
175.779
173.204
170.402
167.24
163.601
159.393
154.554
149.054
142.899
136.127
128.809
121.04
112.935
104.622
96.2381
87.9159
79.7829
71.9534
64.5244
57.5728
51.154
45.3015
40.0288
35.3311
31.189
27.5714
24.4392
21.7485
19.453
17.5068
15.8657
14.4882
13.3367
12.3773
11.5803
10.9197
10.3732
9.9217