/*--------------------------------*- C++ -*----------------------------------*\
| =========                 |                                                 |
| \\      /  F ield         | OpenFOAM: The Open Source CFD Toolbox           |
|  \\    /   O peration     | Version:  2412                                  |
|   \\  /    A nd           | Website:  www.openfoam.com                      |
|    \\/     M anipulation  |                                                 |
\*---------------------------------------------------------------------------*/
FoamFile
{
    version     2.0;
    format      ascii;
    arch        "LSB;label=32;scalar=64";
    class       volScalarField;
    location    "0.01";
    object      k;
}
// * * * * * * * * * * * * * * * * * * * * * * * * * * * * * * * * * * * * * //

dimensions      [0 2 -2 0 0 0 0];

internalField   nonuniform List<scalar> 
12225
(
0.316794
0.394618
0.478475
0.543935
0.596214
0.638117
0.672092
0.700002
0.723151
0.742514
0.758821
0.772607
0.784253
0.794015
0.802062
0.80848
0.813939
0.821671
0.569179
0.789285
0.953656
1.07014
1.15475
1.21794
1.26532
1.30095
1.32781
1.348
1.36306
1.37417
1.3822
1.38781
1.39154
1.39366
1.39506
1.39566
0.670151
0.972522
1.18421
1.33397
1.44268
1.5234
1.58353
1.62829
1.66157
1.68618
1.70419
1.71717
1.72633
1.73262
1.73685
1.73971
1.74247
1.74764
0.722157
1.07687
1.32699
1.50559
1.63606
1.73292
1.80505
1.85871
1.89854
1.92792
1.94939
1.96488
1.97592
1.98374
1.98943
1.99412
1.99967
2.00945
0.742709
1.1289
1.41183
1.61786
1.77021
1.8839
1.96896
2.03256
2.07998
2.11516
2.14107
2.16003
2.17385
2.18406
2.19207
2.1994
2.20827
2.22197
0.739685
1.13688
1.44476
1.67592
1.85024
1.98194
2.08149
2.15669
2.21337
2.25594
2.2878
2.31158
2.32945
2.34321
2.35456
2.36531
2.37779
2.39472
0.719182
1.10728
1.42836
1.67948
1.87419
2.02426
2.1396
2.2281
2.2959
2.34772
2.38729
2.41759
2.44103
2.45971
2.47556
2.49054
2.50687
2.52654
0.686968
1.0483
1.36754
1.62964
1.84018
2.007
2.13816
2.24092
2.32126
2.384
2.43304
2.47154
2.50216
2.52719
2.5487
2.56872
2.58919
2.61141
0.648062
0.969664
1.27119
1.53194
1.7502
1.92912
2.07389
2.19023
2.2834
2.35791
2.41757
2.46559
2.5047
2.53729
2.56548
2.59123
2.61618
2.64103
0.606314
0.880889
1.15118
1.39702
1.61199
1.79512
1.94831
2.0751
2.17941
2.26499
2.33523
2.39312
2.44129
2.48207
2.5175
2.54939
2.57905
2.60672
0.564437
0.789744
1.01998
1.23899
1.43882
1.61596
1.76957
1.90087
2.01209
2.10586
2.18479
2.25137
2.3079
2.35645
2.39886
2.43668
2.47094
2.50149
0.527233
0.708281
0.898011
1.08471
1.2611
1.42298
1.56815
1.69612
1.80767
1.90421
1.98747
2.05925
2.12134
2.17541
2.22299
2.26532
2.30315
2.336
0.493089
0.633392
0.783394
0.935295
1.08327
1.22346
1.35324
1.4712
1.57698
1.67097
1.754
1.82715
1.89159
1.94852
1.99904
2.04408
2.08409
2.11837
0.459167
0.558434
0.666332
0.77867
0.891464
1.00177
1.10728
1.20634
1.29799
1.38185
1.45796
1.52666
1.58849
1.64404
1.69394
1.73872
1.77853
1.81252
0.428024
0.489535
0.556934
0.628838
0.703232
0.778345
0.852624
0.924735
0.993656
1.05871
1.11949
1.17584
1.22774
1.27532
1.31872
1.35811
1.3934
1.42373
0.402153
0.432976
0.466647
0.503119
0.541838
0.582159
0.623417
0.664917
0.706
0.746105
0.784787
0.821707
0.856619
0.889356
0.919805
0.947876
0.973394
0.995722
0.383459
0.39318
0.403993
0.416
0.429127
0.443252
0.458242
0.473919
0.490077
0.5065
0.522978
0.539314
0.55533
0.570868
0.585791
0.599984
0.613313
0.625534
0.373889
0.373364
0.37352
0.374364
0.375864
0.377989
0.380716
0.384022
0.38788
0.392261
0.397136
0.402472
0.408239
0.414405
0.42094
0.427819
0.435022
0.442553
0.376976
0.379745
0.383373
0.387946
0.393474
0.39996
0.407413
0.415839
0.425249
0.435721
0.447252
0.459818
0.473395
0.487952
0.50346
0.519889
0.537193
0.555172
0.395868
0.419933
0.446784
0.476639
0.509347
0.544673
0.582341
0.622006
0.663254
0.705584
0.748639
0.792118
0.835772
0.879402
0.922884
0.966249
1.00946
1.0518
0.429155
0.492413
0.5623
0.637736
0.717023
0.798633
0.881221
0.963579
1.04471
1.12387
1.20055
1.27443
1.34535
1.41322
1.478
1.53951
1.59747
1.65125
0.477428
0.599124
0.731186
0.868063
1.00493
1.13849
1.26635
1.38686
1.49913
1.6029
1.69833
1.78581
1.8659
1.93921
2.00635
2.06784
2.124
2.17453
0.538559
0.732995
0.936509
1.13616
1.32427
1.4971
1.65284
1.79116
1.91291
2.01953
2.11264
2.19391
2.26491
2.32707
2.38161
2.42959
2.47179
2.50864
0.605629
0.877845
1.14722
1.39318
1.60939
1.79542
1.95293
2.08497
2.19507
2.28667
2.36283
2.42616
2.4789
2.5229
2.55968
2.59046
2.61619
2.63756
0.66945
1.0107
1.32171
1.58292
1.797
1.97026
2.10911
2.21982
2.30787
2.37778
2.43316
2.47695
2.51147
2.53858
2.55973
2.57609
2.58852
2.59774
0.718039
1.10108
1.41711
1.66256
1.85239
1.99883
2.11136
2.19761
2.26353
2.31367
2.35154
2.37985
2.40069
2.41567
2.42605
2.43281
2.43667
2.43825
0.736057
1.11923
1.40777
1.61976
1.77703
1.89444
1.98216
2.0475
2.09588
2.13138
2.157
2.17506
2.18727
2.19497
2.19917
2.20064
2.19998
2.19768
0.708214
1.04661
1.28912
1.46263
1.5875
1.67883
1.74593
1.795
1.83058
1.85602
1.87376
1.88564
1.89302
1.89694
1.89819
1.89737
1.89493
1.8913
0.616781
0.861305
1.04611
1.17824
1.27079
1.33756
1.38623
1.42153
1.44693
1.46495
1.47738
1.48554
1.49042
1.49278
1.49317
1.49203
1.48969
1.48649
0.333241
0.407877
0.493993
0.56053
0.611667
0.651176
0.68187
0.705969
0.725043
0.740206
0.752291
0.761925
0.769584
0.775632
0.780348
0.783954
0.786609
0.788484
0.0308501
0.0564067
0.0719385
0.0842425
0.0945115
0.10342
0.111432
0.118908
0.12613
0.13331
0.140603
0.14812
0.155804
0.16362
0.17154
0.179532
0.187559
0.195585
0.203575
0.211499
0.219328
0.22704
0.234615
0.242041
0.249308
0.256418
0.26338
0.270219
0.276981
0.283587
0.289609
0.294996
0.299705
0.303695
0.306924
0.309358
0.310966
0.311728
0.311631
0.310675
0.308872
0.306246
0.30284
0.298707
0.293924
0.288586
0.282815
0.27676
0.270595
0.264522
0.258807
0.253696
0.249319
0.245153
0.240972
0.236786
0.232638
0.22858
0.22466
0.220921
0.217399
0.214125
0.211121
0.208401
0.205977
0.20385
0.202018
0.200475
0.19921
0.198209
0.197455
0.196931
0.196616
0.196491
0.196537
0.196732
0.197059
0.197497
0.198032
0.198645
0.199322
0.20005
0.200816
0.201609
0.20242
0.20324
0.204062
0.204879
0.205686
0.206479
0.207253
0.208007
0.208737
0.209441
0.210119
0.21077
0.211393
0.211987
0.212553
0.213091
0.213601
0.214085
0.214542
0.214973
0.21538
0.215762
0.216122
0.216458
0.216766
0.217045
0.217296
0.217519
0.217717
0.217891
0.218046
0.218182
0.218304
0.218412
0.218508
0.218595
0.218672
0.218742
0.218805
0.218862
0.218913
0.218959
0.219
0.219037
0.21907
0.219099
0.219125
0.219148
0.219168
0.219185
0.2192
0.219212
0.219223
0.219232
0.219238
0.219244
0.219248
0.21925
0.219252
0.219252
0.219251
0.21925
0.219247
0.219244
0.219239
0.219234
0.219228
0.219221
0.219213
0.219203
0.219193
0.21918
0.219166
0.219151
0.219132
0.219112
0.219087
0.219059
0.219026
0.218986
0.218938
0.21888
0.218809
0.21872
0.21861
0.21847
0.218292
0.218062
0.21776
0.21736
0.216819
0.216068
0.215
0.213374
0.210991
0.206289
0.0660684
0.122087
0.158157
0.185197
0.206181
0.222683
0.235928
0.246946
0.256589
0.265524
0.274241
0.283071
0.292222
0.301816
0.31192
0.322564
0.333753
0.345483
0.357739
0.370504
0.383754
0.397459
0.411584
0.426081
0.440894
0.455958
0.471195
0.486514
0.501787
0.516765
0.531323
0.545314
0.558575
0.570943
0.582256
0.592357
0.601098
0.608345
0.613979
0.617904
0.620045
0.620353
0.618806
0.615409
0.610197
0.60323
0.594597
0.584416
0.572823
0.559961
0.545956
0.530962
0.515664
0.499966
0.48393
0.467699
0.451424
0.435252
0.419318
0.403739
0.388618
0.374041
0.360078
0.346781
0.334188
0.322322
0.311195
0.300806
0.291145
0.282194
0.273928
0.266319
0.259334
0.252937
0.247091
0.241759
0.236905
0.232493
0.228486
0.224853
0.22156
0.218579
0.215882
0.213443
0.211237
0.209244
0.207442
0.205813
0.204341
0.20301
0.201805
0.200715
0.199728
0.198834
0.198022
0.197285
0.196615
0.196005
0.195449
0.194942
0.194477
0.194051
0.19366
0.1933
0.192968
0.192661
0.192376
0.192112
0.191866
0.191636
0.191425
0.19123
0.191051
0.190886
0.190734
0.190592
0.190459
0.190334
0.190216
0.190103
0.189994
0.189889
0.189787
0.189687
0.18959
0.189494
0.189399
0.189306
0.189214
0.189122
0.189032
0.188942
0.188852
0.188763
0.188674
0.188585
0.188497
0.188408
0.18832
0.188232
0.188144
0.188056
0.187967
0.187879
0.187791
0.187702
0.187614
0.187525
0.187435
0.187346
0.187256
0.187166
0.187076
0.186986
0.186895
0.186804
0.186712
0.18662
0.186528
0.186436
0.186343
0.18625
0.186157
0.186063
0.185968
0.185873
0.185777
0.18568
0.185583
0.185485
0.185387
0.185289
0.185194
0.185107
0.185037
0.185008
0.185063
0.185382
0.186008
0.189519
0.0979062
0.17547
0.225191
0.261474
0.289306
0.311029
0.328325
0.342541
0.354786
0.365944
0.376677
0.387448
0.398554
0.410176
0.42241
0.435299
0.448857
0.463082
0.477968
0.493502
0.50967
0.526454
0.543826
0.56175
0.580173
0.599032
0.618243
0.637705
0.657284
0.676664
0.695573
0.713786
0.731086
0.747252
0.762066
0.775318
0.786808
0.796356
0.803799
0.809003
0.811859
0.812293
0.810264
0.805766
0.798827
0.789512
0.777921
0.764187
0.748475
0.730972
0.711879
0.691349
0.670345
0.648735
0.626653
0.604292
0.581855
0.559536
0.537514
0.515949
0.494979
0.474721
0.455272
0.436707
0.41908
0.402428
0.386772
0.372115
0.358449
0.345755
0.334004
0.323159
0.31318
0.304021
0.295633
0.287968
0.280975
0.274605
0.26881
0.263545
0.258764
0.254428
0.250496
0.246933
0.243705
0.240781
0.238133
0.235733
0.233559
0.231589
0.229803
0.228183
0.226713
0.225378
0.224165
0.223061
0.222057
0.221142
0.220307
0.219544
0.218847
0.218208
0.217622
0.217083
0.216587
0.21613
0.215707
0.215315
0.214949
0.214605
0.214277
0.213967
0.213674
0.213396
0.213133
0.212884
0.212647
0.212422
0.212208
0.212004
0.211809
0.211623
0.211444
0.211273
0.211108
0.21095
0.210797
0.210649
0.210506
0.210366
0.210231
0.210099
0.20997
0.209843
0.20972
0.209598
0.209478
0.209361
0.209245
0.20913
0.209016
0.208904
0.208793
0.208682
0.208573
0.208463
0.208355
0.208246
0.208138
0.208029
0.207921
0.207812
0.207703
0.207594
0.207484
0.207373
0.207262
0.20715
0.207036
0.206922
0.206807
0.20669
0.206571
0.20645
0.206325
0.206198
0.206065
0.205927
0.205782
0.205627
0.20546
0.205276
0.205072
0.20484
0.20457
0.204251
0.203857
0.203394
0.202716
0.202402
0.126745
0.219742
0.280085
0.323591
0.357027
0.383427
0.404836
0.42278
0.438471
0.452859
0.466659
0.480374
0.494338
0.508753
0.523735
0.539342
0.555604
0.572538
0.590154
0.608459
0.62746
0.647152
0.667522
0.688538
0.710146
0.732267
0.754793
0.777581
0.80046
0.823013
0.844888
0.865815
0.885542
0.903822
0.920413
0.93508
0.947603
0.957777
0.965425
0.970393
0.972559
0.971838
0.968179
0.961574
0.952054
0.939689
0.924592
0.906916
0.886855
0.864639
0.840522
0.814844
0.788549
0.761568
0.73408
0.706325
0.678548
0.650983
0.623845
0.597321
0.571576
0.546747
0.522943
0.500251
0.478731
0.458422
0.439344
0.4215
0.404877
0.389447
0.375176
0.362018
0.349922
0.338832
0.328688
0.319432
0.311
0.303334
0.296374
0.290063
0.284347
0.279175
0.274499
0.270273
0.266456
0.26301
0.259899
0.257091
0.254557
0.252269
0.250203
0.248337
0.246652
0.245128
0.24375
0.242503
0.241374
0.240351
0.239422
0.238579
0.237812
0.237114
0.236478
0.235897
0.235366
0.23488
0.234433
0.234022
0.233643
0.233291
0.232963
0.232653
0.232362
0.232088
0.231829
0.231583
0.23135
0.231128
0.230916
0.230715
0.230522
0.230337
0.230161
0.229992
0.229829
0.229673
0.229523
0.229378
0.229238
0.229102
0.22897
0.228842
0.228718
0.228596
0.228478
0.228361
0.228247
0.228135
0.228024
0.227915
0.227808
0.227701
0.227596
0.227491
0.227388
0.227285
0.227182
0.22708
0.226977
0.226875
0.226773
0.226671
0.226568
0.226465
0.226361
0.226257
0.226152
0.226046
0.225939
0.225831
0.225722
0.225611
0.225498
0.225383
0.225265
0.225144
0.225019
0.224888
0.224751
0.224605
0.224448
0.224277
0.224087
0.223873
0.223627
0.223338
0.222988
0.222564
0.22198
0.221347
0.153878
0.258504
0.327748
0.377698
0.416537
0.447828
0.473881
0.496343
0.516459
0.535184
0.553221
0.571062
0.58903
0.607322
0.626055
0.645298
0.665096
0.685488
0.706504
0.728174
0.750516
0.773533
0.797206
0.82149
0.846305
0.871542
0.897054
0.922662
0.948158
0.973043
0.996966
1.01965
1.04083
1.06025
1.07765
1.0928
1.10545
1.1154
1.12244
1.12641
1.12717
1.12463
1.11873
1.10944
1.0968
1.08087
1.06179
1.03972
1.01488
0.987531
0.957986
0.92686
0.89496
0.862289
0.829089
0.795657
0.762295
0.729285
0.696884
0.665316
0.634772
0.605409
0.577349
0.550683
0.525472
0.501752
0.479534
0.458809
0.439552
0.421724
0.405275
0.390144
0.376267
0.363573
0.351991
0.341446
0.331864
0.323173
0.315304
0.308188
0.301761
0.295963
0.290736
0.286028
0.28179
0.277977
0.274547
0.271463
0.268689
0.266196
0.263954
0.261938
0.260125
0.258494
0.257027
0.255705
0.254515
0.253442
0.252474
0.251601
0.250812
0.250098
0.249451
0.248865
0.248333
0.247849
0.247408
0.247006
0.246637
0.246299
0.245987
0.245697
0.245426
0.245173
0.244935
0.244712
0.2445
0.2443
0.24411
0.24393
0.243757
0.243593
0.243436
0.243286
0.243142
0.243004
0.242871
0.242743
0.24262
0.242501
0.242386
0.242274
0.242165
0.242058
0.241955
0.241853
0.241754
0.241656
0.24156
0.241465
0.241371
0.241279
0.241187
0.241096
0.241006
0.240916
0.240827
0.240737
0.240648
0.240559
0.24047
0.240381
0.240291
0.240201
0.240111
0.24002
0.239928
0.239835
0.239742
0.239647
0.239551
0.239453
0.239354
0.239253
0.23915
0.239044
0.238934
0.238819
0.238699
0.238572
0.238436
0.238289
0.238128
0.237948
0.237744
0.237511
0.237238
0.236921
0.236522
0.236101
0.179924
0.293868
0.371131
0.427378
0.471934
0.508751
0.540314
0.568326
0.594023
0.618311
0.641829
0.665001
0.688092
0.711261
0.734604
0.758188
0.782077
0.806329
0.831008
0.856166
0.881841
0.908045
0.934762
0.961936
0.989474
1.01724
1.04507
1.07276
1.10008
1.12648
1.1517
1.17546
1.19752
1.21761
1.23547
1.25084
1.26348
1.27314
1.27962
1.28271
1.28227
1.27815
1.27027
1.25858
1.24308
1.22384
1.20095
1.1746
1.145
1.11243
1.07724
1.04045
1.00255
0.96367
0.924149
0.884365
0.8447
0.80551
0.767119
0.729809
0.693816
0.659333
0.626504
0.595431
0.566179
0.538776
0.51322
0.489487
0.467529
0.447287
0.428685
0.411643
0.396072
0.381883
0.368982
0.357278
0.34668
0.337101
0.328457
0.320666
0.313654
0.307349
0.301685
0.296601
0.29204
0.287951
0.284286
0.281002
0.278061
0.275427
0.273067
0.270955
0.269062
0.267367
0.265849
0.264488
0.263269
0.262175
0.261193
0.260313
0.259521
0.25881
0.25817
0.257593
0.257073
0.256604
0.25618
0.255795
0.255446
0.255128
0.254837
0.25457
0.254324
0.254095
0.253883
0.253684
0.253498
0.253323
0.253158
0.253001
0.252854
0.252713
0.252579
0.252452
0.25233
0.252214
0.252102
0.251995
0.251892
0.251792
0.251696
0.251602
0.251512
0.251423
0.251337
0.251253
0.251171
0.25109
0.25101
0.250931
0.250854
0.250777
0.250701
0.250626
0.250551
0.250476
0.250402
0.250328
0.250254
0.25018
0.250106
0.250032
0.249957
0.249882
0.249806
0.24973
0.249654
0.249576
0.249498
0.249419
0.249338
0.249257
0.249174
0.249089
0.249002
0.248913
0.248821
0.248725
0.248625
0.248519
0.248406
0.248285
0.248152
0.248007
0.247846
0.247666
0.247465
0.247244
0.246994
0.246771
0.20526
0.327111
0.412124
0.474971
0.52592
0.569198
0.607359
0.642087
0.674532
0.705477
0.735429
0.764689
0.79343
0.821755
0.849748
0.877497
0.905109
0.932704
0.9604
0.988305
1.0165
1.04502
1.07387
1.103
1.13231
1.16168
1.19091
1.21979
1.24809
1.27527
1.30117
1.32559
1.34826
1.36892
1.38729
1.4031
1.41609
1.42598
1.43254
1.43554
1.43476
1.43004
1.42123
1.40824
1.391
1.36952
1.34387
1.31418
1.28067
1.24362
1.20332
1.16129
1.11753
1.07236
1.02623
0.97962
0.933024
0.886901
0.841675
0.797721
0.755357
0.71484
0.676366
0.640071
0.606037
0.574295
0.544836
0.517618
0.492569
0.469601
0.448609
0.429479
0.412093
0.396329
0.382069
0.369195
0.357592
0.347153
0.337774
0.329358
0.321815
0.315062
0.30902
0.303618
0.298792
0.294481
0.290633
0.287198
0.284134
0.281399
0.27896
0.276784
0.274844
0.273112
0.271568
0.270189
0.26896
0.267862
0.266882
0.266007
0.265225
0.264525
0.2639
0.26334
0.262839
0.262389
0.261985
0.261622
0.261295
0.261
0.260732
0.260489
0.260267
0.260063
0.259875
0.259701
0.259539
0.259388
0.259248
0.259115
0.258991
0.258874
0.258763
0.258658
0.258559
0.258463
0.258373
0.258286
0.258202
0.258122
0.258045
0.25797
0.257897
0.257827
0.257758
0.257691
0.257625
0.257561
0.257498
0.257435
0.257373
0.257312
0.257252
0.257192
0.257132
0.257073
0.257014
0.256955
0.256896
0.256837
0.256778
0.256719
0.256659
0.256599
0.256538
0.256478
0.256416
0.256354
0.256291
0.256227
0.256163
0.256097
0.25603
0.255962
0.255892
0.25582
0.255746
0.255668
0.255588
0.255503
0.255413
0.255316
0.255213
0.2551
0.254978
0.254847
0.254708
0.254567
0.254431
0.25435
0.230195
0.359264
0.452181
0.52221
0.580398
0.631133
0.676919
0.719298
0.759231
0.797293
0.833801
0.868919
0.902745
0.935378
0.966951
0.997642
1.02766
1.05723
1.08657
1.11585
1.14521
1.17474
1.20445
1.23431
1.26425
1.29413
1.32378
1.353
1.38139
1.40872
1.43491
1.45973
1.48294
1.50427
1.52341
1.5401
1.55403
1.56492
1.57249
1.57648
1.57663
1.57269
1.56446
1.55177
1.53447
1.51249
1.48581
1.4545
1.41868
1.37859
1.33509
1.2889
1.2402
1.18943
1.13713
1.08389
1.03029
0.976937
0.924371
0.873099
0.823559
0.776119
0.731066
0.688606
0.648871
0.611925
0.577767
0.54635
0.517586
0.491356
0.467522
0.445933
0.426432
0.40886
0.39306
0.378881
0.366178
0.354814
0.344661
0.335601
0.327524
0.320329
0.313924
0.308226
0.303158
0.298653
0.294648
0.29109
0.287928
0.285119
0.282624
0.280406
0.278436
0.276686
0.275131
0.273749
0.272521
0.27143
0.27046
0.269598
0.268831
0.26815
0.267543
0.267003
0.266523
0.266094
0.265712
0.265371
0.265067
0.264794
0.264549
0.264328
0.264129
0.263947
0.263782
0.263631
0.263491
0.263363
0.263245
0.263134
0.263032
0.262936
0.262846
0.262761
0.262682
0.262606
0.262534
0.262466
0.262401
0.262338
0.262278
0.26222
0.262164
0.26211
0.262057
0.262006
0.261956
0.261906
0.261858
0.26181
0.261763
0.261717
0.261671
0.261625
0.26158
0.261534
0.261489
0.261444
0.261399
0.261354
0.261308
0.261263
0.261217
0.261171
0.261125
0.261078
0.261031
0.260983
0.260934
0.260885
0.260835
0.260785
0.260733
0.26068
0.260626
0.26057
0.260513
0.260453
0.260391
0.260325
0.260256
0.260183
0.260105
0.260022
0.259935
0.259846
0.259759
0.259684
0.259633
0.259651
0.254973
0.391131
0.492277
0.570068
0.6362
0.695089
0.749039
0.799315
0.846583
0.891167
0.933213
0.972811
1.01009
1.04524
1.07855
1.11034
1.14099
1.17082
1.20016
1.22926
1.2583
1.28739
1.31661
1.34594
1.37532
1.40464
1.43375
1.46247
1.49026
1.51732
1.54352
1.56865
1.59244
1.61461
1.63485
1.65287
1.66837
1.68105
1.6906
1.6967
1.69907
1.69738
1.69137
1.68074
1.66529
1.64481
1.61918
1.58836
1.55239
1.51165
1.46698
1.4185
1.36658
1.31173
1.25452
1.19563
1.13575
1.07558
1.01582
0.957109
0.900047
0.845144
0.792824
0.743411
0.69713
0.654114
0.614409
0.577988
0.544762
0.5146
0.487334
0.462777
0.44073
0.42099
0.403356
0.387637
0.373647
0.361215
0.35018
0.340397
0.331729
0.324056
0.317266
0.311259
0.305948
0.301251
0.297098
0.293426
0.29018
0.287308
0.284769
0.282522
0.280535
0.278777
0.277221
0.275844
0.274625
0.273547
0.272592
0.271747
0.271
0.270338
0.269752
0.269233
0.268774
0.268367
0.268006
0.267686
0.267402
0.26715
0.266926
0.266726
0.266547
0.266386
0.26624
0.266109
0.265989
0.26588
0.265781
0.26569
0.265606
0.265528
0.265456
0.265389
0.265327
0.265268
0.265213
0.26516
0.265111
0.265064
0.265018
0.264975
0.264934
0.264893
0.264854
0.264816
0.26478
0.264743
0.264708
0.264673
0.264639
0.264605
0.264571
0.264538
0.264504
0.264471
0.264438
0.264405
0.264372
0.264339
0.264306
0.264273
0.264239
0.264205
0.264171
0.264137
0.264102
0.264066
0.264031
0.263994
0.263957
0.26392
0.263882
0.263842
0.263802
0.263761
0.263718
0.263674
0.263628
0.26358
0.263529
0.263476
0.263421
0.263364
0.263306
0.263252
0.263207
0.263183
0.263196
0.26328
0.279688
0.423082
0.532622
0.618419
0.692698
0.75976
0.821561
0.878983
0.932372
0.981844
1.02748
1.06944
1.10799
1.14354
1.17657
1.20759
1.23708
1.26551
1.29326
1.32064
1.34787
1.37515
1.40256
1.43014
1.45787
1.48568
1.51341
1.54086
1.56777
1.59438
1.62055
1.64604
1.67054
1.69376
1.71541
1.73518
1.75278
1.76791
1.78024
1.78944
1.79517
1.79707
1.79475
1.78787
1.77607
1.75905
1.73655
1.70841
1.67475
1.63601
1.59226
1.54372
1.49075
1.43385
1.37362
1.31075
1.24599
1.18015
1.11403
1.04844
0.984134
0.921783
0.861981
0.805207
0.751826
0.702085
0.656116
0.613954
0.575542
0.540756
0.50942
0.481318
0.456217
0.43387
0.414031
0.396459
0.380927
0.367219
0.355138
0.344501
0.335144
0.326917
0.319686
0.313333
0.307751
0.302846
0.298536
0.294747
0.291415
0.288485
0.285906
0.283636
0.281638
0.279878
0.278327
0.27696
0.275756
0.274694
0.273759
0.272934
0.272207
0.271566
0.271002
0.270504
0.270066
0.269679
0.269339
0.269039
0.268774
0.268541
0.268335
0.268153
0.267991
0.267847
0.267719
0.267604
0.267501
0.267409
0.267325
0.26725
0.267181
0.267119
0.267062
0.267009
0.26696
0.266915
0.266874
0.266834
0.266797
0.266763
0.26673
0.266698
0.266668
0.26664
0.266612
0.266585
0.266559
0.266533
0.266508
0.266484
0.26646
0.266436
0.266413
0.266389
0.266366
0.266343
0.26632
0.266297
0.266274
0.26625
0.266227
0.266204
0.26618
0.266156
0.266132
0.266108
0.266083
0.266059
0.266033
0.266008
0.265982
0.265955
0.265928
0.2659
0.265871
0.265842
0.265812
0.265781
0.265748
0.265714
0.265679
0.265643
0.265606
0.26557
0.265537
0.265511
0.265498
0.265512
0.265568
0.265695
0.304145
0.454808
0.572426
0.66584
0.747695
0.822068
0.890476
0.9534
1.01093
1.06309
1.11005
1.15214
1.18988
1.2239
1.25486
1.2834
1.31014
1.33558
1.36018
1.38431
1.4083
1.43239
1.45677
1.48156
1.5068
1.53243
1.55832
1.58428
1.6104
1.63676
1.66314
1.68921
1.71466
1.73917
1.76246
1.78427
1.80433
1.82236
1.83805
1.85106
1.86102
1.86752
1.87011
1.86833
1.86174
1.84989
1.83236
1.8092
1.78026
1.74546
1.70483
1.65851
1.6068
1.55012
1.48903
1.4242
1.35643
1.28656
1.2155
1.14418
1.07349
1.00428
0.937322
0.873271
0.812662
0.755893
0.703228
0.654799
0.610623
0.570618
0.534623
0.502419
0.473748
0.44833
0.425875
0.406098
0.388722
0.373487
0.360151
0.348491
0.338308
0.32942
0.321665
0.314901
0.309001
0.303853
0.299361
0.295438
0.292011
0.289016
0.286396
0.284104
0.282096
0.280336
0.278794
0.277441
0.276254
0.275213
0.274299
0.273496
0.272792
0.272174
0.271631
0.271155
0.270738
0.270372
0.270051
0.269769
0.269522
0.269306
0.269116
0.26895
0.268804
0.268675
0.268561
0.26846
0.268371
0.268292
0.268222
0.268159
0.268103
0.268052
0.268007
0.267965
0.267928
0.267893
0.267862
0.267833
0.267806
0.267781
0.267757
0.267735
0.267714
0.267694
0.267674
0.267656
0.267638
0.267621
0.267604
0.267587
0.267571
0.267555
0.267539
0.267524
0.267508
0.267493
0.267477
0.267462
0.267446
0.267431
0.267415
0.267399
0.267383
0.267367
0.267351
0.267335
0.267318
0.267301
0.267284
0.267267
0.267249
0.267231
0.267213
0.267194
0.267175
0.267155
0.267134
0.267113
0.267091
0.267069
0.267046
0.267023
0.267001
0.266981
0.266966
0.26696
0.266972
0.267012
0.267096
0.267248
0.327734
0.485205
0.609917
0.709815
0.797895
0.877968
0.951112
1.01747
1.07697
1.12969
1.17595
1.21633
1.25156
1.28244
1.30978
1.33431
1.3567
1.37755
1.39739
1.41675
1.43606
1.45576
1.47616
1.49749
1.51986
1.54325
1.56749
1.59247
1.61845
1.6452
1.6723
1.69937
1.72604
1.75202
1.77706
1.80098
1.8236
1.84469
1.86398
1.88114
1.89581
1.90756
1.91583
1.92012
1.91986
1.91457
1.90386
1.88734
1.86471
1.83571
1.80022
1.75826
1.70998
1.65572
1.59594
1.53129
1.46252
1.39052
1.31625
1.24071
1.16494
1.08993
1.01662
0.945841
0.878322
0.814633
0.755197
0.700281
0.65001
0.604381
0.563282
0.526515
0.493821
0.464901
0.439434
0.417093
0.397558
0.380522
0.365697
0.352818
0.341646
0.331962
0.323575
0.316314
0.310028
0.304584
0.29987
0.295784
0.292241
0.289166
0.286495
0.284173
0.282152
0.280392
0.278859
0.277521
0.276354
0.275335
0.274445
0.273667
0.272987
0.272393
0.271874
0.271421
0.271025
0.270679
0.270377
0.270114
0.269885
0.269685
0.26951
0.269358
0.269225
0.269109
0.269008
0.26892
0.268842
0.268774
0.268714
0.268662
0.268615
0.268574
0.268537
0.268505
0.268476
0.268449
0.268426
0.268404
0.268384
0.268366
0.268349
0.268334
0.268319
0.268305
0.268292
0.26828
0.268268
0.268256
0.268245
0.268234
0.268224
0.268213
0.268203
0.268193
0.268183
0.268173
0.268163
0.268153
0.268143
0.268132
0.268122
0.268112
0.268102
0.268091
0.268081
0.26807
0.26806
0.268049
0.268037
0.268026
0.268015
0.268003
0.267991
0.267978
0.267966
0.267953
0.26794
0.267926
0.267912
0.267898
0.267884
0.267871
0.267859
0.267851
0.267849
0.267858
0.267886
0.267942
0.268043
0.268205
0.349378
0.512521
0.642757
0.747455
0.839931
0.923773
0.999685
1.06755
1.12723
1.17889
1.223
1.26032
1.29175
1.31819
1.34052
1.35955
1.376
1.39063
1.40414
1.41726
1.43072
1.44516
1.46112
1.47897
1.49885
1.5207
1.54425
1.56968
1.59669
1.62472
1.6532
1.68164
1.7097
1.73713
1.76376
1.78954
1.81444
1.83835
1.86104
1.88221
1.90157
1.91873
1.93299
1.94379
1.9506
1.95283
1.94988
1.94117
1.92619
1.90451
1.87585
1.84003
1.79709
1.7472
1.69074
1.62826
1.56047
1.48825
1.41257
1.33451
1.25517
1.1757
1.09716
1.02058
0.946845
0.876719
0.810795
0.749503
0.693101
0.641696
0.595253
0.553626
0.516581
0.48382
0.455007
0.429785
0.407797
0.388694
0.372144
0.357841
0.345502
0.334873
0.325728
0.317864
0.311105
0.305297
0.300304
0.296011
0.292317
0.289135
0.286393
0.284028
0.281984
0.280218
0.278689
0.277364
0.276215
0.275219
0.274353
0.273601
0.272947
0.272379
0.271885
0.271455
0.271082
0.270758
0.270476
0.270231
0.270019
0.269835
0.269676
0.269538
0.269418
0.269314
0.269224
0.269146
0.269079
0.26902
0.268969
0.268925
0.268886
0.268853
0.268823
0.268797
0.268774
0.268754
0.268736
0.26872
0.268705
0.268692
0.26868
0.268669
0.268659
0.268649
0.26864
0.268632
0.268624
0.268616
0.268609
0.268601
0.268595
0.268588
0.268581
0.268574
0.268568
0.268561
0.268555
0.268548
0.268542
0.268535
0.268529
0.268522
0.268516
0.268509
0.268502
0.268495
0.268489
0.268482
0.268474
0.268467
0.26846
0.268452
0.268445
0.268437
0.268429
0.268421
0.268412
0.268404
0.268395
0.268387
0.268379
0.268373
0.268368
0.268368
0.268375
0.268393
0.26843
0.268496
0.268603
0.268768
0.367554
0.534847
0.668848
0.776574
0.871652
0.957551
1.03469
1.10274
1.16152
1.2112
1.25237
1.28586
1.31263
1.33365
1.34983
1.36206
1.37123
1.37828
1.38425
1.39019
1.3972
1.40623
1.41805
1.43316
1.4517
1.47348
1.49802
1.52537
1.55448
1.58447
1.61464
1.6445
1.67378
1.70232
1.72999
1.75694
1.78334
1.80937
1.83484
1.8593
1.88267
1.90459
1.92454
1.94189
1.95597
1.96604
1.97133
1.97109
1.96464
1.95135
1.93074
1.90247
1.86638
1.82249
1.77105
1.71249
1.64746
1.57678
1.50143
1.4225
1.34118
1.25868
1.17622
1.09496
1.01597
0.940175
0.868351
0.801093
0.738812
0.681743
0.629957
0.583381
0.54183
0.505029
0.472644
0.444306
0.419631
0.398237
0.379753
0.363832
0.350154
0.338427
0.328389
0.319807
0.312478
0.30622
0.300879
0.29632
0.292427
0.289101
0.286257
0.283823
0.281738
0.279949
0.278414
0.277094
0.275958
0.274979
0.274136
0.273408
0.272779
0.272236
0.271767
0.271362
0.271012
0.27071
0.270449
0.270223
0.270029
0.269861
0.269717
0.269592
0.269485
0.269393
0.269314
0.269246
0.269188
0.269138
0.269095
0.269057
0.269025
0.268998
0.268974
0.268953
0.268934
0.268919
0.268905
0.268892
0.268881
0.268871
0.268862
0.268854
0.268847
0.26884
0.268833
0.268827
0.268822
0.268816
0.268811
0.268806
0.268801
0.268796
0.268792
0.268787
0.268783
0.268778
0.268774
0.268769
0.268765
0.26876
0.268756
0.268752
0.268747
0.268743
0.268738
0.268734
0.268729
0.268725
0.26872
0.268715
0.26871
0.268705
0.2687
0.268695
0.26869
0.268685
0.26868
0.268675
0.26867
0.268665
0.268661
0.268659
0.268659
0.268664
0.268676
0.268699
0.268741
0.26881
0.268919
0.269079
0.380377
0.550614
0.687077
0.796567
0.893037
0.979962
1.05757
1.12536
1.18302
1.23067
1.26887
1.29845
1.32037
1.33561
1.34517
1.35006
1.35142
1.35051
1.34875
1.34764
1.3486
1.35292
1.36155
1.375
1.39336
1.41617
1.44318
1.47308
1.50439
1.53611
1.56753
1.59822
1.62803
1.65711
1.68487
1.7119
1.73859
1.76521
1.79186
1.81848
1.84492
1.87083
1.89571
1.91893
1.93973
1.95728
1.97068
1.97902
1.98142
1.97706
1.96526
1.94547
1.91733
1.88068
1.83561
1.78242
1.72165
1.65405
1.58056
1.50229
1.42046
1.33636
1.25131
1.16659
1.08342
1.0029
0.92597
0.853387
0.785721
0.723345
0.666448
0.615049
0.569031
0.528161
0.492125
0.460555
0.433056
0.409219
0.388647
0.370958
0.355796
0.342834
0.331778
0.322365
0.314362
0.307565
0.301797
0.296903
0.292752
0.289231
0.286242
0.283704
0.281547
0.279712
0.27815
0.276818
0.275682
0.274712
0.273882
0.273173
0.272565
0.272044
0.271598
0.271215
0.270887
0.270605
0.270364
0.270157
0.26998
0.269829
0.269699
0.269589
0.269494
0.269414
0.269345
0.269286
0.269236
0.269194
0.269157
0.269126
0.2691
0.269077
0.269057
0.26904
0.269026
0.269013
0.269002
0.268992
0.268983
0.268975
0.268968
0.268961
0.268955
0.26895
0.268945
0.26894
0.268935
0.268931
0.268926
0.268922
0.268918
0.268914
0.26891
0.268907
0.268903
0.268899
0.268896
0.268892
0.268889
0.268885
0.268882
0.268878
0.268875
0.268871
0.268868
0.268865
0.268861
0.268858
0.268854
0.268851
0.268848
0.268844
0.268841
0.268837
0.268834
0.26883
0.268827
0.268824
0.268821
0.268818
0.268817
0.268817
0.268819
0.268827
0.268841
0.268867
0.268911
0.26898
0.269086
0.269238
0.387917
0.558131
0.697238
0.808909
0.906792
0.994763
1.0731
1.14117
1.1985
1.24503
1.28117
1.3077
1.32547
1.33553
1.339
1.33713
1.33135
1.32331
1.31483
1.30776
1.30383
1.30447
1.31071
1.32305
1.34152
1.36591
1.39529
1.42663
1.4587
1.4907
1.52201
1.55223
1.5812
1.60895
1.63568
1.66179
1.68771
1.71385
1.74051
1.76783
1.79578
1.82414
1.85248
1.88021
1.90656
1.93063
1.95142
1.96787
1.97894
1.9836
1.98094
1.97018
1.95075
1.92227
1.88463
1.83798
1.78272
1.71951
1.64924
1.57298
1.49198
1.40757
1.32117
1.23416
1.14789
1.06361
0.982428
0.905252
0.83281
0.765615
0.703981
0.648031
0.597725
0.552887
0.513238
0.478424
0.448049
0.421692
0.398934
0.379368
0.362607
0.348295
0.336108
0.325754
0.316975
0.309544
0.30326
0.297953
0.293473
0.289694
0.286505
0.283815
0.281544
0.279628
0.278009
0.27664
0.275482
0.274502
0.273672
0.272968
0.272371
0.271865
0.271434
0.271069
0.270759
0.270495
0.270271
0.270081
0.26992
0.269783
0.269667
0.269569
0.269486
0.269416
0.269357
0.269307
0.269264
0.269228
0.269198
0.269172
0.26915
0.269131
0.269115
0.269101
0.269089
0.269079
0.269069
0.269061
0.269053
0.269046
0.26904
0.269034
0.269028
0.269023
0.269018
0.269013
0.269008